TITLE = "Solution"
VARIABLES = x, y, u, v, psiu, psiv, t, stress
ZONE T="structure" N=561 E=512 F=FEBLOCK ET=QUADRILATERAL VARLOCATION=([7,8]=cellcentered)
0.000000e+00
6.250000e+00
1.250000e+01
1.875000e+01
2.500000e+01
3.125000e+01
3.750000e+01
4.375000e+01
5.000000e+01
5.625000e+01
6.250000e+01
6.875000e+01
7.500000e+01
8.125000e+01
8.750000e+01
9.375000e+01
1.000000e+02
1.062500e+02
1.125000e+02
1.187500e+02
1.250000e+02
1.312500e+02
1.375000e+02
1.437500e+02
1.500000e+02
1.562500e+02
1.625000e+02
1.687500e+02
1.750000e+02
1.812500e+02
1.875000e+02
1.937500e+02
2.000000e+02
0.000000e+00
6.250000e+00
1.250000e+01
1.875000e+01
2.500000e+01
3.125000e+01
3.750000e+01
4.375000e+01
5.000000e+01
5.625000e+01
6.250000e+01
6.875000e+01
7.500000e+01
8.125000e+01
8.750000e+01
9.375000e+01
1.000000e+02
1.062500e+02
1.125000e+02
1.187500e+02
1.250000e+02
1.312500e+02
1.375000e+02
1.437500e+02
1.500000e+02
1.562500e+02
1.625000e+02
1.687500e+02
1.750000e+02
1.812500e+02
1.875000e+02
1.937500e+02
2.000000e+02
0.000000e+00
6.250000e+00
1.250000e+01
1.875000e+01
2.500000e+01
3.125000e+01
3.750000e+01
4.375000e+01
5.000000e+01
5.625000e+01
6.250000e+01
6.875000e+01
7.500000e+01
8.125000e+01
8.750000e+01
9.375000e+01
1.000000e+02
1.062500e+02
1.125000e+02
1.187500e+02
1.250000e+02
1.312500e+02
1.375000e+02
1.437500e+02
1.500000e+02
1.562500e+02
1.625000e+02
1.687500e+02
1.750000e+02
1.812500e+02
1.875000e+02
1.937500e+02
2.000000e+02
0.000000e+00
6.250000e+00
1.250000e+01
1.875000e+01
2.500000e+01
3.125000e+01
3.750000e+01
4.375000e+01
5.000000e+01
5.625000e+01
6.250000e+01
6.875000e+01
7.500000e+01
8.125000e+01
8.750000e+01
9.375000e+01
1.000000e+02
1.062500e+02
1.125000e+02
1.187500e+02
1.250000e+02
1.312500e+02
1.375000e+02
1.437500e+02
1.500000e+02
1.562500e+02
1.625000e+02
1.687500e+02
1.750000e+02
1.812500e+02
1.875000e+02
1.937500e+02
2.000000e+02
0.000000e+00
6.250000e+00
1.250000e+01
1.875000e+01
2.500000e+01
3.125000e+01
3.750000e+01
4.375000e+01
5.000000e+01
5.625000e+01
6.250000e+01
6.875000e+01
7.500000e+01
8.125000e+01
8.750000e+01
9.375000e+01
1.000000e+02
1.062500e+02
1.125000e+02
1.187500e+02
1.250000e+02
1.312500e+02
1.375000e+02
1.437500e+02
1.500000e+02
1.562500e+02
1.625000e+02
1.687500e+02
1.750000e+02
1.812500e+02
1.875000e+02
1.937500e+02
2.000000e+02
0.000000e+00
6.250000e+00
1.250000e+01
1.875000e+01
2.500000e+01
3.125000e+01
3.750000e+01
4.375000e+01
5.000000e+01
5.625000e+01
6.250000e+01
6.875000e+01
7.500000e+01
8.125000e+01
8.750000e+01
9.375000e+01
1.000000e+02
1.062500e+02
1.125000e+02
1.187500e+02
1.250000e+02
1.312500e+02
1.375000e+02
1.437500e+02
1.500000e+02
1.562500e+02
1.625000e+02
1.687500e+02
1.750000e+02
1.812500e+02
1.875000e+02
1.937500e+02
2.000000e+02
0.000000e+00
6.250000e+00
1.250000e+01
1.875000e+01
2.500000e+01
3.125000e+01
3.750000e+01
4.375000e+01
5.000000e+01
5.625000e+01
6.250000e+01
6.875000e+01
7.500000e+01
8.125000e+01
8.750000e+01
9.375000e+01
1.000000e+02
1.062500e+02
1.125000e+02
1.187500e+02
1.250000e+02
1.312500e+02
1.375000e+02
1.437500e+02
1.500000e+02
1.562500e+02
1.625000e+02
1.687500e+02
1.750000e+02
1.812500e+02
1.875000e+02
1.937500e+02
2.000000e+02
0.000000e+00
6.250000e+00
1.250000e+01
1.875000e+01
2.500000e+01
3.125000e+01
3.750000e+01
4.375000e+01
5.000000e+01
5.625000e+01
6.250000e+01
6.875000e+01
7.500000e+01
8.125000e+01
8.750000e+01
9.375000e+01
1.000000e+02
1.062500e+02
1.125000e+02
1.187500e+02
1.250000e+02
1.312500e+02
1.375000e+02
1.437500e+02
1.500000e+02
1.562500e+02
1.625000e+02
1.687500e+02
1.750000e+02
1.812500e+02
1.875000e+02
1.937500e+02
2.000000e+02
0.000000e+00
6.250000e+00
1.250000e+01
1.875000e+01
2.500000e+01
3.125000e+01
3.750000e+01
4.375000e+01
5.000000e+01
5.625000e+01
6.250000e+01
6.875000e+01
7.500000e+01
8.125000e+01
8.750000e+01
9.375000e+01
1.000000e+02
1.062500e+02
1.125000e+02
1.187500e+02
1.250000e+02
1.312500e+02
1.375000e+02
1.437500e+02
1.500000e+02
1.562500e+02
1.625000e+02
1.687500e+02
1.750000e+02
1.812500e+02
1.875000e+02
1.937500e+02
2.000000e+02
0.000000e+00
6.250000e+00
1.250000e+01
1.875000e+01
2.500000e+01
3.125000e+01
3.750000e+01
4.375000e+01
5.000000e+01
5.625000e+01
6.250000e+01
6.875000e+01
7.500000e+01
8.125000e+01
8.750000e+01
9.375000e+01
1.000000e+02
1.062500e+02
1.125000e+02
1.187500e+02
1.250000e+02
1.312500e+02
1.375000e+02
1.437500e+02
1.500000e+02
1.562500e+02
1.625000e+02
1.687500e+02
1.750000e+02
1.812500e+02
1.875000e+02
1.937500e+02
2.000000e+02
0.000000e+00
6.250000e+00
1.250000e+01
1.875000e+01
2.500000e+01
3.125000e+01
3.750000e+01
4.375000e+01
5.000000e+01
5.625000e+01
6.250000e+01
6.875000e+01
7.500000e+01
8.125000e+01
8.750000e+01
9.375000e+01
1.000000e+02
1.062500e+02
1.125000e+02
1.187500e+02
1.250000e+02
1.312500e+02
1.375000e+02
1.437500e+02
1.500000e+02
1.562500e+02
1.625000e+02
1.687500e+02
1.750000e+02
1.812500e+02
1.875000e+02
1.937500e+02
2.000000e+02
0.000000e+00
6.250000e+00
1.250000e+01
1.875000e+01
2.500000e+01
3.125000e+01
3.750000e+01
4.375000e+01
5.000000e+01
5.625000e+01
6.250000e+01
6.875000e+01
7.500000e+01
8.125000e+01
8.750000e+01
9.375000e+01
1.000000e+02
1.062500e+02
1.125000e+02
1.187500e+02
1.250000e+02
1.312500e+02
1.375000e+02
1.437500e+02
1.500000e+02
1.562500e+02
1.625000e+02
1.687500e+02
1.750000e+02
1.812500e+02
1.875000e+02
1.937500e+02
2.000000e+02
0.000000e+00
6.250000e+00
1.250000e+01
1.875000e+01
2.500000e+01
3.125000e+01
3.750000e+01
4.375000e+01
5.000000e+01
5.625000e+01
6.250000e+01
6.875000e+01
7.500000e+01
8.125000e+01
8.750000e+01
9.375000e+01
1.000000e+02
1.062500e+02
1.125000e+02
1.187500e+02
1.250000e+02
1.312500e+02
1.375000e+02
1.437500e+02
1.500000e+02
1.562500e+02
1.625000e+02
1.687500e+02
1.750000e+02
1.812500e+02
1.875000e+02
1.937500e+02
2.000000e+02
0.000000e+00
6.250000e+00
1.250000e+01
1.875000e+01
2.500000e+01
3.125000e+01
3.750000e+01
4.375000e+01
5.000000e+01
5.625000e+01
6.250000e+01
6.875000e+01
7.500000e+01
8.125000e+01
8.750000e+01
9.375000e+01
1.000000e+02
1.062500e+02
1.125000e+02
1.187500e+02
1.250000e+02
1.312500e+02
1.375000e+02
1.437500e+02
1.500000e+02
1.562500e+02
1.625000e+02
1.687500e+02
1.750000e+02
1.812500e+02
1.875000e+02
1.937500e+02
2.000000e+02
0.000000e+00
6.250000e+00
1.250000e+01
1.875000e+01
2.500000e+01
3.125000e+01
3.750000e+01
4.375000e+01
5.000000e+01
5.625000e+01
6.250000e+01
6.875000e+01
7.500000e+01
8.125000e+01
8.750000e+01
9.375000e+01
1.000000e+02
1.062500e+02
1.125000e+02
1.187500e+02
1.250000e+02
1.312500e+02
1.375000e+02
1.437500e+02
1.500000e+02
1.562500e+02
1.625000e+02
1.687500e+02
1.750000e+02
1.812500e+02
1.875000e+02
1.937500e+02
2.000000e+02
0.000000e+00
6.250000e+00
1.250000e+01
1.875000e+01
2.500000e+01
3.125000e+01
3.750000e+01
4.375000e+01
5.000000e+01
5.625000e+01
6.250000e+01
6.875000e+01
7.500000e+01
8.125000e+01
8.750000e+01
9.375000e+01
1.000000e+02
1.062500e+02
1.125000e+02
1.187500e+02
1.250000e+02
1.312500e+02
1.375000e+02
1.437500e+02
1.500000e+02
1.562500e+02
1.625000e+02
1.687500e+02
1.750000e+02
1.812500e+02
1.875000e+02
1.937500e+02
2.000000e+02
0.000000e+00
6.250000e+00
1.250000e+01
1.875000e+01
2.500000e+01
3.125000e+01
3.750000e+01
4.375000e+01
5.000000e+01
5.625000e+01
6.250000e+01
6.875000e+01
7.500000e+01
8.125000e+01
8.750000e+01
9.375000e+01
1.000000e+02
1.062500e+02
1.125000e+02
1.187500e+02
1.250000e+02
1.312500e+02
1.375000e+02
1.437500e+02
1.500000e+02
1.562500e+02
1.625000e+02
1.687500e+02
1.750000e+02
1.812500e+02
1.875000e+02
1.937500e+02
2.000000e+02
0.000000e+00
0.000000e+00
0.000000e+00
0.000000e+00
0.000000e+00
0.000000e+00
0.000000e+00
0.000000e+00
0.000000e+00
0.000000e+00
0.000000e+00
0.000000e+00
0.000000e+00
0.000000e+00
0.000000e+00
0.000000e+00
0.000000e+00
0.000000e+00
0.000000e+00
0.000000e+00
0.000000e+00
0.000000e+00
0.000000e+00
0.000000e+00
0.000000e+00
0.000000e+00
0.000000e+00
0.000000e+00
0.000000e+00
0.000000e+00
0.000000e+00
0.000000e+00
0.000000e+00
6.250000e+00
6.250000e+00
6.250000e+00
6.250000e+00
6.250000e+00
6.250000e+00
6.250000e+00
6.250000e+00
6.250000e+00
6.250000e+00
6.250000e+00
6.250000e+00
6.250000e+00
6.250000e+00
6.250000e+00
6.250000e+00
6.250000e+00
6.250000e+00
6.250000e+00
6.250000e+00
6.250000e+00
6.250000e+00
6.250000e+00
6.250000e+00
6.250000e+00
6.250000e+00
6.250000e+00
6.250000e+00
6.250000e+00
6.250000e+00
6.250000e+00
6.250000e+00
6.250000e+00
1.250000e+01
1.250000e+01
1.250000e+01
1.250000e+01
1.250000e+01
1.250000e+01
1.250000e+01
1.250000e+01
1.250000e+01
1.250000e+01
1.250000e+01
1.250000e+01
1.250000e+01
1.250000e+01
1.250000e+01
1.250000e+01
1.250000e+01
1.250000e+01
1.250000e+01
1.250000e+01
1.250000e+01
1.250000e+01
1.250000e+01
1.250000e+01
1.250000e+01
1.250000e+01
1.250000e+01
1.250000e+01
1.250000e+01
1.250000e+01
1.250000e+01
1.250000e+01
1.250000e+01
1.875000e+01
1.875000e+01
1.875000e+01
1.875000e+01
1.875000e+01
1.875000e+01
1.875000e+01
1.875000e+01
1.875000e+01
1.875000e+01
1.875000e+01
1.875000e+01
1.875000e+01
1.875000e+01
1.875000e+01
1.875000e+01
1.875000e+01
1.875000e+01
1.875000e+01
1.875000e+01
1.875000e+01
1.875000e+01
1.875000e+01
1.875000e+01
1.875000e+01
1.875000e+01
1.875000e+01
1.875000e+01
1.875000e+01
1.875000e+01
1.875000e+01
1.875000e+01
1.875000e+01
2.500000e+01
2.500000e+01
2.500000e+01
2.500000e+01
2.500000e+01
2.500000e+01
2.500000e+01
2.500000e+01
2.500000e+01
2.500000e+01
2.500000e+01
2.500000e+01
2.500000e+01
2.500000e+01
2.500000e+01
2.500000e+01
2.500000e+01
2.500000e+01
2.500000e+01
2.500000e+01
2.500000e+01
2.500000e+01
2.500000e+01
2.500000e+01
2.500000e+01
2.500000e+01
2.500000e+01
2.500000e+01
2.500000e+01
2.500000e+01
2.500000e+01
2.500000e+01
2.500000e+01
3.125000e+01
3.125000e+01
3.125000e+01
3.125000e+01
3.125000e+01
3.125000e+01
3.125000e+01
3.125000e+01
3.125000e+01
3.125000e+01
3.125000e+01
3.125000e+01
3.125000e+01
3.125000e+01
3.125000e+01
3.125000e+01
3.125000e+01
3.125000e+01
3.125000e+01
3.125000e+01
3.125000e+01
3.125000e+01
3.125000e+01
3.125000e+01
3.125000e+01
3.125000e+01
3.125000e+01
3.125000e+01
3.125000e+01
3.125000e+01
3.125000e+01
3.125000e+01
3.125000e+01
3.750000e+01
3.750000e+01
3.750000e+01
3.750000e+01
3.750000e+01
3.750000e+01
3.750000e+01
3.750000e+01
3.750000e+01
3.750000e+01
3.750000e+01
3.750000e+01
3.750000e+01
3.750000e+01
3.750000e+01
3.750000e+01
3.750000e+01
3.750000e+01
3.750000e+01
3.750000e+01
3.750000e+01
3.750000e+01
3.750000e+01
3.750000e+01
3.750000e+01
3.750000e+01
3.750000e+01
3.750000e+01
3.750000e+01
3.750000e+01
3.750000e+01
3.750000e+01
3.750000e+01
4.375000e+01
4.375000e+01
4.375000e+01
4.375000e+01
4.375000e+01
4.375000e+01
4.375000e+01
4.375000e+01
4.375000e+01
4.375000e+01
4.375000e+01
4.375000e+01
4.375000e+01
4.375000e+01
4.375000e+01
4.375000e+01
4.375000e+01
4.375000e+01
4.375000e+01
4.375000e+01
4.375000e+01
4.375000e+01
4.375000e+01
4.375000e+01
4.375000e+01
4.375000e+01
4.375000e+01
4.375000e+01
4.375000e+01
4.375000e+01
4.375000e+01
4.375000e+01
4.375000e+01
5.000000e+01
5.000000e+01
5.000000e+01
5.000000e+01
5.000000e+01
5.000000e+01
5.000000e+01
5.000000e+01
5.000000e+01
5.000000e+01
5.000000e+01
5.000000e+01
5.000000e+01
5.000000e+01
5.000000e+01
5.000000e+01
5.000000e+01
5.000000e+01
5.000000e+01
5.000000e+01
5.000000e+01
5.000000e+01
5.000000e+01
5.000000e+01
5.000000e+01
5.000000e+01
5.000000e+01
5.000000e+01
5.000000e+01
5.000000e+01
5.000000e+01
5.000000e+01
5.000000e+01
5.625000e+01
5.625000e+01
5.625000e+01
5.625000e+01
5.625000e+01
5.625000e+01
5.625000e+01
5.625000e+01
5.625000e+01
5.625000e+01
5.625000e+01
5.625000e+01
5.625000e+01
5.625000e+01
5.625000e+01
5.625000e+01
5.625000e+01
5.625000e+01
5.625000e+01
5.625000e+01
5.625000e+01
5.625000e+01
5.625000e+01
5.625000e+01
5.625000e+01
5.625000e+01
5.625000e+01
5.625000e+01
5.625000e+01
5.625000e+01
5.625000e+01
5.625000e+01
5.625000e+01
6.250000e+01
6.250000e+01
6.250000e+01
6.250000e+01
6.250000e+01
6.250000e+01
6.250000e+01
6.250000e+01
6.250000e+01
6.250000e+01
6.250000e+01
6.250000e+01
6.250000e+01
6.250000e+01
6.250000e+01
6.250000e+01
6.250000e+01
6.250000e+01
6.250000e+01
6.250000e+01
6.250000e+01
6.250000e+01
6.250000e+01
6.250000e+01
6.250000e+01
6.250000e+01
6.250000e+01
6.250000e+01
6.250000e+01
6.250000e+01
6.250000e+01
6.250000e+01
6.250000e+01
6.875000e+01
6.875000e+01
6.875000e+01
6.875000e+01
6.875000e+01
6.875000e+01
6.875000e+01
6.875000e+01
6.875000e+01
6.875000e+01
6.875000e+01
6.875000e+01
6.875000e+01
6.875000e+01
6.875000e+01
6.875000e+01
6.875000e+01
6.875000e+01
6.875000e+01
6.875000e+01
6.875000e+01
6.875000e+01
6.875000e+01
6.875000e+01
6.875000e+01
6.875000e+01
6.875000e+01
6.875000e+01
6.875000e+01
6.875000e+01
6.875000e+01
6.875000e+01
6.875000e+01
7.500000e+01
7.500000e+01
7.500000e+01
7.500000e+01
7.500000e+01
7.500000e+01
7.500000e+01
7.500000e+01
7.500000e+01
7.500000e+01
7.500000e+01
7.500000e+01
7.500000e+01
7.500000e+01
7.500000e+01
7.500000e+01
7.500000e+01
7.500000e+01
7.500000e+01
7.500000e+01
7.500000e+01
7.500000e+01
7.500000e+01
7.500000e+01
7.500000e+01
7.500000e+01
7.500000e+01
7.500000e+01
7.500000e+01
7.500000e+01
7.500000e+01
7.500000e+01
7.500000e+01
8.125000e+01
8.125000e+01
8.125000e+01
8.125000e+01
8.125000e+01
8.125000e+01
8.125000e+01
8.125000e+01
8.125000e+01
8.125000e+01
8.125000e+01
8.125000e+01
8.125000e+01
8.125000e+01
8.125000e+01
8.125000e+01
8.125000e+01
8.125000e+01
8.125000e+01
8.125000e+01
8.125000e+01
8.125000e+01
8.125000e+01
8.125000e+01
8.125000e+01
8.125000e+01
8.125000e+01
8.125000e+01
8.125000e+01
8.125000e+01
8.125000e+01
8.125000e+01
8.125000e+01
8.750000e+01
8.750000e+01
8.750000e+01
8.750000e+01
8.750000e+01
8.750000e+01
8.750000e+01
8.750000e+01
8.750000e+01
8.750000e+01
8.750000e+01
8.750000e+01
8.750000e+01
8.750000e+01
8.750000e+01
8.750000e+01
8.750000e+01
8.750000e+01
8.750000e+01
8.750000e+01
8.750000e+01
8.750000e+01
8.750000e+01
8.750000e+01
8.750000e+01
8.750000e+01
8.750000e+01
8.750000e+01
8.750000e+01
8.750000e+01
8.750000e+01
8.750000e+01
8.750000e+01
9.375000e+01
9.375000e+01
9.375000e+01
9.375000e+01
9.375000e+01
9.375000e+01
9.375000e+01
9.375000e+01
9.375000e+01
9.375000e+01
9.375000e+01
9.375000e+01
9.375000e+01
9.375000e+01
9.375000e+01
9.375000e+01
9.375000e+01
9.375000e+01
9.375000e+01
9.375000e+01
9.375000e+01
9.375000e+01
9.375000e+01
9.375000e+01
9.375000e+01
9.375000e+01
9.375000e+01
9.375000e+01
9.375000e+01
9.375000e+01
9.375000e+01
9.375000e+01
9.375000e+01
1.000000e+02
1.000000e+02
1.000000e+02
1.000000e+02
1.000000e+02
1.000000e+02
1.000000e+02
1.000000e+02
1.000000e+02
1.000000e+02
1.000000e+02
1.000000e+02
1.000000e+02
1.000000e+02
1.000000e+02
1.000000e+02
1.000000e+02
1.000000e+02
1.000000e+02
1.000000e+02
1.000000e+02
1.000000e+02
1.000000e+02
1.000000e+02
1.000000e+02
1.000000e+02
1.000000e+02
1.000000e+02
1.000000e+02
1.000000e+02
1.000000e+02
1.000000e+02
1.000000e+02
0.000000e+00
-4.724363e-01
-7.828187e-01
-1.122866e+00
-1.424464e+00
-1.716315e+00
-2.028396e+00
-2.315587e+00
-2.615241e+00
-2.908789e+00
-3.205853e+00
-3.505015e+00
-3.804540e+00
-4.103921e+00
-4.404248e+00
-4.704920e+00
-5.007872e+00
-5.311301e+00
-5.613913e+00
-5.916546e+00
-6.218553e+00
-6.520503e+00
-6.822740e+00
-7.119916e+00
-7.413226e+00
-7.718197e+00
-8.017311e+00
-8.348571e+00
-8.667362e+00
-9.020546e+00
-9.509962e+00
-9.926362e+00
-1.013044e+01
0.000000e+00
-2.335669e-01
-4.701956e-01
-7.357495e-01
-1.001720e+00
-1.254428e+00
-1.524363e+00
-1.784599e+00
-2.047173e+00
-2.312100e+00
-2.572688e+00
-2.837727e+00
-3.098168e+00
-3.362066e+00
-3.623397e+00
-3.885693e+00
-4.148247e+00
-4.408683e+00
-4.671867e+00
-4.931609e+00
-5.194213e+00
-5.454312e+00
-5.715880e+00
-5.976181e+00
-6.237236e+00
-6.498467e+00
-6.757779e+00
-7.022090e+00
-7.276310e+00
-7.533098e+00
-7.787717e+00
-7.888919e+00
-7.994737e+00
0.000000e+00
-1.027327e-01
-2.375549e-01
-4.341186e-01
-6.529219e-01
-8.601890e-01
-1.085922e+00
-1.313551e+00
-1.541028e+00
-1.772617e+00
-1.996760e+00
-2.223675e+00
-2.445990e+00
-2.671152e+00
-2.894880e+00
-3.117567e+00
-3.339913e+00
-3.559993e+00
-3.783686e+00
-4.005587e+00
-4.230743e+00
-4.453936e+00
-4.678388e+00
-4.907933e+00
-5.137839e+00
-5.360918e+00
-5.573073e+00
-5.770441e+00
-5.949960e+00
-6.098913e+00
-6.186689e+00
-6.192352e+00
-6.285235e+00
0.000000e+00
-1.024735e-01
-1.858662e-01
-3.414524e-01
-4.644808e-01
-6.189101e-01
-7.959937e-01
-9.656015e-01
-1.159217e+00
-1.336788e+00
-1.521752e+00
-1.704384e+00
-1.886019e+00
-2.071981e+00
-2.255948e+00
-2.441552e+00
-2.626289e+00
-2.812846e+00
-3.002663e+00
-3.194022e+00
-3.388225e+00
-3.581829e+00
-3.776531e+00
-3.971945e+00
-4.157943e+00
-4.331826e+00
-4.481112e+00
-4.613370e+00
-4.714205e+00
-4.777732e+00
-4.792874e+00
-4.810261e+00
-4.890692e+00
0.000000e+00
-9.308014e-02
-1.846944e-01
-2.756935e-01
-3.893100e-01
-5.050092e-01
-6.372393e-01
-7.716551e-01
-9.167351e-01
-1.057713e+00
-1.203897e+00
-1.349351e+00
-1.492502e+00
-1.642444e+00
-1.784908e+00
-1.935604e+00
-2.080714e+00
-2.230247e+00
-2.379925e+00
-2.528309e+00
-2.679284e+00
-2.825291e+00
-2.970243e+00
-3.107616e+00
-3.236081e+00
-3.350133e+00
-3.447049e+00
-3.521010e+00
-3.569565e+00
-3.594047e+00
-3.597482e+00
-3.627203e+00
-3.698539e+00
0.000000e+00
-7.447508e-02
-1.459835e-01
-2.210218e-01
-3.025191e-01
-3.921247e-01
-4.869295e-01
-5.882050e-01
-6.919649e-01
-7.998487e-01
-9.072932e-01
-1.016097e+00
-1.124878e+00
-1.232829e+00
-1.342342e+00
-1.450216e+00
-1.559641e+00
-1.667577e+00
-1.775412e+00
-1.882017e+00
-1.985972e+00
-2.087057e+00
-2.181918e+00
-2.269631e+00
-2.347263e+00
-2.412940e+00
-2.464288e+00
-2.499122e+00
-2.521739e+00
-2.522169e+00
-2.517388e+00
-2.543780e+00
-2.609614e+00
0.000000e+00
-5.130591e-02
-1.020590e-01
-1.539361e-01
-2.094320e-01
-2.688215e-01
-3.322597e-01
-3.986855e-01
-4.679253e-01
-5.386239e-01
-6.103236e-01
-6.820989e-01
-7.536442e-01
-8.250011e-01
-8.958023e-01
-9.664654e-01
-1.036263e+00
-1.105226e+00
-1.172613e+00
-1.237881e+00
-1.300185e+00
-1.358103e+00
-1.410289e+00
-1.454843e+00
-1.490833e+00
-1.515989e+00
-1.530039e+00
-1.535637e+00
-1.519242e+00
-1.489149e+00
-1.477798e+00
-1.501020e+00
-1.565226e+00
0.000000e+00
-2.704762e-02
-5.394240e-02
-8.141579e-02
-1.101797e-01
-1.406823e-01
-1.727989e-01
-2.063861e-01
-2.410259e-01
-2.763909e-01
-3.119242e-01
-3.472630e-01
-3.821193e-01
-4.163224e-01
-4.498664e-01
-4.825599e-01
-5.142188e-01
-5.443870e-01
-5.727321e-01
-5.987265e-01
-6.217005e-01
-6.408450e-01
-6.548875e-01
-6.628705e-01
-6.631909e-01
-6.566620e-01
-6.408687e-01
-6.022821e-01
-5.525247e-01
-5.008969e-01
-4.737258e-01
-4.967981e-01
-5.637652e-01
0.000000e+00
-2.000727e-03
-4.050094e-03
-6.061720e-03
-7.920847e-03
-9.499984e-03
-1.073718e-02
-1.164349e-02
-1.227558e-02
-1.261217e-02
-1.254051e-02
-1.189914e-02
-1.053647e-02
-8.292800e-03
-4.924980e-03
-3.447563e-04
5.696908e-03
1.365626e-02
2.358080e-02
3.534343e-02
4.960648e-02
6.657289e-02
8.582170e-02
1.102329e-01
1.407064e-01
1.821750e-01
2.427928e-01
3.152851e-01
3.887739e-01
4.397113e-01
4.554057e-01
4.229513e-01
3.427621e-01
0.000000e+00
2.319810e-02
4.616665e-02
6.978222e-02
9.500912e-02
1.225595e-01
1.524721e-01
1.844800e-01
2.180228e-01
2.526596e-01
2.880321e-01
3.240222e-01
3.605958e-01
3.982447e-01
4.375181e-01
4.787543e-01
5.224881e-01
5.683390e-01
6.162646e-01
6.656841e-01
7.153721e-01
7.665667e-01
8.221723e-01
8.816557e-01
9.491671e-01
1.032404e+00
1.122383e+00
1.214127e+00
1.288653e+00
1.332495e+00
1.329285e+00
1.283080e+00
1.220177e+00
0.000000e+00
4.786498e-02
9.519266e-02
1.437431e-01
1.962339e-01
2.534046e-01
3.153961e-01
3.810817e-01
4.496938e-01
5.198769e-01
5.907973e-01
6.615417e-01
7.322539e-01
8.037080e-01
8.771191e-01
9.543656e-01
1.035689e+00
1.119672e+00
1.205307e+00
1.291990e+00
1.381870e+00
1.471256e+00
1.563405e+00
1.666471e+00
1.775160e+00
1.885948e+00
1.995476e+00
2.084174e+00
2.148071e+00
2.174511e+00
2.166892e+00
2.137003e+00
2.092883e+00
0.000000e+00
7.148380e-02
1.402794e-01
2.130058e-01
2.926414e-01
3.812595e-01
4.764688e-01
5.777366e-01
6.821558e-01
7.900362e-01
8.981766e-01
1.006852e+00
1.114819e+00
1.223423e+00
1.332902e+00
1.443039e+00
1.556955e+00
1.674362e+00
1.794210e+00
1.917370e+00
2.045951e+00
2.182436e+00
2.324557e+00
2.466853e+00
2.605101e+00
2.734362e+00
2.846637e+00
2.935521e+00
2.990935e+00
3.018858e+00
3.022350e+00
3.004326e+00
2.976795e+00
0.000000e+00
9.026801e-02
1.793152e-01
2.694225e-01
3.837597e-01
5.029417e-01
6.355174e-01
7.729967e-01
9.169259e-01
1.059854e+00
1.206849e+00
1.353104e+00
1.500330e+00
1.651568e+00
1.802272e+00
1.957409e+00
2.112321e+00
2.272394e+00
2.438313e+00
2.604917e+00
2.774069e+00
2.946210e+00
3.116322e+00
3.280957e+00
3.433936e+00
3.575127e+00
3.696127e+00
3.786860e+00
3.853336e+00
3.892483e+00
3.905391e+00
3.898864e+00
3.884354e+00
0.000000e+00
9.864695e-02
1.794886e-01
3.323401e-01
4.601927e-01
6.234346e-01
8.055257e-01
9.748574e-01
1.168629e+00
1.345503e+00
1.528038e+00
1.707979e+00
1.890761e+00
2.080510e+00
2.274623e+00
2.476524e+00
2.680684e+00
2.886127e+00
3.096365e+00
3.309666e+00
3.520024e+00
3.724904e+00
3.921071e+00
4.105739e+00
4.280448e+00
4.437811e+00
4.573042e+00
4.679950e+00
4.756495e+00
4.804260e+00
4.826452e+00
4.829259e+00
4.824520e+00
0.000000e+00
1.003754e-01
2.309667e-01
4.194570e-01
6.367943e-01
8.474570e-01
1.078753e+00
1.310064e+00
1.540081e+00
1.774667e+00
1.998119e+00
2.223856e+00
2.445537e+00
2.672217e+00
2.899949e+00
3.131528e+00
3.365920e+00
3.597223e+00
3.828607e+00
4.061084e+00
4.295395e+00
4.524259e+00
4.744638e+00
4.965900e+00
5.177075e+00
5.363667e+00
5.513224e+00
5.627891e+00
5.710359e+00
5.763228e+00
5.790917e+00
5.799968e+00
5.801078e+00
0.000000e+00
2.337959e-01
4.714781e-01
7.363535e-01
1.001639e+00
1.253861e+00
1.523024e+00
1.783729e+00
2.045610e+00
2.310307e+00
2.570205e+00
2.834436e+00
3.093750e+00
3.355815e+00
3.615571e+00
3.875206e+00
4.135280e+00
4.392646e+00
4.650522e+00
4.904342e+00
5.159783e+00
5.413040e+00
5.666303e+00
5.924917e+00
6.169139e+00
6.370021e+00
6.527500e+00
6.644286e+00
6.724466e+00
6.773661e+00
6.798798e+00
6.807903e+00
6.810140e+00
0.000000e+00
4.735938e-01
7.902127e-01
1.135645e+00
1.440151e+00
1.729664e+00
2.037764e+00
2.322416e+00
2.618903e+00
2.909993e+00
3.205729e+00
3.505401e+00
3.802942e+00
4.100298e+00
4.394006e+00
4.685066e+00
4.972223e+00
5.261227e+00
5.551809e+00
5.839667e+00
6.127503e+00
6.415305e+00
6.707307e+00
7.000096e+00
7.265848e+00
7.476665e+00
7.634799e+00
7.743651e+00
7.808500e+00
7.837614e+00
7.842708e+00
7.838092e+00
7.835539e+00
0.000000e+00
-2.792840e-01
-5.898129e-01
-9.869706e-01
-1.419484e+00
-1.889349e+00
-2.399866e+00
-2.941024e+00
-3.517659e+00
-4.125665e+00
-4.767550e+00
-5.445443e+00
-6.159886e+00
-6.912426e+00
-7.701785e+00
-8.529634e+00
-9.395846e+00
-1.030239e+01
-1.124896e+01
-1.223521e+01
-1.326158e+01
-1.432761e+01
-1.543511e+01
-1.658226e+01
-1.776686e+01
-1.899056e+01
-2.025766e+01
-2.157885e+01
-2.296055e+01
-2.442331e+01
-2.598413e+01
-2.779214e+01
-3.032929e+01
0.000000e+00
-1.802539e-01
-5.093693e-01
-8.992119e-01
-1.338580e+00
-1.804905e+00
-2.315302e+00
-2.858617e+00
-3.433461e+00
-4.042548e+00
-4.683386e+00
-5.361596e+00
-6.075778e+00
-6.828550e+00
-7.617903e+00
-8.445473e+00
-9.311780e+00
-1.021799e+01
-1.116500e+01
-1.215100e+01
-1.317757e+01
-1.424324e+01
-1.535085e+01
-1.649885e+01
-1.768312e+01
-1.890639e+01
-2.017193e+01
-2.149148e+01
-2.287478e+01
-2.432839e+01
-2.590852e+01
-2.770377e+01
-2.995456e+01
0.000000e+00
-1.593855e-01
-4.502248e-01
-8.427416e-01
-1.272036e+00
-1.736007e+00
-2.244403e+00
-2.785468e+00
-3.361765e+00
-3.969566e+00
-4.611606e+00
-5.289898e+00
-6.004245e+00
-6.757103e+00
-7.547066e+00
-8.374729e+00
-9.241654e+00
-1.014745e+01
-1.109443e+01
-1.208025e+01
-1.310660e+01
-1.417202e+01
-1.527792e+01
-1.642541e+01
-1.761066e+01
-1.883676e+01
-2.010418e+01
-2.142885e+01
-2.281592e+01
-2.428998e+01
-2.591307e+01
-2.759768e+01
-2.934594e+01
0.000000e+00
-2.048612e-01
-4.502644e-01
-8.394117e-01
-1.237456e+00
-1.690306e+00
-2.197220e+00
-2.725084e+00
-3.308031e+00
-3.909937e+00
-4.555058e+00
-5.233791e+00
-5.946130e+00
-6.702095e+00
-7.489295e+00
-8.320374e+00
-9.185595e+00
-1.009189e+01
-1.103850e+01
-1.202290e+01
-1.305038e+01
-1.411427e+01
-1.521942e+01
-1.636655e+01
-1.755435e+01
-1.878664e+01
-2.006022e+01
-2.139204e+01
-2.278783e+01
-2.428158e+01
-2.589720e+01
-2.744696e+01
-2.884615e+01
0.000000e+00
-2.209161e-01
-4.891707e-01
-8.345394e-01
-1.235245e+00
-1.670798e+00
-2.168015e+00
-2.690198e+00
-3.268027e+00
-3.869995e+00
-4.514011e+00
-5.194799e+00
-5.905291e+00
-6.664282e+00
-7.449080e+00
-8.282762e+00
-9.146836e+00
-1.005338e+01
-1.099995e+01
-1.198320e+01
-1.301135e+01
-1.407484e+01
-1.518149e+01
-1.632930e+01
-1.752083e+01
-1.875648e+01
-2.003827e+01
-2.137358e+01
-2.277193e+01
-2.426169e+01
-2.579674e+01
-2.724601e+01
-2.851332e+01
0.000000e+00
-2.278165e-01
-5.056290e-01
-8.405210e-01
-1.228590e+00
-1.663964e+00
-2.146372e+00
-2.671083e+00
-3.238283e+00
-3.843196e+00
-4.485336e+00
-5.165083e+00
-5.880308e+00
-6.634463e+00
-7.425129e+00
-8.254543e+00
-9.122069e+00
-1.002822e+01
-1.097469e+01
-1.196056e+01
-1.298750e+01
-1.405458e+01
-1.516278e+01
-1.631339e+01
-1.750703e+01
-1.874461e+01
-2.002901e+01
-2.136367e+01
-2.275115e+01
-2.420065e+01
-2.564188e+01
-2.700993e+01
-2.821530e+01
0.000000e+00
-2.315058e-01
-5.118485e-01
-8.437197e-01
-1.226489e+00
-1.657841e+00
-2.135630e+00
-2.657592e+00
-3.221668e+00
-3.825542e+00
-4.467810e+00
-5.147474e+00
-5.864325e+00
-6.618452e+00
-7.410143e+00
-8.239881e+00
-9.108107e+00
-1.001559e+01
-1.096291e+01
-1.195065e+01
-1.297919e+01
-1.404878e+01
-1.515983e+01
-1.631255e+01
-1.750751e+01
-1.874536e+01
-2.002584e+01
-2.135723e+01
-2.271215e+01
-2.411040e+01
-2.548726e+01
-2.678764e+01
-2.792953e+01
0.000000e+00
-2.329055e-01
-5.141709e-01
-8.451519e-01
-1.225866e+00
-1.655070e+00
-2.130938e+00
-2.651411e+00
-3.214428e+00
-3.818046e+00
-4.460658e+00
-5.141168e+00
-5.858942e+00
-6.613896e+00
-7.406254e+00
-8.236620e+00
-9.105771e+00
-1.001440e+01
-1.096317e+01
-1.195260e+01
-1.298313e+01
-1.405502e+01
-1.516827e+01
-1.632293e+01
-1.751680e+01
-1.875456e+01
-2.002728e+01
-2.133960e+01
-2.265987e+01
-2.400441e+01
-2.533588e+01
-2.657964e+01
-2.766584e+01
0.000000e+00
-2.331951e-01
-5.147645e-01
-8.457730e-01
-1.226343e+00
-1.655484e+00
-2.131447e+00
-2.652185e+00
-3.215672e+00
-3.820062e+00
-4.463760e+00
-5.145466e+00
-5.864374e+00
-6.620274e+00
-7.413364e+00
-8.244321e+00
-9.114420e+00
-1.002431e+01
-1.097428e+01
-1.196512e+01
-1.299738e+01
-1.407051e+01
-1.518505e+01
-1.634050e+01
-1.753330e+01
-1.876561e+01
-2.002409e+01
-2.130709e+01
-2.260357e+01
-2.389685e+01
-2.516827e+01
-2.633679e+01
-2.732784e+01
0.000000e+00
-2.327414e-01
-5.142262e-01
-8.459075e-01
-1.227935e+00
-1.659025e+00
-2.137085e+00
-2.659817e+00
-3.225138e+00
-3.831288e+00
-4.476739e+00
-5.160007e+00
-5.880124e+00
-6.637127e+00
-7.431177e+00
-8.262456e+00
-9.133808e+00
-1.004498e+01
-1.099599e+01
-1.198688e+01
-1.302087e+01
-1.409369e+01
-1.520659e+01
-1.636394e+01
-1.754950e+01
-1.876967e+01
-2.001112e+01
-2.127101e+01
-2.253827e+01
-2.379490e+01
-2.499993e+01
-2.610117e+01
-2.706014e+01
0.000000e+00
-2.312704e-01
-5.120265e-01
-8.452142e-01
-1.230664e+00
-1.665976e+00
-2.148284e+00
-2.674711e+00
-3.243144e+00
-3.851796e+00
-4.499433e+00
-5.184259e+00
-5.905231e+00
-6.663667e+00
-7.458659e+00
-8.291110e+00
-9.164012e+00
-1.007626e+01
-1.102858e+01
-1.201819e+01
-1.305163e+01
-1.412235e+01
-1.523294e+01
-1.638385e+01
-1.756075e+01
-1.876541e+01
-1.999576e+01
-2.123323e+01
-2.247488e+01
-2.369052e+01
-2.485007e+01
-2.591929e+01
-2.686784e+01
0.000000e+00
-2.276377e-01
-5.061036e-01
-8.427886e-01
-1.234817e+00
-1.677012e+00
-2.166223e+00
-2.697586e+00
-3.270751e+00
-3.882321e+00
-4.531948e+00
-5.218000e+00
-5.939019e+00
-6.698615e+00
-7.494688e+00
-8.329988e+00
-9.204339e+00
-1.011779e+01
-1.106991e+01
-1.205885e+01
-1.308714e+01
-1.415430e+01
-1.525903e+01
-1.639952e+01
-1.756725e+01
-1.876238e+01
-1.998083e+01
-2.120554e+01
-2.242029e+01
-2.360678e+01
-2.473688e+01
-2.579010e+01
-2.674263e+01
0.000000e+00
-2.206510e-01
-4.900698e-01
-8.380139e-01
-1.243412e+00
-1.690953e+00
-2.195243e+00
-2.727716e+00
-3.310726e+00
-3.922240e+00
-4.574717e+00
-5.261098e+00
-5.981469e+00
-6.744043e+00
-7.540360e+00
-8.379549e+00
-9.254763e+00
-1.016726e+01
-1.111792e+01
-1.210353e+01
-1.312652e+01
-1.418821e+01
-1.528479e+01
-1.641558e+01
-1.757614e+01
-1.876774e+01
-1.998048e+01
-2.119052e+01
-2.238546e+01
-2.354663e+01
-2.465813e+01
-2.570436e+01
-2.667162e+01
0.000000e+00
-2.035795e-01
-4.511512e-01
-8.437033e-01
-1.250718e+00
-1.717051e+00
-2.234801e+00
-2.770808e+00
-3.361337e+00
-3.972388e+00
-4.625333e+00
-5.311236e+00
-6.034262e+00
-6.798808e+00
-7.598754e+00
-8.439159e+00
-9.314648e+00
-1.022535e+01
-1.117245e+01
-1.215401e+01
-1.317192e+01
-1.422629e+01
-1.531402e+01
-1.643745e+01
-1.759954e+01
-1.879130e+01
-1.999673e+01
-2.119179e+01
-2.236775e+01
-2.351055e+01
-2.460852e+01
-2.565337e+01
-2.664088e+01
0.000000e+00
-1.565414e-01
-4.490148e-01
-8.466885e-01
-1.288285e+00
-1.766251e+00
-2.286553e+00
-2.836003e+00
-3.420326e+00
-4.035625e+00
-4.684338e+00
-5.371287e+00
-6.096204e+00
-6.861703e+00
-7.664882e+00
-8.505087e+00
-9.380487e+00
-1.028926e+01
-1.123386e+01
-1.221276e+01
-1.322639e+01
-1.427408e+01
-1.535470e+01
-1.647914e+01
-1.764419e+01
-1.883310e+01
-2.002412e+01
-2.120581e+01
-2.236636e+01
-2.349492e+01
-2.458293e+01
-2.562781e+01
-2.663567e+01
0.000000e+00
-1.768698e-01
-5.071089e-01
-9.035277e-01
-1.355772e+00
-1.836531e+00
-2.358533e+00
-2.911006e+00
-3.493492e+00
-4.109415e+00
-4.756650e+00
-5.443576e+00
-6.168764e+00
-6.934695e+00
-7.738265e+00
-8.578677e+00
-9.453116e+00
-1.036021e+01
-1.130356e+01
-1.228101e+01
-1.329296e+01
-1.433740e+01
-1.541865e+01
-1.654448e+01
-1.770611e+01
-1.888246e+01
-2.006020e+01
-2.122883e+01
-2.237695e+01
-2.349440e+01
-2.457463e+01
-2.561861e+01
-2.664034e+01
0.000000e+00
-2.767344e-01
-5.887036e-01
-9.921319e-01
-1.436834e+00
-1.920356e+00
-2.442687e+00
-2.993196e+00
-3.577407e+00
-4.192232e+00
-4.840830e+00
-5.527405e+00
-6.252533e+00
-7.018038e+00
-7.820940e+00
-8.660856e+00
-9.534312e+00
-1.044151e+01
-1.138393e+01
-1.236085e+01
-1.337240e+01
-1.441695e+01