TITLE = "Solution"
VARIABLES = x, y, u, v, psiu, psiv, t, stress
ZONE T="structure" N=561 E=512 F=FEBLOCK ET=QUADRILATERAL VARLOCATION=([7,8]=cellcentered)
0.000000e+00
6.250000e+00
1.250000e+01
1.875000e+01
2.500000e+01
3.125000e+01
3.750000e+01
4.375000e+01
5.000000e+01
5.625000e+01
6.250000e+01
6.875000e+01
7.500000e+01
8.125000e+01
8.750000e+01
9.375000e+01
1.000000e+02
1.062500e+02
1.125000e+02
1.187500e+02
1.250000e+02
1.312500e+02
1.375000e+02
1.437500e+02
1.500000e+02
1.562500e+02
1.625000e+02
1.687500e+02
1.750000e+02
1.812500e+02
1.875000e+02
1.937500e+02
2.000000e+02
0.000000e+00
6.250000e+00
1.250000e+01
1.875000e+01
2.500000e+01
3.125000e+01
3.750000e+01
4.375000e+01
5.000000e+01
5.625000e+01
6.250000e+01
6.875000e+01
7.500000e+01
8.125000e+01
8.750000e+01
9.375000e+01
1.000000e+02
1.062500e+02
1.125000e+02
1.187500e+02
1.250000e+02
1.312500e+02
1.375000e+02
1.437500e+02
1.500000e+02
1.562500e+02
1.625000e+02
1.687500e+02
1.750000e+02
1.812500e+02
1.875000e+02
1.937500e+02
2.000000e+02
0.000000e+00
6.250000e+00
1.250000e+01
1.875000e+01
2.500000e+01
3.125000e+01
3.750000e+01
4.375000e+01
5.000000e+01
5.625000e+01
6.250000e+01
6.875000e+01
7.500000e+01
8.125000e+01
8.750000e+01
9.375000e+01
1.000000e+02
1.062500e+02
1.125000e+02
1.187500e+02
1.250000e+02
1.312500e+02
1.375000e+02
1.437500e+02
1.500000e+02
1.562500e+02
1.625000e+02
1.687500e+02
1.750000e+02
1.812500e+02
1.875000e+02
1.937500e+02
2.000000e+02
0.000000e+00
6.250000e+00
1.250000e+01
1.875000e+01
2.500000e+01
3.125000e+01
3.750000e+01
4.375000e+01
5.000000e+01
5.625000e+01
6.250000e+01
6.875000e+01
7.500000e+01
8.125000e+01
8.750000e+01
9.375000e+01
1.000000e+02
1.062500e+02
1.125000e+02
1.187500e+02
1.250000e+02
1.312500e+02
1.375000e+02
1.437500e+02
1.500000e+02
1.562500e+02
1.625000e+02
1.687500e+02
1.750000e+02
1.812500e+02
1.875000e+02
1.937500e+02
2.000000e+02
0.000000e+00
6.250000e+00
1.250000e+01
1.875000e+01
2.500000e+01
3.125000e+01
3.750000e+01
4.375000e+01
5.000000e+01
5.625000e+01
6.250000e+01
6.875000e+01
7.500000e+01
8.125000e+01
8.750000e+01
9.375000e+01
1.000000e+02
1.062500e+02
1.125000e+02
1.187500e+02
1.250000e+02
1.312500e+02
1.375000e+02
1.437500e+02
1.500000e+02
1.562500e+02
1.625000e+02
1.687500e+02
1.750000e+02
1.812500e+02
1.875000e+02
1.937500e+02
2.000000e+02
0.000000e+00
6.250000e+00
1.250000e+01
1.875000e+01
2.500000e+01
3.125000e+01
3.750000e+01
4.375000e+01
5.000000e+01
5.625000e+01
6.250000e+01
6.875000e+01
7.500000e+01
8.125000e+01
8.750000e+01
9.375000e+01
1.000000e+02
1.062500e+02
1.125000e+02
1.187500e+02
1.250000e+02
1.312500e+02
1.375000e+02
1.437500e+02
1.500000e+02
1.562500e+02
1.625000e+02
1.687500e+02
1.750000e+02
1.812500e+02
1.875000e+02
1.937500e+02
2.000000e+02
0.000000e+00
6.250000e+00
1.250000e+01
1.875000e+01
2.500000e+01
3.125000e+01
3.750000e+01
4.375000e+01
5.000000e+01
5.625000e+01
6.250000e+01
6.875000e+01
7.500000e+01
8.125000e+01
8.750000e+01
9.375000e+01
1.000000e+02
1.062500e+02
1.125000e+02
1.187500e+02
1.250000e+02
1.312500e+02
1.375000e+02
1.437500e+02
1.500000e+02
1.562500e+02
1.625000e+02
1.687500e+02
1.750000e+02
1.812500e+02
1.875000e+02
1.937500e+02
2.000000e+02
0.000000e+00
6.250000e+00
1.250000e+01
1.875000e+01
2.500000e+01
3.125000e+01
3.750000e+01
4.375000e+01
5.000000e+01
5.625000e+01
6.250000e+01
6.875000e+01
7.500000e+01
8.125000e+01
8.750000e+01
9.375000e+01
1.000000e+02
1.062500e+02
1.125000e+02
1.187500e+02
1.250000e+02
1.312500e+02
1.375000e+02
1.437500e+02
1.500000e+02
1.562500e+02
1.625000e+02
1.687500e+02
1.750000e+02
1.812500e+02
1.875000e+02
1.937500e+02
2.000000e+02
0.000000e+00
6.250000e+00
1.250000e+01
1.875000e+01
2.500000e+01
3.125000e+01
3.750000e+01
4.375000e+01
5.000000e+01
5.625000e+01
6.250000e+01
6.875000e+01
7.500000e+01
8.125000e+01
8.750000e+01
9.375000e+01
1.000000e+02
1.062500e+02
1.125000e+02
1.187500e+02
1.250000e+02
1.312500e+02
1.375000e+02
1.437500e+02
1.500000e+02
1.562500e+02
1.625000e+02
1.687500e+02
1.750000e+02
1.812500e+02
1.875000e+02
1.937500e+02
2.000000e+02
0.000000e+00
6.250000e+00
1.250000e+01
1.875000e+01
2.500000e+01
3.125000e+01
3.750000e+01
4.375000e+01
5.000000e+01
5.625000e+01
6.250000e+01
6.875000e+01
7.500000e+01
8.125000e+01
8.750000e+01
9.375000e+01
1.000000e+02
1.062500e+02
1.125000e+02
1.187500e+02
1.250000e+02
1.312500e+02
1.375000e+02
1.437500e+02
1.500000e+02
1.562500e+02
1.625000e+02
1.687500e+02
1.750000e+02
1.812500e+02
1.875000e+02
1.937500e+02
2.000000e+02
0.000000e+00
6.250000e+00
1.250000e+01
1.875000e+01
2.500000e+01
3.125000e+01
3.750000e+01
4.375000e+01
5.000000e+01
5.625000e+01
6.250000e+01
6.875000e+01
7.500000e+01
8.125000e+01
8.750000e+01
9.375000e+01
1.000000e+02
1.062500e+02
1.125000e+02
1.187500e+02
1.250000e+02
1.312500e+02
1.375000e+02
1.437500e+02
1.500000e+02
1.562500e+02
1.625000e+02
1.687500e+02
1.750000e+02
1.812500e+02
1.875000e+02
1.937500e+02
2.000000e+02
0.000000e+00
6.250000e+00
1.250000e+01
1.875000e+01
2.500000e+01
3.125000e+01
3.750000e+01
4.375000e+01
5.000000e+01
5.625000e+01
6.250000e+01
6.875000e+01
7.500000e+01
8.125000e+01
8.750000e+01
9.375000e+01
1.000000e+02
1.062500e+02
1.125000e+02
1.187500e+02
1.250000e+02
1.312500e+02
1.375000e+02
1.437500e+02
1.500000e+02
1.562500e+02
1.625000e+02
1.687500e+02
1.750000e+02
1.812500e+02
1.875000e+02
1.937500e+02
2.000000e+02
0.000000e+00
6.250000e+00
1.250000e+01
1.875000e+01
2.500000e+01
3.125000e+01
3.750000e+01
4.375000e+01
5.000000e+01
5.625000e+01
6.250000e+01
6.875000e+01
7.500000e+01
8.125000e+01
8.750000e+01
9.375000e+01
1.000000e+02
1.062500e+02
1.125000e+02
1.187500e+02
1.250000e+02
1.312500e+02
1.375000e+02
1.437500e+02
1.500000e+02
1.562500e+02
1.625000e+02
1.687500e+02
1.750000e+02
1.812500e+02
1.875000e+02
1.937500e+02
2.000000e+02
0.000000e+00
6.250000e+00
1.250000e+01
1.875000e+01
2.500000e+01
3.125000e+01
3.750000e+01
4.375000e+01
5.000000e+01
5.625000e+01
6.250000e+01
6.875000e+01
7.500000e+01
8.125000e+01
8.750000e+01
9.375000e+01
1.000000e+02
1.062500e+02
1.125000e+02
1.187500e+02
1.250000e+02
1.312500e+02
1.375000e+02
1.437500e+02
1.500000e+02
1.562500e+02
1.625000e+02
1.687500e+02
1.750000e+02
1.812500e+02
1.875000e+02
1.937500e+02
2.000000e+02
0.000000e+00
6.250000e+00
1.250000e+01
1.875000e+01
2.500000e+01
3.125000e+01
3.750000e+01
4.375000e+01
5.000000e+01
5.625000e+01
6.250000e+01
6.875000e+01
7.500000e+01
8.125000e+01
8.750000e+01
9.375000e+01
1.000000e+02
1.062500e+02
1.125000e+02
1.187500e+02
1.250000e+02
1.312500e+02
1.375000e+02
1.437500e+02
1.500000e+02
1.562500e+02
1.625000e+02
1.687500e+02
1.750000e+02
1.812500e+02
1.875000e+02
1.937500e+02
2.000000e+02
0.000000e+00
6.250000e+00
1.250000e+01
1.875000e+01
2.500000e+01
3.125000e+01
3.750000e+01
4.375000e+01
5.000000e+01
5.625000e+01
6.250000e+01
6.875000e+01
7.500000e+01
8.125000e+01
8.750000e+01
9.375000e+01
1.000000e+02
1.062500e+02
1.125000e+02
1.187500e+02
1.250000e+02
1.312500e+02
1.375000e+02
1.437500e+02
1.500000e+02
1.562500e+02
1.625000e+02
1.687500e+02
1.750000e+02
1.812500e+02
1.875000e+02
1.937500e+02
2.000000e+02
0.000000e+00
6.250000e+00
1.250000e+01
1.875000e+01
2.500000e+01
3.125000e+01
3.750000e+01
4.375000e+01
5.000000e+01
5.625000e+01
6.250000e+01
6.875000e+01
7.500000e+01
8.125000e+01
8.750000e+01
9.375000e+01
1.000000e+02
1.062500e+02
1.125000e+02
1.187500e+02
1.250000e+02
1.312500e+02
1.375000e+02
1.437500e+02
1.500000e+02
1.562500e+02
1.625000e+02
1.687500e+02
1.750000e+02
1.812500e+02
1.875000e+02
1.937500e+02
2.000000e+02
0.000000e+00
0.000000e+00
0.000000e+00
0.000000e+00
0.000000e+00
0.000000e+00
0.000000e+00
0.000000e+00
0.000000e+00
0.000000e+00
0.000000e+00
0.000000e+00
0.000000e+00
0.000000e+00
0.000000e+00
0.000000e+00
0.000000e+00
0.000000e+00
0.000000e+00
0.000000e+00
0.000000e+00
0.000000e+00
0.000000e+00
0.000000e+00
0.000000e+00
0.000000e+00
0.000000e+00
0.000000e+00
0.000000e+00
0.000000e+00
0.000000e+00
0.000000e+00
0.000000e+00
6.250000e+00
6.250000e+00
6.250000e+00
6.250000e+00
6.250000e+00
6.250000e+00
6.250000e+00
6.250000e+00
6.250000e+00
6.250000e+00
6.250000e+00
6.250000e+00
6.250000e+00
6.250000e+00
6.250000e+00
6.250000e+00
6.250000e+00
6.250000e+00
6.250000e+00
6.250000e+00
6.250000e+00
6.250000e+00
6.250000e+00
6.250000e+00
6.250000e+00
6.250000e+00
6.250000e+00
6.250000e+00
6.250000e+00
6.250000e+00
6.250000e+00
6.250000e+00
6.250000e+00
1.250000e+01
1.250000e+01
1.250000e+01
1.250000e+01
1.250000e+01
1.250000e+01
1.250000e+01
1.250000e+01
1.250000e+01
1.250000e+01
1.250000e+01
1.250000e+01
1.250000e+01
1.250000e+01
1.250000e+01
1.250000e+01
1.250000e+01
1.250000e+01
1.250000e+01
1.250000e+01
1.250000e+01
1.250000e+01
1.250000e+01
1.250000e+01
1.250000e+01
1.250000e+01
1.250000e+01
1.250000e+01
1.250000e+01
1.250000e+01
1.250000e+01
1.250000e+01
1.250000e+01
1.875000e+01
1.875000e+01
1.875000e+01
1.875000e+01
1.875000e+01
1.875000e+01
1.875000e+01
1.875000e+01
1.875000e+01
1.875000e+01
1.875000e+01
1.875000e+01
1.875000e+01
1.875000e+01
1.875000e+01
1.875000e+01
1.875000e+01
1.875000e+01
1.875000e+01
1.875000e+01
1.875000e+01
1.875000e+01
1.875000e+01
1.875000e+01
1.875000e+01
1.875000e+01
1.875000e+01
1.875000e+01
1.875000e+01
1.875000e+01
1.875000e+01
1.875000e+01
1.875000e+01
2.500000e+01
2.500000e+01
2.500000e+01
2.500000e+01
2.500000e+01
2.500000e+01
2.500000e+01
2.500000e+01
2.500000e+01
2.500000e+01
2.500000e+01
2.500000e+01
2.500000e+01
2.500000e+01
2.500000e+01
2.500000e+01
2.500000e+01
2.500000e+01
2.500000e+01
2.500000e+01
2.500000e+01
2.500000e+01
2.500000e+01
2.500000e+01
2.500000e+01
2.500000e+01
2.500000e+01
2.500000e+01
2.500000e+01
2.500000e+01
2.500000e+01
2.500000e+01
2.500000e+01
3.125000e+01
3.125000e+01
3.125000e+01
3.125000e+01
3.125000e+01
3.125000e+01
3.125000e+01
3.125000e+01
3.125000e+01
3.125000e+01
3.125000e+01
3.125000e+01
3.125000e+01
3.125000e+01
3.125000e+01
3.125000e+01
3.125000e+01
3.125000e+01
3.125000e+01
3.125000e+01
3.125000e+01
3.125000e+01
3.125000e+01
3.125000e+01
3.125000e+01
3.125000e+01
3.125000e+01
3.125000e+01
3.125000e+01
3.125000e+01
3.125000e+01
3.125000e+01
3.125000e+01
3.750000e+01
3.750000e+01
3.750000e+01
3.750000e+01
3.750000e+01
3.750000e+01
3.750000e+01
3.750000e+01
3.750000e+01
3.750000e+01
3.750000e+01
3.750000e+01
3.750000e+01
3.750000e+01
3.750000e+01
3.750000e+01
3.750000e+01
3.750000e+01
3.750000e+01
3.750000e+01
3.750000e+01
3.750000e+01
3.750000e+01
3.750000e+01
3.750000e+01
3.750000e+01
3.750000e+01
3.750000e+01
3.750000e+01
3.750000e+01
3.750000e+01
3.750000e+01
3.750000e+01
4.375000e+01
4.375000e+01
4.375000e+01
4.375000e+01
4.375000e+01
4.375000e+01
4.375000e+01
4.375000e+01
4.375000e+01
4.375000e+01
4.375000e+01
4.375000e+01
4.375000e+01
4.375000e+01
4.375000e+01
4.375000e+01
4.375000e+01
4.375000e+01
4.375000e+01
4.375000e+01
4.375000e+01
4.375000e+01
4.375000e+01
4.375000e+01
4.375000e+01
4.375000e+01
4.375000e+01
4.375000e+01
4.375000e+01
4.375000e+01
4.375000e+01
4.375000e+01
4.375000e+01
5.000000e+01
5.000000e+01
5.000000e+01
5.000000e+01
5.000000e+01
5.000000e+01
5.000000e+01
5.000000e+01
5.000000e+01
5.000000e+01
5.000000e+01
5.000000e+01
5.000000e+01
5.000000e+01
5.000000e+01
5.000000e+01
5.000000e+01
5.000000e+01
5.000000e+01
5.000000e+01
5.000000e+01
5.000000e+01
5.000000e+01
5.000000e+01
5.000000e+01
5.000000e+01
5.000000e+01
5.000000e+01
5.000000e+01
5.000000e+01
5.000000e+01
5.000000e+01
5.000000e+01
5.625000e+01
5.625000e+01
5.625000e+01
5.625000e+01
5.625000e+01
5.625000e+01
5.625000e+01
5.625000e+01
5.625000e+01
5.625000e+01
5.625000e+01
5.625000e+01
5.625000e+01
5.625000e+01
5.625000e+01
5.625000e+01
5.625000e+01
5.625000e+01
5.625000e+01
5.625000e+01
5.625000e+01
5.625000e+01
5.625000e+01
5.625000e+01
5.625000e+01
5.625000e+01
5.625000e+01
5.625000e+01
5.625000e+01
5.625000e+01
5.625000e+01
5.625000e+01
5.625000e+01
6.250000e+01
6.250000e+01
6.250000e+01
6.250000e+01
6.250000e+01
6.250000e+01
6.250000e+01
6.250000e+01
6.250000e+01
6.250000e+01
6.250000e+01
6.250000e+01
6.250000e+01
6.250000e+01
6.250000e+01
6.250000e+01
6.250000e+01
6.250000e+01
6.250000e+01
6.250000e+01
6.250000e+01
6.250000e+01
6.250000e+01
6.250000e+01
6.250000e+01
6.250000e+01
6.250000e+01
6.250000e+01
6.250000e+01
6.250000e+01
6.250000e+01
6.250000e+01
6.250000e+01
6.875000e+01
6.875000e+01
6.875000e+01
6.875000e+01
6.875000e+01
6.875000e+01
6.875000e+01
6.875000e+01
6.875000e+01
6.875000e+01
6.875000e+01
6.875000e+01
6.875000e+01
6.875000e+01
6.875000e+01
6.875000e+01
6.875000e+01
6.875000e+01
6.875000e+01
6.875000e+01
6.875000e+01
6.875000e+01
6.875000e+01
6.875000e+01
6.875000e+01
6.875000e+01
6.875000e+01
6.875000e+01
6.875000e+01
6.875000e+01
6.875000e+01
6.875000e+01
6.875000e+01
7.500000e+01
7.500000e+01
7.500000e+01
7.500000e+01
7.500000e+01
7.500000e+01
7.500000e+01
7.500000e+01
7.500000e+01
7.500000e+01
7.500000e+01
7.500000e+01
7.500000e+01
7.500000e+01
7.500000e+01
7.500000e+01
7.500000e+01
7.500000e+01
7.500000e+01
7.500000e+01
7.500000e+01
7.500000e+01
7.500000e+01
7.500000e+01
7.500000e+01
7.500000e+01
7.500000e+01
7.500000e+01
7.500000e+01
7.500000e+01
7.500000e+01
7.500000e+01
7.500000e+01
8.125000e+01
8.125000e+01
8.125000e+01
8.125000e+01
8.125000e+01
8.125000e+01
8.125000e+01
8.125000e+01
8.125000e+01
8.125000e+01
8.125000e+01
8.125000e+01
8.125000e+01
8.125000e+01
8.125000e+01
8.125000e+01
8.125000e+01
8.125000e+01
8.125000e+01
8.125000e+01
8.125000e+01
8.125000e+01
8.125000e+01
8.125000e+01
8.125000e+01
8.125000e+01
8.125000e+01
8.125000e+01
8.125000e+01
8.125000e+01
8.125000e+01
8.125000e+01
8.125000e+01
8.750000e+01
8.750000e+01
8.750000e+01
8.750000e+01
8.750000e+01
8.750000e+01
8.750000e+01
8.750000e+01
8.750000e+01
8.750000e+01
8.750000e+01
8.750000e+01
8.750000e+01
8.750000e+01
8.750000e+01
8.750000e+01
8.750000e+01
8.750000e+01
8.750000e+01
8.750000e+01
8.750000e+01
8.750000e+01
8.750000e+01
8.750000e+01
8.750000e+01
8.750000e+01
8.750000e+01
8.750000e+01
8.750000e+01
8.750000e+01
8.750000e+01
8.750000e+01
8.750000e+01
9.375000e+01
9.375000e+01
9.375000e+01
9.375000e+01
9.375000e+01
9.375000e+01
9.375000e+01
9.375000e+01
9.375000e+01
9.375000e+01
9.375000e+01
9.375000e+01
9.375000e+01
9.375000e+01
9.375000e+01
9.375000e+01
9.375000e+01
9.375000e+01
9.375000e+01
9.375000e+01
9.375000e+01
9.375000e+01
9.375000e+01
9.375000e+01
9.375000e+01
9.375000e+01
9.375000e+01
9.375000e+01
9.375000e+01
9.375000e+01
9.375000e+01
9.375000e+01
9.375000e+01
1.000000e+02
1.000000e+02
1.000000e+02
1.000000e+02
1.000000e+02
1.000000e+02
1.000000e+02
1.000000e+02
1.000000e+02
1.000000e+02
1.000000e+02
1.000000e+02
1.000000e+02
1.000000e+02
1.000000e+02
1.000000e+02
1.000000e+02
1.000000e+02
1.000000e+02
1.000000e+02
1.000000e+02
1.000000e+02
1.000000e+02
1.000000e+02
1.000000e+02
1.000000e+02
1.000000e+02
1.000000e+02
1.000000e+02
1.000000e+02
1.000000e+02
1.000000e+02
1.000000e+02
0.000000e+00
-4.731976e-01
-7.847856e-01
-1.124662e+00
-1.424189e+00
-1.717178e+00
-2.028549e+00
-2.316391e+00
-2.615198e+00
-2.908233e+00
-3.206389e+00
-3.506035e+00
-3.804060e+00
-4.104676e+00
-4.404006e+00
-4.704784e+00
-5.007949e+00
-5.311158e+00
-5.616042e+00
-5.917860e+00
-6.219419e+00
-6.521734e+00
-6.822705e+00
-7.118637e+00
-7.411887e+00
-7.717033e+00
-8.016631e+00
-8.348406e+00
-8.666798e+00
-9.019810e+00
-9.509814e+00
-9.926033e+00
-1.013000e+01
0.000000e+00
-2.332746e-01
-4.703380e-01
-7.354224e-01
-1.001240e+00
-1.254466e+00
-1.524310e+00
-1.784747e+00
-2.046935e+00
-2.312142e+00
-2.572682e+00
-2.837603e+00
-3.098230e+00
-3.361799e+00
-3.623434e+00
-3.885771e+00
-4.147897e+00
-4.409004e+00
-4.671450e+00
-4.931520e+00
-5.194082e+00
-5.453809e+00
-5.716028e+00
-5.975603e+00
-6.237236e+00
-6.498147e+00
-6.757524e+00
-7.021836e+00
-7.275768e+00
-7.532448e+00
-7.787430e+00
-7.888742e+00
-7.994560e+00
0.000000e+00
-1.016419e-01
-2.354056e-01
-4.320362e-01
-6.529816e-01
-8.604563e-01
-1.085701e+00
-1.313180e+00
-1.541247e+00
-1.773900e+00
-1.996161e+00
-2.223185e+00
-2.446349e+00
-2.671059e+00
-2.895144e+00
-3.117988e+00
-3.340121e+00
-3.560100e+00
-3.781790e+00
-4.004250e+00
-4.230360e+00
-4.452907e+00
-4.679207e+00
-4.909448e+00
-5.140040e+00
-5.362052e+00
-5.573620e+00
-5.770549e+00
-5.949849e+00
-6.098719e+00
-6.186753e+00
-6.192499e+00
-6.285387e+00
0.000000e+00
-1.021034e-01
-1.858635e-01
-3.443075e-01
-4.675260e-01
-6.223077e-01
-7.966690e-01
-9.672626e-01
-1.161577e+00
-1.338959e+00
-1.522490e+00
-1.704591e+00
-1.887659e+00
-2.073188e+00
-2.256875e+00
-2.442950e+00
-2.627209e+00
-2.813179e+00
-3.001974e+00
-3.194125e+00
-3.389709e+00
-3.583703e+00
-3.779480e+00
-3.976079e+00
-4.161142e+00
-4.333836e+00
-4.482197e+00
-4.613978e+00
-4.714549e+00
-4.778049e+00
-4.793183e+00
-4.810636e+00
-4.891008e+00
0.000000e+00
-9.343359e-02
-1.854817e-01
-2.769479e-01
-3.917742e-01
-5.068982e-01
-6.393865e-01
-7.735559e-01
-9.185355e-01
-1.059562e+00
-1.205365e+00
-1.350046e+00
-1.494739e+00
-1.642561e+00
-1.786870e+00
-1.936317e+00
-2.081472e+00
-2.231414e+00
-2.379720e+00
-2.529656e+00
-2.680135e+00
-2.826981e+00
-2.972279e+00
-3.109765e+00
-3.238081e+00
-3.351666e+00
-3.447989e+00
-3.521546e+00
-3.569813e+00
-3.594148e+00
-3.597718e+00
-3.627478e+00
-3.698731e+00
0.000000e+00
-7.475411e-02
-1.465116e-01
-2.217961e-01
-3.035568e-01
-3.936711e-01
-4.885034e-01
-5.897375e-01
-6.933644e-01
-8.011542e-01
-9.086394e-01
-1.017264e+00
-1.125716e+00
-1.234027e+00
-1.343014e+00
-1.451147e+00
-1.560291e+00
-1.668169e+00
-1.776156e+00
-1.882431e+00
-1.986749e+00
-2.087862e+00
-2.182856e+00
-2.270628e+00
-2.348263e+00
-2.413797e+00
-2.464805e+00
-2.499049e+00
-2.521594e+00
-2.522353e+00
-2.517735e+00
-2.544091e+00
-2.609822e+00
0.000000e+00
-5.145692e-02
-1.023491e-01
-1.543672e-01
-2.101063e-01
-2.697376e-01
-3.333452e-01
-3.997725e-01
-4.689617e-01
-5.396291e-01
-6.112855e-01
-6.829334e-01
-7.544228e-01
-8.256562e-01
-8.964461e-01
-9.669856e-01
-1.036743e+00
-1.105660e+00
-1.172955e+00
-1.238187e+00
-1.300426e+00
-1.358382e+00
-1.410558e+00
-1.455117e+00
-1.491108e+00
-1.516260e+00
-1.530285e+00
-1.536098e+00
-1.519643e+00
-1.489223e+00
-1.477815e+00
-1.500736e+00
-1.564633e+00
0.000000e+00
-2.710874e-02
-5.407290e-02
-8.164803e-02
-1.105508e-01
-1.412085e-01
-1.734303e-01
-2.070586e-01
-2.416909e-01
-2.770287e-01
-3.125051e-01
-3.477787e-01
-3.825643e-01
-4.167165e-01
-4.501842e-01
-4.828119e-01
-5.143984e-01
-5.444933e-01
-5.727715e-01
-5.986870e-01
-6.216106e-01
-6.407025e-01
-6.547811e-01
-6.626887e-01
-6.629009e-01
-6.564873e-01
-6.409910e-01
-6.025045e-01
-5.525320e-01
-5.004593e-01
-4.726239e-01
-4.953282e-01
-5.622692e-01
0.000000e+00
-1.993441e-03
-4.059962e-03
-6.117999e-03
-8.045652e-03
-9.694144e-03
-1.097845e-02
-1.190603e-02
-1.254906e-02
-1.287346e-02
-1.276692e-02
-1.205436e-02
-1.067696e-02
-8.394743e-03
-4.909863e-03
-2.592752e-04
5.883073e-03
1.392036e-02
2.390868e-02
3.567464e-02
4.996759e-02
6.691625e-02
8.615771e-02
1.103243e-01
1.404032e-01
1.819417e-01
2.429883e-01
3.159182e-01
3.896051e-01
4.406558e-01
4.564348e-01
4.238101e-01
3.427093e-01
0.000000e+00
2.327195e-02
4.627897e-02
6.990737e-02
9.513026e-02
1.226922e-01
1.526232e-01
1.846516e-01
2.181868e-01
2.527578e-01
2.881466e-01
3.241220e-01
3.606754e-01
3.984546e-01
4.378346e-01
4.792975e-01
5.231242e-01
5.690643e-01
6.169660e-01
6.663693e-01
7.158273e-01
7.668658e-01
8.222761e-01
8.818443e-01
9.492427e-01
1.032262e+00
1.122516e+00
1.214614e+00
1.289267e+00
1.332837e+00
1.328907e+00
1.281985e+00
1.218858e+00
0.000000e+00
4.801139e-02
9.545202e-02
1.440770e-01
1.966641e-01
2.539016e-01
3.160111e-01
3.817467e-01
4.503471e-01
5.204865e-01
5.911258e-01
6.616763e-01
7.323496e-01
8.041383e-01
8.778913e-01
9.552854e-01
1.037000e+00
1.120843e+00
1.206492e+00
1.292836e+00
1.382934e+00
1.471982e+00
1.564088e+00
1.667054e+00
1.775621e+00
1.886424e+00
1.995778e+00
2.084051e+00
2.147503e+00
2.173551e+00
2.165701e+00
2.135837e+00
2.091802e+00
0.000000e+00
7.167374e-02
1.406873e-01
2.136692e-01
2.934175e-01
3.824011e-01
4.775788e-01
5.790252e-01
6.833632e-01
7.910522e-01
8.995999e-01
1.007063e+00
1.115324e+00
1.224464e+00
1.333968e+00
1.444265e+00
1.558177e+00
1.675629e+00
1.795338e+00
1.918494e+00
2.046847e+00
2.183340e+00
2.325345e+00
2.467553e+00
2.605519e+00
2.734844e+00
2.847071e+00
2.935311e+00
2.990350e+00
3.018034e+00
3.021448e+00
3.003412e+00
2.975926e+00
0.000000e+00
9.046585e-02
1.796311e-01
2.704086e-01
3.856976e-01
5.044185e-01
6.381007e-01
7.747933e-01
9.180158e-01
1.062187e+00
1.207307e+00
1.355533e+00
1.501469e+00
1.653236e+00
1.804211e+00
1.958845e+00
2.113727e+00
2.273468e+00
2.439440e+00
2.605954e+00
2.774941e+00
2.947063e+00
3.116956e+00
3.281574e+00
3.434227e+00
3.575232e+00
3.696331e+00
3.786736e+00
3.852930e+00
3.891900e+00
3.904713e+00
3.898171e+00
3.883680e+00
0.000000e+00
9.791772e-02
1.797202e-01
3.336563e-01
4.608534e-01
6.291639e-01
8.062431e-01
9.789485e-01
1.169428e+00
1.346232e+00
1.527757e+00
1.709177e+00
1.894302e+00
2.082570e+00
2.276434e+00
2.478678e+00
2.682424e+00
2.887480e+00
3.097705e+00
3.310754e+00
3.520971e+00
3.725745e+00
3.921461e+00
4.106138e+00
4.280838e+00
4.438067e+00
4.572999e+00
4.679722e+00
4.756153e+00
4.803802e+00
4.825928e+00
4.828714e+00
4.823979e+00
0.000000e+00
9.944106e-02
2.302777e-01
4.171818e-01
6.357938e-01
8.472448e-01
1.080895e+00
1.309972e+00
1.541936e+00
1.774127e+00
1.996493e+00
2.223609e+00
2.447261e+00
2.673247e+00
2.901137e+00
3.132482e+00
3.366976e+00
3.598310e+00
3.829555e+00
4.062119e+00
4.295985e+00
4.524982e+00
4.745098e+00
4.965774e+00
5.177098e+00
5.363707e+00
5.513140e+00
5.627658e+00
5.710022e+00
5.762820e+00
5.790462e+00
5.799495e+00
5.800602e+00
0.000000e+00
2.324074e-01
4.725834e-01
7.359476e-01
1.000942e+00
1.254858e+00
1.523784e+00
1.783975e+00
2.046650e+00
2.310642e+00
2.571019e+00
2.834718e+00
3.094442e+00
3.356109e+00
3.616466e+00
3.875444e+00
4.135882e+00
4.393108e+00
4.650921e+00
4.904890e+00
5.159968e+00
5.413338e+00
5.667028e+00
5.924814e+00
6.169086e+00
6.369961e+00
6.527348e+00
6.644022e+00
6.724109e+00
6.773243e+00
6.798349e+00
6.807441e+00
6.809675e+00
0.000000e+00
4.721023e-01
7.927066e-01
1.137689e+00
1.439588e+00
1.733369e+00
2.036865e+00
2.323557e+00
2.619705e+00
2.910818e+00
3.209603e+00
3.506554e+00
3.803512e+00
4.100837e+00
4.394646e+00
4.685543e+00
4.972819e+00
5.261449e+00
5.551990e+00
5.839621e+00
6.127986e+00
6.415135e+00
6.708543e+00
6.999859e+00
7.265914e+00
7.476609e+00
7.634578e+00
7.743294e+00
7.808053e+00
7.837126e+00
7.842215e+00
7.837608e+00
7.835060e+00
0.000000e+00
-2.795278e-01
-5.914224e-01
-9.903038e-01
-1.424105e+00
-1.894494e+00
-2.405178e+00
-2.946829e+00
-3.523826e+00
-4.131723e+00
-4.773491e+00
-5.452052e+00
-6.166804e+00
-6.919612e+00
-7.709202e+00
-8.536912e+00
-9.403135e+00
-1.030953e+01
-1.125671e+01
-1.224439e+01
-1.327167e+01
-1.433882e+01
-1.544709e+01
-1.659416e+01
-1.777827e+01
-1.900119e+01
-2.026810e+01
-2.158944e+01
-2.297141e+01
-2.443456e+01
-2.599576e+01
-2.780389e+01
-3.034061e+01
0.000000e+00
-1.802239e-01
-5.108038e-01
-9.027809e-01
-1.343365e+00
-1.809895e+00
-2.320568e+00
-2.864408e+00
-3.439807e+00
-4.048594e+00
-4.689123e+00
-5.368250e+00
-6.082849e+00
-6.835615e+00
-7.625374e+00
-8.452813e+00
-9.319030e+00
-1.022510e+01
-1.117252e+01
-1.216029e+01
-1.318773e+01
-1.425429e+01
-1.536309e+01
-1.651084e+01
-1.769453e+01
-1.891697e+01
-2.018231e+01
-2.150209e+01
-2.288574e+01
-2.433961e+01
-2.592014e+01
-2.771554e+01
-2.996613e+01
0.000000e+00
-1.596376e-01
-4.513356e-01
-8.462628e-01
-1.276778e+00
-1.741243e+00
-2.249354e+00
-2.791255e+00
-3.367976e+00
-3.975937e+00
-4.617371e+00
-5.296344e+00
-6.011425e+00
-6.764193e+00
-7.554320e+00
-8.382251e+00
-9.248975e+00
-1.015492e+01
-1.110208e+01
-1.208918e+01
-1.311694e+01
-1.418259e+01
-1.528970e+01
-1.643737e+01
-1.762215e+01
-1.884753e+01
-2.011472e+01
-2.143959e+01
-2.282694e+01
-2.430123e+01
-2.592476e+01
-2.760935e+01
-2.935749e+01
0.000000e+00
-2.056201e-01
-4.511625e-01
-8.434015e-01
-1.242281e+00
-1.696224e+00
-2.201907e+00
-2.730659e+00
-3.314055e+00
-3.916791e+00
-4.561347e+00
-5.239443e+00
-5.954055e+00
-6.708582e+00
-7.496938e+00
-8.327810e+00
-9.193124e+00
-1.010033e+01
-1.104586e+01
-1.203192e+01
-1.306025e+01
-1.412452e+01
-1.523031e+01
-1.637836e+01
-1.756597e+01
-1.879784e+01
-2.007104e+01
-2.140292e+01
-2.279891e+01
-2.429303e+01
-2.590885e+01
-2.745871e+01
-2.885784e+01
0.000000e+00
-2.215847e-01
-4.904019e-01
-8.370874e-01
-1.240117e+00
-1.675992e+00
-2.173226e+00
-2.695556e+00
-3.273916e+00
-3.876748e+00
-4.520954e+00
-5.200031e+00
-5.913763e+00
-6.670112e+00
-7.457288e+00
-8.290172e+00
-9.154462e+00
-1.006255e+01
-1.100717e+01
-1.199251e+01
-1.302053e+01
-1.408485e+01
-1.519196e+01
-1.634060e+01
-1.753241e+01
-1.876787e+01
-2.004931e+01
-2.138448e+01
-2.278306e+01
-2.427347e+01
-2.580820e+01
-2.725792e+01
-2.852574e+01
0.000000e+00
-2.283984e-01
-5.069585e-01
-8.429708e-01
-1.232519e+00
-1.668750e+00
-2.151465e+00
-2.676550e+00
-3.244226e+00
-3.849705e+00
-4.491991e+00
-5.171536e+00
-5.887468e+00
-6.641579e+00
-7.432603e+00
-8.262401e+00
-9.130064e+00
-1.003674e+01
-1.098305e+01
-1.196936e+01
-1.299685e+01
-1.406433e+01
-1.517314e+01
-1.632432e+01
-1.751831e+01
-1.875594e+01
-2.004019e+01
-2.137435e+01
-2.276243e+01
-2.421238e+01
-2.565323e+01
-2.702151e+01
-2.822765e+01
0.000000e+00
-2.320766e-01
-5.131904e-01
-8.460721e-01
-1.229932e+00
-1.662173e+00
-2.140584e+00
-2.663045e+00
-3.227622e+00
-3.831920e+00
-4.474422e+00
-5.154266e+00
-5.871354e+00
-6.625731e+00
-7.417717e+00
-8.247758e+00
-9.116315e+00
-1.002406e+01
-1.097159e+01
-1.195963e+01
-1.298854e+01
-1.405856e+01
-1.517007e+01
-1.632324e+01
-1.751850e+01
-1.875651e+01
-2.003701e+01
-2.136793e+01
-2.272310e+01
-2.412182e+01
-2.549872e+01
-2.679971e+01
-2.794244e+01
0.000000e+00
-2.334722e-01
-5.154830e-01
-8.473647e-01
-1.229038e+00
-1.659123e+00
-2.135726e+00
-2.656814e+00
-3.220356e+00
-3.824402e+00
-4.467319e+00
-5.148038e+00
-5.866024e+00
-6.621236e+00
-7.413896e+00
-8.244594e+00
-9.114072e+00
-1.002300e+01
-1.097203e+01
-1.196175e+01
-1.299259e+01
-1.406479e+01
-1.517843e+01
-1.633352e+01
-1.752758e+01
-1.876541e+01
-2.003845e+01
-2.135047e+01
-2.267064e+01
-2.401536e+01
-2.534763e+01
-2.659251e+01
-2.767943e+01
0.000000e+00
-2.337409e-01
-5.160127e-01
-8.478620e-01
-1.229344e+00
-1.659373e+00
-2.136130e+00
-2.657539e+00
-3.221592e+00
-3.826450e+00
-4.470498e+00
-5.152397e+00
-5.871449e+00
-6.627676e+00
-7.421078e+00
-8.252378e+00
-9.122857e+00
-1.003307e+01
-1.098330e+01
-1.197441e+01
-1.300695e+01
-1.408033e+01
-1.519496e+01
-1.635130e+01
-1.754385e+01
-1.877638e+01
-2.003515e+01
-2.131816e+01
-2.261441e+01
-2.390749e+01
-2.517915e+01
-2.634828e+01
-2.733811e+01
0.000000e+00
-2.332463e-01
-5.153923e-01
-8.478840e-01
-1.230826e+00
-1.662841e+00
-2.141738e+00
-2.665172e+00
-3.231054e+00
-3.837730e+00
-4.483595e+00
-5.167041e+00
-5.887000e+00
-6.644724e+00
-7.438936e+00
-8.270625e+00
-9.142423e+00
-1.005389e+01
-1.100517e+01
-1.199620e+01
-1.303061e+01
-1.410341e+01
-1.521656e+01
-1.637466e+01
-1.756007e+01
-1.878027e+01
-2.002212e+01
-2.128196e+01
-2.254884e+01
-2.380512e+01
-2.500940e+01
-2.611008e+01
-2.706849e+01
0.000000e+00
-2.317221e-01
-5.130917e-01
-8.470867e-01
-1.233489e+00
-1.669803e+00
-2.153009e+00
-2.680123e+00
-3.249089e+00
-3.858180e+00
-4.506570e+00
-5.191136e+00
-5.912042e+00
-6.671366e+00
-7.466728e+00
-8.299265e+00
-9.173028e+00
-1.008511e+01
-1.103806e+01
-1.202735e+01
-1.306149e+01
-1.413201e+01
-1.524305e+01
-1.639444e+01
-1.757111e+01
-1.877594e+01
-2.000671e+01
-2.124368e+01
-2.248491e+01
-2.370006e+01
-2.485916e+01
-2.592814e+01
-2.687670e+01
0.000000e+00
-2.280115e-01
-5.070905e-01
-8.445314e-01
-1.237652e+00
-1.680957e+00
-2.171075e+00
-2.703224e+00
-3.276572e+00
-3.888908e+00
-4.538899e+00
-5.224655e+00
-5.945919e+00
-6.706593e+00
-7.502922e+00
-8.338535e+00
-9.213408e+00
-1.012690e+01
-1.107922e+01
-1.206823e+01
-1.309682e+01
-1.416417e+01
-1.526911e+01
-1.640991e+01
-1.757735e+01
-1.877276e+01
-1.999161e+01
-2.121560e+01
-2.243005e+01
-2.361628e+01
-2.474608e+01
-2.579917e+01
-2.675176e+01
0.000000e+00
-2.207989e-01
-4.910073e-01
-8.399160e-01
-1.246048e+00
-1.695447e+00
-2.200032e+00
-2.733921e+00
-3.315654e+00
-3.930256e+00
-4.579780e+00
-5.268362e+00
-5.988701e+00
-6.752226e+00
-7.548950e+00
-8.388246e+00
-9.263934e+00
-1.017629e+01
-1.112720e+01
-1.211305e+01
-1.313605e+01
-1.419819e+01
-1.529466e+01
-1.642570e+01
-1.758613e+01
-1.877785e+01
-1.999105e+01
-2.120037e+01
-2.239515e+01
-2.355610e+01
-2.466742e+01
-2.571357e+01
-2.668090e+01
0.000000e+00
-2.029451e-01
-4.522667e-01
-8.466068e-01
-1.252133e+00
-1.723696e+00
-2.238463e+00
-2.777345e+00
-3.366308e+00
-3.979426e+00
-4.630550e+00
-5.318494e+00
-6.042838e+00
-6.807025e+00
-7.607446e+00
-8.448010e+00
-9.323673e+00
-1.023430e+01
-1.118178e+01
-1.216342e+01
-1.318142e+01
-1.423607e+01
-1.532373e+01
-1.644734e+01
-1.760942e+01
-1.880140e+01
-2.000687e+01
-2.120166e+01
-2.237738e+01
-2.352001e+01
-2.461786e+01
-2.566265e+01
-2.665021e+01
0.000000e+00
-1.555945e-01
-4.497034e-01
-8.489819e-01
-1.291065e+00
-1.771527e+00
-2.291728e+00
-2.841180e+00
-3.425759e+00
-4.040942e+00
-4.690572e+00
-5.379175e+00
-6.105192e+00
-6.869970e+00
-7.673569e+00
-8.513955e+00
-9.389370e+00
-1.029835e+01
-1.124301e+01
-1.222213e+01
-1.323571e+01
-1.428356e+01
-1.536440e+01
-1.648876e+01
-1.765409e+01
-1.884309e+01
-2.003409e+01
-2.121563e+01
-2.237598e+01
-2.350438e+01
-2.459229e+01
-2.563713e+01
-2.664500e+01
0.000000e+00
-1.759277e-01
-5.075483e-01
-9.057504e-01
-1.359139e+00
-1.841530e+00
-2.364163e+00
-2.915813e+00
-3.498889e+00
-4.114257e+00
-4.763146e+00
-5.452035e+00
-6.177571e+00
-6.943148e+00
-7.746990e+00
-8.587386e+00
-9.462120e+00
-1.036927e+01
-1.131270e+01
-1.229023e+01
-1.330214e+01
-1.434677e+01
-1.542824e+01
-1.655409e+01
-1.771592e+01
-1.889242e+01
-2.007010e+01
-2.123860e+01
-2.238656e+01
-2.350387e+01
-2.458400e+01
-2.562795e+01
-2.664966e+01
0.000000e+00
-2.764326e-01
-5.895613e-01
-9.939356e-01
-1.440422e+00
-1.925651e+00
-2.447827e+00
-2.998384e+00
-3.582576e+00
-4.197368e+00
-4.847509e+00
-5.535513e+00
-6.261230e+00
-7.026645e+00
-7.829610e+00
-8.669547e+00
-9.543333e+00
-1.045051e+01
-1.139308e+01
-1.236997e+01
-1.338161e+01
-1.442631e+01