TITLE = "Solution"
VARIABLES = x, y, u, v, psiu, psiv, t, stress
ZONE T="structure" N=153 E=128 F=FEBLOCK ET=QUADRILATERAL VARLOCATION=([7,8]=cellcentered)
0.000000e+00
1.250000e+01
2.500000e+01
3.750000e+01
5.000000e+01
6.250000e+01
7.500000e+01
8.750000e+01
1.000000e+02
1.125000e+02
1.250000e+02
1.375000e+02
1.500000e+02
1.625000e+02
1.750000e+02
1.875000e+02
2.000000e+02
0.000000e+00
1.250000e+01
2.500000e+01
3.750000e+01
5.000000e+01
6.250000e+01
7.500000e+01
8.750000e+01
1.000000e+02
1.125000e+02
1.250000e+02
1.375000e+02
1.500000e+02
1.625000e+02
1.750000e+02
1.875000e+02
2.000000e+02
0.000000e+00
1.250000e+01
2.500000e+01
3.750000e+01
5.000000e+01
6.250000e+01
7.500000e+01
8.750000e+01
1.000000e+02
1.125000e+02
1.250000e+02
1.375000e+02
1.500000e+02
1.625000e+02
1.750000e+02
1.875000e+02
2.000000e+02
0.000000e+00
1.250000e+01
2.500000e+01
3.750000e+01
5.000000e+01
6.250000e+01
7.500000e+01
8.750000e+01
1.000000e+02
1.125000e+02
1.250000e+02
1.375000e+02
1.500000e+02
1.625000e+02
1.750000e+02
1.875000e+02
2.000000e+02
0.000000e+00
1.250000e+01
2.500000e+01
3.750000e+01
5.000000e+01
6.250000e+01
7.500000e+01
8.750000e+01
1.000000e+02
1.125000e+02
1.250000e+02
1.375000e+02
1.500000e+02
1.625000e+02
1.750000e+02
1.875000e+02
2.000000e+02
0.000000e+00
1.250000e+01
2.500000e+01
3.750000e+01
5.000000e+01
6.250000e+01
7.500000e+01
8.750000e+01
1.000000e+02
1.125000e+02
1.250000e+02
1.375000e+02
1.500000e+02
1.625000e+02
1.750000e+02
1.875000e+02
2.000000e+02
0.000000e+00
1.250000e+01
2.500000e+01
3.750000e+01
5.000000e+01
6.250000e+01
7.500000e+01
8.750000e+01
1.000000e+02
1.125000e+02
1.250000e+02
1.375000e+02
1.500000e+02
1.625000e+02
1.750000e+02
1.875000e+02
2.000000e+02
0.000000e+00
1.250000e+01
2.500000e+01
3.750000e+01
5.000000e+01
6.250000e+01
7.500000e+01
8.750000e+01
1.000000e+02
1.125000e+02
1.250000e+02
1.375000e+02
1.500000e+02
1.625000e+02
1.750000e+02
1.875000e+02
2.000000e+02
0.000000e+00
1.250000e+01
2.500000e+01
3.750000e+01
5.000000e+01
6.250000e+01
7.500000e+01
8.750000e+01
1.000000e+02
1.125000e+02
1.250000e+02
1.375000e+02
1.500000e+02
1.625000e+02
1.750000e+02
1.875000e+02
2.000000e+02
0.000000e+00
0.000000e+00
0.000000e+00
0.000000e+00
0.000000e+00
0.000000e+00
0.000000e+00
0.000000e+00
0.000000e+00
0.000000e+00
0.000000e+00
0.000000e+00
0.000000e+00
0.000000e+00
0.000000e+00
0.000000e+00
0.000000e+00
1.250000e+01
1.250000e+01
1.250000e+01
1.250000e+01
1.250000e+01
1.250000e+01
1.250000e+01
1.250000e+01
1.250000e+01
1.250000e+01
1.250000e+01
1.250000e+01
1.250000e+01
1.250000e+01
1.250000e+01
1.250000e+01
1.250000e+01
2.500000e+01
2.500000e+01
2.500000e+01
2.500000e+01
2.500000e+01
2.500000e+01
2.500000e+01
2.500000e+01
2.500000e+01
2.500000e+01
2.500000e+01
2.500000e+01
2.500000e+01
2.500000e+01
2.500000e+01
2.500000e+01
2.500000e+01
3.750000e+01
3.750000e+01
3.750000e+01
3.750000e+01
3.750000e+01
3.750000e+01
3.750000e+01
3.750000e+01
3.750000e+01
3.750000e+01
3.750000e+01
3.750000e+01
3.750000e+01
3.750000e+01
3.750000e+01
3.750000e+01
3.750000e+01
5.000000e+01
5.000000e+01
5.000000e+01
5.000000e+01
5.000000e+01
5.000000e+01
5.000000e+01
5.000000e+01
5.000000e+01
5.000000e+01
5.000000e+01
5.000000e+01
5.000000e+01
5.000000e+01
5.000000e+01
5.000000e+01
5.000000e+01
6.250000e+01
6.250000e+01
6.250000e+01
6.250000e+01
6.250000e+01
6.250000e+01
6.250000e+01
6.250000e+01
6.250000e+01
6.250000e+01
6.250000e+01
6.250000e+01
6.250000e+01
6.250000e+01
6.250000e+01
6.250000e+01
6.250000e+01
7.500000e+01
7.500000e+01
7.500000e+01
7.500000e+01
7.500000e+01
7.500000e+01
7.500000e+01
7.500000e+01
7.500000e+01
7.500000e+01
7.500000e+01
7.500000e+01
7.500000e+01
7.500000e+01
7.500000e+01
7.500000e+01
7.500000e+01
8.750000e+01
8.750000e+01
8.750000e+01
8.750000e+01
8.750000e+01
8.750000e+01
8.750000e+01
8.750000e+01
8.750000e+01
8.750000e+01
8.750000e+01
8.750000e+01
8.750000e+01
8.750000e+01
8.750000e+01
8.750000e+01
8.750000e+01
1.000000e+02
1.000000e+02
1.000000e+02
1.000000e+02
1.000000e+02
1.000000e+02
1.000000e+02
1.000000e+02
1.000000e+02
1.000000e+02
1.000000e+02
1.000000e+02
1.000000e+02
1.000000e+02
1.000000e+02
1.000000e+02
1.000000e+02
0.000000e+00
-2.236006e-01
-4.117184e-01
-5.848207e-01
-7.460447e-01
-8.950464e-01
-1.031501e+00
-1.155298e+00
-1.266616e+00
-1.365963e+00
-1.454323e+00
-1.533422e+00
-1.606231e+00
-1.677880e+00
-1.757222e+00
-1.854661e+00
-1.927778e+00
0.000000e+00
-1.335247e-01
-2.773732e-01
-4.102163e-01
-5.326195e-01
-6.450450e-01
-7.477214e-01
-8.407832e-01
-9.243953e-01
-9.988133e-01
-1.064414e+00
-1.121669e+00
-1.170943e+00
-1.211729e+00
-1.240498e+00
-1.246803e+00
-1.269409e+00
0.000000e+00
-8.349913e-02
-1.716977e-01
-2.596961e-01
-3.418490e-01
-4.172846e-01
-4.859390e-01
-5.478875e-01
-6.031438e-01
-6.516142e-01
-6.930371e-01
-7.268331e-01
-7.517971e-01
-7.657327e-01
-7.661198e-01
-7.605531e-01
-7.836098e-01
0.000000e+00
-4.030081e-02
-8.296648e-02
-1.259058e-01
-1.669679e-01
-2.047924e-01
-2.390794e-01
-2.697280e-01
-2.965617e-01
-3.192307e-01
-3.371551e-01
-3.494886e-01
-3.552213e-01
-3.538820e-01
-3.483795e-01
-3.498841e-01
-3.670523e-01
0.000000e+00
-3.717548e-05
-8.450458e-05
-1.316784e-04
-1.567286e-04
-1.106653e-04
1.037523e-04
6.610126e-04
1.847388e-03
4.089298e-03
7.943066e-03
1.396757e-02
2.231383e-02
3.174556e-02
3.826076e-02
3.647404e-02
2.510704e-02
0.000000e+00
4.024360e-02
8.283368e-02
1.256933e-01
1.667037e-01
2.045774e-01
2.391624e-01
2.706268e-01
2.992425e-01
3.253407e-01
3.492622e-01
3.711835e-01
3.907239e-01
4.063931e-01
4.156106e-01
4.163418e-01
4.105723e-01
0.000000e+00
8.348971e-02
1.716690e-01
2.596391e-01
3.417600e-01
4.171737e-01
4.858470e-01
5.479170e-01
6.035107e-01
6.527255e-01
6.956034e-01
7.320391e-01
7.616131e-01
7.834782e-01
7.966023e-01
8.008637e-01
7.995183e-01
0.000000e+00
1.335795e-01
2.774923e-01
4.104061e-01
5.328741e-01
6.453175e-01
7.478743e-01
8.405031e-01
9.230603e-01
9.953054e-01
1.056894e+00
1.107401e+00
1.146420e+00
1.173822e+00
1.190168e+00
1.197138e+00
1.198418e+00
0.000000e+00
2.236922e-01
4.119600e-01
5.852734e-01
7.467679e-01
8.960637e-01
1.032715e+00
1.156319e+00
1.266460e+00
1.362563e+00
1.443793e+00
1.509065e+00
1.557307e+00
1.588139e+00
1.603049e+00
1.606730e+00
1.606659e+00
0.000000e+00
-1.353531e-01
-2.657226e-01
-4.346556e-01
-6.419895e-01
-8.873375e-01
-1.168015e+00
-1.480882e+00
-1.822614e+00
-2.189927e+00
-2.579789e+00
-2.989786e+00
-3.418929e+00
-3.869510e+00
-4.353221e+00
-4.906689e+00
-5.701963e+00
0.000000e+00
-8.332669e-02
-2.193225e-01
-3.903463e-01
-6.010642e-01
-8.497572e-01
-1.133833e+00
-1.450075e+00
-1.795118e+00
-2.165621e+00
-2.558466e+00
-2.971129e+00
-3.402468e+00
-3.854714e+00
-4.338237e+00
-4.888347e+00
-5.562308e+00
0.000000e+00
-6.287948e-02
-1.871561e-01
-3.588085e-01
-5.715156e-01
-8.227660e-01
-1.109451e+00
-1.428324e+00
-1.776041e+00
-2.149309e+00
-2.545071e+00
-2.960888e+00
-3.395727e+00
-3.851453e+00
-4.335392e+00
-4.856635e+00
-5.361084e+00
0.000000e+00
-5.418832e-02
-1.711640e-01
-3.402971e-01
-5.537715e-01
-8.065670e-01
-1.095039e+00
-1.415815e+00
-1.765618e+00
-2.141240e+00
-2.539692e+00
-2.958488e+00
-3.396104e+00
-3.852333e+00
-4.326589e+00
-4.805530e+00
-5.246736e+00
0.000000e+00
-5.168512e-02
-1.663244e-01
-3.343920e-01
-5.479239e-01
-8.013482e-01
-1.090649e+00
-1.412458e+00
-1.763559e+00
-2.140798e+00
-2.541118e+00
-2.961641e+00
-3.399647e+00
-3.851904e+00
-4.311643e+00
-4.763136e+00
-5.179063e+00
0.000000e+00
-5.415614e-02
-1.711411e-01
-3.403379e-01
-5.539717e-01
-8.070944e-01
-1.096167e+00
-1.417952e+00
-1.769301e+00
-2.147046e+00
-2.547931e+00
-2.968473e+00
-3.404603e+00
-3.850770e+00
-4.298400e+00
-4.734407e+00
-5.141454e+00
0.000000e+00
-6.282698e-02
-1.871182e-01
-3.588765e-01
-5.718529e-01
-8.236582e-01
-1.111364e+00
-1.431951e+00
-1.782304e+00
-2.159199e+00
-2.559161e+00
-2.978172e+00
-3.411183e+00
-3.851502e+00
-4.290451e+00
-4.718089e+00
-5.124866e+00
0.000000e+00
-8.327747e-02
-2.192895e-01
-3.904366e-01
-6.014692e-01
-8.508063e-01
-1.136059e+00
-1.454268e+00
-1.802312e+00
-2.176911e+00
-2.574447e+00
-2.990615e+00
-3.419935e+00
-3.855351e+00
-4.288461e+00
-4.711342e+00
-5.120972e+00
0.000000e+00
-1.353327e-01
-2.657254e-01
-4.347954e-01
-6.424589e-01
-8.884586e-01
-1.170293e+00
-1.485039e+00
-1.829543e+00
-2.200467e+00
-2.594108e+00
-3.006063e+00
-3.430817e+00
-3.861468e+00
-4.290152e+00
-4.710107e+00
-5.121033e+00


0.000000e+00
3.309708e-08
6.843139e-08
9.959577e-08
1.257538e-07
1.468716e-07
1.633981e-07
1.760030e-07
1.853799e-07
1.921839e-07
1.970075e-07
2.003778e-07
2.027718e-07
2.046292e-07
2.063615e-07
2.085104e-07
2.110985e-07
0.000000e+00
2.260858e-08
5.316125e-08
7.790094e-08
9.759986e-08
1.130566e-07
1.249110e-07
1.337964e-07
1.402868e-07
1.448862e-07
1.480257e-07
1.500588e-07
1.512498e-07
1.518318e-07
1.524240e-07
1.541799e-07
1.568439e-07
0.000000e+00
1.682740e-08
3.688947e-08
5.356495e-08
6.687895e-08
7.708758e-08
8.472092e-08
9.029709e-08
9.425168e-08
9.694046e-08
9.865147e-08
9.961772e-08
1.000446e-07
1.002074e-07
1.006266e-07
1.020048e-07
1.041604e-07
0.000000e+00
8.978000e-09
1.834442e-08
2.668713e-08
3.347847e-08
3.863908e-08
4.242606e-08
4.512819e-08
4.698296e-08
4.817784e-08
4.886759e-08
4.919637e-08
4.932917e-08
4.947619e-08
4.984799e-08
5.068442e-08
5.200784e-08
0.000000e+00
-1.003057e-11
-2.330444e-11
-4.147683e-11
-6.731624e-11
-1.046057e-10
-1.581973e-10
-2.337179e-10
-3.359632e-10
-4.651354e-10
-6.097820e-10
-7.363809e-10
-7.845541e-10
-6.951651e-10
-4.657763e-10
-6.382062e-11
6.233680e-10
0.000000e+00
-8.995367e-09
-1.838422e-08
-2.675770e-08
-3.359155e-08
-3.881146e-08
-4.268124e-08
-4.549762e-08
-4.750621e-08
-4.889879e-08
-4.982258e-08
-5.038742e-08
-5.067646e-08
-5.077058e-08
-5.076447e-08
-5.066568e-08
-5.037293e-08
0.000000e+00
-1.683681e-08
-3.691490e-08
-5.361134e-08
-6.695186e-08
-7.719276e-08
-8.486408e-08
-9.048387e-08
-9.448908e-08
-9.724111e-08
-9.904158e-08
-1.001467e-07
-1.007749e-07
-1.011109e-07
-1.012918e-07
-1.013542e-07
-1.012719e-07
0.000000e+00
-2.261236e-08
-5.317838e-08
-7.793098e-08
-9.764167e-08
-1.131059e-07
-1.249581e-07
-1.338237e-07
-1.402696e-07
-1.447972e-07
-1.478470e-07
-1.498040e-07
-1.509960e-07
-1.516876e-07
-1.520689e-07
-1.522427e-07
-1.522670e-07
0.000000e+00
-3.311216e-08
-6.845678e-08
-9.962550e-08
-1.257798e-07
-1.468803e-07
-1.633674e-07
-1.759011e-07
-1.851646e-07
-1.918039e-07
-1.964012e-07
-1.994629e-07
-2.014102e-07
-2.025724e-07
-2.031858e-07
-2.034205e-07
-2.034611e-07
0.000000e+00
3.006332e-08
5.388036e-08
7.880647e-08
1.087280e-07
1.439483e-07
1.837352e-07
2.271425e-07
2.732710e-07
3.213840e-07
3.709201e-07
4.214961e-07
4.729551e-07
5.256220e-07
5.808809e-07
6.394579e-07
6.987788e-07
0.000000e+00
1.611906e-08
3.944129e-08
6.613684e-08
9.840455e-08
1.358573e-07
1.775849e-07
2.225849e-07
2.699863e-07
3.190899e-07
3.693739e-07
4.204924e-07
4.723023e-07
5.249575e-07
5.791195e-07
6.360952e-07
6.944720e-07
0.000000e+00
7.916235e-09
2.813557e-08
5.626404e-08
9.044200e-08
1.297262e-07
1.729930e-07
2.192347e-07
2.676178e-07
3.174856e-07
3.683525e-07
4.198989e-07
4.719569e-07
5.244365e-07
5.773969e-07
6.325259e-07
6.893678e-07
0.000000e+00
4.511133e-09
2.283036e-08
5.110152e-08
8.626619e-08
1.265534e-07
1.706559e-07
2.175593e-07
2.664617e-07
3.167359e-07
3.679133e-07
4.196691e-07
4.717789e-07
5.240184e-07
5.763304e-07
6.299953e-07
6.849098e-07
0.000000e+00
3.654632e-09
2.138968e-08
4.953746e-08
8.497953e-08
1.255844e-07
1.699555e-07
2.170733e-07
2.661483e-07
3.165615e-07
3.678416e-07
4.196427e-07
4.717029e-07
5.237921e-07
5.758320e-07
6.285558e-07
6.817450e-07
0.000000e+00
4.516994e-09
2.283836e-08
5.111232e-08
8.628155e-08
1.265781e-07
1.706981e-07
2.176308e-07
2.665746e-07
3.168959e-07
3.681047e-07
4.198313e-07
4.717960e-07
5.237868e-07
5.757206e-07
6.278644e-07
6.799273e-07
0.000000e+00
7.925610e-09
2.815018e-08
5.628566e-08
9.047398e-08
1.297778e-07
1.730795e-07
2.193774e-07
2.678395e-07
3.177989e-07
3.687358e-07
4.202539e-07
4.720557e-07
5.239281e-07
5.757579e-07
6.275589e-07
6.790795e-07
0.000000e+00
1.613255e-08
3.946629e-08
6.617357e-08
9.845735e-08
1.359368e-07
1.777080e-07
2.227747e-07
2.702674e-07
3.194771e-07
3.698469e-07
4.209485e-07
4.724579e-07
5.241394e-07
5.758362e-07
6.274424e-07
6.787967e-07
0.000000e+00
3.008556e-08
5.391799e-08
7.885857e-08
1.087981e-07
1.440444e-07
1.838704e-07
2.273344e-07
2.735377e-07
3.217346e-07
3.713320e-07
4.218670e-07
4.729826e-07
5.244089e-07
5.759466e-07
6.274344e-07
6.787534e-07


6.532688e-01
6.532681e-01
6.533167e-01
6.534016e-01
6.534789e-01
6.535407e-01
6.535882e-01
6.536235e-01
6.536488e-01
6.536661e-01
6.536774e-01
6.536841e-01
6.536858e-01
6.536789e-01
6.536646e-01
6.536538e-01
6.533555e-01
6.533535e-01
6.533906e-01
6.534587e-01
6.535213e-01
6.535712e-01
6.536095e-01
6.536379e-01
6.536581e-01
6.536719e-01
6.536809e-01
6.536859e-01
6.536866e-01
6.536791e-01
6.536649e-01
6.536544e-01
6.535010e-01
6.534977e-01
6.535179e-01
6.535569e-01
6.535930e-01
6.536224e-01
6.536449e-01
6.536613e-01
6.536730e-01
6.536808e-01
6.536858e-01
6.536883e-01
6.536879e-01
6.536814e-01
6.536700e-01
6.536618e-01
6.536049e-01
6.536019e-01
6.536098e-01
6.536266e-01
6.536437e-01
6.536581e-01
6.536691e-01
6.536770e-01
6.536825e-01
6.536861e-01
6.536882e-01
6.536892e-01
6.536886e-01
6.536849e-01
6.536784e-01
6.536740e-01
6.536048e-01
6.536019e-01
6.536097e-01
6.536264e-01
6.536435e-01
6.536578e-01
6.536687e-01
6.536765e-01
6.536819e-01
6.536853e-01
6.536875e-01
6.536887e-01
6.536890e-01
6.536878e-01
6.536855e-01
6.536839e-01
6.535009e-01
6.534975e-01
6.535177e-01
6.535566e-01
6.535926e-01
6.536219e-01
6.536441e-01
6.536604e-01
6.536718e-01
6.536795e-01
6.536844e-01
6.536875e-01
6.536893e-01
6.536900e-01
6.536899e-01
6.536898e-01
6.533552e-01
6.533532e-01
6.533902e-01
6.534583e-01
6.535209e-01
6.535708e-01
6.536091e-01
6.536375e-01
6.536576e-01
6.536714e-01
6.536805e-01
6.536861e-01
6.536894e-01
6.536913e-01
6.536922e-01
6.536925e-01
6.532685e-01
6.532677e-01
6.533163e-01
6.534012e-01
6.534786e-01
6.535405e-01
6.535882e-01
6.536237e-01
6.536492e-01
6.536667e-01
6.536782e-01
6.536854e-01
6.536896e-01
6.536919e-01
6.536931e-01
6.536935e-01


8.875182e-01
9.034688e-01
9.182149e-01
9.295596e-01
9.400946e-01
9.498137e-01
9.586721e-01
9.665643e-01
9.734063e-01
9.791296e-01
9.836811e-01
9.870154e-01
9.890883e-01
9.898281e-01
9.903621e-01
9.574578e-01
9.574487e-01
9.501373e-01
9.548339e-01
9.609639e-01
9.666816e-01
9.718808e-01
9.765894e-01
9.808557e-01
9.847194e-01
9.882199e-01
9.913964e-01
9.942729e-01
9.967826e-01
9.984261e-01
9.942705e-01
9.379441e-01
9.852155e-01
9.810154e-01
9.798787e-01
9.814696e-01
9.835646e-01
9.855950e-01
9.874809e-01
9.892637e-01
9.909910e-01
9.926756e-01
9.942490e-01
9.954673e-01
9.957215e-01
9.935277e-01
9.855688e-01
9.712543e-01
9.969901e-01
9.939269e-01
9.920340e-01
9.915529e-01
9.917435e-01
9.920644e-01
9.923849e-01
9.926985e-01
9.930063e-01
9.932641e-01
9.933358e-01
9.929521e-01
9.917350e-01
9.895508e-01
9.876986e-01
9.872298e-01
9.970014e-01
9.939429e-01
9.920483e-01
9.915500e-01
9.916958e-01
9.919269e-01
9.920872e-01
9.921409e-01
9.920666e-01
9.918290e-01
9.913870e-01
9.907500e-01
9.901436e-01
9.902641e-01
9.919784e-01
9.949459e-01
9.852367e-01
9.810474e-01
9.799095e-01
9.814699e-01
9.834831e-01
9.853434e-01
9.869180e-01
9.881840e-01
9.891323e-01
9.897710e-01
9.901748e-01
9.905698e-01
9.913997e-01
9.931396e-01
9.957532e-01
9.984555e-01
9.574448e-01
9.501343e-01
9.548275e-01
9.609464e-01
9.666367e-01
9.717784e-01
9.763772e-01
9.804505e-01
9.840006e-01
9.870358e-01
9.896055e-01
9.918500e-01
9.940115e-01
9.962777e-01
9.983970e-01
9.997317e-01
8.874414e-01
9.033488e-01
9.180677e-01
9.293944e-01
9.399461e-01
9.497598e-01
9.588552e-01
9.672096e-01
9.748235e-01
9.816815e-01
9.877013e-01
9.926954e-01
9.964107e-01
9.987030e-01
9.997458e-01
9.999946e-01
1 2 19 18
2 3 20 19
3 4 21 20
4 5 22 21
5 6 23 22
6 7 24 23
7 8 25 24
8 9 26 25
9 10 27 26
10 11 28 27
11 12 29 28
12 13 30 29
13 14 31 30
14 15 32 31
15 16 33 32
16 17 34 33
18 19 36 35
19 20 37 36
20 21 38 37
21 22 39 38
22 23 40 39
23 24 41 40
24 25 42 41
25 26 43 42
26 27 44 43
27 28 45 44
28 29 46 45
29 30 47 46
30 31 48 47
31 32 49 48
32 33 50 49
33 34 51 50
35 36 53 52
36 37 54 53
37 38 55 54
38 39 56 55
39 40 57 56
40 41 58 57
41 42 59 58
42 43 60 59
43 44 61 60
44 45 62 61
45 46 63 62
46 47 64 63
47 48 65 64
48 49 66 65
49 50 67 66
50 51 68 67
52 53 70 69
53 54 71 70
54 55 72 71
55 56 73 72
56 57 74 73
57 58 75 74
58 59 76 75
59 60 77 76
60 61 78 77
61 62 79 78
62 63 80 79
63 64 81 80
64 65 82 81
65 66 83 82
66 67 84 83
67 68 85 84
69 70 87 86
70 71 88 87
71 72 89 88
72 73 90 89
73 74 91 90
74 75 92 91
75 76 93 92
76 77 94 93
77 78 95 94
78 79 96 95
79 80 97 96
80 81 98 97
81 82 99 98
82 83 100 99
83 84 101 100
84 85 102 101
86 87 104 103
87 88 105 104
88 89 106 105
89 90 107 106
90 91 108 107
91 92 109 108
92 93 110 109
93 94 111 110
94 95 112 111
95 96 113 112
96 97 114 113
97 98 115 114
98 99 116 115
99 100 117 116
100 101 118 117
101 102 119 118
103 104 121 120
104 105 122 121
105 106 123 122
106 107 124 123
107 108 125 124
108 109 126 125
109 110 127 126
110 111 128 127
111 112 129 128
112 113 130 129
113 114 131 130
114 115 132 131
115 116 133 132
116 117 134 133
117 118 135 134
118 119 136 135
120 121 138 137
121 122 139 138
122 123 140 139
123 124 141 140
124 125 142 141
125 126 143 142
126 127 144 143
127 128 145 144
128 129 146 145
129 130 147 146
130 131 148 147
131 132 149 148
132 133 150 149
133 134 151 150
134 135 152 151
135 136 153 152
