TITLE = "Solution"
VARIABLES = x, y, u, v, psiu, psiv, t, stress
ZONE T="structure" N=153 E=128 F=FEBLOCK ET=QUADRILATERAL VARLOCATION=([7,8]=cellcentered)
0.000000e+00
1.250000e+01
2.500000e+01
3.750000e+01
5.000000e+01
6.250000e+01
7.500000e+01
8.750000e+01
1.000000e+02
1.125000e+02
1.250000e+02
1.375000e+02
1.500000e+02
1.625000e+02
1.750000e+02
1.875000e+02
2.000000e+02
0.000000e+00
1.250000e+01
2.500000e+01
3.750000e+01
5.000000e+01
6.250000e+01
7.500000e+01
8.750000e+01
1.000000e+02
1.125000e+02
1.250000e+02
1.375000e+02
1.500000e+02
1.625000e+02
1.750000e+02
1.875000e+02
2.000000e+02
0.000000e+00
1.250000e+01
2.500000e+01
3.750000e+01
5.000000e+01
6.250000e+01
7.500000e+01
8.750000e+01
1.000000e+02
1.125000e+02
1.250000e+02
1.375000e+02
1.500000e+02
1.625000e+02
1.750000e+02
1.875000e+02
2.000000e+02
0.000000e+00
1.250000e+01
2.500000e+01
3.750000e+01
5.000000e+01
6.250000e+01
7.500000e+01
8.750000e+01
1.000000e+02
1.125000e+02
1.250000e+02
1.375000e+02
1.500000e+02
1.625000e+02
1.750000e+02
1.875000e+02
2.000000e+02
0.000000e+00
1.250000e+01
2.500000e+01
3.750000e+01
5.000000e+01
6.250000e+01
7.500000e+01
8.750000e+01
1.000000e+02
1.125000e+02
1.250000e+02
1.375000e+02
1.500000e+02
1.625000e+02
1.750000e+02
1.875000e+02
2.000000e+02
0.000000e+00
1.250000e+01
2.500000e+01
3.750000e+01
5.000000e+01
6.250000e+01
7.500000e+01
8.750000e+01
1.000000e+02
1.125000e+02
1.250000e+02
1.375000e+02
1.500000e+02
1.625000e+02
1.750000e+02
1.875000e+02
2.000000e+02
0.000000e+00
1.250000e+01
2.500000e+01
3.750000e+01
5.000000e+01
6.250000e+01
7.500000e+01
8.750000e+01
1.000000e+02
1.125000e+02
1.250000e+02
1.375000e+02
1.500000e+02
1.625000e+02
1.750000e+02
1.875000e+02
2.000000e+02
0.000000e+00
1.250000e+01
2.500000e+01
3.750000e+01
5.000000e+01
6.250000e+01
7.500000e+01
8.750000e+01
1.000000e+02
1.125000e+02
1.250000e+02
1.375000e+02
1.500000e+02
1.625000e+02
1.750000e+02
1.875000e+02
2.000000e+02
0.000000e+00
1.250000e+01
2.500000e+01
3.750000e+01
5.000000e+01
6.250000e+01
7.500000e+01
8.750000e+01
1.000000e+02
1.125000e+02
1.250000e+02
1.375000e+02
1.500000e+02
1.625000e+02
1.750000e+02
1.875000e+02
2.000000e+02
0.000000e+00
0.000000e+00
0.000000e+00
0.000000e+00
0.000000e+00
0.000000e+00
0.000000e+00
0.000000e+00
0.000000e+00
0.000000e+00
0.000000e+00
0.000000e+00
0.000000e+00
0.000000e+00
0.000000e+00
0.000000e+00
0.000000e+00
1.250000e+01
1.250000e+01
1.250000e+01
1.250000e+01
1.250000e+01
1.250000e+01
1.250000e+01
1.250000e+01
1.250000e+01
1.250000e+01
1.250000e+01
1.250000e+01
1.250000e+01
1.250000e+01
1.250000e+01
1.250000e+01
1.250000e+01
2.500000e+01
2.500000e+01
2.500000e+01
2.500000e+01
2.500000e+01
2.500000e+01
2.500000e+01
2.500000e+01
2.500000e+01
2.500000e+01
2.500000e+01
2.500000e+01
2.500000e+01
2.500000e+01
2.500000e+01
2.500000e+01
2.500000e+01
3.750000e+01
3.750000e+01
3.750000e+01
3.750000e+01
3.750000e+01
3.750000e+01
3.750000e+01
3.750000e+01
3.750000e+01
3.750000e+01
3.750000e+01
3.750000e+01
3.750000e+01
3.750000e+01
3.750000e+01
3.750000e+01
3.750000e+01
5.000000e+01
5.000000e+01
5.000000e+01
5.000000e+01
5.000000e+01
5.000000e+01
5.000000e+01
5.000000e+01
5.000000e+01
5.000000e+01
5.000000e+01
5.000000e+01
5.000000e+01
5.000000e+01
5.000000e+01
5.000000e+01
5.000000e+01
6.250000e+01
6.250000e+01
6.250000e+01
6.250000e+01
6.250000e+01
6.250000e+01
6.250000e+01
6.250000e+01
6.250000e+01
6.250000e+01
6.250000e+01
6.250000e+01
6.250000e+01
6.250000e+01
6.250000e+01
6.250000e+01
6.250000e+01
7.500000e+01
7.500000e+01
7.500000e+01
7.500000e+01
7.500000e+01
7.500000e+01
7.500000e+01
7.500000e+01
7.500000e+01
7.500000e+01
7.500000e+01
7.500000e+01
7.500000e+01
7.500000e+01
7.500000e+01
7.500000e+01
7.500000e+01
8.750000e+01
8.750000e+01
8.750000e+01
8.750000e+01
8.750000e+01
8.750000e+01
8.750000e+01
8.750000e+01
8.750000e+01
8.750000e+01
8.750000e+01
8.750000e+01
8.750000e+01
8.750000e+01
8.750000e+01
8.750000e+01
8.750000e+01
1.000000e+02
1.000000e+02
1.000000e+02
1.000000e+02
1.000000e+02
1.000000e+02
1.000000e+02
1.000000e+02
1.000000e+02
1.000000e+02
1.000000e+02
1.000000e+02
1.000000e+02
1.000000e+02
1.000000e+02
1.000000e+02
1.000000e+02
0.000000e+00
-7.058839e-02
-1.299756e-01
-1.846195e-01
-2.355083e-01
-2.825345e-01
-3.255973e-01
-3.646633e-01
-3.997893e-01
-4.311371e-01
-4.590175e-01
-4.839755e-01
-5.069483e-01
-5.295555e-01
-5.545901e-01
-5.853357e-01
-6.084070e-01
0.000000e+00
-4.215414e-02
-8.756703e-02
-1.295029e-01
-1.681387e-01
-2.036214e-01
-2.360245e-01
-2.653915e-01
-2.917752e-01
-3.152570e-01
-3.359560e-01
-3.540215e-01
-3.695687e-01
-3.824376e-01
-3.915148e-01
-3.935043e-01
-4.006374e-01
0.000000e+00
-2.636200e-02
-5.420687e-02
-8.198624e-02
-1.079174e-01
-1.317258e-01
-1.533922e-01
-1.729410e-01
-1.903771e-01
-2.056715e-01
-2.187417e-01
-2.294053e-01
-2.372820e-01
-2.416789e-01
-2.418010e-01
-2.400445e-01
-2.473196e-01
0.000000e+00
-1.272393e-02
-2.619392e-02
-3.974897e-02
-5.271004e-02
-6.464799e-02
-7.546856e-02
-8.514024e-02
-9.360766e-02
-1.007607e-01
-1.064164e-01
-1.103080e-01
-1.121168e-01
-1.116942e-01
-1.099580e-01
-1.104328e-01
-1.158499e-01
0.000000e+00
-1.172109e-05
-2.664574e-05
-4.152137e-05
-4.941612e-05
-3.487225e-05
3.279190e-05
2.086308e-04
5.829686e-04
1.290348e-03
2.506301e-03
4.407160e-03
7.040573e-03
1.001646e-02
1.207211e-02
1.150831e-02
7.921716e-03
0.000000e+00
1.270590e-02
2.615205e-02
3.968200e-02
5.262674e-02
6.458023e-02
7.549484e-02
8.542395e-02
9.445365e-02
1.026887e-01
1.102366e-01
1.171534e-01
1.233188e-01
1.282628e-01
1.311711e-01
1.314017e-01
1.295813e-01
0.000000e+00
2.635904e-02
5.419785e-02
8.196829e-02
1.078894e-01
1.316909e-01
1.533633e-01
1.729504e-01
1.904930e-01
2.060222e-01
2.195516e-01
2.310480e-01
2.403793e-01
2.472782e-01
2.514191e-01
2.527637e-01
2.523391e-01
0.000000e+00
4.217144e-02
8.760463e-02
1.295629e-01
1.682192e-01
2.037075e-01
2.360728e-01
2.653032e-01
2.913540e-01
3.141502e-01
3.335835e-01
3.495196e-01
3.618309e-01
3.704769e-01
3.756344e-01
3.778338e-01
3.782377e-01
0.000000e+00
7.061731e-02
1.300519e-01
1.847624e-01
2.357365e-01
2.828556e-01
3.259803e-01
3.649854e-01
3.997403e-01
4.300645e-01
4.556950e-01
4.762902e-01
4.915117e-01
5.012399e-01
5.059445e-01
5.071058e-01
5.070834e-01
0.000000e+00
-4.272910e-02
-8.388217e-02
-1.372070e-01
-2.026521e-01
-2.800952e-01
-3.686880e-01
-4.674392e-01
-5.752986e-01
-6.912301e-01
-8.142766e-01
-9.436763e-01
-1.079117e+00
-1.221322e+00
-1.373981e+00
-1.548651e+00
-1.799619e+00
0.000000e+00
-2.630481e-02
-6.923423e-02
-1.232203e-01
-1.897350e-01
-2.682349e-01
-3.579011e-01
-4.577177e-01
-5.666225e-01
-6.835606e-01
-8.075485e-01
-9.377895e-01
-1.073923e+00
-1.216654e+00
-1.369253e+00
-1.542863e+00
-1.755553e+00
0.000000e+00
-1.984931e-02
-5.907954e-02
-1.132649e-01
-1.804085e-01
-2.597164e-01
-3.502067e-01
-4.508538e-01
-5.606028e-01
-6.784137e-01
-8.033220e-01
-9.345583e-01
-1.071797e+00
-1.215625e+00
-1.368355e+00
-1.532856e+00
-1.692059e+00
0.000000e+00
-1.710472e-02
-5.403068e-02
-1.074213e-01
-1.748077e-01
-2.546037e-01
-3.456582e-01
-4.469065e-01
-5.573135e-01
-6.758676e-01
-8.016249e-01
-9.338012e-01
-1.071915e+00
-1.215903e+00
-1.365578e+00
-1.516731e+00
-1.655978e+00
0.000000e+00
-1.631405e-02
-5.250265e-02
-1.055572e-01
-1.729619e-01
-2.529566e-01
-3.442728e-01
-4.458471e-01
-5.566639e-01
-6.757281e-01
-8.020748e-01
-9.347959e-01
-1.073033e+00
-1.215767e+00
-1.360862e+00
-1.503355e+00
-1.634626e+00
0.000000e+00
-1.709456e-02
-5.402345e-02
-1.074341e-01
-1.748708e-01
-2.547701e-01
-3.460142e-01
-4.475807e-01
-5.584758e-01
-6.776994e-01
-8.042244e-01
-9.369517e-01
-1.074597e+00
-1.215409e+00
-1.356683e+00
-1.494290e+00
-1.622759e+00
0.000000e+00
-1.983275e-02
-5.906756e-02
-1.132863e-01
-1.805149e-01
-2.599979e-01
-3.508102e-01
-4.519985e-01
-5.625789e-01
-6.815341e-01
-8.077679e-01
-9.400120e-01
-1.076673e+00
-1.215640e+00
-1.354175e+00
-1.489141e+00
-1.617525e+00
0.000000e+00
-2.628929e-02
-6.922380e-02
-1.232488e-01
-1.898628e-01
-2.685660e-01
-3.586035e-01
-4.590407e-01
-5.688924e-01
-6.871230e-01
-8.125911e-01
-9.439380e-01
-1.079435e+00
-1.216855e+00
-1.353547e+00
-1.487012e+00
-1.616296e+00
0.000000e+00
-4.272268e-02
-8.388307e-02
-1.372511e-01
-2.028002e-01
-2.804489e-01
-3.694068e-01
-4.687506e-01
-5.774850e-01
-6.945559e-01
-8.187946e-01
-9.488123e-01
-1.082868e+00
-1.218785e+00
-1.354081e+00
-1.486623e+00
-1.616316e+00


0.000000e+00
1.341090e-11
2.773572e-11
4.042705e-11
5.115042e-11
5.986230e-11
6.672500e-11
7.198569e-11
7.592171e-11
7.878917e-11
8.083224e-11
8.226596e-11
8.328821e-11
8.408252e-11
8.482110e-11
8.573128e-11
8.682324e-11
0.000000e+00
9.120508e-12
2.149398e-11
3.157701e-11
3.966668e-11
4.606113e-11
5.099680e-11
5.471931e-11
5.745191e-11
5.939698e-11
6.073179e-11
6.159836e-11
6.211055e-11
6.236276e-11
6.261840e-11
6.336292e-11
6.448718e-11
0.000000e+00
6.790671e-12
1.492985e-11
2.173155e-11
2.719879e-11
3.141996e-11
3.460089e-11
3.693724e-11
3.860549e-11
3.974386e-11
4.047258e-11
4.088492e-11
4.106893e-11
4.113982e-11
4.131934e-11
4.190239e-11
4.281241e-11
0.000000e+00
3.634614e-12
7.447312e-12
1.084964e-11
1.363375e-11
1.576230e-11
1.733473e-11
1.846329e-11
1.924269e-11
1.974681e-11
2.003953e-11
2.017947e-11
2.023629e-11
2.029917e-11
2.045640e-11
2.081104e-11
2.137179e-11
0.000000e+00
-3.356101e-15
-9.227242e-15
-1.723847e-14
-2.857534e-14
-4.538390e-14
-6.766071e-14
-1.004676e-13
-1.439289e-13
-1.989259e-13
-2.618269e-13
-3.161047e-13
-3.387929e-13
-3.022515e-13
-2.058671e-13
-3.509904e-14
2.569132e-13
0.000000e+00
-3.643195e-12
-7.464456e-12
-1.087977e-11
-1.368032e-11
-1.583342e-11
-1.744173e-11
-1.862004e-11
-1.946690e-11
-2.005786e-11
-2.045166e-11
-2.069444e-11
-2.081929e-11
-2.086090e-11
-2.085885e-11
-2.081664e-11
-2.069121e-11
0.000000e+00
-6.793993e-12
-1.494008e-11
-2.175112e-11
-2.723079e-11
-3.146675e-11
-3.466362e-11
-3.701867e-11
-3.870869e-11
-3.987441e-11
-4.064251e-11
-4.111529e-11
-4.138644e-11
-4.153205e-11
-4.161034e-11
-4.163733e-11
-4.160200e-11
0.000000e+00
-9.123925e-12
-2.150204e-11
-3.159129e-11
-3.968455e-11
-4.608203e-11
-5.101757e-11
-5.473258e-11
-5.744792e-11
-5.936473e-11
-6.066191e-11
-6.149719e-11
-6.200819e-11
-6.230474e-11
-6.246876e-11
-6.254341e-11
-6.255358e-11
0.000000e+00
-1.341750e-11
-2.774749e-11
-4.044042e-11
-5.116275e-11
-5.986895e-11
-6.671404e-11
-7.194587e-11
-7.583363e-11
-7.863096e-11
-8.057904e-11
-8.188002e-11
-8.271260e-11
-8.321074e-11
-8.347311e-11
-8.357446e-11
-8.359017e-11
0.000000e+00
1.218209e-11
2.189717e-11
3.209459e-11
4.433667e-11
5.875002e-11
7.503918e-11
9.282283e-11
1.117362e-10
1.314755e-10
1.518109e-10
1.725875e-10
1.937372e-10
2.154062e-10
2.381713e-10
2.623327e-10
2.868084e-10
0.000000e+00
6.549474e-12
1.604311e-11
2.692371e-11
4.009650e-11
5.540127e-11
7.247760e-11
9.091431e-11
1.103520e-10
1.305055e-10
1.511545e-10
1.721586e-10
1.934595e-10
2.151213e-10
2.374255e-10
2.609143e-10
2.849908e-10
0.000000e+00
3.230043e-12
1.144676e-11
2.288638e-11
3.681635e-11
5.285956e-11
7.056196e-11
8.950831e-11
1.093537e-10
1.298255e-10
1.507199e-10
1.719048e-10
1.933102e-10
2.148981e-10
2.366957e-10
2.594064e-10
2.828372e-10
0.000000e+00
1.837185e-12
9.277288e-12
2.076951e-11
3.509596e-11
5.154433e-11
6.958700e-11
8.880496e-11
1.088656e-10
1.295076e-10
1.505336e-10
1.718068e-10
1.932355e-10
2.147210e-10
2.362427e-10
2.583349e-10
2.809490e-10
0.000000e+00
1.483777e-12
8.685208e-12
2.012928e-11
3.456676e-11
5.114474e-11
6.929645e-11
8.860188e-11
1.087353e-10
1.294344e-10
1.505040e-10
1.717968e-10
1.932033e-10
2.146257e-10
2.360297e-10
2.577212e-10
2.796056e-10
0.000000e+00
1.840338e-12
9.281595e-12
2.077577e-11
3.510386e-11
5.155611e-11
6.960578e-11
8.883549e-11
1.089144e-10
1.295759e-10
1.506159e-10
1.718772e-10
1.932441e-10
2.146235e-10
2.359804e-10
2.574250e-10
2.788318e-10
0.000000e+00
3.234398e-12
1.145343e-11
2.289773e-11
3.683012e-11
5.288331e-11
7.060044e-11
8.956928e-11
1.094503e-10
1.299594e-10
1.508854e-10
1.720585e-10
1.933546e-10
2.146843e-10
2.359952e-10
2.572933e-10
2.784701e-10
0.000000e+00
6.557041e-12
1.605434e-11
2.694310e-11
4.011925e-11
5.543719e-11
7.253179e-11
9.099630e-11
1.104741e-10
1.306715e-10
1.513583e-10
1.723546e-10
1.935275e-10
2.147739e-10
2.360286e-10
2.572432e-10
2.783493e-10
0.000000e+00
1.219147e-11
2.191339e-11
3.211901e-11
4.436814e-11
5.879207e-11
7.509812e-11
9.290581e-11
1.118515e-10
1.316265e-10
1.519894e-10
1.727472e-10
1.937518e-10
2.148904e-10
2.360762e-10
2.572399e-10
2.783299e-10


2.062533e-01
2.062533e-01
2.062533e-01
2.062533e-01
2.062533e-01
2.062533e-01
2.062533e-01
2.062533e-01
2.062533e-01
2.062533e-01
2.062533e-01
2.062533e-01
2.062533e-01
2.062533e-01
2.062533e-01
2.062533e-01
2.062533e-01
2.062533e-01
2.062533e-01
2.062533e-01
2.062533e-01
2.062533e-01
2.062533e-01
2.062533e-01
2.062533e-01
2.062533e-01
2.062533e-01
2.062533e-01
2.062533e-01
2.062533e-01
2.062533e-01
2.062533e-01
2.062533e-01
2.062533e-01
2.062533e-01
2.062533e-01
2.062533e-01
2.062533e-01
2.062533e-01
2.062533e-01
2.062533e-01
2.062533e-01
2.062533e-01
2.062533e-01
2.062533e-01
2.062533e-01
2.062533e-01
2.062533e-01
2.062533e-01
2.062533e-01
2.062533e-01
2.062533e-01
2.062533e-01
2.062533e-01
2.062533e-01
2.062533e-01
2.062533e-01
2.062533e-01
2.062533e-01
2.062533e-01
2.062533e-01
2.062533e-01
2.062533e-01
2.062533e-01
2.062533e-01
2.062533e-01
2.062533e-01
2.062533e-01
2.062533e-01
2.062533e-01
2.062533e-01
2.062533e-01
2.062533e-01
2.062533e-01
2.062533e-01
2.062533e-01
2.062533e-01
2.062533e-01
2.062533e-01
2.062533e-01
2.062533e-01
2.062533e-01
2.062533e-01
2.062533e-01
2.062533e-01
2.062533e-01
2.062533e-01
2.062533e-01
2.062533e-01
2.062533e-01
2.062533e-01
2.062533e-01
2.062533e-01
2.062533e-01
2.062533e-01
2.062533e-01
2.062533e-01
2.062533e-01
2.062533e-01
2.062533e-01
2.062533e-01
2.062533e-01
2.062533e-01
2.062533e-01
2.062533e-01
2.062533e-01
2.062533e-01
2.062533e-01
2.062533e-01
2.062533e-01
2.062533e-01
2.062533e-01
2.062533e-01
2.062533e-01
2.062533e-01
2.062533e-01
2.062533e-01
2.062533e-01
2.062533e-01
2.062533e-01
2.062533e-01
2.062533e-01
2.062533e-01
2.062533e-01
2.062533e-01
2.062533e-01
2.062533e-01
2.062533e-01


9.887897e-01
9.903794e-01
9.918500e-01
9.929821e-01
9.940329e-01
9.950018e-01
9.958845e-01
9.966708e-01
9.973522e-01
9.979221e-01
9.983753e-01
9.987073e-01
9.989137e-01
9.989873e-01
9.990404e-01
9.957643e-01
9.957589e-01
9.950304e-01
9.954991e-01
9.961109e-01
9.966812e-01
9.971995e-01
9.976688e-01
9.980938e-01
9.984786e-01
9.988272e-01
9.991435e-01
9.994298e-01
9.996797e-01
9.998433e-01
9.994296e-01
9.938214e-01
9.985264e-01
9.981080e-01
9.979951e-01
9.981540e-01
9.983630e-01
9.985654e-01
9.987534e-01
9.989310e-01
9.991030e-01
9.992708e-01
9.994275e-01
9.995487e-01
9.995741e-01
9.993556e-01
9.985632e-01
9.971380e-01
9.997001e-01
9.993949e-01
9.992064e-01
9.991586e-01
9.991777e-01
9.992098e-01
9.992417e-01
9.992730e-01
9.993037e-01
9.993294e-01
9.993365e-01
9.992983e-01
9.991772e-01
9.989597e-01
9.987753e-01
9.987286e-01
9.997012e-01
9.993965e-01
9.992079e-01
9.991583e-01
9.991730e-01
9.991961e-01
9.992121e-01
9.992175e-01
9.992101e-01
9.991865e-01
9.991425e-01
9.990791e-01
9.990187e-01
9.990307e-01
9.992014e-01
9.994968e-01
9.985285e-01
9.981112e-01
9.979981e-01
9.981540e-01
9.983548e-01
9.985404e-01
9.986973e-01
9.988235e-01
9.989180e-01
9.989816e-01
9.990218e-01
9.990612e-01
9.991438e-01
9.993170e-01
9.995772e-01
9.998462e-01
9.957585e-01
9.950301e-01
9.954985e-01
9.961091e-01
9.966767e-01
9.971893e-01
9.976476e-01
9.980534e-01
9.984070e-01
9.987093e-01
9.989652e-01
9.991886e-01
9.994038e-01
9.996294e-01
9.998404e-01
9.999733e-01
9.887821e-01
9.903674e-01
9.918353e-01
9.929656e-01
9.940181e-01
9.949964e-01
9.959028e-01
9.967350e-01
9.974933e-01
9.981762e-01
9.987756e-01
9.992728e-01
9.996427e-01
9.998709e-01
9.999747e-01
9.999995e-01
1 2 19 18
2 3 20 19
3 4 21 20
4 5 22 21
5 6 23 22
6 7 24 23
7 8 25 24
8 9 26 25
9 10 27 26
10 11 28 27
11 12 29 28
12 13 30 29
13 14 31 30
14 15 32 31
15 16 33 32
16 17 34 33
18 19 36 35
19 20 37 36
20 21 38 37
21 22 39 38
22 23 40 39
23 24 41 40
24 25 42 41
25 26 43 42
26 27 44 43
27 28 45 44
28 29 46 45
29 30 47 46
30 31 48 47
31 32 49 48
32 33 50 49
33 34 51 50
35 36 53 52
36 37 54 53
37 38 55 54
38 39 56 55
39 40 57 56
40 41 58 57
41 42 59 58
42 43 60 59
43 44 61 60
44 45 62 61
45 46 63 62
46 47 64 63
47 48 65 64
48 49 66 65
49 50 67 66
50 51 68 67
52 53 70 69
53 54 71 70
54 55 72 71
55 56 73 72
56 57 74 73
57 58 75 74
58 59 76 75
59 60 77 76
60 61 78 77
61 62 79 78
62 63 80 79
63 64 81 80
64 65 82 81
65 66 83 82
66 67 84 83
67 68 85 84
69 70 87 86
70 71 88 87
71 72 89 88
72 73 90 89
73 74 91 90
74 75 92 91
75 76 93 92
76 77 94 93
77 78 95 94
78 79 96 95
79 80 97 96
80 81 98 97
81 82 99 98
82 83 100 99
83 84 101 100
84 85 102 101
86 87 104 103
87 88 105 104
88 89 106 105
89 90 107 106
90 91 108 107
91 92 109 108
92 93 110 109
93 94 111 110
94 95 112 111
95 96 113 112
96 97 114 113
97 98 115 114
98 99 116 115
99 100 117 116
100 101 118 117
101 102 119 118
103 104 121 120
104 105 122 121
105 106 123 122
106 107 124 123
107 108 125 124
108 109 126 125
109 110 127 126
110 111 128 127
111 112 129 128
112 113 130 129
113 114 131 130
114 115 132 131
115 116 133 132
116 117 134 133
117 118 135 134
118 119 136 135
120 121 138 137
121 122 139 138
122 123 140 139
123 124 141 140
124 125 142 141
125 126 143 142
126 127 144 143
127 128 145 144
128 129 146 145
129 130 147 146
130 131 148 147
131 132 149 148
132 133 150 149
133 134 151 150
134 135 152 151
135 136 153 152
