TITLE = "Solution"
VARIABLES = x, y, u, v, psiu, psiv, t, stress
ZONE T="structure" N=153 E=128 F=FEBLOCK ET=QUADRILATERAL VARLOCATION=([7,8]=cellcentered)
0.000000e+00
1.250000e+01
2.500000e+01
3.750000e+01
5.000000e+01
6.250000e+01
7.500000e+01
8.750000e+01
1.000000e+02
1.125000e+02
1.250000e+02
1.375000e+02
1.500000e+02
1.625000e+02
1.750000e+02
1.875000e+02
2.000000e+02
0.000000e+00
1.250000e+01
2.500000e+01
3.750000e+01
5.000000e+01
6.250000e+01
7.500000e+01
8.750000e+01
1.000000e+02
1.125000e+02
1.250000e+02
1.375000e+02
1.500000e+02
1.625000e+02
1.750000e+02
1.875000e+02
2.000000e+02
0.000000e+00
1.250000e+01
2.500000e+01
3.750000e+01
5.000000e+01
6.250000e+01
7.500000e+01
8.750000e+01
1.000000e+02
1.125000e+02
1.250000e+02
1.375000e+02
1.500000e+02
1.625000e+02
1.750000e+02
1.875000e+02
2.000000e+02
0.000000e+00
1.250000e+01
2.500000e+01
3.750000e+01
5.000000e+01
6.250000e+01
7.500000e+01
8.750000e+01
1.000000e+02
1.125000e+02
1.250000e+02
1.375000e+02
1.500000e+02
1.625000e+02
1.750000e+02
1.875000e+02
2.000000e+02
0.000000e+00
1.250000e+01
2.500000e+01
3.750000e+01
5.000000e+01
6.250000e+01
7.500000e+01
8.750000e+01
1.000000e+02
1.125000e+02
1.250000e+02
1.375000e+02
1.500000e+02
1.625000e+02
1.750000e+02
1.875000e+02
2.000000e+02
0.000000e+00
1.250000e+01
2.500000e+01
3.750000e+01
5.000000e+01
6.250000e+01
7.500000e+01
8.750000e+01
1.000000e+02
1.125000e+02
1.250000e+02
1.375000e+02
1.500000e+02
1.625000e+02
1.750000e+02
1.875000e+02
2.000000e+02
0.000000e+00
1.250000e+01
2.500000e+01
3.750000e+01
5.000000e+01
6.250000e+01
7.500000e+01
8.750000e+01
1.000000e+02
1.125000e+02
1.250000e+02
1.375000e+02
1.500000e+02
1.625000e+02
1.750000e+02
1.875000e+02
2.000000e+02
0.000000e+00
1.250000e+01
2.500000e+01
3.750000e+01
5.000000e+01
6.250000e+01
7.500000e+01
8.750000e+01
1.000000e+02
1.125000e+02
1.250000e+02
1.375000e+02
1.500000e+02
1.625000e+02
1.750000e+02
1.875000e+02
2.000000e+02
0.000000e+00
1.250000e+01
2.500000e+01
3.750000e+01
5.000000e+01
6.250000e+01
7.500000e+01
8.750000e+01
1.000000e+02
1.125000e+02
1.250000e+02
1.375000e+02
1.500000e+02
1.625000e+02
1.750000e+02
1.875000e+02
2.000000e+02
0.000000e+00
0.000000e+00
0.000000e+00
0.000000e+00
0.000000e+00
0.000000e+00
0.000000e+00
0.000000e+00
0.000000e+00
0.000000e+00
0.000000e+00
0.000000e+00
0.000000e+00
0.000000e+00
0.000000e+00
0.000000e+00
0.000000e+00
1.250000e+01
1.250000e+01
1.250000e+01
1.250000e+01
1.250000e+01
1.250000e+01
1.250000e+01
1.250000e+01
1.250000e+01
1.250000e+01
1.250000e+01
1.250000e+01
1.250000e+01
1.250000e+01
1.250000e+01
1.250000e+01
1.250000e+01
2.500000e+01
2.500000e+01
2.500000e+01
2.500000e+01
2.500000e+01
2.500000e+01
2.500000e+01
2.500000e+01
2.500000e+01
2.500000e+01
2.500000e+01
2.500000e+01
2.500000e+01
2.500000e+01
2.500000e+01
2.500000e+01
2.500000e+01
3.750000e+01
3.750000e+01
3.750000e+01
3.750000e+01
3.750000e+01
3.750000e+01
3.750000e+01
3.750000e+01
3.750000e+01
3.750000e+01
3.750000e+01
3.750000e+01
3.750000e+01
3.750000e+01
3.750000e+01
3.750000e+01
3.750000e+01
5.000000e+01
5.000000e+01
5.000000e+01
5.000000e+01
5.000000e+01
5.000000e+01
5.000000e+01
5.000000e+01
5.000000e+01
5.000000e+01
5.000000e+01
5.000000e+01
5.000000e+01
5.000000e+01
5.000000e+01
5.000000e+01
5.000000e+01
6.250000e+01
6.250000e+01
6.250000e+01
6.250000e+01
6.250000e+01
6.250000e+01
6.250000e+01
6.250000e+01
6.250000e+01
6.250000e+01
6.250000e+01
6.250000e+01
6.250000e+01
6.250000e+01
6.250000e+01
6.250000e+01
6.250000e+01
7.500000e+01
7.500000e+01
7.500000e+01
7.500000e+01
7.500000e+01
7.500000e+01
7.500000e+01
7.500000e+01
7.500000e+01
7.500000e+01
7.500000e+01
7.500000e+01
7.500000e+01
7.500000e+01
7.500000e+01
7.500000e+01
7.500000e+01
8.750000e+01
8.750000e+01
8.750000e+01
8.750000e+01
8.750000e+01
8.750000e+01
8.750000e+01
8.750000e+01
8.750000e+01
8.750000e+01
8.750000e+01
8.750000e+01
8.750000e+01
8.750000e+01
8.750000e+01
8.750000e+01
8.750000e+01
1.000000e+02
1.000000e+02
1.000000e+02
1.000000e+02
1.000000e+02
1.000000e+02
1.000000e+02
1.000000e+02
1.000000e+02
1.000000e+02
1.000000e+02
1.000000e+02
1.000000e+02
1.000000e+02
1.000000e+02
1.000000e+02
1.000000e+02
0.000000e+00
-9.960352e-01
-1.678950e+00
-2.431183e+00
-3.117341e+00
-3.750336e+00
-4.458295e+00
-5.087154e+00
-5.763213e+00
-6.405564e+00
-7.055479e+00
-7.723541e+00
-8.376396e+00
-9.146363e+00
-1.007743e+01
-1.083395e+01
-1.128406e+01
0.000000e+00
-4.460361e-01
-9.064255e-01
-1.419027e+00
-1.930689e+00
-2.410640e+00
-2.924787e+00
-3.423005e+00
-3.918937e+00
-4.421435e+00
-4.913880e+00
-5.416892e+00
-5.901745e+00
-6.421359e+00
-6.897716e+00
-7.024057e+00
-7.202949e+00
0.000000e+00
-1.460872e-01
-3.488021e-01
-6.395399e-01
-9.775320e-01
-1.302537e+00
-1.655640e+00
-2.012852e+00
-2.356330e+00
-2.718586e+00
-3.057373e+00
-3.391723e+00
-3.687421e+00
-3.927368e+00
-4.036631e+00
-4.034659e+00
-4.183076e+00
0.000000e+00
-7.898961e-02
-1.621089e-01
-3.096564e-01
-4.549133e-01
-6.281472e-01
-8.139777e-01
-9.790511e-01
-1.166913e+00
-1.328817e+00
-1.489885e+00
-1.628952e+00
-1.722367e+00
-1.730544e+00
-1.656886e+00
-1.635928e+00
-1.752965e+00
0.000000e+00
-3.323193e-03
-7.233169e-03
-1.130375e-02
-1.569841e-02
-1.914122e-02
-2.004081e-02
-1.730919e-02
-8.560795e-03
8.294655e-03
3.271032e-02
7.768543e-02
1.602084e-01
2.751223e-01
3.949299e-01
4.358203e-01
3.376384e-01
0.000000e+00
7.317664e-02
1.503888e-01
2.905706e-01
4.290595e-01
5.954887e-01
7.744471e-01
9.425330e-01
1.148641e+00
1.343792e+00
1.561807e+00
1.782093e+00
2.008786e+00
2.216312e+00
2.352106e+00
2.385015e+00
2.319334e+00
0.000000e+00
1.437196e-01
3.434975e-01
6.305042e-01
9.655717e-01
1.290817e+00
1.643042e+00
1.999661e+00
2.358946e+00
2.764583e+00
3.143575e+00
3.510534e+00
3.843349e+00
4.119093e+00
4.295877e+00
4.350528e+00
4.327862e+00
0.000000e+00
4.467583e-01
9.071554e-01
1.419533e+00
1.930495e+00
2.408992e+00
2.920058e+00
3.415643e+00
3.903231e+00
4.396687e+00
4.874974e+00
5.350097e+00
5.777881e+00
6.125555e+00
6.342639e+00
6.438461e+00
6.456173e+00
0.000000e+00
9.983440e-01
1.684034e+00
2.440033e+00
3.128154e+00
3.761639e+00
4.468643e+00
5.095621e+00
5.747595e+00
6.331580e+00
6.905108e+00
7.505994e+00
8.035834e+00
8.447899e+00
8.649137e+00
8.701874e+00
8.702405e+00
0.000000e+00
-6.187973e-01
-1.361850e+00
-2.363303e+00
-3.537498e+00
-4.881005e+00
-6.412546e+00
-8.098678e+00
-9.959160e+00
-1.198267e+01
-1.416743e+01
-1.651831e+01
-1.903196e+01
-2.176307e+01
-2.472729e+01
-2.808671e+01
-3.310236e+01
0.000000e+00
-4.159703e-01
-1.193530e+00
-2.177063e+00
-3.368462e+00
-4.706898e+00
-6.234978e+00
-7.930109e+00
-9.782835e+00
-1.181512e+01
-1.399513e+01
-1.635060e+01
-1.885909e+01
-2.157041e+01
-2.458709e+01
-2.800296e+01
-3.205277e+01
0.000000e+00
-3.904326e-01
-1.091696e+00
-2.073655e+00
-3.249375e+00
-4.580927e+00
-6.115300e+00
-7.800246e+00
-9.663862e+00
-1.169327e+01
-1.388447e+01
-1.625131e+01
-1.877002e+01
-2.150815e+01
-2.457711e+01
-2.785109e+01
-3.088359e+01
0.000000e+00
-4.494196e-01
-1.088074e+00
-2.047519e+00
-3.186983e+00
-4.511290e+00
-6.053748e+00
-7.723503e+00
-9.606276e+00
-1.163456e+01
-1.384754e+01
-1.623425e+01
-1.877851e+01
-2.151849e+01
-2.450744e+01
-2.754142e+01
-3.016729e+01
0.000000e+00
-4.563337e-01
-1.110486e+00
-2.031959e+00
-3.172591e+00
-4.501695e+00
-6.032142e+00
-7.721846e+00
-9.595987e+00
-1.164669e+01
-1.387413e+01
-1.626803e+01
-1.881978e+01
-2.151965e+01
-2.435682e+01
-2.717485e+01
-2.956277e+01
0.000000e+00
-4.481607e-01
-1.087753e+00
-2.049612e+00
-3.193977e+00
-4.528492e+00
-6.081369e+00
-7.760240e+00
-9.658079e+00
-1.171229e+01
-1.394452e+01
-1.632019e+01
-1.885068e+01
-2.150968e+01
-2.422189e+01
-2.685507e+01
-2.912438e+01
0.000000e+00
-3.887554e-01
-1.091712e+00
-2.078488e+00
-3.263210e+00
-4.610249e+00
-6.161090e+00
-7.869541e+00
-9.763037e+00
-1.182864e+01
-1.403091e+01
-1.638748e+01
-1.888987e+01
-2.150958e+01
-2.413950e+01
-2.664785e+01
-2.889062e+01
0.000000e+00
-4.144183e-01
-1.193644e+00
-2.182766e+00
-3.384726e+00
-4.738151e+00
-6.286062e+00
-8.010611e+00
-9.901593e+00
-1.196594e+01
-1.414594e+01
-1.648603e+01
-1.896701e+01
-2.155112e+01
-2.411901e+01
-2.656030e+01
-2.883014e+01
0.000000e+00
-6.178317e-01
-1.362589e+00
-2.369707e+00
-3.554161e+00
-4.912110e+00
-6.464331e+00
-8.178881e+00
-1.007434e+01
-1.212135e+01
-1.430110e+01
-1.663421e+01
-1.909063e+01
-2.163313e+01
-2.414363e+01
-2.654542e+01
-2.882900e+01


0.000000e+00
1.541823e-05
2.508105e-05
3.749408e-05
5.358510e-05
6.716535e-05
8.318847e-05
9.713157e-05
1.118706e-04
1.257456e-04
1.408899e-04
1.552393e-04
1.717918e-04
1.876176e-04
1.977099e-04
2.034563e-04
2.103897e-04
0.000000e+00
1.145707e-05
1.973577e-05
2.841666e-05
4.099153e-05
5.172443e-05
6.185365e-05
7.296510e-05
8.316895e-05
9.458334e-05
1.052348e-04
1.156324e-04
1.264889e-04
1.358478e-04
1.374609e-04
1.412154e-04
1.470379e-04
0.000000e+00
9.527824e-06
1.502538e-05
2.021451e-05
2.884486e-05
3.555226e-05
4.128415e-05
4.863252e-05
5.460343e-05
6.197692e-05
6.837620e-05
7.405338e-05
7.876444e-05
8.095016e-05
8.020197e-05
8.257770e-05
8.680896e-05
0.000000e+00
5.186985e-06
6.843875e-06
9.624596e-06
1.306370e-05
1.351966e-05
1.587639e-05
1.725431e-05
2.089683e-05
2.431863e-05
2.806826e-05
2.913250e-05
2.854873e-05
2.712344e-05
2.684127e-05
2.987351e-05
3.554441e-05
0.000000e+00
-1.759822e-07
-4.385419e-07
-8.629432e-07
-1.737223e-06
-2.900944e-06
-5.021029e-06
-7.269842e-06
-7.842783e-06
-7.895135e-06
-8.831806e-06
-1.196487e-05
-1.470747e-05
-1.614627e-05
-1.582105e-05
-1.366961e-05
-9.679811e-06
0.000000e+00
-5.452420e-06
-7.435961e-06
-1.076023e-05
-1.467024e-05
-1.609145e-05
-2.056858e-05
-2.432858e-05
-3.029862e-05
-3.345102e-05
-3.760139e-05
-4.224232e-05
-4.738559e-05
-4.918234e-05
-4.972317e-05
-5.018762e-05
-4.844989e-05
0.000000e+00
-9.526559e-06
-1.509199e-05
-2.038334e-05
-2.894529e-05
-3.534584e-05
-4.075308e-05
-4.874628e-05
-5.592554e-05
-6.365108e-05
-6.892061e-05
-7.392513e-05
-7.806918e-05
-8.166933e-05
-8.356853e-05
-8.548495e-05
-8.623064e-05
0.000000e+00
-1.138550e-05
-1.964725e-05
-2.831070e-05
-4.076460e-05
-5.166798e-05
-6.160717e-05
-7.279784e-05
-8.319093e-05
-9.458598e-05
-1.052166e-04
-1.136117e-04
-1.183979e-04
-1.234388e-04
-1.270588e-04
-1.283671e-04
-1.284624e-04
0.000000e+00
-1.542851e-05
-2.502124e-05
-3.734006e-05
-5.337351e-05
-6.699043e-05
-8.288157e-05
-9.585471e-05
-1.100104e-04
-1.232869e-04
-1.409478e-04
-1.567959e-04
-1.666259e-04
-1.718545e-04
-1.740577e-04
-1.742813e-04
-1.741024e-04
0.000000e+00
1.259599e-05
1.999685e-05
3.243360e-05
4.873618e-05
6.685573e-05
9.128661e-05
1.201079e-04
1.534081e-04
1.901373e-04
2.302973e-04
2.743037e-04
3.242232e-04
3.783576e-04
4.399013e-04
5.107612e-04
5.841707e-04
0.000000e+00
7.679755e-06
1.610645e-05
2.633196e-05
4.227526e-05
6.089516e-05
8.482606e-05
1.142395e-04
1.471627e-04
1.840206e-04
2.239582e-04
2.680939e-04
3.176520e-04
3.734103e-04
4.346450e-04
5.033807e-04
5.738189e-04
0.000000e+00
4.325320e-06
1.228892e-05
2.172256e-05
3.645268e-05
5.567294e-05
7.940238e-05
1.097329e-04
1.430028e-04
1.795313e-04
2.193718e-04
2.635535e-04
3.138680e-04
3.710135e-04
4.304953e-04
4.959028e-04
5.641381e-04
0.000000e+00
3.198485e-06
1.058770e-05
2.008207e-05
3.450639e-05
5.199795e-05
7.640151e-05
1.087364e-04
1.435478e-04
1.780918e-04
2.173354e-04
2.619078e-04
3.131079e-04
3.695982e-04
4.277578e-04
4.880702e-04
5.499820e-04
0.000000e+00
2.810030e-06
1.026484e-05
2.004111e-05
3.423851e-05
5.070513e-05
7.528442e-05
1.097817e-04
1.447496e-04
1.780124e-04
2.155459e-04
2.618399e-04
3.133216e-04
3.697426e-04
4.266150e-04
4.816893e-04
5.338545e-04
0.000000e+00
3.342383e-06
1.077912e-05
2.046021e-05
3.484857e-05
5.180113e-05
7.717120e-05
1.106706e-04
1.453665e-04
1.778452e-04
2.159326e-04
2.632917e-04
3.156613e-04
3.700774e-04
4.265215e-04
4.793680e-04
5.228194e-04
0.000000e+00
4.479541e-06
1.251856e-05
2.207039e-05
3.673317e-05
5.575798e-05
8.038617e-05
1.117402e-04
1.447132e-04
1.789526e-04
2.181920e-04
2.664985e-04
3.191540e-04
3.721884e-04
4.256169e-04
4.766156e-04
5.193360e-04
0.000000e+00
7.804738e-06
1.634425e-05
2.663542e-05
4.253625e-05
6.131017e-05
8.579883e-05
1.159134e-04
1.481838e-04
1.832494e-04
2.228125e-04
2.702756e-04
3.222016e-04
3.743939e-04
4.257694e-04
4.745916e-04
5.197940e-04
0.000000e+00
1.270959e-05
2.023483e-05
3.272673e-05
4.907920e-05
6.739791e-05
9.233155e-05
1.215697e-04
1.543819e-04
1.894097e-04
2.300807e-04
2.746412e-04
3.245090e-04
3.755487e-04
4.260918e-04
4.741080e-04
5.200573e-04


5.681643e+00
6.142455e+00
6.868695e+00
5.943807e+00
5.770748e+00
6.634211e+00
6.474243e+00
6.454296e+00
5.976303e+00
5.906569e+00
6.285733e+00
7.152141e+00
8.849314e+00
9.831203e+00
9.152097e+00
8.003085e+00
8.087035e+00
8.463163e+00
8.663109e+00
8.359045e+00
8.254210e+00
8.537081e+00
8.696453e+00
8.434956e+00
8.405311e+00
8.271853e+00
8.418832e+00
8.845867e+00
9.508013e+00
9.843841e+00
8.396116e+00
6.475116e+00
9.844166e+00
9.824311e+00
9.999965e+00
9.838380e+00
9.836713e+00
9.974636e+00
9.836342e+00
9.949423e+00
9.849685e+00
9.881517e+00
9.899305e+00
9.877039e+00
9.895312e+00
9.396566e+00
8.001476e+00
6.192761e+00
9.999983e+00
9.999983e+00
9.999982e+00
9.999981e+00
9.999979e+00
9.999974e+00
9.999969e+00
9.999969e+00
9.999972e+00
9.999971e+00
9.999960e+00
9.484103e+00
8.832262e+00
8.374407e+00
7.993590e+00
7.922797e+00
9.999983e+00
9.999982e+00
9.999982e+00
9.999980e+00
9.999976e+00
9.999967e+00
9.935251e+00
9.963443e+00
9.999939e+00
9.919811e+00
9.361603e+00
8.595086e+00
7.709288e+00
7.748079e+00
8.656313e+00
9.171586e+00
9.844660e+00
9.824278e+00
9.999963e+00
9.838277e+00
9.836498e+00
9.717723e+00
9.305359e+00
9.523861e+00
9.388424e+00
8.876522e+00
8.313473e+00
7.900293e+00
8.200868e+00
8.755903e+00
9.450072e+00
9.999938e+00
8.089897e+00
8.464428e+00
8.662586e+00
8.357635e+00
8.176047e+00
8.090447e+00
7.933942e+00
7.833333e+00
7.921896e+00
7.355534e+00
7.491784e+00
8.493269e+00
9.292533e+00
9.848419e+00
9.999964e+00
9.999979e+00
5.688767e+00
6.144857e+00
6.867840e+00
5.936988e+00
5.746116e+00
6.315453e+00
6.124533e+00
6.591923e+00
6.344409e+00
6.553659e+00
7.879630e+00
9.117991e+00
9.987107e+00
9.999972e+00
9.999981e+00
9.999984e+00


-8.193802e-01
-1.668219e-01
-3.975800e-01
-2.587468e-01
-9.237753e-02
-3.076629e-01
-1.231188e-01
-2.097663e-01
-1.619217e-01
-1.576362e-01
-2.154388e-01
-1.496524e-01
-4.612974e-01
-6.862556e-01
3.157039e-01
-8.469546e-01
6.106815e-01
4.816755e-01
2.951134e-01
2.251785e-01
2.911988e-01
1.679626e-01
1.749854e-01
1.734106e-01
1.093674e-01
1.484291e-01
1.278232e-01
2.413432e-01
3.024762e-01
5.092184e-01
6.953421e-01
-9.344230e-01
7.226216e-01
4.716778e-01
5.631285e-02
-2.271332e-02
-3.592433e-02
-1.892348e-01
-8.013764e-02
-1.382598e-01
-7.757816e-02
-1.906167e-02
3.115244e-02
1.853588e-01
2.782485e-01
1.479529e-01
-2.538249e-02
-1.678294e-01
7.278877e-01
5.564672e-01
1.927569e-01
6.131732e-02
-2.202371e-02
-1.072176e-01
-1.626036e-02
-6.227141e-02
1.309465e-02
1.668107e-02
5.852997e-02
1.174010e-01
5.885174e-02
-2.622901e-01
-3.841113e-01
-7.822635e-02
7.307885e-01
5.604176e-01
2.007706e-01
6.951022e-02
-1.800174e-02
-1.131780e-01
-3.626068e-02
-1.030493e-01
-5.259978e-02
-4.397858e-02
2.064265e-02
1.370533e-02
-3.779206e-02
-1.298076e-01
-1.028468e-01
3.104082e-01
7.294275e-01
4.819129e-01
7.438831e-02
-4.751790e-03
-2.373177e-02
-1.628115e-01
-7.286836e-02
-1.875519e-01
-1.820541e-01
-1.090345e-01
-7.752578e-02
-9.791061e-02
-1.116339e-01
4.546387e-02
3.339921e-01
7.245143e-01
6.147558e-01
4.875800e-01
3.025465e-01
2.301435e-01
2.873048e-01
1.614159e-01
1.521797e-01
1.037931e-01
-5.782919e-02
-3.986634e-02
-9.626663e-02
-5.627001e-02
5.736715e-02
3.652120e-01
7.128506e-01
9.478991e-01
-8.251496e-01
-1.721949e-01
-4.052577e-01
-2.618984e-01
-9.141462e-02
-3.017459e-01
-1.191444e-01
-1.574122e-01
-5.594600e-02
-2.197590e-02
-9.261553e-02
1.006647e-01
3.878844e-01
7.721591e-01
9.528996e-01
9.987355e-01
1 2 19 18
2 3 20 19
3 4 21 20
4 5 22 21
5 6 23 22
6 7 24 23
7 8 25 24
8 9 26 25
9 10 27 26
10 11 28 27
11 12 29 28
12 13 30 29
13 14 31 30
14 15 32 31
15 16 33 32
16 17 34 33
18 19 36 35
19 20 37 36
20 21 38 37
21 22 39 38
22 23 40 39
23 24 41 40
24 25 42 41
25 26 43 42
26 27 44 43
27 28 45 44
28 29 46 45
29 30 47 46
30 31 48 47
31 32 49 48
32 33 50 49
33 34 51 50
35 36 53 52
36 37 54 53
37 38 55 54
38 39 56 55
39 40 57 56
40 41 58 57
41 42 59 58
42 43 60 59
43 44 61 60
44 45 62 61
45 46 63 62
46 47 64 63
47 48 65 64
48 49 66 65
49 50 67 66
50 51 68 67
52 53 70 69
53 54 71 70
54 55 72 71
55 56 73 72
56 57 74 73
57 58 75 74
58 59 76 75
59 60 77 76
60 61 78 77
61 62 79 78
62 63 80 79
63 64 81 80
64 65 82 81
65 66 83 82
66 67 84 83
67 68 85 84
69 70 87 86
70 71 88 87
71 72 89 88
72 73 90 89
73 74 91 90
74 75 92 91
75 76 93 92
76 77 94 93
77 78 95 94
78 79 96 95
79 80 97 96
80 81 98 97
81 82 99 98
82 83 100 99
83 84 101 100
84 85 102 101
86 87 104 103
87 88 105 104
88 89 106 105
89 90 107 106
90 91 108 107
91 92 109 108
92 93 110 109
93 94 111 110
94 95 112 111
95 96 113 112
96 97 114 113
97 98 115 114
98 99 116 115
99 100 117 116
100 101 118 117
101 102 119 118
103 104 121 120
104 105 122 121
105 106 123 122
106 107 124 123
107 108 125 124
108 109 126 125
109 110 127 126
110 111 128 127
111 112 129 128
112 113 130 129
113 114 131 130
114 115 132 131
115 116 133 132
116 117 134 133
117 118 135 134
118 119 136 135
120 121 138 137
121 122 139 138
122 123 140 139
123 124 141 140
124 125 142 141
125 126 143 142
126 127 144 143
127 128 145 144
128 129 146 145
129 130 147 146
130 131 148 147
131 132 149 148
132 133 150 149
133 134 151 150
134 135 152 151
135 136 153 152
