TITLE = "Solution"
VARIABLES = x, y, u, v, psiu, psiv, t, stress
ZONE T="structure" N=153 E=128 F=FEBLOCK ET=QUADRILATERAL VARLOCATION=([7,8]=cellcentered)
0.000000e+00
1.250000e+01
2.500000e+01
3.750000e+01
5.000000e+01
6.250000e+01
7.500000e+01
8.750000e+01
1.000000e+02
1.125000e+02
1.250000e+02
1.375000e+02
1.500000e+02
1.625000e+02
1.750000e+02
1.875000e+02
2.000000e+02
0.000000e+00
1.250000e+01
2.500000e+01
3.750000e+01
5.000000e+01
6.250000e+01
7.500000e+01
8.750000e+01
1.000000e+02
1.125000e+02
1.250000e+02
1.375000e+02
1.500000e+02
1.625000e+02
1.750000e+02
1.875000e+02
2.000000e+02
0.000000e+00
1.250000e+01
2.500000e+01
3.750000e+01
5.000000e+01
6.250000e+01
7.500000e+01
8.750000e+01
1.000000e+02
1.125000e+02
1.250000e+02
1.375000e+02
1.500000e+02
1.625000e+02
1.750000e+02
1.875000e+02
2.000000e+02
0.000000e+00
1.250000e+01
2.500000e+01
3.750000e+01
5.000000e+01
6.250000e+01
7.500000e+01
8.750000e+01
1.000000e+02
1.125000e+02
1.250000e+02
1.375000e+02
1.500000e+02
1.625000e+02
1.750000e+02
1.875000e+02
2.000000e+02
0.000000e+00
1.250000e+01
2.500000e+01
3.750000e+01
5.000000e+01
6.250000e+01
7.500000e+01
8.750000e+01
1.000000e+02
1.125000e+02
1.250000e+02
1.375000e+02
1.500000e+02
1.625000e+02
1.750000e+02
1.875000e+02
2.000000e+02
0.000000e+00
1.250000e+01
2.500000e+01
3.750000e+01
5.000000e+01
6.250000e+01
7.500000e+01
8.750000e+01
1.000000e+02
1.125000e+02
1.250000e+02
1.375000e+02
1.500000e+02
1.625000e+02
1.750000e+02
1.875000e+02
2.000000e+02
0.000000e+00
1.250000e+01
2.500000e+01
3.750000e+01
5.000000e+01
6.250000e+01
7.500000e+01
8.750000e+01
1.000000e+02
1.125000e+02
1.250000e+02
1.375000e+02
1.500000e+02
1.625000e+02
1.750000e+02
1.875000e+02
2.000000e+02
0.000000e+00
1.250000e+01
2.500000e+01
3.750000e+01
5.000000e+01
6.250000e+01
7.500000e+01
8.750000e+01
1.000000e+02
1.125000e+02
1.250000e+02
1.375000e+02
1.500000e+02
1.625000e+02
1.750000e+02
1.875000e+02
2.000000e+02
0.000000e+00
1.250000e+01
2.500000e+01
3.750000e+01
5.000000e+01
6.250000e+01
7.500000e+01
8.750000e+01
1.000000e+02
1.125000e+02
1.250000e+02
1.375000e+02
1.500000e+02
1.625000e+02
1.750000e+02
1.875000e+02
2.000000e+02
0.000000e+00
0.000000e+00
0.000000e+00
0.000000e+00
0.000000e+00
0.000000e+00
0.000000e+00
0.000000e+00
0.000000e+00
0.000000e+00
0.000000e+00
0.000000e+00
0.000000e+00
0.000000e+00
0.000000e+00
0.000000e+00
0.000000e+00
1.250000e+01
1.250000e+01
1.250000e+01
1.250000e+01
1.250000e+01
1.250000e+01
1.250000e+01
1.250000e+01
1.250000e+01
1.250000e+01
1.250000e+01
1.250000e+01
1.250000e+01
1.250000e+01
1.250000e+01
1.250000e+01
1.250000e+01
2.500000e+01
2.500000e+01
2.500000e+01
2.500000e+01
2.500000e+01
2.500000e+01
2.500000e+01
2.500000e+01
2.500000e+01
2.500000e+01
2.500000e+01
2.500000e+01
2.500000e+01
2.500000e+01
2.500000e+01
2.500000e+01
2.500000e+01
3.750000e+01
3.750000e+01
3.750000e+01
3.750000e+01
3.750000e+01
3.750000e+01
3.750000e+01
3.750000e+01
3.750000e+01
3.750000e+01
3.750000e+01
3.750000e+01
3.750000e+01
3.750000e+01
3.750000e+01
3.750000e+01
3.750000e+01
5.000000e+01
5.000000e+01
5.000000e+01
5.000000e+01
5.000000e+01
5.000000e+01
5.000000e+01
5.000000e+01
5.000000e+01
5.000000e+01
5.000000e+01
5.000000e+01
5.000000e+01
5.000000e+01
5.000000e+01
5.000000e+01
5.000000e+01
6.250000e+01
6.250000e+01
6.250000e+01
6.250000e+01
6.250000e+01
6.250000e+01
6.250000e+01
6.250000e+01
6.250000e+01
6.250000e+01
6.250000e+01
6.250000e+01
6.250000e+01
6.250000e+01
6.250000e+01
6.250000e+01
6.250000e+01
7.500000e+01
7.500000e+01
7.500000e+01
7.500000e+01
7.500000e+01
7.500000e+01
7.500000e+01
7.500000e+01
7.500000e+01
7.500000e+01
7.500000e+01
7.500000e+01
7.500000e+01
7.500000e+01
7.500000e+01
7.500000e+01
7.500000e+01
8.750000e+01
8.750000e+01
8.750000e+01
8.750000e+01
8.750000e+01
8.750000e+01
8.750000e+01
8.750000e+01
8.750000e+01
8.750000e+01
8.750000e+01
8.750000e+01
8.750000e+01
8.750000e+01
8.750000e+01
8.750000e+01
8.750000e+01
1.000000e+02
1.000000e+02
1.000000e+02
1.000000e+02
1.000000e+02
1.000000e+02
1.000000e+02
1.000000e+02
1.000000e+02
1.000000e+02
1.000000e+02
1.000000e+02
1.000000e+02
1.000000e+02
1.000000e+02
1.000000e+02
1.000000e+02
0.000000e+00
-7.083208e-02
-1.304243e-01
-1.852569e-01
-2.363213e-01
-2.835099e-01
-3.267214e-01
-3.659222e-01
-4.011695e-01
-4.326256e-01
-4.606022e-01
-4.856463e-01
-5.086985e-01
-5.313837e-01
-5.565047e-01
-5.873565e-01
-6.105074e-01
0.000000e+00
-4.229967e-02
-8.786934e-02
-1.299500e-01
-1.687192e-01
-2.043244e-01
-2.368393e-01
-2.663077e-01
-2.927825e-01
-3.163453e-01
-3.371158e-01
-3.552437e-01
-3.708446e-01
-3.837579e-01
-3.928664e-01
-3.948628e-01
-4.020205e-01
0.000000e+00
-2.645301e-02
-5.439401e-02
-8.226928e-02
-1.082900e-01
-1.321806e-01
-1.539218e-01
-1.735381e-01
-1.910344e-01
-2.063815e-01
-2.194969e-01
-2.301972e-01
-2.381012e-01
-2.425133e-01
-2.426358e-01
-2.408732e-01
-2.481735e-01
0.000000e+00
-1.276786e-02
-2.628435e-02
-3.988620e-02
-5.289201e-02
-6.487117e-02
-7.572910e-02
-8.543417e-02
-9.393083e-02
-1.011085e-01
-1.067838e-01
-1.106888e-01
-1.125039e-01
-1.120798e-01
-1.103377e-01
-1.108141e-01
-1.162499e-01
0.000000e+00
-1.176156e-05
-2.673773e-05
-4.166471e-05
-4.958672e-05
-3.499264e-05
3.290511e-05
2.093510e-04
5.849812e-04
1.294803e-03
2.514953e-03
4.422375e-03
7.064880e-03
1.005104e-02
1.211379e-02
1.154804e-02
7.949064e-03
0.000000e+00
1.274976e-02
2.624234e-02
3.981899e-02
5.280842e-02
6.480319e-02
7.575547e-02
8.571886e-02
9.477973e-02
1.030432e-01
1.106172e-01
1.175578e-01
1.237445e-01
1.287056e-01
1.316239e-01
1.318554e-01
1.300287e-01
0.000000e+00
2.645004e-02
5.438496e-02
8.225127e-02
1.082618e-01
1.321456e-01
1.538927e-01
1.735475e-01
1.911507e-01
2.067335e-01
2.203095e-01
2.318456e-01
2.412091e-01
2.481319e-01
2.522871e-01
2.536363e-01
2.532103e-01
0.000000e+00
4.231703e-02
8.790707e-02
1.300102e-01
1.687999e-01
2.044108e-01
2.368878e-01
2.662191e-01
2.923599e-01
3.152347e-01
3.347351e-01
3.507262e-01
3.630801e-01
3.717559e-01
3.769312e-01
3.791382e-01
3.795435e-01
0.000000e+00
7.086110e-02
1.305009e-01
1.854003e-01
2.365504e-01
2.838321e-01
3.271057e-01
3.662454e-01
4.011203e-01
4.315492e-01
4.572682e-01
4.779345e-01
4.932085e-01
5.029703e-01
5.076912e-01
5.088565e-01
5.088340e-01
0.000000e+00
-4.287661e-02
-8.417176e-02
-1.376806e-01
-2.033517e-01
-2.810622e-01
-3.699609e-01
-4.690529e-01
-5.772847e-01
-6.936165e-01
-8.170877e-01
-9.469341e-01
-1.082843e+00
-1.225539e+00
-1.378724e+00
-1.553997e+00
-1.805832e+00
0.000000e+00
-2.639563e-02
-6.947325e-02
-1.236457e-01
-1.903901e-01
-2.691610e-01
-3.591367e-01
-4.592979e-01
-5.685786e-01
-6.859205e-01
-8.103365e-01
-9.410271e-01
-1.077631e+00
-1.220854e+00
-1.373980e+00
-1.548189e+00
-1.761613e+00
0.000000e+00
-1.991784e-02
-5.928350e-02
-1.136559e-01
-1.810313e-01
-2.606130e-01
-3.514158e-01
-4.524103e-01
-5.625382e-01
-6.807558e-01
-8.060954e-01
-9.377848e-01
-1.075497e+00
-1.219821e+00
-1.373079e+00
-1.538148e+00
-1.697900e+00
0.000000e+00
-1.716377e-02
-5.421721e-02
-1.077921e-01
-1.754111e-01
-2.554827e-01
-3.468516e-01
-4.484494e-01
-5.592376e-01
-6.782009e-01
-8.043924e-01
-9.370250e-01
-1.075616e+00
-1.220100e+00
-1.370292e+00
-1.521967e+00
-1.661695e+00
0.000000e+00
-1.637038e-02
-5.268391e-02
-1.059216e-01
-1.735590e-01
-2.538298e-01
-3.454614e-01
-4.473863e-01
-5.585857e-01
-6.780609e-01
-8.048439e-01
-9.380231e-01
-1.076738e+00
-1.219964e+00
-1.365560e+00
-1.508545e+00
-1.640269e+00
0.000000e+00
-1.715358e-02
-5.420996e-02
-1.078050e-01
-1.754745e-01
-2.556497e-01
-3.472087e-01
-4.491259e-01
-5.604038e-01
-6.800391e-01
-8.070009e-01
-9.401863e-01
-1.078307e+00
-1.219605e+00
-1.361367e+00
-1.499449e+00
-1.628361e+00
0.000000e+00
-1.990122e-02
-5.927148e-02
-1.136774e-01
-1.811381e-01
-2.608955e-01
-3.520213e-01
-4.535589e-01
-5.645211e-01
-6.838870e-01
-8.105565e-01
-9.432572e-01
-1.080390e+00
-1.219837e+00
-1.358850e+00
-1.494282e+00
-1.623109e+00
0.000000e+00
-2.638005e-02
-6.946278e-02
-1.236743e-01
-1.905183e-01
-2.694932e-01
-3.598415e-01
-4.606254e-01
-5.708564e-01
-6.894952e-01
-8.153964e-01
-9.471968e-01
-1.083161e+00
-1.221056e+00
-1.358220e+00
-1.492146e+00
-1.621876e+00
0.000000e+00
-4.287017e-02
-8.417266e-02
-1.377249e-01
-2.035004e-01
-2.814171e-01
-3.706821e-01
-4.703689e-01
-5.794787e-01
-6.969538e-01
-8.216213e-01
-9.520879e-01
-1.086607e+00
-1.222992e+00
-1.358756e+00
-1.491755e+00
-1.621896e+00


0.000000e+00
2.373131e-11
4.907982e-11
7.153768e-11
9.051299e-11
1.059288e-10
1.180723e-10
1.273810e-10
1.343457e-10
1.394196e-10
1.430347e-10
1.455716e-10
1.473804e-10
1.487859e-10
1.500927e-10
1.517033e-10
1.536354e-10
0.000000e+00
1.613932e-11
3.803485e-11
5.587719e-11
7.019205e-11
8.150708e-11
9.024072e-11
9.682761e-11
1.016629e-10
1.051046e-10
1.074664e-10
1.089998e-10
1.099061e-10
1.103523e-10
1.108047e-10
1.121221e-10
1.141114e-10
0.000000e+00
1.201652e-11
2.641921e-11
3.845508e-11
4.812950e-11
5.559889e-11
6.122752e-11
6.536165e-11
6.831354e-11
7.032783e-11
7.161727e-11
7.234687e-11
7.267246e-11
7.279788e-11
7.311554e-11
7.414721e-11
7.575746e-11
0.000000e+00
6.431652e-12
1.317839e-11
1.919894e-11
2.412551e-11
2.789199e-11
3.067441e-11
3.267139e-11
3.405050e-11
3.494252e-11
3.546048e-11
3.570808e-11
3.580862e-11
3.591989e-11
3.619810e-11
3.682562e-11
3.781784e-11
0.000000e+00
-5.939075e-15
-1.632840e-14
-3.050458e-14
-5.056511e-14
-8.030766e-14
-1.197256e-13
-1.777760e-13
-2.546784e-13
-3.519923e-13
-4.632917e-13
-5.593321e-13
-5.994761e-13
-5.348162e-13
-3.642679e-13
-6.210345e-14
4.545966e-13
0.000000e+00
-6.446837e-12
-1.320873e-11
-1.925226e-11
-2.420791e-11
-2.801784e-11
-3.086374e-11
-3.294875e-11
-3.444724e-11
-3.549291e-11
-3.618972e-11
-3.661930e-11
-3.684022e-11
-3.691383e-11
-3.691021e-11
-3.683553e-11
-3.661358e-11
0.000000e+00
-1.202240e-11
-2.643732e-11
-3.848972e-11
-4.818612e-11
-5.568169e-11
-6.133852e-11
-6.550573e-11
-6.849616e-11
-7.055884e-11
-7.191795e-11
-7.275450e-11
-7.323428e-11
-7.349192e-11
-7.363046e-11
-7.367820e-11
-7.361569e-11
0.000000e+00
-1.614536e-11
-3.804912e-11
-5.590246e-11
-7.022368e-11
-8.154407e-11
-9.027747e-11
-9.685110e-11
-1.016558e-10
-1.050475e-10
-1.073428e-10
-1.088208e-10
-1.097250e-10
-1.102497e-10
-1.105399e-10
-1.106720e-10
-1.106900e-10
0.000000e+00
-2.374298e-11
-4.910065e-11
-7.156135e-11
-9.053482e-11
-1.059406e-10
-1.180529e-10
-1.273106e-10
-1.341899e-10
-1.391396e-10
-1.425867e-10
-1.448887e-10
-1.463619e-10
-1.472433e-10
-1.477076e-10
-1.478869e-10
-1.479147e-10
0.000000e+00
2.155684e-11
3.874806e-11
5.679272e-11
7.845546e-11
1.039604e-10
1.327845e-10
1.642532e-10
1.977210e-10
2.326501e-10
2.686341e-10
3.053987e-10
3.428235e-10
3.811673e-10
4.214505e-10
4.642045e-10
5.075146e-10
0.000000e+00
1.158960e-11
2.838898e-11
4.764264e-11
7.095240e-11
9.803471e-11
1.282518e-10
1.608761e-10
1.952717e-10
2.309338e-10
2.674726e-10
3.046399e-10
3.423322e-10
3.806633e-10
4.201309e-10
4.616946e-10
5.042983e-10
0.000000e+00
5.715676e-12
2.025554e-11
4.049847e-11
6.514810e-11
9.353716e-11
1.248621e-10
1.583882e-10
1.935052e-10
2.297305e-10
2.667036e-10
3.041908e-10
3.420681e-10
3.802683e-10
4.188396e-10
4.590265e-10
5.004876e-10
0.000000e+00
3.250967e-12
1.641658e-11
3.675261e-11
6.210386e-11
9.120986e-11
1.231369e-10
1.571437e-10
1.926415e-10
2.291680e-10
2.663739e-10
3.040174e-10
3.419358e-10
3.799549e-10
4.180380e-10
4.571305e-10
4.971466e-10
0.000000e+00
2.625606e-12
1.536888e-11
3.561970e-11
6.116743e-11
9.050277e-11
1.226228e-10
1.567843e-10
1.924109e-10
2.290385e-10
2.663216e-10
3.039996e-10
3.418788e-10
3.797864e-10
4.176610e-10
4.560446e-10
4.947695e-10
0.000000e+00
3.256545e-12
1.642421e-11
3.676367e-11
6.211783e-11
9.123070e-11
1.231702e-10
1.571977e-10
1.927278e-10
2.292889e-10
2.665196e-10
3.041419e-10
3.419510e-10
3.797825e-10
4.175739e-10
4.555205e-10
4.934002e-10
0.000000e+00
5.723382e-12
2.026735e-11
4.051855e-11
6.517247e-11
9.357918e-11
1.249302e-10
1.584961e-10
1.936761e-10
2.299675e-10
2.669964e-10
3.044626e-10
3.421466e-10
3.798899e-10
4.176001e-10
4.552875e-10
4.927603e-10
0.000000e+00
1.160299e-11
2.840886e-11
4.767696e-11
7.099265e-11
9.809827e-11
1.283477e-10
1.610212e-10
1.954876e-10
2.312275e-10
2.678332e-10
3.049866e-10
3.424525e-10
3.800484e-10
4.176591e-10
4.551989e-10
4.925465e-10
0.000000e+00
2.157344e-11
3.877676e-11
5.683592e-11
7.851115e-11
1.040348e-10
1.328888e-10
1.644000e-10
1.979249e-10
2.329173e-10
2.689500e-10
3.056813e-10
3.428495e-10
3.802546e-10
4.177434e-10
4.551930e-10
4.925123e-10


2.069653e-01
2.069653e-01
2.069653e-01
2.069653e-01
2.069653e-01
2.069653e-01
2.069653e-01
2.069653e-01
2.069653e-01
2.069653e-01
2.069653e-01
2.069653e-01
2.069653e-01
2.069653e-01
2.069653e-01
2.069653e-01
2.069653e-01
2.069653e-01
2.069653e-01
2.069653e-01
2.069653e-01
2.069653e-01
2.069653e-01
2.069653e-01
2.069653e-01
2.069653e-01
2.069653e-01
2.069653e-01
2.069653e-01
2.069653e-01
2.069653e-01
2.069653e-01
2.069653e-01
2.069653e-01
2.069653e-01
2.069653e-01
2.069653e-01
2.069653e-01
2.069653e-01
2.069653e-01
2.069653e-01
2.069653e-01
2.069653e-01
2.069653e-01
2.069653e-01
2.069653e-01
2.069653e-01
2.069653e-01
2.069653e-01
2.069653e-01
2.069653e-01
2.069653e-01
2.069653e-01
2.069653e-01
2.069653e-01
2.069653e-01
2.069653e-01
2.069653e-01
2.069653e-01
2.069653e-01
2.069653e-01
2.069653e-01
2.069653e-01
2.069653e-01
2.069653e-01
2.069653e-01
2.069653e-01
2.069653e-01
2.069653e-01
2.069653e-01
2.069653e-01
2.069653e-01
2.069653e-01
2.069653e-01
2.069653e-01
2.069653e-01
2.069653e-01
2.069653e-01
2.069653e-01
2.069653e-01
2.069653e-01
2.069653e-01
2.069653e-01
2.069653e-01
2.069653e-01
2.069653e-01
2.069653e-01
2.069653e-01
2.069653e-01
2.069653e-01
2.069653e-01
2.069653e-01
2.069653e-01
2.069653e-01
2.069653e-01
2.069653e-01
2.069653e-01
2.069653e-01
2.069653e-01
2.069653e-01
2.069653e-01
2.069653e-01
2.069653e-01
2.069653e-01
2.069653e-01
2.069653e-01
2.069653e-01
2.069653e-01
2.069653e-01
2.069653e-01
2.069653e-01
2.069653e-01
2.069653e-01
2.069653e-01
2.069653e-01
2.069653e-01
2.069653e-01
2.069653e-01
2.069653e-01
2.069653e-01
2.069653e-01
2.069653e-01
2.069653e-01
2.069653e-01
2.069653e-01
2.069653e-01
2.069653e-01
2.069653e-01


9.887122e-01
9.903129e-01
9.917936e-01
9.929335e-01
9.939916e-01
9.949672e-01
9.958561e-01
9.966477e-01
9.973339e-01
9.979078e-01
9.983641e-01
9.986984e-01
9.989062e-01
9.989803e-01
9.990338e-01
9.957350e-01
9.957296e-01
9.949961e-01
9.954680e-01
9.960840e-01
9.966582e-01
9.971802e-01
9.976527e-01
9.980806e-01
9.984681e-01
9.988191e-01
9.991375e-01
9.994259e-01
9.996775e-01
9.998422e-01
9.994256e-01
9.937787e-01
9.985162e-01
9.980949e-01
9.979812e-01
9.981412e-01
9.983516e-01
9.985555e-01
9.987448e-01
9.989236e-01
9.990968e-01
9.992658e-01
9.994235e-01
9.995456e-01
9.995711e-01
9.993512e-01
9.985533e-01
9.971182e-01
9.996980e-01
9.993908e-01
9.992009e-01
9.991528e-01
9.991720e-01
9.992043e-01
9.992365e-01
9.992680e-01
9.992989e-01
9.993247e-01
9.993319e-01
9.992935e-01
9.991715e-01
9.989525e-01
9.987668e-01
9.987198e-01
9.996992e-01
9.993924e-01
9.992024e-01
9.991525e-01
9.991672e-01
9.991905e-01
9.992067e-01
9.992121e-01
9.992047e-01
9.991809e-01
9.991366e-01
9.990727e-01
9.990120e-01
9.990240e-01
9.991959e-01
9.994934e-01
9.985183e-01
9.980981e-01
9.979843e-01
9.981412e-01
9.983435e-01
9.985303e-01
9.986883e-01
9.988154e-01
9.989105e-01
9.989746e-01
9.990151e-01
9.990547e-01
9.991379e-01
9.993123e-01
9.995743e-01
9.998452e-01
9.957292e-01
9.949958e-01
9.954674e-01
9.960822e-01
9.966537e-01
9.971699e-01
9.976314e-01
9.980400e-01
9.983960e-01
9.987004e-01
9.989580e-01
9.991830e-01
9.993997e-01
9.996269e-01
9.998393e-01
9.999731e-01
9.887045e-01
9.903008e-01
9.917789e-01
9.929169e-01
9.939767e-01
9.949618e-01
9.958744e-01
9.967124e-01
9.974760e-01
9.981636e-01
9.987671e-01
9.992678e-01
9.996402e-01
9.998700e-01
9.999745e-01
9.999995e-01
1 2 19 18
2 3 20 19
3 4 21 20
4 5 22 21
5 6 23 22
6 7 24 23
7 8 25 24
8 9 26 25
9 10 27 26
10 11 28 27
11 12 29 28
12 13 30 29
13 14 31 30
14 15 32 31
15 16 33 32
16 17 34 33
18 19 36 35
19 20 37 36
20 21 38 37
21 22 39 38
22 23 40 39
23 24 41 40
24 25 42 41
25 26 43 42
26 27 44 43
27 28 45 44
28 29 46 45
29 30 47 46
30 31 48 47
31 32 49 48
32 33 50 49
33 34 51 50
35 36 53 52
36 37 54 53
37 38 55 54
38 39 56 55
39 40 57 56
40 41 58 57
41 42 59 58
42 43 60 59
43 44 61 60
44 45 62 61
45 46 63 62
46 47 64 63
47 48 65 64
48 49 66 65
49 50 67 66
50 51 68 67
52 53 70 69
53 54 71 70
54 55 72 71
55 56 73 72
56 57 74 73
57 58 75 74
58 59 76 75
59 60 77 76
60 61 78 77
61 62 79 78
62 63 80 79
63 64 81 80
64 65 82 81
65 66 83 82
66 67 84 83
67 68 85 84
69 70 87 86
70 71 88 87
71 72 89 88
72 73 90 89
73 74 91 90
74 75 92 91
75 76 93 92
76 77 94 93
77 78 95 94
78 79 96 95
79 80 97 96
80 81 98 97
81 82 99 98
82 83 100 99
83 84 101 100
84 85 102 101
86 87 104 103
87 88 105 104
88 89 106 105
89 90 107 106
90 91 108 107
91 92 109 108
92 93 110 109
93 94 111 110
94 95 112 111
95 96 113 112
96 97 114 113
97 98 115 114
98 99 116 115
99 100 117 116
100 101 118 117
101 102 119 118
103 104 121 120
104 105 122 121
105 106 123 122
106 107 124 123
107 108 125 124
108 109 126 125
109 110 127 126
110 111 128 127
111 112 129 128
112 113 130 129
113 114 131 130
114 115 132 131
115 116 133 132
116 117 134 133
117 118 135 134
118 119 136 135
120 121 138 137
121 122 139 138
122 123 140 139
123 124 141 140
124 125 142 141
125 126 143 142
126 127 144 143
127 128 145 144
128 129 146 145
129 130 147 146
130 131 148 147
131 132 149 148
132 133 150 149
133 134 151 150
134 135 152 151
135 136 153 152
