TITLE = "Solution"
VARIABLES = x, y, u, v, psiu, psiv, t, stress
ZONE T="structure" N=153 E=128 F=FEBLOCK ET=QUADRILATERAL VARLOCATION=([7,8]=cellcentered)
0.000000e+00
1.250000e+01
2.500000e+01
3.750000e+01
5.000000e+01
6.250000e+01
7.500000e+01
8.750000e+01
1.000000e+02
1.125000e+02
1.250000e+02
1.375000e+02
1.500000e+02
1.625000e+02
1.750000e+02
1.875000e+02
2.000000e+02
0.000000e+00
1.250000e+01
2.500000e+01
3.750000e+01
5.000000e+01
6.250000e+01
7.500000e+01
8.750000e+01
1.000000e+02
1.125000e+02
1.250000e+02
1.375000e+02
1.500000e+02
1.625000e+02
1.750000e+02
1.875000e+02
2.000000e+02
0.000000e+00
1.250000e+01
2.500000e+01
3.750000e+01
5.000000e+01
6.250000e+01
7.500000e+01
8.750000e+01
1.000000e+02
1.125000e+02
1.250000e+02
1.375000e+02
1.500000e+02
1.625000e+02
1.750000e+02
1.875000e+02
2.000000e+02
0.000000e+00
1.250000e+01
2.500000e+01
3.750000e+01
5.000000e+01
6.250000e+01
7.500000e+01
8.750000e+01
1.000000e+02
1.125000e+02
1.250000e+02
1.375000e+02
1.500000e+02
1.625000e+02
1.750000e+02
1.875000e+02
2.000000e+02
0.000000e+00
1.250000e+01
2.500000e+01
3.750000e+01
5.000000e+01
6.250000e+01
7.500000e+01
8.750000e+01
1.000000e+02
1.125000e+02
1.250000e+02
1.375000e+02
1.500000e+02
1.625000e+02
1.750000e+02
1.875000e+02
2.000000e+02
0.000000e+00
1.250000e+01
2.500000e+01
3.750000e+01
5.000000e+01
6.250000e+01
7.500000e+01
8.750000e+01
1.000000e+02
1.125000e+02
1.250000e+02
1.375000e+02
1.500000e+02
1.625000e+02
1.750000e+02
1.875000e+02
2.000000e+02
0.000000e+00
1.250000e+01
2.500000e+01
3.750000e+01
5.000000e+01
6.250000e+01
7.500000e+01
8.750000e+01
1.000000e+02
1.125000e+02
1.250000e+02
1.375000e+02
1.500000e+02
1.625000e+02
1.750000e+02
1.875000e+02
2.000000e+02
0.000000e+00
1.250000e+01
2.500000e+01
3.750000e+01
5.000000e+01
6.250000e+01
7.500000e+01
8.750000e+01
1.000000e+02
1.125000e+02
1.250000e+02
1.375000e+02
1.500000e+02
1.625000e+02
1.750000e+02
1.875000e+02
2.000000e+02
0.000000e+00
1.250000e+01
2.500000e+01
3.750000e+01
5.000000e+01
6.250000e+01
7.500000e+01
8.750000e+01
1.000000e+02
1.125000e+02
1.250000e+02
1.375000e+02
1.500000e+02
1.625000e+02
1.750000e+02
1.875000e+02
2.000000e+02
0.000000e+00
0.000000e+00
0.000000e+00
0.000000e+00
0.000000e+00
0.000000e+00
0.000000e+00
0.000000e+00
0.000000e+00
0.000000e+00
0.000000e+00
0.000000e+00
0.000000e+00
0.000000e+00
0.000000e+00
0.000000e+00
0.000000e+00
1.250000e+01
1.250000e+01
1.250000e+01
1.250000e+01
1.250000e+01
1.250000e+01
1.250000e+01
1.250000e+01
1.250000e+01
1.250000e+01
1.250000e+01
1.250000e+01
1.250000e+01
1.250000e+01
1.250000e+01
1.250000e+01
1.250000e+01
2.500000e+01
2.500000e+01
2.500000e+01
2.500000e+01
2.500000e+01
2.500000e+01
2.500000e+01
2.500000e+01
2.500000e+01
2.500000e+01
2.500000e+01
2.500000e+01
2.500000e+01
2.500000e+01
2.500000e+01
2.500000e+01
2.500000e+01
3.750000e+01
3.750000e+01
3.750000e+01
3.750000e+01
3.750000e+01
3.750000e+01
3.750000e+01
3.750000e+01
3.750000e+01
3.750000e+01
3.750000e+01
3.750000e+01
3.750000e+01
3.750000e+01
3.750000e+01
3.750000e+01
3.750000e+01
5.000000e+01
5.000000e+01
5.000000e+01
5.000000e+01
5.000000e+01
5.000000e+01
5.000000e+01
5.000000e+01
5.000000e+01
5.000000e+01
5.000000e+01
5.000000e+01
5.000000e+01
5.000000e+01
5.000000e+01
5.000000e+01
5.000000e+01
6.250000e+01
6.250000e+01
6.250000e+01
6.250000e+01
6.250000e+01
6.250000e+01
6.250000e+01
6.250000e+01
6.250000e+01
6.250000e+01
6.250000e+01
6.250000e+01
6.250000e+01
6.250000e+01
6.250000e+01
6.250000e+01
6.250000e+01
7.500000e+01
7.500000e+01
7.500000e+01
7.500000e+01
7.500000e+01
7.500000e+01
7.500000e+01
7.500000e+01
7.500000e+01
7.500000e+01
7.500000e+01
7.500000e+01
7.500000e+01
7.500000e+01
7.500000e+01
7.500000e+01
7.500000e+01
8.750000e+01
8.750000e+01
8.750000e+01
8.750000e+01
8.750000e+01
8.750000e+01
8.750000e+01
8.750000e+01
8.750000e+01
8.750000e+01
8.750000e+01
8.750000e+01
8.750000e+01
8.750000e+01
8.750000e+01
8.750000e+01
8.750000e+01
1.000000e+02
1.000000e+02
1.000000e+02
1.000000e+02
1.000000e+02
1.000000e+02
1.000000e+02
1.000000e+02
1.000000e+02
1.000000e+02
1.000000e+02
1.000000e+02
1.000000e+02
1.000000e+02
1.000000e+02
1.000000e+02
1.000000e+02
0.000000e+00
-8.206667e-01
-1.472871e+00
-2.099672e+00
-2.745045e+00
-3.377589e+00
-3.996021e+00
-4.609883e+00
-5.217189e+00
-5.808680e+00
-6.379923e+00
-6.933648e+00
-7.474820e+00
-8.010905e+00
-8.552896e+00
-9.127592e+00
-9.524435e+00
0.000000e+00
-4.469008e-01
-9.214065e-01
-1.387893e+00
-1.871943e+00
-2.347051e+00
-2.810130e+00
-3.268710e+00
-3.721431e+00
-4.160409e+00
-4.580693e+00
-4.980347e+00
-5.351771e+00
-5.671547e+00
-5.887733e+00
-5.936452e+00
-6.069542e+00
0.000000e+00
-2.414782e-01
-5.088089e-01
-8.126581e-01
-1.134446e+00
-1.452566e+00
-1.764741e+00
-2.072937e+00
-2.373666e+00
-2.660200e+00
-2.926604e+00
-3.164361e+00
-3.355606e+00
-3.472190e+00
-3.488394e+00
-3.460208e+00
-3.598634e+00
0.000000e+00
-1.005467e-01
-2.199866e-01
-3.659816e-01
-5.252204e-01
-6.851112e-01
-8.433198e-01
-9.981450e-01
-1.145408e+00
-1.279731e+00
-1.394846e+00
-1.480643e+00
-1.523017e+00
-1.513039e+00
-1.471095e+00
-1.476830e+00
-1.587841e+00
0.000000e+00
-9.362698e-04
-2.074440e-03
-3.294654e-03
-4.292931e-03
-4.613151e-03
-3.530629e-03
2.017634e-04
8.650910e-03
2.505189e-02
5.418110e-02
1.015705e-01
1.693744e-01
2.481378e-01
3.066485e-01
3.023796e-01
2.226738e-01
0.000000e+00
9.898317e-02
2.166152e-01
3.606120e-01
5.180422e-01
6.771949e-01
8.369530e-01
9.975760e-01
1.158225e+00
1.318756e+00
1.480276e+00
1.641344e+00
1.793598e+00
1.920552e+00
1.999388e+00
2.011131e+00
1.968082e+00
0.000000e+00
2.406143e-01
5.068989e-01
8.094256e-01
1.129750e+00
1.446746e+00
1.758558e+00
2.067760e+00
2.372284e+00
2.667494e+00
2.948915e+00
3.208675e+00
3.432534e+00
3.604227e+00
3.710443e+00
3.746565e+00
3.736170e+00
0.000000e+00
4.467093e-01
9.207445e-01
1.386537e+00
1.869763e+00
2.343766e+00
2.804817e+00
3.259536e+00
3.705719e+00
4.133483e+00
4.531170e+00
4.884165e+00
5.173894e+00
5.385602e+00
5.515606e+00
5.572351e+00
5.582868e+00
0.000000e+00
8.207852e-01
1.473140e+00
2.100236e+00
2.746236e+00
3.379310e+00
3.997127e+00
4.607787e+00
5.207078e+00
5.779929e+00
6.306807e+00
6.762936e+00
7.119682e+00
7.357017e+00
7.475859e+00
7.506270e+00
7.505823e+00
0.000000e+00
-5.051673e-01
-1.042252e+00
-1.753841e+00
-2.625538e+00
-3.652616e+00
-4.839587e+00
-6.188290e+00
-7.695392e+00
-9.356054e+00
-1.116619e+01
-1.312143e+01
-1.521829e+01
-1.746384e+01
-1.991681e+01
-2.277819e+01
-2.699213e+01
0.000000e+00
-3.203325e-01
-8.832134e-01
-1.587834e+00
-2.458425e+00
-3.489107e+00
-4.678597e+00
-6.028984e+00
-7.539620e+00
-9.205987e+00
-1.102279e+01
-1.298553e+01
-1.509214e+01
-1.735428e+01
-1.982308e+01
-2.267909e+01
-2.620334e+01
0.000000e+00
-2.619931e-01
-7.775714e-01
-1.475416e+00
-2.342610e+00
-3.373682e+00
-4.564990e+00
-5.918407e+00
-7.433799e+00
-9.106885e+00
-1.093330e+01
-1.291038e+01
-1.503793e+01
-1.732721e+01
-1.980856e+01
-2.250243e+01
-2.506340e+01
0.000000e+00
-2.572385e-01
-7.361854e-01
-1.415906e+00
-2.277673e+00
-3.306726e+00
-4.499423e+00
-5.857131e+00
-7.378776e+00
-9.060343e+00
-1.089946e+01
-1.289434e+01
-1.504008e+01
-1.733230e+01
-1.975351e+01
-2.219380e+01
-2.436324e+01
0.000000e+00
-2.617939e-01
-7.281113e-01
-1.399937e+00
-2.258121e+00
-3.286841e+00
-4.481562e+00
-5.843609e+00
-7.371479e+00
-9.061675e+00
-1.091252e+01
-1.291950e+01
-1.506709e+01
-1.732820e+01
-1.964843e+01
-2.190744e+01
-2.389591e+01
0.000000e+00
-2.569950e-01
-7.362161e-01
-1.416703e+00
-2.279995e+00
-3.311911e+00
-4.509329e+00
-5.874153e+00
-7.406190e+00
-9.102505e+00
-1.095987e+01
-1.296860e+01
-1.510251e+01
-1.731763e+01
-1.954885e+01
-2.169471e+01
-2.361162e+01
0.000000e+00
-2.615575e-01
-7.775449e-01
-1.476553e+00
-2.346242e+00
-3.382012e+00
-4.581069e+00
-5.946318e+00
-7.479217e+00
-9.177170e+00
-1.103427e+01
-1.303567e+01
-1.514826e+01
-1.732044e+01
-1.948626e+01
-2.156679e+01
-2.347920e+01
0.000000e+00
-3.198600e-01
-8.830697e-01
-1.588939e+00
-2.462369e+00
-3.498371e+00
-4.696576e+00
-6.060372e+00
-7.591010e+00
-9.285383e+00
-1.113537e+01
-1.312258e+01
-1.521120e+01
-1.734824e+01
-1.946978e+01
-2.151216e+01
-2.344688e+01
0.000000e+00
-5.047321e-01
-1.042075e+00
-1.754958e+00
-2.629579e+00
-3.661945e+00
-4.857384e+00
-6.219032e+00
-7.745216e+00
-9.431173e+00
-1.126731e+01
-1.323311e+01
-1.529256e+01
-1.739557e+01
-1.948333e+01
-2.150206e+01
-2.344724e+01


0.000000e+00
1.354447e-05
2.826205e-05
4.283063e-05
5.721404e-05
7.080014e-05
8.349213e-05
9.512250e-05
1.055012e-04
1.148284e-04
1.233818e-04
1.308854e-04
1.367657e-04
1.409128e-04
1.437289e-04
1.464990e-04
1.498151e-04
0.000000e+00
9.814174e-06
2.268751e-05
3.401423e-05
4.473949e-05
5.484485e-05
6.427307e-05
7.274503e-05
8.004528e-05
8.647900e-05
9.234412e-05
9.724243e-05
1.004356e-04
1.016864e-04
1.021322e-04
1.042779e-04
1.079283e-04
0.000000e+00
7.667219e-06
1.623043e-05
2.379593e-05
3.096848e-05
3.764085e-05
4.371656e-05
4.898389e-05
5.340263e-05
5.720127e-05
6.045231e-05
6.281329e-05
6.391930e-05
6.400445e-05
6.420699e-05
6.617190e-05
6.966517e-05
0.000000e+00
4.040472e-06
7.736965e-06
1.160621e-05
1.528147e-05
1.859986e-05
2.147906e-05
2.388088e-05
2.584765e-05
2.740829e-05
2.848303e-05
2.895497e-05
2.893084e-05
2.888539e-05
2.938672e-05
3.101385e-05
3.369821e-05
0.000000e+00
5.581258e-08
9.250243e-08
1.012275e-07
8.003976e-08
2.687382e-08
-6.699692e-08
-2.248503e-07
-4.866289e-07
-9.036458e-07
-1.507146e-06
-2.241141e-06
-2.903004e-06
-3.168274e-06
-2.837120e-06
-1.928576e-06
-3.902550e-07
0.000000e+00
-3.929228e-06
-7.549511e-06
-1.139269e-05
-1.509145e-05
-1.846819e-05
-2.144543e-05
-2.403751e-05
-2.636470e-05
-2.852162e-05
-3.046379e-05
-3.205109e-05
-3.320991e-05
-3.390452e-05
-3.419339e-05
-3.411559e-05
-3.354155e-05
0.000000e+00
-7.527819e-06
-1.598782e-05
-2.354053e-05
-3.073119e-05
-3.738982e-05
-4.340348e-05
-4.863069e-05
-5.312080e-05
-5.707180e-05
-6.045123e-05
-6.301031e-05
-6.472152e-05
-6.583342e-05
-6.654688e-05
-6.688648e-05
-6.682703e-05
0.000000e+00
-9.657344e-06
-2.240784e-05
-3.372438e-05
-4.446528e-05
-5.451302e-05
-6.377658e-05
-7.205967e-05
-7.925111e-05
-8.554080e-05
-9.093618e-05
-9.507135e-05
-9.779417e-05
-9.944017e-05
-1.003895e-04
-1.008342e-04
-1.009320e-04
0.000000e+00
-1.340008e-05
-2.802026e-05
-4.256240e-05
-5.691884e-05
-7.039788e-05
-8.287653e-05
-9.425624e-05
-1.044253e-04
-1.134540e-04
-1.212941e-04
-1.275285e-04
-1.318454e-04
-1.343458e-04
-1.354461e-04
-1.357001e-04
-1.356996e-04
0.000000e+00
1.214850e-05
2.189241e-05
3.339323e-05
4.823455e-05
6.647050e-05
8.793225e-05
1.122729e-04
1.393958e-04
1.693691e-04
2.018920e-04
2.363470e-04
2.724715e-04
3.108494e-04
3.536306e-04
4.016170e-04
4.504814e-04
0.000000e+00
6.098096e-06
1.554020e-05
2.701702e-05
4.205811e-05
6.066872e-05
8.258408e-05
1.075064e-04
1.352245e-04
1.656461e-04
1.986087e-04
2.337618e-04
2.708134e-04
3.098406e-04
3.513384e-04
3.971273e-04
4.446494e-04
0.000000e+00
2.362280e-06
1.049181e-05
2.222221e-05
3.749570e-05
5.646497e-05
7.881150e-05
1.042191e-04
1.323866e-04
1.631613e-04
1.964795e-04
2.321494e-04
2.698816e-04
3.091453e-04
3.488035e-04
3.916110e-04
4.367957e-04
0.000000e+00
1.178138e-06
8.334342e-06
1.991722e-05
3.535598e-05
5.457801e-05
7.720750e-05
1.028423e-04
1.311950e-04
1.621682e-04
1.956858e-04
2.315296e-04
2.693934e-04
3.084268e-04
3.468801e-04
3.868277e-04
4.286302e-04
0.000000e+00
9.917138e-07
7.791305e-06
1.916479e-05
3.468809e-05
5.404432e-05
7.678955e-05
1.024878e-04
1.309081e-04
1.620026e-04
1.956401e-04
2.315047e-04
2.692212e-04
3.079166e-04
3.458187e-04
3.837661e-04
4.220556e-04
0.000000e+00
1.173474e-06
8.296228e-06
1.988214e-05
3.536777e-05
5.464394e-05
7.729986e-05
1.029461e-04
1.313658e-04
1.625129e-04
1.962383e-04
2.321212e-04
2.696300e-04
3.078672e-04
3.454868e-04
3.822966e-04
4.181592e-04
0.000000e+00
2.340323e-06
1.042573e-05
2.217129e-05
3.751283e-05
5.655315e-05
7.893846e-05
1.043853e-04
1.327016e-04
1.638138e-04
1.975358e-04
2.333450e-04
2.705372e-04
3.082462e-04
3.454315e-04
3.816095e-04
4.165681e-04
0.000000e+00
6.031840e-06
1.544811e-05
2.697032e-05
4.207681e-05
6.073275e-05
8.267473e-05
1.076685e-04
1.355939e-04
1.663843e-04
1.997558e-04
2.350902e-04
2.716747e-04
3.087613e-04
3.454933e-04
3.813184e-04
4.162351e-04
0.000000e+00
1.201854e-05
2.177510e-05
3.334982e-05
4.824613e-05
6.648532e-05
8.794348e-05
1.123726e-04
1.397173e-04
1.699555e-04
2.026712e-04
2.371709e-04
2.729104e-04
3.093246e-04
3.456431e-04
3.812591e-04
4.162364e-04


2.144770e+00
2.039405e+00
2.159382e+00
2.399712e+00
2.559863e+00
2.763953e+00
3.058481e+00
3.391993e+00
3.725873e+00
4.080937e+00
4.474308e+00
4.835221e+00
5.005819e+00
4.758259e+00
4.151785e+00
3.691625e+00
2.959076e+00
2.867117e+00
2.940421e+00
3.086803e+00
3.165097e+00
3.295832e+00
3.517131e+00
3.772391e+00
4.033434e+00
4.331880e+00
4.672709e+00
4.964579e+00
5.056516e+00
4.747083e+00
4.131524e+00
3.677157e+00
4.263961e+00
4.217100e+00
4.235036e+00
4.241802e+00
4.196788e+00
4.220894e+00
4.323878e+00
4.446425e+00
4.578753e+00
4.761965e+00
4.980418e+00
5.130546e+00
5.108836e+00
4.806569e+00
4.312634e+00
3.978350e+00
5.171689e+00
5.162212e+00
5.142632e+00
5.047798e+00
4.931735e+00
4.888929e+00
4.906238e+00
4.925092e+00
4.951442e+00
5.028804e+00
5.125636e+00
5.149609e+00
5.071019e+00
4.892840e+00
4.671975e+00
4.541382e+00
5.176938e+00
5.164263e+00
5.138761e+00
5.038420e+00
4.918843e+00
4.871425e+00
4.879535e+00
4.885549e+00
4.898079e+00
4.958167e+00
5.031179e+00
5.040920e+00
5.002547e+00
4.987334e+00
5.016734e+00
5.058294e+00
4.272392e+00
4.219564e+00
4.226750e+00
4.223764e+00
4.172700e+00
4.188577e+00
4.275835e+00
4.379417e+00
4.495694e+00
4.656166e+00
4.830103e+00
4.947689e+00
5.025466e+00
5.143824e+00
5.308221e+00
5.426719e+00
2.961304e+00
2.865516e+00
2.932364e+00
3.073627e+00
3.149250e+00
3.276436e+00
3.493108e+00
3.751559e+00
4.030448e+00
4.343833e+00
4.666261e+00
4.933861e+00
5.141279e+00
5.341834e+00
5.535749e+00
5.652356e+00
2.141687e+00
2.034637e+00
2.152515e+00
2.392085e+00
2.552711e+00
2.758161e+00
3.059578e+00
3.417142e+00
3.798735e+00
4.204737e+00
4.613836e+00
4.969121e+00
5.248730e+00
5.479296e+00
5.658799e+00
5.754550e+00


-4.154113e-01
-1.202146e-01
-4.904221e-02
-1.183228e-01
-7.723643e-02
-2.882748e-02
-1.274375e-02
9.713562e-03
6.334435e-02
1.326402e-01
2.000471e-01
2.722499e-01
3.676517e-01
5.031394e-01
6.525713e-01
-2.952047e-01
5.531039e-01
4.524369e-01
4.203103e-01
3.684976e-01
3.824883e-01
4.023302e-01
4.067778e-01
4.181884e-01
4.514970e-01
5.011536e-01
5.666676e-01
6.625682e-01
7.914098e-01
9.070514e-01
7.939567e-01
-9.611666e-01
8.476294e-01
7.526717e-01
6.692540e-01
6.266396e-01
6.223787e-01
6.219428e-01
6.176774e-01
6.197338e-01
6.340819e-01
6.578366e-01
6.915688e-01
7.333371e-01
7.493012e-01
6.656582e-01
3.920508e-01
-7.784756e-02
9.233641e-01
8.356177e-01
7.521465e-01
7.078707e-01
6.946110e-01
6.883033e-01
6.802827e-01
6.728331e-01
6.663040e-01
6.547373e-01
6.331855e-01
5.961597e-01
5.256859e-01
4.214093e-01
3.685560e-01
3.895509e-01
9.241101e-01
8.368130e-01
7.539170e-01
7.094331e-01
6.944733e-01
6.846585e-01
6.702978e-01
6.517574e-01
6.268456e-01
5.875974e-01
5.323986e-01
4.732018e-01
4.270015e-01
4.284380e-01
5.294234e-01
7.105370e-01
8.493996e-01
7.551368e-01
6.724831e-01
6.292593e-01
6.214994e-01
6.138990e-01
5.964606e-01
5.748547e-01
5.497910e-01
5.150120e-01
4.762152e-01
4.584504e-01
4.873881e-01
5.789062e-01
7.317395e-01
9.018740e-01
5.547636e-01
4.547253e-01
4.231068e-01
3.711073e-01
3.833378e-01
3.999928e-01
3.983262e-01
3.968600e-01
4.079107e-01
4.289644e-01
4.654336e-01
5.332046e-01
6.359002e-01
7.639580e-01
8.943016e-01
9.819246e-01
-4.148405e-01
-1.195410e-01
-4.828739e-02
-1.180653e-01
-7.653382e-02
-2.486073e-02
-1.892907e-03
3.157163e-02
1.069883e-01
2.282770e-01
3.953142e-01
5.959798e-01
7.850599e-01
9.174156e-01
9.829385e-01
9.996205e-01
1 2 19 18
2 3 20 19
3 4 21 20
4 5 22 21
5 6 23 22
6 7 24 23
7 8 25 24
8 9 26 25
9 10 27 26
10 11 28 27
11 12 29 28
12 13 30 29
13 14 31 30
14 15 32 31
15 16 33 32
16 17 34 33
18 19 36 35
19 20 37 36
20 21 38 37
21 22 39 38
22 23 40 39
23 24 41 40
24 25 42 41
25 26 43 42
26 27 44 43
27 28 45 44
28 29 46 45
29 30 47 46
30 31 48 47
31 32 49 48
32 33 50 49
33 34 51 50
35 36 53 52
36 37 54 53
37 38 55 54
38 39 56 55
39 40 57 56
40 41 58 57
41 42 59 58
42 43 60 59
43 44 61 60
44 45 62 61
45 46 63 62
46 47 64 63
47 48 65 64
48 49 66 65
49 50 67 66
50 51 68 67
52 53 70 69
53 54 71 70
54 55 72 71
55 56 73 72
56 57 74 73
57 58 75 74
58 59 76 75
59 60 77 76
60 61 78 77
61 62 79 78
62 63 80 79
63 64 81 80
64 65 82 81
65 66 83 82
66 67 84 83
67 68 85 84
69 70 87 86
70 71 88 87
71 72 89 88
72 73 90 89
73 74 91 90
74 75 92 91
75 76 93 92
76 77 94 93
77 78 95 94
78 79 96 95
79 80 97 96
80 81 98 97
81 82 99 98
82 83 100 99
83 84 101 100
84 85 102 101
86 87 104 103
87 88 105 104
88 89 106 105
89 90 107 106
90 91 108 107
91 92 109 108
92 93 110 109
93 94 111 110
94 95 112 111
95 96 113 112
96 97 114 113
97 98 115 114
98 99 116 115
99 100 117 116
100 101 118 117
101 102 119 118
103 104 121 120
104 105 122 121
105 106 123 122
106 107 124 123
107 108 125 124
108 109 126 125
109 110 127 126
110 111 128 127
111 112 129 128
112 113 130 129
113 114 131 130
114 115 132 131
115 116 133 132
116 117 134 133
117 118 135 134
118 119 136 135
120 121 138 137
121 122 139 138
122 123 140 139
123 124 141 140
124 125 142 141
125 126 143 142
126 127 144 143
127 128 145 144
128 129 146 145
129 130 147 146
130 131 148 147
131 132 149 148
132 133 150 149
133 134 151 150
134 135 152 151
135 136 153 152
