TITLE = "Solution"
VARIABLES = x, y, u, v, psiu, psiv, t, stress
ZONE T="structure" N=153 E=128 F=FEBLOCK ET=QUADRILATERAL VARLOCATION=([7,8]=cellcentered)
0.000000e+00
1.250000e+01
2.500000e+01
3.750000e+01
5.000000e+01
6.250000e+01
7.500000e+01
8.750000e+01
1.000000e+02
1.125000e+02
1.250000e+02
1.375000e+02
1.500000e+02
1.625000e+02
1.750000e+02
1.875000e+02
2.000000e+02
0.000000e+00
1.250000e+01
2.500000e+01
3.750000e+01
5.000000e+01
6.250000e+01
7.500000e+01
8.750000e+01
1.000000e+02
1.125000e+02
1.250000e+02
1.375000e+02
1.500000e+02
1.625000e+02
1.750000e+02
1.875000e+02
2.000000e+02
0.000000e+00
1.250000e+01
2.500000e+01
3.750000e+01
5.000000e+01
6.250000e+01
7.500000e+01
8.750000e+01
1.000000e+02
1.125000e+02
1.250000e+02
1.375000e+02
1.500000e+02
1.625000e+02
1.750000e+02
1.875000e+02
2.000000e+02
0.000000e+00
1.250000e+01
2.500000e+01
3.750000e+01
5.000000e+01
6.250000e+01
7.500000e+01
8.750000e+01
1.000000e+02
1.125000e+02
1.250000e+02
1.375000e+02
1.500000e+02
1.625000e+02
1.750000e+02
1.875000e+02
2.000000e+02
0.000000e+00
1.250000e+01
2.500000e+01
3.750000e+01
5.000000e+01
6.250000e+01
7.500000e+01
8.750000e+01
1.000000e+02
1.125000e+02
1.250000e+02
1.375000e+02
1.500000e+02
1.625000e+02
1.750000e+02
1.875000e+02
2.000000e+02
0.000000e+00
1.250000e+01
2.500000e+01
3.750000e+01
5.000000e+01
6.250000e+01
7.500000e+01
8.750000e+01
1.000000e+02
1.125000e+02
1.250000e+02
1.375000e+02
1.500000e+02
1.625000e+02
1.750000e+02
1.875000e+02
2.000000e+02
0.000000e+00
1.250000e+01
2.500000e+01
3.750000e+01
5.000000e+01
6.250000e+01
7.500000e+01
8.750000e+01
1.000000e+02
1.125000e+02
1.250000e+02
1.375000e+02
1.500000e+02
1.625000e+02
1.750000e+02
1.875000e+02
2.000000e+02
0.000000e+00
1.250000e+01
2.500000e+01
3.750000e+01
5.000000e+01
6.250000e+01
7.500000e+01
8.750000e+01
1.000000e+02
1.125000e+02
1.250000e+02
1.375000e+02
1.500000e+02
1.625000e+02
1.750000e+02
1.875000e+02
2.000000e+02
0.000000e+00
1.250000e+01
2.500000e+01
3.750000e+01
5.000000e+01
6.250000e+01
7.500000e+01
8.750000e+01
1.000000e+02
1.125000e+02
1.250000e+02
1.375000e+02
1.500000e+02
1.625000e+02
1.750000e+02
1.875000e+02
2.000000e+02
0.000000e+00
0.000000e+00
0.000000e+00
0.000000e+00
0.000000e+00
0.000000e+00
0.000000e+00
0.000000e+00
0.000000e+00
0.000000e+00
0.000000e+00
0.000000e+00
0.000000e+00
0.000000e+00
0.000000e+00
0.000000e+00
0.000000e+00
1.250000e+01
1.250000e+01
1.250000e+01
1.250000e+01
1.250000e+01
1.250000e+01
1.250000e+01
1.250000e+01
1.250000e+01
1.250000e+01
1.250000e+01
1.250000e+01
1.250000e+01
1.250000e+01
1.250000e+01
1.250000e+01
1.250000e+01
2.500000e+01
2.500000e+01
2.500000e+01
2.500000e+01
2.500000e+01
2.500000e+01
2.500000e+01
2.500000e+01
2.500000e+01
2.500000e+01
2.500000e+01
2.500000e+01
2.500000e+01
2.500000e+01
2.500000e+01
2.500000e+01
2.500000e+01
3.750000e+01
3.750000e+01
3.750000e+01
3.750000e+01
3.750000e+01
3.750000e+01
3.750000e+01
3.750000e+01
3.750000e+01
3.750000e+01
3.750000e+01
3.750000e+01
3.750000e+01
3.750000e+01
3.750000e+01
3.750000e+01
3.750000e+01
5.000000e+01
5.000000e+01
5.000000e+01
5.000000e+01
5.000000e+01
5.000000e+01
5.000000e+01
5.000000e+01
5.000000e+01
5.000000e+01
5.000000e+01
5.000000e+01
5.000000e+01
5.000000e+01
5.000000e+01
5.000000e+01
5.000000e+01
6.250000e+01
6.250000e+01
6.250000e+01
6.250000e+01
6.250000e+01
6.250000e+01
6.250000e+01
6.250000e+01
6.250000e+01
6.250000e+01
6.250000e+01
6.250000e+01
6.250000e+01
6.250000e+01
6.250000e+01
6.250000e+01
6.250000e+01
7.500000e+01
7.500000e+01
7.500000e+01
7.500000e+01
7.500000e+01
7.500000e+01
7.500000e+01
7.500000e+01
7.500000e+01
7.500000e+01
7.500000e+01
7.500000e+01
7.500000e+01
7.500000e+01
7.500000e+01
7.500000e+01
7.500000e+01
8.750000e+01
8.750000e+01
8.750000e+01
8.750000e+01
8.750000e+01
8.750000e+01
8.750000e+01
8.750000e+01
8.750000e+01
8.750000e+01
8.750000e+01
8.750000e+01
8.750000e+01
8.750000e+01
8.750000e+01
8.750000e+01
8.750000e+01
1.000000e+02
1.000000e+02
1.000000e+02
1.000000e+02
1.000000e+02
1.000000e+02
1.000000e+02
1.000000e+02
1.000000e+02
1.000000e+02
1.000000e+02
1.000000e+02
1.000000e+02
1.000000e+02
1.000000e+02
1.000000e+02
1.000000e+02
0.000000e+00
-9.959363e-01
-1.678995e+00
-2.431193e+00
-3.117254e+00
-3.750468e+00
-4.458239e+00
-5.087212e+00
-5.763223e+00
-6.405583e+00
-7.055527e+00
-7.723563e+00
-8.376442e+00
-9.146430e+00
-1.007746e+01
-1.083397e+01
-1.128409e+01
0.000000e+00
-4.459863e-01
-9.064722e-01
-1.419027e+00
-1.930667e+00
-2.410694e+00
-2.924817e+00
-3.423020e+00
-3.918986e+00
-4.421445e+00
-4.913925e+00
-5.416915e+00
-5.901775e+00
-6.421397e+00
-6.897727e+00
-7.024061e+00
-7.202952e+00
0.000000e+00
-1.460926e-01
-3.488373e-01
-6.395532e-01
-9.775456e-01
-1.302570e+00
-1.655698e+00
-2.012853e+00
-2.356385e+00
-2.718583e+00
-3.057400e+00
-3.391727e+00
-3.687425e+00
-3.927368e+00
-4.036619e+00
-4.034644e+00
-4.183063e+00
0.000000e+00
-7.898709e-02
-1.621182e-01
-3.096532e-01
-4.548979e-01
-6.281757e-01
-8.139320e-01
-9.790719e-01
-1.166879e+00
-1.328808e+00
-1.489862e+00
-1.628927e+00
-1.722337e+00
-1.730516e+00
-1.656861e+00
-1.635902e+00
-1.752943e+00
0.000000e+00
-3.321573e-03
-7.230133e-03
-1.129630e-02
-1.568729e-02
-1.912171e-02
-2.000848e-02
-1.726844e-02
-8.503553e-03
8.346702e-03
3.275052e-02
7.770464e-02
1.602299e-01
2.751631e-01
3.949782e-01
4.358612e-01
3.376817e-01
0.000000e+00
7.317718e-02
1.504057e-01
2.905767e-01
4.290569e-01
5.955489e-01
7.744511e-01
9.426652e-01
1.148723e+00
1.343929e+00
1.561924e+00
1.782219e+00
2.008869e+00
2.216390e+00
2.352193e+00
2.385098e+00
2.319419e+00
0.000000e+00
1.437268e-01
3.435401e-01
6.305207e-01
9.655869e-01
1.290839e+00
1.643085e+00
1.999652e+00
2.359071e+00
2.764624e+00
3.143676e+00
3.510660e+00
3.843491e+00
4.119218e+00
4.296005e+00
4.350646e+00
4.327981e+00
0.000000e+00
4.466984e-01
9.072103e-01
1.419532e+00
1.930468e+00
2.409048e+00
2.920098e+00
3.415641e+00
3.903278e+00
4.396693e+00
4.874975e+00
5.350102e+00
5.777993e+00
6.125680e+00
6.342772e+00
6.438595e+00
6.456308e+00
0.000000e+00
9.982256e-01
1.684086e+00
2.440043e+00
3.128056e+00
3.761818e+00
4.468606e+00
5.095722e+00
5.747547e+00
6.331614e+00
6.905087e+00
7.505961e+00
8.035950e+00
8.448046e+00
8.649290e+00
8.702025e+00
8.702555e+00
0.000000e+00
-6.187670e-01
-1.361826e+00
-2.363243e+00
-3.537428e+00
-4.880965e+00
-6.412465e+00
-8.098603e+00
-9.959081e+00
-1.198258e+01
-1.416735e+01
-1.651822e+01
-1.903188e+01
-2.176301e+01
-2.472725e+01
-2.808669e+01
-3.310236e+01
0.000000e+00
-4.159201e-01
-1.193492e+00
-2.177020e+00
-3.368379e+00
-4.706837e+00
-6.234919e+00
-7.930010e+00
-9.782775e+00
-1.181501e+01
-1.399506e+01
-1.635051e+01
-1.885901e+01
-2.157035e+01
-2.458705e+01
-2.800294e+01
-3.205278e+01
0.000000e+00
-3.903741e-01
-1.091671e+00
-2.073615e+00
-3.249270e+00
-4.580889e+00
-6.115211e+00
-7.800169e+00
-9.663790e+00
-1.169318e+01
-1.388440e+01
-1.625122e+01
-1.876993e+01
-2.150809e+01
-2.457707e+01
-2.785107e+01
-3.088359e+01
0.000000e+00
-4.493623e-01
-1.088049e+00
-2.047483e+00
-3.186850e+00
-4.511289e+00
-6.053603e+00
-7.723467e+00
-9.606180e+00
-1.163450e+01
-1.384747e+01
-1.623415e+01
-1.877840e+01
-2.151843e+01
-2.450740e+01
-2.754139e+01
-3.016727e+01
0.000000e+00
-4.562902e-01
-1.110452e+00
-2.031909e+00
-3.172498e+00
-4.501639e+00
-6.032043e+00
-7.721767e+00
-9.595935e+00
-1.164662e+01
-1.387405e+01
-1.626793e+01
-1.881966e+01
-2.151959e+01
-2.435681e+01
-2.717482e+01
-2.956276e+01
0.000000e+00
-4.480974e-01
-1.087728e+00
-2.049579e+00
-3.193831e+00
-4.528507e+00
-6.081200e+00
-7.760227e+00
-9.658011e+00
-1.171225e+01
-1.394442e+01
-1.632010e+01
-1.885056e+01
-2.150961e+01
-2.422189e+01
-2.685505e+01
-2.912438e+01
0.000000e+00
-3.886886e-01
-1.091685e+00
-2.078442e+00
-3.263092e+00
-4.610207e+00
-6.161006e+00
-7.869494e+00
-9.763024e+00
-1.182856e+01
-1.403082e+01
-1.638737e+01
-1.888977e+01
-2.150951e+01
-2.413951e+01
-2.664785e+01
-2.889064e+01
0.000000e+00
-4.143605e-01
-1.193601e+00
-2.182716e+00
-3.384625e+00
-4.738080e+00
-6.286021e+00
-8.010552e+00
-9.901594e+00
-1.196585e+01
-1.414586e+01
-1.648590e+01
-1.896693e+01
-2.155106e+01
-2.411899e+01
-2.656031e+01
-2.883016e+01
0.000000e+00
-6.177974e-01
-1.362562e+00
-2.369635e+00
-3.554076e+00
-4.912071e+00
-6.464261e+00
-8.178851e+00
-1.007430e+01
-1.212129e+01
-1.430101e+01
-1.663410e+01
-1.909057e+01
-2.163307e+01
-2.414361e+01
-2.654542e+01
-2.882901e+01


0.000000e+00
1.541817e-05
2.508234e-05
3.749343e-05
5.358454e-05
6.716818e-05
8.318385e-05
9.713567e-05
1.118660e-04
1.257456e-04
1.408876e-04
1.552341e-04
1.717900e-04
1.876106e-04
1.976938e-04
2.034376e-04
2.103709e-04
0.000000e+00
1.145754e-05
1.973630e-05
2.841473e-05
4.099177e-05
5.172270e-05
6.185019e-05
7.296254e-05
8.316517e-05
9.457779e-05
1.052322e-04
1.156257e-04
1.264866e-04
1.358428e-04
1.374489e-04
1.412025e-04
1.470254e-04
0.000000e+00
9.528649e-06
1.502519e-05
2.021209e-05
2.884473e-05
3.554799e-05
4.127910e-05
4.862725e-05
5.459820e-05
6.196906e-05
6.837203e-05
7.404704e-05
7.876047e-05
8.094486e-05
8.019493e-05
8.257115e-05
8.680288e-05
0.000000e+00
5.186709e-06
6.843988e-06
9.623312e-06
1.306264e-05
1.351943e-05
1.587128e-05
1.725485e-05
2.088679e-05
2.431351e-05
2.806530e-05
2.912727e-05
2.854476e-05
2.711782e-05
2.684035e-05
2.987456e-05
3.554550e-05
0.000000e+00
-1.759127e-07
-4.382931e-07
-8.623580e-07
-1.735646e-06
-2.898762e-06
-5.017100e-06
-7.265129e-06
-7.841159e-06
-7.888010e-06
-8.824264e-06
-1.196017e-05
-1.470430e-05
-1.613796e-05
-1.581326e-05
-1.366080e-05
-9.670899e-06
0.000000e+00
-5.452112e-06
-7.436078e-06
-1.075825e-05
-1.466863e-05
-1.608971e-05
-2.055713e-05
-2.432703e-05
-3.028425e-05
-3.343466e-05
-3.757873e-05
-4.223521e-05
-4.737425e-05
-4.916478e-05
-4.970649e-05
-5.017290e-05
-4.843692e-05
0.000000e+00
-9.527886e-06
-1.509216e-05
-2.038122e-05
-2.894705e-05
-3.534174e-05
-4.074917e-05
-4.874248e-05
-5.592142e-05
-6.363572e-05
-6.890861e-05
-7.391487e-05
-7.806242e-05
-8.165228e-05
-8.355324e-05
-8.546995e-05
-8.621598e-05
0.000000e+00
-1.138637e-05
-1.964818e-05
-2.830920e-05
-4.076667e-05
-5.166562e-05
-6.160589e-05
-7.279781e-05
-8.318897e-05
-9.458209e-05
-1.052194e-04
-1.136026e-04
-1.183908e-04
-1.234283e-04
-1.270448e-04
-1.283515e-04
-1.284470e-04
0.000000e+00
-1.542860e-05
-2.502299e-05
-3.733975e-05
-5.337373e-05
-6.699448e-05
-8.287680e-05
-9.586384e-05
-1.100004e-04
-1.232968e-04
-1.409583e-04
-1.567967e-04
-1.666129e-04
-1.718383e-04
-1.740425e-04
-1.742650e-04
-1.740857e-04
0.000000e+00
1.259639e-05
1.999701e-05
3.243377e-05
4.873765e-05
6.685754e-05
9.128877e-05
1.201161e-04
1.534156e-04
1.901519e-04
2.303131e-04
2.743198e-04
3.242440e-04
3.783741e-04
4.399120e-04
5.107669e-04
5.841702e-04
0.000000e+00
7.679690e-06
1.610688e-05
2.633242e-05
4.227604e-05
6.089748e-05
8.482882e-05
1.142461e-04
1.471727e-04
1.840334e-04
2.239755e-04
2.681093e-04
3.176718e-04
3.734297e-04
4.346577e-04
5.033863e-04
5.738177e-04
0.000000e+00
4.325411e-06
1.229003e-05
2.172244e-05
3.645484e-05
5.567469e-05
7.940621e-05
1.097377e-04
1.430140e-04
1.795458e-04
2.193873e-04
2.635698e-04
3.138869e-04
3.710350e-04
4.305096e-04
4.959084e-04
5.641358e-04
0.000000e+00
3.198678e-06
1.058893e-05
2.008248e-05
3.450760e-05
5.200302e-05
7.640195e-05
1.087396e-04
1.435601e-04
1.781109e-04
2.173454e-04
2.619267e-04
3.131278e-04
3.696205e-04
4.277726e-04
4.880753e-04
5.499793e-04
0.000000e+00
2.810316e-06
1.026577e-05
2.004169e-05
3.423966e-05
5.071143e-05
7.528306e-05
1.097803e-04
1.447711e-04
1.780276e-04
2.155538e-04
2.618610e-04
3.133475e-04
3.697622e-04
4.266301e-04
4.816934e-04
5.338525e-04
0.000000e+00
3.342436e-06
1.078030e-05
2.046001e-05
3.484960e-05
5.180747e-05
7.716675e-05
1.106732e-04
1.453869e-04
1.778563e-04
2.159373e-04
2.633225e-04
3.156904e-04
3.700923e-04
4.265363e-04
4.793725e-04
5.228204e-04
0.000000e+00
4.479567e-06
1.251962e-05
2.206951e-05
3.673577e-05
5.575857e-05
8.038701e-05
1.117435e-04
1.447274e-04
1.789568e-04
2.182032e-04
2.665338e-04
3.191838e-04
3.721983e-04
4.256299e-04
4.766220e-04
5.193400e-04
0.000000e+00
7.804651e-06
1.634462e-05
2.663567e-05
4.253667e-05
6.131122e-05
8.580044e-05
1.159190e-04
1.481907e-04
1.832543e-04
2.228312e-04
2.703058e-04
3.222304e-04
3.744026e-04
4.257797e-04
4.745991e-04
5.197994e-04
0.000000e+00
1.271009e-05
2.023495e-05
3.272696e-05
4.908008e-05
6.739851e-05
9.233313e-05
1.215775e-04
1.543823e-04
1.894248e-04
2.300950e-04
2.746680e-04
3.245307e-04
3.755610e-04
4.261001e-04
4.741155e-04
5.200630e-04


5.677429e+00
6.140215e+00
6.867238e+00
5.938366e+00
5.743256e+00
6.582454e+00
6.438168e+00
6.433789e+00
5.967449e+00
5.904504e+00
6.285016e+00
7.151632e+00
8.848701e+00
9.830518e+00
9.151401e+00
8.002385e+00
8.085032e+00
8.461778e+00
8.662208e+00
8.358285e+00
8.240360e+00
8.516286e+00
8.678287e+00
8.427983e+00
8.400449e+00
8.271099e+00
8.418088e+00
8.845253e+00
9.507459e+00
9.843163e+00
8.395499e+00
6.474505e+00
9.843531e+00
9.823929e+00
9.999509e+00
9.837893e+00
9.836264e+00
9.970724e+00
9.835747e+00
9.947719e+00
9.849114e+00
9.880946e+00
9.898750e+00
9.876518e+00
9.894832e+00
9.396108e+00
8.000869e+00
6.192156e+00
9.999758e+00
9.999754e+00
9.999752e+00
9.999728e+00
9.999695e+00
9.999628e+00
9.999553e+00
9.999552e+00
9.999594e+00
9.999587e+00
9.999408e+00
9.483553e+00
8.832329e+00
8.373902e+00
7.992808e+00
7.921674e+00
9.999757e+00
9.999751e+00
9.999746e+00
9.999714e+00
9.999659e+00
9.999537e+00
9.934792e+00
9.963341e+00
9.999221e+00
9.919095e+00
9.360474e+00
8.595122e+00
7.710659e+00
7.748838e+00
8.655109e+00
9.170483e+00
9.843966e+00
9.823886e+00
9.999483e+00
9.837720e+00
9.835882e+00
9.713164e+00
9.306619e+00
9.521101e+00
9.387616e+00
8.873901e+00
8.312426e+00
7.900837e+00
8.203544e+00
8.757186e+00
9.449524e+00
9.999141e+00
8.087567e+00
8.462878e+00
8.661625e+00
8.356771e+00
8.159482e+00
8.066344e+00
7.904864e+00
7.812912e+00
7.902826e+00
7.349386e+00
7.488201e+00
8.493700e+00
9.293737e+00
9.849331e+00
9.999499e+00
9.999700e+00
5.683762e+00
6.142291e+00
6.866276e+00
5.930584e+00
5.713258e+00
6.250422e+00
6.062822e+00
6.529894e+00
6.307134e+00
6.536415e+00
7.873618e+00
9.116761e+00
9.986999e+00
9.999610e+00
9.999732e+00
9.999774e+00


-8.190190e-01
-1.672947e-01
-3.974024e-01
-2.585144e-01
-9.293063e-02
-3.072368e-01
-1.233023e-01
-2.097473e-01
-1.618572e-01
-1.577650e-01
-2.153371e-01
-1.497127e-01
-4.613624e-01
-6.861077e-01
3.157298e-01
-8.469600e-01
6.107462e-01
4.814955e-01
2.952158e-01
2.252312e-01
2.910247e-01
1.679795e-01
1.750938e-01
1.732718e-01
1.095442e-01
1.483341e-01
1.279332e-01
2.413537e-01
3.024740e-01
5.092699e-01
6.953470e-01
-9.344485e-01
7.226943e-01
4.716315e-01
5.641232e-02
-2.247118e-02
-3.616142e-02
-1.888279e-01
-8.018951e-02
-1.381086e-01
-7.745853e-02
-1.901391e-02
3.129744e-02
1.854403e-01
2.782338e-01
1.479496e-01
-2.538407e-02
-1.678599e-01
7.279522e-01
5.564408e-01
1.928091e-01
6.148964e-02
-2.219060e-02
-1.069057e-01
-1.637604e-02
-6.210027e-02
1.314523e-02
1.677569e-02
5.858897e-02
1.174346e-01
5.872466e-02
-2.623380e-01
-3.840327e-01
-7.821927e-02
7.308555e-01
5.603858e-01
2.008129e-01
6.968098e-02
-1.823488e-02
-1.128545e-01
-3.643914e-02
-1.028595e-01
-5.249418e-02
-4.368387e-02
2.089155e-02
1.398277e-02
-3.781622e-02
-1.298691e-01
-1.026805e-01
3.104765e-01
7.295053e-01
4.818494e-01
7.448311e-02
-4.505298e-03
-2.407061e-02
-1.625167e-01
-7.327970e-02
-1.877252e-01
-1.820564e-01
-1.091009e-01
-7.756030e-02
-9.780992e-02
-1.115831e-01
4.538988e-02
3.340931e-01
7.245455e-01
6.148299e-01
4.873658e-01
3.026691e-01
2.302069e-01
2.871382e-01
1.614277e-01
1.522911e-01
1.034360e-01
-5.762057e-02
-4.004720e-02
-9.643563e-02
-5.662517e-02
5.729780e-02
3.650981e-01
7.128561e-01
9.478991e-01
-8.247171e-01
-1.727569e-01
-4.050425e-01
-2.616352e-01
-9.209010e-02
-3.012816e-01
-1.193161e-01
-1.572317e-01
-5.599943e-02
-2.186922e-02
-9.260144e-02
1.001971e-01
3.878263e-01
7.721331e-01
9.528997e-01
9.987355e-01
1 2 19 18
2 3 20 19
3 4 21 20
4 5 22 21
5 6 23 22
6 7 24 23
7 8 25 24
8 9 26 25
9 10 27 26
10 11 28 27
11 12 29 28
12 13 30 29
13 14 31 30
14 15 32 31
15 16 33 32
16 17 34 33
18 19 36 35
19 20 37 36
20 21 38 37
21 22 39 38
22 23 40 39
23 24 41 40
24 25 42 41
25 26 43 42
26 27 44 43
27 28 45 44
28 29 46 45
29 30 47 46
30 31 48 47
31 32 49 48
32 33 50 49
33 34 51 50
35 36 53 52
36 37 54 53
37 38 55 54
38 39 56 55
39 40 57 56
40 41 58 57
41 42 59 58
42 43 60 59
43 44 61 60
44 45 62 61
45 46 63 62
46 47 64 63
47 48 65 64
48 49 66 65
49 50 67 66
50 51 68 67
52 53 70 69
53 54 71 70
54 55 72 71
55 56 73 72
56 57 74 73
57 58 75 74
58 59 76 75
59 60 77 76
60 61 78 77
61 62 79 78
62 63 80 79
63 64 81 80
64 65 82 81
65 66 83 82
66 67 84 83
67 68 85 84
69 70 87 86
70 71 88 87
71 72 89 88
72 73 90 89
73 74 91 90
74 75 92 91
75 76 93 92
76 77 94 93
77 78 95 94
78 79 96 95
79 80 97 96
80 81 98 97
81 82 99 98
82 83 100 99
83 84 101 100
84 85 102 101
86 87 104 103
87 88 105 104
88 89 106 105
89 90 107 106
90 91 108 107
91 92 109 108
92 93 110 109
93 94 111 110
94 95 112 111
95 96 113 112
96 97 114 113
97 98 115 114
98 99 116 115
99 100 117 116
100 101 118 117
101 102 119 118
103 104 121 120
104 105 122 121
105 106 123 122
106 107 124 123
107 108 125 124
108 109 126 125
109 110 127 126
110 111 128 127
111 112 129 128
112 113 130 129
113 114 131 130
114 115 132 131
115 116 133 132
116 117 134 133
117 118 135 134
118 119 136 135
120 121 138 137
121 122 139 138
122 123 140 139
123 124 141 140
124 125 142 141
125 126 143 142
126 127 144 143
127 128 145 144
128 129 146 145
129 130 147 146
130 131 148 147
131 132 149 148
132 133 150 149
133 134 151 150
134 135 152 151
135 136 153 152
