TITLE = "Solution"
VARIABLES = x, y, u, v, psiu, psiv, t, stress
ZONE T="structure" N=561 E=512 F=FEBLOCK ET=QUADRILATERAL VARLOCATION=([7,8]=cellcentered)
0.000000e+00
6.250000e+00
1.250000e+01
1.875000e+01
2.500000e+01
3.125000e+01
3.750000e+01
4.375000e+01
5.000000e+01
5.625000e+01
6.250000e+01
6.875000e+01
7.500000e+01
8.125000e+01
8.750000e+01
9.375000e+01
1.000000e+02
1.062500e+02
1.125000e+02
1.187500e+02
1.250000e+02
1.312500e+02
1.375000e+02
1.437500e+02
1.500000e+02
1.562500e+02
1.625000e+02
1.687500e+02
1.750000e+02
1.812500e+02
1.875000e+02
1.937500e+02
2.000000e+02
0.000000e+00
6.250000e+00
1.250000e+01
1.875000e+01
2.500000e+01
3.125000e+01
3.750000e+01
4.375000e+01
5.000000e+01
5.625000e+01
6.250000e+01
6.875000e+01
7.500000e+01
8.125000e+01
8.750000e+01
9.375000e+01
1.000000e+02
1.062500e+02
1.125000e+02
1.187500e+02
1.250000e+02
1.312500e+02
1.375000e+02
1.437500e+02
1.500000e+02
1.562500e+02
1.625000e+02
1.687500e+02
1.750000e+02
1.812500e+02
1.875000e+02
1.937500e+02
2.000000e+02
0.000000e+00
6.250000e+00
1.250000e+01
1.875000e+01
2.500000e+01
3.125000e+01
3.750000e+01
4.375000e+01
5.000000e+01
5.625000e+01
6.250000e+01
6.875000e+01
7.500000e+01
8.125000e+01
8.750000e+01
9.375000e+01
1.000000e+02
1.062500e+02
1.125000e+02
1.187500e+02
1.250000e+02
1.312500e+02
1.375000e+02
1.437500e+02
1.500000e+02
1.562500e+02
1.625000e+02
1.687500e+02
1.750000e+02
1.812500e+02
1.875000e+02
1.937500e+02
2.000000e+02
0.000000e+00
6.250000e+00
1.250000e+01
1.875000e+01
2.500000e+01
3.125000e+01
3.750000e+01
4.375000e+01
5.000000e+01
5.625000e+01
6.250000e+01
6.875000e+01
7.500000e+01
8.125000e+01
8.750000e+01
9.375000e+01
1.000000e+02
1.062500e+02
1.125000e+02
1.187500e+02
1.250000e+02
1.312500e+02
1.375000e+02
1.437500e+02
1.500000e+02
1.562500e+02
1.625000e+02
1.687500e+02
1.750000e+02
1.812500e+02
1.875000e+02
1.937500e+02
2.000000e+02
0.000000e+00
6.250000e+00
1.250000e+01
1.875000e+01
2.500000e+01
3.125000e+01
3.750000e+01
4.375000e+01
5.000000e+01
5.625000e+01
6.250000e+01
6.875000e+01
7.500000e+01
8.125000e+01
8.750000e+01
9.375000e+01
1.000000e+02
1.062500e+02
1.125000e+02
1.187500e+02
1.250000e+02
1.312500e+02
1.375000e+02
1.437500e+02
1.500000e+02
1.562500e+02
1.625000e+02
1.687500e+02
1.750000e+02
1.812500e+02
1.875000e+02
1.937500e+02
2.000000e+02
0.000000e+00
6.250000e+00
1.250000e+01
1.875000e+01
2.500000e+01
3.125000e+01
3.750000e+01
4.375000e+01
5.000000e+01
5.625000e+01
6.250000e+01
6.875000e+01
7.500000e+01
8.125000e+01
8.750000e+01
9.375000e+01
1.000000e+02
1.062500e+02
1.125000e+02
1.187500e+02
1.250000e+02
1.312500e+02
1.375000e+02
1.437500e+02
1.500000e+02
1.562500e+02
1.625000e+02
1.687500e+02
1.750000e+02
1.812500e+02
1.875000e+02
1.937500e+02
2.000000e+02
0.000000e+00
6.250000e+00
1.250000e+01
1.875000e+01
2.500000e+01
3.125000e+01
3.750000e+01
4.375000e+01
5.000000e+01
5.625000e+01
6.250000e+01
6.875000e+01
7.500000e+01
8.125000e+01
8.750000e+01
9.375000e+01
1.000000e+02
1.062500e+02
1.125000e+02
1.187500e+02
1.250000e+02
1.312500e+02
1.375000e+02
1.437500e+02
1.500000e+02
1.562500e+02
1.625000e+02
1.687500e+02
1.750000e+02
1.812500e+02
1.875000e+02
1.937500e+02
2.000000e+02
0.000000e+00
6.250000e+00
1.250000e+01
1.875000e+01
2.500000e+01
3.125000e+01
3.750000e+01
4.375000e+01
5.000000e+01
5.625000e+01
6.250000e+01
6.875000e+01
7.500000e+01
8.125000e+01
8.750000e+01
9.375000e+01
1.000000e+02
1.062500e+02
1.125000e+02
1.187500e+02
1.250000e+02
1.312500e+02
1.375000e+02
1.437500e+02
1.500000e+02
1.562500e+02
1.625000e+02
1.687500e+02
1.750000e+02
1.812500e+02
1.875000e+02
1.937500e+02
2.000000e+02
0.000000e+00
6.250000e+00
1.250000e+01
1.875000e+01
2.500000e+01
3.125000e+01
3.750000e+01
4.375000e+01
5.000000e+01
5.625000e+01
6.250000e+01
6.875000e+01
7.500000e+01
8.125000e+01
8.750000e+01
9.375000e+01
1.000000e+02
1.062500e+02
1.125000e+02
1.187500e+02
1.250000e+02
1.312500e+02
1.375000e+02
1.437500e+02
1.500000e+02
1.562500e+02
1.625000e+02
1.687500e+02
1.750000e+02
1.812500e+02
1.875000e+02
1.937500e+02
2.000000e+02
0.000000e+00
6.250000e+00
1.250000e+01
1.875000e+01
2.500000e+01
3.125000e+01
3.750000e+01
4.375000e+01
5.000000e+01
5.625000e+01
6.250000e+01
6.875000e+01
7.500000e+01
8.125000e+01
8.750000e+01
9.375000e+01
1.000000e+02
1.062500e+02
1.125000e+02
1.187500e+02
1.250000e+02
1.312500e+02
1.375000e+02
1.437500e+02
1.500000e+02
1.562500e+02
1.625000e+02
1.687500e+02
1.750000e+02
1.812500e+02
1.875000e+02
1.937500e+02
2.000000e+02
0.000000e+00
6.250000e+00
1.250000e+01
1.875000e+01
2.500000e+01
3.125000e+01
3.750000e+01
4.375000e+01
5.000000e+01
5.625000e+01
6.250000e+01
6.875000e+01
7.500000e+01
8.125000e+01
8.750000e+01
9.375000e+01
1.000000e+02
1.062500e+02
1.125000e+02
1.187500e+02
1.250000e+02
1.312500e+02
1.375000e+02
1.437500e+02
1.500000e+02
1.562500e+02
1.625000e+02
1.687500e+02
1.750000e+02
1.812500e+02
1.875000e+02
1.937500e+02
2.000000e+02
0.000000e+00
6.250000e+00
1.250000e+01
1.875000e+01
2.500000e+01
3.125000e+01
3.750000e+01
4.375000e+01
5.000000e+01
5.625000e+01
6.250000e+01
6.875000e+01
7.500000e+01
8.125000e+01
8.750000e+01
9.375000e+01
1.000000e+02
1.062500e+02
1.125000e+02
1.187500e+02
1.250000e+02
1.312500e+02
1.375000e+02
1.437500e+02
1.500000e+02
1.562500e+02
1.625000e+02
1.687500e+02
1.750000e+02
1.812500e+02
1.875000e+02
1.937500e+02
2.000000e+02
0.000000e+00
6.250000e+00
1.250000e+01
1.875000e+01
2.500000e+01
3.125000e+01
3.750000e+01
4.375000e+01
5.000000e+01
5.625000e+01
6.250000e+01
6.875000e+01
7.500000e+01
8.125000e+01
8.750000e+01
9.375000e+01
1.000000e+02
1.062500e+02
1.125000e+02
1.187500e+02
1.250000e+02
1.312500e+02
1.375000e+02
1.437500e+02
1.500000e+02
1.562500e+02
1.625000e+02
1.687500e+02
1.750000e+02
1.812500e+02
1.875000e+02
1.937500e+02
2.000000e+02
0.000000e+00
6.250000e+00
1.250000e+01
1.875000e+01
2.500000e+01
3.125000e+01
3.750000e+01
4.375000e+01
5.000000e+01
5.625000e+01
6.250000e+01
6.875000e+01
7.500000e+01
8.125000e+01
8.750000e+01
9.375000e+01
1.000000e+02
1.062500e+02
1.125000e+02
1.187500e+02
1.250000e+02
1.312500e+02
1.375000e+02
1.437500e+02
1.500000e+02
1.562500e+02
1.625000e+02
1.687500e+02
1.750000e+02
1.812500e+02
1.875000e+02
1.937500e+02
2.000000e+02
0.000000e+00
6.250000e+00
1.250000e+01
1.875000e+01
2.500000e+01
3.125000e+01
3.750000e+01
4.375000e+01
5.000000e+01
5.625000e+01
6.250000e+01
6.875000e+01
7.500000e+01
8.125000e+01
8.750000e+01
9.375000e+01
1.000000e+02
1.062500e+02
1.125000e+02
1.187500e+02
1.250000e+02
1.312500e+02
1.375000e+02
1.437500e+02
1.500000e+02
1.562500e+02
1.625000e+02
1.687500e+02
1.750000e+02
1.812500e+02
1.875000e+02
1.937500e+02
2.000000e+02
0.000000e+00
6.250000e+00
1.250000e+01
1.875000e+01
2.500000e+01
3.125000e+01
3.750000e+01
4.375000e+01
5.000000e+01
5.625000e+01
6.250000e+01
6.875000e+01
7.500000e+01
8.125000e+01
8.750000e+01
9.375000e+01
1.000000e+02
1.062500e+02
1.125000e+02
1.187500e+02
1.250000e+02
1.312500e+02
1.375000e+02
1.437500e+02
1.500000e+02
1.562500e+02
1.625000e+02
1.687500e+02
1.750000e+02
1.812500e+02
1.875000e+02
1.937500e+02
2.000000e+02
0.000000e+00
6.250000e+00
1.250000e+01
1.875000e+01
2.500000e+01
3.125000e+01
3.750000e+01
4.375000e+01
5.000000e+01
5.625000e+01
6.250000e+01
6.875000e+01
7.500000e+01
8.125000e+01
8.750000e+01
9.375000e+01
1.000000e+02
1.062500e+02
1.125000e+02
1.187500e+02
1.250000e+02
1.312500e+02
1.375000e+02
1.437500e+02
1.500000e+02
1.562500e+02
1.625000e+02
1.687500e+02
1.750000e+02
1.812500e+02
1.875000e+02
1.937500e+02
2.000000e+02
0.000000e+00
0.000000e+00
0.000000e+00
0.000000e+00
0.000000e+00
0.000000e+00
0.000000e+00
0.000000e+00
0.000000e+00
0.000000e+00
0.000000e+00
0.000000e+00
0.000000e+00
0.000000e+00
0.000000e+00
0.000000e+00
0.000000e+00
0.000000e+00
0.000000e+00
0.000000e+00
0.000000e+00
0.000000e+00
0.000000e+00
0.000000e+00
0.000000e+00
0.000000e+00
0.000000e+00
0.000000e+00
0.000000e+00
0.000000e+00
0.000000e+00
0.000000e+00
0.000000e+00
6.250000e+00
6.250000e+00
6.250000e+00
6.250000e+00
6.250000e+00
6.250000e+00
6.250000e+00
6.250000e+00
6.250000e+00
6.250000e+00
6.250000e+00
6.250000e+00
6.250000e+00
6.250000e+00
6.250000e+00
6.250000e+00
6.250000e+00
6.250000e+00
6.250000e+00
6.250000e+00
6.250000e+00
6.250000e+00
6.250000e+00
6.250000e+00
6.250000e+00
6.250000e+00
6.250000e+00
6.250000e+00
6.250000e+00
6.250000e+00
6.250000e+00
6.250000e+00
6.250000e+00
1.250000e+01
1.250000e+01
1.250000e+01
1.250000e+01
1.250000e+01
1.250000e+01
1.250000e+01
1.250000e+01
1.250000e+01
1.250000e+01
1.250000e+01
1.250000e+01
1.250000e+01
1.250000e+01
1.250000e+01
1.250000e+01
1.250000e+01
1.250000e+01
1.250000e+01
1.250000e+01
1.250000e+01
1.250000e+01
1.250000e+01
1.250000e+01
1.250000e+01
1.250000e+01
1.250000e+01
1.250000e+01
1.250000e+01
1.250000e+01
1.250000e+01
1.250000e+01
1.250000e+01
1.875000e+01
1.875000e+01
1.875000e+01
1.875000e+01
1.875000e+01
1.875000e+01
1.875000e+01
1.875000e+01
1.875000e+01
1.875000e+01
1.875000e+01
1.875000e+01
1.875000e+01
1.875000e+01
1.875000e+01
1.875000e+01
1.875000e+01
1.875000e+01
1.875000e+01
1.875000e+01
1.875000e+01
1.875000e+01
1.875000e+01
1.875000e+01
1.875000e+01
1.875000e+01
1.875000e+01
1.875000e+01
1.875000e+01
1.875000e+01
1.875000e+01
1.875000e+01
1.875000e+01
2.500000e+01
2.500000e+01
2.500000e+01
2.500000e+01
2.500000e+01
2.500000e+01
2.500000e+01
2.500000e+01
2.500000e+01
2.500000e+01
2.500000e+01
2.500000e+01
2.500000e+01
2.500000e+01
2.500000e+01
2.500000e+01
2.500000e+01
2.500000e+01
2.500000e+01
2.500000e+01
2.500000e+01
2.500000e+01
2.500000e+01
2.500000e+01
2.500000e+01
2.500000e+01
2.500000e+01
2.500000e+01
2.500000e+01
2.500000e+01
2.500000e+01
2.500000e+01
2.500000e+01
3.125000e+01
3.125000e+01
3.125000e+01
3.125000e+01
3.125000e+01
3.125000e+01
3.125000e+01
3.125000e+01
3.125000e+01
3.125000e+01
3.125000e+01
3.125000e+01
3.125000e+01
3.125000e+01
3.125000e+01
3.125000e+01
3.125000e+01
3.125000e+01
3.125000e+01
3.125000e+01
3.125000e+01
3.125000e+01
3.125000e+01
3.125000e+01
3.125000e+01
3.125000e+01
3.125000e+01
3.125000e+01
3.125000e+01
3.125000e+01
3.125000e+01
3.125000e+01
3.125000e+01
3.750000e+01
3.750000e+01
3.750000e+01
3.750000e+01
3.750000e+01
3.750000e+01
3.750000e+01
3.750000e+01
3.750000e+01
3.750000e+01
3.750000e+01
3.750000e+01
3.750000e+01
3.750000e+01
3.750000e+01
3.750000e+01
3.750000e+01
3.750000e+01
3.750000e+01
3.750000e+01
3.750000e+01
3.750000e+01
3.750000e+01
3.750000e+01
3.750000e+01
3.750000e+01
3.750000e+01
3.750000e+01
3.750000e+01
3.750000e+01
3.750000e+01
3.750000e+01
3.750000e+01
4.375000e+01
4.375000e+01
4.375000e+01
4.375000e+01
4.375000e+01
4.375000e+01
4.375000e+01
4.375000e+01
4.375000e+01
4.375000e+01
4.375000e+01
4.375000e+01
4.375000e+01
4.375000e+01
4.375000e+01
4.375000e+01
4.375000e+01
4.375000e+01
4.375000e+01
4.375000e+01
4.375000e+01
4.375000e+01
4.375000e+01
4.375000e+01
4.375000e+01
4.375000e+01
4.375000e+01
4.375000e+01
4.375000e+01
4.375000e+01
4.375000e+01
4.375000e+01
4.375000e+01
5.000000e+01
5.000000e+01
5.000000e+01
5.000000e+01
5.000000e+01
5.000000e+01
5.000000e+01
5.000000e+01
5.000000e+01
5.000000e+01
5.000000e+01
5.000000e+01
5.000000e+01
5.000000e+01
5.000000e+01
5.000000e+01
5.000000e+01
5.000000e+01
5.000000e+01
5.000000e+01
5.000000e+01
5.000000e+01
5.000000e+01
5.000000e+01
5.000000e+01
5.000000e+01
5.000000e+01
5.000000e+01
5.000000e+01
5.000000e+01
5.000000e+01
5.000000e+01
5.000000e+01
5.625000e+01
5.625000e+01
5.625000e+01
5.625000e+01
5.625000e+01
5.625000e+01
5.625000e+01
5.625000e+01
5.625000e+01
5.625000e+01
5.625000e+01
5.625000e+01
5.625000e+01
5.625000e+01
5.625000e+01
5.625000e+01
5.625000e+01
5.625000e+01
5.625000e+01
5.625000e+01
5.625000e+01
5.625000e+01
5.625000e+01
5.625000e+01
5.625000e+01
5.625000e+01
5.625000e+01
5.625000e+01
5.625000e+01
5.625000e+01
5.625000e+01
5.625000e+01
5.625000e+01
6.250000e+01
6.250000e+01
6.250000e+01
6.250000e+01
6.250000e+01
6.250000e+01
6.250000e+01
6.250000e+01
6.250000e+01
6.250000e+01
6.250000e+01
6.250000e+01
6.250000e+01
6.250000e+01
6.250000e+01
6.250000e+01
6.250000e+01
6.250000e+01
6.250000e+01
6.250000e+01
6.250000e+01
6.250000e+01
6.250000e+01
6.250000e+01
6.250000e+01
6.250000e+01
6.250000e+01
6.250000e+01
6.250000e+01
6.250000e+01
6.250000e+01
6.250000e+01
6.250000e+01
6.875000e+01
6.875000e+01
6.875000e+01
6.875000e+01
6.875000e+01
6.875000e+01
6.875000e+01
6.875000e+01
6.875000e+01
6.875000e+01
6.875000e+01
6.875000e+01
6.875000e+01
6.875000e+01
6.875000e+01
6.875000e+01
6.875000e+01
6.875000e+01
6.875000e+01
6.875000e+01
6.875000e+01
6.875000e+01
6.875000e+01
6.875000e+01
6.875000e+01
6.875000e+01
6.875000e+01
6.875000e+01
6.875000e+01
6.875000e+01
6.875000e+01
6.875000e+01
6.875000e+01
7.500000e+01
7.500000e+01
7.500000e+01
7.500000e+01
7.500000e+01
7.500000e+01
7.500000e+01
7.500000e+01
7.500000e+01
7.500000e+01
7.500000e+01
7.500000e+01
7.500000e+01
7.500000e+01
7.500000e+01
7.500000e+01
7.500000e+01
7.500000e+01
7.500000e+01
7.500000e+01
7.500000e+01
7.500000e+01
7.500000e+01
7.500000e+01
7.500000e+01
7.500000e+01
7.500000e+01
7.500000e+01
7.500000e+01
7.500000e+01
7.500000e+01
7.500000e+01
7.500000e+01
8.125000e+01
8.125000e+01
8.125000e+01
8.125000e+01
8.125000e+01
8.125000e+01
8.125000e+01
8.125000e+01
8.125000e+01
8.125000e+01
8.125000e+01
8.125000e+01
8.125000e+01
8.125000e+01
8.125000e+01
8.125000e+01
8.125000e+01
8.125000e+01
8.125000e+01
8.125000e+01
8.125000e+01
8.125000e+01
8.125000e+01
8.125000e+01
8.125000e+01
8.125000e+01
8.125000e+01
8.125000e+01
8.125000e+01
8.125000e+01
8.125000e+01
8.125000e+01
8.125000e+01
8.750000e+01
8.750000e+01
8.750000e+01
8.750000e+01
8.750000e+01
8.750000e+01
8.750000e+01
8.750000e+01
8.750000e+01
8.750000e+01
8.750000e+01
8.750000e+01
8.750000e+01
8.750000e+01
8.750000e+01
8.750000e+01
8.750000e+01
8.750000e+01
8.750000e+01
8.750000e+01
8.750000e+01
8.750000e+01
8.750000e+01
8.750000e+01
8.750000e+01
8.750000e+01
8.750000e+01
8.750000e+01
8.750000e+01
8.750000e+01
8.750000e+01
8.750000e+01
8.750000e+01
9.375000e+01
9.375000e+01
9.375000e+01
9.375000e+01
9.375000e+01
9.375000e+01
9.375000e+01
9.375000e+01
9.375000e+01
9.375000e+01
9.375000e+01
9.375000e+01
9.375000e+01
9.375000e+01
9.375000e+01
9.375000e+01
9.375000e+01
9.375000e+01
9.375000e+01
9.375000e+01
9.375000e+01
9.375000e+01
9.375000e+01
9.375000e+01
9.375000e+01
9.375000e+01
9.375000e+01
9.375000e+01
9.375000e+01
9.375000e+01
9.375000e+01
9.375000e+01
9.375000e+01
1.000000e+02
1.000000e+02
1.000000e+02
1.000000e+02
1.000000e+02
1.000000e+02
1.000000e+02
1.000000e+02
1.000000e+02
1.000000e+02
1.000000e+02
1.000000e+02
1.000000e+02
1.000000e+02
1.000000e+02
1.000000e+02
1.000000e+02
1.000000e+02
1.000000e+02
1.000000e+02
1.000000e+02
1.000000e+02
1.000000e+02
1.000000e+02
1.000000e+02
1.000000e+02
1.000000e+02
1.000000e+02
1.000000e+02
1.000000e+02
1.000000e+02
1.000000e+02
1.000000e+02
0.000000e+00
-4.237678e-02
-7.688703e-02
-1.088559e-01
-1.395370e-01
-1.691643e-01
-1.977972e-01
-2.254332e-01
-2.520549e-01
-2.776430e-01
-3.021813e-01
-3.256589e-01
-3.480700e-01
-3.694141e-01
-3.896963e-01
-4.089272e-01
-4.271240e-01
-4.443118e-01
-4.605252e-01
-4.758107e-01
-4.902305e-01
-5.038668e-01
-5.168283e-01
-5.292591e-01
-5.413522e-01
-5.533700e-01
-5.656771e-01
-5.787930e-01
-5.934803e-01
-6.108609e-01
-6.323903e-01
-6.580475e-01
-6.737057e-01
0.000000e+00
-2.841249e-02
-5.911524e-02
-8.806388e-02
-1.155784e-01
-1.419209e-01
-1.672305e-01
-1.915680e-01
-2.149579e-01
-2.374079e-01
-2.589195e-01
-2.794928e-01
-2.991287e-01
-3.178304e-01
-3.356042e-01
-3.524598e-01
-3.684117e-01
-3.834795e-01
-3.976894e-01
-4.110753e-01
-4.236804e-01
-4.355593e-01
-4.467795e-01
-4.574240e-01
-4.675916e-01
-4.773961e-01
-4.869578e-01
-4.963754e-01
-5.056484e-01
-5.144750e-01
-5.218301e-01
-5.261301e-01
-5.321165e-01
0.000000e+00
-2.253686e-02
-4.639754e-02
-7.069151e-02
-9.429773e-02
-1.170340e-01
-1.388858e-01
-1.598739e-01
-1.800168e-01
-1.993271e-01
-2.178132e-01
-2.354807e-01
-2.523346e-01
-2.683798e-01
-2.836223e-01
-2.980694e-01
-3.117306e-01
-3.246177e-01
-3.367450e-01
-3.481300e-01
-3.587925e-01
-3.687541e-01
-3.780361e-01
-3.866548e-01
-3.946137e-01
-4.018872e-01
-4.083923e-01
-4.139373e-01
-4.181473e-01
-4.204142e-01
-4.202155e-01
-4.189425e-01
-4.259331e-01
0.000000e+00
-1.788100e-02
-3.674953e-02
-5.613458e-02
-7.547421e-02
-9.434539e-02
-1.125865e-01
-1.301396e-01
-1.469890e-01
-1.631340e-01
-1.785787e-01
-1.933284e-01
-2.073880e-01
-2.207619e-01
-2.334540e-01
-2.454680e-01
-2.568072e-01
-2.674744e-01
-2.774719e-01
-2.868002e-01
-2.954569e-01
-3.034341e-01
-3.107141e-01
-3.172631e-01
-3.230205e-01
-3.278847e-01
-3.316948e-01
-3.342179e-01
-3.351813e-01
-3.344661e-01
-3.327292e-01
-3.326255e-01
-3.392857e-01
0.000000e+00
-1.387815e-02
-2.841772e-02
-4.342175e-02
-5.854767e-02
-7.348807e-02
-8.803681e-02
-1.020895e-01
-1.155987e-01
-1.285462e-01
-1.409272e-01
-1.527423e-01
-1.639938e-01
-1.746835e-01
-1.848122e-01
-1.943789e-01
-2.033807e-01
-2.118121e-01
-2.196645e-01
-2.269246e-01
-2.335730e-01
-2.395812e-01
-2.449082e-01
-2.494955e-01
-2.532619e-01
-2.561008e-01
-2.578873e-01
-2.585140e-01
-2.579999e-01
-2.567419e-01
-2.559258e-01
-2.578105e-01
-2.634919e-01
0.000000e+00
-1.019963e-02
-2.083626e-02
-3.181460e-02
-4.294498e-02
-5.401961e-02
-6.487356e-02
-7.539962e-02
-8.553893e-02
-9.526288e-02
-1.045594e-01
-1.134242e-01
-1.218558e-01
-1.298528e-01
-1.374120e-01
-1.445280e-01
-1.511925e-01
-1.573933e-01
-1.631136e-01
-1.683310e-01
-1.730161e-01
-1.771309e-01
-1.806274e-01
-1.834468e-01
-1.855224e-01
-1.867889e-01
-1.872090e-01
-1.868320e-01
-1.859026e-01
-1.850184e-01
-1.852337e-01
-1.876363e-01
-1.923374e-01
0.000000e+00
-6.712584e-03
-1.369068e-02
-2.089014e-02
-2.820831e-02
-3.552199e-02
-4.272089e-02
-4.972462e-02
-5.648285e-02
-6.296784e-02
-6.916555e-02
-7.506892e-02
-8.067343e-02
-8.597443e-02
-9.096551e-02
-9.563754e-02
-9.997793e-02
-1.039700e-01
-1.075923e-01
-1.108181e-01
-1.136152e-01
-1.159454e-01
-1.177666e-01
-1.190356e-01
-1.197175e-01
-1.198021e-01
-1.193359e-01
-1.184732e-01
-1.175422e-01
-1.170910e-01
-1.177950e-01
-1.201342e-01
-1.239290e-01
0.000000e+00
-3.334139e-03
-6.794327e-03
-1.036278e-02
-1.399443e-02
-1.763191e-02
-2.122073e-02
-2.471827e-02
-2.809571e-02
-3.133546e-02
-3.442710e-02
-3.736373e-02
-4.013934e-02
-4.274705e-02
-4.517797e-02
-4.742043e-02
-4.945938e-02
-5.127600e-02
-5.284745e-02
-5.414697e-02
-5.514453e-02
-5.580854e-02
-5.610933e-02
-5.602567e-02
-5.555590e-02
-5.473589e-02
-5.366487e-02
-5.253636e-02
-5.166031e-02
-5.144085e-02
-5.226689e-02
-5.430752e-02
-5.731858e-02
0.000000e+00
-5.379305e-06
-1.166387e-05
-1.850553e-05
-2.554443e-05
-3.229532e-05
-3.802695e-05
-4.162805e-05
-4.145083e-05
-3.512253e-05
-1.931793e-05
1.051118e-05
6.044917e-05
1.384655e-04
2.547827e-04
4.222312e-04
6.565370e-04
9.764516e-04
1.403585e-03
1.961729e-03
2.675341e-03
3.566747e-03
4.651411e-03
5.930509e-03
7.380080e-03
8.936625e-03
1.048097e-02
1.182646e-02
1.272463e-02
1.290677e-02
1.217337e-02
1.051247e-02
8.186280e-03
0.000000e+00
3.324007e-03
6.772313e-03
1.032778e-02
1.394601e-02
1.757052e-02
2.114817e-02
2.463842e-02
2.801552e-02
3.126633e-02
3.438664e-02
3.737810e-02
4.024614e-02
4.299888e-02
4.564673e-02
4.820226e-02
5.068024e-02
5.309749e-02
5.547243e-02
5.782406e-02
6.016994e-02
6.252299e-02
6.488657e-02
6.724754e-02
6.956754e-02
7.177335e-02
7.374951e-02
7.533893e-02
7.636019e-02
7.664932e-02
7.612568e-02
7.486397e-02
7.313748e-02
0.000000e+00
6.704308e-03
1.367257e-02
2.086115e-02
2.816788e-02
3.547025e-02
4.265903e-02
4.965546e-02
5.641166e-02
6.290344e-02
6.912180e-02
7.506660e-02
8.074265e-02
8.615760e-02
9.132096e-02
9.624371e-02
1.009382e-01
1.054178e-01
1.096964e-01
1.137873e-01
1.177010e-01
1.214426e-01
1.250069e-01
1.283734e-01
1.314998e-01
1.343167e-01
1.367262e-01
1.386081e-01
1.398398e-01
1.403323e-01
1.400791e-01
1.392060e-01
1.380010e-01
0.000000e+00
1.019435e-02
2.082449e-02
3.179545e-02
4.291778e-02
5.398411e-02
6.483012e-02
7.534962e-02
8.548526e-02
9.521068e-02
1.045170e-01
1.134044e-01
1.218775e-01
1.299428e-01
1.376079e-01
1.448810e-01
1.517706e-01
1.582855e-01
1.644341e-01
1.702234e-01
1.756574e-01
1.807350e-01
1.854463e-01
1.897690e-01
1.936650e-01
1.970777e-01
1.999334e-01
2.021498e-01
2.036528e-01
2.044060e-01
2.044483e-01
2.039362e-01
2.031747e-01
0.000000e+00
1.387684e-02
2.841444e-02
4.341588e-02
5.853859e-02
7.347528e-02
8.801997e-02
1.020686e-01
1.155741e-01
1.285191e-01
1.408996e-01
1.527178e-01
1.639779e-01
1.746848e-01
1.848428e-01
1.944562e-01
2.035285e-01
2.120627e-01
2.200609e-01
2.275235e-01
2.344482e-01
2.408286e-01
2.466525e-01
2.518998e-01
2.565409e-01
2.605369e-01
2.638420e-01
2.664108e-01
2.682110e-01
2.692453e-01
2.695808e-01
2.693885e-01
2.689873e-01
0.000000e+00
1.788432e-02
3.675628e-02
5.614463e-02
7.548726e-02
9.436108e-02
1.126043e-01
1.301586e-01
1.470077e-01
1.631502e-01
1.785889e-01
1.933274e-01
2.073684e-01
2.207136e-01
2.333631e-01
2.453159e-01
2.565699e-01
2.671212e-01
2.769647e-01
2.860934e-01
2.944981e-01
3.021671e-01
3.090858e-01
3.152368e-01
3.206004e-01
3.251565e-01
3.288881e-01
3.317868e-01
3.338613e-01
3.351505e-01
3.357435e-01
3.358143e-01
3.356811e-01
0.000000e+00
2.254497e-02
4.641485e-02
7.071862e-02
9.433515e-02
1.170822e-01
1.389448e-01
1.599431e-01
1.800941e-01
1.994087e-01
2.178920e-01
2.355454e-01
2.523679e-01
2.683561e-01
2.835051e-01
2.978080e-01
3.112561e-01
3.238383e-01
3.355414e-01
3.463496e-01
3.562454e-01
3.652095e-01
3.732224e-01
3.802660e-01
3.863272e-01
3.914012e-01
3.954972e-01
3.986441e-01
4.008964e-01
4.023389e-01
4.030939e-01
4.033398e-01
4.033692e-01
0.000000e+00
2.842466e-02
5.914184e-02
8.810666e-02
1.156395e-01
1.420023e-01
1.673340e-01
1.916948e-01
2.151073e-01
2.375769e-01
2.591012e-01
2.796742e-01
2.992882e-01
3.179341e-01
3.356015e-01
3.522776e-01
3.679473e-01
3.825922e-01
3.961903e-01
4.087159e-01
4.201402e-01
4.304322e-01
4.395618e-01
4.475027e-01
4.542383e-01
4.597692e-01
4.641214e-01
4.673562e-01
4.695783e-01
4.709399e-01
4.716355e-01
4.718877e-01
4.719495e-01
0.000000e+00
4.239010e-02
7.691812e-02
1.089092e-01
1.396167e-01
1.692748e-01
1.979431e-01
2.256187e-01
2.522834e-01
2.779158e-01
3.024962e-01
3.260075e-01
3.484345e-01
3.697631e-01
3.899782e-01
4.090630e-01
4.269972e-01
4.437558e-01
4.593083e-01
4.736176e-01
4.866408e-01
4.983300e-01
5.086349e-01
5.175083e-01
5.249136e-01
5.308359e-01
5.352961e-01
5.383688e-01
5.402002e-01
5.410254e-01
5.411754e-01
5.410512e-01
5.409813e-01
0.000000e+00
-2.618804e-02
-4.570378e-02
-6.700016e-02
-9.071494e-02
-1.175031e-01
-1.475509e-01
-1.809106e-01
-2.175488e-01
-2.573871e-01
-3.003198e-01
-3.462256e-01
-3.949733e-01
-4.464266e-01
-5.004464e-01
-5.568925e-01
-6.156256e-01
-6.765089e-01
-7.394101e-01
-8.042046e-01
-8.707798e-01
-9.390407e-01
-1.008920e+00
-1.080389e+00
-1.153486e+00
-1.228344e+00
-1.305262e+00
-1.384821e+00
-1.468130e+00
-1.557389e+00
-1.657343e+00
-1.779186e+00
-1.947516e+00
0.000000e+00
-1.627487e-02
-3.670271e-02
-5.814274e-02
-8.218806e-02
-1.092673e-01
-1.396071e-01
-1.732587e-01
-2.101918e-01
-2.503278e-01
-2.935607e-01
-3.397678e-01
-3.888171e-01
-4.405711e-01
-4.948892e-01
-5.516301e-01
-6.106526e-01
-6.718178e-01
-7.349911e-01
-8.000446e-01
-8.668618e-01
-9.353428e-01
-1.005414e+00
-1.077040e+00
-1.150247e+00
-1.225157e+00
-1.302055e+00
-1.381500e+00
-1.464582e+00
-1.553463e+00
-1.652644e+00
-1.771776e+00
-1.929039e+00
0.000000e+00
-1.195483e-02
-2.958955e-02
-5.073711e-02
-7.482444e-02
-1.021032e-01
-1.326825e-01
-1.665905e-01
-2.037867e-01
-2.441886e-01
-2.876884e-01
-3.341625e-01
-3.834784e-01
-4.354979e-01
-4.900801e-01
-5.470829e-01
-6.063647e-01
-6.677856e-01
-7.312101e-01
-7.965094e-01
-8.635658e-01
-9.322788e-01
-1.002574e+00
-1.074418e+00
-1.147840e+00
-1.222969e+00
-1.300100e+00
-1.379811e+00
-1.463174e+00
-1.552138e+00
-1.650030e+00
-1.760780e+00
-1.883635e+00
0.000000e+00
-9.572920e-03
-2.505638e-02
-4.507624e-02
-6.885402e-02
-9.612433e-02
-1.268344e-01
-1.609324e-01
-1.983450e-01
-2.389748e-01
-2.827070e-01
-3.294150e-01
-3.789651e-01
-4.312189e-01
-4.860357e-01
-5.432736e-01
-6.027915e-01
-6.644503e-01
-7.281149e-01
-7.936576e-01
-8.609624e-01
-9.299312e-01
-1.000493e+00
-1.072620e+00
-1.146349e+00
-1.221815e+00
-1.299310e+00
-1.379365e+00
-1.462860e+00
-1.551078e+00
-1.645247e+00
-1.744565e+00
-1.837020e+00
0.000000e+00
-8.100265e-03
-2.209184e-02
-4.105636e-02
-6.429210e-02
-9.138362e-02
-1.221052e-01
-1.563140e-01
-1.938865e-01
-2.346998e-01
-2.786263e-01
-3.255337e-01
-3.752857e-01
-4.277436e-01
-4.827672e-01
-5.402156e-01
-5.999492e-01
-6.618302e-01
-7.257256e-01
-7.915098e-01
-8.590694e-01
-9.283091e-01
-9.991615e-01
-1.071600e+00
-1.145658e+00
-1.221456e+00
-1.299230e+00
-1.379363e+00
-1.462362e+00
-1.548633e+00
-1.637765e+00
-1.726485e+00
-1.807004e+00
0.000000e+00
-7.163201e-03
-2.014674e-02
-3.829005e-02
-6.100275e-02
-8.784049e-02
-1.184953e-01
-1.527479e-01
-1.904256e-01
-2.313764e-01
-2.754570e-01
-3.225270e-01
-3.724470e-01
-4.250776e-01
-4.802793e-01
-5.379126e-01
-5.978397e-01
-6.599249e-01
-7.240373e-01
-7.900533e-01
-8.578611e-01
-9.273660e-01
-9.984985e-01
-1.071224e+00
-1.145556e+00
-1.221565e+00
-1.299386e+00
-1.379187e+00
-1.461060e+00
-1.544729e+00
-1.628919e+00
-1.710622e+00
-1.785298e+00
0.000000e+00
-6.580827e-03
-1.891695e-02
-3.649189e-02
-5.879912e-02
-8.540560e-02
-1.159694e-01
-1.502263e-01
-1.879662e-01
-2.290121e-01
-2.732062e-01
-3.204005e-01
-3.704524e-01
-4.232218e-01
-4.785699e-01
-5.363591e-01
-5.964532e-01
-6.587185e-01
-7.230256e-01
-7.892516e-01
-8.572838e-01
-9.270238e-01
-9.983925e-01
-1.071336e+00
-1.145830e+00
-1.221875e+00
-1.299478e+00
-1.378594e+00
-1.458996e+00
-1.540028e+00
-1.620290e+00
-1.697466e+00
-1.768722e+00
0.000000e+00
-6.260804e-03
-1.823457e-02
-3.547859e-02
-5.753553e-02
-8.398729e-02
-1.144809e-01
-1.487303e-01
-1.865038e-01
-2.276087e-01
-2.718771e-01
-3.191561e-01
-3.693012e-01
-4.221721e-01
-4.776312e-01
-5.355423e-01
-5.957708e-01
-6.581842e-01
-7.226536e-01
-7.890549e-01
-8.572712e-01
-9.271954e-01
-9.987323e-01
-1.071799e+00
-1.146324e+00
-1.222228e+00
-1.299401e+00
-1.377632e+00
-1.456504e+00
-1.535241e+00
-1.612578e+00
-1.686774e+00
-1.755896e+00
0.000000e+00
-6.157693e-03
-1.801442e-02
-3.515017e-02
-5.712371e-02
-8.352310e-02
-1.139934e-01
-1.482422e-01
-1.860316e-01
-2.271640e-01
-2.714687e-01
-3.187917e-01
-3.689887e-01
-4.219204e-01
-4.774504e-01
-5.354441e-01
-5.957678e-01
-6.582896e-01
-7.228794e-01
-7.894098e-01
-8.577572e-01
-9.278017e-01
-9.994273e-01
-1.072518e+00
-1.146951e+00
-1.222577e+00
-1.299192e+00
-1.376480e+00
-1.453941e+00
-1.530812e+00
-1.606023e+00
-1.678247e+00
-1.746066e+00
0.000000e+00
-6.257821e-03
-1.823043e-02
-3.547502e-02
-5.753445e-02
-8.399107e-02
-1.144927e-01
-1.487542e-01
-1.865453e-01
-2.276750e-01
-2.719775e-01
-3.193022e-01
-3.695073e-01
-4.224557e-01
-4.780125e-01
-5.360442e-01
-5.964178e-01
-6.590010e-01
-7.236614e-01
-7.902669e-01
-8.586847e-01
-9.287804e-01
-1.000415e+00
-1.073439e+00
-1.147684e+00
-1.222945e+00
-1.298950e+00
-1.375330e+00
-1.451571e+00
-1.526978e+00
-1.600670e+00
-1.671618e+00
-1.738740e+00
0.000000e+00
-6.575104e-03
-1.890901e-02
-3.648502e-02
-5.879697e-02
-8.541270e-02
-1.159917e-01
-1.502718e-01
-1.880455e-01
-2.291390e-01
-2.733984e-01
-3.206803e-01
-3.708475e-01
-4.237656e-01
-4.793014e-01
-5.373224e-01
-5.976958e-01
-6.602879e-01
-7.249636e-01
-7.915848e-01
-8.600092e-01
-9.300874e-01
-1.001658e+00
-1.074543e+00
-1.148535e+00
-1.223386e+00
-1.298786e+00
-1.374345e+00
-1.449568e+00
-1.523848e+00
-1.596471e+00
-1.666645e+00
-1.733540e+00
0.000000e+00
-7.155246e-03
-2.013570e-02
-3.828045e-02
-6.099964e-02
-8.785022e-02
-1.185262e-01
-1.528112e-01
-1.905360e-01
-2.315533e-01
-2.757251e-01
-3.229178e-01
-3.729993e-01
-4.258381e-01
-4.813028e-01
-5.392613e-01
-5.995805e-01
-6.621253e-01
-7.267572e-01
-7.933325e-01
-8.616997e-01
-9.316956e-01
-1.003140e+00
-1.075830e+00
-1.149531e+00
-1.223963e+00
-1.298797e+00
-1.373639e+00
-1.448030e+00
-1.521451e+00
-1.593337e+00
-1.663098e+00
-1.730130e+00
0.000000e+00
-8.090894e-03
-2.207885e-02
-4.104505e-02
-6.428850e-02
-9.139539e-02
-1.221425e-01
-1.563904e-01
-1.940198e-01
-2.349135e-01
-2.789504e-01
-3.260062e-01
-3.759537e-01
-4.286636e-01
-4.840057e-01
-5.418481e-01
-6.020571e-01
-6.644960e-01
-7.290233e-01
-7.954903e-01
-8.637377e-01
-9.335914e-01
-1.004856e+00
-1.077311e+00
-1.150700e+00
-1.224727e+00
-1.299050e+00
-1.373282e+00
-1.447002e+00
-1.519768e+00
-1.591149e+00
-1.660743e+00
-1.728180e+00
0.000000e+00
-9.563289e-03
-2.504303e-02
-4.506475e-02
-6.885093e-02
-9.613815e-02
-1.268764e-01
-1.610176e-01
-1.984933e-01
-2.392120e-01
-2.830663e-01
-3.299383e-01
-3.797042e-01
-4.322363e-01
-4.874045e-01
-5.450769e-01
-6.051190e-01
-6.673926e-01
-7.317538e-01
-7.980500e-01
-8.661164e-01
-9.357708e-01
-1.006809e+00
-1.078996e+00
-1.152064e+00
-1.225707e+00
-1.299579e+00
-1.373302e+00
-1.446484e+00
-1.518748e+00
-1.589773e+00
-1.659337e+00
-1.727329e+00
0.000000e+00
-1.194644e-02
-2.957786e-02
-5.072740e-02
-7.482352e-02
-1.021201e-01
-1.327289e-01
-1.666822e-01
-2.039442e-01
-2.444388e-01
-2.880656e-01
-3.347099e-01
-3.842492e-01
-4.365562e-01
-4.915006e-01
-5.489502e-01
-6.087694e-01
-6.708189e-01
-7.349529e-01
-8.010164e-01
-8.688409e-01
-9.382397e-01
-1.009002e+00
-1.080889e+00
-1.153627e+00
-1.226903e+00
-1.300375e+00
-1.373672e+00
-1.446426e+00
-1.518301e+00
-1.589060e+00
-1.658631e+00
-1.727181e+00
0.000000e+00
-1.626948e-02
-3.669476e-02
-5.813703e-02
-8.219160e-02
-1.092892e-01
-1.396594e-01
-1.733571e-01
-2.103568e-01
-2.505860e-01
-2.939459e-01
-3.403225e-01
-3.895931e-01
-4.416303e-01
-4.963036e-01
-5.534798e-01
-6.130226e-01
-6.747915e-01
-7.386392e-01
-8.044091e-01
-8.719307e-01
-9.410153e-01
-1.011451e+00
-1.082996e+00
-1.155376e+00
-1.228284e+00
-1.301380e+00
-1.374306e+00
-1.446709e+00
-1.518280e+00
-1.588828e+00
-1.658375e+00
-1.727307e+00
0.000000e+00
-2.618727e-02
-4.570113e-02
-6.700066e-02
-9.072563e-02
-1.175333e-01
-1.476124e-01
-1.810190e-01
-2.177243e-01
-2.576554e-01
-3.007137e-01
-3.467852e-01
-3.957477e-01
-4.474734e-01
-5.018314e-01
-5.586877e-01
-6.179050e-01
-6.793413e-01
-7.428479e-01
-8.082664e-01
-8.754249e-01
-9.441335e-01
-1.014180e+00