TITLE = "Solution"
VARIABLES = x, y, u, v, psiu, psiv, t, stress
ZONE T="structure" N=561 E=512 F=FEBLOCK ET=QUADRILATERAL VARLOCATION=([7,8]=cellcentered)
0.000000e+00
6.250000e+00
1.250000e+01
1.875000e+01
2.500000e+01
3.125000e+01
3.750000e+01
4.375000e+01
5.000000e+01
5.625000e+01
6.250000e+01
6.875000e+01
7.500000e+01
8.125000e+01
8.750000e+01
9.375000e+01
1.000000e+02
1.062500e+02
1.125000e+02
1.187500e+02
1.250000e+02
1.312500e+02
1.375000e+02
1.437500e+02
1.500000e+02
1.562500e+02
1.625000e+02
1.687500e+02
1.750000e+02
1.812500e+02
1.875000e+02
1.937500e+02
2.000000e+02
0.000000e+00
6.250000e+00
1.250000e+01
1.875000e+01
2.500000e+01
3.125000e+01
3.750000e+01
4.375000e+01
5.000000e+01
5.625000e+01
6.250000e+01
6.875000e+01
7.500000e+01
8.125000e+01
8.750000e+01
9.375000e+01
1.000000e+02
1.062500e+02
1.125000e+02
1.187500e+02
1.250000e+02
1.312500e+02
1.375000e+02
1.437500e+02
1.500000e+02
1.562500e+02
1.625000e+02
1.687500e+02
1.750000e+02
1.812500e+02
1.875000e+02
1.937500e+02
2.000000e+02
0.000000e+00
6.250000e+00
1.250000e+01
1.875000e+01
2.500000e+01
3.125000e+01
3.750000e+01
4.375000e+01
5.000000e+01
5.625000e+01
6.250000e+01
6.875000e+01
7.500000e+01
8.125000e+01
8.750000e+01
9.375000e+01
1.000000e+02
1.062500e+02
1.125000e+02
1.187500e+02
1.250000e+02
1.312500e+02
1.375000e+02
1.437500e+02
1.500000e+02
1.562500e+02
1.625000e+02
1.687500e+02
1.750000e+02
1.812500e+02
1.875000e+02
1.937500e+02
2.000000e+02
0.000000e+00
6.250000e+00
1.250000e+01
1.875000e+01
2.500000e+01
3.125000e+01
3.750000e+01
4.375000e+01
5.000000e+01
5.625000e+01
6.250000e+01
6.875000e+01
7.500000e+01
8.125000e+01
8.750000e+01
9.375000e+01
1.000000e+02
1.062500e+02
1.125000e+02
1.187500e+02
1.250000e+02
1.312500e+02
1.375000e+02
1.437500e+02
1.500000e+02
1.562500e+02
1.625000e+02
1.687500e+02
1.750000e+02
1.812500e+02
1.875000e+02
1.937500e+02
2.000000e+02
0.000000e+00
6.250000e+00
1.250000e+01
1.875000e+01
2.500000e+01
3.125000e+01
3.750000e+01
4.375000e+01
5.000000e+01
5.625000e+01
6.250000e+01
6.875000e+01
7.500000e+01
8.125000e+01
8.750000e+01
9.375000e+01
1.000000e+02
1.062500e+02
1.125000e+02
1.187500e+02
1.250000e+02
1.312500e+02
1.375000e+02
1.437500e+02
1.500000e+02
1.562500e+02
1.625000e+02
1.687500e+02
1.750000e+02
1.812500e+02
1.875000e+02
1.937500e+02
2.000000e+02
0.000000e+00
6.250000e+00
1.250000e+01
1.875000e+01
2.500000e+01
3.125000e+01
3.750000e+01
4.375000e+01
5.000000e+01
5.625000e+01
6.250000e+01
6.875000e+01
7.500000e+01
8.125000e+01
8.750000e+01
9.375000e+01
1.000000e+02
1.062500e+02
1.125000e+02
1.187500e+02
1.250000e+02
1.312500e+02
1.375000e+02
1.437500e+02
1.500000e+02
1.562500e+02
1.625000e+02
1.687500e+02
1.750000e+02
1.812500e+02
1.875000e+02
1.937500e+02
2.000000e+02
0.000000e+00
6.250000e+00
1.250000e+01
1.875000e+01
2.500000e+01
3.125000e+01
3.750000e+01
4.375000e+01
5.000000e+01
5.625000e+01
6.250000e+01
6.875000e+01
7.500000e+01
8.125000e+01
8.750000e+01
9.375000e+01
1.000000e+02
1.062500e+02
1.125000e+02
1.187500e+02
1.250000e+02
1.312500e+02
1.375000e+02
1.437500e+02
1.500000e+02
1.562500e+02
1.625000e+02
1.687500e+02
1.750000e+02
1.812500e+02
1.875000e+02
1.937500e+02
2.000000e+02
0.000000e+00
6.250000e+00
1.250000e+01
1.875000e+01
2.500000e+01
3.125000e+01
3.750000e+01
4.375000e+01
5.000000e+01
5.625000e+01
6.250000e+01
6.875000e+01
7.500000e+01
8.125000e+01
8.750000e+01
9.375000e+01
1.000000e+02
1.062500e+02
1.125000e+02
1.187500e+02
1.250000e+02
1.312500e+02
1.375000e+02
1.437500e+02
1.500000e+02
1.562500e+02
1.625000e+02
1.687500e+02
1.750000e+02
1.812500e+02
1.875000e+02
1.937500e+02
2.000000e+02
0.000000e+00
6.250000e+00
1.250000e+01
1.875000e+01
2.500000e+01
3.125000e+01
3.750000e+01
4.375000e+01
5.000000e+01
5.625000e+01
6.250000e+01
6.875000e+01
7.500000e+01
8.125000e+01
8.750000e+01
9.375000e+01
1.000000e+02
1.062500e+02
1.125000e+02
1.187500e+02
1.250000e+02
1.312500e+02
1.375000e+02
1.437500e+02
1.500000e+02
1.562500e+02
1.625000e+02
1.687500e+02
1.750000e+02
1.812500e+02
1.875000e+02
1.937500e+02
2.000000e+02
0.000000e+00
6.250000e+00
1.250000e+01
1.875000e+01
2.500000e+01
3.125000e+01
3.750000e+01
4.375000e+01
5.000000e+01
5.625000e+01
6.250000e+01
6.875000e+01
7.500000e+01
8.125000e+01
8.750000e+01
9.375000e+01
1.000000e+02
1.062500e+02
1.125000e+02
1.187500e+02
1.250000e+02
1.312500e+02
1.375000e+02
1.437500e+02
1.500000e+02
1.562500e+02
1.625000e+02
1.687500e+02
1.750000e+02
1.812500e+02
1.875000e+02
1.937500e+02
2.000000e+02
0.000000e+00
6.250000e+00
1.250000e+01
1.875000e+01
2.500000e+01
3.125000e+01
3.750000e+01
4.375000e+01
5.000000e+01
5.625000e+01
6.250000e+01
6.875000e+01
7.500000e+01
8.125000e+01
8.750000e+01
9.375000e+01
1.000000e+02
1.062500e+02
1.125000e+02
1.187500e+02
1.250000e+02
1.312500e+02
1.375000e+02
1.437500e+02
1.500000e+02
1.562500e+02
1.625000e+02
1.687500e+02
1.750000e+02
1.812500e+02
1.875000e+02
1.937500e+02
2.000000e+02
0.000000e+00
6.250000e+00
1.250000e+01
1.875000e+01
2.500000e+01
3.125000e+01
3.750000e+01
4.375000e+01
5.000000e+01
5.625000e+01
6.250000e+01
6.875000e+01
7.500000e+01
8.125000e+01
8.750000e+01
9.375000e+01
1.000000e+02
1.062500e+02
1.125000e+02
1.187500e+02
1.250000e+02
1.312500e+02
1.375000e+02
1.437500e+02
1.500000e+02
1.562500e+02
1.625000e+02
1.687500e+02
1.750000e+02
1.812500e+02
1.875000e+02
1.937500e+02
2.000000e+02
0.000000e+00
6.250000e+00
1.250000e+01
1.875000e+01
2.500000e+01
3.125000e+01
3.750000e+01
4.375000e+01
5.000000e+01
5.625000e+01
6.250000e+01
6.875000e+01
7.500000e+01
8.125000e+01
8.750000e+01
9.375000e+01
1.000000e+02
1.062500e+02
1.125000e+02
1.187500e+02
1.250000e+02
1.312500e+02
1.375000e+02
1.437500e+02
1.500000e+02
1.562500e+02
1.625000e+02
1.687500e+02
1.750000e+02
1.812500e+02
1.875000e+02
1.937500e+02
2.000000e+02
0.000000e+00
6.250000e+00
1.250000e+01
1.875000e+01
2.500000e+01
3.125000e+01
3.750000e+01
4.375000e+01
5.000000e+01
5.625000e+01
6.250000e+01
6.875000e+01
7.500000e+01
8.125000e+01
8.750000e+01
9.375000e+01
1.000000e+02
1.062500e+02
1.125000e+02
1.187500e+02
1.250000e+02
1.312500e+02
1.375000e+02
1.437500e+02
1.500000e+02
1.562500e+02
1.625000e+02
1.687500e+02
1.750000e+02
1.812500e+02
1.875000e+02
1.937500e+02
2.000000e+02
0.000000e+00
6.250000e+00
1.250000e+01
1.875000e+01
2.500000e+01
3.125000e+01
3.750000e+01
4.375000e+01
5.000000e+01
5.625000e+01
6.250000e+01
6.875000e+01
7.500000e+01
8.125000e+01
8.750000e+01
9.375000e+01
1.000000e+02
1.062500e+02
1.125000e+02
1.187500e+02
1.250000e+02
1.312500e+02
1.375000e+02
1.437500e+02
1.500000e+02
1.562500e+02
1.625000e+02
1.687500e+02
1.750000e+02
1.812500e+02
1.875000e+02
1.937500e+02
2.000000e+02
0.000000e+00
6.250000e+00
1.250000e+01
1.875000e+01
2.500000e+01
3.125000e+01
3.750000e+01
4.375000e+01
5.000000e+01
5.625000e+01
6.250000e+01
6.875000e+01
7.500000e+01
8.125000e+01
8.750000e+01
9.375000e+01
1.000000e+02
1.062500e+02
1.125000e+02
1.187500e+02
1.250000e+02
1.312500e+02
1.375000e+02
1.437500e+02
1.500000e+02
1.562500e+02
1.625000e+02
1.687500e+02
1.750000e+02
1.812500e+02
1.875000e+02
1.937500e+02
2.000000e+02
0.000000e+00
6.250000e+00
1.250000e+01
1.875000e+01
2.500000e+01
3.125000e+01
3.750000e+01
4.375000e+01
5.000000e+01
5.625000e+01
6.250000e+01
6.875000e+01
7.500000e+01
8.125000e+01
8.750000e+01
9.375000e+01
1.000000e+02
1.062500e+02
1.125000e+02
1.187500e+02
1.250000e+02
1.312500e+02
1.375000e+02
1.437500e+02
1.500000e+02
1.562500e+02
1.625000e+02
1.687500e+02
1.750000e+02
1.812500e+02
1.875000e+02
1.937500e+02
2.000000e+02
0.000000e+00
0.000000e+00
0.000000e+00
0.000000e+00
0.000000e+00
0.000000e+00
0.000000e+00
0.000000e+00
0.000000e+00
0.000000e+00
0.000000e+00
0.000000e+00
0.000000e+00
0.000000e+00
0.000000e+00
0.000000e+00
0.000000e+00
0.000000e+00
0.000000e+00
0.000000e+00
0.000000e+00
0.000000e+00
0.000000e+00
0.000000e+00
0.000000e+00
0.000000e+00
0.000000e+00
0.000000e+00
0.000000e+00
0.000000e+00
0.000000e+00
0.000000e+00
0.000000e+00
6.250000e+00
6.250000e+00
6.250000e+00
6.250000e+00
6.250000e+00
6.250000e+00
6.250000e+00
6.250000e+00
6.250000e+00
6.250000e+00
6.250000e+00
6.250000e+00
6.250000e+00
6.250000e+00
6.250000e+00
6.250000e+00
6.250000e+00
6.250000e+00
6.250000e+00
6.250000e+00
6.250000e+00
6.250000e+00
6.250000e+00
6.250000e+00
6.250000e+00
6.250000e+00
6.250000e+00
6.250000e+00
6.250000e+00
6.250000e+00
6.250000e+00
6.250000e+00
6.250000e+00
1.250000e+01
1.250000e+01
1.250000e+01
1.250000e+01
1.250000e+01
1.250000e+01
1.250000e+01
1.250000e+01
1.250000e+01
1.250000e+01
1.250000e+01
1.250000e+01
1.250000e+01
1.250000e+01
1.250000e+01
1.250000e+01
1.250000e+01
1.250000e+01
1.250000e+01
1.250000e+01
1.250000e+01
1.250000e+01
1.250000e+01
1.250000e+01
1.250000e+01
1.250000e+01
1.250000e+01
1.250000e+01
1.250000e+01
1.250000e+01
1.250000e+01
1.250000e+01
1.250000e+01
1.875000e+01
1.875000e+01
1.875000e+01
1.875000e+01
1.875000e+01
1.875000e+01
1.875000e+01
1.875000e+01
1.875000e+01
1.875000e+01
1.875000e+01
1.875000e+01
1.875000e+01
1.875000e+01
1.875000e+01
1.875000e+01
1.875000e+01
1.875000e+01
1.875000e+01
1.875000e+01
1.875000e+01
1.875000e+01
1.875000e+01
1.875000e+01
1.875000e+01
1.875000e+01
1.875000e+01
1.875000e+01
1.875000e+01
1.875000e+01
1.875000e+01
1.875000e+01
1.875000e+01
2.500000e+01
2.500000e+01
2.500000e+01
2.500000e+01
2.500000e+01
2.500000e+01
2.500000e+01
2.500000e+01
2.500000e+01
2.500000e+01
2.500000e+01
2.500000e+01
2.500000e+01
2.500000e+01
2.500000e+01
2.500000e+01
2.500000e+01
2.500000e+01
2.500000e+01
2.500000e+01
2.500000e+01
2.500000e+01
2.500000e+01
2.500000e+01
2.500000e+01
2.500000e+01
2.500000e+01
2.500000e+01
2.500000e+01
2.500000e+01
2.500000e+01
2.500000e+01
2.500000e+01
3.125000e+01
3.125000e+01
3.125000e+01
3.125000e+01
3.125000e+01
3.125000e+01
3.125000e+01
3.125000e+01
3.125000e+01
3.125000e+01
3.125000e+01
3.125000e+01
3.125000e+01
3.125000e+01
3.125000e+01
3.125000e+01
3.125000e+01
3.125000e+01
3.125000e+01
3.125000e+01
3.125000e+01
3.125000e+01
3.125000e+01
3.125000e+01
3.125000e+01
3.125000e+01
3.125000e+01
3.125000e+01
3.125000e+01
3.125000e+01
3.125000e+01
3.125000e+01
3.125000e+01
3.750000e+01
3.750000e+01
3.750000e+01
3.750000e+01
3.750000e+01
3.750000e+01
3.750000e+01
3.750000e+01
3.750000e+01
3.750000e+01
3.750000e+01
3.750000e+01
3.750000e+01
3.750000e+01
3.750000e+01
3.750000e+01
3.750000e+01
3.750000e+01
3.750000e+01
3.750000e+01
3.750000e+01
3.750000e+01
3.750000e+01
3.750000e+01
3.750000e+01
3.750000e+01
3.750000e+01
3.750000e+01
3.750000e+01
3.750000e+01
3.750000e+01
3.750000e+01
3.750000e+01
4.375000e+01
4.375000e+01
4.375000e+01
4.375000e+01
4.375000e+01
4.375000e+01
4.375000e+01
4.375000e+01
4.375000e+01
4.375000e+01
4.375000e+01
4.375000e+01
4.375000e+01
4.375000e+01
4.375000e+01
4.375000e+01
4.375000e+01
4.375000e+01
4.375000e+01
4.375000e+01
4.375000e+01
4.375000e+01
4.375000e+01
4.375000e+01
4.375000e+01
4.375000e+01
4.375000e+01
4.375000e+01
4.375000e+01
4.375000e+01
4.375000e+01
4.375000e+01
4.375000e+01
5.000000e+01
5.000000e+01
5.000000e+01
5.000000e+01
5.000000e+01
5.000000e+01
5.000000e+01
5.000000e+01
5.000000e+01
5.000000e+01
5.000000e+01
5.000000e+01
5.000000e+01
5.000000e+01
5.000000e+01
5.000000e+01
5.000000e+01
5.000000e+01
5.000000e+01
5.000000e+01
5.000000e+01
5.000000e+01
5.000000e+01
5.000000e+01
5.000000e+01
5.000000e+01
5.000000e+01
5.000000e+01
5.000000e+01
5.000000e+01
5.000000e+01
5.000000e+01
5.000000e+01
5.625000e+01
5.625000e+01
5.625000e+01
5.625000e+01
5.625000e+01
5.625000e+01
5.625000e+01
5.625000e+01
5.625000e+01
5.625000e+01
5.625000e+01
5.625000e+01
5.625000e+01
5.625000e+01
5.625000e+01
5.625000e+01
5.625000e+01
5.625000e+01
5.625000e+01
5.625000e+01
5.625000e+01
5.625000e+01
5.625000e+01
5.625000e+01
5.625000e+01
5.625000e+01
5.625000e+01
5.625000e+01
5.625000e+01
5.625000e+01
5.625000e+01
5.625000e+01
5.625000e+01
6.250000e+01
6.250000e+01
6.250000e+01
6.250000e+01
6.250000e+01
6.250000e+01
6.250000e+01
6.250000e+01
6.250000e+01
6.250000e+01
6.250000e+01
6.250000e+01
6.250000e+01
6.250000e+01
6.250000e+01
6.250000e+01
6.250000e+01
6.250000e+01
6.250000e+01
6.250000e+01
6.250000e+01
6.250000e+01
6.250000e+01
6.250000e+01
6.250000e+01
6.250000e+01
6.250000e+01
6.250000e+01
6.250000e+01
6.250000e+01
6.250000e+01
6.250000e+01
6.250000e+01
6.875000e+01
6.875000e+01
6.875000e+01
6.875000e+01
6.875000e+01
6.875000e+01
6.875000e+01
6.875000e+01
6.875000e+01
6.875000e+01
6.875000e+01
6.875000e+01
6.875000e+01
6.875000e+01
6.875000e+01
6.875000e+01
6.875000e+01
6.875000e+01
6.875000e+01
6.875000e+01
6.875000e+01
6.875000e+01
6.875000e+01
6.875000e+01
6.875000e+01
6.875000e+01
6.875000e+01
6.875000e+01
6.875000e+01
6.875000e+01
6.875000e+01
6.875000e+01
6.875000e+01
7.500000e+01
7.500000e+01
7.500000e+01
7.500000e+01
7.500000e+01
7.500000e+01
7.500000e+01
7.500000e+01
7.500000e+01
7.500000e+01
7.500000e+01
7.500000e+01
7.500000e+01
7.500000e+01
7.500000e+01
7.500000e+01
7.500000e+01
7.500000e+01
7.500000e+01
7.500000e+01
7.500000e+01
7.500000e+01
7.500000e+01
7.500000e+01
7.500000e+01
7.500000e+01
7.500000e+01
7.500000e+01
7.500000e+01
7.500000e+01
7.500000e+01
7.500000e+01
7.500000e+01
8.125000e+01
8.125000e+01
8.125000e+01
8.125000e+01
8.125000e+01
8.125000e+01
8.125000e+01
8.125000e+01
8.125000e+01
8.125000e+01
8.125000e+01
8.125000e+01
8.125000e+01
8.125000e+01
8.125000e+01
8.125000e+01
8.125000e+01
8.125000e+01
8.125000e+01
8.125000e+01
8.125000e+01
8.125000e+01
8.125000e+01
8.125000e+01
8.125000e+01
8.125000e+01
8.125000e+01
8.125000e+01
8.125000e+01
8.125000e+01
8.125000e+01
8.125000e+01
8.125000e+01
8.750000e+01
8.750000e+01
8.750000e+01
8.750000e+01
8.750000e+01
8.750000e+01
8.750000e+01
8.750000e+01
8.750000e+01
8.750000e+01
8.750000e+01
8.750000e+01
8.750000e+01
8.750000e+01
8.750000e+01
8.750000e+01
8.750000e+01
8.750000e+01
8.750000e+01
8.750000e+01
8.750000e+01
8.750000e+01
8.750000e+01
8.750000e+01
8.750000e+01
8.750000e+01
8.750000e+01
8.750000e+01
8.750000e+01
8.750000e+01
8.750000e+01
8.750000e+01
8.750000e+01
9.375000e+01
9.375000e+01
9.375000e+01
9.375000e+01
9.375000e+01
9.375000e+01
9.375000e+01
9.375000e+01
9.375000e+01
9.375000e+01
9.375000e+01
9.375000e+01
9.375000e+01
9.375000e+01
9.375000e+01
9.375000e+01
9.375000e+01
9.375000e+01
9.375000e+01
9.375000e+01
9.375000e+01
9.375000e+01
9.375000e+01
9.375000e+01
9.375000e+01
9.375000e+01
9.375000e+01
9.375000e+01
9.375000e+01
9.375000e+01
9.375000e+01
9.375000e+01
9.375000e+01
1.000000e+02
1.000000e+02
1.000000e+02
1.000000e+02
1.000000e+02
1.000000e+02
1.000000e+02
1.000000e+02
1.000000e+02
1.000000e+02
1.000000e+02
1.000000e+02
1.000000e+02
1.000000e+02
1.000000e+02
1.000000e+02
1.000000e+02
1.000000e+02
1.000000e+02
1.000000e+02
1.000000e+02
1.000000e+02
1.000000e+02
1.000000e+02
1.000000e+02
1.000000e+02
1.000000e+02
1.000000e+02
1.000000e+02
1.000000e+02
1.000000e+02
1.000000e+02
1.000000e+02
0.000000e+00
-4.162058e-02
-7.551501e-02
-1.069134e-01
-1.370470e-01
-1.661456e-01
-1.942676e-01
-2.214105e-01
-2.475571e-01
-2.726885e-01
-2.967890e-01
-3.198477e-01
-3.418588e-01
-3.628221e-01
-3.827423e-01
-4.016300e-01
-4.195022e-01
-4.363832e-01
-4.523072e-01
-4.673200e-01
-4.814825e-01
-4.948755e-01
-5.076057e-01
-5.198146e-01
-5.316919e-01
-5.434953e-01
-5.555827e-01
-5.684647e-01
-5.828899e-01
-5.999603e-01
-6.211055e-01
-6.463048e-01
-6.616836e-01
0.000000e+00
-2.790548e-02
-5.806035e-02
-8.649242e-02
-1.135160e-01
-1.393884e-01
-1.642463e-01
-1.881496e-01
-2.111221e-01
-2.331714e-01
-2.542992e-01
-2.745054e-01
-2.937909e-01
-3.121589e-01
-3.296154e-01
-3.461703e-01
-3.618375e-01
-3.766365e-01
-3.905928e-01
-4.037398e-01
-4.161200e-01
-4.277869e-01
-4.388069e-01
-4.492614e-01
-4.592475e-01
-4.688771e-01
-4.782682e-01
-4.875177e-01
-4.966253e-01
-5.052944e-01
-5.125182e-01
-5.167415e-01
-5.226211e-01
0.000000e+00
-2.213470e-02
-4.556960e-02
-6.943005e-02
-9.261502e-02
-1.149456e-01
-1.364075e-01
-1.570210e-01
-1.768044e-01
-1.957702e-01
-2.139264e-01
-2.312786e-01
-2.478318e-01
-2.635906e-01
-2.785611e-01
-2.927505e-01
-3.061679e-01
-3.188250e-01
-3.307359e-01
-3.419178e-01
-3.523900e-01
-3.621739e-01
-3.712901e-01
-3.797551e-01
-3.875719e-01
-3.947157e-01
-4.011046e-01
-4.065507e-01
-4.106856e-01
-4.129121e-01
-4.127169e-01
-4.114666e-01
-4.183324e-01
0.000000e+00
-1.756192e-02
-3.609375e-02
-5.513288e-02
-7.412740e-02
-9.266183e-02
-1.105774e-01
-1.278173e-01
-1.443660e-01
-1.602229e-01
-1.753920e-01
-1.898785e-01
-2.036872e-01
-2.168224e-01
-2.292881e-01
-2.410877e-01
-2.522246e-01
-2.627015e-01
-2.725205e-01
-2.816823e-01
-2.901846e-01
-2.980194e-01
-3.051695e-01
-3.116016e-01
-3.172563e-01
-3.220337e-01
-3.257758e-01
-3.282539e-01
-3.292001e-01
-3.284977e-01
-3.267917e-01
-3.266899e-01
-3.332313e-01
0.000000e+00
-1.363050e-02
-2.791062e-02
-4.264691e-02
-5.750291e-02
-7.217671e-02
-8.646583e-02
-1.002678e-01
-1.135359e-01
-1.262524e-01
-1.384124e-01
-1.500167e-01
-1.610674e-01
-1.715663e-01
-1.815143e-01
-1.909103e-01
-1.997514e-01
-2.080324e-01
-2.157446e-01
-2.228752e-01
-2.294050e-01
-2.353060e-01
-2.405379e-01
-2.450433e-01
-2.487425e-01
-2.515308e-01
-2.532854e-01
-2.539009e-01
-2.533959e-01
-2.521604e-01
-2.513589e-01
-2.532099e-01
-2.587900e-01
0.000000e+00
-1.001762e-02
-2.046444e-02
-3.124688e-02
-4.217864e-02
-5.305565e-02
-6.371592e-02
-7.405414e-02
-8.401252e-02
-9.356295e-02
-1.026936e-01
-1.114002e-01
-1.196814e-01
-1.275356e-01
-1.349599e-01
-1.419490e-01
-1.484946e-01
-1.545847e-01
-1.602029e-01
-1.653272e-01
-1.699286e-01
-1.739700e-01
-1.774041e-01
-1.801733e-01
-1.822118e-01
-1.834557e-01
-1.838683e-01
-1.834980e-01
-1.825852e-01
-1.817168e-01
-1.819283e-01
-1.842880e-01
-1.889052e-01
0.000000e+00
-6.592801e-03
-1.344638e-02
-2.051737e-02
-2.770494e-02
-3.488811e-02
-4.195856e-02
-4.883730e-02
-5.547494e-02
-6.184420e-02
-6.793131e-02
-7.372934e-02
-7.923385e-02
-8.444025e-02
-8.934226e-02
-9.393092e-02
-9.819385e-02
-1.021147e-01
-1.056723e-01
-1.088406e-01
-1.115878e-01
-1.138764e-01
-1.156651e-01
-1.169115e-01
-1.175812e-01
-1.176643e-01
-1.172064e-01
-1.163591e-01
-1.154447e-01
-1.150015e-01
-1.156930e-01
-1.179905e-01
-1.217175e-01
0.000000e+00
-3.274642e-03
-6.673085e-03
-1.017786e-02
-1.374471e-02
-1.731728e-02
-2.084206e-02
-2.427718e-02
-2.759435e-02
-3.077629e-02
-3.381276e-02
-3.669699e-02
-3.942307e-02
-4.198425e-02
-4.437179e-02
-4.657423e-02
-4.857679e-02
-5.036099e-02
-5.190441e-02
-5.318074e-02
-5.416050e-02
-5.481265e-02
-5.510808e-02
-5.502591e-02
-5.456453e-02
-5.375915e-02
-5.270724e-02
-5.159887e-02
-5.073845e-02
-5.052291e-02
-5.133421e-02
-5.333842e-02
-5.629575e-02
0.000000e+00
-5.283311e-06
-1.145572e-05
-1.817530e-05
-2.508859e-05
-3.171902e-05
-3.734836e-05
-4.088520e-05
-4.071115e-05
-3.449577e-05
-1.897320e-05
1.032362e-05
5.937048e-05
1.359946e-04
2.502362e-04
4.146966e-04
6.448213e-04
9.590271e-04
1.378539e-03
1.926722e-03
2.627600e-03
3.503100e-03
4.568408e-03
5.824680e-03
7.248384e-03
8.777153e-03
1.029394e-02
1.161542e-02
1.249756e-02
1.267645e-02
1.195614e-02
1.032488e-02
8.040197e-03
0.000000e+00
3.264691e-03
6.651464e-03
1.014349e-02
1.369715e-02
1.725698e-02
2.077079e-02
2.419876e-02
2.751560e-02
3.070839e-02
3.377303e-02
3.671111e-02
3.952796e-02
4.223158e-02
4.483218e-02
4.734211e-02
4.977587e-02
5.214998e-02
5.448255e-02
5.679221e-02
5.909623e-02
6.140729e-02
6.372869e-02
6.604753e-02
6.832613e-02
7.049258e-02
7.243347e-02
7.399454e-02
7.499756e-02
7.528153e-02
7.476724e-02
7.352805e-02
7.183237e-02
0.000000e+00
6.584672e-03
1.342859e-02
2.048889e-02
2.766523e-02
3.483730e-02
4.189780e-02
4.876938e-02
5.540502e-02
6.178095e-02
6.788834e-02
7.372706e-02
7.930183e-02
8.462015e-02
8.969137e-02
9.452628e-02
9.913698e-02
1.035366e-01
1.077389e-01
1.117568e-01
1.156007e-01
1.192755e-01
1.227762e-01
1.260826e-01
1.291532e-01
1.319199e-01
1.342864e-01
1.361347e-01
1.373444e-01
1.378281e-01
1.375794e-01
1.367219e-01
1.355385e-01
0.000000e+00
1.001244e-02
2.045289e-02
3.122807e-02
4.215193e-02
5.302078e-02
6.367326e-02
7.400503e-02
8.395981e-02
9.351168e-02
1.026519e-01
1.113807e-01
1.197026e-01
1.276240e-01
1.351523e-01
1.422956e-01
1.490623e-01
1.554610e-01
1.614998e-01
1.671858e-01
1.725229e-01
1.775099e-01
1.821371e-01
1.863827e-01
1.902091e-01
1.935609e-01
1.963657e-01
1.985425e-01
2.000187e-01
2.007584e-01
2.008000e-01
2.002970e-01
1.995491e-01
0.000000e+00
1.362921e-02
2.790740e-02
4.264114e-02
5.749400e-02
7.216414e-02
8.644929e-02
1.002472e-01
1.135118e-01
1.262257e-01
1.383853e-01
1.499926e-01
1.610518e-01
1.715676e-01
1.815444e-01
1.909862e-01
1.998966e-01
2.082785e-01
2.161340e-01
2.234634e-01
2.302645e-01
2.365311e-01
2.422511e-01
2.474047e-01
2.519630e-01
2.558877e-01
2.591339e-01
2.616568e-01
2.634249e-01
2.644407e-01
2.647702e-01
2.645813e-01
2.641873e-01
0.000000e+00
1.756518e-02
3.610038e-02
5.514275e-02
7.414023e-02
9.267724e-02
1.105949e-01
1.278360e-01
1.443844e-01
1.602388e-01
1.754020e-01
1.898775e-01
2.036680e-01
2.167750e-01
2.291988e-01
2.409384e-01
2.519915e-01
2.623545e-01
2.720224e-01
2.809882e-01
2.892429e-01
2.967750e-01
3.035703e-01
3.096115e-01
3.148794e-01
3.193542e-01
3.230192e-01
3.258661e-01
3.279036e-01
3.291699e-01
3.297523e-01
3.298218e-01
3.296910e-01
0.000000e+00
2.214266e-02
4.558660e-02
6.945667e-02
9.265178e-02
1.149929e-01
1.364654e-01
1.570889e-01
1.768804e-01
1.958503e-01
2.140038e-01
2.313422e-01
2.478644e-01
2.635674e-01
2.784460e-01
2.924938e-01
3.057018e-01
3.180595e-01
3.295537e-01
3.401692e-01
3.498884e-01
3.586925e-01
3.665623e-01
3.734803e-01
3.794333e-01
3.844168e-01
3.884397e-01
3.915305e-01
3.937425e-01
3.951593e-01
3.959008e-01
3.961424e-01
3.961712e-01
0.000000e+00
2.791744e-02
5.808648e-02
8.653443e-02
1.135760e-01
1.394684e-01
1.643480e-01
1.882741e-01
2.112688e-01
2.333374e-01
2.544776e-01
2.746835e-01
2.939475e-01
3.122607e-01
3.296128e-01
3.459913e-01
3.613814e-01
3.757650e-01
3.891205e-01
4.014225e-01
4.126429e-01
4.227513e-01
4.317180e-01
4.395171e-01
4.461326e-01
4.515648e-01
4.558393e-01
4.590164e-01
4.611988e-01
4.625361e-01
4.632193e-01
4.634671e-01
4.635277e-01
0.000000e+00
4.163367e-02
7.554555e-02
1.069657e-01
1.371253e-01
1.662542e-01
1.944108e-01
2.215926e-01
2.477815e-01
2.729565e-01
2.970983e-01
3.201900e-01
3.422169e-01
3.631648e-01
3.830192e-01
4.017634e-01
4.193776e-01
4.358372e-01
4.511121e-01
4.651661e-01
4.779569e-01
4.894374e-01
4.995585e-01
5.082735e-01
5.155467e-01
5.213633e-01
5.257439e-01
5.287618e-01
5.305605e-01
5.313710e-01
5.315183e-01
5.313963e-01
5.313276e-01
0.000000e+00
-2.572073e-02
-4.488822e-02
-6.580457e-02
-8.909616e-02
-1.154063e-01
-1.449180e-01
-1.776823e-01
-2.136667e-01
-2.527941e-01
-2.949607e-01
-3.400473e-01
-3.879251e-01
-4.384603e-01
-4.915161e-01
-5.469549e-01
-6.046400e-01
-6.644368e-01
-7.262156e-01
-7.898539e-01
-8.552410e-01
-9.222839e-01
-9.909157e-01
-1.061110e+00
-1.132902e+00
-1.206425e+00
-1.281970e+00
-1.360109e+00
-1.441932e+00
-1.529598e+00
-1.627768e+00
-1.747437e+00
-1.912764e+00
0.000000e+00
-1.598445e-02
-3.604776e-02
-5.710521e-02
-8.072145e-02
-1.073175e-01
-1.371158e-01
-1.701669e-01
-2.064410e-01
-2.458608e-01
-2.883222e-01
-3.337047e-01
-3.818788e-01
-4.327092e-01
-4.860581e-01
-5.417865e-01
-5.997557e-01
-6.598295e-01
-7.218754e-01
-7.857681e-01
-8.513929e-01
-9.186519e-01
-9.874723e-01
-1.057820e+00
-1.129721e+00
-1.203295e+00
-1.278820e+00
-1.356848e+00
-1.438447e+00
-1.525742e+00
-1.623154e+00
-1.740159e+00
-1.894616e+00
0.000000e+00
-1.174150e-02
-2.906153e-02
-4.983172e-02
-7.348923e-02
-1.002812e-01
-1.303148e-01
-1.636178e-01
-2.001502e-01
-2.398312e-01
-2.825547e-01
-3.281995e-01
-3.766354e-01
-4.277266e-01
-4.813348e-01
-5.373204e-01
-5.955443e-01
-6.558692e-01
-7.181619e-01
-7.822960e-01
-8.481558e-01
-9.156426e-01
-9.846836e-01
-1.055245e+00
-1.127357e+00
-1.201146e+00
-1.276901e+00
-1.355188e+00
-1.437065e+00
-1.524441e+00
-1.620586e+00
-1.729359e+00
-1.850022e+00
0.000000e+00
-9.402095e-03
-2.460926e-02
-4.427188e-02
-6.762534e-02
-9.440903e-02
-1.245711e-01
-1.580606e-01
-1.948056e-01
-2.347104e-01
-2.776622e-01
-3.235368e-01
-3.722026e-01
-4.235240e-01
-4.773625e-01
-5.335791e-01
-5.920349e-01
-6.525934e-01
-7.151219e-01
-7.794951e-01
-8.455989e-01
-9.133369e-01
-9.826399e-01
-1.053480e+00
-1.125893e+00
-1.200012e+00
-1.276124e+00
-1.354751e+00
-1.436756e+00
-1.523399e+00
-1.615888e+00
-1.713434e+00
-1.804239e+00
0.000000e+00
-7.955719e-03
-2.169762e-02
-4.032372e-02
-6.314483e-02
-8.975291e-02
-1.199263e-01
-1.535247e-01
-1.904267e-01
-2.305117e-01
-2.736544e-01
-3.197247e-01
-3.685889e-01
-4.201107e-01
-4.741524e-01
-5.305757e-01
-5.892433e-01
-6.500200e-01
-7.127752e-01
-7.773856e-01
-8.437396e-01
-9.117437e-01
-9.813318e-01
-1.052478e+00
-1.125214e+00
-1.199659e+00
-1.276045e+00
-1.354749e+00
-1.436267e+00
-1.520998e+00
-1.608540e+00
-1.695677e+00
-1.774759e+00
0.000000e+00
-7.035377e-03
-1.978723e-02
-3.760678e-02
-5.991418e-02
-8.627301e-02
-1.163808e-01
-1.500222e-01
-1.870276e-01
-2.272476e-01
-2.705415e-01
-3.167716e-01
-3.658008e-01
-4.174923e-01
-4.717089e-01
-5.283138e-01
-5.871715e-01
-6.481488e-01
-7.111171e-01
-7.759551e-01
-8.425529e-01
-9.108175e-01
-9.806806e-01
-1.052109e+00
-1.125114e+00
-1.199767e+00
-1.276199e+00
-1.354576e+00
-1.434988e+00
-1.517164e+00
-1.599851e+00
-1.680096e+00
-1.753440e+00
0.000000e+00
-6.463394e-03
-1.857939e-02
-3.584071e-02
-5.774987e-02
-8.388157e-02
-1.138999e-01
-1.475455e-01
-1.846120e-01
-2.249255e-01
-2.683309e-01
-3.146831e-01
-3.638418e-01
-4.156695e-01
-4.700300e-01
-5.267880e-01
-5.858097e-01
-6.469639e-01
-7.101235e-01
-7.751677e-01
-8.419859e-01
-9.104813e-01
-9.805765e-01
-1.052219e+00
-1.125383e+00
-1.200071e+00
-1.276289e+00
-1.353993e+00
-1.432960e+00
-1.512547e+00
-1.591376e+00
-1.667175e+00
-1.737160e+00
0.000000e+00
-6.149082e-03
-1.790918e-02
-3.484549e-02
-5.650883e-02
-8.248857e-02
-1.124381e-01
-1.460763e-01
-1.831757e-01
-2.235471e-01
-2.670255e-01
-3.134609e-01
-3.627111e-01
-4.146386e-01
-4.691080e-01
-5.259857e-01
-5.851394e-01
-6.464392e-01
-7.097581e-01
-7.749745e-01
-8.419735e-01
-9.106499e-01
-9.809103e-01
-1.052674e+00
-1.125868e+00
-1.200418e+00
-1.276214e+00
-1.353049e+00
-1.430513e+00
-1.507845e+00
-1.583802e+00
-1.656674e+00
-1.724562e+00
0.000000e+00
-6.047811e-03
-1.769296e-02
-3.452293e-02
-5.610436e-02
-8.203267e-02
-1.119592e-01
-1.455969e-01
-1.827119e-01
-2.231103e-01
-2.666244e-01
-3.131030e-01
-3.624042e-01
-4.143914e-01
-4.689305e-01
-5.258892e-01
-5.851365e-01
-6.465426e-01
-7.099798e-01
-7.753231e-01
-8.424508e-01
-9.112454e-01
-9.815929e-01
-1.053379e+00
-1.126484e+00
-1.200761e+00
-1.276009e+00
-1.351917e+00
-1.427996e+00
-1.503495e+00
-1.577364e+00
-1.648300e+00
-1.714908e+00
0.000000e+00
-6.146152e-03
-1.790512e-02
-3.484199e-02
-5.650777e-02
-8.249228e-02
-1.124496e-01
-1.460997e-01
-1.832165e-01
-2.236122e-01
-2.671241e-01
-3.136044e-01
-3.629136e-01
-4.149171e-01
-4.694825e-01
-5.264786e-01
-5.857750e-01
-6.472414e-01
-7.107480e-01
-7.761649e-01
-8.433618e-01
-9.122066e-01
-9.825628e-01
-1.054284e+00
-1.127204e+00
-1.201122e+00
-1.275771e+00
-1.350788e+00
-1.425668e+00
-1.499730e+00
-1.572106e+00
-1.641789e+00
-1.707713e+00
0.000000e+00
-6.457773e-03
-1.857159e-02
-3.583396e-02
-5.774776e-02
-8.388855e-02
-1.139219e-01
-1.475903e-01
-1.846899e-01
-2.250501e-01
-2.685197e-01
-3.149579e-01
-3.642299e-01
-4.162036e-01
-4.707485e-01
-5.277341e-01
-5.870301e-01
-6.485053e-01
-7.120269e-01
-7.774592e-01
-8.446627e-01
-9.134903e-01
-9.837840e-01
-1.055368e+00
-1.128040e+00
-1.201555e+00
-1.275610e+00
-1.349820e+00
-1.423701e+00
-1.496655e+00
-1.567983e+00
-1.636905e+00
-1.702605e+00
0.000000e+00
-7.027564e-03
-1.977639e-02
-3.759735e-02
-5.991113e-02
-8.628256e-02
-1.164112e-01
-1.500843e-01
-1.871360e-01
-2.274213e-01
-2.708049e-01
-3.171555e-01
-3.663433e-01
-4.182392e-01
-4.727141e-01
-5.296384e-01
-5.888812e-01
-6.503099e-01
-7.137885e-01
-7.791758e-01
-8.463230e-01
-9.150699e-01
-9.852397e-01
-1.056633e+00
-1.129018e+00
-1.202122e+00
-1.275620e+00
-1.349127e+00
-1.422190e+00
-1.494301e+00
-1.564904e+00
-1.633421e+00
-1.699257e+00
0.000000e+00
-7.946515e-03
-2.168486e-02
-4.031262e-02
-6.314130e-02
-8.976448e-02
-1.199629e-01
-1.535997e-01
-1.905576e-01
-2.307215e-01
-2.739727e-01
-3.201888e-01
-3.692449e-01
-4.210143e-01
-4.753688e-01
-5.321791e-01
-5.913137e-01
-6.526383e-01
-7.160141e-01
-7.812950e-01
-8.483246e-01
-9.169317e-01
-9.869252e-01
-1.058087e+00
-1.130166e+00
-1.202872e+00
-1.275869e+00
-1.348777e+00
-1.421181e+00
-1.492648e+00
-1.562755e+00
-1.631108e+00
-1.697341e+00
0.000000e+00
-9.392636e-03
-2.459615e-02
-4.426058e-02
-6.762231e-02
-9.442261e-02
-1.246123e-01
-1.581443e-01
-1.949512e-01
-2.349433e-01
-2.780150e-01
-3.240507e-01
-3.729286e-01
-4.245232e-01
-4.787070e-01
-5.353502e-01
-5.943209e-01
-6.554832e-01
-7.186959e-01
-7.838091e-01
-8.506608e-01
-9.190723e-01
-9.888424e-01
-1.059741e+00
-1.131506e+00
-1.203835e+00
-1.276388e+00
-1.348796e+00
-1.420672e+00
-1.491646e+00
-1.561404e+00
-1.629727e+00
-1.696506e+00
0.000000e+00
-1.173326e-02
-2.905006e-02
-4.982219e-02
-7.348832e-02
-1.002978e-01
-1.303604e-01
-1.637078e-01
-2.003049e-01
-2.400769e-01
-2.829252e-01
-3.287372e-01
-3.773924e-01
-4.287660e-01
-4.827300e-01
-5.391543e-01
-5.979061e-01
-6.588483e-01
-7.218379e-01
-7.867225e-01
-8.533367e-01
-9.214971e-01
-9.909972e-01
-1.061601e+00
-1.133041e+00
-1.205010e+00
-1.277170e+00
-1.349159e+00
-1.420615e+00
-1.491207e+00
-1.560704e+00
-1.629033e+00
-1.696360e+00
0.000000e+00
-1.597915e-02
-3.603995e-02
-5.709960e-02
-8.072492e-02
-1.073390e-01
-1.371672e-01
-1.702636e-01
-2.066030e-01
-2.461144e-01
-2.887006e-01
-3.342495e-01
-3.826409e-01
-4.337496e-01
-4.874473e-01
-5.436031e-01
-6.020834e-01
-6.627501e-01
-7.254585e-01
-7.900547e-01
-8.563714e-01
-9.242232e-01
-9.934017e-01
-1.063670e+00
-1.134759e+00
-1.206366e+00
-1.278158e+00
-1.349782e+00
-1.420893e+00
-1.491187e+00
-1.560476e+00
-1.628782e+00
-1.696484e+00
0.000000e+00
-2.571997e-02
-4.488562e-02
-6.580506e-02
-8.910667e-02
-1.154359e-01
-1.449783e-01
-1.777888e-01
-2.138391e-01
-2.530577e-01
-2.953475e-01
-3.405970e-01
-3.886857e-01
-4.394884e-01
-4.928764e-01
-5.487181e-01
-6.068787e-01
-6.672187e-01
-7.295921e-01
-7.938432e-01
-8.598032e-01
-9.272857e-01
-9.960820e-01