TITLE = "Solution"
VARIABLES = x, y, u, v, psiu, psiv, t, stress
ZONE T="structure" N=561 E=512 F=FEBLOCK ET=QUADRILATERAL VARLOCATION=([7,8]=cellcentered)
0.000000e+00
6.250000e+00
1.250000e+01
1.875000e+01
2.500000e+01
3.125000e+01
3.750000e+01
4.375000e+01
5.000000e+01
5.625000e+01
6.250000e+01
6.875000e+01
7.500000e+01
8.125000e+01
8.750000e+01
9.375000e+01
1.000000e+02
1.062500e+02
1.125000e+02
1.187500e+02
1.250000e+02
1.312500e+02
1.375000e+02
1.437500e+02
1.500000e+02
1.562500e+02
1.625000e+02
1.687500e+02
1.750000e+02
1.812500e+02
1.875000e+02
1.937500e+02
2.000000e+02
0.000000e+00
6.250000e+00
1.250000e+01
1.875000e+01
2.500000e+01
3.125000e+01
3.750000e+01
4.375000e+01
5.000000e+01
5.625000e+01
6.250000e+01
6.875000e+01
7.500000e+01
8.125000e+01
8.750000e+01
9.375000e+01
1.000000e+02
1.062500e+02
1.125000e+02
1.187500e+02
1.250000e+02
1.312500e+02
1.375000e+02
1.437500e+02
1.500000e+02
1.562500e+02
1.625000e+02
1.687500e+02
1.750000e+02
1.812500e+02
1.875000e+02
1.937500e+02
2.000000e+02
0.000000e+00
6.250000e+00
1.250000e+01
1.875000e+01
2.500000e+01
3.125000e+01
3.750000e+01
4.375000e+01
5.000000e+01
5.625000e+01
6.250000e+01
6.875000e+01
7.500000e+01
8.125000e+01
8.750000e+01
9.375000e+01
1.000000e+02
1.062500e+02
1.125000e+02
1.187500e+02
1.250000e+02
1.312500e+02
1.375000e+02
1.437500e+02
1.500000e+02
1.562500e+02
1.625000e+02
1.687500e+02
1.750000e+02
1.812500e+02
1.875000e+02
1.937500e+02
2.000000e+02
0.000000e+00
6.250000e+00
1.250000e+01
1.875000e+01
2.500000e+01
3.125000e+01
3.750000e+01
4.375000e+01
5.000000e+01
5.625000e+01
6.250000e+01
6.875000e+01
7.500000e+01
8.125000e+01
8.750000e+01
9.375000e+01
1.000000e+02
1.062500e+02
1.125000e+02
1.187500e+02
1.250000e+02
1.312500e+02
1.375000e+02
1.437500e+02
1.500000e+02
1.562500e+02
1.625000e+02
1.687500e+02
1.750000e+02
1.812500e+02
1.875000e+02
1.937500e+02
2.000000e+02
0.000000e+00
6.250000e+00
1.250000e+01
1.875000e+01
2.500000e+01
3.125000e+01
3.750000e+01
4.375000e+01
5.000000e+01
5.625000e+01
6.250000e+01
6.875000e+01
7.500000e+01
8.125000e+01
8.750000e+01
9.375000e+01
1.000000e+02
1.062500e+02
1.125000e+02
1.187500e+02
1.250000e+02
1.312500e+02
1.375000e+02
1.437500e+02
1.500000e+02
1.562500e+02
1.625000e+02
1.687500e+02
1.750000e+02
1.812500e+02
1.875000e+02
1.937500e+02
2.000000e+02
0.000000e+00
6.250000e+00
1.250000e+01
1.875000e+01
2.500000e+01
3.125000e+01
3.750000e+01
4.375000e+01
5.000000e+01
5.625000e+01
6.250000e+01
6.875000e+01
7.500000e+01
8.125000e+01
8.750000e+01
9.375000e+01
1.000000e+02
1.062500e+02
1.125000e+02
1.187500e+02
1.250000e+02
1.312500e+02
1.375000e+02
1.437500e+02
1.500000e+02
1.562500e+02
1.625000e+02
1.687500e+02
1.750000e+02
1.812500e+02
1.875000e+02
1.937500e+02
2.000000e+02
0.000000e+00
6.250000e+00
1.250000e+01
1.875000e+01
2.500000e+01
3.125000e+01
3.750000e+01
4.375000e+01
5.000000e+01
5.625000e+01
6.250000e+01
6.875000e+01
7.500000e+01
8.125000e+01
8.750000e+01
9.375000e+01
1.000000e+02
1.062500e+02
1.125000e+02
1.187500e+02
1.250000e+02
1.312500e+02
1.375000e+02
1.437500e+02
1.500000e+02
1.562500e+02
1.625000e+02
1.687500e+02
1.750000e+02
1.812500e+02
1.875000e+02
1.937500e+02
2.000000e+02
0.000000e+00
6.250000e+00
1.250000e+01
1.875000e+01
2.500000e+01
3.125000e+01
3.750000e+01
4.375000e+01
5.000000e+01
5.625000e+01
6.250000e+01
6.875000e+01
7.500000e+01
8.125000e+01
8.750000e+01
9.375000e+01
1.000000e+02
1.062500e+02
1.125000e+02
1.187500e+02
1.250000e+02
1.312500e+02
1.375000e+02
1.437500e+02
1.500000e+02
1.562500e+02
1.625000e+02
1.687500e+02
1.750000e+02
1.812500e+02
1.875000e+02
1.937500e+02
2.000000e+02
0.000000e+00
6.250000e+00
1.250000e+01
1.875000e+01
2.500000e+01
3.125000e+01
3.750000e+01
4.375000e+01
5.000000e+01
5.625000e+01
6.250000e+01
6.875000e+01
7.500000e+01
8.125000e+01
8.750000e+01
9.375000e+01
1.000000e+02
1.062500e+02
1.125000e+02
1.187500e+02
1.250000e+02
1.312500e+02
1.375000e+02
1.437500e+02
1.500000e+02
1.562500e+02
1.625000e+02
1.687500e+02
1.750000e+02
1.812500e+02
1.875000e+02
1.937500e+02
2.000000e+02
0.000000e+00
6.250000e+00
1.250000e+01
1.875000e+01
2.500000e+01
3.125000e+01
3.750000e+01
4.375000e+01
5.000000e+01
5.625000e+01
6.250000e+01
6.875000e+01
7.500000e+01
8.125000e+01
8.750000e+01
9.375000e+01
1.000000e+02
1.062500e+02
1.125000e+02
1.187500e+02
1.250000e+02
1.312500e+02
1.375000e+02
1.437500e+02
1.500000e+02
1.562500e+02
1.625000e+02
1.687500e+02
1.750000e+02
1.812500e+02
1.875000e+02
1.937500e+02
2.000000e+02
0.000000e+00
6.250000e+00
1.250000e+01
1.875000e+01
2.500000e+01
3.125000e+01
3.750000e+01
4.375000e+01
5.000000e+01
5.625000e+01
6.250000e+01
6.875000e+01
7.500000e+01
8.125000e+01
8.750000e+01
9.375000e+01
1.000000e+02
1.062500e+02
1.125000e+02
1.187500e+02
1.250000e+02
1.312500e+02
1.375000e+02
1.437500e+02
1.500000e+02
1.562500e+02
1.625000e+02
1.687500e+02
1.750000e+02
1.812500e+02
1.875000e+02
1.937500e+02
2.000000e+02
0.000000e+00
6.250000e+00
1.250000e+01
1.875000e+01
2.500000e+01
3.125000e+01
3.750000e+01
4.375000e+01
5.000000e+01
5.625000e+01
6.250000e+01
6.875000e+01
7.500000e+01
8.125000e+01
8.750000e+01
9.375000e+01
1.000000e+02
1.062500e+02
1.125000e+02
1.187500e+02
1.250000e+02
1.312500e+02
1.375000e+02
1.437500e+02
1.500000e+02
1.562500e+02
1.625000e+02
1.687500e+02
1.750000e+02
1.812500e+02
1.875000e+02
1.937500e+02
2.000000e+02
0.000000e+00
6.250000e+00
1.250000e+01
1.875000e+01
2.500000e+01
3.125000e+01
3.750000e+01
4.375000e+01
5.000000e+01
5.625000e+01
6.250000e+01
6.875000e+01
7.500000e+01
8.125000e+01
8.750000e+01
9.375000e+01
1.000000e+02
1.062500e+02
1.125000e+02
1.187500e+02
1.250000e+02
1.312500e+02
1.375000e+02
1.437500e+02
1.500000e+02
1.562500e+02
1.625000e+02
1.687500e+02
1.750000e+02
1.812500e+02
1.875000e+02
1.937500e+02
2.000000e+02
0.000000e+00
6.250000e+00
1.250000e+01
1.875000e+01
2.500000e+01
3.125000e+01
3.750000e+01
4.375000e+01
5.000000e+01
5.625000e+01
6.250000e+01
6.875000e+01
7.500000e+01
8.125000e+01
8.750000e+01
9.375000e+01
1.000000e+02
1.062500e+02
1.125000e+02
1.187500e+02
1.250000e+02
1.312500e+02
1.375000e+02
1.437500e+02
1.500000e+02
1.562500e+02
1.625000e+02
1.687500e+02
1.750000e+02
1.812500e+02
1.875000e+02
1.937500e+02
2.000000e+02
0.000000e+00
6.250000e+00
1.250000e+01
1.875000e+01
2.500000e+01
3.125000e+01
3.750000e+01
4.375000e+01
5.000000e+01
5.625000e+01
6.250000e+01
6.875000e+01
7.500000e+01
8.125000e+01
8.750000e+01
9.375000e+01
1.000000e+02
1.062500e+02
1.125000e+02
1.187500e+02
1.250000e+02
1.312500e+02
1.375000e+02
1.437500e+02
1.500000e+02
1.562500e+02
1.625000e+02
1.687500e+02
1.750000e+02
1.812500e+02
1.875000e+02
1.937500e+02
2.000000e+02
0.000000e+00
6.250000e+00
1.250000e+01
1.875000e+01
2.500000e+01
3.125000e+01
3.750000e+01
4.375000e+01
5.000000e+01
5.625000e+01
6.250000e+01
6.875000e+01
7.500000e+01
8.125000e+01
8.750000e+01
9.375000e+01
1.000000e+02
1.062500e+02
1.125000e+02
1.187500e+02
1.250000e+02
1.312500e+02
1.375000e+02
1.437500e+02
1.500000e+02
1.562500e+02
1.625000e+02
1.687500e+02
1.750000e+02
1.812500e+02
1.875000e+02
1.937500e+02
2.000000e+02
0.000000e+00
6.250000e+00
1.250000e+01
1.875000e+01
2.500000e+01
3.125000e+01
3.750000e+01
4.375000e+01
5.000000e+01
5.625000e+01
6.250000e+01
6.875000e+01
7.500000e+01
8.125000e+01
8.750000e+01
9.375000e+01
1.000000e+02
1.062500e+02
1.125000e+02
1.187500e+02
1.250000e+02
1.312500e+02
1.375000e+02
1.437500e+02
1.500000e+02
1.562500e+02
1.625000e+02
1.687500e+02
1.750000e+02
1.812500e+02
1.875000e+02
1.937500e+02
2.000000e+02
0.000000e+00
0.000000e+00
0.000000e+00
0.000000e+00
0.000000e+00
0.000000e+00
0.000000e+00
0.000000e+00
0.000000e+00
0.000000e+00
0.000000e+00
0.000000e+00
0.000000e+00
0.000000e+00
0.000000e+00
0.000000e+00
0.000000e+00
0.000000e+00
0.000000e+00
0.000000e+00
0.000000e+00
0.000000e+00
0.000000e+00
0.000000e+00
0.000000e+00
0.000000e+00
0.000000e+00
0.000000e+00
0.000000e+00
0.000000e+00
0.000000e+00
0.000000e+00
0.000000e+00
6.250000e+00
6.250000e+00
6.250000e+00
6.250000e+00
6.250000e+00
6.250000e+00
6.250000e+00
6.250000e+00
6.250000e+00
6.250000e+00
6.250000e+00
6.250000e+00
6.250000e+00
6.250000e+00
6.250000e+00
6.250000e+00
6.250000e+00
6.250000e+00
6.250000e+00
6.250000e+00
6.250000e+00
6.250000e+00
6.250000e+00
6.250000e+00
6.250000e+00
6.250000e+00
6.250000e+00
6.250000e+00
6.250000e+00
6.250000e+00
6.250000e+00
6.250000e+00
6.250000e+00
1.250000e+01
1.250000e+01
1.250000e+01
1.250000e+01
1.250000e+01
1.250000e+01
1.250000e+01
1.250000e+01
1.250000e+01
1.250000e+01
1.250000e+01
1.250000e+01
1.250000e+01
1.250000e+01
1.250000e+01
1.250000e+01
1.250000e+01
1.250000e+01
1.250000e+01
1.250000e+01
1.250000e+01
1.250000e+01
1.250000e+01
1.250000e+01
1.250000e+01
1.250000e+01
1.250000e+01
1.250000e+01
1.250000e+01
1.250000e+01
1.250000e+01
1.250000e+01
1.250000e+01
1.875000e+01
1.875000e+01
1.875000e+01
1.875000e+01
1.875000e+01
1.875000e+01
1.875000e+01
1.875000e+01
1.875000e+01
1.875000e+01
1.875000e+01
1.875000e+01
1.875000e+01
1.875000e+01
1.875000e+01
1.875000e+01
1.875000e+01
1.875000e+01
1.875000e+01
1.875000e+01
1.875000e+01
1.875000e+01
1.875000e+01
1.875000e+01
1.875000e+01
1.875000e+01
1.875000e+01
1.875000e+01
1.875000e+01
1.875000e+01
1.875000e+01
1.875000e+01
1.875000e+01
2.500000e+01
2.500000e+01
2.500000e+01
2.500000e+01
2.500000e+01
2.500000e+01
2.500000e+01
2.500000e+01
2.500000e+01
2.500000e+01
2.500000e+01
2.500000e+01
2.500000e+01
2.500000e+01
2.500000e+01
2.500000e+01
2.500000e+01
2.500000e+01
2.500000e+01
2.500000e+01
2.500000e+01
2.500000e+01
2.500000e+01
2.500000e+01
2.500000e+01
2.500000e+01
2.500000e+01
2.500000e+01
2.500000e+01
2.500000e+01
2.500000e+01
2.500000e+01
2.500000e+01
3.125000e+01
3.125000e+01
3.125000e+01
3.125000e+01
3.125000e+01
3.125000e+01
3.125000e+01
3.125000e+01
3.125000e+01
3.125000e+01
3.125000e+01
3.125000e+01
3.125000e+01
3.125000e+01
3.125000e+01
3.125000e+01
3.125000e+01
3.125000e+01
3.125000e+01
3.125000e+01
3.125000e+01
3.125000e+01
3.125000e+01
3.125000e+01
3.125000e+01
3.125000e+01
3.125000e+01
3.125000e+01
3.125000e+01
3.125000e+01
3.125000e+01
3.125000e+01
3.125000e+01
3.750000e+01
3.750000e+01
3.750000e+01
3.750000e+01
3.750000e+01
3.750000e+01
3.750000e+01
3.750000e+01
3.750000e+01
3.750000e+01
3.750000e+01
3.750000e+01
3.750000e+01
3.750000e+01
3.750000e+01
3.750000e+01
3.750000e+01
3.750000e+01
3.750000e+01
3.750000e+01
3.750000e+01
3.750000e+01
3.750000e+01
3.750000e+01
3.750000e+01
3.750000e+01
3.750000e+01
3.750000e+01
3.750000e+01
3.750000e+01
3.750000e+01
3.750000e+01
3.750000e+01
4.375000e+01
4.375000e+01
4.375000e+01
4.375000e+01
4.375000e+01
4.375000e+01
4.375000e+01
4.375000e+01
4.375000e+01
4.375000e+01
4.375000e+01
4.375000e+01
4.375000e+01
4.375000e+01
4.375000e+01
4.375000e+01
4.375000e+01
4.375000e+01
4.375000e+01
4.375000e+01
4.375000e+01
4.375000e+01
4.375000e+01
4.375000e+01
4.375000e+01
4.375000e+01
4.375000e+01
4.375000e+01
4.375000e+01
4.375000e+01
4.375000e+01
4.375000e+01
4.375000e+01
5.000000e+01
5.000000e+01
5.000000e+01
5.000000e+01
5.000000e+01
5.000000e+01
5.000000e+01
5.000000e+01
5.000000e+01
5.000000e+01
5.000000e+01
5.000000e+01
5.000000e+01
5.000000e+01
5.000000e+01
5.000000e+01
5.000000e+01
5.000000e+01
5.000000e+01
5.000000e+01
5.000000e+01
5.000000e+01
5.000000e+01
5.000000e+01
5.000000e+01
5.000000e+01
5.000000e+01
5.000000e+01
5.000000e+01
5.000000e+01
5.000000e+01
5.000000e+01
5.000000e+01
5.625000e+01
5.625000e+01
5.625000e+01
5.625000e+01
5.625000e+01
5.625000e+01
5.625000e+01
5.625000e+01
5.625000e+01
5.625000e+01
5.625000e+01
5.625000e+01
5.625000e+01
5.625000e+01
5.625000e+01
5.625000e+01
5.625000e+01
5.625000e+01
5.625000e+01
5.625000e+01
5.625000e+01
5.625000e+01
5.625000e+01
5.625000e+01
5.625000e+01
5.625000e+01
5.625000e+01
5.625000e+01
5.625000e+01
5.625000e+01
5.625000e+01
5.625000e+01
5.625000e+01
6.250000e+01
6.250000e+01
6.250000e+01
6.250000e+01
6.250000e+01
6.250000e+01
6.250000e+01
6.250000e+01
6.250000e+01
6.250000e+01
6.250000e+01
6.250000e+01
6.250000e+01
6.250000e+01
6.250000e+01
6.250000e+01
6.250000e+01
6.250000e+01
6.250000e+01
6.250000e+01
6.250000e+01
6.250000e+01
6.250000e+01
6.250000e+01
6.250000e+01
6.250000e+01
6.250000e+01
6.250000e+01
6.250000e+01
6.250000e+01
6.250000e+01
6.250000e+01
6.250000e+01
6.875000e+01
6.875000e+01
6.875000e+01
6.875000e+01
6.875000e+01
6.875000e+01
6.875000e+01
6.875000e+01
6.875000e+01
6.875000e+01
6.875000e+01
6.875000e+01
6.875000e+01
6.875000e+01
6.875000e+01
6.875000e+01
6.875000e+01
6.875000e+01
6.875000e+01
6.875000e+01
6.875000e+01
6.875000e+01
6.875000e+01
6.875000e+01
6.875000e+01
6.875000e+01
6.875000e+01
6.875000e+01
6.875000e+01
6.875000e+01
6.875000e+01
6.875000e+01
6.875000e+01
7.500000e+01
7.500000e+01
7.500000e+01
7.500000e+01
7.500000e+01
7.500000e+01
7.500000e+01
7.500000e+01
7.500000e+01
7.500000e+01
7.500000e+01
7.500000e+01
7.500000e+01
7.500000e+01
7.500000e+01
7.500000e+01
7.500000e+01
7.500000e+01
7.500000e+01
7.500000e+01
7.500000e+01
7.500000e+01
7.500000e+01
7.500000e+01
7.500000e+01
7.500000e+01
7.500000e+01
7.500000e+01
7.500000e+01
7.500000e+01
7.500000e+01
7.500000e+01
7.500000e+01
8.125000e+01
8.125000e+01
8.125000e+01
8.125000e+01
8.125000e+01
8.125000e+01
8.125000e+01
8.125000e+01
8.125000e+01
8.125000e+01
8.125000e+01
8.125000e+01
8.125000e+01
8.125000e+01
8.125000e+01
8.125000e+01
8.125000e+01
8.125000e+01
8.125000e+01
8.125000e+01
8.125000e+01
8.125000e+01
8.125000e+01
8.125000e+01
8.125000e+01
8.125000e+01
8.125000e+01
8.125000e+01
8.125000e+01
8.125000e+01
8.125000e+01
8.125000e+01
8.125000e+01
8.750000e+01
8.750000e+01
8.750000e+01
8.750000e+01
8.750000e+01
8.750000e+01
8.750000e+01
8.750000e+01
8.750000e+01
8.750000e+01
8.750000e+01
8.750000e+01
8.750000e+01
8.750000e+01
8.750000e+01
8.750000e+01
8.750000e+01
8.750000e+01
8.750000e+01
8.750000e+01
8.750000e+01
8.750000e+01
8.750000e+01
8.750000e+01
8.750000e+01
8.750000e+01
8.750000e+01
8.750000e+01
8.750000e+01
8.750000e+01
8.750000e+01
8.750000e+01
8.750000e+01
9.375000e+01
9.375000e+01
9.375000e+01
9.375000e+01
9.375000e+01
9.375000e+01
9.375000e+01
9.375000e+01
9.375000e+01
9.375000e+01
9.375000e+01
9.375000e+01
9.375000e+01
9.375000e+01
9.375000e+01
9.375000e+01
9.375000e+01
9.375000e+01
9.375000e+01
9.375000e+01
9.375000e+01
9.375000e+01
9.375000e+01
9.375000e+01
9.375000e+01
9.375000e+01
9.375000e+01
9.375000e+01
9.375000e+01
9.375000e+01
9.375000e+01
9.375000e+01
9.375000e+01
1.000000e+02
1.000000e+02
1.000000e+02
1.000000e+02
1.000000e+02
1.000000e+02
1.000000e+02
1.000000e+02
1.000000e+02
1.000000e+02
1.000000e+02
1.000000e+02
1.000000e+02
1.000000e+02
1.000000e+02
1.000000e+02
1.000000e+02
1.000000e+02
1.000000e+02
1.000000e+02
1.000000e+02
1.000000e+02
1.000000e+02
1.000000e+02
1.000000e+02
1.000000e+02
1.000000e+02
1.000000e+02
1.000000e+02
1.000000e+02
1.000000e+02
1.000000e+02
1.000000e+02
0.000000e+00
-3.932051e-01
-7.007041e-01
-1.005203e+00
-1.313144e+00
-1.607862e+00
-1.906636e+00
-2.205580e+00
-2.500880e+00
-2.796964e+00
-3.093179e+00
-3.388213e+00
-3.682944e+00
-3.977436e+00
-4.271294e+00
-4.564572e+00
-4.857283e+00
-5.149290e+00
-5.440502e+00
-5.730846e+00
-6.020273e+00
-6.308728e+00
-6.595930e+00
-6.881237e+00
-7.163975e+00
-7.444184e+00
-7.723375e+00
-8.005182e+00
-8.296478e+00
-8.609126e+00
-8.950785e+00
-9.298175e+00
-9.493404e+00
0.000000e+00
-2.389077e-01
-4.924421e-01
-7.519469e-01
-1.018435e+00
-1.274649e+00
-1.535111e+00
-1.796584e+00
-2.055048e+00
-2.314130e+00
-2.573401e+00
-2.831608e+00
-3.089446e+00
-3.347017e+00
-3.603964e+00
-3.860296e+00
-4.116010e+00
-4.370963e+00
-4.625028e+00
-4.878052e+00
-5.129832e+00
-5.380063e+00
-5.628091e+00
-5.872700e+00
-6.112266e+00
-6.345284e+00
-6.570861e+00
-6.788841e+00
-6.998777e+00
-7.193513e+00
-7.341880e+00
-7.413310e+00
-7.504947e+00
0.000000e+00
-1.658045e-01
-3.455382e-01
-5.517034e-01
-7.696797e-01
-9.845472e-01
-1.205454e+00
-1.428360e+00
-1.650079e+00
-1.872793e+00
-2.095857e+00
-2.318324e+00
-2.540574e+00
-2.762554e+00
-2.983945e+00
-3.204654e+00
-3.424545e+00
-3.643368e+00
-3.860829e+00
-4.076520e+00
-4.289859e+00
-4.500019e+00
-4.705750e+00
-4.905223e+00
-5.096108e+00
-5.275808e+00
-5.441552e+00
-5.589882e+00
-5.714760e+00
-5.802725e+00
-5.832931e+00
-5.830499e+00
-5.917160e+00
0.000000e+00
-1.219716e-01
-2.534845e-01
-4.082926e-01
-5.763247e-01
-7.495487e-01
-9.302011e-01
-1.113811e+00
-1.298393e+00
-1.484529e+00
-1.671245e+00
-1.857892e+00
-2.044486e+00
-2.230756e+00
-2.416378e+00
-2.601126e+00
-2.784693e+00
-2.966672e+00
-3.146553e+00
-3.323636e+00
-3.496963e+00
-3.665259e+00
-3.826839e+00
-3.979525e+00
-4.120661e+00
-4.247145e+00
-4.355343e+00
-4.440704e+00
-4.497102e+00
-4.517385e+00
-4.507067e+00
-4.511683e+00
-4.588569e+00
0.000000e+00
-1.005558e-01
-2.036793e-01
-3.192986e-01
-4.440842e-01
-5.777455e-01
-7.175205e-01
-8.608966e-01
-1.006947e+00
-1.154675e+00
-1.303232e+00
-1.452178e+00
-1.601133e+00
-1.749719e+00
-1.897606e+00
-2.044436e+00
-2.189771e+00
-2.333071e+00
-2.473647e+00
-2.610586e+00
-2.742705e+00
-2.868508e+00
-2.986150e+00
-3.093404e+00
-3.187658e+00
-3.265937e+00
-3.324955e+00
-3.361361e+00
-3.372700e+00
-3.361345e+00
-3.347242e+00
-3.371685e+00
-3.448008e+00
0.000000e+00
-7.701017e-02
-1.559001e-01
-2.393057e-01
-3.298706e-01
-4.265870e-01
-5.282520e-01
-6.336110e-01
-7.415115e-01
-8.510570e-01
-9.615599e-01
-1.072490e+00
-1.183415e+00
-1.293947e+00
-1.403709e+00
-1.512282e+00
-1.619162e+00
-1.723725e+00
-1.825177e+00
-1.922516e+00
-2.014491e+00
-2.099590e+00
-2.176038e+00
-2.241817e+00
-2.294717e+00
-2.332462e+00
-2.353036e+00
-2.355463e+00
-2.341622e+00
-2.320321e+00
-2.314536e+00
-2.348333e+00
-2.425099e+00
0.000000e+00
-5.186907e-02
-1.046849e-01
-1.600512e-01
-2.190940e-01
-2.820832e-01
-3.484374e-01
-4.174392e-01
-4.883499e-01
-5.605003e-01
-6.333524e-01
-7.064650e-01
-7.794563e-01
-8.519747e-01
-9.236594e-01
-9.940987e-01
-1.062791e+00
-1.129111e+00
-1.192271e+00
-1.251301e+00
-1.305025e+00
-1.352080e+00
-1.390946e+00
-1.420023e+00
-1.437771e+00
-1.442964e+00
-1.435191e+00
-1.415820e+00
-1.389697e+00
-1.367954e+00
-1.369038e+00
-1.407620e+00
-1.481493e+00
0.000000e+00
-2.606606e-02
-5.261075e-02
-8.022157e-02
-1.094439e-01
-1.404420e-01
-1.730641e-01
-2.069690e-01
-2.417767e-01
-2.771253e-01
-3.126937e-01
-3.481992e-01
-3.833803e-01
-4.179756e-01
-4.516982e-01
-4.842077e-01
-5.150793e-01
-5.437753e-01
-5.696210e-01
-5.917899e-01
-6.093061e-01
-6.210784e-01
-6.259782e-01
-6.229708e-01
-6.113246e-01
-5.909420e-01
-5.628898e-01
-5.302181e-01
-4.990921e-01
-4.798611e-01
-4.857271e-01
-5.246587e-01
-5.916545e-01
0.000000e+00
-1.399673e-04
-2.182626e-04
-2.232753e-04
-1.340009e-04
7.763575e-05
4.455385e-04
1.009866e-03
1.818559e-03
2.929253e-03
4.411865e-03
6.352411e-03
8.858129e-03
1.206400e-02
1.614162e-02
2.131169e-02
2.786030e-02
3.615780e-02
4.667669e-02
6.000044e-02
7.680879e-02
9.782185e-02
1.236885e-01
1.548109e-01
1.910995e-01
2.316466e-01
2.742953e-01
3.151166e-01
3.479554e-01
3.645142e-01
3.565174e-01
3.209566e-01
2.644035e-01
0.000000e+00
2.577826e-02
5.215277e-02
7.973542e-02
1.091142e-01
1.405091e-01
1.738344e-01
2.088273e-01
2.452012e-01
2.827067e-01
3.211597e-01
3.604460e-01
4.005125e-01
4.413571e-01
4.830200e-01
5.255771e-01
5.691379e-01
6.138510e-01
6.599171e-01
7.075966e-01
7.571942e-01
8.089911e-01
8.631094e-01
9.193155e-01
9.767884e-01
1.033867e+00
1.087791e+00
1.134495e+00
1.168665e+00
1.184443e+00
1.177485e+00
1.148232e+00
1.104194e+00
0.000000e+00
5.155566e-02
1.041589e-01
1.594419e-01
2.185755e-01
2.818815e-01
3.488396e-01
4.188046e-01
4.911240e-01
5.652320e-01
6.407181e-01
7.172986e-01
7.947822e-01
8.730467e-01
9.520122e-01
1.031614e+00
1.111781e+00
1.192423e+00
1.273428e+00
1.354680e+00
1.436050e+00
1.517333e+00
1.598098e+00
1.677504e+00
1.754137e+00
1.825882e+00
1.889838e+00
1.942351e+00
1.979329e+00
1.997106e+00
1.994093e+00
1.972860e+00
1.941405e+00
0.000000e+00
7.664990e-02
1.552521e-01
2.384840e-01
3.290335e-01
4.259342e-01
5.280333e-01
6.341388e-01
7.431716e-01
8.543233e-01
9.670174e-01
1.080861e+00
1.195582e+00
1.310978e+00
1.426886e+00
1.543134e+00
1.659506e+00
1.775701e+00
1.891309e+00
2.005823e+00
2.118648e+00
2.229032e+00
2.335932e+00
2.437894e+00
2.533025e+00
2.619016e+00
2.693183e+00
2.752595e+00
2.794424e+00
2.816703e+00
2.819586e+00
2.806813e+00
2.786695e+00
0.000000e+00
1.001215e-01
2.028668e-01
3.181988e-01
4.428366e-01
5.765101e-01
7.164842e-01
8.602946e-01
1.007071e+00
1.155884e+00
1.305974e+00
1.457010e+00
1.608731e+00
1.760892e+00
1.913297e+00
2.065733e+00
2.217899e+00
2.369363e+00
2.519507e+00
2.667502e+00
2.812273e+00
2.952398e+00
3.086036e+00
3.211000e+00
3.324950e+00
3.425559e+00
3.510602e+00
3.578035e+00
3.626232e+00
3.654525e+00
3.664126e+00
3.659315e+00
3.648621e+00
0.000000e+00
1.214833e-01
2.525507e-01
4.070079e-01
5.747792e-01
7.478470e-01
9.284532e-01
1.112142e+00
1.296960e+00
1.483528e+00
1.670938e+00
1.858619e+00
2.046658e+00
2.234851e+00
2.422936e+00
2.610741e+00
2.797970e+00
2.984142e+00
3.168608e+00
3.350422e+00
3.528060e+00
3.699192e+00
3.860809e+00
4.009715e+00
4.143050e+00
4.258567e+00
4.354645e+00
4.430244e+00
4.484955e+00
4.519278e+00
4.535193e+00
4.537130e+00
4.533519e+00
0.000000e+00
1.654406e-01
3.448514e-01
5.507504e-01
7.685052e-01
9.831750e-01
1.203916e+00
1.426689e+00
1.648291e+00
1.870909e+00
2.093929e+00
2.316435e+00
2.538816e+00
2.761013e+00
2.982695e+00
3.203745e+00
3.423921e+00
3.642770e+00
3.859796e+00
4.074233e+00
4.284303e+00
4.486626e+00
4.676617e+00
4.849669e+00
5.002180e+00
5.131900e+00
5.237803e+00
5.319884e+00
5.379053e+00
5.417166e+00
5.437192e+00
5.443710e+00
5.444432e+00
0.000000e+00
2.388415e-01
4.923343e-01
7.518063e-01
1.018241e+00
1.274372e+00
1.534744e+00
1.796104e+00
2.054399e+00
2.313230e+00
2.572163e+00
2.829927e+00
3.087159e+00
3.343893e+00
3.599693e+00
3.854466e+00
4.107997e+00
4.359827e+00
4.609592e+00
4.856723e+00
5.099228e+00
5.332665e+00
5.550771e+00
5.747379e+00
5.917960e+00
6.060035e+00
6.172923e+00
6.257462e+00
6.315914e+00
6.351940e+00
6.370443e+00
6.377184e+00
6.378823e+00
0.000000e+00
3.935500e-01
7.013185e-01
1.006088e+00
1.314222e+00
1.609093e+00
1.908024e+00
2.207100e+00
2.502486e+00
2.798585e+00
3.094720e+00
3.389537e+00
3.683834e+00
3.977581e+00
4.270286e+00
4.561868e+00
4.852089e+00
5.140463e+00
5.426589e+00
5.709656e+00
5.986939e+00
6.252706e+00
6.499178e+00
6.718882e+00
6.906348e+00
7.058491e+00
7.174357e+00
7.254981e+00
7.303559e+00
7.325802e+00
7.330132e+00
7.327020e+00
7.325204e+00
0.000000e+00
-2.395738e-01
-4.584274e-01
-7.259062e-01
-1.027742e+00
-1.364734e+00
-1.740714e+00
-2.152355e+00
-2.600458e+00
-3.086218e+00
-3.609055e+00
-4.169187e+00
-4.767045e+00
-5.402592e+00
-6.075846e+00
-6.786905e+00
-7.535761e+00
-8.322350e+00
-9.146586e+00
-1.000833e+01
-1.090741e+01
-1.184368e+01
-1.281697e+01
-1.382738e+01
-1.487567e+01
-1.596396e+01
-1.709651e+01
-1.828052e+01
-1.952690e+01
-2.085266e+01
-2.230126e+01
-2.401256e+01
-2.636343e+01
0.000000e+00
-1.488265e-01
-3.783790e-01
-6.413371e-01
-9.443673e-01
-1.282122e+00
-1.657032e+00
-2.069092e+00
-2.517502e+00
-3.003035e+00
-3.526019e+00
-4.086363e+00
-4.684296e+00
-5.319988e+00
-5.993446e+00
-6.704707e+00
-7.453794e+00
-8.240665e+00
-9.065227e+00
-9.927346e+00
-1.082687e+01
-1.176368e+01
-1.273775e+01
-1.374928e+01
-1.479899e+01
-1.588878e+01
-1.702257e+01
-1.820726e+01
-1.945419e+01
-2.078332e+01
-2.223930e+01
-2.392225e+01
-2.606012e+01
0.000000e+00
-1.137596e-01
-3.182864e-01
-5.762942e-01
-8.765890e-01
-1.212815e+00
-1.586453e+00
-1.997969e+00
-2.446110e+00
-2.931410e+00
-3.454354e+00
-4.014780e+00
-4.612829e+00
-5.248703e+00
-5.922425e+00
-6.634018e+00
-7.383518e+00
-8.170904e+00
-8.996112e+00
-9.859041e+00
-1.075959e+01
-1.169771e+01
-1.267352e+01
-1.368731e+01
-1.473986e+01
-1.583303e+01
-1.697071e+01
-1.816028e+01
-1.941531e+01
-2.076011e+01
-2.222316e+01
-2.380667e+01
-2.548729e+01
0.000000e+00
-1.075225e-01
-2.905954e-01
-5.354056e-01
-8.280831e-01
-1.159688e+00
-1.530527e+00
-1.940112e+00
-2.387122e+00
-2.871801e+00
-3.394403e+00
-3.954745e+00
-4.552910e+00
-5.189048e+00
-5.863189e+00
-6.575368e+00
-7.325630e+00
-8.113985e+00
-8.940422e+00
-9.804906e+00
-1.070740e+01
-1.164796e+01
-1.262673e+01
-1.364406e+01
-1.470078e+01
-1.579870e+01
-1.694175e+01
-1.813754e+01
-1.940007e+01
-2.075057e+01
-2.218760e+01
-2.364621e+01
-2.499499e+01
0.000000e+00
-1.144059e-01
-2.864050e-01
-5.180658e-01
-7.992934e-01
-1.124056e+00
-1.490188e+00
-1.896356e+00
-2.341348e+00
-2.824853e+00
-3.346760e+00
-3.906867e+00
-4.505147e+00
-5.141656e+00
-5.816422e+00
-6.529490e+00
-7.280919e+00
-8.070761e+00
-8.899061e+00
-9.765853e+00
-1.067116e+01
-1.161506e+01
-1.259767e+01
-1.361930e+01
-1.468065e+01
-1.578331e+01
-1.693070e+01
-1.812924e+01
-1.938978e+01
-2.072292e+01
-2.210488e+01
-2.344312e+01
-2.463420e+01
0.000000e+00
-1.176034e-01
-2.872193e-01
-5.101186e-01
-7.829307e-01
-1.101130e+00
-1.462462e+00
-1.865116e+00
-2.307842e+00
-2.789994e+00
-3.311142e+00
-3.871000e+00
-4.469444e+00
-5.106444e+00
-5.782017e+00
-6.496224e+00
-7.249146e+00
-8.040879e+00
-8.871521e+00
-9.741150e+00
-1.064981e+01
-1.159753e+01
-1.258432e+01
-1.361026e+01
-1.467569e+01
-1.578158e+01
-1.693000e+01
-1.812468e+01
-1.937058e+01
-2.066704e+01
-2.197572e+01
-2.321633e+01
-2.430423e+01
0.000000e+00
-1.188082e-01
-2.874373e-01
-5.061968e-01
-7.735859e-01
-1.087147e+00
-1.444682e+00
-1.844511e+00
-2.285362e+00
-2.766360e+00
-3.286917e+00
-3.846652e+00
-4.445357e+00
-5.082953e+00
-5.759452e+00
-6.474932e+00
-7.229510e+00
-8.023325e+00
-8.856513e+00
-9.729171e+00
-1.064132e+01
-1.159286e+01
-1.258358e+01
-1.361315e+01
-1.468129e+01
-1.578785e+01
-1.693299e+01
-1.811685e+01
-1.933819e+01
-2.058720e+01
-2.182398e+01
-2.298292e+01
-2.399531e+01
0.000000e+00
-1.193157e-01
-2.873982e-01
-5.042432e-01
-7.689118e-01
-1.079767e+00
-1.435043e+00
-1.833166e+00
-2.272875e+00
-2.753222e+00
-3.273531e+00
-3.833361e+00
-4.432462e+00
-5.070733e+00
-5.748192e+00
-6.464945e+00
-7.221148e+00
-8.016979e+00
-8.852604e+00
-9.728117e+00
-1.064347e+01
-1.159839e+01
-1.259230e+01
-1.362435e+01
-1.469333e+01
-1.579773e+01
-1.693550e+01
-1.810334e+01
-1.929479e+01
-2.049472e+01
-2.166709e+01
-2.275940e+01
-2.371687e+01
0.000000e+00
-1.195081e-01
-2.874725e-01
-5.038209e-01
-7.677414e-01
-1.077836e+00
-1.432491e+00
-1.830202e+00
-2.269717e+00
-2.750074e+00
-3.270579e+00
-3.830778e+00
-4.430417e+00
-5.069402e+00
-5.747772e+00
-6.465662e+00
-7.223268e+00
-8.020808e+00
-8.858470e+00
-9.736338e+00
-1.065427e+01
-1.161178e+01
-1.260788e+01
-1.364101e+01
-1.470892e+01
-1.580864e+01
-1.693601e+01
-1.808493e+01
-1.924549e+01
-2.040026e+01
-2.151846e+01
-2.255909e+01
-2.347957e+01
0.000000e+00
-1.194903e-01
-2.877553e-01
-5.048189e-01
-7.697621e-01
-1.080960e+00
-1.436657e+00
-1.835289e+00
-2.275609e+00
-2.756678e+00
-3.277840e+00
-3.838679e+00
-4.438976e+00
-5.078668e+00
-5.757822e+00
-6.476603e+00
-7.235241e+00
-8.033988e+00
-8.873060e+00
-9.752537e+00
-1.067220e+01
-1.163133e+01
-1.262849e+01
-1.366134e+01
-1.472658e+01
-1.581977e+01
-1.693504e+01
-1.806431e+01
-1.919591e+01
-2.031245e+01
-2.138840e+01
-2.239237e+01
-2.329203e+01
0.000000e+00
-1.191361e-01
-2.881104e-01
-5.072925e-01
-7.752177e-01
-1.089449e+00
-1.447806e+00
-1.848629e+00
-2.290667e+00
-2.773070e+00
-3.295284e+00
-3.856975e+00
-4.457996e+00
-5.098333e+00
-5.778087e+00
-6.497445e+00
-7.256658e+00
-8.056002e+00
-8.895720e+00
-9.775917e+00
-1.069634e+01
-1.165609e+01
-1.265324e+01
-1.368470e+01
-1.474609e+01
-1.583172e+01
-1.693441e+01
-1.804494e+01
-1.915122e+01
-2.023723e+01
-2.128244e+01
-2.226319e+01
-2.315537e+01
0.000000e+00
-1.180381e-01
-2.881231e-01
-5.116236e-01
-7.852082e-01
-1.104373e+00
-1.466886e+00
-1.870966e+00
-2.315390e+00
-2.799551e+00
-3.323064e+00
-3.885706e+00
-4.487435e+00
-5.128306e+00
-5.808447e+00
-6.528057e+00
-7.287388e+00
-8.086715e+00
-8.926303e+00
-9.806317e+00
-1.072655e+01
-1.168597e+01
-1.268223e+01
-1.371144e+01
-1.476826e+01
-1.584598e+01
-1.693654e+01
-1.803022e+01
-1.911533e+01
-2.017788e+01
-2.120176e+01
-2.216978e+01
-2.306471e+01
0.000000e+00
-1.148725e-01
-2.874093e-01
-5.198216e-01
-8.020232e-01
-1.127993e+00
-1.495603e+00
-1.903548e+00
-2.350651e+00
-2.836649e+00
-3.361487e+00
-3.925036e+00
-4.527361e+00
-5.168612e+00
-5.848930e+00
-6.568513e+00
-7.327599e+00
-8.126421e+00
-8.965238e+00
-9.844305e+00
-1.076353e+01
-1.172181e+01
-1.271638e+01
-1.374264e+01
-1.479442e+01
-1.586430e+01
-1.694368e+01
-1.802280e+01
-1.909071e+01
-2.013547e+01
-2.114489e+01
-2.210741e+01
-2.301242e+01
0.000000e+00
-1.079164e-01
-2.915563e-01
-5.372300e-01
-8.310342e-01
-1.164016e+00
-1.536537e+00
-1.948141e+00
-2.397541e+00
-2.885043e+00
-3.410963e+00
-3.975195e+00
-4.577917e+00
-5.219371e+00
-5.899692e+00
-6.619066e+00
-7.377705e+00
-8.175774e+00
-9.013481e+00
-9.891145e+00
-1.080878e+01
-1.176518e+01
-1.275722e+01
-1.377972e+01
-1.482596e+01
-1.588810e+01
-1.695736e+01
-1.802415e+01
-1.907825e+01
-2.010951e+01
-2.110895e+01
-2.207005e+01
-2.298934e+01
0.000000e+00
-1.140196e-01
-3.191447e-01
-5.780692e-01
-8.795688e-01
-1.217255e+00
-1.592668e+00
-2.006313e+00
-2.456970e+00
-2.945247e+00
-3.471699e+00
-4.036239e+00
-4.639097e+00
-5.280563e+00
-5.960756e+00
-6.679838e+00
-7.437990e+00
-8.235312e+00
-9.071950e+00
-9.948170e+00
-1.086390e+01
-1.181772e+01
-1.280617e+01
-1.382379e+01
-1.486367e+01
-1.591793e+01
-1.697788e+01
-1.803418e+01
-1.907725e+01
-2.009816e+01
-2.109026e+01
-2.205121e+01
-2.298503e+01
0.000000e+00
-1.490189e-01
-3.791901e-01
-6.430765e-01
-9.473293e-01
-1.286569e+00
-1.663279e+00
-2.077493e+00
-2.528445e+00
-3.016988e+00
-3.543524e+00
-4.108031e+00
-4.710820e+00
-5.352144e+00
-6.032101e+00
-6.750845e+00
-7.508516e+00
-8.305188e+00
-9.140976e+00
-1.001596e+01
-1.092967e+01
-1.188022e+01
-1.286386e+01
-1.387513e+01
-1.490741e+01
-1.595315e+01
-1.700398e+01
-1.805093e+01
-1.908492e+01
-2.009779e+01
-2.108419e+01
-2.204438e+01
-2.298820e+01
0.000000e+00
-2.398198e-01
-4.592712e-01
-7.276777e-01
-1.030722e+00
-1.369202e+00
-1.746982e+00
-2.160771e+00
-2.611404e+00
-3.100157e+00
-3.626525e+00
-4.190786e+00
-4.793444e+00
-5.434543e+00
-6.114189e+00
-6.832571e+00
-7.589760e+00
-8.385821e+00
-9.220860e+00
-1.009469e+01
-1.100614e+01
-1.195260e+01
-1.293001e+01