TITLE = "Solution"
VARIABLES = x, y, u, v, psiu, psiv, t, stress
ZONE T="structure" N=561 E=512 F=FEBLOCK ET=QUADRILATERAL VARLOCATION=([7,8]=cellcentered)
0.000000e+00
6.250000e+00
1.250000e+01
1.875000e+01
2.500000e+01
3.125000e+01
3.750000e+01
4.375000e+01
5.000000e+01
5.625000e+01
6.250000e+01
6.875000e+01
7.500000e+01
8.125000e+01
8.750000e+01
9.375000e+01
1.000000e+02
1.062500e+02
1.125000e+02
1.187500e+02
1.250000e+02
1.312500e+02
1.375000e+02
1.437500e+02
1.500000e+02
1.562500e+02
1.625000e+02
1.687500e+02
1.750000e+02
1.812500e+02
1.875000e+02
1.937500e+02
2.000000e+02
0.000000e+00
6.250000e+00
1.250000e+01
1.875000e+01
2.500000e+01
3.125000e+01
3.750000e+01
4.375000e+01
5.000000e+01
5.625000e+01
6.250000e+01
6.875000e+01
7.500000e+01
8.125000e+01
8.750000e+01
9.375000e+01
1.000000e+02
1.062500e+02
1.125000e+02
1.187500e+02
1.250000e+02
1.312500e+02
1.375000e+02
1.437500e+02
1.500000e+02
1.562500e+02
1.625000e+02
1.687500e+02
1.750000e+02
1.812500e+02
1.875000e+02
1.937500e+02
2.000000e+02
0.000000e+00
6.250000e+00
1.250000e+01
1.875000e+01
2.500000e+01
3.125000e+01
3.750000e+01
4.375000e+01
5.000000e+01
5.625000e+01
6.250000e+01
6.875000e+01
7.500000e+01
8.125000e+01
8.750000e+01
9.375000e+01
1.000000e+02
1.062500e+02
1.125000e+02
1.187500e+02
1.250000e+02
1.312500e+02
1.375000e+02
1.437500e+02
1.500000e+02
1.562500e+02
1.625000e+02
1.687500e+02
1.750000e+02
1.812500e+02
1.875000e+02
1.937500e+02
2.000000e+02
0.000000e+00
6.250000e+00
1.250000e+01
1.875000e+01
2.500000e+01
3.125000e+01
3.750000e+01
4.375000e+01
5.000000e+01
5.625000e+01
6.250000e+01
6.875000e+01
7.500000e+01
8.125000e+01
8.750000e+01
9.375000e+01
1.000000e+02
1.062500e+02
1.125000e+02
1.187500e+02
1.250000e+02
1.312500e+02
1.375000e+02
1.437500e+02
1.500000e+02
1.562500e+02
1.625000e+02
1.687500e+02
1.750000e+02
1.812500e+02
1.875000e+02
1.937500e+02
2.000000e+02
0.000000e+00
6.250000e+00
1.250000e+01
1.875000e+01
2.500000e+01
3.125000e+01
3.750000e+01
4.375000e+01
5.000000e+01
5.625000e+01
6.250000e+01
6.875000e+01
7.500000e+01
8.125000e+01
8.750000e+01
9.375000e+01
1.000000e+02
1.062500e+02
1.125000e+02
1.187500e+02
1.250000e+02
1.312500e+02
1.375000e+02
1.437500e+02
1.500000e+02
1.562500e+02
1.625000e+02
1.687500e+02
1.750000e+02
1.812500e+02
1.875000e+02
1.937500e+02
2.000000e+02
0.000000e+00
6.250000e+00
1.250000e+01
1.875000e+01
2.500000e+01
3.125000e+01
3.750000e+01
4.375000e+01
5.000000e+01
5.625000e+01
6.250000e+01
6.875000e+01
7.500000e+01
8.125000e+01
8.750000e+01
9.375000e+01
1.000000e+02
1.062500e+02
1.125000e+02
1.187500e+02
1.250000e+02
1.312500e+02
1.375000e+02
1.437500e+02
1.500000e+02
1.562500e+02
1.625000e+02
1.687500e+02
1.750000e+02
1.812500e+02
1.875000e+02
1.937500e+02
2.000000e+02
0.000000e+00
6.250000e+00
1.250000e+01
1.875000e+01
2.500000e+01
3.125000e+01
3.750000e+01
4.375000e+01
5.000000e+01
5.625000e+01
6.250000e+01
6.875000e+01
7.500000e+01
8.125000e+01
8.750000e+01
9.375000e+01
1.000000e+02
1.062500e+02
1.125000e+02
1.187500e+02
1.250000e+02
1.312500e+02
1.375000e+02
1.437500e+02
1.500000e+02
1.562500e+02
1.625000e+02
1.687500e+02
1.750000e+02
1.812500e+02
1.875000e+02
1.937500e+02
2.000000e+02
0.000000e+00
6.250000e+00
1.250000e+01
1.875000e+01
2.500000e+01
3.125000e+01
3.750000e+01
4.375000e+01
5.000000e+01
5.625000e+01
6.250000e+01
6.875000e+01
7.500000e+01
8.125000e+01
8.750000e+01
9.375000e+01
1.000000e+02
1.062500e+02
1.125000e+02
1.187500e+02
1.250000e+02
1.312500e+02
1.375000e+02
1.437500e+02
1.500000e+02
1.562500e+02
1.625000e+02
1.687500e+02
1.750000e+02
1.812500e+02
1.875000e+02
1.937500e+02
2.000000e+02
0.000000e+00
6.250000e+00
1.250000e+01
1.875000e+01
2.500000e+01
3.125000e+01
3.750000e+01
4.375000e+01
5.000000e+01
5.625000e+01
6.250000e+01
6.875000e+01
7.500000e+01
8.125000e+01
8.750000e+01
9.375000e+01
1.000000e+02
1.062500e+02
1.125000e+02
1.187500e+02
1.250000e+02
1.312500e+02
1.375000e+02
1.437500e+02
1.500000e+02
1.562500e+02
1.625000e+02
1.687500e+02
1.750000e+02
1.812500e+02
1.875000e+02
1.937500e+02
2.000000e+02
0.000000e+00
6.250000e+00
1.250000e+01
1.875000e+01
2.500000e+01
3.125000e+01
3.750000e+01
4.375000e+01
5.000000e+01
5.625000e+01
6.250000e+01
6.875000e+01
7.500000e+01
8.125000e+01
8.750000e+01
9.375000e+01
1.000000e+02
1.062500e+02
1.125000e+02
1.187500e+02
1.250000e+02
1.312500e+02
1.375000e+02
1.437500e+02
1.500000e+02
1.562500e+02
1.625000e+02
1.687500e+02
1.750000e+02
1.812500e+02
1.875000e+02
1.937500e+02
2.000000e+02
0.000000e+00
6.250000e+00
1.250000e+01
1.875000e+01
2.500000e+01
3.125000e+01
3.750000e+01
4.375000e+01
5.000000e+01
5.625000e+01
6.250000e+01
6.875000e+01
7.500000e+01
8.125000e+01
8.750000e+01
9.375000e+01
1.000000e+02
1.062500e+02
1.125000e+02
1.187500e+02
1.250000e+02
1.312500e+02
1.375000e+02
1.437500e+02
1.500000e+02
1.562500e+02
1.625000e+02
1.687500e+02
1.750000e+02
1.812500e+02
1.875000e+02
1.937500e+02
2.000000e+02
0.000000e+00
6.250000e+00
1.250000e+01
1.875000e+01
2.500000e+01
3.125000e+01
3.750000e+01
4.375000e+01
5.000000e+01
5.625000e+01
6.250000e+01
6.875000e+01
7.500000e+01
8.125000e+01
8.750000e+01
9.375000e+01
1.000000e+02
1.062500e+02
1.125000e+02
1.187500e+02
1.250000e+02
1.312500e+02
1.375000e+02
1.437500e+02
1.500000e+02
1.562500e+02
1.625000e+02
1.687500e+02
1.750000e+02
1.812500e+02
1.875000e+02
1.937500e+02
2.000000e+02
0.000000e+00
6.250000e+00
1.250000e+01
1.875000e+01
2.500000e+01
3.125000e+01
3.750000e+01
4.375000e+01
5.000000e+01
5.625000e+01
6.250000e+01
6.875000e+01
7.500000e+01
8.125000e+01
8.750000e+01
9.375000e+01
1.000000e+02
1.062500e+02
1.125000e+02
1.187500e+02
1.250000e+02
1.312500e+02
1.375000e+02
1.437500e+02
1.500000e+02
1.562500e+02
1.625000e+02
1.687500e+02
1.750000e+02
1.812500e+02
1.875000e+02
1.937500e+02
2.000000e+02
0.000000e+00
6.250000e+00
1.250000e+01
1.875000e+01
2.500000e+01
3.125000e+01
3.750000e+01
4.375000e+01
5.000000e+01
5.625000e+01
6.250000e+01
6.875000e+01
7.500000e+01
8.125000e+01
8.750000e+01
9.375000e+01
1.000000e+02
1.062500e+02
1.125000e+02
1.187500e+02
1.250000e+02
1.312500e+02
1.375000e+02
1.437500e+02
1.500000e+02
1.562500e+02
1.625000e+02
1.687500e+02
1.750000e+02
1.812500e+02
1.875000e+02
1.937500e+02
2.000000e+02
0.000000e+00
6.250000e+00
1.250000e+01
1.875000e+01
2.500000e+01
3.125000e+01
3.750000e+01
4.375000e+01
5.000000e+01
5.625000e+01
6.250000e+01
6.875000e+01
7.500000e+01
8.125000e+01
8.750000e+01
9.375000e+01
1.000000e+02
1.062500e+02
1.125000e+02
1.187500e+02
1.250000e+02
1.312500e+02
1.375000e+02
1.437500e+02
1.500000e+02
1.562500e+02
1.625000e+02
1.687500e+02
1.750000e+02
1.812500e+02
1.875000e+02
1.937500e+02
2.000000e+02
0.000000e+00
6.250000e+00
1.250000e+01
1.875000e+01
2.500000e+01
3.125000e+01
3.750000e+01
4.375000e+01
5.000000e+01
5.625000e+01
6.250000e+01
6.875000e+01
7.500000e+01
8.125000e+01
8.750000e+01
9.375000e+01
1.000000e+02
1.062500e+02
1.125000e+02
1.187500e+02
1.250000e+02
1.312500e+02
1.375000e+02
1.437500e+02
1.500000e+02
1.562500e+02
1.625000e+02
1.687500e+02
1.750000e+02
1.812500e+02
1.875000e+02
1.937500e+02
2.000000e+02
0.000000e+00
6.250000e+00
1.250000e+01
1.875000e+01
2.500000e+01
3.125000e+01
3.750000e+01
4.375000e+01
5.000000e+01
5.625000e+01
6.250000e+01
6.875000e+01
7.500000e+01
8.125000e+01
8.750000e+01
9.375000e+01
1.000000e+02
1.062500e+02
1.125000e+02
1.187500e+02
1.250000e+02
1.312500e+02
1.375000e+02
1.437500e+02
1.500000e+02
1.562500e+02
1.625000e+02
1.687500e+02
1.750000e+02
1.812500e+02
1.875000e+02
1.937500e+02
2.000000e+02
0.000000e+00
0.000000e+00
0.000000e+00
0.000000e+00
0.000000e+00
0.000000e+00
0.000000e+00
0.000000e+00
0.000000e+00
0.000000e+00
0.000000e+00
0.000000e+00
0.000000e+00
0.000000e+00
0.000000e+00
0.000000e+00
0.000000e+00
0.000000e+00
0.000000e+00
0.000000e+00
0.000000e+00
0.000000e+00
0.000000e+00
0.000000e+00
0.000000e+00
0.000000e+00
0.000000e+00
0.000000e+00
0.000000e+00
0.000000e+00
0.000000e+00
0.000000e+00
0.000000e+00
6.250000e+00
6.250000e+00
6.250000e+00
6.250000e+00
6.250000e+00
6.250000e+00
6.250000e+00
6.250000e+00
6.250000e+00
6.250000e+00
6.250000e+00
6.250000e+00
6.250000e+00
6.250000e+00
6.250000e+00
6.250000e+00
6.250000e+00
6.250000e+00
6.250000e+00
6.250000e+00
6.250000e+00
6.250000e+00
6.250000e+00
6.250000e+00
6.250000e+00
6.250000e+00
6.250000e+00
6.250000e+00
6.250000e+00
6.250000e+00
6.250000e+00
6.250000e+00
6.250000e+00
1.250000e+01
1.250000e+01
1.250000e+01
1.250000e+01
1.250000e+01
1.250000e+01
1.250000e+01
1.250000e+01
1.250000e+01
1.250000e+01
1.250000e+01
1.250000e+01
1.250000e+01
1.250000e+01
1.250000e+01
1.250000e+01
1.250000e+01
1.250000e+01
1.250000e+01
1.250000e+01
1.250000e+01
1.250000e+01
1.250000e+01
1.250000e+01
1.250000e+01
1.250000e+01
1.250000e+01
1.250000e+01
1.250000e+01
1.250000e+01
1.250000e+01
1.250000e+01
1.250000e+01
1.875000e+01
1.875000e+01
1.875000e+01
1.875000e+01
1.875000e+01
1.875000e+01
1.875000e+01
1.875000e+01
1.875000e+01
1.875000e+01
1.875000e+01
1.875000e+01
1.875000e+01
1.875000e+01
1.875000e+01
1.875000e+01
1.875000e+01
1.875000e+01
1.875000e+01
1.875000e+01
1.875000e+01
1.875000e+01
1.875000e+01
1.875000e+01
1.875000e+01
1.875000e+01
1.875000e+01
1.875000e+01
1.875000e+01
1.875000e+01
1.875000e+01
1.875000e+01
1.875000e+01
2.500000e+01
2.500000e+01
2.500000e+01
2.500000e+01
2.500000e+01
2.500000e+01
2.500000e+01
2.500000e+01
2.500000e+01
2.500000e+01
2.500000e+01
2.500000e+01
2.500000e+01
2.500000e+01
2.500000e+01
2.500000e+01
2.500000e+01
2.500000e+01
2.500000e+01
2.500000e+01
2.500000e+01
2.500000e+01
2.500000e+01
2.500000e+01
2.500000e+01
2.500000e+01
2.500000e+01
2.500000e+01
2.500000e+01
2.500000e+01
2.500000e+01
2.500000e+01
2.500000e+01
3.125000e+01
3.125000e+01
3.125000e+01
3.125000e+01
3.125000e+01
3.125000e+01
3.125000e+01
3.125000e+01
3.125000e+01
3.125000e+01
3.125000e+01
3.125000e+01
3.125000e+01
3.125000e+01
3.125000e+01
3.125000e+01
3.125000e+01
3.125000e+01
3.125000e+01
3.125000e+01
3.125000e+01
3.125000e+01
3.125000e+01
3.125000e+01
3.125000e+01
3.125000e+01
3.125000e+01
3.125000e+01
3.125000e+01
3.125000e+01
3.125000e+01
3.125000e+01
3.125000e+01
3.750000e+01
3.750000e+01
3.750000e+01
3.750000e+01
3.750000e+01
3.750000e+01
3.750000e+01
3.750000e+01
3.750000e+01
3.750000e+01
3.750000e+01
3.750000e+01
3.750000e+01
3.750000e+01
3.750000e+01
3.750000e+01
3.750000e+01
3.750000e+01
3.750000e+01
3.750000e+01
3.750000e+01
3.750000e+01
3.750000e+01
3.750000e+01
3.750000e+01
3.750000e+01
3.750000e+01
3.750000e+01
3.750000e+01
3.750000e+01
3.750000e+01
3.750000e+01
3.750000e+01
4.375000e+01
4.375000e+01
4.375000e+01
4.375000e+01
4.375000e+01
4.375000e+01
4.375000e+01
4.375000e+01
4.375000e+01
4.375000e+01
4.375000e+01
4.375000e+01
4.375000e+01
4.375000e+01
4.375000e+01
4.375000e+01
4.375000e+01
4.375000e+01
4.375000e+01
4.375000e+01
4.375000e+01
4.375000e+01
4.375000e+01
4.375000e+01
4.375000e+01
4.375000e+01
4.375000e+01
4.375000e+01
4.375000e+01
4.375000e+01
4.375000e+01
4.375000e+01
4.375000e+01
5.000000e+01
5.000000e+01
5.000000e+01
5.000000e+01
5.000000e+01
5.000000e+01
5.000000e+01
5.000000e+01
5.000000e+01
5.000000e+01
5.000000e+01
5.000000e+01
5.000000e+01
5.000000e+01
5.000000e+01
5.000000e+01
5.000000e+01
5.000000e+01
5.000000e+01
5.000000e+01
5.000000e+01
5.000000e+01
5.000000e+01
5.000000e+01
5.000000e+01
5.000000e+01
5.000000e+01
5.000000e+01
5.000000e+01
5.000000e+01
5.000000e+01
5.000000e+01
5.000000e+01
5.625000e+01
5.625000e+01
5.625000e+01
5.625000e+01
5.625000e+01
5.625000e+01
5.625000e+01
5.625000e+01
5.625000e+01
5.625000e+01
5.625000e+01
5.625000e+01
5.625000e+01
5.625000e+01
5.625000e+01
5.625000e+01
5.625000e+01
5.625000e+01
5.625000e+01
5.625000e+01
5.625000e+01
5.625000e+01
5.625000e+01
5.625000e+01
5.625000e+01
5.625000e+01
5.625000e+01
5.625000e+01
5.625000e+01
5.625000e+01
5.625000e+01
5.625000e+01
5.625000e+01
6.250000e+01
6.250000e+01
6.250000e+01
6.250000e+01
6.250000e+01
6.250000e+01
6.250000e+01
6.250000e+01
6.250000e+01
6.250000e+01
6.250000e+01
6.250000e+01
6.250000e+01
6.250000e+01
6.250000e+01
6.250000e+01
6.250000e+01
6.250000e+01
6.250000e+01
6.250000e+01
6.250000e+01
6.250000e+01
6.250000e+01
6.250000e+01
6.250000e+01
6.250000e+01
6.250000e+01
6.250000e+01
6.250000e+01
6.250000e+01
6.250000e+01
6.250000e+01
6.250000e+01
6.875000e+01
6.875000e+01
6.875000e+01
6.875000e+01
6.875000e+01
6.875000e+01
6.875000e+01
6.875000e+01
6.875000e+01
6.875000e+01
6.875000e+01
6.875000e+01
6.875000e+01
6.875000e+01
6.875000e+01
6.875000e+01
6.875000e+01
6.875000e+01
6.875000e+01
6.875000e+01
6.875000e+01
6.875000e+01
6.875000e+01
6.875000e+01
6.875000e+01
6.875000e+01
6.875000e+01
6.875000e+01
6.875000e+01
6.875000e+01
6.875000e+01
6.875000e+01
6.875000e+01
7.500000e+01
7.500000e+01
7.500000e+01
7.500000e+01
7.500000e+01
7.500000e+01
7.500000e+01
7.500000e+01
7.500000e+01
7.500000e+01
7.500000e+01
7.500000e+01
7.500000e+01
7.500000e+01
7.500000e+01
7.500000e+01
7.500000e+01
7.500000e+01
7.500000e+01
7.500000e+01
7.500000e+01
7.500000e+01
7.500000e+01
7.500000e+01
7.500000e+01
7.500000e+01
7.500000e+01
7.500000e+01
7.500000e+01
7.500000e+01
7.500000e+01
7.500000e+01
7.500000e+01
8.125000e+01
8.125000e+01
8.125000e+01
8.125000e+01
8.125000e+01
8.125000e+01
8.125000e+01
8.125000e+01
8.125000e+01
8.125000e+01
8.125000e+01
8.125000e+01
8.125000e+01
8.125000e+01
8.125000e+01
8.125000e+01
8.125000e+01
8.125000e+01
8.125000e+01
8.125000e+01
8.125000e+01
8.125000e+01
8.125000e+01
8.125000e+01
8.125000e+01
8.125000e+01
8.125000e+01
8.125000e+01
8.125000e+01
8.125000e+01
8.125000e+01
8.125000e+01
8.125000e+01
8.750000e+01
8.750000e+01
8.750000e+01
8.750000e+01
8.750000e+01
8.750000e+01
8.750000e+01
8.750000e+01
8.750000e+01
8.750000e+01
8.750000e+01
8.750000e+01
8.750000e+01
8.750000e+01
8.750000e+01
8.750000e+01
8.750000e+01
8.750000e+01
8.750000e+01
8.750000e+01
8.750000e+01
8.750000e+01
8.750000e+01
8.750000e+01
8.750000e+01
8.750000e+01
8.750000e+01
8.750000e+01
8.750000e+01
8.750000e+01
8.750000e+01
8.750000e+01
8.750000e+01
9.375000e+01
9.375000e+01
9.375000e+01
9.375000e+01
9.375000e+01
9.375000e+01
9.375000e+01
9.375000e+01
9.375000e+01
9.375000e+01
9.375000e+01
9.375000e+01
9.375000e+01
9.375000e+01
9.375000e+01
9.375000e+01
9.375000e+01
9.375000e+01
9.375000e+01
9.375000e+01
9.375000e+01
9.375000e+01
9.375000e+01
9.375000e+01
9.375000e+01
9.375000e+01
9.375000e+01
9.375000e+01
9.375000e+01
9.375000e+01
9.375000e+01
9.375000e+01
9.375000e+01
1.000000e+02
1.000000e+02
1.000000e+02
1.000000e+02
1.000000e+02
1.000000e+02
1.000000e+02
1.000000e+02
1.000000e+02
1.000000e+02
1.000000e+02
1.000000e+02
1.000000e+02
1.000000e+02
1.000000e+02
1.000000e+02
1.000000e+02
1.000000e+02
1.000000e+02
1.000000e+02
1.000000e+02
1.000000e+02
1.000000e+02
1.000000e+02
1.000000e+02
1.000000e+02
1.000000e+02
1.000000e+02
1.000000e+02
1.000000e+02
1.000000e+02
1.000000e+02
1.000000e+02
0.000000e+00
-4.321219e-01
-7.412468e-01
-1.065308e+00
-1.374281e+00
-1.672532e+00
-1.981212e+00
-2.280063e+00
-2.579303e+00
-2.881137e+00
-3.179554e+00
-3.479339e+00
-3.779025e+00
-4.077472e+00
-4.376726e+00
-4.675424e+00
-4.973827e+00
-5.272542e+00
-5.570907e+00
-5.869434e+00
-6.168213e+00
-6.467001e+00
-6.766825e+00
-7.067960e+00
-7.370724e+00
-7.679158e+00
-7.994679e+00
-8.315777e+00
-8.654566e+00
-9.034393e+00
-9.473991e+00
-9.880590e+00
-1.008831e+01
0.000000e+00
-2.353936e-01
-4.820608e-01
-7.455239e-01
-1.012691e+00
-1.266811e+00
-1.534304e+00
-1.795297e+00
-2.055971e+00
-2.320102e+00
-2.580705e+00
-2.842834e+00
-3.104869e+00
-3.365786e+00
-3.627478e+00
-3.888588e+00
-4.149386e+00
-4.410330e+00
-4.670775e+00
-4.931124e+00
-5.191383e+00
-5.451204e+00
-5.711268e+00
-5.971239e+00
-6.230457e+00
-6.490790e+00
-6.751204e+00
-7.007842e+00
-7.265162e+00
-7.525143e+00
-7.743580e+00
-7.833390e+00
-7.937734e+00
0.000000e+00
-1.361041e-01
-2.969091e-01
-4.966641e-01
-7.086019e-01
-9.149729e-01
-1.137895e+00
-1.358211e+00
-1.579754e+00
-1.804901e+00
-2.027828e+00
-2.252557e+00
-2.477590e+00
-2.702085e+00
-2.927433e+00
-3.152513e+00
-3.377463e+00
-3.602525e+00
-3.827092e+00
-4.051306e+00
-4.274964e+00
-4.497486e+00
-4.718748e+00
-4.937667e+00
-5.152418e+00
-5.361824e+00
-5.562696e+00
-5.749670e+00
-5.918003e+00
-6.054389e+00
-6.117307e+00
-6.118159e+00
-6.210079e+00
0.000000e+00
-1.025640e-01
-2.047081e-01
-3.478657e-01
-4.891477e-01
-6.494822e-01
-8.242918e-01
-1.000725e+00
-1.182621e+00
-1.367640e+00
-1.553171e+00
-1.740984e+00
-1.929754e+00
-2.118834e+00
-2.308930e+00
-2.499120e+00
-2.689326e+00
-2.879480e+00
-3.068913e+00
-3.257341e+00
-3.444143e+00
-3.628265e+00
-3.808568e+00
-3.983213e+00
-4.149474e+00
-4.304355e+00
-4.443688e+00
-4.561457e+00
-4.649783e+00
-4.697029e+00
-4.698484e+00
-4.707530e+00
-4.788563e+00
0.000000e+00
-8.974543e-02
-1.785003e-01
-2.762670e-01
-3.863050e-01
-5.078260e-01
-6.394613e-01
-7.759364e-01
-9.185899e-01
-1.063744e+00
-1.210813e+00
-1.359978e+00
-1.509594e+00
-1.660031e+00
-1.810795e+00
-1.961373e+00
-2.111678e+00
-2.261150e+00
-2.409275e+00
-2.555410e+00
-2.698584e+00
-2.837524e+00
-2.970586e+00
-3.095638e+00
-3.209973e+00
-3.310335e+00
-3.392738e+00
-3.452346e+00
-3.484546e+00
-3.488571e+00
-3.477515e+00
-3.504710e+00
-3.582437e+00
0.000000e+00
-7.131917e-02
-1.414820e-01
-2.152622e-01
-2.966459e-01
-3.850254e-01
-4.798973e-01
-5.805277e-01
-6.846479e-01
-7.917785e-01
-9.007233e-01
-1.010701e+00
-1.121485e+00
-1.232463e+00
-1.343367e+00
-1.453873e+00
-1.563528e+00
-1.671895e+00
-1.778346e+00
-1.882049e+00
-1.981934e+00
-2.076582e+00
-2.164220e+00
-2.242766e+00
-2.309831e+00
-2.362804e+00
-2.398945e+00
-2.415847e+00
-2.413457e+00
-2.396802e+00
-2.389840e+00
-2.422050e+00
-2.495197e+00
0.000000e+00
-4.900990e-02
-9.767712e-02
-1.479892e-01
-2.018224e-01
-2.598901e-01
-3.220455e-01
-3.876650e-01
-4.559961e-01
-5.261622e-01
-5.975379e-01
-6.695614e-01
-7.417949e-01
-8.139059e-01
-8.855441e-01
-9.563753e-01
-1.026009e+00
-1.093956e+00
-1.159599e+00
-1.222123e+00
-1.280460e+00
-1.333248e+00
-1.378834e+00
-1.415358e+00
-1.440904e+00
-1.453705e+00
-1.452418e+00
-1.436840e+00
-1.409893e+00
-1.381306e+00
-1.373736e+00
-1.407403e+00
-1.479185e+00
0.000000e+00
-2.530328e-02
-5.051142e-02
-7.632839e-02
-1.035420e-01
-1.325687e-01
-1.634139e-01
-1.958179e-01
-2.293638e-01
-2.636295e-01
-2.982048e-01
-3.327459e-01
-3.669549e-01
-4.005566e-01
-4.332826e-01
-4.648364e-01
-4.948746e-01
-5.229775e-01
-5.486134e-01
-5.710949e-01
-5.895279e-01
-6.027713e-01
-6.094395e-01
-6.080078e-01
-5.970146e-01
-5.752981e-01
-5.424977e-01
-5.005306e-01
-4.558922e-01
-4.203360e-01
-4.139014e-01
-4.489816e-01
-5.204169e-01
0.000000e+00
-9.936229e-04
-1.935388e-03
-2.784557e-03
-3.491970e-03
-3.996755e-03
-4.226439e-03
-4.096543e-03
-3.512111e-03
-2.368441e-03
-5.512554e-04
2.063996e-03
5.615030e-03
1.025765e-02
1.617340e-02
2.357855e-02
3.273291e-02
4.394973e-02
5.761280e-02
7.420569e-02
9.434543e-02
1.188214e-01
1.486173e-01
1.848248e-01
2.284259e-01
2.799111e-01
3.382638e-01
3.990529e-01
4.533743e-01
4.889097e-01
4.918688e-01
4.556410e-01
3.877007e-01
0.000000e+00
2.334934e-02
4.670349e-02
7.084598e-02
9.666540e-02
1.246973e-01
1.550938e-01
1.877628e-01
2.224755e-01
2.590174e-01
2.972027e-01
3.369316e-01
3.781718e-01
4.209443e-01
4.653228e-01
5.114180e-01
5.593804e-01
6.093954e-01
6.616856e-01
7.165264e-01
7.742427e-01
8.352130e-01
8.998874e-01
9.686838e-01
1.041703e+00
1.118112e+00
1.194979e+00
1.266204e+00
1.322722e+00
1.354420e+00
1.353621e+00
1.319718e+00
1.262588e+00
0.000000e+00
4.715200e-02
9.404186e-02
1.427482e-01
1.952372e-01
2.523499e-01
3.140803e-01
3.799769e-01
4.494737e-01
5.218962e-01
5.968439e-01
6.739870e-01
7.531340e-01
8.342105e-01
9.171422e-01
1.001914e+00
1.088523e+00
1.176973e+00
1.267312e+00
1.359631e+00
1.454000e+00
1.550384e+00
1.648551e+00
1.747822e+00
1.846899e+00
1.943499e+00
2.033343e+00
2.109920e+00
2.166033e+00
2.195524e+00
2.195399e+00
2.168829e+00
2.126664e+00
0.000000e+00
6.959887e-02
1.380979e-01
2.103367e-01
2.904577e-01
3.778869e-01
4.723345e-01
5.732204e-01
6.784407e-01
7.877655e-01
9.002052e-01
1.015234e+00
1.132872e+00
1.252733e+00
1.374755e+00
1.498782e+00
1.624527e+00
1.751754e+00
1.880180e+00
2.009591e+00
2.139658e+00
2.269778e+00
2.399077e+00
2.525983e+00
2.648002e+00
2.761768e+00
2.862588e+00
2.944865e+00
3.003665e+00
3.035928e+00
3.041485e+00
3.024997e+00
2.997573e+00
0.000000e+00
8.820346e-02
1.753320e-01
2.717276e-01
3.803849e-01
5.009605e-01
6.320444e-01
7.684993e-01
9.119851e-01
1.058913e+00
1.209041e+00
1.362804e+00
1.518845e+00
1.677837e+00
1.839427e+00
2.003195e+00
2.168928e+00
2.335790e+00
2.503091e+00
2.670096e+00
2.835594e+00
2.998332e+00
3.157239e+00
3.310487e+00
3.454849e+00
3.586090e+00
3.699545e+00
3.790804e+00
3.856743e+00
3.896035e+00
3.909903e+00
3.903764e+00
3.889075e+00
0.000000e+00
1.011735e-01
2.022399e-01
3.438628e-01
4.839705e-01
6.430959e-01
8.169988e-01
9.928940e-01
1.174684e+00
1.360366e+00
1.547461e+00
1.738100e+00
1.931301e+00
2.126765e+00
2.325507e+00
2.526711e+00
2.730095e+00
2.934954e+00
3.140049e+00
3.344224e+00
3.545501e+00
3.742206e+00
3.933356e+00
4.116391e+00
4.286407e+00
4.437978e+00
4.566527e+00
4.668882e+00
4.743585e+00
4.790874e+00
4.813093e+00
4.815996e+00
4.811017e+00
0.000000e+00
1.357329e-01
2.961085e-01
4.951722e-01
7.060486e-01
9.115201e-01
1.133529e+00
1.352998e+00
1.573886e+00
1.798584e+00
2.021393e+00
2.246502e+00
2.472603e+00
2.699092e+00
2.927601e+00
3.157221e+00
3.388025e+00
3.619849e+00
3.851773e+00
4.083014e+00
4.311793e+00
4.537197e+00
4.758962e+00
4.972818e+00
5.170069e+00
5.342561e+00
5.485497e+00
5.597160e+00
5.678083e+00
5.730480e+00
5.758172e+00
5.767252e+00
5.768240e+00
0.000000e+00
2.353295e-01
4.820110e-01
7.454016e-01
1.012399e+00
1.266381e+00
1.533673e+00
1.794391e+00
2.054787e+00
2.318525e+00
2.578624e+00
2.840144e+00
3.101380e+00
3.361282e+00
3.621678e+00
3.881167e+00
4.139895e+00
4.398101e+00
4.655203e+00
4.911145e+00
5.165113e+00
5.417460e+00
5.668545e+00
5.911724e+00
6.133754e+00
6.323624e+00
6.476310e+00
6.591325e+00
6.671160e+00
6.720547e+00
6.746018e+00
6.755337e+00
6.757596e+00
0.000000e+00
4.322546e-01
7.419182e-01
1.066431e+00
1.376236e+00
1.675303e+00
1.984732e+00
2.284329e+00
2.584174e+00
2.886447e+00
3.184986e+00
3.484496e+00
3.783239e+00
4.079816e+00
4.375967e+00
4.670012e+00
4.962020e+00
5.252461e+00
5.541016e+00
5.828179e+00
6.114108e+00
6.399822e+00
6.684333e+00
6.957164e+00
7.201035e+00
7.403357e+00
7.558979e+00
7.667868e+00
7.733781e+00
7.764133e+00
7.770135e+00
7.765927e+00
7.763449e+00
0.000000e+00
-2.597047e-01
-5.257219e-01
-8.597398e-01
-1.230872e+00
-1.642951e+00
-2.097883e+00
-2.587867e+00
-3.117002e+00
-3.683562e+00
-4.286995e+00
-4.928925e+00
-5.608186e+00
-6.325287e+00
-7.080494e+00
-7.873432e+00
-8.704539e+00
-9.573863e+00
-1.048147e+01
-1.142777e+01
-1.241288e+01
-1.343719e+01
-1.450133e+01
-1.560577e+01
-1.675216e+01
-1.794350e+01
-1.918324e+01
-2.047846e+01
-2.184161e+01
-2.328662e+01
-2.483767e+01
-2.665701e+01
-2.920951e+01
0.000000e+00
-1.638828e-01
-4.454400e-01
-7.729215e-01
-1.147897e+00
-1.558768e+00
-2.013215e+00
-2.504487e+00
-3.032797e+00
-3.599532e+00
-4.203198e+00
-4.844862e+00
-5.524359e+00
-6.241470e+00
-6.996645e+00
-7.789732e+00
-8.620834e+00
-9.490208e+00
-1.039789e+01
-1.134417e+01
-1.232935e+01
-1.335364e+01
-1.441764e+01
-1.552209e+01
-1.666805e+01
-1.785845e+01
-1.909786e+01
-2.039208e+01
-2.175195e+01
-2.319581e+01
-2.476623e+01
-2.656542e+01
-2.883997e+01
0.000000e+00
-1.343149e-01
-3.870910e-01
-7.116933e-01
-1.081620e+00
-1.490412e+00
-1.943379e+00
-2.433890e+00
-2.961493e+00
-3.527995e+00
-4.131430e+00
-4.772881e+00
-5.452403e+00
-6.169404e+00
-6.924605e+00
-7.717765e+00
-8.548921e+00
-9.418456e+00
-1.032632e+01
-1.127283e+01
-1.225836e+01
-1.328307e+01
-1.434769e+01
-1.545316e+01
-1.660039e+01
-1.779258e+01
-1.903463e+01
-2.033225e+01
-2.169834e+01
-2.316351e+01
-2.476369e+01
-2.645812e+01
-2.822880e+01
0.000000e+00
-1.502323e-01
-3.730053e-01
-6.860998e-01
-1.040775e+00
-1.443398e+00
-1.892429e+00
-2.379023e+00
-2.905211e+00
-3.470419e+00
-4.072820e+00
-4.713877e+00
-5.392955e+00
-6.109753e+00
-6.864938e+00
-7.658136e+00
-8.489518e+00
-9.359419e+00
-1.026781e+01
-1.121509e+01
-1.220166e+01
-1.322778e+01
-1.429433e+01
-1.540235e+01
-1.655305e+01
-1.774959e+01
-1.899671e+01
-2.030081e+01
-2.167675e+01
-2.315580e+01
-2.474542e+01
-2.630398e+01
-2.772576e+01
0.000000e+00
-1.693092e-01
-3.915947e-01
-6.851408e-01
-1.029148e+00
-1.421103e+00
-1.862249e+00
-2.342989e+00
-2.865830e+00
-3.428338e+00
-4.029060e+00
-4.669206e+00
-5.347492e+00
-6.064119e+00
-6.819288e+00
-7.612706e+00
-8.444653e+00
-9.315303e+00
-1.022481e+01
-1.117359e+01
-1.216207e+01
-1.319074e+01
-1.426041e+01
-1.537215e+01
-1.652742e+01
-1.772902e+01
-1.898115e+01
-2.028975e+01
-2.166685e+01
-2.313232e+01
-2.466526e+01
-2.610011e+01
-2.735619e+01
0.000000e+00
-1.776079e-01
-4.051306e-01
-6.887720e-01
-1.024918e+00
-1.410156e+00
-1.842949e+00
-2.319546e+00
-2.838331e+00
-3.398205e+00
-3.997711e+00
-4.636686e+00
-5.314654e+00
-6.031308e+00
-6.786721e+00
-7.580803e+00
-8.413673e+00
-9.285568e+00
-1.019675e+01
-1.114765e+01
-1.213880e+01
-1.317076e+01
-1.424425e+01
-1.536013e+01
-1.651970e+01
-1.772514e+01
-1.897957e+01
-2.028628e+01
-2.164987e+01
-2.307850e+01
-2.452561e+01
-2.587250e+01
-2.703696e+01
0.000000e+00
-1.815747e-01
-4.112864e-01
-6.918919e-01
-1.023292e+00
-1.403892e+00
-1.831720e+00
-2.304633e+00
-2.820765e+00
-3.378646e+00
-3.977189e+00
-4.615643e+00
-5.293529e+00
-6.010550e+00
-6.766569e+00
-7.561581e+00
-8.395692e+00
-9.269137e+00
-1.018227e+01
-1.113559e+01
-1.212966e+01
-1.316508e+01
-1.424239e+01
-1.536206e+01
-1.652468e+01
-1.773142e+01
-1.898375e+01
-2.028102e+01
-2.161996e+01
-2.299808e+01
-2.436635e+01
-2.564068e+01
-2.674122e+01
0.000000e+00
-1.832866e-01
-4.139487e-01
-6.936746e-01
-1.022918e+00
-1.400932e+00
-1.826247e+00
-2.297092e+00
-2.811748e+00
-3.368738e+00
-3.966900e+00
-4.605397e+00
-5.283661e+00
-6.001344e+00
-6.758278e+00
-7.554441e+00
-8.389946e+00
-9.265042e+00
-1.018013e+01
-1.113573e+01
-1.213248e+01
-1.317096e+01
-1.425147e+01
-1.537388e+01
-1.653772e+01
-1.774272e+01
-1.898816e+01
-2.026978e+01
-2.157816e+01
-2.290413e+01
-2.420233e+01
-2.540911e+01
-2.645223e+01
0.000000e+00
-1.837845e-01
-4.147990e-01
-6.944383e-01
-1.023230e+00
-1.400665e+00
-1.825466e+00
-2.295995e+00
-2.810589e+00
-3.367777e+00
-3.966382e+00
-4.605532e+00
-5.284631e+00
-6.003312e+00
-6.761395e+00
-7.558848e+00
-8.395776e+00
-9.272419e+00
-1.018917e+01
-1.114660e+01
-1.214534e+01
-1.318594e+01
-1.426848e+01
-1.539204e+01
-1.655488e+01
-1.775508e+01
-1.898965e+01
-2.025147e+01
-2.152780e+01
-2.280298e+01
-2.403926e+01
-2.518227e+01
-2.617253e+01
0.000000e+00
-1.833752e-01
-4.142571e-01
-6.943471e-01
-1.024116e+00
-1.402834e+00
-1.829048e+00
-2.300996e+00
-2.816967e+00
-3.375481e+00
-3.975370e+00
-4.615792e+00
-5.296167e+00
-6.016142e+00
-6.775542e+00
-7.574331e+00
-8.412589e+00
-9.290512e+00
-1.020846e+01
-1.116697e+01
-1.216666e+01
-1.320802e+01
-1.429091e+01
-1.541358e+01
-1.657305e+01
-1.776600e+01
-1.898736e+01
-2.022761e+01
-2.147215e+01
-2.270154e+01
-2.388422e+01
-2.497548e+01
-2.592890e+01
0.000000e+00
-1.817405e-01
-4.118757e-01
-6.931921e-01
-1.025619e+00
-1.407602e+00
-1.837202e+00
-2.312293e+00
-2.831020e+00
-3.391910e+00
-3.993863e+00
-4.636107e+00
-5.318138e+00
-6.039634e+00
-6.800434e+00
-7.600501e+00
-8.439871e+00
-9.318660e+00
-1.023715e+01
-1.119585e+01
-1.219524e+01
-1.323566e+01
-1.431678e+01
-1.543646e+01
-1.659085e+01
-1.777535e+01
-1.898294e+01
-2.020201e+01
-2.141704e+01
-2.260839e+01
-2.374944e+01
-2.480651e+01
-2.574416e+01
0.000000e+00
-1.778234e-01
-4.059267e-01
-6.906065e-01
-1.028227e+00
-1.415462e+00
-1.850864e+00
-2.330641e+00
-2.853236e+00
-3.417536e+00
-4.022047e+00
-4.666585e+00
-5.350601e+00
-6.073732e+00
-6.835980e+00
-7.637175e+00
-8.477316e+00
-9.356424e+00
-1.027466e+01
-1.123250e+01
-1.223019e+01
-1.326776e+01
-1.434514e+01
-1.546045e+01
-1.660930e+01
-1.778553e+01
-1.898011e+01
-2.018006e+01
-2.136975e+01
-2.253129e+01
-2.364319e+01
-2.468107e+01
-2.561937e+01
0.000000e+00
-1.695104e-01
-3.924407e-01
-6.873773e-01
-1.033137e+00
-1.427649e+00
-1.872161e+00
-2.356938e+00
-2.884712e+00
-3.452933e+00
-4.060125e+00
-4.707476e+00
-5.393562e+00
-6.118477e+00
-6.882237e+00
-7.684392e+00
-8.524990e+00
-9.403834e+00
-1.032098e+01
-1.127688e+01
-1.227140e+01
-1.330453e+01
-1.437704e+01
-1.548779e+01
-1.663174e+01
-1.780072e+01
-1.898376e+01
-2.016717e+01
-2.133604e+01
-2.247479e+01
-2.356698e+01
-2.459622e+01
-2.554667e+01
0.000000e+00
-1.502838e-01
-3.739215e-01
-6.883442e-01
-1.045122e+00
-1.450605e+00
-1.903516e+00
-2.394837e+00
-2.926760e+00
-3.498713e+00
-4.108754e+00
-4.758377e+00
-5.446759e+00
-6.173386e+00
-6.938664e+00
-7.741849e+00
-8.582713e+00
-9.461029e+00
-1.037662e+01
-1.132983e+01
-1.232035e+01
-1.334852e+01
-1.441626e+01
-1.552309e+01
-1.666283e+01
-1.782518e+01
-1.899771e+01
-2.016679e+01
-2.131863e+01
-2.243988e+01
-2.351845e+01
-2.454510e+01
-2.551431e+01
0.000000e+00
-1.345767e-01
-3.880890e-01
-7.139503e-01
-1.085902e+00
-1.497661e+00
-1.954643e+00
-2.450138e+00
-2.983802e+00
-3.557496e+00
-4.169129e+00
-4.819843e+00
-5.509525e+00
-6.237299e+00
-7.003599e+00
-7.807614e+00
-8.648771e+00
-9.526775e+00
-1.044119e+01
-1.139211e+01
-1.237933e+01
-1.340372e+01
-1.446784e+01
-1.557111e+01
-1.670603e+01
-1.786091e+01
-1.902298e+01
-2.017926e+01
-2.131704e+01
-2.242464e+01
-2.349316e+01
-2.451926e+01
-2.550804e+01
0.000000e+00
-1.641748e-01
-4.463738e-01
-7.750761e-01
-1.152031e+00
-1.565910e+00
-2.024379e+00
-2.520699e+00
-3.055167e+00
-3.629185e+00
-4.241216e+00
-4.892341e+00
-5.582246e+00
-6.310438e+00
-7.077028e+00
-7.881230e+00
-8.722422e+00
-9.600139e+00
-1.051385e+01
-1.146341e+01
-1.244888e+01
-1.347161e+01
-1.453364e+01
-1.563299e+01
-1.676117e+01
-1.790661e+01
-1.905742e+01
-2.020165e+01
-2.132748e+01
-2.242429e+01
-2.348498e+01
-2.450988e+01
-2.551227e+01
0.000000e+00
-2.600423e-01
-5.267322e-01
-8.619576e-01
-1.235114e+00
-1.650188e+00
-2.109123e+00
-2.604159e+00
-3.139434e+00
-3.713237e+00
-4.324999e+00
-4.976317e+00
-5.665873e+00
-6.393905e+00
-7.160308e+00
-7.964080e+00
-8.804907e+00
-9.682176e+00
-1.059534e+01
-1.154423e+01
-1.252909e+01
-1.355154e+01
-1.461214e+01