TITLE = "Solution"
VARIABLES = x, y, u, v, psiu, psiv, t, stress
ZONE T="structure" N=561 E=512 F=FEBLOCK ET=QUADRILATERAL VARLOCATION=([7,8]=cellcentered)
0.000000e+00
6.250000e+00
1.250000e+01
1.875000e+01
2.500000e+01
3.125000e+01
3.750000e+01
4.375000e+01
5.000000e+01
5.625000e+01
6.250000e+01
6.875000e+01
7.500000e+01
8.125000e+01
8.750000e+01
9.375000e+01
1.000000e+02
1.062500e+02
1.125000e+02
1.187500e+02
1.250000e+02
1.312500e+02
1.375000e+02
1.437500e+02
1.500000e+02
1.562500e+02
1.625000e+02
1.687500e+02
1.750000e+02
1.812500e+02
1.875000e+02
1.937500e+02
2.000000e+02
0.000000e+00
6.250000e+00
1.250000e+01
1.875000e+01
2.500000e+01
3.125000e+01
3.750000e+01
4.375000e+01
5.000000e+01
5.625000e+01
6.250000e+01
6.875000e+01
7.500000e+01
8.125000e+01
8.750000e+01
9.375000e+01
1.000000e+02
1.062500e+02
1.125000e+02
1.187500e+02
1.250000e+02
1.312500e+02
1.375000e+02
1.437500e+02
1.500000e+02
1.562500e+02
1.625000e+02
1.687500e+02
1.750000e+02
1.812500e+02
1.875000e+02
1.937500e+02
2.000000e+02
0.000000e+00
6.250000e+00
1.250000e+01
1.875000e+01
2.500000e+01
3.125000e+01
3.750000e+01
4.375000e+01
5.000000e+01
5.625000e+01
6.250000e+01
6.875000e+01
7.500000e+01
8.125000e+01
8.750000e+01
9.375000e+01
1.000000e+02
1.062500e+02
1.125000e+02
1.187500e+02
1.250000e+02
1.312500e+02
1.375000e+02
1.437500e+02
1.500000e+02
1.562500e+02
1.625000e+02
1.687500e+02
1.750000e+02
1.812500e+02
1.875000e+02
1.937500e+02
2.000000e+02
0.000000e+00
6.250000e+00
1.250000e+01
1.875000e+01
2.500000e+01
3.125000e+01
3.750000e+01
4.375000e+01
5.000000e+01
5.625000e+01
6.250000e+01
6.875000e+01
7.500000e+01
8.125000e+01
8.750000e+01
9.375000e+01
1.000000e+02
1.062500e+02
1.125000e+02
1.187500e+02
1.250000e+02
1.312500e+02
1.375000e+02
1.437500e+02
1.500000e+02
1.562500e+02
1.625000e+02
1.687500e+02
1.750000e+02
1.812500e+02
1.875000e+02
1.937500e+02
2.000000e+02
0.000000e+00
6.250000e+00
1.250000e+01
1.875000e+01
2.500000e+01
3.125000e+01
3.750000e+01
4.375000e+01
5.000000e+01
5.625000e+01
6.250000e+01
6.875000e+01
7.500000e+01
8.125000e+01
8.750000e+01
9.375000e+01
1.000000e+02
1.062500e+02
1.125000e+02
1.187500e+02
1.250000e+02
1.312500e+02
1.375000e+02
1.437500e+02
1.500000e+02
1.562500e+02
1.625000e+02
1.687500e+02
1.750000e+02
1.812500e+02
1.875000e+02
1.937500e+02
2.000000e+02
0.000000e+00
6.250000e+00
1.250000e+01
1.875000e+01
2.500000e+01
3.125000e+01
3.750000e+01
4.375000e+01
5.000000e+01
5.625000e+01
6.250000e+01
6.875000e+01
7.500000e+01
8.125000e+01
8.750000e+01
9.375000e+01
1.000000e+02
1.062500e+02
1.125000e+02
1.187500e+02
1.250000e+02
1.312500e+02
1.375000e+02
1.437500e+02
1.500000e+02
1.562500e+02
1.625000e+02
1.687500e+02
1.750000e+02
1.812500e+02
1.875000e+02
1.937500e+02
2.000000e+02
0.000000e+00
6.250000e+00
1.250000e+01
1.875000e+01
2.500000e+01
3.125000e+01
3.750000e+01
4.375000e+01
5.000000e+01
5.625000e+01
6.250000e+01
6.875000e+01
7.500000e+01
8.125000e+01
8.750000e+01
9.375000e+01
1.000000e+02
1.062500e+02
1.125000e+02
1.187500e+02
1.250000e+02
1.312500e+02
1.375000e+02
1.437500e+02
1.500000e+02
1.562500e+02
1.625000e+02
1.687500e+02
1.750000e+02
1.812500e+02
1.875000e+02
1.937500e+02
2.000000e+02
0.000000e+00
6.250000e+00
1.250000e+01
1.875000e+01
2.500000e+01
3.125000e+01
3.750000e+01
4.375000e+01
5.000000e+01
5.625000e+01
6.250000e+01
6.875000e+01
7.500000e+01
8.125000e+01
8.750000e+01
9.375000e+01
1.000000e+02
1.062500e+02
1.125000e+02
1.187500e+02
1.250000e+02
1.312500e+02
1.375000e+02
1.437500e+02
1.500000e+02
1.562500e+02
1.625000e+02
1.687500e+02
1.750000e+02
1.812500e+02
1.875000e+02
1.937500e+02
2.000000e+02
0.000000e+00
6.250000e+00
1.250000e+01
1.875000e+01
2.500000e+01
3.125000e+01
3.750000e+01
4.375000e+01
5.000000e+01
5.625000e+01
6.250000e+01
6.875000e+01
7.500000e+01
8.125000e+01
8.750000e+01
9.375000e+01
1.000000e+02
1.062500e+02
1.125000e+02
1.187500e+02
1.250000e+02
1.312500e+02
1.375000e+02
1.437500e+02
1.500000e+02
1.562500e+02
1.625000e+02
1.687500e+02
1.750000e+02
1.812500e+02
1.875000e+02
1.937500e+02
2.000000e+02
0.000000e+00
6.250000e+00
1.250000e+01
1.875000e+01
2.500000e+01
3.125000e+01
3.750000e+01
4.375000e+01
5.000000e+01
5.625000e+01
6.250000e+01
6.875000e+01
7.500000e+01
8.125000e+01
8.750000e+01
9.375000e+01
1.000000e+02
1.062500e+02
1.125000e+02
1.187500e+02
1.250000e+02
1.312500e+02
1.375000e+02
1.437500e+02
1.500000e+02
1.562500e+02
1.625000e+02
1.687500e+02
1.750000e+02
1.812500e+02
1.875000e+02
1.937500e+02
2.000000e+02
0.000000e+00
6.250000e+00
1.250000e+01
1.875000e+01
2.500000e+01
3.125000e+01
3.750000e+01
4.375000e+01
5.000000e+01
5.625000e+01
6.250000e+01
6.875000e+01
7.500000e+01
8.125000e+01
8.750000e+01
9.375000e+01
1.000000e+02
1.062500e+02
1.125000e+02
1.187500e+02
1.250000e+02
1.312500e+02
1.375000e+02
1.437500e+02
1.500000e+02
1.562500e+02
1.625000e+02
1.687500e+02
1.750000e+02
1.812500e+02
1.875000e+02
1.937500e+02
2.000000e+02
0.000000e+00
6.250000e+00
1.250000e+01
1.875000e+01
2.500000e+01
3.125000e+01
3.750000e+01
4.375000e+01
5.000000e+01
5.625000e+01
6.250000e+01
6.875000e+01
7.500000e+01
8.125000e+01
8.750000e+01
9.375000e+01
1.000000e+02
1.062500e+02
1.125000e+02
1.187500e+02
1.250000e+02
1.312500e+02
1.375000e+02
1.437500e+02
1.500000e+02
1.562500e+02
1.625000e+02
1.687500e+02
1.750000e+02
1.812500e+02
1.875000e+02
1.937500e+02
2.000000e+02
0.000000e+00
6.250000e+00
1.250000e+01
1.875000e+01
2.500000e+01
3.125000e+01
3.750000e+01
4.375000e+01
5.000000e+01
5.625000e+01
6.250000e+01
6.875000e+01
7.500000e+01
8.125000e+01
8.750000e+01
9.375000e+01
1.000000e+02
1.062500e+02
1.125000e+02
1.187500e+02
1.250000e+02
1.312500e+02
1.375000e+02
1.437500e+02
1.500000e+02
1.562500e+02
1.625000e+02
1.687500e+02
1.750000e+02
1.812500e+02
1.875000e+02
1.937500e+02
2.000000e+02
0.000000e+00
6.250000e+00
1.250000e+01
1.875000e+01
2.500000e+01
3.125000e+01
3.750000e+01
4.375000e+01
5.000000e+01
5.625000e+01
6.250000e+01
6.875000e+01
7.500000e+01
8.125000e+01
8.750000e+01
9.375000e+01
1.000000e+02
1.062500e+02
1.125000e+02
1.187500e+02
1.250000e+02
1.312500e+02
1.375000e+02
1.437500e+02
1.500000e+02
1.562500e+02
1.625000e+02
1.687500e+02
1.750000e+02
1.812500e+02
1.875000e+02
1.937500e+02
2.000000e+02
0.000000e+00
6.250000e+00
1.250000e+01
1.875000e+01
2.500000e+01
3.125000e+01
3.750000e+01
4.375000e+01
5.000000e+01
5.625000e+01
6.250000e+01
6.875000e+01
7.500000e+01
8.125000e+01
8.750000e+01
9.375000e+01
1.000000e+02
1.062500e+02
1.125000e+02
1.187500e+02
1.250000e+02
1.312500e+02
1.375000e+02
1.437500e+02
1.500000e+02
1.562500e+02
1.625000e+02
1.687500e+02
1.750000e+02
1.812500e+02
1.875000e+02
1.937500e+02
2.000000e+02
0.000000e+00
6.250000e+00
1.250000e+01
1.875000e+01
2.500000e+01
3.125000e+01
3.750000e+01
4.375000e+01
5.000000e+01
5.625000e+01
6.250000e+01
6.875000e+01
7.500000e+01
8.125000e+01
8.750000e+01
9.375000e+01
1.000000e+02
1.062500e+02
1.125000e+02
1.187500e+02
1.250000e+02
1.312500e+02
1.375000e+02
1.437500e+02
1.500000e+02
1.562500e+02
1.625000e+02
1.687500e+02
1.750000e+02
1.812500e+02
1.875000e+02
1.937500e+02
2.000000e+02
0.000000e+00
6.250000e+00
1.250000e+01
1.875000e+01
2.500000e+01
3.125000e+01
3.750000e+01
4.375000e+01
5.000000e+01
5.625000e+01
6.250000e+01
6.875000e+01
7.500000e+01
8.125000e+01
8.750000e+01
9.375000e+01
1.000000e+02
1.062500e+02
1.125000e+02
1.187500e+02
1.250000e+02
1.312500e+02
1.375000e+02
1.437500e+02
1.500000e+02
1.562500e+02
1.625000e+02
1.687500e+02
1.750000e+02
1.812500e+02
1.875000e+02
1.937500e+02
2.000000e+02
0.000000e+00
0.000000e+00
0.000000e+00
0.000000e+00
0.000000e+00
0.000000e+00
0.000000e+00
0.000000e+00
0.000000e+00
0.000000e+00
0.000000e+00
0.000000e+00
0.000000e+00
0.000000e+00
0.000000e+00
0.000000e+00
0.000000e+00
0.000000e+00
0.000000e+00
0.000000e+00
0.000000e+00
0.000000e+00
0.000000e+00
0.000000e+00
0.000000e+00
0.000000e+00
0.000000e+00
0.000000e+00
0.000000e+00
0.000000e+00
0.000000e+00
0.000000e+00
0.000000e+00
6.250000e+00
6.250000e+00
6.250000e+00
6.250000e+00
6.250000e+00
6.250000e+00
6.250000e+00
6.250000e+00
6.250000e+00
6.250000e+00
6.250000e+00
6.250000e+00
6.250000e+00
6.250000e+00
6.250000e+00
6.250000e+00
6.250000e+00
6.250000e+00
6.250000e+00
6.250000e+00
6.250000e+00
6.250000e+00
6.250000e+00
6.250000e+00
6.250000e+00
6.250000e+00
6.250000e+00
6.250000e+00
6.250000e+00
6.250000e+00
6.250000e+00
6.250000e+00
6.250000e+00
1.250000e+01
1.250000e+01
1.250000e+01
1.250000e+01
1.250000e+01
1.250000e+01
1.250000e+01
1.250000e+01
1.250000e+01
1.250000e+01
1.250000e+01
1.250000e+01
1.250000e+01
1.250000e+01
1.250000e+01
1.250000e+01
1.250000e+01
1.250000e+01
1.250000e+01
1.250000e+01
1.250000e+01
1.250000e+01
1.250000e+01
1.250000e+01
1.250000e+01
1.250000e+01
1.250000e+01
1.250000e+01
1.250000e+01
1.250000e+01
1.250000e+01
1.250000e+01
1.250000e+01
1.875000e+01
1.875000e+01
1.875000e+01
1.875000e+01
1.875000e+01
1.875000e+01
1.875000e+01
1.875000e+01
1.875000e+01
1.875000e+01
1.875000e+01
1.875000e+01
1.875000e+01
1.875000e+01
1.875000e+01
1.875000e+01
1.875000e+01
1.875000e+01
1.875000e+01
1.875000e+01
1.875000e+01
1.875000e+01
1.875000e+01
1.875000e+01
1.875000e+01
1.875000e+01
1.875000e+01
1.875000e+01
1.875000e+01
1.875000e+01
1.875000e+01
1.875000e+01
1.875000e+01
2.500000e+01
2.500000e+01
2.500000e+01
2.500000e+01
2.500000e+01
2.500000e+01
2.500000e+01
2.500000e+01
2.500000e+01
2.500000e+01
2.500000e+01
2.500000e+01
2.500000e+01
2.500000e+01
2.500000e+01
2.500000e+01
2.500000e+01
2.500000e+01
2.500000e+01
2.500000e+01
2.500000e+01
2.500000e+01
2.500000e+01
2.500000e+01
2.500000e+01
2.500000e+01
2.500000e+01
2.500000e+01
2.500000e+01
2.500000e+01
2.500000e+01
2.500000e+01
2.500000e+01
3.125000e+01
3.125000e+01
3.125000e+01
3.125000e+01
3.125000e+01
3.125000e+01
3.125000e+01
3.125000e+01
3.125000e+01
3.125000e+01
3.125000e+01
3.125000e+01
3.125000e+01
3.125000e+01
3.125000e+01
3.125000e+01
3.125000e+01
3.125000e+01
3.125000e+01
3.125000e+01
3.125000e+01
3.125000e+01
3.125000e+01
3.125000e+01
3.125000e+01
3.125000e+01
3.125000e+01
3.125000e+01
3.125000e+01
3.125000e+01
3.125000e+01
3.125000e+01
3.125000e+01
3.750000e+01
3.750000e+01
3.750000e+01
3.750000e+01
3.750000e+01
3.750000e+01
3.750000e+01
3.750000e+01
3.750000e+01
3.750000e+01
3.750000e+01
3.750000e+01
3.750000e+01
3.750000e+01
3.750000e+01
3.750000e+01
3.750000e+01
3.750000e+01
3.750000e+01
3.750000e+01
3.750000e+01
3.750000e+01
3.750000e+01
3.750000e+01
3.750000e+01
3.750000e+01
3.750000e+01
3.750000e+01
3.750000e+01
3.750000e+01
3.750000e+01
3.750000e+01
3.750000e+01
4.375000e+01
4.375000e+01
4.375000e+01
4.375000e+01
4.375000e+01
4.375000e+01
4.375000e+01
4.375000e+01
4.375000e+01
4.375000e+01
4.375000e+01
4.375000e+01
4.375000e+01
4.375000e+01
4.375000e+01
4.375000e+01
4.375000e+01
4.375000e+01
4.375000e+01
4.375000e+01
4.375000e+01
4.375000e+01
4.375000e+01
4.375000e+01
4.375000e+01
4.375000e+01
4.375000e+01
4.375000e+01
4.375000e+01
4.375000e+01
4.375000e+01
4.375000e+01
4.375000e+01
5.000000e+01
5.000000e+01
5.000000e+01
5.000000e+01
5.000000e+01
5.000000e+01
5.000000e+01
5.000000e+01
5.000000e+01
5.000000e+01
5.000000e+01
5.000000e+01
5.000000e+01
5.000000e+01
5.000000e+01
5.000000e+01
5.000000e+01
5.000000e+01
5.000000e+01
5.000000e+01
5.000000e+01
5.000000e+01
5.000000e+01
5.000000e+01
5.000000e+01
5.000000e+01
5.000000e+01
5.000000e+01
5.000000e+01
5.000000e+01
5.000000e+01
5.000000e+01
5.000000e+01
5.625000e+01
5.625000e+01
5.625000e+01
5.625000e+01
5.625000e+01
5.625000e+01
5.625000e+01
5.625000e+01
5.625000e+01
5.625000e+01
5.625000e+01
5.625000e+01
5.625000e+01
5.625000e+01
5.625000e+01
5.625000e+01
5.625000e+01
5.625000e+01
5.625000e+01
5.625000e+01
5.625000e+01
5.625000e+01
5.625000e+01
5.625000e+01
5.625000e+01
5.625000e+01
5.625000e+01
5.625000e+01
5.625000e+01
5.625000e+01
5.625000e+01
5.625000e+01
5.625000e+01
6.250000e+01
6.250000e+01
6.250000e+01
6.250000e+01
6.250000e+01
6.250000e+01
6.250000e+01
6.250000e+01
6.250000e+01
6.250000e+01
6.250000e+01
6.250000e+01
6.250000e+01
6.250000e+01
6.250000e+01
6.250000e+01
6.250000e+01
6.250000e+01
6.250000e+01
6.250000e+01
6.250000e+01
6.250000e+01
6.250000e+01
6.250000e+01
6.250000e+01
6.250000e+01
6.250000e+01
6.250000e+01
6.250000e+01
6.250000e+01
6.250000e+01
6.250000e+01
6.250000e+01
6.875000e+01
6.875000e+01
6.875000e+01
6.875000e+01
6.875000e+01
6.875000e+01
6.875000e+01
6.875000e+01
6.875000e+01
6.875000e+01
6.875000e+01
6.875000e+01
6.875000e+01
6.875000e+01
6.875000e+01
6.875000e+01
6.875000e+01
6.875000e+01
6.875000e+01
6.875000e+01
6.875000e+01
6.875000e+01
6.875000e+01
6.875000e+01
6.875000e+01
6.875000e+01
6.875000e+01
6.875000e+01
6.875000e+01
6.875000e+01
6.875000e+01
6.875000e+01
6.875000e+01
7.500000e+01
7.500000e+01
7.500000e+01
7.500000e+01
7.500000e+01
7.500000e+01
7.500000e+01
7.500000e+01
7.500000e+01
7.500000e+01
7.500000e+01
7.500000e+01
7.500000e+01
7.500000e+01
7.500000e+01
7.500000e+01
7.500000e+01
7.500000e+01
7.500000e+01
7.500000e+01
7.500000e+01
7.500000e+01
7.500000e+01
7.500000e+01
7.500000e+01
7.500000e+01
7.500000e+01
7.500000e+01
7.500000e+01
7.500000e+01
7.500000e+01
7.500000e+01
7.500000e+01
8.125000e+01
8.125000e+01
8.125000e+01
8.125000e+01
8.125000e+01
8.125000e+01
8.125000e+01
8.125000e+01
8.125000e+01
8.125000e+01
8.125000e+01
8.125000e+01
8.125000e+01
8.125000e+01
8.125000e+01
8.125000e+01
8.125000e+01
8.125000e+01
8.125000e+01
8.125000e+01
8.125000e+01
8.125000e+01
8.125000e+01
8.125000e+01
8.125000e+01
8.125000e+01
8.125000e+01
8.125000e+01
8.125000e+01
8.125000e+01
8.125000e+01
8.125000e+01
8.125000e+01
8.750000e+01
8.750000e+01
8.750000e+01
8.750000e+01
8.750000e+01
8.750000e+01
8.750000e+01
8.750000e+01
8.750000e+01
8.750000e+01
8.750000e+01
8.750000e+01
8.750000e+01
8.750000e+01
8.750000e+01
8.750000e+01
8.750000e+01
8.750000e+01
8.750000e+01
8.750000e+01
8.750000e+01
8.750000e+01
8.750000e+01
8.750000e+01
8.750000e+01
8.750000e+01
8.750000e+01
8.750000e+01
8.750000e+01
8.750000e+01
8.750000e+01
8.750000e+01
8.750000e+01
9.375000e+01
9.375000e+01
9.375000e+01
9.375000e+01
9.375000e+01
9.375000e+01
9.375000e+01
9.375000e+01
9.375000e+01
9.375000e+01
9.375000e+01
9.375000e+01
9.375000e+01
9.375000e+01
9.375000e+01
9.375000e+01
9.375000e+01
9.375000e+01
9.375000e+01
9.375000e+01
9.375000e+01
9.375000e+01
9.375000e+01
9.375000e+01
9.375000e+01
9.375000e+01
9.375000e+01
9.375000e+01
9.375000e+01
9.375000e+01
9.375000e+01
9.375000e+01
9.375000e+01
1.000000e+02
1.000000e+02
1.000000e+02
1.000000e+02
1.000000e+02
1.000000e+02
1.000000e+02
1.000000e+02
1.000000e+02
1.000000e+02
1.000000e+02
1.000000e+02
1.000000e+02
1.000000e+02
1.000000e+02
1.000000e+02
1.000000e+02
1.000000e+02
1.000000e+02
1.000000e+02
1.000000e+02
1.000000e+02
1.000000e+02
1.000000e+02
1.000000e+02
1.000000e+02
1.000000e+02
1.000000e+02
1.000000e+02
1.000000e+02
1.000000e+02
1.000000e+02
1.000000e+02
0.000000e+00
-4.583886e-01
-7.688223e-01
-1.103365e+00
-1.407734e+00
-1.704215e+00
-2.013096e+00
-2.305671e+00
-2.607135e+00
-2.903895e+00
-3.202270e+00
-3.502130e+00
-3.800673e+00
-4.100962e+00
-4.400883e+00
-4.701093e+00
-5.001831e+00
-5.302391e+00
-5.603179e+00
-5.904271e+00
-6.205092e+00
-6.506267e+00
-6.806761e+00
-7.105703e+00
-7.407657e+00
-7.709586e+00
-8.019269e+00
-8.343664e+00
-8.668669e+00
-9.036907e+00
-9.510059e+00
-9.925799e+00
-1.013233e+01
0.000000e+00
-2.329368e-01
-4.741655e-01
-7.384266e-01
-1.005131e+00
-1.258923e+00
-1.527896e+00
-1.788161e+00
-2.050590e+00
-2.315205e+00
-2.575374e+00
-2.839805e+00
-3.100942e+00
-3.363374e+00
-3.625799e+00
-3.886984e+00
-4.149411e+00
-4.410645e+00
-4.672101e+00
-4.933719e+00
-5.194304e+00
-5.455738e+00
-5.716427e+00
-5.976854e+00
-6.238880e+00
-6.498208e+00
-6.759691e+00
-7.021881e+00
-7.276849e+00
-7.539421e+00
-7.783108e+00
-7.879994e+00
-7.985578e+00
0.000000e+00
-1.133739e-01
-2.594430e-01
-4.561394e-01
-6.708129e-01
-8.769932e-01
-1.103517e+00
-1.326276e+00
-1.550501e+00
-1.778790e+00
-2.001361e+00
-2.228171e+00
-2.451802e+00
-2.676216e+00
-2.900708e+00
-3.124006e+00
-3.348497e+00
-3.572099e+00
-3.796096e+00
-4.020422e+00
-4.243963e+00
-4.468380e+00
-4.692870e+00
-4.917260e+00
-5.140851e+00
-5.358447e+00
-5.567991e+00
-5.764564e+00
-5.941440e+00
-6.089097e+00
-6.167916e+00
-6.171479e+00
-6.264216e+00
0.000000e+00
-1.026576e-01
-1.914455e-01
-3.383626e-01
-4.641006e-01
-6.220803e-01
-7.970499e-01
-9.690342e-01
-1.154315e+00
-1.335423e+00
-1.520139e+00
-1.705133e+00
-1.890566e+00
-2.076825e+00
-2.263655e+00
-2.451093e+00
-2.639589e+00
-2.828867e+00
-3.018887e+00
-3.209863e+00
-3.400718e+00
-3.591542e+00
-3.781429e+00
-3.967254e+00
-4.146737e+00
-4.314052e+00
-4.464223e+00
-4.593512e+00
-4.692579e+00
-4.751271e+00
-4.762664e+00
-4.777279e+00
-4.858512e+00
0.000000e+00
-9.124678e-02
-1.812188e-01
-2.729705e-01
-3.828100e-01
-4.999741e-01
-6.306617e-01
-7.654980e-01
-9.076122e-01
-1.051356e+00
-1.196386e+00
-1.344023e+00
-1.490466e+00
-1.638977e+00
-1.787214e+00
-1.935912e+00
-2.085493e+00
-2.234664e+00
-2.384185e+00
-2.532965e+00
-2.680128e+00
-2.824915e+00
-2.965114e+00
-3.098672e+00
-3.222522e+00
-3.333227e+00
-3.426749e+00
-3.498202e+00
-3.543220e+00
-3.561626e+00
-3.559450e+00
-3.588636e+00
-3.662734e+00
0.000000e+00
-7.287342e-02
-1.433421e-01
-2.174599e-01
-2.980342e-01
-3.860968e-01
-4.803569e-01
-5.809840e-01
-6.847622e-01
-7.917580e-01
-9.000452e-01
-1.008956e+00
-1.118639e+00
-1.228076e+00
-1.337798e+00
-1.447293e+00
-1.556433e+00
-1.665132e+00
-1.772672e+00
-1.878574e+00
-1.981750e+00
-2.080717e+00
-2.173834e+00
-2.258915e+00
-2.333676e+00
-2.395794e+00
-2.443043e+00
-2.473237e+00
-2.486609e+00
-2.480433e+00
-2.475777e+00
-2.504718e+00
-2.572955e+00
0.000000e+00
-5.025696e-02
-1.000842e-01
-1.512043e-01
-2.057702e-01
-2.643013e-01
-3.270006e-01
-3.930882e-01
-4.619077e-01
-5.323935e-01
-6.038582e-01
-6.757057e-01
-7.475148e-01
-8.191305e-01
-8.902831e-01
-9.608447e-01
-1.030571e+00
-1.099144e+00
-1.166134e+00
-1.230836e+00
-1.292257e+00
-1.349048e+00
-1.399623e+00
-1.442265e+00
-1.475219e+00
-1.496732e+00
-1.505960e+00
-1.502293e+00
-1.481857e+00
-1.453346e+00
-1.443555e+00
-1.471614e+00
-1.539737e+00
0.000000e+00
-2.644295e-02
-5.278730e-02
-7.973486e-02
-1.080008e-01
-1.380460e-01
-1.698526e-01
-2.032040e-01
-2.376279e-01
-2.726699e-01
-3.078601e-01
-3.428505e-01
-3.773969e-01
-4.112975e-01
-4.443916e-01
-4.764719e-01
-5.073131e-01
-5.366449e-01
-5.641148e-01
-5.892093e-01
-6.111286e-01
-6.287409e-01
-6.406980e-01
-6.457856e-01
-6.426905e-01
-6.304238e-01
-6.070201e-01
-5.679749e-01
-5.207822e-01
-4.758988e-01
-4.587352e-01
-4.872746e-01
-5.569074e-01
0.000000e+00
-1.879752e-03
-3.813081e-03
-5.731287e-03
-7.562760e-03
-9.227320e-03
-1.063698e-02
-1.169069e-02
-1.227921e-02
-1.228328e-02
-1.158874e-02
-1.009338e-02
-7.705490e-03
-4.319887e-03
2.088917e-04
6.074396e-03
1.349440e-02
2.267612e-02
3.381806e-02
4.716377e-02
6.315465e-02
8.255461e-02
1.064346e-01
1.359900e-01
1.716138e-01
2.159169e-01
2.732561e-01
3.406091e-01
4.062316e-01
4.515211e-01
4.629229e-01
4.301052e-01
3.575670e-01
0.000000e+00
2.276869e-02
4.533676e-02
6.854619e-02
9.326393e-02
1.201095e-01
1.492472e-01
1.806402e-01
2.140165e-01
2.491060e-01
2.856289e-01
3.234057e-01
3.623734e-01
4.025644e-01
4.441361e-01
4.872864e-01
5.322320e-01
5.791464e-01
6.281506e-01
6.793146e-01
7.326633e-01
7.885201e-01
8.474317e-01
9.102646e-01
9.806196e-01
1.060434e+00
1.144953e+00
1.228500e+00
1.297125e+00
1.337080e+00
1.337548e+00
1.299445e+00
1.239019e+00
0.000000e+00
4.682500e-02
9.312522e-02
1.407868e-01
1.921233e-01
2.478536e-01
3.083424e-01
3.730227e-01
4.413223e-01
5.122977e-01
5.852774e-01
6.597108e-01
7.352764e-01
8.120473e-01
8.901462e-01
9.698828e-01
1.051417e+00
1.134912e+00
1.220660e+00
1.308903e+00
1.399969e+00
1.493849e+00
1.590403e+00
1.691436e+00
1.796168e+00
1.903152e+00
2.006139e+00
2.093028e+00
2.156135e+00
2.186474e+00
2.183274e+00
2.154028e+00
2.110156e+00
0.000000e+00
6.979816e-02
1.370995e-01
2.081372e-01
2.859513e-01
3.717769e-01
4.646680e-01
5.648061e-01
6.693354e-01
7.779638e-01
8.889308e-01
1.001350e+00
1.115234e+00
1.229886e+00
1.346014e+00
1.463421e+00
1.582080e+00
1.701955e+00
1.823275e+00
1.947262e+00
2.075619e+00
2.209713e+00
2.347736e+00
2.484472e+00
2.616502e+00
2.740624e+00
2.850985e+00
2.939722e+00
2.999425e+00
3.030425e+00
3.034716e+00
3.017124e+00
2.989137e+00
0.000000e+00
8.865247e-02
1.757701e-01
2.648356e-01
3.722233e-01
4.879453e-01
6.178866e-01
7.540036e-01
8.979152e-01
1.045256e+00
1.194544e+00
1.346959e+00
1.499552e+00
1.655216e+00
1.812364e+00
1.971885e+00
2.133464e+00
2.296318e+00
2.460846e+00
2.626156e+00
2.793641e+00
2.961338e+00
3.126958e+00
3.288097e+00
3.439515e+00
3.577152e+00
3.695881e+00
3.789913e+00
3.857705e+00
3.897670e+00
3.911385e+00
3.904998e+00
3.890227e+00
0.000000e+00
1.006597e-01
1.874177e-01
3.311824e-01
4.546376e-01
6.107540e-01
7.856308e-01
9.586810e-01
1.147187e+00
1.331839e+00
1.521261e+00
1.710363e+00
1.901083e+00
2.095008e+00
2.292146e+00
2.492365e+00
2.695314e+00
2.901315e+00
3.109901e+00
3.319515e+00
3.526837e+00
3.728260e+00
3.921230e+00
4.105833e+00
4.280222e+00
4.436897e+00
4.570750e+00
4.677083e+00
4.754149e+00
4.802623e+00
4.825283e+00
4.828270e+00
4.823393e+00
0.000000e+00
1.130808e-01
2.580531e-01
4.523044e-01
6.642295e-01
8.677795e-01
1.092446e+00
1.314940e+00
1.539845e+00
1.770439e+00
1.995602e+00
2.224670e+00
2.450891e+00
2.679196e+00
2.909388e+00
3.139870e+00
3.371593e+00
3.603347e+00
3.836431e+00
4.070112e+00
4.302049e+00
4.529056e+00
4.750878e+00
4.968130e+00
5.172994e+00
5.353836e+00
5.502680e+00
5.618014e+00
5.701117e+00
5.754641e+00
5.782811e+00
5.792050e+00
5.793152e+00
0.000000e+00
2.333818e-01
4.749022e-01
7.390733e-01
1.005480e+00
1.259085e+00
1.527507e+00
1.787400e+00
2.049386e+00
2.313395e+00
2.573086e+00
2.836679e+00
3.096907e+00
3.358096e+00
3.618872e+00
3.878241e+00
4.138103e+00
4.396134e+00
4.653298e+00
4.909598e+00
5.163775e+00
5.416879e+00
5.670611e+00
5.922219e+00
6.154620e+00
6.352114e+00
6.509602e+00
6.627375e+00
6.708619e+00
6.758601e+00
6.784231e+00
6.793551e+00
6.795832e+00
0.000000e+00
4.584990e-01
7.704107e-01
1.107152e+00
1.414185e+00
1.713214e+00
2.024176e+00
2.317273e+00
2.618802e+00
2.913727e+00
3.209993e+00
3.507628e+00
3.803239e+00
4.099156e+00
4.392423e+00
4.683995e+00
4.975109e+00
5.264819e+00
5.552341e+00
5.839687e+00
6.125350e+00
6.413246e+00
6.703871e+00
6.988142e+00
7.242724e+00
7.451493e+00
7.610504e+00
7.720842e+00
7.786970e+00
7.816888e+00
7.822314e+00
7.817738e+00
7.815166e+00
0.000000e+00
-2.733084e-01
-5.699708e-01
-9.461497e-01
-1.358867e+00
-1.811204e+00
-2.304751e+00
-2.830717e+00
-3.394613e+00
-3.992821e+00
-4.626986e+00
-5.298569e+00
-6.006333e+00
-6.752441e+00
-7.535901e+00
-8.357588e+00
-9.217754e+00
-1.011610e+01
-1.105341e+01
-1.202938e+01
-1.304457e+01
-1.409950e+01
-1.519386e+01
-1.632816e+01
-1.750231e+01
-1.871776e+01
-1.997976e+01
-2.129422e+01
-2.267155e+01
-2.413073e+01
-2.568788e+01
-2.750118e+01
-3.005217e+01
0.000000e+00
-1.749750e-01
-4.897862e-01
-8.586810e-01
-1.276856e+00
-1.726701e+00
-2.220437e+00
-2.747598e+00
-3.310185e+00
-3.909383e+00
-4.542838e+00
-5.214642e+00
-5.922469e+00
-6.668352e+00
-7.452052e+00
-8.273583e+00
-9.133815e+00
-1.003221e+01
-1.096943e+01
-1.194551e+01
-1.296058e+01
-1.401548e+01
-1.511005e+01
-1.624406e+01
-1.741829e+01
-1.863337e+01
-1.989353e+01
-2.120774e+01
-2.258361e+01
-2.403586e+01
-2.561363e+01
-2.741179e+01
-2.967473e+01
0.000000e+00
-1.508077e-01
-4.318886e-01
-8.007345e-01
-1.210144e+00
-1.657927e+00
-2.150140e+00
-2.675938e+00
-3.238544e+00
-3.837315e+00
-4.471073e+00
-5.142714e+00
-5.850945e+00
-6.596733e+00
-7.380722e+00
-8.202284e+00
-9.062588e+00
-9.961137e+00
-1.089828e+01
-1.187458e+01
-1.288952e+01
-1.394422e+01
-1.503872e+01
-1.617261e+01
-1.734800e+01
-1.856468e+01
-1.982736e+01
-2.114533e+01
-2.252607e+01
-2.399917e+01
-2.561587e+01
-2.730684e+01
-2.906482e+01
0.000000e+00
-1.870532e-01
-4.285420e-01
-7.896997e-01
-1.172426e+00
-1.612399e+00
-2.101050e+00
-2.619762e+00
-3.183255e+00
-3.779623e+00
-4.413482e+00
-5.085201e+00
-5.793055e+00
-6.539280e+00
-7.323185e+00
-8.144781e+00
-9.005252e+00
-9.903733e+00
-1.084099e+01
-1.181751e+01
-1.283260e+01
-1.388751e+01
-1.498255e+01
-1.611777e+01
-1.729573e+01
-1.851696e+01
-1.978548e+01
-2.110977e+01
-2.250035e+01
-2.398998e+01
-2.560022e+01
-2.715458e+01
-2.856234e+01
0.000000e+00
-2.050904e-01
-4.601393e-01
-7.886640e-01
-1.168409e+00
-1.592701e+00
-2.072210e+00
-2.585478e+00
-3.144439e+00
-3.739682e+00
-4.371801e+00
-5.043959e+00
-5.751177e+00
-6.497896e+00
-7.281830e+00
-8.103521e+00
-8.964285e+00
-9.862802e+00
-1.080050e+01
-1.177743e+01
-1.279339e+01
-1.384958e+01
-1.494627e+01
-1.608438e+01
-1.726553e+01
-1.849142e+01
-1.976569e+01
-2.109451e+01
-2.248708e+01
-2.396716e+01
-2.550788e+01
-2.695156e+01
-2.821209e+01
0.000000e+00
-2.127572e-01
-4.753484e-01
-7.938814e-01
-1.164721e+00
-1.584685e+00
-2.052655e+00
-2.564020e+00
-3.117424e+00
-3.711045e+00
-4.343024e+00
-5.013769e+00
-5.722236e+00
-6.468670e+00
-7.253199e+00
-8.075642e+00
-8.936609e+00
-9.836125e+00
-1.077466e+01
-1.175275e+01
-1.277071e+01
-1.382922e+01
-1.492889e+01
-1.607041e+01
-1.725482e+01
-1.848355e+01
-1.975988e+01
-2.108792e+01
-2.246773e+01
-2.391037e+01
-2.535658e+01
-2.672070e+01
-2.791077e+01
0.000000e+00
-2.165766e-01
-4.813662e-01
-7.970221e-01
-1.163392e+00
-1.578972e+00
-2.041910e+00
-2.549850e+00
-3.100750e+00
-3.692754e+00
-4.324534e+00
-4.995184e+00
-5.704186e+00
-6.451309e+00
-7.236507e+00
-8.059909e+00
-8.921734e+00
-9.822330e+00
-1.076219e+01
-1.174192e+01
-1.276218e+01
-1.382353e+01
-1.492641e+01
-1.607115e+01
-1.725806e+01
-1.848740e+01
-1.976059e+01
-2.108170e+01
-2.243368e+01
-2.382527e+01
-2.519872e+01
-2.649220e+01
-2.762161e+01
0.000000e+00
-2.180165e-01
-4.836539e-01
-7.984681e-01
-1.162855e+00
-1.576085e+00
-2.036704e+00
-2.542857e+00
-3.092617e+00
-3.684217e+00
-4.316170e+00
-4.987404e+00
-5.697220e+00
-6.445282e+00
-7.231512e+00
-8.055997e+00
-8.918956e+00
-9.820736e+00
-1.076190e+01
-1.174324e+01
-1.276560e+01
-1.382960e+01
-1.493528e+01
-1.608241e+01
-1.727041e+01
-1.849816e+01
-1.976313e+01
-2.106674e+01
-2.238581e+01
-2.372471e+01
-2.504044e+01
-2.627003e+01
-2.734111e+01
0.000000e+00
-2.182969e-01
-4.841748e-01
-7.988991e-01
-1.162932e+00
-1.575760e+00
-2.036112e+00
-2.542279e+00
-3.092412e+00
-3.684730e+00
-4.317679e+00
-4.990051e+00
-5.701063e+00
-6.450335e+00
-7.237791e+00
-8.063527e+00
-8.927705e+00
-9.830615e+00
-1.077282e+01
-1.175526e+01
-1.277905e+01
-1.384496e+01
-1.495274e+01
-1.610080e+01
-1.728795e+01
-1.850996e+01
-1.976088e+01
-2.103975e+01
-2.233093e+01
-2.361869e+01
-2.487616e+01
-2.603621e+01
-2.703606e+01
0.000000e+00
-2.177657e-01
-4.834446e-01
-7.985991e-01
-1.163646e+00
-1.577886e+00
-2.039901e+00
-2.547866e+00
-3.099859e+00
-3.694053e+00
-4.328814e+00
-5.002877e+00
-5.715424e+00
-6.466112e+00
-7.254936e+00
-8.082022e+00
-8.947452e+00
-9.851357e+00
-1.079421e+01
-1.177697e+01
-1.280111e+01
-1.386780e+01
-1.497638e+01
-1.612387e+01
-1.730471e+01
-1.851634e+01
-1.975166e+01
-2.100747e+01
-2.226975e+01
-2.351670e+01
-2.471635e+01
-2.581790e+01
-2.677807e+01
0.000000e+00
-2.160783e-01
-4.809533e-01
-7.972913e-01
-1.164987e+00
-1.582596e+00
-2.048336e+00
-2.559895e+00
-3.115215e+00
-3.712329e+00
-4.349603e+00
-5.025751e+00
-5.740026e+00
-6.492213e+00
-7.282445e+00
-8.110916e+00
-8.977545e+00
-9.882264e+00
-1.082539e+01
-1.180773e+01
-1.283096e+01
-1.389700e+01
-1.500357e+01
-1.614577e+01
-1.731719e+01
-1.851691e+01
-1.973976e+01
-2.097457e+01
-2.220957e+01
-2.341886e+01
-2.457417e+01
-2.564129e+01
-2.658712e+01
0.000000e+00
-2.119927e-01
-4.747145e-01
-7.942769e-01
-1.167101e+00
-1.590182e+00
-2.062364e+00
-2.579244e+00
-3.139204e+00
-3.740305e+00
-4.380345e+00
-5.058905e+00
-5.774839e+00
-6.528434e+00
-7.320067e+00
-8.149718e+00
-9.017241e+00
-9.922248e+00
-1.086510e+01
-1.184623e+01
-1.286780e+01
-1.393018e+01
-1.503049e+01
-1.616441e+01
-1.732751e+01
-1.851782e+01
-1.972931e+01
-2.094818e+01
-2.215726e+01
-2.333685e+01
-2.446280e+01
-2.551205e+01
-2.645993e+01
0.000000e+00
-2.039580e-01
-4.591846e-01
-7.890830e-01
-1.171389e+00
-1.600125e+00
-2.085165e+00
-2.606254e+00
-3.173605e+00
-3.778708e+00
-4.421247e+00
-5.103045e+00
-5.819791e+00
-6.575413e+00
-7.368224e+00
-8.198851e+00
-9.066760e+00
-9.970905e+00
-1.091240e+01
-1.189115e+01
-1.290942e+01
-1.396554e+01
-1.505732e+01
-1.618362e+01
-1.734126e+01
-1.852601e+01
-1.972902e+01
-2.093304e+01
-2.212145e+01
-2.327733e+01
-2.438398e+01
-2.542550e+01
-2.638691e+01
0.000000e+00
-1.853822e-01
-4.271408e-01
-7.895439e-01
-1.175666e+00
-1.620968e+00
-2.117363e+00
-2.645296e+00
-3.219715e+00
-3.827393e+00
-4.473365e+00
-5.156245e+00
-5.875178e+00
-6.632260e+00
-7.426638e+00
-8.257955e+00
-9.125530e+00
-1.002872e+01
-1.096794e+01
-1.194367e+01
-1.295649e+01
-1.400503e+01
-1.508888e+01
-1.621009e+01
-1.736668e+01
-1.854860e+01
-1.974322e+01
-2.093283e+01
-2.210338e+01
-2.324113e+01
-2.433415e+01
-2.537372e+01
-2.635503e+01
0.000000e+00
-1.490632e-01
-4.298357e-01
-7.997057e-01
-1.212607e+00
-1.666468e+00
-2.167436e+00
-2.703781e+00
-3.278335e+00
-3.889406e+00
-4.535390e+00
-5.218916e+00
-5.939097e+00
-6.696977e+00
-7.492389e+00
-8.323637e+00
-9.190962e+00
-1.009362e+01
-1.103146e+01
-1.200459e+01
-1.301239e+01
-1.405458e+01
-1.513362e+01
-1.625369e+01
-1.740950e+01
-1.858666e+01
-1.977011e+01
-2.094612e+01
-2.210177e+01
-2.322540e+01
-2.430833e+01
-2.534770e+01
-2.634937e+01
0.000000e+00
-1.733571e-01
-4.874626e-01
-8.572466e-01
-1.278861e+00
-1.735062e+00
-2.237802e+00
-2.776040e+00
-3.350848e+00
-3.962724e+00
-4.608343e+00
-5.292233e+00
-6.012350e+00
-6.770682e+00
-7.566006e+00
-8.396951e+00
-9.263817e+00
-1.016583e+01
-1.110289e+01
-1.207438e+01
-1.307956e+01
-1.411939e+01
-1.519778e+01
-1.631682e+01
-1.746745e+01
-1.863485e+01
-1.980608e+01
-2.096924e+01
-2.211239e+01
-2.322492e+01
-2.429996e+01
-2.533831e+01
-2.635398e+01
0.000000e+00
-2.719198e-01
-5.679726e-01
-9.450481e-01
-1.361268e+00
-1.819911e+00
-2.322324e+00
-2.859246e+00
-3.435239e+00
-4.045913e+00
-4.692267e+00
-5.375896e+00
-6.095843e+00
-6.854077e+00
-7.648742e+00
-8.479452e+00
-9.345869e+00
-1.024729e+01
-1.118373e+01
-1.215453e+01
-1.315903e+01
-1.419930e+01