TITLE = "Solution"
VARIABLES = x, y, u, v, psiu, psiv, t, stress
ZONE T="structure" N=561 E=512 F=FEBLOCK ET=QUADRILATERAL VARLOCATION=([7,8]=cellcentered)
0.000000e+00
6.250000e+00
1.250000e+01
1.875000e+01
2.500000e+01
3.125000e+01
3.750000e+01
4.375000e+01
5.000000e+01
5.625000e+01
6.250000e+01
6.875000e+01
7.500000e+01
8.125000e+01
8.750000e+01
9.375000e+01
1.000000e+02
1.062500e+02
1.125000e+02
1.187500e+02
1.250000e+02
1.312500e+02
1.375000e+02
1.437500e+02
1.500000e+02
1.562500e+02
1.625000e+02
1.687500e+02
1.750000e+02
1.812500e+02
1.875000e+02
1.937500e+02
2.000000e+02
0.000000e+00
6.250000e+00
1.250000e+01
1.875000e+01
2.500000e+01
3.125000e+01
3.750000e+01
4.375000e+01
5.000000e+01
5.625000e+01
6.250000e+01
6.875000e+01
7.500000e+01
8.125000e+01
8.750000e+01
9.375000e+01
1.000000e+02
1.062500e+02
1.125000e+02
1.187500e+02
1.250000e+02
1.312500e+02
1.375000e+02
1.437500e+02
1.500000e+02
1.562500e+02
1.625000e+02
1.687500e+02
1.750000e+02
1.812500e+02
1.875000e+02
1.937500e+02
2.000000e+02
0.000000e+00
6.250000e+00
1.250000e+01
1.875000e+01
2.500000e+01
3.125000e+01
3.750000e+01
4.375000e+01
5.000000e+01
5.625000e+01
6.250000e+01
6.875000e+01
7.500000e+01
8.125000e+01
8.750000e+01
9.375000e+01
1.000000e+02
1.062500e+02
1.125000e+02
1.187500e+02
1.250000e+02
1.312500e+02
1.375000e+02
1.437500e+02
1.500000e+02
1.562500e+02
1.625000e+02
1.687500e+02
1.750000e+02
1.812500e+02
1.875000e+02
1.937500e+02
2.000000e+02
0.000000e+00
6.250000e+00
1.250000e+01
1.875000e+01
2.500000e+01
3.125000e+01
3.750000e+01
4.375000e+01
5.000000e+01
5.625000e+01
6.250000e+01
6.875000e+01
7.500000e+01
8.125000e+01
8.750000e+01
9.375000e+01
1.000000e+02
1.062500e+02
1.125000e+02
1.187500e+02
1.250000e+02
1.312500e+02
1.375000e+02
1.437500e+02
1.500000e+02
1.562500e+02
1.625000e+02
1.687500e+02
1.750000e+02
1.812500e+02
1.875000e+02
1.937500e+02
2.000000e+02
0.000000e+00
6.250000e+00
1.250000e+01
1.875000e+01
2.500000e+01
3.125000e+01
3.750000e+01
4.375000e+01
5.000000e+01
5.625000e+01
6.250000e+01
6.875000e+01
7.500000e+01
8.125000e+01
8.750000e+01
9.375000e+01
1.000000e+02
1.062500e+02
1.125000e+02
1.187500e+02
1.250000e+02
1.312500e+02
1.375000e+02
1.437500e+02
1.500000e+02
1.562500e+02
1.625000e+02
1.687500e+02
1.750000e+02
1.812500e+02
1.875000e+02
1.937500e+02
2.000000e+02
0.000000e+00
6.250000e+00
1.250000e+01
1.875000e+01
2.500000e+01
3.125000e+01
3.750000e+01
4.375000e+01
5.000000e+01
5.625000e+01
6.250000e+01
6.875000e+01
7.500000e+01
8.125000e+01
8.750000e+01
9.375000e+01
1.000000e+02
1.062500e+02
1.125000e+02
1.187500e+02
1.250000e+02
1.312500e+02
1.375000e+02
1.437500e+02
1.500000e+02
1.562500e+02
1.625000e+02
1.687500e+02
1.750000e+02
1.812500e+02
1.875000e+02
1.937500e+02
2.000000e+02
0.000000e+00
6.250000e+00
1.250000e+01
1.875000e+01
2.500000e+01
3.125000e+01
3.750000e+01
4.375000e+01
5.000000e+01
5.625000e+01
6.250000e+01
6.875000e+01
7.500000e+01
8.125000e+01
8.750000e+01
9.375000e+01
1.000000e+02
1.062500e+02
1.125000e+02
1.187500e+02
1.250000e+02
1.312500e+02
1.375000e+02
1.437500e+02
1.500000e+02
1.562500e+02
1.625000e+02
1.687500e+02
1.750000e+02
1.812500e+02
1.875000e+02
1.937500e+02
2.000000e+02
0.000000e+00
6.250000e+00
1.250000e+01
1.875000e+01
2.500000e+01
3.125000e+01
3.750000e+01
4.375000e+01
5.000000e+01
5.625000e+01
6.250000e+01
6.875000e+01
7.500000e+01
8.125000e+01
8.750000e+01
9.375000e+01
1.000000e+02
1.062500e+02
1.125000e+02
1.187500e+02
1.250000e+02
1.312500e+02
1.375000e+02
1.437500e+02
1.500000e+02
1.562500e+02
1.625000e+02
1.687500e+02
1.750000e+02
1.812500e+02
1.875000e+02
1.937500e+02
2.000000e+02
0.000000e+00
6.250000e+00
1.250000e+01
1.875000e+01
2.500000e+01
3.125000e+01
3.750000e+01
4.375000e+01
5.000000e+01
5.625000e+01
6.250000e+01
6.875000e+01
7.500000e+01
8.125000e+01
8.750000e+01
9.375000e+01
1.000000e+02
1.062500e+02
1.125000e+02
1.187500e+02
1.250000e+02
1.312500e+02
1.375000e+02
1.437500e+02
1.500000e+02
1.562500e+02
1.625000e+02
1.687500e+02
1.750000e+02
1.812500e+02
1.875000e+02
1.937500e+02
2.000000e+02
0.000000e+00
6.250000e+00
1.250000e+01
1.875000e+01
2.500000e+01
3.125000e+01
3.750000e+01
4.375000e+01
5.000000e+01
5.625000e+01
6.250000e+01
6.875000e+01
7.500000e+01
8.125000e+01
8.750000e+01
9.375000e+01
1.000000e+02
1.062500e+02
1.125000e+02
1.187500e+02
1.250000e+02
1.312500e+02
1.375000e+02
1.437500e+02
1.500000e+02
1.562500e+02
1.625000e+02
1.687500e+02
1.750000e+02
1.812500e+02
1.875000e+02
1.937500e+02
2.000000e+02
0.000000e+00
6.250000e+00
1.250000e+01
1.875000e+01
2.500000e+01
3.125000e+01
3.750000e+01
4.375000e+01
5.000000e+01
5.625000e+01
6.250000e+01
6.875000e+01
7.500000e+01
8.125000e+01
8.750000e+01
9.375000e+01
1.000000e+02
1.062500e+02
1.125000e+02
1.187500e+02
1.250000e+02
1.312500e+02
1.375000e+02
1.437500e+02
1.500000e+02
1.562500e+02
1.625000e+02
1.687500e+02
1.750000e+02
1.812500e+02
1.875000e+02
1.937500e+02
2.000000e+02
0.000000e+00
6.250000e+00
1.250000e+01
1.875000e+01
2.500000e+01
3.125000e+01
3.750000e+01
4.375000e+01
5.000000e+01
5.625000e+01
6.250000e+01
6.875000e+01
7.500000e+01
8.125000e+01
8.750000e+01
9.375000e+01
1.000000e+02
1.062500e+02
1.125000e+02
1.187500e+02
1.250000e+02
1.312500e+02
1.375000e+02
1.437500e+02
1.500000e+02
1.562500e+02
1.625000e+02
1.687500e+02
1.750000e+02
1.812500e+02
1.875000e+02
1.937500e+02
2.000000e+02
0.000000e+00
6.250000e+00
1.250000e+01
1.875000e+01
2.500000e+01
3.125000e+01
3.750000e+01
4.375000e+01
5.000000e+01
5.625000e+01
6.250000e+01
6.875000e+01
7.500000e+01
8.125000e+01
8.750000e+01
9.375000e+01
1.000000e+02
1.062500e+02
1.125000e+02
1.187500e+02
1.250000e+02
1.312500e+02
1.375000e+02
1.437500e+02
1.500000e+02
1.562500e+02
1.625000e+02
1.687500e+02
1.750000e+02
1.812500e+02
1.875000e+02
1.937500e+02
2.000000e+02
0.000000e+00
6.250000e+00
1.250000e+01
1.875000e+01
2.500000e+01
3.125000e+01
3.750000e+01
4.375000e+01
5.000000e+01
5.625000e+01
6.250000e+01
6.875000e+01
7.500000e+01
8.125000e+01
8.750000e+01
9.375000e+01
1.000000e+02
1.062500e+02
1.125000e+02
1.187500e+02
1.250000e+02
1.312500e+02
1.375000e+02
1.437500e+02
1.500000e+02
1.562500e+02
1.625000e+02
1.687500e+02
1.750000e+02
1.812500e+02
1.875000e+02
1.937500e+02
2.000000e+02
0.000000e+00
6.250000e+00
1.250000e+01
1.875000e+01
2.500000e+01
3.125000e+01
3.750000e+01
4.375000e+01
5.000000e+01
5.625000e+01
6.250000e+01
6.875000e+01
7.500000e+01
8.125000e+01
8.750000e+01
9.375000e+01
1.000000e+02
1.062500e+02
1.125000e+02
1.187500e+02
1.250000e+02
1.312500e+02
1.375000e+02
1.437500e+02
1.500000e+02
1.562500e+02
1.625000e+02
1.687500e+02
1.750000e+02
1.812500e+02
1.875000e+02
1.937500e+02
2.000000e+02
0.000000e+00
6.250000e+00
1.250000e+01
1.875000e+01
2.500000e+01
3.125000e+01
3.750000e+01
4.375000e+01
5.000000e+01
5.625000e+01
6.250000e+01
6.875000e+01
7.500000e+01
8.125000e+01
8.750000e+01
9.375000e+01
1.000000e+02
1.062500e+02
1.125000e+02
1.187500e+02
1.250000e+02
1.312500e+02
1.375000e+02
1.437500e+02
1.500000e+02
1.562500e+02
1.625000e+02
1.687500e+02
1.750000e+02
1.812500e+02
1.875000e+02
1.937500e+02
2.000000e+02
0.000000e+00
6.250000e+00
1.250000e+01
1.875000e+01
2.500000e+01
3.125000e+01
3.750000e+01
4.375000e+01
5.000000e+01
5.625000e+01
6.250000e+01
6.875000e+01
7.500000e+01
8.125000e+01
8.750000e+01
9.375000e+01
1.000000e+02
1.062500e+02
1.125000e+02
1.187500e+02
1.250000e+02
1.312500e+02
1.375000e+02
1.437500e+02
1.500000e+02
1.562500e+02
1.625000e+02
1.687500e+02
1.750000e+02
1.812500e+02
1.875000e+02
1.937500e+02
2.000000e+02
0.000000e+00
0.000000e+00
0.000000e+00
0.000000e+00
0.000000e+00
0.000000e+00
0.000000e+00
0.000000e+00
0.000000e+00
0.000000e+00
0.000000e+00
0.000000e+00
0.000000e+00
0.000000e+00
0.000000e+00
0.000000e+00
0.000000e+00
0.000000e+00
0.000000e+00
0.000000e+00
0.000000e+00
0.000000e+00
0.000000e+00
0.000000e+00
0.000000e+00
0.000000e+00
0.000000e+00
0.000000e+00
0.000000e+00
0.000000e+00
0.000000e+00
0.000000e+00
0.000000e+00
6.250000e+00
6.250000e+00
6.250000e+00
6.250000e+00
6.250000e+00
6.250000e+00
6.250000e+00
6.250000e+00
6.250000e+00
6.250000e+00
6.250000e+00
6.250000e+00
6.250000e+00
6.250000e+00
6.250000e+00
6.250000e+00
6.250000e+00
6.250000e+00
6.250000e+00
6.250000e+00
6.250000e+00
6.250000e+00
6.250000e+00
6.250000e+00
6.250000e+00
6.250000e+00
6.250000e+00
6.250000e+00
6.250000e+00
6.250000e+00
6.250000e+00
6.250000e+00
6.250000e+00
1.250000e+01
1.250000e+01
1.250000e+01
1.250000e+01
1.250000e+01
1.250000e+01
1.250000e+01
1.250000e+01
1.250000e+01
1.250000e+01
1.250000e+01
1.250000e+01
1.250000e+01
1.250000e+01
1.250000e+01
1.250000e+01
1.250000e+01
1.250000e+01
1.250000e+01
1.250000e+01
1.250000e+01
1.250000e+01
1.250000e+01
1.250000e+01
1.250000e+01
1.250000e+01
1.250000e+01
1.250000e+01
1.250000e+01
1.250000e+01
1.250000e+01
1.250000e+01
1.250000e+01
1.875000e+01
1.875000e+01
1.875000e+01
1.875000e+01
1.875000e+01
1.875000e+01
1.875000e+01
1.875000e+01
1.875000e+01
1.875000e+01
1.875000e+01
1.875000e+01
1.875000e+01
1.875000e+01
1.875000e+01
1.875000e+01
1.875000e+01
1.875000e+01
1.875000e+01
1.875000e+01
1.875000e+01
1.875000e+01
1.875000e+01
1.875000e+01
1.875000e+01
1.875000e+01
1.875000e+01
1.875000e+01
1.875000e+01
1.875000e+01
1.875000e+01
1.875000e+01
1.875000e+01
2.500000e+01
2.500000e+01
2.500000e+01
2.500000e+01
2.500000e+01
2.500000e+01
2.500000e+01
2.500000e+01
2.500000e+01
2.500000e+01
2.500000e+01
2.500000e+01
2.500000e+01
2.500000e+01
2.500000e+01
2.500000e+01
2.500000e+01
2.500000e+01
2.500000e+01
2.500000e+01
2.500000e+01
2.500000e+01
2.500000e+01
2.500000e+01
2.500000e+01
2.500000e+01
2.500000e+01
2.500000e+01
2.500000e+01
2.500000e+01
2.500000e+01
2.500000e+01
2.500000e+01
3.125000e+01
3.125000e+01
3.125000e+01
3.125000e+01
3.125000e+01
3.125000e+01
3.125000e+01
3.125000e+01
3.125000e+01
3.125000e+01
3.125000e+01
3.125000e+01
3.125000e+01
3.125000e+01
3.125000e+01
3.125000e+01
3.125000e+01
3.125000e+01
3.125000e+01
3.125000e+01
3.125000e+01
3.125000e+01
3.125000e+01
3.125000e+01
3.125000e+01
3.125000e+01
3.125000e+01
3.125000e+01
3.125000e+01
3.125000e+01
3.125000e+01
3.125000e+01
3.125000e+01
3.750000e+01
3.750000e+01
3.750000e+01
3.750000e+01
3.750000e+01
3.750000e+01
3.750000e+01
3.750000e+01
3.750000e+01
3.750000e+01
3.750000e+01
3.750000e+01
3.750000e+01
3.750000e+01
3.750000e+01
3.750000e+01
3.750000e+01
3.750000e+01
3.750000e+01
3.750000e+01
3.750000e+01
3.750000e+01
3.750000e+01
3.750000e+01
3.750000e+01
3.750000e+01
3.750000e+01
3.750000e+01
3.750000e+01
3.750000e+01
3.750000e+01
3.750000e+01
3.750000e+01
4.375000e+01
4.375000e+01
4.375000e+01
4.375000e+01
4.375000e+01
4.375000e+01
4.375000e+01
4.375000e+01
4.375000e+01
4.375000e+01
4.375000e+01
4.375000e+01
4.375000e+01
4.375000e+01
4.375000e+01
4.375000e+01
4.375000e+01
4.375000e+01
4.375000e+01
4.375000e+01
4.375000e+01
4.375000e+01
4.375000e+01
4.375000e+01
4.375000e+01
4.375000e+01
4.375000e+01
4.375000e+01
4.375000e+01
4.375000e+01
4.375000e+01
4.375000e+01
4.375000e+01
5.000000e+01
5.000000e+01
5.000000e+01
5.000000e+01
5.000000e+01
5.000000e+01
5.000000e+01
5.000000e+01
5.000000e+01
5.000000e+01
5.000000e+01
5.000000e+01
5.000000e+01
5.000000e+01
5.000000e+01
5.000000e+01
5.000000e+01
5.000000e+01
5.000000e+01
5.000000e+01
5.000000e+01
5.000000e+01
5.000000e+01
5.000000e+01
5.000000e+01
5.000000e+01
5.000000e+01
5.000000e+01
5.000000e+01
5.000000e+01
5.000000e+01
5.000000e+01
5.000000e+01
5.625000e+01
5.625000e+01
5.625000e+01
5.625000e+01
5.625000e+01
5.625000e+01
5.625000e+01
5.625000e+01
5.625000e+01
5.625000e+01
5.625000e+01
5.625000e+01
5.625000e+01
5.625000e+01
5.625000e+01
5.625000e+01
5.625000e+01
5.625000e+01
5.625000e+01
5.625000e+01
5.625000e+01
5.625000e+01
5.625000e+01
5.625000e+01
5.625000e+01
5.625000e+01
5.625000e+01
5.625000e+01
5.625000e+01
5.625000e+01
5.625000e+01
5.625000e+01
5.625000e+01
6.250000e+01
6.250000e+01
6.250000e+01
6.250000e+01
6.250000e+01
6.250000e+01
6.250000e+01
6.250000e+01
6.250000e+01
6.250000e+01
6.250000e+01
6.250000e+01
6.250000e+01
6.250000e+01
6.250000e+01
6.250000e+01
6.250000e+01
6.250000e+01
6.250000e+01
6.250000e+01
6.250000e+01
6.250000e+01
6.250000e+01
6.250000e+01
6.250000e+01
6.250000e+01
6.250000e+01
6.250000e+01
6.250000e+01
6.250000e+01
6.250000e+01
6.250000e+01
6.250000e+01
6.875000e+01
6.875000e+01
6.875000e+01
6.875000e+01
6.875000e+01
6.875000e+01
6.875000e+01
6.875000e+01
6.875000e+01
6.875000e+01
6.875000e+01
6.875000e+01
6.875000e+01
6.875000e+01
6.875000e+01
6.875000e+01
6.875000e+01
6.875000e+01
6.875000e+01
6.875000e+01
6.875000e+01
6.875000e+01
6.875000e+01
6.875000e+01
6.875000e+01
6.875000e+01
6.875000e+01
6.875000e+01
6.875000e+01
6.875000e+01
6.875000e+01
6.875000e+01
6.875000e+01
7.500000e+01
7.500000e+01
7.500000e+01
7.500000e+01
7.500000e+01
7.500000e+01
7.500000e+01
7.500000e+01
7.500000e+01
7.500000e+01
7.500000e+01
7.500000e+01
7.500000e+01
7.500000e+01
7.500000e+01
7.500000e+01
7.500000e+01
7.500000e+01
7.500000e+01
7.500000e+01
7.500000e+01
7.500000e+01
7.500000e+01
7.500000e+01
7.500000e+01
7.500000e+01
7.500000e+01
7.500000e+01
7.500000e+01
7.500000e+01
7.500000e+01
7.500000e+01
7.500000e+01
8.125000e+01
8.125000e+01
8.125000e+01
8.125000e+01
8.125000e+01
8.125000e+01
8.125000e+01
8.125000e+01
8.125000e+01
8.125000e+01
8.125000e+01
8.125000e+01
8.125000e+01
8.125000e+01
8.125000e+01
8.125000e+01
8.125000e+01
8.125000e+01
8.125000e+01
8.125000e+01
8.125000e+01
8.125000e+01
8.125000e+01
8.125000e+01
8.125000e+01
8.125000e+01
8.125000e+01
8.125000e+01
8.125000e+01
8.125000e+01
8.125000e+01
8.125000e+01
8.125000e+01
8.750000e+01
8.750000e+01
8.750000e+01
8.750000e+01
8.750000e+01
8.750000e+01
8.750000e+01
8.750000e+01
8.750000e+01
8.750000e+01
8.750000e+01
8.750000e+01
8.750000e+01
8.750000e+01
8.750000e+01
8.750000e+01
8.750000e+01
8.750000e+01
8.750000e+01
8.750000e+01
8.750000e+01
8.750000e+01
8.750000e+01
8.750000e+01
8.750000e+01
8.750000e+01
8.750000e+01
8.750000e+01
8.750000e+01
8.750000e+01
8.750000e+01
8.750000e+01
8.750000e+01
9.375000e+01
9.375000e+01
9.375000e+01
9.375000e+01
9.375000e+01
9.375000e+01
9.375000e+01
9.375000e+01
9.375000e+01
9.375000e+01
9.375000e+01
9.375000e+01
9.375000e+01
9.375000e+01
9.375000e+01
9.375000e+01
9.375000e+01
9.375000e+01
9.375000e+01
9.375000e+01
9.375000e+01
9.375000e+01
9.375000e+01
9.375000e+01
9.375000e+01
9.375000e+01
9.375000e+01
9.375000e+01
9.375000e+01
9.375000e+01
9.375000e+01
9.375000e+01
9.375000e+01
1.000000e+02
1.000000e+02
1.000000e+02
1.000000e+02
1.000000e+02
1.000000e+02
1.000000e+02
1.000000e+02
1.000000e+02
1.000000e+02
1.000000e+02
1.000000e+02
1.000000e+02
1.000000e+02
1.000000e+02
1.000000e+02
1.000000e+02
1.000000e+02
1.000000e+02
1.000000e+02
1.000000e+02
1.000000e+02
1.000000e+02
1.000000e+02
1.000000e+02
1.000000e+02
1.000000e+02
1.000000e+02
1.000000e+02
1.000000e+02
1.000000e+02
1.000000e+02
1.000000e+02
0.000000e+00
-3.977764e-02
-7.217124e-02
-1.021793e-01
-1.309787e-01
-1.587888e-01
-1.856655e-01
-2.116065e-01
-2.365954e-01
-2.606140e-01
-2.836473e-01
-3.056849e-01
-3.267214e-01
-3.467564e-01
-3.657946e-01
-3.838460e-01
-4.009267e-01
-4.170603e-01
-4.322792e-01
-4.466272e-01
-4.601626e-01
-4.729626e-01
-4.851290e-01
-4.967974e-01
-5.081488e-01
-5.194295e-01
-5.309817e-01
-5.432932e-01
-5.570797e-01
-5.733942e-01
-5.936032e-01
-6.176866e-01
-6.323844e-01
0.000000e+00
-2.666984e-02
-5.548947e-02
-8.266258e-02
-1.084896e-01
-1.332163e-01
-1.569735e-01
-1.798184e-01
-2.017737e-01
-2.228467e-01
-2.430389e-01
-2.623504e-01
-2.807819e-01
-2.983366e-01
-3.150202e-01
-3.308420e-01
-3.458155e-01
-3.599591e-01
-3.732975e-01
-3.858623e-01
-3.976943e-01
-4.088446e-01
-4.193767e-01
-4.293682e-01
-4.389122e-01
-4.481154e-01
-4.570906e-01
-4.659306e-01
-4.746348e-01
-4.829201e-01
-4.898240e-01
-4.938603e-01
-4.994796e-01
0.000000e+00
-2.115458e-02
-4.355180e-02
-6.635572e-02
-8.851407e-02
-1.098558e-01
-1.303674e-01
-1.500682e-01
-1.689756e-01
-1.871016e-01
-2.044538e-01
-2.210377e-01
-2.368579e-01
-2.519189e-01
-2.662265e-01
-2.797876e-01
-2.926109e-01
-3.047075e-01
-3.160911e-01
-3.267778e-01
-3.367863e-01
-3.461369e-01
-3.548495e-01
-3.629396e-01
-3.704103e-01
-3.772378e-01
-3.833438e-01
-3.885488e-01
-3.925005e-01
-3.946284e-01
-3.944419e-01
-3.932470e-01
-3.998088e-01
0.000000e+00
-1.678429e-02
-3.449553e-02
-5.269163e-02
-7.084508e-02
-8.855881e-02
-1.056811e-01
-1.221576e-01
-1.379736e-01
-1.531283e-01
-1.676258e-01
-1.814708e-01
-1.946680e-01
-2.072216e-01
-2.191353e-01
-2.304125e-01
-2.410561e-01
-2.510691e-01
-2.604534e-01
-2.692095e-01
-2.773353e-01
-2.848232e-01
-2.916567e-01
-2.978040e-01
-3.032083e-01
-3.077742e-01
-3.113505e-01
-3.137189e-01
-3.146232e-01
-3.139519e-01
-3.123215e-01
-3.122241e-01
-3.184759e-01
0.000000e+00
-1.302695e-02
-2.667475e-02
-4.075852e-02
-5.495671e-02
-6.898075e-02
-8.263716e-02
-9.582795e-02
-1.085086e-01
-1.206620e-01
-1.322835e-01
-1.433740e-01
-1.539354e-01
-1.639694e-01
-1.734769e-01
-1.824568e-01
-1.909065e-01
-1.988208e-01
-2.061915e-01
-2.130064e-01
-2.192470e-01
-2.248867e-01
-2.298870e-01
-2.341929e-01
-2.377282e-01
-2.403931e-01
-2.420700e-01
-2.426582e-01
-2.421757e-01
-2.409948e-01
-2.402288e-01
-2.419978e-01
-2.473309e-01
0.000000e+00
-9.574049e-03
-1.955829e-02
-2.986329e-02
-4.031099e-02
-5.070637e-02
-6.089461e-02
-7.077506e-02
-8.029248e-02
-8.942002e-02
-9.814635e-02
-1.064675e-01
-1.143819e-01
-1.218884e-01
-1.289839e-01
-1.356635e-01
-1.419193e-01
-1.477397e-01
-1.531091e-01
-1.580065e-01
-1.624043e-01
-1.662667e-01
-1.695487e-01
-1.721953e-01
-1.741435e-01
-1.753323e-01
-1.757267e-01
-1.753728e-01
-1.745004e-01
-1.736704e-01
-1.738725e-01
-1.761278e-01
-1.805405e-01
0.000000e+00
-6.300875e-03
-1.285098e-02
-1.960887e-02
-2.647818e-02
-3.334328e-02
-4.010065e-02
-4.667481e-02
-5.301853e-02
-5.910577e-02
-6.492334e-02
-7.046463e-02
-7.572540e-02
-8.070126e-02
-8.538622e-02
-8.977169e-02
-9.384586e-02
-9.759306e-02
-1.009932e-01
-1.040212e-01
-1.066467e-01
-1.088340e-01
-1.105434e-01
-1.117347e-01
-1.123747e-01
-1.124541e-01
-1.120165e-01
-1.112067e-01
-1.103329e-01
-1.099093e-01
-1.105702e-01
-1.127659e-01
-1.163279e-01
0.000000e+00
-3.129643e-03
-6.377604e-03
-9.727191e-03
-1.313610e-02
-1.655047e-02
-1.991918e-02
-2.320220e-02
-2.637248e-02
-2.941353e-02
-3.231555e-02
-3.507206e-02
-3.767743e-02
-4.012520e-02
-4.240702e-02
-4.451194e-02
-4.642583e-02
-4.813103e-02
-4.960610e-02
-5.082591e-02
-5.176229e-02
-5.238557e-02
-5.266791e-02
-5.258938e-02
-5.214843e-02
-5.137871e-02
-5.037338e-02
-4.931409e-02
-4.849176e-02
-4.828577e-02
-4.906115e-02
-5.097662e-02
-5.380299e-02
0.000000e+00
-5.049365e-06
-1.094846e-05
-1.737050e-05
-2.397766e-05
-3.031449e-05
-3.569457e-05
-3.907480e-05
-3.890845e-05
-3.296829e-05
-1.813305e-05
9.866509e-06
5.674159e-05
1.299728e-04
2.391558e-04
3.963340e-04
6.162687e-04
9.165616e-04
1.317497e-03
1.841407e-03
2.511250e-03
3.347983e-03
4.366120e-03
5.566765e-03
6.927427e-03
8.388502e-03
9.838127e-03
1.110109e-02
1.194417e-02
1.211514e-02
1.142673e-02
9.867691e-03
7.684179e-03
0.000000e+00
3.120132e-03
6.356941e-03
9.694340e-03
1.309065e-02
1.649285e-02
1.985107e-02
2.312725e-02
2.629722e-02
2.934864e-02
3.227757e-02
3.508555e-02
3.777768e-02
4.036158e-02
4.284703e-02
4.524582e-02
4.757181e-02
4.984080e-02
5.207008e-02
5.427747e-02
5.647947e-02
5.868819e-02
6.090680e-02
6.312296e-02
6.530067e-02
6.737119e-02
6.922614e-02
7.071808e-02
7.167669e-02
7.194809e-02
7.145657e-02
7.027224e-02
6.865165e-02
0.000000e+00
6.293106e-03
1.283398e-02
1.958165e-02
2.644023e-02
3.329472e-02
4.004258e-02
4.660989e-02
5.295170e-02
5.904532e-02
6.488227e-02
7.046245e-02
7.579037e-02
8.087320e-02
8.571987e-02
9.034069e-02
9.474723e-02
9.895207e-02
1.029683e-01
1.068082e-01
1.104819e-01
1.139940e-01
1.173397e-01
1.204997e-01
1.234344e-01
1.260785e-01
1.283402e-01
1.301067e-01
1.312628e-01
1.317251e-01
1.314874e-01
1.306679e-01
1.295369e-01
0.000000e+00
9.569093e-03
1.954724e-02
2.984531e-02
4.028546e-02
5.067305e-02
6.085383e-02
7.072812e-02
8.024211e-02
8.937102e-02
9.810654e-02
1.064488e-01
1.144022e-01
1.219728e-01
1.291678e-01
1.359948e-01
1.424619e-01
1.485772e-01
1.543487e-01
1.597829e-01
1.648836e-01
1.696498e-01
1.740721e-01
1.781297e-01
1.817867e-01
1.849901e-01
1.876707e-01
1.897511e-01
1.911620e-01
1.918689e-01
1.919087e-01
1.914279e-01
1.907131e-01
0.000000e+00
1.302572e-02
2.667167e-02
4.075301e-02
5.494819e-02
6.896874e-02
8.262135e-02
9.580831e-02
1.084855e-01
1.206365e-01
1.322576e-01
1.433510e-01
1.539205e-01
1.639706e-01
1.735056e-01
1.825294e-01
1.910452e-01
1.990560e-01
2.065637e-01
2.135685e-01
2.200685e-01
2.260576e-01
2.315243e-01
2.364497e-01
2.408061e-01
2.445570e-01
2.476595e-01
2.500707e-01
2.517605e-01
2.527313e-01
2.530462e-01
2.528657e-01
2.524892e-01
0.000000e+00
1.678740e-02
3.450187e-02
5.270106e-02
7.085733e-02
8.857354e-02
1.056978e-01
1.221754e-01
1.379912e-01
1.531435e-01
1.676353e-01
1.814698e-01
1.946497e-01
2.071763e-01
2.190500e-01
2.302697e-01
2.408334e-01
2.507375e-01
2.599773e-01
2.685461e-01
2.764353e-01
2.836339e-01
2.901283e-01
2.959020e-01
3.009366e-01
3.052133e-01
3.087160e-01
3.114369e-01
3.133842e-01
3.145943e-01
3.151510e-01
3.152173e-01
3.150924e-01
0.000000e+00
2.116220e-02
4.356804e-02
6.638117e-02
8.854920e-02
1.099011e-01
1.304228e-01
1.501331e-01
1.690482e-01
1.871782e-01
2.045278e-01
2.210985e-01
2.368891e-01
2.518967e-01
2.661165e-01
2.795422e-01
2.921655e-01
3.039759e-01
3.149612e-01
3.251066e-01
3.343954e-01
3.428097e-01
3.503311e-01
3.569427e-01
3.626321e-01
3.673949e-01
3.712397e-01
3.741936e-01
3.763077e-01
3.776617e-01
3.783705e-01
3.786013e-01
3.786288e-01
0.000000e+00
2.668126e-02
5.551444e-02
8.270273e-02
1.085469e-01
1.332928e-01
1.570708e-01
1.799374e-01
2.019139e-01
2.230054e-01
2.432095e-01
2.625206e-01
2.809316e-01
2.984339e-01
3.150176e-01
3.306709e-01
3.453796e-01
3.591263e-01
3.718903e-01
3.836477e-01
3.943712e-01
4.040320e-01
4.126016e-01
4.200554e-01
4.263780e-01
4.315696e-01
4.356549e-01
4.386913e-01
4.407771e-01
4.420552e-01
4.427081e-01
4.429449e-01
4.430029e-01
0.000000e+00
3.979015e-02
7.220043e-02
1.022294e-01
1.310535e-01
1.588925e-01
1.858024e-01
2.117806e-01
2.368098e-01
2.608701e-01
2.839429e-01
3.060121e-01
3.270636e-01
3.470840e-01
3.660592e-01
3.839735e-01
4.008077e-01
4.165384e-01
4.311370e-01
4.445686e-01
4.567931e-01
4.677653e-01
4.774382e-01
4.857673e-01
4.927185e-01
4.982774e-01
5.024641e-01
5.053483e-01
5.070674e-01
5.078420e-01
5.079828e-01
5.078662e-01
5.078006e-01
0.000000e+00
-2.458182e-02
-4.290059e-02
-6.289077e-02
-8.515102e-02
-1.102962e-01
-1.385010e-01
-1.698146e-01
-2.042056e-01
-2.416005e-01
-2.819000e-01
-3.249901e-01
-3.707479e-01
-4.190454e-01
-4.697519e-01
-5.227360e-01
-5.778667e-01
-6.350158e-01
-6.940590e-01
-7.548794e-01
-8.173712e-01
-8.814454e-01
-9.470383e-01
-1.014125e+00
-1.082738e+00
-1.153005e+00
-1.225205e+00
-1.299884e+00
-1.378083e+00
-1.461868e+00
-1.555691e+00
-1.670061e+00
-1.828067e+00
0.000000e+00
-1.527667e-02
-3.445158e-02
-5.457661e-02
-7.714714e-02
-1.025655e-01
-1.310444e-01
-1.626320e-01
-1.972999e-01
-2.349742e-01
-2.755554e-01
-3.189284e-01
-3.649693e-01
-4.135490e-01
-4.645356e-01
-5.177963e-01
-5.731987e-01
-6.306125e-01
-6.899110e-01
-7.509746e-01
-8.136935e-01
-8.779743e-01
-9.437474e-01
-1.010980e+00
-1.079697e+00
-1.150013e+00
-1.222194e+00
-1.296767e+00
-1.374753e+00
-1.458182e+00
-1.551281e+00
-1.663105e+00
-1.810723e+00
0.000000e+00
-1.122159e-02
-2.777470e-02
-4.762520e-02
-7.023515e-02
-9.584082e-02
-1.245445e-01
-1.563729e-01
-1.912876e-01
-2.292115e-01
-2.700433e-01
-3.136670e-01
-3.599581e-01
-4.087870e-01
-4.600215e-01
-5.135281e-01
-5.691738e-01
-6.268276e-01
-6.863620e-01
-7.476562e-01
-8.105997e-01
-8.750983e-01
-9.410821e-01
-1.008519e+00
-1.077438e+00
-1.147959e+00
-1.220360e+00
-1.295181e+00
-1.373432e+00
-1.456939e+00
-1.548826e+00
-1.652784e+00
-1.768103e+00
0.000000e+00
-8.985774e-03
-2.351957e-02
-4.231153e-02
-6.463092e-02
-9.022863e-02
-1.190551e-01
-1.510618e-01
-1.861797e-01
-2.243175e-01
-2.653674e-01
-3.092107e-01
-3.557216e-01
-4.047705e-01
-4.562251e-01
-5.099524e-01
-5.658198e-01
-6.236968e-01
-6.834565e-01
-7.449793e-01
-8.081560e-01
-8.728946e-01
-9.391289e-01
-1.006832e+00
-1.076039e+00
-1.146876e+00
-1.219618e+00
-1.294763e+00
-1.373137e+00
-1.455944e+00
-1.544337e+00
-1.637564e+00
-1.724348e+00
0.000000e+00
-7.603443e-03
-2.073686e-02
-3.853821e-02
-6.034880e-02
-8.577869e-02
-1.146160e-01
-1.467267e-01
-1.819947e-01
-2.203047e-01
-2.615371e-01
-3.055674e-01
-3.522679e-01
-4.015084e-01
-4.531571e-01
-5.070820e-01
-5.631518e-01
-6.212374e-01
-6.812138e-01
-7.429632e-01
-8.063791e-01
-8.713720e-01
-9.378787e-01
-1.005874e+00
-1.075390e+00
-1.146539e+00
-1.219543e+00
-1.294761e+00
-1.372669e+00
-1.453649e+00
-1.537314e+00
-1.620593e+00
-1.696173e+00
0.000000e+00
-6.723853e-03
-1.891106e-02
-3.594156e-02
-5.726120e-02
-8.245288e-02
-1.112275e-01
-1.433793e-01
-1.787460e-01
-2.171852e-01
-2.585620e-01
-3.027451e-01
-3.496033e-01
-3.990059e-01
-4.508218e-01
-5.049202e-01
-5.611717e-01
-6.194490e-01
-6.796291e-01
-7.415961e-01
-8.052449e-01
-8.704868e-01
-9.372564e-01
-1.005522e+00
-1.075294e+00
-1.146642e+00
-1.219690e+00
-1.294596e+00
-1.371447e+00
-1.449984e+00
-1.529010e+00
-1.605702e+00
-1.675798e+00
0.000000e+00
-6.177197e-03
-1.775670e-02
-3.425369e-02
-5.519273e-02
-8.016732e-02
-1.088565e-01
-1.410123e-01
-1.764374e-01
-2.149659e-01
-2.564493e-01
-3.007490e-01
-3.477310e-01
-3.972638e-01
-4.492173e-01
-5.034620e-01
-5.598703e-01
-6.183166e-01
-6.786794e-01
-7.408435e-01
-8.047030e-01
-8.701655e-01
-9.371569e-01
-1.005627e+00
-1.075551e+00
-1.146932e+00
-1.219775e+00
-1.294039e+00
-1.369509e+00
-1.445572e+00
-1.520910e+00
-1.593353e+00
-1.660239e+00
0.000000e+00
-5.876802e-03
-1.711617e-02
-3.330254e-02
-5.400664e-02
-7.883601e-02
-1.074594e-01
-1.396081e-01
-1.750648e-01
-2.136485e-01
-2.552017e-01
-2.995810e-01
-3.466504e-01
-3.962785e-01
-4.483361e-01
-5.026952e-01
-5.592297e-01
-6.178151e-01
-6.783303e-01
-7.406589e-01
-8.046912e-01
-8.703266e-01
-9.374759e-01
-1.006062e+00
-1.076015e+00
-1.147264e+00
-1.219703e+00
-1.293136e+00
-1.367171e+00
-1.441078e+00
-1.513671e+00
-1.583317e+00
-1.648199e+00
0.000000e+00
-5.780016e-03
-1.690952e-02
-3.299426e-02
-5.362008e-02
-7.840029e-02
-1.070017e-01
-1.391499e-01
-1.746215e-01
-2.132311e-01
-2.548184e-01
-2.992389e-01
-3.463571e-01
-3.960423e-01
-4.481664e-01
-5.026031e-01
-5.592269e-01
-6.179139e-01
-6.785422e-01
-7.409920e-01
-8.051474e-01
-8.708958e-01
-9.381283e-01
-1.006736e+00
-1.076604e+00
-1.147592e+00
-1.219507e+00
-1.292055e+00
-1.364764e+00
-1.436921e+00
-1.507519e+00
-1.575313e+00
-1.638972e+00
0.000000e+00
-5.874003e-03
-1.711228e-02
-3.329920e-02
-5.400563e-02
-7.883956e-02
-1.074704e-01
-1.396305e-01
-1.751037e-01
-2.137108e-01
-2.552960e-01
-2.997181e-01
-3.468439e-01
-3.965447e-01
-4.486940e-01
-5.031664e-01
-5.598371e-01
-6.185818e-01
-6.792763e-01
-7.417965e-01
-8.060180e-01
-8.718144e-01
-9.390552e-01
-1.007601e+00
-1.077292e+00
-1.147936e+00
-1.219280e+00
-1.290976e+00
-1.362540e+00
-1.433322e+00
-1.502494e+00
-1.569091e+00
-1.632096e+00
0.000000e+00
-6.171825e-03
-1.774924e-02
-3.424724e-02
-5.519071e-02
-8.017399e-02
-1.088775e-01
-1.410550e-01
-1.765119e-01
-2.150850e-01
-2.566297e-01
-3.010117e-01
-3.481019e-01
-3.977743e-01
-4.499039e-01
-5.043662e-01
-5.610367e-01
-6.197897e-01
-6.804985e-01
-7.430336e-01
-8.072613e-01
-8.730412e-01
-9.402223e-01
-1.008637e+00
-1.078091e+00
-1.148350e+00
-1.219126e+00
-1.290050e+00
-1.360660e+00
-1.430384e+00
-1.498553e+00
-1.564423e+00
-1.627214e+00
0.000000e+00
-6.716386e-03
-1.890070e-02
-3.593256e-02
-5.725829e-02
-8.246200e-02
-1.112565e-01
-1.434386e-01
-1.788497e-01
-2.173512e-01
-2.588138e-01
-3.031119e-01
-3.501217e-01
-3.997197e-01
-4.517825e-01
-5.061862e-01
-5.628058e-01
-6.215144e-01
-6.821821e-01
-7.446741e-01
-8.088481e-01
-8.745509e-01
-9.416136e-01
-1.009845e+00
-1.079025e+00
-1.148892e+00
-1.219136e+00
-1.289388e+00
-1.359216e+00
-1.428134e+00
-1.495611e+00
-1.561094e+00
-1.624014e+00
0.000000e+00
-7.594647e-03
-2.072466e-02
-3.852759e-02
-6.034543e-02
-8.578974e-02
-1.146510e-01
-1.467983e-01
-1.821198e-01
-2.205053e-01
-2.618413e-01
-3.060109e-01
-3.528949e-01
-4.023719e-01
-4.543196e-01
-5.086143e-01
-5.651305e-01
-6.237397e-01
-6.843092e-01
-7.466995e-01
-8.107611e-01
-8.763303e-01
-9.432244e-01
-1.011235e+00
-1.080123e+00
-1.149609e+00
-1.219374e+00
-1.289053e+00
-1.358251e+00
-1.426554e+00
-1.493557e+00
-1.558883e+00
-1.622183e+00
0.000000e+00
-8.976734e-03
-2.350704e-02
-4.230074e-02
-6.462802e-02
-9.024161e-02
-1.190946e-01
-1.511418e-01
-1.863189e-01
-2.245401e-01
-2.657046e-01
-3.097019e-01
-3.564154e-01
-4.057255e-01
-4.575100e-01
-5.116451e-01
-5.680046e-01
-6.264586e-01
-6.868723e-01
-7.491023e-01
-8.129938e-01
-8.783761e-01
-9.450567e-01
-1.012816e+00
-1.081403e+00
-1.150529e+00
-1.219870e+00
-1.289071e+00
-1.357765e+00
-1.425597e+00
-1.492266e+00
-1.557563e+00
-1.621385e+00
0.000000e+00
-1.121371e-02
-2.776373e-02
-4.761609e-02
-7.023429e-02
-9.585662e-02
-1.245881e-01
-1.564589e-01
-1.914355e-01
-2.294464e-01
-2.703973e-01
-3.141808e-01
-3.606816e-01
-4.097804e-01
-4.613549e-01
-5.152808e-01
-5.714310e-01
-6.296748e-01
-6.898752e-01
-7.518867e-01
-8.155512e-01
-8.806935e-01
-9.471161e-01
-1.014594e+00
-1.082870e+00
-1.151652e+00
-1.220617e+00
-1.289419e+00
-1.357710e+00
-1.425177e+00
-1.491596e+00
-1.556900e+00
-1.621245e+00
0.000000e+00
-1.527160e-02
-3.444412e-02
-5.457125e-02
-7.715045e-02
-1.025861e-01
-1.310935e-01
-1.627244e-01
-1.974547e-01
-2.352166e-01
-2.759170e-01
-3.194491e-01
-3.656977e-01
-4.145433e-01
-4.658633e-01
-5.195326e-01
-5.754234e-01
-6.334037e-01
-6.933354e-01
-7.550714e-01
-8.184516e-01
-8.832989e-01
-9.494142e-01
-1.016571e+00
-1.084512e+00
-1.152949e+00
-1.221561e+00
-1.290014e+00
-1.357976e+00
-1.425158e+00
-1.491378e+00
-1.556660e+00
-1.621364e+00
0.000000e+00
-2.458110e-02
-4.289810e-02
-6.289124e-02
-8.516106e-02
-1.103245e-01
-1.385587e-01
-1.699163e-01
-2.043703e-01
-2.418524e-01
-2.822697e-01
-3.255155e-01
-3.714749e-01
-4.200280e-01
-4.710520e-01
-5.244211e-01
-5.800063e-01
-6.376745e-01
-6.972860e-01
-7.586921e-01
-8.217314e-01
-8.862258e-01
-9.519758e-01