TITLE = "Solution"
VARIABLES = x, y, u, v, psiu, psiv, t, stress
ZONE T="structure" N=561 E=512 F=FEBLOCK ET=QUADRILATERAL VARLOCATION=([7,8]=cellcentered)
0.000000e+00
6.250000e+00
1.250000e+01
1.875000e+01
2.500000e+01
3.125000e+01
3.750000e+01
4.375000e+01
5.000000e+01
5.625000e+01
6.250000e+01
6.875000e+01
7.500000e+01
8.125000e+01
8.750000e+01
9.375000e+01
1.000000e+02
1.062500e+02
1.125000e+02
1.187500e+02
1.250000e+02
1.312500e+02
1.375000e+02
1.437500e+02
1.500000e+02
1.562500e+02
1.625000e+02
1.687500e+02
1.750000e+02
1.812500e+02
1.875000e+02
1.937500e+02
2.000000e+02
0.000000e+00
6.250000e+00
1.250000e+01
1.875000e+01
2.500000e+01
3.125000e+01
3.750000e+01
4.375000e+01
5.000000e+01
5.625000e+01
6.250000e+01
6.875000e+01
7.500000e+01
8.125000e+01
8.750000e+01
9.375000e+01
1.000000e+02
1.062500e+02
1.125000e+02
1.187500e+02
1.250000e+02
1.312500e+02
1.375000e+02
1.437500e+02
1.500000e+02
1.562500e+02
1.625000e+02
1.687500e+02
1.750000e+02
1.812500e+02
1.875000e+02
1.937500e+02
2.000000e+02
0.000000e+00
6.250000e+00
1.250000e+01
1.875000e+01
2.500000e+01
3.125000e+01
3.750000e+01
4.375000e+01
5.000000e+01
5.625000e+01
6.250000e+01
6.875000e+01
7.500000e+01
8.125000e+01
8.750000e+01
9.375000e+01
1.000000e+02
1.062500e+02
1.125000e+02
1.187500e+02
1.250000e+02
1.312500e+02
1.375000e+02
1.437500e+02
1.500000e+02
1.562500e+02
1.625000e+02
1.687500e+02
1.750000e+02
1.812500e+02
1.875000e+02
1.937500e+02
2.000000e+02
0.000000e+00
6.250000e+00
1.250000e+01
1.875000e+01
2.500000e+01
3.125000e+01
3.750000e+01
4.375000e+01
5.000000e+01
5.625000e+01
6.250000e+01
6.875000e+01
7.500000e+01
8.125000e+01
8.750000e+01
9.375000e+01
1.000000e+02
1.062500e+02
1.125000e+02
1.187500e+02
1.250000e+02
1.312500e+02
1.375000e+02
1.437500e+02
1.500000e+02
1.562500e+02
1.625000e+02
1.687500e+02
1.750000e+02
1.812500e+02
1.875000e+02
1.937500e+02
2.000000e+02
0.000000e+00
6.250000e+00
1.250000e+01
1.875000e+01
2.500000e+01
3.125000e+01
3.750000e+01
4.375000e+01
5.000000e+01
5.625000e+01
6.250000e+01
6.875000e+01
7.500000e+01
8.125000e+01
8.750000e+01
9.375000e+01
1.000000e+02
1.062500e+02
1.125000e+02
1.187500e+02
1.250000e+02
1.312500e+02
1.375000e+02
1.437500e+02
1.500000e+02
1.562500e+02
1.625000e+02
1.687500e+02
1.750000e+02
1.812500e+02
1.875000e+02
1.937500e+02
2.000000e+02
0.000000e+00
6.250000e+00
1.250000e+01
1.875000e+01
2.500000e+01
3.125000e+01
3.750000e+01
4.375000e+01
5.000000e+01
5.625000e+01
6.250000e+01
6.875000e+01
7.500000e+01
8.125000e+01
8.750000e+01
9.375000e+01
1.000000e+02
1.062500e+02
1.125000e+02
1.187500e+02
1.250000e+02
1.312500e+02
1.375000e+02
1.437500e+02
1.500000e+02
1.562500e+02
1.625000e+02
1.687500e+02
1.750000e+02
1.812500e+02
1.875000e+02
1.937500e+02
2.000000e+02
0.000000e+00
6.250000e+00
1.250000e+01
1.875000e+01
2.500000e+01
3.125000e+01
3.750000e+01
4.375000e+01
5.000000e+01
5.625000e+01
6.250000e+01
6.875000e+01
7.500000e+01
8.125000e+01
8.750000e+01
9.375000e+01
1.000000e+02
1.062500e+02
1.125000e+02
1.187500e+02
1.250000e+02
1.312500e+02
1.375000e+02
1.437500e+02
1.500000e+02
1.562500e+02
1.625000e+02
1.687500e+02
1.750000e+02
1.812500e+02
1.875000e+02
1.937500e+02
2.000000e+02
0.000000e+00
6.250000e+00
1.250000e+01
1.875000e+01
2.500000e+01
3.125000e+01
3.750000e+01
4.375000e+01
5.000000e+01
5.625000e+01
6.250000e+01
6.875000e+01
7.500000e+01
8.125000e+01
8.750000e+01
9.375000e+01
1.000000e+02
1.062500e+02
1.125000e+02
1.187500e+02
1.250000e+02
1.312500e+02
1.375000e+02
1.437500e+02
1.500000e+02
1.562500e+02
1.625000e+02
1.687500e+02
1.750000e+02
1.812500e+02
1.875000e+02
1.937500e+02
2.000000e+02
0.000000e+00
6.250000e+00
1.250000e+01
1.875000e+01
2.500000e+01
3.125000e+01
3.750000e+01
4.375000e+01
5.000000e+01
5.625000e+01
6.250000e+01
6.875000e+01
7.500000e+01
8.125000e+01
8.750000e+01
9.375000e+01
1.000000e+02
1.062500e+02
1.125000e+02
1.187500e+02
1.250000e+02
1.312500e+02
1.375000e+02
1.437500e+02
1.500000e+02
1.562500e+02
1.625000e+02
1.687500e+02
1.750000e+02
1.812500e+02
1.875000e+02
1.937500e+02
2.000000e+02
0.000000e+00
6.250000e+00
1.250000e+01
1.875000e+01
2.500000e+01
3.125000e+01
3.750000e+01
4.375000e+01
5.000000e+01
5.625000e+01
6.250000e+01
6.875000e+01
7.500000e+01
8.125000e+01
8.750000e+01
9.375000e+01
1.000000e+02
1.062500e+02
1.125000e+02
1.187500e+02
1.250000e+02
1.312500e+02
1.375000e+02
1.437500e+02
1.500000e+02
1.562500e+02
1.625000e+02
1.687500e+02
1.750000e+02
1.812500e+02
1.875000e+02
1.937500e+02
2.000000e+02
0.000000e+00
6.250000e+00
1.250000e+01
1.875000e+01
2.500000e+01
3.125000e+01
3.750000e+01
4.375000e+01
5.000000e+01
5.625000e+01
6.250000e+01
6.875000e+01
7.500000e+01
8.125000e+01
8.750000e+01
9.375000e+01
1.000000e+02
1.062500e+02
1.125000e+02
1.187500e+02
1.250000e+02
1.312500e+02
1.375000e+02
1.437500e+02
1.500000e+02
1.562500e+02
1.625000e+02
1.687500e+02
1.750000e+02
1.812500e+02
1.875000e+02
1.937500e+02
2.000000e+02
0.000000e+00
6.250000e+00
1.250000e+01
1.875000e+01
2.500000e+01
3.125000e+01
3.750000e+01
4.375000e+01
5.000000e+01
5.625000e+01
6.250000e+01
6.875000e+01
7.500000e+01
8.125000e+01
8.750000e+01
9.375000e+01
1.000000e+02
1.062500e+02
1.125000e+02
1.187500e+02
1.250000e+02
1.312500e+02
1.375000e+02
1.437500e+02
1.500000e+02
1.562500e+02
1.625000e+02
1.687500e+02
1.750000e+02
1.812500e+02
1.875000e+02
1.937500e+02
2.000000e+02
0.000000e+00
6.250000e+00
1.250000e+01
1.875000e+01
2.500000e+01
3.125000e+01
3.750000e+01
4.375000e+01
5.000000e+01
5.625000e+01
6.250000e+01
6.875000e+01
7.500000e+01
8.125000e+01
8.750000e+01
9.375000e+01
1.000000e+02
1.062500e+02
1.125000e+02
1.187500e+02
1.250000e+02
1.312500e+02
1.375000e+02
1.437500e+02
1.500000e+02
1.562500e+02
1.625000e+02
1.687500e+02
1.750000e+02
1.812500e+02
1.875000e+02
1.937500e+02
2.000000e+02
0.000000e+00
6.250000e+00
1.250000e+01
1.875000e+01
2.500000e+01
3.125000e+01
3.750000e+01
4.375000e+01
5.000000e+01
5.625000e+01
6.250000e+01
6.875000e+01
7.500000e+01
8.125000e+01
8.750000e+01
9.375000e+01
1.000000e+02
1.062500e+02
1.125000e+02
1.187500e+02
1.250000e+02
1.312500e+02
1.375000e+02
1.437500e+02
1.500000e+02
1.562500e+02
1.625000e+02
1.687500e+02
1.750000e+02
1.812500e+02
1.875000e+02
1.937500e+02
2.000000e+02
0.000000e+00
6.250000e+00
1.250000e+01
1.875000e+01
2.500000e+01
3.125000e+01
3.750000e+01
4.375000e+01
5.000000e+01
5.625000e+01
6.250000e+01
6.875000e+01
7.500000e+01
8.125000e+01
8.750000e+01
9.375000e+01
1.000000e+02
1.062500e+02
1.125000e+02
1.187500e+02
1.250000e+02
1.312500e+02
1.375000e+02
1.437500e+02
1.500000e+02
1.562500e+02
1.625000e+02
1.687500e+02
1.750000e+02
1.812500e+02
1.875000e+02
1.937500e+02
2.000000e+02
0.000000e+00
6.250000e+00
1.250000e+01
1.875000e+01
2.500000e+01
3.125000e+01
3.750000e+01
4.375000e+01
5.000000e+01
5.625000e+01
6.250000e+01
6.875000e+01
7.500000e+01
8.125000e+01
8.750000e+01
9.375000e+01
1.000000e+02
1.062500e+02
1.125000e+02
1.187500e+02
1.250000e+02
1.312500e+02
1.375000e+02
1.437500e+02
1.500000e+02
1.562500e+02
1.625000e+02
1.687500e+02
1.750000e+02
1.812500e+02
1.875000e+02
1.937500e+02
2.000000e+02
0.000000e+00
6.250000e+00
1.250000e+01
1.875000e+01
2.500000e+01
3.125000e+01
3.750000e+01
4.375000e+01
5.000000e+01
5.625000e+01
6.250000e+01
6.875000e+01
7.500000e+01
8.125000e+01
8.750000e+01
9.375000e+01
1.000000e+02
1.062500e+02
1.125000e+02
1.187500e+02
1.250000e+02
1.312500e+02
1.375000e+02
1.437500e+02
1.500000e+02
1.562500e+02
1.625000e+02
1.687500e+02
1.750000e+02
1.812500e+02
1.875000e+02
1.937500e+02
2.000000e+02
0.000000e+00
0.000000e+00
0.000000e+00
0.000000e+00
0.000000e+00
0.000000e+00
0.000000e+00
0.000000e+00
0.000000e+00
0.000000e+00
0.000000e+00
0.000000e+00
0.000000e+00
0.000000e+00
0.000000e+00
0.000000e+00
0.000000e+00
0.000000e+00
0.000000e+00
0.000000e+00
0.000000e+00
0.000000e+00
0.000000e+00
0.000000e+00
0.000000e+00
0.000000e+00
0.000000e+00
0.000000e+00
0.000000e+00
0.000000e+00
0.000000e+00
0.000000e+00
0.000000e+00
6.250000e+00
6.250000e+00
6.250000e+00
6.250000e+00
6.250000e+00
6.250000e+00
6.250000e+00
6.250000e+00
6.250000e+00
6.250000e+00
6.250000e+00
6.250000e+00
6.250000e+00
6.250000e+00
6.250000e+00
6.250000e+00
6.250000e+00
6.250000e+00
6.250000e+00
6.250000e+00
6.250000e+00
6.250000e+00
6.250000e+00
6.250000e+00
6.250000e+00
6.250000e+00
6.250000e+00
6.250000e+00
6.250000e+00
6.250000e+00
6.250000e+00
6.250000e+00
6.250000e+00
1.250000e+01
1.250000e+01
1.250000e+01
1.250000e+01
1.250000e+01
1.250000e+01
1.250000e+01
1.250000e+01
1.250000e+01
1.250000e+01
1.250000e+01
1.250000e+01
1.250000e+01
1.250000e+01
1.250000e+01
1.250000e+01
1.250000e+01
1.250000e+01
1.250000e+01
1.250000e+01
1.250000e+01
1.250000e+01
1.250000e+01
1.250000e+01
1.250000e+01
1.250000e+01
1.250000e+01
1.250000e+01
1.250000e+01
1.250000e+01
1.250000e+01
1.250000e+01
1.250000e+01
1.875000e+01
1.875000e+01
1.875000e+01
1.875000e+01
1.875000e+01
1.875000e+01
1.875000e+01
1.875000e+01
1.875000e+01
1.875000e+01
1.875000e+01
1.875000e+01
1.875000e+01
1.875000e+01
1.875000e+01
1.875000e+01
1.875000e+01
1.875000e+01
1.875000e+01
1.875000e+01
1.875000e+01
1.875000e+01
1.875000e+01
1.875000e+01
1.875000e+01
1.875000e+01
1.875000e+01
1.875000e+01
1.875000e+01
1.875000e+01
1.875000e+01
1.875000e+01
1.875000e+01
2.500000e+01
2.500000e+01
2.500000e+01
2.500000e+01
2.500000e+01
2.500000e+01
2.500000e+01
2.500000e+01
2.500000e+01
2.500000e+01
2.500000e+01
2.500000e+01
2.500000e+01
2.500000e+01
2.500000e+01
2.500000e+01
2.500000e+01
2.500000e+01
2.500000e+01
2.500000e+01
2.500000e+01
2.500000e+01
2.500000e+01
2.500000e+01
2.500000e+01
2.500000e+01
2.500000e+01
2.500000e+01
2.500000e+01
2.500000e+01
2.500000e+01
2.500000e+01
2.500000e+01
3.125000e+01
3.125000e+01
3.125000e+01
3.125000e+01
3.125000e+01
3.125000e+01
3.125000e+01
3.125000e+01
3.125000e+01
3.125000e+01
3.125000e+01
3.125000e+01
3.125000e+01
3.125000e+01
3.125000e+01
3.125000e+01
3.125000e+01
3.125000e+01
3.125000e+01
3.125000e+01
3.125000e+01
3.125000e+01
3.125000e+01
3.125000e+01
3.125000e+01
3.125000e+01
3.125000e+01
3.125000e+01
3.125000e+01
3.125000e+01
3.125000e+01
3.125000e+01
3.125000e+01
3.750000e+01
3.750000e+01
3.750000e+01
3.750000e+01
3.750000e+01
3.750000e+01
3.750000e+01
3.750000e+01
3.750000e+01
3.750000e+01
3.750000e+01
3.750000e+01
3.750000e+01
3.750000e+01
3.750000e+01
3.750000e+01
3.750000e+01
3.750000e+01
3.750000e+01
3.750000e+01
3.750000e+01
3.750000e+01
3.750000e+01
3.750000e+01
3.750000e+01
3.750000e+01
3.750000e+01
3.750000e+01
3.750000e+01
3.750000e+01
3.750000e+01
3.750000e+01
3.750000e+01
4.375000e+01
4.375000e+01
4.375000e+01
4.375000e+01
4.375000e+01
4.375000e+01
4.375000e+01
4.375000e+01
4.375000e+01
4.375000e+01
4.375000e+01
4.375000e+01
4.375000e+01
4.375000e+01
4.375000e+01
4.375000e+01
4.375000e+01
4.375000e+01
4.375000e+01
4.375000e+01
4.375000e+01
4.375000e+01
4.375000e+01
4.375000e+01
4.375000e+01
4.375000e+01
4.375000e+01
4.375000e+01
4.375000e+01
4.375000e+01
4.375000e+01
4.375000e+01
4.375000e+01
5.000000e+01
5.000000e+01
5.000000e+01
5.000000e+01
5.000000e+01
5.000000e+01
5.000000e+01
5.000000e+01
5.000000e+01
5.000000e+01
5.000000e+01
5.000000e+01
5.000000e+01
5.000000e+01
5.000000e+01
5.000000e+01
5.000000e+01
5.000000e+01
5.000000e+01
5.000000e+01
5.000000e+01
5.000000e+01
5.000000e+01
5.000000e+01
5.000000e+01
5.000000e+01
5.000000e+01
5.000000e+01
5.000000e+01
5.000000e+01
5.000000e+01
5.000000e+01
5.000000e+01
5.625000e+01
5.625000e+01
5.625000e+01
5.625000e+01
5.625000e+01
5.625000e+01
5.625000e+01
5.625000e+01
5.625000e+01
5.625000e+01
5.625000e+01
5.625000e+01
5.625000e+01
5.625000e+01
5.625000e+01
5.625000e+01
5.625000e+01
5.625000e+01
5.625000e+01
5.625000e+01
5.625000e+01
5.625000e+01
5.625000e+01
5.625000e+01
5.625000e+01
5.625000e+01
5.625000e+01
5.625000e+01
5.625000e+01
5.625000e+01
5.625000e+01
5.625000e+01
5.625000e+01
6.250000e+01
6.250000e+01
6.250000e+01
6.250000e+01
6.250000e+01
6.250000e+01
6.250000e+01
6.250000e+01
6.250000e+01
6.250000e+01
6.250000e+01
6.250000e+01
6.250000e+01
6.250000e+01
6.250000e+01
6.250000e+01
6.250000e+01
6.250000e+01
6.250000e+01
6.250000e+01
6.250000e+01
6.250000e+01
6.250000e+01
6.250000e+01
6.250000e+01
6.250000e+01
6.250000e+01
6.250000e+01
6.250000e+01
6.250000e+01
6.250000e+01
6.250000e+01
6.250000e+01
6.875000e+01
6.875000e+01
6.875000e+01
6.875000e+01
6.875000e+01
6.875000e+01
6.875000e+01
6.875000e+01
6.875000e+01
6.875000e+01
6.875000e+01
6.875000e+01
6.875000e+01
6.875000e+01
6.875000e+01
6.875000e+01
6.875000e+01
6.875000e+01
6.875000e+01
6.875000e+01
6.875000e+01
6.875000e+01
6.875000e+01
6.875000e+01
6.875000e+01
6.875000e+01
6.875000e+01
6.875000e+01
6.875000e+01
6.875000e+01
6.875000e+01
6.875000e+01
6.875000e+01
7.500000e+01
7.500000e+01
7.500000e+01
7.500000e+01
7.500000e+01
7.500000e+01
7.500000e+01
7.500000e+01
7.500000e+01
7.500000e+01
7.500000e+01
7.500000e+01
7.500000e+01
7.500000e+01
7.500000e+01
7.500000e+01
7.500000e+01
7.500000e+01
7.500000e+01
7.500000e+01
7.500000e+01
7.500000e+01
7.500000e+01
7.500000e+01
7.500000e+01
7.500000e+01
7.500000e+01
7.500000e+01
7.500000e+01
7.500000e+01
7.500000e+01
7.500000e+01
7.500000e+01
8.125000e+01
8.125000e+01
8.125000e+01
8.125000e+01
8.125000e+01
8.125000e+01
8.125000e+01
8.125000e+01
8.125000e+01
8.125000e+01
8.125000e+01
8.125000e+01
8.125000e+01
8.125000e+01
8.125000e+01
8.125000e+01
8.125000e+01
8.125000e+01
8.125000e+01
8.125000e+01
8.125000e+01
8.125000e+01
8.125000e+01
8.125000e+01
8.125000e+01
8.125000e+01
8.125000e+01
8.125000e+01
8.125000e+01
8.125000e+01
8.125000e+01
8.125000e+01
8.125000e+01
8.750000e+01
8.750000e+01
8.750000e+01
8.750000e+01
8.750000e+01
8.750000e+01
8.750000e+01
8.750000e+01
8.750000e+01
8.750000e+01
8.750000e+01
8.750000e+01
8.750000e+01
8.750000e+01
8.750000e+01
8.750000e+01
8.750000e+01
8.750000e+01
8.750000e+01
8.750000e+01
8.750000e+01
8.750000e+01
8.750000e+01
8.750000e+01
8.750000e+01
8.750000e+01
8.750000e+01
8.750000e+01
8.750000e+01
8.750000e+01
8.750000e+01
8.750000e+01
8.750000e+01
9.375000e+01
9.375000e+01
9.375000e+01
9.375000e+01
9.375000e+01
9.375000e+01
9.375000e+01
9.375000e+01
9.375000e+01
9.375000e+01
9.375000e+01
9.375000e+01
9.375000e+01
9.375000e+01
9.375000e+01
9.375000e+01
9.375000e+01
9.375000e+01
9.375000e+01
9.375000e+01
9.375000e+01
9.375000e+01
9.375000e+01
9.375000e+01
9.375000e+01
9.375000e+01
9.375000e+01
9.375000e+01
9.375000e+01
9.375000e+01
9.375000e+01
9.375000e+01
9.375000e+01
1.000000e+02
1.000000e+02
1.000000e+02
1.000000e+02
1.000000e+02
1.000000e+02
1.000000e+02
1.000000e+02
1.000000e+02
1.000000e+02
1.000000e+02
1.000000e+02
1.000000e+02
1.000000e+02
1.000000e+02
1.000000e+02
1.000000e+02
1.000000e+02
1.000000e+02
1.000000e+02
1.000000e+02
1.000000e+02
1.000000e+02
1.000000e+02
1.000000e+02
1.000000e+02
1.000000e+02
1.000000e+02
1.000000e+02
1.000000e+02
1.000000e+02
1.000000e+02
1.000000e+02
0.000000e+00
-5.548587e-02
-1.006724e-01
-1.425311e-01
-1.827035e-01
-2.214963e-01
-2.589874e-01
-2.951729e-01
-3.300302e-01
-3.635343e-01
-3.956642e-01
-4.264050e-01
-4.557492e-01
-4.836965e-01
-5.102535e-01
-5.354338e-01
-5.592600e-01
-5.817651e-01
-6.029945e-01
-6.230090e-01
-6.418897e-01
-6.597444e-01
-6.767156e-01
-6.929921e-01
-7.088267e-01
-7.245629e-01
-7.406778e-01
-7.578517e-01
-7.770832e-01
-7.998412e-01
-8.280317e-01
-8.616266e-01
-8.821291e-01
0.000000e+00
-3.720175e-02
-7.740286e-02
-1.153070e-01
-1.513331e-01
-1.858250e-01
-2.189646e-01
-2.508312e-01
-2.814569e-01
-3.108522e-01
-3.390189e-01
-3.659568e-01
-3.916673e-01
-4.161548e-01
-4.394273e-01
-4.614975e-01
-4.823843e-01
-5.021136e-01
-5.207197e-01
-5.382469e-01
-5.547516e-01
-5.703051e-01
-5.849964e-01
-5.989339e-01
-6.122472e-01
-6.250854e-01
-6.376054e-01
-6.499369e-01
-6.620789e-01
-6.736366e-01
-6.832674e-01
-6.888980e-01
-6.967366e-01
0.000000e+00
-2.950870e-02
-6.075103e-02
-9.256046e-02
-1.234692e-01
-1.532393e-01
-1.818513e-01
-2.093321e-01
-2.357064e-01
-2.609909e-01
-2.851959e-01
-3.083291e-01
-3.303969e-01
-3.514060e-01
-3.713642e-01
-3.902807e-01
-4.081682e-01
-4.250420e-01
-4.409214e-01
-4.558287e-01
-4.697898e-01
-4.828330e-01
-4.949864e-01
-5.062714e-01
-5.166927e-01
-5.262167e-01
-5.347345e-01
-5.419952e-01
-5.475079e-01
-5.504764e-01
-5.502163e-01
-5.485496e-01
-5.577028e-01
0.000000e+00
-2.341262e-02
-4.811835e-02
-7.350025e-02
-9.882267e-02
-1.235319e-01
-1.474161e-01
-1.703993e-01
-1.924613e-01
-2.136011e-01
-2.338239e-01
-2.531364e-01
-2.715455e-01
-2.890569e-01
-3.056757e-01
-3.214065e-01
-3.362535e-01
-3.502209e-01
-3.633113e-01
-3.755256e-01
-3.868604e-01
-3.973054e-01
-4.068376e-01
-4.154126e-01
-4.229513e-01
-4.293206e-01
-4.343095e-01
-4.376134e-01
-4.388750e-01
-4.379386e-01
-4.356643e-01
-4.355286e-01
-4.442493e-01
0.000000e+00
-1.817143e-02
-3.720891e-02
-5.685453e-02
-7.665983e-02
-9.622227e-02
-1.152718e-01
-1.336717e-01
-1.513602e-01
-1.683133e-01
-1.845244e-01
-1.999946e-01
-2.147269e-01
-2.287238e-01
-2.419860e-01
-2.545123e-01
-2.662989e-01
-2.773388e-01
-2.876205e-01
-2.971268e-01
-3.058320e-01
-3.136990e-01
-3.206740e-01
-3.266804e-01
-3.316120e-01
-3.353294e-01
-3.376687e-01
-3.384894e-01
-3.378164e-01
-3.361693e-01
-3.351006e-01
-3.375684e-01
-3.450076e-01
0.000000e+00
-1.335488e-02
-2.728197e-02
-4.165656e-02
-5.623031e-02
-7.073107e-02
-8.494276e-02
-9.872509e-02
-1.120011e-01
-1.247334e-01
-1.369059e-01
-1.485131e-01
-1.595533e-01
-1.700243e-01
-1.799221e-01
-1.892396e-01
-1.979659e-01
-2.060850e-01
-2.135750e-01
-2.204065e-01
-2.265410e-01
-2.319288e-01
-2.365071e-01
-2.401988e-01
-2.429165e-01
-2.445749e-01
-2.451251e-01
-2.446315e-01
-2.434148e-01
-2.422571e-01
-2.425390e-01
-2.456848e-01
-2.518402e-01
0.000000e+00
-8.789078e-03
-1.792585e-02
-2.735253e-02
-3.693471e-02
-4.651101e-02
-5.593696e-02
-6.510734e-02
-7.395634e-02
-8.244760e-02
-9.056270e-02
-9.829240e-02
-1.056308e-01
-1.125718e-01
-1.191070e-01
-1.252244e-01
-1.309075e-01
-1.361346e-01
-1.408775e-01
-1.451014e-01
-1.487637e-01
-1.518149e-01
-1.541995e-01
-1.558612e-01
-1.567540e-01
-1.568648e-01
-1.562544e-01
-1.551248e-01
-1.539059e-01
-1.533150e-01
-1.542368e-01
-1.572996e-01
-1.622683e-01
0.000000e+00
-4.365518e-03
-8.896101e-03
-1.356849e-02
-1.832366e-02
-2.308646e-02
-2.778554e-02
-3.236508e-02
-3.678741e-02
-4.102948e-02
-4.507762e-02
-4.892279e-02
-5.255712e-02
-5.597160e-02
-5.915457e-02
-6.209075e-02
-6.476046e-02
-6.713907e-02
-6.919667e-02
-7.089822e-02
-7.220440e-02
-7.307383e-02
-7.346768e-02
-7.335814e-02
-7.274304e-02
-7.166932e-02
-7.026692e-02
-6.878922e-02
-6.764206e-02
-6.735460e-02
-6.843610e-02
-7.110797e-02
-7.505053e-02
0.000000e+00
-7.023246e-06
-1.523790e-05
-2.418885e-05
-3.340565e-05
-4.225221e-05
-4.977364e-05
-5.451272e-05
-5.430661e-05
-4.604701e-05
-2.538322e-05
1.364037e-05
7.899676e-05
1.811258e-04
3.334110e-04
5.526525e-04
8.594443e-04
1.278341e-03
1.837632e-03
2.568464e-03
3.502865e-03
4.670069e-03
6.090327e-03
7.765181e-03
9.663259e-03
1.170142e-02
1.372361e-02
1.548545e-02
1.666162e-02
1.690024e-02
1.594003e-02
1.376529e-02
1.071938e-02
0.000000e+00
4.352304e-03
8.867374e-03
1.352278e-02
1.826038e-02
2.300618e-02
2.769061e-02
3.226057e-02
3.668242e-02
4.093891e-02
4.502454e-02
4.894144e-02
5.269673e-02
5.630106e-02
5.976802e-02
6.311409e-02
6.635863e-02
6.952368e-02
7.263338e-02
7.571255e-02
7.878422e-02
8.186529e-02
8.496015e-02
8.805163e-02
9.108946e-02
9.397777e-02
9.656537e-02
9.864659e-02
9.998388e-02
1.003625e-01
9.967693e-02
9.802484e-02
9.576410e-02
0.000000e+00
8.778321e-03
1.790229e-02
2.731478e-02
3.688198e-02
4.644345e-02
5.585612e-02
6.501694e-02
7.386327e-02
8.236339e-02
9.050547e-02
9.828937e-02
1.057214e-01
1.128116e-01
1.195723e-01
1.260179e-01
1.321646e-01
1.380300e-01
1.436322e-01
1.489887e-01
1.541133e-01
1.590125e-01
1.636796e-01
1.680877e-01
1.721814e-01
1.758699e-01
1.790248e-01
1.814889e-01
1.831018e-01
1.837466e-01
1.834151e-01
1.822718e-01
1.806940e-01
0.000000e+00
1.334805e-02
2.726675e-02
4.163174e-02
5.619496e-02
7.068481e-02
8.488609e-02
9.865988e-02
1.119312e-01
1.246653e-01
1.368506e-01
1.484874e-01
1.595818e-01
1.701423e-01
1.801787e-01
1.897018e-01
1.987228e-01
2.072531e-01
2.153038e-01
2.228841e-01
2.299993e-01
2.366479e-01
2.428167e-01
2.484769e-01
2.535782e-01
2.580467e-01
2.617860e-01
2.646880e-01
2.666561e-01
2.676422e-01
2.676976e-01
2.670270e-01
2.660298e-01
0.000000e+00
1.816976e-02
3.720474e-02
5.684704e-02
7.664816e-02
9.620567e-02
1.152498e-01
1.336445e-01
1.513283e-01
1.682779e-01
1.844884e-01
1.999626e-01
2.147064e-01
2.287257e-01
2.420263e-01
2.546137e-01
2.664926e-01
2.776669e-01
2.881395e-01
2.979107e-01
3.069778e-01
3.153322e-01
3.229579e-01
3.298285e-01
3.359054e-01
3.411377e-01
3.454654e-01
3.488288e-01
3.511860e-01
3.525402e-01
3.529795e-01
3.527277e-01
3.522023e-01
0.000000e+00
2.341699e-02
4.812720e-02
7.351344e-02
9.883985e-02
1.235525e-01
1.474393e-01
1.704243e-01
1.924861e-01
2.136224e-01
2.338371e-01
2.531351e-01
2.715201e-01
2.889939e-01
3.055568e-01
3.212074e-01
3.359429e-01
3.497584e-01
3.626471e-01
3.745999e-01
3.856048e-01
3.956465e-01
4.047057e-01
4.127596e-01
4.197825e-01
4.257481e-01
4.306341e-01
4.344296e-01
4.371459e-01
4.388340e-01
4.396105e-01
4.397031e-01
4.395288e-01
0.000000e+00
2.951938e-02
6.077363e-02
9.259585e-02
1.235183e-01
1.533023e-01
1.819284e-01
2.094226e-01
2.358078e-01
2.610977e-01
2.852989e-01
3.084137e-01
3.304405e-01
3.513750e-01
3.712105e-01
3.899383e-01
4.075469e-01
4.240216e-01
4.393451e-01
4.534971e-01
4.664544e-01
4.781918e-01
4.886837e-01
4.979064e-01
5.058427e-01
5.124864e-01
5.178496e-01
5.219701e-01
5.249192e-01
5.268080e-01
5.277966e-01
5.281186e-01
5.281570e-01
0.000000e+00
3.721785e-02
7.743764e-02
1.153628e-01
1.514131e-01
1.859317e-01
2.191000e-01
2.509969e-01
2.816524e-01
3.110734e-01
3.392565e-01
3.661941e-01
3.918760e-01
4.162903e-01
4.394233e-01
4.612585e-01
4.817761e-01
5.009518e-01
5.187566e-01
5.351572e-01
5.501158e-01
5.635921e-01
5.755461e-01
5.859436e-01
5.947630e-01
6.020049e-01
6.077036e-01
6.119392e-01
6.148488e-01
6.166317e-01
6.175426e-01
6.178728e-01
6.179537e-01
0.000000e+00
5.550357e-02
1.007131e-01
1.426007e-01
1.828079e-01
2.216412e-01
2.591783e-01
2.954155e-01
3.303292e-01
3.638914e-01
3.960761e-01
4.268611e-01
4.562263e-01
4.841531e-01
5.106219e-01
5.356111e-01
5.590938e-01
5.810371e-01
6.014009e-01
6.201372e-01
6.371894e-01
6.524949e-01
6.659879e-01
6.776064e-01
6.873026e-01
6.950570e-01
7.008972e-01
7.049206e-01
7.073187e-01
7.083992e-01
7.085956e-01
7.084330e-01
7.083414e-01
0.000000e+00
-3.428937e-02
-5.984258e-02
-8.772713e-02
-1.187783e-01
-1.538539e-01
-1.931973e-01
-2.368770e-01
-2.848497e-01
-3.370124e-01
-3.932268e-01
-4.533340e-01
-5.171624e-01
-5.845335e-01
-6.552649e-01
-7.291732e-01
-8.060761e-01
-8.857944e-01
-9.681549e-01
-1.052995e+00
-1.140165e+00
-1.229544e+00
-1.321040e+00
-1.414620e+00
-1.510331e+00
-1.608347e+00
-1.709061e+00
-1.813232e+00
-1.922314e+00
-2.039187e+00
-2.170064e+00
-2.329602e+00
-2.550009e+00
0.000000e+00
-2.130949e-02
-4.805691e-02
-7.612965e-02
-1.076136e-01
-1.430701e-01
-1.827958e-01
-2.268580e-01
-2.752167e-01
-3.277693e-01
-3.843766e-01
-4.448784e-01
-5.091017e-01
-5.768664e-01
-6.479885e-01
-7.222828e-01
-7.995646e-01
-8.796521e-01
-9.623688e-01
-1.047548e+00
-1.135035e+00
-1.224702e+00
-1.316450e+00
-1.410234e+00
-1.506089e+00
-1.604175e+00
-1.704861e+00
-1.808885e+00
-1.917669e+00
-2.034046e+00
-2.163912e+00
-2.319899e+00
-2.525815e+00
0.000000e+00
-1.565304e-02
-3.874325e-02
-6.643306e-02
-9.797203e-02
-1.336897e-01
-1.737290e-01
-2.181270e-01
-2.668301e-01
-3.197308e-01
-3.766877e-01
-4.375391e-01
-5.021114e-01
-5.702237e-01
-6.416916e-01
-7.163289e-01
-7.939501e-01
-8.743724e-01
-9.574181e-01
-1.042919e+00
-1.130720e+00
-1.220690e+00
-1.312732e+00
-1.406802e+00
-1.502937e+00
-1.601309e+00
-1.702302e+00
-1.806672e+00
-1.915826e+00
-2.032312e+00
-2.160488e+00
-2.305501e+00
-2.466363e+00
0.000000e+00
-1.253431e-02
-3.280773e-02
-5.902098e-02
-9.015463e-02
-1.258613e-01
-1.660718e-01
-2.107184e-01
-2.597050e-01
-3.129041e-01
-3.701653e-01
-4.313229e-01
-4.962019e-01
-5.646210e-01
-6.363960e-01
-7.113411e-01
-7.892716e-01
-8.700051e-01
-9.533652e-01
-1.039185e+00
-1.127311e+00
-1.217616e+00
-1.310007e+00
-1.404448e+00
-1.500985e+00
-1.599798e+00
-1.701267e+00
-1.806089e+00
-1.915414e+00
-2.030924e+00
-2.154226e+00
-2.284270e+00
-2.405328e+00
0.000000e+00
-1.060610e-02
-2.892610e-02
-5.375749e-02
-8.418145e-02
-1.196540e-01
-1.598797e-01
-2.046713e-01
-2.538672e-01
-3.073066e-01
-3.648223e-01
-4.262409e-01
-4.913842e-01
-5.600706e-01
-6.321163e-01
-7.073371e-01
-7.855498e-01
-8.665744e-01
-9.502367e-01
-1.036372e+00
-1.124832e+00
-1.215492e+00
-1.308264e+00
-1.403112e+00
-1.500081e+00
-1.599327e+00
-1.701162e+00
-1.806086e+00
-1.914762e+00
-2.027723e+00
-2.144429e+00
-2.260597e+00
-2.366026e+00
0.000000e+00
-9.379150e-03
-2.637923e-02
-5.013535e-02
-7.987448e-02
-1.150148e-01
-1.551530e-01
-2.000019e-01
-2.493356e-01
-3.029551e-01
-3.606724e-01
-4.223040e-01
-4.876673e-01
-5.565798e-01
-6.288587e-01
-7.043216e-01
-7.827877e-01
-8.640797e-01
-9.480261e-01
-1.034465e+00
-1.123250e+00
-1.214257e+00
-1.307396e+00
-1.402620e+00
-1.499947e+00
-1.599471e+00
-1.701367e+00
-1.805856e+00
-1.913057e+00
-2.022610e+00
-2.132846e+00
-2.239826e+00
-2.337605e+00
0.000000e+00
-8.616618e-03
-2.476898e-02
-4.778086e-02
-7.698912e-02
-1.118267e-01
-1.518457e-01
-1.967002e-01
-2.461153e-01
-2.998594e-01
-3.577254e-01
-4.195197e-01
-4.850556e-01
-5.541498e-01
-6.266206e-01
-7.022875e-01
-7.809723e-01
-8.625001e-01
-9.467014e-01
-1.033415e+00
-1.122494e+00
-1.213809e+00
-1.307257e+00
-1.402767e+00
-1.500306e+00
-1.599876e+00
-1.701487e+00
-1.805079e+00
-1.910354e+00
-2.016456e+00
-2.121548e+00
-2.222600e+00
-2.315900e+00
0.000000e+00
-8.197596e-03
-2.387548e-02
-4.645407e-02
-7.533461e-02
-1.099696e-01
-1.498968e-01
-1.947415e-01
-2.442006e-01
-2.980217e-01
-3.559850e-01
-4.178903e-01
-4.835483e-01
-5.527754e-01
-6.253914e-01
-7.012179e-01
-7.800787e-01
-8.618005e-01
-9.462143e-01
-1.033158e+00
-1.122478e+00
-1.214034e+00
-1.307702e+00
-1.403373e+00
-1.500952e+00
-1.600339e+00
-1.701387e+00
-1.803820e+00
-1.907092e+00
-2.010187e+00
-2.111450e+00
-2.208601e+00
-2.299107e+00
0.000000e+00
-8.062589e-03
-2.358722e-02
-4.602406e-02
-7.479539e-02
-1.093618e-01
-1.492583e-01
-1.941024e-01
-2.435823e-01
-2.974395e-01
-3.554503e-01
-4.174132e-01
-4.831391e-01
-5.524459e-01
-6.251547e-01
-7.010893e-01
-7.800748e-01
-8.619384e-01
-9.465099e-01
-1.033622e+00
-1.123114e+00
-1.214828e+00
-1.308612e+00
-1.404314e+00
-1.501774e+00
-1.600796e+00
-1.701113e+00
-1.802311e+00
-1.903735e+00
-2.004388e+00
-2.102868e+00
-2.197436e+00
-2.286236e+00
0.000000e+00
-8.193695e-03
-2.387008e-02
-4.644944e-02
-7.533323e-02
-1.099745e-01
-1.499122e-01
-1.947727e-01
-2.442549e-01
-2.981086e-01
-3.561165e-01
-4.180816e-01
-4.838182e-01
-5.531467e-01
-6.258906e-01
-7.018750e-01
-7.809260e-01
-8.628700e-01
-9.475339e-01
-1.034745e+00
-1.124328e+00
-1.216109e+00
-1.309905e+00
-1.405520e+00
-1.502734e+00
-1.601277e+00
-1.700796e+00
-1.800806e+00
-1.900633e+00
-1.999369e+00
-2.095858e+00
-2.188755e+00
-2.276643e+00
0.000000e+00
-8.609144e-03
-2.475862e-02
-4.777194e-02
-7.698636e-02
-1.118360e-01
-1.518749e-01
-1.967599e-01
-2.462192e-01
-3.000255e-01
-3.579769e-01
-4.198860e-01
-4.855730e-01
-5.548619e-01
-6.275783e-01
-7.035487e-01
-7.825993e-01
-8.645550e-01
-9.492388e-01
-1.036470e+00
-1.126063e+00
-1.217820e+00
-1.311533e+00
-1.406966e+00
-1.503848e+00
-1.601855e+00
-1.700581e+00
-1.799515e+00
-1.898010e+00
-1.995270e+00
-2.090360e+00
-2.182244e+00
-2.269833e+00
0.000000e+00
-9.368779e-03
-2.636485e-02
-5.012287e-02
-7.987050e-02
-1.150276e-01
-1.551935e-01
-2.000848e-01
-2.494803e-01
-3.031867e-01
-3.610235e-01
-4.228157e-01
-4.883904e-01
-5.575756e-01
-6.301989e-01
-7.060874e-01
-7.850670e-01
-8.669608e-01
-9.515873e-01
-1.038759e+00
-1.128276e+00
-1.219926e+00
-1.313473e+00
-1.408651e+00
-1.505152e+00
-1.602611e+00
-1.700595e+00
-1.798591e+00
-1.895996e+00
-1.992131e+00
-2.086256e+00
-2.177600e+00
-2.265369e+00
0.000000e+00
-1.059388e-02
-2.890916e-02
-5.374277e-02
-8.417682e-02
-1.196695e-01
-1.599285e-01
-2.047713e-01
-2.540418e-01
-3.075864e-01
-3.652466e-01
-4.268595e-01
-4.922587e-01
-5.612752e-01
-6.337379e-01
-7.094745e-01
-7.883098e-01
-8.700649e-01
-9.545544e-01
-1.041584e+00
-1.130945e+00
-1.222408e+00
-1.315721e+00
-1.410590e+00
-1.506683e+00
-1.603611e+00
-1.700927e+00
-1.798124e+00
-1.894650e+00
-1.989928e+00
-2.083391e+00
-2.174516e+00
-2.262814e+00
0.000000e+00
-1.252176e-02
-3.279035e-02
-5.900599e-02
-9.015065e-02
-1.258794e-01
-1.661269e-01
-2.108300e-01
-2.598992e-01
-3.132146e-01
-3.706356e-01
-4.320081e-01
-4.971697e-01
-5.659531e-01
-6.381882e-01
-7.137021e-01
-7.923189e-01
-8.738575e-01
-9.581296e-01
-1.044935e+00
-1.134059e+00
-1.225262e+00
-1.318276e+00
-1.412796e+00
-1.508469e+00
-1.604894e+00
-1.701619e+00
-1.798149e+00
-1.893971e+00
-1.988591e+00
-2.081590e+00
-2.172675e+00
-2.261701e+00
0.000000e+00
-1.564211e-02
-3.872803e-02
-6.642040e-02
-9.797086e-02
-1.337119e-01
-1.737899e-01
-2.182470e-01
-2.670364e-01
-3.200584e-01
-3.771815e-01
-4.382558e-01
-5.031207e-01
-5.716094e-01
-6.435515e-01
-7.187735e-01
-7.970985e-01
-8.783438e-01
-9.623185e-01
-1.048820e+00
-1.137627e+00
-1.228495e+00
-1.321149e+00
-1.415275e+00
-1.510515e+00
-1.606461e+00
-1.702661e+00
-1.798635e+00
-1.893895e+00
-1.988007e+00
-2.080656e+00
-2.171749e+00
-2.261506e+00
0.000000e+00
-2.130249e-02
-4.804657e-02
-7.612222e-02
-1.076183e-01
-1.430989e-01
-1.828644e-01
-2.269868e-01
-2.754328e-01
-3.281074e-01
-3.848810e-01
-4.456047e-01
-5.101178e-01
-5.782533e-01
-6.498403e-01
-7.247045e-01
-8.026675e-01
-8.835453e-01
-9.671452e-01
-1.053262e+00
-1.141672e+00
-1.232129e+00
-1.324355e+00
-1.418033e+00
-1.512806e+00
-1.608269e+00
-1.703978e+00
-1.799465e+00
-1.894266e+00
-1.987979e+00
-2.080352e+00
-2.171415e+00
-2.261672e+00
0.000000e+00
-3.428843e-02
-5.983912e-02
-8.772785e-02
-1.187924e-01
-1.538933e-01
-1.932778e-01
-2.370191e-01
-2.850795e-01
-3.373638e-01
-3.937425e-01
-4.540669e-01
-5.181764e-01
-5.859041e-01
-6.570782e-01
-7.315236e-01
-8.090604e-01
-8.895028e-01
-9.726560e-01
-1.058313e+00
-1.146247e+00
-1.236212e+00
-1.327928e+00