TITLE = "Solution"
VARIABLES = x, y, u, v, psiu, psiv, t, stress
ZONE T="structure" N=561 E=512 F=FEBLOCK ET=QUADRILATERAL VARLOCATION=([7,8]=cellcentered)
0.000000e+00
6.250000e+00
1.250000e+01
1.875000e+01
2.500000e+01
3.125000e+01
3.750000e+01
4.375000e+01
5.000000e+01
5.625000e+01
6.250000e+01
6.875000e+01
7.500000e+01
8.125000e+01
8.750000e+01
9.375000e+01
1.000000e+02
1.062500e+02
1.125000e+02
1.187500e+02
1.250000e+02
1.312500e+02
1.375000e+02
1.437500e+02
1.500000e+02
1.562500e+02
1.625000e+02
1.687500e+02
1.750000e+02
1.812500e+02
1.875000e+02
1.937500e+02
2.000000e+02
0.000000e+00
6.250000e+00
1.250000e+01
1.875000e+01
2.500000e+01
3.125000e+01
3.750000e+01
4.375000e+01
5.000000e+01
5.625000e+01
6.250000e+01
6.875000e+01
7.500000e+01
8.125000e+01
8.750000e+01
9.375000e+01
1.000000e+02
1.062500e+02
1.125000e+02
1.187500e+02
1.250000e+02
1.312500e+02
1.375000e+02
1.437500e+02
1.500000e+02
1.562500e+02
1.625000e+02
1.687500e+02
1.750000e+02
1.812500e+02
1.875000e+02
1.937500e+02
2.000000e+02
0.000000e+00
6.250000e+00
1.250000e+01
1.875000e+01
2.500000e+01
3.125000e+01
3.750000e+01
4.375000e+01
5.000000e+01
5.625000e+01
6.250000e+01
6.875000e+01
7.500000e+01
8.125000e+01
8.750000e+01
9.375000e+01
1.000000e+02
1.062500e+02
1.125000e+02
1.187500e+02
1.250000e+02
1.312500e+02
1.375000e+02
1.437500e+02
1.500000e+02
1.562500e+02
1.625000e+02
1.687500e+02
1.750000e+02
1.812500e+02
1.875000e+02
1.937500e+02
2.000000e+02
0.000000e+00
6.250000e+00
1.250000e+01
1.875000e+01
2.500000e+01
3.125000e+01
3.750000e+01
4.375000e+01
5.000000e+01
5.625000e+01
6.250000e+01
6.875000e+01
7.500000e+01
8.125000e+01
8.750000e+01
9.375000e+01
1.000000e+02
1.062500e+02
1.125000e+02
1.187500e+02
1.250000e+02
1.312500e+02
1.375000e+02
1.437500e+02
1.500000e+02
1.562500e+02
1.625000e+02
1.687500e+02
1.750000e+02
1.812500e+02
1.875000e+02
1.937500e+02
2.000000e+02
0.000000e+00
6.250000e+00
1.250000e+01
1.875000e+01
2.500000e+01
3.125000e+01
3.750000e+01
4.375000e+01
5.000000e+01
5.625000e+01
6.250000e+01
6.875000e+01
7.500000e+01
8.125000e+01
8.750000e+01
9.375000e+01
1.000000e+02
1.062500e+02
1.125000e+02
1.187500e+02
1.250000e+02
1.312500e+02
1.375000e+02
1.437500e+02
1.500000e+02
1.562500e+02
1.625000e+02
1.687500e+02
1.750000e+02
1.812500e+02
1.875000e+02
1.937500e+02
2.000000e+02
0.000000e+00
6.250000e+00
1.250000e+01
1.875000e+01
2.500000e+01
3.125000e+01
3.750000e+01
4.375000e+01
5.000000e+01
5.625000e+01
6.250000e+01
6.875000e+01
7.500000e+01
8.125000e+01
8.750000e+01
9.375000e+01
1.000000e+02
1.062500e+02
1.125000e+02
1.187500e+02
1.250000e+02
1.312500e+02
1.375000e+02
1.437500e+02
1.500000e+02
1.562500e+02
1.625000e+02
1.687500e+02
1.750000e+02
1.812500e+02
1.875000e+02
1.937500e+02
2.000000e+02
0.000000e+00
6.250000e+00
1.250000e+01
1.875000e+01
2.500000e+01
3.125000e+01
3.750000e+01
4.375000e+01
5.000000e+01
5.625000e+01
6.250000e+01
6.875000e+01
7.500000e+01
8.125000e+01
8.750000e+01
9.375000e+01
1.000000e+02
1.062500e+02
1.125000e+02
1.187500e+02
1.250000e+02
1.312500e+02
1.375000e+02
1.437500e+02
1.500000e+02
1.562500e+02
1.625000e+02
1.687500e+02
1.750000e+02
1.812500e+02
1.875000e+02
1.937500e+02
2.000000e+02
0.000000e+00
6.250000e+00
1.250000e+01
1.875000e+01
2.500000e+01
3.125000e+01
3.750000e+01
4.375000e+01
5.000000e+01
5.625000e+01
6.250000e+01
6.875000e+01
7.500000e+01
8.125000e+01
8.750000e+01
9.375000e+01
1.000000e+02
1.062500e+02
1.125000e+02
1.187500e+02
1.250000e+02
1.312500e+02
1.375000e+02
1.437500e+02
1.500000e+02
1.562500e+02
1.625000e+02
1.687500e+02
1.750000e+02
1.812500e+02
1.875000e+02
1.937500e+02
2.000000e+02
0.000000e+00
6.250000e+00
1.250000e+01
1.875000e+01
2.500000e+01
3.125000e+01
3.750000e+01
4.375000e+01
5.000000e+01
5.625000e+01
6.250000e+01
6.875000e+01
7.500000e+01
8.125000e+01
8.750000e+01
9.375000e+01
1.000000e+02
1.062500e+02
1.125000e+02
1.187500e+02
1.250000e+02
1.312500e+02
1.375000e+02
1.437500e+02
1.500000e+02
1.562500e+02
1.625000e+02
1.687500e+02
1.750000e+02
1.812500e+02
1.875000e+02
1.937500e+02
2.000000e+02
0.000000e+00
6.250000e+00
1.250000e+01
1.875000e+01
2.500000e+01
3.125000e+01
3.750000e+01
4.375000e+01
5.000000e+01
5.625000e+01
6.250000e+01
6.875000e+01
7.500000e+01
8.125000e+01
8.750000e+01
9.375000e+01
1.000000e+02
1.062500e+02
1.125000e+02
1.187500e+02
1.250000e+02
1.312500e+02
1.375000e+02
1.437500e+02
1.500000e+02
1.562500e+02
1.625000e+02
1.687500e+02
1.750000e+02
1.812500e+02
1.875000e+02
1.937500e+02
2.000000e+02
0.000000e+00
6.250000e+00
1.250000e+01
1.875000e+01
2.500000e+01
3.125000e+01
3.750000e+01
4.375000e+01
5.000000e+01
5.625000e+01
6.250000e+01
6.875000e+01
7.500000e+01
8.125000e+01
8.750000e+01
9.375000e+01
1.000000e+02
1.062500e+02
1.125000e+02
1.187500e+02
1.250000e+02
1.312500e+02
1.375000e+02
1.437500e+02
1.500000e+02
1.562500e+02
1.625000e+02
1.687500e+02
1.750000e+02
1.812500e+02
1.875000e+02
1.937500e+02
2.000000e+02
0.000000e+00
6.250000e+00
1.250000e+01
1.875000e+01
2.500000e+01
3.125000e+01
3.750000e+01
4.375000e+01
5.000000e+01
5.625000e+01
6.250000e+01
6.875000e+01
7.500000e+01
8.125000e+01
8.750000e+01
9.375000e+01
1.000000e+02
1.062500e+02
1.125000e+02
1.187500e+02
1.250000e+02
1.312500e+02
1.375000e+02
1.437500e+02
1.500000e+02
1.562500e+02
1.625000e+02
1.687500e+02
1.750000e+02
1.812500e+02
1.875000e+02
1.937500e+02
2.000000e+02
0.000000e+00
6.250000e+00
1.250000e+01
1.875000e+01
2.500000e+01
3.125000e+01
3.750000e+01
4.375000e+01
5.000000e+01
5.625000e+01
6.250000e+01
6.875000e+01
7.500000e+01
8.125000e+01
8.750000e+01
9.375000e+01
1.000000e+02
1.062500e+02
1.125000e+02
1.187500e+02
1.250000e+02
1.312500e+02
1.375000e+02
1.437500e+02
1.500000e+02
1.562500e+02
1.625000e+02
1.687500e+02
1.750000e+02
1.812500e+02
1.875000e+02
1.937500e+02
2.000000e+02
0.000000e+00
6.250000e+00
1.250000e+01
1.875000e+01
2.500000e+01
3.125000e+01
3.750000e+01
4.375000e+01
5.000000e+01
5.625000e+01
6.250000e+01
6.875000e+01
7.500000e+01
8.125000e+01
8.750000e+01
9.375000e+01
1.000000e+02
1.062500e+02
1.125000e+02
1.187500e+02
1.250000e+02
1.312500e+02
1.375000e+02
1.437500e+02
1.500000e+02
1.562500e+02
1.625000e+02
1.687500e+02
1.750000e+02
1.812500e+02
1.875000e+02
1.937500e+02
2.000000e+02
0.000000e+00
6.250000e+00
1.250000e+01
1.875000e+01
2.500000e+01
3.125000e+01
3.750000e+01
4.375000e+01
5.000000e+01
5.625000e+01
6.250000e+01
6.875000e+01
7.500000e+01
8.125000e+01
8.750000e+01
9.375000e+01
1.000000e+02
1.062500e+02
1.125000e+02
1.187500e+02
1.250000e+02
1.312500e+02
1.375000e+02
1.437500e+02
1.500000e+02
1.562500e+02
1.625000e+02
1.687500e+02
1.750000e+02
1.812500e+02
1.875000e+02
1.937500e+02
2.000000e+02
0.000000e+00
6.250000e+00
1.250000e+01
1.875000e+01
2.500000e+01
3.125000e+01
3.750000e+01
4.375000e+01
5.000000e+01
5.625000e+01
6.250000e+01
6.875000e+01
7.500000e+01
8.125000e+01
8.750000e+01
9.375000e+01
1.000000e+02
1.062500e+02
1.125000e+02
1.187500e+02
1.250000e+02
1.312500e+02
1.375000e+02
1.437500e+02
1.500000e+02
1.562500e+02
1.625000e+02
1.687500e+02
1.750000e+02
1.812500e+02
1.875000e+02
1.937500e+02
2.000000e+02
0.000000e+00
6.250000e+00
1.250000e+01
1.875000e+01
2.500000e+01
3.125000e+01
3.750000e+01
4.375000e+01
5.000000e+01
5.625000e+01
6.250000e+01
6.875000e+01
7.500000e+01
8.125000e+01
8.750000e+01
9.375000e+01
1.000000e+02
1.062500e+02
1.125000e+02
1.187500e+02
1.250000e+02
1.312500e+02
1.375000e+02
1.437500e+02
1.500000e+02
1.562500e+02
1.625000e+02
1.687500e+02
1.750000e+02
1.812500e+02
1.875000e+02
1.937500e+02
2.000000e+02
0.000000e+00
0.000000e+00
0.000000e+00
0.000000e+00
0.000000e+00
0.000000e+00
0.000000e+00
0.000000e+00
0.000000e+00
0.000000e+00
0.000000e+00
0.000000e+00
0.000000e+00
0.000000e+00
0.000000e+00
0.000000e+00
0.000000e+00
0.000000e+00
0.000000e+00
0.000000e+00
0.000000e+00
0.000000e+00
0.000000e+00
0.000000e+00
0.000000e+00
0.000000e+00
0.000000e+00
0.000000e+00
0.000000e+00
0.000000e+00
0.000000e+00
0.000000e+00
0.000000e+00
6.250000e+00
6.250000e+00
6.250000e+00
6.250000e+00
6.250000e+00
6.250000e+00
6.250000e+00
6.250000e+00
6.250000e+00
6.250000e+00
6.250000e+00
6.250000e+00
6.250000e+00
6.250000e+00
6.250000e+00
6.250000e+00
6.250000e+00
6.250000e+00
6.250000e+00
6.250000e+00
6.250000e+00
6.250000e+00
6.250000e+00
6.250000e+00
6.250000e+00
6.250000e+00
6.250000e+00
6.250000e+00
6.250000e+00
6.250000e+00
6.250000e+00
6.250000e+00
6.250000e+00
1.250000e+01
1.250000e+01
1.250000e+01
1.250000e+01
1.250000e+01
1.250000e+01
1.250000e+01
1.250000e+01
1.250000e+01
1.250000e+01
1.250000e+01
1.250000e+01
1.250000e+01
1.250000e+01
1.250000e+01
1.250000e+01
1.250000e+01
1.250000e+01
1.250000e+01
1.250000e+01
1.250000e+01
1.250000e+01
1.250000e+01
1.250000e+01
1.250000e+01
1.250000e+01
1.250000e+01
1.250000e+01
1.250000e+01
1.250000e+01
1.250000e+01
1.250000e+01
1.250000e+01
1.875000e+01
1.875000e+01
1.875000e+01
1.875000e+01
1.875000e+01
1.875000e+01
1.875000e+01
1.875000e+01
1.875000e+01
1.875000e+01
1.875000e+01
1.875000e+01
1.875000e+01
1.875000e+01
1.875000e+01
1.875000e+01
1.875000e+01
1.875000e+01
1.875000e+01
1.875000e+01
1.875000e+01
1.875000e+01
1.875000e+01
1.875000e+01
1.875000e+01
1.875000e+01
1.875000e+01
1.875000e+01
1.875000e+01
1.875000e+01
1.875000e+01
1.875000e+01
1.875000e+01
2.500000e+01
2.500000e+01
2.500000e+01
2.500000e+01
2.500000e+01
2.500000e+01
2.500000e+01
2.500000e+01
2.500000e+01
2.500000e+01
2.500000e+01
2.500000e+01
2.500000e+01
2.500000e+01
2.500000e+01
2.500000e+01
2.500000e+01
2.500000e+01
2.500000e+01
2.500000e+01
2.500000e+01
2.500000e+01
2.500000e+01
2.500000e+01
2.500000e+01
2.500000e+01
2.500000e+01
2.500000e+01
2.500000e+01
2.500000e+01
2.500000e+01
2.500000e+01
2.500000e+01
3.125000e+01
3.125000e+01
3.125000e+01
3.125000e+01
3.125000e+01
3.125000e+01
3.125000e+01
3.125000e+01
3.125000e+01
3.125000e+01
3.125000e+01
3.125000e+01
3.125000e+01
3.125000e+01
3.125000e+01
3.125000e+01
3.125000e+01
3.125000e+01
3.125000e+01
3.125000e+01
3.125000e+01
3.125000e+01
3.125000e+01
3.125000e+01
3.125000e+01
3.125000e+01
3.125000e+01
3.125000e+01
3.125000e+01
3.125000e+01
3.125000e+01
3.125000e+01
3.125000e+01
3.750000e+01
3.750000e+01
3.750000e+01
3.750000e+01
3.750000e+01
3.750000e+01
3.750000e+01
3.750000e+01
3.750000e+01
3.750000e+01
3.750000e+01
3.750000e+01
3.750000e+01
3.750000e+01
3.750000e+01
3.750000e+01
3.750000e+01
3.750000e+01
3.750000e+01
3.750000e+01
3.750000e+01
3.750000e+01
3.750000e+01
3.750000e+01
3.750000e+01
3.750000e+01
3.750000e+01
3.750000e+01
3.750000e+01
3.750000e+01
3.750000e+01
3.750000e+01
3.750000e+01
4.375000e+01
4.375000e+01
4.375000e+01
4.375000e+01
4.375000e+01
4.375000e+01
4.375000e+01
4.375000e+01
4.375000e+01
4.375000e+01
4.375000e+01
4.375000e+01
4.375000e+01
4.375000e+01
4.375000e+01
4.375000e+01
4.375000e+01
4.375000e+01
4.375000e+01
4.375000e+01
4.375000e+01
4.375000e+01
4.375000e+01
4.375000e+01
4.375000e+01
4.375000e+01
4.375000e+01
4.375000e+01
4.375000e+01
4.375000e+01
4.375000e+01
4.375000e+01
4.375000e+01
5.000000e+01
5.000000e+01
5.000000e+01
5.000000e+01
5.000000e+01
5.000000e+01
5.000000e+01
5.000000e+01
5.000000e+01
5.000000e+01
5.000000e+01
5.000000e+01
5.000000e+01
5.000000e+01
5.000000e+01
5.000000e+01
5.000000e+01
5.000000e+01
5.000000e+01
5.000000e+01
5.000000e+01
5.000000e+01
5.000000e+01
5.000000e+01
5.000000e+01
5.000000e+01
5.000000e+01
5.000000e+01
5.000000e+01
5.000000e+01
5.000000e+01
5.000000e+01
5.000000e+01
5.625000e+01
5.625000e+01
5.625000e+01
5.625000e+01
5.625000e+01
5.625000e+01
5.625000e+01
5.625000e+01
5.625000e+01
5.625000e+01
5.625000e+01
5.625000e+01
5.625000e+01
5.625000e+01
5.625000e+01
5.625000e+01
5.625000e+01
5.625000e+01
5.625000e+01
5.625000e+01
5.625000e+01
5.625000e+01
5.625000e+01
5.625000e+01
5.625000e+01
5.625000e+01
5.625000e+01
5.625000e+01
5.625000e+01
5.625000e+01
5.625000e+01
5.625000e+01
5.625000e+01
6.250000e+01
6.250000e+01
6.250000e+01
6.250000e+01
6.250000e+01
6.250000e+01
6.250000e+01
6.250000e+01
6.250000e+01
6.250000e+01
6.250000e+01
6.250000e+01
6.250000e+01
6.250000e+01
6.250000e+01
6.250000e+01
6.250000e+01
6.250000e+01
6.250000e+01
6.250000e+01
6.250000e+01
6.250000e+01
6.250000e+01
6.250000e+01
6.250000e+01
6.250000e+01
6.250000e+01
6.250000e+01
6.250000e+01
6.250000e+01
6.250000e+01
6.250000e+01
6.250000e+01
6.875000e+01
6.875000e+01
6.875000e+01
6.875000e+01
6.875000e+01
6.875000e+01
6.875000e+01
6.875000e+01
6.875000e+01
6.875000e+01
6.875000e+01
6.875000e+01
6.875000e+01
6.875000e+01
6.875000e+01
6.875000e+01
6.875000e+01
6.875000e+01
6.875000e+01
6.875000e+01
6.875000e+01
6.875000e+01
6.875000e+01
6.875000e+01
6.875000e+01
6.875000e+01
6.875000e+01
6.875000e+01
6.875000e+01
6.875000e+01
6.875000e+01
6.875000e+01
6.875000e+01
7.500000e+01
7.500000e+01
7.500000e+01
7.500000e+01
7.500000e+01
7.500000e+01
7.500000e+01
7.500000e+01
7.500000e+01
7.500000e+01
7.500000e+01
7.500000e+01
7.500000e+01
7.500000e+01
7.500000e+01
7.500000e+01
7.500000e+01
7.500000e+01
7.500000e+01
7.500000e+01
7.500000e+01
7.500000e+01
7.500000e+01
7.500000e+01
7.500000e+01
7.500000e+01
7.500000e+01
7.500000e+01
7.500000e+01
7.500000e+01
7.500000e+01
7.500000e+01
7.500000e+01
8.125000e+01
8.125000e+01
8.125000e+01
8.125000e+01
8.125000e+01
8.125000e+01
8.125000e+01
8.125000e+01
8.125000e+01
8.125000e+01
8.125000e+01
8.125000e+01
8.125000e+01
8.125000e+01
8.125000e+01
8.125000e+01
8.125000e+01
8.125000e+01
8.125000e+01
8.125000e+01
8.125000e+01
8.125000e+01
8.125000e+01
8.125000e+01
8.125000e+01
8.125000e+01
8.125000e+01
8.125000e+01
8.125000e+01
8.125000e+01
8.125000e+01
8.125000e+01
8.125000e+01
8.750000e+01
8.750000e+01
8.750000e+01
8.750000e+01
8.750000e+01
8.750000e+01
8.750000e+01
8.750000e+01
8.750000e+01
8.750000e+01
8.750000e+01
8.750000e+01
8.750000e+01
8.750000e+01
8.750000e+01
8.750000e+01
8.750000e+01
8.750000e+01
8.750000e+01
8.750000e+01
8.750000e+01
8.750000e+01
8.750000e+01
8.750000e+01
8.750000e+01
8.750000e+01
8.750000e+01
8.750000e+01
8.750000e+01
8.750000e+01
8.750000e+01
8.750000e+01
8.750000e+01
9.375000e+01
9.375000e+01
9.375000e+01
9.375000e+01
9.375000e+01
9.375000e+01
9.375000e+01
9.375000e+01
9.375000e+01
9.375000e+01
9.375000e+01
9.375000e+01
9.375000e+01
9.375000e+01
9.375000e+01
9.375000e+01
9.375000e+01
9.375000e+01
9.375000e+01
9.375000e+01
9.375000e+01
9.375000e+01
9.375000e+01
9.375000e+01
9.375000e+01
9.375000e+01
9.375000e+01
9.375000e+01
9.375000e+01
9.375000e+01
9.375000e+01
9.375000e+01
9.375000e+01
1.000000e+02
1.000000e+02
1.000000e+02
1.000000e+02
1.000000e+02
1.000000e+02
1.000000e+02
1.000000e+02
1.000000e+02
1.000000e+02
1.000000e+02
1.000000e+02
1.000000e+02
1.000000e+02
1.000000e+02
1.000000e+02
1.000000e+02
1.000000e+02
1.000000e+02
1.000000e+02
1.000000e+02
1.000000e+02
1.000000e+02
1.000000e+02
1.000000e+02
1.000000e+02
1.000000e+02
1.000000e+02
1.000000e+02
1.000000e+02
1.000000e+02
1.000000e+02
1.000000e+02
0.000000e+00
-3.971196e-02
-7.205206e-02
-1.020106e-01
-1.307624e-01
-1.585265e-01
-1.853589e-01
-2.112570e-01
-2.362047e-01
-2.601836e-01
-2.831789e-01
-3.051801e-01
-3.261819e-01
-3.461838e-01
-3.651906e-01
-3.832121e-01
-4.002647e-01
-4.163716e-01
-4.315654e-01
-4.458897e-01
-4.594027e-01
-4.721815e-01
-4.843279e-01
-4.959770e-01
-5.073096e-01
-5.185718e-01
-5.301049e-01
-5.423960e-01
-5.561597e-01
-5.724474e-01
-5.926229e-01
-6.166666e-01
-6.313402e-01
0.000000e+00
-2.662580e-02
-5.539784e-02
-8.252607e-02
-1.083104e-01
-1.329963e-01
-1.567143e-01
-1.795215e-01
-2.014405e-01
-2.224787e-01
-2.426376e-01
-2.619171e-01
-2.803183e-01
-2.978439e-01
-3.145000e-01
-3.302957e-01
-3.452444e-01
-3.593647e-01
-3.726810e-01
-3.852251e-01
-3.970376e-01
-4.081694e-01
-4.186841e-01
-4.286592e-01
-4.381874e-01
-4.473754e-01
-4.563358e-01
-4.651612e-01
-4.738510e-01
-4.821226e-01
-4.890151e-01
-4.930448e-01
-4.986548e-01
0.000000e+00
-2.111965e-02
-4.347988e-02
-6.624614e-02
-8.836791e-02
-1.096744e-01
-1.301521e-01
-1.498204e-01
-1.686966e-01
-1.867926e-01
-2.041162e-01
-2.206727e-01
-2.364667e-01
-2.515029e-01
-2.657869e-01
-2.793255e-01
-2.921277e-01
-3.042043e-01
-3.155691e-01
-3.262381e-01
-3.362301e-01
-3.455653e-01
-3.542635e-01
-3.623403e-01
-3.697987e-01
-3.766148e-01
-3.827108e-01
-3.879071e-01
-3.918524e-01
-3.939768e-01
-3.937905e-01
-3.925976e-01
-3.991485e-01
0.000000e+00
-1.675657e-02
-3.443857e-02
-5.260461e-02
-7.072809e-02
-8.841257e-02
-1.055066e-01
-1.219559e-01
-1.377457e-01
-1.528754e-01
-1.673489e-01
-1.811711e-01
-1.943465e-01
-2.068794e-01
-2.187734e-01
-2.300320e-01
-2.406581e-01
-2.506545e-01
-2.600233e-01
-2.687650e-01
-2.768773e-01
-2.843528e-01
-2.911751e-01
-2.973122e-01
-3.027076e-01
-3.072659e-01
-3.108364e-01
-3.132008e-01
-3.141036e-01
-3.134334e-01
-3.118057e-01
-3.117085e-01
-3.179500e-01
0.000000e+00
-1.300544e-02
-2.663070e-02
-4.069121e-02
-5.486596e-02
-6.886684e-02
-8.250070e-02
-9.566971e-02
-1.083294e-01
-1.204627e-01
-1.320651e-01
-1.431372e-01
-1.536812e-01
-1.636987e-01
-1.731904e-01
-1.821555e-01
-1.905912e-01
-1.984925e-01
-2.058510e-01
-2.126546e-01
-2.188849e-01
-2.245154e-01
-2.295074e-01
-2.338061e-01
-2.373357e-01
-2.399961e-01
-2.416703e-01
-2.422575e-01
-2.417757e-01
-2.405969e-01
-2.398321e-01
-2.415982e-01
-2.469224e-01
0.000000e+00
-9.558239e-03
-1.952599e-02
-2.981397e-02
-4.024442e-02
-5.062264e-02
-6.079405e-02
-7.065818e-02
-8.015989e-02
-8.927236e-02
-9.798427e-02
-1.062916e-01
-1.141930e-01
-1.216871e-01
-1.287709e-01
-1.354395e-01
-1.416849e-01
-1.474958e-01
-1.528563e-01
-1.577456e-01
-1.621361e-01
-1.659921e-01
-1.692688e-01
-1.719109e-01
-1.738560e-01
-1.750428e-01
-1.754365e-01
-1.750832e-01
-1.742123e-01
-1.733837e-01
-1.735854e-01
-1.758369e-01
-1.802424e-01
0.000000e+00
-6.290470e-03
-1.282976e-02
-1.957649e-02
-2.643446e-02
-3.328822e-02
-4.003443e-02
-4.659773e-02
-5.293098e-02
-5.900816e-02
-6.481613e-02
-7.034827e-02
-7.560035e-02
-8.056800e-02
-8.524522e-02
-8.962345e-02
-9.369089e-02
-9.743190e-02
-1.008264e-01
-1.038494e-01
-1.064706e-01
-1.086543e-01
-1.103609e-01
-1.115502e-01
-1.121892e-01
-1.122684e-01
-1.118315e-01
-1.110231e-01
-1.101507e-01
-1.097278e-01
-1.103876e-01
-1.125797e-01
-1.161358e-01
0.000000e+00
-3.124474e-03
-6.367072e-03
-9.711128e-03
-1.311441e-02
-1.652314e-02
-1.988629e-02
-2.316388e-02
-2.632893e-02
-2.936496e-02
-3.226218e-02
-3.501414e-02
-3.761521e-02
-4.005894e-02
-4.233699e-02
-4.443843e-02
-4.634916e-02
-4.805154e-02
-4.952418e-02
-5.074198e-02
-5.167681e-02
-5.229906e-02
-5.258093e-02
-5.250253e-02
-5.206231e-02
-5.129387e-02
-5.029019e-02
-4.923265e-02
-4.841169e-02
-4.820603e-02
-4.898013e-02
-5.089244e-02
-5.371414e-02
0.000000e+00
-5.041026e-06
-1.093038e-05
-1.734181e-05
-2.393806e-05
-3.026443e-05
-3.563563e-05
-3.901027e-05
-3.884420e-05
-3.291384e-05
-1.810311e-05
9.850216e-06
5.664789e-05
1.297582e-04
2.387608e-04
3.956795e-04
6.152511e-04
9.150480e-04
1.315322e-03
1.838366e-03
2.507103e-03
3.342454e-03
4.358909e-03
5.557572e-03
6.915987e-03
8.374649e-03
9.821881e-03
1.108276e-02
1.192445e-02
1.209513e-02
1.140786e-02
9.851396e-03
7.671489e-03
0.000000e+00
3.114980e-03
6.346443e-03
9.678331e-03
1.306903e-02
1.646561e-02
1.981829e-02
2.308905e-02
2.625379e-02
2.930017e-02
3.222427e-02
3.502761e-02
3.771530e-02
4.029493e-02
4.277627e-02
4.517110e-02
4.749325e-02
4.975849e-02
5.198409e-02
5.418784e-02
5.638620e-02
5.859128e-02
6.080622e-02
6.301873e-02
6.519283e-02
6.725993e-02
6.911182e-02
7.060130e-02
7.155833e-02
7.182927e-02
7.133857e-02
7.015620e-02
6.853828e-02
0.000000e+00
6.282714e-03
1.281279e-02
1.954932e-02
2.639657e-02
3.323974e-02
3.997646e-02
4.653292e-02
5.286426e-02
5.894781e-02
6.477513e-02
7.034610e-02
7.566522e-02
8.073965e-02
8.557831e-02
9.019150e-02
9.459077e-02
9.878867e-02
1.027982e-01
1.066318e-01
1.102995e-01
1.138058e-01
1.171460e-01
1.203008e-01
1.232305e-01
1.258703e-01
1.281283e-01
1.298918e-01
1.310461e-01
1.315076e-01
1.312703e-01
1.304522e-01
1.293229e-01
0.000000e+00
9.553291e-03
1.951497e-02
2.979602e-02
4.021893e-02
5.058937e-02
6.075334e-02
7.061132e-02
8.010960e-02
8.922344e-02
9.794453e-02
1.062731e-01
1.142133e-01
1.217714e-01
1.289545e-01
1.357703e-01
1.422266e-01
1.483319e-01
1.540938e-01
1.595190e-01
1.646113e-01
1.693696e-01
1.737846e-01
1.778356e-01
1.814865e-01
1.846846e-01
1.873608e-01
1.894378e-01
1.908463e-01
1.915520e-01
1.915918e-01
1.911118e-01
1.903982e-01
0.000000e+00
1.300421e-02
2.662763e-02
4.068571e-02
5.485745e-02
6.885485e-02
8.248491e-02
9.565010e-02
1.083064e-01
1.204373e-01
1.320392e-01
1.431142e-01
1.536663e-01
1.636999e-01
1.732191e-01
1.822280e-01
1.907297e-01
1.987273e-01
2.062226e-01
2.132159e-01
2.197051e-01
2.256843e-01
2.311420e-01
2.360592e-01
2.404085e-01
2.441532e-01
2.472505e-01
2.496577e-01
2.513447e-01
2.523140e-01
2.526284e-01
2.524482e-01
2.520722e-01
0.000000e+00
1.675968e-02
3.444490e-02
5.261403e-02
7.074032e-02
8.842727e-02
1.055233e-01
1.219737e-01
1.377633e-01
1.528906e-01
1.673585e-01
1.811701e-01
1.943282e-01
2.068342e-01
2.186882e-01
2.298894e-01
2.404357e-01
2.503235e-01
2.595480e-01
2.681026e-01
2.759788e-01
2.831655e-01
2.896492e-01
2.954133e-01
3.004396e-01
3.047093e-01
3.082062e-01
3.109226e-01
3.128667e-01
3.140748e-01
3.146305e-01
3.146968e-01
3.145721e-01
0.000000e+00
2.112725e-02
4.349610e-02
6.627155e-02
8.840297e-02
1.097196e-01
1.302074e-01
1.498852e-01
1.687691e-01
1.868691e-01
2.041900e-01
2.207334e-01
2.364979e-01
2.514807e-01
2.656771e-01
2.790806e-01
2.916830e-01
3.034740e-01
3.144411e-01
3.245697e-01
3.338432e-01
3.422436e-01
3.497525e-01
3.563533e-01
3.620333e-01
3.667882e-01
3.706267e-01
3.735757e-01
3.756863e-01
3.770381e-01
3.777456e-01
3.779761e-01
3.780036e-01
0.000000e+00
2.663720e-02
5.542276e-02
8.256616e-02
1.083676e-01
1.330727e-01
1.568114e-01
1.796402e-01
2.015804e-01
2.226371e-01
2.428078e-01
2.620871e-01
2.804677e-01
2.979411e-01
3.144974e-01
3.301249e-01
3.448092e-01
3.585332e-01
3.712762e-01
3.830141e-01
3.937199e-01
4.033648e-01
4.119203e-01
4.193618e-01
4.256739e-01
4.308570e-01
4.349355e-01
4.379668e-01
4.400492e-01
4.413252e-01
4.419771e-01
4.422134e-01
4.422713e-01
0.000000e+00
3.972444e-02
7.208120e-02
1.020605e-01
1.308371e-01
1.586301e-01
1.854956e-01
2.114309e-01
2.364188e-01
2.604393e-01
2.834740e-01
3.055068e-01
3.265235e-01
3.465108e-01
3.654547e-01
3.833394e-01
4.001458e-01
4.158506e-01
4.304250e-01
4.438345e-01
4.560388e-01
4.669928e-01
4.766497e-01
4.849652e-01
4.919048e-01
4.974546e-01
5.016344e-01
5.045138e-01
5.062301e-01
5.070034e-01
5.071440e-01
5.070275e-01
5.069620e-01
0.000000e+00
-2.454123e-02
-4.282974e-02
-6.278691e-02
-8.501041e-02
-1.101141e-01
-1.382723e-01
-1.695342e-01
-2.038684e-01
-2.412015e-01
-2.814345e-01
-3.244534e-01
-3.701357e-01
-4.183534e-01
-4.689762e-01
-5.218727e-01
-5.769125e-01
-6.339671e-01
-6.929128e-01
-7.536329e-01
-8.160215e-01
-8.799899e-01
-9.454744e-01
-1.012450e+00
-1.080950e+00
-1.151101e+00
-1.223182e+00
-1.297737e+00
-1.375808e+00
-1.459454e+00
-1.553122e+00
-1.667303e+00
-1.825048e+00
0.000000e+00
-1.525144e-02
-3.439469e-02
-5.448649e-02
-7.701974e-02
-1.023961e-01
-1.308280e-01
-1.623635e-01
-1.969741e-01
-2.345862e-01
-2.751003e-01
-3.184017e-01
-3.643666e-01
-4.128661e-01
-4.637685e-01
-5.169413e-01
-5.722522e-01
-6.295711e-01
-6.887718e-01
-7.497345e-01
-8.123498e-01
-8.765244e-01
-9.421889e-01
-1.009311e+00
-1.077914e+00
-1.148114e+00
-1.220176e+00
-1.294626e+00
-1.372483e+00
-1.455774e+00
-1.548719e+00
-1.660359e+00
-1.807733e+00
0.000000e+00
-1.120306e-02
-2.772883e-02
-4.754655e-02
-7.011917e-02
-9.568255e-02
-1.243388e-01
-1.561146e-01
-1.909717e-01
-2.288330e-01
-2.695973e-01
-3.131490e-01
-3.593637e-01
-4.081120e-01
-4.592618e-01
-5.126800e-01
-5.682339e-01
-6.257924e-01
-6.852285e-01
-7.464215e-01
-8.092612e-01
-8.736532e-01
-9.395280e-01
-1.006854e+00
-1.075659e+00
-1.146063e+00
-1.218345e+00
-1.293042e+00
-1.371164e+00
-1.454533e+00
-1.546269e+00
-1.650055e+00
-1.765184e+00
0.000000e+00
-8.970936e-03
-2.348073e-02
-4.224166e-02
-6.452419e-02
-9.007963e-02
-1.188585e-01
-1.508123e-01
-1.858723e-01
-2.239471e-01
-2.649292e-01
-3.087000e-01
-3.551342e-01
-4.041021e-01
-4.554717e-01
-5.091103e-01
-5.648855e-01
-6.226668e-01
-6.823279e-01
-7.437491e-01
-8.068215e-01
-8.714532e-01
-9.375780e-01
-1.005170e+00
-1.074262e+00
-1.144982e+00
-1.217604e+00
-1.292625e+00
-1.370869e+00
-1.453539e+00
-1.541786e+00
-1.634859e+00
-1.721501e+00
0.000000e+00
-7.590887e-03
-2.070262e-02
-3.847457e-02
-6.024915e-02
-8.563704e-02
-1.144267e-01
-1.464844e-01
-1.816941e-01
-2.199409e-01
-2.611052e-01
-3.050628e-01
-3.516862e-01
-4.008453e-01
-4.524087e-01
-5.062446e-01
-5.622218e-01
-6.202115e-01
-6.800889e-01
-7.417363e-01
-8.050475e-01
-8.699331e-01
-9.363300e-01
-1.004213e+00
-1.073614e+00
-1.144645e+00
-1.217529e+00
-1.292623e+00
-1.370403e+00
-1.451249e+00
-1.534775e+00
-1.617917e+00
-1.693372e+00
0.000000e+00
-6.712749e-03
-1.887983e-02
-3.588221e-02
-5.716664e-02
-8.231672e-02
-1.110438e-01
-1.431425e-01
-1.784509e-01
-2.168265e-01
-2.581351e-01
-3.022451e-01
-3.490260e-01
-3.983470e-01
-4.500773e-01
-5.040864e-01
-5.602450e-01
-6.184260e-01
-6.785068e-01
-7.403714e-01
-8.039152e-01
-8.690493e-01
-9.357087e-01
-1.003861e+00
-1.073518e+00
-1.144748e+00
-1.217675e+00
-1.292458e+00
-1.369182e+00
-1.447590e+00
-1.526485e+00
-1.603051e+00
-1.673031e+00
0.000000e+00
-6.166997e-03
-1.772738e-02
-3.419713e-02
-5.510159e-02
-8.003494e-02
-1.086767e-01
-1.407794e-01
-1.761461e-01
-2.146109e-01
-2.560259e-01
-3.002524e-01
-3.471568e-01
-3.966078e-01
-4.484754e-01
-5.026306e-01
-5.589457e-01
-6.172955e-01
-6.775587e-01
-7.396201e-01
-8.033742e-01
-8.687286e-01
-9.356093e-01
-1.003966e+00
-1.073775e+00
-1.145038e+00
-1.217761e+00
-1.291902e+00
-1.367248e+00
-1.443185e+00
-1.518399e+00
-1.590722e+00
-1.657497e+00
0.000000e+00
-5.867098e-03
-1.708790e-02
-3.324755e-02
-5.391746e-02
-7.870582e-02
-1.072819e-01
-1.393775e-01
-1.747757e-01
-2.132957e-01
-2.547803e-01
-2.990862e-01
-3.460780e-01
-3.956241e-01
-4.475957e-01
-5.018651e-01
-5.583062e-01
-6.167948e-01
-6.772101e-01
-7.394358e-01
-8.033623e-01
-8.688894e-01
-9.359278e-01
-1.004400e+00
-1.074238e+00
-1.145369e+00
-1.217689e+00
-1.291001e+00
-1.364913e+00
-1.438698e+00
-1.511172e+00
-1.580703e+00
-1.645478e+00
0.000000e+00
-5.770471e-03
-1.688159e-02
-3.293978e-02
-5.353154e-02
-7.827082e-02
-1.068250e-01
-1.389201e-01
-1.743332e-01
-2.128790e-01
-2.543976e-01
-2.987448e-01
-3.457851e-01
-3.953883e-01
-4.474263e-01
-5.017731e-01
-5.583034e-01
-6.168935e-01
-6.774216e-01
-7.397684e-01
-8.038178e-01
-8.694576e-01
-9.365791e-01
-1.005074e+00
-1.074826e+00
-1.145697e+00
-1.217493e+00
-1.289921e+00
-1.362511e+00
-1.434548e+00
-1.505030e+00
-1.572712e+00
-1.636266e+00
0.000000e+00
-5.864303e-03
-1.708403e-02
-3.324421e-02
-5.391645e-02
-7.870937e-02
-1.072929e-01
-1.393999e-01
-1.748146e-01
-2.133578e-01
-2.548744e-01
-2.992231e-01
-3.462712e-01
-3.958899e-01
-4.479530e-01
-5.023354e-01
-5.589126e-01
-6.175603e-01
-6.781546e-01
-7.405716e-01
-8.046870e-01
-8.703747e-01
-9.375045e-01
-1.005937e+00
-1.075513e+00
-1.146041e+00
-1.217267e+00
-1.288844e+00
-1.360290e+00
-1.430955e+00
-1.500013e+00
-1.566499e+00
-1.629401e+00
0.000000e+00
-6.161633e-03
-1.771993e-02
-3.419069e-02
-5.509957e-02
-8.004160e-02
-1.086977e-01
-1.408221e-01
-1.762204e-01
-2.147298e-01
-2.562059e-01
-3.005146e-01
-3.475271e-01
-3.971174e-01
-4.491609e-01
-5.035333e-01
-5.601102e-01
-6.187662e-01
-6.793748e-01
-7.418066e-01
-8.059282e-01
-8.715995e-01
-9.386697e-01
-1.006971e+00
-1.076310e+00
-1.146454e+00
-1.217113e+00
-1.287920e+00
-1.358413e+00
-1.428022e+00
-1.496078e+00
-1.561840e+00
-1.624527e+00
0.000000e+00
-6.705294e-03
-1.886948e-02
-3.587322e-02
-5.716373e-02
-8.232583e-02
-1.110728e-01
-1.432018e-01
-1.785543e-01
-2.169923e-01
-2.583864e-01
-3.026114e-01
-3.495436e-01
-3.990597e-01
-4.510365e-01
-5.053503e-01
-5.618764e-01
-6.204881e-01
-6.810556e-01
-7.434444e-01
-8.075124e-01
-8.731067e-01
-9.400586e-01
-1.008178e+00
-1.077243e+00
-1.146995e+00
-1.217123e+00
-1.287258e+00
-1.356972e+00
-1.425775e+00
-1.493141e+00
-1.558516e+00
-1.621332e+00
0.000000e+00
-7.582105e-03
-2.069044e-02
-3.846397e-02
-6.024578e-02
-8.564807e-02
-1.144617e-01
-1.465559e-01
-1.818191e-01
-2.201411e-01
-2.614089e-01
-3.055056e-01
-3.523121e-01
-4.017075e-01
-4.535694e-01
-5.077744e-01
-5.641973e-01
-6.227097e-01
-6.831792e-01
-7.454665e-01
-8.094222e-01
-8.748832e-01
-9.416668e-01
-1.009565e+00
-1.078339e+00
-1.147711e+00
-1.217360e+00
-1.286925e+00
-1.356008e+00
-1.424199e+00
-1.491090e+00
-1.556309e+00
-1.619504e+00
0.000000e+00
-8.961910e-03
-2.346823e-02
-4.223089e-02
-6.452130e-02
-9.009259e-02
-1.188979e-01
-1.508922e-01
-1.860112e-01
-2.241693e-01
-2.652659e-01
-3.091904e-01
-3.558268e-01
-4.050555e-01
-4.567545e-01
-5.108002e-01
-5.670666e-01
-6.254241e-01
-6.857380e-01
-7.478652e-01
-8.116513e-01
-8.769256e-01
-9.434961e-01
-1.011144e+00
-1.079618e+00
-1.148629e+00
-1.217856e+00
-1.286943e+00
-1.355523e+00
-1.423242e+00
-1.489801e+00
-1.554991e+00
-1.618707e+00
0.000000e+00
-1.119520e-02
-2.771788e-02
-4.753746e-02
-7.011831e-02
-9.569832e-02
-1.243823e-01
-1.562005e-01
-1.911193e-01
-2.290675e-01
-2.699508e-01
-3.136620e-01
-3.600860e-01
-4.091037e-01
-4.605930e-01
-5.144299e-01
-5.704874e-01
-6.286349e-01
-6.887360e-01
-7.506451e-01
-8.142045e-01
-8.792392e-01
-9.455521e-01
-1.012919e+00
-1.081082e+00
-1.149750e+00
-1.218602e+00
-1.287290e+00
-1.355468e+00
-1.422824e+00
-1.489133e+00
-1.554329e+00
-1.618568e+00
0.000000e+00
-1.524638e-02
-3.438724e-02
-5.448114e-02
-7.702305e-02
-1.024167e-01
-1.308770e-01
-1.624556e-01
-1.971287e-01
-2.348281e-01
-2.754614e-01
-3.189216e-01
-3.650938e-01
-4.138588e-01
-4.650940e-01
-5.186746e-01
-5.744731e-01
-6.323577e-01
-6.921905e-01
-7.538245e-01
-8.171000e-01
-8.818403e-01
-9.478464e-01
-1.014892e+00
-1.082721e+00
-1.151045e+00
-1.219544e+00
-1.287884e+00
-1.355733e+00
-1.422804e+00
-1.488915e+00
-1.554090e+00
-1.618687e+00
0.000000e+00
-2.454051e-02
-4.282726e-02
-6.278739e-02
-8.502043e-02
-1.101423e-01
-1.383299e-01
-1.696357e-01
-2.040329e-01
-2.414530e-01
-2.818035e-01
-3.249779e-01
-3.708614e-01
-4.193344e-01
-4.702741e-01
-5.235550e-01
-5.790485e-01
-6.366214e-01
-6.961345e-01
-7.574392e-01
-8.203744e-01
-8.847623e-01
-9.504037e-01