TITLE = "Solution"
VARIABLES = x, y, u, v, psiu, psiv, t, stress
ZONE T="structure" N=561 E=512 F=FEBLOCK ET=QUADRILATERAL VARLOCATION=([7,8]=cellcentered)
0.000000e+00
6.250000e+00
1.250000e+01
1.875000e+01
2.500000e+01
3.125000e+01
3.750000e+01
4.375000e+01
5.000000e+01
5.625000e+01
6.250000e+01
6.875000e+01
7.500000e+01
8.125000e+01
8.750000e+01
9.375000e+01
1.000000e+02
1.062500e+02
1.125000e+02
1.187500e+02
1.250000e+02
1.312500e+02
1.375000e+02
1.437500e+02
1.500000e+02
1.562500e+02
1.625000e+02
1.687500e+02
1.750000e+02
1.812500e+02
1.875000e+02
1.937500e+02
2.000000e+02
0.000000e+00
6.250000e+00
1.250000e+01
1.875000e+01
2.500000e+01
3.125000e+01
3.750000e+01
4.375000e+01
5.000000e+01
5.625000e+01
6.250000e+01
6.875000e+01
7.500000e+01
8.125000e+01
8.750000e+01
9.375000e+01
1.000000e+02
1.062500e+02
1.125000e+02
1.187500e+02
1.250000e+02
1.312500e+02
1.375000e+02
1.437500e+02
1.500000e+02
1.562500e+02
1.625000e+02
1.687500e+02
1.750000e+02
1.812500e+02
1.875000e+02
1.937500e+02
2.000000e+02
0.000000e+00
6.250000e+00
1.250000e+01
1.875000e+01
2.500000e+01
3.125000e+01
3.750000e+01
4.375000e+01
5.000000e+01
5.625000e+01
6.250000e+01
6.875000e+01
7.500000e+01
8.125000e+01
8.750000e+01
9.375000e+01
1.000000e+02
1.062500e+02
1.125000e+02
1.187500e+02
1.250000e+02
1.312500e+02
1.375000e+02
1.437500e+02
1.500000e+02
1.562500e+02
1.625000e+02
1.687500e+02
1.750000e+02
1.812500e+02
1.875000e+02
1.937500e+02
2.000000e+02
0.000000e+00
6.250000e+00
1.250000e+01
1.875000e+01
2.500000e+01
3.125000e+01
3.750000e+01
4.375000e+01
5.000000e+01
5.625000e+01
6.250000e+01
6.875000e+01
7.500000e+01
8.125000e+01
8.750000e+01
9.375000e+01
1.000000e+02
1.062500e+02
1.125000e+02
1.187500e+02
1.250000e+02
1.312500e+02
1.375000e+02
1.437500e+02
1.500000e+02
1.562500e+02
1.625000e+02
1.687500e+02
1.750000e+02
1.812500e+02
1.875000e+02
1.937500e+02
2.000000e+02
0.000000e+00
6.250000e+00
1.250000e+01
1.875000e+01
2.500000e+01
3.125000e+01
3.750000e+01
4.375000e+01
5.000000e+01
5.625000e+01
6.250000e+01
6.875000e+01
7.500000e+01
8.125000e+01
8.750000e+01
9.375000e+01
1.000000e+02
1.062500e+02
1.125000e+02
1.187500e+02
1.250000e+02
1.312500e+02
1.375000e+02
1.437500e+02
1.500000e+02
1.562500e+02
1.625000e+02
1.687500e+02
1.750000e+02
1.812500e+02
1.875000e+02
1.937500e+02
2.000000e+02
0.000000e+00
6.250000e+00
1.250000e+01
1.875000e+01
2.500000e+01
3.125000e+01
3.750000e+01
4.375000e+01
5.000000e+01
5.625000e+01
6.250000e+01
6.875000e+01
7.500000e+01
8.125000e+01
8.750000e+01
9.375000e+01
1.000000e+02
1.062500e+02
1.125000e+02
1.187500e+02
1.250000e+02
1.312500e+02
1.375000e+02
1.437500e+02
1.500000e+02
1.562500e+02
1.625000e+02
1.687500e+02
1.750000e+02
1.812500e+02
1.875000e+02
1.937500e+02
2.000000e+02
0.000000e+00
6.250000e+00
1.250000e+01
1.875000e+01
2.500000e+01
3.125000e+01
3.750000e+01
4.375000e+01
5.000000e+01
5.625000e+01
6.250000e+01
6.875000e+01
7.500000e+01
8.125000e+01
8.750000e+01
9.375000e+01
1.000000e+02
1.062500e+02
1.125000e+02
1.187500e+02
1.250000e+02
1.312500e+02
1.375000e+02
1.437500e+02
1.500000e+02
1.562500e+02
1.625000e+02
1.687500e+02
1.750000e+02
1.812500e+02
1.875000e+02
1.937500e+02
2.000000e+02
0.000000e+00
6.250000e+00
1.250000e+01
1.875000e+01
2.500000e+01
3.125000e+01
3.750000e+01
4.375000e+01
5.000000e+01
5.625000e+01
6.250000e+01
6.875000e+01
7.500000e+01
8.125000e+01
8.750000e+01
9.375000e+01
1.000000e+02
1.062500e+02
1.125000e+02
1.187500e+02
1.250000e+02
1.312500e+02
1.375000e+02
1.437500e+02
1.500000e+02
1.562500e+02
1.625000e+02
1.687500e+02
1.750000e+02
1.812500e+02
1.875000e+02
1.937500e+02
2.000000e+02
0.000000e+00
6.250000e+00
1.250000e+01
1.875000e+01
2.500000e+01
3.125000e+01
3.750000e+01
4.375000e+01
5.000000e+01
5.625000e+01
6.250000e+01
6.875000e+01
7.500000e+01
8.125000e+01
8.750000e+01
9.375000e+01
1.000000e+02
1.062500e+02
1.125000e+02
1.187500e+02
1.250000e+02
1.312500e+02
1.375000e+02
1.437500e+02
1.500000e+02
1.562500e+02
1.625000e+02
1.687500e+02
1.750000e+02
1.812500e+02
1.875000e+02
1.937500e+02
2.000000e+02
0.000000e+00
6.250000e+00
1.250000e+01
1.875000e+01
2.500000e+01
3.125000e+01
3.750000e+01
4.375000e+01
5.000000e+01
5.625000e+01
6.250000e+01
6.875000e+01
7.500000e+01
8.125000e+01
8.750000e+01
9.375000e+01
1.000000e+02
1.062500e+02
1.125000e+02
1.187500e+02
1.250000e+02
1.312500e+02
1.375000e+02
1.437500e+02
1.500000e+02
1.562500e+02
1.625000e+02
1.687500e+02
1.750000e+02
1.812500e+02
1.875000e+02
1.937500e+02
2.000000e+02
0.000000e+00
6.250000e+00
1.250000e+01
1.875000e+01
2.500000e+01
3.125000e+01
3.750000e+01
4.375000e+01
5.000000e+01
5.625000e+01
6.250000e+01
6.875000e+01
7.500000e+01
8.125000e+01
8.750000e+01
9.375000e+01
1.000000e+02
1.062500e+02
1.125000e+02
1.187500e+02
1.250000e+02
1.312500e+02
1.375000e+02
1.437500e+02
1.500000e+02
1.562500e+02
1.625000e+02
1.687500e+02
1.750000e+02
1.812500e+02
1.875000e+02
1.937500e+02
2.000000e+02
0.000000e+00
6.250000e+00
1.250000e+01
1.875000e+01
2.500000e+01
3.125000e+01
3.750000e+01
4.375000e+01
5.000000e+01
5.625000e+01
6.250000e+01
6.875000e+01
7.500000e+01
8.125000e+01
8.750000e+01
9.375000e+01
1.000000e+02
1.062500e+02
1.125000e+02
1.187500e+02
1.250000e+02
1.312500e+02
1.375000e+02
1.437500e+02
1.500000e+02
1.562500e+02
1.625000e+02
1.687500e+02
1.750000e+02
1.812500e+02
1.875000e+02
1.937500e+02
2.000000e+02
0.000000e+00
6.250000e+00
1.250000e+01
1.875000e+01
2.500000e+01
3.125000e+01
3.750000e+01
4.375000e+01
5.000000e+01
5.625000e+01
6.250000e+01
6.875000e+01
7.500000e+01
8.125000e+01
8.750000e+01
9.375000e+01
1.000000e+02
1.062500e+02
1.125000e+02
1.187500e+02
1.250000e+02
1.312500e+02
1.375000e+02
1.437500e+02
1.500000e+02
1.562500e+02
1.625000e+02
1.687500e+02
1.750000e+02
1.812500e+02
1.875000e+02
1.937500e+02
2.000000e+02
0.000000e+00
6.250000e+00
1.250000e+01
1.875000e+01
2.500000e+01
3.125000e+01
3.750000e+01
4.375000e+01
5.000000e+01
5.625000e+01
6.250000e+01
6.875000e+01
7.500000e+01
8.125000e+01
8.750000e+01
9.375000e+01
1.000000e+02
1.062500e+02
1.125000e+02
1.187500e+02
1.250000e+02
1.312500e+02
1.375000e+02
1.437500e+02
1.500000e+02
1.562500e+02
1.625000e+02
1.687500e+02
1.750000e+02
1.812500e+02
1.875000e+02
1.937500e+02
2.000000e+02
0.000000e+00
6.250000e+00
1.250000e+01
1.875000e+01
2.500000e+01
3.125000e+01
3.750000e+01
4.375000e+01
5.000000e+01
5.625000e+01
6.250000e+01
6.875000e+01
7.500000e+01
8.125000e+01
8.750000e+01
9.375000e+01
1.000000e+02
1.062500e+02
1.125000e+02
1.187500e+02
1.250000e+02
1.312500e+02
1.375000e+02
1.437500e+02
1.500000e+02
1.562500e+02
1.625000e+02
1.687500e+02
1.750000e+02
1.812500e+02
1.875000e+02
1.937500e+02
2.000000e+02
0.000000e+00
6.250000e+00
1.250000e+01
1.875000e+01
2.500000e+01
3.125000e+01
3.750000e+01
4.375000e+01
5.000000e+01
5.625000e+01
6.250000e+01
6.875000e+01
7.500000e+01
8.125000e+01
8.750000e+01
9.375000e+01
1.000000e+02
1.062500e+02
1.125000e+02
1.187500e+02
1.250000e+02
1.312500e+02
1.375000e+02
1.437500e+02
1.500000e+02
1.562500e+02
1.625000e+02
1.687500e+02
1.750000e+02
1.812500e+02
1.875000e+02
1.937500e+02
2.000000e+02
0.000000e+00
6.250000e+00
1.250000e+01
1.875000e+01
2.500000e+01
3.125000e+01
3.750000e+01
4.375000e+01
5.000000e+01
5.625000e+01
6.250000e+01
6.875000e+01
7.500000e+01
8.125000e+01
8.750000e+01
9.375000e+01
1.000000e+02
1.062500e+02
1.125000e+02
1.187500e+02
1.250000e+02
1.312500e+02
1.375000e+02
1.437500e+02
1.500000e+02
1.562500e+02
1.625000e+02
1.687500e+02
1.750000e+02
1.812500e+02
1.875000e+02
1.937500e+02
2.000000e+02
0.000000e+00
0.000000e+00
0.000000e+00
0.000000e+00
0.000000e+00
0.000000e+00
0.000000e+00
0.000000e+00
0.000000e+00
0.000000e+00
0.000000e+00
0.000000e+00
0.000000e+00
0.000000e+00
0.000000e+00
0.000000e+00
0.000000e+00
0.000000e+00
0.000000e+00
0.000000e+00
0.000000e+00
0.000000e+00
0.000000e+00
0.000000e+00
0.000000e+00
0.000000e+00
0.000000e+00
0.000000e+00
0.000000e+00
0.000000e+00
0.000000e+00
0.000000e+00
0.000000e+00
6.250000e+00
6.250000e+00
6.250000e+00
6.250000e+00
6.250000e+00
6.250000e+00
6.250000e+00
6.250000e+00
6.250000e+00
6.250000e+00
6.250000e+00
6.250000e+00
6.250000e+00
6.250000e+00
6.250000e+00
6.250000e+00
6.250000e+00
6.250000e+00
6.250000e+00
6.250000e+00
6.250000e+00
6.250000e+00
6.250000e+00
6.250000e+00
6.250000e+00
6.250000e+00
6.250000e+00
6.250000e+00
6.250000e+00
6.250000e+00
6.250000e+00
6.250000e+00
6.250000e+00
1.250000e+01
1.250000e+01
1.250000e+01
1.250000e+01
1.250000e+01
1.250000e+01
1.250000e+01
1.250000e+01
1.250000e+01
1.250000e+01
1.250000e+01
1.250000e+01
1.250000e+01
1.250000e+01
1.250000e+01
1.250000e+01
1.250000e+01
1.250000e+01
1.250000e+01
1.250000e+01
1.250000e+01
1.250000e+01
1.250000e+01
1.250000e+01
1.250000e+01
1.250000e+01
1.250000e+01
1.250000e+01
1.250000e+01
1.250000e+01
1.250000e+01
1.250000e+01
1.250000e+01
1.875000e+01
1.875000e+01
1.875000e+01
1.875000e+01
1.875000e+01
1.875000e+01
1.875000e+01
1.875000e+01
1.875000e+01
1.875000e+01
1.875000e+01
1.875000e+01
1.875000e+01
1.875000e+01
1.875000e+01
1.875000e+01
1.875000e+01
1.875000e+01
1.875000e+01
1.875000e+01
1.875000e+01
1.875000e+01
1.875000e+01
1.875000e+01
1.875000e+01
1.875000e+01
1.875000e+01
1.875000e+01
1.875000e+01
1.875000e+01
1.875000e+01
1.875000e+01
1.875000e+01
2.500000e+01
2.500000e+01
2.500000e+01
2.500000e+01
2.500000e+01
2.500000e+01
2.500000e+01
2.500000e+01
2.500000e+01
2.500000e+01
2.500000e+01
2.500000e+01
2.500000e+01
2.500000e+01
2.500000e+01
2.500000e+01
2.500000e+01
2.500000e+01
2.500000e+01
2.500000e+01
2.500000e+01
2.500000e+01
2.500000e+01
2.500000e+01
2.500000e+01
2.500000e+01
2.500000e+01
2.500000e+01
2.500000e+01
2.500000e+01
2.500000e+01
2.500000e+01
2.500000e+01
3.125000e+01
3.125000e+01
3.125000e+01
3.125000e+01
3.125000e+01
3.125000e+01
3.125000e+01
3.125000e+01
3.125000e+01
3.125000e+01
3.125000e+01
3.125000e+01
3.125000e+01
3.125000e+01
3.125000e+01
3.125000e+01
3.125000e+01
3.125000e+01
3.125000e+01
3.125000e+01
3.125000e+01
3.125000e+01
3.125000e+01
3.125000e+01
3.125000e+01
3.125000e+01
3.125000e+01
3.125000e+01
3.125000e+01
3.125000e+01
3.125000e+01
3.125000e+01
3.125000e+01
3.750000e+01
3.750000e+01
3.750000e+01
3.750000e+01
3.750000e+01
3.750000e+01
3.750000e+01
3.750000e+01
3.750000e+01
3.750000e+01
3.750000e+01
3.750000e+01
3.750000e+01
3.750000e+01
3.750000e+01
3.750000e+01
3.750000e+01
3.750000e+01
3.750000e+01
3.750000e+01
3.750000e+01
3.750000e+01
3.750000e+01
3.750000e+01
3.750000e+01
3.750000e+01
3.750000e+01
3.750000e+01
3.750000e+01
3.750000e+01
3.750000e+01
3.750000e+01
3.750000e+01
4.375000e+01
4.375000e+01
4.375000e+01
4.375000e+01
4.375000e+01
4.375000e+01
4.375000e+01
4.375000e+01
4.375000e+01
4.375000e+01
4.375000e+01
4.375000e+01
4.375000e+01
4.375000e+01
4.375000e+01
4.375000e+01
4.375000e+01
4.375000e+01
4.375000e+01
4.375000e+01
4.375000e+01
4.375000e+01
4.375000e+01
4.375000e+01
4.375000e+01
4.375000e+01
4.375000e+01
4.375000e+01
4.375000e+01
4.375000e+01
4.375000e+01
4.375000e+01
4.375000e+01
5.000000e+01
5.000000e+01
5.000000e+01
5.000000e+01
5.000000e+01
5.000000e+01
5.000000e+01
5.000000e+01
5.000000e+01
5.000000e+01
5.000000e+01
5.000000e+01
5.000000e+01
5.000000e+01
5.000000e+01
5.000000e+01
5.000000e+01
5.000000e+01
5.000000e+01
5.000000e+01
5.000000e+01
5.000000e+01
5.000000e+01
5.000000e+01
5.000000e+01
5.000000e+01
5.000000e+01
5.000000e+01
5.000000e+01
5.000000e+01
5.000000e+01
5.000000e+01
5.000000e+01
5.625000e+01
5.625000e+01
5.625000e+01
5.625000e+01
5.625000e+01
5.625000e+01
5.625000e+01
5.625000e+01
5.625000e+01
5.625000e+01
5.625000e+01
5.625000e+01
5.625000e+01
5.625000e+01
5.625000e+01
5.625000e+01
5.625000e+01
5.625000e+01
5.625000e+01
5.625000e+01
5.625000e+01
5.625000e+01
5.625000e+01
5.625000e+01
5.625000e+01
5.625000e+01
5.625000e+01
5.625000e+01
5.625000e+01
5.625000e+01
5.625000e+01
5.625000e+01
5.625000e+01
6.250000e+01
6.250000e+01
6.250000e+01
6.250000e+01
6.250000e+01
6.250000e+01
6.250000e+01
6.250000e+01
6.250000e+01
6.250000e+01
6.250000e+01
6.250000e+01
6.250000e+01
6.250000e+01
6.250000e+01
6.250000e+01
6.250000e+01
6.250000e+01
6.250000e+01
6.250000e+01
6.250000e+01
6.250000e+01
6.250000e+01
6.250000e+01
6.250000e+01
6.250000e+01
6.250000e+01
6.250000e+01
6.250000e+01
6.250000e+01
6.250000e+01
6.250000e+01
6.250000e+01
6.875000e+01
6.875000e+01
6.875000e+01
6.875000e+01
6.875000e+01
6.875000e+01
6.875000e+01
6.875000e+01
6.875000e+01
6.875000e+01
6.875000e+01
6.875000e+01
6.875000e+01
6.875000e+01
6.875000e+01
6.875000e+01
6.875000e+01
6.875000e+01
6.875000e+01
6.875000e+01
6.875000e+01
6.875000e+01
6.875000e+01
6.875000e+01
6.875000e+01
6.875000e+01
6.875000e+01
6.875000e+01
6.875000e+01
6.875000e+01
6.875000e+01
6.875000e+01
6.875000e+01
7.500000e+01
7.500000e+01
7.500000e+01
7.500000e+01
7.500000e+01
7.500000e+01
7.500000e+01
7.500000e+01
7.500000e+01
7.500000e+01
7.500000e+01
7.500000e+01
7.500000e+01
7.500000e+01
7.500000e+01
7.500000e+01
7.500000e+01
7.500000e+01
7.500000e+01
7.500000e+01
7.500000e+01
7.500000e+01
7.500000e+01
7.500000e+01
7.500000e+01
7.500000e+01
7.500000e+01
7.500000e+01
7.500000e+01
7.500000e+01
7.500000e+01
7.500000e+01
7.500000e+01
8.125000e+01
8.125000e+01
8.125000e+01
8.125000e+01
8.125000e+01
8.125000e+01
8.125000e+01
8.125000e+01
8.125000e+01
8.125000e+01
8.125000e+01
8.125000e+01
8.125000e+01
8.125000e+01
8.125000e+01
8.125000e+01
8.125000e+01
8.125000e+01
8.125000e+01
8.125000e+01
8.125000e+01
8.125000e+01
8.125000e+01
8.125000e+01
8.125000e+01
8.125000e+01
8.125000e+01
8.125000e+01
8.125000e+01
8.125000e+01
8.125000e+01
8.125000e+01
8.125000e+01
8.750000e+01
8.750000e+01
8.750000e+01
8.750000e+01
8.750000e+01
8.750000e+01
8.750000e+01
8.750000e+01
8.750000e+01
8.750000e+01
8.750000e+01
8.750000e+01
8.750000e+01
8.750000e+01
8.750000e+01
8.750000e+01
8.750000e+01
8.750000e+01
8.750000e+01
8.750000e+01
8.750000e+01
8.750000e+01
8.750000e+01
8.750000e+01
8.750000e+01
8.750000e+01
8.750000e+01
8.750000e+01
8.750000e+01
8.750000e+01
8.750000e+01
8.750000e+01
8.750000e+01
9.375000e+01
9.375000e+01
9.375000e+01
9.375000e+01
9.375000e+01
9.375000e+01
9.375000e+01
9.375000e+01
9.375000e+01
9.375000e+01
9.375000e+01
9.375000e+01
9.375000e+01
9.375000e+01
9.375000e+01
9.375000e+01
9.375000e+01
9.375000e+01
9.375000e+01
9.375000e+01
9.375000e+01
9.375000e+01
9.375000e+01
9.375000e+01
9.375000e+01
9.375000e+01
9.375000e+01
9.375000e+01
9.375000e+01
9.375000e+01
9.375000e+01
9.375000e+01
9.375000e+01
1.000000e+02
1.000000e+02
1.000000e+02
1.000000e+02
1.000000e+02
1.000000e+02
1.000000e+02
1.000000e+02
1.000000e+02
1.000000e+02
1.000000e+02
1.000000e+02
1.000000e+02
1.000000e+02
1.000000e+02
1.000000e+02
1.000000e+02
1.000000e+02
1.000000e+02
1.000000e+02
1.000000e+02
1.000000e+02
1.000000e+02
1.000000e+02
1.000000e+02
1.000000e+02
1.000000e+02
1.000000e+02
1.000000e+02
1.000000e+02
1.000000e+02
1.000000e+02
1.000000e+02
0.000000e+00
-4.723048e-01
-7.827718e-01
-1.122790e+00
-1.424392e+00
-1.716358e+00
-2.028264e+00
-2.315612e+00
-2.615224e+00
-2.908822e+00
-3.205850e+00
-3.505054e+00
-3.804449e+00
-4.104077e+00
-4.404086e+00
-4.705157e+00
-5.007795e+00
-5.311248e+00
-5.613885e+00
-5.916350e+00
-6.218520e+00
-6.520374e+00
-6.822661e+00
-7.120042e+00
-7.413286e+00
-7.718205e+00
-8.017409e+00
-8.348523e+00
-8.667437e+00
-9.020694e+00
-9.509919e+00
-9.926359e+00
-1.013046e+01
0.000000e+00
-2.335280e-01
-4.702409e-01
-7.357555e-01
-1.001731e+00
-1.254475e+00
-1.524367e+00
-1.784653e+00
-2.047164e+00
-2.312174e+00
-2.572660e+00
-2.837786e+00
-3.098181e+00
-3.362078e+00
-3.623436e+00
-3.885707e+00
-4.148233e+00
-4.408775e+00
-4.671786e+00
-4.931743e+00
-5.194163e+00
-5.454366e+00
-5.715929e+00
-5.976147e+00
-6.237337e+00
-6.498412e+00
-6.757865e+00
-7.022081e+00
-7.276358e+00
-7.533191e+00
-7.787708e+00
-7.888879e+00
-7.994696e+00
0.000000e+00
-1.027820e-01
-2.377014e-01
-4.342054e-01
-6.529558e-01
-8.602468e-01
-1.086038e+00
-1.313626e+00
-1.540989e+00
-1.772705e+00
-1.996671e+00
-2.223812e+00
-2.445950e+00
-2.671201e+00
-2.894904e+00
-3.117513e+00
-3.339910e+00
-3.560168e+00
-3.783716e+00
-4.005834e+00
-4.230793e+00
-4.454070e+00
-4.678501e+00
-4.907732e+00
-5.137850e+00
-5.360815e+00
-5.573095e+00
-5.770420e+00
-5.949954e+00
-6.098913e+00
-6.186605e+00
-6.192240e+00
-6.285124e+00
0.000000e+00
-1.024624e-01
-1.858870e-01
-3.413476e-01
-4.643491e-01
-6.189426e-01
-7.959489e-01
-9.656145e-01
-1.159074e+00
-1.336733e+00
-1.521738e+00
-1.704346e+00
-1.886064e+00
-2.071926e+00
-2.255972e+00
-2.441499e+00
-2.626297e+00
-2.813013e+00
-3.002740e+00
-3.194146e+00
-3.388254e+00
-3.581816e+00
-3.776419e+00
-3.971713e+00
-4.157748e+00
-4.331739e+00
-4.481028e+00
-4.613304e+00
-4.714139e+00
-4.777630e+00
-4.792766e+00
-4.810133e+00
-4.890576e+00
0.000000e+00
-9.306152e-02
-1.846522e-01
-2.756517e-01
-3.892291e-01
-5.049413e-01
-6.371829e-01
-7.715780e-01
-9.166445e-01
-1.057637e+00
-1.203863e+00
-1.349205e+00
-1.492620e+00
-1.642134e+00
-1.785143e+00
-1.935284e+00
-2.080896e+00
-2.230192e+00
-2.379922e+00
-2.528438e+00
-2.679146e+00
-2.825357e+00
-2.970099e+00
-3.107530e+00
-3.235971e+00
-3.350034e+00
-3.446986e+00
-3.520961e+00
-3.569509e+00
-3.593973e+00
-3.597398e+00
-3.627145e+00
-3.698507e+00
0.000000e+00
-7.446050e-02
-1.459591e-01
-2.209903e-01
-3.024747e-01
-3.920628e-01
-4.868647e-01
-5.881442e-01
-6.919037e-01
-7.997754e-01
-9.072280e-01
-1.016039e+00
-1.124798e+00
-1.232814e+00
-1.342237e+00
-1.450240e+00
-1.559552e+00
-1.667589e+00
-1.775396e+00
-1.882001e+00
-1.985992e+00
-2.087014e+00
-2.181914e+00
-2.269588e+00
-2.347218e+00
-2.412891e+00
-2.464243e+00
-2.499101e+00
-2.521710e+00
-2.522124e+00
-2.517362e+00
-2.543779e+00
-2.609612e+00
0.000000e+00
-5.129794e-02
-1.020440e-01
-1.539144e-01
-2.093998e-01
-2.687790e-01
-3.322119e-01
-3.986371e-01
-4.678735e-01
-5.385679e-01
-6.102662e-01
-6.820381e-01
-7.535964e-01
-8.249446e-01
-8.957679e-01
-9.664152e-01
-1.036232e+00
-1.105190e+00
-1.172595e+00
-1.237876e+00
-1.300184e+00
-1.358114e+00
-1.410299e+00
-1.454859e+00
-1.490839e+00
-1.515982e+00
-1.530010e+00
-1.535559e+00
-1.519178e+00
-1.489166e+00
-1.477849e+00
-1.501104e+00
-1.565339e+00
0.000000e+00
-2.704332e-02
-5.393379e-02
-8.140216e-02
-1.101602e-01
-1.406573e-01
-1.727702e-01
-2.063545e-01
-2.409903e-01
-2.763500e-01
-3.118783e-01
-3.472168e-01
-3.820732e-01
-4.162818e-01
-4.498250e-01
-4.825223e-01
-5.141800e-01
-5.443571e-01
-5.727119e-01
-5.987214e-01
-6.217101e-01
-6.408629e-01
-6.549132e-01
-6.629052e-01
-6.632251e-01
-6.566692e-01
-6.408520e-01
-6.022960e-01
-5.525419e-01
-5.009555e-01
-4.738936e-01
-4.969988e-01
-5.639781e-01
0.000000e+00
-1.999508e-03
-4.047270e-03
-6.057033e-03
-7.914478e-03
-9.492606e-03
-1.072901e-02
-1.163316e-02
-1.226040e-02
-1.258891e-02
-1.250925e-02
-1.186080e-02
-1.049588e-02
-8.250202e-03
-4.884368e-03
-3.063408e-04
5.733485e-03
1.368168e-02
2.359476e-02
3.535259e-02
4.959865e-02
6.656087e-02
8.584568e-02
1.102985e-01
1.407857e-01
1.821987e-01
2.427313e-01
3.151504e-01
3.886109e-01
4.395776e-01
4.552905e-01
4.228636e-01
3.427631e-01
0.000000e+00
2.319576e-02
4.616259e-02
6.977670e-02
9.500104e-02
1.225477e-01
1.524573e-01
1.844653e-01
2.180140e-01
2.526607e-01
2.880502e-01
3.240560e-01
3.606486e-01
3.983098e-01
4.375797e-01
4.788094e-01
5.225098e-01
5.683511e-01
6.162692e-01
6.656793e-01
7.154089e-01
7.666276e-01
8.221999e-01
8.816552e-01
9.491788e-01
1.032410e+00
1.122356e+00
1.214055e+00
1.288542e+00
1.332383e+00
1.329250e+00
1.283143e+00
1.220259e+00
0.000000e+00
4.785777e-02
9.517912e-02
1.437248e-01
1.962090e-01
2.533697e-01
3.153546e-01
3.810417e-01
4.496583e-01
5.198578e-01
5.907983e-01
6.615853e-01
7.323429e-01
8.038389e-01
8.772665e-01
9.544622e-01
1.035712e+00
1.119664e+00
1.205279e+00
1.291997e+00
1.381802e+00
1.471230e+00
1.563385e+00
1.666395e+00
1.775098e+00
1.885894e+00
1.995421e+00
2.084196e+00
2.148143e+00
2.174610e+00
2.166987e+00
2.137077e+00
2.092960e+00
0.000000e+00
7.146992e-02
1.402530e-01
2.129695e-01
2.925924e-01
3.811951e-01
4.763909e-01
5.776713e-01
6.821102e-01
7.899836e-01
8.981708e-01
1.006841e+00
1.114892e+00
1.223528e+00
1.333053e+00
1.443247e+00
1.557169e+00
1.674511e+00
1.794276e+00
1.917365e+00
2.045955e+00
2.182400e+00
2.324528e+00
2.466814e+00
2.605054e+00
2.734305e+00
2.846574e+00
2.935497e+00
2.990965e+00
3.018916e+00
3.022408e+00
3.004382e+00
2.976847e+00
0.000000e+00
9.025308e-02
1.792767e-01
2.693679e-01
3.836585e-01
5.028104e-01
6.354122e-01
7.729180e-01
9.168077e-01
1.059884e+00
1.206775e+00
1.353156e+00
1.500349e+00
1.651612e+00
1.802355e+00
1.957457e+00
2.112513e+00
2.272582e+00
2.438372e+00
2.604910e+00
2.774073e+00
2.946154e+00
3.116277e+00
3.280917e+00
3.433932e+00
3.575096e+00
3.696066e+00
3.786845e+00
3.853341e+00
3.892497e+00
3.905413e+00
3.898888e+00
3.884379e+00
0.000000e+00
9.865221e-02
1.795201e-01
3.322718e-01
4.600119e-01
6.233018e-01
8.053603e-01
9.747989e-01
1.168503e+00
1.345496e+00
1.528122e+00
1.708128e+00
1.890938e+00
2.080608e+00
2.274705e+00
2.476480e+00
2.680545e+00
2.886048e+00
3.096310e+00
3.309612e+00
3.519988e+00
3.724841e+00
3.921023e+00
4.105683e+00
4.280392e+00
4.437776e+00
4.573016e+00
4.679930e+00
4.756482e+00
4.804252e+00
4.826448e+00
4.829257e+00
4.824519e+00
0.000000e+00
1.004351e-01
2.311255e-01
4.196099e-01
6.368910e-01
8.474536e-01
1.078812e+00
1.310007e+00
1.540038e+00
1.774624e+00
1.998139e+00
2.223961e+00
2.445694e+00
2.672292e+00
2.900105e+00
3.131650e+00
3.365872e+00
3.597097e+00
3.828552e+00
4.061061e+00
4.295379e+00
4.524268e+00
4.744682e+00
4.965943e+00
5.177042e+00
5.363604e+00
5.513175e+00
5.627857e+00
5.710332e+00
5.763205e+00
5.790896e+00
5.799948e+00
5.801059e+00
0.000000e+00
2.337719e-01
4.715167e-01
7.363565e-01
1.001660e+00
1.253905e+00
1.523060e+00
1.783744e+00
2.045646e+00
2.310322e+00
2.570233e+00
2.834444e+00
3.093793e+00
3.355833e+00
3.615617e+00
3.875258e+00
4.135316e+00
4.392677e+00
4.650540e+00
4.904400e+00
5.159809e+00
5.413132e+00
5.666386e+00
5.924965e+00
6.169090e+00
6.369957e+00
6.527444e+00
6.644242e+00
6.724430e+00
6.773628e+00
6.798767e+00
6.807872e+00
6.810109e+00
0.000000e+00
4.734797e-01
7.901277e-01
1.135516e+00
1.440043e+00
1.729714e+00
2.037743e+00
2.322463e+00
2.619019e+00
2.910027e+00
3.205803e+00
3.505342e+00
3.802865e+00
4.100270e+00
4.393888e+00
4.684932e+00
4.972269e+00
5.261370e+00
5.551885e+00
5.839807e+00
6.127491e+00
6.415461e+00
6.707337e+00
7.000138e+00
7.265782e+00
7.476599e+00
7.634746e+00
7.743608e+00
7.808463e+00
7.837578e+00
7.842670e+00
7.838051e+00
7.835498e+00
0.000000e+00
-2.792442e-01
-5.897095e-01
-9.867543e-01
-1.419204e+00
-1.889031e+00
-2.399478e+00
-2.940568e+00
-3.517168e+00
-4.125163e+00
-4.767032e+00
-5.444938e+00
-6.159313e+00
-6.911878e+00
-7.701191e+00
-8.529065e+00
-9.395325e+00
-1.030182e+01
-1.124836e+01
-1.223452e+01
-1.326077e+01
-1.432675e+01
-1.543410e+01
-1.658125e+01
-1.776589e+01
-1.898958e+01
-2.025671e+01
-2.157785e+01
-2.295955e+01
-2.442229e+01
-2.598307e+01
-2.779107e+01
-3.032833e+01
0.000000e+00
-1.802052e-01
-5.092605e-01
-8.990002e-01
-1.338282e+00
-1.804591e+00
-2.314920e+00
-2.858148e+00
-3.432964e+00
-4.042052e+00
-4.682863e+00
-5.361098e+00
-6.075204e+00
-6.827995e+00
-7.617319e+00
-8.444883e+00
-9.311274e+00
-1.021744e+01
-1.116437e+01
-1.215033e+01
-1.317674e+01
-1.424238e+01
-1.534985e+01
-1.649780e+01
-1.768218e+01
-1.890540e+01
-2.017098e+01
-2.149048e+01
-2.287375e+01
-2.432737e+01
-2.590747e+01
-2.770270e+01
-2.995353e+01
0.000000e+00
-1.593120e-01
-4.501445e-01
-8.425259e-01
-1.271719e+00
-1.735700e+00
-2.244015e+00
-2.785036e+00
-3.361234e+00
-3.969104e+00
-4.611058e+00
-5.289412e+00
-6.003672e+00
-6.756550e+00
-7.546485e+00
-8.374152e+00
-9.241081e+00
-1.014693e+01
-1.109376e+01
-1.207958e+01
-1.310580e+01
-1.417114e+01
-1.527701e+01
-1.642433e+01
-1.760972e+01
-1.883577e+01
-2.010322e+01
-2.142785e+01
-2.281490e+01
-2.428897e+01
-2.591202e+01
-2.759664e+01
-2.934491e+01
0.000000e+00
-2.047459e-01
-4.501969e-01
-8.391658e-01
-1.237078e+00
-1.690014e+00
-2.196806e+00
-2.724713e+00
-3.307473e+00
-3.909462e+00
-4.554548e+00
-5.233196e+00
-5.945725e+00
-6.701334e+00
-7.488947e+00
-8.319592e+00
-9.185091e+00
-1.009131e+01
-1.103780e+01
-1.202231e+01
-1.304951e+01
-1.411351e+01
-1.521851e+01
-1.636556e+01
-1.755335e+01
-1.878567e+01
-2.005924e+01
-2.139105e+01
-2.278682e+01
-2.428055e+01
-2.589617e+01
-2.744590e+01
-2.884507e+01
0.000000e+00
-2.208390e-01
-4.890531e-01
-8.343394e-01
-1.234894e+00
-1.670463e+00
-2.167633e+00
-2.689801e+00
-3.267526e+00
-3.869460e+00
-4.513573e+00
-5.194066e+00
-5.905050e+00
-6.663310e+00
-7.448924e+00
-8.281790e+00
-9.146411e+00
-1.005272e+01
-1.099920e+01
-1.198268e+01
-1.301042e+01
-1.407417e+01
-1.518057e+01
-1.632838e+01
-1.751984e+01
-1.875549e+01
-2.003729e+01
-2.137260e+01
-2.277095e+01
-2.426061e+01
-2.579577e+01
-2.724494e+01
-2.851207e+01
0.000000e+00
-2.277527e-01
-5.055018e-01
-8.403141e-01
-1.228296e+00
-1.663621e+00
-2.145996e+00
-2.670665e+00
-3.237804e+00
-3.842684e+00
-4.484814e+00
-5.164512e+00
-5.879785e+00
-6.633842e+00
-7.424576e+00
-8.253900e+00
-9.121427e+00
-1.002760e+01
-1.097399e+01
-1.195988e+01
-1.298673e+01
-1.405380e+01
-1.516194e+01
-1.631247e+01
-1.750607e+01
-1.874363e+01
-2.002802e+01
-2.136270e+01
-2.275021e+01
-2.419959e+01
-2.564084e+01
-2.700894e+01
-2.821417e+01
0.000000e+00
-2.314442e-01
-5.117193e-01
-8.435169e-01
-1.226214e+00
-1.657508e+00
-2.135251e+00
-2.657167e+00
-3.221197e+00
-3.825034e+00
-4.467273e+00
-5.146919e+00
-5.863754e+00
-6.617867e+00
-7.409546e+00
-8.239259e+00
-9.107468e+00
-1.001493e+01
-1.096222e+01
-1.194994e+01
-1.297844e+01
-1.404799e+01
-1.515899e+01
-1.631166e+01
-1.750658e+01
-1.874439e+01
-2.002487e+01
-2.135624e+01
-2.271128e+01
-2.410942e+01
-2.548614e+01
-2.678655e+01
-2.792843e+01
0.000000e+00
-2.328442e-01
-5.140424e-01
-8.449530e-01
-1.225599e+00
-1.654742e+00
-2.130557e+00
-2.650983e+00
-3.213957e+00
-3.817537e+00
-4.460117e+00
-5.140603e+00
-5.858361e+00
-6.613305e+00
-7.405654e+00
-8.236004e+00
-9.105131e+00
-1.001373e+01
-1.096246e+01
-1.195187e+01
-1.298236e+01
-1.405422e+01
-1.516743e+01
-1.632204e+01
-1.751589e+01
-1.875359e+01
-2.002633e+01
-2.133861e+01
-2.265900e+01
-2.400355e+01
-2.533474e+01
-2.657838e+01
-2.766458e+01
0.000000e+00
-2.331340e-01
-5.146367e-01
-8.455753e-01
-1.226077e+00
-1.655154e+00
-2.131063e+00
-2.651754e+00
-3.215199e+00
-3.819551e+00
-4.463214e+00
-5.144891e+00
-5.863783e+00
-6.619678e+00
-7.412763e+00
-8.243713e+00
-9.113781e+00
-1.002363e+01
-1.097356e+01
-1.196436e+01
-1.299658e+01
-1.406970e+01
-1.518422e+01
-1.633958e+01
-1.753241e+01
-1.876465e+01
-2.002314e+01
-2.130614e+01
-2.260266e+01
-2.389602e+01
-2.516730e+01
-2.633571e+01
-2.732693e+01
0.000000e+00
-2.326805e-01
-5.140984e-01
-8.457083e-01
-1.227664e+00
-1.658688e+00
-2.136692e+00
-2.659381e+00
-3.224664e+00
-3.830778e+00
-4.476188e+00
-5.159426e+00
-5.879522e+00
-6.636534e+00
-7.430568e+00
-8.261870e+00
-9.133158e+00
-1.004430e+01
-1.099525e+01
-1.198612e+01
-1.302003e+01
-1.409290e+01
-1.520576e+01
-1.636300e+01
-1.754862e+01
-1.876876e+01
-2.001017e+01
-2.127012e+01
-2.253741e+01
-2.379405e+01
-2.499909e+01
-2.610031e+01
-2.705928e+01
0.000000e+00
-2.312088e-01
-5.118981e-01
-8.450118e-01
-1.230382e+00
-1.665623e+00
-2.147879e+00
-2.674266e+00
-3.242667e+00
-3.851285e+00
-4.498889e+00
-5.183667e+00
-5.904645e+00
-6.663066e+00
-7.458062e+00
-8.290510e+00
-9.163332e+00
-1.007559e+01
-1.102779e+01
-1.201744e+01
-1.305076e+01
-1.412154e+01
-1.523211e+01
-1.638293e+01
-1.755989e+01
-1.876454e+01
-1.999484e+01
-2.123240e+01
-2.247408e+01
-2.368974e+01
-2.484927e+01
-2.591847e+01
-2.686700e+01
0.000000e+00
-2.275720e-01
-5.059749e-01
-8.425832e-01
-1.234518e+00
-1.676631e+00
-2.165798e+00
-2.697142e+00
-3.270256e+00
-3.881822e+00
-4.531405e+00
-5.217421e+00
-5.938469e+00
-6.698030e+00
-7.494117e+00
-8.329308e+00
-9.203658e+00
-1.011708e+01
-1.106912e+01
-1.205803e+01
-1.308632e+01
-1.415346e+01
-1.525820e+01
-1.639864e+01
-1.756642e+01
-1.876155e+01
-1.997994e+01
-2.120472e+01
-2.241951e+01
-2.360598e+01
-2.473607e+01
-2.578928e+01
-2.674178e+01
0.000000e+00
-2.205714e-01
-4.899430e-01
-8.378106e-01
-1.243070e+00
-1.690539e+00
-2.194778e+00
-2.727319e+00
-3.310143e+00
-3.921833e+00
-4.574111e+00
-5.260608e+00
-5.980950e+00
-6.743466e+00
-7.539791e+00
-8.378831e+00
-9.254071e+00
-1.016653e+01
-1.111710e+01
-1.210267e+01
-1.312573e+01
-1.418735e+01
-1.528397e+01
-1.641476e+01
-1.757535e+01
-1.876693e+01
-1.997960e+01
-2.118969e+01
-2.238465e+01
-2.354582e+01
-2.465731e+01
-2.570353e+01
-2.667077e+01
0.000000e+00
-2.034714e-01
-4.510560e-01
-8.434616e-01
-1.250312e+00
-1.716623e+00
-2.234317e+00
-2.770388e+00
-3.360793e+00
-3.971961e+00
-4.624820e+00
-5.310784e+00
-6.033777e+00
-6.798208e+00
-7.598134e+00
-8.438458e+00
-9.313915e+00
-1.022458e+01
-1.117161e+01
-1.215317e+01
-1.317111e+01
-1.422544e+01
-1.531322e+01
-1.643667e+01
-1.759875e+01
-1.879047e+01
-1.999586e+01
-2.119095e+01
-2.236693e+01
-2.350973e+01
-2.460770e+01
-2.565254e+01
-2.664003e+01
0.000000e+00
-1.564785e-01
-4.489187e-01
-8.464469e-01
-1.287889e+00
-1.765797e+00
-2.286091e+00
-2.835508e+00
-3.419853e+00
-4.035182e+00
-4.683923e+00
-5.370850e+00
-6.095717e+00
-6.861106e+00
-7.664240e+00
-8.504354e+00
-9.379685e+00
-1.028846e+01
-1.123306e+01
-1.221196e+01
-1.322558e+01
-1.427328e+01
-1.535394e+01
-1.647839e+01
-1.764338e+01
-1.883225e+01
-2.002327e+01
-2.120497e+01
-2.236553e+01
-2.349410e+01
-2.458211e+01
-2.562698e+01
-2.663482e+01
0.000000e+00
-1.768332e-01
-5.069966e-01
-9.032751e-01
-1.355372e+00
-1.836074e+00
-2.358060e+00
-2.910494e+00
-3.493029e+00
-4.108986e+00
-4.756251e+00
-5.443163e+00
-6.168264e+00
-6.934117e+00
-7.737631e+00
-8.577905e+00
-9.452265e+00
-1.035940e+01
-1.130278e+01
-1.228024e+01
-1.329216e+01
-1.433662e+01
-1.541789e+01
-1.654370e+01
-1.770527e+01
-1.888161e+01
-2.005935e+01
-2.122799e+01
-2.237613e+01
-2.349358e+01
-2.457381e+01
-2.561778e+01
-2.663950e+01
0.000000e+00
-2.767008e-01
-5.885879e-01
-9.918730e-01
-1.436453e+00
-1.919913e+00
-2.442201e+00
-2.992700e+00
-3.576944e+00
-4.191800e+00
-4.840428e+00
-5.526980e+00
-6.252035e+00
-7.017467e+00
-7.820293e+00
-8.660085e+00
-9.533480e+00
-1.044070e+01
-1.138315e+01
-1.236009e+01
-1.337160e+01
-1.441620e+01