TITLE = "Solution"
VARIABLES = x, y, u, v, psiu, psiv, t, stress
ZONE T="structure" N=561 E=512 F=FEBLOCK ET=QUADRILATERAL VARLOCATION=([7,8]=cellcentered)
0.000000e+00
6.250000e+00
1.250000e+01
1.875000e+01
2.500000e+01
3.125000e+01
3.750000e+01
4.375000e+01
5.000000e+01
5.625000e+01
6.250000e+01
6.875000e+01
7.500000e+01
8.125000e+01
8.750000e+01
9.375000e+01
1.000000e+02
1.062500e+02
1.125000e+02
1.187500e+02
1.250000e+02
1.312500e+02
1.375000e+02
1.437500e+02
1.500000e+02
1.562500e+02
1.625000e+02
1.687500e+02
1.750000e+02
1.812500e+02
1.875000e+02
1.937500e+02
2.000000e+02
0.000000e+00
6.250000e+00
1.250000e+01
1.875000e+01
2.500000e+01
3.125000e+01
3.750000e+01
4.375000e+01
5.000000e+01
5.625000e+01
6.250000e+01
6.875000e+01
7.500000e+01
8.125000e+01
8.750000e+01
9.375000e+01
1.000000e+02
1.062500e+02
1.125000e+02
1.187500e+02
1.250000e+02
1.312500e+02
1.375000e+02
1.437500e+02
1.500000e+02
1.562500e+02
1.625000e+02
1.687500e+02
1.750000e+02
1.812500e+02
1.875000e+02
1.937500e+02
2.000000e+02
0.000000e+00
6.250000e+00
1.250000e+01
1.875000e+01
2.500000e+01
3.125000e+01
3.750000e+01
4.375000e+01
5.000000e+01
5.625000e+01
6.250000e+01
6.875000e+01
7.500000e+01
8.125000e+01
8.750000e+01
9.375000e+01
1.000000e+02
1.062500e+02
1.125000e+02
1.187500e+02
1.250000e+02
1.312500e+02
1.375000e+02
1.437500e+02
1.500000e+02
1.562500e+02
1.625000e+02
1.687500e+02
1.750000e+02
1.812500e+02
1.875000e+02
1.937500e+02
2.000000e+02
0.000000e+00
6.250000e+00
1.250000e+01
1.875000e+01
2.500000e+01
3.125000e+01
3.750000e+01
4.375000e+01
5.000000e+01
5.625000e+01
6.250000e+01
6.875000e+01
7.500000e+01
8.125000e+01
8.750000e+01
9.375000e+01
1.000000e+02
1.062500e+02
1.125000e+02
1.187500e+02
1.250000e+02
1.312500e+02
1.375000e+02
1.437500e+02
1.500000e+02
1.562500e+02
1.625000e+02
1.687500e+02
1.750000e+02
1.812500e+02
1.875000e+02
1.937500e+02
2.000000e+02
0.000000e+00
6.250000e+00
1.250000e+01
1.875000e+01
2.500000e+01
3.125000e+01
3.750000e+01
4.375000e+01
5.000000e+01
5.625000e+01
6.250000e+01
6.875000e+01
7.500000e+01
8.125000e+01
8.750000e+01
9.375000e+01
1.000000e+02
1.062500e+02
1.125000e+02
1.187500e+02
1.250000e+02
1.312500e+02
1.375000e+02
1.437500e+02
1.500000e+02
1.562500e+02
1.625000e+02
1.687500e+02
1.750000e+02
1.812500e+02
1.875000e+02
1.937500e+02
2.000000e+02
0.000000e+00
6.250000e+00
1.250000e+01
1.875000e+01
2.500000e+01
3.125000e+01
3.750000e+01
4.375000e+01
5.000000e+01
5.625000e+01
6.250000e+01
6.875000e+01
7.500000e+01
8.125000e+01
8.750000e+01
9.375000e+01
1.000000e+02
1.062500e+02
1.125000e+02
1.187500e+02
1.250000e+02
1.312500e+02
1.375000e+02
1.437500e+02
1.500000e+02
1.562500e+02
1.625000e+02
1.687500e+02
1.750000e+02
1.812500e+02
1.875000e+02
1.937500e+02
2.000000e+02
0.000000e+00
6.250000e+00
1.250000e+01
1.875000e+01
2.500000e+01
3.125000e+01
3.750000e+01
4.375000e+01
5.000000e+01
5.625000e+01
6.250000e+01
6.875000e+01
7.500000e+01
8.125000e+01
8.750000e+01
9.375000e+01
1.000000e+02
1.062500e+02
1.125000e+02
1.187500e+02
1.250000e+02
1.312500e+02
1.375000e+02
1.437500e+02
1.500000e+02
1.562500e+02
1.625000e+02
1.687500e+02
1.750000e+02
1.812500e+02
1.875000e+02
1.937500e+02
2.000000e+02
0.000000e+00
6.250000e+00
1.250000e+01
1.875000e+01
2.500000e+01
3.125000e+01
3.750000e+01
4.375000e+01
5.000000e+01
5.625000e+01
6.250000e+01
6.875000e+01
7.500000e+01
8.125000e+01
8.750000e+01
9.375000e+01
1.000000e+02
1.062500e+02
1.125000e+02
1.187500e+02
1.250000e+02
1.312500e+02
1.375000e+02
1.437500e+02
1.500000e+02
1.562500e+02
1.625000e+02
1.687500e+02
1.750000e+02
1.812500e+02
1.875000e+02
1.937500e+02
2.000000e+02
0.000000e+00
6.250000e+00
1.250000e+01
1.875000e+01
2.500000e+01
3.125000e+01
3.750000e+01
4.375000e+01
5.000000e+01
5.625000e+01
6.250000e+01
6.875000e+01
7.500000e+01
8.125000e+01
8.750000e+01
9.375000e+01
1.000000e+02
1.062500e+02
1.125000e+02
1.187500e+02
1.250000e+02
1.312500e+02
1.375000e+02
1.437500e+02
1.500000e+02
1.562500e+02
1.625000e+02
1.687500e+02
1.750000e+02
1.812500e+02
1.875000e+02
1.937500e+02
2.000000e+02
0.000000e+00
6.250000e+00
1.250000e+01
1.875000e+01
2.500000e+01
3.125000e+01
3.750000e+01
4.375000e+01
5.000000e+01
5.625000e+01
6.250000e+01
6.875000e+01
7.500000e+01
8.125000e+01
8.750000e+01
9.375000e+01
1.000000e+02
1.062500e+02
1.125000e+02
1.187500e+02
1.250000e+02
1.312500e+02
1.375000e+02
1.437500e+02
1.500000e+02
1.562500e+02
1.625000e+02
1.687500e+02
1.750000e+02
1.812500e+02
1.875000e+02
1.937500e+02
2.000000e+02
0.000000e+00
6.250000e+00
1.250000e+01
1.875000e+01
2.500000e+01
3.125000e+01
3.750000e+01
4.375000e+01
5.000000e+01
5.625000e+01
6.250000e+01
6.875000e+01
7.500000e+01
8.125000e+01
8.750000e+01
9.375000e+01
1.000000e+02
1.062500e+02
1.125000e+02
1.187500e+02
1.250000e+02
1.312500e+02
1.375000e+02
1.437500e+02
1.500000e+02
1.562500e+02
1.625000e+02
1.687500e+02
1.750000e+02
1.812500e+02
1.875000e+02
1.937500e+02
2.000000e+02
0.000000e+00
6.250000e+00
1.250000e+01
1.875000e+01
2.500000e+01
3.125000e+01
3.750000e+01
4.375000e+01
5.000000e+01
5.625000e+01
6.250000e+01
6.875000e+01
7.500000e+01
8.125000e+01
8.750000e+01
9.375000e+01
1.000000e+02
1.062500e+02
1.125000e+02
1.187500e+02
1.250000e+02
1.312500e+02
1.375000e+02
1.437500e+02
1.500000e+02
1.562500e+02
1.625000e+02
1.687500e+02
1.750000e+02
1.812500e+02
1.875000e+02
1.937500e+02
2.000000e+02
0.000000e+00
6.250000e+00
1.250000e+01
1.875000e+01
2.500000e+01
3.125000e+01
3.750000e+01
4.375000e+01
5.000000e+01
5.625000e+01
6.250000e+01
6.875000e+01
7.500000e+01
8.125000e+01
8.750000e+01
9.375000e+01
1.000000e+02
1.062500e+02
1.125000e+02
1.187500e+02
1.250000e+02
1.312500e+02
1.375000e+02
1.437500e+02
1.500000e+02
1.562500e+02
1.625000e+02
1.687500e+02
1.750000e+02
1.812500e+02
1.875000e+02
1.937500e+02
2.000000e+02
0.000000e+00
6.250000e+00
1.250000e+01
1.875000e+01
2.500000e+01
3.125000e+01
3.750000e+01
4.375000e+01
5.000000e+01
5.625000e+01
6.250000e+01
6.875000e+01
7.500000e+01
8.125000e+01
8.750000e+01
9.375000e+01
1.000000e+02
1.062500e+02
1.125000e+02
1.187500e+02
1.250000e+02
1.312500e+02
1.375000e+02
1.437500e+02
1.500000e+02
1.562500e+02
1.625000e+02
1.687500e+02
1.750000e+02
1.812500e+02
1.875000e+02
1.937500e+02
2.000000e+02
0.000000e+00
6.250000e+00
1.250000e+01
1.875000e+01
2.500000e+01
3.125000e+01
3.750000e+01
4.375000e+01
5.000000e+01
5.625000e+01
6.250000e+01
6.875000e+01
7.500000e+01
8.125000e+01
8.750000e+01
9.375000e+01
1.000000e+02
1.062500e+02
1.125000e+02
1.187500e+02
1.250000e+02
1.312500e+02
1.375000e+02
1.437500e+02
1.500000e+02
1.562500e+02
1.625000e+02
1.687500e+02
1.750000e+02
1.812500e+02
1.875000e+02
1.937500e+02
2.000000e+02
0.000000e+00
6.250000e+00
1.250000e+01
1.875000e+01
2.500000e+01
3.125000e+01
3.750000e+01
4.375000e+01
5.000000e+01
5.625000e+01
6.250000e+01
6.875000e+01
7.500000e+01
8.125000e+01
8.750000e+01
9.375000e+01
1.000000e+02
1.062500e+02
1.125000e+02
1.187500e+02
1.250000e+02
1.312500e+02
1.375000e+02
1.437500e+02
1.500000e+02
1.562500e+02
1.625000e+02
1.687500e+02
1.750000e+02
1.812500e+02
1.875000e+02
1.937500e+02
2.000000e+02
0.000000e+00
6.250000e+00
1.250000e+01
1.875000e+01
2.500000e+01
3.125000e+01
3.750000e+01
4.375000e+01
5.000000e+01
5.625000e+01
6.250000e+01
6.875000e+01
7.500000e+01
8.125000e+01
8.750000e+01
9.375000e+01
1.000000e+02
1.062500e+02
1.125000e+02
1.187500e+02
1.250000e+02
1.312500e+02
1.375000e+02
1.437500e+02
1.500000e+02
1.562500e+02
1.625000e+02
1.687500e+02
1.750000e+02
1.812500e+02
1.875000e+02
1.937500e+02
2.000000e+02
0.000000e+00
0.000000e+00
0.000000e+00
0.000000e+00
0.000000e+00
0.000000e+00
0.000000e+00
0.000000e+00
0.000000e+00
0.000000e+00
0.000000e+00
0.000000e+00
0.000000e+00
0.000000e+00
0.000000e+00
0.000000e+00
0.000000e+00
0.000000e+00
0.000000e+00
0.000000e+00
0.000000e+00
0.000000e+00
0.000000e+00
0.000000e+00
0.000000e+00
0.000000e+00
0.000000e+00
0.000000e+00
0.000000e+00
0.000000e+00
0.000000e+00
0.000000e+00
0.000000e+00
6.250000e+00
6.250000e+00
6.250000e+00
6.250000e+00
6.250000e+00
6.250000e+00
6.250000e+00
6.250000e+00
6.250000e+00
6.250000e+00
6.250000e+00
6.250000e+00
6.250000e+00
6.250000e+00
6.250000e+00
6.250000e+00
6.250000e+00
6.250000e+00
6.250000e+00
6.250000e+00
6.250000e+00
6.250000e+00
6.250000e+00
6.250000e+00
6.250000e+00
6.250000e+00
6.250000e+00
6.250000e+00
6.250000e+00
6.250000e+00
6.250000e+00
6.250000e+00
6.250000e+00
1.250000e+01
1.250000e+01
1.250000e+01
1.250000e+01
1.250000e+01
1.250000e+01
1.250000e+01
1.250000e+01
1.250000e+01
1.250000e+01
1.250000e+01
1.250000e+01
1.250000e+01
1.250000e+01
1.250000e+01
1.250000e+01
1.250000e+01
1.250000e+01
1.250000e+01
1.250000e+01
1.250000e+01
1.250000e+01
1.250000e+01
1.250000e+01
1.250000e+01
1.250000e+01
1.250000e+01
1.250000e+01
1.250000e+01
1.250000e+01
1.250000e+01
1.250000e+01
1.250000e+01
1.875000e+01
1.875000e+01
1.875000e+01
1.875000e+01
1.875000e+01
1.875000e+01
1.875000e+01
1.875000e+01
1.875000e+01
1.875000e+01
1.875000e+01
1.875000e+01
1.875000e+01
1.875000e+01
1.875000e+01
1.875000e+01
1.875000e+01
1.875000e+01
1.875000e+01
1.875000e+01
1.875000e+01
1.875000e+01
1.875000e+01
1.875000e+01
1.875000e+01
1.875000e+01
1.875000e+01
1.875000e+01
1.875000e+01
1.875000e+01
1.875000e+01
1.875000e+01
1.875000e+01
2.500000e+01
2.500000e+01
2.500000e+01
2.500000e+01
2.500000e+01
2.500000e+01
2.500000e+01
2.500000e+01
2.500000e+01
2.500000e+01
2.500000e+01
2.500000e+01
2.500000e+01
2.500000e+01
2.500000e+01
2.500000e+01
2.500000e+01
2.500000e+01
2.500000e+01
2.500000e+01
2.500000e+01
2.500000e+01
2.500000e+01
2.500000e+01
2.500000e+01
2.500000e+01
2.500000e+01
2.500000e+01
2.500000e+01
2.500000e+01
2.500000e+01
2.500000e+01
2.500000e+01
3.125000e+01
3.125000e+01
3.125000e+01
3.125000e+01
3.125000e+01
3.125000e+01
3.125000e+01
3.125000e+01
3.125000e+01
3.125000e+01
3.125000e+01
3.125000e+01
3.125000e+01
3.125000e+01
3.125000e+01
3.125000e+01
3.125000e+01
3.125000e+01
3.125000e+01
3.125000e+01
3.125000e+01
3.125000e+01
3.125000e+01
3.125000e+01
3.125000e+01
3.125000e+01
3.125000e+01
3.125000e+01
3.125000e+01
3.125000e+01
3.125000e+01
3.125000e+01
3.125000e+01
3.750000e+01
3.750000e+01
3.750000e+01
3.750000e+01
3.750000e+01
3.750000e+01
3.750000e+01
3.750000e+01
3.750000e+01
3.750000e+01
3.750000e+01
3.750000e+01
3.750000e+01
3.750000e+01
3.750000e+01
3.750000e+01
3.750000e+01
3.750000e+01
3.750000e+01
3.750000e+01
3.750000e+01
3.750000e+01
3.750000e+01
3.750000e+01
3.750000e+01
3.750000e+01
3.750000e+01
3.750000e+01
3.750000e+01
3.750000e+01
3.750000e+01
3.750000e+01
3.750000e+01
4.375000e+01
4.375000e+01
4.375000e+01
4.375000e+01
4.375000e+01
4.375000e+01
4.375000e+01
4.375000e+01
4.375000e+01
4.375000e+01
4.375000e+01
4.375000e+01
4.375000e+01
4.375000e+01
4.375000e+01
4.375000e+01
4.375000e+01
4.375000e+01
4.375000e+01
4.375000e+01
4.375000e+01
4.375000e+01
4.375000e+01
4.375000e+01
4.375000e+01
4.375000e+01
4.375000e+01
4.375000e+01
4.375000e+01
4.375000e+01
4.375000e+01
4.375000e+01
4.375000e+01
5.000000e+01
5.000000e+01
5.000000e+01
5.000000e+01
5.000000e+01
5.000000e+01
5.000000e+01
5.000000e+01
5.000000e+01
5.000000e+01
5.000000e+01
5.000000e+01
5.000000e+01
5.000000e+01
5.000000e+01
5.000000e+01
5.000000e+01
5.000000e+01
5.000000e+01
5.000000e+01
5.000000e+01
5.000000e+01
5.000000e+01
5.000000e+01
5.000000e+01
5.000000e+01
5.000000e+01
5.000000e+01
5.000000e+01
5.000000e+01
5.000000e+01
5.000000e+01
5.000000e+01
5.625000e+01
5.625000e+01
5.625000e+01
5.625000e+01
5.625000e+01
5.625000e+01
5.625000e+01
5.625000e+01
5.625000e+01
5.625000e+01
5.625000e+01
5.625000e+01
5.625000e+01
5.625000e+01
5.625000e+01
5.625000e+01
5.625000e+01
5.625000e+01
5.625000e+01
5.625000e+01
5.625000e+01
5.625000e+01
5.625000e+01
5.625000e+01
5.625000e+01
5.625000e+01
5.625000e+01
5.625000e+01
5.625000e+01
5.625000e+01
5.625000e+01
5.625000e+01
5.625000e+01
6.250000e+01
6.250000e+01
6.250000e+01
6.250000e+01
6.250000e+01
6.250000e+01
6.250000e+01
6.250000e+01
6.250000e+01
6.250000e+01
6.250000e+01
6.250000e+01
6.250000e+01
6.250000e+01
6.250000e+01
6.250000e+01
6.250000e+01
6.250000e+01
6.250000e+01
6.250000e+01
6.250000e+01
6.250000e+01
6.250000e+01
6.250000e+01
6.250000e+01
6.250000e+01
6.250000e+01
6.250000e+01
6.250000e+01
6.250000e+01
6.250000e+01
6.250000e+01
6.250000e+01
6.875000e+01
6.875000e+01
6.875000e+01
6.875000e+01
6.875000e+01
6.875000e+01
6.875000e+01
6.875000e+01
6.875000e+01
6.875000e+01
6.875000e+01
6.875000e+01
6.875000e+01
6.875000e+01
6.875000e+01
6.875000e+01
6.875000e+01
6.875000e+01
6.875000e+01
6.875000e+01
6.875000e+01
6.875000e+01
6.875000e+01
6.875000e+01
6.875000e+01
6.875000e+01
6.875000e+01
6.875000e+01
6.875000e+01
6.875000e+01
6.875000e+01
6.875000e+01
6.875000e+01
7.500000e+01
7.500000e+01
7.500000e+01
7.500000e+01
7.500000e+01
7.500000e+01
7.500000e+01
7.500000e+01
7.500000e+01
7.500000e+01
7.500000e+01
7.500000e+01
7.500000e+01
7.500000e+01
7.500000e+01
7.500000e+01
7.500000e+01
7.500000e+01
7.500000e+01
7.500000e+01
7.500000e+01
7.500000e+01
7.500000e+01
7.500000e+01
7.500000e+01
7.500000e+01
7.500000e+01
7.500000e+01
7.500000e+01
7.500000e+01
7.500000e+01
7.500000e+01
7.500000e+01
8.125000e+01
8.125000e+01
8.125000e+01
8.125000e+01
8.125000e+01
8.125000e+01
8.125000e+01
8.125000e+01
8.125000e+01
8.125000e+01
8.125000e+01
8.125000e+01
8.125000e+01
8.125000e+01
8.125000e+01
8.125000e+01
8.125000e+01
8.125000e+01
8.125000e+01
8.125000e+01
8.125000e+01
8.125000e+01
8.125000e+01
8.125000e+01
8.125000e+01
8.125000e+01
8.125000e+01
8.125000e+01
8.125000e+01
8.125000e+01
8.125000e+01
8.125000e+01
8.125000e+01
8.750000e+01
8.750000e+01
8.750000e+01
8.750000e+01
8.750000e+01
8.750000e+01
8.750000e+01
8.750000e+01
8.750000e+01
8.750000e+01
8.750000e+01
8.750000e+01
8.750000e+01
8.750000e+01
8.750000e+01
8.750000e+01
8.750000e+01
8.750000e+01
8.750000e+01
8.750000e+01
8.750000e+01
8.750000e+01
8.750000e+01
8.750000e+01
8.750000e+01
8.750000e+01
8.750000e+01
8.750000e+01
8.750000e+01
8.750000e+01
8.750000e+01
8.750000e+01
8.750000e+01
9.375000e+01
9.375000e+01
9.375000e+01
9.375000e+01
9.375000e+01
9.375000e+01
9.375000e+01
9.375000e+01
9.375000e+01
9.375000e+01
9.375000e+01
9.375000e+01
9.375000e+01
9.375000e+01
9.375000e+01
9.375000e+01
9.375000e+01
9.375000e+01
9.375000e+01
9.375000e+01
9.375000e+01
9.375000e+01
9.375000e+01
9.375000e+01
9.375000e+01
9.375000e+01
9.375000e+01
9.375000e+01
9.375000e+01
9.375000e+01
9.375000e+01
9.375000e+01
9.375000e+01
1.000000e+02
1.000000e+02
1.000000e+02
1.000000e+02
1.000000e+02
1.000000e+02
1.000000e+02
1.000000e+02
1.000000e+02
1.000000e+02
1.000000e+02
1.000000e+02
1.000000e+02
1.000000e+02
1.000000e+02
1.000000e+02
1.000000e+02
1.000000e+02
1.000000e+02
1.000000e+02
1.000000e+02
1.000000e+02
1.000000e+02
1.000000e+02
1.000000e+02
1.000000e+02
1.000000e+02
1.000000e+02
1.000000e+02
1.000000e+02
1.000000e+02
1.000000e+02
1.000000e+02
0.000000e+00
-9.131366e-02
-1.656759e-01
-2.345631e-01
-3.006774e-01
-3.645226e-01
-4.262262e-01
-4.857827e-01
-5.431542e-01
-5.982988e-01
-6.511820e-01
-7.017797e-01
-7.500794e-01
-7.960801e-01
-8.397923e-01
-8.812392e-01
-9.204576e-01
-9.575015e-01
-9.924453e-01
-1.025390e+00
-1.056468e+00
-1.085858e+00
-1.113794e+00
-1.140585e+00
-1.166649e+00
-1.192551e+00
-1.219076e+00
-1.247344e+00
-1.278998e+00
-1.316457e+00
-1.362857e+00
-1.418151e+00
-1.451895e+00
0.000000e+00
-6.122258e-02
-1.273798e-01
-1.897583e-01
-2.490487e-01
-3.058150e-01
-3.603567e-01
-4.128049e-01
-4.632115e-01
-5.115933e-01
-5.579535e-01
-6.022920e-01
-6.446108e-01
-6.849166e-01
-7.232227e-01
-7.595503e-01
-7.939304e-01
-8.264052e-01
-8.570312e-01
-8.858811e-01
-9.130485e-01
-9.386506e-01
-9.628333e-01
-9.857750e-01
-1.007689e+00
-1.028820e+00
-1.049428e+00
-1.069726e+00
-1.089711e+00
-1.108735e+00
-1.124587e+00
-1.133854e+00
-1.146755e+00
0.000000e+00
-4.856144e-02
-9.997539e-02
-1.523239e-01
-2.031920e-01
-2.521870e-01
-2.992771e-01
-3.445067e-01
-3.879158e-01
-4.295313e-01
-4.693710e-01
-5.074471e-01
-5.437701e-01
-5.783505e-01
-6.112012e-01
-6.423380e-01
-6.717811e-01
-6.995558e-01
-7.256934e-01
-7.502310e-01
-7.732115e-01
-7.946814e-01
-8.146865e-01
-8.332622e-01
-8.504157e-01
-8.660923e-01
-8.801125e-01
-8.920636e-01
-9.011374e-01
-9.060235e-01
-9.055955e-01
-9.028523e-01
-9.179177e-01
0.000000e+00
-3.852918e-02
-7.918632e-02
-1.209572e-01
-1.626312e-01
-2.032969e-01
-2.426058e-01
-2.804329e-01
-3.167441e-01
-3.515379e-01
-3.848231e-01
-4.166107e-01
-4.469114e-01
-4.757346e-01
-5.030888e-01
-5.289816e-01
-5.534202e-01
-5.764106e-01
-5.979576e-01
-6.180625e-01
-6.367200e-01
-6.539130e-01
-6.696034e-01
-6.837182e-01
-6.961270e-01
-7.066109e-01
-7.148227e-01
-7.202609e-01
-7.223374e-01
-7.207963e-01
-7.170530e-01
-7.168296e-01
-7.311833e-01
0.000000e+00
-2.990421e-02
-6.123368e-02
-9.356440e-02
-1.261585e-01
-1.583535e-01
-1.897053e-01
-2.199888e-01
-2.491017e-01
-2.770045e-01
-3.036868e-01
-3.291499e-01
-3.533986e-01
-3.764369e-01
-3.982662e-01
-4.188845e-01
-4.382854e-01
-4.564572e-01
-4.733810e-01
-4.890284e-01
-5.033574e-01
-5.163068e-01
-5.277879e-01
-5.376747e-01
-5.457923e-01
-5.519112e-01
-5.557616e-01
-5.571124e-01
-5.560045e-01
-5.532933e-01
-5.515343e-01
-5.555962e-01
-5.678407e-01
0.000000e+00
-2.197799e-02
-4.489766e-02
-6.855393e-02
-9.253821e-02
-1.164029e-01
-1.397925e-01
-1.624759e-01
-1.843264e-01
-2.052822e-01
-2.253171e-01
-2.444219e-01
-2.625933e-01
-2.798281e-01
-2.961196e-01
-3.114562e-01
-3.258197e-01
-3.391838e-01
-3.515124e-01
-3.627572e-01
-3.728548e-01
-3.817233e-01
-3.892592e-01
-3.953360e-01
-3.998094e-01
-4.025390e-01
-4.034446e-01
-4.026320e-01
-4.006291e-01
-3.987233e-01
-3.991872e-01
-4.043654e-01
-4.144971e-01
0.000000e+00
-1.446423e-02
-2.950063e-02
-4.501418e-02
-6.078374e-02
-7.654392e-02
-9.205707e-02
-1.071499e-01
-1.217141e-01
-1.356896e-01
-1.490462e-01
-1.617687e-01
-1.738472e-01
-1.852718e-01
-1.960285e-01
-2.060977e-01
-2.154521e-01
-2.240559e-01
-2.318629e-01
-2.388154e-01
-2.448437e-01
-2.498660e-01
-2.537911e-01
-2.565263e-01
-2.579959e-01
-2.581783e-01
-2.571735e-01
-2.553141e-01
-2.533076e-01
-2.523350e-01
-2.538523e-01
-2.588938e-01
-2.670725e-01
0.000000e+00
-7.184402e-03
-1.464044e-02
-2.232984e-02
-3.015553e-02
-3.799389e-02
-4.572755e-02
-5.326464e-02
-6.054307e-02
-6.752491e-02
-7.418766e-02
-8.051644e-02
-8.649827e-02
-9.211832e-02
-9.735740e-02
-1.021903e-01
-1.065847e-01
-1.104999e-01
-1.138868e-01
-1.166876e-01
-1.188376e-01
-1.202687e-01
-1.209170e-01
-1.207367e-01
-1.197242e-01
-1.179569e-01
-1.156485e-01
-1.132162e-01
-1.113280e-01
-1.108550e-01
-1.126352e-01
-1.170333e-01
-1.235229e-01
0.000000e+00
-1.159907e-05
-2.514853e-05
-3.989782e-05
-5.507131e-05
-6.962357e-05
-8.197858e-05
-8.974133e-05
-8.936044e-05
-7.572215e-05
-4.165987e-05
2.262894e-05
1.302577e-04
2.984026e-04
5.490958e-04
9.099902e-04
1.414979e-03
2.104478e-03
3.025063e-03
4.228007e-03
5.766030e-03
7.687248e-03
1.002499e-02
1.278179e-02
1.590602e-02
1.926081e-02
2.258932e-02
2.548926e-02
2.742512e-02
2.781774e-02
2.623712e-02
2.265743e-02
1.764385e-02
0.000000e+00
7.162555e-03
1.459298e-02
2.225439e-02
3.005113e-02
3.786153e-02
4.557113e-02
5.309251e-02
6.037021e-02
6.737586e-02
7.410041e-02
8.054737e-02
8.672840e-02
9.266103e-02
9.836764e-02
1.038753e-01
1.092159e-01
1.144257e-01
1.195443e-01
1.246126e-01
1.296686e-01
1.347400e-01
1.398342e-01
1.449227e-01
1.499230e-01
1.546771e-01
1.589363e-01
1.623620e-01
1.645631e-01
1.651863e-01
1.640577e-01
1.613384e-01
1.576174e-01
0.000000e+00
1.444638e-02
2.946158e-02
4.495166e-02
6.069657e-02
7.643237e-02
9.192371e-02
1.070008e-01
1.215606e-01
1.355507e-01
1.489518e-01
1.617636e-01
1.739964e-01
1.856665e-01
1.967945e-01
2.074041e-01
2.175217e-01
2.271763e-01
2.363977e-01
2.452146e-01
2.536498e-01
2.617138e-01
2.693959e-01
2.766517e-01
2.833899e-01
2.894611e-01
2.946542e-01
2.987102e-01
3.013650e-01
3.024265e-01
3.018807e-01
2.999991e-01
2.974020e-01
0.000000e+00
2.196660e-02
4.487228e-02
6.851261e-02
9.247955e-02
1.163263e-01
1.396988e-01
1.623681e-01
1.842107e-01
2.051696e-01
2.252256e-01
2.443791e-01
2.626398e-01
2.800220e-01
2.965418e-01
3.122169e-01
3.270656e-01
3.411068e-01
3.543584e-01
3.668358e-01
3.785476e-01
3.894912e-01
3.996452e-01
4.089619e-01
4.173589e-01
4.247141e-01
4.308690e-01
4.356460e-01
4.388854e-01
4.405087e-01
4.406000e-01
4.394962e-01
4.378548e-01
0.000000e+00
2.990137e-02
6.122659e-02
9.355172e-02
1.261389e-01
1.583259e-01
1.896690e-01
2.199437e-01
2.490486e-01
2.769459e-01
3.036272e-01
3.290970e-01
3.533644e-01
3.764396e-01
3.983322e-01
4.190511e-01
4.386040e-01
4.569973e-01
4.742354e-01
4.903192e-01
5.052437e-01
5.189952e-01
5.315473e-01
5.428565e-01
5.528594e-01
5.614719e-01
5.685955e-01
5.741318e-01
5.780119e-01
5.802410e-01
5.809641e-01
5.805496e-01
5.796850e-01
0.000000e+00
3.853633e-02
7.920086e-02
1.209788e-01
1.626593e-01
2.033307e-01
2.426441e-01
2.804737e-01
3.167844e-01
3.515727e-01
3.848449e-01
4.166085e-01
4.468692e-01
4.756305e-01
5.028927e-01
5.286538e-01
5.529086e-01
5.756492e-01
5.968645e-01
6.165392e-01
6.346536e-01
6.511823e-01
6.660940e-01
6.793510e-01
6.909111e-01
7.007308e-01
7.087735e-01
7.150209e-01
7.194921e-01
7.222708e-01
7.235489e-01
7.237013e-01
7.234144e-01
0.000000e+00
4.857891e-02
1.000127e-01
1.523823e-01
2.032726e-01
2.522907e-01
2.994042e-01
3.446558e-01
3.880825e-01
4.297071e-01
4.695408e-01
5.075865e-01
5.438417e-01
5.782994e-01
6.109486e-01
6.417746e-01
6.707583e-01
6.978760e-01
7.230991e-01
7.463938e-01
7.677218e-01
7.870419e-01
8.043117e-01
8.194928e-01
8.325563e-01
8.434922e-01
8.523202e-01
8.591028e-01
8.639569e-01
8.670660e-01
8.686933e-01
8.692233e-01
8.692865e-01
0.000000e+00
6.124880e-02
1.274371e-01
1.898505e-01
2.491803e-01
3.059905e-01
3.605799e-01
4.130779e-01
4.635334e-01
5.119576e-01
5.583451e-01
6.026829e-01
6.449544e-01
6.851399e-01
7.232167e-01
7.591575e-01
7.929295e-01
8.244928e-01
8.538002e-01
8.807961e-01
9.054183e-01
9.276006e-01
9.472773e-01
9.643921e-01
9.789093e-01
9.908299e-01
1.000210e+00
1.007182e+00
1.011971e+00
1.014906e+00
1.016405e+00
1.016949e+00
1.017082e+00
0.000000e+00
9.134237e-02
1.657429e-01
2.346779e-01
3.008492e-01
3.647608e-01
4.265405e-01
4.861823e-01
5.436464e-01
5.988867e-01
6.518605e-01
7.025308e-01
7.508650e-01
7.968320e-01
8.403998e-01
8.815318e-01
9.201842e-01
9.563031e-01
9.898225e-01
1.020663e+00
1.048731e+00
1.073925e+00
1.096135e+00
1.115259e+00
1.131220e+00
1.143984e+00
1.153597e+00
1.160219e+00
1.164167e+00
1.165945e+00
1.166269e+00
1.166001e+00
1.165850e+00
0.000000e+00
-5.643019e-02
-9.848421e-02
-1.443765e-01
-1.954808e-01
-2.532083e-01
-3.179602e-01
-3.898491e-01
-4.688036e-01
-5.546543e-01
-6.471740e-01
-7.461007e-01
-8.511524e-01
-9.620352e-01
-1.078449e+00
-1.200092e+00
-1.326664e+00
-1.457871e+00
-1.593426e+00
-1.733062e+00
-1.876536e+00
-2.023643e+00
-2.174237e+00
-2.328260e+00
-2.485789e+00
-2.647115e+00
-2.812880e+00
-2.984336e+00
-3.163875e+00
-3.356238e+00
-3.571649e+00
-3.834235e+00
-4.197005e+00
0.000000e+00
-3.506932e-02
-7.908877e-02
-1.252901e-01
-1.771062e-01
-2.354604e-01
-3.008411e-01
-3.733590e-01
-4.529486e-01
-5.394409e-01
-6.326070e-01
-7.321832e-01
-8.378847e-01
-9.494153e-01
-1.066472e+00
-1.188751e+00
-1.315946e+00
-1.447760e+00
-1.583902e+00
-1.724096e+00
-1.868091e+00
-2.015673e+00
-2.166680e+00
-2.321040e+00
-2.478807e+00
-2.640246e+00
-2.805967e+00
-2.977180e+00
-3.156230e+00
-3.347776e+00
-3.561524e+00
-3.818265e+00
-4.157185e+00
0.000000e+00
-2.576057e-02
-6.376140e-02
-1.093323e-01
-1.612384e-01
-2.200222e-01
-2.859187e-01
-3.589889e-01
-4.391452e-01
-5.262103e-01
-6.199516e-01
-7.201031e-01
-8.263789e-01
-9.384817e-01
-1.056108e+00
-1.178950e+00
-1.306705e+00
-1.439070e+00
-1.575753e+00
-1.716477e+00
-1.860988e+00
-2.009069e+00
-2.160561e+00
-2.315390e+00
-2.473620e+00
-2.635530e+00
-2.801755e+00
-2.973538e+00
-3.153195e+00
-3.344922e+00
-3.555889e+00
-3.794568e+00
-4.059333e+00
0.000000e+00
-2.062830e-02
-5.399350e-02
-9.713420e-02
-1.483730e-01
-2.071383e-01
-2.733163e-01
-3.467956e-01
-4.274182e-01
-5.149741e-01
-6.092161e-01
-7.098715e-01
-8.166521e-01
-9.292597e-01
-1.047391e+00
-1.170741e+00
-1.299004e+00
-1.431881e+00
-1.569082e+00
-1.710330e+00
-1.855377e+00
-2.004009e+00
-2.156076e+00
-2.311515e+00
-2.470406e+00
-2.633042e+00
-2.800050e+00
-2.972577e+00
-3.152518e+00
-3.342637e+00
-3.545581e+00
-3.759623e+00
-3.958874e+00
0.000000e+00
-1.745535e-02
-4.760578e-02
-8.847226e-02
-1.385429e-01
-1.969226e-01
-2.631253e-01
-3.368432e-01
-4.178101e-01
-5.057613e-01
-6.004219e-01
-7.015068e-01
-8.087225e-01
-9.217699e-01
-1.040347e+00
-1.164150e+00
-1.292878e+00
-1.426234e+00
-1.563932e+00
-1.705701e+00
-1.851297e+00
-2.000513e+00
-2.153205e+00
-2.309316e+00
-2.468918e+00
-2.632268e+00
-2.799878e+00
-2.972574e+00
-3.151445e+00
-3.337368e+00
-3.529457e+00
-3.720659e+00
-3.894185e+00
0.000000e+00
-1.543639e-02
-4.341470e-02
-8.251158e-02
-1.314550e-01
-1.892878e-01
-2.553463e-01
-3.291584e-01
-4.103519e-01
-4.985993e-01
-5.935917e-01
-6.950270e-01
-8.026047e-01
-9.160242e-01
-1.034985e+00
-1.159187e+00
-1.288332e+00
-1.422128e+00
-1.560294e+00
-1.702562e+00
-1.848693e+00
-1.998481e+00
-2.151776e+00
-2.308506e+00
-2.468697e+00
-2.632504e+00
-2.800216e+00
-2.972194e+00
-3.148638e+00
-3.328953e+00
-3.510392e+00
-3.686470e+00
-3.847404e+00
0.000000e+00
-1.418162e-02
-4.076491e-02
-7.863704e-02
-1.267067e-01
-1.840410e-01
-2.499033e-01
-3.237245e-01
-4.050518e-01
-4.935042e-01
-5.887412e-01
-6.904443e-01
-7.983061e-01
-9.120246e-01
-1.031301e+00
-1.155839e+00
-1.285344e+00
-1.419528e+00
-1.558113e+00
-1.700834e+00
-1.847448e+00
-1.997743e+00
-2.151548e+00
-2.308748e+00
-2.469288e+00
-2.633171e+00
-2.800412e+00
-2.970915e+00
-3.144189e+00
-3.318822e+00
-3.491794e+00
-3.658116e+00
-3.811678e+00
0.000000e+00
-1.349210e-02
-3.929460e-02
-7.645366e-02
-1.239840e-01
-1.809849e-01
-2.466960e-01
-3.205008e-01
-4.019005e-01
-4.904798e-01
-5.858770e-01
-6.877626e-01
-7.958251e-01
-9.097624e-01
-1.029278e+00
-1.154078e+00
-1.283873e+00
-1.418377e+00
-1.557312e+00
-1.700410e+00
-1.847421e+00
-1.998113e+00
-2.152280e+00
-2.309746e+00
-2.470352e+00
-2.633933e+00
-2.800247e+00
-2.968843e+00
-3.138819e+00
-3.308504e+00
-3.475172e+00
-3.635073e+00
-3.784035e+00
0.000000e+00
-1.326994e-02
-3.882024e-02
-7.574601e-02
-1.230966e-01
-1.799847e-01
-2.456454e-01
-3.194491e-01
-4.008830e-01
-4.895215e-01
-5.849968e-01
-6.869773e-01
-7.951517e-01
-9.092200e-01
-1.028888e+00
-1.153866e+00
-1.283866e+00
-1.418604e+00
-1.557798e+00
-1.701175e+00
-1.848469e+00
-1.999420e+00
-2.153778e+00
-2.311295e+00
-2.471704e+00
-2.634685e+00
-2.799797e+00
-2.966359e+00
-3.133295e+00
-3.298959e+00
-3.461046e+00
-3.616695e+00
-3.762849e+00
0.000000e+00
-1.348567e-02
-3.928568e-02
-7.644598e-02
-1.239817e-01
-1.809930e-01
-2.467214e-01
-3.205523e-01
-4.019900e-01
-4.906227e-01
-5.860933e-01
-6.880774e-01
-7.962694e-01
-9.103737e-01
-1.030100e+00
-1.155160e+00
-1.285267e+00
-1.420137e+00
-1.559484e+00
-1.703023e+00
-1.850468e+00
-2.001529e+00
-2.155907e+00
-2.313280e+00
-2.473285e+00
-2.635477e+00
-2.799275e+00
-2.963882e+00
-3.128188e+00
-3.290697e+00
-3.449508e+00
-3.602407e+00
-3.747059e+00
0.000000e+00
-1.416928e-02
-4.074779e-02
-7.862223e-02
-1.267021e-01
-1.840564e-01
-2.499515e-01
-3.238227e-01
-4.052228e-01
-4.937777e-01
-5.891554e-01
-6.910474e-01
-7.991577e-01
-9.131967e-01
-1.032878e+00
-1.157915e+00
-1.288022e+00
-1.422911e+00
-1.562290e+00
-1.705863e+00
-1.853322e+00
-2.004346e+00
-2.158586e+00
-2.315659e+00
-2.475118e+00
-2.636428e+00
-2.798922e+00
-2.961758e+00
-3.123870e+00
-3.283950e+00
-3.440459e+00
-3.591689e+00
-3.735851e+00
0.000000e+00
-1.541924e-02
-4.339090e-02
-8.249089e-02
-1.314483e-01
-1.893087e-01
-2.554130e-01
-3.292948e-01
-4.105898e-01
-4.989805e-01
-5.941697e-01
-6.958694e-01
-8.037950e-01
-9.176633e-01
-1.037191e+00
-1.162093e+00
-1.292084e+00
-1.426871e+00
-1.566156e+00
-1.709630e+00
-1.856966e+00
-2.007812e+00
-2.161781e+00
-2.318434e+00
-2.477264e+00
-2.637672e+00
-2.798945e+00
-2.960236e+00
-3.120555e+00
-3.278783e+00
-3.433703e+00
-3.584045e+00
-3.728503e+00
0.000000e+00
-1.743515e-02
-4.757777e-02
-8.844789e-02
-1.385351e-01
-1.969480e-01
-2.632057e-01
-3.370077e-01
-4.180974e-01
-5.062217e-01
-6.011205e-01
-7.025252e-01
-8.101620e-01
-9.237527e-01
-1.043016e+00
-1.167668e+00
-1.297421e+00
-1.431980e+00
-1.571040e+00
-1.714280e+00
-1.861358e+00
-2.011898e+00
-2.165479e+00
-2.321626e+00
-2.479785e+00
-2.639318e+00
-2.799490e+00
-2.959468e+00
-3.118340e+00
-3.275157e+00
-3.428987e+00
-3.578969e+00
-3.724298e+00
0.000000e+00
-2.060754e-02
-5.396474e-02
-9.710942e-02
-1.483664e-01
-2.071681e-01
-2.734069e-01
-3.469793e-01
-4.277377e-01
-5.154852e-01
-6.099904e-01
-7.109994e-01
-8.182451e-01
-9.314524e-01
-1.050341e+00
-1.174627e+00
-1.304020e+00
-1.438223e+00
-1.576925e+00
-1.719797e+00
-1.866485e+00
-2.016595e+00
-2.169687e+00
-2.325256e+00
-2.482724e+00
-2.641431e+00
-2.800630e+00
-2.959510e+00
-3.117223e+00
-3.272958e+00
-3.426022e+00
-3.575939e+00
-3.722466e+00
0.000000e+00
-2.574248e-02
-6.373622e-02
-1.093114e-01
-1.612364e-01
-2.200585e-01
-2.860187e-01
-3.591865e-01
-4.394847e-01
-5.267495e-01
-6.207645e-01
-7.212828e-01
-8.280403e-01
-9.407625e-01
-1.059169e+00
-1.182975e+00
-1.311888e+00
-1.445607e+00
-1.583820e+00
-1.726190e+00
-1.872357e+00
-2.021916e+00
-2.174415e+00
-2.329337e+00
-2.486092e+00
-2.644009e+00
-2.802346e+00
-2.960308e+00
-3.117097e+00
-3.271995e+00
-3.424485e+00
-3.574415e+00
-3.722145e+00
0.000000e+00
-3.505769e-02
-7.907164e-02
-1.252778e-01
-1.771138e-01
-2.355077e-01
-3.009538e-01
-3.735710e-01
-4.533042e-01
-5.399974e-01
-6.334374e-01
-7.333787e-01
-8.395572e-01
-9.516983e-01
-1.069521e+00
-1.192737e+00
-1.321054e+00
-1.454169e+00
-1.591765e+00
-1.733503e+00
-1.879016e+00
-2.027898e+00
-2.179692e+00
-2.333877e+00
-2.489863e+00
-2.646986e+00
-2.804514e+00
-2.961675e+00
-3.117708e+00
-3.271950e+00
-3.423985e+00
-3.573865e+00
-3.722418e+00
0.000000e+00
-5.642853e-02
-9.847850e-02
-1.443776e-01
-1.955039e-01
-2.532732e-01
-3.180927e-01
-3.900828e-01
-4.691817e-01
-5.552327e-01
-6.480228e-01
-7.473070e-01
-8.528215e-01
-9.642913e-01
-1.081434e+00
-1.203961e+00
-1.331577e+00
-1.463975e+00
-1.600835e+00
-1.741816e+00
-1.886547e+00
-2.034619e+00
-2.185574e+00