TITLE = "Solution"
VARIABLES = x, y, u, v, psiu, psiv, t, stress
ZONE T="structure" N=561 E=512 F=FEBLOCK ET=QUADRILATERAL VARLOCATION=([7,8]=cellcentered)
0.000000e+00
6.250000e+00
1.250000e+01
1.875000e+01
2.500000e+01
3.125000e+01
3.750000e+01
4.375000e+01
5.000000e+01
5.625000e+01
6.250000e+01
6.875000e+01
7.500000e+01
8.125000e+01
8.750000e+01
9.375000e+01
1.000000e+02
1.062500e+02
1.125000e+02
1.187500e+02
1.250000e+02
1.312500e+02
1.375000e+02
1.437500e+02
1.500000e+02
1.562500e+02
1.625000e+02
1.687500e+02
1.750000e+02
1.812500e+02
1.875000e+02
1.937500e+02
2.000000e+02
0.000000e+00
6.250000e+00
1.250000e+01
1.875000e+01
2.500000e+01
3.125000e+01
3.750000e+01
4.375000e+01
5.000000e+01
5.625000e+01
6.250000e+01
6.875000e+01
7.500000e+01
8.125000e+01
8.750000e+01
9.375000e+01
1.000000e+02
1.062500e+02
1.125000e+02
1.187500e+02
1.250000e+02
1.312500e+02
1.375000e+02
1.437500e+02
1.500000e+02
1.562500e+02
1.625000e+02
1.687500e+02
1.750000e+02
1.812500e+02
1.875000e+02
1.937500e+02
2.000000e+02
0.000000e+00
6.250000e+00
1.250000e+01
1.875000e+01
2.500000e+01
3.125000e+01
3.750000e+01
4.375000e+01
5.000000e+01
5.625000e+01
6.250000e+01
6.875000e+01
7.500000e+01
8.125000e+01
8.750000e+01
9.375000e+01
1.000000e+02
1.062500e+02
1.125000e+02
1.187500e+02
1.250000e+02
1.312500e+02
1.375000e+02
1.437500e+02
1.500000e+02
1.562500e+02
1.625000e+02
1.687500e+02
1.750000e+02
1.812500e+02
1.875000e+02
1.937500e+02
2.000000e+02
0.000000e+00
6.250000e+00
1.250000e+01
1.875000e+01
2.500000e+01
3.125000e+01
3.750000e+01
4.375000e+01
5.000000e+01
5.625000e+01
6.250000e+01
6.875000e+01
7.500000e+01
8.125000e+01
8.750000e+01
9.375000e+01
1.000000e+02
1.062500e+02
1.125000e+02
1.187500e+02
1.250000e+02
1.312500e+02
1.375000e+02
1.437500e+02
1.500000e+02
1.562500e+02
1.625000e+02
1.687500e+02
1.750000e+02
1.812500e+02
1.875000e+02
1.937500e+02
2.000000e+02
0.000000e+00
6.250000e+00
1.250000e+01
1.875000e+01
2.500000e+01
3.125000e+01
3.750000e+01
4.375000e+01
5.000000e+01
5.625000e+01
6.250000e+01
6.875000e+01
7.500000e+01
8.125000e+01
8.750000e+01
9.375000e+01
1.000000e+02
1.062500e+02
1.125000e+02
1.187500e+02
1.250000e+02
1.312500e+02
1.375000e+02
1.437500e+02
1.500000e+02
1.562500e+02
1.625000e+02
1.687500e+02
1.750000e+02
1.812500e+02
1.875000e+02
1.937500e+02
2.000000e+02
0.000000e+00
6.250000e+00
1.250000e+01
1.875000e+01
2.500000e+01
3.125000e+01
3.750000e+01
4.375000e+01
5.000000e+01
5.625000e+01
6.250000e+01
6.875000e+01
7.500000e+01
8.125000e+01
8.750000e+01
9.375000e+01
1.000000e+02
1.062500e+02
1.125000e+02
1.187500e+02
1.250000e+02
1.312500e+02
1.375000e+02
1.437500e+02
1.500000e+02
1.562500e+02
1.625000e+02
1.687500e+02
1.750000e+02
1.812500e+02
1.875000e+02
1.937500e+02
2.000000e+02
0.000000e+00
6.250000e+00
1.250000e+01
1.875000e+01
2.500000e+01
3.125000e+01
3.750000e+01
4.375000e+01
5.000000e+01
5.625000e+01
6.250000e+01
6.875000e+01
7.500000e+01
8.125000e+01
8.750000e+01
9.375000e+01
1.000000e+02
1.062500e+02
1.125000e+02
1.187500e+02
1.250000e+02
1.312500e+02
1.375000e+02
1.437500e+02
1.500000e+02
1.562500e+02
1.625000e+02
1.687500e+02
1.750000e+02
1.812500e+02
1.875000e+02
1.937500e+02
2.000000e+02
0.000000e+00
6.250000e+00
1.250000e+01
1.875000e+01
2.500000e+01
3.125000e+01
3.750000e+01
4.375000e+01
5.000000e+01
5.625000e+01
6.250000e+01
6.875000e+01
7.500000e+01
8.125000e+01
8.750000e+01
9.375000e+01
1.000000e+02
1.062500e+02
1.125000e+02
1.187500e+02
1.250000e+02
1.312500e+02
1.375000e+02
1.437500e+02
1.500000e+02
1.562500e+02
1.625000e+02
1.687500e+02
1.750000e+02
1.812500e+02
1.875000e+02
1.937500e+02
2.000000e+02
0.000000e+00
6.250000e+00
1.250000e+01
1.875000e+01
2.500000e+01
3.125000e+01
3.750000e+01
4.375000e+01
5.000000e+01
5.625000e+01
6.250000e+01
6.875000e+01
7.500000e+01
8.125000e+01
8.750000e+01
9.375000e+01
1.000000e+02
1.062500e+02
1.125000e+02
1.187500e+02
1.250000e+02
1.312500e+02
1.375000e+02
1.437500e+02
1.500000e+02
1.562500e+02
1.625000e+02
1.687500e+02
1.750000e+02
1.812500e+02
1.875000e+02
1.937500e+02
2.000000e+02
0.000000e+00
6.250000e+00
1.250000e+01
1.875000e+01
2.500000e+01
3.125000e+01
3.750000e+01
4.375000e+01
5.000000e+01
5.625000e+01
6.250000e+01
6.875000e+01
7.500000e+01
8.125000e+01
8.750000e+01
9.375000e+01
1.000000e+02
1.062500e+02
1.125000e+02
1.187500e+02
1.250000e+02
1.312500e+02
1.375000e+02
1.437500e+02
1.500000e+02
1.562500e+02
1.625000e+02
1.687500e+02
1.750000e+02
1.812500e+02
1.875000e+02
1.937500e+02
2.000000e+02
0.000000e+00
6.250000e+00
1.250000e+01
1.875000e+01
2.500000e+01
3.125000e+01
3.750000e+01
4.375000e+01
5.000000e+01
5.625000e+01
6.250000e+01
6.875000e+01
7.500000e+01
8.125000e+01
8.750000e+01
9.375000e+01
1.000000e+02
1.062500e+02
1.125000e+02
1.187500e+02
1.250000e+02
1.312500e+02
1.375000e+02
1.437500e+02
1.500000e+02
1.562500e+02
1.625000e+02
1.687500e+02
1.750000e+02
1.812500e+02
1.875000e+02
1.937500e+02
2.000000e+02
0.000000e+00
6.250000e+00
1.250000e+01
1.875000e+01
2.500000e+01
3.125000e+01
3.750000e+01
4.375000e+01
5.000000e+01
5.625000e+01
6.250000e+01
6.875000e+01
7.500000e+01
8.125000e+01
8.750000e+01
9.375000e+01
1.000000e+02
1.062500e+02
1.125000e+02
1.187500e+02
1.250000e+02
1.312500e+02
1.375000e+02
1.437500e+02
1.500000e+02
1.562500e+02
1.625000e+02
1.687500e+02
1.750000e+02
1.812500e+02
1.875000e+02
1.937500e+02
2.000000e+02
0.000000e+00
6.250000e+00
1.250000e+01
1.875000e+01
2.500000e+01
3.125000e+01
3.750000e+01
4.375000e+01
5.000000e+01
5.625000e+01
6.250000e+01
6.875000e+01
7.500000e+01
8.125000e+01
8.750000e+01
9.375000e+01
1.000000e+02
1.062500e+02
1.125000e+02
1.187500e+02
1.250000e+02
1.312500e+02
1.375000e+02
1.437500e+02
1.500000e+02
1.562500e+02
1.625000e+02
1.687500e+02
1.750000e+02
1.812500e+02
1.875000e+02
1.937500e+02
2.000000e+02
0.000000e+00
6.250000e+00
1.250000e+01
1.875000e+01
2.500000e+01
3.125000e+01
3.750000e+01
4.375000e+01
5.000000e+01
5.625000e+01
6.250000e+01
6.875000e+01
7.500000e+01
8.125000e+01
8.750000e+01
9.375000e+01
1.000000e+02
1.062500e+02
1.125000e+02
1.187500e+02
1.250000e+02
1.312500e+02
1.375000e+02
1.437500e+02
1.500000e+02
1.562500e+02
1.625000e+02
1.687500e+02
1.750000e+02
1.812500e+02
1.875000e+02
1.937500e+02
2.000000e+02
0.000000e+00
6.250000e+00
1.250000e+01
1.875000e+01
2.500000e+01
3.125000e+01
3.750000e+01
4.375000e+01
5.000000e+01
5.625000e+01
6.250000e+01
6.875000e+01
7.500000e+01
8.125000e+01
8.750000e+01
9.375000e+01
1.000000e+02
1.062500e+02
1.125000e+02
1.187500e+02
1.250000e+02
1.312500e+02
1.375000e+02
1.437500e+02
1.500000e+02
1.562500e+02
1.625000e+02
1.687500e+02
1.750000e+02
1.812500e+02
1.875000e+02
1.937500e+02
2.000000e+02
0.000000e+00
6.250000e+00
1.250000e+01
1.875000e+01
2.500000e+01
3.125000e+01
3.750000e+01
4.375000e+01
5.000000e+01
5.625000e+01
6.250000e+01
6.875000e+01
7.500000e+01
8.125000e+01
8.750000e+01
9.375000e+01
1.000000e+02
1.062500e+02
1.125000e+02
1.187500e+02
1.250000e+02
1.312500e+02
1.375000e+02
1.437500e+02
1.500000e+02
1.562500e+02
1.625000e+02
1.687500e+02
1.750000e+02
1.812500e+02
1.875000e+02
1.937500e+02
2.000000e+02
0.000000e+00
6.250000e+00
1.250000e+01
1.875000e+01
2.500000e+01
3.125000e+01
3.750000e+01
4.375000e+01
5.000000e+01
5.625000e+01
6.250000e+01
6.875000e+01
7.500000e+01
8.125000e+01
8.750000e+01
9.375000e+01
1.000000e+02
1.062500e+02
1.125000e+02
1.187500e+02
1.250000e+02
1.312500e+02
1.375000e+02
1.437500e+02
1.500000e+02
1.562500e+02
1.625000e+02
1.687500e+02
1.750000e+02
1.812500e+02
1.875000e+02
1.937500e+02
2.000000e+02
0.000000e+00
0.000000e+00
0.000000e+00
0.000000e+00
0.000000e+00
0.000000e+00
0.000000e+00
0.000000e+00
0.000000e+00
0.000000e+00
0.000000e+00
0.000000e+00
0.000000e+00
0.000000e+00
0.000000e+00
0.000000e+00
0.000000e+00
0.000000e+00
0.000000e+00
0.000000e+00
0.000000e+00
0.000000e+00
0.000000e+00
0.000000e+00
0.000000e+00
0.000000e+00
0.000000e+00
0.000000e+00
0.000000e+00
0.000000e+00
0.000000e+00
0.000000e+00
0.000000e+00
6.250000e+00
6.250000e+00
6.250000e+00
6.250000e+00
6.250000e+00
6.250000e+00
6.250000e+00
6.250000e+00
6.250000e+00
6.250000e+00
6.250000e+00
6.250000e+00
6.250000e+00
6.250000e+00
6.250000e+00
6.250000e+00
6.250000e+00
6.250000e+00
6.250000e+00
6.250000e+00
6.250000e+00
6.250000e+00
6.250000e+00
6.250000e+00
6.250000e+00
6.250000e+00
6.250000e+00
6.250000e+00
6.250000e+00
6.250000e+00
6.250000e+00
6.250000e+00
6.250000e+00
1.250000e+01
1.250000e+01
1.250000e+01
1.250000e+01
1.250000e+01
1.250000e+01
1.250000e+01
1.250000e+01
1.250000e+01
1.250000e+01
1.250000e+01
1.250000e+01
1.250000e+01
1.250000e+01
1.250000e+01
1.250000e+01
1.250000e+01
1.250000e+01
1.250000e+01
1.250000e+01
1.250000e+01
1.250000e+01
1.250000e+01
1.250000e+01
1.250000e+01
1.250000e+01
1.250000e+01
1.250000e+01
1.250000e+01
1.250000e+01
1.250000e+01
1.250000e+01
1.250000e+01
1.875000e+01
1.875000e+01
1.875000e+01
1.875000e+01
1.875000e+01
1.875000e+01
1.875000e+01
1.875000e+01
1.875000e+01
1.875000e+01
1.875000e+01
1.875000e+01
1.875000e+01
1.875000e+01
1.875000e+01
1.875000e+01
1.875000e+01
1.875000e+01
1.875000e+01
1.875000e+01
1.875000e+01
1.875000e+01
1.875000e+01
1.875000e+01
1.875000e+01
1.875000e+01
1.875000e+01
1.875000e+01
1.875000e+01
1.875000e+01
1.875000e+01
1.875000e+01
1.875000e+01
2.500000e+01
2.500000e+01
2.500000e+01
2.500000e+01
2.500000e+01
2.500000e+01
2.500000e+01
2.500000e+01
2.500000e+01
2.500000e+01
2.500000e+01
2.500000e+01
2.500000e+01
2.500000e+01
2.500000e+01
2.500000e+01
2.500000e+01
2.500000e+01
2.500000e+01
2.500000e+01
2.500000e+01
2.500000e+01
2.500000e+01
2.500000e+01
2.500000e+01
2.500000e+01
2.500000e+01
2.500000e+01
2.500000e+01
2.500000e+01
2.500000e+01
2.500000e+01
2.500000e+01
3.125000e+01
3.125000e+01
3.125000e+01
3.125000e+01
3.125000e+01
3.125000e+01
3.125000e+01
3.125000e+01
3.125000e+01
3.125000e+01
3.125000e+01
3.125000e+01
3.125000e+01
3.125000e+01
3.125000e+01
3.125000e+01
3.125000e+01
3.125000e+01
3.125000e+01
3.125000e+01
3.125000e+01
3.125000e+01
3.125000e+01
3.125000e+01
3.125000e+01
3.125000e+01
3.125000e+01
3.125000e+01
3.125000e+01
3.125000e+01
3.125000e+01
3.125000e+01
3.125000e+01
3.750000e+01
3.750000e+01
3.750000e+01
3.750000e+01
3.750000e+01
3.750000e+01
3.750000e+01
3.750000e+01
3.750000e+01
3.750000e+01
3.750000e+01
3.750000e+01
3.750000e+01
3.750000e+01
3.750000e+01
3.750000e+01
3.750000e+01
3.750000e+01
3.750000e+01
3.750000e+01
3.750000e+01
3.750000e+01
3.750000e+01
3.750000e+01
3.750000e+01
3.750000e+01
3.750000e+01
3.750000e+01
3.750000e+01
3.750000e+01
3.750000e+01
3.750000e+01
3.750000e+01
4.375000e+01
4.375000e+01
4.375000e+01
4.375000e+01
4.375000e+01
4.375000e+01
4.375000e+01
4.375000e+01
4.375000e+01
4.375000e+01
4.375000e+01
4.375000e+01
4.375000e+01
4.375000e+01
4.375000e+01
4.375000e+01
4.375000e+01
4.375000e+01
4.375000e+01
4.375000e+01
4.375000e+01
4.375000e+01
4.375000e+01
4.375000e+01
4.375000e+01
4.375000e+01
4.375000e+01
4.375000e+01
4.375000e+01
4.375000e+01
4.375000e+01
4.375000e+01
4.375000e+01
5.000000e+01
5.000000e+01
5.000000e+01
5.000000e+01
5.000000e+01
5.000000e+01
5.000000e+01
5.000000e+01
5.000000e+01
5.000000e+01
5.000000e+01
5.000000e+01
5.000000e+01
5.000000e+01
5.000000e+01
5.000000e+01
5.000000e+01
5.000000e+01
5.000000e+01
5.000000e+01
5.000000e+01
5.000000e+01
5.000000e+01
5.000000e+01
5.000000e+01
5.000000e+01
5.000000e+01
5.000000e+01
5.000000e+01
5.000000e+01
5.000000e+01
5.000000e+01
5.000000e+01
5.625000e+01
5.625000e+01
5.625000e+01
5.625000e+01
5.625000e+01
5.625000e+01
5.625000e+01
5.625000e+01
5.625000e+01
5.625000e+01
5.625000e+01
5.625000e+01
5.625000e+01
5.625000e+01
5.625000e+01
5.625000e+01
5.625000e+01
5.625000e+01
5.625000e+01
5.625000e+01
5.625000e+01
5.625000e+01
5.625000e+01
5.625000e+01
5.625000e+01
5.625000e+01
5.625000e+01
5.625000e+01
5.625000e+01
5.625000e+01
5.625000e+01
5.625000e+01
5.625000e+01
6.250000e+01
6.250000e+01
6.250000e+01
6.250000e+01
6.250000e+01
6.250000e+01
6.250000e+01
6.250000e+01
6.250000e+01
6.250000e+01
6.250000e+01
6.250000e+01
6.250000e+01
6.250000e+01
6.250000e+01
6.250000e+01
6.250000e+01
6.250000e+01
6.250000e+01
6.250000e+01
6.250000e+01
6.250000e+01
6.250000e+01
6.250000e+01
6.250000e+01
6.250000e+01
6.250000e+01
6.250000e+01
6.250000e+01
6.250000e+01
6.250000e+01
6.250000e+01
6.250000e+01
6.875000e+01
6.875000e+01
6.875000e+01
6.875000e+01
6.875000e+01
6.875000e+01
6.875000e+01
6.875000e+01
6.875000e+01
6.875000e+01
6.875000e+01
6.875000e+01
6.875000e+01
6.875000e+01
6.875000e+01
6.875000e+01
6.875000e+01
6.875000e+01
6.875000e+01
6.875000e+01
6.875000e+01
6.875000e+01
6.875000e+01
6.875000e+01
6.875000e+01
6.875000e+01
6.875000e+01
6.875000e+01
6.875000e+01
6.875000e+01
6.875000e+01
6.875000e+01
6.875000e+01
7.500000e+01
7.500000e+01
7.500000e+01
7.500000e+01
7.500000e+01
7.500000e+01
7.500000e+01
7.500000e+01
7.500000e+01
7.500000e+01
7.500000e+01
7.500000e+01
7.500000e+01
7.500000e+01
7.500000e+01
7.500000e+01
7.500000e+01
7.500000e+01
7.500000e+01
7.500000e+01
7.500000e+01
7.500000e+01
7.500000e+01
7.500000e+01
7.500000e+01
7.500000e+01
7.500000e+01
7.500000e+01
7.500000e+01
7.500000e+01
7.500000e+01
7.500000e+01
7.500000e+01
8.125000e+01
8.125000e+01
8.125000e+01
8.125000e+01
8.125000e+01
8.125000e+01
8.125000e+01
8.125000e+01
8.125000e+01
8.125000e+01
8.125000e+01
8.125000e+01
8.125000e+01
8.125000e+01
8.125000e+01
8.125000e+01
8.125000e+01
8.125000e+01
8.125000e+01
8.125000e+01
8.125000e+01
8.125000e+01
8.125000e+01
8.125000e+01
8.125000e+01
8.125000e+01
8.125000e+01
8.125000e+01
8.125000e+01
8.125000e+01
8.125000e+01
8.125000e+01
8.125000e+01
8.750000e+01
8.750000e+01
8.750000e+01
8.750000e+01
8.750000e+01
8.750000e+01
8.750000e+01
8.750000e+01
8.750000e+01
8.750000e+01
8.750000e+01
8.750000e+01
8.750000e+01
8.750000e+01
8.750000e+01
8.750000e+01
8.750000e+01
8.750000e+01
8.750000e+01
8.750000e+01
8.750000e+01
8.750000e+01
8.750000e+01
8.750000e+01
8.750000e+01
8.750000e+01
8.750000e+01
8.750000e+01
8.750000e+01
8.750000e+01
8.750000e+01
8.750000e+01
8.750000e+01
9.375000e+01
9.375000e+01
9.375000e+01
9.375000e+01
9.375000e+01
9.375000e+01
9.375000e+01
9.375000e+01
9.375000e+01
9.375000e+01
9.375000e+01
9.375000e+01
9.375000e+01
9.375000e+01
9.375000e+01
9.375000e+01
9.375000e+01
9.375000e+01
9.375000e+01
9.375000e+01
9.375000e+01
9.375000e+01
9.375000e+01
9.375000e+01
9.375000e+01
9.375000e+01
9.375000e+01
9.375000e+01
9.375000e+01
9.375000e+01
9.375000e+01
9.375000e+01
9.375000e+01
1.000000e+02
1.000000e+02
1.000000e+02
1.000000e+02
1.000000e+02
1.000000e+02
1.000000e+02
1.000000e+02
1.000000e+02
1.000000e+02
1.000000e+02
1.000000e+02
1.000000e+02
1.000000e+02
1.000000e+02
1.000000e+02
1.000000e+02
1.000000e+02
1.000000e+02
1.000000e+02
1.000000e+02
1.000000e+02
1.000000e+02
1.000000e+02
1.000000e+02
1.000000e+02
1.000000e+02
1.000000e+02
1.000000e+02
1.000000e+02
1.000000e+02
1.000000e+02
1.000000e+02
0.000000e+00
-3.793560e-01
-6.809213e-01
-9.759929e-01
-1.277331e+00
-1.569746e+00
-1.861955e+00
-2.155655e+00
-2.447674e+00
-2.738474e+00
-3.028830e+00
-3.318290e+00
-3.606483e+00
-3.893315e+00
-4.178553e+00
-4.461804e+00
-4.742593e+00
-5.020284e+00
-5.293977e+00
-5.562483e+00
-5.824475e+00
-6.078806e+00
-6.324881e+00
-6.562981e+00
-6.794457e+00
-7.021833e+00
-7.248899e+00
-7.480963e+00
-7.725712e+00
-7.994276e+00
-8.293243e+00
-8.607193e+00
-8.788497e+00
0.000000e+00
-2.382659e-01
-4.931095e-01
-7.495980e-01
-1.013152e+00
-1.269492e+00
-1.525325e+00
-1.782561e+00
-2.038342e+00
-2.292881e+00
-2.546927e+00
-2.800138e+00
-3.052176e+00
-3.302965e+00
-3.552320e+00
-3.799907e+00
-4.045311e+00
-4.287974e+00
-4.527092e+00
-4.761559e+00
-4.990063e+00
-5.211311e+00
-5.424318e+00
-5.628621e+00
-5.824363e+00
-6.012233e+00
-6.193284e+00
-6.368578e+00
-6.538026e+00
-6.695305e+00
-6.816024e+00
-6.878118e+00
-6.959065e+00
0.000000e+00
-1.749501e-01
-3.632596e-01
-5.722109e-01
-7.915118e-01
-1.008697e+00
-1.227335e+00
-1.447555e+00
-1.667118e+00
-1.886028e+00
-2.104570e+00
-2.322391e+00
-2.539190e+00
-2.754812e+00
-2.969008e+00
-3.181407e+00
-3.391542e+00
-3.598795e+00
-3.802324e+00
-4.001021e+00
-4.193565e+00
-4.378555e+00
-4.554678e+00
-4.720804e+00
-4.875974e+00
-5.019234e+00
-5.149273e+00
-5.263709e+00
-5.357483e+00
-5.419665e+00
-5.436833e+00
-5.431405e+00
-5.513305e+00
0.000000e+00
-1.344024e-01
-2.788955e-01
-4.408125e-01
-6.142190e-01
-7.910156e-01
-9.714453e-01
-1.153902e+00
-1.336758e+00
-1.519721e+00
-1.702541e+00
-1.884789e+00
-2.066148e+00
-2.246345e+00
-2.425028e+00
-2.601754e+00
-2.775976e+00
-2.946997e+00
-3.113927e+00
-3.275664e+00
-3.430910e+00
-3.578224e+00
-3.716088e+00
-3.842928e+00
-3.957057e+00
-4.056517e+00
-4.138800e+00
-4.200461e+00
-4.236860e+00
-4.243630e+00
-4.228722e+00
-4.231192e+00
-4.306330e+00
0.000000e+00
-1.083146e-01
-2.212856e-01
-3.444595e-01
-4.756140e-01
-6.130538e-01
-7.546323e-01
-8.986061e-01
-1.043926e+00
-1.189897e+00
-1.335944e+00
-1.481615e+00
-1.626532e+00
-1.770318e+00
-1.912554e+00
-2.052747e+00
-2.190299e+00
-2.324479e+00
-2.454396e+00
-2.578988e+00
-2.697010e+00
-2.807047e+00
-2.907523e+00
-2.996708e+00
-3.072689e+00
-3.133328e+00
-3.176265e+00
-3.199172e+00
-3.200877e+00
-3.185313e+00
-3.171523e+00
-3.194803e+00
-3.268490e+00
0.000000e+00
-8.180273e-02
-1.666074e-01
-2.562278e-01
-3.517524e-01
-4.522177e-01
-5.563690e-01
-6.629699e-01
-7.710921e-01
-8.800139e-01
-9.891531e-01
-1.098045e+00
-1.206284e+00
-1.313468e+00
-1.419160e+00
-1.522858e+00
-1.623964e+00
-1.721768e+00
-1.815424e+00
-1.903939e+00
-1.986164e+00
-2.060789e+00
-2.126354e+00
-2.181269e+00
-2.223872e+00
-2.252544e+00
-2.266006e+00
-2.264055e+00
-2.249243e+00
-2.230363e+00
-2.226899e+00
-2.259688e+00
-2.332237e+00
0.000000e+00
-5.468778e-02
-1.111085e-01
-1.703403e-01
-2.329529e-01
-2.988244e-01
-3.672990e-01
-4.376460e-01
-5.092020e-01
-5.814068e-01
-6.537953e-01
-7.259751e-01
-7.975878e-01
-8.682717e-01
-9.376311e-01
-1.005209e+00
-1.070465e+00
-1.132758e+00
-1.191333e+00
-1.245315e+00
-1.293704e+00
-1.335387e+00
-1.369168e+00
-1.393838e+00
-1.408307e+00
-1.411849e+00
-1.404563e+00
-1.388211e+00
-1.367612e+00
-1.352515e+00
-1.357360e+00
-1.393914e+00
-1.460541e+00
0.000000e+00
-2.740651e-02
-5.566896e-02
-8.521368e-02
-1.163197e-01
-1.489698e-01
-1.829228e-01
-2.178303e-01
-2.533442e-01
-2.891501e-01
-3.249711e-01
-3.605554e-01
-3.956566e-01
-4.300116e-01
-4.633190e-01
-4.952202e-01
-5.252818e-01
-5.529835e-01
-5.777109e-01
-5.987562e-01
-6.153316e-01
-6.266009e-01
-6.317425e-01
-6.300584e-01
-6.211557e-01
-6.052388e-01
-5.835616e-01
-5.590773e-01
-5.372102e-01
-5.262155e-01
-5.355924e-01
-5.708408e-01
-6.276895e-01
0.000000e+00
-1.582858e-04
-3.034807e-04
-4.277693e-04
-5.194239e-04
-5.632941e-04
-5.403511e-04
-4.263874e-04
-1.900493e-04
2.097607e-04
8.272373e-04
1.734076e-03
3.025311e-03
4.826942e-03
7.305485e-03
1.067904e-02
1.522847e-02
2.130593e-02
2.933630e-02
3.980633e-02
5.323580e-02
7.012468e-02
9.086831e-02
1.156292e-01
1.441499e-01
1.754917e-01
2.076989e-01
2.374393e-01
2.598029e-01
2.686965e-01
2.586274e-01
2.280920e-01
1.824473e-01
0.000000e+00
2.709087e-02
5.506205e-02
8.435601e-02
1.152751e-01
1.478317e-01
1.818212e-01
2.169421e-01
2.529068e-01
2.894798e-01
3.264883e-01
3.638176e-01
4.014015e-01
4.392147e-01
4.772689e-01
5.156136e-01
5.543418e-01
5.935950e-01
6.335604e-01
6.744533e-01
7.164774e-01
7.597617e-01
8.042716e-01
8.496891e-01
8.952576e-01
9.395934e-01
9.804941e-01
1.014827e+00
1.038672e+00
1.047998e+00
1.040183e+00
1.016112e+00
9.815713e-01
0.000000e+00
5.437485e-02
1.105017e-01
1.694766e-01
2.318917e-01
2.976519e-01
3.661340e-01
4.366486e-01
5.085864e-01
5.814570e-01
6.548870e-01
7.286021e-01
8.023972e-01
8.761088e-01
9.495968e-01
1.022735e+00
1.095406e+00
1.167508e+00
1.238945e+00
1.309612e+00
1.379350e+00
1.447894e+00
1.514800e+00
1.579362e+00
1.640506e+00
1.696686e+00
1.745802e+00
1.785238e+00
1.812148e+00
1.824151e+00
1.820514e+00
1.803499e+00
1.779165e+00
0.000000e+00
8.149521e-02
1.660033e-01
2.553589e-01
3.506706e-01
4.509955e-01
5.551035e-01
6.617915e-01
7.701743e-01
8.795861e-01
9.895158e-01
1.099589e+00
1.209514e+00
1.319028e+00
1.427868e+00
1.535747e+00
1.642341e+00
1.747282e+00
1.850152e+00
1.950466e+00
2.047644e+00
2.140990e+00
2.229665e+00
2.312659e+00
2.388748e+00
2.456445e+00
2.513980e+00
2.559396e+00
2.590833e+00
2.607130e+00
2.608715e+00
2.598619e+00
2.583163e+00
0.000000e+00
1.080202e-01
2.206998e-01
3.436088e-01
4.745370e-01
6.118024e-01
7.532713e-01
8.972216e-01
1.042634e+00
1.188849e+00
1.335341e+00
1.481712e+00
1.627650e+00
1.772855e+00
1.916989e+00
2.059646e+00
2.200326e+00
2.338399e+00
2.473088e+00
2.603450e+00
2.728387e+00
2.846697e+00
2.957125e+00
3.058411e+00
3.149294e+00
3.228498e+00
3.294726e+00
3.346737e+00
3.383569e+00
3.404971e+00
3.412081e+00
3.408284e+00
3.400107e+00
0.000000e+00
1.341515e-01
2.783873e-01
4.400693e-01
6.132602e-01
7.898636e-01
9.701283e-01
1.152452e+00
1.335221e+00
1.518160e+00
1.701038e+00
1.883447e+00
2.065089e+00
2.245701e+00
2.424930e+00
2.602307e+00
2.777214e+00
2.948801e+00
3.115903e+00
3.277019e+00
3.430394e+00
3.574195e+00
3.706687e+00
3.826360e+00
3.931964e+00
4.022507e+00
4.097233e+00
4.155667e+00
4.197730e+00
4.223995e+00
4.236122e+00
4.237579e+00
4.234841e+00
0.000000e+00
1.748121e-01
3.629729e-01
5.717794e-01
7.909363e-01
1.007971e+00
1.226457e+00
1.446515e+00
1.665898e+00
1.884610e+00
2.102929e+00
2.320486e+00
2.536955e+00
2.752138e+00
2.965709e+00
3.177183e+00
3.385895e+00
3.590839e+00
3.790478e+00
3.982684e+00
4.164912e+00
4.334558e+00
4.489298e+00
4.627292e+00
4.747251e+00
4.848418e+00
4.930552e+00
4.993947e+00
5.039492e+00
5.068748e+00
5.084088e+00
5.089080e+00
5.089653e+00
0.000000e+00
2.382861e-01
4.931311e-01
7.496153e-01
1.013156e+00
1.269465e+00
1.525257e+00
1.782431e+00
2.038108e+00
2.292489e+00
2.546296e+00
2.799150e+00
3.050661e+00
3.300664e+00
3.548848e+00
3.794697e+00
4.037497e+00
4.276095e+00
4.508585e+00
4.732205e+00
4.943597e+00
5.139334e+00
5.316418e+00
5.472555e+00
5.606240e+00
5.716746e+00
5.804143e+00
5.869368e+00
5.914332e+00
5.941969e+00
5.956126e+00
5.961272e+00
5.962527e+00
0.000000e+00
3.795058e-01
6.812230e-01
9.764620e-01
1.277961e+00
1.570525e+00
1.862897e+00
2.156765e+00
2.448940e+00
2.739878e+00
3.030331e+00
3.319812e+00
3.607897e+00
3.894406e+00
4.178965e+00
4.460974e+00
4.739568e+00
5.013316e+00
5.279859e+00
5.535804e+00
5.777067e+00
5.999487e+00
6.199378e+00
6.373835e+00
6.520825e+00
6.639224e+00
6.728926e+00
6.791060e+00
6.828311e+00
6.845241e+00
6.848437e+00
6.845987e+00
6.844582e+00
0.000000e+00
-2.329373e-01
-4.339566e-01
-6.736559e-01
-9.444109e-01
-1.247420e+00
-1.586859e+00
-1.962165e+00
-2.373277e+00
-2.821087e+00
-3.305788e+00
-3.827287e+00
-4.385603e+00
-4.980684e+00
-5.612323e+00
-6.280210e+00
-6.983924e+00
-7.722878e+00
-8.496280e+00
-9.303144e+00
-1.014237e+01
-1.101290e+01
-1.191394e+01
-1.284525e+01
-1.380747e+01
-1.480269e+01
-1.583509e+01
-1.691201e+01
-1.804538e+01
-1.925536e+01
-2.058891e+01
-2.217329e+01
-2.433080e+01
0.000000e+00
-1.448309e-01
-3.550762e-01
-5.907338e-01
-8.616067e-01
-1.165666e+00
-1.504674e+00
-1.879920e+00
-2.291433e+00
-2.739458e+00
-3.224341e+00
-3.746158e+00
-4.304863e+00
-4.900381e+00
-5.532550e+00
-6.201094e+00
-6.905626e+00
-7.645619e+00
-8.420368e+00
-9.228962e+00
-1.007032e+01
-1.094330e+01
-1.184695e+01
-1.278080e+01
-1.374524e+01
-1.474209e+01
-1.577534e+01
-1.685220e+01
-1.798498e+01
-1.919604e+01
-2.053164e+01
-2.208783e+01
-2.407258e+01
0.000000e+00
-1.088821e-01
-2.945178e-01
-5.250028e-01
-7.931182e-01
-1.096247e+00
-1.434530e+00
-1.809361e+00
-2.220859e+00
-2.668985e+00
-3.154031e+00
-3.676129e+00
-4.235224e+00
-4.831226e+00
-5.463995e+00
-6.133286e+00
-6.838748e+00
-7.579911e+00
-8.356142e+00
-9.166602e+00
-1.001025e+01
-1.088593e+01
-1.179263e+01
-1.272977e+01
-1.369765e+01
-1.469802e+01
-1.573492e+01
-1.681595e+01
-1.795495e+01
-1.917604e+01
-2.051021e+01
-2.197218e+01
-2.353945e+01
0.000000e+00
-9.679653e-02
-2.620857e-01
-4.799389e-01
-7.416902e-01
-1.041207e+00
-1.377524e+00
-1.751186e+00
-2.162069e+00
-2.609990e+00
-3.095089e+00
-3.617433e+00
-4.176954e+00
-4.773556e+00
-5.407102e+00
-6.077375e+00
-6.784057e+00
-7.526723e+00
-8.304789e+00
-9.117470e+00
-9.963773e+00
-1.084259e+01
-1.175289e+01
-1.269410e+01
-1.366648e+01
-1.467171e+01
-1.571375e+01
-1.680011e+01
-1.794403e+01
-1.916493e+01
-2.046747e+01
-2.180846e+01
-2.305053e+01
0.000000e+00
-9.564991e-02
-2.484701e-01
-4.545149e-01
-7.071142e-01
-1.001119e+00
-1.334170e+00
-1.705778e+00
-2.115447e+00
-2.562823e+00
-3.047818e+00
-3.570367e+00
-4.130364e+00
-4.727694e+00
-5.362216e+00
-6.033724e+00
-6.741931e+00
-7.486435e+00
-8.266683e+00
-9.081924e+00
-9.931208e+00
-1.081347e+01
-1.172772e+01
-1.267333e+01
-1.365045e+01
-1.466045e+01
-1.570664e+01
-1.679501e+01
-1.793493e+01
-1.913555e+01
-2.038204e+01
-2.160487e+01
-2.269700e+01
0.000000e+00
-9.460153e-02
-2.418154e-01
-4.397892e-01
-6.849948e-01
-9.734980e-01
-1.303027e+00
-1.672310e+00
-2.080550e+00
-2.527230e+00
-3.012043e+00
-3.534789e+00
-4.095309e+00
-4.693463e+00
-5.329097e+00
-6.002019e+00
-6.711955e+00
-7.458520e+00
-8.241173e+00
-9.059179e+00
-9.911609e+00
-1.079741e+01
-1.171555e+01
-1.266527e+01
-1.364638e+01
-1.465957e+01
-1.570675e+01
-1.679110e+01
-1.791619e+01
-1.908052e+01
-2.025763e+01
-2.138534e+01
-2.238247e+01
0.000000e+00
-9.353674e-02
-2.377202e-01
-4.310693e-01
-6.712738e-01
-9.557110e-01
-1.282289e+00
-1.649576e+00
-2.056587e+00
-2.502651e+00
-2.987321e+00
-3.510298e+00
-4.071374e+00
-4.670383e+00
-5.307172e+00
-5.981556e+00
-6.693275e+00
-7.441955e+00
-8.227056e+00
-9.047838e+00
-9.903350e+00
-1.079248e+01
-1.171406e+01
-1.266701e+01
-1.365058e+01
-1.466441e+01
-1.570852e+01
-1.678278e+01
-1.788511e+01
-1.900611e+01
-2.011711e+01
-2.116798e+01
-2.209897e+01
0.000000e+00
-9.286443e-02
-2.354037e-01
-4.263226e-01
-6.638067e-01
-9.458241e-01
-1.270559e+00
-1.636579e+00
-2.042826e+00
-2.488547e+00
-2.973219e+00
-3.496490e+00
-4.058124e+00
-4.657951e+00
-5.295825e+00
-5.971577e+00
-6.684967e+00
-7.435629e+00
-8.223020e+00
-9.046369e+00
-9.904655e+00
-1.079662e+01
-1.172083e+01
-1.267577e+01
-1.365990e+01
-1.467161e+01
-1.570895e+01
-1.676879e+01
-1.784487e+01
-1.892386e+01
-1.997919e+01
-2.097181e+01
-2.185868e+01
0.000000e+00
-9.264843e-02
-2.346770e-01
-4.248608e-01
-6.615195e-01
-9.427984e-01
-1.266982e+00
-1.632662e+00
-2.038769e+00
-2.484530e+00
-2.969407e+00
-3.493042e+00
-4.055205e+00
-4.655740e+00
-5.294524e+00
-5.971418e+00
-6.686208e+00
-7.438544e+00
-8.227875e+00
-9.053380e+00
-9.913918e+00
-1.080802e+01
-1.173387e+01
-1.268941e+01
-1.367221e+01
-1.467946e+01
-1.570745e+01
-1.675082e+01
-1.780091e+01
-1.884332e+01
-1.985514e+01
-2.080647e+01
-2.166583e+01
0.000000e+00
-9.289870e-02
-2.354906e-01
-4.264937e-01
-6.641028e-01
-9.462939e-01
-1.271260e+00
-1.637580e+00
-2.044212e+00
-2.490421e+00
-2.975711e+00
-3.499764e+00
-4.062385e+00
-4.663456e+00
-5.302893e+00
-5.980595e+00
-6.696386e+00
-7.449942e+00
-8.240707e+00
-9.067796e+00
-9.929917e+00
-1.082532e+01
-1.175179e+01
-1.270661e+01
-1.368657e+01
-1.468771e+01
-1.570505e+01
-1.673181e+01
-1.775837e+01
-1.877093e+01
-1.975052e+01
-2.067434e+01
-2.151883e+01
0.000000e+00
-9.359615e-02
-2.378778e-01
-4.313893e-01
-6.718368e-01
-9.566117e-01
-1.283639e+00
-1.651508e+00
-2.059262e+00
-2.506269e+00
-2.992132e+00
-3.516613e+00
-4.079583e+00
-4.680977e+00
-5.320755e+00
-5.998864e+00
-6.715173e+00
-7.469397e+00
-8.260982e+00
-9.088980e+00
-9.951930e+00
-1.084778e+01
-1.177388e+01
-1.272691e+01
-1.370291e+01
-1.469709e+01
-1.570354e+01
-1.671479e+01
-1.772121e+01
-1.871040e+01
-1.966707e+01
-2.057399e+01
-2.141343e+01
0.000000e+00
-9.466736e-02
-2.420116e-01
-4.402156e-01
-6.857689e-01
-9.747538e-01
-1.304921e+00
-1.675030e+00
-2.084324e+00
-2.532337e+00
-3.018832e+00
-3.543694e+00
-4.106871e+00
-4.708355e+00
-5.348154e+00
-6.026255e+00
-6.742575e+00
-7.496874e+00
-8.288615e+00
-9.116794e+00
-9.979779e+00
-1.087523e+01
-1.180005e+01
-1.275044e+01
-1.372180e+01
-1.470873e+01
-1.570479e+01
-1.670228e+01
-1.769204e+01
-1.866336e+01
-1.960424e+01
-2.050204e+01
-2.134401e+01
0.000000e+00
-9.569482e-02
-2.486618e-01
-4.549915e-01
-7.080235e-01
-1.002624e+00
-1.336462e+00
-1.709087e+00
-2.120049e+00
-2.569059e+00
-3.056108e+00
-3.581235e+00
-4.144457e+00
-4.745814e+00
-5.385350e+00
-6.063078e+00
-6.778947e+00
-7.532760e+00
-8.324001e+00
-9.151613e+00
-1.001381e+01
-1.090798e+01
-1.183068e+01
-1.277769e+01
-1.374400e+01
-1.472380e+01
-1.571036e+01
-1.669604e+01
-1.767230e+01
-1.863007e+01
-1.956020e+01
-2.045417e+01
-2.130415e+01
0.000000e+00
-9.679180e-02
-2.622357e-01
-4.804114e-01
-7.426541e-01
-1.042842e+00
-1.380043e+00
-1.754846e+00
-2.167178e+00
-2.616927e+00
-3.104320e+00
-3.629535e+00
-4.192636e+00
-4.793691e+00
-5.432760e+00
-6.109857e+00
-6.824932e+00
-7.577800e+00
-8.367938e+00
-9.194230e+00
-1.005475e+01
-1.094668e+01
-1.186634e+01
-1.280926e+01
-1.377018e+01
-1.474308e+01
-1.572116e+01
-1.669689e+01
-1.766235e+01
-1.860978e+01
-1.953244e+01
-2.042556e+01
-2.128666e+01
0.000000e+00
-1.088324e-01
-2.946291e-01
-5.254500e-01
-7.940813e-01
-1.097915e+00
-1.437125e+00
-1.813154e+00
-2.226172e+00
-2.676215e+00
-3.163664e+00
-3.688765e+00
-4.251596e+00
-4.852232e+00
-5.490726e+00
-6.167065e+00
-6.881160e+00
-7.632771e+00
-8.421302e+00
-9.245531e+00
-1.010342e+01
-1.099203e+01
-1.190759e+01
-1.284557e+01
-1.380065e+01
-1.476678e+01
-1.573720e+01
-1.670457e+01
-1.766142e+01
-1.860091e+01
-1.951803e+01
-2.041115e+01
-2.128350e+01
0.000000e+00
-1.447793e-01
-3.551802e-01
-5.911706e-01
-8.625623e-01
-1.167334e+00
-1.507280e+00
-1.883735e+00
-2.296783e+00
-2.746741e+00
-3.234047e+00
-3.758885e+00
-4.321339e+00
-4.921492e+00
-5.559369e+00
-6.234908e+00
-6.947947e+00
-7.698112e+00
-8.484624e+00
-9.306089e+00
-1.016035e+01
-1.104447e+01
-1.195474e+01
-1.288672e+01
-1.383523e+01
-1.479434e+01
-1.575745e+01
-1.671745e+01
-1.766725e+01
-1.860056e+01
-1.951335e+01
-2.040594e+01
-2.128600e+01
0.000000e+00
-2.329251e-01
-4.340878e-01
-6.741197e-01
-9.453894e-01
-1.249111e+00
-1.589491e+00
-1.966004e+00
-2.378647e+00
-2.828383e+00
-3.315491e+00
-3.839984e+00
-4.402005e+00
-5.001647e+00
-5.638876e+00
-6.313572e+00
-7.025467e+00
-7.773989e+00
-8.558086e+00
-9.376113e+00
-1.022580e+01
-1.110426e+01
-1.200795e+01