TITLE = "Solution"
VARIABLES = x, y, u, v, psiu, psiv, t, stress
ZONE T="structure" N=153 E=128 F=FEBLOCK ET=QUADRILATERAL VARLOCATION=([7,8]=cellcentered)
0.000000e+00
1.250000e+01
2.500000e+01
3.750000e+01
5.000000e+01
6.250000e+01
7.500000e+01
8.750000e+01
1.000000e+02
1.125000e+02
1.250000e+02
1.375000e+02
1.500000e+02
1.625000e+02
1.750000e+02
1.875000e+02
2.000000e+02
0.000000e+00
1.250000e+01
2.500000e+01
3.750000e+01
5.000000e+01
6.250000e+01
7.500000e+01
8.750000e+01
1.000000e+02
1.125000e+02
1.250000e+02
1.375000e+02
1.500000e+02
1.625000e+02
1.750000e+02
1.875000e+02
2.000000e+02
0.000000e+00
1.250000e+01
2.500000e+01
3.750000e+01
5.000000e+01
6.250000e+01
7.500000e+01
8.750000e+01
1.000000e+02
1.125000e+02
1.250000e+02
1.375000e+02
1.500000e+02
1.625000e+02
1.750000e+02
1.875000e+02
2.000000e+02
0.000000e+00
1.250000e+01
2.500000e+01
3.750000e+01
5.000000e+01
6.250000e+01
7.500000e+01
8.750000e+01
1.000000e+02
1.125000e+02
1.250000e+02
1.375000e+02
1.500000e+02
1.625000e+02
1.750000e+02
1.875000e+02
2.000000e+02
0.000000e+00
1.250000e+01
2.500000e+01
3.750000e+01
5.000000e+01
6.250000e+01
7.500000e+01
8.750000e+01
1.000000e+02
1.125000e+02
1.250000e+02
1.375000e+02
1.500000e+02
1.625000e+02
1.750000e+02
1.875000e+02
2.000000e+02
0.000000e+00
1.250000e+01
2.500000e+01
3.750000e+01
5.000000e+01
6.250000e+01
7.500000e+01
8.750000e+01
1.000000e+02
1.125000e+02
1.250000e+02
1.375000e+02
1.500000e+02
1.625000e+02
1.750000e+02
1.875000e+02
2.000000e+02
0.000000e+00
1.250000e+01
2.500000e+01
3.750000e+01
5.000000e+01
6.250000e+01
7.500000e+01
8.750000e+01
1.000000e+02
1.125000e+02
1.250000e+02
1.375000e+02
1.500000e+02
1.625000e+02
1.750000e+02
1.875000e+02
2.000000e+02
0.000000e+00
1.250000e+01
2.500000e+01
3.750000e+01
5.000000e+01
6.250000e+01
7.500000e+01
8.750000e+01
1.000000e+02
1.125000e+02
1.250000e+02
1.375000e+02
1.500000e+02
1.625000e+02
1.750000e+02
1.875000e+02
2.000000e+02
0.000000e+00
1.250000e+01
2.500000e+01
3.750000e+01
5.000000e+01
6.250000e+01
7.500000e+01
8.750000e+01
1.000000e+02
1.125000e+02
1.250000e+02
1.375000e+02
1.500000e+02
1.625000e+02
1.750000e+02
1.875000e+02
2.000000e+02
0.000000e+00
0.000000e+00
0.000000e+00
0.000000e+00
0.000000e+00
0.000000e+00
0.000000e+00
0.000000e+00
0.000000e+00
0.000000e+00
0.000000e+00
0.000000e+00
0.000000e+00
0.000000e+00
0.000000e+00
0.000000e+00
0.000000e+00
1.250000e+01
1.250000e+01
1.250000e+01
1.250000e+01
1.250000e+01
1.250000e+01
1.250000e+01
1.250000e+01
1.250000e+01
1.250000e+01
1.250000e+01
1.250000e+01
1.250000e+01
1.250000e+01
1.250000e+01
1.250000e+01
1.250000e+01
2.500000e+01
2.500000e+01
2.500000e+01
2.500000e+01
2.500000e+01
2.500000e+01
2.500000e+01
2.500000e+01
2.500000e+01
2.500000e+01
2.500000e+01
2.500000e+01
2.500000e+01
2.500000e+01
2.500000e+01
2.500000e+01
2.500000e+01
3.750000e+01
3.750000e+01
3.750000e+01
3.750000e+01
3.750000e+01
3.750000e+01
3.750000e+01
3.750000e+01
3.750000e+01
3.750000e+01
3.750000e+01
3.750000e+01
3.750000e+01
3.750000e+01
3.750000e+01
3.750000e+01
3.750000e+01
5.000000e+01
5.000000e+01
5.000000e+01
5.000000e+01
5.000000e+01
5.000000e+01
5.000000e+01
5.000000e+01
5.000000e+01
5.000000e+01
5.000000e+01
5.000000e+01
5.000000e+01
5.000000e+01
5.000000e+01
5.000000e+01
5.000000e+01
6.250000e+01
6.250000e+01
6.250000e+01
6.250000e+01
6.250000e+01
6.250000e+01
6.250000e+01
6.250000e+01
6.250000e+01
6.250000e+01
6.250000e+01
6.250000e+01
6.250000e+01
6.250000e+01
6.250000e+01
6.250000e+01
6.250000e+01
7.500000e+01
7.500000e+01
7.500000e+01
7.500000e+01
7.500000e+01
7.500000e+01
7.500000e+01
7.500000e+01
7.500000e+01
7.500000e+01
7.500000e+01
7.500000e+01
7.500000e+01
7.500000e+01
7.500000e+01
7.500000e+01
7.500000e+01
8.750000e+01
8.750000e+01
8.750000e+01
8.750000e+01
8.750000e+01
8.750000e+01
8.750000e+01
8.750000e+01
8.750000e+01
8.750000e+01
8.750000e+01
8.750000e+01
8.750000e+01
8.750000e+01
8.750000e+01
8.750000e+01
8.750000e+01
1.000000e+02
1.000000e+02
1.000000e+02
1.000000e+02
1.000000e+02
1.000000e+02
1.000000e+02
1.000000e+02
1.000000e+02
1.000000e+02
1.000000e+02
1.000000e+02
1.000000e+02
1.000000e+02
1.000000e+02
1.000000e+02
1.000000e+02
0.000000e+00
-9.956868e-01
-1.679103e+00
-2.431212e+00
-3.117032e+00
-3.750790e+00
-4.458092e+00
-5.087347e+00
-5.763248e+00
-6.405613e+00
-7.055649e+00
-7.723591e+00
-8.376537e+00
-9.146602e+00
-1.007753e+01
-1.083400e+01
-1.128412e+01
0.000000e+00
-4.458627e-01
-9.065897e-01
-1.419028e+00
-1.930612e+00
-2.410831e+00
-2.924894e+00
-3.423058e+00
-3.919107e+00
-4.421469e+00
-4.914038e+00
-5.416967e+00
-5.901842e+00
-6.421500e+00
-6.897743e+00
-7.024053e+00
-7.202940e+00
0.000000e+00
-1.461089e-01
-3.489297e-01
-6.395925e-01
-9.775851e-01
-1.302661e+00
-1.655850e+00
-2.012863e+00
-2.356526e+00
-2.718584e+00
-3.057471e+00
-3.391746e+00
-3.687440e+00
-3.927371e+00
-4.036584e+00
-4.034598e+00
-4.183023e+00
0.000000e+00
-7.898019e-02
-1.621409e-01
-3.096439e-01
-4.548586e-01
-6.282450e-01
-8.138174e-01
-9.791216e-01
-1.166790e+00
-1.328776e+00
-1.489803e+00
-1.628864e+00
-1.722261e+00
-1.730438e+00
-1.656793e+00
-1.635841e+00
-1.752895e+00
0.000000e+00
-3.316330e-03
-7.219881e-03
-1.127589e-02
-1.565531e-02
-1.906673e-02
-1.992314e-02
-1.715671e-02
-8.358043e-03
8.487498e-03
3.287703e-02
7.779296e-02
1.603158e-01
2.752712e-01
3.950895e-01
4.359474e-01
3.377713e-01
0.000000e+00
7.318070e-02
1.504496e-01
2.905952e-01
4.290569e-01
5.956981e-01
7.744864e-01
9.430040e-01
1.148958e+00
1.344261e+00
1.562182e+00
1.782494e+00
2.009058e+00
2.216550e+00
2.352362e+00
2.385256e+00
2.319578e+00
0.000000e+00
1.437492e-01
3.436500e-01
6.305719e-01
9.656287e-01
1.290892e+00
1.643175e+00
1.999640e+00
2.359366e+00
2.764733e+00
3.143888e+00
3.510900e+00
3.843756e+00
4.119448e+00
4.296233e+00
4.350859e+00
4.328197e+00
0.000000e+00
4.465591e-01
9.073414e-01
1.419533e+00
1.930406e+00
2.409188e+00
2.920188e+00
3.415638e+00
3.903387e+00
4.396704e+00
4.874999e+00
5.350128e+00
5.778193e+00
6.125900e+00
6.343009e+00
6.438833e+00
6.456546e+00
0.000000e+00
9.979418e-01
1.684200e+00
2.440056e+00
3.127819e+00
3.762240e+00
4.468542e+00
5.095953e+00
5.747451e+00
6.331665e+00
6.905068e+00
7.505925e+00
8.036153e+00
8.448293e+00
8.649553e+00
8.702289e+00
8.702818e+00
0.000000e+00
-6.186900e-01
-1.361760e+00
-2.363081e+00
-3.537239e+00
-4.880842e+00
-6.412234e+00
-8.098382e+00
-9.958846e+00
-1.198231e+01
-1.416712e+01
-1.651793e+01
-1.903162e+01
-2.176277e+01
-2.472703e+01
-2.808652e+01
-3.310224e+01
0.000000e+00
-4.157936e-01
-1.193394e+00
-2.176904e+00
-3.368154e+00
-4.706662e+00
-6.234744e+00
-7.929728e+00
-9.782588e+00
-1.181472e+01
-1.399483e+01
-1.635023e+01
-1.885872e+01
-2.157012e+01
-2.458685e+01
-2.800277e+01
-3.205267e+01
0.000000e+00
-3.902261e-01
-1.091603e+00
-2.073502e+00
-3.248991e+00
-4.580772e+00
-6.114960e+00
-7.799943e+00
-9.663573e+00
-1.169290e+01
-1.388417e+01
-1.625094e+01
-1.876965e+01
-2.150786e+01
-2.457687e+01
-2.785089e+01
-3.088343e+01
0.000000e+00
-4.492154e-01
-1.087979e+00
-2.047382e+00
-3.186499e+00
-4.511260e+00
-6.053214e+00
-7.723343e+00
-9.605909e+00
-1.163430e+01
-1.384723e+01
-1.623388e+01
-1.877809e+01
-2.151820e+01
-2.450722e+01
-2.754120e+01
-3.016707e+01
0.000000e+00
-4.561790e-01
-1.110359e+00
-2.031769e+00
-3.172247e+00
-4.501470e+00
-6.031765e+00
-7.721535e+00
-9.595774e+00
-1.164641e+01
-1.387383e+01
-1.626765e+01
-1.881932e+01
-2.151934e+01
-2.435665e+01
-2.717463e+01
-2.956257e+01
0.000000e+00
-4.479405e-01
-1.087657e+00
-2.049479e+00
-3.193459e+00
-4.528494e+00
-6.080758e+00
-7.760142e+00
-9.657820e+00
-1.171210e+01
-1.394411e+01
-1.631982e+01
-1.885023e+01
-2.150935e+01
-2.422177e+01
-2.685490e+01
-2.912424e+01
0.000000e+00
-3.885264e-01
-1.091609e+00
-2.078311e+00
-3.262777e+00
-4.610063e+00
-6.160762e+00
-7.869344e+00
-9.762957e+00
-1.182834e+01
-1.403055e+01
-1.638705e+01
-1.888947e+01
-2.150925e+01
-2.413937e+01
-2.664772e+01
-2.889053e+01
0.000000e+00
-4.142211e-01
-1.193488e+00
-2.182573e+00
-3.384349e+00
-4.737869e+00
-6.285879e+00
-8.010380e+00
-9.901557e+00
-1.196559e+01
-1.414564e+01
-1.648556e+01
-1.896667e+01
-2.155081e+01
-2.411883e+01
-2.656017e+01
-2.883005e+01
0.000000e+00
-6.177126e-01
-1.362485e+00
-2.369442e+00
-3.553839e+00
-4.911932e+00
-6.464053e+00
-8.178742e+00
-1.007418e+01
-1.212109e+01
-1.430075e+01
-1.663381e+01
-1.909035e+01
-2.163284e+01
-2.414344e+01
-2.654529e+01
-2.882890e+01


0.000000e+00
1.541842e-05
2.508655e-05
3.749369e-05
5.358564e-05
6.717835e-05
8.317651e-05
9.715101e-05
1.118588e-04
1.257513e-04
1.408872e-04
1.552256e-04
1.717917e-04
1.875973e-04
1.976537e-04
2.033896e-04
2.103227e-04
0.000000e+00
1.145888e-05
1.973824e-05
2.841128e-05
4.099400e-05
5.171999e-05
6.184422e-05
7.295887e-05
8.315801e-05
9.456688e-05
1.052289e-04
1.156119e-04
1.264859e-04
1.358343e-04
1.374199e-04
1.411713e-04
1.469949e-04
0.000000e+00
9.530763e-06
1.502508e-05
2.020683e-05
2.884521e-05
3.553762e-05
4.126745e-05
4.861497e-05
5.458571e-05
6.195051e-05
6.836316e-05
7.403317e-05
7.875307e-05
8.093392e-05
8.017966e-05
8.255753e-05
8.679092e-05
0.000000e+00
5.186173e-06
6.844549e-06
9.620683e-06
1.306063e-05
1.351979e-05
1.585932e-05
1.725753e-05
2.086113e-05
2.430071e-05
2.805972e-05
2.911408e-05
2.853548e-05
2.710419e-05
2.684200e-05
2.988302e-05
3.555438e-05
0.000000e+00
-1.755486e-07
-4.372257e-07
-8.600761e-07
-1.730250e-06
-2.891307e-06
-5.003948e-06
-7.249738e-06
-7.833749e-06
-7.865447e-06
-8.801554e-06
-1.194598e-05
-1.469280e-05
-1.610957e-05
-1.578588e-05
-1.362972e-05
-9.639357e-06
0.000000e+00
-5.451157e-06
-7.435893e-06
-1.075255e-05
-1.466336e-05
-1.608302e-05
-2.052510e-05
-2.431781e-05
-3.024281e-05
-3.338215e-05
-3.751058e-05
-4.221204e-05
-4.733686e-05
-4.910760e-05
-4.965193e-05
-5.012440e-05
-4.839389e-05
0.000000e+00
-9.531004e-06
-1.509238e-05
-2.037591e-05
-2.895077e-05
-3.533065e-05
-4.073816e-05
-4.873061e-05
-5.590699e-05
-6.359008e-05
-6.886924e-05
-7.388335e-05
-7.803960e-05
-8.159761e-05
-8.350405e-05
-8.542186e-05
-8.616899e-05
0.000000e+00
-1.138861e-05
-1.965063e-05
-2.830617e-05
-4.077242e-05
-5.166035e-05
-6.160396e-05
-7.279802e-05
-8.318508e-05
-9.457320e-05
-1.052257e-04
-1.135774e-04
-1.183708e-04
-1.233970e-04
-1.270017e-04
-1.283036e-04
-1.283994e-04
0.000000e+00
-1.542914e-05
-2.502772e-05
-3.734006e-05
-5.337609e-05
-6.700632e-05
-8.286870e-05
-9.588962e-05
-1.099791e-04
-1.233297e-04
-1.409922e-04
-1.568029e-04
-1.665742e-04
-1.717902e-04
-1.739976e-04
-1.742166e-04
-1.740360e-04
0.000000e+00
1.259781e-05
1.999846e-05
3.243599e-05
4.874383e-05
6.686599e-05
9.130030e-05
1.201446e-04
1.534449e-04
1.902029e-04
2.303695e-04
2.743798e-04
3.243191e-04
3.784379e-04
4.399594e-04
5.108000e-04
5.841858e-04
0.000000e+00
7.679765e-06
1.610868e-05
2.633502e-05
4.228034e-05
6.090687e-05
8.484142e-05
1.142707e-04
1.472082e-04
1.840793e-04
2.240356e-04
2.681671e-04
3.177438e-04
3.735020e-04
4.347112e-04
5.034189e-04
5.738307e-04
0.000000e+00
4.325765e-06
1.229325e-05
2.172336e-05
3.646255e-05
5.568240e-05
7.942127e-05
1.097573e-04
1.430530e-04
1.795960e-04
2.194423e-04
2.636297e-04
3.139564e-04
3.711137e-04
4.305674e-04
4.959407e-04
5.641454e-04
0.000000e+00
3.199308e-06
1.059238e-05
2.008466e-05
3.451266e-05
5.201967e-05
7.640761e-05
1.087544e-04
1.436022e-04
1.781738e-04
2.173841e-04
2.619949e-04
3.132009e-04
3.697020e-04
4.278318e-04
4.881056e-04
5.499870e-04
0.000000e+00
2.811155e-06
1.026846e-05
2.004405e-05
3.424436e-05
5.073144e-05
7.528349e-05
1.097816e-04
1.448397e-04
1.780786e-04
2.155869e-04
2.619368e-04
3.134391e-04
3.698350e-04
4.266895e-04
4.817205e-04
5.338620e-04
0.000000e+00
3.342637e-06
1.078340e-05
2.046024e-05
3.485376e-05
5.182685e-05
7.715885e-05
1.106843e-04
1.454530e-04
1.778948e-04
2.159628e-04
2.634278e-04
3.157916e-04
3.701506e-04
4.265941e-04
4.794004e-04
5.228388e-04
0.000000e+00
4.479659e-06
1.252232e-05
2.206797e-05
3.674347e-05
5.576263e-05
8.039263e-05
1.117568e-04
1.447743e-04
1.789768e-04
2.182478e-04
2.666536e-04
3.192860e-04
3.722410e-04
4.256822e-04
4.766558e-04
5.193681e-04
0.000000e+00
7.804471e-06
1.634570e-05
2.663686e-05
4.253900e-05
6.131597e-05
8.580830e-05
1.159387e-04
1.482169e-04
1.832774e-04
2.228962e-04
2.704111e-04
3.223286e-04
3.744404e-04
4.258237e-04
4.746361e-04
5.198317e-04
0.000000e+00
1.271139e-05
2.023551e-05
3.272830e-05
4.908353e-05
6.740231e-05
9.234106e-05
1.216020e-04
1.543919e-04
1.894750e-04
2.301465e-04
2.747633e-04
3.246074e-04
3.756095e-04
4.261380e-04
4.741525e-04
5.200965e-04


5.666776e+00
6.134271e+00
6.863052e+00
5.925307e+00
5.679867e+00
6.463337e+00
6.354958e+00
6.386253e+00
5.946884e+00
5.899547e+00
6.282682e+00
7.149967e+00
8.846866e+00
9.828449e+00
9.149279e+00
8.000258e+00
8.079815e+00
8.457974e+00
8.659534e+00
8.355982e+00
8.208110e+00
8.468060e+00
8.635977e+00
8.411331e+00
8.388823e+00
8.268854e+00
8.415815e+00
8.843278e+00
9.505813e+00
9.841098e+00
8.393595e+00
6.472688e+00
9.841741e+00
9.822762e+00
9.998118e+00
9.836431e+00
9.834867e+00
9.961312e+00
9.833906e+00
9.943309e+00
9.847345e+00
9.879254e+00
9.897013e+00
9.874938e+00
9.893284e+00
9.394612e+00
7.998783e+00
6.190165e+00
9.999074e+00
9.999056e+00
9.999048e+00
9.998957e+00
9.998829e+00
9.998574e+00
9.998282e+00
9.998278e+00
9.998442e+00
9.998413e+00
9.997720e+00
9.481777e+00
8.831717e+00
8.372195e+00
7.990240e+00
7.917937e+00
9.999069e+00
9.999045e+00
9.999028e+00
9.998905e+00
9.998691e+00
9.998224e+00
9.933438e+00
9.962841e+00
9.997059e+00
9.917161e+00
9.357691e+00
8.594101e+00
7.712032e+00
7.749139e+00
8.651527e+00
9.166990e+00
9.842073e+00
9.822688e+00
9.998019e+00
9.836054e+00
9.833958e+00
9.703277e+00
9.309944e+00
9.515967e+00
9.385464e+00
8.867857e+00
8.309959e+00
7.900796e+00
8.206967e+00
8.758197e+00
9.447551e+00
9.996713e+00
8.081816e+00
8.458787e+00
8.658805e+00
8.354151e+00
8.124213e+00
8.015990e+00
7.847210e+00
7.774009e+00
7.864716e+00
7.337174e+00
7.481079e+00
8.493399e+00
9.294782e+00
9.850020e+00
9.998083e+00
9.998852e+00
5.671839e+00
6.135817e+00
6.861896e+00
5.916424e+00
5.644155e+00
6.115220e+00
5.938804e+00
6.407517e+00
6.233935e+00
6.503019e+00
7.862034e+00
9.113485e+00
9.985935e+00
9.998508e+00
9.998973e+00
9.999132e+00


-8.181130e-01
-1.684736e-01
-3.969544e-01
-2.579334e-01
-9.431297e-02
-3.061724e-01
-1.237548e-01
-2.097140e-01
-1.616682e-01
-1.581265e-01
-2.150171e-01
-1.498746e-01
-4.616022e-01
-6.856512e-01
3.158184e-01
-8.469665e-01
6.109048e-01
4.810443e-01
2.954700e-01
2.253652e-01
2.905843e-01
1.680287e-01
1.753568e-01
1.729342e-01
1.099807e-01
1.480919e-01
1.282103e-01
2.413986e-01
3.024693e-01
5.094479e-01
6.953723e-01
-9.345782e-01
7.228806e-01
4.715271e-01
5.668759e-02
-2.183906e-02
-3.672198e-02
-1.877826e-01
-8.028706e-02
-1.377079e-01
-7.710366e-02
-1.887963e-02
3.168838e-02
1.856731e-01
2.782837e-01
1.479888e-01
-2.534619e-02
-1.679690e-01
7.281176e-01
5.563843e-01
1.929561e-01
6.193534e-02
-2.257148e-02
-1.061113e-01
-1.663640e-02
-6.167566e-02
1.330706e-02
1.705330e-02
5.880938e-02
1.175886e-01
5.857179e-02
-2.624257e-01
-3.838449e-01
-7.815216e-02
7.310239e-01
5.603198e-01
2.009356e-01
7.010198e-02
-1.875256e-02
-1.120766e-01
-3.681056e-02
-1.024011e-01
-5.217265e-02
-4.303936e-02
2.132904e-02
1.449631e-02
-3.782957e-02
-1.300157e-01
-1.023888e-01
3.106398e-01
7.296953e-01
4.817161e-01
7.474201e-02
-3.891282e-03
-2.484045e-02
-1.618839e-01
-7.432963e-02
-1.882446e-01
-1.820477e-01
-1.091853e-01
-7.766327e-02
-9.766986e-02
-1.114921e-01
4.524338e-02
3.342396e-01
7.246132e-01
6.149988e-01
4.868598e-01
3.029543e-01
2.303785e-01
2.867495e-01
1.614988e-01
1.525025e-01
1.026055e-01
-5.713642e-02
-4.041891e-02
-9.669895e-02
-5.723211e-02
5.718506e-02
3.649075e-01
7.128583e-01
9.478979e-01
-8.236909e-01
-1.740744e-01
-4.045367e-01
-2.610185e-01
-9.370230e-02
-3.002029e-01
-1.196841e-01
-1.568400e-01
-5.603690e-02
-2.177382e-02
-9.256175e-02
9.944068e-02
3.877431e-01
7.720802e-01
9.528968e-01
9.987355e-01
1 2 19 18
2 3 20 19
3 4 21 20
4 5 22 21
5 6 23 22
6 7 24 23
7 8 25 24
8 9 26 25
9 10 27 26
10 11 28 27
11 12 29 28
12 13 30 29
13 14 31 30
14 15 32 31
15 16 33 32
16 17 34 33
18 19 36 35
19 20 37 36
20 21 38 37
21 22 39 38
22 23 40 39
23 24 41 40
24 25 42 41
25 26 43 42
26 27 44 43
27 28 45 44
28 29 46 45
29 30 47 46
30 31 48 47
31 32 49 48
32 33 50 49
33 34 51 50
35 36 53 52
36 37 54 53
37 38 55 54
38 39 56 55
39 40 57 56
40 41 58 57
41 42 59 58
42 43 60 59
43 44 61 60
44 45 62 61
45 46 63 62
46 47 64 63
47 48 65 64
48 49 66 65
49 50 67 66
50 51 68 67
52 53 70 69
53 54 71 70
54 55 72 71
55 56 73 72
56 57 74 73
57 58 75 74
58 59 76 75
59 60 77 76
60 61 78 77
61 62 79 78
62 63 80 79
63 64 81 80
64 65 82 81
65 66 83 82
66 67 84 83
67 68 85 84
69 70 87 86
70 71 88 87
71 72 89 88
72 73 90 89
73 74 91 90
74 75 92 91
75 76 93 92
76 77 94 93
77 78 95 94
78 79 96 95
79 80 97 96
80 81 98 97
81 82 99 98
82 83 100 99
83 84 101 100
84 85 102 101
86 87 104 103
87 88 105 104
88 89 106 105
89 90 107 106
90 91 108 107
91 92 109 108
92 93 110 109
93 94 111 110
94 95 112 111
95 96 113 112
96 97 114 113
97 98 115 114
98 99 116 115
99 100 117 116
100 101 118 117
101 102 119 118
103 104 121 120
104 105 122 121
105 106 123 122
106 107 124 123
107 108 125 124
108 109 126 125
109 110 127 126
110 111 128 127
111 112 129 128
112 113 130 129
113 114 131 130
114 115 132 131
115 116 133 132
116 117 134 133
117 118 135 134
118 119 136 135
120 121 138 137
121 122 139 138
122 123 140 139
123 124 141 140
124 125 142 141
125 126 143 142
126 127 144 143
127 128 145 144
128 129 146 145
129 130 147 146
130 131 148 147
131 132 149 148
132 133 150 149
133 134 151 150
134 135 152 151
135 136 153 152
