TITLE = "Solution"
VARIABLES = x, y, u, v, psiu, psiv, t, stress
ZONE T="structure" N=153 E=128 F=FEBLOCK ET=QUADRILATERAL VARLOCATION=([7,8]=cellcentered)
0.000000e+00
1.250000e+01
2.500000e+01
3.750000e+01
5.000000e+01
6.250000e+01
7.500000e+01
8.750000e+01
1.000000e+02
1.125000e+02
1.250000e+02
1.375000e+02
1.500000e+02
1.625000e+02
1.750000e+02
1.875000e+02
2.000000e+02
0.000000e+00
1.250000e+01
2.500000e+01
3.750000e+01
5.000000e+01
6.250000e+01
7.500000e+01
8.750000e+01
1.000000e+02
1.125000e+02
1.250000e+02
1.375000e+02
1.500000e+02
1.625000e+02
1.750000e+02
1.875000e+02
2.000000e+02
0.000000e+00
1.250000e+01
2.500000e+01
3.750000e+01
5.000000e+01
6.250000e+01
7.500000e+01
8.750000e+01
1.000000e+02
1.125000e+02
1.250000e+02
1.375000e+02
1.500000e+02
1.625000e+02
1.750000e+02
1.875000e+02
2.000000e+02
0.000000e+00
1.250000e+01
2.500000e+01
3.750000e+01
5.000000e+01
6.250000e+01
7.500000e+01
8.750000e+01
1.000000e+02
1.125000e+02
1.250000e+02
1.375000e+02
1.500000e+02
1.625000e+02
1.750000e+02
1.875000e+02
2.000000e+02
0.000000e+00
1.250000e+01
2.500000e+01
3.750000e+01
5.000000e+01
6.250000e+01
7.500000e+01
8.750000e+01
1.000000e+02
1.125000e+02
1.250000e+02
1.375000e+02
1.500000e+02
1.625000e+02
1.750000e+02
1.875000e+02
2.000000e+02
0.000000e+00
1.250000e+01
2.500000e+01
3.750000e+01
5.000000e+01
6.250000e+01
7.500000e+01
8.750000e+01
1.000000e+02
1.125000e+02
1.250000e+02
1.375000e+02
1.500000e+02
1.625000e+02
1.750000e+02
1.875000e+02
2.000000e+02
0.000000e+00
1.250000e+01
2.500000e+01
3.750000e+01
5.000000e+01
6.250000e+01
7.500000e+01
8.750000e+01
1.000000e+02
1.125000e+02
1.250000e+02
1.375000e+02
1.500000e+02
1.625000e+02
1.750000e+02
1.875000e+02
2.000000e+02
0.000000e+00
1.250000e+01
2.500000e+01
3.750000e+01
5.000000e+01
6.250000e+01
7.500000e+01
8.750000e+01
1.000000e+02
1.125000e+02
1.250000e+02
1.375000e+02
1.500000e+02
1.625000e+02
1.750000e+02
1.875000e+02
2.000000e+02
0.000000e+00
1.250000e+01
2.500000e+01
3.750000e+01
5.000000e+01
6.250000e+01
7.500000e+01
8.750000e+01
1.000000e+02
1.125000e+02
1.250000e+02
1.375000e+02
1.500000e+02
1.625000e+02
1.750000e+02
1.875000e+02
2.000000e+02
0.000000e+00
0.000000e+00
0.000000e+00
0.000000e+00
0.000000e+00
0.000000e+00
0.000000e+00
0.000000e+00
0.000000e+00
0.000000e+00
0.000000e+00
0.000000e+00
0.000000e+00
0.000000e+00
0.000000e+00
0.000000e+00
0.000000e+00
1.250000e+01
1.250000e+01
1.250000e+01
1.250000e+01
1.250000e+01
1.250000e+01
1.250000e+01
1.250000e+01
1.250000e+01
1.250000e+01
1.250000e+01
1.250000e+01
1.250000e+01
1.250000e+01
1.250000e+01
1.250000e+01
1.250000e+01
2.500000e+01
2.500000e+01
2.500000e+01
2.500000e+01
2.500000e+01
2.500000e+01
2.500000e+01
2.500000e+01
2.500000e+01
2.500000e+01
2.500000e+01
2.500000e+01
2.500000e+01
2.500000e+01
2.500000e+01
2.500000e+01
2.500000e+01
3.750000e+01
3.750000e+01
3.750000e+01
3.750000e+01
3.750000e+01
3.750000e+01
3.750000e+01
3.750000e+01
3.750000e+01
3.750000e+01
3.750000e+01
3.750000e+01
3.750000e+01
3.750000e+01
3.750000e+01
3.750000e+01
3.750000e+01
5.000000e+01
5.000000e+01
5.000000e+01
5.000000e+01
5.000000e+01
5.000000e+01
5.000000e+01
5.000000e+01
5.000000e+01
5.000000e+01
5.000000e+01
5.000000e+01
5.000000e+01
5.000000e+01
5.000000e+01
5.000000e+01
5.000000e+01
6.250000e+01
6.250000e+01
6.250000e+01
6.250000e+01
6.250000e+01
6.250000e+01
6.250000e+01
6.250000e+01
6.250000e+01
6.250000e+01
6.250000e+01
6.250000e+01
6.250000e+01
6.250000e+01
6.250000e+01
6.250000e+01
6.250000e+01
7.500000e+01
7.500000e+01
7.500000e+01
7.500000e+01
7.500000e+01
7.500000e+01
7.500000e+01
7.500000e+01
7.500000e+01
7.500000e+01
7.500000e+01
7.500000e+01
7.500000e+01
7.500000e+01
7.500000e+01
7.500000e+01
7.500000e+01
8.750000e+01
8.750000e+01
8.750000e+01
8.750000e+01
8.750000e+01
8.750000e+01
8.750000e+01
8.750000e+01
8.750000e+01
8.750000e+01
8.750000e+01
8.750000e+01
8.750000e+01
8.750000e+01
8.750000e+01
8.750000e+01
8.750000e+01
1.000000e+02
1.000000e+02
1.000000e+02
1.000000e+02
1.000000e+02
1.000000e+02
1.000000e+02
1.000000e+02
1.000000e+02
1.000000e+02
1.000000e+02
1.000000e+02
1.000000e+02
1.000000e+02
1.000000e+02
1.000000e+02
1.000000e+02
0.000000e+00
-6.960724e-02
-1.281690e-01
-1.820534e-01
-2.322348e-01
-2.786074e-01
-3.210716e-01
-3.595946e-01
-3.942323e-01
-4.251444e-01
-4.526373e-01
-4.772482e-01
-4.999018e-01
-5.221947e-01
-5.468813e-01
-5.771995e-01
-5.999501e-01
0.000000e+00
-4.156822e-02
-8.634989e-02
-1.277029e-01
-1.658017e-01
-2.007912e-01
-2.327438e-01
-2.617026e-01
-2.877196e-01
-3.108749e-01
-3.312863e-01
-3.491006e-01
-3.644317e-01
-3.771217e-01
-3.860727e-01
-3.880346e-01
-3.950685e-01
0.000000e+00
-2.599559e-02
-5.345342e-02
-8.084667e-02
-1.064174e-01
-1.298949e-01
-1.512601e-01
-1.705372e-01
-1.877310e-01
-2.028127e-01
-2.157012e-01
-2.262165e-01
-2.339838e-01
-2.383196e-01
-2.384400e-01
-2.367079e-01
-2.438819e-01
0.000000e+00
-1.254708e-02
-2.582984e-02
-3.919648e-02
-5.197740e-02
-6.374941e-02
-7.441957e-02
-8.395681e-02
-9.230654e-02
-9.936011e-02
-1.049373e-01
-1.087747e-01
-1.105584e-01
-1.101417e-01
-1.084296e-01
-1.088978e-01
-1.142396e-01
0.000000e+00
-1.155814e-05
-2.627529e-05
-4.094411e-05
-4.872909e-05
-3.438735e-05
3.233627e-05
2.057309e-04
5.748653e-04
1.272412e-03
2.471462e-03
4.345898e-03
6.942705e-03
9.877226e-03
1.190430e-02
1.134834e-02
7.811597e-03
0.000000e+00
1.252930e-02
2.578856e-02
3.913044e-02
5.189526e-02
6.368260e-02
7.444549e-02
8.423658e-02
9.314076e-02
1.012613e-01
1.087044e-01
1.155250e-01
1.216047e-01
1.264799e-01
1.293478e-01
1.295752e-01
1.277801e-01
0.000000e+00
2.599267e-02
5.344453e-02
8.082897e-02
1.063898e-01
1.298605e-01
1.512316e-01
1.705465e-01
1.878452e-01
2.031586e-01
2.164998e-01
2.278364e-01
2.370380e-01
2.438410e-01
2.479244e-01
2.492502e-01
2.488316e-01
0.000000e+00
4.158527e-02
8.638697e-02
1.277620e-01
1.658810e-01
2.008760e-01
2.327915e-01
2.616155e-01
2.873043e-01
3.097836e-01
3.289467e-01
3.446613e-01
3.568015e-01
3.653273e-01
3.704131e-01
3.725819e-01
3.729802e-01
0.000000e+00
6.963576e-02
1.282442e-01
1.821943e-01
2.324599e-01
2.789240e-01
3.214493e-01
3.599121e-01
3.941840e-01
4.240867e-01
4.493609e-01
4.696698e-01
4.846797e-01
4.942727e-01
4.989119e-01
5.000570e-01
5.000349e-01
0.000000e+00
-4.213518e-02
-8.271624e-02
-1.352998e-01
-1.998353e-01
-2.762019e-01
-3.635634e-01
-4.609419e-01
-5.673021e-01
-6.816221e-01
-8.029583e-01
-9.305593e-01
-1.064118e+00
-1.204346e+00
-1.354883e+00
-1.527124e+00
-1.774605e+00
0.000000e+00
-2.593919e-02
-6.827189e-02
-1.215075e-01
-1.870978e-01
-2.645066e-01
-3.529263e-01
-4.513555e-01
-5.587465e-01
-6.740593e-01
-7.963238e-01
-9.247544e-01
-1.058996e+00
-1.199743e+00
-1.350221e+00
-1.521417e+00
-1.731151e+00
0.000000e+00
-1.957341e-02
-5.825835e-02
-1.116905e-01
-1.779008e-01
-2.561064e-01
-3.453389e-01
-4.445871e-01
-5.528105e-01
-6.689839e-01
-7.921560e-01
-9.215681e-01
-1.056899e+00
-1.198728e+00
-1.349335e+00
-1.511550e+00
-1.668539e+00
0.000000e+00
-1.686696e-02
-5.327966e-02
-1.059282e-01
-1.723779e-01
-2.510648e-01
-3.408537e-01
-4.406947e-01
-5.495670e-01
-6.664732e-01
-7.904824e-01
-9.208215e-01
-1.057016e+00
-1.199002e+00
-1.346596e+00
-1.495649e+00
-1.632960e+00
0.000000e+00
-1.608729e-02
-5.177288e-02
-1.040899e-01
-1.705577e-01
-2.494405e-01
-3.394875e-01
-4.396499e-01
-5.489264e-01
-6.663356e-01
-7.909261e-01
-9.218023e-01
-1.058118e+00
-1.198868e+00
-1.341946e+00
-1.482458e+00
-1.611904e+00
0.000000e+00
-1.685695e-02
-5.327254e-02
-1.059408e-01
-1.724402e-01
-2.512289e-01
-3.412047e-01
-4.413594e-01
-5.507131e-01
-6.682795e-01
-7.930458e-01
-9.239282e-01
-1.059660e+00
-1.198515e+00
-1.337825e+00
-1.473519e+00
-1.600203e+00
0.000000e+00
-1.955708e-02
-5.824654e-02
-1.117117e-01
-1.780058e-01
-2.563840e-01
-3.459340e-01
-4.457158e-01
-5.547591e-01
-6.720610e-01
-7.965400e-01
-9.269459e-01
-1.061708e+00
-1.198743e+00
-1.335352e+00
-1.468442e+00
-1.595042e+00
0.000000e+00
-2.592388e-02
-6.826161e-02
-1.215357e-01
-1.872238e-01
-2.648330e-01
-3.536190e-01
-4.526601e-01
-5.609849e-01
-6.775722e-01
-8.012962e-01
-9.308174e-01
-1.064431e+00
-1.199941e+00
-1.334733e+00
-1.466343e+00
-1.593830e+00
0.000000e+00
-4.212885e-02
-8.271713e-02
-1.353433e-01
-1.999814e-01
-2.765508e-01
-3.642721e-01
-4.622351e-01
-5.694581e-01
-6.849017e-01
-8.074135e-01
-9.356240e-01
-1.067816e+00
-1.201844e+00
-1.335259e+00
-1.465959e+00
-1.593849e+00


0.000000e+00
9.795699e-08
1.962726e-07
2.875821e-07
3.732182e-07
4.526971e-07
5.256849e-07
5.921604e-07
6.522565e-07
7.062247e-07
7.544218e-07
7.972455e-07
8.349280e-07
8.671727e-07
8.935642e-07
9.161159e-07
9.361814e-07
0.000000e+00
5.508442e-08
1.340439e-07
2.050478e-07
2.701560e-07
3.301771e-07
3.850560e-07
4.347924e-07
4.794255e-07
5.189866e-07
5.534632e-07
5.827533e-07
6.067079e-07
6.258196e-07
6.432762e-07
6.639941e-07
6.853170e-07
0.000000e+00
3.470395e-08
8.470516e-08
1.316230e-07
1.753653e-07
2.156006e-07
2.521698e-07
2.850284e-07
3.141259e-07
3.393637e-07
3.605972e-07
3.777231e-07
3.910095e-07
4.018198e-07
4.132219e-07
4.286268e-07
4.464254e-07
0.000000e+00
1.695181e-08
4.060570e-08
6.358327e-08
8.545613e-08
1.055523e-07
1.236542e-07
1.396787e-07
1.535314e-07
1.650915e-07
1.742585e-07
1.810866e-07
1.860368e-07
1.902755e-07
1.957365e-07
2.047153e-07
2.170722e-07
0.000000e+00
1.776750e-11
2.201388e-11
-9.326025e-12
-1.064050e-10
-3.173307e-10
-7.126410e-10
-1.386209e-09
-2.446959e-09
-3.991789e-09
-6.046188e-09
-8.465011e-09
-1.081627e-08
-1.230798e-08
-1.172028e-08
-7.494100e-09
6.235705e-10
0.000000e+00
-1.691861e-08
-4.056111e-08
-6.358491e-08
-8.561110e-08
-1.060483e-07
-1.247992e-07
-1.419433e-07
-1.575796e-07
-1.717694e-07
-1.844844e-07
-1.955509e-07
-2.046149e-07
-2.111474e-07
-2.144952e-07
-2.138569e-07
-2.094103e-07
0.000000e+00
-3.468305e-08
-8.467426e-08
-1.316045e-07
-1.754018e-07
-2.157724e-07
-2.526170e-07
-2.859761e-07
-3.159072e-07
-3.424282e-07
-3.654739e-07
-3.848616e-07
-4.002835e-07
-4.113784e-07
-4.179622e-07
-4.201547e-07
-4.188417e-07
0.000000e+00
-5.510539e-08
-1.340856e-07
-2.050856e-07
-2.701491e-07
-3.300559e-07
-3.847062e-07
-4.340372e-07
-4.780092e-07
-5.165657e-07
-5.496182e-07
-5.770355e-07
-5.986468e-07
-6.143080e-07
-6.241571e-07
-6.289995e-07
-6.301694e-07
0.000000e+00
-9.807280e-08
-1.964778e-07
-2.878359e-07
-3.734351e-07
-4.526990e-07
-5.251343e-07
-5.904741e-07
-6.485034e-07
-6.990262e-07
-7.418878e-07
-7.770192e-07
-8.044796e-07
-8.244945e-07
-8.375315e-07
-8.442710e-07
-8.464358e-07
0.000000e+00
8.867864e-08
1.730109e-07
2.676465e-07
3.805162e-07
5.127846e-07
6.635859e-07
8.315278e-07
1.015006e-06
1.212461e-06
1.422559e-06
1.644476e-06
1.878661e-06
2.128483e-06
2.400109e-06
2.688637e-06
2.974896e-06
0.000000e+00
5.364908e-08
1.356126e-07
2.309852e-07
3.460464e-07
4.809682e-07
6.346198e-07
8.054272e-07
9.917442e-07
1.191990e-06
1.404806e-06
1.629307e-06
1.865512e-06
2.114903e-06
2.379917e-06
2.661129e-06
2.943620e-06
0.000000e+00
3.418093e-08
1.056310e-07
2.008942e-07
3.176085e-07
4.548306e-07
6.109630e-07
7.843086e-07
9.731927e-07
1.176028e-06
1.391407e-06
1.618225e-06
1.855723e-06
2.103203e-06
2.360255e-06
2.631197e-06
2.904584e-06
0.000000e+00
2.508385e-08
8.985626e-08
1.833459e-07
3.008222e-07
4.394701e-07
5.972181e-07
7.722611e-07
9.629013e-07
1.167522e-06
1.384601e-06
1.612688e-06
1.850254e-06
2.095385e-06
2.346546e-06
2.607038e-06
2.866806e-06
0.000000e+00
2.246914e-08
8.507271e-08
1.777006e-07
2.953826e-07
4.346018e-07
5.930473e-07
7.688654e-07
9.603368e-07
1.165785e-06
1.383528e-06
1.611795e-06
1.848544e-06
2.091242e-06
2.337395e-06
2.588537e-06
2.834908e-06
0.000000e+00
2.510411e-08
8.993227e-08
1.835339e-07
3.011959e-07
4.401297e-07
5.982887e-07
7.738745e-07
9.651496e-07
1.170361e-06
1.387676e-06
1.615087e-06
1.850255e-06
2.090298e-06
2.332099e-06
2.575433e-06
2.812032e-06
0.000000e+00
3.421361e-08
1.057634e-07
2.012236e-07
3.182639e-07
4.559888e-07
6.128450e-07
7.871476e-07
9.771524e-07
1.181032e-06
1.396826e-06
1.622364e-06
1.855146e-06
2.092162e-06
2.330089e-06
2.567581e-06
2.798095e-06
0.000000e+00
5.369057e-08
1.357806e-07
2.313909e-07
3.468461e-07
4.823744e-07
6.368953e-07
8.088436e-07
9.964781e-07
1.197911e-06
1.411083e-06
1.633705e-06
1.863189e-06
2.096578e-06
2.330810e-06
2.564050e-06
2.791441e-06
0.000000e+00
8.874738e-08
1.732073e-07
2.680842e-07
3.813489e-07
5.142152e-07
6.658545e-07
8.348612e-07
1.019500e-06
1.217853e-06
1.427809e-06
1.647021e-06
1.872876e-06
2.102537e-06
2.333306e-06
2.563476e-06
2.789501e-06


2.033865e-01
2.033865e-01
2.033865e-01
2.033864e-01
2.033864e-01
2.033864e-01
2.033863e-01
2.033863e-01
2.033863e-01
2.033862e-01
2.033862e-01
2.033862e-01
2.033862e-01
2.033862e-01
2.033862e-01
2.033863e-01
2.033864e-01
2.033864e-01
2.033864e-01
2.033864e-01
2.033864e-01
2.033863e-01
2.033863e-01
2.033863e-01
2.033863e-01
2.033862e-01
2.033862e-01
2.033862e-01
2.033862e-01
2.033862e-01
2.033862e-01
2.033863e-01
2.033863e-01
2.033863e-01
2.033863e-01
2.033863e-01
2.033863e-01
2.033863e-01
2.033863e-01
2.033862e-01
2.033862e-01
2.033862e-01
2.033862e-01
2.033862e-01
2.033862e-01
2.033862e-01
2.033862e-01
2.033862e-01
2.033862e-01
2.033862e-01
2.033862e-01
2.033862e-01
2.033862e-01
2.033862e-01
2.033862e-01
2.033862e-01
2.033862e-01
2.033862e-01
2.033862e-01
2.033862e-01
2.033862e-01
2.033862e-01
2.033862e-01
2.033862e-01
2.033862e-01
2.033862e-01
2.033862e-01
2.033862e-01
2.033862e-01
2.033862e-01
2.033862e-01
2.033862e-01
2.033862e-01
2.033862e-01
2.033862e-01
2.033862e-01
2.033862e-01
2.033862e-01
2.033862e-01
2.033862e-01
2.033863e-01
2.033863e-01
2.033863e-01
2.033863e-01
2.033863e-01
2.033863e-01
2.033863e-01
2.033862e-01
2.033862e-01
2.033862e-01
2.033862e-01
2.033862e-01
2.033862e-01
2.033862e-01
2.033862e-01
2.033862e-01
2.033864e-01
2.033864e-01
2.033864e-01
2.033864e-01
2.033864e-01
2.033863e-01
2.033863e-01
2.033863e-01
2.033863e-01
2.033862e-01
2.033862e-01
2.033862e-01
2.033862e-01
2.033862e-01
2.033862e-01
2.033862e-01
2.033865e-01
2.033865e-01
2.033865e-01
2.033864e-01
2.033864e-01
2.033864e-01
2.033863e-01
2.033863e-01
2.033863e-01
2.033862e-01
2.033862e-01
2.033862e-01
2.033862e-01
2.033862e-01
2.033862e-01
2.033862e-01


9.890992e-01
9.906450e-01
9.920750e-01
9.931758e-01
9.941976e-01
9.951398e-01
9.959982e-01
9.967627e-01
9.974253e-01
9.979795e-01
9.984202e-01
9.987430e-01
9.989437e-01
9.990153e-01
9.990669e-01
9.958812e-01
9.958760e-01
9.951676e-01
9.956234e-01
9.962182e-01
9.967728e-01
9.972769e-01
9.977331e-01
9.981464e-01
9.985206e-01
9.988596e-01
9.991671e-01
9.994456e-01
9.996885e-01
9.998476e-01
9.994453e-01
9.939920e-01
9.985671e-01
9.981602e-01
9.980504e-01
9.982049e-01
9.984082e-01
9.986050e-01
9.987878e-01
9.989605e-01
9.991278e-01
9.992909e-01
9.994433e-01
9.995612e-01
9.995858e-01
9.993734e-01
9.986029e-01
9.972170e-01
9.997084e-01
9.994116e-01
9.992283e-01
9.991818e-01
9.992004e-01
9.992316e-01
9.992627e-01
9.992931e-01
9.993229e-01
9.993479e-01
9.993549e-01
9.993177e-01
9.991999e-01
9.989884e-01
9.988091e-01
9.987637e-01
9.997095e-01
9.994132e-01
9.992297e-01
9.991815e-01
9.991958e-01
9.992183e-01
9.992339e-01
9.992391e-01
9.992319e-01
9.992090e-01
9.991662e-01
9.991045e-01
9.990458e-01
9.990575e-01
9.992235e-01
9.995107e-01
9.985691e-01
9.981633e-01
9.980534e-01
9.982049e-01
9.984003e-01
9.985807e-01
9.987333e-01
9.988560e-01
9.989479e-01
9.990097e-01
9.990488e-01
9.990871e-01
9.991674e-01
9.993359e-01
9.995889e-01
9.998505e-01
9.958756e-01
9.951673e-01
9.956228e-01
9.962165e-01
9.967685e-01
9.972669e-01
9.977126e-01
9.981072e-01
9.984510e-01
9.987449e-01
9.989937e-01
9.992110e-01
9.994203e-01
9.996397e-01
9.998448e-01
9.999740e-01
9.890917e-01
9.906334e-01
9.920607e-01
9.931598e-01
9.941832e-01
9.951346e-01
9.960159e-01
9.968252e-01
9.975625e-01
9.982266e-01
9.988094e-01
9.992929e-01
9.996525e-01
9.998744e-01
9.999754e-01
9.999995e-01
1 2 19 18
2 3 20 19
3 4 21 20
4 5 22 21
5 6 23 22
6 7 24 23
7 8 25 24
8 9 26 25
9 10 27 26
10 11 28 27
11 12 29 28
12 13 30 29
13 14 31 30
14 15 32 31
15 16 33 32
16 17 34 33
18 19 36 35
19 20 37 36
20 21 38 37
21 22 39 38
22 23 40 39
23 24 41 40
24 25 42 41
25 26 43 42
26 27 44 43
27 28 45 44
28 29 46 45
29 30 47 46
30 31 48 47
31 32 49 48
32 33 50 49
33 34 51 50
35 36 53 52
36 37 54 53
37 38 55 54
38 39 56 55
39 40 57 56
40 41 58 57
41 42 59 58
42 43 60 59
43 44 61 60
44 45 62 61
45 46 63 62
46 47 64 63
47 48 65 64
48 49 66 65
49 50 67 66
50 51 68 67
52 53 70 69
53 54 71 70
54 55 72 71
55 56 73 72
56 57 74 73
57 58 75 74
58 59 76 75
59 60 77 76
60 61 78 77
61 62 79 78
62 63 80 79
63 64 81 80
64 65 82 81
65 66 83 82
66 67 84 83
67 68 85 84
69 70 87 86
70 71 88 87
71 72 89 88
72 73 90 89
73 74 91 90
74 75 92 91
75 76 93 92
76 77 94 93
77 78 95 94
78 79 96 95
79 80 97 96
80 81 98 97
81 82 99 98
82 83 100 99
83 84 101 100
84 85 102 101
86 87 104 103
87 88 105 104
88 89 106 105
89 90 107 106
90 91 108 107
91 92 109 108
92 93 110 109
93 94 111 110
94 95 112 111
95 96 113 112
96 97 114 113
97 98 115 114
98 99 116 115
99 100 117 116
100 101 118 117
101 102 119 118
103 104 121 120
104 105 122 121
105 106 123 122
106 107 124 123
107 108 125 124
108 109 126 125
109 110 127 126
110 111 128 127
111 112 129 128
112 113 130 129
113 114 131 130
114 115 132 131
115 116 133 132
116 117 134 133
117 118 135 134
118 119 136 135
120 121 138 137
121 122 139 138
122 123 140 139
123 124 141 140
124 125 142 141
125 126 143 142
126 127 144 143
127 128 145 144
128 129 146 145
129 130 147 146
130 131 148 147
131 132 149 148
132 133 150 149
133 134 151 150
134 135 152 151
135 136 153 152
