TITLE = "Solution"
VARIABLES = x, y, u, v, psiu, psiv, t, stress
ZONE T="structure" N=153 E=128 F=FEBLOCK ET=QUADRILATERAL VARLOCATION=([7,8]=cellcentered)
0.000000e+00
1.250000e+01
2.500000e+01
3.750000e+01
5.000000e+01
6.250000e+01
7.500000e+01
8.750000e+01
1.000000e+02
1.125000e+02
1.250000e+02
1.375000e+02
1.500000e+02
1.625000e+02
1.750000e+02
1.875000e+02
2.000000e+02
0.000000e+00
1.250000e+01
2.500000e+01
3.750000e+01
5.000000e+01
6.250000e+01
7.500000e+01
8.750000e+01
1.000000e+02
1.125000e+02
1.250000e+02
1.375000e+02
1.500000e+02
1.625000e+02
1.750000e+02
1.875000e+02
2.000000e+02
0.000000e+00
1.250000e+01
2.500000e+01
3.750000e+01
5.000000e+01
6.250000e+01
7.500000e+01
8.750000e+01
1.000000e+02
1.125000e+02
1.250000e+02
1.375000e+02
1.500000e+02
1.625000e+02
1.750000e+02
1.875000e+02
2.000000e+02
0.000000e+00
1.250000e+01
2.500000e+01
3.750000e+01
5.000000e+01
6.250000e+01
7.500000e+01
8.750000e+01
1.000000e+02
1.125000e+02
1.250000e+02
1.375000e+02
1.500000e+02
1.625000e+02
1.750000e+02
1.875000e+02
2.000000e+02
0.000000e+00
1.250000e+01
2.500000e+01
3.750000e+01
5.000000e+01
6.250000e+01
7.500000e+01
8.750000e+01
1.000000e+02
1.125000e+02
1.250000e+02
1.375000e+02
1.500000e+02
1.625000e+02
1.750000e+02
1.875000e+02
2.000000e+02
0.000000e+00
1.250000e+01
2.500000e+01
3.750000e+01
5.000000e+01
6.250000e+01
7.500000e+01
8.750000e+01
1.000000e+02
1.125000e+02
1.250000e+02
1.375000e+02
1.500000e+02
1.625000e+02
1.750000e+02
1.875000e+02
2.000000e+02
0.000000e+00
1.250000e+01
2.500000e+01
3.750000e+01
5.000000e+01
6.250000e+01
7.500000e+01
8.750000e+01
1.000000e+02
1.125000e+02
1.250000e+02
1.375000e+02
1.500000e+02
1.625000e+02
1.750000e+02
1.875000e+02
2.000000e+02
0.000000e+00
1.250000e+01
2.500000e+01
3.750000e+01
5.000000e+01
6.250000e+01
7.500000e+01
8.750000e+01
1.000000e+02
1.125000e+02
1.250000e+02
1.375000e+02
1.500000e+02
1.625000e+02
1.750000e+02
1.875000e+02
2.000000e+02
0.000000e+00
1.250000e+01
2.500000e+01
3.750000e+01
5.000000e+01
6.250000e+01
7.500000e+01
8.750000e+01
1.000000e+02
1.125000e+02
1.250000e+02
1.375000e+02
1.500000e+02
1.625000e+02
1.750000e+02
1.875000e+02
2.000000e+02
0.000000e+00
0.000000e+00
0.000000e+00
0.000000e+00
0.000000e+00
0.000000e+00
0.000000e+00
0.000000e+00
0.000000e+00
0.000000e+00
0.000000e+00
0.000000e+00
0.000000e+00
0.000000e+00
0.000000e+00
0.000000e+00
0.000000e+00
1.250000e+01
1.250000e+01
1.250000e+01
1.250000e+01
1.250000e+01
1.250000e+01
1.250000e+01
1.250000e+01
1.250000e+01
1.250000e+01
1.250000e+01
1.250000e+01
1.250000e+01
1.250000e+01
1.250000e+01
1.250000e+01
1.250000e+01
2.500000e+01
2.500000e+01
2.500000e+01
2.500000e+01
2.500000e+01
2.500000e+01
2.500000e+01
2.500000e+01
2.500000e+01
2.500000e+01
2.500000e+01
2.500000e+01
2.500000e+01
2.500000e+01
2.500000e+01
2.500000e+01
2.500000e+01
3.750000e+01
3.750000e+01
3.750000e+01
3.750000e+01
3.750000e+01
3.750000e+01
3.750000e+01
3.750000e+01
3.750000e+01
3.750000e+01
3.750000e+01
3.750000e+01
3.750000e+01
3.750000e+01
3.750000e+01
3.750000e+01
3.750000e+01
5.000000e+01
5.000000e+01
5.000000e+01
5.000000e+01
5.000000e+01
5.000000e+01
5.000000e+01
5.000000e+01
5.000000e+01
5.000000e+01
5.000000e+01
5.000000e+01
5.000000e+01
5.000000e+01
5.000000e+01
5.000000e+01
5.000000e+01
6.250000e+01
6.250000e+01
6.250000e+01
6.250000e+01
6.250000e+01
6.250000e+01
6.250000e+01
6.250000e+01
6.250000e+01
6.250000e+01
6.250000e+01
6.250000e+01
6.250000e+01
6.250000e+01
6.250000e+01
6.250000e+01
6.250000e+01
7.500000e+01
7.500000e+01
7.500000e+01
7.500000e+01
7.500000e+01
7.500000e+01
7.500000e+01
7.500000e+01
7.500000e+01
7.500000e+01
7.500000e+01
7.500000e+01
7.500000e+01
7.500000e+01
7.500000e+01
7.500000e+01
7.500000e+01
8.750000e+01
8.750000e+01
8.750000e+01
8.750000e+01
8.750000e+01
8.750000e+01
8.750000e+01
8.750000e+01
8.750000e+01
8.750000e+01
8.750000e+01
8.750000e+01
8.750000e+01
8.750000e+01
8.750000e+01
8.750000e+01
8.750000e+01
1.000000e+02
1.000000e+02
1.000000e+02
1.000000e+02
1.000000e+02
1.000000e+02
1.000000e+02
1.000000e+02
1.000000e+02
1.000000e+02
1.000000e+02
1.000000e+02
1.000000e+02
1.000000e+02
1.000000e+02
1.000000e+02
1.000000e+02
0.000000e+00
-9.960695e-01
-1.678932e+00
-2.431177e+00
-3.117369e+00
-3.750285e+00
-4.458313e+00
-5.087127e+00
-5.763208e+00
-6.405548e+00
-7.055462e+00
-7.723517e+00
-8.376368e+00
-9.146339e+00
-1.007741e+01
-1.083393e+01
-1.128404e+01
0.000000e+00
-4.460543e-01
-9.064089e-01
-1.419027e+00
-1.930697e+00
-2.410621e+00
-2.924775e+00
-3.423000e+00
-3.918918e+00
-4.421431e+00
-4.913864e+00
-5.416882e+00
-5.901731e+00
-6.421350e+00
-6.897707e+00
-7.024046e+00
-7.202938e+00
0.000000e+00
-1.460864e-01
-3.487915e-01
-6.395381e-01
-9.775299e-01
-1.302529e+00
-1.655622e+00
-2.012855e+00
-2.356312e+00
-2.718590e+00
-3.057367e+00
-3.391728e+00
-3.687424e+00
-3.927371e+00
-4.036635e+00
-4.034661e+00
-4.183078e+00
0.000000e+00
-7.899012e-02
-1.621053e-01
-3.096568e-01
-4.549182e-01
-6.281361e-01
-8.139940e-01
-9.790426e-01
-1.166924e+00
-1.328816e+00
-1.489892e+00
-1.628963e+00
-1.722381e+00
-1.730552e+00
-1.656895e+00
-1.635940e+00
-1.752979e+00
0.000000e+00
-3.323111e-03
-7.232715e-03
-1.130572e-02
-1.570021e-02
-1.914511e-02
-2.005099e-02
-1.731893e-02
-8.582062e-03
8.281437e-03
3.271159e-02
7.770586e-02
1.602240e-01
2.751139e-01
3.949093e-01
4.357979e-01
3.376133e-01
0.000000e+00
7.317766e-02
1.503833e-01
2.905701e-01
4.290642e-01
5.954650e-01
7.744607e-01
9.424855e-01
1.148627e+00
1.343731e+00
1.561742e+00
1.782021e+00
2.008745e+00
2.216268e+00
2.352049e+00
2.384958e+00
2.319274e+00
0.000000e+00
1.437195e-01
3.434829e-01
6.305035e-01
9.655675e-01
1.290808e+00
1.643014e+00
1.999671e+00
2.358885e+00
2.764571e+00
3.143514e+00
3.510436e+00
3.843232e+00
4.118992e+00
4.295772e+00
4.350431e+00
4.327767e+00
0.000000e+00
4.467870e-01
9.071308e-01
1.419537e+00
1.930506e+00
2.408970e+00
2.920035e+00
3.415646e+00
3.903211e+00
4.396681e+00
4.874989e+00
5.350100e+00
5.777780e+00
6.125444e+00
6.342524e+00
6.438347e+00
6.456057e+00
0.000000e+00
9.983962e-01
1.684006e+00
2.440023e+00
3.128199e+00
3.761557e+00
4.468671e+00
5.095567e+00
5.747629e+00
6.331543e+00
6.905137e+00
7.506037e+00
8.035728e+00
8.447765e+00
8.649001e+00
8.701742e+00
8.702273e+00
0.000000e+00
-6.188075e-01
-1.361856e+00
-2.363319e+00
-3.537515e+00
-4.881008e+00
-6.412561e+00
-8.098688e+00
-9.959170e+00
-1.198268e+01
-1.416744e+01
-1.651831e+01
-1.903195e+01
-2.176304e+01
-2.472724e+01
-2.808665e+01
-3.310228e+01
0.000000e+00
-4.159879e-01
-1.193541e+00
-2.177073e+00
-3.368484e+00
-4.706910e+00
-6.234984e+00
-7.930128e+00
-9.782836e+00
-1.181513e+01
-1.399513e+01
-1.635060e+01
-1.885908e+01
-2.157038e+01
-2.458704e+01
-2.800290e+01
-3.205270e+01
0.000000e+00
-3.904528e-01
-1.091703e+00
-2.073665e+00
-3.249404e+00
-4.580929e+00
-6.115317e+00
-7.800257e+00
-9.663869e+00
-1.169328e+01
-1.388447e+01
-1.625132e+01
-1.877002e+01
-2.150812e+01
-2.457706e+01
-2.785102e+01
-3.088351e+01
0.000000e+00
-4.494386e-01
-1.088080e+00
-2.047525e+00
-3.187022e+00
-4.511277e+00
-6.053786e+00
-7.723498e+00
-9.606294e+00
-1.163456e+01
-1.384755e+01
-1.623425e+01
-1.877852e+01
-2.151846e+01
-2.450738e+01
-2.754135e+01
-3.016720e+01
0.000000e+00
-4.563488e-01
-1.110495e+00
-2.031971e+00
-3.172616e+00
-4.501699e+00
-6.032162e+00
-7.721857e+00
-9.595990e+00
-1.164669e+01
-1.387412e+01
-1.626804e+01
-1.881980e+01
-2.151961e+01
-2.435675e+01
-2.717479e+01
-2.956268e+01
0.000000e+00
-4.481856e-01
-1.087757e+00
-2.049613e+00
-3.194029e+00
-4.528456e+00
-6.081427e+00
-7.760215e+00
-9.658094e+00
-1.171228e+01
-1.394454e+01
-1.632021e+01
-1.885071e+01
-2.150965e+01
-2.422180e+01
-2.685500e+01
-2.912428e+01
0.000000e+00
-3.887838e-01
-1.091717e+00
-2.078496e+00
-3.263243e+00
-4.610243e+00
-6.161103e+00
-7.869541e+00
-9.763021e+00
-1.182864e+01
-1.403092e+01
-1.638751e+01
-1.888988e+01
-2.150956e+01
-2.413942e+01
-2.664777e+01
-2.889052e+01
0.000000e+00
-4.144432e-01
-1.193656e+00
-2.182775e+00
-3.384750e+00
-4.738158e+00
-6.286056e+00
-8.010619e+00
-9.901571e+00
-1.196595e+01
-1.414594e+01
-1.648606e+01
-1.896700e+01
-2.155109e+01
-2.411893e+01
-2.656022e+01
-2.883004e+01
0.000000e+00
-6.178452e-01
-1.362594e+00
-2.369725e+00
-3.554180e+00
-4.912103e+00
-6.464340e+00
-8.178873e+00
-1.007433e+01
-1.212135e+01
-1.430112e+01
-1.663423e+01
-1.909059e+01
-2.163309e+01
-2.414357e+01
-2.654533e+01
-2.882889e+01


0.000000e+00
1.541799e-05
2.508018e-05
3.749375e-05
5.358457e-05
6.716336e-05
8.318894e-05
9.712909e-05
1.118702e-04
1.257437e-04
1.408883e-04
1.552379e-04
1.717891e-04
1.876153e-04
1.977086e-04
2.034551e-04
2.103882e-04
0.000000e+00
1.145665e-05
1.973513e-05
2.841671e-05
4.099059e-05
5.172371e-05
6.185363e-05
7.296451e-05
8.316817e-05
9.458296e-05
1.052332e-04
1.156314e-04
1.264866e-04
1.358458e-04
1.374600e-04
1.412144e-04
1.470369e-04
0.000000e+00
9.527245e-06
1.502495e-05
2.021467e-05
2.884394e-05
3.555225e-05
4.128446e-05
4.863266e-05
5.460314e-05
6.197731e-05
6.837523e-05
7.405280e-05
7.876290e-05
8.094880e-05
8.020128e-05
8.257696e-05
8.680822e-05
0.000000e+00
5.186866e-06
6.843534e-06
9.624563e-06
1.306345e-05
1.351928e-05
1.587751e-05
1.725392e-05
2.089879e-05
2.431889e-05
2.806799e-05
2.913175e-05
2.854764e-05
2.712273e-05
2.684057e-05
2.987294e-05
3.554385e-05
0.000000e+00
-1.760465e-07
-4.386982e-07
-8.631459e-07
-1.737635e-06
-2.901394e-06
-5.021363e-06
-7.270380e-06
-7.842207e-06
-7.896357e-06
-8.834043e-06
-1.196721e-05
-1.470879e-05
-1.614736e-05
-1.582187e-05
-1.367026e-05
-9.680528e-06
0.000000e+00
-5.452428e-06
-7.435700e-06
-1.076080e-05
-1.467053e-05
-1.609148e-05
-2.057217e-05
-2.432714e-05
-3.030236e-05
-3.345182e-05
-3.760478e-05
-4.224318e-05
-4.738626e-05
-4.918311e-05
-4.972380e-05
-5.018811e-05
-4.845037e-05
0.000000e+00
-9.525728e-06
-1.509164e-05
-2.038408e-05
-2.894408e-05
-3.534706e-05
-4.075422e-05
-4.874698e-05
-5.592550e-05
-6.365364e-05
-6.892031e-05
-7.392615e-05
-7.806875e-05
-8.166946e-05
-8.356857e-05
-8.548507e-05
-8.623078e-05
0.000000e+00
-1.138491e-05
-1.964658e-05
-2.831127e-05
-4.076343e-05
-5.166853e-05
-6.160749e-05
-7.279713e-05
-8.319168e-05
-9.458740e-05
-1.052145e-04
-1.136135e-04
-1.183989e-04
-1.234390e-04
-1.270588e-04
-1.283672e-04
-1.284624e-04
0.000000e+00
-1.542828e-05
-2.502023e-05
-3.734009e-05
-5.337326e-05
-6.698830e-05
-8.288371e-05
-9.585049e-05
-1.100146e-04
-1.232855e-04
-1.409463e-04
-1.567965e-04
-1.666258e-04
-1.718545e-04
-1.740575e-04
-1.742811e-04
-1.741023e-04
0.000000e+00
1.259559e-05
1.999648e-05
3.243320e-05
4.873527e-05
6.685483e-05
9.128592e-05
1.201052e-04
1.534055e-04
1.901329e-04
2.302925e-04
2.742991e-04
3.242175e-04
3.783523e-04
4.398957e-04
5.107547e-04
5.841635e-04
0.000000e+00
7.679627e-06
1.610605e-05
2.633154e-05
4.227475e-05
6.089418e-05
8.482519e-05
1.142375e-04
1.471595e-04
1.840169e-04
2.239532e-04
2.680896e-04
3.176468e-04
3.734047e-04
4.346392e-04
5.033744e-04
5.738121e-04
0.000000e+00
4.325232e-06
1.228838e-05
2.172244e-05
3.645189e-05
5.567225e-05
7.940133e-05
1.097315e-04
1.429994e-04
1.795272e-04
2.193673e-04
2.635493e-04
3.138633e-04
3.710079e-04
4.304893e-04
4.958965e-04
5.641314e-04
0.000000e+00
3.198394e-06
1.058717e-05
2.008179e-05
3.450580e-05
5.199660e-05
7.640153e-05
1.087352e-04
1.435441e-04
1.780864e-04
2.173317e-04
2.619037e-04
3.131036e-04
3.695926e-04
4.277518e-04
4.880639e-04
5.499751e-04
0.000000e+00
2.809911e-06
1.026437e-05
2.004070e-05
3.423787e-05
5.070348e-05
7.528498e-05
1.097811e-04
1.447441e-04
1.780069e-04
2.155428e-04
2.618361e-04
3.133171e-04
3.697373e-04
4.266087e-04
4.816831e-04
5.338479e-04
0.000000e+00
3.342320e-06
1.077844e-05
2.046010e-05
3.484799e-05
5.179911e-05
7.717258e-05
1.106683e-04
1.453614e-04
1.778400e-04
2.159307e-04
2.632872e-04
3.156563e-04
3.700724e-04
4.265150e-04
4.793619e-04
5.228129e-04
0.000000e+00
4.479438e-06
1.251785e-05
2.207061e-05
3.673185e-05
5.575769e-05
8.038536e-05
1.117379e-04
1.447088e-04
1.789495e-04
2.181893e-04
2.664939e-04
3.191485e-04
3.721836e-04
4.256104e-04
4.766094e-04
5.193295e-04
0.000000e+00
7.804639e-06
1.634387e-05
2.663511e-05
4.253582e-05
6.130937e-05
8.579782e-05
1.159104e-04
1.481810e-04
1.832468e-04
2.228074e-04
2.702722e-04
3.221954e-04
3.743887e-04
4.257632e-04
4.745853e-04
5.197876e-04
0.000000e+00
1.270917e-05
2.023460e-05
3.272644e-05
4.907844e-05
6.739729e-05
9.233050e-05
1.215658e-04
1.543817e-04
1.894043e-04
2.300763e-04
2.746381e-04
3.245033e-04
3.755429e-04
4.260858e-04
4.741017e-04
5.200509e-04


5.683047e+00
6.143060e+00
6.868927e+00
5.945667e+00
5.781188e+00
6.654061e+00
6.488393e+00
6.462811e+00
5.980072e+00
5.907379e+00
6.285702e+00
7.152117e+00
8.849377e+00
9.831263e+00
9.152145e+00
8.003140e+00
8.087624e+00
8.463471e+00
8.663210e+00
8.359102e+00
8.259345e+00
8.544868e+00
8.703408e+00
8.437693e+00
8.407223e+00
8.271936e+00
8.418883e+00
8.845857e+00
9.508079e+00
9.843892e+00
8.396146e+00
6.475196e+00
9.844286e+00
9.824338e+00
9.999999e+00
9.838426e+00
9.836730e+00
9.975966e+00
9.836374e+00
9.949929e+00
9.849714e+00
9.881588e+00
9.899323e+00
9.877083e+00
9.895289e+00
9.396524e+00
8.001350e+00
6.192702e+00
1.000000e+01
1.000000e+01
1.000000e+01
1.000000e+01
1.000000e+01
1.000000e+01
1.000000e+01
1.000000e+01
1.000000e+01
1.000000e+01
1.000000e+01
9.484055e+00
8.831760e+00
8.374298e+00
7.993492e+00
7.922653e+00
1.000000e+01
1.000000e+01
1.000000e+01
1.000000e+01
1.000000e+01
9.999999e+00
9.935317e+00
9.963320e+00
9.999999e+00
9.920029e+00
9.362079e+00
8.594499e+00
7.707632e+00
7.746908e+00
8.656434e+00
9.171565e+00
9.844833e+00
9.824303e+00
9.999998e+00
9.838336e+00
9.836517e+00
9.720061e+00
9.304922e+00
9.525735e+00
9.388615e+00
8.877932e+00
8.314052e+00
7.899391e+00
8.198155e+00
8.754249e+00
9.449973e+00
9.999999e+00
8.090805e+00
8.464887e+00
8.662715e+00
8.357700e+00
8.184709e+00
8.103520e+00
7.952173e+00
7.847499e+00
7.934499e+00
7.360038e+00
7.494403e+00
8.492382e+00
9.291057e+00
9.847229e+00
1.000000e+01
1.000000e+01
5.690957e+00
6.145779e+00
6.868163e+00
5.940078e+00
5.763678e+00
6.351436e+00
6.162446e+00
6.632938e+00
6.369860e+00
6.566398e+00
7.884252e+00
9.118352e+00
9.986715e+00
1.000000e+01
1.000000e+01
1.000000e+01


-8.195080e-01
-1.666505e-01
-3.976414e-01
-2.588299e-01
-9.217853e-02
-3.078154e-01
-1.230497e-01
-2.097806e-01
-1.619293e-01
-1.576099e-01
-2.154385e-01
-1.496363e-01
-4.613173e-01
-6.862665e-01
3.157082e-01
-8.469428e-01
6.106569e-01
4.817395e-01
2.950757e-01
2.251606e-01
2.912583e-01
1.679602e-01
1.749423e-01
1.734649e-01
1.093003e-01
1.484585e-01
1.277828e-01
2.413485e-01
3.024795e-01
5.092289e-01
6.953467e-01
-9.344594e-01
7.225978e-01
4.716999e-01
5.629054e-02
-2.278648e-02
-3.582347e-02
-1.893662e-01
-8.010291e-02
-1.383016e-01
-7.759178e-02
-1.907249e-02
3.111072e-02
1.853456e-01
2.783103e-01
1.479851e-01
-2.535734e-02
-1.678435e-01
7.278663e-01
5.564818e-01
1.927461e-01
6.126243e-02
-2.194429e-02
-1.073247e-01
-1.620449e-02
-6.233473e-02
1.309470e-02
1.667059e-02
5.855829e-02
1.174519e-01
5.902130e-02
-2.622358e-01
-3.841306e-01
-7.819245e-02
7.307636e-01
5.604373e-01
2.007638e-01
6.944170e-02
-1.787537e-02
-1.133222e-01
-3.614782e-02
-1.031325e-01
-5.260684e-02
-4.416034e-02
2.043507e-02
1.349343e-02
-3.775261e-02
-1.297784e-01
-1.029778e-01
3.103818e-01
7.293954e-01
4.819518e-01
7.436421e-02
-4.847139e-03
-2.355904e-02
-1.629891e-01
-7.271717e-02
-1.875326e-01
-1.820466e-01
-1.089724e-01
-7.752000e-02
-9.801804e-02
-1.117037e-01
4.549466e-02
3.338786e-01
7.244919e-01
6.147183e-01
4.876788e-01
3.024871e-01
2.301286e-01
2.873821e-01
1.614376e-01
1.520947e-01
1.039736e-01
-5.793158e-02
-3.975539e-02
-9.609088e-02
-5.593762e-02
5.741362e-02
3.652992e-01
7.128382e-01
9.478977e-01
-8.253457e-01
-1.719300e-01
-4.053590e-01
-2.620212e-01
-9.111335e-02
-3.019679e-01
-1.190406e-01
-1.575286e-01
-5.585301e-02
-2.213206e-02
-9.261496e-02
1.011288e-01
3.879361e-01
7.721743e-01
9.528974e-01
9.987354e-01
1 2 19 18
2 3 20 19
3 4 21 20
4 5 22 21
5 6 23 22
6 7 24 23
7 8 25 24
8 9 26 25
9 10 27 26
10 11 28 27
11 12 29 28
12 13 30 29
13 14 31 30
14 15 32 31
15 16 33 32
16 17 34 33
18 19 36 35
19 20 37 36
20 21 38 37
21 22 39 38
22 23 40 39
23 24 41 40
24 25 42 41
25 26 43 42
26 27 44 43
27 28 45 44
28 29 46 45
29 30 47 46
30 31 48 47
31 32 49 48
32 33 50 49
33 34 51 50
35 36 53 52
36 37 54 53
37 38 55 54
38 39 56 55
39 40 57 56
40 41 58 57
41 42 59 58
42 43 60 59
43 44 61 60
44 45 62 61
45 46 63 62
46 47 64 63
47 48 65 64
48 49 66 65
49 50 67 66
50 51 68 67
52 53 70 69
53 54 71 70
54 55 72 71
55 56 73 72
56 57 74 73
57 58 75 74
58 59 76 75
59 60 77 76
60 61 78 77
61 62 79 78
62 63 80 79
63 64 81 80
64 65 82 81
65 66 83 82
66 67 84 83
67 68 85 84
69 70 87 86
70 71 88 87
71 72 89 88
72 73 90 89
73 74 91 90
74 75 92 91
75 76 93 92
76 77 94 93
77 78 95 94
78 79 96 95
79 80 97 96
80 81 98 97
81 82 99 98
82 83 100 99
83 84 101 100
84 85 102 101
86 87 104 103
87 88 105 104
88 89 106 105
89 90 107 106
90 91 108 107
91 92 109 108
92 93 110 109
93 94 111 110
94 95 112 111
95 96 113 112
96 97 114 113
97 98 115 114
98 99 116 115
99 100 117 116
100 101 118 117
101 102 119 118
103 104 121 120
104 105 122 121
105 106 123 122
106 107 124 123
107 108 125 124
108 109 126 125
109 110 127 126
110 111 128 127
111 112 129 128
112 113 130 129
113 114 131 130
114 115 132 131
115 116 133 132
116 117 134 133
117 118 135 134
118 119 136 135
120 121 138 137
121 122 139 138
122 123 140 139
123 124 141 140
124 125 142 141
125 126 143 142
126 127 144 143
127 128 145 144
128 129 146 145
129 130 147 146
130 131 148 147
131 132 149 148
132 133 150 149
133 134 151 150
134 135 152 151
135 136 153 152
