TITLE = "Solution"
VARIABLES = x, y, u, v, psiu, psiv, t, stress
ZONE T="structure" N=153 E=128 F=FEBLOCK ET=QUADRILATERAL VARLOCATION=([7,8]=cellcentered)
0.000000e+00
1.250000e+01
2.500000e+01
3.750000e+01
5.000000e+01
6.250000e+01
7.500000e+01
8.750000e+01
1.000000e+02
1.125000e+02
1.250000e+02
1.375000e+02
1.500000e+02
1.625000e+02
1.750000e+02
1.875000e+02
2.000000e+02
0.000000e+00
1.250000e+01
2.500000e+01
3.750000e+01
5.000000e+01
6.250000e+01
7.500000e+01
8.750000e+01
1.000000e+02
1.125000e+02
1.250000e+02
1.375000e+02
1.500000e+02
1.625000e+02
1.750000e+02
1.875000e+02
2.000000e+02
0.000000e+00
1.250000e+01
2.500000e+01
3.750000e+01
5.000000e+01
6.250000e+01
7.500000e+01
8.750000e+01
1.000000e+02
1.125000e+02
1.250000e+02
1.375000e+02
1.500000e+02
1.625000e+02
1.750000e+02
1.875000e+02
2.000000e+02
0.000000e+00
1.250000e+01
2.500000e+01
3.750000e+01
5.000000e+01
6.250000e+01
7.500000e+01
8.750000e+01
1.000000e+02
1.125000e+02
1.250000e+02
1.375000e+02
1.500000e+02
1.625000e+02
1.750000e+02
1.875000e+02
2.000000e+02
0.000000e+00
1.250000e+01
2.500000e+01
3.750000e+01
5.000000e+01
6.250000e+01
7.500000e+01
8.750000e+01
1.000000e+02
1.125000e+02
1.250000e+02
1.375000e+02
1.500000e+02
1.625000e+02
1.750000e+02
1.875000e+02
2.000000e+02
0.000000e+00
1.250000e+01
2.500000e+01
3.750000e+01
5.000000e+01
6.250000e+01
7.500000e+01
8.750000e+01
1.000000e+02
1.125000e+02
1.250000e+02
1.375000e+02
1.500000e+02
1.625000e+02
1.750000e+02
1.875000e+02
2.000000e+02
0.000000e+00
1.250000e+01
2.500000e+01
3.750000e+01
5.000000e+01
6.250000e+01
7.500000e+01
8.750000e+01
1.000000e+02
1.125000e+02
1.250000e+02
1.375000e+02
1.500000e+02
1.625000e+02
1.750000e+02
1.875000e+02
2.000000e+02
0.000000e+00
1.250000e+01
2.500000e+01
3.750000e+01
5.000000e+01
6.250000e+01
7.500000e+01
8.750000e+01
1.000000e+02
1.125000e+02
1.250000e+02
1.375000e+02
1.500000e+02
1.625000e+02
1.750000e+02
1.875000e+02
2.000000e+02
0.000000e+00
1.250000e+01
2.500000e+01
3.750000e+01
5.000000e+01
6.250000e+01
7.500000e+01
8.750000e+01
1.000000e+02
1.125000e+02
1.250000e+02
1.375000e+02
1.500000e+02
1.625000e+02
1.750000e+02
1.875000e+02
2.000000e+02
0.000000e+00
0.000000e+00
0.000000e+00
0.000000e+00
0.000000e+00
0.000000e+00
0.000000e+00
0.000000e+00
0.000000e+00
0.000000e+00
0.000000e+00
0.000000e+00
0.000000e+00
0.000000e+00
0.000000e+00
0.000000e+00
0.000000e+00
1.250000e+01
1.250000e+01
1.250000e+01
1.250000e+01
1.250000e+01
1.250000e+01
1.250000e+01
1.250000e+01
1.250000e+01
1.250000e+01
1.250000e+01
1.250000e+01
1.250000e+01
1.250000e+01
1.250000e+01
1.250000e+01
1.250000e+01
2.500000e+01
2.500000e+01
2.500000e+01
2.500000e+01
2.500000e+01
2.500000e+01
2.500000e+01
2.500000e+01
2.500000e+01
2.500000e+01
2.500000e+01
2.500000e+01
2.500000e+01
2.500000e+01
2.500000e+01
2.500000e+01
2.500000e+01
3.750000e+01
3.750000e+01
3.750000e+01
3.750000e+01
3.750000e+01
3.750000e+01
3.750000e+01
3.750000e+01
3.750000e+01
3.750000e+01
3.750000e+01
3.750000e+01
3.750000e+01
3.750000e+01
3.750000e+01
3.750000e+01
3.750000e+01
5.000000e+01
5.000000e+01
5.000000e+01
5.000000e+01
5.000000e+01
5.000000e+01
5.000000e+01
5.000000e+01
5.000000e+01
5.000000e+01
5.000000e+01
5.000000e+01
5.000000e+01
5.000000e+01
5.000000e+01
5.000000e+01
5.000000e+01
6.250000e+01
6.250000e+01
6.250000e+01
6.250000e+01
6.250000e+01
6.250000e+01
6.250000e+01
6.250000e+01
6.250000e+01
6.250000e+01
6.250000e+01
6.250000e+01
6.250000e+01
6.250000e+01
6.250000e+01
6.250000e+01
6.250000e+01
7.500000e+01
7.500000e+01
7.500000e+01
7.500000e+01
7.500000e+01
7.500000e+01
7.500000e+01
7.500000e+01
7.500000e+01
7.500000e+01
7.500000e+01
7.500000e+01
7.500000e+01
7.500000e+01
7.500000e+01
7.500000e+01
7.500000e+01
8.750000e+01
8.750000e+01
8.750000e+01
8.750000e+01
8.750000e+01
8.750000e+01
8.750000e+01
8.750000e+01
8.750000e+01
8.750000e+01
8.750000e+01
8.750000e+01
8.750000e+01
8.750000e+01
8.750000e+01
8.750000e+01
8.750000e+01
1.000000e+02
1.000000e+02
1.000000e+02
1.000000e+02
1.000000e+02
1.000000e+02
1.000000e+02
1.000000e+02
1.000000e+02
1.000000e+02
1.000000e+02
1.000000e+02
1.000000e+02
1.000000e+02
1.000000e+02
1.000000e+02
1.000000e+02
0.000000e+00
-6.979887e-02
-1.285219e-01
-1.825546e-01
-2.328742e-01
-2.793744e-01
-3.219556e-01
-3.605846e-01
-3.953177e-01
-4.263149e-01
-4.538835e-01
-4.785623e-01
-5.012782e-01
-5.236325e-01
-5.483871e-01
-5.787888e-01
-6.016020e-01
0.000000e+00
-4.168266e-02
-8.658761e-02
-1.280545e-01
-1.662581e-01
-2.013440e-01
-2.333846e-01
-2.624231e-01
-2.885117e-01
-3.117309e-01
-3.321984e-01
-3.500618e-01
-3.654351e-01
-3.781601e-01
-3.871357e-01
-3.891030e-01
-3.961563e-01
0.000000e+00
-2.606715e-02
-5.360058e-02
-8.106924e-02
-1.067104e-01
-1.302525e-01
-1.516765e-01
-1.710067e-01
-1.882478e-01
-2.033711e-01
-2.162951e-01
-2.268394e-01
-2.346280e-01
-2.389758e-01
-2.390965e-01
-2.373596e-01
-2.445534e-01
0.000000e+00
-1.258162e-02
-2.590095e-02
-3.930439e-02
-5.212049e-02
-6.392491e-02
-7.462446e-02
-8.418796e-02
-9.256068e-02
-9.963368e-02
-1.052262e-01
-1.090742e-01
-1.108628e-01
-1.104449e-01
-1.087282e-01
-1.091976e-01
-1.145542e-01
0.000000e+00
-1.158999e-05
-2.634770e-05
-4.105694e-05
-4.886338e-05
-3.448218e-05
3.242515e-05
2.062973e-04
5.764482e-04
1.275916e-03
2.478268e-03
4.357866e-03
6.961825e-03
9.904428e-03
1.193709e-02
1.137959e-02
7.833111e-03
0.000000e+00
1.256379e-02
2.585955e-02
3.923816e-02
5.203812e-02
6.385792e-02
7.465045e-02
8.446850e-02
9.339720e-02
1.015401e-01
1.090037e-01
1.158430e-01
1.219395e-01
1.268282e-01
1.297039e-01
1.299320e-01
1.281320e-01
0.000000e+00
2.606422e-02
5.359166e-02
8.105149e-02
1.066827e-01
1.302180e-01
1.516479e-01
1.710160e-01
1.883624e-01
2.037179e-01
2.170959e-01
2.284637e-01
2.376907e-01
2.445124e-01
2.486070e-01
2.499365e-01
2.495168e-01
0.000000e+00
4.169976e-02
8.662479e-02
1.281137e-01
1.663377e-01
2.014291e-01
2.334324e-01
2.623358e-01
2.880953e-01
3.106365e-01
3.298524e-01
3.456102e-01
3.577839e-01
3.663332e-01
3.714330e-01
3.736078e-01
3.740072e-01
0.000000e+00
6.982747e-02
1.285973e-01
1.826959e-01
2.330999e-01
2.796919e-01
3.223343e-01
3.609031e-01
3.952693e-01
4.252543e-01
4.505981e-01
4.709629e-01
4.860142e-01
4.956336e-01
5.002856e-01
5.014339e-01
5.014117e-01
0.000000e+00
-4.225118e-02
-8.294397e-02
-1.356723e-01
-2.003855e-01
-2.769624e-01
-3.645643e-01
-4.622110e-01
-5.688640e-01
-6.834988e-01
-8.051690e-01
-9.331214e-01
-1.067047e+00
-1.207662e+00
-1.358613e+00
-1.531329e+00
-1.779491e+00
0.000000e+00
-2.601060e-02
-6.845985e-02
-1.218421e-01
-1.876129e-01
-2.652348e-01
-3.538980e-01
-4.525982e-01
-5.602849e-01
-6.759151e-01
-7.985162e-01
-9.273005e-01
-1.061912e+00
-1.203046e+00
-1.353938e+00
-1.525606e+00
-1.735917e+00
0.000000e+00
-1.962730e-02
-5.841874e-02
-1.119980e-01
-1.783906e-01
-2.568115e-01
-3.462897e-01
-4.458111e-01
-5.543325e-01
-6.708258e-01
-7.943370e-01
-9.241055e-01
-1.059809e+00
-1.202028e+00
-1.353050e+00
-1.515712e+00
-1.673133e+00
0.000000e+00
-1.691340e-02
-5.342635e-02
-1.062198e-01
-1.728525e-01
-2.517561e-01
-3.417921e-01
-4.419080e-01
-5.510801e-01
-6.683081e-01
-7.926588e-01
-9.233568e-01
-1.059926e+00
-1.202303e+00
-1.350304e+00
-1.499767e+00
-1.637456e+00
0.000000e+00
-1.613158e-02
-5.191542e-02
-1.043765e-01
-1.710273e-01
-2.501273e-01
-3.404222e-01
-4.408604e-01
-5.504377e-01
-6.681702e-01
-7.931038e-01
-9.243403e-01
-1.061031e+00
-1.202169e+00
-1.345641e+00
-1.486540e+00
-1.616343e+00
0.000000e+00
-1.690336e-02
-5.341921e-02
-1.062325e-01
-1.729149e-01
-2.519206e-01
-3.421441e-01
-4.425745e-01
-5.522293e-01
-6.701195e-01
-7.952293e-01
-9.264720e-01
-1.062578e+00
-1.201815e+00
-1.341509e+00
-1.477576e+00
-1.604609e+00
0.000000e+00
-1.961092e-02
-5.840690e-02
-1.120192e-01
-1.784959e-01
-2.570899e-01
-3.468864e-01
-4.469429e-01
-5.562865e-01
-6.739113e-01
-7.987331e-01
-9.294981e-01
-1.064631e+00
-1.202043e+00
-1.339029e+00
-1.472485e+00
-1.599433e+00
0.000000e+00
-2.599525e-02
-6.844954e-02
-1.218703e-01
-1.877392e-01
-2.655621e-01
-3.545926e-01
-4.539064e-01
-5.625295e-01
-6.794377e-01
-8.035024e-01
-9.333802e-01
-1.067361e+00
-1.203244e+00
-1.338408e+00
-1.470380e+00
-1.598218e+00
0.000000e+00
-4.224484e-02
-8.294486e-02
-1.357159e-01
-2.005320e-01
-2.773122e-01
-3.652751e-01
-4.635077e-01
-5.710259e-01
-6.867874e-01
-8.096365e-01
-9.382000e-01
-1.070756e+00
-1.205153e+00
-1.338936e+00
-1.469995e+00
-1.598237e+00


0.000000e+00
9.849710e-08
1.973548e-07
2.891677e-07
3.752760e-07
4.551932e-07
5.285835e-07
5.954256e-07
6.558531e-07
7.101189e-07
7.585819e-07
8.016417e-07
8.395321e-07
8.719546e-07
8.984917e-07
9.211678e-07
9.413440e-07
0.000000e+00
5.538813e-08
1.347830e-07
2.061784e-07
2.716455e-07
3.319976e-07
3.871792e-07
4.371899e-07
4.820690e-07
5.218483e-07
5.565151e-07
5.859668e-07
6.100535e-07
6.292706e-07
6.468234e-07
6.676557e-07
6.890962e-07
0.000000e+00
3.489528e-08
8.517217e-08
1.323487e-07
1.763322e-07
2.167893e-07
2.535602e-07
2.866000e-07
3.158580e-07
3.412350e-07
3.625856e-07
3.798059e-07
3.931656e-07
4.040356e-07
4.155005e-07
4.309904e-07
4.488871e-07
0.000000e+00
1.704527e-08
4.082957e-08
6.393382e-08
8.592729e-08
1.061343e-07
1.243360e-07
1.404488e-07
1.543779e-07
1.660018e-07
1.752194e-07
1.820851e-07
1.870626e-07
1.913247e-07
1.968159e-07
2.058442e-07
2.182692e-07
0.000000e+00
1.786558e-11
2.213547e-11
-9.377188e-12
-1.069915e-10
-3.190805e-10
-7.165710e-10
-1.393854e-09
-2.460455e-09
-4.013805e-09
-6.079536e-09
-8.511701e-09
-1.087593e-08
-1.237587e-08
-1.178493e-08
-7.535439e-09
6.270039e-10
0.000000e+00
-1.701188e-08
-4.078474e-08
-6.393547e-08
-8.608312e-08
-1.066330e-07
-1.254873e-07
-1.427260e-07
-1.584485e-07
-1.727166e-07
-1.855017e-07
-1.966292e-07
-2.057432e-07
-2.123118e-07
-2.156780e-07
-2.150362e-07
-2.105651e-07
0.000000e+00
-3.487426e-08
-8.514109e-08
-1.323301e-07
-1.763689e-07
-2.169621e-07
-2.540099e-07
-2.875530e-07
-3.176492e-07
-3.443164e-07
-3.674892e-07
-3.869838e-07
-4.024908e-07
-4.136469e-07
-4.202670e-07
-4.224716e-07
-4.211513e-07
0.000000e+00
-5.540921e-08
-1.348249e-07
-2.062164e-07
-2.716386e-07
-3.318758e-07
-3.868274e-07
-4.364305e-07
-4.806450e-07
-5.194141e-07
-5.526489e-07
-5.802174e-07
-6.019479e-07
-6.176955e-07
-6.275989e-07
-6.324680e-07
-6.336444e-07
0.000000e+00
-9.861355e-08
-1.975612e-07
-2.894229e-07
-3.754941e-07
-4.551951e-07
-5.280299e-07
-5.937299e-07
-6.520793e-07
-7.028808e-07
-7.459787e-07
-7.813039e-07
-8.089158e-07
-8.290411e-07
-8.421500e-07
-8.489266e-07
-8.511034e-07
0.000000e+00
8.916758e-08
1.739649e-07
2.691223e-07
3.826144e-07
5.156121e-07
6.672449e-07
8.361129e-07
1.020603e-06
1.219147e-06
1.430403e-06
1.653544e-06
1.889021e-06
2.140220e-06
2.413344e-06
2.703463e-06
2.991301e-06
0.000000e+00
5.394489e-08
1.363604e-07
2.322588e-07
3.479545e-07
4.836202e-07
6.381191e-07
8.098684e-07
9.972128e-07
1.198563e-06
1.412553e-06
1.638291e-06
1.875799e-06
2.126565e-06
2.393041e-06
2.675803e-06
2.959852e-06
0.000000e+00
3.436941e-08
1.062134e-07
2.020019e-07
3.193598e-07
4.573385e-07
6.143319e-07
7.886333e-07
9.785589e-07
1.182512e-06
1.399079e-06
1.627148e-06
1.865956e-06
2.114800e-06
2.373271e-06
2.645707e-06
2.920601e-06
0.000000e+00
2.522217e-08
9.035173e-08
1.843569e-07
3.024809e-07
4.418933e-07
6.005112e-07
7.765194e-07
9.682108e-07
1.173960e-06
1.392236e-06
1.621581e-06
1.860457e-06
2.106939e-06
2.359486e-06
2.621414e-06
2.882615e-06
0.000000e+00
2.259305e-08
8.554181e-08
1.786804e-07
2.970113e-07
4.369982e-07
5.963173e-07
7.731049e-07
9.656322e-07
1.172213e-06
1.391157e-06
1.620683e-06
1.858738e-06
2.102774e-06
2.350284e-06
2.602811e-06
2.850541e-06
0.000000e+00
2.524254e-08
9.042816e-08
1.845459e-07
3.028567e-07
4.425566e-07
6.015876e-07
7.781417e-07
9.704715e-07
1.176814e-06
1.395328e-06
1.623992e-06
1.860458e-06
2.101824e-06
2.344959e-06
2.589635e-06
2.827539e-06
0.000000e+00
3.440227e-08
1.063466e-07
2.023332e-07
3.200188e-07
4.585031e-07
6.162242e-07
7.914880e-07
9.825405e-07
1.187544e-06
1.404528e-06
1.631311e-06
1.865376e-06
2.103699e-06
2.342937e-06
2.581739e-06
2.813525e-06
0.000000e+00
5.398661e-08
1.365293e-07
2.326668e-07
3.487586e-07
4.850342e-07
6.404071e-07
8.133037e-07
1.001973e-06
1.204517e-06
1.418864e-06
1.642714e-06
1.873463e-06
2.108139e-06
2.343663e-06
2.578189e-06
2.806834e-06
0.000000e+00
8.923671e-08
1.741624e-07
2.695624e-07
3.834516e-07
5.170506e-07
6.695260e-07
8.394647e-07
1.025122e-06
1.224569e-06
1.435682e-06
1.656103e-06
1.883203e-06
2.114131e-06
2.346173e-06
2.577611e-06
2.804883e-06


2.039464e-01
2.039464e-01
2.039464e-01
2.039464e-01
2.039464e-01
2.039464e-01
2.039464e-01
2.039464e-01
2.039463e-01
2.039463e-01
2.039463e-01
2.039463e-01
2.039463e-01
2.039463e-01
2.039463e-01
2.039463e-01
2.039464e-01
2.039464e-01
2.039464e-01
2.039464e-01
2.039464e-01
2.039464e-01
2.039464e-01
2.039463e-01
2.039463e-01
2.039463e-01
2.039463e-01
2.039463e-01
2.039463e-01
2.039463e-01
2.039463e-01
2.039463e-01
2.039464e-01
2.039464e-01
2.039464e-01
2.039464e-01
2.039463e-01
2.039463e-01
2.039463e-01
2.039463e-01
2.039463e-01
2.039463e-01
2.039463e-01
2.039463e-01
2.039463e-01
2.039463e-01
2.039463e-01
2.039463e-01
2.039463e-01
2.039463e-01
2.039463e-01
2.039463e-01
2.039463e-01
2.039463e-01
2.039463e-01
2.039463e-01
2.039463e-01
2.039463e-01
2.039463e-01
2.039463e-01
2.039463e-01
2.039463e-01
2.039463e-01
2.039463e-01
2.039463e-01
2.039463e-01
2.039463e-01
2.039463e-01
2.039463e-01
2.039463e-01
2.039463e-01
2.039463e-01
2.039463e-01
2.039463e-01
2.039463e-01
2.039463e-01
2.039463e-01
2.039463e-01
2.039463e-01
2.039463e-01
2.039464e-01
2.039464e-01
2.039464e-01
2.039464e-01
2.039463e-01
2.039463e-01
2.039463e-01
2.039463e-01
2.039463e-01
2.039463e-01
2.039463e-01
2.039463e-01
2.039463e-01
2.039463e-01
2.039463e-01
2.039463e-01
2.039464e-01
2.039464e-01
2.039464e-01
2.039464e-01
2.039464e-01
2.039464e-01
2.039464e-01
2.039463e-01
2.039463e-01
2.039463e-01
2.039463e-01
2.039463e-01
2.039463e-01
2.039463e-01
2.039463e-01
2.039463e-01
2.039464e-01
2.039464e-01
2.039464e-01
2.039464e-01
2.039464e-01
2.039464e-01
2.039464e-01
2.039464e-01
2.039463e-01
2.039463e-01
2.039463e-01
2.039463e-01
2.039463e-01
2.039463e-01
2.039463e-01
2.039463e-01


9.890391e-01
9.905934e-01
9.920313e-01
9.931382e-01
9.941656e-01
9.951130e-01
9.959761e-01
9.967448e-01
9.974111e-01
9.979684e-01
9.984115e-01
9.987361e-01
9.989378e-01
9.990098e-01
9.990618e-01
9.958585e-01
9.958533e-01
9.951410e-01
9.955993e-01
9.961974e-01
9.967550e-01
9.972618e-01
9.977206e-01
9.981362e-01
9.985124e-01
9.988533e-01
9.991625e-01
9.994425e-01
9.996868e-01
9.998468e-01
9.994422e-01
9.939589e-01
9.985592e-01
9.981501e-01
9.980397e-01
9.981950e-01
9.983994e-01
9.985973e-01
9.987811e-01
9.989548e-01
9.991230e-01
9.992870e-01
9.994402e-01
9.995588e-01
9.995835e-01
9.993700e-01
9.985952e-01
9.972017e-01
9.997068e-01
9.994084e-01
9.992241e-01
9.991773e-01
9.991960e-01
9.992273e-01
9.992586e-01
9.992892e-01
9.993192e-01
9.993443e-01
9.993513e-01
9.993139e-01
9.991955e-01
9.989829e-01
9.988025e-01
9.987569e-01
9.997079e-01
9.994100e-01
9.992255e-01
9.991770e-01
9.991913e-01
9.992139e-01
9.992296e-01
9.992349e-01
9.992277e-01
9.992046e-01
9.991616e-01
9.990996e-01
9.990406e-01
9.990523e-01
9.992192e-01
9.995080e-01
9.985613e-01
9.981532e-01
9.980426e-01
9.981950e-01
9.983914e-01
9.985728e-01
9.987263e-01
9.988497e-01
9.989421e-01
9.990043e-01
9.990436e-01
9.990821e-01
9.991629e-01
9.993322e-01
9.995866e-01
9.998497e-01
9.958529e-01
9.951407e-01
9.955986e-01
9.961957e-01
9.967506e-01
9.972519e-01
9.977000e-01
9.980967e-01
9.984425e-01
9.987380e-01
9.989882e-01
9.992067e-01
9.994171e-01
9.996377e-01
9.998440e-01
9.999739e-01
9.890316e-01
9.905817e-01
9.920169e-01
9.931221e-01
9.941511e-01
9.951077e-01
9.959939e-01
9.968076e-01
9.975491e-01
9.982168e-01
9.988028e-01
9.992890e-01
9.996506e-01
9.998738e-01
9.999753e-01
9.999995e-01
1 2 19 18
2 3 20 19
3 4 21 20
4 5 22 21
5 6 23 22
6 7 24 23
7 8 25 24
8 9 26 25
9 10 27 26
10 11 28 27
11 12 29 28
12 13 30 29
13 14 31 30
14 15 32 31
15 16 33 32
16 17 34 33
18 19 36 35
19 20 37 36
20 21 38 37
21 22 39 38
22 23 40 39
23 24 41 40
24 25 42 41
25 26 43 42
26 27 44 43
27 28 45 44
28 29 46 45
29 30 47 46
30 31 48 47
31 32 49 48
32 33 50 49
33 34 51 50
35 36 53 52
36 37 54 53
37 38 55 54
38 39 56 55
39 40 57 56
40 41 58 57
41 42 59 58
42 43 60 59
43 44 61 60
44 45 62 61
45 46 63 62
46 47 64 63
47 48 65 64
48 49 66 65
49 50 67 66
50 51 68 67
52 53 70 69
53 54 71 70
54 55 72 71
55 56 73 72
56 57 74 73
57 58 75 74
58 59 76 75
59 60 77 76
60 61 78 77
61 62 79 78
62 63 80 79
63 64 81 80
64 65 82 81
65 66 83 82
66 67 84 83
67 68 85 84
69 70 87 86
70 71 88 87
71 72 89 88
72 73 90 89
73 74 91 90
74 75 92 91
75 76 93 92
76 77 94 93
77 78 95 94
78 79 96 95
79 80 97 96
80 81 98 97
81 82 99 98
82 83 100 99
83 84 101 100
84 85 102 101
86 87 104 103
87 88 105 104
88 89 106 105
89 90 107 106
90 91 108 107
91 92 109 108
92 93 110 109
93 94 111 110
94 95 112 111
95 96 113 112
96 97 114 113
97 98 115 114
98 99 116 115
99 100 117 116
100 101 118 117
101 102 119 118
103 104 121 120
104 105 122 121
105 106 123 122
106 107 124 123
107 108 125 124
108 109 126 125
109 110 127 126
110 111 128 127
111 112 129 128
112 113 130 129
113 114 131 130
114 115 132 131
115 116 133 132
116 117 134 133
117 118 135 134
118 119 136 135
120 121 138 137
121 122 139 138
122 123 140 139
123 124 141 140
124 125 142 141
125 126 143 142
126 127 144 143
127 128 145 144
128 129 146 145
129 130 147 146
130 131 148 147
131 132 149 148
132 133 150 149
133 134 151 150
134 135 152 151
135 136 153 152
