TITLE = "Solution"
VARIABLES = x, y, u, v, psiu, psiv, t, stress
ZONE T="structure" N=153 E=128 F=FEBLOCK ET=QUADRILATERAL VARLOCATION=([7,8]=cellcentered)
0.000000e+00
1.250000e+01
2.500000e+01
3.750000e+01
5.000000e+01
6.250000e+01
7.500000e+01
8.750000e+01
1.000000e+02
1.125000e+02
1.250000e+02
1.375000e+02
1.500000e+02
1.625000e+02
1.750000e+02
1.875000e+02
2.000000e+02
0.000000e+00
1.250000e+01
2.500000e+01
3.750000e+01
5.000000e+01
6.250000e+01
7.500000e+01
8.750000e+01
1.000000e+02
1.125000e+02
1.250000e+02
1.375000e+02
1.500000e+02
1.625000e+02
1.750000e+02
1.875000e+02
2.000000e+02
0.000000e+00
1.250000e+01
2.500000e+01
3.750000e+01
5.000000e+01
6.250000e+01
7.500000e+01
8.750000e+01
1.000000e+02
1.125000e+02
1.250000e+02
1.375000e+02
1.500000e+02
1.625000e+02
1.750000e+02
1.875000e+02
2.000000e+02
0.000000e+00
1.250000e+01
2.500000e+01
3.750000e+01
5.000000e+01
6.250000e+01
7.500000e+01
8.750000e+01
1.000000e+02
1.125000e+02
1.250000e+02
1.375000e+02
1.500000e+02
1.625000e+02
1.750000e+02
1.875000e+02
2.000000e+02
0.000000e+00
1.250000e+01
2.500000e+01
3.750000e+01
5.000000e+01
6.250000e+01
7.500000e+01
8.750000e+01
1.000000e+02
1.125000e+02
1.250000e+02
1.375000e+02
1.500000e+02
1.625000e+02
1.750000e+02
1.875000e+02
2.000000e+02
0.000000e+00
1.250000e+01
2.500000e+01
3.750000e+01
5.000000e+01
6.250000e+01
7.500000e+01
8.750000e+01
1.000000e+02
1.125000e+02
1.250000e+02
1.375000e+02
1.500000e+02
1.625000e+02
1.750000e+02
1.875000e+02
2.000000e+02
0.000000e+00
1.250000e+01
2.500000e+01
3.750000e+01
5.000000e+01
6.250000e+01
7.500000e+01
8.750000e+01
1.000000e+02
1.125000e+02
1.250000e+02
1.375000e+02
1.500000e+02
1.625000e+02
1.750000e+02
1.875000e+02
2.000000e+02
0.000000e+00
1.250000e+01
2.500000e+01
3.750000e+01
5.000000e+01
6.250000e+01
7.500000e+01
8.750000e+01
1.000000e+02
1.125000e+02
1.250000e+02
1.375000e+02
1.500000e+02
1.625000e+02
1.750000e+02
1.875000e+02
2.000000e+02
0.000000e+00
1.250000e+01
2.500000e+01
3.750000e+01
5.000000e+01
6.250000e+01
7.500000e+01
8.750000e+01
1.000000e+02
1.125000e+02
1.250000e+02
1.375000e+02
1.500000e+02
1.625000e+02
1.750000e+02
1.875000e+02
2.000000e+02
0.000000e+00
0.000000e+00
0.000000e+00
0.000000e+00
0.000000e+00
0.000000e+00
0.000000e+00
0.000000e+00
0.000000e+00
0.000000e+00
0.000000e+00
0.000000e+00
0.000000e+00
0.000000e+00
0.000000e+00
0.000000e+00
0.000000e+00
1.250000e+01
1.250000e+01
1.250000e+01
1.250000e+01
1.250000e+01
1.250000e+01
1.250000e+01
1.250000e+01
1.250000e+01
1.250000e+01
1.250000e+01
1.250000e+01
1.250000e+01
1.250000e+01
1.250000e+01
1.250000e+01
1.250000e+01
2.500000e+01
2.500000e+01
2.500000e+01
2.500000e+01
2.500000e+01
2.500000e+01
2.500000e+01
2.500000e+01
2.500000e+01
2.500000e+01
2.500000e+01
2.500000e+01
2.500000e+01
2.500000e+01
2.500000e+01
2.500000e+01
2.500000e+01
3.750000e+01
3.750000e+01
3.750000e+01
3.750000e+01
3.750000e+01
3.750000e+01
3.750000e+01
3.750000e+01
3.750000e+01
3.750000e+01
3.750000e+01
3.750000e+01
3.750000e+01
3.750000e+01
3.750000e+01
3.750000e+01
3.750000e+01
5.000000e+01
5.000000e+01
5.000000e+01
5.000000e+01
5.000000e+01
5.000000e+01
5.000000e+01
5.000000e+01
5.000000e+01
5.000000e+01
5.000000e+01
5.000000e+01
5.000000e+01
5.000000e+01
5.000000e+01
5.000000e+01
5.000000e+01
6.250000e+01
6.250000e+01
6.250000e+01
6.250000e+01
6.250000e+01
6.250000e+01
6.250000e+01
6.250000e+01
6.250000e+01
6.250000e+01
6.250000e+01
6.250000e+01
6.250000e+01
6.250000e+01
6.250000e+01
6.250000e+01
6.250000e+01
7.500000e+01
7.500000e+01
7.500000e+01
7.500000e+01
7.500000e+01
7.500000e+01
7.500000e+01
7.500000e+01
7.500000e+01
7.500000e+01
7.500000e+01
7.500000e+01
7.500000e+01
7.500000e+01
7.500000e+01
7.500000e+01
7.500000e+01
8.750000e+01
8.750000e+01
8.750000e+01
8.750000e+01
8.750000e+01
8.750000e+01
8.750000e+01
8.750000e+01
8.750000e+01
8.750000e+01
8.750000e+01
8.750000e+01
8.750000e+01
8.750000e+01
8.750000e+01
8.750000e+01
8.750000e+01
1.000000e+02
1.000000e+02
1.000000e+02
1.000000e+02
1.000000e+02
1.000000e+02
1.000000e+02
1.000000e+02
1.000000e+02
1.000000e+02
1.000000e+02
1.000000e+02
1.000000e+02
1.000000e+02
1.000000e+02
1.000000e+02
1.000000e+02
0.000000e+00
-6.598406e-02
-1.214976e-01
-1.725772e-01
-2.201465e-01
-2.641050e-01
-3.043586e-01
-3.408760e-01
-3.737104e-01
-4.030131e-01
-4.290745e-01
-4.524041e-01
-4.738780e-01
-4.950102e-01
-5.184115e-01
-5.471512e-01
-5.687172e-01
0.000000e+00
-3.940458e-02
-8.185535e-02
-1.210559e-01
-1.571715e-01
-1.903395e-01
-2.206288e-01
-2.480799e-01
-2.727424e-01
-2.946921e-01
-3.140407e-01
-3.309275e-01
-3.454604e-01
-3.574896e-01
-3.659745e-01
-3.678343e-01
-3.745019e-01
0.000000e+00
-2.464254e-02
-5.067122e-02
-7.663861e-02
-1.008783e-01
-1.231336e-01
-1.433866e-01
-1.616601e-01
-1.779587e-01
-1.922552e-01
-2.044727e-01
-2.144405e-01
-2.218033e-01
-2.259134e-01
-2.260274e-01
-2.243855e-01
-2.311861e-01
0.000000e+00
-1.189403e-02
-2.448544e-02
-3.715633e-02
-4.927195e-02
-6.043115e-02
-7.054584e-02
-7.958656e-02
-8.750158e-02
-9.418791e-02
-9.947467e-02
-1.031123e-01
-1.048031e-01
-1.044081e-01
-1.027852e-01
-1.032290e-01
-1.082927e-01
0.000000e+00
-1.095596e-05
-2.490642e-05
-3.881101e-05
-4.619012e-05
-3.259452e-05
3.065561e-05
1.950227e-04
5.449375e-04
1.206165e-03
2.342782e-03
4.119617e-03
6.581209e-03
9.362930e-03
1.128445e-02
1.075743e-02
7.404840e-03
0.000000e+00
1.187717e-02
2.444631e-02
3.709373e-02
4.919409e-02
6.036783e-02
7.057042e-02
7.985177e-02
8.829237e-02
9.599012e-02
1.030456e-01
1.095111e-01
1.152743e-01
1.198956e-01
1.226142e-01
1.228298e-01
1.211281e-01
0.000000e+00
2.463978e-02
5.066279e-02
7.662184e-02
1.008521e-01
1.231010e-01
1.433595e-01
1.616689e-01
1.780670e-01
1.925831e-01
2.052297e-01
2.159760e-01
2.246985e-01
2.311473e-01
2.350180e-01
2.362749e-01
2.358780e-01
0.000000e+00
3.942074e-02
8.189050e-02
1.211119e-01
1.572466e-01
1.904200e-01
2.206739e-01
2.479974e-01
2.723487e-01
2.936576e-01
3.118230e-01
3.267193e-01
3.382275e-01
3.463093e-01
3.511303e-01
3.531862e-01
3.535638e-01
0.000000e+00
6.601109e-02
1.215689e-01
1.727108e-01
2.203599e-01
2.644052e-01
3.047166e-01
3.411771e-01
3.736646e-01
4.020104e-01
4.259687e-01
4.452202e-01
4.594486e-01
4.685420e-01
4.729397e-01
4.740252e-01
4.740043e-01
0.000000e+00
-3.994195e-02
-7.841061e-02
-1.282570e-01
-1.894331e-01
-2.618245e-01
-3.446383e-01
-4.369477e-01
-5.377711e-01
-6.461400e-01
-7.611597e-01
-8.821181e-01
-1.008724e+00
-1.141652e+00
-1.284352e+00
-1.447626e+00
-1.682222e+00
0.000000e+00
-2.458898e-02
-6.471810e-02
-1.151826e-01
-1.773586e-01
-2.507379e-01
-3.345550e-01
-4.278604e-01
-5.296610e-01
-6.389709e-01
-7.548706e-01
-8.766154e-01
-1.003868e+00
-1.137288e+00
-1.279932e+00
-1.442216e+00
-1.641031e+00
0.000000e+00
-1.855454e-02
-5.522577e-02
-1.058766e-01
-1.686404e-01
-2.427751e-01
-3.273626e-01
-4.214443e-01
-5.240341e-01
-6.341598e-01
-7.509199e-01
-8.735951e-01
-1.001881e+00
-1.136326e+00
-1.279093e+00
-1.432863e+00
-1.581679e+00
0.000000e+00
-1.598893e-02
-5.050621e-02
-1.004142e-01
-1.634050e-01
-2.379959e-01
-3.231108e-01
-4.177545e-01
-5.209594e-01
-6.317798e-01
-7.493334e-01
-8.728873e-01
-1.001992e+00
-1.136586e+00
-1.276497e+00
-1.417789e+00
-1.547953e+00
0.000000e+00
-1.524982e-02
-4.907785e-02
-9.867164e-02
-1.616796e-01
-2.364562e-01
-3.218158e-01
-4.167642e-01
-5.203521e-01
-6.316493e-01
-7.497540e-01
-8.738171e-01
-1.003036e+00
-1.136459e+00
-1.272088e+00
-1.405286e+00
-1.527993e+00
0.000000e+00
-1.597944e-02
-5.049946e-02
-1.004262e-01
-1.634640e-01
-2.381515e-01
-3.234435e-01
-4.183847e-01
-5.220458e-01
-6.334921e-01
-7.517634e-01
-8.758322e-01
-1.004498e+00
-1.136125e+00
-1.268182e+00
-1.396812e+00
-1.516901e+00
0.000000e+00
-1.853906e-02
-5.521457e-02
-1.058966e-01
-1.687399e-01
-2.430382e-01
-3.279267e-01
-4.225143e-01
-5.258812e-01
-6.370766e-01
-7.550756e-01
-8.786929e-01
-1.006439e+00
-1.136341e+00
-1.265838e+00
-1.392000e+00
-1.512008e+00
0.000000e+00
-2.457447e-02
-6.470836e-02
-1.152093e-01
-1.774781e-01
-2.510474e-01
-3.352116e-01
-4.290970e-01
-5.317829e-01
-6.423009e-01
-7.595842e-01
-8.823628e-01
-1.009020e+00
-1.137476e+00
-1.265251e+00
-1.390010e+00
-1.510860e+00
0.000000e+00
-3.993596e-02
-7.841145e-02
-1.282982e-01
-1.895716e-01
-2.621551e-01
-3.453101e-01
-4.381735e-01
-5.398149e-01
-6.492489e-01
-7.653829e-01
-8.869190e-01
-1.012230e+00
-1.139280e+00
-1.265750e+00
-1.389646e+00
-1.510878e+00


0.000000e+00
8.802916e-08
1.763811e-07
2.584365e-07
3.353928e-07
4.068153e-07
4.724039e-07
5.321399e-07
5.861427e-07
6.346385e-07
6.779482e-07
7.164290e-07
7.502900e-07
7.792645e-07
8.029795e-07
8.232443e-07
8.412751e-07
0.000000e+00
4.950243e-08
1.204603e-07
1.842682e-07
2.427773e-07
2.967142e-07
3.460297e-07
3.907235e-07
4.308310e-07
4.663806e-07
4.973610e-07
5.236807e-07
5.452058e-07
5.623792e-07
5.780653e-07
5.966822e-07
6.158429e-07
0.000000e+00
3.118774e-08
7.612206e-08
1.182850e-07
1.575938e-07
1.937506e-07
2.266124e-07
2.561396e-07
2.822867e-07
3.049653e-07
3.240455e-07
3.394346e-07
3.513734e-07
3.610873e-07
3.713330e-07
3.851757e-07
4.011695e-07
0.000000e+00
1.523442e-08
3.649134e-08
5.714030e-08
7.679625e-08
9.485534e-08
1.111221e-07
1.255219e-07
1.379699e-07
1.483578e-07
1.565953e-07
1.627308e-07
1.671789e-07
1.709878e-07
1.758950e-07
1.839632e-07
1.950671e-07
0.000000e+00
1.596278e-11
1.977509e-11
-8.390389e-12
-9.562868e-11
-2.851687e-10
-6.403944e-10
-1.245659e-09
-2.198838e-09
-3.587000e-09
-5.433048e-09
-7.606551e-09
-9.719322e-09
-1.105970e-08
-1.053155e-08
-6.733940e-09
5.605154e-10
0.000000e+00
-1.520458e-08
-3.645129e-08
-5.714179e-08
-7.693553e-08
-9.530106e-08
-1.121510e-07
-1.275569e-07
-1.416077e-07
-1.543586e-07
-1.657841e-07
-1.757283e-07
-1.838729e-07
-1.897429e-07
-1.927511e-07
-1.921776e-07
-1.881819e-07
0.000000e+00
-3.116896e-08
-7.609430e-08
-1.182685e-07
-1.576266e-07
-1.939050e-07
-2.270144e-07
-2.569912e-07
-2.838874e-07
-3.077190e-07
-3.284276e-07
-3.458491e-07
-3.597070e-07
-3.696766e-07
-3.755926e-07
-3.775627e-07
-3.763829e-07
0.000000e+00
-4.952128e-08
-1.204978e-07
-1.843022e-07
-2.427711e-07
-2.966053e-07
-3.457153e-07
-3.900449e-07
-4.295584e-07
-4.642053e-07
-4.939060e-07
-5.185428e-07
-5.379623e-07
-5.520352e-07
-5.608854e-07
-5.652366e-07
-5.662879e-07
0.000000e+00
-8.813323e-08
-1.765655e-07
-2.586646e-07
-3.355877e-07
-4.068170e-07
-4.719092e-07
-5.306246e-07
-5.827703e-07
-6.281701e-07
-6.666854e-07
-6.982541e-07
-7.229296e-07
-7.409147e-07
-7.526295e-07
-7.586855e-07
-7.606307e-07
0.000000e+00
7.969117e-08
1.554756e-07
2.405184e-07
3.419471e-07
4.608081e-07
5.963232e-07
7.472413e-07
9.121201e-07
1.089559e-06
1.278358e-06
1.477779e-06
1.688223e-06
1.912718e-06
2.156806e-06
2.416083e-06
2.673321e-06
0.000000e+00
4.821144e-08
1.218672e-07
2.075726e-07
3.109711e-07
4.322168e-07
5.702937e-07
7.237869e-07
8.912173e-07
1.071164e-06
1.262407e-06
1.464148e-06
1.676407e-06
1.900515e-06
2.138662e-06
2.391364e-06
2.645216e-06
0.000000e+00
3.071605e-08
9.492388e-08
1.805314e-07
2.854157e-07
4.087289e-07
5.490353e-07
7.048096e-07
8.745468e-07
1.056820e-06
1.250366e-06
1.454190e-06
1.667611e-06
1.890002e-06
2.120994e-06
2.364468e-06
2.610138e-06
0.000000e+00
2.254084e-08
8.074787e-08
1.647617e-07
2.703310e-07
3.949256e-07
5.366839e-07
6.939836e-07
8.652990e-07
1.049178e-06
1.244250e-06
1.449215e-06
1.662697e-06
1.882977e-06
2.108675e-06
2.342758e-06
2.576191e-06
0.000000e+00
2.019111e-08
7.644915e-08
1.596886e-07
2.654428e-07
3.905508e-07
5.329359e-07
6.909322e-07
8.629945e-07
1.047616e-06
1.243286e-06
1.448412e-06
1.661161e-06
1.879254e-06
2.100452e-06
2.326134e-06
2.547528e-06
0.000000e+00
2.255905e-08
8.081617e-08
1.649306e-07
2.706668e-07
3.955183e-07
5.376459e-07
6.954334e-07
8.673192e-07
1.051728e-06
1.247013e-06
1.451370e-06
1.662698e-06
1.878405e-06
2.095693e-06
2.314359e-06
2.526972e-06
0.000000e+00
3.074542e-08
9.504288e-08
1.808274e-07
2.860046e-07
4.097696e-07
5.507264e-07
7.073607e-07
8.781050e-07
1.061317e-06
1.255235e-06
1.457910e-06
1.667093e-06
1.880081e-06
2.093887e-06
2.307302e-06
2.514448e-06
0.000000e+00
4.824872e-08
1.220181e-07
2.079372e-07
3.116896e-07
4.334804e-07
5.723384e-07
7.268569e-07
8.954711e-07
1.076485e-06
1.268046e-06
1.468100e-06
1.674320e-06
1.884049e-06
2.094535e-06
2.304130e-06
2.508469e-06
0.000000e+00
7.975295e-08
1.556521e-07
2.409117e-07
3.426953e-07
4.620936e-07
5.983617e-07
7.502366e-07
9.161589e-07
1.094405e-06
1.283076e-06
1.480066e-06
1.683025e-06
1.889403e-06
2.096778e-06
2.303614e-06
2.506726e-06


1.928007e-01
1.928008e-01
1.928005e-01
1.927998e-01
1.927992e-01
1.927986e-01
1.927981e-01
1.927976e-01
1.927972e-01
1.927968e-01
1.927965e-01
1.927963e-01
1.927961e-01
1.927963e-01
1.927967e-01
1.927969e-01
1.927996e-01
1.927997e-01
1.927996e-01
1.927990e-01
1.927985e-01
1.927981e-01
1.927977e-01
1.927973e-01
1.927969e-01
1.927966e-01
1.927964e-01
1.927962e-01
1.927961e-01
1.927963e-01
1.927967e-01
1.927970e-01
1.927978e-01
1.927980e-01
1.927980e-01
1.927977e-01
1.927974e-01
1.927972e-01
1.927969e-01
1.927967e-01
1.927965e-01
1.927963e-01
1.927962e-01
1.927961e-01
1.927961e-01
1.927963e-01
1.927966e-01
1.927968e-01
1.927966e-01
1.927967e-01
1.927968e-01
1.927968e-01
1.927967e-01
1.927965e-01
1.927964e-01
1.927963e-01
1.927962e-01
1.927962e-01
1.927961e-01
1.927961e-01
1.927961e-01
1.927962e-01
1.927964e-01
1.927965e-01
1.927966e-01
1.927967e-01
1.927968e-01
1.927968e-01
1.927967e-01
1.927966e-01
1.927965e-01
1.927964e-01
1.927963e-01
1.927962e-01
1.927962e-01
1.927961e-01
1.927961e-01
1.927961e-01
1.927961e-01
1.927961e-01
1.927978e-01
1.927980e-01
1.927980e-01
1.927977e-01
1.927974e-01
1.927972e-01
1.927970e-01
1.927968e-01
1.927966e-01
1.927964e-01
1.927963e-01
1.927962e-01
1.927961e-01
1.927960e-01
1.927959e-01
1.927958e-01
1.927996e-01
1.927998e-01
1.927996e-01
1.927990e-01
1.927985e-01
1.927981e-01
1.927977e-01
1.927973e-01
1.927970e-01
1.927967e-01
1.927964e-01
1.927962e-01
1.927960e-01
1.927959e-01
1.927957e-01
1.927957e-01
1.928007e-01
1.928008e-01
1.928005e-01
1.927998e-01
1.927992e-01
1.927986e-01
1.927981e-01
1.927976e-01
1.927972e-01
1.927968e-01
1.927965e-01
1.927962e-01
1.927959e-01
1.927958e-01
1.927956e-01
1.927956e-01


9.902045e-01
9.915935e-01
9.928785e-01
9.938678e-01
9.947860e-01
9.956326e-01
9.964040e-01
9.970910e-01
9.976864e-01
9.981844e-01
9.985804e-01
9.988705e-01
9.990508e-01
9.991151e-01
9.991616e-01
9.962989e-01
9.962941e-01
9.956576e-01
9.960672e-01
9.966017e-01
9.971001e-01
9.975530e-01
9.979630e-01
9.983344e-01
9.986706e-01
9.989752e-01
9.992516e-01
9.995018e-01
9.997201e-01
9.998631e-01
9.995016e-01
9.946013e-01
9.987124e-01
9.983468e-01
9.982481e-01
9.983869e-01
9.985696e-01
9.987465e-01
9.989107e-01
9.990659e-01
9.992163e-01
9.993628e-01
9.994997e-01
9.996057e-01
9.996278e-01
9.994370e-01
9.987446e-01
9.974993e-01
9.997380e-01
9.994713e-01
9.993066e-01
9.992648e-01
9.992815e-01
9.993095e-01
9.993375e-01
9.993648e-01
9.993916e-01
9.994140e-01
9.994203e-01
9.993869e-01
9.992810e-01
9.990910e-01
9.989299e-01
9.988891e-01
9.997389e-01
9.994727e-01
9.993078e-01
9.992645e-01
9.992773e-01
9.992975e-01
9.993116e-01
9.993163e-01
9.993098e-01
9.992892e-01
9.992508e-01
9.991954e-01
9.991426e-01
9.991531e-01
9.993022e-01
9.995604e-01
9.987142e-01
9.983496e-01
9.982508e-01
9.983870e-01
9.985625e-01
9.987246e-01
9.988618e-01
9.989720e-01
9.990546e-01
9.991102e-01
9.991453e-01
9.991797e-01
9.992519e-01
9.994032e-01
9.996306e-01
9.998657e-01
9.962938e-01
9.956573e-01
9.960666e-01
9.966002e-01
9.970962e-01
9.975441e-01
9.979446e-01
9.982991e-01
9.986081e-01
9.988722e-01
9.990958e-01
9.992910e-01
9.994791e-01
9.996762e-01
9.998606e-01
9.999767e-01
9.901978e-01
9.915831e-01
9.928657e-01
9.938534e-01
9.947731e-01
9.956280e-01
9.964199e-01
9.971471e-01
9.978097e-01
9.984064e-01
9.989301e-01
9.993646e-01
9.996878e-01
9.998872e-01
9.999779e-01
9.999995e-01
1 2 19 18
2 3 20 19
3 4 21 20
4 5 22 21
5 6 23 22
6 7 24 23
7 8 25 24
8 9 26 25
9 10 27 26
10 11 28 27
11 12 29 28
12 13 30 29
13 14 31 30
14 15 32 31
15 16 33 32
16 17 34 33
18 19 36 35
19 20 37 36
20 21 38 37
21 22 39 38
22 23 40 39
23 24 41 40
24 25 42 41
25 26 43 42
26 27 44 43
27 28 45 44
28 29 46 45
29 30 47 46
30 31 48 47
31 32 49 48
32 33 50 49
33 34 51 50
35 36 53 52
36 37 54 53
37 38 55 54
38 39 56 55
39 40 57 56
40 41 58 57
41 42 59 58
42 43 60 59
43 44 61 60
44 45 62 61
45 46 63 62
46 47 64 63
47 48 65 64
48 49 66 65
49 50 67 66
50 51 68 67
52 53 70 69
53 54 71 70
54 55 72 71
55 56 73 72
56 57 74 73
57 58 75 74
58 59 76 75
59 60 77 76
60 61 78 77
61 62 79 78
62 63 80 79
63 64 81 80
64 65 82 81
65 66 83 82
66 67 84 83
67 68 85 84
69 70 87 86
70 71 88 87
71 72 89 88
72 73 90 89
73 74 91 90
74 75 92 91
75 76 93 92
76 77 94 93
77 78 95 94
78 79 96 95
79 80 97 96
80 81 98 97
81 82 99 98
82 83 100 99
83 84 101 100
84 85 102 101
86 87 104 103
87 88 105 104
88 89 106 105
89 90 107 106
90 91 108 107
91 92 109 108
92 93 110 109
93 94 111 110
94 95 112 111
95 96 113 112
96 97 114 113
97 98 115 114
98 99 116 115
99 100 117 116
100 101 118 117
101 102 119 118
103 104 121 120
104 105 122 121
105 106 123 122
106 107 124 123
107 108 125 124
108 109 126 125
109 110 127 126
110 111 128 127
111 112 129 128
112 113 130 129
113 114 131 130
114 115 132 131
115 116 133 132
116 117 134 133
117 118 135 134
118 119 136 135
120 121 138 137
121 122 139 138
122 123 140 139
123 124 141 140
124 125 142 141
125 126 143 142
126 127 144 143
127 128 145 144
128 129 146 145
129 130 147 146
130 131 148 147
131 132 149 148
132 133 150 149
133 134 151 150
134 135 152 151
135 136 153 152
