TITLE = "Solution"
VARIABLES = x, y, u, v, psiu, psiv, t, stress
ZONE T="structure" N=153 E=128 F=FEBLOCK ET=QUADRILATERAL VARLOCATION=([7,8]=cellcentered)
0.000000e+00
1.250000e+01
2.500000e+01
3.750000e+01
5.000000e+01
6.250000e+01
7.500000e+01
8.750000e+01
1.000000e+02
1.125000e+02
1.250000e+02
1.375000e+02
1.500000e+02
1.625000e+02
1.750000e+02
1.875000e+02
2.000000e+02
0.000000e+00
1.250000e+01
2.500000e+01
3.750000e+01
5.000000e+01
6.250000e+01
7.500000e+01
8.750000e+01
1.000000e+02
1.125000e+02
1.250000e+02
1.375000e+02
1.500000e+02
1.625000e+02
1.750000e+02
1.875000e+02
2.000000e+02
0.000000e+00
1.250000e+01
2.500000e+01
3.750000e+01
5.000000e+01
6.250000e+01
7.500000e+01
8.750000e+01
1.000000e+02
1.125000e+02
1.250000e+02
1.375000e+02
1.500000e+02
1.625000e+02
1.750000e+02
1.875000e+02
2.000000e+02
0.000000e+00
1.250000e+01
2.500000e+01
3.750000e+01
5.000000e+01
6.250000e+01
7.500000e+01
8.750000e+01
1.000000e+02
1.125000e+02
1.250000e+02
1.375000e+02
1.500000e+02
1.625000e+02
1.750000e+02
1.875000e+02
2.000000e+02
0.000000e+00
1.250000e+01
2.500000e+01
3.750000e+01
5.000000e+01
6.250000e+01
7.500000e+01
8.750000e+01
1.000000e+02
1.125000e+02
1.250000e+02
1.375000e+02
1.500000e+02
1.625000e+02
1.750000e+02
1.875000e+02
2.000000e+02
0.000000e+00
1.250000e+01
2.500000e+01
3.750000e+01
5.000000e+01
6.250000e+01
7.500000e+01
8.750000e+01
1.000000e+02
1.125000e+02
1.250000e+02
1.375000e+02
1.500000e+02
1.625000e+02
1.750000e+02
1.875000e+02
2.000000e+02
0.000000e+00
1.250000e+01
2.500000e+01
3.750000e+01
5.000000e+01
6.250000e+01
7.500000e+01
8.750000e+01
1.000000e+02
1.125000e+02
1.250000e+02
1.375000e+02
1.500000e+02
1.625000e+02
1.750000e+02
1.875000e+02
2.000000e+02
0.000000e+00
1.250000e+01
2.500000e+01
3.750000e+01
5.000000e+01
6.250000e+01
7.500000e+01
8.750000e+01
1.000000e+02
1.125000e+02
1.250000e+02
1.375000e+02
1.500000e+02
1.625000e+02
1.750000e+02
1.875000e+02
2.000000e+02
0.000000e+00
1.250000e+01
2.500000e+01
3.750000e+01
5.000000e+01
6.250000e+01
7.500000e+01
8.750000e+01
1.000000e+02
1.125000e+02
1.250000e+02
1.375000e+02
1.500000e+02
1.625000e+02
1.750000e+02
1.875000e+02
2.000000e+02
0.000000e+00
0.000000e+00
0.000000e+00
0.000000e+00
0.000000e+00
0.000000e+00
0.000000e+00
0.000000e+00
0.000000e+00
0.000000e+00
0.000000e+00
0.000000e+00
0.000000e+00
0.000000e+00
0.000000e+00
0.000000e+00
0.000000e+00
1.250000e+01
1.250000e+01
1.250000e+01
1.250000e+01
1.250000e+01
1.250000e+01
1.250000e+01
1.250000e+01
1.250000e+01
1.250000e+01
1.250000e+01
1.250000e+01
1.250000e+01
1.250000e+01
1.250000e+01
1.250000e+01
1.250000e+01
2.500000e+01
2.500000e+01
2.500000e+01
2.500000e+01
2.500000e+01
2.500000e+01
2.500000e+01
2.500000e+01
2.500000e+01
2.500000e+01
2.500000e+01
2.500000e+01
2.500000e+01
2.500000e+01
2.500000e+01
2.500000e+01
2.500000e+01
3.750000e+01
3.750000e+01
3.750000e+01
3.750000e+01
3.750000e+01
3.750000e+01
3.750000e+01
3.750000e+01
3.750000e+01
3.750000e+01
3.750000e+01
3.750000e+01
3.750000e+01
3.750000e+01
3.750000e+01
3.750000e+01
3.750000e+01
5.000000e+01
5.000000e+01
5.000000e+01
5.000000e+01
5.000000e+01
5.000000e+01
5.000000e+01
5.000000e+01
5.000000e+01
5.000000e+01
5.000000e+01
5.000000e+01
5.000000e+01
5.000000e+01
5.000000e+01
5.000000e+01
5.000000e+01
6.250000e+01
6.250000e+01
6.250000e+01
6.250000e+01
6.250000e+01
6.250000e+01
6.250000e+01
6.250000e+01
6.250000e+01
6.250000e+01
6.250000e+01
6.250000e+01
6.250000e+01
6.250000e+01
6.250000e+01
6.250000e+01
6.250000e+01
7.500000e+01
7.500000e+01
7.500000e+01
7.500000e+01
7.500000e+01
7.500000e+01
7.500000e+01
7.500000e+01
7.500000e+01
7.500000e+01
7.500000e+01
7.500000e+01
7.500000e+01
7.500000e+01
7.500000e+01
7.500000e+01
7.500000e+01
8.750000e+01
8.750000e+01
8.750000e+01
8.750000e+01
8.750000e+01
8.750000e+01
8.750000e+01
8.750000e+01
8.750000e+01
8.750000e+01
8.750000e+01
8.750000e+01
8.750000e+01
8.750000e+01
8.750000e+01
8.750000e+01
8.750000e+01
1.000000e+02
1.000000e+02
1.000000e+02
1.000000e+02
1.000000e+02
1.000000e+02
1.000000e+02
1.000000e+02
1.000000e+02
1.000000e+02
1.000000e+02
1.000000e+02
1.000000e+02
1.000000e+02
1.000000e+02
1.000000e+02
1.000000e+02
0.000000e+00
-9.880374e-01
-1.679653e+00
-2.428334e+00
-3.108744e+00
-3.755825e+00
-4.451566e+00
-5.087965e+00
-5.761431e+00
-6.401241e+00
-7.059146e+00
-7.717275e+00
-8.376069e+00
-9.154484e+00
-1.007484e+01
-1.082737e+01
-1.127803e+01
0.000000e+00
-4.431710e-01
-9.099330e-01
-1.419312e+00
-1.929674e+00
-2.414664e+00
-2.926449e+00
-3.424602e+00
-3.921473e+00
-4.421815e+00
-4.918050e+00
-5.417035e+00
-5.902171e+00
-6.426362e+00
-6.893494e+00
-7.016850e+00
-7.195430e+00
0.000000e+00
-1.479267e-01
-3.535951e-01
-6.433913e-01
-9.811885e-01
-1.307586e+00
-1.661464e+00
-2.015312e+00
-2.361125e+00
-2.719996e+00
-3.059997e+00
-3.392650e+00
-3.686266e+00
-3.925097e+00
-4.030850e+00
-4.027580e+00
-4.176649e+00
0.000000e+00
-7.863714e-02
-1.625007e-01
-3.084136e-01
-4.525446e-01
-6.276734e-01
-8.085182e-01
-9.773754e-01
-1.161061e+00
-1.323366e+00
-1.485104e+00
-1.622510e+00
-1.714524e+00
-1.721448e+00
-1.649480e+00
-1.631144e+00
-1.750026e+00
0.000000e+00
-2.740224e-03
-6.003966e-03
-9.378591e-03
-1.223767e-02
-1.366879e-02
-1.261510e-02
-7.648476e-03
1.762509e-03
1.878142e-02
4.329497e-02
8.704754e-02
1.679210e-01
2.813405e-01
3.990788e-01
4.374468e-01
3.390102e-01
0.000000e+00
7.396896e-02
1.526374e-01
2.921782e-01
4.309247e-01
6.022259e-01
7.849905e-01
9.633790e-01
1.167497e+00
1.359871e+00
1.571977e+00
1.791365e+00
2.014574e+00
2.216858e+00
2.351055e+00
2.383705e+00
2.318550e+00
0.000000e+00
1.462970e-01
3.491963e-01
6.353054e-01
9.685280e-01
1.290469e+00
1.642845e+00
2.003475e+00
2.371732e+00
2.771693e+00
3.148265e+00
3.514814e+00
3.848763e+00
4.120696e+00
4.294397e+00
4.349386e+00
4.327357e+00
0.000000e+00
4.445617e-01
9.104264e-01
1.419973e+00
1.929880e+00
2.412050e+00
2.921119e+00
3.414748e+00
3.904426e+00
4.396772e+00
4.875524e+00
5.350613e+00
5.782035e+00
6.127893e+00
6.343380e+00
6.438260e+00
6.455608e+00
0.000000e+00
9.906683e-01
1.683144e+00
2.436204e+00
3.122374e+00
3.771545e+00
4.470430e+00
5.097852e+00
5.740173e+00
6.328370e+00
6.905768e+00
7.505382e+00
8.038647e+00
8.445634e+00
8.647940e+00
8.701702e+00
8.702392e+00
0.000000e+00
-6.157055e-01
-1.356759e+00
-2.352546e+00
-3.522802e+00
-4.864864e+00
-6.391162e+00
-8.075471e+00
-9.933400e+00
-1.195372e+01
-1.413744e+01
-1.648227e+01
-1.899439e+01
-2.172482e+01
-2.468536e+01
-2.804623e+01
-3.306292e+01
0.000000e+00
-4.117885e-01
-1.187704e+00
-2.167536e+00
-3.352735e+00
-4.689595e+00
-6.214847e+00
-7.905510e+00
-9.758416e+00
-1.178541e+01
-1.396522e+01
-1.631587e+01
-1.881948e+01
-2.153297e+01
-2.454684e+01
-2.796164e+01
-3.201484e+01
0.000000e+00
-3.852326e-01
-1.086610e+00
-2.063902e+00
-3.232110e+00
-4.565051e+00
-6.092940e+00
-7.777412e+00
-9.639180e+00
-1.166422e+01
-1.385548e+01
-1.621627e+01
-1.873156e+01
-2.147085e+01
-2.453781e+01
-2.780841e+01
-3.083942e+01
0.000000e+00
-4.432949e-01
-1.082467e+00
-2.037231e+00
-3.167562e+00
-4.496584e+00
-6.027358e+00
-7.703443e+00
-9.581849e+00
-1.160754e+01
-1.381874e+01
-1.619860e+01
-1.874123e+01
-2.147999e+01
-2.447007e+01
-2.749767e+01
-3.011642e+01
0.000000e+00
-4.513628e-01
-1.103670e+00
-2.020933e+00
-3.155366e+00
-4.482091e+00
-6.007293e+00
-7.700487e+00
-9.575489e+00
-1.162171e+01
-1.384241e+01
-1.623353e+01
-1.878307e+01
-2.148133e+01
-2.431899e+01
-2.713233e+01
-2.951351e+01
0.000000e+00
-4.422465e-01
-1.081664e+00
-2.038677e+00
-3.174963e+00
-4.510429e+00
-6.053890e+00
-7.742949e+00
-9.638851e+00
-1.168800e+01
-1.390971e+01
-1.628588e+01
-1.881641e+01
-2.147114e+01
-2.418220e+01
-2.681383e+01
-2.907906e+01
0.000000e+00
-3.837571e-01
-1.085520e+00
-2.066486e+00
-3.243752e+00
-4.590434e+00
-6.140219e+00
-7.853237e+00
-9.745837e+00
-1.180125e+01
-1.399703e+01
-1.635295e+01
-1.885754e+01
-2.147190e+01
-2.409819e+01
-2.660744e+01
-2.884946e+01
0.000000e+00
-4.103883e-01
-1.186548e+00
-2.170077e+00
-3.364841e+00
-4.717724e+00
-6.268759e+00
-7.994548e+00
-9.883846e+00
-1.193738e+01
-1.411405e+01
-1.645230e+01
-1.893504e+01
-2.151370e+01
-2.407756e+01
-2.651928e+01
-2.878945e+01
0.000000e+00
-6.145881e-01
-1.355980e+00
-2.355987e+00
-3.535484e+00
-4.893586e+00
-6.445773e+00
-8.162861e+00
-1.005456e+01
-1.209443e+01
-1.427003e+01
-1.660120e+01
-1.905857e+01
-2.159488e+01
-2.410252e+01
-2.650409e+01
-2.878829e+01


0.000000e+00
1.534655e-05
2.503012e-05
3.714149e-05
5.287739e-05
6.617057e-05
8.131736e-05
9.602535e-05
1.102221e-04
1.252236e-04
1.405473e-04
1.549003e-04
1.722804e-04
1.872030e-04
1.957389e-04
2.010262e-04
2.078769e-04
0.000000e+00
1.148082e-05
1.984131e-05
2.851007e-05
4.136719e-05
5.201171e-05
6.243456e-05
7.383217e-05
8.389706e-05
9.503515e-05
1.054786e-04
1.151907e-04
1.265806e-04
1.351982e-04
1.355924e-04
1.392449e-04
1.450919e-04
0.000000e+00
9.679971e-06
1.536896e-05
2.088185e-05
3.029214e-05
3.721223e-05
4.355436e-05
5.116687e-05
5.703263e-05
6.372302e-05
6.948786e-05
7.403705e-05
7.859809e-05
8.010728e-05
7.889575e-05
8.127972e-05
8.556828e-05
0.000000e+00
5.307412e-06
7.276822e-06
1.055809e-05
1.490676e-05
1.686704e-05
2.030323e-05
2.307032e-05
2.532557e-05
2.781297e-05
2.964689e-05
2.951641e-05
2.828990e-05
2.644553e-05
2.635883e-05
2.947283e-05
3.512115e-05
0.000000e+00
-1.045030e-07
-2.680377e-07
-5.054780e-07
-8.899827e-07
-1.415252e-06
-2.128796e-06
-3.099205e-06
-3.950380e-06
-5.401863e-06
-7.859280e-06
-1.173617e-05
-1.462280e-05
-1.586296e-05
-1.546545e-05
-1.321056e-05
-9.277973e-06
0.000000e+00
-5.451049e-06
-7.628153e-06
-1.131676e-05
-1.610752e-05
-1.867570e-05
-2.329233e-05
-2.678223e-05
-3.080565e-05
-3.366666e-05
-3.743080e-05
-4.235534e-05
-4.685396e-05
-4.817215e-05
-4.868222e-05
-4.919384e-05
-4.760120e-05
0.000000e+00
-9.614100e-06
-1.536917e-05
-2.106490e-05
-3.057871e-05
-3.786400e-05
-4.434278e-05
-5.242074e-05
-5.841512e-05
-6.407114e-05
-6.874576e-05
-7.343527e-05
-7.755729e-05
-8.068477e-05
-8.260683e-05
-8.448969e-05
-8.523081e-05
0.000000e+00
-1.138975e-05
-1.973567e-05
-2.842763e-05
-4.120064e-05
-5.202311e-05
-6.232318e-05
-7.387457e-05
-8.408163e-05
-9.479782e-05
-1.050708e-04
-1.126975e-04
-1.176943e-04
-1.225986e-04
-1.259868e-04
-1.271869e-04
-1.272868e-04
0.000000e+00
-1.537810e-05
-2.499711e-05
-3.701129e-05
-5.254028e-05
-6.559825e-05
-8.051848e-05
-9.446213e-05
-1.089239e-04
-1.239552e-04
-1.416364e-04
-1.565011e-04
-1.655261e-04
-1.704957e-04
-1.726813e-04
-1.728485e-04
-1.726520e-04
0.000000e+00
1.264078e-05
1.999636e-05
3.223839e-05
4.800276e-05
6.493434e-05
8.735539e-05
1.136419e-04
1.437356e-04
1.789100e-04
2.179978e-04
2.620302e-04
3.128798e-04
3.666595e-04
4.279432e-04
4.985762e-04
5.714102e-04
0.000000e+00
7.687302e-06
1.609461e-05
2.614144e-05
4.155818e-05
5.907109e-05
8.091911e-05
1.075859e-04
1.376033e-04
1.725824e-04
2.119439e-04
2.558034e-04
3.062619e-04
3.623261e-04
4.231117e-04
4.912396e-04
5.609955e-04
0.000000e+00
4.275979e-06
1.218781e-05
2.131072e-05
3.581461e-05
5.399281e-05
7.592294e-05
1.027388e-04
1.330353e-04
1.680583e-04
2.075170e-04
2.517488e-04
3.026351e-04
3.603436e-04
4.192955e-04
4.837923e-04
5.511539e-04
0.000000e+00
3.016378e-06
1.021214e-05
1.931886e-05
3.353339e-05
5.160422e-05
7.382477e-05
1.011235e-04
1.318806e-04
1.663069e-04
2.057773e-04
2.508732e-04
3.023463e-04
3.590908e-04
4.167172e-04
4.760094e-04
5.369002e-04
0.000000e+00
2.560631e-06
9.698898e-06
1.898417e-05
3.301596e-05
5.092091e-05
7.323034e-05
1.008534e-04
1.318764e-04
1.657567e-04
2.045714e-04
2.515474e-04
3.030770e-04
3.591941e-04
4.155719e-04
4.696598e-04
5.210026e-04
0.000000e+00
3.132254e-06
1.035982e-05
1.956404e-05
3.372611e-05
5.161937e-05
7.395308e-05
1.011150e-04
1.321056e-04
1.656130e-04
2.051241e-04
2.535913e-04
3.056003e-04
3.593563e-04
4.154091e-04
4.673382e-04
5.103632e-04
0.000000e+00
4.410982e-06
1.241443e-05
2.167852e-05
3.604495e-05
5.414945e-05
7.584992e-05
1.024666e-04
1.324764e-04
1.667157e-04
2.074293e-04
2.568546e-04
3.090628e-04
3.611914e-04
4.143868e-04
4.647166e-04
5.071635e-04
0.000000e+00
7.799249e-06
1.635854e-05
2.652333e-05
4.190718e-05
5.929866e-05
8.095534e-05
1.071887e-04
1.365095e-04
1.709288e-04
2.118586e-04
2.602014e-04
3.120117e-04
3.632741e-04
4.143719e-04
4.627883e-04
5.076810e-04
0.000000e+00
1.273851e-05
2.026325e-05
3.261313e-05
4.837430e-05
6.521198e-05
8.743453e-05
1.132617e-04
1.427420e-04
1.773901e-04
2.185042e-04
2.641487e-04
3.140558e-04
3.645305e-04
4.146060e-04
4.623104e-04
5.079598e-04


5.337955e+00
5.827784e+00
6.513191e+00
5.575414e+00
4.910220e+00
5.123915e+00
5.336752e+00
5.693155e+00
5.634570e+00
5.809478e+00
6.108942e+00
7.009813e+00
8.692227e+00
9.638355e+00
8.943260e+00
7.788975e+00
7.846570e+00
8.200515e+00
8.392289e+00
8.104782e+00
7.690097e+00
7.783725e+00
7.978258e+00
8.003155e+00
8.095148e+00
8.083443e+00
8.220619e+00
8.641108e+00
9.351434e+00
9.639982e+00
8.205202e+00
6.299918e+00
9.699431e+00
9.688062e+00
9.838369e+00
9.675877e+00
9.665982e+00
9.702201e+00
9.652944e+00
9.729238e+00
9.669995e+00
9.718014e+00
9.709222e+00
9.707003e+00
9.724369e+00
9.231985e+00
7.776906e+00
5.990736e+00
9.920059e+00
9.917037e+00
9.915590e+00
9.909492e+00
9.904623e+00
9.899215e+00
9.894092e+00
9.893139e+00
9.889189e+00
9.872929e+00
9.813371e+00
9.303722e+00
8.672007e+00
8.215470e+00
7.746808e+00
7.553420e+00
9.919765e+00
9.916425e+00
9.914414e+00
9.906531e+00
9.898767e+00
9.890395e+00
9.882957e+00
9.875666e+00
9.855268e+00
9.729990e+00
9.152906e+00
8.294039e+00
7.438061e+00
7.496607e+00
8.354339e+00
8.841402e+00
9.700313e+00
9.685685e+00
9.832412e+00
9.660380e+00
9.634385e+00
9.664394e+00
9.596521e+00
9.624909e+00
9.266553e+00
8.641172e+00
8.089225e+00
7.598798e+00
7.768066e+00
8.406940e+00
9.207125e+00
9.767092e+00
7.858263e+00
8.203283e+00
8.383808e+00
8.078962e+00
7.657400e+00
7.741778e+00
7.880269e+00
7.753675e+00
7.466868e+00
7.060511e+00
7.259748e+00
8.198895e+00
8.961647e+00
9.572456e+00
9.856858e+00
9.907301e+00
5.370488e+00
5.839135e+00
6.510479e+00
5.562265e+00
4.902224e+00
5.127324e+00
5.256163e+00
5.534511e+00
5.459526e+00
5.983364e+00
7.514184e+00
8.880538e+00
9.760363e+00
9.883752e+00
9.917204e+00
9.929517e+00


-7.930843e-01
-1.965557e-01
-3.829100e-01
-2.450299e-01
-1.286433e-01
-2.786120e-01
-1.373435e-01
-2.070713e-01
-1.530286e-01
-1.806846e-01
-1.875979e-01
-1.616622e-01
-4.892046e-01
-6.391166e-01
3.256282e-01
-8.480970e-01
6.135354e-01
4.692750e-01
3.023904e-01
2.294423e-01
2.801021e-01
1.721340e-01
1.795604e-01
1.685635e-01
1.211738e-01
1.424977e-01
1.432840e-01
2.493273e-01
3.015128e-01
5.290750e-01
6.998351e-01
-9.535750e-01
7.301729e-01
4.750587e-01
7.879591e-02
9.182653e-03
-3.263840e-02
-1.442620e-01
-6.980611e-02
-1.116214e-01
-4.698370e-02
-2.609988e-03
6.390243e-02
2.071798e-01
2.929531e-01
1.587558e-01
-1.400780e-02
-1.798911e-01
7.352101e-01
5.590629e-01
2.057021e-01
8.230004e-02
-1.739597e-02
-7.461138e-02
-1.650870e-02
-4.075984e-02
3.309415e-02
4.010834e-02
8.067738e-02
1.249015e-01
5.863019e-02
-2.717348e-01
-3.764148e-01
-6.827292e-02
7.376595e-01
5.627945e-01
2.114829e-01
8.384606e-02
-1.849369e-02
-9.023380e-02
-3.922546e-02
-7.693382e-02
-2.280459e-02
-1.382268e-02
2.415507e-02
1.617790e-02
-3.631489e-02
-1.418386e-01
-1.050665e-01
3.201241e-01
7.357548e-01
4.853516e-01
9.429597e-02
1.874934e-02
-3.196729e-02
-1.760443e-01
-1.359253e-01
-2.189038e-01
-1.733252e-01
-9.760680e-02
-8.779815e-02
-1.046238e-01
-9.225889e-02
5.403997e-02
3.339425e-01
7.303855e-01
6.160453e-01
4.768087e-01
3.100110e-01
2.377165e-01
2.875079e-01
1.644597e-01
1.426800e-01
7.977566e-02
-4.558210e-02
-3.846439e-02
-1.011065e-01
-7.090124e-02
7.301595e-02
3.776026e-01
7.140155e-01
9.481629e-01
-8.012212e-01
-1.962398e-01
-3.924669e-01
-2.557679e-01
-1.278543e-01
-2.813731e-01
-1.158349e-01
-1.425790e-01
-5.968588e-02
-2.907957e-02
-8.987575e-02
8.727921e-02
3.990178e-01
7.727058e-01
9.524280e-01
9.987204e-01
1 2 19 18
2 3 20 19
3 4 21 20
4 5 22 21
5 6 23 22
6 7 24 23
7 8 25 24
8 9 26 25
9 10 27 26
10 11 28 27
11 12 29 28
12 13 30 29
13 14 31 30
14 15 32 31
15 16 33 32
16 17 34 33
18 19 36 35
19 20 37 36
20 21 38 37
21 22 39 38
22 23 40 39
23 24 41 40
24 25 42 41
25 26 43 42
26 27 44 43
27 28 45 44
28 29 46 45
29 30 47 46
30 31 48 47
31 32 49 48
32 33 50 49
33 34 51 50
35 36 53 52
36 37 54 53
37 38 55 54
38 39 56 55
39 40 57 56
40 41 58 57
41 42 59 58
42 43 60 59
43 44 61 60
44 45 62 61
45 46 63 62
46 47 64 63
47 48 65 64
48 49 66 65
49 50 67 66
50 51 68 67
52 53 70 69
53 54 71 70
54 55 72 71
55 56 73 72
56 57 74 73
57 58 75 74
58 59 76 75
59 60 77 76
60 61 78 77
61 62 79 78
62 63 80 79
63 64 81 80
64 65 82 81
65 66 83 82
66 67 84 83
67 68 85 84
69 70 87 86
70 71 88 87
71 72 89 88
72 73 90 89
73 74 91 90
74 75 92 91
75 76 93 92
76 77 94 93
77 78 95 94
78 79 96 95
79 80 97 96
80 81 98 97
81 82 99 98
82 83 100 99
83 84 101 100
84 85 102 101
86 87 104 103
87 88 105 104
88 89 106 105
89 90 107 106
90 91 108 107
91 92 109 108
92 93 110 109
93 94 111 110
94 95 112 111
95 96 113 112
96 97 114 113
97 98 115 114
98 99 116 115
99 100 117 116
100 101 118 117
101 102 119 118
103 104 121 120
104 105 122 121
105 106 123 122
106 107 124 123
107 108 125 124
108 109 126 125
109 110 127 126
110 111 128 127
111 112 129 128
112 113 130 129
113 114 131 130
114 115 132 131
115 116 133 132
116 117 134 133
117 118 135 134
118 119 136 135
120 121 138 137
121 122 139 138
122 123 140 139
123 124 141 140
124 125 142 141
125 126 143 142
126 127 144 143
127 128 145 144
128 129 146 145
129 130 147 146
130 131 148 147
131 132 149 148
132 133 150 149
133 134 151 150
134 135 152 151
135 136 153 152
