TITLE = "Solution"
VARIABLES = x, y, u, v, psiu, psiv, t, stress
ZONE T="structure" N=561 E=512 F=FEBLOCK ET=QUADRILATERAL VARLOCATION=([7,8]=cellcentered)
0.000000e+00
6.250000e+00
1.250000e+01
1.875000e+01
2.500000e+01
3.125000e+01
3.750000e+01
4.375000e+01
5.000000e+01
5.625000e+01
6.250000e+01
6.875000e+01
7.500000e+01
8.125000e+01
8.750000e+01
9.375000e+01
1.000000e+02
1.062500e+02
1.125000e+02
1.187500e+02
1.250000e+02
1.312500e+02
1.375000e+02
1.437500e+02
1.500000e+02
1.562500e+02
1.625000e+02
1.687500e+02
1.750000e+02
1.812500e+02
1.875000e+02
1.937500e+02
2.000000e+02
0.000000e+00
6.250000e+00
1.250000e+01
1.875000e+01
2.500000e+01
3.125000e+01
3.750000e+01
4.375000e+01
5.000000e+01
5.625000e+01
6.250000e+01
6.875000e+01
7.500000e+01
8.125000e+01
8.750000e+01
9.375000e+01
1.000000e+02
1.062500e+02
1.125000e+02
1.187500e+02
1.250000e+02
1.312500e+02
1.375000e+02
1.437500e+02
1.500000e+02
1.562500e+02
1.625000e+02
1.687500e+02
1.750000e+02
1.812500e+02
1.875000e+02
1.937500e+02
2.000000e+02
0.000000e+00
6.250000e+00
1.250000e+01
1.875000e+01
2.500000e+01
3.125000e+01
3.750000e+01
4.375000e+01
5.000000e+01
5.625000e+01
6.250000e+01
6.875000e+01
7.500000e+01
8.125000e+01
8.750000e+01
9.375000e+01
1.000000e+02
1.062500e+02
1.125000e+02
1.187500e+02
1.250000e+02
1.312500e+02
1.375000e+02
1.437500e+02
1.500000e+02
1.562500e+02
1.625000e+02
1.687500e+02
1.750000e+02
1.812500e+02
1.875000e+02
1.937500e+02
2.000000e+02
0.000000e+00
6.250000e+00
1.250000e+01
1.875000e+01
2.500000e+01
3.125000e+01
3.750000e+01
4.375000e+01
5.000000e+01
5.625000e+01
6.250000e+01
6.875000e+01
7.500000e+01
8.125000e+01
8.750000e+01
9.375000e+01
1.000000e+02
1.062500e+02
1.125000e+02
1.187500e+02
1.250000e+02
1.312500e+02
1.375000e+02
1.437500e+02
1.500000e+02
1.562500e+02
1.625000e+02
1.687500e+02
1.750000e+02
1.812500e+02
1.875000e+02
1.937500e+02
2.000000e+02
0.000000e+00
6.250000e+00
1.250000e+01
1.875000e+01
2.500000e+01
3.125000e+01
3.750000e+01
4.375000e+01
5.000000e+01
5.625000e+01
6.250000e+01
6.875000e+01
7.500000e+01
8.125000e+01
8.750000e+01
9.375000e+01
1.000000e+02
1.062500e+02
1.125000e+02
1.187500e+02
1.250000e+02
1.312500e+02
1.375000e+02
1.437500e+02
1.500000e+02
1.562500e+02
1.625000e+02
1.687500e+02
1.750000e+02
1.812500e+02
1.875000e+02
1.937500e+02
2.000000e+02
0.000000e+00
6.250000e+00
1.250000e+01
1.875000e+01
2.500000e+01
3.125000e+01
3.750000e+01
4.375000e+01
5.000000e+01
5.625000e+01
6.250000e+01
6.875000e+01
7.500000e+01
8.125000e+01
8.750000e+01
9.375000e+01
1.000000e+02
1.062500e+02
1.125000e+02
1.187500e+02
1.250000e+02
1.312500e+02
1.375000e+02
1.437500e+02
1.500000e+02
1.562500e+02
1.625000e+02
1.687500e+02
1.750000e+02
1.812500e+02
1.875000e+02
1.937500e+02
2.000000e+02
0.000000e+00
6.250000e+00
1.250000e+01
1.875000e+01
2.500000e+01
3.125000e+01
3.750000e+01
4.375000e+01
5.000000e+01
5.625000e+01
6.250000e+01
6.875000e+01
7.500000e+01
8.125000e+01
8.750000e+01
9.375000e+01
1.000000e+02
1.062500e+02
1.125000e+02
1.187500e+02
1.250000e+02
1.312500e+02
1.375000e+02
1.437500e+02
1.500000e+02
1.562500e+02
1.625000e+02
1.687500e+02
1.750000e+02
1.812500e+02
1.875000e+02
1.937500e+02
2.000000e+02
0.000000e+00
6.250000e+00
1.250000e+01
1.875000e+01
2.500000e+01
3.125000e+01
3.750000e+01
4.375000e+01
5.000000e+01
5.625000e+01
6.250000e+01
6.875000e+01
7.500000e+01
8.125000e+01
8.750000e+01
9.375000e+01
1.000000e+02
1.062500e+02
1.125000e+02
1.187500e+02
1.250000e+02
1.312500e+02
1.375000e+02
1.437500e+02
1.500000e+02
1.562500e+02
1.625000e+02
1.687500e+02
1.750000e+02
1.812500e+02
1.875000e+02
1.937500e+02
2.000000e+02
0.000000e+00
6.250000e+00
1.250000e+01
1.875000e+01
2.500000e+01
3.125000e+01
3.750000e+01
4.375000e+01
5.000000e+01
5.625000e+01
6.250000e+01
6.875000e+01
7.500000e+01
8.125000e+01
8.750000e+01
9.375000e+01
1.000000e+02
1.062500e+02
1.125000e+02
1.187500e+02
1.250000e+02
1.312500e+02
1.375000e+02
1.437500e+02
1.500000e+02
1.562500e+02
1.625000e+02
1.687500e+02
1.750000e+02
1.812500e+02
1.875000e+02
1.937500e+02
2.000000e+02
0.000000e+00
6.250000e+00
1.250000e+01
1.875000e+01
2.500000e+01
3.125000e+01
3.750000e+01
4.375000e+01
5.000000e+01
5.625000e+01
6.250000e+01
6.875000e+01
7.500000e+01
8.125000e+01
8.750000e+01
9.375000e+01
1.000000e+02
1.062500e+02
1.125000e+02
1.187500e+02
1.250000e+02
1.312500e+02
1.375000e+02
1.437500e+02
1.500000e+02
1.562500e+02
1.625000e+02
1.687500e+02
1.750000e+02
1.812500e+02
1.875000e+02
1.937500e+02
2.000000e+02
0.000000e+00
6.250000e+00
1.250000e+01
1.875000e+01
2.500000e+01
3.125000e+01
3.750000e+01
4.375000e+01
5.000000e+01
5.625000e+01
6.250000e+01
6.875000e+01
7.500000e+01
8.125000e+01
8.750000e+01
9.375000e+01
1.000000e+02
1.062500e+02
1.125000e+02
1.187500e+02
1.250000e+02
1.312500e+02
1.375000e+02
1.437500e+02
1.500000e+02
1.562500e+02
1.625000e+02
1.687500e+02
1.750000e+02
1.812500e+02
1.875000e+02
1.937500e+02
2.000000e+02
0.000000e+00
6.250000e+00
1.250000e+01
1.875000e+01
2.500000e+01
3.125000e+01
3.750000e+01
4.375000e+01
5.000000e+01
5.625000e+01
6.250000e+01
6.875000e+01
7.500000e+01
8.125000e+01
8.750000e+01
9.375000e+01
1.000000e+02
1.062500e+02
1.125000e+02
1.187500e+02
1.250000e+02
1.312500e+02
1.375000e+02
1.437500e+02
1.500000e+02
1.562500e+02
1.625000e+02
1.687500e+02
1.750000e+02
1.812500e+02
1.875000e+02
1.937500e+02
2.000000e+02
0.000000e+00
6.250000e+00
1.250000e+01
1.875000e+01
2.500000e+01
3.125000e+01
3.750000e+01
4.375000e+01
5.000000e+01
5.625000e+01
6.250000e+01
6.875000e+01
7.500000e+01
8.125000e+01
8.750000e+01
9.375000e+01
1.000000e+02
1.062500e+02
1.125000e+02
1.187500e+02
1.250000e+02
1.312500e+02
1.375000e+02
1.437500e+02
1.500000e+02
1.562500e+02
1.625000e+02
1.687500e+02
1.750000e+02
1.812500e+02
1.875000e+02
1.937500e+02
2.000000e+02
0.000000e+00
6.250000e+00
1.250000e+01
1.875000e+01
2.500000e+01
3.125000e+01
3.750000e+01
4.375000e+01
5.000000e+01
5.625000e+01
6.250000e+01
6.875000e+01
7.500000e+01
8.125000e+01
8.750000e+01
9.375000e+01
1.000000e+02
1.062500e+02
1.125000e+02
1.187500e+02
1.250000e+02
1.312500e+02
1.375000e+02
1.437500e+02
1.500000e+02
1.562500e+02
1.625000e+02
1.687500e+02
1.750000e+02
1.812500e+02
1.875000e+02
1.937500e+02
2.000000e+02
0.000000e+00
6.250000e+00
1.250000e+01
1.875000e+01
2.500000e+01
3.125000e+01
3.750000e+01
4.375000e+01
5.000000e+01
5.625000e+01
6.250000e+01
6.875000e+01
7.500000e+01
8.125000e+01
8.750000e+01
9.375000e+01
1.000000e+02
1.062500e+02
1.125000e+02
1.187500e+02
1.250000e+02
1.312500e+02
1.375000e+02
1.437500e+02
1.500000e+02
1.562500e+02
1.625000e+02
1.687500e+02
1.750000e+02
1.812500e+02
1.875000e+02
1.937500e+02
2.000000e+02
0.000000e+00
6.250000e+00
1.250000e+01
1.875000e+01
2.500000e+01
3.125000e+01
3.750000e+01
4.375000e+01
5.000000e+01
5.625000e+01
6.250000e+01
6.875000e+01
7.500000e+01
8.125000e+01
8.750000e+01
9.375000e+01
1.000000e+02
1.062500e+02
1.125000e+02
1.187500e+02
1.250000e+02
1.312500e+02
1.375000e+02
1.437500e+02
1.500000e+02
1.562500e+02
1.625000e+02
1.687500e+02
1.750000e+02
1.812500e+02
1.875000e+02
1.937500e+02
2.000000e+02
0.000000e+00
6.250000e+00
1.250000e+01
1.875000e+01
2.500000e+01
3.125000e+01
3.750000e+01
4.375000e+01
5.000000e+01
5.625000e+01
6.250000e+01
6.875000e+01
7.500000e+01
8.125000e+01
8.750000e+01
9.375000e+01
1.000000e+02
1.062500e+02
1.125000e+02
1.187500e+02
1.250000e+02
1.312500e+02
1.375000e+02
1.437500e+02
1.500000e+02
1.562500e+02
1.625000e+02
1.687500e+02
1.750000e+02
1.812500e+02
1.875000e+02
1.937500e+02
2.000000e+02
0.000000e+00
0.000000e+00
0.000000e+00
0.000000e+00
0.000000e+00
0.000000e+00
0.000000e+00
0.000000e+00
0.000000e+00
0.000000e+00
0.000000e+00
0.000000e+00
0.000000e+00
0.000000e+00
0.000000e+00
0.000000e+00
0.000000e+00
0.000000e+00
0.000000e+00
0.000000e+00
0.000000e+00
0.000000e+00
0.000000e+00
0.000000e+00
0.000000e+00
0.000000e+00
0.000000e+00
0.000000e+00
0.000000e+00
0.000000e+00
0.000000e+00
0.000000e+00
0.000000e+00
6.250000e+00
6.250000e+00
6.250000e+00
6.250000e+00
6.250000e+00
6.250000e+00
6.250000e+00
6.250000e+00
6.250000e+00
6.250000e+00
6.250000e+00
6.250000e+00
6.250000e+00
6.250000e+00
6.250000e+00
6.250000e+00
6.250000e+00
6.250000e+00
6.250000e+00
6.250000e+00
6.250000e+00
6.250000e+00
6.250000e+00
6.250000e+00
6.250000e+00
6.250000e+00
6.250000e+00
6.250000e+00
6.250000e+00
6.250000e+00
6.250000e+00
6.250000e+00
6.250000e+00
1.250000e+01
1.250000e+01
1.250000e+01
1.250000e+01
1.250000e+01
1.250000e+01
1.250000e+01
1.250000e+01
1.250000e+01
1.250000e+01
1.250000e+01
1.250000e+01
1.250000e+01
1.250000e+01
1.250000e+01
1.250000e+01
1.250000e+01
1.250000e+01
1.250000e+01
1.250000e+01
1.250000e+01
1.250000e+01
1.250000e+01
1.250000e+01
1.250000e+01
1.250000e+01
1.250000e+01
1.250000e+01
1.250000e+01
1.250000e+01
1.250000e+01
1.250000e+01
1.250000e+01
1.875000e+01
1.875000e+01
1.875000e+01
1.875000e+01
1.875000e+01
1.875000e+01
1.875000e+01
1.875000e+01
1.875000e+01
1.875000e+01
1.875000e+01
1.875000e+01
1.875000e+01
1.875000e+01
1.875000e+01
1.875000e+01
1.875000e+01
1.875000e+01
1.875000e+01
1.875000e+01
1.875000e+01
1.875000e+01
1.875000e+01
1.875000e+01
1.875000e+01
1.875000e+01
1.875000e+01
1.875000e+01
1.875000e+01
1.875000e+01
1.875000e+01
1.875000e+01
1.875000e+01
2.500000e+01
2.500000e+01
2.500000e+01
2.500000e+01
2.500000e+01
2.500000e+01
2.500000e+01
2.500000e+01
2.500000e+01
2.500000e+01
2.500000e+01
2.500000e+01
2.500000e+01
2.500000e+01
2.500000e+01
2.500000e+01
2.500000e+01
2.500000e+01
2.500000e+01
2.500000e+01
2.500000e+01
2.500000e+01
2.500000e+01
2.500000e+01
2.500000e+01
2.500000e+01
2.500000e+01
2.500000e+01
2.500000e+01
2.500000e+01
2.500000e+01
2.500000e+01
2.500000e+01
3.125000e+01
3.125000e+01
3.125000e+01
3.125000e+01
3.125000e+01
3.125000e+01
3.125000e+01
3.125000e+01
3.125000e+01
3.125000e+01
3.125000e+01
3.125000e+01
3.125000e+01
3.125000e+01
3.125000e+01
3.125000e+01
3.125000e+01
3.125000e+01
3.125000e+01
3.125000e+01
3.125000e+01
3.125000e+01
3.125000e+01
3.125000e+01
3.125000e+01
3.125000e+01
3.125000e+01
3.125000e+01
3.125000e+01
3.125000e+01
3.125000e+01
3.125000e+01
3.125000e+01
3.750000e+01
3.750000e+01
3.750000e+01
3.750000e+01
3.750000e+01
3.750000e+01
3.750000e+01
3.750000e+01
3.750000e+01
3.750000e+01
3.750000e+01
3.750000e+01
3.750000e+01
3.750000e+01
3.750000e+01
3.750000e+01
3.750000e+01
3.750000e+01
3.750000e+01
3.750000e+01
3.750000e+01
3.750000e+01
3.750000e+01
3.750000e+01
3.750000e+01
3.750000e+01
3.750000e+01
3.750000e+01
3.750000e+01
3.750000e+01
3.750000e+01
3.750000e+01
3.750000e+01
4.375000e+01
4.375000e+01
4.375000e+01
4.375000e+01
4.375000e+01
4.375000e+01
4.375000e+01
4.375000e+01
4.375000e+01
4.375000e+01
4.375000e+01
4.375000e+01
4.375000e+01
4.375000e+01
4.375000e+01
4.375000e+01
4.375000e+01
4.375000e+01
4.375000e+01
4.375000e+01
4.375000e+01
4.375000e+01
4.375000e+01
4.375000e+01
4.375000e+01
4.375000e+01
4.375000e+01
4.375000e+01
4.375000e+01
4.375000e+01
4.375000e+01
4.375000e+01
4.375000e+01
5.000000e+01
5.000000e+01
5.000000e+01
5.000000e+01
5.000000e+01
5.000000e+01
5.000000e+01
5.000000e+01
5.000000e+01
5.000000e+01
5.000000e+01
5.000000e+01
5.000000e+01
5.000000e+01
5.000000e+01
5.000000e+01
5.000000e+01
5.000000e+01
5.000000e+01
5.000000e+01
5.000000e+01
5.000000e+01
5.000000e+01
5.000000e+01
5.000000e+01
5.000000e+01
5.000000e+01
5.000000e+01
5.000000e+01
5.000000e+01
5.000000e+01
5.000000e+01
5.000000e+01
5.625000e+01
5.625000e+01
5.625000e+01
5.625000e+01
5.625000e+01
5.625000e+01
5.625000e+01
5.625000e+01
5.625000e+01
5.625000e+01
5.625000e+01
5.625000e+01
5.625000e+01
5.625000e+01
5.625000e+01
5.625000e+01
5.625000e+01
5.625000e+01
5.625000e+01
5.625000e+01
5.625000e+01
5.625000e+01
5.625000e+01
5.625000e+01
5.625000e+01
5.625000e+01
5.625000e+01
5.625000e+01
5.625000e+01
5.625000e+01
5.625000e+01
5.625000e+01
5.625000e+01
6.250000e+01
6.250000e+01
6.250000e+01
6.250000e+01
6.250000e+01
6.250000e+01
6.250000e+01
6.250000e+01
6.250000e+01
6.250000e+01
6.250000e+01
6.250000e+01
6.250000e+01
6.250000e+01
6.250000e+01
6.250000e+01
6.250000e+01
6.250000e+01
6.250000e+01
6.250000e+01
6.250000e+01
6.250000e+01
6.250000e+01
6.250000e+01
6.250000e+01
6.250000e+01
6.250000e+01
6.250000e+01
6.250000e+01
6.250000e+01
6.250000e+01
6.250000e+01
6.250000e+01
6.875000e+01
6.875000e+01
6.875000e+01
6.875000e+01
6.875000e+01
6.875000e+01
6.875000e+01
6.875000e+01
6.875000e+01
6.875000e+01
6.875000e+01
6.875000e+01
6.875000e+01
6.875000e+01
6.875000e+01
6.875000e+01
6.875000e+01
6.875000e+01
6.875000e+01
6.875000e+01
6.875000e+01
6.875000e+01
6.875000e+01
6.875000e+01
6.875000e+01
6.875000e+01
6.875000e+01
6.875000e+01
6.875000e+01
6.875000e+01
6.875000e+01
6.875000e+01
6.875000e+01
7.500000e+01
7.500000e+01
7.500000e+01
7.500000e+01
7.500000e+01
7.500000e+01
7.500000e+01
7.500000e+01
7.500000e+01
7.500000e+01
7.500000e+01
7.500000e+01
7.500000e+01
7.500000e+01
7.500000e+01
7.500000e+01
7.500000e+01
7.500000e+01
7.500000e+01
7.500000e+01
7.500000e+01
7.500000e+01
7.500000e+01
7.500000e+01
7.500000e+01
7.500000e+01
7.500000e+01
7.500000e+01
7.500000e+01
7.500000e+01
7.500000e+01
7.500000e+01
7.500000e+01
8.125000e+01
8.125000e+01
8.125000e+01
8.125000e+01
8.125000e+01
8.125000e+01
8.125000e+01
8.125000e+01
8.125000e+01
8.125000e+01
8.125000e+01
8.125000e+01
8.125000e+01
8.125000e+01
8.125000e+01
8.125000e+01
8.125000e+01
8.125000e+01
8.125000e+01
8.125000e+01
8.125000e+01
8.125000e+01
8.125000e+01
8.125000e+01
8.125000e+01
8.125000e+01
8.125000e+01
8.125000e+01
8.125000e+01
8.125000e+01
8.125000e+01
8.125000e+01
8.125000e+01
8.750000e+01
8.750000e+01
8.750000e+01
8.750000e+01
8.750000e+01
8.750000e+01
8.750000e+01
8.750000e+01
8.750000e+01
8.750000e+01
8.750000e+01
8.750000e+01
8.750000e+01
8.750000e+01
8.750000e+01
8.750000e+01
8.750000e+01
8.750000e+01
8.750000e+01
8.750000e+01
8.750000e+01
8.750000e+01
8.750000e+01
8.750000e+01
8.750000e+01
8.750000e+01
8.750000e+01
8.750000e+01
8.750000e+01
8.750000e+01
8.750000e+01
8.750000e+01
8.750000e+01
9.375000e+01
9.375000e+01
9.375000e+01
9.375000e+01
9.375000e+01
9.375000e+01
9.375000e+01
9.375000e+01
9.375000e+01
9.375000e+01
9.375000e+01
9.375000e+01
9.375000e+01
9.375000e+01
9.375000e+01
9.375000e+01
9.375000e+01
9.375000e+01
9.375000e+01
9.375000e+01
9.375000e+01
9.375000e+01
9.375000e+01
9.375000e+01
9.375000e+01
9.375000e+01
9.375000e+01
9.375000e+01
9.375000e+01
9.375000e+01
9.375000e+01
9.375000e+01
9.375000e+01
1.000000e+02
1.000000e+02
1.000000e+02
1.000000e+02
1.000000e+02
1.000000e+02
1.000000e+02
1.000000e+02
1.000000e+02
1.000000e+02
1.000000e+02
1.000000e+02
1.000000e+02
1.000000e+02
1.000000e+02
1.000000e+02
1.000000e+02
1.000000e+02
1.000000e+02
1.000000e+02
1.000000e+02
1.000000e+02
1.000000e+02
1.000000e+02
1.000000e+02
1.000000e+02
1.000000e+02
1.000000e+02
1.000000e+02
1.000000e+02
1.000000e+02
1.000000e+02
1.000000e+02
0.000000e+00
-4.424194e-01
-7.514110e-01
-1.079500e+00
-1.386767e+00
-1.684989e+00
-1.994010e+00
-2.290994e+00
-2.591138e+00
-2.892071e+00
-3.190261e+00
-3.490729e+00
-3.790200e+00
-4.089160e+00
-4.389070e+00
-4.688097e+00
-4.987272e+00
-5.286677e+00
-5.585625e+00
-5.884893e+00
-6.184328e+00
-6.483582e+00
-6.783346e+00
-7.084562e+00
-7.386585e+00
-7.693037e+00
-8.008668e+00
-8.328459e+00
-8.661647e+00
-9.042605e+00
-9.499580e+00
-9.912033e+00
-1.011961e+01
0.000000e+00
-2.342526e-01
-4.788901e-01
-7.427150e-01
-1.009841e+00
-1.263819e+00
-1.532051e+00
-1.792612e+00
-2.054044e+00
-2.318406e+00
-2.578786e+00
-2.841826e+00
-3.103719e+00
-3.365003e+00
-3.627244e+00
-3.888430e+00
-4.149783e+00
-4.411158e+00
-4.671958e+00
-4.932808e+00
-5.193602e+00
-5.453906e+00
-5.714289e+00
-5.975130e+00
-6.234871e+00
-6.495150e+00
-6.757248e+00
-7.014649e+00
-7.270852e+00
-7.535646e+00
-7.766862e+00
-7.859761e+00
-7.964850e+00
0.000000e+00
-1.274355e-01
-2.834086e-01
-4.821129e-01
-6.945315e-01
-9.002006e-01
-1.124230e+00
-1.344837e+00
-1.567102e+00
-1.792775e+00
-2.015402e+00
-2.240641e+00
-2.465259e+00
-2.689620e+00
-2.914956e+00
-3.139658e+00
-3.364657e+00
-3.589795e+00
-3.814506e+00
-4.039165e+00
-4.263570e+00
-4.487185e+00
-4.709948e+00
-4.931273e+00
-5.148865e+00
-5.361138e+00
-5.565632e+00
-5.756166e+00
-5.928181e+00
-6.070636e+00
-6.140221e+00
-6.142015e+00
-6.234377e+00
0.000000e+00
-1.022148e-01
-1.989593e-01
-3.426347e-01
-4.770390e-01
-6.358906e-01
-8.099537e-01
-9.846992e-01
-1.166814e+00
-1.350515e+00
-1.535255e+00
-1.722381e+00
-1.910079e+00
-2.098447e+00
-2.287999e+00
-2.477716e+00
-2.667986e+00
-2.858581e+00
-3.048893e+00
-3.238830e+00
-3.427750e+00
-3.614684e+00
-3.798375e+00
-3.977094e+00
-4.147832e+00
-4.307094e+00
-4.450982e+00
-4.573474e+00
-4.666486e+00
-4.718442e+00
-4.723639e+00
-4.734519e+00
-4.815917e+00
0.000000e+00
-8.992233e-02
-1.787896e-01
-2.736744e-01
-3.826924e-01
-5.021489e-01
-6.327881e-01
-7.682865e-01
-9.104466e-01
-1.054890e+00
-1.201279e+00
-1.349961e+00
-1.498760e+00
-1.648779e+00
-1.799091e+00
-1.949431e+00
-2.099900e+00
-2.249776e+00
-2.398819e+00
-2.546290e+00
-2.691296e+00
-2.832565e+00
-2.968376e+00
-3.096620e+00
-3.214546e+00
-3.318897e+00
-3.405728e+00
-3.470194e+00
-3.507394e+00
-3.516436e+00
-3.508065e+00
-3.536072e+00
-3.612754e+00
0.000000e+00
-7.167199e-02
-1.416497e-01
-2.152521e-01
-2.959685e-01
-3.837973e-01
-4.781282e-01
-5.784871e-01
-6.823314e-01
-7.893407e-01
-8.980674e-01
-1.007771e+00
-1.118322e+00
-1.228976e+00
-1.339674e+00
-1.450076e+00
-1.559799e+00
-1.668531e+00
-1.775654e+00
-1.880413e+00
-1.981738e+00
-2.078217e+00
-2.168066e+00
-2.249196e+00
-2.319293e+00
-2.375846e+00
-2.416230e+00
-2.437980e+00
-2.440682e+00
-2.427292e+00
-2.421141e+00
-2.452315e+00
-2.523610e+00
0.000000e+00
-4.935436e-02
-9.832173e-02
-1.487898e-01
-2.027226e-01
-2.607801e-01
-3.229676e-01
-3.886487e-01
-4.571044e-01
-5.273961e-01
-5.988715e-01
-6.709445e-01
-7.431723e-01
-8.152562e-01
-8.868673e-01
-9.577364e-01
-1.027533e+00
-1.095840e+00
-1.162118e+00
-1.225597e+00
-1.285244e+00
-1.339702e+00
-1.387319e+00
-1.426245e+00
-1.454587e+00
-1.470627e+00
-1.473018e+00
-1.460937e+00
-1.435917e+00
-1.407301e+00
-1.398608e+00
-1.430329e+00
-1.501025e+00
0.000000e+00
-2.570802e-02
-5.131984e-02
-7.753774e-02
-1.051198e-01
-1.345010e-01
-1.656923e-01
-1.984610e-01
-2.323803e-01
-2.670178e-01
-3.019393e-01
-3.367885e-01
-3.712659e-01
-4.051025e-01
-4.380540e-01
-4.698589e-01
-5.002287e-01
-5.288141e-01
-5.551586e-01
-5.786428e-01
-5.984142e-01
-6.133477e-01
-6.220677e-01
-6.230521e-01
-6.147811e-01
-5.959079e-01
-5.653972e-01
-5.238568e-01
-4.778437e-01
-4.389802e-01
-4.293725e-01
-4.624245e-01
-5.335003e-01
0.000000e+00
-1.390947e-03
-2.782745e-03
-4.124194e-03
-5.358212e-03
-6.416069e-03
-7.216750e-03
-7.666561e-03
-7.662716e-03
-7.095145e-03
-5.846969e-03
-3.793167e-03
-7.962932e-04
3.298523e-03
8.668775e-03
1.551652e-02
2.406957e-02
3.458823e-02
4.738750e-02
6.288115e-02
8.164026e-02
1.044437e-01
1.322873e-01
1.663061e-01
2.076999e-01
2.577087e-01
3.165237e-01
3.801049e-01
4.383944e-01
4.777139e-01
4.838581e-01
4.488956e-01
3.798465e-01
0.000000e+00
2.297725e-02
4.585551e-02
6.943717e-02
9.459789e-02
1.219069e-01
1.515430e-01
1.834601e-01
2.174354e-01
2.532501e-01
2.906909e-01
3.296341e-01
3.700304e-01
4.118931e-01
4.553069e-01
5.003962e-01
5.473259e-01
5.962846e-01
6.474833e-01
7.011768e-01
7.576850e-01
8.174143e-01
8.808807e-01
9.487589e-01
1.021734e+00
1.099526e+00
1.179472e+00
1.255274e+00
1.316207e+00
1.350873e+00
1.351123e+00
1.316579e+00
1.258231e+00
0.000000e+00
4.677304e-02
9.314153e-02
1.411113e-01
1.927447e-01
2.488546e-01
3.096150e-01
3.745954e-01
4.432797e-01
5.149319e-01
5.891059e-01
6.654020e-01
7.435646e-01
8.234865e-01
9.050621e-01
9.883025e-01
1.073259e+00
1.160046e+00
1.248869e+00
1.339991e+00
1.433677e+00
1.530026e+00
1.628914e+00
1.729890e+00
1.831770e+00
1.932139e+00
2.026352e+00
2.107001e+00
2.166013e+00
2.196526e+00
2.195956e+00
2.168436e+00
2.125400e+00
0.000000e+00
6.931579e-02
1.369079e-01
2.081719e-01
2.867876e-01
3.727799e-01
4.658542e-01
5.657226e-01
6.700409e-01
7.787643e-01
8.906225e-01
1.005078e+00
1.122138e+00
1.241153e+00
1.362121e+00
1.484745e+00
1.608744e+00
1.734088e+00
1.860757e+00
1.989012e+00
2.119098e+00
2.250697e+00
2.382669e+00
2.513007e+00
2.639024e+00
2.756991e+00
2.861523e+00
2.946458e+00
3.006494e+00
3.038965e+00
3.044236e+00
3.027255e+00
2.999343e+00
0.000000e+00
8.789733e-02
1.745282e-01
2.674050e-01
3.742077e-01
4.920066e-01
6.214353e-01
7.564103e-01
8.991615e-01
1.045407e+00
1.195207e+00
1.349099e+00
1.505165e+00
1.664598e+00
1.826444e+00
1.990238e+00
2.155798e+00
2.322159e+00
2.489017e+00
2.656026e+00
2.822413e+00
2.986899e+00
3.147977e+00
3.303644e+00
3.450803e+00
3.585075e+00
3.701229e+00
3.794420e+00
3.861559e+00
3.901428e+00
3.915424e+00
3.909154e+00
3.894265e+00
0.000000e+00
1.005796e-01
1.960459e-01
3.374591e-01
4.700625e-01
6.269395e-01
7.995276e-01
9.733561e-01
1.155207e+00
1.339816e+00
1.526756e+00
1.717825e+00
1.911513e+00
2.108256e+00
2.308578e+00
2.511214e+00
2.716169e+00
2.922496e+00
3.129053e+00
3.335105e+00
3.538449e+00
3.736943e+00
3.929372e+00
4.113610e+00
4.285522e+00
4.439673e+00
4.570852e+00
4.675364e+00
4.751561e+00
4.799718e+00
4.822325e+00
4.825301e+00
4.820290e+00
0.000000e+00
1.273517e-01
2.830758e-01
4.808848e-01
6.916167e-01
8.958074e-01
1.118334e+00
1.337615e+00
1.558912e+00
1.784047e+00
2.006736e+00
2.232897e+00
2.459489e+00
2.687178e+00
2.917302e+00
3.148084e+00
3.380365e+00
3.613370e+00
3.846203e+00
4.078714e+00
4.308662e+00
4.534698e+00
4.757060e+00
4.972488e+00
5.172558e+00
5.348359e+00
5.494213e+00
5.608102e+00
5.690562e+00
5.743893e+00
5.772055e+00
5.781295e+00
5.782327e+00
0.000000e+00
2.343059e-01
4.790543e-01
7.428391e-01
1.009780e+00
1.263622e+00
1.531588e+00
1.791812e+00
2.052942e+00
2.316826e+00
2.576628e+00
2.839013e+00
3.100006e+00
3.360221e+00
3.621143e+00
3.880568e+00
4.139827e+00
4.398398e+00
4.655541e+00
4.911995e+00
5.166471e+00
5.418992e+00
5.670941e+00
5.916697e+00
6.142395e+00
6.335775e+00
6.491249e+00
6.608268e+00
6.689406e+00
6.739538e+00
6.765357e+00
6.774790e+00
6.777083e+00
0.000000e+00
4.422456e-01
7.517694e-01
1.080480e+00
1.389086e+00
1.688736e+00
1.999034e+00
2.297249e+00
2.598424e+00
2.899952e+00
3.198198e+00
3.498073e+00
3.795759e+00
4.091679e+00
4.386939e+00
4.679530e+00
4.970734e+00
5.260440e+00
5.548146e+00
5.835202e+00
6.121355e+00
6.407486e+00
6.693682e+00
6.970092e+00
7.218049e+00
7.423775e+00
7.581847e+00
7.692281e+00
7.758976e+00
7.789551e+00
7.795464e+00
7.791108e+00
7.788576e+00
0.000000e+00
-2.651154e-01
-5.430823e-01
-8.932016e-01
-1.280089e+00
-1.707827e+00
-2.178178e+00
-2.682926e+00
-3.226696e+00
-3.807108e+00
-4.424322e+00
-5.079932e+00
-5.772516e+00
-6.503153e+00
-7.271714e+00
-8.077955e+00
-8.922440e+00
-9.804965e+00
-1.072571e+01
-1.168509e+01
-1.268315e+01
-1.372021e+01
-1.479691e+01
-1.591359e+01
-1.707132e+01
-1.827328e+01
-1.952303e+01
-2.082656e+01
-2.219691e+01
-2.364970e+01
-2.520429e+01
-2.702405e+01
-2.958265e+01
0.000000e+00
-1.682619e-01
-4.629715e-01
-8.060909e-01
-1.197411e+00
-1.623424e+00
-2.093613e+00
-2.599604e+00
-3.142349e+00
-3.723222e+00
-4.340411e+00
-4.995819e+00
-5.688698e+00
-6.419212e+00
-7.187817e+00
-7.994177e+00
-8.838609e+00
-9.721217e+00
-1.064201e+01
-1.160134e+01
-1.259946e+01
-1.363655e+01
-1.471305e+01
-1.582974e+01
-1.698730e+01
-1.818811e+01
-1.943734e+01
-2.074060e+01
-2.210728e+01
-2.355599e+01
-2.513139e+01
-2.693334e+01
-2.920782e+01
0.000000e+00
-1.406242e-01
-4.049668e-01
-7.460851e-01
-1.131029e+00
-1.555004e+00
-2.023685e+00
-2.528783e+00
-3.070995e+00
-3.651637e+00
-4.268675e+00
-4.923930e+00
-5.616901e+00
-6.347295e+00
-7.115984e+00
-7.922386e+00
-8.766832e+00
-9.649585e+00
-1.057048e+01
-1.152994e+01
-1.252829e+01
-1.356564e+01
-1.464249e+01
-1.575999e+01
-1.691875e+01
-1.812119e+01
-1.937307e+01
-2.067970e+01
-2.205191e+01
-2.352181e+01
-2.513093e+01
-2.682765e+01
-2.859666e+01
0.000000e+00
-1.641391e-01
-3.949828e-01
-7.256868e-01
-1.091421e+00
-1.508893e+00
-1.973458e+00
-2.473917e+00
-3.015196e+00
-3.594340e+00
-4.210501e+00
-4.865552e+00
-5.558026e+00
-6.288338e+00
-7.056989e+00
-7.863348e+00
-8.707949e+00
-9.590896e+00
-1.051216e+01
-1.147214e+01
-1.247124e+01
-1.350969e+01
-1.458811e+01
-1.570783e+01
-1.686982e+01
-1.807670e+01
-1.933366e+01
-2.064659e+01
-2.202895e+01
-2.351369e+01
-2.511444e+01
-2.667418e+01
-2.809280e+01
0.000000e+00
-1.832886e-01
-4.184727e-01
-7.256325e-01
-1.083105e+00
-1.488212e+00
-1.944407e+00
-2.438908e+00
-2.976599e+00
-3.553251e+00
-4.167790e+00
-4.822137e+00
-5.513861e+00
-6.244130e+00
-7.012703e+00
-7.819205e+00
-8.664226e+00
-9.547640e+00
-1.046977e+01
-1.143092e+01
-1.243158e+01
-1.347221e+01
-1.455347e+01
-1.567655e+01
-1.684275e+01
-1.805466e+01
-1.931660e+01
-2.063421e+01
-2.201836e+01
-2.349036e+01
-2.503099e+01
-2.647033e+01
-2.772777e+01
0.000000e+00
-1.914960e-01
-4.328121e-01
-7.301036e-01
-1.079725e+00
-1.478692e+00
-1.925603e+00
-2.416438e+00
-2.949626e+00
-3.523831e+00
-4.137462e+00
-4.790526e+00
-5.482315e+00
-6.212596e+00
-6.981434e+00
-7.788622e+00
-8.634362e+00
-9.518846e+00
-1.044236e+01
-1.140536e+01
-1.240840e+01
-1.345203e+01
-1.453692e+01
-1.566388e+01
-1.683405e+01
-1.804955e+01
-1.931373e+01
-2.062993e+01
-2.200096e+01
-2.343616e+01
-2.488677e+01
-2.624253e+01
-2.741626e+01
0.000000e+00
-1.954713e-01
-4.390031e-01
-7.333501e-01
-1.078462e+00
-1.472891e+00
-1.914787e+00
-2.401959e+00
-2.932482e+00
-3.504766e+00
-4.117647e+00
-4.770309e+00
-5.462213e+00
-6.193006e+00
-6.962497e+00
-7.770639e+00
-8.617512e+00
-9.503362e+00
-1.042859e+01
-1.139373e+01
-1.239944e+01
-1.344633e+01
-1.453488e+01
-1.566547e+01
-1.683851e+01
-1.805503e+01
-1.931701e+01
-2.062429e+01
-2.197024e+01
-2.335491e+01
-2.472711e+01
-2.601112e+01
-2.712362e+01
0.000000e+00
-1.970938e-01
-4.415453e-01
-7.350468e-01
-1.078097e+00
-1.470034e+00
-1.909461e+00
-2.394613e+00
-2.923723e+00
-3.495234e+00
-4.107893e+00
-4.760784e+00
-5.453253e+00
-6.184873e+00
-6.955396e+00
-7.764726e+00
-8.612935e+00
-9.500273e+00
-1.042720e+01
-1.139437e+01
-1.240252e+01
-1.345229e+01
-1.454394e+01
-1.567723e+01
-1.685146e+01
-1.806600e+01
-1.932074e+01
-2.061210e+01
-2.192682e+01
-2.325967e+01
-2.456472e+01
-2.578102e+01
-2.683535e+01
0.000000e+00
-1.974969e-01
-4.422465e-01
-7.356474e-01
-1.078268e+00
-1.469670e+00
-1.908636e+00
-2.393544e+00
-2.922693e+00
-3.494538e+00
-4.107810e+00
-4.761544e+00
-5.455049e+00
-6.187857e+00
-6.959680e+00
-7.770385e+00
-8.619998e+00
-9.508749e+00
-1.043711e+01
-1.140582e+01
-1.241572e+01
-1.346749e+01
-1.456112e+01
-1.569558e+01
-1.686873e+01
-1.807798e+01
-1.932089e+01
-2.059149e+01
-2.187493e+01
-2.315680e+01
-2.440193e+01
-2.555280e+01
-2.654956e+01
0.000000e+00
-1.970092e-01
-4.415647e-01
-7.353645e-01
-1.078922e+00
-1.471599e+00
-1.912022e+00
-2.398442e+00
-2.929097e+00
-3.502424e+00
-4.117155e+00
-4.772352e+00
-5.467332e+00
-6.201635e+00
-6.974960e+00
-7.787131e+00
-8.638111e+00
-9.528054e+00
-1.045740e+01
-1.142692e+01
-1.243756e+01
-1.349002e+01
-1.458396e+01
-1.571728e+01
-1.688640e+01
-1.808751e+01
-1.931631e+01
-2.056485e+01
-2.181750e+01
-2.305443e+01
-2.424522e+01
-2.534252e+01
-2.630007e+01
0.000000e+00
-1.952949e-01
-4.390268e-01
-7.339578e-01
-1.080061e+00
-1.475949e+00
-1.919822e+00
-2.409515e+00
-2.943109e+00
-3.518995e+00
-4.135974e+00
-4.793173e+00
-5.489991e+00
-6.225999e+00
-7.000906e+00
-7.814506e+00
-8.666673e+00
-9.557455e+00
-1.048721e+01
-1.145670e+01
-1.246690e+01
-1.351833e+01
-1.461017e+01
-1.573958e+01
-1.690242e+01
-1.809431e+01
-1.930918e+01
-2.053648e+01
-2.176033e+01
-2.295962e+01
-2.410782e+01
-2.517036e+01
-2.611189e+01
0.000000e+00
-1.912074e-01
-4.327881e-01
-7.309434e-01
-1.081974e+00
-1.483057e+00
-1.932925e+00
-2.427492e+00
-2.965250e+00
-3.544816e+00
-4.164507e+00
-4.824246e+00
-5.523186e+00
-6.260968e+00
-7.037484e+00
-7.852275e+00
-8.705247e+00
-9.596310e+00
-1.052569e+01
-1.149420e+01
-1.250258e+01
-1.355083e+01
-1.463804e+01
-1.576175e+01
-1.691800e+01
-1.810141e+01
-1.930367e+01
-2.051227e+01
-2.171088e+01
-2.288049e+01
-2.399925e+01
-2.504265e+01
-2.598501e+01
0.000000e+00
-1.828286e-01
-4.182826e-01
-7.266196e-01
-1.085689e+00
-1.493561e+00
-1.953650e+00
-2.452985e+00
-2.996737e+00
-3.580441e+00
-4.202949e+00
-4.866031e+00
-5.567017e+00
-6.306833e+00
-7.084972e+00
-7.900618e+00
-8.753997e+00
-9.644608e+00
-1.057266e+01
-1.153906e+01
-1.254399e+01
-1.358706e+01
-1.466822e+01
-1.578629e+01
-1.693726e+01
-1.811395e+01
-1.930555e+01
-2.049802e+01
-2.167579e+01
-2.282252e+01
-2.392153e+01
-2.495641e+01
-2.591128e+01
0.000000e+00
-1.634046e-01
-3.948214e-01
-7.263400e-01
-1.094086e+00
-1.514638e+00
-1.983794e+00
-2.490072e+00
-3.038585e+00
-3.626271e+00
-4.252042e+00
-4.917687e+00
-5.621302e+00
-6.362979e+00
-7.142737e+00
-7.959261e+00
-8.812679e+00
-9.702531e+00
-1.062866e+01
-1.159203e+01
-1.259238e+01
-1.362949e+01
-1.470490e+01
-1.581872e+01
-1.696610e+01
-1.813720e+01
-1.931905e+01
-2.049731e+01
-2.165781e+01
-2.278682e+01
-2.387212e+01
-2.490453e+01
-2.587861e+01
0.000000e+00
-1.403513e-01
-4.049556e-01
-7.467311e-01
-1.133415e+00
-1.560605e+00
-2.034055e+00
-2.545374e+00
-3.095344e+00
-3.685228e+00
-4.312704e+00
-4.979553e+00
-5.684794e+00
-6.427651e+00
-7.208442e+00
-8.025661e+00
-8.879143e+00
-9.768501e+00
-1.069322e+01
-1.165396e+01
-1.265042e+01
-1.368298e+01
-1.475441e+01
-1.586523e+01
-1.700881e+01
-1.817316e+01
-1.934470e+01
-2.051001e+01
-2.165615e+01
-2.277126e+01
-2.384641e+01
-2.487834e+01
-2.587241e+01
0.000000e+00
-1.681501e-01
-4.628823e-01
-8.065861e-01
-1.199542e+00
-1.628809e+00
-2.103784e+00
-2.616109e+00
-3.166784e+00
-3.757072e+00
-4.384978e+00
-5.052288e+00
-5.757803e+00
-6.501151e+00
-7.282137e+00
-8.099482e+00
-8.952885e+00
-9.841787e+00
-1.076572e+01
-1.172491e+01
-1.271926e+01
-1.374994e+01
-1.481962e+01
-1.592730e+01
-1.706473e+01
-1.821971e+01
-1.937980e+01
-2.053281e+01
-2.166675e+01
-2.277088e+01
-2.383809e+01
-2.486885e+01
-2.587679e+01
0.000000e+00
-2.650466e-01
-5.430903e-01
-8.938045e-01
-1.282421e+00
-1.713386e+00
-2.188488e+00
-2.699582e+00
-3.251247e+00
-3.840998e+00
-4.468881e+00
-5.136272e+00
-5.841324e+00
-6.584599e+00
-7.365243e+00
-8.182168e+00
-9.035259e+00
-9.923623e+00
-1.084705e+01
-1.180561e+01
-1.279928e+01
-1.382980e+01
-1.489859e+01