TITLE = "Solution"
VARIABLES = x, y, u, v, psiu, psiv, t, stress
ZONE T="structure" N=561 E=512 F=FEBLOCK ET=QUADRILATERAL VARLOCATION=([7,8]=cellcentered)
0.000000e+00
6.250000e+00
1.250000e+01
1.875000e+01
2.500000e+01
3.125000e+01
3.750000e+01
4.375000e+01
5.000000e+01
5.625000e+01
6.250000e+01
6.875000e+01
7.500000e+01
8.125000e+01
8.750000e+01
9.375000e+01
1.000000e+02
1.062500e+02
1.125000e+02
1.187500e+02
1.250000e+02
1.312500e+02
1.375000e+02
1.437500e+02
1.500000e+02
1.562500e+02
1.625000e+02
1.687500e+02
1.750000e+02
1.812500e+02
1.875000e+02
1.937500e+02
2.000000e+02
0.000000e+00
6.250000e+00
1.250000e+01
1.875000e+01
2.500000e+01
3.125000e+01
3.750000e+01
4.375000e+01
5.000000e+01
5.625000e+01
6.250000e+01
6.875000e+01
7.500000e+01
8.125000e+01
8.750000e+01
9.375000e+01
1.000000e+02
1.062500e+02
1.125000e+02
1.187500e+02
1.250000e+02
1.312500e+02
1.375000e+02
1.437500e+02
1.500000e+02
1.562500e+02
1.625000e+02
1.687500e+02
1.750000e+02
1.812500e+02
1.875000e+02
1.937500e+02
2.000000e+02
0.000000e+00
6.250000e+00
1.250000e+01
1.875000e+01
2.500000e+01
3.125000e+01
3.750000e+01
4.375000e+01
5.000000e+01
5.625000e+01
6.250000e+01
6.875000e+01
7.500000e+01
8.125000e+01
8.750000e+01
9.375000e+01
1.000000e+02
1.062500e+02
1.125000e+02
1.187500e+02
1.250000e+02
1.312500e+02
1.375000e+02
1.437500e+02
1.500000e+02
1.562500e+02
1.625000e+02
1.687500e+02
1.750000e+02
1.812500e+02
1.875000e+02
1.937500e+02
2.000000e+02
0.000000e+00
6.250000e+00
1.250000e+01
1.875000e+01
2.500000e+01
3.125000e+01
3.750000e+01
4.375000e+01
5.000000e+01
5.625000e+01
6.250000e+01
6.875000e+01
7.500000e+01
8.125000e+01
8.750000e+01
9.375000e+01
1.000000e+02
1.062500e+02
1.125000e+02
1.187500e+02
1.250000e+02
1.312500e+02
1.375000e+02
1.437500e+02
1.500000e+02
1.562500e+02
1.625000e+02
1.687500e+02
1.750000e+02
1.812500e+02
1.875000e+02
1.937500e+02
2.000000e+02
0.000000e+00
6.250000e+00
1.250000e+01
1.875000e+01
2.500000e+01
3.125000e+01
3.750000e+01
4.375000e+01
5.000000e+01
5.625000e+01
6.250000e+01
6.875000e+01
7.500000e+01
8.125000e+01
8.750000e+01
9.375000e+01
1.000000e+02
1.062500e+02
1.125000e+02
1.187500e+02
1.250000e+02
1.312500e+02
1.375000e+02
1.437500e+02
1.500000e+02
1.562500e+02
1.625000e+02
1.687500e+02
1.750000e+02
1.812500e+02
1.875000e+02
1.937500e+02
2.000000e+02
0.000000e+00
6.250000e+00
1.250000e+01
1.875000e+01
2.500000e+01
3.125000e+01
3.750000e+01
4.375000e+01
5.000000e+01
5.625000e+01
6.250000e+01
6.875000e+01
7.500000e+01
8.125000e+01
8.750000e+01
9.375000e+01
1.000000e+02
1.062500e+02
1.125000e+02
1.187500e+02
1.250000e+02
1.312500e+02
1.375000e+02
1.437500e+02
1.500000e+02
1.562500e+02
1.625000e+02
1.687500e+02
1.750000e+02
1.812500e+02
1.875000e+02
1.937500e+02
2.000000e+02
0.000000e+00
6.250000e+00
1.250000e+01
1.875000e+01
2.500000e+01
3.125000e+01
3.750000e+01
4.375000e+01
5.000000e+01
5.625000e+01
6.250000e+01
6.875000e+01
7.500000e+01
8.125000e+01
8.750000e+01
9.375000e+01
1.000000e+02
1.062500e+02
1.125000e+02
1.187500e+02
1.250000e+02
1.312500e+02
1.375000e+02
1.437500e+02
1.500000e+02
1.562500e+02
1.625000e+02
1.687500e+02
1.750000e+02
1.812500e+02
1.875000e+02
1.937500e+02
2.000000e+02
0.000000e+00
6.250000e+00
1.250000e+01
1.875000e+01
2.500000e+01
3.125000e+01
3.750000e+01
4.375000e+01
5.000000e+01
5.625000e+01
6.250000e+01
6.875000e+01
7.500000e+01
8.125000e+01
8.750000e+01
9.375000e+01
1.000000e+02
1.062500e+02
1.125000e+02
1.187500e+02
1.250000e+02
1.312500e+02
1.375000e+02
1.437500e+02
1.500000e+02
1.562500e+02
1.625000e+02
1.687500e+02
1.750000e+02
1.812500e+02
1.875000e+02
1.937500e+02
2.000000e+02
0.000000e+00
6.250000e+00
1.250000e+01
1.875000e+01
2.500000e+01
3.125000e+01
3.750000e+01
4.375000e+01
5.000000e+01
5.625000e+01
6.250000e+01
6.875000e+01
7.500000e+01
8.125000e+01
8.750000e+01
9.375000e+01
1.000000e+02
1.062500e+02
1.125000e+02
1.187500e+02
1.250000e+02
1.312500e+02
1.375000e+02
1.437500e+02
1.500000e+02
1.562500e+02
1.625000e+02
1.687500e+02
1.750000e+02
1.812500e+02
1.875000e+02
1.937500e+02
2.000000e+02
0.000000e+00
6.250000e+00
1.250000e+01
1.875000e+01
2.500000e+01
3.125000e+01
3.750000e+01
4.375000e+01
5.000000e+01
5.625000e+01
6.250000e+01
6.875000e+01
7.500000e+01
8.125000e+01
8.750000e+01
9.375000e+01
1.000000e+02
1.062500e+02
1.125000e+02
1.187500e+02
1.250000e+02
1.312500e+02
1.375000e+02
1.437500e+02
1.500000e+02
1.562500e+02
1.625000e+02
1.687500e+02
1.750000e+02
1.812500e+02
1.875000e+02
1.937500e+02
2.000000e+02
0.000000e+00
6.250000e+00
1.250000e+01
1.875000e+01
2.500000e+01
3.125000e+01
3.750000e+01
4.375000e+01
5.000000e+01
5.625000e+01
6.250000e+01
6.875000e+01
7.500000e+01
8.125000e+01
8.750000e+01
9.375000e+01
1.000000e+02
1.062500e+02
1.125000e+02
1.187500e+02
1.250000e+02
1.312500e+02
1.375000e+02
1.437500e+02
1.500000e+02
1.562500e+02
1.625000e+02
1.687500e+02
1.750000e+02
1.812500e+02
1.875000e+02
1.937500e+02
2.000000e+02
0.000000e+00
6.250000e+00
1.250000e+01
1.875000e+01
2.500000e+01
3.125000e+01
3.750000e+01
4.375000e+01
5.000000e+01
5.625000e+01
6.250000e+01
6.875000e+01
7.500000e+01
8.125000e+01
8.750000e+01
9.375000e+01
1.000000e+02
1.062500e+02
1.125000e+02
1.187500e+02
1.250000e+02
1.312500e+02
1.375000e+02
1.437500e+02
1.500000e+02
1.562500e+02
1.625000e+02
1.687500e+02
1.750000e+02
1.812500e+02
1.875000e+02
1.937500e+02
2.000000e+02
0.000000e+00
6.250000e+00
1.250000e+01
1.875000e+01
2.500000e+01
3.125000e+01
3.750000e+01
4.375000e+01
5.000000e+01
5.625000e+01
6.250000e+01
6.875000e+01
7.500000e+01
8.125000e+01
8.750000e+01
9.375000e+01
1.000000e+02
1.062500e+02
1.125000e+02
1.187500e+02
1.250000e+02
1.312500e+02
1.375000e+02
1.437500e+02
1.500000e+02
1.562500e+02
1.625000e+02
1.687500e+02
1.750000e+02
1.812500e+02
1.875000e+02
1.937500e+02
2.000000e+02
0.000000e+00
6.250000e+00
1.250000e+01
1.875000e+01
2.500000e+01
3.125000e+01
3.750000e+01
4.375000e+01
5.000000e+01
5.625000e+01
6.250000e+01
6.875000e+01
7.500000e+01
8.125000e+01
8.750000e+01
9.375000e+01
1.000000e+02
1.062500e+02
1.125000e+02
1.187500e+02
1.250000e+02
1.312500e+02
1.375000e+02
1.437500e+02
1.500000e+02
1.562500e+02
1.625000e+02
1.687500e+02
1.750000e+02
1.812500e+02
1.875000e+02
1.937500e+02
2.000000e+02
0.000000e+00
6.250000e+00
1.250000e+01
1.875000e+01
2.500000e+01
3.125000e+01
3.750000e+01
4.375000e+01
5.000000e+01
5.625000e+01
6.250000e+01
6.875000e+01
7.500000e+01
8.125000e+01
8.750000e+01
9.375000e+01
1.000000e+02
1.062500e+02
1.125000e+02
1.187500e+02
1.250000e+02
1.312500e+02
1.375000e+02
1.437500e+02
1.500000e+02
1.562500e+02
1.625000e+02
1.687500e+02
1.750000e+02
1.812500e+02
1.875000e+02
1.937500e+02
2.000000e+02
0.000000e+00
6.250000e+00
1.250000e+01
1.875000e+01
2.500000e+01
3.125000e+01
3.750000e+01
4.375000e+01
5.000000e+01
5.625000e+01
6.250000e+01
6.875000e+01
7.500000e+01
8.125000e+01
8.750000e+01
9.375000e+01
1.000000e+02
1.062500e+02
1.125000e+02
1.187500e+02
1.250000e+02
1.312500e+02
1.375000e+02
1.437500e+02
1.500000e+02
1.562500e+02
1.625000e+02
1.687500e+02
1.750000e+02
1.812500e+02
1.875000e+02
1.937500e+02
2.000000e+02
0.000000e+00
6.250000e+00
1.250000e+01
1.875000e+01
2.500000e+01
3.125000e+01
3.750000e+01
4.375000e+01
5.000000e+01
5.625000e+01
6.250000e+01
6.875000e+01
7.500000e+01
8.125000e+01
8.750000e+01
9.375000e+01
1.000000e+02
1.062500e+02
1.125000e+02
1.187500e+02
1.250000e+02
1.312500e+02
1.375000e+02
1.437500e+02
1.500000e+02
1.562500e+02
1.625000e+02
1.687500e+02
1.750000e+02
1.812500e+02
1.875000e+02
1.937500e+02
2.000000e+02
0.000000e+00
0.000000e+00
0.000000e+00
0.000000e+00
0.000000e+00
0.000000e+00
0.000000e+00
0.000000e+00
0.000000e+00
0.000000e+00
0.000000e+00
0.000000e+00
0.000000e+00
0.000000e+00
0.000000e+00
0.000000e+00
0.000000e+00
0.000000e+00
0.000000e+00
0.000000e+00
0.000000e+00
0.000000e+00
0.000000e+00
0.000000e+00
0.000000e+00
0.000000e+00
0.000000e+00
0.000000e+00
0.000000e+00
0.000000e+00
0.000000e+00
0.000000e+00
0.000000e+00
6.250000e+00
6.250000e+00
6.250000e+00
6.250000e+00
6.250000e+00
6.250000e+00
6.250000e+00
6.250000e+00
6.250000e+00
6.250000e+00
6.250000e+00
6.250000e+00
6.250000e+00
6.250000e+00
6.250000e+00
6.250000e+00
6.250000e+00
6.250000e+00
6.250000e+00
6.250000e+00
6.250000e+00
6.250000e+00
6.250000e+00
6.250000e+00
6.250000e+00
6.250000e+00
6.250000e+00
6.250000e+00
6.250000e+00
6.250000e+00
6.250000e+00
6.250000e+00
6.250000e+00
1.250000e+01
1.250000e+01
1.250000e+01
1.250000e+01
1.250000e+01
1.250000e+01
1.250000e+01
1.250000e+01
1.250000e+01
1.250000e+01
1.250000e+01
1.250000e+01
1.250000e+01
1.250000e+01
1.250000e+01
1.250000e+01
1.250000e+01
1.250000e+01
1.250000e+01
1.250000e+01
1.250000e+01
1.250000e+01
1.250000e+01
1.250000e+01
1.250000e+01
1.250000e+01
1.250000e+01
1.250000e+01
1.250000e+01
1.250000e+01
1.250000e+01
1.250000e+01
1.250000e+01
1.875000e+01
1.875000e+01
1.875000e+01
1.875000e+01
1.875000e+01
1.875000e+01
1.875000e+01
1.875000e+01
1.875000e+01
1.875000e+01
1.875000e+01
1.875000e+01
1.875000e+01
1.875000e+01
1.875000e+01
1.875000e+01
1.875000e+01
1.875000e+01
1.875000e+01
1.875000e+01
1.875000e+01
1.875000e+01
1.875000e+01
1.875000e+01
1.875000e+01
1.875000e+01
1.875000e+01
1.875000e+01
1.875000e+01
1.875000e+01
1.875000e+01
1.875000e+01
1.875000e+01
2.500000e+01
2.500000e+01
2.500000e+01
2.500000e+01
2.500000e+01
2.500000e+01
2.500000e+01
2.500000e+01
2.500000e+01
2.500000e+01
2.500000e+01
2.500000e+01
2.500000e+01
2.500000e+01
2.500000e+01
2.500000e+01
2.500000e+01
2.500000e+01
2.500000e+01
2.500000e+01
2.500000e+01
2.500000e+01
2.500000e+01
2.500000e+01
2.500000e+01
2.500000e+01
2.500000e+01
2.500000e+01
2.500000e+01
2.500000e+01
2.500000e+01
2.500000e+01
2.500000e+01
3.125000e+01
3.125000e+01
3.125000e+01
3.125000e+01
3.125000e+01
3.125000e+01
3.125000e+01
3.125000e+01
3.125000e+01
3.125000e+01
3.125000e+01
3.125000e+01
3.125000e+01
3.125000e+01
3.125000e+01
3.125000e+01
3.125000e+01
3.125000e+01
3.125000e+01
3.125000e+01
3.125000e+01
3.125000e+01
3.125000e+01
3.125000e+01
3.125000e+01
3.125000e+01
3.125000e+01
3.125000e+01
3.125000e+01
3.125000e+01
3.125000e+01
3.125000e+01
3.125000e+01
3.750000e+01
3.750000e+01
3.750000e+01
3.750000e+01
3.750000e+01
3.750000e+01
3.750000e+01
3.750000e+01
3.750000e+01
3.750000e+01
3.750000e+01
3.750000e+01
3.750000e+01
3.750000e+01
3.750000e+01
3.750000e+01
3.750000e+01
3.750000e+01
3.750000e+01
3.750000e+01
3.750000e+01
3.750000e+01
3.750000e+01
3.750000e+01
3.750000e+01
3.750000e+01
3.750000e+01
3.750000e+01
3.750000e+01
3.750000e+01
3.750000e+01
3.750000e+01
3.750000e+01
4.375000e+01
4.375000e+01
4.375000e+01
4.375000e+01
4.375000e+01
4.375000e+01
4.375000e+01
4.375000e+01
4.375000e+01
4.375000e+01
4.375000e+01
4.375000e+01
4.375000e+01
4.375000e+01
4.375000e+01
4.375000e+01
4.375000e+01
4.375000e+01
4.375000e+01
4.375000e+01
4.375000e+01
4.375000e+01
4.375000e+01
4.375000e+01
4.375000e+01
4.375000e+01
4.375000e+01
4.375000e+01
4.375000e+01
4.375000e+01
4.375000e+01
4.375000e+01
4.375000e+01
5.000000e+01
5.000000e+01
5.000000e+01
5.000000e+01
5.000000e+01
5.000000e+01
5.000000e+01
5.000000e+01
5.000000e+01
5.000000e+01
5.000000e+01
5.000000e+01
5.000000e+01
5.000000e+01
5.000000e+01
5.000000e+01
5.000000e+01
5.000000e+01
5.000000e+01
5.000000e+01
5.000000e+01
5.000000e+01
5.000000e+01
5.000000e+01
5.000000e+01
5.000000e+01
5.000000e+01
5.000000e+01
5.000000e+01
5.000000e+01
5.000000e+01
5.000000e+01
5.000000e+01
5.625000e+01
5.625000e+01
5.625000e+01
5.625000e+01
5.625000e+01
5.625000e+01
5.625000e+01
5.625000e+01
5.625000e+01
5.625000e+01
5.625000e+01
5.625000e+01
5.625000e+01
5.625000e+01
5.625000e+01
5.625000e+01
5.625000e+01
5.625000e+01
5.625000e+01
5.625000e+01
5.625000e+01
5.625000e+01
5.625000e+01
5.625000e+01
5.625000e+01
5.625000e+01
5.625000e+01
5.625000e+01
5.625000e+01
5.625000e+01
5.625000e+01
5.625000e+01
5.625000e+01
6.250000e+01
6.250000e+01
6.250000e+01
6.250000e+01
6.250000e+01
6.250000e+01
6.250000e+01
6.250000e+01
6.250000e+01
6.250000e+01
6.250000e+01
6.250000e+01
6.250000e+01
6.250000e+01
6.250000e+01
6.250000e+01
6.250000e+01
6.250000e+01
6.250000e+01
6.250000e+01
6.250000e+01
6.250000e+01
6.250000e+01
6.250000e+01
6.250000e+01
6.250000e+01
6.250000e+01
6.250000e+01
6.250000e+01
6.250000e+01
6.250000e+01
6.250000e+01
6.250000e+01
6.875000e+01
6.875000e+01
6.875000e+01
6.875000e+01
6.875000e+01
6.875000e+01
6.875000e+01
6.875000e+01
6.875000e+01
6.875000e+01
6.875000e+01
6.875000e+01
6.875000e+01
6.875000e+01
6.875000e+01
6.875000e+01
6.875000e+01
6.875000e+01
6.875000e+01
6.875000e+01
6.875000e+01
6.875000e+01
6.875000e+01
6.875000e+01
6.875000e+01
6.875000e+01
6.875000e+01
6.875000e+01
6.875000e+01
6.875000e+01
6.875000e+01
6.875000e+01
6.875000e+01
7.500000e+01
7.500000e+01
7.500000e+01
7.500000e+01
7.500000e+01
7.500000e+01
7.500000e+01
7.500000e+01
7.500000e+01
7.500000e+01
7.500000e+01
7.500000e+01
7.500000e+01
7.500000e+01
7.500000e+01
7.500000e+01
7.500000e+01
7.500000e+01
7.500000e+01
7.500000e+01
7.500000e+01
7.500000e+01
7.500000e+01
7.500000e+01
7.500000e+01
7.500000e+01
7.500000e+01
7.500000e+01
7.500000e+01
7.500000e+01
7.500000e+01
7.500000e+01
7.500000e+01
8.125000e+01
8.125000e+01
8.125000e+01
8.125000e+01
8.125000e+01
8.125000e+01
8.125000e+01
8.125000e+01
8.125000e+01
8.125000e+01
8.125000e+01
8.125000e+01
8.125000e+01
8.125000e+01
8.125000e+01
8.125000e+01
8.125000e+01
8.125000e+01
8.125000e+01
8.125000e+01
8.125000e+01
8.125000e+01
8.125000e+01
8.125000e+01
8.125000e+01
8.125000e+01
8.125000e+01
8.125000e+01
8.125000e+01
8.125000e+01
8.125000e+01
8.125000e+01
8.125000e+01
8.750000e+01
8.750000e+01
8.750000e+01
8.750000e+01
8.750000e+01
8.750000e+01
8.750000e+01
8.750000e+01
8.750000e+01
8.750000e+01
8.750000e+01
8.750000e+01
8.750000e+01
8.750000e+01
8.750000e+01
8.750000e+01
8.750000e+01
8.750000e+01
8.750000e+01
8.750000e+01
8.750000e+01
8.750000e+01
8.750000e+01
8.750000e+01
8.750000e+01
8.750000e+01
8.750000e+01
8.750000e+01
8.750000e+01
8.750000e+01
8.750000e+01
8.750000e+01
8.750000e+01
9.375000e+01
9.375000e+01
9.375000e+01
9.375000e+01
9.375000e+01
9.375000e+01
9.375000e+01
9.375000e+01
9.375000e+01
9.375000e+01
9.375000e+01
9.375000e+01
9.375000e+01
9.375000e+01
9.375000e+01
9.375000e+01
9.375000e+01
9.375000e+01
9.375000e+01
9.375000e+01
9.375000e+01
9.375000e+01
9.375000e+01
9.375000e+01
9.375000e+01
9.375000e+01
9.375000e+01
9.375000e+01
9.375000e+01
9.375000e+01
9.375000e+01
9.375000e+01
9.375000e+01
1.000000e+02
1.000000e+02
1.000000e+02
1.000000e+02
1.000000e+02
1.000000e+02
1.000000e+02
1.000000e+02
1.000000e+02
1.000000e+02
1.000000e+02
1.000000e+02
1.000000e+02
1.000000e+02
1.000000e+02
1.000000e+02
1.000000e+02
1.000000e+02
1.000000e+02
1.000000e+02
1.000000e+02
1.000000e+02
1.000000e+02
1.000000e+02
1.000000e+02
1.000000e+02
1.000000e+02
1.000000e+02
1.000000e+02
1.000000e+02
1.000000e+02
1.000000e+02
1.000000e+02
0.000000e+00
-1.306458e-01
-2.370343e-01
-3.355977e-01
-4.302102e-01
-5.215886e-01
-6.099121e-01
-6.951703e-01
-7.773077e-01
-8.562630e-01
-9.319855e-01
-1.004440e+00
-1.073607e+00
-1.139486e+00
-1.202089e+00
-1.261450e+00
-1.317621e+00
-1.370679e+00
-1.420730e+00
-1.467917e+00
-1.512433e+00
-1.554530e+00
-1.594545e+00
-1.632921e+00
-1.670254e+00
-1.707355e+00
-1.745347e+00
-1.785836e+00
-1.831173e+00
-1.884819e+00
-1.951264e+00
-2.030434e+00
-2.078747e+00
0.000000e+00
-8.758742e-02
-1.822323e-01
-2.714784e-01
-3.563224e-01
-4.375674e-01
-5.156382e-01
-5.907200e-01
-6.628857e-01
-7.321580e-01
-7.985405e-01
-8.620319e-01
-9.226345e-01
-9.803570e-01
-1.035218e+00
-1.087247e+00
-1.136489e+00
-1.183002e+00
-1.226868e+00
-1.268192e+00
-1.307105e+00
-1.343777e+00
-1.378416e+00
-1.411277e+00
-1.442666e+00
-1.472934e+00
-1.502452e+00
-1.531525e+00
-1.560151e+00
-1.587399e+00
-1.610101e+00
-1.623371e+00
-1.641845e+00
0.000000e+00
-6.947041e-02
-1.430216e-01
-2.179170e-01
-2.907068e-01
-3.608269e-01
-4.282297e-01
-4.929766e-01
-5.551231e-01
-6.147070e-01
-6.717524e-01
-7.262760e-01
-7.782920e-01
-8.278151e-01
-8.748628e-01
-9.194574e-01
-9.616275e-01
-1.001409e+00
-1.038846e+00
-1.073993e+00
-1.106909e+00
-1.137662e+00
-1.166317e+00
-1.192925e+00
-1.217495e+00
-1.239951e+00
-1.260033e+00
-1.277153e+00
-1.290151e+00
-1.297152e+00
-1.296541e+00
-1.292615e+00
-1.314186e+00
0.000000e+00
-5.511858e-02
-1.132820e-01
-1.730442e-01
-2.326767e-01
-2.908743e-01
-3.471375e-01
-4.012859e-01
-4.532696e-01
-5.030854e-01
-5.507448e-01
-5.962630e-01
-6.396544e-01
-6.809320e-01
-7.201075e-01
-7.571914e-01
-7.921935e-01
-8.251223e-01
-8.559844e-01
-8.847814e-01
-9.115056e-01
-9.361323e-01
-9.586071e-01
-9.788252e-01
-9.965998e-01
-1.011617e+00
-1.023381e+00
-1.031172e+00
-1.034148e+00
-1.031942e+00
-1.026583e+00
-1.026263e+00
-1.046816e+00
0.000000e+00
-4.278144e-02
-8.760238e-02
-1.338593e-01
-1.804985e-01
-2.265724e-01
-2.714450e-01
-3.147936e-01
-3.564709e-01
-3.964196e-01
-4.346238e-01
-4.710851e-01
-5.058093e-01
-5.388019e-01
-5.700646e-01
-5.995939e-01
-6.273806e-01
-6.534075e-01
-6.776475e-01
-7.000598e-01
-7.205840e-01
-7.391323e-01
-7.555777e-01
-7.697396e-01
-7.813677e-01
-7.901329e-01
-7.956491e-01
-7.975850e-01
-7.959991e-01
-7.921165e-01
-7.895971e-01
-7.954137e-01
-8.129485e-01
0.000000e+00
-3.144316e-02
-6.423402e-02
-9.808079e-02
-1.324002e-01
-1.665520e-01
-2.000279e-01
-2.324967e-01
-2.637766e-01
-2.937783e-01
-3.224642e-01
-3.498202e-01
-3.758414e-01
-4.005225e-01
-4.238540e-01
-4.458187e-01
-4.663905e-01
-4.855313e-01
-5.031895e-01
-5.192956e-01
-5.337588e-01
-5.464619e-01
-5.572562e-01
-5.659607e-01
-5.723687e-01
-5.762791e-01
-5.775768e-01
-5.764134e-01
-5.735446e-01
-5.708146e-01
-5.714783e-01
-5.788939e-01
-5.934046e-01
0.000000e+00
-2.069403e-02
-4.220705e-02
-6.440391e-02
-8.696888e-02
-1.095226e-01
-1.317251e-01
-1.533285e-01
-1.741772e-01
-1.941851e-01
-2.133087e-01
-2.315257e-01
-2.488217e-01
-2.651821e-01
-2.805868e-01
-2.950075e-01
-3.084051e-01
-3.207278e-01
-3.319096e-01
-3.418678e-01
-3.505024e-01
-3.576962e-01
-3.633184e-01
-3.672364e-01
-3.693417e-01
-3.696031e-01
-3.681641e-01
-3.655007e-01
-3.626264e-01
-3.612325e-01
-3.634051e-01
-3.706256e-01
-3.823400e-01
0.000000e+00
-1.027894e-02
-2.094673e-02
-3.194894e-02
-4.314695e-02
-5.436409e-02
-6.543250e-02
-7.622070e-02
-8.663972e-02
-9.663511e-02
-1.061745e-01
-1.152364e-01
-1.238021e-01
-1.318501e-01
-1.393529e-01
-1.462744e-01
-1.525680e-01
-1.581755e-01
-1.630264e-01
-1.670380e-01
-1.701175e-01
-1.721673e-01
-1.730959e-01
-1.728377e-01
-1.713876e-01
-1.688561e-01
-1.655495e-01
-1.620653e-01
-1.593602e-01
-1.586820e-01
-1.612314e-01
-1.675307e-01
-1.768263e-01
0.000000e+00
-1.664323e-05
-3.607981e-05
-5.723394e-05
-7.899399e-05
-9.986179e-05
-1.175798e-04
-1.287175e-04
-1.281884e-04
-1.086682e-04
-5.989225e-05
3.217945e-05
1.863294e-04
4.271597e-04
7.862278e-04
1.303142e-03
2.026452e-03
3.014045e-03
4.332637e-03
6.055675e-03
8.258674e-03
1.101056e-02
1.435908e-02
1.830788e-02
2.278302e-02
2.758849e-02
3.235642e-02
3.651059e-02
3.928395e-02
3.984683e-02
3.758312e-02
3.245575e-02
2.527430e-02
0.000000e+00
1.024759e-02
2.087863e-02
3.184069e-02
4.299720e-02
5.417424e-02
6.520813e-02
7.597378e-02
8.639173e-02
9.642122e-02
1.060491e-01
1.152802e-01
1.241312e-01
1.326270e-01
1.407995e-01
1.486874e-01
1.563363e-01
1.637980e-01
1.711293e-01
1.783888e-01
1.856307e-01
1.928949e-01
2.001916e-01
2.074804e-01
2.146427e-01
2.214527e-01
2.275537e-01
2.324610e-01
2.356142e-01
2.365072e-01
2.348909e-01
2.309958e-01
2.256657e-01
0.000000e+00
2.066841e-02
4.215100e-02
6.431419e-02
8.684380e-02
1.093625e-01
1.315338e-01
1.531145e-01
1.739569e-01
1.939858e-01
2.131731e-01
2.315180e-01
2.490349e-01
2.657470e-01
2.816836e-01
2.968783e-01
3.113690e-01
3.251968e-01
3.384047e-01
3.510332e-01
3.631153e-01
3.746660e-01
3.856697e-01
3.960627e-01
4.057145e-01
4.144111e-01
4.218499e-01
4.276600e-01
4.314629e-01
4.329835e-01
4.322019e-01
4.295066e-01
4.257865e-01
0.000000e+00
3.142679e-02
6.419756e-02
9.802144e-02
1.323159e-01
1.664421e-01
1.998934e-01
2.323419e-01
2.636104e-01
2.936167e-01
3.223327e-01
3.497585e-01
3.759076e-01
4.007999e-01
4.244583e-01
4.469079e-01
4.681746e-01
4.882853e-01
5.072657e-01
5.251373e-01
5.419127e-01
5.575879e-01
5.721324e-01
5.854776e-01
5.975054e-01
6.080411e-01
6.168576e-01
6.237003e-01
6.283407e-01
6.306659e-01
6.307968e-01
6.292157e-01
6.268646e-01
0.000000e+00
4.277731e-02
8.759210e-02
1.338409e-01
1.804702e-01
2.265325e-01
2.713926e-01
3.147285e-01
3.563945e-01
3.963351e-01
4.345379e-01
4.710087e-01
5.057598e-01
5.388053e-01
5.701586e-01
5.998321e-01
6.278365e-01
6.541808e-01
6.788712e-01
7.019085e-01
7.232857e-01
7.429830e-01
7.609624e-01
7.771617e-01
7.914899e-01
8.038266e-01
8.140305e-01
8.219609e-01
8.275188e-01
8.307120e-01
8.317478e-01
8.311541e-01
8.299155e-01
0.000000e+00
5.512876e-02
1.133027e-01
1.730749e-01
2.327166e-01
2.909224e-01
3.471919e-01
4.013439e-01
4.533269e-01
5.031347e-01
5.507754e-01
5.962591e-01
6.395933e-01
6.807823e-01
7.198261e-01
7.567213e-01
7.914603e-01
8.240315e-01
8.544184e-01
8.825994e-01
9.085457e-01
9.322212e-01
9.535805e-01
9.725699e-01
9.891286e-01
1.003195e+00
1.014715e+00
1.023664e+00
1.030069e+00
1.034049e+00
1.035880e+00
1.036098e+00
1.035687e+00
0.000000e+00
6.949538e-02
1.430749e-01
2.180004e-01
2.908219e-01
3.609752e-01
4.284113e-01
4.931895e-01
5.553613e-01
6.149582e-01
6.719949e-01
7.264750e-01
7.783939e-01
8.277410e-01
8.745003e-01
9.186499e-01
9.601621e-01
9.990027e-01
1.035130e+00
1.068496e+00
1.099046e+00
1.126720e+00
1.151457e+00
1.173202e+00
1.191915e+00
1.207579e+00
1.220225e+00
1.229940e+00
1.236894e+00
1.241347e+00
1.243678e+00
1.244437e+00
1.244528e+00
0.000000e+00
8.762494e-02
1.823142e-01
2.716102e-01
3.565105e-01
4.378183e-01
5.159574e-01
5.911105e-01
6.633461e-01
7.326790e-01
7.991004e-01
8.625910e-01
9.231258e-01
9.806761e-01
1.035209e+00
1.086684e+00
1.135054e+00
1.180263e+00
1.222240e+00
1.260908e+00
1.296176e+00
1.327950e+00
1.356134e+00
1.380650e+00
1.401444e+00
1.418520e+00
1.431956e+00
1.441943e+00
1.448803e+00
1.453007e+00
1.455154e+00
1.455933e+00
1.456124e+00
0.000000e+00
1.306868e-01
2.371301e-01
3.357619e-01
4.304560e-01
5.219294e-01
6.103618e-01
6.957421e-01
7.780121e-01
8.571042e-01
9.329565e-01
1.005515e+00
1.074732e+00
1.140562e+00
1.202958e+00
1.261868e+00
1.317229e+00
1.368962e+00
1.416973e+00
1.461147e+00
1.501351e+00
1.537438e+00
1.569251e+00
1.596646e+00
1.619508e+00
1.637791e+00
1.651561e+00
1.661047e+00
1.666701e+00
1.669249e+00
1.669712e+00
1.669329e+00
1.669113e+00
0.000000e+00
-8.073750e-02
-1.409167e-01
-2.065977e-01
-2.797425e-01
-3.623675e-01
-4.550471e-01
-5.579433e-01
-6.709543e-01
-7.938387e-01
-9.262716e-01
-1.067879e+00
-1.218257e+00
-1.376985e+00
-1.543634e+00
-1.717772e+00
-1.898970e+00
-2.086805e+00
-2.280869e+00
-2.480778e+00
-2.686184e+00
-2.896794e+00
-3.112398e+00
-3.332915e+00
-3.558453e+00
-3.789430e+00
-4.026766e+00
-4.272251e+00
-4.529314e+00
-4.804739e+00
-5.113168e+00
-5.489142e+00
-6.008556e+00
0.000000e+00
-5.017624e-02
-1.131678e-01
-1.792874e-01
-2.534461e-01
-3.369646e-01
-4.305416e-01
-5.343358e-01
-6.482544e-01
-7.720557e-01
-9.054129e-01
-1.047949e+00
-1.199256e+00
-1.358911e+00
-1.526481e+00
-1.701528e+00
-1.883619e+00
-2.072324e+00
-2.267228e+00
-2.467936e+00
-2.674088e+00
-2.885378e+00
-3.101575e+00
-3.322573e+00
-3.548453e+00
-3.779592e+00
-4.016863e+00
-4.262002e+00
-4.518363e+00
-4.792621e+00
-5.098670e+00
-5.466276e+00
-5.951539e+00
0.000000e+00
-3.685861e-02
-9.123904e-02
-1.564544e-01
-2.307387e-01
-3.148689e-01
-4.091815e-01
-5.137643e-01
-6.284923e-01
-7.531122e-01
-8.872916e-01
-1.030650e+00
-1.182779e+00
-1.343253e+00
-1.511637e+00
-1.687492e+00
-1.870383e+00
-2.059877e+00
-2.255556e+00
-2.457022e+00
-2.663913e+00
-2.875919e+00
-3.092809e+00
-3.314480e+00
-3.541022e+00
-3.772835e+00
-4.010830e+00
-4.256785e+00
-4.514017e+00
-4.788534e+00
-5.090603e+00
-5.432348e+00
-5.811437e+00
0.000000e+00
-2.951775e-02
-7.726508e-02
-1.390019e-01
-2.123291e-01
-2.964304e-01
-3.911437e-01
-4.963101e-01
-6.117038e-01
-7.370251e-01
-8.719201e-01
-1.015999e+00
-1.168850e+00
-1.330046e+00
-1.499153e+00
-1.675734e+00
-1.859353e+00
-2.049581e+00
-2.246001e+00
-2.448219e+00
-2.655877e+00
-2.868671e+00
-3.086385e+00
-3.308930e+00
-3.536419e+00
-3.769272e+00
-4.008388e+00
-4.255408e+00
-4.513046e+00
-4.785262e+00
-5.075844e+00
-5.382315e+00
-5.667602e+00
0.000000e+00
-2.498057e-02
-6.812792e-02
-1.266097e-01
-1.982641e-01
-2.818119e-01
-3.765587e-01
-4.820648e-01
-5.979498e-01
-7.238356e-01
-8.593291e-01
-1.004022e+00
-1.157495e+00
-1.319321e+00
-1.489065e+00
-1.666295e+00
-1.850579e+00
-2.041493e+00
-2.238625e+00
-2.441588e+00
-2.650033e+00
-2.863664e+00
-3.082273e+00
-3.305780e+00
-3.534287e+00
-3.768162e+00
-4.008140e+00
-4.255403e+00
-4.511509e+00
-4.777717e+00
-5.052756e+00
-5.326522e+00
-5.574971e+00
0.000000e+00
-2.209364e-02
-6.213328e-02
-1.180828e-01
-1.881235e-01
-2.708875e-01
-3.654266e-01
-4.710661e-01
-5.872743e-01
-7.135830e-01
-8.495504e-01
-9.947446e-01
-1.148735e+00
-1.311093e+00
-1.481387e+00
-1.659187e+00
-1.844068e+00
-2.035612e+00
-2.233414e+00
-2.437092e+00
-2.646303e+00
-2.860752e+00
-3.080227e+00
-3.304619e+00
-3.533970e+00
-3.768501e+00
-4.008624e+00
-4.254858e+00
-4.507490e+00
-4.765666e+00
-5.025452e+00
-5.277560e+00
-5.507975e+00
0.000000e+00
-2.029936e-02
-5.834328e-02
-1.125403e-01
-1.813305e-01
-2.633806e-01
-3.576380e-01
-4.632896e-01
-5.796885e-01
-7.062897e-01
-8.426067e-01
-9.881836e-01
-1.142581e+00
-1.305366e+00
-1.476112e+00
-1.654393e+00
-1.839789e+00
-2.031888e+00
-2.230291e+00
-2.434618e+00
-2.644521e+00
-2.859696e+00
-3.079899e+00
-3.304965e+00
-3.534816e+00
-3.769456e+00
-4.008905e+00
-4.253027e+00
-4.501118e+00
-4.751156e+00
-4.998815e+00
-5.236949e+00
-5.456805e+00
0.000000e+00
-1.931333e-02
-5.624029e-02
-1.094171e-01
-1.774355e-01
-2.590082e-01
-3.530488e-01
-4.586765e-01
-5.751783e-01
-7.019606e-01
-8.385064e-01
-9.843444e-01
-1.139029e+00
-1.302127e+00
-1.473215e+00
-1.651872e+00
-1.837683e+00
-2.030240e+00
-2.229143e+00
-2.434011e+00
-2.644482e+00
-2.860225e+00
-3.080948e+00
-3.306395e+00
-3.536340e+00
-3.770547e+00
-4.008669e+00
-4.250059e+00
-4.493427e+00
-4.736378e+00
-4.975008e+00
-5.203944e+00
-5.417210e+00
0.000000e+00
-1.899562e-02
-5.556181e-02
-1.084049e-01
-1.761661e-01
-2.575772e-01
-3.515455e-01
-4.571714e-01
-5.737221e-01
-7.005891e-01
-8.372467e-01
-9.832203e-01
-1.138065e+00
-1.301351e+00
-1.472657e+00
-1.651569e+00
-1.837674e+00
-2.030565e+00
-2.229840e+00
-2.435106e+00
-2.645982e+00
-2.862097e+00
-3.083094e+00
-3.308614e+00
-3.538277e+00
-3.771625e+00
-4.008025e+00
-4.246502e+00
-4.485514e+00
-4.722706e+00
-4.954774e+00
-5.177619e+00
-5.386864e+00
0.000000e+00
-1.930412e-02
-5.622752e-02
-1.094061e-01
-1.774322e-01
-2.590199e-01
-3.530851e-01
-4.587502e-01
-5.753065e-01
-7.021654e-01
-8.388164e-01
-9.847954e-01
-1.139665e+00
-1.303002e+00
-1.474392e+00
-1.653421e+00
-1.839681e+00
-2.032761e+00
-2.232254e+00
-2.437752e+00
-2.648845e+00
-2.865118e+00
-3.086142e+00
-3.311457e+00
-3.540542e+00
-3.772759e+00
-4.007277e+00
-4.242953e+00
-4.478199e+00
-4.710871e+00
-4.938247e+00
-5.157153e+00
-5.364246e+00
0.000000e+00
-2.028169e-02
-5.831877e-02
-1.125191e-01
-1.813239e-01
-2.634026e-01
-3.577070e-01
-4.634303e-01
-5.799333e-01
-7.066814e-01
-8.431999e-01
-9.890474e-01
-1.143801e+00
-1.307045e+00
-1.478370e+00
-1.657367e+00
-1.843625e+00
-2.036733e+00
-2.236274e+00
-2.441820e+00
-2.652934e+00
-2.869153e+00
-3.089981e+00
-3.314865e+00
-3.543167e+00
-3.774121e+00
-4.006772e+00
-4.239911e+00
-4.472015e+00
-4.701207e+00
-4.925284e+00
-5.141801e+00
-5.348191e+00
0.000000e+00
-2.206908e-02
-6.209921e-02
-1.180532e-01
-1.881140e-01
-2.709176e-01
-3.655221e-01
-4.712615e-01
-5.876152e-01
-7.141290e-01
-8.503784e-01
-9.959512e-01
-1.150440e+00
-1.313441e+00
-1.484547e+00
-1.663351e+00
-1.849442e+00
-2.042405e+00
-2.241810e+00
-2.447215e+00
-2.658153e+00
-2.874118e+00
-3.094556e+00
-3.318839e+00
-3.546241e+00
-3.775903e+00
-4.006804e+00
-4.237731e+00
-4.467267e+00
-4.693806e+00
-4.915607e+00
-5.130850e+00
-5.337666e+00
0.000000e+00
-2.495164e-02
-6.808780e-02
-1.265748e-01
-1.982530e-01
-2.818483e-01
-3.766738e-01
-4.823005e-01
-5.983614e-01
-7.244952e-01
-8.603296e-01
-1.005481e+00
-1.159557e+00
-1.322161e+00
-1.492889e+00
-1.671335e+00
-1.857087e+00
-2.049722e+00
-2.248805e+00
-2.453876e+00
-2.664444e+00
-2.879970e+00
-3.099854e+00
-3.323411e+00
-3.549852e+00
-3.778262e+00
-4.007586e+00
-4.236631e+00
-4.464094e+00
-4.688612e+00
-4.908853e+00
-5.123580e+00
-5.331643e+00
0.000000e+00
-2.948801e-02
-7.722389e-02
-1.389664e-01
-2.123196e-01
-2.964731e-01
-3.912734e-01
-4.965732e-01
-6.121615e-01
-7.377572e-01
-8.730292e-01
-1.017615e+00
-1.171132e+00
-1.333187e+00
-1.503379e+00
-1.681301e+00
-1.866538e+00
-2.058664e+00
-2.257234e+00
-2.461778e+00
-2.671787e+00
-2.886698e+00
-3.105880e+00
-3.328611e+00
-3.554063e+00
-3.781287e+00
-4.009219e+00
-4.236691e+00
-4.462494e+00
-4.685462e+00
-4.904606e+00
-5.119239e+00
-5.329018e+00
0.000000e+00
-3.683268e-02
-9.120295e-02
-1.564244e-01
-2.307358e-01
-3.149209e-01
-4.093248e-01
-5.140474e-01
-6.289786e-01
-7.538845e-01
-8.884560e-01
-1.032340e+00
-1.185159e+00
-1.346520e+00
-1.516022e+00
-1.693256e+00
-1.877806e+00
-2.069240e+00
-2.267110e+00
-2.470935e+00
-2.680198e+00
-2.894320e+00
-3.112653e+00
-3.334457e+00
-3.558886e+00
-3.784980e+00
-4.011676e+00
-4.237835e+00
-4.462314e+00
-4.684082e+00
-4.902404e+00
-5.117057e+00
-5.328559e+00
0.000000e+00
-5.015957e-02
-1.131432e-01
-1.792697e-01
-2.534570e-01
-3.370323e-01
-4.307031e-01
-5.346395e-01
-6.487638e-01
-7.728528e-01
-9.066023e-01
-1.049661e+00
-1.201652e+00
-1.362181e+00
-1.530847e+00
-1.707238e+00
-1.890935e+00
-2.081503e+00
-2.278489e+00
-2.481409e+00
-2.689736e+00
-2.902889e+00
-3.120212e+00
-3.340960e+00
-3.564288e+00
-3.789244e+00
-4.014781e+00
-4.239793e+00
-4.463188e+00
-4.684018e+00
-4.901687e+00
-5.116269e+00
-5.328949e+00
0.000000e+00
-8.073509e-02
-1.409084e-01
-2.065992e-01
-2.797754e-01
-3.624604e-01
-4.552369e-01
-5.582779e-01
-6.714960e-01
-7.946672e-01
-9.274875e-01
-1.069607e+00
-1.220647e+00
-1.380216e+00
-1.547909e+00
-1.723314e+00
-1.906006e+00
-2.095549e+00
-2.291482e+00
-2.493317e+00
-2.700523e+00
-2.912515e+00
-3.128637e+00