TITLE = "Solution"
VARIABLES = x, y, u, v, psiu, psiv, t, stress
ZONE T="structure" N=561 E=512 F=FEBLOCK ET=QUADRILATERAL VARLOCATION=([7,8]=cellcentered)
0.000000e+00
6.250000e+00
1.250000e+01
1.875000e+01
2.500000e+01
3.125000e+01
3.750000e+01
4.375000e+01
5.000000e+01
5.625000e+01
6.250000e+01
6.875000e+01
7.500000e+01
8.125000e+01
8.750000e+01
9.375000e+01
1.000000e+02
1.062500e+02
1.125000e+02
1.187500e+02
1.250000e+02
1.312500e+02
1.375000e+02
1.437500e+02
1.500000e+02
1.562500e+02
1.625000e+02
1.687500e+02
1.750000e+02
1.812500e+02
1.875000e+02
1.937500e+02
2.000000e+02
0.000000e+00
6.250000e+00
1.250000e+01
1.875000e+01
2.500000e+01
3.125000e+01
3.750000e+01
4.375000e+01
5.000000e+01
5.625000e+01
6.250000e+01
6.875000e+01
7.500000e+01
8.125000e+01
8.750000e+01
9.375000e+01
1.000000e+02
1.062500e+02
1.125000e+02
1.187500e+02
1.250000e+02
1.312500e+02
1.375000e+02
1.437500e+02
1.500000e+02
1.562500e+02
1.625000e+02
1.687500e+02
1.750000e+02
1.812500e+02
1.875000e+02
1.937500e+02
2.000000e+02
0.000000e+00
6.250000e+00
1.250000e+01
1.875000e+01
2.500000e+01
3.125000e+01
3.750000e+01
4.375000e+01
5.000000e+01
5.625000e+01
6.250000e+01
6.875000e+01
7.500000e+01
8.125000e+01
8.750000e+01
9.375000e+01
1.000000e+02
1.062500e+02
1.125000e+02
1.187500e+02
1.250000e+02
1.312500e+02
1.375000e+02
1.437500e+02
1.500000e+02
1.562500e+02
1.625000e+02
1.687500e+02
1.750000e+02
1.812500e+02
1.875000e+02
1.937500e+02
2.000000e+02
0.000000e+00
6.250000e+00
1.250000e+01
1.875000e+01
2.500000e+01
3.125000e+01
3.750000e+01
4.375000e+01
5.000000e+01
5.625000e+01
6.250000e+01
6.875000e+01
7.500000e+01
8.125000e+01
8.750000e+01
9.375000e+01
1.000000e+02
1.062500e+02
1.125000e+02
1.187500e+02
1.250000e+02
1.312500e+02
1.375000e+02
1.437500e+02
1.500000e+02
1.562500e+02
1.625000e+02
1.687500e+02
1.750000e+02
1.812500e+02
1.875000e+02
1.937500e+02
2.000000e+02
0.000000e+00
6.250000e+00
1.250000e+01
1.875000e+01
2.500000e+01
3.125000e+01
3.750000e+01
4.375000e+01
5.000000e+01
5.625000e+01
6.250000e+01
6.875000e+01
7.500000e+01
8.125000e+01
8.750000e+01
9.375000e+01
1.000000e+02
1.062500e+02
1.125000e+02
1.187500e+02
1.250000e+02
1.312500e+02
1.375000e+02
1.437500e+02
1.500000e+02
1.562500e+02
1.625000e+02
1.687500e+02
1.750000e+02
1.812500e+02
1.875000e+02
1.937500e+02
2.000000e+02
0.000000e+00
6.250000e+00
1.250000e+01
1.875000e+01
2.500000e+01
3.125000e+01
3.750000e+01
4.375000e+01
5.000000e+01
5.625000e+01
6.250000e+01
6.875000e+01
7.500000e+01
8.125000e+01
8.750000e+01
9.375000e+01
1.000000e+02
1.062500e+02
1.125000e+02
1.187500e+02
1.250000e+02
1.312500e+02
1.375000e+02
1.437500e+02
1.500000e+02
1.562500e+02
1.625000e+02
1.687500e+02
1.750000e+02
1.812500e+02
1.875000e+02
1.937500e+02
2.000000e+02
0.000000e+00
6.250000e+00
1.250000e+01
1.875000e+01
2.500000e+01
3.125000e+01
3.750000e+01
4.375000e+01
5.000000e+01
5.625000e+01
6.250000e+01
6.875000e+01
7.500000e+01
8.125000e+01
8.750000e+01
9.375000e+01
1.000000e+02
1.062500e+02
1.125000e+02
1.187500e+02
1.250000e+02
1.312500e+02
1.375000e+02
1.437500e+02
1.500000e+02
1.562500e+02
1.625000e+02
1.687500e+02
1.750000e+02
1.812500e+02
1.875000e+02
1.937500e+02
2.000000e+02
0.000000e+00
6.250000e+00
1.250000e+01
1.875000e+01
2.500000e+01
3.125000e+01
3.750000e+01
4.375000e+01
5.000000e+01
5.625000e+01
6.250000e+01
6.875000e+01
7.500000e+01
8.125000e+01
8.750000e+01
9.375000e+01
1.000000e+02
1.062500e+02
1.125000e+02
1.187500e+02
1.250000e+02
1.312500e+02
1.375000e+02
1.437500e+02
1.500000e+02
1.562500e+02
1.625000e+02
1.687500e+02
1.750000e+02
1.812500e+02
1.875000e+02
1.937500e+02
2.000000e+02
0.000000e+00
6.250000e+00
1.250000e+01
1.875000e+01
2.500000e+01
3.125000e+01
3.750000e+01
4.375000e+01
5.000000e+01
5.625000e+01
6.250000e+01
6.875000e+01
7.500000e+01
8.125000e+01
8.750000e+01
9.375000e+01
1.000000e+02
1.062500e+02
1.125000e+02
1.187500e+02
1.250000e+02
1.312500e+02
1.375000e+02
1.437500e+02
1.500000e+02
1.562500e+02
1.625000e+02
1.687500e+02
1.750000e+02
1.812500e+02
1.875000e+02
1.937500e+02
2.000000e+02
0.000000e+00
6.250000e+00
1.250000e+01
1.875000e+01
2.500000e+01
3.125000e+01
3.750000e+01
4.375000e+01
5.000000e+01
5.625000e+01
6.250000e+01
6.875000e+01
7.500000e+01
8.125000e+01
8.750000e+01
9.375000e+01
1.000000e+02
1.062500e+02
1.125000e+02
1.187500e+02
1.250000e+02
1.312500e+02
1.375000e+02
1.437500e+02
1.500000e+02
1.562500e+02
1.625000e+02
1.687500e+02
1.750000e+02
1.812500e+02
1.875000e+02
1.937500e+02
2.000000e+02
0.000000e+00
6.250000e+00
1.250000e+01
1.875000e+01
2.500000e+01
3.125000e+01
3.750000e+01
4.375000e+01
5.000000e+01
5.625000e+01
6.250000e+01
6.875000e+01
7.500000e+01
8.125000e+01
8.750000e+01
9.375000e+01
1.000000e+02
1.062500e+02
1.125000e+02
1.187500e+02
1.250000e+02
1.312500e+02
1.375000e+02
1.437500e+02
1.500000e+02
1.562500e+02
1.625000e+02
1.687500e+02
1.750000e+02
1.812500e+02
1.875000e+02
1.937500e+02
2.000000e+02
0.000000e+00
6.250000e+00
1.250000e+01
1.875000e+01
2.500000e+01
3.125000e+01
3.750000e+01
4.375000e+01
5.000000e+01
5.625000e+01
6.250000e+01
6.875000e+01
7.500000e+01
8.125000e+01
8.750000e+01
9.375000e+01
1.000000e+02
1.062500e+02
1.125000e+02
1.187500e+02
1.250000e+02
1.312500e+02
1.375000e+02
1.437500e+02
1.500000e+02
1.562500e+02
1.625000e+02
1.687500e+02
1.750000e+02
1.812500e+02
1.875000e+02
1.937500e+02
2.000000e+02
0.000000e+00
6.250000e+00
1.250000e+01
1.875000e+01
2.500000e+01
3.125000e+01
3.750000e+01
4.375000e+01
5.000000e+01
5.625000e+01
6.250000e+01
6.875000e+01
7.500000e+01
8.125000e+01
8.750000e+01
9.375000e+01
1.000000e+02
1.062500e+02
1.125000e+02
1.187500e+02
1.250000e+02
1.312500e+02
1.375000e+02
1.437500e+02
1.500000e+02
1.562500e+02
1.625000e+02
1.687500e+02
1.750000e+02
1.812500e+02
1.875000e+02
1.937500e+02
2.000000e+02
0.000000e+00
6.250000e+00
1.250000e+01
1.875000e+01
2.500000e+01
3.125000e+01
3.750000e+01
4.375000e+01
5.000000e+01
5.625000e+01
6.250000e+01
6.875000e+01
7.500000e+01
8.125000e+01
8.750000e+01
9.375000e+01
1.000000e+02
1.062500e+02
1.125000e+02
1.187500e+02
1.250000e+02
1.312500e+02
1.375000e+02
1.437500e+02
1.500000e+02
1.562500e+02
1.625000e+02
1.687500e+02
1.750000e+02
1.812500e+02
1.875000e+02
1.937500e+02
2.000000e+02
0.000000e+00
6.250000e+00
1.250000e+01
1.875000e+01
2.500000e+01
3.125000e+01
3.750000e+01
4.375000e+01
5.000000e+01
5.625000e+01
6.250000e+01
6.875000e+01
7.500000e+01
8.125000e+01
8.750000e+01
9.375000e+01
1.000000e+02
1.062500e+02
1.125000e+02
1.187500e+02
1.250000e+02
1.312500e+02
1.375000e+02
1.437500e+02
1.500000e+02
1.562500e+02
1.625000e+02
1.687500e+02
1.750000e+02
1.812500e+02
1.875000e+02
1.937500e+02
2.000000e+02
0.000000e+00
6.250000e+00
1.250000e+01
1.875000e+01
2.500000e+01
3.125000e+01
3.750000e+01
4.375000e+01
5.000000e+01
5.625000e+01
6.250000e+01
6.875000e+01
7.500000e+01
8.125000e+01
8.750000e+01
9.375000e+01
1.000000e+02
1.062500e+02
1.125000e+02
1.187500e+02
1.250000e+02
1.312500e+02
1.375000e+02
1.437500e+02
1.500000e+02
1.562500e+02
1.625000e+02
1.687500e+02
1.750000e+02
1.812500e+02
1.875000e+02
1.937500e+02
2.000000e+02
0.000000e+00
6.250000e+00
1.250000e+01
1.875000e+01
2.500000e+01
3.125000e+01
3.750000e+01
4.375000e+01
5.000000e+01
5.625000e+01
6.250000e+01
6.875000e+01
7.500000e+01
8.125000e+01
8.750000e+01
9.375000e+01
1.000000e+02
1.062500e+02
1.125000e+02
1.187500e+02
1.250000e+02
1.312500e+02
1.375000e+02
1.437500e+02
1.500000e+02
1.562500e+02
1.625000e+02
1.687500e+02
1.750000e+02
1.812500e+02
1.875000e+02
1.937500e+02
2.000000e+02
0.000000e+00
0.000000e+00
0.000000e+00
0.000000e+00
0.000000e+00
0.000000e+00
0.000000e+00
0.000000e+00
0.000000e+00
0.000000e+00
0.000000e+00
0.000000e+00
0.000000e+00
0.000000e+00
0.000000e+00
0.000000e+00
0.000000e+00
0.000000e+00
0.000000e+00
0.000000e+00
0.000000e+00
0.000000e+00
0.000000e+00
0.000000e+00
0.000000e+00
0.000000e+00
0.000000e+00
0.000000e+00
0.000000e+00
0.000000e+00
0.000000e+00
0.000000e+00
0.000000e+00
6.250000e+00
6.250000e+00
6.250000e+00
6.250000e+00
6.250000e+00
6.250000e+00
6.250000e+00
6.250000e+00
6.250000e+00
6.250000e+00
6.250000e+00
6.250000e+00
6.250000e+00
6.250000e+00
6.250000e+00
6.250000e+00
6.250000e+00
6.250000e+00
6.250000e+00
6.250000e+00
6.250000e+00
6.250000e+00
6.250000e+00
6.250000e+00
6.250000e+00
6.250000e+00
6.250000e+00
6.250000e+00
6.250000e+00
6.250000e+00
6.250000e+00
6.250000e+00
6.250000e+00
1.250000e+01
1.250000e+01
1.250000e+01
1.250000e+01
1.250000e+01
1.250000e+01
1.250000e+01
1.250000e+01
1.250000e+01
1.250000e+01
1.250000e+01
1.250000e+01
1.250000e+01
1.250000e+01
1.250000e+01
1.250000e+01
1.250000e+01
1.250000e+01
1.250000e+01
1.250000e+01
1.250000e+01
1.250000e+01
1.250000e+01
1.250000e+01
1.250000e+01
1.250000e+01
1.250000e+01
1.250000e+01
1.250000e+01
1.250000e+01
1.250000e+01
1.250000e+01
1.250000e+01
1.875000e+01
1.875000e+01
1.875000e+01
1.875000e+01
1.875000e+01
1.875000e+01
1.875000e+01
1.875000e+01
1.875000e+01
1.875000e+01
1.875000e+01
1.875000e+01
1.875000e+01
1.875000e+01
1.875000e+01
1.875000e+01
1.875000e+01
1.875000e+01
1.875000e+01
1.875000e+01
1.875000e+01
1.875000e+01
1.875000e+01
1.875000e+01
1.875000e+01
1.875000e+01
1.875000e+01
1.875000e+01
1.875000e+01
1.875000e+01
1.875000e+01
1.875000e+01
1.875000e+01
2.500000e+01
2.500000e+01
2.500000e+01
2.500000e+01
2.500000e+01
2.500000e+01
2.500000e+01
2.500000e+01
2.500000e+01
2.500000e+01
2.500000e+01
2.500000e+01
2.500000e+01
2.500000e+01
2.500000e+01
2.500000e+01
2.500000e+01
2.500000e+01
2.500000e+01
2.500000e+01
2.500000e+01
2.500000e+01
2.500000e+01
2.500000e+01
2.500000e+01
2.500000e+01
2.500000e+01
2.500000e+01
2.500000e+01
2.500000e+01
2.500000e+01
2.500000e+01
2.500000e+01
3.125000e+01
3.125000e+01
3.125000e+01
3.125000e+01
3.125000e+01
3.125000e+01
3.125000e+01
3.125000e+01
3.125000e+01
3.125000e+01
3.125000e+01
3.125000e+01
3.125000e+01
3.125000e+01
3.125000e+01
3.125000e+01
3.125000e+01
3.125000e+01
3.125000e+01
3.125000e+01
3.125000e+01
3.125000e+01
3.125000e+01
3.125000e+01
3.125000e+01
3.125000e+01
3.125000e+01
3.125000e+01
3.125000e+01
3.125000e+01
3.125000e+01
3.125000e+01
3.125000e+01
3.750000e+01
3.750000e+01
3.750000e+01
3.750000e+01
3.750000e+01
3.750000e+01
3.750000e+01
3.750000e+01
3.750000e+01
3.750000e+01
3.750000e+01
3.750000e+01
3.750000e+01
3.750000e+01
3.750000e+01
3.750000e+01
3.750000e+01
3.750000e+01
3.750000e+01
3.750000e+01
3.750000e+01
3.750000e+01
3.750000e+01
3.750000e+01
3.750000e+01
3.750000e+01
3.750000e+01
3.750000e+01
3.750000e+01
3.750000e+01
3.750000e+01
3.750000e+01
3.750000e+01
4.375000e+01
4.375000e+01
4.375000e+01
4.375000e+01
4.375000e+01
4.375000e+01
4.375000e+01
4.375000e+01
4.375000e+01
4.375000e+01
4.375000e+01
4.375000e+01
4.375000e+01
4.375000e+01
4.375000e+01
4.375000e+01
4.375000e+01
4.375000e+01
4.375000e+01
4.375000e+01
4.375000e+01
4.375000e+01
4.375000e+01
4.375000e+01
4.375000e+01
4.375000e+01
4.375000e+01
4.375000e+01
4.375000e+01
4.375000e+01
4.375000e+01
4.375000e+01
4.375000e+01
5.000000e+01
5.000000e+01
5.000000e+01
5.000000e+01
5.000000e+01
5.000000e+01
5.000000e+01
5.000000e+01
5.000000e+01
5.000000e+01
5.000000e+01
5.000000e+01
5.000000e+01
5.000000e+01
5.000000e+01
5.000000e+01
5.000000e+01
5.000000e+01
5.000000e+01
5.000000e+01
5.000000e+01
5.000000e+01
5.000000e+01
5.000000e+01
5.000000e+01
5.000000e+01
5.000000e+01
5.000000e+01
5.000000e+01
5.000000e+01
5.000000e+01
5.000000e+01
5.000000e+01
5.625000e+01
5.625000e+01
5.625000e+01
5.625000e+01
5.625000e+01
5.625000e+01
5.625000e+01
5.625000e+01
5.625000e+01
5.625000e+01
5.625000e+01
5.625000e+01
5.625000e+01
5.625000e+01
5.625000e+01
5.625000e+01
5.625000e+01
5.625000e+01
5.625000e+01
5.625000e+01
5.625000e+01
5.625000e+01
5.625000e+01
5.625000e+01
5.625000e+01
5.625000e+01
5.625000e+01
5.625000e+01
5.625000e+01
5.625000e+01
5.625000e+01
5.625000e+01
5.625000e+01
6.250000e+01
6.250000e+01
6.250000e+01
6.250000e+01
6.250000e+01
6.250000e+01
6.250000e+01
6.250000e+01
6.250000e+01
6.250000e+01
6.250000e+01
6.250000e+01
6.250000e+01
6.250000e+01
6.250000e+01
6.250000e+01
6.250000e+01
6.250000e+01
6.250000e+01
6.250000e+01
6.250000e+01
6.250000e+01
6.250000e+01
6.250000e+01
6.250000e+01
6.250000e+01
6.250000e+01
6.250000e+01
6.250000e+01
6.250000e+01
6.250000e+01
6.250000e+01
6.250000e+01
6.875000e+01
6.875000e+01
6.875000e+01
6.875000e+01
6.875000e+01
6.875000e+01
6.875000e+01
6.875000e+01
6.875000e+01
6.875000e+01
6.875000e+01
6.875000e+01
6.875000e+01
6.875000e+01
6.875000e+01
6.875000e+01
6.875000e+01
6.875000e+01
6.875000e+01
6.875000e+01
6.875000e+01
6.875000e+01
6.875000e+01
6.875000e+01
6.875000e+01
6.875000e+01
6.875000e+01
6.875000e+01
6.875000e+01
6.875000e+01
6.875000e+01
6.875000e+01
6.875000e+01
7.500000e+01
7.500000e+01
7.500000e+01
7.500000e+01
7.500000e+01
7.500000e+01
7.500000e+01
7.500000e+01
7.500000e+01
7.500000e+01
7.500000e+01
7.500000e+01
7.500000e+01
7.500000e+01
7.500000e+01
7.500000e+01
7.500000e+01
7.500000e+01
7.500000e+01
7.500000e+01
7.500000e+01
7.500000e+01
7.500000e+01
7.500000e+01
7.500000e+01
7.500000e+01
7.500000e+01
7.500000e+01
7.500000e+01
7.500000e+01
7.500000e+01
7.500000e+01
7.500000e+01
8.125000e+01
8.125000e+01
8.125000e+01
8.125000e+01
8.125000e+01
8.125000e+01
8.125000e+01
8.125000e+01
8.125000e+01
8.125000e+01
8.125000e+01
8.125000e+01
8.125000e+01
8.125000e+01
8.125000e+01
8.125000e+01
8.125000e+01
8.125000e+01
8.125000e+01
8.125000e+01
8.125000e+01
8.125000e+01
8.125000e+01
8.125000e+01
8.125000e+01
8.125000e+01
8.125000e+01
8.125000e+01
8.125000e+01
8.125000e+01
8.125000e+01
8.125000e+01
8.125000e+01
8.750000e+01
8.750000e+01
8.750000e+01
8.750000e+01
8.750000e+01
8.750000e+01
8.750000e+01
8.750000e+01
8.750000e+01
8.750000e+01
8.750000e+01
8.750000e+01
8.750000e+01
8.750000e+01
8.750000e+01
8.750000e+01
8.750000e+01
8.750000e+01
8.750000e+01
8.750000e+01
8.750000e+01
8.750000e+01
8.750000e+01
8.750000e+01
8.750000e+01
8.750000e+01
8.750000e+01
8.750000e+01
8.750000e+01
8.750000e+01
8.750000e+01
8.750000e+01
8.750000e+01
9.375000e+01
9.375000e+01
9.375000e+01
9.375000e+01
9.375000e+01
9.375000e+01
9.375000e+01
9.375000e+01
9.375000e+01
9.375000e+01
9.375000e+01
9.375000e+01
9.375000e+01
9.375000e+01
9.375000e+01
9.375000e+01
9.375000e+01
9.375000e+01
9.375000e+01
9.375000e+01
9.375000e+01
9.375000e+01
9.375000e+01
9.375000e+01
9.375000e+01
9.375000e+01
9.375000e+01
9.375000e+01
9.375000e+01
9.375000e+01
9.375000e+01
9.375000e+01
9.375000e+01
1.000000e+02
1.000000e+02
1.000000e+02
1.000000e+02
1.000000e+02
1.000000e+02
1.000000e+02
1.000000e+02
1.000000e+02
1.000000e+02
1.000000e+02
1.000000e+02
1.000000e+02
1.000000e+02
1.000000e+02
1.000000e+02
1.000000e+02
1.000000e+02
1.000000e+02
1.000000e+02
1.000000e+02
1.000000e+02
1.000000e+02
1.000000e+02
1.000000e+02
1.000000e+02
1.000000e+02
1.000000e+02
1.000000e+02
1.000000e+02
1.000000e+02
1.000000e+02
1.000000e+02
0.000000e+00
-4.667926e-01
-7.777717e-01
-1.115831e+00
-1.418724e+00
-1.712825e+00
-2.022378e+00
-2.312201e+00
-2.613480e+00
-2.907636e+00
-3.206236e+00
-3.504744e+00
-3.803178e+00
-4.104410e+00
-4.403696e+00
-4.705632e+00
-5.006597e+00
-5.308259e+00
-5.610369e+00
-5.911637e+00
-6.214128e+00
-6.515568e+00
-6.817218e+00
-7.115723e+00
-7.413321e+00
-7.716497e+00
-8.020118e+00
-8.346953e+00
-8.670015e+00
-9.028754e+00
-9.509810e+00
-9.926168e+00
-1.013141e+01
0.000000e+00
-2.329382e-01
-4.717316e-01
-7.365501e-01
-1.002878e+00
-1.256163e+00
-1.525558e+00
-1.785954e+00
-2.048422e+00
-2.313410e+00
-2.573537e+00
-2.838597e+00
-3.099288e+00
-3.362490e+00
-3.624555e+00
-3.886145e+00
-4.148648e+00
-4.409855e+00
-4.671749e+00
-4.933080e+00
-5.194296e+00
-5.455255e+00
-5.716564e+00
-5.976682e+00
-6.238504e+00
-6.498770e+00
-6.759075e+00
-7.022391e+00
-7.277825e+00
-7.537329e+00
-7.786568e+00
-7.885945e+00
-7.991687e+00
0.000000e+00
-1.065182e-01
-2.460657e-01
-4.420714e-01
-6.586282e-01
-8.656738e-01
-1.092920e+00
-1.317852e+00
-1.543380e+00
-1.773939e+00
-1.996546e+00
-2.224783e+00
-2.447599e+00
-2.671922e+00
-2.895725e+00
-3.118146e+00
-3.341915e+00
-3.564503e+00
-3.787945e+00
-4.011636e+00
-4.235177e+00
-4.458965e+00
-4.683795e+00
-4.910161e+00
-5.137403e+00
-5.358479e+00
-5.570416e+00
-5.768297e+00
-5.947275e+00
-6.096257e+00
-6.180236e+00
-6.184977e+00
-6.277822e+00
0.000000e+00
-1.025007e-01
-1.876019e-01
-3.383092e-01
-4.615298e-01
-6.186286e-01
-7.949993e-01
-9.649963e-01
-1.154072e+00
-1.333150e+00
-1.518440e+00
-1.702123e+00
-1.886086e+00
-2.070915e+00
-2.255734e+00
-2.442116e+00
-2.628842e+00
-2.817447e+00
-3.007182e+00
-3.198271e+00
-3.390684e+00
-3.582835e+00
-3.775791e+00
-3.966690e+00
-4.150406e+00
-4.322608e+00
-4.473814e+00
-4.605490e+00
-4.706419e+00
-4.768253e+00
-4.782334e+00
-4.798751e+00
-4.879576e+00
0.000000e+00
-9.216408e-02
-1.828610e-01
-2.738055e-01
-3.853870e-01
-5.016361e-01
-6.332013e-01
-7.675497e-01
-9.106685e-01
-1.053465e+00
-1.198262e+00
-1.345089e+00
-1.489933e+00
-1.637698e+00
-1.784268e+00
-1.932281e+00
-2.080883e+00
-2.229849e+00
-2.379481e+00
-2.528732e+00
-2.677245e+00
-2.823469e+00
-2.966109e+00
-3.102270e+00
-3.229154e+00
-3.342499e+00
-3.438845e+00
-3.512599e+00
-3.560478e+00
-3.583236e+00
-3.584685e+00
-3.614340e+00
-3.686772e+00
0.000000e+00
-7.368700e-02
-1.446348e-01
-2.191858e-01
-3.000895e-01
-3.887777e-01
-4.832248e-01
-5.841976e-01
-6.878531e-01
-7.950471e-01
-9.028996e-01
-1.011405e+00
-1.120538e+00
-1.229217e+00
-1.338422e+00
-1.447349e+00
-1.556297e+00
-1.664922e+00
-1.772732e+00
-1.879146e+00
-1.983096e+00
-2.083262e+00
-2.177756e+00
-2.264629e+00
-2.341402e+00
-2.405974e+00
-2.456311e+00
-2.490438e+00
-2.509931e+00
-2.507964e+00
-2.503452e+00
-2.530917e+00
-2.597729e+00
0.000000e+00
-5.079664e-02
-1.011023e-01
-1.525883e-01
-2.075694e-01
-2.664522e-01
-3.294793e-01
-3.956998e-01
-4.646289e-01
-5.350880e-01
-6.064768e-01
-6.781318e-01
-7.496987e-01
-8.210767e-01
-8.920255e-01
-9.625464e-01
-1.032369e+00
-1.101226e+00
-1.168645e+00
-1.233927e+00
-1.296097e+00
-1.353819e+00
-1.405631e+00
-1.449872e+00
-1.484960e+00
-1.508812e+00
-1.521250e+00
-1.523312e+00
-1.505970e+00
-1.477201e+00
-1.466723e+00
-1.492201e+00
-1.558034e+00
0.000000e+00
-2.675017e-02
-5.337234e-02
-8.057481e-02
-1.090644e-01
-1.393059e-01
-1.712308e-01
-2.046390e-01
-2.390583e-01
-2.740934e-01
-3.092764e-01
-3.442879e-01
-3.788826e-01
-4.128776e-01
-4.461679e-01
-4.785850e-01
-5.099175e-01
-5.398549e-01
-5.680391e-01
-5.939712e-01
-6.168672e-01
-6.356541e-01
-6.490638e-01
-6.562042e-01
-6.556684e-01
-6.472964e-01
-6.287873e-01
-5.906060e-01
-5.422165e-01
-4.936234e-01
-4.709096e-01
-4.962015e-01
-5.643065e-01
0.000000e+00
-1.916802e-03
-3.883579e-03
-5.820955e-03
-7.638466e-03
-9.235212e-03
-1.052417e-02
-1.142913e-02
-1.189617e-02
-1.186412e-02
-1.127621e-02
-1.005111e-02
-8.076468e-03
-5.207912e-03
-1.308301e-03
3.779410e-03
1.031971e-02
1.859649e-02
2.877049e-02
4.094039e-02
5.544403e-02
7.304067e-02
9.463693e-02
1.217882e-01
1.540183e-01
1.948234e-01
2.519747e-01
3.217745e-01
3.924522e-01
4.415033e-01
4.557219e-01
4.235403e-01
3.473229e-01
0.000000e+00
2.303662e-02
4.585897e-02
6.933250e-02
9.435998e-02
1.216026e-01
1.511748e-01
1.829642e-01
2.165917e-01
2.516827e-01
2.878630e-01
3.249107e-01
3.628239e-01
4.017762e-01
4.420383e-01
4.839088e-01
5.277414e-01
5.737218e-01
6.217844e-01
6.716628e-01
7.230281e-01
7.761539e-01
8.318394e-01
8.908368e-01
9.593982e-01
1.041596e+00
1.129296e+00
1.217433e+00
1.289969e+00
1.332859e+00
1.332045e+00
1.289879e+00
1.227887e+00
0.000000e+00
4.741090e-02
9.429237e-02
1.424761e-01
1.945055e-01
2.510521e-01
3.124077e-01
3.777759e-01
4.464481e-01
5.172890e-01
5.894580e-01
6.623254e-01
7.356422e-01
8.097148e-01
8.850960e-01
9.627730e-01
1.043220e+00
1.126180e+00
1.211252e+00
1.298465e+00
1.387758e+00
1.478828e+00
1.571968e+00
1.672842e+00
1.779643e+00
1.890122e+00
1.998111e+00
2.087474e+00
2.151697e+00
2.180100e+00
2.174211e+00
2.144252e+00
2.100151e+00
0.000000e+00
7.071354e-02
1.387465e-01
2.106829e-01
2.895064e-01
3.770051e-01
4.713185e-01
5.725210e-01
6.776311e-01
7.860362e-01
8.957146e-01
1.006054e+00
1.117056e+00
1.228082e+00
1.340042e+00
1.453267e+00
1.568866e+00
1.686249e+00
1.805406e+00
1.927608e+00
2.055117e+00
2.190874e+00
2.331983e+00
2.472264e+00
2.608118e+00
2.735005e+00
2.847047e+00
2.936959e+00
2.994492e+00
3.023789e+00
3.027514e+00
3.009642e+00
2.981865e+00
0.000000e+00
8.953107e-02
1.775386e-01
2.665949e-01
3.776487e-01
4.950788e-01
6.273596e-01
7.657928e-01
9.102175e-01
1.056747e+00
1.204033e+00
1.353273e+00
1.502353e+00
1.654707e+00
1.807459e+00
1.963514e+00
2.121931e+00
2.282828e+00
2.446847e+00
2.612243e+00
2.780547e+00
2.950504e+00
3.118919e+00
3.282622e+00
3.435983e+00
3.575347e+00
3.694260e+00
3.787097e+00
3.854667e+00
3.894402e+00
3.907736e+00
3.901287e+00
3.886684e+00
0.000000e+00
9.967763e-02
1.822464e-01
3.303498e-01
4.539809e-01
6.134590e-01
7.940022e-01
9.674890e-01
1.161225e+00
1.342552e+00
1.529722e+00
1.713530e+00
1.899160e+00
2.089455e+00
2.283896e+00
2.483435e+00
2.685609e+00
2.891227e+00
3.100744e+00
3.312625e+00
3.522063e+00
3.725412e+00
3.919499e+00
4.103651e+00
4.278742e+00
4.436303e+00
4.571419e+00
4.678273e+00
4.755188e+00
4.803436e+00
4.825919e+00
4.828841e+00
4.824069e+00
0.000000e+00
1.051575e-01
2.415586e-01
4.322253e-01
6.463596e-01
8.519103e-01
1.080339e+00
1.308502e+00
1.537302e+00
1.771757e+00
1.997272e+00
2.225723e+00
2.449439e+00
2.676104e+00
2.905349e+00
3.136238e+00
3.368093e+00
3.598880e+00
3.831173e+00
4.064184e+00
4.297437e+00
4.525346e+00
4.746900e+00
4.966157e+00
5.174572e+00
5.358629e+00
5.508430e+00
5.623784e+00
5.706668e+00
5.759888e+00
5.787831e+00
5.796985e+00
5.798112e+00
0.000000e+00
2.335720e-01
4.729191e-01
7.373447e-01
1.003212e+00
1.256097e+00
1.524798e+00
1.784972e+00
2.046960e+00
2.311355e+00
2.571222e+00
2.835150e+00
3.095019e+00
3.356608e+00
3.616873e+00
3.876514e+00
4.136335e+00
4.393970e+00
4.651354e+00
4.906451e+00
5.160984e+00
5.414557e+00
5.668442e+00
5.924554e+00
6.162810e+00
6.362552e+00
6.520415e+00
6.637858e+00
6.718601e+00
6.768152e+00
6.793491e+00
6.802678e+00
6.804936e+00
0.000000e+00
4.677566e-01
7.825333e-01
1.124875e+00
1.431206e+00
1.726528e+00
2.036230e+00
2.323670e+00
2.622462e+00
2.913300e+00
3.208741e+00
3.506105e+00
3.802532e+00
4.099847e+00
4.392378e+00
4.683417e+00
4.973301e+00
5.263100e+00
5.551895e+00
5.840170e+00
6.126146e+00
6.415336e+00
6.706652e+00
6.996583e+00
7.256878e+00
7.467183e+00
7.625974e+00
7.735585e+00
7.800970e+00
7.830339e+00
7.835476e+00
7.830819e+00
7.828244e+00
0.000000e+00
-2.772368e-01
-5.829228e-01
-9.724777e-01
-1.398283e+00
-1.862544e+00
-2.367244e+00
-2.903025e+00
-3.475684e+00
-4.081029e+00
-4.721417e+00
-5.398302e+00
-6.110870e+00
-6.861944e+00
-7.650116e+00
-8.477079e+00
-9.342617e+00
-1.024688e+01
-1.119052e+01
-1.217313e+01
-1.319537e+01
-1.425768e+01
-1.536028e+01
-1.650286e+01
-1.768438e+01
-1.890591e+01
-2.017211e+01
-2.149114e+01
-2.287161e+01
-2.433297e+01
-2.589197e+01
-2.770145e+01
-3.024412e+01
0.000000e+00
-1.783641e-01
-5.025740e-01
-8.848047e-01
-1.316823e+00
-1.778139e+00
-2.282918e+00
-2.820180e+00
-3.391326e+00
-3.997829e+00
-4.637166e+00
-5.314592e+00
-6.026875e+00
-6.777844e+00
-7.566273e+00
-8.392905e+00
-9.258681e+00
-1.016280e+01
-1.110648e+01
-1.208914e+01
-1.311127e+01
-1.417347e+01
-1.527625e+01
-1.641900e+01
-1.760046e+01
-1.882168e+01
-2.008623e+01
-2.140409e+01
-2.278464e+01
-2.423823e+01
-2.581699e+01
-2.761270e+01
-2.986777e+01
0.000000e+00
-1.561857e-01
-4.442307e-01
-8.278641e-01
-1.250020e+00
-1.709195e+00
-2.212373e+00
-2.747817e+00
-3.319564e+00
-3.925344e+00
-4.565301e+00
-5.242629e+00
-5.955576e+00
-6.706388e+00
-7.495264e+00
-8.321988e+00
-9.187744e+00
-1.009211e+01
-1.103557e+01
-1.201835e+01
-1.304046e+01
-1.410210e+01
-1.520435e+01
-1.634646e+01
-1.752882e+01
-1.875223e+01
-2.001899e+01
-2.134131e+01
-2.272624e+01
-2.420031e+01
-2.582065e+01
-2.750721e+01
-2.925862e+01
0.000000e+00
-1.984607e-01
-4.435313e-01
-8.217516e-01
-1.213711e+00
-1.663495e+00
-2.164458e+00
-2.689799e+00
-3.264983e+00
-3.866852e+00
-4.508095e+00
-5.185541e+00
-5.898290e+00
-6.649993e+00
-7.438421e+00
-8.265683e+00
-9.131148e+00
-1.003555e+01
-1.097891e+01
-1.196150e+01
-1.298387e+01
-1.404505e+01
-1.514697e+01
-1.628960e+01
-1.747410e+01
-1.870273e+01
-1.997560e+01
-2.130483e+01
-2.269912e+01
-2.419115e+01
-2.580495e+01
-2.735582e+01
-2.875756e+01
0.000000e+00
-2.155299e-01
-4.796075e-01
-8.189530e-01
-1.211273e+00
-1.643839e+00
-2.135428e+00
-2.655571e+00
-3.225637e+00
-3.827318e+00
-4.466792e+00
-5.145524e+00
-5.857594e+00
-6.610383e+00
-7.398677e+00
-8.226085e+00
-9.091708e+00
-9.995840e+00
-1.093940e+01
-1.192201e+01
-1.294470e+01
-1.400668e+01
-1.510965e+01
-1.625418e+01
-1.744193e+01
-1.867438e+01
-1.995422e+01
-2.128781e+01
-2.268419e+01
-2.416961e+01
-2.570748e+01
-2.715390e+01
-2.841774e+01
0.000000e+00
-2.228071e-01
-4.955086e-01
-8.246191e-01
-1.206430e+00
-1.636702e+00
-2.114703e+00
-2.635297e+00
-3.197819e+00
-3.799498e+00
-4.438662e+00
-5.116065e+00
-5.830274e+00
-6.582181e+00
-7.371789e+00
-8.199277e+00
-9.065313e+00
-9.970086e+00
-1.091418e+01
-1.189798e+01
-1.292187e+01
-1.398616e+01
-1.509158e+01
-1.623905e+01
-1.742955e+01
-1.866421e+01
-1.994616e+01
-2.127963e+01
-2.266379e+01
-2.411026e+01
-2.555348e+01
-2.692011e+01
-2.811897e+01
0.000000e+00
-2.265443e-01
-5.015975e-01
-8.278228e-01
-1.204883e+00
-1.630953e+00
-2.103998e+00
-2.621545e+00
-3.181500e+00
-3.781790e+00
-4.421056e+00
-5.098407e+00
-5.813422e+00
-6.565989e+00
-7.356236e+00
-8.184504e+00
-9.051221e+00
-9.956927e+00
-1.090217e+01
-1.188752e+01
-1.291347e+01
-1.398038e+01
-1.508865e+01
-1.623879e+01
-1.743142e+01
-1.866648e+01
-1.994454e+01
-2.127326e+01
-2.262714e+01
-2.402216e+01
-2.539727e+01
-2.669485e+01
-2.783218e+01
0.000000e+00
-2.279398e-01
-5.038812e-01
-8.292814e-01
-1.204379e+00
-1.628221e+00
-2.099151e+00
-2.615140e+00
-3.174109e+00
-3.774154e+00
-4.413718e+00
-5.091755e+00
-5.807625e+00
-6.561081e+00
-7.352186e+00
-8.181290e+00
-9.048928e+00
-9.955673e+00
-1.090216e+01
-1.188910e+01
-1.291710e+01
-1.398650e+01
-1.509712e+01
-1.624912e+01
-1.744241e+01
-1.867687e+01
-1.994636e+01
-2.125615e+01
-2.257664e+01
-2.391851e+01
-2.524269e+01
-2.648078e+01
-2.756126e+01
0.000000e+00
-2.282144e-01
-5.044330e-01
-8.298206e-01
-1.204693e+00
-1.628332e+00
-2.099236e+00
-2.615476e+00
-3.175004e+00
-3.775882e+00
-4.416493e+00
-5.095668e+00
-5.812701e+00
-6.567237e+00
-7.359280e+00
-8.189272e+00
-9.057881e+00
-9.965671e+00
-1.091319e+01
-1.190125e+01
-1.293076e+01
-1.400197e+01
-1.511432e+01
-1.626648e+01
-1.745969e+01
-1.868861e+01
-1.994324e+01
-2.122496e+01
-2.252048e+01
-2.381192e+01
-2.507706e+01
-2.624220e+01
-2.723946e+01
0.000000e+00
-2.277273e-01
-5.038130e-01
-8.297587e-01
-1.205868e+00
-1.631207e+00
-2.104071e+00
-2.622369e+00
-3.183933e+00
-3.786746e+00
-4.429103e+00
-5.109836e+00
-5.828284e+00
-6.584079e+00
-7.377100e+00
-8.207959e+00
-9.077636e+00
-9.986484e+00
-1.093471e+01
-1.192306e+01
-1.295293e+01
-1.402501e+01
-1.513729e+01
-1.629001e+01
-1.747593e+01
-1.869329e+01
-1.993155e+01
-2.119017e+01
-2.245692e+01
-2.371048e+01
-2.491391e+01
-2.601560e+01
-2.697545e+01
0.000000e+00
-2.261589e-01
-5.014935e-01
-8.287990e-01
-1.207929e+00
-1.637046e+00
-2.113999e+00
-2.636155e+00
-3.201196e+00
-3.806877e+00
-4.451497e+00
-5.133940e+00
-5.853844e+00
-6.610935e+00
-7.404946e+00
-8.236835e+00
-9.107828e+00
-1.001780e+01
-1.096640e+01
-1.195431e+01
-1.298273e+01
-1.405420e+01
-1.516427e+01
-1.631122e+01
-1.748694e+01
-1.869043e+01
-1.991732e+01
-2.115509e+01
-2.239506e+01
-2.360944e+01
-2.476748e+01
-2.583592e+01
-2.678339e+01
0.000000e+00
-2.222795e-01
-4.954137e-01
-8.261203e-01
-1.211129e+00
-1.646334e+00
-2.130060e+00
-2.657782e+00
-3.227652e+00
-3.836993e+00
-4.483896e+00
-5.168100e+00
-5.888957e+00
-6.647064e+00
-7.442050e+00
-8.275327e+00
-9.147930e+00
-1.005845e+01
-1.100701e+01
-1.199356e+01
-1.301947e+01
-1.408671e+01
-1.519052e+01
-1.632803e+01
-1.749488e+01
-1.868850e+01
-1.990400e+01
-2.112823e+01
-2.234132e+01
-2.352586e+01
-2.465470e+01
-2.570646e+01
-2.665709e+01
0.000000e+00
-2.147166e-01
-4.794251e-01
-8.210431e-01
-1.217749e+00
-1.658085e+00
-2.156180e+00
-2.687431e+00
-3.265388e+00
-3.877505e+00
-4.526354e+00
-5.212862e+00
-5.933307e+00
-6.693351e+00
-7.488965e+00
-8.324489e+00
-9.197867e+00
-1.010751e+01
-1.105457e+01
-1.203808e+01
-1.306040e+01
-1.412088e+01
-1.521621e+01
-1.634512e+01
-1.750568e+01
-1.869477e+01
-1.990321e+01
-2.111298e+01
-2.230596e+01
-2.346572e+01
-2.457569e+01
-2.562026e+01
-2.658521e+01
0.000000e+00
-1.968350e-01
-4.426445e-01
-8.240672e-01
-1.222663e+00
-1.681456e+00
-2.193093e+00
-2.729352e+00
-3.315606e+00
-3.927714e+00
-4.579260e+00
-5.265365e+00
-5.987543e+00
-6.748846e+00
-7.547030e+00
-8.383993e+00
-9.256899e+00
-1.016521e+01
-1.110943e+01
-1.208952e+01
-1.310634e+01
-1.415899e+01
-1.524576e+01
-1.636873e+01
-1.752965e+01
-1.871757e+01
-1.991889e+01
-2.111333e+01
-2.228810e+01
-2.342948e+01
-2.452590e+01
-2.556889e+01
-2.655408e+01
0.000000e+00
-1.534625e-01
-4.416845e-01
-8.287003e-01
-1.259071e+00
-1.728817e+00
-2.244603e+00
-2.792076e+00
-3.375505e+00
-3.991373e+00
-4.640714e+00
-5.326992e+00
-6.050197e+00
-6.812508e+00
-7.612863e+00
-8.449564e+00
-9.321949e+00
-1.022908e+01
-1.117178e+01
-1.214913e+01
-1.316109e+01
-1.420700e+01
-1.528795e+01
-1.641129e+01
-1.757334e+01
-1.875762e+01
-1.994653e+01
-2.112700e+01
-2.228653e+01
-2.341376e+01
-2.450017e+01
-2.554314e+01
-2.654877e+01
0.000000e+00
-1.753837e-01
-4.994410e-01
-8.853230e-01
-1.325714e+00
-1.798396e+00
-2.316003e+00
-2.866085e+00
-3.448684e+00
-4.065521e+00
-4.713614e+00
-5.399990e+00
-6.122965e+00
-6.885930e+00
-7.686470e+00
-8.522764e+00
-9.394280e+00
-1.030039e+01
-1.124207e+01
-1.221796e+01
-1.322766e+01
-1.427094e+01
-1.535196e+01
-1.647574e+01
-1.763323e+01
-1.880669e+01
-1.998278e+01
-2.115014e+01
-2.229710e+01
-2.341323e+01
-2.449182e+01
-2.553387e+01
-2.655348e+01
0.000000e+00
-2.748160e-01
-5.805551e-01
-9.736297e-01
-1.407559e+00
-1.882939e+00
-2.400239e+00
-2.948639e+00
-3.532747e+00
-4.148316e+00
-4.797601e+00
-5.483615e+00
-6.206666e+00
-6.969355e+00
-7.769052e+00
-8.605061e+00
-9.475939e+00
-1.038169e+01
-1.132256e+01
-1.229790e+01
-1.330701e+01
-1.435086e+01