TITLE = "Solution"
VARIABLES = x, y, u, v, psiu, psiv, t, stress
ZONE T="structure" N=561 E=512 F=FEBLOCK ET=QUADRILATERAL VARLOCATION=([7,8]=cellcentered)
0.000000e+00
6.250000e+00
1.250000e+01
1.875000e+01
2.500000e+01
3.125000e+01
3.750000e+01
4.375000e+01
5.000000e+01
5.625000e+01
6.250000e+01
6.875000e+01
7.500000e+01
8.125000e+01
8.750000e+01
9.375000e+01
1.000000e+02
1.062500e+02
1.125000e+02
1.187500e+02
1.250000e+02
1.312500e+02
1.375000e+02
1.437500e+02
1.500000e+02
1.562500e+02
1.625000e+02
1.687500e+02
1.750000e+02
1.812500e+02
1.875000e+02
1.937500e+02
2.000000e+02
0.000000e+00
6.250000e+00
1.250000e+01
1.875000e+01
2.500000e+01
3.125000e+01
3.750000e+01
4.375000e+01
5.000000e+01
5.625000e+01
6.250000e+01
6.875000e+01
7.500000e+01
8.125000e+01
8.750000e+01
9.375000e+01
1.000000e+02
1.062500e+02
1.125000e+02
1.187500e+02
1.250000e+02
1.312500e+02
1.375000e+02
1.437500e+02
1.500000e+02
1.562500e+02
1.625000e+02
1.687500e+02
1.750000e+02
1.812500e+02
1.875000e+02
1.937500e+02
2.000000e+02
0.000000e+00
6.250000e+00
1.250000e+01
1.875000e+01
2.500000e+01
3.125000e+01
3.750000e+01
4.375000e+01
5.000000e+01
5.625000e+01
6.250000e+01
6.875000e+01
7.500000e+01
8.125000e+01
8.750000e+01
9.375000e+01
1.000000e+02
1.062500e+02
1.125000e+02
1.187500e+02
1.250000e+02
1.312500e+02
1.375000e+02
1.437500e+02
1.500000e+02
1.562500e+02
1.625000e+02
1.687500e+02
1.750000e+02
1.812500e+02
1.875000e+02
1.937500e+02
2.000000e+02
0.000000e+00
6.250000e+00
1.250000e+01
1.875000e+01
2.500000e+01
3.125000e+01
3.750000e+01
4.375000e+01
5.000000e+01
5.625000e+01
6.250000e+01
6.875000e+01
7.500000e+01
8.125000e+01
8.750000e+01
9.375000e+01
1.000000e+02
1.062500e+02
1.125000e+02
1.187500e+02
1.250000e+02
1.312500e+02
1.375000e+02
1.437500e+02
1.500000e+02
1.562500e+02
1.625000e+02
1.687500e+02
1.750000e+02
1.812500e+02
1.875000e+02
1.937500e+02
2.000000e+02
0.000000e+00
6.250000e+00
1.250000e+01
1.875000e+01
2.500000e+01
3.125000e+01
3.750000e+01
4.375000e+01
5.000000e+01
5.625000e+01
6.250000e+01
6.875000e+01
7.500000e+01
8.125000e+01
8.750000e+01
9.375000e+01
1.000000e+02
1.062500e+02
1.125000e+02
1.187500e+02
1.250000e+02
1.312500e+02
1.375000e+02
1.437500e+02
1.500000e+02
1.562500e+02
1.625000e+02
1.687500e+02
1.750000e+02
1.812500e+02
1.875000e+02
1.937500e+02
2.000000e+02
0.000000e+00
6.250000e+00
1.250000e+01
1.875000e+01
2.500000e+01
3.125000e+01
3.750000e+01
4.375000e+01
5.000000e+01
5.625000e+01
6.250000e+01
6.875000e+01
7.500000e+01
8.125000e+01
8.750000e+01
9.375000e+01
1.000000e+02
1.062500e+02
1.125000e+02
1.187500e+02
1.250000e+02
1.312500e+02
1.375000e+02
1.437500e+02
1.500000e+02
1.562500e+02
1.625000e+02
1.687500e+02
1.750000e+02
1.812500e+02
1.875000e+02
1.937500e+02
2.000000e+02
0.000000e+00
6.250000e+00
1.250000e+01
1.875000e+01
2.500000e+01
3.125000e+01
3.750000e+01
4.375000e+01
5.000000e+01
5.625000e+01
6.250000e+01
6.875000e+01
7.500000e+01
8.125000e+01
8.750000e+01
9.375000e+01
1.000000e+02
1.062500e+02
1.125000e+02
1.187500e+02
1.250000e+02
1.312500e+02
1.375000e+02
1.437500e+02
1.500000e+02
1.562500e+02
1.625000e+02
1.687500e+02
1.750000e+02
1.812500e+02
1.875000e+02
1.937500e+02
2.000000e+02
0.000000e+00
6.250000e+00
1.250000e+01
1.875000e+01
2.500000e+01
3.125000e+01
3.750000e+01
4.375000e+01
5.000000e+01
5.625000e+01
6.250000e+01
6.875000e+01
7.500000e+01
8.125000e+01
8.750000e+01
9.375000e+01
1.000000e+02
1.062500e+02
1.125000e+02
1.187500e+02
1.250000e+02
1.312500e+02
1.375000e+02
1.437500e+02
1.500000e+02
1.562500e+02
1.625000e+02
1.687500e+02
1.750000e+02
1.812500e+02
1.875000e+02
1.937500e+02
2.000000e+02
0.000000e+00
6.250000e+00
1.250000e+01
1.875000e+01
2.500000e+01
3.125000e+01
3.750000e+01
4.375000e+01
5.000000e+01
5.625000e+01
6.250000e+01
6.875000e+01
7.500000e+01
8.125000e+01
8.750000e+01
9.375000e+01
1.000000e+02
1.062500e+02
1.125000e+02
1.187500e+02
1.250000e+02
1.312500e+02
1.375000e+02
1.437500e+02
1.500000e+02
1.562500e+02
1.625000e+02
1.687500e+02
1.750000e+02
1.812500e+02
1.875000e+02
1.937500e+02
2.000000e+02
0.000000e+00
6.250000e+00
1.250000e+01
1.875000e+01
2.500000e+01
3.125000e+01
3.750000e+01
4.375000e+01
5.000000e+01
5.625000e+01
6.250000e+01
6.875000e+01
7.500000e+01
8.125000e+01
8.750000e+01
9.375000e+01
1.000000e+02
1.062500e+02
1.125000e+02
1.187500e+02
1.250000e+02
1.312500e+02
1.375000e+02
1.437500e+02
1.500000e+02
1.562500e+02
1.625000e+02
1.687500e+02
1.750000e+02
1.812500e+02
1.875000e+02
1.937500e+02
2.000000e+02
0.000000e+00
6.250000e+00
1.250000e+01
1.875000e+01
2.500000e+01
3.125000e+01
3.750000e+01
4.375000e+01
5.000000e+01
5.625000e+01
6.250000e+01
6.875000e+01
7.500000e+01
8.125000e+01
8.750000e+01
9.375000e+01
1.000000e+02
1.062500e+02
1.125000e+02
1.187500e+02
1.250000e+02
1.312500e+02
1.375000e+02
1.437500e+02
1.500000e+02
1.562500e+02
1.625000e+02
1.687500e+02
1.750000e+02
1.812500e+02
1.875000e+02
1.937500e+02
2.000000e+02
0.000000e+00
6.250000e+00
1.250000e+01
1.875000e+01
2.500000e+01
3.125000e+01
3.750000e+01
4.375000e+01
5.000000e+01
5.625000e+01
6.250000e+01
6.875000e+01
7.500000e+01
8.125000e+01
8.750000e+01
9.375000e+01
1.000000e+02
1.062500e+02
1.125000e+02
1.187500e+02
1.250000e+02
1.312500e+02
1.375000e+02
1.437500e+02
1.500000e+02
1.562500e+02
1.625000e+02
1.687500e+02
1.750000e+02
1.812500e+02
1.875000e+02
1.937500e+02
2.000000e+02
0.000000e+00
6.250000e+00
1.250000e+01
1.875000e+01
2.500000e+01
3.125000e+01
3.750000e+01
4.375000e+01
5.000000e+01
5.625000e+01
6.250000e+01
6.875000e+01
7.500000e+01
8.125000e+01
8.750000e+01
9.375000e+01
1.000000e+02
1.062500e+02
1.125000e+02
1.187500e+02
1.250000e+02
1.312500e+02
1.375000e+02
1.437500e+02
1.500000e+02
1.562500e+02
1.625000e+02
1.687500e+02
1.750000e+02
1.812500e+02
1.875000e+02
1.937500e+02
2.000000e+02
0.000000e+00
6.250000e+00
1.250000e+01
1.875000e+01
2.500000e+01
3.125000e+01
3.750000e+01
4.375000e+01
5.000000e+01
5.625000e+01
6.250000e+01
6.875000e+01
7.500000e+01
8.125000e+01
8.750000e+01
9.375000e+01
1.000000e+02
1.062500e+02
1.125000e+02
1.187500e+02
1.250000e+02
1.312500e+02
1.375000e+02
1.437500e+02
1.500000e+02
1.562500e+02
1.625000e+02
1.687500e+02
1.750000e+02
1.812500e+02
1.875000e+02
1.937500e+02
2.000000e+02
0.000000e+00
6.250000e+00
1.250000e+01
1.875000e+01
2.500000e+01
3.125000e+01
3.750000e+01
4.375000e+01
5.000000e+01
5.625000e+01
6.250000e+01
6.875000e+01
7.500000e+01
8.125000e+01
8.750000e+01
9.375000e+01
1.000000e+02
1.062500e+02
1.125000e+02
1.187500e+02
1.250000e+02
1.312500e+02
1.375000e+02
1.437500e+02
1.500000e+02
1.562500e+02
1.625000e+02
1.687500e+02
1.750000e+02
1.812500e+02
1.875000e+02
1.937500e+02
2.000000e+02
0.000000e+00
6.250000e+00
1.250000e+01
1.875000e+01
2.500000e+01
3.125000e+01
3.750000e+01
4.375000e+01
5.000000e+01
5.625000e+01
6.250000e+01
6.875000e+01
7.500000e+01
8.125000e+01
8.750000e+01
9.375000e+01
1.000000e+02
1.062500e+02
1.125000e+02
1.187500e+02
1.250000e+02
1.312500e+02
1.375000e+02
1.437500e+02
1.500000e+02
1.562500e+02
1.625000e+02
1.687500e+02
1.750000e+02
1.812500e+02
1.875000e+02
1.937500e+02
2.000000e+02
0.000000e+00
6.250000e+00
1.250000e+01
1.875000e+01
2.500000e+01
3.125000e+01
3.750000e+01
4.375000e+01
5.000000e+01
5.625000e+01
6.250000e+01
6.875000e+01
7.500000e+01
8.125000e+01
8.750000e+01
9.375000e+01
1.000000e+02
1.062500e+02
1.125000e+02
1.187500e+02
1.250000e+02
1.312500e+02
1.375000e+02
1.437500e+02
1.500000e+02
1.562500e+02
1.625000e+02
1.687500e+02
1.750000e+02
1.812500e+02
1.875000e+02
1.937500e+02
2.000000e+02
0.000000e+00
0.000000e+00
0.000000e+00
0.000000e+00
0.000000e+00
0.000000e+00
0.000000e+00
0.000000e+00
0.000000e+00
0.000000e+00
0.000000e+00
0.000000e+00
0.000000e+00
0.000000e+00
0.000000e+00
0.000000e+00
0.000000e+00
0.000000e+00
0.000000e+00
0.000000e+00
0.000000e+00
0.000000e+00
0.000000e+00
0.000000e+00
0.000000e+00
0.000000e+00
0.000000e+00
0.000000e+00
0.000000e+00
0.000000e+00
0.000000e+00
0.000000e+00
0.000000e+00
6.250000e+00
6.250000e+00
6.250000e+00
6.250000e+00
6.250000e+00
6.250000e+00
6.250000e+00
6.250000e+00
6.250000e+00
6.250000e+00
6.250000e+00
6.250000e+00
6.250000e+00
6.250000e+00
6.250000e+00
6.250000e+00
6.250000e+00
6.250000e+00
6.250000e+00
6.250000e+00
6.250000e+00
6.250000e+00
6.250000e+00
6.250000e+00
6.250000e+00
6.250000e+00
6.250000e+00
6.250000e+00
6.250000e+00
6.250000e+00
6.250000e+00
6.250000e+00
6.250000e+00
1.250000e+01
1.250000e+01
1.250000e+01
1.250000e+01
1.250000e+01
1.250000e+01
1.250000e+01
1.250000e+01
1.250000e+01
1.250000e+01
1.250000e+01
1.250000e+01
1.250000e+01
1.250000e+01
1.250000e+01
1.250000e+01
1.250000e+01
1.250000e+01
1.250000e+01
1.250000e+01
1.250000e+01
1.250000e+01
1.250000e+01
1.250000e+01
1.250000e+01
1.250000e+01
1.250000e+01
1.250000e+01
1.250000e+01
1.250000e+01
1.250000e+01
1.250000e+01
1.250000e+01
1.875000e+01
1.875000e+01
1.875000e+01
1.875000e+01
1.875000e+01
1.875000e+01
1.875000e+01
1.875000e+01
1.875000e+01
1.875000e+01
1.875000e+01
1.875000e+01
1.875000e+01
1.875000e+01
1.875000e+01
1.875000e+01
1.875000e+01
1.875000e+01
1.875000e+01
1.875000e+01
1.875000e+01
1.875000e+01
1.875000e+01
1.875000e+01
1.875000e+01
1.875000e+01
1.875000e+01
1.875000e+01
1.875000e+01
1.875000e+01
1.875000e+01
1.875000e+01
1.875000e+01
2.500000e+01
2.500000e+01
2.500000e+01
2.500000e+01
2.500000e+01
2.500000e+01
2.500000e+01
2.500000e+01
2.500000e+01
2.500000e+01
2.500000e+01
2.500000e+01
2.500000e+01
2.500000e+01
2.500000e+01
2.500000e+01
2.500000e+01
2.500000e+01
2.500000e+01
2.500000e+01
2.500000e+01
2.500000e+01
2.500000e+01
2.500000e+01
2.500000e+01
2.500000e+01
2.500000e+01
2.500000e+01
2.500000e+01
2.500000e+01
2.500000e+01
2.500000e+01
2.500000e+01
3.125000e+01
3.125000e+01
3.125000e+01
3.125000e+01
3.125000e+01
3.125000e+01
3.125000e+01
3.125000e+01
3.125000e+01
3.125000e+01
3.125000e+01
3.125000e+01
3.125000e+01
3.125000e+01
3.125000e+01
3.125000e+01
3.125000e+01
3.125000e+01
3.125000e+01
3.125000e+01
3.125000e+01
3.125000e+01
3.125000e+01
3.125000e+01
3.125000e+01
3.125000e+01
3.125000e+01
3.125000e+01
3.125000e+01
3.125000e+01
3.125000e+01
3.125000e+01
3.125000e+01
3.750000e+01
3.750000e+01
3.750000e+01
3.750000e+01
3.750000e+01
3.750000e+01
3.750000e+01
3.750000e+01
3.750000e+01
3.750000e+01
3.750000e+01
3.750000e+01
3.750000e+01
3.750000e+01
3.750000e+01
3.750000e+01
3.750000e+01
3.750000e+01
3.750000e+01
3.750000e+01
3.750000e+01
3.750000e+01
3.750000e+01
3.750000e+01
3.750000e+01
3.750000e+01
3.750000e+01
3.750000e+01
3.750000e+01
3.750000e+01
3.750000e+01
3.750000e+01
3.750000e+01
4.375000e+01
4.375000e+01
4.375000e+01
4.375000e+01
4.375000e+01
4.375000e+01
4.375000e+01
4.375000e+01
4.375000e+01
4.375000e+01
4.375000e+01
4.375000e+01
4.375000e+01
4.375000e+01
4.375000e+01
4.375000e+01
4.375000e+01
4.375000e+01
4.375000e+01
4.375000e+01
4.375000e+01
4.375000e+01
4.375000e+01
4.375000e+01
4.375000e+01
4.375000e+01
4.375000e+01
4.375000e+01
4.375000e+01
4.375000e+01
4.375000e+01
4.375000e+01
4.375000e+01
5.000000e+01
5.000000e+01
5.000000e+01
5.000000e+01
5.000000e+01
5.000000e+01
5.000000e+01
5.000000e+01
5.000000e+01
5.000000e+01
5.000000e+01
5.000000e+01
5.000000e+01
5.000000e+01
5.000000e+01
5.000000e+01
5.000000e+01
5.000000e+01
5.000000e+01
5.000000e+01
5.000000e+01
5.000000e+01
5.000000e+01
5.000000e+01
5.000000e+01
5.000000e+01
5.000000e+01
5.000000e+01
5.000000e+01
5.000000e+01
5.000000e+01
5.000000e+01
5.000000e+01
5.625000e+01
5.625000e+01
5.625000e+01
5.625000e+01
5.625000e+01
5.625000e+01
5.625000e+01
5.625000e+01
5.625000e+01
5.625000e+01
5.625000e+01
5.625000e+01
5.625000e+01
5.625000e+01
5.625000e+01
5.625000e+01
5.625000e+01
5.625000e+01
5.625000e+01
5.625000e+01
5.625000e+01
5.625000e+01
5.625000e+01
5.625000e+01
5.625000e+01
5.625000e+01
5.625000e+01
5.625000e+01
5.625000e+01
5.625000e+01
5.625000e+01
5.625000e+01
5.625000e+01
6.250000e+01
6.250000e+01
6.250000e+01
6.250000e+01
6.250000e+01
6.250000e+01
6.250000e+01
6.250000e+01
6.250000e+01
6.250000e+01
6.250000e+01
6.250000e+01
6.250000e+01
6.250000e+01
6.250000e+01
6.250000e+01
6.250000e+01
6.250000e+01
6.250000e+01
6.250000e+01
6.250000e+01
6.250000e+01
6.250000e+01
6.250000e+01
6.250000e+01
6.250000e+01
6.250000e+01
6.250000e+01
6.250000e+01
6.250000e+01
6.250000e+01
6.250000e+01
6.250000e+01
6.875000e+01
6.875000e+01
6.875000e+01
6.875000e+01
6.875000e+01
6.875000e+01
6.875000e+01
6.875000e+01
6.875000e+01
6.875000e+01
6.875000e+01
6.875000e+01
6.875000e+01
6.875000e+01
6.875000e+01
6.875000e+01
6.875000e+01
6.875000e+01
6.875000e+01
6.875000e+01
6.875000e+01
6.875000e+01
6.875000e+01
6.875000e+01
6.875000e+01
6.875000e+01
6.875000e+01
6.875000e+01
6.875000e+01
6.875000e+01
6.875000e+01
6.875000e+01
6.875000e+01
7.500000e+01
7.500000e+01
7.500000e+01
7.500000e+01
7.500000e+01
7.500000e+01
7.500000e+01
7.500000e+01
7.500000e+01
7.500000e+01
7.500000e+01
7.500000e+01
7.500000e+01
7.500000e+01
7.500000e+01
7.500000e+01
7.500000e+01
7.500000e+01
7.500000e+01
7.500000e+01
7.500000e+01
7.500000e+01
7.500000e+01
7.500000e+01
7.500000e+01
7.500000e+01
7.500000e+01
7.500000e+01
7.500000e+01
7.500000e+01
7.500000e+01
7.500000e+01
7.500000e+01
8.125000e+01
8.125000e+01
8.125000e+01
8.125000e+01
8.125000e+01
8.125000e+01
8.125000e+01
8.125000e+01
8.125000e+01
8.125000e+01
8.125000e+01
8.125000e+01
8.125000e+01
8.125000e+01
8.125000e+01
8.125000e+01
8.125000e+01
8.125000e+01
8.125000e+01
8.125000e+01
8.125000e+01
8.125000e+01
8.125000e+01
8.125000e+01
8.125000e+01
8.125000e+01
8.125000e+01
8.125000e+01
8.125000e+01
8.125000e+01
8.125000e+01
8.125000e+01
8.125000e+01
8.750000e+01
8.750000e+01
8.750000e+01
8.750000e+01
8.750000e+01
8.750000e+01
8.750000e+01
8.750000e+01
8.750000e+01
8.750000e+01
8.750000e+01
8.750000e+01
8.750000e+01
8.750000e+01
8.750000e+01
8.750000e+01
8.750000e+01
8.750000e+01
8.750000e+01
8.750000e+01
8.750000e+01
8.750000e+01
8.750000e+01
8.750000e+01
8.750000e+01
8.750000e+01
8.750000e+01
8.750000e+01
8.750000e+01
8.750000e+01
8.750000e+01
8.750000e+01
8.750000e+01
9.375000e+01
9.375000e+01
9.375000e+01
9.375000e+01
9.375000e+01
9.375000e+01
9.375000e+01
9.375000e+01
9.375000e+01
9.375000e+01
9.375000e+01
9.375000e+01
9.375000e+01
9.375000e+01
9.375000e+01
9.375000e+01
9.375000e+01
9.375000e+01
9.375000e+01
9.375000e+01
9.375000e+01
9.375000e+01
9.375000e+01
9.375000e+01
9.375000e+01
9.375000e+01
9.375000e+01
9.375000e+01
9.375000e+01
9.375000e+01
9.375000e+01
9.375000e+01
9.375000e+01
1.000000e+02
1.000000e+02
1.000000e+02
1.000000e+02
1.000000e+02
1.000000e+02
1.000000e+02
1.000000e+02
1.000000e+02
1.000000e+02
1.000000e+02
1.000000e+02
1.000000e+02
1.000000e+02
1.000000e+02
1.000000e+02
1.000000e+02
1.000000e+02
1.000000e+02
1.000000e+02
1.000000e+02
1.000000e+02
1.000000e+02
1.000000e+02
1.000000e+02
1.000000e+02
1.000000e+02
1.000000e+02
1.000000e+02
1.000000e+02
1.000000e+02
1.000000e+02
1.000000e+02
0.000000e+00
-4.639143e-01
-7.748291e-01
-1.111696e+00
-1.415088e+00
-1.710161e+00
-2.019304e+00
-2.310080e+00
-2.611634e+00
-2.906503e+00
-3.205218e+00
-3.504134e+00
-3.802542e+00
-4.103482e+00
-4.402942e+00
-4.704193e+00
-5.005099e+00
-5.306347e+00
-5.608029e+00
-5.909398e+00
-6.211443e+00
-6.512862e+00
-6.814197e+00
-7.112552e+00
-7.412134e+00
-7.714450e+00
-8.020274e+00
-8.346170e+00
-8.669931e+00
-9.031934e+00
-9.510105e+00
-9.926266e+00
-1.013200e+01
0.000000e+00
-2.328439e-01
-4.725616e-01
-7.371335e-01
-1.003597e+00
-1.257116e+00
-1.526336e+00
-1.786682e+00
-2.049177e+00
-2.314022e+00
-2.574153e+00
-2.839013e+00
-3.099862e+00
-3.362775e+00
-3.625029e+00
-3.886430e+00
-4.148948e+00
-4.410202e+00
-4.671878e+00
-4.933435e+00
-5.194318e+00
-5.455524e+00
-5.716633e+00
-5.976803e+00
-6.238836e+00
-6.498703e+00
-6.759378e+00
-7.022481e+00
-7.277778e+00
-7.538443e+00
-7.785695e+00
-7.884174e+00
-7.989867e+00
0.000000e+00
-1.087523e-01
-2.506133e-01
-4.467597e-01
-6.625917e-01
-8.693200e-01
-1.096491e+00
-1.320558e+00
-1.545583e+00
-1.775373e+00
-1.997873e+00
-2.225643e+00
-2.448793e+00
-2.673128e+00
-2.897234e+00
-3.119975e+00
-3.344022e+00
-3.566976e+00
-3.790508e+00
-4.014385e+00
-4.237675e+00
-4.461672e+00
-4.686525e+00
-4.912238e+00
-5.138212e+00
-5.358175e+00
-5.569361e+00
-5.767080e+00
-5.945419e+00
-6.094094e+00
-6.176288e+00
-6.180616e+00
-6.273432e+00
0.000000e+00
-1.025760e-01
-1.888510e-01
-3.379934e-01
-4.618408e-01
-6.193984e-01
-7.952594e-01
-9.659240e-01
-1.153500e+00
-1.333289e+00
-1.518399e+00
-1.702447e+00
-1.887057e+00
-2.072301e+00
-2.257854e+00
-2.444576e+00
-2.631888e+00
-2.820640e+00
-3.010324e+00
-3.201246e+00
-3.392937e+00
-3.584632e+00
-3.776778e+00
-3.965893e+00
-4.148404e+00
-4.318987e+00
-4.470245e+00
-4.601259e+00
-4.701759e+00
-4.762606e+00
-4.775878e+00
-4.791731e+00
-4.872716e+00
0.000000e+00
-9.182108e-02
-1.822329e-01
-2.733639e-01
-3.842255e-01
-5.007623e-01
-6.319706e-01
-7.665105e-01
-9.090940e-01
-1.052379e+00
-1.197062e+00
-1.344252e+00
-1.489664e+00
-1.637571e+00
-1.784834e+00
-1.932934e+00
-2.081901e+00
-2.230840e+00
-2.380316e+00
-2.529387e+00
-2.677298e+00
-2.823104e+00
-2.964943e+00
-3.100361e+00
-3.226322e+00
-3.338956e+00
-3.434485e+00
-3.507664e+00
-3.554783e+00
-3.576237e+00
-3.576488e+00
-3.605994e+00
-3.679001e+00
0.000000e+00
-7.338238e-02
-1.441382e-01
-2.185206e-01
-2.992664e-01
-3.876869e-01
-4.820458e-01
-5.828837e-01
-6.865833e-01
-7.936463e-01
-9.016752e-01
-1.010268e+00
-1.119584e+00
-1.228520e+00
-1.337851e+00
-1.446968e+00
-1.555914e+00
-1.664525e+00
-1.772184e+00
-1.878360e+00
-1.982022e+00
-2.081745e+00
-2.175828e+00
-2.262190e+00
-2.338409e+00
-2.402256e+00
-2.451679e+00
-2.484657e+00
-2.502158e+00
-2.498828e+00
-2.494358e+00
-2.522348e+00
-2.589651e+00
0.000000e+00
-5.059875e-02
-1.007318e-01
-1.520841e-01
-2.069082e-01
-2.656536e-01
-3.285582e-01
-3.947353e-01
-4.636154e-01
-5.340737e-01
-6.054627e-01
-6.771645e-01
-7.487904e-01
-8.202248e-01
-8.912184e-01
-9.617148e-01
-1.031470e+00
-1.100191e+00
-1.167429e+00
-1.232480e+00
-1.294351e+00
-1.351726e+00
-1.403125e+00
-1.446892e+00
-1.481350e+00
-1.504500e+00
-1.515987e+00
-1.516175e+00
-1.497885e+00
-1.469306e+00
-1.459100e+00
-1.485540e+00
-1.552212e+00
0.000000e+00
-2.664512e-02
-5.317477e-02
-8.029456e-02
-1.087134e-01
-1.388963e-01
-1.707942e-01
-2.041944e-01
-2.386176e-01
-2.736406e-01
-3.088014e-01
-3.437732e-01
-3.783189e-01
-4.122509e-01
-4.454429e-01
-4.777130e-01
-5.088484e-01
-5.385650e-01
-5.665073e-01
-5.921577e-01
-6.147079e-01
-6.330546e-01
-6.459199e-01
-6.523396e-01
-6.509545e-01
-6.413262e-01
-6.212591e-01
-5.830315e-01
-5.352782e-01
-4.880408e-01
-4.673075e-01
-4.937517e-01
-5.624278e-01
0.000000e+00
-1.916852e-03
-3.886782e-03
-5.834831e-03
-7.679840e-03
-9.330992e-03
-1.069772e-02
-1.168415e-02
-1.220325e-02
-1.216831e-02
-1.150691e-02
-1.013896e-02
-7.968822e-03
-4.877851e-03
-7.309852e-04
4.651224e-03
1.150908e-02
2.007448e-02
3.052026e-02
4.301607e-02
5.796040e-02
7.613419e-02
9.855228e-02
1.266425e-01
1.600628e-01
2.019063e-01
2.587921e-01
3.276225e-01
3.965761e-01
4.442835e-01
4.575315e-01
4.252047e-01
3.504336e-01
0.000000e+00
2.291639e-02
4.562149e-02
6.897362e-02
9.385686e-02
1.209123e-01
1.502759e-01
1.818795e-01
2.154026e-01
2.505141e-01
2.868686e-01
3.242502e-01
3.626256e-01
4.020853e-01
4.428444e-01
4.851658e-01
5.293450e-01
5.755656e-01
6.238323e-01
6.740195e-01
7.259145e-01
7.797917e-01
8.363787e-01
8.966259e-01
9.660178e-01
1.047527e+00
1.134030e+00
1.220540e+00
1.291891e+00
1.333881e+00
1.333649e+00
1.293054e+00
1.231604e+00
0.000000e+00
4.716029e-02
9.378848e-02
1.417407e-01
1.934756e-01
2.496707e-01
3.106558e-01
3.757370e-01
4.442752e-01
5.152159e-01
5.877568e-01
6.613103e-01
7.355819e-01
8.107675e-01
8.871981e-01
9.655452e-01
1.046157e+00
1.129040e+00
1.214201e+00
1.301637e+00
1.391400e+00
1.483312e+00
1.577515e+00
1.678394e+00
1.784431e+00
1.893919e+00
2.000347e+00
2.088992e+00
2.152995e+00
2.182218e+00
2.177342e+00
2.147579e+00
2.103519e+00
0.000000e+00
7.033356e-02
1.380203e-01
2.095474e-01
2.879105e-01
3.747256e-01
4.684753e-01
5.693246e-01
6.743107e-01
7.828998e-01
8.931788e-01
1.004323e+00
1.116470e+00
1.228843e+00
1.342340e+00
1.457104e+00
1.573635e+00
1.691676e+00
1.811355e+00
1.934064e+00
2.061819e+00
2.196794e+00
2.336873e+00
2.476068e+00
2.610444e+00
2.736122e+00
2.847799e+00
2.937521e+00
2.995969e+00
3.025906e+00
3.029821e+00
3.012054e+00
2.984188e+00
0.000000e+00
8.918225e-02
1.767905e-01
2.655895e-01
3.750391e-01
4.916141e-01
6.231012e-01
7.609131e-01
9.054313e-01
1.052636e+00
1.200639e+00
1.351290e+00
1.501590e+00
1.654948e+00
1.809241e+00
1.966412e+00
2.125959e+00
2.287401e+00
2.451480e+00
2.616477e+00
2.784568e+00
2.953604e+00
3.120933e+00
3.284102e+00
3.436740e+00
3.575072e+00
3.693912e+00
3.787441e+00
3.855260e+00
3.895158e+00
3.908673e+00
3.902263e+00
3.887606e+00
0.000000e+00
1.001506e-01
1.840094e-01
3.302136e-01
4.530303e-01
6.107418e-01
7.891424e-01
9.629796e-01
1.155678e+00
1.338589e+00
1.526923e+00
1.712957e+00
1.900762e+00
2.092073e+00
2.287125e+00
2.486594e+00
2.688735e+00
2.894427e+00
3.103611e+00
3.314542e+00
3.523261e+00
3.726011e+00
3.919416e+00
4.103698e+00
4.278652e+00
4.435723e+00
4.570475e+00
4.677243e+00
4.754305e+00
4.802709e+00
4.825300e+00
4.828265e+00
4.823466e+00
0.000000e+00
1.078896e-01
2.474270e-01
4.394835e-01
6.525699e-01
8.568703e-01
1.083555e+00
1.309583e+00
1.537310e+00
1.770718e+00
1.996161e+00
2.225334e+00
2.450277e+00
2.677575e+00
2.907028e+00
3.137636e+00
3.369226e+00
3.600236e+00
3.832905e+00
4.066200e+00
4.298935e+00
4.526651e+00
4.748263e+00
4.966514e+00
5.173411e+00
5.356258e+00
5.505847e+00
5.621278e+00
5.704285e+00
5.757648e+00
5.785696e+00
5.794892e+00
5.796018e+00
0.000000e+00
2.334855e-01
4.735915e-01
7.379351e-01
1.004016e+00
1.257182e+00
1.525777e+00
1.785795e+00
2.047774e+00
2.312042e+00
2.571835e+00
2.835686e+00
3.095643e+00
3.357142e+00
3.617607e+00
3.877112e+00
4.136998e+00
4.394714e+00
4.652010e+00
4.907702e+00
5.161884e+00
5.415429e+00
5.669376e+00
5.923740e+00
6.159515e+00
6.358447e+00
6.516253e+00
6.633858e+00
6.714793e+00
6.764498e+00
6.789936e+00
6.799167e+00
6.801434e+00
0.000000e+00
4.645666e-01
7.781948e-01
1.118575e+00
1.425306e+00
1.722447e+00
2.032990e+00
2.322448e+00
2.622218e+00
2.914118e+00
3.209956e+00
3.506985e+00
3.802754e+00
4.099582e+00
4.392341e+00
4.683638e+00
4.974099e+00
5.264021e+00
5.552080e+00
5.840196e+00
6.125779e+00
6.414583e+00
6.705968e+00
6.993731e+00
7.251719e+00
7.461499e+00
7.620418e+00
7.730296e+00
7.795911e+00
7.825426e+00
7.830625e+00
7.825976e+00
7.823397e+00
0.000000e+00
-2.759608e-01
-5.787168e-01
-9.638381e-01
-1.385370e+00
-1.845803e+00
-2.346892e+00
-2.879503e+00
-3.449416e+00
-4.052575e+00
-4.691154e+00
-5.366575e+00
-6.077816e+00
-6.827510e+00
-7.614365e+00
-8.439762e+00
-9.303696e+00
-1.020609e+01
-1.114772e+01
-1.212824e+01
-1.314830e+01
-1.420844e+01
-1.530853e+01
-1.644852e+01
-1.762782e+01
-1.884749e+01
-2.011251e+01
-2.143013e+01
-2.280955e+01
-2.427018e+01
-2.582841e+01
-2.763910e+01
-3.018474e+01
0.000000e+00
-1.772388e-01
-4.984252e-01
-8.762386e-01
-1.303697e+00
-1.761358e+00
-2.262601e+00
-2.796538e+00
-3.365023e+00
-3.969306e+00
-4.606918e+00
-5.282798e+00
-5.993876e+00
-6.743403e+00
-7.530532e+00
-8.355655e+00
-9.219752e+00
-1.012209e+01
-1.106369e+01
-1.204429e+01
-1.306422e+01
-1.412428e+01
-1.522460e+01
-1.636456e+01
-1.754383e+01
-1.876325e+01
-2.002648e+01
-2.134327e+01
-2.272222e+01
-2.417538e+01
-2.575370e+01
-2.755013e+01
-2.980786e+01
0.000000e+00
-1.543756e-01
-4.402962e-01
-8.189747e-01
-1.236900e+00
-1.692457e+00
-2.192149e+00
-2.724441e+00
-3.293288e+00
-3.896979e+00
-4.535104e+00
-5.210815e+00
-5.922513e+00
-6.671876e+00
-7.459398e+00
-8.284607e+00
-9.148714e+00
-1.005129e+01
-1.099274e+01
-1.197351e+01
-1.299335e+01
-1.405292e+01
-1.515291e+01
-1.629238e+01
-1.747268e+01
-1.869400e+01
-1.995960e+01
-2.128056e+01
-2.266410e+01
-2.413786e+01
-2.575687e+01
-2.744486e+01
-2.919842e+01
0.000000e+00
-1.947066e-01
-4.388241e-01
-8.112288e-01
-1.200034e+00
-1.646837e+00
-2.143772e+00
-2.667190e+00
-3.238382e+00
-3.838840e+00
-4.477751e+00
-5.153542e+00
-5.865049e+00
-6.615054e+00
-7.402348e+00
-8.227849e+00
-9.091905e+00
-9.994491e+00
-1.093592e+01
-1.191672e+01
-1.293668e+01
-1.399596e+01
-1.509591e+01
-1.623618e+01
-1.741881e+01
-1.864504e+01
-1.991673e+01
-2.124436e+01
-2.263745e+01
-2.412859e+01
-2.574119e+01
-2.729315e+01
-2.869684e+01
0.000000e+00
-2.121500e-01
-4.733717e-01
-8.091477e-01
-1.197147e+00
-1.627178e+00
-2.114793e+00
-2.633008e+00
-3.199208e+00
-3.799239e+00
-4.436296e+00
-5.113117e+00
-5.823964e+00
-6.574804e+00
-7.362105e+00
-8.187690e+00
-9.052012e+00
-9.954461e+00
-1.089617e+01
-1.187714e+01
-1.289756e+01
-1.395779e+01
-1.505886e+01
-1.620148e+01
-1.738726e+01
-1.861772e+01
-1.989587e+01
-2.122797e+01
-2.262306e+01
-2.410651e+01
-2.564541e+01
-2.709080e+01
-2.835344e+01
0.000000e+00
-2.195725e-01
-4.890117e-01
-8.146463e-01
-1.192809e+00
-1.619732e+00
-2.094526e+00
-2.612222e+00
-3.171821e+00
-3.771038e+00
-4.408020e+00
-5.083434e+00
-5.796036e+00
-6.546365e+00
-7.334573e+00
-8.160634e+00
-9.025221e+00
-9.928467e+00
-1.087087e+01
-1.185292e+01
-1.287490e+01
-1.393733e+01
-1.504098e+01
-1.618670e+01
-1.737548e+01
-1.860843e+01
-1.988866e+01
-2.122041e+01
-2.260295e+01
-2.404807e+01
-2.549226e+01
-2.685804e+01
-2.805389e+01
0.000000e+00
-2.233360e-01
-4.950564e-01
-8.178155e-01
-1.191358e+00
-1.614005e+00
-2.083800e+00
-2.598293e+00
-3.155399e+00
-3.753126e+00
-4.390120e+00
-5.065490e+00
-5.778778e+00
-6.529820e+00
-7.318675e+00
-8.145600e+00
-9.010942e+00
-9.915164e+00
-1.085879e+01
-1.184240e+01
-1.286652e+01
-1.393160e+01
-1.503815e+01
-1.618673e+01
-1.737787e+01
-1.861139e+01
-1.988795e+01
-2.121410e+01
-2.256721e+01
-2.396096e+01
-2.533548e+01
-2.663160e+01
-2.776623e+01
0.000000e+00
-2.247404e-01
-4.973270e-01
-8.192545e-01
-1.190830e+00
-1.611203e+00
-2.078800e+00
-2.591659e+00
-3.147741e+00
-3.745180e+00
-4.382440e+00
-5.058469e+00
-5.772607e+00
-6.524570e+00
-7.314362e+00
-8.142227e+00
-9.008568e+00
-9.913874e+00
-1.085876e+01
-1.184397e+01
-1.287017e+01
-1.393773e+01
-1.504669e+01
-1.619731e+01
-1.738943e+01
-1.862215e+01
-1.989002e+01
-2.119769e+01
-2.251759e+01
-2.385827e+01
-2.517945e+01
-2.641460e+01
-2.749178e+01
0.000000e+00
-2.250116e-01
-4.978561e-01
-8.197363e-01
-1.191032e+00
-1.611117e+00
-2.078600e+00
-2.591637e+00
-3.148237e+00
-3.746490e+00
-4.384794e+00
-5.061973e+00
-5.777297e+00
-6.530395e+00
-7.321246e+00
-8.150150e+00
-9.017549e+00
-9.923903e+00
-1.086981e+01
-1.185614e+01
-1.288382e+01
-1.395320e+01
-1.506398e+01
-1.621504e+01
-1.740697e+01
-1.863407e+01
-1.988711e+01
-2.116773e+01
-2.246185e+01
-2.375185e+01
-2.501422e+01
-2.617771e+01
-2.717631e+01
0.000000e+00
-2.245044e-01
-4.971876e-01
-8.195698e-01
-1.192001e+00
-1.613661e+00
-2.082989e+00
-2.598013e+00
-3.156627e+00
-3.756829e+00
-4.396921e+00
-5.075724e+00
-5.792519e+00
-6.546924e+00
-7.338905e+00
-8.168894e+00
-9.037411e+00
-9.944743e+00
-1.089130e+01
-1.187794e+01
-1.290598e+01
-1.397616e+01
-1.508726e+01
-1.623863e+01
-1.742349e+01
-1.863925e+01
-1.987617e+01
-2.113364e+01
-2.239914e+01
-2.365039e+01
-2.485250e+01
-2.595436e+01
-2.691445e+01
0.000000e+00
-2.228853e-01
-4.947979e-01
-8.184677e-01
-1.193755e+00
-1.619005e+00
-2.092276e+00
-2.611094e+00
-3.173200e+00
-3.776344e+00
-4.418808e+00
-5.099490e+00
-5.817861e+00
-6.573601e+00
-7.366722e+00
-8.197896e+00
-9.067648e+00
-9.975921e+00
-1.092281e+01
-1.190898e+01
-1.293579e+01
-1.400536e+01
-1.511443e+01
-1.626044e+01
-1.743500e+01
-1.863727e+01
-1.986264e+01
-2.109935e+01
-2.233789e+01
-2.355063e+01
-2.470773e+01
-2.577576e+01
-2.672267e+01
0.000000e+00
-2.189092e-01
-4.886441e-01
-8.156479e-01
-1.196502e+00
-1.627554e+00
-2.107463e+00
-2.631813e+00
-3.198767e+00
-3.805795e+00
-4.450705e+00
-5.133422e+00
-5.853072e+00
-6.609923e+00
-7.404153e+00
-8.236585e+00
-9.107575e+00
-1.001631e+01
-1.096310e+01
-1.194785e+01
-1.297262e+01
-1.403822e+01
-1.514106e+01
-1.627802e+01
-1.744373e+01
-1.863589e+01
-1.985018e+01
-2.107269e+01
-2.228462e+01
-2.346752e+01
-2.459541e+01
-2.564631e+01
-2.659595e+01
0.000000e+00
-2.111405e-01
-4.727757e-01
-8.104532e-01
-1.202158e+00
-1.638450e+00
-2.132239e+00
-2.660448e+00
-3.235322e+00
-3.845810e+00
-4.492679e+00
-5.178182e+00
-5.897897e+00
-6.656612e+00
-7.451679e+00
-8.285678e+00
-9.157334e+00
-1.006514e+01
-1.101058e+01
-1.199244e+01
-1.301380e+01
-1.407297e+01
-1.516718e+01
-1.629576e+01
-1.745542e+01
-1.864254e+01
-1.984934e+01
-2.105748e+01
-2.224903e+01
-2.340756e+01
-2.451643e+01
-2.555995e+01
-2.652363e+01
0.000000e+00
-1.929916e-01
-4.375234e-01
-8.123357e-01
-1.206447e+00
-1.660651e+00
-2.167288e+00
-2.701375e+00
-3.284333e+00
-3.895656e+00
-4.545651e+00
-5.231223e+00
-5.952784e+00
-6.712729e+00
-7.509796e+00
-8.344940e+00
-9.216162e+00
-1.012286e+01
-1.106562e+01
-1.204433e+01
-1.306009e+01
-1.411160e+01
-1.519744e+01
-1.632018e+01
-1.747970e+01
-1.866515e+01
-1.986444e+01
-2.105759e+01
-2.223109e+01
-2.337132e+01
-2.446661e+01
-2.550844e+01
-2.649226e+01
0.000000e+00
-1.519521e-01
-4.376828e-01
-8.186792e-01
-1.242778e+00
-1.707091e+00
-2.218231e+00
-2.762676e+00
-3.343953e+00
-3.958869e+00
-4.607622e+00
-5.293516e+00
-6.015983e+00
-6.776787e+00
-7.575496e+00
-8.410435e+00
-9.281230e+00
-1.018709e+01
-1.112834e+01
-1.210449e+01
-1.311521e+01
-1.416007e+01
-1.524055e+01
-1.636295e+01
-1.752285e+01
-1.870455e+01
-1.989186e+01
-2.107109e+01
-2.222949e+01
-2.335559e+01
-2.444085e+01
-2.548259e+01
-2.648686e+01
0.000000e+00
-1.747276e-01
-4.953664e-01
-8.755122e-01
-1.309179e+00
-1.776229e+00
-2.289256e+00
-2.836100e+00
-3.416939e+00
-4.032789e+00
-4.680658e+00
-5.366770e+00
-6.088943e+00
-6.850322e+00
-7.649090e+00
-8.483605e+00
-9.353699e+00
-1.025869e+01
-1.119906e+01
-1.217368e+01
-1.318196e+01
-1.422426e+01
-1.530454e+01
-1.642681e+01
-1.758190e+01
-1.875339e+01
-1.992806e+01
-2.109423e+01
-2.224007e+01
-2.335507e+01
-2.443249e+01
-2.547329e+01
-2.649155e+01
0.000000e+00
-2.738621e-01
-5.762320e-01
-9.636359e-01
-1.391271e+00
-1.860969e+00
-2.373629e+00
-2.918883e+00
-3.501089e+00
-4.115700e+00
-4.764642e+00
-5.450340e+00
-6.172540e+00
-6.933753e+00
-7.731723e+00
-8.565985e+00
-9.435511e+00
-1.034005e+01
-1.127967e+01
-1.225368e+01
-1.326131e+01
-1.430419e+01