TITLE = "Solution"
VARIABLES = x, y, u, v, psiu, psiv, t, stress
ZONE T="structure" N=561 E=512 F=FEBLOCK ET=QUADRILATERAL VARLOCATION=([7,8]=cellcentered)
0.000000e+00
6.250000e+00
1.250000e+01
1.875000e+01
2.500000e+01
3.125000e+01
3.750000e+01
4.375000e+01
5.000000e+01
5.625000e+01
6.250000e+01
6.875000e+01
7.500000e+01
8.125000e+01
8.750000e+01
9.375000e+01
1.000000e+02
1.062500e+02
1.125000e+02
1.187500e+02
1.250000e+02
1.312500e+02
1.375000e+02
1.437500e+02
1.500000e+02
1.562500e+02
1.625000e+02
1.687500e+02
1.750000e+02
1.812500e+02
1.875000e+02
1.937500e+02
2.000000e+02
0.000000e+00
6.250000e+00
1.250000e+01
1.875000e+01
2.500000e+01
3.125000e+01
3.750000e+01
4.375000e+01
5.000000e+01
5.625000e+01
6.250000e+01
6.875000e+01
7.500000e+01
8.125000e+01
8.750000e+01
9.375000e+01
1.000000e+02
1.062500e+02
1.125000e+02
1.187500e+02
1.250000e+02
1.312500e+02
1.375000e+02
1.437500e+02
1.500000e+02
1.562500e+02
1.625000e+02
1.687500e+02
1.750000e+02
1.812500e+02
1.875000e+02
1.937500e+02
2.000000e+02
0.000000e+00
6.250000e+00
1.250000e+01
1.875000e+01
2.500000e+01
3.125000e+01
3.750000e+01
4.375000e+01
5.000000e+01
5.625000e+01
6.250000e+01
6.875000e+01
7.500000e+01
8.125000e+01
8.750000e+01
9.375000e+01
1.000000e+02
1.062500e+02
1.125000e+02
1.187500e+02
1.250000e+02
1.312500e+02
1.375000e+02
1.437500e+02
1.500000e+02
1.562500e+02
1.625000e+02
1.687500e+02
1.750000e+02
1.812500e+02
1.875000e+02
1.937500e+02
2.000000e+02
0.000000e+00
6.250000e+00
1.250000e+01
1.875000e+01
2.500000e+01
3.125000e+01
3.750000e+01
4.375000e+01
5.000000e+01
5.625000e+01
6.250000e+01
6.875000e+01
7.500000e+01
8.125000e+01
8.750000e+01
9.375000e+01
1.000000e+02
1.062500e+02
1.125000e+02
1.187500e+02
1.250000e+02
1.312500e+02
1.375000e+02
1.437500e+02
1.500000e+02
1.562500e+02
1.625000e+02
1.687500e+02
1.750000e+02
1.812500e+02
1.875000e+02
1.937500e+02
2.000000e+02
0.000000e+00
6.250000e+00
1.250000e+01
1.875000e+01
2.500000e+01
3.125000e+01
3.750000e+01
4.375000e+01
5.000000e+01
5.625000e+01
6.250000e+01
6.875000e+01
7.500000e+01
8.125000e+01
8.750000e+01
9.375000e+01
1.000000e+02
1.062500e+02
1.125000e+02
1.187500e+02
1.250000e+02
1.312500e+02
1.375000e+02
1.437500e+02
1.500000e+02
1.562500e+02
1.625000e+02
1.687500e+02
1.750000e+02
1.812500e+02
1.875000e+02
1.937500e+02
2.000000e+02
0.000000e+00
6.250000e+00
1.250000e+01
1.875000e+01
2.500000e+01
3.125000e+01
3.750000e+01
4.375000e+01
5.000000e+01
5.625000e+01
6.250000e+01
6.875000e+01
7.500000e+01
8.125000e+01
8.750000e+01
9.375000e+01
1.000000e+02
1.062500e+02
1.125000e+02
1.187500e+02
1.250000e+02
1.312500e+02
1.375000e+02
1.437500e+02
1.500000e+02
1.562500e+02
1.625000e+02
1.687500e+02
1.750000e+02
1.812500e+02
1.875000e+02
1.937500e+02
2.000000e+02
0.000000e+00
6.250000e+00
1.250000e+01
1.875000e+01
2.500000e+01
3.125000e+01
3.750000e+01
4.375000e+01
5.000000e+01
5.625000e+01
6.250000e+01
6.875000e+01
7.500000e+01
8.125000e+01
8.750000e+01
9.375000e+01
1.000000e+02
1.062500e+02
1.125000e+02
1.187500e+02
1.250000e+02
1.312500e+02
1.375000e+02
1.437500e+02
1.500000e+02
1.562500e+02
1.625000e+02
1.687500e+02
1.750000e+02
1.812500e+02
1.875000e+02
1.937500e+02
2.000000e+02
0.000000e+00
6.250000e+00
1.250000e+01
1.875000e+01
2.500000e+01
3.125000e+01
3.750000e+01
4.375000e+01
5.000000e+01
5.625000e+01
6.250000e+01
6.875000e+01
7.500000e+01
8.125000e+01
8.750000e+01
9.375000e+01
1.000000e+02
1.062500e+02
1.125000e+02
1.187500e+02
1.250000e+02
1.312500e+02
1.375000e+02
1.437500e+02
1.500000e+02
1.562500e+02
1.625000e+02
1.687500e+02
1.750000e+02
1.812500e+02
1.875000e+02
1.937500e+02
2.000000e+02
0.000000e+00
6.250000e+00
1.250000e+01
1.875000e+01
2.500000e+01
3.125000e+01
3.750000e+01
4.375000e+01
5.000000e+01
5.625000e+01
6.250000e+01
6.875000e+01
7.500000e+01
8.125000e+01
8.750000e+01
9.375000e+01
1.000000e+02
1.062500e+02
1.125000e+02
1.187500e+02
1.250000e+02
1.312500e+02
1.375000e+02
1.437500e+02
1.500000e+02
1.562500e+02
1.625000e+02
1.687500e+02
1.750000e+02
1.812500e+02
1.875000e+02
1.937500e+02
2.000000e+02
0.000000e+00
6.250000e+00
1.250000e+01
1.875000e+01
2.500000e+01
3.125000e+01
3.750000e+01
4.375000e+01
5.000000e+01
5.625000e+01
6.250000e+01
6.875000e+01
7.500000e+01
8.125000e+01
8.750000e+01
9.375000e+01
1.000000e+02
1.062500e+02
1.125000e+02
1.187500e+02
1.250000e+02
1.312500e+02
1.375000e+02
1.437500e+02
1.500000e+02
1.562500e+02
1.625000e+02
1.687500e+02
1.750000e+02
1.812500e+02
1.875000e+02
1.937500e+02
2.000000e+02
0.000000e+00
6.250000e+00
1.250000e+01
1.875000e+01
2.500000e+01
3.125000e+01
3.750000e+01
4.375000e+01
5.000000e+01
5.625000e+01
6.250000e+01
6.875000e+01
7.500000e+01
8.125000e+01
8.750000e+01
9.375000e+01
1.000000e+02
1.062500e+02
1.125000e+02
1.187500e+02
1.250000e+02
1.312500e+02
1.375000e+02
1.437500e+02
1.500000e+02
1.562500e+02
1.625000e+02
1.687500e+02
1.750000e+02
1.812500e+02
1.875000e+02
1.937500e+02
2.000000e+02
0.000000e+00
6.250000e+00
1.250000e+01
1.875000e+01
2.500000e+01
3.125000e+01
3.750000e+01
4.375000e+01
5.000000e+01
5.625000e+01
6.250000e+01
6.875000e+01
7.500000e+01
8.125000e+01
8.750000e+01
9.375000e+01
1.000000e+02
1.062500e+02
1.125000e+02
1.187500e+02
1.250000e+02
1.312500e+02
1.375000e+02
1.437500e+02
1.500000e+02
1.562500e+02
1.625000e+02
1.687500e+02
1.750000e+02
1.812500e+02
1.875000e+02
1.937500e+02
2.000000e+02
0.000000e+00
6.250000e+00
1.250000e+01
1.875000e+01
2.500000e+01
3.125000e+01
3.750000e+01
4.375000e+01
5.000000e+01
5.625000e+01
6.250000e+01
6.875000e+01
7.500000e+01
8.125000e+01
8.750000e+01
9.375000e+01
1.000000e+02
1.062500e+02
1.125000e+02
1.187500e+02
1.250000e+02
1.312500e+02
1.375000e+02
1.437500e+02
1.500000e+02
1.562500e+02
1.625000e+02
1.687500e+02
1.750000e+02
1.812500e+02
1.875000e+02
1.937500e+02
2.000000e+02
0.000000e+00
6.250000e+00
1.250000e+01
1.875000e+01
2.500000e+01
3.125000e+01
3.750000e+01
4.375000e+01
5.000000e+01
5.625000e+01
6.250000e+01
6.875000e+01
7.500000e+01
8.125000e+01
8.750000e+01
9.375000e+01
1.000000e+02
1.062500e+02
1.125000e+02
1.187500e+02
1.250000e+02
1.312500e+02
1.375000e+02
1.437500e+02
1.500000e+02
1.562500e+02
1.625000e+02
1.687500e+02
1.750000e+02
1.812500e+02
1.875000e+02
1.937500e+02
2.000000e+02
0.000000e+00
6.250000e+00
1.250000e+01
1.875000e+01
2.500000e+01
3.125000e+01
3.750000e+01
4.375000e+01
5.000000e+01
5.625000e+01
6.250000e+01
6.875000e+01
7.500000e+01
8.125000e+01
8.750000e+01
9.375000e+01
1.000000e+02
1.062500e+02
1.125000e+02
1.187500e+02
1.250000e+02
1.312500e+02
1.375000e+02
1.437500e+02
1.500000e+02
1.562500e+02
1.625000e+02
1.687500e+02
1.750000e+02
1.812500e+02
1.875000e+02
1.937500e+02
2.000000e+02
0.000000e+00
6.250000e+00
1.250000e+01
1.875000e+01
2.500000e+01
3.125000e+01
3.750000e+01
4.375000e+01
5.000000e+01
5.625000e+01
6.250000e+01
6.875000e+01
7.500000e+01
8.125000e+01
8.750000e+01
9.375000e+01
1.000000e+02
1.062500e+02
1.125000e+02
1.187500e+02
1.250000e+02
1.312500e+02
1.375000e+02
1.437500e+02
1.500000e+02
1.562500e+02
1.625000e+02
1.687500e+02
1.750000e+02
1.812500e+02
1.875000e+02
1.937500e+02
2.000000e+02
0.000000e+00
6.250000e+00
1.250000e+01
1.875000e+01
2.500000e+01
3.125000e+01
3.750000e+01
4.375000e+01
5.000000e+01
5.625000e+01
6.250000e+01
6.875000e+01
7.500000e+01
8.125000e+01
8.750000e+01
9.375000e+01
1.000000e+02
1.062500e+02
1.125000e+02
1.187500e+02
1.250000e+02
1.312500e+02
1.375000e+02
1.437500e+02
1.500000e+02
1.562500e+02
1.625000e+02
1.687500e+02
1.750000e+02
1.812500e+02
1.875000e+02
1.937500e+02
2.000000e+02
0.000000e+00
0.000000e+00
0.000000e+00
0.000000e+00
0.000000e+00
0.000000e+00
0.000000e+00
0.000000e+00
0.000000e+00
0.000000e+00
0.000000e+00
0.000000e+00
0.000000e+00
0.000000e+00
0.000000e+00
0.000000e+00
0.000000e+00
0.000000e+00
0.000000e+00
0.000000e+00
0.000000e+00
0.000000e+00
0.000000e+00
0.000000e+00
0.000000e+00
0.000000e+00
0.000000e+00
0.000000e+00
0.000000e+00
0.000000e+00
0.000000e+00
0.000000e+00
0.000000e+00
6.250000e+00
6.250000e+00
6.250000e+00
6.250000e+00
6.250000e+00
6.250000e+00
6.250000e+00
6.250000e+00
6.250000e+00
6.250000e+00
6.250000e+00
6.250000e+00
6.250000e+00
6.250000e+00
6.250000e+00
6.250000e+00
6.250000e+00
6.250000e+00
6.250000e+00
6.250000e+00
6.250000e+00
6.250000e+00
6.250000e+00
6.250000e+00
6.250000e+00
6.250000e+00
6.250000e+00
6.250000e+00
6.250000e+00
6.250000e+00
6.250000e+00
6.250000e+00
6.250000e+00
1.250000e+01
1.250000e+01
1.250000e+01
1.250000e+01
1.250000e+01
1.250000e+01
1.250000e+01
1.250000e+01
1.250000e+01
1.250000e+01
1.250000e+01
1.250000e+01
1.250000e+01
1.250000e+01
1.250000e+01
1.250000e+01
1.250000e+01
1.250000e+01
1.250000e+01
1.250000e+01
1.250000e+01
1.250000e+01
1.250000e+01
1.250000e+01
1.250000e+01
1.250000e+01
1.250000e+01
1.250000e+01
1.250000e+01
1.250000e+01
1.250000e+01
1.250000e+01
1.250000e+01
1.875000e+01
1.875000e+01
1.875000e+01
1.875000e+01
1.875000e+01
1.875000e+01
1.875000e+01
1.875000e+01
1.875000e+01
1.875000e+01
1.875000e+01
1.875000e+01
1.875000e+01
1.875000e+01
1.875000e+01
1.875000e+01
1.875000e+01
1.875000e+01
1.875000e+01
1.875000e+01
1.875000e+01
1.875000e+01
1.875000e+01
1.875000e+01
1.875000e+01
1.875000e+01
1.875000e+01
1.875000e+01
1.875000e+01
1.875000e+01
1.875000e+01
1.875000e+01
1.875000e+01
2.500000e+01
2.500000e+01
2.500000e+01
2.500000e+01
2.500000e+01
2.500000e+01
2.500000e+01
2.500000e+01
2.500000e+01
2.500000e+01
2.500000e+01
2.500000e+01
2.500000e+01
2.500000e+01
2.500000e+01
2.500000e+01
2.500000e+01
2.500000e+01
2.500000e+01
2.500000e+01
2.500000e+01
2.500000e+01
2.500000e+01
2.500000e+01
2.500000e+01
2.500000e+01
2.500000e+01
2.500000e+01
2.500000e+01
2.500000e+01
2.500000e+01
2.500000e+01
2.500000e+01
3.125000e+01
3.125000e+01
3.125000e+01
3.125000e+01
3.125000e+01
3.125000e+01
3.125000e+01
3.125000e+01
3.125000e+01
3.125000e+01
3.125000e+01
3.125000e+01
3.125000e+01
3.125000e+01
3.125000e+01
3.125000e+01
3.125000e+01
3.125000e+01
3.125000e+01
3.125000e+01
3.125000e+01
3.125000e+01
3.125000e+01
3.125000e+01
3.125000e+01
3.125000e+01
3.125000e+01
3.125000e+01
3.125000e+01
3.125000e+01
3.125000e+01
3.125000e+01
3.125000e+01
3.750000e+01
3.750000e+01
3.750000e+01
3.750000e+01
3.750000e+01
3.750000e+01
3.750000e+01
3.750000e+01
3.750000e+01
3.750000e+01
3.750000e+01
3.750000e+01
3.750000e+01
3.750000e+01
3.750000e+01
3.750000e+01
3.750000e+01
3.750000e+01
3.750000e+01
3.750000e+01
3.750000e+01
3.750000e+01
3.750000e+01
3.750000e+01
3.750000e+01
3.750000e+01
3.750000e+01
3.750000e+01
3.750000e+01
3.750000e+01
3.750000e+01
3.750000e+01
3.750000e+01
4.375000e+01
4.375000e+01
4.375000e+01
4.375000e+01
4.375000e+01
4.375000e+01
4.375000e+01
4.375000e+01
4.375000e+01
4.375000e+01
4.375000e+01
4.375000e+01
4.375000e+01
4.375000e+01
4.375000e+01
4.375000e+01
4.375000e+01
4.375000e+01
4.375000e+01
4.375000e+01
4.375000e+01
4.375000e+01
4.375000e+01
4.375000e+01
4.375000e+01
4.375000e+01
4.375000e+01
4.375000e+01
4.375000e+01
4.375000e+01
4.375000e+01
4.375000e+01
4.375000e+01
5.000000e+01
5.000000e+01
5.000000e+01
5.000000e+01
5.000000e+01
5.000000e+01
5.000000e+01
5.000000e+01
5.000000e+01
5.000000e+01
5.000000e+01
5.000000e+01
5.000000e+01
5.000000e+01
5.000000e+01
5.000000e+01
5.000000e+01
5.000000e+01
5.000000e+01
5.000000e+01
5.000000e+01
5.000000e+01
5.000000e+01
5.000000e+01
5.000000e+01
5.000000e+01
5.000000e+01
5.000000e+01
5.000000e+01
5.000000e+01
5.000000e+01
5.000000e+01
5.000000e+01
5.625000e+01
5.625000e+01
5.625000e+01
5.625000e+01
5.625000e+01
5.625000e+01
5.625000e+01
5.625000e+01
5.625000e+01
5.625000e+01
5.625000e+01
5.625000e+01
5.625000e+01
5.625000e+01
5.625000e+01
5.625000e+01
5.625000e+01
5.625000e+01
5.625000e+01
5.625000e+01
5.625000e+01
5.625000e+01
5.625000e+01
5.625000e+01
5.625000e+01
5.625000e+01
5.625000e+01
5.625000e+01
5.625000e+01
5.625000e+01
5.625000e+01
5.625000e+01
5.625000e+01
6.250000e+01
6.250000e+01
6.250000e+01
6.250000e+01
6.250000e+01
6.250000e+01
6.250000e+01
6.250000e+01
6.250000e+01
6.250000e+01
6.250000e+01
6.250000e+01
6.250000e+01
6.250000e+01
6.250000e+01
6.250000e+01
6.250000e+01
6.250000e+01
6.250000e+01
6.250000e+01
6.250000e+01
6.250000e+01
6.250000e+01
6.250000e+01
6.250000e+01
6.250000e+01
6.250000e+01
6.250000e+01
6.250000e+01
6.250000e+01
6.250000e+01
6.250000e+01
6.250000e+01
6.875000e+01
6.875000e+01
6.875000e+01
6.875000e+01
6.875000e+01
6.875000e+01
6.875000e+01
6.875000e+01
6.875000e+01
6.875000e+01
6.875000e+01
6.875000e+01
6.875000e+01
6.875000e+01
6.875000e+01
6.875000e+01
6.875000e+01
6.875000e+01
6.875000e+01
6.875000e+01
6.875000e+01
6.875000e+01
6.875000e+01
6.875000e+01
6.875000e+01
6.875000e+01
6.875000e+01
6.875000e+01
6.875000e+01
6.875000e+01
6.875000e+01
6.875000e+01
6.875000e+01
7.500000e+01
7.500000e+01
7.500000e+01
7.500000e+01
7.500000e+01
7.500000e+01
7.500000e+01
7.500000e+01
7.500000e+01
7.500000e+01
7.500000e+01
7.500000e+01
7.500000e+01
7.500000e+01
7.500000e+01
7.500000e+01
7.500000e+01
7.500000e+01
7.500000e+01
7.500000e+01
7.500000e+01
7.500000e+01
7.500000e+01
7.500000e+01
7.500000e+01
7.500000e+01
7.500000e+01
7.500000e+01
7.500000e+01
7.500000e+01
7.500000e+01
7.500000e+01
7.500000e+01
8.125000e+01
8.125000e+01
8.125000e+01
8.125000e+01
8.125000e+01
8.125000e+01
8.125000e+01
8.125000e+01
8.125000e+01
8.125000e+01
8.125000e+01
8.125000e+01
8.125000e+01
8.125000e+01
8.125000e+01
8.125000e+01
8.125000e+01
8.125000e+01
8.125000e+01
8.125000e+01
8.125000e+01
8.125000e+01
8.125000e+01
8.125000e+01
8.125000e+01
8.125000e+01
8.125000e+01
8.125000e+01
8.125000e+01
8.125000e+01
8.125000e+01
8.125000e+01
8.125000e+01
8.750000e+01
8.750000e+01
8.750000e+01
8.750000e+01
8.750000e+01
8.750000e+01
8.750000e+01
8.750000e+01
8.750000e+01
8.750000e+01
8.750000e+01
8.750000e+01
8.750000e+01
8.750000e+01
8.750000e+01
8.750000e+01
8.750000e+01
8.750000e+01
8.750000e+01
8.750000e+01
8.750000e+01
8.750000e+01
8.750000e+01
8.750000e+01
8.750000e+01
8.750000e+01
8.750000e+01
8.750000e+01
8.750000e+01
8.750000e+01
8.750000e+01
8.750000e+01
8.750000e+01
9.375000e+01
9.375000e+01
9.375000e+01
9.375000e+01
9.375000e+01
9.375000e+01
9.375000e+01
9.375000e+01
9.375000e+01
9.375000e+01
9.375000e+01
9.375000e+01
9.375000e+01
9.375000e+01
9.375000e+01
9.375000e+01
9.375000e+01
9.375000e+01
9.375000e+01
9.375000e+01
9.375000e+01
9.375000e+01
9.375000e+01
9.375000e+01
9.375000e+01
9.375000e+01
9.375000e+01
9.375000e+01
9.375000e+01
9.375000e+01
9.375000e+01
9.375000e+01
9.375000e+01
1.000000e+02
1.000000e+02
1.000000e+02
1.000000e+02
1.000000e+02
1.000000e+02
1.000000e+02
1.000000e+02
1.000000e+02
1.000000e+02
1.000000e+02
1.000000e+02
1.000000e+02
1.000000e+02
1.000000e+02
1.000000e+02
1.000000e+02
1.000000e+02
1.000000e+02
1.000000e+02
1.000000e+02
1.000000e+02
1.000000e+02
1.000000e+02
1.000000e+02
1.000000e+02
1.000000e+02
1.000000e+02
1.000000e+02
1.000000e+02
1.000000e+02
1.000000e+02
1.000000e+02
0.000000e+00
-4.098175e-02
-7.435594e-02
-1.052724e-01
-1.349435e-01
-1.635955e-01
-1.912858e-01
-2.180120e-01
-2.437574e-01
-2.685031e-01
-2.922336e-01
-3.149383e-01
-3.366117e-01
-3.572532e-01
-3.768676e-01
-3.954654e-01
-4.130632e-01
-4.296852e-01
-4.453648e-01
-4.601471e-01
-4.740922e-01
-4.872797e-01
-4.998145e-01
-5.118360e-01
-5.235310e-01
-5.351532e-01
-5.470551e-01
-5.597393e-01
-5.739431e-01
-5.907516e-01
-6.115722e-01
-6.363847e-01
-6.515275e-01
0.000000e+00
-2.747716e-02
-5.716919e-02
-8.516486e-02
-1.117737e-01
-1.372489e-01
-1.617253e-01
-1.852617e-01
-2.078816e-01
-2.295925e-01
-2.503960e-01
-2.702920e-01
-2.892815e-01
-3.073676e-01
-3.245562e-01
-3.408569e-01
-3.562837e-01
-3.708555e-01
-3.845976e-01
-3.975428e-01
-4.097330e-01
-4.212208e-01
-4.320717e-01
-4.423657e-01
-4.521986e-01
-4.616804e-01
-4.709272e-01
-4.800349e-01
-4.890026e-01
-4.975386e-01
-5.046515e-01
-5.088101e-01
-5.145994e-01
0.000000e+00
-2.179495e-02
-4.487015e-02
-6.836438e-02
-9.119349e-02
-1.131813e-01
-1.343138e-01
-1.546109e-01
-1.740907e-01
-1.927653e-01
-2.106428e-01
-2.277288e-01
-2.440278e-01
-2.595448e-01
-2.742855e-01
-2.882571e-01
-3.014685e-01
-3.139314e-01
-3.256595e-01
-3.366697e-01
-3.469812e-01
-3.566149e-01
-3.655912e-01
-3.739262e-01
-3.816231e-01
-3.886572e-01
-3.949481e-01
-4.003106e-01
-4.043820e-01
-4.065743e-01
-4.063821e-01
-4.051510e-01
-4.119114e-01
0.000000e+00
-1.729236e-02
-3.553975e-02
-5.428666e-02
-7.298963e-02
-9.123958e-02
-1.088802e-01
-1.258555e-01
-1.421502e-01
-1.577637e-01
-1.727000e-01
-1.869641e-01
-2.005608e-01
-2.134945e-01
-2.257688e-01
-2.373873e-01
-2.483532e-01
-2.586693e-01
-2.683376e-01
-2.773588e-01
-2.857305e-01
-2.934451e-01
-3.004855e-01
-3.068188e-01
-3.123867e-01
-3.170908e-01
-3.207755e-01
-3.232155e-01
-3.241472e-01
-3.234556e-01
-3.217758e-01
-3.216755e-01
-3.281165e-01
0.000000e+00
-1.342129e-02
-2.748222e-02
-4.199232e-02
-5.662031e-02
-7.106887e-02
-8.513867e-02
-9.872877e-02
-1.117933e-01
-1.243145e-01
-1.362879e-01
-1.477141e-01
-1.585951e-01
-1.689330e-01
-1.787282e-01
-1.879800e-01
-1.966855e-01
-2.048393e-01
-2.124332e-01
-2.194543e-01
-2.258838e-01
-2.316943e-01
-2.368459e-01
-2.412821e-01
-2.449245e-01
-2.476701e-01
-2.493977e-01
-2.500038e-01
-2.495066e-01
-2.482900e-01
-2.475008e-01
-2.493234e-01
-2.548178e-01
0.000000e+00
-9.863865e-03
-2.015034e-02
-3.076728e-02
-4.153125e-02
-5.224131e-02
-6.273795e-02
-7.291749e-02
-8.272302e-02
-9.212686e-02
-1.011173e-01
-1.096903e-01
-1.178444e-01
-1.255780e-01
-1.328884e-01
-1.397702e-01
-1.462153e-01
-1.522120e-01
-1.577439e-01
-1.627896e-01
-1.673204e-01
-1.712998e-01
-1.746812e-01
-1.774078e-01
-1.794151e-01
-1.806398e-01
-1.810462e-01
-1.806815e-01
-1.797828e-01
-1.789277e-01
-1.791358e-01
-1.814594e-01
-1.860057e-01
0.000000e+00
-6.491609e-03
-1.323999e-02
-2.020245e-02
-2.727970e-02
-3.435262e-02
-4.131454e-02
-4.808771e-02
-5.462346e-02
-6.089496e-02
-6.688864e-02
-7.259767e-02
-7.801769e-02
-8.314418e-02
-8.797095e-02
-9.248918e-02
-9.668668e-02
-1.005473e-01
-1.040504e-01
-1.071700e-01
-1.098750e-01
-1.121285e-01
-1.138897e-01
-1.151170e-01
-1.157764e-01
-1.158582e-01
-1.154074e-01
-1.145731e-01
-1.136728e-01
-1.132364e-01
-1.139173e-01
-1.161794e-01
-1.198493e-01
0.000000e+00
-3.224380e-03
-6.570661e-03
-1.002164e-02
-1.353374e-02
-1.705147e-02
-2.052215e-02
-2.390455e-02
-2.717081e-02
-3.030391e-02
-3.329377e-02
-3.613373e-02
-3.881797e-02
-4.133983e-02
-4.369073e-02
-4.585936e-02
-4.783119e-02
-4.958801e-02
-5.110773e-02
-5.236447e-02
-5.332919e-02
-5.397134e-02
-5.426223e-02
-5.418132e-02
-5.372702e-02
-5.293400e-02
-5.189823e-02
-5.080688e-02
-4.995966e-02
-4.974744e-02
-5.054628e-02
-5.251974e-02
-5.543167e-02
0.000000e+00
-5.202216e-06
-1.127989e-05
-1.789633e-05
-2.470350e-05
-3.123216e-05
-3.677510e-05
-4.025765e-05
-4.008626e-05
-3.396629e-05
-1.868197e-05
1.016517e-05
5.845921e-05
1.339073e-04
2.463953e-04
4.083315e-04
6.349239e-04
9.443070e-04
1.357380e-03
1.897149e-03
2.587269e-03
3.449331e-03
4.498287e-03
5.735277e-03
7.137128e-03
8.642432e-03
1.013594e-02
1.143713e-02
1.230573e-02
1.248188e-02
1.177263e-02
1.016640e-02
7.916788e-03
0.000000e+00
3.214582e-03
6.549372e-03
9.987798e-03
1.348691e-02
1.699210e-02
2.045198e-02
2.382733e-02
2.709326e-02
3.023705e-02
3.325465e-02
3.614763e-02
3.892125e-02
4.158337e-02
4.414405e-02
4.661546e-02
4.901186e-02
5.134953e-02
5.364630e-02
5.592051e-02
5.818916e-02
6.046475e-02
6.275052e-02
6.503377e-02
6.727739e-02
6.941059e-02
7.132169e-02
7.285880e-02
7.384643e-02
7.412604e-02
7.361964e-02
7.239947e-02
7.072981e-02
0.000000e+00
6.483605e-03
1.322248e-02
2.017441e-02
2.724060e-02
3.430259e-02
4.125471e-02
4.802082e-02
5.455461e-02
6.083268e-02
6.684633e-02
7.259543e-02
7.808463e-02
8.332132e-02
8.831470e-02
9.307540e-02
9.761534e-02
1.019475e-01
1.060852e-01
1.100414e-01
1.138263e-01
1.174447e-01
1.208917e-01
1.241474e-01
1.271709e-01
1.298951e-01
1.322252e-01
1.340451e-01
1.352363e-01
1.357126e-01
1.354677e-01
1.346234e-01
1.334581e-01
0.000000e+00
9.858760e-03
2.013896e-02
3.074875e-02
4.150494e-02
5.220697e-02
6.269594e-02
7.286914e-02
8.267112e-02
9.207638e-02
1.010763e-01
1.096712e-01
1.178653e-01
1.256651e-01
1.330779e-01
1.401116e-01
1.467744e-01
1.530748e-01
1.590210e-01
1.646197e-01
1.698748e-01
1.747853e-01
1.793415e-01
1.835219e-01
1.872896e-01
1.905899e-01
1.933517e-01
1.954951e-01
1.969486e-01
1.976770e-01
1.977180e-01
1.972227e-01
1.964862e-01
0.000000e+00
1.342002e-02
2.747905e-02
4.198664e-02
5.661153e-02
7.105650e-02
8.512239e-02
9.870853e-02
1.117695e-01
1.242883e-01
1.362612e-01
1.476903e-01
1.585798e-01
1.689342e-01
1.787579e-01
1.880547e-01
1.968284e-01
2.050817e-01
2.128166e-01
2.200335e-01
2.267302e-01
2.329006e-01
2.385328e-01
2.436073e-01
2.480956e-01
2.519601e-01
2.551564e-01
2.576406e-01
2.593816e-01
2.603818e-01
2.607062e-01
2.605203e-01
2.601323e-01
0.000000e+00
1.729557e-02
3.554628e-02
5.429637e-02
7.300226e-02
9.125475e-02
1.088974e-01
1.258738e-01
1.421683e-01
1.577793e-01
1.727098e-01
1.869631e-01
2.005419e-01
2.134477e-01
2.256808e-01
2.372402e-01
2.481237e-01
2.583276e-01
2.678471e-01
2.766753e-01
2.848033e-01
2.922198e-01
2.989108e-01
3.048593e-01
3.100463e-01
3.144524e-01
3.180612e-01
3.208644e-01
3.228707e-01
3.241175e-01
3.246910e-01
3.247593e-01
3.246306e-01
0.000000e+00
2.180280e-02
4.488689e-02
6.839059e-02
9.122968e-02
1.132279e-01
1.343708e-01
1.546778e-01
1.741655e-01
1.928443e-01
2.107191e-01
2.277914e-01
2.440600e-01
2.595219e-01
2.741722e-01
2.880043e-01
3.010096e-01
3.131776e-01
3.244954e-01
3.349479e-01
3.445179e-01
3.531869e-01
3.609360e-01
3.677478e-01
3.736094e-01
3.785164e-01
3.824776e-01
3.855209e-01
3.876990e-01
3.890940e-01
3.898242e-01
3.900620e-01
3.900904e-01
0.000000e+00
2.748893e-02
5.719491e-02
8.520623e-02
1.118327e-01
1.373277e-01
1.618255e-01
1.853843e-01
2.080260e-01
2.297560e-01
2.505717e-01
2.704674e-01
2.894357e-01
3.074678e-01
3.245536e-01
3.406807e-01
3.558346e-01
3.699974e-01
3.831479e-01
3.952611e-01
4.063093e-01
4.162625e-01
4.250915e-01
4.327710e-01
4.392849e-01
4.446337e-01
4.488427e-01
4.519710e-01
4.541199e-01
4.554367e-01
4.561094e-01
4.563533e-01
4.564131e-01
0.000000e+00
4.099464e-02
7.438601e-02
1.053239e-01
1.350206e-01
1.637024e-01
1.914269e-01
2.181914e-01
2.439783e-01
2.687669e-01
2.925381e-01
3.152754e-01
3.369642e-01
3.575906e-01
3.771402e-01
3.955968e-01
4.129406e-01
4.291475e-01
4.441880e-01
4.580262e-01
4.706207e-01
4.819251e-01
4.918908e-01
5.004721e-01
5.076336e-01
5.133609e-01
5.176743e-01
5.206458e-01
5.224170e-01
5.232150e-01
5.233600e-01
5.232399e-01
5.231723e-01
0.000000e+00
-2.532594e-02
-4.419923e-02
-6.479454e-02
-8.772863e-02
-1.136350e-01
-1.426936e-01
-1.749551e-01
-2.103872e-01
-2.489140e-01
-2.904334e-01
-3.348279e-01
-3.819709e-01
-4.317304e-01
-4.839719e-01
-5.385598e-01
-5.953594e-01
-6.542384e-01
-7.150689e-01
-7.777305e-01
-8.421140e-01
-9.081278e-01
-9.757062e-01
-1.044823e+00
-1.115513e+00
-1.187908e+00
-1.262294e+00
-1.339233e+00
-1.419799e+00
-1.506120e+00
-1.602783e+00
-1.720616e+00
-1.883405e+00
0.000000e+00
-1.573911e-02
-3.549447e-02
-5.622870e-02
-7.948246e-02
-1.056703e-01
-1.350113e-01
-1.675551e-01
-2.032723e-01
-2.420871e-01
-2.838967e-01
-3.285827e-01
-3.760174e-01
-4.260676e-01
-4.785976e-01
-5.334706e-01
-5.905501e-01
-6.497018e-01
-7.107954e-01
-7.737074e-01
-8.383250e-01
-9.045516e-01
-9.723157e-01
-1.041584e+00
-1.112381e+00
-1.184826e+00
-1.259191e+00
-1.336022e+00
-1.416369e+00
-1.502323e+00
-1.598240e+00
-1.713449e+00
-1.865536e+00
0.000000e+00
-1.156128e-02
-2.861547e-02
-4.906686e-02
-7.236125e-02
-9.874202e-02
-1.283146e-01
-1.611064e-01
-1.970781e-01
-2.361500e-01
-2.782178e-01
-3.231620e-01
-3.708544e-01
-4.211615e-01
-4.739468e-01
-5.290731e-01
-5.864033e-01
-6.458023e-01
-7.071389e-01
-7.702886e-01
-8.351375e-01
-9.015885e-01
-9.695697e-01
-1.039049e+00
-1.110053e+00
-1.182709e+00
-1.257302e+00
-1.334388e+00
-1.415007e+00
-1.501042e+00
-1.595711e+00
-1.702816e+00
-1.821626e+00
0.000000e+00
-9.257783e-03
-2.423153e-02
-4.359235e-02
-6.658737e-02
-9.295995e-02
-1.226590e-01
-1.556346e-01
-1.918156e-01
-2.311079e-01
-2.734004e-01
-3.185708e-01
-3.664897e-01
-4.170233e-01
-4.700355e-01
-5.253892e-01
-5.829478e-01
-6.425768e-01
-7.041455e-01
-7.675307e-01
-8.326198e-01
-8.993181e-01
-9.675574e-01
-1.037310e+00
-1.108611e+00
-1.181593e+00
-1.256537e+00
-1.333957e+00
-1.414703e+00
-1.500017e+00
-1.591086e+00
-1.687135e+00
-1.776546e+00
0.000000e+00
-7.833607e-03
-2.136459e-02
-3.970480e-02
-6.217563e-02
-8.837530e-02
-1.180856e-01
-1.511682e-01
-1.875039e-01
-2.269736e-01
-2.694541e-01
-3.148173e-01
-3.629315e-01
-4.136625e-01
-4.668746e-01
-5.224319e-01
-5.801990e-01
-6.400429e-01
-7.018349e-01
-7.654536e-01
-8.307891e-01
-8.977494e-01
-9.662694e-01
-1.036323e+00
-1.107943e+00
-1.181246e+00
-1.256459e+00
-1.333955e+00
-1.414222e+00
-1.497653e+00
-1.583850e+00
-1.669650e+00
-1.747518e+00
0.000000e+00
-6.927391e-03
-1.948352e-02
-3.702956e-02
-5.899456e-02
-8.494881e-02
-1.145945e-01
-1.477195e-01
-1.841569e-01
-2.237596e-01
-2.663890e-01
-3.119095e-01
-3.601862e-01
-4.110842e-01
-4.644686e-01
-5.202047e-01
-5.781590e-01
-6.382004e-01
-7.002022e-01
-7.640450e-01
-8.296206e-01
-8.968374e-01
-9.656282e-01
-1.035960e+00
-1.107845e+00
-1.181352e+00
-1.256611e+00
-1.333785e+00
-1.412962e+00
-1.493877e+00
-1.575295e+00
-1.654309e+00
-1.726527e+00
0.000000e+00
-6.364188e-03
-1.829421e-02
-3.529059e-02
-5.686348e-02
-8.259408e-02
-1.121517e-01
-1.452809e-01
-1.817784e-01
-2.214731e-01
-2.642123e-01
-3.098530e-01
-3.582572e-01
-4.092895e-01
-4.628156e-01
-5.187024e-01
-5.768182e-01
-6.370337e-01
-6.992238e-01
-7.632697e-01
-8.290623e-01
-8.965064e-01
-9.655257e-01
-1.036068e+00
-1.108110e+00
-1.181651e+00
-1.256699e+00
-1.333211e+00
-1.410966e+00
-1.489331e+00
-1.566950e+00
-1.641586e+00
-1.710496e+00
0.000000e+00
-6.054700e-03
-1.763429e-02
-3.431065e-02
-5.564148e-02
-8.122246e-02
-1.107123e-01
-1.438342e-01
-1.803642e-01
-2.201159e-01
-2.629270e-01
-3.086496e-01
-3.571439e-01
-4.082743e-01
-4.619077e-01
-5.179124e-01
-5.761582e-01
-6.365170e-01
-6.988641e-01
-7.630794e-01
-8.290501e-01
-8.966724e-01
-9.658543e-01
-1.036516e+00
-1.108587e+00
-1.181993e+00
-1.256625e+00
-1.332281e+00
-1.408556e+00
-1.484701e+00
-1.559492e+00
-1.631246e+00
-1.698092e+00
0.000000e+00
-5.954984e-03
-1.742139e-02
-3.399304e-02
-5.524322e-02
-8.077355e-02
-1.102407e-01
-1.433621e-01
-1.799075e-01
-2.196858e-01
-2.625320e-01
-3.082972e-01
-3.568417e-01
-4.080309e-01
-4.617329e-01
-5.178174e-01
-5.761553e-01
-6.366189e-01
-6.990824e-01
-7.634227e-01
-8.295201e-01
-8.972588e-01
-9.665265e-01
-1.037211e+00
-1.109194e+00
-1.182330e+00
-1.256423e+00
-1.331166e+00
-1.406077e+00
-1.480418e+00
-1.553153e+00
-1.623000e+00
-1.688586e+00
0.000000e+00
-6.051815e-03
-1.763029e-02
-3.430720e-02
-5.564044e-02
-8.122612e-02
-1.107236e-01
-1.438573e-01
-1.804043e-01
-2.201800e-01
-2.630241e-01
-3.087909e-01
-3.573433e-01
-4.085486e-01
-4.622765e-01
-5.183978e-01
-5.767840e-01
-6.373069e-01
-6.998387e-01
-7.642516e-01
-8.304171e-01
-8.982052e-01
-9.674815e-01
-1.038102e+00
-1.109903e+00
-1.182686e+00
-1.256189e+00
-1.330055e+00
-1.403786e+00
-1.476711e+00
-1.547976e+00
-1.616589e+00
-1.681501e+00
0.000000e+00
-6.358653e-03
-1.828653e-02
-3.528394e-02
-5.686139e-02
-8.260095e-02
-1.121733e-01
-1.453249e-01
-1.818551e-01
-2.215958e-01
-2.643982e-01
-3.101236e-01
-3.586394e-01
-4.098154e-01
-4.635230e-01
-5.196339e-01
-5.780199e-01
-6.385515e-01
-7.010980e-01
-7.655261e-01
-8.316980e-01
-8.994692e-01
-9.686839e-01
-1.039169e+00
-1.110726e+00
-1.183112e+00
-1.256030e+00
-1.329102e+00
-1.401849e+00
-1.473683e+00
-1.543916e+00
-1.611780e+00
-1.676472e+00
0.000000e+00
-6.919698e-03
-1.947284e-02
-3.702027e-02
-5.899156e-02
-8.495822e-02
-1.146244e-01
-1.477807e-01
-1.842637e-01
-2.239306e-01
-2.666484e-01
-3.122875e-01
-3.607203e-01
-4.118197e-01
-4.654585e-01
-5.215090e-01
-5.798425e-01
-6.403283e-01
-7.028326e-01
-7.672162e-01
-8.333328e-01
-9.010245e-01
-9.701173e-01
-1.040414e+00
-1.111688e+00
-1.183670e+00
-1.256041e+00
-1.328419e+00
-1.400361e+00
-1.471365e+00
-1.540884e+00
-1.608350e+00
-1.673175e+00
0.000000e+00
-7.824545e-03
-2.135202e-02
-3.969386e-02
-6.217215e-02
-8.838669e-02
-1.181216e-01
-1.512421e-01
-1.876328e-01
-2.271802e-01
-2.697675e-01
-3.152742e-01
-3.635774e-01
-4.145522e-01
-4.680724e-01
-5.240107e-01
-5.822376e-01
-6.426210e-01
-7.050241e-01
-7.693030e-01
-8.353037e-01
-9.028578e-01
-9.717769e-01
-1.041847e+00
-1.112820e+00
-1.184409e+00
-1.256285e+00
-1.328074e+00
-1.399367e+00
-1.469738e+00
-1.538769e+00
-1.606072e+00
-1.671288e+00
0.000000e+00
-9.248469e-03
-2.421863e-02
-4.358123e-02
-6.658438e-02
-9.297332e-02
-1.226997e-01
-1.557170e-01
-1.919589e-01
-2.313372e-01
-2.737478e-01
-3.190769e-01
-3.672045e-01
-4.180072e-01
-4.713593e-01
-5.271332e-01
-5.851987e-01
-6.454222e-01
-7.076647e-01
-7.717784e-01
-8.376041e-01
-9.049655e-01
-9.736647e-01
-1.043476e+00
-1.114139e+00
-1.185357e+00
-1.256797e+00
-1.328093e+00
-1.398866e+00
-1.468751e+00
-1.537438e+00
-1.604712e+00
-1.670466e+00
0.000000e+00
-1.155316e-02
-2.860417e-02
-4.905748e-02
-7.236035e-02
-9.875830e-02
-1.283595e-01
-1.611951e-01
-1.972304e-01
-2.363920e-01
-2.785826e-01
-3.236914e-01
-3.715999e-01
-4.221849e-01
-4.753206e-01
-5.308789e-01
-5.887289e-01
-6.487357e-01
-7.107585e-01
-7.746472e-01
-8.402389e-01
-9.073531e-01
-9.757864e-01
-1.045307e+00
-1.115650e+00
-1.186514e+00
-1.257567e+00
-1.328451e+00
-1.398810e+00
-1.468319e+00
-1.536748e+00
-1.604029e+00
-1.670322e+00
0.000000e+00
-1.573389e-02
-3.548678e-02
-5.622318e-02
-7.948588e-02
-1.056915e-01
-1.350618e-01
-1.676502e-01
-2.034319e-01
-2.423368e-01
-2.842693e-01
-3.291192e-01
-3.767678e-01
-4.270920e-01
-4.799655e-01
-5.352594e-01
-5.928421e-01
-6.525775e-01
-7.143235e-01
-7.779282e-01
-8.432270e-01
-9.100374e-01
-9.781540e-01
-1.047344e+00
-1.117342e+00
-1.187850e+00
-1.258539e+00
-1.329065e+00
-1.399083e+00
-1.468299e+00
-1.536524e+00
-1.603782e+00
-1.670445e+00
0.000000e+00
-2.532520e-02
-4.419667e-02
-6.479503e-02
-8.773898e-02
-1.136641e-01
-1.427531e-01
-1.750599e-01
-2.105569e-01
-2.491735e-01
-2.908143e-01
-3.353692e-01
-3.827198e-01
-4.327428e-01
-4.853113e-01
-5.402959e-01
-5.975637e-01
-6.569776e-01
-7.183936e-01
-7.816586e-01
-8.466062e-01
-9.130529e-01
-9.807932e-01