TITLE = "Solution"
VARIABLES = x, y, u, v, psiu, psiv, t, stress
ZONE T="structure" N=561 E=512 F=FEBLOCK ET=QUADRILATERAL VARLOCATION=([7,8]=cellcentered)
0.000000e+00
6.250000e+00
1.250000e+01
1.875000e+01
2.500000e+01
3.125000e+01
3.750000e+01
4.375000e+01
5.000000e+01
5.625000e+01
6.250000e+01
6.875000e+01
7.500000e+01
8.125000e+01
8.750000e+01
9.375000e+01
1.000000e+02
1.062500e+02
1.125000e+02
1.187500e+02
1.250000e+02
1.312500e+02
1.375000e+02
1.437500e+02
1.500000e+02
1.562500e+02
1.625000e+02
1.687500e+02
1.750000e+02
1.812500e+02
1.875000e+02
1.937500e+02
2.000000e+02
0.000000e+00
6.250000e+00
1.250000e+01
1.875000e+01
2.500000e+01
3.125000e+01
3.750000e+01
4.375000e+01
5.000000e+01
5.625000e+01
6.250000e+01
6.875000e+01
7.500000e+01
8.125000e+01
8.750000e+01
9.375000e+01
1.000000e+02
1.062500e+02
1.125000e+02
1.187500e+02
1.250000e+02
1.312500e+02
1.375000e+02
1.437500e+02
1.500000e+02
1.562500e+02
1.625000e+02
1.687500e+02
1.750000e+02
1.812500e+02
1.875000e+02
1.937500e+02
2.000000e+02
0.000000e+00
6.250000e+00
1.250000e+01
1.875000e+01
2.500000e+01
3.125000e+01
3.750000e+01
4.375000e+01
5.000000e+01
5.625000e+01
6.250000e+01
6.875000e+01
7.500000e+01
8.125000e+01
8.750000e+01
9.375000e+01
1.000000e+02
1.062500e+02
1.125000e+02
1.187500e+02
1.250000e+02
1.312500e+02
1.375000e+02
1.437500e+02
1.500000e+02
1.562500e+02
1.625000e+02
1.687500e+02
1.750000e+02
1.812500e+02
1.875000e+02
1.937500e+02
2.000000e+02
0.000000e+00
6.250000e+00
1.250000e+01
1.875000e+01
2.500000e+01
3.125000e+01
3.750000e+01
4.375000e+01
5.000000e+01
5.625000e+01
6.250000e+01
6.875000e+01
7.500000e+01
8.125000e+01
8.750000e+01
9.375000e+01
1.000000e+02
1.062500e+02
1.125000e+02
1.187500e+02
1.250000e+02
1.312500e+02
1.375000e+02
1.437500e+02
1.500000e+02
1.562500e+02
1.625000e+02
1.687500e+02
1.750000e+02
1.812500e+02
1.875000e+02
1.937500e+02
2.000000e+02
0.000000e+00
6.250000e+00
1.250000e+01
1.875000e+01
2.500000e+01
3.125000e+01
3.750000e+01
4.375000e+01
5.000000e+01
5.625000e+01
6.250000e+01
6.875000e+01
7.500000e+01
8.125000e+01
8.750000e+01
9.375000e+01
1.000000e+02
1.062500e+02
1.125000e+02
1.187500e+02
1.250000e+02
1.312500e+02
1.375000e+02
1.437500e+02
1.500000e+02
1.562500e+02
1.625000e+02
1.687500e+02
1.750000e+02
1.812500e+02
1.875000e+02
1.937500e+02
2.000000e+02
0.000000e+00
6.250000e+00
1.250000e+01
1.875000e+01
2.500000e+01
3.125000e+01
3.750000e+01
4.375000e+01
5.000000e+01
5.625000e+01
6.250000e+01
6.875000e+01
7.500000e+01
8.125000e+01
8.750000e+01
9.375000e+01
1.000000e+02
1.062500e+02
1.125000e+02
1.187500e+02
1.250000e+02
1.312500e+02
1.375000e+02
1.437500e+02
1.500000e+02
1.562500e+02
1.625000e+02
1.687500e+02
1.750000e+02
1.812500e+02
1.875000e+02
1.937500e+02
2.000000e+02
0.000000e+00
6.250000e+00
1.250000e+01
1.875000e+01
2.500000e+01
3.125000e+01
3.750000e+01
4.375000e+01
5.000000e+01
5.625000e+01
6.250000e+01
6.875000e+01
7.500000e+01
8.125000e+01
8.750000e+01
9.375000e+01
1.000000e+02
1.062500e+02
1.125000e+02
1.187500e+02
1.250000e+02
1.312500e+02
1.375000e+02
1.437500e+02
1.500000e+02
1.562500e+02
1.625000e+02
1.687500e+02
1.750000e+02
1.812500e+02
1.875000e+02
1.937500e+02
2.000000e+02
0.000000e+00
6.250000e+00
1.250000e+01
1.875000e+01
2.500000e+01
3.125000e+01
3.750000e+01
4.375000e+01
5.000000e+01
5.625000e+01
6.250000e+01
6.875000e+01
7.500000e+01
8.125000e+01
8.750000e+01
9.375000e+01
1.000000e+02
1.062500e+02
1.125000e+02
1.187500e+02
1.250000e+02
1.312500e+02
1.375000e+02
1.437500e+02
1.500000e+02
1.562500e+02
1.625000e+02
1.687500e+02
1.750000e+02
1.812500e+02
1.875000e+02
1.937500e+02
2.000000e+02
0.000000e+00
6.250000e+00
1.250000e+01
1.875000e+01
2.500000e+01
3.125000e+01
3.750000e+01
4.375000e+01
5.000000e+01
5.625000e+01
6.250000e+01
6.875000e+01
7.500000e+01
8.125000e+01
8.750000e+01
9.375000e+01
1.000000e+02
1.062500e+02
1.125000e+02
1.187500e+02
1.250000e+02
1.312500e+02
1.375000e+02
1.437500e+02
1.500000e+02
1.562500e+02
1.625000e+02
1.687500e+02
1.750000e+02
1.812500e+02
1.875000e+02
1.937500e+02
2.000000e+02
0.000000e+00
6.250000e+00
1.250000e+01
1.875000e+01
2.500000e+01
3.125000e+01
3.750000e+01
4.375000e+01
5.000000e+01
5.625000e+01
6.250000e+01
6.875000e+01
7.500000e+01
8.125000e+01
8.750000e+01
9.375000e+01
1.000000e+02
1.062500e+02
1.125000e+02
1.187500e+02
1.250000e+02
1.312500e+02
1.375000e+02
1.437500e+02
1.500000e+02
1.562500e+02
1.625000e+02
1.687500e+02
1.750000e+02
1.812500e+02
1.875000e+02
1.937500e+02
2.000000e+02
0.000000e+00
6.250000e+00
1.250000e+01
1.875000e+01
2.500000e+01
3.125000e+01
3.750000e+01
4.375000e+01
5.000000e+01
5.625000e+01
6.250000e+01
6.875000e+01
7.500000e+01
8.125000e+01
8.750000e+01
9.375000e+01
1.000000e+02
1.062500e+02
1.125000e+02
1.187500e+02
1.250000e+02
1.312500e+02
1.375000e+02
1.437500e+02
1.500000e+02
1.562500e+02
1.625000e+02
1.687500e+02
1.750000e+02
1.812500e+02
1.875000e+02
1.937500e+02
2.000000e+02
0.000000e+00
6.250000e+00
1.250000e+01
1.875000e+01
2.500000e+01
3.125000e+01
3.750000e+01
4.375000e+01
5.000000e+01
5.625000e+01
6.250000e+01
6.875000e+01
7.500000e+01
8.125000e+01
8.750000e+01
9.375000e+01
1.000000e+02
1.062500e+02
1.125000e+02
1.187500e+02
1.250000e+02
1.312500e+02
1.375000e+02
1.437500e+02
1.500000e+02
1.562500e+02
1.625000e+02
1.687500e+02
1.750000e+02
1.812500e+02
1.875000e+02
1.937500e+02
2.000000e+02
0.000000e+00
6.250000e+00
1.250000e+01
1.875000e+01
2.500000e+01
3.125000e+01
3.750000e+01
4.375000e+01
5.000000e+01
5.625000e+01
6.250000e+01
6.875000e+01
7.500000e+01
8.125000e+01
8.750000e+01
9.375000e+01
1.000000e+02
1.062500e+02
1.125000e+02
1.187500e+02
1.250000e+02
1.312500e+02
1.375000e+02
1.437500e+02
1.500000e+02
1.562500e+02
1.625000e+02
1.687500e+02
1.750000e+02
1.812500e+02
1.875000e+02
1.937500e+02
2.000000e+02
0.000000e+00
6.250000e+00
1.250000e+01
1.875000e+01
2.500000e+01
3.125000e+01
3.750000e+01
4.375000e+01
5.000000e+01
5.625000e+01
6.250000e+01
6.875000e+01
7.500000e+01
8.125000e+01
8.750000e+01
9.375000e+01
1.000000e+02
1.062500e+02
1.125000e+02
1.187500e+02
1.250000e+02
1.312500e+02
1.375000e+02
1.437500e+02
1.500000e+02
1.562500e+02
1.625000e+02
1.687500e+02
1.750000e+02
1.812500e+02
1.875000e+02
1.937500e+02
2.000000e+02
0.000000e+00
6.250000e+00
1.250000e+01
1.875000e+01
2.500000e+01
3.125000e+01
3.750000e+01
4.375000e+01
5.000000e+01
5.625000e+01
6.250000e+01
6.875000e+01
7.500000e+01
8.125000e+01
8.750000e+01
9.375000e+01
1.000000e+02
1.062500e+02
1.125000e+02
1.187500e+02
1.250000e+02
1.312500e+02
1.375000e+02
1.437500e+02
1.500000e+02
1.562500e+02
1.625000e+02
1.687500e+02
1.750000e+02
1.812500e+02
1.875000e+02
1.937500e+02
2.000000e+02
0.000000e+00
6.250000e+00
1.250000e+01
1.875000e+01
2.500000e+01
3.125000e+01
3.750000e+01
4.375000e+01
5.000000e+01
5.625000e+01
6.250000e+01
6.875000e+01
7.500000e+01
8.125000e+01
8.750000e+01
9.375000e+01
1.000000e+02
1.062500e+02
1.125000e+02
1.187500e+02
1.250000e+02
1.312500e+02
1.375000e+02
1.437500e+02
1.500000e+02
1.562500e+02
1.625000e+02
1.687500e+02
1.750000e+02
1.812500e+02
1.875000e+02
1.937500e+02
2.000000e+02
0.000000e+00
6.250000e+00
1.250000e+01
1.875000e+01
2.500000e+01
3.125000e+01
3.750000e+01
4.375000e+01
5.000000e+01
5.625000e+01
6.250000e+01
6.875000e+01
7.500000e+01
8.125000e+01
8.750000e+01
9.375000e+01
1.000000e+02
1.062500e+02
1.125000e+02
1.187500e+02
1.250000e+02
1.312500e+02
1.375000e+02
1.437500e+02
1.500000e+02
1.562500e+02
1.625000e+02
1.687500e+02
1.750000e+02
1.812500e+02
1.875000e+02
1.937500e+02
2.000000e+02
0.000000e+00
0.000000e+00
0.000000e+00
0.000000e+00
0.000000e+00
0.000000e+00
0.000000e+00
0.000000e+00
0.000000e+00
0.000000e+00
0.000000e+00
0.000000e+00
0.000000e+00
0.000000e+00
0.000000e+00
0.000000e+00
0.000000e+00
0.000000e+00
0.000000e+00
0.000000e+00
0.000000e+00
0.000000e+00
0.000000e+00
0.000000e+00
0.000000e+00
0.000000e+00
0.000000e+00
0.000000e+00
0.000000e+00
0.000000e+00
0.000000e+00
0.000000e+00
0.000000e+00
6.250000e+00
6.250000e+00
6.250000e+00
6.250000e+00
6.250000e+00
6.250000e+00
6.250000e+00
6.250000e+00
6.250000e+00
6.250000e+00
6.250000e+00
6.250000e+00
6.250000e+00
6.250000e+00
6.250000e+00
6.250000e+00
6.250000e+00
6.250000e+00
6.250000e+00
6.250000e+00
6.250000e+00
6.250000e+00
6.250000e+00
6.250000e+00
6.250000e+00
6.250000e+00
6.250000e+00
6.250000e+00
6.250000e+00
6.250000e+00
6.250000e+00
6.250000e+00
6.250000e+00
1.250000e+01
1.250000e+01
1.250000e+01
1.250000e+01
1.250000e+01
1.250000e+01
1.250000e+01
1.250000e+01
1.250000e+01
1.250000e+01
1.250000e+01
1.250000e+01
1.250000e+01
1.250000e+01
1.250000e+01
1.250000e+01
1.250000e+01
1.250000e+01
1.250000e+01
1.250000e+01
1.250000e+01
1.250000e+01
1.250000e+01
1.250000e+01
1.250000e+01
1.250000e+01
1.250000e+01
1.250000e+01
1.250000e+01
1.250000e+01
1.250000e+01
1.250000e+01
1.250000e+01
1.875000e+01
1.875000e+01
1.875000e+01
1.875000e+01
1.875000e+01
1.875000e+01
1.875000e+01
1.875000e+01
1.875000e+01
1.875000e+01
1.875000e+01
1.875000e+01
1.875000e+01
1.875000e+01
1.875000e+01
1.875000e+01
1.875000e+01
1.875000e+01
1.875000e+01
1.875000e+01
1.875000e+01
1.875000e+01
1.875000e+01
1.875000e+01
1.875000e+01
1.875000e+01
1.875000e+01
1.875000e+01
1.875000e+01
1.875000e+01
1.875000e+01
1.875000e+01
1.875000e+01
2.500000e+01
2.500000e+01
2.500000e+01
2.500000e+01
2.500000e+01
2.500000e+01
2.500000e+01
2.500000e+01
2.500000e+01
2.500000e+01
2.500000e+01
2.500000e+01
2.500000e+01
2.500000e+01
2.500000e+01
2.500000e+01
2.500000e+01
2.500000e+01
2.500000e+01
2.500000e+01
2.500000e+01
2.500000e+01
2.500000e+01
2.500000e+01
2.500000e+01
2.500000e+01
2.500000e+01
2.500000e+01
2.500000e+01
2.500000e+01
2.500000e+01
2.500000e+01
2.500000e+01
3.125000e+01
3.125000e+01
3.125000e+01
3.125000e+01
3.125000e+01
3.125000e+01
3.125000e+01
3.125000e+01
3.125000e+01
3.125000e+01
3.125000e+01
3.125000e+01
3.125000e+01
3.125000e+01
3.125000e+01
3.125000e+01
3.125000e+01
3.125000e+01
3.125000e+01
3.125000e+01
3.125000e+01
3.125000e+01
3.125000e+01
3.125000e+01
3.125000e+01
3.125000e+01
3.125000e+01
3.125000e+01
3.125000e+01
3.125000e+01
3.125000e+01
3.125000e+01
3.125000e+01
3.750000e+01
3.750000e+01
3.750000e+01
3.750000e+01
3.750000e+01
3.750000e+01
3.750000e+01
3.750000e+01
3.750000e+01
3.750000e+01
3.750000e+01
3.750000e+01
3.750000e+01
3.750000e+01
3.750000e+01
3.750000e+01
3.750000e+01
3.750000e+01
3.750000e+01
3.750000e+01
3.750000e+01
3.750000e+01
3.750000e+01
3.750000e+01
3.750000e+01
3.750000e+01
3.750000e+01
3.750000e+01
3.750000e+01
3.750000e+01
3.750000e+01
3.750000e+01
3.750000e+01
4.375000e+01
4.375000e+01
4.375000e+01
4.375000e+01
4.375000e+01
4.375000e+01
4.375000e+01
4.375000e+01
4.375000e+01
4.375000e+01
4.375000e+01
4.375000e+01
4.375000e+01
4.375000e+01
4.375000e+01
4.375000e+01
4.375000e+01
4.375000e+01
4.375000e+01
4.375000e+01
4.375000e+01
4.375000e+01
4.375000e+01
4.375000e+01
4.375000e+01
4.375000e+01
4.375000e+01
4.375000e+01
4.375000e+01
4.375000e+01
4.375000e+01
4.375000e+01
4.375000e+01
5.000000e+01
5.000000e+01
5.000000e+01
5.000000e+01
5.000000e+01
5.000000e+01
5.000000e+01
5.000000e+01
5.000000e+01
5.000000e+01
5.000000e+01
5.000000e+01
5.000000e+01
5.000000e+01
5.000000e+01
5.000000e+01
5.000000e+01
5.000000e+01
5.000000e+01
5.000000e+01
5.000000e+01
5.000000e+01
5.000000e+01
5.000000e+01
5.000000e+01
5.000000e+01
5.000000e+01
5.000000e+01
5.000000e+01
5.000000e+01
5.000000e+01
5.000000e+01
5.000000e+01
5.625000e+01
5.625000e+01
5.625000e+01
5.625000e+01
5.625000e+01
5.625000e+01
5.625000e+01
5.625000e+01
5.625000e+01
5.625000e+01
5.625000e+01
5.625000e+01
5.625000e+01
5.625000e+01
5.625000e+01
5.625000e+01
5.625000e+01
5.625000e+01
5.625000e+01
5.625000e+01
5.625000e+01
5.625000e+01
5.625000e+01
5.625000e+01
5.625000e+01
5.625000e+01
5.625000e+01
5.625000e+01
5.625000e+01
5.625000e+01
5.625000e+01
5.625000e+01
5.625000e+01
6.250000e+01
6.250000e+01
6.250000e+01
6.250000e+01
6.250000e+01
6.250000e+01
6.250000e+01
6.250000e+01
6.250000e+01
6.250000e+01
6.250000e+01
6.250000e+01
6.250000e+01
6.250000e+01
6.250000e+01
6.250000e+01
6.250000e+01
6.250000e+01
6.250000e+01
6.250000e+01
6.250000e+01
6.250000e+01
6.250000e+01
6.250000e+01
6.250000e+01
6.250000e+01
6.250000e+01
6.250000e+01
6.250000e+01
6.250000e+01
6.250000e+01
6.250000e+01
6.250000e+01
6.875000e+01
6.875000e+01
6.875000e+01
6.875000e+01
6.875000e+01
6.875000e+01
6.875000e+01
6.875000e+01
6.875000e+01
6.875000e+01
6.875000e+01
6.875000e+01
6.875000e+01
6.875000e+01
6.875000e+01
6.875000e+01
6.875000e+01
6.875000e+01
6.875000e+01
6.875000e+01
6.875000e+01
6.875000e+01
6.875000e+01
6.875000e+01
6.875000e+01
6.875000e+01
6.875000e+01
6.875000e+01
6.875000e+01
6.875000e+01
6.875000e+01
6.875000e+01
6.875000e+01
7.500000e+01
7.500000e+01
7.500000e+01
7.500000e+01
7.500000e+01
7.500000e+01
7.500000e+01
7.500000e+01
7.500000e+01
7.500000e+01
7.500000e+01
7.500000e+01
7.500000e+01
7.500000e+01
7.500000e+01
7.500000e+01
7.500000e+01
7.500000e+01
7.500000e+01
7.500000e+01
7.500000e+01
7.500000e+01
7.500000e+01
7.500000e+01
7.500000e+01
7.500000e+01
7.500000e+01
7.500000e+01
7.500000e+01
7.500000e+01
7.500000e+01
7.500000e+01
7.500000e+01
8.125000e+01
8.125000e+01
8.125000e+01
8.125000e+01
8.125000e+01
8.125000e+01
8.125000e+01
8.125000e+01
8.125000e+01
8.125000e+01
8.125000e+01
8.125000e+01
8.125000e+01
8.125000e+01
8.125000e+01
8.125000e+01
8.125000e+01
8.125000e+01
8.125000e+01
8.125000e+01
8.125000e+01
8.125000e+01
8.125000e+01
8.125000e+01
8.125000e+01
8.125000e+01
8.125000e+01
8.125000e+01
8.125000e+01
8.125000e+01
8.125000e+01
8.125000e+01
8.125000e+01
8.750000e+01
8.750000e+01
8.750000e+01
8.750000e+01
8.750000e+01
8.750000e+01
8.750000e+01
8.750000e+01
8.750000e+01
8.750000e+01
8.750000e+01
8.750000e+01
8.750000e+01
8.750000e+01
8.750000e+01
8.750000e+01
8.750000e+01
8.750000e+01
8.750000e+01
8.750000e+01
8.750000e+01
8.750000e+01
8.750000e+01
8.750000e+01
8.750000e+01
8.750000e+01
8.750000e+01
8.750000e+01
8.750000e+01
8.750000e+01
8.750000e+01
8.750000e+01
8.750000e+01
9.375000e+01
9.375000e+01
9.375000e+01
9.375000e+01
9.375000e+01
9.375000e+01
9.375000e+01
9.375000e+01
9.375000e+01
9.375000e+01
9.375000e+01
9.375000e+01
9.375000e+01
9.375000e+01
9.375000e+01
9.375000e+01
9.375000e+01
9.375000e+01
9.375000e+01
9.375000e+01
9.375000e+01
9.375000e+01
9.375000e+01
9.375000e+01
9.375000e+01
9.375000e+01
9.375000e+01
9.375000e+01
9.375000e+01
9.375000e+01
9.375000e+01
9.375000e+01
9.375000e+01
1.000000e+02
1.000000e+02
1.000000e+02
1.000000e+02
1.000000e+02
1.000000e+02
1.000000e+02
1.000000e+02
1.000000e+02
1.000000e+02
1.000000e+02
1.000000e+02
1.000000e+02
1.000000e+02
1.000000e+02
1.000000e+02
1.000000e+02
1.000000e+02
1.000000e+02
1.000000e+02
1.000000e+02
1.000000e+02
1.000000e+02
1.000000e+02
1.000000e+02
1.000000e+02
1.000000e+02
1.000000e+02
1.000000e+02
1.000000e+02
1.000000e+02
1.000000e+02
1.000000e+02
0.000000e+00
-4.715624e-01
-7.821524e-01
-1.121957e+00
-1.423782e+00
-1.716056e+00
-2.027465e+00
-2.315342e+00
-2.615125e+00
-2.908795e+00
-3.206118e+00
-3.505001e+00
-3.804110e+00
-4.104305e+00
-4.403934e+00
-4.705836e+00
-5.007752e+00
-5.310802e+00
-5.613361e+00
-5.915364e+00
-6.217805e+00
-6.519608e+00
-6.822009e+00
-7.120096e+00
-7.413764e+00
-7.718404e+00
-8.018075e+00
-8.348345e+00
-8.667992e+00
-9.021854e+00
-9.509803e+00
-9.926452e+00
-1.013075e+01
0.000000e+00
-2.334127e-01
-4.704289e-01
-7.358374e-01
-1.001872e+00
-1.254683e+00
-1.524498e+00
-1.784839e+00
-2.047283e+00
-2.312390e+00
-2.572702e+00
-2.837950e+00
-3.098318e+00
-3.362136e+00
-3.623641e+00
-3.885745e+00
-4.148267e+00
-4.409006e+00
-4.671703e+00
-4.932100e+00
-5.194166e+00
-5.454583e+00
-5.716107e+00
-5.976234e+00
-6.237618e+00
-6.498452e+00
-6.758152e+00
-7.022138e+00
-7.276704e+00
-7.533895e+00
-7.787679e+00
-7.888605e+00
-7.994415e+00
0.000000e+00
-1.032349e-01
-2.387987e-01
-4.351495e-01
-6.534913e-01
-8.608212e-01
-1.086937e+00
-1.314023e+00
-1.541101e+00
-1.772781e+00
-1.996327e+00
-2.224096e+00
-2.446172e+00
-2.671314e+00
-2.894863e+00
-3.117131e+00
-3.339922e+00
-3.560895e+00
-3.784354e+00
-4.006988e+00
-4.231504e+00
-4.454835e+00
-4.679084e+00
-4.907361e+00
-5.137315e+00
-5.360134e+00
-5.572723e+00
-5.770191e+00
-5.949762e+00
-6.098796e+00
-6.185900e+00
-6.191349e+00
-6.284240e+00
0.000000e+00
-1.024710e-01
-1.860552e-01
-3.406683e-01
-4.635900e-01
-6.187324e-01
-7.956087e-01
-9.652352e-01
-1.158013e+00
-1.335940e+00
-1.521036e+00
-1.703911e+00
-1.886065e+00
-2.071480e+00
-2.255512e+00
-2.440979e+00
-2.626245e+00
-2.813645e+00
-3.003313e+00
-3.194664e+00
-3.388369e+00
-3.581498e+00
-3.775566e+00
-3.970108e+00
-4.156029e+00
-4.330295e+00
-4.480072e+00
-4.612436e+00
-4.713363e+00
-4.776640e+00
-4.791719e+00
-4.808942e+00
-4.889473e+00
0.000000e+00
-9.292272e-02
-1.843594e-01
-2.753096e-01
-3.885433e-01
-5.043266e-01
-6.365054e-01
-7.707917e-01
-9.156297e-01
-1.056899e+00
-1.202874e+00
-1.348491e+00
-1.492207e+00
-1.641041e+00
-1.785064e+00
-1.934236e+00
-2.080927e+00
-2.229943e+00
-2.379768e+00
-2.528537e+00
-2.678614e+00
-2.824981e+00
-2.969188e+00
-3.106502e+00
-3.234819e+00
-3.348941e+00
-3.446049e+00
-3.520172e+00
-3.568715e+00
-3.593050e+00
-3.596360e+00
-3.626249e+00
-3.697798e+00
0.000000e+00
-7.434267e-02
-1.457528e-01
-2.207049e-01
-3.020812e-01
-3.915053e-01
-4.862484e-01
-5.874973e-01
-6.912160e-01
-7.989958e-01
-9.065174e-01
-1.015253e+00
-1.124077e+00
-1.232227e+00
-1.341532e+00
-1.449805e+00
-1.558935e+00
-1.667206e+00
-1.775025e+00
-1.881635e+00
-1.985680e+00
-2.086529e+00
-2.181426e+00
-2.268975e+00
-2.346523e+00
-2.412127e+00
-2.463483e+00
-2.498494e+00
-2.520942e+00
-2.521192e+00
-2.516571e+00
-2.543186e+00
-2.609069e+00
0.000000e+00
-5.122343e-02
-1.019030e-01
-1.537104e-01
-2.091063e-01
-2.683948e-01
-3.317597e-01
-3.981473e-01
-4.673320e-01
-5.379853e-01
-6.096328e-01
-6.813889e-01
-7.529679e-01
-8.243303e-01
-8.952075e-01
-9.658309e-01
-1.035686e+00
-1.104655e+00
-1.172131e+00
-1.237480e+00
-1.299830e+00
-1.357796e+00
-1.409973e+00
-1.454558e+00
-1.490450e+00
-1.515456e+00
-1.529291e+00
-1.534418e+00
-1.518156e+00
-1.488663e+00
-1.477597e+00
-1.501145e+00
-1.565582e+00
0.000000e+00
-2.699898e-02
-5.384713e-02
-8.126986e-02
-1.099775e-01
-1.404240e-01
-1.724964e-01
-2.060424e-01
-2.406330e-01
-2.759340e-01
-3.114083e-01
-3.467093e-01
-3.815484e-01
-4.157574e-01
-4.492905e-01
-4.819777e-01
-5.136203e-01
-5.438181e-01
-5.722141e-01
-5.983015e-01
-6.213745e-01
-6.405683e-01
-6.546378e-01
-6.626408e-01
-6.629478e-01
-6.561601e-01
-6.400880e-01
-6.017557e-01
-5.520866e-01
-5.008974e-01
-4.746114e-01
-4.979699e-01
-5.650592e-01
0.000000e+00
-1.982808e-03
-4.012401e-03
-6.003156e-03
-7.844044e-03
-9.411896e-03
-1.064069e-02
-1.152700e-02
-1.211145e-02
-1.237015e-02
-1.221127e-02
-1.149161e-02
-1.006663e-02
-7.764943e-03
-4.373547e-03
2.291273e-04
6.289097e-03
1.420836e-02
2.408766e-02
3.585593e-02
5.000708e-02
6.694813e-02
8.656775e-02
1.113832e-01
1.420205e-01
1.829900e-01
2.428230e-01
3.147681e-01
3.879587e-01
4.390562e-01
4.548260e-01
4.225754e-01
3.431507e-01
0.000000e+00
2.318129e-02
4.613771e-02
6.974343e-02
9.495127e-02
1.224676e-01
1.523466e-01
1.843443e-01
2.179269e-01
2.526567e-01
2.881700e-01
3.243152e-01
3.610878e-01
3.988862e-01
4.382185e-01
4.794495e-01
5.230242e-01
5.688276e-01
6.167308e-01
6.661409e-01
7.162325e-01
7.677338e-01
8.230109e-01
8.821669e-01
9.497720e-01
1.032953e+00
1.122624e+00
1.213899e+00
1.288132e+00
1.331956e+00
1.329407e+00
1.283998e+00
1.221214e+00
0.000000e+00
4.780441e-02
9.507685e-02
1.435864e-01
1.960222e-01
2.531073e-01
3.150234e-01
3.806984e-01
4.493366e-01
5.196340e-01
5.907423e-01
6.618535e-01
7.329836e-01
8.048128e-01
8.784234e-01
9.554578e-01
1.036332e+00
1.120113e+00
1.205596e+00
1.292489e+00
1.381815e+00
1.471512e+00
1.563792e+00
1.666299e+00
1.775029e+00
1.885873e+00
1.995374e+00
2.084640e+00
2.148852e+00
2.175548e+00
2.167950e+00
2.137915e+00
2.093822e+00
0.000000e+00
7.137231e-02
1.400585e-01
2.126861e-01
2.922180e-01
3.806903e-01
4.757754e-01
5.771041e-01
6.816972e-01
7.895678e-01
8.979561e-01
1.006813e+00
1.115382e+00
1.224266e+00
1.334142e+00
1.444782e+00
1.558859e+00
1.675938e+00
1.795318e+00
1.917953e+00
2.046451e+00
2.182635e+00
2.324736e+00
2.466950e+00
2.605023e+00
2.734134e+00
2.846330e+00
2.935540e+00
2.991375e+00
3.019537e+00
3.023041e+00
3.005006e+00
2.977434e+00
0.000000e+00
9.015685e-02
1.790336e-01
2.689654e-01
3.828656e-01
5.017928e-01
6.344515e-01
7.722224e-01
9.159979e-01
1.059845e+00
1.206475e+00
1.353353e+00
1.500688e+00
1.652037e+00
1.803054e+00
1.958087e+00
2.113939e+00
2.274137e+00
2.439186e+00
2.605477e+00
2.774563e+00
2.946249e+00
3.116267e+00
3.280870e+00
3.434168e+00
3.575030e+00
3.695670e+00
3.786805e+00
3.853485e+00
3.892734e+00
3.905707e+00
3.899193e+00
3.884679e+00
0.000000e+00
9.878177e-02
1.798000e-01
3.318972e-01
4.589075e-01
6.218494e-01
8.040586e-01
9.740512e-01
1.167557e+00
1.345293e+00
1.528812e+00
1.709218e+00
1.892110e+00
2.081675e+00
2.275776e+00
2.476804e+00
2.680312e+00
2.886073e+00
3.096346e+00
3.309520e+00
3.520008e+00
3.724628e+00
3.920820e+00
4.105344e+00
4.280064e+00
4.437620e+00
4.572876e+00
4.679808e+00
4.756407e+00
4.804235e+00
4.826466e+00
4.829291e+00
4.824554e+00
0.000000e+00
1.009717e-01
2.323481e-01
4.210422e-01
6.378701e-01
8.476081e-01
1.078941e+00
1.309714e+00
1.539457e+00
1.774174e+00
1.998255e+00
2.224511e+00
2.446430e+00
2.672789e+00
2.901130e+00
3.132505e+00
3.365856e+00
3.596723e+00
3.828450e+00
4.061063e+00
4.295309e+00
4.524273e+00
4.745013e+00
4.966203e+00
5.176776e+00
5.363062e+00
5.512740e+00
5.627550e+00
5.710084e+00
5.762993e+00
5.790710e+00
5.799773e+00
5.800890e+00
0.000000e+00
2.337399e-01
4.716978e-01
7.364402e-01
1.001866e+00
1.254169e+00
1.523255e+00
1.783861e+00
2.045811e+00
2.310425e+00
2.570346e+00
2.834486e+00
3.094001e+00
3.355922e+00
3.615812e+00
3.875546e+00
4.135472e+00
4.392867e+00
4.650616e+00
4.904701e+00
5.159998e+00
5.413524e+00
5.666852e+00
5.925114e+00
6.168505e+00
6.369284e+00
6.526858e+00
6.643768e+00
6.724036e+00
6.773275e+00
6.798431e+00
6.807542e+00
6.809782e+00
0.000000e+00
4.728023e-01
7.892502e-01
1.134313e+00
1.439151e+00
1.729631e+00
2.037699e+00
2.322679e+00
2.619794e+00
2.910476e+00
3.206104e+00
3.505156e+00
3.802585e+00
4.100155e+00
4.393202e+00
4.684173e+00
4.972414e+00
5.261889e+00
5.552202e+00
5.840298e+00
6.127444e+00
6.416058e+00
6.707370e+00
7.000072e+00
7.264978e+00
7.475819e+00
7.634097e+00
7.743078e+00
7.808005e+00
7.837140e+00
7.842221e+00
7.837587e+00
7.835029e+00
0.000000e+00
-2.790153e-01
-5.889122e-01
-9.850474e-01
-1.416760e+00
-1.886026e+00
-2.395826e+00
-2.936313e+00
-3.512548e+00
-4.120344e+00
-4.762208e+00
-5.440123e+00
-6.154201e+00
-6.906606e+00
-7.695769e+00
-8.523768e+00
-9.390264e+00
-1.029657e+01
-1.124273e+01
-1.222829e+01
-1.325379e+01
-1.431916e+01
-1.542574e+01
-1.657247e+01
-1.775703e+01
-1.898075e+01
-2.024799e+01
-2.156891e+01
-2.295053e+01
-2.441308e+01
-2.597356e+01
-2.778157e+01
-3.031970e+01
0.000000e+00
-1.799890e-01
-5.084759e-01
-8.972930e-01
-1.335754e+00
-1.801609e+00
-2.311303e+00
-2.853815e+00
-3.428324e+00
-4.037223e+00
-4.678016e+00
-5.356344e+00
-6.070105e+00
-6.822674e+00
-7.611896e+00
-8.439537e+00
-9.306273e+00
-1.021227e+01
-1.115872e+01
-1.214416e+01
-1.316973e+01
-1.423482e+01
-1.534149e+01
-1.648888e+01
-1.767333e+01
-1.889655e+01
-2.016227e+01
-2.148158e+01
-2.286455e+01
-2.431821e+01
-2.589805e+01
-2.769317e+01
-2.994448e+01
0.000000e+00
-1.589248e-01
-4.495036e-01
-8.407741e-01
-1.269125e+00
-1.732713e+00
-2.240464e+00
-2.780825e+00
-3.356559e+00
-3.964378e+00
-4.606134e+00
-5.284606e+00
-5.998639e+00
-6.751253e+00
-7.541093e+00
-8.368787e+00
-9.235840e+00
-1.014175e+01
-1.108800e+01
-1.207340e+01
-1.309889e+01
-1.416360e+01
-1.526895e+01
-1.641554e+01
-1.760091e+01
-1.882690e+01
-2.009451e+01
-2.141890e+01
-2.280573e+01
-2.427987e+01
-2.590252e+01
-2.758730e+01
-2.933581e+01
0.000000e+00
-2.040003e-01
-4.495382e-01
-8.370959e-01
-1.234183e+00
-1.687029e+00
-2.193210e+00
-2.720844e+00
-3.302671e+00
-3.904911e+00
-4.549457e+00
-5.228157e+00
-5.940972e+00
-6.695745e+00
-7.483997e+00
-8.313741e+00
-9.179759e+00
-1.008586e+01
-1.103187e+01
-1.201627e+01
-1.304255e+01
-1.410628e+01
-1.521074e+01
-1.635713e+01
-1.754461e+01
-1.877676e+01
-2.005046e+01
-2.138209e+01
-2.277777e+01
-2.427128e+01
-2.588682e+01
-2.743645e+01
-2.883557e+01
0.000000e+00
-2.202496e-01
-4.880467e-01
-8.326225e-01
-1.232056e+00
-1.667430e+00
-2.164113e+00
-2.686033e+00
-3.262851e+00
-3.864956e+00
-4.508450e+00
-5.188805e+00
-5.900457e+00
-6.657359e+00
-7.444311e+00
-8.275494e+00
-9.141050e+00
-1.004695e+01
-1.099308e+01
-1.197675e+01
-1.300345e+01
-1.406726e+01
-1.517295e+01
-1.632029e+01
-1.751126e+01
-1.874667e+01
-2.002847e+01
-2.136380e+01
-2.276205e+01
-2.425100e+01
-2.578688e+01
-2.723538e+01
-2.850137e+01
0.000000e+00
-2.272219e-01
-5.044197e-01
-8.385638e-01
-1.225797e+00
-1.660589e+00
-2.142561e+00
-2.666797e+00
-3.233424e+00
-3.838014e+00
-4.479828e+00
-5.159350e+00
-5.874680e+00
-6.628442e+00
-7.419190e+00
-8.248198e+00
-9.115621e+00
-1.002176e+01
-1.096787e+01
-1.195362e+01
-1.298006e+01
-1.404677e+01
-1.515451e+01
-1.630453e+01
-1.749771e+01
-1.873497e+01
-2.001922e+01
-2.135408e+01
-2.274149e+01
-2.419017e+01
-2.563163e+01
-2.699989e+01
-2.820406e+01
0.000000e+00
-2.309201e-01
-5.106188e-01
-8.417813e-01
-1.223837e+00
-1.654566e+00
-2.131826e+00
-2.653289e+00
-3.216895e+00
-3.820369e+00
-4.462318e+00
-5.141778e+00
-5.858486e+00
-6.612490e+00
-7.404043e+00
-8.233600e+00
-9.101662e+00
-1.000895e+01
-1.095605e+01
-1.194352e+01
-1.297173e+01
-1.404096e+01
-1.515157e+01
-1.630384e+01
-1.749843e+01
-1.873589e+01
-2.001622e+01
-2.134749e+01
-2.270306e+01
-2.410050e+01
-2.547640e+01
-2.677680e+01
-2.791855e+01
0.000000e+00
-2.323188e-01
-5.129395e-01
-8.432352e-01
-1.223265e+00
-1.651834e+00
-2.127136e+00
-2.647106e+00
-3.209669e+00
-3.812887e+00
-4.455165e+00
-5.135425e+00
-5.853039e+00
-6.607880e+00
-7.400140e+00
-8.230371e+00
-9.099326e+00
-1.000772e+01
-1.095619e+01
-1.194533e+01
-1.297557e+01
-1.404715e+01
-1.516002e+01
-1.631416e+01
-1.750803e+01
-1.874518e+01
-2.001781e+01
-2.132985e+01
-2.265089e+01
-2.399535e+01
-2.532478e+01
-2.656753e+01
-2.765350e+01
0.000000e+00
-2.326078e-01
-5.135335e-01
-8.438584e-01
-1.223740e+00
-1.652230e+00
-2.127616e+00
-2.647856e+00
-3.210910e+00
-3.814904e+00
-4.458243e+00
-5.139670e+00
-5.858417e+00
-6.614229e+00
-7.407258e+00
-8.238138e+00
-9.108001e+00
-1.001758e+01
-1.096722e+01
-1.195769e+01
-1.298962e+01
-1.406265e+01
-1.517687e+01
-1.633148e+01
-1.752471e+01
-1.875635e+01
-2.001464e+01
-2.129763e+01
-2.259433e+01
-2.388807e+01
-2.515838e+01
-2.632599e+01
-2.731861e+01
0.000000e+00
-2.321534e-01
-5.129916e-01
-8.439761e-01
-1.225286e+00
-1.655697e+00
-2.133172e+00
-2.655431e+00
-3.220359e+00
-3.826138e+00
-4.471196e+00
-5.154155e+00
-5.874150e+00
-6.631093e+00
-7.425046e+00
-8.256415e+00
-9.127359e+00
-1.003823e+01
-1.098882e+01
-1.197948e+01
-1.301269e+01
-1.408592e+01
-1.519851e+01
-1.635485e+01
-1.754090e+01
-1.876071e+01
-2.000179e+01
-2.126198e+01
-2.252944e+01
-2.378604e+01
-2.499119e+01
-2.609221e+01
-2.705117e+01
0.000000e+00
-2.306740e-01
-5.107850e-01
-8.432559e-01
-1.227926e+00
-1.662499e+00
-2.144227e+00
-2.670223e+00
-3.238326e+00
-3.846669e+00
-4.493886e+00
-5.178387e+00
-5.899393e+00
-6.657643e+00
-7.452601e+00
-8.285036e+00
-9.157389e+00
-1.006961e+01
-1.102108e+01
-1.201084e+01
-1.304327e+01
-1.411450e+01
-1.522496e+01
-1.637489e+01
-1.755223e+01
-1.875681e+01
-1.998658e+01
-2.122474e+01
-2.246653e+01
-2.368226e+01
-2.484167e+01
-2.591069e+01
-2.685900e+01
0.000000e+00
-2.270082e-01
-5.048523e-01
-8.408092e-01
-1.231944e+00
-1.673274e+00
-2.161936e+00
-2.693039e+00
-3.265794e+00
-3.877216e+00
-4.526432e+00
-5.212252e+00
-5.933479e+00
-6.692755e+00
-7.488847e+00
-8.323490e+00
-9.197695e+00
-1.011090e+01
-1.106239e+01
-1.205102e+01
-1.307913e+01
-1.414625e+01
-1.525097e+01
-1.639096e+01
-1.755899e+01
-1.875408e+01
-1.997191e+01
-2.119712e+01
-2.241199e+01
-2.359839e+01
-2.472839e+01
-2.578143e+01
-2.673372e+01
0.000000e+00
-2.199303e-01
-4.888244e-01
-8.360193e-01
-1.240255e+00
-1.686862e+00
-2.190567e+00
-2.723409e+00
-3.305246e+00
-3.917490e+00
-4.569053e+00
-5.255868e+00
-5.976232e+00
-6.738264e+00
-7.534624e+00
-8.372857e+00
-9.248031e+00
-1.016031e+01
-1.111020e+01
-1.209550e+01
-1.311874e+01
-1.418003e+01
-1.527677e+01
-1.640738e+01
-1.756821e+01
-1.875955e+01
-1.997158e+01
-2.118204e+01
-2.237702e+01
-2.353817e+01
-2.464956e+01
-2.569563e+01
-2.666264e+01
0.000000e+00
-2.027170e-01
-4.501448e-01
-8.413483e-01
-1.247139e+00
-1.712596e+00
-2.229955e+00
-2.766306e+00
-3.355999e+00
-3.967597e+00
-4.620314e+00
-5.306428e+00
-6.029190e+00
-6.793015e+00
-7.592784e+00
-8.432556e+00
-9.307706e+00
-1.021817e+01
-1.116468e+01
-1.214614e+01
-1.316410e+01
-1.421815e+01
-1.530617e+01
-1.642960e+01
-1.759164e+01
-1.878295e+01
-1.998789e+01
-2.118317e+01
-2.235924e+01
-2.350203e+01
-2.459991e+01
-2.564459e+01
-2.663189e+01
0.000000e+00
-1.561048e-01
-4.480893e-01
-8.444059e-01
-1.284566e+00
-1.761645e+00
-2.281746e+00
-2.830989e+00
-3.415350e+00
-4.030948e+00
-4.679913e+00
-5.366633e+00
-6.091163e+00
-6.856034e+00
-7.658814e+00
-8.498311e+00
-9.373168e+00
-1.028182e+01
-1.122632e+01
-1.220508e+01
-1.321858e+01
-1.426620e+01
-1.534707e+01
-1.647152e+01
-1.763605e+01
-1.882453e+01
-2.001542e+01
-2.119716e+01
-2.235779e+01
-2.348635e+01
-2.457428e+01
-2.561902e+01
-2.662669e+01
0.000000e+00
-1.766489e-01
-5.061087e-01
-9.011631e-01
-1.351941e+00
-1.831896e+00
-2.353616e+00
-2.905830e+00
-3.488568e+00
-4.104890e+00
-4.752325e+00
-5.439052e+00
-6.163707e+00
-6.929159e+00
-7.732268e+00
-8.571701e+00
-9.445522e+00
-1.035275e+01
-1.129610e+01
-1.227350e+01
-1.328523e+01
-1.432972e+01
-1.541111e+01
-1.653665e+01
-1.769775e+01
-1.887387e+01
-2.005157e+01
-2.122021e+01
-2.236838e+01
-2.348582e+01
-2.456597e+01
-2.560981e+01
-2.663138e+01
0.000000e+00
-2.764749e-01
-5.876368e-01
-9.897357e-01
-1.433142e+00
-1.915830e+00
-2.437725e+00
-2.988099e+00
-3.572527e+00
-4.187662e+00
-4.836446e+00
-5.522838e+00
-6.247495e+00
-7.012529e+00
-7.814869e+00
-8.653890e+00
-9.526844e+00
-1.043404e+01
-1.137648e+01
-1.235340e+01
-1.336467e+01
-1.440942e+01