TITLE = "Solution"
VARIABLES = x, y, u, v, psiu, psiv, t, stress
ZONE T="structure" N=561 E=512 F=FEBLOCK ET=QUADRILATERAL VARLOCATION=([7,8]=cellcentered)
0.000000e+00
6.250000e+00
1.250000e+01
1.875000e+01
2.500000e+01
3.125000e+01
3.750000e+01
4.375000e+01
5.000000e+01
5.625000e+01
6.250000e+01
6.875000e+01
7.500000e+01
8.125000e+01
8.750000e+01
9.375000e+01
1.000000e+02
1.062500e+02
1.125000e+02
1.187500e+02
1.250000e+02
1.312500e+02
1.375000e+02
1.437500e+02
1.500000e+02
1.562500e+02
1.625000e+02
1.687500e+02
1.750000e+02
1.812500e+02
1.875000e+02
1.937500e+02
2.000000e+02
0.000000e+00
6.250000e+00
1.250000e+01
1.875000e+01
2.500000e+01
3.125000e+01
3.750000e+01
4.375000e+01
5.000000e+01
5.625000e+01
6.250000e+01
6.875000e+01
7.500000e+01
8.125000e+01
8.750000e+01
9.375000e+01
1.000000e+02
1.062500e+02
1.125000e+02
1.187500e+02
1.250000e+02
1.312500e+02
1.375000e+02
1.437500e+02
1.500000e+02
1.562500e+02
1.625000e+02
1.687500e+02
1.750000e+02
1.812500e+02
1.875000e+02
1.937500e+02
2.000000e+02
0.000000e+00
6.250000e+00
1.250000e+01
1.875000e+01
2.500000e+01
3.125000e+01
3.750000e+01
4.375000e+01
5.000000e+01
5.625000e+01
6.250000e+01
6.875000e+01
7.500000e+01
8.125000e+01
8.750000e+01
9.375000e+01
1.000000e+02
1.062500e+02
1.125000e+02
1.187500e+02
1.250000e+02
1.312500e+02
1.375000e+02
1.437500e+02
1.500000e+02
1.562500e+02
1.625000e+02
1.687500e+02
1.750000e+02
1.812500e+02
1.875000e+02
1.937500e+02
2.000000e+02
0.000000e+00
6.250000e+00
1.250000e+01
1.875000e+01
2.500000e+01
3.125000e+01
3.750000e+01
4.375000e+01
5.000000e+01
5.625000e+01
6.250000e+01
6.875000e+01
7.500000e+01
8.125000e+01
8.750000e+01
9.375000e+01
1.000000e+02
1.062500e+02
1.125000e+02
1.187500e+02
1.250000e+02
1.312500e+02
1.375000e+02
1.437500e+02
1.500000e+02
1.562500e+02
1.625000e+02
1.687500e+02
1.750000e+02
1.812500e+02
1.875000e+02
1.937500e+02
2.000000e+02
0.000000e+00
6.250000e+00
1.250000e+01
1.875000e+01
2.500000e+01
3.125000e+01
3.750000e+01
4.375000e+01
5.000000e+01
5.625000e+01
6.250000e+01
6.875000e+01
7.500000e+01
8.125000e+01
8.750000e+01
9.375000e+01
1.000000e+02
1.062500e+02
1.125000e+02
1.187500e+02
1.250000e+02
1.312500e+02
1.375000e+02
1.437500e+02
1.500000e+02
1.562500e+02
1.625000e+02
1.687500e+02
1.750000e+02
1.812500e+02
1.875000e+02
1.937500e+02
2.000000e+02
0.000000e+00
6.250000e+00
1.250000e+01
1.875000e+01
2.500000e+01
3.125000e+01
3.750000e+01
4.375000e+01
5.000000e+01
5.625000e+01
6.250000e+01
6.875000e+01
7.500000e+01
8.125000e+01
8.750000e+01
9.375000e+01
1.000000e+02
1.062500e+02
1.125000e+02
1.187500e+02
1.250000e+02
1.312500e+02
1.375000e+02
1.437500e+02
1.500000e+02
1.562500e+02
1.625000e+02
1.687500e+02
1.750000e+02
1.812500e+02
1.875000e+02
1.937500e+02
2.000000e+02
0.000000e+00
6.250000e+00
1.250000e+01
1.875000e+01
2.500000e+01
3.125000e+01
3.750000e+01
4.375000e+01
5.000000e+01
5.625000e+01
6.250000e+01
6.875000e+01
7.500000e+01
8.125000e+01
8.750000e+01
9.375000e+01
1.000000e+02
1.062500e+02
1.125000e+02
1.187500e+02
1.250000e+02
1.312500e+02
1.375000e+02
1.437500e+02
1.500000e+02
1.562500e+02
1.625000e+02
1.687500e+02
1.750000e+02
1.812500e+02
1.875000e+02
1.937500e+02
2.000000e+02
0.000000e+00
6.250000e+00
1.250000e+01
1.875000e+01
2.500000e+01
3.125000e+01
3.750000e+01
4.375000e+01
5.000000e+01
5.625000e+01
6.250000e+01
6.875000e+01
7.500000e+01
8.125000e+01
8.750000e+01
9.375000e+01
1.000000e+02
1.062500e+02
1.125000e+02
1.187500e+02
1.250000e+02
1.312500e+02
1.375000e+02
1.437500e+02
1.500000e+02
1.562500e+02
1.625000e+02
1.687500e+02
1.750000e+02
1.812500e+02
1.875000e+02
1.937500e+02
2.000000e+02
0.000000e+00
6.250000e+00
1.250000e+01
1.875000e+01
2.500000e+01
3.125000e+01
3.750000e+01
4.375000e+01
5.000000e+01
5.625000e+01
6.250000e+01
6.875000e+01
7.500000e+01
8.125000e+01
8.750000e+01
9.375000e+01
1.000000e+02
1.062500e+02
1.125000e+02
1.187500e+02
1.250000e+02
1.312500e+02
1.375000e+02
1.437500e+02
1.500000e+02
1.562500e+02
1.625000e+02
1.687500e+02
1.750000e+02
1.812500e+02
1.875000e+02
1.937500e+02
2.000000e+02
0.000000e+00
6.250000e+00
1.250000e+01
1.875000e+01
2.500000e+01
3.125000e+01
3.750000e+01
4.375000e+01
5.000000e+01
5.625000e+01
6.250000e+01
6.875000e+01
7.500000e+01
8.125000e+01
8.750000e+01
9.375000e+01
1.000000e+02
1.062500e+02
1.125000e+02
1.187500e+02
1.250000e+02
1.312500e+02
1.375000e+02
1.437500e+02
1.500000e+02
1.562500e+02
1.625000e+02
1.687500e+02
1.750000e+02
1.812500e+02
1.875000e+02
1.937500e+02
2.000000e+02
0.000000e+00
6.250000e+00
1.250000e+01
1.875000e+01
2.500000e+01
3.125000e+01
3.750000e+01
4.375000e+01
5.000000e+01
5.625000e+01
6.250000e+01
6.875000e+01
7.500000e+01
8.125000e+01
8.750000e+01
9.375000e+01
1.000000e+02
1.062500e+02
1.125000e+02
1.187500e+02
1.250000e+02
1.312500e+02
1.375000e+02
1.437500e+02
1.500000e+02
1.562500e+02
1.625000e+02
1.687500e+02
1.750000e+02
1.812500e+02
1.875000e+02
1.937500e+02
2.000000e+02
0.000000e+00
6.250000e+00
1.250000e+01
1.875000e+01
2.500000e+01
3.125000e+01
3.750000e+01
4.375000e+01
5.000000e+01
5.625000e+01
6.250000e+01
6.875000e+01
7.500000e+01
8.125000e+01
8.750000e+01
9.375000e+01
1.000000e+02
1.062500e+02
1.125000e+02
1.187500e+02
1.250000e+02
1.312500e+02
1.375000e+02
1.437500e+02
1.500000e+02
1.562500e+02
1.625000e+02
1.687500e+02
1.750000e+02
1.812500e+02
1.875000e+02
1.937500e+02
2.000000e+02
0.000000e+00
6.250000e+00
1.250000e+01
1.875000e+01
2.500000e+01
3.125000e+01
3.750000e+01
4.375000e+01
5.000000e+01
5.625000e+01
6.250000e+01
6.875000e+01
7.500000e+01
8.125000e+01
8.750000e+01
9.375000e+01
1.000000e+02
1.062500e+02
1.125000e+02
1.187500e+02
1.250000e+02
1.312500e+02
1.375000e+02
1.437500e+02
1.500000e+02
1.562500e+02
1.625000e+02
1.687500e+02
1.750000e+02
1.812500e+02
1.875000e+02
1.937500e+02
2.000000e+02
0.000000e+00
6.250000e+00
1.250000e+01
1.875000e+01
2.500000e+01
3.125000e+01
3.750000e+01
4.375000e+01
5.000000e+01
5.625000e+01
6.250000e+01
6.875000e+01
7.500000e+01
8.125000e+01
8.750000e+01
9.375000e+01
1.000000e+02
1.062500e+02
1.125000e+02
1.187500e+02
1.250000e+02
1.312500e+02
1.375000e+02
1.437500e+02
1.500000e+02
1.562500e+02
1.625000e+02
1.687500e+02
1.750000e+02
1.812500e+02
1.875000e+02
1.937500e+02
2.000000e+02
0.000000e+00
6.250000e+00
1.250000e+01
1.875000e+01
2.500000e+01
3.125000e+01
3.750000e+01
4.375000e+01
5.000000e+01
5.625000e+01
6.250000e+01
6.875000e+01
7.500000e+01
8.125000e+01
8.750000e+01
9.375000e+01
1.000000e+02
1.062500e+02
1.125000e+02
1.187500e+02
1.250000e+02
1.312500e+02
1.375000e+02
1.437500e+02
1.500000e+02
1.562500e+02
1.625000e+02
1.687500e+02
1.750000e+02
1.812500e+02
1.875000e+02
1.937500e+02
2.000000e+02
0.000000e+00
6.250000e+00
1.250000e+01
1.875000e+01
2.500000e+01
3.125000e+01
3.750000e+01
4.375000e+01
5.000000e+01
5.625000e+01
6.250000e+01
6.875000e+01
7.500000e+01
8.125000e+01
8.750000e+01
9.375000e+01
1.000000e+02
1.062500e+02
1.125000e+02
1.187500e+02
1.250000e+02
1.312500e+02
1.375000e+02
1.437500e+02
1.500000e+02
1.562500e+02
1.625000e+02
1.687500e+02
1.750000e+02
1.812500e+02
1.875000e+02
1.937500e+02
2.000000e+02
0.000000e+00
6.250000e+00
1.250000e+01
1.875000e+01
2.500000e+01
3.125000e+01
3.750000e+01
4.375000e+01
5.000000e+01
5.625000e+01
6.250000e+01
6.875000e+01
7.500000e+01
8.125000e+01
8.750000e+01
9.375000e+01
1.000000e+02
1.062500e+02
1.125000e+02
1.187500e+02
1.250000e+02
1.312500e+02
1.375000e+02
1.437500e+02
1.500000e+02
1.562500e+02
1.625000e+02
1.687500e+02
1.750000e+02
1.812500e+02
1.875000e+02
1.937500e+02
2.000000e+02
0.000000e+00
0.000000e+00
0.000000e+00
0.000000e+00
0.000000e+00
0.000000e+00
0.000000e+00
0.000000e+00
0.000000e+00
0.000000e+00
0.000000e+00
0.000000e+00
0.000000e+00
0.000000e+00
0.000000e+00
0.000000e+00
0.000000e+00
0.000000e+00
0.000000e+00
0.000000e+00
0.000000e+00
0.000000e+00
0.000000e+00
0.000000e+00
0.000000e+00
0.000000e+00
0.000000e+00
0.000000e+00
0.000000e+00
0.000000e+00
0.000000e+00
0.000000e+00
0.000000e+00
6.250000e+00
6.250000e+00
6.250000e+00
6.250000e+00
6.250000e+00
6.250000e+00
6.250000e+00
6.250000e+00
6.250000e+00
6.250000e+00
6.250000e+00
6.250000e+00
6.250000e+00
6.250000e+00
6.250000e+00
6.250000e+00
6.250000e+00
6.250000e+00
6.250000e+00
6.250000e+00
6.250000e+00
6.250000e+00
6.250000e+00
6.250000e+00
6.250000e+00
6.250000e+00
6.250000e+00
6.250000e+00
6.250000e+00
6.250000e+00
6.250000e+00
6.250000e+00
6.250000e+00
1.250000e+01
1.250000e+01
1.250000e+01
1.250000e+01
1.250000e+01
1.250000e+01
1.250000e+01
1.250000e+01
1.250000e+01
1.250000e+01
1.250000e+01
1.250000e+01
1.250000e+01
1.250000e+01
1.250000e+01
1.250000e+01
1.250000e+01
1.250000e+01
1.250000e+01
1.250000e+01
1.250000e+01
1.250000e+01
1.250000e+01
1.250000e+01
1.250000e+01
1.250000e+01
1.250000e+01
1.250000e+01
1.250000e+01
1.250000e+01
1.250000e+01
1.250000e+01
1.250000e+01
1.875000e+01
1.875000e+01
1.875000e+01
1.875000e+01
1.875000e+01
1.875000e+01
1.875000e+01
1.875000e+01
1.875000e+01
1.875000e+01
1.875000e+01
1.875000e+01
1.875000e+01
1.875000e+01
1.875000e+01
1.875000e+01
1.875000e+01
1.875000e+01
1.875000e+01
1.875000e+01
1.875000e+01
1.875000e+01
1.875000e+01
1.875000e+01
1.875000e+01
1.875000e+01
1.875000e+01
1.875000e+01
1.875000e+01
1.875000e+01
1.875000e+01
1.875000e+01
1.875000e+01
2.500000e+01
2.500000e+01
2.500000e+01
2.500000e+01
2.500000e+01
2.500000e+01
2.500000e+01
2.500000e+01
2.500000e+01
2.500000e+01
2.500000e+01
2.500000e+01
2.500000e+01
2.500000e+01
2.500000e+01
2.500000e+01
2.500000e+01
2.500000e+01
2.500000e+01
2.500000e+01
2.500000e+01
2.500000e+01
2.500000e+01
2.500000e+01
2.500000e+01
2.500000e+01
2.500000e+01
2.500000e+01
2.500000e+01
2.500000e+01
2.500000e+01
2.500000e+01
2.500000e+01
3.125000e+01
3.125000e+01
3.125000e+01
3.125000e+01
3.125000e+01
3.125000e+01
3.125000e+01
3.125000e+01
3.125000e+01
3.125000e+01
3.125000e+01
3.125000e+01
3.125000e+01
3.125000e+01
3.125000e+01
3.125000e+01
3.125000e+01
3.125000e+01
3.125000e+01
3.125000e+01
3.125000e+01
3.125000e+01
3.125000e+01
3.125000e+01
3.125000e+01
3.125000e+01
3.125000e+01
3.125000e+01
3.125000e+01
3.125000e+01
3.125000e+01
3.125000e+01
3.125000e+01
3.750000e+01
3.750000e+01
3.750000e+01
3.750000e+01
3.750000e+01
3.750000e+01
3.750000e+01
3.750000e+01
3.750000e+01
3.750000e+01
3.750000e+01
3.750000e+01
3.750000e+01
3.750000e+01
3.750000e+01
3.750000e+01
3.750000e+01
3.750000e+01
3.750000e+01
3.750000e+01
3.750000e+01
3.750000e+01
3.750000e+01
3.750000e+01
3.750000e+01
3.750000e+01
3.750000e+01
3.750000e+01
3.750000e+01
3.750000e+01
3.750000e+01
3.750000e+01
3.750000e+01
4.375000e+01
4.375000e+01
4.375000e+01
4.375000e+01
4.375000e+01
4.375000e+01
4.375000e+01
4.375000e+01
4.375000e+01
4.375000e+01
4.375000e+01
4.375000e+01
4.375000e+01
4.375000e+01
4.375000e+01
4.375000e+01
4.375000e+01
4.375000e+01
4.375000e+01
4.375000e+01
4.375000e+01
4.375000e+01
4.375000e+01
4.375000e+01
4.375000e+01
4.375000e+01
4.375000e+01
4.375000e+01
4.375000e+01
4.375000e+01
4.375000e+01
4.375000e+01
4.375000e+01
5.000000e+01
5.000000e+01
5.000000e+01
5.000000e+01
5.000000e+01
5.000000e+01
5.000000e+01
5.000000e+01
5.000000e+01
5.000000e+01
5.000000e+01
5.000000e+01
5.000000e+01
5.000000e+01
5.000000e+01
5.000000e+01
5.000000e+01
5.000000e+01
5.000000e+01
5.000000e+01
5.000000e+01
5.000000e+01
5.000000e+01
5.000000e+01
5.000000e+01
5.000000e+01
5.000000e+01
5.000000e+01
5.000000e+01
5.000000e+01
5.000000e+01
5.000000e+01
5.000000e+01
5.625000e+01
5.625000e+01
5.625000e+01
5.625000e+01
5.625000e+01
5.625000e+01
5.625000e+01
5.625000e+01
5.625000e+01
5.625000e+01
5.625000e+01
5.625000e+01
5.625000e+01
5.625000e+01
5.625000e+01
5.625000e+01
5.625000e+01
5.625000e+01
5.625000e+01
5.625000e+01
5.625000e+01
5.625000e+01
5.625000e+01
5.625000e+01
5.625000e+01
5.625000e+01
5.625000e+01
5.625000e+01
5.625000e+01
5.625000e+01
5.625000e+01
5.625000e+01
5.625000e+01
6.250000e+01
6.250000e+01
6.250000e+01
6.250000e+01
6.250000e+01
6.250000e+01
6.250000e+01
6.250000e+01
6.250000e+01
6.250000e+01
6.250000e+01
6.250000e+01
6.250000e+01
6.250000e+01
6.250000e+01
6.250000e+01
6.250000e+01
6.250000e+01
6.250000e+01
6.250000e+01
6.250000e+01
6.250000e+01
6.250000e+01
6.250000e+01
6.250000e+01
6.250000e+01
6.250000e+01
6.250000e+01
6.250000e+01
6.250000e+01
6.250000e+01
6.250000e+01
6.250000e+01
6.875000e+01
6.875000e+01
6.875000e+01
6.875000e+01
6.875000e+01
6.875000e+01
6.875000e+01
6.875000e+01
6.875000e+01
6.875000e+01
6.875000e+01
6.875000e+01
6.875000e+01
6.875000e+01
6.875000e+01
6.875000e+01
6.875000e+01
6.875000e+01
6.875000e+01
6.875000e+01
6.875000e+01
6.875000e+01
6.875000e+01
6.875000e+01
6.875000e+01
6.875000e+01
6.875000e+01
6.875000e+01
6.875000e+01
6.875000e+01
6.875000e+01
6.875000e+01
6.875000e+01
7.500000e+01
7.500000e+01
7.500000e+01
7.500000e+01
7.500000e+01
7.500000e+01
7.500000e+01
7.500000e+01
7.500000e+01
7.500000e+01
7.500000e+01
7.500000e+01
7.500000e+01
7.500000e+01
7.500000e+01
7.500000e+01
7.500000e+01
7.500000e+01
7.500000e+01
7.500000e+01
7.500000e+01
7.500000e+01
7.500000e+01
7.500000e+01
7.500000e+01
7.500000e+01
7.500000e+01
7.500000e+01
7.500000e+01
7.500000e+01
7.500000e+01
7.500000e+01
7.500000e+01
8.125000e+01
8.125000e+01
8.125000e+01
8.125000e+01
8.125000e+01
8.125000e+01
8.125000e+01
8.125000e+01
8.125000e+01
8.125000e+01
8.125000e+01
8.125000e+01
8.125000e+01
8.125000e+01
8.125000e+01
8.125000e+01
8.125000e+01
8.125000e+01
8.125000e+01
8.125000e+01
8.125000e+01
8.125000e+01
8.125000e+01
8.125000e+01
8.125000e+01
8.125000e+01
8.125000e+01
8.125000e+01
8.125000e+01
8.125000e+01
8.125000e+01
8.125000e+01
8.125000e+01
8.750000e+01
8.750000e+01
8.750000e+01
8.750000e+01
8.750000e+01
8.750000e+01
8.750000e+01
8.750000e+01
8.750000e+01
8.750000e+01
8.750000e+01
8.750000e+01
8.750000e+01
8.750000e+01
8.750000e+01
8.750000e+01
8.750000e+01
8.750000e+01
8.750000e+01
8.750000e+01
8.750000e+01
8.750000e+01
8.750000e+01
8.750000e+01
8.750000e+01
8.750000e+01
8.750000e+01
8.750000e+01
8.750000e+01
8.750000e+01
8.750000e+01
8.750000e+01
8.750000e+01
9.375000e+01
9.375000e+01
9.375000e+01
9.375000e+01
9.375000e+01
9.375000e+01
9.375000e+01
9.375000e+01
9.375000e+01
9.375000e+01
9.375000e+01
9.375000e+01
9.375000e+01
9.375000e+01
9.375000e+01
9.375000e+01
9.375000e+01
9.375000e+01
9.375000e+01
9.375000e+01
9.375000e+01
9.375000e+01
9.375000e+01
9.375000e+01
9.375000e+01
9.375000e+01
9.375000e+01
9.375000e+01
9.375000e+01
9.375000e+01
9.375000e+01
9.375000e+01
9.375000e+01
1.000000e+02
1.000000e+02
1.000000e+02
1.000000e+02
1.000000e+02
1.000000e+02
1.000000e+02
1.000000e+02
1.000000e+02
1.000000e+02
1.000000e+02
1.000000e+02
1.000000e+02
1.000000e+02
1.000000e+02
1.000000e+02
1.000000e+02
1.000000e+02
1.000000e+02
1.000000e+02
1.000000e+02
1.000000e+02
1.000000e+02
1.000000e+02
1.000000e+02
1.000000e+02
1.000000e+02
1.000000e+02
1.000000e+02
1.000000e+02
1.000000e+02
1.000000e+02
1.000000e+02
0.000000e+00
-6.729940e-02
-1.221057e-01
-1.728762e-01
-2.216018e-01
-2.686539e-01
-3.141270e-01
-3.580171e-01
-4.002964e-01
-4.409342e-01
-4.799050e-01
-5.171912e-01
-5.527837e-01
-5.866817e-01
-6.188932e-01
-6.494351e-01
-6.783348e-01
-7.056320e-01
-7.313816e-01
-7.556577e-01
-7.785589e-01
-8.002158e-01
-8.208009e-01
-8.405432e-01
-8.597491e-01
-8.788356e-01
-8.983813e-01
-9.192118e-01
-9.425377e-01
-9.701410e-01
-1.004333e+00
-1.045081e+00
-1.069948e+00
0.000000e+00
-4.512235e-02
-9.388184e-02
-1.398557e-01
-1.835524e-01
-2.253878e-01
-2.655829e-01
-3.042346e-01
-3.413812e-01
-3.770352e-01
-4.111991e-01
-4.438728e-01
-4.750579e-01
-5.047593e-01
-5.329870e-01
-5.597566e-01
-5.850910e-01
-6.090213e-01
-6.315891e-01
-6.528482e-01
-6.728673e-01
-6.917330e-01
-7.095528e-01
-7.264580e-01
-7.426060e-01
-7.581773e-01
-7.733629e-01
-7.883198e-01
-8.030469e-01
-8.170651e-01
-8.287461e-01
-8.355753e-01
-8.450827e-01
0.000000e+00
-3.579110e-02
-7.368457e-02
-1.122663e-01
-1.497559e-01
-1.858642e-01
-2.205679e-01
-2.539000e-01
-2.858899e-01
-3.165578e-01
-3.459165e-01
-3.739754e-01
-4.007421e-01
-4.262246e-01
-4.504322e-01
-4.733767e-01
-4.950731e-01
-5.155400e-01
-5.348003e-01
-5.528817e-01
-5.698156e-01
-5.856364e-01
-6.003777e-01
-6.140658e-01
-6.267059e-01
-6.382576e-01
-6.485887e-01
-6.573952e-01
-6.640815e-01
-6.676818e-01
-6.673662e-01
-6.653445e-01
-6.764466e-01
0.000000e+00
-2.839706e-02
-5.836243e-02
-8.914820e-02
-1.198620e-01
-1.498319e-01
-1.788013e-01
-2.066782e-01
-2.334375e-01
-2.590782e-01
-2.836069e-01
-3.070317e-01
-3.293606e-01
-3.506006e-01
-3.707579e-01
-3.898382e-01
-4.078467e-01
-4.247881e-01
-4.406658e-01
-4.554808e-01
-4.692292e-01
-4.818983e-01
-4.934603e-01
-5.038612e-01
-5.130050e-01
-5.207303e-01
-5.267813e-01
-5.307885e-01
-5.323185e-01
-5.311828e-01
-5.284242e-01
-5.282595e-01
-5.388371e-01
0.000000e+00
-2.204010e-02
-4.513062e-02
-6.895881e-02
-9.298066e-02
-1.167080e-01
-1.398134e-01
-1.621311e-01
-1.835857e-01
-2.041483e-01
-2.238112e-01
-2.425755e-01
-2.604446e-01
-2.774217e-01
-2.935077e-01
-3.087013e-01
-3.229977e-01
-3.363883e-01
-3.488592e-01
-3.603895e-01
-3.709483e-01
-3.804905e-01
-3.889507e-01
-3.962360e-01
-4.022177e-01
-4.067265e-01
-4.095638e-01
-4.105591e-01
-4.097426e-01
-4.077447e-01
-4.064485e-01
-4.094417e-01
-4.184648e-01
0.000000e+00
-1.619821e-02
-3.309042e-02
-5.052536e-02
-6.820178e-02
-8.578974e-02
-1.030273e-01
-1.197442e-01
-1.358469e-01
-1.512900e-01
-1.660543e-01
-1.801330e-01
-1.935238e-01
-2.062242e-01
-2.182295e-01
-2.295310e-01
-2.401154e-01
-2.499633e-01
-2.590481e-01
-2.673342e-01
-2.747749e-01
-2.813100e-01
-2.868630e-01
-2.913409e-01
-2.946372e-01
-2.966486e-01
-2.973159e-01
-2.967170e-01
-2.952411e-01
-2.938368e-01
-2.941787e-01
-2.979945e-01
-3.054605e-01
0.000000e+00
-1.066038e-02
-2.174243e-02
-3.317605e-02
-4.479821e-02
-5.641329e-02
-6.784612e-02
-7.896902e-02
-8.970208e-02
-1.000012e-01
-1.098441e-01
-1.192196e-01
-1.281205e-01
-1.365393e-01
-1.444660e-01
-1.518860e-01
-1.587792e-01
-1.651193e-01
-1.708721e-01
-1.759954e-01
-1.804376e-01
-1.841384e-01
-1.870307e-01
-1.890462e-01
-1.901291e-01
-1.902635e-01
-1.895231e-01
-1.881529e-01
-1.866744e-01
-1.859577e-01
-1.870759e-01
-1.907909e-01
-1.968177e-01
0.000000e+00
-5.295010e-03
-1.079021e-02
-1.645735e-02
-2.222487e-02
-2.800165e-02
-3.370119e-02
-3.925576e-02
-4.461962e-02
-4.976483e-02
-5.467483e-02
-5.933867e-02
-6.374678e-02
-6.788825e-02
-7.174895e-02
-7.531035e-02
-7.854854e-02
-8.143365e-02
-8.392939e-02
-8.599325e-02
-8.757755e-02
-8.863210e-02
-8.910981e-02
-8.897695e-02
-8.823088e-02
-8.692856e-02
-8.522758e-02
-8.343531e-02
-8.204397e-02
-8.169544e-02
-8.300732e-02
-8.624820e-02
-9.103029e-02
0.000000e+00
-8.544630e-06
-1.852674e-05
-2.939327e-05
-4.057262e-05
-5.129429e-05
-6.039700e-05
-6.611596e-05
-6.583417e-05
-5.578332e-05
-3.068245e-05
1.669180e-05
9.600252e-05
2.199066e-04
4.046392e-04
6.705772e-04
1.042696e-03
1.550777e-03
2.229140e-03
3.115569e-03
4.248910e-03
5.664620e-03
7.387257e-03
9.418689e-03
1.172086e-02
1.419293e-02
1.664563e-02
1.878250e-02
2.020896e-02
2.049824e-02
1.933348e-02
1.669567e-02
1.300128e-02
0.000000e+00
5.278916e-03
1.075524e-02
1.640176e-02
2.214796e-02
2.790414e-02
3.358594e-02
3.912894e-02
4.449227e-02
4.965504e-02
5.461057e-02
5.936149e-02
6.391639e-02
6.828820e-02
7.249342e-02
7.655204e-02
8.048749e-02
8.432649e-02
8.809832e-02
9.183311e-02
9.555878e-02
9.929584e-02
1.030496e-01
1.067993e-01
1.104838e-01
1.139870e-01
1.171255e-01
1.196498e-01
1.212718e-01
1.217309e-01
1.208993e-01
1.188955e-01
1.161535e-01
0.000000e+00
1.064723e-02
2.171366e-02
3.313000e-02
4.473399e-02
5.633111e-02
6.774786e-02
7.885917e-02
8.958900e-02
9.989892e-02
1.097746e-01
1.192159e-01
1.282304e-01
1.368302e-01
1.450305e-01
1.528487e-01
1.603043e-01
1.674187e-01
1.742138e-01
1.807109e-01
1.869266e-01
1.928689e-01
1.985297e-01
2.038762e-01
2.088415e-01
2.133153e-01
2.171419e-01
2.201307e-01
2.220869e-01
2.228691e-01
2.224669e-01
2.210803e-01
2.191666e-01
0.000000e+00
1.618982e-02
3.307173e-02
5.049493e-02
6.815858e-02
8.573335e-02
1.029583e-01
1.196647e-01
1.357616e-01
1.512071e-01
1.659869e-01
1.801015e-01
1.935581e-01
2.063672e-01
2.185407e-01
2.300916e-01
2.410335e-01
2.513803e-01
2.611453e-01
2.703396e-01
2.789699e-01
2.870340e-01
2.945163e-01
3.013816e-01
3.075691e-01
3.129890e-01
3.175245e-01
3.210445e-01
3.234316e-01
3.246277e-01
3.246950e-01
3.238816e-01
3.226721e-01
0.000000e+00
2.203802e-02
4.512541e-02
6.894948e-02
9.296625e-02
1.166877e-01
1.397866e-01
1.620978e-01
1.835466e-01
2.041051e-01
2.237673e-01
2.425365e-01
2.604195e-01
2.774237e-01
2.935564e-01
3.088240e-01
3.232324e-01
3.367863e-01
3.494888e-01
3.613407e-01
3.723383e-01
3.824715e-01
3.917209e-01
4.000545e-01
4.074253e-01
4.137717e-01
4.190209e-01
4.231005e-01
4.259596e-01
4.276022e-01
4.281350e-01
4.278296e-01
4.271925e-01
0.000000e+00
2.840233e-02
5.837315e-02
8.916415e-02
1.198827e-01
1.498568e-01
1.788295e-01
2.067083e-01
2.334673e-01
2.591039e-01
2.836230e-01
3.070301e-01
3.293296e-01
3.505239e-01
3.706134e-01
3.895966e-01
4.074698e-01
4.242271e-01
4.398603e-01
4.543583e-01
4.677064e-01
4.798862e-01
4.908743e-01
5.006431e-01
5.091614e-01
5.163974e-01
5.223238e-01
5.269274e-01
5.302221e-01
5.322697e-01
5.332115e-01
5.333238e-01
5.331124e-01
0.000000e+00
3.580397e-02
7.371206e-02
1.123093e-01
1.498154e-01
1.859407e-01
2.206617e-01
2.540099e-01
2.860128e-01
3.166873e-01
3.460417e-01
3.740782e-01
4.007950e-01
4.261869e-01
4.502461e-01
4.729616e-01
4.943195e-01
5.143022e-01
5.328887e-01
5.500541e-01
5.657704e-01
5.800070e-01
5.927328e-01
6.039193e-01
6.135455e-01
6.216040e-01
6.281092e-01
6.331070e-01
6.366840e-01
6.389749e-01
6.401741e-01
6.405646e-01
6.406112e-01
0.000000e+00
4.514167e-02
9.392408e-02
1.399237e-01
1.836493e-01
2.255171e-01
2.657474e-01
3.044358e-01
3.416184e-01
3.773037e-01
4.114877e-01
4.441609e-01
4.753111e-01
5.049240e-01
5.329827e-01
5.594672e-01
5.843535e-01
6.076121e-01
6.292083e-01
6.491011e-01
6.672448e-01
6.835904e-01
6.980898e-01
7.107013e-01
7.213987e-01
7.301827e-01
7.370948e-01
7.422322e-01
7.457613e-01
7.479238e-01
7.490285e-01
7.494291e-01
7.495272e-01
0.000000e+00
6.732056e-02
1.221551e-01
1.729608e-01
2.217284e-01
2.688295e-01
3.143587e-01
3.583117e-01
4.006592e-01
4.413675e-01
4.804050e-01
5.177447e-01
5.533626e-01
5.872359e-01
6.193409e-01
6.496508e-01
6.781334e-01
7.047490e-01
7.294490e-01
7.521747e-01
7.728579e-01
7.914223e-01
8.077883e-01
8.218809e-01
8.336418e-01
8.430474e-01
8.501311e-01
8.550110e-01
8.579197e-01
8.592303e-01
8.594684e-01
8.592711e-01
8.591601e-01
0.000000e+00
-4.158975e-02
-7.258325e-02
-1.064048e-01
-1.440671e-01
-1.866105e-01
-2.343306e-01
-2.873103e-01
-3.454970e-01
-4.087658e-01
-4.769491e-01
-5.498540e-01
-6.272724e-01
-7.089878e-01
-7.947790e-01
-8.844238e-01
-9.777007e-01
-1.074392e+00
-1.174289e+00
-1.277192e+00
-1.382924e+00
-1.491332e+00
-1.602311e+00
-1.715816e+00
-1.831904e+00
-1.950791e+00
-2.072949e+00
-2.199300e+00
-2.331607e+00
-2.473365e+00
-2.632107e+00
-2.825614e+00
-3.092948e+00
0.000000e+00
-2.584646e-02
-5.828849e-02
-9.233811e-02
-1.305253e-01
-1.735309e-01
-2.217146e-01
-2.751580e-01
-3.338129e-01
-3.975546e-01
-4.662144e-01
-5.395979e-01
-6.174953e-01
-6.996882e-01
-7.859534e-01
-8.760662e-01
-9.698027e-01
-1.066942e+00
-1.167271e+00
-1.270586e+00
-1.376701e+00
-1.485459e+00
-1.596743e+00
-1.710496e+00
-1.826760e+00
-1.945729e+00
-2.067854e+00
-2.194026e+00
-2.325973e+00
-2.467129e+00
-2.624646e+00
-2.813845e+00
-3.063604e+00
0.000000e+00
-1.898573e-02
-4.699195e-02
-8.057705e-02
-1.188309e-01
-1.621533e-01
-2.107173e-01
-2.645680e-01
-3.236406e-01
-3.878046e-01
-4.568884e-01
-5.306959e-01
-6.090166e-01
-6.916311e-01
-7.783156e-01
-8.688445e-01
-9.629927e-01
-1.060538e+00
-1.161266e+00
-1.264971e+00
-1.371467e+00
-1.480593e+00
-1.592233e+00
-1.706332e+00
-1.822937e+00
-1.942254e+00
-2.064751e+00
-2.191343e+00
-2.323737e+00
-2.465026e+00
-2.620493e+00
-2.796382e+00
-2.991494e+00
0.000000e+00
-1.520301e-02
-3.979276e-02
-7.158692e-02
-1.093492e-01
-1.526580e-01
-2.014298e-01
-2.555821e-01
-3.149985e-01
-3.795243e-01
-4.489771e-01
-5.231561e-01
-6.018488e-01
-6.848354e-01
-7.718924e-01
-8.627947e-01
-9.573179e-01
-1.055241e+00
-1.156350e+00
-1.260442e+00
-1.367332e+00
-1.476865e+00
-1.588928e+00
-1.703477e+00
-1.820569e+00
-1.940421e+00
-2.063495e+00
-2.190635e+00
-2.323238e+00
-2.463342e+00
-2.612897e+00
-2.770630e+00
-2.917463e+00
0.000000e+00
-1.286430e-02
-3.508476e-02
-6.520288e-02
-1.021043e-01
-1.451292e-01
-1.939192e-01
-2.482475e-01
-3.079178e-01
-3.727349e-01
-4.424964e-01
-5.169920e-01
-5.960053e-01
-6.793161e-01
-7.667015e-01
-8.579381e-01
-9.528038e-01
-1.051080e+00
-1.152555e+00
-1.257031e+00
-1.364326e+00
-1.474289e+00
-1.586813e+00
-1.701857e+00
-1.819472e+00
-1.939850e+00
-2.063368e+00
-2.190632e+00
-2.322447e+00
-2.459459e+00
-2.601015e+00
-2.741916e+00
-2.869793e+00
0.000000e+00
-1.137616e-02
-3.199573e-02
-6.080967e-02
-9.688040e-02
-1.395023e-01
-1.881862e-01
-2.425840e-01
-3.024213e-01
-3.674569e-01
-4.374629e-01
-5.122168e-01
-5.914970e-01
-6.750820e-01
-7.627503e-01
-8.542806e-01
-9.494536e-01
-1.048054e+00
-1.149874e+00
-1.254718e+00
-1.362407e+00
-1.472791e+00
-1.585760e+00
-1.701260e+00
-1.819310e+00
-1.940025e+00
-2.063616e+00
-2.190352e+00
-2.320379e+00
-2.453258e+00
-2.586965e+00
-2.716723e+00
-2.835320e+00
0.000000e+00
-1.045129e-02
-3.004270e-02
-5.795400e-02
-9.338079e-02
-1.356354e-01
-1.841747e-01
-2.385793e-01
-2.985154e-01
-3.637021e-01
-4.338884e-01
-5.088396e-01
-5.883292e-01
-6.721346e-01
-7.600356e-01
-8.518133e-01
-9.472517e-01
-1.046138e+00
-1.148267e+00
-1.253444e+00
-1.361490e+00
-1.472247e+00
-1.585592e+00
-1.701438e+00
-1.819745e+00
-1.940516e+00
-2.063761e+00
-2.189410e+00
-2.317101e+00
-2.445793e+00
-2.573261e+00
-2.695829e+00
-2.808994e+00
0.000000e+00
-9.943065e-03
-2.895901e-02
-5.634476e-02
-9.137407e-02
-1.333829e-01
-1.818109e-01
-2.362035e-01
-2.961929e-01
-3.614731e-01
-4.317776e-01
-5.068634e-01
-5.865009e-01
-6.704676e-01
-7.585447e-01
-8.505160e-01
-9.461678e-01
-1.045290e+00
-1.147677e+00
-1.253132e+00
-1.361470e+00
-1.472520e+00
-1.586132e+00
-1.702173e+00
-1.820529e+00
-1.941077e+00
-2.063640e+00
-2.187883e+00
-2.313144e+00
-2.438190e+00
-2.561013e+00
-2.678848e+00
-2.788624e+00
0.000000e+00
-9.779316e-03
-2.860938e-02
-5.582320e-02
-9.072005e-02
-1.326457e-01
-1.810366e-01
-2.354283e-01
-2.954430e-01
-3.607669e-01
-4.311290e-01
-5.062847e-01
-5.860047e-01
-6.700678e-01
-7.582576e-01
-8.503600e-01
-9.461630e-01
-1.045457e+00
-1.148035e+00
-1.253696e+00
-1.362242e+00
-1.473483e+00
-1.587235e+00
-1.703315e+00
-1.821525e+00
-1.941632e+00
-2.063308e+00
-2.186053e+00
-2.309073e+00
-2.431156e+00
-2.550603e+00
-2.665306e+00
-2.773013e+00
0.000000e+00
-9.938328e-03
-2.895243e-02
-5.633911e-02
-9.137235e-02
-1.333889e-01
-1.818296e-01
-2.362414e-01
-2.962589e-01
-3.615785e-01
-4.319370e-01
-5.070954e-01
-5.868283e-01
-6.709180e-01
-7.591503e-01
-8.513131e-01
-9.471955e-01
-1.046587e+00
-1.149277e+00
-1.255057e+00
-1.363715e+00
-1.475037e+00
-1.588804e+00
-1.704778e+00
-1.822690e+00
-1.942215e+00
-2.062923e+00
-2.184227e+00
-2.305310e+00
-2.425068e+00
-2.542101e+00
-2.654777e+00
-2.761377e+00
0.000000e+00
-1.044220e-02
-3.003009e-02
-5.794308e-02
-9.337737e-02
-1.356466e-01
-1.842102e-01
-2.386516e-01
-2.986413e-01
-3.639035e-01
-4.341936e-01
-5.092841e-01
-5.889568e-01
-6.729983e-01
-7.611973e-01
-8.533432e-01
-9.492251e-01
-1.048631e+00
-1.151345e+00
-1.257150e+00
-1.365818e+00
-1.477113e+00
-1.590778e+00
-1.706531e+00
-1.824041e+00
-1.942916e+00
-2.062663e+00
-2.182662e+00
-2.302128e+00
-2.420096e+00
-2.535433e+00
-2.646880e+00
-2.753118e+00
0.000000e+00
-1.136352e-02
-3.197820e-02
-6.079443e-02
-9.687547e-02
-1.395177e-01
-1.882353e-01
-2.426845e-01
-3.025967e-01
-3.677378e-01
-4.378889e-01
-5.128375e-01
-5.923741e-01
-6.762898e-01
-7.643758e-01
-8.564225e-01
-9.522183e-01
-1.051549e+00
-1.154194e+00
-1.259926e+00
-1.368503e+00
-1.479667e+00
-1.593132e+00
-1.708575e+00
-1.825622e+00
-1.943832e+00
-2.062680e+00
-2.181541e+00
-2.299685e+00
-2.416289e+00
-2.530455e+00
-2.641247e+00
-2.747704e+00
0.000000e+00
-1.284941e-02
-3.506412e-02
-6.518492e-02
-1.020986e-01
-1.451479e-01
-1.939784e-01
-2.483687e-01
-3.081294e-01
-3.730742e-01
-4.430111e-01
-5.177424e-01
-5.970661e-01
-6.807772e-01
-7.686685e-01
-8.605308e-01
-9.561516e-01
-1.055314e+00
-1.157793e+00
-1.263352e+00
-1.371740e+00
-1.482678e+00
-1.595858e+00
-1.710927e+00
-1.827480e+00
-1.945046e+00
-2.063082e+00
-2.180975e+00
-2.298053e+00
-2.413617e+00
-2.526980e+00
-2.637507e+00
-2.744606e+00
0.000000e+00
-1.518771e-02
-3.977157e-02
-7.156866e-02
-1.093443e-01
-1.526800e-01
-2.014965e-01
-2.557174e-01
-3.152339e-01
-3.799009e-01
-4.495477e-01
-5.239872e-01
-6.030226e-01
-6.864512e-01
-7.740664e-01
-8.656587e-01
-9.610144e-01
-1.059914e+00
-1.162129e+00
-1.267418e+00
-1.375517e+00
-1.486139e+00
-1.598958e+00
-1.713602e+00
-1.829646e+00
-1.946602e+00
-2.063922e+00
-2.181005e+00
-2.297230e+00
-2.411996e+00
-2.524795e+00
-2.635274e+00
-2.743255e+00
0.000000e+00
-1.897240e-02
-4.697339e-02
-8.056164e-02
-1.188295e-01
-1.621801e-01
-2.107910e-01
-2.647136e-01
-3.238908e-01
-3.882019e-01
-4.574874e-01
-5.315653e-01
-6.102408e-01
-6.933118e-01
-7.805717e-01
-8.718100e-01
-9.668118e-01
-1.065356e+00
-1.167210e+00
-1.272129e+00
-1.379844e+00
-1.490060e+00
-1.602442e+00
-1.716610e+00
-1.832128e+00
-1.948502e+00
-2.065186e+00
-2.181594e+00
-2.297137e+00
-2.411287e+00
-2.523662e+00
-2.634151e+00
-2.743019e+00
0.000000e+00
-2.583789e-02
-5.827586e-02
-9.232904e-02
-1.305309e-01
-1.735657e-01
-2.217976e-01
-2.753142e-01
-3.340750e-01
-3.979647e-01
-4.668263e-01
-5.404789e-01
-6.187278e-01
-7.013705e-01
-7.881996e-01
-8.790038e-01
-9.735666e-01
-1.071665e+00
-1.173065e+00
-1.277517e+00
-1.384752e+00
-1.494468e+00
-1.606331e+00
-1.719955e+00
-1.834907e+00
-1.950696e+00
-2.066783e+00
-2.182601e+00
-2.297587e+00
-2.411253e+00
-2.523294e+00
-2.633746e+00
-2.743220e+00
0.000000e+00
-4.158854e-02
-7.257905e-02
-1.064056e-01
-1.440841e-01
-1.866583e-01
-2.344282e-01
-2.874825e-01
-3.457756e-01
-4.091920e-01
-4.775746e-01
-5.507428e-01
-6.285023e-01
-7.106503e-01
-7.969787e-01
-8.872748e-01
-9.813207e-01
-1.078891e+00
-1.179749e+00
-1.283643e+00
-1.390301e+00
-1.499421e+00
-1.610665e+00