TITLE = "Solution"
VARIABLES = x, y, u, v, psiu, psiv, t, stress
ZONE T="structure" N=561 E=512 F=FEBLOCK ET=QUADRILATERAL VARLOCATION=([7,8]=cellcentered)
0.000000e+00
6.250000e+00
1.250000e+01
1.875000e+01
2.500000e+01
3.125000e+01
3.750000e+01
4.375000e+01
5.000000e+01
5.625000e+01
6.250000e+01
6.875000e+01
7.500000e+01
8.125000e+01
8.750000e+01
9.375000e+01
1.000000e+02
1.062500e+02
1.125000e+02
1.187500e+02
1.250000e+02
1.312500e+02
1.375000e+02
1.437500e+02
1.500000e+02
1.562500e+02
1.625000e+02
1.687500e+02
1.750000e+02
1.812500e+02
1.875000e+02
1.937500e+02
2.000000e+02
0.000000e+00
6.250000e+00
1.250000e+01
1.875000e+01
2.500000e+01
3.125000e+01
3.750000e+01
4.375000e+01
5.000000e+01
5.625000e+01
6.250000e+01
6.875000e+01
7.500000e+01
8.125000e+01
8.750000e+01
9.375000e+01
1.000000e+02
1.062500e+02
1.125000e+02
1.187500e+02
1.250000e+02
1.312500e+02
1.375000e+02
1.437500e+02
1.500000e+02
1.562500e+02
1.625000e+02
1.687500e+02
1.750000e+02
1.812500e+02
1.875000e+02
1.937500e+02
2.000000e+02
0.000000e+00
6.250000e+00
1.250000e+01
1.875000e+01
2.500000e+01
3.125000e+01
3.750000e+01
4.375000e+01
5.000000e+01
5.625000e+01
6.250000e+01
6.875000e+01
7.500000e+01
8.125000e+01
8.750000e+01
9.375000e+01
1.000000e+02
1.062500e+02
1.125000e+02
1.187500e+02
1.250000e+02
1.312500e+02
1.375000e+02
1.437500e+02
1.500000e+02
1.562500e+02
1.625000e+02
1.687500e+02
1.750000e+02
1.812500e+02
1.875000e+02
1.937500e+02
2.000000e+02
0.000000e+00
6.250000e+00
1.250000e+01
1.875000e+01
2.500000e+01
3.125000e+01
3.750000e+01
4.375000e+01
5.000000e+01
5.625000e+01
6.250000e+01
6.875000e+01
7.500000e+01
8.125000e+01
8.750000e+01
9.375000e+01
1.000000e+02
1.062500e+02
1.125000e+02
1.187500e+02
1.250000e+02
1.312500e+02
1.375000e+02
1.437500e+02
1.500000e+02
1.562500e+02
1.625000e+02
1.687500e+02
1.750000e+02
1.812500e+02
1.875000e+02
1.937500e+02
2.000000e+02
0.000000e+00
6.250000e+00
1.250000e+01
1.875000e+01
2.500000e+01
3.125000e+01
3.750000e+01
4.375000e+01
5.000000e+01
5.625000e+01
6.250000e+01
6.875000e+01
7.500000e+01
8.125000e+01
8.750000e+01
9.375000e+01
1.000000e+02
1.062500e+02
1.125000e+02
1.187500e+02
1.250000e+02
1.312500e+02
1.375000e+02
1.437500e+02
1.500000e+02
1.562500e+02
1.625000e+02
1.687500e+02
1.750000e+02
1.812500e+02
1.875000e+02
1.937500e+02
2.000000e+02
0.000000e+00
6.250000e+00
1.250000e+01
1.875000e+01
2.500000e+01
3.125000e+01
3.750000e+01
4.375000e+01
5.000000e+01
5.625000e+01
6.250000e+01
6.875000e+01
7.500000e+01
8.125000e+01
8.750000e+01
9.375000e+01
1.000000e+02
1.062500e+02
1.125000e+02
1.187500e+02
1.250000e+02
1.312500e+02
1.375000e+02
1.437500e+02
1.500000e+02
1.562500e+02
1.625000e+02
1.687500e+02
1.750000e+02
1.812500e+02
1.875000e+02
1.937500e+02
2.000000e+02
0.000000e+00
6.250000e+00
1.250000e+01
1.875000e+01
2.500000e+01
3.125000e+01
3.750000e+01
4.375000e+01
5.000000e+01
5.625000e+01
6.250000e+01
6.875000e+01
7.500000e+01
8.125000e+01
8.750000e+01
9.375000e+01
1.000000e+02
1.062500e+02
1.125000e+02
1.187500e+02
1.250000e+02
1.312500e+02
1.375000e+02
1.437500e+02
1.500000e+02
1.562500e+02
1.625000e+02
1.687500e+02
1.750000e+02
1.812500e+02
1.875000e+02
1.937500e+02
2.000000e+02
0.000000e+00
6.250000e+00
1.250000e+01
1.875000e+01
2.500000e+01
3.125000e+01
3.750000e+01
4.375000e+01
5.000000e+01
5.625000e+01
6.250000e+01
6.875000e+01
7.500000e+01
8.125000e+01
8.750000e+01
9.375000e+01
1.000000e+02
1.062500e+02
1.125000e+02
1.187500e+02
1.250000e+02
1.312500e+02
1.375000e+02
1.437500e+02
1.500000e+02
1.562500e+02
1.625000e+02
1.687500e+02
1.750000e+02
1.812500e+02
1.875000e+02
1.937500e+02
2.000000e+02
0.000000e+00
6.250000e+00
1.250000e+01
1.875000e+01
2.500000e+01
3.125000e+01
3.750000e+01
4.375000e+01
5.000000e+01
5.625000e+01
6.250000e+01
6.875000e+01
7.500000e+01
8.125000e+01
8.750000e+01
9.375000e+01
1.000000e+02
1.062500e+02
1.125000e+02
1.187500e+02
1.250000e+02
1.312500e+02
1.375000e+02
1.437500e+02
1.500000e+02
1.562500e+02
1.625000e+02
1.687500e+02
1.750000e+02
1.812500e+02
1.875000e+02
1.937500e+02
2.000000e+02
0.000000e+00
6.250000e+00
1.250000e+01
1.875000e+01
2.500000e+01
3.125000e+01
3.750000e+01
4.375000e+01
5.000000e+01
5.625000e+01
6.250000e+01
6.875000e+01
7.500000e+01
8.125000e+01
8.750000e+01
9.375000e+01
1.000000e+02
1.062500e+02
1.125000e+02
1.187500e+02
1.250000e+02
1.312500e+02
1.375000e+02
1.437500e+02
1.500000e+02
1.562500e+02
1.625000e+02
1.687500e+02
1.750000e+02
1.812500e+02
1.875000e+02
1.937500e+02
2.000000e+02
0.000000e+00
6.250000e+00
1.250000e+01
1.875000e+01
2.500000e+01
3.125000e+01
3.750000e+01
4.375000e+01
5.000000e+01
5.625000e+01
6.250000e+01
6.875000e+01
7.500000e+01
8.125000e+01
8.750000e+01
9.375000e+01
1.000000e+02
1.062500e+02
1.125000e+02
1.187500e+02
1.250000e+02
1.312500e+02
1.375000e+02
1.437500e+02
1.500000e+02
1.562500e+02
1.625000e+02
1.687500e+02
1.750000e+02
1.812500e+02
1.875000e+02
1.937500e+02
2.000000e+02
0.000000e+00
6.250000e+00
1.250000e+01
1.875000e+01
2.500000e+01
3.125000e+01
3.750000e+01
4.375000e+01
5.000000e+01
5.625000e+01
6.250000e+01
6.875000e+01
7.500000e+01
8.125000e+01
8.750000e+01
9.375000e+01
1.000000e+02
1.062500e+02
1.125000e+02
1.187500e+02
1.250000e+02
1.312500e+02
1.375000e+02
1.437500e+02
1.500000e+02
1.562500e+02
1.625000e+02
1.687500e+02
1.750000e+02
1.812500e+02
1.875000e+02
1.937500e+02
2.000000e+02
0.000000e+00
6.250000e+00
1.250000e+01
1.875000e+01
2.500000e+01
3.125000e+01
3.750000e+01
4.375000e+01
5.000000e+01
5.625000e+01
6.250000e+01
6.875000e+01
7.500000e+01
8.125000e+01
8.750000e+01
9.375000e+01
1.000000e+02
1.062500e+02
1.125000e+02
1.187500e+02
1.250000e+02
1.312500e+02
1.375000e+02
1.437500e+02
1.500000e+02
1.562500e+02
1.625000e+02
1.687500e+02
1.750000e+02
1.812500e+02
1.875000e+02
1.937500e+02
2.000000e+02
0.000000e+00
6.250000e+00
1.250000e+01
1.875000e+01
2.500000e+01
3.125000e+01
3.750000e+01
4.375000e+01
5.000000e+01
5.625000e+01
6.250000e+01
6.875000e+01
7.500000e+01
8.125000e+01
8.750000e+01
9.375000e+01
1.000000e+02
1.062500e+02
1.125000e+02
1.187500e+02
1.250000e+02
1.312500e+02
1.375000e+02
1.437500e+02
1.500000e+02
1.562500e+02
1.625000e+02
1.687500e+02
1.750000e+02
1.812500e+02
1.875000e+02
1.937500e+02
2.000000e+02
0.000000e+00
6.250000e+00
1.250000e+01
1.875000e+01
2.500000e+01
3.125000e+01
3.750000e+01
4.375000e+01
5.000000e+01
5.625000e+01
6.250000e+01
6.875000e+01
7.500000e+01
8.125000e+01
8.750000e+01
9.375000e+01
1.000000e+02
1.062500e+02
1.125000e+02
1.187500e+02
1.250000e+02
1.312500e+02
1.375000e+02
1.437500e+02
1.500000e+02
1.562500e+02
1.625000e+02
1.687500e+02
1.750000e+02
1.812500e+02
1.875000e+02
1.937500e+02
2.000000e+02
0.000000e+00
6.250000e+00
1.250000e+01
1.875000e+01
2.500000e+01
3.125000e+01
3.750000e+01
4.375000e+01
5.000000e+01
5.625000e+01
6.250000e+01
6.875000e+01
7.500000e+01
8.125000e+01
8.750000e+01
9.375000e+01
1.000000e+02
1.062500e+02
1.125000e+02
1.187500e+02
1.250000e+02
1.312500e+02
1.375000e+02
1.437500e+02
1.500000e+02
1.562500e+02
1.625000e+02
1.687500e+02
1.750000e+02
1.812500e+02
1.875000e+02
1.937500e+02
2.000000e+02
0.000000e+00
6.250000e+00
1.250000e+01
1.875000e+01
2.500000e+01
3.125000e+01
3.750000e+01
4.375000e+01
5.000000e+01
5.625000e+01
6.250000e+01
6.875000e+01
7.500000e+01
8.125000e+01
8.750000e+01
9.375000e+01
1.000000e+02
1.062500e+02
1.125000e+02
1.187500e+02
1.250000e+02
1.312500e+02
1.375000e+02
1.437500e+02
1.500000e+02
1.562500e+02
1.625000e+02
1.687500e+02
1.750000e+02
1.812500e+02
1.875000e+02
1.937500e+02
2.000000e+02
0.000000e+00
0.000000e+00
0.000000e+00
0.000000e+00
0.000000e+00
0.000000e+00
0.000000e+00
0.000000e+00
0.000000e+00
0.000000e+00
0.000000e+00
0.000000e+00
0.000000e+00
0.000000e+00
0.000000e+00
0.000000e+00
0.000000e+00
0.000000e+00
0.000000e+00
0.000000e+00
0.000000e+00
0.000000e+00
0.000000e+00
0.000000e+00
0.000000e+00
0.000000e+00
0.000000e+00
0.000000e+00
0.000000e+00
0.000000e+00
0.000000e+00
0.000000e+00
0.000000e+00
6.250000e+00
6.250000e+00
6.250000e+00
6.250000e+00
6.250000e+00
6.250000e+00
6.250000e+00
6.250000e+00
6.250000e+00
6.250000e+00
6.250000e+00
6.250000e+00
6.250000e+00
6.250000e+00
6.250000e+00
6.250000e+00
6.250000e+00
6.250000e+00
6.250000e+00
6.250000e+00
6.250000e+00
6.250000e+00
6.250000e+00
6.250000e+00
6.250000e+00
6.250000e+00
6.250000e+00
6.250000e+00
6.250000e+00
6.250000e+00
6.250000e+00
6.250000e+00
6.250000e+00
1.250000e+01
1.250000e+01
1.250000e+01
1.250000e+01
1.250000e+01
1.250000e+01
1.250000e+01
1.250000e+01
1.250000e+01
1.250000e+01
1.250000e+01
1.250000e+01
1.250000e+01
1.250000e+01
1.250000e+01
1.250000e+01
1.250000e+01
1.250000e+01
1.250000e+01
1.250000e+01
1.250000e+01
1.250000e+01
1.250000e+01
1.250000e+01
1.250000e+01
1.250000e+01
1.250000e+01
1.250000e+01
1.250000e+01
1.250000e+01
1.250000e+01
1.250000e+01
1.250000e+01
1.875000e+01
1.875000e+01
1.875000e+01
1.875000e+01
1.875000e+01
1.875000e+01
1.875000e+01
1.875000e+01
1.875000e+01
1.875000e+01
1.875000e+01
1.875000e+01
1.875000e+01
1.875000e+01
1.875000e+01
1.875000e+01
1.875000e+01
1.875000e+01
1.875000e+01
1.875000e+01
1.875000e+01
1.875000e+01
1.875000e+01
1.875000e+01
1.875000e+01
1.875000e+01
1.875000e+01
1.875000e+01
1.875000e+01
1.875000e+01
1.875000e+01
1.875000e+01
1.875000e+01
2.500000e+01
2.500000e+01
2.500000e+01
2.500000e+01
2.500000e+01
2.500000e+01
2.500000e+01
2.500000e+01
2.500000e+01
2.500000e+01
2.500000e+01
2.500000e+01
2.500000e+01
2.500000e+01
2.500000e+01
2.500000e+01
2.500000e+01
2.500000e+01
2.500000e+01
2.500000e+01
2.500000e+01
2.500000e+01
2.500000e+01
2.500000e+01
2.500000e+01
2.500000e+01
2.500000e+01
2.500000e+01
2.500000e+01
2.500000e+01
2.500000e+01
2.500000e+01
2.500000e+01
3.125000e+01
3.125000e+01
3.125000e+01
3.125000e+01
3.125000e+01
3.125000e+01
3.125000e+01
3.125000e+01
3.125000e+01
3.125000e+01
3.125000e+01
3.125000e+01
3.125000e+01
3.125000e+01
3.125000e+01
3.125000e+01
3.125000e+01
3.125000e+01
3.125000e+01
3.125000e+01
3.125000e+01
3.125000e+01
3.125000e+01
3.125000e+01
3.125000e+01
3.125000e+01
3.125000e+01
3.125000e+01
3.125000e+01
3.125000e+01
3.125000e+01
3.125000e+01
3.125000e+01
3.750000e+01
3.750000e+01
3.750000e+01
3.750000e+01
3.750000e+01
3.750000e+01
3.750000e+01
3.750000e+01
3.750000e+01
3.750000e+01
3.750000e+01
3.750000e+01
3.750000e+01
3.750000e+01
3.750000e+01
3.750000e+01
3.750000e+01
3.750000e+01
3.750000e+01
3.750000e+01
3.750000e+01
3.750000e+01
3.750000e+01
3.750000e+01
3.750000e+01
3.750000e+01
3.750000e+01
3.750000e+01
3.750000e+01
3.750000e+01
3.750000e+01
3.750000e+01
3.750000e+01
4.375000e+01
4.375000e+01
4.375000e+01
4.375000e+01
4.375000e+01
4.375000e+01
4.375000e+01
4.375000e+01
4.375000e+01
4.375000e+01
4.375000e+01
4.375000e+01
4.375000e+01
4.375000e+01
4.375000e+01
4.375000e+01
4.375000e+01
4.375000e+01
4.375000e+01
4.375000e+01
4.375000e+01
4.375000e+01
4.375000e+01
4.375000e+01
4.375000e+01
4.375000e+01
4.375000e+01
4.375000e+01
4.375000e+01
4.375000e+01
4.375000e+01
4.375000e+01
4.375000e+01
5.000000e+01
5.000000e+01
5.000000e+01
5.000000e+01
5.000000e+01
5.000000e+01
5.000000e+01
5.000000e+01
5.000000e+01
5.000000e+01
5.000000e+01
5.000000e+01
5.000000e+01
5.000000e+01
5.000000e+01
5.000000e+01
5.000000e+01
5.000000e+01
5.000000e+01
5.000000e+01
5.000000e+01
5.000000e+01
5.000000e+01
5.000000e+01
5.000000e+01
5.000000e+01
5.000000e+01
5.000000e+01
5.000000e+01
5.000000e+01
5.000000e+01
5.000000e+01
5.000000e+01
5.625000e+01
5.625000e+01
5.625000e+01
5.625000e+01
5.625000e+01
5.625000e+01
5.625000e+01
5.625000e+01
5.625000e+01
5.625000e+01
5.625000e+01
5.625000e+01
5.625000e+01
5.625000e+01
5.625000e+01
5.625000e+01
5.625000e+01
5.625000e+01
5.625000e+01
5.625000e+01
5.625000e+01
5.625000e+01
5.625000e+01
5.625000e+01
5.625000e+01
5.625000e+01
5.625000e+01
5.625000e+01
5.625000e+01
5.625000e+01
5.625000e+01
5.625000e+01
5.625000e+01
6.250000e+01
6.250000e+01
6.250000e+01
6.250000e+01
6.250000e+01
6.250000e+01
6.250000e+01
6.250000e+01
6.250000e+01
6.250000e+01
6.250000e+01
6.250000e+01
6.250000e+01
6.250000e+01
6.250000e+01
6.250000e+01
6.250000e+01
6.250000e+01
6.250000e+01
6.250000e+01
6.250000e+01
6.250000e+01
6.250000e+01
6.250000e+01
6.250000e+01
6.250000e+01
6.250000e+01
6.250000e+01
6.250000e+01
6.250000e+01
6.250000e+01
6.250000e+01
6.250000e+01
6.875000e+01
6.875000e+01
6.875000e+01
6.875000e+01
6.875000e+01
6.875000e+01
6.875000e+01
6.875000e+01
6.875000e+01
6.875000e+01
6.875000e+01
6.875000e+01
6.875000e+01
6.875000e+01
6.875000e+01
6.875000e+01
6.875000e+01
6.875000e+01
6.875000e+01
6.875000e+01
6.875000e+01
6.875000e+01
6.875000e+01
6.875000e+01
6.875000e+01
6.875000e+01
6.875000e+01
6.875000e+01
6.875000e+01
6.875000e+01
6.875000e+01
6.875000e+01
6.875000e+01
7.500000e+01
7.500000e+01
7.500000e+01
7.500000e+01
7.500000e+01
7.500000e+01
7.500000e+01
7.500000e+01
7.500000e+01
7.500000e+01
7.500000e+01
7.500000e+01
7.500000e+01
7.500000e+01
7.500000e+01
7.500000e+01
7.500000e+01
7.500000e+01
7.500000e+01
7.500000e+01
7.500000e+01
7.500000e+01
7.500000e+01
7.500000e+01
7.500000e+01
7.500000e+01
7.500000e+01
7.500000e+01
7.500000e+01
7.500000e+01
7.500000e+01
7.500000e+01
7.500000e+01
8.125000e+01
8.125000e+01
8.125000e+01
8.125000e+01
8.125000e+01
8.125000e+01
8.125000e+01
8.125000e+01
8.125000e+01
8.125000e+01
8.125000e+01
8.125000e+01
8.125000e+01
8.125000e+01
8.125000e+01
8.125000e+01
8.125000e+01
8.125000e+01
8.125000e+01
8.125000e+01
8.125000e+01
8.125000e+01
8.125000e+01
8.125000e+01
8.125000e+01
8.125000e+01
8.125000e+01
8.125000e+01
8.125000e+01
8.125000e+01
8.125000e+01
8.125000e+01
8.125000e+01
8.750000e+01
8.750000e+01
8.750000e+01
8.750000e+01
8.750000e+01
8.750000e+01
8.750000e+01
8.750000e+01
8.750000e+01
8.750000e+01
8.750000e+01
8.750000e+01
8.750000e+01
8.750000e+01
8.750000e+01
8.750000e+01
8.750000e+01
8.750000e+01
8.750000e+01
8.750000e+01
8.750000e+01
8.750000e+01
8.750000e+01
8.750000e+01
8.750000e+01
8.750000e+01
8.750000e+01
8.750000e+01
8.750000e+01
8.750000e+01
8.750000e+01
8.750000e+01
8.750000e+01
9.375000e+01
9.375000e+01
9.375000e+01
9.375000e+01
9.375000e+01
9.375000e+01
9.375000e+01
9.375000e+01
9.375000e+01
9.375000e+01
9.375000e+01
9.375000e+01
9.375000e+01
9.375000e+01
9.375000e+01
9.375000e+01
9.375000e+01
9.375000e+01
9.375000e+01
9.375000e+01
9.375000e+01
9.375000e+01
9.375000e+01
9.375000e+01
9.375000e+01
9.375000e+01
9.375000e+01
9.375000e+01
9.375000e+01
9.375000e+01
9.375000e+01
9.375000e+01
9.375000e+01
1.000000e+02
1.000000e+02
1.000000e+02
1.000000e+02
1.000000e+02
1.000000e+02
1.000000e+02
1.000000e+02
1.000000e+02
1.000000e+02
1.000000e+02
1.000000e+02
1.000000e+02
1.000000e+02
1.000000e+02
1.000000e+02
1.000000e+02
1.000000e+02
1.000000e+02
1.000000e+02
1.000000e+02
1.000000e+02
1.000000e+02
1.000000e+02
1.000000e+02
1.000000e+02
1.000000e+02
1.000000e+02
1.000000e+02
1.000000e+02
1.000000e+02
1.000000e+02
1.000000e+02
0.000000e+00
-1.062882e-01
-1.928475e-01
-2.730340e-01
-3.499951e-01
-4.243188e-01
-4.961516e-01
-5.654849e-01
-6.322754e-01
-6.964754e-01
-7.580447e-01
-8.169540e-01
-8.731874e-01
-9.267445e-01
-9.776384e-01
-1.025895e+00
-1.071557e+00
-1.114688e+00
-1.155375e+00
-1.193734e+00
-1.229919e+00
-1.264137e+00
-1.296662e+00
-1.327857e+00
-1.358205e+00
-1.388364e+00
-1.419247e+00
-1.452159e+00
-1.489015e+00
-1.532629e+00
-1.586653e+00
-1.651030e+00
-1.690316e+00
0.000000e+00
-7.126151e-02
-1.482691e-01
-2.208784e-01
-2.898952e-01
-3.559778e-01
-4.194725e-01
-4.805306e-01
-5.392132e-01
-5.955401e-01
-6.495146e-01
-7.011360e-01
-7.504061e-01
-7.973330e-01
-8.419328e-01
-8.842293e-01
-9.242579e-01
-9.620687e-01
-9.977279e-01
-1.031320e+00
-1.062951e+00
-1.092759e+00
-1.120914e+00
-1.147627e+00
-1.173143e+00
-1.197748e+00
-1.221742e+00
-1.245374e+00
-1.268644e+00
-1.290795e+00
-1.309252e+00
-1.320043e+00
-1.335064e+00
0.000000e+00
-5.652504e-02
-1.163709e-01
-1.773046e-01
-2.365172e-01
-2.935523e-01
-3.483712e-01
-4.010256e-01
-4.515625e-01
-5.000121e-01
-5.463942e-01
-5.907238e-01
-6.330131e-01
-6.732745e-01
-7.115227e-01
-7.477756e-01
-7.820559e-01
-8.143939e-01
-8.448264e-01
-8.733964e-01
-9.001532e-01
-9.251508e-01
-9.484432e-01
-9.700719e-01
-9.900452e-01
-1.008298e+00
-1.024623e+00
-1.038538e+00
-1.049103e+00
-1.054793e+00
-1.054296e+00
-1.051103e+00
-1.068643e+00
0.000000e+00
-4.484810e-02
-9.217287e-02
-1.407941e-01
-1.893048e-01
-2.366437e-01
-2.824032e-01
-3.264393e-01
-3.687130e-01
-4.092204e-01
-4.479710e-01
-4.849789e-01
-5.202569e-01
-5.538153e-01
-5.856637e-01
-6.158108e-01
-6.442643e-01
-6.710316e-01
-6.961188e-01
-7.195275e-01
-7.412513e-01
-7.612700e-01
-7.795393e-01
-7.959740e-01
-8.104225e-01
-8.226295e-01
-8.321911e-01
-8.385235e-01
-8.409419e-01
-8.391482e-01
-8.347899e-01
-8.345299e-01
-8.512413e-01
0.000000e+00
-3.480839e-02
-7.127557e-02
-1.089088e-01
-1.468506e-01
-1.843288e-01
-2.208251e-01
-2.560788e-01
-2.899717e-01
-3.224563e-01
-3.535199e-01
-3.831648e-01
-4.113967e-01
-4.382197e-01
-4.636350e-01
-4.876407e-01
-5.102289e-01
-5.313860e-01
-5.510904e-01
-5.693093e-01
-5.859936e-01
-6.010715e-01
-6.144399e-01
-6.259518e-01
-6.354037e-01
-6.425285e-01
-6.470122e-01
-6.485857e-01
-6.472963e-01
-6.441400e-01
-6.420919e-01
-6.468208e-01
-6.610769e-01
0.000000e+00
-2.558179e-02
-5.225986e-02
-7.979623e-02
-1.077159e-01
-1.354969e-01
-1.627246e-01
-1.891308e-01
-2.145685e-01
-2.389652e-01
-2.622901e-01
-2.845327e-01
-3.056891e-01
-3.257548e-01
-3.447224e-01
-3.625785e-01
-3.793020e-01
-3.948619e-01
-4.092163e-01
-4.223091e-01
-4.340664e-01
-4.443928e-01
-4.531674e-01
-4.602431e-01
-4.654519e-01
-4.686304e-01
-4.696853e-01
-4.687398e-01
-4.664082e-01
-4.641895e-01
-4.647293e-01
-4.707577e-01
-4.825536e-01
0.000000e+00
-1.683563e-02
-3.433757e-02
-5.239569e-02
-7.075279e-02
-8.909944e-02
-1.071585e-01
-1.247285e-01
-1.416835e-01
-1.579539e-01
-1.735040e-01
-1.883161e-01
-2.023787e-01
-2.156798e-01
-2.282034e-01
-2.399268e-01
-2.508185e-01
-2.608362e-01
-2.699261e-01
-2.780212e-01
-2.850402e-01
-2.908879e-01
-2.954581e-01
-2.986428e-01
-3.003540e-01
-3.005663e-01
-2.993966e-01
-2.972319e-01
-2.948958e-01
-2.937630e-01
-2.955291e-01
-3.013984e-01
-3.109205e-01
0.000000e+00
-8.362086e-03
-1.704058e-02
-2.599119e-02
-3.510094e-02
-4.422576e-02
-5.322875e-02
-6.200298e-02
-7.047630e-02
-7.860459e-02
-8.636157e-02
-9.372989e-02
-1.006943e-01
-1.072376e-01
-1.133374e-01
-1.189645e-01
-1.240811e-01
-1.286399e-01
-1.325834e-01
-1.358444e-01
-1.383476e-01
-1.400138e-01
-1.407685e-01
-1.405583e-01
-1.393792e-01
-1.373212e-01
-1.346333e-01
-1.318011e-01
-1.296021e-01
-1.290508e-01
-1.311231e-01
-1.362436e-01
-1.437998e-01
0.000000e+00
-1.325364e-05
-2.884593e-05
-4.592403e-05
-6.358848e-05
-8.060561e-05
-9.508559e-05
-1.041910e-04
-1.037903e-04
-8.795002e-05
-4.833080e-05
2.646724e-05
1.516890e-04
3.473333e-04
6.390647e-04
1.059077e-03
1.646838e-03
2.449442e-03
3.521152e-03
4.921675e-03
6.712389e-03
8.949340e-03
1.167139e-02
1.488153e-02
1.851958e-02
2.242607e-02
2.630194e-02
2.967894e-02
3.193359e-02
3.239137e-02
3.055131e-02
2.638323e-02
2.054519e-02
0.000000e+00
8.337207e-03
1.698634e-02
2.590461e-02
3.498066e-02
4.407273e-02
5.304744e-02
6.180314e-02
7.027544e-02
7.843138e-02
8.626030e-02
9.376615e-02
1.009624e-01
1.078694e-01
1.145133e-01
1.209256e-01
1.271436e-01
1.332093e-01
1.391687e-01
1.450697e-01
1.509562e-01
1.568609e-01
1.627922e-01
1.687173e-01
1.745396e-01
1.800752e-01
1.850345e-01
1.890237e-01
1.915871e-01
1.923133e-01
1.909995e-01
1.878330e-01
1.834998e-01
0.000000e+00
1.681545e-02
3.429336e-02
5.232457e-02
7.065292e-02
8.897096e-02
1.070043e-01
1.245556e-01
1.415052e-01
1.577924e-01
1.733945e-01
1.883106e-01
2.025528e-01
2.161398e-01
2.290955e-01
2.414478e-01
2.532278e-01
2.644687e-01
2.752053e-01
2.854706e-01
2.952915e-01
3.046806e-01
3.136253e-01
3.220737e-01
3.299194e-01
3.369883e-01
3.430347e-01
3.477574e-01
3.508488e-01
3.520850e-01
3.514497e-01
3.492585e-01
3.462342e-01
0.000000e+00
2.556895e-02
5.223147e-02
7.974974e-02
1.076490e-01
1.354090e-01
1.626168e-01
1.890062e-01
2.144342e-01
2.388345e-01
2.621843e-01
2.844837e-01
3.057441e-01
3.259816e-01
3.452149e-01
3.634647e-01
3.807530e-01
3.971015e-01
4.125306e-01
4.270579e-01
4.406940e-01
4.534359e-01
4.652589e-01
4.761071e-01
4.858840e-01
4.944475e-01
5.016136e-01
5.071753e-01
5.109472e-01
5.128373e-01
5.129435e-01
5.116581e-01
5.097467e-01
0.000000e+00
3.480504e-02
7.126780e-02
1.088949e-01
1.468282e-01
1.842970e-01
2.207835e-01
2.560269e-01
2.899101e-01
3.223883e-01
3.534510e-01
3.831037e-01
4.113574e-01
4.382236e-01
4.637127e-01
4.878350e-01
5.106002e-01
5.320159e-01
5.520865e-01
5.708128e-01
5.881897e-01
6.042011e-01
6.188162e-01
6.319842e-01
6.436308e-01
6.536583e-01
6.619520e-01
6.683980e-01
6.729155e-01
6.755109e-01
6.763527e-01
6.758700e-01
6.748631e-01
0.000000e+00
4.485606e-02
9.218954e-02
1.408190e-01
1.893369e-01
2.366821e-01
2.824473e-01
3.264867e-01
3.687596e-01
4.092607e-01
4.479963e-01
4.849760e-01
5.202074e-01
5.536940e-01
5.854352e-01
6.154283e-01
6.436680e-01
6.701452e-01
6.948463e-01
7.177537e-01
7.388447e-01
7.580898e-01
7.754520e-01
7.908874e-01
8.043470e-01
8.157802e-01
8.251444e-01
8.324184e-01
8.376244e-01
8.408597e-01
8.423479e-01
8.425252e-01
8.421912e-01
0.000000e+00
5.654527e-02
1.164139e-01
1.773719e-01
2.366104e-01
2.936722e-01
3.485182e-01
4.011984e-01
4.517560e-01
5.002160e-01
5.465910e-01
5.908851e-01
6.330954e-01
6.732139e-01
7.112272e-01
7.471177e-01
7.808635e-01
8.124370e-01
8.418044e-01
8.689266e-01
8.937595e-01
9.162545e-01
9.363621e-01
9.540373e-01
9.692471e-01
9.819801e-01
9.922590e-01
1.000156e+00
1.005809e+00
1.009429e+00
1.011323e+00
1.011941e+00
1.012014e+00
0.000000e+00
7.129268e-02
1.483357e-01
2.209853e-01
2.900487e-01
3.561822e-01
4.197316e-01
4.808479e-01
5.395877e-01
5.959633e-01
6.499691e-01
7.015898e-01
7.508049e-01
7.975917e-01
8.419239e-01
8.837697e-01
9.230907e-01
9.598405e-01
9.939633e-01
1.025395e+00
1.054063e+00
1.079891e+00
1.102801e+00
1.122727e+00
1.139629e+00
1.153509e+00
1.164431e+00
1.172549e+00
1.178126e+00
1.181543e+00
1.183289e+00
1.183922e+00
1.184077e+00
0.000000e+00
1.063226e-01
1.929255e-01
2.731675e-01
3.501962e-01
4.245971e-01
4.965173e-01
5.659499e-01
6.328485e-01
6.971590e-01
7.588332e-01
8.178273e-01
8.741011e-01
9.276186e-01
9.783436e-01
1.026234e+00
1.071237e+00
1.113291e+00
1.152318e+00
1.188226e+00
1.220907e+00
1.250241e+00
1.276100e+00
1.298366e+00
1.316948e+00
1.331810e+00
1.343004e+00
1.350715e+00
1.355312e+00
1.357383e+00
1.357759e+00
1.357448e+00
1.357272e+00
0.000000e+00
-6.568526e-02
-1.146391e-01
-1.680621e-01
-2.275536e-01
-2.947556e-01
-3.701347e-01
-4.538225e-01
-5.457357e-01
-6.456772e-01
-7.533827e-01
-8.685479e-01
-9.908441e-01
-1.119929e+00
-1.255454e+00
-1.397066e+00
-1.544418e+00
-1.697165e+00
-1.854977e+00
-2.017540e+00
-2.184570e+00
-2.355831e+00
-2.531153e+00
-2.710466e+00
-2.893862e+00
-3.081679e+00
-3.274665e+00
-3.474276e+00
-3.683299e+00
-3.907252e+00
-4.158039e+00
-4.463748e+00
-4.886096e+00
0.000000e+00
-4.082100e-02
-9.206252e-02
-1.458449e-01
-2.061640e-01
-2.740946e-01
-3.502054e-01
-4.346251e-01
-5.272775e-01
-6.279654e-01
-7.364231e-01
-8.523442e-01
-9.753970e-01
-1.105236e+00
-1.241509e+00
-1.383861e+00
-1.531939e+00
-1.685393e+00
-1.843887e+00
-2.007100e+00
-2.174739e+00
-2.346552e+00
-2.522355e+00
-2.702060e+00
-2.885733e+00
-3.073682e+00
-3.266615e+00
-3.465944e+00
-3.674397e+00
-3.897399e+00
-4.146250e+00
-4.445155e+00
-4.839732e+00
0.000000e+00
-2.998579e-02
-7.422139e-02
-1.272696e-01
-1.876929e-01
-2.561230e-01
-3.328335e-01
-4.178959e-01
-5.112077e-01
-6.125622e-01
-7.216893e-01
-8.382800e-01
-9.620012e-01
-1.092506e+00
-1.229442e+00
-1.372451e+00
-1.521179e+00
-1.675275e+00
-1.834399e+00
-1.998229e+00
-2.166468e+00
-2.338863e+00
-2.515229e+00
-2.695481e+00
-2.879693e+00
-3.068190e+00
-3.261711e+00
-3.461703e+00
-3.670863e+00
-3.894076e+00
-4.139690e+00
-4.417567e+00
-4.725811e+00
0.000000e+00
-2.401219e-02
-6.285167e-02
-1.130708e-01
-1.727171e-01
-2.411253e-01
-3.181629e-01
-4.037008e-01
-4.975552e-01
-5.994813e-01
-7.091912e-01
-8.263683e-01
-9.506767e-01
-1.081769e+00
-1.219293e+00
-1.362892e+00
-1.512213e+00
-1.666906e+00
-1.826632e+00
-1.991072e+00
-2.159934e+00
-2.332972e+00
-2.510007e+00
-2.690970e+00
-2.875952e+00
-3.065293e+00
-3.259726e+00
-3.460584e+00
-3.670074e+00
-3.891415e+00
-4.127690e+00
-4.376885e+00
-4.608857e+00
0.000000e+00
-2.031916e-02
-5.541641e-02
-1.029880e-01
-1.612744e-01
-2.292339e-01
-3.062999e-01
-3.921149e-01
-4.863698e-01
-5.887560e-01
-6.989533e-01
-8.166300e-01
-9.414448e-01
-1.073049e+00
-1.211091e+00
-1.355219e+00
-1.505081e+00
-1.660331e+00
-1.820637e+00
-1.985682e+00
-2.155183e+00
-2.328901e+00
-2.506665e+00
-2.688409e+00
-2.874218e+00
-3.064392e+00
-3.259525e+00
-3.460580e+00
-3.668824e+00
-3.885281e+00
-4.108917e+00
-4.331520e+00
-4.533541e+00
0.000000e+00
-1.796923e-02
-5.053791e-02
-9.604941e-02
-1.530238e-01
-2.203467e-01
-2.972449e-01
-3.831691e-01
-4.776874e-01
-5.804183e-01
-6.910017e-01
-8.090863e-01
-9.343224e-01
-1.066360e+00
-1.204849e+00
-1.349440e+00
-1.499788e+00
-1.655550e+00
-1.816400e+00
-1.982027e+00
-2.152151e+00
-2.326534e+00
-2.505001e+00
-2.687466e+00
-2.873962e+00
-3.064667e+00
-3.259918e+00
-3.460137e+00
-3.665556e+00
-3.875483e+00
-4.086719e+00
-4.291714e+00
-4.479076e+00
0.000000e+00
-1.650880e-02
-4.745348e-02
-9.153920e-02
-1.474965e-01
-2.142392e-01
-2.909091e-01
-3.768439e-01
-4.715177e-01
-5.744869e-01
-6.853549e-01
-8.037512e-01
-9.293181e-01
-1.061704e+00
-1.200560e+00
-1.345542e+00
-1.496309e+00
-1.652523e+00
-1.813862e+00
-1.980016e+00
-2.150702e+00
-2.325675e+00
-2.504734e+00
-2.687747e+00
-2.874649e+00
-3.065443e+00
-3.260147e+00
-3.458648e+00
-3.660376e+00
-3.863688e+00
-4.065066e+00
-4.258703e+00
-4.437482e+00
0.000000e+00
-1.570631e-02
-4.574204e-02
-8.899768e-02
-1.443271e-01
-2.106817e-01
-2.871756e-01
-3.730915e-01
-4.678493e-01
-5.709659e-01
-6.820203e-01
-8.006292e-01
-9.264299e-01
-1.059070e+00
-1.198205e+00
-1.343493e+00
-1.494596e+00
-1.651183e+00
-1.812929e+00
-1.979522e+00
-2.150670e+00
-2.326105e+00
-2.505587e+00
-2.688910e+00
-2.875888e+00
-3.066330e+00
-3.259955e+00
-3.456235e+00
-3.654124e+00
-3.851675e+00
-4.045715e+00
-4.231874e+00
-4.405296e+00
0.000000e+00
-1.544778e-02
-4.518995e-02
-8.817406e-02
-1.432942e-01
-2.095174e-01
-2.859527e-01
-3.718672e-01
-4.666648e-01
-5.698502e-01
-6.809957e-01
-7.997151e-01
-9.256460e-01
-1.058439e+00
-1.197752e+00
-1.343246e+00
-1.494589e+00
-1.651447e+00
-1.813495e+00
-1.980413e+00
-2.151890e+00
-2.327626e+00
-2.507331e+00
-2.690713e+00
-2.877463e+00
-3.067207e+00
-3.259430e+00
-3.453342e+00
-3.647691e+00
-3.840561e+00
-4.029267e+00
-4.210475e+00
-4.380627e+00
0.000000e+00
-1.569889e-02
-4.573183e-02
-8.898902e-02
-1.443246e-01
-2.106912e-01
-2.872052e-01
-3.731515e-01
-4.679534e-01
-5.711322e-01
-6.822722e-01
-8.009959e-01
-9.269473e-01
-1.059782e+00
-1.199162e+00
-1.344752e+00
-1.496220e+00
-1.653232e+00
-1.815458e+00
-1.982564e+00
-2.154217e+00
-2.330082e+00
-2.509809e+00
-2.693025e+00
-2.879304e+00
-3.068128e+00
-3.258822e+00
-3.450458e+00
-3.641745e+00
-3.830940e+00
-4.015831e+00
-4.193837e+00
-4.362240e+00
0.000000e+00
-1.649458e-02
-4.743387e-02
-9.152246e-02
-1.474914e-01
-2.142572e-01
-2.909652e-01
-3.769582e-01
-4.717165e-01
-5.748050e-01
-6.858371e-01
-8.044535e-01
-9.303098e-01
-1.063069e+00
-1.202396e+00
-1.347959e+00
-1.499427e+00
-1.656462e+00
-1.818725e+00
-1.985871e+00
-2.157541e+00
-2.333362e+00
-2.512930e+00
-2.695795e+00
-2.881438e+00
-3.069235e+00
-3.258410e+00
-3.447984e+00
-3.636717e+00
-3.823084e+00
-4.005293e+00
-4.181357e+00
-4.349188e+00
0.000000e+00
-1.794942e-02
-5.051059e-02
-9.602591e-02
-1.530164e-01
-2.203711e-01
-2.973225e-01
-3.833279e-01
-4.779643e-01
-5.808620e-01
-6.916749e-01
-8.100673e-01
-9.357085e-01
-1.068269e+00
-1.207418e+00
-1.352825e+00
-1.504156e+00
-1.661072e+00
-1.823226e+00
-1.990256e+00
-2.161783e+00
-2.337398e+00
-2.516649e+00
-2.699026e+00
-2.883936e+00
-3.070683e+00
-3.258437e+00
-3.446212e+00
-3.632857e+00
-3.817068e+00
-3.997426e+00
-4.172454e+00
-4.340631e+00
0.000000e+00
-2.029569e-02
-5.538412e-02
-1.029601e-01
-1.612656e-01
-2.292635e-01
-3.063935e-01
-3.923064e-01
-4.867041e-01
-5.892922e-01
-6.997669e-01
-8.178161e-01
-9.431211e-01
-1.075358e+00
-1.214200e+00
-1.359316e+00
-1.510370e+00
-1.667021e+00
-1.828912e+00
-1.995671e+00
-2.166897e+00
-2.342155e+00
-2.520956e+00
-2.702742e+00
-2.886871e+00
-3.072600e+00
-3.259072e+00
-3.445318e+00
-3.630278e+00
-3.812845e+00
-3.991935e+00
-4.166544e+00
-4.335735e+00
0.000000e+00
-2.398795e-02
-6.281837e-02
-1.130421e-01
-1.727094e-01
-2.411601e-01
-3.182685e-01
-4.039146e-01
-4.979272e-01
-6.000766e-01
-7.100931e-01
-8.276817e-01
-9.525317e-01
-1.084323e+00
-1.222728e+00
-1.367418e+00
-1.518054e+00
-1.674290e+00
-1.835764e+00
-2.002094e+00
-2.172867e+00
-2.347625e+00
-2.525854e+00
-2.706968e+00
-2.890293e+00
-3.075059e+00
-3.260399e+00
-3.445366e+00
-3.628977e+00
-3.810284e+00
-3.988483e+00
-4.163015e+00
-4.333600e+00
0.000000e+00
-2.996469e-02
-7.419215e-02
-1.272451e-01
-1.876905e-01
-2.561654e-01
-3.329502e-01
-4.181260e-01
-5.116031e-01
-6.131904e-01
-7.226361e-01
-8.396539e-01
-9.639358e-01
-1.095162e+00
-1.233006e+00
-1.377137e+00
-1.527213e+00
-1.682887e+00
-1.843792e+00
-2.009538e+00
-2.179704e+00
-2.353821e+00
-2.531360e+00
-2.711720e+00
-2.894213e+00
-3.078060e+00
-3.262396e+00
-3.446296e+00
-3.628831e+00
-3.809163e+00
-3.986693e+00
-4.161241e+00
-4.333227e+00
0.000000e+00
-4.080755e-02
-9.204255e-02
-1.458304e-01
-2.061727e-01
-2.741498e-01
-3.503369e-01
-4.348722e-01
-5.276919e-01
-6.286136e-01
-7.373902e-01
-8.537363e-01
-9.773446e-01
-1.107895e+00
-1.245059e+00
-1.388503e+00
-1.537886e+00
-1.692856e+00
-1.853042e+00
-2.018052e+00
-2.187458e+00
-2.360786e+00
-2.537504e+00
-2.717005e+00
-2.898604e+00
-3.081526e+00
-3.264920e+00
-3.447888e+00
-3.629542e+00
-3.809111e+00
-3.986110e+00
-4.160600e+00
-4.333544e+00
0.000000e+00
-6.568343e-02
-1.146323e-01
-1.680632e-01
-2.275804e-01
-2.948311e-01
-3.702891e-01
-4.540949e-01
-5.461763e-01
-6.463508e-01
-7.543712e-01
-8.699526e-01
-9.927877e-01
-1.122556e+00
-1.258929e+00
-1.401571e+00
-1.550138e+00
-1.704273e+00
-1.863603e+00
-2.027732e+00
-2.196226e+00
-2.368611e+00
-2.544352e+00