TITLE = "Solution"
VARIABLES = x, y, u, v, psiu, psiv, t, stress
ZONE T="structure" N=561 E=512 F=FEBLOCK ET=QUADRILATERAL VARLOCATION=([7,8]=cellcentered)
0.000000e+00
6.250000e+00
1.250000e+01
1.875000e+01
2.500000e+01
3.125000e+01
3.750000e+01
4.375000e+01
5.000000e+01
5.625000e+01
6.250000e+01
6.875000e+01
7.500000e+01
8.125000e+01
8.750000e+01
9.375000e+01
1.000000e+02
1.062500e+02
1.125000e+02
1.187500e+02
1.250000e+02
1.312500e+02
1.375000e+02
1.437500e+02
1.500000e+02
1.562500e+02
1.625000e+02
1.687500e+02
1.750000e+02
1.812500e+02
1.875000e+02
1.937500e+02
2.000000e+02
0.000000e+00
6.250000e+00
1.250000e+01
1.875000e+01
2.500000e+01
3.125000e+01
3.750000e+01
4.375000e+01
5.000000e+01
5.625000e+01
6.250000e+01
6.875000e+01
7.500000e+01
8.125000e+01
8.750000e+01
9.375000e+01
1.000000e+02
1.062500e+02
1.125000e+02
1.187500e+02
1.250000e+02
1.312500e+02
1.375000e+02
1.437500e+02
1.500000e+02
1.562500e+02
1.625000e+02
1.687500e+02
1.750000e+02
1.812500e+02
1.875000e+02
1.937500e+02
2.000000e+02
0.000000e+00
6.250000e+00
1.250000e+01
1.875000e+01
2.500000e+01
3.125000e+01
3.750000e+01
4.375000e+01
5.000000e+01
5.625000e+01
6.250000e+01
6.875000e+01
7.500000e+01
8.125000e+01
8.750000e+01
9.375000e+01
1.000000e+02
1.062500e+02
1.125000e+02
1.187500e+02
1.250000e+02
1.312500e+02
1.375000e+02
1.437500e+02
1.500000e+02
1.562500e+02
1.625000e+02
1.687500e+02
1.750000e+02
1.812500e+02
1.875000e+02
1.937500e+02
2.000000e+02
0.000000e+00
6.250000e+00
1.250000e+01
1.875000e+01
2.500000e+01
3.125000e+01
3.750000e+01
4.375000e+01
5.000000e+01
5.625000e+01
6.250000e+01
6.875000e+01
7.500000e+01
8.125000e+01
8.750000e+01
9.375000e+01
1.000000e+02
1.062500e+02
1.125000e+02
1.187500e+02
1.250000e+02
1.312500e+02
1.375000e+02
1.437500e+02
1.500000e+02
1.562500e+02
1.625000e+02
1.687500e+02
1.750000e+02
1.812500e+02
1.875000e+02
1.937500e+02
2.000000e+02
0.000000e+00
6.250000e+00
1.250000e+01
1.875000e+01
2.500000e+01
3.125000e+01
3.750000e+01
4.375000e+01
5.000000e+01
5.625000e+01
6.250000e+01
6.875000e+01
7.500000e+01
8.125000e+01
8.750000e+01
9.375000e+01
1.000000e+02
1.062500e+02
1.125000e+02
1.187500e+02
1.250000e+02
1.312500e+02
1.375000e+02
1.437500e+02
1.500000e+02
1.562500e+02
1.625000e+02
1.687500e+02
1.750000e+02
1.812500e+02
1.875000e+02
1.937500e+02
2.000000e+02
0.000000e+00
6.250000e+00
1.250000e+01
1.875000e+01
2.500000e+01
3.125000e+01
3.750000e+01
4.375000e+01
5.000000e+01
5.625000e+01
6.250000e+01
6.875000e+01
7.500000e+01
8.125000e+01
8.750000e+01
9.375000e+01
1.000000e+02
1.062500e+02
1.125000e+02
1.187500e+02
1.250000e+02
1.312500e+02
1.375000e+02
1.437500e+02
1.500000e+02
1.562500e+02
1.625000e+02
1.687500e+02
1.750000e+02
1.812500e+02
1.875000e+02
1.937500e+02
2.000000e+02
0.000000e+00
6.250000e+00
1.250000e+01
1.875000e+01
2.500000e+01
3.125000e+01
3.750000e+01
4.375000e+01
5.000000e+01
5.625000e+01
6.250000e+01
6.875000e+01
7.500000e+01
8.125000e+01
8.750000e+01
9.375000e+01
1.000000e+02
1.062500e+02
1.125000e+02
1.187500e+02
1.250000e+02
1.312500e+02
1.375000e+02
1.437500e+02
1.500000e+02
1.562500e+02
1.625000e+02
1.687500e+02
1.750000e+02
1.812500e+02
1.875000e+02
1.937500e+02
2.000000e+02
0.000000e+00
6.250000e+00
1.250000e+01
1.875000e+01
2.500000e+01
3.125000e+01
3.750000e+01
4.375000e+01
5.000000e+01
5.625000e+01
6.250000e+01
6.875000e+01
7.500000e+01
8.125000e+01
8.750000e+01
9.375000e+01
1.000000e+02
1.062500e+02
1.125000e+02
1.187500e+02
1.250000e+02
1.312500e+02
1.375000e+02
1.437500e+02
1.500000e+02
1.562500e+02
1.625000e+02
1.687500e+02
1.750000e+02
1.812500e+02
1.875000e+02
1.937500e+02
2.000000e+02
0.000000e+00
6.250000e+00
1.250000e+01
1.875000e+01
2.500000e+01
3.125000e+01
3.750000e+01
4.375000e+01
5.000000e+01
5.625000e+01
6.250000e+01
6.875000e+01
7.500000e+01
8.125000e+01
8.750000e+01
9.375000e+01
1.000000e+02
1.062500e+02
1.125000e+02
1.187500e+02
1.250000e+02
1.312500e+02
1.375000e+02
1.437500e+02
1.500000e+02
1.562500e+02
1.625000e+02
1.687500e+02
1.750000e+02
1.812500e+02
1.875000e+02
1.937500e+02
2.000000e+02
0.000000e+00
6.250000e+00
1.250000e+01
1.875000e+01
2.500000e+01
3.125000e+01
3.750000e+01
4.375000e+01
5.000000e+01
5.625000e+01
6.250000e+01
6.875000e+01
7.500000e+01
8.125000e+01
8.750000e+01
9.375000e+01
1.000000e+02
1.062500e+02
1.125000e+02
1.187500e+02
1.250000e+02
1.312500e+02
1.375000e+02
1.437500e+02
1.500000e+02
1.562500e+02
1.625000e+02
1.687500e+02
1.750000e+02
1.812500e+02
1.875000e+02
1.937500e+02
2.000000e+02
0.000000e+00
6.250000e+00
1.250000e+01
1.875000e+01
2.500000e+01
3.125000e+01
3.750000e+01
4.375000e+01
5.000000e+01
5.625000e+01
6.250000e+01
6.875000e+01
7.500000e+01
8.125000e+01
8.750000e+01
9.375000e+01
1.000000e+02
1.062500e+02
1.125000e+02
1.187500e+02
1.250000e+02
1.312500e+02
1.375000e+02
1.437500e+02
1.500000e+02
1.562500e+02
1.625000e+02
1.687500e+02
1.750000e+02
1.812500e+02
1.875000e+02
1.937500e+02
2.000000e+02
0.000000e+00
6.250000e+00
1.250000e+01
1.875000e+01
2.500000e+01
3.125000e+01
3.750000e+01
4.375000e+01
5.000000e+01
5.625000e+01
6.250000e+01
6.875000e+01
7.500000e+01
8.125000e+01
8.750000e+01
9.375000e+01
1.000000e+02
1.062500e+02
1.125000e+02
1.187500e+02
1.250000e+02
1.312500e+02
1.375000e+02
1.437500e+02
1.500000e+02
1.562500e+02
1.625000e+02
1.687500e+02
1.750000e+02
1.812500e+02
1.875000e+02
1.937500e+02
2.000000e+02
0.000000e+00
6.250000e+00
1.250000e+01
1.875000e+01
2.500000e+01
3.125000e+01
3.750000e+01
4.375000e+01
5.000000e+01
5.625000e+01
6.250000e+01
6.875000e+01
7.500000e+01
8.125000e+01
8.750000e+01
9.375000e+01
1.000000e+02
1.062500e+02
1.125000e+02
1.187500e+02
1.250000e+02
1.312500e+02
1.375000e+02
1.437500e+02
1.500000e+02
1.562500e+02
1.625000e+02
1.687500e+02
1.750000e+02
1.812500e+02
1.875000e+02
1.937500e+02
2.000000e+02
0.000000e+00
6.250000e+00
1.250000e+01
1.875000e+01
2.500000e+01
3.125000e+01
3.750000e+01
4.375000e+01
5.000000e+01
5.625000e+01
6.250000e+01
6.875000e+01
7.500000e+01
8.125000e+01
8.750000e+01
9.375000e+01
1.000000e+02
1.062500e+02
1.125000e+02
1.187500e+02
1.250000e+02
1.312500e+02
1.375000e+02
1.437500e+02
1.500000e+02
1.562500e+02
1.625000e+02
1.687500e+02
1.750000e+02
1.812500e+02
1.875000e+02
1.937500e+02
2.000000e+02
0.000000e+00
6.250000e+00
1.250000e+01
1.875000e+01
2.500000e+01
3.125000e+01
3.750000e+01
4.375000e+01
5.000000e+01
5.625000e+01
6.250000e+01
6.875000e+01
7.500000e+01
8.125000e+01
8.750000e+01
9.375000e+01
1.000000e+02
1.062500e+02
1.125000e+02
1.187500e+02
1.250000e+02
1.312500e+02
1.375000e+02
1.437500e+02
1.500000e+02
1.562500e+02
1.625000e+02
1.687500e+02
1.750000e+02
1.812500e+02
1.875000e+02
1.937500e+02
2.000000e+02
0.000000e+00
6.250000e+00
1.250000e+01
1.875000e+01
2.500000e+01
3.125000e+01
3.750000e+01
4.375000e+01
5.000000e+01
5.625000e+01
6.250000e+01
6.875000e+01
7.500000e+01
8.125000e+01
8.750000e+01
9.375000e+01
1.000000e+02
1.062500e+02
1.125000e+02
1.187500e+02
1.250000e+02
1.312500e+02
1.375000e+02
1.437500e+02
1.500000e+02
1.562500e+02
1.625000e+02
1.687500e+02
1.750000e+02
1.812500e+02
1.875000e+02
1.937500e+02
2.000000e+02
0.000000e+00
6.250000e+00
1.250000e+01
1.875000e+01
2.500000e+01
3.125000e+01
3.750000e+01
4.375000e+01
5.000000e+01
5.625000e+01
6.250000e+01
6.875000e+01
7.500000e+01
8.125000e+01
8.750000e+01
9.375000e+01
1.000000e+02
1.062500e+02
1.125000e+02
1.187500e+02
1.250000e+02
1.312500e+02
1.375000e+02
1.437500e+02
1.500000e+02
1.562500e+02
1.625000e+02
1.687500e+02
1.750000e+02
1.812500e+02
1.875000e+02
1.937500e+02
2.000000e+02
0.000000e+00
0.000000e+00
0.000000e+00
0.000000e+00
0.000000e+00
0.000000e+00
0.000000e+00
0.000000e+00
0.000000e+00
0.000000e+00
0.000000e+00
0.000000e+00
0.000000e+00
0.000000e+00
0.000000e+00
0.000000e+00
0.000000e+00
0.000000e+00
0.000000e+00
0.000000e+00
0.000000e+00
0.000000e+00
0.000000e+00
0.000000e+00
0.000000e+00
0.000000e+00
0.000000e+00
0.000000e+00
0.000000e+00
0.000000e+00
0.000000e+00
0.000000e+00
0.000000e+00
6.250000e+00
6.250000e+00
6.250000e+00
6.250000e+00
6.250000e+00
6.250000e+00
6.250000e+00
6.250000e+00
6.250000e+00
6.250000e+00
6.250000e+00
6.250000e+00
6.250000e+00
6.250000e+00
6.250000e+00
6.250000e+00
6.250000e+00
6.250000e+00
6.250000e+00
6.250000e+00
6.250000e+00
6.250000e+00
6.250000e+00
6.250000e+00
6.250000e+00
6.250000e+00
6.250000e+00
6.250000e+00
6.250000e+00
6.250000e+00
6.250000e+00
6.250000e+00
6.250000e+00
1.250000e+01
1.250000e+01
1.250000e+01
1.250000e+01
1.250000e+01
1.250000e+01
1.250000e+01
1.250000e+01
1.250000e+01
1.250000e+01
1.250000e+01
1.250000e+01
1.250000e+01
1.250000e+01
1.250000e+01
1.250000e+01
1.250000e+01
1.250000e+01
1.250000e+01
1.250000e+01
1.250000e+01
1.250000e+01
1.250000e+01
1.250000e+01
1.250000e+01
1.250000e+01
1.250000e+01
1.250000e+01
1.250000e+01
1.250000e+01
1.250000e+01
1.250000e+01
1.250000e+01
1.875000e+01
1.875000e+01
1.875000e+01
1.875000e+01
1.875000e+01
1.875000e+01
1.875000e+01
1.875000e+01
1.875000e+01
1.875000e+01
1.875000e+01
1.875000e+01
1.875000e+01
1.875000e+01
1.875000e+01
1.875000e+01
1.875000e+01
1.875000e+01
1.875000e+01
1.875000e+01
1.875000e+01
1.875000e+01
1.875000e+01
1.875000e+01
1.875000e+01
1.875000e+01
1.875000e+01
1.875000e+01
1.875000e+01
1.875000e+01
1.875000e+01
1.875000e+01
1.875000e+01
2.500000e+01
2.500000e+01
2.500000e+01
2.500000e+01
2.500000e+01
2.500000e+01
2.500000e+01
2.500000e+01
2.500000e+01
2.500000e+01
2.500000e+01
2.500000e+01
2.500000e+01
2.500000e+01
2.500000e+01
2.500000e+01
2.500000e+01
2.500000e+01
2.500000e+01
2.500000e+01
2.500000e+01
2.500000e+01
2.500000e+01
2.500000e+01
2.500000e+01
2.500000e+01
2.500000e+01
2.500000e+01
2.500000e+01
2.500000e+01
2.500000e+01
2.500000e+01
2.500000e+01
3.125000e+01
3.125000e+01
3.125000e+01
3.125000e+01
3.125000e+01
3.125000e+01
3.125000e+01
3.125000e+01
3.125000e+01
3.125000e+01
3.125000e+01
3.125000e+01
3.125000e+01
3.125000e+01
3.125000e+01
3.125000e+01
3.125000e+01
3.125000e+01
3.125000e+01
3.125000e+01
3.125000e+01
3.125000e+01
3.125000e+01
3.125000e+01
3.125000e+01
3.125000e+01
3.125000e+01
3.125000e+01
3.125000e+01
3.125000e+01
3.125000e+01
3.125000e+01
3.125000e+01
3.750000e+01
3.750000e+01
3.750000e+01
3.750000e+01
3.750000e+01
3.750000e+01
3.750000e+01
3.750000e+01
3.750000e+01
3.750000e+01
3.750000e+01
3.750000e+01
3.750000e+01
3.750000e+01
3.750000e+01
3.750000e+01
3.750000e+01
3.750000e+01
3.750000e+01
3.750000e+01
3.750000e+01
3.750000e+01
3.750000e+01
3.750000e+01
3.750000e+01
3.750000e+01
3.750000e+01
3.750000e+01
3.750000e+01
3.750000e+01
3.750000e+01
3.750000e+01
3.750000e+01
4.375000e+01
4.375000e+01
4.375000e+01
4.375000e+01
4.375000e+01
4.375000e+01
4.375000e+01
4.375000e+01
4.375000e+01
4.375000e+01
4.375000e+01
4.375000e+01
4.375000e+01
4.375000e+01
4.375000e+01
4.375000e+01
4.375000e+01
4.375000e+01
4.375000e+01
4.375000e+01
4.375000e+01
4.375000e+01
4.375000e+01
4.375000e+01
4.375000e+01
4.375000e+01
4.375000e+01
4.375000e+01
4.375000e+01
4.375000e+01
4.375000e+01
4.375000e+01
4.375000e+01
5.000000e+01
5.000000e+01
5.000000e+01
5.000000e+01
5.000000e+01
5.000000e+01
5.000000e+01
5.000000e+01
5.000000e+01
5.000000e+01
5.000000e+01
5.000000e+01
5.000000e+01
5.000000e+01
5.000000e+01
5.000000e+01
5.000000e+01
5.000000e+01
5.000000e+01
5.000000e+01
5.000000e+01
5.000000e+01
5.000000e+01
5.000000e+01
5.000000e+01
5.000000e+01
5.000000e+01
5.000000e+01
5.000000e+01
5.000000e+01
5.000000e+01
5.000000e+01
5.000000e+01
5.625000e+01
5.625000e+01
5.625000e+01
5.625000e+01
5.625000e+01
5.625000e+01
5.625000e+01
5.625000e+01
5.625000e+01
5.625000e+01
5.625000e+01
5.625000e+01
5.625000e+01
5.625000e+01
5.625000e+01
5.625000e+01
5.625000e+01
5.625000e+01
5.625000e+01
5.625000e+01
5.625000e+01
5.625000e+01
5.625000e+01
5.625000e+01
5.625000e+01
5.625000e+01
5.625000e+01
5.625000e+01
5.625000e+01
5.625000e+01
5.625000e+01
5.625000e+01
5.625000e+01
6.250000e+01
6.250000e+01
6.250000e+01
6.250000e+01
6.250000e+01
6.250000e+01
6.250000e+01
6.250000e+01
6.250000e+01
6.250000e+01
6.250000e+01
6.250000e+01
6.250000e+01
6.250000e+01
6.250000e+01
6.250000e+01
6.250000e+01
6.250000e+01
6.250000e+01
6.250000e+01
6.250000e+01
6.250000e+01
6.250000e+01
6.250000e+01
6.250000e+01
6.250000e+01
6.250000e+01
6.250000e+01
6.250000e+01
6.250000e+01
6.250000e+01
6.250000e+01
6.250000e+01
6.875000e+01
6.875000e+01
6.875000e+01
6.875000e+01
6.875000e+01
6.875000e+01
6.875000e+01
6.875000e+01
6.875000e+01
6.875000e+01
6.875000e+01
6.875000e+01
6.875000e+01
6.875000e+01
6.875000e+01
6.875000e+01
6.875000e+01
6.875000e+01
6.875000e+01
6.875000e+01
6.875000e+01
6.875000e+01
6.875000e+01
6.875000e+01
6.875000e+01
6.875000e+01
6.875000e+01
6.875000e+01
6.875000e+01
6.875000e+01
6.875000e+01
6.875000e+01
6.875000e+01
7.500000e+01
7.500000e+01
7.500000e+01
7.500000e+01
7.500000e+01
7.500000e+01
7.500000e+01
7.500000e+01
7.500000e+01
7.500000e+01
7.500000e+01
7.500000e+01
7.500000e+01
7.500000e+01
7.500000e+01
7.500000e+01
7.500000e+01
7.500000e+01
7.500000e+01
7.500000e+01
7.500000e+01
7.500000e+01
7.500000e+01
7.500000e+01
7.500000e+01
7.500000e+01
7.500000e+01
7.500000e+01
7.500000e+01
7.500000e+01
7.500000e+01
7.500000e+01
7.500000e+01
8.125000e+01
8.125000e+01
8.125000e+01
8.125000e+01
8.125000e+01
8.125000e+01
8.125000e+01
8.125000e+01
8.125000e+01
8.125000e+01
8.125000e+01
8.125000e+01
8.125000e+01
8.125000e+01
8.125000e+01
8.125000e+01
8.125000e+01
8.125000e+01
8.125000e+01
8.125000e+01
8.125000e+01
8.125000e+01
8.125000e+01
8.125000e+01
8.125000e+01
8.125000e+01
8.125000e+01
8.125000e+01
8.125000e+01
8.125000e+01
8.125000e+01
8.125000e+01
8.125000e+01
8.750000e+01
8.750000e+01
8.750000e+01
8.750000e+01
8.750000e+01
8.750000e+01
8.750000e+01
8.750000e+01
8.750000e+01
8.750000e+01
8.750000e+01
8.750000e+01
8.750000e+01
8.750000e+01
8.750000e+01
8.750000e+01
8.750000e+01
8.750000e+01
8.750000e+01
8.750000e+01
8.750000e+01
8.750000e+01
8.750000e+01
8.750000e+01
8.750000e+01
8.750000e+01
8.750000e+01
8.750000e+01
8.750000e+01
8.750000e+01
8.750000e+01
8.750000e+01
8.750000e+01
9.375000e+01
9.375000e+01
9.375000e+01
9.375000e+01
9.375000e+01
9.375000e+01
9.375000e+01
9.375000e+01
9.375000e+01
9.375000e+01
9.375000e+01
9.375000e+01
9.375000e+01
9.375000e+01
9.375000e+01
9.375000e+01
9.375000e+01
9.375000e+01
9.375000e+01
9.375000e+01
9.375000e+01
9.375000e+01
9.375000e+01
9.375000e+01
9.375000e+01
9.375000e+01
9.375000e+01
9.375000e+01
9.375000e+01
9.375000e+01
9.375000e+01
9.375000e+01
9.375000e+01
1.000000e+02
1.000000e+02
1.000000e+02
1.000000e+02
1.000000e+02
1.000000e+02
1.000000e+02
1.000000e+02
1.000000e+02
1.000000e+02
1.000000e+02
1.000000e+02
1.000000e+02
1.000000e+02
1.000000e+02
1.000000e+02
1.000000e+02
1.000000e+02
1.000000e+02
1.000000e+02
1.000000e+02
1.000000e+02
1.000000e+02
1.000000e+02
1.000000e+02
1.000000e+02
1.000000e+02
1.000000e+02
1.000000e+02
1.000000e+02
1.000000e+02
1.000000e+02
1.000000e+02
0.000000e+00
-3.694958e-01
-6.690123e-01
-9.508690e-01
-1.229142e+00
-1.503425e+00
-1.772857e+00
-2.037072e+00
-2.295665e+00
-2.548094e+00
-2.793758e+00
-3.032053e+00
-3.262389e+00
-3.484222e+00
-3.697088e+00
-3.900622e+00
-4.094587e+00
-4.278882e+00
-4.453573e+00
-4.618910e+00
-4.775350e+00
-4.923608e+00
-5.064709e+00
-5.200081e+00
-5.331678e+00
-5.462168e+00
-5.595233e+00
-5.736065e+00
-5.892178e+00
-6.074174e+00
-6.293735e+00
-6.547253e+00
-6.699577e+00
0.000000e+00
-2.443244e-01
-5.080054e-01
-7.608016e-01
-1.008689e+00
-1.251534e+00
-1.488998e+00
-1.721205e+00
-1.948100e+00
-2.169381e+00
-2.384626e+00
-2.593372e+00
-2.795145e+00
-2.989493e+00
-3.176022e+00
-3.354414e+00
-3.524448e+00
-3.686012e+00
-3.839117e+00
-3.983905e+00
-4.120660e+00
-4.249818e+00
-4.371984e+00
-4.487951e+00
-4.598697e+00
-4.705369e+00
-4.809182e+00
-4.911137e+00
-5.011161e+00
-5.105642e+00
-5.182644e+00
-5.226449e+00
-5.286324e+00
0.000000e+00
-1.917308e-01
-3.954610e-01
-6.069819e-01
-8.184557e-01
-1.026771e+00
-1.230835e+00
-1.430433e+00
-1.625382e+00
-1.815398e+00
-2.000131e+00
-2.179204e+00
-2.352231e+00
-2.518835e+00
-2.678676e+00
-2.831470e+00
-2.976992e+00
-3.115092e+00
-3.245691e+00
-3.368787e+00
-3.484434e+00
-3.592741e+00
-3.693837e+00
-3.787830e+00
-3.874714e+00
-3.954208e+00
-4.025457e+00
-4.086505e+00
-4.133437e+00
-4.159669e+00
-4.159587e+00
-4.148161e+00
-4.217456e+00
0.000000e+00
-1.520291e-01
-3.131726e-01
-4.818140e-01
-6.542157e-01
-8.260349e-01
-9.954793e-01
-1.161733e+00
-1.324294e+00
-1.482757e+00
-1.636764e+00
-1.785975e+00
-1.930057e+00
-2.068690e+00
-2.201574e+00
-2.328444e+00
-2.449064e+00
-2.563233e+00
-2.670778e+00
-2.771547e+00
-2.865381e+00
-2.952092e+00
-3.031414e+00
-3.102933e+00
-3.165980e+00
-3.219477e+00
-3.261741e+00
-3.290338e+00
-3.302335e+00
-3.296287e+00
-3.279174e+00
-3.278634e+00
-3.345164e+00
0.000000e+00
-1.188344e-01
-2.436629e-01
-3.743045e-01
-5.086045e-01
-6.439317e-01
-7.784156e-01
-9.109437e-01
-1.040794e+00
-1.167461e+00
-1.290559e+00
-1.409762e+00
-1.524775e+00
-1.635317e+00
-1.741120e+00
-1.841930e+00
-1.937497e+00
-2.027576e+00
-2.111915e+00
-2.190241e+00
-2.262240e+00
-2.327520e+00
-2.385580e+00
-2.435749e+00
-2.477137e+00
-2.508595e+00
-2.528777e+00
-2.536492e+00
-2.531809e+00
-2.518770e+00
-2.510037e+00
-2.529259e+00
-2.587552e+00
0.000000e+00
-8.792311e-02
-1.797909e-01
-2.755865e-01
-3.742798e-01
-4.742956e-01
-5.742748e-01
-6.731877e-01
-7.703121e-01
-8.651394e-01
-9.572960e-01
-1.046484e+00
-1.132443e+00
-1.214929e+00
-1.293702e+00
-1.368517e+00
-1.439120e+00
-1.505240e+00
-1.566574e+00
-1.622782e+00
-1.673464e+00
-1.718147e+00
-1.756263e+00
-1.787143e+00
-1.810038e+00
-1.824219e+00
-1.829239e+00
-1.825535e+00
-1.815594e+00
-1.805734e+00
-1.807379e+00
-1.832334e+00
-1.881926e+00
0.000000e+00
-5.812293e-02
-1.186636e-01
-1.816582e-01
-2.465727e-01
-3.125509e-01
-3.787287e-01
-4.443792e-01
-5.089465e-01
-5.720238e-01
-6.333080e-01
-6.925576e-01
-7.495606e-01
-8.041138e-01
-8.560093e-01
-9.050240e-01
-9.509121e-01
-9.933980e-01
-1.032169e+00
-1.066868e+00
-1.097088e+00
-1.122373e+00
-1.142228e+00
-1.156155e+00
-1.163745e+00
-1.164847e+00
-1.159905e+00
-1.150501e+00
-1.140097e+00
-1.134619e+00
-1.141559e+00
-1.166349e+00
-1.207174e+00
0.000000e+00
-2.894902e-02
-5.905989e-02
-9.035527e-02
-1.226024e-01
-1.554162e-01
-1.883811e-01
-2.211228e-01
-2.533391e-01
-2.847964e-01
-3.153113e-01
-3.447287e-01
-3.729026e-01
-3.996822e-01
-4.249018e-01
-4.483724e-01
-4.698760e-01
-4.891602e-01
-5.059358e-01
-5.198769e-01
-5.306277e-01
-5.378195e-01
-5.411070e-01
-5.402363e-01
-5.351621e-01
-5.262372e-01
-5.144904e-01
-5.019702e-01
-4.920179e-01
-4.890879e-01
-4.975819e-01
-5.195155e-01
-5.522535e-01
0.000000e+00
-7.030166e-05
-1.491305e-04
-2.323404e-04
-3.157677e-04
-3.940725e-04
-4.595058e-04
-5.004276e-04
-4.994764e-04
-4.314367e-04
-2.607785e-04
6.127166e-05
6.001877e-04
1.442007e-03
2.697371e-03
4.505444e-03
7.037179e-03
1.049690e-02
1.512060e-02
2.116871e-02
2.890993e-02
3.859136e-02
5.038790e-02
6.432291e-02
8.015190e-02
9.720687e-02
1.142174e-01
1.291697e-01
1.393426e-01
1.417316e-01
1.340365e-01
1.160351e-01
9.061723e-02
0.000000e+00
2.881549e-02
5.877595e-02
8.991174e-02
1.219981e-01
1.546605e-01
1.874976e-01
2.201570e-01
2.523685e-01
2.839459e-01
3.147724e-01
3.447845e-01
3.739594e-01
4.023083e-01
4.298741e-01
4.567308e-01
4.829838e-01
5.087687e-01
5.342463e-01
5.595904e-01
5.849670e-01
6.104978e-01
6.362075e-01
6.619477e-01
6.873016e-01
7.114777e-01
7.332234e-01
7.508203e-01
7.622581e-01
7.656831e-01
7.601379e-01
7.464002e-01
7.274929e-01
0.000000e+00
5.801024e-02
1.184223e-01
1.812782e-01
2.460510e-01
3.118935e-01
3.779536e-01
4.435213e-01
5.080666e-01
5.712205e-01
6.327338e-01
6.924398e-01
7.502272e-01
8.060258e-01
8.597988e-01
9.115411e-01
9.612765e-01
1.009055e+00
1.054948e+00
1.099031e+00
1.141366e+00
1.181964e+00
1.220738e+00
1.257443e+00
1.291602e+00
1.322451e+00
1.348913e+00
1.369658e+00
1.383315e+00
1.388864e+00
1.386193e+00
1.376663e+00
1.363453e+00
0.000000e+00
8.784334e-02
1.796179e-01
2.753105e-01
3.738955e-01
4.738039e-01
5.736844e-01
6.725184e-01
7.696007e-01
8.644469e-01
9.567179e-01
1.046165e+00
1.132593e+00
1.215846e+00
1.295797e+00
1.372348e+00
1.445427e+00
1.514987e+00
1.580996e+00
1.643429e+00
1.702248e+00
1.757373e+00
1.808646e+00
1.855786e+00
1.898349e+00
1.935698e+00
1.967013e+00
1.991369e+00
2.007932e+00
2.016269e+00
2.016785e+00
2.011187e+00
2.002834e+00
0.000000e+00
1.187960e-01
2.435780e-01
3.741665e-01
5.084078e-01
6.436712e-01
7.780893e-01
9.105556e-01
1.040356e+00
1.166992e+00
1.290090e+00
1.409342e+00
1.524476e+00
1.635242e+00
1.741414e+00
1.842787e+00
1.939181e+00
2.030441e+00
2.116425e+00
2.197002e+00
2.272036e+00
2.341369e+00
2.404797e+00
2.462047e+00
2.512761e+00
2.556486e+00
2.592699e+00
2.620879e+00
2.640655e+00
2.652033e+00
2.655735e+00
2.653632e+00
2.649230e+00
0.000000e+00
1.520377e-01
3.131884e-01
4.818378e-01
6.542455e-01
8.260632e-01
9.954965e-01
1.161733e+00
1.324266e+00
1.482687e+00
1.636625e+00
1.785725e+00
1.929633e+00
2.067999e+00
2.200484e+00
2.326768e+00
2.446553e+00
2.559563e+00
2.665538e+00
2.764234e+00
2.855412e+00
2.938833e+00
3.014249e+00
3.081406e+00
3.140041e+00
3.189902e+00
3.230776e+00
3.262553e+00
3.285311e+00
3.299462e+00
3.305974e+00
3.306751e+00
3.305289e+00
0.000000e+00
1.917878e-01
3.955824e-01
6.071759e-01
8.187310e-01
1.027126e+00
1.231265e+00
1.430931e+00
1.625931e+00
1.815962e+00
2.000649e+00
2.179573e+00
2.352280e+00
2.518311e+00
2.677209e+00
2.828530e+00
2.971850e+00
3.106767e+00
3.232895e+00
3.349862e+00
3.457310e+00
3.554894e+00
3.642295e+00
3.719241e+00
3.785529e+00
3.841070e+00
3.885937e+00
3.920428e+00
3.945124e+00
3.960947e+00
3.969230e+00
3.971928e+00
3.972248e+00
0.000000e+00
2.444265e-01
5.082239e-01
7.611546e-01
1.009203e+00
1.252226e+00
1.489882e+00
1.722292e+00
1.949383e+00
2.170833e+00
2.386189e+00
2.594926e+00
2.796475e+00
2.990259e+00
3.175707e+00
3.352252e+00
3.519347e+00
3.676464e+00
3.823084e+00
3.958693e+00
4.082784e+00
4.194862e+00
4.294475e+00
4.381245e+00
4.454926e+00
4.515477e+00
4.563156e+00
4.598612e+00
4.622979e+00
4.637915e+00
4.645548e+00
4.648316e+00
4.648994e+00
0.000000e+00
3.696131e-01
6.692833e-01
9.513381e-01
1.229855e+00
1.504427e+00
1.774191e+00
2.038783e+00
2.297785e+00
2.550641e+00
2.796726e+00
3.035372e+00
3.265889e+00
3.487588e+00
3.699797e+00
3.901849e+00
4.093090e+00
4.272877e+00
4.440559e+00
4.595469e+00
4.736915e+00
4.864197e+00
4.976627e+00
5.073583e+00
5.154592e+00
5.219436e+00
5.268309e+00
5.302001e+00
5.322097e+00
5.331161e+00
5.332816e+00
5.331458e+00
5.330692e+00
0.000000e+00
-2.287786e-01
-4.052845e-01
-6.026943e-01
-8.244674e-01
-1.075174e+00
-1.356791e+00
-1.670233e+00
-2.015537e+00
-2.392307e+00
-2.799893e+00
-3.237462e+00
-3.704035e+00
-4.198526e+00
-4.719763e+00
-5.266508e+00
-5.837482e+00
-6.431388e+00
-7.046937e+00
-7.682889e+00
-8.338104e+00
-9.011608e+00
-9.702702e+00
-1.041111e+01
-1.113723e+01
-1.188245e+01
-1.264989e+01
-1.344547e+01
-1.428028e+01
-1.517587e+01
-1.617857e+01
-1.739715e+01
-1.907249e+01
0.000000e+00
-1.425067e-01
-3.269953e-01
-5.238471e-01
-7.465916e-01
-9.985087e-01
-1.281603e+00
-1.596612e+00
-1.943604e+00
-2.322213e+00
-2.731801e+00
-3.171536e+00
-3.640433e+00
-4.137389e+00
-4.661208e+00
-5.210625e+00
-5.784326e+00
-6.380973e+00
-6.999236e+00
-7.637827e+00
-8.295549e+00
-8.971369e+00
-9.664513e+00
-1.037462e+01
-1.110196e+01
-1.184782e+01
-1.261515e+01
-1.340972e+01
-1.424251e+01
-1.513511e+01
-1.613178e+01
-1.732454e+01
-1.888817e+01
0.000000e+00
-1.052430e-01
-2.652766e-01
-4.585023e-01
-6.800844e-01
-9.324350e-01
-1.216537e+00
-1.532830e+00
-1.881279e+00
-2.261502e+00
-2.672855e+00
-3.114496e+00
-3.585435e+00
-4.084559e+00
-4.610655e+00
-5.162439e+00
-5.738577e+00
-6.337707e+00
-6.958475e+00
-7.599569e+00
-8.259771e+00
-8.938028e+00
-9.633555e+00
-1.034599e+01
-1.107562e+01
-1.182382e+01
-1.259362e+01
-1.339101e+01
-1.422702e+01
-1.512148e+01
-1.610672e+01
-1.721717e+01
-1.844196e+01
0.000000e+00
-8.571922e-02
-2.266159e-01
-4.091831e-01
-6.269907e-01
-8.780978e-01
-1.162258e+00
-1.479262e+00
-1.828796e+00
-2.210346e+00
-2.623204e+00
-3.066499e+00
-3.539222e+00
-4.040249e+00
-4.568359e+00
-5.122262e+00
-5.700614e+00
-6.302049e+00
-6.925208e+00
-7.568780e+00
-8.231554e+00
-8.912491e+00
-9.610833e+00
-1.032626e+01
-1.105914e+01
-1.181087e+01
-1.258448e+01
-1.338554e+01
-1.422328e+01
-1.511107e+01
-1.606011e+01
-1.705831e+01
-1.798492e+01
0.000000e+00
-7.443355e-02
-2.021582e-01
-3.749519e-01
-5.872041e-01
-8.357651e-01
-1.119034e+00
-1.436120e+00
-1.786305e+00
-2.168852e+00
-2.582935e+00
-3.027622e+00
-3.501874e+00
-4.004554e+00
-4.534437e+00
-5.090234e+00
-5.670607e+00
-6.274198e+00
-6.899656e+00
-7.545686e+00
-8.211095e+00
-8.894865e+00
-9.596263e+00
-1.031498e+01
-1.105133e+01
-1.180655e+01
-1.258312e+01
-1.338511e+01
-1.421801e+01
-1.508630e+01
-1.598466e+01
-1.687692e+01
-1.768240e+01
0.000000e+00
-6.736309e-02
-1.864772e-01
-3.518783e-01
-5.590358e-01
-8.046441e-01
-1.086539e+00
-1.403272e+00
-1.753744e+00
-2.136978e+00
-2.552007e+00
-2.997823e+00
-3.473349e+00
-3.977432e+00
-4.508849e+00
-5.066318e+00
-5.648514e+00
-6.254093e+00
-6.881721e+00
-7.530117e+00
-8.198096e+00
-8.884642e+00
-9.588989e+00
-1.031074e+01
-1.104999e+01
-1.180746e+01
-1.258458e+01
-1.338318e+01
-1.420445e+01
-1.504565e+01
-1.589269e+01
-1.671243e+01
-1.745595e+01
0.000000e+00
-6.296355e-02
-1.766727e-01
-3.370786e-01
-5.404071e-01
-7.835309e-01
-1.064090e+00
-1.380331e+00
-1.730878e+00
-2.114558e+00
-2.530281e+00
-2.976968e+00
-3.453507e+00
-3.958737e+00
-4.491438e+00
-5.050339e+00
-5.634130e+00
-6.241482e+00
-6.871074e+00
-7.521626e+00
-8.191941e+00
-8.880954e+00
-9.587798e+00
-1.031186e+01
-1.105284e+01
-1.181071e+01
-1.258557e+01
-1.337699e+01
-1.418270e+01
-1.499581e+01
-1.580088e+01
-1.657222e+01
-1.727848e+01
0.000000e+00
-6.054724e-02
-1.712595e-01
-3.287951e-01
-5.298077e-01
-7.713380e-01
-1.050985e+00
-1.366852e+00
-1.717414e+00
-2.101379e+00
-2.517578e+00
-2.964887e+00
-3.442176e+00
-3.948280e+00
-4.481989e+00
-5.042046e+00
-5.627154e+00
-6.235996e+00
-6.867252e+00
-7.519626e+00
-8.191874e+00
-8.882837e+00
-9.591470e+00
-1.031685e+01
-1.105817e+01
-1.181458e+01
-1.258489e+01
-1.336689e+01
-1.415618e+01
-1.494442e+01
-1.571763e+01
-1.645642e+01
-1.713922e+01
0.000000e+00
-5.976763e-02
-1.695148e-01
-3.261176e-01
-5.263681e-01
-7.673716e-01
-1.046725e+00
-1.362497e+00
-1.713118e+00
-2.097263e+00
-2.513742e+00
-2.961425e+00
-3.439186e+00
-3.945868e+00
-4.480276e+00
-5.041166e+00
-5.627255e+00
-6.237229e+00
-6.869756e+00
-7.523504e+00
-8.197153e+00
-8.889409e+00
-9.599001e+00
-1.032466e+01
-1.106502e+01
-1.181847e+01
-1.258281e+01
-1.335466e+01
-1.412866e+01
-1.489649e+01
-1.564632e+01
-1.636335e+01
-1.703182e+01
0.000000e+00
-6.051750e-02
-1.712203e-01
-3.287654e-01
-5.298083e-01
-7.713951e-01
-1.051132e+00
-1.367133e+00
-1.717886e+00
-2.102119e+00
-2.518682e+00
-2.966479e+00
-3.444410e+00
-3.951343e+00
-4.486099e+00
-5.047452e+00
-5.634124e+00
-6.244797e+00
-6.878119e+00
-7.532706e+00
-8.207143e+00
-8.899978e+00
-9.609696e+00
-1.033466e+01
-1.107304e+01
-1.182257e+01
-1.258035e+01
-1.334238e+01
-1.410307e+01
-1.485481e+01
-1.558785e+01
-1.629076e+01
-1.695156e+01
0.000000e+00
-6.290660e-02
-1.765972e-01
-3.370208e-01
-5.404073e-01
-7.836391e-01
-1.064371e+00
-1.380867e+00
-1.731780e+00
-2.115971e+00
-2.532393e+00
-2.980016e+00
-3.457788e+00
-3.964608e+00
-4.499321e+00
-5.060712e+00
-5.647509e+00
-6.258388e+00
-6.891964e+00
-7.546797e+00
-8.221370e+00
-8.914070e+00
-9.623149e+00
-1.034665e+01
-1.108233e+01
-1.182746e+01
-1.257870e+01
-1.333180e+01
-1.408135e+01
-1.482068e+01
-1.554190e+01
-1.623624e+01
-1.689453e+01
0.000000e+00
-6.728402e-02
-1.863718e-01
-3.517967e-01
-5.590346e-01
-8.047931e-01
-1.086928e+00
-1.404016e+00
-1.754999e+00
-2.138947e+00
-2.554953e+00
-3.002078e+00
-3.479328e+00
-3.985638e+00
-4.519874e+00
-5.080835e+00
-5.667252e+00
-6.277787e+00
-6.911028e+00
-7.565477e+00
-8.239523e+00
-8.931410e+00
-9.639186e+00
-1.036063e+01
-1.109318e+01
-1.183381e+01
-1.257891e+01
-1.332419e+01
-1.406462e+01
-1.479449e+01
-1.550756e+01
-1.619733e+01
-1.685712e+01
0.000000e+00
-7.433969e-02
-2.020332e-01
-3.748548e-01
-5.872030e-01
-8.359440e-01
-1.119500e+00
-1.437016e+00
-1.787818e+00
-2.171228e+00
-2.586491e+00
-3.032763e+00
-3.509101e+00
-4.014476e+00
-4.547772e+00
-5.107799e+00
-5.693288e+00
-6.302892e+00
-6.935174e+00
-7.588588e+00
-8.261446e+00
-8.951879e+00
-9.657776e+00
-1.037673e+01
-1.110594e+01
-1.184219e+01
-1.258174e+01
-1.332036e+01
-1.405343e+01
-1.477609e+01
-1.548359e+01
-1.617149e+01
-1.683570e+01
0.000000e+00
-8.562082e-02
-2.264861e-01
-4.090842e-01
-6.269960e-01
-8.783000e-01
-1.162777e+00
-1.480255e+00
-1.830473e+00
-2.212977e+00
-2.627140e+00
-3.072187e+00
-3.547215e+00
-4.051216e+00
-4.583092e+00
-5.141658e+00
-5.725648e+00
-6.333709e+00
-6.964387e+00
-7.616101e+00
-8.287113e+00
-8.975473e+00
-9.678968e+00
-1.039506e+01
-1.112082e+01
-1.185291e+01
-1.258755e+01
-1.332061e+01
-1.404779e+01
-1.476493e+01
-1.546851e+01
-1.615606e+01
-1.682636e+01
0.000000e+00
-1.051539e-01
-2.651610e-01
-4.584198e-01
-6.801094e-01
-9.326640e-01
-1.217096e+00
-1.533886e+00
-1.883050e+00
-2.264269e+00
-2.676980e+00
-3.120440e+00
-3.593768e+00
-4.095965e+00
-4.625943e+00
-5.182523e+00
-5.764441e+00
-6.370343e+00
-6.998765e+00
-7.648112e+00
-8.316614e+00
-9.002280e+00
-9.702845e+00
-1.041571e+01
-1.113789e+01
-1.186601e+01
-1.259628e+01
-1.332469e+01
-1.404717e+01
-1.476004e+01
-1.546069e+01
-1.614831e+01
-1.682472e+01
0.000000e+00
-1.424446e-01
-3.269127e-01
-5.238004e-01
-7.466566e-01
-9.987822e-01
-1.282214e+00
-1.597729e+00
-1.945444e+00
-2.325057e+00
-2.736008e+00
-3.177557e+00
-3.648823e+00
-4.148813e+00
-4.676441e+00
-5.230533e+00
-5.809831e+00
-6.412981e+00
-7.038518e+00
-7.684839e+00
-8.350165e+00
-9.032493e+00
-9.729545e+00
-1.043872e+01
-1.115703e+01
-1.188113e+01
-1.260731e+01
-1.333165e+01
-1.405028e+01
-1.475982e+01
-1.545814e+01
-1.614550e+01
-1.682611e+01
0.000000e+00
-2.287579e-01
-4.052480e-01
-6.027036e-01
-8.245980e-01
-1.075523e+00
-1.357486e+00
-1.671443e+00
-2.017475e+00
-2.395248e+00
-2.804185e+00
-3.243535e+00
-3.712414e+00
-4.209830e+00
-4.734700e+00
-5.285855e+00
-5.862041e+00
-6.461905e+00
-7.083980e+00
-7.726660e+00
-8.388159e+00
-9.066475e+00
-9.759338e+00