TITLE = "Solution"
VARIABLES = x, y, u, v, psiu, psiv, t, stress
ZONE T="structure" N=561 E=512 F=FEBLOCK ET=QUADRILATERAL VARLOCATION=([7,8]=cellcentered)
0.000000e+00
6.250000e+00
1.250000e+01
1.875000e+01
2.500000e+01
3.125000e+01
3.750000e+01
4.375000e+01
5.000000e+01
5.625000e+01
6.250000e+01
6.875000e+01
7.500000e+01
8.125000e+01
8.750000e+01
9.375000e+01
1.000000e+02
1.062500e+02
1.125000e+02
1.187500e+02
1.250000e+02
1.312500e+02
1.375000e+02
1.437500e+02
1.500000e+02
1.562500e+02
1.625000e+02
1.687500e+02
1.750000e+02
1.812500e+02
1.875000e+02
1.937500e+02
2.000000e+02
0.000000e+00
6.250000e+00
1.250000e+01
1.875000e+01
2.500000e+01
3.125000e+01
3.750000e+01
4.375000e+01
5.000000e+01
5.625000e+01
6.250000e+01
6.875000e+01
7.500000e+01
8.125000e+01
8.750000e+01
9.375000e+01
1.000000e+02
1.062500e+02
1.125000e+02
1.187500e+02
1.250000e+02
1.312500e+02
1.375000e+02
1.437500e+02
1.500000e+02
1.562500e+02
1.625000e+02
1.687500e+02
1.750000e+02
1.812500e+02
1.875000e+02
1.937500e+02
2.000000e+02
0.000000e+00
6.250000e+00
1.250000e+01
1.875000e+01
2.500000e+01
3.125000e+01
3.750000e+01
4.375000e+01
5.000000e+01
5.625000e+01
6.250000e+01
6.875000e+01
7.500000e+01
8.125000e+01
8.750000e+01
9.375000e+01
1.000000e+02
1.062500e+02
1.125000e+02
1.187500e+02
1.250000e+02
1.312500e+02
1.375000e+02
1.437500e+02
1.500000e+02
1.562500e+02
1.625000e+02
1.687500e+02
1.750000e+02
1.812500e+02
1.875000e+02
1.937500e+02
2.000000e+02
0.000000e+00
6.250000e+00
1.250000e+01
1.875000e+01
2.500000e+01
3.125000e+01
3.750000e+01
4.375000e+01
5.000000e+01
5.625000e+01
6.250000e+01
6.875000e+01
7.500000e+01
8.125000e+01
8.750000e+01
9.375000e+01
1.000000e+02
1.062500e+02
1.125000e+02
1.187500e+02
1.250000e+02
1.312500e+02
1.375000e+02
1.437500e+02
1.500000e+02
1.562500e+02
1.625000e+02
1.687500e+02
1.750000e+02
1.812500e+02
1.875000e+02
1.937500e+02
2.000000e+02
0.000000e+00
6.250000e+00
1.250000e+01
1.875000e+01
2.500000e+01
3.125000e+01
3.750000e+01
4.375000e+01
5.000000e+01
5.625000e+01
6.250000e+01
6.875000e+01
7.500000e+01
8.125000e+01
8.750000e+01
9.375000e+01
1.000000e+02
1.062500e+02
1.125000e+02
1.187500e+02
1.250000e+02
1.312500e+02
1.375000e+02
1.437500e+02
1.500000e+02
1.562500e+02
1.625000e+02
1.687500e+02
1.750000e+02
1.812500e+02
1.875000e+02
1.937500e+02
2.000000e+02
0.000000e+00
6.250000e+00
1.250000e+01
1.875000e+01
2.500000e+01
3.125000e+01
3.750000e+01
4.375000e+01
5.000000e+01
5.625000e+01
6.250000e+01
6.875000e+01
7.500000e+01
8.125000e+01
8.750000e+01
9.375000e+01
1.000000e+02
1.062500e+02
1.125000e+02
1.187500e+02
1.250000e+02
1.312500e+02
1.375000e+02
1.437500e+02
1.500000e+02
1.562500e+02
1.625000e+02
1.687500e+02
1.750000e+02
1.812500e+02
1.875000e+02
1.937500e+02
2.000000e+02
0.000000e+00
6.250000e+00
1.250000e+01
1.875000e+01
2.500000e+01
3.125000e+01
3.750000e+01
4.375000e+01
5.000000e+01
5.625000e+01
6.250000e+01
6.875000e+01
7.500000e+01
8.125000e+01
8.750000e+01
9.375000e+01
1.000000e+02
1.062500e+02
1.125000e+02
1.187500e+02
1.250000e+02
1.312500e+02
1.375000e+02
1.437500e+02
1.500000e+02
1.562500e+02
1.625000e+02
1.687500e+02
1.750000e+02
1.812500e+02
1.875000e+02
1.937500e+02
2.000000e+02
0.000000e+00
6.250000e+00
1.250000e+01
1.875000e+01
2.500000e+01
3.125000e+01
3.750000e+01
4.375000e+01
5.000000e+01
5.625000e+01
6.250000e+01
6.875000e+01
7.500000e+01
8.125000e+01
8.750000e+01
9.375000e+01
1.000000e+02
1.062500e+02
1.125000e+02
1.187500e+02
1.250000e+02
1.312500e+02
1.375000e+02
1.437500e+02
1.500000e+02
1.562500e+02
1.625000e+02
1.687500e+02
1.750000e+02
1.812500e+02
1.875000e+02
1.937500e+02
2.000000e+02
0.000000e+00
6.250000e+00
1.250000e+01
1.875000e+01
2.500000e+01
3.125000e+01
3.750000e+01
4.375000e+01
5.000000e+01
5.625000e+01
6.250000e+01
6.875000e+01
7.500000e+01
8.125000e+01
8.750000e+01
9.375000e+01
1.000000e+02
1.062500e+02
1.125000e+02
1.187500e+02
1.250000e+02
1.312500e+02
1.375000e+02
1.437500e+02
1.500000e+02
1.562500e+02
1.625000e+02
1.687500e+02
1.750000e+02
1.812500e+02
1.875000e+02
1.937500e+02
2.000000e+02
0.000000e+00
6.250000e+00
1.250000e+01
1.875000e+01
2.500000e+01
3.125000e+01
3.750000e+01
4.375000e+01
5.000000e+01
5.625000e+01
6.250000e+01
6.875000e+01
7.500000e+01
8.125000e+01
8.750000e+01
9.375000e+01
1.000000e+02
1.062500e+02
1.125000e+02
1.187500e+02
1.250000e+02
1.312500e+02
1.375000e+02
1.437500e+02
1.500000e+02
1.562500e+02
1.625000e+02
1.687500e+02
1.750000e+02
1.812500e+02
1.875000e+02
1.937500e+02
2.000000e+02
0.000000e+00
6.250000e+00
1.250000e+01
1.875000e+01
2.500000e+01
3.125000e+01
3.750000e+01
4.375000e+01
5.000000e+01
5.625000e+01
6.250000e+01
6.875000e+01
7.500000e+01
8.125000e+01
8.750000e+01
9.375000e+01
1.000000e+02
1.062500e+02
1.125000e+02
1.187500e+02
1.250000e+02
1.312500e+02
1.375000e+02
1.437500e+02
1.500000e+02
1.562500e+02
1.625000e+02
1.687500e+02
1.750000e+02
1.812500e+02
1.875000e+02
1.937500e+02
2.000000e+02
0.000000e+00
6.250000e+00
1.250000e+01
1.875000e+01
2.500000e+01
3.125000e+01
3.750000e+01
4.375000e+01
5.000000e+01
5.625000e+01
6.250000e+01
6.875000e+01
7.500000e+01
8.125000e+01
8.750000e+01
9.375000e+01
1.000000e+02
1.062500e+02
1.125000e+02
1.187500e+02
1.250000e+02
1.312500e+02
1.375000e+02
1.437500e+02
1.500000e+02
1.562500e+02
1.625000e+02
1.687500e+02
1.750000e+02
1.812500e+02
1.875000e+02
1.937500e+02
2.000000e+02
0.000000e+00
6.250000e+00
1.250000e+01
1.875000e+01
2.500000e+01
3.125000e+01
3.750000e+01
4.375000e+01
5.000000e+01
5.625000e+01
6.250000e+01
6.875000e+01
7.500000e+01
8.125000e+01
8.750000e+01
9.375000e+01
1.000000e+02
1.062500e+02
1.125000e+02
1.187500e+02
1.250000e+02
1.312500e+02
1.375000e+02
1.437500e+02
1.500000e+02
1.562500e+02
1.625000e+02
1.687500e+02
1.750000e+02
1.812500e+02
1.875000e+02
1.937500e+02
2.000000e+02
0.000000e+00
6.250000e+00
1.250000e+01
1.875000e+01
2.500000e+01
3.125000e+01
3.750000e+01
4.375000e+01
5.000000e+01
5.625000e+01
6.250000e+01
6.875000e+01
7.500000e+01
8.125000e+01
8.750000e+01
9.375000e+01
1.000000e+02
1.062500e+02
1.125000e+02
1.187500e+02
1.250000e+02
1.312500e+02
1.375000e+02
1.437500e+02
1.500000e+02
1.562500e+02
1.625000e+02
1.687500e+02
1.750000e+02
1.812500e+02
1.875000e+02
1.937500e+02
2.000000e+02
0.000000e+00
6.250000e+00
1.250000e+01
1.875000e+01
2.500000e+01
3.125000e+01
3.750000e+01
4.375000e+01
5.000000e+01
5.625000e+01
6.250000e+01
6.875000e+01
7.500000e+01
8.125000e+01
8.750000e+01
9.375000e+01
1.000000e+02
1.062500e+02
1.125000e+02
1.187500e+02
1.250000e+02
1.312500e+02
1.375000e+02
1.437500e+02
1.500000e+02
1.562500e+02
1.625000e+02
1.687500e+02
1.750000e+02
1.812500e+02
1.875000e+02
1.937500e+02
2.000000e+02
0.000000e+00
6.250000e+00
1.250000e+01
1.875000e+01
2.500000e+01
3.125000e+01
3.750000e+01
4.375000e+01
5.000000e+01
5.625000e+01
6.250000e+01
6.875000e+01
7.500000e+01
8.125000e+01
8.750000e+01
9.375000e+01
1.000000e+02
1.062500e+02
1.125000e+02
1.187500e+02
1.250000e+02
1.312500e+02
1.375000e+02
1.437500e+02
1.500000e+02
1.562500e+02
1.625000e+02
1.687500e+02
1.750000e+02
1.812500e+02
1.875000e+02
1.937500e+02
2.000000e+02
0.000000e+00
6.250000e+00
1.250000e+01
1.875000e+01
2.500000e+01
3.125000e+01
3.750000e+01
4.375000e+01
5.000000e+01
5.625000e+01
6.250000e+01
6.875000e+01
7.500000e+01
8.125000e+01
8.750000e+01
9.375000e+01
1.000000e+02
1.062500e+02
1.125000e+02
1.187500e+02
1.250000e+02
1.312500e+02
1.375000e+02
1.437500e+02
1.500000e+02
1.562500e+02
1.625000e+02
1.687500e+02
1.750000e+02
1.812500e+02
1.875000e+02
1.937500e+02
2.000000e+02
0.000000e+00
0.000000e+00
0.000000e+00
0.000000e+00
0.000000e+00
0.000000e+00
0.000000e+00
0.000000e+00
0.000000e+00
0.000000e+00
0.000000e+00
0.000000e+00
0.000000e+00
0.000000e+00
0.000000e+00
0.000000e+00
0.000000e+00
0.000000e+00
0.000000e+00
0.000000e+00
0.000000e+00
0.000000e+00
0.000000e+00
0.000000e+00
0.000000e+00
0.000000e+00
0.000000e+00
0.000000e+00
0.000000e+00
0.000000e+00
0.000000e+00
0.000000e+00
0.000000e+00
6.250000e+00
6.250000e+00
6.250000e+00
6.250000e+00
6.250000e+00
6.250000e+00
6.250000e+00
6.250000e+00
6.250000e+00
6.250000e+00
6.250000e+00
6.250000e+00
6.250000e+00
6.250000e+00
6.250000e+00
6.250000e+00
6.250000e+00
6.250000e+00
6.250000e+00
6.250000e+00
6.250000e+00
6.250000e+00
6.250000e+00
6.250000e+00
6.250000e+00
6.250000e+00
6.250000e+00
6.250000e+00
6.250000e+00
6.250000e+00
6.250000e+00
6.250000e+00
6.250000e+00
1.250000e+01
1.250000e+01
1.250000e+01
1.250000e+01
1.250000e+01
1.250000e+01
1.250000e+01
1.250000e+01
1.250000e+01
1.250000e+01
1.250000e+01
1.250000e+01
1.250000e+01
1.250000e+01
1.250000e+01
1.250000e+01
1.250000e+01
1.250000e+01
1.250000e+01
1.250000e+01
1.250000e+01
1.250000e+01
1.250000e+01
1.250000e+01
1.250000e+01
1.250000e+01
1.250000e+01
1.250000e+01
1.250000e+01
1.250000e+01
1.250000e+01
1.250000e+01
1.250000e+01
1.875000e+01
1.875000e+01
1.875000e+01
1.875000e+01
1.875000e+01
1.875000e+01
1.875000e+01
1.875000e+01
1.875000e+01
1.875000e+01
1.875000e+01
1.875000e+01
1.875000e+01
1.875000e+01
1.875000e+01
1.875000e+01
1.875000e+01
1.875000e+01
1.875000e+01
1.875000e+01
1.875000e+01
1.875000e+01
1.875000e+01
1.875000e+01
1.875000e+01
1.875000e+01
1.875000e+01
1.875000e+01
1.875000e+01
1.875000e+01
1.875000e+01
1.875000e+01
1.875000e+01
2.500000e+01
2.500000e+01
2.500000e+01
2.500000e+01
2.500000e+01
2.500000e+01
2.500000e+01
2.500000e+01
2.500000e+01
2.500000e+01
2.500000e+01
2.500000e+01
2.500000e+01
2.500000e+01
2.500000e+01
2.500000e+01
2.500000e+01
2.500000e+01
2.500000e+01
2.500000e+01
2.500000e+01
2.500000e+01
2.500000e+01
2.500000e+01
2.500000e+01
2.500000e+01
2.500000e+01
2.500000e+01
2.500000e+01
2.500000e+01
2.500000e+01
2.500000e+01
2.500000e+01
3.125000e+01
3.125000e+01
3.125000e+01
3.125000e+01
3.125000e+01
3.125000e+01
3.125000e+01
3.125000e+01
3.125000e+01
3.125000e+01
3.125000e+01
3.125000e+01
3.125000e+01
3.125000e+01
3.125000e+01
3.125000e+01
3.125000e+01
3.125000e+01
3.125000e+01
3.125000e+01
3.125000e+01
3.125000e+01
3.125000e+01
3.125000e+01
3.125000e+01
3.125000e+01
3.125000e+01
3.125000e+01
3.125000e+01
3.125000e+01
3.125000e+01
3.125000e+01
3.125000e+01
3.750000e+01
3.750000e+01
3.750000e+01
3.750000e+01
3.750000e+01
3.750000e+01
3.750000e+01
3.750000e+01
3.750000e+01
3.750000e+01
3.750000e+01
3.750000e+01
3.750000e+01
3.750000e+01
3.750000e+01
3.750000e+01
3.750000e+01
3.750000e+01
3.750000e+01
3.750000e+01
3.750000e+01
3.750000e+01
3.750000e+01
3.750000e+01
3.750000e+01
3.750000e+01
3.750000e+01
3.750000e+01
3.750000e+01
3.750000e+01
3.750000e+01
3.750000e+01
3.750000e+01
4.375000e+01
4.375000e+01
4.375000e+01
4.375000e+01
4.375000e+01
4.375000e+01
4.375000e+01
4.375000e+01
4.375000e+01
4.375000e+01
4.375000e+01
4.375000e+01
4.375000e+01
4.375000e+01
4.375000e+01
4.375000e+01
4.375000e+01
4.375000e+01
4.375000e+01
4.375000e+01
4.375000e+01
4.375000e+01
4.375000e+01
4.375000e+01
4.375000e+01
4.375000e+01
4.375000e+01
4.375000e+01
4.375000e+01
4.375000e+01
4.375000e+01
4.375000e+01
4.375000e+01
5.000000e+01
5.000000e+01
5.000000e+01
5.000000e+01
5.000000e+01
5.000000e+01
5.000000e+01
5.000000e+01
5.000000e+01
5.000000e+01
5.000000e+01
5.000000e+01
5.000000e+01
5.000000e+01
5.000000e+01
5.000000e+01
5.000000e+01
5.000000e+01
5.000000e+01
5.000000e+01
5.000000e+01
5.000000e+01
5.000000e+01
5.000000e+01
5.000000e+01
5.000000e+01
5.000000e+01
5.000000e+01
5.000000e+01
5.000000e+01
5.000000e+01
5.000000e+01
5.000000e+01
5.625000e+01
5.625000e+01
5.625000e+01
5.625000e+01
5.625000e+01
5.625000e+01
5.625000e+01
5.625000e+01
5.625000e+01
5.625000e+01
5.625000e+01
5.625000e+01
5.625000e+01
5.625000e+01
5.625000e+01
5.625000e+01
5.625000e+01
5.625000e+01
5.625000e+01
5.625000e+01
5.625000e+01
5.625000e+01
5.625000e+01
5.625000e+01
5.625000e+01
5.625000e+01
5.625000e+01
5.625000e+01
5.625000e+01
5.625000e+01
5.625000e+01
5.625000e+01
5.625000e+01
6.250000e+01
6.250000e+01
6.250000e+01
6.250000e+01
6.250000e+01
6.250000e+01
6.250000e+01
6.250000e+01
6.250000e+01
6.250000e+01
6.250000e+01
6.250000e+01
6.250000e+01
6.250000e+01
6.250000e+01
6.250000e+01
6.250000e+01
6.250000e+01
6.250000e+01
6.250000e+01
6.250000e+01
6.250000e+01
6.250000e+01
6.250000e+01
6.250000e+01
6.250000e+01
6.250000e+01
6.250000e+01
6.250000e+01
6.250000e+01
6.250000e+01
6.250000e+01
6.250000e+01
6.875000e+01
6.875000e+01
6.875000e+01
6.875000e+01
6.875000e+01
6.875000e+01
6.875000e+01
6.875000e+01
6.875000e+01
6.875000e+01
6.875000e+01
6.875000e+01
6.875000e+01
6.875000e+01
6.875000e+01
6.875000e+01
6.875000e+01
6.875000e+01
6.875000e+01
6.875000e+01
6.875000e+01
6.875000e+01
6.875000e+01
6.875000e+01
6.875000e+01
6.875000e+01
6.875000e+01
6.875000e+01
6.875000e+01
6.875000e+01
6.875000e+01
6.875000e+01
6.875000e+01
7.500000e+01
7.500000e+01
7.500000e+01
7.500000e+01
7.500000e+01
7.500000e+01
7.500000e+01
7.500000e+01
7.500000e+01
7.500000e+01
7.500000e+01
7.500000e+01
7.500000e+01
7.500000e+01
7.500000e+01
7.500000e+01
7.500000e+01
7.500000e+01
7.500000e+01
7.500000e+01
7.500000e+01
7.500000e+01
7.500000e+01
7.500000e+01
7.500000e+01
7.500000e+01
7.500000e+01
7.500000e+01
7.500000e+01
7.500000e+01
7.500000e+01
7.500000e+01
7.500000e+01
8.125000e+01
8.125000e+01
8.125000e+01
8.125000e+01
8.125000e+01
8.125000e+01
8.125000e+01
8.125000e+01
8.125000e+01
8.125000e+01
8.125000e+01
8.125000e+01
8.125000e+01
8.125000e+01
8.125000e+01
8.125000e+01
8.125000e+01
8.125000e+01
8.125000e+01
8.125000e+01
8.125000e+01
8.125000e+01
8.125000e+01
8.125000e+01
8.125000e+01
8.125000e+01
8.125000e+01
8.125000e+01
8.125000e+01
8.125000e+01
8.125000e+01
8.125000e+01
8.125000e+01
8.750000e+01
8.750000e+01
8.750000e+01
8.750000e+01
8.750000e+01
8.750000e+01
8.750000e+01
8.750000e+01
8.750000e+01
8.750000e+01
8.750000e+01
8.750000e+01
8.750000e+01
8.750000e+01
8.750000e+01
8.750000e+01
8.750000e+01
8.750000e+01
8.750000e+01
8.750000e+01
8.750000e+01
8.750000e+01
8.750000e+01
8.750000e+01
8.750000e+01
8.750000e+01
8.750000e+01
8.750000e+01
8.750000e+01
8.750000e+01
8.750000e+01
8.750000e+01
8.750000e+01
9.375000e+01
9.375000e+01
9.375000e+01
9.375000e+01
9.375000e+01
9.375000e+01
9.375000e+01
9.375000e+01
9.375000e+01
9.375000e+01
9.375000e+01
9.375000e+01
9.375000e+01
9.375000e+01
9.375000e+01
9.375000e+01
9.375000e+01
9.375000e+01
9.375000e+01
9.375000e+01
9.375000e+01
9.375000e+01
9.375000e+01
9.375000e+01
9.375000e+01
9.375000e+01
9.375000e+01
9.375000e+01
9.375000e+01
9.375000e+01
9.375000e+01
9.375000e+01
9.375000e+01
1.000000e+02
1.000000e+02
1.000000e+02
1.000000e+02
1.000000e+02
1.000000e+02
1.000000e+02
1.000000e+02
1.000000e+02
1.000000e+02
1.000000e+02
1.000000e+02
1.000000e+02
1.000000e+02
1.000000e+02
1.000000e+02
1.000000e+02
1.000000e+02
1.000000e+02
1.000000e+02
1.000000e+02
1.000000e+02
1.000000e+02
1.000000e+02
1.000000e+02
1.000000e+02
1.000000e+02
1.000000e+02
1.000000e+02
1.000000e+02
1.000000e+02
1.000000e+02
1.000000e+02
0.000000e+00
-4.723443e-01
-7.827511e-01
-1.122776e+00
-1.424402e+00
-1.716300e+00
-2.028290e+00
-2.315554e+00
-2.615224e+00
-2.908817e+00
-3.205840e+00
-3.505051e+00
-3.804460e+00
-4.103985e+00
-4.404168e+00
-4.705062e+00
-5.007831e+00
-5.311252e+00
-5.613837e+00
-5.916378e+00
-6.218476e+00
-6.520364e+00
-6.822657e+00
-7.119985e+00
-7.413292e+00
-7.718217e+00
-8.017398e+00
-8.348533e+00
-8.667427e+00
-9.020683e+00
-9.509924e+00
-9.926369e+00
-1.013047e+01
0.000000e+00
-2.335504e-01
-4.702210e-01
-7.357589e-01
-1.001735e+00
-1.254459e+00
-1.524362e+00
-1.784635e+00
-2.047169e+00
-2.312145e+00
-2.572673e+00
-2.837759e+00
-3.098175e+00
-3.362076e+00
-3.623416e+00
-3.885705e+00
-4.148234e+00
-4.408734e+00
-4.671823e+00
-4.931685e+00
-5.194189e+00
-5.454346e+00
-5.715910e+00
-5.976167e+00
-6.237296e+00
-6.498438e+00
-6.757833e+00
-7.022084e+00
-7.276350e+00
-7.533182e+00
-7.787709e+00
-7.888880e+00
-7.994698e+00
0.000000e+00
-1.027845e-01
-2.376838e-01
-4.342222e-01
-6.529705e-01
-8.602445e-01
-1.086016e+00
-1.313642e+00
-1.540995e+00
-1.772653e+00
-1.996699e+00
-2.223738e+00
-2.445985e+00
-2.671200e+00
-2.894873e+00
-3.117520e+00
-3.339901e+00
-3.560111e+00
-3.783758e+00
-4.005779e+00
-4.230820e+00
-4.454061e+00
-4.678473e+00
-4.907791e+00
-5.137787e+00
-5.360812e+00
-5.573053e+00
-5.770413e+00
-5.949943e+00
-6.098906e+00
-6.186599e+00
-6.192233e+00
-6.285117e+00
0.000000e+00
-1.024730e-01
-1.858845e-01
-3.413657e-01
-4.643795e-01
-6.188857e-01
-7.959751e-01
-9.655892e-01
-1.159078e+00
-1.336688e+00
-1.521706e+00
-1.704334e+00
-1.886037e+00
-2.071948e+00
-2.255921e+00
-2.441486e+00
-2.626287e+00
-2.812961e+00
-3.002748e+00
-3.194123e+00
-3.388242e+00
-3.581803e+00
-3.776404e+00
-3.971696e+00
-4.157718e+00
-4.331681e+00
-4.481006e+00
-4.613283e+00
-4.714125e+00
-4.777619e+00
-4.792758e+00
-4.810125e+00
-4.890569e+00
0.000000e+00
-9.306366e-02
-1.846589e-01
-2.756528e-01
-3.892305e-01
-5.049421e-01
-6.371682e-01
-7.715775e-01
-9.166298e-01
-1.057613e+00
-1.203847e+00
-1.349209e+00
-1.492552e+00
-1.642231e+00
-1.785004e+00
-1.935402e+00
-2.080794e+00
-2.230211e+00
-2.379925e+00
-2.528378e+00
-2.679191e+00
-2.825299e+00
-2.970110e+00
-3.107502e+00
-3.235947e+00
-3.350011e+00
-3.446959e+00
-3.520942e+00
-3.569493e+00
-3.593960e+00
-3.597393e+00
-3.627145e+00
-3.698510e+00
0.000000e+00
-7.446154e-02
-1.459600e-01
-2.209900e-01
-3.024758e-01
-3.920629e-01
-4.868616e-01
-5.881356e-01
-6.918970e-01
-7.997683e-01
-9.072149e-01
-1.016031e+00
-1.124793e+00
-1.232792e+00
-1.342255e+00
-1.450203e+00
-1.559570e+00
-1.667565e+00
-1.775389e+00
-1.881998e+00
-1.985971e+00
-2.087015e+00
-2.181894e+00
-2.269579e+00
-2.347203e+00
-2.412874e+00
-2.464224e+00
-2.499079e+00
-2.521696e+00
-2.522120e+00
-2.517366e+00
-2.543786e+00
-2.609615e+00
0.000000e+00
-5.129789e-02
-1.020439e-01
-1.539143e-01
-2.094002e-01
-2.687792e-01
-3.322100e-01
-3.986339e-01
-4.678700e-01
-5.385636e-01
-6.102612e-01
-6.820335e-01
-7.535884e-01
-8.249426e-01
-8.957595e-01
-9.664149e-01
-1.036224e+00
-1.105187e+00
-1.172589e+00
-1.237869e+00
-1.300179e+00
-1.358106e+00
-1.410292e+00
-1.454850e+00
-1.490830e+00
-1.515972e+00
-1.529998e+00
-1.535550e+00
-1.519175e+00
-1.489169e+00
-1.477857e+00
-1.501108e+00
-1.565343e+00
0.000000e+00
-2.704329e-02
-5.393382e-02
-8.140234e-02
-1.101606e-01
-1.406575e-01
-1.727700e-01
-2.063539e-01
-2.409897e-01
-2.763494e-01
-3.118777e-01
-3.472155e-01
-3.820718e-01
-4.162794e-01
-4.498243e-01
-4.825205e-01
-5.141794e-01
-5.443549e-01
-5.727098e-01
-5.987186e-01
-6.217065e-01
-6.408590e-01
-6.549086e-01
-6.629008e-01
-6.632217e-01
-6.566655e-01
-6.408518e-01
-6.023002e-01
-5.525419e-01
-5.009542e-01
-4.738932e-01
-4.969963e-01
-5.639752e-01
0.000000e+00
-1.999742e-03
-4.047714e-03
-6.057582e-03
-7.915040e-03
-9.493259e-03
-1.073005e-02
-1.163489e-02
-1.226260e-02
-1.259157e-02
-1.251219e-02
-1.186465e-02
-1.049851e-02
-8.251375e-03
-4.886949e-03
-3.091707e-04
5.731666e-03
1.367988e-02
2.359345e-02
3.535232e-02
4.959893e-02
6.656244e-02
8.584873e-02
1.103004e-01
1.407868e-01
1.821960e-01
2.427290e-01
3.151476e-01
3.886078e-01
4.395823e-01
4.553009e-01
4.228755e-01
3.427692e-01
0.000000e+00
2.319527e-02
4.616170e-02
6.977572e-02
9.500027e-02
1.225467e-01
1.524552e-01
1.844614e-01
2.180081e-01
2.526550e-01
2.880428e-01
3.240476e-01
3.606427e-01
3.983033e-01
4.375736e-01
4.788027e-01
5.225040e-01
5.683453e-01
6.162640e-01
6.656757e-01
7.154086e-01
7.666264e-01
8.221964e-01
8.816538e-01
9.491773e-01
1.032408e+00
1.122354e+00
1.214055e+00
1.288539e+00
1.332377e+00
1.329244e+00
1.283136e+00
1.220251e+00
0.000000e+00
4.785739e-02
9.517814e-02
1.437235e-01
1.962080e-01
2.533688e-01
3.153513e-01
3.810354e-01
4.496492e-01
5.198447e-01
5.907867e-01
6.615758e-01
7.323346e-01
8.038250e-01
8.772518e-01
9.544563e-01
1.035702e+00
1.119653e+00
1.205270e+00
1.291994e+00
1.381795e+00
1.471229e+00
1.563382e+00
1.666386e+00
1.775089e+00
1.885885e+00
1.995414e+00
2.084190e+00
2.148139e+00
2.174603e+00
2.166975e+00
2.137064e+00
2.092947e+00
0.000000e+00
7.147118e-02
1.402537e-01
2.129681e-01
2.925919e-01
3.811933e-01
4.763859e-01
5.776602e-01
6.820998e-01
7.899729e-01
8.981413e-01
1.006838e+00
1.114887e+00
1.223502e+00
1.333027e+00
1.443235e+00
1.557153e+00
1.674501e+00
1.794279e+00
1.917359e+00
2.045955e+00
2.182388e+00
2.324522e+00
2.466805e+00
2.605041e+00
2.734296e+00
2.846564e+00
2.935484e+00
2.990953e+00
3.018903e+00
3.022394e+00
3.004367e+00
2.976832e+00
0.000000e+00
9.025626e-02
1.792856e-01
2.693700e-01
3.836603e-01
5.028074e-01
6.353881e-01
7.729062e-01
9.168033e-01
1.059850e+00
1.206787e+00
1.353116e+00
1.500349e+00
1.651592e+00
1.802337e+00
1.957433e+00
2.112498e+00
2.272574e+00
2.438367e+00
2.604915e+00
2.774058e+00
2.946149e+00
3.116259e+00
3.280910e+00
3.433926e+00
3.575084e+00
3.696058e+00
3.786832e+00
3.853325e+00
3.892480e+00
3.905396e+00
3.898870e+00
3.884360e+00
0.000000e+00
9.866405e-02
1.795195e-01
3.323005e-01
4.600545e-01
6.232340e-01
8.053624e-01
9.747468e-01
1.168489e+00
1.345477e+00
1.528147e+00
1.708111e+00
1.890871e+00
2.080601e+00
2.274717e+00
2.476465e+00
2.680534e+00
2.886053e+00
3.096296e+00
3.309593e+00
3.519982e+00
3.724821e+00
3.921012e+00
4.105659e+00
4.280383e+00
4.437763e+00
4.572998e+00
4.679910e+00
4.756461e+00
4.804231e+00
4.826427e+00
4.829235e+00
4.824497e+00
0.000000e+00
1.004371e-01
2.311048e-01
4.196283e-01
6.369177e-01
8.474609e-01
1.078768e+00
1.310018e+00
1.539988e+00
1.774615e+00
1.998165e+00
2.223955e+00
2.445629e+00
2.672278e+00
2.900097e+00
3.131624e+00
3.365874e+00
3.597102e+00
3.828538e+00
4.061047e+00
4.295361e+00
4.524253e+00
4.744677e+00
4.965913e+00
5.177011e+00
5.363576e+00
5.513149e+00
5.627831e+00
5.710307e+00
5.763179e+00
5.790870e+00
5.799922e+00
5.801033e+00
0.000000e+00
2.337968e-01
4.714947e-01
7.363595e-01
1.001666e+00
1.253886e+00
1.523044e+00
1.783738e+00
2.045624e+00
2.310316e+00
2.570212e+00
2.834439e+00
3.093777e+00
3.355822e+00
3.615599e+00
3.875246e+00
4.135304e+00
4.392671e+00
4.650519e+00
4.904398e+00
5.159791e+00
5.413113e+00
5.666393e+00
5.924932e+00
6.169052e+00
6.369922e+00
6.527411e+00
6.644210e+00
6.724399e+00
6.773598e+00
6.798736e+00
6.807842e+00
6.810079e+00
0.000000e+00
4.735252e-01
7.901051e-01
1.135498e+00
1.440046e+00
1.729647e+00
2.037762e+00
2.322438e+00
2.619014e+00
2.910034e+00
3.205731e+00
3.505337e+00
3.802887e+00
4.100265e+00
4.393866e+00
4.684947e+00
4.972238e+00
5.261337e+00
5.551885e+00
5.839771e+00
6.127513e+00
6.415411e+00
6.707362e+00
7.000091e+00
7.265742e+00
7.476561e+00
7.634708e+00
7.743571e+00
7.808428e+00
7.837543e+00
7.842635e+00
7.838017e+00
7.835464e+00
0.000000e+00
-2.792548e-01
-5.897177e-01
-9.867694e-01
-1.419206e+00
-1.889015e+00
-2.399464e+00
-2.940546e+00
-3.517132e+00
-4.125128e+00
-4.767003e+00
-5.444907e+00
-6.159303e+00
-6.911834e+00
-7.701158e+00
-8.529028e+00
-9.395275e+00
-1.030179e+01
-1.124832e+01
-1.223448e+01
-1.326074e+01
-1.432669e+01
-1.543407e+01
-1.658119e+01
-1.776581e+01
-1.898952e+01
-2.025664e+01
-2.157780e+01
-2.295949e+01
-2.442223e+01
-2.598300e+01
-2.779100e+01
-3.032827e+01
0.000000e+00
-1.802246e-01
-5.092744e-01
-8.990111e-01
-1.338289e+00
-1.804576e+00
-2.314905e+00
-2.858132e+00
-3.432924e+00
-4.042014e+00
-4.682837e+00
-5.361063e+00
-6.075200e+00
-6.827953e+00
-7.617277e+00
-8.444857e+00
-9.311219e+00
-1.021741e+01
-1.116435e+01
-1.215028e+01
-1.317672e+01
-1.424233e+01
-1.534980e+01
-1.649775e+01
-1.768208e+01
-1.890534e+01
-2.017091e+01
-2.149043e+01
-2.287370e+01
-2.432731e+01
-2.590741e+01
-2.770263e+01
-2.995347e+01
0.000000e+00
-1.593358e-01
-4.501488e-01
-8.425375e-01
-1.271735e+00
-1.735676e+00
-2.244006e+00
-2.785012e+00
-3.361211e+00
-3.969050e+00
-4.611044e+00
-5.289367e+00
-6.003663e+00
-6.756517e+00
-7.546441e+00
-8.374116e+00
-9.241050e+00
-1.014687e+01
-1.109375e+01
-1.207953e+01
-1.310577e+01
-1.417111e+01
-1.527694e+01
-1.642430e+01
-1.760962e+01
-1.883571e+01
-2.010316e+01
-2.142779e+01
-2.281484e+01
-2.428892e+01
-2.591196e+01
-2.759658e+01
-2.934485e+01
0.000000e+00
-2.047713e-01
-4.501904e-01
-8.391743e-01
-1.237119e+00
-1.689968e+00
-2.196811e+00
-2.724680e+00
-3.307472e+00
-3.909403e+00
-4.554527e+00
-5.233175e+00
-5.945645e+00
-6.701400e+00
-7.488804e+00
-8.319640e+00
-9.185013e+00
-1.009126e+01
-1.103779e+01
-1.202223e+01
-1.304951e+01
-1.411344e+01
-1.521847e+01
-1.636551e+01
-1.755329e+01
-1.878559e+01
-2.005917e+01
-2.139099e+01
-2.278676e+01
-2.428049e+01
-2.589611e+01
-2.744584e+01
-2.884500e+01
0.000000e+00
-2.208478e-01
-4.890565e-01
-8.343442e-01
-1.234917e+00
-1.670448e+00
-2.167615e+00
-2.689788e+00
-3.267515e+00
-3.869423e+00
-4.513527e+00
-5.194087e+00
-5.904901e+00
-6.663460e+00
-7.448698e+00
-8.281919e+00
-9.146283e+00
-1.005270e+01
-1.099921e+01
-1.198257e+01
-1.301046e+01
-1.407408e+01
-1.518055e+01
-1.632832e+01
-1.751978e+01
-1.875542e+01
-2.003722e+01
-2.137254e+01
-2.277089e+01
-2.426055e+01
-2.579572e+01
-2.724488e+01
-2.851199e+01
0.000000e+00
-2.277562e-01
-5.055063e-01
-8.403211e-01
-1.228303e+00
-1.663617e+00
-2.145983e+00
-2.670651e+00
-3.237789e+00
-3.842655e+00
-4.484782e+00
-5.164485e+00
-5.879737e+00
-6.633835e+00
-7.424524e+00
-8.253878e+00
-9.121393e+00
-1.002755e+01
-1.097397e+01
-1.195983e+01
-1.298670e+01
-1.405375e+01
-1.516189e+01
-1.631243e+01
-1.750602e+01
-1.874357e+01
-2.002795e+01
-2.136263e+01
-2.275016e+01
-2.419953e+01
-2.564077e+01
-2.700889e+01
-2.821411e+01
0.000000e+00
-2.314467e-01
-5.117236e-01
-8.435218e-01
-1.226217e+00
-1.657505e+00
-2.135242e+00
-2.657153e+00
-3.221179e+00
-3.825009e+00
-4.467244e+00
-5.146887e+00
-5.863723e+00
-6.617837e+00
-7.409513e+00
-8.239227e+00
-9.107432e+00
-1.001489e+01
-1.096218e+01
-1.194990e+01
-1.297840e+01
-1.404795e+01
-1.515894e+01
-1.631161e+01
-1.750653e+01
-1.874433e+01
-2.002480e+01
-2.135617e+01
-2.271123e+01
-2.410936e+01
-2.548606e+01
-2.678649e+01
-2.792839e+01
0.000000e+00
-2.328464e-01
-5.140461e-01
-8.449568e-01
-1.225601e+00
-1.654739e+00
-2.130548e+00
-2.650969e+00
-3.213938e+00
-3.817513e+00
-4.460089e+00
-5.140572e+00
-5.858330e+00
-6.613273e+00
-7.405620e+00
-8.235970e+00
-9.105095e+00
-1.001370e+01
-1.096242e+01
-1.195182e+01
-1.298232e+01
-1.405418e+01
-1.516739e+01
-1.632199e+01
-1.751584e+01
-1.875353e+01
-2.002627e+01
-2.133854e+01
-2.265895e+01
-2.400350e+01
-2.533467e+01
-2.657831e+01
-2.766453e+01
0.000000e+00
-2.331361e-01
-5.146403e-01
-8.455788e-01
-1.226078e+00
-1.655151e+00
-2.131054e+00
-2.651740e+00
-3.215180e+00
-3.819527e+00
-4.463185e+00
-5.144861e+00
-5.863754e+00
-6.619645e+00
-7.412728e+00
-8.243679e+00
-9.113745e+00
-1.002359e+01
-1.097352e+01
-1.196432e+01
-1.299654e+01
-1.406966e+01
-1.518417e+01
-1.633953e+01
-1.753236e+01
-1.876459e+01
-2.002309e+01
-2.130608e+01
-2.260260e+01
-2.389596e+01
-2.516725e+01
-2.633565e+01
-2.732686e+01
0.000000e+00
-2.326827e-01
-5.141023e-01
-8.457126e-01
-1.227666e+00
-1.658685e+00
-2.136683e+00
-2.659366e+00
-3.224644e+00
-3.830753e+00
-4.476158e+00
-5.159392e+00
-5.879501e+00
-6.636499e+00
-7.430529e+00
-8.261838e+00
-9.133121e+00
-1.004426e+01
-1.099521e+01
-1.198608e+01
-1.301999e+01
-1.409286e+01
-1.520572e+01
-1.636296e+01
-1.754857e+01
-1.876871e+01
-2.001012e+01
-2.127007e+01
-2.253735e+01
-2.379399e+01
-2.499902e+01
-2.610023e+01
-2.705920e+01
0.000000e+00
-2.312110e-01
-5.119025e-01
-8.450177e-01
-1.230387e+00
-1.665620e+00
-2.147867e+00
-2.674248e+00
-3.242645e+00
-3.851263e+00
-4.498850e+00
-5.183635e+00
-5.904631e+00
-6.663029e+00
-7.458015e+00
-8.290485e+00
-9.163292e+00
-1.007555e+01
-1.102775e+01
-1.201741e+01
-1.305072e+01
-1.412151e+01
-1.523207e+01
-1.638288e+01
-1.755984e+01
-1.876449e+01
-1.999479e+01
-2.123235e+01
-2.247403e+01
-2.368967e+01
-2.484920e+01
-2.591839e+01
-2.686692e+01
0.000000e+00
-2.275750e-01
-5.059789e-01
-8.425913e-01
-1.234528e+00
-1.676629e+00
-2.165782e+00
-2.697119e+00
-3.270234e+00
-3.881791e+00
-4.531369e+00
-5.217392e+00
-5.938456e+00
-6.697985e+00
-7.494075e+00
-8.329286e+00
-9.203615e+00
-1.011704e+01
-1.106909e+01
-1.205799e+01
-1.308628e+01
-1.415342e+01
-1.525816e+01
-1.639860e+01
-1.756637e+01
-1.876151e+01
-1.997989e+01
-2.120466e+01
-2.241945e+01
-2.360592e+01
-2.473600e+01
-2.578920e+01
-2.674170e+01
0.000000e+00
-2.205803e-01
-4.899449e-01
-8.378150e-01
-1.243100e+00
-1.690525e+00
-2.194758e+00
-2.727288e+00
-3.310138e+00
-3.921757e+00
-4.574121e+00
-5.260564e+00
-5.980928e+00
-6.743412e+00
-7.539767e+00
-8.378796e+00
-9.254026e+00
-1.016650e+01
-1.111707e+01
-1.210264e+01
-1.312569e+01
-1.418731e+01
-1.528393e+01
-1.641472e+01
-1.757531e+01
-1.876688e+01
-1.997955e+01
-2.118963e+01
-2.238459e+01
-2.354576e+01
-2.465724e+01
-2.570346e+01
-2.667069e+01
0.000000e+00
-2.034996e-01
-4.510468e-01
-8.434699e-01
-1.250364e+00
-1.716571e+00
-2.234309e+00
-2.770351e+00
-3.360775e+00
-3.971900e+00
-4.624826e+00
-5.310748e+00
-6.033719e+00
-6.798173e+00
-7.598117e+00
-8.438413e+00
-9.313879e+00
-1.022456e+01
-1.117158e+01
-1.215314e+01
-1.317107e+01
-1.422540e+01
-1.531319e+01
-1.643662e+01
-1.759871e+01
-1.879041e+01
-1.999580e+01
-2.119089e+01
-2.236687e+01
-2.350967e+01
-2.460763e+01
-2.565246e+01
-2.663995e+01
0.000000e+00
-1.565049e-01
-4.489237e-01
-8.464592e-01
-1.287907e+00
-1.765765e+00
-2.286058e+00
-2.835486e+00
-3.419818e+00
-4.035163e+00
-4.683903e+00
-5.370802e+00
-6.095658e+00
-6.861087e+00
-7.664215e+00
-8.504316e+00
-9.379661e+00
-1.028843e+01
-1.123302e+01
-1.221192e+01
-1.322555e+01
-1.427323e+01
-1.535391e+01
-1.647834e+01
-1.764333e+01
-1.883220e+01
-2.002321e+01
-2.120491e+01
-2.236547e+01
-2.349403e+01
-2.458203e+01
-2.562690e+01
-2.663474e+01
0.000000e+00
-1.768547e-01
-5.070135e-01
-9.032887e-01
-1.355377e+00
-1.836045e+00
-2.358022e+00
-2.910471e+00
-3.492994e+00
-4.108978e+00
-4.756223e+00
-5.443101e+00
-6.168215e+00
-6.934097e+00
-7.737601e+00
-8.577878e+00
-9.452247e+00
-1.035937e+01
-1.130274e+01
-1.228020e+01
-1.329213e+01
-1.433659e+01
-1.541786e+01
-1.654366e+01
-1.770522e+01
-1.888156e+01
-2.005930e+01
-2.122793e+01
-2.237606e+01
-2.349351e+01
-2.457373e+01
-2.561770e+01
-2.663941e+01
0.000000e+00
-2.767128e-01
-5.885983e-01
-9.918911e-01
-1.436452e+00
-1.919882e+00
-2.442172e+00
-2.992669e+00
-3.576917e+00
-4.191785e+00
-4.840394e+00
-5.526928e+00
-6.251989e+00
-7.017440e+00
-7.820265e+00
-8.660063e+00
-9.533457e+00
-1.044067e+01
-1.138312e+01
-1.236005e+01
-1.337157e+01
-1.441617e+01