TITLE = "Solution"
VARIABLES = x, y, u, v, psiu, psiv, t, stress
ZONE T="structure" N=561 E=512 F=FEBLOCK ET=QUADRILATERAL VARLOCATION=([7,8]=cellcentered)
0.000000e+00
6.250000e+00
1.250000e+01
1.875000e+01
2.500000e+01
3.125000e+01
3.750000e+01
4.375000e+01
5.000000e+01
5.625000e+01
6.250000e+01
6.875000e+01
7.500000e+01
8.125000e+01
8.750000e+01
9.375000e+01
1.000000e+02
1.062500e+02
1.125000e+02
1.187500e+02
1.250000e+02
1.312500e+02
1.375000e+02
1.437500e+02
1.500000e+02
1.562500e+02
1.625000e+02
1.687500e+02
1.750000e+02
1.812500e+02
1.875000e+02
1.937500e+02
2.000000e+02
0.000000e+00
6.250000e+00
1.250000e+01
1.875000e+01
2.500000e+01
3.125000e+01
3.750000e+01
4.375000e+01
5.000000e+01
5.625000e+01
6.250000e+01
6.875000e+01
7.500000e+01
8.125000e+01
8.750000e+01
9.375000e+01
1.000000e+02
1.062500e+02
1.125000e+02
1.187500e+02
1.250000e+02
1.312500e+02
1.375000e+02
1.437500e+02
1.500000e+02
1.562500e+02
1.625000e+02
1.687500e+02
1.750000e+02
1.812500e+02
1.875000e+02
1.937500e+02
2.000000e+02
0.000000e+00
6.250000e+00
1.250000e+01
1.875000e+01
2.500000e+01
3.125000e+01
3.750000e+01
4.375000e+01
5.000000e+01
5.625000e+01
6.250000e+01
6.875000e+01
7.500000e+01
8.125000e+01
8.750000e+01
9.375000e+01
1.000000e+02
1.062500e+02
1.125000e+02
1.187500e+02
1.250000e+02
1.312500e+02
1.375000e+02
1.437500e+02
1.500000e+02
1.562500e+02
1.625000e+02
1.687500e+02
1.750000e+02
1.812500e+02
1.875000e+02
1.937500e+02
2.000000e+02
0.000000e+00
6.250000e+00
1.250000e+01
1.875000e+01
2.500000e+01
3.125000e+01
3.750000e+01
4.375000e+01
5.000000e+01
5.625000e+01
6.250000e+01
6.875000e+01
7.500000e+01
8.125000e+01
8.750000e+01
9.375000e+01
1.000000e+02
1.062500e+02
1.125000e+02
1.187500e+02
1.250000e+02
1.312500e+02
1.375000e+02
1.437500e+02
1.500000e+02
1.562500e+02
1.625000e+02
1.687500e+02
1.750000e+02
1.812500e+02
1.875000e+02
1.937500e+02
2.000000e+02
0.000000e+00
6.250000e+00
1.250000e+01
1.875000e+01
2.500000e+01
3.125000e+01
3.750000e+01
4.375000e+01
5.000000e+01
5.625000e+01
6.250000e+01
6.875000e+01
7.500000e+01
8.125000e+01
8.750000e+01
9.375000e+01
1.000000e+02
1.062500e+02
1.125000e+02
1.187500e+02
1.250000e+02
1.312500e+02
1.375000e+02
1.437500e+02
1.500000e+02
1.562500e+02
1.625000e+02
1.687500e+02
1.750000e+02
1.812500e+02
1.875000e+02
1.937500e+02
2.000000e+02
0.000000e+00
6.250000e+00
1.250000e+01
1.875000e+01
2.500000e+01
3.125000e+01
3.750000e+01
4.375000e+01
5.000000e+01
5.625000e+01
6.250000e+01
6.875000e+01
7.500000e+01
8.125000e+01
8.750000e+01
9.375000e+01
1.000000e+02
1.062500e+02
1.125000e+02
1.187500e+02
1.250000e+02
1.312500e+02
1.375000e+02
1.437500e+02
1.500000e+02
1.562500e+02
1.625000e+02
1.687500e+02
1.750000e+02
1.812500e+02
1.875000e+02
1.937500e+02
2.000000e+02
0.000000e+00
6.250000e+00
1.250000e+01
1.875000e+01
2.500000e+01
3.125000e+01
3.750000e+01
4.375000e+01
5.000000e+01
5.625000e+01
6.250000e+01
6.875000e+01
7.500000e+01
8.125000e+01
8.750000e+01
9.375000e+01
1.000000e+02
1.062500e+02
1.125000e+02
1.187500e+02
1.250000e+02
1.312500e+02
1.375000e+02
1.437500e+02
1.500000e+02
1.562500e+02
1.625000e+02
1.687500e+02
1.750000e+02
1.812500e+02
1.875000e+02
1.937500e+02
2.000000e+02
0.000000e+00
6.250000e+00
1.250000e+01
1.875000e+01
2.500000e+01
3.125000e+01
3.750000e+01
4.375000e+01
5.000000e+01
5.625000e+01
6.250000e+01
6.875000e+01
7.500000e+01
8.125000e+01
8.750000e+01
9.375000e+01
1.000000e+02
1.062500e+02
1.125000e+02
1.187500e+02
1.250000e+02
1.312500e+02
1.375000e+02
1.437500e+02
1.500000e+02
1.562500e+02
1.625000e+02
1.687500e+02
1.750000e+02
1.812500e+02
1.875000e+02
1.937500e+02
2.000000e+02
0.000000e+00
6.250000e+00
1.250000e+01
1.875000e+01
2.500000e+01
3.125000e+01
3.750000e+01
4.375000e+01
5.000000e+01
5.625000e+01
6.250000e+01
6.875000e+01
7.500000e+01
8.125000e+01
8.750000e+01
9.375000e+01
1.000000e+02
1.062500e+02
1.125000e+02
1.187500e+02
1.250000e+02
1.312500e+02
1.375000e+02
1.437500e+02
1.500000e+02
1.562500e+02
1.625000e+02
1.687500e+02
1.750000e+02
1.812500e+02
1.875000e+02
1.937500e+02
2.000000e+02
0.000000e+00
6.250000e+00
1.250000e+01
1.875000e+01
2.500000e+01
3.125000e+01
3.750000e+01
4.375000e+01
5.000000e+01
5.625000e+01
6.250000e+01
6.875000e+01
7.500000e+01
8.125000e+01
8.750000e+01
9.375000e+01
1.000000e+02
1.062500e+02
1.125000e+02
1.187500e+02
1.250000e+02
1.312500e+02
1.375000e+02
1.437500e+02
1.500000e+02
1.562500e+02
1.625000e+02
1.687500e+02
1.750000e+02
1.812500e+02
1.875000e+02
1.937500e+02
2.000000e+02
0.000000e+00
6.250000e+00
1.250000e+01
1.875000e+01
2.500000e+01
3.125000e+01
3.750000e+01
4.375000e+01
5.000000e+01
5.625000e+01
6.250000e+01
6.875000e+01
7.500000e+01
8.125000e+01
8.750000e+01
9.375000e+01
1.000000e+02
1.062500e+02
1.125000e+02
1.187500e+02
1.250000e+02
1.312500e+02
1.375000e+02
1.437500e+02
1.500000e+02
1.562500e+02
1.625000e+02
1.687500e+02
1.750000e+02
1.812500e+02
1.875000e+02
1.937500e+02
2.000000e+02
0.000000e+00
6.250000e+00
1.250000e+01
1.875000e+01
2.500000e+01
3.125000e+01
3.750000e+01
4.375000e+01
5.000000e+01
5.625000e+01
6.250000e+01
6.875000e+01
7.500000e+01
8.125000e+01
8.750000e+01
9.375000e+01
1.000000e+02
1.062500e+02
1.125000e+02
1.187500e+02
1.250000e+02
1.312500e+02
1.375000e+02
1.437500e+02
1.500000e+02
1.562500e+02
1.625000e+02
1.687500e+02
1.750000e+02
1.812500e+02
1.875000e+02
1.937500e+02
2.000000e+02
0.000000e+00
6.250000e+00
1.250000e+01
1.875000e+01
2.500000e+01
3.125000e+01
3.750000e+01
4.375000e+01
5.000000e+01
5.625000e+01
6.250000e+01
6.875000e+01
7.500000e+01
8.125000e+01
8.750000e+01
9.375000e+01
1.000000e+02
1.062500e+02
1.125000e+02
1.187500e+02
1.250000e+02
1.312500e+02
1.375000e+02
1.437500e+02
1.500000e+02
1.562500e+02
1.625000e+02
1.687500e+02
1.750000e+02
1.812500e+02
1.875000e+02
1.937500e+02
2.000000e+02
0.000000e+00
6.250000e+00
1.250000e+01
1.875000e+01
2.500000e+01
3.125000e+01
3.750000e+01
4.375000e+01
5.000000e+01
5.625000e+01
6.250000e+01
6.875000e+01
7.500000e+01
8.125000e+01
8.750000e+01
9.375000e+01
1.000000e+02
1.062500e+02
1.125000e+02
1.187500e+02
1.250000e+02
1.312500e+02
1.375000e+02
1.437500e+02
1.500000e+02
1.562500e+02
1.625000e+02
1.687500e+02
1.750000e+02
1.812500e+02
1.875000e+02
1.937500e+02
2.000000e+02
0.000000e+00
6.250000e+00
1.250000e+01
1.875000e+01
2.500000e+01
3.125000e+01
3.750000e+01
4.375000e+01
5.000000e+01
5.625000e+01
6.250000e+01
6.875000e+01
7.500000e+01
8.125000e+01
8.750000e+01
9.375000e+01
1.000000e+02
1.062500e+02
1.125000e+02
1.187500e+02
1.250000e+02
1.312500e+02
1.375000e+02
1.437500e+02
1.500000e+02
1.562500e+02
1.625000e+02
1.687500e+02
1.750000e+02
1.812500e+02
1.875000e+02
1.937500e+02
2.000000e+02
0.000000e+00
6.250000e+00
1.250000e+01
1.875000e+01
2.500000e+01
3.125000e+01
3.750000e+01
4.375000e+01
5.000000e+01
5.625000e+01
6.250000e+01
6.875000e+01
7.500000e+01
8.125000e+01
8.750000e+01
9.375000e+01
1.000000e+02
1.062500e+02
1.125000e+02
1.187500e+02
1.250000e+02
1.312500e+02
1.375000e+02
1.437500e+02
1.500000e+02
1.562500e+02
1.625000e+02
1.687500e+02
1.750000e+02
1.812500e+02
1.875000e+02
1.937500e+02
2.000000e+02
0.000000e+00
6.250000e+00
1.250000e+01
1.875000e+01
2.500000e+01
3.125000e+01
3.750000e+01
4.375000e+01
5.000000e+01
5.625000e+01
6.250000e+01
6.875000e+01
7.500000e+01
8.125000e+01
8.750000e+01
9.375000e+01
1.000000e+02
1.062500e+02
1.125000e+02
1.187500e+02
1.250000e+02
1.312500e+02
1.375000e+02
1.437500e+02
1.500000e+02
1.562500e+02
1.625000e+02
1.687500e+02
1.750000e+02
1.812500e+02
1.875000e+02
1.937500e+02
2.000000e+02
0.000000e+00
0.000000e+00
0.000000e+00
0.000000e+00
0.000000e+00
0.000000e+00
0.000000e+00
0.000000e+00
0.000000e+00
0.000000e+00
0.000000e+00
0.000000e+00
0.000000e+00
0.000000e+00
0.000000e+00
0.000000e+00
0.000000e+00
0.000000e+00
0.000000e+00
0.000000e+00
0.000000e+00
0.000000e+00
0.000000e+00
0.000000e+00
0.000000e+00
0.000000e+00
0.000000e+00
0.000000e+00
0.000000e+00
0.000000e+00
0.000000e+00
0.000000e+00
0.000000e+00
6.250000e+00
6.250000e+00
6.250000e+00
6.250000e+00
6.250000e+00
6.250000e+00
6.250000e+00
6.250000e+00
6.250000e+00
6.250000e+00
6.250000e+00
6.250000e+00
6.250000e+00
6.250000e+00
6.250000e+00
6.250000e+00
6.250000e+00
6.250000e+00
6.250000e+00
6.250000e+00
6.250000e+00
6.250000e+00
6.250000e+00
6.250000e+00
6.250000e+00
6.250000e+00
6.250000e+00
6.250000e+00
6.250000e+00
6.250000e+00
6.250000e+00
6.250000e+00
6.250000e+00
1.250000e+01
1.250000e+01
1.250000e+01
1.250000e+01
1.250000e+01
1.250000e+01
1.250000e+01
1.250000e+01
1.250000e+01
1.250000e+01
1.250000e+01
1.250000e+01
1.250000e+01
1.250000e+01
1.250000e+01
1.250000e+01
1.250000e+01
1.250000e+01
1.250000e+01
1.250000e+01
1.250000e+01
1.250000e+01
1.250000e+01
1.250000e+01
1.250000e+01
1.250000e+01
1.250000e+01
1.250000e+01
1.250000e+01
1.250000e+01
1.250000e+01
1.250000e+01
1.250000e+01
1.875000e+01
1.875000e+01
1.875000e+01
1.875000e+01
1.875000e+01
1.875000e+01
1.875000e+01
1.875000e+01
1.875000e+01
1.875000e+01
1.875000e+01
1.875000e+01
1.875000e+01
1.875000e+01
1.875000e+01
1.875000e+01
1.875000e+01
1.875000e+01
1.875000e+01
1.875000e+01
1.875000e+01
1.875000e+01
1.875000e+01
1.875000e+01
1.875000e+01
1.875000e+01
1.875000e+01
1.875000e+01
1.875000e+01
1.875000e+01
1.875000e+01
1.875000e+01
1.875000e+01
2.500000e+01
2.500000e+01
2.500000e+01
2.500000e+01
2.500000e+01
2.500000e+01
2.500000e+01
2.500000e+01
2.500000e+01
2.500000e+01
2.500000e+01
2.500000e+01
2.500000e+01
2.500000e+01
2.500000e+01
2.500000e+01
2.500000e+01
2.500000e+01
2.500000e+01
2.500000e+01
2.500000e+01
2.500000e+01
2.500000e+01
2.500000e+01
2.500000e+01
2.500000e+01
2.500000e+01
2.500000e+01
2.500000e+01
2.500000e+01
2.500000e+01
2.500000e+01
2.500000e+01
3.125000e+01
3.125000e+01
3.125000e+01
3.125000e+01
3.125000e+01
3.125000e+01
3.125000e+01
3.125000e+01
3.125000e+01
3.125000e+01
3.125000e+01
3.125000e+01
3.125000e+01
3.125000e+01
3.125000e+01
3.125000e+01
3.125000e+01
3.125000e+01
3.125000e+01
3.125000e+01
3.125000e+01
3.125000e+01
3.125000e+01
3.125000e+01
3.125000e+01
3.125000e+01
3.125000e+01
3.125000e+01
3.125000e+01
3.125000e+01
3.125000e+01
3.125000e+01
3.125000e+01
3.750000e+01
3.750000e+01
3.750000e+01
3.750000e+01
3.750000e+01
3.750000e+01
3.750000e+01
3.750000e+01
3.750000e+01
3.750000e+01
3.750000e+01
3.750000e+01
3.750000e+01
3.750000e+01
3.750000e+01
3.750000e+01
3.750000e+01
3.750000e+01
3.750000e+01
3.750000e+01
3.750000e+01
3.750000e+01
3.750000e+01
3.750000e+01
3.750000e+01
3.750000e+01
3.750000e+01
3.750000e+01
3.750000e+01
3.750000e+01
3.750000e+01
3.750000e+01
3.750000e+01
4.375000e+01
4.375000e+01
4.375000e+01
4.375000e+01
4.375000e+01
4.375000e+01
4.375000e+01
4.375000e+01
4.375000e+01
4.375000e+01
4.375000e+01
4.375000e+01
4.375000e+01
4.375000e+01
4.375000e+01
4.375000e+01
4.375000e+01
4.375000e+01
4.375000e+01
4.375000e+01
4.375000e+01
4.375000e+01
4.375000e+01
4.375000e+01
4.375000e+01
4.375000e+01
4.375000e+01
4.375000e+01
4.375000e+01
4.375000e+01
4.375000e+01
4.375000e+01
4.375000e+01
5.000000e+01
5.000000e+01
5.000000e+01
5.000000e+01
5.000000e+01
5.000000e+01
5.000000e+01
5.000000e+01
5.000000e+01
5.000000e+01
5.000000e+01
5.000000e+01
5.000000e+01
5.000000e+01
5.000000e+01
5.000000e+01
5.000000e+01
5.000000e+01
5.000000e+01
5.000000e+01
5.000000e+01
5.000000e+01
5.000000e+01
5.000000e+01
5.000000e+01
5.000000e+01
5.000000e+01
5.000000e+01
5.000000e+01
5.000000e+01
5.000000e+01
5.000000e+01
5.000000e+01
5.625000e+01
5.625000e+01
5.625000e+01
5.625000e+01
5.625000e+01
5.625000e+01
5.625000e+01
5.625000e+01
5.625000e+01
5.625000e+01
5.625000e+01
5.625000e+01
5.625000e+01
5.625000e+01
5.625000e+01
5.625000e+01
5.625000e+01
5.625000e+01
5.625000e+01
5.625000e+01
5.625000e+01
5.625000e+01
5.625000e+01
5.625000e+01
5.625000e+01
5.625000e+01
5.625000e+01
5.625000e+01
5.625000e+01
5.625000e+01
5.625000e+01
5.625000e+01
5.625000e+01
6.250000e+01
6.250000e+01
6.250000e+01
6.250000e+01
6.250000e+01
6.250000e+01
6.250000e+01
6.250000e+01
6.250000e+01
6.250000e+01
6.250000e+01
6.250000e+01
6.250000e+01
6.250000e+01
6.250000e+01
6.250000e+01
6.250000e+01
6.250000e+01
6.250000e+01
6.250000e+01
6.250000e+01
6.250000e+01
6.250000e+01
6.250000e+01
6.250000e+01
6.250000e+01
6.250000e+01
6.250000e+01
6.250000e+01
6.250000e+01
6.250000e+01
6.250000e+01
6.250000e+01
6.875000e+01
6.875000e+01
6.875000e+01
6.875000e+01
6.875000e+01
6.875000e+01
6.875000e+01
6.875000e+01
6.875000e+01
6.875000e+01
6.875000e+01
6.875000e+01
6.875000e+01
6.875000e+01
6.875000e+01
6.875000e+01
6.875000e+01
6.875000e+01
6.875000e+01
6.875000e+01
6.875000e+01
6.875000e+01
6.875000e+01
6.875000e+01
6.875000e+01
6.875000e+01
6.875000e+01
6.875000e+01
6.875000e+01
6.875000e+01
6.875000e+01
6.875000e+01
6.875000e+01
7.500000e+01
7.500000e+01
7.500000e+01
7.500000e+01
7.500000e+01
7.500000e+01
7.500000e+01
7.500000e+01
7.500000e+01
7.500000e+01
7.500000e+01
7.500000e+01
7.500000e+01
7.500000e+01
7.500000e+01
7.500000e+01
7.500000e+01
7.500000e+01
7.500000e+01
7.500000e+01
7.500000e+01
7.500000e+01
7.500000e+01
7.500000e+01
7.500000e+01
7.500000e+01
7.500000e+01
7.500000e+01
7.500000e+01
7.500000e+01
7.500000e+01
7.500000e+01
7.500000e+01
8.125000e+01
8.125000e+01
8.125000e+01
8.125000e+01
8.125000e+01
8.125000e+01
8.125000e+01
8.125000e+01
8.125000e+01
8.125000e+01
8.125000e+01
8.125000e+01
8.125000e+01
8.125000e+01
8.125000e+01
8.125000e+01
8.125000e+01
8.125000e+01
8.125000e+01
8.125000e+01
8.125000e+01
8.125000e+01
8.125000e+01
8.125000e+01
8.125000e+01
8.125000e+01
8.125000e+01
8.125000e+01
8.125000e+01
8.125000e+01
8.125000e+01
8.125000e+01
8.125000e+01
8.750000e+01
8.750000e+01
8.750000e+01
8.750000e+01
8.750000e+01
8.750000e+01
8.750000e+01
8.750000e+01
8.750000e+01
8.750000e+01
8.750000e+01
8.750000e+01
8.750000e+01
8.750000e+01
8.750000e+01
8.750000e+01
8.750000e+01
8.750000e+01
8.750000e+01
8.750000e+01
8.750000e+01
8.750000e+01
8.750000e+01
8.750000e+01
8.750000e+01
8.750000e+01
8.750000e+01
8.750000e+01
8.750000e+01
8.750000e+01
8.750000e+01
8.750000e+01
8.750000e+01
9.375000e+01
9.375000e+01
9.375000e+01
9.375000e+01
9.375000e+01
9.375000e+01
9.375000e+01
9.375000e+01
9.375000e+01
9.375000e+01
9.375000e+01
9.375000e+01
9.375000e+01
9.375000e+01
9.375000e+01
9.375000e+01
9.375000e+01
9.375000e+01
9.375000e+01
9.375000e+01
9.375000e+01
9.375000e+01
9.375000e+01
9.375000e+01
9.375000e+01
9.375000e+01
9.375000e+01
9.375000e+01
9.375000e+01
9.375000e+01
9.375000e+01
9.375000e+01
9.375000e+01
1.000000e+02
1.000000e+02
1.000000e+02
1.000000e+02
1.000000e+02
1.000000e+02
1.000000e+02
1.000000e+02
1.000000e+02
1.000000e+02
1.000000e+02
1.000000e+02
1.000000e+02
1.000000e+02
1.000000e+02
1.000000e+02
1.000000e+02
1.000000e+02
1.000000e+02
1.000000e+02
1.000000e+02
1.000000e+02
1.000000e+02
1.000000e+02
1.000000e+02
1.000000e+02
1.000000e+02
1.000000e+02
1.000000e+02
1.000000e+02
1.000000e+02
1.000000e+02
1.000000e+02
0.000000e+00
-8.093906e-02
-1.468520e-01
-2.079119e-01
-2.665137e-01
-3.231026e-01
-3.777925e-01
-4.305797e-01
-4.814302e-01
-5.303058e-01
-5.771762e-01
-6.220214e-01
-6.648300e-01
-7.056004e-01
-7.443421e-01
-7.810761e-01
-8.158354e-01
-8.486670e-01
-8.796368e-01
-9.088345e-01
-9.363793e-01
-9.624279e-01
-9.871872e-01
-1.010932e+00
-1.034032e+00
-1.056987e+00
-1.080495e+00
-1.105548e+00
-1.133603e+00
-1.166802e+00
-1.207925e+00
-1.256932e+00
-1.286840e+00
0.000000e+00
-5.426719e-02
-1.129077e-01
-1.681987e-01
-2.207521e-01
-2.710669e-01
-3.194091e-01
-3.658958e-01
-4.105729e-01
-4.534545e-01
-4.945438e-01
-5.338415e-01
-5.713491e-01
-6.070720e-01
-6.410222e-01
-6.732191e-01
-7.036903e-01
-7.324725e-01
-7.596154e-01
-7.851845e-01
-8.092628e-01
-8.319541e-01
-8.533873e-01
-8.737201e-01
-8.931415e-01
-9.118693e-01
-9.301333e-01
-9.481222e-01
-9.658347e-01
-9.826944e-01
-9.967430e-01
-1.004956e+00
-1.016391e+00
0.000000e+00
-4.304451e-02
-8.861693e-02
-1.350176e-01
-1.801058e-01
-2.235326e-01
-2.652705e-01
-3.053592e-01
-3.438339e-01
-3.807184e-01
-4.160289e-01
-4.497764e-01
-4.819698e-01
-5.126182e-01
-5.417334e-01
-5.693298e-01
-5.954253e-01
-6.200418e-01
-6.432069e-01
-6.649541e-01
-6.853215e-01
-7.043503e-01
-7.220806e-01
-7.385438e-01
-7.537463e-01
-7.676397e-01
-7.800651e-01
-7.906568e-01
-7.986984e-01
-8.030284e-01
-8.026486e-01
-8.002170e-01
-8.135697e-01
0.000000e+00
-3.415196e-02
-7.018974e-02
-1.072145e-01
-1.441532e-01
-1.801976e-01
-2.150390e-01
-2.485665e-01
-2.807501e-01
-3.115885e-01
-3.410899e-01
-3.692639e-01
-3.961196e-01
-4.216653e-01
-4.459091e-01
-4.688580e-01
-4.905179e-01
-5.108942e-01
-5.299908e-01
-5.478093e-01
-5.643451e-01
-5.795831e-01
-5.934893e-01
-6.059988e-01
-6.169962e-01
-6.262875e-01
-6.335652e-01
-6.383847e-01
-6.402247e-01
-6.388586e-01
-6.355408e-01
-6.353427e-01
-6.480646e-01
0.000000e+00
-2.650680e-02
-5.427674e-02
-8.293391e-02
-1.118243e-01
-1.403607e-01
-1.681494e-01
-1.949910e-01
-2.207945e-01
-2.455254e-01
-2.691746e-01
-2.917430e-01
-3.132346e-01
-3.336533e-01
-3.530006e-01
-3.712747e-01
-3.884697e-01
-4.045751e-01
-4.195744e-01
-4.334423e-01
-4.461417e-01
-4.576185e-01
-4.677939e-01
-4.765562e-01
-4.837505e-01
-4.891734e-01
-4.925857e-01
-4.937827e-01
-4.928005e-01
-4.903975e-01
-4.888385e-01
-4.924386e-01
-5.032909e-01
0.000000e+00
-1.948112e-02
-3.979677e-02
-6.076509e-02
-8.202392e-02
-1.031766e-01
-1.239081e-01
-1.440134e-01
-1.633802e-01
-1.819538e-01
-1.997111e-01
-2.166439e-01
-2.327493e-01
-2.480244e-01
-2.624636e-01
-2.760565e-01
-2.887868e-01
-3.006313e-01
-3.115578e-01
-3.215238e-01
-3.304730e-01
-3.383329e-01
-3.450118e-01
-3.503974e-01
-3.543620e-01
-3.567811e-01
-3.575836e-01
-3.568632e-01
-3.550878e-01
-3.533988e-01
-3.538100e-01
-3.583994e-01
-3.673792e-01
0.000000e+00
-1.282102e-02
-2.614912e-02
-3.989995e-02
-5.387750e-02
-6.784662e-02
-8.159674e-02
-9.497422e-02
-1.078828e-01
-1.202696e-01
-1.321078e-01
-1.433838e-01
-1.540891e-01
-1.642147e-01
-1.737484e-01
-1.826727e-01
-1.909635e-01
-1.985889e-01
-2.055080e-01
-2.116699e-01
-2.170126e-01
-2.214637e-01
-2.249424e-01
-2.273665e-01
-2.286690e-01
-2.288306e-01
-2.279400e-01
-2.262920e-01
-2.245137e-01
-2.236517e-01
-2.249966e-01
-2.294650e-01
-2.367138e-01
0.000000e+00
-6.368273e-03
-1.297727e-02
-1.979299e-02
-2.672938e-02
-3.367692e-02
-4.053162e-02
-4.721204e-02
-5.366310e-02
-5.985121e-02
-6.575645e-02
-7.136566e-02
-7.666734e-02
-8.164839e-02
-8.629178e-02
-9.057518e-02
-9.446986e-02
-9.793988e-02
-1.009416e-01
-1.034238e-01
-1.053293e-01
-1.065977e-01
-1.071722e-01
-1.070125e-01
-1.061152e-01
-1.045489e-01
-1.025031e-01
-1.003475e-01
-9.867413e-02
-9.825504e-02
-9.983302e-02
-1.037311e-01
-1.094827e-01
0.000000e+00
-1.039292e-05
-2.247912e-05
-3.558385e-05
-4.902143e-05
-6.188939e-05
-7.279627e-05
-7.962194e-05
-7.922087e-05
-6.706744e-05
-3.681547e-05
2.022305e-05
1.156736e-04
2.647585e-04
4.870041e-04
8.069093e-04
1.254510e-03
1.865621e-03
2.681532e-03
3.747679e-03
5.110788e-03
6.813502e-03
8.885344e-03
1.132856e-02
1.409740e-02
1.707058e-02
2.002046e-02
2.259048e-02
2.430602e-02
2.465381e-02
2.325281e-02
2.008021e-02
1.563691e-02
0.000000e+00
6.348683e-03
1.293479e-02
1.972562e-02
2.663638e-02
3.355922e-02
4.039268e-02
4.705926e-02
5.350979e-02
5.971912e-02
6.567924e-02
7.139328e-02
7.687162e-02
8.212981e-02
8.718769e-02
9.206923e-02
9.680263e-02
1.014200e-01
1.059566e-01
1.104486e-01
1.149296e-01
1.194243e-01
1.239390e-01
1.284488e-01
1.328803e-01
1.370937e-01
1.408684e-01
1.439044e-01
1.458551e-01
1.464073e-01
1.454070e-01
1.429971e-01
1.396993e-01
0.000000e+00
1.280495e-02
2.611402e-02
3.984393e-02
5.379965e-02
6.774726e-02
8.147813e-02
9.484176e-02
1.077466e-01
1.201464e-01
1.320241e-01
1.433793e-01
1.542213e-01
1.645646e-01
1.744275e-01
1.838309e-01
1.927982e-01
2.013550e-01
2.095279e-01
2.173422e-01
2.248182e-01
2.319652e-01
2.387736e-01
2.452040e-01
2.511758e-01
2.565566e-01
2.611591e-01
2.647539e-01
2.671067e-01
2.680474e-01
2.675637e-01
2.658961e-01
2.635946e-01
0.000000e+00
1.947078e-02
3.977384e-02
6.072793e-02
8.197135e-02
1.031081e-01
1.238245e-01
1.439175e-01
1.632774e-01
1.818537e-01
1.996298e-01
2.166057e-01
2.327903e-01
2.481961e-01
2.628377e-01
2.767307e-01
2.898911e-01
3.023358e-01
3.140807e-01
3.251393e-01
3.355193e-01
3.452183e-01
3.542175e-01
3.624746e-01
3.699165e-01
3.764353e-01
3.818904e-01
3.861241e-01
3.889952e-01
3.904338e-01
3.905148e-01
3.895366e-01
3.880820e-01
0.000000e+00
2.650411e-02
5.427020e-02
8.292243e-02
1.118066e-01
1.403358e-01
1.681169e-01
1.949507e-01
2.207473e-01
2.454732e-01
2.691215e-01
2.916958e-01
3.132040e-01
3.336555e-01
3.530589e-01
3.714221e-01
3.887518e-01
4.050538e-01
4.203319e-01
4.345868e-01
4.478142e-01
4.600018e-01
4.711264e-01
4.811494e-01
4.900147e-01
4.976479e-01
5.039615e-01
5.088683e-01
5.123071e-01
5.142828e-01
5.149237e-01
5.145564e-01
5.137901e-01
0.000000e+00
3.415812e-02
7.020256e-02
1.072338e-01
1.441782e-01
1.802276e-01
2.150730e-01
2.486028e-01
2.807857e-01
3.116194e-01
3.411093e-01
3.692618e-01
3.960821e-01
4.215731e-01
4.457355e-01
4.685673e-01
4.900643e-01
5.102193e-01
5.290223e-01
5.464599e-01
5.625143e-01
5.771633e-01
5.903792e-01
6.021286e-01
6.123741e-01
6.210773e-01
6.282054e-01
6.337424e-01
6.377051e-01
6.401678e-01
6.413005e-01
6.414356e-01
6.411814e-01
0.000000e+00
4.305979e-02
8.865004e-02
1.350696e-01
1.801773e-01
2.236248e-01
2.653837e-01
3.054916e-01
3.439816e-01
3.808745e-01
4.161799e-01
4.499003e-01
4.820334e-01
5.125732e-01
5.415101e-01
5.688309e-01
5.945189e-01
6.185531e-01
6.409082e-01
6.615540e-01
6.804567e-01
6.975796e-01
7.128856e-01
7.263404e-01
7.379184e-01
7.476108e-01
7.554349e-01
7.614461e-01
7.657482e-01
7.685036e-01
7.699459e-01
7.704156e-01
7.704716e-01
0.000000e+00
5.429017e-02
1.129586e-01
1.682807e-01
2.208686e-01
2.712223e-01
3.196074e-01
3.661382e-01
4.108582e-01
4.537777e-01
4.948916e-01
5.341885e-01
5.716539e-01
6.072705e-01
6.410179e-01
6.728719e-01
7.028036e-01
7.307778e-01
7.567525e-01
7.806786e-01
8.025008e-01
8.221605e-01
8.395997e-01
8.547685e-01
8.676350e-01
8.782001e-01
8.865136e-01
8.926925e-01
8.969371e-01
8.995379e-01
9.008667e-01
9.013484e-01
9.014664e-01
0.000000e+00
8.096421e-02
1.469116e-01
2.080140e-01
2.666657e-01
3.233134e-01
3.780715e-01
4.309343e-01
4.818665e-01
5.308272e-01
5.777785e-01
6.226878e-01
6.655265e-01
7.062674e-01
7.448816e-01
7.813366e-01
8.155937e-01
8.476053e-01
8.773130e-01
9.046463e-01
9.295228e-01
9.518511e-01
9.715356e-01
9.884858e-01
1.002632e+00
1.013944e+00
1.022464e+00
1.028333e+00
1.031832e+00
1.033408e+00
1.033694e+00
1.033457e+00
1.033323e+00
0.000000e+00
-5.001863e-02
-8.729362e-02
-1.279705e-01
-1.732668e-01
-2.244332e-01
-2.818258e-01
-3.455443e-01
-4.155251e-01
-4.916183e-01
-5.736225e-01
-6.613053e-01
-7.544166e-01
-8.526959e-01
-9.558776e-01
-1.063694e+00
-1.175879e+00
-1.292171e+00
-1.412318e+00
-1.536081e+00
-1.663246e+00
-1.793630e+00
-1.927105e+00
-2.063620e+00
-2.203241e+00
-2.346228e+00
-2.493149e+00
-2.645114e+00
-2.804243e+00
-2.974737e+00
-3.165660e+00
-3.398393e+00
-3.719921e+00
0.000000e+00
-3.108480e-02
-7.010193e-02
-1.110528e-01
-1.569802e-01
-2.087025e-01
-2.666526e-01
-3.309284e-01
-4.014725e-01
-4.781345e-01
-5.607117e-01
-6.489700e-01
-7.426573e-01
-8.415109e-01
-9.452627e-01
-1.053642e+00
-1.166380e+00
-1.283211e+00
-1.403877e+00
-1.528135e+00
-1.655761e+00
-1.786566e+00
-1.920408e+00
-2.057221e+00
-2.197054e+00
-2.340141e+00
-2.487022e+00
-2.638772e+00
-2.797467e+00
-2.967238e+00
-3.156686e+00
-3.384239e+00
-3.684628e+00
0.000000e+00
-2.283368e-02
-5.651606e-02
-9.690812e-02
-1.429156e-01
-1.950189e-01
-2.534262e-01
-3.181918e-01
-3.892381e-01
-4.664080e-01
-5.494950e-01
-6.382633e-01
-7.324597e-01
-8.318205e-01
-9.360765e-01
-1.044956e+00
-1.158189e+00
-1.275508e+00
-1.396655e+00
-1.521382e+00
-1.649465e+00
-1.780714e+00
-1.914985e+00
-2.052213e+00
-2.192456e+00
-2.335961e+00
-2.483290e+00
-2.635544e+00
-2.794778e+00
-2.964708e+00
-3.151691e+00
-3.363235e+00
-3.597901e+00
0.000000e+00
-1.828441e-02
-4.785795e-02
-8.609602e-02
-1.315120e-01
-1.835990e-01
-2.422561e-01
-3.073845e-01
-3.788442e-01
-4.564491e-01
-5.399798e-01
-6.291949e-01
-7.238387e-01
-8.236471e-01
-9.283510e-01
-1.037680e+00
-1.151364e+00
-1.269137e+00
-1.390742e+00
-1.515934e+00
-1.644493e+00
-1.776229e+00
-1.911010e+00
-2.048780e+00
-2.189609e+00
-2.333756e+00
-2.481779e+00
-2.634693e+00
-2.794178e+00
-2.962683e+00
-3.142555e+00
-3.332263e+00
-3.508862e+00
0.000000e+00
-1.547181e-02
-4.219596e-02
-7.841829e-02
-1.227988e-01
-1.745442e-01
-2.332232e-01
-2.985633e-01
-3.703282e-01
-4.482833e-01
-5.321853e-01
-6.217811e-01
-7.168106e-01
-8.170088e-01
-9.221077e-01
-1.031839e+00
-1.145935e+00
-1.264133e+00
-1.386178e+00
-1.511832e+00
-1.640877e+00
-1.773131e+00
-1.908466e+00
-2.046831e+00
-2.188289e+00
-2.333070e+00
-2.481626e+00
-2.634690e+00
-2.793227e+00
-2.958013e+00
-3.128264e+00
-3.297729e+00
-3.451528e+00
0.000000e+00
-1.368215e-02
-3.848103e-02
-7.313490e-02
-1.165163e-01
-1.677768e-01
-2.263282e-01
-2.917518e-01
-3.637176e-01
-4.419354e-01
-5.261314e-01
-6.160379e-01
-7.113883e-01
-8.119163e-01
-9.173554e-01
-1.027440e+00
-1.141905e+00
-1.260493e+00
-1.382953e+00
-1.509050e+00
-1.638569e+00
-1.771330e+00
-1.907200e+00
-2.046113e+00
-2.188094e+00
-2.333279e+00
-2.481925e+00
-2.634353e+00
-2.790739e+00
-2.950555e+00
-3.111367e+00
-3.267428e+00
-3.410066e+00
0.000000e+00
-1.256989e-02
-3.613228e-02
-6.970062e-02
-1.123076e-01
-1.631262e-01
-2.215037e-01
-2.869354e-01
-3.590199e-01
-4.374195e-01
-5.218323e-01
-6.119761e-01
-7.075783e-01
-8.083714e-01
-9.140904e-01
-1.024472e+00
-1.139257e+00
-1.258189e+00
-1.381021e+00
-1.507518e+00
-1.637466e+00
-1.770676e+00
-1.906997e+00
-2.046327e+00
-2.188617e+00
-2.333870e+00
-2.482100e+00
-2.633220e+00
-2.786796e+00
-2.941576e+00
-3.094883e+00
-3.242297e+00
-3.378402e+00
0.000000e+00
-1.195867e-02
-3.482899e-02
-6.776532e-02
-1.098942e-01
-1.604173e-01
-2.186608e-01
-2.840780e-01
-3.562268e-01
-4.347388e-01
-5.192937e-01
-6.095992e-01
-7.053793e-01
-8.063663e-01
-9.122972e-01
-1.022912e+00
-1.137953e+00
-1.257168e+00
-1.380310e+00
-1.507143e+00
-1.637442e+00
-1.771004e+00
-1.907646e+00
-2.047212e+00
-2.189560e+00
-2.334545e+00
-2.481954e+00
-2.631383e+00
-2.782037e+00
-2.932431e+00
-3.080152e+00
-3.221874e+00
-3.353902e+00
0.000000e+00
-1.176172e-02
-3.440849e-02
-6.713804e-02
-1.091076e-01
-1.595307e-01
-2.177295e-01
-2.831458e-01
-3.553249e-01
-4.338894e-01
-5.185136e-01
-6.089033e-01
-7.047825e-01
-8.058855e-01
-9.119520e-01
-1.022724e+00
-1.137948e+00
-1.257370e+00
-1.380742e+00
-1.507821e+00
-1.638371e+00
-1.772162e+00
-1.908974e+00
-2.048584e+00
-2.190758e+00
-2.335212e+00
-2.481554e+00
-2.629182e+00
-2.777140e+00
-2.923971e+00
-3.067632e+00
-3.205586e+00
-3.335125e+00
0.000000e+00
-1.195293e-02
-3.482100e-02
-6.775841e-02
-1.098921e-01
-1.604245e-01
-2.186832e-01
-2.841237e-01
-3.563061e-01
-4.348655e-01
-5.194855e-01
-6.098783e-01
-7.057731e-01
-8.069080e-01
-9.130256e-01
-1.023871e+00
-1.139189e+00
-1.258729e+00
-1.382236e+00
-1.509458e+00
-1.640142e+00
-1.774032e+00
-1.910860e+00
-2.050344e+00
-2.192159e+00
-2.335914e+00
-2.481092e+00
-2.626986e+00
-2.772614e+00
-2.916649e+00
-3.057406e+00
-3.192923e+00
-3.321132e+00
0.000000e+00
-1.255887e-02
-3.611695e-02
-6.968734e-02
-1.123033e-01
-1.631397e-01
-2.215463e-01
-2.870224e-01
-3.591715e-01
-4.376619e-01
-5.221995e-01
-6.125107e-01
-7.083331e-01
-8.094101e-01
-9.154877e-01
-1.026312e+00
-1.141630e+00
-1.261187e+00
-1.384723e+00
-1.511975e+00
-1.642672e+00
-1.776528e+00
-1.913235e+00
-2.052452e+00
-2.193784e+00
-2.336756e+00
-2.480779e+00
-2.625104e+00
-2.768787e+00
-2.910669e+00
-3.049386e+00
-3.183425e+00
-3.311199e+00
0.000000e+00
-1.366684e-02
-3.845974e-02
-7.311640e-02
-1.165103e-01
-1.677953e-01
-2.263872e-01
-2.918727e-01
-3.639286e-01
-4.422733e-01
-5.266438e-01
-6.167845e-01
-7.124433e-01
-8.133691e-01
-9.193107e-01
-1.030016e+00
-1.145231e+00
-1.264696e+00
-1.388149e+00
-1.515314e+00
-1.645902e+00
-1.779600e+00
-1.916066e+00
-2.054911e+00
-2.195686e+00
-2.337859e+00
-2.480799e+00
-2.623755e+00
-2.765850e+00
-2.906090e+00
-3.043399e+00
-3.176650e+00
-3.304688e+00
0.000000e+00
-1.545380e-02
-4.217094e-02
-7.839657e-02
-1.227919e-01
-1.745666e-01
-2.332945e-01
-2.987091e-01
-3.705828e-01
-4.486914e-01
-5.328044e-01
-6.226838e-01
-7.180865e-01
-8.187661e-01
-9.244737e-01
-1.034957e+00
-1.149961e+00
-1.269225e+00
-1.392478e+00
-1.519436e+00
-1.649794e+00
-1.783221e+00
-1.919344e+00
-2.057740e+00
-2.197920e+00
-2.339319e+00
-2.481283e+00
-2.623074e+00
-2.763886e+00
-2.902876e+00
-3.039220e+00
-3.172152e+00
-3.300961e+00
0.000000e+00
-1.826589e-02
-4.783233e-02
-8.607403e-02
-1.315060e-01
-1.836253e-01
-2.423363e-01
-3.075473e-01
-3.791273e-01
-4.569020e-01
-5.406661e-01
-6.301946e-01
-7.252506e-01
-8.255904e-01
-9.309659e-01
-1.041125e+00
-1.155810e+00
-1.274758e+00
-1.397693e+00
-1.524325e+00
-1.654338e+00
-1.787384e+00
-1.923073e+00
-2.060957e+00
-2.200525e+00
-2.341191e+00
-2.482293e+00
-2.623111e+00
-2.762896e+00
-2.900927e+00
-3.036592e+00
-3.169466e+00
-3.299337e+00
0.000000e+00
-2.281753e-02
-5.649366e-02
-9.688963e-02
-1.429138e-01
-1.950509e-01
-2.535148e-01
-3.183669e-01
-3.895390e-01
-4.668858e-01
-5.502155e-01
-6.393090e-01
-7.339321e-01
-8.338420e-01
-9.387901e-01
-1.048523e+00
-1.162783e+00
-1.281303e+00
-1.403804e+00
-1.529992e+00
-1.659542e+00
-1.792100e+00
-1.927264e+00
-2.064575e+00
-2.203510e+00
-2.343476e+00
-2.483813e+00
-2.623819e+00
-2.762785e+00
-2.900074e+00
-3.035230e+00
-3.168116e+00
-3.299053e+00
0.000000e+00
-3.107439e-02
-7.008674e-02
-1.110420e-01
-1.569869e-01
-2.087443e-01
-2.667524e-01
-3.311163e-01
-4.017876e-01
-4.786277e-01
-5.614477e-01
-6.500296e-01
-7.441396e-01
-8.435344e-01
-9.479645e-01
-1.057176e+00
-1.170907e+00
-1.288891e+00
-1.410846e+00
-1.536472e+00
-1.665444e+00
-1.797402e+00
-1.931940e+00
-2.068598e+00
-2.206852e+00
-2.346114e+00
-2.485735e+00
-2.625030e+00
-2.763326e+00
-2.900034e+00
-3.034786e+00
-3.167629e+00
-3.299295e+00
0.000000e+00
-5.001710e-02
-8.728865e-02
-1.279714e-01
-1.732871e-01
-2.244907e-01
-2.819432e-01
-3.457512e-01
-4.158602e-01
-4.921310e-01
-5.743748e-01
-6.623744e-01
-7.558959e-01
-8.546957e-01
-9.585235e-01
-1.067124e+00
-1.180233e+00
-1.297582e+00
-1.418885e+00
-1.543840e+00
-1.672119e+00
-1.803358e+00
-1.937153e+00