TITLE = "Solution"
VARIABLES = x, y, u, v, psiu, psiv, t, stress
ZONE T="structure" N=561 E=512 F=FEBLOCK ET=QUADRILATERAL VARLOCATION=([7,8]=cellcentered)
0.000000e+00
6.250000e+00
1.250000e+01
1.875000e+01
2.500000e+01
3.125000e+01
3.750000e+01
4.375000e+01
5.000000e+01
5.625000e+01
6.250000e+01
6.875000e+01
7.500000e+01
8.125000e+01
8.750000e+01
9.375000e+01
1.000000e+02
1.062500e+02
1.125000e+02
1.187500e+02
1.250000e+02
1.312500e+02
1.375000e+02
1.437500e+02
1.500000e+02
1.562500e+02
1.625000e+02
1.687500e+02
1.750000e+02
1.812500e+02
1.875000e+02
1.937500e+02
2.000000e+02
0.000000e+00
6.250000e+00
1.250000e+01
1.875000e+01
2.500000e+01
3.125000e+01
3.750000e+01
4.375000e+01
5.000000e+01
5.625000e+01
6.250000e+01
6.875000e+01
7.500000e+01
8.125000e+01
8.750000e+01
9.375000e+01
1.000000e+02
1.062500e+02
1.125000e+02
1.187500e+02
1.250000e+02
1.312500e+02
1.375000e+02
1.437500e+02
1.500000e+02
1.562500e+02
1.625000e+02
1.687500e+02
1.750000e+02
1.812500e+02
1.875000e+02
1.937500e+02
2.000000e+02
0.000000e+00
6.250000e+00
1.250000e+01
1.875000e+01
2.500000e+01
3.125000e+01
3.750000e+01
4.375000e+01
5.000000e+01
5.625000e+01
6.250000e+01
6.875000e+01
7.500000e+01
8.125000e+01
8.750000e+01
9.375000e+01
1.000000e+02
1.062500e+02
1.125000e+02
1.187500e+02
1.250000e+02
1.312500e+02
1.375000e+02
1.437500e+02
1.500000e+02
1.562500e+02
1.625000e+02
1.687500e+02
1.750000e+02
1.812500e+02
1.875000e+02
1.937500e+02
2.000000e+02
0.000000e+00
6.250000e+00
1.250000e+01
1.875000e+01
2.500000e+01
3.125000e+01
3.750000e+01
4.375000e+01
5.000000e+01
5.625000e+01
6.250000e+01
6.875000e+01
7.500000e+01
8.125000e+01
8.750000e+01
9.375000e+01
1.000000e+02
1.062500e+02
1.125000e+02
1.187500e+02
1.250000e+02
1.312500e+02
1.375000e+02
1.437500e+02
1.500000e+02
1.562500e+02
1.625000e+02
1.687500e+02
1.750000e+02
1.812500e+02
1.875000e+02
1.937500e+02
2.000000e+02
0.000000e+00
6.250000e+00
1.250000e+01
1.875000e+01
2.500000e+01
3.125000e+01
3.750000e+01
4.375000e+01
5.000000e+01
5.625000e+01
6.250000e+01
6.875000e+01
7.500000e+01
8.125000e+01
8.750000e+01
9.375000e+01
1.000000e+02
1.062500e+02
1.125000e+02
1.187500e+02
1.250000e+02
1.312500e+02
1.375000e+02
1.437500e+02
1.500000e+02
1.562500e+02
1.625000e+02
1.687500e+02
1.750000e+02
1.812500e+02
1.875000e+02
1.937500e+02
2.000000e+02
0.000000e+00
6.250000e+00
1.250000e+01
1.875000e+01
2.500000e+01
3.125000e+01
3.750000e+01
4.375000e+01
5.000000e+01
5.625000e+01
6.250000e+01
6.875000e+01
7.500000e+01
8.125000e+01
8.750000e+01
9.375000e+01
1.000000e+02
1.062500e+02
1.125000e+02
1.187500e+02
1.250000e+02
1.312500e+02
1.375000e+02
1.437500e+02
1.500000e+02
1.562500e+02
1.625000e+02
1.687500e+02
1.750000e+02
1.812500e+02
1.875000e+02
1.937500e+02
2.000000e+02
0.000000e+00
6.250000e+00
1.250000e+01
1.875000e+01
2.500000e+01
3.125000e+01
3.750000e+01
4.375000e+01
5.000000e+01
5.625000e+01
6.250000e+01
6.875000e+01
7.500000e+01
8.125000e+01
8.750000e+01
9.375000e+01
1.000000e+02
1.062500e+02
1.125000e+02
1.187500e+02
1.250000e+02
1.312500e+02
1.375000e+02
1.437500e+02
1.500000e+02
1.562500e+02
1.625000e+02
1.687500e+02
1.750000e+02
1.812500e+02
1.875000e+02
1.937500e+02
2.000000e+02
0.000000e+00
6.250000e+00
1.250000e+01
1.875000e+01
2.500000e+01
3.125000e+01
3.750000e+01
4.375000e+01
5.000000e+01
5.625000e+01
6.250000e+01
6.875000e+01
7.500000e+01
8.125000e+01
8.750000e+01
9.375000e+01
1.000000e+02
1.062500e+02
1.125000e+02
1.187500e+02
1.250000e+02
1.312500e+02
1.375000e+02
1.437500e+02
1.500000e+02
1.562500e+02
1.625000e+02
1.687500e+02
1.750000e+02
1.812500e+02
1.875000e+02
1.937500e+02
2.000000e+02
0.000000e+00
6.250000e+00
1.250000e+01
1.875000e+01
2.500000e+01
3.125000e+01
3.750000e+01
4.375000e+01
5.000000e+01
5.625000e+01
6.250000e+01
6.875000e+01
7.500000e+01
8.125000e+01
8.750000e+01
9.375000e+01
1.000000e+02
1.062500e+02
1.125000e+02
1.187500e+02
1.250000e+02
1.312500e+02
1.375000e+02
1.437500e+02
1.500000e+02
1.562500e+02
1.625000e+02
1.687500e+02
1.750000e+02
1.812500e+02
1.875000e+02
1.937500e+02
2.000000e+02
0.000000e+00
6.250000e+00
1.250000e+01
1.875000e+01
2.500000e+01
3.125000e+01
3.750000e+01
4.375000e+01
5.000000e+01
5.625000e+01
6.250000e+01
6.875000e+01
7.500000e+01
8.125000e+01
8.750000e+01
9.375000e+01
1.000000e+02
1.062500e+02
1.125000e+02
1.187500e+02
1.250000e+02
1.312500e+02
1.375000e+02
1.437500e+02
1.500000e+02
1.562500e+02
1.625000e+02
1.687500e+02
1.750000e+02
1.812500e+02
1.875000e+02
1.937500e+02
2.000000e+02
0.000000e+00
6.250000e+00
1.250000e+01
1.875000e+01
2.500000e+01
3.125000e+01
3.750000e+01
4.375000e+01
5.000000e+01
5.625000e+01
6.250000e+01
6.875000e+01
7.500000e+01
8.125000e+01
8.750000e+01
9.375000e+01
1.000000e+02
1.062500e+02
1.125000e+02
1.187500e+02
1.250000e+02
1.312500e+02
1.375000e+02
1.437500e+02
1.500000e+02
1.562500e+02
1.625000e+02
1.687500e+02
1.750000e+02
1.812500e+02
1.875000e+02
1.937500e+02
2.000000e+02
0.000000e+00
6.250000e+00
1.250000e+01
1.875000e+01
2.500000e+01
3.125000e+01
3.750000e+01
4.375000e+01
5.000000e+01
5.625000e+01
6.250000e+01
6.875000e+01
7.500000e+01
8.125000e+01
8.750000e+01
9.375000e+01
1.000000e+02
1.062500e+02
1.125000e+02
1.187500e+02
1.250000e+02
1.312500e+02
1.375000e+02
1.437500e+02
1.500000e+02
1.562500e+02
1.625000e+02
1.687500e+02
1.750000e+02
1.812500e+02
1.875000e+02
1.937500e+02
2.000000e+02
0.000000e+00
6.250000e+00
1.250000e+01
1.875000e+01
2.500000e+01
3.125000e+01
3.750000e+01
4.375000e+01
5.000000e+01
5.625000e+01
6.250000e+01
6.875000e+01
7.500000e+01
8.125000e+01
8.750000e+01
9.375000e+01
1.000000e+02
1.062500e+02
1.125000e+02
1.187500e+02
1.250000e+02
1.312500e+02
1.375000e+02
1.437500e+02
1.500000e+02
1.562500e+02
1.625000e+02
1.687500e+02
1.750000e+02
1.812500e+02
1.875000e+02
1.937500e+02
2.000000e+02
0.000000e+00
6.250000e+00
1.250000e+01
1.875000e+01
2.500000e+01
3.125000e+01
3.750000e+01
4.375000e+01
5.000000e+01
5.625000e+01
6.250000e+01
6.875000e+01
7.500000e+01
8.125000e+01
8.750000e+01
9.375000e+01
1.000000e+02
1.062500e+02
1.125000e+02
1.187500e+02
1.250000e+02
1.312500e+02
1.375000e+02
1.437500e+02
1.500000e+02
1.562500e+02
1.625000e+02
1.687500e+02
1.750000e+02
1.812500e+02
1.875000e+02
1.937500e+02
2.000000e+02
0.000000e+00
6.250000e+00
1.250000e+01
1.875000e+01
2.500000e+01
3.125000e+01
3.750000e+01
4.375000e+01
5.000000e+01
5.625000e+01
6.250000e+01
6.875000e+01
7.500000e+01
8.125000e+01
8.750000e+01
9.375000e+01
1.000000e+02
1.062500e+02
1.125000e+02
1.187500e+02
1.250000e+02
1.312500e+02
1.375000e+02
1.437500e+02
1.500000e+02
1.562500e+02
1.625000e+02
1.687500e+02
1.750000e+02
1.812500e+02
1.875000e+02
1.937500e+02
2.000000e+02
0.000000e+00
6.250000e+00
1.250000e+01
1.875000e+01
2.500000e+01
3.125000e+01
3.750000e+01
4.375000e+01
5.000000e+01
5.625000e+01
6.250000e+01
6.875000e+01
7.500000e+01
8.125000e+01
8.750000e+01
9.375000e+01
1.000000e+02
1.062500e+02
1.125000e+02
1.187500e+02
1.250000e+02
1.312500e+02
1.375000e+02
1.437500e+02
1.500000e+02
1.562500e+02
1.625000e+02
1.687500e+02
1.750000e+02
1.812500e+02
1.875000e+02
1.937500e+02
2.000000e+02
0.000000e+00
6.250000e+00
1.250000e+01
1.875000e+01
2.500000e+01
3.125000e+01
3.750000e+01
4.375000e+01
5.000000e+01
5.625000e+01
6.250000e+01
6.875000e+01
7.500000e+01
8.125000e+01
8.750000e+01
9.375000e+01
1.000000e+02
1.062500e+02
1.125000e+02
1.187500e+02
1.250000e+02
1.312500e+02
1.375000e+02
1.437500e+02
1.500000e+02
1.562500e+02
1.625000e+02
1.687500e+02
1.750000e+02
1.812500e+02
1.875000e+02
1.937500e+02
2.000000e+02
0.000000e+00
0.000000e+00
0.000000e+00
0.000000e+00
0.000000e+00
0.000000e+00
0.000000e+00
0.000000e+00
0.000000e+00
0.000000e+00
0.000000e+00
0.000000e+00
0.000000e+00
0.000000e+00
0.000000e+00
0.000000e+00
0.000000e+00
0.000000e+00
0.000000e+00
0.000000e+00
0.000000e+00
0.000000e+00
0.000000e+00
0.000000e+00
0.000000e+00
0.000000e+00
0.000000e+00
0.000000e+00
0.000000e+00
0.000000e+00
0.000000e+00
0.000000e+00
0.000000e+00
6.250000e+00
6.250000e+00
6.250000e+00
6.250000e+00
6.250000e+00
6.250000e+00
6.250000e+00
6.250000e+00
6.250000e+00
6.250000e+00
6.250000e+00
6.250000e+00
6.250000e+00
6.250000e+00
6.250000e+00
6.250000e+00
6.250000e+00
6.250000e+00
6.250000e+00
6.250000e+00
6.250000e+00
6.250000e+00
6.250000e+00
6.250000e+00
6.250000e+00
6.250000e+00
6.250000e+00
6.250000e+00
6.250000e+00
6.250000e+00
6.250000e+00
6.250000e+00
6.250000e+00
1.250000e+01
1.250000e+01
1.250000e+01
1.250000e+01
1.250000e+01
1.250000e+01
1.250000e+01
1.250000e+01
1.250000e+01
1.250000e+01
1.250000e+01
1.250000e+01
1.250000e+01
1.250000e+01
1.250000e+01
1.250000e+01
1.250000e+01
1.250000e+01
1.250000e+01
1.250000e+01
1.250000e+01
1.250000e+01
1.250000e+01
1.250000e+01
1.250000e+01
1.250000e+01
1.250000e+01
1.250000e+01
1.250000e+01
1.250000e+01
1.250000e+01
1.250000e+01
1.250000e+01
1.875000e+01
1.875000e+01
1.875000e+01
1.875000e+01
1.875000e+01
1.875000e+01
1.875000e+01
1.875000e+01
1.875000e+01
1.875000e+01
1.875000e+01
1.875000e+01
1.875000e+01
1.875000e+01
1.875000e+01
1.875000e+01
1.875000e+01
1.875000e+01
1.875000e+01
1.875000e+01
1.875000e+01
1.875000e+01
1.875000e+01
1.875000e+01
1.875000e+01
1.875000e+01
1.875000e+01
1.875000e+01
1.875000e+01
1.875000e+01
1.875000e+01
1.875000e+01
1.875000e+01
2.500000e+01
2.500000e+01
2.500000e+01
2.500000e+01
2.500000e+01
2.500000e+01
2.500000e+01
2.500000e+01
2.500000e+01
2.500000e+01
2.500000e+01
2.500000e+01
2.500000e+01
2.500000e+01
2.500000e+01
2.500000e+01
2.500000e+01
2.500000e+01
2.500000e+01
2.500000e+01
2.500000e+01
2.500000e+01
2.500000e+01
2.500000e+01
2.500000e+01
2.500000e+01
2.500000e+01
2.500000e+01
2.500000e+01
2.500000e+01
2.500000e+01
2.500000e+01
2.500000e+01
3.125000e+01
3.125000e+01
3.125000e+01
3.125000e+01
3.125000e+01
3.125000e+01
3.125000e+01
3.125000e+01
3.125000e+01
3.125000e+01
3.125000e+01
3.125000e+01
3.125000e+01
3.125000e+01
3.125000e+01
3.125000e+01
3.125000e+01
3.125000e+01
3.125000e+01
3.125000e+01
3.125000e+01
3.125000e+01
3.125000e+01
3.125000e+01
3.125000e+01
3.125000e+01
3.125000e+01
3.125000e+01
3.125000e+01
3.125000e+01
3.125000e+01
3.125000e+01
3.125000e+01
3.750000e+01
3.750000e+01
3.750000e+01
3.750000e+01
3.750000e+01
3.750000e+01
3.750000e+01
3.750000e+01
3.750000e+01
3.750000e+01
3.750000e+01
3.750000e+01
3.750000e+01
3.750000e+01
3.750000e+01
3.750000e+01
3.750000e+01
3.750000e+01
3.750000e+01
3.750000e+01
3.750000e+01
3.750000e+01
3.750000e+01
3.750000e+01
3.750000e+01
3.750000e+01
3.750000e+01
3.750000e+01
3.750000e+01
3.750000e+01
3.750000e+01
3.750000e+01
3.750000e+01
4.375000e+01
4.375000e+01
4.375000e+01
4.375000e+01
4.375000e+01
4.375000e+01
4.375000e+01
4.375000e+01
4.375000e+01
4.375000e+01
4.375000e+01
4.375000e+01
4.375000e+01
4.375000e+01
4.375000e+01
4.375000e+01
4.375000e+01
4.375000e+01
4.375000e+01
4.375000e+01
4.375000e+01
4.375000e+01
4.375000e+01
4.375000e+01
4.375000e+01
4.375000e+01
4.375000e+01
4.375000e+01
4.375000e+01
4.375000e+01
4.375000e+01
4.375000e+01
4.375000e+01
5.000000e+01
5.000000e+01
5.000000e+01
5.000000e+01
5.000000e+01
5.000000e+01
5.000000e+01
5.000000e+01
5.000000e+01
5.000000e+01
5.000000e+01
5.000000e+01
5.000000e+01
5.000000e+01
5.000000e+01
5.000000e+01
5.000000e+01
5.000000e+01
5.000000e+01
5.000000e+01
5.000000e+01
5.000000e+01
5.000000e+01
5.000000e+01
5.000000e+01
5.000000e+01
5.000000e+01
5.000000e+01
5.000000e+01
5.000000e+01
5.000000e+01
5.000000e+01
5.000000e+01
5.625000e+01
5.625000e+01
5.625000e+01
5.625000e+01
5.625000e+01
5.625000e+01
5.625000e+01
5.625000e+01
5.625000e+01
5.625000e+01
5.625000e+01
5.625000e+01
5.625000e+01
5.625000e+01
5.625000e+01
5.625000e+01
5.625000e+01
5.625000e+01
5.625000e+01
5.625000e+01
5.625000e+01
5.625000e+01
5.625000e+01
5.625000e+01
5.625000e+01
5.625000e+01
5.625000e+01
5.625000e+01
5.625000e+01
5.625000e+01
5.625000e+01
5.625000e+01
5.625000e+01
6.250000e+01
6.250000e+01
6.250000e+01
6.250000e+01
6.250000e+01
6.250000e+01
6.250000e+01
6.250000e+01
6.250000e+01
6.250000e+01
6.250000e+01
6.250000e+01
6.250000e+01
6.250000e+01
6.250000e+01
6.250000e+01
6.250000e+01
6.250000e+01
6.250000e+01
6.250000e+01
6.250000e+01
6.250000e+01
6.250000e+01
6.250000e+01
6.250000e+01
6.250000e+01
6.250000e+01
6.250000e+01
6.250000e+01
6.250000e+01
6.250000e+01
6.250000e+01
6.250000e+01
6.875000e+01
6.875000e+01
6.875000e+01
6.875000e+01
6.875000e+01
6.875000e+01
6.875000e+01
6.875000e+01
6.875000e+01
6.875000e+01
6.875000e+01
6.875000e+01
6.875000e+01
6.875000e+01
6.875000e+01
6.875000e+01
6.875000e+01
6.875000e+01
6.875000e+01
6.875000e+01
6.875000e+01
6.875000e+01
6.875000e+01
6.875000e+01
6.875000e+01
6.875000e+01
6.875000e+01
6.875000e+01
6.875000e+01
6.875000e+01
6.875000e+01
6.875000e+01
6.875000e+01
7.500000e+01
7.500000e+01
7.500000e+01
7.500000e+01
7.500000e+01
7.500000e+01
7.500000e+01
7.500000e+01
7.500000e+01
7.500000e+01
7.500000e+01
7.500000e+01
7.500000e+01
7.500000e+01
7.500000e+01
7.500000e+01
7.500000e+01
7.500000e+01
7.500000e+01
7.500000e+01
7.500000e+01
7.500000e+01
7.500000e+01
7.500000e+01
7.500000e+01
7.500000e+01
7.500000e+01
7.500000e+01
7.500000e+01
7.500000e+01
7.500000e+01
7.500000e+01
7.500000e+01
8.125000e+01
8.125000e+01
8.125000e+01
8.125000e+01
8.125000e+01
8.125000e+01
8.125000e+01
8.125000e+01
8.125000e+01
8.125000e+01
8.125000e+01
8.125000e+01
8.125000e+01
8.125000e+01
8.125000e+01
8.125000e+01
8.125000e+01
8.125000e+01
8.125000e+01
8.125000e+01
8.125000e+01
8.125000e+01
8.125000e+01
8.125000e+01
8.125000e+01
8.125000e+01
8.125000e+01
8.125000e+01
8.125000e+01
8.125000e+01
8.125000e+01
8.125000e+01
8.125000e+01
8.750000e+01
8.750000e+01
8.750000e+01
8.750000e+01
8.750000e+01
8.750000e+01
8.750000e+01
8.750000e+01
8.750000e+01
8.750000e+01
8.750000e+01
8.750000e+01
8.750000e+01
8.750000e+01
8.750000e+01
8.750000e+01
8.750000e+01
8.750000e+01
8.750000e+01
8.750000e+01
8.750000e+01
8.750000e+01
8.750000e+01
8.750000e+01
8.750000e+01
8.750000e+01
8.750000e+01
8.750000e+01
8.750000e+01
8.750000e+01
8.750000e+01
8.750000e+01
8.750000e+01
9.375000e+01
9.375000e+01
9.375000e+01
9.375000e+01
9.375000e+01
9.375000e+01
9.375000e+01
9.375000e+01
9.375000e+01
9.375000e+01
9.375000e+01
9.375000e+01
9.375000e+01
9.375000e+01
9.375000e+01
9.375000e+01
9.375000e+01
9.375000e+01
9.375000e+01
9.375000e+01
9.375000e+01
9.375000e+01
9.375000e+01
9.375000e+01
9.375000e+01
9.375000e+01
9.375000e+01
9.375000e+01
9.375000e+01
9.375000e+01
9.375000e+01
9.375000e+01
9.375000e+01
1.000000e+02
1.000000e+02
1.000000e+02
1.000000e+02
1.000000e+02
1.000000e+02
1.000000e+02
1.000000e+02
1.000000e+02
1.000000e+02
1.000000e+02
1.000000e+02
1.000000e+02
1.000000e+02
1.000000e+02
1.000000e+02
1.000000e+02
1.000000e+02
1.000000e+02
1.000000e+02
1.000000e+02
1.000000e+02
1.000000e+02
1.000000e+02
1.000000e+02
1.000000e+02
1.000000e+02
1.000000e+02
1.000000e+02
1.000000e+02
1.000000e+02
1.000000e+02
1.000000e+02
0.000000e+00
-4.705783e-01
-7.812954e-01
-1.120789e+00
-1.422904e+00
-1.715524e+00
-2.026383e+00
-2.314749e+00
-2.614949e+00
-2.908697e+00
-3.206420e+00
-3.504964e+00
-3.803804e+00
-4.104515e+00
-4.404006e+00
-4.706271e+00
-5.007738e+00
-5.310289e+00
-5.612774e+00
-5.914407e+00
-6.216969e+00
-6.518701e+00
-6.820926e+00
-7.119406e+00
-7.413913e+00
-7.718287e+00
-8.018772e+00
-8.348031e+00
-8.668685e+00
-9.023471e+00
-9.509703e+00
-9.926359e+00
-1.013087e+01
0.000000e+00
-2.332828e-01
-4.706801e-01
-7.359561e-01
-1.002065e+00
-1.254962e+00
-1.524684e+00
-1.785060e+00
-2.047489e+00
-2.312614e+00
-2.572830e+00
-2.838087e+00
-3.098517e+00
-3.362196e+00
-3.623859e+00
-3.885801e+00
-4.148317e+00
-4.409218e+00
-4.671673e+00
-4.932378e+00
-5.194204e+00
-5.454760e+00
-5.716257e+00
-5.976353e+00
-6.237854e+00
-6.498552e+00
-6.758415e+00
-7.022178e+00
-7.277080e+00
-7.534790e+00
-7.787484e+00
-7.888085e+00
-7.993883e+00
0.000000e+00
-1.038696e-01
-2.402732e-01
-4.364615e-01
-6.543241e-01
-8.616654e-01
-1.088207e+00
-1.314730e+00
-1.541380e+00
-1.772817e+00
-1.996036e+00
-2.224254e+00
-2.446501e+00
-2.671318e+00
-2.894779e+00
-3.116902e+00
-3.340072e+00
-3.561670e+00
-3.785128e+00
-4.008156e+00
-4.232376e+00
-4.455780e+00
-4.680146e+00
-4.907739e+00
-5.137065e+00
-5.359543e+00
-5.572164e+00
-5.769799e+00
-5.949325e+00
-6.098409e+00
-6.184819e+00
-6.190101e+00
-6.282985e+00
0.000000e+00
-1.024637e-01
-1.862940e-01
-3.398832e-01
-4.627979e-01
-6.185453e-01
-7.953918e-01
-9.649464e-01
-1.156775e+00
-1.334925e+00
-1.520160e+00
-1.703368e+00
-1.886016e+00
-2.071006e+00
-2.255046e+00
-2.440708e+00
-2.626470e+00
-2.814437e+00
-3.004155e+00
-3.195458e+00
-3.388838e+00
-3.581647e+00
-3.775358e+00
-3.968996e+00
-4.154406e+00
-4.328455e+00
-4.478727e+00
-4.611031e+00
-4.712045e+00
-4.775036e+00
-4.789957e+00
-4.807015e+00
-4.887619e+00
0.000000e+00
-9.273734e-02
-1.839809e-01
-2.748903e-01
-3.877135e-01
-5.036123e-01
-6.356695e-01
-7.699015e-01
-9.143071e-01
-1.055966e+00
-1.201583e+00
-1.347584e+00
-1.491552e+00
-1.639916e+00
-1.784731e+00
-1.933373e+00
-2.080800e+00
-2.229802e+00
-2.379630e+00
-2.528648e+00
-2.678246e+00
-2.824649e+00
-2.968426e+00
-3.105478e+00
-3.233510e+00
-3.347529e+00
-3.444596e+00
-3.518735e+00
-3.567208e+00
-3.591286e+00
-3.594252e+00
-3.624131e+00
-3.695866e+00
0.000000e+00
-7.418684e-02
-1.454832e-01
-2.203357e-01
-3.015846e-01
-3.908102e-01
-4.854747e-01
-5.866639e-01
-6.903450e-01
-7.979675e-01
-9.055613e-01
-1.014197e+00
-1.123105e+00
-1.231393e+00
-1.340632e+00
-1.449119e+00
-1.558171e+00
-1.666613e+00
-1.774484e+00
-1.881091e+00
-1.985175e+00
-2.085867e+00
-2.180710e+00
-2.268122e+00
-2.345511e+00
-2.410915e+00
-2.462133e+00
-2.497133e+00
-2.519039e+00
-2.518842e+00
-2.514266e+00
-2.541071e+00
-2.607140e+00
0.000000e+00
-5.112273e-02
-1.017138e-01
-1.534403e-01
-2.087249e-01
-2.679004e-01
-3.311743e-01
-3.975125e-01
-4.666217e-01
-5.372095e-01
-6.087706e-01
-6.804888e-01
-7.520667e-01
-8.234394e-01
-8.943501e-01
-9.649516e-01
-1.034825e+00
-1.103801e+00
-1.171323e+00
-1.236722e+00
-1.299092e+00
-1.357062e+00
-1.409209e+00
-1.453805e+00
-1.489548e+00
-1.514284e+00
-1.527819e+00
-1.532268e+00
-1.515870e+00
-1.486654e+00
-1.475765e+00
-1.499761e+00
-1.564482e+00
0.000000e+00
-2.693688e-02
-5.372763e-02
-8.109097e-02
-1.097350e-01
-1.401179e-01
-1.721391e-01
-2.056346e-01
-2.401630e-01
-2.753769e-01
-3.107624e-01
-3.459860e-01
-3.807705e-01
-4.149408e-01
-4.484300e-01
-4.810722e-01
-5.126658e-01
-5.428411e-01
-5.712364e-01
-5.973636e-01
-6.204868e-01
-6.396646e-01
-6.536722e-01
-6.615779e-01
-6.618333e-01
-6.547406e-01
-6.381076e-01
-5.998191e-01
-5.503584e-01
-4.997538e-01
-4.743048e-01
-4.980521e-01
-5.653625e-01
0.000000e+00
-1.956632e-03
-3.960359e-03
-5.926180e-03
-7.746913e-03
-9.303773e-03
-1.052546e-02
-1.139117e-02
-1.192023e-02
-1.208322e-02
-1.180486e-02
-1.096214e-02
-9.414358e-03
-6.988817e-03
-3.499239e-03
1.188367e-03
7.327636e-03
1.528758e-02
2.519454e-02
3.703304e-02
5.113817e-02
6.811593e-02
8.830120e-02
1.137577e-01
1.447433e-01
1.853024e-01
2.441700e-01
3.156145e-01
3.883674e-01
4.391735e-01
4.546905e-01
4.225285e-01
3.438980e-01
0.000000e+00
2.316734e-02
4.611277e-02
6.970781e-02
9.489373e-02
1.223690e-01
1.522044e-01
1.841837e-01
2.178058e-01
2.526428e-01
2.883250e-01
3.246800e-01
3.617200e-01
3.997763e-01
4.392944e-01
4.806280e-01
5.241878e-01
5.699995e-01
6.179245e-01
6.674206e-01
7.179758e-01
7.699592e-01
8.249263e-01
8.836743e-01
9.514215e-01
1.034551e+00
1.123828e+00
1.214383e+00
1.288276e+00
1.331982e+00
1.329960e+00
1.285352e+00
1.222710e+00
0.000000e+00
4.774148e-02
9.495430e-02
1.434186e-01
1.957917e-01
2.527838e-01
3.146080e-01
3.802574e-01
4.489251e-01
5.193501e-01
5.906903e-01
6.622189e-01
7.338631e-01
8.061929e-01
8.801638e-01
9.572426e-01
1.037908e+00
1.121492e+00
1.206820e+00
1.293802e+00
1.382771e+00
1.472746e+00
1.565250e+00
1.667073e+00
1.775538e+00
1.886458e+00
1.995843e+00
2.085459e+00
2.149731e+00
2.176800e+00
2.169476e+00
2.139383e+00
2.095292e+00
0.000000e+00
7.125292e-02
1.398230e-01
2.123385e-01
2.917581e-01
3.800675e-01
4.750318e-01
5.763970e-01
6.811758e-01
7.891043e-01
8.977365e-01
1.006888e+00
1.116057e+00
1.225371e+00
1.335666e+00
1.446904e+00
1.561362e+00
1.678378e+00
1.797523e+00
1.919806e+00
2.047909e+00
2.184016e+00
2.325961e+00
2.467978e+00
2.605618e+00
2.734327e+00
2.846479e+00
2.936016e+00
2.992223e+00
3.020611e+00
3.024134e+00
3.006126e+00
2.978506e+00
0.000000e+00
9.003516e-02
1.787349e-01
2.684922e-01
3.818786e-01
5.005766e-01
6.332580e-01
7.713497e-01
9.151362e-01
1.059739e+00
1.206340e+00
1.353724e+00
1.501395e+00
1.652917e+00
1.804256e+00
1.959409e+00
2.115981e+00
2.276430e+00
2.440919e+00
2.607092e+00
2.775983e+00
2.947140e+00
3.116870e+00
3.281218e+00
3.434826e+00
3.575320e+00
3.695346e+00
3.786925e+00
3.853856e+00
3.893236e+00
3.906288e+00
3.899788e+00
3.885261e+00
0.000000e+00
9.895156e-02
1.802154e-01
3.314550e-01
4.577051e-01
6.201224e-01
8.024014e-01
9.731478e-01
1.166538e+00
1.345064e+00
1.529660e+00
1.710753e+00
1.893974e+00
2.083650e+00
2.277900e+00
2.478386e+00
2.681314e+00
2.887106e+00
3.097211e+00
3.310098e+00
3.520526e+00
3.724838e+00
3.920664e+00
4.104950e+00
4.279622e+00
4.437459e+00
4.572755e+00
4.679667e+00
4.756325e+00
4.804252e+00
4.826542e+00
4.829390e+00
4.824651e+00
0.000000e+00
1.017478e-01
2.340589e-01
4.230390e-01
6.392660e-01
8.480497e-01
1.079070e+00
1.309396e+00
1.538780e+00
1.773499e+00
1.998157e+00
2.224968e+00
2.447191e+00
2.673451e+00
2.902336e+00
3.133687e+00
3.366338e+00
3.597061e+00
3.828916e+00
4.061524e+00
4.295513e+00
4.524332e+00
4.745437e+00
4.966444e+00
5.176447e+00
5.362257e+00
5.512031e+00
5.627007e+00
5.709622e+00
5.762594e+00
5.790359e+00
5.799443e+00
5.800563e+00
0.000000e+00
2.337082e-01
4.719506e-01
7.366010e-01
1.002140e+00
1.254550e+00
1.523534e+00
1.784051e+00
2.046035e+00
2.310583e+00
2.570501e+00
2.834552e+00
3.094216e+00
3.356019e+00
3.615988e+00
3.875796e+00
4.135606e+00
4.393069e+00
4.650743e+00
4.904952e+00
5.160242e+00
5.413740e+00
5.667208e+00
5.925138e+00
6.167502e+00
6.368132e+00
6.525802e+00
6.642851e+00
6.723230e+00
6.772533e+00
6.797723e+00
6.806847e+00
6.809091e+00
0.000000e+00
4.718448e-01
7.880265e-01
1.132643e+00
1.437878e+00
1.729359e+00
2.037629e+00
2.322975e+00
2.620675e+00
2.911248e+00
3.206701e+00
3.505267e+00
3.802539e+00
4.100193e+00
4.392732e+00
4.683541e+00
4.972484e+00
5.262059e+00
5.552094e+00
5.840395e+00
6.127110e+00
6.416301e+00
6.707048e+00
6.999621e+00
7.263560e+00
7.474383e+00
7.632811e+00
7.741936e+00
7.806958e+00
7.836130e+00
7.841209e+00
7.836563e+00
7.834000e+00
0.000000e+00
-2.786922e-01
-5.877913e-01
-9.826675e-01
-1.413325e+00
-1.881742e+00
-2.390599e+00
-2.930163e+00
-3.505775e+00
-4.113228e+00
-4.755021e+00
-5.432900e+00
-6.146661e+00
-6.898833e+00
-7.687898e+00
-8.515952e+00
-9.382571e+00
-1.028860e+01
-1.123429e+01
-1.221921e+01
-1.324394e+01
-1.430863e+01
-1.541429e+01
-1.656016e+01
-1.774421e+01
-1.896765e+01
-2.023485e+01
-2.155545e+01
-2.293692e+01
-2.439924e+01
-2.595940e+01
-2.776762e+01
-3.030669e+01
0.000000e+00
-1.796909e-01
-5.073735e-01
-8.949166e-01
-1.332212e+00
-1.797349e+00
-2.306132e+00
-2.847574e+00
-3.421511e+00
-4.030088e+00
-4.670811e+00
-5.349179e+00
-6.062586e+00
-6.814834e+00
-7.604023e+00
-8.431710e+00
-9.298619e+00
-1.020437e+01
-1.115027e+01
-1.213513e+01
-1.315987e+01
-1.422432e+01
-1.533008e+01
-1.647648e+01
-1.766046e+01
-1.888344e+01
-2.014912e+01
-2.146816e+01
-2.285068e+01
-2.430443e+01
-2.588400e+01
-2.767915e+01
-2.993116e+01
0.000000e+00
-1.583999e-01
-4.485732e-01
-8.383247e-01
-1.265516e+00
-1.728425e+00
-2.235381e+00
-2.774741e+00
-3.349747e+00
-3.957337e+00
-4.598887e+00
-5.277362e+00
-5.991207e+00
-6.743438e+00
-7.533205e+00
-8.360924e+00
-9.227989e+00
-1.013381e+01
-1.107948e+01
-1.206435e+01
-1.308908e+01
-1.415307e+01
-1.525776e+01
-1.640335e+01
-1.758818e+01
-1.881381e+01
-2.008143e+01
-2.140543e+01
-2.279194e+01
-2.426615e+01
-2.588832e+01
-2.757340e+01
-2.932241e+01
0.000000e+00
-2.029489e-01
-4.485347e-01
-8.341753e-01
-1.230217e+00
-1.682705e+00
-2.188034e+00
-2.715254e+00
-3.295724e+00
-3.898120e+00
-4.542007e+00
-5.220707e+00
-5.933754e+00
-6.687738e+00
-7.476330e+00
-8.305489e+00
-9.171731e+00
-1.007769e+01
-1.102316e+01
-1.200731e+01
-1.303267e+01
-1.409589e+01
-1.519980e+01
-1.634537e+01
-1.753220e+01
-1.876375e+01
-2.003745e+01
-2.136867e+01
-2.276415e+01
-2.425738e+01
-2.587265e+01
-2.742243e+01
-2.882194e+01
0.000000e+00
-2.193944e-01
-4.865562e-01
-8.301332e-01
-1.228084e+00
-1.663084e+00
-2.158959e+00
-2.680636e+00
-3.256048e+00
-3.858319e+00
-4.500920e+00
-5.181183e+00
-5.893285e+00
-6.649071e+00
-7.436803e+00
-8.266861e+00
-9.132851e+00
-1.003850e+01
-1.098413e+01
-1.196782e+01
-1.299354e+01
-1.405709e+01
-1.516215e+01
-1.630888e+01
-1.749913e+01
-1.873398e+01
-2.001552e+01
-2.135065e+01
-2.274859e+01
-2.423676e+01
-2.577321e+01
-2.722117e+01
-2.848653e+01
0.000000e+00
-2.264383e-01
-5.028274e-01
-8.360244e-01
-1.222216e+00
-1.656224e+00
-2.137570e+00
-2.661193e+00
-3.227058e+00
-3.831171e+00
-4.472524e+00
-5.151766e+00
-5.867069e+00
-6.620500e+00
-7.411140e+00
-8.239871e+00
-9.107124e+00
-1.001314e+01
-1.095892e+01
-1.194438e+01
-1.297033e+01
-1.403655e+01
-1.514382e+01
-1.629327e+01
-1.748587e+01
-1.872258e+01
-2.000645e+01
-2.134129e+01
-2.272807e+01
-2.417623e+01
-2.561808e+01
-2.698611e+01
-2.818907e+01
0.000000e+00
-2.301433e-01
-5.090009e-01
-8.392530e-01
-1.220393e+00
-1.650304e+00
-2.126854e+00
-2.647654e+00
-3.210630e+00
-3.813557e+00
-4.455064e+00
-5.134222e+00
-5.850715e+00
-6.604535e+00
-7.395909e+00
-8.225278e+00
-9.093157e+00
-1.000022e+01
-1.094703e+01
-1.193415e+01
-1.296196e+01
-1.403074e+01
-1.514085e+01
-1.629267e+01
-1.748688e+01
-1.872379e+01
-2.000368e+01
-2.133473e+01
-2.269013e+01
-2.408694e+01
-2.546254e+01
-2.676246e+01
-2.790345e+01
0.000000e+00
-2.315387e-01
-5.113146e-01
-8.407214e-01
-1.219864e+00
-1.647604e+00
-2.122161e+00
-2.641462e+00
-3.203420e+00
-3.806102e+00
-4.447929e+00
-5.127842e+00
-5.845214e+00
-6.599882e+00
-7.392001e+00
-8.222083e+00
-9.090841e+00
-9.998966e+00
-1.094710e+01
-1.193585e+01
-1.296571e+01
-1.403691e+01
-1.514929e+01
-1.630285e+01
-1.749689e+01
-1.873331e+01
-2.000532e+01
-2.131711e+01
-2.263835e+01
-2.398222e+01
-2.531026e+01
-2.655209e+01
-2.763708e+01
0.000000e+00
-2.318238e-01
-5.119021e-01
-8.413364e-01
-1.220323e+00
-1.647966e+00
-2.122593e+00
-2.642173e+00
-3.204650e+00
-3.808125e+00
-4.450997e+00
-5.132053e+00
-5.850560e+00
-6.606221e+00
-7.399143e+00
-8.229926e+00
-9.099586e+00
-1.000884e+01
-1.095812e+01
-1.194811e+01
-1.297959e+01
-1.405242e+01
-1.516622e+01
-1.631999e+01
-1.751371e+01
-1.874466e+01
-2.000209e+01
-2.128504e+01
-2.258177e+01
-2.387518e+01
-2.514421e+01
-2.631124e+01
-2.730529e+01
0.000000e+00
-2.313639e-01
-5.113473e-01
-8.414227e-01
-1.221802e+00
-1.651330e+00
-2.128034e+00
-2.649661e+00
-3.214063e+00
-3.819359e+00
-4.463934e+00
-5.146505e+00
-5.866306e+00
-6.623129e+00
-7.416958e+00
-8.248327e+00
-9.119019e+00
-1.002953e+01
-1.097968e+01
-1.196996e+01
-1.300221e+01
-1.407572e+01
-1.518813e+01
-1.634337e+01
-1.752978e+01
-1.874910e+01
-1.998949e+01
-2.124964e+01
-2.251717e+01
-2.377331e+01
-2.497817e+01
-2.607926e+01
-2.703841e+01
0.000000e+00
-2.298697e-01
-5.091225e-01
-8.406575e-01
-1.224326e+00
-1.657945e+00
-2.138894e+00
-2.664307e+00
-3.231961e+00
-3.839892e+00
-4.486618e+00
-5.170746e+00
-5.891697e+00
-6.649795e+00
-7.444614e+00
-8.276987e+00
-9.149038e+00
-1.006098e+01
-1.101174e+01
-1.200131e+01
-1.303259e+01
-1.410431e+01
-1.521476e+01
-1.636358e+01
-1.754095e+01
-1.874543e+01
-1.997450e+01
-2.121303e+01
-2.245453e+01
-2.367021e+01
-2.482930e+01
-2.589816e+01
-2.684629e+01
0.000000e+00
-2.261632e-01
-5.031667e-01
-8.381696e-01
-1.228177e+00
-1.668416e+00
-2.156301e+00
-2.686983e+00
-3.259280e+00
-3.870411e+00
-4.519196e+00
-5.204748e+00
-5.926101e+00
-6.685181e+00
-7.481097e+00
-8.315327e+00
-9.189336e+00
-1.010212e+01
-1.105287e+01
-1.204120e+01
-1.306873e+01
-1.413610e+01
-1.524066e+01
-1.637991e+01
-1.754793e+01
-1.874294e+01
-1.996012e+01
-2.118561e+01
-2.240012e+01
-2.358627e+01
-2.471607e+01
-2.576885e+01
-2.672080e+01
0.000000e+00
-2.189825e-01
-4.871437e-01
-8.333333e-01
-1.236149e+00
-1.681624e+00
-2.184439e+00
-2.717436e+00
-3.298317e+00
-3.910834e+00
-4.561806e+00
-5.248784e+00
-5.969268e+00
-6.730848e+00
-7.527101e+00
-8.364691e+00
-9.239581e+00
-1.015150e+01
-1.110058e+01
-1.208558e+01
-1.310871e+01
-1.416977e+01
-1.526639e+01
-1.639653e+01
-1.755752e+01
-1.874858e+01
-1.995970e+01
-2.117041e+01
-2.236506e+01
-2.352602e+01
-2.463717e+01
-2.568296e+01
-2.664956e+01
0.000000e+00
-2.016121e-01
-4.487853e-01
-8.381931e-01
-1.242619e+00
-1.706882e+00
-2.223517e+00
-2.760130e+00
-3.349067e+00
-3.960950e+00
-4.613617e+00
-5.299882e+00
-6.022496e+00
-6.785724e+00
-7.585248e+00
-8.424465e+00
-9.299099e+00
-1.020921e+01
-1.115512e+01
-1.213634e+01
-1.315413e+01
-1.420779e+01
-1.529578e+01
-1.641909e+01
-1.758100e+01
-1.877182e+01
-1.997597e+01
-2.117131e+01
-2.234726e+01
-2.348984e+01
-2.458748e+01
-2.563186e+01
-2.661875e+01
0.000000e+00
-1.555646e-01
-4.468580e-01
-8.414416e-01
-1.279826e+00
-1.755686e+00
-2.275300e+00
-2.824313e+00
-3.408609e+00
-4.024468e+00
-4.673742e+00
-5.360362e+00
-6.084590e+00
-6.848950e+00
-7.651314e+00
-8.490145e+00
-9.364365e+00
-1.027274e+01
-1.121691e+01
-1.219537e+01
-1.320858e+01
-1.425593e+01
-1.533690e+01
-1.646125e+01
-1.762522e+01
-1.881304e+01
-2.000361e+01
-2.118522e+01
-2.234577e+01
-2.347415e+01
-2.456182e+01
-2.560625e+01
-2.661355e+01
0.000000e+00
-1.763677e-01
-5.047999e-01
-8.981346e-01
-1.347053e+00
-1.825861e+00
-2.347061e+00
-2.898963e+00
-3.481832e+00
-4.098537e+00
-4.746266e+00
-5.432906e+00
-6.157174e+00
-6.922207e+00
-7.724867e+00
-8.563438e+00
-9.436617e+00
-1.034371e+01
-1.128675e+01
-1.226385e+01
-1.327525e+01
-1.431958e+01
-1.540101e+01
-1.652617e+01
-1.768659e+01
-1.886230e+01
-2.003981e+01
-2.120831e+01
-2.235634e+01
-2.347360e+01
-2.455350e+01
-2.559703e+01
-2.661825e+01
0.000000e+00
-2.761293e-01
-5.862522e-01
-9.866700e-01
-1.428402e+00
-1.909916e+00
-2.431157e+00
-2.981297e+00
-3.565844e+00
-4.181292e+00
-4.830326e+00
-5.516657e+00
-6.240971e+00
-7.005590e+00
-7.807417e+00
-8.645635e+00
-9.518045e+00
-1.042498e+01
-1.136713e+01
-1.234380e+01
-1.335466e+01
-1.439937e+01