TITLE = "Solution"
VARIABLES = x, y, u, v, psiu, psiv, t, stress
ZONE T="structure" N=561 E=512 F=FEBLOCK ET=QUADRILATERAL VARLOCATION=([7,8]=cellcentered)
0.000000e+00
6.250000e+00
1.250000e+01
1.875000e+01
2.500000e+01
3.125000e+01
3.750000e+01
4.375000e+01
5.000000e+01
5.625000e+01
6.250000e+01
6.875000e+01
7.500000e+01
8.125000e+01
8.750000e+01
9.375000e+01
1.000000e+02
1.062500e+02
1.125000e+02
1.187500e+02
1.250000e+02
1.312500e+02
1.375000e+02
1.437500e+02
1.500000e+02
1.562500e+02
1.625000e+02
1.687500e+02
1.750000e+02
1.812500e+02
1.875000e+02
1.937500e+02
2.000000e+02
0.000000e+00
6.250000e+00
1.250000e+01
1.875000e+01
2.500000e+01
3.125000e+01
3.750000e+01
4.375000e+01
5.000000e+01
5.625000e+01
6.250000e+01
6.875000e+01
7.500000e+01
8.125000e+01
8.750000e+01
9.375000e+01
1.000000e+02
1.062500e+02
1.125000e+02
1.187500e+02
1.250000e+02
1.312500e+02
1.375000e+02
1.437500e+02
1.500000e+02
1.562500e+02
1.625000e+02
1.687500e+02
1.750000e+02
1.812500e+02
1.875000e+02
1.937500e+02
2.000000e+02
0.000000e+00
6.250000e+00
1.250000e+01
1.875000e+01
2.500000e+01
3.125000e+01
3.750000e+01
4.375000e+01
5.000000e+01
5.625000e+01
6.250000e+01
6.875000e+01
7.500000e+01
8.125000e+01
8.750000e+01
9.375000e+01
1.000000e+02
1.062500e+02
1.125000e+02
1.187500e+02
1.250000e+02
1.312500e+02
1.375000e+02
1.437500e+02
1.500000e+02
1.562500e+02
1.625000e+02
1.687500e+02
1.750000e+02
1.812500e+02
1.875000e+02
1.937500e+02
2.000000e+02
0.000000e+00
6.250000e+00
1.250000e+01
1.875000e+01
2.500000e+01
3.125000e+01
3.750000e+01
4.375000e+01
5.000000e+01
5.625000e+01
6.250000e+01
6.875000e+01
7.500000e+01
8.125000e+01
8.750000e+01
9.375000e+01
1.000000e+02
1.062500e+02
1.125000e+02
1.187500e+02
1.250000e+02
1.312500e+02
1.375000e+02
1.437500e+02
1.500000e+02
1.562500e+02
1.625000e+02
1.687500e+02
1.750000e+02
1.812500e+02
1.875000e+02
1.937500e+02
2.000000e+02
0.000000e+00
6.250000e+00
1.250000e+01
1.875000e+01
2.500000e+01
3.125000e+01
3.750000e+01
4.375000e+01
5.000000e+01
5.625000e+01
6.250000e+01
6.875000e+01
7.500000e+01
8.125000e+01
8.750000e+01
9.375000e+01
1.000000e+02
1.062500e+02
1.125000e+02
1.187500e+02
1.250000e+02
1.312500e+02
1.375000e+02
1.437500e+02
1.500000e+02
1.562500e+02
1.625000e+02
1.687500e+02
1.750000e+02
1.812500e+02
1.875000e+02
1.937500e+02
2.000000e+02
0.000000e+00
6.250000e+00
1.250000e+01
1.875000e+01
2.500000e+01
3.125000e+01
3.750000e+01
4.375000e+01
5.000000e+01
5.625000e+01
6.250000e+01
6.875000e+01
7.500000e+01
8.125000e+01
8.750000e+01
9.375000e+01
1.000000e+02
1.062500e+02
1.125000e+02
1.187500e+02
1.250000e+02
1.312500e+02
1.375000e+02
1.437500e+02
1.500000e+02
1.562500e+02
1.625000e+02
1.687500e+02
1.750000e+02
1.812500e+02
1.875000e+02
1.937500e+02
2.000000e+02
0.000000e+00
6.250000e+00
1.250000e+01
1.875000e+01
2.500000e+01
3.125000e+01
3.750000e+01
4.375000e+01
5.000000e+01
5.625000e+01
6.250000e+01
6.875000e+01
7.500000e+01
8.125000e+01
8.750000e+01
9.375000e+01
1.000000e+02
1.062500e+02
1.125000e+02
1.187500e+02
1.250000e+02
1.312500e+02
1.375000e+02
1.437500e+02
1.500000e+02
1.562500e+02
1.625000e+02
1.687500e+02
1.750000e+02
1.812500e+02
1.875000e+02
1.937500e+02
2.000000e+02
0.000000e+00
6.250000e+00
1.250000e+01
1.875000e+01
2.500000e+01
3.125000e+01
3.750000e+01
4.375000e+01
5.000000e+01
5.625000e+01
6.250000e+01
6.875000e+01
7.500000e+01
8.125000e+01
8.750000e+01
9.375000e+01
1.000000e+02
1.062500e+02
1.125000e+02
1.187500e+02
1.250000e+02
1.312500e+02
1.375000e+02
1.437500e+02
1.500000e+02
1.562500e+02
1.625000e+02
1.687500e+02
1.750000e+02
1.812500e+02
1.875000e+02
1.937500e+02
2.000000e+02
0.000000e+00
6.250000e+00
1.250000e+01
1.875000e+01
2.500000e+01
3.125000e+01
3.750000e+01
4.375000e+01
5.000000e+01
5.625000e+01
6.250000e+01
6.875000e+01
7.500000e+01
8.125000e+01
8.750000e+01
9.375000e+01
1.000000e+02
1.062500e+02
1.125000e+02
1.187500e+02
1.250000e+02
1.312500e+02
1.375000e+02
1.437500e+02
1.500000e+02
1.562500e+02
1.625000e+02
1.687500e+02
1.750000e+02
1.812500e+02
1.875000e+02
1.937500e+02
2.000000e+02
0.000000e+00
6.250000e+00
1.250000e+01
1.875000e+01
2.500000e+01
3.125000e+01
3.750000e+01
4.375000e+01
5.000000e+01
5.625000e+01
6.250000e+01
6.875000e+01
7.500000e+01
8.125000e+01
8.750000e+01
9.375000e+01
1.000000e+02
1.062500e+02
1.125000e+02
1.187500e+02
1.250000e+02
1.312500e+02
1.375000e+02
1.437500e+02
1.500000e+02
1.562500e+02
1.625000e+02
1.687500e+02
1.750000e+02
1.812500e+02
1.875000e+02
1.937500e+02
2.000000e+02
0.000000e+00
6.250000e+00
1.250000e+01
1.875000e+01
2.500000e+01
3.125000e+01
3.750000e+01
4.375000e+01
5.000000e+01
5.625000e+01
6.250000e+01
6.875000e+01
7.500000e+01
8.125000e+01
8.750000e+01
9.375000e+01
1.000000e+02
1.062500e+02
1.125000e+02
1.187500e+02
1.250000e+02
1.312500e+02
1.375000e+02
1.437500e+02
1.500000e+02
1.562500e+02
1.625000e+02
1.687500e+02
1.750000e+02
1.812500e+02
1.875000e+02
1.937500e+02
2.000000e+02
0.000000e+00
6.250000e+00
1.250000e+01
1.875000e+01
2.500000e+01
3.125000e+01
3.750000e+01
4.375000e+01
5.000000e+01
5.625000e+01
6.250000e+01
6.875000e+01
7.500000e+01
8.125000e+01
8.750000e+01
9.375000e+01
1.000000e+02
1.062500e+02
1.125000e+02
1.187500e+02
1.250000e+02
1.312500e+02
1.375000e+02
1.437500e+02
1.500000e+02
1.562500e+02
1.625000e+02
1.687500e+02
1.750000e+02
1.812500e+02
1.875000e+02
1.937500e+02
2.000000e+02
0.000000e+00
6.250000e+00
1.250000e+01
1.875000e+01
2.500000e+01
3.125000e+01
3.750000e+01
4.375000e+01
5.000000e+01
5.625000e+01
6.250000e+01
6.875000e+01
7.500000e+01
8.125000e+01
8.750000e+01
9.375000e+01
1.000000e+02
1.062500e+02
1.125000e+02
1.187500e+02
1.250000e+02
1.312500e+02
1.375000e+02
1.437500e+02
1.500000e+02
1.562500e+02
1.625000e+02
1.687500e+02
1.750000e+02
1.812500e+02
1.875000e+02
1.937500e+02
2.000000e+02
0.000000e+00
6.250000e+00
1.250000e+01
1.875000e+01
2.500000e+01
3.125000e+01
3.750000e+01
4.375000e+01
5.000000e+01
5.625000e+01
6.250000e+01
6.875000e+01
7.500000e+01
8.125000e+01
8.750000e+01
9.375000e+01
1.000000e+02
1.062500e+02
1.125000e+02
1.187500e+02
1.250000e+02
1.312500e+02
1.375000e+02
1.437500e+02
1.500000e+02
1.562500e+02
1.625000e+02
1.687500e+02
1.750000e+02
1.812500e+02
1.875000e+02
1.937500e+02
2.000000e+02
0.000000e+00
6.250000e+00
1.250000e+01
1.875000e+01
2.500000e+01
3.125000e+01
3.750000e+01
4.375000e+01
5.000000e+01
5.625000e+01
6.250000e+01
6.875000e+01
7.500000e+01
8.125000e+01
8.750000e+01
9.375000e+01
1.000000e+02
1.062500e+02
1.125000e+02
1.187500e+02
1.250000e+02
1.312500e+02
1.375000e+02
1.437500e+02
1.500000e+02
1.562500e+02
1.625000e+02
1.687500e+02
1.750000e+02
1.812500e+02
1.875000e+02
1.937500e+02
2.000000e+02
0.000000e+00
6.250000e+00
1.250000e+01
1.875000e+01
2.500000e+01
3.125000e+01
3.750000e+01
4.375000e+01
5.000000e+01
5.625000e+01
6.250000e+01
6.875000e+01
7.500000e+01
8.125000e+01
8.750000e+01
9.375000e+01
1.000000e+02
1.062500e+02
1.125000e+02
1.187500e+02
1.250000e+02
1.312500e+02
1.375000e+02
1.437500e+02
1.500000e+02
1.562500e+02
1.625000e+02
1.687500e+02
1.750000e+02
1.812500e+02
1.875000e+02
1.937500e+02
2.000000e+02
0.000000e+00
6.250000e+00
1.250000e+01
1.875000e+01
2.500000e+01
3.125000e+01
3.750000e+01
4.375000e+01
5.000000e+01
5.625000e+01
6.250000e+01
6.875000e+01
7.500000e+01
8.125000e+01
8.750000e+01
9.375000e+01
1.000000e+02
1.062500e+02
1.125000e+02
1.187500e+02
1.250000e+02
1.312500e+02
1.375000e+02
1.437500e+02
1.500000e+02
1.562500e+02
1.625000e+02
1.687500e+02
1.750000e+02
1.812500e+02
1.875000e+02
1.937500e+02
2.000000e+02
0.000000e+00
0.000000e+00
0.000000e+00
0.000000e+00
0.000000e+00
0.000000e+00
0.000000e+00
0.000000e+00
0.000000e+00
0.000000e+00
0.000000e+00
0.000000e+00
0.000000e+00
0.000000e+00
0.000000e+00
0.000000e+00
0.000000e+00
0.000000e+00
0.000000e+00
0.000000e+00
0.000000e+00
0.000000e+00
0.000000e+00
0.000000e+00
0.000000e+00
0.000000e+00
0.000000e+00
0.000000e+00
0.000000e+00
0.000000e+00
0.000000e+00
0.000000e+00
0.000000e+00
6.250000e+00
6.250000e+00
6.250000e+00
6.250000e+00
6.250000e+00
6.250000e+00
6.250000e+00
6.250000e+00
6.250000e+00
6.250000e+00
6.250000e+00
6.250000e+00
6.250000e+00
6.250000e+00
6.250000e+00
6.250000e+00
6.250000e+00
6.250000e+00
6.250000e+00
6.250000e+00
6.250000e+00
6.250000e+00
6.250000e+00
6.250000e+00
6.250000e+00
6.250000e+00
6.250000e+00
6.250000e+00
6.250000e+00
6.250000e+00
6.250000e+00
6.250000e+00
6.250000e+00
1.250000e+01
1.250000e+01
1.250000e+01
1.250000e+01
1.250000e+01
1.250000e+01
1.250000e+01
1.250000e+01
1.250000e+01
1.250000e+01
1.250000e+01
1.250000e+01
1.250000e+01
1.250000e+01
1.250000e+01
1.250000e+01
1.250000e+01
1.250000e+01
1.250000e+01
1.250000e+01
1.250000e+01
1.250000e+01
1.250000e+01
1.250000e+01
1.250000e+01
1.250000e+01
1.250000e+01
1.250000e+01
1.250000e+01
1.250000e+01
1.250000e+01
1.250000e+01
1.250000e+01
1.875000e+01
1.875000e+01
1.875000e+01
1.875000e+01
1.875000e+01
1.875000e+01
1.875000e+01
1.875000e+01
1.875000e+01
1.875000e+01
1.875000e+01
1.875000e+01
1.875000e+01
1.875000e+01
1.875000e+01
1.875000e+01
1.875000e+01
1.875000e+01
1.875000e+01
1.875000e+01
1.875000e+01
1.875000e+01
1.875000e+01
1.875000e+01
1.875000e+01
1.875000e+01
1.875000e+01
1.875000e+01
1.875000e+01
1.875000e+01
1.875000e+01
1.875000e+01
1.875000e+01
2.500000e+01
2.500000e+01
2.500000e+01
2.500000e+01
2.500000e+01
2.500000e+01
2.500000e+01
2.500000e+01
2.500000e+01
2.500000e+01
2.500000e+01
2.500000e+01
2.500000e+01
2.500000e+01
2.500000e+01
2.500000e+01
2.500000e+01
2.500000e+01
2.500000e+01
2.500000e+01
2.500000e+01
2.500000e+01
2.500000e+01
2.500000e+01
2.500000e+01
2.500000e+01
2.500000e+01
2.500000e+01
2.500000e+01
2.500000e+01
2.500000e+01
2.500000e+01
2.500000e+01
3.125000e+01
3.125000e+01
3.125000e+01
3.125000e+01
3.125000e+01
3.125000e+01
3.125000e+01
3.125000e+01
3.125000e+01
3.125000e+01
3.125000e+01
3.125000e+01
3.125000e+01
3.125000e+01
3.125000e+01
3.125000e+01
3.125000e+01
3.125000e+01
3.125000e+01
3.125000e+01
3.125000e+01
3.125000e+01
3.125000e+01
3.125000e+01
3.125000e+01
3.125000e+01
3.125000e+01
3.125000e+01
3.125000e+01
3.125000e+01
3.125000e+01
3.125000e+01
3.125000e+01
3.750000e+01
3.750000e+01
3.750000e+01
3.750000e+01
3.750000e+01
3.750000e+01
3.750000e+01
3.750000e+01
3.750000e+01
3.750000e+01
3.750000e+01
3.750000e+01
3.750000e+01
3.750000e+01
3.750000e+01
3.750000e+01
3.750000e+01
3.750000e+01
3.750000e+01
3.750000e+01
3.750000e+01
3.750000e+01
3.750000e+01
3.750000e+01
3.750000e+01
3.750000e+01
3.750000e+01
3.750000e+01
3.750000e+01
3.750000e+01
3.750000e+01
3.750000e+01
3.750000e+01
4.375000e+01
4.375000e+01
4.375000e+01
4.375000e+01
4.375000e+01
4.375000e+01
4.375000e+01
4.375000e+01
4.375000e+01
4.375000e+01
4.375000e+01
4.375000e+01
4.375000e+01
4.375000e+01
4.375000e+01
4.375000e+01
4.375000e+01
4.375000e+01
4.375000e+01
4.375000e+01
4.375000e+01
4.375000e+01
4.375000e+01
4.375000e+01
4.375000e+01
4.375000e+01
4.375000e+01
4.375000e+01
4.375000e+01
4.375000e+01
4.375000e+01
4.375000e+01
4.375000e+01
5.000000e+01
5.000000e+01
5.000000e+01
5.000000e+01
5.000000e+01
5.000000e+01
5.000000e+01
5.000000e+01
5.000000e+01
5.000000e+01
5.000000e+01
5.000000e+01
5.000000e+01
5.000000e+01
5.000000e+01
5.000000e+01
5.000000e+01
5.000000e+01
5.000000e+01
5.000000e+01
5.000000e+01
5.000000e+01
5.000000e+01
5.000000e+01
5.000000e+01
5.000000e+01
5.000000e+01
5.000000e+01
5.000000e+01
5.000000e+01
5.000000e+01
5.000000e+01
5.000000e+01
5.625000e+01
5.625000e+01
5.625000e+01
5.625000e+01
5.625000e+01
5.625000e+01
5.625000e+01
5.625000e+01
5.625000e+01
5.625000e+01
5.625000e+01
5.625000e+01
5.625000e+01
5.625000e+01
5.625000e+01
5.625000e+01
5.625000e+01
5.625000e+01
5.625000e+01
5.625000e+01
5.625000e+01
5.625000e+01
5.625000e+01
5.625000e+01
5.625000e+01
5.625000e+01
5.625000e+01
5.625000e+01
5.625000e+01
5.625000e+01
5.625000e+01
5.625000e+01
5.625000e+01
6.250000e+01
6.250000e+01
6.250000e+01
6.250000e+01
6.250000e+01
6.250000e+01
6.250000e+01
6.250000e+01
6.250000e+01
6.250000e+01
6.250000e+01
6.250000e+01
6.250000e+01
6.250000e+01
6.250000e+01
6.250000e+01
6.250000e+01
6.250000e+01
6.250000e+01
6.250000e+01
6.250000e+01
6.250000e+01
6.250000e+01
6.250000e+01
6.250000e+01
6.250000e+01
6.250000e+01
6.250000e+01
6.250000e+01
6.250000e+01
6.250000e+01
6.250000e+01
6.250000e+01
6.875000e+01
6.875000e+01
6.875000e+01
6.875000e+01
6.875000e+01
6.875000e+01
6.875000e+01
6.875000e+01
6.875000e+01
6.875000e+01
6.875000e+01
6.875000e+01
6.875000e+01
6.875000e+01
6.875000e+01
6.875000e+01
6.875000e+01
6.875000e+01
6.875000e+01
6.875000e+01
6.875000e+01
6.875000e+01
6.875000e+01
6.875000e+01
6.875000e+01
6.875000e+01
6.875000e+01
6.875000e+01
6.875000e+01
6.875000e+01
6.875000e+01
6.875000e+01
6.875000e+01
7.500000e+01
7.500000e+01
7.500000e+01
7.500000e+01
7.500000e+01
7.500000e+01
7.500000e+01
7.500000e+01
7.500000e+01
7.500000e+01
7.500000e+01
7.500000e+01
7.500000e+01
7.500000e+01
7.500000e+01
7.500000e+01
7.500000e+01
7.500000e+01
7.500000e+01
7.500000e+01
7.500000e+01
7.500000e+01
7.500000e+01
7.500000e+01
7.500000e+01
7.500000e+01
7.500000e+01
7.500000e+01
7.500000e+01
7.500000e+01
7.500000e+01
7.500000e+01
7.500000e+01
8.125000e+01
8.125000e+01
8.125000e+01
8.125000e+01
8.125000e+01
8.125000e+01
8.125000e+01
8.125000e+01
8.125000e+01
8.125000e+01
8.125000e+01
8.125000e+01
8.125000e+01
8.125000e+01
8.125000e+01
8.125000e+01
8.125000e+01
8.125000e+01
8.125000e+01
8.125000e+01
8.125000e+01
8.125000e+01
8.125000e+01
8.125000e+01
8.125000e+01
8.125000e+01
8.125000e+01
8.125000e+01
8.125000e+01
8.125000e+01
8.125000e+01
8.125000e+01
8.125000e+01
8.750000e+01
8.750000e+01
8.750000e+01
8.750000e+01
8.750000e+01
8.750000e+01
8.750000e+01
8.750000e+01
8.750000e+01
8.750000e+01
8.750000e+01
8.750000e+01
8.750000e+01
8.750000e+01
8.750000e+01
8.750000e+01
8.750000e+01
8.750000e+01
8.750000e+01
8.750000e+01
8.750000e+01
8.750000e+01
8.750000e+01
8.750000e+01
8.750000e+01
8.750000e+01
8.750000e+01
8.750000e+01
8.750000e+01
8.750000e+01
8.750000e+01
8.750000e+01
8.750000e+01
9.375000e+01
9.375000e+01
9.375000e+01
9.375000e+01
9.375000e+01
9.375000e+01
9.375000e+01
9.375000e+01
9.375000e+01
9.375000e+01
9.375000e+01
9.375000e+01
9.375000e+01
9.375000e+01
9.375000e+01
9.375000e+01
9.375000e+01
9.375000e+01
9.375000e+01
9.375000e+01
9.375000e+01
9.375000e+01
9.375000e+01
9.375000e+01
9.375000e+01
9.375000e+01
9.375000e+01
9.375000e+01
9.375000e+01
9.375000e+01
9.375000e+01
9.375000e+01
9.375000e+01
1.000000e+02
1.000000e+02
1.000000e+02
1.000000e+02
1.000000e+02
1.000000e+02
1.000000e+02
1.000000e+02
1.000000e+02
1.000000e+02
1.000000e+02
1.000000e+02
1.000000e+02
1.000000e+02
1.000000e+02
1.000000e+02
1.000000e+02
1.000000e+02
1.000000e+02
1.000000e+02
1.000000e+02
1.000000e+02
1.000000e+02
1.000000e+02
1.000000e+02
1.000000e+02
1.000000e+02
1.000000e+02
1.000000e+02
1.000000e+02
1.000000e+02
1.000000e+02
1.000000e+02
0.000000e+00
-5.053171e-02
-9.168306e-02
-1.298040e-01
-1.663894e-01
-2.017181e-01
-2.358612e-01
-2.688155e-01
-3.005603e-01
-3.310726e-01
-3.603331e-01
-3.883288e-01
-4.150527e-01
-4.405044e-01
-4.646897e-01
-4.876214e-01
-5.093201e-01
-5.298156e-01
-5.491491e-01
-5.673762e-01
-5.845710e-01
-6.008316e-01
-6.162874e-01
-6.311104e-01
-6.455307e-01
-6.598613e-01
-6.745368e-01
-6.901768e-01
-7.076906e-01
-7.284160e-01
-7.540886e-01
-7.846832e-01
-8.033547e-01
0.000000e+00
-3.388014e-02
-7.049128e-02
-1.050108e-01
-1.378202e-01
-1.692320e-01
-1.994121e-01
-2.284333e-01
-2.563243e-01
-2.830946e-01
-3.087460e-01
-3.332784e-01
-3.566931e-01
-3.789939e-01
-4.001880e-01
-4.202874e-01
-4.393091e-01
-4.572767e-01
-4.742212e-01
-4.901831e-01
-5.052139e-01
-5.193788e-01
-5.327583e-01
-5.454512e-01
-5.575755e-01
-5.692669e-01
-5.806686e-01
-5.918986e-01
-6.029561e-01
-6.134814e-01
-6.222518e-01
-6.273794e-01
-6.345179e-01
0.000000e+00
-2.687381e-02
-5.532620e-02
-8.429527e-02
-1.124442e-01
-1.395559e-01
-1.656129e-01
-1.906399e-01
-2.146591e-01
-2.376856e-01
-2.597291e-01
-2.807966e-01
-3.008939e-01
-3.200269e-01
-3.382027e-01
-3.554301e-01
-3.717203e-01
-3.870874e-01
-4.015486e-01
-4.151245e-01
-4.278390e-01
-4.397176e-01
-4.507858e-01
-4.610631e-01
-4.705536e-01
-4.792270e-01
-4.869838e-01
-4.935960e-01
-4.986161e-01
-5.013194e-01
-5.010824e-01
-4.995644e-01
-5.079002e-01
0.000000e+00
-2.132199e-02
-4.382154e-02
-6.693703e-02
-8.999836e-02
-1.125011e-01
-1.342526e-01
-1.551836e-01
-1.752755e-01
-1.945274e-01
-2.129444e-01
-2.305325e-01
-2.472977e-01
-2.632453e-01
-2.783800e-01
-2.927061e-01
-3.062274e-01
-3.189474e-01
-3.308688e-01
-3.419923e-01
-3.523149e-01
-3.618273e-01
-3.705083e-01
-3.783175e-01
-3.851829e-01
-3.909833e-01
-3.955266e-01
-3.985352e-01
-3.996840e-01
-3.988312e-01
-3.967600e-01
-3.966364e-01
-4.045783e-01
0.000000e+00
-1.654884e-02
-3.388638e-02
-5.177776e-02
-6.981451e-02
-8.763003e-02
-1.049785e-01
-1.217355e-01
-1.378445e-01
-1.532836e-01
-1.680472e-01
-1.821360e-01
-1.955528e-01
-2.082996e-01
-2.203775e-01
-2.317853e-01
-2.425194e-01
-2.525734e-01
-2.619369e-01
-2.705942e-01
-2.785220e-01
-2.856865e-01
-2.920387e-01
-2.975087e-01
-3.019999e-01
-3.053852e-01
-3.075155e-01
-3.082628e-01
-3.076497e-01
-3.061496e-01
-3.051764e-01
-3.074238e-01
-3.141987e-01
0.000000e+00
-1.216243e-02
-2.484595e-02
-3.793696e-02
-5.120925e-02
-6.441509e-02
-7.735778e-02
-8.990947e-02
-1.020000e-01
-1.135952e-01
-1.246808e-01
-1.352516e-01
-1.453058e-01
-1.548417e-01
-1.638556e-01
-1.723411e-01
-1.802881e-01
-1.876822e-01
-1.945033e-01
-2.007247e-01
-2.063114e-01
-2.112181e-01
-2.153875e-01
-2.187496e-01
-2.212246e-01
-2.227347e-01
-2.232358e-01
-2.227861e-01
-2.216779e-01
-2.206236e-01
-2.208803e-01
-2.237453e-01
-2.293510e-01
0.000000e+00
-8.004344e-03
-1.632530e-02
-2.491022e-02
-3.363668e-02
-4.235781e-02
-5.094206e-02
-5.929359e-02
-6.735239e-02
-7.508535e-02
-8.247576e-02
-8.951518e-02
-9.619825e-02
-1.025194e-01
-1.084710e-01
-1.140421e-01
-1.192177e-01
-1.239780e-01
-1.282974e-01
-1.321441e-01
-1.354794e-01
-1.382581e-01
-1.404297e-01
-1.419430e-01
-1.427561e-01
-1.428570e-01
-1.423010e-01
-1.412723e-01
-1.401622e-01
-1.396241e-01
-1.404636e-01
-1.432530e-01
-1.477780e-01
0.000000e+00
-3.975755e-03
-8.101818e-03
-1.235698e-02
-1.668751e-02
-2.102498e-02
-2.530443e-02
-2.947503e-02
-3.350243e-02
-3.736565e-02
-4.105225e-02
-4.455401e-02
-4.786377e-02
-5.097331e-02
-5.387204e-02
-5.654604e-02
-5.897737e-02
-6.114359e-02
-6.301746e-02
-6.456706e-02
-6.575660e-02
-6.654838e-02
-6.690706e-02
-6.680730e-02
-6.624714e-02
-6.526932e-02
-6.399218e-02
-6.264650e-02
-6.160185e-02
-6.134016e-02
-6.232517e-02
-6.475850e-02
-6.834902e-02
0.000000e+00
-6.414147e-06
-1.390784e-05
-2.206595e-05
-3.045936e-05
-3.850946e-05
-4.534427e-05
-4.963865e-05
-4.942763e-05
-4.188182e-05
-2.303610e-05
1.253300e-05
7.208084e-05
1.651106e-04
3.038120e-04
5.034848e-04
7.828812e-04
1.164361e-03
1.673694e-03
2.339249e-03
3.190191e-03
4.253143e-03
5.546543e-03
7.071795e-03
8.800327e-03
1.065642e-02
1.249797e-02
1.410238e-02
1.517340e-02
1.539060e-02
1.451607e-02
1.253553e-02
9.761682e-03
0.000000e+00
3.963674e-03
8.075569e-03
1.231525e-02
1.662977e-02
2.095177e-02
2.521791e-02
2.937982e-02
3.340682e-02
3.728321e-02
4.100400e-02
4.457115e-02
4.799112e-02
5.127360e-02
5.443101e-02
5.747833e-02
6.043318e-02
6.331561e-02
6.614760e-02
6.895178e-02
7.174911e-02
7.455499e-02
7.737342e-02
8.018875e-02
8.295522e-02
8.558552e-02
8.794198e-02
8.983728e-02
9.105507e-02
9.139984e-02
9.077543e-02
8.927092e-02
8.721217e-02
0.000000e+00
7.994475e-03
1.630370e-02
2.487565e-02
3.358847e-02
4.229612e-02
5.086830e-02
5.921112e-02
6.726749e-02
7.500856e-02
8.242359e-02
8.951242e-02
9.628078e-02
1.027378e-01
1.088948e-01
1.147649e-01
1.203628e-01
1.257045e-01
1.308065e-01
1.356846e-01
1.403515e-01
1.448131e-01
1.490634e-01
1.530778e-01
1.568058e-01
1.601648e-01
1.630380e-01
1.652820e-01
1.667508e-01
1.673380e-01
1.670361e-01
1.659950e-01
1.645582e-01
0.000000e+00
1.215614e-02
2.483193e-02
3.791412e-02
5.117682e-02
6.437276e-02
7.730598e-02
8.984985e-02
1.019360e-01
1.135330e-01
1.246302e-01
1.352279e-01
1.453316e-01
1.549490e-01
1.640892e-01
1.727620e-01
1.809775e-01
1.887461e-01
1.960779e-01
2.029813e-01
2.094611e-01
2.155159e-01
2.211338e-01
2.262884e-01
2.309342e-01
2.350036e-01
2.384089e-01
2.410518e-01
2.428441e-01
2.437421e-01
2.437927e-01
2.431820e-01
2.422739e-01
0.000000e+00
1.654727e-02
3.388247e-02
5.177076e-02
6.980369e-02
8.761478e-02
1.049585e-01
1.217106e-01
1.378152e-01
1.532512e-01
1.680143e-01
1.821068e-01
1.955339e-01
2.083012e-01
2.204141e-01
2.318774e-01
2.426956e-01
2.528722e-01
2.624096e-01
2.713083e-01
2.795656e-01
2.871739e-01
2.941186e-01
3.003757e-01
3.059099e-01
3.106749e-01
3.146161e-01
3.176792e-01
3.198259e-01
3.210592e-01
3.214593e-01
3.212300e-01
3.207516e-01
0.000000e+00
2.132595e-02
4.382959e-02
6.694901e-02
9.001393e-02
1.125198e-01
1.342738e-01
1.552062e-01
1.752978e-01
1.945468e-01
2.129565e-01
2.305313e-01
2.472744e-01
2.631878e-01
2.782716e-01
2.925247e-01
3.059443e-01
3.185262e-01
3.302640e-01
3.411495e-01
3.511716e-01
3.603165e-01
3.685666e-01
3.759013e-01
3.822971e-01
3.877300e-01
3.921798e-01
3.956362e-01
3.981100e-01
3.996473e-01
4.003545e-01
4.004388e-01
4.002801e-01
0.000000e+00
2.688348e-02
5.534684e-02
8.432759e-02
1.124889e-01
1.396133e-01
1.656833e-01
1.907224e-01
2.147514e-01
2.377829e-01
2.598231e-01
2.808738e-01
3.009336e-01
3.199986e-01
3.380629e-01
3.551184e-01
3.711544e-01
3.861580e-01
4.001132e-01
4.130015e-01
4.248017e-01
4.354909e-01
4.450457e-01
4.534449e-01
4.606725e-01
4.667229e-01
4.716072e-01
4.753597e-01
4.780454e-01
4.797655e-01
4.806658e-01
4.809591e-01
4.809941e-01
0.000000e+00
3.389466e-02
7.052300e-02
1.050618e-01
1.378930e-01
1.693291e-01
1.995357e-01
2.285844e-01
2.565024e-01
2.832962e-01
3.089626e-01
3.334947e-01
3.568833e-01
3.791175e-01
4.001848e-01
4.200701e-01
4.387554e-01
4.562186e-01
4.724336e-01
4.873696e-01
5.009924e-01
5.132651e-01
5.241516e-01
5.336206e-01
5.416525e-01
5.482478e-01
5.534375e-01
5.572948e-01
5.599446e-01
5.615682e-01
5.623977e-01
5.626985e-01
5.627721e-01
0.000000e+00
5.054760e-02
9.172014e-02
1.298675e-01
1.664844e-01
2.018499e-01
2.360351e-01
2.690366e-01
3.008327e-01
3.313979e-01
3.607086e-01
3.887444e-01
4.154874e-01
4.409205e-01
4.650258e-01
4.877834e-01
5.091689e-01
5.291526e-01
5.476980e-01
5.647611e-01
5.802905e-01
5.942292e-01
6.065172e-01
6.170983e-01
6.259287e-01
6.329906e-01
6.383092e-01
6.419732e-01
6.441571e-01
6.451411e-01
6.453199e-01
6.451718e-01
6.450884e-01
0.000000e+00
-3.122763e-02
-5.449897e-02
-7.989362e-02
-1.081721e-01
-1.401154e-01
-1.759456e-01
-2.157250e-01
-2.594139e-01
-3.069187e-01
-3.581134e-01
-4.128533e-01
-4.709821e-01
-5.323371e-01
-5.967525e-01
-6.640612e-01
-7.340969e-01
-8.066966e-01
-8.817026e-01
-9.589663e-01
-1.038353e+00
-1.119750e+00
-1.203077e+00
-1.288300e+00
-1.375464e+00
-1.464728e+00
-1.556448e+00
-1.651317e+00
-1.750658e+00
-1.857095e+00
-1.976284e+00
-2.121575e+00
-2.322299e+00
0.000000e+00
-1.940679e-02
-4.376574e-02
-6.933170e-02
-9.800430e-02
-1.302947e-01
-1.664730e-01
-2.066006e-01
-2.506411e-01
-2.985009e-01
-3.500535e-01
-4.051527e-01
-4.636412e-01
-5.253547e-01
-5.901259e-01
-6.577860e-01
-7.281669e-01
-8.011029e-01
-8.764333e-01
-9.540058e-01
-1.033681e+00
-1.115341e+00
-1.198896e+00
-1.284306e+00
-1.371601e+00
-1.460928e+00
-1.552623e+00
-1.647358e+00
-1.746428e+00
-1.852413e+00
-1.970681e+00
-2.112738e+00
-2.300266e+00
0.000000e+00
-1.425540e-02
-3.528374e-02
-6.050093e-02
-8.922362e-02
-1.217519e-01
-1.582159e-01
-1.986492e-01
-2.430034e-01
-2.911803e-01
-3.430512e-01
-3.984688e-01
-4.572751e-01
-5.193053e-01
-5.843913e-01
-6.523638e-01
-7.230538e-01
-7.962947e-01
-8.719247e-01
-9.497902e-01
-1.029751e+00
-1.111687e+00
-1.195510e+00
-1.281180e+00
-1.368731e+00
-1.458318e+00
-1.550293e+00
-1.645343e+00
-1.744749e+00
-1.850833e+00
-1.967563e+00
-2.099627e+00
-2.246124e+00
0.000000e+00
-1.141513e-02
-2.987821e-02
-5.375070e-02
-8.210426e-02
-1.146225e-01
-1.512424e-01
-1.919022e-01
-2.365145e-01
-2.849631e-01
-3.371111e-01
-3.928077e-01
-4.518933e-01
-5.142028e-01
-5.795686e-01
-6.478214e-01
-7.187930e-01
-7.923174e-01
-8.682337e-01
-9.463896e-01
-1.026647e+00
-1.108888e+00
-1.193029e+00
-1.279036e+00
-1.366953e+00
-1.456942e+00
-1.549350e+00
-1.644811e+00
-1.744374e+00
-1.849569e+00
-1.961860e+00
-2.080291e+00
-2.190539e+00
0.000000e+00
-9.659078e-03
-2.634319e-02
-4.895723e-02
-7.666445e-02
-1.089695e-01
-1.456031e-01
-1.863951e-01
-2.311980e-01
-2.798655e-01
-3.322452e-01
-3.881795e-01
-4.475058e-01
-5.100587e-01
-5.756711e-01
-6.441750e-01
-7.154037e-01
-7.891931e-01
-8.653846e-01
-9.438285e-01
-1.024389e+00
-1.106954e+00
-1.191441e+00
-1.277820e+00
-1.366130e+00
-1.456514e+00
-1.549255e+00
-1.644810e+00
-1.743781e+00
-1.846654e+00
-1.952939e+00
-2.058732e+00
-2.154746e+00
0.000000e+00
-8.541689e-03
-2.402378e-02
-4.565858e-02
-7.274210e-02
-1.047445e-01
-1.412985e-01
-1.821427e-01
-2.270711e-01
-2.759025e-01
-3.284659e-01
-3.845941e-01
-4.441208e-01
-5.068797e-01
-5.727044e-01
-6.414288e-01
-7.128883e-01
-7.869212e-01
-8.633715e-01
-9.420917e-01
-1.022949e+00
-1.105829e+00
-1.190650e+00
-1.277371e+00
-1.366008e+00
-1.456645e+00
-1.549442e+00
-1.644599e+00
-1.742228e+00
-1.841998e+00
-1.942390e+00
-2.039816e+00
-2.128863e+00
0.000000e+00
-7.847245e-03
-2.255733e-02
-4.351438e-02
-7.011441e-02
-1.018410e-01
-1.382865e-01
-1.791358e-01
-2.241384e-01
-2.730832e-01
-3.257820e-01
-3.820584e-01
-4.417423e-01
-5.046667e-01
-5.706661e-01
-6.395763e-01
-7.112350e-01
-7.854827e-01
-8.621651e-01
-9.411357e-01
-1.022260e+00
-1.105421e+00
-1.190524e+00
-1.277505e+00
-1.366334e+00
-1.457013e+00
-1.549550e+00
-1.643892e+00
-1.739766e+00
-1.836393e+00
-1.932100e+00
-2.024128e+00
-2.109097e+00
0.000000e+00
-7.465637e-03
-2.174363e-02
-4.230608e-02
-6.860766e-02
-1.001498e-01
-1.365116e-01
-1.773519e-01
-2.223946e-01
-2.714097e-01
-3.241971e-01
-3.805745e-01
-4.403695e-01
-5.034150e-01
-5.695467e-01
-6.386022e-01
-7.104212e-01
-7.848456e-01
-8.617215e-01
-9.409011e-01
-1.022245e+00
-1.105626e+00
-1.190929e+00
-1.278057e+00
-1.366923e+00
-1.457435e+00
-1.549459e+00
-1.642745e+00
-1.736795e+00
-1.830684e+00
-1.922904e+00
-2.011379e+00
-2.093802e+00
0.000000e+00
-7.342685e-03
-2.148111e-02
-4.191446e-02
-6.811659e-02
-9.959627e-02
-1.359302e-01
-1.767699e-01
-2.218315e-01
-2.708794e-01
-3.237101e-01
-3.801400e-01
-4.399969e-01
-5.031149e-01
-5.693312e-01
-6.384851e-01
-7.104176e-01
-7.849712e-01
-8.619907e-01
-9.413244e-01
-1.022825e+00
-1.106349e+00
-1.191758e+00
-1.278914e+00
-1.367671e+00
-1.457851e+00
-1.549210e+00
-1.641371e+00
-1.733739e+00
-1.825403e+00
-1.915088e+00
-2.001211e+00
-2.082081e+00
0.000000e+00
-7.462081e-03
-2.173870e-02
-4.230184e-02
-6.860637e-02
-1.001543e-01
-1.365257e-01
-1.773804e-01
-2.224441e-01
-2.714888e-01
-3.243168e-01
-3.807487e-01
-4.406154e-01
-5.037532e-01
-5.700013e-01
-6.392007e-01
-7.111928e-01
-7.858195e-01
-8.629233e-01
-9.423464e-01
-1.023931e+00
-1.107516e+00
-1.192936e+00
-1.280013e+00
-1.368546e+00
-1.458289e+00
-1.548921e+00
-1.640000e+00
-1.730913e+00
-1.820832e+00
-1.908704e+00
-1.993306e+00
-2.073345e+00
0.000000e+00
-7.840420e-03
-2.254786e-02
-4.350619e-02
-7.011184e-02
-1.018495e-01
-1.383131e-01
-1.791901e-01
-2.242329e-01
-2.732345e-01
-3.260111e-01
-3.823921e-01
-4.422135e-01
-5.053151e-01
-5.715383e-01
-6.407250e-01
-7.127167e-01
-7.873541e-01
-8.644760e-01
-9.439179e-01
-1.025510e+00
-1.109074e+00
-1.194418e+00
-1.281329e+00
-1.369560e+00
-1.458815e+00
-1.548726e+00
-1.638825e+00
-1.728524e+00
-1.817099e+00
-1.903698e+00
-1.987376e+00
-2.067144e+00
0.000000e+00
-8.532204e-03
-2.401061e-02
-4.564714e-02
-7.273840e-02
-1.047561e-01
-1.413354e-01
-1.822181e-01
-2.272028e-01
-2.761134e-01
-3.287857e-01
-3.850602e-01
-4.447794e-01
-5.077865e-01
-5.739249e-01
-6.430370e-01
-7.149641e-01
-7.895451e-01
-8.666148e-01
-9.460019e-01
-1.027526e+00
-1.110992e+00
-1.196185e+00
-1.282864e+00
-1.370747e+00
-1.459503e+00
-1.548738e+00
-1.637983e+00
-1.726690e+00
-1.814240e+00
-1.899960e+00
-1.983147e+00
-2.063079e+00
0.000000e+00
-9.647904e-03
-2.632770e-02
-4.894375e-02
-7.666016e-02
-1.089835e-01
-1.456476e-01
-1.864861e-01
-2.313570e-01
-2.801202e-01
-3.326317e-01
-3.887429e-01
-4.483023e-01
-5.111558e-01
-5.771480e-01
-6.461216e-01
-7.179173e-01
-7.923720e-01
-8.693170e-01
-9.485749e-01
-1.029956e+00
-1.113252e+00
-1.198232e+00
-1.284630e+00
-1.372142e+00
-1.460415e+00
-1.549040e+00
-1.637558e+00
-1.725465e+00
-1.812234e+00
-1.897351e+00
-1.980339e+00
-2.060752e+00
0.000000e+00
-1.140364e-02
-2.986230e-02
-5.373699e-02
-8.210058e-02
-1.146390e-01
-1.512925e-01
-1.920038e-01
-2.366913e-01
-2.852459e-01
-3.375395e-01
-3.934317e-01
-4.527746e-01
-5.154160e-01
-5.812008e-01
-6.499718e-01
-7.215684e-01
-7.958260e-01
-8.725729e-01
-9.516273e-01
-1.032792e+00
-1.115851e+00
-1.200560e+00
-1.286639e+00
-1.373769e+00
-1.461583e+00
-1.549671e+00
-1.637581e+00
-1.724847e+00
-1.811017e+00
-1.895711e+00
-1.978662e+00
-2.059738e+00
0.000000e+00
-1.424539e-02
-3.526980e-02
-6.048936e-02
-8.922252e-02
-1.217720e-01
-1.582712e-01
-1.987585e-01
-2.431912e-01
-2.914786e-01
-3.435009e-01
-3.991216e-01
-4.581942e-01
-5.205672e-01
-5.860852e-01
-6.545904e-01
-7.259213e-01
-7.999116e-01
-8.763877e-01
-9.551645e-01
-1.036041e+00
-1.118795e+00
-1.203176e+00
-1.288897e+00
-1.375632e+00
-1.463010e+00
-1.550620e+00
-1.638023e+00
-1.724777e+00
-1.810485e+00
-1.894860e+00
-1.977819e+00
-2.059561e+00
0.000000e+00
-1.940035e-02
-4.375627e-02
-6.932489e-02
-9.800851e-02
-1.303208e-01
-1.665354e-01
-2.067179e-01
-2.508378e-01
-2.988088e-01
-3.505129e-01
-4.058142e-01
-4.645665e-01
-5.266178e-01
-5.918125e-01
-6.599917e-01
-7.309930e-01
-8.046487e-01
-8.807835e-01
-9.592102e-01
-1.039726e+00
-1.122105e+00
-1.206095e+00
-1.291408e+00
-1.377718e+00
-1.464657e+00
-1.551819e+00
-1.638779e+00
-1.725115e+00
-1.810460e+00
-1.894583e+00
-1.977515e+00
-2.059712e+00
0.000000e+00
-3.122672e-02
-5.449582e-02
-7.989423e-02
-1.081848e-01
-1.401513e-01
-1.760189e-01
-2.158543e-01
-2.596231e-01
-3.072387e-01
-3.585831e-01
-4.135207e-01
-4.719055e-01
-5.335854e-01
-5.984041e-01
-6.662018e-01
-7.368149e-01
-8.100742e-01
-8.858021e-01
-9.638098e-01
-1.043892e+00
-1.125823e+00
-1.209349e+00