TITLE = "Solution"
VARIABLES = x, y, u, v, psiu, psiv, t, stress
ZONE T="structure" N=561 E=512 F=FEBLOCK ET=QUADRILATERAL VARLOCATION=([7,8]=cellcentered)
0.000000e+00
6.250000e+00
1.250000e+01
1.875000e+01
2.500000e+01
3.125000e+01
3.750000e+01
4.375000e+01
5.000000e+01
5.625000e+01
6.250000e+01
6.875000e+01
7.500000e+01
8.125000e+01
8.750000e+01
9.375000e+01
1.000000e+02
1.062500e+02
1.125000e+02
1.187500e+02
1.250000e+02
1.312500e+02
1.375000e+02
1.437500e+02
1.500000e+02
1.562500e+02
1.625000e+02
1.687500e+02
1.750000e+02
1.812500e+02
1.875000e+02
1.937500e+02
2.000000e+02
0.000000e+00
6.250000e+00
1.250000e+01
1.875000e+01
2.500000e+01
3.125000e+01
3.750000e+01
4.375000e+01
5.000000e+01
5.625000e+01
6.250000e+01
6.875000e+01
7.500000e+01
8.125000e+01
8.750000e+01
9.375000e+01
1.000000e+02
1.062500e+02
1.125000e+02
1.187500e+02
1.250000e+02
1.312500e+02
1.375000e+02
1.437500e+02
1.500000e+02
1.562500e+02
1.625000e+02
1.687500e+02
1.750000e+02
1.812500e+02
1.875000e+02
1.937500e+02
2.000000e+02
0.000000e+00
6.250000e+00
1.250000e+01
1.875000e+01
2.500000e+01
3.125000e+01
3.750000e+01
4.375000e+01
5.000000e+01
5.625000e+01
6.250000e+01
6.875000e+01
7.500000e+01
8.125000e+01
8.750000e+01
9.375000e+01
1.000000e+02
1.062500e+02
1.125000e+02
1.187500e+02
1.250000e+02
1.312500e+02
1.375000e+02
1.437500e+02
1.500000e+02
1.562500e+02
1.625000e+02
1.687500e+02
1.750000e+02
1.812500e+02
1.875000e+02
1.937500e+02
2.000000e+02
0.000000e+00
6.250000e+00
1.250000e+01
1.875000e+01
2.500000e+01
3.125000e+01
3.750000e+01
4.375000e+01
5.000000e+01
5.625000e+01
6.250000e+01
6.875000e+01
7.500000e+01
8.125000e+01
8.750000e+01
9.375000e+01
1.000000e+02
1.062500e+02
1.125000e+02
1.187500e+02
1.250000e+02
1.312500e+02
1.375000e+02
1.437500e+02
1.500000e+02
1.562500e+02
1.625000e+02
1.687500e+02
1.750000e+02
1.812500e+02
1.875000e+02
1.937500e+02
2.000000e+02
0.000000e+00
6.250000e+00
1.250000e+01
1.875000e+01
2.500000e+01
3.125000e+01
3.750000e+01
4.375000e+01
5.000000e+01
5.625000e+01
6.250000e+01
6.875000e+01
7.500000e+01
8.125000e+01
8.750000e+01
9.375000e+01
1.000000e+02
1.062500e+02
1.125000e+02
1.187500e+02
1.250000e+02
1.312500e+02
1.375000e+02
1.437500e+02
1.500000e+02
1.562500e+02
1.625000e+02
1.687500e+02
1.750000e+02
1.812500e+02
1.875000e+02
1.937500e+02
2.000000e+02
0.000000e+00
6.250000e+00
1.250000e+01
1.875000e+01
2.500000e+01
3.125000e+01
3.750000e+01
4.375000e+01
5.000000e+01
5.625000e+01
6.250000e+01
6.875000e+01
7.500000e+01
8.125000e+01
8.750000e+01
9.375000e+01
1.000000e+02
1.062500e+02
1.125000e+02
1.187500e+02
1.250000e+02
1.312500e+02
1.375000e+02
1.437500e+02
1.500000e+02
1.562500e+02
1.625000e+02
1.687500e+02
1.750000e+02
1.812500e+02
1.875000e+02
1.937500e+02
2.000000e+02
0.000000e+00
6.250000e+00
1.250000e+01
1.875000e+01
2.500000e+01
3.125000e+01
3.750000e+01
4.375000e+01
5.000000e+01
5.625000e+01
6.250000e+01
6.875000e+01
7.500000e+01
8.125000e+01
8.750000e+01
9.375000e+01
1.000000e+02
1.062500e+02
1.125000e+02
1.187500e+02
1.250000e+02
1.312500e+02
1.375000e+02
1.437500e+02
1.500000e+02
1.562500e+02
1.625000e+02
1.687500e+02
1.750000e+02
1.812500e+02
1.875000e+02
1.937500e+02
2.000000e+02
0.000000e+00
6.250000e+00
1.250000e+01
1.875000e+01
2.500000e+01
3.125000e+01
3.750000e+01
4.375000e+01
5.000000e+01
5.625000e+01
6.250000e+01
6.875000e+01
7.500000e+01
8.125000e+01
8.750000e+01
9.375000e+01
1.000000e+02
1.062500e+02
1.125000e+02
1.187500e+02
1.250000e+02
1.312500e+02
1.375000e+02
1.437500e+02
1.500000e+02
1.562500e+02
1.625000e+02
1.687500e+02
1.750000e+02
1.812500e+02
1.875000e+02
1.937500e+02
2.000000e+02
0.000000e+00
6.250000e+00
1.250000e+01
1.875000e+01
2.500000e+01
3.125000e+01
3.750000e+01
4.375000e+01
5.000000e+01
5.625000e+01
6.250000e+01
6.875000e+01
7.500000e+01
8.125000e+01
8.750000e+01
9.375000e+01
1.000000e+02
1.062500e+02
1.125000e+02
1.187500e+02
1.250000e+02
1.312500e+02
1.375000e+02
1.437500e+02
1.500000e+02
1.562500e+02
1.625000e+02
1.687500e+02
1.750000e+02
1.812500e+02
1.875000e+02
1.937500e+02
2.000000e+02
0.000000e+00
6.250000e+00
1.250000e+01
1.875000e+01
2.500000e+01
3.125000e+01
3.750000e+01
4.375000e+01
5.000000e+01
5.625000e+01
6.250000e+01
6.875000e+01
7.500000e+01
8.125000e+01
8.750000e+01
9.375000e+01
1.000000e+02
1.062500e+02
1.125000e+02
1.187500e+02
1.250000e+02
1.312500e+02
1.375000e+02
1.437500e+02
1.500000e+02
1.562500e+02
1.625000e+02
1.687500e+02
1.750000e+02
1.812500e+02
1.875000e+02
1.937500e+02
2.000000e+02
0.000000e+00
6.250000e+00
1.250000e+01
1.875000e+01
2.500000e+01
3.125000e+01
3.750000e+01
4.375000e+01
5.000000e+01
5.625000e+01
6.250000e+01
6.875000e+01
7.500000e+01
8.125000e+01
8.750000e+01
9.375000e+01
1.000000e+02
1.062500e+02
1.125000e+02
1.187500e+02
1.250000e+02
1.312500e+02
1.375000e+02
1.437500e+02
1.500000e+02
1.562500e+02
1.625000e+02
1.687500e+02
1.750000e+02
1.812500e+02
1.875000e+02
1.937500e+02
2.000000e+02
0.000000e+00
6.250000e+00
1.250000e+01
1.875000e+01
2.500000e+01
3.125000e+01
3.750000e+01
4.375000e+01
5.000000e+01
5.625000e+01
6.250000e+01
6.875000e+01
7.500000e+01
8.125000e+01
8.750000e+01
9.375000e+01
1.000000e+02
1.062500e+02
1.125000e+02
1.187500e+02
1.250000e+02
1.312500e+02
1.375000e+02
1.437500e+02
1.500000e+02
1.562500e+02
1.625000e+02
1.687500e+02
1.750000e+02
1.812500e+02
1.875000e+02
1.937500e+02
2.000000e+02
0.000000e+00
6.250000e+00
1.250000e+01
1.875000e+01
2.500000e+01
3.125000e+01
3.750000e+01
4.375000e+01
5.000000e+01
5.625000e+01
6.250000e+01
6.875000e+01
7.500000e+01
8.125000e+01
8.750000e+01
9.375000e+01
1.000000e+02
1.062500e+02
1.125000e+02
1.187500e+02
1.250000e+02
1.312500e+02
1.375000e+02
1.437500e+02
1.500000e+02
1.562500e+02
1.625000e+02
1.687500e+02
1.750000e+02
1.812500e+02
1.875000e+02
1.937500e+02
2.000000e+02
0.000000e+00
6.250000e+00
1.250000e+01
1.875000e+01
2.500000e+01
3.125000e+01
3.750000e+01
4.375000e+01
5.000000e+01
5.625000e+01
6.250000e+01
6.875000e+01
7.500000e+01
8.125000e+01
8.750000e+01
9.375000e+01
1.000000e+02
1.062500e+02
1.125000e+02
1.187500e+02
1.250000e+02
1.312500e+02
1.375000e+02
1.437500e+02
1.500000e+02
1.562500e+02
1.625000e+02
1.687500e+02
1.750000e+02
1.812500e+02
1.875000e+02
1.937500e+02
2.000000e+02
0.000000e+00
6.250000e+00
1.250000e+01
1.875000e+01
2.500000e+01
3.125000e+01
3.750000e+01
4.375000e+01
5.000000e+01
5.625000e+01
6.250000e+01
6.875000e+01
7.500000e+01
8.125000e+01
8.750000e+01
9.375000e+01
1.000000e+02
1.062500e+02
1.125000e+02
1.187500e+02
1.250000e+02
1.312500e+02
1.375000e+02
1.437500e+02
1.500000e+02
1.562500e+02
1.625000e+02
1.687500e+02
1.750000e+02
1.812500e+02
1.875000e+02
1.937500e+02
2.000000e+02
0.000000e+00
6.250000e+00
1.250000e+01
1.875000e+01
2.500000e+01
3.125000e+01
3.750000e+01
4.375000e+01
5.000000e+01
5.625000e+01
6.250000e+01
6.875000e+01
7.500000e+01
8.125000e+01
8.750000e+01
9.375000e+01
1.000000e+02
1.062500e+02
1.125000e+02
1.187500e+02
1.250000e+02
1.312500e+02
1.375000e+02
1.437500e+02
1.500000e+02
1.562500e+02
1.625000e+02
1.687500e+02
1.750000e+02
1.812500e+02
1.875000e+02
1.937500e+02
2.000000e+02
0.000000e+00
6.250000e+00
1.250000e+01
1.875000e+01
2.500000e+01
3.125000e+01
3.750000e+01
4.375000e+01
5.000000e+01
5.625000e+01
6.250000e+01
6.875000e+01
7.500000e+01
8.125000e+01
8.750000e+01
9.375000e+01
1.000000e+02
1.062500e+02
1.125000e+02
1.187500e+02
1.250000e+02
1.312500e+02
1.375000e+02
1.437500e+02
1.500000e+02
1.562500e+02
1.625000e+02
1.687500e+02
1.750000e+02
1.812500e+02
1.875000e+02
1.937500e+02
2.000000e+02
0.000000e+00
0.000000e+00
0.000000e+00
0.000000e+00
0.000000e+00
0.000000e+00
0.000000e+00
0.000000e+00
0.000000e+00
0.000000e+00
0.000000e+00
0.000000e+00
0.000000e+00
0.000000e+00
0.000000e+00
0.000000e+00
0.000000e+00
0.000000e+00
0.000000e+00
0.000000e+00
0.000000e+00
0.000000e+00
0.000000e+00
0.000000e+00
0.000000e+00
0.000000e+00
0.000000e+00
0.000000e+00
0.000000e+00
0.000000e+00
0.000000e+00
0.000000e+00
0.000000e+00
6.250000e+00
6.250000e+00
6.250000e+00
6.250000e+00
6.250000e+00
6.250000e+00
6.250000e+00
6.250000e+00
6.250000e+00
6.250000e+00
6.250000e+00
6.250000e+00
6.250000e+00
6.250000e+00
6.250000e+00
6.250000e+00
6.250000e+00
6.250000e+00
6.250000e+00
6.250000e+00
6.250000e+00
6.250000e+00
6.250000e+00
6.250000e+00
6.250000e+00
6.250000e+00
6.250000e+00
6.250000e+00
6.250000e+00
6.250000e+00
6.250000e+00
6.250000e+00
6.250000e+00
1.250000e+01
1.250000e+01
1.250000e+01
1.250000e+01
1.250000e+01
1.250000e+01
1.250000e+01
1.250000e+01
1.250000e+01
1.250000e+01
1.250000e+01
1.250000e+01
1.250000e+01
1.250000e+01
1.250000e+01
1.250000e+01
1.250000e+01
1.250000e+01
1.250000e+01
1.250000e+01
1.250000e+01
1.250000e+01
1.250000e+01
1.250000e+01
1.250000e+01
1.250000e+01
1.250000e+01
1.250000e+01
1.250000e+01
1.250000e+01
1.250000e+01
1.250000e+01
1.250000e+01
1.875000e+01
1.875000e+01
1.875000e+01
1.875000e+01
1.875000e+01
1.875000e+01
1.875000e+01
1.875000e+01
1.875000e+01
1.875000e+01
1.875000e+01
1.875000e+01
1.875000e+01
1.875000e+01
1.875000e+01
1.875000e+01
1.875000e+01
1.875000e+01
1.875000e+01
1.875000e+01
1.875000e+01
1.875000e+01
1.875000e+01
1.875000e+01
1.875000e+01
1.875000e+01
1.875000e+01
1.875000e+01
1.875000e+01
1.875000e+01
1.875000e+01
1.875000e+01
1.875000e+01
2.500000e+01
2.500000e+01
2.500000e+01
2.500000e+01
2.500000e+01
2.500000e+01
2.500000e+01
2.500000e+01
2.500000e+01
2.500000e+01
2.500000e+01
2.500000e+01
2.500000e+01
2.500000e+01
2.500000e+01
2.500000e+01
2.500000e+01
2.500000e+01
2.500000e+01
2.500000e+01
2.500000e+01
2.500000e+01
2.500000e+01
2.500000e+01
2.500000e+01
2.500000e+01
2.500000e+01
2.500000e+01
2.500000e+01
2.500000e+01
2.500000e+01
2.500000e+01
2.500000e+01
3.125000e+01
3.125000e+01
3.125000e+01
3.125000e+01
3.125000e+01
3.125000e+01
3.125000e+01
3.125000e+01
3.125000e+01
3.125000e+01
3.125000e+01
3.125000e+01
3.125000e+01
3.125000e+01
3.125000e+01
3.125000e+01
3.125000e+01
3.125000e+01
3.125000e+01
3.125000e+01
3.125000e+01
3.125000e+01
3.125000e+01
3.125000e+01
3.125000e+01
3.125000e+01
3.125000e+01
3.125000e+01
3.125000e+01
3.125000e+01
3.125000e+01
3.125000e+01
3.125000e+01
3.750000e+01
3.750000e+01
3.750000e+01
3.750000e+01
3.750000e+01
3.750000e+01
3.750000e+01
3.750000e+01
3.750000e+01
3.750000e+01
3.750000e+01
3.750000e+01
3.750000e+01
3.750000e+01
3.750000e+01
3.750000e+01
3.750000e+01
3.750000e+01
3.750000e+01
3.750000e+01
3.750000e+01
3.750000e+01
3.750000e+01
3.750000e+01
3.750000e+01
3.750000e+01
3.750000e+01
3.750000e+01
3.750000e+01
3.750000e+01
3.750000e+01
3.750000e+01
3.750000e+01
4.375000e+01
4.375000e+01
4.375000e+01
4.375000e+01
4.375000e+01
4.375000e+01
4.375000e+01
4.375000e+01
4.375000e+01
4.375000e+01
4.375000e+01
4.375000e+01
4.375000e+01
4.375000e+01
4.375000e+01
4.375000e+01
4.375000e+01
4.375000e+01
4.375000e+01
4.375000e+01
4.375000e+01
4.375000e+01
4.375000e+01
4.375000e+01
4.375000e+01
4.375000e+01
4.375000e+01
4.375000e+01
4.375000e+01
4.375000e+01
4.375000e+01
4.375000e+01
4.375000e+01
5.000000e+01
5.000000e+01
5.000000e+01
5.000000e+01
5.000000e+01
5.000000e+01
5.000000e+01
5.000000e+01
5.000000e+01
5.000000e+01
5.000000e+01
5.000000e+01
5.000000e+01
5.000000e+01
5.000000e+01
5.000000e+01
5.000000e+01
5.000000e+01
5.000000e+01
5.000000e+01
5.000000e+01
5.000000e+01
5.000000e+01
5.000000e+01
5.000000e+01
5.000000e+01
5.000000e+01
5.000000e+01
5.000000e+01
5.000000e+01
5.000000e+01
5.000000e+01
5.000000e+01
5.625000e+01
5.625000e+01
5.625000e+01
5.625000e+01
5.625000e+01
5.625000e+01
5.625000e+01
5.625000e+01
5.625000e+01
5.625000e+01
5.625000e+01
5.625000e+01
5.625000e+01
5.625000e+01
5.625000e+01
5.625000e+01
5.625000e+01
5.625000e+01
5.625000e+01
5.625000e+01
5.625000e+01
5.625000e+01
5.625000e+01
5.625000e+01
5.625000e+01
5.625000e+01
5.625000e+01
5.625000e+01
5.625000e+01
5.625000e+01
5.625000e+01
5.625000e+01
5.625000e+01
6.250000e+01
6.250000e+01
6.250000e+01
6.250000e+01
6.250000e+01
6.250000e+01
6.250000e+01
6.250000e+01
6.250000e+01
6.250000e+01
6.250000e+01
6.250000e+01
6.250000e+01
6.250000e+01
6.250000e+01
6.250000e+01
6.250000e+01
6.250000e+01
6.250000e+01
6.250000e+01
6.250000e+01
6.250000e+01
6.250000e+01
6.250000e+01
6.250000e+01
6.250000e+01
6.250000e+01
6.250000e+01
6.250000e+01
6.250000e+01
6.250000e+01
6.250000e+01
6.250000e+01
6.875000e+01
6.875000e+01
6.875000e+01
6.875000e+01
6.875000e+01
6.875000e+01
6.875000e+01
6.875000e+01
6.875000e+01
6.875000e+01
6.875000e+01
6.875000e+01
6.875000e+01
6.875000e+01
6.875000e+01
6.875000e+01
6.875000e+01
6.875000e+01
6.875000e+01
6.875000e+01
6.875000e+01
6.875000e+01
6.875000e+01
6.875000e+01
6.875000e+01
6.875000e+01
6.875000e+01
6.875000e+01
6.875000e+01
6.875000e+01
6.875000e+01
6.875000e+01
6.875000e+01
7.500000e+01
7.500000e+01
7.500000e+01
7.500000e+01
7.500000e+01
7.500000e+01
7.500000e+01
7.500000e+01
7.500000e+01
7.500000e+01
7.500000e+01
7.500000e+01
7.500000e+01
7.500000e+01
7.500000e+01
7.500000e+01
7.500000e+01
7.500000e+01
7.500000e+01
7.500000e+01
7.500000e+01
7.500000e+01
7.500000e+01
7.500000e+01
7.500000e+01
7.500000e+01
7.500000e+01
7.500000e+01
7.500000e+01
7.500000e+01
7.500000e+01
7.500000e+01
7.500000e+01
8.125000e+01
8.125000e+01
8.125000e+01
8.125000e+01
8.125000e+01
8.125000e+01
8.125000e+01
8.125000e+01
8.125000e+01
8.125000e+01
8.125000e+01
8.125000e+01
8.125000e+01
8.125000e+01
8.125000e+01
8.125000e+01
8.125000e+01
8.125000e+01
8.125000e+01
8.125000e+01
8.125000e+01
8.125000e+01
8.125000e+01
8.125000e+01
8.125000e+01
8.125000e+01
8.125000e+01
8.125000e+01
8.125000e+01
8.125000e+01
8.125000e+01
8.125000e+01
8.125000e+01
8.750000e+01
8.750000e+01
8.750000e+01
8.750000e+01
8.750000e+01
8.750000e+01
8.750000e+01
8.750000e+01
8.750000e+01
8.750000e+01
8.750000e+01
8.750000e+01
8.750000e+01
8.750000e+01
8.750000e+01
8.750000e+01
8.750000e+01
8.750000e+01
8.750000e+01
8.750000e+01
8.750000e+01
8.750000e+01
8.750000e+01
8.750000e+01
8.750000e+01
8.750000e+01
8.750000e+01
8.750000e+01
8.750000e+01
8.750000e+01
8.750000e+01
8.750000e+01
8.750000e+01
9.375000e+01
9.375000e+01
9.375000e+01
9.375000e+01
9.375000e+01
9.375000e+01
9.375000e+01
9.375000e+01
9.375000e+01
9.375000e+01
9.375000e+01
9.375000e+01
9.375000e+01
9.375000e+01
9.375000e+01
9.375000e+01
9.375000e+01
9.375000e+01
9.375000e+01
9.375000e+01
9.375000e+01
9.375000e+01
9.375000e+01
9.375000e+01
9.375000e+01
9.375000e+01
9.375000e+01
9.375000e+01
9.375000e+01
9.375000e+01
9.375000e+01
9.375000e+01
9.375000e+01
1.000000e+02
1.000000e+02
1.000000e+02
1.000000e+02
1.000000e+02
1.000000e+02
1.000000e+02
1.000000e+02
1.000000e+02
1.000000e+02
1.000000e+02
1.000000e+02
1.000000e+02
1.000000e+02
1.000000e+02
1.000000e+02
1.000000e+02
1.000000e+02
1.000000e+02
1.000000e+02
1.000000e+02
1.000000e+02
1.000000e+02
1.000000e+02
1.000000e+02
1.000000e+02
1.000000e+02
1.000000e+02
1.000000e+02
1.000000e+02
1.000000e+02
1.000000e+02
1.000000e+02
0.000000e+00
-7.324944e-02
-1.329013e-01
-1.881605e-01
-2.411942e-01
-2.924067e-01
-3.419007e-01
-3.896718e-01
-4.356897e-01
-4.799210e-01
-5.223380e-01
-5.629215e-01
-6.016616e-01
-6.385574e-01
-6.736175e-01
-7.068605e-01
-7.383160e-01
-7.680272e-01
-7.960541e-01
-8.224771e-01
-8.474037e-01
-8.709759e-01
-8.933815e-01
-9.148697e-01
-9.357743e-01
-9.565488e-01
-9.778231e-01
-1.000496e+00
-1.025885e+00
-1.055929e+00
-1.093145e+00
-1.137496e+00
-1.164563e+00
0.000000e+00
-4.911161e-02
-1.021819e-01
-1.522204e-01
-1.997806e-01
-2.453150e-01
-2.890643e-01
-3.311338e-01
-3.715651e-01
-4.103720e-01
-4.475570e-01
-4.831201e-01
-5.170630e-01
-5.493911e-01
-5.801151e-01
-6.092521e-01
-6.368270e-01
-6.628736e-01
-6.874373e-01
-7.105765e-01
-7.323661e-01
-7.529003e-01
-7.722960e-01
-7.906963e-01
-8.082724e-01
-8.252209e-01
-8.417495e-01
-8.580291e-01
-8.740587e-01
-8.893167e-01
-9.020308e-01
-9.094639e-01
-9.198121e-01
0.000000e+00
-3.895535e-02
-8.019897e-02
-1.221917e-01
-1.629960e-01
-2.022969e-01
-2.400693e-01
-2.763487e-01
-3.111674e-01
-3.445471e-01
-3.765021e-01
-4.070423e-01
-4.361761e-01
-4.639121e-01
-4.902605e-01
-5.152342e-01
-5.388493e-01
-5.611262e-01
-5.820899e-01
-6.017704e-01
-6.202019e-01
-6.374218e-01
-6.534669e-01
-6.683655e-01
-6.821235e-01
-6.946969e-01
-7.059417e-01
-7.155271e-01
-7.228047e-01
-7.267234e-01
-7.263800e-01
-7.241796e-01
-7.362634e-01
0.000000e+00
-3.090761e-02
-6.352222e-02
-9.702980e-02
-1.304591e-01
-1.630789e-01
-1.946099e-01
-2.249517e-01
-2.540772e-01
-2.819853e-01
-3.086831e-01
-3.341794e-01
-3.584829e-01
-3.816012e-01
-4.035411e-01
-4.243088e-01
-4.439099e-01
-4.623496e-01
-4.796315e-01
-4.957567e-01
-5.107209e-01
-5.245106e-01
-5.370951e-01
-5.484158e-01
-5.583683e-01
-5.667768e-01
-5.733631e-01
-5.777247e-01
-5.793900e-01
-5.781538e-01
-5.751514e-01
-5.749721e-01
-5.864851e-01
0.000000e+00
-2.398866e-02
-4.912062e-02
-7.505551e-02
-1.012012e-01
-1.270265e-01
-1.521748e-01
-1.764659e-01
-1.998177e-01
-2.221986e-01
-2.436003e-01
-2.640239e-01
-2.834733e-01
-3.019517e-01
-3.194603e-01
-3.359975e-01
-3.515582e-01
-3.661330e-01
-3.797068e-01
-3.922569e-01
-4.037495e-01
-4.141356e-01
-4.233440e-01
-4.312737e-01
-4.377844e-01
-4.426920e-01
-4.457802e-01
-4.468635e-01
-4.459748e-01
-4.438003e-01
-4.423895e-01
-4.456474e-01
-4.554684e-01
0.000000e+00
-1.763030e-02
-3.601596e-02
-5.499236e-02
-7.423164e-02
-9.337469e-02
-1.121364e-01
-1.303314e-01
-1.478580e-01
-1.646667e-01
-1.807366e-01
-1.960603e-01
-2.106353e-01
-2.244588e-01
-2.375258e-01
-2.498268e-01
-2.613472e-01
-2.720660e-01
-2.819542e-01
-2.909731e-01
-2.990719e-01
-3.061850e-01
-3.122291e-01
-3.171030e-01
-3.206909e-01
-3.228801e-01
-3.236065e-01
-3.229547e-01
-3.213482e-01
-3.198197e-01
-3.201918e-01
-3.243450e-01
-3.324714e-01
0.000000e+00
-1.160287e-02
-2.366469e-02
-3.610919e-02
-4.875893e-02
-6.140098e-02
-7.384469e-02
-8.595111e-02
-9.763323e-02
-1.088431e-01
-1.195564e-01
-1.297610e-01
-1.394490e-01
-1.486123e-01
-1.572400e-01
-1.653161e-01
-1.728190e-01
-1.797198e-01
-1.859814e-01
-1.915577e-01
-1.963928e-01
-2.004209e-01
-2.035690e-01
-2.057627e-01
-2.069415e-01
-2.070877e-01
-2.062818e-01
-2.047905e-01
-2.031812e-01
-2.024011e-01
-2.036182e-01
-2.076617e-01
-2.142215e-01
0.000000e+00
-5.763143e-03
-1.174417e-02
-1.791236e-02
-2.418982e-02
-3.047738e-02
-3.668086e-02
-4.272658e-02
-4.856475e-02
-5.416493e-02
-5.950912e-02
-6.458538e-02
-6.938332e-02
-7.389103e-02
-7.809315e-02
-8.196950e-02
-8.549407e-02
-8.863432e-02
-9.135078e-02
-9.359717e-02
-9.532158e-02
-9.646940e-02
-9.698936e-02
-9.684474e-02
-9.603269e-02
-9.461519e-02
-9.276377e-02
-9.081299e-02
-8.929859e-02
-8.891922e-02
-9.034711e-02
-9.387460e-02
-9.907962e-02
0.000000e+00
-9.294854e-06
-2.015609e-05
-3.198221e-05
-4.415101e-05
-5.582256e-05
-6.573262e-05
-7.196024e-05
-7.165695e-05
-6.072080e-05
-3.340344e-05
1.815732e-05
1.044790e-04
2.393379e-04
4.404049e-04
7.298597e-04
1.134887e-03
1.687900e-03
2.426257e-03
3.391081e-03
4.624655e-03
6.165570e-03
8.040558e-03
1.025165e-02
1.275744e-02
1.544814e-02
1.811776e-02
2.044363e-02
2.199626e-02
2.231114e-02
2.104337e-02
1.817228e-02
1.415114e-02
0.000000e+00
5.745637e-03
1.170613e-02
1.785188e-02
2.410613e-02
3.037126e-02
3.655544e-02
4.258855e-02
4.842613e-02
5.404542e-02
5.943917e-02
6.461021e-02
6.956791e-02
7.432632e-02
7.890343e-02
8.332096e-02
8.760445e-02
9.178296e-02
9.588836e-02
9.995345e-02
1.040086e-01
1.080762e-01
1.121619e-01
1.162432e-01
1.202536e-01
1.240667e-01
1.274827e-01
1.302303e-01
1.319957e-01
1.324955e-01
1.315903e-01
1.294093e-01
1.264248e-01
0.000000e+00
1.158857e-02
2.363340e-02
3.605909e-02
4.868906e-02
6.131156e-02
7.373777e-02
8.583155e-02
9.751016e-02
1.087318e-01
1.194808e-01
1.297569e-01
1.395686e-01
1.489289e-01
1.578544e-01
1.663640e-01
1.744789e-01
1.822225e-01
1.896186e-01
1.966902e-01
2.034556e-01
2.099234e-01
2.160849e-01
2.219043e-01
2.273087e-01
2.321781e-01
2.363432e-01
2.395963e-01
2.417255e-01
2.425769e-01
2.421392e-01
2.406300e-01
2.385470e-01
0.000000e+00
1.762118e-02
3.599564e-02
5.495927e-02
7.418465e-02
9.331333e-02
1.120613e-01
1.302449e-01
1.477652e-01
1.645764e-01
1.806633e-01
1.960260e-01
2.106726e-01
2.246144e-01
2.378645e-01
2.504369e-01
2.623465e-01
2.736083e-01
2.842369e-01
2.942444e-01
3.036379e-01
3.124152e-01
3.205592e-01
3.280317e-01
3.347664e-01
3.406657e-01
3.456022e-01
3.494335e-01
3.520317e-01
3.533336e-01
3.534069e-01
3.525216e-01
3.512051e-01
0.000000e+00
2.398640e-02
4.911495e-02
7.504536e-02
1.011856e-01
1.270044e-01
1.521457e-01
1.764298e-01
1.997752e-01
2.221516e-01
2.435525e-01
2.639815e-01
2.834459e-01
3.019539e-01
3.195133e-01
3.361311e-01
3.518137e-01
3.665662e-01
3.803921e-01
3.932922e-01
4.052624e-01
4.162918e-01
4.263592e-01
4.354298e-01
4.434525e-01
4.503602e-01
4.560736e-01
4.605140e-01
4.636260e-01
4.654139e-01
4.659938e-01
4.656614e-01
4.649679e-01
0.000000e+00
3.091336e-02
6.353389e-02
9.704716e-02
1.304817e-01
1.631060e-01
1.946406e-01
2.249845e-01
2.541096e-01
2.820133e-01
3.087006e-01
3.341776e-01
3.584491e-01
3.815177e-01
4.033839e-01
4.240459e-01
4.434997e-01
4.617389e-01
4.787547e-01
4.945349e-01
5.090635e-01
5.223204e-01
5.342803e-01
5.449131e-01
5.541848e-01
5.620607e-01
5.685113e-01
5.735220e-01
5.771081e-01
5.793367e-01
5.803618e-01
5.804841e-01
5.802540e-01
0.000000e+00
3.896937e-02
8.022889e-02
1.222386e-01
1.630607e-01
2.023802e-01
2.401713e-01
2.764683e-01
3.113011e-01
3.446882e-01
3.766383e-01
4.071542e-01
4.362336e-01
4.638711e-01
4.900579e-01
5.147823e-01
5.380290e-01
5.597789e-01
5.800091e-01
5.986927e-01
6.157989e-01
6.312945e-01
6.451458e-01
6.573217e-01
6.677992e-01
6.765703e-01
6.836509e-01
6.890908e-01
6.929840e-01
6.954776e-01
6.967828e-01
6.972079e-01
6.972586e-01
0.000000e+00
4.913265e-02
1.022279e-01
1.522944e-01
1.998861e-01
2.454558e-01
2.892434e-01
3.313528e-01
3.718233e-01
4.106642e-01
4.478711e-01
4.834337e-01
5.173386e-01
5.495703e-01
5.801103e-01
6.089371e-01
6.360242e-01
6.613398e-01
6.848459e-01
7.064980e-01
7.262463e-01
7.440375e-01
7.598192e-01
7.735461e-01
7.851896e-01
7.947504e-01
8.022738e-01
8.078656e-01
8.117068e-01
8.140605e-01
8.152630e-01
8.156990e-01
8.158058e-01
0.000000e+00
7.327249e-02
1.329550e-01
1.882526e-01
2.413321e-01
2.925979e-01
3.421529e-01
3.899924e-01
4.360846e-01
4.803926e-01
5.228823e-01
5.635240e-01
6.022917e-01
6.391605e-01
6.741047e-01
7.070952e-01
7.380967e-01
7.670661e-01
7.939505e-01
8.186861e-01
8.411985e-01
8.614047e-01
8.792181e-01
8.945570e-01
9.073581e-01
9.175955e-01
9.253056e-01
9.306172e-01
9.337830e-01
9.352096e-01
9.354688e-01
9.352541e-01
9.351332e-01
0.000000e+00
-4.526679e-02
-7.900063e-02
-1.158126e-01
-1.568051e-01
-2.031102e-01
-2.550498e-01
-3.127141e-01
-3.760457e-01
-4.449088e-01
-5.191211e-01
-5.984725e-01
-6.827365e-01
-7.716775e-01
-8.650549e-01
-9.626264e-01
-1.064151e+00
-1.169393e+00
-1.278123e+00
-1.390126e+00
-1.505207e+00
-1.623202e+00
-1.743994e+00
-1.867536e+00
-1.993890e+00
-2.123289e+00
-2.256249e+00
-2.393773e+00
-2.537781e+00
-2.692074e+00
-2.864854e+00
-3.075472e+00
-3.366447e+00
0.000000e+00
-2.813160e-02
-6.344204e-02
-1.005023e-01
-1.420660e-01
-1.888741e-01
-2.413182e-01
-2.994872e-01
-3.633284e-01
-4.327063e-01
-5.074372e-01
-5.873095e-01
-6.720948e-01
-7.615555e-01
-8.554487e-01
-9.535297e-01
-1.055555e+00
-1.161284e+00
-1.270484e+00
-1.382935e+00
-1.498434e+00
-1.616810e+00
-1.737933e+00
-1.861745e+00
-1.988290e+00
-2.117780e+00
-2.250704e+00
-2.388034e+00
-2.531649e+00
-2.685287e+00
-2.856732e+00
-3.062662e+00
-3.334508e+00
0.000000e+00
-2.066431e-02
-5.114676e-02
-8.770138e-02
-1.293376e-01
-1.764905e-01
-2.293485e-01
-2.879608e-01
-3.522566e-01
-4.220941e-01
-4.972864e-01
-5.776203e-01
-6.628663e-01
-7.527860e-01
-8.471355e-01
-9.456694e-01
-1.048143e+00
-1.154314e+00
-1.263948e+00
-1.376824e+00
-1.492737e+00
-1.611513e+00
-1.733025e+00
-1.857213e+00
-1.984130e+00
-2.113997e+00
-2.247326e+00
-2.385113e+00
-2.529215e+00
-2.682998e+00
-2.852213e+00
-3.043655e+00
-3.256021e+00
0.000000e+00
-1.654718e-02
-4.331109e-02
-7.791641e-02
-1.190175e-01
-1.661557e-01
-2.192398e-01
-2.781802e-01
-3.428503e-01
-4.130816e-01
-4.886756e-01
-5.694137e-01
-6.550646e-01
-7.453893e-01
-8.401442e-01
-9.390846e-01
-1.041966e+00
-1.148548e+00
-1.258598e+00
-1.371894e+00
-1.488236e+00
-1.607455e+00
-1.729428e+00
-1.854106e+00
-1.981552e+00
-2.112002e+00
-2.245959e+00
-2.384342e+00
-2.528672e+00
-2.681165e+00
-2.843945e+00
-3.015626e+00
-3.175444e+00
0.000000e+00
-1.400173e-02
-3.818687e-02
-7.096795e-02
-1.111321e-01
-1.579612e-01
-2.110652e-01
-2.701971e-01
-3.351435e-01
-4.056919e-01
-4.816218e-01
-5.627045e-01
-6.487044e-01
-7.393818e-01
-8.344943e-01
-9.337985e-01
-1.037053e+00
-1.144019e+00
-1.254468e+00
-1.368181e+00
-1.484964e+00
-1.604651e+00
-1.727126e+00
-1.852342e+00
-1.980358e+00
-2.111381e+00
-2.245821e+00
-2.384340e+00
-2.527811e+00
-2.676939e+00
-2.831012e+00
-2.984374e+00
-3.123558e+00
0.000000e+00
-1.238204e-02
-3.482475e-02
-6.618634e-02
-1.054463e-01
-1.518368e-01
-2.048252e-01
-2.640328e-01
-3.291610e-01
-3.999471e-01
-4.761432e-01
-5.575070e-01
-6.437974e-01
-7.347734e-01
-8.301936e-01
-9.298175e-01
-1.033406e+00
-1.140726e+00
-1.251549e+00
-1.365664e+00
-1.482875e+00
-1.603021e+00
-1.725980e+00
-1.851692e+00
-1.980182e+00
-2.111571e+00
-2.246092e+00
-2.384035e+00
-2.525560e+00
-2.670190e+00
-2.815720e+00
-2.956952e+00
-3.086037e+00
0.000000e+00
-1.137542e-02
-3.269906e-02
-6.307820e-02
-1.016373e-01
-1.476280e-01
-2.004591e-01
-2.596741e-01
-3.249097e-01
-3.958603e-01
-4.722526e-01
-5.538312e-01
-6.403495e-01
-7.315654e-01
-8.272389e-01
-9.271321e-01
-1.031010e+00
-1.138640e+00
-1.249800e+00
-1.364278e+00
-1.481877e+00
-1.602429e+00
-1.725796e+00
-1.851886e+00
-1.980655e+00
-2.112106e+00
-2.246250e+00
-2.383009e+00
-2.521992e+00
-2.662064e+00
-2.800804e+00
-2.934210e+00
-3.057382e+00
0.000000e+00
-1.082227e-02
-3.151956e-02
-6.132670e-02
-9.945320e-02
-1.451764e-01
-1.978863e-01
-2.570882e-01
-3.223819e-01
-3.934342e-01
-4.699551e-01
-5.516802e-01
-6.383595e-01
-7.297508e-01
-8.256161e-01
-9.257200e-01
-1.029830e+00
-1.137717e+00
-1.249157e+00
-1.363938e+00
-1.481856e+00
-1.602726e+00
-1.726384e+00
-1.852687e+00
-1.981509e+00
-2.112717e+00
-2.246117e+00
-2.381347e+00
-2.517684e+00
-2.653788e+00
-2.787472e+00
-2.915728e+00
-3.035211e+00
0.000000e+00
-1.064404e-02
-3.113903e-02
-6.075902e-02
-9.874136e-02
-1.443740e-01
-1.970435e-01
-2.562445e-01
-3.215657e-01
-3.926656e-01
-4.692492e-01
-5.510503e-01
-6.378194e-01
-7.293158e-01
-8.253037e-01
-9.255503e-01
-1.029825e+00
-1.137899e+00
-1.249548e+00
-1.364551e+00
-1.482696e+00
-1.603774e+00
-1.727585e+00
-1.853929e+00
-1.982593e+00
-2.113320e+00
-2.245756e+00
-2.379355e+00
-2.513253e+00
-2.646132e+00
-2.776142e+00
-2.900988e+00
-3.018219e+00
0.000000e+00
-1.081711e-02
-3.151242e-02
-6.132054e-02
-9.945134e-02
-1.451829e-01
-1.979066e-01
-2.571295e-01
-3.224537e-01
-3.935489e-01
-4.701287e-01
-5.519327e-01
-6.387159e-01
-7.302411e-01
-8.262753e-01
-9.265876e-01
-1.030948e+00
-1.139129e+00
-1.250900e+00
-1.366033e+00
-1.484299e+00
-1.605466e+00
-1.729292e+00
-1.855521e+00
-1.983861e+00
-2.113955e+00
-2.245338e+00
-2.377368e+00
-2.509157e+00
-2.639506e+00
-2.766888e+00
-2.889528e+00
-3.005555e+00
0.000000e+00
-1.136553e-02
-3.268534e-02
-6.306633e-02
-1.016336e-01
-1.476403e-01
-2.004977e-01
-2.597528e-01
-3.250468e-01
-3.960796e-01
-4.725848e-01
-5.543149e-01
-6.410326e-01
-7.325054e-01
-8.285033e-01
-9.287972e-01
-1.033158e+00
-1.141353e+00
-1.253151e+00
-1.368311e+00
-1.486589e+00
-1.607725e+00
-1.731442e+00
-1.857429e+00
-1.985331e+00
-2.114718e+00
-2.245054e+00
-2.375664e+00
-2.505694e+00
-2.634094e+00
-2.759630e+00
-2.880932e+00
-2.996565e+00
0.000000e+00
-1.236829e-02
-3.480568e-02
-6.616976e-02
-1.054410e-01
-1.518536e-01
-2.048787e-01
-2.641422e-01
-3.293519e-01
-4.002528e-01
-4.766068e-01
-5.581827e-01
-6.447521e-01
-7.360880e-01
-8.319630e-01
-9.321488e-01
-1.036415e+00
-1.144529e+00
-1.256251e+00
-1.371332e+00
-1.489511e+00
-1.610505e+00
-1.734004e+00
-1.859655e+00
-1.987052e+00
-2.115715e+00
-2.245072e+00
-2.374444e+00
-2.503036e+00
-2.629950e+00
-2.754212e+00
-2.874801e+00
-2.990672e+00
0.000000e+00
-1.398553e-02
-3.816441e-02
-7.094841e-02
-1.111259e-01
-1.579815e-01
-2.111296e-01
-2.703291e-01
-3.353739e-01
-4.060612e-01
-4.821820e-01
-5.635213e-01
-6.498590e-01
-7.409721e-01
-8.366352e-01
-9.366205e-01
-1.040697e+00
-1.148627e+00
-1.260168e+00
-1.375062e+00
-1.493034e+00
-1.613782e+00
-1.736970e+00
-1.862215e+00
-1.989074e+00
-2.117036e+00
-2.245510e+00
-2.373828e+00
-2.501259e+00
-2.627042e+00
-2.750430e+00
-2.870730e+00
-2.987299e+00
0.000000e+00
-1.653053e-02
-4.328803e-02
-7.789654e-02
-1.190122e-01
-1.661796e-01
-2.193124e-01
-2.783276e-01
-3.431066e-01
-4.134915e-01
-4.892966e-01
-5.703183e-01
-6.563423e-01
-7.471479e-01
-8.425105e-01
-9.422018e-01
-1.045989e+00
-1.153634e+00
-1.264888e+00
-1.379487e+00
-1.497146e+00
-1.617550e+00
-1.740345e+00
-1.865127e+00
-1.991432e+00
-2.118730e+00
-2.246424e+00
-2.373861e+00
-2.500363e+00
-2.625278e+00
-2.748052e+00
-2.868300e+00
-2.985830e+00
0.000000e+00
-2.064981e-02
-5.112656e-02
-8.768460e-02
-1.293360e-01
-1.765196e-01
-2.294288e-01
-2.881192e-01
-3.525289e-01
-4.225265e-01
-4.979384e-01
-5.785665e-01
-6.641988e-01
-7.546153e-01
-8.495911e-01
-9.488971e-01
-1.052300e+00
-1.159557e+00
-1.270418e+00
-1.384615e+00
-1.501855e+00
-1.621817e+00
-1.744137e+00
-1.868400e+00
-1.994133e+00
-2.120798e+00
-2.247800e+00
-2.374502e+00
-2.500262e+00
-2.624506e+00
-2.746819e+00
-2.867078e+00
-2.985573e+00
0.000000e+00
-2.812228e-02
-6.342829e-02
-1.004924e-01
-1.420721e-01
-1.889120e-01
-2.414086e-01
-2.996572e-01
-3.636136e-01
-4.331526e-01
-5.081032e-01
-5.882683e-01
-6.734363e-01
-7.633866e-01
-8.578936e-01
-9.567271e-01
-1.059652e+00
-1.166424e+00
-1.276791e+00
-1.390480e+00
-1.507196e+00
-1.626615e+00
-1.748369e+00
-1.872041e+00
-1.997158e+00
-2.123186e+00
-2.249539e+00
-2.375598e+00
-2.500752e+00
-2.624470e+00
-2.746417e+00
-2.866636e+00
-2.985791e+00
0.000000e+00
-4.526546e-02
-7.899604e-02
-1.158135e-01
-1.568236e-01
-2.031623e-01
-2.551561e-01
-3.129015e-01
-3.763490e-01
-4.453727e-01
-5.198019e-01
-5.994400e-01
-6.840752e-01
-7.734871e-01
-8.674491e-01
-9.657297e-01
-1.068092e+00
-1.174289e+00
-1.284066e+00
-1.397147e+00
-1.513237e+00
-1.632005e+00
-1.753087e+00