TITLE = "Solution"
VARIABLES = x, y, u, v, psiu, psiv, t, stress
ZONE T="structure" N=561 E=512 F=FEBLOCK ET=QUADRILATERAL VARLOCATION=([7,8]=cellcentered)
0.000000e+00
6.250000e+00
1.250000e+01
1.875000e+01
2.500000e+01
3.125000e+01
3.750000e+01
4.375000e+01
5.000000e+01
5.625000e+01
6.250000e+01
6.875000e+01
7.500000e+01
8.125000e+01
8.750000e+01
9.375000e+01
1.000000e+02
1.062500e+02
1.125000e+02
1.187500e+02
1.250000e+02
1.312500e+02
1.375000e+02
1.437500e+02
1.500000e+02
1.562500e+02
1.625000e+02
1.687500e+02
1.750000e+02
1.812500e+02
1.875000e+02
1.937500e+02
2.000000e+02
0.000000e+00
6.250000e+00
1.250000e+01
1.875000e+01
2.500000e+01
3.125000e+01
3.750000e+01
4.375000e+01
5.000000e+01
5.625000e+01
6.250000e+01
6.875000e+01
7.500000e+01
8.125000e+01
8.750000e+01
9.375000e+01
1.000000e+02
1.062500e+02
1.125000e+02
1.187500e+02
1.250000e+02
1.312500e+02
1.375000e+02
1.437500e+02
1.500000e+02
1.562500e+02
1.625000e+02
1.687500e+02
1.750000e+02
1.812500e+02
1.875000e+02
1.937500e+02
2.000000e+02
0.000000e+00
6.250000e+00
1.250000e+01
1.875000e+01
2.500000e+01
3.125000e+01
3.750000e+01
4.375000e+01
5.000000e+01
5.625000e+01
6.250000e+01
6.875000e+01
7.500000e+01
8.125000e+01
8.750000e+01
9.375000e+01
1.000000e+02
1.062500e+02
1.125000e+02
1.187500e+02
1.250000e+02
1.312500e+02
1.375000e+02
1.437500e+02
1.500000e+02
1.562500e+02
1.625000e+02
1.687500e+02
1.750000e+02
1.812500e+02
1.875000e+02
1.937500e+02
2.000000e+02
0.000000e+00
6.250000e+00
1.250000e+01
1.875000e+01
2.500000e+01
3.125000e+01
3.750000e+01
4.375000e+01
5.000000e+01
5.625000e+01
6.250000e+01
6.875000e+01
7.500000e+01
8.125000e+01
8.750000e+01
9.375000e+01
1.000000e+02
1.062500e+02
1.125000e+02
1.187500e+02
1.250000e+02
1.312500e+02
1.375000e+02
1.437500e+02
1.500000e+02
1.562500e+02
1.625000e+02
1.687500e+02
1.750000e+02
1.812500e+02
1.875000e+02
1.937500e+02
2.000000e+02
0.000000e+00
6.250000e+00
1.250000e+01
1.875000e+01
2.500000e+01
3.125000e+01
3.750000e+01
4.375000e+01
5.000000e+01
5.625000e+01
6.250000e+01
6.875000e+01
7.500000e+01
8.125000e+01
8.750000e+01
9.375000e+01
1.000000e+02
1.062500e+02
1.125000e+02
1.187500e+02
1.250000e+02
1.312500e+02
1.375000e+02
1.437500e+02
1.500000e+02
1.562500e+02
1.625000e+02
1.687500e+02
1.750000e+02
1.812500e+02
1.875000e+02
1.937500e+02
2.000000e+02
0.000000e+00
6.250000e+00
1.250000e+01
1.875000e+01
2.500000e+01
3.125000e+01
3.750000e+01
4.375000e+01
5.000000e+01
5.625000e+01
6.250000e+01
6.875000e+01
7.500000e+01
8.125000e+01
8.750000e+01
9.375000e+01
1.000000e+02
1.062500e+02
1.125000e+02
1.187500e+02
1.250000e+02
1.312500e+02
1.375000e+02
1.437500e+02
1.500000e+02
1.562500e+02
1.625000e+02
1.687500e+02
1.750000e+02
1.812500e+02
1.875000e+02
1.937500e+02
2.000000e+02
0.000000e+00
6.250000e+00
1.250000e+01
1.875000e+01
2.500000e+01
3.125000e+01
3.750000e+01
4.375000e+01
5.000000e+01
5.625000e+01
6.250000e+01
6.875000e+01
7.500000e+01
8.125000e+01
8.750000e+01
9.375000e+01
1.000000e+02
1.062500e+02
1.125000e+02
1.187500e+02
1.250000e+02
1.312500e+02
1.375000e+02
1.437500e+02
1.500000e+02
1.562500e+02
1.625000e+02
1.687500e+02
1.750000e+02
1.812500e+02
1.875000e+02
1.937500e+02
2.000000e+02
0.000000e+00
6.250000e+00
1.250000e+01
1.875000e+01
2.500000e+01
3.125000e+01
3.750000e+01
4.375000e+01
5.000000e+01
5.625000e+01
6.250000e+01
6.875000e+01
7.500000e+01
8.125000e+01
8.750000e+01
9.375000e+01
1.000000e+02
1.062500e+02
1.125000e+02
1.187500e+02
1.250000e+02
1.312500e+02
1.375000e+02
1.437500e+02
1.500000e+02
1.562500e+02
1.625000e+02
1.687500e+02
1.750000e+02
1.812500e+02
1.875000e+02
1.937500e+02
2.000000e+02
0.000000e+00
6.250000e+00
1.250000e+01
1.875000e+01
2.500000e+01
3.125000e+01
3.750000e+01
4.375000e+01
5.000000e+01
5.625000e+01
6.250000e+01
6.875000e+01
7.500000e+01
8.125000e+01
8.750000e+01
9.375000e+01
1.000000e+02
1.062500e+02
1.125000e+02
1.187500e+02
1.250000e+02
1.312500e+02
1.375000e+02
1.437500e+02
1.500000e+02
1.562500e+02
1.625000e+02
1.687500e+02
1.750000e+02
1.812500e+02
1.875000e+02
1.937500e+02
2.000000e+02
0.000000e+00
6.250000e+00
1.250000e+01
1.875000e+01
2.500000e+01
3.125000e+01
3.750000e+01
4.375000e+01
5.000000e+01
5.625000e+01
6.250000e+01
6.875000e+01
7.500000e+01
8.125000e+01
8.750000e+01
9.375000e+01
1.000000e+02
1.062500e+02
1.125000e+02
1.187500e+02
1.250000e+02
1.312500e+02
1.375000e+02
1.437500e+02
1.500000e+02
1.562500e+02
1.625000e+02
1.687500e+02
1.750000e+02
1.812500e+02
1.875000e+02
1.937500e+02
2.000000e+02
0.000000e+00
6.250000e+00
1.250000e+01
1.875000e+01
2.500000e+01
3.125000e+01
3.750000e+01
4.375000e+01
5.000000e+01
5.625000e+01
6.250000e+01
6.875000e+01
7.500000e+01
8.125000e+01
8.750000e+01
9.375000e+01
1.000000e+02
1.062500e+02
1.125000e+02
1.187500e+02
1.250000e+02
1.312500e+02
1.375000e+02
1.437500e+02
1.500000e+02
1.562500e+02
1.625000e+02
1.687500e+02
1.750000e+02
1.812500e+02
1.875000e+02
1.937500e+02
2.000000e+02
0.000000e+00
6.250000e+00
1.250000e+01
1.875000e+01
2.500000e+01
3.125000e+01
3.750000e+01
4.375000e+01
5.000000e+01
5.625000e+01
6.250000e+01
6.875000e+01
7.500000e+01
8.125000e+01
8.750000e+01
9.375000e+01
1.000000e+02
1.062500e+02
1.125000e+02
1.187500e+02
1.250000e+02
1.312500e+02
1.375000e+02
1.437500e+02
1.500000e+02
1.562500e+02
1.625000e+02
1.687500e+02
1.750000e+02
1.812500e+02
1.875000e+02
1.937500e+02
2.000000e+02
0.000000e+00
6.250000e+00
1.250000e+01
1.875000e+01
2.500000e+01
3.125000e+01
3.750000e+01
4.375000e+01
5.000000e+01
5.625000e+01
6.250000e+01
6.875000e+01
7.500000e+01
8.125000e+01
8.750000e+01
9.375000e+01
1.000000e+02
1.062500e+02
1.125000e+02
1.187500e+02
1.250000e+02
1.312500e+02
1.375000e+02
1.437500e+02
1.500000e+02
1.562500e+02
1.625000e+02
1.687500e+02
1.750000e+02
1.812500e+02
1.875000e+02
1.937500e+02
2.000000e+02
0.000000e+00
6.250000e+00
1.250000e+01
1.875000e+01
2.500000e+01
3.125000e+01
3.750000e+01
4.375000e+01
5.000000e+01
5.625000e+01
6.250000e+01
6.875000e+01
7.500000e+01
8.125000e+01
8.750000e+01
9.375000e+01
1.000000e+02
1.062500e+02
1.125000e+02
1.187500e+02
1.250000e+02
1.312500e+02
1.375000e+02
1.437500e+02
1.500000e+02
1.562500e+02
1.625000e+02
1.687500e+02
1.750000e+02
1.812500e+02
1.875000e+02
1.937500e+02
2.000000e+02
0.000000e+00
6.250000e+00
1.250000e+01
1.875000e+01
2.500000e+01
3.125000e+01
3.750000e+01
4.375000e+01
5.000000e+01
5.625000e+01
6.250000e+01
6.875000e+01
7.500000e+01
8.125000e+01
8.750000e+01
9.375000e+01
1.000000e+02
1.062500e+02
1.125000e+02
1.187500e+02
1.250000e+02
1.312500e+02
1.375000e+02
1.437500e+02
1.500000e+02
1.562500e+02
1.625000e+02
1.687500e+02
1.750000e+02
1.812500e+02
1.875000e+02
1.937500e+02
2.000000e+02
0.000000e+00
6.250000e+00
1.250000e+01
1.875000e+01
2.500000e+01
3.125000e+01
3.750000e+01
4.375000e+01
5.000000e+01
5.625000e+01
6.250000e+01
6.875000e+01
7.500000e+01
8.125000e+01
8.750000e+01
9.375000e+01
1.000000e+02
1.062500e+02
1.125000e+02
1.187500e+02
1.250000e+02
1.312500e+02
1.375000e+02
1.437500e+02
1.500000e+02
1.562500e+02
1.625000e+02
1.687500e+02
1.750000e+02
1.812500e+02
1.875000e+02
1.937500e+02
2.000000e+02
0.000000e+00
6.250000e+00
1.250000e+01
1.875000e+01
2.500000e+01
3.125000e+01
3.750000e+01
4.375000e+01
5.000000e+01
5.625000e+01
6.250000e+01
6.875000e+01
7.500000e+01
8.125000e+01
8.750000e+01
9.375000e+01
1.000000e+02
1.062500e+02
1.125000e+02
1.187500e+02
1.250000e+02
1.312500e+02
1.375000e+02
1.437500e+02
1.500000e+02
1.562500e+02
1.625000e+02
1.687500e+02
1.750000e+02
1.812500e+02
1.875000e+02
1.937500e+02
2.000000e+02
0.000000e+00
0.000000e+00
0.000000e+00
0.000000e+00
0.000000e+00
0.000000e+00
0.000000e+00
0.000000e+00
0.000000e+00
0.000000e+00
0.000000e+00
0.000000e+00
0.000000e+00
0.000000e+00
0.000000e+00
0.000000e+00
0.000000e+00
0.000000e+00
0.000000e+00
0.000000e+00
0.000000e+00
0.000000e+00
0.000000e+00
0.000000e+00
0.000000e+00
0.000000e+00
0.000000e+00
0.000000e+00
0.000000e+00
0.000000e+00
0.000000e+00
0.000000e+00
0.000000e+00
6.250000e+00
6.250000e+00
6.250000e+00
6.250000e+00
6.250000e+00
6.250000e+00
6.250000e+00
6.250000e+00
6.250000e+00
6.250000e+00
6.250000e+00
6.250000e+00
6.250000e+00
6.250000e+00
6.250000e+00
6.250000e+00
6.250000e+00
6.250000e+00
6.250000e+00
6.250000e+00
6.250000e+00
6.250000e+00
6.250000e+00
6.250000e+00
6.250000e+00
6.250000e+00
6.250000e+00
6.250000e+00
6.250000e+00
6.250000e+00
6.250000e+00
6.250000e+00
6.250000e+00
1.250000e+01
1.250000e+01
1.250000e+01
1.250000e+01
1.250000e+01
1.250000e+01
1.250000e+01
1.250000e+01
1.250000e+01
1.250000e+01
1.250000e+01
1.250000e+01
1.250000e+01
1.250000e+01
1.250000e+01
1.250000e+01
1.250000e+01
1.250000e+01
1.250000e+01
1.250000e+01
1.250000e+01
1.250000e+01
1.250000e+01
1.250000e+01
1.250000e+01
1.250000e+01
1.250000e+01
1.250000e+01
1.250000e+01
1.250000e+01
1.250000e+01
1.250000e+01
1.250000e+01
1.875000e+01
1.875000e+01
1.875000e+01
1.875000e+01
1.875000e+01
1.875000e+01
1.875000e+01
1.875000e+01
1.875000e+01
1.875000e+01
1.875000e+01
1.875000e+01
1.875000e+01
1.875000e+01
1.875000e+01
1.875000e+01
1.875000e+01
1.875000e+01
1.875000e+01
1.875000e+01
1.875000e+01
1.875000e+01
1.875000e+01
1.875000e+01
1.875000e+01
1.875000e+01
1.875000e+01
1.875000e+01
1.875000e+01
1.875000e+01
1.875000e+01
1.875000e+01
1.875000e+01
2.500000e+01
2.500000e+01
2.500000e+01
2.500000e+01
2.500000e+01
2.500000e+01
2.500000e+01
2.500000e+01
2.500000e+01
2.500000e+01
2.500000e+01
2.500000e+01
2.500000e+01
2.500000e+01
2.500000e+01
2.500000e+01
2.500000e+01
2.500000e+01
2.500000e+01
2.500000e+01
2.500000e+01
2.500000e+01
2.500000e+01
2.500000e+01
2.500000e+01
2.500000e+01
2.500000e+01
2.500000e+01
2.500000e+01
2.500000e+01
2.500000e+01
2.500000e+01
2.500000e+01
3.125000e+01
3.125000e+01
3.125000e+01
3.125000e+01
3.125000e+01
3.125000e+01
3.125000e+01
3.125000e+01
3.125000e+01
3.125000e+01
3.125000e+01
3.125000e+01
3.125000e+01
3.125000e+01
3.125000e+01
3.125000e+01
3.125000e+01
3.125000e+01
3.125000e+01
3.125000e+01
3.125000e+01
3.125000e+01
3.125000e+01
3.125000e+01
3.125000e+01
3.125000e+01
3.125000e+01
3.125000e+01
3.125000e+01
3.125000e+01
3.125000e+01
3.125000e+01
3.125000e+01
3.750000e+01
3.750000e+01
3.750000e+01
3.750000e+01
3.750000e+01
3.750000e+01
3.750000e+01
3.750000e+01
3.750000e+01
3.750000e+01
3.750000e+01
3.750000e+01
3.750000e+01
3.750000e+01
3.750000e+01
3.750000e+01
3.750000e+01
3.750000e+01
3.750000e+01
3.750000e+01
3.750000e+01
3.750000e+01
3.750000e+01
3.750000e+01
3.750000e+01
3.750000e+01
3.750000e+01
3.750000e+01
3.750000e+01
3.750000e+01
3.750000e+01
3.750000e+01
3.750000e+01
4.375000e+01
4.375000e+01
4.375000e+01
4.375000e+01
4.375000e+01
4.375000e+01
4.375000e+01
4.375000e+01
4.375000e+01
4.375000e+01
4.375000e+01
4.375000e+01
4.375000e+01
4.375000e+01
4.375000e+01
4.375000e+01
4.375000e+01
4.375000e+01
4.375000e+01
4.375000e+01
4.375000e+01
4.375000e+01
4.375000e+01
4.375000e+01
4.375000e+01
4.375000e+01
4.375000e+01
4.375000e+01
4.375000e+01
4.375000e+01
4.375000e+01
4.375000e+01
4.375000e+01
5.000000e+01
5.000000e+01
5.000000e+01
5.000000e+01
5.000000e+01
5.000000e+01
5.000000e+01
5.000000e+01
5.000000e+01
5.000000e+01
5.000000e+01
5.000000e+01
5.000000e+01
5.000000e+01
5.000000e+01
5.000000e+01
5.000000e+01
5.000000e+01
5.000000e+01
5.000000e+01
5.000000e+01
5.000000e+01
5.000000e+01
5.000000e+01
5.000000e+01
5.000000e+01
5.000000e+01
5.000000e+01
5.000000e+01
5.000000e+01
5.000000e+01
5.000000e+01
5.000000e+01
5.625000e+01
5.625000e+01
5.625000e+01
5.625000e+01
5.625000e+01
5.625000e+01
5.625000e+01
5.625000e+01
5.625000e+01
5.625000e+01
5.625000e+01
5.625000e+01
5.625000e+01
5.625000e+01
5.625000e+01
5.625000e+01
5.625000e+01
5.625000e+01
5.625000e+01
5.625000e+01
5.625000e+01
5.625000e+01
5.625000e+01
5.625000e+01
5.625000e+01
5.625000e+01
5.625000e+01
5.625000e+01
5.625000e+01
5.625000e+01
5.625000e+01
5.625000e+01
5.625000e+01
6.250000e+01
6.250000e+01
6.250000e+01
6.250000e+01
6.250000e+01
6.250000e+01
6.250000e+01
6.250000e+01
6.250000e+01
6.250000e+01
6.250000e+01
6.250000e+01
6.250000e+01
6.250000e+01
6.250000e+01
6.250000e+01
6.250000e+01
6.250000e+01
6.250000e+01
6.250000e+01
6.250000e+01
6.250000e+01
6.250000e+01
6.250000e+01
6.250000e+01
6.250000e+01
6.250000e+01
6.250000e+01
6.250000e+01
6.250000e+01
6.250000e+01
6.250000e+01
6.250000e+01
6.875000e+01
6.875000e+01
6.875000e+01
6.875000e+01
6.875000e+01
6.875000e+01
6.875000e+01
6.875000e+01
6.875000e+01
6.875000e+01
6.875000e+01
6.875000e+01
6.875000e+01
6.875000e+01
6.875000e+01
6.875000e+01
6.875000e+01
6.875000e+01
6.875000e+01
6.875000e+01
6.875000e+01
6.875000e+01
6.875000e+01
6.875000e+01
6.875000e+01
6.875000e+01
6.875000e+01
6.875000e+01
6.875000e+01
6.875000e+01
6.875000e+01
6.875000e+01
6.875000e+01
7.500000e+01
7.500000e+01
7.500000e+01
7.500000e+01
7.500000e+01
7.500000e+01
7.500000e+01
7.500000e+01
7.500000e+01
7.500000e+01
7.500000e+01
7.500000e+01
7.500000e+01
7.500000e+01
7.500000e+01
7.500000e+01
7.500000e+01
7.500000e+01
7.500000e+01
7.500000e+01
7.500000e+01
7.500000e+01
7.500000e+01
7.500000e+01
7.500000e+01
7.500000e+01
7.500000e+01
7.500000e+01
7.500000e+01
7.500000e+01
7.500000e+01
7.500000e+01
7.500000e+01
8.125000e+01
8.125000e+01
8.125000e+01
8.125000e+01
8.125000e+01
8.125000e+01
8.125000e+01
8.125000e+01
8.125000e+01
8.125000e+01
8.125000e+01
8.125000e+01
8.125000e+01
8.125000e+01
8.125000e+01
8.125000e+01
8.125000e+01
8.125000e+01
8.125000e+01
8.125000e+01
8.125000e+01
8.125000e+01
8.125000e+01
8.125000e+01
8.125000e+01
8.125000e+01
8.125000e+01
8.125000e+01
8.125000e+01
8.125000e+01
8.125000e+01
8.125000e+01
8.125000e+01
8.750000e+01
8.750000e+01
8.750000e+01
8.750000e+01
8.750000e+01
8.750000e+01
8.750000e+01
8.750000e+01
8.750000e+01
8.750000e+01
8.750000e+01
8.750000e+01
8.750000e+01
8.750000e+01
8.750000e+01
8.750000e+01
8.750000e+01
8.750000e+01
8.750000e+01
8.750000e+01
8.750000e+01
8.750000e+01
8.750000e+01
8.750000e+01
8.750000e+01
8.750000e+01
8.750000e+01
8.750000e+01
8.750000e+01
8.750000e+01
8.750000e+01
8.750000e+01
8.750000e+01
9.375000e+01
9.375000e+01
9.375000e+01
9.375000e+01
9.375000e+01
9.375000e+01
9.375000e+01
9.375000e+01
9.375000e+01
9.375000e+01
9.375000e+01
9.375000e+01
9.375000e+01
9.375000e+01
9.375000e+01
9.375000e+01
9.375000e+01
9.375000e+01
9.375000e+01
9.375000e+01
9.375000e+01
9.375000e+01
9.375000e+01
9.375000e+01
9.375000e+01
9.375000e+01
9.375000e+01
9.375000e+01
9.375000e+01
9.375000e+01
9.375000e+01
9.375000e+01
9.375000e+01
1.000000e+02
1.000000e+02
1.000000e+02
1.000000e+02
1.000000e+02
1.000000e+02
1.000000e+02
1.000000e+02
1.000000e+02
1.000000e+02
1.000000e+02
1.000000e+02
1.000000e+02
1.000000e+02
1.000000e+02
1.000000e+02
1.000000e+02
1.000000e+02
1.000000e+02
1.000000e+02
1.000000e+02
1.000000e+02
1.000000e+02
1.000000e+02
1.000000e+02
1.000000e+02
1.000000e+02
1.000000e+02
1.000000e+02
1.000000e+02
1.000000e+02
1.000000e+02
1.000000e+02
0.000000e+00
-4.723435e-01
-7.827461e-01
-1.122771e+00
-1.424401e+00
-1.716290e+00
-2.028291e+00
-2.315554e+00
-2.615227e+00
-2.908804e+00
-3.205856e+00
-3.505036e+00
-3.804472e+00
-4.103971e+00
-4.404184e+00
-4.705045e+00
-5.007851e+00
-5.311233e+00
-5.613840e+00
-5.916388e+00
-6.218464e+00
-6.520376e+00
-6.822665e+00
-7.119973e+00
-7.413300e+00
-7.718223e+00
-8.017398e+00
-8.348541e+00
-8.667426e+00
-9.020682e+00
-9.509932e+00
-9.926377e+00
-1.013048e+01
0.000000e+00
-2.335517e-01
-4.702199e-01
-7.357602e-01
-1.001737e+00
-1.254457e+00
-1.524367e+00
-1.784632e+00
-2.047175e+00
-2.312139e+00
-2.572680e+00
-2.837754e+00
-3.098180e+00
-3.362073e+00
-3.623419e+00
-3.885702e+00
-4.148239e+00
-4.408727e+00
-4.671835e+00
-4.931674e+00
-5.194201e+00
-5.454341e+00
-5.715911e+00
-5.976174e+00
-6.237289e+00
-6.498450e+00
-6.757827e+00
-7.022090e+00
-7.276351e+00
-7.533182e+00
-7.787714e+00
-7.888885e+00
-7.994703e+00
0.000000e+00
-1.027873e-01
-2.376885e-01
-4.342269e-01
-6.529726e-01
-8.602513e-01
-1.086024e+00
-1.313627e+00
-1.541008e+00
-1.772645e+00
-1.996705e+00
-2.223728e+00
-2.445997e+00
-2.671190e+00
-2.894881e+00
-3.117513e+00
-3.339902e+00
-3.560112e+00
-3.783767e+00
-4.005761e+00
-4.230834e+00
-4.454048e+00
-4.678463e+00
-4.907807e+00
-5.137773e+00
-5.360814e+00
-5.573044e+00
-5.770414e+00
-5.949943e+00
-6.098907e+00
-6.186601e+00
-6.192235e+00
-6.285120e+00
0.000000e+00
-1.024744e-01
-1.858848e-01
-3.413595e-01
-4.643781e-01
-6.188855e-01
-7.959713e-01
-9.655724e-01
-1.159078e+00
-1.336689e+00
-1.521693e+00
-1.704331e+00
-1.886031e+00
-2.071944e+00
-2.255911e+00
-2.441480e+00
-2.626279e+00
-2.812958e+00
-3.002745e+00
-3.194103e+00
-3.388238e+00
-3.581788e+00
-3.776390e+00
-3.971694e+00
-4.157711e+00
-4.331666e+00
-4.481003e+00
-4.613280e+00
-4.714123e+00
-4.777620e+00
-4.792758e+00
-4.810125e+00
-4.890569e+00
0.000000e+00
-9.306302e-02
-1.846578e-01
-2.756513e-01
-3.892260e-01
-5.049396e-01
-6.371637e-01
-7.715696e-01
-9.166235e-01
-1.057615e+00
-1.203823e+00
-1.349227e+00
-1.492519e+00
-1.642257e+00
-1.784969e+00
-1.935427e+00
-2.080763e+00
-2.230223e+00
-2.379911e+00
-2.528362e+00
-2.679195e+00
-2.825276e+00
-2.970110e+00
-3.107491e+00
-3.235940e+00
-3.350006e+00
-3.446954e+00
-3.520940e+00
-3.569492e+00
-3.593960e+00
-3.597392e+00
-3.627143e+00
-3.698508e+00
0.000000e+00
-7.446104e-02
-1.459592e-01
-2.209888e-01
-3.024738e-01
-3.920596e-01
-4.868590e-01
-5.881328e-01
-6.918917e-01
-7.997638e-01
-9.072129e-01
-1.016022e+00
-1.124793e+00
-1.232782e+00
-1.342257e+00
-1.450193e+00
-1.559571e+00
-1.667554e+00
-1.775387e+00
-1.881991e+00
-1.985962e+00
-2.087012e+00
-2.181885e+00
-2.269574e+00
-2.347198e+00
-2.412870e+00
-2.464221e+00
-2.499078e+00
-2.521696e+00
-2.522119e+00
-2.517363e+00
-2.543783e+00
-2.609613e+00
0.000000e+00
-5.129755e-02
-1.020433e-01
-1.539135e-01
-2.093989e-01
-2.687777e-01
-3.322086e-01
-3.986320e-01
-4.678674e-01
-5.385612e-01
-6.102577e-01
-6.820307e-01
-7.535838e-01
-8.249399e-01
-8.957544e-01
-9.664118e-01
-1.036219e+00
-1.105183e+00
-1.172583e+00
-1.237863e+00
-1.300174e+00
-1.358100e+00
-1.410287e+00
-1.454845e+00
-1.490827e+00
-1.515969e+00
-1.529996e+00
-1.535547e+00
-1.519172e+00
-1.489167e+00
-1.477855e+00
-1.501107e+00
-1.565342e+00
0.000000e+00
-2.704309e-02
-5.393349e-02
-8.140194e-02
-1.101602e-01
-1.406572e-01
-1.727697e-01
-2.063534e-01
-2.409889e-01
-2.763480e-01
-3.118759e-01
-3.472129e-01
-3.820692e-01
-4.162762e-01
-4.498211e-01
-4.825165e-01
-5.141756e-01
-5.443507e-01
-5.727056e-01
-5.987142e-01
-6.217020e-01
-6.408547e-01
-6.549044e-01
-6.628970e-01
-6.632183e-01
-6.566629e-01
-6.408486e-01
-6.022965e-01
-5.525387e-01
-5.009520e-01
-4.738926e-01
-4.969966e-01
-5.639751e-01
0.000000e+00
-1.999697e-03
-4.047692e-03
-6.057741e-03
-7.915545e-03
-9.494121e-03
-1.073106e-02
-1.163574e-02
-1.226312e-02
-1.259160e-02
-1.251143e-02
-1.186292e-02
-1.049633e-02
-8.249622e-03
-4.884073e-03
-3.056372e-04
5.734962e-03
1.368344e-02
2.359720e-02
3.535607e-02
4.960269e-02
6.656593e-02
8.585170e-02
1.103036e-01
1.407907e-01
1.822010e-01
2.427327e-01
3.151501e-01
3.886100e-01
4.395842e-01
4.553025e-01
4.228777e-01
3.427743e-01
0.000000e+00
2.319505e-02
4.616126e-02
6.977481e-02
9.499862e-02
1.225443e-01
1.524526e-01
1.844591e-01
2.180065e-01
2.526538e-01
2.880426e-01
3.240488e-01
3.606435e-01
3.983047e-01
4.375759e-01
4.788055e-01
5.225072e-01
5.683484e-01
6.162679e-01
6.656790e-01
7.154112e-01
7.666292e-01
8.222003e-01
8.816575e-01
9.491804e-01
1.032411e+00
1.122358e+00
1.214058e+00
1.288543e+00
1.332382e+00
1.329251e+00
1.283145e+00
1.220261e+00
0.000000e+00
4.785662e-02
9.517678e-02
1.437215e-01
1.962046e-01
2.533642e-01
3.153465e-01
3.810314e-01
4.496464e-01
5.198438e-01
5.907865e-01
6.615745e-01
7.323340e-01
8.038268e-01
8.772556e-01
9.544569e-01
1.035703e+00
1.119658e+00
1.205273e+00
1.291996e+00
1.381798e+00
1.471231e+00
1.563385e+00
1.666391e+00
1.775095e+00
1.885889e+00
1.995419e+00
2.084197e+00
2.148146e+00
2.174613e+00
2.166986e+00
2.137075e+00
2.092958e+00
0.000000e+00
7.146922e-02
1.402504e-01
2.129638e-01
2.925860e-01
3.811849e-01
4.763789e-01
5.776547e-01
6.820948e-01
7.899698e-01
8.981445e-01
1.006836e+00
1.114878e+00
1.223509e+00
1.333033e+00
1.443233e+00
1.557154e+00
1.674503e+00
1.794276e+00
1.917360e+00
2.045956e+00
2.182393e+00
2.324525e+00
2.466810e+00
2.605048e+00
2.734302e+00
2.846570e+00
2.935493e+00
2.990963e+00
3.018914e+00
3.022405e+00
3.004379e+00
2.976843e+00
0.000000e+00
9.025323e-02
1.792785e-01
2.693615e-01
3.836447e-01
5.027972e-01
6.353811e-01
7.728982e-01
9.167967e-01
1.059848e+00
1.206784e+00
1.353112e+00
1.500354e+00
1.651583e+00
1.802343e+00
1.957435e+00
2.112497e+00
2.272575e+00
2.438366e+00
2.604910e+00
2.774064e+00
2.946150e+00
3.116267e+00
3.280913e+00
3.433930e+00
3.575092e+00
3.696067e+00
3.786842e+00
3.853336e+00
3.892492e+00
3.905407e+00
3.898882e+00
3.884372e+00
0.000000e+00
9.866300e-02
1.795182e-01
3.322752e-01
4.600250e-01
6.232278e-01
8.053557e-01
9.747441e-01
1.168488e+00
1.345476e+00
1.528127e+00
1.708109e+00
1.890895e+00
2.080601e+00
2.274700e+00
2.476468e+00
2.680539e+00
2.886047e+00
3.096300e+00
3.309600e+00
3.519983e+00
3.724829e+00
3.921018e+00
4.105671e+00
4.280387e+00
4.437771e+00
4.573008e+00
4.679922e+00
4.756473e+00
4.804244e+00
4.826439e+00
4.829248e+00
4.824509e+00
0.000000e+00
1.004424e-01
2.311208e-01
4.196346e-01
6.369093e-01
8.474578e-01
1.078773e+00
1.310017e+00
1.539995e+00
1.774624e+00
1.998148e+00
2.223951e+00
2.445657e+00
2.672283e+00
2.900086e+00
3.131637e+00
3.365870e+00
3.597098e+00
3.828541e+00
4.061051e+00
4.295368e+00
4.524258e+00
4.744678e+00
4.965927e+00
5.177025e+00
5.363590e+00
5.513162e+00
5.627844e+00
5.710320e+00
5.763192e+00
5.790884e+00
5.799936e+00
5.801047e+00
0.000000e+00
2.337929e-01
4.714987e-01
7.363608e-01
1.001667e+00
1.253890e+00
1.523045e+00
1.783742e+00
2.045626e+00
2.310318e+00
2.570217e+00
2.834439e+00
3.093780e+00
3.355827e+00
3.615600e+00
3.875253e+00
4.135302e+00
4.392674e+00
4.650524e+00
4.904397e+00
5.159796e+00
5.413120e+00
5.666385e+00
5.924945e+00
6.169069e+00
6.369937e+00
6.527426e+00
6.644225e+00
6.724414e+00
6.773613e+00
6.798751e+00
6.807857e+00
6.810094e+00
0.000000e+00
4.735112e-01
7.900998e-01
1.135493e+00
1.440049e+00
1.729658e+00
2.037758e+00
2.322444e+00
2.619012e+00
2.910030e+00
3.205748e+00
3.505348e+00
3.802861e+00
4.100268e+00
4.393878e+00
4.684937e+00
4.972245e+00
5.261353e+00
5.551878e+00
5.839787e+00
6.127497e+00
6.415431e+00
6.707343e+00
7.000110e+00
7.265759e+00
7.476577e+00
7.634724e+00
7.743588e+00
7.808444e+00
7.837559e+00
7.842651e+00
7.838033e+00
7.835480e+00
0.000000e+00
-2.792543e-01
-5.897138e-01
-9.867621e-01
-1.419194e+00
-1.888999e+00
-2.399443e+00
-2.940524e+00
-3.517112e+00
-4.125103e+00
-4.766981e+00
-5.444882e+00
-6.159281e+00
-6.911808e+00
-7.701135e+00
-8.529002e+00
-9.395252e+00
-1.030177e+01
-1.124829e+01
-1.223445e+01
-1.326071e+01
-1.432666e+01
-1.543404e+01
-1.658116e+01
-1.776578e+01
-1.898949e+01
-2.025661e+01
-2.157777e+01
-2.295947e+01
-2.442220e+01
-2.598298e+01
-2.779098e+01
-3.032825e+01
0.000000e+00
-1.802251e-01
-5.092710e-01
-8.990029e-01
-1.338278e+00
-1.804560e+00
-2.314883e+00
-2.858109e+00
-3.432906e+00
-4.041988e+00
-4.682815e+00
-5.361039e+00
-6.075178e+00
-6.827927e+00
-7.617253e+00
-8.444830e+00
-9.311195e+00
-1.021739e+01
-1.116432e+01
-1.215025e+01
-1.317670e+01
-1.424229e+01
-1.534978e+01
-1.649772e+01
-1.768205e+01
-1.890531e+01
-2.017088e+01
-2.149040e+01
-2.287367e+01
-2.432728e+01
-2.590738e+01
-2.770261e+01
-2.995345e+01
0.000000e+00
-1.593357e-01
-4.501460e-01
-8.425281e-01
-1.271723e+00
-1.735661e+00
-2.243988e+00
-2.784983e+00
-3.361198e+00
-3.969022e+00
-4.611023e+00
-5.289340e+00
-6.003644e+00
-6.756488e+00
-7.546420e+00
-8.374087e+00
-9.241028e+00
-1.014685e+01
-1.109373e+01
-1.207950e+01
-1.310575e+01
-1.417107e+01
-1.527691e+01
-1.642428e+01
-1.760959e+01
-1.883568e+01
-2.010313e+01
-2.142777e+01
-2.281482e+01
-2.428889e+01
-2.591193e+01
-2.759655e+01
-2.934483e+01
0.000000e+00
-2.047699e-01
-4.501877e-01
-8.391615e-01
-1.237105e+00
-1.689954e+00
-2.196798e+00
-2.724647e+00
-3.307455e+00
-3.909388e+00
-4.554489e+00
-5.233166e+00
-5.945605e+00
-6.701394e+00
-7.488759e+00
-8.319635e+00
-9.184970e+00
-1.009124e+01
-1.103777e+01
-1.202219e+01
-1.304949e+01
-1.411340e+01
-1.521844e+01
-1.636549e+01
-1.755327e+01
-1.878556e+01
-2.005915e+01
-2.139096e+01
-2.278674e+01
-2.428047e+01
-2.589608e+01
-2.744582e+01
-2.884498e+01
0.000000e+00
-2.208457e-01
-4.890521e-01
-8.343349e-01
-1.234901e+00
-1.670436e+00
-2.167601e+00
-2.689762e+00
-3.267487e+00
-3.869421e+00
-4.513472e+00
-5.194100e+00
-5.904835e+00
-6.663482e+00
-7.448629e+00
-8.281936e+00
-9.146223e+00
-1.005269e+01
-1.099918e+01
-1.198252e+01
-1.301045e+01
-1.407403e+01
-1.518053e+01
-1.632829e+01
-1.751976e+01
-1.875539e+01
-2.003719e+01
-2.137251e+01
-2.277086e+01
-2.426053e+01
-2.579569e+01
-2.724486e+01
-2.851196e+01
0.000000e+00
-2.277539e-01
-5.055009e-01
-8.403120e-01
-1.228290e+00
-1.663602e+00
-2.145967e+00
-2.670630e+00
-3.237766e+00
-3.842636e+00
-4.484754e+00
-5.164464e+00
-5.879710e+00
-6.633815e+00
-7.424497e+00
-8.253856e+00
-9.121366e+00
-1.002752e+01
-1.097395e+01
-1.195980e+01
-1.298668e+01
-1.405372e+01
-1.516186e+01
-1.631240e+01
-1.750599e+01
-1.874354e+01
-2.002792e+01
-2.136261e+01
-2.275013e+01
-2.419950e+01
-2.564075e+01
-2.700886e+01
-2.821409e+01
0.000000e+00
-2.314440e-01
-5.117179e-01
-8.435126e-01
-1.226205e+00
-1.657490e+00
-2.135224e+00
-2.657133e+00
-3.221157e+00
-3.824987e+00
-4.467221e+00
-5.146863e+00
-5.863699e+00
-6.617813e+00
-7.409489e+00
-8.239202e+00
-9.107407e+00
-1.001487e+01
-1.096216e+01
-1.194987e+01
-1.297837e+01
-1.404792e+01
-1.515892e+01
-1.631158e+01
-1.750650e+01
-1.874430e+01
-2.002477e+01
-2.135614e+01
-2.271121e+01
-2.410933e+01
-2.548604e+01
-2.678646e+01
-2.792836e+01
0.000000e+00
-2.328436e-01
-5.140401e-01
-8.449474e-01
-1.225588e+00
-1.654723e+00
-2.130531e+00
-2.650949e+00
-3.213917e+00
-3.817491e+00
-4.460066e+00
-5.140549e+00
-5.858306e+00
-6.613249e+00
-7.405596e+00
-8.235945e+00
-9.105070e+00
-1.001367e+01
-1.096240e+01
-1.195180e+01
-1.298230e+01
-1.405415e+01
-1.516736e+01
-1.632197e+01
-1.751582e+01
-1.875350e+01
-2.002624e+01
-2.133851e+01
-2.265892e+01
-2.400347e+01
-2.533465e+01
-2.657828e+01
-2.766450e+01
0.000000e+00
-2.331332e-01
-5.146340e-01
-8.455689e-01
-1.226065e+00
-1.655135e+00
-2.131036e+00
-2.651720e+00
-3.215159e+00
-3.819505e+00
-4.463163e+00
-5.144839e+00
-5.863730e+00
-6.619621e+00
-7.412705e+00
-8.243654e+00
-9.113719e+00
-1.002357e+01
-1.097349e+01
-1.196429e+01
-1.299652e+01
-1.406963e+01
-1.518414e+01
-1.633950e+01
-1.753233e+01
-1.876457e+01
-2.002306e+01
-2.130605e+01
-2.260257e+01
-2.389594e+01
-2.516722e+01
-2.633562e+01
-2.732684e+01
0.000000e+00
-2.326798e-01
-5.140957e-01
-8.457018e-01
-1.227651e+00
-1.658668e+00
-2.136664e+00
-2.659345e+00
-3.224623e+00
-3.830732e+00
-4.476137e+00
-5.159371e+00
-5.879474e+00
-6.636474e+00
-7.430509e+00
-8.261812e+00
-9.133096e+00
-1.004423e+01
-1.099519e+01
-1.198605e+01
-1.301996e+01
-1.409283e+01
-1.520569e+01
-1.636293e+01
-1.754854e+01
-1.876868e+01
-2.001010e+01
-2.127004e+01
-2.253733e+01
-2.379397e+01
-2.499900e+01
-2.610022e+01
-2.705919e+01
0.000000e+00
-2.312082e-01
-5.118957e-01
-8.450058e-01
-1.230370e+00
-1.665601e+00
-2.147847e+00
-2.674228e+00
-3.242624e+00
-3.851241e+00
-4.498832e+00
-5.183616e+00
-5.904600e+00
-6.663006e+00
-7.457999e+00
-8.290458e+00
-9.163265e+00
-1.007553e+01
-1.102772e+01
-1.201738e+01
-1.305069e+01
-1.412148e+01
-1.523204e+01
-1.638285e+01
-1.755981e+01
-1.876446e+01
-1.999476e+01
-2.123232e+01
-2.247400e+01
-2.368965e+01
-2.484919e+01
-2.591838e+01
-2.686691e+01
0.000000e+00
-2.275721e-01
-5.059723e-01
-8.425783e-01
-1.234507e+00
-1.676607e+00
-2.165762e+00
-2.697099e+00
-3.270214e+00
-3.881771e+00
-4.531352e+00
-5.217370e+00
-5.938426e+00
-6.697965e+00
-7.494058e+00
-8.329256e+00
-9.203589e+00
-1.011702e+01
-1.106906e+01
-1.205796e+01
-1.308625e+01
-1.415339e+01
-1.525814e+01
-1.639857e+01
-1.756635e+01
-1.876148e+01
-1.997987e+01
-2.120464e+01
-2.241942e+01
-2.360590e+01
-2.473598e+01
-2.578919e+01
-2.674169e+01
0.000000e+00
-2.205754e-01
-4.899393e-01
-8.378022e-01
-1.243069e+00
-1.690504e+00
-2.194740e+00
-2.727267e+00
-3.310116e+00
-3.921745e+00
-4.574102e+00
-5.260528e+00
-5.980918e+00
-6.743389e+00
-7.539745e+00
-8.378769e+00
-9.254004e+00
-1.016647e+01
-1.111704e+01
-1.210261e+01
-1.312566e+01
-1.418728e+01
-1.528390e+01
-1.641469e+01
-1.757528e+01
-1.876685e+01
-1.997952e+01
-2.118961e+01
-2.238457e+01
-2.354574e+01
-2.465722e+01
-2.570344e+01
-2.667068e+01
0.000000e+00
-2.034896e-01
-4.510453e-01
-8.434472e-01
-1.250328e+00
-1.716555e+00
-2.234290e+00
-2.770331e+00
-3.360755e+00
-3.971891e+00
-4.624798e+00
-5.310718e+00
-6.033716e+00
-6.798150e+00
-7.598084e+00
-8.438393e+00
-9.313856e+00
-1.022453e+01
-1.117155e+01
-1.215311e+01
-1.317105e+01
-1.422538e+01
-1.531316e+01
-1.643660e+01
-1.759868e+01
-1.879039e+01
-1.999578e+01
-2.119087e+01
-2.236685e+01
-2.350965e+01
-2.460761e+01
-2.565244e+01
-2.663994e+01
0.000000e+00
-1.564978e-01
-4.489170e-01
-8.464379e-01
-1.287879e+00
-1.765747e+00
-2.286042e+00
-2.835467e+00
-3.419800e+00
-4.035143e+00
-4.683876e+00
-5.370788e+00
-6.095648e+00
-6.861059e+00
-7.664182e+00
-8.504298e+00
-9.379632e+00
-1.028840e+01
-1.123300e+01
-1.221190e+01
-1.322552e+01
-1.427321e+01
-1.535388e+01
-1.647831e+01
-1.764331e+01
-1.883217e+01
-2.002319e+01
-2.120488e+01
-2.236545e+01
-2.349401e+01
-2.458201e+01
-2.562688e+01
-2.663472e+01
0.000000e+00
-1.768501e-01
-5.070021e-01
-9.032668e-01
-1.355352e+00
-1.836027e+00
-2.358006e+00
-2.910453e+00
-3.492977e+00
-4.108953e+00
-4.756200e+00
-5.443094e+00
-6.168202e+00
-6.934065e+00
-7.737574e+00
-8.577857e+00
-9.452215e+00
-1.035934e+01
-1.130272e+01
-1.228018e+01
-1.329210e+01
-1.433656e+01
-1.541783e+01
-1.654363e+01
-1.770520e+01
-1.888153e+01
-2.005927e+01
-2.122791e+01
-2.237604e+01
-2.349350e+01
-2.457372e+01
-2.561769e+01
-2.663940e+01
0.000000e+00
-2.767088e-01
-5.885875e-01
-9.918697e-01
-1.436429e+00
-1.919863e+00
-2.442155e+00
-2.992652e+00
-3.576897e+00
-4.191762e+00
-4.840373e+00
-5.526917e+00
-6.251972e+00
-7.017413e+00
-7.820239e+00
-8.660037e+00
-9.533428e+00
-1.044065e+01
-1.138309e+01
-1.236003e+01
-1.337154e+01
-1.441614e+01