TITLE = "Solution"
VARIABLES = x, y, u, v, psiu, psiv, t, stress
ZONE T="structure" N=561 E=512 F=FEBLOCK ET=QUADRILATERAL VARLOCATION=([7,8]=cellcentered)
0.000000e+00
6.250000e+00
1.250000e+01
1.875000e+01
2.500000e+01
3.125000e+01
3.750000e+01
4.375000e+01
5.000000e+01
5.625000e+01
6.250000e+01
6.875000e+01
7.500000e+01
8.125000e+01
8.750000e+01
9.375000e+01
1.000000e+02
1.062500e+02
1.125000e+02
1.187500e+02
1.250000e+02
1.312500e+02
1.375000e+02
1.437500e+02
1.500000e+02
1.562500e+02
1.625000e+02
1.687500e+02
1.750000e+02
1.812500e+02
1.875000e+02
1.937500e+02
2.000000e+02
0.000000e+00
6.250000e+00
1.250000e+01
1.875000e+01
2.500000e+01
3.125000e+01
3.750000e+01
4.375000e+01
5.000000e+01
5.625000e+01
6.250000e+01
6.875000e+01
7.500000e+01
8.125000e+01
8.750000e+01
9.375000e+01
1.000000e+02
1.062500e+02
1.125000e+02
1.187500e+02
1.250000e+02
1.312500e+02
1.375000e+02
1.437500e+02
1.500000e+02
1.562500e+02
1.625000e+02
1.687500e+02
1.750000e+02
1.812500e+02
1.875000e+02
1.937500e+02
2.000000e+02
0.000000e+00
6.250000e+00
1.250000e+01
1.875000e+01
2.500000e+01
3.125000e+01
3.750000e+01
4.375000e+01
5.000000e+01
5.625000e+01
6.250000e+01
6.875000e+01
7.500000e+01
8.125000e+01
8.750000e+01
9.375000e+01
1.000000e+02
1.062500e+02
1.125000e+02
1.187500e+02
1.250000e+02
1.312500e+02
1.375000e+02
1.437500e+02
1.500000e+02
1.562500e+02
1.625000e+02
1.687500e+02
1.750000e+02
1.812500e+02
1.875000e+02
1.937500e+02
2.000000e+02
0.000000e+00
6.250000e+00
1.250000e+01
1.875000e+01
2.500000e+01
3.125000e+01
3.750000e+01
4.375000e+01
5.000000e+01
5.625000e+01
6.250000e+01
6.875000e+01
7.500000e+01
8.125000e+01
8.750000e+01
9.375000e+01
1.000000e+02
1.062500e+02
1.125000e+02
1.187500e+02
1.250000e+02
1.312500e+02
1.375000e+02
1.437500e+02
1.500000e+02
1.562500e+02
1.625000e+02
1.687500e+02
1.750000e+02
1.812500e+02
1.875000e+02
1.937500e+02
2.000000e+02
0.000000e+00
6.250000e+00
1.250000e+01
1.875000e+01
2.500000e+01
3.125000e+01
3.750000e+01
4.375000e+01
5.000000e+01
5.625000e+01
6.250000e+01
6.875000e+01
7.500000e+01
8.125000e+01
8.750000e+01
9.375000e+01
1.000000e+02
1.062500e+02
1.125000e+02
1.187500e+02
1.250000e+02
1.312500e+02
1.375000e+02
1.437500e+02
1.500000e+02
1.562500e+02
1.625000e+02
1.687500e+02
1.750000e+02
1.812500e+02
1.875000e+02
1.937500e+02
2.000000e+02
0.000000e+00
6.250000e+00
1.250000e+01
1.875000e+01
2.500000e+01
3.125000e+01
3.750000e+01
4.375000e+01
5.000000e+01
5.625000e+01
6.250000e+01
6.875000e+01
7.500000e+01
8.125000e+01
8.750000e+01
9.375000e+01
1.000000e+02
1.062500e+02
1.125000e+02
1.187500e+02
1.250000e+02
1.312500e+02
1.375000e+02
1.437500e+02
1.500000e+02
1.562500e+02
1.625000e+02
1.687500e+02
1.750000e+02
1.812500e+02
1.875000e+02
1.937500e+02
2.000000e+02
0.000000e+00
6.250000e+00
1.250000e+01
1.875000e+01
2.500000e+01
3.125000e+01
3.750000e+01
4.375000e+01
5.000000e+01
5.625000e+01
6.250000e+01
6.875000e+01
7.500000e+01
8.125000e+01
8.750000e+01
9.375000e+01
1.000000e+02
1.062500e+02
1.125000e+02
1.187500e+02
1.250000e+02
1.312500e+02
1.375000e+02
1.437500e+02
1.500000e+02
1.562500e+02
1.625000e+02
1.687500e+02
1.750000e+02
1.812500e+02
1.875000e+02
1.937500e+02
2.000000e+02
0.000000e+00
6.250000e+00
1.250000e+01
1.875000e+01
2.500000e+01
3.125000e+01
3.750000e+01
4.375000e+01
5.000000e+01
5.625000e+01
6.250000e+01
6.875000e+01
7.500000e+01
8.125000e+01
8.750000e+01
9.375000e+01
1.000000e+02
1.062500e+02
1.125000e+02
1.187500e+02
1.250000e+02
1.312500e+02
1.375000e+02
1.437500e+02
1.500000e+02
1.562500e+02
1.625000e+02
1.687500e+02
1.750000e+02
1.812500e+02
1.875000e+02
1.937500e+02
2.000000e+02
0.000000e+00
6.250000e+00
1.250000e+01
1.875000e+01
2.500000e+01
3.125000e+01
3.750000e+01
4.375000e+01
5.000000e+01
5.625000e+01
6.250000e+01
6.875000e+01
7.500000e+01
8.125000e+01
8.750000e+01
9.375000e+01
1.000000e+02
1.062500e+02
1.125000e+02
1.187500e+02
1.250000e+02
1.312500e+02
1.375000e+02
1.437500e+02
1.500000e+02
1.562500e+02
1.625000e+02
1.687500e+02
1.750000e+02
1.812500e+02
1.875000e+02
1.937500e+02
2.000000e+02
0.000000e+00
6.250000e+00
1.250000e+01
1.875000e+01
2.500000e+01
3.125000e+01
3.750000e+01
4.375000e+01
5.000000e+01
5.625000e+01
6.250000e+01
6.875000e+01
7.500000e+01
8.125000e+01
8.750000e+01
9.375000e+01
1.000000e+02
1.062500e+02
1.125000e+02
1.187500e+02
1.250000e+02
1.312500e+02
1.375000e+02
1.437500e+02
1.500000e+02
1.562500e+02
1.625000e+02
1.687500e+02
1.750000e+02
1.812500e+02
1.875000e+02
1.937500e+02
2.000000e+02
0.000000e+00
6.250000e+00
1.250000e+01
1.875000e+01
2.500000e+01
3.125000e+01
3.750000e+01
4.375000e+01
5.000000e+01
5.625000e+01
6.250000e+01
6.875000e+01
7.500000e+01
8.125000e+01
8.750000e+01
9.375000e+01
1.000000e+02
1.062500e+02
1.125000e+02
1.187500e+02
1.250000e+02
1.312500e+02
1.375000e+02
1.437500e+02
1.500000e+02
1.562500e+02
1.625000e+02
1.687500e+02
1.750000e+02
1.812500e+02
1.875000e+02
1.937500e+02
2.000000e+02
0.000000e+00
6.250000e+00
1.250000e+01
1.875000e+01
2.500000e+01
3.125000e+01
3.750000e+01
4.375000e+01
5.000000e+01
5.625000e+01
6.250000e+01
6.875000e+01
7.500000e+01
8.125000e+01
8.750000e+01
9.375000e+01
1.000000e+02
1.062500e+02
1.125000e+02
1.187500e+02
1.250000e+02
1.312500e+02
1.375000e+02
1.437500e+02
1.500000e+02
1.562500e+02
1.625000e+02
1.687500e+02
1.750000e+02
1.812500e+02
1.875000e+02
1.937500e+02
2.000000e+02
0.000000e+00
6.250000e+00
1.250000e+01
1.875000e+01
2.500000e+01
3.125000e+01
3.750000e+01
4.375000e+01
5.000000e+01
5.625000e+01
6.250000e+01
6.875000e+01
7.500000e+01
8.125000e+01
8.750000e+01
9.375000e+01
1.000000e+02
1.062500e+02
1.125000e+02
1.187500e+02
1.250000e+02
1.312500e+02
1.375000e+02
1.437500e+02
1.500000e+02
1.562500e+02
1.625000e+02
1.687500e+02
1.750000e+02
1.812500e+02
1.875000e+02
1.937500e+02
2.000000e+02
0.000000e+00
6.250000e+00
1.250000e+01
1.875000e+01
2.500000e+01
3.125000e+01
3.750000e+01
4.375000e+01
5.000000e+01
5.625000e+01
6.250000e+01
6.875000e+01
7.500000e+01
8.125000e+01
8.750000e+01
9.375000e+01
1.000000e+02
1.062500e+02
1.125000e+02
1.187500e+02
1.250000e+02
1.312500e+02
1.375000e+02
1.437500e+02
1.500000e+02
1.562500e+02
1.625000e+02
1.687500e+02
1.750000e+02
1.812500e+02
1.875000e+02
1.937500e+02
2.000000e+02
0.000000e+00
6.250000e+00
1.250000e+01
1.875000e+01
2.500000e+01
3.125000e+01
3.750000e+01
4.375000e+01
5.000000e+01
5.625000e+01
6.250000e+01
6.875000e+01
7.500000e+01
8.125000e+01
8.750000e+01
9.375000e+01
1.000000e+02
1.062500e+02
1.125000e+02
1.187500e+02
1.250000e+02
1.312500e+02
1.375000e+02
1.437500e+02
1.500000e+02
1.562500e+02
1.625000e+02
1.687500e+02
1.750000e+02
1.812500e+02
1.875000e+02
1.937500e+02
2.000000e+02
0.000000e+00
6.250000e+00
1.250000e+01
1.875000e+01
2.500000e+01
3.125000e+01
3.750000e+01
4.375000e+01
5.000000e+01
5.625000e+01
6.250000e+01
6.875000e+01
7.500000e+01
8.125000e+01
8.750000e+01
9.375000e+01
1.000000e+02
1.062500e+02
1.125000e+02
1.187500e+02
1.250000e+02
1.312500e+02
1.375000e+02
1.437500e+02
1.500000e+02
1.562500e+02
1.625000e+02
1.687500e+02
1.750000e+02
1.812500e+02
1.875000e+02
1.937500e+02
2.000000e+02
0.000000e+00
6.250000e+00
1.250000e+01
1.875000e+01
2.500000e+01
3.125000e+01
3.750000e+01
4.375000e+01
5.000000e+01
5.625000e+01
6.250000e+01
6.875000e+01
7.500000e+01
8.125000e+01
8.750000e+01
9.375000e+01
1.000000e+02
1.062500e+02
1.125000e+02
1.187500e+02
1.250000e+02
1.312500e+02
1.375000e+02
1.437500e+02
1.500000e+02
1.562500e+02
1.625000e+02
1.687500e+02
1.750000e+02
1.812500e+02
1.875000e+02
1.937500e+02
2.000000e+02
0.000000e+00
0.000000e+00
0.000000e+00
0.000000e+00
0.000000e+00
0.000000e+00
0.000000e+00
0.000000e+00
0.000000e+00
0.000000e+00
0.000000e+00
0.000000e+00
0.000000e+00
0.000000e+00
0.000000e+00
0.000000e+00
0.000000e+00
0.000000e+00
0.000000e+00
0.000000e+00
0.000000e+00
0.000000e+00
0.000000e+00
0.000000e+00
0.000000e+00
0.000000e+00
0.000000e+00
0.000000e+00
0.000000e+00
0.000000e+00
0.000000e+00
0.000000e+00
0.000000e+00
6.250000e+00
6.250000e+00
6.250000e+00
6.250000e+00
6.250000e+00
6.250000e+00
6.250000e+00
6.250000e+00
6.250000e+00
6.250000e+00
6.250000e+00
6.250000e+00
6.250000e+00
6.250000e+00
6.250000e+00
6.250000e+00
6.250000e+00
6.250000e+00
6.250000e+00
6.250000e+00
6.250000e+00
6.250000e+00
6.250000e+00
6.250000e+00
6.250000e+00
6.250000e+00
6.250000e+00
6.250000e+00
6.250000e+00
6.250000e+00
6.250000e+00
6.250000e+00
6.250000e+00
1.250000e+01
1.250000e+01
1.250000e+01
1.250000e+01
1.250000e+01
1.250000e+01
1.250000e+01
1.250000e+01
1.250000e+01
1.250000e+01
1.250000e+01
1.250000e+01
1.250000e+01
1.250000e+01
1.250000e+01
1.250000e+01
1.250000e+01
1.250000e+01
1.250000e+01
1.250000e+01
1.250000e+01
1.250000e+01
1.250000e+01
1.250000e+01
1.250000e+01
1.250000e+01
1.250000e+01
1.250000e+01
1.250000e+01
1.250000e+01
1.250000e+01
1.250000e+01
1.250000e+01
1.875000e+01
1.875000e+01
1.875000e+01
1.875000e+01
1.875000e+01
1.875000e+01
1.875000e+01
1.875000e+01
1.875000e+01
1.875000e+01
1.875000e+01
1.875000e+01
1.875000e+01
1.875000e+01
1.875000e+01
1.875000e+01
1.875000e+01
1.875000e+01
1.875000e+01
1.875000e+01
1.875000e+01
1.875000e+01
1.875000e+01
1.875000e+01
1.875000e+01
1.875000e+01
1.875000e+01
1.875000e+01
1.875000e+01
1.875000e+01
1.875000e+01
1.875000e+01
1.875000e+01
2.500000e+01
2.500000e+01
2.500000e+01
2.500000e+01
2.500000e+01
2.500000e+01
2.500000e+01
2.500000e+01
2.500000e+01
2.500000e+01
2.500000e+01
2.500000e+01
2.500000e+01
2.500000e+01
2.500000e+01
2.500000e+01
2.500000e+01
2.500000e+01
2.500000e+01
2.500000e+01
2.500000e+01
2.500000e+01
2.500000e+01
2.500000e+01
2.500000e+01
2.500000e+01
2.500000e+01
2.500000e+01
2.500000e+01
2.500000e+01
2.500000e+01
2.500000e+01
2.500000e+01
3.125000e+01
3.125000e+01
3.125000e+01
3.125000e+01
3.125000e+01
3.125000e+01
3.125000e+01
3.125000e+01
3.125000e+01
3.125000e+01
3.125000e+01
3.125000e+01
3.125000e+01
3.125000e+01
3.125000e+01
3.125000e+01
3.125000e+01
3.125000e+01
3.125000e+01
3.125000e+01
3.125000e+01
3.125000e+01
3.125000e+01
3.125000e+01
3.125000e+01
3.125000e+01
3.125000e+01
3.125000e+01
3.125000e+01
3.125000e+01
3.125000e+01
3.125000e+01
3.125000e+01
3.750000e+01
3.750000e+01
3.750000e+01
3.750000e+01
3.750000e+01
3.750000e+01
3.750000e+01
3.750000e+01
3.750000e+01
3.750000e+01
3.750000e+01
3.750000e+01
3.750000e+01
3.750000e+01
3.750000e+01
3.750000e+01
3.750000e+01
3.750000e+01
3.750000e+01
3.750000e+01
3.750000e+01
3.750000e+01
3.750000e+01
3.750000e+01
3.750000e+01
3.750000e+01
3.750000e+01
3.750000e+01
3.750000e+01
3.750000e+01
3.750000e+01
3.750000e+01
3.750000e+01
4.375000e+01
4.375000e+01
4.375000e+01
4.375000e+01
4.375000e+01
4.375000e+01
4.375000e+01
4.375000e+01
4.375000e+01
4.375000e+01
4.375000e+01
4.375000e+01
4.375000e+01
4.375000e+01
4.375000e+01
4.375000e+01
4.375000e+01
4.375000e+01
4.375000e+01
4.375000e+01
4.375000e+01
4.375000e+01
4.375000e+01
4.375000e+01
4.375000e+01
4.375000e+01
4.375000e+01
4.375000e+01
4.375000e+01
4.375000e+01
4.375000e+01
4.375000e+01
4.375000e+01
5.000000e+01
5.000000e+01
5.000000e+01
5.000000e+01
5.000000e+01
5.000000e+01
5.000000e+01
5.000000e+01
5.000000e+01
5.000000e+01
5.000000e+01
5.000000e+01
5.000000e+01
5.000000e+01
5.000000e+01
5.000000e+01
5.000000e+01
5.000000e+01
5.000000e+01
5.000000e+01
5.000000e+01
5.000000e+01
5.000000e+01
5.000000e+01
5.000000e+01
5.000000e+01
5.000000e+01
5.000000e+01
5.000000e+01
5.000000e+01
5.000000e+01
5.000000e+01
5.000000e+01
5.625000e+01
5.625000e+01
5.625000e+01
5.625000e+01
5.625000e+01
5.625000e+01
5.625000e+01
5.625000e+01
5.625000e+01
5.625000e+01
5.625000e+01
5.625000e+01
5.625000e+01
5.625000e+01
5.625000e+01
5.625000e+01
5.625000e+01
5.625000e+01
5.625000e+01
5.625000e+01
5.625000e+01
5.625000e+01
5.625000e+01
5.625000e+01
5.625000e+01
5.625000e+01
5.625000e+01
5.625000e+01
5.625000e+01
5.625000e+01
5.625000e+01
5.625000e+01
5.625000e+01
6.250000e+01
6.250000e+01
6.250000e+01
6.250000e+01
6.250000e+01
6.250000e+01
6.250000e+01
6.250000e+01
6.250000e+01
6.250000e+01
6.250000e+01
6.250000e+01
6.250000e+01
6.250000e+01
6.250000e+01
6.250000e+01
6.250000e+01
6.250000e+01
6.250000e+01
6.250000e+01
6.250000e+01
6.250000e+01
6.250000e+01
6.250000e+01
6.250000e+01
6.250000e+01
6.250000e+01
6.250000e+01
6.250000e+01
6.250000e+01
6.250000e+01
6.250000e+01
6.250000e+01
6.875000e+01
6.875000e+01
6.875000e+01
6.875000e+01
6.875000e+01
6.875000e+01
6.875000e+01
6.875000e+01
6.875000e+01
6.875000e+01
6.875000e+01
6.875000e+01
6.875000e+01
6.875000e+01
6.875000e+01
6.875000e+01
6.875000e+01
6.875000e+01
6.875000e+01
6.875000e+01
6.875000e+01
6.875000e+01
6.875000e+01
6.875000e+01
6.875000e+01
6.875000e+01
6.875000e+01
6.875000e+01
6.875000e+01
6.875000e+01
6.875000e+01
6.875000e+01
6.875000e+01
7.500000e+01
7.500000e+01
7.500000e+01
7.500000e+01
7.500000e+01
7.500000e+01
7.500000e+01
7.500000e+01
7.500000e+01
7.500000e+01
7.500000e+01
7.500000e+01
7.500000e+01
7.500000e+01
7.500000e+01
7.500000e+01
7.500000e+01
7.500000e+01
7.500000e+01
7.500000e+01
7.500000e+01
7.500000e+01
7.500000e+01
7.500000e+01
7.500000e+01
7.500000e+01
7.500000e+01
7.500000e+01
7.500000e+01
7.500000e+01
7.500000e+01
7.500000e+01
7.500000e+01
8.125000e+01
8.125000e+01
8.125000e+01
8.125000e+01
8.125000e+01
8.125000e+01
8.125000e+01
8.125000e+01
8.125000e+01
8.125000e+01
8.125000e+01
8.125000e+01
8.125000e+01
8.125000e+01
8.125000e+01
8.125000e+01
8.125000e+01
8.125000e+01
8.125000e+01
8.125000e+01
8.125000e+01
8.125000e+01
8.125000e+01
8.125000e+01
8.125000e+01
8.125000e+01
8.125000e+01
8.125000e+01
8.125000e+01
8.125000e+01
8.125000e+01
8.125000e+01
8.125000e+01
8.750000e+01
8.750000e+01
8.750000e+01
8.750000e+01
8.750000e+01
8.750000e+01
8.750000e+01
8.750000e+01
8.750000e+01
8.750000e+01
8.750000e+01
8.750000e+01
8.750000e+01
8.750000e+01
8.750000e+01
8.750000e+01
8.750000e+01
8.750000e+01
8.750000e+01
8.750000e+01
8.750000e+01
8.750000e+01
8.750000e+01
8.750000e+01
8.750000e+01
8.750000e+01
8.750000e+01
8.750000e+01
8.750000e+01
8.750000e+01
8.750000e+01
8.750000e+01
8.750000e+01
9.375000e+01
9.375000e+01
9.375000e+01
9.375000e+01
9.375000e+01
9.375000e+01
9.375000e+01
9.375000e+01
9.375000e+01
9.375000e+01
9.375000e+01
9.375000e+01
9.375000e+01
9.375000e+01
9.375000e+01
9.375000e+01
9.375000e+01
9.375000e+01
9.375000e+01
9.375000e+01
9.375000e+01
9.375000e+01
9.375000e+01
9.375000e+01
9.375000e+01
9.375000e+01
9.375000e+01
9.375000e+01
9.375000e+01
9.375000e+01
9.375000e+01
9.375000e+01
9.375000e+01
1.000000e+02
1.000000e+02
1.000000e+02
1.000000e+02
1.000000e+02
1.000000e+02
1.000000e+02
1.000000e+02
1.000000e+02
1.000000e+02
1.000000e+02
1.000000e+02
1.000000e+02
1.000000e+02
1.000000e+02
1.000000e+02
1.000000e+02
1.000000e+02
1.000000e+02
1.000000e+02
1.000000e+02
1.000000e+02
1.000000e+02
1.000000e+02
1.000000e+02
1.000000e+02
1.000000e+02
1.000000e+02
1.000000e+02
1.000000e+02
1.000000e+02
1.000000e+02
1.000000e+02
0.000000e+00
-4.186991e-01
-7.288147e-01
-1.047257e+00
-1.357725e+00
-1.655286e+00
-1.962314e+00
-2.262477e+00
-2.560400e+00
-2.861734e+00
-3.160215e+00
-3.458603e+00
-3.757732e+00
-4.055671e+00
-4.353708e+00
-4.651781e+00
-4.949410e+00
-5.247086e+00
-5.544784e+00
-5.842463e+00
-6.140329e+00
-6.438706e+00
-6.737939e+00
-7.038451e+00
-7.341953e+00
-7.650286e+00
-7.963792e+00
-8.285652e+00
-8.625142e+00
-8.995318e+00
-9.407273e+00
-9.800939e+00
-1.000770e+01
0.000000e+00
-2.369245e-01
-4.862235e-01
-7.488587e-01
-1.015959e+00
-1.270531e+00
-1.536525e+00
-1.798198e+00
-2.057989e+00
-2.321348e+00
-2.582253e+00
-2.843174e+00
-3.104811e+00
-3.365402e+00
-3.626036e+00
-3.886623e+00
-4.146700e+00
-4.406627e+00
-4.666337e+00
-4.925722e+00
-5.184847e+00
-5.443836e+00
-5.702654e+00
-5.961064e+00
-6.219556e+00
-6.478188e+00
-6.735086e+00
-6.989787e+00
-7.244335e+00
-7.492269e+00
-7.690687e+00
-7.775659e+00
-7.878029e+00
0.000000e+00
-1.466593e-01
-3.130194e-01
-5.142061e-01
-7.269406e-01
-9.353377e-01
-1.157473e+00
-1.378575e+00
-1.599904e+00
-1.824830e+00
-2.048501e+00
-2.272765e+00
-2.497895e+00
-2.722472e+00
-2.947233e+00
-3.171994e+00
-3.396316e+00
-3.620333e+00
-3.843845e+00
-4.066588e+00
-4.288334e+00
-4.508757e+00
-4.727215e+00
-4.942614e+00
-5.153791e+00
-5.358772e+00
-5.553967e+00
-5.735315e+00
-5.896877e+00
-6.022702e+00
-6.076217e+00
-6.076316e+00
-6.167248e+00
0.000000e+00
-1.052949e-01
-2.153164e-01
-3.597414e-01
-5.105807e-01
-6.742534e-01
-8.510579e-01
-1.030280e+00
-1.213066e+00
-1.399474e+00
-1.586290e+00
-1.774486e+00
-1.963719e+00
-2.152934e+00
-2.342456e+00
-2.531909e+00
-2.720846e+00
-2.909119e+00
-3.096291e+00
-3.281849e+00
-3.465154e+00
-3.645301e+00
-3.821009e+00
-3.990424e+00
-4.151188e+00
-4.300164e+00
-4.432991e+00
-4.544069e+00
-4.625521e+00
-4.665941e+00
-4.663256e+00
-4.670664e+00
-4.750710e+00
0.000000e+00
-9.092660e-02
-1.812962e-01
-2.838219e-01
-3.970277e-01
-5.220047e-01
-6.559016e-01
-7.944825e-01
-9.382146e-01
-1.084518e+00
-1.232444e+00
-1.381937e+00
-1.531963e+00
-1.682308e+00
-1.832696e+00
-1.982639e+00
-2.131837e+00
-2.279834e+00
-2.426050e+00
-2.569788e+00
-2.710081e+00
-2.845660e+00
-2.974871e+00
-3.095545e+00
-3.204985e+00
-3.299907e+00
-3.376294e+00
-3.429583e+00
-3.455700e+00
-3.454313e+00
-3.441099e+00
-3.467135e+00
-3.545443e+00
0.000000e+00
-7.167185e-02
-1.430471e-01
-2.181678e-01
-3.013065e-01
-3.913657e-01
-4.876934e-01
-5.893071e-01
-6.943019e-01
-8.019348e-01
-9.112801e-01
-1.021568e+00
-1.132426e+00
-1.243384e+00
-1.354060e+00
-1.464095e+00
-1.573041e+00
-1.680378e+00
-1.785440e+00
-1.887364e+00
-1.985031e+00
-2.077014e+00
-2.161539e+00
-2.236473e+00
-2.299358e+00
-2.347512e+00
-2.378175e+00
-2.389259e+00
-2.381465e+00
-2.361608e+00
-2.354374e+00
-2.387452e+00
-2.462621e+00
0.000000e+00
-4.901648e-02
-9.788203e-02
-1.486356e-01
-2.030149e-01
-2.617208e-01
-3.244162e-01
-3.904539e-01
-4.590417e-01
-5.293597e-01
-6.007970e-01
-6.728175e-01
-7.449844e-01
-8.169420e-01
-8.883317e-01
-9.587826e-01
-1.027867e+00
-1.095051e+00
-1.159654e+00
-1.220799e+00
-1.277366e+00
-1.327969e+00
-1.370953e+00
-1.404457e+00
-1.426551e+00
-1.435484e+00
-1.430092e+00
-1.410793e+00
-1.381495e+00
-1.353002e+00
-1.347496e+00
-1.383519e+00
-1.456903e+00
0.000000e+00
-2.499873e-02
-4.996723e-02
-7.560447e-02
-1.027010e-01
-1.316301e-01
-1.623669e-01
-1.946114e-01
-2.279484e-01
-2.619611e-01
-2.962599e-01
-3.305098e-01
-3.644135e-01
-3.976916e-01
-4.300622e-01
-4.612115e-01
-4.907668e-01
-5.182631e-01
-5.431049e-01
-5.645283e-01
-5.815673e-01
-5.930417e-01
-5.975844e-01
-5.937429e-01
-5.802017e-01
-5.561668e-01
-5.220205e-01
-4.804921e-01
-4.380817e-01
-4.063555e-01
-4.034122e-01
-4.406972e-01
-5.125190e-01
0.000000e+00
-5.064576e-04
-9.082744e-04
-1.177329e-03
-1.273061e-03
-1.142946e-03
-7.237430e-04
5.801253e-05
1.286055e-03
3.055231e-03
5.472726e-03
8.659857e-03
1.275477e-02
1.791646e-02
2.433111e-02
3.222133e-02
4.185912e-02
5.358387e-02
6.782554e-02
8.513105e-02
1.061872e-01
1.318280e-01
1.629976e-01
2.006125e-01
2.452575e-01
2.966767e-01
3.529645e-01
4.094517e-01
4.581658e-01
4.881299e-01
4.872254e-01
4.498989e-01
3.834396e-01
0.000000e+00
2.399337e-02
4.815820e-02
7.324966e-02
1.001404e-01
1.293077e-01
1.608517e-01
1.946167e-01
2.303519e-01
2.678280e-01
3.068671e-01
3.473741e-01
3.893240e-01
4.327486e-01
4.777272e-01
5.243738e-01
5.728344e-01
6.232859e-01
6.759418e-01
7.310577e-01
7.889375e-01
8.499379e-01
9.144343e-01
9.826404e-01
1.054212e+00
1.127693e+00
1.199856e+00
1.265079e+00
1.315541e+00
1.342591e+00
1.339531e+00
1.305930e+00
1.250986e+00
0.000000e+00
4.802983e-02
9.608549e-02
1.462658e-01
2.003917e-01
2.592663e-01
3.226706e-01
3.900952e-01
4.609040e-01
5.344570e-01
6.103500e-01
6.882791e-01
7.680692e-01
8.496569e-01
9.330112e-01
1.018135e+00
1.105037e+00
1.193707e+00
1.284108e+00
1.376154e+00
1.469674e+00
1.564430e+00
1.660127e+00
1.756192e+00
1.851303e+00
1.942906e+00
2.026962e+00
2.097973e+00
2.149683e+00
2.176529e+00
2.175735e+00
2.150091e+00
2.109767e+00
0.000000e+00
7.070286e-02
1.412380e-01
2.157196e-01
2.985166e-01
3.886048e-01
4.854547e-01
5.882028e-01
6.950824e-01
8.055282e-01
9.188093e-01
1.034382e+00
1.152123e+00
1.271831e+00
1.393402e+00
1.516765e+00
1.641768e+00
1.768204e+00
1.895763e+00
2.023981e+00
2.152153e+00
2.279417e+00
2.404862e+00
2.527212e+00
2.644258e+00
2.752630e+00
2.848052e+00
2.925839e+00
2.981611e+00
3.012305e+00
3.017616e+00
3.001922e+00
2.975834e+00
0.000000e+00
8.994498e-02
1.794034e-01
2.811881e-01
3.938759e-01
5.186701e-01
6.527605e-01
7.920228e-01
9.370568e-01
1.085420e+00
1.236367e+00
1.390049e+00
1.545679e+00
1.703295e+00
1.862850e+00
2.024069e+00
2.186785e+00
2.350595e+00
2.514928e+00
2.678959e+00
2.841501e+00
3.001268e+00
3.156858e+00
3.306197e+00
3.446052e+00
3.572315e+00
3.680814e+00
3.767904e+00
3.830857e+00
3.868395e+00
3.881680e+00
3.875884e+00
3.861955e+00
0.000000e+00
1.042608e-01
2.133999e-01
3.569598e-01
5.071357e-01
6.703230e-01
8.468729e-01
1.026115e+00
1.209283e+00
1.396571e+00
1.584898e+00
1.775437e+00
1.968077e+00
2.161982e+00
2.357709e+00
2.555068e+00
2.753646e+00
2.953212e+00
3.153089e+00
3.352139e+00
3.549025e+00
3.742526e+00
3.930775e+00
4.110059e+00
4.275238e+00
4.421266e+00
4.544299e+00
4.641937e+00
4.713105e+00
4.758121e+00
4.779263e+00
4.782033e+00
4.777327e+00
0.000000e+00
1.459935e-01
3.117630e-01
5.123851e-01
7.245633e-01
9.324863e-01
1.154202e+00
1.374945e+00
1.596019e+00
1.820837e+00
2.044594e+00
2.269229e+00
2.495143e+00
2.721017e+00
2.947721e+00
3.175223e+00
3.403061e+00
3.631323e+00
3.859651e+00
4.087020e+00
4.312513e+00
4.535861e+00
4.755245e+00
4.964620e+00
5.155494e+00
5.320997e+00
5.457443e+00
5.563774e+00
5.640741e+00
5.690533e+00
5.716829e+00
5.725446e+00
5.726395e+00
0.000000e+00
2.367751e-01
4.859960e-01
7.485386e-01
1.015504e+00
1.269942e+00
1.535781e+00
1.797235e+00
2.056762e+00
2.319793e+00
2.580258e+00
2.840613e+00
3.101542e+00
3.361197e+00
3.620613e+00
3.879677e+00
4.137724e+00
4.395003e+00
4.651403e+00
4.906184e+00
5.159016e+00
5.410654e+00
5.659460e+00
5.897018e+00
6.111199e+00
6.293005e+00
6.438629e+00
6.548101e+00
6.624000e+00
6.670910e+00
6.695079e+00
6.703912e+00
6.706057e+00
0.000000e+00
4.192348e-01
7.298524e-01
1.048744e+00
1.359640e+00
1.657590e+00
1.964990e+00
2.265435e+00
2.563569e+00
2.865001e+00
3.163357e+00
3.461340e+00
3.759665e+00
4.056192e+00
4.352032e+00
4.646947e+00
4.940119e+00
5.231872e+00
5.522183e+00
5.810602e+00
6.097273e+00
6.382905e+00
6.664318e+00
6.929942e+00
7.164759e+00
7.358460e+00
7.506967e+00
7.610669e+00
7.673342e+00
7.702139e+00
7.707781e+00
7.703747e+00
7.701385e+00
0.000000e+00
-2.526183e-01
-5.031365e-01
-8.162382e-01
-1.166674e+00
-1.557198e+00
-1.990029e+00
-2.458226e+00
-2.965030e+00
-3.509711e+00
-4.091112e+00
-4.710715e+00
-5.368008e+00
-6.062933e+00
-6.796020e+00
-7.567143e+00
-8.376461e+00
-9.224268e+00
-1.011069e+01
-1.103598e+01
-1.200045e+01
-1.300447e+01
-1.404849e+01
-1.513342e+01
-1.626096e+01
-1.743349e+01
-1.865510e+01
-1.993347e+01
-2.127940e+01
-2.270595e+01
-2.424480e+01
-2.605378e+01
-2.857969e+01
0.000000e+00
-1.582279e-01
-4.225662e-01
-7.299515e-01
-1.083422e+00
-1.473423e+00
-1.905390e+00
-2.374818e+00
-2.881114e+00
-3.425661e+00
-4.007463e+00
-4.626872e+00
-5.284238e+00
-5.979311e+00
-6.712369e+00
-7.483583e+00
-8.292990e+00
-9.140834e+00
-1.002733e+01
-1.095269e+01
-1.191718e+01
-1.292119e+01
-1.396522e+01
-1.504999e+01
-1.617708e+01
-1.734919e+01
-1.857040e+01
-1.984742e+01
-2.119160e+01
-2.262050e+01
-2.417583e+01
-2.596137e+01
-2.822241e+01
0.000000e+00
-1.264493e-01
-3.636534e-01
-6.672817e-01
-1.017023e+00
-1.404909e+00
-1.835402e+00
-2.304183e+00
-2.809728e+00
-3.353964e+00
-3.935588e+00
-4.554781e+00
-5.212127e+00
-5.907195e+00
-6.640284e+00
-7.411620e+00
-8.221186e+00
-9.069245e+00
-9.956031e+00
-1.088176e+01
-1.184672e+01
-1.285135e+01
-1.389623e+01
-1.498213e+01
-1.611067e+01
-1.728486e+01
-1.850880e+01
-1.978950e+01
-2.114107e+01
-2.259103e+01
-2.416957e+01
-2.585133e+01
-2.761540e+01
0.000000e+00
-1.337040e-01
-3.447698e-01
-6.358785e-01
-9.741734e-01
-1.356214e+00
-1.783035e+00
-2.248602e+00
-2.752501e+00
-3.295598e+00
-3.876304e+00
-4.495048e+00
-5.152100e+00
-5.847049e+00
-6.580221e+00
-7.351764e+00
-8.161712e+00
-9.010330e+00
-9.897865e+00
-1.082459e+01
-1.179086e+01
-1.279718e+01
-1.384426e+01
-1.493300e+01
-1.606515e+01
-1.724369e+01
-1.847285e+01
-1.976023e+01
-2.112138e+01
-2.258366e+01
-2.414698e+01
-2.569583e+01
-2.711582e+01
0.000000e+00
-1.510672e-01
-3.567244e-01
-6.316594e-01
-9.574669e-01
-1.330448e+00
-1.750117e+00
-2.210305e+00
-2.711154e+00
-3.251791e+00
-3.830933e+00
-4.448870e+00
-5.105344e+00
-5.800178e+00
-6.533546e+00
-7.305506e+00
-8.116195e+00
-8.965850e+00
-9.854748e+00
-1.078324e+01
-1.175175e+01
-1.276086e+01
-1.381132e+01
-1.490414e+01
-1.604101e+01
-1.722462e+01
-1.845887e+01
-1.975040e+01
-2.111200e+01
-2.256016e+01
-2.406815e+01
-2.549181e+01
-2.674476e+01
0.000000e+00
-1.588638e-01
-3.680287e-01
-6.331396e-01
-9.506944e-01
-1.316566e+00
-1.728996e+00
-2.184739e+00
-2.682122e+00
-3.220278e+00
-3.798062e+00
-4.415126e+00
-5.071230e+00
-5.766144e+00
-6.499910e+00
-7.272604e+00
-8.084377e+00
-8.935492e+00
-9.826278e+00
-1.075715e+01
-1.172859e+01
-1.274120e+01
-1.379569e+01
-1.489296e+01
-1.603435e+01
-1.722192e+01
-1.845844e+01
-1.974749e+01
-2.109515e+01
-2.250691e+01
-2.393403e+01
-2.526365e+01
-2.641695e+01
0.000000e+00
-1.625139e-01
-3.734584e-01
-6.353053e-01
-9.477164e-01
-1.308811e+00
-1.716455e+00
-2.168579e+00
-2.663434e+00
-3.199714e+00
-3.776465e+00
-4.393036e+00
-5.049042e+00
-5.744273e+00
-6.478676e+00
-7.252328e+00
-8.065417e+00
-8.918233e+00
-9.811166e+00
-1.074468e+01
-1.171930e+01
-1.273556e+01
-1.379403e+01
-1.489526e+01
-1.603995e+01
-1.722906e+01
-1.846349e+01
-1.974270e+01
-2.106544e+01
-2.242682e+01
-2.377763e+01
-2.503158e+01
-2.611476e+01
0.000000e+00
-1.641797e-01
-3.759289e-01
-6.367264e-01
-9.467988e-01
-1.305185e+00
-1.710296e+00
-2.160361e+00
-2.653751e+00
-3.189116e+00
-3.765425e+00
-4.381958e+00
-5.038251e+00
-5.734054e+00
-6.469296e+00
-7.244054e+00
-8.058540e+00
-8.913085e+00
-9.808123e+00
-1.074416e+01
-1.172170e+01
-1.274121e+01
-1.380297e+01
-1.490704e+01
-1.605316e+01
-1.724085e+01
-1.846872e+01
-1.973240e+01
-2.102425e+01
-2.233225e+01
-2.361262e+01
-2.479939e+01
-2.582413e+01
0.000000e+00
-1.647390e-01
-3.768386e-01
-6.375139e-01
-9.470766e-01
-1.304828e+00
-1.709374e+00
-2.159070e+00
-2.652325e+00
-3.187790e+00
-3.764418e+00
-4.381461e+00
-5.038434e+00
-5.735077e+00
-6.471316e+00
-7.247235e+00
-8.063064e+00
-8.919157e+00
-9.815975e+00
-1.075403e+01
-1.173382e+01
-1.275566e+01
-1.381954e+01
-1.492491e+01
-1.607042e+01
-1.725388e+01
-1.847152e+01
-1.971588e+01
-2.097501e+01
-2.223156e+01
-2.344873e+01
-2.457401e+01
-2.554985e+01
0.000000e+00
-1.644507e-01
-3.765317e-01
-6.377492e-01
-9.483534e-01
-1.307399e+00
-1.713310e+00
-2.164320e+00
-2.658809e+00
-3.195428e+00
-3.773151e+00
-4.391260e+00
-5.049295e+00
-5.747013e+00
-6.484351e+00
-7.261400e+00
-8.078391e+00
-8.935679e+00
-9.833724e+00
-1.077303e+01
-1.175402e+01
-1.277690e+01
-1.384139e+01
-1.494636e+01
-1.608936e+01
-1.726640e+01
-1.847138e+01
-1.969448e+01
-2.092133e+01
-2.213224e+01
-2.329656e+01
-2.437287e+01
-2.531625e+01
0.000000e+00
-1.630335e-01
-3.746157e-01
-6.372794e-01
-9.507306e-01
-1.313119e+00
-1.722331e+00
-2.176310e+00
-2.673317e+00
-3.212056e+00
-3.791577e+00
-4.411234e+00
-5.070648e+00
-5.769612e+00
-6.508082e+00
-7.286152e+00
-8.104029e+00
-8.962040e+00
-9.860608e+00
-1.080018e+01
-1.178110e+01
-1.280349e+01
-1.386699e+01
-1.497004e+01
-1.610913e+01
-1.727846e+01
-1.846978e+01
-1.967164e+01
-2.086888e+01
-2.204232e+01
-2.316663e+01
-2.421046e+01
-2.513989e+01
0.000000e+00
-1.595811e-01
-3.696311e-01
-6.359176e-01
-9.549717e-01
-1.322714e+00
-1.737423e+00
-2.195851e+00
-2.696351e+00
-3.238072e+00
-3.819868e+00
-4.441400e+00
-5.102427e+00
-5.802708e+00
-6.542276e+00
-7.321206e+00
-8.139639e+00
-8.997850e+00
-9.896194e+00
-1.083500e+01
-1.181450e+01
-1.283489e+01
-1.389604e+01
-1.499616e+01
-1.613065e+01
-1.729194e+01
-1.846998e+01
-1.965240e+01
-2.082438e+01
-2.196866e+01
-2.306503e+01
-2.409061e+01
-2.502112e+01
0.000000e+00
-1.518914e-01
-3.585735e-01
-6.350137e-01
-9.626920e-01
-1.338031e+00
-1.760600e+00
-2.224170e+00
-2.728955e+00
-3.274107e+00
-3.858325e+00
-4.481917e+00
-5.144617e+00
-5.846199e+00
-6.586793e+00
-7.366412e+00
-8.185111e+00
-9.043062e+00
-9.940552e+00
-1.087774e+01
-1.185467e+01
-1.287190e+01
-1.392988e+01
-1.502670e+01
-1.615652e+01
-1.731006e+01
-1.847596e+01
-1.964152e+01
-2.079282e+01
-2.191497e+01
-2.299244e+01
-2.400981e+01
-2.495215e+01
0.000000e+00
-1.344622e-01
-3.466395e-01
-6.394461e-01
-9.799044e-01
-1.364636e+00
-1.794793e+00
-2.264242e+00
-2.772656e+00
-3.320966e+00
-3.907532e+00
-4.532824e+00
-5.197105e+00
-5.899858e+00
-6.641331e+00
-7.421565e+00
-8.240381e+00
-9.097874e+00
-9.994240e+00
-1.092943e+01
-1.190339e+01
-1.291710e+01
-1.397171e+01
-1.506508e+01
-1.619006e+01
-1.733600e+01
-1.849083e+01
-1.964198e+01
-2.077654e+01
-2.188179e+01
-2.294625e+01
-2.396122e+01
-2.492156e+01
0.000000e+00
-1.270548e-01
-3.653995e-01
-6.707670e-01
-1.022788e+00
-1.413497e+00
-1.847481e+00
-2.320352e+00
-2.830654e+00
-3.380414e+00
-3.968274e+00
-4.594468e+00
-5.259584e+00
-5.963058e+00
-6.705091e+00
-7.485739e+00
-8.304667e+00
-9.161848e+00
-1.005732e+01
-1.099089e+01
-1.196256e+01
-1.297352e+01
-1.402504e+01
-1.511448e+01
-1.623369e+01
-1.737140e+01
-1.851560e+01
-1.965418e+01
-2.077513e+01
-2.186729e+01
-2.292218e+01
-2.393667e+01
-2.491571e+01
0.000000e+00
-1.587211e-01
-4.242212e-01
-7.333442e-01
-1.089119e+00
-1.481990e+00
-1.917470e+00
-2.391040e+00
-2.902157e+00
-3.452293e+00
-4.040429e+00
-4.666959e+00
-5.332233e+00
-6.035878e+00
-6.778054e+00
-7.558722e+00
-8.377565e+00
-9.234472e+00
-1.012931e+01
-1.106187e+01
-1.203237e+01
-1.304194e+01
-1.409096e+01
-1.517564e+01
-1.628739e+01
-1.741544e+01
-1.854861e+01
-1.967558e+01
-2.078507e+01
-2.186692e+01
-2.291438e+01
-2.392777e+01
-2.491979e+01
0.000000e+00
-2.531838e-01
-5.048458e-01
-8.196774e-01
-1.172412e+00
-1.565813e+00
-2.002143e+00
-2.474471e+00
-2.986091e+00
-3.536330e+00
-4.124028e+00
-4.750703e+00
-5.415822e+00
-6.119203e+00
-6.861260e+00
-7.641624e+00
-8.460090e+00
-9.316629e+00
-1.021094e+01
-1.114281e+01
-1.211279e+01
-1.312175e+01
-1.416834e+01