TITLE = "Solution"
VARIABLES = x, y, u, v, psiu, psiv, t, stress
ZONE T="structure" N=561 E=512 F=FEBLOCK ET=QUADRILATERAL VARLOCATION=([7,8]=cellcentered)
0.000000e+00
6.250000e+00
1.250000e+01
1.875000e+01
2.500000e+01
3.125000e+01
3.750000e+01
4.375000e+01
5.000000e+01
5.625000e+01
6.250000e+01
6.875000e+01
7.500000e+01
8.125000e+01
8.750000e+01
9.375000e+01
1.000000e+02
1.062500e+02
1.125000e+02
1.187500e+02
1.250000e+02
1.312500e+02
1.375000e+02
1.437500e+02
1.500000e+02
1.562500e+02
1.625000e+02
1.687500e+02
1.750000e+02
1.812500e+02
1.875000e+02
1.937500e+02
2.000000e+02
0.000000e+00
6.250000e+00
1.250000e+01
1.875000e+01
2.500000e+01
3.125000e+01
3.750000e+01
4.375000e+01
5.000000e+01
5.625000e+01
6.250000e+01
6.875000e+01
7.500000e+01
8.125000e+01
8.750000e+01
9.375000e+01
1.000000e+02
1.062500e+02
1.125000e+02
1.187500e+02
1.250000e+02
1.312500e+02
1.375000e+02
1.437500e+02
1.500000e+02
1.562500e+02
1.625000e+02
1.687500e+02
1.750000e+02
1.812500e+02
1.875000e+02
1.937500e+02
2.000000e+02
0.000000e+00
6.250000e+00
1.250000e+01
1.875000e+01
2.500000e+01
3.125000e+01
3.750000e+01
4.375000e+01
5.000000e+01
5.625000e+01
6.250000e+01
6.875000e+01
7.500000e+01
8.125000e+01
8.750000e+01
9.375000e+01
1.000000e+02
1.062500e+02
1.125000e+02
1.187500e+02
1.250000e+02
1.312500e+02
1.375000e+02
1.437500e+02
1.500000e+02
1.562500e+02
1.625000e+02
1.687500e+02
1.750000e+02
1.812500e+02
1.875000e+02
1.937500e+02
2.000000e+02
0.000000e+00
6.250000e+00
1.250000e+01
1.875000e+01
2.500000e+01
3.125000e+01
3.750000e+01
4.375000e+01
5.000000e+01
5.625000e+01
6.250000e+01
6.875000e+01
7.500000e+01
8.125000e+01
8.750000e+01
9.375000e+01
1.000000e+02
1.062500e+02
1.125000e+02
1.187500e+02
1.250000e+02
1.312500e+02
1.375000e+02
1.437500e+02
1.500000e+02
1.562500e+02
1.625000e+02
1.687500e+02
1.750000e+02
1.812500e+02
1.875000e+02
1.937500e+02
2.000000e+02
0.000000e+00
6.250000e+00
1.250000e+01
1.875000e+01
2.500000e+01
3.125000e+01
3.750000e+01
4.375000e+01
5.000000e+01
5.625000e+01
6.250000e+01
6.875000e+01
7.500000e+01
8.125000e+01
8.750000e+01
9.375000e+01
1.000000e+02
1.062500e+02
1.125000e+02
1.187500e+02
1.250000e+02
1.312500e+02
1.375000e+02
1.437500e+02
1.500000e+02
1.562500e+02
1.625000e+02
1.687500e+02
1.750000e+02
1.812500e+02
1.875000e+02
1.937500e+02
2.000000e+02
0.000000e+00
6.250000e+00
1.250000e+01
1.875000e+01
2.500000e+01
3.125000e+01
3.750000e+01
4.375000e+01
5.000000e+01
5.625000e+01
6.250000e+01
6.875000e+01
7.500000e+01
8.125000e+01
8.750000e+01
9.375000e+01
1.000000e+02
1.062500e+02
1.125000e+02
1.187500e+02
1.250000e+02
1.312500e+02
1.375000e+02
1.437500e+02
1.500000e+02
1.562500e+02
1.625000e+02
1.687500e+02
1.750000e+02
1.812500e+02
1.875000e+02
1.937500e+02
2.000000e+02
0.000000e+00
6.250000e+00
1.250000e+01
1.875000e+01
2.500000e+01
3.125000e+01
3.750000e+01
4.375000e+01
5.000000e+01
5.625000e+01
6.250000e+01
6.875000e+01
7.500000e+01
8.125000e+01
8.750000e+01
9.375000e+01
1.000000e+02
1.062500e+02
1.125000e+02
1.187500e+02
1.250000e+02
1.312500e+02
1.375000e+02
1.437500e+02
1.500000e+02
1.562500e+02
1.625000e+02
1.687500e+02
1.750000e+02
1.812500e+02
1.875000e+02
1.937500e+02
2.000000e+02
0.000000e+00
6.250000e+00
1.250000e+01
1.875000e+01
2.500000e+01
3.125000e+01
3.750000e+01
4.375000e+01
5.000000e+01
5.625000e+01
6.250000e+01
6.875000e+01
7.500000e+01
8.125000e+01
8.750000e+01
9.375000e+01
1.000000e+02
1.062500e+02
1.125000e+02
1.187500e+02
1.250000e+02
1.312500e+02
1.375000e+02
1.437500e+02
1.500000e+02
1.562500e+02
1.625000e+02
1.687500e+02
1.750000e+02
1.812500e+02
1.875000e+02
1.937500e+02
2.000000e+02
0.000000e+00
6.250000e+00
1.250000e+01
1.875000e+01
2.500000e+01
3.125000e+01
3.750000e+01
4.375000e+01
5.000000e+01
5.625000e+01
6.250000e+01
6.875000e+01
7.500000e+01
8.125000e+01
8.750000e+01
9.375000e+01
1.000000e+02
1.062500e+02
1.125000e+02
1.187500e+02
1.250000e+02
1.312500e+02
1.375000e+02
1.437500e+02
1.500000e+02
1.562500e+02
1.625000e+02
1.687500e+02
1.750000e+02
1.812500e+02
1.875000e+02
1.937500e+02
2.000000e+02
0.000000e+00
6.250000e+00
1.250000e+01
1.875000e+01
2.500000e+01
3.125000e+01
3.750000e+01
4.375000e+01
5.000000e+01
5.625000e+01
6.250000e+01
6.875000e+01
7.500000e+01
8.125000e+01
8.750000e+01
9.375000e+01
1.000000e+02
1.062500e+02
1.125000e+02
1.187500e+02
1.250000e+02
1.312500e+02
1.375000e+02
1.437500e+02
1.500000e+02
1.562500e+02
1.625000e+02
1.687500e+02
1.750000e+02
1.812500e+02
1.875000e+02
1.937500e+02
2.000000e+02
0.000000e+00
6.250000e+00
1.250000e+01
1.875000e+01
2.500000e+01
3.125000e+01
3.750000e+01
4.375000e+01
5.000000e+01
5.625000e+01
6.250000e+01
6.875000e+01
7.500000e+01
8.125000e+01
8.750000e+01
9.375000e+01
1.000000e+02
1.062500e+02
1.125000e+02
1.187500e+02
1.250000e+02
1.312500e+02
1.375000e+02
1.437500e+02
1.500000e+02
1.562500e+02
1.625000e+02
1.687500e+02
1.750000e+02
1.812500e+02
1.875000e+02
1.937500e+02
2.000000e+02
0.000000e+00
6.250000e+00
1.250000e+01
1.875000e+01
2.500000e+01
3.125000e+01
3.750000e+01
4.375000e+01
5.000000e+01
5.625000e+01
6.250000e+01
6.875000e+01
7.500000e+01
8.125000e+01
8.750000e+01
9.375000e+01
1.000000e+02
1.062500e+02
1.125000e+02
1.187500e+02
1.250000e+02
1.312500e+02
1.375000e+02
1.437500e+02
1.500000e+02
1.562500e+02
1.625000e+02
1.687500e+02
1.750000e+02
1.812500e+02
1.875000e+02
1.937500e+02
2.000000e+02
0.000000e+00
6.250000e+00
1.250000e+01
1.875000e+01
2.500000e+01
3.125000e+01
3.750000e+01
4.375000e+01
5.000000e+01
5.625000e+01
6.250000e+01
6.875000e+01
7.500000e+01
8.125000e+01
8.750000e+01
9.375000e+01
1.000000e+02
1.062500e+02
1.125000e+02
1.187500e+02
1.250000e+02
1.312500e+02
1.375000e+02
1.437500e+02
1.500000e+02
1.562500e+02
1.625000e+02
1.687500e+02
1.750000e+02
1.812500e+02
1.875000e+02
1.937500e+02
2.000000e+02
0.000000e+00
6.250000e+00
1.250000e+01
1.875000e+01
2.500000e+01
3.125000e+01
3.750000e+01
4.375000e+01
5.000000e+01
5.625000e+01
6.250000e+01
6.875000e+01
7.500000e+01
8.125000e+01
8.750000e+01
9.375000e+01
1.000000e+02
1.062500e+02
1.125000e+02
1.187500e+02
1.250000e+02
1.312500e+02
1.375000e+02
1.437500e+02
1.500000e+02
1.562500e+02
1.625000e+02
1.687500e+02
1.750000e+02
1.812500e+02
1.875000e+02
1.937500e+02
2.000000e+02
0.000000e+00
6.250000e+00
1.250000e+01
1.875000e+01
2.500000e+01
3.125000e+01
3.750000e+01
4.375000e+01
5.000000e+01
5.625000e+01
6.250000e+01
6.875000e+01
7.500000e+01
8.125000e+01
8.750000e+01
9.375000e+01
1.000000e+02
1.062500e+02
1.125000e+02
1.187500e+02
1.250000e+02
1.312500e+02
1.375000e+02
1.437500e+02
1.500000e+02
1.562500e+02
1.625000e+02
1.687500e+02
1.750000e+02
1.812500e+02
1.875000e+02
1.937500e+02
2.000000e+02
0.000000e+00
6.250000e+00
1.250000e+01
1.875000e+01
2.500000e+01
3.125000e+01
3.750000e+01
4.375000e+01
5.000000e+01
5.625000e+01
6.250000e+01
6.875000e+01
7.500000e+01
8.125000e+01
8.750000e+01
9.375000e+01
1.000000e+02
1.062500e+02
1.125000e+02
1.187500e+02
1.250000e+02
1.312500e+02
1.375000e+02
1.437500e+02
1.500000e+02
1.562500e+02
1.625000e+02
1.687500e+02
1.750000e+02
1.812500e+02
1.875000e+02
1.937500e+02
2.000000e+02
0.000000e+00
6.250000e+00
1.250000e+01
1.875000e+01
2.500000e+01
3.125000e+01
3.750000e+01
4.375000e+01
5.000000e+01
5.625000e+01
6.250000e+01
6.875000e+01
7.500000e+01
8.125000e+01
8.750000e+01
9.375000e+01
1.000000e+02
1.062500e+02
1.125000e+02
1.187500e+02
1.250000e+02
1.312500e+02
1.375000e+02
1.437500e+02
1.500000e+02
1.562500e+02
1.625000e+02
1.687500e+02
1.750000e+02
1.812500e+02
1.875000e+02
1.937500e+02
2.000000e+02
0.000000e+00
0.000000e+00
0.000000e+00
0.000000e+00
0.000000e+00
0.000000e+00
0.000000e+00
0.000000e+00
0.000000e+00
0.000000e+00
0.000000e+00
0.000000e+00
0.000000e+00
0.000000e+00
0.000000e+00
0.000000e+00
0.000000e+00
0.000000e+00
0.000000e+00
0.000000e+00
0.000000e+00
0.000000e+00
0.000000e+00
0.000000e+00
0.000000e+00
0.000000e+00
0.000000e+00
0.000000e+00
0.000000e+00
0.000000e+00
0.000000e+00
0.000000e+00
0.000000e+00
6.250000e+00
6.250000e+00
6.250000e+00
6.250000e+00
6.250000e+00
6.250000e+00
6.250000e+00
6.250000e+00
6.250000e+00
6.250000e+00
6.250000e+00
6.250000e+00
6.250000e+00
6.250000e+00
6.250000e+00
6.250000e+00
6.250000e+00
6.250000e+00
6.250000e+00
6.250000e+00
6.250000e+00
6.250000e+00
6.250000e+00
6.250000e+00
6.250000e+00
6.250000e+00
6.250000e+00
6.250000e+00
6.250000e+00
6.250000e+00
6.250000e+00
6.250000e+00
6.250000e+00
1.250000e+01
1.250000e+01
1.250000e+01
1.250000e+01
1.250000e+01
1.250000e+01
1.250000e+01
1.250000e+01
1.250000e+01
1.250000e+01
1.250000e+01
1.250000e+01
1.250000e+01
1.250000e+01
1.250000e+01
1.250000e+01
1.250000e+01
1.250000e+01
1.250000e+01
1.250000e+01
1.250000e+01
1.250000e+01
1.250000e+01
1.250000e+01
1.250000e+01
1.250000e+01
1.250000e+01
1.250000e+01
1.250000e+01
1.250000e+01
1.250000e+01
1.250000e+01
1.250000e+01
1.875000e+01
1.875000e+01
1.875000e+01
1.875000e+01
1.875000e+01
1.875000e+01
1.875000e+01
1.875000e+01
1.875000e+01
1.875000e+01
1.875000e+01
1.875000e+01
1.875000e+01
1.875000e+01
1.875000e+01
1.875000e+01
1.875000e+01
1.875000e+01
1.875000e+01
1.875000e+01
1.875000e+01
1.875000e+01
1.875000e+01
1.875000e+01
1.875000e+01
1.875000e+01
1.875000e+01
1.875000e+01
1.875000e+01
1.875000e+01
1.875000e+01
1.875000e+01
1.875000e+01
2.500000e+01
2.500000e+01
2.500000e+01
2.500000e+01
2.500000e+01
2.500000e+01
2.500000e+01
2.500000e+01
2.500000e+01
2.500000e+01
2.500000e+01
2.500000e+01
2.500000e+01
2.500000e+01
2.500000e+01
2.500000e+01
2.500000e+01
2.500000e+01
2.500000e+01
2.500000e+01
2.500000e+01
2.500000e+01
2.500000e+01
2.500000e+01
2.500000e+01
2.500000e+01
2.500000e+01
2.500000e+01
2.500000e+01
2.500000e+01
2.500000e+01
2.500000e+01
2.500000e+01
3.125000e+01
3.125000e+01
3.125000e+01
3.125000e+01
3.125000e+01
3.125000e+01
3.125000e+01
3.125000e+01
3.125000e+01
3.125000e+01
3.125000e+01
3.125000e+01
3.125000e+01
3.125000e+01
3.125000e+01
3.125000e+01
3.125000e+01
3.125000e+01
3.125000e+01
3.125000e+01
3.125000e+01
3.125000e+01
3.125000e+01
3.125000e+01
3.125000e+01
3.125000e+01
3.125000e+01
3.125000e+01
3.125000e+01
3.125000e+01
3.125000e+01
3.125000e+01
3.125000e+01
3.750000e+01
3.750000e+01
3.750000e+01
3.750000e+01
3.750000e+01
3.750000e+01
3.750000e+01
3.750000e+01
3.750000e+01
3.750000e+01
3.750000e+01
3.750000e+01
3.750000e+01
3.750000e+01
3.750000e+01
3.750000e+01
3.750000e+01
3.750000e+01
3.750000e+01
3.750000e+01
3.750000e+01
3.750000e+01
3.750000e+01
3.750000e+01
3.750000e+01
3.750000e+01
3.750000e+01
3.750000e+01
3.750000e+01
3.750000e+01
3.750000e+01
3.750000e+01
3.750000e+01
4.375000e+01
4.375000e+01
4.375000e+01
4.375000e+01
4.375000e+01
4.375000e+01
4.375000e+01
4.375000e+01
4.375000e+01
4.375000e+01
4.375000e+01
4.375000e+01
4.375000e+01
4.375000e+01
4.375000e+01
4.375000e+01
4.375000e+01
4.375000e+01
4.375000e+01
4.375000e+01
4.375000e+01
4.375000e+01
4.375000e+01
4.375000e+01
4.375000e+01
4.375000e+01
4.375000e+01
4.375000e+01
4.375000e+01
4.375000e+01
4.375000e+01
4.375000e+01
4.375000e+01
5.000000e+01
5.000000e+01
5.000000e+01
5.000000e+01
5.000000e+01
5.000000e+01
5.000000e+01
5.000000e+01
5.000000e+01
5.000000e+01
5.000000e+01
5.000000e+01
5.000000e+01
5.000000e+01
5.000000e+01
5.000000e+01
5.000000e+01
5.000000e+01
5.000000e+01
5.000000e+01
5.000000e+01
5.000000e+01
5.000000e+01
5.000000e+01
5.000000e+01
5.000000e+01
5.000000e+01
5.000000e+01
5.000000e+01
5.000000e+01
5.000000e+01
5.000000e+01
5.000000e+01
5.625000e+01
5.625000e+01
5.625000e+01
5.625000e+01
5.625000e+01
5.625000e+01
5.625000e+01
5.625000e+01
5.625000e+01
5.625000e+01
5.625000e+01
5.625000e+01
5.625000e+01
5.625000e+01
5.625000e+01
5.625000e+01
5.625000e+01
5.625000e+01
5.625000e+01
5.625000e+01
5.625000e+01
5.625000e+01
5.625000e+01
5.625000e+01
5.625000e+01
5.625000e+01
5.625000e+01
5.625000e+01
5.625000e+01
5.625000e+01
5.625000e+01
5.625000e+01
5.625000e+01
6.250000e+01
6.250000e+01
6.250000e+01
6.250000e+01
6.250000e+01
6.250000e+01
6.250000e+01
6.250000e+01
6.250000e+01
6.250000e+01
6.250000e+01
6.250000e+01
6.250000e+01
6.250000e+01
6.250000e+01
6.250000e+01
6.250000e+01
6.250000e+01
6.250000e+01
6.250000e+01
6.250000e+01
6.250000e+01
6.250000e+01
6.250000e+01
6.250000e+01
6.250000e+01
6.250000e+01
6.250000e+01
6.250000e+01
6.250000e+01
6.250000e+01
6.250000e+01
6.250000e+01
6.875000e+01
6.875000e+01
6.875000e+01
6.875000e+01
6.875000e+01
6.875000e+01
6.875000e+01
6.875000e+01
6.875000e+01
6.875000e+01
6.875000e+01
6.875000e+01
6.875000e+01
6.875000e+01
6.875000e+01
6.875000e+01
6.875000e+01
6.875000e+01
6.875000e+01
6.875000e+01
6.875000e+01
6.875000e+01
6.875000e+01
6.875000e+01
6.875000e+01
6.875000e+01
6.875000e+01
6.875000e+01
6.875000e+01
6.875000e+01
6.875000e+01
6.875000e+01
6.875000e+01
7.500000e+01
7.500000e+01
7.500000e+01
7.500000e+01
7.500000e+01
7.500000e+01
7.500000e+01
7.500000e+01
7.500000e+01
7.500000e+01
7.500000e+01
7.500000e+01
7.500000e+01
7.500000e+01
7.500000e+01
7.500000e+01
7.500000e+01
7.500000e+01
7.500000e+01
7.500000e+01
7.500000e+01
7.500000e+01
7.500000e+01
7.500000e+01
7.500000e+01
7.500000e+01
7.500000e+01
7.500000e+01
7.500000e+01
7.500000e+01
7.500000e+01
7.500000e+01
7.500000e+01
8.125000e+01
8.125000e+01
8.125000e+01
8.125000e+01
8.125000e+01
8.125000e+01
8.125000e+01
8.125000e+01
8.125000e+01
8.125000e+01
8.125000e+01
8.125000e+01
8.125000e+01
8.125000e+01
8.125000e+01
8.125000e+01
8.125000e+01
8.125000e+01
8.125000e+01
8.125000e+01
8.125000e+01
8.125000e+01
8.125000e+01
8.125000e+01
8.125000e+01
8.125000e+01
8.125000e+01
8.125000e+01
8.125000e+01
8.125000e+01
8.125000e+01
8.125000e+01
8.125000e+01
8.750000e+01
8.750000e+01
8.750000e+01
8.750000e+01
8.750000e+01
8.750000e+01
8.750000e+01
8.750000e+01
8.750000e+01
8.750000e+01
8.750000e+01
8.750000e+01
8.750000e+01
8.750000e+01
8.750000e+01
8.750000e+01
8.750000e+01
8.750000e+01
8.750000e+01
8.750000e+01
8.750000e+01
8.750000e+01
8.750000e+01
8.750000e+01
8.750000e+01
8.750000e+01
8.750000e+01
8.750000e+01
8.750000e+01
8.750000e+01
8.750000e+01
8.750000e+01
8.750000e+01
9.375000e+01
9.375000e+01
9.375000e+01
9.375000e+01
9.375000e+01
9.375000e+01
9.375000e+01
9.375000e+01
9.375000e+01
9.375000e+01
9.375000e+01
9.375000e+01
9.375000e+01
9.375000e+01
9.375000e+01
9.375000e+01
9.375000e+01
9.375000e+01
9.375000e+01
9.375000e+01
9.375000e+01
9.375000e+01
9.375000e+01
9.375000e+01
9.375000e+01
9.375000e+01
9.375000e+01
9.375000e+01
9.375000e+01
9.375000e+01
9.375000e+01
9.375000e+01
9.375000e+01
1.000000e+02
1.000000e+02
1.000000e+02
1.000000e+02
1.000000e+02
1.000000e+02
1.000000e+02
1.000000e+02
1.000000e+02
1.000000e+02
1.000000e+02
1.000000e+02
1.000000e+02
1.000000e+02
1.000000e+02
1.000000e+02
1.000000e+02
1.000000e+02
1.000000e+02
1.000000e+02
1.000000e+02
1.000000e+02
1.000000e+02
1.000000e+02
1.000000e+02
1.000000e+02
1.000000e+02
1.000000e+02
1.000000e+02
1.000000e+02
1.000000e+02
1.000000e+02
1.000000e+02
0.000000e+00
-3.726124e-01
-6.705454e-01
-9.604646e-01
-1.256760e+00
-1.546831e+00
-1.835165e+00
-2.124175e+00
-2.412099e+00
-2.698374e+00
-2.983273e+00
-3.266603e+00
-3.547898e+00
-3.826710e+00
-4.102509e+00
-4.374557e+00
-4.641886e+00
-4.903319e+00
-5.157576e+00
-5.403463e+00
-5.640103e+00
-5.867147e+00
-6.084922e+00
-6.294535e+00
-6.497959e+00
-6.698135e+00
-6.899133e+00
-7.106484e+00
-7.328015e+00
-7.574621e+00
-7.853372e+00
-8.151550e+00
-8.325291e+00
0.000000e+00
-2.372185e-01
-4.919143e-01
-7.460864e-01
-1.006462e+00
-1.261455e+00
-1.514314e+00
-1.767569e+00
-2.019781e+00
-2.270381e+00
-2.519647e+00
-2.767475e+00
-3.013480e+00
-3.257289e+00
-3.498462e+00
-3.736383e+00
-3.970222e+00
-4.198949e+00
-4.421401e+00
-4.636434e+00
-4.843099e+00
-5.040801e+00
-5.229391e+00
-5.409190e+00
-5.580960e+00
-5.745811e+00
-5.905043e+00
-6.059800e+00
-6.209966e+00
-6.349758e+00
-6.458213e+00
-6.515572e+00
-6.590867e+00
0.000000e+00
-1.781247e-01
-3.694494e-01
-5.785741e-01
-7.967136e-01
-1.013377e+00
-1.229889e+00
-1.447029e+00
-1.663527e+00
-1.878892e+00
-2.093155e+00
-2.306107e+00
-2.517387e+00
-2.726622e+00
-2.933367e+00
-3.137030e+00
-3.336845e+00
-3.531876e+00
-3.721063e+00
-3.903310e+00
-4.077604e+00
-4.243100e+00
-4.399159e+00
-4.545307e+00
-4.681122e+00
-4.806033e+00
-4.918962e+00
-5.017657e+00
-5.097302e+00
-5.148156e+00
-5.159648e+00
-5.152404e+00
-5.231673e+00
0.000000e+00
-1.390261e-01
-2.880827e-01
-4.520142e-01
-6.260638e-01
-8.029510e-01
-9.820297e-01
-1.162327e+00
-1.342641e+00
-1.522455e+00
-1.701478e+00
-1.879344e+00
-2.055662e+00
-2.230023e+00
-2.401949e+00
-2.570847e+00
-2.735997e+00
-2.896547e+00
-3.051532e+00
-3.199919e+00
-3.340657e+00
-3.472714e+00
-3.595071e+00
-3.706664e+00
-3.806258e+00
-3.892260e+00
-3.962451e+00
-4.013673e+00
-4.041768e+00
-4.043380e+00
-4.026806e+00
-4.028276e+00
-4.102506e+00
0.000000e+00
-1.112310e-01
-2.277770e-01
-3.534225e-01
-4.862788e-01
-6.242581e-01
-7.654030e-01
-9.082369e-01
-1.051756e+00
-1.195300e+00
-1.338348e+00
-1.480443e+00
-1.621162e+00
-1.760066e+00
-1.896662e+00
-2.030377e+00
-2.160545e+00
-2.286394e+00
-2.407049e+00
-2.521541e+00
-2.628822e+00
-2.727770e+00
-2.817176e+00
-2.895704e+00
-2.961826e+00
-3.013763e+00
-3.049492e+00
-3.067053e+00
-3.065730e+00
-3.049785e+00
-3.036926e+00
-3.059547e+00
-3.130861e+00
0.000000e+00
-8.362918e-02
-1.706602e-01
-2.624705e-01
-3.595285e-01
-4.608027e-01
-5.650633e-01
-6.711280e-01
-7.781161e-01
-8.853622e-01
-9.923241e-01
-1.098541e+00
-1.203591e+00
-1.307045e+00
-1.408438e+00
-1.507243e+00
-1.602859e+00
-1.694597e+00
-1.781670e+00
-1.863192e+00
-1.938174e+00
-2.005527e+00
-2.064063e+00
-2.112503e+00
-2.149504e+00
-2.173761e+00
-2.184303e+00
-2.181201e+00
-2.167157e+00
-2.150539e+00
-2.148725e+00
-2.180265e+00
-2.248180e+00
0.000000e+00
-5.578038e-02
-1.135907e-01
-1.742317e-01
-2.379956e-01
-3.045876e-01
-3.733271e-01
-4.434868e-01
-5.144288e-01
-5.856286e-01
-6.566476e-01
-7.271029e-01
-7.966352e-01
-8.648780e-01
-9.314329e-01
-9.958507e-01
-1.057616e+00
-1.116137e+00
-1.170731e+00
-1.220628e+00
-1.264963e+00
-1.302796e+00
-1.333138e+00
-1.355012e+00
-1.367567e+00
-1.370302e+00
-1.363495e+00
-1.348968e+00
-1.331311e+00
-1.319320e+00
-1.325436e+00
-1.359615e+00
-1.420094e+00
0.000000e+00
-2.793218e-02
-5.686195e-02
-8.711442e-02
-1.188360e-01
-1.519234e-01
-1.860985e-01
-2.210106e-01
-2.563230e-01
-2.917381e-01
-3.269940e-01
-3.618478e-01
-3.960580e-01
-4.293654e-01
-4.614767e-01
-4.920504e-01
-5.206845e-01
-5.469079e-01
-5.701755e-01
-5.898704e-01
-6.053169e-01
-6.158112e-01
-6.206786e-01
-6.193716e-01
-6.116341e-01
-5.977650e-01
-5.790235e-01
-5.581911e-01
-5.401784e-01
-5.321565e-01
-5.420273e-01
-5.741456e-01
-6.246289e-01
0.000000e+00
-1.617228e-04
-3.234863e-04
-4.782721e-04
-6.169802e-04
-7.282080e-04
-7.972603e-04
-8.045574e-04
-7.235895e-04
-5.182946e-04
-1.396394e-04
4.788652e-04
1.426896e-03
2.824313e-03
4.829215e-03
7.646363e-03
1.153452e-02
1.681052e-02
2.384746e-02
3.306355e-02
4.489721e-02
5.976227e-02
7.797428e-02
9.963650e-02
1.244715e-01
1.515882e-01
1.791907e-01
2.042900e-01
2.225992e-01
2.289845e-01
2.190292e-01
1.917340e-01
1.517683e-01
0.000000e+00
2.761326e-02
5.622333e-02
8.616951e-02
1.176160e-01
1.504814e-01
1.845159e-01
2.194061e-01
2.548660e-01
2.906668e-01
3.266397e-01
3.626678e-01
3.986787e-01
4.346385e-01
4.705510e-01
5.064594e-01
5.424491e-01
5.786472e-01
6.152148e-01
6.523309e-01
6.901609e-01
7.288077e-01
7.682377e-01
8.081752e-01
8.479612e-01
8.863844e-01
9.215189e-01
9.506521e-01
9.704539e-01
9.776109e-01
9.701013e-01
9.488587e-01
9.188514e-01
0.000000e+00
5.547513e-02
1.129773e-01
1.733221e-01
2.368177e-01
3.031888e-01
3.717792e-01
4.418941e-01
5.129392e-01
5.844492e-01
6.560647e-01
7.275086e-01
7.985619e-01
8.690428e-01
9.387951e-01
1.007684e+00
1.075593e+00
1.142422e+00
1.208080e+00
1.272464e+00
1.335439e+00
1.396795e+00
1.456190e+00
1.513071e+00
1.566569e+00
1.615400e+00
1.657795e+00
1.691552e+00
1.714307e+00
1.724150e+00
1.720603e+00
1.705705e+00
1.684647e+00
0.000000e+00
8.334776e-02
1.700914e-01
2.616233e-01
3.584252e-01
4.594802e-01
5.635767e-01
6.695571e-01
7.765737e-01
8.840052e-01
9.913676e-01
1.098276e+00
1.204407e+00
1.309456e+00
1.413118e+00
1.515073e+00
1.614981e+00
1.712477e+00
1.807165e+00
1.898616e+00
1.986362e+00
2.069878e+00
2.148559e+00
2.221670e+00
2.288287e+00
2.347235e+00
2.397081e+00
2.436218e+00
2.463142e+00
2.476957e+00
2.478134e+00
2.469332e+00
2.455984e+00
0.000000e+00
1.109881e-01
2.272811e-01
3.526796e-01
4.853007e-01
6.230671e-01
7.640314e-01
9.067311e-01
1.050183e+00
1.193752e+00
1.336950e+00
1.479363e+00
1.620615e+00
1.760325e+00
1.898065e+00
2.033339e+00
2.165567e+00
2.294077e+00
2.418108e+00
2.536841e+00
2.649425e+00
2.755009e+00
2.852749e+00
2.941801e+00
3.021284e+00
3.090256e+00
3.147718e+00
3.192694e+00
3.224440e+00
3.242821e+00
3.248884e+00
3.245577e+00
3.238527e+00
0.000000e+00
1.388482e-01
2.877113e-01
4.514504e-01
6.253073e-01
8.020046e-01
9.809027e-01
1.161030e+00
1.341191e+00
1.520875e+00
1.699798e+00
1.877603e+00
2.053899e+00
2.228271e+00
2.400212e+00
2.569074e+00
2.734031e+00
2.894058e+00
3.047964e+00
3.194456e+00
3.332237e+00
3.460089e+00
3.576928e+00
3.681818e+00
3.773968e+00
3.852714e+00
3.917538e+00
3.968118e+00
4.004461e+00
4.027119e+00
4.037568e+00
4.038821e+00
4.036468e+00
0.000000e+00
1.780500e-01
3.692827e-01
5.783065e-01
7.963350e-01
1.012875e+00
1.229258e+00
1.446256e+00
1.662587e+00
1.877755e+00
2.091774e+00
2.304414e+00
2.515274e+00
2.723921e+00
2.929808e+00
3.132166e+00
3.329932e+00
3.521713e+00
3.705829e+00
3.880448e+00
4.043753e+00
4.194100e+00
4.330113e+00
4.450721e+00
4.555167e+00
4.643023e+00
4.714216e+00
4.769086e+00
4.808458e+00
4.833726e+00
4.846966e+00
4.851276e+00
4.851777e+00
0.000000e+00
2.372597e-01
4.919765e-01
7.461643e-01
1.006550e+00
1.261540e+00
1.514392e+00
1.767628e+00
2.019789e+00
2.270290e+00
2.519388e+00
2.766933e+00
3.012481e+00
3.255562e+00
3.495579e+00
3.731645e+00
3.962463e+00
4.186277e+00
4.400922e+00
4.604016e+00
4.793200e+00
4.966355e+00
5.121725e+00
5.257978e+00
5.374235e+00
5.470115e+00
5.545822e+00
5.602251e+00
5.641108e+00
5.664968e+00
5.677180e+00
5.681614e+00
5.682698e+00
0.000000e+00
3.727068e-01
6.707659e-01
9.608362e-01
1.257293e+00
1.547525e+00
1.836040e+00
2.125250e+00
2.413380e+00
2.699858e+00
2.984944e+00
3.268408e+00
3.549726e+00
3.828351e+00
4.103570e+00
4.374313e+00
4.639019e+00
4.895572e+00
5.141378e+00
5.373573e+00
5.589307e+00
5.785965e+00
5.961310e+00
6.113544e+00
6.241371e+00
6.344087e+00
6.421760e+00
6.475470e+00
6.507610e+00
6.522176e+00
6.524893e+00
6.522757e+00
6.521540e+00
0.000000e+00
-2.297038e-01
-4.226782e-01
-6.496526e-01
-9.060872e-01
-1.193742e+00
-1.516490e+00
-1.874758e+00
-2.268482e+00
-2.698160e+00
-3.164006e+00
-3.665900e+00
-4.203636e+00
-4.776927e+00
-5.385329e+00
-6.028218e+00
-6.704778e+00
-7.414001e+00
-8.154712e+00
-8.925639e+00
-9.725519e+00
-1.055322e+01
-1.140792e+01
-1.228934e+01
-1.319805e+01
-1.413598e+01
-1.510714e+01
-1.611870e+01
-1.718281e+01
-1.832086e+01
-1.958074e+01
-2.108448e+01
-2.312900e+01
0.000000e+00
-1.430081e-01
-3.445953e-01
-5.678956e-01
-8.240526e-01
-1.112687e+00
-1.435447e+00
-1.793705e+00
-2.187812e+00
-2.617920e+00
-3.084184e+00
-3.586596e+00
-4.124983e+00
-4.699061e+00
-5.308428e+00
-5.952521e+00
-6.630591e+00
-7.341679e+00
-8.084625e+00
-8.858115e+00
-9.660780e+00
-1.049135e+01
-1.134881e+01
-1.223271e+01
-1.314343e+01
-1.408271e+01
-1.505437e+01
-1.606548e+01
-1.712846e+01
-1.826634e+01
-1.952584e+01
-2.100196e+01
-2.289252e+01
0.000000e+00
-1.069745e-01
-2.840785e-01
-5.022758e-01
-7.557092e-01
-1.043618e+00
-1.365988e+00
-1.724027e+00
-2.118241e+00
-2.548641e+00
-3.015288e+00
-3.518196e+00
-4.057219e+00
-4.632084e+00
-5.242416e+00
-5.887700e+00
-6.567238e+00
-7.280120e+00
-8.025209e+00
-8.801182e+00
-9.606629e+00
-1.044020e+01
-1.130082e+01
-1.218795e+01
-1.310192e+01
-1.404445e+01
-1.501947e+01
-1.603438e+01
-1.710269e+01
-1.824797e+01
-1.950251e+01
-2.088703e+01
-2.238064e+01
0.000000e+00
-9.269636e-02
-2.498498e-01
-4.558612e-01
-7.035108e-01
-9.882748e-01
-1.309066e+00
-1.666298e+00
-2.060183e+00
-2.490613e+00
-2.957548e+00
-3.460942e+00
-4.000638e+00
-4.576369e+00
-5.187774e+00
-5.834362e+00
-6.515471e+00
-7.230225e+00
-7.977520e+00
-8.756058e+00
-9.564436e+00
-1.040130e+01
-1.126558e+01
-1.215669e+01
-1.307498e+01
-1.402216e+01
-1.500206e+01
-1.602188e+01
-1.709405e+01
-1.823667e+01
-1.945711e+01
-2.072167e+01
-2.189315e+01
0.000000e+00
-8.827206e-02
-2.326532e-01
-4.275086e-01
-6.670864e-01
-9.470135e-01
-1.265078e+00
-1.620796e+00
-2.013890e+00
-2.444079e+00
-2.911177e+00
-3.415033e+00
-3.955439e+00
-4.532119e+00
-5.144708e+00
-5.792725e+00
-6.475523e+00
-7.192251e+00
-7.941843e+00
-8.723041e+00
-9.534481e+00
-1.037484e+01
-1.124303e+01
-1.213846e+01
-1.306134e+01
-1.401309e+01
-1.499692e+01
-1.601841e+01
-1.708599e+01
-1.820762e+01
-1.937178e+01
-2.051891e+01
-2.154536e+01
0.000000e+00
-8.530996e-02
-2.230060e-01
-4.100734e-01
-6.429069e-01
-9.179431e-01
-1.233002e+00
-1.586916e+00
-1.979013e+00
-2.408821e+00
-2.876004e+00
-3.380292e+00
-3.921421e+00
-4.499086e+00
-5.112915e+00
-5.762423e+00
-6.446970e+00
-7.165729e+00
-7.917663e+00
-8.701553e+00
-9.516068e+00
-1.035989e+01
-1.123188e+01
-1.213130e+01
-1.305804e+01
-1.401285e+01
-1.499757e+01
-1.601508e+01
-1.706823e+01
-1.815505e+01
-1.925312e+01
-2.030860e+01
-2.124735e+01
0.000000e+00
-8.317563e-02
-2.170461e-01
-3.993690e-01
-6.275208e-01
-8.988686e-01
-1.211382e+00
-1.563697e+00
-1.954900e+00
-2.384361e+00
-2.851619e+00
-3.356319e+00
-3.898144e+00
-4.476767e+00
-5.091804e+00
-5.742772e+00
-6.429038e+00
-7.149789e+00
-7.904010e+00
-8.690500e+00
-9.507926e+00
-1.035491e+01
-1.123019e+01
-1.213271e+01
-1.306180e+01
-1.401723e+01
-1.499907e+01
-1.600707e+01
-1.703898e+01
-1.808588e+01
-1.912326e+01
-2.010812e+01
-2.098823e+01
0.000000e+00
-8.193369e-02
-2.137110e-01
-3.934499e-01
-6.189724e-01
-8.881026e-01
-1.199006e+00
-1.550286e+00
-1.940930e+00
-2.370212e+00
-2.837604e+00
-3.342699e+00
-3.885156e+00
-4.464636e+00
-5.080759e+00
-5.733049e+00
-6.420888e+00
-7.143472e+00
-7.899792e+00
-8.688634e+00
-9.508608e+00
-1.035822e+01
-1.123594e+01
-1.214030e+01
-1.306990e+01
-1.402337e+01
-1.499895e+01
-1.599371e+01
-1.700176e+01
-1.801103e+01
-1.899884e+01
-1.993210e+01
-2.077409e+01
0.000000e+00
-8.152619e-02
-2.126362e-01
-3.915667e-01
-6.162679e-01
-8.847048e-01
-1.195116e+00
-1.546113e+00
-1.936663e+00
-2.366019e+00
-2.833636e+00
-3.339104e+00
-3.882085e+00
-4.462256e+00
-5.079255e+00
-5.732628e+00
-6.421776e+00
-7.145904e+00
-7.903994e+00
-8.694782e+00
-9.516773e+00
-1.036828e+01
-1.124744e+01
-1.215227e+01
-1.308062e+01
-1.402995e+01
-1.499699e+01
-1.597687e+01
-1.696176e+01
-1.793895e+01
-1.888893e+01
-1.978651e+01
-2.060507e+01
0.000000e+00
-8.192781e-02
-2.137222e-01
-3.935084e-01
-6.191135e-01
-8.883684e-01
-1.199447e+00
-1.550964e+00
-1.941923e+00
-2.371619e+00
-2.839550e+00
-3.345345e+00
-3.888705e+00
-4.469342e+00
-5.086933e+00
-5.741060e+00
-6.431149e+00
-7.156417e+00
-7.915819e+00
-8.708017e+00
-9.531370e+00
-1.038394e+01
-1.126351e+01
-1.216756e+01
-1.309319e+01
-1.403692e+01
-1.499432e+01
-1.595938e+01
-1.692359e+01
-1.787494e+01
-1.879730e+01
-1.967145e+01
-2.047744e+01
0.000000e+00
-8.315940e-02
-2.170609e-01
-3.994747e-01
-6.277869e-01
-8.993757e-01
-1.212227e+00
-1.565000e+00
-1.956810e+00
-2.387067e+00
-2.855362e+00
-3.361405e+00
-3.904961e+00
-4.485799e+00
-5.103646e+00
-5.758130e+00
-6.448715e+00
-7.174624e+00
-7.934781e+00
-8.727755e+00
-9.551736e+00
-1.040453e+01
-1.128354e+01
-1.218575e+01
-1.310763e+01
-1.404497e+01
-1.499260e+01
-1.594394e+01
-1.689059e+01
-1.782184e+01
-1.872468e+01
-1.958453e+01
-2.038633e+01
0.000000e+00
-8.527465e-02
-2.230099e-01
-4.102059e-01
-6.432671e-01
-9.186445e-01
-1.234182e+00
-1.588741e+00
-1.981693e+00
-2.412621e+00
-2.881259e+00
-3.387427e+00
-3.930974e+00
-4.511730e+00
-5.129478e+00
-5.783895e+00
-6.474481e+00
-7.200472e+00
-7.960753e+00
-8.753797e+00
-9.577622e+00
-1.042978e+01
-1.130735e+01
-1.220690e+01
-1.312440e+01
-1.405513e+01
-1.499347e+01
-1.593270e+01
-1.686487e+01
-1.778078e+01
-1.867019e+01
-1.952237e+01
-2.032644e+01
0.000000e+00
-8.820635e-02
-2.326290e-01
-4.276423e-01
-6.675002e-01
-9.478456e-01
-1.266495e+00
-1.623001e+00
-2.017139e+00
-2.448690e+00
-2.917556e+00
-3.423691e+00
-3.967021e+00
-4.547429e+00
-5.164742e+00
-5.818678e+00
-6.508767e+00
-7.234251e+00
-7.993976e+00
-8.786319e+00
-9.609149e+00
-1.045981e+01
-1.133512e+01
-1.223134e+01
-1.314410e+01
-1.406834e+01
-1.499822e+01
-1.592708e+01
-1.684755e+01
-1.775180e+01
-1.863205e+01
-1.948105e+01
-2.029209e+01
0.000000e+00
-9.259277e-02
-2.497888e-01
-4.559759e-01
-7.039388e-01
-9.891699e-01
-1.310613e+00
-1.668725e+00
-2.063773e+00
-2.495720e+00
-2.964617e+00
-3.470537e+00
-4.013465e+00
-4.593309e+00
-5.209913e+00
-5.863013e+00
-6.552144e+00
-7.276532e+00
-8.034980e+00
-8.825787e+00
-9.646708e+00
-1.049495e+01
-1.136717e+01
-1.225945e+01
-1.316721e+01
-1.408523e+01
-1.500757e+01
-1.592772e+01
-1.683881e+01
-1.773417e+01
-1.860804e+01
-1.945636e+01
-2.027706e+01
0.000000e+00
-1.068503e-01
-2.839964e-01
-5.023713e-01
-7.561288e-01
-1.044526e+00
-1.367577e+00
-1.726538e+00
-2.121969e+00
-2.553954e+00
-3.022651e+00
-3.528193e+00
-4.070578e+00
-4.649711e+00
-5.265424e+00
-5.917423e+00
-6.605203e+00
-7.327941e+00
-8.084379e+00
-8.872758e+00
-9.690779e+00
-1.053560e+01
-1.140383e+01
-1.229147e+01
-1.319392e+01
-1.410589e+01
-1.502148e+01
-1.593432e+01
-1.683795e+01
-1.772646e+01
-1.859558e+01
-1.944394e+01
-2.027438e+01
0.000000e+00
-1.428987e-01
-3.445177e-01
-5.679890e-01
-8.244694e-01
-1.113596e+00
-1.437046e+00
-1.796235e+00
-2.191570e+00
-2.623276e+00
-3.091603e+00
-3.596659e+00
-4.138413e+00
-4.716751e+00
-5.331461e+00
-5.982174e+00
-6.668289e+00
-7.388879e+00
-8.142607e+00
-8.927669e+00
-9.741769e+00
-1.058210e+01
-1.144532e+01
-1.232749e+01
-1.322406e+01
-1.412983e+01
-1.503902e+01
-1.594545e+01
-1.684296e+01
-1.772614e+01
-1.859152e+01
-1.943944e+01
-2.027655e+01
0.000000e+00
-2.296294e-01
-4.226287e-01
-6.497746e-01
-9.065312e-01
-1.194680e+00
-1.518122e+00
-1.877323e+00
-2.272273e+00
-2.703546e+00
-3.171444e+00
-3.675959e+00
-4.217019e+00
-4.794492e+00
-5.408097e+00
-6.057352e+00
-6.741511e+00
-7.459503e+00
-8.209883e+00
-8.990811e+00
-9.800024e+00
-1.063480e+01
-1.149190e+01