TITLE = "Solution"
VARIABLES = x, y, u, v, psiu, psiv, t, stress
ZONE T="structure" N=153 E=128 F=FEBLOCK ET=QUADRILATERAL VARLOCATION=([7,8]=cellcentered)
0.000000e+00
1.250000e+01
2.500000e+01
3.750000e+01
5.000000e+01
6.250000e+01
7.500000e+01
8.750000e+01
1.000000e+02
1.125000e+02
1.250000e+02
1.375000e+02
1.500000e+02
1.625000e+02
1.750000e+02
1.875000e+02
2.000000e+02
0.000000e+00
1.250000e+01
2.500000e+01
3.750000e+01
5.000000e+01
6.250000e+01
7.500000e+01
8.750000e+01
1.000000e+02
1.125000e+02
1.250000e+02
1.375000e+02
1.500000e+02
1.625000e+02
1.750000e+02
1.875000e+02
2.000000e+02
0.000000e+00
1.250000e+01
2.500000e+01
3.750000e+01
5.000000e+01
6.250000e+01
7.500000e+01
8.750000e+01
1.000000e+02
1.125000e+02
1.250000e+02
1.375000e+02
1.500000e+02
1.625000e+02
1.750000e+02
1.875000e+02
2.000000e+02
0.000000e+00
1.250000e+01
2.500000e+01
3.750000e+01
5.000000e+01
6.250000e+01
7.500000e+01
8.750000e+01
1.000000e+02
1.125000e+02
1.250000e+02
1.375000e+02
1.500000e+02
1.625000e+02
1.750000e+02
1.875000e+02
2.000000e+02
0.000000e+00
1.250000e+01
2.500000e+01
3.750000e+01
5.000000e+01
6.250000e+01
7.500000e+01
8.750000e+01
1.000000e+02
1.125000e+02
1.250000e+02
1.375000e+02
1.500000e+02
1.625000e+02
1.750000e+02
1.875000e+02
2.000000e+02
0.000000e+00
1.250000e+01
2.500000e+01
3.750000e+01
5.000000e+01
6.250000e+01
7.500000e+01
8.750000e+01
1.000000e+02
1.125000e+02
1.250000e+02
1.375000e+02
1.500000e+02
1.625000e+02
1.750000e+02
1.875000e+02
2.000000e+02
0.000000e+00
1.250000e+01
2.500000e+01
3.750000e+01
5.000000e+01
6.250000e+01
7.500000e+01
8.750000e+01
1.000000e+02
1.125000e+02
1.250000e+02
1.375000e+02
1.500000e+02
1.625000e+02
1.750000e+02
1.875000e+02
2.000000e+02
0.000000e+00
1.250000e+01
2.500000e+01
3.750000e+01
5.000000e+01
6.250000e+01
7.500000e+01
8.750000e+01
1.000000e+02
1.125000e+02
1.250000e+02
1.375000e+02
1.500000e+02
1.625000e+02
1.750000e+02
1.875000e+02
2.000000e+02
0.000000e+00
1.250000e+01
2.500000e+01
3.750000e+01
5.000000e+01
6.250000e+01
7.500000e+01
8.750000e+01
1.000000e+02
1.125000e+02
1.250000e+02
1.375000e+02
1.500000e+02
1.625000e+02
1.750000e+02
1.875000e+02
2.000000e+02
0.000000e+00
0.000000e+00
0.000000e+00
0.000000e+00
0.000000e+00
0.000000e+00
0.000000e+00
0.000000e+00
0.000000e+00
0.000000e+00
0.000000e+00
0.000000e+00
0.000000e+00
0.000000e+00
0.000000e+00
0.000000e+00
0.000000e+00
1.250000e+01
1.250000e+01
1.250000e+01
1.250000e+01
1.250000e+01
1.250000e+01
1.250000e+01
1.250000e+01
1.250000e+01
1.250000e+01
1.250000e+01
1.250000e+01
1.250000e+01
1.250000e+01
1.250000e+01
1.250000e+01
1.250000e+01
2.500000e+01
2.500000e+01
2.500000e+01
2.500000e+01
2.500000e+01
2.500000e+01
2.500000e+01
2.500000e+01
2.500000e+01
2.500000e+01
2.500000e+01
2.500000e+01
2.500000e+01
2.500000e+01
2.500000e+01
2.500000e+01
2.500000e+01
3.750000e+01
3.750000e+01
3.750000e+01
3.750000e+01
3.750000e+01
3.750000e+01
3.750000e+01
3.750000e+01
3.750000e+01
3.750000e+01
3.750000e+01
3.750000e+01
3.750000e+01
3.750000e+01
3.750000e+01
3.750000e+01
3.750000e+01
5.000000e+01
5.000000e+01
5.000000e+01
5.000000e+01
5.000000e+01
5.000000e+01
5.000000e+01
5.000000e+01
5.000000e+01
5.000000e+01
5.000000e+01
5.000000e+01
5.000000e+01
5.000000e+01
5.000000e+01
5.000000e+01
5.000000e+01
6.250000e+01
6.250000e+01
6.250000e+01
6.250000e+01
6.250000e+01
6.250000e+01
6.250000e+01
6.250000e+01
6.250000e+01
6.250000e+01
6.250000e+01
6.250000e+01
6.250000e+01
6.250000e+01
6.250000e+01
6.250000e+01
6.250000e+01
7.500000e+01
7.500000e+01
7.500000e+01
7.500000e+01
7.500000e+01
7.500000e+01
7.500000e+01
7.500000e+01
7.500000e+01
7.500000e+01
7.500000e+01
7.500000e+01
7.500000e+01
7.500000e+01
7.500000e+01
7.500000e+01
7.500000e+01
8.750000e+01
8.750000e+01
8.750000e+01
8.750000e+01
8.750000e+01
8.750000e+01
8.750000e+01
8.750000e+01
8.750000e+01
8.750000e+01
8.750000e+01
8.750000e+01
8.750000e+01
8.750000e+01
8.750000e+01
8.750000e+01
8.750000e+01
1.000000e+02
1.000000e+02
1.000000e+02
1.000000e+02
1.000000e+02
1.000000e+02
1.000000e+02
1.000000e+02
1.000000e+02
1.000000e+02
1.000000e+02
1.000000e+02
1.000000e+02
1.000000e+02
1.000000e+02
1.000000e+02
1.000000e+02
0.000000e+00
-9.973387e-01
-1.679601e+00
-2.432753e+00
-3.120416e+00
-3.752269e+00
-4.461602e+00
-5.090061e+00
-5.762992e+00
-6.409831e+00
-7.049776e+00
-7.733796e+00
-8.387605e+00
-9.144120e+00
-1.006836e+01
-1.082681e+01
-1.127797e+01
0.000000e+00
-4.464320e-01
-9.059768e-01
-1.418714e+00
-1.930550e+00
-2.409187e+00
-2.923967e+00
-3.420430e+00
-3.917062e+00
-4.419800e+00
-4.910680e+00
-5.420908e+00
-5.910450e+00
-6.420743e+00
-6.894875e+00
-7.021342e+00
-7.200303e+00
0.000000e+00
-1.455040e-01
-3.473878e-01
-6.374646e-01
-9.747992e-01
-1.298746e+00
-1.651884e+00
-2.008415e+00
-2.352865e+00
-2.715116e+00
-3.055785e+00
-3.391374e+00
-3.689273e+00
-3.925532e+00
-4.036007e+00
-4.034670e+00
-4.182524e+00
0.000000e+00
-7.818311e-02
-1.603809e-01
-3.068412e-01
-4.510977e-01
-6.231421e-01
-8.089269e-01
-9.737617e-01
-1.160453e+00
-1.323963e+00
-1.483487e+00
-1.625785e+00
-1.720747e+00
-1.731570e+00
-1.658095e+00
-1.636667e+00
-1.753526e+00
0.000000e+00
-2.627945e-03
-5.978326e-03
-8.760823e-03
-1.185073e-02
-1.365708e-02
-1.143282e-02
-6.789541e-03
3.013392e-03
2.029427e-02
4.324716e-02
8.624821e-02
1.644470e-01
2.732050e-01
3.895124e-01
4.311313e-01
3.326373e-01
0.000000e+00
7.359595e-02
1.514213e-01
2.910514e-01
4.291667e-01
5.998720e-01
7.840763e-01
9.609793e-01
1.171249e+00
1.362902e+00
1.575263e+00
1.788378e+00
2.011247e+00
2.216323e+00
2.347753e+00
2.378582e+00
2.311858e+00
0.000000e+00
1.439183e-01
3.444973e-01
6.295447e-01
9.613450e-01
1.282113e+00
1.631689e+00
1.992758e+00
2.357641e+00
2.769649e+00
3.152558e+00
3.511682e+00
3.837752e+00
4.114702e+00
4.290929e+00
4.344625e+00
4.321063e+00
0.000000e+00
4.447593e-01
9.090085e-01
1.419681e+00
1.929027e+00
2.410788e+00
2.918196e+00
3.413268e+00
3.901287e+00
4.391506e+00
4.876677e+00
5.349365e+00
5.764859e+00
6.113596e+00
6.331958e+00
6.428736e+00
6.446579e+00
0.000000e+00
9.943827e-01
1.686034e+00
2.442071e+00
3.130064e+00
3.777170e+00
4.481766e+00
5.107694e+00
5.755595e+00
6.328628e+00
6.901063e+00
7.501215e+00
8.015741e+00
8.432291e+00
8.634938e+00
8.688543e+00
8.689360e+00
0.000000e+00
-6.192179e-01
-1.362925e+00
-2.366186e+00
-3.542874e+00
-4.889832e+00
-6.426277e+00
-8.117858e+00
-9.983890e+00
-1.201255e+01
-1.419923e+01
-1.655611e+01
-1.907012e+01
-2.179576e+01
-2.475756e+01
-2.811167e+01
-3.312643e+01
0.000000e+00
-4.164610e-01
-1.194653e+00
-2.179658e+00
-3.373932e+00
-4.715668e+00
-6.248799e+00
-7.949440e+00
-9.807758e+00
-1.184527e+01
-1.402729e+01
-1.638533e+01
-1.889896e+01
-2.160474e+01
-2.461726e+01
-2.802850e+01
-3.207264e+01
0.000000e+00
-3.910414e-01
-1.092790e+00
-2.076229e+00
-3.254963e+00
-4.589138e+00
-6.129217e+00
-7.819505e+00
-9.688808e+00
-1.172495e+01
-1.391641e+01
-1.628749e+01
-1.880954e+01
-2.154078e+01
-2.460642e+01
-2.787843e+01
-3.090631e+01
0.000000e+00
-4.499956e-01
-1.089137e+00
-2.049894e+00
-3.191920e+00
-4.518193e+00
-6.066095e+00
-7.743557e+00
-9.631847e+00
-1.166935e+01
-1.388177e+01
-1.627345e+01
-1.881689e+01
-2.154896e+01
-2.453347e+01
-2.757071e+01
-3.019457e+01
0.000000e+00
-4.563423e-01
-1.111541e+00
-2.034311e+00
-3.175973e+00
-4.507730e+00
-6.042334e+00
-7.742213e+00
-9.625776e+00
-1.168228e+01
-1.391555e+01
-1.630656e+01
-1.885720e+01
-2.154874e+01
-2.437853e+01
-2.720031e+01
-2.958826e+01
0.000000e+00
-4.468873e-01
-1.088430e+00
-2.051760e+00
-3.194856e+00
-4.534865e+00
-6.091049e+00
-7.783040e+00
-9.691913e+00
-1.175070e+01
-1.399008e+01
-1.635955e+01
-1.888373e+01
-2.153881e+01
-2.424287e+01
-2.687564e+01
-2.914526e+01
0.000000e+00
-3.867042e-01
-1.091032e+00
-2.078147e+00
-3.262077e+00
-4.615600e+00
-6.174765e+00
-7.897425e+00
-9.802212e+00
-1.187078e+01
-1.407699e+01
-1.642709e+01
-1.891840e+01
-2.153734e+01
-2.416134e+01
-2.666766e+01
-2.890953e+01
0.000000e+00
-4.124112e-01
-1.192005e+00
-2.180996e+00
-3.382644e+00
-4.742694e+00
-6.302098e+00
-8.040174e+00
-9.942850e+00
-1.201040e+01
-1.419129e+01
-1.652488e+01
-1.899334e+01
-2.157664e+01
-2.414145e+01
-2.658004e+01
-2.884740e+01
0.000000e+00
-6.165803e-01
-1.361509e+00
-2.367253e+00
-3.553257e+00
-4.918178e+00
-6.479967e+00
-8.208387e+00
-1.011409e+01
-1.216536e+01
-1.434619e+01
-1.667133e+01
-1.911505e+01
-2.165868e+01
-2.416651e+01
-2.656538e+01
-2.884589e+01


0.000000e+00
1.534160e-05
2.483553e-05
3.691327e-05
5.244285e-05
6.535308e-05
8.092620e-05
9.474221e-05
1.102723e-04
1.246927e-04
1.405652e-04
1.556970e-04
1.716065e-04
1.881032e-04
1.990673e-04
2.049249e-04
2.119342e-04
0.000000e+00
1.148510e-05
1.983726e-05
2.865687e-05
4.137137e-05
5.239788e-05
6.278783e-05
7.421633e-05
8.454596e-05
9.548572e-05
1.058195e-04
1.159082e-04
1.261009e-04
1.361128e-04
1.390531e-04
1.427878e-04
1.485929e-04
0.000000e+00
9.737564e-06
1.559091e-05
2.142368e-05
3.090852e-05
3.852266e-05
4.487205e-05
5.266370e-05
5.848828e-05
6.501230e-05
7.037220e-05
7.513965e-05
7.884662e-05
8.130321e-05
8.136184e-05
8.387948e-05
8.820455e-05
0.000000e+00
5.447584e-06
7.501572e-06
1.115915e-05
1.592229e-05
1.822900e-05
2.272764e-05
2.484040e-05
2.796741e-05
2.912241e-05
3.124200e-05
3.019078e-05
2.863701e-05
2.708305e-05
2.749936e-05
3.109977e-05
3.684931e-05
0.000000e+00
-9.724191e-08
-2.404552e-07
-4.410955e-07
-6.772695e-07
-9.514971e-07
-1.315724e-06
-1.591033e-06
-2.469371e-06
-3.689883e-06
-7.064344e-06
-1.143690e-05
-1.421029e-05
-1.499433e-05
-1.460546e-05
-1.219263e-05
-8.028328e-06
0.000000e+00
-5.586027e-06
-7.879875e-06
-1.180763e-05
-1.706796e-05
-1.998691e-05
-2.466537e-05
-2.800060e-05
-3.081346e-05
-3.274245e-05
-3.647467e-05
-4.212478e-05
-4.602607e-05
-4.696033e-05
-4.765678e-05
-4.829747e-05
-4.674462e-05
0.000000e+00
-9.775859e-06
-1.561673e-05
-2.157034e-05
-3.158644e-05
-3.924567e-05
-4.629857e-05
-5.438882e-05
-5.946514e-05
-6.394057e-05
-6.831681e-05
-7.306494e-05
-7.701002e-05
-7.942128e-05
-8.171029e-05
-8.376068e-05
-8.452681e-05
0.000000e+00
-1.146592e-05
-1.976702e-05
-2.852653e-05
-4.146080e-05
-5.226773e-05
-6.297046e-05
-7.465505e-05
-8.463770e-05
-9.518966e-05
-1.056153e-04
-1.126604e-04
-1.175318e-04
-1.222032e-04
-1.254016e-04
-1.265779e-04
-1.267225e-04
0.000000e+00
-1.539372e-05
-2.487885e-05
-3.673173e-05
-5.208707e-05
-6.475006e-05
-7.956523e-05
-9.379241e-05
-1.083572e-04
-1.248378e-04
-1.430602e-04
-1.575335e-04
-1.651642e-04
-1.701216e-04
-1.724006e-04
-1.724638e-04
-1.722293e-04
0.000000e+00
1.264433e-05
1.993911e-05
3.201220e-05
4.739844e-05
6.367968e-05
8.503913e-05
1.098247e-04
1.391167e-04
1.728274e-04
2.119530e-04
2.562002e-04
3.066063e-04
3.622329e-04
4.240902e-04
4.944290e-04
5.677512e-04
0.000000e+00
7.729686e-06
1.604661e-05
2.593221e-05
4.099860e-05
5.780256e-05
7.861122e-05
1.038056e-04
1.327019e-04
1.667311e-04
2.055671e-04
2.501540e-04
3.002322e-04
3.568298e-04
4.185266e-04
4.869275e-04
5.572851e-04
0.000000e+00
4.277170e-06
1.206208e-05
2.111496e-05
3.508993e-05
5.287214e-05
7.356074e-05
9.891627e-05
1.279875e-04
1.619445e-04
2.011802e-04
2.460305e-04
2.968697e-04
3.547050e-04
4.142128e-04
4.794203e-04
5.474594e-04
0.000000e+00
2.944728e-06
9.970716e-06
1.894161e-05
3.291004e-05
5.055543e-05
7.189758e-05
9.704268e-05
1.265483e-04
1.598178e-04
1.990535e-04
2.453848e-04
2.970435e-04
3.540824e-04
4.115832e-04
4.713866e-04
5.332059e-04
0.000000e+00
2.436859e-06
9.409946e-06
1.845985e-05
3.235247e-05
5.000175e-05
7.120513e-05
9.668146e-05
1.262416e-04
1.584510e-04
1.978280e-04
2.464018e-04
2.984924e-04
3.544493e-04
4.106056e-04
4.646121e-04
5.167832e-04
0.000000e+00
3.056284e-06
1.014603e-05
1.906853e-05
3.301804e-05
5.053512e-05
7.143014e-05
9.674533e-05
1.259894e-04
1.577072e-04
1.985964e-04
2.493766e-04
3.011901e-04
3.543896e-04
4.105471e-04
4.621717e-04
5.056579e-04
0.000000e+00
4.429169e-06
1.232554e-05
2.134421e-05
3.539178e-05
5.263245e-05
7.296537e-05
9.770598e-05
1.259830e-04
1.588762e-04
2.013819e-04
2.530209e-04
3.045111e-04
3.557582e-04
4.094956e-04
4.596542e-04
5.023328e-04
0.000000e+00
7.849270e-06
1.632212e-05
2.630071e-05
4.128831e-05
5.775709e-05
7.802538e-05
1.023676e-04
1.298852e-04
1.636135e-04
2.059300e-04
2.559052e-04
3.072594e-04
3.576269e-04
4.093025e-04
4.578462e-04
5.028535e-04
0.000000e+00
1.277149e-05
2.019725e-05
3.240113e-05
4.769958e-05
6.363681e-05
8.457593e-05
1.084958e-04
1.361155e-04
1.706524e-04
2.122617e-04
2.594482e-04
3.087926e-04
3.591114e-04
4.093944e-04
4.573774e-04
5.031585e-04


5.712819e+00
6.154989e+00
6.872166e+00
5.962453e+00
5.872865e+00
6.789471e+00
6.371360e+00
6.093488e+00
5.766008e+00
6.012741e+00
6.721429e+00
7.378507e+00
8.863346e+00
9.824830e+00
9.153963e+00
8.002582e+00
8.099671e+00
8.469120e+00
8.664026e+00
8.359361e+00
8.304146e+00
8.614258e+00
8.643764e+00
8.292142e+00
8.272486e+00
8.360332e+00
8.580922e+00
8.970478e+00
9.489322e+00
9.844227e+00
8.401947e+00
6.461141e+00
9.846287e+00
9.824290e+00
1.000000e+01
9.838678e+00
9.836413e+00
9.987397e+00
9.836576e+00
9.923285e+00
9.853825e+00
9.868277e+00
9.937617e+00
9.872396e+00
9.893354e+00
9.438389e+00
8.065334e+00
6.228719e+00
1.000000e+01
1.000000e+01
1.000000e+01
1.000000e+01
1.000000e+01
1.000000e+01
1.000000e+01
9.999999e+00
9.999996e+00
9.999988e+00
9.999983e+00
9.481156e+00
8.822474e+00
8.411458e+00
8.104461e+00
8.007563e+00
1.000000e+01
1.000000e+01
1.000000e+01
1.000000e+01
1.000000e+01
1.000000e+01
9.999999e+00
9.999930e+00
9.999630e+00
9.980054e+00
9.368310e+00
8.643969e+00
7.732553e+00
7.766824e+00
8.700035e+00
9.229037e+00
9.835405e+00
9.824555e+00
1.000000e+01
9.837037e+00
9.838769e+00
9.910306e+00
9.836527e+00
9.998215e+00
9.763149e+00
9.219144e+00
8.525367e+00
7.960205e+00
8.300760e+00
8.778992e+00
9.452294e+00
9.999989e+00
8.034135e+00
8.438409e+00
8.658498e+00
8.358765e+00
8.003459e+00
8.153262e+00
8.642713e+00
8.698567e+00
8.630700e+00
8.103472e+00
7.836066e+00
8.556258e+00
9.355610e+00
9.880601e+00
9.999969e+00
1.000000e+01
5.550841e+00
6.089726e+00
6.853143e+00
5.851618e+00
5.260241e+00
5.749458e+00
6.360395e+00
7.191052e+00
6.991188e+00
7.252573e+00
8.267791e+00
9.092822e+00
9.999166e+00
9.999986e+00
1.000000e+01
1.000000e+01


-8.234053e-01
-1.638764e-01
-3.999067e-01
-2.621455e-01
-8.793930e-02
-3.120032e-01
-1.192564e-01
-2.056276e-01
-1.710427e-01
-1.361163e-01
-2.622123e-01
-1.601118e-01
-4.101658e-01
-6.649749e-01
3.129843e-01
-8.557569e-01
6.108150e-01
4.839044e-01
2.956799e-01
2.251235e-01
2.936943e-01
1.639574e-01
1.750884e-01
1.665845e-01
1.042082e-01
1.470999e-01
1.138645e-01
2.344211e-01
3.297765e-01
5.137054e-01
6.965073e-01
-9.196816e-01
7.225787e-01
4.721621e-01
5.566196e-02
-2.573034e-02
-3.701057e-02
-2.001372e-01
-9.200055e-02
-1.465403e-01
-9.175369e-02
-1.157303e-02
2.605598e-02
1.867658e-01
2.944637e-01
1.508296e-01
-3.075829e-02
-1.536417e-01
7.276573e-01
5.549775e-01
1.896457e-01
5.724816e-02
-2.636560e-02
-1.135512e-01
-2.703951e-02
-6.745788e-02
9.308862e-03
2.332614e-02
6.581740e-02
1.289676e-01
8.188001e-02
-2.534555e-01
-4.117930e-01
-9.147311e-02
7.312604e-01
5.573000e-01
1.950159e-01
6.280423e-02
-3.564887e-02
-1.254073e-01
-5.752309e-02
-1.077390e-01
-4.324277e-02
-4.633841e-02
3.512688e-02
2.207376e-02
-1.829897e-02
-1.030524e-01
-1.117193e-01
2.957295e-01
7.309388e-01
4.779952e-01
7.256720e-02
-5.642742e-03
-5.627757e-02
-2.208968e-01
-1.719888e-01
-2.859986e-01
-2.408052e-01
-1.416311e-01
-6.010615e-02
-8.307294e-02
-1.198951e-01
5.841388e-02
3.368310e-01
7.230851e-01
6.172339e-01
4.811767e-01
3.087541e-01
2.399388e-01
2.895259e-01
1.698410e-01
1.373924e-01
8.177126e-02
-7.669080e-02
-7.334584e-02
-7.853866e-02
-1.899954e-02
4.241472e-02
3.609047e-01
7.099116e-01
9.467353e-01
-8.106527e-01
-1.915414e-01
-4.012196e-01
-2.582047e-01
-1.229491e-01
-2.890929e-01
-1.157573e-01
-1.494922e-01
-2.921502e-02
-3.332463e-02
-8.456090e-02
1.499755e-01
3.767456e-01
7.697666e-01
9.521310e-01
9.986655e-01
1 2 19 18
2 3 20 19
3 4 21 20
4 5 22 21
5 6 23 22
6 7 24 23
7 8 25 24
8 9 26 25
9 10 27 26
10 11 28 27
11 12 29 28
12 13 30 29
13 14 31 30
14 15 32 31
15 16 33 32
16 17 34 33
18 19 36 35
19 20 37 36
20 21 38 37
21 22 39 38
22 23 40 39
23 24 41 40
24 25 42 41
25 26 43 42
26 27 44 43
27 28 45 44
28 29 46 45
29 30 47 46
30 31 48 47
31 32 49 48
32 33 50 49
33 34 51 50
35 36 53 52
36 37 54 53
37 38 55 54
38 39 56 55
39 40 57 56
40 41 58 57
41 42 59 58
42 43 60 59
43 44 61 60
44 45 62 61
45 46 63 62
46 47 64 63
47 48 65 64
48 49 66 65
49 50 67 66
50 51 68 67
52 53 70 69
53 54 71 70
54 55 72 71
55 56 73 72
56 57 74 73
57 58 75 74
58 59 76 75
59 60 77 76
60 61 78 77
61 62 79 78
62 63 80 79
63 64 81 80
64 65 82 81
65 66 83 82
66 67 84 83
67 68 85 84
69 70 87 86
70 71 88 87
71 72 89 88
72 73 90 89
73 74 91 90
74 75 92 91
75 76 93 92
76 77 94 93
77 78 95 94
78 79 96 95
79 80 97 96
80 81 98 97
81 82 99 98
82 83 100 99
83 84 101 100
84 85 102 101
86 87 104 103
87 88 105 104
88 89 106 105
89 90 107 106
90 91 108 107
91 92 109 108
92 93 110 109
93 94 111 110
94 95 112 111
95 96 113 112
96 97 114 113
97 98 115 114
98 99 116 115
99 100 117 116
100 101 118 117
101 102 119 118
103 104 121 120
104 105 122 121
105 106 123 122
106 107 124 123
107 108 125 124
108 109 126 125
109 110 127 126
110 111 128 127
111 112 129 128
112 113 130 129
113 114 131 130
114 115 132 131
115 116 133 132
116 117 134 133
117 118 135 134
118 119 136 135
120 121 138 137
121 122 139 138
122 123 140 139
123 124 141 140
124 125 142 141
125 126 143 142
126 127 144 143
127 128 145 144
128 129 146 145
129 130 147 146
130 131 148 147
131 132 149 148
132 133 150 149
133 134 151 150
134 135 152 151
135 136 153 152
