TITLE = "Solution"
VARIABLES = x, y, u, v, psiu, psiv, t, stress
ZONE T="structure" N=153 E=128 F=FEBLOCK ET=QUADRILATERAL VARLOCATION=([7,8]=cellcentered)
0.000000e+00
1.250000e+01
2.500000e+01
3.750000e+01
5.000000e+01
6.250000e+01
7.500000e+01
8.750000e+01
1.000000e+02
1.125000e+02
1.250000e+02
1.375000e+02
1.500000e+02
1.625000e+02
1.750000e+02
1.875000e+02
2.000000e+02
0.000000e+00
1.250000e+01
2.500000e+01
3.750000e+01
5.000000e+01
6.250000e+01
7.500000e+01
8.750000e+01
1.000000e+02
1.125000e+02
1.250000e+02
1.375000e+02
1.500000e+02
1.625000e+02
1.750000e+02
1.875000e+02
2.000000e+02
0.000000e+00
1.250000e+01
2.500000e+01
3.750000e+01
5.000000e+01
6.250000e+01
7.500000e+01
8.750000e+01
1.000000e+02
1.125000e+02
1.250000e+02
1.375000e+02
1.500000e+02
1.625000e+02
1.750000e+02
1.875000e+02
2.000000e+02
0.000000e+00
1.250000e+01
2.500000e+01
3.750000e+01
5.000000e+01
6.250000e+01
7.500000e+01
8.750000e+01
1.000000e+02
1.125000e+02
1.250000e+02
1.375000e+02
1.500000e+02
1.625000e+02
1.750000e+02
1.875000e+02
2.000000e+02
0.000000e+00
1.250000e+01
2.500000e+01
3.750000e+01
5.000000e+01
6.250000e+01
7.500000e+01
8.750000e+01
1.000000e+02
1.125000e+02
1.250000e+02
1.375000e+02
1.500000e+02
1.625000e+02
1.750000e+02
1.875000e+02
2.000000e+02
0.000000e+00
1.250000e+01
2.500000e+01
3.750000e+01
5.000000e+01
6.250000e+01
7.500000e+01
8.750000e+01
1.000000e+02
1.125000e+02
1.250000e+02
1.375000e+02
1.500000e+02
1.625000e+02
1.750000e+02
1.875000e+02
2.000000e+02
0.000000e+00
1.250000e+01
2.500000e+01
3.750000e+01
5.000000e+01
6.250000e+01
7.500000e+01
8.750000e+01
1.000000e+02
1.125000e+02
1.250000e+02
1.375000e+02
1.500000e+02
1.625000e+02
1.750000e+02
1.875000e+02
2.000000e+02
0.000000e+00
1.250000e+01
2.500000e+01
3.750000e+01
5.000000e+01
6.250000e+01
7.500000e+01
8.750000e+01
1.000000e+02
1.125000e+02
1.250000e+02
1.375000e+02
1.500000e+02
1.625000e+02
1.750000e+02
1.875000e+02
2.000000e+02
0.000000e+00
1.250000e+01
2.500000e+01
3.750000e+01
5.000000e+01
6.250000e+01
7.500000e+01
8.750000e+01
1.000000e+02
1.125000e+02
1.250000e+02
1.375000e+02
1.500000e+02
1.625000e+02
1.750000e+02
1.875000e+02
2.000000e+02
0.000000e+00
0.000000e+00
0.000000e+00
0.000000e+00
0.000000e+00
0.000000e+00
0.000000e+00
0.000000e+00
0.000000e+00
0.000000e+00
0.000000e+00
0.000000e+00
0.000000e+00
0.000000e+00
0.000000e+00
0.000000e+00
0.000000e+00
1.250000e+01
1.250000e+01
1.250000e+01
1.250000e+01
1.250000e+01
1.250000e+01
1.250000e+01
1.250000e+01
1.250000e+01
1.250000e+01
1.250000e+01
1.250000e+01
1.250000e+01
1.250000e+01
1.250000e+01
1.250000e+01
1.250000e+01
2.500000e+01
2.500000e+01
2.500000e+01
2.500000e+01
2.500000e+01
2.500000e+01
2.500000e+01
2.500000e+01
2.500000e+01
2.500000e+01
2.500000e+01
2.500000e+01
2.500000e+01
2.500000e+01
2.500000e+01
2.500000e+01
2.500000e+01
3.750000e+01
3.750000e+01
3.750000e+01
3.750000e+01
3.750000e+01
3.750000e+01
3.750000e+01
3.750000e+01
3.750000e+01
3.750000e+01
3.750000e+01
3.750000e+01
3.750000e+01
3.750000e+01
3.750000e+01
3.750000e+01
3.750000e+01
5.000000e+01
5.000000e+01
5.000000e+01
5.000000e+01
5.000000e+01
5.000000e+01
5.000000e+01
5.000000e+01
5.000000e+01
5.000000e+01
5.000000e+01
5.000000e+01
5.000000e+01
5.000000e+01
5.000000e+01
5.000000e+01
5.000000e+01
6.250000e+01
6.250000e+01
6.250000e+01
6.250000e+01
6.250000e+01
6.250000e+01
6.250000e+01
6.250000e+01
6.250000e+01
6.250000e+01
6.250000e+01
6.250000e+01
6.250000e+01
6.250000e+01
6.250000e+01
6.250000e+01
6.250000e+01
7.500000e+01
7.500000e+01
7.500000e+01
7.500000e+01
7.500000e+01
7.500000e+01
7.500000e+01
7.500000e+01
7.500000e+01
7.500000e+01
7.500000e+01
7.500000e+01
7.500000e+01
7.500000e+01
7.500000e+01
7.500000e+01
7.500000e+01
8.750000e+01
8.750000e+01
8.750000e+01
8.750000e+01
8.750000e+01
8.750000e+01
8.750000e+01
8.750000e+01
8.750000e+01
8.750000e+01
8.750000e+01
8.750000e+01
8.750000e+01
8.750000e+01
8.750000e+01
8.750000e+01
8.750000e+01
1.000000e+02
1.000000e+02
1.000000e+02
1.000000e+02
1.000000e+02
1.000000e+02
1.000000e+02
1.000000e+02
1.000000e+02
1.000000e+02
1.000000e+02
1.000000e+02
1.000000e+02
1.000000e+02
1.000000e+02
1.000000e+02
1.000000e+02
0.000000e+00
-9.965225e-01
-1.680012e+00
-2.432947e+00
-3.119771e+00
-3.753382e+00
-4.461588e+00
-5.090233e+00
-5.766084e+00
-6.407194e+00
-7.057016e+00
-7.723321e+00
-8.376431e+00
-9.147007e+00
-1.007560e+01
-1.083316e+01
-1.128432e+01
0.000000e+00
-4.459852e-01
-9.063364e-01
-1.418802e+00
-1.930233e+00
-2.409971e+00
-2.923574e+00
-3.421458e+00
-3.916986e+00
-4.419424e+00
-4.912138e+00
-5.415256e+00
-5.900451e+00
-6.421018e+00
-6.897324e+00
-7.023657e+00
-7.202688e+00
0.000000e+00
-1.455090e-01
-3.476089e-01
-6.375446e-01
-9.746892e-01
-1.299033e+00
-1.651562e+00
-2.008465e+00
-2.351626e+00
-2.714019e+00
-3.052980e+00
-3.388113e+00
-3.683957e+00
-3.924038e+00
-4.034546e+00
-4.033403e+00
-4.181514e+00
0.000000e+00
-7.816934e-02
-1.604529e-01
-3.067980e-01
-4.508949e-01
-6.231364e-01
-8.083747e-01
-9.728553e-01
-1.159705e+00
-1.320748e+00
-1.481671e+00
-1.621249e+00
-1.717141e+00
-1.726726e+00
-1.653547e+00
-1.632625e+00
-1.749748e+00
0.000000e+00
-2.621720e-03
-5.912531e-03
-8.754560e-03
-1.169720e-02
-1.327803e-02
-1.105941e-02
-6.018211e-03
4.002747e-03
2.160512e-02
4.562692e-02
8.893144e-02
1.687974e-01
2.787861e-01
3.956754e-01
4.369378e-01
3.380864e-01
0.000000e+00
7.360210e-02
1.513982e-01
2.910954e-01
4.293307e-01
5.999848e-01
7.845977e-01
9.613566e-01
1.171443e+00
1.362455e+00
1.574167e+00
1.788042e+00
2.013143e+00
2.220415e+00
2.352738e+00
2.383698e+00
2.316933e+00
0.000000e+00
1.439118e-01
3.443958e-01
6.295290e-01
9.613553e-01
1.282100e+00
1.631761e+00
1.993106e+00
2.358034e+00
2.769194e+00
3.150225e+00
3.509414e+00
3.837704e+00
4.116798e+00
4.294085e+00
4.348368e+00
4.324959e+00
0.000000e+00
4.449478e-01
9.088463e-01
1.419672e+00
1.929082e+00
2.410521e+00
2.918100e+00
3.413066e+00
3.901100e+00
4.391669e+00
4.875746e+00
5.348428e+00
5.765853e+00
6.116127e+00
6.335078e+00
6.432095e+00
6.450028e+00
0.000000e+00
9.947356e-01
1.685865e+00
2.442016e+00
3.130330e+00
3.776569e+00
4.481681e+00
5.106837e+00
5.754601e+00
6.328427e+00
6.901582e+00
7.502692e+00
8.019916e+00
8.436491e+00
8.638763e+00
8.692066e+00
8.692781e+00
0.000000e+00
-6.189939e-01
-1.362834e+00
-2.365823e+00
-3.542532e+00
-4.889612e+00
-6.425899e+00
-8.117571e+00
-9.983971e+00
-1.201282e+01
-1.420187e+01
-1.655505e+01
-1.906980e+01
-2.180102e+01
-2.476436e+01
-2.812178e+01
-3.314060e+01
0.000000e+00
-4.160729e-01
-1.194426e+00
-2.179490e+00
-3.373386e+00
-4.715448e+00
-6.248317e+00
-7.949153e+00
-9.807798e+00
-1.184556e+01
-1.402974e+01
-1.638768e+01
-1.889672e+01
-2.160816e+01
-2.462421e+01
-2.803857e+01
-3.208635e+01
0.000000e+00
-3.906125e-01
-1.092660e+00
-2.076140e+00
-3.254190e+00
-4.589266e+00
-6.128489e+00
-7.819394e+00
-9.689400e+00
-1.172436e+01
-1.391974e+01
-1.628878e+01
-1.880820e+01
-2.154462e+01
-2.461371e+01
-2.788822e+01
-3.091892e+01
0.000000e+00
-4.496563e-01
-1.089104e+00
-2.049896e+00
-3.191225e+00
-4.518392e+00
-6.065898e+00
-7.742936e+00
-9.633735e+00
-1.166766e+01
-1.388486e+01
-1.627186e+01
-1.881794e+01
-2.155388e+01
-2.454194e+01
-2.758025e+01
-3.020620e+01
0.000000e+00
-4.562625e-01
-1.111498e+00
-2.034265e+00
-3.175849e+00
-4.507710e+00
-6.042353e+00
-7.742353e+00
-9.626488e+00
-1.168259e+01
-1.391508e+01
-1.630532e+01
-1.885882e+01
-2.155538e+01
-2.438796e+01
-2.721018e+01
-2.959889e+01
0.000000e+00
-4.469948e-01
-1.088407e+00
-2.051729e+00
-3.195167e+00
-4.534695e+00
-6.091364e+00
-7.783087e+00
-9.692387e+00
-1.175083e+01
-1.398851e+01
-1.635824e+01
-1.888637e+01
-2.154615e+01
-2.425242e+01
-2.688545e+01
-2.915499e+01
0.000000e+00
-3.868796e-01
-1.091074e+00
-2.078234e+00
-3.262415e+00
-4.615671e+00
-6.175043e+00
-7.897438e+00
-9.801979e+00
-1.187008e+01
-1.407511e+01
-1.642619e+01
-1.892183e+01
-2.154497e+01
-2.417067e+01
-2.667726e+01
-2.891883e+01
0.000000e+00
-4.125738e-01
-1.192106e+00
-2.181112e+00
-3.382929e+00
-4.742908e+00
-6.302311e+00
-8.040251e+00
-9.942187e+00
-1.200913e+01
-1.418944e+01
-1.652465e+01
-1.899740e+01
-2.158449e+01
-2.415068e+01
-2.658963e+01
-2.885683e+01
0.000000e+00
-6.166735e-01
-1.361563e+00
-2.367434e+00
-3.553482e+00
-4.918327e+00
-6.480208e+00
-8.208303e+00
-1.011347e+01
-1.216403e+01
-1.434457e+01
-1.667165e+01
-1.911970e+01
-2.166642e+01
-2.417570e+01
-2.657493e+01
-2.885541e+01


0.000000e+00
1.533639e-05
2.483370e-05
3.689584e-05
5.244784e-05
6.537706e-05
8.090849e-05
9.491859e-05
1.101942e-04
1.248269e-04
1.406465e-04
1.554150e-04
1.720063e-04
1.877629e-04
1.975300e-04
2.031303e-04
2.101279e-04
0.000000e+00
1.149284e-05
1.983377e-05
2.864019e-05
4.139635e-05
5.234452e-05
6.281367e-05
7.423562e-05
8.447257e-05
9.552757e-05
1.057262e-04
1.156756e-04
1.263330e-04
1.356861e-04
1.373264e-04
1.410540e-04
1.469108e-04
0.000000e+00
9.752125e-06
1.558739e-05
2.140018e-05
3.092430e-05
3.842665e-05
4.483439e-05
5.257813e-05
5.834317e-05
6.490863e-05
7.016050e-05
7.478548e-05
7.873312e-05
8.065576e-05
8.001564e-05
8.247735e-05
8.677844e-05
0.000000e+00
5.449024e-06
7.507754e-06
1.113583e-05
1.589311e-05
1.818762e-05
2.252588e-05
2.478779e-05
2.759026e-05
2.897114e-05
3.078232e-05
2.985835e-05
2.830450e-05
2.649154e-05
2.663208e-05
3.000111e-05
3.571059e-05
0.000000e+00
-9.344286e-08
-2.361947e-07
-4.363058e-07
-6.867037e-07
-9.895275e-07
-1.372917e-06
-1.800263e-06
-2.702133e-06
-4.227418e-06
-7.547069e-06
-1.192484e-05
-1.479399e-05
-1.577892e-05
-1.541179e-05
-1.307681e-05
-8.970056e-06
0.000000e+00
-5.577633e-06
-7.862104e-06
-1.179741e-05
-1.704165e-05
-1.993873e-05
-2.472140e-05
-2.793968e-05
-3.106145e-05
-3.326060e-05
-3.715952e-05
-4.248013e-05
-4.666849e-05
-4.780817e-05
-4.843323e-05
-4.900988e-05
-4.740901e-05
0.000000e+00
-9.757231e-06
-1.560122e-05
-2.154965e-05
-3.150837e-05
-3.923930e-05
-4.618102e-05
-5.427740e-05
-5.947216e-05
-6.422310e-05
-6.862627e-05
-7.330528e-05
-7.721668e-05
-7.999229e-05
-8.218233e-05
-8.420723e-05
-8.498163e-05
0.000000e+00
-1.145299e-05
-1.975779e-05
-2.851163e-05
-4.140155e-05
-5.228564e-05
-6.286658e-05
-7.455420e-05
-8.458691e-05
-9.513817e-05
-1.054642e-04
-1.127649e-04
-1.175683e-04
-1.223620e-04
-1.256827e-04
-1.268933e-04
-1.270243e-04
0.000000e+00
-1.538885e-05
-2.487187e-05
-3.673002e-05
-5.207157e-05
-6.475266e-05
-7.961699e-05
-9.367436e-05
-1.085168e-04
-1.244207e-04
-1.426038e-04
-1.573050e-04
-1.654111e-04
-1.703834e-04
-1.725673e-04
-1.726396e-04
-1.724130e-04
0.000000e+00
1.264041e-05
1.992088e-05
3.199014e-05
4.736069e-05
6.363098e-05
8.503022e-05
1.098502e-04
1.390987e-04
1.729940e-04
2.119858e-04
2.561834e-04
3.069008e-04
3.618460e-04
4.236014e-04
4.942671e-04
5.675274e-04
0.000000e+00
7.725264e-06
1.603270e-05
2.590537e-05
4.096278e-05
5.775550e-05
7.858414e-05
1.038332e-04
1.327275e-04
1.668508e-04
2.057313e-04
2.501044e-04
3.004354e-04
3.569780e-04
4.183637e-04
4.867942e-04
5.570111e-04
0.000000e+00
4.277066e-06
1.205649e-05
2.107702e-05
3.508890e-05
5.280140e-05
7.354670e-05
9.895384e-05
1.279962e-04
1.621517e-04
2.013744e-04
2.460277e-04
2.970403e-04
3.549761e-04
4.142855e-04
4.793084e-04
5.471748e-04
0.000000e+00
2.944901e-06
9.975011e-06
1.892658e-05
3.290410e-05
5.054711e-05
7.184355e-05
9.710418e-05
1.265426e-04
1.600322e-04
1.994901e-04
2.453466e-04
2.971206e-04
3.541313e-04
4.116925e-04
4.713833e-04
5.329581e-04
0.000000e+00
2.439635e-06
9.416076e-06
1.846961e-05
3.236639e-05
5.001657e-05
7.121899e-05
9.674546e-05
1.261420e-04
1.589217e-04
1.983267e-04
2.463435e-04
2.982774e-04
3.544395e-04
4.106736e-04
4.647614e-04
5.166467e-04
0.000000e+00
3.059152e-06
1.015087e-05
1.909356e-05
3.304449e-05
5.056727e-05
7.154669e-05
9.679669e-05
1.260034e-04
1.583621e-04
1.991085e-04
2.489990e-04
3.008652e-04
3.544785e-04
4.105978e-04
4.623666e-04
5.055860e-04
0.000000e+00
4.427847e-06
1.232986e-05
2.137604e-05
3.539260e-05
5.273641e-05
7.305074e-05
9.789562e-05
1.262022e-04
1.595635e-04
2.016617e-04
2.524863e-04
3.042210e-04
3.560445e-04
4.095757e-04
4.597884e-04
5.022754e-04
0.000000e+00
7.847369e-06
1.632599e-05
2.631341e-05
4.131509e-05
5.782983e-05
7.812974e-05
1.025755e-04
1.302826e-04
1.641368e-04
2.060471e-04
2.555220e-04
3.070402e-04
3.579939e-04
4.094735e-04
4.579253e-04
5.028130e-04
0.000000e+00
1.276763e-05
2.020124e-05
3.240407e-05
4.773403e-05
6.370844e-05
8.466362e-05
1.086989e-04
1.366074e-04
1.709005e-04
2.125388e-04
2.591735e-04
3.087966e-04
3.593561e-04
4.096222e-04
4.574517e-04
5.031141e-04


5.680203e+00
6.141878e+00
6.868532e+00
5.943752e+00
5.771385e+00
6.641471e+00
6.511094e+00
6.522627e+00
6.023812e+00
5.928836e+00
6.286025e+00
7.158546e+00
8.856617e+00
9.832853e+00
9.154021e+00
8.002832e+00
8.086472e+00
8.462922e+00
8.663095e+00
8.359010e+00
8.254567e+00
8.537557e+00
8.714601e+00
8.461300e+00
8.429887e+00
8.276470e+00
8.421244e+00
8.846237e+00
9.512713e+00
9.844238e+00
8.400967e+00
6.461888e+00
9.844099e+00
9.824340e+00
1.000000e+01
9.838397e+00
9.836755e+00
9.974768e+00
9.836356e+00
9.953955e+00
9.849486e+00
9.883576e+00
9.897650e+00
9.878241e+00
9.895420e+00
9.433786e+00
8.057981e+00
6.222951e+00
1.000000e+01
1.000000e+01
1.000000e+01
1.000000e+01
1.000000e+01
1.000000e+01
1.000000e+01
1.000000e+01
1.000000e+01
1.000000e+01
1.000000e+01
9.491405e+00
8.834980e+00
8.414029e+00
8.091820e+00
7.997611e+00
1.000000e+01
1.000000e+01
1.000000e+01
1.000000e+01
1.000000e+01
1.000000e+01
1.000000e+01
1.000000e+01
1.000000e+01
9.971823e+00
9.379182e+00
8.669614e+00
7.765767e+00
7.778130e+00
8.696513e+00
9.222718e+00
9.836175e+00
9.824532e+00
1.000000e+01
9.837153e+00
9.838540e+00
9.914597e+00
9.836667e+00
1.000000e+01
9.733306e+00
9.174345e+00
8.508941e+00
7.994329e+00
8.327921e+00
8.791437e+00
9.452452e+00
1.000000e+01
8.038751e+00
8.440559e+00
8.658873e+00
8.358552e+00
8.019687e+00
8.178196e+00
8.659971e+00
8.693345e+00
8.583984e+00
8.013445e+00
7.798161e+00
8.565247e+00
9.367625e+00
9.881167e+00
1.000000e+01
1.000000e+01
5.562258e+00
6.094285e+00
6.854369e+00
5.857329e+00
5.292907e+00
5.811621e+00
6.394379e+00
7.199236e+00
6.947987e+00
7.182035e+00
8.223463e+00
9.098646e+00
1.000000e+01
1.000000e+01
1.000000e+01
1.000000e+01


-8.203427e-01
-1.678907e-01
-3.988155e-01
-2.597064e-01
-9.325205e-02
-3.072931e-01
-1.223553e-01
-2.088484e-01
-1.597202e-01
-1.580517e-01
-2.120957e-01
-1.504941e-01
-4.643853e-01
-6.804533e-01
3.140993e-01
-8.564583e-01
6.113922e-01
4.824310e-01
2.962877e-01
2.263304e-01
2.913334e-01
1.673370e-01
1.726246e-01
1.707308e-01
1.060871e-01
1.462380e-01
1.268349e-01
2.426901e-01
3.048498e-01
5.108823e-01
6.977324e-01
-9.223304e-01
7.230414e-01
4.716264e-01
5.606291e-02
-2.362760e-02
-3.906005e-02
-1.968700e-01
-9.086727e-02
-1.486911e-01
-8.238867e-02
-1.989297e-02
3.615734e-02
1.870503e-01
2.857224e-01
1.503990e-01
-2.740571e-02
-1.554656e-01
7.279191e-01
5.547844e-01
1.897373e-01
5.816292e-02
-2.718899e-02
-1.126717e-01
-2.683502e-02
-7.121465e-02
1.279248e-02
1.690384e-02
7.166823e-02
1.212047e-01
7.255293e-02
-2.582534e-01
-4.079929e-01
-9.231809e-02
7.312456e-01
5.573134e-01
1.949704e-01
6.246754e-02
-3.556149e-02
-1.263782e-01
-5.774907e-02
-1.105047e-01
-4.530606e-02
-4.961974e-02
2.782383e-02
5.492386e-03
-3.658634e-02
-1.131778e-01
-1.147092e-01
2.934738e-01
7.307730e-01
4.782148e-01
7.226679e-02
-6.675805e-03
-5.573344e-02
-2.229243e-01
-1.720200e-01
-2.856569e-01
-2.376886e-01
-1.370225e-01
-6.574331e-02
-1.010713e-01
-1.388092e-01
4.848844e-02
3.329382e-01
7.217295e-01
6.170009e-01
4.818136e-01
3.083672e-01
2.396432e-01
2.900073e-01
1.691165e-01
1.369725e-01
8.173227e-02
-7.475998e-02
-6.594092e-02
-7.869310e-02
-3.009121e-02
3.208827e-02
3.574369e-01
7.090022e-01
9.466772e-01
-8.119570e-01
-1.898081e-01
-4.018064e-01
-2.589628e-01
-1.207085e-01
-2.904931e-01
-1.141284e-01
-1.492573e-01
-3.115099e-02
-3.214511e-02
-8.640735e-02
1.413672e-01
3.737964e-01
7.694757e-01
9.521805e-01
9.986789e-01
1 2 19 18
2 3 20 19
3 4 21 20
4 5 22 21
5 6 23 22
6 7 24 23
7 8 25 24
8 9 26 25
9 10 27 26
10 11 28 27
11 12 29 28
12 13 30 29
13 14 31 30
14 15 32 31
15 16 33 32
16 17 34 33
18 19 36 35
19 20 37 36
20 21 38 37
21 22 39 38
22 23 40 39
23 24 41 40
24 25 42 41
25 26 43 42
26 27 44 43
27 28 45 44
28 29 46 45
29 30 47 46
30 31 48 47
31 32 49 48
32 33 50 49
33 34 51 50
35 36 53 52
36 37 54 53
37 38 55 54
38 39 56 55
39 40 57 56
40 41 58 57
41 42 59 58
42 43 60 59
43 44 61 60
44 45 62 61
45 46 63 62
46 47 64 63
47 48 65 64
48 49 66 65
49 50 67 66
50 51 68 67
52 53 70 69
53 54 71 70
54 55 72 71
55 56 73 72
56 57 74 73
57 58 75 74
58 59 76 75
59 60 77 76
60 61 78 77
61 62 79 78
62 63 80 79
63 64 81 80
64 65 82 81
65 66 83 82
66 67 84 83
67 68 85 84
69 70 87 86
70 71 88 87
71 72 89 88
72 73 90 89
73 74 91 90
74 75 92 91
75 76 93 92
76 77 94 93
77 78 95 94
78 79 96 95
79 80 97 96
80 81 98 97
81 82 99 98
82 83 100 99
83 84 101 100
84 85 102 101
86 87 104 103
87 88 105 104
88 89 106 105
89 90 107 106
90 91 108 107
91 92 109 108
92 93 110 109
93 94 111 110
94 95 112 111
95 96 113 112
96 97 114 113
97 98 115 114
98 99 116 115
99 100 117 116
100 101 118 117
101 102 119 118
103 104 121 120
104 105 122 121
105 106 123 122
106 107 124 123
107 108 125 124
108 109 126 125
109 110 127 126
110 111 128 127
111 112 129 128
112 113 130 129
113 114 131 130
114 115 132 131
115 116 133 132
116 117 134 133
117 118 135 134
118 119 136 135
120 121 138 137
121 122 139 138
122 123 140 139
123 124 141 140
124 125 142 141
125 126 143 142
126 127 144 143
127 128 145 144
128 129 146 145
129 130 147 146
130 131 148 147
131 132 149 148
132 133 150 149
133 134 151 150
134 135 152 151
135 136 153 152
