TITLE = "Solution"
VARIABLES = x, y, u, v, psiu, psiv, t, stress
ZONE T="structure" N=153 E=128 F=FEBLOCK ET=QUADRILATERAL VARLOCATION=([7,8]=cellcentered)
0.000000e+00
1.250000e+01
2.500000e+01
3.750000e+01
5.000000e+01
6.250000e+01
7.500000e+01
8.750000e+01
1.000000e+02
1.125000e+02
1.250000e+02
1.375000e+02
1.500000e+02
1.625000e+02
1.750000e+02
1.875000e+02
2.000000e+02
0.000000e+00
1.250000e+01
2.500000e+01
3.750000e+01
5.000000e+01
6.250000e+01
7.500000e+01
8.750000e+01
1.000000e+02
1.125000e+02
1.250000e+02
1.375000e+02
1.500000e+02
1.625000e+02
1.750000e+02
1.875000e+02
2.000000e+02
0.000000e+00
1.250000e+01
2.500000e+01
3.750000e+01
5.000000e+01
6.250000e+01
7.500000e+01
8.750000e+01
1.000000e+02
1.125000e+02
1.250000e+02
1.375000e+02
1.500000e+02
1.625000e+02
1.750000e+02
1.875000e+02
2.000000e+02
0.000000e+00
1.250000e+01
2.500000e+01
3.750000e+01
5.000000e+01
6.250000e+01
7.500000e+01
8.750000e+01
1.000000e+02
1.125000e+02
1.250000e+02
1.375000e+02
1.500000e+02
1.625000e+02
1.750000e+02
1.875000e+02
2.000000e+02
0.000000e+00
1.250000e+01
2.500000e+01
3.750000e+01
5.000000e+01
6.250000e+01
7.500000e+01
8.750000e+01
1.000000e+02
1.125000e+02
1.250000e+02
1.375000e+02
1.500000e+02
1.625000e+02
1.750000e+02
1.875000e+02
2.000000e+02
0.000000e+00
1.250000e+01
2.500000e+01
3.750000e+01
5.000000e+01
6.250000e+01
7.500000e+01
8.750000e+01
1.000000e+02
1.125000e+02
1.250000e+02
1.375000e+02
1.500000e+02
1.625000e+02
1.750000e+02
1.875000e+02
2.000000e+02
0.000000e+00
1.250000e+01
2.500000e+01
3.750000e+01
5.000000e+01
6.250000e+01
7.500000e+01
8.750000e+01
1.000000e+02
1.125000e+02
1.250000e+02
1.375000e+02
1.500000e+02
1.625000e+02
1.750000e+02
1.875000e+02
2.000000e+02
0.000000e+00
1.250000e+01
2.500000e+01
3.750000e+01
5.000000e+01
6.250000e+01
7.500000e+01
8.750000e+01
1.000000e+02
1.125000e+02
1.250000e+02
1.375000e+02
1.500000e+02
1.625000e+02
1.750000e+02
1.875000e+02
2.000000e+02
0.000000e+00
1.250000e+01
2.500000e+01
3.750000e+01
5.000000e+01
6.250000e+01
7.500000e+01
8.750000e+01
1.000000e+02
1.125000e+02
1.250000e+02
1.375000e+02
1.500000e+02
1.625000e+02
1.750000e+02
1.875000e+02
2.000000e+02
0.000000e+00
0.000000e+00
0.000000e+00
0.000000e+00
0.000000e+00
0.000000e+00
0.000000e+00
0.000000e+00
0.000000e+00
0.000000e+00
0.000000e+00
0.000000e+00
0.000000e+00
0.000000e+00
0.000000e+00
0.000000e+00
0.000000e+00
1.250000e+01
1.250000e+01
1.250000e+01
1.250000e+01
1.250000e+01
1.250000e+01
1.250000e+01
1.250000e+01
1.250000e+01
1.250000e+01
1.250000e+01
1.250000e+01
1.250000e+01
1.250000e+01
1.250000e+01
1.250000e+01
1.250000e+01
2.500000e+01
2.500000e+01
2.500000e+01
2.500000e+01
2.500000e+01
2.500000e+01
2.500000e+01
2.500000e+01
2.500000e+01
2.500000e+01
2.500000e+01
2.500000e+01
2.500000e+01
2.500000e+01
2.500000e+01
2.500000e+01
2.500000e+01
3.750000e+01
3.750000e+01
3.750000e+01
3.750000e+01
3.750000e+01
3.750000e+01
3.750000e+01
3.750000e+01
3.750000e+01
3.750000e+01
3.750000e+01
3.750000e+01
3.750000e+01
3.750000e+01
3.750000e+01
3.750000e+01
3.750000e+01
5.000000e+01
5.000000e+01
5.000000e+01
5.000000e+01
5.000000e+01
5.000000e+01
5.000000e+01
5.000000e+01
5.000000e+01
5.000000e+01
5.000000e+01
5.000000e+01
5.000000e+01
5.000000e+01
5.000000e+01
5.000000e+01
5.000000e+01
6.250000e+01
6.250000e+01
6.250000e+01
6.250000e+01
6.250000e+01
6.250000e+01
6.250000e+01
6.250000e+01
6.250000e+01
6.250000e+01
6.250000e+01
6.250000e+01
6.250000e+01
6.250000e+01
6.250000e+01
6.250000e+01
6.250000e+01
7.500000e+01
7.500000e+01
7.500000e+01
7.500000e+01
7.500000e+01
7.500000e+01
7.500000e+01
7.500000e+01
7.500000e+01
7.500000e+01
7.500000e+01
7.500000e+01
7.500000e+01
7.500000e+01
7.500000e+01
7.500000e+01
7.500000e+01
8.750000e+01
8.750000e+01
8.750000e+01
8.750000e+01
8.750000e+01
8.750000e+01
8.750000e+01
8.750000e+01
8.750000e+01
8.750000e+01
8.750000e+01
8.750000e+01
8.750000e+01
8.750000e+01
8.750000e+01
8.750000e+01
8.750000e+01
1.000000e+02
1.000000e+02
1.000000e+02
1.000000e+02
1.000000e+02
1.000000e+02
1.000000e+02
1.000000e+02
1.000000e+02
1.000000e+02
1.000000e+02
1.000000e+02
1.000000e+02
1.000000e+02
1.000000e+02
1.000000e+02
1.000000e+02
0.000000e+00
-1.679475e-01
-3.092441e-01
-4.392573e-01
-5.603396e-01
-6.722348e-01
-7.747019e-01
-8.676604e-01
-9.512449e-01
-1.025840e+00
-1.092185e+00
-1.151575e+00
-1.206242e+00
-1.260039e+00
-1.319612e+00
-1.392774e+00
-1.447674e+00
0.000000e+00
-1.002940e-01
-2.083415e-01
-3.081181e-01
-4.000460e-01
-4.844741e-01
-5.615766e-01
-6.314560e-01
-6.942377e-01
-7.501147e-01
-7.993703e-01
-8.423594e-01
-8.793562e-01
-9.099796e-01
-9.315799e-01
-9.363143e-01
-9.532881e-01
0.000000e+00
-6.272019e-02
-1.289689e-01
-1.950634e-01
-2.567624e-01
-3.134125e-01
-3.649671e-01
-4.114839e-01
-4.529743e-01
-4.893685e-01
-5.204705e-01
-5.458458e-01
-5.645896e-01
-5.750528e-01
-5.753433e-01
-5.711636e-01
-5.884756e-01
0.000000e+00
-3.027239e-02
-6.232015e-02
-9.457120e-02
-1.254100e-01
-1.538153e-01
-1.795625e-01
-2.025765e-01
-2.227252e-01
-2.397464e-01
-2.532048e-01
-2.624653e-01
-2.667696e-01
-2.657640e-01
-2.616325e-01
-2.627623e-01
-2.756529e-01
0.000000e+00
-2.789882e-05
-6.342122e-05
-9.882725e-05
-1.176219e-04
-8.302167e-05
7.798471e-05
4.964075e-04
1.387187e-03
3.070489e-03
5.964016e-03
1.048739e-02
1.675399e-02
2.383558e-02
2.872735e-02
2.738576e-02
1.885100e-02
0.000000e+00
3.022946e-02
6.222049e-02
9.441179e-02
1.252117e-01
1.536540e-01
1.796250e-01
2.032515e-01
2.247382e-01
2.443342e-01
2.622954e-01
2.787547e-01
2.934263e-01
3.051911e-01
3.121119e-01
3.126608e-01
3.083289e-01
0.000000e+00
6.271314e-02
1.289474e-01
1.950206e-01
2.566957e-01
3.133294e-01
3.648982e-01
4.115063e-01
4.532499e-01
4.902031e-01
5.223976e-01
5.497548e-01
5.719599e-01
5.883769e-01
5.982308e-01
6.014304e-01
6.004202e-01
0.000000e+00
1.003351e-01
2.084309e-01
3.082607e-01
4.002373e-01
4.846789e-01
5.616915e-01
6.312458e-01
6.932354e-01
7.474809e-01
7.937246e-01
8.316464e-01
8.609430e-01
8.815173e-01
8.937904e-01
8.990241e-01
8.999854e-01
0.000000e+00
1.680163e-01
3.094257e-01
4.395973e-01
5.608827e-01
6.729988e-01
7.756132e-01
8.684267e-01
9.511283e-01
1.023287e+00
1.084278e+00
1.133287e+00
1.169508e+00
1.192658e+00
1.203853e+00
1.206617e+00
1.206564e+00
0.000000e+00
-1.016636e-01
-1.995794e-01
-3.264564e-01
-4.821723e-01
-6.664361e-01
-8.772304e-01
-1.112196e+00
-1.368836e+00
-1.644684e+00
-1.937462e+00
-2.245359e+00
-2.567631e+00
-2.906000e+00
-3.269245e+00
-3.684866e+00
-4.282048e+00
0.000000e+00
-6.258619e-02
-1.647283e-01
-2.931777e-01
-4.514376e-01
-6.382153e-01
-8.515628e-01
-1.089064e+00
-1.348190e+00
-1.626433e+00
-1.921452e+00
-2.231351e+00
-2.555272e+00
-2.894891e+00
-3.257994e+00
-3.671093e+00
-4.177187e+00
0.000000e+00
-4.722734e-02
-1.405679e-01
-2.694908e-01
-4.292463e-01
-6.179460e-01
-8.332542e-01
-1.072731e+00
-1.333866e+00
-1.614186e+00
-1.911394e+00
-2.223661e+00
-2.550211e+00
-2.892442e+00
-3.255857e+00
-3.647282e+00
-4.026098e+00
0.000000e+00
-4.069795e-02
-1.285556e-01
-2.555874e-01
-4.159201e-01
-6.057809e-01
-8.224312e-01
-1.063338e+00
-1.326039e+00
-1.608127e+00
-1.907356e+00
-2.221860e+00
-2.550494e+00
-2.893103e+00
-3.249248e+00
-3.608910e+00
-3.940240e+00
0.000000e+00
-3.881710e-02
-1.249203e-01
-2.511521e-01
-4.115283e-01
-6.018616e-01
-8.191348e-01
-1.060817e+00
-1.324493e+00
-1.607795e+00
-1.908427e+00
-2.224227e+00
-2.553154e+00
-2.892781e+00
-3.238026e+00
-3.577079e+00
-3.889429e+00
0.000000e+00
-4.067379e-02
-1.285384e-01
-2.556180e-01
-4.160704e-01
-6.061769e-01
-8.232782e-01
-1.064942e+00
-1.328805e+00
-1.612486e+00
-1.913542e+00
-2.229357e+00
-2.556875e+00
-2.891930e+00
-3.228082e+00
-3.555509e+00
-3.861191e+00
0.000000e+00
-4.718793e-02
-1.405394e-01
-2.695419e-01
-4.294996e-01
-6.186159e-01
-8.346902e-01
-1.075455e+00
-1.338568e+00
-1.621611e+00
-1.921974e+00
-2.236639e+00
-2.561815e+00
-2.892479e+00
-3.222114e+00
-3.543256e+00
-3.848736e+00
0.000000e+00
-6.254923e-02
-1.647035e-01
-2.932456e-01
-4.517417e-01
-6.390031e-01
-8.532344e-01
-1.092212e+00
-1.353592e+00
-1.634911e+00
-1.933451e+00
-2.245982e+00
-2.568387e+00
-2.895369e+00
-3.220620e+00
-3.538190e+00
-3.845812e+00
0.000000e+00
-1.016483e-01
-1.995815e-01
-3.265613e-01
-4.825248e-01
-6.672779e-01
-8.789408e-01
-1.115317e+00
-1.374039e+00
-1.652598e+00
-1.948213e+00
-2.257581e+00
-2.576557e+00
-2.899962e+00
-3.221890e+00
-3.537264e+00
-3.845858e+00


0.000000e+00
1.700016e-08
3.485680e-08
5.084471e-08
6.471440e-08
7.642056e-08
8.610599e-08
9.401340e-08
1.004047e-07
1.055350e-07
1.096429e-07
1.129456e-07
1.156342e-07
1.178618e-07
1.197654e-07
1.216460e-07
1.235758e-07
0.000000e+00
1.103964e-08
2.619022e-08
3.881623e-08
4.929661e-08
5.795856e-08
6.503075e-08
7.074493e-08
7.531518e-08
7.893053e-08
8.175201e-08
8.390792e-08
8.549132e-08
8.661418e-08
8.766272e-08
8.930735e-08
9.132542e-08
0.000000e+00
7.921323e-09
1.778856e-08
2.625709e-08
3.332814e-08
3.907681e-08
4.368889e-08
4.735284e-08
5.022759e-08
5.244096e-08
5.409412e-08
5.526999e-08
5.605915e-08
5.663076e-08
5.732777e-08
5.857824e-08
6.023714e-08
0.000000e+00
4.157805e-09
8.784242e-09
1.299739e-08
1.658159e-08
1.947382e-08
2.175811e-08
2.353706e-08
2.489416e-08
2.589347e-08
2.658820e-08
2.703530e-08
2.731916e-08
2.757481e-08
2.797371e-08
2.871542e-08
2.980167e-08
0.000000e+00
-2.854348e-12
-7.576763e-12
-1.585663e-11
-3.016426e-11
-5.421881e-11
-9.320478e-11
-1.536925e-10
-2.426490e-10
-3.647321e-10
-5.167568e-10
-6.791209e-10
-8.084113e-10
-8.447514e-10
-7.296380e-10
-3.771518e-10
2.673553e-10
0.000000e+00
-4.162573e-09
-8.796755e-09
-1.302354e-08
-1.663092e-08
-1.956162e-08
-2.190789e-08
-2.378305e-08
-2.528281e-08
-2.648145e-08
-2.743273e-08
-2.816974e-08
-2.870726e-08
-2.905105e-08
-2.920640e-08
-2.913850e-08
-2.881726e-08
0.000000e+00
-7.923676e-09
-1.779621e-08
-2.627298e-08
-3.335640e-08
-3.912347e-08
-4.376283e-08
-4.746692e-08
-5.040029e-08
-5.269833e-08
-5.447113e-08
-5.580662e-08
-5.677325e-08
-5.742424e-08
-5.780339e-08
-5.793036e-08
-5.783708e-08
0.000000e+00
-1.104183e-08
-2.619808e-08
-3.882843e-08
-4.931085e-08
-5.797004e-08
-6.503042e-08
-7.071796e-08
-7.524022e-08
-7.878104e-08
-8.150141e-08
-8.354012e-08
-8.501342e-08
-8.601522e-08
-8.662461e-08
-8.691893e-08
-8.698328e-08
0.000000e+00
-1.701108e-08
-3.487551e-08
-5.086701e-08
-6.473326e-08
-7.642245e-08
-8.606673e-08
-9.389348e-08
-1.001443e-07
-1.050497e-07
-1.088201e-07
-1.116426e-07
-1.136793e-07
-1.150657e-07
-1.159138e-07
-1.163207e-07
-1.164380e-07
0.000000e+00
1.543024e-08
2.834276e-08
4.216722e-08
5.872681e-08
7.819032e-08
1.002451e-07
1.244726e-07
1.504606e-07
1.778587e-07
2.063925e-07
2.358785e-07
2.662787e-07
2.978759e-07
3.314875e-07
3.671571e-07
4.030019e-07
0.000000e+00
8.568857e-09
2.117561e-08
3.568470e-08
5.321656e-08
7.363682e-08
9.655239e-08
1.215138e-07
1.481159e-07
1.760207e-07
2.049666e-07
2.347808e-07
2.654100e-07
2.969826e-07
3.298655e-07
3.645818e-07
3.998903e-07
0.000000e+00
4.583445e-09
1.552624e-08
3.055741e-08
4.887664e-08
7.008882e-08
9.369834e-08
1.192467e-07
1.463408e-07
1.746573e-07
2.039456e-07
2.340320e-07
2.648168e-07
2.962326e-07
3.282832e-07
3.618133e-07
3.961092e-07
0.000000e+00
2.875485e-09
1.278990e-08
2.778893e-08
4.651197e-08
6.816648e-08
9.216567e-08
1.180432e-07
1.454163e-07
1.739710e-07
2.034575e-07
2.336834e-07
2.644912e-07
2.957050e-07
3.272308e-07
3.597112e-07
3.926320e-07
0.000000e+00
2.429147e-09
1.202237e-08
2.693491e-08
4.577129e-08
6.757154e-08
9.170435e-08
1.176991e-07
1.451764e-07
1.738228e-07
2.033796e-07
2.336313e-07
2.643818e-07
2.954236e-07
3.266094e-07
3.582905e-07
3.899232e-07
0.000000e+00
2.878669e-09
1.279654e-08
2.780191e-08
4.653544e-08
6.820694e-08
9.223216e-08
1.181464e-07
1.455652e-07
1.741657e-07
2.036753e-07
2.338584e-07
2.644981e-07
2.953773e-07
3.263172e-07
3.574090e-07
3.881523e-07
0.000000e+00
4.588527e-09
1.553802e-08
3.058112e-08
4.891968e-08
7.016297e-08
9.381988e-08
1.194348e-07
1.466117e-07
1.750124e-07
2.043472e-07
2.343627e-07
2.648278e-07
2.955192e-07
3.262367e-07
3.569225e-07
3.871724e-07
0.000000e+00
8.575838e-09
2.119289e-08
3.571762e-08
5.327419e-08
7.373313e-08
9.670628e-08
1.217468e-07
1.484459e-07
1.764472e-07
2.054428e-07
2.351623e-07
2.653604e-07
2.958079e-07
3.263006e-07
3.567118e-07
3.867512e-07
0.000000e+00
1.544167e-08
2.836593e-08
4.220726e-08
5.879236e-08
7.829401e-08
1.004032e-07
1.247026e-07
1.507739e-07
1.782465e-07
2.067971e-07
2.361402e-07
2.660171e-07
2.961915e-07
3.264603e-07
3.566817e-07
3.866434e-07


4.907109e-01
4.907100e-01
4.907201e-01
4.907388e-01
4.907559e-01
4.907698e-01
4.907810e-01
4.907897e-01
4.907964e-01
4.908013e-01
4.908049e-01
4.908073e-01
4.908083e-01
4.908063e-01
4.908018e-01
4.907983e-01
4.907319e-01
4.907307e-01
4.907381e-01
4.907529e-01
4.907667e-01
4.907780e-01
4.907870e-01
4.907940e-01
4.907993e-01
4.908033e-01
4.908062e-01
4.908081e-01
4.908086e-01
4.908063e-01
4.908016e-01
4.907982e-01
4.907668e-01
4.907654e-01
4.907691e-01
4.907773e-01
4.907851e-01
4.907917e-01
4.907970e-01
4.908011e-01
4.908042e-01
4.908064e-01
4.908080e-01
4.908090e-01
4.908090e-01
4.908068e-01
4.908030e-01
4.908004e-01
4.907916e-01
4.907903e-01
4.907913e-01
4.907946e-01
4.907982e-01
4.908013e-01
4.908039e-01
4.908058e-01
4.908072e-01
4.908082e-01
4.908089e-01
4.908092e-01
4.908090e-01
4.908077e-01
4.908057e-01
4.908044e-01
4.907916e-01
4.907903e-01
4.907913e-01
4.907946e-01
4.907981e-01
4.908012e-01
4.908037e-01
4.908056e-01
4.908069e-01
4.908078e-01
4.908085e-01
4.908088e-01
4.908090e-01
4.908087e-01
4.908082e-01
4.908080e-01
4.907668e-01
4.907653e-01
4.907690e-01
4.907772e-01
4.907850e-01
4.907915e-01
4.907967e-01
4.908006e-01
4.908036e-01
4.908057e-01
4.908073e-01
4.908084e-01
4.908092e-01
4.908098e-01
4.908102e-01
4.908105e-01
4.907318e-01
4.907306e-01
4.907381e-01
4.907528e-01
4.907666e-01
4.907778e-01
4.907868e-01
4.907938e-01
4.907991e-01
4.908031e-01
4.908060e-01
4.908081e-01
4.908096e-01
4.908108e-01
4.908116e-01
4.908120e-01
4.907108e-01
4.907099e-01
4.907200e-01
4.907387e-01
4.907558e-01
4.907698e-01
4.907811e-01
4.907899e-01
4.907966e-01
4.908017e-01
4.908054e-01
4.908081e-01
4.908100e-01
4.908113e-01
4.908122e-01
4.908126e-01


9.365410e-01
9.455401e-01
9.538633e-01
9.602693e-01
9.662162e-01
9.717006e-01
9.766977e-01
9.811488e-01
9.850070e-01
9.882340e-01
9.908001e-01
9.926800e-01
9.938485e-01
9.942655e-01
9.945664e-01
9.760155e-01
9.759927e-01
9.718686e-01
9.745209e-01
9.779824e-01
9.812101e-01
9.841440e-01
9.868003e-01
9.892064e-01
9.913852e-01
9.933588e-01
9.951497e-01
9.967714e-01
9.981862e-01
9.991127e-01
9.967699e-01
9.650142e-01
9.916586e-01
9.892897e-01
9.886498e-01
9.895487e-01
9.907315e-01
9.918774e-01
9.929414e-01
9.939469e-01
9.949210e-01
9.958708e-01
9.967579e-01
9.974447e-01
9.975880e-01
9.963512e-01
9.918642e-01
9.837940e-01
9.983022e-01
9.965745e-01
9.955072e-01
9.952362e-01
9.953442e-01
9.955255e-01
9.957065e-01
9.958835e-01
9.960572e-01
9.962026e-01
9.962430e-01
9.960267e-01
9.953406e-01
9.941092e-01
9.930650e-01
9.928007e-01
9.983085e-01
9.965835e-01
9.955152e-01
9.952346e-01
9.953173e-01
9.954480e-01
9.955386e-01
9.955691e-01
9.955274e-01
9.953936e-01
9.951444e-01
9.947853e-01
9.944435e-01
9.945114e-01
9.954778e-01
9.971507e-01
9.916705e-01
9.893078e-01
9.886671e-01
9.895489e-01
9.906856e-01
9.917355e-01
9.926240e-01
9.933382e-01
9.938731e-01
9.942333e-01
9.944610e-01
9.946837e-01
9.951516e-01
9.961325e-01
9.976059e-01
9.991293e-01
9.759905e-01
9.718670e-01
9.745172e-01
9.779725e-01
9.811848e-01
9.840862e-01
9.866806e-01
9.889780e-01
9.909799e-01
9.926913e-01
9.941401e-01
9.954055e-01
9.966240e-01
9.979016e-01
9.990963e-01
9.998487e-01
9.364977e-01
9.454724e-01
9.537802e-01
9.601761e-01
9.661325e-01
9.716702e-01
9.768010e-01
9.815126e-01
9.858060e-01
9.896727e-01
9.930665e-01
9.958820e-01
9.979766e-01
9.992688e-01
9.998567e-01
9.999970e-01
1 2 19 18
2 3 20 19
3 4 21 20
4 5 22 21
5 6 23 22
6 7 24 23
7 8 25 24
8 9 26 25
9 10 27 26
10 11 28 27
11 12 29 28
12 13 30 29
13 14 31 30
14 15 32 31
15 16 33 32
16 17 34 33
18 19 36 35
19 20 37 36
20 21 38 37
21 22 39 38
22 23 40 39
23 24 41 40
24 25 42 41
25 26 43 42
26 27 44 43
27 28 45 44
28 29 46 45
29 30 47 46
30 31 48 47
31 32 49 48
32 33 50 49
33 34 51 50
35 36 53 52
36 37 54 53
37 38 55 54
38 39 56 55
39 40 57 56
40 41 58 57
41 42 59 58
42 43 60 59
43 44 61 60
44 45 62 61
45 46 63 62
46 47 64 63
47 48 65 64
48 49 66 65
49 50 67 66
50 51 68 67
52 53 70 69
53 54 71 70
54 55 72 71
55 56 73 72
56 57 74 73
57 58 75 74
58 59 76 75
59 60 77 76
60 61 78 77
61 62 79 78
62 63 80 79
63 64 81 80
64 65 82 81
65 66 83 82
66 67 84 83
67 68 85 84
69 70 87 86
70 71 88 87
71 72 89 88
72 73 90 89
73 74 91 90
74 75 92 91
75 76 93 92
76 77 94 93
77 78 95 94
78 79 96 95
79 80 97 96
80 81 98 97
81 82 99 98
82 83 100 99
83 84 101 100
84 85 102 101
86 87 104 103
87 88 105 104
88 89 106 105
89 90 107 106
90 91 108 107
91 92 109 108
92 93 110 109
93 94 111 110
94 95 112 111
95 96 113 112
96 97 114 113
97 98 115 114
98 99 116 115
99 100 117 116
100 101 118 117
101 102 119 118
103 104 121 120
104 105 122 121
105 106 123 122
106 107 124 123
107 108 125 124
108 109 126 125
109 110 127 126
110 111 128 127
111 112 129 128
112 113 130 129
113 114 131 130
114 115 132 131
115 116 133 132
116 117 134 133
117 118 135 134
118 119 136 135
120 121 138 137
121 122 139 138
122 123 140 139
123 124 141 140
124 125 142 141
125 126 143 142
126 127 144 143
127 128 145 144
128 129 146 145
129 130 147 146
130 131 148 147
131 132 149 148
132 133 150 149
133 134 151 150
134 135 152 151
135 136 153 152
