TITLE = "Solution"
VARIABLES = x, y, u, v, psiu, psiv, t, stress
ZONE T="structure" N=153 E=128 F=FEBLOCK ET=QUADRILATERAL VARLOCATION=([7,8]=cellcentered)
0.000000e+00
1.250000e+01
2.500000e+01
3.750000e+01
5.000000e+01
6.250000e+01
7.500000e+01
8.750000e+01
1.000000e+02
1.125000e+02
1.250000e+02
1.375000e+02
1.500000e+02
1.625000e+02
1.750000e+02
1.875000e+02
2.000000e+02
0.000000e+00
1.250000e+01
2.500000e+01
3.750000e+01
5.000000e+01
6.250000e+01
7.500000e+01
8.750000e+01
1.000000e+02
1.125000e+02
1.250000e+02
1.375000e+02
1.500000e+02
1.625000e+02
1.750000e+02
1.875000e+02
2.000000e+02
0.000000e+00
1.250000e+01
2.500000e+01
3.750000e+01
5.000000e+01
6.250000e+01
7.500000e+01
8.750000e+01
1.000000e+02
1.125000e+02
1.250000e+02
1.375000e+02
1.500000e+02
1.625000e+02
1.750000e+02
1.875000e+02
2.000000e+02
0.000000e+00
1.250000e+01
2.500000e+01
3.750000e+01
5.000000e+01
6.250000e+01
7.500000e+01
8.750000e+01
1.000000e+02
1.125000e+02
1.250000e+02
1.375000e+02
1.500000e+02
1.625000e+02
1.750000e+02
1.875000e+02
2.000000e+02
0.000000e+00
1.250000e+01
2.500000e+01
3.750000e+01
5.000000e+01
6.250000e+01
7.500000e+01
8.750000e+01
1.000000e+02
1.125000e+02
1.250000e+02
1.375000e+02
1.500000e+02
1.625000e+02
1.750000e+02
1.875000e+02
2.000000e+02
0.000000e+00
1.250000e+01
2.500000e+01
3.750000e+01
5.000000e+01
6.250000e+01
7.500000e+01
8.750000e+01
1.000000e+02
1.125000e+02
1.250000e+02
1.375000e+02
1.500000e+02
1.625000e+02
1.750000e+02
1.875000e+02
2.000000e+02
0.000000e+00
1.250000e+01
2.500000e+01
3.750000e+01
5.000000e+01
6.250000e+01
7.500000e+01
8.750000e+01
1.000000e+02
1.125000e+02
1.250000e+02
1.375000e+02
1.500000e+02
1.625000e+02
1.750000e+02
1.875000e+02
2.000000e+02
0.000000e+00
1.250000e+01
2.500000e+01
3.750000e+01
5.000000e+01
6.250000e+01
7.500000e+01
8.750000e+01
1.000000e+02
1.125000e+02
1.250000e+02
1.375000e+02
1.500000e+02
1.625000e+02
1.750000e+02
1.875000e+02
2.000000e+02
0.000000e+00
1.250000e+01
2.500000e+01
3.750000e+01
5.000000e+01
6.250000e+01
7.500000e+01
8.750000e+01
1.000000e+02
1.125000e+02
1.250000e+02
1.375000e+02
1.500000e+02
1.625000e+02
1.750000e+02
1.875000e+02
2.000000e+02
0.000000e+00
0.000000e+00
0.000000e+00
0.000000e+00
0.000000e+00
0.000000e+00
0.000000e+00
0.000000e+00
0.000000e+00
0.000000e+00
0.000000e+00
0.000000e+00
0.000000e+00
0.000000e+00
0.000000e+00
0.000000e+00
0.000000e+00
1.250000e+01
1.250000e+01
1.250000e+01
1.250000e+01
1.250000e+01
1.250000e+01
1.250000e+01
1.250000e+01
1.250000e+01
1.250000e+01
1.250000e+01
1.250000e+01
1.250000e+01
1.250000e+01
1.250000e+01
1.250000e+01
1.250000e+01
2.500000e+01
2.500000e+01
2.500000e+01
2.500000e+01
2.500000e+01
2.500000e+01
2.500000e+01
2.500000e+01
2.500000e+01
2.500000e+01
2.500000e+01
2.500000e+01
2.500000e+01
2.500000e+01
2.500000e+01
2.500000e+01
2.500000e+01
3.750000e+01
3.750000e+01
3.750000e+01
3.750000e+01
3.750000e+01
3.750000e+01
3.750000e+01
3.750000e+01
3.750000e+01
3.750000e+01
3.750000e+01
3.750000e+01
3.750000e+01
3.750000e+01
3.750000e+01
3.750000e+01
3.750000e+01
5.000000e+01
5.000000e+01
5.000000e+01
5.000000e+01
5.000000e+01
5.000000e+01
5.000000e+01
5.000000e+01
5.000000e+01
5.000000e+01
5.000000e+01
5.000000e+01
5.000000e+01
5.000000e+01
5.000000e+01
5.000000e+01
5.000000e+01
6.250000e+01
6.250000e+01
6.250000e+01
6.250000e+01
6.250000e+01
6.250000e+01
6.250000e+01
6.250000e+01
6.250000e+01
6.250000e+01
6.250000e+01
6.250000e+01
6.250000e+01
6.250000e+01
6.250000e+01
6.250000e+01
6.250000e+01
7.500000e+01
7.500000e+01
7.500000e+01
7.500000e+01
7.500000e+01
7.500000e+01
7.500000e+01
7.500000e+01
7.500000e+01
7.500000e+01
7.500000e+01
7.500000e+01
7.500000e+01
7.500000e+01
7.500000e+01
7.500000e+01
7.500000e+01
8.750000e+01
8.750000e+01
8.750000e+01
8.750000e+01
8.750000e+01
8.750000e+01
8.750000e+01
8.750000e+01
8.750000e+01
8.750000e+01
8.750000e+01
8.750000e+01
8.750000e+01
8.750000e+01
8.750000e+01
8.750000e+01
8.750000e+01
1.000000e+02
1.000000e+02
1.000000e+02
1.000000e+02
1.000000e+02
1.000000e+02
1.000000e+02
1.000000e+02
1.000000e+02
1.000000e+02
1.000000e+02
1.000000e+02
1.000000e+02
1.000000e+02
1.000000e+02
1.000000e+02
1.000000e+02
0.000000e+00
-9.971065e-01
-1.679347e+00
-2.432504e+00
-3.120145e+00
-3.752610e+00
-4.463764e+00
-5.093897e+00
-5.769062e+00
-6.427710e+00
-7.029215e+00
-7.683831e+00
-8.312020e+00
-9.043163e+00
-9.960900e+00
-1.072086e+01
-1.117237e+01
0.000000e+00
-4.464394e-01
-9.060905e-01
-1.418985e+00
-1.930919e+00
-2.409607e+00
-2.926717e+00
-3.420268e+00
-3.922127e+00
-4.426389e+00
-4.894538e+00
-5.374643e+00
-5.846376e+00
-6.337240e+00
-6.807779e+00
-6.934508e+00
-7.113501e+00
0.000000e+00
-1.456939e-01
-3.477403e-01
-6.379315e-01
-9.752740e-01
-1.298810e+00
-1.652211e+00
-2.005242e+00
-2.348868e+00
-2.702998e+00
-3.029849e+00
-3.346723e+00
-3.636425e+00
-3.863249e+00
-3.970613e+00
-3.967882e+00
-4.115462e+00
0.000000e+00
-7.836843e-02
-1.606407e-01
-3.069970e-01
-4.508447e-01
-6.219629e-01
-8.058760e-01
-9.683551e-01
-1.148577e+00
-1.308532e+00
-1.458116e+00
-1.595876e+00
-1.682675e+00
-1.689404e+00
-1.612471e+00
-1.590173e+00
-1.706536e+00
0.000000e+00
-2.767386e-03
-6.086353e-03
-8.830247e-03
-1.122625e-02
-1.180803e-02
-8.078081e-03
-7.614295e-04
1.196052e-02
3.247773e-02
5.720403e-02
1.036378e-01
1.846920e-01
2.972374e-01
4.154156e-01
4.581285e-01
3.604533e-01
0.000000e+00
7.347224e-02
1.510687e-01
2.909982e-01
4.297068e-01
6.004747e-01
7.870353e-01
9.642534e-01
1.175543e+00
1.366067e+00
1.577678e+00
1.791671e+00
2.017070e+00
2.223889e+00
2.356657e+00
2.388364e+00
2.322889e+00
0.000000e+00
1.437844e-01
3.438277e-01
6.292152e-01
9.611602e-01
1.281707e+00
1.631593e+00
1.994028e+00
2.358951e+00
2.769408e+00
3.148189e+00
3.506866e+00
3.834499e+00
4.111404e+00
4.287276e+00
4.341469e+00
4.318499e+00
0.000000e+00
4.456831e-01
9.082625e-01
1.419661e+00
1.929439e+00
2.409487e+00
2.917256e+00
3.411587e+00
3.897806e+00
4.387526e+00
4.868587e+00
5.339287e+00
5.755295e+00
6.101903e+00
6.318015e+00
6.413726e+00
6.431467e+00
0.000000e+00
9.962919e-01
1.685555e+00
2.442266e+00
3.131980e+00
3.774901e+00
4.481339e+00
5.103322e+00
5.747357e+00
6.318893e+00
6.888422e+00
7.484610e+00
7.998792e+00
8.408977e+00
8.608262e+00
8.660530e+00
8.661082e+00
0.000000e+00
-6.190730e-01
-1.362483e+00
-2.365216e+00
-3.541058e+00
-4.887586e+00
-6.422964e+00
-8.114577e+00
-9.983406e+00
-1.201331e+01
-1.418929e+01
-1.653570e+01
-1.903940e+01
-2.175129e+01
-2.470302e+01
-2.804033e+01
-3.303705e+01
0.000000e+00
-4.163298e-01
-1.194200e+00
-2.178685e+00
-3.372176e+00
-4.712889e+00
-6.245892e+00
-7.945202e+00
-9.805776e+00
-1.184857e+01
-1.402774e+01
-1.637085e+01
-1.887525e+01
-2.156418e+01
-2.456294e+01
-2.795733e+01
-3.198302e+01
0.000000e+00
-3.908995e-01
-1.092371e+00
-2.075328e+00
-3.253461e+00
-4.586359e+00
-6.127254e+00
-7.815823e+00
-9.686542e+00
-1.173197e+01
-1.391840e+01
-1.627728e+01
-1.878761e+01
-2.150292e+01
-2.455372e+01
-2.780808e+01
-3.081661e+01
0.000000e+00
-4.499533e-01
-1.088979e+00
-2.049487e+00
-3.191119e+00
-4.517133e+00
-6.064825e+00
-7.744078e+00
-9.630603e+00
-1.167756e+01
-1.387950e+01
-1.626403e+01
-1.879388e+01
-2.151422e+01
-2.448315e+01
-2.750145e+01
-3.010569e+01
0.000000e+00
-4.566085e-01
-1.111696e+00
-2.034553e+00
-3.176544e+00
-4.508083e+00
-6.043369e+00
-7.744218e+00
-9.628648e+00
-1.168584e+01
-1.391148e+01
-1.629318e+01
-1.883505e+01
-2.151561e+01
-2.432970e+01
-2.713267e+01
-2.950196e+01
0.000000e+00
-4.477177e-01
-1.088792e+00
-2.052375e+00
-3.197472e+00
-4.535625e+00
-6.094508e+00
-7.785671e+00
-9.695638e+00
-1.175141e+01
-1.398242e+01
-1.634423e+01
-1.886199e+01
-2.150625e+01
-2.419459e+01
-2.680970e+01
-2.906307e+01
0.000000e+00
-3.877457e-01
-1.091704e+00
-2.079372e+00
-3.265056e+00
-4.617956e+00
-6.178631e+00
-7.901057e+00
-9.804185e+00
-1.186882e+01
-1.406721e+01
-1.641100e+01
-1.889721e+01
-2.150473e+01
-2.411338e+01
-2.660359e+01
-2.883087e+01
0.000000e+00
-4.133525e-01
-1.192939e+00
-2.182383e+00
-3.385401e+00
-4.745747e+00
-6.305781e+00
-8.044112e+00
-9.943450e+00
-1.200667e+01
-1.418071e+01
-1.650873e+01
-1.897178e+01
-2.154374e+01
-2.409327e+01
-2.651686e+01
-2.877024e+01
0.000000e+00
-6.172138e-01
-1.362227e+00
-2.368998e+00
-3.555731e+00
-4.920828e+00
-6.483728e+00
-8.211239e+00
-1.011410e+01
-1.216063e+01
-1.433497e+01
-1.665460e+01
-1.909288e+01
-2.162435e+01
-2.411793e+01
-2.650222e+01
-2.876902e+01


0.000000e+00
1.532355e-05
2.482113e-05
3.692051e-05
5.247998e-05
6.546027e-05
8.110927e-05
9.489006e-05
1.107381e-04
1.248789e-04
1.399748e-04
1.538628e-04
1.674724e-04
1.841743e-04
1.967166e-04
2.029985e-04
2.100003e-04
0.000000e+00
1.147928e-05
1.983747e-05
2.864814e-05
4.133789e-05
5.241811e-05
6.271466e-05
7.422917e-05
8.467267e-05
9.525196e-05
1.050978e-04
1.139999e-04
1.223569e-04
1.326322e-04
1.373452e-04
1.411765e-04
1.469071e-04
0.000000e+00
9.734696e-06
1.558455e-05
2.138159e-05
3.076713e-05
3.835214e-05
4.451864e-05
5.235772e-05
5.817296e-05
6.432876e-05
6.942096e-05
7.351082e-05
7.638480e-05
7.913086e-05
7.988277e-05
8.236471e-05
8.664700e-05
0.000000e+00
5.454901e-06
7.505069e-06
1.113991e-05
1.585412e-05
1.813778e-05
2.270442e-05
2.457206e-05
2.775371e-05
2.844830e-05
3.019805e-05
2.936666e-05
2.743335e-05
2.608579e-05
2.610179e-05
2.961414e-05
3.534226e-05
0.000000e+00
-7.580206e-08
-1.968197e-07
-3.505560e-07
-5.345452e-07
-7.064558e-07
-9.529355e-07
-1.360284e-06
-2.397958e-06
-4.298638e-06
-7.947749e-06
-1.222109e-05
-1.491173e-05
-1.627615e-05
-1.590958e-05
-1.361301e-05
-9.476496e-06
0.000000e+00
-5.553564e-06
-7.808277e-06
-1.176289e-05
-1.696398e-05
-1.980945e-05
-2.471699e-05
-2.760548e-05
-3.079211e-05
-3.311581e-05
-3.753842e-05
-4.242901e-05
-4.670477e-05
-4.822450e-05
-4.902455e-05
-4.958818e-05
-4.795707e-05
0.000000e+00
-9.714100e-06
-1.557890e-05
-2.155289e-05
-3.144843e-05
-3.940137e-05
-4.626554e-05
-5.427865e-05
-5.936618e-05
-6.410807e-05
-6.845413e-05
-7.314784e-05
-7.693328e-05
-8.022005e-05
-8.247956e-05
-8.454932e-05
-8.528898e-05
0.000000e+00
-1.142822e-05
-1.974803e-05
-2.851826e-05
-4.132132e-05
-5.235857e-05
-6.276692e-05
-7.439669e-05
-8.454484e-05
-9.500284e-05
-1.048085e-04
-1.123426e-04
-1.170899e-04
-1.219968e-04
-1.254286e-04
-1.267055e-04
-1.268521e-04
0.000000e+00
-1.539212e-05
-2.487089e-05
-3.675171e-05
-5.203522e-05
-6.466571e-05
-7.956222e-05
-9.320223e-05
-1.086958e-04
-1.240228e-04
-1.418666e-04
-1.563586e-04
-1.647869e-04
-1.697477e-04
-1.718140e-04
-1.719136e-04
-1.717009e-04
0.000000e+00
1.262343e-05
1.989623e-05
3.193548e-05
4.733141e-05
6.366547e-05
8.509907e-05
1.100242e-04
1.393894e-04
1.729211e-04
2.117750e-04
2.551244e-04
3.044549e-04
3.606861e-04
4.226869e-04
4.923859e-04
5.654283e-04
0.000000e+00
7.709731e-06
1.600313e-05
2.585891e-05
4.091749e-05
5.778360e-05
7.868916e-05
1.039836e-04
1.329850e-04
1.670643e-04
2.058434e-04
2.499257e-04
2.987829e-04
3.547916e-04
4.167154e-04
4.848949e-04
5.550970e-04
0.000000e+00
4.259610e-06
1.202890e-05
2.106890e-05
3.499420e-05
5.288797e-05
7.367675e-05
9.912122e-05
1.283214e-04
1.623073e-04
2.018327e-04
2.462299e-04
2.957918e-04
3.524975e-04
4.121260e-04
4.774239e-04
5.453875e-04
0.000000e+00
2.941462e-06
9.965681e-06
1.893511e-05
3.285337e-05
5.056245e-05
7.220688e-05
9.726751e-05
1.267791e-04
1.600056e-04
2.000082e-04
2.453274e-04
2.959746e-04
3.520923e-04
4.095327e-04
4.694416e-04
5.312022e-04
0.000000e+00
2.443634e-06
9.419068e-06
1.848050e-05
3.235979e-05
5.006846e-05
7.155740e-05
9.712565e-05
1.258371e-04
1.589951e-04
1.988309e-04
2.460613e-04
2.970558e-04
3.529451e-04
4.087136e-04
4.627475e-04
5.147736e-04
0.000000e+00
3.063308e-06
1.015130e-05
1.913299e-05
3.308029e-05
5.065096e-05
7.185918e-05
9.700923e-05
1.255645e-04
1.584177e-04
1.997412e-04
2.483819e-04
2.996246e-04
3.534128e-04
4.088493e-04
4.603196e-04
5.034997e-04
0.000000e+00
4.428407e-06
1.234567e-05
2.146262e-05
3.543288e-05
5.293193e-05
7.315542e-05
9.797282e-05
1.258718e-04
1.597624e-04
2.020281e-04
2.517295e-04
3.030323e-04
3.552213e-04
4.080315e-04
4.577732e-04
4.999701e-04
0.000000e+00
7.852302e-06
1.635482e-05
2.638366e-05
4.142277e-05
5.798040e-05
7.820506e-05
1.025242e-04
1.302024e-04
1.642466e-04
2.060088e-04
2.549146e-04
3.059269e-04
3.572214e-04
4.080249e-04
4.559708e-04
5.003811e-04
0.000000e+00
1.276968e-05
2.023710e-05
3.246079e-05
4.784491e-05
6.384941e-05
8.468275e-05
1.086014e-04
1.367782e-04
1.706090e-04
2.124739e-04
2.585080e-04
3.079873e-04
3.584054e-04
4.082490e-04
4.555139e-04
5.006612e-04


5.710609e+00
6.154139e+00
6.872070e+00
5.954206e+00
5.823933e+00
6.663402e+00
6.110683e+00
5.733401e+00
5.665066e+00
6.341817e+00
7.489590e+00
7.737834e+00
8.845148e+00
9.782115e+00
9.137828e+00
7.992748e+00
8.098777e+00
8.468704e+00
8.664027e+00
8.359316e+00
8.279925e+00
8.579253e+00
8.508881e+00
8.165922e+00
8.167139e+00
8.561720e+00
8.871047e+00
9.163192e+00
9.439007e+00
9.824709e+00
8.392710e+00
6.449862e+00
9.846137e+00
9.824292e+00
9.999993e+00
9.838606e+00
9.836319e+00
9.981282e+00
9.837014e+00
9.894871e+00
9.864702e+00
9.852400e+00
9.999470e+00
9.863883e+00
9.893564e+00
9.439053e+00
8.058137e+00
6.209235e+00
9.999998e+00
9.999994e+00
9.999984e+00
9.999974e+00
9.999958e+00
9.999981e+00
9.999985e+00
9.999990e+00
9.999982e+00
9.999745e+00
9.999832e+00
9.501820e+00
8.840133e+00
8.433569e+00
8.100274e+00
7.974692e+00
9.999997e+00
9.999993e+00
9.999983e+00
9.999974e+00
9.999977e+00
9.999989e+00
9.999997e+00
9.999998e+00
9.999916e+00
9.956346e+00
9.378797e+00
8.635120e+00
7.720073e+00
7.751925e+00
8.698798e+00
9.211195e+00
9.839240e+00
9.824441e+00
9.999990e+00
9.837589e+00
9.837734e+00
9.932597e+00
9.836327e+00
9.999793e+00
9.673683e+00
9.086135e+00
8.438264e+00
7.930538e+00
8.210384e+00
8.728009e+00
9.439656e+00
9.995252e+00
8.057185e+00
8.449161e+00
8.660332e+00
8.358101e+00
8.088662e+00
8.283675e+00
8.729159e+00
8.676602e+00
8.492482e+00
7.850098e+00
7.713361e+00
8.505025e+00
9.298056e+00
9.834651e+00
9.999957e+00
9.999860e+00
5.607857e+00
6.112530e+00
6.859354e+00
5.882137e+00
5.432391e+00
6.074459e+00
6.535279e+00
7.220672e+00
6.867106e+00
7.062463e+00
8.150016e+00
9.103399e+00
9.984369e+00
9.999959e+00
9.999972e+00
9.999992e+00


-8.228554e-01
-1.640303e-01
-4.002223e-01
-2.622079e-01
-8.925736e-02
-3.202725e-01
-1.165728e-01
-2.209661e-01
-1.946697e-01
-1.749164e-02
-1.390418e-01
-7.452127e-02
-3.141672e-01
-6.412933e-01
3.114742e-01
-8.575453e-01
6.106572e-01
4.837011e-01
2.956260e-01
2.255967e-01
2.954446e-01
1.616901e-01
1.890413e-01
1.654784e-01
1.226330e-01
2.194316e-01
2.033938e-01
2.735455e-01
3.653264e-01
5.122598e-01
6.926242e-01
-9.196222e-01
7.225371e-01
4.724148e-01
5.690399e-02
-2.299880e-02
-3.157786e-02
-1.934731e-01
-7.985784e-02
-1.271071e-01
-9.026525e-02
2.738020e-02
4.828653e-02
1.928737e-01
2.924789e-01
1.408637e-01
-3.290249e-02
-1.511319e-01
7.274928e-01
5.552841e-01
1.900952e-01
5.820703e-02
-2.380685e-02
-1.117699e-01
-2.794859e-02
-6.663481e-02
-9.177450e-03
3.069515e-02
5.886503e-02
1.203807e-01
6.465117e-02
-2.633600e-01
-4.113575e-01
-8.469838e-02
7.306133e-01
5.576603e-01
1.943260e-01
5.954246e-02
-3.522011e-02
-1.334242e-01
-6.294739e-02
-1.214026e-01
-5.766218e-02
-5.104349e-02
2.405396e-02
3.760348e-03
-3.216158e-02
-1.067376e-01
-1.076274e-01
3.038913e-01
7.299480e-01
4.788461e-01
7.058214e-02
-1.167245e-02
-5.567217e-02
-2.338129e-01
-1.785834e-01
-2.922203e-01
-2.361546e-01
-1.288756e-01
-6.098055e-02
-9.319911e-02
-1.184950e-01
6.671914e-02
3.455052e-01
7.289397e-01
6.161036e-01
4.842042e-01
3.068922e-01
2.380858e-01
2.919087e-01
1.666219e-01
1.342490e-01
8.281187e-02
-7.275827e-02
-5.515448e-02
-7.250055e-02
-2.242983e-02
5.265123e-02
3.731503e-01
7.158447e-01
9.482780e-01
-8.175344e-01
-1.835010e-01
-4.043237e-01
-2.624853e-01
-1.118360e-01
-2.936236e-01
-1.070315e-01
-1.385791e-01
-2.546824e-02
-1.970417e-02
-7.372876e-02
1.489036e-01
3.897295e-01
7.756254e-01
9.535351e-01
9.987384e-01
1 2 19 18
2 3 20 19
3 4 21 20
4 5 22 21
5 6 23 22
6 7 24 23
7 8 25 24
8 9 26 25
9 10 27 26
10 11 28 27
11 12 29 28
12 13 30 29
13 14 31 30
14 15 32 31
15 16 33 32
16 17 34 33
18 19 36 35
19 20 37 36
20 21 38 37
21 22 39 38
22 23 40 39
23 24 41 40
24 25 42 41
25 26 43 42
26 27 44 43
27 28 45 44
28 29 46 45
29 30 47 46
30 31 48 47
31 32 49 48
32 33 50 49
33 34 51 50
35 36 53 52
36 37 54 53
37 38 55 54
38 39 56 55
39 40 57 56
40 41 58 57
41 42 59 58
42 43 60 59
43 44 61 60
44 45 62 61
45 46 63 62
46 47 64 63
47 48 65 64
48 49 66 65
49 50 67 66
50 51 68 67
52 53 70 69
53 54 71 70
54 55 72 71
55 56 73 72
56 57 74 73
57 58 75 74
58 59 76 75
59 60 77 76
60 61 78 77
61 62 79 78
62 63 80 79
63 64 81 80
64 65 82 81
65 66 83 82
66 67 84 83
67 68 85 84
69 70 87 86
70 71 88 87
71 72 89 88
72 73 90 89
73 74 91 90
74 75 92 91
75 76 93 92
76 77 94 93
77 78 95 94
78 79 96 95
79 80 97 96
80 81 98 97
81 82 99 98
82 83 100 99
83 84 101 100
84 85 102 101
86 87 104 103
87 88 105 104
88 89 106 105
89 90 107 106
90 91 108 107
91 92 109 108
92 93 110 109
93 94 111 110
94 95 112 111
95 96 113 112
96 97 114 113
97 98 115 114
98 99 116 115
99 100 117 116
100 101 118 117
101 102 119 118
103 104 121 120
104 105 122 121
105 106 123 122
106 107 124 123
107 108 125 124
108 109 126 125
109 110 127 126
110 111 128 127
111 112 129 128
112 113 130 129
113 114 131 130
114 115 132 131
115 116 133 132
116 117 134 133
117 118 135 134
118 119 136 135
120 121 138 137
121 122 139 138
122 123 140 139
123 124 141 140
124 125 142 141
125 126 143 142
126 127 144 143
127 128 145 144
128 129 146 145
129 130 147 146
130 131 148 147
131 132 149 148
132 133 150 149
133 134 151 150
134 135 152 151
135 136 153 152
