TITLE = "Solution"
VARIABLES = x, y, u, v, psiu, psiv, t, stress
ZONE T="structure" N=153 E=128 F=FEBLOCK ET=QUADRILATERAL VARLOCATION=([7,8]=cellcentered)
0.000000e+00
1.250000e+01
2.500000e+01
3.750000e+01
5.000000e+01
6.250000e+01
7.500000e+01
8.750000e+01
1.000000e+02
1.125000e+02
1.250000e+02
1.375000e+02
1.500000e+02
1.625000e+02
1.750000e+02
1.875000e+02
2.000000e+02
0.000000e+00
1.250000e+01
2.500000e+01
3.750000e+01
5.000000e+01
6.250000e+01
7.500000e+01
8.750000e+01
1.000000e+02
1.125000e+02
1.250000e+02
1.375000e+02
1.500000e+02
1.625000e+02
1.750000e+02
1.875000e+02
2.000000e+02
0.000000e+00
1.250000e+01
2.500000e+01
3.750000e+01
5.000000e+01
6.250000e+01
7.500000e+01
8.750000e+01
1.000000e+02
1.125000e+02
1.250000e+02
1.375000e+02
1.500000e+02
1.625000e+02
1.750000e+02
1.875000e+02
2.000000e+02
0.000000e+00
1.250000e+01
2.500000e+01
3.750000e+01
5.000000e+01
6.250000e+01
7.500000e+01
8.750000e+01
1.000000e+02
1.125000e+02
1.250000e+02
1.375000e+02
1.500000e+02
1.625000e+02
1.750000e+02
1.875000e+02
2.000000e+02
0.000000e+00
1.250000e+01
2.500000e+01
3.750000e+01
5.000000e+01
6.250000e+01
7.500000e+01
8.750000e+01
1.000000e+02
1.125000e+02
1.250000e+02
1.375000e+02
1.500000e+02
1.625000e+02
1.750000e+02
1.875000e+02
2.000000e+02
0.000000e+00
1.250000e+01
2.500000e+01
3.750000e+01
5.000000e+01
6.250000e+01
7.500000e+01
8.750000e+01
1.000000e+02
1.125000e+02
1.250000e+02
1.375000e+02
1.500000e+02
1.625000e+02
1.750000e+02
1.875000e+02
2.000000e+02
0.000000e+00
1.250000e+01
2.500000e+01
3.750000e+01
5.000000e+01
6.250000e+01
7.500000e+01
8.750000e+01
1.000000e+02
1.125000e+02
1.250000e+02
1.375000e+02
1.500000e+02
1.625000e+02
1.750000e+02
1.875000e+02
2.000000e+02
0.000000e+00
1.250000e+01
2.500000e+01
3.750000e+01
5.000000e+01
6.250000e+01
7.500000e+01
8.750000e+01
1.000000e+02
1.125000e+02
1.250000e+02
1.375000e+02
1.500000e+02
1.625000e+02
1.750000e+02
1.875000e+02
2.000000e+02
0.000000e+00
1.250000e+01
2.500000e+01
3.750000e+01
5.000000e+01
6.250000e+01
7.500000e+01
8.750000e+01
1.000000e+02
1.125000e+02
1.250000e+02
1.375000e+02
1.500000e+02
1.625000e+02
1.750000e+02
1.875000e+02
2.000000e+02
0.000000e+00
0.000000e+00
0.000000e+00
0.000000e+00
0.000000e+00
0.000000e+00
0.000000e+00
0.000000e+00
0.000000e+00
0.000000e+00
0.000000e+00
0.000000e+00
0.000000e+00
0.000000e+00
0.000000e+00
0.000000e+00
0.000000e+00
1.250000e+01
1.250000e+01
1.250000e+01
1.250000e+01
1.250000e+01
1.250000e+01
1.250000e+01
1.250000e+01
1.250000e+01
1.250000e+01
1.250000e+01
1.250000e+01
1.250000e+01
1.250000e+01
1.250000e+01
1.250000e+01
1.250000e+01
2.500000e+01
2.500000e+01
2.500000e+01
2.500000e+01
2.500000e+01
2.500000e+01
2.500000e+01
2.500000e+01
2.500000e+01
2.500000e+01
2.500000e+01
2.500000e+01
2.500000e+01
2.500000e+01
2.500000e+01
2.500000e+01
2.500000e+01
3.750000e+01
3.750000e+01
3.750000e+01
3.750000e+01
3.750000e+01
3.750000e+01
3.750000e+01
3.750000e+01
3.750000e+01
3.750000e+01
3.750000e+01
3.750000e+01
3.750000e+01
3.750000e+01
3.750000e+01
3.750000e+01
3.750000e+01
5.000000e+01
5.000000e+01
5.000000e+01
5.000000e+01
5.000000e+01
5.000000e+01
5.000000e+01
5.000000e+01
5.000000e+01
5.000000e+01
5.000000e+01
5.000000e+01
5.000000e+01
5.000000e+01
5.000000e+01
5.000000e+01
5.000000e+01
6.250000e+01
6.250000e+01
6.250000e+01
6.250000e+01
6.250000e+01
6.250000e+01
6.250000e+01
6.250000e+01
6.250000e+01
6.250000e+01
6.250000e+01
6.250000e+01
6.250000e+01
6.250000e+01
6.250000e+01
6.250000e+01
6.250000e+01
7.500000e+01
7.500000e+01
7.500000e+01
7.500000e+01
7.500000e+01
7.500000e+01
7.500000e+01
7.500000e+01
7.500000e+01
7.500000e+01
7.500000e+01
7.500000e+01
7.500000e+01
7.500000e+01
7.500000e+01
7.500000e+01
7.500000e+01
8.750000e+01
8.750000e+01
8.750000e+01
8.750000e+01
8.750000e+01
8.750000e+01
8.750000e+01
8.750000e+01
8.750000e+01
8.750000e+01
8.750000e+01
8.750000e+01
8.750000e+01
8.750000e+01
8.750000e+01
8.750000e+01
8.750000e+01
1.000000e+02
1.000000e+02
1.000000e+02
1.000000e+02
1.000000e+02
1.000000e+02
1.000000e+02
1.000000e+02
1.000000e+02
1.000000e+02
1.000000e+02
1.000000e+02
1.000000e+02
1.000000e+02
1.000000e+02
1.000000e+02
1.000000e+02
0.000000e+00
-9.970288e-01
-1.679729e+00
-2.432828e+00
-3.120197e+00
-3.752646e+00
-4.461801e+00
-5.089988e+00
-5.765558e+00
-6.407547e+00
-7.055504e+00
-7.723994e+00
-8.377270e+00
-9.145695e+00
-1.007351e+01
-1.083119e+01
-1.128235e+01
0.000000e+00
-4.462743e-01
-9.061082e-01
-1.418803e+00
-1.930398e+00
-2.409645e+00
-2.923524e+00
-3.421260e+00
-3.916796e+00
-4.419484e+00
-4.911596e+00
-5.415525e+00
-5.901356e+00
-6.420384e+00
-6.896267e+00
-7.022621e+00
-7.201639e+00
0.000000e+00
-1.455175e-01
-3.474814e-01
-6.375319e-01
-9.746997e-01
-1.298891e+00
-1.651394e+00
-2.008457e+00
-2.351564e+00
-2.714142e+00
-3.053140e+00
-3.388297e+00
-3.684419e+00
-3.923926e+00
-4.034406e+00
-4.033236e+00
-4.181312e+00
0.000000e+00
-7.818345e-02
-1.604030e-01
-3.067963e-01
-4.509553e-01
-6.229492e-01
-8.085410e-01
-9.727673e-01
-1.159779e+00
-1.321079e+00
-1.481870e+00
-1.621861e+00
-1.717635e+00
-1.727422e+00
-1.654224e+00
-1.633202e+00
-1.750274e+00
0.000000e+00
-2.625305e-03
-5.940824e-03
-8.711243e-03
-1.169264e-02
-1.332604e-02
-1.099097e-02
-6.071170e-03
4.016474e-03
2.152799e-02
4.534069e-02
8.852490e-02
1.680847e-01
2.778361e-01
3.946269e-01
4.359413e-01
3.371773e-01
0.000000e+00
7.359461e-02
1.514174e-01
2.910963e-01
4.293033e-01
6.000556e-01
7.845243e-01
9.614292e-01
1.171562e+00
1.362782e+00
1.574681e+00
1.788384e+00
2.012930e+00
2.219717e+00
2.351884e+00
2.382841e+00
2.316097e+00
0.000000e+00
1.439039e-01
3.444434e-01
6.295319e-01
9.613438e-01
1.282152e+00
1.631830e+00
1.993053e+00
2.358084e+00
2.769416e+00
3.150942e+00
3.510186e+00
3.837932e+00
4.116480e+00
4.293530e+00
4.347687e+00
4.324252e+00
0.000000e+00
4.448190e-01
9.089384e-01
1.419671e+00
1.929003e+00
2.410663e+00
2.918159e+00
3.413084e+00
3.901230e+00
4.391658e+00
4.875959e+00
5.348730e+00
5.765752e+00
6.115638e+00
6.334441e+00
6.431395e+00
6.449306e+00
0.000000e+00
9.945186e-01
1.685988e+00
2.442066e+00
3.130140e+00
3.776888e+00
4.481656e+00
5.106995e+00
5.754895e+00
6.328425e+00
6.901338e+00
7.502281e+00
8.018924e+00
8.435491e+00
8.637852e+00
8.691220e+00
8.691956e+00
0.000000e+00
-6.191147e-01
-1.362848e+00
-2.365960e+00
-3.542643e+00
-4.889534e+00
-6.425984e+00
-8.117602e+00
-9.983971e+00
-1.201283e+01
-1.420132e+01
-1.655481e+01
-1.906920e+01
-2.179923e+01
-2.476198e+01
-2.811864e+01
-3.313649e+01
0.000000e+00
-4.163025e-01
-1.194516e+00
-2.179521e+00
-3.373583e+00
-4.715456e+00
-6.248320e+00
-7.949287e+00
-9.807716e+00
-1.184565e+01
-1.402930e+01
-1.638699e+01
-1.889639e+01
-2.160666e+01
-2.462180e+01
-2.803542e+01
-3.208240e+01
0.000000e+00
-3.908674e-01
-1.092681e+00
-2.076143e+00
-3.254508e+00
-4.589124e+00
-6.128649e+00
-7.819420e+00
-9.689280e+00
-1.172456e+01
-1.391922e+01
-1.628830e+01
-1.880778e+01
-2.154304e+01
-2.461121e+01
-2.788507e+01
-3.091512e+01
0.000000e+00
-4.498573e-01
-1.089092e+00
-2.049841e+00
-3.191633e+00
-4.518085e+00
-6.066188e+00
-7.742872e+00
-9.633539e+00
-1.166793e+01
-1.388443e+01
-1.627190e+01
-1.881719e+01
-2.155208e+01
-2.453920e+01
-2.757708e+01
-3.020250e+01
0.000000e+00
-4.563118e-01
-1.111522e+00
-2.034296e+00
-3.175927e+00
-4.507716e+00
-6.042388e+00
-7.742333e+00
-9.626375e+00
-1.168254e+01
-1.391518e+01
-1.630540e+01
-1.885796e+01
-2.155323e+01
-2.438507e+01
-2.720698e+01
-2.959543e+01
0.000000e+00
-4.469392e-01
-1.088447e+00
-2.051797e+00
-3.195040e+00
-4.534858e+00
-6.091286e+00
-7.783121e+00
-9.692319e+00
-1.175079e+01
-1.398880e+01
-1.635834e+01
-1.888532e+01
-2.154384e+01
-2.424955e+01
-2.688237e+01
-2.915182e+01
0.000000e+00
-3.867866e-01
-1.091089e+00
-2.078266e+00
-3.262308e+00
-4.615747e+00
-6.175039e+00
-7.897445e+00
-9.802093e+00
-1.187023e+01
-1.407544e+01
-1.642619e+01
-1.892063e+01
-2.154260e+01
-2.416784e+01
-2.667425e+01
-2.891576e+01
0.000000e+00
-4.124868e-01
-1.192088e+00
-2.181128e+00
-3.382869e+00
-4.742924e+00
-6.302350e+00
-8.040239e+00
-9.942406e+00
-1.200941e+01
-1.418975e+01
-1.652449e+01
-1.899607e+01
-2.158209e+01
-2.414787e+01
-2.658662e+01
-2.885374e+01
0.000000e+00
-6.166311e-01
-1.361578e+00
-2.367402e+00
-3.553457e+00
-4.918389e+00
-6.480195e+00
-8.208358e+00
-1.011367e+01
-1.216430e+01
-1.434482e+01
-1.667137e+01
-1.911825e+01
-2.166406e+01
-2.417289e+01
-2.657192e+01
-2.885230e+01


0.000000e+00
1.534255e-05
2.483904e-05
3.691767e-05
5.246983e-05
6.539320e-05
8.096831e-05
9.489688e-05
1.102779e-04
1.248662e-04
1.406175e-04
1.555732e-04
1.717310e-04
1.878227e-04
1.981964e-04
2.039350e-04
2.109341e-04
0.000000e+00
1.149163e-05
1.983866e-05
2.865926e-05
4.139758e-05
5.237710e-05
6.283217e-05
7.422830e-05
8.453701e-05
9.553325e-05
1.057706e-04
1.157596e-04
1.261816e-04
1.357274e-04
1.380355e-04
1.417800e-04
1.476107e-04
0.000000e+00
9.746401e-06
1.559055e-05
2.141502e-05
3.091596e-05
3.845461e-05
4.484552e-05
5.257649e-05
5.839433e-05
6.492983e-05
7.021648e-05
7.488591e-05
7.875020e-05
8.081429e-05
8.052555e-05
8.300618e-05
8.731483e-05
0.000000e+00
5.449956e-06
7.505096e-06
1.114404e-05
1.589773e-05
1.818428e-05
2.257663e-05
2.477352e-05
2.766607e-05
2.901921e-05
3.082779e-05
3.000182e-05
2.837087e-05
2.670478e-05
2.689627e-05
3.033999e-05
3.606776e-05
0.000000e+00
-9.453784e-08
-2.375417e-07
-4.387074e-07
-6.841057e-07
-9.785431e-07
-1.360073e-06
-1.750153e-06
-2.658284e-06
-4.138183e-06
-7.459612e-06
-1.182813e-05
-1.464095e-05
-1.560963e-05
-1.523139e-05
-1.287993e-05
-8.752288e-06
0.000000e+00
-5.581448e-06
-7.869246e-06
-1.180162e-05
-1.704833e-05
-1.994793e-05
-2.469876e-05
-2.794348e-05
-3.099101e-05
-3.316897e-05
-3.705291e-05
-4.241074e-05
-4.654563e-05
-4.766773e-05
-4.832190e-05
-4.891024e-05
-4.731431e-05
0.000000e+00
-9.766855e-06
-1.561155e-05
-2.155932e-05
-3.153418e-05
-3.924866e-05
-4.620499e-05
-5.429598e-05
-5.946041e-05
-6.416345e-05
-6.858523e-05
-7.327268e-05
-7.719202e-05
-7.993078e-05
-8.215196e-05
-8.418817e-05
-8.495734e-05
0.000000e+00
-1.146132e-05
-1.976953e-05
-2.852419e-05
-4.142973e-05
-5.230184e-05
-6.290131e-05
-7.459487e-05
-8.461677e-05
-9.516367e-05
-1.055139e-04
-1.127720e-04
-1.175939e-04
-1.223827e-04
-1.256940e-04
-1.269060e-04
-1.270419e-04
0.000000e+00
-1.539593e-05
-2.488557e-05
-3.674485e-05
-5.209510e-05
-6.478347e-05
-7.963553e-05
-9.374194e-05
-1.085451e-04
-1.245498e-04
-1.427348e-04
-1.573852e-04
-1.654254e-04
-1.704106e-04
-1.726161e-04
-1.726917e-04
-1.724648e-04
0.000000e+00
1.264332e-05
1.993182e-05
3.200686e-05
4.738593e-05
6.367451e-05
8.507788e-05
1.099056e-04
1.392236e-04
1.730817e-04
2.121201e-04
2.563826e-04
3.068899e-04
3.621468e-04
4.240534e-04
4.946126e-04
5.679433e-04
0.000000e+00
7.728148e-06
1.603989e-05
2.592105e-05
4.098739e-05
5.779364e-05
7.863867e-05
1.038889e-04
1.328291e-04
1.669605e-04
2.058378e-04
2.503236e-04
3.005224e-04
3.570318e-04
4.186545e-04
4.871289e-04
5.574604e-04
0.000000e+00
4.277704e-06
1.205866e-05
2.109818e-05
3.510019e-05
5.284502e-05
7.360089e-05
9.899934e-05
1.281053e-04
1.622278e-04
2.014870e-04
2.462370e-04
2.971518e-04
3.549951e-04
4.144551e-04
4.796342e-04
5.476353e-04
0.000000e+00
2.946202e-06
9.975906e-06
1.894238e-05
3.292283e-05
5.056881e-05
7.190603e-05
9.715028e-05
1.266302e-04
1.601182e-04
1.995483e-04
2.455388e-04
2.972469e-04
3.542447e-04
4.118507e-04
4.716704e-04
5.333991e-04
0.000000e+00
2.440415e-06
9.419478e-06
1.847864e-05
3.238196e-05
5.003649e-05
7.125779e-05
9.680029e-05
1.262257e-04
1.589539e-04
1.983926e-04
2.465046e-04
2.984616e-04
3.546087e-04
4.108622e-04
4.650008e-04
5.170331e-04
0.000000e+00
3.059884e-06
1.015599e-05
1.909815e-05
3.305550e-05
5.058658e-05
7.156238e-05
9.685051e-05
1.260624e-04
1.583591e-04
1.991871e-04
2.492099e-04
3.010704e-04
3.546638e-04
4.108065e-04
4.625879e-04
5.059214e-04
0.000000e+00
4.429882e-06
1.233565e-05
2.137837e-05
3.540837e-05
5.274150e-05
7.307083e-05
9.791828e-05
1.262323e-04
1.595643e-04
2.017814e-04
2.527284e-04
3.044269e-04
3.562082e-04
4.097930e-04
4.600189e-04
5.025774e-04
0.000000e+00
7.850977e-06
1.633248e-05
2.632156e-05
4.132643e-05
5.784160e-05
7.814531e-05
1.025924e-04
1.302899e-04
1.641672e-04
2.061894e-04
2.557440e-04
3.072413e-04
3.581469e-04
4.096785e-04
4.581692e-04
5.030980e-04
0.000000e+00
1.277453e-05
2.020896e-05
3.241582e-05
4.774753e-05
6.372128e-05
8.468324e-05
1.087209e-04
1.366005e-04
1.709742e-04
2.126506e-04
2.593726e-04
3.089725e-04
3.595272e-04
4.098218e-04
4.576975e-04
5.033979e-04


5.701191e+00
6.150331e+00
6.870920e+00
5.968289e+00
5.911839e+00
6.898424e+00
6.638097e+00
6.518942e+00
5.998874e+00
5.919369e+00
6.315181e+00
7.170162e+00
8.847460e+00
9.827326e+00
9.153034e+00
8.002666e+00
8.094965e+00
8.466908e+00
8.663751e+00
8.359128e+00
8.323219e+00
8.642176e+00
8.776300e+00
8.451964e+00
8.414629e+00
8.277036e+00
8.430614e+00
8.854765e+00
9.506227e+00
9.842055e+00
8.400852e+00
6.461912e+00
9.845507e+00
9.824308e+00
1.000000e+01
9.838592e+00
9.836486e+00
9.992138e+00
9.836241e+00
9.952177e+00
9.849982e+00
9.880782e+00
9.901561e+00
9.877376e+00
9.894392e+00
9.433767e+00
8.058118e+00
6.223318e+00
1.000000e+01
1.000000e+01
1.000000e+01
1.000000e+01
1.000000e+01
1.000000e+01
1.000000e+01
1.000000e+01
1.000000e+01
1.000000e+01
9.999901e+00
9.488700e+00
8.831775e+00
8.411949e+00
8.091938e+00
7.997868e+00
1.000000e+01
1.000000e+01
1.000000e+01
1.000000e+01
1.000000e+01
1.000000e+01
1.000000e+01
9.999996e+00
9.999965e+00
9.973445e+00
9.375935e+00
8.662575e+00
7.757536e+00
7.774830e+00
8.695887e+00
9.222740e+00
9.835678e+00
9.824547e+00
1.000000e+01
9.837081e+00
9.838674e+00
9.912283e+00
9.836702e+00
9.999843e+00
9.739943e+00
9.183906e+00
8.511433e+00
7.985077e+00
8.320993e+00
8.788675e+00
9.452358e+00
9.999988e+00
8.035772e+00
8.439171e+00
8.658643e+00
8.358653e+00
8.010963e+00
8.164783e+00
8.650950e+00
8.694885e+00
8.594507e+00
8.033095e+00
7.806092e+00
8.562732e+00
9.364562e+00
9.881130e+00
9.999998e+00
1.000000e+01
5.554890e+00
6.091345e+00
6.853583e+00
5.854200e+00
5.275359e+00
5.778092e+00
6.376149e+00
7.195999e+00
6.957546e+00
7.197563e+00
8.233381e+00
9.097596e+00
9.999950e+00
1.000000e+01
1.000000e+01
1.000000e+01


-8.222629e-01
-1.653118e-01
-3.996787e-01
-2.610964e-01
-9.015668e-02
-3.097770e-01
-1.212160e-01
-2.083386e-01
-1.618677e-01
-1.533111e-01
-2.180719e-01
-1.519951e-01
-4.560704e-01
-6.776037e-01
3.139534e-01
-8.562490e-01
6.110201e-01
4.833997e-01
2.958078e-01
2.259438e-01
2.924591e-01
1.667922e-01
1.725859e-01
1.707717e-01
1.050714e-01
1.473213e-01
1.254666e-01
2.416054e-01
3.087273e-01
5.115308e-01
6.974506e-01
-9.222141e-01
7.227637e-01
4.720393e-01
5.591379e-02
-2.464313e-02
-3.742449e-02
-1.986063e-01
-9.050961e-02
-1.485486e-01
-8.407035e-02
-1.848568e-02
3.476619e-02
1.872204e-01
2.872951e-01
1.506228e-01
-2.815649e-02
-1.554895e-01
7.277659e-01
5.549372e-01
1.897380e-01
5.764865e-02
-2.636463e-02
-1.135546e-01
-2.617590e-02
-7.102599e-02
1.249016e-02
1.772833e-02
7.111056e-02
1.232201e-01
7.486291e-02
-2.569224e-01
-4.082366e-01
-9.194708e-02
7.312460e-01
5.572849e-01
1.949272e-01
6.257737e-02
-3.573488e-02
-1.261291e-01
-5.784025e-02
-1.100141e-01
-4.483268e-02
-4.876071e-02
2.998246e-02
9.924678e-03
-3.222344e-02
-1.108789e-01
-1.135991e-01
2.943157e-01
7.308615e-01
4.780213e-01
7.229538e-02
-6.246031e-03
-5.639364e-02
-2.222656e-01
-1.721801e-01
-2.860914e-01
-2.384483e-01
-1.382048e-01
-6.436620e-02
-9.636681e-02
-1.340707e-01
5.067654e-02
3.338380e-01
7.220344e-01
6.171572e-01
4.813950e-01
3.085524e-01
2.398322e-01
2.895277e-01
1.692895e-01
1.372501e-01
8.127976e-02
-7.507775e-02
-6.775047e-02
-7.899224e-02
-2.743384e-02
3.478649e-02
3.582572e-01
7.092331e-01
9.466971e-01
-8.111304e-01
-1.909263e-01
-4.014435e-01
-2.583351e-01
-1.220957e-01
-2.896264e-01
-1.143864e-01
-1.497533e-01
-3.037420e-02
-3.222895e-02
-8.626553e-02
1.432330e-01
3.745619e-01
7.695440e-01
9.521729e-01
9.986763e-01
1 2 19 18
2 3 20 19
3 4 21 20
4 5 22 21
5 6 23 22
6 7 24 23
7 8 25 24
8 9 26 25
9 10 27 26
10 11 28 27
11 12 29 28
12 13 30 29
13 14 31 30
14 15 32 31
15 16 33 32
16 17 34 33
18 19 36 35
19 20 37 36
20 21 38 37
21 22 39 38
22 23 40 39
23 24 41 40
24 25 42 41
25 26 43 42
26 27 44 43
27 28 45 44
28 29 46 45
29 30 47 46
30 31 48 47
31 32 49 48
32 33 50 49
33 34 51 50
35 36 53 52
36 37 54 53
37 38 55 54
38 39 56 55
39 40 57 56
40 41 58 57
41 42 59 58
42 43 60 59
43 44 61 60
44 45 62 61
45 46 63 62
46 47 64 63
47 48 65 64
48 49 66 65
49 50 67 66
50 51 68 67
52 53 70 69
53 54 71 70
54 55 72 71
55 56 73 72
56 57 74 73
57 58 75 74
58 59 76 75
59 60 77 76
60 61 78 77
61 62 79 78
62 63 80 79
63 64 81 80
64 65 82 81
65 66 83 82
66 67 84 83
67 68 85 84
69 70 87 86
70 71 88 87
71 72 89 88
72 73 90 89
73 74 91 90
74 75 92 91
75 76 93 92
76 77 94 93
77 78 95 94
78 79 96 95
79 80 97 96
80 81 98 97
81 82 99 98
82 83 100 99
83 84 101 100
84 85 102 101
86 87 104 103
87 88 105 104
88 89 106 105
89 90 107 106
90 91 108 107
91 92 109 108
92 93 110 109
93 94 111 110
94 95 112 111
95 96 113 112
96 97 114 113
97 98 115 114
98 99 116 115
99 100 117 116
100 101 118 117
101 102 119 118
103 104 121 120
104 105 122 121
105 106 123 122
106 107 124 123
107 108 125 124
108 109 126 125
109 110 127 126
110 111 128 127
111 112 129 128
112 113 130 129
113 114 131 130
114 115 132 131
115 116 133 132
116 117 134 133
117 118 135 134
118 119 136 135
120 121 138 137
121 122 139 138
122 123 140 139
123 124 141 140
124 125 142 141
125 126 143 142
126 127 144 143
127 128 145 144
128 129 146 145
129 130 147 146
130 131 148 147
131 132 149 148
132 133 150 149
133 134 151 150
134 135 152 151
135 136 153 152
