TITLE = "Solution"
VARIABLES = x, y, u, v, psiu, psiv, t, stress
ZONE T="structure" N=153 E=128 F=FEBLOCK ET=QUADRILATERAL VARLOCATION=([7,8]=cellcentered)
0.000000e+00
1.250000e+01
2.500000e+01
3.750000e+01
5.000000e+01
6.250000e+01
7.500000e+01
8.750000e+01
1.000000e+02
1.125000e+02
1.250000e+02
1.375000e+02
1.500000e+02
1.625000e+02
1.750000e+02
1.875000e+02
2.000000e+02
0.000000e+00
1.250000e+01
2.500000e+01
3.750000e+01
5.000000e+01
6.250000e+01
7.500000e+01
8.750000e+01
1.000000e+02
1.125000e+02
1.250000e+02
1.375000e+02
1.500000e+02
1.625000e+02
1.750000e+02
1.875000e+02
2.000000e+02
0.000000e+00
1.250000e+01
2.500000e+01
3.750000e+01
5.000000e+01
6.250000e+01
7.500000e+01
8.750000e+01
1.000000e+02
1.125000e+02
1.250000e+02
1.375000e+02
1.500000e+02
1.625000e+02
1.750000e+02
1.875000e+02
2.000000e+02
0.000000e+00
1.250000e+01
2.500000e+01
3.750000e+01
5.000000e+01
6.250000e+01
7.500000e+01
8.750000e+01
1.000000e+02
1.125000e+02
1.250000e+02
1.375000e+02
1.500000e+02
1.625000e+02
1.750000e+02
1.875000e+02
2.000000e+02
0.000000e+00
1.250000e+01
2.500000e+01
3.750000e+01
5.000000e+01
6.250000e+01
7.500000e+01
8.750000e+01
1.000000e+02
1.125000e+02
1.250000e+02
1.375000e+02
1.500000e+02
1.625000e+02
1.750000e+02
1.875000e+02
2.000000e+02
0.000000e+00
1.250000e+01
2.500000e+01
3.750000e+01
5.000000e+01
6.250000e+01
7.500000e+01
8.750000e+01
1.000000e+02
1.125000e+02
1.250000e+02
1.375000e+02
1.500000e+02
1.625000e+02
1.750000e+02
1.875000e+02
2.000000e+02
0.000000e+00
1.250000e+01
2.500000e+01
3.750000e+01
5.000000e+01
6.250000e+01
7.500000e+01
8.750000e+01
1.000000e+02
1.125000e+02
1.250000e+02
1.375000e+02
1.500000e+02
1.625000e+02
1.750000e+02
1.875000e+02
2.000000e+02
0.000000e+00
1.250000e+01
2.500000e+01
3.750000e+01
5.000000e+01
6.250000e+01
7.500000e+01
8.750000e+01
1.000000e+02
1.125000e+02
1.250000e+02
1.375000e+02
1.500000e+02
1.625000e+02
1.750000e+02
1.875000e+02
2.000000e+02
0.000000e+00
1.250000e+01
2.500000e+01
3.750000e+01
5.000000e+01
6.250000e+01
7.500000e+01
8.750000e+01
1.000000e+02
1.125000e+02
1.250000e+02
1.375000e+02
1.500000e+02
1.625000e+02
1.750000e+02
1.875000e+02
2.000000e+02
0.000000e+00
0.000000e+00
0.000000e+00
0.000000e+00
0.000000e+00
0.000000e+00
0.000000e+00
0.000000e+00
0.000000e+00
0.000000e+00
0.000000e+00
0.000000e+00
0.000000e+00
0.000000e+00
0.000000e+00
0.000000e+00
0.000000e+00
1.250000e+01
1.250000e+01
1.250000e+01
1.250000e+01
1.250000e+01
1.250000e+01
1.250000e+01
1.250000e+01
1.250000e+01
1.250000e+01
1.250000e+01
1.250000e+01
1.250000e+01
1.250000e+01
1.250000e+01
1.250000e+01
1.250000e+01
2.500000e+01
2.500000e+01
2.500000e+01
2.500000e+01
2.500000e+01
2.500000e+01
2.500000e+01
2.500000e+01
2.500000e+01
2.500000e+01
2.500000e+01
2.500000e+01
2.500000e+01
2.500000e+01
2.500000e+01
2.500000e+01
2.500000e+01
3.750000e+01
3.750000e+01
3.750000e+01
3.750000e+01
3.750000e+01
3.750000e+01
3.750000e+01
3.750000e+01
3.750000e+01
3.750000e+01
3.750000e+01
3.750000e+01
3.750000e+01
3.750000e+01
3.750000e+01
3.750000e+01
3.750000e+01
5.000000e+01
5.000000e+01
5.000000e+01
5.000000e+01
5.000000e+01
5.000000e+01
5.000000e+01
5.000000e+01
5.000000e+01
5.000000e+01
5.000000e+01
5.000000e+01
5.000000e+01
5.000000e+01
5.000000e+01
5.000000e+01
5.000000e+01
6.250000e+01
6.250000e+01
6.250000e+01
6.250000e+01
6.250000e+01
6.250000e+01
6.250000e+01
6.250000e+01
6.250000e+01
6.250000e+01
6.250000e+01
6.250000e+01
6.250000e+01
6.250000e+01
6.250000e+01
6.250000e+01
6.250000e+01
7.500000e+01
7.500000e+01
7.500000e+01
7.500000e+01
7.500000e+01
7.500000e+01
7.500000e+01
7.500000e+01
7.500000e+01
7.500000e+01
7.500000e+01
7.500000e+01
7.500000e+01
7.500000e+01
7.500000e+01
7.500000e+01
7.500000e+01
8.750000e+01
8.750000e+01
8.750000e+01
8.750000e+01
8.750000e+01
8.750000e+01
8.750000e+01
8.750000e+01
8.750000e+01
8.750000e+01
8.750000e+01
8.750000e+01
8.750000e+01
8.750000e+01
8.750000e+01
8.750000e+01
8.750000e+01
1.000000e+02
1.000000e+02
1.000000e+02
1.000000e+02
1.000000e+02
1.000000e+02
1.000000e+02
1.000000e+02
1.000000e+02
1.000000e+02
1.000000e+02
1.000000e+02
1.000000e+02
1.000000e+02
1.000000e+02
1.000000e+02
1.000000e+02
0.000000e+00
-9.959634e-01
-1.796219e+00
-2.541064e+00
-3.299993e+00
-4.067484e+00
-4.829834e+00
-5.586034e+00
-6.356339e+00
-7.228182e+00
-8.243106e+00
-9.127351e+00
-9.837591e+00
-1.058842e+01
-1.139936e+01
-1.215863e+01
-1.263022e+01
0.000000e+00
-5.520577e-01
-1.136886e+00
-1.690969e+00
-2.248487e+00
-2.805198e+00
-3.358031e+00
-3.901359e+00
-4.456058e+00
-5.089953e+00
-5.840306e+00
-6.487651e+00
-6.979964e+00
-7.415278e+00
-7.744173e+00
-7.813016e+00
-7.978461e+00
0.000000e+00
-3.000329e-01
-6.308664e-01
-9.868913e-01
-1.345292e+00
-1.699904e+00
-2.056948e+00
-2.419485e+00
-2.799477e+00
-3.225709e+00
-3.679066e+00
-4.046432e+00
-4.303912e+00
-4.455212e+00
-4.465386e+00
-4.411743e+00
-4.604699e+00
0.000000e+00
-1.246219e-01
-2.773107e-01
-4.466381e-01
-6.164594e-01
-7.807177e-01
-9.454872e-01
-1.121898e+00
-1.314697e+00
-1.520665e+00
-1.698603e+00
-1.818058e+00
-1.871138e+00
-1.852402e+00
-1.780502e+00
-1.777283e+00
-1.945558e+00
0.000000e+00
-3.296881e-03
-4.379548e-03
-7.791651e-04
8.619074e-03
2.326847e-02
4.321072e-02
6.797963e-02
9.735760e-02
1.362817e-01
1.890943e-01
2.614747e-01
3.587526e-01
4.690582e-01
5.537806e-01
5.411309e-01
4.242053e-01
0.000000e+00
1.225669e-01
2.718955e-01
4.398517e-01
6.166009e-01
8.004670e-01
9.989570e-01
1.229224e+00
1.497732e+00
1.794901e+00
2.066818e+00
2.293865e+00
2.496380e+00
2.677778e+00
2.794920e+00
2.804637e+00
2.745552e+00
0.000000e+00
3.023773e-01
6.287085e-01
9.725983e-01
1.317112e+00
1.665821e+00
2.036775e+00
2.449258e+00
2.922964e+00
3.461800e+00
3.979575e+00
4.376828e+00
4.678822e+00
4.911040e+00
5.064833e+00
5.113465e+00
5.100824e+00
0.000000e+00
5.570558e-01
1.138045e+00
1.674926e+00
2.204163e+00
2.734185e+00
3.283229e+00
3.868603e+00
4.520687e+00
5.262271e+00
6.012827e+00
6.608774e+00
7.038071e+00
7.334783e+00
7.512003e+00
7.582134e+00
7.595281e+00
0.000000e+00
1.005414e+00
1.800905e+00
2.526035e+00
3.250399e+00
3.984894e+00
4.745584e+00
5.554410e+00
6.433358e+00
7.405320e+00
8.350758e+00
9.124038e+00
9.675425e+00
1.002319e+01
1.017712e+01
1.020038e+01
1.019557e+01
0.000000e+00
-6.076399e-01
-1.240098e+00
-2.069780e+00
-3.092144e+00
-4.321277e+00
-5.769492e+00
-7.446530e+00
-9.370738e+00
-1.157603e+01
-1.404189e+01
-1.666455e+01
-1.947182e+01
-2.251981e+01
-2.587602e+01
-2.978308e+01
-3.534847e+01
0.000000e+00
-3.821040e-01
-1.048253e+00
-1.875699e+00
-2.894679e+00
-4.121908e+00
-5.571933e+00
-7.249571e+00
-9.161549e+00
-1.133447e+01
-1.379999e+01
-1.647107e+01
-1.930274e+01
-2.235494e+01
-2.574324e+01
-2.966615e+01
-3.439064e+01
0.000000e+00
-3.086180e-01
-9.246825e-01
-1.747655e+00
-2.761058e+00
-3.982016e+00
-5.427834e+00
-7.105157e+00
-9.013250e+00
-1.118864e+01
-1.366848e+01
-1.636463e+01
-1.922527e+01
-2.230987e+01
-2.572409e+01
-2.944841e+01
-3.292236e+01
0.000000e+00
-3.018829e-01
-8.824746e-01
-1.685625e+00
-2.689578e+00
-3.899696e+00
-5.332185e+00
-7.006089e+00
-8.927768e+00
-1.113978e+01
-1.363796e+01
-1.634356e+01
-1.922248e+01
-2.231442e+01
-2.564936e+01
-2.899859e+01
-3.188004e+01
0.000000e+00
-3.119489e-01
-8.805668e-01
-1.674837e+00
-2.672367e+00
-3.875801e+00
-5.297330e+00
-6.967622e+00
-8.908941e+00
-1.115750e+01
-1.367431e+01
-1.637886e+01
-1.925510e+01
-2.231114e+01
-2.551002e+01
-2.857144e+01
-3.117744e+01
0.000000e+00
-3.066028e-01
-8.928682e-01
-1.698968e+00
-2.703345e+00
-3.909681e+00
-5.334093e+00
-7.008429e+00
-8.955347e+00
-1.121778e+01
-1.374643e+01
-1.644888e+01
-1.930529e+01
-2.230777e+01
-2.538127e+01
-2.828108e+01
-3.081749e+01
0.000000e+00
-3.150637e-01
-9.387045e-01
-1.766985e+00
-2.781827e+00
-3.998171e+00
-5.436435e+00
-7.119381e+00
-9.069831e+00
-1.132572e+01
-1.385186e+01
-1.654566e+01
-1.938053e+01
-2.233029e+01
-2.529902e+01
-2.810024e+01
-3.065580e+01
0.000000e+00
-3.883233e-01
-1.060778e+00
-1.892351e+00
-2.912532e+00
-4.137094e+00
-5.587191e+00
-7.283299e+00
-9.248708e+00
-1.150346e+01
-1.400951e+01
-1.667783e+01
-1.948451e+01
-2.238653e+01
-2.527836e+01
-2.802711e+01
-3.063134e+01
0.000000e+00
-6.143940e-01
-1.249419e+00
-2.079360e+00
-3.100708e+00
-4.330876e+00
-5.790777e+00
-7.503141e+00
-9.491518e+00
-1.176014e+01
-1.423582e+01
-1.685444e+01
-1.960985e+01
-2.245798e+01
-2.529380e+01
-2.801392e+01
-3.063615e+01


0.000000e+00
2.455028e-05
4.330039e-05
5.479556e-05
6.287017e-05
7.045048e-05
7.851088e-05
8.574052e-05
9.101897e-05
9.358696e-05
9.171387e-05
8.632947e-05
8.077918e-05
7.591784e-05
7.299182e-05
7.255117e-05
7.333242e-05
0.000000e+00
1.892383e-05
3.599522e-05
4.373125e-05
4.886823e-05
5.447380e-05
6.121929e-05
6.756807e-05
7.231163e-05
7.461962e-05
7.238228e-05
6.688344e-05
6.163769e-05
5.689253e-05
5.313564e-05
5.225979e-05
5.324403e-05
0.000000e+00
1.326238e-05
2.423388e-05
2.974177e-05
3.383833e-05
3.791059e-05
4.254919e-05
4.676890e-05
4.957468e-05
5.012858e-05
4.753121e-05
4.340161e-05
3.963783e-05
3.647290e-05
3.411390e-05
3.372140e-05
3.483435e-05
0.000000e+00
5.774400e-06
9.692046e-06
1.325392e-05
1.560060e-05
1.750914e-05
1.942680e-05
2.106645e-05
2.164049e-05
2.088569e-05
1.904629e-05
1.707692e-05
1.549811e-05
1.447276e-05
1.402687e-05
1.418938e-05
1.462587e-05
0.000000e+00
-1.097339e-06
-2.336125e-06
-3.565307e-06
-4.800280e-06
-5.959309e-06
-6.871901e-06
-8.248994e-06
-9.067903e-06
-9.817726e-06
-9.906759e-06
-9.614756e-06
-9.189488e-06
-8.641847e-06
-8.187887e-06
-8.347266e-06
-8.887051e-06
0.000000e+00
-8.880975e-06
-1.486722e-05
-2.057675e-05
-2.466675e-05
-2.828694e-05
-3.330641e-05
-3.929301e-05
-4.245667e-05
-4.106852e-05
-3.833528e-05
-3.564873e-05
-3.361793e-05
-3.202157e-05
-3.124007e-05
-3.152043e-05
-3.223602e-05
0.000000e+00
-1.831345e-05
-3.202538e-05
-3.769666e-05
-4.186544e-05
-4.616483e-05
-5.420261e-05
-6.542934e-05
-7.266753e-05
-7.176322e-05
-6.631693e-05
-6.130665e-05
-5.828717e-05
-5.636113e-05
-5.503080e-05
-5.482289e-05
-5.514542e-05
0.000000e+00
-2.520467e-05
-4.549401e-05
-5.226316e-05
-5.625569e-05
-6.132250e-05
-7.027477e-05
-8.282427e-05
-9.295855e-05
-9.566498e-05
-9.140832e-05
-8.573746e-05
-8.233706e-05
-8.010680e-05
-7.824790e-05
-7.738725e-05
-7.721384e-05
0.000000e+00
-3.061612e-05
-5.180247e-05
-6.279257e-05
-7.009088e-05
-7.756088e-05
-8.762072e-05
-9.833554e-05
-1.074315e-04
-1.114619e-04
-1.108479e-04
-1.073896e-04
-1.044337e-04
-1.016242e-04
-9.929929e-05
-9.825315e-05
-9.799013e-05
0.000000e+00
2.004756e-05
3.031398e-05
4.101273e-05
5.566434e-05
7.359814e-05
9.342028e-05
1.138365e-04
1.341709e-04
1.531148e-04
1.692256e-04
1.849557e-04
2.013268e-04
2.169657e-04
2.340449e-04
2.554958e-04
2.781858e-04
0.000000e+00
1.057008e-05
2.413759e-05
3.718262e-05
5.249085e-05
6.999984e-05
8.962476e-05
1.106133e-04
1.320112e-04
1.526173e-04
1.708309e-04
1.874979e-04
2.038429e-04
2.192714e-04
2.347720e-04
2.543292e-04
2.763194e-04
0.000000e+00
4.960786e-06
1.877473e-05
3.417868e-05
5.002793e-05
6.738322e-05
8.691951e-05
1.084532e-04
1.309780e-04
1.529829e-04
1.724861e-04
1.897671e-04
2.061227e-04
2.213624e-04
2.351812e-04
2.523885e-04
2.734904e-04
0.000000e+00
3.423861e-06
1.613362e-05
3.215411e-05
4.870221e-05
6.631989e-05
8.598295e-05
1.081068e-04
1.315370e-04
1.539319e-04
1.735566e-04
1.908329e-04
2.071775e-04
2.226165e-04
2.361386e-04
2.513967e-04
2.713643e-04
0.000000e+00
3.401658e-06
1.580776e-05
3.184055e-05
4.869779e-05
6.609083e-05
8.541219e-05
1.082269e-04
1.324586e-04
1.546926e-04
1.736632e-04
1.907247e-04
2.072130e-04
2.233310e-04
2.380193e-04
2.530963e-04
2.719131e-04
0.000000e+00
3.503800e-06
1.743434e-05
3.390034e-05
5.009017e-05
6.644037e-05
8.526853e-05
1.084296e-04
1.331404e-04
1.547474e-04
1.729001e-04
1.897658e-04
2.067596e-04
2.236440e-04
2.395473e-04
2.555058e-04
2.738951e-04
0.000000e+00
5.589851e-06
2.119817e-05
3.688860e-05
5.202814e-05
6.820151e-05
8.762635e-05
1.109888e-04
1.342266e-04
1.539282e-04
1.711703e-04
1.881376e-04
2.059577e-04
2.234626e-04
2.400135e-04
2.570704e-04
2.759540e-04
0.000000e+00
1.289604e-05
2.748448e-05
3.983422e-05
5.447779e-05
7.167994e-05
9.300728e-05
1.164455e-04
1.370717e-04
1.535665e-04
1.688459e-04
1.859543e-04
2.046878e-04
2.227186e-04
2.397598e-04
2.576686e-04
2.770164e-04
0.000000e+00
2.480430e-05
3.417137e-05
4.335779e-05
5.742987e-05
7.579512e-05
9.870683e-05
1.220402e-04
1.408353e-04
1.540134e-04
1.671116e-04
1.839220e-04
2.033528e-04
2.216780e-04
2.392490e-04
2.577249e-04
2.772509e-04


2.578716e+00
2.499088e+00
2.523632e+00
2.753587e+00
2.984177e+00
3.222415e+00
3.583649e+00
4.209794e+00
5.956800e+00
7.940043e+00
7.927585e+00
7.076411e+00
7.473626e+00
7.426323e+00
5.965617e+00
4.646862e+00
3.287871e+00
3.327314e+00
3.408226e+00
3.603334e+00
3.872855e+00
4.373012e+00
4.689005e+00
5.303185e+00
6.634709e+00
8.043063e+00
7.840815e+00
7.116719e+00
7.313849e+00
7.587412e+00
6.411288e+00
5.137175e+00
4.950068e+00
5.038631e+00
4.843895e+00
4.770058e+00
5.060827e+00
5.670753e+00
6.387721e+00
6.888155e+00
7.717515e+00
8.166282e+00
7.770792e+00
7.214200e+00
7.320677e+00
7.825815e+00
7.626124e+00
6.701213e+00
6.647927e+00
6.350356e+00
5.592677e+00
5.138642e+00
5.281951e+00
6.023728e+00
7.066640e+00
7.966161e+00
8.353326e+00
7.999381e+00
7.466764e+00
7.209453e+00
7.474964e+00
8.141361e+00
8.367195e+00
7.822802e+00
6.577642e+00
6.190880e+00
5.465121e+00
5.105533e+00
5.383959e+00
6.184429e+00
7.331944e+00
8.215253e+00
8.508491e+00
7.890255e+00
7.070617e+00
7.173304e+00
7.706960e+00
8.425322e+00
8.472935e+00
7.606229e+00
4.858483e+00
4.848482e+00
4.638724e+00
4.717731e+00
5.197125e+00
6.013479e+00
6.919239e+00
7.712327e+00
8.474476e+00
8.180301e+00
7.250066e+00
7.095866e+00
7.874729e+00
8.455683e+00
8.113481e+00
7.461268e+00
3.328883e+00
3.288347e+00
3.321273e+00
3.514673e+00
3.897292e+00
4.594020e+00
5.307221e+00
6.461305e+00
7.764703e+00
8.408531e+00
7.764849e+00
7.384776e+00
7.466120e+00
7.557733e+00
7.096810e+00
6.448859e+00
2.599372e+00
2.477255e+00
2.443319e+00
2.630588e+00
2.904356e+00
3.360198e+00
4.119627e+00
5.339353e+00
7.059669e+00
8.093629e+00
8.100109e+00
7.546080e+00
7.107991e+00
6.691304e+00
5.903567e+00
5.084870e+00


-1.108512e+00
-6.869322e-01
-4.763291e-01
-5.155158e-01
-5.351423e-01
-5.183848e-01
-4.886318e-01
-5.582041e-01
-1.019071e+00
-1.744052e+00
-1.054178e+00
-2.683344e-01
-2.179112e-01
-1.167906e-01
3.909386e-01
-8.637956e-01
3.249791e-01
1.856253e-01
2.105915e-01
2.038085e-01
2.017535e-01
1.822662e-01
1.526423e-01
5.481768e-02
-2.344986e-01
-5.565085e-01
-1.008766e-01
3.928173e-01
6.129567e-01
7.807223e-01
5.919723e-01
-2.182434e+00
7.772495e-01
6.341130e-01
5.606253e-01
5.450206e-01
5.287943e-01
4.803691e-01
3.960752e-01
2.871667e-01
1.082415e-01
2.353807e-02
2.536189e-01
4.706410e-01
4.821105e-01
1.665320e-01
-4.244110e-01
-1.332196e+00
8.923966e-01
7.598117e-01
6.788420e-01
6.437291e-01
6.060201e-01
5.452208e-01
4.524643e-01
3.613762e-01
2.282143e-01
1.480019e-01
1.886278e-01
1.868612e-01
3.833742e-04
-4.034373e-01
-4.608636e-01
-3.379471e-01
8.942399e-01
7.627657e-01
6.734261e-01
6.185479e-01
5.594110e-01
4.790975e-01
3.606127e-01
2.425806e-01
8.577982e-02
2.234156e-02
4.742330e-02
-2.651201e-02
-2.042425e-01
-3.355384e-01
3.395246e-02
5.158774e-01
7.748146e-01
6.372716e-01
5.637889e-01
5.263879e-01
4.676047e-01
3.569232e-01
1.674481e-01
-8.675076e-02
-3.867326e-01
-3.778108e-01
-1.015481e-01
-1.205067e-02
-5.814699e-02
1.846067e-02
4.509438e-01
8.302871e-01
3.111688e-01
1.952221e-01
2.520029e-01
2.601773e-01
2.341850e-01
1.305512e-01
-7.009752e-02
-4.185454e-01
-8.937243e-01
-9.363812e-01
-3.214228e-01
1.027123e-01
3.143705e-01
5.306354e-01
8.242260e-01
9.771285e-01
-1.149213e+00
-6.663173e-01
-3.943895e-01
-3.765743e-01
-4.038003e-01
-5.115450e-01
-7.222382e-01
-1.092708e+00
-1.632951e+00
-1.586389e+00
-7.018081e-01
9.444033e-02
5.676971e-01
8.518139e-01
9.794682e-01
9.998516e-01
1 2 19 18
2 3 20 19
3 4 21 20
4 5 22 21
5 6 23 22
6 7 24 23
7 8 25 24
8 9 26 25
9 10 27 26
10 11 28 27
11 12 29 28
12 13 30 29
13 14 31 30
14 15 32 31
15 16 33 32
16 17 34 33
18 19 36 35
19 20 37 36
20 21 38 37
21 22 39 38
22 23 40 39
23 24 41 40
24 25 42 41
25 26 43 42
26 27 44 43
27 28 45 44
28 29 46 45
29 30 47 46
30 31 48 47
31 32 49 48
32 33 50 49
33 34 51 50
35 36 53 52
36 37 54 53
37 38 55 54
38 39 56 55
39 40 57 56
40 41 58 57
41 42 59 58
42 43 60 59
43 44 61 60
44 45 62 61
45 46 63 62
46 47 64 63
47 48 65 64
48 49 66 65
49 50 67 66
50 51 68 67
52 53 70 69
53 54 71 70
54 55 72 71
55 56 73 72
56 57 74 73
57 58 75 74
58 59 76 75
59 60 77 76
60 61 78 77
61 62 79 78
62 63 80 79
63 64 81 80
64 65 82 81
65 66 83 82
66 67 84 83
67 68 85 84
69 70 87 86
70 71 88 87
71 72 89 88
72 73 90 89
73 74 91 90
74 75 92 91
75 76 93 92
76 77 94 93
77 78 95 94
78 79 96 95
79 80 97 96
80 81 98 97
81 82 99 98
82 83 100 99
83 84 101 100
84 85 102 101
86 87 104 103
87 88 105 104
88 89 106 105
89 90 107 106
90 91 108 107
91 92 109 108
92 93 110 109
93 94 111 110
94 95 112 111
95 96 113 112
96 97 114 113
97 98 115 114
98 99 116 115
99 100 117 116
100 101 118 117
101 102 119 118
103 104 121 120
104 105 122 121
105 106 123 122
106 107 124 123
107 108 125 124
108 109 126 125
109 110 127 126
110 111 128 127
111 112 129 128
112 113 130 129
113 114 131 130
114 115 132 131
115 116 133 132
116 117 134 133
117 118 135 134
118 119 136 135
120 121 138 137
121 122 139 138
122 123 140 139
123 124 141 140
124 125 142 141
125 126 143 142
126 127 144 143
127 128 145 144
128 129 146 145
129 130 147 146
130 131 148 147
131 132 149 148
132 133 150 149
133 134 151 150
134 135 152 151
135 136 153 152
