TITLE = "Solution"
VARIABLES = x, y, u, v, psiu, psiv, t, stress
ZONE T="structure" N=153 E=128 F=FEBLOCK ET=QUADRILATERAL VARLOCATION=([7,8]=cellcentered)
0.000000e+00
1.250000e+01
2.500000e+01
3.750000e+01
5.000000e+01
6.250000e+01
7.500000e+01
8.750000e+01
1.000000e+02
1.125000e+02
1.250000e+02
1.375000e+02
1.500000e+02
1.625000e+02
1.750000e+02
1.875000e+02
2.000000e+02
0.000000e+00
1.250000e+01
2.500000e+01
3.750000e+01
5.000000e+01
6.250000e+01
7.500000e+01
8.750000e+01
1.000000e+02
1.125000e+02
1.250000e+02
1.375000e+02
1.500000e+02
1.625000e+02
1.750000e+02
1.875000e+02
2.000000e+02
0.000000e+00
1.250000e+01
2.500000e+01
3.750000e+01
5.000000e+01
6.250000e+01
7.500000e+01
8.750000e+01
1.000000e+02
1.125000e+02
1.250000e+02
1.375000e+02
1.500000e+02
1.625000e+02
1.750000e+02
1.875000e+02
2.000000e+02
0.000000e+00
1.250000e+01
2.500000e+01
3.750000e+01
5.000000e+01
6.250000e+01
7.500000e+01
8.750000e+01
1.000000e+02
1.125000e+02
1.250000e+02
1.375000e+02
1.500000e+02
1.625000e+02
1.750000e+02
1.875000e+02
2.000000e+02
0.000000e+00
1.250000e+01
2.500000e+01
3.750000e+01
5.000000e+01
6.250000e+01
7.500000e+01
8.750000e+01
1.000000e+02
1.125000e+02
1.250000e+02
1.375000e+02
1.500000e+02
1.625000e+02
1.750000e+02
1.875000e+02
2.000000e+02
0.000000e+00
1.250000e+01
2.500000e+01
3.750000e+01
5.000000e+01
6.250000e+01
7.500000e+01
8.750000e+01
1.000000e+02
1.125000e+02
1.250000e+02
1.375000e+02
1.500000e+02
1.625000e+02
1.750000e+02
1.875000e+02
2.000000e+02
0.000000e+00
1.250000e+01
2.500000e+01
3.750000e+01
5.000000e+01
6.250000e+01
7.500000e+01
8.750000e+01
1.000000e+02
1.125000e+02
1.250000e+02
1.375000e+02
1.500000e+02
1.625000e+02
1.750000e+02
1.875000e+02
2.000000e+02
0.000000e+00
1.250000e+01
2.500000e+01
3.750000e+01
5.000000e+01
6.250000e+01
7.500000e+01
8.750000e+01
1.000000e+02
1.125000e+02
1.250000e+02
1.375000e+02
1.500000e+02
1.625000e+02
1.750000e+02
1.875000e+02
2.000000e+02
0.000000e+00
1.250000e+01
2.500000e+01
3.750000e+01
5.000000e+01
6.250000e+01
7.500000e+01
8.750000e+01
1.000000e+02
1.125000e+02
1.250000e+02
1.375000e+02
1.500000e+02
1.625000e+02
1.750000e+02
1.875000e+02
2.000000e+02
0.000000e+00
0.000000e+00
0.000000e+00
0.000000e+00
0.000000e+00
0.000000e+00
0.000000e+00
0.000000e+00
0.000000e+00
0.000000e+00
0.000000e+00
0.000000e+00
0.000000e+00
0.000000e+00
0.000000e+00
0.000000e+00
0.000000e+00
1.250000e+01
1.250000e+01
1.250000e+01
1.250000e+01
1.250000e+01
1.250000e+01
1.250000e+01
1.250000e+01
1.250000e+01
1.250000e+01
1.250000e+01
1.250000e+01
1.250000e+01
1.250000e+01
1.250000e+01
1.250000e+01
1.250000e+01
2.500000e+01
2.500000e+01
2.500000e+01
2.500000e+01
2.500000e+01
2.500000e+01
2.500000e+01
2.500000e+01
2.500000e+01
2.500000e+01
2.500000e+01
2.500000e+01
2.500000e+01
2.500000e+01
2.500000e+01
2.500000e+01
2.500000e+01
3.750000e+01
3.750000e+01
3.750000e+01
3.750000e+01
3.750000e+01
3.750000e+01
3.750000e+01
3.750000e+01
3.750000e+01
3.750000e+01
3.750000e+01
3.750000e+01
3.750000e+01
3.750000e+01
3.750000e+01
3.750000e+01
3.750000e+01
5.000000e+01
5.000000e+01
5.000000e+01
5.000000e+01
5.000000e+01
5.000000e+01
5.000000e+01
5.000000e+01
5.000000e+01
5.000000e+01
5.000000e+01
5.000000e+01
5.000000e+01
5.000000e+01
5.000000e+01
5.000000e+01
5.000000e+01
6.250000e+01
6.250000e+01
6.250000e+01
6.250000e+01
6.250000e+01
6.250000e+01
6.250000e+01
6.250000e+01
6.250000e+01
6.250000e+01
6.250000e+01
6.250000e+01
6.250000e+01
6.250000e+01
6.250000e+01
6.250000e+01
6.250000e+01
7.500000e+01
7.500000e+01
7.500000e+01
7.500000e+01
7.500000e+01
7.500000e+01
7.500000e+01
7.500000e+01
7.500000e+01
7.500000e+01
7.500000e+01
7.500000e+01
7.500000e+01
7.500000e+01
7.500000e+01
7.500000e+01
7.500000e+01
8.750000e+01
8.750000e+01
8.750000e+01
8.750000e+01
8.750000e+01
8.750000e+01
8.750000e+01
8.750000e+01
8.750000e+01
8.750000e+01
8.750000e+01
8.750000e+01
8.750000e+01
8.750000e+01
8.750000e+01
8.750000e+01
8.750000e+01
1.000000e+02
1.000000e+02
1.000000e+02
1.000000e+02
1.000000e+02
1.000000e+02
1.000000e+02
1.000000e+02
1.000000e+02
1.000000e+02
1.000000e+02
1.000000e+02
1.000000e+02
1.000000e+02
1.000000e+02
1.000000e+02
1.000000e+02
0.000000e+00
-9.178804e-01
-1.604840e+00
-2.306444e+00
-2.993318e+00
-3.651379e+00
-4.326159e+00
-4.994271e+00
-5.654887e+00
-6.319004e+00
-6.983603e+00
-7.665918e+00
-8.382405e+00
-9.120214e+00
-9.864164e+00
-1.055507e+01
-1.100221e+01
0.000000e+00
-4.524757e-01
-9.363531e-01
-1.438970e+00
-1.955817e+00
-2.447915e+00
-2.952543e+00
-3.455451e+00
-3.951030e+00
-4.447425e+00
-4.940376e+00
-5.435204e+00
-5.933049e+00
-6.398682e+00
-6.734333e+00
-6.818914e+00
-6.984654e+00
0.000000e+00
-2.048742e-01
-4.532528e-01
-7.631622e-01
-1.102221e+00
-1.433435e+00
-1.776527e+00
-2.118701e+00
-2.456093e+00
-2.790244e+00
-3.113058e+00
-3.415593e+00
-3.678772e+00
-3.862442e+00
-3.914022e+00
-3.891247e+00
-4.044091e+00
0.000000e+00
-8.988395e-02
-1.932617e-01
-3.368739e-01
-4.909642e-01
-6.589489e-01
-8.303845e-01
-9.997588e-01
-1.165893e+00
-1.323291e+00
-1.463259e+00
-1.571558e+00
-1.628417e+00
-1.616699e+00
-1.553749e+00
-1.551504e+00
-1.681455e+00
0.000000e+00
-1.494199e-03
-2.995433e-03
-4.216449e-03
-4.719479e-03
-3.765127e-03
-2.731912e-04
7.601874e-03
2.249174e-02
4.778284e-02
8.911771e-02
1.545775e-01
2.497805e-01
3.669089e-01
4.632401e-01
4.716850e-01
3.684016e-01
0.000000e+00
8.733210e-02
1.882435e-01
3.295258e-01
4.824295e-01
6.514479e-01
8.280821e-01
1.010089e+00
1.200364e+00
1.399680e+00
1.608801e+00
1.824213e+00
2.035115e+00
2.219217e+00
2.339487e+00
2.362248e+00
2.302573e+00
0.000000e+00
2.037044e-01
4.507980e-01
7.593474e-01
1.097218e+00
1.427784e+00
1.772200e+00
2.119400e+00
2.465696e+00
2.816792e+00
3.171517e+00
3.518635e+00
3.831363e+00
4.078612e+00
4.234351e+00
4.287598e+00
4.273176e+00
0.000000e+00
4.526332e-01
9.362509e-01
1.438514e+00
1.954935e+00
2.445248e+00
2.947453e+00
3.447931e+00
3.935033e+00
4.417911e+00
4.899587e+00
5.365115e+00
5.771702e+00
6.076926e+00
6.265119e+00
6.346568e+00
6.361652e+00
0.000000e+00
9.190478e-01
1.606960e+00
2.309870e+00
2.998344e+00
3.656271e+00
4.329293e+00
4.994147e+00
5.640617e+00
6.278843e+00
6.910895e+00
7.510139e+00
8.009900e+00
8.349953e+00
8.519268e+00
8.561230e+00
8.560140e+00
0.000000e+00
-5.702296e-01
-1.220880e+00
-2.086494e+00
-3.120795e+00
-4.322501e+00
-5.703871e+00
-7.255845e+00
-8.980448e+00
-1.088064e+01
-1.295598e+01
-1.521504e+01
-1.766759e+01
-2.031824e+01
-2.320481e+01
-2.653152e+01
-3.144265e+01
0.000000e+00
-3.711402e-01
-1.053120e+00
-1.905562e+00
-2.946569e+00
-4.148339e+00
-5.527823e+00
-7.082258e+00
-8.807784e+00
-1.070880e+01
-1.278447e+01
-1.504072e+01
-1.749281e+01
-2.015991e+01
-2.308662e+01
-2.643302e+01
-3.047251e+01
0.000000e+00
-3.266346e-01
-9.483541e-01
-1.792605e+00
-2.824885e+00
-4.025087e+00
-5.404392e+00
-6.959636e+00
-8.688038e+00
-1.059366e+01
-1.267661e+01
-1.494398e+01
-1.741333e+01
-2.011338e+01
-2.307875e+01
-2.625957e+01
-2.924258e+01
0.000000e+00
-3.505147e-01
-9.250143e-01
-1.745164e+00
-2.758231e+00
-3.955662e+00
-5.335023e+00
-6.891673e+00
-8.625604e+00
-1.053992e+01
-1.263776e+01
-1.492626e+01
-1.741610e+01
-2.012114e+01
-2.302575e+01
-2.593228e+01
-2.846569e+01
0.000000e+00
-3.599699e-01
-9.292753e-01
-1.732838e+00
-2.741542e+00
-3.937202e+00
-5.318808e+00
-6.879892e+00
-8.620329e+00
-1.054377e+01
-1.265601e+01
-1.496151e+01
-1.745653e+01
-2.012483e+01
-2.289615e+01
-2.557994e+01
-2.787003e+01
0.000000e+00
-3.504208e-01
-9.257996e-01
-1.747832e+00
-2.764304e+00
-3.966564e+00
-5.352863e+00
-6.920041e+00
-8.666340e+00
-1.059453e+01
-1.271282e+01
-1.502323e+01
-1.750695e+01
-2.011782e+01
-2.276349e+01
-2.528601e+01
-2.747096e+01
0.000000e+00
-3.265891e-01
-9.497073e-01
-1.796918e+00
-2.834672e+00
-4.042848e+00
-5.433664e+00
-7.006168e+00
-8.755109e+00
-1.068395e+01
-1.280051e+01
-1.510563e+01
-1.756936e+01
-2.012566e+01
-2.267726e+01
-2.510262e+01
-2.728295e+01
0.000000e+00
-3.711581e-01
-1.054585e+00
-1.910264e+00
-2.957233e+00
-4.167974e+00
-5.560621e+00
-7.133932e+00
-8.882288e+00
-1.081019e+01
-1.292296e+01
-1.521733e+01
-1.765664e+01
-2.016733e+01
-2.265460e+01
-2.502424e+01
-2.723846e+01
0.000000e+00
-5.704659e-01
-1.222516e+00
-2.091499e+00
-3.131613e+00
-4.342077e+00
-5.736708e+00
-7.306445e+00
-9.051588e+00
-1.097803e+01
-1.308713e+01
-1.536613e+01
-1.777200e+01
-2.023580e+01
-2.267393e+01
-2.500968e+01
-2.723944e+01


0.000000e+00
1.399485e-05
2.438626e-05
3.611746e-05
5.066257e-05
6.385748e-05
7.687647e-05
9.055673e-05
1.036252e-04
1.162194e-04
1.290845e-04
1.417809e-04
1.517486e-04
1.580545e-04
1.621075e-04
1.656581e-04
1.698989e-04
0.000000e+00
1.031162e-05
1.952366e-05
2.814478e-05
3.989563e-05
5.022535e-05
5.964239e-05
7.003006e-05
7.988784e-05
8.889860e-05
9.817655e-05
1.069028e-04
1.124804e-04
1.138375e-04
1.137074e-04
1.166529e-04
1.214179e-04
0.000000e+00
8.282151e-06
1.474794e-05
2.056453e-05
2.868508e-05
3.552136e-05
4.166317e-05
4.843060e-05
5.462647e-05
6.004181e-05
6.514881e-05
6.926517e-05
7.115121e-05
7.071151e-05
7.049963e-05
7.323869e-05
7.792209e-05
0.000000e+00
4.340311e-06
6.997803e-06
1.061265e-05
1.431063e-05
1.741576e-05
2.068882e-05
2.378016e-05
2.647333e-05
2.876142e-05
3.027968e-05
3.091654e-05
3.074778e-05
3.067617e-05
3.152983e-05
3.438561e-05
3.874940e-05
0.000000e+00
-3.776476e-08
-8.700992e-08
-1.459355e-07
-2.167997e-07
-3.011119e-07
-3.983206e-07
-5.324205e-07
-7.473534e-07
-1.131651e-06
-1.890160e-06
-2.989696e-06
-4.152662e-06
-4.647970e-06
-3.766279e-06
-1.950690e-06
5.642969e-07
0.000000e+00
-4.403833e-06
-7.138093e-06
-1.085860e-05
-1.468747e-05
-1.791792e-05
-2.134782e-05
-2.463067e-05
-2.747986e-05
-3.010346e-05
-3.235881e-05
-3.417348e-05
-3.572714e-05
-3.678296e-05
-3.741164e-05
-3.758532e-05
-3.693903e-05
0.000000e+00
-8.297857e-06
-1.480190e-05
-2.070316e-05
-2.890409e-05
-3.582558e-05
-4.212552e-05
-4.892635e-05
-5.499091e-05
-6.041270e-05
-6.513516e-05
-6.810371e-05
-6.975846e-05
-7.111298e-05
-7.227789e-05
-7.311959e-05
-7.329998e-05
0.000000e+00
-1.029378e-05
-1.950030e-05
-2.814830e-05
-3.990523e-05
-5.022971e-05
-5.975194e-05
-7.010387e-05
-7.975433e-05
-8.901653e-05
-9.785238e-05
-1.039922e-04
-1.070225e-04
-1.087471e-04
-1.097885e-04
-1.102965e-04
-1.104432e-04
0.000000e+00
-1.398599e-05
-2.433632e-05
-3.601575e-05
-5.048266e-05
-6.354167e-05
-7.647180e-05
-9.002131e-05
-1.028271e-04
-1.156735e-04
-1.286000e-04
-1.387130e-04
-1.448739e-04
-1.477727e-04
-1.486223e-04
-1.486094e-04
-1.485254e-04
0.000000e+00
1.176918e-05
1.935059e-05
3.052457e-05
4.512390e-05
6.128070e-05
8.146614e-05
1.057048e-04
1.327588e-04
1.633500e-04
1.978428e-04
2.351934e-04
2.743398e-04
3.166011e-04
3.660716e-04
4.226384e-04
4.797906e-04
0.000000e+00
6.737509e-06
1.506600e-05
2.474427e-05
3.884582e-05
5.561653e-05
7.565356e-05
9.976831e-05
1.271993e-04
1.579226e-04
1.923974e-04
2.305186e-04
2.715813e-04
3.153030e-04
3.629532e-04
4.169470e-04
4.722897e-04
0.000000e+00
3.365429e-06
1.104910e-05
2.032165e-05
3.384448e-05
5.114624e-05
7.142226e-05
9.544783e-05
1.232536e-04
1.543108e-04
1.889755e-04
2.277288e-04
2.700881e-04
3.147174e-04
3.590990e-04
4.092636e-04
4.624461e-04
0.000000e+00
2.120477e-06
8.937799e-06
1.841198e-05
3.184468e-05
4.920956e-05
6.970488e-05
9.385655e-05
1.217997e-04
1.531919e-04
1.881339e-04
2.267895e-04
2.694152e-04
3.138803e-04
3.560578e-04
4.014569e-04
4.506357e-04
0.000000e+00
1.766517e-06
8.310607e-06
1.783657e-05
3.134492e-05
4.859630e-05
6.917267e-05
9.343377e-05
1.214139e-04
1.530255e-04
1.882187e-04
2.267378e-04
2.691316e-04
3.137012e-04
3.550118e-04
3.964230e-04
4.405133e-04
0.000000e+00
2.150757e-06
8.969921e-06
1.844006e-05
3.185501e-05
4.915652e-05
6.961343e-05
9.377136e-05
1.216842e-04
1.533171e-04
1.888496e-04
2.276919e-04
2.699633e-04
3.138239e-04
3.554881e-04
3.952036e-04
4.348240e-04
0.000000e+00
3.411052e-06
1.110118e-05
2.037649e-05
3.386982e-05
5.105876e-05
7.127628e-05
9.526879e-05
1.229609e-04
1.544863e-04
1.903028e-04
2.296045e-04
2.714768e-04
3.142975e-04
3.555233e-04
3.948156e-04
4.328761e-04
0.000000e+00
6.783621e-06
1.513772e-05
2.482365e-05
3.889155e-05
5.556275e-05
7.550798e-05
9.951540e-05
1.268511e-04
1.580605e-04
1.935890e-04
2.322162e-04
2.729048e-04
3.146913e-04
3.554080e-04
3.945946e-04
4.326781e-04
0.000000e+00
1.181145e-05
1.942759e-05
3.061737e-05
4.517567e-05
6.125542e-05
8.136086e-05
1.054160e-04
1.324419e-04
1.635852e-04
1.984745e-04
2.353161e-04
2.743778e-04
3.150944e-04
3.554303e-04
3.945077e-04
4.327504e-04


3.063162e+00
2.940881e+00
2.993172e+00
2.920344e+00
2.912655e+00
3.159621e+00
3.383027e+00
3.692301e+00
4.133494e+00
4.687815e+00
5.507652e+00
6.489698e+00
7.207499e+00
7.179573e+00
6.179871e+00
5.169813e+00
4.861384e+00
4.739595e+00
4.707994e+00
4.627798e+00
4.580738e+00
4.733656e+00
4.873553e+00
5.066310e+00
5.355152e+00
5.719318e+00
6.253870e+00
6.897486e+00
7.331904e+00
7.029550e+00
5.771114e+00
4.498560e+00
6.866695e+00
6.799037e+00
6.763327e+00
6.675761e+00
6.636526e+00
6.687384e+00
6.718606e+00
6.773193e+00
6.863267e+00
6.964674e+00
7.115465e+00
7.306750e+00
7.396094e+00
6.968739e+00
5.783419e+00
4.707382e+00
7.782941e+00
7.755535e+00
7.734073e+00
7.677817e+00
7.656583e+00
7.654454e+00
7.634759e+00
7.610941e+00
7.576067e+00
7.508463e+00
7.409808e+00
7.315227e+00
7.248914e+00
7.009157e+00
6.431959e+00
5.916250e+00
7.782072e+00
7.753557e+00
7.730452e+00
7.671925e+00
7.647322e+00
7.640198e+00
7.612453e+00
7.570426e+00
7.504256e+00
7.401986e+00
7.263703e+00
7.135410e+00
7.113967e+00
7.148248e+00
7.113534e+00
7.039446e+00
6.863264e+00
6.791968e+00
6.750093e+00
6.654724e+00
6.603850e+00
6.641051e+00
6.651910e+00
6.658290e+00
6.692124e+00
6.777097e+00
6.904851e+00
7.034567e+00
7.200193e+00
7.412175e+00
7.587130e+00
7.673571e+00
4.856905e+00
4.729690e+00
4.690674e+00
4.601081e+00
4.539849e+00
4.682441e+00
4.809266e+00
4.963434e+00
5.267129e+00
5.774801e+00
6.421747e+00
6.995161e+00
7.397412e+00
7.680997e+00
7.866522e+00
7.952232e+00
3.060377e+00
2.933805e+00
2.981130e+00
2.903952e+00
2.888253e+00
3.136661e+00
3.370988e+00
3.679878e+00
4.223456e+00
5.079393e+00
6.119300e+00
6.992444e+00
7.533440e+00
7.830950e+00
7.985670e+00
8.050144e+00


-6.495240e-01
-2.166348e-01
-2.703919e-01
-2.706923e-01
-1.640513e-01
-2.231541e-01
-2.083441e-01
-1.808579e-01
-1.912961e-01
-1.870639e-01
-2.263355e-01
-2.971603e-01
-2.577227e-01
1.839055e-03
4.662793e-01
-7.392254e-01
5.642986e-01
4.216054e-01
3.206245e-01
2.543348e-01
2.999750e-01
2.515704e-01
2.425132e-01
2.482600e-01
2.378633e-01
2.510104e-01
2.787067e-01
3.463108e-01
5.173670e-01
7.645006e-01
7.360551e-01
-1.184379e+00
8.043391e-01
6.364250e-01
4.587660e-01
4.009458e-01
3.895439e-01
3.556902e-01
3.513638e-01
3.539612e-01
3.579427e-01
3.821699e-01
4.237226e-01
4.769423e-01
4.996710e-01
3.805212e-01
1.341335e-01
-2.997050e-01
8.432764e-01
7.011819e-01
5.142062e-01
4.206072e-01
3.708171e-01
3.471259e-01
3.445514e-01
3.490247e-01
3.538113e-01
3.513041e-01
3.268357e-01
2.575700e-01
1.019951e-01
-1.216387e-01
-1.226643e-01
1.581158e-02
8.443510e-01
7.024968e-01
5.154806e-01
4.195101e-01
3.653320e-01
3.333322e-01
3.163490e-01
3.011367e-01
2.773133e-01
2.274489e-01
1.398424e-01
1.804447e-02
-1.171560e-01
-1.607908e-01
4.534254e-02
4.284129e-01
8.068250e-01
6.396896e-01
4.623044e-01
4.007051e-01
3.815289e-01
3.317077e-01
2.981755e-01
2.607247e-01
1.998335e-01
1.123760e-01
1.071521e-02
-5.692903e-02
-3.846349e-02
1.241050e-01
4.408232e-01
7.988312e-01
5.658694e-01
4.237974e-01
3.225560e-01
2.545474e-01
2.982647e-01
2.413185e-01
2.145665e-01
2.042575e-01
1.540889e-01
7.807340e-02
2.154100e-02
7.200033e-02
2.485860e-01
5.079684e-01
7.825737e-01
9.638427e-01
-6.522724e-01
-2.180803e-01
-2.725391e-01
-2.734617e-01
-1.610506e-01
-2.166880e-01
-2.003920e-01
-1.427079e-01
-1.272507e-01
-1.268831e-01
-5.224466e-02
2.045469e-01
5.566522e-01
8.297056e-01
9.657545e-01
9.992941e-01
1 2 19 18
2 3 20 19
3 4 21 20
4 5 22 21
5 6 23 22
6 7 24 23
7 8 25 24
8 9 26 25
9 10 27 26
10 11 28 27
11 12 29 28
12 13 30 29
13 14 31 30
14 15 32 31
15 16 33 32
16 17 34 33
18 19 36 35
19 20 37 36
20 21 38 37
21 22 39 38
22 23 40 39
23 24 41 40
24 25 42 41
25 26 43 42
26 27 44 43
27 28 45 44
28 29 46 45
29 30 47 46
30 31 48 47
31 32 49 48
32 33 50 49
33 34 51 50
35 36 53 52
36 37 54 53
37 38 55 54
38 39 56 55
39 40 57 56
40 41 58 57
41 42 59 58
42 43 60 59
43 44 61 60
44 45 62 61
45 46 63 62
46 47 64 63
47 48 65 64
48 49 66 65
49 50 67 66
50 51 68 67
52 53 70 69
53 54 71 70
54 55 72 71
55 56 73 72
56 57 74 73
57 58 75 74
58 59 76 75
59 60 77 76
60 61 78 77
61 62 79 78
62 63 80 79
63 64 81 80
64 65 82 81
65 66 83 82
66 67 84 83
67 68 85 84
69 70 87 86
70 71 88 87
71 72 89 88
72 73 90 89
73 74 91 90
74 75 92 91
75 76 93 92
76 77 94 93
77 78 95 94
78 79 96 95
79 80 97 96
80 81 98 97
81 82 99 98
82 83 100 99
83 84 101 100
84 85 102 101
86 87 104 103
87 88 105 104
88 89 106 105
89 90 107 106
90 91 108 107
91 92 109 108
92 93 110 109
93 94 111 110
94 95 112 111
95 96 113 112
96 97 114 113
97 98 115 114
98 99 116 115
99 100 117 116
100 101 118 117
101 102 119 118
103 104 121 120
104 105 122 121
105 106 123 122
106 107 124 123
107 108 125 124
108 109 126 125
109 110 127 126
110 111 128 127
111 112 129 128
112 113 130 129
113 114 131 130
114 115 132 131
115 116 133 132
116 117 134 133
117 118 135 134
118 119 136 135
120 121 138 137
121 122 139 138
122 123 140 139
123 124 141 140
124 125 142 141
125 126 143 142
126 127 144 143
127 128 145 144
128 129 146 145
129 130 147 146
130 131 148 147
131 132 149 148
132 133 150 149
133 134 151 150
134 135 152 151
135 136 153 152
