TITLE = "Solution"
VARIABLES = x, y, u, v, psiu, psiv, t, stress
ZONE T="structure" N=153 E=128 F=FEBLOCK ET=QUADRILATERAL VARLOCATION=([7,8]=cellcentered)
0.000000e+00
1.250000e+01
2.500000e+01
3.750000e+01
5.000000e+01
6.250000e+01
7.500000e+01
8.750000e+01
1.000000e+02
1.125000e+02
1.250000e+02
1.375000e+02
1.500000e+02
1.625000e+02
1.750000e+02
1.875000e+02
2.000000e+02
0.000000e+00
1.250000e+01
2.500000e+01
3.750000e+01
5.000000e+01
6.250000e+01
7.500000e+01
8.750000e+01
1.000000e+02
1.125000e+02
1.250000e+02
1.375000e+02
1.500000e+02
1.625000e+02
1.750000e+02
1.875000e+02
2.000000e+02
0.000000e+00
1.250000e+01
2.500000e+01
3.750000e+01
5.000000e+01
6.250000e+01
7.500000e+01
8.750000e+01
1.000000e+02
1.125000e+02
1.250000e+02
1.375000e+02
1.500000e+02
1.625000e+02
1.750000e+02
1.875000e+02
2.000000e+02
0.000000e+00
1.250000e+01
2.500000e+01
3.750000e+01
5.000000e+01
6.250000e+01
7.500000e+01
8.750000e+01
1.000000e+02
1.125000e+02
1.250000e+02
1.375000e+02
1.500000e+02
1.625000e+02
1.750000e+02
1.875000e+02
2.000000e+02
0.000000e+00
1.250000e+01
2.500000e+01
3.750000e+01
5.000000e+01
6.250000e+01
7.500000e+01
8.750000e+01
1.000000e+02
1.125000e+02
1.250000e+02
1.375000e+02
1.500000e+02
1.625000e+02
1.750000e+02
1.875000e+02
2.000000e+02
0.000000e+00
1.250000e+01
2.500000e+01
3.750000e+01
5.000000e+01
6.250000e+01
7.500000e+01
8.750000e+01
1.000000e+02
1.125000e+02
1.250000e+02
1.375000e+02
1.500000e+02
1.625000e+02
1.750000e+02
1.875000e+02
2.000000e+02
0.000000e+00
1.250000e+01
2.500000e+01
3.750000e+01
5.000000e+01
6.250000e+01
7.500000e+01
8.750000e+01
1.000000e+02
1.125000e+02
1.250000e+02
1.375000e+02
1.500000e+02
1.625000e+02
1.750000e+02
1.875000e+02
2.000000e+02
0.000000e+00
1.250000e+01
2.500000e+01
3.750000e+01
5.000000e+01
6.250000e+01
7.500000e+01
8.750000e+01
1.000000e+02
1.125000e+02
1.250000e+02
1.375000e+02
1.500000e+02
1.625000e+02
1.750000e+02
1.875000e+02
2.000000e+02
0.000000e+00
1.250000e+01
2.500000e+01
3.750000e+01
5.000000e+01
6.250000e+01
7.500000e+01
8.750000e+01
1.000000e+02
1.125000e+02
1.250000e+02
1.375000e+02
1.500000e+02
1.625000e+02
1.750000e+02
1.875000e+02
2.000000e+02
0.000000e+00
0.000000e+00
0.000000e+00
0.000000e+00
0.000000e+00
0.000000e+00
0.000000e+00
0.000000e+00
0.000000e+00
0.000000e+00
0.000000e+00
0.000000e+00
0.000000e+00
0.000000e+00
0.000000e+00
0.000000e+00
0.000000e+00
1.250000e+01
1.250000e+01
1.250000e+01
1.250000e+01
1.250000e+01
1.250000e+01
1.250000e+01
1.250000e+01
1.250000e+01
1.250000e+01
1.250000e+01
1.250000e+01
1.250000e+01
1.250000e+01
1.250000e+01
1.250000e+01
1.250000e+01
2.500000e+01
2.500000e+01
2.500000e+01
2.500000e+01
2.500000e+01
2.500000e+01
2.500000e+01
2.500000e+01
2.500000e+01
2.500000e+01
2.500000e+01
2.500000e+01
2.500000e+01
2.500000e+01
2.500000e+01
2.500000e+01
2.500000e+01
3.750000e+01
3.750000e+01
3.750000e+01
3.750000e+01
3.750000e+01
3.750000e+01
3.750000e+01
3.750000e+01
3.750000e+01
3.750000e+01
3.750000e+01
3.750000e+01
3.750000e+01
3.750000e+01
3.750000e+01
3.750000e+01
3.750000e+01
5.000000e+01
5.000000e+01
5.000000e+01
5.000000e+01
5.000000e+01
5.000000e+01
5.000000e+01
5.000000e+01
5.000000e+01
5.000000e+01
5.000000e+01
5.000000e+01
5.000000e+01
5.000000e+01
5.000000e+01
5.000000e+01
5.000000e+01
6.250000e+01
6.250000e+01
6.250000e+01
6.250000e+01
6.250000e+01
6.250000e+01
6.250000e+01
6.250000e+01
6.250000e+01
6.250000e+01
6.250000e+01
6.250000e+01
6.250000e+01
6.250000e+01
6.250000e+01
6.250000e+01
6.250000e+01
7.500000e+01
7.500000e+01
7.500000e+01
7.500000e+01
7.500000e+01
7.500000e+01
7.500000e+01
7.500000e+01
7.500000e+01
7.500000e+01
7.500000e+01
7.500000e+01
7.500000e+01
7.500000e+01
7.500000e+01
7.500000e+01
7.500000e+01
8.750000e+01
8.750000e+01
8.750000e+01
8.750000e+01
8.750000e+01
8.750000e+01
8.750000e+01
8.750000e+01
8.750000e+01
8.750000e+01
8.750000e+01
8.750000e+01
8.750000e+01
8.750000e+01
8.750000e+01
8.750000e+01
8.750000e+01
1.000000e+02
1.000000e+02
1.000000e+02
1.000000e+02
1.000000e+02
1.000000e+02
1.000000e+02
1.000000e+02
1.000000e+02
1.000000e+02
1.000000e+02
1.000000e+02
1.000000e+02
1.000000e+02
1.000000e+02
1.000000e+02
1.000000e+02
0.000000e+00
-1.014542e+00
-1.822407e+00
-2.568266e+00
-3.325811e+00
-4.094408e+00
-4.863434e+00
-5.633279e+00
-6.424973e+00
-7.315485e+00
-8.331108e+00
-9.222025e+00
-9.955163e+00
-1.072445e+01
-1.153179e+01
-1.227783e+01
-1.274041e+01
0.000000e+00
-5.629390e-01
-1.154433e+00
-1.709412e+00
-2.265360e+00
-2.821809e+00
-3.378605e+00
-3.932596e+00
-4.506178e+00
-5.160065e+00
-5.914542e+00
-6.571813e+00
-7.078684e+00
-7.527094e+00
-7.855692e+00
-7.924084e+00
-8.086043e+00
0.000000e+00
-3.059535e-01
-6.399740e-01
-9.962850e-01
-1.353954e+00
-1.708893e+00
-2.069384e+00
-2.440868e+00
-2.836568e+00
-3.280131e+00
-3.748951e+00
-4.124098e+00
-4.385121e+00
-4.538901e+00
-4.549440e+00
-4.496803e+00
-4.684999e+00
0.000000e+00
-1.272480e-01
-2.805038e-01
-4.492309e-01
-6.193230e-01
-7.854162e-01
-9.539718e-01
-1.136611e+00
-1.338226e+00
-1.556282e+00
-1.747515e+00
-1.871376e+00
-1.925184e+00
-1.905606e+00
-1.828889e+00
-1.820370e+00
-1.987946e+00
0.000000e+00
-5.808600e-03
-9.454978e-03
-8.335366e-03
-1.507230e-03
1.037757e-02
2.729344e-02
4.958127e-02
7.916466e-02
1.228787e-01
1.829394e-01
2.596201e-01
3.538521e-01
4.595315e-01
5.425790e-01
5.275245e-01
4.041942e-01
0.000000e+00
1.206897e-01
2.659183e-01
4.288922e-01
6.015192e-01
7.820427e-01
9.780543e-01
1.206599e+00
1.475641e+00
1.783307e+00
2.073595e+00
2.307478e+00
2.508041e+00
2.683090e+00
2.793029e+00
2.798293e+00
2.733493e+00
0.000000e+00
3.038117e-01
6.294239e-01
9.711370e-01
1.313195e+00
1.659369e+00
2.027898e+00
2.437930e+00
2.910596e+00
3.454920e+00
3.980671e+00
4.379219e+00
4.676818e+00
4.909287e+00
5.062797e+00
5.110132e+00
5.096107e+00
0.000000e+00
5.625726e-01
1.146706e+00
1.683839e+00
2.211894e+00
2.740279e+00
3.288110e+00
3.874520e+00
4.533326e+00
5.283768e+00
6.033702e+00
6.618512e+00
7.038450e+00
7.333596e+00
7.514844e+00
7.586864e+00
7.600029e+00
0.000000e+00
1.016826e+00
1.817441e+00
2.544153e+00
3.268199e+00
4.002187e+00
4.763672e+00
5.578546e+00
6.473847e+00
7.457263e+00
8.394407e+00
9.140766e+00
9.678424e+00
1.002735e+01
1.018915e+01
1.021541e+01
1.021111e+01
0.000000e+00
-6.193579e-01
-1.260334e+00
-2.098609e+00
-3.130331e+00
-4.370830e+00
-5.833799e+00
-7.530681e+00
-9.480095e+00
-1.170968e+01
-1.419174e+01
-1.682681e+01
-1.964457e+01
-2.270518e+01
-2.607931e+01
-3.000460e+01
-3.555388e+01
0.000000e+00
-3.904363e-01
-1.067545e+00
-1.904681e+00
-2.933138e+00
-4.170708e+00
-5.633610e+00
-7.328649e+00
-9.264481e+00
-1.146535e+01
-1.394982e+01
-1.663013e+01
-1.946962e+01
-2.253732e+01
-2.594722e+01
-2.988932e+01
-3.461860e+01
0.000000e+00
-3.163498e-01
-9.434381e-01
-1.776474e+00
-2.799513e+00
-4.030418e+00
-5.487549e+00
-7.179827e+00
-9.110609e+00
-1.131502e+01
-1.382082e+01
-1.652582e+01
-1.939046e+01
-2.248656e+01
-2.592478e+01
-2.967380e+01
-3.318117e+01
0.000000e+00
-3.110474e-01
-9.016553e-01
-1.713669e+00
-2.727295e+00
-3.947630e+00
-5.390897e+00
-7.078234e+00
-9.019858e+00
-1.126031e+01
-1.379339e+01
-1.651133e+01
-1.938565e+01
-2.248416e+01
-2.584331e+01
-2.922859e+01
-3.215259e+01
0.000000e+00
-3.220602e-01
-8.996041e-01
-1.701741e+00
-2.709071e+00
-3.923211e+00
-5.356077e+00
-7.039862e+00
-8.998102e+00
-1.127578e+01
-1.383222e+01
-1.655001e+01
-1.941690e+01
-2.247729e+01
-2.569730e+01
-2.879049e+01
-3.142735e+01
0.000000e+00
-3.147228e-01
-9.096836e-01
-1.724308e+00
-2.739088e+00
-3.956714e+00
-5.393251e+00
-7.081340e+00
-9.045575e+00
-1.133924e+01
-1.390721e+01
-1.662039e+01
-1.946815e+01
-2.247190e+01
-2.556072e+01
-2.848204e+01
-3.103625e+01
0.000000e+00
-3.208977e-01
-9.535547e-01
-1.791331e+00
-2.816760e+00
-4.044375e+00
-5.494624e+00
-7.191460e+00
-9.162358e+00
-1.145187e+01
-1.401215e+01
-1.671671e+01
-1.954350e+01
-2.249416e+01
-2.547431e+01
-2.829232e+01
-3.086136e+01
0.000000e+00
-3.939252e-01
-1.075296e+00
-1.916329e+00
-2.946837e+00
-4.182405e+00
-5.644428e+00
-7.355182e+00
-9.344076e+00
-1.163261e+01
-1.416800e+01
-1.684534e+01
-1.964744e+01
-2.255022e+01
-2.545438e+01
-2.821739e+01
-3.083371e+01
0.000000e+00
-6.220097e-01
-1.264507e+00
-2.103334e+00
-3.134656e+00
-4.375817e+00
-5.848169e+00
-7.577156e+00
-9.591252e+00
-1.189077e+01
-1.438986e+01
-1.701621e+01
-1.977148e+01
-2.262313e+01
-2.547116e+01
-2.820419e+01
-3.083801e+01


0.000000e+00
3.075527e-05
5.236989e-05
6.379003e-05
7.132275e-05
7.877174e-05
8.702940e-05
9.457788e-05
1.000982e-04
1.026425e-04
1.004787e-04
9.470471e-05
8.869882e-05
8.349964e-05
8.049665e-05
8.000449e-05
8.070585e-05
0.000000e+00
2.575079e-05
4.664080e-05
5.382015e-05
5.827284e-05
6.370677e-05
7.056678e-05
7.713622e-05
8.205417e-05
8.429471e-05
8.184232e-05
7.609342e-05
7.054812e-05
6.557215e-05
6.185323e-05
6.100407e-05
6.191452e-05
0.000000e+00
1.886026e-05
3.306699e-05
3.894894e-05
4.328039e-05
4.756333e-05
5.246276e-05
5.692986e-05
5.987199e-05
6.031481e-05
5.743332e-05
5.307892e-05
4.923274e-05
4.620079e-05
4.405988e-05
4.376712e-05
4.482075e-05
0.000000e+00
9.267258e-06
1.532304e-05
2.090217e-05
2.447074e-05
2.711632e-05
2.948368e-05
3.142392e-05
3.207181e-05
3.131172e-05
2.941161e-05
2.748519e-05
2.625443e-05
2.556624e-05
2.545481e-05
2.568802e-05
2.604038e-05
0.000000e+00
1.440635e-06
2.756792e-06
3.683679e-06
4.022007e-06
3.657612e-06
3.096684e-06
1.512607e-06
6.687351e-07
1.777842e-08
5.900366e-07
1.979516e-06
3.474816e-06
4.441620e-06
4.563703e-06
4.167083e-06
3.375455e-06
0.000000e+00
-4.786934e-06
-8.239083e-06
-1.152701e-05
-1.429872e-05
-1.739355e-05
-2.310195e-05
-3.068960e-05
-3.485769e-05
-3.315422e-05
-2.990636e-05
-2.569568e-05
-2.160294e-05
-1.903802e-05
-1.861637e-05
-1.934956e-05
-2.039186e-05
0.000000e+00
-1.085000e-05
-2.009125e-05
-2.509077e-05
-2.881642e-05
-3.295509e-05
-4.232592e-05
-5.651596e-05
-6.593583e-05
-6.560364e-05
-6.049612e-05
-5.475241e-05
-4.976840e-05
-4.619441e-05
-4.443020e-05
-4.408655e-05
-4.450652e-05
0.000000e+00
-1.526047e-05
-2.966201e-05
-3.676472e-05
-4.143474e-05
-4.689406e-05
-5.716015e-05
-7.246890e-05
-8.491237e-05
-8.835025e-05
-8.488315e-05
-7.936222e-05
-7.510336e-05
-7.175977e-05
-6.923192e-05
-6.812299e-05
-6.792302e-05
0.000000e+00
-2.039207e-05
-3.648732e-05
-4.694664e-05
-5.495423e-05
-6.330473e-05
-7.494634e-05
-8.749663e-05
-9.820105e-05
-1.025155e-04
-1.016893e-04
-9.819771e-05
-9.543589e-05
-9.337830e-05
-9.135180e-05
-9.024307e-05
-8.995434e-05
0.000000e+00
2.451483e-05
3.310247e-05
4.136622e-05
5.451648e-05
7.129657e-05
9.020440e-05
1.099878e-04
1.298400e-04
1.482810e-04
1.638461e-04
1.787867e-04
1.940666e-04
2.085272e-04
2.244880e-04
2.445937e-04
2.658399e-04
0.000000e+00
1.234897e-05
2.618212e-05
3.765498e-05
5.143773e-05
6.760452e-05
8.624011e-05
1.066004e-04
1.276061e-04
1.478240e-04
1.655493e-04
1.814632e-04
1.967364e-04
2.108813e-04
2.252382e-04
2.435405e-04
2.641141e-04
0.000000e+00
4.806358e-06
1.967455e-05
3.447763e-05
4.878271e-05
6.471290e-05
8.324240e-05
1.042451e-04
1.265572e-04
1.483447e-04
1.673715e-04
1.839164e-04
1.990644e-04
2.128919e-04
2.255827e-04
2.417323e-04
2.614916e-04
0.000000e+00
2.754551e-06
1.587540e-05
3.138428e-05
4.660306e-05
6.291668e-05
8.168216e-05
1.035613e-04
1.271419e-04
1.495824e-04
1.688168e-04
1.852885e-04
1.999033e-04
2.137357e-04
2.262917e-04
2.408160e-04
2.597033e-04
0.000000e+00
2.984380e-06
1.445558e-05
2.942457e-05
4.522227e-05
6.154997e-05
8.010182e-05
1.031918e-04
1.280987e-04
1.505382e-04
1.694832e-04
1.854419e-04
1.994964e-04
2.136291e-04
2.279378e-04
2.426863e-04
2.609871e-04
0.000000e+00
3.364191e-06
1.489852e-05
2.973703e-05
4.526676e-05
6.077582e-05
7.918131e-05
1.031696e-04
1.289825e-04
1.507440e-04
1.689395e-04
1.842630e-04
1.979884e-04
2.129924e-04
2.293772e-04
2.455082e-04
2.640585e-04
0.000000e+00
4.806009e-06
1.718054e-05
3.143469e-05
4.629772e-05
6.217382e-05
8.193171e-05
1.066584e-04
1.308324e-04
1.501240e-04
1.670526e-04
1.817242e-04
1.959668e-04
2.120430e-04
2.296273e-04
2.473363e-04
2.669991e-04
0.000000e+00
9.414873e-06
2.175227e-05
3.406070e-05
4.856586e-05
6.589741e-05
8.839325e-05
1.135284e-04
1.346480e-04
1.502265e-04
1.644603e-04
1.788216e-04
1.940968e-04
2.110062e-04
2.290685e-04
2.479411e-04
2.683854e-04
0.000000e+00
1.720578e-05
2.714654e-05
3.761177e-05
5.172562e-05
7.040220e-05
9.499187e-05
1.201098e-04
1.390617e-04
1.508647e-04
1.625905e-04
1.767486e-04
1.926965e-04
2.100909e-04
2.283803e-04
2.479790e-04
2.686665e-04


2.633647e+00
2.528952e+00
2.525500e+00
2.747222e+00
2.989625e+00
3.257363e+00
3.669378e+00
4.381214e+00
6.084638e+00
7.975836e+00
8.022772e+00
7.256023e+00
7.563238e+00
7.357065e+00
5.826836e+00
4.524464e+00
3.393723e+00
3.390022e+00
3.421103e+00
3.584284e+00
3.849292e+00
4.382407e+00
4.767899e+00
5.449717e+00
6.718418e+00
8.031216e+00
7.948077e+00
7.283307e+00
7.498894e+00
7.587054e+00
6.301760e+00
5.031377e+00
5.159682e+00
5.170650e+00
4.914290e+00
4.814029e+00
5.095326e+00
5.732112e+00
6.520451e+00
7.084556e+00
7.853363e+00
8.264000e+00
7.633094e+00
7.012439e+00
7.178130e+00
7.817809e+00
7.517111e+00
6.633726e+00
6.954279e+00
6.543247e+00
5.734461e+00
5.325362e+00
5.484764e+00
6.238799e+00
7.335217e+00
8.273220e+00
8.658930e+00
8.217469e+00
7.274287e+00
6.592948e+00
7.138436e+00
8.022845e+00
8.319814e+00
7.860705e+00
6.892502e+00
6.360774e+00
5.594098e+00
5.284630e+00
5.566686e+00
6.359543e+00
7.533858e+00
8.467036e+00
8.942903e+00
8.380427e+00
7.181680e+00
6.973212e+00
7.565093e+00
8.464622e+00
8.517041e+00
7.765654e+00
5.051995e+00
4.952086e+00
4.677627e+00
4.747639e+00
5.188618e+00
5.977152e+00
6.910653e+00
7.807852e+00
8.748369e+00
8.608124e+00
7.532395e+00
7.171236e+00
7.981746e+00
8.533547e+00
8.216633e+00
7.612847e+00
3.408940e+00
3.324074e+00
3.322756e+00
3.484193e+00
3.830223e+00
4.516005e+00
5.254306e+00
6.468593e+00
7.849787e+00
8.442113e+00
7.729184e+00
7.254291e+00
7.439992e+00
7.662423e+00
7.238439e+00
6.591668e+00
2.620021e+00
2.484336e+00
2.436103e+00
2.615202e+00
2.886056e+00
3.342341e+00
4.132256e+00
5.420104e+00
7.031262e+00
7.955999e+00
7.846490e+00
7.369121e+00
7.062703e+00
6.849515e+00
6.082759e+00
5.215236e+00


-1.190194e+00
-7.220737e-01
-4.808588e-01
-5.091030e-01
-5.374788e-01
-5.435187e-01
-5.457213e-01
-6.553081e-01
-1.124823e+00
-1.760903e+00
-1.097075e+00
-3.458579e-01
-2.827476e-01
-1.107536e-01
4.110341e-01
-7.893849e-01
2.972650e-01
1.670147e-01
2.078457e-01
2.065753e-01
1.999932e-01
1.671735e-01
1.146145e-01
-1.524875e-02
-3.222530e-01
-6.139570e-01
-1.335498e-01
3.758297e-01
6.038391e-01
7.843261e-01
5.986777e-01
-2.072231e+00
7.664585e-01
6.249875e-01
5.573248e-01
5.412731e-01
5.205878e-01
4.647046e-01
3.686400e-01
2.436024e-01
5.186403e-02
-2.847097e-02
2.659272e-01
5.108329e-01
5.161586e-01
1.843160e-01
-4.041793e-01
-1.282192e+00
8.838067e-01
7.467199e-01
6.620894e-01
6.197156e-01
5.765993e-01
5.120306e-01
4.154465e-01
3.239972e-01
1.935925e-01
1.357385e-01
2.626137e-01
3.098550e-01
9.984385e-02
-3.559414e-01
-4.794080e-01
-4.163329e-01
8.882263e-01
7.537952e-01
6.613190e-01
5.993447e-01
5.353204e-01
4.513355e-01
3.271126e-01
1.978833e-01
5.027107e-03
-6.925896e-02
4.641985e-02
3.513306e-02
-1.651716e-01
-3.523535e-01
-2.621841e-02
4.441140e-01
7.713627e-01
6.371337e-01
5.690678e-01
5.320692e-01
4.733988e-01
3.618042e-01
1.686092e-01
-1.028831e-01
-4.672622e-01
-5.004356e-01
-1.517627e-01
-1.582042e-02
-8.144994e-02
-1.960364e-02
4.144988e-01
8.098249e-01
2.986910e-01
1.892963e-01
2.547575e-01
2.660454e-01
2.413771e-01
1.377316e-01
-6.597988e-02
-4.313136e-01
-9.385830e-01
-9.664198e-01
-2.974369e-01
1.379935e-01
3.166099e-01
5.144267e-01
8.149076e-01
9.750662e-01
-1.196522e+00
-6.866640e-01
-3.985781e-01
-3.734556e-01
-3.991270e-01
-5.105441e-01
-7.395571e-01
-1.155364e+00
-1.695998e+00
-1.559843e+00
-6.087123e-01
1.379900e-01
5.692835e-01
8.420315e-01
9.775761e-01
9.998171e-01
1 2 19 18
2 3 20 19
3 4 21 20
4 5 22 21
5 6 23 22
6 7 24 23
7 8 25 24
8 9 26 25
9 10 27 26
10 11 28 27
11 12 29 28
12 13 30 29
13 14 31 30
14 15 32 31
15 16 33 32
16 17 34 33
18 19 36 35
19 20 37 36
20 21 38 37
21 22 39 38
22 23 40 39
23 24 41 40
24 25 42 41
25 26 43 42
26 27 44 43
27 28 45 44
28 29 46 45
29 30 47 46
30 31 48 47
31 32 49 48
32 33 50 49
33 34 51 50
35 36 53 52
36 37 54 53
37 38 55 54
38 39 56 55
39 40 57 56
40 41 58 57
41 42 59 58
42 43 60 59
43 44 61 60
44 45 62 61
45 46 63 62
46 47 64 63
47 48 65 64
48 49 66 65
49 50 67 66
50 51 68 67
52 53 70 69
53 54 71 70
54 55 72 71
55 56 73 72
56 57 74 73
57 58 75 74
58 59 76 75
59 60 77 76
60 61 78 77
61 62 79 78
62 63 80 79
63 64 81 80
64 65 82 81
65 66 83 82
66 67 84 83
67 68 85 84
69 70 87 86
70 71 88 87
71 72 89 88
72 73 90 89
73 74 91 90
74 75 92 91
75 76 93 92
76 77 94 93
77 78 95 94
78 79 96 95
79 80 97 96
80 81 98 97
81 82 99 98
82 83 100 99
83 84 101 100
84 85 102 101
86 87 104 103
87 88 105 104
88 89 106 105
89 90 107 106
90 91 108 107
91 92 109 108
92 93 110 109
93 94 111 110
94 95 112 111
95 96 113 112
96 97 114 113
97 98 115 114
98 99 116 115
99 100 117 116
100 101 118 117
101 102 119 118
103 104 121 120
104 105 122 121
105 106 123 122
106 107 124 123
107 108 125 124
108 109 126 125
109 110 127 126
110 111 128 127
111 112 129 128
112 113 130 129
113 114 131 130
114 115 132 131
115 116 133 132
116 117 134 133
117 118 135 134
118 119 136 135
120 121 138 137
121 122 139 138
122 123 140 139
123 124 141 140
124 125 142 141
125 126 143 142
126 127 144 143
127 128 145 144
128 129 146 145
129 130 147 146
130 131 148 147
131 132 149 148
132 133 150 149
133 134 151 150
134 135 152 151
135 136 153 152
