TITLE = "Solution"
VARIABLES = x, y, u, v, psiu, psiv, t, stress
ZONE T="structure" N=153 E=128 F=FEBLOCK ET=QUADRILATERAL VARLOCATION=([7,8]=cellcentered)
0.000000e+00
1.250000e+01
2.500000e+01
3.750000e+01
5.000000e+01
6.250000e+01
7.500000e+01
8.750000e+01
1.000000e+02
1.125000e+02
1.250000e+02
1.375000e+02
1.500000e+02
1.625000e+02
1.750000e+02
1.875000e+02
2.000000e+02
0.000000e+00
1.250000e+01
2.500000e+01
3.750000e+01
5.000000e+01
6.250000e+01
7.500000e+01
8.750000e+01
1.000000e+02
1.125000e+02
1.250000e+02
1.375000e+02
1.500000e+02
1.625000e+02
1.750000e+02
1.875000e+02
2.000000e+02
0.000000e+00
1.250000e+01
2.500000e+01
3.750000e+01
5.000000e+01
6.250000e+01
7.500000e+01
8.750000e+01
1.000000e+02
1.125000e+02
1.250000e+02
1.375000e+02
1.500000e+02
1.625000e+02
1.750000e+02
1.875000e+02
2.000000e+02
0.000000e+00
1.250000e+01
2.500000e+01
3.750000e+01
5.000000e+01
6.250000e+01
7.500000e+01
8.750000e+01
1.000000e+02
1.125000e+02
1.250000e+02
1.375000e+02
1.500000e+02
1.625000e+02
1.750000e+02
1.875000e+02
2.000000e+02
0.000000e+00
1.250000e+01
2.500000e+01
3.750000e+01
5.000000e+01
6.250000e+01
7.500000e+01
8.750000e+01
1.000000e+02
1.125000e+02
1.250000e+02
1.375000e+02
1.500000e+02
1.625000e+02
1.750000e+02
1.875000e+02
2.000000e+02
0.000000e+00
1.250000e+01
2.500000e+01
3.750000e+01
5.000000e+01
6.250000e+01
7.500000e+01
8.750000e+01
1.000000e+02
1.125000e+02
1.250000e+02
1.375000e+02
1.500000e+02
1.625000e+02
1.750000e+02
1.875000e+02
2.000000e+02
0.000000e+00
1.250000e+01
2.500000e+01
3.750000e+01
5.000000e+01
6.250000e+01
7.500000e+01
8.750000e+01
1.000000e+02
1.125000e+02
1.250000e+02
1.375000e+02
1.500000e+02
1.625000e+02
1.750000e+02
1.875000e+02
2.000000e+02
0.000000e+00
1.250000e+01
2.500000e+01
3.750000e+01
5.000000e+01
6.250000e+01
7.500000e+01
8.750000e+01
1.000000e+02
1.125000e+02
1.250000e+02
1.375000e+02
1.500000e+02
1.625000e+02
1.750000e+02
1.875000e+02
2.000000e+02
0.000000e+00
1.250000e+01
2.500000e+01
3.750000e+01
5.000000e+01
6.250000e+01
7.500000e+01
8.750000e+01
1.000000e+02
1.125000e+02
1.250000e+02
1.375000e+02
1.500000e+02
1.625000e+02
1.750000e+02
1.875000e+02
2.000000e+02
0.000000e+00
0.000000e+00
0.000000e+00
0.000000e+00
0.000000e+00
0.000000e+00
0.000000e+00
0.000000e+00
0.000000e+00
0.000000e+00
0.000000e+00
0.000000e+00
0.000000e+00
0.000000e+00
0.000000e+00
0.000000e+00
0.000000e+00
1.250000e+01
1.250000e+01
1.250000e+01
1.250000e+01
1.250000e+01
1.250000e+01
1.250000e+01
1.250000e+01
1.250000e+01
1.250000e+01
1.250000e+01
1.250000e+01
1.250000e+01
1.250000e+01
1.250000e+01
1.250000e+01
1.250000e+01
2.500000e+01
2.500000e+01
2.500000e+01
2.500000e+01
2.500000e+01
2.500000e+01
2.500000e+01
2.500000e+01
2.500000e+01
2.500000e+01
2.500000e+01
2.500000e+01
2.500000e+01
2.500000e+01
2.500000e+01
2.500000e+01
2.500000e+01
3.750000e+01
3.750000e+01
3.750000e+01
3.750000e+01
3.750000e+01
3.750000e+01
3.750000e+01
3.750000e+01
3.750000e+01
3.750000e+01
3.750000e+01
3.750000e+01
3.750000e+01
3.750000e+01
3.750000e+01
3.750000e+01
3.750000e+01
5.000000e+01
5.000000e+01
5.000000e+01
5.000000e+01
5.000000e+01
5.000000e+01
5.000000e+01
5.000000e+01
5.000000e+01
5.000000e+01
5.000000e+01
5.000000e+01
5.000000e+01
5.000000e+01
5.000000e+01
5.000000e+01
5.000000e+01
6.250000e+01
6.250000e+01
6.250000e+01
6.250000e+01
6.250000e+01
6.250000e+01
6.250000e+01
6.250000e+01
6.250000e+01
6.250000e+01
6.250000e+01
6.250000e+01
6.250000e+01
6.250000e+01
6.250000e+01
6.250000e+01
6.250000e+01
7.500000e+01
7.500000e+01
7.500000e+01
7.500000e+01
7.500000e+01
7.500000e+01
7.500000e+01
7.500000e+01
7.500000e+01
7.500000e+01
7.500000e+01
7.500000e+01
7.500000e+01
7.500000e+01
7.500000e+01
7.500000e+01
7.500000e+01
8.750000e+01
8.750000e+01
8.750000e+01
8.750000e+01
8.750000e+01
8.750000e+01
8.750000e+01
8.750000e+01
8.750000e+01
8.750000e+01
8.750000e+01
8.750000e+01
8.750000e+01
8.750000e+01
8.750000e+01
8.750000e+01
8.750000e+01
1.000000e+02
1.000000e+02
1.000000e+02
1.000000e+02
1.000000e+02
1.000000e+02
1.000000e+02
1.000000e+02
1.000000e+02
1.000000e+02
1.000000e+02
1.000000e+02
1.000000e+02
1.000000e+02
1.000000e+02
1.000000e+02
1.000000e+02
0.000000e+00
-9.902578e-01
-1.682988e+00
-2.433108e+00
-3.112991e+00
-3.761310e+00
-4.456623e+00
-5.092402e+00
-5.766621e+00
-6.403553e+00
-7.063450e+00
-7.717803e+00
-8.372335e+00
-9.153472e+00
-1.008341e+01
-1.083769e+01
-1.128792e+01
0.000000e+00
-4.425259e-01
-9.090535e-01
-1.418059e+00
-1.927826e+00
-2.413076e+00
-2.924487e+00
-3.422696e+00
-3.919636e+00
-4.419464e+00
-4.916731e+00
-5.415118e+00
-5.898221e+00
-6.426119e+00
-6.900262e+00
-7.025144e+00
-7.204054e+00
0.000000e+00
-1.454581e-01
-3.492530e-01
-6.376058e-01
-9.748981e-01
-1.300895e+00
-1.655030e+00
-2.009318e+00
-2.355720e+00
-2.715653e+00
-3.056477e+00
-3.390767e+00
-3.685669e+00
-3.928316e+00
-4.036870e+00
-4.034530e+00
-4.183663e+00
0.000000e+00
-7.807655e-02
-1.612030e-01
-3.071051e-01
-4.505976e-01
-6.263505e-01
-8.073177e-01
-9.765329e-01
-1.161192e+00
-1.323349e+00
-1.486483e+00
-1.625282e+00
-1.719827e+00
-1.728030e+00
-1.656149e+00
-1.637422e+00
-1.755868e+00
0.000000e+00
-2.717171e-03
-5.982887e-03
-9.357108e-03
-1.221499e-02
-1.365457e-02
-1.261963e-02
-7.752808e-03
1.210864e-03
1.750115e-02
4.065676e-02
8.257262e-02
1.624819e-01
2.757185e-01
3.940881e-01
4.332172e-01
3.353256e-01
0.000000e+00
7.343842e-02
1.513584e-01
2.908115e-01
4.288863e-01
6.007228e-01
7.836145e-01
9.622653e-01
1.167104e+00
1.358459e+00
1.569493e+00
1.788068e+00
2.011486e+00
2.214790e+00
2.349919e+00
2.383269e+00
2.318254e+00
0.000000e+00
1.438479e-01
3.448165e-01
6.293496e-01
9.617607e-01
1.283079e+00
1.635626e+00
1.996560e+00
2.366732e+00
2.770006e+00
3.147409e+00
3.513952e+00
3.848325e+00
4.121269e+00
4.295774e+00
4.350953e+00
4.328747e+00
0.000000e+00
4.439244e-01
9.096334e-01
1.418974e+00
1.928190e+00
2.410575e+00
2.919500e+00
3.412675e+00
3.902809e+00
4.395438e+00
4.874510e+00
5.349996e+00
5.782247e+00
6.129868e+00
6.346196e+00
6.441423e+00
6.458845e+00
0.000000e+00
9.928173e-01
1.686623e+00
2.441504e+00
3.127367e+00
3.777976e+00
4.477016e+00
5.103339e+00
5.745087e+00
6.329569e+00
6.904422e+00
7.504326e+00
8.039206e+00
8.449788e+00
8.653105e+00
8.707063e+00
8.707765e+00
0.000000e+00
-6.173213e-01
-1.362025e+00
-2.362959e+00
-3.539234e+00
-4.888023e+00
-6.421117e+00
-8.112237e+00
-9.976770e+00
-1.200271e+01
-1.419214e+01
-1.654010e+01
-1.905394e+01
-2.178751e+01
-2.475013e+01
-2.811147e+01
-3.312970e+01
0.000000e+00
-4.131256e-01
-1.192874e+00
-2.177951e+00
-3.369176e+00
-4.712630e+00
-6.244913e+00
-7.942292e+00
-9.801906e+00
-1.183460e+01
-1.401970e+01
-1.637475e+01
-1.887912e+01
-2.159402e+01
-2.461077e+01
-2.802734e+01
-3.208032e+01
0.000000e+00
-3.872990e-01
-1.091989e+00
-2.074856e+00
-3.248522e+00
-4.588167e+00
-6.122979e+00
-7.813957e+00
-9.682898e+00
-1.171301e+01
-1.391002e+01
-1.627478e+01
-1.879081e+01
-2.153160e+01
-2.460177e+01
-2.787433e+01
-3.090663e+01
0.000000e+00
-4.468478e-01
-1.088586e+00
-2.049286e+00
-3.183999e+00
-4.519802e+00
-6.057505e+00
-7.739660e+00
-9.626090e+00
-1.165633e+01
-1.387357e+01
-1.625652e+01
-1.880085e+01
-2.154121e+01
-2.453360e+01
-2.756339e+01
-3.018464e+01
0.000000e+00
-4.548417e-01
-1.110532e+00
-2.032604e+00
-3.172241e+00
-4.505215e+00
-6.037397e+00
-7.737178e+00
-9.619407e+00
-1.167180e+01
-1.389720e+01
-1.629128e+01
-1.884241e+01
-2.154238e+01
-2.438229e+01
-2.719829e+01
-2.958276e+01
0.000000e+00
-4.457151e-01
-1.087658e+00
-2.050634e+00
-3.191440e+00
-4.533761e+00
-6.084735e+00
-7.779722e+00
-9.683769e+00
-1.173920e+01
-1.396497e+01
-1.634281e+01
-1.887487e+01
-2.153188e+01
-2.424564e+01
-2.688067e+01
-2.914920e+01
0.000000e+00
-3.856651e-01
-1.090623e+00
-2.077255e+00
-3.260194e+00
-4.613954e+00
-6.171646e+00
-7.891659e+00
-9.792182e+00
-1.185365e+01
-1.405200e+01
-1.640902e+01
-1.891507e+01
-2.153229e+01
-2.416170e+01
-2.667400e+01
-2.891842e+01
0.000000e+00
-4.115496e-01
-1.191420e+00
-2.180257e+00
-3.381278e+00
-4.741263e+00
-6.300310e+00
-8.033879e+00
-9.930954e+00
-1.199012e+01
-1.416866e+01
-1.650782e+01
-1.899205e+01
-2.157403e+01
-2.414115e+01
-2.658562e+01
-2.885806e+01
0.000000e+00
-6.160437e-01
-1.361017e+00
-2.366204e+00
-3.551933e+00
-4.917355e+00
-6.477205e+00
-8.202166e+00
-1.010156e+01
-1.214647e+01
-1.432430e+01
-1.665678e+01
-1.911591e+01
-2.165574e+01
-2.416624e+01
-2.657042e+01
-2.885687e+01


0.000000e+00
1.535415e-05
2.497103e-05
3.698810e-05
5.265992e-05
6.586245e-05
8.095426e-05
9.574171e-05
1.099701e-04
1.251815e-04
1.406222e-04
1.550023e-04
1.727213e-04
1.876378e-04
1.959772e-04
2.012357e-04
2.081557e-04
0.000000e+00
1.152315e-05
1.984057e-05
2.848264e-05
4.139601e-05
5.206224e-05
6.256242e-05
7.401837e-05
8.407052e-05
9.523591e-05
1.055905e-04
1.152292e-04
1.268681e-04
1.355156e-04
1.355588e-04
1.392240e-04
1.451125e-04
0.000000e+00
9.769520e-06
1.545881e-05
2.101971e-05
3.061335e-05
3.762684e-05
4.408077e-05
5.176335e-05
5.756999e-05
6.420174e-05
6.979748e-05
7.416329e-05
7.875980e-05
8.014050e-05
7.867855e-05
8.104182e-05
8.531647e-05
0.000000e+00
5.381766e-06
7.384671e-06
1.075397e-05
1.533152e-05
1.750995e-05
2.120081e-05
2.413299e-05
2.616578e-05
2.845173e-05
2.997561e-05
2.955594e-05
2.817725e-05
2.613173e-05
2.598322e-05
2.905315e-05
3.472776e-05
0.000000e+00
-9.509914e-08
-2.454604e-07
-4.540047e-07
-7.622837e-07
-1.171623e-06
-1.651268e-06
-2.412220e-06
-3.290343e-06
-5.020603e-06
-7.911576e-06
-1.216478e-05
-1.510695e-05
-1.624801e-05
-1.587616e-05
-1.365039e-05
-9.706779e-06
0.000000e+00
-5.507802e-06
-7.706195e-06
-1.147361e-05
-1.651125e-05
-1.923864e-05
-2.396507e-05
-2.733099e-05
-3.099991e-05
-3.369659e-05
-3.753875e-05
-4.276492e-05
-4.731043e-05
-4.849191e-05
-4.893491e-05
-4.947097e-05
-4.784328e-05
0.000000e+00
-9.689733e-06
-1.544170e-05
-2.121624e-05
-3.097417e-05
-3.849120e-05
-4.518756e-05
-5.329366e-05
-5.897464e-05
-6.422386e-05
-6.869248e-05
-7.339776e-05
-7.762052e-05
-8.072698e-05
-8.264508e-05
-8.454258e-05
-8.530253e-05
0.000000e+00
-1.142425e-05
-1.972432e-05
-2.840414e-05
-4.124310e-05
-5.209827e-05
-6.250004e-05
-7.412536e-05
-8.430571e-05
-9.498854e-05
-1.051633e-04
-1.125287e-04
-1.175162e-04
-1.225493e-04
-1.260429e-04
-1.272681e-04
-1.273577e-04
0.000000e+00
-1.539076e-05
-2.494575e-05
-3.685863e-05
-5.228627e-05
-6.518113e-05
-8.001627e-05
-9.406254e-05
-1.087148e-04
-1.241826e-04
-1.420674e-04
-1.568074e-04
-1.655707e-04
-1.705414e-04
-1.728233e-04
-1.730217e-04
-1.728272e-04
0.000000e+00
1.265811e-05
1.995201e-05
3.213050e-05
4.776363e-05
6.440010e-05
8.639064e-05
1.121152e-04
1.416362e-04
1.764982e-04
2.154223e-04
2.595917e-04
3.108593e-04
3.647642e-04
4.262632e-04
4.972447e-04
5.703681e-04
0.000000e+00
7.715073e-06
1.607899e-05
2.604272e-05
4.132735e-05
5.854983e-05
7.994524e-05
1.060392e-04
1.354856e-04
1.701404e-04
2.094061e-04
2.533342e-04
3.041393e-04
3.604903e-04
4.214605e-04
4.898663e-04
5.598668e-04
0.000000e+00
4.296854e-06
1.217012e-05
2.117468e-05
3.556816e-05
5.348374e-05
7.497915e-05
1.011291e-04
1.308071e-04
1.655722e-04
2.049853e-04
2.493310e-04
3.005040e-04
3.585253e-04
4.177153e-04
4.824241e-04
5.500197e-04
0.000000e+00
3.007800e-06
1.015140e-05
1.911119e-05
3.325802e-05
5.128196e-05
7.301914e-05
9.941250e-05
1.293950e-04
1.636618e-04
2.032409e-04
2.486797e-04
3.003482e-04
3.572491e-04
4.151676e-04
4.746764e-04
5.357010e-04
0.000000e+00
2.531371e-06
9.604288e-06
1.873316e-05
3.271245e-05
5.069671e-05
7.248572e-05
9.895520e-05
1.291872e-04
1.629293e-04
2.020452e-04
2.496098e-04
3.012290e-04
3.572807e-04
4.139916e-04
4.683611e-04
5.196830e-04
0.000000e+00
3.123547e-06
1.029636e-05
1.934056e-05
3.343886e-05
5.130812e-05
7.302315e-05
9.907358e-05
1.292893e-04
1.627164e-04
2.026656e-04
2.518364e-04
3.038276e-04
3.573567e-04
4.137454e-04
4.660313e-04
5.089378e-04
0.000000e+00
4.434914e-06
1.240524e-05
2.156390e-05
3.581122e-05
5.363124e-05
7.469205e-05
1.003966e-04
1.297111e-04
1.638522e-04
2.050452e-04
2.551024e-04
3.073150e-04
3.592057e-04
4.126548e-04
4.633012e-04
5.057015e-04
0.000000e+00
7.828356e-06
1.636109e-05
2.646529e-05
4.171614e-05
5.874446e-05
7.977286e-05
1.051833e-04
1.338355e-04
1.681219e-04
2.094374e-04
2.582690e-04
3.102610e-04
3.613835e-04
4.126703e-04
4.612712e-04
5.062521e-04
0.000000e+00
1.275645e-05
2.023924e-05
3.254775e-05
4.816504e-05
6.463243e-05
8.626473e-05
1.113112e-04
1.401361e-04
1.746838e-04
2.160070e-04
2.620627e-04
3.122060e-04
3.627314e-04
4.129183e-04
4.607752e-04
5.065350e-04


5.467957e+00
6.056657e+00
6.845436e+00
5.817913e+00
5.056576e+00
5.246219e+00
5.512106e+00
5.920462e+00
5.837152e+00
5.979347e+00
6.199462e+00
7.088670e+00
8.809385e+00
9.780826e+00
9.104268e+00
7.957508e+00
7.998192e+00
8.421996e+00
8.655156e+00
8.360170e+00
7.895355e+00
7.990139e+00
8.215783e+00
8.250335e+00
8.333026e+00
8.275306e+00
8.376079e+00
8.769955e+00
9.487290e+00
9.795970e+00
8.358780e+00
6.433483e+00
9.828101e+00
9.823836e+00
9.999999e+00
9.834545e+00
9.837353e+00
9.876134e+00
9.832788e+00
9.912732e+00
9.834307e+00
9.878415e+00
9.855321e+00
9.854368e+00
9.870985e+00
9.373854e+00
7.907678e+00
6.090878e+00
9.999681e+00
9.999997e+00
1.000000e+01
1.000000e+01
9.999487e+00
9.999180e+00
9.998391e+00
9.998309e+00
9.995089e+00
9.984406e+00
9.939220e+00
9.430740e+00
8.784491e+00
8.306568e+00
7.815790e+00
7.639546e+00
9.999695e+00
9.999991e+00
1.000000e+01
9.999716e+00
9.998214e+00
9.997037e+00
9.993770e+00
9.991736e+00
9.977328e+00
9.843289e+00
9.258882e+00
8.376198e+00
7.487719e+00
7.526087e+00
8.401840e+00
8.909389e+00
9.830447e+00
9.823810e+00
9.999088e+00
9.829910e+00
9.825723e+00
9.859664e+00
9.799261e+00
9.841918e+00
9.455116e+00
8.760211e+00
8.161987e+00
7.648561e+00
7.805634e+00
8.451812e+00
9.272719e+00
9.851014e+00
8.011647e+00
8.427919e+00
8.653537e+00
8.349204e+00
7.889032e+00
7.977605e+00
8.130133e+00
8.018653e+00
7.697667e+00
7.202261e+00
7.363700e+00
8.307679e+00
9.054063e+00
9.658177e+00
9.940115e+00
9.985184e+00
5.500840e+00
6.069425e+00
6.846507e+00
5.813839e+00
5.068258e+00
5.264556e+00
5.418006e+00
5.733857e+00
5.638445e+00
6.144024e+00
7.690305e+00
9.054251e+00
9.895764e+00
9.977604e+00
9.991222e+00
9.996066e+00


-7.968772e-01
-1.984573e-01
-3.851595e-01
-2.428429e-01
-1.314712e-01
-2.770033e-01
-1.362708e-01
-2.085707e-01
-1.465417e-01
-1.865188e-01
-1.789128e-01
-1.494493e-01
-5.045640e-01
-6.781510e-01
3.205611e-01
-8.476936e-01
6.159451e-01
4.708205e-01
3.035754e-01
2.298792e-01
2.785170e-01
1.700017e-01
1.762540e-01
1.640565e-01
1.171602e-01
1.355642e-01
1.377974e-01
2.471654e-01
2.863824e-01
5.148034e-01
6.983838e-01
-9.479499e-01
7.267019e-01
4.669575e-01
5.901131e-02
-1.064649e-02
-5.907411e-02
-1.736370e-01
-9.681812e-02
-1.432692e-01
-6.975491e-02
-2.782053e-02
4.350295e-02
1.914269e-01
2.782951e-01
1.477259e-01
-1.921861e-02
-1.796441e-01
7.304771e-01
5.527521e-01
1.910511e-01
6.729716e-02
-3.780891e-02
-9.566362e-02
-3.507121e-02
-6.210521e-02
1.778153e-02
2.325960e-02
6.946707e-02
1.188679e-01
5.592627e-02
-2.746651e-01
-3.780645e-01
-6.705626e-02
7.329602e-01
5.564743e-01
1.967020e-01
6.838926e-02
-3.941326e-02
-1.127258e-01
-5.804907e-02
-9.779100e-02
-3.796876e-02
-2.385128e-02
2.142549e-02
1.720242e-02
-3.443841e-02
-1.394167e-01
-1.026333e-01
3.227633e-01
7.323938e-01
4.773608e-01
7.443778e-02
-1.739120e-03
-5.980069e-02
-2.092308e-01
-1.658190e-01
-2.541440e-01
-1.962545e-01
-1.034516e-01
-8.535823e-02
-1.026172e-01
-9.366853e-02
5.231412e-02
3.318431e-01
7.285058e-01
6.185580e-01
4.785032e-01
3.113619e-01
2.390243e-01
2.865135e-01
1.619824e-01
1.400080e-01
7.098715e-02
-5.707758e-02
-4.342075e-02
-1.030894e-01
-7.417574e-02
6.625987e-02
3.734234e-01
7.121168e-01
9.477390e-01
-8.047818e-01
-1.987098e-01
-3.958681e-01
-2.537890e-01
-1.309851e-01
-2.813787e-01
-1.129217e-01
-1.425850e-01
-5.373024e-02
-2.541712e-02
-9.208879e-02
8.193586e-02
3.903810e-01
7.707958e-01
9.521266e-01
9.987097e-01
1 2 19 18
2 3 20 19
3 4 21 20
4 5 22 21
5 6 23 22
6 7 24 23
7 8 25 24
8 9 26 25
9 10 27 26
10 11 28 27
11 12 29 28
12 13 30 29
13 14 31 30
14 15 32 31
15 16 33 32
16 17 34 33
18 19 36 35
19 20 37 36
20 21 38 37
21 22 39 38
22 23 40 39
23 24 41 40
24 25 42 41
25 26 43 42
26 27 44 43
27 28 45 44
28 29 46 45
29 30 47 46
30 31 48 47
31 32 49 48
32 33 50 49
33 34 51 50
35 36 53 52
36 37 54 53
37 38 55 54
38 39 56 55
39 40 57 56
40 41 58 57
41 42 59 58
42 43 60 59
43 44 61 60
44 45 62 61
45 46 63 62
46 47 64 63
47 48 65 64
48 49 66 65
49 50 67 66
50 51 68 67
52 53 70 69
53 54 71 70
54 55 72 71
55 56 73 72
56 57 74 73
57 58 75 74
58 59 76 75
59 60 77 76
60 61 78 77
61 62 79 78
62 63 80 79
63 64 81 80
64 65 82 81
65 66 83 82
66 67 84 83
67 68 85 84
69 70 87 86
70 71 88 87
71 72 89 88
72 73 90 89
73 74 91 90
74 75 92 91
75 76 93 92
76 77 94 93
77 78 95 94
78 79 96 95
79 80 97 96
80 81 98 97
81 82 99 98
82 83 100 99
83 84 101 100
84 85 102 101
86 87 104 103
87 88 105 104
88 89 106 105
89 90 107 106
90 91 108 107
91 92 109 108
92 93 110 109
93 94 111 110
94 95 112 111
95 96 113 112
96 97 114 113
97 98 115 114
98 99 116 115
99 100 117 116
100 101 118 117
101 102 119 118
103 104 121 120
104 105 122 121
105 106 123 122
106 107 124 123
107 108 125 124
108 109 126 125
109 110 127 126
110 111 128 127
111 112 129 128
112 113 130 129
113 114 131 130
114 115 132 131
115 116 133 132
116 117 134 133
117 118 135 134
118 119 136 135
120 121 138 137
121 122 139 138
122 123 140 139
123 124 141 140
124 125 142 141
125 126 143 142
126 127 144 143
127 128 145 144
128 129 146 145
129 130 147 146
130 131 148 147
131 132 149 148
132 133 150 149
133 134 151 150
134 135 152 151
135 136 153 152
