TITLE = "Solution"
VARIABLES = x, y, u, v, psiu, psiv, t, stress
ZONE T="structure" N=153 E=128 F=FEBLOCK ET=QUADRILATERAL VARLOCATION=([7,8]=cellcentered)
0.000000e+00
1.250000e+01
2.500000e+01
3.750000e+01
5.000000e+01
6.250000e+01
7.500000e+01
8.750000e+01
1.000000e+02
1.125000e+02
1.250000e+02
1.375000e+02
1.500000e+02
1.625000e+02
1.750000e+02
1.875000e+02
2.000000e+02
0.000000e+00
1.250000e+01
2.500000e+01
3.750000e+01
5.000000e+01
6.250000e+01
7.500000e+01
8.750000e+01
1.000000e+02
1.125000e+02
1.250000e+02
1.375000e+02
1.500000e+02
1.625000e+02
1.750000e+02
1.875000e+02
2.000000e+02
0.000000e+00
1.250000e+01
2.500000e+01
3.750000e+01
5.000000e+01
6.250000e+01
7.500000e+01
8.750000e+01
1.000000e+02
1.125000e+02
1.250000e+02
1.375000e+02
1.500000e+02
1.625000e+02
1.750000e+02
1.875000e+02
2.000000e+02
0.000000e+00
1.250000e+01
2.500000e+01
3.750000e+01
5.000000e+01
6.250000e+01
7.500000e+01
8.750000e+01
1.000000e+02
1.125000e+02
1.250000e+02
1.375000e+02
1.500000e+02
1.625000e+02
1.750000e+02
1.875000e+02
2.000000e+02
0.000000e+00
1.250000e+01
2.500000e+01
3.750000e+01
5.000000e+01
6.250000e+01
7.500000e+01
8.750000e+01
1.000000e+02
1.125000e+02
1.250000e+02
1.375000e+02
1.500000e+02
1.625000e+02
1.750000e+02
1.875000e+02
2.000000e+02
0.000000e+00
1.250000e+01
2.500000e+01
3.750000e+01
5.000000e+01
6.250000e+01
7.500000e+01
8.750000e+01
1.000000e+02
1.125000e+02
1.250000e+02
1.375000e+02
1.500000e+02
1.625000e+02
1.750000e+02
1.875000e+02
2.000000e+02
0.000000e+00
1.250000e+01
2.500000e+01
3.750000e+01
5.000000e+01
6.250000e+01
7.500000e+01
8.750000e+01
1.000000e+02
1.125000e+02
1.250000e+02
1.375000e+02
1.500000e+02
1.625000e+02
1.750000e+02
1.875000e+02
2.000000e+02
0.000000e+00
1.250000e+01
2.500000e+01
3.750000e+01
5.000000e+01
6.250000e+01
7.500000e+01
8.750000e+01
1.000000e+02
1.125000e+02
1.250000e+02
1.375000e+02
1.500000e+02
1.625000e+02
1.750000e+02
1.875000e+02
2.000000e+02
0.000000e+00
1.250000e+01
2.500000e+01
3.750000e+01
5.000000e+01
6.250000e+01
7.500000e+01
8.750000e+01
1.000000e+02
1.125000e+02
1.250000e+02
1.375000e+02
1.500000e+02
1.625000e+02
1.750000e+02
1.875000e+02
2.000000e+02
0.000000e+00
0.000000e+00
0.000000e+00
0.000000e+00
0.000000e+00
0.000000e+00
0.000000e+00
0.000000e+00
0.000000e+00
0.000000e+00
0.000000e+00
0.000000e+00
0.000000e+00
0.000000e+00
0.000000e+00
0.000000e+00
0.000000e+00
1.250000e+01
1.250000e+01
1.250000e+01
1.250000e+01
1.250000e+01
1.250000e+01
1.250000e+01
1.250000e+01
1.250000e+01
1.250000e+01
1.250000e+01
1.250000e+01
1.250000e+01
1.250000e+01
1.250000e+01
1.250000e+01
1.250000e+01
2.500000e+01
2.500000e+01
2.500000e+01
2.500000e+01
2.500000e+01
2.500000e+01
2.500000e+01
2.500000e+01
2.500000e+01
2.500000e+01
2.500000e+01
2.500000e+01
2.500000e+01
2.500000e+01
2.500000e+01
2.500000e+01
2.500000e+01
3.750000e+01
3.750000e+01
3.750000e+01
3.750000e+01
3.750000e+01
3.750000e+01
3.750000e+01
3.750000e+01
3.750000e+01
3.750000e+01
3.750000e+01
3.750000e+01
3.750000e+01
3.750000e+01
3.750000e+01
3.750000e+01
3.750000e+01
5.000000e+01
5.000000e+01
5.000000e+01
5.000000e+01
5.000000e+01
5.000000e+01
5.000000e+01
5.000000e+01
5.000000e+01
5.000000e+01
5.000000e+01
5.000000e+01
5.000000e+01
5.000000e+01
5.000000e+01
5.000000e+01
5.000000e+01
6.250000e+01
6.250000e+01
6.250000e+01
6.250000e+01
6.250000e+01
6.250000e+01
6.250000e+01
6.250000e+01
6.250000e+01
6.250000e+01
6.250000e+01
6.250000e+01
6.250000e+01
6.250000e+01
6.250000e+01
6.250000e+01
6.250000e+01
7.500000e+01
7.500000e+01
7.500000e+01
7.500000e+01
7.500000e+01
7.500000e+01
7.500000e+01
7.500000e+01
7.500000e+01
7.500000e+01
7.500000e+01
7.500000e+01
7.500000e+01
7.500000e+01
7.500000e+01
7.500000e+01
7.500000e+01
8.750000e+01
8.750000e+01
8.750000e+01
8.750000e+01
8.750000e+01
8.750000e+01
8.750000e+01
8.750000e+01
8.750000e+01
8.750000e+01
8.750000e+01
8.750000e+01
8.750000e+01
8.750000e+01
8.750000e+01
8.750000e+01
8.750000e+01
1.000000e+02
1.000000e+02
1.000000e+02
1.000000e+02
1.000000e+02
1.000000e+02
1.000000e+02
1.000000e+02
1.000000e+02
1.000000e+02
1.000000e+02
1.000000e+02
1.000000e+02
1.000000e+02
1.000000e+02
1.000000e+02
1.000000e+02
0.000000e+00
-3.712233e-01
-6.835214e-01
-9.710801e-01
-1.239230e+00
-1.487322e+00
-1.714721e+00
-1.921167e+00
-2.106896e+00
-2.272714e+00
-2.420232e+00
-2.552312e+00
-2.673899e+00
-2.793551e+00
-2.926029e+00
-3.088692e+00
-3.210734e+00
0.000000e+00
-2.215736e-01
-4.603141e-01
-6.809484e-01
-8.845036e-01
-1.071682e+00
-1.242785e+00
-1.397973e+00
-1.537475e+00
-1.661684e+00
-1.771205e+00
-1.866809e+00
-1.949097e+00
-2.017212e+00
-2.065254e+00
-2.075785e+00
-2.113522e+00
0.000000e+00
-1.384982e-01
-2.848427e-01
-4.309939e-01
-5.676055e-01
-6.931892e-01
-8.075895e-01
-9.108890e-01
-1.003078e+00
-1.083976e+00
-1.153130e+00
-1.209562e+00
-1.251252e+00
-1.274527e+00
-1.275178e+00
-1.265886e+00
-1.304378e+00
0.000000e+00
-6.682801e-02
-1.376130e-01
-2.089297e-01
-2.772112e-01
-3.401772e-01
-3.973067e-01
-4.484103e-01
-4.931767e-01
-5.310095e-01
-5.609316e-01
-5.815240e-01
-5.910966e-01
-5.888597e-01
-5.796703e-01
-5.821812e-01
-6.108457e-01
0.000000e+00
-6.260177e-05
-1.421697e-04
-2.214791e-04
-2.638642e-04
-1.875316e-04
1.699131e-04
1.099900e-03
3.080581e-03
6.824205e-03
1.326003e-02
2.332161e-02
3.726143e-02
5.301490e-02
6.389817e-02
6.091699e-02
4.193612e-02
0.000000e+00
6.673152e-02
1.373892e-01
2.085720e-01
2.767659e-01
3.398130e-01
3.974390e-01
4.499039e-01
4.976453e-01
5.412042e-01
5.811414e-01
6.177464e-01
6.503796e-01
6.765501e-01
6.919463e-01
6.931691e-01
6.835343e-01
0.000000e+00
1.384816e-01
2.847930e-01
4.308959e-01
5.674530e-01
6.929994e-01
8.074305e-01
9.109324e-01
1.003684e+00
1.085825e+00
1.157409e+00
1.218249e+00
1.267637e+00
1.304154e+00
1.326074e+00
1.333191e+00
1.330945e+00
0.000000e+00
2.216642e-01
4.605109e-01
6.812621e-01
8.849245e-01
1.072132e+00
1.243035e+00
1.397501e+00
1.535242e+00
1.655823e+00
1.758644e+00
1.842978e+00
1.908137e+00
1.953900e+00
1.981200e+00
1.992842e+00
1.994980e+00
0.000000e+00
3.713752e-01
6.839226e-01
9.718322e-01
1.240433e+00
1.489015e+00
1.716742e+00
1.922866e+00
2.106632e+00
2.267034e+00
2.402646e+00
2.511635e+00
2.592195e+00
2.643686e+00
2.668588e+00
2.674734e+00
2.674615e+00
0.000000e+00
-2.247437e-01
-4.413782e-01
-7.221793e-01
-1.066875e+00
-1.474846e+00
-1.941669e+00
-2.462154e+00
-3.030784e+00
-3.642102e+00
-4.291061e+00
-4.973638e+00
-5.688186e+00
-6.438531e+00
-7.244187e+00
-8.166294e+00
-9.492029e+00
0.000000e+00
-1.383733e-01
-3.643380e-01
-6.485366e-01
-9.987747e-01
-1.412249e+00
-1.884688e+00
-2.410767e+00
-2.984900e+00
-3.601528e+00
-4.255459e+00
-4.942482e+00
-5.660695e+00
-6.413823e+00
-7.219171e+00
-8.135677e+00
-9.258910e+00
0.000000e+00
-1.044574e-01
-3.109381e-01
-5.961327e-01
-9.496202e-01
-1.367302e+00
-1.844052e+00
-2.374492e+00
-2.953070e+00
-3.574302e+00
-4.233095e+00
-4.925382e+00
-5.649438e+00
-6.408375e+00
-7.214422e+00
-8.082742e+00
-8.923010e+00
0.000000e+00
-9.007965e-02
-2.844063e-01
-5.653816e-01
-9.201133e-01
-1.340337e+00
-1.820039e+00
-2.353638e+00
-2.935682e+00
-3.560838e+00
-4.224118e+00
-4.921376e+00
-5.650067e+00
-6.409846e+00
-7.199727e+00
-7.997424e+00
-8.732109e+00
0.000000e+00
-8.594865e-02
-2.763827e-01
-5.555751e-01
-9.103921e-01
-1.331653e+00
-1.812730e+00
-2.348044e+00
-2.932252e+00
-3.560103e+00
-4.226501e+00
-4.926641e+00
-5.655983e+00
-6.409129e+00
-7.174770e+00
-7.926639e+00
-8.619111e+00
0.000000e+00
-9.002581e-02
-2.843680e-01
-5.654497e-01
-9.204476e-01
-1.341217e+00
-1.821923e+00
-2.357205e+00
-2.941833e+00
-3.570532e+00
-4.237875e+00
-4.938049e+00
-5.664260e+00
-6.407235e+00
-7.152654e+00
-7.878663e+00
-8.556306e+00
0.000000e+00
-1.043695e-01
-3.108746e-01
-5.962461e-01
-9.501833e-01
-1.368791e+00
-1.847244e+00
-2.380548e+00
-2.963526e+00
-3.590815e+00
-4.256623e+00
-4.954243e+00
-5.675246e+00
-6.408456e+00
-7.139380e+00
-7.851411e+00
-8.528602e+00
0.000000e+00
-1.382908e-01
-3.642825e-01
-6.486872e-01
-9.994504e-01
-1.413999e+00
-1.888403e+00
-2.417766e+00
-2.996911e+00
-3.620379e+00
-4.282143e+00
-4.975020e+00
-5.689862e+00
-6.414884e+00
-7.136055e+00
-7.840142e+00
-8.522098e+00
0.000000e+00
-2.247092e-01
-4.413823e-01
-7.224120e-01
-1.067658e+00
-1.476717e+00
-1.945472e+00
-2.469092e+00
-3.042352e+00
-3.659701e+00
-4.314968e+00
-5.000816e+00
-5.708034e+00
-6.425099e+00
-7.138880e+00
-7.838081e+00
-8.522200e+00


0.000000e+00
2.097527e-07
4.331091e-07
6.288638e-07
7.919816e-07
9.229214e-07
1.025042e-06
1.102878e-06
1.160943e-06
1.203384e-06
1.233871e-06
1.255603e-06
1.271416e-06
1.283861e-06
1.295294e-06
1.308968e-06
1.325095e-06
0.000000e+00
1.437649e-07
3.368472e-07
4.918348e-07
6.142506e-07
7.097449e-07
7.827698e-07
8.375196e-07
8.776805e-07
9.064069e-07
9.263397e-07
9.395950e-07
9.477248e-07
9.520986e-07
9.564488e-07
9.677445e-07
9.843756e-07
0.000000e+00
1.065318e-07
2.327814e-07
3.370308e-07
4.197804e-07
4.829256e-07
5.300339e-07
5.644795e-07
5.890396e-07
6.059331e-07
6.169175e-07
6.233838e-07
6.265499e-07
6.280746e-07
6.311169e-07
6.399378e-07
6.534091e-07
0.000000e+00
5.636050e-08
1.149361e-07
1.671100e-07
2.094513e-07
2.415307e-07
2.650361e-07
2.818293e-07
2.934230e-07
3.009890e-07
3.054733e-07
3.077409e-07
3.087803e-07
3.098685e-07
3.123181e-07
3.176366e-07
3.259575e-07
0.000000e+00
-6.399917e-11
-1.466972e-10
-2.587536e-10
-4.174905e-10
-6.471140e-10
-9.792526e-10
-1.451076e-09
-2.095855e-09
-2.919858e-09
-3.858338e-09
-4.711504e-09
-5.109045e-09
-4.669134e-09
-3.316473e-09
-7.810030e-10
3.612944e-09
0.000000e+00
-5.647325e-08
-1.151913e-07
-1.675580e-07
-2.101640e-07
-2.426125e-07
-2.666354e-07
-2.841492e-07
-2.967231e-07
-3.055635e-07
-3.115774e-07
-3.154211e-07
-3.175700e-07
-3.184661e-07
-3.186205e-07
-3.180289e-07
-3.161077e-07
0.000000e+00
-1.065992e-07
-2.329587e-07
-3.373476e-07
-4.202690e-07
-4.836198e-07
-5.309687e-07
-5.656932e-07
-5.905850e-07
-6.079030e-07
-6.194903e-07
-6.268688e-07
-6.313041e-07
-6.338399e-07
-6.352484e-07
-6.357355e-07
-6.351936e-07
0.000000e+00
-1.437997e-07
-3.369836e-07
-4.920679e-07
-6.145692e-07
-7.101149e-07
-7.831196e-07
-8.377293e-07
-8.775854e-07
-9.058277e-07
-9.251527e-07
-9.378595e-07
-9.458667e-07
-9.506945e-07
-9.534326e-07
-9.547052e-07
-9.549133e-07
0.000000e+00
-2.098603e-07
-4.333015e-07
-6.291049e-07
-7.922175e-07
-9.230576e-07
-1.024925e-06
-1.102283e-06
-1.159571e-06
-1.200859e-06
-1.229737e-06
-1.249263e-06
-1.261943e-06
-1.269712e-06
-1.273959e-06
-1.275690e-06
-1.276049e-06
0.000000e+00
1.902875e-07
3.400703e-07
4.965979e-07
6.846225e-07
9.060002e-07
1.156009e-06
1.428655e-06
1.718321e-06
2.020455e-06
2.331618e-06
2.649481e-06
2.973124e-06
3.304581e-06
3.652219e-06
4.020071e-06
4.392176e-06
0.000000e+00
1.017593e-07
2.490218e-07
4.173264e-07
6.204956e-07
8.559976e-07
1.118095e-06
1.400536e-06
1.697955e-06
2.006081e-06
2.321753e-06
2.642894e-06
2.968663e-06
3.300023e-06
3.640925e-06
3.999048e-06
4.365440e-06
0.000000e+00
4.995578e-08
1.780220e-07
3.557608e-07
5.711190e-07
8.181242e-07
1.089760e-06
1.379817e-06
1.683208e-06
1.995961e-06
2.315159e-06
2.638890e-06
2.966152e-06
3.296387e-06
3.629885e-06
3.976713e-06
4.333685e-06
0.000000e+00
2.883473e-08
1.449681e-07
3.235949e-07
5.451457e-07
7.984096e-07
1.075226e-06
1.369358e-06
1.675931e-06
1.991167e-06
2.312263e-06
2.637270e-06
2.964828e-06
3.293544e-06
3.622985e-06
3.960771e-06
4.305824e-06
0.000000e+00
2.360716e-08
1.360295e-07
3.138083e-07
5.370881e-07
7.923397e-07
1.070838e-06
1.366310e-06
1.673958e-06
1.990059e-06
2.311788e-06
2.637066e-06
2.964289e-06
3.292004e-06
3.619628e-06
3.951494e-06
4.285833e-06
0.000000e+00
2.886839e-08
1.450159e-07
3.236641e-07
5.452517e-07
7.985864e-07
1.075529e-06
1.369863e-06
1.676710e-06
1.992249e-06
2.313531e-06
2.638324e-06
2.964906e-06
3.291911e-06
3.618708e-06
3.946823e-06
4.274124e-06
0.000000e+00
5.001044e-08
1.781109e-07
3.558999e-07
5.713367e-07
8.184849e-07
1.090367e-06
1.380804e-06
1.684713e-06
1.998046e-06
2.317658e-06
2.641140e-06
2.966652e-06
3.292817e-06
3.618811e-06
3.944641e-06
4.268480e-06
0.000000e+00
1.018439e-07
2.491816e-07
4.175660e-07
6.208498e-07
8.565391e-07
1.118937e-06
1.401828e-06
1.699844e-06
2.008639e-06
2.324811e-06
2.645733e-06
2.969391e-06
3.294268e-06
3.619299e-06
3.943774e-06
4.266480e-06
0.000000e+00
1.904355e-07
3.403186e-07
4.969427e-07
6.850906e-07
9.066482e-07
1.156925e-06
1.429952e-06
1.720107e-06
2.022766e-06
2.334261e-06
2.651727e-06
2.972928e-06
3.296142e-06
3.620072e-06
3.943695e-06
4.266119e-06


1.083201e+00
1.083223e+00
1.084239e+00
1.085960e+00
1.087502e+00
1.088727e+00
1.089668e+00
1.090369e+00
1.090875e+00
1.091228e+00
1.091465e+00
1.091610e+00
1.091659e+00
1.091544e+00
1.091286e+00
1.091090e+00
1.084971e+00
1.084955e+00
1.085728e+00
1.087102e+00
1.088347e+00
1.089335e+00
1.090093e+00
1.090656e+00
1.091062e+00
1.091345e+00
1.091534e+00
1.091647e+00
1.091674e+00
1.091546e+00
1.091290e+00
1.091098e+00
1.087928e+00
1.087870e+00
1.088284e+00
1.089062e+00
1.089777e+00
1.090356e+00
1.090800e+00
1.091128e+00
1.091363e+00
1.091526e+00
1.091633e+00
1.091694e+00
1.091697e+00
1.091584e+00
1.091378e+00
1.091232e+00
1.090032e+00
1.089971e+00
1.090123e+00
1.090449e+00
1.090784e+00
1.091067e+00
1.091285e+00
1.091444e+00
1.091557e+00
1.091633e+00
1.091682e+00
1.091709e+00
1.091706e+00
1.091644e+00
1.091533e+00
1.091456e+00
1.090031e+00
1.089970e+00
1.090121e+00
1.090447e+00
1.090781e+00
1.091062e+00
1.091278e+00
1.091434e+00
1.091543e+00
1.091617e+00
1.091665e+00
1.091695e+00
1.091710e+00
1.091698e+00
1.091666e+00
1.091644e+00
1.087925e+00
1.087866e+00
1.088279e+00
1.089055e+00
1.089768e+00
1.090345e+00
1.090785e+00
1.091108e+00
1.091337e+00
1.091495e+00
1.091601e+00
1.091671e+00
1.091717e+00
1.091743e+00
1.091754e+00
1.091759e+00
1.084965e+00
1.084948e+00
1.085720e+00
1.087094e+00
1.088338e+00
1.089326e+00
1.090084e+00
1.090647e+00
1.091051e+00
1.091333e+00
1.091523e+00
1.091647e+00
1.091726e+00
1.091775e+00
1.091803e+00
1.091816e+00
1.083194e+00
1.083215e+00
1.084230e+00
1.085951e+00
1.087495e+00
1.088723e+00
1.089668e+00
1.090373e+00
1.090884e+00
1.091241e+00
1.091482e+00
1.091638e+00
1.091735e+00
1.091792e+00
1.091824e+00
1.091838e+00


6.900774e-01
7.340105e-01
7.743379e-01
8.051615e-01
8.339308e-01
8.606271e-01
8.850708e-01
9.069233e-01
9.259147e-01
9.418286e-01
9.544989e-01
9.637886e-01
9.695685e-01
9.716391e-01
9.731400e-01
8.814688e-01
8.828461e-01
8.626301e-01
8.753749e-01
8.920222e-01
9.076293e-01
9.219035e-01
9.348921e-01
9.467034e-01
9.574291e-01
9.671647e-01
9.760102e-01
9.840272e-01
9.910254e-01
9.956103e-01
9.840322e-01
8.270855e-01
9.592984e-01
9.476655e-01
9.444290e-01
9.487085e-01
9.544134e-01
9.599776e-01
9.651727e-01
9.701043e-01
9.748976e-01
9.795824e-01
9.839636e-01
9.873586e-01
9.880674e-01
9.819520e-01
9.597714e-01
9.198811e-01
9.916842e-01
9.832051e-01
9.779447e-01
9.765792e-01
9.770733e-01
9.779353e-01
9.788047e-01
9.796622e-01
9.805094e-01
9.812213e-01
9.814169e-01
9.803445e-01
9.769494e-01
9.708592e-01
9.656987e-01
9.643952e-01
9.917157e-01
9.832497e-01
9.779846e-01
9.765713e-01
9.769411e-01
9.775531e-01
9.779760e-01
9.781090e-01
9.778904e-01
9.772205e-01
9.759826e-01
9.742030e-01
9.725098e-01
9.728458e-01
9.776280e-01
9.859050e-01
9.593578e-01
9.477552e-01
9.445151e-01
9.487101e-01
9.541875e-01
9.592780e-01
9.636054e-01
9.670965e-01
9.697172e-01
9.714844e-01
9.726027e-01
9.736998e-01
9.760123e-01
9.808645e-01
9.881545e-01
9.956922e-01
8.828362e-01
8.626233e-01
8.753585e-01
8.919746e-01
9.075054e-01
9.216188e-01
9.343012e-01
9.455744e-01
9.554255e-01
9.638634e-01
9.710168e-01
9.772706e-01
9.832970e-01
9.896174e-01
9.955286e-01
9.992516e-01
6.898667e-01
7.336799e-01
7.739318e-01
8.047045e-01
8.335190e-01
8.604771e-01
8.855801e-01
9.087201e-01
9.298640e-01
9.489429e-01
9.657095e-01
9.796294e-01
9.899893e-01
9.963824e-01
9.992910e-01
9.999850e-01
1 2 19 18
2 3 20 19
3 4 21 20
4 5 22 21
5 6 23 22
6 7 24 23
7 8 25 24
8 9 26 25
9 10 27 26
10 11 28 27
11 12 29 28
12 13 30 29
13 14 31 30
14 15 32 31
15 16 33 32
16 17 34 33
18 19 36 35
19 20 37 36
20 21 38 37
21 22 39 38
22 23 40 39
23 24 41 40
24 25 42 41
25 26 43 42
26 27 44 43
27 28 45 44
28 29 46 45
29 30 47 46
30 31 48 47
31 32 49 48
32 33 50 49
33 34 51 50
35 36 53 52
36 37 54 53
37 38 55 54
38 39 56 55
39 40 57 56
40 41 58 57
41 42 59 58
42 43 60 59
43 44 61 60
44 45 62 61
45 46 63 62
46 47 64 63
47 48 65 64
48 49 66 65
49 50 67 66
50 51 68 67
52 53 70 69
53 54 71 70
54 55 72 71
55 56 73 72
56 57 74 73
57 58 75 74
58 59 76 75
59 60 77 76
60 61 78 77
61 62 79 78
62 63 80 79
63 64 81 80
64 65 82 81
65 66 83 82
66 67 84 83
67 68 85 84
69 70 87 86
70 71 88 87
71 72 89 88
72 73 90 89
73 74 91 90
74 75 92 91
75 76 93 92
76 77 94 93
77 78 95 94
78 79 96 95
79 80 97 96
80 81 98 97
81 82 99 98
82 83 100 99
83 84 101 100
84 85 102 101
86 87 104 103
87 88 105 104
88 89 106 105
89 90 107 106
90 91 108 107
91 92 109 108
92 93 110 109
93 94 111 110
94 95 112 111
95 96 113 112
96 97 114 113
97 98 115 114
98 99 116 115
99 100 117 116
100 101 118 117
101 102 119 118
103 104 121 120
104 105 122 121
105 106 123 122
106 107 124 123
107 108 125 124
108 109 126 125
109 110 127 126
110 111 128 127
111 112 129 128
112 113 130 129
113 114 131 130
114 115 132 131
115 116 133 132
116 117 134 133
117 118 135 134
118 119 136 135
120 121 138 137
121 122 139 138
122 123 140 139
123 124 141 140
124 125 142 141
125 126 143 142
126 127 144 143
127 128 145 144
128 129 146 145
129 130 147 146
130 131 148 147
131 132 149 148
132 133 150 149
133 134 151 150
134 135 152 151
135 136 153 152
