TITLE = "Solution"
VARIABLES = x, y, u, v, psiu, psiv, t, stress
ZONE T="structure" N=153 E=128 F=FEBLOCK ET=QUADRILATERAL VARLOCATION=([7,8]=cellcentered)
0.000000e+00
1.250000e+01
2.500000e+01
3.750000e+01
5.000000e+01
6.250000e+01
7.500000e+01
8.750000e+01
1.000000e+02
1.125000e+02
1.250000e+02
1.375000e+02
1.500000e+02
1.625000e+02
1.750000e+02
1.875000e+02
2.000000e+02
0.000000e+00
1.250000e+01
2.500000e+01
3.750000e+01
5.000000e+01
6.250000e+01
7.500000e+01
8.750000e+01
1.000000e+02
1.125000e+02
1.250000e+02
1.375000e+02
1.500000e+02
1.625000e+02
1.750000e+02
1.875000e+02
2.000000e+02
0.000000e+00
1.250000e+01
2.500000e+01
3.750000e+01
5.000000e+01
6.250000e+01
7.500000e+01
8.750000e+01
1.000000e+02
1.125000e+02
1.250000e+02
1.375000e+02
1.500000e+02
1.625000e+02
1.750000e+02
1.875000e+02
2.000000e+02
0.000000e+00
1.250000e+01
2.500000e+01
3.750000e+01
5.000000e+01
6.250000e+01
7.500000e+01
8.750000e+01
1.000000e+02
1.125000e+02
1.250000e+02
1.375000e+02
1.500000e+02
1.625000e+02
1.750000e+02
1.875000e+02
2.000000e+02
0.000000e+00
1.250000e+01
2.500000e+01
3.750000e+01
5.000000e+01
6.250000e+01
7.500000e+01
8.750000e+01
1.000000e+02
1.125000e+02
1.250000e+02
1.375000e+02
1.500000e+02
1.625000e+02
1.750000e+02
1.875000e+02
2.000000e+02
0.000000e+00
1.250000e+01
2.500000e+01
3.750000e+01
5.000000e+01
6.250000e+01
7.500000e+01
8.750000e+01
1.000000e+02
1.125000e+02
1.250000e+02
1.375000e+02
1.500000e+02
1.625000e+02
1.750000e+02
1.875000e+02
2.000000e+02
0.000000e+00
1.250000e+01
2.500000e+01
3.750000e+01
5.000000e+01
6.250000e+01
7.500000e+01
8.750000e+01
1.000000e+02
1.125000e+02
1.250000e+02
1.375000e+02
1.500000e+02
1.625000e+02
1.750000e+02
1.875000e+02
2.000000e+02
0.000000e+00
1.250000e+01
2.500000e+01
3.750000e+01
5.000000e+01
6.250000e+01
7.500000e+01
8.750000e+01
1.000000e+02
1.125000e+02
1.250000e+02
1.375000e+02
1.500000e+02
1.625000e+02
1.750000e+02
1.875000e+02
2.000000e+02
0.000000e+00
1.250000e+01
2.500000e+01
3.750000e+01
5.000000e+01
6.250000e+01
7.500000e+01
8.750000e+01
1.000000e+02
1.125000e+02
1.250000e+02
1.375000e+02
1.500000e+02
1.625000e+02
1.750000e+02
1.875000e+02
2.000000e+02
0.000000e+00
0.000000e+00
0.000000e+00
0.000000e+00
0.000000e+00
0.000000e+00
0.000000e+00
0.000000e+00
0.000000e+00
0.000000e+00
0.000000e+00
0.000000e+00
0.000000e+00
0.000000e+00
0.000000e+00
0.000000e+00
0.000000e+00
1.250000e+01
1.250000e+01
1.250000e+01
1.250000e+01
1.250000e+01
1.250000e+01
1.250000e+01
1.250000e+01
1.250000e+01
1.250000e+01
1.250000e+01
1.250000e+01
1.250000e+01
1.250000e+01
1.250000e+01
1.250000e+01
1.250000e+01
2.500000e+01
2.500000e+01
2.500000e+01
2.500000e+01
2.500000e+01
2.500000e+01
2.500000e+01
2.500000e+01
2.500000e+01
2.500000e+01
2.500000e+01
2.500000e+01
2.500000e+01
2.500000e+01
2.500000e+01
2.500000e+01
2.500000e+01
3.750000e+01
3.750000e+01
3.750000e+01
3.750000e+01
3.750000e+01
3.750000e+01
3.750000e+01
3.750000e+01
3.750000e+01
3.750000e+01
3.750000e+01
3.750000e+01
3.750000e+01
3.750000e+01
3.750000e+01
3.750000e+01
3.750000e+01
5.000000e+01
5.000000e+01
5.000000e+01
5.000000e+01
5.000000e+01
5.000000e+01
5.000000e+01
5.000000e+01
5.000000e+01
5.000000e+01
5.000000e+01
5.000000e+01
5.000000e+01
5.000000e+01
5.000000e+01
5.000000e+01
5.000000e+01
6.250000e+01
6.250000e+01
6.250000e+01
6.250000e+01
6.250000e+01
6.250000e+01
6.250000e+01
6.250000e+01
6.250000e+01
6.250000e+01
6.250000e+01
6.250000e+01
6.250000e+01
6.250000e+01
6.250000e+01
6.250000e+01
6.250000e+01
7.500000e+01
7.500000e+01
7.500000e+01
7.500000e+01
7.500000e+01
7.500000e+01
7.500000e+01
7.500000e+01
7.500000e+01
7.500000e+01
7.500000e+01
7.500000e+01
7.500000e+01
7.500000e+01
7.500000e+01
7.500000e+01
7.500000e+01
8.750000e+01
8.750000e+01
8.750000e+01
8.750000e+01
8.750000e+01
8.750000e+01
8.750000e+01
8.750000e+01
8.750000e+01
8.750000e+01
8.750000e+01
8.750000e+01
8.750000e+01
8.750000e+01
8.750000e+01
8.750000e+01
8.750000e+01
1.000000e+02
1.000000e+02
1.000000e+02
1.000000e+02
1.000000e+02
1.000000e+02
1.000000e+02
1.000000e+02
1.000000e+02
1.000000e+02
1.000000e+02
1.000000e+02
1.000000e+02
1.000000e+02
1.000000e+02
1.000000e+02
1.000000e+02
0.000000e+00
-7.717903e-01
-1.416921e+00
-2.033239e+00
-2.647854e+00
-3.249327e+00
-3.828380e+00
-4.377742e+00
-4.890276e+00
-5.360614e+00
-5.787179e+00
-6.173827e+00
-6.531934e+00
-6.883925e+00
-7.268900e+00
-7.732909e+00
-8.077083e+00
0.000000e+00
-4.458792e-01
-9.300539e-01
-1.396760e+00
-1.859452e+00
-2.311161e+00
-2.745533e+00
-3.157566e+00
-3.541909e+00
-3.893831e+00
-4.210307e+00
-4.490179e+00
-4.732974e+00
-4.934498e+00
-5.075725e+00
-5.106744e+00
-5.214269e+00
0.000000e+00
-2.690890e-01
-5.601651e-01
-8.687531e-01
-1.178272e+00
-1.480385e+00
-1.770317e+00
-2.044169e+00
-2.297666e+00
-2.526372e+00
-2.725788e+00
-2.890751e+00
-3.013823e+00
-3.083213e+00
-3.086097e+00
-3.059869e+00
-3.170105e+00
0.000000e+00
-1.268209e-01
-2.661400e-01
-4.168086e-01
-5.713947e-01
-7.226438e-01
-8.672588e-01
-1.002471e+00
-1.125168e+00
-1.231654e+00
-1.317476e+00
-1.377278e+00
-1.405275e+00
-1.398635e+00
-1.371494e+00
-1.378453e+00
-1.461423e+00
0.000000e+00
-2.953893e-04
-6.397425e-04
-9.785011e-04
-1.203853e-03
-1.078086e-03
-1.258123e-04
2.514220e-03
8.265836e-03
1.925880e-02
3.827724e-02
6.812835e-02
1.096104e-01
1.566429e-01
1.893950e-01
1.812079e-01
1.257080e-01
0.000000e+00
1.263295e-01
2.650615e-01
4.151245e-01
5.692444e-01
7.205327e-01
8.664235e-01
1.005479e+00
1.136813e+00
1.260121e+00
1.375533e+00
1.482792e+00
1.579266e+00
1.657092e+00
1.703148e+00
1.707143e+00
1.678806e+00
0.000000e+00
2.688652e-01
5.596397e-01
8.678568e-01
1.176981e+00
1.478780e+00
1.768668e+00
2.043065e+00
2.298241e+00
2.530669e+00
2.737299e+00
2.915254e+00
3.060917e+00
3.169157e+00
3.234328e+00
3.255579e+00
3.248984e+00
0.000000e+00
4.459908e-01
9.302495e-01
1.397020e+00
1.859742e+00
2.311321e+00
2.745045e+00
3.155085e+00
3.534516e+00
3.876036e+00
4.172922e+00
4.419473e+00
4.611403e+00
4.746770e+00
4.827693e+00
4.862233e+00
4.868588e+00
0.000000e+00
7.720645e-01
1.417683e+00
2.034703e+00
2.650296e+00
3.252949e+00
3.832914e+00
4.381557e+00
4.888756e+00
5.343614e+00
5.735384e+00
6.053979e+00
6.291093e+00
6.443167e+00
6.516785e+00
6.534908e+00
6.534527e+00
0.000000e+00
-4.712250e-01
-9.472075e-01
-1.574731e+00
-2.352706e+00
-3.282637e+00
-4.360926e+00
-5.580600e+00
-6.931674e+00
-8.402528e+00
-9.981248e+00
-1.165775e+01
-1.342794e+01
-1.530255e+01
-1.733653e+01
-1.970264e+01
-2.321147e+01
0.000000e+00
-2.925587e-01
-7.871638e-01
-1.412784e+00
-2.192939e+00
-3.127621e+00
-4.212924e+00
-5.441548e+00
-6.803419e+00
-8.286382e+00
-9.877650e+00
-1.156615e+01
-1.334674e+01
-1.523000e+01
-1.726463e+01
-1.961622e+01
-2.255100e+01
0.000000e+00
-2.267804e-01
-6.775266e-01
-1.299433e+00
-2.079670e+00
-3.017836e+00
-4.108605e+00
-5.344446e+00
-6.715303e+00
-8.209055e+00
-9.812917e+00
-1.151592e+01
-1.331327e+01
-1.521378e+01
-1.725135e+01
-1.946606e+01
-2.159702e+01
0.000000e+00
-2.045199e-01
-6.258083e-01
-1.234330e+00
-2.013172e+00
-2.953324e+00
-4.048158e+00
-5.289730e+00
-6.668146e+00
-8.171589e+00
-9.787451e+00
-1.150437e+01
-1.331501e+01
-1.521805e+01
-1.720916e+01
-1.922137e+01
-2.104872e+01
0.000000e+00
-1.995942e-01
-6.110968e-01
-1.214131e+00
-1.991711e+00
-2.933058e+00
-4.030328e+00
-5.275699e+00
-6.659538e+00
-8.170247e+00
-9.794853e+00
-1.152001e+01
-1.333245e+01
-1.521597e+01
-1.713638e+01
-1.901554e+01
-2.071929e+01
0.000000e+00
-2.043484e-01
-6.257016e-01
-1.234561e+00
-2.014190e+00
-2.955921e+00
-4.053645e+00
-5.300100e+00
-6.686062e+00
-8.199922e+00
-9.827782e+00
-1.155336e+01
-1.335674e+01
-1.521033e+01
-1.707128e+01
-1.887453e+01
-2.053438e+01
0.000000e+00
-2.264964e-01
-6.773388e-01
-1.299788e+00
-2.081331e+00
-3.022145e+00
-4.117791e+00
-5.361904e+00
-6.745593e+00
-8.257138e+00
-9.881707e+00
-1.160052e+01
-1.338895e+01
-1.521383e+01
-1.703197e+01
-1.879395e+01
-2.045250e+01
0.000000e+00
-2.922730e-01
-7.869627e-01
-1.413194e+00
-2.194855e+00
-3.132595e+00
-4.223509e+00
-5.461598e+00
-6.838059e+00
-8.341085e+00
-9.955436e+00
-1.166122e+01
-1.343192e+01
-1.523276e+01
-1.702207e+01
-1.876055e+01
-2.043331e+01
0.000000e+00
-4.710320e-01
-9.471095e-01
-1.575295e+00
-2.354849e+00
-3.287901e+00
-4.371746e+00
-5.600495e+00
-6.965050e+00
-8.453549e+00
-1.005078e+01
-1.173687e+01
-1.348550e+01
-1.526295e+01
-1.703040e+01
-1.875442e+01
-2.043364e+01


0.000000e+00
6.240194e-06
1.266617e-05
1.839812e-05
2.354938e-05
2.800760e-05
3.164157e-05
3.444711e-05
3.651578e-05
3.798184e-05
3.898720e-05
3.966417e-05
4.013157e-05
4.049725e-05
4.085801e-05
4.135355e-05
4.199362e-05
0.000000e+00
4.541979e-06
1.014739e-05
1.454995e-05
1.838390e-05
2.167589e-05
2.431654e-05
2.630445e-05
2.772799e-05
2.870236e-05
2.933900e-05
2.973163e-05
2.994671e-05
3.003161e-05
3.012335e-05
3.052376e-05
3.117966e-05
0.000000e+00
3.350059e-06
6.969761e-06
9.932467e-06
1.252587e-05
1.469627e-05
1.641575e-05
1.769742e-05
1.859805e-05
1.919115e-05
1.955042e-05
1.973957e-05
1.981081e-05
1.982606e-05
1.990275e-05
2.022169e-05
2.074506e-05
0.000000e+00
1.672325e-06
3.255880e-06
4.810625e-06
6.152428e-06
7.251488e-06
8.118101e-06
8.767113e-06
9.220275e-06
9.509317e-06
9.671484e-06
9.745521e-06
9.773886e-06
9.807105e-06
9.890077e-06
1.007667e-05
1.038024e-05
0.000000e+00
-3.166939e-09
-6.747418e-09
-1.078971e-08
-1.575456e-08
-2.245627e-08
-3.211256e-08
-4.608311e-08
-6.540848e-08
-8.997260e-08
-1.170475e-07
-1.391268e-07
-1.428073e-07
-1.157476e-07
-6.308778e-08
1.743801e-08
1.602603e-07
0.000000e+00
-1.678185e-06
-3.267970e-06
-4.830215e-06
-6.181025e-06
-7.291514e-06
-8.173332e-06
-8.842990e-06
-9.323855e-06
-9.648478e-06
-9.852501e-06
-9.967606e-06
-1.001905e-05
-1.003011e-05
-1.002696e-05
-1.001240e-05
-9.956721e-06
0.000000e+00
-3.353725e-06
-6.978682e-06
-9.948297e-06
-1.255056e-05
-1.473043e-05
-1.645817e-05
-1.774556e-05
-1.864969e-05
-1.924661e-05
-1.961501e-05
-1.982600e-05
-1.993795e-05
-1.999592e-05
-2.002999e-05
-2.004497e-05
-2.003038e-05
0.000000e+00
-4.543432e-06
-1.015313e-05
-1.456175e-05
-1.840433e-05
-2.170442e-05
-2.434758e-05
-2.632798e-05
-2.773270e-05
-2.867951e-05
-2.928639e-05
-2.965755e-05
-2.987625e-05
-3.000260e-05
-3.007443e-05
-3.010869e-05
-3.011379e-05
0.000000e+00
-6.243400e-06
-1.267173e-05
-1.840716e-05
-2.356336e-05
-2.802471e-05
-3.165436e-05
-3.444313e-05
-3.648061e-05
-3.790238e-05
-3.885292e-05
-3.946377e-05
-3.984157e-05
-4.006401e-05
-4.018158e-05
-4.022687e-05
-4.023469e-05
0.000000e+00
5.550696e-06
9.625414e-06
1.416819e-05
1.989008e-05
2.666036e-05
3.431216e-05
4.270204e-05
5.167789e-05
6.109378e-05
7.082730e-05
8.078947e-05
9.093794e-05
1.013386e-04
1.123458e-04
1.242090e-04
1.362987e-04
0.000000e+00
2.823648e-06
6.958555e-06
1.173970e-05
1.773756e-05
2.485735e-05
3.290380e-05
4.166206e-05
5.094626e-05
6.060154e-05
7.051021e-05
8.059373e-05
9.081836e-05
1.012171e-04
1.119449e-04
1.233825e-04
1.352194e-04
0.000000e+00
1.243551e-06
4.905854e-06
9.953706e-06
1.617743e-05
2.356090e-05
3.188742e-05
4.091132e-05
5.042206e-05
6.025730e-05
7.030094e-05
8.048042e-05
9.076082e-05
1.011209e-04
1.115514e-04
1.225154e-04
1.339635e-04
0.000000e+00
7.227058e-07
4.013370e-06
9.070719e-06
1.543466e-05
2.294777e-05
3.139524e-05
4.053748e-05
5.015804e-05
6.008711e-05
7.020419e-05
8.043299e-05
9.072606e-05
1.010322e-04
1.113220e-04
1.219368e-04
1.329149e-04
0.000000e+00
6.223107e-07
3.779524e-06
8.788388e-06
1.520523e-05
2.276126e-05
3.124486e-05
4.042308e-05
5.007988e-05
6.004162e-05
7.018357e-05
8.042342e-05
9.070529e-05
1.009806e-04
1.112324e-04
1.216480e-04
1.322150e-04
0.000000e+00
7.234585e-07
4.013686e-06
9.070249e-06
1.543395e-05
2.294873e-05
3.140071e-05
4.055040e-05
5.018059e-05
6.011930e-05
7.024119e-05
8.046062e-05
9.071948e-05
1.009771e-04
1.112242e-04
1.215274e-04
1.318340e-04
0.000000e+00
1.244721e-06
4.906612e-06
9.953640e-06
1.617749e-05
2.356454e-05
3.189967e-05
4.093744e-05
5.046616e-05
6.032007e-05
7.037554e-05
8.054478e-05
9.076744e-05
1.010042e-04
1.112383e-04
1.214755e-04
1.316623e-04
0.000000e+00
2.826008e-06
6.961986e-06
1.174360e-05
1.774299e-05
2.486727e-05
3.292277e-05
4.169539e-05
5.099878e-05
6.067512e-05
7.059938e-05
8.067740e-05
9.084098e-05
1.010433e-04
1.112550e-04
1.214544e-04
1.316062e-04
0.000000e+00
5.555521e-06
9.632692e-06
1.417795e-05
1.990288e-05
2.667687e-05
3.433407e-05
4.273254e-05
5.172117e-05
6.115266e-05
7.089835e-05
8.085390e-05
9.093862e-05
1.010933e-04
1.112761e-04
1.214529e-04
1.315977e-04


2.100520e+00
2.096796e+00
2.208024e+00
2.392601e+00
2.557878e+00
2.710949e+00
2.853372e+00
2.975423e+00
3.070890e+00
3.139827e+00
3.185920e+00
3.213295e+00
3.220665e+00
3.192446e+00
3.132745e+00
3.087264e+00
2.353731e+00
2.346268e+00
2.427339e+00
2.569735e+00
2.699046e+00
2.819967e+00
2.933373e+00
3.030811e+00
3.107140e+00
3.162252e+00
3.198922e+00
3.220175e+00
3.223781e+00
3.193684e+00
3.135202e+00
3.091359e+00
2.760658e+00
2.750338e+00
2.789887e+00
2.863929e+00
2.932868e+00
3.000553e+00
3.064961e+00
3.120714e+00
3.164669e+00
3.196457e+00
3.217380e+00
3.228918e+00
3.228681e+00
3.203698e+00
3.157527e+00
3.124165e+00
3.038944e+00
3.029875e+00
3.040272e+00
3.065344e+00
3.093946e+00
3.124454e+00
3.154181e+00
3.180339e+00
3.201293e+00
3.216543e+00
3.226495e+00
3.231879e+00
3.231440e+00
3.218067e+00
3.193220e+00
3.175415e+00
3.038857e+00
3.029742e+00
3.040049e+00
3.064979e+00
3.093389e+00
3.123642e+00
3.153020e+00
3.178717e+00
3.199142e+00
3.213939e+00
3.223776e+00
3.229878e+00
3.232599e+00
3.229656e+00
3.221544e+00
3.215538e+00
2.760275e+00
2.749805e+00
2.789097e+00
2.862822e+00
2.931436e+00
2.998799e+00
3.062796e+00
3.117918e+00
3.161004e+00
3.191923e+00
3.212566e+00
3.225709e+00
3.233748e+00
3.237552e+00
3.238154e+00
3.237880e+00
2.352916e+00
2.345207e+00
2.425922e+00
2.568033e+00
2.697301e+00
2.818528e+00
2.932444e+00
3.030278e+00
3.106620e+00
3.161395e+00
3.197915e+00
3.220832e+00
3.234576e+00
3.242353e+00
3.246318e+00
3.247922e+00
2.099409e+00
2.095390e+00
2.206246e+00
2.390641e+00
2.556195e+00
2.710181e+00
2.854001e+00
2.977485e+00
3.073960e+00
3.143294e+00
3.189534e+00
3.218358e+00
3.235294e+00
3.244702e+00
3.249499e+00
3.251508e+00


-3.076623e-01
-1.205470e-01
-2.707289e-02
-1.725914e-02
2.687370e-02
9.787410e-02
1.871910e-01
2.918280e-01
4.043107e-01
5.137749e-01
6.099838e-01
6.853323e-01
7.355578e-01
7.592371e-01
7.805973e-01
5.357837e-02
5.316775e-01
4.292586e-01
4.319081e-01
4.343339e-01
4.555288e-01
4.909282e-01
5.367107e-01
5.926752e-01
6.566969e-01
7.250131e-01
7.939243e-01
8.604742e-01
9.209171e-01
9.618314e-01
8.693641e-01
-3.919968e-01
8.380527e-01
7.717941e-01
7.288563e-01
7.169295e-01
7.197862e-01
7.299081e-01
7.456866e-01
7.675179e-01
7.953770e-01
8.279648e-01
8.619145e-01
8.898269e-01
8.959327e-01
8.450179e-01
6.637658e-01
3.393127e-01
9.568353e-01
9.086830e-01
8.719618e-01
8.536079e-01
8.458499e-01
8.415197e-01
8.389054e-01
8.380659e-01
8.391074e-01
8.409194e-01
8.399361e-01
8.291678e-01
7.990989e-01
7.472855e-01
7.060978e-01
6.974510e-01
9.571194e-01
9.090597e-01
8.723281e-01
8.536597e-01
8.449975e-01
8.387327e-01
8.324905e-01
8.255346e-01
8.173228e-01
8.068994e-01
7.929950e-01
7.754785e-01
7.595954e-01
7.625152e-01
8.050823e-01
8.777352e-01
8.386815e-01
7.726578e-01
7.297538e-01
7.172802e-01
7.184556e-01
7.248587e-01
7.335277e-01
7.431601e-01
7.521743e-01
7.590302e-01
7.638295e-01
7.707139e-01
7.896708e-01
8.318977e-01
8.960096e-01
9.622797e-01
5.320494e-01
4.298071e-01
4.324787e-01
4.346823e-01
4.551502e-01
4.889930e-01
5.319509e-01
5.831710e-01
6.396410e-01
6.967686e-01
7.509870e-01
8.020398e-01
8.535133e-01
9.087008e-01
9.606796e-01
9.934361e-01
-3.082328e-01
-1.216164e-01
-2.847759e-02
-1.915727e-02
2.480640e-02
9.693810e-02
1.905683e-01
3.053089e-01
4.362261e-01
5.738155e-01
7.067755e-01
8.232937e-01
9.124873e-01
9.682682e-01
9.937818e-01
9.998693e-01
1 2 19 18
2 3 20 19
3 4 21 20
4 5 22 21
5 6 23 22
6 7 24 23
7 8 25 24
8 9 26 25
9 10 27 26
10 11 28 27
11 12 29 28
12 13 30 29
13 14 31 30
14 15 32 31
15 16 33 32
16 17 34 33
18 19 36 35
19 20 37 36
20 21 38 37
21 22 39 38
22 23 40 39
23 24 41 40
24 25 42 41
25 26 43 42
26 27 44 43
27 28 45 44
28 29 46 45
29 30 47 46
30 31 48 47
31 32 49 48
32 33 50 49
33 34 51 50
35 36 53 52
36 37 54 53
37 38 55 54
38 39 56 55
39 40 57 56
40 41 58 57
41 42 59 58
42 43 60 59
43 44 61 60
44 45 62 61
45 46 63 62
46 47 64 63
47 48 65 64
48 49 66 65
49 50 67 66
50 51 68 67
52 53 70 69
53 54 71 70
54 55 72 71
55 56 73 72
56 57 74 73
57 58 75 74
58 59 76 75
59 60 77 76
60 61 78 77
61 62 79 78
62 63 80 79
63 64 81 80
64 65 82 81
65 66 83 82
66 67 84 83
67 68 85 84
69 70 87 86
70 71 88 87
71 72 89 88
72 73 90 89
73 74 91 90
74 75 92 91
75 76 93 92
76 77 94 93
77 78 95 94
78 79 96 95
79 80 97 96
80 81 98 97
81 82 99 98
82 83 100 99
83 84 101 100
84 85 102 101
86 87 104 103
87 88 105 104
88 89 106 105
89 90 107 106
90 91 108 107
91 92 109 108
92 93 110 109
93 94 111 110
94 95 112 111
95 96 113 112
96 97 114 113
97 98 115 114
98 99 116 115
99 100 117 116
100 101 118 117
101 102 119 118
103 104 121 120
104 105 122 121
105 106 123 122
106 107 124 123
107 108 125 124
108 109 126 125
109 110 127 126
110 111 128 127
111 112 129 128
112 113 130 129
113 114 131 130
114 115 132 131
115 116 133 132
116 117 134 133
117 118 135 134
118 119 136 135
120 121 138 137
121 122 139 138
122 123 140 139
123 124 141 140
124 125 142 141
125 126 143 142
126 127 144 143
127 128 145 144
128 129 146 145
129 130 147 146
130 131 148 147
131 132 149 148
132 133 150 149
133 134 151 150
134 135 152 151
135 136 153 152
