TITLE = "Solution"
VARIABLES = x, y, u, v, psiu, psiv, t, stress
ZONE T="structure" N=153 E=128 F=FEBLOCK ET=QUADRILATERAL VARLOCATION=([7,8]=cellcentered)
0.000000e+00
1.250000e+01
2.500000e+01
3.750000e+01
5.000000e+01
6.250000e+01
7.500000e+01
8.750000e+01
1.000000e+02
1.125000e+02
1.250000e+02
1.375000e+02
1.500000e+02
1.625000e+02
1.750000e+02
1.875000e+02
2.000000e+02
0.000000e+00
1.250000e+01
2.500000e+01
3.750000e+01
5.000000e+01
6.250000e+01
7.500000e+01
8.750000e+01
1.000000e+02
1.125000e+02
1.250000e+02
1.375000e+02
1.500000e+02
1.625000e+02
1.750000e+02
1.875000e+02
2.000000e+02
0.000000e+00
1.250000e+01
2.500000e+01
3.750000e+01
5.000000e+01
6.250000e+01
7.500000e+01
8.750000e+01
1.000000e+02
1.125000e+02
1.250000e+02
1.375000e+02
1.500000e+02
1.625000e+02
1.750000e+02
1.875000e+02
2.000000e+02
0.000000e+00
1.250000e+01
2.500000e+01
3.750000e+01
5.000000e+01
6.250000e+01
7.500000e+01
8.750000e+01
1.000000e+02
1.125000e+02
1.250000e+02
1.375000e+02
1.500000e+02
1.625000e+02
1.750000e+02
1.875000e+02
2.000000e+02
0.000000e+00
1.250000e+01
2.500000e+01
3.750000e+01
5.000000e+01
6.250000e+01
7.500000e+01
8.750000e+01
1.000000e+02
1.125000e+02
1.250000e+02
1.375000e+02
1.500000e+02
1.625000e+02
1.750000e+02
1.875000e+02
2.000000e+02
0.000000e+00
1.250000e+01
2.500000e+01
3.750000e+01
5.000000e+01
6.250000e+01
7.500000e+01
8.750000e+01
1.000000e+02
1.125000e+02
1.250000e+02
1.375000e+02
1.500000e+02
1.625000e+02
1.750000e+02
1.875000e+02
2.000000e+02
0.000000e+00
1.250000e+01
2.500000e+01
3.750000e+01
5.000000e+01
6.250000e+01
7.500000e+01
8.750000e+01
1.000000e+02
1.125000e+02
1.250000e+02
1.375000e+02
1.500000e+02
1.625000e+02
1.750000e+02
1.875000e+02
2.000000e+02
0.000000e+00
1.250000e+01
2.500000e+01
3.750000e+01
5.000000e+01
6.250000e+01
7.500000e+01
8.750000e+01
1.000000e+02
1.125000e+02
1.250000e+02
1.375000e+02
1.500000e+02
1.625000e+02
1.750000e+02
1.875000e+02
2.000000e+02
0.000000e+00
1.250000e+01
2.500000e+01
3.750000e+01
5.000000e+01
6.250000e+01
7.500000e+01
8.750000e+01
1.000000e+02
1.125000e+02
1.250000e+02
1.375000e+02
1.500000e+02
1.625000e+02
1.750000e+02
1.875000e+02
2.000000e+02
0.000000e+00
0.000000e+00
0.000000e+00
0.000000e+00
0.000000e+00
0.000000e+00
0.000000e+00
0.000000e+00
0.000000e+00
0.000000e+00
0.000000e+00
0.000000e+00
0.000000e+00
0.000000e+00
0.000000e+00
0.000000e+00
0.000000e+00
1.250000e+01
1.250000e+01
1.250000e+01
1.250000e+01
1.250000e+01
1.250000e+01
1.250000e+01
1.250000e+01
1.250000e+01
1.250000e+01
1.250000e+01
1.250000e+01
1.250000e+01
1.250000e+01
1.250000e+01
1.250000e+01
1.250000e+01
2.500000e+01
2.500000e+01
2.500000e+01
2.500000e+01
2.500000e+01
2.500000e+01
2.500000e+01
2.500000e+01
2.500000e+01
2.500000e+01
2.500000e+01
2.500000e+01
2.500000e+01
2.500000e+01
2.500000e+01
2.500000e+01
2.500000e+01
3.750000e+01
3.750000e+01
3.750000e+01
3.750000e+01
3.750000e+01
3.750000e+01
3.750000e+01
3.750000e+01
3.750000e+01
3.750000e+01
3.750000e+01
3.750000e+01
3.750000e+01
3.750000e+01
3.750000e+01
3.750000e+01
3.750000e+01
5.000000e+01
5.000000e+01
5.000000e+01
5.000000e+01
5.000000e+01
5.000000e+01
5.000000e+01
5.000000e+01
5.000000e+01
5.000000e+01
5.000000e+01
5.000000e+01
5.000000e+01
5.000000e+01
5.000000e+01
5.000000e+01
5.000000e+01
6.250000e+01
6.250000e+01
6.250000e+01
6.250000e+01
6.250000e+01
6.250000e+01
6.250000e+01
6.250000e+01
6.250000e+01
6.250000e+01
6.250000e+01
6.250000e+01
6.250000e+01
6.250000e+01
6.250000e+01
6.250000e+01
6.250000e+01
7.500000e+01
7.500000e+01
7.500000e+01
7.500000e+01
7.500000e+01
7.500000e+01
7.500000e+01
7.500000e+01
7.500000e+01
7.500000e+01
7.500000e+01
7.500000e+01
7.500000e+01
7.500000e+01
7.500000e+01
7.500000e+01
7.500000e+01
8.750000e+01
8.750000e+01
8.750000e+01
8.750000e+01
8.750000e+01
8.750000e+01
8.750000e+01
8.750000e+01
8.750000e+01
8.750000e+01
8.750000e+01
8.750000e+01
8.750000e+01
8.750000e+01
8.750000e+01
8.750000e+01
8.750000e+01
1.000000e+02
1.000000e+02
1.000000e+02
1.000000e+02
1.000000e+02
1.000000e+02
1.000000e+02
1.000000e+02
1.000000e+02
1.000000e+02
1.000000e+02
1.000000e+02
1.000000e+02
1.000000e+02
1.000000e+02
1.000000e+02
1.000000e+02
0.000000e+00
-1.003859e+00
-1.807933e+00
-2.554180e+00
-3.291774e+00
-4.002588e+00
-4.680393e+00
-5.324303e+00
-5.917255e+00
-6.439936e+00
-6.881882e+00
-7.250478e+00
-7.604796e+00
-7.996339e+00
-8.453963e+00
-9.089695e+00
-9.668781e+00
0.000000e+00
-5.590111e-01
-1.145700e+00
-1.698918e+00
-2.251642e+00
-2.789687e+00
-3.302869e+00
-3.785738e+00
-4.234765e+00
-4.642517e+00
-4.993733e+00
-5.279313e+00
-5.531979e+00
-5.767151e+00
-5.950389e+00
-6.008887e+00
-6.187465e+00
0.000000e+00
-3.035809e-01
-6.298660e-01
-9.889980e-01
-1.360363e+00
-1.726644e+00
-2.073484e+00
-2.392807e+00
-2.689034e+00
-2.971223e+00
-3.220556e+00
-3.412148e+00
-3.555388e+00
-3.650535e+00
-3.673990e+00
-3.656011e+00
-3.779922e+00
0.000000e+00
-1.325405e-01
-2.732542e-01
-4.395879e-01
-6.249775e-01
-8.121483e-01
-9.932205e-01
-1.157894e+00
-1.308332e+00
-1.451961e+00
-1.571130e+00
-1.647506e+00
-1.684215e+00
-1.684948e+00
-1.661529e+00
-1.667094e+00
-1.742635e+00
0.000000e+00
-5.293948e-03
-8.958499e-03
-8.623995e-03
-7.242832e-03
-5.119093e-03
-5.688808e-03
-8.696669e-03
-1.034960e-02
-7.424382e-04
2.409556e-02
6.381858e-02
1.153538e-01
1.725146e-01
2.173794e-01
2.190461e-01
1.685053e-01
0.000000e+00
1.338825e-01
2.732422e-01
4.382764e-01
6.275975e-01
8.152365e-01
9.977818e-01
1.166735e+00
1.320202e+00
1.468362e+00
1.619045e+00
1.758845e+00
1.877205e+00
1.974362e+00
2.038739e+00
2.051358e+00
2.021124e+00
0.000000e+00
3.168490e-01
6.483300e-01
1.009093e+00
1.384831e+00
1.750799e+00
2.100854e+00
2.427077e+00
2.720940e+00
2.986443e+00
3.231160e+00
3.447730e+00
3.621467e+00
3.751608e+00
3.838520e+00
3.868936e+00
3.859984e+00
0.000000e+00
5.744292e-01
1.170337e+00
1.732103e+00
2.287981e+00
2.825095e+00
3.332951e+00
3.809130e+00
4.239380e+00
4.615912e+00
4.939986e+00
5.213381e+00
5.429766e+00
5.589753e+00
5.694401e+00
5.741076e+00
5.749639e+00
0.000000e+00
1.020734e+00
1.838263e+00
2.593543e+00
3.335455e+00
4.044014e+00
4.712278e+00
5.336483e+00
5.905115e+00
6.398398e+00
6.807112e+00
7.141050e+00
7.396299e+00
7.577636e+00
7.675973e+00
7.700046e+00
7.699390e+00
0.000000e+00
-5.985510e-01
-1.226459e+00
-2.065304e+00
-3.098928e+00
-4.311901e+00
-5.690297e+00
-7.225900e+00
-8.910293e+00
-1.072299e+01
-1.263124e+01
-1.461602e+01
-1.668671e+01
-1.886081e+01
-2.119579e+01
-2.391797e+01
-2.851217e+01
0.000000e+00
-3.704001e-01
-1.031452e+00
-1.870218e+00
-2.908505e+00
-4.130108e+00
-5.518181e+00
-7.063438e+00
-8.761001e+00
-1.059377e+01
-1.252609e+01
-1.452584e+01
-1.660006e+01
-1.877701e+01
-2.110695e+01
-2.379803e+01
-2.732695e+01
0.000000e+00
-2.955421e-01
-8.967504e-01
-1.731451e+00
-2.772428e+00
-4.002535e+00
-5.401026e+00
-6.952490e+00
-8.651856e+00
-1.049743e+01
-1.245301e+01
-1.447185e+01
-1.656188e+01
-1.875825e+01
-2.109885e+01
-2.362349e+01
-2.607682e+01
0.000000e+00
-2.833958e-01
-8.334856e-01
-1.645310e+00
-2.692246e+00
-3.928795e+00
-5.339226e+00
-6.895508e+00
-8.591696e+00
-1.044139e+01
-1.241704e+01
-1.445853e+01
-1.656431e+01
-1.876578e+01
-2.106688e+01
-2.338844e+01
-2.552980e+01
0.000000e+00
-2.805884e-01
-8.142398e-01
-1.615462e+00
-2.667565e+00
-3.908244e+00
-5.324294e+00
-6.887904e+00
-8.585701e+00
-1.043404e+01
-1.241696e+01
-1.447395e+01
-1.658518e+01
-1.876688e+01
-2.100619e+01
-2.320797e+01
-2.522551e+01
0.000000e+00
-2.815667e-01
-8.316188e-01
-1.644943e+00
-2.698735e+00
-3.939259e+00
-5.353158e+00
-6.920843e+00
-8.625294e+00
-1.047175e+01
-1.244856e+01
-1.450683e+01
-1.661130e+01
-1.876295e+01
-2.094779e+01
-2.307627e+01
-2.503526e+01
0.000000e+00
-2.964635e-01
-8.962333e-01
-1.733491e+00
-2.784000e+00
-4.020502e+00
-5.428344e+00
-6.992217e+00
-8.699969e+00
-1.054363e+01
-1.250735e+01
-1.455304e+01
-1.664339e+01
-1.876700e+01
-2.090767e+01
-2.298655e+01
-2.493032e+01
0.000000e+00
-3.722639e-01
-1.033328e+00
-1.876206e+00
-2.921656e+00
-4.151899e+00
-5.550654e+00
-7.105764e+00
-8.806067e+00
-1.064102e+01
-1.258791e+01
-1.461421e+01
-1.668791e+01
-1.879118e+01
-2.089818e+01
-2.294478e+01
-2.490352e+01
0.000000e+00
-6.039095e-01
-1.231831e+00
-2.073769e+00
-3.112774e+00
-4.333247e+00
-5.721055e+00
-7.263174e+00
-8.947468e+00
-1.076309e+01
-1.268855e+01
-1.469356e+01
-1.674704e+01
-1.883019e+01
-2.091073e+01
-2.293704e+01
-2.490400e+01


0.000000e+00
1.428842e-05
2.818456e-05
4.000603e-05
5.023442e-05
5.872148e-05
6.522171e-05
6.965614e-05
7.222014e-05
7.342247e-05
7.385148e-05
7.396929e-05
7.400728e-05
7.405531e-05
7.420057e-05
7.483110e-05
7.625787e-05
0.000000e+00
1.032431e-05
2.265011e-05
3.189978e-05
3.961038e-05
4.590965e-05
5.053455e-05
5.342601e-05
5.487686e-05
5.538662e-05
5.545514e-05
5.541920e-05
5.538213e-05
5.531202e-05
5.529853e-05
5.586290e-05
5.706834e-05
0.000000e+00
7.577274e-06
1.564052e-05
2.205571e-05
2.739644e-05
3.152104e-05
3.433280e-05
3.593768e-05
3.667184e-05
3.689529e-05
3.688895e-05
3.684136e-05
3.681036e-05
3.680829e-05
3.689977e-05
3.726655e-05
3.787738e-05
0.000000e+00
3.601113e-06
6.991750e-06
1.044932e-05
1.335302e-05
1.544358e-05
1.680550e-05
1.757399e-05
1.796057e-05
1.814404e-05
1.821241e-05
1.823134e-05
1.824780e-05
1.829641e-05
1.836854e-05
1.846594e-05
1.865662e-05
0.000000e+00
-3.652603e-08
-6.431671e-08
-1.480071e-07
-2.431175e-07
-3.366929e-07
-3.935783e-07
-4.220013e-07
-4.292286e-07
-4.267727e-07
-4.134991e-07
-3.908740e-07
-3.598879e-07
-3.247717e-07
-3.130886e-07
-3.288171e-07
-2.928976e-07
0.000000e+00
-3.761597e-06
-7.248621e-06
-1.084635e-05
-1.397814e-05
-1.620899e-05
-1.766189e-05
-1.847305e-05
-1.885505e-05
-1.900661e-05
-1.904191e-05
-1.902539e-05
-1.899806e-05
-1.898467e-05
-1.900108e-05
-1.903284e-05
-1.902958e-05
0.000000e+00
-7.927864e-06
-1.622869e-05
-2.281585e-05
-2.833011e-05
-3.249307e-05
-3.530884e-05
-3.688938e-05
-3.755573e-05
-3.772601e-05
-3.770595e-05
-3.765748e-05
-3.763335e-05
-3.763262e-05
-3.765136e-05
-3.767098e-05
-3.767076e-05
0.000000e+00
-1.081130e-05
-2.355874e-05
-3.302294e-05
-4.078338e-05
-4.704445e-05
-5.158073e-05
-5.439611e-05
-5.575550e-05
-5.619963e-05
-5.625683e-05
-5.623957e-05
-5.624313e-05
-5.626102e-05
-5.628293e-05
-5.629759e-05
-5.630021e-05
0.000000e+00
-1.479080e-05
-2.914982e-05
-4.117778e-05
-5.142985e-05
-5.983065e-05
-6.621254e-05
-7.054005e-05
-7.303891e-05
-7.419713e-05
-7.462738e-05
-7.478006e-05
-7.484897e-05
-7.489485e-05
-7.492739e-05
-7.494140e-05
-7.494349e-05
0.000000e+00
1.229105e-05
2.107989e-05
3.077475e-05
4.276544e-05
5.662627e-05
7.189769e-05
8.825629e-05
1.054684e-04
1.233241e-04
1.416119e-04
1.601329e-04
1.787412e-04
1.974298e-04
2.167189e-04
2.375080e-04
2.593076e-04
0.000000e+00
6.232816e-06
1.547796e-05
2.589564e-05
3.861817e-05
5.334336e-05
6.958015e-05
8.685765e-05
1.047920e-04
1.230890e-04
1.415676e-04
1.601366e-04
1.787528e-04
1.974167e-04
2.162456e-04
2.359752e-04
2.568268e-04
0.000000e+00
2.615822e-06
1.091927e-05
2.211593e-05
3.550624e-05
5.098809e-05
6.801154e-05
8.597122e-05
1.043962e-04
1.229771e-04
1.415702e-04
1.601614e-04
1.787717e-04
1.973822e-04
2.158858e-04
2.349507e-04
2.549209e-04
0.000000e+00
1.566182e-06
8.839556e-06
2.009936e-05
3.399436e-05
4.994510e-05
6.737199e-05
8.562254e-05
1.042246e-04
1.229083e-04
1.415554e-04
1.601638e-04
1.787592e-04
1.973253e-04
2.158204e-04
2.346418e-04
2.539774e-04
0.000000e+00
1.380934e-06
8.301386e-06
1.942264e-05
3.353959e-05
4.967376e-05
6.721443e-05
8.553896e-05
1.041737e-04
1.228752e-04
1.415343e-04
1.601453e-04
1.787326e-04
1.973021e-04
2.158795e-04
2.346298e-04
2.535728e-04
0.000000e+00
1.530576e-06
8.838345e-06
2.014662e-05
3.408370e-05
5.004784e-05
6.745527e-05
8.569472e-05
1.042725e-04
1.229230e-04
1.415405e-04
1.601292e-04
1.787147e-04
1.973084e-04
2.159400e-04
2.346562e-04
2.534033e-04
0.000000e+00
2.607573e-06
1.093410e-05
2.222382e-05
3.567240e-05
5.115022e-05
6.814494e-05
8.607542e-05
1.044593e-04
1.229917e-04
1.415456e-04
1.601111e-04
1.787033e-04
1.973212e-04
2.159729e-04
2.346605e-04
2.533306e-04
0.000000e+00
6.341063e-06
1.565201e-05
2.611403e-05
3.883546e-05
5.351986e-05
6.971334e-05
8.694531e-05
1.048331e-04
1.230920e-04
1.415387e-04
1.600900e-04
1.786965e-04
1.973300e-04
2.159874e-04
2.346566e-04
2.533088e-04
0.000000e+00
1.265974e-05
2.145902e-05
3.110245e-05
4.302171e-05
5.680276e-05
7.201212e-05
8.832176e-05
1.054867e-04
1.233130e-04
1.415839e-04
1.600963e-04
1.787027e-04
1.973397e-04
2.159952e-04
2.346561e-04
2.533063e-04


2.636234e+00
2.467986e+00
2.502878e+00
2.708358e+00
2.874558e+00
3.029909e+00
3.176112e+00
3.250699e+00
3.352526e+00
3.216200e+00
3.153224e+00
3.805254e+00
4.709016e+00
4.921048e+00
5.557976e+00
6.242505e+00
3.385321e+00
3.326630e+00
3.379380e+00
3.583154e+00
3.677423e+00
3.702047e+00
3.723457e+00
4.086867e+00
4.486639e+00
4.386717e+00
3.793674e+00
3.862556e+00
4.103723e+00
4.234947e+00
4.300125e+00
4.594662e+00
4.314064e+00
4.468760e+00
4.885789e+00
5.144354e+00
5.144715e+00
4.921268e+00
4.806777e+00
5.102122e+00
5.889867e+00
5.726427e+00
4.769060e+00
4.045088e+00
3.823082e+00
3.495485e+00
3.279954e+00
3.145425e+00
4.179415e+00
4.783643e+00
5.607469e+00
6.223348e+00
6.159528e+00
6.028715e+00
5.608795e+00
5.510256e+00
5.667205e+00
5.566272e+00
4.694663e+00
3.850643e+00
3.464302e+00
3.244216e+00
2.997668e+00
2.854022e+00
4.052770e+00
4.521485e+00
5.491697e+00
6.126157e+00
6.143579e+00
6.032926e+00
5.810264e+00
5.036690e+00
4.772293e+00
4.818857e+00
4.416003e+00
3.741691e+00
3.284924e+00
3.381364e+00
3.461632e+00
3.351025e+00
4.101190e+00
4.249848e+00
4.688865e+00
5.097796e+00
4.987531e+00
4.981205e+00
4.772003e+00
4.379579e+00
4.106833e+00
4.406689e+00
4.500515e+00
3.924474e+00
3.701057e+00
4.125587e+00
4.320707e+00
4.202212e+00
3.492336e+00
3.352855e+00
3.429770e+00
3.588862e+00
3.622144e+00
3.581977e+00
3.651168e+00
3.526680e+00
3.545134e+00
3.827147e+00
4.007088e+00
3.962393e+00
4.045862e+00
4.620442e+00
4.774137e+00
4.428408e+00
2.733907e+00
2.544150e+00
2.553733e+00
2.736822e+00
2.878061e+00
3.014361e+00
3.161245e+00
3.264324e+00
3.294515e+00
3.341291e+00
3.610704e+00
3.778973e+00
4.196829e+00
4.615384e+00
4.536666e+00
4.180506e+00


-1.138035e+00
-7.008974e-01
-4.810017e-01
-4.615949e-01
-3.702048e-01
-2.460757e-01
-1.150028e-01
4.454466e-02
2.354956e-01
4.437672e-01
6.213787e-01
6.763183e-01
6.608827e-01
6.449466e-01
5.687083e-01
-1.720232e+00
3.193252e-01
1.997624e-01
1.974956e-01
1.686083e-01
1.945595e-01
2.655257e-01
3.561509e-01
4.359790e-01
5.034559e-01
6.121872e-01
7.490686e-01
8.271973e-01
8.784752e-01
9.347643e-01
8.388106e-01
-1.290009e+00
7.781058e-01
6.677539e-01
5.490905e-01
4.807784e-01
4.777143e-01
5.051578e-01
5.574140e-01
5.936894e-01
5.993025e-01
6.592434e-01
7.783747e-01
8.519879e-01
8.704677e-01
8.292398e-01
6.643072e-01
3.517682e-01
9.105123e-01
7.974120e-01
6.504043e-01
5.440633e-01
5.425964e-01
5.606191e-01
6.029685e-01
6.343100e-01
6.370942e-01
6.710079e-01
7.561744e-01
8.060325e-01
7.932600e-01
7.427812e-01
7.294729e-01
7.480212e-01
9.171078e-01
8.151194e-01
6.732557e-01
5.625699e-01
5.612701e-01
5.794247e-01
6.244725e-01
6.672065e-01
6.659924e-01
6.616857e-01
7.077947e-01
7.516776e-01
7.511991e-01
7.380600e-01
7.925170e-01
8.785792e-01
7.714242e-01
6.794671e-01
5.681062e-01
4.879725e-01
4.951723e-01
5.164956e-01
5.586748e-01
6.054327e-01
6.169784e-01
6.080171e-01
6.403757e-01
7.023710e-01
7.372923e-01
7.626901e-01
8.492317e-01
9.446616e-01
2.775403e-01
1.809179e-01
1.843542e-01
1.583150e-01
1.976490e-01
2.633192e-01
3.420868e-01
4.429755e-01
5.292675e-01
5.899129e-01
6.538251e-01
7.343933e-01
7.981848e-01
8.511569e-01
9.313486e-01
9.884409e-01
-1.224974e+00
-7.554577e-01
-5.208602e-01
-4.787635e-01
-3.642489e-01
-2.181949e-01
-6.784971e-02
1.169843e-01
3.242600e-01
5.122406e-01
6.575752e-01
7.857819e-01
8.782450e-01
9.463747e-01
9.890863e-01
9.997862e-01
1 2 19 18
2 3 20 19
3 4 21 20
4 5 22 21
5 6 23 22
6 7 24 23
7 8 25 24
8 9 26 25
9 10 27 26
10 11 28 27
11 12 29 28
12 13 30 29
13 14 31 30
14 15 32 31
15 16 33 32
16 17 34 33
18 19 36 35
19 20 37 36
20 21 38 37
21 22 39 38
22 23 40 39
23 24 41 40
24 25 42 41
25 26 43 42
26 27 44 43
27 28 45 44
28 29 46 45
29 30 47 46
30 31 48 47
31 32 49 48
32 33 50 49
33 34 51 50
35 36 53 52
36 37 54 53
37 38 55 54
38 39 56 55
39 40 57 56
40 41 58 57
41 42 59 58
42 43 60 59
43 44 61 60
44 45 62 61
45 46 63 62
46 47 64 63
47 48 65 64
48 49 66 65
49 50 67 66
50 51 68 67
52 53 70 69
53 54 71 70
54 55 72 71
55 56 73 72
56 57 74 73
57 58 75 74
58 59 76 75
59 60 77 76
60 61 78 77
61 62 79 78
62 63 80 79
63 64 81 80
64 65 82 81
65 66 83 82
66 67 84 83
67 68 85 84
69 70 87 86
70 71 88 87
71 72 89 88
72 73 90 89
73 74 91 90
74 75 92 91
75 76 93 92
76 77 94 93
77 78 95 94
78 79 96 95
79 80 97 96
80 81 98 97
81 82 99 98
82 83 100 99
83 84 101 100
84 85 102 101
86 87 104 103
87 88 105 104
88 89 106 105
89 90 107 106
90 91 108 107
91 92 109 108
92 93 110 109
93 94 111 110
94 95 112 111
95 96 113 112
96 97 114 113
97 98 115 114
98 99 116 115
99 100 117 116
100 101 118 117
101 102 119 118
103 104 121 120
104 105 122 121
105 106 123 122
106 107 124 123
107 108 125 124
108 109 126 125
109 110 127 126
110 111 128 127
111 112 129 128
112 113 130 129
113 114 131 130
114 115 132 131
115 116 133 132
116 117 134 133
117 118 135 134
118 119 136 135
120 121 138 137
121 122 139 138
122 123 140 139
123 124 141 140
124 125 142 141
125 126 143 142
126 127 144 143
127 128 145 144
128 129 146 145
129 130 147 146
130 131 148 147
131 132 149 148
132 133 150 149
133 134 151 150
134 135 152 151
135 136 153 152
