TITLE = "Solution"
VARIABLES = x, y, u, v, psiu, psiv, t, stress
ZONE T="structure" N=153 E=128 F=FEBLOCK ET=QUADRILATERAL VARLOCATION=([7,8]=cellcentered)
0.000000e+00
1.250000e+01
2.500000e+01
3.750000e+01
5.000000e+01
6.250000e+01
7.500000e+01
8.750000e+01
1.000000e+02
1.125000e+02
1.250000e+02
1.375000e+02
1.500000e+02
1.625000e+02
1.750000e+02
1.875000e+02
2.000000e+02
0.000000e+00
1.250000e+01
2.500000e+01
3.750000e+01
5.000000e+01
6.250000e+01
7.500000e+01
8.750000e+01
1.000000e+02
1.125000e+02
1.250000e+02
1.375000e+02
1.500000e+02
1.625000e+02
1.750000e+02
1.875000e+02
2.000000e+02
0.000000e+00
1.250000e+01
2.500000e+01
3.750000e+01
5.000000e+01
6.250000e+01
7.500000e+01
8.750000e+01
1.000000e+02
1.125000e+02
1.250000e+02
1.375000e+02
1.500000e+02
1.625000e+02
1.750000e+02
1.875000e+02
2.000000e+02
0.000000e+00
1.250000e+01
2.500000e+01
3.750000e+01
5.000000e+01
6.250000e+01
7.500000e+01
8.750000e+01
1.000000e+02
1.125000e+02
1.250000e+02
1.375000e+02
1.500000e+02
1.625000e+02
1.750000e+02
1.875000e+02
2.000000e+02
0.000000e+00
1.250000e+01
2.500000e+01
3.750000e+01
5.000000e+01
6.250000e+01
7.500000e+01
8.750000e+01
1.000000e+02
1.125000e+02
1.250000e+02
1.375000e+02
1.500000e+02
1.625000e+02
1.750000e+02
1.875000e+02
2.000000e+02
0.000000e+00
1.250000e+01
2.500000e+01
3.750000e+01
5.000000e+01
6.250000e+01
7.500000e+01
8.750000e+01
1.000000e+02
1.125000e+02
1.250000e+02
1.375000e+02
1.500000e+02
1.625000e+02
1.750000e+02
1.875000e+02
2.000000e+02
0.000000e+00
1.250000e+01
2.500000e+01
3.750000e+01
5.000000e+01
6.250000e+01
7.500000e+01
8.750000e+01
1.000000e+02
1.125000e+02
1.250000e+02
1.375000e+02
1.500000e+02
1.625000e+02
1.750000e+02
1.875000e+02
2.000000e+02
0.000000e+00
1.250000e+01
2.500000e+01
3.750000e+01
5.000000e+01
6.250000e+01
7.500000e+01
8.750000e+01
1.000000e+02
1.125000e+02
1.250000e+02
1.375000e+02
1.500000e+02
1.625000e+02
1.750000e+02
1.875000e+02
2.000000e+02
0.000000e+00
1.250000e+01
2.500000e+01
3.750000e+01
5.000000e+01
6.250000e+01
7.500000e+01
8.750000e+01
1.000000e+02
1.125000e+02
1.250000e+02
1.375000e+02
1.500000e+02
1.625000e+02
1.750000e+02
1.875000e+02
2.000000e+02
0.000000e+00
0.000000e+00
0.000000e+00
0.000000e+00
0.000000e+00
0.000000e+00
0.000000e+00
0.000000e+00
0.000000e+00
0.000000e+00
0.000000e+00
0.000000e+00
0.000000e+00
0.000000e+00
0.000000e+00
0.000000e+00
0.000000e+00
1.250000e+01
1.250000e+01
1.250000e+01
1.250000e+01
1.250000e+01
1.250000e+01
1.250000e+01
1.250000e+01
1.250000e+01
1.250000e+01
1.250000e+01
1.250000e+01
1.250000e+01
1.250000e+01
1.250000e+01
1.250000e+01
1.250000e+01
2.500000e+01
2.500000e+01
2.500000e+01
2.500000e+01
2.500000e+01
2.500000e+01
2.500000e+01
2.500000e+01
2.500000e+01
2.500000e+01
2.500000e+01
2.500000e+01
2.500000e+01
2.500000e+01
2.500000e+01
2.500000e+01
2.500000e+01
3.750000e+01
3.750000e+01
3.750000e+01
3.750000e+01
3.750000e+01
3.750000e+01
3.750000e+01
3.750000e+01
3.750000e+01
3.750000e+01
3.750000e+01
3.750000e+01
3.750000e+01
3.750000e+01
3.750000e+01
3.750000e+01
3.750000e+01
5.000000e+01
5.000000e+01
5.000000e+01
5.000000e+01
5.000000e+01
5.000000e+01
5.000000e+01
5.000000e+01
5.000000e+01
5.000000e+01
5.000000e+01
5.000000e+01
5.000000e+01
5.000000e+01
5.000000e+01
5.000000e+01
5.000000e+01
6.250000e+01
6.250000e+01
6.250000e+01
6.250000e+01
6.250000e+01
6.250000e+01
6.250000e+01
6.250000e+01
6.250000e+01
6.250000e+01
6.250000e+01
6.250000e+01
6.250000e+01
6.250000e+01
6.250000e+01
6.250000e+01
6.250000e+01
7.500000e+01
7.500000e+01
7.500000e+01
7.500000e+01
7.500000e+01
7.500000e+01
7.500000e+01
7.500000e+01
7.500000e+01
7.500000e+01
7.500000e+01
7.500000e+01
7.500000e+01
7.500000e+01
7.500000e+01
7.500000e+01
7.500000e+01
8.750000e+01
8.750000e+01
8.750000e+01
8.750000e+01
8.750000e+01
8.750000e+01
8.750000e+01
8.750000e+01
8.750000e+01
8.750000e+01
8.750000e+01
8.750000e+01
8.750000e+01
8.750000e+01
8.750000e+01
8.750000e+01
8.750000e+01
1.000000e+02
1.000000e+02
1.000000e+02
1.000000e+02
1.000000e+02
1.000000e+02
1.000000e+02
1.000000e+02
1.000000e+02
1.000000e+02
1.000000e+02
1.000000e+02
1.000000e+02
1.000000e+02
1.000000e+02
1.000000e+02
1.000000e+02
0.000000e+00
-4.829646e-02
-1.050394e-01
-1.631516e-01
-2.107000e-01
-2.504233e-01
-2.915501e-01
-3.214044e-01
-3.403354e-01
-3.562076e-01
-3.747488e-01
-4.015924e-01
-4.610384e-01
-5.107691e-01
-5.409627e-01
-5.720002e-01
-5.931705e-01
0.000000e+00
-2.811502e-02
-6.553404e-02
-1.071404e-01
-1.455545e-01
-1.789341e-01
-2.069890e-01
-2.291825e-01
-2.454448e-01
-2.593345e-01
-2.726258e-01
-2.884089e-01
-3.183220e-01
-3.444439e-01
-3.514905e-01
-3.491149e-01
-3.517509e-01
0.000000e+00
-1.791098e-02
-3.718671e-02
-5.948596e-02
-8.736413e-02
-1.111471e-01
-1.273634e-01
-1.417875e-01
-1.553444e-01
-1.668002e-01
-1.752660e-01
-1.825580e-01
-1.901341e-01
-1.911857e-01
-1.834121e-01
-1.768341e-01
-1.920668e-01
0.000000e+00
-8.679961e-03
-1.660087e-02
-2.394602e-02
-3.352680e-02
-4.372394e-02
-5.175250e-02
-6.028860e-02
-6.969946e-02
-7.651441e-02
-8.077155e-02
-8.401125e-02
-8.710203e-02
-8.791709e-02
-8.726575e-02
-9.132559e-02
-1.060927e-01
0.000000e+00
1.079334e-03
1.057047e-03
1.317053e-03
3.115751e-03
8.429609e-03
1.258338e-02
1.338508e-02
1.287674e-02
1.197169e-02
1.161194e-02
1.150784e-02
1.116519e-02
1.011548e-02
8.373437e-03
4.836909e-03
2.545803e-04
0.000000e+00
1.272361e-02
2.308094e-02
3.079785e-02
3.829196e-02
4.613806e-02
5.621048e-02
7.120273e-02
8.734745e-02
9.580775e-02
1.003901e-01
1.044141e-01
1.100087e-01
1.145214e-01
1.158214e-01
1.152142e-01
1.133526e-01
0.000000e+00
2.621016e-02
5.414861e-02
7.861569e-02
9.784734e-02
1.127389e-01
1.251150e-01
1.394137e-01
1.591588e-01
1.761854e-01
1.871406e-01
1.963732e-01
2.086897e-01
2.209085e-01
2.267725e-01
2.289588e-01
2.284369e-01
0.000000e+00
4.251511e-02
9.690141e-02
1.412285e-01
1.682929e-01
1.881410e-01
2.061087e-01
2.249929e-01
2.451607e-01
2.640838e-01
2.793179e-01
2.925679e-01
3.091821e-01
3.277670e-01
3.373530e-01
3.426295e-01
3.437295e-01
0.000000e+00
6.627444e-02
1.463277e-01
2.053179e-01
2.405024e-01
2.680405e-01
2.927116e-01
3.175855e-01
3.398000e-01
3.602412e-01
3.797095e-01
3.979642e-01
4.198123e-01
4.425282e-01
4.526165e-01
4.581215e-01
4.597754e-01
0.000000e+00
-3.172624e-02
-6.946110e-02
-1.220250e-01
-1.873717e-01
-2.621443e-01
-3.462852e-01
-4.378832e-01
-5.340838e-01
-6.328057e-01
-7.347191e-01
-8.447794e-01
-9.705131e-01
-1.113184e+00
-1.284840e+00
-1.490969e+00
-1.765564e+00
0.000000e+00
-1.971081e-02
-5.510889e-02
-1.074463e-01
-1.752458e-01
-2.518307e-01
-3.372935e-01
-4.315432e-01
-5.294490e-01
-6.286338e-01
-7.299062e-01
-8.365247e-01
-9.580871e-01
-1.106275e+00
-1.279443e+00
-1.484901e+00
-1.735418e+00
0.000000e+00
-1.599507e-02
-4.765221e-02
-9.620476e-02
-1.647211e-01
-2.449585e-01
-3.318968e-01
-4.265124e-01
-5.256916e-01
-6.260317e-01
-7.277304e-01
-8.339938e-01
-9.547472e-01
-1.105362e+00
-1.275034e+00
-1.468932e+00
-1.648775e+00
0.000000e+00
-1.539817e-02
-4.597966e-02
-9.059114e-02
-1.569901e-01
-2.415834e-01
-3.288885e-01
-4.233842e-01
-5.234769e-01
-6.251029e-01
-7.274089e-01
-8.341894e-01
-9.550991e-01
-1.103038e+00
-1.253745e+00
-1.404911e+00
-1.527581e+00
0.000000e+00
-1.505054e-02
-4.601595e-02
-9.104310e-02
-1.556694e-01
-2.416060e-01
-3.290352e-01
-4.222057e-01
-5.236073e-01
-6.257276e-01
-7.281405e-01
-8.346851e-01
-9.563825e-01
-1.098667e+00
-1.238327e+00
-1.373449e+00
-1.492697e+00
0.000000e+00
-1.354992e-02
-4.608837e-02
-9.478847e-02
-1.629294e-01
-2.460262e-01
-3.329199e-01
-4.243292e-01
-5.265026e-01
-6.280738e-01
-7.298850e-01
-8.360090e-01
-9.583036e-01
-1.096086e+00
-1.230579e+00
-1.362137e+00
-1.482497e+00
0.000000e+00
-1.455135e-02
-4.846781e-02
-1.013483e-01
-1.709824e-01
-2.510864e-01
-3.372419e-01
-4.302930e-01
-5.303967e-01
-6.313573e-01
-7.328715e-01
-8.395041e-01
-9.607941e-01
-1.095638e+00
-1.226675e+00
-1.356519e+00
-1.477554e+00
0.000000e+00
-2.120320e-02
-5.760138e-02
-1.109693e-01
-1.789289e-01
-2.566428e-01
-3.425345e-01
-4.363031e-01
-5.354592e-01
-6.353976e-01
-7.370282e-01
-8.446385e-01
-9.645561e-01
-1.096994e+00
-1.225316e+00
-1.353153e+00
-1.474578e+00
0.000000e+00
-3.825154e-02
-7.467974e-02
-1.229335e-01
-1.872898e-01
-2.635153e-01
-3.491863e-01
-4.429730e-01
-5.413240e-01
-6.406944e-01
-7.421462e-01
-8.502921e-01
-9.702936e-01
-1.100489e+00
-1.226206e+00
-1.351720e+00
-1.472996e+00


0.000000e+00
-3.346243e-06
-1.055094e-04
-3.480991e-04
-4.502256e-04
-4.664958e-04
-5.025071e-04
-5.198031e-04
-5.208842e-04
-5.201055e-04
-5.204104e-04
-5.216768e-04
-5.231501e-04
-5.226547e-04
-5.220184e-04
-5.216117e-04
-5.215037e-04
0.000000e+00
-3.410835e-06
-1.078260e-04
-3.080429e-04
-4.062946e-04
-4.066566e-04
-4.263743e-04
-4.409257e-04
-4.384853e-04
-4.360699e-04
-4.353209e-04
-4.352080e-04
-4.353256e-04
-4.354857e-04
-4.355904e-04
-4.357909e-04
-4.358695e-04
0.000000e+00
-3.508449e-05
-1.058560e-04
-2.071231e-04
-2.907113e-04
-3.134368e-04
-3.332701e-04
-3.455596e-04
-3.482966e-04
-3.492272e-04
-3.490602e-04
-3.485689e-04
-3.479171e-04
-3.485924e-04
-3.496243e-04
-3.502435e-04
-3.505478e-04
0.000000e+00
-4.715586e-05
-7.880723e-05
-1.158992e-04
-1.616100e-04
-2.121047e-04
-2.375163e-04
-2.498675e-04
-2.590410e-04
-2.629940e-04
-2.643294e-04
-2.647189e-04
-2.649572e-04
-2.656763e-04
-2.662209e-04
-2.668185e-04
-2.668703e-04
0.000000e+00
-3.161743e-05
-5.000786e-05
-6.271934e-05
-8.517843e-05
-1.217759e-04
-1.470880e-04
-1.645091e-04
-1.743775e-04
-1.791722e-04
-1.813097e-04
-1.825814e-04
-1.836911e-04
-1.839598e-04
-1.834438e-04
-1.828070e-04
-1.825185e-04
0.000000e+00
-1.415842e-05
-2.378656e-05
-3.343488e-05
-4.662908e-05
-6.337563e-05
-7.665783e-05
-8.589606e-05
-9.265260e-05
-9.588342e-05
-9.748062e-05
-9.829460e-05
-9.874398e-05
-9.834120e-05
-9.765541e-05
-9.717192e-05
-9.690262e-05
0.000000e+00
-3.623815e-06
-3.363520e-06
-3.628753e-07
8.306252e-08
-1.791774e-06
-5.083012e-06
-8.839245e-06
-1.084499e-05
-1.110095e-05
-1.083299e-05
-1.043000e-05
-1.012806e-05
-1.022131e-05
-1.048301e-05
-1.047969e-05
-1.035729e-05
0.000000e+00
2.153920e-06
1.833045e-05
4.367583e-05
5.787997e-05
6.589387e-05
7.074126e-05
7.399172e-05
7.613163e-05
7.745924e-05
7.815713e-05
7.858735e-05
7.870622e-05
7.819628e-05
7.761520e-05
7.709153e-05
7.696221e-05
0.000000e+00
1.229676e-05
5.241507e-05
9.632539e-05
1.224082e-04
1.403359e-04
1.533178e-04
1.627053e-04
1.675551e-04
1.688588e-04
1.687098e-04
1.684378e-04
1.680140e-04
1.669504e-04
1.659807e-04
1.651631e-04
1.647994e-04
0.000000e+00
-4.407927e-05
-1.420586e-04
-2.207481e-04
-2.319569e-04
-2.728962e-04
-3.549430e-04
-4.261703e-04
-5.003629e-04
-5.812778e-04
-6.645482e-04
-7.500651e-04
-8.391177e-04
-9.281007e-04
-1.015068e-03
-1.100957e-03
-1.186515e-03
0.000000e+00
-1.970873e-05
-4.640549e-05
-1.230041e-04
-2.022373e-04
-2.609043e-04
-3.391906e-04
-4.212843e-04
-5.004754e-04
-5.813914e-04
-6.642050e-04
-7.494640e-04
-8.390977e-04
-9.284057e-04
-1.015189e-03
-1.100951e-03
-1.186453e-03
0.000000e+00
-1.060820e-06
-1.882495e-06
-6.434125e-05
-1.688874e-04
-2.526857e-04
-3.303967e-04
-4.158468e-04
-4.993756e-04
-5.805646e-04
-6.633108e-04
-7.487126e-04
-8.388502e-04
-9.295344e-04
-1.015071e-03
-1.100820e-03
-1.186056e-03
0.000000e+00
6.828836e-06
-1.145266e-06
-5.115243e-05
-1.435350e-04
-2.383798e-04
-3.234104e-04
-4.099198e-04
-4.948697e-04
-5.782137e-04
-6.618110e-04
-7.477228e-04
-8.387459e-04
-9.306438e-04
-1.015027e-03
-1.100674e-03
-1.185739e-03
0.000000e+00
7.566051e-06
-1.011190e-05
-5.277723e-05
-1.245218e-04
-2.175609e-04
-3.105481e-04
-3.999847e-04
-4.887945e-04
-5.748734e-04
-6.599927e-04
-7.468839e-04
-8.385162e-04
-9.296891e-04
-1.015030e-03
-1.100898e-03
-1.186485e-03
0.000000e+00
4.441630e-06
-1.452696e-05
-5.561360e-05
-1.196533e-04
-2.016740e-04
-2.907580e-04
-3.852703e-04
-4.809123e-04
-5.708655e-04
-6.582995e-04
-7.465869e-04
-8.380585e-04
-9.284107e-04
-1.015093e-03
-1.101234e-03
-1.187239e-03
0.000000e+00
1.738399e-06
-1.564320e-05
-5.766339e-05
-1.209085e-04
-1.984316e-04
-2.843868e-04
-3.768503e-04
-4.733733e-04
-5.671663e-04
-6.573962e-04
-7.468296e-04
-8.376605e-04
-9.273896e-04
-1.015069e-03
-1.101493e-03
-1.187904e-03
0.000000e+00
4.411800e-07
-1.812751e-05
-6.246262e-05
-1.244885e-04
-1.992573e-04
-2.837042e-04
-3.754636e-04
-4.711846e-04
-5.656637e-04
-6.571477e-04
-7.472594e-04
-8.373349e-04
-9.267951e-04
-1.014823e-03
-1.101696e-03
-1.188450e-03
0.000000e+00
1.836649e-08
-2.647212e-05
-7.065798e-05
-1.298223e-04
-2.026575e-04
-2.858830e-04
-3.767951e-04
-4.713541e-04
-5.654087e-04
-6.570976e-04
-7.473618e-04
-8.371526e-04
-9.263729e-04
-1.014556e-03
-1.101761e-03
-1.188828e-03


2.495526e+00
4.685944e+00
5.298383e+00
4.801617e+00
4.553235e+00
5.298383e+00
4.322997e+00
2.336196e+00
2.091141e+00
3.102118e+00
4.344318e+00
7.306970e+00
7.045701e+00
3.227413e+00
1.861275e+00
2.389546e+00
2.356760e+00
3.279249e+00
4.668295e+00
5.247402e+00
4.865696e+00
3.404459e+00
3.023219e+00
2.655078e+00
2.654612e+00
2.124794e+00
3.578447e+00
6.904450e+00
7.836786e+00
5.043777e+00
3.848399e+00
4.259454e+00
3.328974e+00
3.220062e+00
3.873921e+00
6.045143e+00
5.670414e+00
4.041998e+00
3.525269e+00
4.068263e+00
3.357192e+00
1.728417e+00
2.260977e+00
6.226079e+00
7.701866e+00
6.723582e+00
5.743322e+00
4.731997e+00
5.298383e+00
3.404366e+00
3.680128e+00
6.419872e+00
8.022572e+00
6.949819e+00
6.756026e+00
5.683316e+00
4.054857e+00
1.549789e+00
1.702699e+00
4.964999e+00
6.954929e+00
6.247430e+00
5.603093e+00
4.081942e+00
5.298383e+00
3.404366e+00
3.150181e+00
6.045143e+00
8.035430e+00
8.552519e+00
7.555814e+00
7.013821e+00
4.783816e+00
2.426510e+00
1.667300e+00
4.974364e+00
5.741762e+00
5.494589e+00
4.956664e+00
3.913777e+00
3.577356e+00
3.759875e+00
3.343974e+00
4.054857e+00
4.959532e+00
4.972343e+00
5.928210e+00
6.033144e+00
5.023605e+00
2.400980e+00
2.066613e+00
4.170776e+00
5.223059e+00
4.634641e+00
5.616009e+00
5.298837e+00
4.140182e+00
4.956100e+00
4.681393e+00
2.838357e+00
1.574428e+00
1.916839e+00
2.547213e+00
3.838167e+00
3.383486e+00
2.469822e+00
2.077396e+00
3.865241e+00
4.660526e+00
5.645736e+00
7.221419e+00
7.961803e+00
6.259923e+00
7.215585e+00
6.061182e+00
2.814557e+00
5.967652e-01
1.000000e-01
1.324261e+00
1.856264e+00
2.814557e+00
2.875450e+00
2.843177e+00
3.694131e+00
5.916787e+00
7.102742e+00
8.999008e+00
9.657782e+00


9.947564e-01
9.922713e-01
9.913406e-01
9.934764e-01
9.952465e-01
9.957964e-01
9.976140e-01
9.988964e-01
9.992152e-01
9.991171e-01
9.984118e-01
9.931940e-01
9.949498e-01
9.987281e-01
9.992459e-01
9.971095e-01
9.979964e-01
9.969843e-01
9.962144e-01
9.957622e-01
9.967803e-01
9.980676e-01
9.986551e-01
9.990788e-01
9.993409e-01
9.995336e-01
9.995155e-01
9.988024e-01
9.992682e-01
9.997968e-01
9.982216e-01
9.874539e-01
9.992241e-01
9.989818e-01
9.987202e-01
9.979421e-01
9.982477e-01
9.991190e-01
9.991510e-01
9.991531e-01
9.994590e-01
9.997231e-01
9.997533e-01
9.992834e-01
9.967042e-01
9.937980e-01
9.835987e-01
9.647493e-01
9.997867e-01
9.994975e-01
9.991139e-01
9.981029e-01
9.973970e-01
9.986759e-01
9.989971e-01
9.991272e-01
9.995364e-01
9.997601e-01
9.997391e-01
9.990654e-01
9.965795e-01
9.960616e-01
9.947156e-01
9.955789e-01
9.997263e-01
9.995637e-01
9.992493e-01
9.980460e-01
9.961867e-01
9.964455e-01
9.971018e-01
9.978204e-01
9.991380e-01
9.995870e-01
9.996097e-01
9.989152e-01
9.977081e-01
9.984113e-01
9.987703e-01
9.994964e-01
9.986614e-01
9.986013e-01
9.989070e-01
9.989168e-01
9.989314e-01
9.989875e-01
9.983674e-01
9.973915e-01
9.984588e-01
9.992715e-01
9.993809e-01
9.986324e-01
9.980034e-01
9.990402e-01
9.994000e-01
9.998445e-01
9.959448e-01
9.942621e-01
9.959237e-01
9.980485e-01
9.988444e-01
9.990804e-01
9.988637e-01
9.983292e-01
9.986132e-01
9.991933e-01
9.992736e-01
9.985022e-01
9.978194e-01
9.991223e-01
9.994990e-01
9.998954e-01
9.896451e-01
9.845429e-01
9.907207e-01
9.965768e-01
9.980233e-01
9.983940e-01
9.983017e-01
9.983973e-01
9.986316e-01
9.989344e-01
9.990796e-01
9.984928e-01
9.980196e-01
9.994494e-01
9.997051e-01
9.999370e-01
1 2 19 18
2 3 20 19
3 4 21 20
4 5 22 21
5 6 23 22
6 7 24 23
7 8 25 24
8 9 26 25
9 10 27 26
10 11 28 27
11 12 29 28
12 13 30 29
13 14 31 30
14 15 32 31
15 16 33 32
16 17 34 33
18 19 36 35
19 20 37 36
20 21 38 37
21 22 39 38
22 23 40 39
23 24 41 40
24 25 42 41
25 26 43 42
26 27 44 43
27 28 45 44
28 29 46 45
29 30 47 46
30 31 48 47
31 32 49 48
32 33 50 49
33 34 51 50
35 36 53 52
36 37 54 53
37 38 55 54
38 39 56 55
39 40 57 56
40 41 58 57
41 42 59 58
42 43 60 59
43 44 61 60
44 45 62 61
45 46 63 62
46 47 64 63
47 48 65 64
48 49 66 65
49 50 67 66
50 51 68 67
52 53 70 69
53 54 71 70
54 55 72 71
55 56 73 72
56 57 74 73
57 58 75 74
58 59 76 75
59 60 77 76
60 61 78 77
61 62 79 78
62 63 80 79
63 64 81 80
64 65 82 81
65 66 83 82
66 67 84 83
67 68 85 84
69 70 87 86
70 71 88 87
71 72 89 88
72 73 90 89
73 74 91 90
74 75 92 91
75 76 93 92
76 77 94 93
77 78 95 94
78 79 96 95
79 80 97 96
80 81 98 97
81 82 99 98
82 83 100 99
83 84 101 100
84 85 102 101
86 87 104 103
87 88 105 104
88 89 106 105
89 90 107 106
90 91 108 107
91 92 109 108
92 93 110 109
93 94 111 110
94 95 112 111
95 96 113 112
96 97 114 113
97 98 115 114
98 99 116 115
99 100 117 116
100 101 118 117
101 102 119 118
103 104 121 120
104 105 122 121
105 106 123 122
106 107 124 123
107 108 125 124
108 109 126 125
109 110 127 126
110 111 128 127
111 112 129 128
112 113 130 129
113 114 131 130
114 115 132 131
115 116 133 132
116 117 134 133
117 118 135 134
118 119 136 135
120 121 138 137
121 122 139 138
122 123 140 139
123 124 141 140
124 125 142 141
125 126 143 142
126 127 144 143
127 128 145 144
128 129 146 145
129 130 147 146
130 131 148 147
131 132 149 148
132 133 150 149
133 134 151 150
134 135 152 151
135 136 153 152
