TITLE = "Solution"
VARIABLES = x, y, u, v, psiu, psiv, t, stress
ZONE T="structure" N=153 E=128 F=FEBLOCK ET=QUADRILATERAL VARLOCATION=([7,8]=cellcentered)
0.000000e+00
1.250000e+01
2.500000e+01
3.750000e+01
5.000000e+01
6.250000e+01
7.500000e+01
8.750000e+01
1.000000e+02
1.125000e+02
1.250000e+02
1.375000e+02
1.500000e+02
1.625000e+02
1.750000e+02
1.875000e+02
2.000000e+02
0.000000e+00
1.250000e+01
2.500000e+01
3.750000e+01
5.000000e+01
6.250000e+01
7.500000e+01
8.750000e+01
1.000000e+02
1.125000e+02
1.250000e+02
1.375000e+02
1.500000e+02
1.625000e+02
1.750000e+02
1.875000e+02
2.000000e+02
0.000000e+00
1.250000e+01
2.500000e+01
3.750000e+01
5.000000e+01
6.250000e+01
7.500000e+01
8.750000e+01
1.000000e+02
1.125000e+02
1.250000e+02
1.375000e+02
1.500000e+02
1.625000e+02
1.750000e+02
1.875000e+02
2.000000e+02
0.000000e+00
1.250000e+01
2.500000e+01
3.750000e+01
5.000000e+01
6.250000e+01
7.500000e+01
8.750000e+01
1.000000e+02
1.125000e+02
1.250000e+02
1.375000e+02
1.500000e+02
1.625000e+02
1.750000e+02
1.875000e+02
2.000000e+02
0.000000e+00
1.250000e+01
2.500000e+01
3.750000e+01
5.000000e+01
6.250000e+01
7.500000e+01
8.750000e+01
1.000000e+02
1.125000e+02
1.250000e+02
1.375000e+02
1.500000e+02
1.625000e+02
1.750000e+02
1.875000e+02
2.000000e+02
0.000000e+00
1.250000e+01
2.500000e+01
3.750000e+01
5.000000e+01
6.250000e+01
7.500000e+01
8.750000e+01
1.000000e+02
1.125000e+02
1.250000e+02
1.375000e+02
1.500000e+02
1.625000e+02
1.750000e+02
1.875000e+02
2.000000e+02
0.000000e+00
1.250000e+01
2.500000e+01
3.750000e+01
5.000000e+01
6.250000e+01
7.500000e+01
8.750000e+01
1.000000e+02
1.125000e+02
1.250000e+02
1.375000e+02
1.500000e+02
1.625000e+02
1.750000e+02
1.875000e+02
2.000000e+02
0.000000e+00
1.250000e+01
2.500000e+01
3.750000e+01
5.000000e+01
6.250000e+01
7.500000e+01
8.750000e+01
1.000000e+02
1.125000e+02
1.250000e+02
1.375000e+02
1.500000e+02
1.625000e+02
1.750000e+02
1.875000e+02
2.000000e+02
0.000000e+00
1.250000e+01
2.500000e+01
3.750000e+01
5.000000e+01
6.250000e+01
7.500000e+01
8.750000e+01
1.000000e+02
1.125000e+02
1.250000e+02
1.375000e+02
1.500000e+02
1.625000e+02
1.750000e+02
1.875000e+02
2.000000e+02
0.000000e+00
0.000000e+00
0.000000e+00
0.000000e+00
0.000000e+00
0.000000e+00
0.000000e+00
0.000000e+00
0.000000e+00
0.000000e+00
0.000000e+00
0.000000e+00
0.000000e+00
0.000000e+00
0.000000e+00
0.000000e+00
0.000000e+00
1.250000e+01
1.250000e+01
1.250000e+01
1.250000e+01
1.250000e+01
1.250000e+01
1.250000e+01
1.250000e+01
1.250000e+01
1.250000e+01
1.250000e+01
1.250000e+01
1.250000e+01
1.250000e+01
1.250000e+01
1.250000e+01
1.250000e+01
2.500000e+01
2.500000e+01
2.500000e+01
2.500000e+01
2.500000e+01
2.500000e+01
2.500000e+01
2.500000e+01
2.500000e+01
2.500000e+01
2.500000e+01
2.500000e+01
2.500000e+01
2.500000e+01
2.500000e+01
2.500000e+01
2.500000e+01
3.750000e+01
3.750000e+01
3.750000e+01
3.750000e+01
3.750000e+01
3.750000e+01
3.750000e+01
3.750000e+01
3.750000e+01
3.750000e+01
3.750000e+01
3.750000e+01
3.750000e+01
3.750000e+01
3.750000e+01
3.750000e+01
3.750000e+01
5.000000e+01
5.000000e+01
5.000000e+01
5.000000e+01
5.000000e+01
5.000000e+01
5.000000e+01
5.000000e+01
5.000000e+01
5.000000e+01
5.000000e+01
5.000000e+01
5.000000e+01
5.000000e+01
5.000000e+01
5.000000e+01
5.000000e+01
6.250000e+01
6.250000e+01
6.250000e+01
6.250000e+01
6.250000e+01
6.250000e+01
6.250000e+01
6.250000e+01
6.250000e+01
6.250000e+01
6.250000e+01
6.250000e+01
6.250000e+01
6.250000e+01
6.250000e+01
6.250000e+01
6.250000e+01
7.500000e+01
7.500000e+01
7.500000e+01
7.500000e+01
7.500000e+01
7.500000e+01
7.500000e+01
7.500000e+01
7.500000e+01
7.500000e+01
7.500000e+01
7.500000e+01
7.500000e+01
7.500000e+01
7.500000e+01
7.500000e+01
7.500000e+01
8.750000e+01
8.750000e+01
8.750000e+01
8.750000e+01
8.750000e+01
8.750000e+01
8.750000e+01
8.750000e+01
8.750000e+01
8.750000e+01
8.750000e+01
8.750000e+01
8.750000e+01
8.750000e+01
8.750000e+01
8.750000e+01
8.750000e+01
1.000000e+02
1.000000e+02
1.000000e+02
1.000000e+02
1.000000e+02
1.000000e+02
1.000000e+02
1.000000e+02
1.000000e+02
1.000000e+02
1.000000e+02
1.000000e+02
1.000000e+02
1.000000e+02
1.000000e+02
1.000000e+02
1.000000e+02
0.000000e+00
-9.815109e-01
-1.673344e+00
-2.416826e+00
-3.096790e+00
-3.747957e+00
-4.437252e+00
-5.083559e+00
-5.746826e+00
-6.393340e+00
-7.053967e+00
-7.706533e+00
-8.378105e+00
-9.161659e+00
-1.006154e+01
-1.080742e+01
-1.125848e+01
0.000000e+00
-4.437113e-01
-9.128452e-01
-1.420531e+00
-1.932750e+00
-2.418073e+00
-2.929812e+00
-3.429712e+00
-3.924057e+00
-4.424791e+00
-4.923664e+00
-5.417288e+00
-5.906413e+00
-6.430085e+00
-6.879768e+00
-6.998216e+00
-7.175922e+00
0.000000e+00
-1.531035e-01
-3.632104e-01
-6.547941e-01
-9.938984e-01
-1.320249e+00
-1.674336e+00
-2.026284e+00
-2.372454e+00
-2.727897e+00
-3.068747e+00
-3.395989e+00
-3.686693e+00
-3.919127e+00
-4.017206e+00
-4.010846e+00
-4.160605e+00
0.000000e+00
-7.935782e-02
-1.646827e-01
-3.098645e-01
-4.542049e-01
-6.290829e-01
-8.070269e-01
-9.785934e-01
-1.158423e+00
-1.322969e+00
-1.482812e+00
-1.617042e+00
-1.702538e+00
-1.705498e+00
-1.634105e+00
-1.618391e+00
-1.739783e+00
0.000000e+00
-2.674006e-03
-5.806258e-03
-8.849484e-03
-1.144254e-02
-1.261817e-02
-1.115953e-02
-5.823771e-03
4.338404e-03
2.260321e-02
5.011247e-02
9.778854e-02
1.805107e-01
2.953963e-01
4.115740e-01
4.458543e-01
3.469005e-01
0.000000e+00
7.479029e-02
1.552707e-01
2.944645e-01
4.339581e-01
6.057373e-01
7.861433e-01
9.673386e-01
1.168472e+00
1.366346e+00
1.580682e+00
1.803606e+00
2.024513e+00
2.221328e+00
2.354331e+00
2.386340e+00
2.321733e+00
0.000000e+00
1.514230e-01
3.592342e-01
6.476134e-01
9.823925e-01
1.305985e+00
1.659492e+00
2.017556e+00
2.385414e+00
2.775731e+00
3.151004e+00
3.520733e+00
3.856552e+00
4.123692e+00
4.293774e+00
4.348939e+00
4.328187e+00
0.000000e+00
4.443141e-01
9.135334e-01
1.421270e+00
1.931982e+00
2.416295e+00
2.925652e+00
3.419055e+00
3.909495e+00
4.401269e+00
4.878080e+00
5.353087e+00
5.789725e+00
6.131215e+00
6.344106e+00
6.437361e+00
6.454182e+00
0.000000e+00
9.830459e-01
1.677158e+00
2.424309e+00
3.107882e+00
3.762362e+00
4.453952e+00
5.088204e+00
5.728320e+00
6.329504e+00
6.913077e+00
7.509480e+00
8.046493e+00
8.442938e+00
8.644227e+00
8.698334e+00
8.699095e+00
0.000000e+00
-6.116722e-01
-1.344728e+00
-2.328460e+00
-3.485700e+00
-4.814352e+00
-6.326221e+00
-7.998010e+00
-9.841027e+00
-1.185004e+01
-1.402251e+01
-1.635520e+01
-1.886308e+01
-2.158808e+01
-2.454295e+01
-2.790614e+01
-3.292023e+01
0.000000e+00
-4.079160e-01
-1.175950e+00
-2.143805e+00
-3.315243e+00
-4.638915e+00
-6.149855e+00
-7.827355e+00
-9.667415e+00
-1.167986e+01
-1.385149e+01
-1.618849e+01
-1.868602e+01
-2.139908e+01
-2.440705e+01
-2.781979e+01
-3.187831e+01
0.000000e+00
-3.795713e-01
-1.074842e+00
-2.039096e+00
-3.194386e+00
-4.514978e+00
-6.026473e+00
-7.700952e+00
-9.546841e+00
-1.155972e+01
-1.374196e+01
-1.608938e+01
-1.859947e+01
-2.133799e+01
-2.439922e+01
-2.766402e+01
-3.069340e+01
0.000000e+00
-4.345554e-01
-1.068929e+00
-2.010807e+00
-3.128824e+00
-4.447645e+00
-5.958615e+00
-7.628470e+00
-9.487025e+00
-1.150397e+01
-1.370366e+01
-1.607288e+01
-1.860909e+01
-2.134612e+01
-2.433512e+01
-2.735162e+01
-2.995956e+01
0.000000e+00
-4.430835e-01
-1.088493e+00
-1.995111e+00
-3.116977e+00
-4.431324e+00
-5.941011e+00
-7.621796e+00
-9.482083e+00
-1.151576e+01
-1.372425e+01
-1.610924e+01
-1.865199e+01
-2.134819e+01
-2.418648e+01
-2.698896e+01
-2.935872e+01
0.000000e+00
-4.333980e-01
-1.068565e+00
-2.012849e+00
-3.135829e+00
-4.461322e+00
-5.984415e+00
-7.665482e+00
-9.541932e+00
-1.157994e+01
-1.378780e+01
-1.616286e+01
-1.869035e+01
-2.133876e+01
-2.404884e+01
-2.667353e+01
-2.892962e+01
0.000000e+00
-3.780387e-01
-1.074370e+00
-2.042715e+00
-3.205694e+00
-4.539634e+00
-6.071916e+00
-7.770429e+00
-9.646517e+00
-1.168821e+01
-1.387645e+01
-1.623129e+01
-1.873646e+01
-2.134209e+01
-2.396301e+01
-2.646888e+01
-2.870666e+01
0.000000e+00
-4.065069e-01
-1.175426e+00
-2.147403e+00
-3.327455e+00
-4.666343e+00
-6.201197e+00
-7.908991e+00
-9.782871e+00
-1.182211e+01
-1.399577e+01
-1.633263e+01
-1.881647e+01
-2.138527e+01
-2.394208e+01
-2.638052e+01
-2.864813e+01
0.000000e+00
-6.107064e-01
-1.344755e+00
-2.332533e+00
-3.498569e+00
-4.842629e+00
-6.377470e+00
-8.078261e+00
-9.953040e+00
-1.198148e+01
-1.415260e+01
-1.648242e+01
-1.894013e+01
-2.146521e+01
-2.396691e+01
-2.636505e+01
-2.864708e+01


0.000000e+00
1.522004e-05
2.496920e-05
3.704202e-05
5.260801e-05
6.587355e-05
8.068531e-05
9.554028e-05
1.095246e-04
1.247994e-04
1.398701e-04
1.541435e-04
1.718147e-04
1.858849e-04
1.934017e-04
1.983600e-04
2.050076e-04
0.000000e+00
1.135345e-05
1.981368e-05
2.850603e-05
4.133009e-05
5.194444e-05
6.238534e-05
7.373595e-05
8.385271e-05
9.492551e-05
1.050801e-04
1.146391e-04
1.261536e-04
1.339632e-04
1.337442e-04
1.372970e-04
1.430895e-04
0.000000e+00
9.543343e-06
1.535218e-05
2.097708e-05
3.040887e-05
3.738308e-05
4.387650e-05
5.140952e-05
5.738605e-05
6.389319e-05
6.936599e-05
7.370686e-05
7.815144e-05
7.924964e-05
7.789124e-05
8.025853e-05
8.458253e-05
0.000000e+00
5.226018e-06
7.303279e-06
1.075730e-05
1.520100e-05
1.760458e-05
2.124834e-05
2.428754e-05
2.635340e-05
2.867114e-05
3.004463e-05
2.971601e-05
2.836032e-05
2.644472e-05
2.640718e-05
2.949911e-05
3.506662e-05
0.000000e+00
-8.478228e-08
-2.181910e-07
-4.024227e-07
-6.629447e-07
-1.003956e-06
-1.414929e-06
-2.033675e-06
-2.842648e-06
-4.386552e-06
-6.978756e-06
-1.083135e-05
-1.379925e-05
-1.515733e-05
-1.472677e-05
-1.243891e-05
-8.646821e-06
0.000000e+00
-5.342685e-06
-7.606299e-06
-1.139751e-05
-1.625718e-05
-1.918071e-05
-2.362021e-05
-2.717256e-05
-3.053281e-05
-3.341755e-05
-3.695053e-05
-4.179479e-05
-4.599096e-05
-4.721629e-05
-4.774628e-05
-4.825640e-05
-4.680020e-05
0.000000e+00
-9.499252e-06
-1.535911e-05
-2.115985e-05
-3.080465e-05
-3.819289e-05
-4.493349e-05
-5.290924e-05
-5.872148e-05
-6.389708e-05
-6.854973e-05
-7.310871e-05
-7.720535e-05
-8.016339e-05
-8.201022e-05
-8.379673e-05
-8.450326e-05
0.000000e+00
-1.128016e-05
-1.971823e-05
-2.841997e-05
-4.122658e-05
-5.196745e-05
-6.232013e-05
-7.388736e-05
-8.404014e-05
-9.451484e-05
-1.046301e-04
-1.121201e-04
-1.173682e-04
-1.220848e-04
-1.252287e-04
-1.263231e-04
-1.264232e-04
0.000000e+00
-1.525393e-05
-2.494925e-05
-3.689652e-05
-5.224375e-05
-6.523679e-05
-7.971898e-05
-9.400205e-05
-1.082626e-04
-1.237384e-04
-1.411009e-04
-1.555333e-04
-1.646215e-04
-1.694453e-04
-1.715275e-04
-1.716595e-04
-1.714611e-04
0.000000e+00
1.256901e-05
1.997662e-05
3.213914e-05
4.773446e-05
6.444102e-05
8.631577e-05
1.120106e-04
1.413544e-04
1.759599e-04
2.144254e-04
2.582375e-04
3.089107e-04
3.618888e-04
4.226189e-04
4.925852e-04
5.644880e-04
0.000000e+00
7.604107e-06
1.603181e-05
2.606197e-05
4.130877e-05
5.860058e-05
7.992938e-05
1.059119e-04
1.352464e-04
1.696279e-04
2.085384e-04
2.519937e-04
3.023851e-04
3.580412e-04
4.181287e-04
4.853905e-04
5.542109e-04
0.000000e+00
4.179912e-06
1.208530e-05
2.121637e-05
3.564999e-05
5.359478e-05
7.508198e-05
1.010165e-04
1.306306e-04
1.651707e-04
2.042357e-04
2.481035e-04
2.988468e-04
3.562950e-04
4.145280e-04
4.779894e-04
5.442971e-04
0.000000e+00
2.900623e-06
1.002267e-05
1.915820e-05
3.336078e-05
5.147913e-05
7.315951e-05
9.931275e-05
1.291587e-04
1.633707e-04
2.026159e-04
2.473466e-04
2.985537e-04
3.550487e-04
4.120454e-04
4.702885e-04
5.300539e-04
0.000000e+00
2.443273e-06
9.464214e-06
1.873764e-05
3.282028e-05
5.091796e-05
7.262903e-05
9.884851e-05
1.289092e-04
1.627213e-04
2.015523e-04
2.480950e-04
2.992857e-04
3.551429e-04
4.109292e-04
4.640701e-04
5.146445e-04
0.000000e+00
3.008691e-06
1.016962e-05
1.936015e-05
3.352853e-05
5.154123e-05
7.312193e-05
9.903142e-05
1.290192e-04
1.625736e-04
2.020235e-04
2.501261e-04
3.018319e-04
3.553690e-04
4.108139e-04
4.618083e-04
5.045677e-04
0.000000e+00
4.318026e-06
1.232188e-05
2.156310e-05
3.590931e-05
5.374535e-05
7.483415e-05
1.003855e-04
1.296410e-04
1.636205e-04
2.042628e-04
2.533637e-04
3.053278e-04
3.571569e-04
4.098051e-04
4.593784e-04
5.016437e-04
0.000000e+00
7.722454e-06
1.630542e-05
2.646013e-05
4.168858e-05
5.879700e-05
7.978819e-05
1.051565e-04
1.337129e-04
1.677588e-04
2.086833e-04
2.567290e-04
3.083092e-04
3.591319e-04
4.096896e-04
4.575938e-04
5.021627e-04
0.000000e+00
1.267825e-05
2.024945e-05
3.253815e-05
4.813495e-05
6.466283e-05
8.622187e-05
1.113293e-04
1.398893e-04
1.742863e-04
2.150940e-04
2.606544e-04
3.104066e-04
3.603389e-04
4.098763e-04
4.571382e-04
5.024387e-04


5.011374e+00
5.357189e+00
5.867577e+00
5.065126e+00
4.458230e+00
4.569849e+00
4.696236e+00
4.942118e+00
5.140240e+00
5.499255e+00
5.873949e+00
6.839331e+00
8.430113e+00
9.293256e+00
8.552563e+00
7.384381e+00
7.491817e+00
7.737998e+00
7.856417e+00
7.569451e+00
7.164809e+00
7.246219e+00
7.352866e+00
7.395426e+00
7.560244e+00
7.675835e+00
7.851584e+00
8.314344e+00
9.042547e+00
9.258129e+00
7.841256e+00
5.984825e+00
9.416153e+00
9.401990e+00
9.503485e+00
9.330898e+00
9.299295e+00
9.326265e+00
9.306370e+00
9.345378e+00
9.328793e+00
9.369877e+00
9.350748e+00
9.352778e+00
9.366587e+00
8.886403e+00
7.385986e+00
5.682092e+00
9.750441e+00
9.746505e+00
9.744967e+00
9.726201e+00
9.718992e+00
9.717157e+00
9.709604e+00
9.701210e+00
9.678878e+00
9.621844e+00
9.460170e+00
8.941777e+00
8.383820e+00
7.951179e+00
7.415217e+00
7.076792e+00
9.749878e+00
9.745110e+00
9.742573e+00
9.720922e+00
9.710568e+00
9.705880e+00
9.691283e+00
9.673837e+00
9.613849e+00
9.391993e+00
8.788119e+00
7.911649e+00
7.200703e+00
7.309042e+00
8.013313e+00
8.426988e+00
9.412921e+00
9.395778e+00
9.487982e+00
9.297898e+00
9.246796e+00
9.253782e+00
9.202224e+00
9.184470e+00
8.868313e+00
8.287913e+00
7.764680e+00
7.323676e+00
7.455246e+00
8.110484e+00
8.910774e+00
9.423713e+00
7.487786e+00
7.728266e+00
7.832142e+00
7.514908e+00
7.090346e+00
7.141236e+00
7.197909e+00
7.117695e+00
6.884213e+00
6.633244e+00
6.962196e+00
7.859380e+00
8.607648e+00
9.239095e+00
9.594663e+00
9.708544e+00
5.010658e+00
5.352681e+00
5.851833e+00
5.029311e+00
4.418131e+00
4.524901e+00
4.611558e+00
4.822467e+00
4.880911e+00
5.470374e+00
7.016378e+00
8.484339e+00
9.381685e+00
9.641448e+00
9.733105e+00
9.767960e+00


-7.786747e-01
-2.012864e-01
-3.682231e-01
-2.479109e-01
-1.370082e-01
-2.660100e-01
-1.595159e-01
-1.824953e-01
-1.668449e-01
-1.914888e-01
-1.659559e-01
-1.947267e-01
-4.973998e-01
-5.515017e-01
3.424669e-01
-8.433927e-01
6.098418e-01
4.627607e-01
3.058972e-01
2.280148e-01
2.829832e-01
1.778693e-01
1.840377e-01
1.797020e-01
1.332194e-01
1.438032e-01
1.711565e-01
2.555405e-01
3.187975e-01
5.639775e-01
7.046477e-01
-9.873057e-01
7.391876e-01
4.915716e-01
1.243767e-01
5.819006e-02
1.725035e-02
-7.065579e-02
-2.542359e-02
-4.108066e-02
1.629935e-03
4.169498e-02
1.170643e-01
2.460877e-01
3.220337e-01
1.802532e-01
4.323820e-03
-2.004682e-01
7.462592e-01
5.710186e-01
2.362352e-01
1.165843e-01
1.646716e-02
-2.613812e-02
9.486959e-03
7.067033e-03
6.250740e-02
7.948453e-02
1.131878e-01
1.467288e-01
6.056759e-02
-2.761157e-01
-3.514630e-01
-5.150477e-02
7.487106e-01
5.742630e-01
2.413754e-01
1.185495e-01
1.449489e-02
-4.137794e-02
-1.237600e-02
-3.245235e-02
6.093893e-03
2.214216e-02
3.393646e-02
2.592541e-02
-3.898373e-02
-1.645031e-01
-9.922018e-02
3.360274e-01
7.447452e-01
5.002917e-01
1.384539e-01
6.938449e-02
1.692409e-02
-9.831845e-02
-7.999056e-02
-1.446863e-01
-1.272692e-01
-8.324808e-02
-1.059714e-01
-1.118880e-01
-7.100721e-02
5.777128e-02
3.371801e-01
7.397296e-01
6.129058e-01
4.676089e-01
3.120996e-01
2.369705e-01
2.842648e-01
1.679579e-01
1.533551e-01
8.956243e-02
-1.502813e-02
-2.548119e-02
-1.075197e-01
-8.568552e-02
9.981050e-02
3.938570e-01
7.190263e-01
9.493941e-01
-7.825414e-01
-2.058944e-01
-3.760167e-01
-2.523518e-01
-1.422586e-01
-2.676278e-01
-1.281161e-01
-1.398063e-01
-8.102629e-02
-3.499472e-02
-8.140577e-02
7.291791e-02
4.236875e-01
7.762126e-01
9.526993e-01
9.987426e-01
1 2 19 18
2 3 20 19
3 4 21 20
4 5 22 21
5 6 23 22
6 7 24 23
7 8 25 24
8 9 26 25
9 10 27 26
10 11 28 27
11 12 29 28
12 13 30 29
13 14 31 30
14 15 32 31
15 16 33 32
16 17 34 33
18 19 36 35
19 20 37 36
20 21 38 37
21 22 39 38
22 23 40 39
23 24 41 40
24 25 42 41
25 26 43 42
26 27 44 43
27 28 45 44
28 29 46 45
29 30 47 46
30 31 48 47
31 32 49 48
32 33 50 49
33 34 51 50
35 36 53 52
36 37 54 53
37 38 55 54
38 39 56 55
39 40 57 56
40 41 58 57
41 42 59 58
42 43 60 59
43 44 61 60
44 45 62 61
45 46 63 62
46 47 64 63
47 48 65 64
48 49 66 65
49 50 67 66
50 51 68 67
52 53 70 69
53 54 71 70
54 55 72 71
55 56 73 72
56 57 74 73
57 58 75 74
58 59 76 75
59 60 77 76
60 61 78 77
61 62 79 78
62 63 80 79
63 64 81 80
64 65 82 81
65 66 83 82
66 67 84 83
67 68 85 84
69 70 87 86
70 71 88 87
71 72 89 88
72 73 90 89
73 74 91 90
74 75 92 91
75 76 93 92
76 77 94 93
77 78 95 94
78 79 96 95
79 80 97 96
80 81 98 97
81 82 99 98
82 83 100 99
83 84 101 100
84 85 102 101
86 87 104 103
87 88 105 104
88 89 106 105
89 90 107 106
90 91 108 107
91 92 109 108
92 93 110 109
93 94 111 110
94 95 112 111
95 96 113 112
96 97 114 113
97 98 115 114
98 99 116 115
99 100 117 116
100 101 118 117
101 102 119 118
103 104 121 120
104 105 122 121
105 106 123 122
106 107 124 123
107 108 125 124
108 109 126 125
109 110 127 126
110 111 128 127
111 112 129 128
112 113 130 129
113 114 131 130
114 115 132 131
115 116 133 132
116 117 134 133
117 118 135 134
118 119 136 135
120 121 138 137
121 122 139 138
122 123 140 139
123 124 141 140
124 125 142 141
125 126 143 142
126 127 144 143
127 128 145 144
128 129 146 145
129 130 147 146
130 131 148 147
131 132 149 148
132 133 150 149
133 134 151 150
134 135 152 151
135 136 153 152
