TITLE = "Solution"
VARIABLES = x, y, u, v, psiu, psiv, t, stress
ZONE T="structure" N=153 E=128 F=FEBLOCK ET=QUADRILATERAL VARLOCATION=([7,8]=cellcentered)
0.000000e+00
1.250000e+01
2.500000e+01
3.750000e+01
5.000000e+01
6.250000e+01
7.500000e+01
8.750000e+01
1.000000e+02
1.125000e+02
1.250000e+02
1.375000e+02
1.500000e+02
1.625000e+02
1.750000e+02
1.875000e+02
2.000000e+02
0.000000e+00
1.250000e+01
2.500000e+01
3.750000e+01
5.000000e+01
6.250000e+01
7.500000e+01
8.750000e+01
1.000000e+02
1.125000e+02
1.250000e+02
1.375000e+02
1.500000e+02
1.625000e+02
1.750000e+02
1.875000e+02
2.000000e+02
0.000000e+00
1.250000e+01
2.500000e+01
3.750000e+01
5.000000e+01
6.250000e+01
7.500000e+01
8.750000e+01
1.000000e+02
1.125000e+02
1.250000e+02
1.375000e+02
1.500000e+02
1.625000e+02
1.750000e+02
1.875000e+02
2.000000e+02
0.000000e+00
1.250000e+01
2.500000e+01
3.750000e+01
5.000000e+01
6.250000e+01
7.500000e+01
8.750000e+01
1.000000e+02
1.125000e+02
1.250000e+02
1.375000e+02
1.500000e+02
1.625000e+02
1.750000e+02
1.875000e+02
2.000000e+02
0.000000e+00
1.250000e+01
2.500000e+01
3.750000e+01
5.000000e+01
6.250000e+01
7.500000e+01
8.750000e+01
1.000000e+02
1.125000e+02
1.250000e+02
1.375000e+02
1.500000e+02
1.625000e+02
1.750000e+02
1.875000e+02
2.000000e+02
0.000000e+00
1.250000e+01
2.500000e+01
3.750000e+01
5.000000e+01
6.250000e+01
7.500000e+01
8.750000e+01
1.000000e+02
1.125000e+02
1.250000e+02
1.375000e+02
1.500000e+02
1.625000e+02
1.750000e+02
1.875000e+02
2.000000e+02
0.000000e+00
1.250000e+01
2.500000e+01
3.750000e+01
5.000000e+01
6.250000e+01
7.500000e+01
8.750000e+01
1.000000e+02
1.125000e+02
1.250000e+02
1.375000e+02
1.500000e+02
1.625000e+02
1.750000e+02
1.875000e+02
2.000000e+02
0.000000e+00
1.250000e+01
2.500000e+01
3.750000e+01
5.000000e+01
6.250000e+01
7.500000e+01
8.750000e+01
1.000000e+02
1.125000e+02
1.250000e+02
1.375000e+02
1.500000e+02
1.625000e+02
1.750000e+02
1.875000e+02
2.000000e+02
0.000000e+00
1.250000e+01
2.500000e+01
3.750000e+01
5.000000e+01
6.250000e+01
7.500000e+01
8.750000e+01
1.000000e+02
1.125000e+02
1.250000e+02
1.375000e+02
1.500000e+02
1.625000e+02
1.750000e+02
1.875000e+02
2.000000e+02
0.000000e+00
0.000000e+00
0.000000e+00
0.000000e+00
0.000000e+00
0.000000e+00
0.000000e+00
0.000000e+00
0.000000e+00
0.000000e+00
0.000000e+00
0.000000e+00
0.000000e+00
0.000000e+00
0.000000e+00
0.000000e+00
0.000000e+00
1.250000e+01
1.250000e+01
1.250000e+01
1.250000e+01
1.250000e+01
1.250000e+01
1.250000e+01
1.250000e+01
1.250000e+01
1.250000e+01
1.250000e+01
1.250000e+01
1.250000e+01
1.250000e+01
1.250000e+01
1.250000e+01
1.250000e+01
2.500000e+01
2.500000e+01
2.500000e+01
2.500000e+01
2.500000e+01
2.500000e+01
2.500000e+01
2.500000e+01
2.500000e+01
2.500000e+01
2.500000e+01
2.500000e+01
2.500000e+01
2.500000e+01
2.500000e+01
2.500000e+01
2.500000e+01
3.750000e+01
3.750000e+01
3.750000e+01
3.750000e+01
3.750000e+01
3.750000e+01
3.750000e+01
3.750000e+01
3.750000e+01
3.750000e+01
3.750000e+01
3.750000e+01
3.750000e+01
3.750000e+01
3.750000e+01
3.750000e+01
3.750000e+01
5.000000e+01
5.000000e+01
5.000000e+01
5.000000e+01
5.000000e+01
5.000000e+01
5.000000e+01
5.000000e+01
5.000000e+01
5.000000e+01
5.000000e+01
5.000000e+01
5.000000e+01
5.000000e+01
5.000000e+01
5.000000e+01
5.000000e+01
6.250000e+01
6.250000e+01
6.250000e+01
6.250000e+01
6.250000e+01
6.250000e+01
6.250000e+01
6.250000e+01
6.250000e+01
6.250000e+01
6.250000e+01
6.250000e+01
6.250000e+01
6.250000e+01
6.250000e+01
6.250000e+01
6.250000e+01
7.500000e+01
7.500000e+01
7.500000e+01
7.500000e+01
7.500000e+01
7.500000e+01
7.500000e+01
7.500000e+01
7.500000e+01
7.500000e+01
7.500000e+01
7.500000e+01
7.500000e+01
7.500000e+01
7.500000e+01
7.500000e+01
7.500000e+01
8.750000e+01
8.750000e+01
8.750000e+01
8.750000e+01
8.750000e+01
8.750000e+01
8.750000e+01
8.750000e+01
8.750000e+01
8.750000e+01
8.750000e+01
8.750000e+01
8.750000e+01
8.750000e+01
8.750000e+01
8.750000e+01
8.750000e+01
1.000000e+02
1.000000e+02
1.000000e+02
1.000000e+02
1.000000e+02
1.000000e+02
1.000000e+02
1.000000e+02
1.000000e+02
1.000000e+02
1.000000e+02
1.000000e+02
1.000000e+02
1.000000e+02
1.000000e+02
1.000000e+02
1.000000e+02
0.000000e+00
-4.650346e-01
-8.521011e-01
-1.211811e+00
-1.556356e+00
-1.882745e+00
-2.188339e+00
-2.471513e+00
-2.731265e+00
-2.967360e+00
-3.180779e+00
-3.374446e+00
-3.554439e+00
-3.731993e+00
-3.926385e+00
-4.160383e+00
-4.333933e+00
0.000000e+00
-2.732777e-01
-5.669047e-01
-8.414081e-01
-1.102026e+00
-1.347819e+00
-1.577487e+00
-1.790147e+00
-1.985068e+00
-2.161753e+00
-2.320071e+00
-2.460235e+00
-2.582311e+00
-2.684104e+00
-2.755627e+00
-2.771495e+00
-2.825842e+00
0.000000e+00
-1.677357e-01
-3.457842e-01
-5.273610e-01
-7.019440e-01
-8.666125e-01
-1.020132e+00
-1.161742e+00
-1.290614e+00
-1.405726e+00
-1.505710e+00
-1.588487e+00
-1.650486e+00
-1.685665e+00
-1.687353e+00
-1.674296e+00
-1.729696e+00
0.000000e+00
-7.989334e-02
-1.653729e-01
-2.538440e-01
-3.410379e-01
-4.235605e-01
-5.002551e-01
-5.703603e-01
-6.329609e-01
-6.867638e-01
-7.299419e-01
-7.600303e-01
-7.741729e-01
-7.708828e-01
-7.572209e-01
-7.606491e-01
-8.022432e-01
0.000000e+00
-1.228175e-04
-2.740326e-04
-4.285983e-04
-5.340767e-04
-4.712376e-04
-2.873620e-07
1.312585e-03
4.183839e-03
9.687500e-03
1.923539e-02
3.426538e-02
5.521539e-02
7.904628e-02
9.573830e-02
9.180201e-02
6.393261e-02
0.000000e+00
7.969818e-02
1.649340e-01
2.531490e-01
3.401502e-01
4.227233e-01
5.000765e-01
5.721167e-01
6.390462e-01
7.012780e-01
7.593034e-01
8.132559e-01
8.619239e-01
9.013386e-01
9.247867e-01
9.269552e-01
9.126519e-01
0.000000e+00
1.676715e-01
3.456305e-01
5.270980e-01
7.015673e-01
8.661553e-01
1.019708e+00
1.161620e+00
1.291342e+00
1.408312e+00
1.511895e+00
1.601153e+00
1.674441e+00
1.729119e+00
1.762174e+00
1.773008e+00
1.769649e+00
0.000000e+00
2.733743e-01
5.671122e-01
8.417407e-01
1.102476e+00
1.348283e+00
1.577650e+00
1.789271e+00
1.981654e+00
2.153054e+00
2.301505e+00
2.424906e+00
2.521321e+00
2.589645e+00
2.630681e+00
2.648269e+00
2.651506e+00
0.000000e+00
4.652181e-01
8.526036e-01
1.212771e+00
1.557921e+00
1.884976e+00
2.191014e+00
2.473708e+00
2.730600e+00
2.958760e+00
3.154639e+00
3.314153e+00
3.433375e+00
3.510281e+00
3.547766e+00
3.557090e+00
3.556921e+00
0.000000e+00
-2.825640e-01
-5.602232e-01
-9.219180e-01
-1.366624e+00
-1.894085e+00
-2.500178e+00
-3.179560e+00
-3.926043e+00
-4.733147e+00
-5.594621e+00
-6.505356e+00
-7.463311e+00
-8.473839e+00
-9.564495e+00
-1.082224e+01
-1.265634e+01
0.000000e+00
-1.748936e-01
-4.648892e-01
-8.289000e-01
-1.278282e+00
-1.810979e+00
-2.422899e+00
-3.108447e+00
-3.861340e+00
-4.674941e+00
-5.542760e+00
-6.459378e+00
-7.422389e+00
-8.437189e+00
-9.528221e+00
-1.077872e+01
-1.232280e+01
0.000000e+00
-1.340702e-01
-3.992066e-01
-7.632342e-01
-1.215049e+00
-1.751670e+00
-2.368046e+00
-3.058461e+00
-3.816642e+00
-4.636036e+00
-5.510268e+00
-6.434112e+00
-7.405465e+00
-8.428964e+00
-9.521572e+00
-1.070325e+01
-1.184283e+01
0.000000e+00
-1.187284e-01
-3.675590e-01
-7.251232e-01
-1.177483e+00
-1.716408e+00
-2.335891e+00
-3.029967e+00
-3.792473e+00
-4.617033e+00
-5.497413e+00
-6.428263e+00
-7.406290e+00
-8.431079e+00
-9.500405e+00
-1.058050e+01
-1.156772e+01
0.000000e+00
-1.148259e-01
-3.583082e-01
-7.131418e-01
-1.165227e+00
-1.705193e+00
-2.326274e+00
-3.022544e+00
-3.787976e+00
-4.616305e+00
-5.501122e+00
-6.436104e+00
-7.415004e+00
-8.429963e+00
-9.463813e+00
-1.047720e+01
-1.140224e+01
0.000000e+00
-1.186414e-01
-3.674998e-01
-7.252333e-01
-1.178002e+00
-1.717750e+00
-2.338728e+00
-3.035297e+00
-3.801611e+00
-4.631383e+00
-5.517727e+00
-6.452836e+00
-7.427127e+00
-8.427012e+00
-9.430993e+00
-1.040619e+01
-1.130890e+01
0.000000e+00
-1.339302e-01
-3.991120e-01
-7.634193e-01
-1.215919e+00
-1.753926e+00
-2.372824e+00
-3.067455e+00
-3.832093e+00
-4.660357e+00
-5.544851e+00
-6.476467e+00
-7.443206e+00
-8.428653e+00
-9.411092e+00
-1.036541e+01
-1.126725e+01
0.000000e+00
-1.747600e-01
-4.648048e-01
-8.291395e-01
-1.279318e+00
-1.813617e+00
-2.428434e+00
-3.118795e+00
-3.879010e+00
-4.702583e+00
-5.581799e+00
-6.506868e+00
-7.464750e+00
-8.438139e+00
-9.406047e+00
-1.034842e+01
-1.125737e+01
0.000000e+00
-2.824921e-01
-5.602150e-01
-9.222661e-01
-1.367806e+00
-1.896889e+00
-2.505833e+00
-3.189812e+00
-3.943049e+00
-4.758913e+00
-5.629491e+00
-6.544794e+00
-7.491724e+00
-8.453418e+00
-9.410300e+00
-1.034530e+01
-1.125752e+01


0.000000e+00
8.430414e-06
1.685394e-05
2.471607e-05
3.222451e-05
3.931156e-05
4.591676e-05
5.201461e-05
5.759594e-05
6.266446e-05
6.723552e-05
7.132959e-05
7.495122e-05
7.805134e-05
8.056947e-05
8.272359e-05
8.466999e-05
0.000000e+00
4.796741e-06
1.157166e-05
1.764312e-05
2.331396e-05
2.864466e-05
3.359786e-05
3.814944e-05
4.228481e-05
4.599140e-05
4.925406e-05
5.204967e-05
5.434777e-05
5.617296e-05
5.782187e-05
5.980058e-05
6.186344e-05
0.000000e+00
3.035418e-06
7.310707e-06
1.131453e-05
1.511490e-05
1.867731e-05
2.197051e-05
2.497230e-05
2.766346e-05
3.002267e-05
3.202558e-05
3.365222e-05
3.491727e-05
3.594112e-05
3.701816e-05
3.849340e-05
4.021262e-05
0.000000e+00
1.475596e-06
3.464687e-06
5.428571e-06
7.331732e-06
9.110445e-06
1.073911e-05
1.220128e-05
1.347967e-05
1.455557e-05
1.541320e-05
1.605266e-05
1.651498e-05
1.691209e-05
1.742976e-05
1.828984e-05
1.948064e-05
0.000000e+00
2.260617e-09
3.261664e-09
7.477803e-10
-8.194201e-09
-2.831282e-08
-6.663163e-08
-1.325922e-07
-2.372860e-07
-3.907745e-07
-5.960913e-07
-8.390524e-07
-1.076127e-06
-1.227822e-06
-1.177034e-06
-7.770092e-07
2.266364e-10
0.000000e+00
-1.471364e-06
-3.458228e-06
-5.425683e-06
-7.342947e-06
-9.154169e-06
-1.084559e-05
-1.241689e-05
-1.387019e-05
-1.520540e-05
-1.641489e-05
-1.747750e-05
-1.835447e-05
-1.899046e-05
-1.932116e-05
-1.926937e-05
-1.884689e-05
0.000000e+00
-3.032385e-06
-7.305721e-06
-1.131019e-05
-1.511574e-05
-1.869146e-05
-2.201167e-05
-2.506212e-05
-2.783367e-05
-3.031607e-05
-3.249315e-05
-3.433930e-05
-3.581827e-05
-3.688959e-05
-3.753099e-05
-3.775013e-05
-3.762801e-05
0.000000e+00
-4.797648e-06
-1.157347e-05
-1.764412e-05
-2.331105e-05
-2.863194e-05
-3.356488e-05
-3.807912e-05
-4.215128e-05
-4.575884e-05
-4.887823e-05
-5.148438e-05
-5.355108e-05
-5.505681e-05
-5.600862e-05
-5.647920e-05
-5.659424e-05
0.000000e+00
-8.440271e-06
-1.687092e-05
-2.473682e-05
-3.224168e-05
-3.930907e-05
-4.586330e-05
-5.185485e-05
-5.724006e-05
-6.197781e-05
-6.603236e-05
-6.937862e-05
-7.200719e-05
-7.392894e-05
-7.518268e-05
-7.583143e-05
-7.604035e-05
0.000000e+00
7.634274e-06
1.487077e-05
2.309227e-05
3.299075e-05
4.463702e-05
5.796409e-05
7.286718e-05
8.921877e-05
1.068898e-04
1.257664e-04
1.457767e-04
1.669616e-04
1.896362e-04
2.144120e-04
2.408462e-04
2.670914e-04
0.000000e+00
4.578289e-06
1.165004e-05
1.990805e-05
2.994257e-05
4.177685e-05
5.532280e-05
7.045673e-05
8.704583e-05
1.049578e-04
1.240757e-04
1.443224e-04
1.657013e-04
1.883474e-04
2.124807e-04
2.381875e-04
2.640515e-04
0.000000e+00
2.878312e-06
9.067274e-06
1.731452e-05
2.745255e-05
3.944743e-05
5.318083e-05
6.851810e-05
8.532207e-05
1.034584e-04
1.228051e-04
1.432648e-04
1.647690e-04
1.872404e-04
2.106001e-04
2.353038e-04
2.602854e-04
0.000000e+00
2.130721e-06
7.734252e-06
1.581597e-05
2.600053e-05
3.809501e-05
5.194933e-05
6.742225e-05
8.437389e-05
1.026662e-04
1.221653e-04
1.427409e-04
1.642495e-04
1.864942e-04
2.092901e-04
2.329860e-04
2.566540e-04
0.000000e+00
1.930842e-06
7.340128e-06
1.533623e-05
2.553312e-05
3.767034e-05
5.157982e-05
6.711772e-05
8.414227e-05
1.025092e-04
1.220691e-04
1.426596e-04
1.640864e-04
1.860944e-04
2.084175e-04
2.312200e-04
2.535868e-04
0.000000e+00
2.132699e-06
7.741544e-06
1.583395e-05
2.603620e-05
3.815799e-05
5.205176e-05
6.757718e-05
8.459081e-05
1.029416e-04
1.224653e-04
1.429761e-04
1.642501e-04
1.860015e-04
2.079151e-04
2.299724e-04
2.513854e-04
0.000000e+00
2.881317e-06
9.079676e-06
1.734554e-05
2.751442e-05
3.955705e-05
5.335956e-05
6.878894e-05
8.570186e-05
1.039412e-04
1.233313e-04
1.436702e-04
1.647181e-04
1.861794e-04
2.077248e-04
2.292228e-04
2.500443e-04
0.000000e+00
4.581899e-06
1.166552e-05
1.994598e-05
3.001774e-05
4.190943e-05
5.553793e-05
7.078081e-05
8.749672e-05
1.055243e-04
1.246794e-04
1.447495e-04
1.654866e-04
1.866021e-04
2.077943e-04
2.288839e-04
2.494046e-04
0.000000e+00
7.640170e-06
1.488872e-05
2.313329e-05
3.306945e-05
4.477255e-05
5.817908e-05
7.318320e-05
8.964520e-05
1.074020e-04
1.262655e-04
1.460190e-04
1.664137e-04
1.871736e-04
2.080341e-04
2.288283e-04
2.492182e-04


1.302858e+00
1.291587e+00
1.312825e+00
1.359316e+00
1.400888e+00
1.438409e+00
1.474305e+00
1.508361e+00
1.539884e+00
1.568320e+00
1.593165e+00
1.613480e+00
1.624980e+00
1.614563e+00
1.582997e+00
1.558398e+00
1.386414e+00
1.373651e+00
1.385250e+00
1.418930e+00
1.450551e+00
1.479780e+00
1.508208e+00
1.535419e+00
1.560825e+00
1.583905e+00
1.604035e+00
1.619970e+00
1.627045e+00
1.612328e+00
1.579148e+00
1.554392e+00
1.518164e+00
1.505540e+00
1.505721e+00
1.520004e+00
1.535180e+00
1.550709e+00
1.566340e+00
1.581547e+00
1.595909e+00
1.608996e+00
1.620177e+00
1.628225e+00
1.629302e+00
1.613716e+00
1.585760e+00
1.567310e+00
1.606396e+00
1.595693e+00
1.588986e+00
1.589823e+00
1.594123e+00
1.599895e+00
1.606133e+00
1.612248e+00
1.617924e+00
1.622877e+00
1.626752e+00
1.628970e+00
1.627692e+00
1.618268e+00
1.604365e+00
1.596842e+00
1.606409e+00
1.595684e+00
1.588910e+00
1.589607e+00
1.593659e+00
1.599028e+00
1.604655e+00
1.609920e+00
1.614536e+00
1.618376e+00
1.621477e+00
1.624047e+00
1.625902e+00
1.625758e+00
1.625457e+00
1.627072e+00
1.518133e+00
1.505459e+00
1.505506e+00
1.519517e+00
1.534221e+00
1.548995e+00
1.563498e+00
1.577144e+00
1.589569e+00
1.600654e+00
1.610558e+00
1.619752e+00
1.628648e+00
1.636989e+00
1.645034e+00
1.651001e+00
1.386228e+00
1.373421e+00
1.384940e+00
1.418488e+00
1.449905e+00
1.478846e+00
1.506883e+00
1.533585e+00
1.558401e+00
1.580991e+00
1.601248e+00
1.619307e+00
1.635323e+00
1.649107e+00
1.660253e+00
1.666802e+00
1.302531e+00
1.291239e+00
1.312478e+00
1.359029e+00
1.400756e+00
1.438597e+00
1.475044e+00
1.509924e+00
1.542554e+00
1.572380e+00
1.598999e+00
1.622157e+00
1.641664e+00
1.657257e+00
1.668462e+00
1.674564e+00


5.192727e-01
5.935085e-01
6.481774e-01
6.791630e-01
7.129084e-01
7.484441e-01
7.838600e-01
8.180253e-01
8.498844e-01
8.782946e-01
9.021483e-01
9.204701e-01
9.326468e-01
9.385332e-01
9.441114e-01
7.591157e-01
8.230713e-01
7.913208e-01
8.053515e-01
8.217575e-01
8.396626e-01
8.582915e-01
8.768775e-01
8.952752e-01
9.133779e-01
9.310594e-01
9.482023e-01
9.646482e-01
9.797696e-01
9.902026e-01
9.669170e-01
6.477173e-01
9.387657e-01
9.185450e-01
9.098355e-01
9.124542e-01
9.183818e-01
9.251782e-01
9.323184e-01
9.398667e-01
9.479545e-01
9.565423e-01
9.651148e-01
9.720741e-01
9.735648e-01
9.607005e-01
9.150074e-01
8.335470e-01
9.855601e-01
9.702228e-01
9.599271e-01
9.561458e-01
9.556837e-01
9.560932e-01
9.567651e-01
9.576304e-01
9.586562e-01
9.595611e-01
9.595082e-01
9.568158e-01
9.491429e-01
9.359774e-01
9.255900e-01
9.236235e-01
9.856345e-01
9.703264e-01
9.600306e-01
9.561679e-01
9.554713e-01
9.553852e-01
9.551417e-01
9.544804e-01
9.532062e-01
9.510599e-01
9.477514e-01
9.433038e-01
9.391198e-01
9.396853e-01
9.503802e-01
9.688740e-01
9.389174e-01
9.187583e-01
9.100485e-01
9.125125e-01
9.179982e-01
9.238429e-01
9.291942e-01
9.337048e-01
9.371142e-01
9.392873e-01
9.405121e-01
9.420382e-01
9.465516e-01
9.570535e-01
9.732988e-01
9.902797e-01
8.231159e-01
7.913776e-01
8.053816e-01
8.217107e-01
8.394401e-01
8.577120e-01
8.756317e-01
8.928714e-01
9.090961e-01
9.239755e-01
9.374171e-01
9.499061e-01
9.626296e-01
9.765248e-01
9.898129e-01
9.982869e-01
5.189867e-01
5.930151e-01
6.475443e-01
6.783997e-01
7.121861e-01
7.481778e-01
7.848585e-01
8.216426e-01
8.580721e-01
8.934249e-01
9.264826e-01
9.553343e-01
9.776453e-01
9.918059e-01
9.983766e-01
9.999652e-01
1 2 19 18
2 3 20 19
3 4 21 20
4 5 22 21
5 6 23 22
6 7 24 23
7 8 25 24
8 9 26 25
9 10 27 26
10 11 28 27
11 12 29 28
12 13 30 29
13 14 31 30
14 15 32 31
15 16 33 32
16 17 34 33
18 19 36 35
19 20 37 36
20 21 38 37
21 22 39 38
22 23 40 39
23 24 41 40
24 25 42 41
25 26 43 42
26 27 44 43
27 28 45 44
28 29 46 45
29 30 47 46
30 31 48 47
31 32 49 48
32 33 50 49
33 34 51 50
35 36 53 52
36 37 54 53
37 38 55 54
38 39 56 55
39 40 57 56
40 41 58 57
41 42 59 58
42 43 60 59
43 44 61 60
44 45 62 61
45 46 63 62
46 47 64 63
47 48 65 64
48 49 66 65
49 50 67 66
50 51 68 67
52 53 70 69
53 54 71 70
54 55 72 71
55 56 73 72
56 57 74 73
57 58 75 74
58 59 76 75
59 60 77 76
60 61 78 77
61 62 79 78
62 63 80 79
63 64 81 80
64 65 82 81
65 66 83 82
66 67 84 83
67 68 85 84
69 70 87 86
70 71 88 87
71 72 89 88
72 73 90 89
73 74 91 90
74 75 92 91
75 76 93 92
76 77 94 93
77 78 95 94
78 79 96 95
79 80 97 96
80 81 98 97
81 82 99 98
82 83 100 99
83 84 101 100
84 85 102 101
86 87 104 103
87 88 105 104
88 89 106 105
89 90 107 106
90 91 108 107
91 92 109 108
92 93 110 109
93 94 111 110
94 95 112 111
95 96 113 112
96 97 114 113
97 98 115 114
98 99 116 115
99 100 117 116
100 101 118 117
101 102 119 118
103 104 121 120
104 105 122 121
105 106 123 122
106 107 124 123
107 108 125 124
108 109 126 125
109 110 127 126
110 111 128 127
111 112 129 128
112 113 130 129
113 114 131 130
114 115 132 131
115 116 133 132
116 117 134 133
117 118 135 134
118 119 136 135
120 121 138 137
121 122 139 138
122 123 140 139
123 124 141 140
124 125 142 141
125 126 143 142
126 127 144 143
127 128 145 144
128 129 146 145
129 130 147 146
130 131 148 147
131 132 149 148
132 133 150 149
133 134 151 150
134 135 152 151
135 136 153 152
