TITLE = "Solution"
VARIABLES = x, y, u, v, psiu, psiv, t, stress
ZONE T="structure" N=153 E=128 F=FEBLOCK ET=QUADRILATERAL VARLOCATION=([7,8]=cellcentered)
0.000000e+00
1.250000e+01
2.500000e+01
3.750000e+01
5.000000e+01
6.250000e+01
7.500000e+01
8.750000e+01
1.000000e+02
1.125000e+02
1.250000e+02
1.375000e+02
1.500000e+02
1.625000e+02
1.750000e+02
1.875000e+02
2.000000e+02
0.000000e+00
1.250000e+01
2.500000e+01
3.750000e+01
5.000000e+01
6.250000e+01
7.500000e+01
8.750000e+01
1.000000e+02
1.125000e+02
1.250000e+02
1.375000e+02
1.500000e+02
1.625000e+02
1.750000e+02
1.875000e+02
2.000000e+02
0.000000e+00
1.250000e+01
2.500000e+01
3.750000e+01
5.000000e+01
6.250000e+01
7.500000e+01
8.750000e+01
1.000000e+02
1.125000e+02
1.250000e+02
1.375000e+02
1.500000e+02
1.625000e+02
1.750000e+02
1.875000e+02
2.000000e+02
0.000000e+00
1.250000e+01
2.500000e+01
3.750000e+01
5.000000e+01
6.250000e+01
7.500000e+01
8.750000e+01
1.000000e+02
1.125000e+02
1.250000e+02
1.375000e+02
1.500000e+02
1.625000e+02
1.750000e+02
1.875000e+02
2.000000e+02
0.000000e+00
1.250000e+01
2.500000e+01
3.750000e+01
5.000000e+01
6.250000e+01
7.500000e+01
8.750000e+01
1.000000e+02
1.125000e+02
1.250000e+02
1.375000e+02
1.500000e+02
1.625000e+02
1.750000e+02
1.875000e+02
2.000000e+02
0.000000e+00
1.250000e+01
2.500000e+01
3.750000e+01
5.000000e+01
6.250000e+01
7.500000e+01
8.750000e+01
1.000000e+02
1.125000e+02
1.250000e+02
1.375000e+02
1.500000e+02
1.625000e+02
1.750000e+02
1.875000e+02
2.000000e+02
0.000000e+00
1.250000e+01
2.500000e+01
3.750000e+01
5.000000e+01
6.250000e+01
7.500000e+01
8.750000e+01
1.000000e+02
1.125000e+02
1.250000e+02
1.375000e+02
1.500000e+02
1.625000e+02
1.750000e+02
1.875000e+02
2.000000e+02
0.000000e+00
1.250000e+01
2.500000e+01
3.750000e+01
5.000000e+01
6.250000e+01
7.500000e+01
8.750000e+01
1.000000e+02
1.125000e+02
1.250000e+02
1.375000e+02
1.500000e+02
1.625000e+02
1.750000e+02
1.875000e+02
2.000000e+02
0.000000e+00
1.250000e+01
2.500000e+01
3.750000e+01
5.000000e+01
6.250000e+01
7.500000e+01
8.750000e+01
1.000000e+02
1.125000e+02
1.250000e+02
1.375000e+02
1.500000e+02
1.625000e+02
1.750000e+02
1.875000e+02
2.000000e+02
0.000000e+00
0.000000e+00
0.000000e+00
0.000000e+00
0.000000e+00
0.000000e+00
0.000000e+00
0.000000e+00
0.000000e+00
0.000000e+00
0.000000e+00
0.000000e+00
0.000000e+00
0.000000e+00
0.000000e+00
0.000000e+00
0.000000e+00
1.250000e+01
1.250000e+01
1.250000e+01
1.250000e+01
1.250000e+01
1.250000e+01
1.250000e+01
1.250000e+01
1.250000e+01
1.250000e+01
1.250000e+01
1.250000e+01
1.250000e+01
1.250000e+01
1.250000e+01
1.250000e+01
1.250000e+01
2.500000e+01
2.500000e+01
2.500000e+01
2.500000e+01
2.500000e+01
2.500000e+01
2.500000e+01
2.500000e+01
2.500000e+01
2.500000e+01
2.500000e+01
2.500000e+01
2.500000e+01
2.500000e+01
2.500000e+01
2.500000e+01
2.500000e+01
3.750000e+01
3.750000e+01
3.750000e+01
3.750000e+01
3.750000e+01
3.750000e+01
3.750000e+01
3.750000e+01
3.750000e+01
3.750000e+01
3.750000e+01
3.750000e+01
3.750000e+01
3.750000e+01
3.750000e+01
3.750000e+01
3.750000e+01
5.000000e+01
5.000000e+01
5.000000e+01
5.000000e+01
5.000000e+01
5.000000e+01
5.000000e+01
5.000000e+01
5.000000e+01
5.000000e+01
5.000000e+01
5.000000e+01
5.000000e+01
5.000000e+01
5.000000e+01
5.000000e+01
5.000000e+01
6.250000e+01
6.250000e+01
6.250000e+01
6.250000e+01
6.250000e+01
6.250000e+01
6.250000e+01
6.250000e+01
6.250000e+01
6.250000e+01
6.250000e+01
6.250000e+01
6.250000e+01
6.250000e+01
6.250000e+01
6.250000e+01
6.250000e+01
7.500000e+01
7.500000e+01
7.500000e+01
7.500000e+01
7.500000e+01
7.500000e+01
7.500000e+01
7.500000e+01
7.500000e+01
7.500000e+01
7.500000e+01
7.500000e+01
7.500000e+01
7.500000e+01
7.500000e+01
7.500000e+01
7.500000e+01
8.750000e+01
8.750000e+01
8.750000e+01
8.750000e+01
8.750000e+01
8.750000e+01
8.750000e+01
8.750000e+01
8.750000e+01
8.750000e+01
8.750000e+01
8.750000e+01
8.750000e+01
8.750000e+01
8.750000e+01
8.750000e+01
8.750000e+01
1.000000e+02
1.000000e+02
1.000000e+02
1.000000e+02
1.000000e+02
1.000000e+02
1.000000e+02
1.000000e+02
1.000000e+02
1.000000e+02
1.000000e+02
1.000000e+02
1.000000e+02
1.000000e+02
1.000000e+02
1.000000e+02
1.000000e+02
0.000000e+00
-8.606273e-01
-1.542907e+00
-2.214291e+00
-2.896602e+00
-3.557899e+00
-4.217111e+00
-4.877810e+00
-5.533426e+00
-6.186675e+00
-6.837651e+00
-7.477145e+00
-8.097198e+00
-8.704033e+00
-9.313884e+00
-9.946763e+00
-1.037708e+01
0.000000e+00
-4.589528e-01
-9.531017e-01
-1.448844e+00
-1.959578e+00
-2.454822e+00
-2.947592e+00
-3.441319e+00
-3.930383e+00
-4.415401e+00
-4.894361e+00
-5.355531e+00
-5.781166e+00
-6.145815e+00
-6.393731e+00
-6.450637e+00
-6.597947e+00
0.000000e+00
-2.440096e-01
-5.193169e-01
-8.373930e-01
-1.173653e+00
-1.506076e+00
-1.839591e+00
-2.172475e+00
-2.499950e+00
-2.818818e+00
-3.121502e+00
-3.392780e+00
-3.610422e+00
-3.744486e+00
-3.765184e+00
-3.734320e+00
-3.885636e+00
0.000000e+00
-1.055224e-01
-2.280456e-01
-3.778812e-01
-5.405437e-01
-7.080682e-01
-8.769817e-01
-1.043542e+00
-1.204001e+00
-1.352958e+00
-1.481443e+00
-1.576552e+00
-1.623263e+00
-1.611397e+00
-1.562315e+00
-1.567640e+00
-1.692023e+00
0.000000e+00
-7.369754e-04
-1.484963e-03
-2.094924e-03
-2.295180e-03
-1.598811e-03
8.396380e-04
6.398885e-03
1.735012e-02
3.738169e-02
7.176559e-02
1.262754e-01
2.034987e-01
2.937359e-01
3.609672e-01
3.557830e-01
2.646815e-01
0.000000e+00
1.042615e-01
2.254820e-01
3.741594e-01
5.362459e-01
7.045835e-01
8.770407e-01
1.052136e+00
1.229869e+00
1.410684e+00
1.593775e+00
1.775686e+00
1.947934e+00
2.092636e+00
2.182180e+00
2.194541e+00
2.145658e+00
0.000000e+00
2.433484e-01
5.178899e-01
8.350972e-01
1.170562e+00
1.502633e+00
1.836577e+00
2.171592e+00
2.504906e+00
2.835353e+00
3.156324e+00
3.453781e+00
3.710025e+00
3.906742e+00
4.027702e+00
4.068193e+00
4.056942e+00
0.000000e+00
4.590357e-01
9.531552e-01
1.448670e+00
1.958963e+00
2.453460e+00
2.944366e+00
3.434524e+00
3.918597e+00
4.394537e+00
4.850439e+00
5.260058e+00
5.595364e+00
5.838440e+00
5.985685e+00
6.048837e+00
6.060567e+00
0.000000e+00
8.612522e-01
1.544343e+00
2.216628e+00
2.899882e+00
3.561953e+00
4.220686e+00
4.878644e+00
5.528612e+00
6.166539e+00
6.771833e+00
7.302662e+00
7.716028e+00
7.986974e+00
8.118840e+00
8.150726e+00
8.149689e+00
0.000000e+00
-5.312318e-01
-1.107470e+00
-1.872341e+00
-2.805226e+00
-3.904819e+00
-5.179106e+00
-6.626948e+00
-8.246894e+00
-1.003967e+01
-1.200270e+01
-1.412984e+01
-1.641760e+01
-1.887478e+01
-2.156150e+01
-2.469162e+01
-2.930032e+01
0.000000e+00
-3.378362e-01
-9.400473e-01
-1.695702e+00
-2.629917e+00
-3.732358e+00
-5.006602e+00
-6.455328e+00
-8.077010e+00
-9.871514e+00
-1.183838e+01
-1.397353e+01
-1.627346e+01
-1.875020e+01
-2.145752e+01
-2.458594e+01
-2.843130e+01
0.000000e+00
-2.807882e-01
-8.306578e-01
-1.578425e+00
-2.507807e+00
-3.609898e+00
-4.885073e+00
-6.335734e+00
-7.960930e+00
-9.761308e+00
-1.173783e+01
-1.388806e+01
-1.621052e+01
-1.871822e+01
-2.144361e+01
-2.439760e+01
-2.719630e+01
0.000000e+00
-2.805792e-01
-7.914860e-01
-1.518563e+00
-2.438805e+00
-3.538379e+00
-4.815011e+00
-6.269008e+00
-7.900370e+00
-9.710916e+00
-1.170192e+01
-1.387050e+01
-1.621200e+01
-1.872456e+01
-2.138614e+01
-2.406107e+01
-2.642485e+01
0.000000e+00
-2.853711e-01
-7.851558e-01
-1.502649e+00
-2.418195e+00
-3.517331e+00
-4.796234e+00
-6.254293e+00
-7.892415e+00
-9.713297e+00
-1.171764e+01
-1.389917e+01
-1.624321e+01
-1.872276e+01
-2.127020e+01
-2.373891e+01
-2.589496e+01
0.000000e+00
-2.804451e-01
-7.917816e-01
-1.519913e+00
-2.442093e+00
-3.544945e+00
-4.826643e+00
-6.288093e+00
-7.930705e+00
-9.757913e+00
-1.176976e+01
-1.395476e+01
-1.628550e+01
-1.871372e+01
-2.115818e+01
-2.349649e+01
-2.557210e+01
0.000000e+00
-2.805422e-01
-8.310884e-01
-1.580523e+00
-2.513032e+00
-3.620453e+00
-4.903962e+00
-6.367029e+00
-8.011069e+00
-9.839609e+00
-1.185184e+01
-1.403125e+01
-1.634032e+01
-1.871947e+01
-2.108758e+01
-2.335185e+01
-2.542567e+01
0.000000e+00
-3.375904e-01
-9.405008e-01
-1.697984e+00
-2.635708e+00
-3.744094e+00
-5.027675e+00
-6.490556e+00
-8.133825e+00
-9.960049e+00
-1.196608e+01
-1.413159e+01
-1.641462e+01
-1.875281e+01
-2.106915e+01
-2.329097e+01
-2.539185e+01
0.000000e+00
-5.311508e-01
-1.108065e+00
-1.874784e+00
-2.811219e+00
-3.916690e+00
-5.200041e+00
-6.661833e+00
-8.302883e+00
-1.012444e+01
-1.211818e+01
-1.426004e+01
-1.650894e+01
-1.880681e+01
-2.108391e+01
-2.327965e+01
-2.539280e+01


0.000000e+00
1.200947e-05
2.244650e-05
3.295694e-05
4.496486e-05
5.663114e-05
6.746820e-05
7.789856e-05
8.779898e-05
9.662984e-05
1.037571e-04
1.088525e-04
1.122680e-04
1.148253e-04
1.170808e-04
1.198849e-04
1.232666e-04
0.000000e+00
8.852893e-06
1.811627e-05
2.596934e-05
3.529764e-05
4.431858e-05
5.236836e-05
6.010521e-05
6.750799e-05
7.396454e-05
7.887760e-05
8.197898e-05
8.347130e-05
8.374555e-05
8.391317e-05
8.619282e-05
9.002528e-05
0.000000e+00
6.804095e-06
1.315531e-05
1.857158e-05
2.486219e-05
3.076921e-05
3.606097e-05
4.107704e-05
4.570417e-05
4.956744e-05
5.235383e-05
5.393786e-05
5.445932e-05
5.434948e-05
5.456273e-05
5.668675e-05
6.030663e-05
0.000000e+00
3.433832e-06
6.187676e-06
9.384165e-06
1.240805e-05
1.520970e-05
1.787547e-05
2.031594e-05
2.241935e-05
2.410933e-05
2.529390e-05
2.595261e-05
2.623508e-05
2.648612e-05
2.709605e-05
2.858675e-05
3.092696e-05
0.000000e+00
-1.295445e-08
-2.692482e-08
-4.048289e-08
-5.342061e-08
-6.682247e-08
-8.245382e-08
-1.107319e-07
-1.785866e-07
-3.172241e-07
-5.176423e-07
-7.067800e-07
-7.544427e-07
-5.186391e-07
-6.772958e-08
5.243980e-07
1.559712e-06
0.000000e+00
-3.457235e-06
-6.234125e-06
-9.455029e-06
-1.250323e-05
-1.532619e-05
-1.800745e-05
-2.046783e-05
-2.263811e-05
-2.447369e-05
-2.589196e-05
-2.682727e-05
-2.728129e-05
-2.737391e-05
-2.736838e-05
-2.735195e-05
-2.703833e-05
0.000000e+00
-6.816448e-06
-1.318169e-05
-1.861906e-05
-2.493848e-05
-3.086357e-05
-3.615857e-05
-4.118525e-05
-4.578711e-05
-4.948477e-05
-5.200704e-05
-5.347513e-05
-5.423627e-05
-5.462856e-05
-5.488601e-05
-5.504572e-05
-5.499301e-05
0.000000e+00
-8.853257e-06
-1.811684e-05
-2.597732e-05
-3.532530e-05
-4.435171e-05
-5.239182e-05
-6.015949e-05
-6.754376e-05
-7.363449e-05
-7.778641e-05
-8.018676e-05
-8.149926e-05
-8.224979e-05
-8.269944e-05
-8.292760e-05
-8.296785e-05
0.000000e+00
-1.200714e-05
-2.242956e-05
-3.292319e-05
-4.491664e-05
-5.655403e-05
-6.734758e-05
-7.776798e-05
-8.762879e-05
-9.607776e-05
-1.023483e-04
-1.064269e-04
-1.088641e-04
-1.102342e-04
-1.109215e-04
-1.111670e-04
-1.112035e-04
0.000000e+00
1.033355e-05
1.743245e-05
2.674286e-05
3.917344e-05
5.364140e-05
7.078764e-05
9.091942e-05
1.134945e-04
1.379358e-04
1.637971e-04
1.908176e-04
2.190296e-04
2.489950e-04
2.832190e-04
3.230428e-04
3.635541e-04
0.000000e+00
5.552854e-06
1.310121e-05
2.179130e-05
3.378352e-05
4.858456e-05
6.607186e-05
8.638060e-05
1.093116e-04
1.344425e-04
1.612611e-04
1.892650e-04
2.182131e-04
2.484056e-04
2.808528e-04
3.182334e-04
3.575764e-04
0.000000e+00
2.525891e-06
9.383097e-06
1.812943e-05
2.982882e-05
4.488345e-05
6.272175e-05
8.324135e-05
1.064786e-04
1.321360e-04
1.596374e-04
1.883528e-04
2.178761e-04
2.478832e-04
2.780517e-04
3.122408e-04
3.495260e-04
0.000000e+00
1.475882e-06
7.551505e-06
1.642856e-05
2.823207e-05
4.332344e-05
6.129591e-05
8.200324e-05
1.054237e-04
1.312764e-04
1.590011e-04
1.879548e-04
2.175957e-04
2.473038e-04
2.762071e-04
3.076505e-04
3.421999e-04
0.000000e+00
1.244950e-06
7.008574e-06
1.585368e-05
2.779490e-05
4.285526e-05
6.085492e-05
8.166090e-05
1.051851e-04
1.311237e-04
1.589043e-04
1.878591e-04
2.173838e-04
2.468576e-04
2.757034e-04
3.056318e-04
3.372370e-04
0.000000e+00
1.478727e-06
7.549026e-06
1.641367e-05
2.820400e-05
4.328200e-05
6.124281e-05
8.197933e-05
1.055187e-04
1.315324e-04
1.593318e-04
1.881809e-04
2.174904e-04
2.467700e-04
2.758006e-04
3.051011e-04
3.346153e-04
0.000000e+00
2.530624e-06
9.380017e-06
1.810800e-05
2.978706e-05
4.481886e-05
6.263431e-05
8.320371e-05
1.066497e-04
1.325977e-04
1.602589e-04
1.888567e-04
2.178679e-04
2.469516e-04
2.759372e-04
3.048869e-04
3.335001e-04
0.000000e+00
5.559210e-06
1.310257e-05
2.177804e-05
3.374878e-05
4.851896e-05
6.598598e-05
8.635435e-05
1.094753e-04
1.348455e-04
1.618082e-04
1.897842e-04
2.183568e-04
2.471902e-04
2.760447e-04
3.047714e-04
3.331703e-04
0.000000e+00
1.034069e-05
1.743602e-05
2.673838e-05
3.914942e-05
5.357915e-05
7.071281e-05
9.091513e-05
1.135917e-04
1.380532e-04
1.639013e-04
1.909590e-04
2.189569e-04
2.474785e-04
2.761623e-04
3.047583e-04
3.331288e-04


2.328522e+00
2.237076e+00
2.362877e+00
2.536883e+00
2.670402e+00
2.935282e+00
3.261236e+00
3.634382e+00
4.111511e+00
4.662212e+00
5.177526e+00
5.557982e+00
5.718023e+00
5.446884e+00
4.717906e+00
4.108926e+00
3.380815e+00
3.290940e+00
3.350993e+00
3.453913e+00
3.533479e+00
3.718235e+00
3.951077e+00
4.219952e+00
4.571624e+00
4.985174e+00
5.376123e+00
5.662045e+00
5.753390e+00
5.418983e+00
4.656073e+00
4.019003e+00
4.819264e+00
4.761209e+00
4.769154e+00
4.788407e+00
4.804263e+00
4.881762e+00
4.979340e+00
5.093943e+00
5.254453e+00
5.453370e+00
5.647124e+00
5.788170e+00
5.807152e+00
5.507455e+00
4.876160e+00
4.380465e+00
5.654330e+00
5.623482e+00
5.608873e+00
5.585762e+00
5.577497e+00
5.590457e+00
5.605306e+00
5.623593e+00
5.658986e+00
5.713323e+00
5.773968e+00
5.824224e+00
5.828173e+00
5.671439e+00
5.340813e+00
5.081307e+00
5.654293e+00
5.623278e+00
5.608279e+00
5.584548e+00
5.575201e+00
5.585608e+00
5.595736e+00
5.608258e+00
5.638027e+00
5.686190e+00
5.741325e+00
5.794549e+00
5.832860e+00
5.809083e+00
5.710373e+00
5.627081e+00
4.818905e+00
4.760348e+00
4.767121e+00
4.784846e+00
4.798303e+00
4.870098e+00
4.959142e+00
5.068937e+00
5.229990e+00
5.424936e+00
5.606327e+00
5.747212e+00
5.847331e+00
5.902782e+00
5.914792e+00
5.910668e+00
3.379811e+00
3.289236e+00
3.347806e+00
3.449344e+00
3.527462e+00
3.708618e+00
3.941137e+00
4.227422e+00
4.611966e+00
5.044953e+00
5.423952e+00
5.693818e+00
5.863094e+00
5.960737e+00
6.010185e+00
6.029221e+00
2.327015e+00
2.234965e+00
2.359468e+00
2.532897e+00
2.667040e+00
2.932663e+00
3.268834e+00
3.681227e+00
4.220241e+00
4.811355e+00
5.317087e+00
5.666982e+00
5.875833e+00
5.989874e+00
6.046759e+00
6.069991e+00


-5.330740e-01
-2.227245e-01
-1.944885e-01
-2.476829e-01
-1.756817e-01
-1.677086e-01
-1.739965e-01
-1.563691e-01
-1.447022e-01
-1.273443e-01
-6.641896e-02
4.393171e-02
1.845093e-01
3.650764e-01
5.751764e-01
-5.388245e-01
5.282785e-01
4.018275e-01
3.470976e-01
2.956284e-01
3.190829e-01
3.126369e-01
3.013578e-01
3.061066e-01
3.167910e-01
3.470653e-01
4.243350e-01
5.564590e-01
7.255620e-01
8.769813e-01
7.557556e-01
-1.279627e+00
8.293464e-01
7.150645e-01
6.125897e-01
5.652404e-01
5.544705e-01
5.397960e-01
5.294634e-01
5.284740e-01
5.351684e-01
5.566305e-01
6.007331e-01
6.559056e-01
6.742794e-01
5.699589e-01
2.561577e-01
-2.967789e-01
9.083220e-01
8.089776e-01
7.069446e-01
6.490804e-01
6.243997e-01
6.117437e-01
6.036110e-01
5.961981e-01
5.842443e-01
5.645026e-01
5.340312e-01
4.798997e-01
3.770028e-01
2.387862e-01
1.906911e-01
2.211425e-01
9.089213e-01
8.096454e-01
7.073763e-01
6.482878e-01
6.208060e-01
6.030271e-01
5.860823e-01
5.635067e-01
5.264586e-01
4.696571e-01
3.946966e-01
3.088383e-01
2.344036e-01
2.377235e-01
3.866196e-01
6.260051e-01
8.307755e-01
7.167259e-01
6.139522e-01
5.645031e-01
5.486192e-01
5.242821e-01
4.963104e-01
4.635885e-01
4.171917e-01
3.605007e-01
3.087338e-01
2.832642e-01
3.164798e-01
4.442247e-01
6.561699e-01
8.772513e-01
5.293351e-01
4.031544e-01
3.485302e-01
2.963712e-01
3.175590e-01
3.073975e-01
2.877741e-01
2.734838e-01
2.534038e-01
2.475545e-01
2.880884e-01
3.823370e-01
5.217629e-01
6.963046e-01
8.690292e-01
9.785223e-01
-5.343252e-01
-2.242836e-01
-1.958721e-01
-2.489049e-01
-1.762004e-01
-1.641728e-01
-1.640502e-01
-1.408299e-01
-1.077899e-01
-1.652179e-02
1.845413e-01
4.597119e-01
7.189378e-01
8.959775e-01
9.796446e-01
9.995976e-01
1 2 19 18
2 3 20 19
3 4 21 20
4 5 22 21
5 6 23 22
6 7 24 23
7 8 25 24
8 9 26 25
9 10 27 26
10 11 28 27
11 12 29 28
12 13 30 29
13 14 31 30
14 15 32 31
15 16 33 32
16 17 34 33
18 19 36 35
19 20 37 36
20 21 38 37
21 22 39 38
22 23 40 39
23 24 41 40
24 25 42 41
25 26 43 42
26 27 44 43
27 28 45 44
28 29 46 45
29 30 47 46
30 31 48 47
31 32 49 48
32 33 50 49
33 34 51 50
35 36 53 52
36 37 54 53
37 38 55 54
38 39 56 55
39 40 57 56
40 41 58 57
41 42 59 58
42 43 60 59
43 44 61 60
44 45 62 61
45 46 63 62
46 47 64 63
47 48 65 64
48 49 66 65
49 50 67 66
50 51 68 67
52 53 70 69
53 54 71 70
54 55 72 71
55 56 73 72
56 57 74 73
57 58 75 74
58 59 76 75
59 60 77 76
60 61 78 77
61 62 79 78
62 63 80 79
63 64 81 80
64 65 82 81
65 66 83 82
66 67 84 83
67 68 85 84
69 70 87 86
70 71 88 87
71 72 89 88
72 73 90 89
73 74 91 90
74 75 92 91
75 76 93 92
76 77 94 93
77 78 95 94
78 79 96 95
79 80 97 96
80 81 98 97
81 82 99 98
82 83 100 99
83 84 101 100
84 85 102 101
86 87 104 103
87 88 105 104
88 89 106 105
89 90 107 106
90 91 108 107
91 92 109 108
92 93 110 109
93 94 111 110
94 95 112 111
95 96 113 112
96 97 114 113
97 98 115 114
98 99 116 115
99 100 117 116
100 101 118 117
101 102 119 118
103 104 121 120
104 105 122 121
105 106 123 122
106 107 124 123
107 108 125 124
108 109 126 125
109 110 127 126
110 111 128 127
111 112 129 128
112 113 130 129
113 114 131 130
114 115 132 131
115 116 133 132
116 117 134 133
117 118 135 134
118 119 136 135
120 121 138 137
121 122 139 138
122 123 140 139
123 124 141 140
124 125 142 141
125 126 143 142
126 127 144 143
127 128 145 144
128 129 146 145
129 130 147 146
130 131 148 147
131 132 149 148
132 133 150 149
133 134 151 150
134 135 152 151
135 136 153 152
