TITLE = "Solution"
VARIABLES = x, y, u, v, psiu, psiv, t, stress
ZONE T="structure" N=153 E=128 F=FEBLOCK ET=QUADRILATERAL VARLOCATION=([7,8]=cellcentered)
0.000000e+00
1.250000e+01
2.500000e+01
3.750000e+01
5.000000e+01
6.250000e+01
7.500000e+01
8.750000e+01
1.000000e+02
1.125000e+02
1.250000e+02
1.375000e+02
1.500000e+02
1.625000e+02
1.750000e+02
1.875000e+02
2.000000e+02
0.000000e+00
1.250000e+01
2.500000e+01
3.750000e+01
5.000000e+01
6.250000e+01
7.500000e+01
8.750000e+01
1.000000e+02
1.125000e+02
1.250000e+02
1.375000e+02
1.500000e+02
1.625000e+02
1.750000e+02
1.875000e+02
2.000000e+02
0.000000e+00
1.250000e+01
2.500000e+01
3.750000e+01
5.000000e+01
6.250000e+01
7.500000e+01
8.750000e+01
1.000000e+02
1.125000e+02
1.250000e+02
1.375000e+02
1.500000e+02
1.625000e+02
1.750000e+02
1.875000e+02
2.000000e+02
0.000000e+00
1.250000e+01
2.500000e+01
3.750000e+01
5.000000e+01
6.250000e+01
7.500000e+01
8.750000e+01
1.000000e+02
1.125000e+02
1.250000e+02
1.375000e+02
1.500000e+02
1.625000e+02
1.750000e+02
1.875000e+02
2.000000e+02
0.000000e+00
1.250000e+01
2.500000e+01
3.750000e+01
5.000000e+01
6.250000e+01
7.500000e+01
8.750000e+01
1.000000e+02
1.125000e+02
1.250000e+02
1.375000e+02
1.500000e+02
1.625000e+02
1.750000e+02
1.875000e+02
2.000000e+02
0.000000e+00
1.250000e+01
2.500000e+01
3.750000e+01
5.000000e+01
6.250000e+01
7.500000e+01
8.750000e+01
1.000000e+02
1.125000e+02
1.250000e+02
1.375000e+02
1.500000e+02
1.625000e+02
1.750000e+02
1.875000e+02
2.000000e+02
0.000000e+00
1.250000e+01
2.500000e+01
3.750000e+01
5.000000e+01
6.250000e+01
7.500000e+01
8.750000e+01
1.000000e+02
1.125000e+02
1.250000e+02
1.375000e+02
1.500000e+02
1.625000e+02
1.750000e+02
1.875000e+02
2.000000e+02
0.000000e+00
1.250000e+01
2.500000e+01
3.750000e+01
5.000000e+01
6.250000e+01
7.500000e+01
8.750000e+01
1.000000e+02
1.125000e+02
1.250000e+02
1.375000e+02
1.500000e+02
1.625000e+02
1.750000e+02
1.875000e+02
2.000000e+02
0.000000e+00
1.250000e+01
2.500000e+01
3.750000e+01
5.000000e+01
6.250000e+01
7.500000e+01
8.750000e+01
1.000000e+02
1.125000e+02
1.250000e+02
1.375000e+02
1.500000e+02
1.625000e+02
1.750000e+02
1.875000e+02
2.000000e+02
0.000000e+00
0.000000e+00
0.000000e+00
0.000000e+00
0.000000e+00
0.000000e+00
0.000000e+00
0.000000e+00
0.000000e+00
0.000000e+00
0.000000e+00
0.000000e+00
0.000000e+00
0.000000e+00
0.000000e+00
0.000000e+00
0.000000e+00
1.250000e+01
1.250000e+01
1.250000e+01
1.250000e+01
1.250000e+01
1.250000e+01
1.250000e+01
1.250000e+01
1.250000e+01
1.250000e+01
1.250000e+01
1.250000e+01
1.250000e+01
1.250000e+01
1.250000e+01
1.250000e+01
1.250000e+01
2.500000e+01
2.500000e+01
2.500000e+01
2.500000e+01
2.500000e+01
2.500000e+01
2.500000e+01
2.500000e+01
2.500000e+01
2.500000e+01
2.500000e+01
2.500000e+01
2.500000e+01
2.500000e+01
2.500000e+01
2.500000e+01
2.500000e+01
3.750000e+01
3.750000e+01
3.750000e+01
3.750000e+01
3.750000e+01
3.750000e+01
3.750000e+01
3.750000e+01
3.750000e+01
3.750000e+01
3.750000e+01
3.750000e+01
3.750000e+01
3.750000e+01
3.750000e+01
3.750000e+01
3.750000e+01
5.000000e+01
5.000000e+01
5.000000e+01
5.000000e+01
5.000000e+01
5.000000e+01
5.000000e+01
5.000000e+01
5.000000e+01
5.000000e+01
5.000000e+01
5.000000e+01
5.000000e+01
5.000000e+01
5.000000e+01
5.000000e+01
5.000000e+01
6.250000e+01
6.250000e+01
6.250000e+01
6.250000e+01
6.250000e+01
6.250000e+01
6.250000e+01
6.250000e+01
6.250000e+01
6.250000e+01
6.250000e+01
6.250000e+01
6.250000e+01
6.250000e+01
6.250000e+01
6.250000e+01
6.250000e+01
7.500000e+01
7.500000e+01
7.500000e+01
7.500000e+01
7.500000e+01
7.500000e+01
7.500000e+01
7.500000e+01
7.500000e+01
7.500000e+01
7.500000e+01
7.500000e+01
7.500000e+01
7.500000e+01
7.500000e+01
7.500000e+01
7.500000e+01
8.750000e+01
8.750000e+01
8.750000e+01
8.750000e+01
8.750000e+01
8.750000e+01
8.750000e+01
8.750000e+01
8.750000e+01
8.750000e+01
8.750000e+01
8.750000e+01
8.750000e+01
8.750000e+01
8.750000e+01
8.750000e+01
8.750000e+01
1.000000e+02
1.000000e+02
1.000000e+02
1.000000e+02
1.000000e+02
1.000000e+02
1.000000e+02
1.000000e+02
1.000000e+02
1.000000e+02
1.000000e+02
1.000000e+02
1.000000e+02
1.000000e+02
1.000000e+02
1.000000e+02
1.000000e+02
0.000000e+00
-3.326155e-01
-6.124368e-01
-8.700044e-01
-1.110044e+00
-1.332011e+00
-1.535378e+00
-1.719944e+00
-1.885945e+00
-2.034123e+00
-2.165930e+00
-2.283931e+00
-2.392551e+00
-2.499440e+00
-2.617794e+00
-2.763126e+00
-2.872171e+00
0.000000e+00
-1.985771e-01
-4.125196e-01
-6.101628e-01
-7.923915e-01
-9.598653e-01
-1.112888e+00
-1.251630e+00
-1.376316e+00
-1.487311e+00
-1.585167e+00
-1.670581e+00
-1.744093e+00
-1.804942e+00
-1.847859e+00
-1.857266e+00
-1.890983e+00
0.000000e+00
-1.241506e-01
-2.553100e-01
-3.862332e-01
-5.085360e-01
-6.209038e-01
-7.232186e-01
-8.155730e-01
-8.979721e-01
-9.702654e-01
-1.032055e+00
-1.082472e+00
-1.119716e+00
-1.140508e+00
-1.141088e+00
-1.132786e+00
-1.167176e+00
0.000000e+00
-5.991257e-02
-1.233563e-01
-1.872420e-01
-2.483722e-01
-3.047136e-01
-3.558096e-01
-4.014998e-01
-4.415135e-01
-4.753232e-01
-5.020598e-01
-5.204584e-01
-5.290107e-01
-5.270128e-01
-5.188039e-01
-5.210477e-01
-5.466568e-01
0.000000e+00
-5.570267e-05
-1.265544e-04
-1.971719e-04
-2.347900e-04
-1.663285e-04
1.532896e-04
9.844010e-04
2.754131e-03
6.098705e-03
1.184817e-02
2.083640e-02
3.328879e-02
4.736094e-02
5.708215e-02
5.441791e-02
3.746102e-02
0.000000e+00
5.982677e-02
1.231573e-01
1.869237e-01
2.479762e-01
3.043905e-01
3.559305e-01
4.028374e-01
4.455093e-01
4.844348e-01
5.201185e-01
5.528215e-01
5.819742e-01
6.053522e-01
6.191051e-01
6.201968e-01
6.115896e-01
0.000000e+00
1.241361e-01
2.552664e-01
3.861468e-01
5.084014e-01
6.207362e-01
7.230790e-01
8.156144e-01
8.985168e-01
9.719206e-01
1.035881e+00
1.090236e+00
1.134357e+00
1.166979e+00
1.186560e+00
1.192918e+00
1.190911e+00
0.000000e+00
1.986584e-01
4.126962e-01
6.104445e-01
7.927693e-01
9.602695e-01
1.113113e+00
1.251210e+00
1.374322e+00
1.482076e+00
1.573948e+00
1.649293e+00
1.707504e+00
1.748386e+00
1.772773e+00
1.783173e+00
1.785083e+00
0.000000e+00
3.327516e-01
6.127961e-01
8.706778e-01
1.111121e+00
1.333526e+00
1.537186e+00
1.721464e+00
1.885712e+00
2.029050e+00
2.150219e+00
2.247592e+00
2.319562e+00
2.365560e+00
2.387805e+00
2.393296e+00
2.393190e+00
0.000000e+00
-2.013554e-01
-3.953693e-01
-6.468119e-01
-9.554406e-01
-1.320691e+00
-1.738583e+00
-2.204458e+00
-2.713370e+00
-3.260433e+00
-3.841130e+00
-4.451862e+00
-5.091157e+00
-5.762432e+00
-6.483123e+00
-7.307857e+00
-8.493228e+00
0.000000e+00
-1.239664e-01
-3.263459e-01
-5.808656e-01
-8.944935e-01
-1.264696e+00
-1.687632e+00
-2.158523e+00
-2.672364e+00
-3.224178e+00
-3.809321e+00
-4.424029e+00
-5.066599e+00
-5.740359e+00
-6.460773e+00
-7.280501e+00
-8.284940e+00
0.000000e+00
-9.356420e-02
-2.784990e-01
-5.339325e-01
-8.504953e-01
-1.224484e+00
-1.651292e+00
-2.126093e+00
-2.643915e+00
-3.199849e+00
-3.789339e+00
-4.408751e+00
-5.056542e+00
-5.735493e+00
-6.456530e+00
-7.233204e+00
-7.984822e+00
0.000000e+00
-8.065894e-02
-2.547185e-01
-5.063879e-01
-8.240787e-01
-1.200356e+00
-1.629815e+00
-2.107447e+00
-2.628372e+00
-3.187815e+00
-3.781317e+00
-4.405171e+00
-5.057104e+00
-5.736807e+00
-6.443400e+00
-7.156978e+00
-7.814264e+00
0.000000e+00
-7.694655e-02
-2.475243e-01
-4.976024e-01
-8.153744e-01
-1.192584e+00
-1.623275e+00
-2.102444e+00
-2.625304e+00
-3.187157e+00
-3.783445e+00
-4.409875e+00
-5.062389e+00
-5.736167e+00
-6.421104e+00
-7.093739e+00
-7.713314e+00
0.000000e+00
-8.061088e-02
-2.546843e-01
-5.064487e-01
-8.243774e-01
-1.201142e+00
-1.631498e+00
-2.110634e+00
-2.633867e+00
-3.196476e+00
-3.793608e+00
-4.420067e+00
-5.069784e+00
-5.734475e+00
-6.401348e+00
-7.050881e+00
-7.657208e+00
0.000000e+00
-9.348581e-02
-2.784424e-01
-5.340339e-01
-8.509984e-01
-1.225815e+00
-1.654145e+00
-2.131505e+00
-2.653257e+00
-3.214602e+00
-3.810359e+00
-4.434536e+00
-5.079599e+00
-5.735566e+00
-6.389490e+00
-7.026536e+00
-7.632460e+00
0.000000e+00
-1.238928e-01
-3.262964e-01
-5.810002e-01
-8.950974e-01
-1.266260e+00
-1.690952e+00
-2.164777e+00
-2.683095e+00
-3.241020e+00
-3.833161e+00
-4.453098e+00
-5.092657e+00
-5.741309e+00
-6.386519e+00
-7.016470e+00
-7.626650e+00
0.000000e+00
-2.013248e-01
-3.953732e-01
-6.470200e-01
-9.561405e-01
-1.322363e+00
-1.741981e+00
-2.210658e+00
-2.723707e+00
-3.276157e+00
-3.862490e+00
-4.476144e+00
-5.108891e+00
-5.750434e+00
-6.389043e+00
-7.014628e+00
-7.626741e+00


0.000000e+00
1.410621e-07
2.912317e-07
4.233317e-07
5.340184e-07
6.234011e-07
6.935484e-07
7.473710e-07
7.878155e-07
8.176210e-07
8.392351e-07
8.548099e-07
8.662625e-07
8.753178e-07
8.835715e-07
8.932695e-07
9.045785e-07
0.000000e+00
9.616253e-08
2.257954e-07
3.304549e-07
4.136617e-07
4.790028e-07
5.293061e-07
5.672883e-07
5.953664e-07
6.156275e-07
6.298319e-07
6.393986e-07
6.453736e-07
6.486994e-07
6.519771e-07
6.600263e-07
6.717014e-07
0.000000e+00
7.118271e-08
1.560328e-07
2.264576e-07
2.826874e-07
3.258886e-07
3.583518e-07
3.822745e-07
3.994794e-07
4.114324e-07
4.193024e-07
4.240214e-07
4.264196e-07
4.276517e-07
4.299256e-07
4.361970e-07
4.456675e-07
0.000000e+00
3.773867e-08
7.721830e-08
1.124396e-07
1.411578e-07
1.630511e-07
1.792088e-07
1.908457e-07
1.989523e-07
2.042995e-07
2.075150e-07
2.091811e-07
2.099761e-07
2.107903e-07
2.125535e-07
2.163332e-07
2.222146e-07
0.000000e+00
-4.120452e-11
-9.556387e-11
-1.708019e-10
-2.793038e-10
-4.384909e-10
-6.712411e-10
-1.004612e-09
-1.463283e-09
-2.053299e-09
-2.730962e-09
-3.357354e-09
-3.672175e-09
-3.400782e-09
-2.468751e-09
-6.637204e-10
2.475578e-09
0.000000e+00
-3.781058e-08
-7.738299e-08
-1.127327e-07
-1.416306e-07
-1.637789e-07
-1.802993e-07
-1.924466e-07
-2.012535e-07
-2.075177e-07
-2.118416e-07
-2.146607e-07
-2.162887e-07
-2.170161e-07
-2.171791e-07
-2.167616e-07
-2.153717e-07
0.000000e+00
-7.122394e-08
-1.561433e-07
-2.266581e-07
-2.830014e-07
-3.263416e-07
-3.589718e-07
-3.830933e-07
-4.005405e-07
-4.128083e-07
-4.211241e-07
-4.265077e-07
-4.298103e-07
-4.317365e-07
-4.328115e-07
-4.331802e-07
-4.327868e-07
0.000000e+00
-9.618282e-08
-2.258783e-07
-3.305971e-07
-4.138558e-07
-4.792260e-07
-5.295100e-07
-5.673907e-07
-5.952527e-07
-6.151702e-07
-6.289387e-07
-6.381003e-07
-6.439502e-07
-6.475208e-07
-6.495604e-07
-6.505117e-07
-6.506732e-07
0.000000e+00
-1.411330e-07
-2.913558e-07
-4.234838e-07
-5.341612e-07
-6.234688e-07
-6.934327e-07
-7.469110e-07
-7.867922e-07
-8.157552e-07
-8.361818e-07
-8.501187e-07
-8.592560e-07
-8.649098e-07
-8.680345e-07
-8.693307e-07
-8.696120e-07
0.000000e+00
1.280324e-07
2.295387e-07
3.358768e-07
4.635443e-07
6.138208e-07
7.835974e-07
9.688880e-07
1.165926e-06
1.371640e-06
1.583696e-06
1.800511e-06
2.021476e-06
2.248042e-06
2.486001e-06
2.737981e-06
2.992794e-06
0.000000e+00
6.874380e-08
1.683528e-07
2.823134e-07
4.199422e-07
5.796013e-07
7.574736e-07
9.493728e-07
1.151678e-06
1.361492e-06
1.576656e-06
1.795747e-06
2.018199e-06
2.244692e-06
2.477961e-06
2.723213e-06
2.974085e-06
0.000000e+00
3.401196e-08
1.205383e-07
2.406072e-07
3.862861e-07
5.536127e-07
7.378932e-07
9.349454e-07
1.141322e-06
1.354314e-06
1.571919e-06
1.792817e-06
2.016310e-06
2.242006e-06
2.470103e-06
2.707504e-06
2.951821e-06
0.000000e+00
1.971080e-08
9.815051e-08
2.187523e-07
3.685445e-07
5.400582e-07
7.278268e-07
9.276430e-07
1.136195e-06
1.350900e-06
1.569824e-06
1.791613e-06
2.015311e-06
2.239933e-06
2.465161e-06
2.696228e-06
2.932203e-06
0.000000e+00
1.613633e-08
9.206977e-08
2.121045e-07
3.630477e-07
5.358930e-07
7.247955e-07
9.255221e-07
1.134812e-06
1.350116e-06
1.569482e-06
1.791459e-06
2.014916e-06
2.238813e-06
2.462708e-06
2.689574e-06
2.918024e-06
0.000000e+00
1.973442e-08
9.818502e-08
2.188035e-07
3.686239e-07
5.401905e-07
7.280520e-07
9.280141e-07
1.136764e-06
1.351686e-06
1.570743e-06
1.792377e-06
2.015370e-06
2.238736e-06
2.461984e-06
2.686151e-06
2.909639e-06
0.000000e+00
3.405001e-08
1.206018e-07
2.407085e-07
3.864465e-07
5.538786e-07
7.383384e-07
9.356660e-07
1.142415e-06
1.355822e-06
1.573720e-06
1.794429e-06
2.016651e-06
2.239388e-06
2.462019e-06
2.684523e-06
2.905546e-06
0.000000e+00
6.880073e-08
1.684626e-07
2.824819e-07
4.201957e-07
5.799931e-07
7.580857e-07
9.503105e-07
1.153047e-06
1.363339e-06
1.578853e-06
1.797767e-06
2.018664e-06
2.240457e-06
2.462365e-06
2.683871e-06
2.904067e-06
0.000000e+00
1.281297e-07
2.297051e-07
3.361133e-07
4.638727e-07
6.142832e-07
7.842585e-07
9.698284e-07
1.167222e-06
1.373312e-06
1.585595e-06
1.802094e-06
2.021250e-06
2.241841e-06
2.462936e-06
2.683807e-06
2.903788e-06


9.711613e-01
9.711513e-01
9.716285e-01
9.724683e-01
9.732323e-01
9.738380e-01
9.742989e-01
9.746373e-01
9.748768e-01
9.750395e-01
9.751444e-01
9.752047e-01
9.752170e-01
9.751416e-01
9.749895e-01
9.748755e-01
9.720044e-01
9.719836e-01
9.723496e-01
9.730249e-01
9.736440e-01
9.741336e-01
9.745051e-01
9.747765e-01
9.749677e-01
9.750969e-01
9.751792e-01
9.752244e-01
9.752264e-01
9.751442e-01
9.749928e-01
9.748815e-01
9.734233e-01
9.733904e-01
9.735927e-01
9.739807e-01
9.743396e-01
9.746276e-01
9.748450e-01
9.750021e-01
9.751113e-01
9.751838e-01
9.752281e-01
9.752493e-01
9.752406e-01
9.751686e-01
9.750452e-01
9.749586e-01
9.744373e-01
9.744098e-01
9.744901e-01
9.746590e-01
9.748294e-01
9.749708e-01
9.750772e-01
9.751523e-01
9.752029e-01
9.752347e-01
9.752522e-01
9.752581e-01
9.752485e-01
9.752049e-01
9.751341e-01
9.750859e-01
9.744368e-01
9.744092e-01
9.744893e-01
9.746578e-01
9.748276e-01
9.749682e-01
9.750734e-01
9.751473e-01
9.751965e-01
9.752272e-01
9.752446e-01
9.752527e-01
9.752519e-01
9.752361e-01
9.752090e-01
9.751912e-01
9.734216e-01
9.733884e-01
9.735902e-01
9.739776e-01
9.743355e-01
9.746222e-01
9.748378e-01
9.749927e-01
9.750995e-01
9.751700e-01
9.752143e-01
9.752407e-01
9.752551e-01
9.752592e-01
9.752567e-01
9.752546e-01
9.720013e-01
9.719800e-01
9.723457e-01
9.730210e-01
9.736400e-01
9.741297e-01
9.745012e-01
9.747725e-01
9.749633e-01
9.750921e-01
9.751753e-01
9.752267e-01
9.752571e-01
9.752737e-01
9.752820e-01
9.752855e-01
9.711573e-01
9.711469e-01
9.716240e-01
9.724644e-01
9.732294e-01
9.738367e-01
9.742996e-01
9.746403e-01
9.748817e-01
9.750461e-01
9.751531e-01
9.752195e-01
9.752587e-01
9.752807e-01
9.752921e-01
9.752972e-01


7.511460e-01
7.864358e-01
8.189414e-01
8.438625e-01
8.670616e-01
8.885285e-01
9.081407e-01
9.256450e-01
9.408390e-01
9.535600e-01
9.636821e-01
9.711005e-01
9.757143e-01
9.773648e-01
9.785591e-01
9.053731e-01
9.058957e-01
8.896951e-01
9.000087e-01
9.134712e-01
9.260594e-01
9.375403e-01
9.479634e-01
9.574250e-01
9.660057e-01
9.737868e-01
9.808521e-01
9.872527e-01
9.928383e-01
9.964969e-01
9.872539e-01
8.619613e-01
9.673053e-01
9.579897e-01
9.554333e-01
9.589107e-01
9.635176e-01
9.679970e-01
9.721689e-01
9.761210e-01
9.799564e-01
9.837010e-01
9.872005e-01
9.899112e-01
9.904773e-01
9.855962e-01
9.678906e-01
9.360469e-01
9.933320e-01
9.865394e-01
9.823338e-01
9.812533e-01
9.816624e-01
9.823633e-01
9.830668e-01
9.837580e-01
9.844388e-01
9.850099e-01
9.851680e-01
9.843133e-01
9.816045e-01
9.767441e-01
9.726245e-01
9.715830e-01
9.933571e-01
9.865751e-01
9.823656e-01
9.812469e-01
9.815566e-01
9.820578e-01
9.824048e-01
9.825177e-01
9.823478e-01
9.818163e-01
9.808306e-01
9.794119e-01
9.780617e-01
9.783303e-01
9.821466e-01
9.887516e-01
9.673526e-01
9.580612e-01
9.555019e-01
9.589116e-01
9.633367e-01
9.674379e-01
9.709169e-01
9.737191e-01
9.758205e-01
9.772369e-01
9.781329e-01
9.790105e-01
9.808572e-01
9.847298e-01
9.905474e-01
9.965624e-01
9.058874e-01
8.896892e-01
8.999950e-01
9.134327e-01
9.259600e-01
9.373127e-01
9.474913e-01
9.565235e-01
9.644061e-01
9.711516e-01
9.768665e-01
9.818602e-01
9.866706e-01
9.917148e-01
9.964319e-01
9.994028e-01
7.509766e-01
7.861704e-01
8.186156e-01
8.434963e-01
8.667321e-01
8.884086e-01
9.085478e-01
9.270801e-01
9.439923e-01
9.592389e-01
9.726295e-01
9.837423e-01
9.920111e-01
9.971131e-01
9.994342e-01
9.999880e-01
1 2 19 18
2 3 20 19
3 4 21 20
4 5 22 21
5 6 23 22
6 7 24 23
7 8 25 24
8 9 26 25
9 10 27 26
10 11 28 27
11 12 29 28
12 13 30 29
13 14 31 30
14 15 32 31
15 16 33 32
16 17 34 33
18 19 36 35
19 20 37 36
20 21 38 37
21 22 39 38
22 23 40 39
23 24 41 40
24 25 42 41
25 26 43 42
26 27 44 43
27 28 45 44
28 29 46 45
29 30 47 46
30 31 48 47
31 32 49 48
32 33 50 49
33 34 51 50
35 36 53 52
36 37 54 53
37 38 55 54
38 39 56 55
39 40 57 56
40 41 58 57
41 42 59 58
42 43 60 59
43 44 61 60
44 45 62 61
45 46 63 62
46 47 64 63
47 48 65 64
48 49 66 65
49 50 67 66
50 51 68 67
52 53 70 69
53 54 71 70
54 55 72 71
55 56 73 72
56 57 74 73
57 58 75 74
58 59 76 75
59 60 77 76
60 61 78 77
61 62 79 78
62 63 80 79
63 64 81 80
64 65 82 81
65 66 83 82
66 67 84 83
67 68 85 84
69 70 87 86
70 71 88 87
71 72 89 88
72 73 90 89
73 74 91 90
74 75 92 91
75 76 93 92
76 77 94 93
77 78 95 94
78 79 96 95
79 80 97 96
80 81 98 97
81 82 99 98
82 83 100 99
83 84 101 100
84 85 102 101
86 87 104 103
87 88 105 104
88 89 106 105
89 90 107 106
90 91 108 107
91 92 109 108
92 93 110 109
93 94 111 110
94 95 112 111
95 96 113 112
96 97 114 113
97 98 115 114
98 99 116 115
99 100 117 116
100 101 118 117
101 102 119 118
103 104 121 120
104 105 122 121
105 106 123 122
106 107 124 123
107 108 125 124
108 109 126 125
109 110 127 126
110 111 128 127
111 112 129 128
112 113 130 129
113 114 131 130
114 115 132 131
115 116 133 132
116 117 134 133
117 118 135 134
118 119 136 135
120 121 138 137
121 122 139 138
122 123 140 139
123 124 141 140
124 125 142 141
125 126 143 142
126 127 144 143
127 128 145 144
128 129 146 145
129 130 147 146
130 131 148 147
131 132 149 148
132 133 150 149
133 134 151 150
134 135 152 151
135 136 153 152
