TITLE = "Solution"
VARIABLES = x, y, u, v, psiu, psiv, t, stress
ZONE T="structure" N=153 E=128 F=FEBLOCK ET=QUADRILATERAL VARLOCATION=([7,8]=cellcentered)
0.000000e+00
1.250000e+01
2.500000e+01
3.750000e+01
5.000000e+01
6.250000e+01
7.500000e+01
8.750000e+01
1.000000e+02
1.125000e+02
1.250000e+02
1.375000e+02
1.500000e+02
1.625000e+02
1.750000e+02
1.875000e+02
2.000000e+02
0.000000e+00
1.250000e+01
2.500000e+01
3.750000e+01
5.000000e+01
6.250000e+01
7.500000e+01
8.750000e+01
1.000000e+02
1.125000e+02
1.250000e+02
1.375000e+02
1.500000e+02
1.625000e+02
1.750000e+02
1.875000e+02
2.000000e+02
0.000000e+00
1.250000e+01
2.500000e+01
3.750000e+01
5.000000e+01
6.250000e+01
7.500000e+01
8.750000e+01
1.000000e+02
1.125000e+02
1.250000e+02
1.375000e+02
1.500000e+02
1.625000e+02
1.750000e+02
1.875000e+02
2.000000e+02
0.000000e+00
1.250000e+01
2.500000e+01
3.750000e+01
5.000000e+01
6.250000e+01
7.500000e+01
8.750000e+01
1.000000e+02
1.125000e+02
1.250000e+02
1.375000e+02
1.500000e+02
1.625000e+02
1.750000e+02
1.875000e+02
2.000000e+02
0.000000e+00
1.250000e+01
2.500000e+01
3.750000e+01
5.000000e+01
6.250000e+01
7.500000e+01
8.750000e+01
1.000000e+02
1.125000e+02
1.250000e+02
1.375000e+02
1.500000e+02
1.625000e+02
1.750000e+02
1.875000e+02
2.000000e+02
0.000000e+00
1.250000e+01
2.500000e+01
3.750000e+01
5.000000e+01
6.250000e+01
7.500000e+01
8.750000e+01
1.000000e+02
1.125000e+02
1.250000e+02
1.375000e+02
1.500000e+02
1.625000e+02
1.750000e+02
1.875000e+02
2.000000e+02
0.000000e+00
1.250000e+01
2.500000e+01
3.750000e+01
5.000000e+01
6.250000e+01
7.500000e+01
8.750000e+01
1.000000e+02
1.125000e+02
1.250000e+02
1.375000e+02
1.500000e+02
1.625000e+02
1.750000e+02
1.875000e+02
2.000000e+02
0.000000e+00
1.250000e+01
2.500000e+01
3.750000e+01
5.000000e+01
6.250000e+01
7.500000e+01
8.750000e+01
1.000000e+02
1.125000e+02
1.250000e+02
1.375000e+02
1.500000e+02
1.625000e+02
1.750000e+02
1.875000e+02
2.000000e+02
0.000000e+00
1.250000e+01
2.500000e+01
3.750000e+01
5.000000e+01
6.250000e+01
7.500000e+01
8.750000e+01
1.000000e+02
1.125000e+02
1.250000e+02
1.375000e+02
1.500000e+02
1.625000e+02
1.750000e+02
1.875000e+02
2.000000e+02
0.000000e+00
0.000000e+00
0.000000e+00
0.000000e+00
0.000000e+00
0.000000e+00
0.000000e+00
0.000000e+00
0.000000e+00
0.000000e+00
0.000000e+00
0.000000e+00
0.000000e+00
0.000000e+00
0.000000e+00
0.000000e+00
0.000000e+00
1.250000e+01
1.250000e+01
1.250000e+01
1.250000e+01
1.250000e+01
1.250000e+01
1.250000e+01
1.250000e+01
1.250000e+01
1.250000e+01
1.250000e+01
1.250000e+01
1.250000e+01
1.250000e+01
1.250000e+01
1.250000e+01
1.250000e+01
2.500000e+01
2.500000e+01
2.500000e+01
2.500000e+01
2.500000e+01
2.500000e+01
2.500000e+01
2.500000e+01
2.500000e+01
2.500000e+01
2.500000e+01
2.500000e+01
2.500000e+01
2.500000e+01
2.500000e+01
2.500000e+01
2.500000e+01
3.750000e+01
3.750000e+01
3.750000e+01
3.750000e+01
3.750000e+01
3.750000e+01
3.750000e+01
3.750000e+01
3.750000e+01
3.750000e+01
3.750000e+01
3.750000e+01
3.750000e+01
3.750000e+01
3.750000e+01
3.750000e+01
3.750000e+01
5.000000e+01
5.000000e+01
5.000000e+01
5.000000e+01
5.000000e+01
5.000000e+01
5.000000e+01
5.000000e+01
5.000000e+01
5.000000e+01
5.000000e+01
5.000000e+01
5.000000e+01
5.000000e+01
5.000000e+01
5.000000e+01
5.000000e+01
6.250000e+01
6.250000e+01
6.250000e+01
6.250000e+01
6.250000e+01
6.250000e+01
6.250000e+01
6.250000e+01
6.250000e+01
6.250000e+01
6.250000e+01
6.250000e+01
6.250000e+01
6.250000e+01
6.250000e+01
6.250000e+01
6.250000e+01
7.500000e+01
7.500000e+01
7.500000e+01
7.500000e+01
7.500000e+01
7.500000e+01
7.500000e+01
7.500000e+01
7.500000e+01
7.500000e+01
7.500000e+01
7.500000e+01
7.500000e+01
7.500000e+01
7.500000e+01
7.500000e+01
7.500000e+01
8.750000e+01
8.750000e+01
8.750000e+01
8.750000e+01
8.750000e+01
8.750000e+01
8.750000e+01
8.750000e+01
8.750000e+01
8.750000e+01
8.750000e+01
8.750000e+01
8.750000e+01
8.750000e+01
8.750000e+01
8.750000e+01
8.750000e+01
1.000000e+02
1.000000e+02
1.000000e+02
1.000000e+02
1.000000e+02
1.000000e+02
1.000000e+02
1.000000e+02
1.000000e+02
1.000000e+02
1.000000e+02
1.000000e+02
1.000000e+02
1.000000e+02
1.000000e+02
1.000000e+02
1.000000e+02
0.000000e+00
-9.352763e-01
-1.622993e+00
-2.335170e+00
-3.019871e+00
-3.676253e+00
-4.355683e+00
-5.020141e+00
-5.678146e+00
-6.344341e+00
-7.004222e+00
-7.676739e+00
-8.396996e+00
-9.159395e+00
-9.942829e+00
-1.065063e+01
-1.110132e+01
0.000000e+00
-4.500599e-01
-9.300999e-01
-1.434300e+00
-1.950697e+00
-2.440927e+00
-2.949213e+00
-3.451339e+00
-3.946188e+00
-4.446725e+00
-4.940480e+00
-5.433033e+00
-5.937214e+00
-6.424581e+00
-6.787500e+00
-6.880768e+00
-7.050823e+00
0.000000e+00
-1.913888e-01
-4.303397e-01
-7.364481e-01
-1.076200e+00
-1.406451e+00
-1.753002e+00
-2.097205e+00
-2.437351e+00
-2.777494e+00
-3.106049e+00
-3.414458e+00
-3.686329e+00
-3.882346e+00
-3.944717e+00
-3.925342e+00
-4.077529e+00
0.000000e+00
-8.657001e-02
-1.845774e-01
-3.277013e-01
-4.788980e-01
-6.479007e-01
-8.202924e-01
-9.906709e-01
-1.159320e+00
-1.320144e+00
-1.465215e+00
-1.579438e+00
-1.640982e+00
-1.631504e+00
-1.565965e+00
-1.560694e+00
-1.689387e+00
0.000000e+00
-1.826555e-03
-3.724857e-03
-5.333924e-03
-6.275004e-03
-5.694800e-03
-2.396669e-03
5.324453e-03
2.024533e-02
4.558460e-02
8.622546e-02
1.505136e-01
2.447380e-01
3.630094e-01
4.652556e-01
4.794758e-01
3.757571e-01
0.000000e+00
8.344647e-02
1.784444e-01
3.184673e-01
4.676732e-01
6.371339e-01
8.141468e-01
9.970296e-01
1.190514e+00
1.394044e+00
1.609364e+00
1.831228e+00
2.046035e+00
2.232931e+00
2.356929e+00
2.381821e+00
2.319871e+00
0.000000e+00
1.900332e-01
4.276289e-01
7.319856e-01
1.070151e+00
1.399698e+00
1.746973e+00
2.096372e+00
2.447230e+00
2.805358e+00
3.167575e+00
3.525482e+00
3.848137e+00
4.101690e+00
4.261801e+00
4.316287e+00
4.300251e+00
0.000000e+00
4.500921e-01
9.302409e-01
1.433784e+00
1.949531e+00
2.438689e+00
2.943453e+00
3.442824e+00
3.931150e+00
4.415467e+00
4.895324e+00
5.366223e+00
5.785856e+00
6.102847e+00
6.299187e+00
6.384487e+00
6.400078e+00
0.000000e+00
9.362695e-01
1.625603e+00
2.339019e+00
3.025125e+00
3.682870e+00
4.359399e+00
5.019579e+00
5.665193e+00
6.298725e+00
6.919905e+00
7.519586e+00
8.033055e+00
8.387995e+00
8.567941e+00
8.614316e+00
8.613848e+00
0.000000e+00
-5.816951e-01
-1.254737e+00
-2.151609e+00
-3.217328e+00
-4.451163e+00
-5.865529e+00
-7.447580e+00
-9.202218e+00
-1.113194e+01
-1.323145e+01
-1.550990e+01
-1.798331e+01
-2.065985e+01
-2.357206e+01
-2.692058e+01
-3.188015e+01
0.000000e+00
-3.812225e-01
-1.086855e+00
-1.969640e+00
-3.044141e+00
-4.276386e+00
-5.689106e+00
-7.274719e+00
-9.029042e+00
-1.095970e+01
-1.306133e+01
-1.533632e+01
-1.780448e+01
-2.049248e+01
-2.344922e+01
-2.682481e+01
-3.088429e+01
0.000000e+00
-3.408844e-01
-9.833176e-01
-1.858534e+00
-2.922649e+00
-4.152904e+00
-5.565322e+00
-7.151286e+00
-8.908182e+00
-1.084330e+01
-1.295276e+01
-1.523940e+01
-1.772309e+01
-2.044129e+01
-2.344162e+01
-2.665604e+01
-2.966164e+01
0.000000e+00
-3.728424e-01
-9.648460e-01
-1.815689e+00
-2.856290e+00
-4.084346e+00
-5.495764e+00
-7.082329e+00
-8.845248e+00
-1.078839e+01
-1.291313e+01
-1.522332e+01
-1.772811e+01
-2.044825e+01
-2.338720e+01
-2.633349e+01
-2.889372e+01
0.000000e+00
-3.826339e-01
-9.728897e-01
-1.803285e+00
-2.840860e+00
-4.066477e+00
-5.479720e+00
-7.070854e+00
-8.840645e+00
-1.079250e+01
-1.293137e+01
-1.526021e+01
-1.777071e+01
-2.045249e+01
-2.325313e+01
-2.597771e+01
-2.829285e+01
0.000000e+00
-3.725325e-01
-9.656161e-01
-1.818497e+00
-2.862577e+00
-4.096359e+00
-5.515085e+00
-7.112429e+00
-8.889457e+00
-1.084602e+01
-1.298905e+01
-1.532130e+01
-1.782076e+01
-2.044613e+01
-2.311764e+01
-2.567434e+01
-2.788002e+01
0.000000e+00
-3.405868e-01
-9.847128e-01
-1.863142e+00
-2.932963e+00
-4.172567e+00
-5.597368e+00
-7.201352e+00
-8.981472e+00
-1.093938e+01
-1.307788e+01
-1.540142e+01
-1.788148e+01
-2.045434e+01
-2.303012e+01
-2.548293e+01
-2.768122e+01
0.000000e+00
-3.810312e-01
-1.088315e+00
-1.974631e+00
-3.055476e+00
-4.297908e+00
-5.725056e+00
-7.330731e+00
-9.110326e+00
-1.106735e+01
-1.320080e+01
-1.551202e+01
-1.796871e+01
-2.049774e+01
-2.300764e+01
-2.540068e+01
-2.763235e+01
0.000000e+00
-5.818271e-01
-1.256423e+00
-2.156822e+00
-3.229006e+00
-4.472655e+00
-5.901255e+00
-7.502893e+00
-9.279835e+00
-1.123382e+01
-1.336369e+01
-1.566224e+01
-1.808736e+01
-2.056971e+01
-2.302880e+01
-2.538559e+01
-2.763271e+01


0.000000e+00
1.436831e-05
2.461211e-05
3.653825e-05
5.143927e-05
6.474865e-05
7.826342e-05
9.241361e-05
1.059433e-04
1.193902e-04
1.330131e-04
1.470999e-04
1.596377e-04
1.676737e-04
1.722589e-04
1.760000e-04
1.808171e-04
0.000000e+00
1.058542e-05
1.963713e-05
2.835000e-05
4.049317e-05
5.096081e-05
6.065181e-05
7.143138e-05
8.163416e-05
9.112794e-05
1.007868e-04
1.104345e-04
1.178565e-04
1.203045e-04
1.199926e-04
1.230761e-04
1.281189e-04
0.000000e+00
8.605991e-06
1.495065e-05
2.076998e-05
2.928786e-05
3.621658e-05
4.246677e-05
4.950810e-05
5.585412e-05
6.143628e-05
6.664422e-05
7.111871e-05
7.364429e-05
7.325952e-05
7.277928e-05
7.543041e-05
8.011485e-05
0.000000e+00
4.571891e-06
7.092191e-06
1.074001e-05
1.460661e-05
1.764276e-05
2.102964e-05
2.414880e-05
2.679119e-05
2.905538e-05
3.033615e-05
3.052288e-05
2.974392e-05
2.917850e-05
3.004568e-05
3.328375e-05
3.810014e-05
0.000000e+00
-4.828760e-08
-1.147898e-07
-1.990048e-07
-3.024649e-07
-4.314130e-07
-5.899077e-07
-7.904045e-07
-1.115512e-06
-1.670552e-06
-2.729574e-06
-4.303006e-06
-6.305043e-06
-7.624874e-06
-6.845701e-06
-4.590846e-06
-1.562193e-06
0.000000e+00
-4.651099e-06
-7.278189e-06
-1.106388e-05
-1.512443e-05
-1.837615e-05
-2.197148e-05
-2.543004e-05
-2.836644e-05
-3.101447e-05
-3.325249e-05
-3.508515e-05
-3.705095e-05
-3.883358e-05
-4.011355e-05
-4.052300e-05
-3.984768e-05
0.000000e+00
-8.628427e-06
-1.500761e-05
-2.092505e-05
-2.959032e-05
-3.661465e-05
-4.305971e-05
-5.029309e-05
-5.642921e-05
-6.186896e-05
-6.686119e-05
-6.993054e-05
-7.170981e-05
-7.355122e-05
-7.532962e-05
-7.669770e-05
-7.711136e-05
0.000000e+00
-1.057081e-05
-1.960312e-05
-2.833011e-05
-4.052408e-05
-5.094793e-05
-6.071486e-05
-7.164648e-05
-8.149704e-05
-9.105249e-05
-1.008810e-04
-1.082063e-04
-1.118383e-04
-1.139830e-04
-1.152276e-04
-1.157928e-04
-1.160037e-04
0.000000e+00
-1.437246e-05
-2.456938e-05
-3.641119e-05
-5.123213e-05
-6.436996e-05
-7.767749e-05
-9.178902e-05
-1.049776e-04
-1.184682e-04
-1.331088e-04
-1.452779e-04
-1.529574e-04
-1.563129e-04
-1.568842e-04
-1.564941e-04
-1.562761e-04
0.000000e+00
1.202041e-05
1.962885e-05
3.117208e-05
4.612955e-05
6.252276e-05
8.325360e-05
1.081100e-04
1.359371e-04
1.676552e-04
2.036239e-04
2.435555e-04
2.863283e-04
3.321748e-04
3.857019e-04
4.465398e-04
5.082562e-04
0.000000e+00
6.994134e-06
1.541427e-05
2.526789e-05
3.977195e-05
5.679175e-05
7.725850e-05
1.020189e-04
1.301663e-04
1.619621e-04
1.978446e-04
2.380706e-04
2.825762e-04
3.304678e-04
3.823612e-04
4.405045e-04
4.999815e-04
0.000000e+00
3.586725e-06
1.138389e-05
2.069204e-05
3.455885e-05
5.217665e-05
7.285095e-05
9.747106e-05
1.260447e-04
1.581569e-04
1.940948e-04
2.347175e-04
2.804118e-04
3.299765e-04
3.786595e-04
4.328677e-04
4.899852e-04
0.000000e+00
2.323820e-06
9.248511e-06
1.873601e-05
3.246719e-05
5.018358e-05
7.108735e-05
9.584801e-05
1.245754e-04
1.570037e-04
1.932124e-04
2.334397e-04
2.796122e-04
3.293192e-04
3.759426e-04
4.247678e-04
4.771910e-04
0.000000e+00
1.940021e-06
8.630080e-06
1.818267e-05
3.195766e-05
4.957077e-05
7.054649e-05
9.542890e-05
1.242023e-04
1.568131e-04
1.932571e-04
2.333083e-04
2.793899e-04
3.296691e-04
3.751563e-04
4.190207e-04
4.653937e-04
0.000000e+00
2.372759e-06
9.311473e-06
1.879207e-05
3.251522e-05
5.016898e-05
7.097516e-05
9.574942e-05
1.244295e-04
1.569292e-04
1.937876e-04
2.344953e-04
2.806910e-04
3.300868e-04
3.758805e-04
4.175834e-04
4.586394e-04
0.000000e+00
3.659917e-06
1.148278e-05
2.079262e-05
3.465551e-05
5.213703e-05
7.266467e-05
9.727077e-05
1.256072e-04
1.579190e-04
1.952267e-04
2.369732e-04
2.828562e-04
3.306470e-04
3.757028e-04
4.171057e-04
4.567161e-04
0.000000e+00
7.063671e-06
1.553301e-05
2.541203e-05
3.989336e-05
5.678797e-05
7.711037e-05
1.017249e-04
1.295797e-04
1.616357e-04
1.989095e-04
2.403135e-04
2.847454e-04
3.310120e-04
3.752541e-04
4.168590e-04
4.568725e-04
0.000000e+00
1.208576e-05
1.974653e-05
3.133583e-05
4.626342e-05
6.252898e-05
8.318008e-05
1.078194e-04
1.352927e-04
1.675178e-04
2.045557e-04
2.440876e-04
2.865957e-04
3.313193e-04
3.751174e-04
4.167060e-04
4.570791e-04


3.441725e+00
3.347402e+00
3.407549e+00
3.211917e+00
3.122538e+00
3.344511e+00
3.518063e+00
3.807387e+00
4.233858e+00
4.716815e+00
5.503515e+00
6.614138e+00
7.540414e+00
7.687381e+00
6.706313e+00
5.615692e+00
5.450715e+00
5.352528e+00
5.306713e+00
5.159704e+00
5.050924e+00
5.185771e+00
5.290286e+00
5.460997e+00
5.732856e+00
6.033717e+00
6.510417e+00
7.181529e+00
7.721685e+00
7.519142e+00
6.202596e+00
4.758513e+00
7.519737e+00
7.458585e+00
7.424282e+00
7.303354e+00
7.250911e+00
7.293378e+00
7.306486e+00
7.349350e+00
7.427155e+00
7.489644e+00
7.566114e+00
7.683959e+00
7.751920e+00
7.354429e+00
6.090597e+00
4.855984e+00
8.358546e+00
8.335086e+00
8.316701e+00
8.259490e+00
8.238820e+00
8.234906e+00
8.211204e+00
8.183497e+00
8.139763e+00
8.038896e+00
7.835682e+00
7.564700e+00
7.388452e+00
7.186644e+00
6.661798e+00
6.133282e+00
8.357355e+00
8.332608e+00
8.312098e+00
8.251683e+00
8.227324e+00
8.217105e+00
8.184298e+00
8.138661e+00
8.053805e+00
7.890649e+00
7.601001e+00
7.233097e+00
7.074285e+00
7.204866e+00
7.358141e+00
7.378679e+00
7.514295e+00
7.449008e+00
7.405157e+00
7.272459e+00
7.204640e+00
7.225248e+00
7.214397e+00
7.204464e+00
7.183487e+00
7.174716e+00
7.180525e+00
7.152073e+00
7.253891e+00
7.583944e+00
7.934916e+00
8.115222e+00
5.441794e+00
5.337666e+00
5.279812e+00
5.118259e+00
4.988422e+00
5.097964e+00
5.187620e+00
5.307863e+00
5.532109e+00
5.961014e+00
6.617048e+00
7.231817e+00
7.675050e+00
8.046371e+00
8.317768e+00
8.443679e+00
3.432689e+00
3.335914e+00
3.387950e+00
3.185388e+00
3.083944e+00
3.291608e+00
3.479507e+00
3.767008e+00
4.235726e+00
5.059897e+00
6.243363e+00
7.294529e+00
7.936530e+00
8.292108e+00
8.479761e+00
8.556966e+00


-6.843619e-01
-2.117770e-01
-2.954059e-01
-2.655353e-01
-1.571196e-01
-2.398179e-01
-1.995107e-01
-1.746080e-01
-2.043649e-01
-1.799312e-01
-2.032610e-01
-3.211135e-01
-3.587032e-01
-1.237489e-01
4.316301e-01
-7.875818e-01
5.766799e-01
4.307623e-01
3.147798e-01
2.449814e-01
2.954968e-01
2.297661e-01
2.289794e-01
2.321442e-01
2.061420e-01
2.239342e-01
2.566884e-01
3.090780e-01
4.624659e-01
7.232066e-01
7.287423e-01
-1.142535e+00
7.905822e-01
6.029641e-01
3.884646e-01
3.293512e-01
3.156640e-01
2.727551e-01
2.757427e-01
2.799464e-01
2.817785e-01
3.124264e-01
3.659380e-01
4.332402e-01
4.663952e-01
3.350111e-01
1.037477e-01
-2.738570e-01
8.194074e-01
6.663960e-01
4.461707e-01
3.440699e-01
2.831942e-01
2.561101e-01
2.588594e-01
2.683937e-01
2.805033e-01
2.894016e-01
2.825409e-01
2.368604e-01
9.014392e-02
-1.754355e-01
-1.898502e-01
-8.939560e-03
8.207996e-01
6.680630e-01
4.483239e-01
3.439765e-01
2.778975e-01
2.424647e-01
2.301231e-01
2.179004e-01
2.038841e-01
1.696623e-01
1.032348e-01
1.180728e-02
-1.120456e-01
-1.941412e-01
-1.842248e-02
3.888324e-01
7.937686e-01
6.070876e-01
3.943418e-01
3.321041e-01
3.087772e-01
2.507012e-01
2.222934e-01
1.802519e-01
1.207191e-01
4.194845e-02
-5.304301e-02
-9.818068e-02
-6.351422e-02
8.553905e-02
3.981996e-01
7.794496e-01
5.787549e-01
4.326110e-01
3.178656e-01
2.462787e-01
2.925797e-01
2.215162e-01
1.997979e-01
1.787796e-01
1.199092e-01
4.556119e-02
-3.330570e-02
7.921465e-03
2.010255e-01
4.710149e-01
7.611074e-01
9.591960e-01
-6.863796e-01
-2.152836e-01
-2.967865e-01
-2.675359e-01
-1.584018e-01
-2.288404e-01
-1.892859e-01
-1.440865e-01
-1.221422e-01
-1.044849e-01
-6.725367e-02
1.558568e-01
5.207112e-01
8.125716e-01
9.612496e-01
9.991251e-01
1 2 19 18
2 3 20 19
3 4 21 20
4 5 22 21
5 6 23 22
6 7 24 23
7 8 25 24
8 9 26 25
9 10 27 26
10 11 28 27
11 12 29 28
12 13 30 29
13 14 31 30
14 15 32 31
15 16 33 32
16 17 34 33
18 19 36 35
19 20 37 36
20 21 38 37
21 22 39 38
22 23 40 39
23 24 41 40
24 25 42 41
25 26 43 42
26 27 44 43
27 28 45 44
28 29 46 45
29 30 47 46
30 31 48 47
31 32 49 48
32 33 50 49
33 34 51 50
35 36 53 52
36 37 54 53
37 38 55 54
38 39 56 55
39 40 57 56
40 41 58 57
41 42 59 58
42 43 60 59
43 44 61 60
44 45 62 61
45 46 63 62
46 47 64 63
47 48 65 64
48 49 66 65
49 50 67 66
50 51 68 67
52 53 70 69
53 54 71 70
54 55 72 71
55 56 73 72
56 57 74 73
57 58 75 74
58 59 76 75
59 60 77 76
60 61 78 77
61 62 79 78
62 63 80 79
63 64 81 80
64 65 82 81
65 66 83 82
66 67 84 83
67 68 85 84
69 70 87 86
70 71 88 87
71 72 89 88
72 73 90 89
73 74 91 90
74 75 92 91
75 76 93 92
76 77 94 93
77 78 95 94
78 79 96 95
79 80 97 96
80 81 98 97
81 82 99 98
82 83 100 99
83 84 101 100
84 85 102 101
86 87 104 103
87 88 105 104
88 89 106 105
89 90 107 106
90 91 108 107
91 92 109 108
92 93 110 109
93 94 111 110
94 95 112 111
95 96 113 112
96 97 114 113
97 98 115 114
98 99 116 115
99 100 117 116
100 101 118 117
101 102 119 118
103 104 121 120
104 105 122 121
105 106 123 122
106 107 124 123
107 108 125 124
108 109 126 125
109 110 127 126
110 111 128 127
111 112 129 128
112 113 130 129
113 114 131 130
114 115 132 131
115 116 133 132
116 117 134 133
117 118 135 134
118 119 136 135
120 121 138 137
121 122 139 138
122 123 140 139
123 124 141 140
124 125 142 141
125 126 143 142
126 127 144 143
127 128 145 144
128 129 146 145
129 130 147 146
130 131 148 147
131 132 149 148
132 133 150 149
133 134 151 150
134 135 152 151
135 136 153 152
