TITLE = "Solution"
VARIABLES = x, y, u, v, psiu, psiv, t, stress
ZONE T="structure" N=153 E=128 F=FEBLOCK ET=QUADRILATERAL VARLOCATION=([7,8]=cellcentered)
0.000000e+00
1.250000e+01
2.500000e+01
3.750000e+01
5.000000e+01
6.250000e+01
7.500000e+01
8.750000e+01
1.000000e+02
1.125000e+02
1.250000e+02
1.375000e+02
1.500000e+02
1.625000e+02
1.750000e+02
1.875000e+02
2.000000e+02
0.000000e+00
1.250000e+01
2.500000e+01
3.750000e+01
5.000000e+01
6.250000e+01
7.500000e+01
8.750000e+01
1.000000e+02
1.125000e+02
1.250000e+02
1.375000e+02
1.500000e+02
1.625000e+02
1.750000e+02
1.875000e+02
2.000000e+02
0.000000e+00
1.250000e+01
2.500000e+01
3.750000e+01
5.000000e+01
6.250000e+01
7.500000e+01
8.750000e+01
1.000000e+02
1.125000e+02
1.250000e+02
1.375000e+02
1.500000e+02
1.625000e+02
1.750000e+02
1.875000e+02
2.000000e+02
0.000000e+00
1.250000e+01
2.500000e+01
3.750000e+01
5.000000e+01
6.250000e+01
7.500000e+01
8.750000e+01
1.000000e+02
1.125000e+02
1.250000e+02
1.375000e+02
1.500000e+02
1.625000e+02
1.750000e+02
1.875000e+02
2.000000e+02
0.000000e+00
1.250000e+01
2.500000e+01
3.750000e+01
5.000000e+01
6.250000e+01
7.500000e+01
8.750000e+01
1.000000e+02
1.125000e+02
1.250000e+02
1.375000e+02
1.500000e+02
1.625000e+02
1.750000e+02
1.875000e+02
2.000000e+02
0.000000e+00
1.250000e+01
2.500000e+01
3.750000e+01
5.000000e+01
6.250000e+01
7.500000e+01
8.750000e+01
1.000000e+02
1.125000e+02
1.250000e+02
1.375000e+02
1.500000e+02
1.625000e+02
1.750000e+02
1.875000e+02
2.000000e+02
0.000000e+00
1.250000e+01
2.500000e+01
3.750000e+01
5.000000e+01
6.250000e+01
7.500000e+01
8.750000e+01
1.000000e+02
1.125000e+02
1.250000e+02
1.375000e+02
1.500000e+02
1.625000e+02
1.750000e+02
1.875000e+02
2.000000e+02
0.000000e+00
1.250000e+01
2.500000e+01
3.750000e+01
5.000000e+01
6.250000e+01
7.500000e+01
8.750000e+01
1.000000e+02
1.125000e+02
1.250000e+02
1.375000e+02
1.500000e+02
1.625000e+02
1.750000e+02
1.875000e+02
2.000000e+02
0.000000e+00
1.250000e+01
2.500000e+01
3.750000e+01
5.000000e+01
6.250000e+01
7.500000e+01
8.750000e+01
1.000000e+02
1.125000e+02
1.250000e+02
1.375000e+02
1.500000e+02
1.625000e+02
1.750000e+02
1.875000e+02
2.000000e+02
0.000000e+00
0.000000e+00
0.000000e+00
0.000000e+00
0.000000e+00
0.000000e+00
0.000000e+00
0.000000e+00
0.000000e+00
0.000000e+00
0.000000e+00
0.000000e+00
0.000000e+00
0.000000e+00
0.000000e+00
0.000000e+00
0.000000e+00
1.250000e+01
1.250000e+01
1.250000e+01
1.250000e+01
1.250000e+01
1.250000e+01
1.250000e+01
1.250000e+01
1.250000e+01
1.250000e+01
1.250000e+01
1.250000e+01
1.250000e+01
1.250000e+01
1.250000e+01
1.250000e+01
1.250000e+01
2.500000e+01
2.500000e+01
2.500000e+01
2.500000e+01
2.500000e+01
2.500000e+01
2.500000e+01
2.500000e+01
2.500000e+01
2.500000e+01
2.500000e+01
2.500000e+01
2.500000e+01
2.500000e+01
2.500000e+01
2.500000e+01
2.500000e+01
3.750000e+01
3.750000e+01
3.750000e+01
3.750000e+01
3.750000e+01
3.750000e+01
3.750000e+01
3.750000e+01
3.750000e+01
3.750000e+01
3.750000e+01
3.750000e+01
3.750000e+01
3.750000e+01
3.750000e+01
3.750000e+01
3.750000e+01
5.000000e+01
5.000000e+01
5.000000e+01
5.000000e+01
5.000000e+01
5.000000e+01
5.000000e+01
5.000000e+01
5.000000e+01
5.000000e+01
5.000000e+01
5.000000e+01
5.000000e+01
5.000000e+01
5.000000e+01
5.000000e+01
5.000000e+01
6.250000e+01
6.250000e+01
6.250000e+01
6.250000e+01
6.250000e+01
6.250000e+01
6.250000e+01
6.250000e+01
6.250000e+01
6.250000e+01
6.250000e+01
6.250000e+01
6.250000e+01
6.250000e+01
6.250000e+01
6.250000e+01
6.250000e+01
7.500000e+01
7.500000e+01
7.500000e+01
7.500000e+01
7.500000e+01
7.500000e+01
7.500000e+01
7.500000e+01
7.500000e+01
7.500000e+01
7.500000e+01
7.500000e+01
7.500000e+01
7.500000e+01
7.500000e+01
7.500000e+01
7.500000e+01
8.750000e+01
8.750000e+01
8.750000e+01
8.750000e+01
8.750000e+01
8.750000e+01
8.750000e+01
8.750000e+01
8.750000e+01
8.750000e+01
8.750000e+01
8.750000e+01
8.750000e+01
8.750000e+01
8.750000e+01
8.750000e+01
8.750000e+01
1.000000e+02
1.000000e+02
1.000000e+02
1.000000e+02
1.000000e+02
1.000000e+02
1.000000e+02
1.000000e+02
1.000000e+02
1.000000e+02
1.000000e+02
1.000000e+02
1.000000e+02
1.000000e+02
1.000000e+02
1.000000e+02
1.000000e+02
0.000000e+00
-1.026734e+00
-1.841061e+00
-2.589717e+00
-3.349693e+00
-4.123415e+00
-4.900725e+00
-5.680965e+00
-6.481862e+00
-7.379038e+00
-8.397789e+00
-9.292723e+00
-1.003561e+01
-1.082897e+01
-1.166889e+01
-1.243200e+01
-1.290075e+01
0.000000e+00
-5.699342e-01
-1.166948e+00
-1.724946e+00
-2.283119e+00
-2.843035e+00
-3.405479e+00
-3.966482e+00
-4.546071e+00
-5.202925e+00
-5.957692e+00
-6.618005e+00
-7.133428e+00
-7.597177e+00
-7.939796e+00
-8.010120e+00
-8.175284e+00
0.000000e+00
-3.094535e-01
-6.471946e-01
-1.006417e+00
-1.366244e+00
-1.723269e+00
-2.086559e+00
-2.461454e+00
-2.859383e+00
-3.303664e+00
-3.772943e+00
-4.154682e+00
-4.422679e+00
-4.582294e+00
-4.594616e+00
-4.542638e+00
-4.739128e+00
0.000000e+00
-1.279905e-01
-2.832434e-01
-4.543056e-01
-6.262944e-01
-7.938285e-01
-9.636414e-01
-1.147280e+00
-1.348273e+00
-1.562973e+00
-1.755513e+00
-1.887113e+00
-1.949014e+00
-1.936147e+00
-1.863514e+00
-1.856953e+00
-2.028659e+00
0.000000e+00
-6.577074e-03
-1.169714e-02
-1.243298e-02
-7.246307e-03
3.011171e-03
1.847193e-02
3.959289e-02
6.911037e-02
1.137306e-01
1.759889e-01
2.545605e-01
3.478428e-01
4.494407e-01
5.283222e-01
5.134910e-01
3.908508e-01
0.000000e+00
1.194439e-01
2.642881e-01
4.266536e-01
5.976367e-01
7.762941e-01
9.703203e-01
1.196701e+00
1.461879e+00
1.764766e+00
2.060681e+00
2.309318e+00
2.522988e+00
2.704683e+00
2.816012e+00
2.820565e+00
2.755297e+00
0.000000e+00
3.057345e-01
6.334180e-01
9.757675e-01
1.316695e+00
1.661187e+00
2.028442e+00
2.438063e+00
2.910360e+00
3.450941e+00
3.979830e+00
4.392203e+00
4.707156e+00
4.951810e+00
5.109727e+00
5.157433e+00
5.142488e+00
0.000000e+00
5.684970e-01
1.156995e+00
1.695017e+00
2.221974e+00
2.749188e+00
3.297633e+00
3.887320e+00
4.551750e+00
5.306204e+00
6.053759e+00
6.647156e+00
7.081974e+00
7.390336e+00
7.577619e+00
7.651455e+00
7.664893e+00
0.000000e+00
1.027826e+00
1.833727e+00
2.561458e+00
3.284322e+00
4.018043e+00
4.782424e+00
5.604721e+00
6.510756e+00
7.503068e+00
8.439770e+00
9.194789e+00
9.748179e+00
1.010743e+01
1.027144e+01
1.029814e+01
1.029403e+01
0.000000e+00
-6.270439e-01
-1.274406e+00
-2.119245e+00
-3.157615e+00
-4.405794e+00
-5.878531e+00
-7.587814e+00
-9.552093e+00
-1.179968e+01
-1.430562e+01
-1.697106e+01
-1.982032e+01
-2.291378e+01
-2.632465e+01
-3.030452e+01
-3.593709e+01
0.000000e+00
-3.956604e-01
-1.080421e+00
-1.924694e+00
-2.959607e+00
-4.204042e+00
-5.675960e+00
-7.383264e+00
-9.334411e+00
-1.155375e+01
-1.406236e+01
-1.677277e+01
-1.964216e+01
-2.274025e+01
-2.618848e+01
-3.018653e+01
-3.498912e+01
0.000000e+00
-3.205311e-01
-9.552681e-01
-1.796010e+00
-2.825667e+00
-4.063037e+00
-5.528602e+00
-7.233142e+00
-9.178985e+00
-1.140086e+01
-1.392978e+01
-1.666784e+01
-1.956434e+01
-2.269103e+01
-2.616396e+01
-2.996168e+01
-3.351084e+01
0.000000e+00
-3.147889e-01
-9.129075e-01
-1.733170e+00
-2.753584e+00
-3.980390e+00
-5.431697e+00
-7.131239e+00
-9.087704e+00
-1.134117e+01
-1.389743e+01
-1.665313e+01
-1.956562e+01
-2.269271e+01
-2.607648e+01
-2.949275e+01
-3.244504e+01
0.000000e+00
-3.258786e-01
-9.109732e-01
-1.721489e+00
-2.735568e+00
-3.956097e+00
-5.396748e+00
-7.092618e+00
-9.065756e+00
-1.135370e+01
-1.393432e+01
-1.669410e+01
-1.960173e+01
-2.268981e+01
-2.592789e+01
-2.904543e+01
-3.171240e+01
0.000000e+00
-3.181765e-01
-9.208847e-01
-1.743824e+00
-2.765310e+00
-3.989181e+00
-5.433219e+00
-7.132813e+00
-9.112107e+00
-1.141870e+01
-1.401286e+01
-1.676723e+01
-1.965471e+01
-2.268767e+01
-2.579580e+01
-2.874076e+01
-3.132380e+01
0.000000e+00
-3.243127e-01
-9.647877e-01
-1.810457e+00
-2.842346e+00
-4.076056e+00
-5.533662e+00
-7.241365e+00
-9.227869e+00
-1.153601e+01
-1.412379e+01
-1.686488e+01
-1.972987e+01
-2.271099e+01
-2.571404e+01
-2.855291e+01
-3.114403e+01
0.000000e+00
-3.983037e-01
-1.087098e+00
-1.935144e+00
-2.971879e+00
-4.213608e+00
-5.683357e+00
-7.405269e+00
-9.410162e+00
-1.172068e+01
-1.428330e+01
-1.699556e+01
-1.983416e+01
-2.276918e+01
-2.569624e+01
-2.847860e+01
-3.111393e+01
0.000000e+00
-6.286285e-01
-1.277048e+00
-2.121986e+00
-3.159286e+00
-4.407073e+00
-5.888063e+00
-7.629237e+00
-9.659983e+00
-1.198028e+01
-1.450668e+01
-1.716964e+01
-1.996164e+01
-2.284404e+01
-2.571403e+01
-2.846576e+01
-3.111792e+01


0.000000e+00
2.222880e-05
3.973956e-05
5.087532e-05
5.894897e-05
6.675093e-05
7.528721e-05
8.302239e-05
8.851390e-05
9.074952e-05
8.804270e-05
8.176232e-05
7.538670e-05
6.991456e-05
6.682152e-05
6.637351e-05
6.712129e-05
0.000000e+00
1.744450e-05
3.349731e-05
4.114999e-05
4.630109e-05
5.199439e-05
5.904600e-05
6.583170e-05
7.084403e-05
7.302015e-05
7.038239e-05
6.440275e-05
5.861118e-05
5.336079e-05
4.943967e-05
4.858564e-05
4.955515e-05
0.000000e+00
1.254539e-05
2.304190e-05
2.848836e-05
3.252427e-05
3.664326e-05
4.151807e-05
4.609003e-05
4.914752e-05
4.964679e-05
4.674493e-05
4.222874e-05
3.823504e-05
3.515907e-05
3.299159e-05
3.272050e-05
3.382599e-05
0.000000e+00
5.731449e-06
9.639519e-06
1.308278e-05
1.536136e-05
1.725117e-05
1.924184e-05
2.106243e-05
2.171581e-05
2.111592e-05
1.933438e-05
1.738625e-05
1.625305e-05
1.567208e-05
1.570181e-05
1.595171e-05
1.627679e-05
0.000000e+00
-7.568819e-07
-1.693724e-06
-2.739615e-06
-4.016652e-06
-5.472213e-06
-6.701302e-06
-8.858175e-06
-9.891272e-06
-1.049630e-05
-9.445751e-06
-7.262417e-06
-5.065269e-06
-3.864405e-06
-3.979310e-06
-4.511491e-06
-5.432591e-06
0.000000e+00
-7.706179e-06
-1.303334e-05
-1.809816e-05
-2.202404e-05
-2.592879e-05
-3.267332e-05
-4.158614e-05
-4.657627e-05
-4.483227e-05
-4.127020e-05
-3.571189e-05
-2.995284e-05
-2.666119e-05
-2.638463e-05
-2.734490e-05
-2.852686e-05
0.000000e+00
-1.544578e-05
-2.737600e-05
-3.272028e-05
-3.657475e-05
-4.076967e-05
-5.101376e-05
-6.708618e-05
-7.790203e-05
-7.796287e-05
-7.298244e-05
-6.640714e-05
-5.968324e-05
-5.475754e-05
-5.260007e-05
-5.212987e-05
-5.259346e-05
0.000000e+00
-2.084985e-05
-3.839108e-05
-4.504447e-05
-4.902369e-05
-5.411294e-05
-6.485506e-05
-8.174118e-05
-9.557423e-05
-9.942411e-05
-9.630012e-05
-9.049822e-05
-8.531334e-05
-8.094474e-05
-7.783569e-05
-7.652558e-05
-7.629580e-05
0.000000e+00
-2.547959e-05
-4.392838e-05
-5.432602e-05
-6.186146e-05
-7.001379e-05
-8.221778e-05
-9.576367e-05
-1.074066e-04
-1.118183e-04
-1.105979e-04
-1.066665e-04
-1.037175e-04
-1.019877e-04
-1.000837e-04
-9.891632e-05
-9.860717e-05
0.000000e+00
1.816339e-05
2.730330e-05
3.674358e-05
4.991802e-05
6.657478e-05
8.551118e-05
1.053040e-04
1.250102e-04
1.430391e-04
1.577343e-04
1.712551e-04
1.848016e-04
1.974496e-04
2.119324e-04
2.309512e-04
2.511145e-04
0.000000e+00
9.399285e-06
2.138389e-05
3.294138e-05
4.669745e-05
6.283760e-05
8.146998e-05
1.018545e-04
1.227926e-04
1.426969e-04
1.595987e-04
1.740636e-04
1.875773e-04
1.998976e-04
2.126775e-04
2.298296e-04
2.493148e-04
0.000000e+00
4.105238e-06
1.624810e-05
2.993620e-05
4.416452e-05
6.003952e-05
7.848968e-05
9.947976e-05
1.217896e-04
1.433741e-04
1.616541e-04
1.766735e-04
1.899050e-04
2.018428e-04
2.129451e-04
2.279046e-04
2.465955e-04
0.000000e+00
2.604273e-06
1.370993e-05
2.792368e-05
4.269688e-05
5.865490e-05
7.710970e-05
9.889420e-05
1.225129e-04
1.448911e-04
1.634816e-04
1.783140e-04
1.905034e-04
2.023494e-04
2.135066e-04
2.269807e-04
2.448670e-04
0.000000e+00
2.634476e-06
1.337230e-05
2.754493e-05
4.253035e-05
5.801426e-05
7.583510e-05
9.876168e-05
1.237423e-04
1.461260e-04
1.646486e-04
1.786313e-04
1.896998e-04
2.016388e-04
2.150108e-04
2.290241e-04
2.465619e-04
0.000000e+00
2.854984e-06
1.479020e-05
2.930885e-05
4.381447e-05
5.800962e-05
7.539416e-05
9.918342e-05
1.250726e-04
1.465573e-04
1.642301e-04
1.772191e-04
1.874255e-04
2.003147e-04
2.162769e-04
2.319716e-04
2.500986e-04
0.000000e+00
4.738558e-06
1.803417e-05
3.187966e-05
4.551647e-05
6.005346e-05
7.895175e-05
1.036041e-04
1.276062e-04
1.460757e-04
1.620353e-04
1.739631e-04
1.845337e-04
1.987494e-04
2.162726e-04
2.338490e-04
2.534780e-04
0.000000e+00
1.093596e-05
2.354592e-05
3.460445e-05
4.786165e-05
6.409379e-05
8.621469e-05
1.114634e-04
1.320934e-04
1.463972e-04
1.590762e-04
1.704151e-04
1.821817e-04
1.973895e-04
2.154513e-04
2.344108e-04
2.550498e-04
0.000000e+00
2.094171e-05
2.955866e-05
3.803722e-05
5.086886e-05
6.870088e-05
9.331715e-05
1.186580e-04
1.369120e-04
1.471047e-04
1.569569e-04
1.681293e-04
1.806251e-04
1.964865e-04
2.146123e-04
2.344217e-04
2.553507e-04


2.671764e+00
2.557485e+00
2.540352e+00
2.762181e+00
3.014963e+00
3.294996e+00
3.720446e+00
4.411102e+00
6.088379e+00
7.955054e+00
8.012489e+00
7.375313e+00
7.905926e+00
7.792971e+00
6.079503e+00
4.604654e+00
3.437559e+00
3.428532e+00
3.442598e+00
3.587955e+00
3.846129e+00
4.401638e+00
4.810624e+00
5.483711e+00
6.720550e+00
8.027844e+00
7.992508e+00
7.448646e+00
7.829533e+00
7.982913e+00
6.604005e+00
5.229209e+00
5.189958e+00
5.238086e+00
4.962276e+00
4.836674e+00
5.096887e+00
5.749756e+00
6.587427e+00
7.151524e+00
7.891879e+00
8.300937e+00
7.775608e+00
7.204912e+00
7.448951e+00
8.078754e+00
7.796839e+00
6.878400e+00
7.044063e+00
6.688467e+00
5.879264e+00
5.401151e+00
5.538197e+00
6.301714e+00
7.448179e+00
8.412776e+00
8.770506e+00
8.468146e+00
7.630599e+00
6.896215e+00
7.109006e+00
7.884747e+00
8.205847e+00
7.908077e+00
7.021120e+00
6.575279e+00
5.752658e+00
5.360398e+00
5.601344e+00
6.395904e+00
7.621461e+00
8.595383e+00
9.075668e+00
8.660735e+00
7.657487e+00
7.214510e+00
7.423393e+00
8.008502e+00
8.198003e+00
7.642303e+00
5.159626e+00
5.076552e+00
4.756636e+00
4.734675e+00
5.147174e+00
5.936390e+00
6.918086e+00
7.847402e+00
8.755764e+00
8.694439e+00
7.735887e+00
7.414278e+00
7.982709e+00
8.412170e+00
8.108397e+00
7.674330e+00
3.442514e+00
3.364333e+00
3.321186e+00
3.457851e+00
3.785888e+00
4.481728e+00
5.248462e+00
6.494026e+00
7.830747e+00
8.382875e+00
7.784857e+00
7.471219e+00
7.745121e+00
7.848880e+00
7.371644e+00
6.708115e+00
2.645925e+00
2.499573e+00
2.434705e+00
2.605339e+00
2.878358e+00
3.346086e+00
4.159732e+00
5.457905e+00
7.044394e+00
7.919862e+00
7.922399e+00
7.631156e+00
7.385674e+00
7.063693e+00
6.174078e+00
5.266709e+00


-1.244137e+00
-7.518689e-01
-4.942885e-01
-5.199095e-01
-5.573855e-01
-5.758708e-01
-5.860697e-01
-6.916222e-01
-1.150929e+00
-1.773725e+00
-1.118991e+00
-3.865266e-01
-3.662156e-01
-2.034409e-01
3.820106e-01
-8.411973e-01
2.800145e-01
1.497782e-01
1.971021e-01
1.990456e-01
1.910237e-01
1.534239e-01
9.715541e-02
-2.940245e-02
-3.301157e-01
-6.239028e-01
-1.682960e-01
3.433673e-01
5.765089e-01
7.721016e-01
5.749365e-01
-2.258610e+00
7.616075e-01
6.161526e-01
5.490379e-01
5.360097e-01
5.166251e-01
4.591764e-01
3.592671e-01
2.358429e-01
5.294655e-02
-4.480235e-02
2.171274e-01
4.691677e-01
4.849297e-01
1.441158e-01
-5.125652e-01
-1.476987e+00
8.804428e-01
7.369624e-01
6.502567e-01
6.102944e-01
5.674420e-01
4.994449e-01
3.934622e-01
2.946603e-01
1.662699e-01
7.972403e-02
1.879548e-01
2.566118e-01
8.042998e-02
-3.559275e-01
-5.078194e-01
-4.547562e-01
8.855192e-01
7.450988e-01
6.519703e-01
5.928992e-01
5.289404e-01
4.413999e-01
3.065629e-01
1.640746e-01
-3.583577e-02
-1.563562e-01
-6.096394e-02
-3.411941e-02
-1.721735e-01
-3.051089e-01
9.109544e-03
4.569474e-01
7.695838e-01
6.322375e-01
5.669401e-01
5.352344e-01
4.784542e-01
3.659391e-01
1.684910e-01
-1.040345e-01
-4.604933e-01
-5.478038e-01
-2.455246e-01
-9.946012e-02
-1.227390e-01
-1.822318e-02
4.215426e-01
8.074346e-01
2.860435e-01
1.772725e-01
2.517750e-01
2.696249e-01
2.463074e-01
1.393685e-01
-7.086817e-02
-4.415414e-01
-9.373290e-01
-9.781576e-01
-3.656688e-01
6.155710e-02
2.641611e-01
4.961079e-01
8.113268e-01
9.739053e-01
-1.243765e+00
-7.104339e-01
-4.028931e-01
-3.685414e-01
-3.959772e-01
-5.185758e-01
-7.658133e-01
-1.199962e+00
-1.735534e+00
-1.556172e+00
-6.556503e-01
8.021137e-02
5.383561e-01
8.364403e-01
9.771487e-01
9.998002e-01
1 2 19 18
2 3 20 19
3 4 21 20
4 5 22 21
5 6 23 22
6 7 24 23
7 8 25 24
8 9 26 25
9 10 27 26
10 11 28 27
11 12 29 28
12 13 30 29
13 14 31 30
14 15 32 31
15 16 33 32
16 17 34 33
18 19 36 35
19 20 37 36
20 21 38 37
21 22 39 38
22 23 40 39
23 24 41 40
24 25 42 41
25 26 43 42
26 27 44 43
27 28 45 44
28 29 46 45
29 30 47 46
30 31 48 47
31 32 49 48
32 33 50 49
33 34 51 50
35 36 53 52
36 37 54 53
37 38 55 54
38 39 56 55
39 40 57 56
40 41 58 57
41 42 59 58
42 43 60 59
43 44 61 60
44 45 62 61
45 46 63 62
46 47 64 63
47 48 65 64
48 49 66 65
49 50 67 66
50 51 68 67
52 53 70 69
53 54 71 70
54 55 72 71
55 56 73 72
56 57 74 73
57 58 75 74
58 59 76 75
59 60 77 76
60 61 78 77
61 62 79 78
62 63 80 79
63 64 81 80
64 65 82 81
65 66 83 82
66 67 84 83
67 68 85 84
69 70 87 86
70 71 88 87
71 72 89 88
72 73 90 89
73 74 91 90
74 75 92 91
75 76 93 92
76 77 94 93
77 78 95 94
78 79 96 95
79 80 97 96
80 81 98 97
81 82 99 98
82 83 100 99
83 84 101 100
84 85 102 101
86 87 104 103
87 88 105 104
88 89 106 105
89 90 107 106
90 91 108 107
91 92 109 108
92 93 110 109
93 94 111 110
94 95 112 111
95 96 113 112
96 97 114 113
97 98 115 114
98 99 116 115
99 100 117 116
100 101 118 117
101 102 119 118
103 104 121 120
104 105 122 121
105 106 123 122
106 107 124 123
107 108 125 124
108 109 126 125
109 110 127 126
110 111 128 127
111 112 129 128
112 113 130 129
113 114 131 130
114 115 132 131
115 116 133 132
116 117 134 133
117 118 135 134
118 119 136 135
120 121 138 137
121 122 139 138
122 123 140 139
123 124 141 140
124 125 142 141
125 126 143 142
126 127 144 143
127 128 145 144
128 129 146 145
129 130 147 146
130 131 148 147
131 132 149 148
132 133 150 149
133 134 151 150
134 135 152 151
135 136 153 152
