TITLE = "Solution"
VARIABLES = x, y, u, v, psiu, psiv, t, stress
ZONE T="structure" N=153 E=128 F=FEBLOCK ET=QUADRILATERAL VARLOCATION=([7,8]=cellcentered)
0.000000e+00
1.250000e+01
2.500000e+01
3.750000e+01
5.000000e+01
6.250000e+01
7.500000e+01
8.750000e+01
1.000000e+02
1.125000e+02
1.250000e+02
1.375000e+02
1.500000e+02
1.625000e+02
1.750000e+02
1.875000e+02
2.000000e+02
0.000000e+00
1.250000e+01
2.500000e+01
3.750000e+01
5.000000e+01
6.250000e+01
7.500000e+01
8.750000e+01
1.000000e+02
1.125000e+02
1.250000e+02
1.375000e+02
1.500000e+02
1.625000e+02
1.750000e+02
1.875000e+02
2.000000e+02
0.000000e+00
1.250000e+01
2.500000e+01
3.750000e+01
5.000000e+01
6.250000e+01
7.500000e+01
8.750000e+01
1.000000e+02
1.125000e+02
1.250000e+02
1.375000e+02
1.500000e+02
1.625000e+02
1.750000e+02
1.875000e+02
2.000000e+02
0.000000e+00
1.250000e+01
2.500000e+01
3.750000e+01
5.000000e+01
6.250000e+01
7.500000e+01
8.750000e+01
1.000000e+02
1.125000e+02
1.250000e+02
1.375000e+02
1.500000e+02
1.625000e+02
1.750000e+02
1.875000e+02
2.000000e+02
0.000000e+00
1.250000e+01
2.500000e+01
3.750000e+01
5.000000e+01
6.250000e+01
7.500000e+01
8.750000e+01
1.000000e+02
1.125000e+02
1.250000e+02
1.375000e+02
1.500000e+02
1.625000e+02
1.750000e+02
1.875000e+02
2.000000e+02
0.000000e+00
1.250000e+01
2.500000e+01
3.750000e+01
5.000000e+01
6.250000e+01
7.500000e+01
8.750000e+01
1.000000e+02
1.125000e+02
1.250000e+02
1.375000e+02
1.500000e+02
1.625000e+02
1.750000e+02
1.875000e+02
2.000000e+02
0.000000e+00
1.250000e+01
2.500000e+01
3.750000e+01
5.000000e+01
6.250000e+01
7.500000e+01
8.750000e+01
1.000000e+02
1.125000e+02
1.250000e+02
1.375000e+02
1.500000e+02
1.625000e+02
1.750000e+02
1.875000e+02
2.000000e+02
0.000000e+00
1.250000e+01
2.500000e+01
3.750000e+01
5.000000e+01
6.250000e+01
7.500000e+01
8.750000e+01
1.000000e+02
1.125000e+02
1.250000e+02
1.375000e+02
1.500000e+02
1.625000e+02
1.750000e+02
1.875000e+02
2.000000e+02
0.000000e+00
1.250000e+01
2.500000e+01
3.750000e+01
5.000000e+01
6.250000e+01
7.500000e+01
8.750000e+01
1.000000e+02
1.125000e+02
1.250000e+02
1.375000e+02
1.500000e+02
1.625000e+02
1.750000e+02
1.875000e+02
2.000000e+02
0.000000e+00
0.000000e+00
0.000000e+00
0.000000e+00
0.000000e+00
0.000000e+00
0.000000e+00
0.000000e+00
0.000000e+00
0.000000e+00
0.000000e+00
0.000000e+00
0.000000e+00
0.000000e+00
0.000000e+00
0.000000e+00
0.000000e+00
1.250000e+01
1.250000e+01
1.250000e+01
1.250000e+01
1.250000e+01
1.250000e+01
1.250000e+01
1.250000e+01
1.250000e+01
1.250000e+01
1.250000e+01
1.250000e+01
1.250000e+01
1.250000e+01
1.250000e+01
1.250000e+01
1.250000e+01
2.500000e+01
2.500000e+01
2.500000e+01
2.500000e+01
2.500000e+01
2.500000e+01
2.500000e+01
2.500000e+01
2.500000e+01
2.500000e+01
2.500000e+01
2.500000e+01
2.500000e+01
2.500000e+01
2.500000e+01
2.500000e+01
2.500000e+01
3.750000e+01
3.750000e+01
3.750000e+01
3.750000e+01
3.750000e+01
3.750000e+01
3.750000e+01
3.750000e+01
3.750000e+01
3.750000e+01
3.750000e+01
3.750000e+01
3.750000e+01
3.750000e+01
3.750000e+01
3.750000e+01
3.750000e+01
5.000000e+01
5.000000e+01
5.000000e+01
5.000000e+01
5.000000e+01
5.000000e+01
5.000000e+01
5.000000e+01
5.000000e+01
5.000000e+01
5.000000e+01
5.000000e+01
5.000000e+01
5.000000e+01
5.000000e+01
5.000000e+01
5.000000e+01
6.250000e+01
6.250000e+01
6.250000e+01
6.250000e+01
6.250000e+01
6.250000e+01
6.250000e+01
6.250000e+01
6.250000e+01
6.250000e+01
6.250000e+01
6.250000e+01
6.250000e+01
6.250000e+01
6.250000e+01
6.250000e+01
6.250000e+01
7.500000e+01
7.500000e+01
7.500000e+01
7.500000e+01
7.500000e+01
7.500000e+01
7.500000e+01
7.500000e+01
7.500000e+01
7.500000e+01
7.500000e+01
7.500000e+01
7.500000e+01
7.500000e+01
7.500000e+01
7.500000e+01
7.500000e+01
8.750000e+01
8.750000e+01
8.750000e+01
8.750000e+01
8.750000e+01
8.750000e+01
8.750000e+01
8.750000e+01
8.750000e+01
8.750000e+01
8.750000e+01
8.750000e+01
8.750000e+01
8.750000e+01
8.750000e+01
8.750000e+01
8.750000e+01
1.000000e+02
1.000000e+02
1.000000e+02
1.000000e+02
1.000000e+02
1.000000e+02
1.000000e+02
1.000000e+02
1.000000e+02
1.000000e+02
1.000000e+02
1.000000e+02
1.000000e+02
1.000000e+02
1.000000e+02
1.000000e+02
1.000000e+02
0.000000e+00
-2.557492e-01
-4.702196e-01
-6.682474e-01
-8.544541e-01
-1.028078e+00
-1.188362e+00
-1.334874e+00
-1.467537e+00
-1.586683e+00
-1.693243e+00
-1.789076e+00
-1.877574e+00
-1.964734e+00
-2.060891e+00
-2.178216e+00
-2.265921e+00
0.000000e+00
-1.519289e-01
-3.155000e-01
-4.671822e-01
-6.083706e-01
-7.392831e-01
-8.598383e-01
-9.699386e-01
-1.069552e+00
-1.158772e+00
-1.237863e+00
-1.307226e+00
-1.367161e+00
-1.416890e+00
-1.451922e+00
-1.459631e+00
-1.486860e+00
0.000000e+00
-9.445938e-02
-1.943968e-01
-2.948234e-01
-3.895229e-01
-4.773153e-01
-5.579102e-01
-6.312037e-01
-6.970401e-01
-7.551542e-01
-8.050952e-01
-8.460434e-01
-8.764309e-01
-8.934852e-01
-8.940721e-01
-8.874194e-01
-9.151871e-01
0.000000e+00
-4.540847e-02
-9.363558e-02
-1.426142e-01
-1.899378e-01
-2.339503e-01
-2.742021e-01
-3.104681e-01
-3.424402e-01
-3.696118e-01
-3.912060e-01
-4.061284e-01
-4.130899e-01
-4.114642e-01
-4.047661e-01
-4.065480e-01
-4.272796e-01
0.000000e+00
-5.030274e-05
-1.135218e-04
-1.771978e-04
-2.149763e-04
-1.676455e-04
8.290402e-05
7.492318e-04
2.180844e-03
4.899423e-03
9.587233e-03
1.693274e-02
2.712979e-02
3.867790e-02
4.669189e-02
4.459743e-02
3.081767e-02
0.000000e+00
4.533004e-02
9.345581e-02
1.423277e-01
1.895775e-01
2.336376e-01
2.742381e-01
3.114814e-01
3.456060e-01
3.769371e-01
4.058240e-01
4.324273e-01
4.562370e-01
4.753933e-01
4.867045e-01
4.876515e-01
4.806318e-01
0.000000e+00
9.444101e-02
1.943480e-01
2.947336e-01
3.893885e-01
4.771499e-01
5.577651e-01
6.312057e-01
6.974533e-01
7.564735e-01
8.081819e-01
8.523306e-01
8.883051e-01
9.149840e-01
9.310358e-01
9.362643e-01
9.346236e-01
0.000000e+00
1.519886e-01
3.156295e-01
4.673894e-01
6.086495e-01
7.395792e-01
8.599884e-01
9.695674e-01
1.067909e+00
1.154500e+00
1.228720e+00
1.289865e+00
1.337284e+00
1.370686e+00
1.390657e+00
1.399188e+00
1.400756e+00
0.000000e+00
2.558525e-01
4.704962e-01
6.687695e-01
8.552944e-01
1.029266e+00
1.189783e+00
1.336060e+00
1.467301e+00
1.582516e+00
1.680420e+00
1.759449e+00
1.818079e+00
1.855667e+00
1.873893e+00
1.878403e+00
1.878317e+00
0.000000e+00
-1.550111e-01
-3.053336e-01
-5.004826e-01
-7.401594e-01
-1.024042e+00
-1.349325e+00
-1.712631e+00
-2.110283e+00
-2.538579e+00
-2.994049e+00
-3.473906e+00
-3.977015e+00
-4.506113e+00
-5.075198e+00
-5.728207e+00
-6.671659e+00
0.000000e+00
-9.559006e-02
-2.524536e-01
-4.496164e-01
-6.927198e-01
-9.800980e-01
-1.309037e+00
-1.676054e+00
-2.077419e+00
-2.509352e+00
-2.968273e+00
-3.451252e+00
-3.956969e+00
-4.488117e+00
-5.057109e+00
-5.706208e+00
-6.503807e+00
0.000000e+00
-7.250211e-02
-2.158697e-01
-4.135082e-01
-6.585655e-01
-9.486063e-01
-1.280350e+00
-1.650269e+00
-2.054651e+00
-2.489765e+00
-2.952096e+00
-3.438814e+00
-3.948735e+00
-4.484127e+00
-5.053712e+00
-5.668133e+00
-6.262044e+00
0.000000e+00
-6.305080e-02
-1.978610e-01
-3.923865e-01
-6.381248e-01
-9.297651e-01
-1.263441e+00
-1.635486e+00
-2.042255e+00
-2.480117e+00
-2.945632e+00
-3.435911e+00
-3.949175e+00
-4.485188e+00
-5.043108e+00
-5.606593e+00
-6.124274e+00
0.000000e+00
-6.042247e-02
-1.924686e-01
-3.856777e-01
-6.314090e-01
-9.237198e-01
-1.258322e+00
-1.631557e+00
-2.039853e+00
-2.479641e+00
-2.947396e+00
-3.439750e+00
-3.953474e+00
-4.484657e+00
-5.024999e+00
-5.555305e+00
-6.042310e+00
0.000000e+00
-6.301033e-02
-1.978325e-01
-3.924371e-01
-6.383713e-01
-9.304114e-01
-1.264819e+00
-1.638089e+00
-2.046736e+00
-2.487172e+00
-2.955637e+00
-3.448028e+00
-3.959477e+00
-4.483254e+00
-5.008888e+00
-5.520386e+00
-5.996536e+00
0.000000e+00
-7.243644e-02
-2.158231e-01
-4.135928e-01
-6.589803e-01
-9.496973e-01
-1.282681e+00
-1.654680e+00
-2.062256e+00
-2.501763e+00
-2.969180e+00
-3.459760e+00
-3.967443e+00
-4.484115e+00
-4.999185e+00
-5.500478e+00
-5.976268e+00
0.000000e+00
-9.552808e-02
-2.524125e-01
-4.497281e-01
-6.932164e-01
-9.813785e-01
-1.311746e+00
-1.681144e+00
-2.086141e+00
-2.523028e+00
-2.987619e+00
-3.474824e+00
-3.978066e+00
-4.488789e+00
-4.996745e+00
-5.492227e+00
-5.971495e+00
0.000000e+00
-1.549824e-01
-3.053339e-01
-5.006521e-01
-7.407323e-01
-1.025408e+00
-1.352095e+00
-1.717676e+00
-2.118682e+00
-2.551339e+00
-3.011364e+00
-3.493557e+00
-3.991305e+00
-4.496250e+00
-4.998813e+00
-5.490716e+00
-5.971568e+00


0.000000e+00
5.674207e-06
1.136586e-05
1.665968e-05
2.165138e-05
2.630863e-05
3.060607e-05
3.453753e-05
3.810622e-05
4.132286e-05
4.420484e-05
4.677230e-05
4.903549e-05
5.097236e-05
5.255388e-05
5.390601e-05
5.511534e-05
0.000000e+00
3.206187e-06
7.781203e-06
1.188891e-05
1.567497e-05
1.918606e-05
2.241325e-05
2.535161e-05
2.799944e-05
3.035515e-05
3.241496e-05
3.416989e-05
3.560756e-05
3.675286e-05
3.779540e-05
3.903745e-05
4.032141e-05
0.000000e+00
2.025575e-06
4.920112e-06
7.632658e-06
1.017397e-05
1.252481e-05
1.467312e-05
1.661273e-05
1.833749e-05
1.983887e-05
2.110589e-05
2.213018e-05
2.292549e-05
2.357151e-05
2.425248e-05
2.517685e-05
2.624803e-05
0.000000e+00
9.892106e-07
2.351345e-06
3.680070e-06
4.951398e-06
6.125439e-06
7.188468e-06
8.133865e-06
8.954246e-06
9.640831e-06
1.018626e-05
1.059270e-05
1.088712e-05
1.113955e-05
1.146612e-05
1.200495e-05
1.274798e-05
0.000000e+00
1.176253e-09
1.550984e-09
-2.319220e-10
-5.986908e-09
-1.863033e-08
-4.245088e-08
-8.317467e-08
-1.474720e-07
-2.413141e-07
-3.663457e-07
-5.137899e-07
-6.572726e-07
-7.485326e-07
-7.143482e-07
-4.617146e-07
2.532601e-08
0.000000e+00
-9.870115e-07
-2.348234e-06
-3.679563e-06
-4.959975e-06
-6.154451e-06
-7.256552e-06
-8.269531e-06
-9.197788e-06
-1.004371e-05
-1.080452e-05
-1.146881e-05
-1.201428e-05
-1.240824e-05
-1.261112e-05
-1.257473e-05
-1.230862e-05
0.000000e+00
-2.024117e-06
-4.917858e-06
-7.631047e-06
-1.017564e-05
-1.253467e-05
-1.469964e-05
-1.666943e-05
-1.844432e-05
-2.002275e-05
-2.139865e-05
-2.255930e-05
-2.348477e-05
-2.415211e-05
-2.454931e-05
-2.468272e-05
-2.460469e-05
0.000000e+00
-3.207219e-06
-7.783266e-06
-1.189066e-05
-1.567414e-05
-1.917862e-05
-2.239244e-05
-2.530678e-05
-2.791495e-05
-3.020979e-05
-3.218275e-05
-3.382329e-05
-3.511907e-05
-3.605980e-05
-3.665245e-05
-3.694438e-05
-3.701518e-05
0.000000e+00
-5.680890e-06
-1.137761e-05
-1.667418e-05
-2.166369e-05
-2.630826e-05
-3.057299e-05
-3.443682e-05
-3.788189e-05
-4.089164e-05
-4.345236e-05
-4.555606e-05
-4.720314e-05
-4.840490e-05
-4.918813e-05
-4.959316e-05
-4.972338e-05
0.000000e+00
5.138286e-06
1.001754e-05
1.551324e-05
2.208855e-05
2.980589e-05
3.861653e-05
4.844242e-05
5.919245e-05
7.077722e-05
8.311945e-05
9.617121e-05
1.099590e-04
1.246834e-04
1.407190e-04
1.577775e-04
1.747060e-04
0.000000e+00
3.097576e-06
7.847598e-06
1.338155e-05
2.007383e-05
2.793678e-05
3.690700e-05
4.689554e-05
5.780861e-05
6.955524e-05
8.205656e-05
9.526096e-05
1.091700e-04
1.238711e-04
1.395080e-04
1.561216e-04
1.728197e-04
0.000000e+00
1.962786e-06
6.108375e-06
1.163675e-05
1.841749e-05
2.640613e-05
3.551450e-05
4.564672e-05
5.670711e-05
6.860399e-05
8.125551e-05
9.459706e-05
1.085839e-04
1.231719e-04
1.383286e-04
1.543219e-04
1.704711e-04
0.000000e+00
1.443058e-06
5.199640e-06
1.062271e-05
1.744386e-05
2.551034e-05
3.470841e-05
4.493661e-05
5.609788e-05
6.809864e-05
8.084989e-05
9.426634e-05
1.082568e-04
1.227034e-04
1.375066e-04
1.528713e-04
1.682012e-04
0.000000e+00
1.297071e-06
4.926478e-06
1.029714e-05
1.712906e-05
2.522730e-05
3.446472e-05
4.473742e-05
5.594708e-05
6.799643e-05
8.078692e-05
9.421364e-05
1.081543e-04
1.224542e-04
1.369583e-04
1.517623e-04
1.662846e-04
0.000000e+00
1.444275e-06
5.204191e-06
1.063397e-05
1.746622e-05
2.554984e-05
3.477257e-05
4.503346e-05
5.623306e-05
6.826962e-05
8.103545e-05
9.441131e-05
1.082569e-04
1.223971e-04
1.366416e-04
1.509776e-04
1.649099e-04
0.000000e+00
1.964713e-06
6.116243e-06
1.165637e-05
1.845657e-05
2.647528e-05
3.562702e-05
4.581676e-05
5.694473e-05
6.890490e-05
8.158208e-05
9.484722e-05
1.085501e-04
1.225088e-04
1.365215e-04
1.505070e-04
1.640723e-04
0.000000e+00
3.099985e-06
7.857535e-06
1.340566e-05
2.012145e-05
2.802063e-05
3.704286e-05
4.709978e-05
5.809204e-05
6.991030e-05
8.243362e-05
9.552603e-05
1.090322e-04
1.227736e-04
1.365648e-04
1.502951e-04
1.636726e-04
0.000000e+00
5.142271e-06
1.002914e-05
1.553929e-05
2.213825e-05
2.989134e-05
3.875207e-05
4.864165e-05
5.946119e-05
7.109978e-05
8.343365e-05
9.632362e-05
1.096132e-04
1.231313e-04
1.367148e-04
1.502605e-04
1.635560e-04


7.361487e-01
7.343595e-01
7.385434e-01
7.475007e-01
7.557337e-01
7.630550e-01
7.698050e-01
7.760014e-01
7.815855e-01
7.865093e-01
7.907237e-01
7.941006e-01
7.959640e-01
7.942341e-01
7.891075e-01
7.851430e-01
7.508171e-01
7.487224e-01
7.511777e-01
7.578486e-01
7.642620e-01
7.700710e-01
7.754895e-01
7.804926e-01
7.850297e-01
7.890517e-01
7.924854e-01
7.951488e-01
7.963009e-01
7.938878e-01
7.885130e-01
7.845307e-01
7.744271e-01
7.722595e-01
7.725878e-01
7.756749e-01
7.789828e-01
7.822237e-01
7.853184e-01
7.882024e-01
7.908343e-01
7.931664e-01
7.951146e-01
7.964910e-01
7.966796e-01
7.941404e-01
7.896122e-01
7.866380e-01
7.906082e-01
7.887157e-01
7.877007e-01
7.882264e-01
7.893984e-01
7.907643e-01
7.921258e-01
7.933894e-01
7.945160e-01
7.954717e-01
7.962083e-01
7.966349e-01
7.964519e-01
7.949186e-01
7.926518e-01
7.914243e-01
7.906085e-01
7.887121e-01
7.876863e-01
7.881894e-01
7.893213e-01
7.906222e-01
7.918857e-01
7.930136e-01
7.939717e-01
7.947522e-01
7.953697e-01
7.958606e-01
7.961935e-01
7.961677e-01
7.960969e-01
7.963387e-01
7.744164e-01
7.722407e-01
7.725479e-01
7.755927e-01
7.788259e-01
7.819465e-01
7.848609e-01
7.874958e-01
7.898192e-01
7.918347e-01
7.935870e-01
7.951648e-01
7.966441e-01
7.979961e-01
7.992814e-01
8.002315e-01
7.507785e-01
7.486774e-01
7.511219e-01
7.577748e-01
7.641590e-01
7.699244e-01
7.752811e-01
7.802017e-01
7.846418e-01
7.885840e-01
7.920435e-01
7.950685e-01
7.977063e-01
7.999471e-01
8.017446e-01
8.027972e-01
7.360865e-01
7.342948e-01
7.384818e-01
7.474529e-01
7.557147e-01
7.630896e-01
7.699271e-01
7.762512e-01
7.820056e-01
7.871465e-01
7.916482e-01
7.955044e-01
7.987125e-01
8.012536e-01
8.030691e-01
8.040550e-01


8.534212e-01
8.747499e-01
8.931050e-01
9.061259e-01
9.186968e-01
9.307706e-01
9.421234e-01
9.525195e-01
9.617568e-01
9.696512e-01
9.760444e-01
9.808026e-01
9.838261e-01
9.850274e-01
9.860022e-01
9.386896e-01
9.450348e-01
9.354344e-01
9.409397e-01
9.479400e-01
9.547225e-01
9.611450e-01
9.671568e-01
9.727698e-01
9.779961e-01
9.828508e-01
9.873541e-01
9.915114e-01
9.952021e-01
9.976606e-01
9.916894e-01
9.104849e-01
9.809286e-01
9.752306e-01
9.733637e-01
9.750157e-01
9.774393e-01
9.799022e-01
9.822809e-01
9.846127e-01
9.869478e-01
9.892900e-01
9.915266e-01
9.932860e-01
9.936559e-01
9.904570e-01
9.789328e-01
9.582669e-01
9.959318e-01
9.917219e-01
9.890428e-01
9.882483e-01
9.883714e-01
9.886957e-01
9.890469e-01
9.894127e-01
9.897902e-01
9.901120e-01
9.901753e-01
9.895787e-01
9.877610e-01
9.845480e-01
9.818855e-01
9.812650e-01
9.959490e-01
9.917462e-01
9.890655e-01
9.882475e-01
9.883080e-01
9.885041e-01
9.886239e-01
9.886107e-01
9.884262e-01
9.880138e-01
9.873083e-01
9.863207e-01
9.853858e-01
9.855501e-01
9.881005e-01
9.925136e-01
9.809620e-01
9.752798e-01
9.734116e-01
9.750213e-01
9.773291e-01
9.795484e-01
9.814767e-01
9.830549e-01
9.842454e-01
9.850398e-01
9.855314e-01
9.860413e-01
9.872221e-01
9.897824e-01
9.936658e-01
9.976957e-01
9.450356e-01
9.354372e-01
9.409367e-01
9.479195e-01
9.546608e-01
9.609979e-01
9.668481e-01
9.721783e-01
9.769446e-01
9.811150e-01
9.847217e-01
9.879365e-01
9.910905e-01
9.944425e-01
9.976005e-01
9.995978e-01
8.533254e-01
8.745949e-01
8.929117e-01
9.059037e-01
9.184933e-01
9.306960e-01
9.423837e-01
9.534462e-01
9.638127e-01
9.733847e-01
9.819658e-01
9.892066e-01
9.946636e-01
9.980624e-01
9.996189e-01
9.999919e-01
1 2 19 18
2 3 20 19
3 4 21 20
4 5 22 21
5 6 23 22
6 7 24 23
7 8 25 24
8 9 26 25
9 10 27 26
10 11 28 27
11 12 29 28
12 13 30 29
13 14 31 30
14 15 32 31
15 16 33 32
16 17 34 33
18 19 36 35
19 20 37 36
20 21 38 37
21 22 39 38
22 23 40 39
23 24 41 40
24 25 42 41
25 26 43 42
26 27 44 43
27 28 45 44
28 29 46 45
29 30 47 46
30 31 48 47
31 32 49 48
32 33 50 49
33 34 51 50
35 36 53 52
36 37 54 53
37 38 55 54
38 39 56 55
39 40 57 56
40 41 58 57
41 42 59 58
42 43 60 59
43 44 61 60
44 45 62 61
45 46 63 62
46 47 64 63
47 48 65 64
48 49 66 65
49 50 67 66
50 51 68 67
52 53 70 69
53 54 71 70
54 55 72 71
55 56 73 72
56 57 74 73
57 58 75 74
58 59 76 75
59 60 77 76
60 61 78 77
61 62 79 78
62 63 80 79
63 64 81 80
64 65 82 81
65 66 83 82
66 67 84 83
67 68 85 84
69 70 87 86
70 71 88 87
71 72 89 88
72 73 90 89
73 74 91 90
74 75 92 91
75 76 93 92
76 77 94 93
77 78 95 94
78 79 96 95
79 80 97 96
80 81 98 97
81 82 99 98
82 83 100 99
83 84 101 100
84 85 102 101
86 87 104 103
87 88 105 104
88 89 106 105
89 90 107 106
90 91 108 107
91 92 109 108
92 93 110 109
93 94 111 110
94 95 112 111
95 96 113 112
96 97 114 113
97 98 115 114
98 99 116 115
99 100 117 116
100 101 118 117
101 102 119 118
103 104 121 120
104 105 122 121
105 106 123 122
106 107 124 123
107 108 125 124
108 109 126 125
109 110 127 126
110 111 128 127
111 112 129 128
112 113 130 129
113 114 131 130
114 115 132 131
115 116 133 132
116 117 134 133
117 118 135 134
118 119 136 135
120 121 138 137
121 122 139 138
122 123 140 139
123 124 141 140
124 125 142 141
125 126 143 142
126 127 144 143
127 128 145 144
128 129 146 145
129 130 147 146
130 131 148 147
131 132 149 148
132 133 150 149
133 134 151 150
134 135 152 151
135 136 153 152
