TITLE = "Solution"
VARIABLES = x, y, u, v, psiu, psiv, t, stress
ZONE T="structure" N=153 E=128 F=FEBLOCK ET=QUADRILATERAL VARLOCATION=([7,8]=cellcentered)
0.000000e+00
1.250000e+01
2.500000e+01
3.750000e+01
5.000000e+01
6.250000e+01
7.500000e+01
8.750000e+01
1.000000e+02
1.125000e+02
1.250000e+02
1.375000e+02
1.500000e+02
1.625000e+02
1.750000e+02
1.875000e+02
2.000000e+02
0.000000e+00
1.250000e+01
2.500000e+01
3.750000e+01
5.000000e+01
6.250000e+01
7.500000e+01
8.750000e+01
1.000000e+02
1.125000e+02
1.250000e+02
1.375000e+02
1.500000e+02
1.625000e+02
1.750000e+02
1.875000e+02
2.000000e+02
0.000000e+00
1.250000e+01
2.500000e+01
3.750000e+01
5.000000e+01
6.250000e+01
7.500000e+01
8.750000e+01
1.000000e+02
1.125000e+02
1.250000e+02
1.375000e+02
1.500000e+02
1.625000e+02
1.750000e+02
1.875000e+02
2.000000e+02
0.000000e+00
1.250000e+01
2.500000e+01
3.750000e+01
5.000000e+01
6.250000e+01
7.500000e+01
8.750000e+01
1.000000e+02
1.125000e+02
1.250000e+02
1.375000e+02
1.500000e+02
1.625000e+02
1.750000e+02
1.875000e+02
2.000000e+02
0.000000e+00
1.250000e+01
2.500000e+01
3.750000e+01
5.000000e+01
6.250000e+01
7.500000e+01
8.750000e+01
1.000000e+02
1.125000e+02
1.250000e+02
1.375000e+02
1.500000e+02
1.625000e+02
1.750000e+02
1.875000e+02
2.000000e+02
0.000000e+00
1.250000e+01
2.500000e+01
3.750000e+01
5.000000e+01
6.250000e+01
7.500000e+01
8.750000e+01
1.000000e+02
1.125000e+02
1.250000e+02
1.375000e+02
1.500000e+02
1.625000e+02
1.750000e+02
1.875000e+02
2.000000e+02
0.000000e+00
1.250000e+01
2.500000e+01
3.750000e+01
5.000000e+01
6.250000e+01
7.500000e+01
8.750000e+01
1.000000e+02
1.125000e+02
1.250000e+02
1.375000e+02
1.500000e+02
1.625000e+02
1.750000e+02
1.875000e+02
2.000000e+02
0.000000e+00
1.250000e+01
2.500000e+01
3.750000e+01
5.000000e+01
6.250000e+01
7.500000e+01
8.750000e+01
1.000000e+02
1.125000e+02
1.250000e+02
1.375000e+02
1.500000e+02
1.625000e+02
1.750000e+02
1.875000e+02
2.000000e+02
0.000000e+00
1.250000e+01
2.500000e+01
3.750000e+01
5.000000e+01
6.250000e+01
7.500000e+01
8.750000e+01
1.000000e+02
1.125000e+02
1.250000e+02
1.375000e+02
1.500000e+02
1.625000e+02
1.750000e+02
1.875000e+02
2.000000e+02
0.000000e+00
0.000000e+00
0.000000e+00
0.000000e+00
0.000000e+00
0.000000e+00
0.000000e+00
0.000000e+00
0.000000e+00
0.000000e+00
0.000000e+00
0.000000e+00
0.000000e+00
0.000000e+00
0.000000e+00
0.000000e+00
0.000000e+00
1.250000e+01
1.250000e+01
1.250000e+01
1.250000e+01
1.250000e+01
1.250000e+01
1.250000e+01
1.250000e+01
1.250000e+01
1.250000e+01
1.250000e+01
1.250000e+01
1.250000e+01
1.250000e+01
1.250000e+01
1.250000e+01
1.250000e+01
2.500000e+01
2.500000e+01
2.500000e+01
2.500000e+01
2.500000e+01
2.500000e+01
2.500000e+01
2.500000e+01
2.500000e+01
2.500000e+01
2.500000e+01
2.500000e+01
2.500000e+01
2.500000e+01
2.500000e+01
2.500000e+01
2.500000e+01
3.750000e+01
3.750000e+01
3.750000e+01
3.750000e+01
3.750000e+01
3.750000e+01
3.750000e+01
3.750000e+01
3.750000e+01
3.750000e+01
3.750000e+01
3.750000e+01
3.750000e+01
3.750000e+01
3.750000e+01
3.750000e+01
3.750000e+01
5.000000e+01
5.000000e+01
5.000000e+01
5.000000e+01
5.000000e+01
5.000000e+01
5.000000e+01
5.000000e+01
5.000000e+01
5.000000e+01
5.000000e+01
5.000000e+01
5.000000e+01
5.000000e+01
5.000000e+01
5.000000e+01
5.000000e+01
6.250000e+01
6.250000e+01
6.250000e+01
6.250000e+01
6.250000e+01
6.250000e+01
6.250000e+01
6.250000e+01
6.250000e+01
6.250000e+01
6.250000e+01
6.250000e+01
6.250000e+01
6.250000e+01
6.250000e+01
6.250000e+01
6.250000e+01
7.500000e+01
7.500000e+01
7.500000e+01
7.500000e+01
7.500000e+01
7.500000e+01
7.500000e+01
7.500000e+01
7.500000e+01
7.500000e+01
7.500000e+01
7.500000e+01
7.500000e+01
7.500000e+01
7.500000e+01
7.500000e+01
7.500000e+01
8.750000e+01
8.750000e+01
8.750000e+01
8.750000e+01
8.750000e+01
8.750000e+01
8.750000e+01
8.750000e+01
8.750000e+01
8.750000e+01
8.750000e+01
8.750000e+01
8.750000e+01
8.750000e+01
8.750000e+01
8.750000e+01
8.750000e+01
1.000000e+02
1.000000e+02
1.000000e+02
1.000000e+02
1.000000e+02
1.000000e+02
1.000000e+02
1.000000e+02
1.000000e+02
1.000000e+02
1.000000e+02
1.000000e+02
1.000000e+02
1.000000e+02
1.000000e+02
1.000000e+02
1.000000e+02
0.000000e+00
-9.603383e-01
-1.649140e+00
-2.377329e+00
-3.059293e+00
-3.712883e+00
-4.396611e+00
-5.055781e+00
-5.709851e+00
-6.371881e+00
-7.031104e+00
-7.688929e+00
-8.394170e+00
-9.174887e+00
-1.001319e+01
-1.074151e+01
-1.119395e+01
0.000000e+00
-4.468733e-01
-9.209062e-01
-1.426799e+00
-1.942179e+00
-2.428906e+00
-2.940482e+00
-3.442186e+00
-3.934864e+00
-4.437581e+00
-4.935113e+00
-5.425065e+00
-5.926180e+00
-6.435491e+00
-6.838155e+00
-6.943570e+00
-7.118093e+00
0.000000e+00
-1.713645e-01
-3.955843e-01
-6.947082e-01
-1.035233e+00
-1.363198e+00
-1.714552e+00
-2.062364e+00
-2.405980e+00
-2.753818e+00
-3.090361e+00
-3.406675e+00
-3.687896e+00
-3.900363e+00
-3.978961e+00
-3.965162e+00
-4.116003e+00
0.000000e+00
-8.252545e-02
-1.733968e-01
-3.170863e-01
-4.642567e-01
-6.358719e-01
-8.100507e-01
-9.820477e-01
-1.154843e+00
-1.319482e+00
-1.471938e+00
-1.595574e+00
-1.665770e+00
-1.660190e+00
-1.590704e+00
-1.580416e+00
-1.706375e+00
0.000000e+00
-2.305354e-03
-4.851155e-03
-7.085610e-03
-8.810695e-03
-9.065333e-03
-6.416768e-03
4.827150e-04
1.388364e-02
3.716993e-02
7.356733e-02
1.322134e-01
2.216772e-01
3.389317e-01
4.491993e-01
4.734372e-01
3.712362e-01
0.000000e+00
7.857643e-02
1.655995e-01
3.048348e-01
4.486370e-01
6.192974e-01
7.972085e-01
9.804760e-01
1.177727e+00
1.383445e+00
1.603257e+00
1.830582e+00
2.047792e+00
2.236163e+00
2.364022e+00
2.392269e+00
2.328124e+00
0.000000e+00
1.697394e-01
3.924999e-01
6.893803e-01
1.027052e+00
1.354389e+00
1.706072e+00
2.058994e+00
2.417967e+00
2.788775e+00
3.159714e+00
3.529684e+00
3.862781e+00
4.121736e+00
4.285638e+00
4.340445e+00
4.321964e+00
0.000000e+00
4.465990e-01
9.215443e-01
1.426924e+00
1.940391e+00
2.427688e+00
2.936043e+00
3.431758e+00
3.921715e+00
4.410142e+00
4.886062e+00
5.359835e+00
5.793887e+00
6.124240e+00
6.330088e+00
6.419790e+00
6.435850e+00
0.000000e+00
9.608193e-01
1.652676e+00
2.382790e+00
3.065510e+00
3.723037e+00
4.405686e+00
5.054367e+00
5.697429e+00
6.322558e+00
6.923636e+00
7.518069e+00
8.046852e+00
8.421147e+00
8.614776e+00
8.666911e+00
8.667382e+00
0.000000e+00
-5.978146e-01
-1.302500e+00
-2.244917e+00
-3.357572e+00
-4.639547e+00
-6.103497e+00
-7.731015e+00
-9.529344e+00
-1.150065e+01
-1.363660e+01
-1.594087e+01
-1.843484e+01
-2.113899e+01
-2.407684e+01
-2.744008e+01
-3.243976e+01
0.000000e+00
-3.955711e-01
-1.134402e+00
-2.061380e+00
-3.185995e+00
-4.464296e+00
-5.926779e+00
-7.559302e+00
-9.356382e+00
-1.132825e+01
-1.346717e+01
-1.577055e+01
-1.825470e+01
-2.096030e+01
-2.394765e+01
-2.734894e+01
-3.141631e+01
0.000000e+00
-3.614352e-01
-1.032327e+00
-1.953330e+00
-3.064903e+00
-4.340612e+00
-5.802562e+00
-7.434876e+00
-9.234618e+00
-1.121019e+01
-1.335799e+01
-1.567331e+01
-1.817132e+01
-2.090286e+01
-2.394033e+01
-2.718730e+01
-3.021001e+01
0.000000e+00
-4.053958e-01
-1.020539e+00
-1.917990e+00
-2.998665e+00
-4.273260e+00
-5.732922e+00
-7.364422e+00
-9.171753e+00
-1.115471e+01
-1.331813e+01
-1.565897e+01
-1.817957e+01
-2.090876e+01
-2.388203e+01
-2.687144e+01
-2.945743e+01
0.000000e+00
-4.148057e-01
-1.034512e+00
-1.904453e+00
-2.985182e+00
-4.255831e+00
-5.717081e+00
-7.353647e+00
-9.167808e+00
-1.116092e+01
-1.333644e+01
-1.569730e+01
-1.822386e+01
-2.091215e+01
-2.373973e+01
-2.651185e+01
-2.885484e+01
0.000000e+00
-4.045509e-01
-1.021022e+00
-1.920906e+00
-3.005057e+00
-4.286305e+00
-5.755394e+00
-7.396918e+00
-9.221018e+00
-1.121934e+01
-1.339575e+01
-1.575573e+01
-1.827055e+01
-2.090507e+01
-2.360131e+01
-2.619876e+01
-2.842974e+01
0.000000e+00
-3.604352e-01
-1.033274e+00
-1.958267e+00
-3.075563e+00
-4.362760e+00
-5.840637e+00
-7.491540e+00
-9.318366e+00
-1.131928e+01
-1.348606e+01
-1.583041e+01
-1.832589e+01
-2.091248e+01
-2.351335e+01
-2.599827e+01
-2.821837e+01
0.000000e+00
-3.947390e-01
-1.135366e+00
-2.066508e+00
-3.197948e+00
-4.488657e+00
-5.969362e+00
-7.624255e+00
-9.450235e+00
-1.144994e+01
-1.360887e+01
-1.593705e+01
-1.841070e+01
-2.095716e+01
-2.349166e+01
-2.591149e+01
-2.816384e+01
0.000000e+00
-5.975039e-01
-1.303974e+00
-2.250061e+00
-3.370141e+00
-4.664513e+00
-6.145343e+00
-7.795210e+00
-9.620275e+00
-1.161385e+01
-1.376848e+01
-1.608750e+01
-1.853259e+01
-2.103366e+01
-2.351526e+01
-2.589591e+01
-2.816326e+01


0.000000e+00
1.483187e-05
2.483029e-05
3.693104e-05
5.220859e-05
6.552121e-05
7.977069e-05
9.439777e-05
1.081331e-04
1.228919e-04
1.372402e-04
1.515460e-04
1.677411e-04
1.793011e-04
1.852625e-04
1.895826e-04
1.954568e-04
0.000000e+00
1.095628e-05
1.972149e-05
2.850050e-05
4.103466e-05
5.157673e-05
6.174689e-05
7.284025e-05
8.308544e-05
9.360208e-05
1.034546e-04
1.131233e-04
1.233534e-04
1.288282e-04
1.284545e-04
1.317670e-04
1.372494e-04
0.000000e+00
9.053770e-06
1.514600e-05
2.091960e-05
2.992187e-05
3.687831e-05
4.332563e-05
5.060866e-05
5.686551e-05
6.297281e-05
6.825172e-05
7.271778e-05
7.646514e-05
7.690365e-05
7.600826e-05
7.848582e-05
8.299024e-05
0.000000e+00
4.897986e-06
7.179809e-06
1.078584e-05
1.493145e-05
1.770752e-05
2.125217e-05
2.436553e-05
2.673121e-05
2.903990e-05
3.025383e-05
3.007849e-05
2.887710e-05
2.757314e-05
2.811295e-05
3.144577e-05
3.671986e-05
0.000000e+00
-6.629630e-08
-1.658850e-07
-2.984913e-07
-4.732326e-07
-6.904725e-07
-9.756584e-07
-1.347338e-06
-1.910362e-06
-2.921346e-06
-4.644867e-06
-7.234216e-06
-1.001655e-05
-1.176754e-05
-1.115453e-05
-8.659229e-06
-5.120327e-06
0.000000e+00
-5.000117e-06
-7.436790e-06
-1.126848e-05
-1.569898e-05
-1.888405e-05
-2.281781e-05
-2.642777e-05
-2.952645e-05
-3.236520e-05
-3.510606e-05
-3.818925e-05
-4.125841e-05
-4.306054e-05
-4.422256e-05
-4.471669e-05
-4.371554e-05
0.000000e+00
-9.070052e-06
-1.520731e-05
-2.108138e-05
-3.031468e-05
-3.750012e-05
-4.412186e-05
-5.179339e-05
-5.786452e-05
-6.315352e-05
-6.816686e-05
-7.198344e-05
-7.488579e-05
-7.738720e-05
-7.937731e-05
-8.108302e-05
-8.168362e-05
0.000000e+00
-1.093241e-05
-1.967969e-05
-2.842495e-05
-4.102557e-05
-5.160154e-05
-6.168782e-05
-7.307898e-05
-8.314806e-05
-9.309790e-05
-1.033112e-04
-1.113189e-04
-1.161255e-04
-1.195341e-04
-1.216072e-04
-1.223930e-04
-1.225831e-04
0.000000e+00
-1.485622e-05
-2.481095e-05
-3.677342e-05
-5.189975e-05
-6.504532e-05
-7.890614e-05
-9.334228e-05
-1.070786e-04
-1.216535e-04
-1.378871e-04
-1.517900e-04
-1.609332e-04
-1.651257e-04
-1.662414e-04
-1.659529e-04
-1.656984e-04
0.000000e+00
1.231633e-05
1.988848e-05
3.184616e-05
4.718673e-05
6.383876e-05
8.526645e-05
1.106578e-04
1.394185e-04
1.728638e-04
2.101990e-04
2.526230e-04
3.004433e-04
3.506237e-04
4.085996e-04
4.748968e-04
5.427142e-04
0.000000e+00
7.320396e-06
1.579419e-05
2.582218e-05
4.079229e-05
5.803232e-05
7.903800e-05
1.045398e-04
1.334169e-04
1.667546e-04
2.043970e-04
2.465384e-04
2.948972e-04
3.477897e-04
4.047108e-04
4.682106e-04
5.332076e-04
0.000000e+00
3.894548e-06
1.177974e-05
2.107792e-05
3.533949e-05
5.320204e-05
7.440363e-05
9.976668e-05
1.290191e-04
1.626040e-04
2.003393e-04
2.428038e-04
2.918020e-04
3.467577e-04
4.011758e-04
4.607639e-04
5.231993e-04
0.000000e+00
2.623985e-06
9.657533e-06
1.905765e-05
3.313376e-05
5.116184e-05
7.255270e-05
9.809285e-05
1.275378e-04
1.611630e-04
1.991274e-04
2.415788e-04
2.911975e-04
3.458965e-04
3.987135e-04
4.528038e-04
5.094439e-04
0.000000e+00
2.201980e-06
9.072226e-06
1.855910e-05
3.260384e-05
5.058669e-05
7.201016e-05
9.763880e-05
1.272163e-04
1.607865e-04
1.986420e-04
2.417485e-04
2.914505e-04
3.463914e-04
3.978702e-04
4.465496e-04
4.955508e-04
0.000000e+00
2.703842e-06
9.777577e-06
1.918503e-05
3.323447e-05
5.121814e-05
7.245161e-05
9.790011e-05
1.273923e-04
1.607336e-04
1.990144e-04
2.433349e-04
2.935394e-04
3.469342e-04
3.983620e-04
4.446171e-04
4.870347e-04
0.000000e+00
4.007004e-06
1.197235e-05
2.129115e-05
3.552904e-05
5.328147e-05
7.416826e-05
9.937059e-05
1.283496e-04
1.616517e-04
2.007602e-04
2.464165e-04
2.966073e-04
3.481234e-04
3.977630e-04
4.433029e-04
4.847215e-04
0.000000e+00
7.426644e-06
1.600400e-05
2.609586e-05
4.104897e-05
5.813875e-05
7.887973e-05
1.040330e-04
1.323749e-04
1.655512e-04
2.049615e-04
2.502130e-04
2.992198e-04
3.491584e-04
3.972884e-04
4.424392e-04
4.851275e-04
0.000000e+00
1.242275e-05
2.008883e-05
3.212837e-05
4.747746e-05
6.394833e-05
8.516279e-05
1.102452e-04
1.383034e-04
1.717866e-04
2.111725e-04
2.544024e-04
3.014316e-04
3.497786e-04
3.972318e-04
4.421388e-04
4.854068e-04


4.157489e+00
4.185273e+00
4.354605e+00
3.913146e+00
3.618443e+00
3.778575e+00
3.900270e+00
4.131195e+00
4.500609e+00
4.927952e+00
5.546867e+00
6.655216e+00
7.894769e+00
8.400911e+00
7.528733e+00
6.366472e+00
6.438458e+00
6.442746e+00
6.424297e+00
6.188638e+00
5.945241e+00
6.049434e+00
6.123077e+00
6.231926e+00
6.461549e+00
6.688781e+00
7.023584e+00
7.613008e+00
8.275209e+00
8.276133e+00
6.919929e+00
5.247623e+00
8.491602e+00
8.450024e+00
8.451883e+00
8.291299e+00
8.229234e+00
8.258851e+00
8.257668e+00
8.282123e+00
8.327366e+00
8.367208e+00
8.366487e+00
8.389849e+00
8.409334e+00
8.024125e+00
6.632242e+00
5.161528e+00
9.122863e+00
9.108207e+00
9.098115e+00
9.051631e+00
9.034813e+00
9.030551e+00
9.011412e+00
8.987301e+00
8.941334e+00
8.832311e+00
8.564962e+00
8.089091e+00
7.726796e+00
7.497125e+00
7.012090e+00
6.484996e+00
9.121520e+00
9.105500e+00
9.093323e+00
9.042175e+00
9.021075e+00
9.010931e+00
8.980513e+00
8.939389e+00
8.839681e+00
8.600293e+00
8.116411e+00
7.409506e+00
6.998990e+00
7.230606e+00
7.667082e+00
7.846678e+00
8.483734e+00
8.438966e+00
8.427658e+00
8.245455e+00
8.161785e+00
8.162697e+00
8.124410e+00
8.087875e+00
7.942592e+00
7.713876e+00
7.486692e+00
7.211712e+00
7.253814e+00
7.781521e+00
8.403595e+00
8.725930e+00
6.422033e+00
6.424561e+00
6.390455e+00
6.122978e+00
5.850890e+00
5.912405e+00
5.950349e+00
5.989695e+00
6.023481e+00
6.217248e+00
6.804661e+00
7.505614e+00
8.055253e+00
8.574602e+00
8.940239e+00
9.098058e+00
4.135357e+00
4.172671e+00
4.335703e+00
3.873076e+00
3.564523e+00
3.699711e+00
3.814563e+00
4.054367e+00
4.358593e+00
5.075014e+00
6.445861e+00
7.757923e+00
8.546671e+00
8.948781e+00
9.138348e+00
9.213492e+00


-7.357466e-01
-2.036009e-01
-3.322176e-01
-2.581166e-01
-1.446059e-01
-2.550271e-01
-1.880115e-01
-1.623623e-01
-2.011299e-01
-1.864616e-01
-1.693356e-01
-2.859860e-01
-4.522492e-01
-3.143941e-01
3.864435e-01
-8.286569e-01
5.942118e-01
4.470841e-01
3.094982e-01
2.324152e-01
2.910525e-01
2.000546e-01
2.053964e-01
2.091896e-01
1.658781e-01
1.786387e-01
2.229312e-01
2.771371e-01
3.920426e-01
6.539598e-01
7.170448e-01
-1.067490e+00
7.658301e-01
5.479539e-01
2.634978e-01
2.015768e-01
1.795036e-01
1.201097e-01
1.351771e-01
1.425170e-01
1.505959e-01
1.868677e-01
2.577939e-01
3.543823e-01
4.086974e-01
2.590117e-01
5.427092e-02
-2.344790e-01
7.821689e-01
6.161378e-01
3.401268e-01
2.280924e-01
1.478421e-01
1.164829e-01
1.283077e-01
1.433322e-01
1.697822e-01
1.899238e-01
2.046300e-01
2.015409e-01
8.021045e-02
-2.457624e-01
-2.876220e-01
-3.310125e-02
7.841640e-01
6.184093e-01
3.436586e-01
2.298633e-01
1.438194e-01
1.025020e-01
1.027867e-01
9.437092e-02
1.007409e-01
9.524829e-02
6.294591e-02
2.685942e-02
-6.652694e-02
-2.014862e-01
-8.642903e-02
3.498758e-01
7.703476e-01
5.535873e-01
2.731804e-01
2.107258e-01
1.755970e-01
9.873721e-02
8.693944e-02
3.855578e-02
-3.789632e-03
-4.481277e-02
-1.191250e-01
-1.228758e-01
-6.012377e-02
6.296534e-02
3.539388e-01
7.571235e-01
5.973364e-01
4.483089e-01
3.135255e-01
2.383066e-01
2.855285e-01
1.907610e-01
1.792866e-01
1.359339e-01
5.896559e-02
5.695027e-03
-9.447141e-02
-6.655478e-02
1.501303e-01
4.289551e-01
7.352759e-01
9.533013e-01
-7.356128e-01
-2.115980e-01
-3.352317e-01
-2.562656e-01
-1.542078e-01
-2.481290e-01
-1.598958e-01
-1.434382e-01
-1.161282e-01
-6.170045e-02
-6.859679e-02
9.871158e-02
4.750905e-01
7.906965e-01
9.554536e-01
9.988740e-01
1 2 19 18
2 3 20 19
3 4 21 20
4 5 22 21
5 6 23 22
6 7 24 23
7 8 25 24
8 9 26 25
9 10 27 26
10 11 28 27
11 12 29 28
12 13 30 29
13 14 31 30
14 15 32 31
15 16 33 32
16 17 34 33
18 19 36 35
19 20 37 36
20 21 38 37
21 22 39 38
22 23 40 39
23 24 41 40
24 25 42 41
25 26 43 42
26 27 44 43
27 28 45 44
28 29 46 45
29 30 47 46
30 31 48 47
31 32 49 48
32 33 50 49
33 34 51 50
35 36 53 52
36 37 54 53
37 38 55 54
38 39 56 55
39 40 57 56
40 41 58 57
41 42 59 58
42 43 60 59
43 44 61 60
44 45 62 61
45 46 63 62
46 47 64 63
47 48 65 64
48 49 66 65
49 50 67 66
50 51 68 67
52 53 70 69
53 54 71 70
54 55 72 71
55 56 73 72
56 57 74 73
57 58 75 74
58 59 76 75
59 60 77 76
60 61 78 77
61 62 79 78
62 63 80 79
63 64 81 80
64 65 82 81
65 66 83 82
66 67 84 83
67 68 85 84
69 70 87 86
70 71 88 87
71 72 89 88
72 73 90 89
73 74 91 90
74 75 92 91
75 76 93 92
76 77 94 93
77 78 95 94
78 79 96 95
79 80 97 96
80 81 98 97
81 82 99 98
82 83 100 99
83 84 101 100
84 85 102 101
86 87 104 103
87 88 105 104
88 89 106 105
89 90 107 106
90 91 108 107
91 92 109 108
92 93 110 109
93 94 111 110
94 95 112 111
95 96 113 112
96 97 114 113
97 98 115 114
98 99 116 115
99 100 117 116
100 101 118 117
101 102 119 118
103 104 121 120
104 105 122 121
105 106 123 122
106 107 124 123
107 108 125 124
108 109 126 125
109 110 127 126
110 111 128 127
111 112 129 128
112 113 130 129
113 114 131 130
114 115 132 131
115 116 133 132
116 117 134 133
117 118 135 134
118 119 136 135
120 121 138 137
121 122 139 138
122 123 140 139
123 124 141 140
124 125 142 141
125 126 143 142
126 127 144 143
127 128 145 144
128 129 146 145
129 130 147 146
130 131 148 147
131 132 149 148
132 133 150 149
133 134 151 150
134 135 152 151
135 136 153 152
