TITLE = "Solution"
VARIABLES = x, y, u, v, psiu, psiv, t, stress
ZONE T="structure" N=153 E=128 F=FEBLOCK ET=QUADRILATERAL VARLOCATION=([7,8]=cellcentered)
0.000000e+00
1.250000e+01
2.500000e+01
3.750000e+01
5.000000e+01
6.250000e+01
7.500000e+01
8.750000e+01
1.000000e+02
1.125000e+02
1.250000e+02
1.375000e+02
1.500000e+02
1.625000e+02
1.750000e+02
1.875000e+02
2.000000e+02
0.000000e+00
1.250000e+01
2.500000e+01
3.750000e+01
5.000000e+01
6.250000e+01
7.500000e+01
8.750000e+01
1.000000e+02
1.125000e+02
1.250000e+02
1.375000e+02
1.500000e+02
1.625000e+02
1.750000e+02
1.875000e+02
2.000000e+02
0.000000e+00
1.250000e+01
2.500000e+01
3.750000e+01
5.000000e+01
6.250000e+01
7.500000e+01
8.750000e+01
1.000000e+02
1.125000e+02
1.250000e+02
1.375000e+02
1.500000e+02
1.625000e+02
1.750000e+02
1.875000e+02
2.000000e+02
0.000000e+00
1.250000e+01
2.500000e+01
3.750000e+01
5.000000e+01
6.250000e+01
7.500000e+01
8.750000e+01
1.000000e+02
1.125000e+02
1.250000e+02
1.375000e+02
1.500000e+02
1.625000e+02
1.750000e+02
1.875000e+02
2.000000e+02
0.000000e+00
1.250000e+01
2.500000e+01
3.750000e+01
5.000000e+01
6.250000e+01
7.500000e+01
8.750000e+01
1.000000e+02
1.125000e+02
1.250000e+02
1.375000e+02
1.500000e+02
1.625000e+02
1.750000e+02
1.875000e+02
2.000000e+02
0.000000e+00
1.250000e+01
2.500000e+01
3.750000e+01
5.000000e+01
6.250000e+01
7.500000e+01
8.750000e+01
1.000000e+02
1.125000e+02
1.250000e+02
1.375000e+02
1.500000e+02
1.625000e+02
1.750000e+02
1.875000e+02
2.000000e+02
0.000000e+00
1.250000e+01
2.500000e+01
3.750000e+01
5.000000e+01
6.250000e+01
7.500000e+01
8.750000e+01
1.000000e+02
1.125000e+02
1.250000e+02
1.375000e+02
1.500000e+02
1.625000e+02
1.750000e+02
1.875000e+02
2.000000e+02
0.000000e+00
1.250000e+01
2.500000e+01
3.750000e+01
5.000000e+01
6.250000e+01
7.500000e+01
8.750000e+01
1.000000e+02
1.125000e+02
1.250000e+02
1.375000e+02
1.500000e+02
1.625000e+02
1.750000e+02
1.875000e+02
2.000000e+02
0.000000e+00
1.250000e+01
2.500000e+01
3.750000e+01
5.000000e+01
6.250000e+01
7.500000e+01
8.750000e+01
1.000000e+02
1.125000e+02
1.250000e+02
1.375000e+02
1.500000e+02
1.625000e+02
1.750000e+02
1.875000e+02
2.000000e+02
0.000000e+00
0.000000e+00
0.000000e+00
0.000000e+00
0.000000e+00
0.000000e+00
0.000000e+00
0.000000e+00
0.000000e+00
0.000000e+00
0.000000e+00
0.000000e+00
0.000000e+00
0.000000e+00
0.000000e+00
0.000000e+00
0.000000e+00
1.250000e+01
1.250000e+01
1.250000e+01
1.250000e+01
1.250000e+01
1.250000e+01
1.250000e+01
1.250000e+01
1.250000e+01
1.250000e+01
1.250000e+01
1.250000e+01
1.250000e+01
1.250000e+01
1.250000e+01
1.250000e+01
1.250000e+01
2.500000e+01
2.500000e+01
2.500000e+01
2.500000e+01
2.500000e+01
2.500000e+01
2.500000e+01
2.500000e+01
2.500000e+01
2.500000e+01
2.500000e+01
2.500000e+01
2.500000e+01
2.500000e+01
2.500000e+01
2.500000e+01
2.500000e+01
3.750000e+01
3.750000e+01
3.750000e+01
3.750000e+01
3.750000e+01
3.750000e+01
3.750000e+01
3.750000e+01
3.750000e+01
3.750000e+01
3.750000e+01
3.750000e+01
3.750000e+01
3.750000e+01
3.750000e+01
3.750000e+01
3.750000e+01
5.000000e+01
5.000000e+01
5.000000e+01
5.000000e+01
5.000000e+01
5.000000e+01
5.000000e+01
5.000000e+01
5.000000e+01
5.000000e+01
5.000000e+01
5.000000e+01
5.000000e+01
5.000000e+01
5.000000e+01
5.000000e+01
5.000000e+01
6.250000e+01
6.250000e+01
6.250000e+01
6.250000e+01
6.250000e+01
6.250000e+01
6.250000e+01
6.250000e+01
6.250000e+01
6.250000e+01
6.250000e+01
6.250000e+01
6.250000e+01
6.250000e+01
6.250000e+01
6.250000e+01
6.250000e+01
7.500000e+01
7.500000e+01
7.500000e+01
7.500000e+01
7.500000e+01
7.500000e+01
7.500000e+01
7.500000e+01
7.500000e+01
7.500000e+01
7.500000e+01
7.500000e+01
7.500000e+01
7.500000e+01
7.500000e+01
7.500000e+01
7.500000e+01
8.750000e+01
8.750000e+01
8.750000e+01
8.750000e+01
8.750000e+01
8.750000e+01
8.750000e+01
8.750000e+01
8.750000e+01
8.750000e+01
8.750000e+01
8.750000e+01
8.750000e+01
8.750000e+01
8.750000e+01
8.750000e+01
8.750000e+01
1.000000e+02
1.000000e+02
1.000000e+02
1.000000e+02
1.000000e+02
1.000000e+02
1.000000e+02
1.000000e+02
1.000000e+02
1.000000e+02
1.000000e+02
1.000000e+02
1.000000e+02
1.000000e+02
1.000000e+02
1.000000e+02
1.000000e+02
0.000000e+00
-8.078675e-01
-1.473450e+00
-2.115000e+00
-2.765578e+00
-3.407016e+00
-4.036308e+00
-4.652291e+00
-5.247117e+00
-5.810275e+00
-6.333785e+00
-6.816326e+00
-7.266918e+00
-7.708504e+00
-8.181091e+00
-8.732063e+00
-9.132367e+00
0.000000e+00
-4.560280e-01
-9.497480e-01
-1.431928e+00
-1.920081e+00
-2.400927e+00
-2.871920e+00
-3.332639e+00
-3.777444e+00
-4.197797e+00
-4.585525e+00
-4.934667e+00
-5.241038e+00
-5.496351e+00
-5.673291e+00
-5.712254e+00
-5.839641e+00
0.000000e+00
-2.660074e-01
-5.566638e-01
-8.735713e-01
-1.199148e+00
-1.521456e+00
-1.837513e+00
-2.144955e+00
-2.438694e+00
-2.711588e+00
-2.955363e+00
-3.160772e+00
-3.316252e+00
-3.405325e+00
-3.411060e+00
-3.380491e+00
-3.512296e+00
0.000000e+00
-1.219262e-01
-2.586165e-01
-4.123470e-01
-5.744424e-01
-7.364845e-01
-8.952586e-01
-1.047779e+00
-1.190041e+00
-1.316690e+00
-1.420939e+00
-1.494728e+00
-1.529618e+00
-1.521179e+00
-1.486868e+00
-1.494653e+00
-1.595849e+00
0.000000e+00
-4.294971e-04
-9.166019e-04
-1.385278e-03
-1.688933e-03
-1.527981e-03
-3.175308e-04
3.010038e-03
1.025025e-02
2.412556e-02
4.822523e-02
8.620349e-02
1.391993e-01
1.996109e-01
2.422433e-01
2.332088e-01
1.642683e-01
0.000000e+00
1.212077e-01
2.570622e-01
4.099440e-01
5.713910e-01
7.334603e-01
8.938565e-01
1.051263e+00
1.204479e+00
1.352448e+00
1.494240e+00
1.628337e+00
1.750402e+00
1.849720e+00
1.909027e+00
1.914835e+00
1.879289e+00
0.000000e+00
2.656632e-01
5.558687e-01
8.722200e-01
1.197178e+00
1.518973e+00
1.834947e+00
2.143234e+00
2.439439e+00
2.717452e+00
2.970664e+00
3.192556e+00
3.376246e+00
3.513691e+00
3.596805e+00
3.624065e+00
3.615818e+00
0.000000e+00
4.561417e-01
9.499161e-01
1.432077e+00
1.920062e+00
2.400472e+00
2.870534e+00
3.329050e+00
3.768451e+00
4.176671e+00
4.540419e+00
4.847652e+00
5.089303e+00
5.260710e+00
5.363459e+00
5.407359e+00
5.415455e+00
0.000000e+00
8.082169e-01
1.474378e+00
2.116695e+00
2.768213e+00
3.410700e+00
4.040881e+00
4.656287e+00
5.245417e+00
5.790408e+00
6.271101e+00
6.668250e+00
6.966557e+00
7.158726e+00
7.251833e+00
7.274649e+00
7.274105e+00
0.000000e+00
-4.950563e-01
-1.007158e+00
-1.684922e+00
-2.523342e+00
-3.523989e+00
-4.688106e+00
-6.012859e+00
-7.491119e+00
-9.112914e+00
-1.086671e+01
-1.274204e+01
-1.473459e+01
-1.685642e+01
-1.917098e+01
-2.187981e+01
-2.592727e+01
0.000000e+00
-3.095060e-01
-8.426374e-01
-1.515561e+00
-2.354036e+00
-3.357548e+00
-4.525125e+00
-5.854576e+00
-7.340198e+00
-8.972283e+00
-1.073851e+01
-1.262702e+01
-1.463199e+01
-1.676571e+01
-1.908444e+01
-2.177918e+01
-2.515252e+01
0.000000e+00
-2.450758e-01
-7.313363e-01
-1.398541e+00
-2.234761e+00
-3.239649e+00
-4.410378e+00
-5.744628e+00
-7.237359e+00
-8.879487e+00
-1.065896e+01
-1.256400e+01
-1.458917e+01
-1.674490e+01
-1.906921e+01
-2.160280e+01
-2.402892e+01
0.000000e+00
-2.286408e-01
-6.819475e-01
-1.332885e+00
-2.165313e+00
-3.170344e+00
-4.344008e+00
-5.683282e+00
-7.183297e+00
-8.835572e+00
-1.062849e+01
-1.254987e+01
-1.459109e+01
-1.675005e+01
-1.901850e+01
-2.130940e+01
-2.336952e+01
0.000000e+00
-2.267124e-01
-6.690449e-01
-1.313172e+00
-2.143182e+00
-3.148808e+00
-4.324826e+00
-5.668204e+00
-7.174330e+00
-8.835061e+00
-1.063842e+01
-1.256978e+01
-1.461306e+01
-1.674752e+01
-1.892854e+01
-2.105622e+01
-2.296235e+01
0.000000e+00
-2.284322e-01
-6.818630e-01
-1.333299e+00
-2.166790e+00
-3.173817e+00
-4.351025e+00
-5.696275e+00
-7.205624e+00
-8.870922e+00
-1.067896e+01
-1.261134e+01
-1.464355e+01
-1.674039e+01
-1.884675e+01
-2.087947e+01
-2.272994e+01
0.000000e+00
-2.447280e-01
-7.311760e-01
-1.399170e+00
-2.237127e+00
-3.245325e+00
-4.421984e+00
-5.766306e+00
-7.274864e+00
-8.939206e+00
-1.074475e+01
-1.266981e+01
-1.468383e+01
-1.674464e+01
-1.879691e+01
-2.077752e+01
-2.262647e+01
0.000000e+00
-3.091561e-01
-8.424608e-01
-1.516251e+00
-2.356691e+00
-3.363994e+00
-4.538376e+00
-5.879340e+00
-7.382928e+00
-9.040000e+00
-1.083517e+01
-1.274537e+01
-1.473781e+01
-1.676847e+01
-1.878425e+01
-2.073510e+01
-2.260231e+01
0.000000e+00
-4.948208e-01
-1.007097e+00
-1.685758e+00
-2.526190e+00
-3.530694e+00
-4.701620e+00
-6.037527e+00
-7.532452e+00
-9.176157e+00
-1.095297e+01
-1.284005e+01
-1.480536e+01
-1.680664e+01
-1.879475e+01
-2.072730e+01
-2.260279e+01


0.000000e+00
8.662545e-06
1.723653e-05
2.518169e-05
3.305793e-05
4.051688e-05
4.709564e-05
5.257393e-05
5.687464e-05
6.003985e-05
6.223826e-05
6.371263e-05
6.472234e-05
6.551984e-05
6.632376e-05
6.748530e-05
6.902973e-05
0.000000e+00
6.347150e-06
1.386390e-05
1.991165e-05
2.584219e-05
3.147582e-05
3.636948e-05
4.034571e-05
4.338231e-05
4.553136e-05
4.693819e-05
4.778941e-05
4.823472e-05
4.837162e-05
4.852211e-05
4.946093e-05
5.105591e-05
0.000000e+00
4.736887e-06
9.683944e-06
1.381164e-05
1.781797e-05
2.148976e-05
2.464186e-05
2.718527e-05
2.910490e-05
3.043054e-05
3.124945e-05
3.167680e-05
3.182457e-05
3.183482e-05
3.198716e-05
3.275197e-05
3.403835e-05
0.000000e+00
2.363028e-06
4.527549e-06
6.777462e-06
8.815115e-06
1.060629e-05
1.214254e-05
1.339866e-05
1.434978e-05
1.500064e-05
1.538680e-05
1.557090e-05
1.564409e-05
1.572733e-05
1.592531e-05
1.636785e-05
1.709561e-05
0.000000e+00
-4.908207e-09
-1.038508e-08
-1.629424e-08
-2.301815e-08
-3.184017e-08
-4.568219e-08
-6.876167e-08
-1.047941e-07
-1.541422e-07
-2.103873e-07
-2.554667e-07
-2.569318e-07
-1.847410e-07
-6.016255e-08
1.128522e-07
4.323690e-07
0.000000e+00
-2.371861e-06
-4.545613e-06
-6.806284e-06
-8.855960e-06
-1.066167e-05
-1.221830e-05
-1.350567e-05
-1.450401e-05
-1.522088e-05
-1.568857e-05
-1.595409e-05
-1.606861e-05
-1.608881e-05
-1.608400e-05
-1.606429e-05
-1.594922e-05
0.000000e+00
-4.741579e-06
-9.695408e-06
-1.383211e-05
-1.785078e-05
-2.153729e-05
-2.470219e-05
-2.724876e-05
-2.915834e-05
-3.046850e-05
-3.128472e-05
-3.174582e-05
-3.198393e-05
-3.210590e-05
-3.218207e-05
-3.222101e-05
-3.219294e-05
0.000000e+00
-6.348079e-06
-1.386847e-05
-1.992170e-05
-2.586292e-05
-3.151189e-05
-3.641535e-05
-4.037455e-05
-4.335113e-05
-4.540509e-05
-4.671140e-05
-4.749377e-05
-4.794738e-05
-4.820988e-05
-4.836246e-05
-4.843721e-05
-4.844882e-05
0.000000e+00
-8.665776e-06
-1.723919e-05
-2.518378e-05
-3.306236e-05
-4.052625e-05
-4.710215e-05
-5.254751e-05
-5.676620e-05
-5.980355e-05
-6.184830e-05
-6.315474e-05
-6.395636e-05
-6.442631e-05
-6.467452e-05
-6.476970e-05
-6.478577e-05
0.000000e+00
7.636434e-06
1.317660e-05
1.970362e-05
2.820956e-05
3.835765e-05
4.996349e-05
6.288390e-05
7.688302e-05
9.171665e-05
1.071891e-04
1.231493e-04
1.395173e-04
1.564465e-04
1.748364e-04
1.953667e-04
2.164553e-04
0.000000e+00
3.919948e-06
9.601661e-06
1.619198e-05
2.474264e-05
3.517777e-05
4.726951e-05
6.074015e-05
7.529023e-05
9.061829e-05
1.064828e-04
1.227223e-04
1.392687e-04
1.562038e-04
1.738934e-04
1.933537e-04
2.138261e-04
0.000000e+00
1.708385e-06
6.769157e-06
1.361850e-05
2.226606e-05
3.293151e-05
4.536948e-05
5.923167e-05
7.417032e-05
8.985441e-05
1.060128e-04
1.224728e-04
1.391561e-04
1.560061e-04
1.729518e-04
1.912214e-04
2.107489e-04
0.000000e+00
9.787500e-07
5.493067e-06
1.236531e-05
2.117564e-05
3.196463e-05
4.452763e-05
5.853744e-05
7.363699e-05
8.948276e-05
1.057883e-04
1.223590e-04
1.390748e-04
1.558031e-04
1.724207e-04
1.898326e-04
2.082266e-04
0.000000e+00
8.383620e-07
5.144030e-06
1.195303e-05
2.085266e-05
3.168616e-05
4.428168e-05
5.833274e-05
7.348313e-05
8.938251e-05
1.057352e-04
1.223284e-04
1.390171e-04
1.556759e-04
1.722479e-04
1.892085e-04
2.065985e-04
0.000000e+00
9.797678e-07
5.492779e-06
1.236210e-05
2.116919e-05
3.195860e-05
4.453038e-05
5.855897e-05
7.368346e-05
8.955224e-05
1.058667e-04
1.224117e-04
1.390434e-04
1.556637e-04
1.722548e-04
1.889799e-04
2.057388e-04
0.000000e+00
1.709784e-06
6.768846e-06
1.361409e-05
2.225697e-05
3.292413e-05
4.537837e-05
5.927470e-05
7.425924e-05
8.998775e-05
1.061705e-04
1.226024e-04
1.391487e-04
1.557243e-04
1.722963e-04
1.888818e-04
2.053607e-04
0.000000e+00
3.922464e-06
9.604086e-06
1.619200e-05
2.474056e-05
3.517963e-05
4.728790e-05
6.079066e-05
7.538538e-05
9.076149e-05
1.066609e-04
1.228895e-04
1.393049e-04
1.558079e-04
1.723351e-04
1.888389e-04
2.052400e-04
0.000000e+00
7.641282e-06
1.318254e-05
1.971007e-05
2.821810e-05
3.837203e-05
4.998781e-05
6.292209e-05
7.694223e-05
9.180659e-05
1.073093e-04
1.232650e-04
1.395094e-04
1.559123e-04
1.723798e-04
1.888357e-04
2.052224e-04


2.138052e+00
2.107392e+00
2.243520e+00
2.469101e+00
2.663280e+00
2.887850e+00
3.148483e+00
3.410117e+00
3.642470e+00
3.827798e+00
3.960159e+00
4.041455e+00
4.062458e+00
3.969092e+00
3.770058e+00
3.616214e+00
2.614440e+00
2.581842e+00
2.673604e+00
2.839529e+00
2.984923e+00
3.156835e+00
3.359327e+00
3.564127e+00
3.747323e+00
3.894210e+00
3.999011e+00
4.062011e+00
4.071731e+00
3.972722e+00
3.777896e+00
3.629241e+00
3.346911e+00
3.319262e+00
3.357611e+00
3.434422e+00
3.503353e+00
3.592507e+00
3.700088e+00
3.811025e+00
3.912377e+00
3.994857e+00
4.053728e+00
4.087853e+00
4.086840e+00
4.006079e+00
3.853327e+00
3.740829e+00
3.826464e+00
3.807385e+00
3.811142e+00
3.828006e+00
3.850737e+00
3.884428e+00
3.926721e+00
3.972467e+00
4.016385e+00
4.053403e+00
4.080337e+00
4.096282e+00
4.095581e+00
4.053658e+00
3.972683e+00
3.913057e+00
3.826435e+00
3.807289e+00
3.810880e+00
3.827425e+00
3.849645e+00
3.882617e+00
3.923948e+00
3.968409e+00
4.010738e+00
4.046236e+00
4.072570e+00
4.090408e+00
4.099199e+00
4.090384e+00
4.064025e+00
4.043641e+00
3.346613e+00
3.318742e+00
3.356598e+00
3.432593e+00
3.500486e+00
3.588638e+00
3.695279e+00
3.804863e+00
3.903895e+00
3.983448e+00
4.040676e+00
4.078719e+00
4.102588e+00
4.113848e+00
4.114883e+00
4.113157e+00
2.613558e+00
2.580587e+00
2.671631e+00
2.836618e+00
2.981407e+00
3.153946e+00
3.358547e+00
3.565784e+00
3.749911e+00
3.895512e+00
3.998541e+00
4.064922e+00
4.104970e+00
4.127512e+00
4.138741e+00
4.143091e+00
2.136690e+00
2.105585e+00
2.240938e+00
2.465700e+00
2.659930e+00
2.886812e+00
3.152432e+00
3.420114e+00
3.656800e+00
3.843102e+00
3.974267e+00
4.057836e+00
4.107004e+00
4.134128e+00
4.147831e+00
4.153515e+00


-4.082267e-01
-1.829066e-01
-1.066346e-01
-1.368031e-01
-1.057781e-01
-6.435867e-02
-2.034411e-02
4.775716e-02
1.472875e-01
2.684285e-01
3.924939e-01
5.003971e-01
5.808077e-01
6.337083e-01
6.884984e-01
-2.895852e-01
5.173076e-01
4.054112e-01
3.887368e-01
3.651335e-01
3.748810e-01
3.917875e-01
4.122547e-01
4.483190e-01
5.064763e-01
5.852381e-01
6.780479e-01
7.766105e-01
8.716631e-01
9.394873e-01
8.140589e-01
-9.239863e-01
8.334428e-01
7.522275e-01
6.904474e-01
6.635451e-01
6.575374e-01
6.575399e-01
6.619877e-01
6.749896e-01
7.001290e-01
7.378710e-01
7.835388e-01
8.244246e-01
8.342006e-01
7.595684e-01
5.024187e-01
4.530473e-02
9.444938e-01
8.813065e-01
8.282488e-01
7.993268e-01
7.864291e-01
7.784459e-01
7.711810e-01
7.643453e-01
7.591397e-01
7.554832e-01
7.490233e-01
7.289774e-01
6.801011e-01
6.008951e-01
5.451040e-01
5.381327e-01
9.448999e-01
8.818338e-01
8.287564e-01
7.993657e-01
7.851591e-01
7.743987e-01
7.618338e-01
7.457846e-01
7.261689e-01
7.028711e-01
6.750466e-01
6.429397e-01
6.150383e-01
6.196419e-01
6.896553e-01
8.066612e-01
8.343595e-01
7.534590e-01
6.917325e-01
6.640639e-01
6.556579e-01
6.502943e-01
6.442305e-01
6.386973e-01
6.344313e-01
6.310334e-01
6.290620e-01
6.343256e-01
6.618289e-01
7.289719e-01
8.325200e-01
9.395018e-01
5.179077e-01
4.062808e-01
3.897155e-01
3.659946e-01
3.748116e-01
3.892067e-01
4.047898e-01
4.328968e-01
4.790876e-01
5.405702e-01
6.105629e-01
6.845714e-01
7.643617e-01
8.526170e-01
9.365478e-01
9.894554e-01
-4.089209e-01
-1.841196e-01
-1.080517e-01
-1.383549e-01
-1.071971e-01
-6.494576e-02
-1.677925e-02
6.420861e-02
1.915406e-01
3.586057e-01
5.440853e-01
7.198598e-01
8.598389e-01
9.489679e-01
9.900081e-01
9.997931e-01
1 2 19 18
2 3 20 19
3 4 21 20
4 5 22 21
5 6 23 22
6 7 24 23
7 8 25 24
8 9 26 25
9 10 27 26
10 11 28 27
11 12 29 28
12 13 30 29
13 14 31 30
14 15 32 31
15 16 33 32
16 17 34 33
18 19 36 35
19 20 37 36
20 21 38 37
21 22 39 38
22 23 40 39
23 24 41 40
24 25 42 41
25 26 43 42
26 27 44 43
27 28 45 44
28 29 46 45
29 30 47 46
30 31 48 47
31 32 49 48
32 33 50 49
33 34 51 50
35 36 53 52
36 37 54 53
37 38 55 54
38 39 56 55
39 40 57 56
40 41 58 57
41 42 59 58
42 43 60 59
43 44 61 60
44 45 62 61
45 46 63 62
46 47 64 63
47 48 65 64
48 49 66 65
49 50 67 66
50 51 68 67
52 53 70 69
53 54 71 70
54 55 72 71
55 56 73 72
56 57 74 73
57 58 75 74
58 59 76 75
59 60 77 76
60 61 78 77
61 62 79 78
62 63 80 79
63 64 81 80
64 65 82 81
65 66 83 82
66 67 84 83
67 68 85 84
69 70 87 86
70 71 88 87
71 72 89 88
72 73 90 89
73 74 91 90
74 75 92 91
75 76 93 92
76 77 94 93
77 78 95 94
78 79 96 95
79 80 97 96
80 81 98 97
81 82 99 98
82 83 100 99
83 84 101 100
84 85 102 101
86 87 104 103
87 88 105 104
88 89 106 105
89 90 107 106
90 91 108 107
91 92 109 108
92 93 110 109
93 94 111 110
94 95 112 111
95 96 113 112
96 97 114 113
97 98 115 114
98 99 116 115
99 100 117 116
100 101 118 117
101 102 119 118
103 104 121 120
104 105 122 121
105 106 123 122
106 107 124 123
107 108 125 124
108 109 126 125
109 110 127 126
110 111 128 127
111 112 129 128
112 113 130 129
113 114 131 130
114 115 132 131
115 116 133 132
116 117 134 133
117 118 135 134
118 119 136 135
120 121 138 137
121 122 139 138
122 123 140 139
123 124 141 140
124 125 142 141
125 126 143 142
126 127 144 143
127 128 145 144
128 129 146 145
129 130 147 146
130 131 148 147
131 132 149 148
132 133 150 149
133 134 151 150
134 135 152 151
135 136 153 152
