TITLE = "Solution"
VARIABLES = x, y, u, v, psiu, psiv, t, stress
ZONE T="structure" N=153 E=128 F=FEBLOCK ET=QUADRILATERAL VARLOCATION=([7,8]=cellcentered)
0.000000e+00
1.250000e+01
2.500000e+01
3.750000e+01
5.000000e+01
6.250000e+01
7.500000e+01
8.750000e+01
1.000000e+02
1.125000e+02
1.250000e+02
1.375000e+02
1.500000e+02
1.625000e+02
1.750000e+02
1.875000e+02
2.000000e+02
0.000000e+00
1.250000e+01
2.500000e+01
3.750000e+01
5.000000e+01
6.250000e+01
7.500000e+01
8.750000e+01
1.000000e+02
1.125000e+02
1.250000e+02
1.375000e+02
1.500000e+02
1.625000e+02
1.750000e+02
1.875000e+02
2.000000e+02
0.000000e+00
1.250000e+01
2.500000e+01
3.750000e+01
5.000000e+01
6.250000e+01
7.500000e+01
8.750000e+01
1.000000e+02
1.125000e+02
1.250000e+02
1.375000e+02
1.500000e+02
1.625000e+02
1.750000e+02
1.875000e+02
2.000000e+02
0.000000e+00
1.250000e+01
2.500000e+01
3.750000e+01
5.000000e+01
6.250000e+01
7.500000e+01
8.750000e+01
1.000000e+02
1.125000e+02
1.250000e+02
1.375000e+02
1.500000e+02
1.625000e+02
1.750000e+02
1.875000e+02
2.000000e+02
0.000000e+00
1.250000e+01
2.500000e+01
3.750000e+01
5.000000e+01
6.250000e+01
7.500000e+01
8.750000e+01
1.000000e+02
1.125000e+02
1.250000e+02
1.375000e+02
1.500000e+02
1.625000e+02
1.750000e+02
1.875000e+02
2.000000e+02
0.000000e+00
1.250000e+01
2.500000e+01
3.750000e+01
5.000000e+01
6.250000e+01
7.500000e+01
8.750000e+01
1.000000e+02
1.125000e+02
1.250000e+02
1.375000e+02
1.500000e+02
1.625000e+02
1.750000e+02
1.875000e+02
2.000000e+02
0.000000e+00
1.250000e+01
2.500000e+01
3.750000e+01
5.000000e+01
6.250000e+01
7.500000e+01
8.750000e+01
1.000000e+02
1.125000e+02
1.250000e+02
1.375000e+02
1.500000e+02
1.625000e+02
1.750000e+02
1.875000e+02
2.000000e+02
0.000000e+00
1.250000e+01
2.500000e+01
3.750000e+01
5.000000e+01
6.250000e+01
7.500000e+01
8.750000e+01
1.000000e+02
1.125000e+02
1.250000e+02
1.375000e+02
1.500000e+02
1.625000e+02
1.750000e+02
1.875000e+02
2.000000e+02
0.000000e+00
1.250000e+01
2.500000e+01
3.750000e+01
5.000000e+01
6.250000e+01
7.500000e+01
8.750000e+01
1.000000e+02
1.125000e+02
1.250000e+02
1.375000e+02
1.500000e+02
1.625000e+02
1.750000e+02
1.875000e+02
2.000000e+02
0.000000e+00
0.000000e+00
0.000000e+00
0.000000e+00
0.000000e+00
0.000000e+00
0.000000e+00
0.000000e+00
0.000000e+00
0.000000e+00
0.000000e+00
0.000000e+00
0.000000e+00
0.000000e+00
0.000000e+00
0.000000e+00
0.000000e+00
1.250000e+01
1.250000e+01
1.250000e+01
1.250000e+01
1.250000e+01
1.250000e+01
1.250000e+01
1.250000e+01
1.250000e+01
1.250000e+01
1.250000e+01
1.250000e+01
1.250000e+01
1.250000e+01
1.250000e+01
1.250000e+01
1.250000e+01
2.500000e+01
2.500000e+01
2.500000e+01
2.500000e+01
2.500000e+01
2.500000e+01
2.500000e+01
2.500000e+01
2.500000e+01
2.500000e+01
2.500000e+01
2.500000e+01
2.500000e+01
2.500000e+01
2.500000e+01
2.500000e+01
2.500000e+01
3.750000e+01
3.750000e+01
3.750000e+01
3.750000e+01
3.750000e+01
3.750000e+01
3.750000e+01
3.750000e+01
3.750000e+01
3.750000e+01
3.750000e+01
3.750000e+01
3.750000e+01
3.750000e+01
3.750000e+01
3.750000e+01
3.750000e+01
5.000000e+01
5.000000e+01
5.000000e+01
5.000000e+01
5.000000e+01
5.000000e+01
5.000000e+01
5.000000e+01
5.000000e+01
5.000000e+01
5.000000e+01
5.000000e+01
5.000000e+01
5.000000e+01
5.000000e+01
5.000000e+01
5.000000e+01
6.250000e+01
6.250000e+01
6.250000e+01
6.250000e+01
6.250000e+01
6.250000e+01
6.250000e+01
6.250000e+01
6.250000e+01
6.250000e+01
6.250000e+01
6.250000e+01
6.250000e+01
6.250000e+01
6.250000e+01
6.250000e+01
6.250000e+01
7.500000e+01
7.500000e+01
7.500000e+01
7.500000e+01
7.500000e+01
7.500000e+01
7.500000e+01
7.500000e+01
7.500000e+01
7.500000e+01
7.500000e+01
7.500000e+01
7.500000e+01
7.500000e+01
7.500000e+01
7.500000e+01
7.500000e+01
8.750000e+01
8.750000e+01
8.750000e+01
8.750000e+01
8.750000e+01
8.750000e+01
8.750000e+01
8.750000e+01
8.750000e+01
8.750000e+01
8.750000e+01
8.750000e+01
8.750000e+01
8.750000e+01
8.750000e+01
8.750000e+01
8.750000e+01
1.000000e+02
1.000000e+02
1.000000e+02
1.000000e+02
1.000000e+02
1.000000e+02
1.000000e+02
1.000000e+02
1.000000e+02
1.000000e+02
1.000000e+02
1.000000e+02
1.000000e+02
1.000000e+02
1.000000e+02
1.000000e+02
1.000000e+02
0.000000e+00
-9.966193e-01
-1.679956e+00
-2.432925e+00
-3.119852e+00
-3.753234e+00
-4.461642e+00
-5.090160e+00
-5.766075e+00
-6.407160e+00
-7.056982e+00
-7.723291e+00
-8.376392e+00
-9.146972e+00
-1.007557e+01
-1.083313e+01
-1.128429e+01
0.000000e+00
-4.460403e-01
-9.062913e-01
-1.418806e+00
-1.930260e+00
-2.409920e+00
-2.923543e+00
-3.421447e+00
-3.916937e+00
-4.419416e+00
-4.912099e+00
-5.415235e+00
-5.900418e+00
-6.420990e+00
-6.897297e+00
-7.023631e+00
-7.202662e+00
0.000000e+00
-1.455105e-01
-3.475841e-01
-6.375446e-01
-9.746868e-01
-1.299012e+00
-1.651509e+00
-2.008473e+00
-2.351569e+00
-2.714022e+00
-3.052943e+00
-3.388098e+00
-3.683932e+00
-3.924016e+00
-4.034523e+00
-4.033381e+00
-4.181491e+00
0.000000e+00
-7.817226e-02
-1.604434e-01
-3.067976e-01
-4.509057e-01
-6.230940e-01
-8.084074e-01
-9.728086e-01
-1.159715e+00
-1.320718e+00
-1.481662e+00
-1.621229e+00
-1.717124e+00
-1.726707e+00
-1.653529e+00
-1.632607e+00
-1.749730e+00
0.000000e+00
-2.622459e-03
-5.916539e-03
-8.748190e-03
-1.169517e-02
-1.328081e-02
-1.104433e-02
-6.019477e-03
4.019402e-03
2.161212e-02
4.564155e-02
8.894376e-02
1.688118e-01
2.788009e-01
3.956908e-01
4.369528e-01
3.381015e-01
0.000000e+00
7.360126e-02
1.513976e-01
2.910957e-01
4.293307e-01
5.999870e-01
7.845999e-01
9.613627e-01
1.171448e+00
1.362463e+00
1.574175e+00
1.788051e+00
2.013152e+00
2.220425e+00
2.352749e+00
2.383709e+00
2.316945e+00
0.000000e+00
1.439105e-01
3.443939e-01
6.295274e-01
9.613546e-01
1.282101e+00
1.631763e+00
1.993108e+00
2.358038e+00
2.769198e+00
3.150229e+00
3.509419e+00
3.837709e+00
4.116802e+00
4.294090e+00
4.348373e+00
4.324964e+00
0.000000e+00
4.449466e-01
9.088450e-01
1.419670e+00
1.929080e+00
2.410520e+00
2.918100e+00
3.413066e+00
3.901100e+00
4.391669e+00
4.875746e+00
5.348428e+00
5.765853e+00
6.116127e+00
6.335079e+00
6.432095e+00
6.450029e+00
0.000000e+00
9.947362e-01
1.685866e+00
2.442016e+00
3.130329e+00
3.776567e+00
4.481678e+00
5.106833e+00
5.754597e+00
6.328422e+00
6.901577e+00
7.502688e+00
8.019912e+00
8.436487e+00
8.638759e+00
8.692062e+00
8.692777e+00
0.000000e+00
-6.190175e-01
-1.362838e+00
-2.365849e+00
-3.542553e+00
-4.889589e+00
-6.425909e+00
-8.117566e+00
-9.983966e+00
-1.201282e+01
-1.420186e+01
-1.655504e+01
-1.906977e+01
-2.180099e+01
-2.476433e+01
-2.812175e+01
-3.314056e+01
0.000000e+00
-4.161178e-01
-1.194444e+00
-2.179497e+00
-3.373420e+00
-4.715447e+00
-6.248302e+00
-7.949175e+00
-9.807772e+00
-1.184558e+01
-1.402971e+01
-1.638768e+01
-1.889669e+01
-2.160813e+01
-2.462418e+01
-2.803853e+01
-3.208631e+01
0.000000e+00
-3.906628e-01
-1.092664e+00
-2.076144e+00
-3.254246e+00
-4.589240e+00
-6.128506e+00
-7.819393e+00
-9.689391e+00
-1.172436e+01
-1.391972e+01
-1.628877e+01
-1.880818e+01
-2.154459e+01
-2.461368e+01
-2.788819e+01
-3.091889e+01
0.000000e+00
-4.496976e-01
-1.089104e+00
-2.049888e+00
-3.191308e+00
-4.518324e+00
-6.065972e+00
-7.742888e+00
-9.633763e+00
-1.166764e+01
-1.388486e+01
-1.627184e+01
-1.881792e+01
-2.155385e+01
-2.454191e+01
-2.758022e+01
-3.020616e+01
0.000000e+00
-4.562789e-01
-1.111505e+00
-2.034275e+00
-3.175875e+00
-4.507710e+00
-6.042365e+00
-7.742355e+00
-9.626486e+00
-1.168259e+01
-1.391506e+01
-1.630530e+01
-1.885880e+01
-2.155535e+01
-2.438793e+01
-2.721014e+01
-2.959885e+01
0.000000e+00
-4.470020e-01
-1.088416e+00
-2.051741e+00
-3.195179e+00
-4.534705e+00
-6.091371e+00
-7.783090e+00
-9.692387e+00
-1.175083e+01
-1.398850e+01
-1.635822e+01
-1.888635e+01
-2.154613e+01
-2.425240e+01
-2.688542e+01
-2.915495e+01
0.000000e+00
-3.868837e-01
-1.091081e+00
-2.078244e+00
-3.262425e+00
-4.615681e+00
-6.175051e+00
-7.897442e+00
-9.801980e+00
-1.187008e+01
-1.407510e+01
-1.642618e+01
-1.892181e+01
-2.154494e+01
-2.417064e+01
-2.667723e+01
-2.891879e+01
0.000000e+00
-4.125768e-01
-1.192112e+00
-2.181121e+00
-3.382939e+00
-4.742918e+00
-6.302319e+00
-8.040256e+00
-9.942188e+00
-1.200912e+01
-1.418943e+01
-1.652464e+01
-1.899738e+01
-2.158446e+01
-2.415065e+01
-2.658960e+01
-2.885679e+01
0.000000e+00
-6.166764e-01
-1.361570e+00
-2.367443e+00
-3.553492e+00
-4.918336e+00
-6.480215e+00
-8.208307e+00
-1.011348e+01
-1.216403e+01
-1.434456e+01
-1.667163e+01
-1.911968e+01
-2.166640e+01
-2.417567e+01
-2.657489e+01
-2.885537e+01


0.000000e+00
1.533617e-05
2.483208e-05
3.689636e-05
5.244840e-05
6.537416e-05
8.091367e-05
9.491650e-05
1.101974e-04
1.248269e-04
1.406471e-04
1.554166e-04
1.720054e-04
1.877640e-04
1.975342e-04
2.031351e-04
2.101327e-04
0.000000e+00
1.149189e-05
1.983250e-05
2.864154e-05
4.139530e-05
5.234399e-05
6.281597e-05
7.423651e-05
8.447248e-05
9.552934e-05
1.057258e-04
1.156775e-04
1.263326e-04
1.356870e-04
1.373305e-04
1.410582e-04
1.469149e-04
0.000000e+00
9.750646e-06
1.558654e-05
2.140145e-05
3.092269e-05
3.842694e-05
4.483582e-05
5.257921e-05
5.834274e-05
6.491066e-05
7.016003e-05
7.478732e-05
7.873345e-05
8.065716e-05
8.001860e-05
8.248039e-05
8.678150e-05
0.000000e+00
5.448983e-06
7.507132e-06
1.113633e-05
1.589324e-05
1.818640e-05
2.252888e-05
2.478556e-05
2.759326e-05
2.897038e-05
3.078369e-05
2.985919e-05
2.830538e-05
2.649297e-05
2.663365e-05
3.000298e-05
3.571255e-05
0.000000e+00
-9.344162e-08
-2.361699e-07
-4.364501e-07
-6.866030e-07
-9.891299e-07
-1.373165e-06
-1.799327e-06
-2.702075e-06
-4.226496e-06
-7.546560e-06
-1.192404e-05
-1.479306e-05
-1.577803e-05
-1.541088e-05
-1.307586e-05
-8.969011e-06
0.000000e+00
-5.577628e-06
-7.862139e-06
-1.179742e-05
-1.704158e-05
-1.993869e-05
-2.472115e-05
-2.793952e-05
-3.106091e-05
-3.326013e-05
-3.715891e-05
-4.247956e-05
-4.666781e-05
-4.780757e-05
-4.843277e-05
-4.900948e-05
-4.740861e-05
0.000000e+00
-9.757283e-06
-1.560128e-05
-2.154967e-05
-3.150838e-05
-3.923923e-05
-4.618092e-05
-5.427721e-05
-5.947188e-05
-6.422269e-05
-6.862591e-05
-7.330491e-05
-7.721635e-05
-7.999201e-05
-8.218220e-05
-8.420717e-05
-8.498156e-05
0.000000e+00
-1.145301e-05
-1.975782e-05
-2.851165e-05
-4.140157e-05
-5.228562e-05
-6.286657e-05
-7.455418e-05
-8.458685e-05
-9.513810e-05
-1.054642e-04
-1.127648e-04
-1.175683e-04
-1.223621e-04
-1.256828e-04
-1.268935e-04
-1.270245e-04
0.000000e+00
-1.538881e-05
-2.487184e-05
-3.673000e-05
-5.207159e-05
-6.475271e-05
-7.961705e-05
-9.367453e-05
-1.085170e-04
-1.244210e-04
-1.426041e-04
-1.573053e-04
-1.654114e-04
-1.703838e-04
-1.725677e-04
-1.726401e-04
-1.724135e-04
0.000000e+00
1.263967e-05
1.992062e-05
3.199034e-05
4.735975e-05
6.363075e-05
8.503223e-05
1.098486e-04
1.391003e-04
1.729942e-04
2.119864e-04
2.561851e-04
3.069008e-04
3.618481e-04
4.236044e-04
4.942698e-04
5.675307e-04
0.000000e+00
7.725129e-06
1.603213e-05
2.590525e-05
4.096280e-05
5.775475e-05
7.858519e-05
1.038334e-04
1.327276e-04
1.668523e-04
2.057311e-04
2.501065e-04
3.004358e-04
3.569789e-04
4.183659e-04
4.867969e-04
5.570146e-04
0.000000e+00
4.276985e-06
1.205534e-05
2.107755e-05
3.508822e-05
5.280126e-05
7.354658e-05
9.895492e-05
1.279965e-04
1.621526e-04
2.013750e-04
2.460291e-04
2.970412e-04
3.549766e-04
4.142871e-04
4.793110e-04
5.471784e-04
0.000000e+00
2.944902e-06
9.974048e-06
1.892681e-05
3.290423e-05
5.054604e-05
7.184446e-05
9.710422e-05
1.265435e-04
1.600327e-04
1.994909e-04
2.453477e-04
2.971216e-04
3.541323e-04
4.116941e-04
4.713858e-04
5.329615e-04
0.000000e+00
2.439546e-06
9.415704e-06
1.846946e-05
3.236645e-05
5.001607e-05
7.121927e-05
9.674580e-05
1.261423e-04
1.589224e-04
1.983273e-04
2.463444e-04
2.982784e-04
3.544408e-04
4.106754e-04
4.647637e-04
5.166499e-04
0.000000e+00
3.059069e-06
1.015073e-05
1.909343e-05
3.304435e-05
5.056718e-05
7.154670e-05
9.679693e-05
1.260038e-04
1.583625e-04
1.991093e-04
2.489999e-04
3.008663e-04
3.544801e-04
4.105998e-04
4.623689e-04
5.055889e-04
0.000000e+00
4.427821e-06
1.232980e-05
2.137592e-05
3.539250e-05
5.273631e-05
7.305074e-05
9.789575e-05
1.262024e-04
1.595639e-04
2.016625e-04
2.524873e-04
3.042223e-04
3.560461e-04
4.095777e-04
4.597907e-04
5.022781e-04
0.000000e+00
7.847364e-06
1.632593e-05
2.631330e-05
4.131496e-05
5.782974e-05
7.812972e-05
1.025756e-04
1.302829e-04
1.641372e-04
2.060479e-04
2.555231e-04
3.070415e-04
3.579955e-04
4.094755e-04
4.579276e-04
5.028157e-04
0.000000e+00
1.276762e-05
2.020118e-05
3.240395e-05
4.773390e-05
6.370834e-05
8.466360e-05
1.086990e-04
1.366076e-04
1.709010e-04
2.125396e-04
2.591745e-04
3.087979e-04
3.593577e-04
4.096242e-04
4.574540e-04
5.031167e-04


5.684214e+00
6.143494e+00
6.868992e+00
5.949071e+00
5.802042e+00
6.699920e+00
6.553061e+00
6.548314e+00
6.035203e+00
5.931255e+00
6.286030e+00
7.158388e+00
8.856601e+00
9.832860e+00
9.154021e+00
8.002832e+00
8.088094e+00
8.463683e+00
8.663226e+00
8.359020e+00
8.269561e+00
8.560350e+00
8.735109e+00
8.469488e+00
8.435528e+00
8.276616e+00
8.421324e+00
8.846102e+00
9.512732e+00
9.844238e+00
8.400964e+00
6.461892e+00
9.844368e+00
9.824334e+00
1.000000e+01
9.838436e+00
9.836698e+00
9.978563e+00
9.836314e+00
9.955349e+00
9.849444e+00
9.883654e+00
9.897609e+00
9.878246e+00
9.895419e+00
9.433770e+00
8.057956e+00
6.222935e+00
1.000000e+01
1.000000e+01
1.000000e+01
1.000000e+01
1.000000e+01
1.000000e+01
1.000000e+01
1.000000e+01
1.000000e+01
1.000000e+01
1.000000e+01
9.491400e+00
8.834974e+00
8.414006e+00
8.091778e+00
7.997579e+00
1.000000e+01
1.000000e+01
1.000000e+01
1.000000e+01
1.000000e+01
1.000000e+01
1.000000e+01
1.000000e+01
1.000000e+01
9.971818e+00
9.379182e+00
8.669608e+00
7.765763e+00
7.778123e+00
8.696494e+00
9.222696e+00
9.836174e+00
9.824532e+00
1.000000e+01
9.837153e+00
9.838540e+00
9.914596e+00
9.836667e+00
1.000000e+01
9.733286e+00
9.174318e+00
8.508924e+00
7.994327e+00
8.327920e+00
8.791443e+00
9.452455e+00
1.000000e+01
8.038744e+00
8.440556e+00
8.658873e+00
8.358552e+00
8.019683e+00
8.178190e+00
8.659967e+00
8.693341e+00
8.583960e+00
8.013399e+00
7.798141e+00
8.565245e+00
9.367624e+00
9.881169e+00
1.000000e+01
1.000000e+01
5.562242e+00
6.094279e+00
6.854368e+00
5.857328e+00
5.292900e+00
5.811606e+00
6.394371e+00
7.199238e+00
6.947973e+00
7.182017e+00
8.223450e+00
9.098650e+00
1.000000e+01
1.000000e+01
1.000000e+01
1.000000e+01


-8.207096e-01
-1.673922e-01
-3.989946e-01
-2.599532e-01
-9.267653e-02
-3.077412e-01
-1.221586e-01
-2.088898e-01
-1.597588e-01
-1.579845e-01
-2.121445e-01
-1.504537e-01
-4.644040e-01
-6.804690e-01
3.141002e-01
-8.564548e-01
6.113203e-01
4.826185e-01
2.961838e-01
2.262846e-01
2.915130e-01
1.673364e-01
1.725067e-01
1.708953e-01
1.059100e-01
1.463603e-01
1.267615e-01
2.427259e-01
3.048362e-01
5.108808e-01
6.977321e-01
-9.223351e-01
7.229853e-01
4.717063e-01
5.603066e-02
-2.381017e-02
-3.873141e-02
-1.972095e-01
-9.072496e-02
-1.487823e-01
-8.239957e-02
-1.987061e-02
3.613426e-02
1.870650e-01
2.857178e-01
1.504006e-01
-2.740424e-02
-1.554704e-01
7.278835e-01
5.548184e-01
1.897345e-01
5.805353e-02
-2.699388e-02
-1.128862e-01
-2.665351e-02
-7.134587e-02
1.286726e-02
1.686161e-02
7.168775e-02
1.212018e-01
7.255692e-02
-2.582510e-01
-4.079834e-01
-9.231388e-02
7.312304e-01
5.573214e-01
1.949591e-01
6.244110e-02
-3.552202e-02
-1.264066e-01
-5.773457e-02
-1.105084e-01
-4.530849e-02
-4.961520e-02
2.782071e-02
5.496483e-03
-3.658732e-02
-1.131815e-01
-1.147058e-01
2.934780e-01
7.307665e-01
4.782088e-01
7.225720e-02
-6.680000e-03
-5.573485e-02
-2.229225e-01
-1.720215e-01
-2.856549e-01
-2.376868e-01
-1.370205e-01
-6.574506e-02
-1.010706e-01
-1.388087e-01
4.848353e-02
3.329357e-01
7.217290e-01
6.170007e-01
4.818118e-01
3.083651e-01
2.396410e-01
2.900052e-01
1.691144e-01
1.369722e-01
8.173008e-02
-7.475927e-02
-6.593953e-02
-7.869459e-02
-3.009193e-02
3.209046e-02
3.574362e-01
7.090021e-01
9.466773e-01
-8.119572e-01
-1.898086e-01
-4.018045e-01
-2.589605e-01
-1.207086e-01
-2.904911e-01
-1.141262e-01
-1.492570e-01
-3.115056e-02
-3.214475e-02
-8.640851e-02
1.413652e-01
3.737973e-01
7.694756e-01
9.521805e-01
9.986789e-01
1 2 19 18
2 3 20 19
3 4 21 20
4 5 22 21
5 6 23 22
6 7 24 23
7 8 25 24
8 9 26 25
9 10 27 26
10 11 28 27
11 12 29 28
12 13 30 29
13 14 31 30
14 15 32 31
15 16 33 32
16 17 34 33
18 19 36 35
19 20 37 36
20 21 38 37
21 22 39 38
22 23 40 39
23 24 41 40
24 25 42 41
25 26 43 42
26 27 44 43
27 28 45 44
28 29 46 45
29 30 47 46
30 31 48 47
31 32 49 48
32 33 50 49
33 34 51 50
35 36 53 52
36 37 54 53
37 38 55 54
38 39 56 55
39 40 57 56
40 41 58 57
41 42 59 58
42 43 60 59
43 44 61 60
44 45 62 61
45 46 63 62
46 47 64 63
47 48 65 64
48 49 66 65
49 50 67 66
50 51 68 67
52 53 70 69
53 54 71 70
54 55 72 71
55 56 73 72
56 57 74 73
57 58 75 74
58 59 76 75
59 60 77 76
60 61 78 77
61 62 79 78
62 63 80 79
63 64 81 80
64 65 82 81
65 66 83 82
66 67 84 83
67 68 85 84
69 70 87 86
70 71 88 87
71 72 89 88
72 73 90 89
73 74 91 90
74 75 92 91
75 76 93 92
76 77 94 93
77 78 95 94
78 79 96 95
79 80 97 96
80 81 98 97
81 82 99 98
82 83 100 99
83 84 101 100
84 85 102 101
86 87 104 103
87 88 105 104
88 89 106 105
89 90 107 106
90 91 108 107
91 92 109 108
92 93 110 109
93 94 111 110
94 95 112 111
95 96 113 112
96 97 114 113
97 98 115 114
98 99 116 115
99 100 117 116
100 101 118 117
101 102 119 118
103 104 121 120
104 105 122 121
105 106 123 122
106 107 124 123
107 108 125 124
108 109 126 125
109 110 127 126
110 111 128 127
111 112 129 128
112 113 130 129
113 114 131 130
114 115 132 131
115 116 133 132
116 117 134 133
117 118 135 134
118 119 136 135
120 121 138 137
121 122 139 138
122 123 140 139
123 124 141 140
124 125 142 141
125 126 143 142
126 127 144 143
127 128 145 144
128 129 146 145
129 130 147 146
130 131 148 147
131 132 149 148
132 133 150 149
133 134 151 150
134 135 152 151
135 136 153 152
