TITLE = "Solution"
VARIABLES = x, y, u, v, psiu, psiv, t, stress
ZONE T="structure" N=153 E=128 F=FEBLOCK ET=QUADRILATERAL VARLOCATION=([7,8]=cellcentered)
0.000000e+00
1.250000e+01
2.500000e+01
3.750000e+01
5.000000e+01
6.250000e+01
7.500000e+01
8.750000e+01
1.000000e+02
1.125000e+02
1.250000e+02
1.375000e+02
1.500000e+02
1.625000e+02
1.750000e+02
1.875000e+02
2.000000e+02
0.000000e+00
1.250000e+01
2.500000e+01
3.750000e+01
5.000000e+01
6.250000e+01
7.500000e+01
8.750000e+01
1.000000e+02
1.125000e+02
1.250000e+02
1.375000e+02
1.500000e+02
1.625000e+02
1.750000e+02
1.875000e+02
2.000000e+02
0.000000e+00
1.250000e+01
2.500000e+01
3.750000e+01
5.000000e+01
6.250000e+01
7.500000e+01
8.750000e+01
1.000000e+02
1.125000e+02
1.250000e+02
1.375000e+02
1.500000e+02
1.625000e+02
1.750000e+02
1.875000e+02
2.000000e+02
0.000000e+00
1.250000e+01
2.500000e+01
3.750000e+01
5.000000e+01
6.250000e+01
7.500000e+01
8.750000e+01
1.000000e+02
1.125000e+02
1.250000e+02
1.375000e+02
1.500000e+02
1.625000e+02
1.750000e+02
1.875000e+02
2.000000e+02
0.000000e+00
1.250000e+01
2.500000e+01
3.750000e+01
5.000000e+01
6.250000e+01
7.500000e+01
8.750000e+01
1.000000e+02
1.125000e+02
1.250000e+02
1.375000e+02
1.500000e+02
1.625000e+02
1.750000e+02
1.875000e+02
2.000000e+02
0.000000e+00
1.250000e+01
2.500000e+01
3.750000e+01
5.000000e+01
6.250000e+01
7.500000e+01
8.750000e+01
1.000000e+02
1.125000e+02
1.250000e+02
1.375000e+02
1.500000e+02
1.625000e+02
1.750000e+02
1.875000e+02
2.000000e+02
0.000000e+00
1.250000e+01
2.500000e+01
3.750000e+01
5.000000e+01
6.250000e+01
7.500000e+01
8.750000e+01
1.000000e+02
1.125000e+02
1.250000e+02
1.375000e+02
1.500000e+02
1.625000e+02
1.750000e+02
1.875000e+02
2.000000e+02
0.000000e+00
1.250000e+01
2.500000e+01
3.750000e+01
5.000000e+01
6.250000e+01
7.500000e+01
8.750000e+01
1.000000e+02
1.125000e+02
1.250000e+02
1.375000e+02
1.500000e+02
1.625000e+02
1.750000e+02
1.875000e+02
2.000000e+02
0.000000e+00
1.250000e+01
2.500000e+01
3.750000e+01
5.000000e+01
6.250000e+01
7.500000e+01
8.750000e+01
1.000000e+02
1.125000e+02
1.250000e+02
1.375000e+02
1.500000e+02
1.625000e+02
1.750000e+02
1.875000e+02
2.000000e+02
0.000000e+00
0.000000e+00
0.000000e+00
0.000000e+00
0.000000e+00
0.000000e+00
0.000000e+00
0.000000e+00
0.000000e+00
0.000000e+00
0.000000e+00
0.000000e+00
0.000000e+00
0.000000e+00
0.000000e+00
0.000000e+00
0.000000e+00
1.250000e+01
1.250000e+01
1.250000e+01
1.250000e+01
1.250000e+01
1.250000e+01
1.250000e+01
1.250000e+01
1.250000e+01
1.250000e+01
1.250000e+01
1.250000e+01
1.250000e+01
1.250000e+01
1.250000e+01
1.250000e+01
1.250000e+01
2.500000e+01
2.500000e+01
2.500000e+01
2.500000e+01
2.500000e+01
2.500000e+01
2.500000e+01
2.500000e+01
2.500000e+01
2.500000e+01
2.500000e+01
2.500000e+01
2.500000e+01
2.500000e+01
2.500000e+01
2.500000e+01
2.500000e+01
3.750000e+01
3.750000e+01
3.750000e+01
3.750000e+01
3.750000e+01
3.750000e+01
3.750000e+01
3.750000e+01
3.750000e+01
3.750000e+01
3.750000e+01
3.750000e+01
3.750000e+01
3.750000e+01
3.750000e+01
3.750000e+01
3.750000e+01
5.000000e+01
5.000000e+01
5.000000e+01
5.000000e+01
5.000000e+01
5.000000e+01
5.000000e+01
5.000000e+01
5.000000e+01
5.000000e+01
5.000000e+01
5.000000e+01
5.000000e+01
5.000000e+01
5.000000e+01
5.000000e+01
5.000000e+01
6.250000e+01
6.250000e+01
6.250000e+01
6.250000e+01
6.250000e+01
6.250000e+01
6.250000e+01
6.250000e+01
6.250000e+01
6.250000e+01
6.250000e+01
6.250000e+01
6.250000e+01
6.250000e+01
6.250000e+01
6.250000e+01
6.250000e+01
7.500000e+01
7.500000e+01
7.500000e+01
7.500000e+01
7.500000e+01
7.500000e+01
7.500000e+01
7.500000e+01
7.500000e+01
7.500000e+01
7.500000e+01
7.500000e+01
7.500000e+01
7.500000e+01
7.500000e+01
7.500000e+01
7.500000e+01
8.750000e+01
8.750000e+01
8.750000e+01
8.750000e+01
8.750000e+01
8.750000e+01
8.750000e+01
8.750000e+01
8.750000e+01
8.750000e+01
8.750000e+01
8.750000e+01
8.750000e+01
8.750000e+01
8.750000e+01
8.750000e+01
8.750000e+01
1.000000e+02
1.000000e+02
1.000000e+02
1.000000e+02
1.000000e+02
1.000000e+02
1.000000e+02
1.000000e+02
1.000000e+02
1.000000e+02
1.000000e+02
1.000000e+02
1.000000e+02
1.000000e+02
1.000000e+02
1.000000e+02
1.000000e+02
0.000000e+00
-5.223857e-02
-1.450919e-01
-2.178338e-01
-2.526049e-01
-2.781200e-01
-3.035984e-01
-3.243605e-01
-3.402371e-01
-3.555142e-01
-3.807906e-01
-5.375104e-01
-7.464948e-01
-7.975347e-01
-8.365414e-01
-8.734526e-01
-8.966381e-01
0.000000e+00
-3.138320e-02
-9.420274e-02
-1.546991e-01
-1.822372e-01
-2.024199e-01
-2.205749e-01
-2.366316e-01
-2.507057e-01
-2.642032e-01
-2.850303e-01
-3.986130e-01
-5.350182e-01
-5.595355e-01
-5.682672e-01
-5.678675e-01
-5.715762e-01
0.000000e+00
-2.218153e-02
-5.469560e-02
-9.141663e-02
-1.152853e-01
-1.316743e-01
-1.447283e-01
-1.580325e-01
-1.730931e-01
-1.915486e-01
-2.154397e-01
-2.566694e-01
-3.180015e-01
-3.307638e-01
-3.242552e-01
-3.144395e-01
-3.263818e-01
0.000000e+00
-1.264915e-02
-2.504913e-02
-3.728280e-02
-5.199693e-02
-6.427092e-02
-7.452327e-02
-8.595871e-02
-1.007131e-01
-1.169626e-01
-1.307802e-01
-1.441622e-01
-1.622932e-01
-1.693021e-01
-1.734185e-01
-1.890806e-01
-2.209277e-01
0.000000e+00
-3.212120e-03
-4.862265e-03
-5.738309e-03
-5.244224e-03
-6.676471e-03
-9.747247e-03
-1.412960e-02
-2.091578e-02
-2.804512e-02
-3.338592e-02
-3.862443e-02
-4.945126e-02
-6.167509e-02
-6.847645e-02
-7.594312e-02
-8.317029e-02
0.000000e+00
6.772794e-03
1.319368e-02
1.891395e-02
2.630717e-02
3.717805e-02
4.538286e-02
5.326842e-02
6.079519e-02
6.431131e-02
6.608345e-02
6.744003e-02
6.709531e-02
6.496369e-02
6.304103e-02
6.105560e-02
5.880862e-02
0.000000e+00
1.826252e-02
3.771585e-02
5.878313e-02
8.216645e-02
1.017612e-01
1.149485e-01
1.280189e-01
1.449410e-01
1.580235e-01
1.666854e-01
1.748692e-01
1.872501e-01
1.980674e-01
2.015726e-01
2.024098e-01
2.015615e-01
0.000000e+00
3.455688e-02
7.364630e-02
1.143006e-01
1.499733e-01
1.768364e-01
1.980701e-01
2.187993e-01
2.410190e-01
2.596237e-01
2.738693e-01
2.876885e-01
3.067231e-01
3.294426e-01
3.405229e-01
3.444233e-01
3.448380e-01
0.000000e+00
6.183429e-02
1.192242e-01
1.757156e-01
2.226355e-01
2.570066e-01
2.860164e-01
3.143748e-01
3.420807e-01
3.670634e-01
3.890388e-01
4.121960e-01
4.408143e-01
4.704002e-01
4.852361e-01
4.900517e-01
4.905784e-01
0.000000e+00
-3.506798e-02
-8.623329e-02
-1.419196e-01
-2.089767e-01
-2.857009e-01
-3.693769e-01
-4.586302e-01
-5.518783e-01
-6.481613e-01
-7.524263e-01
-9.122117e-01
-1.030306e+00
-1.228303e+00
-1.465505e+00
-1.749037e+00
-2.109855e+00
0.000000e+00
-1.951214e-02
-6.382156e-02
-1.285011e-01
-2.011347e-01
-2.792134e-01
-3.632807e-01
-4.534448e-01
-5.477230e-01
-6.440501e-01
-7.426708e-01
-8.695686e-01
-1.017928e+00
-1.222039e+00
-1.457672e+00
-1.740763e+00
-2.078540e+00
0.000000e+00
-1.452878e-02
-5.143263e-02
-1.160806e-01
-1.936875e-01
-2.744533e-01
-3.588430e-01
-4.483862e-01
-5.433516e-01
-6.420412e-01
-7.445996e-01
-8.676081e-01
-1.021718e+00
-1.224404e+00
-1.448567e+00
-1.716133e+00
-1.994092e+00
0.000000e+00
-1.439404e-02
-4.796471e-02
-1.049243e-01
-1.853407e-01
-2.709579e-01
-3.550566e-01
-4.433864e-01
-5.393368e-01
-6.418487e-01
-7.499573e-01
-8.712892e-01
-1.027814e+00
-1.226744e+00
-1.415168e+00
-1.598975e+00
-1.755841e+00
0.000000e+00
-1.576251e-02
-4.816555e-02
-9.823351e-02
-1.748865e-01
-2.685088e-01
-3.515417e-01
-4.392768e-01
-5.373836e-01
-6.428691e-01
-7.538076e-01
-8.754286e-01
-1.029537e+00
-1.216176e+00
-1.380041e+00
-1.538506e+00
-1.685741e+00
0.000000e+00
-1.565492e-02
-4.879192e-02
-9.812407e-02
-1.725653e-01
-2.638001e-01
-3.489433e-01
-4.380519e-01
-5.391969e-01
-6.464470e-01
-7.582704e-01
-8.800055e-01
-1.031379e+00
-1.207385e+00
-1.368544e+00
-1.524535e+00
-1.672423e+00
0.000000e+00
-1.616462e-02
-5.114570e-02
-1.043220e-01
-1.788477e-01
-2.638653e-01
-3.500728e-01
-4.418765e-01
-5.435448e-01
-6.509437e-01
-7.636415e-01
-8.863597e-01
-1.034093e+00
-1.203186e+00
-1.363755e+00
-1.518952e+00
-1.666616e+00
0.000000e+00
-2.081707e-02
-5.956772e-02
-1.152287e-01
-1.874607e-01
-2.684328e-01
-3.546043e-01
-4.479502e-01
-5.488827e-01
-6.553863e-01
-7.687454e-01
-8.933597e-01
-1.038118e+00
-1.202742e+00
-1.362128e+00
-1.516337e+00
-1.663881e+00
0.000000e+00
-3.512080e-02
-7.407590e-02
-1.294241e-01
-1.981533e-01
-2.762815e-01
-3.619103e-01
-4.555812e-01
-5.558675e-01
-6.613024e-01
-7.745401e-01
-9.004749e-01
-1.045364e+00
-1.206502e+00
-1.363469e+00
-1.515864e+00
-1.663367e+00


0.000000e+00
5.759836e-05
2.840448e-05
-1.440027e-04
-1.883326e-04
-1.946129e-04
-2.102404e-04
-2.185619e-04
-2.188360e-04
-2.176165e-04
-2.174230e-04
-2.291220e-04
-2.422458e-04
-2.409691e-04
-2.394979e-04
-2.388640e-04
-2.387333e-04
0.000000e+00
5.195852e-05
1.680239e-05
-1.350126e-04
-1.705146e-04
-1.688354e-04
-1.784384e-04
-1.870261e-04
-1.857011e-04
-1.833694e-04
-1.818771e-04
-1.844882e-04
-2.008011e-04
-2.021688e-04
-2.024613e-04
-2.028190e-04
-2.029441e-04
0.000000e+00
1.917853e-05
-8.030150e-06
-8.886778e-05
-1.234469e-04
-1.302100e-04
-1.384858e-04
-1.450942e-04
-1.460149e-04
-1.454197e-04
-1.422911e-04
-1.404688e-04
-1.548572e-04
-1.634356e-04
-1.658471e-04
-1.670612e-04
-1.674204e-04
0.000000e+00
-6.109167e-06
-1.699034e-05
-4.266789e-05
-6.867374e-05
-8.757779e-05
-9.794175e-05
-1.036049e-04
-1.087061e-04
-1.112121e-04
-1.122746e-04
-1.142154e-04
-1.234595e-04
-1.325955e-04
-1.340518e-04
-1.352203e-04
-1.352900e-04
0.000000e+00
-9.070446e-06
-1.562082e-05
-1.998251e-05
-3.291103e-05
-5.296186e-05
-6.302212e-05
-7.049294e-05
-7.651610e-05
-8.101934e-05
-8.382223e-05
-8.756930e-05
-9.679122e-05
-1.025860e-04
-1.018888e-04
-1.008163e-04
-1.002248e-04
0.000000e+00
-6.915290e-06
-1.077272e-05
-1.506457e-05
-2.340446e-05
-3.338521e-05
-3.842231e-05
-4.216934e-05
-4.671441e-05
-5.025380e-05
-5.252935e-05
-5.490885e-05
-5.948170e-05
-6.213152e-05
-6.198956e-05
-6.155247e-05
-6.116444e-05
0.000000e+00
-6.959800e-06
-1.066615e-05
-1.055738e-05
-1.126996e-05
-1.233493e-05
-1.359568e-05
-1.485309e-05
-1.590553e-05
-1.662303e-05
-1.700192e-05
-1.709769e-05
-1.798622e-05
-1.930131e-05
-2.031491e-05
-2.053848e-05
-2.040564e-05
0.000000e+00
-8.476852e-06
-1.018277e-05
-1.076680e-06
7.110450e-06
1.212826e-05
1.506336e-05
1.711390e-05
1.874163e-05
1.982090e-05
2.059890e-05
2.141578e-05
2.225283e-05
2.236872e-05
2.189783e-05
2.144964e-05
2.140798e-05
0.000000e+00
-8.160373e-06
-2.628194e-06
1.411698e-05
3.002589e-05
4.038868e-05
4.710965e-05
5.184896e-05
5.509295e-05
5.723173e-05
5.905428e-05
6.114930e-05
6.351077e-05
6.480810e-05
6.426839e-05
6.360968e-05
6.344065e-05
0.000000e+00
2.292044e-05
-4.501199e-05
-6.367354e-05
-5.487699e-05
-7.627019e-05
-1.143760e-04
-1.449982e-04
-1.737372e-04
-2.053170e-04
-2.386733e-04
-2.816355e-04
-3.309575e-04
-3.714376e-04
-4.089649e-04
-4.450169e-04
-4.807151e-04
0.000000e+00
1.356155e-05
1.939895e-05
-1.582288e-05
-4.586286e-05
-7.176370e-05
-1.064958e-04
-1.421621e-04
-1.739189e-04
-2.056741e-04
-2.379103e-04
-2.740087e-04
-3.304045e-04
-3.719599e-04
-4.090833e-04
-4.449705e-04
-4.806565e-04
0.000000e+00
1.220861e-05
4.034981e-05
1.240733e-05
-3.585920e-05
-6.961625e-05
-1.018347e-04
-1.385564e-04
-1.733396e-04
-2.050375e-04
-2.345913e-04
-2.678494e-04
-3.277350e-04
-3.728435e-04
-4.084202e-04
-4.445888e-04
-4.803697e-04
0.000000e+00
1.196352e-05
3.131108e-05
1.718477e-05
-2.771916e-05
-6.554565e-05
-9.912745e-05
-1.352663e-04
-1.704057e-04
-2.027981e-04
-2.333578e-04
-2.678582e-04
-3.234547e-04
-3.733221e-04
-4.067907e-04
-4.440663e-04
-4.811271e-04
0.000000e+00
1.179886e-05
1.929365e-05
1.085034e-05
-2.048209e-05
-5.999790e-05
-9.489661e-05
-1.308851e-04
-1.668160e-04
-2.004425e-04
-2.326427e-04
-2.688868e-04
-3.197574e-04
-3.683980e-04
-4.057487e-04
-4.447838e-04
-4.837865e-04
0.000000e+00
9.128801e-06
1.294727e-05
5.788209e-06
-1.874806e-05
-5.421917e-05
-8.872075e-05
-1.248763e-04
-1.625651e-04
-1.978801e-04
-2.323299e-04
-2.700938e-04
-3.171456e-04
-3.642816e-04
-4.052294e-04
-4.452694e-04
-4.852153e-04
0.000000e+00
7.213561e-06
1.086793e-05
3.062159e-06
-1.991480e-05
-5.171962e-05
-8.542734e-05
-1.209322e-04
-1.586699e-04
-1.958254e-04
-2.326911e-04
-2.713706e-04
-3.158032e-04
-3.617405e-04
-4.045228e-04
-4.454273e-04
-4.862488e-04
0.000000e+00
8.332732e-06
1.044186e-05
-7.007773e-08
-2.202598e-05
-5.169395e-05
-8.487071e-05
-1.204479e-04
-1.577933e-04
-1.952962e-04
-2.330870e-04
-2.724439e-04
-3.151810e-04
-3.604233e-04
-4.037380e-04
-4.453988e-04
-4.869164e-04
0.000000e+00
1.203669e-05
8.615611e-06
-4.441320e-06
-2.530138e-05
-5.339584e-05
-8.592866e-05
-1.212456e-04
-1.581881e-04
-1.955857e-04
-2.335674e-04
-2.731537e-04
-3.154620e-04
-3.599591e-04
-4.032998e-04
-4.452871e-04
-4.871187e-04


3.840077e+00
7.215585e+00
6.788678e+00
3.311322e+00
1.838678e+00
2.832209e+00
2.566174e+00
2.335443e+00
4.038818e+00
7.285443e+00
9.526840e+00
7.641621e+00
3.819167e+00
1.893539e+00
2.867955e+00
3.651893e+00
4.140182e+00
6.284045e+00
6.695634e+00
3.404366e+00
1.916839e+00
1.574428e+00
2.654054e+00
4.141580e+00
5.774116e+00
7.985759e+00
9.480476e+00
8.254893e+00
4.890802e+00
3.490197e+00
5.151220e+00
6.942474e+00
4.304852e+00
5.774116e+00
6.045143e+00
5.670414e+00
3.873921e+00
2.620234e+00
2.969245e+00
4.607882e+00
6.045143e+00
6.600808e+00
8.022572e+00
8.422536e+00
7.193537e+00
5.958959e+00
7.831712e+00
9.091693e+00
5.546765e+00
4.694491e+00
5.851350e+00
7.505484e+00
7.841637e+00
5.864208e+00
4.704852e+00
4.691555e+00
4.523917e+00
3.710747e+00
4.330960e+00
7.182421e+00
7.842341e+00
7.509633e+00
7.643050e+00
8.270009e+00
5.298383e+00
4.128482e+00
4.946674e+00
7.841637e+00
8.927248e+00
7.826140e+00
6.400747e+00
6.168400e+00
4.724558e+00
2.496861e+00
1.914294e+00
4.856366e+00
6.494036e+00
5.567907e+00
5.241150e+00
4.335358e+00
3.577356e+00
3.759875e+00
4.610521e+00
6.756026e+00
7.130755e+00
5.870148e+00
5.722316e+00
6.008624e+00
5.014218e+00
2.256859e+00
1.661066e+00
3.702490e+00
4.604783e+00
3.718758e+00
2.909773e+00
2.395166e+00
3.139190e+00
3.829302e+00
4.865696e+00
5.050000e+00
4.325884e+00
3.022661e+00
2.755481e+00
3.858977e+00
2.693720e+00
1.379863e+00
1.360934e+00
3.736029e+00
4.630253e+00
4.731042e+00
4.295192e+00
2.798064e+00
4.206615e+00
4.413063e+00
4.570887e+00
3.790435e+00
2.087061e+00
1.075878e+00
1.324261e+00
1.616101e+00
1.324261e+00
1.436864e-01
1.334175e+00
3.399996e+00
5.875812e+00
6.838282e+00
6.280245e+00
3.979110e+00


9.936987e-01
9.791290e-01
9.847171e-01
9.965364e-01
9.981402e-01
9.983183e-01
9.987867e-01
9.991736e-01
9.992291e-01
9.980511e-01
9.375928e-01
8.978235e-01
9.942625e-01
9.975866e-01
9.987244e-01
9.964348e-01
9.973873e-01
9.919796e-01
9.916411e-01
9.974393e-01
9.986434e-01
9.989687e-01
9.989942e-01
9.988307e-01
9.983671e-01
9.969959e-01
9.795141e-01
9.662283e-01
9.981993e-01
9.998947e-01
9.978329e-01
9.848039e-01
9.988470e-01
9.979529e-01
9.973603e-01
9.978966e-01
9.987475e-01
9.991555e-01
9.989626e-01
9.983903e-01
9.978641e-01
9.977514e-01
9.965362e-01
9.938876e-01
9.968399e-01
9.952967e-01
9.693727e-01
8.791446e-01
9.996209e-01
9.993205e-01
9.986500e-01
9.972171e-01
9.975577e-01
9.990576e-01
9.991558e-01
9.989030e-01
9.989510e-01
9.992502e-01
9.990224e-01
9.959647e-01
9.891098e-01
9.906767e-01
9.862542e-01
9.840598e-01
9.998118e-01
9.994375e-01
9.987381e-01
9.964603e-01
9.952461e-01
9.980786e-01
9.988356e-01
9.990273e-01
9.993847e-01
9.995624e-01
9.993625e-01
9.971988e-01
9.942833e-01
9.978866e-01
9.985986e-01
9.992356e-01
9.993206e-01
9.990469e-01
9.988077e-01
9.980321e-01
9.980134e-01
9.990864e-01
9.991089e-01
9.987253e-01
9.991997e-01
9.994878e-01
9.993102e-01
9.978463e-01
9.966733e-01
9.989591e-01
9.995321e-01
9.998377e-01
9.975265e-01
9.969195e-01
9.965448e-01
9.967062e-01
9.979264e-01
9.989051e-01
9.989497e-01
9.985745e-01
9.990202e-01
9.993981e-01
9.992180e-01
9.977179e-01
9.964138e-01
9.988639e-01
9.996513e-01
9.999383e-01
9.919506e-01
9.918872e-01
9.917890e-01
9.940359e-01
9.967144e-01
9.977941e-01
9.978923e-01
9.978274e-01
9.983433e-01
9.988387e-01
9.987348e-01
9.976480e-01
9.966981e-01
9.990716e-01
9.998349e-01
9.999931e-01
1 2 19 18
2 3 20 19
3 4 21 20
4 5 22 21
5 6 23 22
6 7 24 23
7 8 25 24
8 9 26 25
9 10 27 26
10 11 28 27
11 12 29 28
12 13 30 29
13 14 31 30
14 15 32 31
15 16 33 32
16 17 34 33
18 19 36 35
19 20 37 36
20 21 38 37
21 22 39 38
22 23 40 39
23 24 41 40
24 25 42 41
25 26 43 42
26 27 44 43
27 28 45 44
28 29 46 45
29 30 47 46
30 31 48 47
31 32 49 48
32 33 50 49
33 34 51 50
35 36 53 52
36 37 54 53
37 38 55 54
38 39 56 55
39 40 57 56
40 41 58 57
41 42 59 58
42 43 60 59
43 44 61 60
44 45 62 61
45 46 63 62
46 47 64 63
47 48 65 64
48 49 66 65
49 50 67 66
50 51 68 67
52 53 70 69
53 54 71 70
54 55 72 71
55 56 73 72
56 57 74 73
57 58 75 74
58 59 76 75
59 60 77 76
60 61 78 77
61 62 79 78
62 63 80 79
63 64 81 80
64 65 82 81
65 66 83 82
66 67 84 83
67 68 85 84
69 70 87 86
70 71 88 87
71 72 89 88
72 73 90 89
73 74 91 90
74 75 92 91
75 76 93 92
76 77 94 93
77 78 95 94
78 79 96 95
79 80 97 96
80 81 98 97
81 82 99 98
82 83 100 99
83 84 101 100
84 85 102 101
86 87 104 103
87 88 105 104
88 89 106 105
89 90 107 106
90 91 108 107
91 92 109 108
92 93 110 109
93 94 111 110
94 95 112 111
95 96 113 112
96 97 114 113
97 98 115 114
98 99 116 115
99 100 117 116
100 101 118 117
101 102 119 118
103 104 121 120
104 105 122 121
105 106 123 122
106 107 124 123
107 108 125 124
108 109 126 125
109 110 127 126
110 111 128 127
111 112 129 128
112 113 130 129
113 114 131 130
114 115 132 131
115 116 133 132
116 117 134 133
117 118 135 134
118 119 136 135
120 121 138 137
121 122 139 138
122 123 140 139
123 124 141 140
124 125 142 141
125 126 143 142
126 127 144 143
127 128 145 144
128 129 146 145
129 130 147 146
130 131 148 147
131 132 149 148
132 133 150 149
133 134 151 150
134 135 152 151
135 136 153 152
