TITLE = "Solution"
VARIABLES = x, y, u, v, psiu, psiv, t, stress
ZONE T="structure" N=153 E=128 F=FEBLOCK ET=QUADRILATERAL VARLOCATION=([7,8]=cellcentered)
0.000000e+00
1.250000e+01
2.500000e+01
3.750000e+01
5.000000e+01
6.250000e+01
7.500000e+01
8.750000e+01
1.000000e+02
1.125000e+02
1.250000e+02
1.375000e+02
1.500000e+02
1.625000e+02
1.750000e+02
1.875000e+02
2.000000e+02
0.000000e+00
1.250000e+01
2.500000e+01
3.750000e+01
5.000000e+01
6.250000e+01
7.500000e+01
8.750000e+01
1.000000e+02
1.125000e+02
1.250000e+02
1.375000e+02
1.500000e+02
1.625000e+02
1.750000e+02
1.875000e+02
2.000000e+02
0.000000e+00
1.250000e+01
2.500000e+01
3.750000e+01
5.000000e+01
6.250000e+01
7.500000e+01
8.750000e+01
1.000000e+02
1.125000e+02
1.250000e+02
1.375000e+02
1.500000e+02
1.625000e+02
1.750000e+02
1.875000e+02
2.000000e+02
0.000000e+00
1.250000e+01
2.500000e+01
3.750000e+01
5.000000e+01
6.250000e+01
7.500000e+01
8.750000e+01
1.000000e+02
1.125000e+02
1.250000e+02
1.375000e+02
1.500000e+02
1.625000e+02
1.750000e+02
1.875000e+02
2.000000e+02
0.000000e+00
1.250000e+01
2.500000e+01
3.750000e+01
5.000000e+01
6.250000e+01
7.500000e+01
8.750000e+01
1.000000e+02
1.125000e+02
1.250000e+02
1.375000e+02
1.500000e+02
1.625000e+02
1.750000e+02
1.875000e+02
2.000000e+02
0.000000e+00
1.250000e+01
2.500000e+01
3.750000e+01
5.000000e+01
6.250000e+01
7.500000e+01
8.750000e+01
1.000000e+02
1.125000e+02
1.250000e+02
1.375000e+02
1.500000e+02
1.625000e+02
1.750000e+02
1.875000e+02
2.000000e+02
0.000000e+00
1.250000e+01
2.500000e+01
3.750000e+01
5.000000e+01
6.250000e+01
7.500000e+01
8.750000e+01
1.000000e+02
1.125000e+02
1.250000e+02
1.375000e+02
1.500000e+02
1.625000e+02
1.750000e+02
1.875000e+02
2.000000e+02
0.000000e+00
1.250000e+01
2.500000e+01
3.750000e+01
5.000000e+01
6.250000e+01
7.500000e+01
8.750000e+01
1.000000e+02
1.125000e+02
1.250000e+02
1.375000e+02
1.500000e+02
1.625000e+02
1.750000e+02
1.875000e+02
2.000000e+02
0.000000e+00
1.250000e+01
2.500000e+01
3.750000e+01
5.000000e+01
6.250000e+01
7.500000e+01
8.750000e+01
1.000000e+02
1.125000e+02
1.250000e+02
1.375000e+02
1.500000e+02
1.625000e+02
1.750000e+02
1.875000e+02
2.000000e+02
0.000000e+00
0.000000e+00
0.000000e+00
0.000000e+00
0.000000e+00
0.000000e+00
0.000000e+00
0.000000e+00
0.000000e+00
0.000000e+00
0.000000e+00
0.000000e+00
0.000000e+00
0.000000e+00
0.000000e+00
0.000000e+00
0.000000e+00
1.250000e+01
1.250000e+01
1.250000e+01
1.250000e+01
1.250000e+01
1.250000e+01
1.250000e+01
1.250000e+01
1.250000e+01
1.250000e+01
1.250000e+01
1.250000e+01
1.250000e+01
1.250000e+01
1.250000e+01
1.250000e+01
1.250000e+01
2.500000e+01
2.500000e+01
2.500000e+01
2.500000e+01
2.500000e+01
2.500000e+01
2.500000e+01
2.500000e+01
2.500000e+01
2.500000e+01
2.500000e+01
2.500000e+01
2.500000e+01
2.500000e+01
2.500000e+01
2.500000e+01
2.500000e+01
3.750000e+01
3.750000e+01
3.750000e+01
3.750000e+01
3.750000e+01
3.750000e+01
3.750000e+01
3.750000e+01
3.750000e+01
3.750000e+01
3.750000e+01
3.750000e+01
3.750000e+01
3.750000e+01
3.750000e+01
3.750000e+01
3.750000e+01
5.000000e+01
5.000000e+01
5.000000e+01
5.000000e+01
5.000000e+01
5.000000e+01
5.000000e+01
5.000000e+01
5.000000e+01
5.000000e+01
5.000000e+01
5.000000e+01
5.000000e+01
5.000000e+01
5.000000e+01
5.000000e+01
5.000000e+01
6.250000e+01
6.250000e+01
6.250000e+01
6.250000e+01
6.250000e+01
6.250000e+01
6.250000e+01
6.250000e+01
6.250000e+01
6.250000e+01
6.250000e+01
6.250000e+01
6.250000e+01
6.250000e+01
6.250000e+01
6.250000e+01
6.250000e+01
7.500000e+01
7.500000e+01
7.500000e+01
7.500000e+01
7.500000e+01
7.500000e+01
7.500000e+01
7.500000e+01
7.500000e+01
7.500000e+01
7.500000e+01
7.500000e+01
7.500000e+01
7.500000e+01
7.500000e+01
7.500000e+01
7.500000e+01
8.750000e+01
8.750000e+01
8.750000e+01
8.750000e+01
8.750000e+01
8.750000e+01
8.750000e+01
8.750000e+01
8.750000e+01
8.750000e+01
8.750000e+01
8.750000e+01
8.750000e+01
8.750000e+01
8.750000e+01
8.750000e+01
8.750000e+01
1.000000e+02
1.000000e+02
1.000000e+02
1.000000e+02
1.000000e+02
1.000000e+02
1.000000e+02
1.000000e+02
1.000000e+02
1.000000e+02
1.000000e+02
1.000000e+02
1.000000e+02
1.000000e+02
1.000000e+02
1.000000e+02
1.000000e+02
0.000000e+00
-1.318461e-01
-2.042924e-01
-2.565427e-01
-3.030159e-01
-3.424835e-01
-3.803538e-01
-4.207235e-01
-4.655277e-01
-5.136245e-01
-5.604647e-01
-5.902322e-01
-6.208704e-01
-6.573868e-01
-7.104061e-01
-7.694117e-01
-8.054136e-01
0.000000e+00
-7.364504e-02
-1.236681e-01
-1.607375e-01
-1.915476e-01
-2.183578e-01
-2.434358e-01
-2.708047e-01
-3.037633e-01
-3.412792e-01
-3.709996e-01
-3.938546e-01
-4.168510e-01
-4.400113e-01
-4.574912e-01
-4.644121e-01
-4.761083e-01
0.000000e+00
-2.717390e-02
-5.123844e-02
-7.295760e-02
-9.070616e-02
-1.060975e-01
-1.210034e-01
-1.375455e-01
-1.577967e-01
-1.769838e-01
-1.909698e-01
-2.039245e-01
-2.177690e-01
-2.265082e-01
-2.277789e-01
-2.261320e-01
-2.356991e-01
0.000000e+00
3.662568e-03
4.387151e-03
3.702301e-03
2.937814e-03
2.631457e-03
1.033164e-03
-1.600907e-03
-6.017271e-03
-1.091559e-02
-1.554045e-02
-1.997233e-02
-2.376589e-02
-2.340334e-02
-2.099697e-02
-2.092201e-02
-2.807526e-02
0.000000e+00
3.308595e-02
6.069391e-02
8.436051e-02
1.033918e-01
1.194437e-01
1.331001e-01
1.434627e-01
1.517902e-01
1.569119e-01
1.598272e-01
1.619743e-01
1.649150e-01
1.688364e-01
1.719012e-01
1.732505e-01
1.698442e-01
0.000000e+00
5.945354e-02
1.224308e-01
1.766278e-01
2.182216e-01
2.491686e-01
2.749754e-01
2.964181e-01
3.126589e-01
3.238670e-01
3.316547e-01
3.388218e-01
3.471836e-01
3.537052e-01
3.573587e-01
3.583532e-01
3.548292e-01
0.000000e+00
7.529766e-02
1.695847e-01
2.866903e-01
3.559273e-01
4.008139e-01
4.342945e-01
4.606596e-01
4.782432e-01
4.902685e-01
4.997761e-01
5.097090e-01
5.227975e-01
5.346551e-01
5.408338e-01
5.434394e-01
5.415005e-01
0.000000e+00
7.654000e-02
1.807277e-01
4.625490e-01
5.446891e-01
5.805852e-01
6.069499e-01
6.293930e-01
6.467289e-01
6.592735e-01
6.692296e-01
6.793721e-01
6.935891e-01
7.140562e-01
7.247796e-01
7.293113e-01
7.298768e-01
0.000000e+00
7.456227e-02
3.492575e-01
6.019001e-01
7.148840e-01
7.456630e-01
7.679238e-01
7.943706e-01
8.152423e-01
8.318095e-01
8.450787e-01
8.570619e-01
8.719156e-01
8.992992e-01
9.174785e-01
9.229319e-01
9.235337e-01
0.000000e+00
-6.246668e-02
-1.287498e-01
-2.201448e-01
-3.301343e-01
-4.560787e-01
-5.969923e-01
-7.535568e-01
-9.248961e-01
-1.105185e+00
-1.290092e+00
-1.483369e+00
-1.684644e+00
-1.894885e+00
-2.124021e+00
-2.397425e+00
-2.791557e+00
0.000000e+00
-3.788681e-02
-1.131556e-01
-2.072480e-01
-3.191489e-01
-4.465789e-01
-5.876126e-01
-7.433001e-01
-9.136238e-01
-1.094463e+00
-1.281324e+00
-1.475605e+00
-1.676462e+00
-1.886187e+00
-2.114038e+00
-2.385328e+00
-2.729301e+00
0.000000e+00
-2.812746e-02
-1.002742e-01
-1.968349e-01
-3.112663e-01
-4.401676e-01
-5.827410e-01
-7.384700e-01
-9.095336e-01
-1.091007e+00
-1.277616e+00
-1.470437e+00
-1.672277e+00
-1.884045e+00
-2.110483e+00
-2.365112e+00
-2.631344e+00
0.000000e+00
-2.498474e-02
-9.113850e-02
-1.875463e-01
-3.050292e-01
-4.373027e-01
-5.822195e-01
-7.395676e-01
-9.109731e-01
-1.092253e+00
-1.277758e+00
-1.468996e+00
-1.671132e+00
-1.883329e+00
-2.104181e+00
-2.338944e+00
-2.573089e+00
0.000000e+00
-2.583660e-02
-8.806361e-02
-1.835374e-01
-3.031581e-01
-4.389366e-01
-5.862960e-01
-7.452786e-01
-9.167712e-01
-1.096766e+00
-1.280168e+00
-1.469839e+00
-1.671333e+00
-1.881786e+00
-2.095118e+00
-2.316832e+00
-2.538322e+00
0.000000e+00
-3.382317e-02
-9.356097e-02
-1.864458e-01
-3.076921e-01
-4.455324e-01
-5.951596e-01
-7.553830e-01
-9.267277e-01
-1.103903e+00
-1.284715e+00
-1.471672e+00
-1.671590e+00
-1.879392e+00
-2.087410e+00
-2.298432e+00
-2.505104e+00
0.000000e+00
-4.941533e-02
-1.080314e-01
-1.968787e-01
-3.160259e-01
-4.567394e-01
-6.080421e-01
-7.680996e-01
-9.365706e-01
-1.111094e+00
-1.289755e+00
-1.474315e+00
-1.670904e+00
-1.877612e+00
-2.082647e+00
-2.288711e+00
-2.486778e+00
0.000000e+00
-6.435419e-02
-1.250705e-01
-2.055981e-01
-3.223190e-01
-4.679992e-01
-6.194086e-01
-7.771686e-01
-9.433144e-01
-1.115995e+00
-1.293969e+00
-1.477604e+00
-1.670528e+00
-1.877633e+00
-2.081436e+00
-2.284618e+00
-2.480489e+00
0.000000e+00
-7.289232e-02
-1.887254e-01
-2.433063e-01
-3.306360e-01
-4.756753e-01
-6.276843e-01
-7.842292e-01
-9.487990e-01
-1.120194e+00
-1.297668e+00
-1.481127e+00
-1.673057e+00
-1.880891e+00
-2.084034e+00
-2.284136e+00
-2.479869e+00


0.000000e+00
-9.138877e-05
-4.940422e-04
-1.105288e-03
-1.454198e-03
-1.548607e-03
-1.566138e-03
-1.569888e-03
-1.569843e-03
-1.569302e-03
-1.569792e-03
-1.570426e-03
-1.570155e-03
-1.569186e-03
-1.568301e-03
-1.567934e-03
-1.567893e-03
0.000000e+00
-9.883126e-06
-4.119176e-04
-9.688456e-04
-1.259819e-03
-1.260198e-03
-1.237528e-03
-1.229336e-03
-1.225839e-03
-1.223648e-03
-1.222996e-03
-1.222827e-03
-1.222449e-03
-1.222104e-03
-1.222044e-03
-1.222139e-03
-1.222204e-03
0.000000e+00
-7.532551e-05
-3.356511e-04
-6.942020e-04
-8.780358e-04
-8.852207e-04
-8.849388e-04
-8.812063e-04
-8.783420e-04
-8.768317e-04
-8.759621e-04
-8.753935e-04
-8.752098e-04
-8.756598e-04
-8.761598e-04
-8.764355e-04
-8.765771e-04
0.000000e+00
-1.122937e-04
-2.098647e-04
-3.595765e-04
-4.351868e-04
-4.956823e-04
-5.197987e-04
-5.275068e-04
-5.298202e-04
-5.304656e-04
-5.305996e-04
-5.306055e-04
-5.307461e-04
-5.309935e-04
-5.310778e-04
-5.312016e-04
-5.312396e-04
0.000000e+00
-3.909727e-05
-7.137206e-05
-9.169455e-05
-1.211303e-04
-1.469132e-04
-1.662790e-04
-1.768020e-04
-1.822173e-04
-1.848411e-04
-1.859389e-04
-1.865714e-04
-1.869575e-04
-1.868840e-04
-1.866305e-04
-1.862382e-04
-1.859816e-04
0.000000e+00
3.815904e-05
9.290549e-05
1.423991e-04
1.717103e-04
1.790416e-04
1.750808e-04
1.685190e-04
1.634062e-04
1.608279e-04
1.595989e-04
1.589537e-04
1.586120e-04
1.586853e-04
1.590345e-04
1.593598e-04
1.597170e-04
0.000000e+00
9.915076e-05
2.354017e-04
3.920421e-04
4.685427e-04
4.988164e-04
5.075123e-04
5.078777e-04
5.071414e-04
5.065879e-04
5.064270e-04
5.064488e-04
5.063675e-04
5.061319e-04
5.059380e-04
5.060574e-04
5.062903e-04
0.000000e+00
1.577518e-04
3.697620e-04
7.249083e-04
8.077872e-04
8.335346e-04
8.449416e-04
8.503909e-04
8.525275e-04
8.534004e-04
8.537845e-04
8.540354e-04
8.541109e-04
8.537692e-04
8.534728e-04
8.533375e-04
8.533382e-04
0.000000e+00
1.920306e-04
7.874051e-04
1.037582e-03
1.151410e-03
1.177650e-03
1.189729e-03
1.197469e-03
1.200457e-03
1.201450e-03
1.201847e-03
1.202051e-03
1.202020e-03
1.201187e-03
1.200439e-03
1.200180e-03
1.200136e-03
0.000000e+00
-2.279485e-04
-5.362336e-04
-7.737993e-04
-8.971271e-04
-1.094414e-03
-1.408463e-03
-1.749260e-03
-2.091266e-03
-2.434774e-03
-2.780124e-03
-3.127293e-03
-3.475580e-03
-3.823423e-03
-4.169929e-03
-4.515666e-03
-4.861329e-03
0.000000e+00
-8.098612e-05
-2.452699e-04
-5.121201e-04
-8.005839e-04
-1.087101e-03
-1.413099e-03
-1.750121e-03
-2.091937e-03
-2.434969e-03
-2.779988e-03
-3.127090e-03
-3.476037e-03
-3.823798e-03
-4.170018e-03
-4.515610e-03
-4.861249e-03
0.000000e+00
6.182471e-06
-5.044358e-05
-3.305775e-04
-7.206534e-04
-1.084695e-03
-1.414804e-03
-1.751437e-03
-2.092182e-03
-2.435100e-03
-2.779555e-03
-3.126565e-03
-3.476462e-03
-3.824331e-03
-4.169868e-03
-4.515453e-03
-4.861048e-03
0.000000e+00
2.208268e-05
-3.607911e-05
-2.956175e-04
-6.761887e-04
-1.054874e-03
-1.404046e-03
-1.748024e-03
-2.090861e-03
-2.434495e-03
-2.779027e-03
-3.126110e-03
-3.476502e-03
-3.824539e-03
-4.169797e-03
-4.515317e-03
-4.860906e-03
0.000000e+00
2.692579e-05
-6.533040e-05
-3.063819e-04
-6.530918e-04
-1.024928e-03
-1.389438e-03
-1.741239e-03
-2.087894e-03
-2.433043e-03
-2.778432e-03
-3.125891e-03
-3.476188e-03
-3.824399e-03
-4.169912e-03
-4.515488e-03
-4.861114e-03
0.000000e+00
1.280820e-05
-8.835585e-05
-3.222869e-04
-6.522447e-04
-1.014619e-03
-1.378646e-03
-1.734450e-03
-2.083659e-03
-2.431041e-03
-2.777813e-03
-3.125775e-03
-3.475630e-03
-3.823958e-03
-4.170141e-03
-4.516070e-03
-4.862057e-03
0.000000e+00
-2.003565e-05
-1.252755e-04
-3.494316e-04
-6.680166e-04
-1.019149e-03
-1.375493e-03
-1.730026e-03
-2.080662e-03
-2.429435e-03
-2.777479e-03
-3.125693e-03
-3.475023e-03
-3.823356e-03
-4.170342e-03
-4.516601e-03
-4.863072e-03
0.000000e+00
-6.686158e-05
-1.928253e-04
-3.870795e-04
-6.880580e-04
-1.029177e-03
-1.378037e-03
-1.729274e-03
-2.079843e-03
-2.428963e-03
-2.777399e-03
-3.125766e-03
-3.474470e-03
-3.822946e-03
-4.170306e-03
-4.516908e-03
-4.863557e-03
0.000000e+00
-1.504328e-04
-3.564002e-04
-4.415639e-04
-6.997751e-04
-1.035457e-03
-1.380971e-03
-1.730387e-03
-2.080056e-03
-2.429031e-03
-2.777472e-03
-3.125817e-03
-3.474250e-03
-3.822581e-03
-4.170191e-03
-4.516943e-03
-4.863630e-03


5.917705e+00
2.884415e+00
5.967652e-01
3.483826e-01
3.483826e-01
1.838678e+00
4.056851e+00
6.043530e+00
7.041822e+00
6.549607e+00
4.369474e+00
3.563160e+00
3.438752e+00
4.688562e+00
5.668265e+00
4.788581e+00
5.686937e+00
3.829302e+00
3.022661e+00
1.929938e+00
1.732536e+00
2.115352e+00
3.945876e+00
5.789105e+00
6.696824e+00
5.629889e+00
5.635078e+00
5.272029e+00
4.321710e+00
3.384554e+00
3.693160e+00
4.352074e+00
5.316035e+00
5.589813e+00
5.347120e+00
4.959532e+00
3.538046e+00
3.165809e+00
3.166288e+00
4.281968e+00
4.432005e+00
4.056025e+00
4.252119e+00
5.433157e+00
4.236390e+00
2.494311e+00
2.914653e+00
3.321810e+00
5.795148e+00
5.050000e+00
5.140468e+00
4.248650e+00
3.697322e+00
2.459869e+00
2.009403e+00
2.263979e+00
2.909245e+00
1.947615e+00
2.413581e+00
3.878558e+00
3.904501e+00
3.361273e+00
3.781289e+00
3.830916e+00
5.546765e+00
4.852598e+00
4.235792e+00
3.681231e+00
2.794931e+00
3.011867e+00
2.274279e+00
2.605553e+00
2.478283e+00
1.880106e+00
1.763548e+00
3.565590e+00
3.598252e+00
4.068707e+00
5.506950e+00
5.509462e+00
6.291913e+00
6.879938e+00
7.130755e+00
6.226079e+00
5.506673e+00
5.161742e+00
4.913470e+00
3.416041e+00
2.510107e+00
1.371240e+00
1.851727e+00
3.260268e+00
3.940162e+00
4.462642e+00
5.727283e+00
5.891707e+00
8.471352e+00
9.074348e+00
9.815696e+00
9.091580e+00
7.801455e+00
6.881062e+00
5.438889e+00
3.801896e+00
1.598841e+00
7.763733e-01
1.533731e+00
3.541290e+00
4.842955e+00
5.483520e+00
4.962897e+00
3.809102e+00
9.657782e+00
1.000000e+01
1.000000e+01
9.751617e+00
8.261322e+00
6.043530e+00
5.280731e+00
3.083055e+00
1.324261e+00
1.919007e-01
1.441312e+00
3.687723e+00
6.543518e+00
6.364521e+00
3.983911e+00
1.815117e+00


9.643038e-01
9.867608e-01
9.929582e-01
9.946935e-01
9.960356e-01
9.963794e-01
9.957706e-01
9.944358e-01
9.934426e-01
9.949475e-01
9.975712e-01
9.974959e-01
9.969194e-01
9.956636e-01
9.960838e-01
9.897603e-01
9.914401e-01
9.948923e-01
9.964771e-01
9.973153e-01
9.976975e-01
9.976929e-01
9.971682e-01
9.961421e-01
9.962829e-01
9.980777e-01
9.987920e-01
9.987668e-01
9.991138e-01
9.996458e-01
9.982246e-01
9.816231e-01
9.993491e-01
9.984163e-01
9.979250e-01
9.980807e-01
9.984062e-01
9.985266e-01
9.985193e-01
9.983231e-01
9.987249e-01
9.993452e-01
9.995146e-01
9.994794e-01
9.996618e-01
9.994162e-01
9.967989e-01
9.910453e-01
9.987037e-01
9.986183e-01
9.983347e-01
9.984696e-01
9.987964e-01
9.991320e-01
9.992855e-01
9.992630e-01
9.994208e-01
9.997008e-01
9.997708e-01
9.995773e-01
9.993094e-01
9.989450e-01
9.973233e-01
9.957275e-01
9.924874e-01
9.927278e-01
9.945224e-01
9.965109e-01
9.977954e-01
9.983286e-01
9.987005e-01
9.988956e-01
9.992349e-01
9.995558e-01
9.995989e-01
9.992014e-01
9.988928e-01
9.988633e-01
9.979274e-01
9.964834e-01
9.831954e-01
9.780583e-01
9.753596e-01
9.897190e-01
9.950300e-01
9.967230e-01
9.976935e-01
9.986760e-01
9.992059e-01
9.994109e-01
9.993146e-01
9.986526e-01
9.984109e-01
9.989625e-01
9.988986e-01
9.989187e-01
9.760227e-01
9.627267e-01
8.682648e-01
9.746240e-01
9.918766e-01
9.957995e-01
9.975739e-01
9.988401e-01
9.993823e-01
9.995089e-01
9.993089e-01
9.984521e-01
9.975655e-01
9.989590e-01
9.993289e-01
9.997606e-01
9.736213e-01
8.794987e-01
7.488048e-01
9.633361e-01
9.954491e-01
9.977153e-01
9.978525e-01
9.987085e-01
9.992469e-01
9.995018e-01
9.994973e-01
9.989661e-01
9.970813e-01
9.989717e-01
9.998046e-01
9.999905e-01
1 2 19 18
2 3 20 19
3 4 21 20
4 5 22 21
5 6 23 22
6 7 24 23
7 8 25 24
8 9 26 25
9 10 27 26
10 11 28 27
11 12 29 28
12 13 30 29
13 14 31 30
14 15 32 31
15 16 33 32
16 17 34 33
18 19 36 35
19 20 37 36
20 21 38 37
21 22 39 38
22 23 40 39
23 24 41 40
24 25 42 41
25 26 43 42
26 27 44 43
27 28 45 44
28 29 46 45
29 30 47 46
30 31 48 47
31 32 49 48
32 33 50 49
33 34 51 50
35 36 53 52
36 37 54 53
37 38 55 54
38 39 56 55
39 40 57 56
40 41 58 57
41 42 59 58
42 43 60 59
43 44 61 60
44 45 62 61
45 46 63 62
46 47 64 63
47 48 65 64
48 49 66 65
49 50 67 66
50 51 68 67
52 53 70 69
53 54 71 70
54 55 72 71
55 56 73 72
56 57 74 73
57 58 75 74
58 59 76 75
59 60 77 76
60 61 78 77
61 62 79 78
62 63 80 79
63 64 81 80
64 65 82 81
65 66 83 82
66 67 84 83
67 68 85 84
69 70 87 86
70 71 88 87
71 72 89 88
72 73 90 89
73 74 91 90
74 75 92 91
75 76 93 92
76 77 94 93
77 78 95 94
78 79 96 95
79 80 97 96
80 81 98 97
81 82 99 98
82 83 100 99
83 84 101 100
84 85 102 101
86 87 104 103
87 88 105 104
88 89 106 105
89 90 107 106
90 91 108 107
91 92 109 108
92 93 110 109
93 94 111 110
94 95 112 111
95 96 113 112
96 97 114 113
97 98 115 114
98 99 116 115
99 100 117 116
100 101 118 117
101 102 119 118
103 104 121 120
104 105 122 121
105 106 123 122
106 107 124 123
107 108 125 124
108 109 126 125
109 110 127 126
110 111 128 127
111 112 129 128
112 113 130 129
113 114 131 130
114 115 132 131
115 116 133 132
116 117 134 133
117 118 135 134
118 119 136 135
120 121 138 137
121 122 139 138
122 123 140 139
123 124 141 140
124 125 142 141
125 126 143 142
126 127 144 143
127 128 145 144
128 129 146 145
129 130 147 146
130 131 148 147
131 132 149 148
132 133 150 149
133 134 151 150
134 135 152 151
135 136 153 152
