TITLE = "Solution"
VARIABLES = x, y, u, v, psiu, psiv, t, stress
ZONE T="structure" N=153 E=128 F=FEBLOCK ET=QUADRILATERAL VARLOCATION=([7,8]=cellcentered)
0.000000e+00
1.250000e+01
2.500000e+01
3.750000e+01
5.000000e+01
6.250000e+01
7.500000e+01
8.750000e+01
1.000000e+02
1.125000e+02
1.250000e+02
1.375000e+02
1.500000e+02
1.625000e+02
1.750000e+02
1.875000e+02
2.000000e+02
0.000000e+00
1.250000e+01
2.500000e+01
3.750000e+01
5.000000e+01
6.250000e+01
7.500000e+01
8.750000e+01
1.000000e+02
1.125000e+02
1.250000e+02
1.375000e+02
1.500000e+02
1.625000e+02
1.750000e+02
1.875000e+02
2.000000e+02
0.000000e+00
1.250000e+01
2.500000e+01
3.750000e+01
5.000000e+01
6.250000e+01
7.500000e+01
8.750000e+01
1.000000e+02
1.125000e+02
1.250000e+02
1.375000e+02
1.500000e+02
1.625000e+02
1.750000e+02
1.875000e+02
2.000000e+02
0.000000e+00
1.250000e+01
2.500000e+01
3.750000e+01
5.000000e+01
6.250000e+01
7.500000e+01
8.750000e+01
1.000000e+02
1.125000e+02
1.250000e+02
1.375000e+02
1.500000e+02
1.625000e+02
1.750000e+02
1.875000e+02
2.000000e+02
0.000000e+00
1.250000e+01
2.500000e+01
3.750000e+01
5.000000e+01
6.250000e+01
7.500000e+01
8.750000e+01
1.000000e+02
1.125000e+02
1.250000e+02
1.375000e+02
1.500000e+02
1.625000e+02
1.750000e+02
1.875000e+02
2.000000e+02
0.000000e+00
1.250000e+01
2.500000e+01
3.750000e+01
5.000000e+01
6.250000e+01
7.500000e+01
8.750000e+01
1.000000e+02
1.125000e+02
1.250000e+02
1.375000e+02
1.500000e+02
1.625000e+02
1.750000e+02
1.875000e+02
2.000000e+02
0.000000e+00
1.250000e+01
2.500000e+01
3.750000e+01
5.000000e+01
6.250000e+01
7.500000e+01
8.750000e+01
1.000000e+02
1.125000e+02
1.250000e+02
1.375000e+02
1.500000e+02
1.625000e+02
1.750000e+02
1.875000e+02
2.000000e+02
0.000000e+00
1.250000e+01
2.500000e+01
3.750000e+01
5.000000e+01
6.250000e+01
7.500000e+01
8.750000e+01
1.000000e+02
1.125000e+02
1.250000e+02
1.375000e+02
1.500000e+02
1.625000e+02
1.750000e+02
1.875000e+02
2.000000e+02
0.000000e+00
1.250000e+01
2.500000e+01
3.750000e+01
5.000000e+01
6.250000e+01
7.500000e+01
8.750000e+01
1.000000e+02
1.125000e+02
1.250000e+02
1.375000e+02
1.500000e+02
1.625000e+02
1.750000e+02
1.875000e+02
2.000000e+02
0.000000e+00
0.000000e+00
0.000000e+00
0.000000e+00
0.000000e+00
0.000000e+00
0.000000e+00
0.000000e+00
0.000000e+00
0.000000e+00
0.000000e+00
0.000000e+00
0.000000e+00
0.000000e+00
0.000000e+00
0.000000e+00
0.000000e+00
1.250000e+01
1.250000e+01
1.250000e+01
1.250000e+01
1.250000e+01
1.250000e+01
1.250000e+01
1.250000e+01
1.250000e+01
1.250000e+01
1.250000e+01
1.250000e+01
1.250000e+01
1.250000e+01
1.250000e+01
1.250000e+01
1.250000e+01
2.500000e+01
2.500000e+01
2.500000e+01
2.500000e+01
2.500000e+01
2.500000e+01
2.500000e+01
2.500000e+01
2.500000e+01
2.500000e+01
2.500000e+01
2.500000e+01
2.500000e+01
2.500000e+01
2.500000e+01
2.500000e+01
2.500000e+01
3.750000e+01
3.750000e+01
3.750000e+01
3.750000e+01
3.750000e+01
3.750000e+01
3.750000e+01
3.750000e+01
3.750000e+01
3.750000e+01
3.750000e+01
3.750000e+01
3.750000e+01
3.750000e+01
3.750000e+01
3.750000e+01
3.750000e+01
5.000000e+01
5.000000e+01
5.000000e+01
5.000000e+01
5.000000e+01
5.000000e+01
5.000000e+01
5.000000e+01
5.000000e+01
5.000000e+01
5.000000e+01
5.000000e+01
5.000000e+01
5.000000e+01
5.000000e+01
5.000000e+01
5.000000e+01
6.250000e+01
6.250000e+01
6.250000e+01
6.250000e+01
6.250000e+01
6.250000e+01
6.250000e+01
6.250000e+01
6.250000e+01
6.250000e+01
6.250000e+01
6.250000e+01
6.250000e+01
6.250000e+01
6.250000e+01
6.250000e+01
6.250000e+01
7.500000e+01
7.500000e+01
7.500000e+01
7.500000e+01
7.500000e+01
7.500000e+01
7.500000e+01
7.500000e+01
7.500000e+01
7.500000e+01
7.500000e+01
7.500000e+01
7.500000e+01
7.500000e+01
7.500000e+01
7.500000e+01
7.500000e+01
8.750000e+01
8.750000e+01
8.750000e+01
8.750000e+01
8.750000e+01
8.750000e+01
8.750000e+01
8.750000e+01
8.750000e+01
8.750000e+01
8.750000e+01
8.750000e+01
8.750000e+01
8.750000e+01
8.750000e+01
8.750000e+01
8.750000e+01
1.000000e+02
1.000000e+02
1.000000e+02
1.000000e+02
1.000000e+02
1.000000e+02
1.000000e+02
1.000000e+02
1.000000e+02
1.000000e+02
1.000000e+02
1.000000e+02
1.000000e+02
1.000000e+02
1.000000e+02
1.000000e+02
1.000000e+02
0.000000e+00
-9.927617e-01
-1.790673e+00
-2.534403e+00
-3.293496e+00
-4.062302e+00
-4.826810e+00
-5.585725e+00
-6.359375e+00
-7.234888e+00
-8.251616e+00
-9.135658e+00
-9.844641e+00
-1.059261e+01
-1.140073e+01
-1.215854e+01
-1.262942e+01
0.000000e+00
-5.504393e-01
-1.133871e+00
-1.687148e+00
-2.244645e+00
-2.801989e+00
-3.355984e+00
-3.900891e+00
-4.457830e+00
-5.094630e+00
-5.846805e+00
-6.494032e+00
-6.984637e+00
-7.417540e+00
-7.744805e+00
-7.813725e+00
-7.978753e+00
0.000000e+00
-3.000218e-01
-6.305389e-01
-9.859712e-01
-1.344016e+00
-1.698574e+00
-2.055883e+00
-2.419124e+00
-2.800457e+00
-3.228625e+00
-3.683298e+00
-4.049443e+00
-4.304429e+00
-4.453726e+00
-4.463191e+00
-4.409307e+00
-4.600868e+00
0.000000e+00
-1.255672e-01
-2.786362e-01
-4.474079e-01
-6.164585e-01
-7.800431e-01
-9.441691e-01
-1.120091e+00
-1.312697e+00
-1.518578e+00
-1.695857e+00
-1.813424e+00
-1.864376e+00
-1.844022e+00
-1.770768e+00
-1.766595e+00
-1.934596e+00
0.000000e+00
-3.035362e-03
-3.713148e-03
3.817741e-04
1.035260e-02
2.575782e-02
4.669124e-02
7.287315e-02
1.043598e-01
1.461822e-01
2.019747e-01
2.763896e-01
3.741804e-01
4.843556e-01
5.690768e-01
5.561153e-01
4.379432e-01
0.000000e+00
1.241110e-01
2.744608e-01
4.426360e-01
6.195640e-01
8.039583e-01
1.003477e+00
1.235594e+00
1.506902e+00
1.808219e+00
2.084254e+00
2.313053e+00
2.515346e+00
2.695081e+00
2.810348e+00
2.819249e+00
2.759288e+00
0.000000e+00
3.030397e-01
6.295976e-01
9.732759e-01
1.317651e+00
1.666529e+00
2.038353e+00
2.452812e+00
2.929893e+00
3.474406e+00
3.997133e+00
4.396261e+00
4.697995e+00
4.928894e+00
5.080940e+00
5.128804e+00
5.116041e+00
0.000000e+00
5.562684e-01
1.136454e+00
1.672651e+00
2.201383e+00
2.731163e+00
3.280764e+00
3.868287e+00
4.525280e+00
5.275552e+00
6.032926e+00
6.630626e+00
7.059401e+00
7.354230e+00
7.530029e+00
7.599697e+00
7.612717e+00
0.000000e+00
1.003416e+00
1.797123e+00
2.521015e+00
3.244591e+00
3.978849e+00
4.740472e+00
5.552673e+00
6.439162e+00
7.422689e+00
8.374867e+00
9.148526e+00
9.697808e+00
1.004298e+01
1.019591e+01
1.021932e+01
1.021462e+01
0.000000e+00
-6.062348e-01
-1.236784e+00
-2.063755e+00
-3.083265e+00
-4.309987e+00
-5.756748e+00
-7.433723e+00
-9.359565e+00
-1.156780e+01
-1.403624e+01
-1.666031e+01
-1.946855e+01
-2.251769e+01
-2.587574e+01
-2.978376e+01
-3.534645e+01
0.000000e+00
-3.814357e-01
-1.045435e+00
-1.869838e+00
-2.885640e+00
-4.110197e+00
-5.558569e+00
-7.235954e+00
-9.149388e+00
-1.132548e+01
-1.379431e+01
-1.646725e+01
-1.930002e+01
-2.235338e+01
-2.574311e+01
-2.966704e+01
-3.439071e+01
0.000000e+00
-3.083097e-01
-9.224037e-01
-1.742065e+00
-2.752023e+00
-3.970104e+00
-5.414007e+00
-7.090817e+00
-9.000241e+00
-1.117909e+01
-1.366330e+01
-1.636172e+01
-1.922302e+01
-2.230793e+01
-2.572357e+01
-2.945029e+01
-3.292881e+01
0.000000e+00
-3.017852e-01
-8.808328e-01
-1.680467e+00
-2.680761e+00
-3.887842e+00
-5.318068e+00
-6.991110e+00
-8.913991e+00
-1.112969e+01
-1.363330e+01
-1.634173e+01
-1.922038e+01
-2.231204e+01
-2.564863e+01
-2.900300e+01
-3.189124e+01
0.000000e+00
-3.119693e-01
-8.793159e-01
-1.670052e+00
-2.663917e+00
-3.864234e+00
-5.283256e+00
-6.952385e+00
-8.894601e+00
-1.114701e+01
-1.366989e+01
-1.637761e+01
-1.925367e+01
-2.230912e+01
-2.550873e+01
-2.857423e+01
-3.118449e+01
0.000000e+00
-3.067435e-01
-8.916998e-01
-1.694517e+00
-2.695336e+00
-3.898484e+00
-5.320247e+00
-6.993209e+00
-8.940696e+00
-1.120742e+01
-1.374239e+01
-1.644814e+01
-1.930496e+01
-2.230648e+01
-2.537888e+01
-2.828036e+01
-3.081891e+01
0.000000e+00
-3.151531e-01
-9.372516e-01
-1.762599e+00
-2.774166e+00
-3.987365e+00
-5.422954e+00
-7.104331e+00
-9.055254e+00
-1.131595e+01
-1.384839e+01
-1.654555e+01
-1.938100e+01
-2.232961e+01
-2.529633e+01
-2.809829e+01
-3.065587e+01
0.000000e+00
-3.881621e-01
-1.058965e+00
-1.887848e+00
-2.904954e+00
-4.126507e+00
-5.574096e+00
-7.268835e+00
-9.235308e+00
-1.149520e+01
-1.400700e+01
-1.667809e+01
-1.948525e+01
-2.238567e+01
-2.527599e+01
-2.802535e+01
-3.063130e+01
0.000000e+00
-6.137298e-01
-1.247210e+00
-2.074619e+00
-3.093019e+00
-4.320368e+00
-5.778139e+00
-7.489863e+00
-9.480540e+00
-1.175455e+01
-1.423432e+01
-1.685463e+01
-1.961001e+01
-2.245665e+01
-2.529144e+01
-2.801227e+01
-3.063601e+01


0.000000e+00
3.070940e-05
5.252501e-05
6.437391e-05
7.212191e-05
7.938237e-05
8.729544e-05
9.452662e-05
9.987593e-05
1.025394e-04
1.007572e-04
9.543299e-05
8.992230e-05
8.509924e-05
8.219196e-05
8.175966e-05
8.254944e-05
0.000000e+00
2.479241e-05
4.536261e-05
5.285808e-05
5.746764e-05
6.275742e-05
6.935514e-05
7.569060e-05
8.046061e-05
8.279414e-05
8.056853e-05
7.509033e-05
6.989142e-05
6.521336e-05
6.151649e-05
6.066713e-05
6.166282e-05
0.000000e+00
1.764923e-05
3.121009e-05
3.699704e-05
4.121032e-05
4.528224e-05
4.991867e-05
5.416140e-05
5.697421e-05
5.751357e-05
5.489494e-05
5.078842e-05
4.708953e-05
4.399874e-05
4.169634e-05
4.132718e-05
4.244537e-05
0.000000e+00
8.144114e-06
1.345481e-05
1.836093e-05
2.146917e-05
2.378546e-05
2.592856e-05
2.767957e-05
2.829275e-05
2.753892e-05
2.569831e-05
2.375833e-05
2.222339e-05
2.123681e-05
2.080982e-05
2.097561e-05
2.140872e-05
0.000000e+00
2.357302e-07
3.682827e-07
3.258623e-07
1.509691e-08
-5.791705e-07
-1.175290e-06
-2.393706e-06
-3.130702e-06
-3.840727e-06
-3.906317e-06
-3.618058e-06
-3.217589e-06
-2.697196e-06
-2.258033e-06
-2.432874e-06
-2.989941e-06
0.000000e+00
-7.292908e-06
-1.220000e-05
-1.685605e-05
-2.026490e-05
-2.346639e-05
-2.828490e-05
-3.421902e-05
-3.736141e-05
-3.590470e-05
-3.311528e-05
-3.043887e-05
-2.847253e-05
-2.694444e-05
-2.620520e-05
-2.650886e-05
-2.724546e-05
0.000000e+00
-1.588841e-05
-2.813080e-05
-3.355715e-05
-3.755052e-05
-4.173137e-05
-4.977352e-05
-6.116455e-05
-6.854517e-05
-6.760951e-05
-6.204663e-05
-5.699012e-05
-5.400708e-05
-5.214126e-05
-5.085755e-05
-5.067520e-05
-5.100963e-05
0.000000e+00
-2.228905e-05
-4.095396e-05
-4.800150e-05
-5.230996e-05
-5.748953e-05
-6.655214e-05
-7.934037e-05
-8.971909e-05
-9.249070e-05
-8.812415e-05
-8.236620e-05
-7.895339e-05
-7.675190e-05
-7.492463e-05
-7.407959e-05
-7.391265e-05
0.000000e+00
-2.813445e-05
-4.821423e-05
-5.936171e-05
-6.701177e-05
-7.467560e-05
-8.488535e-05
-9.576461e-05
-1.050308e-04
-1.091228e-04
-1.084935e-04
-1.049933e-04
-1.020029e-04
-9.916970e-05
-9.683821e-05
-9.579024e-05
-9.552868e-05
0.000000e+00
2.466390e-05
3.478356e-05
4.491560e-05
5.982150e-05
7.821777e-05
9.858063e-05
1.196136e-04
1.406201e-04
1.603038e-04
1.772425e-04
1.938959e-04
2.112285e-04
2.278165e-04
2.457765e-04
2.680498e-04
2.915537e-04
0.000000e+00
1.275532e-05
2.785562e-05
4.113252e-05
5.679475e-05
7.469638e-05
9.479982e-05
1.163681e-04
1.384307e-04
1.597812e-04
1.788301e-04
1.964223e-04
2.137270e-04
2.301022e-04
2.464866e-04
2.668692e-04
2.896739e-04
0.000000e+00
5.566012e-06
2.151395e-05
3.801790e-05
5.428580e-05
7.203979e-05
9.204988e-05
1.141654e-04
1.373722e-04
1.601324e-04
1.804651e-04
1.986662e-04
2.159885e-04
2.321786e-04
2.468801e-04
2.649149e-04
2.868383e-04
0.000000e+00
3.658165e-06
1.803767e-05
3.528677e-05
5.248574e-05
7.066250e-05
9.091652e-05
1.137116e-04
1.378851e-04
1.610622e-04
1.815069e-04
1.996981e-04
2.170351e-04
2.334362e-04
2.478414e-04
2.639236e-04
2.847231e-04
0.000000e+00
3.786575e-06
1.704916e-05
3.399618e-05
5.172060e-05
6.990734e-05
9.000354e-05
1.136401e-04
1.387286e-04
1.618038e-04
1.815964e-04
1.995780e-04
2.170734e-04
2.341653e-04
2.497454e-04
2.656567e-04
2.853081e-04
0.000000e+00
3.998220e-06
1.810046e-05
3.518924e-05
5.237848e-05
6.972720e-05
8.950386e-05
1.136376e-04
1.393337e-04
1.618416e-04
1.808324e-04
1.986245e-04
2.166277e-04
2.344891e-04
2.513005e-04
2.681212e-04
2.873509e-04
0.000000e+00
5.851016e-06
2.130541e-05
3.762918e-05
5.387418e-05
7.116011e-05
9.165863e-05
1.161057e-04
1.403866e-04
1.609992e-04
1.790925e-04
1.969993e-04
2.158305e-04
2.343124e-04
2.517812e-04
2.697137e-04
2.894477e-04
0.000000e+00
1.230557e-05
2.706795e-05
4.046936e-05
5.622102e-05
7.455168e-05
9.702929e-05
1.216181e-04
1.432754e-04
1.606288e-04
1.767411e-04
1.948062e-04
2.145570e-04
2.335733e-04
2.515385e-04
2.703212e-04
2.905202e-04
0.000000e+00
2.305146e-05
3.343809e-05
4.405578e-05
5.923136e-05
7.868136e-05
1.027831e-04
1.273025e-04
1.471173e-04
1.610793e-04
1.749851e-04
1.927579e-04
2.132181e-04
2.325337e-04
2.510327e-04
2.703789e-04
2.907567e-04


2.569630e+00
2.492270e+00
2.520865e+00
2.754147e+00
2.987675e+00
3.228655e+00
3.591802e+00
4.225607e+00
5.973538e+00
7.945443e+00
7.921896e+00
7.044531e+00
7.415025e+00
7.380219e+00
5.942475e+00
4.635547e+00
3.288752e+00
3.323708e+00
3.403149e+00
3.600390e+00
3.873331e+00
4.374638e+00
4.691710e+00
5.310561e+00
6.642958e+00
8.038058e+00
7.820838e+00
7.055669e+00
7.246070e+00
7.524519e+00
6.370426e+00
5.107047e+00
4.981294e+00
5.039514e+00
4.821047e+00
4.744411e+00
5.041365e+00
5.655083e+00
6.373872e+00
6.878984e+00
7.704942e+00
8.137322e+00
7.668270e+00
7.066788e+00
7.196333e+00
7.766877e+00
7.577558e+00
6.667530e+00
6.708219e+00
6.349381e+00
5.539280e+00
5.079911e+00
5.233687e+00
5.985980e+00
7.039961e+00
7.947228e+00
8.330234e+00
7.951840e+00
7.338055e+00
7.012756e+00
7.358781e+00
8.099438e+00
8.350896e+00
7.817175e+00
6.637137e+00
6.187308e+00
5.413353e+00
5.048079e+00
5.339411e+00
6.153798e+00
7.312324e+00
8.203859e+00
8.517469e+00
7.909235e+00
7.028731e+00
7.098928e+00
7.650335e+00
8.422730e+00
8.471601e+00
7.621666e+00
4.888687e+00
4.850285e+00
4.617393e+00
4.696649e+00
5.183723e+00
6.011329e+00
6.925368e+00
7.738894e+00
8.543687e+00
8.270061e+00
7.312256e+00
7.104637e+00
7.867542e+00
8.426050e+00
8.094617e+00
7.444358e+00
3.335810e+00
3.288470e+00
3.319508e+00
3.512731e+00
3.900331e+00
4.606728e+00
5.334932e+00
6.521474e+00
7.875998e+00
8.508288e+00
7.808961e+00
7.378372e+00
7.417574e+00
7.501123e+00
7.053201e+00
6.409789e+00
2.595958e+00
2.474477e+00
2.442036e+00
2.630299e+00
2.906593e+00
3.370938e+00
4.149740e+00
5.411121e+00
7.166074e+00
8.164731e+00
8.103152e+00
7.507271e+00
7.041082e+00
6.617307e+00
5.856472e+00
5.043225e+00


-1.095904e+00
-6.778643e-01
-4.719021e-01
-5.157624e-01
-5.395916e-01
-5.260061e-01
-4.985256e-01
-5.715291e-01
-1.036975e+00
-1.755545e+00
-1.053032e+00
-2.618392e-01
-2.071834e-01
-1.082165e-01
3.931656e-01
-8.571702e-01
3.270652e-01
1.883187e-01
2.131783e-01
2.048414e-01
2.012006e-01
1.801782e-01
1.486887e-01
4.766152e-02
-2.460078e-01
-5.653252e-01
-9.737339e-02
4.008004e-01
6.196678e-01
7.835919e-01
5.941087e-01
-2.157547e+00
7.763968e-01
6.345501e-01
5.637008e-01
5.484825e-01
5.318680e-01
4.831038e-01
3.978782e-01
2.872884e-01
1.069048e-01
2.502429e-02
2.648986e-01
4.850346e-01
4.953069e-01
1.790186e-01
-4.114017e-01
-1.310471e+00
8.927346e-01
7.632984e-01
6.865381e-01
6.519599e-01
6.137482e-01
5.527760e-01
4.594374e-01
3.677437e-01
2.347237e-01
1.561051e-01
2.048394e-01
2.080861e-01
2.023689e-02
-3.892284e-01
-4.620708e-01
-3.514193e-01
8.943076e-01
7.657555e-01
6.802294e-01
6.256523e-01
5.656605e-01
4.844952e-01
3.640114e-01
2.424439e-01
7.904471e-02
1.333208e-02
4.811448e-02
-1.776741e-02
-1.941225e-01
-3.314294e-01
2.403324e-02
5.027089e-01
7.728722e-01
6.364560e-01
5.652101e-01
5.276749e-01
4.675850e-01
3.546788e-01
1.608973e-01
-1.002259e-01
-4.137334e-01
-4.049923e-01
-1.123988e-01
-1.257001e-02
-5.291234e-02
2.529889e-02
4.495991e-01
8.281187e-01
3.108728e-01
1.959094e-01
2.535015e-01
2.611310e-01
2.338478e-01
1.270367e-01
-7.995516e-02
-4.399534e-01
-9.351048e-01
-9.700773e-01
-3.287909e-01
1.062966e-01
3.224574e-01
5.377110e-01
8.259300e-01
9.772493e-01
-1.142124e+00
-6.600846e-01
-3.901085e-01
-3.737415e-01
-4.028257e-01
-5.151530e-01
-7.361017e-01
-1.126982e+00
-1.694929e+00
-1.626920e+00
-7.063216e-01
9.990186e-02
5.741023e-01
8.542138e-01
9.796344e-01
9.998504e-01
1 2 19 18
2 3 20 19
3 4 21 20
4 5 22 21
5 6 23 22
6 7 24 23
7 8 25 24
8 9 26 25
9 10 27 26
10 11 28 27
11 12 29 28
12 13 30 29
13 14 31 30
14 15 32 31
15 16 33 32
16 17 34 33
18 19 36 35
19 20 37 36
20 21 38 37
21 22 39 38
22 23 40 39
23 24 41 40
24 25 42 41
25 26 43 42
26 27 44 43
27 28 45 44
28 29 46 45
29 30 47 46
30 31 48 47
31 32 49 48
32 33 50 49
33 34 51 50
35 36 53 52
36 37 54 53
37 38 55 54
38 39 56 55
39 40 57 56
40 41 58 57
41 42 59 58
42 43 60 59
43 44 61 60
44 45 62 61
45 46 63 62
46 47 64 63
47 48 65 64
48 49 66 65
49 50 67 66
50 51 68 67
52 53 70 69
53 54 71 70
54 55 72 71
55 56 73 72
56 57 74 73
57 58 75 74
58 59 76 75
59 60 77 76
60 61 78 77
61 62 79 78
62 63 80 79
63 64 81 80
64 65 82 81
65 66 83 82
66 67 84 83
67 68 85 84
69 70 87 86
70 71 88 87
71 72 89 88
72 73 90 89
73 74 91 90
74 75 92 91
75 76 93 92
76 77 94 93
77 78 95 94
78 79 96 95
79 80 97 96
80 81 98 97
81 82 99 98
82 83 100 99
83 84 101 100
84 85 102 101
86 87 104 103
87 88 105 104
88 89 106 105
89 90 107 106
90 91 108 107
91 92 109 108
92 93 110 109
93 94 111 110
94 95 112 111
95 96 113 112
96 97 114 113
97 98 115 114
98 99 116 115
99 100 117 116
100 101 118 117
101 102 119 118
103 104 121 120
104 105 122 121
105 106 123 122
106 107 124 123
107 108 125 124
108 109 126 125
109 110 127 126
110 111 128 127
111 112 129 128
112 113 130 129
113 114 131 130
114 115 132 131
115 116 133 132
116 117 134 133
117 118 135 134
118 119 136 135
120 121 138 137
121 122 139 138
122 123 140 139
123 124 141 140
124 125 142 141
125 126 143 142
126 127 144 143
127 128 145 144
128 129 146 145
129 130 147 146
130 131 148 147
131 132 149 148
132 133 150 149
133 134 151 150
134 135 152 151
135 136 153 152
