TITLE = "Solution"
VARIABLES = x, y, u, v, psiu, psiv, t, stress
ZONE T="structure" N=153 E=128 F=FEBLOCK ET=QUADRILATERAL VARLOCATION=([7,8]=cellcentered)
0.000000e+00
1.250000e+01
2.500000e+01
3.750000e+01
5.000000e+01
6.250000e+01
7.500000e+01
8.750000e+01
1.000000e+02
1.125000e+02
1.250000e+02
1.375000e+02
1.500000e+02
1.625000e+02
1.750000e+02
1.875000e+02
2.000000e+02
0.000000e+00
1.250000e+01
2.500000e+01
3.750000e+01
5.000000e+01
6.250000e+01
7.500000e+01
8.750000e+01
1.000000e+02
1.125000e+02
1.250000e+02
1.375000e+02
1.500000e+02
1.625000e+02
1.750000e+02
1.875000e+02
2.000000e+02
0.000000e+00
1.250000e+01
2.500000e+01
3.750000e+01
5.000000e+01
6.250000e+01
7.500000e+01
8.750000e+01
1.000000e+02
1.125000e+02
1.250000e+02
1.375000e+02
1.500000e+02
1.625000e+02
1.750000e+02
1.875000e+02
2.000000e+02
0.000000e+00
1.250000e+01
2.500000e+01
3.750000e+01
5.000000e+01
6.250000e+01
7.500000e+01
8.750000e+01
1.000000e+02
1.125000e+02
1.250000e+02
1.375000e+02
1.500000e+02
1.625000e+02
1.750000e+02
1.875000e+02
2.000000e+02
0.000000e+00
1.250000e+01
2.500000e+01
3.750000e+01
5.000000e+01
6.250000e+01
7.500000e+01
8.750000e+01
1.000000e+02
1.125000e+02
1.250000e+02
1.375000e+02
1.500000e+02
1.625000e+02
1.750000e+02
1.875000e+02
2.000000e+02
0.000000e+00
1.250000e+01
2.500000e+01
3.750000e+01
5.000000e+01
6.250000e+01
7.500000e+01
8.750000e+01
1.000000e+02
1.125000e+02
1.250000e+02
1.375000e+02
1.500000e+02
1.625000e+02
1.750000e+02
1.875000e+02
2.000000e+02
0.000000e+00
1.250000e+01
2.500000e+01
3.750000e+01
5.000000e+01
6.250000e+01
7.500000e+01
8.750000e+01
1.000000e+02
1.125000e+02
1.250000e+02
1.375000e+02
1.500000e+02
1.625000e+02
1.750000e+02
1.875000e+02
2.000000e+02
0.000000e+00
1.250000e+01
2.500000e+01
3.750000e+01
5.000000e+01
6.250000e+01
7.500000e+01
8.750000e+01
1.000000e+02
1.125000e+02
1.250000e+02
1.375000e+02
1.500000e+02
1.625000e+02
1.750000e+02
1.875000e+02
2.000000e+02
0.000000e+00
1.250000e+01
2.500000e+01
3.750000e+01
5.000000e+01
6.250000e+01
7.500000e+01
8.750000e+01
1.000000e+02
1.125000e+02
1.250000e+02
1.375000e+02
1.500000e+02
1.625000e+02
1.750000e+02
1.875000e+02
2.000000e+02
0.000000e+00
0.000000e+00
0.000000e+00
0.000000e+00
0.000000e+00
0.000000e+00
0.000000e+00
0.000000e+00
0.000000e+00
0.000000e+00
0.000000e+00
0.000000e+00
0.000000e+00
0.000000e+00
0.000000e+00
0.000000e+00
0.000000e+00
1.250000e+01
1.250000e+01
1.250000e+01
1.250000e+01
1.250000e+01
1.250000e+01
1.250000e+01
1.250000e+01
1.250000e+01
1.250000e+01
1.250000e+01
1.250000e+01
1.250000e+01
1.250000e+01
1.250000e+01
1.250000e+01
1.250000e+01
2.500000e+01
2.500000e+01
2.500000e+01
2.500000e+01
2.500000e+01
2.500000e+01
2.500000e+01
2.500000e+01
2.500000e+01
2.500000e+01
2.500000e+01
2.500000e+01
2.500000e+01
2.500000e+01
2.500000e+01
2.500000e+01
2.500000e+01
3.750000e+01
3.750000e+01
3.750000e+01
3.750000e+01
3.750000e+01
3.750000e+01
3.750000e+01
3.750000e+01
3.750000e+01
3.750000e+01
3.750000e+01
3.750000e+01
3.750000e+01
3.750000e+01
3.750000e+01
3.750000e+01
3.750000e+01
5.000000e+01
5.000000e+01
5.000000e+01
5.000000e+01
5.000000e+01
5.000000e+01
5.000000e+01
5.000000e+01
5.000000e+01
5.000000e+01
5.000000e+01
5.000000e+01
5.000000e+01
5.000000e+01
5.000000e+01
5.000000e+01
5.000000e+01
6.250000e+01
6.250000e+01
6.250000e+01
6.250000e+01
6.250000e+01
6.250000e+01
6.250000e+01
6.250000e+01
6.250000e+01
6.250000e+01
6.250000e+01
6.250000e+01
6.250000e+01
6.250000e+01
6.250000e+01
6.250000e+01
6.250000e+01
7.500000e+01
7.500000e+01
7.500000e+01
7.500000e+01
7.500000e+01
7.500000e+01
7.500000e+01
7.500000e+01
7.500000e+01
7.500000e+01
7.500000e+01
7.500000e+01
7.500000e+01
7.500000e+01
7.500000e+01
7.500000e+01
7.500000e+01
8.750000e+01
8.750000e+01
8.750000e+01
8.750000e+01
8.750000e+01
8.750000e+01
8.750000e+01
8.750000e+01
8.750000e+01
8.750000e+01
8.750000e+01
8.750000e+01
8.750000e+01
8.750000e+01
8.750000e+01
8.750000e+01
8.750000e+01
1.000000e+02
1.000000e+02
1.000000e+02
1.000000e+02
1.000000e+02
1.000000e+02
1.000000e+02
1.000000e+02
1.000000e+02
1.000000e+02
1.000000e+02
1.000000e+02
1.000000e+02
1.000000e+02
1.000000e+02
1.000000e+02
1.000000e+02
0.000000e+00
-9.894749e-01
-1.786283e+00
-2.531567e+00
-3.294374e+00
-4.067630e+00
-4.835599e+00
-5.596080e+00
-6.369648e+00
-7.249080e+00
-8.277707e+00
-9.171755e+00
-9.885189e+00
-1.063592e+01
-1.144533e+01
-1.221017e+01
-1.268647e+01
0.000000e+00
-5.487111e-01
-1.131322e+00
-1.685433e+00
-2.245467e+00
-2.806044e+00
-3.362549e+00
-3.908028e+00
-4.463688e+00
-5.102108e+00
-5.865109e+00
-6.519744e+00
-7.011139e+00
-7.442851e+00
-7.769366e+00
-7.838630e+00
-8.004809e+00
0.000000e+00
-2.999713e-01
-6.302751e-01
-9.860485e-01
-1.345265e+00
-1.701351e+00
-2.059769e+00
-2.422878e+00
-2.803111e+00
-3.233596e+00
-3.695954e+00
-4.063899e+00
-4.315213e+00
-4.461129e+00
-4.468783e+00
-4.413681e+00
-4.605645e+00
0.000000e+00
-1.269013e-01
-2.802378e-01
-4.488234e-01
-6.177477e-01
-7.811694e-01
-9.449413e-01
-1.120216e+00
-1.311968e+00
-1.517490e+00
-1.695261e+00
-1.811480e+00
-1.859197e+00
-1.835538e+00
-1.758582e+00
-1.753008e+00
-1.922834e+00
0.000000e+00
-3.249400e-03
-3.806244e-03
7.713852e-04
1.143349e-02
2.789604e-02
5.014057e-02
7.768901e-02
1.106853e-01
1.552093e-01
2.149570e-01
2.925847e-01
3.916652e-01
5.028473e-01
5.895495e-01
5.769498e-01
4.556332e-01
0.000000e+00
1.256346e-01
2.764183e-01
4.448625e-01
6.226388e-01
8.081922e-01
1.009474e+00
1.244189e+00
1.518416e+00
1.820428e+00
2.099940e+00
2.334840e+00
2.540981e+00
2.720557e+00
2.834473e+00
2.842779e+00
2.781080e+00
0.000000e+00
3.036624e-01
6.303553e-01
9.744449e-01
1.319809e+00
1.669900e+00
2.043554e+00
2.461515e+00
2.944253e+00
3.491677e+00
4.015366e+00
4.422623e+00
4.732315e+00
4.965374e+00
5.115221e+00
5.161528e+00
5.148462e+00
0.000000e+00
5.554674e-01
1.135432e+00
1.672597e+00
2.202881e+00
2.734214e+00
3.285404e+00
3.875144e+00
4.536114e+00
5.292916e+00
6.055516e+00
6.664773e+00
7.104373e+00
7.401441e+00
7.575731e+00
7.644715e+00
7.657487e+00
0.000000e+00
1.001392e+00
1.794853e+00
2.520281e+00
3.246290e+00
3.982838e+00
4.746402e+00
5.560053e+00
6.448634e+00
7.440701e+00
8.404226e+00
9.195712e+00
9.755083e+00
1.009997e+01
1.025103e+01
1.027493e+01
1.027050e+01
0.000000e+00
-6.043995e-01
-1.233403e+00
-2.059228e+00
-3.078609e+00
-4.306169e+00
-5.754350e+00
-7.433028e+00
-9.361692e+00
-1.157705e+01
-1.405661e+01
-1.668945e+01
-1.950782e+01
-2.257153e+01
-2.595012e+01
-2.988362e+01
-3.548678e+01
0.000000e+00
-3.802111e-01
-1.042043e+00
-1.864643e+00
-2.879889e+00
-4.105320e+00
-5.555591e+00
-7.235283e+00
-9.151278e+00
-1.133248e+01
-1.381190e+01
-1.649522e+01
-1.933870e+01
-2.240669e+01
-2.581634e+01
-2.976569e+01
-3.452247e+01
0.000000e+00
-3.074327e-01
-9.190996e-01
-1.736537e+00
-2.745672e+00
-3.964620e+00
-5.410770e+00
-7.090308e+00
-9.001623e+00
-1.118429e+01
-1.368003e+01
-1.639051e+01
-1.926172e+01
-2.235992e+01
-2.579591e+01
-2.954805e+01
-3.305065e+01
0.000000e+00
-3.010347e-01
-8.776552e-01
-1.674910e+00
-2.674465e+00
-3.882289e+00
-5.314700e+00
-6.990535e+00
-8.915345e+00
-1.113400e+01
-1.364932e+01
-1.637143e+01
-1.925933e+01
-2.236286e+01
-2.571911e+01
-2.909864e+01
-3.200779e+01
0.000000e+00
-3.109516e-01
-8.760898e-01
-1.664703e+00
-2.658137e+00
-3.859109e+00
-5.279891e+00
-6.951605e+00
-8.897336e+00
-1.115188e+01
-1.368444e+01
-1.640641e+01
-1.929419e+01
-2.236037e+01
-2.557523e+01
-2.865991e+01
-3.128551e+01
0.000000e+00
-3.060426e-01
-8.887818e-01
-1.689724e+00
-2.690267e+00
-3.894091e+00
-5.317329e+00
-6.992675e+00
-8.944660e+00
-1.121374e+01
-1.375504e+01
-1.647539e+01
-1.934766e+01
-2.236024e+01
-2.544184e+01
-2.835577e+01
-3.090616e+01
0.000000e+00
-3.145425e-01
-9.345641e-01
-1.758343e+00
-2.769767e+00
-3.983829e+00
-5.421157e+00
-7.105004e+00
-9.059388e+00
-1.132302e+01
-1.386024e+01
-1.657238e+01
-1.942584e+01
-2.238613e+01
-2.535877e+01
-2.817066e+01
-3.074040e+01
0.000000e+00
-3.872988e-01
-1.056373e+00
-1.884064e+00
-2.901099e+00
-4.123682e+00
-5.573325e+00
-7.270855e+00
-9.239804e+00
-1.150269e+01
-1.402043e+01
-1.670684e+01
-1.953207e+01
-2.244291e+01
-2.533918e+01
-2.809797e+01
-3.071539e+01
0.000000e+00
-6.125139e-01
-1.244796e+00
-2.071389e+00
-3.089805e+00
-4.318163e+00
-5.778010e+00
-7.492565e+00
-9.486115e+00
-1.176397e+01
-1.425140e+01
-1.688742e+01
-1.965804e+01
-2.251364e+01
-2.535475e+01
-2.808510e+01
-3.071984e+01


0.000000e+00
2.749442e-05
4.757196e-05
5.900094e-05
6.684949e-05
7.448308e-05
8.258393e-05
8.973701e-05
9.488717e-05
9.735518e-05
9.546682e-05
9.014759e-05
8.467668e-05
7.983795e-05
7.690564e-05
7.641860e-05
7.715781e-05
0.000000e+00
2.204332e-05
4.088156e-05
4.832220e-05
5.323510e-05
5.896540e-05
6.584669e-05
7.217635e-05
7.687109e-05
7.916032e-05
7.690635e-05
7.142702e-05
6.624459e-05
6.155001e-05
5.781579e-05
5.690158e-05
5.783968e-05
0.000000e+00
1.579046e-05
2.823196e-05
3.392581e-05
3.825992e-05
4.260769e-05
4.746347e-05
5.179075e-05
5.468134e-05
5.530316e-05
5.271140e-05
4.864093e-05
4.498823e-05
4.189901e-05
3.955787e-05
3.914707e-05
4.022994e-05
0.000000e+00
7.346668e-06
1.224818e-05
1.680082e-05
1.982709e-05
2.223416e-05
2.449105e-05
2.639309e-05
2.723557e-05
2.669816e-05
2.500786e-05
2.315047e-05
2.168981e-05
2.072234e-05
2.031248e-05
2.048072e-05
2.090033e-05
0.000000e+00
2.321886e-08
-3.774702e-08
-2.110831e-07
-5.500238e-07
-1.049175e-06
-1.506666e-06
-2.380641e-06
-2.873556e-06
-3.306575e-06
-3.211134e-06
-2.765563e-06
-2.223028e-06
-1.621032e-06
-1.172574e-06
-1.357259e-06
-1.955263e-06
0.000000e+00
-7.174939e-06
-1.205438e-05
-1.668358e-05
-2.010163e-05
-2.327643e-05
-2.755982e-05
-3.255165e-05
-3.516900e-05
-3.391020e-05
-3.122700e-05
-2.843962e-05
-2.624006e-05
-2.457144e-05
-2.384205e-05
-2.419986e-05
-2.501337e-05
0.000000e+00
-1.527991e-05
-2.715960e-05
-3.260073e-05
-3.677984e-05
-4.123349e-05
-4.869167e-05
-5.846436e-05
-6.481626e-05
-6.409097e-05
-5.893988e-05
-5.391546e-05
-5.072805e-05
-4.869108e-05
-4.738463e-05
-4.721715e-05
-4.758167e-05
0.000000e+00
-2.119843e-05
-3.913317e-05
-4.608937e-05
-5.060063e-05
-5.613924e-05
-6.487701e-05
-7.625332e-05
-8.547586e-05
-8.806362e-05
-8.378710e-05
-7.799194e-05
-7.442886e-05
-7.208991e-05
-7.020572e-05
-6.934557e-05
-6.918332e-05
0.000000e+00
-2.654732e-05
-4.573653e-05
-5.655051e-05
-6.411245e-05
-7.186542e-05
-8.162798e-05
-9.171215e-05
-1.001811e-04
-1.039754e-04
-1.028707e-04
-9.902054e-05
-9.590623e-05
-9.310422e-05
-9.081849e-05
-8.976529e-05
-8.950039e-05
0.000000e+00
2.224382e-05
3.190540e-05
4.166615e-05
5.585848e-05
7.337404e-05
9.259925e-05
1.123243e-04
1.319283e-04
1.500669e-04
1.653266e-04
1.803184e-04
1.960252e-04
2.109792e-04
2.272956e-04
2.479086e-04
2.697739e-04
0.000000e+00
1.151446e-05
2.538832e-05
3.787504e-05
5.265033e-05
6.965383e-05
8.874767e-05
1.091086e-04
1.297897e-04
1.495722e-04
1.669022e-04
1.828236e-04
1.985233e-04
2.132851e-04
2.280722e-04
2.468114e-04
2.679665e-04
0.000000e+00
5.026008e-06
1.948804e-05
3.476298e-05
5.004462e-05
6.688410e-05
8.594924e-05
1.069149e-04
1.287351e-04
1.499150e-04
1.685089e-04
1.850371e-04
2.007641e-04
2.153599e-04
2.285198e-04
2.449537e-04
2.652016e-04
0.000000e+00
3.250583e-06
1.628883e-05
3.221233e-05
4.834099e-05
6.558787e-05
8.489049e-05
1.064586e-04
1.291606e-04
1.507678e-04
1.695256e-04
1.860529e-04
2.017524e-04
2.165624e-04
2.294695e-04
2.439971e-04
2.631356e-04
0.000000e+00
3.293776e-06
1.541994e-05
3.110898e-05
4.770836e-05
6.499452e-05
8.418573e-05
1.063827e-04
1.297814e-04
1.513045e-04
1.696039e-04
1.859426e-04
2.017051e-04
2.171950e-04
2.313758e-04
2.457788e-04
2.638259e-04
0.000000e+00
3.487849e-06
1.649350e-05
3.235471e-05
4.840989e-05
6.495244e-05
8.380146e-05
1.062808e-04
1.300655e-04
1.511488e-04
1.688406e-04
1.849941e-04
2.011614e-04
2.174342e-04
2.329686e-04
2.483858e-04
2.661265e-04
0.000000e+00
5.302101e-06
1.965278e-05
3.482564e-05
4.997978e-05
6.632603e-05
8.558387e-05
1.081424e-04
1.307076e-04
1.502557e-04
1.671493e-04
1.833618e-04
2.002996e-04
2.172020e-04
2.334486e-04
2.500595e-04
2.684242e-04
0.000000e+00
1.151363e-05
2.527151e-05
3.773496e-05
5.245899e-05
6.965030e-05
9.037542e-05
1.128730e-04
1.331697e-04
1.498343e-04
1.648384e-04
1.811474e-04
1.989975e-04
2.164434e-04
2.331659e-04
2.506703e-04
2.695571e-04
0.000000e+00
2.176933e-05
3.145580e-05
4.132241e-05
5.558858e-05
7.379765e-05
9.576309e-05
1.180834e-04
1.367101e-04
1.502438e-04
1.629955e-04
1.790481e-04
1.976393e-04
2.154098e-04
2.326413e-04
2.507227e-04
2.698045e-04


2.559897e+00
2.487350e+00
2.526325e+00
2.767337e+00
3.003788e+00
3.240281e+00
3.590185e+00
4.207463e+00
6.019107e+00
8.043328e+00
7.986848e+00
7.044487e+00
7.384741e+00
7.319471e+00
5.939432e+00
4.673537e+00
3.284037e+00
3.319268e+00
3.407769e+00
3.616902e+00
3.896537e+00
4.389849e+00
4.689598e+00
5.304262e+00
6.715586e+00
8.192528e+00
7.904994e+00
7.023284e+00
7.180981e+00
7.475290e+00
6.362652e+00
5.141549e+00
4.970924e+00
5.010077e+00
4.806356e+00
4.747384e+00
5.054657e+00
5.664325e+00
6.364054e+00
6.858558e+00
7.747335e+00
8.219437e+00
7.638789e+00
6.906193e+00
7.093822e+00
7.757431e+00
7.585815e+00
6.682224e+00
6.636034e+00
6.254306e+00
5.463312e+00
5.050878e+00
5.218004e+00
5.976078e+00
7.024058e+00
7.926930e+00
8.316445e+00
7.965570e+00
7.272492e+00
6.836693e+00
7.274163e+00
8.113037e+00
8.356312e+00
7.824724e+00
6.548858e+00
6.061127e+00
5.327403e+00
5.013136e+00
5.327069e+00
6.157448e+00
7.322484e+00
8.211787e+00
8.475272e+00
7.900375e+00
7.036117e+00
7.082344e+00
7.607066e+00
8.420410e+00
8.431304e+00
7.624583e+00
4.846873e+00
4.793496e+00
4.580989e+00
4.700986e+00
5.201391e+00
6.045371e+00
6.968063e+00
7.774407e+00
8.504807e+00
8.209056e+00
7.388979e+00
7.215049e+00
7.891340e+00
8.357319e+00
8.034360e+00
7.401265e+00
3.336999e+00
3.281628e+00
3.326495e+00
3.526617e+00
3.922508e+00
4.637182e+00
5.377430e+00
6.581168e+00
7.925476e+00
8.534182e+00
7.935971e+00
7.574925e+00
7.469399e+00
7.444153e+00
6.992494e+00
6.367626e+00
2.592465e+00
2.474189e+00
2.448638e+00
2.640220e+00
2.917412e+00
3.385201e+00
4.171650e+00
5.470004e+00
7.301130e+00
8.310767e+00
8.306669e+00
7.714304e+00
7.110183e+00
6.546618e+00
5.817782e+00
5.014645e+00


-1.082442e+00
-6.731749e-01
-4.772870e-01
-5.301085e-01
-5.573563e-01
-5.396591e-01
-5.031287e-01
-5.682582e-01
-1.052362e+00
-1.826738e+00
-1.099079e+00
-2.725253e-01
-2.105334e-01
-1.096802e-01
3.829952e-01
-8.960534e-01
3.297137e-01
1.902170e-01
2.113423e-01
1.987169e-01
1.933913e-01
1.744149e-01
1.484568e-01
5.228014e-02
-2.557861e-01
-6.130361e-01
-1.159981e-01
4.072693e-01
6.259978e-01
7.833651e-01
5.849029e-01
-2.204954e+00
7.755654e-01
6.353387e-01
5.643665e-01
5.476917e-01
5.307134e-01
4.826344e-01
3.993942e-01
2.916609e-01
1.071966e-01
1.243585e-02
2.681158e-01
4.992850e-01
5.025337e-01
1.708324e-01
-4.354328e-01
-1.338082e+00
8.935021e-01
7.674568e-01
6.919397e-01
6.559812e-01
6.172750e-01
5.560700e-01
4.632799e-01
3.733808e-01
2.445419e-01
1.556928e-01
2.040644e-01
2.138185e-01
1.889765e-02
-4.158892e-01
-5.149508e-01
-4.154890e-01
8.953580e-01
7.703384e-01
6.852800e-01
6.283916e-01
5.669768e-01
4.844791e-01
3.635461e-01
2.410583e-01
8.111492e-02
-2.503874e-03
2.028394e-02
-3.660930e-02
-2.035403e-01
-3.514288e-01
-1.467015e-02
4.662539e-01
7.714905e-01
6.371366e-01
5.652202e-01
5.249456e-01
4.629913e-01
3.472066e-01
1.490713e-01
-1.160093e-01
-4.160758e-01
-4.147978e-01
-1.513864e-01
-4.516559e-02
-5.846827e-02
3.431771e-02
4.456400e-01
8.232628e-01
3.111490e-01
1.963195e-01
2.512625e-01
2.566086e-01
2.283675e-01
1.191621e-01
-9.454956e-02
-4.665364e-01
-9.636213e-01
-9.897304e-01
-3.778914e-01
6.810316e-02
3.175235e-01
5.474385e-01
8.286809e-01
9.773764e-01
-1.134447e+00
-6.588767e-01
-3.955920e-01
-3.824919e-01
-4.114708e-01
-5.236317e-01
-7.459637e-01
-1.145034e+00
-1.742378e+00
-1.679142e+00
-7.803919e-01
6.169165e-02
5.726941e-01
8.579995e-01
9.798199e-01
9.998443e-01
1 2 19 18
2 3 20 19
3 4 21 20
4 5 22 21
5 6 23 22
6 7 24 23
7 8 25 24
8 9 26 25
9 10 27 26
10 11 28 27
11 12 29 28
12 13 30 29
13 14 31 30
14 15 32 31
15 16 33 32
16 17 34 33
18 19 36 35
19 20 37 36
20 21 38 37
21 22 39 38
22 23 40 39
23 24 41 40
24 25 42 41
25 26 43 42
26 27 44 43
27 28 45 44
28 29 46 45
29 30 47 46
30 31 48 47
31 32 49 48
32 33 50 49
33 34 51 50
35 36 53 52
36 37 54 53
37 38 55 54
38 39 56 55
39 40 57 56
40 41 58 57
41 42 59 58
42 43 60 59
43 44 61 60
44 45 62 61
45 46 63 62
46 47 64 63
47 48 65 64
48 49 66 65
49 50 67 66
50 51 68 67
52 53 70 69
53 54 71 70
54 55 72 71
55 56 73 72
56 57 74 73
57 58 75 74
58 59 76 75
59 60 77 76
60 61 78 77
61 62 79 78
62 63 80 79
63 64 81 80
64 65 82 81
65 66 83 82
66 67 84 83
67 68 85 84
69 70 87 86
70 71 88 87
71 72 89 88
72 73 90 89
73 74 91 90
74 75 92 91
75 76 93 92
76 77 94 93
77 78 95 94
78 79 96 95
79 80 97 96
80 81 98 97
81 82 99 98
82 83 100 99
83 84 101 100
84 85 102 101
86 87 104 103
87 88 105 104
88 89 106 105
89 90 107 106
90 91 108 107
91 92 109 108
92 93 110 109
93 94 111 110
94 95 112 111
95 96 113 112
96 97 114 113
97 98 115 114
98 99 116 115
99 100 117 116
100 101 118 117
101 102 119 118
103 104 121 120
104 105 122 121
105 106 123 122
106 107 124 123
107 108 125 124
108 109 126 125
109 110 127 126
110 111 128 127
111 112 129 128
112 113 130 129
113 114 131 130
114 115 132 131
115 116 133 132
116 117 134 133
117 118 135 134
118 119 136 135
120 121 138 137
121 122 139 138
122 123 140 139
123 124 141 140
124 125 142 141
125 126 143 142
126 127 144 143
127 128 145 144
128 129 146 145
129 130 147 146
130 131 148 147
131 132 149 148
132 133 150 149
133 134 151 150
134 135 152 151
135 136 153 152
