TITLE = "Solution"
VARIABLES = x, y, u, v, psiu, psiv, t, stress
ZONE T="structure" N=153 E=128 F=FEBLOCK ET=QUADRILATERAL VARLOCATION=([7,8]=cellcentered)
0.000000e+00
1.250000e+01
2.500000e+01
3.750000e+01
5.000000e+01
6.250000e+01
7.500000e+01
8.750000e+01
1.000000e+02
1.125000e+02
1.250000e+02
1.375000e+02
1.500000e+02
1.625000e+02
1.750000e+02
1.875000e+02
2.000000e+02
0.000000e+00
1.250000e+01
2.500000e+01
3.750000e+01
5.000000e+01
6.250000e+01
7.500000e+01
8.750000e+01
1.000000e+02
1.125000e+02
1.250000e+02
1.375000e+02
1.500000e+02
1.625000e+02
1.750000e+02
1.875000e+02
2.000000e+02
0.000000e+00
1.250000e+01
2.500000e+01
3.750000e+01
5.000000e+01
6.250000e+01
7.500000e+01
8.750000e+01
1.000000e+02
1.125000e+02
1.250000e+02
1.375000e+02
1.500000e+02
1.625000e+02
1.750000e+02
1.875000e+02
2.000000e+02
0.000000e+00
1.250000e+01
2.500000e+01
3.750000e+01
5.000000e+01
6.250000e+01
7.500000e+01
8.750000e+01
1.000000e+02
1.125000e+02
1.250000e+02
1.375000e+02
1.500000e+02
1.625000e+02
1.750000e+02
1.875000e+02
2.000000e+02
0.000000e+00
1.250000e+01
2.500000e+01
3.750000e+01
5.000000e+01
6.250000e+01
7.500000e+01
8.750000e+01
1.000000e+02
1.125000e+02
1.250000e+02
1.375000e+02
1.500000e+02
1.625000e+02
1.750000e+02
1.875000e+02
2.000000e+02
0.000000e+00
1.250000e+01
2.500000e+01
3.750000e+01
5.000000e+01
6.250000e+01
7.500000e+01
8.750000e+01
1.000000e+02
1.125000e+02
1.250000e+02
1.375000e+02
1.500000e+02
1.625000e+02
1.750000e+02
1.875000e+02
2.000000e+02
0.000000e+00
1.250000e+01
2.500000e+01
3.750000e+01
5.000000e+01
6.250000e+01
7.500000e+01
8.750000e+01
1.000000e+02
1.125000e+02
1.250000e+02
1.375000e+02
1.500000e+02
1.625000e+02
1.750000e+02
1.875000e+02
2.000000e+02
0.000000e+00
1.250000e+01
2.500000e+01
3.750000e+01
5.000000e+01
6.250000e+01
7.500000e+01
8.750000e+01
1.000000e+02
1.125000e+02
1.250000e+02
1.375000e+02
1.500000e+02
1.625000e+02
1.750000e+02
1.875000e+02
2.000000e+02
0.000000e+00
1.250000e+01
2.500000e+01
3.750000e+01
5.000000e+01
6.250000e+01
7.500000e+01
8.750000e+01
1.000000e+02
1.125000e+02
1.250000e+02
1.375000e+02
1.500000e+02
1.625000e+02
1.750000e+02
1.875000e+02
2.000000e+02
0.000000e+00
0.000000e+00
0.000000e+00
0.000000e+00
0.000000e+00
0.000000e+00
0.000000e+00
0.000000e+00
0.000000e+00
0.000000e+00
0.000000e+00
0.000000e+00
0.000000e+00
0.000000e+00
0.000000e+00
0.000000e+00
0.000000e+00
1.250000e+01
1.250000e+01
1.250000e+01
1.250000e+01
1.250000e+01
1.250000e+01
1.250000e+01
1.250000e+01
1.250000e+01
1.250000e+01
1.250000e+01
1.250000e+01
1.250000e+01
1.250000e+01
1.250000e+01
1.250000e+01
1.250000e+01
2.500000e+01
2.500000e+01
2.500000e+01
2.500000e+01
2.500000e+01
2.500000e+01
2.500000e+01
2.500000e+01
2.500000e+01
2.500000e+01
2.500000e+01
2.500000e+01
2.500000e+01
2.500000e+01
2.500000e+01
2.500000e+01
2.500000e+01
3.750000e+01
3.750000e+01
3.750000e+01
3.750000e+01
3.750000e+01
3.750000e+01
3.750000e+01
3.750000e+01
3.750000e+01
3.750000e+01
3.750000e+01
3.750000e+01
3.750000e+01
3.750000e+01
3.750000e+01
3.750000e+01
3.750000e+01
5.000000e+01
5.000000e+01
5.000000e+01
5.000000e+01
5.000000e+01
5.000000e+01
5.000000e+01
5.000000e+01
5.000000e+01
5.000000e+01
5.000000e+01
5.000000e+01
5.000000e+01
5.000000e+01
5.000000e+01
5.000000e+01
5.000000e+01
6.250000e+01
6.250000e+01
6.250000e+01
6.250000e+01
6.250000e+01
6.250000e+01
6.250000e+01
6.250000e+01
6.250000e+01
6.250000e+01
6.250000e+01
6.250000e+01
6.250000e+01
6.250000e+01
6.250000e+01
6.250000e+01
6.250000e+01
7.500000e+01
7.500000e+01
7.500000e+01
7.500000e+01
7.500000e+01
7.500000e+01
7.500000e+01
7.500000e+01
7.500000e+01
7.500000e+01
7.500000e+01
7.500000e+01
7.500000e+01
7.500000e+01
7.500000e+01
7.500000e+01
7.500000e+01
8.750000e+01
8.750000e+01
8.750000e+01
8.750000e+01
8.750000e+01
8.750000e+01
8.750000e+01
8.750000e+01
8.750000e+01
8.750000e+01
8.750000e+01
8.750000e+01
8.750000e+01
8.750000e+01
8.750000e+01
8.750000e+01
8.750000e+01
1.000000e+02
1.000000e+02
1.000000e+02
1.000000e+02
1.000000e+02
1.000000e+02
1.000000e+02
1.000000e+02
1.000000e+02
1.000000e+02
1.000000e+02
1.000000e+02
1.000000e+02
1.000000e+02
1.000000e+02
1.000000e+02
1.000000e+02
0.000000e+00
-1.012088e+00
-1.818942e+00
-2.564463e+00
-3.321739e+00
-4.089397e+00
-4.856322e+00
-5.622767e+00
-6.410084e+00
-7.296492e+00
-8.310553e+00
-9.199320e+00
-9.927797e+00
-1.069097e+01
-1.149365e+01
-1.223778e+01
-1.269981e+01
0.000000e+00
-5.614970e-01
-1.151962e+00
-1.706549e+00
-2.262312e+00
-2.818292e+00
-3.373816e+00
-3.925451e+00
-4.495649e+00
-5.146023e+00
-5.898976e+00
-6.554322e+00
-7.058495e+00
-7.503579e+00
-7.830368e+00
-7.898459e+00
-8.060238e+00
0.000000e+00
-3.049527e-01
-6.382519e-01
-9.942794e-01
-1.351824e+00
-1.706536e+00
-2.066311e+00
-2.436260e+00
-2.829638e+00
-3.270583e+00
-3.737038e+00
-4.110887e+00
-4.371463e+00
-4.524878e+00
-4.535565e+00
-4.483196e+00
-4.670970e+00
0.000000e+00
-1.266813e-01
-2.795426e-01
-4.482047e-01
-6.182939e-01
-7.842618e-01
-9.524693e-01
-1.134430e+00
-1.335191e+00
-1.552316e+00
-1.742221e+00
-1.865517e+00
-1.919309e+00
-1.899970e+00
-1.824233e+00
-1.816443e+00
-1.983177e+00
0.000000e+00
-5.702942e-03
-9.188851e-03
-7.868728e-03
-8.624516e-04
1.118213e-02
2.821139e-02
5.047818e-02
7.961097e-02
1.221131e-01
1.804523e-01
2.559623e-01
3.501307e-01
4.561271e-01
5.390887e-01
5.243978e-01
4.024515e-01
0.000000e+00
1.204290e-01
2.655673e-01
4.287815e-01
6.017611e-01
7.824750e-01
9.784022e-01
1.206478e+00
1.474750e+00
1.781007e+00
2.068174e+00
2.299322e+00
2.498673e+00
2.673971e+00
2.784749e+00
2.790695e+00
2.726926e+00
0.000000e+00
3.031316e-01
6.282947e-01
9.699601e-01
1.312185e+00
1.658478e+00
2.026728e+00
2.435745e+00
2.906595e+00
3.449113e+00
3.973510e+00
4.369899e+00
4.665603e+00
4.896938e+00
5.050488e+00
5.098150e+00
5.084378e+00
0.000000e+00
5.614346e-01
1.144774e+00
1.681754e+00
2.209941e+00
2.738399e+00
3.285686e+00
3.870362e+00
4.525672e+00
5.272111e+00
6.021302e+00
6.605260e+00
7.023221e+00
7.316981e+00
7.497580e+00
7.569381e+00
7.582566e+00
0.000000e+00
1.014708e+00
1.814530e+00
2.541106e+00
3.265289e+00
3.999094e+00
4.759426e+00
5.571376e+00
6.461516e+00
7.439275e+00
8.375812e+00
9.121679e+00
9.657716e+00
1.000533e+01
1.016640e+01
1.019224e+01
1.018785e+01
0.000000e+00
-6.175588e-01
-1.257268e+00
-2.094465e+00
-3.125124e+00
-4.364166e+00
-5.824807e+00
-7.518098e+00
-9.462560e+00
-1.168650e+01
-1.416315e+01
-1.679260e+01
-1.960422e+01
-2.265709e+01
-2.602097e+01
-2.993268e+01
-3.546636e+01
0.000000e+00
-3.890859e-01
-1.064619e+00
-1.900590e+00
-2.928037e+00
-4.164391e+00
-5.625320e+00
-7.317122e+00
-9.248180e+00
-1.144297e+01
-1.392158e+01
-1.659660e+01
-1.943050e+01
-2.249050e+01
-2.588956e+01
-2.981774e+01
-3.453138e+01
0.000000e+00
-3.150828e-01
-9.405380e-01
-1.772377e+00
-2.794446e+00
-4.024280e+00
-5.479740e+00
-7.169093e+00
-9.095289e+00
-1.129358e+01
-1.379265e+01
-1.649201e+01
-1.935146e+01
-2.244055e+01
-2.586784e+01
-2.960314e+01
-3.309698e+01
0.000000e+00
-3.096133e-01
-8.985452e-01
-1.709474e+00
-2.722229e+00
-3.941547e+00
-5.383338e+00
-7.067945e+00
-9.005221e+00
-1.124004e+01
-1.376537e+01
-1.647672e+01
-1.934631e+01
-2.243881e+01
-2.578779e+01
-2.916019e+01
-3.207270e+01
0.000000e+00
-3.204464e-01
-8.962995e-01
-1.697462e+00
-2.703980e+00
-3.917130e+00
-5.348572e+00
-7.029681e+00
-8.983652e+00
-1.125596e+01
-1.380422e+01
-1.651495e+01
-1.937704e+01
-2.243197e+01
-2.564325e+01
-2.872597e+01
-3.135395e+01
0.000000e+00
-3.132834e-01
-9.065628e-01
-1.720091e+00
-2.733984e+00
-3.950599e+00
-5.385705e+00
-7.071183e+00
-9.031021e+00
-1.131875e+01
-1.387890e+01
-1.658521e+01
-1.942769e+01
-2.242601e+01
-2.550793e+01
-2.842127e+01
-3.096863e+01
0.000000e+00
-3.196959e-01
-9.507022e-01
-1.787237e+00
-2.811671e+00
-4.038231e+00
-5.486999e+00
-7.181265e+00
-9.147620e+00
-1.143034e+01
-1.398350e+01
-1.668150e+01
-1.950258e+01
-2.244747e+01
-2.542188e+01
-2.823326e+01
-3.079601e+01
0.000000e+00
-3.926777e-01
-1.072481e+00
-1.912312e+00
-2.941781e+00
-4.176219e+00
-5.636575e+00
-7.344519e+00
-9.328650e+00
-1.161026e+01
-1.413895e+01
-1.681002e+01
-1.960597e+01
-2.250308e+01
-2.540162e+01
-2.815856e+01
-3.076886e+01
0.000000e+00
-6.203822e-01
-1.261616e+00
-2.099345e+00
-3.129635e+00
-4.369517e+00
-5.839881e+00
-7.565530e+00
-9.574384e+00
-1.186750e+01
-1.436070e+01
-1.698054e+01
-1.972957e+01
-2.257564e+01
-2.541817e+01
-2.814533e+01
-3.077326e+01


0.000000e+00
2.598985e-05
4.521535e-05
5.630079e-05
6.397381e-05
7.148877e-05
7.971654e-05
8.718789e-05
9.264302e-05
9.518738e-05
9.311801e-05
8.748167e-05
8.160368e-05
7.648927e-05
7.350693e-05
7.300942e-05
7.370676e-05
0.000000e+00
2.122038e-05
3.942057e-05
4.674953e-05
5.152729e-05
5.707180e-05
6.393759e-05
7.047241e-05
7.535638e-05
7.760617e-05
7.521612e-05
6.954996e-05
6.407339e-05
5.914081e-05
5.542469e-05
5.456328e-05
5.546652e-05
0.000000e+00
1.546484e-05
2.767893e-05
3.333778e-05
3.755467e-05
4.177977e-05
4.662162e-05
5.103622e-05
5.394714e-05
5.440415e-05
5.157796e-05
4.727898e-05
4.344238e-05
4.036440e-05
3.817372e-05
3.785330e-05
3.890155e-05
0.000000e+00
7.441748e-06
1.243419e-05
1.699616e-05
2.000405e-05
2.234744e-05
2.454557e-05
2.638089e-05
2.699272e-05
2.620871e-05
2.430173e-05
2.236427e-05
2.105614e-05
2.028501e-05
2.009336e-05
2.031124e-05
2.068166e-05
0.000000e+00
4.358452e-07
7.454269e-07
8.186217e-07
5.152568e-07
-2.017132e-07
-9.416902e-07
-2.524082e-06
-3.386924e-06
-4.071659e-06
-3.662590e-06
-2.526189e-06
-1.272591e-06
-4.022670e-07
-1.984899e-07
-5.347489e-07
-1.261751e-06
0.000000e+00
-5.940987e-06
-1.015894e-05
-1.418096e-05
-1.741582e-05
-2.075376e-05
-2.635143e-05
-3.355412e-05
-3.747974e-05
-3.587028e-05
-3.275605e-05
-2.894169e-05
-2.535431e-05
-2.301146e-05
-2.249399e-05
-2.311387e-05
-2.407943e-05
0.000000e+00
-1.254530e-05
-2.279793e-05
-2.797725e-05
-3.185426e-05
-3.608882e-05
-4.513823e-05
-5.852414e-05
-6.735797e-05
-6.692157e-05
-6.178462e-05
-5.628793e-05
-5.182969e-05
-4.866094e-05
-4.699485e-05
-4.667948e-05
-4.707594e-05
0.000000e+00
-1.724284e-05
-3.273166e-05
-3.963407e-05
-4.410119e-05
-4.947564e-05
-5.940174e-05
-7.393185e-05
-8.570885e-05
-8.895301e-05
-8.536616e-05
-7.992847e-05
-7.596344e-05
-7.292684e-05
-7.056746e-05
-6.951757e-05
-6.932349e-05
0.000000e+00
-2.200317e-05
-3.879872e-05
-4.910578e-05
-5.679889e-05
-6.489003e-05
-7.610022e-05
-8.813078e-05
-9.837002e-05
-1.025988e-04
-1.018905e-04
-9.854526e-05
-9.584126e-05
-9.365974e-05
-9.157716e-05
-9.048553e-05
-9.020245e-05
0.000000e+00
2.094607e-05
2.960175e-05
3.820548e-05
5.102041e-05
6.726414e-05
8.555749e-05
1.046259e-04
1.236920e-04
1.413313e-04
1.561334e-04
1.703995e-04
1.850911e-04
1.990164e-04
2.144273e-04
2.339586e-04
2.546355e-04
0.000000e+00
1.064493e-05
2.326413e-05
3.448475e-05
4.788787e-05
6.358608e-05
8.163011e-05
1.012774e-04
1.214783e-04
1.408609e-04
1.577950e-04
1.730302e-04
1.877240e-04
2.013549e-04
2.151825e-04
2.329115e-04
2.529137e-04
0.000000e+00
4.318717e-06
1.750334e-05
3.140090e-05
4.529714e-05
6.077560e-05
7.871463e-05
9.897932e-05
1.204429e-04
1.413451e-04
1.595547e-04
1.754288e-04
1.900454e-04
2.033913e-04
2.155576e-04
2.311168e-04
2.502870e-04
0.000000e+00
2.557241e-06
1.434174e-05
2.882965e-05
4.347255e-05
5.924493e-05
7.736332e-05
9.841607e-05
1.210476e-04
1.425217e-04
1.608967e-04
1.767158e-04
1.909409e-04
2.043384e-04
2.163269e-04
2.301970e-04
2.484379e-04
0.000000e+00
2.667734e-06
1.341237e-05
2.759109e-05
4.265099e-05
5.830691e-05
7.613323e-05
9.822824e-05
1.220272e-04
1.434329e-04
1.614200e-04
1.768031e-04
1.906445e-04
2.044302e-04
2.180163e-04
2.320006e-04
2.495333e-04
0.000000e+00
2.962026e-06
1.426030e-05
2.852015e-05
4.321294e-05
5.795319e-05
7.550813e-05
9.831977e-05
1.228754e-04
1.436030e-04
1.608219e-04
1.756838e-04
1.893990e-04
2.040370e-04
2.194771e-04
2.347133e-04
2.523489e-04
0.000000e+00
4.567951e-06
1.693257e-05
3.060869e-05
4.456270e-05
5.952786e-05
7.821893e-05
1.015992e-04
1.245375e-04
1.429468e-04
1.590022e-04
1.733887e-04
1.876969e-04
2.032923e-04
2.197848e-04
2.364776e-04
2.550891e-04
0.000000e+00
9.761860e-06
2.186678e-05
3.332362e-05
4.690993e-05
6.322368e-05
8.441180e-05
1.080887e-04
1.280925e-04
1.429497e-04
1.565261e-04
1.707105e-04
1.860010e-04
2.023425e-04
2.192999e-04
2.370800e-04
2.564022e-04
0.000000e+00
1.833161e-05
2.746986e-05
3.682827e-05
5.001796e-05
6.764064e-05
9.077033e-05
1.143901e-04
1.323145e-04
1.435492e-04
1.547382e-04
1.687052e-04
1.846461e-04
2.014098e-04
2.186560e-04
2.371228e-04
2.566734e-04


2.626665e+00
2.524503e+00
2.523710e+00
2.745865e+00
2.985923e+00
3.248432e+00
3.652178e+00
4.354616e+00
6.062344e+00
7.968910e+00
8.011502e+00
7.220811e+00
7.509103e+00
7.312385e+00
5.808917e+00
4.522847e+00
3.376616e+00
3.378844e+00
3.417547e+00
3.586268e+00
3.852919e+00
4.380254e+00
4.754937e+00
5.428114e+00
6.702623e+00
8.028140e+00
7.936509e+00
7.253978e+00
7.454133e+00
7.549250e+00
6.278756e+00
5.015968e+00
5.122703e+00
5.145916e+00
4.906882e+00
4.815047e+00
5.099512e+00
5.731362e+00
6.506279e+00
7.061647e+00
7.836882e+00
8.255709e+00
7.636147e+00
7.016743e+00
7.169145e+00
7.792837e+00
7.493181e+00
6.606956e+00
6.887366e+00
6.499310e+00
5.715493e+00
5.317369e+00
5.475946e+00
6.224931e+00
7.307118e+00
8.235748e+00
8.624500e+00
8.185221e+00
7.262040e+00
6.612194e+00
7.150808e+00
8.014359e+00
8.300445e+00
7.830831e+00
6.817033e+00
6.307109e+00
5.572157e+00
5.275788e+00
5.560146e+00
6.349066e+00
7.510865e+00
8.431707e+00
8.902613e+00
8.331106e+00
7.140150e+00
6.954821e+00
7.562083e+00
8.452437e+00
8.497045e+00
7.729687e+00
5.001860e+00
4.917915e+00
4.665422e+00
4.751658e+00
5.198124e+00
5.985191e+00
6.906060e+00
7.787282e+00
8.722027e+00
8.581573e+00
7.494971e+00
7.135281e+00
7.957210e+00
8.520765e+00
8.195040e+00
7.582144e+00
3.392577e+00
3.312756e+00
3.321426e+00
3.489104e+00
3.839378e+00
4.521164e+00
5.247371e+00
6.441075e+00
7.819663e+00
8.434445e+00
7.724210e+00
7.232034e+00
7.420104e+00
7.648074e+00
7.222300e+00
6.573734e+00
2.615242e+00
2.481912e+00
2.436114e+00
2.616372e+00
2.886064e+00
3.337372e+00
4.114400e+00
5.381504e+00
6.992001e+00
7.953015e+00
7.853648e+00
7.358775e+00
7.045786e+00
6.837098e+00
6.069245e+00
5.206667e+00


-1.179086e+00
-7.169861e-01
-4.791835e-01
-5.080436e-01
-5.341990e-01
-5.356524e-01
-5.322644e-01
-6.364871e-01
-1.103866e+00
-1.750911e+00
-1.086105e+00
-3.302070e-01
-2.630871e-01
-9.796933e-02
4.142463e-01
-7.856485e-01
3.015237e-01
1.705192e-01
2.091129e-01
2.071107e-01
2.011729e-01
1.706738e-01
1.218051e-01
-3.836024e-03
-3.078793e-01
-6.026268e-01
-1.263839e-01
3.797192e-01
6.071061e-01
7.857278e-01
6.024050e-01
-2.055491e+00
7.683755e-01
6.269847e-01
5.578990e-01
5.412267e-01
5.207663e-01
4.659372e-01
3.720398e-01
2.491187e-01
5.814967e-02
-2.207192e-02
2.658874e-01
5.069190e-01
5.134998e-01
1.886527e-01
-3.904563e-01
-1.260953e+00
8.849826e-01
7.482010e-01
6.627238e-01
6.203097e-01
5.776740e-01
5.138153e-01
4.189200e-01
3.288792e-01
1.975412e-01
1.395200e-01
2.587312e-01
3.000592e-01
9.142641e-02
-3.527892e-01
-4.631622e-01
-3.916375e-01
8.893177e-01
7.552040e-01
6.618045e-01
5.997308e-01
5.362162e-01
4.530262e-01
3.309237e-01
2.051467e-01
1.647732e-02
-5.237712e-02
5.592864e-02
3.577744e-02
-1.659891e-01
-3.451659e-01
-1.200219e-02
4.583884e-01
7.728096e-01
6.386598e-01
5.691436e-01
5.313436e-01
4.727993e-01
3.622160e-01
1.715459e-01
-9.601695e-02
-4.555009e-01
-4.825580e-01
-1.349679e-01
-4.396408e-03
-7.332898e-02
-1.353185e-02
4.208766e-01
8.135289e-01
3.019925e-01
1.919608e-01
2.552637e-01
2.656499e-01
2.412019e-01
1.394542e-01
-6.006705e-02
-4.184950e-01
-9.220061e-01
-9.589986e-01
-2.893560e-01
1.457862e-01
3.215807e-01
5.164430e-01
8.160032e-01
9.753559e-01
-1.187173e+00
-6.827140e-01
-3.979192e-01
-3.740173e-01
-3.988304e-01
-5.065572e-01
-7.279321e-01
-1.131454e+00
-1.666454e+00
-1.555493e+00
-6.053242e-01
1.442113e-01
5.724230e-01
8.429395e-01
9.777907e-01
9.998226e-01
1 2 19 18
2 3 20 19
3 4 21 20
4 5 22 21
5 6 23 22
6 7 24 23
7 8 25 24
8 9 26 25
9 10 27 26
10 11 28 27
11 12 29 28
12 13 30 29
13 14 31 30
14 15 32 31
15 16 33 32
16 17 34 33
18 19 36 35
19 20 37 36
20 21 38 37
21 22 39 38
22 23 40 39
23 24 41 40
24 25 42 41
25 26 43 42
26 27 44 43
27 28 45 44
28 29 46 45
29 30 47 46
30 31 48 47
31 32 49 48
32 33 50 49
33 34 51 50
35 36 53 52
36 37 54 53
37 38 55 54
38 39 56 55
39 40 57 56
40 41 58 57
41 42 59 58
42 43 60 59
43 44 61 60
44 45 62 61
45 46 63 62
46 47 64 63
47 48 65 64
48 49 66 65
49 50 67 66
50 51 68 67
52 53 70 69
53 54 71 70
54 55 72 71
55 56 73 72
56 57 74 73
57 58 75 74
58 59 76 75
59 60 77 76
60 61 78 77
61 62 79 78
62 63 80 79
63 64 81 80
64 65 82 81
65 66 83 82
66 67 84 83
67 68 85 84
69 70 87 86
70 71 88 87
71 72 89 88
72 73 90 89
73 74 91 90
74 75 92 91
75 76 93 92
76 77 94 93
77 78 95 94
78 79 96 95
79 80 97 96
80 81 98 97
81 82 99 98
82 83 100 99
83 84 101 100
84 85 102 101
86 87 104 103
87 88 105 104
88 89 106 105
89 90 107 106
90 91 108 107
91 92 109 108
92 93 110 109
93 94 111 110
94 95 112 111
95 96 113 112
96 97 114 113
97 98 115 114
98 99 116 115
99 100 117 116
100 101 118 117
101 102 119 118
103 104 121 120
104 105 122 121
105 106 123 122
106 107 124 123
107 108 125 124
108 109 126 125
109 110 127 126
110 111 128 127
111 112 129 128
112 113 130 129
113 114 131 130
114 115 132 131
115 116 133 132
116 117 134 133
117 118 135 134
118 119 136 135
120 121 138 137
121 122 139 138
122 123 140 139
123 124 141 140
124 125 142 141
125 126 143 142
126 127 144 143
127 128 145 144
128 129 146 145
129 130 147 146
130 131 148 147
131 132 149 148
132 133 150 149
133 134 151 150
134 135 152 151
135 136 153 152
