TITLE = "Solution"
VARIABLES = x, y, u, v, psiu, psiv, t, stress
ZONE T="structure" N=153 E=128 F=FEBLOCK ET=QUADRILATERAL VARLOCATION=([7,8]=cellcentered)
0.000000e+00
1.250000e+01
2.500000e+01
3.750000e+01
5.000000e+01
6.250000e+01
7.500000e+01
8.750000e+01
1.000000e+02
1.125000e+02
1.250000e+02
1.375000e+02
1.500000e+02
1.625000e+02
1.750000e+02
1.875000e+02
2.000000e+02
0.000000e+00
1.250000e+01
2.500000e+01
3.750000e+01
5.000000e+01
6.250000e+01
7.500000e+01
8.750000e+01
1.000000e+02
1.125000e+02
1.250000e+02
1.375000e+02
1.500000e+02
1.625000e+02
1.750000e+02
1.875000e+02
2.000000e+02
0.000000e+00
1.250000e+01
2.500000e+01
3.750000e+01
5.000000e+01
6.250000e+01
7.500000e+01
8.750000e+01
1.000000e+02
1.125000e+02
1.250000e+02
1.375000e+02
1.500000e+02
1.625000e+02
1.750000e+02
1.875000e+02
2.000000e+02
0.000000e+00
1.250000e+01
2.500000e+01
3.750000e+01
5.000000e+01
6.250000e+01
7.500000e+01
8.750000e+01
1.000000e+02
1.125000e+02
1.250000e+02
1.375000e+02
1.500000e+02
1.625000e+02
1.750000e+02
1.875000e+02
2.000000e+02
0.000000e+00
1.250000e+01
2.500000e+01
3.750000e+01
5.000000e+01
6.250000e+01
7.500000e+01
8.750000e+01
1.000000e+02
1.125000e+02
1.250000e+02
1.375000e+02
1.500000e+02
1.625000e+02
1.750000e+02
1.875000e+02
2.000000e+02
0.000000e+00
1.250000e+01
2.500000e+01
3.750000e+01
5.000000e+01
6.250000e+01
7.500000e+01
8.750000e+01
1.000000e+02
1.125000e+02
1.250000e+02
1.375000e+02
1.500000e+02
1.625000e+02
1.750000e+02
1.875000e+02
2.000000e+02
0.000000e+00
1.250000e+01
2.500000e+01
3.750000e+01
5.000000e+01
6.250000e+01
7.500000e+01
8.750000e+01
1.000000e+02
1.125000e+02
1.250000e+02
1.375000e+02
1.500000e+02
1.625000e+02
1.750000e+02
1.875000e+02
2.000000e+02
0.000000e+00
1.250000e+01
2.500000e+01
3.750000e+01
5.000000e+01
6.250000e+01
7.500000e+01
8.750000e+01
1.000000e+02
1.125000e+02
1.250000e+02
1.375000e+02
1.500000e+02
1.625000e+02
1.750000e+02
1.875000e+02
2.000000e+02
0.000000e+00
1.250000e+01
2.500000e+01
3.750000e+01
5.000000e+01
6.250000e+01
7.500000e+01
8.750000e+01
1.000000e+02
1.125000e+02
1.250000e+02
1.375000e+02
1.500000e+02
1.625000e+02
1.750000e+02
1.875000e+02
2.000000e+02
0.000000e+00
0.000000e+00
0.000000e+00
0.000000e+00
0.000000e+00
0.000000e+00
0.000000e+00
0.000000e+00
0.000000e+00
0.000000e+00
0.000000e+00
0.000000e+00
0.000000e+00
0.000000e+00
0.000000e+00
0.000000e+00
0.000000e+00
1.250000e+01
1.250000e+01
1.250000e+01
1.250000e+01
1.250000e+01
1.250000e+01
1.250000e+01
1.250000e+01
1.250000e+01
1.250000e+01
1.250000e+01
1.250000e+01
1.250000e+01
1.250000e+01
1.250000e+01
1.250000e+01
1.250000e+01
2.500000e+01
2.500000e+01
2.500000e+01
2.500000e+01
2.500000e+01
2.500000e+01
2.500000e+01
2.500000e+01
2.500000e+01
2.500000e+01
2.500000e+01
2.500000e+01
2.500000e+01
2.500000e+01
2.500000e+01
2.500000e+01
2.500000e+01
3.750000e+01
3.750000e+01
3.750000e+01
3.750000e+01
3.750000e+01
3.750000e+01
3.750000e+01
3.750000e+01
3.750000e+01
3.750000e+01
3.750000e+01
3.750000e+01
3.750000e+01
3.750000e+01
3.750000e+01
3.750000e+01
3.750000e+01
5.000000e+01
5.000000e+01
5.000000e+01
5.000000e+01
5.000000e+01
5.000000e+01
5.000000e+01
5.000000e+01
5.000000e+01
5.000000e+01
5.000000e+01
5.000000e+01
5.000000e+01
5.000000e+01
5.000000e+01
5.000000e+01
5.000000e+01
6.250000e+01
6.250000e+01
6.250000e+01
6.250000e+01
6.250000e+01
6.250000e+01
6.250000e+01
6.250000e+01
6.250000e+01
6.250000e+01
6.250000e+01
6.250000e+01
6.250000e+01
6.250000e+01
6.250000e+01
6.250000e+01
6.250000e+01
7.500000e+01
7.500000e+01
7.500000e+01
7.500000e+01
7.500000e+01
7.500000e+01
7.500000e+01
7.500000e+01
7.500000e+01
7.500000e+01
7.500000e+01
7.500000e+01
7.500000e+01
7.500000e+01
7.500000e+01
7.500000e+01
7.500000e+01
8.750000e+01
8.750000e+01
8.750000e+01
8.750000e+01
8.750000e+01
8.750000e+01
8.750000e+01
8.750000e+01
8.750000e+01
8.750000e+01
8.750000e+01
8.750000e+01
8.750000e+01
8.750000e+01
8.750000e+01
8.750000e+01
8.750000e+01
1.000000e+02
1.000000e+02
1.000000e+02
1.000000e+02
1.000000e+02
1.000000e+02
1.000000e+02
1.000000e+02
1.000000e+02
1.000000e+02
1.000000e+02
1.000000e+02
1.000000e+02
1.000000e+02
1.000000e+02
1.000000e+02
1.000000e+02
0.000000e+00
-1.403995e-01
-2.585198e-01
-3.672064e-01
-4.684253e-01
-5.619627e-01
-6.476176e-01
-7.253231e-01
-7.951922e-01
-8.575465e-01
-9.130040e-01
-9.626484e-01
-1.008344e+00
-1.053313e+00
-1.103110e+00
-1.164267e+00
-1.210158e+00
0.000000e+00
-8.384363e-02
-1.741689e-01
-2.575791e-01
-3.344265e-01
-4.050031e-01
-4.694551e-01
-5.278684e-01
-5.803483e-01
-6.270561e-01
-6.682290e-01
-7.041635e-01
-7.350890e-01
-7.606869e-01
-7.787425e-01
-7.827000e-01
-7.968885e-01
0.000000e+00
-5.243312e-02
-1.078158e-01
-1.630687e-01
-2.146463e-01
-2.620023e-01
-3.050981e-01
-3.439824e-01
-3.786646e-01
-4.090866e-01
-4.350849e-01
-4.562960e-01
-4.719639e-01
-4.807100e-01
-4.809528e-01
-4.774590e-01
-4.919301e-01
0.000000e+00
-2.530737e-02
-5.209874e-02
-7.905962e-02
-1.048394e-01
-1.285845e-01
-1.501073e-01
-1.693451e-01
-1.861877e-01
-2.004158e-01
-2.116657e-01
-2.194065e-01
-2.230045e-01
-2.221639e-01
-2.187104e-01
-2.196548e-01
-2.304301e-01
0.000000e+00
-2.331738e-05
-5.300720e-05
-8.259967e-05
-9.830657e-05
-6.938055e-05
6.520819e-05
4.149704e-04
1.159573e-03
2.566641e-03
4.985330e-03
8.766393e-03
1.400461e-02
1.992407e-02
2.401306e-02
2.289161e-02
1.575741e-02
0.000000e+00
2.527149e-02
5.201545e-02
7.892639e-02
1.046737e-01
1.284497e-01
1.501596e-01
1.699094e-01
1.878704e-01
2.042507e-01
2.192646e-01
2.330229e-01
2.452867e-01
2.551209e-01
2.609059e-01
2.613648e-01
2.577437e-01
0.000000e+00
5.242723e-02
1.077978e-01
1.630330e-01
2.145905e-01
2.619328e-01
3.050406e-01
3.440011e-01
3.788950e-01
4.097843e-01
4.366958e-01
4.595636e-01
4.781247e-01
4.918476e-01
5.000845e-01
5.027590e-01
5.019146e-01
0.000000e+00
8.387802e-02
1.742437e-01
2.576983e-01
3.345864e-01
4.051743e-01
4.695512e-01
5.276928e-01
5.795105e-01
6.248546e-01
6.635097e-01
6.952085e-01
7.196975e-01
7.368954e-01
7.471544e-01
7.515293e-01
7.523328e-01
0.000000e+00
1.404570e-01
2.586715e-01
3.674906e-01
4.688793e-01
5.626013e-01
6.483793e-01
7.259637e-01
7.950947e-01
8.554129e-01
9.063950e-01
9.473613e-01
9.776389e-01
9.969896e-01
1.006348e+00
1.008658e+00
1.008613e+00
0.000000e+00
-8.498781e-02
-1.668416e-01
-2.729054e-01
-4.030770e-01
-5.571130e-01
-7.333265e-01
-9.297457e-01
-1.144282e+00
-1.374875e+00
-1.619620e+00
-1.877002e+00
-2.146402e+00
-2.429256e+00
-2.732903e+00
-3.080333e+00
-3.579530e+00
0.000000e+00
-5.232013e-02
-1.377071e-01
-2.450858e-01
-3.773845e-01
-5.335223e-01
-7.118704e-01
-9.104087e-01
-1.127024e+00
-1.359619e+00
-1.606237e+00
-1.865293e+00
-2.136070e+00
-2.419970e+00
-2.723499e+00
-3.068820e+00
-3.491876e+00
0.000000e+00
-3.948037e-02
-1.175096e-01
-2.252844e-01
-3.588337e-01
-5.165785e-01
-6.965658e-01
-8.967560e-01
-1.115051e+00
-1.349381e+00
-1.597830e+00
-1.858866e+00
-2.131840e+00
-2.417922e+00
-2.721713e+00
-3.048916e+00
-3.365580e+00
0.000000e+00
-3.402167e-02
-1.074676e-01
-2.136616e-01
-3.476936e-01
-5.064092e-01
-6.875186e-01
-8.889045e-01
-1.108508e+00
-1.344317e+00
-1.594454e+00
-1.857359e+00
-2.132076e+00
-2.418475e+00
-2.716188e+00
-3.016841e+00
-3.293811e+00
0.000000e+00
-3.244917e-02
-1.044284e-01
-2.099539e-01
-3.440223e-01
-5.031328e-01
-6.847629e-01
-8.867971e-01
-1.107216e+00
-1.344039e+00
-1.595349e+00
-1.859338e+00
-2.134300e+00
-2.418206e+00
-2.706807e+00
-2.990234e+00
-3.251338e+00
0.000000e+00
-3.400147e-02
-1.074532e-01
-2.136872e-01
-3.478192e-01
-5.067402e-01
-6.882265e-01
-8.902453e-01
-1.110820e+00
-1.347961e+00
-1.599625e+00
-1.863626e+00
-2.137411e+00
-2.417494e+00
-2.698495e+00
-2.972203e+00
-3.227734e+00
0.000000e+00
-3.944743e-02
-1.174858e-01
-2.253271e-01
-3.590454e-01
-5.171384e-01
-6.977661e-01
-8.990328e-01
-1.118981e+00
-1.355588e+00
-1.606673e+00
-1.869713e+00
-2.141540e+00
-2.417953e+00
-2.693507e+00
-2.961961e+00
-3.217323e+00
0.000000e+00
-5.228925e-02
-1.376863e-01
-2.451425e-01
-3.776387e-01
-5.341807e-01
-7.132677e-01
-9.130403e-01
-1.131540e+00
-1.366705e+00
-1.616267e+00
-1.877523e+00
-2.147033e+00
-2.420369e+00
-2.692258e+00
-2.957727e+00
-3.214879e+00
0.000000e+00
-8.497505e-02
-1.668434e-01
-2.729931e-01
-4.033716e-01
-5.578166e-01
-7.347562e-01
-9.323543e-01
-1.148631e+00
-1.381490e+00
-1.628607e+00
-1.887219e+00
-2.153863e+00
-2.424208e+00
-2.693319e+00
-2.956952e+00
-3.214917e+00


0.000000e+00
1.147703e-08
2.342411e-08
3.420354e-08
4.371287e-08
5.191412e-08
5.887421e-08
6.472179e-08
6.960011e-08
7.365216e-08
7.701478e-08
7.981452e-08
8.216027e-08
8.412789e-08
8.578184e-08
8.733264e-08
8.885137e-08
0.000000e+00
7.247160e-09
1.727694e-08
2.576428e-08
3.296063e-08
3.905924e-08
4.418013e-08
4.844692e-08
5.197519e-08
5.486722e-08
5.720945e-08
5.906870e-08
6.049177e-08
6.155098e-08
6.253086e-08
6.391057e-08
6.550677e-08
0.000000e+00
5.085749e-09
1.158534e-08
1.726175e-08
2.211270e-08
2.616962e-08
2.952765e-08
3.228646e-08
3.453001e-08
3.632464e-08
3.772139e-08
3.876260e-08
3.950361e-08
4.006827e-08
4.071483e-08
4.175567e-08
4.307422e-08
0.000000e+00
2.640504e-09
5.694016e-09
8.509375e-09
1.096074e-08
1.299787e-08
1.466040e-08
1.600126e-08
1.706295e-08
1.787698e-08
1.846963e-08
1.887294e-08
1.914348e-08
1.938194e-08
1.972686e-08
2.034054e-08
2.122059e-08
0.000000e+00
-1.105383e-12
-3.544104e-12
-8.752264e-12
-1.878055e-11
-3.678003e-11
-6.722388e-11
-1.158892e-10
-1.891200e-10
-2.917270e-10
-4.225844e-10
-5.676396e-10
-6.931724e-10
-7.480480e-10
-6.717857e-10
-3.810553e-10
1.596918e-10
0.000000e+00
-2.642260e-09
-5.699658e-09
-8.523454e-09
-1.099096e-08
-1.305695e-08
-1.476836e-08
-1.618776e-08
-1.736883e-08
-1.835292e-08
-1.916831e-08
-1.982873e-08
-2.033379e-08
-2.067413e-08
-2.083722e-08
-2.078532e-08
-2.050635e-08
0.000000e+00
-5.086489e-09
-1.158865e-08
-1.726978e-08
-2.212866e-08
-2.619871e-08
-2.957800e-08
-3.237035e-08
-3.466534e-08
-3.653614e-08
-3.804049e-08
-3.922157e-08
-4.010915e-08
-4.072356e-08
-4.108425e-08
-4.120473e-08
-4.112320e-08
0.000000e+00
-7.248806e-09
-1.728208e-08
-2.577161e-08
-3.296794e-08
-3.906232e-08
-4.417140e-08
-4.841420e-08
-5.190090e-08
-5.472890e-08
-5.698279e-08
-5.873438e-08
-6.004254e-08
-6.095477e-08
-6.151724e-08
-6.179089e-08
-6.185333e-08
0.000000e+00
-1.148564e-08
-2.343898e-08
-3.422144e-08
-4.372797e-08
-5.191493e-08
-5.883967e-08
-6.461677e-08
-6.937028e-08
-7.321923e-08
-7.627316e-08
-7.863137e-08
-8.038281e-08
-8.160614e-08
-8.237313e-08
-8.275251e-08
-8.286714e-08
0.000000e+00
1.041215e-08
1.937102e-08
2.906795e-08
4.067161e-08
5.430061e-08
6.976649e-08
8.681121e-08
1.051746e-07
1.246310e-07
1.450004e-07
1.661644e-07
1.881130e-07
2.110791e-07
2.356509e-07
2.617362e-07
2.878628e-07
0.000000e+00
5.888427e-09
1.462457e-08
2.470490e-08
3.688204e-08
5.108824e-08
6.708524e-08
8.459363e-08
1.033560e-07
1.231523e-07
1.438090e-07
1.652117e-07
1.873321e-07
2.102747e-07
2.342958e-07
2.596922e-07
2.854395e-07
0.000000e+00
3.281129e-09
1.087034e-08
2.122718e-08
3.386625e-08
4.855296e-08
6.498264e-08
8.286789e-08
1.019568e-07
1.220370e-07
1.429396e-07
1.645446e-07
1.867798e-07
2.095924e-07
2.329748e-07
2.574864e-07
2.824703e-07
0.000000e+00
2.144654e-09
9.021142e-09
1.931814e-08
3.219237e-08
4.715099e-08
6.382897e-08
8.193203e-08
1.012132e-07
1.214645e-07
1.425146e-07
1.642251e-07
1.864744e-07
2.091221e-07
2.320812e-07
2.557776e-07
2.796953e-07
0.000000e+00
1.841749e-09
8.493750e-09
1.872379e-08
3.166388e-08
4.671451e-08
6.348101e-08
8.166564e-08
1.010228e-07
1.213432e-07
1.424471e-07
1.641758e-07
1.863748e-07
2.088720e-07
2.315286e-07
2.545712e-07
2.774750e-07
0.000000e+00
2.146859e-09
9.026541e-09
1.932961e-08
3.221391e-08
4.718847e-08
6.389024e-08
8.202597e-08
1.013469e-07
1.216369e-07
1.427051e-07
1.643765e-07
1.864782e-07
2.088246e-07
2.312454e-07
2.537845e-07
2.759758e-07
0.000000e+00
3.284655e-09
1.087985e-08
2.124781e-08
3.390504e-08
4.862045e-08
6.509286e-08
8.303668e-08
1.021969e-07
1.223474e-07
1.432850e-07
1.648215e-07
1.867723e-07
2.089455e-07
2.311543e-07
2.533356e-07
2.751161e-07
0.000000e+00
5.893173e-09
1.463788e-08
2.473229e-08
3.693211e-08
5.117357e-08
6.722225e-08
8.480044e-08
1.036464e-07
1.235230e-07
1.442151e-07
1.655223e-07
1.872506e-07
2.092062e-07
2.312060e-07
2.531382e-07
2.747310e-07
0.000000e+00
1.041992e-08
1.938815e-08
2.909990e-08
4.072670e-08
5.439048e-08
6.990564e-08
8.701439e-08
1.054504e-07
1.249683e-07
1.453435e-07
1.663663e-07
1.878350e-07
2.095545e-07
2.313514e-07
2.531083e-07
2.746268e-07


4.102288e-01
4.102284e-01
4.102319e-01
4.102385e-01
4.102446e-01
4.102496e-01
4.102537e-01
4.102570e-01
4.102597e-01
4.102617e-01
4.102633e-01
4.102644e-01
4.102649e-01
4.102642e-01
4.102623e-01
4.102609e-01
4.102368e-01
4.102362e-01
4.102387e-01
4.102439e-01
4.102488e-01
4.102528e-01
4.102561e-01
4.102588e-01
4.102609e-01
4.102626e-01
4.102639e-01
4.102647e-01
4.102650e-01
4.102641e-01
4.102622e-01
4.102608e-01
4.102499e-01
4.102493e-01
4.102504e-01
4.102532e-01
4.102559e-01
4.102583e-01
4.102602e-01
4.102618e-01
4.102630e-01
4.102640e-01
4.102647e-01
4.102651e-01
4.102652e-01
4.102643e-01
4.102627e-01
4.102616e-01
4.102592e-01
4.102586e-01
4.102588e-01
4.102598e-01
4.102610e-01
4.102621e-01
4.102630e-01
4.102638e-01
4.102643e-01
4.102648e-01
4.102651e-01
4.102652e-01
4.102652e-01
4.102646e-01
4.102638e-01
4.102633e-01
4.102592e-01
4.102586e-01
4.102588e-01
4.102598e-01
4.102610e-01
4.102621e-01
4.102630e-01
4.102637e-01
4.102642e-01
4.102646e-01
4.102648e-01
4.102650e-01
4.102651e-01
4.102651e-01
4.102649e-01
4.102649e-01
4.102499e-01
4.102492e-01
4.102504e-01
4.102532e-01
4.102559e-01
4.102582e-01
4.102601e-01
4.102616e-01
4.102627e-01
4.102636e-01
4.102643e-01
4.102648e-01
4.102652e-01
4.102656e-01
4.102659e-01
4.102661e-01
4.102368e-01
4.102362e-01
4.102387e-01
4.102439e-01
4.102487e-01
4.102527e-01
4.102561e-01
4.102587e-01
4.102608e-01
4.102625e-01
4.102637e-01
4.102647e-01
4.102655e-01
4.102661e-01
4.102665e-01
4.102668e-01
4.102288e-01
4.102284e-01
4.102319e-01
4.102385e-01
4.102446e-01
4.102496e-01
4.102537e-01
4.102571e-01
4.102598e-01
4.102619e-01
4.102635e-01
4.102648e-01
4.102657e-01
4.102664e-01
4.102668e-01
4.102671e-01


9.556515e-01
9.619405e-01
9.677578e-01
9.722356e-01
9.763922e-01
9.802251e-01
9.837174e-01
9.868278e-01
9.895238e-01
9.917788e-01
9.935718e-01
9.948853e-01
9.957018e-01
9.959931e-01
9.962034e-01
9.832411e-01
9.832222e-01
9.803402e-01
9.821941e-01
9.846138e-01
9.868698e-01
9.889203e-01
9.907766e-01
9.924580e-01
9.939805e-01
9.953596e-01
9.966110e-01
9.977441e-01
9.987327e-01
9.993800e-01
9.977430e-01
9.755541e-01
9.941705e-01
9.925151e-01
9.920681e-01
9.926966e-01
9.935233e-01
9.943242e-01
9.950678e-01
9.957705e-01
9.964511e-01
9.971148e-01
9.977346e-01
9.982145e-01
9.983147e-01
9.974505e-01
9.943153e-01
9.886764e-01
9.988135e-01
9.976062e-01
9.968604e-01
9.966712e-01
9.967466e-01
9.968734e-01
9.969999e-01
9.971236e-01
9.972450e-01
9.973466e-01
9.973749e-01
9.972238e-01
9.967444e-01
9.958840e-01
9.951543e-01
9.949696e-01
9.988180e-01
9.976125e-01
9.968660e-01
9.966700e-01
9.967279e-01
9.968192e-01
9.968827e-01
9.969040e-01
9.968748e-01
9.967814e-01
9.966073e-01
9.963564e-01
9.961175e-01
9.961650e-01
9.968403e-01
9.980092e-01
9.941788e-01
9.925278e-01
9.920802e-01
9.926967e-01
9.934912e-01
9.942251e-01
9.948460e-01
9.953451e-01
9.957189e-01
9.959706e-01
9.961298e-01
9.962854e-01
9.966123e-01
9.972977e-01
9.983272e-01
9.993916e-01
9.832206e-01
9.803390e-01
9.821916e-01
9.846069e-01
9.868521e-01
9.888799e-01
9.906930e-01
9.922984e-01
9.936974e-01
9.948932e-01
9.959055e-01
9.967897e-01
9.976411e-01
9.985338e-01
9.993686e-01
9.998943e-01
9.556212e-01
9.618931e-01
9.676997e-01
9.721705e-01
9.763337e-01
9.802039e-01
9.837895e-01
9.870820e-01
9.900821e-01
9.927840e-01
9.951554e-01
9.971227e-01
9.985862e-01
9.994891e-01
9.998999e-01
9.999979e-01
1 2 19 18
2 3 20 19
3 4 21 20
4 5 22 21
5 6 23 22
6 7 24 23
7 8 25 24
8 9 26 25
9 10 27 26
10 11 28 27
11 12 29 28
12 13 30 29
13 14 31 30
14 15 32 31
15 16 33 32
16 17 34 33
18 19 36 35
19 20 37 36
20 21 38 37
21 22 39 38
22 23 40 39
23 24 41 40
24 25 42 41
25 26 43 42
26 27 44 43
27 28 45 44
28 29 46 45
29 30 47 46
30 31 48 47
31 32 49 48
32 33 50 49
33 34 51 50
35 36 53 52
36 37 54 53
37 38 55 54
38 39 56 55
39 40 57 56
40 41 58 57
41 42 59 58
42 43 60 59
43 44 61 60
44 45 62 61
45 46 63 62
46 47 64 63
47 48 65 64
48 49 66 65
49 50 67 66
50 51 68 67
52 53 70 69
53 54 71 70
54 55 72 71
55 56 73 72
56 57 74 73
57 58 75 74
58 59 76 75
59 60 77 76
60 61 78 77
61 62 79 78
62 63 80 79
63 64 81 80
64 65 82 81
65 66 83 82
66 67 84 83
67 68 85 84
69 70 87 86
70 71 88 87
71 72 89 88
72 73 90 89
73 74 91 90
74 75 92 91
75 76 93 92
76 77 94 93
77 78 95 94
78 79 96 95
79 80 97 96
80 81 98 97
81 82 99 98
82 83 100 99
83 84 101 100
84 85 102 101
86 87 104 103
87 88 105 104
88 89 106 105
89 90 107 106
90 91 108 107
91 92 109 108
92 93 110 109
93 94 111 110
94 95 112 111
95 96 113 112
96 97 114 113
97 98 115 114
98 99 116 115
99 100 117 116
100 101 118 117
101 102 119 118
103 104 121 120
104 105 122 121
105 106 123 122
106 107 124 123
107 108 125 124
108 109 126 125
109 110 127 126
110 111 128 127
111 112 129 128
112 113 130 129
113 114 131 130
114 115 132 131
115 116 133 132
116 117 134 133
117 118 135 134
118 119 136 135
120 121 138 137
121 122 139 138
122 123 140 139
123 124 141 140
124 125 142 141
125 126 143 142
126 127 144 143
127 128 145 144
128 129 146 145
129 130 147 146
130 131 148 147
131 132 149 148
132 133 150 149
133 134 151 150
134 135 152 151
135 136 153 152
