TITLE = "Solution"
VARIABLES = x, y, u, v, psiu, psiv, t, stress
ZONE T="structure" N=153 E=128 F=FEBLOCK ET=QUADRILATERAL VARLOCATION=([7,8]=cellcentered)
0.000000e+00
1.250000e+01
2.500000e+01
3.750000e+01
5.000000e+01
6.250000e+01
7.500000e+01
8.750000e+01
1.000000e+02
1.125000e+02
1.250000e+02
1.375000e+02
1.500000e+02
1.625000e+02
1.750000e+02
1.875000e+02
2.000000e+02
0.000000e+00
1.250000e+01
2.500000e+01
3.750000e+01
5.000000e+01
6.250000e+01
7.500000e+01
8.750000e+01
1.000000e+02
1.125000e+02
1.250000e+02
1.375000e+02
1.500000e+02
1.625000e+02
1.750000e+02
1.875000e+02
2.000000e+02
0.000000e+00
1.250000e+01
2.500000e+01
3.750000e+01
5.000000e+01
6.250000e+01
7.500000e+01
8.750000e+01
1.000000e+02
1.125000e+02
1.250000e+02
1.375000e+02
1.500000e+02
1.625000e+02
1.750000e+02
1.875000e+02
2.000000e+02
0.000000e+00
1.250000e+01
2.500000e+01
3.750000e+01
5.000000e+01
6.250000e+01
7.500000e+01
8.750000e+01
1.000000e+02
1.125000e+02
1.250000e+02
1.375000e+02
1.500000e+02
1.625000e+02
1.750000e+02
1.875000e+02
2.000000e+02
0.000000e+00
1.250000e+01
2.500000e+01
3.750000e+01
5.000000e+01
6.250000e+01
7.500000e+01
8.750000e+01
1.000000e+02
1.125000e+02
1.250000e+02
1.375000e+02
1.500000e+02
1.625000e+02
1.750000e+02
1.875000e+02
2.000000e+02
0.000000e+00
1.250000e+01
2.500000e+01
3.750000e+01
5.000000e+01
6.250000e+01
7.500000e+01
8.750000e+01
1.000000e+02
1.125000e+02
1.250000e+02
1.375000e+02
1.500000e+02
1.625000e+02
1.750000e+02
1.875000e+02
2.000000e+02
0.000000e+00
1.250000e+01
2.500000e+01
3.750000e+01
5.000000e+01
6.250000e+01
7.500000e+01
8.750000e+01
1.000000e+02
1.125000e+02
1.250000e+02
1.375000e+02
1.500000e+02
1.625000e+02
1.750000e+02
1.875000e+02
2.000000e+02
0.000000e+00
1.250000e+01
2.500000e+01
3.750000e+01
5.000000e+01
6.250000e+01
7.500000e+01
8.750000e+01
1.000000e+02
1.125000e+02
1.250000e+02
1.375000e+02
1.500000e+02
1.625000e+02
1.750000e+02
1.875000e+02
2.000000e+02
0.000000e+00
1.250000e+01
2.500000e+01
3.750000e+01
5.000000e+01
6.250000e+01
7.500000e+01
8.750000e+01
1.000000e+02
1.125000e+02
1.250000e+02
1.375000e+02
1.500000e+02
1.625000e+02
1.750000e+02
1.875000e+02
2.000000e+02
0.000000e+00
0.000000e+00
0.000000e+00
0.000000e+00
0.000000e+00
0.000000e+00
0.000000e+00
0.000000e+00
0.000000e+00
0.000000e+00
0.000000e+00
0.000000e+00
0.000000e+00
0.000000e+00
0.000000e+00
0.000000e+00
0.000000e+00
1.250000e+01
1.250000e+01
1.250000e+01
1.250000e+01
1.250000e+01
1.250000e+01
1.250000e+01
1.250000e+01
1.250000e+01
1.250000e+01
1.250000e+01
1.250000e+01
1.250000e+01
1.250000e+01
1.250000e+01
1.250000e+01
1.250000e+01
2.500000e+01
2.500000e+01
2.500000e+01
2.500000e+01
2.500000e+01
2.500000e+01
2.500000e+01
2.500000e+01
2.500000e+01
2.500000e+01
2.500000e+01
2.500000e+01
2.500000e+01
2.500000e+01
2.500000e+01
2.500000e+01
2.500000e+01
3.750000e+01
3.750000e+01
3.750000e+01
3.750000e+01
3.750000e+01
3.750000e+01
3.750000e+01
3.750000e+01
3.750000e+01
3.750000e+01
3.750000e+01
3.750000e+01
3.750000e+01
3.750000e+01
3.750000e+01
3.750000e+01
3.750000e+01
5.000000e+01
5.000000e+01
5.000000e+01
5.000000e+01
5.000000e+01
5.000000e+01
5.000000e+01
5.000000e+01
5.000000e+01
5.000000e+01
5.000000e+01
5.000000e+01
5.000000e+01
5.000000e+01
5.000000e+01
5.000000e+01
5.000000e+01
6.250000e+01
6.250000e+01
6.250000e+01
6.250000e+01
6.250000e+01
6.250000e+01
6.250000e+01
6.250000e+01
6.250000e+01
6.250000e+01
6.250000e+01
6.250000e+01
6.250000e+01
6.250000e+01
6.250000e+01
6.250000e+01
6.250000e+01
7.500000e+01
7.500000e+01
7.500000e+01
7.500000e+01
7.500000e+01
7.500000e+01
7.500000e+01
7.500000e+01
7.500000e+01
7.500000e+01
7.500000e+01
7.500000e+01
7.500000e+01
7.500000e+01
7.500000e+01
7.500000e+01
7.500000e+01
8.750000e+01
8.750000e+01
8.750000e+01
8.750000e+01
8.750000e+01
8.750000e+01
8.750000e+01
8.750000e+01
8.750000e+01
8.750000e+01
8.750000e+01
8.750000e+01
8.750000e+01
8.750000e+01
8.750000e+01
8.750000e+01
8.750000e+01
1.000000e+02
1.000000e+02
1.000000e+02
1.000000e+02
1.000000e+02
1.000000e+02
1.000000e+02
1.000000e+02
1.000000e+02
1.000000e+02
1.000000e+02
1.000000e+02
1.000000e+02
1.000000e+02
1.000000e+02
1.000000e+02
1.000000e+02
0.000000e+00
-1.360996e-01
-2.621793e-01
-4.812500e-01
-9.577368e-01
-1.440498e+00
-1.615967e+00
-1.791601e+00
-2.031703e+00
-2.517689e+00
-2.621040e+00
-2.683120e+00
-2.740165e+00
-2.790725e+00
-2.842349e+00
-2.928900e+00
-3.009256e+00
0.000000e+00
-5.017391e-02
-1.155643e-01
-2.154665e-01
-5.192666e-01
-8.852646e-01
-1.067207e+00
-1.214251e+00
-1.469140e+00
-1.746960e+00
-1.852768e+00
-1.900547e+00
-1.939267e+00
-1.969962e+00
-1.990712e+00
-1.996681e+00
-2.022982e+00
0.000000e+00
-2.111255e-02
-4.792831e-02
-9.588898e-02
-2.568337e-01
-4.660703e-01
-6.113729e-01
-7.599285e-01
-9.038663e-01
-1.003593e+00
-1.077935e+00
-1.120704e+00
-1.145992e+00
-1.161170e+00
-1.165959e+00
-1.164803e+00
-1.181411e+00
0.000000e+00
1.831726e-02
2.456728e-02
2.963305e-02
5.785181e-03
-7.963985e-02
-1.472976e-01
-2.253361e-01
-2.695716e-01
-2.984308e-01
-3.236955e-01
-3.499244e-01
-3.655812e-01
-3.758149e-01
-3.820972e-01
-3.890788e-01
-4.034307e-01
0.000000e+00
1.039674e-01
1.631936e-01
2.265727e-01
3.261687e-01
3.670477e-01
3.593719e-01
3.604295e-01
3.654250e-01
3.725660e-01
3.801253e-01
3.902315e-01
3.749978e-01
3.599580e-01
3.520883e-01
3.449614e-01
3.319676e-01
0.000000e+00
2.607632e-01
4.514832e-01
6.130159e-01
7.326018e-01
8.289227e-01
8.767641e-01
9.085945e-01
9.517513e-01
9.964981e-01
1.024256e+00
1.024261e+00
1.030959e+00
1.045495e+00
1.053571e+00
1.054216e+00
1.049629e+00
0.000000e+00
7.619141e-01
1.071062e+00
1.192374e+00
1.275750e+00
1.374056e+00
1.442668e+00
1.477101e+00
1.502220e+00
1.523441e+00
1.549857e+00
1.616350e+00
1.691822e+00
1.740725e+00
1.766494e+00
1.773059e+00
1.772885e+00
0.000000e+00
1.055048e+00
1.628103e+00
1.744998e+00
1.826072e+00
1.938812e+00
2.038334e+00
2.105647e+00
2.162810e+00
2.208110e+00
2.250293e+00
2.310809e+00
2.390805e+00
2.457846e+00
2.491009e+00
2.500789e+00
2.501818e+00
0.000000e+00
1.069618e+00
2.138236e+00
2.265825e+00
2.370374e+00
2.503472e+00
2.640837e+00
2.754795e+00
2.853037e+00
2.928180e+00
3.001128e+00
3.079448e+00
3.152968e+00
3.211513e+00
3.231161e+00
3.236060e+00
3.236268e+00
0.000000e+00
-1.034244e-01
-2.505064e-01
-5.309422e-01
-1.102693e+00
-1.763364e+00
-2.366092e+00
-2.998550e+00
-3.679189e+00
-4.382276e+00
-5.137649e+00
-5.919704e+00
-6.723674e+00
-7.535711e+00
-8.359069e+00
-9.222458e+00
-1.036908e+01
0.000000e+00
-7.541621e-02
-2.200699e-01
-4.571760e-01
-9.837627e-01
-1.689318e+00
-2.325794e+00
-2.942128e+00
-3.607311e+00
-4.335293e+00
-5.113583e+00
-5.904770e+00
-6.712381e+00
-7.527833e+00
-8.350011e+00
-9.208153e+00
-1.017951e+01
0.000000e+00
-7.321621e-02
-2.081787e-01
-4.285598e-01
-9.354789e-01
-1.651389e+00
-2.288128e+00
-2.919692e+00
-3.587831e+00
-4.305679e+00
-5.085960e+00
-5.893024e+00
-6.708289e+00
-7.528385e+00
-8.352298e+00
-9.188008e+00
-1.001118e+01
0.000000e+00
-6.422094e-02
-2.109799e-01
-4.479666e-01
-9.502063e-01
-1.652071e+00
-2.277046e+00
-2.920140e+00
-3.587386e+00
-4.294707e+00
-5.059245e+00
-5.881869e+00
-6.711940e+00
-7.534312e+00
-8.351493e+00
-9.158901e+00
-9.938688e+00
0.000000e+00
-5.405353e-02
-2.214090e-01
-5.129729e-01
-1.035951e+00
-1.683853e+00
-2.303397e+00
-2.935271e+00
-3.597683e+00
-4.295162e+00
-5.042325e+00
-5.874502e+00
-6.726574e+00
-7.542016e+00
-8.344209e+00
-9.125311e+00
-9.873327e+00
0.000000e+00
-5.157982e-02
-2.333398e-01
-6.411638e-01
-1.175141e+00
-1.742539e+00
-2.340244e+00
-2.962210e+00
-3.616151e+00
-4.308129e+00
-5.042403e+00
-5.890759e+00
-6.741100e+00
-7.545542e+00
-8.335454e+00
-9.099980e+00
-9.834809e+00
0.000000e+00
4.055147e-02
-2.340977e-01
-7.143177e-01
-1.232233e+00
-1.775557e+00
-2.361030e+00
-2.980558e+00
-3.642262e+00
-4.352488e+00
-5.101508e+00
-5.909959e+00
-6.739424e+00
-7.547488e+00
-8.332675e+00
-9.089533e+00
-9.824473e+00
0.000000e+00
-4.582835e-02
-2.659590e-01
-7.489676e-01
-1.266339e+00
-1.806697e+00
-2.380281e+00
-2.996766e+00
-3.662019e+00
-4.373634e+00
-5.125485e+00
-5.926483e+00
-6.748029e+00
-7.555212e+00
-8.333811e+00
-9.085519e+00
-9.821777e+00
0.000000e+00
-3.381254e-01
-3.127146e-01
-7.809943e-01
-1.298739e+00
-1.844039e+00
-2.410547e+00
-3.022370e+00
-3.684359e+00
-4.392608e+00
-5.146461e+00
-5.946485e+00
-6.764828e+00
-7.567031e+00
-8.335804e+00
-9.084626e+00
-9.821539e+00


0.000000e+00
-1.004720e-05
-1.668689e-05
-2.217949e-05
-5.288044e-05
-8.170245e-05
-8.321976e-05
-8.364408e-05
-9.383554e-05
-1.425785e-04
-1.613006e-04
-1.723196e-04
-1.665203e-04
-1.437521e-04
-1.231887e-04
-1.104931e-04
-1.077922e-04
0.000000e+00
-2.881144e-06
-2.848901e-06
1.396156e-06
-6.652204e-06
-2.687228e-05
-2.685727e-05
-2.634648e-05
-3.198509e-05
-4.591062e-05
-5.893277e-05
-6.595989e-05
-6.618439e-05
-5.867759e-05
-5.161078e-05
-4.909656e-05
-4.939705e-05
0.000000e+00
1.885836e-06
4.910725e-06
1.009673e-05
1.548878e-05
1.680130e-05
2.235106e-05
2.718737e-05
3.326379e-05
4.088044e-05
4.598419e-05
4.126244e-05
3.416504e-05
2.516372e-05
1.470235e-05
8.402493e-06
5.777092e-06
0.000000e+00
7.901578e-06
1.225980e-05
1.984325e-05
3.592269e-05
5.654813e-05
6.685318e-05
7.472801e-05
8.239482e-05
9.390775e-05
1.092118e-04
1.180471e-04
1.036499e-04
8.008936e-05
6.305411e-05
5.430750e-05
5.175775e-05
0.000000e+00
1.920355e-05
3.079285e-05
4.449698e-05
7.476833e-05
1.015578e-04
1.123306e-04
1.180004e-04
1.210345e-04
1.222774e-04
1.243836e-04
1.127052e-04
8.530771e-05
8.183388e-05
8.561644e-05
8.846487e-05
8.922490e-05
0.000000e+00
4.416748e-05
7.811776e-05
1.098405e-04
1.343971e-04
1.535847e-04
1.601933e-04
1.610865e-04
1.579243e-04
1.482702e-04
1.207413e-04
4.902955e-05
6.075468e-05
9.720324e-05
1.187926e-04
1.260991e-04
1.287534e-04
0.000000e+00
1.405055e-04
1.910199e-04
2.011282e-04
2.066098e-04
2.114989e-04
2.132270e-04
2.120058e-04
2.069629e-04
1.959754e-04
1.836849e-04
1.717614e-04
1.666037e-04
1.680670e-04
1.732412e-04
1.769830e-04
1.787221e-04
0.000000e+00
2.077986e-04
2.900833e-04
2.836990e-04
2.765542e-04
2.707237e-04
2.677313e-04
2.666405e-04
2.656001e-04
2.638567e-04
2.618434e-04
2.601072e-04
2.562782e-04
2.467641e-04
2.391613e-04
2.360798e-04
2.361386e-04
0.000000e+00
2.518994e-04
3.734417e-04
3.576693e-04
3.412772e-04
3.266181e-04
3.200458e-04
3.200596e-04
3.249094e-04
3.332391e-04
3.449237e-04
3.565698e-04
3.542027e-04
3.296585e-04
3.093350e-04
2.985766e-04
2.966226e-04
0.000000e+00
-6.896742e-06
-1.577089e-05
-3.126825e-05
-8.610033e-05
-1.553266e-04
-2.098487e-04
-2.657431e-04
-3.210110e-04
-3.694843e-04
-4.602893e-04
-5.724761e-04
-6.956737e-04
-7.980860e-04
-8.714453e-04
-9.268603e-04
-9.815840e-04
0.000000e+00
-5.467212e-06
-1.641244e-05
-3.190340e-05
-7.996448e-05
-1.540124e-04
-2.118598e-04
-2.671460e-04
-3.178608e-04
-3.658765e-04
-4.520955e-04
-5.681309e-04
-7.022531e-04
-8.062110e-04
-8.755731e-04
-9.268592e-04
-9.789356e-04
0.000000e+00
-5.502015e-06
-1.794838e-05
-3.612218e-05
-8.304240e-05
-1.564434e-04
-2.162657e-04
-2.733901e-04
-3.244006e-04
-3.703688e-04
-4.362992e-04
-5.610663e-04
-7.079398e-04
-8.156457e-04
-8.753513e-04
-9.244855e-04
-9.726627e-04
0.000000e+00
-3.245994e-06
-1.883048e-05
-4.304731e-05
-9.427396e-05
-1.646278e-04
-2.242860e-04
-2.809722e-04
-3.326238e-04
-3.767023e-04
-4.227857e-04
-5.459225e-04
-7.195072e-04
-8.233308e-04
-8.723664e-04
-9.213991e-04
-9.670523e-04
0.000000e+00
-7.501806e-07
-1.922656e-05
-5.440210e-05
-1.134223e-04
-1.763839e-04
-2.330341e-04
-2.867334e-04
-3.378838e-04
-3.824197e-04
-4.141872e-04
-5.247227e-04
-7.403361e-04
-8.281281e-04
-8.703119e-04
-9.202150e-04
-9.646293e-04
0.000000e+00
2.111215e-06
-1.781259e-05
-7.213762e-05
-1.362584e-04
-1.884802e-04
-2.385595e-04
-2.892842e-04
-3.395681e-04
-3.859046e-04
-4.128640e-04
-5.335617e-04
-7.379709e-04
-8.220124e-04
-8.713047e-04
-9.221951e-04
-9.702032e-04
0.000000e+00
2.952221e-05
-1.115300e-05
-8.029053e-05
-1.433070e-04
-1.932440e-04
-2.400949e-04
-2.887955e-04
-3.391841e-04
-3.958553e-04
-4.666419e-04
-5.673781e-04
-7.139926e-04
-8.114744e-04
-8.724875e-04
-9.241258e-04
-9.761903e-04
0.000000e+00
1.144860e-05
-1.114802e-05
-8.019935e-05
-1.432826e-04
-1.939410e-04
-2.401697e-04
-2.876838e-04
-3.380694e-04
-3.977793e-04
-4.736422e-04
-5.751580e-04
-6.987001e-04
-8.016724e-04
-8.703542e-04
-9.251764e-04
-9.807044e-04
0.000000e+00
-7.962093e-05
-1.223645e-05
-7.693295e-05
-1.395453e-04
-1.919192e-04
-2.395864e-04
-2.875606e-04
-3.387947e-04
-3.997284e-04
-4.769120e-04
-5.768127e-04
-6.919898e-04
-7.932966e-04
-8.664655e-04
-9.245981e-04
-9.827722e-04


4.030406e+00
4.311146e+00
6.076531e+00
7.225799e+00
7.622616e+00
5.963054e+00
5.851298e+00
5.985476e+00
6.629300e+00
6.475605e+00
6.624230e+00
7.147983e+00
7.388532e+00
6.369408e+00
5.420319e+00
4.566199e+00
5.343197e+00
5.397415e+00
6.047372e+00
7.663650e+00
6.947326e+00
5.477372e+00
4.413655e+00
5.990005e+00
7.025423e+00
7.173105e+00
5.620562e+00
4.957414e+00
4.804123e+00
4.999698e+00
4.940890e+00
5.616760e+00
4.751669e+00
4.110111e+00
5.439817e+00
6.067638e+00
5.387564e+00
3.233374e+00
3.284778e+00
4.824502e+00
6.447130e+00
6.529171e+00
5.990204e+00
4.566425e+00
3.857804e+00
3.957137e+00
5.109421e+00
5.333750e+00
2.971031e+00
3.347928e+00
4.220469e+00
5.009528e+00
3.726137e+00
2.582168e+00
3.128772e+00
4.744075e+00
4.912532e+00
5.709040e+00
7.266959e+00
6.864489e+00
5.055541e+00
4.299517e+00
4.628962e+00
5.983348e+00
5.221422e+00
4.971605e+00
5.226109e+00
4.728635e+00
4.138858e+00
3.290860e+00
3.715141e+00
5.182862e+00
5.319083e+00
5.783798e+00
7.736403e+00
8.168890e+00
6.249441e+00
3.853193e+00
3.599665e+00
4.769055e+00
8.200972e+00
7.687053e+00
5.978332e+00
4.626074e+00
4.088217e+00
3.432906e+00
3.703082e+00
5.600763e+00
6.700272e+00
6.567262e+00
7.557941e+00
7.924459e+00
6.262618e+00
3.642090e+00
2.611236e+00
2.580529e+00
9.760403e+00
8.581103e+00
6.183431e+00
4.027957e+00
3.685655e+00
3.422235e+00
4.050350e+00
6.255127e+00
6.475452e+00
5.522745e+00
6.440091e+00
7.215990e+00
5.892956e+00
4.643965e+00
3.617244e+00
3.392773e+00
9.880148e+00
8.908426e+00
6.381664e+00
4.389052e+00
3.676282e+00
3.413329e+00
4.838650e+00
6.298158e+00
4.975496e+00
3.500281e+00
4.845195e+00
6.332723e+00
5.729723e+00
4.989879e+00
5.998230e+00
6.061218e+00


9.677793e-01
9.666353e-01
9.059965e-01
4.205310e-01
3.356884e-01
8.806372e-01
9.034912e-01
7.736625e-01
5.102436e-01
9.611580e-01
9.890081e-01
9.917921e-01
9.943749e-01
9.952716e-01
9.911813e-01
9.431366e-01
9.902639e-01
9.799850e-01
9.529208e-01
6.556427e-01
5.129742e-01
8.478245e-01
8.823410e-01
8.302384e-01
8.744086e-01
9.708705e-01
9.915769e-01
9.955468e-01
9.978263e-01
9.993821e-01
9.991901e-01
9.642188e-01
9.962158e-01
9.884858e-01
9.719480e-01
8.208308e-01
6.986726e-01
8.971085e-01
9.280689e-01
9.598570e-01
9.834808e-01
9.881885e-01
9.909190e-01
9.951690e-01
9.970847e-01
9.978725e-01
9.965509e-01
9.900510e-01
9.869319e-01
9.933191e-01
9.775776e-01
8.779441e-01
8.550069e-01
9.591953e-01
9.803954e-01
9.934833e-01
9.957107e-01
9.923044e-01
9.821566e-01
9.834549e-01
9.889109e-01
9.912022e-01
9.929195e-01
9.902377e-01
8.883277e-01
9.447215e-01
9.450571e-01
8.804856e-01
9.084126e-01
9.696244e-01
9.822580e-01
9.838270e-01
9.847160e-01
9.812744e-01
9.371226e-01
9.333659e-01
9.697680e-01
9.837175e-01
9.919909e-01
9.952759e-01
2.002662e-02
6.095189e-01
8.940299e-01
9.528008e-01
9.636075e-01
9.850374e-01
9.909454e-01
9.798820e-01
9.520134e-01
9.175837e-01
8.794710e-01
9.238624e-01
9.712400e-01
9.882696e-01
9.966956e-01
9.993377e-01
-1.763601e+00
3.048455e-01
9.427120e-01
9.731362e-01
9.606598e-01
9.753771e-01
9.907156e-01
9.930882e-01
9.929799e-01
9.895746e-01
9.680304e-01
9.541941e-01
9.734945e-01
9.913409e-01
9.985394e-01
9.998796e-01
-2.803336e+00
-1.312928e+00
9.449440e-01
9.689525e-01
9.475073e-01
9.511374e-01
9.710603e-01
9.788247e-01
9.870666e-01
9.877224e-01
9.806735e-01
9.753427e-01
9.832448e-01
9.964994e-01
9.995781e-01
9.999929e-01
1 2 19 18
2 3 20 19
3 4 21 20
4 5 22 21
5 6 23 22
6 7 24 23
7 8 25 24
8 9 26 25
9 10 27 26
10 11 28 27
11 12 29 28
12 13 30 29
13 14 31 30
14 15 32 31
15 16 33 32
16 17 34 33
18 19 36 35
19 20 37 36
20 21 38 37
21 22 39 38
22 23 40 39
23 24 41 40
24 25 42 41
25 26 43 42
26 27 44 43
27 28 45 44
28 29 46 45
29 30 47 46
30 31 48 47
31 32 49 48
32 33 50 49
33 34 51 50
35 36 53 52
36 37 54 53
37 38 55 54
38 39 56 55
39 40 57 56
40 41 58 57
41 42 59 58
42 43 60 59
43 44 61 60
44 45 62 61
45 46 63 62
46 47 64 63
47 48 65 64
48 49 66 65
49 50 67 66
50 51 68 67
52 53 70 69
53 54 71 70
54 55 72 71
55 56 73 72
56 57 74 73
57 58 75 74
58 59 76 75
59 60 77 76
60 61 78 77
61 62 79 78
62 63 80 79
63 64 81 80
64 65 82 81
65 66 83 82
66 67 84 83
67 68 85 84
69 70 87 86
70 71 88 87
71 72 89 88
72 73 90 89
73 74 91 90
74 75 92 91
75 76 93 92
76 77 94 93
77 78 95 94
78 79 96 95
79 80 97 96
80 81 98 97
81 82 99 98
82 83 100 99
83 84 101 100
84 85 102 101
86 87 104 103
87 88 105 104
88 89 106 105
89 90 107 106
90 91 108 107
91 92 109 108
92 93 110 109
93 94 111 110
94 95 112 111
95 96 113 112
96 97 114 113
97 98 115 114
98 99 116 115
99 100 117 116
100 101 118 117
101 102 119 118
103 104 121 120
104 105 122 121
105 106 123 122
106 107 124 123
107 108 125 124
108 109 126 125
109 110 127 126
110 111 128 127
111 112 129 128
112 113 130 129
113 114 131 130
114 115 132 131
115 116 133 132
116 117 134 133
117 118 135 134
118 119 136 135
120 121 138 137
121 122 139 138
122 123 140 139
123 124 141 140
124 125 142 141
125 126 143 142
126 127 144 143
127 128 145 144
128 129 146 145
129 130 147 146
130 131 148 147
131 132 149 148
132 133 150 149
133 134 151 150
134 135 152 151
135 136 153 152
