TITLE = "Solution"
VARIABLES = x, y, u, v, psiu, psiv, t, stress
ZONE T="structure" N=153 E=128 F=FEBLOCK ET=QUADRILATERAL VARLOCATION=([7,8]=cellcentered)
0.000000e+00
1.250000e+01
2.500000e+01
3.750000e+01
5.000000e+01
6.250000e+01
7.500000e+01
8.750000e+01
1.000000e+02
1.125000e+02
1.250000e+02
1.375000e+02
1.500000e+02
1.625000e+02
1.750000e+02
1.875000e+02
2.000000e+02
0.000000e+00
1.250000e+01
2.500000e+01
3.750000e+01
5.000000e+01
6.250000e+01
7.500000e+01
8.750000e+01
1.000000e+02
1.125000e+02
1.250000e+02
1.375000e+02
1.500000e+02
1.625000e+02
1.750000e+02
1.875000e+02
2.000000e+02
0.000000e+00
1.250000e+01
2.500000e+01
3.750000e+01
5.000000e+01
6.250000e+01
7.500000e+01
8.750000e+01
1.000000e+02
1.125000e+02
1.250000e+02
1.375000e+02
1.500000e+02
1.625000e+02
1.750000e+02
1.875000e+02
2.000000e+02
0.000000e+00
1.250000e+01
2.500000e+01
3.750000e+01
5.000000e+01
6.250000e+01
7.500000e+01
8.750000e+01
1.000000e+02
1.125000e+02
1.250000e+02
1.375000e+02
1.500000e+02
1.625000e+02
1.750000e+02
1.875000e+02
2.000000e+02
0.000000e+00
1.250000e+01
2.500000e+01
3.750000e+01
5.000000e+01
6.250000e+01
7.500000e+01
8.750000e+01
1.000000e+02
1.125000e+02
1.250000e+02
1.375000e+02
1.500000e+02
1.625000e+02
1.750000e+02
1.875000e+02
2.000000e+02
0.000000e+00
1.250000e+01
2.500000e+01
3.750000e+01
5.000000e+01
6.250000e+01
7.500000e+01
8.750000e+01
1.000000e+02
1.125000e+02
1.250000e+02
1.375000e+02
1.500000e+02
1.625000e+02
1.750000e+02
1.875000e+02
2.000000e+02
0.000000e+00
1.250000e+01
2.500000e+01
3.750000e+01
5.000000e+01
6.250000e+01
7.500000e+01
8.750000e+01
1.000000e+02
1.125000e+02
1.250000e+02
1.375000e+02
1.500000e+02
1.625000e+02
1.750000e+02
1.875000e+02
2.000000e+02
0.000000e+00
1.250000e+01
2.500000e+01
3.750000e+01
5.000000e+01
6.250000e+01
7.500000e+01
8.750000e+01
1.000000e+02
1.125000e+02
1.250000e+02
1.375000e+02
1.500000e+02
1.625000e+02
1.750000e+02
1.875000e+02
2.000000e+02
0.000000e+00
1.250000e+01
2.500000e+01
3.750000e+01
5.000000e+01
6.250000e+01
7.500000e+01
8.750000e+01
1.000000e+02
1.125000e+02
1.250000e+02
1.375000e+02
1.500000e+02
1.625000e+02
1.750000e+02
1.875000e+02
2.000000e+02
0.000000e+00
0.000000e+00
0.000000e+00
0.000000e+00
0.000000e+00
0.000000e+00
0.000000e+00
0.000000e+00
0.000000e+00
0.000000e+00
0.000000e+00
0.000000e+00
0.000000e+00
0.000000e+00
0.000000e+00
0.000000e+00
0.000000e+00
1.250000e+01
1.250000e+01
1.250000e+01
1.250000e+01
1.250000e+01
1.250000e+01
1.250000e+01
1.250000e+01
1.250000e+01
1.250000e+01
1.250000e+01
1.250000e+01
1.250000e+01
1.250000e+01
1.250000e+01
1.250000e+01
1.250000e+01
2.500000e+01
2.500000e+01
2.500000e+01
2.500000e+01
2.500000e+01
2.500000e+01
2.500000e+01
2.500000e+01
2.500000e+01
2.500000e+01
2.500000e+01
2.500000e+01
2.500000e+01
2.500000e+01
2.500000e+01
2.500000e+01
2.500000e+01
3.750000e+01
3.750000e+01
3.750000e+01
3.750000e+01
3.750000e+01
3.750000e+01
3.750000e+01
3.750000e+01
3.750000e+01
3.750000e+01
3.750000e+01
3.750000e+01
3.750000e+01
3.750000e+01
3.750000e+01
3.750000e+01
3.750000e+01
5.000000e+01
5.000000e+01
5.000000e+01
5.000000e+01
5.000000e+01
5.000000e+01
5.000000e+01
5.000000e+01
5.000000e+01
5.000000e+01
5.000000e+01
5.000000e+01
5.000000e+01
5.000000e+01
5.000000e+01
5.000000e+01
5.000000e+01
6.250000e+01
6.250000e+01
6.250000e+01
6.250000e+01
6.250000e+01
6.250000e+01
6.250000e+01
6.250000e+01
6.250000e+01
6.250000e+01
6.250000e+01
6.250000e+01
6.250000e+01
6.250000e+01
6.250000e+01
6.250000e+01
6.250000e+01
7.500000e+01
7.500000e+01
7.500000e+01
7.500000e+01
7.500000e+01
7.500000e+01
7.500000e+01
7.500000e+01
7.500000e+01
7.500000e+01
7.500000e+01
7.500000e+01
7.500000e+01
7.500000e+01
7.500000e+01
7.500000e+01
7.500000e+01
8.750000e+01
8.750000e+01
8.750000e+01
8.750000e+01
8.750000e+01
8.750000e+01
8.750000e+01
8.750000e+01
8.750000e+01
8.750000e+01
8.750000e+01
8.750000e+01
8.750000e+01
8.750000e+01
8.750000e+01
8.750000e+01
8.750000e+01
1.000000e+02
1.000000e+02
1.000000e+02
1.000000e+02
1.000000e+02
1.000000e+02
1.000000e+02
1.000000e+02
1.000000e+02
1.000000e+02
1.000000e+02
1.000000e+02
1.000000e+02
1.000000e+02
1.000000e+02
1.000000e+02
1.000000e+02
0.000000e+00
-8.340129e-01
-1.510092e+00
-2.167424e+00
-2.837536e+00
-3.493734e+00
-4.141909e+00
-4.787623e+00
-5.426279e+00
-6.049902e+00
-6.648591e+00
-7.214556e+00
-7.750095e+00
-8.273216e+00
-8.815761e+00
-9.416610e+00
-9.839763e+00
0.000000e+00
-4.592252e-01
-9.550699e-01
-1.445321e+00
-1.947237e+00
-2.438858e+00
-2.923512e+00
-3.405737e+00
-3.882209e+00
-4.346264e+00
-4.788365e+00
-5.197402e+00
-5.563069e+00
-5.870319e+00
-6.080349e+00
-6.127041e+00
-6.265825e+00
0.000000e+00
-2.575687e-01
-5.424828e-01
-8.615114e-01
-1.194309e+00
-1.524223e+00
-1.851330e+00
-2.175150e+00
-2.491484e+00
-2.793585e+00
-3.071425e+00
-3.311703e+00
-3.497727e+00
-3.607218e+00
-3.618244e+00
-3.586203e+00
-3.730865e+00
0.000000e+00
-1.145523e-01
-2.454205e-01
-3.982946e-01
-5.623544e-01
-7.286308e-01
-8.941327e-01
-1.055876e+00
-1.209809e+00
-1.350044e+00
-1.468176e+00
-1.553480e+00
-1.594416e+00
-1.584264e+00
-1.543033e+00
-1.550406e+00
-1.664951e+00
0.000000e+00
-5.539324e-04
-1.154972e-03
-1.700813e-03
-1.990303e-03
-1.647673e-03
1.303745e-05
4.216063e-03
1.305461e-02
2.979048e-02
5.882266e-02
1.047335e-01
1.691839e-01
2.433292e-01
2.967931e-01
2.885133e-01
2.081149e-01
0.000000e+00
1.136173e-01
2.434450e-01
3.953157e-01
5.587075e-01
7.252541e-01
8.930628e-01
1.061121e+00
1.228679e+00
1.394942e+00
1.558538e+00
1.716710e+00
1.863105e+00
1.983758e+00
2.056829e+00
2.065206e+00
2.023095e+00
0.000000e+00
2.570974e-01
5.414215e-01
8.597631e-01
1.191845e+00
1.521197e+00
1.848320e+00
2.173568e+00
2.493814e+00
2.803411e+00
3.093794e+00
3.354343e+00
3.573567e+00
3.739295e+00
3.840171e+00
3.873539e+00
3.863809e+00
0.000000e+00
4.593307e-01
9.551819e-01
1.445359e+00
1.947011e+00
2.437908e+00
2.921152e+00
3.400958e+00
3.872481e+00
4.324719e+00
4.740774e+00
5.100974e+00
5.388728e+00
5.594585e+00
5.718490e+00
5.771504e+00
5.781314e+00
0.000000e+00
8.344710e-01
1.511205e+00
2.169403e+00
2.840494e+00
3.497479e+00
4.146008e+00
4.790971e+00
5.424559e+00
6.029928e+00
6.580987e+00
7.047058e+00
7.402020e+00
7.632204e+00
7.743882e+00
7.771069e+00
7.770312e+00
0.000000e+00
-5.128412e-01
-1.055391e+00
-1.774858e+00
-2.659827e+00
-3.710280e+00
-4.931101e+00
-6.322245e+00
-7.880302e+00
-9.599562e+00
-1.147119e+01
-1.348564e+01
-1.563876e+01
-1.794195e+01
-2.046032e+01
-2.340708e+01
-2.778534e+01
0.000000e+00
-3.230249e-01
-8.888833e-01
-1.601303e+00
-2.486352e+00
-3.539732e+00
-4.762019e+00
-6.154664e+00
-7.716125e+00
-9.441604e+00
-1.132278e+01
-1.334945e+01
-1.551592e+01
-1.783484e+01
-2.036399e+01
-2.330103e+01
-2.695362e+01
0.000000e+00
-2.614633e-01
-7.779562e-01
-1.483388e+00
-2.364871e+00
-3.418664e+00
-4.642736e+00
-6.038249e+00
-7.604600e+00
-9.338120e+00
-1.123143e+01
-1.327491e+01
-1.546365e+01
-1.780913e+01
-2.034853e+01
-2.311306e+01
-2.574681e+01
0.000000e+00
-2.520176e-01
-7.327071e-01
-1.419626e+00
-2.294981e+00
-3.347403e+00
-4.573553e+00
-5.973398e+00
-7.546581e+00
-9.290245e+00
-1.119760e+01
-1.325876e+01
-1.546543e+01
-1.781488e+01
-2.029270e+01
-2.279021e+01
-2.501652e+01
0.000000e+00
-2.533233e-01
-7.225092e-01
-1.401427e+00
-2.273192e+00
-3.325616e+00
-4.554029e+00
-5.958148e+00
-7.537979e+00
-9.291102e+00
-1.121030e+01
-1.328287e+01
-1.549173e+01
-1.781222e+01
-2.018873e+01
-2.249955e+01
-2.454509e+01
0.000000e+00
-2.518227e-01
-7.327371e-01
-1.420371e+00
-2.297162e+00
-3.352088e+00
-4.582376e+00
-5.988997e+00
-7.572866e+00
-9.331765e+00
-1.125713e+01
-1.333167e+01
-1.552796e+01
-1.780385e+01
-2.009179e+01
-2.229038e+01
-2.426875e+01
0.000000e+00
-2.611290e-01
-7.779716e-01
-1.484531e+00
-2.368337e+00
-3.426240e+00
-4.657179e+00
-6.064042e+00
-7.648424e+00
-9.407853e+00
-1.133213e+01
-1.339973e+01
-1.557554e+01
-1.780875e+01
-2.003187e+01
-2.216800e+01
-2.414475e+01
0.000000e+00
-3.226876e-01
-8.888975e-01
-1.602553e+00
-2.490193e+00
-3.548212e+00
-4.778341e+00
-6.183985e+00
-7.765941e+00
-9.520492e+00
-1.143584e+01
-1.348819e+01
-1.563961e+01
-1.783716e+01
-2.001646e+01
-2.211683e+01
-2.411594e+01
0.000000e+00
-5.126367e-01
-1.055534e+00
-1.776274e+00
-2.663844e+00
-3.718926e+00
-4.947601e+00
-6.351565e+00
-7.928959e+00
-9.673788e+00
-1.157223e+01
-1.359996e+01
-1.572023e+01
-1.788293e+01
-2.002900e+01
-2.210737e+01
-2.411662e+01


0.000000e+00
1.047815e-05
2.028123e-05
2.969513e-05
3.974374e-05
4.956347e-05
5.856056e-05
6.669005e-05
7.374521e-05
7.936852e-05
8.344223e-05
8.619566e-05
8.806034e-05
8.952385e-05
9.095273e-05
9.296743e-05
9.558382e-05
0.000000e+00
7.709282e-06
1.635833e-05
2.345973e-05
3.112525e-05
3.863326e-05
4.536174e-05
5.135502e-05
5.649936e-05
6.045892e-05
6.313581e-05
6.473917e-05
6.553902e-05
6.572052e-05
6.590051e-05
6.753051e-05
7.032167e-05
0.000000e+00
5.823282e-06
1.162818e-05
1.651891e-05
2.169320e-05
2.658989e-05
3.095527e-05
3.479075e-05
3.800095e-05
4.040604e-05
4.196599e-05
4.279444e-05
4.306597e-05
4.304173e-05
4.325820e-05
4.465867e-05
4.704650e-05
0.000000e+00
2.912071e-06
5.446726e-06
8.219753e-06
1.079430e-05
1.314648e-05
1.527915e-05
1.714117e-05
1.865841e-05
1.978588e-05
2.051235e-05
2.088449e-05
2.103815e-05
2.119743e-05
2.157282e-05
2.242965e-05
2.381778e-05
0.000000e+00
-7.171913e-09
-1.479892e-08
-2.249644e-08
-3.046191e-08
-3.958570e-08
-5.339714e-08
-8.092821e-08
-1.343472e-07
-2.186459e-07
-3.219249e-07
-4.077490e-07
-4.106110e-07
-2.651960e-07
-2.172233e-08
2.942855e-07
8.842632e-07
0.000000e+00
-2.924876e-06
-5.472173e-06
-8.259288e-06
-1.084820e-05
-1.321407e-05
-1.536363e-05
-1.725746e-05
-1.883572e-05
-2.006346e-05
-2.092581e-05
-2.144045e-05
-2.166714e-05
-2.170576e-05
-2.170060e-05
-2.168336e-05
-2.148920e-05
0.000000e+00
-5.829263e-06
-1.164331e-05
-1.654680e-05
-2.173514e-05
-2.664517e-05
-3.102586e-05
-3.486514e-05
-3.803770e-05
-4.036307e-05
-4.185514e-05
-4.270256e-05
-4.313605e-05
-4.335687e-05
-4.349999e-05
-4.358171e-05
-4.353922e-05
0.000000e+00
-7.708740e-06
-1.636110e-05
-2.346965e-05
-3.114356e-05
-3.866140e-05
-4.540976e-05
-5.140233e-05
-5.644206e-05
-6.015734e-05
-6.253769e-05
-6.392983e-05
-6.472004e-05
-6.517671e-05
-6.544669e-05
-6.558159e-05
-6.560369e-05
0.000000e+00
-1.047877e-05
-2.027699e-05
-2.968587e-05
-3.972738e-05
-4.953908e-05
-5.853470e-05
-6.664108e-05
-7.356596e-05
-7.890124e-05
-8.258917e-05
-8.494262e-05
-8.637057e-05
-8.719724e-05
-8.762808e-05
-8.779006e-05
-8.781636e-05
0.000000e+00
9.132750e-06
1.560417e-05
2.361828e-05
3.425298e-05
4.688068e-05
6.157964e-05
7.836328e-05
9.681867e-05
1.165032e-04
1.371673e-04
1.586583e-04
1.808908e-04
2.041507e-04
2.301163e-04
2.599635e-04
2.906226e-04
0.000000e+00
4.774160e-06
1.152259e-05
1.932176e-05
2.974264e-05
4.261580e-05
5.774479e-05
7.498190e-05
9.403185e-05
1.144465e-04
1.358137e-04
1.578520e-04
1.804449e-04
2.037596e-04
2.284557e-04
2.564353e-04
2.861071e-04
0.000000e+00
2.104875e-06
8.171665e-06
1.616703e-05
2.650422e-05
3.957621e-05
5.504881e-05
7.264841e-05
9.212487e-05
1.130489e-04
1.349207e-04
1.573774e-04
1.802561e-04
2.034239e-04
2.266936e-04
2.524771e-04
2.805401e-04
0.000000e+00
1.208450e-06
6.596408e-06
1.465559e-05
2.514576e-05
3.830619e-05
5.390432e-05
7.167002e-05
9.131984e-05
1.124314e-04
1.345093e-04
1.571527e-04
1.800985e-04
2.030588e-04
2.256649e-04
2.497920e-04
2.758725e-04
0.000000e+00
1.028846e-06
6.146496e-06
1.414664e-05
2.475665e-05
3.793987e-05
5.356991e-05
7.139731e-05
9.111159e-05
1.122821e-04
1.344162e-04
1.570868e-04
1.799770e-04
2.028024e-04
2.253818e-04
2.486642e-04
2.728662e-04
0.000000e+00
1.209201e-06
6.593911e-06
1.464747e-05
2.513043e-05
3.828467e-05
5.388927e-05
7.169038e-05
9.140077e-05
1.125683e-04
1.346637e-04
1.572496e-04
1.800229e-04
2.027665e-04
2.254256e-04
2.483125e-04
2.712974e-04
0.000000e+00
2.105854e-06
8.167932e-06
1.615510e-05
2.648108e-05
3.954315e-05
5.502751e-05
7.268961e-05
9.227447e-05
1.133036e-04
1.352228e-04
1.576158e-04
1.802219e-04
2.028758e-04
2.255104e-04
2.481614e-04
2.706199e-04
0.000000e+00
4.776286e-06
1.152215e-05
1.931426e-05
2.972465e-05
4.259048e-05
5.773434e-05
7.502944e-05
9.417434e-05
1.146871e-04
1.361203e-04
1.581413e-04
1.805031e-04
2.030229e-04
2.255804e-04
2.480887e-04
2.704096e-04
0.000000e+00
9.136567e-06
1.560726e-05
2.361692e-05
3.424319e-05
4.686845e-05
6.158399e-05
7.839750e-05
9.687977e-05
1.165956e-04
1.373088e-04
1.588162e-04
1.808621e-04
2.032034e-04
2.256573e-04
2.480822e-04
2.703805e-04


2.193943e+00
2.135028e+00
2.277128e+00
2.498325e+00
2.671760e+00
2.920601e+00
3.244113e+00
3.607112e+00
3.985814e+00
4.338057e+00
4.618145e+00
4.801839e+00
4.858172e+00
4.666111e+00
4.230769e+00
3.884579e+00
2.922128e+00
2.863074e+00
2.949031e+00
3.100848e+00
3.221779e+00
3.404756e+00
3.647773e+00
3.923314e+00
4.214701e+00
4.488899e+00
4.707840e+00
4.849002e+00
4.877301e+00
4.666338e+00
4.232428e+00
3.890509e+00
3.988703e+00
3.945289e+00
3.973375e+00
4.031037e+00
4.077301e+00
4.163402e+00
4.281039e+00
4.418109e+00
4.568709e+00
4.714733e+00
4.832884e+00
4.907444e+00
4.908834e+00
4.733521e+00
4.389082e+00
4.128952e+00
4.653457e+00
4.626970e+00
4.621919e+00
4.621712e+00
4.629334e+00
4.653537e+00
4.688797e+00
4.733540e+00
4.787755e+00
4.844373e+00
4.892790e+00
4.925441e+00
4.925953e+00
4.836008e+00
4.655079e+00
4.518074e+00
4.653498e+00
4.626916e+00
4.621658e+00
4.621034e+00
4.627784e+00
4.650447e+00
4.683597e+00
4.725786e+00
4.776818e+00
4.829887e+00
4.876144e+00
4.911923e+00
4.932430e+00
4.915506e+00
4.858010e+00
4.811710e+00
3.988570e+00
3.944849e+00
3.972335e+00
4.028927e+00
4.073197e+00
4.156550e+00
4.271935e+00
4.407565e+00
4.555300e+00
4.695288e+00
4.807587e+00
4.887244e+00
4.939676e+00
4.965666e+00
4.968460e+00
4.964321e+00
2.921381e+00
2.861827e+00
2.946966e+00
3.097599e+00
3.216923e+00
3.399572e+00
3.646935e+00
3.931675e+00
4.230741e+00
4.504273e+00
4.716102e+00
4.858357e+00
4.945461e+00
4.994792e+00
5.019243e+00
5.028504e+00
2.192623e+00
2.133133e+00
2.274417e+00
2.494698e+00
2.667538e+00
2.919053e+00
3.253417e+00
3.635387e+00
4.031678e+00
4.389436e+00
4.663062e+00
4.843515e+00
4.950326e+00
5.009023e+00
5.038499e+00
5.050628e+00


-4.735953e-01
-2.108696e-01
-1.546300e-01
-2.041670e-01
-1.572675e-01
-1.289566e-01
-1.205437e-01
-9.654014e-02
-4.384825e-02
4.488767e-02
1.644330e-01
2.911614e-01
4.047379e-01
5.094654e-01
6.249625e-01
-4.590630e-01
5.183194e-01
3.995628e-01
3.649712e-01
3.250648e-01
3.385767e-01
3.453161e-01
3.448069e-01
3.562181e-01
3.900626e-01
4.554080e-01
5.547243e-01
6.786490e-01
8.107456e-01
9.134615e-01
7.770962e-01
-1.204215e+00
8.321994e-01
7.364976e-01
6.565655e-01
6.184357e-01
6.088838e-01
6.019126e-01
5.968792e-01
5.994699e-01
6.149016e-01
6.481873e-01
6.981984e-01
7.491987e-01
7.632459e-01
6.704483e-01
3.670641e-01
-1.682831e-01
9.297649e-01
8.503986e-01
7.770859e-01
7.356165e-01
7.180186e-01
7.085283e-01
6.998741e-01
6.897854e-01
6.783501e-01
6.661046e-01
6.496079e-01
6.158214e-01
5.439807e-01
4.373277e-01
3.778254e-01
3.817788e-01
9.302608e-01
8.510112e-01
7.776094e-01
7.353886e-01
7.159300e-01
7.027462e-01
6.871655e-01
6.648702e-01
6.337697e-01
5.937040e-01
5.455913e-01
4.919843e-01
4.464265e-01
4.521651e-01
5.563718e-01
7.262923e-01
8.333462e-01
7.379642e-01
6.579664e-01
6.185866e-01
6.056899e-01
5.916309e-01
5.726446e-01
5.502281e-01
5.252052e-01
5.004217e-01
4.810510e-01
4.773223e-01
5.106562e-01
6.058535e-01
7.566144e-01
9.125849e-01
5.191213e-01
4.006884e-01
3.661384e-01
3.259540e-01
3.383849e-01
3.419859e-01
3.340946e-01
3.325682e-01
3.481999e-01
3.898261e-01
4.589422e-01
5.495188e-01
6.586427e-01
7.852860e-01
9.075684e-01
9.847382e-01
-4.744982e-01
-2.121600e-01
-1.561846e-01
-2.056921e-01
-1.577078e-01
-1.277616e-01
-1.164531e-01
-8.171532e-02
3.368406e-03
1.575657e-01
3.718153e-01
6.025556e-01
7.981011e-01
9.260337e-01
9.855329e-01
9.997069e-01
1 2 19 18
2 3 20 19
3 4 21 20
4 5 22 21
5 6 23 22
6 7 24 23
7 8 25 24
8 9 26 25
9 10 27 26
10 11 28 27
11 12 29 28
12 13 30 29
13 14 31 30
14 15 32 31
15 16 33 32
16 17 34 33
18 19 36 35
19 20 37 36
20 21 38 37
21 22 39 38
22 23 40 39
23 24 41 40
24 25 42 41
25 26 43 42
26 27 44 43
27 28 45 44
28 29 46 45
29 30 47 46
30 31 48 47
31 32 49 48
32 33 50 49
33 34 51 50
35 36 53 52
36 37 54 53
37 38 55 54
38 39 56 55
39 40 57 56
40 41 58 57
41 42 59 58
42 43 60 59
43 44 61 60
44 45 62 61
45 46 63 62
46 47 64 63
47 48 65 64
48 49 66 65
49 50 67 66
50 51 68 67
52 53 70 69
53 54 71 70
54 55 72 71
55 56 73 72
56 57 74 73
57 58 75 74
58 59 76 75
59 60 77 76
60 61 78 77
61 62 79 78
62 63 80 79
63 64 81 80
64 65 82 81
65 66 83 82
66 67 84 83
67 68 85 84
69 70 87 86
70 71 88 87
71 72 89 88
72 73 90 89
73 74 91 90
74 75 92 91
75 76 93 92
76 77 94 93
77 78 95 94
78 79 96 95
79 80 97 96
80 81 98 97
81 82 99 98
82 83 100 99
83 84 101 100
84 85 102 101
86 87 104 103
87 88 105 104
88 89 106 105
89 90 107 106
90 91 108 107
91 92 109 108
92 93 110 109
93 94 111 110
94 95 112 111
95 96 113 112
96 97 114 113
97 98 115 114
98 99 116 115
99 100 117 116
100 101 118 117
101 102 119 118
103 104 121 120
104 105 122 121
105 106 123 122
106 107 124 123
107 108 125 124
108 109 126 125
109 110 127 126
110 111 128 127
111 112 129 128
112 113 130 129
113 114 131 130
114 115 132 131
115 116 133 132
116 117 134 133
117 118 135 134
118 119 136 135
120 121 138 137
121 122 139 138
122 123 140 139
123 124 141 140
124 125 142 141
125 126 143 142
126 127 144 143
127 128 145 144
128 129 146 145
129 130 147 146
130 131 148 147
131 132 149 148
132 133 150 149
133 134 151 150
134 135 152 151
135 136 153 152
