TITLE = "Solution"
VARIABLES = x, y, u, v, psiu, psiv, t, stress
ZONE T="structure" N=153 E=128 F=FEBLOCK ET=QUADRILATERAL VARLOCATION=([7,8]=cellcentered)
0.000000e+00
1.250000e+01
2.500000e+01
3.750000e+01
5.000000e+01
6.250000e+01
7.500000e+01
8.750000e+01
1.000000e+02
1.125000e+02
1.250000e+02
1.375000e+02
1.500000e+02
1.625000e+02
1.750000e+02
1.875000e+02
2.000000e+02
0.000000e+00
1.250000e+01
2.500000e+01
3.750000e+01
5.000000e+01
6.250000e+01
7.500000e+01
8.750000e+01
1.000000e+02
1.125000e+02
1.250000e+02
1.375000e+02
1.500000e+02
1.625000e+02
1.750000e+02
1.875000e+02
2.000000e+02
0.000000e+00
1.250000e+01
2.500000e+01
3.750000e+01
5.000000e+01
6.250000e+01
7.500000e+01
8.750000e+01
1.000000e+02
1.125000e+02
1.250000e+02
1.375000e+02
1.500000e+02
1.625000e+02
1.750000e+02
1.875000e+02
2.000000e+02
0.000000e+00
1.250000e+01
2.500000e+01
3.750000e+01
5.000000e+01
6.250000e+01
7.500000e+01
8.750000e+01
1.000000e+02
1.125000e+02
1.250000e+02
1.375000e+02
1.500000e+02
1.625000e+02
1.750000e+02
1.875000e+02
2.000000e+02
0.000000e+00
1.250000e+01
2.500000e+01
3.750000e+01
5.000000e+01
6.250000e+01
7.500000e+01
8.750000e+01
1.000000e+02
1.125000e+02
1.250000e+02
1.375000e+02
1.500000e+02
1.625000e+02
1.750000e+02
1.875000e+02
2.000000e+02
0.000000e+00
1.250000e+01
2.500000e+01
3.750000e+01
5.000000e+01
6.250000e+01
7.500000e+01
8.750000e+01
1.000000e+02
1.125000e+02
1.250000e+02
1.375000e+02
1.500000e+02
1.625000e+02
1.750000e+02
1.875000e+02
2.000000e+02
0.000000e+00
1.250000e+01
2.500000e+01
3.750000e+01
5.000000e+01
6.250000e+01
7.500000e+01
8.750000e+01
1.000000e+02
1.125000e+02
1.250000e+02
1.375000e+02
1.500000e+02
1.625000e+02
1.750000e+02
1.875000e+02
2.000000e+02
0.000000e+00
1.250000e+01
2.500000e+01
3.750000e+01
5.000000e+01
6.250000e+01
7.500000e+01
8.750000e+01
1.000000e+02
1.125000e+02
1.250000e+02
1.375000e+02
1.500000e+02
1.625000e+02
1.750000e+02
1.875000e+02
2.000000e+02
0.000000e+00
1.250000e+01
2.500000e+01
3.750000e+01
5.000000e+01
6.250000e+01
7.500000e+01
8.750000e+01
1.000000e+02
1.125000e+02
1.250000e+02
1.375000e+02
1.500000e+02
1.625000e+02
1.750000e+02
1.875000e+02
2.000000e+02
0.000000e+00
0.000000e+00
0.000000e+00
0.000000e+00
0.000000e+00
0.000000e+00
0.000000e+00
0.000000e+00
0.000000e+00
0.000000e+00
0.000000e+00
0.000000e+00
0.000000e+00
0.000000e+00
0.000000e+00
0.000000e+00
0.000000e+00
1.250000e+01
1.250000e+01
1.250000e+01
1.250000e+01
1.250000e+01
1.250000e+01
1.250000e+01
1.250000e+01
1.250000e+01
1.250000e+01
1.250000e+01
1.250000e+01
1.250000e+01
1.250000e+01
1.250000e+01
1.250000e+01
1.250000e+01
2.500000e+01
2.500000e+01
2.500000e+01
2.500000e+01
2.500000e+01
2.500000e+01
2.500000e+01
2.500000e+01
2.500000e+01
2.500000e+01
2.500000e+01
2.500000e+01
2.500000e+01
2.500000e+01
2.500000e+01
2.500000e+01
2.500000e+01
3.750000e+01
3.750000e+01
3.750000e+01
3.750000e+01
3.750000e+01
3.750000e+01
3.750000e+01
3.750000e+01
3.750000e+01
3.750000e+01
3.750000e+01
3.750000e+01
3.750000e+01
3.750000e+01
3.750000e+01
3.750000e+01
3.750000e+01
5.000000e+01
5.000000e+01
5.000000e+01
5.000000e+01
5.000000e+01
5.000000e+01
5.000000e+01
5.000000e+01
5.000000e+01
5.000000e+01
5.000000e+01
5.000000e+01
5.000000e+01
5.000000e+01
5.000000e+01
5.000000e+01
5.000000e+01
6.250000e+01
6.250000e+01
6.250000e+01
6.250000e+01
6.250000e+01
6.250000e+01
6.250000e+01
6.250000e+01
6.250000e+01
6.250000e+01
6.250000e+01
6.250000e+01
6.250000e+01
6.250000e+01
6.250000e+01
6.250000e+01
6.250000e+01
7.500000e+01
7.500000e+01
7.500000e+01
7.500000e+01
7.500000e+01
7.500000e+01
7.500000e+01
7.500000e+01
7.500000e+01
7.500000e+01
7.500000e+01
7.500000e+01
7.500000e+01
7.500000e+01
7.500000e+01
7.500000e+01
7.500000e+01
8.750000e+01
8.750000e+01
8.750000e+01
8.750000e+01
8.750000e+01
8.750000e+01
8.750000e+01
8.750000e+01
8.750000e+01
8.750000e+01
8.750000e+01
8.750000e+01
8.750000e+01
8.750000e+01
8.750000e+01
8.750000e+01
8.750000e+01
1.000000e+02
1.000000e+02
1.000000e+02
1.000000e+02
1.000000e+02
1.000000e+02
1.000000e+02
1.000000e+02
1.000000e+02
1.000000e+02
1.000000e+02
1.000000e+02
1.000000e+02
1.000000e+02
1.000000e+02
1.000000e+02
1.000000e+02
0.000000e+00
-1.001179e+00
-1.804167e+00
-2.550181e+00
-3.309854e+00
-4.078502e+00
-4.842460e+00
-5.600455e+00
-6.372242e+00
-7.243873e+00
-8.255794e+00
-9.138329e+00
-9.850415e+00
-1.060762e+01
-1.142813e+01
-1.219280e+01
-1.266648e+01
0.000000e+00
-5.553565e-01
-1.142747e+00
-1.698233e+00
-2.256664e+00
-2.814411e+00
-3.368565e+00
-3.913360e+00
-4.469412e+00
-5.103318e+00
-5.850821e+00
-6.496675e+00
-6.990552e+00
-7.429707e+00
-7.762407e+00
-7.831786e+00
-7.998248e+00
0.000000e+00
-3.021016e-01
-6.349298e-01
-9.924285e-01
-1.351928e+00
-1.707499e+00
-2.065502e+00
-2.429016e+00
-2.809821e+00
-3.235805e+00
-3.687400e+00
-4.054744e+00
-4.314014e+00
-4.466969e+00
-4.477395e+00
-4.423419e+00
-4.618541e+00
0.000000e+00
-1.256380e-01
-2.797395e-01
-4.504388e-01
-6.213794e-01
-7.865329e-01
-9.520064e-01
-1.128909e+00
-1.322022e+00
-1.528027e+00
-1.706123e+00
-1.826506e+00
-1.881067e+00
-1.863642e+00
-1.792636e+00
-1.789869e+00
-1.959279e+00
0.000000e+00
-3.967443e-03
-5.852648e-03
-3.147587e-03
5.448890e-03
1.930231e-02
3.853548e-02
6.276610e-02
9.192973e-02
1.305595e-01
1.825604e-01
2.539783e-01
3.504947e-01
4.603478e-01
5.444212e-01
5.313136e-01
4.146171e-01
0.000000e+00
1.217870e-01
2.708988e-01
4.387554e-01
6.151240e-01
7.985445e-01
9.963502e-01
1.225610e+00
1.493005e+00
1.790466e+00
2.062909e+00
2.289504e+00
2.491696e+00
2.673426e+00
2.790839e+00
2.800441e+00
2.741437e+00
0.000000e+00
3.022792e-01
6.288614e-01
9.729467e-01
1.317444e+00
1.666074e+00
2.036724e+00
2.448278e+00
2.920456e+00
3.458929e+00
3.977722e+00
4.374799e+00
4.676720e+00
4.909520e+00
5.063969e+00
5.112851e+00
5.100159e+00
0.000000e+00
5.578254e-01
1.139506e+00
1.676586e+00
2.205920e+00
2.736117e+00
3.285452e+00
3.871114e+00
4.523316e+00
5.264116e+00
6.012785e+00
6.607618e+00
7.037525e+00
7.335690e+00
7.513797e+00
7.584225e+00
7.597439e+00
0.000000e+00
1.007479e+00
1.803909e+00
2.529312e+00
3.253712e+00
3.988475e+00
4.749863e+00
5.560007e+00
6.440894e+00
7.411825e+00
8.353394e+00
9.124484e+00
9.677494e+00
1.002756e+01
1.018239e+01
1.020573e+01
1.020091e+01
0.000000e+00
-6.107691e-01
-1.245391e+00
-2.077087e+00
-3.101291e+00
-4.332281e+00
-5.782558e+00
-7.462017e+00
-9.388831e+00
-1.159609e+01
-1.406344e+01
-1.668900e+01
-1.949970e+01
-2.255189e+01
-2.591392e+01
-2.983224e+01
-3.541821e+01
0.000000e+00
-3.841645e-01
-1.053016e+00
-1.882730e+00
-2.903571e+00
-4.132531e+00
-5.584512e+00
-7.264545e+00
-9.179365e+00
-1.135497e+01
-1.382219e+01
-1.649542e+01
-1.932981e+01
-2.238545e+01
-2.577991e+01
-2.971446e+01
-3.445612e+01
0.000000e+00
-3.101765e-01
-9.289455e-01
-1.754384e+00
-2.769717e+00
-3.992362e+00
-5.440029e+00
-7.119677e+00
-9.030793e+00
-1.120927e+01
-1.369075e+01
-1.638875e+01
-1.925235e+01
-2.234064e+01
-2.576038e+01
-2.949407e+01
-3.297557e+01
0.000000e+00
-3.031532e-01
-8.863613e-01
-1.692107e+00
-2.697999e+00
-3.909864e+00
-5.344167e+00
-7.020258e+00
-8.944830e+00
-1.115993e+01
-1.366018e+01
-1.636766e+01
-1.925014e+01
-2.234594e+01
-2.568483e+01
-2.903847e+01
-3.192236e+01
0.000000e+00
-3.131449e-01
-8.842587e-01
-1.681070e+00
-2.680480e+00
-3.885713e+00
-5.309136e+00
-6.981570e+00
-8.925117e+00
-1.117700e+01
-1.369679e+01
-1.640359e+01
-1.928286e+01
-2.234294e+01
-2.554557e+01
-2.861011e+01
-3.121926e+01
0.000000e+00
-3.076751e-01
-8.963218e-01
-1.704837e+00
-2.711050e+00
-3.919170e+00
-5.345504e+00
-7.021989e+00
-8.970966e+00
-1.123709e+01
-1.376967e+01
-1.647413e+01
-1.933276e+01
-2.233946e+01
-2.541751e+01
-2.832113e+01
-3.086129e+01
0.000000e+00
-3.160976e-01
-9.420111e-01
-1.772537e+00
-2.789184e+00
-4.007239e+00
-5.447289e+00
-7.132333e+00
-9.085544e+00
-1.134558e+01
-1.387568e+01
-1.657091e+01
-1.940781e+01
-2.236185e+01
-2.533546e+01
-2.814057e+01
-3.069940e+01
0.000000e+00
-3.895290e-01
-1.064125e+00
-1.897758e+00
-2.919768e+00
-4.145998e+00
-5.597794e+00
-7.295972e+00
-9.264676e+00
-1.152383e+01
-1.403310e+01
-1.670292e+01
-1.951193e+01
-2.241835e+01
-2.531479e+01
-2.806728e+01
-3.067473e+01
0.000000e+00
-6.160080e-01
-1.252877e+00
-2.084759e+00
-3.107944e+00
-4.339840e+00
-5.801515e+00
-7.516092e+00
-9.507807e+00
-1.178006e+01
-1.425858e+01
-1.687945e+01
-1.963786e+01
-2.249023e+01
-2.533030e+01
-2.805405e+01
-3.067956e+01


0.000000e+00
2.559585e-05
4.484440e-05
5.631375e-05
6.423495e-05
7.167453e-05
7.966228e-05
8.687170e-05
9.214760e-05
9.471581e-05
9.286057e-05
8.749846e-05
8.193306e-05
7.701600e-05
7.404101e-05
7.359359e-05
7.438239e-05
0.000000e+00
2.010781e-05
3.787251e-05
4.553637e-05
5.052739e-05
5.602801e-05
6.272466e-05
6.907141e-05
7.381830e-05
7.612372e-05
7.390612e-05
6.843262e-05
6.316301e-05
5.834423e-05
5.450816e-05
5.361575e-05
5.461313e-05
0.000000e+00
1.424289e-05
2.582674e-05
3.144902e-05
3.560250e-05
3.969350e-05
4.434794e-05
4.859112e-05
5.141326e-05
5.198164e-05
4.941167e-05
4.528654e-05
4.148055e-05
3.825316e-05
3.583984e-05
3.543234e-05
3.656202e-05
0.000000e+00
6.409174e-06
1.076324e-05
1.474135e-05
1.736089e-05
1.943867e-05
2.146084e-05
2.316180e-05
2.378572e-05
2.306680e-05
2.124334e-05
1.925742e-05
1.763983e-05
1.657493e-05
1.610245e-05
1.625734e-05
1.669790e-05
0.000000e+00
-5.942823e-07
-1.316339e-06
-2.084897e-06
-2.944746e-06
-3.849830e-06
-4.605033e-06
-5.855443e-06
-6.602281e-06
-7.308025e-06
-7.399431e-06
-7.124386e-06
-6.717619e-06
-6.184473e-06
-5.746769e-06
-5.918149e-06
-6.463803e-06
0.000000e+00
-8.040116e-06
-1.352057e-05
-1.873052e-05
-2.251043e-05
-2.593173e-05
-3.074814e-05
-3.651412e-05
-3.957274e-05
-3.821164e-05
-3.549912e-05
-3.283154e-05
-3.080370e-05
-2.920174e-05
-2.841973e-05
-2.870424e-05
-2.942122e-05
0.000000e+00
-1.676750e-05
-2.957673e-05
-3.514027e-05
-3.925481e-05
-4.353149e-05
-5.142254e-05
-6.236108e-05
-6.943362e-05
-6.857524e-05
-6.317264e-05
-5.818482e-05
-5.515978e-05
-5.321286e-05
-5.186612e-05
-5.165175e-05
-5.197422e-05
0.000000e+00
-2.312849e-05
-4.220508e-05
-4.907485e-05
-5.325203e-05
-5.840377e-05
-6.729573e-05
-7.962086e-05
-8.956043e-05
-9.221671e-05
-8.797322e-05
-8.231570e-05
-7.889752e-05
-7.663542e-05
-7.475204e-05
-7.388130e-05
-7.370525e-05
0.000000e+00
-2.845168e-05
-4.857587e-05
-5.945968e-05
-6.685777e-05
-7.438069e-05
-8.437092e-05
-9.494885e-05
-1.038860e-04
-1.078106e-04
-1.071136e-04
-1.036267e-04
-1.006408e-04
-9.779925e-05
-9.545383e-05
-9.440152e-05
-9.413717e-05
0.000000e+00
2.081211e-05
3.074922e-05
4.093760e-05
5.518715e-05
7.273816e-05
9.218387e-05
1.122166e-04
1.321518e-04
1.506963e-04
1.664274e-04
1.817608e-04
1.977094e-04
2.129191e-04
2.296288e-04
2.507929e-04
2.731957e-04
0.000000e+00
1.085570e-05
2.442570e-05
3.712517e-05
5.205628e-05
6.916593e-05
8.839193e-05
1.089864e-04
1.299870e-04
1.501942e-04
1.680232e-04
1.843033e-04
2.002463e-04
2.152647e-04
2.303712e-04
2.496119e-04
2.713074e-04
0.000000e+00
4.899264e-06
1.883927e-05
3.407334e-05
4.956559e-05
6.653151e-05
8.567184e-05
1.068117e-04
1.289414e-04
1.505445e-04
1.696663e-04
1.865744e-04
2.025425e-04
2.173866e-04
2.307946e-04
2.476423e-04
2.684340e-04
0.000000e+00
3.262851e-06
1.597414e-05
3.182971e-05
4.807236e-05
6.536030e-05
8.468036e-05
1.064320e-04
1.294676e-04
1.514648e-04
1.707202e-04
1.876399e-04
2.035996e-04
2.186503e-04
2.317714e-04
2.466429e-04
2.662700e-04
0.000000e+00
3.279108e-06
1.542682e-05
3.118197e-05
4.778692e-05
6.494967e-05
8.401959e-05
1.064867e-04
1.303309e-04
1.521836e-04
1.708052e-04
1.875206e-04
2.036355e-04
2.193640e-04
2.336618e-04
2.483616e-04
2.668227e-04
0.000000e+00
3.431362e-06
1.681177e-05
3.287951e-05
4.888389e-05
6.511027e-05
8.375941e-05
1.065956e-04
1.309320e-04
1.522012e-04
1.700198e-04
1.865542e-04
2.031842e-04
2.196762e-04
2.351882e-04
2.507702e-04
2.688027e-04
0.000000e+00
5.390127e-06
2.028149e-05
3.561519e-05
5.064521e-05
6.672485e-05
8.596077e-05
1.089992e-04
1.319214e-04
1.513604e-04
1.682851e-04
1.849284e-04
2.023825e-04
2.194933e-04
2.356518e-04
2.523355e-04
2.708654e-04
0.000000e+00
1.214565e-05
2.622723e-05
3.852400e-05
5.307107e-05
7.013805e-05
9.120308e-05
1.143023e-04
1.346762e-04
1.509751e-04
1.659757e-04
1.827497e-04
2.011085e-04
2.187414e-04
2.353933e-04
2.529350e-04
2.719316e-04
0.000000e+00
2.319866e-05
3.265572e-05
4.206536e-05
5.606034e-05
7.423794e-05
9.682871e-05
1.198114e-04
1.383712e-04
1.513996e-04
1.642428e-04
1.807180e-04
1.997630e-04
2.176908e-04
2.348773e-04
2.529910e-04
2.721661e-04


2.596870e+00
2.512262e+00
2.530783e+00
2.759736e+00
2.991982e+00
3.231951e+00
3.595096e+00
4.220011e+00
5.948859e+00
7.914891e+00
7.913699e+00
7.114326e+00
7.575775e+00
7.547598e+00
6.035850e+00
4.672301e+00
3.309070e+00
3.344182e+00
3.418315e+00
3.607690e+00
3.875071e+00
4.377566e+00
4.696274e+00
5.308750e+00
6.619333e+00
8.006439e+00
7.822644e+00
7.155523e+00
7.397739e+00
7.691829e+00
6.498375e+00
5.196713e+00
4.967090e+00
5.064953e+00
4.858179e+00
4.775515e+00
5.059176e+00
5.668135e+00
6.389763e+00
6.892405e+00
7.708725e+00
8.146177e+00
7.789792e+00
7.280687e+00
7.392935e+00
7.892908e+00
7.707052e+00
6.777405e+00
6.690601e+00
6.405480e+00
5.636204e+00
5.147845e+00
5.281612e+00
6.018403e+00
7.062431e+00
7.967805e+00
8.356783e+00
8.013623e+00
7.504495e+00
7.286442e+00
7.518063e+00
8.162195e+00
8.396589e+00
7.856105e+00
6.632663e+00
6.274712e+00
5.516130e+00
5.117158e+00
5.378074e+00
6.168920e+00
7.315243e+00
8.205828e+00
8.541834e+00
7.929335e+00
7.109432e+00
7.192523e+00
7.724221e+00
8.420386e+00
8.478387e+00
7.608817e+00
4.898347e+00
4.894422e+00
4.668031e+00
4.713053e+00
5.183329e+00
5.990925e+00
6.895031e+00
7.704314e+00
8.502585e+00
8.232899e+00
7.258664e+00
7.097205e+00
7.886552e+00
8.474799e+00
8.132513e+00
7.483858e+00
3.332979e+00
3.298501e+00
3.320560e+00
3.510401e+00
3.889087e+00
4.582346e+00
5.294360e+00
6.448889e+00
7.759918e+00
8.397042e+00
7.754184e+00
7.386600e+00
7.495101e+00
7.586087e+00
7.117005e+00
6.470988e+00
2.601142e+00
2.477838e+00
2.442494e+00
2.629639e+00
2.904367e+00
3.360826e+00
4.120569e+00
5.337412e+00
7.019057e+00
8.039276e+00
8.061648e+00
7.550595e+00
7.136745e+00
6.717208e+00
5.913223e+00
5.094975e+00


-1.131851e+00
-6.998726e-01
-4.822093e-01
-5.193516e-01
-5.402063e-01
-5.251157e-01
-4.960886e-01
-5.648271e-01
-1.018433e+00
-1.726195e+00
-1.046075e+00
-2.756442e-01
-2.387789e-01
-1.430494e-01
3.818374e-01
-8.813289e-01
3.165750e-01
1.775881e-01
2.056531e-01
2.004568e-01
1.985260e-01
1.785676e-01
1.486065e-01
5.104248e-02
-2.338092e-01
-5.458838e-01
-9.907691e-02
3.866547e-01
6.061461e-01
7.772310e-01
5.849927e-01
-2.238003e+00
7.744789e-01
6.300051e-01
5.571399e-01
5.427837e-01
5.271812e-01
4.789663e-01
3.946740e-01
2.856108e-01
1.079199e-01
2.501432e-02
2.500601e-01
4.635372e-01
4.753562e-01
1.563649e-01
-4.504163e-01
-1.383382e+00
8.912267e-01
7.570176e-01
6.763461e-01
6.427458e-01
6.056160e-01
5.448420e-01
4.515505e-01
3.597591e-01
2.250486e-01
1.450762e-01
1.859001e-01
1.824851e-01
-3.824348e-03
-4.064039e-01
-4.645676e-01
-3.406262e-01
8.936159e-01
7.603801e-01
6.715341e-01
6.184051e-01
5.600017e-01
4.799196e-01
3.607379e-01
2.412881e-01
8.021990e-02
1.889839e-02
4.956427e-02
-2.425605e-02
-2.046013e-01
-3.333839e-01
3.989288e-02
5.213060e-01
7.749445e-01
6.357789e-01
5.625770e-01
5.266117e-01
4.685478e-01
3.588399e-01
1.705918e-01
-8.338495e-02
-3.913002e-01
-3.849549e-01
-1.000533e-01
-1.094787e-02
-6.239324e-02
1.400584e-02
4.503590e-01
8.303413e-01
3.097343e-01
1.928519e-01
2.508842e-01
2.598405e-01
2.340408e-01
1.309355e-01
-6.796560e-02
-4.141666e-01
-8.905518e-01
-9.352911e-01
-3.194060e-01
1.005069e-01
3.086591e-01
5.264032e-01
8.229648e-01
9.769181e-01
-1.157240e+00
-6.704207e-01
-3.955054e-01
-3.768956e-01
-4.047650e-01
-5.137170e-01
-7.259345e-01
-1.097817e+00
-1.627262e+00
-1.569252e+00
-6.938174e-01
9.032447e-02
5.626497e-01
8.502364e-01
9.793169e-01
9.998501e-01
1 2 19 18
2 3 20 19
3 4 21 20
4 5 22 21
5 6 23 22
6 7 24 23
7 8 25 24
8 9 26 25
9 10 27 26
10 11 28 27
11 12 29 28
12 13 30 29
13 14 31 30
14 15 32 31
15 16 33 32
16 17 34 33
18 19 36 35
19 20 37 36
20 21 38 37
21 22 39 38
22 23 40 39
23 24 41 40
24 25 42 41
25 26 43 42
26 27 44 43
27 28 45 44
28 29 46 45
29 30 47 46
30 31 48 47
31 32 49 48
32 33 50 49
33 34 51 50
35 36 53 52
36 37 54 53
37 38 55 54
38 39 56 55
39 40 57 56
40 41 58 57
41 42 59 58
42 43 60 59
43 44 61 60
44 45 62 61
45 46 63 62
46 47 64 63
47 48 65 64
48 49 66 65
49 50 67 66
50 51 68 67
52 53 70 69
53 54 71 70
54 55 72 71
55 56 73 72
56 57 74 73
57 58 75 74
58 59 76 75
59 60 77 76
60 61 78 77
61 62 79 78
62 63 80 79
63 64 81 80
64 65 82 81
65 66 83 82
66 67 84 83
67 68 85 84
69 70 87 86
70 71 88 87
71 72 89 88
72 73 90 89
73 74 91 90
74 75 92 91
75 76 93 92
76 77 94 93
77 78 95 94
78 79 96 95
79 80 97 96
80 81 98 97
81 82 99 98
82 83 100 99
83 84 101 100
84 85 102 101
86 87 104 103
87 88 105 104
88 89 106 105
89 90 107 106
90 91 108 107
91 92 109 108
92 93 110 109
93 94 111 110
94 95 112 111
95 96 113 112
96 97 114 113
97 98 115 114
98 99 116 115
99 100 117 116
100 101 118 117
101 102 119 118
103 104 121 120
104 105 122 121
105 106 123 122
106 107 124 123
107 108 125 124
108 109 126 125
109 110 127 126
110 111 128 127
111 112 129 128
112 113 130 129
113 114 131 130
114 115 132 131
115 116 133 132
116 117 134 133
117 118 135 134
118 119 136 135
120 121 138 137
121 122 139 138
122 123 140 139
123 124 141 140
124 125 142 141
125 126 143 142
126 127 144 143
127 128 145 144
128 129 146 145
129 130 147 146
130 131 148 147
131 132 149 148
132 133 150 149
133 134 151 150
134 135 152 151
135 136 153 152
