TITLE = "Solution"
VARIABLES = x, y, u, v, psiu, psiv, t, stress
ZONE T="structure" N=153 E=128 F=FEBLOCK ET=QUADRILATERAL VARLOCATION=([7,8]=cellcentered)
0.000000e+00
1.250000e+01
2.500000e+01
3.750000e+01
5.000000e+01
6.250000e+01
7.500000e+01
8.750000e+01
1.000000e+02
1.125000e+02
1.250000e+02
1.375000e+02
1.500000e+02
1.625000e+02
1.750000e+02
1.875000e+02
2.000000e+02
0.000000e+00
1.250000e+01
2.500000e+01
3.750000e+01
5.000000e+01
6.250000e+01
7.500000e+01
8.750000e+01
1.000000e+02
1.125000e+02
1.250000e+02
1.375000e+02
1.500000e+02
1.625000e+02
1.750000e+02
1.875000e+02
2.000000e+02
0.000000e+00
1.250000e+01
2.500000e+01
3.750000e+01
5.000000e+01
6.250000e+01
7.500000e+01
8.750000e+01
1.000000e+02
1.125000e+02
1.250000e+02
1.375000e+02
1.500000e+02
1.625000e+02
1.750000e+02
1.875000e+02
2.000000e+02
0.000000e+00
1.250000e+01
2.500000e+01
3.750000e+01
5.000000e+01
6.250000e+01
7.500000e+01
8.750000e+01
1.000000e+02
1.125000e+02
1.250000e+02
1.375000e+02
1.500000e+02
1.625000e+02
1.750000e+02
1.875000e+02
2.000000e+02
0.000000e+00
1.250000e+01
2.500000e+01
3.750000e+01
5.000000e+01
6.250000e+01
7.500000e+01
8.750000e+01
1.000000e+02
1.125000e+02
1.250000e+02
1.375000e+02
1.500000e+02
1.625000e+02
1.750000e+02
1.875000e+02
2.000000e+02
0.000000e+00
1.250000e+01
2.500000e+01
3.750000e+01
5.000000e+01
6.250000e+01
7.500000e+01
8.750000e+01
1.000000e+02
1.125000e+02
1.250000e+02
1.375000e+02
1.500000e+02
1.625000e+02
1.750000e+02
1.875000e+02
2.000000e+02
0.000000e+00
1.250000e+01
2.500000e+01
3.750000e+01
5.000000e+01
6.250000e+01
7.500000e+01
8.750000e+01
1.000000e+02
1.125000e+02
1.250000e+02
1.375000e+02
1.500000e+02
1.625000e+02
1.750000e+02
1.875000e+02
2.000000e+02
0.000000e+00
1.250000e+01
2.500000e+01
3.750000e+01
5.000000e+01
6.250000e+01
7.500000e+01
8.750000e+01
1.000000e+02
1.125000e+02
1.250000e+02
1.375000e+02
1.500000e+02
1.625000e+02
1.750000e+02
1.875000e+02
2.000000e+02
0.000000e+00
1.250000e+01
2.500000e+01
3.750000e+01
5.000000e+01
6.250000e+01
7.500000e+01
8.750000e+01
1.000000e+02
1.125000e+02
1.250000e+02
1.375000e+02
1.500000e+02
1.625000e+02
1.750000e+02
1.875000e+02
2.000000e+02
0.000000e+00
0.000000e+00
0.000000e+00
0.000000e+00
0.000000e+00
0.000000e+00
0.000000e+00
0.000000e+00
0.000000e+00
0.000000e+00
0.000000e+00
0.000000e+00
0.000000e+00
0.000000e+00
0.000000e+00
0.000000e+00
0.000000e+00
1.250000e+01
1.250000e+01
1.250000e+01
1.250000e+01
1.250000e+01
1.250000e+01
1.250000e+01
1.250000e+01
1.250000e+01
1.250000e+01
1.250000e+01
1.250000e+01
1.250000e+01
1.250000e+01
1.250000e+01
1.250000e+01
1.250000e+01
2.500000e+01
2.500000e+01
2.500000e+01
2.500000e+01
2.500000e+01
2.500000e+01
2.500000e+01
2.500000e+01
2.500000e+01
2.500000e+01
2.500000e+01
2.500000e+01
2.500000e+01
2.500000e+01
2.500000e+01
2.500000e+01
2.500000e+01
3.750000e+01
3.750000e+01
3.750000e+01
3.750000e+01
3.750000e+01
3.750000e+01
3.750000e+01
3.750000e+01
3.750000e+01
3.750000e+01
3.750000e+01
3.750000e+01
3.750000e+01
3.750000e+01
3.750000e+01
3.750000e+01
3.750000e+01
5.000000e+01
5.000000e+01
5.000000e+01
5.000000e+01
5.000000e+01
5.000000e+01
5.000000e+01
5.000000e+01
5.000000e+01
5.000000e+01
5.000000e+01
5.000000e+01
5.000000e+01
5.000000e+01
5.000000e+01
5.000000e+01
5.000000e+01
6.250000e+01
6.250000e+01
6.250000e+01
6.250000e+01
6.250000e+01
6.250000e+01
6.250000e+01
6.250000e+01
6.250000e+01
6.250000e+01
6.250000e+01
6.250000e+01
6.250000e+01
6.250000e+01
6.250000e+01
6.250000e+01
6.250000e+01
7.500000e+01
7.500000e+01
7.500000e+01
7.500000e+01
7.500000e+01
7.500000e+01
7.500000e+01
7.500000e+01
7.500000e+01
7.500000e+01
7.500000e+01
7.500000e+01
7.500000e+01
7.500000e+01
7.500000e+01
7.500000e+01
7.500000e+01
8.750000e+01
8.750000e+01
8.750000e+01
8.750000e+01
8.750000e+01
8.750000e+01
8.750000e+01
8.750000e+01
8.750000e+01
8.750000e+01
8.750000e+01
8.750000e+01
8.750000e+01
8.750000e+01
8.750000e+01
8.750000e+01
8.750000e+01
1.000000e+02
1.000000e+02
1.000000e+02
1.000000e+02
1.000000e+02
1.000000e+02
1.000000e+02
1.000000e+02
1.000000e+02
1.000000e+02
1.000000e+02
1.000000e+02
1.000000e+02
1.000000e+02
1.000000e+02
1.000000e+02
1.000000e+02
0.000000e+00
-7.605393e-02
-1.336254e-01
-1.805603e-01
-2.242448e-01
-2.679411e-01
-5.422806e-01
-8.935695e-01
-1.164852e+00
-1.466514e+00
-1.553883e+00
-1.609153e+00
-1.670019e+00
-1.732548e+00
-1.812800e+00
-1.970315e+00
-2.287762e+00
0.000000e+00
-4.246486e-02
-9.085216e-02
-1.324110e-01
-1.695331e-01
-2.177425e-01
-3.197699e-01
-5.756637e-01
-8.787461e-01
-1.115308e+00
-1.186575e+00
-1.227083e+00
-1.265953e+00
-1.296967e+00
-1.314334e+00
-1.311988e+00
-1.361686e+00
0.000000e+00
-3.462316e-02
-6.679063e-02
-9.751856e-02
-1.308055e-01
-1.740473e-01
-2.373888e-01
-3.397157e-01
-5.049716e-01
-7.222983e-01
-8.044358e-01
-8.428233e-01
-8.683372e-01
-8.804091e-01
-8.780738e-01
-8.749970e-01
-9.167483e-01
0.000000e+00
-1.556989e-02
-3.094715e-02
-4.810332e-02
-6.818358e-02
-9.144388e-02
-1.226120e-01
-1.660645e-01
-2.419499e-01
-3.575138e-01
-4.275995e-01
-4.655322e-01
-4.889527e-01
-5.015097e-01
-5.074393e-01
-5.180818e-01
-5.392544e-01
0.000000e+00
8.125528e-03
1.411175e-02
1.756181e-02
1.762004e-02
1.400962e-02
6.835302e-03
-5.465252e-03
-2.899874e-02
-6.743783e-02
-1.042530e-01
-1.298921e-01
-1.512278e-01
-1.671957e-01
-1.768790e-01
-1.857898e-01
-1.966553e-01
0.000000e+00
3.289648e-02
6.311208e-02
9.209387e-02
1.163534e-01
1.346731e-01
1.451804e-01
1.479149e-01
1.432054e-01
1.350682e-01
1.305162e-01
1.218111e-01
1.197061e-01
1.316890e-01
1.394894e-01
1.399626e-01
1.367327e-01
0.000000e+00
6.417979e-02
1.228611e-01
1.777884e-01
2.252247e-01
2.751442e-01
3.088003e-01
3.298585e-01
3.456995e-01
3.556456e-01
3.636710e-01
3.860229e-01
4.188735e-01
4.481333e-01
4.677486e-01
4.742955e-01
4.749414e-01
0.000000e+00
8.931374e-02
1.731442e-01
2.570717e-01
3.428297e-01
4.261222e-01
4.884409e-01
5.438926e-01
5.932498e-01
6.307523e-01
6.653662e-01
7.080835e-01
7.514610e-01
7.895938e-01
8.125803e-01
8.202899e-01
8.212290e-01
0.000000e+00
1.313274e-01
2.264014e-01
3.318067e-01
4.591289e-01
5.730074e-01
6.666871e-01
7.702780e-01
8.624546e-01
9.359216e-01
1.008943e+00
1.076860e+00
1.127311e+00
1.163554e+00
1.174761e+00
1.175100e+00
1.174366e+00
0.000000e+00
-5.751368e-02
-1.140833e-01
-1.795503e-01
-2.582273e-01
-3.475468e-01
-5.635127e-01
-8.338353e-01
-1.117228e+00
-1.378043e+00
-1.719763e+00
-2.093516e+00
-2.484104e+00
-2.886808e+00
-3.324073e+00
-3.890111e+00
-5.363098e+00
0.000000e+00
-4.028486e-02
-9.980769e-02
-1.673241e-01
-2.464998e-01
-3.439397e-01
-4.973905e-01
-7.432865e-01
-1.030270e+00
-1.341003e+00
-1.701843e+00
-2.079643e+00
-2.472177e+00
-2.877617e+00
-3.307878e+00
-3.833399e+00
-4.847513e+00
0.000000e+00
-3.305729e-02
-8.686447e-02
-1.559831e-01
-2.387827e-01
-3.455159e-01
-4.934418e-01
-6.976725e-01
-9.673998e-01
-1.306820e+00
-1.682414e+00
-2.068520e+00
-2.467754e+00
-2.880168e+00
-3.304396e+00
-3.756843e+00
-4.237798e+00
0.000000e+00
-2.452081e-02
-7.576019e-02
-1.459313e-01
-2.332415e-01
-3.453070e-01
-4.930904e-01
-6.832179e-01
-9.357622e-01
-1.274758e+00
-1.658526e+00
-2.054373e+00
-2.465853e+00
-2.884824e+00
-3.292301e+00
-3.688140e+00
-4.068332e+00
0.000000e+00
-2.026665e-02
-6.888986e-02
-1.397422e-01
-2.306036e-01
-3.477054e-01
-4.989362e-01
-6.876162e-01
-9.319214e-01
-1.258909e+00
-1.633250e+00
-2.031180e+00
-2.461981e+00
-2.881777e+00
-3.274695e+00
-3.648517e+00
-4.001282e+00
0.000000e+00
-2.200707e-02
-6.886403e-02
-1.389983e-01
-2.318784e-01
-3.533730e-01
-5.106171e-01
-7.046427e-01
-9.514751e-01
-1.262243e+00
-1.611888e+00
-2.013916e+00
-2.447426e+00
-2.866444e+00
-3.259885e+00
-3.628974e+00
-3.975947e+00
0.000000e+00
-2.543489e-02
-7.530278e-02
-1.442967e-01
-2.378090e-01
-3.628896e-01
-5.227478e-01
-7.207581e-01
-9.702004e-01
-1.271816e+00
-1.612427e+00
-2.014178e+00
-2.436252e+00
-2.854371e+00
-3.251682e+00
-3.620464e+00
-3.969616e+00
0.000000e+00
-3.590946e-02
-9.380585e-02
-1.606065e-01
-2.545022e-01
-3.800047e-01
-5.372832e-01
-7.357078e-01
-9.858198e-01
-1.282659e+00
-1.625483e+00
-2.020927e+00
-2.436774e+00
-2.852906e+00
-3.248896e+00
-3.616987e+00
-3.969316e+00
0.000000e+00
-6.687702e-02
-1.194456e-01
-1.900157e-01
-2.845787e-01
-4.058578e-01
-5.610725e-01
-7.594147e-01
-1.006018e+00
-1.300042e+00
-1.644160e+00
-2.034842e+00
-2.445825e+00
-2.858498e+00
-3.248179e+00
-3.615635e+00
-3.970140e+00


0.000000e+00
-3.069667e-06
-1.759715e-05
-4.802940e-05
-8.416807e-05
-9.364866e-05
5.568853e-04
8.218417e-04
6.340465e-04
4.128277e-04
3.628396e-04
3.428162e-04
3.458704e-04
3.637857e-04
3.781018e-04
3.862911e-04
3.898239e-04
0.000000e+00
-3.715200e-06
-1.284024e-05
-2.613438e-05
-3.260691e-05
1.762895e-05
2.783577e-04
6.772427e-04
5.328407e-04
3.708625e-04
3.330718e-04
3.198406e-04
3.149392e-04
3.187588e-04
3.213264e-04
3.203096e-04
3.185118e-04
0.000000e+00
4.236378e-08
3.686996e-07
4.304323e-06
1.752316e-05
5.013760e-05
1.057649e-04
1.799764e-04
2.369167e-04
2.899670e-04
3.024482e-04
2.958798e-04
2.826469e-04
2.684427e-04
2.578357e-04
2.502438e-04
2.459002e-04
0.000000e+00
3.649471e-06
1.054071e-05
2.020793e-05
3.188405e-05
4.202941e-05
5.832214e-05
7.996409e-05
1.224136e-04
1.898126e-04
2.347230e-04
2.414283e-04
2.158182e-04
1.853895e-04
1.724111e-04
1.652048e-04
1.633831e-04
0.000000e+00
4.295396e-06
1.107803e-05
1.978692e-05
2.486289e-05
2.674159e-05
2.847266e-05
3.612441e-05
5.425456e-05
8.294612e-05
1.081692e-04
1.038484e-04
7.057664e-05
6.774190e-05
7.424082e-05
7.832636e-05
8.070648e-05
0.000000e+00
3.507445e-06
6.930276e-06
8.858751e-06
8.413878e-06
5.372265e-06
3.095382e-06
3.591602e-06
6.869468e-06
8.052797e-06
-6.667444e-07
-2.765174e-05
-3.869077e-05
-1.931876e-05
-2.309990e-06
4.488282e-06
7.682852e-06
0.000000e+00
-3.287005e-06
-6.439490e-06
-1.000844e-05
-1.467422e-05
-2.101664e-05
-2.594865e-05
-2.905737e-05
-3.183235e-05
-3.593063e-05
-4.054264e-05
-4.673131e-05
-5.247568e-05
-5.689205e-05
-5.773437e-05
-5.580707e-05
-5.416057e-05
0.000000e+00
-9.943648e-06
-1.722759e-05
-2.456163e-05
-3.493352e-05
-4.732718e-05
-5.727899e-05
-6.584176e-05
-7.271593e-05
-7.704314e-05
-7.988269e-05
-8.196001e-05
-8.543729e-05
-9.399487e-05
-1.033071e-04
-1.081207e-04
-1.083358e-04
0.000000e+00
-7.615654e-06
-1.738999e-05
-3.102855e-05
-5.080663e-05
-7.135508e-05
-8.882364e-05
-1.063439e-04
-1.183266e-04
-1.231725e-04
-1.225344e-04
-1.185391e-04
-1.187624e-04
-1.306749e-04
-1.460587e-04
-1.574876e-04
-1.595166e-04
0.000000e+00
3.135295e-06
1.694713e-07
-1.198442e-05
-2.126552e-05
-1.542748e-05
4.091460e-04
3.603762e-04
2.085335e-04
2.136429e-04
2.431734e-04
2.526297e-04
2.557838e-04
2.859868e-04
3.422527e-04
4.124034e-04
4.883948e-04
0.000000e+00
5.998943e-06
6.203343e-06
-3.381292e-06
-2.075087e-05
-3.450604e-05
8.488867e-05
2.548508e-04
2.426560e-04
2.353803e-04
2.540516e-04
2.570525e-04
2.494105e-04
2.798258e-04
3.404965e-04
4.141569e-04
4.911210e-04
0.000000e+00
6.143115e-06
5.528889e-06
-4.440110e-06
-2.278326e-05
-2.828547e-05
1.719759e-05
1.010039e-04
1.886095e-04
2.331109e-04
2.672641e-04
2.631907e-04
2.443444e-04
2.719928e-04
3.440011e-04
4.206661e-04
4.992955e-04
0.000000e+00
1.392910e-06
-7.128587e-07
-1.059148e-05
-2.231001e-05
-1.898791e-05
1.420659e-05
7.327411e-05
1.435794e-04
2.082332e-04
2.762406e-04
2.813526e-04
2.415668e-04
2.690500e-04
3.495986e-04
4.253783e-04
5.012817e-04
0.000000e+00
-2.632960e-06
-7.003223e-06
-1.508003e-05
-2.028320e-05
-1.131114e-05
1.855093e-05
6.506042e-05
1.219493e-04
1.874820e-04
2.745031e-04
3.115837e-04
2.488610e-04
2.746887e-04
3.539198e-04
4.243231e-04
4.958467e-04
0.000000e+00
-6.065678e-06
-1.137788e-05
-1.670529e-05
-1.647289e-05
-3.801097e-06
2.535302e-05
6.600125e-05
1.169470e-04
1.764683e-04
2.556699e-04
3.053538e-04
2.723327e-04
2.903904e-04
3.541286e-04
4.207369e-04
4.866428e-04
0.000000e+00
-8.982113e-06
-1.358292e-05
-1.609648e-05
-1.159952e-05
3.049657e-06
3.128132e-05
7.010907e-05
1.193851e-04
1.757097e-04
2.319974e-04
2.750956e-04
2.826001e-04
3.042520e-04
3.552133e-04
4.182034e-04
4.791560e-04
0.000000e+00
-7.516183e-06
-1.231371e-05
-1.395696e-05
-8.123796e-06
7.772014e-06
3.517343e-05
7.366263e-05
1.225150e-04
1.756803e-04
2.265170e-04
2.658748e-04
2.891433e-04
3.140345e-04
3.587998e-04
4.172519e-04
4.740526e-04
0.000000e+00
-3.960982e-06
-9.420518e-06
-1.001964e-05
-3.228024e-06
1.281004e-05
3.967546e-05
7.773578e-05
1.250657e-04
1.762208e-04
2.251491e-04
2.640498e-04
2.919491e-04
3.203832e-04
3.630006e-04
4.180844e-04
4.717958e-04


2.720595e+00
3.227598e+00
2.670847e+00
2.796282e+00
5.073022e+00
8.424607e+00
8.441904e+00
6.821542e+00
6.397226e+00
6.425569e+00
6.639744e+00
7.108423e+00
7.073428e+00
5.625111e+00
4.177071e+00
3.603137e+00
4.306987e+00
4.392061e+00
3.744118e+00
3.267947e+00
5.849959e+00
8.289130e+00
9.037675e+00
8.097176e+00
7.641207e+00
7.004903e+00
5.358407e+00
4.974233e+00
4.844865e+00
4.617753e+00
4.743928e+00
5.287255e+00
3.811011e+00
4.705611e+00
4.381602e+00
3.886137e+00
4.294229e+00
6.232426e+00
6.992871e+00
7.709814e+00
7.663436e+00
6.487481e+00
4.884919e+00
4.272789e+00
4.671390e+00
4.674742e+00
5.437742e+00
6.472432e+00
2.003039e+00
3.553698e+00
4.631586e+00
3.084704e+00
2.006408e+00
2.277179e+00
3.897394e+00
5.161485e+00
6.231343e+00
5.644622e+00
5.405550e+00
6.198715e+00
6.052278e+00
5.071631e+00
4.915726e+00
5.962375e+00
3.167212e+00
4.206278e+00
4.269451e+00
2.638462e+00
9.654800e-01
1.056778e+00
1.982305e+00
4.544570e+00
5.295344e+00
5.446794e+00
5.934714e+00
7.044149e+00
6.852007e+00
4.380532e+00
3.195237e+00
4.253177e+00
6.856038e+00
6.302026e+00
4.552103e+00
2.399796e+00
1.250120e+00
1.068433e+00
2.433490e+00
4.169486e+00
5.172262e+00
4.972488e+00
5.899930e+00
7.032912e+00
6.121607e+00
3.811744e+00
2.602827e+00
2.466676e+00
7.227588e+00
6.600311e+00
5.117068e+00
2.854321e+00
1.567032e+00
1.221081e+00
2.619001e+00
4.610940e+00
4.612820e+00
4.465222e+00
5.919590e+00
6.505201e+00
5.988027e+00
4.915543e+00
3.826176e+00
3.448324e+00
4.494979e+00
5.200326e+00
5.424063e+00
3.838704e+00
1.815696e+00
1.315334e+00
3.329315e+00
4.951062e+00
4.660935e+00
4.823536e+00
5.792259e+00
6.406694e+00
6.023076e+00
5.737516e+00
6.412698e+00
6.164080e+00


9.867225e-01
9.896210e-01
9.924958e-01
9.931517e-01
9.903583e-01
8.776632e-01
6.840056e-01
7.110221e-01
7.525358e-01
9.774868e-01
9.918872e-01
9.914744e-01
9.922027e-01
9.901210e-01
9.752377e-01
3.250940e-01
9.934240e-01
9.918941e-01
9.930378e-01
9.927157e-01
9.873530e-01
9.654346e-01
8.866580e-01
8.127331e-01
8.208062e-01
9.784268e-01
9.943281e-01
9.964322e-01
9.984585e-01
9.998120e-01
9.903625e-01
4.635887e-01
9.973216e-01
9.969367e-01
9.967112e-01
9.962237e-01
9.942489e-01
9.888452e-01
9.780688e-01
9.483642e-01
9.059997e-01
9.790058e-01
9.939938e-01
9.967580e-01
9.974159e-01
9.973361e-01
9.889626e-01
9.450946e-01
9.997706e-01
9.994618e-01
9.993680e-01
9.993469e-01
9.988451e-01
9.970961e-01
9.942178e-01
9.859021e-01
9.700534e-01
9.815135e-01
9.880220e-01
9.868366e-01
9.885603e-01
9.923803e-01
9.926797e-01
9.887826e-01
9.984888e-01
9.987334e-01
9.990047e-01
9.994674e-01
9.996495e-01
9.988014e-01
9.960074e-01
9.875100e-01
9.708893e-01
9.666155e-01
9.599420e-01
9.536579e-01
9.712854e-01
9.879304e-01
9.950664e-01
9.975972e-01
9.920963e-01
9.934407e-01
9.941330e-01
9.956908e-01
9.960509e-01
9.980349e-01
9.981094e-01
9.940979e-01
9.854828e-01
9.782821e-01
9.635496e-01
9.660683e-01
9.790552e-01
9.907234e-01
9.975226e-01
9.996008e-01
9.800086e-01
9.824976e-01
9.835143e-01
9.848256e-01
9.846990e-01
9.917940e-01
9.946709e-01
9.953641e-01
9.954713e-01
9.937366e-01
9.846755e-01
9.822063e-01
9.862958e-01
9.940290e-01
9.989685e-01
9.999527e-01
9.581092e-01
9.718210e-01
9.688637e-01
9.607920e-01
9.662649e-01
9.785628e-01
9.779549e-01
9.824695e-01
9.889702e-01
9.891768e-01
9.872587e-01
9.898826e-01
9.929383e-01
9.980796e-01
9.998076e-01
9.999992e-01
1 2 19 18
2 3 20 19
3 4 21 20
4 5 22 21
5 6 23 22
6 7 24 23
7 8 25 24
8 9 26 25
9 10 27 26
10 11 28 27
11 12 29 28
12 13 30 29
13 14 31 30
14 15 32 31
15 16 33 32
16 17 34 33
18 19 36 35
19 20 37 36
20 21 38 37
21 22 39 38
22 23 40 39
23 24 41 40
24 25 42 41
25 26 43 42
26 27 44 43
27 28 45 44
28 29 46 45
29 30 47 46
30 31 48 47
31 32 49 48
32 33 50 49
33 34 51 50
35 36 53 52
36 37 54 53
37 38 55 54
38 39 56 55
39 40 57 56
40 41 58 57
41 42 59 58
42 43 60 59
43 44 61 60
44 45 62 61
45 46 63 62
46 47 64 63
47 48 65 64
48 49 66 65
49 50 67 66
50 51 68 67
52 53 70 69
53 54 71 70
54 55 72 71
55 56 73 72
56 57 74 73
57 58 75 74
58 59 76 75
59 60 77 76
60 61 78 77
61 62 79 78
62 63 80 79
63 64 81 80
64 65 82 81
65 66 83 82
66 67 84 83
67 68 85 84
69 70 87 86
70 71 88 87
71 72 89 88
72 73 90 89
73 74 91 90
74 75 92 91
75 76 93 92
76 77 94 93
77 78 95 94
78 79 96 95
79 80 97 96
80 81 98 97
81 82 99 98
82 83 100 99
83 84 101 100
84 85 102 101
86 87 104 103
87 88 105 104
88 89 106 105
89 90 107 106
90 91 108 107
91 92 109 108
92 93 110 109
93 94 111 110
94 95 112 111
95 96 113 112
96 97 114 113
97 98 115 114
98 99 116 115
99 100 117 116
100 101 118 117
101 102 119 118
103 104 121 120
104 105 122 121
105 106 123 122
106 107 124 123
107 108 125 124
108 109 126 125
109 110 127 126
110 111 128 127
111 112 129 128
112 113 130 129
113 114 131 130
114 115 132 131
115 116 133 132
116 117 134 133
117 118 135 134
118 119 136 135
120 121 138 137
121 122 139 138
122 123 140 139
123 124 141 140
124 125 142 141
125 126 143 142
126 127 144 143
127 128 145 144
128 129 146 145
129 130 147 146
130 131 148 147
131 132 149 148
132 133 150 149
133 134 151 150
134 135 152 151
135 136 153 152
