TITLE = "Solution"
VARIABLES = x, y, u, v, psiu, psiv, t, stress
ZONE T="structure" N=153 E=128 F=FEBLOCK ET=QUADRILATERAL VARLOCATION=([7,8]=cellcentered)
0.000000e+00
1.250000e+01
2.500000e+01
3.750000e+01
5.000000e+01
6.250000e+01
7.500000e+01
8.750000e+01
1.000000e+02
1.125000e+02
1.250000e+02
1.375000e+02
1.500000e+02
1.625000e+02
1.750000e+02
1.875000e+02
2.000000e+02
0.000000e+00
1.250000e+01
2.500000e+01
3.750000e+01
5.000000e+01
6.250000e+01
7.500000e+01
8.750000e+01
1.000000e+02
1.125000e+02
1.250000e+02
1.375000e+02
1.500000e+02
1.625000e+02
1.750000e+02
1.875000e+02
2.000000e+02
0.000000e+00
1.250000e+01
2.500000e+01
3.750000e+01
5.000000e+01
6.250000e+01
7.500000e+01
8.750000e+01
1.000000e+02
1.125000e+02
1.250000e+02
1.375000e+02
1.500000e+02
1.625000e+02
1.750000e+02
1.875000e+02
2.000000e+02
0.000000e+00
1.250000e+01
2.500000e+01
3.750000e+01
5.000000e+01
6.250000e+01
7.500000e+01
8.750000e+01
1.000000e+02
1.125000e+02
1.250000e+02
1.375000e+02
1.500000e+02
1.625000e+02
1.750000e+02
1.875000e+02
2.000000e+02
0.000000e+00
1.250000e+01
2.500000e+01
3.750000e+01
5.000000e+01
6.250000e+01
7.500000e+01
8.750000e+01
1.000000e+02
1.125000e+02
1.250000e+02
1.375000e+02
1.500000e+02
1.625000e+02
1.750000e+02
1.875000e+02
2.000000e+02
0.000000e+00
1.250000e+01
2.500000e+01
3.750000e+01
5.000000e+01
6.250000e+01
7.500000e+01
8.750000e+01
1.000000e+02
1.125000e+02
1.250000e+02
1.375000e+02
1.500000e+02
1.625000e+02
1.750000e+02
1.875000e+02
2.000000e+02
0.000000e+00
1.250000e+01
2.500000e+01
3.750000e+01
5.000000e+01
6.250000e+01
7.500000e+01
8.750000e+01
1.000000e+02
1.125000e+02
1.250000e+02
1.375000e+02
1.500000e+02
1.625000e+02
1.750000e+02
1.875000e+02
2.000000e+02
0.000000e+00
1.250000e+01
2.500000e+01
3.750000e+01
5.000000e+01
6.250000e+01
7.500000e+01
8.750000e+01
1.000000e+02
1.125000e+02
1.250000e+02
1.375000e+02
1.500000e+02
1.625000e+02
1.750000e+02
1.875000e+02
2.000000e+02
0.000000e+00
1.250000e+01
2.500000e+01
3.750000e+01
5.000000e+01
6.250000e+01
7.500000e+01
8.750000e+01
1.000000e+02
1.125000e+02
1.250000e+02
1.375000e+02
1.500000e+02
1.625000e+02
1.750000e+02
1.875000e+02
2.000000e+02
0.000000e+00
0.000000e+00
0.000000e+00
0.000000e+00
0.000000e+00
0.000000e+00
0.000000e+00
0.000000e+00
0.000000e+00
0.000000e+00
0.000000e+00
0.000000e+00
0.000000e+00
0.000000e+00
0.000000e+00
0.000000e+00
0.000000e+00
1.250000e+01
1.250000e+01
1.250000e+01
1.250000e+01
1.250000e+01
1.250000e+01
1.250000e+01
1.250000e+01
1.250000e+01
1.250000e+01
1.250000e+01
1.250000e+01
1.250000e+01
1.250000e+01
1.250000e+01
1.250000e+01
1.250000e+01
2.500000e+01
2.500000e+01
2.500000e+01
2.500000e+01
2.500000e+01
2.500000e+01
2.500000e+01
2.500000e+01
2.500000e+01
2.500000e+01
2.500000e+01
2.500000e+01
2.500000e+01
2.500000e+01
2.500000e+01
2.500000e+01
2.500000e+01
3.750000e+01
3.750000e+01
3.750000e+01
3.750000e+01
3.750000e+01
3.750000e+01
3.750000e+01
3.750000e+01
3.750000e+01
3.750000e+01
3.750000e+01
3.750000e+01
3.750000e+01
3.750000e+01
3.750000e+01
3.750000e+01
3.750000e+01
5.000000e+01
5.000000e+01
5.000000e+01
5.000000e+01
5.000000e+01
5.000000e+01
5.000000e+01
5.000000e+01
5.000000e+01
5.000000e+01
5.000000e+01
5.000000e+01
5.000000e+01
5.000000e+01
5.000000e+01
5.000000e+01
5.000000e+01
6.250000e+01
6.250000e+01
6.250000e+01
6.250000e+01
6.250000e+01
6.250000e+01
6.250000e+01
6.250000e+01
6.250000e+01
6.250000e+01
6.250000e+01
6.250000e+01
6.250000e+01
6.250000e+01
6.250000e+01
6.250000e+01
6.250000e+01
7.500000e+01
7.500000e+01
7.500000e+01
7.500000e+01
7.500000e+01
7.500000e+01
7.500000e+01
7.500000e+01
7.500000e+01
7.500000e+01
7.500000e+01
7.500000e+01
7.500000e+01
7.500000e+01
7.500000e+01
7.500000e+01
7.500000e+01
8.750000e+01
8.750000e+01
8.750000e+01
8.750000e+01
8.750000e+01
8.750000e+01
8.750000e+01
8.750000e+01
8.750000e+01
8.750000e+01
8.750000e+01
8.750000e+01
8.750000e+01
8.750000e+01
8.750000e+01
8.750000e+01
8.750000e+01
1.000000e+02
1.000000e+02
1.000000e+02
1.000000e+02
1.000000e+02
1.000000e+02
1.000000e+02
1.000000e+02
1.000000e+02
1.000000e+02
1.000000e+02
1.000000e+02
1.000000e+02
1.000000e+02
1.000000e+02
1.000000e+02
1.000000e+02
0.000000e+00
-1.093701e-01
-2.013849e-01
-2.860506e-01
-3.648983e-01
-4.377618e-01
-5.044844e-01
-5.650145e-01
-6.194400e-01
-6.680115e-01
-7.112106e-01
-7.498815e-01
-7.854767e-01
-8.205054e-01
-8.592951e-01
-9.069336e-01
-9.426811e-01
0.000000e+00
-6.531374e-02
-1.356766e-01
-2.006523e-01
-2.605152e-01
-3.154928e-01
-3.656990e-01
-4.112010e-01
-4.520809e-01
-4.884645e-01
-5.205365e-01
-5.485279e-01
-5.726175e-01
-5.925572e-01
-6.066218e-01
-6.097045e-01
-6.207567e-01
0.000000e+00
-4.084527e-02
-8.398812e-02
-1.270296e-01
-1.672077e-01
-2.040970e-01
-2.376674e-01
-2.679569e-01
-2.949731e-01
-3.186707e-01
-3.389223e-01
-3.554449e-01
-3.676495e-01
-3.744623e-01
-3.746515e-01
-3.719299e-01
-3.832023e-01
0.000000e+00
-1.971442e-02
-4.058481e-02
-6.158708e-02
-8.166913e-02
-1.001660e-01
-1.169317e-01
-1.319173e-01
-1.450370e-01
-1.561202e-01
-1.648834e-01
-1.709132e-01
-1.737159e-01
-1.730611e-01
-1.703710e-01
-1.711066e-01
-1.795001e-01
0.000000e+00
-1.816203e-05
-4.128785e-05
-6.433779e-05
-7.657137e-05
-5.403766e-05
5.080288e-05
3.232543e-04
9.032693e-04
1.999316e-03
3.883369e-03
6.828651e-03
1.090899e-02
1.551998e-02
1.870512e-02
1.783155e-02
1.227431e-02
0.000000e+00
1.968648e-02
4.051994e-02
6.148331e-02
8.154005e-02
1.000610e-01
1.169724e-01
1.323569e-01
1.463478e-01
1.591075e-01
1.708026e-01
1.815197e-01
1.910728e-01
1.987332e-01
2.032394e-01
2.035968e-01
2.007762e-01
0.000000e+00
4.084068e-02
8.397414e-02
1.270018e-01
1.671643e-01
2.040429e-01
2.376226e-01
2.679715e-01
2.951527e-01
3.192142e-01
3.401771e-01
3.579902e-01
3.724485e-01
3.831381e-01
3.895542e-01
3.916375e-01
3.909797e-01
0.000000e+00
6.534053e-02
1.357348e-01
2.007452e-01
2.606398e-01
3.156261e-01
3.657738e-01
4.110642e-01
4.514284e-01
4.867496e-01
5.168604e-01
5.415524e-01
5.606282e-01
5.740247e-01
5.820160e-01
5.854238e-01
5.860497e-01
0.000000e+00
1.094149e-01
2.015031e-01
2.862720e-01
3.652520e-01
4.382592e-01
5.050778e-01
5.655135e-01
6.193640e-01
6.663495e-01
7.060625e-01
7.379736e-01
7.615585e-01
7.766318e-01
7.839214e-01
7.857207e-01
7.856860e-01
0.000000e+00
-6.620475e-02
-1.299678e-01
-2.125899e-01
-3.139915e-01
-4.339830e-01
-5.712501e-01
-7.242569e-01
-8.913762e-01
-1.071003e+00
-1.261654e+00
-1.462148e+00
-1.672004e+00
-1.892340e+00
-2.128873e+00
-2.399511e+00
-2.788370e+00
0.000000e+00
-4.075688e-02
-1.072722e-01
-1.909188e-01
-2.939776e-01
-4.156064e-01
-5.545365e-01
-7.091940e-01
-8.779331e-01
-1.059119e+00
-1.251229e+00
-1.453027e+00
-1.663956e+00
-1.885106e+00
-2.121548e+00
-2.390543e+00
-2.720091e+00
0.000000e+00
-3.075474e-02
-9.153849e-02
-1.754938e-01
-2.795269e-01
-4.024076e-01
-5.426147e-01
-6.985590e-01
-8.686060e-01
-1.051145e+00
-1.244680e+00
-1.448021e+00
-1.660661e+00
-1.883512e+00
-2.120156e+00
-2.375039e+00
-2.621711e+00
0.000000e+00
-2.650233e-02
-8.371580e-02
-1.664397e-01
-2.708489e-01
-3.944860e-01
-5.355671e-01
-6.924429e-01
-8.635095e-01
-1.047200e+00
-1.242051e+00
-1.446848e+00
-1.660845e+00
-1.883942e+00
-2.115853e+00
-2.350054e+00
-2.565807e+00
0.000000e+00
-2.527731e-02
-8.134829e-02
-1.635514e-01
-2.679890e-01
-3.919338e-01
-5.334205e-01
-6.908014e-01
-8.625029e-01
-1.046983e+00
-1.242748e+00
-1.448389e+00
-1.662577e+00
-1.883733e+00
-2.108546e+00
-2.329328e+00
-2.532722e+00
0.000000e+00
-2.648659e-02
-8.370460e-02
-1.664597e-01
-2.709468e-01
-3.947438e-01
-5.361186e-01
-6.934874e-01
-8.653103e-01
-1.050038e+00
-1.246078e+00
-1.451729e+00
-1.665000e+00
-1.883178e+00
-2.102071e+00
-2.315282e+00
-2.514335e+00
0.000000e+00
-3.072908e-02
-9.151994e-02
-1.755270e-01
-2.796918e-01
-4.028438e-01
-5.435497e-01
-7.003325e-01
-8.716678e-01
-1.055980e+00
-1.251569e+00
-1.456471e+00
-1.668217e+00
-1.883536e+00
-2.098185e+00
-2.307305e+00
-2.506225e+00
0.000000e+00
-4.073282e-02
-1.072560e-01
-1.909630e-01
-2.941756e-01
-4.161193e-01
-5.556249e-01
-7.112439e-01
-8.814503e-01
-1.064639e+00
-1.259042e+00
-1.462554e+00
-1.672496e+00
-1.885418e+00
-2.097212e+00
-2.304006e+00
-2.504322e+00
0.000000e+00
-6.619481e-02
-1.299692e-01
-2.126583e-01
-3.142210e-01
-4.345311e-01
-5.723638e-01
-7.262889e-01
-8.947639e-01
-1.076156e+00
-1.268654e+00
-1.470106e+00
-1.677816e+00
-1.888408e+00
-2.098039e+00
-2.303402e+00
-2.504351e+00


0.000000e+00
9.063884e-09
1.834214e-08
2.682730e-08
3.453340e-08
4.142279e-08
4.750860e-08
5.284374e-08
5.749415e-08
6.153095e-08
6.502734e-08
6.805401e-08
7.066718e-08
7.288635e-08
7.472119e-08
7.634753e-08
7.785362e-08
0.000000e+00
5.431058e-09
1.306614e-08
1.970911e-08
2.555431e-08
3.071742e-08
3.524611e-08
3.919219e-08
4.260598e-08
4.553202e-08
4.800632e-08
5.005282e-08
5.168503e-08
5.295481e-08
5.411989e-08
5.559485e-08
5.718780e-08
0.000000e+00
3.641448e-09
8.539514e-09
1.295811e-08
1.689200e-08
2.033981e-08
2.333450e-08
2.591601e-08
2.811751e-08
2.996278e-08
3.146719e-08
3.264424e-08
3.352898e-08
3.423253e-08
3.499629e-08
3.609936e-08
3.742316e-08
0.000000e+00
1.845200e-09
4.153751e-09
6.332678e-09
8.310511e-09
1.003699e-08
1.151934e-08
1.277624e-08
1.382152e-08
1.466329e-08
1.530835e-08
1.577259e-08
1.609984e-08
1.638295e-08
1.676375e-08
1.740968e-08
1.831373e-08
0.000000e+00
3.002219e-13
-5.475311e-13
-4.099658e-12
-1.252154e-11
-2.921643e-11
-5.910995e-11
-1.086859e-10
-1.853108e-10
-2.951853e-10
-4.389240e-10
-6.043211e-10
-7.585148e-10
-8.457978e-10
-7.881522e-10
-4.833001e-10
9.471562e-11
0.000000e+00
-1.844508e-09
-4.154207e-09
-6.338688e-09
-8.329946e-09
-1.008330e-08
-1.161426e-08
-1.295256e-08
-1.412509e-08
-1.515194e-08
-1.604384e-08
-1.679916e-08
-1.740252e-08
-1.782730e-08
-1.804016e-08
-1.799071e-08
-1.768142e-08
0.000000e+00
-3.640850e-09
-8.539562e-09
-1.296067e-08
-1.690028e-08
-2.035946e-08
-2.337498e-08
-2.599221e-08
-2.825134e-08
-3.018401e-08
-3.181188e-08
-3.314541e-08
-3.418405e-08
-3.492098e-08
-3.535660e-08
-3.550182e-08
-3.541084e-08
0.000000e+00
-5.432644e-09
-1.307007e-08
-1.971378e-08
-2.555704e-08
-3.071342e-08
-3.522727e-08
-3.914578e-08
-4.251357e-08
-4.536932e-08
-4.774501e-08
-4.966545e-08
-5.114834e-08
-5.220770e-08
-5.286913e-08
-5.319309e-08
-5.326978e-08
0.000000e+00
-9.072490e-09
-1.835722e-08
-2.684572e-08
-3.454903e-08
-4.142311e-08
-4.747020e-08
-5.272667e-08
-5.723542e-08
-6.103815e-08
-6.417454e-08
-6.668368e-08
-6.860588e-08
-6.998422e-08
-7.086930e-08
-7.131955e-08
-7.146108e-08
0.000000e+00
8.214945e-09
1.563054e-08
2.380211e-08
3.356434e-08
4.501749e-08
5.804480e-08
7.247741e-08
8.813632e-08
1.048590e-07
1.225118e-07
1.410091e-07
1.603661e-07
1.808262e-07
2.029040e-07
2.263500e-07
2.497163e-07
0.000000e+00
4.796854e-09
1.201571e-08
2.038006e-08
3.047825e-08
4.228920e-08
5.566365e-08
7.041573e-08
8.636572e-08
1.033525e-07
1.212440e-07
1.399536e-07
1.594703e-07
1.799019e-07
2.014621e-07
2.243015e-07
2.473449e-07
0.000000e+00
2.857595e-09
9.138914e-09
1.761474e-08
2.797886e-08
4.009172e-08
5.375585e-08
6.877664e-08
8.497536e-08
1.021938e-07
1.202997e-07
1.391948e-07
1.588157e-07
1.791101e-07
2.000573e-07
2.220802e-07
2.444087e-07
0.000000e+00
1.985565e-09
7.678230e-09
1.605234e-08
2.654854e-08
3.883765e-08
5.267629e-08
6.786228e-08
8.421796e-08
1.015857e-07
1.198272e-07
1.388216e-07
1.584514e-07
1.785750e-07
1.990895e-07
2.203177e-07
2.416089e-07
0.000000e+00
1.744870e-09
7.249341e-09
1.555811e-08
2.609099e-08
3.844356e-08
5.234964e-08
6.760347e-08
8.402707e-08
1.014596e-07
1.197525e-07
1.387623e-07
1.583358e-07
1.782910e-07
1.984622e-07
2.190114e-07
2.392971e-07
0.000000e+00
1.987373e-09
7.683788e-09
1.606528e-08
2.657372e-08
3.888187e-08
5.274824e-08
6.797139e-08
8.437118e-08
1.017807e-07
1.200400e-07
1.389888e-07
1.584531e-07
1.782304e-07
1.981147e-07
2.181150e-07
2.376787e-07
0.000000e+00
2.860496e-09
9.148640e-09
1.763764e-08
2.802344e-08
4.017007e-08
5.388339e-08
6.897012e-08
8.524723e-08
1.025403e-07
1.206790e-07
1.394901e-07
1.587879e-07
1.783618e-07
1.979898e-07
2.175875e-07
2.367156e-07
0.000000e+00
4.800646e-09
1.202857e-08
2.040909e-08
3.053381e-08
4.238576e-08
5.581945e-08
7.065013e-08
8.669216e-08
1.037639e-07
1.216858e-07
1.402743e-07
1.593361e-07
1.786620e-07
1.980427e-07
2.173522e-07
2.362665e-07
0.000000e+00
8.221174e-09
1.564622e-08
2.383443e-08
3.362344e-08
4.511702e-08
5.820121e-08
7.270671e-08
8.844626e-08
1.052336e-07
1.228828e-07
1.412042e-07
1.599999e-07
1.790656e-07
1.982116e-07
2.173148e-07
2.361391e-07


3.195681e-01
3.195679e-01
3.195688e-01
3.195705e-01
3.195722e-01
3.195736e-01
3.195748e-01
3.195758e-01
3.195766e-01
3.195773e-01
3.195779e-01
3.195783e-01
3.195785e-01
3.195783e-01
3.195776e-01
3.195770e-01
3.195705e-01
3.195702e-01
3.195708e-01
3.195722e-01
3.195735e-01
3.195746e-01
3.195756e-01
3.195764e-01
3.195771e-01
3.195776e-01
3.195781e-01
3.195784e-01
3.195786e-01
3.195782e-01
3.195775e-01
3.195770e-01
3.195744e-01
3.195741e-01
3.195743e-01
3.195750e-01
3.195758e-01
3.195764e-01
3.195770e-01
3.195774e-01
3.195778e-01
3.195782e-01
3.195784e-01
3.195786e-01
3.195786e-01
3.195783e-01
3.195777e-01
3.195773e-01
3.195771e-01
3.195769e-01
3.195769e-01
3.195771e-01
3.195774e-01
3.195777e-01
3.195779e-01
3.195781e-01
3.195783e-01
3.195785e-01
3.195786e-01
3.195786e-01
3.195786e-01
3.195784e-01
3.195781e-01
3.195779e-01
3.195771e-01
3.195769e-01
3.195768e-01
3.195771e-01
3.195774e-01
3.195776e-01
3.195779e-01
3.195781e-01
3.195783e-01
3.195784e-01
3.195785e-01
3.195785e-01
3.195786e-01
3.195786e-01
3.195785e-01
3.195785e-01
3.195744e-01
3.195741e-01
3.195743e-01
3.195750e-01
3.195757e-01
3.195764e-01
3.195769e-01
3.195774e-01
3.195777e-01
3.195780e-01
3.195783e-01
3.195785e-01
3.195786e-01
3.195788e-01
3.195789e-01
3.195790e-01
3.195705e-01
3.195702e-01
3.195708e-01
3.195722e-01
3.195735e-01
3.195746e-01
3.195755e-01
3.195764e-01
3.195770e-01
3.195776e-01
3.195781e-01
3.195784e-01
3.195787e-01
3.195790e-01
3.195792e-01
3.195793e-01
3.195681e-01
3.195679e-01
3.195688e-01
3.195705e-01
3.195722e-01
3.195736e-01
3.195748e-01
3.195758e-01
3.195767e-01
3.195774e-01
3.195780e-01
3.195785e-01
3.195789e-01
3.195791e-01
3.195793e-01
3.195795e-01


9.730880e-01
9.769043e-01
9.804346e-01
9.831522e-01
9.856747e-01
9.880007e-01
9.901199e-01
9.920073e-01
9.936433e-01
9.950115e-01
9.960995e-01
9.968966e-01
9.973920e-01
9.975687e-01
9.976963e-01
9.898310e-01
9.898187e-01
9.880698e-01
9.891950e-01
9.906634e-01
9.920325e-01
9.932769e-01
9.944034e-01
9.954237e-01
9.963475e-01
9.971843e-01
9.979436e-01
9.986312e-01
9.992310e-01
9.996238e-01
9.986305e-01
9.851668e-01
9.964624e-01
9.954580e-01
9.951868e-01
9.955682e-01
9.960699e-01
9.965560e-01
9.970072e-01
9.974336e-01
9.978466e-01
9.982493e-01
9.986254e-01
9.989166e-01
9.989774e-01
9.984530e-01
9.965506e-01
9.931291e-01
9.992800e-01
9.985474e-01
9.980949e-01
9.979801e-01
9.980259e-01
9.981028e-01
9.981796e-01
9.982547e-01
9.983283e-01
9.983900e-01
9.984072e-01
9.983155e-01
9.980246e-01
9.975025e-01
9.970598e-01
9.969477e-01
9.992827e-01
9.985513e-01
9.980983e-01
9.979793e-01
9.980145e-01
9.980700e-01
9.981084e-01
9.981214e-01
9.981037e-01
9.980470e-01
9.979414e-01
9.977892e-01
9.976442e-01
9.976730e-01
9.980828e-01
9.987920e-01
9.964675e-01
9.954656e-01
9.951941e-01
9.955683e-01
9.960505e-01
9.964958e-01
9.968726e-01
9.971755e-01
9.974023e-01
9.975551e-01
9.976517e-01
9.977461e-01
9.979445e-01
9.983603e-01
9.989850e-01
9.996309e-01
9.898177e-01
9.880691e-01
9.891934e-01
9.906592e-01
9.920218e-01
9.932524e-01
9.943526e-01
9.953268e-01
9.961757e-01
9.969013e-01
9.975156e-01
9.980521e-01
9.985687e-01
9.991104e-01
9.996169e-01
9.999359e-01
9.730696e-01
9.768756e-01
9.803994e-01
9.831126e-01
9.856392e-01
9.879878e-01
9.901637e-01
9.921616e-01
9.939820e-01
9.956215e-01
9.970604e-01
9.982541e-01
9.991421e-01
9.996900e-01
9.999392e-01
9.999987e-01
1 2 19 18
2 3 20 19
3 4 21 20
4 5 22 21
5 6 23 22
6 7 24 23
7 8 25 24
8 9 26 25
9 10 27 26
10 11 28 27
11 12 29 28
12 13 30 29
13 14 31 30
14 15 32 31
15 16 33 32
16 17 34 33
18 19 36 35
19 20 37 36
20 21 38 37
21 22 39 38
22 23 40 39
23 24 41 40
24 25 42 41
25 26 43 42
26 27 44 43
27 28 45 44
28 29 46 45
29 30 47 46
30 31 48 47
31 32 49 48
32 33 50 49
33 34 51 50
35 36 53 52
36 37 54 53
37 38 55 54
38 39 56 55
39 40 57 56
40 41 58 57
41 42 59 58
42 43 60 59
43 44 61 60
44 45 62 61
45 46 63 62
46 47 64 63
47 48 65 64
48 49 66 65
49 50 67 66
50 51 68 67
52 53 70 69
53 54 71 70
54 55 72 71
55 56 73 72
56 57 74 73
57 58 75 74
58 59 76 75
59 60 77 76
60 61 78 77
61 62 79 78
62 63 80 79
63 64 81 80
64 65 82 81
65 66 83 82
66 67 84 83
67 68 85 84
69 70 87 86
70 71 88 87
71 72 89 88
72 73 90 89
73 74 91 90
74 75 92 91
75 76 93 92
76 77 94 93
77 78 95 94
78 79 96 95
79 80 97 96
80 81 98 97
81 82 99 98
82 83 100 99
83 84 101 100
84 85 102 101
86 87 104 103
87 88 105 104
88 89 106 105
89 90 107 106
90 91 108 107
91 92 109 108
92 93 110 109
93 94 111 110
94 95 112 111
95 96 113 112
96 97 114 113
97 98 115 114
98 99 116 115
99 100 117 116
100 101 118 117
101 102 119 118
103 104 121 120
104 105 122 121
105 106 123 122
106 107 124 123
107 108 125 124
108 109 126 125
109 110 127 126
110 111 128 127
111 112 129 128
112 113 130 129
113 114 131 130
114 115 132 131
115 116 133 132
116 117 134 133
117 118 135 134
118 119 136 135
120 121 138 137
121 122 139 138
122 123 140 139
123 124 141 140
124 125 142 141
125 126 143 142
126 127 144 143
127 128 145 144
128 129 146 145
129 130 147 146
130 131 148 147
131 132 149 148
132 133 150 149
133 134 151 150
134 135 152 151
135 136 153 152
