TITLE = "Solution"
VARIABLES = x, y, u, v, psiu, psiv, t, stress
ZONE T="structure" N=153 E=128 F=FEBLOCK ET=QUADRILATERAL VARLOCATION=([7,8]=cellcentered)
0.000000e+00
1.250000e+01
2.500000e+01
3.750000e+01
5.000000e+01
6.250000e+01
7.500000e+01
8.750000e+01
1.000000e+02
1.125000e+02
1.250000e+02
1.375000e+02
1.500000e+02
1.625000e+02
1.750000e+02
1.875000e+02
2.000000e+02
0.000000e+00
1.250000e+01
2.500000e+01
3.750000e+01
5.000000e+01
6.250000e+01
7.500000e+01
8.750000e+01
1.000000e+02
1.125000e+02
1.250000e+02
1.375000e+02
1.500000e+02
1.625000e+02
1.750000e+02
1.875000e+02
2.000000e+02
0.000000e+00
1.250000e+01
2.500000e+01
3.750000e+01
5.000000e+01
6.250000e+01
7.500000e+01
8.750000e+01
1.000000e+02
1.125000e+02
1.250000e+02
1.375000e+02
1.500000e+02
1.625000e+02
1.750000e+02
1.875000e+02
2.000000e+02
0.000000e+00
1.250000e+01
2.500000e+01
3.750000e+01
5.000000e+01
6.250000e+01
7.500000e+01
8.750000e+01
1.000000e+02
1.125000e+02
1.250000e+02
1.375000e+02
1.500000e+02
1.625000e+02
1.750000e+02
1.875000e+02
2.000000e+02
0.000000e+00
1.250000e+01
2.500000e+01
3.750000e+01
5.000000e+01
6.250000e+01
7.500000e+01
8.750000e+01
1.000000e+02
1.125000e+02
1.250000e+02
1.375000e+02
1.500000e+02
1.625000e+02
1.750000e+02
1.875000e+02
2.000000e+02
0.000000e+00
1.250000e+01
2.500000e+01
3.750000e+01
5.000000e+01
6.250000e+01
7.500000e+01
8.750000e+01
1.000000e+02
1.125000e+02
1.250000e+02
1.375000e+02
1.500000e+02
1.625000e+02
1.750000e+02
1.875000e+02
2.000000e+02
0.000000e+00
1.250000e+01
2.500000e+01
3.750000e+01
5.000000e+01
6.250000e+01
7.500000e+01
8.750000e+01
1.000000e+02
1.125000e+02
1.250000e+02
1.375000e+02
1.500000e+02
1.625000e+02
1.750000e+02
1.875000e+02
2.000000e+02
0.000000e+00
1.250000e+01
2.500000e+01
3.750000e+01
5.000000e+01
6.250000e+01
7.500000e+01
8.750000e+01
1.000000e+02
1.125000e+02
1.250000e+02
1.375000e+02
1.500000e+02
1.625000e+02
1.750000e+02
1.875000e+02
2.000000e+02
0.000000e+00
1.250000e+01
2.500000e+01
3.750000e+01
5.000000e+01
6.250000e+01
7.500000e+01
8.750000e+01
1.000000e+02
1.125000e+02
1.250000e+02
1.375000e+02
1.500000e+02
1.625000e+02
1.750000e+02
1.875000e+02
2.000000e+02
0.000000e+00
0.000000e+00
0.000000e+00
0.000000e+00
0.000000e+00
0.000000e+00
0.000000e+00
0.000000e+00
0.000000e+00
0.000000e+00
0.000000e+00
0.000000e+00
0.000000e+00
0.000000e+00
0.000000e+00
0.000000e+00
0.000000e+00
1.250000e+01
1.250000e+01
1.250000e+01
1.250000e+01
1.250000e+01
1.250000e+01
1.250000e+01
1.250000e+01
1.250000e+01
1.250000e+01
1.250000e+01
1.250000e+01
1.250000e+01
1.250000e+01
1.250000e+01
1.250000e+01
1.250000e+01
2.500000e+01
2.500000e+01
2.500000e+01
2.500000e+01
2.500000e+01
2.500000e+01
2.500000e+01
2.500000e+01
2.500000e+01
2.500000e+01
2.500000e+01
2.500000e+01
2.500000e+01
2.500000e+01
2.500000e+01
2.500000e+01
2.500000e+01
3.750000e+01
3.750000e+01
3.750000e+01
3.750000e+01
3.750000e+01
3.750000e+01
3.750000e+01
3.750000e+01
3.750000e+01
3.750000e+01
3.750000e+01
3.750000e+01
3.750000e+01
3.750000e+01
3.750000e+01
3.750000e+01
3.750000e+01
5.000000e+01
5.000000e+01
5.000000e+01
5.000000e+01
5.000000e+01
5.000000e+01
5.000000e+01
5.000000e+01
5.000000e+01
5.000000e+01
5.000000e+01
5.000000e+01
5.000000e+01
5.000000e+01
5.000000e+01
5.000000e+01
5.000000e+01
6.250000e+01
6.250000e+01
6.250000e+01
6.250000e+01
6.250000e+01
6.250000e+01
6.250000e+01
6.250000e+01
6.250000e+01
6.250000e+01
6.250000e+01
6.250000e+01
6.250000e+01
6.250000e+01
6.250000e+01
6.250000e+01
6.250000e+01
7.500000e+01
7.500000e+01
7.500000e+01
7.500000e+01
7.500000e+01
7.500000e+01
7.500000e+01
7.500000e+01
7.500000e+01
7.500000e+01
7.500000e+01
7.500000e+01
7.500000e+01
7.500000e+01
7.500000e+01
7.500000e+01
7.500000e+01
8.750000e+01
8.750000e+01
8.750000e+01
8.750000e+01
8.750000e+01
8.750000e+01
8.750000e+01
8.750000e+01
8.750000e+01
8.750000e+01
8.750000e+01
8.750000e+01
8.750000e+01
8.750000e+01
8.750000e+01
8.750000e+01
8.750000e+01
1.000000e+02
1.000000e+02
1.000000e+02
1.000000e+02
1.000000e+02
1.000000e+02
1.000000e+02
1.000000e+02
1.000000e+02
1.000000e+02
1.000000e+02
1.000000e+02
1.000000e+02
1.000000e+02
1.000000e+02
1.000000e+02
1.000000e+02
0.000000e+00
-1.012272e+00
-1.821714e+00
-2.570179e+00
-3.329065e+00
-4.095382e+00
-4.857678e+00
-5.616050e+00
-6.389987e+00
-7.261197e+00
-8.267251e+00
-9.149239e+00
-9.869442e+00
-1.063426e+01
-1.145483e+01
-1.221832e+01
-1.269131e+01
0.000000e+00
-5.613794e-01
-1.153211e+00
-1.710349e+00
-2.268109e+00
-2.824188e+00
-3.377267e+00
-3.923039e+00
-4.482081e+00
-5.117767e+00
-5.861245e+00
-6.507906e+00
-7.007091e+00
-7.451849e+00
-7.784871e+00
-7.853521e+00
-8.019477e+00
0.000000e+00
-3.038614e-01
-6.379836e-01
-9.962779e-01
-1.355750e+00
-1.710992e+00
-2.069170e+00
-2.434197e+00
-2.818029e+00
-3.246512e+00
-3.699944e+00
-4.069205e+00
-4.330927e+00
-4.485944e+00
-4.496357e+00
-4.442452e+00
-4.638196e+00
0.000000e+00
-1.246879e-01
-2.777833e-01
-4.486485e-01
-6.204475e-01
-7.867603e-01
-9.538727e-01
-1.132751e+00
-1.328199e+00
-1.537403e+00
-1.720066e+00
-1.843339e+00
-1.899992e+00
-1.883851e+00
-1.812495e+00
-1.808946e+00
-1.978819e+00
0.000000e+00
-4.848941e-03
-7.777565e-03
-6.180382e-03
1.207047e-03
1.363594e-02
3.125837e-02
5.391334e-02
8.198627e-02
1.201648e-01
1.720920e-01
2.430152e-01
3.371427e-01
4.446709e-01
5.278245e-01
5.139598e-01
3.966254e-01
0.000000e+00
1.189234e-01
2.651585e-01
4.313869e-01
6.067673e-01
7.890006e-01
9.852158e-01
1.212059e+00
1.476814e+00
1.774908e+00
2.051135e+00
2.278143e+00
2.478705e+00
2.659070e+00
2.775609e+00
2.784590e+00
2.724733e+00
0.000000e+00
3.016344e-01
6.276733e-01
9.718015e-01
1.316382e+00
1.664479e+00
2.033170e+00
2.440491e+00
2.906569e+00
3.441208e+00
3.960531e+00
4.356594e+00
4.656438e+00
4.890353e+00
5.046391e+00
5.095589e+00
5.082428e+00
0.000000e+00
5.606532e-01
1.144798e+00
1.683689e+00
2.214212e+00
2.744704e+00
3.292621e+00
3.874589e+00
4.520542e+00
5.253349e+00
5.995981e+00
6.585274e+00
7.011905e+00
7.311595e+00
7.492745e+00
7.564523e+00
7.577906e+00
0.000000e+00
1.014226e+00
1.815546e+00
2.544297e+00
3.270672e+00
4.005893e+00
4.765699e+00
5.572164e+00
6.447376e+00
7.407498e+00
8.338212e+00
9.097966e+00
9.647388e+00
1.000144e+01
1.016094e+01
1.018566e+01
1.018096e+01
0.000000e+00
-6.166752e-01
-1.257254e+00
-2.096438e+00
-3.128676e+00
-4.367638e+00
-5.825594e+00
-7.512512e+00
-9.446158e+00
-1.165747e+01
-1.412555e+01
-1.675166e+01
-1.956262e+01
-2.261562e+01
-2.598045e+01
-2.990386e+01
-3.549145e+01
0.000000e+00
-3.877579e-01
-1.063712e+00
-1.901850e+00
-2.931425e+00
-4.168500e+00
-5.627721e+00
-7.314521e+00
-9.236032e+00
-1.141716e+01
-1.388543e+01
-1.655718e+01
-1.939045e+01
-2.244788e+01
-2.584641e+01
-2.978606e+01
-3.453254e+01
0.000000e+00
-3.130213e-01
-9.385973e-01
-1.773070e+00
-2.797711e+00
-4.028720e+00
-5.483446e+00
-7.169205e+00
-9.086678e+00
-1.127093e+01
-1.375532e+01
-1.645111e+01
-1.931214e+01
-2.240136e+01
-2.582615e+01
-2.956462e+01
-3.305026e+01
0.000000e+00
-3.062387e-01
-8.951725e-01
-1.709933e+00
-2.725579e+00
-3.946208e+00
-5.387994e+00
-7.069936e+00
-8.999675e+00
-1.121987e+01
-1.372607e+01
-1.643229e+01
-1.930901e+01
-2.240429e+01
-2.574800e+01
-2.910579e+01
-3.199291e+01
0.000000e+00
-3.164298e-01
-8.924579e-01
-1.698023e+00
-2.707318e+00
-3.921726e+00
-5.353349e+00
-7.032036e+00
-8.979265e+00
-1.123611e+01
-1.376375e+01
-1.646958e+01
-1.934050e+01
-2.239914e+01
-2.560650e+01
-2.867466e+01
-3.128683e+01
0.000000e+00
-3.102300e-01
-9.037772e-01
-1.720832e+00
-2.737014e+00
-3.954747e+00
-5.389865e+00
-7.073058e+00
-9.025749e+00
-1.129711e+01
-1.383755e+01
-1.653988e+01
-1.938972e+01
-2.239405e+01
-2.547650e+01
-2.838375e+01
-3.092577e+01
0.000000e+00
-3.179730e-01
-9.493911e-01
-1.788238e+00
-2.814461e+00
-4.042052e+00
-5.490758e+00
-7.182790e+00
-9.141282e+00
-1.140704e+01
-1.394303e+01
-1.663565e+01
-1.946396e+01
-2.241579e+01
-2.539303e+01
-2.820150e+01
-3.076070e+01
0.000000e+00
-3.916784e-01
-1.072087e+00
-1.913718e+00
-2.944853e+00
-4.180185e+00
-5.640112e+00
-7.345077e+00
-9.320034e+00
-1.158524e+01
-1.409874e+01
-1.676572e+01
-1.956781e+01
-2.247242e+01
-2.537213e+01
-2.812708e+01
-3.073464e+01
0.000000e+00
-6.196234e-01
-1.261823e+00
-2.101348e+00
-3.133260e+00
-4.373762e+00
-5.842973e+00
-7.563839e+00
-9.561399e+00
-1.183907e+01
-1.432136e+01
-1.693996e+01
-1.969390e+01
-2.254549e+01
-2.538821e+01
-2.811368e+01
-3.073934e+01


0.000000e+00
3.304518e-05
5.608920e-05
6.819461e-05
7.614706e-05
8.391205e-05
9.241366e-05
1.001802e-04
1.059481e-04
1.088720e-04
1.071942e-04
1.017972e-04
9.605570e-05
9.097131e-05
8.792366e-05
8.746153e-05
8.825479e-05
0.000000e+00
2.718015e-05
4.917547e-05
5.665696e-05
6.125911e-05
6.678545e-05
7.365609e-05
8.017609e-05
8.505975e-05
8.741584e-05
8.519911e-05
7.966332e-05
7.426233e-05
6.930737e-05
6.541350e-05
6.451269e-05
6.551996e-05
0.000000e+00
1.944675e-05
3.413660e-05
4.010473e-05
4.441506e-05
4.858514e-05
5.330440e-05
5.752988e-05
6.023299e-05
6.055415e-05
5.772380e-05
5.341921e-05
4.949653e-05
4.619264e-05
4.375703e-05
4.336113e-05
4.451536e-05
0.000000e+00
9.106443e-06
1.505092e-05
2.053244e-05
2.385133e-05
2.618843e-05
2.824063e-05
2.983237e-05
2.999468e-05
2.873113e-05
2.645674e-05
2.426163e-05
2.257374e-05
2.149734e-05
2.103647e-05
2.121757e-05
2.168549e-05
0.000000e+00
8.863433e-07
1.638624e-06
2.033397e-06
1.844522e-06
9.962738e-07
3.171658e-08
-2.157334e-06
-3.583114e-06
-5.053699e-06
-5.403859e-06
-5.173514e-06
-4.757312e-06
-4.204363e-06
-3.733477e-06
-3.890059e-06
-4.423835e-06
0.000000e+00
-6.191544e-06
-1.050597e-05
-1.468052e-05
-1.795863e-05
-2.140971e-05
-2.792885e-05
-3.672804e-05
-4.157515e-05
-3.982580e-05
-3.677184e-05
-3.388811e-05
-3.176634e-05
-3.010415e-05
-2.927028e-05
-2.953228e-05
-3.024420e-05
0.000000e+00
-1.396749e-05
-2.511328e-05
-3.034892e-05
-3.408629e-05
-3.812753e-05
-4.834932e-05
-6.439658e-05
-7.472388e-05
-7.354050e-05
-6.736532e-05
-6.205241e-05
-5.893480e-05
-5.693484e-05
-5.554522e-05
-5.531936e-05
-5.564263e-05
0.000000e+00
-1.982047e-05
-3.706220e-05
-4.419657e-05
-4.853882e-05
-5.376947e-05
-6.461570e-05
-8.150997e-05
-9.500738e-05
-9.835090e-05
-9.420410e-05
-8.869185e-05
-8.539766e-05
-8.319365e-05
-8.131280e-05
-8.043644e-05
-8.025845e-05
0.000000e+00
-2.571913e-05
-4.463032e-05
-5.577401e-05
-6.393454e-05
-7.243183e-05
-8.480921e-05
-9.828099e-05
-1.097919e-04
-1.146809e-04
-1.152308e-04
-1.126005e-04
-1.100121e-04
-1.072888e-04
-1.049254e-04
-1.038439e-04
-1.035680e-04
0.000000e+00
2.626182e-05
3.600182e-05
4.564053e-05
6.051508e-05
7.920839e-05
1.002039e-04
1.223210e-04
1.448336e-04
1.663237e-04
1.852361e-04
2.037281e-04
2.227302e-04
2.409289e-04
2.606102e-04
2.847352e-04
3.101195e-04
0.000000e+00
1.336917e-05
2.874626e-05
4.180116e-05
5.737200e-05
7.548639e-05
9.624498e-05
1.189509e-04
1.425834e-04
1.657921e-04
1.868450e-04
2.063223e-04
2.253446e-04
2.433252e-04
2.613559e-04
2.835387e-04
3.082126e-04
0.000000e+00
5.522498e-06
2.200151e-05
3.859728e-05
5.473153e-05
7.262261e-05
9.328895e-05
1.166476e-04
1.415594e-04
1.662718e-04
1.885900e-04
2.086748e-04
2.277337e-04
2.455281e-04
2.617816e-04
2.815257e-04
3.052845e-04
0.000000e+00
3.478068e-06
1.818498e-05
3.558736e-05
5.268016e-05
7.090975e-05
9.174886e-05
1.160326e-04
1.422819e-04
1.675481e-04
1.898682e-04
2.098269e-04
2.288686e-04
2.468644e-04
2.627887e-04
2.804861e-04
3.030298e-04
0.000000e+00
3.740651e-06
1.695505e-05
3.392971e-05
5.161858e-05
6.969868e-05
9.014514e-05
1.158209e-04
1.436115e-04
1.688493e-04
1.901990e-04
2.097779e-04
2.289398e-04
2.476099e-04
2.647056e-04
2.822037e-04
3.035051e-04
0.000000e+00
4.065717e-06
1.777709e-05
3.477797e-05
5.209439e-05
6.910426e-05
8.933112e-05
1.160930e-04
1.450086e-04
1.693217e-04
1.895334e-04
2.088074e-04
2.284592e-04
2.479087e-04
2.662332e-04
2.846126e-04
3.054443e-04
0.000000e+00
5.758901e-06
2.061930e-05
3.688113e-05
5.335297e-05
7.079445e-05
9.267326e-05
1.203533e-04
1.472436e-04
1.686145e-04
1.877191e-04
2.070892e-04
2.275910e-04
2.476849e-04
2.666825e-04
2.861717e-04
3.075030e-04
0.000000e+00
1.154041e-05
2.593788e-05
3.955427e-05
5.561226e-05
7.477180e-05
9.992910e-05
1.280938e-04
1.513466e-04
1.684891e-04
1.852970e-04
2.048601e-04
2.262752e-04
2.469069e-04
2.664114e-04
2.867706e-04
3.085914e-04
0.000000e+00
2.129374e-05
3.200505e-05
4.315171e-05
5.871712e-05
7.941789e-05
1.070335e-04
1.351609e-04
1.560063e-04
1.691158e-04
1.837645e-04
2.029242e-04
2.249629e-04
2.458499e-04
2.658866e-04
2.868259e-04
3.088355e-04


2.627381e+00
2.531441e+00
2.534966e+00
2.754184e+00
2.983224e+00
3.228718e+00
3.607291e+00
4.248646e+00
5.950226e+00
7.882910e+00
7.908795e+00
7.172707e+00
7.615846e+00
7.515262e+00
5.996874e+00
4.651119e+00
3.342174e+00
3.370014e+00
3.430279e+00
3.604266e+00
3.862411e+00
4.372251e+00
4.713142e+00
5.338398e+00
6.614080e+00
7.967334e+00
7.843795e+00
7.232777e+00
7.524412e+00
7.758404e+00
6.524391e+00
5.223277e+00
4.983652e+00
5.104547e+00
4.921424e+00
4.834985e+00
5.101662e+00
5.709196e+00
6.446621e+00
6.961403e+00
7.753656e+00
8.189872e+00
7.733610e+00
7.219343e+00
7.402630e+00
7.992821e+00
7.765354e+00
6.825124e+00
6.676090e+00
6.459425e+00
5.772895e+00
5.316513e+00
5.434350e+00
6.149989e+00
7.182874e+00
8.082610e+00
8.475296e+00
8.118384e+00
7.415435e+00
7.000624e+00
7.387150e+00
8.165769e+00
8.418649e+00
7.888611e+00
6.618987e+00
6.320309e+00
5.646618e+00
5.285113e+00
5.523739e+00
6.281561e+00
7.406916e+00
8.293520e+00
8.696737e+00
8.115482e+00
7.097925e+00
7.022727e+00
7.620822e+00
8.435470e+00
8.493393e+00
7.643650e+00
4.905109e+00
4.919992e+00
4.720751e+00
4.771379e+00
5.214887e+00
5.990096e+00
6.884514e+00
7.703268e+00
8.566225e+00
8.368868e+00
7.319347e+00
7.060217e+00
7.911000e+00
8.521713e+00
8.190773e+00
7.565211e+00
3.348695e+00
3.311058e+00
3.329894e+00
3.511620e+00
3.869249e+00
4.540535e+00
5.236659e+00
6.367814e+00
7.696864e+00
8.365340e+00
7.714731e+00
7.328215e+00
7.526765e+00
7.681447e+00
7.226372e+00
6.588895e+00
2.612207e+00
2.485256e+00
2.445889e+00
2.629598e+00
2.897965e+00
3.338802e+00
4.077669e+00
5.254453e+00
6.880252e+00
7.921509e+00
7.956379e+00
7.502856e+00
7.192521e+00
6.859401e+00
6.050520e+00
5.218693e+00


-1.178269e+00
-7.266282e-01
-4.917092e-01
-5.162278e-01
-5.311768e-01
-5.190159e-01
-4.994131e-01
-5.770616e-01
-1.022107e+00
-1.696109e+00
-1.046281e+00
-3.032896e-01
-2.659619e-01
-1.443897e-01
3.846862e-01
-8.738243e-01
3.047385e-01
1.676069e-01
2.009315e-01
2.006939e-01
2.007958e-01
1.789905e-01
1.433491e-01
3.922012e-02
-2.436814e-01
-5.429983e-01
-1.040435e-01
3.770394e-01
5.983410e-01
7.758159e-01
5.815077e-01
-2.251007e+00
7.728025e-01
6.272545e-01
5.518922e-01
5.368095e-01
5.208456e-01
4.712742e-01
3.852985e-01
2.737407e-01
9.460407e-02
9.357909e-03
2.459899e-01
4.644660e-01
4.714014e-01
1.419813e-01
-4.692699e-01
-1.408143e+00
8.880725e-01
7.473238e-01
6.576752e-01
6.204657e-01
5.828707e-01
5.220249e-01
4.302815e-01
3.415200e-01
2.079629e-01
1.310688e-01
1.981500e-01
2.111179e-01
1.189842e-02
-4.099476e-01
-4.731131e-01
-3.534894e-01
8.913056e-01
7.520786e-01
6.546646e-01
5.979977e-01
5.394528e-01
4.595650e-01
3.416830e-01
2.239695e-01
5.538209e-02
-9.510717e-03
5.107556e-02
-1.656453e-03
-1.954877e-01
-3.427108e-01
3.232871e-02
5.147545e-01
7.766198e-01
6.365730e-01
5.604230e-01
5.238781e-01
4.677505e-01
3.611018e-01
1.775930e-01
-7.393104e-02
-3.996100e-01
-4.153581e-01
-1.071865e-01
-3.952143e-03
-7.104084e-02
-4.786323e-03
4.396378e-01
8.259361e-01
3.064298e-01
1.892396e-01
2.474036e-01
2.576276e-01
2.349999e-01
1.384574e-01
-4.965850e-02
-3.834808e-01
-8.604300e-01
-9.257887e-01
-3.060844e-01
1.124239e-01
3.011910e-01
5.119970e-01
8.165524e-01
9.757775e-01
-1.183055e+00
-6.883964e-01
-4.070639e-01
-3.839160e-01
-4.063241e-01
-5.064802e-01
-7.071835e-01
-1.064759e+00
-1.570997e+00
-1.519773e+00
-6.530552e-01
1.029469e-01
5.551694e-01
8.433534e-01
9.781696e-01
9.998342e-01
1 2 19 18
2 3 20 19
3 4 21 20
4 5 22 21
5 6 23 22
6 7 24 23
7 8 25 24
8 9 26 25
9 10 27 26
10 11 28 27
11 12 29 28
12 13 30 29
13 14 31 30
14 15 32 31
15 16 33 32
16 17 34 33
18 19 36 35
19 20 37 36
20 21 38 37
21 22 39 38
22 23 40 39
23 24 41 40
24 25 42 41
25 26 43 42
26 27 44 43
27 28 45 44
28 29 46 45
29 30 47 46
30 31 48 47
31 32 49 48
32 33 50 49
33 34 51 50
35 36 53 52
36 37 54 53
37 38 55 54
38 39 56 55
39 40 57 56
40 41 58 57
41 42 59 58
42 43 60 59
43 44 61 60
44 45 62 61
45 46 63 62
46 47 64 63
47 48 65 64
48 49 66 65
49 50 67 66
50 51 68 67
52 53 70 69
53 54 71 70
54 55 72 71
55 56 73 72
56 57 74 73
57 58 75 74
58 59 76 75
59 60 77 76
60 61 78 77
61 62 79 78
62 63 80 79
63 64 81 80
64 65 82 81
65 66 83 82
66 67 84 83
67 68 85 84
69 70 87 86
70 71 88 87
71 72 89 88
72 73 90 89
73 74 91 90
74 75 92 91
75 76 93 92
76 77 94 93
77 78 95 94
78 79 96 95
79 80 97 96
80 81 98 97
81 82 99 98
82 83 100 99
83 84 101 100
84 85 102 101
86 87 104 103
87 88 105 104
88 89 106 105
89 90 107 106
90 91 108 107
91 92 109 108
92 93 110 109
93 94 111 110
94 95 112 111
95 96 113 112
96 97 114 113
97 98 115 114
98 99 116 115
99 100 117 116
100 101 118 117
101 102 119 118
103 104 121 120
104 105 122 121
105 106 123 122
106 107 124 123
107 108 125 124
108 109 126 125
109 110 127 126
110 111 128 127
111 112 129 128
112 113 130 129
113 114 131 130
114 115 132 131
115 116 133 132
116 117 134 133
117 118 135 134
118 119 136 135
120 121 138 137
121 122 139 138
122 123 140 139
123 124 141 140
124 125 142 141
125 126 143 142
126 127 144 143
127 128 145 144
128 129 146 145
129 130 147 146
130 131 148 147
131 132 149 148
132 133 150 149
133 134 151 150
134 135 152 151
135 136 153 152
