TITLE = "Solution"
VARIABLES = x, y, u, v, psiu, psiv, t, stress
ZONE T="structure" N=153 E=128 F=FEBLOCK ET=QUADRILATERAL VARLOCATION=([7,8]=cellcentered)
0.000000e+00
1.250000e+01
2.500000e+01
3.750000e+01
5.000000e+01
6.250000e+01
7.500000e+01
8.750000e+01
1.000000e+02
1.125000e+02
1.250000e+02
1.375000e+02
1.500000e+02
1.625000e+02
1.750000e+02
1.875000e+02
2.000000e+02
0.000000e+00
1.250000e+01
2.500000e+01
3.750000e+01
5.000000e+01
6.250000e+01
7.500000e+01
8.750000e+01
1.000000e+02
1.125000e+02
1.250000e+02
1.375000e+02
1.500000e+02
1.625000e+02
1.750000e+02
1.875000e+02
2.000000e+02
0.000000e+00
1.250000e+01
2.500000e+01
3.750000e+01
5.000000e+01
6.250000e+01
7.500000e+01
8.750000e+01
1.000000e+02
1.125000e+02
1.250000e+02
1.375000e+02
1.500000e+02
1.625000e+02
1.750000e+02
1.875000e+02
2.000000e+02
0.000000e+00
1.250000e+01
2.500000e+01
3.750000e+01
5.000000e+01
6.250000e+01
7.500000e+01
8.750000e+01
1.000000e+02
1.125000e+02
1.250000e+02
1.375000e+02
1.500000e+02
1.625000e+02
1.750000e+02
1.875000e+02
2.000000e+02
0.000000e+00
1.250000e+01
2.500000e+01
3.750000e+01
5.000000e+01
6.250000e+01
7.500000e+01
8.750000e+01
1.000000e+02
1.125000e+02
1.250000e+02
1.375000e+02
1.500000e+02
1.625000e+02
1.750000e+02
1.875000e+02
2.000000e+02
0.000000e+00
1.250000e+01
2.500000e+01
3.750000e+01
5.000000e+01
6.250000e+01
7.500000e+01
8.750000e+01
1.000000e+02
1.125000e+02
1.250000e+02
1.375000e+02
1.500000e+02
1.625000e+02
1.750000e+02
1.875000e+02
2.000000e+02
0.000000e+00
1.250000e+01
2.500000e+01
3.750000e+01
5.000000e+01
6.250000e+01
7.500000e+01
8.750000e+01
1.000000e+02
1.125000e+02
1.250000e+02
1.375000e+02
1.500000e+02
1.625000e+02
1.750000e+02
1.875000e+02
2.000000e+02
0.000000e+00
1.250000e+01
2.500000e+01
3.750000e+01
5.000000e+01
6.250000e+01
7.500000e+01
8.750000e+01
1.000000e+02
1.125000e+02
1.250000e+02
1.375000e+02
1.500000e+02
1.625000e+02
1.750000e+02
1.875000e+02
2.000000e+02
0.000000e+00
1.250000e+01
2.500000e+01
3.750000e+01
5.000000e+01
6.250000e+01
7.500000e+01
8.750000e+01
1.000000e+02
1.125000e+02
1.250000e+02
1.375000e+02
1.500000e+02
1.625000e+02
1.750000e+02
1.875000e+02
2.000000e+02
0.000000e+00
0.000000e+00
0.000000e+00
0.000000e+00
0.000000e+00
0.000000e+00
0.000000e+00
0.000000e+00
0.000000e+00
0.000000e+00
0.000000e+00
0.000000e+00
0.000000e+00
0.000000e+00
0.000000e+00
0.000000e+00
0.000000e+00
1.250000e+01
1.250000e+01
1.250000e+01
1.250000e+01
1.250000e+01
1.250000e+01
1.250000e+01
1.250000e+01
1.250000e+01
1.250000e+01
1.250000e+01
1.250000e+01
1.250000e+01
1.250000e+01
1.250000e+01
1.250000e+01
1.250000e+01
2.500000e+01
2.500000e+01
2.500000e+01
2.500000e+01
2.500000e+01
2.500000e+01
2.500000e+01
2.500000e+01
2.500000e+01
2.500000e+01
2.500000e+01
2.500000e+01
2.500000e+01
2.500000e+01
2.500000e+01
2.500000e+01
2.500000e+01
3.750000e+01
3.750000e+01
3.750000e+01
3.750000e+01
3.750000e+01
3.750000e+01
3.750000e+01
3.750000e+01
3.750000e+01
3.750000e+01
3.750000e+01
3.750000e+01
3.750000e+01
3.750000e+01
3.750000e+01
3.750000e+01
3.750000e+01
5.000000e+01
5.000000e+01
5.000000e+01
5.000000e+01
5.000000e+01
5.000000e+01
5.000000e+01
5.000000e+01
5.000000e+01
5.000000e+01
5.000000e+01
5.000000e+01
5.000000e+01
5.000000e+01
5.000000e+01
5.000000e+01
5.000000e+01
6.250000e+01
6.250000e+01
6.250000e+01
6.250000e+01
6.250000e+01
6.250000e+01
6.250000e+01
6.250000e+01
6.250000e+01
6.250000e+01
6.250000e+01
6.250000e+01
6.250000e+01
6.250000e+01
6.250000e+01
6.250000e+01
6.250000e+01
7.500000e+01
7.500000e+01
7.500000e+01
7.500000e+01
7.500000e+01
7.500000e+01
7.500000e+01
7.500000e+01
7.500000e+01
7.500000e+01
7.500000e+01
7.500000e+01
7.500000e+01
7.500000e+01
7.500000e+01
7.500000e+01
7.500000e+01
8.750000e+01
8.750000e+01
8.750000e+01
8.750000e+01
8.750000e+01
8.750000e+01
8.750000e+01
8.750000e+01
8.750000e+01
8.750000e+01
8.750000e+01
8.750000e+01
8.750000e+01
8.750000e+01
8.750000e+01
8.750000e+01
8.750000e+01
1.000000e+02
1.000000e+02
1.000000e+02
1.000000e+02
1.000000e+02
1.000000e+02
1.000000e+02
1.000000e+02
1.000000e+02
1.000000e+02
1.000000e+02
1.000000e+02
1.000000e+02
1.000000e+02
1.000000e+02
1.000000e+02
1.000000e+02
0.000000e+00
-8.028712e-02
-1.948908e-01
-5.730138e-01
-1.254035e+00
-1.874641e+00
-2.022494e+00
-2.110017e+00
-2.220366e+00
-2.778464e+00
-3.237478e+00
-3.418680e+00
-3.510458e+00
-3.549654e+00
-3.588479e+00
-3.643868e+00
-3.703003e+00
0.000000e+00
-4.184619e-02
-1.170071e-01
-2.935216e-01
-9.510860e-01
-1.494383e+00
-1.640456e+00
-1.719773e+00
-1.827678e+00
-2.062791e+00
-2.545145e+00
-2.705650e+00
-2.783275e+00
-2.813223e+00
-2.826107e+00
-2.829499e+00
-2.847945e+00
0.000000e+00
-4.160687e-02
-9.399340e-02
-2.076268e-01
-6.389631e-01
-1.111208e+00
-1.267027e+00
-1.374994e+00
-1.473904e+00
-1.578821e+00
-1.753097e+00
-1.981124e+00
-2.062096e+00
-2.083152e+00
-2.085947e+00
-2.084992e+00
-2.097964e+00
0.000000e+00
-3.025974e-02
-6.725100e-02
-1.293383e-01
-3.621072e-01
-7.273163e-01
-9.091630e-01
-1.013550e+00
-1.068105e+00
-1.099972e+00
-1.144745e+00
-1.280208e+00
-1.345809e+00
-1.371465e+00
-1.378809e+00
-1.384930e+00
-1.398439e+00
0.000000e+00
-1.737065e-02
-3.888220e-02
-8.763551e-02
-2.168195e-01
-4.641840e-01
-5.700765e-01
-6.160267e-01
-6.339260e-01
-6.370611e-01
-6.331483e-01
-6.209709e-01
-6.808704e-01
-7.092695e-01
-7.189887e-01
-7.281836e-01
-7.409117e-01
0.000000e+00
-1.470016e-02
-3.673137e-02
-7.159753e-02
-1.071844e-01
-1.630297e-01
-1.761285e-01
-1.825428e-01
-1.838825e-01
-1.815741e-01
-1.803361e-01
-2.110536e-01
-1.766580e-01
-1.414849e-01
-1.155370e-01
-1.086475e-01
-1.129673e-01
0.000000e+00
4.155030e-02
7.820509e-02
1.178724e-01
1.589352e-01
2.188255e-01
2.548121e-01
2.756143e-01
2.899699e-01
3.000001e-01
3.120119e-01
3.460040e-01
3.965297e-01
4.502648e-01
5.022606e-01
5.174532e-01
5.192420e-01
0.000000e+00
1.199507e-01
2.262033e-01
3.335399e-01
4.584997e-01
5.983700e-01
6.911254e-01
7.504873e-01
7.987801e-01
8.379667e-01
8.772361e-01
9.389984e-01
1.020633e+00
1.083680e+00
1.135745e+00
1.158097e+00
1.159887e+00
0.000000e+00
2.121503e-01
3.868162e-01
5.601231e-01
7.842362e-01
9.922695e-01
1.134754e+00
1.237479e+00
1.332007e+00
1.409925e+00
1.507243e+00
1.623160e+00
1.726528e+00
1.790661e+00
1.809992e+00
1.813115e+00
1.811988e+00
0.000000e+00
-6.499713e-02
-1.596658e-01
-4.499295e-01
-9.757958e-01
-1.355394e+00
-1.733778e+00
-2.136749e+00
-2.563983e+00
-3.190368e+00
-3.852450e+00
-4.553062e+00
-5.282269e+00
-6.012359e+00
-6.750312e+00
-7.521477e+00
-8.490729e+00
0.000000e+00
-4.606945e-02
-1.265041e-01
-3.098406e-01
-7.870985e-01
-1.283767e+00
-1.703884e+00
-2.109897e+00
-2.528159e+00
-3.042315e+00
-3.760528e+00
-4.520170e+00
-5.268804e+00
-6.007085e+00
-6.744897e+00
-7.508891e+00
-8.361394e+00
0.000000e+00
-4.341391e-02
-1.116937e-01
-2.502895e-01
-6.560731e-01
-1.214341e+00
-1.664703e+00
-2.080876e+00
-2.512823e+00
-3.007952e+00
-3.643034e+00
-4.479510e+00
-5.259220e+00
-6.009186e+00
-6.747210e+00
-7.490631e+00
-8.233476e+00
0.000000e+00
-4.063988e-02
-1.085152e-01
-2.290864e-01
-5.786760e-01
-1.142477e+00
-1.610221e+00
-2.049186e+00
-2.508679e+00
-3.002380e+00
-3.582420e+00
-4.418654e+00
-5.250105e+00
-6.014241e+00
-6.746814e+00
-7.466739e+00
-8.165516e+00
0.000000e+00
-4.151235e-02
-1.102255e-01
-2.551169e-01
-5.659166e-01
-1.089824e+00
-1.552780e+00
-2.024615e+00
-2.510026e+00
-3.014221e+00
-3.561982e+00
-4.386227e+00
-5.234792e+00
-6.011811e+00
-6.740860e+00
-7.439608e+00
-8.106506e+00
0.000000e+00
-3.721232e-02
-1.344228e-01
-3.280397e-01
-6.110412e-01
-1.064073e+00
-1.525809e+00
-2.009531e+00
-2.510749e+00
-3.029534e+00
-3.580518e+00
-4.380769e+00
-5.207944e+00
-5.979625e+00
-6.729268e+00
-7.417450e+00
-8.065667e+00
0.000000e+00
-3.195392e-02
-1.505934e-01
-3.466565e-01
-6.396263e-01
-1.058218e+00
-1.521940e+00
-2.003574e+00
-2.510859e+00
-3.045668e+00
-3.633625e+00
-4.378601e+00
-5.185132e+00
-5.957341e+00
-6.717732e+00
-7.407305e+00
-8.055063e+00
0.000000e+00
-4.830761e-02
-1.774236e-01
-3.769708e-01
-6.749460e-01
-1.080164e+00
-1.530980e+00
-2.008849e+00
-2.516733e+00
-3.063182e+00
-3.670004e+00
-4.390339e+00
-5.179150e+00
-5.954598e+00
-6.709841e+00
-7.402281e+00
-8.053562e+00
0.000000e+00
-9.664590e-02
-2.194603e-01
-4.254099e-01
-7.319897e-01
-1.122408e+00
-1.557280e+00
-2.028945e+00
-2.534882e+00
-3.083845e+00
-3.700831e+00
-4.415553e+00
-5.193843e+00
-5.966896e+00
-6.703771e+00
-7.399846e+00
-8.054829e+00


0.000000e+00
4.474333e-06
-1.511888e-05
-1.859948e-04
-2.019407e-04
-2.824023e-05
2.250174e-05
3.310019e-05
1.262158e-05
-1.903302e-04
-4.015491e-04
-4.246766e-04
-3.323397e-04
-2.522084e-04
-2.000219e-04
-1.775471e-04
-1.725131e-04
0.000000e+00
6.139183e-06
-1.596666e-05
-1.233728e-04
-1.864501e-04
2.050377e-06
3.937409e-05
4.767427e-05
4.223250e-05
4.071517e-06
-1.303672e-04
-1.843424e-04
-1.922688e-04
-1.823598e-04
-1.770562e-04
-1.775423e-04
-1.793436e-04
0.000000e+00
-9.042089e-07
-1.506286e-05
-4.759029e-05
-7.200748e-05
1.410659e-05
3.926682e-05
5.452409e-05
7.196301e-05
1.042660e-04
1.574850e-04
6.523580e-05
-7.913937e-05
-1.414771e-04
-1.698096e-04
-1.850887e-04
-1.914208e-04
0.000000e+00
-4.010979e-06
-6.061835e-06
-1.201946e-05
-8.172855e-07
9.068020e-06
2.759661e-05
4.125225e-05
5.835640e-05
8.916975e-05
1.394670e-04
1.347051e-04
-6.638819e-05
-1.696722e-04
-2.010545e-04
-2.145944e-04
-2.182698e-04
0.000000e+00
-1.629623e-06
-4.955627e-07
2.891696e-06
1.821003e-06
6.640146e-06
7.511805e-06
9.770878e-06
1.345297e-05
1.661181e-05
3.628589e-05
-7.646386e-05
-3.099638e-04
-3.116713e-04
-2.740716e-04
-2.596264e-04
-2.521422e-04
0.000000e+00
-7.021801e-07
-6.190545e-07
-4.444117e-07
-2.389062e-07
-1.564958e-07
-2.567536e-06
-7.557903e-06
-1.837033e-05
-3.739572e-05
-8.621387e-05
-3.997164e-04
-4.815892e-04
-3.949344e-04
-3.012319e-04
-2.721569e-04
-2.600607e-04
0.000000e+00
1.496855e-06
3.602665e-06
4.935400e-06
5.090405e-06
3.949686e-06
1.014374e-06
-4.609977e-06
-1.662152e-05
-3.724018e-05
-6.664217e-05
-1.333261e-04
-2.024690e-04
-2.331959e-04
-2.365409e-04
-2.272179e-04
-2.211912e-04
0.000000e+00
4.405750e-06
9.019682e-06
1.160320e-05
1.184466e-05
1.062297e-05
9.333930e-06
8.784071e-06
8.936001e-06
8.782827e-06
8.739326e-06
5.679531e-06
-3.875210e-06
-3.971344e-05
-9.844654e-05
-1.385994e-04
-1.411056e-04
0.000000e+00
8.275046e-06
1.488477e-05
1.836018e-05
1.867535e-05
1.687128e-05
1.645792e-05
2.099685e-05
3.682203e-05
6.556011e-05
1.186173e-04
1.892331e-04
2.196326e-04
1.721457e-04
9.879714e-05
-1.702806e-05
-3.138074e-05
0.000000e+00
8.701437e-07
-2.450304e-05
-1.354659e-04
-6.565852e-05
-2.958479e-06
-2.900146e-05
-3.873126e-05
-4.903874e-05
-1.131717e-04
-3.430279e-04
-7.003126e-04
-1.001087e-03
-1.123068e-03
-1.149385e-03
-1.139463e-03
-1.125994e-03
0.000000e+00
1.788998e-06
-2.342748e-06
-6.211412e-05
-9.695392e-05
-4.348231e-05
-4.176284e-05
-4.141462e-05
-3.893517e-05
-5.182817e-05
-2.732155e-04
-6.921400e-04
-1.032340e-03
-1.140875e-03
-1.154700e-03
-1.138004e-03
-1.121641e-03
0.000000e+00
4.017376e-06
5.140113e-06
-2.654251e-05
-8.562407e-05
-7.123565e-05
-5.320162e-05
-4.959600e-05
-4.434638e-05
-2.805898e-05
-6.168804e-05
-6.335038e-04
-1.055056e-03
-1.156564e-03
-1.148519e-03
-1.130719e-03
-1.111690e-03
0.000000e+00
4.070550e-06
2.976005e-06
-1.974055e-05
-6.494307e-05
-7.215825e-05
-6.204504e-05
-5.976931e-05
-5.797949e-05
-3.576281e-05
1.300931e-05
-4.439330e-04
-1.059339e-03
-1.165552e-03
-1.136849e-03
-1.123487e-03
-1.105298e-03
0.000000e+00
2.243881e-06
-1.731788e-06
-1.900577e-05
-4.420090e-05
-5.704287e-05
-5.832805e-05
-6.261338e-05
-6.384909e-05
-4.663808e-05
2.478366e-05
-2.613591e-04
-1.000352e-03
-1.161027e-03
-1.124653e-03
-1.123537e-03
-1.115812e-03
0.000000e+00
-8.393502e-07
-6.860342e-06
-1.883501e-05
-3.028064e-05
-4.337795e-05
-4.913216e-05
-5.486586e-05
-5.836427e-05
-5.499298e-05
-2.147069e-05
-2.590254e-04
-8.099078e-04
-1.071006e-03
-1.116007e-03
-1.132046e-03
-1.151598e-03
0.000000e+00
-1.992126e-06
-8.633342e-06
-1.825893e-05
-2.855033e-05
-3.784047e-05
-4.299507e-05
-4.601436e-05
-4.944569e-05
-5.876729e-05
-1.012842e-04
-3.060737e-04
-6.986338e-04
-9.848349e-04
-1.106289e-03
-1.138793e-03
-1.180938e-03
0.000000e+00
-3.428567e-06
-1.014661e-05
-1.870016e-05
-2.781278e-05
-3.530046e-05
-3.915316e-05
-4.051940e-05
-4.312466e-05
-6.356935e-05
-1.346910e-04
-3.272017e-04
-6.393726e-04
-9.198504e-04
-1.086378e-03
-1.139653e-03
-1.206754e-03
0.000000e+00
-6.227840e-06
-1.222901e-05
-1.956482e-05
-2.749603e-05
-3.423950e-05
-3.816607e-05
-4.019341e-05
-4.454911e-05
-7.157919e-05
-1.530321e-04
-3.392946e-04
-6.221762e-04
-8.843019e-04
-1.065210e-03
-1.128620e-03
-1.224047e-03


3.749024e+00
5.884005e+00
6.996111e+00
8.096795e+00
8.347040e+00
6.186714e+00
4.928800e+00
7.381056e+00
9.517895e+00
9.206411e+00
7.377221e+00
5.293520e+00
4.446177e+00
4.340443e+00
4.723604e+00
4.319735e+00
3.283582e+00
5.779731e+00
7.792998e+00
8.570496e+00
7.668203e+00
4.625347e+00
3.703283e+00
6.094191e+00
8.422350e+00
8.855021e+00
7.382800e+00
5.328230e+00
3.533770e+00
3.070442e+00
3.096609e+00
4.187225e+00
2.816084e+00
4.770385e+00
7.172458e+00
7.768278e+00
6.294915e+00
3.475444e+00
2.787881e+00
4.584919e+00
6.580881e+00
7.699114e+00
7.328460e+00
5.174894e+00
3.654755e+00
2.231791e+00
2.588949e+00
3.162486e+00
2.581117e+00
4.505806e+00
5.970771e+00
6.958649e+00
6.109465e+00
4.090848e+00
3.633331e+00
4.640530e+00
5.622870e+00
7.419237e+00
8.240959e+00
7.103453e+00
5.368719e+00
3.825338e+00
3.332579e+00
4.262923e+00
3.105640e+00
4.117194e+00
6.266606e+00
6.915144e+00
6.775860e+00
5.210115e+00
4.283751e+00
4.161829e+00
4.872180e+00
6.642106e+00
8.881285e+00
8.869024e+00
7.123890e+00
4.928446e+00
4.396514e+00
5.380363e+00
2.977827e+00
3.957254e+00
5.178047e+00
6.106983e+00
6.042350e+00
4.858989e+00
3.221094e+00
3.008127e+00
3.714781e+00
5.682751e+00
7.717685e+00
8.582915e+00
7.081465e+00
5.629773e+00
6.002018e+00
5.979384e+00
3.826795e+00
3.304291e+00
4.034333e+00
4.664815e+00
4.749489e+00
4.349293e+00
3.501300e+00
3.605699e+00
3.890960e+00
4.282188e+00
6.394795e+00
7.542256e+00
6.451550e+00
6.184828e+00
6.467860e+00
6.857123e+00
3.556228e+00
3.066531e+00
3.576456e+00
4.585572e+00
4.759481e+00
4.556026e+00
5.103540e+00
5.451686e+00
3.746109e+00
3.199133e+00
4.742763e+00
6.675578e+00
6.078059e+00
5.002993e+00
5.875231e+00
5.672556e+00


9.855346e-01
9.676274e-01
7.253083e-01
-5.963767e-01
-1.614420e-01
9.225863e-01
9.747665e-01
9.572189e-01
4.655075e-01
2.415467e-01
8.937895e-01
9.747270e-01
9.958763e-01
9.975418e-01
9.963134e-01
9.705638e-01
9.911532e-01
9.803996e-01
9.103971e-01
-8.247282e-02
8.309831e-02
9.132391e-01
9.642840e-01
9.549898e-01
8.924434e-01
6.317546e-01
8.584276e-01
9.752812e-01
9.973067e-01
9.997594e-01
9.995882e-01
9.780208e-01
9.936809e-01
9.896758e-01
9.651568e-01
5.710579e-01
3.308498e-01
8.848953e-01
9.513393e-01
9.740342e-01
9.803309e-01
9.518360e-01
8.319827e-01
9.647210e-01
9.953273e-01
9.988549e-01
9.982835e-01
9.920044e-01
9.962546e-01
9.936194e-01
9.740359e-01
8.037875e-01
5.108549e-01
8.830755e-01
9.653248e-01
9.904299e-01
9.948555e-01
9.895075e-01
8.931152e-01
9.367593e-01
9.797136e-01
9.921816e-01
9.949234e-01
9.925015e-01
9.969097e-01
9.879616e-01
9.457453e-01
8.788883e-01
7.986955e-01
9.662716e-01
9.901601e-01
9.954436e-01
9.944514e-01
9.850247e-01
7.752117e-01
7.744472e-01
9.091689e-01
9.615627e-01
9.886676e-01
9.948163e-01
9.992971e-01
9.989706e-01
9.961834e-01
9.925511e-01
9.802312e-01
9.945533e-01
9.974833e-01
9.975599e-01
9.959518e-01
9.854488e-01
9.028158e-01
8.952536e-01
9.357608e-01
9.587899e-01
9.922220e-01
9.990945e-01
9.784066e-01
9.820162e-01
9.799051e-01
9.725587e-01
9.573422e-01
9.821252e-01
9.937196e-01
9.963326e-01
9.972060e-01
9.924779e-01
9.545320e-01
9.302369e-01
9.559417e-01
9.668612e-01
9.941342e-01
9.998295e-01
9.071845e-01
9.305688e-01
9.305532e-01
8.926964e-01
8.929862e-01
9.510770e-01
9.771102e-01
9.824494e-01
9.878407e-01
9.829224e-01
9.666571e-01
9.589709e-01
9.792390e-01
9.910294e-01
9.980183e-01
9.999981e-01
1 2 19 18
2 3 20 19
3 4 21 20
4 5 22 21
5 6 23 22
6 7 24 23
7 8 25 24
8 9 26 25
9 10 27 26
10 11 28 27
11 12 29 28
12 13 30 29
13 14 31 30
14 15 32 31
15 16 33 32
16 17 34 33
18 19 36 35
19 20 37 36
20 21 38 37
21 22 39 38
22 23 40 39
23 24 41 40
24 25 42 41
25 26 43 42
26 27 44 43
27 28 45 44
28 29 46 45
29 30 47 46
30 31 48 47
31 32 49 48
32 33 50 49
33 34 51 50
35 36 53 52
36 37 54 53
37 38 55 54
38 39 56 55
39 40 57 56
40 41 58 57
41 42 59 58
42 43 60 59
43 44 61 60
44 45 62 61
45 46 63 62
46 47 64 63
47 48 65 64
48 49 66 65
49 50 67 66
50 51 68 67
52 53 70 69
53 54 71 70
54 55 72 71
55 56 73 72
56 57 74 73
57 58 75 74
58 59 76 75
59 60 77 76
60 61 78 77
61 62 79 78
62 63 80 79
63 64 81 80
64 65 82 81
65 66 83 82
66 67 84 83
67 68 85 84
69 70 87 86
70 71 88 87
71 72 89 88
72 73 90 89
73 74 91 90
74 75 92 91
75 76 93 92
76 77 94 93
77 78 95 94
78 79 96 95
79 80 97 96
80 81 98 97
81 82 99 98
82 83 100 99
83 84 101 100
84 85 102 101
86 87 104 103
87 88 105 104
88 89 106 105
89 90 107 106
90 91 108 107
91 92 109 108
92 93 110 109
93 94 111 110
94 95 112 111
95 96 113 112
96 97 114 113
97 98 115 114
98 99 116 115
99 100 117 116
100 101 118 117
101 102 119 118
103 104 121 120
104 105 122 121
105 106 123 122
106 107 124 123
107 108 125 124
108 109 126 125
109 110 127 126
110 111 128 127
111 112 129 128
112 113 130 129
113 114 131 130
114 115 132 131
115 116 133 132
116 117 134 133
117 118 135 134
118 119 136 135
120 121 138 137
121 122 139 138
122 123 140 139
123 124 141 140
124 125 142 141
125 126 143 142
126 127 144 143
127 128 145 144
128 129 146 145
129 130 147 146
130 131 148 147
131 132 149 148
132 133 150 149
133 134 151 150
134 135 152 151
135 136 153 152
