TITLE = "Solution"
VARIABLES = x, y, u, v, psiu, psiv, t, stress
ZONE T="structure" N=153 E=128 F=FEBLOCK ET=QUADRILATERAL VARLOCATION=([7,8]=cellcentered)
0.000000e+00
1.250000e+01
2.500000e+01
3.750000e+01
5.000000e+01
6.250000e+01
7.500000e+01
8.750000e+01
1.000000e+02
1.125000e+02
1.250000e+02
1.375000e+02
1.500000e+02
1.625000e+02
1.750000e+02
1.875000e+02
2.000000e+02
0.000000e+00
1.250000e+01
2.500000e+01
3.750000e+01
5.000000e+01
6.250000e+01
7.500000e+01
8.750000e+01
1.000000e+02
1.125000e+02
1.250000e+02
1.375000e+02
1.500000e+02
1.625000e+02
1.750000e+02
1.875000e+02
2.000000e+02
0.000000e+00
1.250000e+01
2.500000e+01
3.750000e+01
5.000000e+01
6.250000e+01
7.500000e+01
8.750000e+01
1.000000e+02
1.125000e+02
1.250000e+02
1.375000e+02
1.500000e+02
1.625000e+02
1.750000e+02
1.875000e+02
2.000000e+02
0.000000e+00
1.250000e+01
2.500000e+01
3.750000e+01
5.000000e+01
6.250000e+01
7.500000e+01
8.750000e+01
1.000000e+02
1.125000e+02
1.250000e+02
1.375000e+02
1.500000e+02
1.625000e+02
1.750000e+02
1.875000e+02
2.000000e+02
0.000000e+00
1.250000e+01
2.500000e+01
3.750000e+01
5.000000e+01
6.250000e+01
7.500000e+01
8.750000e+01
1.000000e+02
1.125000e+02
1.250000e+02
1.375000e+02
1.500000e+02
1.625000e+02
1.750000e+02
1.875000e+02
2.000000e+02
0.000000e+00
1.250000e+01
2.500000e+01
3.750000e+01
5.000000e+01
6.250000e+01
7.500000e+01
8.750000e+01
1.000000e+02
1.125000e+02
1.250000e+02
1.375000e+02
1.500000e+02
1.625000e+02
1.750000e+02
1.875000e+02
2.000000e+02
0.000000e+00
1.250000e+01
2.500000e+01
3.750000e+01
5.000000e+01
6.250000e+01
7.500000e+01
8.750000e+01
1.000000e+02
1.125000e+02
1.250000e+02
1.375000e+02
1.500000e+02
1.625000e+02
1.750000e+02
1.875000e+02
2.000000e+02
0.000000e+00
1.250000e+01
2.500000e+01
3.750000e+01
5.000000e+01
6.250000e+01
7.500000e+01
8.750000e+01
1.000000e+02
1.125000e+02
1.250000e+02
1.375000e+02
1.500000e+02
1.625000e+02
1.750000e+02
1.875000e+02
2.000000e+02
0.000000e+00
1.250000e+01
2.500000e+01
3.750000e+01
5.000000e+01
6.250000e+01
7.500000e+01
8.750000e+01
1.000000e+02
1.125000e+02
1.250000e+02
1.375000e+02
1.500000e+02
1.625000e+02
1.750000e+02
1.875000e+02
2.000000e+02
0.000000e+00
0.000000e+00
0.000000e+00
0.000000e+00
0.000000e+00
0.000000e+00
0.000000e+00
0.000000e+00
0.000000e+00
0.000000e+00
0.000000e+00
0.000000e+00
0.000000e+00
0.000000e+00
0.000000e+00
0.000000e+00
0.000000e+00
1.250000e+01
1.250000e+01
1.250000e+01
1.250000e+01
1.250000e+01
1.250000e+01
1.250000e+01
1.250000e+01
1.250000e+01
1.250000e+01
1.250000e+01
1.250000e+01
1.250000e+01
1.250000e+01
1.250000e+01
1.250000e+01
1.250000e+01
2.500000e+01
2.500000e+01
2.500000e+01
2.500000e+01
2.500000e+01
2.500000e+01
2.500000e+01
2.500000e+01
2.500000e+01
2.500000e+01
2.500000e+01
2.500000e+01
2.500000e+01
2.500000e+01
2.500000e+01
2.500000e+01
2.500000e+01
3.750000e+01
3.750000e+01
3.750000e+01
3.750000e+01
3.750000e+01
3.750000e+01
3.750000e+01
3.750000e+01
3.750000e+01
3.750000e+01
3.750000e+01
3.750000e+01
3.750000e+01
3.750000e+01
3.750000e+01
3.750000e+01
3.750000e+01
5.000000e+01
5.000000e+01
5.000000e+01
5.000000e+01
5.000000e+01
5.000000e+01
5.000000e+01
5.000000e+01
5.000000e+01
5.000000e+01
5.000000e+01
5.000000e+01
5.000000e+01
5.000000e+01
5.000000e+01
5.000000e+01
5.000000e+01
6.250000e+01
6.250000e+01
6.250000e+01
6.250000e+01
6.250000e+01
6.250000e+01
6.250000e+01
6.250000e+01
6.250000e+01
6.250000e+01
6.250000e+01
6.250000e+01
6.250000e+01
6.250000e+01
6.250000e+01
6.250000e+01
6.250000e+01
7.500000e+01
7.500000e+01
7.500000e+01
7.500000e+01
7.500000e+01
7.500000e+01
7.500000e+01
7.500000e+01
7.500000e+01
7.500000e+01
7.500000e+01
7.500000e+01
7.500000e+01
7.500000e+01
7.500000e+01
7.500000e+01
7.500000e+01
8.750000e+01
8.750000e+01
8.750000e+01
8.750000e+01
8.750000e+01
8.750000e+01
8.750000e+01
8.750000e+01
8.750000e+01
8.750000e+01
8.750000e+01
8.750000e+01
8.750000e+01
8.750000e+01
8.750000e+01
8.750000e+01
8.750000e+01
1.000000e+02
1.000000e+02
1.000000e+02
1.000000e+02
1.000000e+02
1.000000e+02
1.000000e+02
1.000000e+02
1.000000e+02
1.000000e+02
1.000000e+02
1.000000e+02
1.000000e+02
1.000000e+02
1.000000e+02
1.000000e+02
1.000000e+02
0.000000e+00
-7.926824e-01
-1.450099e+00
-2.081279e+00
-2.717688e+00
-3.344735e+00
-3.955712e+00
-4.545728e+00
-5.106491e+00
-5.629365e+00
-6.109336e+00
-6.547883e+00
-6.955637e+00
-7.355902e+00
-7.789366e+00
-8.304033e+00
-8.682224e+00
0.000000e+00
-4.524232e-01
-9.427797e-01
-1.418826e+00
-1.896970e+00
-2.367330e+00
-2.825041e+00
-3.266894e+00
-3.686806e+00
-4.077590e+00
-4.433415e+00
-4.750805e+00
-5.027623e+00
-5.257806e+00
-5.418287e+00
-5.453574e+00
-5.572708e+00
0.000000e+00
-2.683115e-01
-5.600108e-01
-8.739839e-01
-1.193466e+00
-1.508395e+00
-1.814642e+00
-2.108788e+00
-2.385800e+00
-2.639554e+00
-2.863489e+00
-3.050385e+00
-3.190770e+00
-3.270499e+00
-3.274641e+00
-3.245783e+00
-3.368452e+00
0.000000e+00
-1.246792e-01
-2.631252e-01
-4.160389e-01
-5.754536e-01
-7.334588e-01
-8.867145e-01
-1.032230e+00
-1.166288e+00
-1.284207e+00
-1.380267e+00
-1.447721e+00
-1.479449e+00
-1.471849e+00
-1.440880e+00
-1.448407e+00
-1.541562e+00
0.000000e+00
-3.676445e-04
-7.903582e-04
-1.202854e-03
-1.478553e-03
-1.347547e-03
-2.742683e-04
2.716641e-03
9.250906e-03
2.177444e-02
4.349510e-02
7.765990e-02
1.252310e-01
1.792996e-01
2.171804e-01
2.083784e-01
1.455520e-01
0.000000e+00
1.240658e-01
2.617884e-01
4.139592e-01
5.727962e-01
7.308113e-01
8.854969e-01
1.035376e+00
1.179272e+00
1.316383e+00
1.446250e+00
1.567987e+00
1.678116e+00
1.767318e+00
1.820327e+00
1.825201e+00
1.792980e+00
0.000000e+00
2.680243e-01
5.593403e-01
8.728374e-01
1.191796e+00
1.506297e+00
1.812463e+00
2.107276e+00
2.386318e+00
2.644455e+00
2.876724e+00
3.078454e+00
3.244474e+00
3.368249e+00
3.442925e+00
3.467342e+00
3.459855e+00
0.000000e+00
4.525385e-01
9.429617e-01
1.419020e+00
1.897085e+00
2.367165e+00
2.824088e+00
3.263803e+00
3.678427e+00
4.057720e+00
4.391467e+00
4.670886e+00
4.889474e+00
5.044060e+00
5.136594e+00
5.176110e+00
5.183389e+00
0.000000e+00
7.929958e-01
1.450945e+00
2.082852e+00
2.720220e+00
3.348409e+00
3.960324e+00
4.549677e+00
5.104783e+00
5.610534e+00
6.051231e+00
6.412343e+00
6.682281e+00
6.855777e+00
6.939802e+00
6.960444e+00
6.959983e+00
0.000000e+00
-4.849091e-01
-9.809856e-01
-1.636584e+00
-2.448957e+00
-3.419921e+00
-4.548478e+00
-5.829793e+00
-7.255170e+00
-8.813565e+00
-1.049302e+01
-1.228310e+01
-1.417954e+01
-1.619400e+01
-1.838672e+01
-2.094781e+01
-2.476860e+01
0.000000e+00
-3.021731e-01
-8.181988e-01
-1.470179e+00
-2.283214e+00
-3.257580e+00
-4.391132e+00
-5.679223e+00
-7.113841e+00
-8.683732e+00
-1.037599e+01
-1.217890e+01
-1.408691e+01
-1.611163e+01
-1.830648e+01
-2.085278e+01
-2.404011e+01
0.000000e+00
-2.368812e-01
-7.073528e-01
-1.354439e+00
-2.166126e+00
-3.142675e+00
-4.280374e+00
-5.574434e+00
-7.017192e+00
-8.597695e+00
-1.030312e+01
-1.212180e+01
-1.404851e+01
-1.609301e+01
-1.829197e+01
-2.068700e+01
-2.298577e+01
0.000000e+00
-2.175339e-01
-6.565800e-01
-1.288672e+00
-2.097681e+00
-3.075205e+00
-4.216333e+00
-5.515750e+00
-6.965974e+00
-8.556508e+00
-1.027482e+01
-1.210882e+01
-1.405038e+01
-1.609778e+01
-1.824491e+01
-2.041436e+01
-2.237406e+01
0.000000e+00
-2.141361e-01
-6.426898e-01
-1.268573e+00
-2.075729e+00
-3.054137e+00
-4.197651e+00
-5.501030e+00
-6.957058e+00
-8.555523e+00
-1.028353e+01
-1.212673e+01
-1.407025e+01
-1.609544e+01
-1.816270e+01
-2.018239e+01
-2.200200e+01
0.000000e+00
-2.173385e-01
-6.564769e-01
-1.288985e+00
-2.098917e+00
-3.078237e+00
-4.222613e+00
-5.527518e+00
-6.986269e+00
-8.588631e+00
-1.032062e+01
-1.216452e+01
-1.409787e+01
-1.608900e+01
-1.808862e+01
-2.002211e+01
-2.179156e+01
0.000000e+00
-2.365569e-01
-7.071666e-01
-1.354915e+00
-2.168121e+00
-3.147663e+00
-4.290819e+00
-5.594153e+00
-7.051393e+00
-8.652088e+00
-1.038110e+01
-1.221783e+01
-1.413442e+01
-1.609291e+01
-1.804370e+01
-1.993012e+01
-2.169814e+01
0.000000e+00
-3.018469e-01
-8.179954e-01
-1.470710e+00
-2.285478e+00
-3.263288e+00
-4.403108e+00
-5.701803e+00
-7.152870e+00
-8.745504e+00
-1.046401e+01
-1.228659e+01
-1.418331e+01
-1.611447e+01
-1.803234e+01
-1.989192e+01
-2.167628e+01
0.000000e+00
-4.846871e-01
-9.808898e-01
-1.637262e+00
-2.451433e+00
-3.425911e+00
-4.560709e+00
-5.852236e+00
-7.292829e+00
-8.871193e+00
-1.057162e+01
-1.237250e+01
-1.424437e+01
-1.614892e+01
-1.804184e+01
-1.988491e+01
-2.167668e+01


0.000000e+00
7.584214e-06
1.526504e-05
2.226732e-05
2.891861e-05
3.500305e-05
4.019855e-05
4.436465e-05
4.752166e-05
4.979225e-05
5.135508e-05
5.240394e-05
5.312507e-05
5.369285e-05
5.426225e-05
5.507061e-05
5.613600e-05
0.000000e+00
5.539431e-06
1.225448e-05
1.761073e-05
2.259201e-05
2.714662e-05
3.097868e-05
3.397155e-05
3.617105e-05
3.769377e-05
3.868683e-05
3.929266e-05
3.961665e-05
3.972994e-05
3.985439e-05
4.050724e-05
4.160114e-05
0.000000e+00
4.113993e-06
8.493769e-06
1.212533e-05
1.549033e-05
1.846902e-05
2.094432e-05
2.286574e-05
2.426083e-05
2.519813e-05
2.576940e-05
2.606766e-05
2.617464e-05
2.618958e-05
2.630430e-05
2.682926e-05
2.770323e-05
0.000000e+00
2.053959e-06
3.971074e-06
5.911669e-06
7.637171e-06
9.111488e-06
1.033219e-05
1.129244e-05
1.199230e-05
1.245416e-05
1.271976e-05
1.284321e-05
1.289133e-05
1.294719e-05
1.308290e-05
1.338663e-05
1.388470e-05
0.000000e+00
-4.102390e-09
-8.725468e-09
-1.383294e-08
-1.988862e-08
-2.802586e-08
-4.032552e-08
-5.935729e-08
-8.716515e-08
-1.237094e-07
-1.645454e-07
-1.973788e-07
-2.002051e-07
-1.528709e-07
-6.722946e-08
5.705834e-08
2.824083e-07
0.000000e+00
-2.061416e-06
-3.986437e-06
-5.936395e-06
-7.672815e-06
-9.160850e-06
-1.040038e-05
-1.138769e-05
-1.212580e-05
-1.263865e-05
-1.296552e-05
-1.314944e-05
-1.322951e-05
-1.324471e-05
-1.324041e-05
-1.322222e-05
-1.313785e-05
0.000000e+00
-4.118234e-06
-8.504116e-06
-1.214385e-05
-1.551999e-05
-1.851139e-05
-2.099745e-05
-2.292386e-05
-2.431774e-05
-2.525266e-05
-2.583044e-05
-2.615797e-05
-2.632888e-05
-2.641680e-05
-2.647024e-05
-2.649582e-05
-2.647447e-05
0.000000e+00
-5.540655e-06
-1.225972e-05
-1.762199e-05
-2.261380e-05
-2.718086e-05
-3.101833e-05
-3.399807e-05
-3.616060e-05
-3.762843e-05
-3.856368e-05
-3.912934e-05
-3.945986e-05
-3.965101e-05
-3.976100e-05
-3.981426e-05
-3.982235e-05
0.000000e+00
-7.587617e-06
-1.526947e-05
-2.227354e-05
-2.892944e-05
-3.501878e-05
-4.020997e-05
-4.435008e-05
-4.745255e-05
-4.964343e-05
-5.111014e-05
-5.204910e-05
-5.262740e-05
-5.296730e-05
-5.314707e-05
-5.321625e-05
-5.322807e-05
0.000000e+00
6.720505e-06
1.164168e-05
1.729441e-05
2.455403e-05
3.319162e-05
4.300427e-05
5.383823e-05
6.550838e-05
7.782277e-05
9.061585e-05
1.037621e-04
1.171989e-04
1.310324e-04
1.458662e-04
1.621489e-04
1.788199e-04
0.000000e+00
3.429963e-06
8.440884e-06
1.425525e-05
2.168451e-05
3.065015e-05
4.092802e-05
5.225126e-05
6.436733e-05
7.704894e-05
9.011903e-05
1.034590e-04
1.170182e-04
1.308514e-04
1.452122e-04
1.607698e-04
1.770144e-04
0.000000e+00
1.496596e-06
5.942400e-06
1.202589e-05
1.962654e-05
2.884652e-05
3.945106e-05
5.112072e-05
6.355623e-05
7.650808e-05
8.978930e-05
1.032828e-04
1.169339e-04
1.307063e-04
1.445665e-04
1.593214e-04
1.749157e-04
0.000000e+00
8.601124e-07
4.838073e-06
1.093413e-05
1.869011e-05
2.804093e-05
3.877148e-05
5.057876e-05
6.315607e-05
7.624046e-05
8.963314e-05
1.032053e-04
1.168780e-04
1.305642e-04
1.441985e-04
1.583725e-04
1.731868e-04
0.000000e+00
7.380445e-07
4.542628e-06
1.058030e-05
1.840757e-05
2.780413e-05
3.856934e-05
5.041553e-05
6.303811e-05
7.616770e-05
8.959740e-05
1.031867e-04
1.168410e-04
1.304787e-04
1.440675e-04
1.579251e-04
1.720563e-04
0.000000e+00
8.610812e-07
4.838211e-06
1.093245e-05
1.868689e-05
2.803922e-05
3.877664e-05
5.059646e-05
6.318994e-05
7.628981e-05
8.968933e-05
1.032450e-04
1.168610e-04
1.304716e-04
1.440645e-04
1.577502e-04
1.714518e-04
0.000000e+00
1.498010e-06
5.942825e-06
1.202392e-05
1.962266e-05
2.884614e-05
3.946360e-05
5.115635e-05
6.362186e-05
7.660370e-05
8.990265e-05
1.033781e-04
1.169355e-04
1.305144e-04
1.440907e-04
1.576752e-04
1.711830e-04
0.000000e+00
3.432551e-06
8.444104e-06
1.425773e-05
2.168723e-05
3.065790e-05
4.094897e-05
5.229489e-05
6.444163e-05
7.715665e-05
9.025127e-05
1.035829e-04
1.170479e-04
1.305745e-04
1.441177e-04
1.576437e-04
1.710962e-04
0.000000e+00
6.725564e-06
1.164871e-05
1.730342e-05
2.456638e-05
3.320918e-05
4.302933e-05
5.387461e-05
6.556246e-05
7.790046e-05
9.071395e-05
1.038533e-04
1.171962e-04
1.306505e-04
1.441501e-04
1.576414e-04
1.710833e-04


2.120527e+00
2.102083e+00
2.228978e+00
2.442746e+00
2.632459e+00
2.830271e+00
3.039097e+00
3.234762e+00
3.398032e+00
3.521559e+00
3.606636e+00
3.657870e+00
3.671136e+00
3.614413e+00
3.494464e+00
3.402495e+00
2.488426e+00
2.467399e+00
2.556191e+00
2.717236e+00
2.862551e+00
3.016373e+00
3.180622e+00
3.335347e+00
3.465042e+00
3.563424e+00
3.630985e+00
3.670754e+00
3.677007e+00
3.616902e+00
3.499632e+00
3.411021e+00
3.065565e+00
3.045668e+00
3.085775e+00
3.164949e+00
3.238356e+00
3.321290e+00
3.411548e+00
3.497744e+00
3.571021e+00
3.627094e+00
3.665420e+00
3.687044e+00
3.686434e+00
3.637161e+00
3.545080e+00
3.477905e+00
3.451044e+00
3.436305e+00
3.443579e+00
3.466003e+00
3.493643e+00
3.528120e+00
3.566717e+00
3.604738e+00
3.638155e+00
3.664300e+00
3.682292e+00
3.692471e+00
3.691864e+00
3.665973e+00
3.616851e+00
3.581143e+00
3.450980e+00
3.436183e+00
3.443321e+00
3.465507e+00
3.492798e+00
3.526806e+00
3.564772e+00
3.601951e+00
3.634364e+00
3.659605e+00
3.677310e+00
3.688772e+00
3.694145e+00
3.688580e+00
3.672560e+00
3.660411e+00
3.065208e+00
3.045114e+00
3.084821e+00
3.163409e+00
3.236155e+00
3.318470e+00
3.408055e+00
3.493217e+00
3.564916e+00
3.619239e+00
3.656802e+00
3.681205e+00
3.696300e+00
3.703410e+00
3.704263e+00
3.703427e+00
2.487548e+00
2.466188e+00
2.554401e+00
2.714814e+00
2.859849e+00
3.014165e+00
3.179582e+00
3.335417e+00
3.465349e+00
3.562967e+00
3.629842e+00
3.672297e+00
3.697812e+00
3.712198e+00
3.719438e+00
3.722300e+00
2.119255e+00
2.100409e+00
2.226679e+00
2.439926e+00
2.629853e+00
2.829274e+00
3.041014e+00
3.239889e+00
3.405375e+00
3.529521e+00
3.614364e+00
3.667747e+00
3.699112e+00
3.716468e+00
3.725274e+00
3.728943e+00


-3.669444e-01
-1.585751e-01
-7.402639e-02
-8.899795e-02
-5.698231e-02
-3.686540e-03
6.324449e-02
1.530120e-01
2.643327e-01
3.846897e-01
4.982287e-01
5.915055e-01
6.569448e-01
6.934620e-01
7.292438e-01
-1.464401e-01
5.215118e-01
4.138188e-01
4.060337e-01
3.929676e-01
4.055326e-01
4.301651e-01
4.634344e-01
5.112581e-01
5.752404e-01
6.516310e-01
7.345158e-01
8.181797e-01
8.963086e-01
9.504873e-01
8.385638e-01
-6.975629e-01
8.348838e-01
7.606082e-01
7.075698e-01
6.871613e-01
6.844905e-01
6.889086e-01
6.989754e-01
7.170210e-01
7.446747e-01
7.810897e-01
8.218443e-01
8.567296e-01
8.646680e-01
8.008781e-01
5.771289e-01
1.779545e-01
9.505243e-01
8.945793e-01
8.496972e-01
8.259650e-01
8.152791e-01
8.086203e-01
8.032428e-01
7.992264e-01
7.973105e-01
7.967868e-01
7.934693e-01
7.783013e-01
7.388116e-01
6.726941e-01
6.228414e-01
6.141834e-01
9.508762e-01
8.950417e-01
8.501495e-01
8.260319e-01
8.142384e-01
8.052035e-01
7.953133e-01
7.835540e-01
7.697188e-01
7.532003e-01
7.327574e-01
7.083042e-01
6.866480e-01
6.904342e-01
7.466227e-01
8.415720e-01
8.356706e-01
7.616797e-01
7.086978e-01
6.876443e-01
6.829275e-01
6.827629e-01
6.839370e-01
6.864821e-01
6.898431e-01
6.926873e-01
6.950236e-01
7.017255e-01
7.253324e-01
7.801934e-01
8.640953e-01
9.507984e-01
5.220050e-01
4.145497e-01
4.068484e-01
3.936159e-01
4.053274e-01
4.279030e-01
4.573507e-01
4.988870e-01
5.531008e-01
6.151320e-01
6.790860e-01
7.425981e-01
8.086646e-01
8.805478e-01
9.485620e-01
9.914310e-01
-3.675815e-01
-1.597112e-01
-7.540826e-02
-9.071878e-02
-5.880497e-02
-4.542630e-03
6.685456e-02
1.685766e-01
3.033849e-01
4.607885e-01
6.231722e-01
7.707990e-01
8.859335e-01
9.585568e-01
9.918815e-01
9.998306e-01
1 2 19 18
2 3 20 19
3 4 21 20
4 5 22 21
5 6 23 22
6 7 24 23
7 8 25 24
8 9 26 25
9 10 27 26
10 11 28 27
11 12 29 28
12 13 30 29
13 14 31 30
14 15 32 31
15 16 33 32
16 17 34 33
18 19 36 35
19 20 37 36
20 21 38 37
21 22 39 38
22 23 40 39
23 24 41 40
24 25 42 41
25 26 43 42
26 27 44 43
27 28 45 44
28 29 46 45
29 30 47 46
30 31 48 47
31 32 49 48
32 33 50 49
33 34 51 50
35 36 53 52
36 37 54 53
37 38 55 54
38 39 56 55
39 40 57 56
40 41 58 57
41 42 59 58
42 43 60 59
43 44 61 60
44 45 62 61
45 46 63 62
46 47 64 63
47 48 65 64
48 49 66 65
49 50 67 66
50 51 68 67
52 53 70 69
53 54 71 70
54 55 72 71
55 56 73 72
56 57 74 73
57 58 75 74
58 59 76 75
59 60 77 76
60 61 78 77
61 62 79 78
62 63 80 79
63 64 81 80
64 65 82 81
65 66 83 82
66 67 84 83
67 68 85 84
69 70 87 86
70 71 88 87
71 72 89 88
72 73 90 89
73 74 91 90
74 75 92 91
75 76 93 92
76 77 94 93
77 78 95 94
78 79 96 95
79 80 97 96
80 81 98 97
81 82 99 98
82 83 100 99
83 84 101 100
84 85 102 101
86 87 104 103
87 88 105 104
88 89 106 105
89 90 107 106
90 91 108 107
91 92 109 108
92 93 110 109
93 94 111 110
94 95 112 111
95 96 113 112
96 97 114 113
97 98 115 114
98 99 116 115
99 100 117 116
100 101 118 117
101 102 119 118
103 104 121 120
104 105 122 121
105 106 123 122
106 107 124 123
107 108 125 124
108 109 126 125
109 110 127 126
110 111 128 127
111 112 129 128
112 113 130 129
113 114 131 130
114 115 132 131
115 116 133 132
116 117 134 133
117 118 135 134
118 119 136 135
120 121 138 137
121 122 139 138
122 123 140 139
123 124 141 140
124 125 142 141
125 126 143 142
126 127 144 143
127 128 145 144
128 129 146 145
129 130 147 146
130 131 148 147
131 132 149 148
132 133 150 149
133 134 151 150
134 135 152 151
135 136 153 152
