TITLE = "Solution"
VARIABLES = x, y, u, v, psiu, psiv, t, stress
ZONE T="structure" N=153 E=128 F=FEBLOCK ET=QUADRILATERAL VARLOCATION=([7,8]=cellcentered)
0.000000e+00
1.250000e+01
2.500000e+01
3.750000e+01
5.000000e+01
6.250000e+01
7.500000e+01
8.750000e+01
1.000000e+02
1.125000e+02
1.250000e+02
1.375000e+02
1.500000e+02
1.625000e+02
1.750000e+02
1.875000e+02
2.000000e+02
0.000000e+00
1.250000e+01
2.500000e+01
3.750000e+01
5.000000e+01
6.250000e+01
7.500000e+01
8.750000e+01
1.000000e+02
1.125000e+02
1.250000e+02
1.375000e+02
1.500000e+02
1.625000e+02
1.750000e+02
1.875000e+02
2.000000e+02
0.000000e+00
1.250000e+01
2.500000e+01
3.750000e+01
5.000000e+01
6.250000e+01
7.500000e+01
8.750000e+01
1.000000e+02
1.125000e+02
1.250000e+02
1.375000e+02
1.500000e+02
1.625000e+02
1.750000e+02
1.875000e+02
2.000000e+02
0.000000e+00
1.250000e+01
2.500000e+01
3.750000e+01
5.000000e+01
6.250000e+01
7.500000e+01
8.750000e+01
1.000000e+02
1.125000e+02
1.250000e+02
1.375000e+02
1.500000e+02
1.625000e+02
1.750000e+02
1.875000e+02
2.000000e+02
0.000000e+00
1.250000e+01
2.500000e+01
3.750000e+01
5.000000e+01
6.250000e+01
7.500000e+01
8.750000e+01
1.000000e+02
1.125000e+02
1.250000e+02
1.375000e+02
1.500000e+02
1.625000e+02
1.750000e+02
1.875000e+02
2.000000e+02
0.000000e+00
1.250000e+01
2.500000e+01
3.750000e+01
5.000000e+01
6.250000e+01
7.500000e+01
8.750000e+01
1.000000e+02
1.125000e+02
1.250000e+02
1.375000e+02
1.500000e+02
1.625000e+02
1.750000e+02
1.875000e+02
2.000000e+02
0.000000e+00
1.250000e+01
2.500000e+01
3.750000e+01
5.000000e+01
6.250000e+01
7.500000e+01
8.750000e+01
1.000000e+02
1.125000e+02
1.250000e+02
1.375000e+02
1.500000e+02
1.625000e+02
1.750000e+02
1.875000e+02
2.000000e+02
0.000000e+00
1.250000e+01
2.500000e+01
3.750000e+01
5.000000e+01
6.250000e+01
7.500000e+01
8.750000e+01
1.000000e+02
1.125000e+02
1.250000e+02
1.375000e+02
1.500000e+02
1.625000e+02
1.750000e+02
1.875000e+02
2.000000e+02
0.000000e+00
1.250000e+01
2.500000e+01
3.750000e+01
5.000000e+01
6.250000e+01
7.500000e+01
8.750000e+01
1.000000e+02
1.125000e+02
1.250000e+02
1.375000e+02
1.500000e+02
1.625000e+02
1.750000e+02
1.875000e+02
2.000000e+02
0.000000e+00
0.000000e+00
0.000000e+00
0.000000e+00
0.000000e+00
0.000000e+00
0.000000e+00
0.000000e+00
0.000000e+00
0.000000e+00
0.000000e+00
0.000000e+00
0.000000e+00
0.000000e+00
0.000000e+00
0.000000e+00
0.000000e+00
1.250000e+01
1.250000e+01
1.250000e+01
1.250000e+01
1.250000e+01
1.250000e+01
1.250000e+01
1.250000e+01
1.250000e+01
1.250000e+01
1.250000e+01
1.250000e+01
1.250000e+01
1.250000e+01
1.250000e+01
1.250000e+01
1.250000e+01
2.500000e+01
2.500000e+01
2.500000e+01
2.500000e+01
2.500000e+01
2.500000e+01
2.500000e+01
2.500000e+01
2.500000e+01
2.500000e+01
2.500000e+01
2.500000e+01
2.500000e+01
2.500000e+01
2.500000e+01
2.500000e+01
2.500000e+01
3.750000e+01
3.750000e+01
3.750000e+01
3.750000e+01
3.750000e+01
3.750000e+01
3.750000e+01
3.750000e+01
3.750000e+01
3.750000e+01
3.750000e+01
3.750000e+01
3.750000e+01
3.750000e+01
3.750000e+01
3.750000e+01
3.750000e+01
5.000000e+01
5.000000e+01
5.000000e+01
5.000000e+01
5.000000e+01
5.000000e+01
5.000000e+01
5.000000e+01
5.000000e+01
5.000000e+01
5.000000e+01
5.000000e+01
5.000000e+01
5.000000e+01
5.000000e+01
5.000000e+01
5.000000e+01
6.250000e+01
6.250000e+01
6.250000e+01
6.250000e+01
6.250000e+01
6.250000e+01
6.250000e+01
6.250000e+01
6.250000e+01
6.250000e+01
6.250000e+01
6.250000e+01
6.250000e+01
6.250000e+01
6.250000e+01
6.250000e+01
6.250000e+01
7.500000e+01
7.500000e+01
7.500000e+01
7.500000e+01
7.500000e+01
7.500000e+01
7.500000e+01
7.500000e+01
7.500000e+01
7.500000e+01
7.500000e+01
7.500000e+01
7.500000e+01
7.500000e+01
7.500000e+01
7.500000e+01
7.500000e+01
8.750000e+01
8.750000e+01
8.750000e+01
8.750000e+01
8.750000e+01
8.750000e+01
8.750000e+01
8.750000e+01
8.750000e+01
8.750000e+01
8.750000e+01
8.750000e+01
8.750000e+01
8.750000e+01
8.750000e+01
8.750000e+01
8.750000e+01
1.000000e+02
1.000000e+02
1.000000e+02
1.000000e+02
1.000000e+02
1.000000e+02
1.000000e+02
1.000000e+02
1.000000e+02
1.000000e+02
1.000000e+02
1.000000e+02
1.000000e+02
1.000000e+02
1.000000e+02
1.000000e+02
1.000000e+02
0.000000e+00
-1.004668e+00
-1.807544e+00
-2.552422e+00
-3.311751e+00
-4.082214e+00
-4.850178e+00
-5.614446e+00
-6.396317e+00
-7.277377e+00
-8.289583e+00
-9.174394e+00
-9.895327e+00
-1.065424e+01
-1.146149e+01
-1.221124e+01
-1.267590e+01
0.000000e+00
-5.576131e-01
-1.145725e+00
-1.700380e+00
-2.258251e+00
-2.816857e+00
-3.373674e+00
-3.923634e+00
-4.489204e+00
-5.134799e+00
-5.886989e+00
-6.538767e+00
-7.036436e+00
-7.476511e+00
-7.803612e+00
-7.872051e+00
-8.034680e+00
0.000000e+00
-3.045298e-01
-6.380415e-01
-9.948413e-01
-1.353886e+00
-1.710116e+00
-2.070453e+00
-2.438957e+00
-2.828920e+00
-3.266867e+00
-3.731315e+00
-4.101183e+00
-4.357093e+00
-4.507274e+00
-4.516346e+00
-4.462634e+00
-4.651574e+00
0.000000e+00
-1.284142e-01
-2.833256e-01
-4.532025e-01
-6.237923e-01
-7.897302e-01
-9.571516e-01
-1.137527e+00
-1.336216e+00
-1.551101e+00
-1.737965e+00
-1.858331e+00
-1.909946e+00
-1.889656e+00
-1.813845e+00
-1.806404e+00
-1.974020e+00
0.000000e+00
-5.386890e-03
-8.480675e-03
-6.739192e-03
8.135985e-04
1.357109e-02
3.151380e-02
5.474375e-02
8.462679e-02
1.275808e-01
1.857494e-01
2.603525e-01
3.535691e-01
4.587653e-01
5.411574e-01
5.259795e-01
4.045249e-01
0.000000e+00
1.228429e-01
2.706659e-01
4.356896e-01
6.097677e-01
7.915127e-01
9.883737e-01
1.217494e+00
1.486748e+00
1.792502e+00
2.076644e+00
2.304459e+00
2.500724e+00
2.673487e+00
2.782824e+00
2.788540e+00
2.725497e+00
0.000000e+00
3.039518e-01
6.300849e-01
9.722606e-01
1.314819e+00
1.661722e+00
2.031255e+00
2.442435e+00
2.915888e+00
3.460260e+00
3.982895e+00
4.376412e+00
4.669626e+00
4.897272e+00
5.047715e+00
5.094388e+00
5.080773e+00
0.000000e+00
5.595946e-01
1.141509e+00
1.677458e+00
2.204965e+00
2.733196e+00
3.281284e+00
3.867912e+00
4.525926e+00
5.275812e+00
6.025514e+00
6.608711e+00
7.025750e+00
7.316082e+00
7.492804e+00
7.563193e+00
7.576157e+00
0.000000e+00
1.010152e+00
1.806567e+00
2.530790e+00
3.253360e+00
3.986359e+00
4.747213e+00
5.560908e+00
6.453291e+00
7.434863e+00
8.371941e+00
9.119596e+00
9.654945e+00
9.998579e+00
1.015617e+01
1.018158e+01
1.017724e+01
0.000000e+00
-6.139643e-01
-1.249830e+00
-2.081882e+00
-3.106720e+00
-4.339492e+00
-5.793283e+00
-7.478838e+00
-9.414795e+00
-1.163071e+01
-1.409970e+01
-1.671886e+01
-1.951954e+01
-2.256292e+01
-2.591975e+01
-2.982824e+01
-3.536848e+01
0.000000e+00
-3.869825e-01
-1.057763e+00
-1.887778e+00
-2.908864e+00
-4.139031e+00
-5.593837e+00
-7.278870e+00
-9.201958e+00
-1.138810e+01
-1.385891e+01
-1.652463e+01
-1.934774e+01
-2.239655e+01
-2.578732e+01
-2.971259e+01
-3.442841e+01
0.000000e+00
-3.133704e-01
-9.341943e-01
-1.759593e+00
-2.774833e+00
-3.998343e+00
-5.448040e+00
-7.131323e+00
-9.049897e+00
-1.123971e+01
-1.373083e+01
-1.642118e+01
-1.926976e+01
-2.234711e+01
-2.576548e+01
-2.949688e+01
-3.298498e+01
0.000000e+00
-3.074182e-01
-8.925862e-01
-1.697254e+00
-2.702792e+00
-3.915410e+00
-5.351137e+00
-7.029760e+00
-8.960082e+00
-1.118722e+01
-1.370390e+01
-1.640576e+01
-1.926495e+01
-2.234613e+01
-2.568600e+01
-2.905094e+01
-3.195371e+01
0.000000e+00
-3.178453e-01
-8.906579e-01
-1.685894e+00
-2.685045e+00
-3.891070e+00
-5.315811e+00
-6.990483e+00
-8.938248e+00
-1.120328e+01
-1.374214e+01
-1.644316e+01
-1.929602e+01
-2.234026e+01
-2.554227e+01
-2.861603e+01
-3.123594e+01
0.000000e+00
-3.113925e-01
-9.016061e-01
-1.709256e+00
-2.715606e+00
-3.924601e+00
-5.352336e+00
-7.031057e+00
-8.984743e+00
-1.126538e+01
-1.381549e+01
-1.651255e+01
-1.934709e+01
-2.233592e+01
-2.540788e+01
-2.831308e+01
-3.085509e+01
0.000000e+00
-3.185405e-01
-9.459537e-01
-1.776595e+00
-2.793725e+00
-4.012579e+00
-5.453796e+00
-7.141061e+00
-9.100561e+00
-1.137598e+01
-1.391926e+01
-1.660817e+01
-1.942254e+01
-2.235872e+01
-2.532262e+01
-2.812658e+01
-3.068512e+01
0.000000e+00
-3.914640e-01
-1.067402e+00
-1.901476e+00
-2.923967e+00
-4.150922e+00
-5.603905e+00
-7.304824e+00
-9.281687e+00
-1.155551e+01
-1.407441e+01
-1.673660e+01
-1.952593e+01
-2.241427e+01
-2.530250e+01
-2.805265e+01
-3.065860e+01
0.000000e+00
-6.182019e-01
-1.255868e+00
-2.088060e+00
-3.111603e+00
-4.344290e+00
-5.807620e+00
-7.526420e+00
-9.528157e+00
-1.181325e+01
-1.429624e+01
-1.690741e+01
-1.964883e+01
-2.248574e+01
-2.531869e+01
-2.803957e+01
-3.066297e+01


0.000000e+00
2.324803e-05
4.139174e-05
5.298068e-05
6.148287e-05
6.972439e-05
7.854214e-05
8.649908e-05
9.242576e-05
9.557733e-05
9.429877e-05
8.931667e-05
8.379737e-05
7.872511e-05
7.557410e-05
7.497544e-05
7.565835e-05
0.000000e+00
1.769850e-05
3.399503e-05
4.180174e-05
4.718315e-05
5.314013e-05
6.029147e-05
6.699839e-05
7.200656e-05
7.444554e-05
7.234834e-05
6.698252e-05
6.169579e-05
5.677058e-05
5.290128e-05
5.194335e-05
5.284055e-05
0.000000e+00
1.235993e-05
2.267362e-05
2.797345e-05
3.193922e-05
3.599979e-05
4.070321e-05
4.494059e-05
4.762669e-05
4.785870e-05
4.492459e-05
4.069545e-05
3.687214e-05
3.354403e-05
3.106392e-05
3.060581e-05
3.168730e-05
0.000000e+00
5.236114e-06
8.665154e-06
1.164700e-05
1.350232e-05
1.502693e-05
1.663544e-05
1.797489e-05
1.794928e-05
1.643993e-05
1.398985e-05
1.180582e-05
1.009135e-05
8.928344e-06
8.348195e-06
8.519139e-06
9.011341e-06
0.000000e+00
-1.561698e-06
-3.312933e-06
-5.085763e-06
-6.973838e-06
-8.886152e-06
-1.049367e-05
-1.306903e-05
-1.479368e-05
-1.653853e-05
-1.718233e-05
-1.733765e-05
-1.732956e-05
-1.693437e-05
-1.627768e-05
-1.633980e-05
-1.681232e-05
0.000000e+00
-9.542687e-06
-1.586923e-05
-2.191992e-05
-2.639238e-05
-3.061603e-05
-3.757991e-05
-4.663478e-05
-5.167678e-05
-5.012884e-05
-4.723619e-05
-4.502786e-05
-4.384316e-05
-4.260868e-05
-4.163011e-05
-4.174845e-05
-4.243549e-05
0.000000e+00
-1.922282e-05
-3.331425e-05
-3.885606e-05
-4.281899e-05
-4.704276e-05
-5.737980e-05
-7.348471e-05
-8.383355e-05
-8.247856e-05
-7.619603e-05
-7.139955e-05
-6.934207e-05
-6.814730e-05
-6.702010e-05
-6.691990e-05
-6.725194e-05
0.000000e+00
-2.619370e-05
-4.692570e-05
-5.343718e-05
-5.706715e-05
-6.202821e-05
-7.277929e-05
-8.969080e-05
-1.033165e-04
-1.066240e-04
-1.023479e-04
-9.728197e-05
-9.477897e-05
-9.330176e-05
-9.183322e-05
-9.111363e-05
-9.097056e-05
0.000000e+00
-3.149722e-05
-5.300174e-05
-6.394990e-05
-7.143004e-05
-7.954671e-05
-9.177287e-05
-1.053205e-04
-1.171334e-04
-1.224468e-04
-1.237925e-04
-1.219694e-04
-1.198423e-04
-1.170889e-04
-1.147148e-04
-1.136822e-04
-1.134227e-04
0.000000e+00
1.900792e-05
2.929364e-05
4.022007e-05
5.512855e-05
7.358745e-05
9.430738e-05
1.160419e-04
1.380986e-04
1.591616e-04
1.779303e-04
1.967153e-04
2.162453e-04
2.350264e-04
2.550697e-04
2.791299e-04
3.043631e-04
0.000000e+00
1.007829e-05
2.329106e-05
3.634125e-05
5.180179e-05
6.976749e-05
9.027585e-05
1.126206e-04
1.358027e-04
1.585469e-04
1.793955e-04
1.991938e-04
2.188331e-04
2.374391e-04
2.559056e-04
2.780811e-04
3.026075e-04
0.000000e+00
4.821594e-06
1.819067e-05
3.339374e-05
4.931258e-05
6.702038e-05
8.739567e-05
1.103700e-04
1.348181e-04
1.590040e-04
1.809742e-04
2.013917e-04
2.212156e-04
2.397344e-04
2.564738e-04
2.762614e-04
2.998189e-04
0.000000e+00
3.400586e-06
1.583517e-05
3.165418e-05
4.814466e-05
6.590307e-05
8.624300e-05
1.100005e-04
1.357001e-04
1.603146e-04
1.820708e-04
2.022974e-04
2.224265e-04
2.412734e-04
2.576254e-04
2.752641e-04
2.975057e-04
0.000000e+00
3.414937e-06
1.581566e-05
3.177287e-05
4.848101e-05
6.566938e-05
8.529347e-05
1.101798e-04
1.372479e-04
1.617126e-04
1.822060e-04
2.021277e-04
2.226786e-04
2.423819e-04
2.596370e-04
2.768864e-04
2.977195e-04
0.000000e+00
3.545387e-06
1.768842e-05
3.419971e-05
5.028134e-05
6.604389e-05
8.512328e-05
1.108204e-04
1.388291e-04
1.622673e-04
1.815585e-04
2.013431e-04
2.226839e-04
2.431414e-04
2.612749e-04
2.792911e-04
2.995379e-04
0.000000e+00
5.722798e-06
2.159532e-05
3.729702e-05
5.231307e-05
6.829310e-05
8.881216e-05
1.152567e-04
1.411301e-04
1.616077e-04
1.799948e-04
2.001720e-04
2.224457e-04
2.432950e-04
2.618637e-04
2.808498e-04
3.014919e-04
0.000000e+00
1.328746e-05
2.796215e-05
4.011273e-05
5.471065e-05
7.242192e-05
9.618290e-05
1.230831e-04
1.452590e-04
1.614619e-04
1.778904e-04
1.985077e-04
2.215166e-04
2.427009e-04
2.617184e-04
2.814586e-04
3.025073e-04
0.000000e+00
2.553246e-05
3.468526e-05
4.355528e-05
5.766826e-05
7.705466e-05
1.033206e-04
1.302472e-04
1.500293e-04
1.621542e-04
1.766652e-04
1.968575e-04
2.203840e-04
2.416515e-04
2.612867e-04
2.815216e-04
3.027442e-04


2.607351e+00
2.514840e+00
2.527930e+00
2.759378e+00
3.000679e+00
3.253560e+00
3.636638e+00
4.314385e+00
6.035991e+00
7.972769e+00
8.000616e+00
7.172719e+00
7.482973e+00
7.349628e+00
5.859726e+00
4.555040e+00
3.357771e+00
3.367218e+00
3.419135e+00
3.601589e+00
3.874250e+00
4.389576e+00
4.733280e+00
5.382381e+00
6.677225e+00
8.028595e+00
7.892980e+00
7.147125e+00
7.355902e+00
7.536085e+00
6.324181e+00
5.058940e+00
5.112539e+00
5.124663e+00
4.865522e+00
4.772626e+00
5.065190e+00
5.688719e+00
6.432820e+00
6.964469e+00
7.757331e+00
8.176818e+00
7.527835e+00
6.871233e+00
7.057826e+00
7.770375e+00
7.541662e+00
6.656845e+00
6.899285e+00
6.468712e+00
5.613513e+00
5.164407e+00
5.322411e+00
6.075112e+00
7.142904e+00
8.064421e+00
8.457212e+00
8.017059e+00
7.101246e+00
6.490020e+00
7.080108e+00
8.012460e+00
8.330685e+00
7.846483e+00
6.830306e+00
6.293089e+00
5.475726e+00
5.120638e+00
5.405917e+00
6.205603e+00
7.363131e+00
8.277013e+00
8.729020e+00
8.147792e+00
6.979002e+00
6.850647e+00
7.493152e+00
8.423532e+00
8.477202e+00
7.693331e+00
5.005847e+00
4.912590e+00
4.633654e+00
4.698296e+00
5.159208e+00
5.961585e+00
6.874761e+00
7.745524e+00
8.662308e+00
8.480112e+00
7.390886e+00
7.046203e+00
7.865573e+00
8.429437e+00
8.122764e+00
7.503695e+00
3.381556e+00
3.308000e+00
3.316209e+00
3.489972e+00
3.855629e+00
4.549073e+00
5.278604e+00
6.478661e+00
7.856910e+00
8.429741e+00
7.680578e+00
7.183447e+00
7.308397e+00
7.501066e+00
7.094929e+00
6.464081e+00
2.607419e+00
2.476842e+00
2.434690e+00
2.617239e+00
2.890823e+00
3.352471e+00
4.139089e+00
5.421318e+00
7.055208e+00
7.969743e+00
7.832530e+00
7.301505e+00
6.923946e+00
6.650500e+00
5.922463e+00
5.094482e+00


-1.148704e+00
-7.015248e-01
-4.777888e-01
-5.174035e-01
-5.465708e-01
-5.408467e-01
-5.231647e-01
-6.124284e-01
-1.076793e+00
-1.742781e+00
-1.065591e+00
-3.002604e-01
-2.439717e-01
-1.073051e-01
4.057026e-01
-8.056795e-01
3.078054e-01
1.739103e-01
2.079112e-01
2.017082e-01
1.951320e-01
1.686086e-01
1.283904e-01
1.211606e-02
-2.908648e-01
-5.950643e-01
-1.095260e-01
3.975568e-01
6.175033e-01
7.865702e-01
5.970591e-01
-2.092935e+00
7.680581e-01
6.263366e-01
5.587245e-01
5.432108e-01
5.241971e-01
4.721868e-01
3.826854e-01
2.645503e-01
7.515382e-02
-3.786609e-03
2.845709e-01
5.213307e-01
5.235587e-01
1.907571e-01
-4.034590e-01
-1.290127e+00
8.873571e-01
7.556806e-01
6.782003e-01
6.407880e-01
6.003159e-01
5.381390e-01
4.448733e-01
3.558079e-01
2.257432e-01
1.666543e-01
2.775666e-01
3.113009e-01
1.012332e-01
-3.487777e-01
-4.634869e-01
-3.898003e-01
8.913758e-01
7.619071e-01
6.763060e-01
6.193751e-01
5.579510e-01
4.763943e-01
3.559195e-01
2.317336e-01
4.831215e-02
-1.595299e-02
8.453292e-02
5.697260e-02
-1.441998e-01
-3.267606e-01
7.041186e-04
4.684133e-01
7.710595e-01
6.367058e-01
5.693904e-01
5.329776e-01
4.739737e-01
3.627820e-01
1.715843e-01
-9.425452e-02
-4.440307e-01
-4.515345e-01
-1.056536e-01
1.979186e-02
-4.440622e-02
1.337446e-02
4.336855e-01
8.180242e-01
3.033476e-01
1.926152e-01
2.561717e-01
2.661859e-01
2.401634e-01
1.349364e-01
-6.937413e-02
-4.313225e-01
-9.342438e-01
-9.495320e-01
-2.752928e-01
1.566718e-01
3.396976e-01
5.337988e-01
8.215371e-01
9.761114e-01
-1.170137e+00
-6.709863e-01
-3.903658e-01
-3.689467e-01
-3.966184e-01
-5.097572e-01
-7.372777e-01
-1.145286e+00
-1.687954e+00
-1.557271e+00
-6.064704e-01
1.478954e-01
5.827428e-01
8.496675e-01
9.785486e-01
9.998286e-01
1 2 19 18
2 3 20 19
3 4 21 20
4 5 22 21
5 6 23 22
6 7 24 23
7 8 25 24
8 9 26 25
9 10 27 26
10 11 28 27
11 12 29 28
12 13 30 29
13 14 31 30
14 15 32 31
15 16 33 32
16 17 34 33
18 19 36 35
19 20 37 36
20 21 38 37
21 22 39 38
22 23 40 39
23 24 41 40
24 25 42 41
25 26 43 42
26 27 44 43
27 28 45 44
28 29 46 45
29 30 47 46
30 31 48 47
31 32 49 48
32 33 50 49
33 34 51 50
35 36 53 52
36 37 54 53
37 38 55 54
38 39 56 55
39 40 57 56
40 41 58 57
41 42 59 58
42 43 60 59
43 44 61 60
44 45 62 61
45 46 63 62
46 47 64 63
47 48 65 64
48 49 66 65
49 50 67 66
50 51 68 67
52 53 70 69
53 54 71 70
54 55 72 71
55 56 73 72
56 57 74 73
57 58 75 74
58 59 76 75
59 60 77 76
60 61 78 77
61 62 79 78
62 63 80 79
63 64 81 80
64 65 82 81
65 66 83 82
66 67 84 83
67 68 85 84
69 70 87 86
70 71 88 87
71 72 89 88
72 73 90 89
73 74 91 90
74 75 92 91
75 76 93 92
76 77 94 93
77 78 95 94
78 79 96 95
79 80 97 96
80 81 98 97
81 82 99 98
82 83 100 99
83 84 101 100
84 85 102 101
86 87 104 103
87 88 105 104
88 89 106 105
89 90 107 106
90 91 108 107
91 92 109 108
92 93 110 109
93 94 111 110
94 95 112 111
95 96 113 112
96 97 114 113
97 98 115 114
98 99 116 115
99 100 117 116
100 101 118 117
101 102 119 118
103 104 121 120
104 105 122 121
105 106 123 122
106 107 124 123
107 108 125 124
108 109 126 125
109 110 127 126
110 111 128 127
111 112 129 128
112 113 130 129
113 114 131 130
114 115 132 131
115 116 133 132
116 117 134 133
117 118 135 134
118 119 136 135
120 121 138 137
121 122 139 138
122 123 140 139
123 124 141 140
124 125 142 141
125 126 143 142
126 127 144 143
127 128 145 144
128 129 146 145
129 130 147 146
130 131 148 147
131 132 149 148
132 133 150 149
133 134 151 150
134 135 152 151
135 136 153 152
