TITLE = "Solution"
VARIABLES = x, y, u, v, psiu, psiv, t, stress
ZONE T="structure" N=153 E=128 F=FEBLOCK ET=QUADRILATERAL VARLOCATION=([7,8]=cellcentered)
0.000000e+00
1.250000e+01
2.500000e+01
3.750000e+01
5.000000e+01
6.250000e+01
7.500000e+01
8.750000e+01
1.000000e+02
1.125000e+02
1.250000e+02
1.375000e+02
1.500000e+02
1.625000e+02
1.750000e+02
1.875000e+02
2.000000e+02
0.000000e+00
1.250000e+01
2.500000e+01
3.750000e+01
5.000000e+01
6.250000e+01
7.500000e+01
8.750000e+01
1.000000e+02
1.125000e+02
1.250000e+02
1.375000e+02
1.500000e+02
1.625000e+02
1.750000e+02
1.875000e+02
2.000000e+02
0.000000e+00
1.250000e+01
2.500000e+01
3.750000e+01
5.000000e+01
6.250000e+01
7.500000e+01
8.750000e+01
1.000000e+02
1.125000e+02
1.250000e+02
1.375000e+02
1.500000e+02
1.625000e+02
1.750000e+02
1.875000e+02
2.000000e+02
0.000000e+00
1.250000e+01
2.500000e+01
3.750000e+01
5.000000e+01
6.250000e+01
7.500000e+01
8.750000e+01
1.000000e+02
1.125000e+02
1.250000e+02
1.375000e+02
1.500000e+02
1.625000e+02
1.750000e+02
1.875000e+02
2.000000e+02
0.000000e+00
1.250000e+01
2.500000e+01
3.750000e+01
5.000000e+01
6.250000e+01
7.500000e+01
8.750000e+01
1.000000e+02
1.125000e+02
1.250000e+02
1.375000e+02
1.500000e+02
1.625000e+02
1.750000e+02
1.875000e+02
2.000000e+02
0.000000e+00
1.250000e+01
2.500000e+01
3.750000e+01
5.000000e+01
6.250000e+01
7.500000e+01
8.750000e+01
1.000000e+02
1.125000e+02
1.250000e+02
1.375000e+02
1.500000e+02
1.625000e+02
1.750000e+02
1.875000e+02
2.000000e+02
0.000000e+00
1.250000e+01
2.500000e+01
3.750000e+01
5.000000e+01
6.250000e+01
7.500000e+01
8.750000e+01
1.000000e+02
1.125000e+02
1.250000e+02
1.375000e+02
1.500000e+02
1.625000e+02
1.750000e+02
1.875000e+02
2.000000e+02
0.000000e+00
1.250000e+01
2.500000e+01
3.750000e+01
5.000000e+01
6.250000e+01
7.500000e+01
8.750000e+01
1.000000e+02
1.125000e+02
1.250000e+02
1.375000e+02
1.500000e+02
1.625000e+02
1.750000e+02
1.875000e+02
2.000000e+02
0.000000e+00
1.250000e+01
2.500000e+01
3.750000e+01
5.000000e+01
6.250000e+01
7.500000e+01
8.750000e+01
1.000000e+02
1.125000e+02
1.250000e+02
1.375000e+02
1.500000e+02
1.625000e+02
1.750000e+02
1.875000e+02
2.000000e+02
0.000000e+00
0.000000e+00
0.000000e+00
0.000000e+00
0.000000e+00
0.000000e+00
0.000000e+00
0.000000e+00
0.000000e+00
0.000000e+00
0.000000e+00
0.000000e+00
0.000000e+00
0.000000e+00
0.000000e+00
0.000000e+00
0.000000e+00
1.250000e+01
1.250000e+01
1.250000e+01
1.250000e+01
1.250000e+01
1.250000e+01
1.250000e+01
1.250000e+01
1.250000e+01
1.250000e+01
1.250000e+01
1.250000e+01
1.250000e+01
1.250000e+01
1.250000e+01
1.250000e+01
1.250000e+01
2.500000e+01
2.500000e+01
2.500000e+01
2.500000e+01
2.500000e+01
2.500000e+01
2.500000e+01
2.500000e+01
2.500000e+01
2.500000e+01
2.500000e+01
2.500000e+01
2.500000e+01
2.500000e+01
2.500000e+01
2.500000e+01
2.500000e+01
3.750000e+01
3.750000e+01
3.750000e+01
3.750000e+01
3.750000e+01
3.750000e+01
3.750000e+01
3.750000e+01
3.750000e+01
3.750000e+01
3.750000e+01
3.750000e+01
3.750000e+01
3.750000e+01
3.750000e+01
3.750000e+01
3.750000e+01
5.000000e+01
5.000000e+01
5.000000e+01
5.000000e+01
5.000000e+01
5.000000e+01
5.000000e+01
5.000000e+01
5.000000e+01
5.000000e+01
5.000000e+01
5.000000e+01
5.000000e+01
5.000000e+01
5.000000e+01
5.000000e+01
5.000000e+01
6.250000e+01
6.250000e+01
6.250000e+01
6.250000e+01
6.250000e+01
6.250000e+01
6.250000e+01
6.250000e+01
6.250000e+01
6.250000e+01
6.250000e+01
6.250000e+01
6.250000e+01
6.250000e+01
6.250000e+01
6.250000e+01
6.250000e+01
7.500000e+01
7.500000e+01
7.500000e+01
7.500000e+01
7.500000e+01
7.500000e+01
7.500000e+01
7.500000e+01
7.500000e+01
7.500000e+01
7.500000e+01
7.500000e+01
7.500000e+01
7.500000e+01
7.500000e+01
7.500000e+01
7.500000e+01
8.750000e+01
8.750000e+01
8.750000e+01
8.750000e+01
8.750000e+01
8.750000e+01
8.750000e+01
8.750000e+01
8.750000e+01
8.750000e+01
8.750000e+01
8.750000e+01
8.750000e+01
8.750000e+01
8.750000e+01
8.750000e+01
8.750000e+01
1.000000e+02
1.000000e+02
1.000000e+02
1.000000e+02
1.000000e+02
1.000000e+02
1.000000e+02
1.000000e+02
1.000000e+02
1.000000e+02
1.000000e+02
1.000000e+02
1.000000e+02
1.000000e+02
1.000000e+02
1.000000e+02
1.000000e+02
0.000000e+00
-1.222625e-01
-2.251239e-01
-3.197700e-01
-4.079125e-01
-4.893654e-01
-5.639539e-01
-6.316198e-01
-6.924616e-01
-7.467593e-01
-7.950513e-01
-8.382813e-01
-8.780729e-01
-9.172313e-01
-9.605940e-01
-1.013849e+00
-1.053811e+00
0.000000e+00
-7.301277e-02
-1.516698e-01
-2.243049e-01
-2.912245e-01
-3.526831e-01
-4.088080e-01
-4.596743e-01
-5.053736e-01
-5.460465e-01
-5.818995e-01
-6.131910e-01
-6.401206e-01
-6.624111e-01
-6.781337e-01
-6.815799e-01
-6.939351e-01
0.000000e+00
-4.565996e-02
-9.388836e-02
-1.420036e-01
-1.869179e-01
-2.281559e-01
-2.656839e-01
-2.995442e-01
-3.297454e-01
-3.562367e-01
-3.788758e-01
-3.973463e-01
-4.109897e-01
-4.186058e-01
-4.188172e-01
-4.157748e-01
-4.283762e-01
0.000000e+00
-2.203827e-02
-4.536879e-02
-6.884679e-02
-9.129616e-02
-1.119736e-01
-1.307157e-01
-1.474679e-01
-1.621344e-01
-1.745241e-01
-1.843205e-01
-1.910611e-01
-1.941942e-01
-1.934622e-01
-1.904550e-01
-1.912773e-01
-2.006604e-01
0.000000e+00
-2.030363e-05
-4.615629e-05
-7.192414e-05
-8.560048e-05
-6.041074e-05
5.678927e-05
3.613604e-04
1.009755e-03
2.235019e-03
4.341190e-03
7.633705e-03
1.219509e-02
1.734970e-02
2.091034e-02
1.993379e-02
1.372139e-02
0.000000e+00
2.200703e-02
4.529626e-02
6.873078e-02
9.115186e-02
1.118562e-01
1.307612e-01
1.479593e-01
1.635997e-01
1.778636e-01
1.909375e-01
2.029181e-01
2.135974e-01
2.221609e-01
2.271984e-01
2.275980e-01
2.244448e-01
0.000000e+00
4.565483e-02
9.387273e-02
1.419725e-01
1.868694e-01
2.280954e-01
2.656337e-01
2.995605e-01
3.299461e-01
3.568443e-01
3.802786e-01
4.001917e-01
4.163546e-01
4.283043e-01
4.354769e-01
4.378058e-01
4.370705e-01
0.000000e+00
7.304272e-02
1.517349e-01
2.244087e-01
2.913638e-01
3.528322e-01
4.088917e-01
4.595214e-01
5.046441e-01
5.441294e-01
5.777900e-01
6.053931e-01
6.267178e-01
6.416937e-01
6.506271e-01
6.544367e-01
6.551364e-01
0.000000e+00
1.223126e-01
2.252560e-01
3.200175e-01
4.083079e-01
4.899216e-01
5.646173e-01
6.321776e-01
6.923767e-01
7.449014e-01
7.892963e-01
8.249694e-01
8.513348e-01
8.681852e-01
8.763343e-01
8.783457e-01
8.783069e-01
0.000000e+00
-7.400891e-02
-1.452884e-01
-2.376502e-01
-3.510052e-01
-4.851415e-01
-6.385902e-01
-8.096339e-01
-9.964540e-01
-1.197256e+00
-1.410382e+00
-1.634512e+00
-1.869106e+00
-2.115417e+00
-2.379834e+00
-2.682377e+00
-3.117078e+00
0.000000e+00
-4.556128e-02
-1.199175e-01
-2.134244e-01
-3.286319e-01
-4.645986e-01
-6.199062e-01
-7.927953e-01
-9.814260e-01
-1.183971e+00
-1.398728e+00
-1.624315e+00
-1.860110e+00
-2.107331e+00
-2.371645e+00
-2.672352e+00
-3.040750e+00
0.000000e+00
-3.438012e-02
-1.023291e-01
-1.961811e-01
-3.124777e-01
-4.498439e-01
-6.065789e-01
-7.809065e-01
-9.709994e-01
-1.175056e+00
-1.391407e+00
-1.618718e+00
-1.856426e+00
-2.105548e+00
-2.370090e+00
-2.655020e+00
-2.930772e+00
0.000000e+00
-2.962648e-02
-9.358431e-02
-1.860598e-01
-3.027768e-01
-4.409884e-01
-5.987005e-01
-7.740694e-01
-9.653021e-01
-1.170646e+00
-1.388467e+00
-1.617407e+00
-1.856632e+00
-2.106029e+00
-2.365279e+00
-2.627089e+00
-2.868276e+00
0.000000e+00
-2.825708e-02
-9.093773e-02
-1.828310e-01
-2.995797e-01
-4.381353e-01
-5.963009e-01
-7.722343e-01
-9.641768e-01
-1.170405e+00
-1.389247e+00
-1.619130e+00
-1.858568e+00
-2.105795e+00
-2.357110e+00
-2.603919e+00
-2.831291e+00
0.000000e+00
-2.960890e-02
-9.357179e-02
-1.860820e-01
-3.028862e-01
-4.412766e-01
-5.993170e-01
-7.752370e-01
-9.673151e-01
-1.173819e+00
-1.392970e+00
-1.622864e+00
-1.861277e+00
-2.105175e+00
-2.349872e+00
-2.588218e+00
-2.810737e+00
0.000000e+00
-3.435143e-02
-1.023084e-01
-1.962183e-01
-3.126621e-01
-4.503315e-01
-6.076241e-01
-7.828891e-01
-9.744222e-01
-1.180461e+00
-1.399108e+00
-1.628165e+00
-1.864873e+00
-2.105575e+00
-2.345529e+00
-2.579300e+00
-2.801671e+00
0.000000e+00
-4.553438e-02
-1.198994e-01
-2.134738e-01
-3.288533e-01
-4.651720e-01
-6.211229e-01
-7.950868e-01
-9.853579e-01
-1.190142e+00
-1.407462e+00
-1.634965e+00
-1.869656e+00
-2.107679e+00
-2.344441e+00
-2.575612e+00
-2.799542e+00
0.000000e+00
-7.399779e-02
-1.452900e-01
-2.377265e-01
-3.512618e-01
-4.857543e-01
-6.398352e-01
-8.119054e-01
-1.000241e+00
-1.203017e+00
-1.418207e+00
-1.643408e+00
-1.875603e+00
-2.111021e+00
-2.345365e+00
-2.574938e+00
-2.799576e+00


0.000000e+00
9.469585e-09
1.923967e-08
2.811886e-08
3.607556e-08
4.307388e-08
4.914664e-08
5.437265e-08
5.884370e-08
6.265442e-08
6.589829e-08
6.866345e-08
7.102322e-08
7.301774e-08
7.467729e-08
7.618102e-08
7.760546e-08
0.000000e+00
5.816233e-09
1.393236e-08
2.090249e-08
2.693154e-08
3.215811e-08
3.665472e-08
4.049771e-08
4.375953e-08
4.650435e-08
4.878553e-08
5.064217e-08
5.209983e-08
5.321533e-08
5.424193e-08
5.559535e-08
5.709803e-08
0.000000e+00
3.986964e-09
9.218922e-09
1.386715e-08
1.792776e-08
2.141192e-08
2.437450e-08
2.687603e-08
2.896727e-08
3.068698e-08
3.206341e-08
3.312038e-08
3.389877e-08
3.450825e-08
3.518285e-08
3.619851e-08
3.744422e-08
0.000000e+00
2.044847e-09
4.507111e-09
6.805500e-09
8.851790e-09
1.059858e-08
1.206511e-08
1.328212e-08
1.427365e-08
1.505634e-08
1.564409e-08
1.605813e-08
1.634467e-08
1.659426e-08
1.693932e-08
1.753569e-08
1.837854e-08
0.000000e+00
-2.571414e-13
-1.668245e-12
-5.653871e-12
-1.421081e-11
-3.044957e-11
-5.883806e-11
-1.052150e-10
-1.761287e-10
-2.768868e-10
-4.073960e-10
-5.554371e-10
-6.897031e-10
-7.594517e-10
-6.979209e-10
-4.160280e-10
1.143947e-10
0.000000e+00
-2.045134e-09
-4.509533e-09
-6.814266e-09
-8.874254e-09
-1.064715e-08
-1.215959e-08
-1.345222e-08
-1.456065e-08
-1.551199e-08
-1.632310e-08
-1.699838e-08
-1.752910e-08
-1.789686e-08
-1.807825e-08
-1.803069e-08
-1.775088e-08
0.000000e+00
-3.986912e-09
-9.220218e-09
-1.387166e-08
-1.793850e-08
-2.143406e-08
-2.441643e-08
-2.695079e-08
-2.909395e-08
-3.089172e-08
-3.237839e-08
-3.357644e-08
-3.449707e-08
-3.514433e-08
-3.552597e-08
-3.565328e-08
-3.557118e-08
0.000000e+00
-5.817746e-09
-1.393652e-08
-2.090789e-08
-2.693585e-08
-3.215703e-08
-3.664083e-08
-4.045922e-08
-4.367940e-08
-4.636039e-08
-4.855260e-08
-5.029753e-08
-5.162775e-08
-5.256942e-08
-5.315461e-08
-5.344052e-08
-5.350730e-08
0.000000e+00
-9.477690e-09
-1.925379e-08
-2.813600e-08
-3.609006e-08
-4.307433e-08
-4.911189e-08
-5.426693e-08
-5.861096e-08
-6.221303e-08
-6.513741e-08
-6.744414e-08
-6.918997e-08
-7.042926e-08
-7.121788e-08
-7.161487e-08
-7.173788e-08
0.000000e+00
8.586592e-09
1.616889e-08
2.445694e-08
3.436569e-08
4.599668e-08
5.921233e-08
7.381924e-08
8.961749e-08
1.064295e-07
1.241117e-07
1.425705e-07
1.618106e-07
1.820573e-07
2.038242e-07
2.269369e-07
2.500211e-07
0.000000e+00
4.940384e-09
1.232706e-08
2.086980e-08
3.118630e-08
4.323879e-08
5.685238e-08
7.181592e-08
8.793009e-08
1.050203e-07
1.229462e-07
1.416153e-07
1.610106e-07
1.812325e-07
2.024987e-07
2.250078e-07
2.477659e-07
0.000000e+00
2.855936e-09
9.278373e-09
1.798945e-08
2.863184e-08
4.103751e-08
5.497915e-08
7.023760e-08
8.661619e-08
1.039449e-07
1.220851e-07
1.409355e-07
1.604332e-07
1.805284e-07
2.012070e-07
2.229201e-07
2.449856e-07
0.000000e+00
1.932301e-09
7.752232e-09
1.638353e-08
2.719002e-08
3.979860e-08
5.393310e-08
6.936751e-08
8.590765e-08
1.033855e-07
1.216580e-07
1.406045e-07
1.601125e-07
1.800491e-07
2.003235e-07
2.212796e-07
2.423562e-07
0.000000e+00
1.681480e-09
7.310097e-09
1.587922e-08
2.673150e-08
3.941087e-08
5.361703e-08
6.912066e-08
8.572794e-08
1.032685e-07
1.215904e-07
1.405525e-07
1.600097e-07
1.797945e-07
1.997610e-07
2.200869e-07
2.402126e-07
0.000000e+00
1.934160e-09
7.757409e-09
1.639516e-08
2.721235e-08
3.983768e-08
5.399679e-08
6.946449e-08
8.604452e-08
1.035606e-07
1.218500e-07
1.407560e-07
1.601150e-07
1.797425e-07
1.994583e-07
2.192843e-07
2.387332e-07
0.000000e+00
2.858912e-09
9.287460e-09
1.801016e-08
2.867162e-08
4.110717e-08
5.509267e-08
7.041042e-08
8.686018e-08
1.042576e-07
1.224295e-07
1.412067e-07
1.604148e-07
1.798623e-07
1.993537e-07
2.188175e-07
2.378653e-07
0.000000e+00
4.944325e-09
1.233934e-08
2.089652e-08
3.123655e-08
4.332546e-08
5.699197e-08
7.202619e-08
8.822386e-08
1.053924e-07
1.233488e-07
1.419137e-07
1.609045e-07
1.801300e-07
1.994031e-07
2.186104e-07
2.374668e-07
0.000000e+00
8.593050e-09
1.618422e-08
2.448726e-08
3.441984e-08
4.608675e-08
5.935308e-08
7.402527e-08
8.989642e-08
1.067682e-07
1.244506e-07
1.427570e-07
1.614995e-07
1.804891e-07
1.995532e-07
2.185781e-07
2.373556e-07


3.572373e-01
3.572370e-01
3.572386e-01
3.572417e-01
3.572446e-01
3.572470e-01
3.572490e-01
3.572507e-01
3.572521e-01
3.572532e-01
3.572540e-01
3.572547e-01
3.572550e-01
3.572546e-01
3.572535e-01
3.572527e-01
3.572413e-01
3.572409e-01
3.572421e-01
3.572445e-01
3.572468e-01
3.572487e-01
3.572503e-01
3.572517e-01
3.572528e-01
3.572537e-01
3.572544e-01
3.572549e-01
3.572550e-01
3.572545e-01
3.572535e-01
3.572527e-01
3.572478e-01
3.572474e-01
3.572479e-01
3.572492e-01
3.572504e-01
3.572516e-01
3.572525e-01
3.572533e-01
3.572539e-01
3.572544e-01
3.572548e-01
3.572551e-01
3.572551e-01
3.572546e-01
3.572537e-01
3.572531e-01
3.572524e-01
3.572521e-01
3.572521e-01
3.572525e-01
3.572530e-01
3.572536e-01
3.572540e-01
3.572544e-01
3.572547e-01
3.572549e-01
3.572551e-01
3.572551e-01
3.572551e-01
3.572548e-01
3.572543e-01
3.572541e-01
3.572524e-01
3.572521e-01
3.572521e-01
3.572525e-01
3.572530e-01
3.572535e-01
3.572540e-01
3.572543e-01
3.572546e-01
3.572548e-01
3.572549e-01
3.572550e-01
3.572551e-01
3.572550e-01
3.572550e-01
3.572550e-01
3.572478e-01
3.572474e-01
3.572479e-01
3.572491e-01
3.572504e-01
3.572515e-01
3.572524e-01
3.572532e-01
3.572538e-01
3.572542e-01
3.572546e-01
3.572549e-01
3.572551e-01
3.572554e-01
3.572555e-01
3.572557e-01
3.572413e-01
3.572409e-01
3.572420e-01
3.572444e-01
3.572467e-01
3.572487e-01
3.572503e-01
3.572516e-01
3.572527e-01
3.572536e-01
3.572543e-01
3.572548e-01
3.572553e-01
3.572557e-01
3.572559e-01
3.572561e-01
3.572373e-01
3.572370e-01
3.572386e-01
3.572417e-01
3.572446e-01
3.572470e-01
3.572491e-01
3.572507e-01
3.572521e-01
3.572533e-01
3.572542e-01
3.572549e-01
3.572555e-01
3.572559e-01
3.572562e-01
3.572563e-01


9.663693e-01
9.711384e-01
9.755500e-01
9.789459e-01
9.820981e-01
9.850048e-01
9.876530e-01
9.900117e-01
9.920561e-01
9.937660e-01
9.951257e-01
9.961217e-01
9.967408e-01
9.969617e-01
9.971211e-01
9.872920e-01
9.872769e-01
9.850915e-01
9.864974e-01
9.883324e-01
9.900433e-01
9.915983e-01
9.930060e-01
9.942810e-01
9.954355e-01
9.964813e-01
9.974302e-01
9.982894e-01
9.990390e-01
9.995299e-01
9.982886e-01
9.814631e-01
9.955793e-01
9.943240e-01
9.939851e-01
9.944617e-01
9.950887e-01
9.956961e-01
9.962600e-01
9.967928e-01
9.973089e-01
9.978122e-01
9.982822e-01
9.986461e-01
9.987221e-01
9.980668e-01
9.956894e-01
9.914135e-01
9.991003e-01
9.981848e-01
9.976192e-01
9.974757e-01
9.975330e-01
9.976291e-01
9.977251e-01
9.978189e-01
9.979109e-01
9.979880e-01
9.980095e-01
9.978949e-01
9.975314e-01
9.968789e-01
9.963256e-01
9.961856e-01
9.991036e-01
9.981896e-01
9.976235e-01
9.974748e-01
9.975187e-01
9.975881e-01
9.976362e-01
9.976524e-01
9.976302e-01
9.975594e-01
9.974274e-01
9.972371e-01
9.970560e-01
9.970920e-01
9.976040e-01
9.984904e-01
9.955856e-01
9.943336e-01
9.939943e-01
9.944618e-01
9.950644e-01
9.956209e-01
9.960918e-01
9.964703e-01
9.967537e-01
9.969446e-01
9.970653e-01
9.971833e-01
9.974312e-01
9.979509e-01
9.987315e-01
9.995387e-01
9.872757e-01
9.850906e-01
9.864955e-01
9.883272e-01
9.900299e-01
9.915677e-01
9.929426e-01
9.941600e-01
9.952208e-01
9.961276e-01
9.968953e-01
9.975657e-01
9.982113e-01
9.988882e-01
9.995212e-01
9.999199e-01
9.663464e-01
9.711025e-01
9.755060e-01
9.788965e-01
9.820537e-01
9.849887e-01
9.877077e-01
9.902045e-01
9.924795e-01
9.945283e-01
9.963264e-01
9.978182e-01
9.989279e-01
9.996126e-01
9.999241e-01
9.999984e-01
1 2 19 18
2 3 20 19
3 4 21 20
4 5 22 21
5 6 23 22
6 7 24 23
7 8 25 24
8 9 26 25
9 10 27 26
10 11 28 27
11 12 29 28
12 13 30 29
13 14 31 30
14 15 32 31
15 16 33 32
16 17 34 33
18 19 36 35
19 20 37 36
20 21 38 37
21 22 39 38
22 23 40 39
23 24 41 40
24 25 42 41
25 26 43 42
26 27 44 43
27 28 45 44
28 29 46 45
29 30 47 46
30 31 48 47
31 32 49 48
32 33 50 49
33 34 51 50
35 36 53 52
36 37 54 53
37 38 55 54
38 39 56 55
39 40 57 56
40 41 58 57
41 42 59 58
42 43 60 59
43 44 61 60
44 45 62 61
45 46 63 62
46 47 64 63
47 48 65 64
48 49 66 65
49 50 67 66
50 51 68 67
52 53 70 69
53 54 71 70
54 55 72 71
55 56 73 72
56 57 74 73
57 58 75 74
58 59 76 75
59 60 77 76
60 61 78 77
61 62 79 78
62 63 80 79
63 64 81 80
64 65 82 81
65 66 83 82
66 67 84 83
67 68 85 84
69 70 87 86
70 71 88 87
71 72 89 88
72 73 90 89
73 74 91 90
74 75 92 91
75 76 93 92
76 77 94 93
77 78 95 94
78 79 96 95
79 80 97 96
80 81 98 97
81 82 99 98
82 83 100 99
83 84 101 100
84 85 102 101
86 87 104 103
87 88 105 104
88 89 106 105
89 90 107 106
90 91 108 107
91 92 109 108
92 93 110 109
93 94 111 110
94 95 112 111
95 96 113 112
96 97 114 113
97 98 115 114
98 99 116 115
99 100 117 116
100 101 118 117
101 102 119 118
103 104 121 120
104 105 122 121
105 106 123 122
106 107 124 123
107 108 125 124
108 109 126 125
109 110 127 126
110 111 128 127
111 112 129 128
112 113 130 129
113 114 131 130
114 115 132 131
115 116 133 132
116 117 134 133
117 118 135 134
118 119 136 135
120 121 138 137
121 122 139 138
122 123 140 139
123 124 141 140
124 125 142 141
125 126 143 142
126 127 144 143
127 128 145 144
128 129 146 145
129 130 147 146
130 131 148 147
131 132 149 148
132 133 150 149
133 134 151 150
134 135 152 151
135 136 153 152
