TITLE = "Solution"
VARIABLES = x, y, u, v, psiu, psiv, t, stress
ZONE T="structure" N=153 E=128 F=FEBLOCK ET=QUADRILATERAL VARLOCATION=([7,8]=cellcentered)
0.000000e+00
1.250000e+01
2.500000e+01
3.750000e+01
5.000000e+01
6.250000e+01
7.500000e+01
8.750000e+01
1.000000e+02
1.125000e+02
1.250000e+02
1.375000e+02
1.500000e+02
1.625000e+02
1.750000e+02
1.875000e+02
2.000000e+02
0.000000e+00
1.250000e+01
2.500000e+01
3.750000e+01
5.000000e+01
6.250000e+01
7.500000e+01
8.750000e+01
1.000000e+02
1.125000e+02
1.250000e+02
1.375000e+02
1.500000e+02
1.625000e+02
1.750000e+02
1.875000e+02
2.000000e+02
0.000000e+00
1.250000e+01
2.500000e+01
3.750000e+01
5.000000e+01
6.250000e+01
7.500000e+01
8.750000e+01
1.000000e+02
1.125000e+02
1.250000e+02
1.375000e+02
1.500000e+02
1.625000e+02
1.750000e+02
1.875000e+02
2.000000e+02
0.000000e+00
1.250000e+01
2.500000e+01
3.750000e+01
5.000000e+01
6.250000e+01
7.500000e+01
8.750000e+01
1.000000e+02
1.125000e+02
1.250000e+02
1.375000e+02
1.500000e+02
1.625000e+02
1.750000e+02
1.875000e+02
2.000000e+02
0.000000e+00
1.250000e+01
2.500000e+01
3.750000e+01
5.000000e+01
6.250000e+01
7.500000e+01
8.750000e+01
1.000000e+02
1.125000e+02
1.250000e+02
1.375000e+02
1.500000e+02
1.625000e+02
1.750000e+02
1.875000e+02
2.000000e+02
0.000000e+00
1.250000e+01
2.500000e+01
3.750000e+01
5.000000e+01
6.250000e+01
7.500000e+01
8.750000e+01
1.000000e+02
1.125000e+02
1.250000e+02
1.375000e+02
1.500000e+02
1.625000e+02
1.750000e+02
1.875000e+02
2.000000e+02
0.000000e+00
1.250000e+01
2.500000e+01
3.750000e+01
5.000000e+01
6.250000e+01
7.500000e+01
8.750000e+01
1.000000e+02
1.125000e+02
1.250000e+02
1.375000e+02
1.500000e+02
1.625000e+02
1.750000e+02
1.875000e+02
2.000000e+02
0.000000e+00
1.250000e+01
2.500000e+01
3.750000e+01
5.000000e+01
6.250000e+01
7.500000e+01
8.750000e+01
1.000000e+02
1.125000e+02
1.250000e+02
1.375000e+02
1.500000e+02
1.625000e+02
1.750000e+02
1.875000e+02
2.000000e+02
0.000000e+00
1.250000e+01
2.500000e+01
3.750000e+01
5.000000e+01
6.250000e+01
7.500000e+01
8.750000e+01
1.000000e+02
1.125000e+02
1.250000e+02
1.375000e+02
1.500000e+02
1.625000e+02
1.750000e+02
1.875000e+02
2.000000e+02
0.000000e+00
0.000000e+00
0.000000e+00
0.000000e+00
0.000000e+00
0.000000e+00
0.000000e+00
0.000000e+00
0.000000e+00
0.000000e+00
0.000000e+00
0.000000e+00
0.000000e+00
0.000000e+00
0.000000e+00
0.000000e+00
0.000000e+00
1.250000e+01
1.250000e+01
1.250000e+01
1.250000e+01
1.250000e+01
1.250000e+01
1.250000e+01
1.250000e+01
1.250000e+01
1.250000e+01
1.250000e+01
1.250000e+01
1.250000e+01
1.250000e+01
1.250000e+01
1.250000e+01
1.250000e+01
2.500000e+01
2.500000e+01
2.500000e+01
2.500000e+01
2.500000e+01
2.500000e+01
2.500000e+01
2.500000e+01
2.500000e+01
2.500000e+01
2.500000e+01
2.500000e+01
2.500000e+01
2.500000e+01
2.500000e+01
2.500000e+01
2.500000e+01
3.750000e+01
3.750000e+01
3.750000e+01
3.750000e+01
3.750000e+01
3.750000e+01
3.750000e+01
3.750000e+01
3.750000e+01
3.750000e+01
3.750000e+01
3.750000e+01
3.750000e+01
3.750000e+01
3.750000e+01
3.750000e+01
3.750000e+01
5.000000e+01
5.000000e+01
5.000000e+01
5.000000e+01
5.000000e+01
5.000000e+01
5.000000e+01
5.000000e+01
5.000000e+01
5.000000e+01
5.000000e+01
5.000000e+01
5.000000e+01
5.000000e+01
5.000000e+01
5.000000e+01
5.000000e+01
6.250000e+01
6.250000e+01
6.250000e+01
6.250000e+01
6.250000e+01
6.250000e+01
6.250000e+01
6.250000e+01
6.250000e+01
6.250000e+01
6.250000e+01
6.250000e+01
6.250000e+01
6.250000e+01
6.250000e+01
6.250000e+01
6.250000e+01
7.500000e+01
7.500000e+01
7.500000e+01
7.500000e+01
7.500000e+01
7.500000e+01
7.500000e+01
7.500000e+01
7.500000e+01
7.500000e+01
7.500000e+01
7.500000e+01
7.500000e+01
7.500000e+01
7.500000e+01
7.500000e+01
7.500000e+01
8.750000e+01
8.750000e+01
8.750000e+01
8.750000e+01
8.750000e+01
8.750000e+01
8.750000e+01
8.750000e+01
8.750000e+01
8.750000e+01
8.750000e+01
8.750000e+01
8.750000e+01
8.750000e+01
8.750000e+01
8.750000e+01
8.750000e+01
1.000000e+02
1.000000e+02
1.000000e+02
1.000000e+02
1.000000e+02
1.000000e+02
1.000000e+02
1.000000e+02
1.000000e+02
1.000000e+02
1.000000e+02
1.000000e+02
1.000000e+02
1.000000e+02
1.000000e+02
1.000000e+02
1.000000e+02
0.000000e+00
-8.765539e-01
-1.560777e+00
-2.240220e+00
-2.926454e+00
-3.587547e+00
-4.251745e+00
-4.918386e+00
-5.577205e+00
-6.235318e+00
-6.900286e+00
-7.568404e+00
-8.229264e+00
-8.880466e+00
-9.528537e+00
-1.017724e+01
-1.061116e+01
0.000000e+00
-4.576093e-01
-9.494841e-01
-1.447694e+00
-1.961664e+00
-2.456647e+00
-2.953110e+00
-3.451859e+00
-3.943843e+00
-4.432574e+00
-4.921356e+00
-5.402641e+00
-5.857604e+00
-6.254675e+00
-6.526477e+00
-6.590624e+00
-6.743030e+00
0.000000e+00
-2.342248e-01
-5.027862e-01
-8.193671e-01
-1.156631e+00
-1.489043e+00
-1.825324e+00
-2.161805e+00
-2.492584e+00
-2.816245e+00
-3.127348e+00
-3.411752e+00
-3.645602e+00
-3.794570e+00
-3.822841e+00
-3.793668e+00
-3.946464e+00
0.000000e+00
-1.005379e-01
-2.177293e-01
-3.654070e-01
-5.260471e-01
-6.935214e-01
-8.633781e-01
-1.031174e+00
-1.193521e+00
-1.345349e+00
-1.477705e+00
-1.577019e+00
-1.626601e+00
-1.613992e+00
-1.560301e+00
-1.563756e+00
-1.691671e+00
0.000000e+00
-8.840425e-04
-1.756600e-03
-2.424361e-03
-2.568183e-03
-1.643715e-03
1.309236e-03
7.807692e-03
2.017063e-02
4.215890e-02
7.944757e-02
1.385727e-01
2.228871e-01
3.225936e-01
3.985726e-01
3.963596e-01
3.001806e-01
0.000000e+00
9.901384e-02
2.146928e-01
3.610858e-01
5.212003e-01
6.898338e-01
8.640949e-01
1.041971e+00
1.223974e+00
1.411249e+00
1.603555e+00
1.797487e+00
1.983714e+00
2.142199e+00
2.241740e+00
2.256979e+00
2.204465e+00
0.000000e+00
2.334083e-01
5.010924e-01
8.167182e-01
1.153083e+00
1.485259e+00
1.822502e+00
2.161717e+00
2.499173e+00
2.836841e+00
3.170755e+00
3.486242e+00
3.762206e+00
3.976294e+00
4.108881e+00
4.153608e+00
4.141524e+00
0.000000e+00
4.576374e-01
9.494926e-01
1.447470e+00
1.960763e+00
2.454889e+00
2.949704e+00
3.444305e+00
3.930002e+00
4.410649e+00
4.880813e+00
5.313487e+00
5.673828e+00
5.937563e+00
6.098067e+00
6.167036e+00
6.179871e+00
0.000000e+00
8.772532e-01
1.562440e+00
2.242936e+00
2.929948e+00
3.591683e+00
4.255456e+00
4.917987e+00
5.568637e+00
6.212167e+00
6.836528e+00
7.397537e+00
7.841631e+00
8.135119e+00
8.278394e+00
8.312961e+00
8.311762e+00
0.000000e+00
-5.422502e-01
-1.139205e+00
-1.931813e+00
-2.892909e+00
-4.020884e+00
-5.325656e+00
-6.804260e+00
-8.455146e+00
-1.028153e+01
-1.228470e+01
-1.446237e+01
-1.681252e+01
-1.934187e+01
-2.210503e+01
-2.531363e+01
-3.002684e+01
0.000000e+00
-3.470497e-01
-9.715922e-01
-1.753727e+00
-2.717422e+00
-3.847880e+00
-5.151608e+00
-6.631380e+00
-8.284255e+00
-1.011110e+01
-1.211507e+01
-1.429714e+01
-1.665721e+01
-1.920721e+01
-2.199706e+01
-2.520959e+01
-2.913286e+01
0.000000e+00
-2.932371e-01
-8.634219e-01
-1.637354e+00
-2.595371e+00
-3.725070e+00
-5.029302e+00
-6.510750e+00
-8.166879e+00
-9.998847e+00
-1.201112e+01
-1.420668e+01
-1.658835e+01
-1.917117e+01
-2.198479e+01
-2.502458e+01
-2.789585e+01
0.000000e+00
-2.992395e-01
-8.284422e-01
-1.580525e+00
-2.527151e+00
-3.653939e+00
-4.959445e+00
-6.443617e+00
-8.105405e+00
-9.947393e+00
-1.197439e+01
-1.418865e+01
-1.658974e+01
-1.917799e+01
-2.192821e+01
-2.468720e+01
-2.711411e+01
0.000000e+00
-3.057758e-01
-8.247854e-01
-1.566009e+00
-2.507512e+00
-3.633629e+00
-4.941558e+00
-6.429677e+00
-8.097980e+00
-9.950387e+00
-1.199145e+01
-1.421972e+01
-1.662384e+01
-1.917746e+01
-2.180713e+01
-2.435166e+01
-2.655690e+01
0.000000e+00
-2.991408e-01
-8.289200e-01
-1.582349e+00
-2.531258e+00
-3.661753e+00
-4.973072e+00
-6.465344e+00
-8.138274e+00
-9.996772e+00
-1.204568e+01
-1.427835e+01
-1.666940e+01
-1.916860e+01
-2.168752e+01
-2.409156e+01
-2.620849e+01
0.000000e+00
-2.930519e-01
-8.641492e-01
-1.640209e+00
-2.601916e+00
-3.737647e+00
-5.051389e+00
-6.546247e+00
-8.220989e+00
-1.008072e+01
-1.213035e+01
-1.435840e+01
-1.672780e+01
-1.917497e+01
-2.161122e+01
-2.393439e+01
-2.604927e+01
0.000000e+00
-3.468703e-01
-9.723719e-01
-1.756813e+00
-2.724656e+00
-3.861894e+00
-5.176165e+00
-6.671033e+00
-8.345293e+00
-1.020365e+01
-1.224863e+01
-1.446410e+01
-1.680734e+01
-1.921106e+01
-2.159116e+01
-2.386797e+01
-2.601257e+01
0.000000e+00
-5.422573e-01
-1.140161e+00
-1.935053e+00
-2.900313e+00
-4.035094e+00
-5.350004e+00
-6.843086e+00
-8.515057e+00
-1.037105e+01
-1.240710e+01
-1.460073e+01
-1.690901e+01
-1.926967e+01
-2.160719e+01
-2.385558e+01
-2.601367e+01


0.000000e+00
1.271510e-05
2.326675e-05
3.424357e-05
4.718288e-05
5.955045e-05
7.118832e-05
8.271840e-05
9.381925e-05
1.041836e-04
1.133511e-04
1.204169e-04
1.251963e-04
1.285936e-04
1.313701e-04
1.344837e-04
1.380976e-04
0.000000e+00
9.373028e-06
1.875900e-05
2.692223e-05
3.708506e-05
4.669768e-05
5.529585e-05
6.388338e-05
7.222522e-05
7.987329e-05
8.636992e-05
9.088078e-05
9.308328e-05
9.348814e-05
9.362681e-05
9.617617e-05
1.003828e-04
0.000000e+00
7.294166e-06
1.379975e-05
1.941031e-05
2.627999e-05
3.259680e-05
3.826476e-05
4.385682e-05
4.911238e-05
5.371107e-05
5.735109e-05
5.960246e-05
6.037525e-05
6.019486e-05
6.035805e-05
6.280720e-05
6.695151e-05
0.000000e+00
3.714865e-06
6.511033e-06
9.887586e-06
1.312631e-05
1.609762e-05
1.900357e-05
2.171511e-05
2.409492e-05
2.606892e-05
2.750472e-05
2.832046e-05
2.867060e-05
2.896049e-05
2.968770e-05
3.158237e-05
3.453313e-05
0.000000e+00
-1.834356e-08
-3.892375e-08
-5.970744e-08
-8.019695e-08
-1.003375e-07
-1.235826e-07
-1.587895e-07
-2.355279e-07
-4.098026e-07
-7.029218e-07
-1.012618e-06
-1.147755e-06
-8.902267e-07
-2.750538e-07
5.787504e-07
1.966012e-06
0.000000e+00
-3.747520e-06
-6.577724e-06
-9.993142e-06
-1.326660e-05
-1.627334e-05
-1.920852e-05
-2.193798e-05
-2.437900e-05
-2.653670e-05
-2.828667e-05
-2.952790e-05
-3.019268e-05
-3.035909e-05
-3.036456e-05
-3.034318e-05
-2.993197e-05
0.000000e+00
-7.310980e-06
-1.383920e-05
-1.947650e-05
-2.638420e-05
-3.274167e-05
-3.841436e-05
-4.398996e-05
-4.924877e-05
-5.369886e-05
-5.692684e-05
-5.885622e-05
-5.987355e-05
-6.041635e-05
-6.077691e-05
-6.100937e-05
-6.096160e-05
0.000000e+00
-9.372495e-06
-1.876216e-05
-2.692761e-05
-3.710849e-05
-4.675032e-05
-5.532605e-05
-6.388946e-05
-7.230448e-05
-7.971115e-05
-8.517203e-05
-8.840050e-05
-9.011347e-05
-9.108076e-05
-9.166539e-05
-9.196438e-05
-9.202029e-05
0.000000e+00
-1.270973e-05
-2.324325e-05
-3.419151e-05
-4.709795e-05
-5.943823e-05
-7.100681e-05
-8.246522e-05
-9.360273e-05
-1.037567e-04
-1.118365e-04
-1.172680e-04
-1.204950e-04
-1.222610e-04
-1.231113e-04
-1.233975e-04
-1.234356e-04
0.000000e+00
1.086384e-05
1.818965e-05
2.813074e-05
4.136459e-05
5.655357e-05
7.479253e-05
9.641035e-05
1.207611e-04
1.475276e-04
1.762283e-04
2.062368e-04
2.375994e-04
2.712126e-04
3.099846e-04
3.550481e-04
4.006537e-04
0.000000e+00
5.946432e-06
1.381732e-05
2.287694e-05
3.560430e-05
5.120573e-05
6.968384e-05
9.136378e-05
1.159808e-04
1.432321e-04
1.727745e-04
2.039827e-04
2.364304e-04
2.704724e-04
3.073229e-04
3.498352e-04
3.941954e-04
0.000000e+00
2.772484e-06
9.959615e-06
1.896422e-05
3.129282e-05
4.721127e-05
6.603332e-05
8.783613e-05
1.127078e-04
1.404161e-04
1.706068e-04
2.026614e-04
2.359254e-04
2.698544e-04
3.039940e-04
3.429788e-04
3.852330e-04
0.000000e+00
1.647543e-06
8.013671e-06
1.718548e-05
2.957154e-05
4.551293e-05
6.448306e-05
8.646148e-05
1.115174e-04
1.394536e-04
1.698761e-04
2.021530e-04
2.355582e-04
2.691303e-04
3.016022e-04
3.372245e-04
3.764486e-04
0.000000e+00
1.381165e-06
7.430052e-06
1.659201e-05
2.911103e-05
4.499061e-05
6.399283e-05
8.607303e-05
1.112421e-04
1.393159e-04
1.698244e-04
2.020725e-04
2.353004e-04
2.685918e-04
3.008695e-04
3.344293e-04
3.701497e-04
0.000000e+00
1.652923e-06
8.014769e-06
1.717189e-05
2.953553e-05
4.545862e-05
6.441320e-05
8.639573e-05
1.115707e-04
1.397640e-04
1.703651e-04
2.025356e-04
2.354925e-04
2.684712e-04
3.010104e-04
3.337421e-04
3.667696e-04
0.000000e+00
2.781190e-06
9.963203e-06
1.894578e-05
3.123977e-05
4.712771e-05
6.591715e-05
8.771888e-05
1.128031e-04
1.409697e-04
1.715135e-04
2.034618e-04
2.360380e-04
2.687115e-04
3.011710e-04
3.334896e-04
3.653500e-04
0.000000e+00
5.958336e-06
1.382649e-05
2.286832e-05
3.556460e-05
5.112208e-05
6.955287e-05
9.124945e-05
1.160829e-04
1.437241e-04
1.735392e-04
2.047195e-04
2.366980e-04
2.690132e-04
3.012943e-04
3.333445e-04
3.649503e-04
0.000000e+00
1.087717e-05
1.820078e-05
2.812886e-05
4.134100e-05
5.647876e-05
7.465403e-05
9.632187e-05
1.208674e-04
1.477353e-04
1.763272e-04
2.063036e-04
2.374824e-04
2.693716e-04
3.014331e-04
3.333246e-04
3.649055e-04


2.466955e+00
2.357777e+00
2.462562e+00
2.586397e+00
2.688927e+00
2.961089e+00
3.272931e+00
3.620899e+00
4.105058e+00
4.728733e+00
5.385448e+00
5.923970e+00
6.195229e+00
5.929562e+00
5.063822e+00
4.312097e+00
3.728844e+00
3.621795e+00
3.656763e+00
3.715250e+00
3.764372e+00
3.947750e+00
4.162708e+00
4.403634e+00
4.748926e+00
5.203302e+00
5.687775e+00
6.083828e+00
6.246433e+00
5.871403e+00
4.925387e+00
4.099926e+00
5.368188e+00
5.303641e+00
5.296354e+00
5.286474e+00
5.284137e+00
5.355972e+00
5.436784e+00
5.527573e+00
5.669753e+00
5.869226e+00
6.091142e+00
6.274056e+00
6.314982e+00
5.951114e+00
5.138749e+00
4.481557e+00
6.270039e+00
6.238642e+00
6.219612e+00
6.183741e+00
6.168544e+00
6.176126e+00
6.179249e+00
6.179915e+00
6.192899e+00
6.225884e+00
6.275084e+00
6.325664e+00
6.330099e+00
6.133859e+00
5.706988e+00
5.363724e+00
6.269860e+00
6.238203e+00
6.218647e+00
6.181814e+00
6.165220e+00
6.170012e+00
6.166755e+00
6.157872e+00
6.161947e+00
6.186966e+00
6.228200e+00
6.280179e+00
6.326892e+00
6.302237e+00
6.182578e+00
6.078020e+00
5.367332e+00
5.302142e+00
5.293220e+00
5.280663e+00
5.275233e+00
5.340770e+00
5.407463e+00
5.484443e+00
5.626614e+00
5.829512e+00
6.039231e+00
6.214687e+00
6.347990e+00
6.428944e+00
6.453907e+00
6.454134e+00
3.727239e+00
3.619526e+00
3.652570e+00
3.708215e+00
3.755760e+00
3.935641e+00
4.143027e+00
4.395488e+00
4.792224e+00
5.299562e+00
5.782770e+00
6.144285e+00
6.376579e+00
6.513049e+00
6.583886e+00
6.611873e+00
2.465045e+00
2.355646e+00
2.459078e+00
2.581234e+00
2.685384e+00
2.960170e+00
3.276613e+00
3.664554e+00
4.247799e+00
4.966950e+00
5.631318e+00
6.110178e+00
6.399144e+00
6.556281e+00
6.634290e+00
6.666019e+00


-5.662866e-01
-2.236461e-01
-2.160312e-01
-2.627240e-01
-1.752303e-01
-1.853757e-01
-1.963236e-01
-1.690753e-01
-1.627633e-01
-1.765701e-01
-1.644279e-01
-9.022658e-02
4.950395e-02
2.715478e-01
5.469897e-01
-5.855724e-01
5.369489e-01
4.054839e-01
3.381039e-01
2.818816e-01
3.128255e-01
2.958322e-01
2.805526e-01
2.884385e-01
2.941664e-01
3.075347e-01
3.627786e-01
4.850633e-01
6.676453e-01
8.501598e-01
7.489751e-01
-1.265280e+00
8.252349e-01
6.978369e-01
5.793709e-01
5.281854e-01
5.176940e-01
4.980442e-01
4.864121e-01
4.865142e-01
4.918039e-01
5.083267e-01
5.464843e-01
5.999025e-01
6.195011e-01
5.117000e-01
2.095805e-01
-3.257445e-01
8.926087e-01
7.808953e-01
6.585473e-01
5.903053e-01
5.602266e-01
5.445663e-01
5.366666e-01
5.325349e-01
5.240390e-01
5.040439e-01
4.675113e-01
4.011892e-01
2.783945e-01
1.200590e-01
8.592573e-02
1.402209e-01
8.932888e-01
7.816152e-01
6.589049e-01
5.891269e-01
5.556563e-01
5.337042e-01
5.156376e-01
4.949652e-01
4.588056e-01
3.967566e-01
3.081821e-01
2.020623e-01
1.064815e-01
1.046264e-01
2.804637e-01
5.643185e-01
8.268814e-01
6.996509e-01
5.806637e-01
5.269036e-01
5.101387e-01
4.785015e-01
4.468404e-01
4.124427e-01
3.578509e-01
2.838475e-01
2.103906e-01
1.674219e-01
1.962219e-01
3.414223e-01
5.912624e-01
8.544344e-01
5.382393e-01
4.068630e-01
3.394868e-01
2.827430e-01
3.105374e-01
2.880228e-01
2.645271e-01
2.529027e-01
2.193498e-01
1.826895e-01
1.950575e-01
2.820689e-01
4.357838e-01
6.390877e-01
8.439526e-01
9.744760e-01
-5.676087e-01
-2.255607e-01
-2.177493e-01
-2.631924e-01
-1.754076e-01
-1.825430e-01
-1.826360e-01
-1.464024e-01
-1.299140e-01
-8.307189e-02
8.825761e-02
3.754628e-01
6.694030e-01
8.766837e-01
9.758236e-01
9.995271e-01
1 2 19 18
2 3 20 19
3 4 21 20
4 5 22 21
5 6 23 22
6 7 24 23
7 8 25 24
8 9 26 25
9 10 27 26
10 11 28 27
11 12 29 28
12 13 30 29
13 14 31 30
14 15 32 31
15 16 33 32
16 17 34 33
18 19 36 35
19 20 37 36
20 21 38 37
21 22 39 38
22 23 40 39
23 24 41 40
24 25 42 41
25 26 43 42
26 27 44 43
27 28 45 44
28 29 46 45
29 30 47 46
30 31 48 47
31 32 49 48
32 33 50 49
33 34 51 50
35 36 53 52
36 37 54 53
37 38 55 54
38 39 56 55
39 40 57 56
40 41 58 57
41 42 59 58
42 43 60 59
43 44 61 60
44 45 62 61
45 46 63 62
46 47 64 63
47 48 65 64
48 49 66 65
49 50 67 66
50 51 68 67
52 53 70 69
53 54 71 70
54 55 72 71
55 56 73 72
56 57 74 73
57 58 75 74
58 59 76 75
59 60 77 76
60 61 78 77
61 62 79 78
62 63 80 79
63 64 81 80
64 65 82 81
65 66 83 82
66 67 84 83
67 68 85 84
69 70 87 86
70 71 88 87
71 72 89 88
72 73 90 89
73 74 91 90
74 75 92 91
75 76 93 92
76 77 94 93
77 78 95 94
78 79 96 95
79 80 97 96
80 81 98 97
81 82 99 98
82 83 100 99
83 84 101 100
84 85 102 101
86 87 104 103
87 88 105 104
88 89 106 105
89 90 107 106
90 91 108 107
91 92 109 108
92 93 110 109
93 94 111 110
94 95 112 111
95 96 113 112
96 97 114 113
97 98 115 114
98 99 116 115
99 100 117 116
100 101 118 117
101 102 119 118
103 104 121 120
104 105 122 121
105 106 123 122
106 107 124 123
107 108 125 124
108 109 126 125
109 110 127 126
110 111 128 127
111 112 129 128
112 113 130 129
113 114 131 130
114 115 132 131
115 116 133 132
116 117 134 133
117 118 135 134
118 119 136 135
120 121 138 137
121 122 139 138
122 123 140 139
123 124 141 140
124 125 142 141
125 126 143 142
126 127 144 143
127 128 145 144
128 129 146 145
129 130 147 146
130 131 148 147
131 132 149 148
132 133 150 149
133 134 151 150
134 135 152 151
135 136 153 152
