TITLE = "Solution"
VARIABLES = x, y, u, v, psiu, psiv, t, stress
ZONE T="structure" N=153 E=128 F=FEBLOCK ET=QUADRILATERAL VARLOCATION=([7,8]=cellcentered)
0.000000e+00
1.250000e+01
2.500000e+01
3.750000e+01
5.000000e+01
6.250000e+01
7.500000e+01
8.750000e+01
1.000000e+02
1.125000e+02
1.250000e+02
1.375000e+02
1.500000e+02
1.625000e+02
1.750000e+02
1.875000e+02
2.000000e+02
0.000000e+00
1.250000e+01
2.500000e+01
3.750000e+01
5.000000e+01
6.250000e+01
7.500000e+01
8.750000e+01
1.000000e+02
1.125000e+02
1.250000e+02
1.375000e+02
1.500000e+02
1.625000e+02
1.750000e+02
1.875000e+02
2.000000e+02
0.000000e+00
1.250000e+01
2.500000e+01
3.750000e+01
5.000000e+01
6.250000e+01
7.500000e+01
8.750000e+01
1.000000e+02
1.125000e+02
1.250000e+02
1.375000e+02
1.500000e+02
1.625000e+02
1.750000e+02
1.875000e+02
2.000000e+02
0.000000e+00
1.250000e+01
2.500000e+01
3.750000e+01
5.000000e+01
6.250000e+01
7.500000e+01
8.750000e+01
1.000000e+02
1.125000e+02
1.250000e+02
1.375000e+02
1.500000e+02
1.625000e+02
1.750000e+02
1.875000e+02
2.000000e+02
0.000000e+00
1.250000e+01
2.500000e+01
3.750000e+01
5.000000e+01
6.250000e+01
7.500000e+01
8.750000e+01
1.000000e+02
1.125000e+02
1.250000e+02
1.375000e+02
1.500000e+02
1.625000e+02
1.750000e+02
1.875000e+02
2.000000e+02
0.000000e+00
1.250000e+01
2.500000e+01
3.750000e+01
5.000000e+01
6.250000e+01
7.500000e+01
8.750000e+01
1.000000e+02
1.125000e+02
1.250000e+02
1.375000e+02
1.500000e+02
1.625000e+02
1.750000e+02
1.875000e+02
2.000000e+02
0.000000e+00
1.250000e+01
2.500000e+01
3.750000e+01
5.000000e+01
6.250000e+01
7.500000e+01
8.750000e+01
1.000000e+02
1.125000e+02
1.250000e+02
1.375000e+02
1.500000e+02
1.625000e+02
1.750000e+02
1.875000e+02
2.000000e+02
0.000000e+00
1.250000e+01
2.500000e+01
3.750000e+01
5.000000e+01
6.250000e+01
7.500000e+01
8.750000e+01
1.000000e+02
1.125000e+02
1.250000e+02
1.375000e+02
1.500000e+02
1.625000e+02
1.750000e+02
1.875000e+02
2.000000e+02
0.000000e+00
1.250000e+01
2.500000e+01
3.750000e+01
5.000000e+01
6.250000e+01
7.500000e+01
8.750000e+01
1.000000e+02
1.125000e+02
1.250000e+02
1.375000e+02
1.500000e+02
1.625000e+02
1.750000e+02
1.875000e+02
2.000000e+02
0.000000e+00
0.000000e+00
0.000000e+00
0.000000e+00
0.000000e+00
0.000000e+00
0.000000e+00
0.000000e+00
0.000000e+00
0.000000e+00
0.000000e+00
0.000000e+00
0.000000e+00
0.000000e+00
0.000000e+00
0.000000e+00
0.000000e+00
1.250000e+01
1.250000e+01
1.250000e+01
1.250000e+01
1.250000e+01
1.250000e+01
1.250000e+01
1.250000e+01
1.250000e+01
1.250000e+01
1.250000e+01
1.250000e+01
1.250000e+01
1.250000e+01
1.250000e+01
1.250000e+01
1.250000e+01
2.500000e+01
2.500000e+01
2.500000e+01
2.500000e+01
2.500000e+01
2.500000e+01
2.500000e+01
2.500000e+01
2.500000e+01
2.500000e+01
2.500000e+01
2.500000e+01
2.500000e+01
2.500000e+01
2.500000e+01
2.500000e+01
2.500000e+01
3.750000e+01
3.750000e+01
3.750000e+01
3.750000e+01
3.750000e+01
3.750000e+01
3.750000e+01
3.750000e+01
3.750000e+01
3.750000e+01
3.750000e+01
3.750000e+01
3.750000e+01
3.750000e+01
3.750000e+01
3.750000e+01
3.750000e+01
5.000000e+01
5.000000e+01
5.000000e+01
5.000000e+01
5.000000e+01
5.000000e+01
5.000000e+01
5.000000e+01
5.000000e+01
5.000000e+01
5.000000e+01
5.000000e+01
5.000000e+01
5.000000e+01
5.000000e+01
5.000000e+01
5.000000e+01
6.250000e+01
6.250000e+01
6.250000e+01
6.250000e+01
6.250000e+01
6.250000e+01
6.250000e+01
6.250000e+01
6.250000e+01
6.250000e+01
6.250000e+01
6.250000e+01
6.250000e+01
6.250000e+01
6.250000e+01
6.250000e+01
6.250000e+01
7.500000e+01
7.500000e+01
7.500000e+01
7.500000e+01
7.500000e+01
7.500000e+01
7.500000e+01
7.500000e+01
7.500000e+01
7.500000e+01
7.500000e+01
7.500000e+01
7.500000e+01
7.500000e+01
7.500000e+01
7.500000e+01
7.500000e+01
8.750000e+01
8.750000e+01
8.750000e+01
8.750000e+01
8.750000e+01
8.750000e+01
8.750000e+01
8.750000e+01
8.750000e+01
8.750000e+01
8.750000e+01
8.750000e+01
8.750000e+01
8.750000e+01
8.750000e+01
8.750000e+01
8.750000e+01
1.000000e+02
1.000000e+02
1.000000e+02
1.000000e+02
1.000000e+02
1.000000e+02
1.000000e+02
1.000000e+02
1.000000e+02
1.000000e+02
1.000000e+02
1.000000e+02
1.000000e+02
1.000000e+02
1.000000e+02
1.000000e+02
1.000000e+02
0.000000e+00
-9.968611e-01
-1.679818e+00
-2.432864e+00
-3.120052e+00
-3.752871e+00
-4.461747e+00
-5.090034e+00
-5.765926e+00
-6.407260e+00
-7.056616e+00
-7.723529e+00
-8.376628e+00
-9.146650e+00
-1.007509e+01
-1.083267e+01
-1.128383e+01
0.000000e+00
-4.461776e-01
-9.061800e-01
-1.418808e+00
-1.930335e+00
-2.409774e+00
-2.923497e+00
-3.421390e+00
-3.916834e+00
-4.419426e+00
-4.911929e+00
-5.415280e+00
-5.900587e+00
-6.420743e+00
-6.896962e+00
-7.023297e+00
-7.202326e+00
0.000000e+00
-1.455145e-01
-3.475230e-01
-6.375415e-01
-9.746909e-01
-1.298950e+00
-1.651408e+00
-2.008474e+00
-2.351473e+00
-2.714013e+00
-3.052886e+00
-3.388040e+00
-3.683919e+00
-3.923839e+00
-4.034325e+00
-4.033164e+00
-4.181266e+00
0.000000e+00
-7.817975e-02
-1.604210e-01
-3.067990e-01
-4.509348e-01
-6.229990e-01
-8.084814e-01
-9.727254e-01
-1.159707e+00
-1.320702e+00
-1.481587e+00
-1.621210e+00
-1.717036e+00
-1.726635e+00
-1.653427e+00
-1.632489e+00
-1.749606e+00
0.000000e+00
-2.624822e-03
-5.927749e-03
-8.735289e-03
-1.169318e-02
-1.329234e-02
-1.101330e-02
-6.027485e-03
4.048159e-03
2.163235e-02
4.566531e-02
8.899638e-02
1.688467e-01
2.788355e-01
3.957236e-01
4.369920e-01
3.381469e-01
0.000000e+00
7.359881e-02
1.513944e-01
2.910945e-01
4.293286e-01
5.999874e-01
7.846036e-01
9.613733e-01
1.171458e+00
1.362472e+00
1.574187e+00
1.788071e+00
2.013172e+00
2.220427e+00
2.352744e+00
2.383703e+00
2.316941e+00
0.000000e+00
1.439073e-01
3.443878e-01
6.295228e-01
9.613523e-01
1.282099e+00
1.631765e+00
1.993119e+00
2.358056e+00
2.769219e+00
3.150239e+00
3.509422e+00
3.837702e+00
4.116783e+00
4.294061e+00
4.348339e+00
4.324932e+00
0.000000e+00
4.449469e-01
9.088397e-01
1.419667e+00
1.929080e+00
2.410516e+00
2.918097e+00
3.413066e+00
3.901095e+00
4.391668e+00
4.875751e+00
5.348422e+00
5.765829e+00
6.116086e+00
6.335029e+00
6.432040e+00
6.449972e+00
0.000000e+00
9.947433e-01
1.685866e+00
2.442016e+00
3.130332e+00
3.776558e+00
4.481672e+00
5.106819e+00
5.754566e+00
6.328383e+00
6.901557e+00
7.502661e+00
8.019862e+00
8.436417e+00
8.638678e+00
8.691977e+00
8.692692e+00
0.000000e+00
-6.190771e-01
-1.362848e+00
-2.365915e+00
-3.542603e+00
-4.889534e+00
-6.425927e+00
-8.117547e+00
-9.983927e+00
-1.201280e+01
-1.420171e+01
-1.655505e+01
-1.906978e+01
-2.180084e+01
-2.476417e+01
-2.812150e+01
-3.314018e+01
0.000000e+00
-4.162303e-01
-1.194490e+00
-2.179514e+00
-3.373509e+00
-4.715440e+00
-6.248269e+00
-7.949211e+00
-9.807690e+00
-1.184558e+01
-1.402958e+01
-1.638756e+01
-1.889678e+01
-2.160805e+01
-2.462402e+01
-2.803828e+01
-3.208596e+01
0.000000e+00
-3.907885e-01
-1.092677e+00
-2.076149e+00
-3.254392e+00
-4.589168e+00
-6.128550e+00
-7.819382e+00
-9.689320e+00
-1.172439e+01
-1.391956e+01
-1.628870e+01
-1.880823e+01
-2.154452e+01
-2.461353e+01
-2.788794e+01
-3.091855e+01
0.000000e+00
-4.498011e-01
-1.089105e+00
-2.049869e+00
-3.191510e+00
-4.518167e+00
-6.066117e+00
-7.742820e+00
-9.633726e+00
-1.166767e+01
-1.388470e+01
-1.627184e+01
-1.881788e+01
-2.155377e+01
-2.454175e+01
-2.757998e+01
-3.020584e+01
0.000000e+00
-4.563207e-01
-1.111526e+00
-2.034301e+00
-3.175938e+00
-4.507709e+00
-6.042388e+00
-7.742358e+00
-9.626462e+00
-1.168257e+01
-1.391500e+01
-1.630526e+01
-1.885875e+01
-2.155523e+01
-2.438776e+01
-2.720991e+01
-2.959855e+01
0.000000e+00
-4.470219e-01
-1.088438e+00
-2.051769e+00
-3.195213e+00
-4.534726e+00
-6.091388e+00
-7.783095e+00
-9.692384e+00
-1.175081e+01
-1.398846e+01
-1.635817e+01
-1.888628e+01
-2.154599e+01
-2.425221e+01
-2.688520e+01
-2.915468e+01
0.000000e+00
-3.868961e-01
-1.091099e+00
-2.078267e+00
-3.262454e+00
-4.615705e+00
-6.175071e+00
-7.897457e+00
-9.801979e+00
-1.187005e+01
-1.407506e+01
-1.642612e+01
-1.892172e+01
-2.154480e+01
-2.417046e+01
-2.667701e+01
-2.891853e+01
0.000000e+00
-4.125864e-01
-1.192129e+00
-2.181144e+00
-3.382967e+00
-4.742943e+00
-6.302341e+00
-8.040273e+00
-9.942187e+00
-1.200910e+01
-1.418938e+01
-1.652458e+01
-1.899728e+01
-2.158432e+01
-2.415047e+01
-2.658938e+01
-2.885654e+01
0.000000e+00
-6.166847e-01
-1.361585e+00
-2.367466e+00
-3.553518e+00
-4.918361e+00
-6.480239e+00
-8.208323e+00
-1.011347e+01
-1.216400e+01
-1.434451e+01
-1.667156e+01
-1.911958e+01
-2.166625e+01
-2.417549e+01
-2.657467e+01
-2.885512e+01


0.000000e+00
1.533463e-05
2.482676e-05
3.689561e-05
5.244609e-05
6.536432e-05
8.092375e-05
9.490172e-05
1.102102e-04
1.248152e-04
1.406566e-04
1.554112e-04
1.720067e-04
1.877626e-04
1.975246e-04
2.031232e-04
2.101210e-04
0.000000e+00
1.148866e-05
1.982868e-05
2.864319e-05
4.138904e-05
5.234337e-05
6.281565e-05
7.423714e-05
8.446919e-05
9.553393e-05
1.057230e-04
1.156823e-04
1.263225e-04
1.356908e-04
1.373229e-04
1.410493e-04
1.469063e-04
0.000000e+00
9.746190e-06
1.558398e-05
2.140369e-05
3.091561e-05
3.842934e-05
4.483452e-05
5.258214e-05
5.833876e-05
6.491707e-05
7.015584e-05
7.479286e-05
7.872287e-05
8.066138e-05
8.001430e-05
8.247581e-05
8.677669e-05
0.000000e+00
5.448554e-06
7.505067e-06
1.113758e-05
1.589268e-05
1.818192e-05
2.253959e-05
2.477244e-05
2.761129e-05
2.895588e-05
3.079880e-05
2.985074e-05
2.830953e-05
2.649120e-05
2.663365e-05
3.000245e-05
3.571163e-05
0.000000e+00
-9.342910e-08
-2.360569e-07
-4.367721e-07
-6.862164e-07
-9.879175e-07
-1.374095e-06
-1.795250e-06
-2.703022e-06
-4.220439e-06
-7.546526e-06
-1.192032e-05
-1.479216e-05
-1.577556e-05
-1.540889e-05
-1.307347e-05
-8.966834e-06
0.000000e+00
-5.577269e-06
-7.861761e-06
-1.179684e-05
-1.704068e-05
-1.993796e-05
-2.472005e-05
-2.793865e-05
-3.105888e-05
-3.325695e-05
-3.715439e-05
-4.247726e-05
-4.666486e-05
-4.780411e-05
-4.842885e-05
-4.900563e-05
-4.740486e-05
0.000000e+00
-9.756734e-06
-1.560040e-05
-2.154858e-05
-3.150685e-05
-3.923768e-05
-4.617963e-05
-5.427594e-05
-5.947083e-05
-6.422041e-05
-6.862229e-05
-7.330175e-05
-7.721348e-05
-7.998771e-05
-8.217781e-05
-8.420261e-05
-8.497703e-05
0.000000e+00
-1.145233e-05
-1.975659e-05
-2.851006e-05
-4.139943e-05
-5.228326e-05
-6.286416e-05
-7.455149e-05
-8.458452e-05
-9.513587e-05
-1.054613e-04
-1.127613e-04
-1.175647e-04
-1.223577e-04
-1.256779e-04
-1.268883e-04
-1.270193e-04
0.000000e+00
-1.538778e-05
-2.487019e-05
-3.672789e-05
-5.206898e-05
-6.474956e-05
-7.961365e-05
-9.367024e-05
-1.085123e-04
-1.244171e-04
-1.426009e-04
-1.573019e-04
-1.654061e-04
-1.703777e-04
-1.725617e-04
-1.726341e-04
-1.724075e-04
0.000000e+00
1.263718e-05
1.991898e-05
3.198848e-05
4.735519e-05
6.362727e-05
8.503127e-05
1.098380e-04
1.391002e-04
1.729823e-04
2.119833e-04
2.561722e-04
3.068887e-04
3.618405e-04
4.235870e-04
4.942524e-04
5.675116e-04
0.000000e+00
7.724284e-06
1.602993e-05
2.590335e-05
4.096022e-05
5.775019e-05
7.858269e-05
1.038272e-04
1.327215e-04
1.668466e-04
2.057213e-04
2.501004e-04
3.004199e-04
3.569733e-04
4.183506e-04
4.867798e-04
5.569948e-04
0.000000e+00
4.276273e-06
1.205186e-05
2.107822e-05
3.508266e-05
5.279999e-05
7.353984e-05
9.895251e-05
1.279892e-04
1.621453e-04
2.013680e-04
2.460211e-04
2.970296e-04
3.549659e-04
4.142744e-04
4.792942e-04
5.471585e-04
0.000000e+00
2.944581e-06
9.970931e-06
1.892651e-05
3.290197e-05
5.053985e-05
7.184447e-05
9.709506e-05
1.265429e-04
1.600208e-04
1.994856e-04
2.453386e-04
2.971116e-04
3.541204e-04
4.116812e-04
4.713694e-04
5.329421e-04
0.000000e+00
2.439109e-06
9.414081e-06
1.846788e-05
3.236446e-05
5.001139e-05
7.121660e-05
9.674013e-05
1.261380e-04
1.589144e-04
1.983175e-04
2.463370e-04
2.982686e-04
3.544289e-04
4.106614e-04
4.647475e-04
5.166313e-04
0.000000e+00
3.058656e-06
1.014966e-05
1.909187e-05
3.304186e-05
5.056392e-05
7.154270e-05
9.679214e-05
1.259986e-04
1.583537e-04
1.990990e-04
2.489919e-04
3.008573e-04
3.544670e-04
4.105854e-04
4.623527e-04
5.055712e-04
0.000000e+00
4.427493e-06
1.232883e-05
2.137435e-05
3.539016e-05
5.273320e-05
7.304686e-05
9.789061e-05
1.261962e-04
1.595545e-04
2.016522e-04
2.524793e-04
3.042128e-04
3.560325e-04
4.095629e-04
4.597746e-04
5.022609e-04
0.000000e+00
7.846869e-06
1.632479e-05
2.631153e-05
4.131251e-05
5.782660e-05
7.812580e-05
1.025704e-04
1.302760e-04
1.641278e-04
2.060376e-04
2.555144e-04
3.070316e-04
3.579818e-04
4.094606e-04
4.579115e-04
5.027987e-04
0.000000e+00
1.276679e-05
2.019982e-05
3.240194e-05
4.773121e-05
6.370507e-05
8.465953e-05
1.086937e-04
1.366007e-04
1.708921e-04
2.125292e-04
2.591657e-04
3.087871e-04
3.593443e-04
4.096091e-04
4.574379e-04
5.030998e-04


5.694263e+00
6.147543e+00
6.870140e+00
5.961544e+00
5.873637e+00
6.833080e+00
6.631082e+00
6.571128e+00
6.038251e+00
5.930063e+00
6.293142e+00
7.161759e+00
8.855883e+00
9.832513e+00
9.154016e+00
8.002828e+00
8.092161e+00
8.465592e+00
8.663544e+00
8.359070e+00
8.304558e+00
8.613635e+00
8.773130e+00
8.474221e+00
8.436275e+00
8.276581e+00
8.423499e+00
8.848529e+00
9.511722e+00
9.844237e+00
8.400972e+00
6.461905e+00
9.845042e+00
9.824318e+00
1.000000e+01
9.838530e+00
9.836566e+00
9.987414e+00
9.836242e+00
9.956107e+00
9.849542e+00
9.882935e+00
9.898601e+00
9.877994e+00
9.895384e+00
9.433792e+00
8.057977e+00
6.222979e+00
1.000000e+01
1.000000e+01
1.000000e+01
1.000000e+01
1.000000e+01
1.000000e+01
1.000000e+01
1.000000e+01
1.000000e+01
1.000000e+01
1.000000e+01
9.491273e+00
8.834827e+00
8.413967e+00
8.091861e+00
7.997610e+00
1.000000e+01
1.000000e+01
1.000000e+01
1.000000e+01
1.000000e+01
1.000000e+01
1.000000e+01
1.000000e+01
9.999999e+00
9.971715e+00
9.379180e+00
8.669472e+00
7.765510e+00
7.778086e+00
8.696557e+00
9.222726e+00
9.836183e+00
9.824532e+00
1.000000e+01
9.837155e+00
9.838537e+00
9.914639e+00
9.836667e+00
9.999998e+00
9.732876e+00
9.173818e+00
8.508549e+00
7.994277e+00
8.327829e+00
8.791407e+00
9.452517e+00
1.000000e+01
8.038799e+00
8.440581e+00
8.658878e+00
8.358551e+00
8.019846e+00
8.178440e+00
8.660134e+00
8.693227e+00
8.583830e+00
8.012997e+00
7.798013e+00
8.565170e+00
9.367622e+00
9.881184e+00
1.000000e+01
1.000000e+01
5.562379e+00
6.094333e+00
6.854384e+00
5.857389e+00
5.293228e+00
5.812233e+00
6.394711e+00
7.199460e+00
6.948462e+00
7.183079e+00
8.223917e+00
9.098816e+00
1.000000e+01
1.000000e+01
1.000000e+01
1.000000e+01


-8.216262e-01
-1.661514e-01
-3.994133e-01
-2.606076e-01
-9.120766e-02
-3.088890e-01
-1.217065e-01
-2.087499e-01
-1.604515e-01
-1.567377e-01
-2.137789e-01
-1.506846e-01
-4.622244e-01
-6.798685e-01
3.140678e-01
-8.564316e-01
6.111404e-01
4.830823e-01
2.959446e-01
2.261181e-01
2.920277e-01
1.671906e-01
1.723794e-01
1.711451e-01
1.055317e-01
1.468119e-01
1.263993e-01
2.424862e-01
3.057822e-01
5.109654e-01
6.976871e-01
-9.222999e-01
7.228446e-01
4.719013e-01
5.595522e-02
-2.427863e-02
-3.792045e-02
-1.979980e-01
-9.046682e-02
-1.487344e-01
-8.274930e-02
-1.934064e-02
3.581443e-02
1.870296e-01
2.859268e-01
1.503566e-01
-2.745569e-02
-1.554397e-01
7.277934e-01
5.549022e-01
1.897275e-01
5.778596e-02
-2.652954e-02
-1.133469e-01
-2.631565e-02
-7.145128e-02
1.280386e-02
1.709619e-02
7.144789e-02
1.212567e-01
7.258538e-02
-2.582398e-01
-4.080210e-01
-9.226120e-02
7.311910e-01
5.573436e-01
1.949340e-01
6.237126e-02
-3.541214e-02
-1.264686e-01
-5.769485e-02
-1.104786e-01
-4.533347e-02
-4.956465e-02
2.773162e-02
5.503198e-03
-3.648578e-02
-1.131484e-01
-1.146901e-01
2.935341e-01
7.307481e-01
4.781996e-01
7.223525e-02
-6.697615e-03
-5.571904e-02
-2.229257e-01
-1.720183e-01
-2.856258e-01
-2.376179e-01
-1.369533e-01
-6.574115e-02
-1.010464e-01
-1.387134e-01
4.854284e-02
3.329624e-01
7.217594e-01
6.169963e-01
4.818177e-01
3.083567e-01
2.396307e-01
2.900128e-01
1.691051e-01
1.369503e-01
8.172808e-02
-7.476613e-02
-6.591617e-02
-7.865264e-02
-3.002428e-02
3.217559e-02
3.574869e-01
7.090268e-01
9.466842e-01
-8.119784e-01
-1.897836e-01
-4.018088e-01
-2.589729e-01
-1.206758e-01
-2.905011e-01
-1.141188e-01
-1.492165e-01
-3.114598e-02
-3.219279e-02
-8.637717e-02
1.414377e-01
3.738597e-01
7.694965e-01
9.521854e-01
9.986791e-01
1 2 19 18
2 3 20 19
3 4 21 20
4 5 22 21
5 6 23 22
6 7 24 23
7 8 25 24
8 9 26 25
9 10 27 26
10 11 28 27
11 12 29 28
12 13 30 29
13 14 31 30
14 15 32 31
15 16 33 32
16 17 34 33
18 19 36 35
19 20 37 36
20 21 38 37
21 22 39 38
22 23 40 39
23 24 41 40
24 25 42 41
25 26 43 42
26 27 44 43
27 28 45 44
28 29 46 45
29 30 47 46
30 31 48 47
31 32 49 48
32 33 50 49
33 34 51 50
35 36 53 52
36 37 54 53
37 38 55 54
38 39 56 55
39 40 57 56
40 41 58 57
41 42 59 58
42 43 60 59
43 44 61 60
44 45 62 61
45 46 63 62
46 47 64 63
47 48 65 64
48 49 66 65
49 50 67 66
50 51 68 67
52 53 70 69
53 54 71 70
54 55 72 71
55 56 73 72
56 57 74 73
57 58 75 74
58 59 76 75
59 60 77 76
60 61 78 77
61 62 79 78
62 63 80 79
63 64 81 80
64 65 82 81
65 66 83 82
66 67 84 83
67 68 85 84
69 70 87 86
70 71 88 87
71 72 89 88
72 73 90 89
73 74 91 90
74 75 92 91
75 76 93 92
76 77 94 93
77 78 95 94
78 79 96 95
79 80 97 96
80 81 98 97
81 82 99 98
82 83 100 99
83 84 101 100
84 85 102 101
86 87 104 103
87 88 105 104
88 89 106 105
89 90 107 106
90 91 108 107
91 92 109 108
92 93 110 109
93 94 111 110
94 95 112 111
95 96 113 112
96 97 114 113
97 98 115 114
98 99 116 115
99 100 117 116
100 101 118 117
101 102 119 118
103 104 121 120
104 105 122 121
105 106 123 122
106 107 124 123
107 108 125 124
108 109 126 125
109 110 127 126
110 111 128 127
111 112 129 128
112 113 130 129
113 114 131 130
114 115 132 131
115 116 133 132
116 117 134 133
117 118 135 134
118 119 136 135
120 121 138 137
121 122 139 138
122 123 140 139
123 124 141 140
124 125 142 141
125 126 143 142
126 127 144 143
127 128 145 144
128 129 146 145
129 130 147 146
130 131 148 147
131 132 149 148
132 133 150 149
133 134 151 150
134 135 152 151
135 136 153 152
