TITLE = "Solution"
VARIABLES = x, y, u, v, psiu, psiv, t, stress
ZONE T="structure" N=153 E=128 F=FEBLOCK ET=QUADRILATERAL VARLOCATION=([7,8]=cellcentered)
0.000000e+00
1.250000e+01
2.500000e+01
3.750000e+01
5.000000e+01
6.250000e+01
7.500000e+01
8.750000e+01
1.000000e+02
1.125000e+02
1.250000e+02
1.375000e+02
1.500000e+02
1.625000e+02
1.750000e+02
1.875000e+02
2.000000e+02
0.000000e+00
1.250000e+01
2.500000e+01
3.750000e+01
5.000000e+01
6.250000e+01
7.500000e+01
8.750000e+01
1.000000e+02
1.125000e+02
1.250000e+02
1.375000e+02
1.500000e+02
1.625000e+02
1.750000e+02
1.875000e+02
2.000000e+02
0.000000e+00
1.250000e+01
2.500000e+01
3.750000e+01
5.000000e+01
6.250000e+01
7.500000e+01
8.750000e+01
1.000000e+02
1.125000e+02
1.250000e+02
1.375000e+02
1.500000e+02
1.625000e+02
1.750000e+02
1.875000e+02
2.000000e+02
0.000000e+00
1.250000e+01
2.500000e+01
3.750000e+01
5.000000e+01
6.250000e+01
7.500000e+01
8.750000e+01
1.000000e+02
1.125000e+02
1.250000e+02
1.375000e+02
1.500000e+02
1.625000e+02
1.750000e+02
1.875000e+02
2.000000e+02
0.000000e+00
1.250000e+01
2.500000e+01
3.750000e+01
5.000000e+01
6.250000e+01
7.500000e+01
8.750000e+01
1.000000e+02
1.125000e+02
1.250000e+02
1.375000e+02
1.500000e+02
1.625000e+02
1.750000e+02
1.875000e+02
2.000000e+02
0.000000e+00
1.250000e+01
2.500000e+01
3.750000e+01
5.000000e+01
6.250000e+01
7.500000e+01
8.750000e+01
1.000000e+02
1.125000e+02
1.250000e+02
1.375000e+02
1.500000e+02
1.625000e+02
1.750000e+02
1.875000e+02
2.000000e+02
0.000000e+00
1.250000e+01
2.500000e+01
3.750000e+01
5.000000e+01
6.250000e+01
7.500000e+01
8.750000e+01
1.000000e+02
1.125000e+02
1.250000e+02
1.375000e+02
1.500000e+02
1.625000e+02
1.750000e+02
1.875000e+02
2.000000e+02
0.000000e+00
1.250000e+01
2.500000e+01
3.750000e+01
5.000000e+01
6.250000e+01
7.500000e+01
8.750000e+01
1.000000e+02
1.125000e+02
1.250000e+02
1.375000e+02
1.500000e+02
1.625000e+02
1.750000e+02
1.875000e+02
2.000000e+02
0.000000e+00
1.250000e+01
2.500000e+01
3.750000e+01
5.000000e+01
6.250000e+01
7.500000e+01
8.750000e+01
1.000000e+02
1.125000e+02
1.250000e+02
1.375000e+02
1.500000e+02
1.625000e+02
1.750000e+02
1.875000e+02
2.000000e+02
0.000000e+00
0.000000e+00
0.000000e+00
0.000000e+00
0.000000e+00
0.000000e+00
0.000000e+00
0.000000e+00
0.000000e+00
0.000000e+00
0.000000e+00
0.000000e+00
0.000000e+00
0.000000e+00
0.000000e+00
0.000000e+00
0.000000e+00
1.250000e+01
1.250000e+01
1.250000e+01
1.250000e+01
1.250000e+01
1.250000e+01
1.250000e+01
1.250000e+01
1.250000e+01
1.250000e+01
1.250000e+01
1.250000e+01
1.250000e+01
1.250000e+01
1.250000e+01
1.250000e+01
1.250000e+01
2.500000e+01
2.500000e+01
2.500000e+01
2.500000e+01
2.500000e+01
2.500000e+01
2.500000e+01
2.500000e+01
2.500000e+01
2.500000e+01
2.500000e+01
2.500000e+01
2.500000e+01
2.500000e+01
2.500000e+01
2.500000e+01
2.500000e+01
3.750000e+01
3.750000e+01
3.750000e+01
3.750000e+01
3.750000e+01
3.750000e+01
3.750000e+01
3.750000e+01
3.750000e+01
3.750000e+01
3.750000e+01
3.750000e+01
3.750000e+01
3.750000e+01
3.750000e+01
3.750000e+01
3.750000e+01
5.000000e+01
5.000000e+01
5.000000e+01
5.000000e+01
5.000000e+01
5.000000e+01
5.000000e+01
5.000000e+01
5.000000e+01
5.000000e+01
5.000000e+01
5.000000e+01
5.000000e+01
5.000000e+01
5.000000e+01
5.000000e+01
5.000000e+01
6.250000e+01
6.250000e+01
6.250000e+01
6.250000e+01
6.250000e+01
6.250000e+01
6.250000e+01
6.250000e+01
6.250000e+01
6.250000e+01
6.250000e+01
6.250000e+01
6.250000e+01
6.250000e+01
6.250000e+01
6.250000e+01
6.250000e+01
7.500000e+01
7.500000e+01
7.500000e+01
7.500000e+01
7.500000e+01
7.500000e+01
7.500000e+01
7.500000e+01
7.500000e+01
7.500000e+01
7.500000e+01
7.500000e+01
7.500000e+01
7.500000e+01
7.500000e+01
7.500000e+01
7.500000e+01
8.750000e+01
8.750000e+01
8.750000e+01
8.750000e+01
8.750000e+01
8.750000e+01
8.750000e+01
8.750000e+01
8.750000e+01
8.750000e+01
8.750000e+01
8.750000e+01
8.750000e+01
8.750000e+01
8.750000e+01
8.750000e+01
8.750000e+01
1.000000e+02
1.000000e+02
1.000000e+02
1.000000e+02
1.000000e+02
1.000000e+02
1.000000e+02
1.000000e+02
1.000000e+02
1.000000e+02
1.000000e+02
1.000000e+02
1.000000e+02
1.000000e+02
1.000000e+02
1.000000e+02
1.000000e+02
0.000000e+00
-1.028594e+00
-1.846640e+00
-2.599389e+00
-3.360816e+00
-4.130071e+00
-4.896846e+00
-5.661697e+00
-6.443820e+00
-7.320428e+00
-8.325091e+00
-9.211540e+00
-9.946325e+00
-1.072923e+01
-1.156458e+01
-1.233557e+01
-1.281117e+01
0.000000e+00
-5.710645e-01
-1.170335e+00
-1.731434e+00
-2.291571e+00
-2.850088e+00
-3.406859e+00
-3.958463e+00
-4.525812e+00
-5.169377e+00
-5.914763e+00
-6.567680e+00
-7.075393e+00
-7.530477e+00
-7.868836e+00
-7.938268e+00
-8.105024e+00
0.000000e+00
-3.095971e-01
-6.484655e-01
-1.010014e+00
-1.372016e+00
-1.729892e+00
-2.091699e+00
-2.462274e+00
-2.854096e+00
-3.291394e+00
-3.754257e+00
-4.128461e+00
-4.392480e+00
-4.549361e+00
-4.558914e+00
-4.503807e+00
-4.701065e+00
0.000000e+00
-1.275018e-01
-2.832159e-01
-4.564347e-01
-6.307511e-01
-8.000245e-01
-9.708363e-01
-1.154403e+00
-1.355736e+00
-1.573041e+00
-1.764655e+00
-1.891652e+00
-1.949780e+00
-1.933834e+00
-1.859754e+00
-1.853582e+00
-2.025423e+00
0.000000e+00
-6.770113e-03
-1.190584e-02
-1.269760e-02
-7.727246e-03
2.047217e-03
1.673045e-02
3.630963e-02
6.215100e-02
1.002095e-01
1.529828e-01
2.231388e-01
3.135172e-01
4.177514e-01
5.001348e-01
4.845409e-01
3.641955e-01
0.000000e+00
1.174657e-01
2.621078e-01
4.266855e-01
6.004012e-01
7.811036e-01
9.757183e-01
1.200601e+00
1.463722e+00
1.763469e+00
2.044447e+00
2.271889e+00
2.470090e+00
2.646896e+00
2.759533e+00
2.766212e+00
2.703823e+00
0.000000e+00
3.026525e-01
6.294832e-01
9.740447e-01
1.318862e+00
1.667101e+00
2.035765e+00
2.442553e+00
2.907690e+00
3.439650e+00
3.953191e+00
4.347081e+00
4.646388e+00
4.881540e+00
5.037253e+00
5.085516e+00
5.071447e+00
0.000000e+00
5.648186e-01
1.152459e+00
1.693433e+00
2.225604e+00
2.757591e+00
3.307083e+00
3.890998e+00
4.539295e+00
5.267698e+00
5.995537e+00
6.576745e+00
7.004467e+00
7.306843e+00
7.490339e+00
7.563153e+00
7.576541e+00
0.000000e+00
1.023356e+00
1.829863e+00
2.562002e+00
3.290966e+00
4.028735e+00
4.791397e+00
5.601364e+00
6.480487e+00
7.432799e+00
8.344214e+00
9.092605e+00
9.644019e+00
1.000319e+01
1.016743e+01
1.019423e+01
1.018991e+01
0.000000e+00
-6.269142e-01
-1.275534e+00
-2.123206e+00
-3.164342e+00
-4.412977e+00
-5.881790e+00
-7.581140e+00
-9.528347e+00
-1.175113e+01
-1.422552e+01
-1.685453e+01
-1.966824e+01
-2.272933e+01
-2.611171e+01
-3.006459e+01
-3.569065e+01
0.000000e+00
-3.947408e-01
-1.080376e+00
-1.927692e+00
-2.966379e+00
-4.212855e+00
-5.682362e+00
-7.380881e+00
-9.315787e+00
-1.151018e+01
-1.398547e+01
-1.665806e+01
-1.949192e+01
-2.255739e+01
-2.597525e+01
-2.994556e+01
-3.472938e+01
0.000000e+00
-3.189582e-01
-9.540228e-01
-1.798009e+00
-2.831894e+00
-4.072186e+00
-5.536691e+00
-7.233370e+00
-9.163955e+00
-1.136206e+01
-1.385697e+01
-1.655286e+01
-1.941206e+01
-2.250715e+01
-2.595272e+01
-2.972067e+01
-3.323530e+01
0.000000e+00
-3.122974e-01
-9.100632e-01
-1.733942e+00
-2.758718e+00
-3.988724e+00
-5.440182e+00
-7.132581e+00
-9.074384e+00
-1.130854e+01
-1.382935e+01
-1.653651e+01
-1.940678e+01
-2.250620e+01
-2.586991e+01
-2.925412e+01
-3.216460e+01
0.000000e+00
-3.226323e-01
-9.068513e-01
-1.720984e+00
-2.739256e+00
-3.963216e+00
-5.404916e+00
-7.094362e+00
-9.052989e+00
-1.132442e+01
-1.386709e+01
-1.657303e+01
-1.943625e+01
-2.249933e+01
-2.572464e+01
-2.881362e+01
-3.144451e+01
0.000000e+00
-3.154790e-01
-9.168678e-01
-1.742498e+00
-2.767813e+00
-3.995380e+00
-5.441064e+00
-7.135554e+00
-9.101088e+00
-1.138781e+01
-1.393970e+01
-1.664025e+01
-1.948522e+01
-2.249467e+01
-2.559118e+01
-2.851484e+01
-3.107145e+01
0.000000e+00
-3.222659e-01
-9.615658e-01
-1.809135e+00
-2.844598e+00
-4.082120e+00
-5.541490e+00
-7.245266e+00
-9.218332e+00
-1.149952e+01
-1.404193e+01
-1.673340e+01
-1.955987e+01
-2.251805e+01
-2.550605e+01
-2.832854e+01
-3.089998e+01
0.000000e+00
-3.962337e-01
-1.084489e+00
-1.934647e+00
-2.975027e+00
-4.220250e+00
-5.690929e+00
-7.407993e+00
-9.397693e+00
-1.167628e+01
-1.419416e+01
-1.686130e+01
-1.966509e+01
-2.257560e+01
-2.548568e+01
-2.825296e+01
-3.087176e+01
0.000000e+00
-6.259885e-01
-1.275123e+00
-2.122919e+00
-3.163972e+00
-4.414390e+00
-5.894491e+00
-7.627847e+00
-9.639260e+00
-1.192630e+01
-1.441229e+01
-1.703432e+01
-1.979236e+01
-2.265006e+01
-2.550261e+01
-2.823955e+01
-3.087610e+01


0.000000e+00
1.925521e-05
3.534426e-05
4.632471e-05
5.471235e-05
6.301811e-05
7.197832e-05
8.000230e-05
8.570898e-05
8.813549e-05
8.556307e-05
7.929998e-05
7.291218e-05
6.742042e-05
6.428929e-05
6.381649e-05
6.456412e-05
0.000000e+00
1.499210e-05
2.961310e-05
3.736089e-05
4.280600e-05
4.877812e-05
5.596039e-05
6.269632e-05
6.762113e-05
6.976121e-05
6.715880e-05
6.124605e-05
5.553917e-05
5.037122e-05
4.645647e-05
4.556855e-05
4.653299e-05
0.000000e+00
1.085442e-05
2.039427e-05
2.576356e-05
2.976824e-05
3.387820e-05
3.866593e-05
4.301486e-05
4.581355e-05
4.609065e-05
4.307941e-05
3.858350e-05
3.463131e-05
3.160140e-05
2.946982e-05
2.921938e-05
3.033659e-05
0.000000e+00
4.978059e-06
8.479546e-06
1.146828e-05
1.340001e-05
1.501145e-05
1.672374e-05
1.823992e-05
1.838854e-05
1.727962e-05
1.517597e-05
1.317148e-05
1.207260e-05
1.156073e-05
1.166374e-05
1.196240e-05
1.230477e-05
0.000000e+00
-8.632667e-07
-1.983752e-06
-3.293368e-06
-4.947510e-06
-6.892142e-06
-8.574001e-06
-1.156683e-05
-1.324051e-05
-1.456660e-05
-1.391890e-05
-1.196488e-05
-9.762606e-06
-8.430771e-06
-8.442394e-06
-8.923391e-06
-9.785027e-06
0.000000e+00
-7.168345e-06
-1.235147e-05
-1.735595e-05
-2.142772e-05
-2.568561e-05
-3.380181e-05
-4.485310e-05
-5.103822e-05
-4.904091e-05
-4.550263e-05
-4.029201e-05
-3.478054e-05
-3.144649e-05
-3.111830e-05
-3.202024e-05
-3.311632e-05
0.000000e+00
-1.403666e-05
-2.521793e-05
-3.048987e-05
-3.422955e-05
-3.836419e-05
-5.031839e-05
-6.986568e-05
-8.266659e-05
-8.233038e-05
-7.699961e-05
-7.058448e-05
-6.418394e-05
-5.947838e-05
-5.737733e-05
-5.688396e-05
-5.730602e-05
0.000000e+00
-1.874893e-05
-3.503638e-05
-4.161804e-05
-4.554697e-05
-5.065293e-05
-6.278753e-05
-8.275795e-05
-9.875770e-05
-1.029639e-04
-1.001089e-04
-9.465862e-05
-8.972175e-05
-8.556352e-05
-8.259810e-05
-8.132748e-05
-8.109645e-05
0.000000e+00
-2.287833e-05
-3.997688e-05
-5.007982e-05
-5.785977e-05
-6.661598e-05
-8.051143e-05
-9.602728e-05
-1.093666e-04
-1.145300e-04
-1.143734e-04
-1.110693e-04
-1.083580e-04
-1.067298e-04
-1.049231e-04
-1.037992e-04
-1.034951e-04
0.000000e+00
1.578468e-05
2.429995e-05
3.318565e-05
4.555394e-05
6.150861e-05
7.999078e-05
9.972030e-05
1.198070e-04
1.386075e-04
1.543275e-04
1.688432e-04
1.831888e-04
1.964095e-04
2.112526e-04
2.306650e-04
2.513021e-04
0.000000e+00
8.032905e-06
1.866994e-05
2.932131e-05
4.217630e-05
5.763382e-05
7.589615e-05
9.628045e-05
1.176104e-04
1.382644e-04
1.561834e-04
1.716490e-04
1.859543e-04
1.988514e-04
2.120162e-04
2.295467e-04
2.494929e-04
0.000000e+00
3.353516e-06
1.390359e-05
2.630858e-05
3.956782e-05
5.473125e-05
7.284615e-05
9.391874e-05
1.166709e-04
1.390104e-04
1.582832e-04
1.743220e-04
1.883234e-04
2.008021e-04
2.122708e-04
2.276073e-04
2.467530e-04
0.000000e+00
2.027588e-06
1.168434e-05
2.451258e-05
3.816651e-05
5.325232e-05
7.126068e-05
9.327290e-05
1.175605e-04
1.407089e-04
1.602412e-04
1.761064e-04
1.890613e-04
2.013255e-04
2.127563e-04
2.266232e-04
2.449912e-04
0.000000e+00
2.093698e-06
1.156310e-05
2.441489e-05
3.817211e-05
5.251742e-05
6.961683e-05
9.312433e-05
1.191908e-04
1.423150e-04
1.615467e-04
1.765654e-04
1.883834e-04
2.006145e-04
2.141693e-04
2.285282e-04
2.465456e-04
0.000000e+00
2.369752e-06
1.301760e-05
2.625625e-05
3.964282e-05
5.243037e-05
6.909516e-05
9.386666e-05
1.211863e-04
1.431265e-04
1.612985e-04
1.752562e-04
1.861846e-04
1.992674e-04
2.153939e-04
2.313281e-04
2.498034e-04
0.000000e+00
4.146612e-06
1.607747e-05
2.874576e-05
4.134533e-05
5.480717e-05
7.364784e-05
9.970551e-05
1.246502e-04
1.428727e-04
1.592631e-04
1.720761e-04
1.832952e-04
1.977225e-04
2.154085e-04
2.331431e-04
2.529372e-04
0.000000e+00
9.838114e-06
2.127522e-05
3.139309e-05
4.369425e-05
5.937585e-05
8.241918e-05
1.092580e-04
1.300223e-04
1.434657e-04
1.563719e-04
1.685544e-04
1.809220e-04
1.964277e-04
2.146415e-04
2.337075e-04
2.544315e-04
0.000000e+00
1.898566e-05
2.700658e-05
3.480860e-05
4.677874e-05
6.440845e-05
9.057170e-05
1.174629e-04
1.354186e-04
1.443541e-04
1.544715e-04
1.663462e-04
1.794028e-04
1.955706e-04
2.138420e-04
2.337294e-04
2.547263e-04


2.677498e+00
2.566185e+00
2.553692e+00
2.768703e+00
3.001981e+00
3.258444e+00
3.656725e+00
4.326291e+00
6.009838e+00
7.924422e+00
7.992837e+00
7.306408e+00
7.749754e+00
7.622557e+00
6.049091e+00
4.664615e+00
3.420007e+00
3.427291e+00
3.461721e+00
3.617674e+00
3.869784e+00
4.391172e+00
4.757443e+00
5.406243e+00
6.660090e+00
7.995270e+00
7.938056e+00
7.351113e+00
7.690347e+00
7.891194e+00
6.617962e+00
5.293933e+00
5.095930e+00
5.203651e+00
4.986450e+00
4.879578e+00
5.131767e+00
5.743315e+00
6.504570e+00
7.041530e+00
7.817021e+00
8.252501e+00
7.673985e+00
7.130531e+00
7.378831e+00
8.099363e+00
7.861748e+00
6.927954e+00
6.849166e+00
6.618145e+00
5.904832e+00
5.418332e+00
5.527077e+00
6.235351e+00
7.277359e+00
8.189488e+00
8.588817e+00
8.186083e+00
7.263736e+00
6.649112e+00
7.220375e+00
8.163397e+00
8.468080e+00
7.969768e+00
6.812428e+00
6.509896e+00
5.783906e+00
5.386951e+00
5.601791e+00
6.339886e+00
7.462246e+00
8.364512e+00
8.844023e+00
8.255875e+00
7.033899e+00
6.834372e+00
7.510631e+00
8.453918e+00
8.525009e+00
7.715211e+00
5.042881e+00
5.035264e+00
4.793800e+00
4.796216e+00
5.213697e+00
5.965066e+00
6.858323e+00
7.708961e+00
8.591954e+00
8.411472e+00
7.332506e+00
7.057710e+00
7.954689e+00
8.548774e+00
8.241953e+00
7.645446e+00
3.393382e+00
3.348430e+00
3.341365e+00
3.508796e+00
3.848349e+00
4.508528e+00
5.203518e+00
6.327220e+00
7.608426e+00
8.198889e+00
7.623093e+00
7.321587e+00
7.558760e+00
7.731699e+00
7.292933e+00
6.670748e+00
2.626994e+00
2.493894e+00
2.449971e+00
2.631900e+00
2.899910e+00
3.339549e+00
4.080677e+00
5.258615e+00
6.752633e+00
7.719354e+00
7.810981e+00
7.504416e+00
7.236490e+00
6.933104e+00
6.133878e+00
5.294626e+00


-1.251382e+00
-7.665676e-01
-5.107491e-01
-5.277797e-01
-5.438546e-01
-5.382105e-01
-5.282855e-01
-6.168419e-01
-1.058447e+00
-1.698329e+00
-1.073513e+00
-3.516582e-01
-3.258074e-01
-1.854154e-01
3.724791e-01
-8.922451e-01
2.793682e-01
1.449619e-01
1.878241e-01
1.915220e-01
1.911286e-01
1.649573e-01
1.213519e-01
6.076276e-03
-2.827188e-01
-5.737056e-01
-1.227997e-01
3.671113e-01
5.886159e-01
7.712753e-01
5.674972e-01
-2.317375e+00
7.635346e-01
6.158334e-01
5.424342e-01
5.282869e-01
5.113321e-01
4.590155e-01
3.685786e-01
2.511362e-01
6.651847e-02
-1.645174e-02
2.569725e-01
4.879822e-01
4.844265e-01
1.265208e-01
-5.142216e-01
-1.478554e+00
8.825544e-01
7.370896e-01
6.456245e-01
6.074589e-01
5.687763e-01
5.070016e-01
4.145593e-01
3.275159e-01
1.999480e-01
1.424118e-01
2.553106e-01
2.855477e-01
6.197144e-02
-4.051236e-01
-5.028221e-01
-4.069832e-01
8.875973e-01
7.442072e-01
6.457259e-01
5.888589e-01
5.301882e-01
4.506966e-01
3.331665e-01
2.137236e-01
3.709544e-02
-1.931668e-02
8.380563e-02
5.030715e-02
-1.657979e-01
-3.498541e-01
7.938065e-03
4.874210e-01
7.744385e-01
6.328224e-01
5.584436e-01
5.237592e-01
4.689416e-01
3.638698e-01
1.824728e-01
-7.106248e-02
-4.066724e-01
-4.236882e-01
-1.049980e-01
1.117680e-03
-8.116338e-02
-2.042077e-02
4.240428e-01
8.167111e-01
2.970180e-01
1.799229e-01
2.423311e-01
2.541974e-01
2.324068e-01
1.364321e-01
-5.085909e-02
-3.846614e-01
-8.414324e-01
-8.706859e-01
-2.802151e-01
1.150323e-01
2.926309e-01
5.027308e-01
8.109100e-01
9.744085e-01
-1.220591e+00
-7.099699e-01
-4.193718e-01
-3.933385e-01
-4.153203e-01
-5.166333e-01
-7.205959e-01
-1.081426e+00
-1.534293e+00
-1.419305e+00
-6.058030e-01
9.851478e-02
5.456794e-01
8.376862e-01
9.769249e-01
9.998078e-01
1 2 19 18
2 3 20 19
3 4 21 20
4 5 22 21
5 6 23 22
6 7 24 23
7 8 25 24
8 9 26 25
9 10 27 26
10 11 28 27
11 12 29 28
12 13 30 29
13 14 31 30
14 15 32 31
15 16 33 32
16 17 34 33
18 19 36 35
19 20 37 36
20 21 38 37
21 22 39 38
22 23 40 39
23 24 41 40
24 25 42 41
25 26 43 42
26 27 44 43
27 28 45 44
28 29 46 45
29 30 47 46
30 31 48 47
31 32 49 48
32 33 50 49
33 34 51 50
35 36 53 52
36 37 54 53
37 38 55 54
38 39 56 55
39 40 57 56
40 41 58 57
41 42 59 58
42 43 60 59
43 44 61 60
44 45 62 61
45 46 63 62
46 47 64 63
47 48 65 64
48 49 66 65
49 50 67 66
50 51 68 67
52 53 70 69
53 54 71 70
54 55 72 71
55 56 73 72
56 57 74 73
57 58 75 74
58 59 76 75
59 60 77 76
60 61 78 77
61 62 79 78
62 63 80 79
63 64 81 80
64 65 82 81
65 66 83 82
66 67 84 83
67 68 85 84
69 70 87 86
70 71 88 87
71 72 89 88
72 73 90 89
73 74 91 90
74 75 92 91
75 76 93 92
76 77 94 93
77 78 95 94
78 79 96 95
79 80 97 96
80 81 98 97
81 82 99 98
82 83 100 99
83 84 101 100
84 85 102 101
86 87 104 103
87 88 105 104
88 89 106 105
89 90 107 106
90 91 108 107
91 92 109 108
92 93 110 109
93 94 111 110
94 95 112 111
95 96 113 112
96 97 114 113
97 98 115 114
98 99 116 115
99 100 117 116
100 101 118 117
101 102 119 118
103 104 121 120
104 105 122 121
105 106 123 122
106 107 124 123
107 108 125 124
108 109 126 125
109 110 127 126
110 111 128 127
111 112 129 128
112 113 130 129
113 114 131 130
114 115 132 131
115 116 133 132
116 117 134 133
117 118 135 134
118 119 136 135
120 121 138 137
121 122 139 138
122 123 140 139
123 124 141 140
124 125 142 141
125 126 143 142
126 127 144 143
127 128 145 144
128 129 146 145
129 130 147 146
130 131 148 147
131 132 149 148
132 133 150 149
133 134 151 150
134 135 152 151
135 136 153 152
