TITLE = "Solution"
VARIABLES = x, y, u, v, psiu, psiv, t, stress
ZONE T="structure" N=153 E=128 F=FEBLOCK ET=QUADRILATERAL VARLOCATION=([7,8]=cellcentered)
0.000000e+00
1.250000e+01
2.500000e+01
3.750000e+01
5.000000e+01
6.250000e+01
7.500000e+01
8.750000e+01
1.000000e+02
1.125000e+02
1.250000e+02
1.375000e+02
1.500000e+02
1.625000e+02
1.750000e+02
1.875000e+02
2.000000e+02
0.000000e+00
1.250000e+01
2.500000e+01
3.750000e+01
5.000000e+01
6.250000e+01
7.500000e+01
8.750000e+01
1.000000e+02
1.125000e+02
1.250000e+02
1.375000e+02
1.500000e+02
1.625000e+02
1.750000e+02
1.875000e+02
2.000000e+02
0.000000e+00
1.250000e+01
2.500000e+01
3.750000e+01
5.000000e+01
6.250000e+01
7.500000e+01
8.750000e+01
1.000000e+02
1.125000e+02
1.250000e+02
1.375000e+02
1.500000e+02
1.625000e+02
1.750000e+02
1.875000e+02
2.000000e+02
0.000000e+00
1.250000e+01
2.500000e+01
3.750000e+01
5.000000e+01
6.250000e+01
7.500000e+01
8.750000e+01
1.000000e+02
1.125000e+02
1.250000e+02
1.375000e+02
1.500000e+02
1.625000e+02
1.750000e+02
1.875000e+02
2.000000e+02
0.000000e+00
1.250000e+01
2.500000e+01
3.750000e+01
5.000000e+01
6.250000e+01
7.500000e+01
8.750000e+01
1.000000e+02
1.125000e+02
1.250000e+02
1.375000e+02
1.500000e+02
1.625000e+02
1.750000e+02
1.875000e+02
2.000000e+02
0.000000e+00
1.250000e+01
2.500000e+01
3.750000e+01
5.000000e+01
6.250000e+01
7.500000e+01
8.750000e+01
1.000000e+02
1.125000e+02
1.250000e+02
1.375000e+02
1.500000e+02
1.625000e+02
1.750000e+02
1.875000e+02
2.000000e+02
0.000000e+00
1.250000e+01
2.500000e+01
3.750000e+01
5.000000e+01
6.250000e+01
7.500000e+01
8.750000e+01
1.000000e+02
1.125000e+02
1.250000e+02
1.375000e+02
1.500000e+02
1.625000e+02
1.750000e+02
1.875000e+02
2.000000e+02
0.000000e+00
1.250000e+01
2.500000e+01
3.750000e+01
5.000000e+01
6.250000e+01
7.500000e+01
8.750000e+01
1.000000e+02
1.125000e+02
1.250000e+02
1.375000e+02
1.500000e+02
1.625000e+02
1.750000e+02
1.875000e+02
2.000000e+02
0.000000e+00
1.250000e+01
2.500000e+01
3.750000e+01
5.000000e+01
6.250000e+01
7.500000e+01
8.750000e+01
1.000000e+02
1.125000e+02
1.250000e+02
1.375000e+02
1.500000e+02
1.625000e+02
1.750000e+02
1.875000e+02
2.000000e+02
0.000000e+00
0.000000e+00
0.000000e+00
0.000000e+00
0.000000e+00
0.000000e+00
0.000000e+00
0.000000e+00
0.000000e+00
0.000000e+00
0.000000e+00
0.000000e+00
0.000000e+00
0.000000e+00
0.000000e+00
0.000000e+00
0.000000e+00
1.250000e+01
1.250000e+01
1.250000e+01
1.250000e+01
1.250000e+01
1.250000e+01
1.250000e+01
1.250000e+01
1.250000e+01
1.250000e+01
1.250000e+01
1.250000e+01
1.250000e+01
1.250000e+01
1.250000e+01
1.250000e+01
1.250000e+01
2.500000e+01
2.500000e+01
2.500000e+01
2.500000e+01
2.500000e+01
2.500000e+01
2.500000e+01
2.500000e+01
2.500000e+01
2.500000e+01
2.500000e+01
2.500000e+01
2.500000e+01
2.500000e+01
2.500000e+01
2.500000e+01
2.500000e+01
3.750000e+01
3.750000e+01
3.750000e+01
3.750000e+01
3.750000e+01
3.750000e+01
3.750000e+01
3.750000e+01
3.750000e+01
3.750000e+01
3.750000e+01
3.750000e+01
3.750000e+01
3.750000e+01
3.750000e+01
3.750000e+01
3.750000e+01
5.000000e+01
5.000000e+01
5.000000e+01
5.000000e+01
5.000000e+01
5.000000e+01
5.000000e+01
5.000000e+01
5.000000e+01
5.000000e+01
5.000000e+01
5.000000e+01
5.000000e+01
5.000000e+01
5.000000e+01
5.000000e+01
5.000000e+01
6.250000e+01
6.250000e+01
6.250000e+01
6.250000e+01
6.250000e+01
6.250000e+01
6.250000e+01
6.250000e+01
6.250000e+01
6.250000e+01
6.250000e+01
6.250000e+01
6.250000e+01
6.250000e+01
6.250000e+01
6.250000e+01
6.250000e+01
7.500000e+01
7.500000e+01
7.500000e+01
7.500000e+01
7.500000e+01
7.500000e+01
7.500000e+01
7.500000e+01
7.500000e+01
7.500000e+01
7.500000e+01
7.500000e+01
7.500000e+01
7.500000e+01
7.500000e+01
7.500000e+01
7.500000e+01
8.750000e+01
8.750000e+01
8.750000e+01
8.750000e+01
8.750000e+01
8.750000e+01
8.750000e+01
8.750000e+01
8.750000e+01
8.750000e+01
8.750000e+01
8.750000e+01
8.750000e+01
8.750000e+01
8.750000e+01
8.750000e+01
8.750000e+01
1.000000e+02
1.000000e+02
1.000000e+02
1.000000e+02
1.000000e+02
1.000000e+02
1.000000e+02
1.000000e+02
1.000000e+02
1.000000e+02
1.000000e+02
1.000000e+02
1.000000e+02
1.000000e+02
1.000000e+02
1.000000e+02
1.000000e+02
0.000000e+00
-9.984019e-01
-1.799231e+00
-2.544014e+00
-3.303196e+00
-4.072472e+00
-4.838837e+00
-5.601498e+00
-6.380870e+00
-7.263595e+00
-8.287094e+00
-9.178785e+00
-9.896871e+00
-1.065100e+01
-1.145789e+01
-1.221511e+01
-1.268627e+01
0.000000e+00
-5.535711e-01
-1.139004e+00
-1.692661e+00
-2.249692e+00
-2.806795e+00
-3.361556e+00
-3.908791e+00
-4.469755e+00
-5.112158e+00
-5.870211e+00
-6.524338e+00
-7.020536e+00
-7.457262e+00
-7.784116e+00
-7.852651e+00
-8.017344e+00
0.000000e+00
-3.011314e-01
-6.319365e-01
-9.870903e-01
-1.344546e+00
-1.698719e+00
-2.056314e+00
-2.421005e+00
-2.805256e+00
-3.238221e+00
-3.699751e+00
-4.069645e+00
-4.325306e+00
-4.474793e+00
-4.483889e+00
-4.429931e+00
-4.621136e+00
0.000000e+00
-1.255576e-01
-2.777116e-01
-4.456656e-01
-6.143403e-01
-7.778865e-01
-9.423536e-01
-1.118920e+00
-1.312692e+00
-1.520736e+00
-1.701681e+00
-1.820513e+00
-1.871086e+00
-1.849851e+00
-1.774272e+00
-1.768744e+00
-1.937839e+00
0.000000e+00
-3.742083e-03
-5.030776e-03
-1.363687e-03
8.212151e-03
2.329204e-02
4.400250e-02
7.051993e-02
1.040209e-01
1.498226e-01
2.098419e-01
2.867754e-01
3.835432e-01
4.924588e-01
5.773402e-01
5.638683e-01
4.426790e-01
0.000000e+00
1.231029e-01
2.714791e-01
4.379384e-01
6.137970e-01
7.972016e-01
9.959029e-01
1.227306e+00
1.498358e+00
1.804357e+00
2.091098e+00
2.326080e+00
2.529978e+00
2.708501e+00
2.822262e+00
2.830041e+00
2.767962e+00
0.000000e+00
3.031758e-01
6.291732e-01
9.722631e-01
1.316117e+00
1.664155e+00
2.034630e+00
2.446825e+00
2.921086e+00
3.466504e+00
3.997165e+00
4.404068e+00
4.709751e+00
4.943805e+00
5.096628e+00
5.144072e+00
5.130746e+00
0.000000e+00
5.580321e-01
1.139455e+00
1.676451e+00
2.205569e+00
2.735360e+00
3.284583e+00
3.871723e+00
4.528734e+00
5.280227e+00
6.039177e+00
6.640993e+00
7.074429e+00
7.373083e+00
7.551511e+00
7.622095e+00
7.635142e+00
0.000000e+00
1.007133e+00
1.803399e+00
2.529128e+00
3.253979e+00
3.989104e+00
4.751524e+00
5.565549e+00
6.457065e+00
7.442025e+00
8.394624e+00
9.166384e+00
9.720044e+00
1.006933e+01
1.022540e+01
1.024996e+01
1.024545e+01
0.000000e+00
-6.092681e-01
-1.242596e+00
-2.073197e+00
-3.097218e+00
-4.329411e+00
-5.782739e+00
-7.467766e+00
-9.403763e+00
-1.162463e+01
-1.410716e+01
-1.674466e+01
-1.956627e+01
-2.263033e+01
-2.600607e+01
-2.993340e+01
-3.551418e+01
0.000000e+00
-3.833644e-01
-1.050786e+00
-1.879191e+00
-2.899637e+00
-4.129467e+00
-5.583954e+00
-7.268803e+00
-9.191778e+00
-1.138039e+01
-1.386359e+01
-1.654986e+01
-1.939571e+01
-2.246508e+01
-2.587338e+01
-2.981658e+01
-3.455965e+01
0.000000e+00
-3.100618e-01
-9.274269e-01
-1.751290e+00
-2.766091e+00
-3.989468e+00
-5.439223e+00
-7.122900e+00
-9.040998e+00
-1.123183e+01
-1.373257e+01
-1.644512e+01
-1.931823e+01
-2.241779e+01
-2.585303e+01
-2.959982e+01
-3.309856e+01
0.000000e+00
-3.040582e-01
-8.857574e-01
-1.689323e+00
-2.694769e+00
-3.907358e+00
-5.343529e+00
-7.023008e+00
-8.953326e+00
-1.117999e+01
-1.370349e+01
-1.642794e+01
-1.931573e+01
-2.241952e+01
-2.577553e+01
-2.915179e+01
-3.205970e+01
0.000000e+00
-3.144773e-01
-8.840339e-01
-1.678533e+00
-2.677795e+00
-3.883869e+00
-5.309125e+00
-6.984993e+00
-8.933455e+00
-1.119677e+01
-1.374128e+01
-1.646612e+01
-1.934942e+01
-2.241512e+01
-2.563145e+01
-2.871552e+01
-3.133982e+01
0.000000e+00
-3.087056e-01
-8.958585e-01
-1.702573e+00
-2.708967e+00
-3.918122e+00
-5.346422e+00
-7.026422e+00
-8.980652e+00
-1.125935e+01
-1.381621e+01
-1.653739e+01
-1.940145e+01
-2.241199e+01
-2.549747e+01
-2.841269e+01
-3.096115e+01
0.000000e+00
-3.164366e-01
-9.411167e-01
-1.770532e+00
-2.787477e+00
-4.006595e+00
-5.448566e+00
-7.137022e+00
-9.096688e+00
-1.137154e+01
-1.392365e+01
-1.663483e+01
-1.947797e+01
-2.243572e+01
-2.541326e+01
-2.822649e+01
-3.079321e+01
0.000000e+00
-3.893810e-01
-1.062999e+00
-1.895916e+00
-2.918097e+00
-4.145346e+00
-5.599089e+00
-7.300963e+00
-9.277893e+00
-1.155359e+01
-1.408289e+01
-1.676733e+01
-1.958313e+01
-2.249263e+01
-2.539320e+01
-2.815265e+01
-3.076748e+01
0.000000e+00
-6.156971e-01
-1.251739e+00
-2.083032e+00
-3.106313e+00
-4.339216e+00
-5.803150e+00
-7.522393e+00
-9.524453e+00
-1.181354e+01
-1.431034e+01
-1.694411e+01
-1.970925e+01
-2.256471e+01
-2.540921e+01
-2.813952e+01
-3.077201e+01


0.000000e+00
2.493650e-05
4.360512e-05
5.464041e-05
6.246159e-05
7.022509e-05
7.837535e-05
8.548374e-05
9.054181e-05
9.283620e-05
9.071843e-05
8.522932e-05
7.963216e-05
7.474204e-05
7.183698e-05
7.135269e-05
7.205625e-05
0.000000e+00
1.988734e-05
3.732158e-05
4.469192e-05
4.974991e-05
5.566730e-05
6.266531e-05
6.901680e-05
7.371897e-05
7.595216e-05
7.362946e-05
6.808612e-05
6.279975e-05
5.801710e-05
5.428342e-05
5.337422e-05
5.427135e-05
0.000000e+00
1.431689e-05
2.588111e-05
3.148934e-05
3.584243e-05
4.030567e-05
4.527680e-05
4.968816e-05
5.266760e-05
5.334223e-05
5.077938e-05
4.667131e-05
4.294263e-05
3.984222e-05
3.753792e-05
3.714195e-05
3.818208e-05
0.000000e+00
6.700274e-06
1.129065e-05
1.555892e-05
1.848472e-05
2.091044e-05
2.322145e-05
2.523146e-05
2.621981e-05
2.585011e-05
2.427969e-05
2.246425e-05
2.108852e-05
2.019084e-05
1.986572e-05
2.003751e-05
2.040959e-05
0.000000e+00
-1.390985e-07
-3.578559e-07
-6.560771e-07
-1.079299e-06
-1.607877e-06
-2.046699e-06
-2.837380e-06
-3.166027e-06
-3.347956e-06
-2.934894e-06
-2.063542e-06
-1.121229e-06
-3.775285e-07
-7.668820e-08
-3.492608e-07
-1.023624e-06
0.000000e+00
-7.030387e-06
-1.188199e-05
-1.649361e-05
-1.994210e-05
-2.315486e-05
-2.740848e-05
-3.230965e-05
-3.487540e-05
-3.355883e-05
-3.070418e-05
-2.736453e-05
-2.437516e-05
-2.231843e-05
-2.169526e-05
-2.219237e-05
-2.308581e-05
0.000000e+00
-1.469062e-05
-2.622840e-05
-3.164524e-05
-3.584695e-05
-4.035690e-05
-4.775629e-05
-5.733327e-05
-6.366673e-05
-6.327962e-05
-5.836903e-05
-5.310264e-05
-4.916252e-05
-4.646472e-05
-4.494125e-05
-4.468384e-05
-4.506324e-05
0.000000e+00
-2.018671e-05
-3.742792e-05
-4.428750e-05
-4.882488e-05
-5.442389e-05
-6.311070e-05
-7.425565e-05
-8.328238e-05
-8.590744e-05
-8.195491e-05
-7.623957e-05
-7.232730e-05
-6.951241e-05
-6.732438e-05
-6.634473e-05
-6.616084e-05
0.000000e+00
-2.511663e-05
-4.348376e-05
-5.398482e-05
-6.144038e-05
-6.918696e-05
-7.886537e-05
-8.877564e-05
-9.699595e-05
-1.004814e-04
-9.900729e-05
-9.507855e-05
-9.200890e-05
-8.946399e-05
-8.726265e-05
-8.618786e-05
-8.591438e-05
0.000000e+00
2.027835e-05
2.949656e-05
3.887208e-05
5.235288e-05
6.903508e-05
8.731890e-05
1.060319e-04
1.245317e-04
1.414023e-04
1.552361e-04
1.685973e-04
1.825598e-04
1.958260e-04
2.105923e-04
2.296325e-04
2.498792e-04
0.000000e+00
1.048995e-05
2.332640e-05
3.511287e-05
4.907345e-05
6.523655e-05
8.343581e-05
1.028118e-04
1.224084e-04
1.409488e-04
1.568587e-04
1.711443e-04
1.850919e-04
1.981293e-04
2.113720e-04
2.285917e-04
2.481500e-04
0.000000e+00
4.554700e-06
1.779316e-05
3.203355e-05
4.643898e-05
6.241604e-05
8.060198e-05
1.006076e-04
1.213559e-04
1.413164e-04
1.585078e-04
1.734196e-04
1.873337e-04
2.001546e-04
2.117947e-04
2.268102e-04
2.455101e-04
0.000000e+00
2.877671e-06
1.481670e-05
2.964076e-05
4.480822e-05
6.114544e-05
7.954296e-05
1.001407e-04
1.217730e-04
1.421904e-04
1.595995e-04
1.745371e-04
1.882239e-04
2.011865e-04
2.126343e-04
2.258993e-04
2.436267e-04
0.000000e+00
2.870976e-06
1.404952e-05
2.869287e-05
4.427987e-05
6.062035e-05
7.887452e-05
1.000502e-04
1.223611e-04
1.426690e-04
1.597870e-04
1.744649e-04
1.879972e-04
2.015048e-04
2.144156e-04
2.276908e-04
2.445919e-04
0.000000e+00
3.055912e-06
1.515094e-05
2.999783e-05
4.505800e-05
6.064727e-05
7.853696e-05
9.994445e-05
1.225824e-04
1.424629e-04
1.589910e-04
1.733660e-04
1.870558e-04
2.014072e-04
2.159419e-04
2.303501e-04
2.471866e-04
0.000000e+00
4.838647e-06
1.825254e-05
3.246115e-05
4.666557e-05
6.206581e-05
8.033162e-05
1.017874e-04
1.232208e-04
1.415820e-04
1.571850e-04
1.713657e-04
1.857466e-04
2.009081e-04
2.163342e-04
2.320848e-04
2.497292e-04
0.000000e+00
1.082067e-05
2.370935e-05
3.536154e-05
4.916930e-05
6.539670e-05
8.505600e-05
1.064240e-04
1.256709e-04
1.412321e-04
1.548010e-04
1.688874e-04
1.842264e-04
2.000341e-04
2.159362e-04
2.326962e-04
2.509545e-04
0.000000e+00
2.061556e-05
2.970587e-05
3.890741e-05
5.231066e-05
6.954406e-05
9.037605e-05
1.115386e-04
1.291138e-04
1.416262e-04
1.528992e-04
1.667895e-04
1.828350e-04
1.990367e-04
2.153405e-04
2.327438e-04
2.512115e-04


2.584816e+00
2.500105e+00
2.520601e+00
2.750594e+00
2.986433e+00
3.234402e+00
3.609489e+00
4.258070e+00
6.018812e+00
7.991157e+00
7.972011e+00
7.092475e+00
7.416895e+00
7.324758e+00
5.901449e+00
4.622069e+00
3.312679e+00
3.337932e+00
3.405464e+00
3.594515e+00
3.865958e+00
4.376760e+00
4.712847e+00
5.349603e+00
6.696153e+00
8.106702e+00
7.907770e+00
7.119476e+00
7.303080e+00
7.527255e+00
6.350143e+00
5.102836e+00
5.012358e+00
5.059512e+00
4.848806e+00
4.772573e+00
5.067292e+00
5.690335e+00
6.430548e+00
6.950296e+00
7.784699e+00
8.234455e+00
7.670159e+00
7.006139e+00
7.175342e+00
7.806773e+00
7.580707e+00
6.667526e+00
6.711261e+00
6.355438e+00
5.585270e+00
5.175721e+00
5.335452e+00
6.093232e+00
7.163478e+00
8.077933e+00
8.460551e+00
8.105557e+00
7.326282e+00
6.829158e+00
7.275224e+00
8.121349e+00
8.376212e+00
7.853268e+00
6.632298e+00
6.164519e+00
5.448005e+00
5.139164e+00
5.437288e+00
6.254731e+00
7.427411e+00
8.330130e+00
8.766629e+00
8.234742e+00
7.217614e+00
7.067673e+00
7.623280e+00
8.470516e+00
8.513398e+00
7.690121e+00
4.893607e+00
4.842311e+00
4.621869e+00
4.725494e+00
5.201911e+00
6.026633e+00
6.958043e+00
7.814830e+00
8.710659e+00
8.586065e+00
7.542695e+00
7.209005e+00
7.928983e+00
8.470261e+00
8.141498e+00
7.506256e+00
3.354790e+00
3.293187e+00
3.323396e+00
3.508965e+00
3.884345e+00
4.587855e+00
5.323975e+00
6.505628e+00
7.908017e+00
8.534843e+00
7.883901e+00
7.420750e+00
7.482438e+00
7.569401e+00
7.120864e+00
6.473067e+00
2.603178e+00
2.478459e+00
2.443097e+00
2.629013e+00
2.902720e+00
3.363122e+00
4.143917e+00
5.413791e+00
7.098083e+00
8.107270e+00
8.064191e+00
7.578648e+00
7.122517e+00
6.712768e+00
5.944922e+00
5.109852e+00


-1.119492e+00
-6.898156e-01
-4.752122e-01
-5.150198e-01
-5.402210e-01
-5.321340e-01
-5.125384e-01
-5.947263e-01
-1.071986e+00
-1.795881e+00
-1.091714e+00
-2.921620e-01
-2.275126e-01
-1.055515e-01
3.948257e-01
-8.567805e-01
3.205223e-01
1.843976e-01
2.128608e-01
2.062061e-01
2.017149e-01
1.777711e-01
1.413417e-01
3.342232e-02
-2.716622e-01
-6.028236e-01
-1.210827e-01
3.933029e-01
6.166615e-01
7.834287e-01
5.919760e-01
-2.158376e+00
7.746162e-01
6.337786e-01
5.629245e-01
5.466555e-01
5.287032e-01
4.779160e-01
3.902236e-01
2.763765e-01
8.908514e-02
-4.542164e-03
2.550799e-01
4.900861e-01
4.977721e-01
1.706433e-01
-4.230345e-01
-1.319321e+00
8.904773e-01
7.588235e-01
6.775675e-01
6.388051e-01
5.983368e-01
5.351734e-01
4.403136e-01
3.508326e-01
2.175248e-01
1.310295e-01
2.023172e-01
2.266452e-01
2.964757e-02
-4.065300e-01
-4.989203e-01
-4.013645e-01
8.928164e-01
7.626882e-01
6.725243e-01
6.132256e-01
5.504950e-01
4.658885e-01
3.405933e-01
2.133201e-01
2.971377e-02
-5.767305e-02
7.069564e-03
-2.622880e-02
-2.044230e-01
-3.615930e-01
-1.449713e-02
4.699448e-01
7.727440e-01
6.379157e-01
5.661995e-01
5.272628e-01
4.671323e-01
3.534427e-01
1.575069e-01
-1.099180e-01
-4.570984e-01
-4.922942e-01
-1.729679e-01
-4.285369e-02
-7.765133e-02
3.238924e-03
4.325149e-01
8.198549e-01
3.078694e-01
1.947398e-01
2.531532e-01
2.613605e-01
2.354788e-01
1.307027e-01
-7.363943e-02
-4.333143e-01
-9.458330e-01
-1.008722e+00
-3.643381e-01
8.720350e-02
3.070048e-01
5.271727e-01
8.215755e-01
9.764325e-01
-1.156888e+00
-6.692641e-01
-3.959589e-01
-3.774143e-01
-4.047114e-01
-5.159130e-01
-7.392030e-01
-1.140139e+00
-1.704313e+00
-1.635422e+00
-7.134146e-01
8.366315e-02
5.641179e-01
8.496355e-01
9.788388e-01
9.998373e-01
1 2 19 18
2 3 20 19
3 4 21 20
4 5 22 21
5 6 23 22
6 7 24 23
7 8 25 24
8 9 26 25
9 10 27 26
10 11 28 27
11 12 29 28
12 13 30 29
13 14 31 30
14 15 32 31
15 16 33 32
16 17 34 33
18 19 36 35
19 20 37 36
20 21 38 37
21 22 39 38
22 23 40 39
23 24 41 40
24 25 42 41
25 26 43 42
26 27 44 43
27 28 45 44
28 29 46 45
29 30 47 46
30 31 48 47
31 32 49 48
32 33 50 49
33 34 51 50
35 36 53 52
36 37 54 53
37 38 55 54
38 39 56 55
39 40 57 56
40 41 58 57
41 42 59 58
42 43 60 59
43 44 61 60
44 45 62 61
45 46 63 62
46 47 64 63
47 48 65 64
48 49 66 65
49 50 67 66
50 51 68 67
52 53 70 69
53 54 71 70
54 55 72 71
55 56 73 72
56 57 74 73
57 58 75 74
58 59 76 75
59 60 77 76
60 61 78 77
61 62 79 78
62 63 80 79
63 64 81 80
64 65 82 81
65 66 83 82
66 67 84 83
67 68 85 84
69 70 87 86
70 71 88 87
71 72 89 88
72 73 90 89
73 74 91 90
74 75 92 91
75 76 93 92
76 77 94 93
77 78 95 94
78 79 96 95
79 80 97 96
80 81 98 97
81 82 99 98
82 83 100 99
83 84 101 100
84 85 102 101
86 87 104 103
87 88 105 104
88 89 106 105
89 90 107 106
90 91 108 107
91 92 109 108
92 93 110 109
93 94 111 110
94 95 112 111
95 96 113 112
96 97 114 113
97 98 115 114
98 99 116 115
99 100 117 116
100 101 118 117
101 102 119 118
103 104 121 120
104 105 122 121
105 106 123 122
106 107 124 123
107 108 125 124
108 109 126 125
109 110 127 126
110 111 128 127
111 112 129 128
112 113 130 129
113 114 131 130
114 115 132 131
115 116 133 132
116 117 134 133
117 118 135 134
118 119 136 135
120 121 138 137
121 122 139 138
122 123 140 139
123 124 141 140
124 125 142 141
125 126 143 142
126 127 144 143
127 128 145 144
128 129 146 145
129 130 147 146
130 131 148 147
131 132 149 148
132 133 150 149
133 134 151 150
134 135 152 151
135 136 153 152
