TITLE = "Solution"
VARIABLES = x, y, u, v, psiu, psiv, t, stress
ZONE T="structure" N=153 E=128 F=FEBLOCK ET=QUADRILATERAL VARLOCATION=([7,8]=cellcentered)
0.000000e+00
1.250000e+01
2.500000e+01
3.750000e+01
5.000000e+01
6.250000e+01
7.500000e+01
8.750000e+01
1.000000e+02
1.125000e+02
1.250000e+02
1.375000e+02
1.500000e+02
1.625000e+02
1.750000e+02
1.875000e+02
2.000000e+02
0.000000e+00
1.250000e+01
2.500000e+01
3.750000e+01
5.000000e+01
6.250000e+01
7.500000e+01
8.750000e+01
1.000000e+02
1.125000e+02
1.250000e+02
1.375000e+02
1.500000e+02
1.625000e+02
1.750000e+02
1.875000e+02
2.000000e+02
0.000000e+00
1.250000e+01
2.500000e+01
3.750000e+01
5.000000e+01
6.250000e+01
7.500000e+01
8.750000e+01
1.000000e+02
1.125000e+02
1.250000e+02
1.375000e+02
1.500000e+02
1.625000e+02
1.750000e+02
1.875000e+02
2.000000e+02
0.000000e+00
1.250000e+01
2.500000e+01
3.750000e+01
5.000000e+01
6.250000e+01
7.500000e+01
8.750000e+01
1.000000e+02
1.125000e+02
1.250000e+02
1.375000e+02
1.500000e+02
1.625000e+02
1.750000e+02
1.875000e+02
2.000000e+02
0.000000e+00
1.250000e+01
2.500000e+01
3.750000e+01
5.000000e+01
6.250000e+01
7.500000e+01
8.750000e+01
1.000000e+02
1.125000e+02
1.250000e+02
1.375000e+02
1.500000e+02
1.625000e+02
1.750000e+02
1.875000e+02
2.000000e+02
0.000000e+00
1.250000e+01
2.500000e+01
3.750000e+01
5.000000e+01
6.250000e+01
7.500000e+01
8.750000e+01
1.000000e+02
1.125000e+02
1.250000e+02
1.375000e+02
1.500000e+02
1.625000e+02
1.750000e+02
1.875000e+02
2.000000e+02
0.000000e+00
1.250000e+01
2.500000e+01
3.750000e+01
5.000000e+01
6.250000e+01
7.500000e+01
8.750000e+01
1.000000e+02
1.125000e+02
1.250000e+02
1.375000e+02
1.500000e+02
1.625000e+02
1.750000e+02
1.875000e+02
2.000000e+02
0.000000e+00
1.250000e+01
2.500000e+01
3.750000e+01
5.000000e+01
6.250000e+01
7.500000e+01
8.750000e+01
1.000000e+02
1.125000e+02
1.250000e+02
1.375000e+02
1.500000e+02
1.625000e+02
1.750000e+02
1.875000e+02
2.000000e+02
0.000000e+00
1.250000e+01
2.500000e+01
3.750000e+01
5.000000e+01
6.250000e+01
7.500000e+01
8.750000e+01
1.000000e+02
1.125000e+02
1.250000e+02
1.375000e+02
1.500000e+02
1.625000e+02
1.750000e+02
1.875000e+02
2.000000e+02
0.000000e+00
0.000000e+00
0.000000e+00
0.000000e+00
0.000000e+00
0.000000e+00
0.000000e+00
0.000000e+00
0.000000e+00
0.000000e+00
0.000000e+00
0.000000e+00
0.000000e+00
0.000000e+00
0.000000e+00
0.000000e+00
0.000000e+00
1.250000e+01
1.250000e+01
1.250000e+01
1.250000e+01
1.250000e+01
1.250000e+01
1.250000e+01
1.250000e+01
1.250000e+01
1.250000e+01
1.250000e+01
1.250000e+01
1.250000e+01
1.250000e+01
1.250000e+01
1.250000e+01
1.250000e+01
2.500000e+01
2.500000e+01
2.500000e+01
2.500000e+01
2.500000e+01
2.500000e+01
2.500000e+01
2.500000e+01
2.500000e+01
2.500000e+01
2.500000e+01
2.500000e+01
2.500000e+01
2.500000e+01
2.500000e+01
2.500000e+01
2.500000e+01
3.750000e+01
3.750000e+01
3.750000e+01
3.750000e+01
3.750000e+01
3.750000e+01
3.750000e+01
3.750000e+01
3.750000e+01
3.750000e+01
3.750000e+01
3.750000e+01
3.750000e+01
3.750000e+01
3.750000e+01
3.750000e+01
3.750000e+01
5.000000e+01
5.000000e+01
5.000000e+01
5.000000e+01
5.000000e+01
5.000000e+01
5.000000e+01
5.000000e+01
5.000000e+01
5.000000e+01
5.000000e+01
5.000000e+01
5.000000e+01
5.000000e+01
5.000000e+01
5.000000e+01
5.000000e+01
6.250000e+01
6.250000e+01
6.250000e+01
6.250000e+01
6.250000e+01
6.250000e+01
6.250000e+01
6.250000e+01
6.250000e+01
6.250000e+01
6.250000e+01
6.250000e+01
6.250000e+01
6.250000e+01
6.250000e+01
6.250000e+01
6.250000e+01
7.500000e+01
7.500000e+01
7.500000e+01
7.500000e+01
7.500000e+01
7.500000e+01
7.500000e+01
7.500000e+01
7.500000e+01
7.500000e+01
7.500000e+01
7.500000e+01
7.500000e+01
7.500000e+01
7.500000e+01
7.500000e+01
7.500000e+01
8.750000e+01
8.750000e+01
8.750000e+01
8.750000e+01
8.750000e+01
8.750000e+01
8.750000e+01
8.750000e+01
8.750000e+01
8.750000e+01
8.750000e+01
8.750000e+01
8.750000e+01
8.750000e+01
8.750000e+01
8.750000e+01
8.750000e+01
1.000000e+02
1.000000e+02
1.000000e+02
1.000000e+02
1.000000e+02
1.000000e+02
1.000000e+02
1.000000e+02
1.000000e+02
1.000000e+02
1.000000e+02
1.000000e+02
1.000000e+02
1.000000e+02
1.000000e+02
1.000000e+02
1.000000e+02
0.000000e+00
-5.736205e-02
-1.228265e-01
-1.792723e-01
-2.091177e-01
-2.374016e-01
-2.746759e-01
-3.349466e-01
-3.923886e-01
-4.464431e-01
-4.907631e-01
-5.216932e-01
-5.772355e-01
-6.419903e-01
-7.230976e-01
-8.555866e-01
-1.004221e+00
0.000000e+00
-3.461036e-02
-8.760845e-02
-1.272776e-01
-1.501566e-01
-1.687825e-01
-1.932046e-01
-2.356522e-01
-2.831552e-01
-3.218644e-01
-3.524386e-01
-3.805670e-01
-4.152610e-01
-4.451208e-01
-4.637861e-01
-4.617798e-01
-4.830951e-01
0.000000e+00
-2.576375e-02
-5.610050e-02
-7.994720e-02
-9.643665e-02
-1.100024e-01
-1.256552e-01
-1.497176e-01
-1.808820e-01
-2.024331e-01
-2.226058e-01
-2.449201e-01
-2.606860e-01
-2.679166e-01
-2.657680e-01
-2.618649e-01
-2.936017e-01
0.000000e+00
-1.379971e-02
-2.711413e-02
-3.866197e-02
-4.796708e-02
-5.682360e-02
-6.481681e-02
-7.328885e-02
-8.264862e-02
-8.942022e-02
-9.840877e-02
-1.080398e-01
-1.131675e-01
-1.140152e-01
-1.133325e-01
-1.175688e-01
-1.298415e-01
0.000000e+00
7.906392e-04
1.113110e-03
1.034247e-03
3.651427e-04
-4.322533e-04
-1.132063e-03
-2.073017e-03
-3.952025e-03
-6.418113e-03
-3.128982e-03
9.700097e-03
1.952335e-02
2.694062e-02
2.923913e-02
2.844979e-02
2.413805e-02
0.000000e+00
1.413218e-02
2.901201e-02
4.239087e-02
5.322560e-02
6.159293e-02
6.690061e-02
7.077303e-02
7.331272e-02
7.731552e-02
8.669276e-02
1.050266e-01
1.377408e-01
1.630527e-01
1.735823e-01
1.752550e-01
1.732165e-01
0.000000e+00
2.176307e-02
5.120322e-02
8.660791e-02
1.140238e-01
1.304105e-01
1.414370e-01
1.520877e-01
1.656063e-01
1.791787e-01
1.921580e-01
2.086699e-01
2.431993e-01
2.992359e-01
3.147592e-01
3.185295e-01
3.177955e-01
0.000000e+00
2.683770e-02
6.802556e-02
1.364486e-01
1.821292e-01
2.051035e-01
2.223056e-01
2.402009e-01
2.623131e-01
2.861834e-01
3.049895e-01
3.214815e-01
3.397035e-01
3.993658e-01
4.410933e-01
4.550958e-01
4.565537e-01
0.000000e+00
4.758044e-02
9.894810e-02
1.923364e-01
2.482377e-01
2.812331e-01
3.069405e-01
3.348033e-01
3.671503e-01
4.021788e-01
4.324108e-01
4.539527e-01
4.923223e-01
5.443377e-01
5.734320e-01
5.902063e-01
5.927380e-01
0.000000e+00
-3.714716e-02
-7.591197e-02
-1.197886e-01
-1.751026e-01
-2.411667e-01
-3.218415e-01
-4.216589e-01
-5.323727e-01
-6.550842e-01
-7.924256e-01
-9.399658e-01
-1.102403e+00
-1.275484e+00
-1.482182e+00
-1.800874e+00
-2.559899e+00
0.000000e+00
-2.150072e-02
-6.010533e-02
-1.096642e-01
-1.680195e-01
-2.334644e-01
-3.100213e-01
-4.053527e-01
-5.175437e-01
-6.422894e-01
-7.822327e-01
-9.309133e-01
-1.090643e+00
-1.265344e+00
-1.466168e+00
-1.759586e+00
-2.346184e+00
0.000000e+00
-1.501170e-02
-5.071376e-02
-1.022138e-01
-1.622703e-01
-2.287430e-01
-3.035161e-01
-3.945689e-01
-5.069826e-01
-6.331438e-01
-7.736414e-01
-9.250850e-01
-1.088232e+00
-1.265921e+00
-1.462993e+00
-1.695536e+00
-1.954112e+00
0.000000e+00
-1.234804e-02
-4.616302e-02
-9.667143e-02
-1.575845e-01
-2.265425e-01
-3.028384e-01
-3.912257e-01
-5.008807e-01
-6.270233e-01
-7.676939e-01
-9.220533e-01
-1.088675e+00
-1.269147e+00
-1.456471e+00
-1.641916e+00
-1.817905e+00
0.000000e+00
-1.128465e-02
-4.364764e-02
-9.278221e-02
-1.549732e-01
-2.266144e-01
-3.052381e-01
-3.932427e-01
-4.997228e-01
-6.267174e-01
-7.633570e-01
-9.180694e-01
-1.086615e+00
-1.271925e+00
-1.450437e+00
-1.621542e+00
-1.781953e+00
0.000000e+00
-1.240929e-02
-4.277629e-02
-9.157217e-02
-1.553113e-01
-2.290494e-01
-3.089207e-01
-3.976688e-01
-5.046153e-01
-6.305279e-01
-7.645994e-01
-9.102865e-01
-1.082115e+00
-1.273307e+00
-1.448725e+00
-1.613670e+00
-1.767612e+00
0.000000e+00
-1.551136e-02
-4.475671e-02
-9.410243e-02
-1.592917e-01
-2.332453e-01
-3.135857e-01
-4.038220e-01
-5.105409e-01
-6.340996e-01
-7.678481e-01
-9.106939e-01
-1.075440e+00
-1.277589e+00
-1.448915e+00
-1.609903e+00
-1.759409e+00
0.000000e+00
-2.020146e-02
-5.309157e-02
-1.031926e-01
-1.667755e-01
-2.385999e-01
-3.191825e-01
-4.107931e-01
-5.173160e-01
-6.392318e-01
-7.719473e-01
-9.146704e-01
-1.071741e+00
-1.279300e+00
-1.451454e+00
-1.608451e+00
-1.753400e+00
0.000000e+00
-3.203888e-02
-6.974041e-02
-1.221389e-01
-1.773736e-01
-2.456766e-01
-3.260439e-01
-4.188656e-01
-5.261899e-01
-6.470593e-01
-7.787580e-01
-9.189640e-01
-1.084432e+00
-1.286448e+00
-1.456871e+00
-1.609426e+00
-1.750339e+00


0.000000e+00
1.321286e-05
-6.595166e-05
-2.665691e-04
-3.304231e-04
-3.433527e-04
-3.436921e-04
-3.404555e-04
-3.376841e-04
-3.370591e-04
-3.378766e-04
-3.386648e-04
-3.379818e-04
-3.353085e-04
-3.329724e-04
-3.310132e-04
-3.288801e-04
0.000000e+00
1.431251e-05
-8.282846e-05
-2.284962e-04
-2.810824e-04
-2.806227e-04
-2.790174e-04
-2.780305e-04
-2.740256e-04
-2.713587e-04
-2.704869e-04
-2.701886e-04
-2.693365e-04
-2.683086e-04
-2.676986e-04
-2.674292e-04
-2.661058e-04
0.000000e+00
-2.009757e-05
-8.323049e-05
-1.535128e-04
-1.888395e-04
-1.956857e-04
-2.001581e-04
-2.033969e-04
-2.041764e-04
-2.036893e-04
-2.023750e-04
-2.011363e-04
-2.007668e-04
-2.012541e-04
-2.022540e-04
-2.027627e-04
-2.024983e-04
0.000000e+00
-3.141097e-05
-5.787028e-05
-8.525505e-05
-1.008790e-04
-1.157496e-04
-1.242998e-04
-1.299289e-04
-1.349101e-04
-1.370046e-04
-1.371042e-04
-1.364507e-04
-1.371151e-04
-1.384392e-04
-1.397142e-04
-1.406832e-04
-1.409825e-04
0.000000e+00
-1.531748e-05
-2.788981e-05
-3.469167e-05
-4.346825e-05
-5.225513e-05
-5.941740e-05
-6.471152e-05
-6.975109e-05
-7.602144e-05
-8.133534e-05
-8.317824e-05
-8.147370e-05
-7.993017e-05
-7.961448e-05
-7.939776e-05
-7.931356e-05
0.000000e+00
1.053223e-06
3.140824e-06
5.486062e-06
5.149500e-06
2.101882e-06
-1.521772e-06
-5.263964e-06
-9.844425e-06
-1.456278e-05
-1.850958e-05
-2.147564e-05
-2.207465e-05
-1.949646e-05
-1.788204e-05
-1.731561e-05
-1.706720e-05
0.000000e+00
1.669236e-05
3.387173e-05
4.506100e-05
5.159149e-05
5.346637e-05
5.328955e-05
5.216734e-05
5.066164e-05
4.930785e-05
4.861180e-05
4.820421e-05
4.747535e-05
4.629773e-05
4.564758e-05
4.582627e-05
4.602488e-05
0.000000e+00
2.881473e-05
6.150501e-05
8.631781e-05
1.000344e-04
1.059068e-04
1.088886e-04
1.108453e-04
1.124967e-04
1.139627e-04
1.149938e-04
1.157064e-04
1.156098e-04
1.131375e-04
1.112173e-04
1.103153e-04
1.102572e-04
0.000000e+00
4.095102e-05
8.054588e-05
1.285564e-04
1.512496e-04
1.616844e-04
1.675377e-04
1.719868e-04
1.759604e-04
1.796527e-04
1.825706e-04
1.842197e-04
1.851710e-04
1.831278e-04
1.788314e-04
1.758896e-04
1.754068e-04
0.000000e+00
-2.908613e-05
-1.089840e-04
-1.427715e-04
-1.639583e-04
-2.102200e-04
-2.713842e-04
-3.295274e-04
-3.873416e-04
-4.493906e-04
-5.150118e-04
-5.834897e-04
-6.541491e-04
-7.225673e-04
-7.874971e-04
-8.486499e-04
-9.063066e-04
0.000000e+00
-1.245571e-05
-3.161085e-05
-8.425654e-05
-1.479264e-04
-2.079701e-04
-2.705724e-04
-3.293913e-04
-3.876966e-04
-4.494185e-04
-5.145694e-04
-5.833120e-04
-6.551494e-04
-7.233779e-04
-7.881697e-04
-8.502196e-04
-9.093467e-04
0.000000e+00
1.422868e-06
-2.343500e-07
-5.354789e-05
-1.327757e-04
-2.044368e-04
-2.662673e-04
-3.264950e-04
-3.866824e-04
-4.492016e-04
-5.130677e-04
-5.830369e-04
-6.561148e-04
-7.243008e-04
-7.878393e-04
-8.503677e-04
-9.113736e-04
0.000000e+00
5.586148e-06
-3.421240e-06
-5.196052e-05
-1.239431e-04
-1.950188e-04
-2.586673e-04
-3.204752e-04
-3.835365e-04
-4.474808e-04
-5.097138e-04
-5.816348e-04
-6.565830e-04
-7.246648e-04
-7.870973e-04
-8.493983e-04
-9.114063e-04
0.000000e+00
5.836519e-06
-1.196878e-05
-5.638147e-05
-1.199139e-04
-1.871790e-04
-2.516354e-04
-3.143651e-04
-3.778582e-04
-4.417783e-04
-5.037329e-04
-5.781756e-04
-6.558935e-04
-7.245375e-04
-7.865853e-04
-8.491279e-04
-9.115448e-04
0.000000e+00
3.198070e-06
-1.791641e-05
-6.113659e-05
-1.196839e-04
-1.836495e-04
-2.466165e-04
-3.093446e-04
-3.726772e-04
-4.373260e-04
-5.031690e-04
-5.750051e-04
-6.532482e-04
-7.238905e-04
-7.866540e-04
-8.493069e-04
-9.120185e-04
0.000000e+00
-2.254407e-06
-2.515915e-05
-6.645846e-05
-1.223238e-04
-1.827800e-04
-2.439971e-04
-3.062901e-04
-3.702793e-04
-4.358290e-04
-5.033286e-04
-5.737150e-04
-6.494890e-04
-7.224081e-04
-7.866766e-04
-8.495280e-04
-9.126772e-04
0.000000e+00
-1.227855e-05
-3.634868e-05
-7.295118e-05
-1.257902e-04
-1.833645e-04
-2.435078e-04
-3.055489e-04
-3.696751e-04
-4.357159e-04
-5.036019e-04
-5.736075e-04
-6.459078e-04
-7.192399e-04
-7.861283e-04
-8.496340e-04
-9.134369e-04
0.000000e+00
-2.793490e-05
-4.965933e-05
-8.193519e-05
-1.293960e-04
-1.851047e-04
-2.444400e-04
-3.062946e-04
-3.703341e-04
-4.363376e-04
-5.042074e-04
-5.737083e-04
-6.452609e-04
-7.173412e-04
-7.852500e-04
-8.494436e-04
-9.139746e-04


4.182295e+00
5.959818e+00
5.546765e+00
1.838678e+00
1.572644e+00
4.056470e+00
6.771026e+00
7.019409e+00
7.037255e+00
6.771026e+00
6.174841e+00
7.448498e+00
6.524526e+00
6.037372e+00
6.131425e+00
5.783648e+00
4.158289e+00
5.693953e+00
4.141580e+00
1.916839e+00
1.574428e+00
4.865696e+00
7.459044e+00
7.817718e+00
7.065104e+00
6.524993e+00
7.064241e+00
6.736035e+00
6.221204e+00
6.262143e+00
7.407167e+00
8.059338e+00
5.280731e+00
4.707589e+00
3.873921e+00
1.896493e+00
2.258363e+00
3.873921e+00
5.924896e+00
6.849336e+00
6.650049e+00
7.648690e+00
7.660843e+00
6.751690e+00
5.960858e+00
6.675612e+00
7.762621e+00
8.784699e+00
4.570887e+00
4.483991e+00
2.633092e+00
2.077428e+00
2.271222e+00
2.092839e+00
3.242644e+00
5.342190e+00
7.560218e+00
8.943213e+00
8.430788e+00
6.512588e+00
5.631812e+00
5.570671e+00
6.025967e+00
7.286872e+00
4.059605e+00
3.220062e+00
2.439299e+00
2.413581e+00
2.271222e+00
1.702699e+00
1.732386e+00
4.711959e+00
7.134865e+00
8.224889e+00
7.712837e+00
6.028234e+00
5.680426e+00
4.410419e+00
4.159430e+00
5.051097e+00
2.833369e+00
3.953320e+00
4.959532e+00
4.071759e+00
3.163039e+00
1.217263e+00
1.892609e+00
3.526618e+00
4.955649e+00
5.883001e+00
6.259566e+00
7.223470e+00
6.632747e+00
5.559010e+00
4.445836e+00
4.501415e+00
2.173575e+00
4.970324e+00
6.569136e+00
5.614529e+00
2.512131e+00
1.192723e+00
1.332494e+00
3.229204e+00
4.255155e+00
4.694491e+00
6.498232e+00
8.015715e+00
8.479155e+00
6.508858e+00
5.511050e+00
5.003371e+00
1.812689e+00
4.176619e+00
6.555954e+00
4.117538e+00
1.605954e+00
1.055517e-01
1.324261e+00
3.372424e+00
5.298383e+00
5.795148e+00
6.043530e+00
8.408897e+00
8.088326e+00
6.593712e+00
5.631258e+00
5.701539e+00


9.924353e-01
9.878013e-01
9.920375e-01
9.975459e-01
9.980639e-01
9.966396e-01
9.908286e-01
9.903400e-01
9.924393e-01
9.950187e-01
9.968164e-01
9.929500e-01
9.923545e-01
9.905456e-01
9.833375e-01
8.552634e-01
9.966853e-01
9.937267e-01
9.963446e-01
9.985108e-01
9.989409e-01
9.983711e-01
9.957901e-01
9.941607e-01
9.964673e-01
9.973268e-01
9.973328e-01
9.974635e-01
9.986976e-01
9.995739e-01
9.898328e-01
7.472637e-01
9.986139e-01
9.980942e-01
9.985262e-01
9.990140e-01
9.991195e-01
9.990056e-01
9.984345e-01
9.977366e-01
9.985976e-01
9.984660e-01
9.983448e-01
9.988421e-01
9.986865e-01
9.976277e-01
9.913123e-01
9.632246e-01
9.998284e-01
9.996435e-01
9.994732e-01
9.994141e-01
9.994225e-01
9.994603e-01
9.992398e-01
9.981979e-01
9.966966e-01
9.961670e-01
9.963642e-01
9.971722e-01
9.966826e-01
9.973637e-01
9.976294e-01
9.967307e-01
9.997744e-01
9.996298e-01
9.995283e-01
9.995237e-01
9.995889e-01
9.996419e-01
9.994435e-01
9.983784e-01
9.966710e-01
9.962038e-01
9.939988e-01
9.920918e-01
9.933197e-01
9.977756e-01
9.991426e-01
9.994409e-01
9.987750e-01
9.980292e-01
9.976415e-01
9.985566e-01
9.993323e-01
9.996199e-01
9.995388e-01
9.990666e-01
9.985048e-01
9.981490e-01
9.965559e-01
9.898791e-01
9.855769e-01
9.975717e-01
9.992973e-01
9.997844e-01
9.976823e-01
9.951941e-01
9.905828e-01
9.954263e-01
9.986306e-01
9.992628e-01
9.991691e-01
9.985323e-01
9.980944e-01
9.982830e-01
9.976832e-01
9.927962e-01
9.712945e-01
9.919959e-01
9.985657e-01
9.998112e-01
9.949996e-01
9.923732e-01
9.777595e-01
9.910427e-01
9.972498e-01
9.983776e-01
9.981433e-01
9.973232e-01
9.968128e-01
9.977361e-01
9.985391e-01
9.966678e-01
9.847168e-01
9.941568e-01
9.985164e-01
9.999002e-01
1 2 19 18
2 3 20 19
3 4 21 20
4 5 22 21
5 6 23 22
6 7 24 23
7 8 25 24
8 9 26 25
9 10 27 26
10 11 28 27
11 12 29 28
12 13 30 29
13 14 31 30
14 15 32 31
15 16 33 32
16 17 34 33
18 19 36 35
19 20 37 36
20 21 38 37
21 22 39 38
22 23 40 39
23 24 41 40
24 25 42 41
25 26 43 42
26 27 44 43
27 28 45 44
28 29 46 45
29 30 47 46
30 31 48 47
31 32 49 48
32 33 50 49
33 34 51 50
35 36 53 52
36 37 54 53
37 38 55 54
38 39 56 55
39 40 57 56
40 41 58 57
41 42 59 58
42 43 60 59
43 44 61 60
44 45 62 61
45 46 63 62
46 47 64 63
47 48 65 64
48 49 66 65
49 50 67 66
50 51 68 67
52 53 70 69
53 54 71 70
54 55 72 71
55 56 73 72
56 57 74 73
57 58 75 74
58 59 76 75
59 60 77 76
60 61 78 77
61 62 79 78
62 63 80 79
63 64 81 80
64 65 82 81
65 66 83 82
66 67 84 83
67 68 85 84
69 70 87 86
70 71 88 87
71 72 89 88
72 73 90 89
73 74 91 90
74 75 92 91
75 76 93 92
76 77 94 93
77 78 95 94
78 79 96 95
79 80 97 96
80 81 98 97
81 82 99 98
82 83 100 99
83 84 101 100
84 85 102 101
86 87 104 103
87 88 105 104
88 89 106 105
89 90 107 106
90 91 108 107
91 92 109 108
92 93 110 109
93 94 111 110
94 95 112 111
95 96 113 112
96 97 114 113
97 98 115 114
98 99 116 115
99 100 117 116
100 101 118 117
101 102 119 118
103 104 121 120
104 105 122 121
105 106 123 122
106 107 124 123
107 108 125 124
108 109 126 125
109 110 127 126
110 111 128 127
111 112 129 128
112 113 130 129
113 114 131 130
114 115 132 131
115 116 133 132
116 117 134 133
117 118 135 134
118 119 136 135
120 121 138 137
121 122 139 138
122 123 140 139
123 124 141 140
124 125 142 141
125 126 143 142
126 127 144 143
127 128 145 144
128 129 146 145
129 130 147 146
130 131 148 147
131 132 149 148
132 133 150 149
133 134 151 150
134 135 152 151
135 136 153 152
