TITLE = "Solution"
VARIABLES = x, y, u, v, psiu, psiv, t, stress
ZONE T="structure" N=153 E=128 F=FEBLOCK ET=QUADRILATERAL VARLOCATION=([7,8]=cellcentered)
0.000000e+00
1.250000e+01
2.500000e+01
3.750000e+01
5.000000e+01
6.250000e+01
7.500000e+01
8.750000e+01
1.000000e+02
1.125000e+02
1.250000e+02
1.375000e+02
1.500000e+02
1.625000e+02
1.750000e+02
1.875000e+02
2.000000e+02
0.000000e+00
1.250000e+01
2.500000e+01
3.750000e+01
5.000000e+01
6.250000e+01
7.500000e+01
8.750000e+01
1.000000e+02
1.125000e+02
1.250000e+02
1.375000e+02
1.500000e+02
1.625000e+02
1.750000e+02
1.875000e+02
2.000000e+02
0.000000e+00
1.250000e+01
2.500000e+01
3.750000e+01
5.000000e+01
6.250000e+01
7.500000e+01
8.750000e+01
1.000000e+02
1.125000e+02
1.250000e+02
1.375000e+02
1.500000e+02
1.625000e+02
1.750000e+02
1.875000e+02
2.000000e+02
0.000000e+00
1.250000e+01
2.500000e+01
3.750000e+01
5.000000e+01
6.250000e+01
7.500000e+01
8.750000e+01
1.000000e+02
1.125000e+02
1.250000e+02
1.375000e+02
1.500000e+02
1.625000e+02
1.750000e+02
1.875000e+02
2.000000e+02
0.000000e+00
1.250000e+01
2.500000e+01
3.750000e+01
5.000000e+01
6.250000e+01
7.500000e+01
8.750000e+01
1.000000e+02
1.125000e+02
1.250000e+02
1.375000e+02
1.500000e+02
1.625000e+02
1.750000e+02
1.875000e+02
2.000000e+02
0.000000e+00
1.250000e+01
2.500000e+01
3.750000e+01
5.000000e+01
6.250000e+01
7.500000e+01
8.750000e+01
1.000000e+02
1.125000e+02
1.250000e+02
1.375000e+02
1.500000e+02
1.625000e+02
1.750000e+02
1.875000e+02
2.000000e+02
0.000000e+00
1.250000e+01
2.500000e+01
3.750000e+01
5.000000e+01
6.250000e+01
7.500000e+01
8.750000e+01
1.000000e+02
1.125000e+02
1.250000e+02
1.375000e+02
1.500000e+02
1.625000e+02
1.750000e+02
1.875000e+02
2.000000e+02
0.000000e+00
1.250000e+01
2.500000e+01
3.750000e+01
5.000000e+01
6.250000e+01
7.500000e+01
8.750000e+01
1.000000e+02
1.125000e+02
1.250000e+02
1.375000e+02
1.500000e+02
1.625000e+02
1.750000e+02
1.875000e+02
2.000000e+02
0.000000e+00
1.250000e+01
2.500000e+01
3.750000e+01
5.000000e+01
6.250000e+01
7.500000e+01
8.750000e+01
1.000000e+02
1.125000e+02
1.250000e+02
1.375000e+02
1.500000e+02
1.625000e+02
1.750000e+02
1.875000e+02
2.000000e+02
0.000000e+00
0.000000e+00
0.000000e+00
0.000000e+00
0.000000e+00
0.000000e+00
0.000000e+00
0.000000e+00
0.000000e+00
0.000000e+00
0.000000e+00
0.000000e+00
0.000000e+00
0.000000e+00
0.000000e+00
0.000000e+00
0.000000e+00
1.250000e+01
1.250000e+01
1.250000e+01
1.250000e+01
1.250000e+01
1.250000e+01
1.250000e+01
1.250000e+01
1.250000e+01
1.250000e+01
1.250000e+01
1.250000e+01
1.250000e+01
1.250000e+01
1.250000e+01
1.250000e+01
1.250000e+01
2.500000e+01
2.500000e+01
2.500000e+01
2.500000e+01
2.500000e+01
2.500000e+01
2.500000e+01
2.500000e+01
2.500000e+01
2.500000e+01
2.500000e+01
2.500000e+01
2.500000e+01
2.500000e+01
2.500000e+01
2.500000e+01
2.500000e+01
3.750000e+01
3.750000e+01
3.750000e+01
3.750000e+01
3.750000e+01
3.750000e+01
3.750000e+01
3.750000e+01
3.750000e+01
3.750000e+01
3.750000e+01
3.750000e+01
3.750000e+01
3.750000e+01
3.750000e+01
3.750000e+01
3.750000e+01
5.000000e+01
5.000000e+01
5.000000e+01
5.000000e+01
5.000000e+01
5.000000e+01
5.000000e+01
5.000000e+01
5.000000e+01
5.000000e+01
5.000000e+01
5.000000e+01
5.000000e+01
5.000000e+01
5.000000e+01
5.000000e+01
5.000000e+01
6.250000e+01
6.250000e+01
6.250000e+01
6.250000e+01
6.250000e+01
6.250000e+01
6.250000e+01
6.250000e+01
6.250000e+01
6.250000e+01
6.250000e+01
6.250000e+01
6.250000e+01
6.250000e+01
6.250000e+01
6.250000e+01
6.250000e+01
7.500000e+01
7.500000e+01
7.500000e+01
7.500000e+01
7.500000e+01
7.500000e+01
7.500000e+01
7.500000e+01
7.500000e+01
7.500000e+01
7.500000e+01
7.500000e+01
7.500000e+01
7.500000e+01
7.500000e+01
7.500000e+01
7.500000e+01
8.750000e+01
8.750000e+01
8.750000e+01
8.750000e+01
8.750000e+01
8.750000e+01
8.750000e+01
8.750000e+01
8.750000e+01
8.750000e+01
8.750000e+01
8.750000e+01
8.750000e+01
8.750000e+01
8.750000e+01
8.750000e+01
8.750000e+01
1.000000e+02
1.000000e+02
1.000000e+02
1.000000e+02
1.000000e+02
1.000000e+02
1.000000e+02
1.000000e+02
1.000000e+02
1.000000e+02
1.000000e+02
1.000000e+02
1.000000e+02
1.000000e+02
1.000000e+02
1.000000e+02
1.000000e+02
0.000000e+00
-1.021698e+00
-1.834031e+00
-2.581643e+00
-3.339316e+00
-4.107563e+00
-4.875947e+00
-5.644667e+00
-6.434086e+00
-7.323464e+00
-8.342885e+00
-9.238827e+00
-9.976923e+00
-1.075385e+01
-1.156756e+01
-1.231755e+01
-1.278238e+01
0.000000e+00
-5.671214e-01
-1.161613e+00
-1.717780e+00
-2.273668e+00
-2.829794e+00
-3.386096e+00
-3.938925e+00
-4.509679e+00
-5.159989e+00
-5.914530e+00
-6.574087e+00
-7.085914e+00
-7.540099e+00
-7.872255e+00
-7.940433e+00
-8.103404e+00
0.000000e+00
-3.069290e-01
-6.418841e-01
-9.989789e-01
-1.356766e+00
-1.711459e+00
-2.071338e+00
-2.441317e+00
-2.833763e+00
-3.273162e+00
-3.739033e+00
-4.117044e+00
-4.383016e+00
-4.540364e+00
-4.551935e+00
-4.499567e+00
-4.691071e+00
0.000000e+00
-1.262418e-01
-2.787416e-01
-4.478025e-01
-6.183995e-01
-7.846409e-01
-9.530466e-01
-1.134854e+00
-1.334495e+00
-1.549234e+00
-1.739065e+00
-1.865644e+00
-1.922430e+00
-1.904798e+00
-1.829724e+00
-1.823214e+00
-1.992720e+00
0.000000e+00
-6.568267e-03
-1.100518e-02
-1.054141e-02
-4.162996e-03
7.430596e-03
2.421812e-02
4.644795e-02
7.578656e-02
1.182206e-01
1.767707e-01
2.535324e-01
3.492637e-01
4.564916e-01
5.400289e-01
5.256239e-01
4.032372e-01
0.000000e+00
1.180953e-01
2.611016e-01
4.231589e-01
5.953651e-01
7.752746e-01
9.704682e-01
1.197708e+00
1.464320e+00
1.768847e+00
2.058713e+00
2.296237e+00
2.501882e+00
2.682432e+00
2.797230e+00
2.804304e+00
2.740625e+00
0.000000e+00
3.027290e-01
6.276703e-01
9.693333e-01
1.311209e+00
1.656729e+00
2.023790e+00
2.431171e+00
2.900022e+00
3.441006e+00
3.970484e+00
4.375156e+00
4.679094e+00
4.917294e+00
5.075240e+00
5.124222e+00
5.110436e+00
0.000000e+00
5.639207e-01
1.149292e+00
1.687351e+00
2.215831e+00
2.744193e+00
3.291035e+00
3.874779e+00
4.528605e+00
5.274951e+00
6.028402e+00
6.621369e+00
7.048469e+00
7.350538e+00
7.535712e+00
7.608765e+00
7.622177e+00
0.000000e+00
1.020289e+00
1.823955e+00
2.552674e+00
3.277835e+00
4.012143e+00
4.772689e+00
5.584629e+00
6.474647e+00
7.454142e+00
8.397691e+00
9.154103e+00
9.701705e+00
1.005771e+01
1.022127e+01
1.024692e+01
1.024237e+01
0.000000e+00
-6.222788e-01
-1.266248e+00
-2.108864e+00
-3.145643e+00
-4.391351e+00
-5.859055e+00
-7.559734e+00
-9.512116e+00
-1.174630e+01
-1.423862e+01
-1.688976e+01
-1.972614e+01
-2.280531e+01
-2.619665e+01
-3.014136e+01
-3.571990e+01
0.000000e+00
-3.917876e-01
-1.072582e+00
-1.914687e+00
-2.948530e+00
-4.191417e+00
-5.659203e+00
-7.358367e+00
-9.297330e+00
-1.150171e+01
-1.399523e+01
-1.669150e+01
-1.954971e+01
-2.263619e+01
-2.606421e+01
-3.002547e+01
-3.477900e+01
0.000000e+00
-3.169509e-01
-9.474709e-01
-1.786058e+00
-2.814982e+00
-4.051444e+00
-5.513771e+00
-7.210608e+00
-9.144423e+00
-1.135137e+01
-1.386395e+01
-1.658536e+01
-1.947010e+01
-2.258675e+01
-2.604269e+01
-2.980771e+01
-3.332552e+01
0.000000e+00
-3.113323e-01
-9.045244e-01
-1.722550e+00
-2.742766e+00
-3.968996e+00
-5.417899e+00
-7.110150e+00
-9.054790e+00
-1.129626e+01
-1.383470e+01
-1.656973e+01
-1.946699e+01
-2.258622e+01
-2.596134e+01
-2.935601e+01
-3.228296e+01
0.000000e+00
-3.221768e-01
-9.017726e-01
-1.710111e+00
-2.724407e+00
-3.944691e+00
-5.383420e+00
-7.072328e+00
-9.033455e+00
-1.131141e+01
-1.387369e+01
-1.660992e+01
-1.949951e+01
-2.257952e+01
-2.581471e+01
-2.891675e+01
-3.155769e+01
0.000000e+00
-3.147323e-01
-9.118277e-01
-1.732317e+00
-2.753997e+00
-3.977977e+00
-5.420488e+00
-7.113661e+00
-9.080532e+00
-1.137471e+01
-1.395077e+01
-1.668233e+01
-1.955057e+01
-2.257336e+01
-2.567901e+01
-2.861132e+01
-3.117270e+01
0.000000e+00
-3.209595e-01
-9.562720e-01
-1.799386e+00
-2.831139e+00
-4.065030e+00
-5.521216e+00
-7.223089e+00
-9.197018e+00
-1.148835e+01
-1.405859e+01
-1.677971e+01
-1.962553e+01
-2.259504e+01
-2.559322e+01
-2.842235e+01
-3.099932e+01
0.000000e+00
-3.943152e-01
-1.078620e+00
-1.924585e+00
-2.960964e+00
-4.202578e+00
-5.670269e+00
-7.385810e+00
-9.378072e+00
-1.167054e+01
-1.421650e+01
-1.690991e+01
-1.972981e+01
-2.265221e+01
-2.557300e+01
-2.834701e+01
-3.097211e+01
0.000000e+00
-6.232352e-01
-1.268491e+00
-2.111940e+00
-3.148870e+00
-4.395816e+00
-5.873436e+00
-7.606591e+00
-9.623932e+00
-1.192907e+01
-1.444078e+01
-1.708316e+01
-1.985614e+01
-2.272642e+01
-2.558979e+01
-2.833363e+01
-3.097666e+01


0.000000e+00
2.939139e-05
5.030470e-05
6.159149e-05
6.912661e-05
7.657265e-05
8.477121e-05
9.220400e-05
9.757178e-05
9.995562e-05
9.765576e-05
9.180400e-05
8.575720e-05
8.052502e-05
7.753046e-05
7.706167e-05
7.777887e-05
0.000000e+00
2.444796e-05
4.456198e-05
5.179734e-05
5.636013e-05
6.185097e-05
6.871730e-05
7.524713e-05
8.011603e-05
8.233878e-05
7.989165e-05
7.411696e-05
6.848561e-05
6.338663e-05
5.956591e-05
5.869312e-05
5.961575e-05
0.000000e+00
1.785336e-05
3.152887e-05
3.741915e-05
4.177547e-05
4.609708e-05
5.102239e-05
5.550785e-05
5.849135e-05
5.901739e-05
5.622249e-05
5.183604e-05
4.786630e-05
4.468790e-05
4.243560e-05
4.210996e-05
4.317572e-05
0.000000e+00
8.704488e-06
1.452064e-05
1.991210e-05
2.341456e-05
2.604986e-05
2.842899e-05
3.040346e-05
3.114046e-05
3.049191e-05
2.865305e-05
2.667529e-05
2.534933e-05
2.457135e-05
2.440787e-05
2.462614e-05
2.498448e-05
0.000000e+00
1.164515e-06
2.227974e-06
2.968419e-06
3.192140e-06
2.805498e-06
2.266212e-06
8.002538e-07
4.826532e-08
-5.203619e-07
5.831713e-08
1.458719e-06
2.961786e-06
3.926162e-06
4.053274e-06
3.672264e-06
2.898107e-06
0.000000e+00
-5.042150e-06
-8.701983e-06
-1.220553e-05
-1.510702e-05
-1.823945e-05
-2.374636e-05
-3.094515e-05
-3.489165e-05
-3.326902e-05
-3.005109e-05
-2.578316e-05
-2.161423e-05
-1.897235e-05
-1.846811e-05
-1.915512e-05
-2.016502e-05
0.000000e+00
-1.122175e-05
-2.072181e-05
-2.581499e-05
-2.963784e-05
-3.385165e-05
-4.290773e-05
-5.634126e-05
-6.528050e-05
-6.501911e-05
-5.994062e-05
-5.413122e-05
-4.907547e-05
-4.541574e-05
-4.356392e-05
-4.318086e-05
-4.358542e-05
0.000000e+00
-1.569322e-05
-3.034130e-05
-3.741968e-05
-4.209538e-05
-4.758816e-05
-5.757731e-05
-7.213058e-05
-8.392731e-05
-8.722255e-05
-8.369820e-05
-7.806885e-05
-7.372874e-05
-7.029184e-05
-6.767795e-05
-6.653414e-05
-6.632248e-05
0.000000e+00
-2.070019e-05
-3.693128e-05
-4.733723e-05
-5.524308e-05
-6.348643e-05
-7.476899e-05
-8.678694e-05
-9.692129e-05
-1.009458e-04
-9.986379e-05
-9.619135e-05
-9.331779e-05
-9.116232e-05
-8.906772e-05
-8.794158e-05
-8.764829e-05
0.000000e+00
2.345634e-05
3.202832e-05
4.035719e-05
5.333926e-05
6.984376e-05
8.838035e-05
1.076868e-04
1.269582e-04
1.446959e-04
1.593766e-04
1.732732e-04
1.874882e-04
2.009590e-04
2.161217e-04
2.356033e-04
2.562581e-04
0.000000e+00
1.181883e-05
2.527317e-05
3.664071e-05
5.023606e-05
6.614936e-05
8.443824e-05
1.043380e-04
1.247641e-04
1.442723e-04
1.611048e-04
1.759728e-04
1.901842e-04
2.033446e-04
2.168745e-04
2.345310e-04
2.545117e-04
0.000000e+00
4.625670e-06
1.897096e-05
3.347301e-05
4.758237e-05
6.326964e-05
8.146340e-05
1.020003e-04
1.237168e-04
1.447890e-04
1.629484e-04
1.784508e-04
1.925429e-04
2.053916e-04
2.172273e-04
2.326891e-04
2.518552e-04
0.000000e+00
2.653274e-06
1.532428e-05
3.049542e-05
4.547801e-05
6.154265e-05
7.996969e-05
1.013389e-04
1.242721e-04
1.459998e-04
1.644027e-04
1.798415e-04
1.933832e-04
2.062651e-04
2.179592e-04
2.317569e-04
2.500388e-04
0.000000e+00
2.838668e-06
1.400728e-05
2.868767e-05
4.421233e-05
6.029066e-05
7.851853e-05
1.010097e-04
1.251733e-04
1.468967e-04
1.650402e-04
1.799606e-04
1.929626e-04
2.061877e-04
2.196427e-04
2.336321e-04
2.512926e-04
0.000000e+00
3.190476e-06
1.455416e-05
2.915237e-05
4.437143e-05
5.963482e-05
7.769177e-05
1.009808e-04
1.259498e-04
1.470222e-04
1.644091e-04
1.787235e-04
1.914694e-04
2.055882e-04
2.210838e-04
2.364187e-04
2.542736e-04
0.000000e+00
4.672402e-06
1.694876e-05
3.096604e-05
4.549922e-05
6.105634e-05
8.032131e-05
1.042315e-04
1.276061e-04
1.463231e-04
1.624388e-04
1.761722e-04
1.894930e-04
2.046584e-04
2.213188e-04
2.382254e-04
2.571623e-04
0.000000e+00
9.419739e-06
2.161820e-05
3.364059e-05
4.781153e-05
6.472056e-05
8.649369e-05
1.107179e-04
1.311827e-04
1.463241e-04
1.598169e-04
1.732610e-04
1.876307e-04
2.035972e-04
2.207450e-04
2.388250e-04
2.585402e-04
0.000000e+00
1.738696e-05
2.706593e-05
3.719110e-05
5.097266e-05
6.916153e-05
9.285628e-05
1.170058e-04
1.353818e-04
1.468931e-04
1.578932e-04
1.711451e-04
1.861916e-04
2.026453e-04
2.200413e-04
2.388609e-04
2.588186e-04


2.656778e+00
2.543895e+00
2.528848e+00
2.745595e+00
2.987048e+00
3.252548e+00
3.660379e+00
4.349132e+00
6.055641e+00
7.961932e+00
8.010093e+00
7.300737e+00
7.678193e+00
7.453439e+00
5.879464e+00
4.552016e+00
3.399708e+00
3.397719e+00
3.425367e+00
3.582099e+00
3.843064e+00
4.379177e+00
4.764933e+00
5.434005e+00
6.708467e+00
8.054239e+00
7.993174e+00
7.393183e+00
7.649071e+00
7.726426e+00
6.392520e+00
5.102056e+00
5.103397e+00
5.161367e+00
4.949558e+00
4.855663e+00
5.126250e+00
5.761686e+00
6.555135e+00
7.107634e+00
7.885132e+00
8.332467e+00
7.794351e+00
7.225692e+00
7.393534e+00
7.963542e+00
7.635107e+00
6.714198e+00
6.815022e+00
6.511395e+00
5.817894e+00
5.445240e+00
5.589250e+00
6.330817e+00
7.420555e+00
8.348307e+00
8.731013e+00
8.362551e+00
7.509790e+00
6.875951e+00
7.313556e+00
8.134424e+00
8.378930e+00
7.893245e+00
6.742884e+00
6.315571e+00
5.668042e+00
5.402003e+00
5.669602e+00
6.449437e+00
7.621593e+00
8.546659e+00
9.023476e+00
8.506395e+00
7.387361e+00
7.129119e+00
7.673370e+00
8.508966e+00
8.549446e+00
7.757764e+00
4.974857e+00
4.921383e+00
4.699485e+00
4.786285e+00
5.217292e+00
5.999778e+00
6.940511e+00
7.828627e+00
8.768439e+00
8.679067e+00
7.612656e+00
7.257757e+00
8.055674e+00
8.629826e+00
8.276079e+00
7.664215e+00
3.397362e+00
3.319297e+00
3.323101e+00
3.482894e+00
3.821271e+00
4.502009e+00
5.234808e+00
6.430943e+00
7.819874e+00
8.477569e+00
7.821053e+00
7.372699e+00
7.615745e+00
7.812791e+00
7.340968e+00
6.673048e+00
2.625581e+00
2.488736e+00
2.437375e+00
2.614412e+00
2.882301e+00
3.329477e+00
4.102903e+00
5.357597e+00
6.984078e+00
8.004268e+00
7.978665e+00
7.555130e+00
7.275801e+00
7.027823e+00
6.182285e+00
5.289089e+00


-1.220602e+00
-7.403224e-01
-4.876339e-01
-5.093614e-01
-5.359101e-01
-5.407259e-01
-5.399411e-01
-6.422647e-01
-1.111139e+00
-1.772941e+00
-1.118353e+00
-3.682523e-01
-3.109772e-01
-1.298590e-01
4.052638e-01
-8.082974e-01
2.902570e-01
1.612117e-01
2.046086e-01
2.063395e-01
2.009898e-01
1.695076e-01
1.205019e-01
-1.632942e-03
-3.033902e-01
-6.082213e-01
-1.512908e-01
3.538927e-01
5.876681e-01
7.775265e-01
5.925804e-01
-2.134414e+00
7.668732e-01
6.246194e-01
5.539910e-01
5.379181e-01
5.180477e-01
4.625430e-01
3.679779e-01
2.467997e-01
5.761054e-02
-3.768933e-02
2.279622e-01
4.712216e-01
4.816511e-01
1.513687e-01
-4.416866e-01
-1.344084e+00
8.830078e-01
7.408765e-01
6.483018e-01
6.038202e-01
5.610762e-01
4.955949e-01
3.979833e-01
3.064879e-01
1.718993e-01
9.228021e-02
1.948203e-01
2.412976e-01
3.849787e-02
-4.085441e-01
-5.070599e-01
-4.203638e-01
8.880823e-01
7.489269e-01
6.484313e-01
5.836230e-01
5.193057e-01
4.336488e-01
3.075182e-01
1.787470e-01
-1.422100e-02
-1.084089e-01
-1.579274e-02
-2.768222e-02
-2.183292e-01
-3.868071e-01
-2.943983e-02
4.570923e-01
7.744483e-01
6.392423e-01
5.673499e-01
5.295366e-01
4.718493e-01
3.610033e-01
1.692134e-01
-9.783337e-02
-4.596867e-01
-5.213156e-01
-1.887729e-01
-5.203877e-02
-1.141429e-01
-4.578081e-02
4.095227e-01
8.113505e-01
2.990003e-01
1.887365e-01
2.530403e-01
2.653890e-01
2.426507e-01
1.427184e-01
-5.436563e-02
-4.099652e-01
-9.187862e-01
-9.929243e-01
-3.394938e-01
1.037062e-01
2.871631e-01
4.961290e-01
8.112414e-01
9.748924e-01
-1.208991e+00
-6.970912e-01
-4.051702e-01
-3.768932e-01
-3.997050e-01
-5.058743e-01
-7.252639e-01
-1.126691e+00
-1.672210e+00
-1.592354e+00
-6.551591e-01
1.056808e-01
5.497258e-01
8.364945e-01
9.773623e-01
9.998238e-01
1 2 19 18
2 3 20 19
3 4 21 20
4 5 22 21
5 6 23 22
6 7 24 23
7 8 25 24
8 9 26 25
9 10 27 26
10 11 28 27
11 12 29 28
12 13 30 29
13 14 31 30
14 15 32 31
15 16 33 32
16 17 34 33
18 19 36 35
19 20 37 36
20 21 38 37
21 22 39 38
22 23 40 39
23 24 41 40
24 25 42 41
25 26 43 42
26 27 44 43
27 28 45 44
28 29 46 45
29 30 47 46
30 31 48 47
31 32 49 48
32 33 50 49
33 34 51 50
35 36 53 52
36 37 54 53
37 38 55 54
38 39 56 55
39 40 57 56
40 41 58 57
41 42 59 58
42 43 60 59
43 44 61 60
44 45 62 61
45 46 63 62
46 47 64 63
47 48 65 64
48 49 66 65
49 50 67 66
50 51 68 67
52 53 70 69
53 54 71 70
54 55 72 71
55 56 73 72
56 57 74 73
57 58 75 74
58 59 76 75
59 60 77 76
60 61 78 77
61 62 79 78
62 63 80 79
63 64 81 80
64 65 82 81
65 66 83 82
66 67 84 83
67 68 85 84
69 70 87 86
70 71 88 87
71 72 89 88
72 73 90 89
73 74 91 90
74 75 92 91
75 76 93 92
76 77 94 93
77 78 95 94
78 79 96 95
79 80 97 96
80 81 98 97
81 82 99 98
82 83 100 99
83 84 101 100
84 85 102 101
86 87 104 103
87 88 105 104
88 89 106 105
89 90 107 106
90 91 108 107
91 92 109 108
92 93 110 109
93 94 111 110
94 95 112 111
95 96 113 112
96 97 114 113
97 98 115 114
98 99 116 115
99 100 117 116
100 101 118 117
101 102 119 118
103 104 121 120
104 105 122 121
105 106 123 122
106 107 124 123
107 108 125 124
108 109 126 125
109 110 127 126
110 111 128 127
111 112 129 128
112 113 130 129
113 114 131 130
114 115 132 131
115 116 133 132
116 117 134 133
117 118 135 134
118 119 136 135
120 121 138 137
121 122 139 138
122 123 140 139
123 124 141 140
124 125 142 141
125 126 143 142
126 127 144 143
127 128 145 144
128 129 146 145
129 130 147 146
130 131 148 147
131 132 149 148
132 133 150 149
133 134 151 150
134 135 152 151
135 136 153 152
