TITLE = "Solution"
VARIABLES = x, y, u, v, psiu, psiv, t, stress
ZONE T="structure" N=153 E=128 F=FEBLOCK ET=QUADRILATERAL VARLOCATION=([7,8]=cellcentered)
0.000000e+00
1.250000e+01
2.500000e+01
3.750000e+01
5.000000e+01
6.250000e+01
7.500000e+01
8.750000e+01
1.000000e+02
1.125000e+02
1.250000e+02
1.375000e+02
1.500000e+02
1.625000e+02
1.750000e+02
1.875000e+02
2.000000e+02
0.000000e+00
1.250000e+01
2.500000e+01
3.750000e+01
5.000000e+01
6.250000e+01
7.500000e+01
8.750000e+01
1.000000e+02
1.125000e+02
1.250000e+02
1.375000e+02
1.500000e+02
1.625000e+02
1.750000e+02
1.875000e+02
2.000000e+02
0.000000e+00
1.250000e+01
2.500000e+01
3.750000e+01
5.000000e+01
6.250000e+01
7.500000e+01
8.750000e+01
1.000000e+02
1.125000e+02
1.250000e+02
1.375000e+02
1.500000e+02
1.625000e+02
1.750000e+02
1.875000e+02
2.000000e+02
0.000000e+00
1.250000e+01
2.500000e+01
3.750000e+01
5.000000e+01
6.250000e+01
7.500000e+01
8.750000e+01
1.000000e+02
1.125000e+02
1.250000e+02
1.375000e+02
1.500000e+02
1.625000e+02
1.750000e+02
1.875000e+02
2.000000e+02
0.000000e+00
1.250000e+01
2.500000e+01
3.750000e+01
5.000000e+01
6.250000e+01
7.500000e+01
8.750000e+01
1.000000e+02
1.125000e+02
1.250000e+02
1.375000e+02
1.500000e+02
1.625000e+02
1.750000e+02
1.875000e+02
2.000000e+02
0.000000e+00
1.250000e+01
2.500000e+01
3.750000e+01
5.000000e+01
6.250000e+01
7.500000e+01
8.750000e+01
1.000000e+02
1.125000e+02
1.250000e+02
1.375000e+02
1.500000e+02
1.625000e+02
1.750000e+02
1.875000e+02
2.000000e+02
0.000000e+00
1.250000e+01
2.500000e+01
3.750000e+01
5.000000e+01
6.250000e+01
7.500000e+01
8.750000e+01
1.000000e+02
1.125000e+02
1.250000e+02
1.375000e+02
1.500000e+02
1.625000e+02
1.750000e+02
1.875000e+02
2.000000e+02
0.000000e+00
1.250000e+01
2.500000e+01
3.750000e+01
5.000000e+01
6.250000e+01
7.500000e+01
8.750000e+01
1.000000e+02
1.125000e+02
1.250000e+02
1.375000e+02
1.500000e+02
1.625000e+02
1.750000e+02
1.875000e+02
2.000000e+02
0.000000e+00
1.250000e+01
2.500000e+01
3.750000e+01
5.000000e+01
6.250000e+01
7.500000e+01
8.750000e+01
1.000000e+02
1.125000e+02
1.250000e+02
1.375000e+02
1.500000e+02
1.625000e+02
1.750000e+02
1.875000e+02
2.000000e+02
0.000000e+00
0.000000e+00
0.000000e+00
0.000000e+00
0.000000e+00
0.000000e+00
0.000000e+00
0.000000e+00
0.000000e+00
0.000000e+00
0.000000e+00
0.000000e+00
0.000000e+00
0.000000e+00
0.000000e+00
0.000000e+00
0.000000e+00
1.250000e+01
1.250000e+01
1.250000e+01
1.250000e+01
1.250000e+01
1.250000e+01
1.250000e+01
1.250000e+01
1.250000e+01
1.250000e+01
1.250000e+01
1.250000e+01
1.250000e+01
1.250000e+01
1.250000e+01
1.250000e+01
1.250000e+01
2.500000e+01
2.500000e+01
2.500000e+01
2.500000e+01
2.500000e+01
2.500000e+01
2.500000e+01
2.500000e+01
2.500000e+01
2.500000e+01
2.500000e+01
2.500000e+01
2.500000e+01
2.500000e+01
2.500000e+01
2.500000e+01
2.500000e+01
3.750000e+01
3.750000e+01
3.750000e+01
3.750000e+01
3.750000e+01
3.750000e+01
3.750000e+01
3.750000e+01
3.750000e+01
3.750000e+01
3.750000e+01
3.750000e+01
3.750000e+01
3.750000e+01
3.750000e+01
3.750000e+01
3.750000e+01
5.000000e+01
5.000000e+01
5.000000e+01
5.000000e+01
5.000000e+01
5.000000e+01
5.000000e+01
5.000000e+01
5.000000e+01
5.000000e+01
5.000000e+01
5.000000e+01
5.000000e+01
5.000000e+01
5.000000e+01
5.000000e+01
5.000000e+01
6.250000e+01
6.250000e+01
6.250000e+01
6.250000e+01
6.250000e+01
6.250000e+01
6.250000e+01
6.250000e+01
6.250000e+01
6.250000e+01
6.250000e+01
6.250000e+01
6.250000e+01
6.250000e+01
6.250000e+01
6.250000e+01
6.250000e+01
7.500000e+01
7.500000e+01
7.500000e+01
7.500000e+01
7.500000e+01
7.500000e+01
7.500000e+01
7.500000e+01
7.500000e+01
7.500000e+01
7.500000e+01
7.500000e+01
7.500000e+01
7.500000e+01
7.500000e+01
7.500000e+01
7.500000e+01
8.750000e+01
8.750000e+01
8.750000e+01
8.750000e+01
8.750000e+01
8.750000e+01
8.750000e+01
8.750000e+01
8.750000e+01
8.750000e+01
8.750000e+01
8.750000e+01
8.750000e+01
8.750000e+01
8.750000e+01
8.750000e+01
8.750000e+01
1.000000e+02
1.000000e+02
1.000000e+02
1.000000e+02
1.000000e+02
1.000000e+02
1.000000e+02
1.000000e+02
1.000000e+02
1.000000e+02
1.000000e+02
1.000000e+02
1.000000e+02
1.000000e+02
1.000000e+02
1.000000e+02
1.000000e+02
0.000000e+00
-9.962620e-01
-1.680163e+00
-2.433008e+00
-3.119554e+00
-3.753782e+00
-4.461445e+00
-5.090429e+00
-5.766109e+00
-6.407286e+00
-7.057111e+00
-7.723402e+00
-8.376535e+00
-9.147102e+00
-1.007569e+01
-1.083324e+01
-1.128440e+01
0.000000e+00
-4.458372e-01
-9.064581e-01
-1.418792e+00
-1.930163e+00
-2.410110e+00
-2.923658e+00
-3.421490e+00
-3.917122e+00
-4.419448e+00
-4.912246e+00
-5.415315e+00
-5.900539e+00
-6.421097e+00
-6.897398e+00
-7.023732e+00
-7.202763e+00
0.000000e+00
-1.455049e-01
-3.476759e-01
-6.375448e-01
-9.746959e-01
-1.299091e+00
-1.651706e+00
-2.008445e+00
-2.351780e+00
-2.714012e+00
-3.053080e+00
-3.388155e+00
-3.684028e+00
-3.924100e+00
-4.034609e+00
-4.033467e+00
-4.181577e+00
0.000000e+00
-7.816159e-02
-1.604786e-01
-3.067993e-01
-4.508661e-01
-6.232512e-01
-8.082874e-01
-9.729816e-01
-1.159678e+00
-1.320832e+00
-1.481698e+00
-1.621305e+00
-1.717188e+00
-1.726776e+00
-1.653598e+00
-1.632676e+00
-1.749799e+00
0.000000e+00
-2.619818e-03
-5.901935e-03
-8.771987e-03
-1.170302e-02
-1.327095e-02
-1.110049e-02
-6.015365e-03
3.957365e-03
2.158561e-02
4.558696e-02
8.889765e-02
1.687584e-01
2.787460e-01
3.956335e-01
4.368967e-01
3.380452e-01
0.000000e+00
7.360432e-02
1.513999e-01
2.910946e-01
4.293305e-01
5.999788e-01
7.845916e-01
9.613396e-01
1.171429e+00
1.362433e+00
1.574145e+00
1.788016e+00
2.013117e+00
2.220388e+00
2.352709e+00
2.383668e+00
2.316904e+00
0.000000e+00
1.439153e-01
3.444007e-01
6.295330e-01
9.613570e-01
1.282099e+00
1.631757e+00
1.993099e+00
2.358024e+00
2.769184e+00
3.150214e+00
3.509401e+00
3.837690e+00
4.116785e+00
4.294072e+00
4.348354e+00
4.324945e+00
0.000000e+00
4.449510e-01
9.088498e-01
1.419675e+00
1.929085e+00
2.410523e+00
2.918102e+00
3.413068e+00
3.901100e+00
4.391669e+00
4.875747e+00
5.348428e+00
5.765851e+00
6.116125e+00
6.335077e+00
6.432094e+00
6.450027e+00
0.000000e+00
9.947339e-01
1.685863e+00
2.442016e+00
3.130334e+00
3.776574e+00
4.481689e+00
5.106848e+00
5.754614e+00
6.328440e+00
6.901595e+00
7.502705e+00
8.019926e+00
8.436502e+00
8.638775e+00
8.692077e+00
8.692792e+00
0.000000e+00
-6.189307e-01
-1.362823e+00
-2.365754e+00
-3.542475e+00
-4.889675e+00
-6.425872e+00
-8.117585e+00
-9.983985e+00
-1.201282e+01
-1.420191e+01
-1.655509e+01
-1.906986e+01
-2.180109e+01
-2.476444e+01
-2.812187e+01
-3.314070e+01
0.000000e+00
-4.159521e-01
-1.194378e+00
-2.179471e+00
-3.373293e+00
-4.715449e+00
-6.248356e+00
-7.949094e+00
-9.807870e+00
-1.184552e+01
-1.402980e+01
-1.638771e+01
-1.889678e+01
-2.160823e+01
-2.462430e+01
-2.803866e+01
-3.208645e+01
0.000000e+00
-3.904773e-01
-1.092650e+00
-2.076131e+00
-3.254039e+00
-4.589335e+00
-6.128444e+00
-7.819398e+00
-9.689425e+00
-1.172435e+01
-1.391978e+01
-1.628881e+01
-1.880826e+01
-2.154468e+01
-2.461380e+01
-2.788832e+01
-3.091903e+01
0.000000e+00
-4.495454e-01
-1.089105e+00
-2.049918e+00
-3.191001e+00
-4.518578e+00
-6.065699e+00
-7.743065e+00
-9.633661e+00
-1.166772e+01
-1.388487e+01
-1.627191e+01
-1.881799e+01
-2.155395e+01
-2.454202e+01
-2.758035e+01
-3.020631e+01
0.000000e+00
-4.562185e-01
-1.111476e+00
-2.034237e+00
-3.175781e+00
-4.507711e+00
-6.042322e+00
-7.742351e+00
-9.626493e+00
-1.168260e+01
-1.391511e+01
-1.630535e+01
-1.885888e+01
-2.155544e+01
-2.438804e+01
-2.721027e+01
-2.959899e+01
0.000000e+00
-4.469755e-01
-1.088382e+00
-2.051698e+00
-3.195134e+00
-4.534669e+00
-6.091346e+00
-7.783078e+00
-9.692387e+00
-1.175085e+01
-1.398854e+01
-1.635827e+01
-1.888643e+01
-2.154622e+01
-2.425250e+01
-2.688554e+01
-2.915509e+01
0.000000e+00
-3.868686e-01
-1.091055e+00
-2.078209e+00
-3.262388e+00
-4.615646e+00
-6.175024e+00
-7.897428e+00
-9.801980e+00
-1.187009e+01
-1.407514e+01
-1.642623e+01
-1.892188e+01
-2.154503e+01
-2.417075e+01
-2.667735e+01
-2.891893e+01
0.000000e+00
-4.125657e-01
-1.192089e+00
-2.181088e+00
-3.382903e+00
-4.742883e+00
-6.302291e+00
-8.040240e+00
-9.942187e+00
-1.200914e+01
-1.418946e+01
-1.652469e+01
-1.899745e+01
-2.158455e+01
-2.415076e+01
-2.658972e+01
-2.885693e+01
0.000000e+00
-6.166657e-01
-1.361547e+00
-2.367411e+00
-3.553456e+00
-4.918302e+00
-6.480188e+00
-8.208292e+00
-1.011347e+01
-1.216404e+01
-1.434459e+01
-1.667168e+01
-1.911975e+01
-2.166648e+01
-2.417578e+01
-2.657502e+01
-2.885551e+01


0.000000e+00
1.533701e-05
2.483809e-05
3.689450e-05
5.244650e-05
6.538490e-05
8.089461e-05
9.492497e-05
1.101853e-04
1.248277e-04
1.406443e-04
1.554112e-04
1.720081e-04
1.877599e-04
1.975202e-04
2.031190e-04
2.101166e-04
0.000000e+00
1.149543e-05
1.983718e-05
2.863661e-05
4.139938e-05
5.234575e-05
6.280784e-05
7.423346e-05
8.447284e-05
9.552266e-05
1.057276e-04
1.156706e-04
1.263342e-04
1.356834e-04
1.373167e-04
1.410442e-04
1.469013e-04
0.000000e+00
9.756137e-06
1.558968e-05
2.139681e-05
3.092884e-05
3.842569e-05
4.483087e-05
5.257535e-05
5.834441e-05
6.490295e-05
7.016215e-05
7.478032e-05
7.873256e-05
8.065209e-05
8.000872e-05
8.247027e-05
8.677128e-05
0.000000e+00
5.449146e-06
7.509457e-06
1.113448e-05
1.589280e-05
1.819104e-05
2.251757e-05
2.479437e-05
2.758157e-05
2.897391e-05
3.077811e-05
2.985666e-05
2.830207e-05
2.648810e-05
2.662827e-05
2.999667e-05
3.570594e-05
0.000000e+00
-9.344206e-08
-2.362553e-07
-4.359058e-07
-6.869627e-07
-9.905893e-07
-1.372184e-06
-1.802847e-06
-2.702109e-06
-4.229974e-06
-7.548253e-06
-1.192695e-05
-1.479623e-05
-1.578114e-05
-1.541403e-05
-1.307917e-05
-8.972611e-06
0.000000e+00
-5.577652e-06
-7.862012e-06
-1.179740e-05
-1.704185e-05
-1.993884e-05
-2.472211e-05
-2.794009e-05
-3.106288e-05
-3.326178e-05
-3.716111e-05
-4.248157e-05
-4.667017e-05
-4.780968e-05
-4.843441e-05
-4.901095e-05
-4.741010e-05
0.000000e+00
-9.757101e-06
-1.560107e-05
-2.154960e-05
-3.150837e-05
-3.923954e-05
-4.618132e-05
-5.427793e-05
-5.947291e-05
-6.422418e-05
-6.862722e-05
-7.330627e-05
-7.721754e-05
-7.999305e-05
-8.218276e-05
-8.420750e-05
-8.498193e-05
0.000000e+00
-1.145293e-05
-1.975773e-05
-2.851162e-05
-4.140153e-05
-5.228574e-05
-6.286668e-05
-7.455431e-05
-8.458712e-05
-9.513845e-05
-1.054645e-04
-1.127652e-04
-1.175683e-04
-1.223619e-04
-1.256825e-04
-1.268930e-04
-1.270240e-04
0.000000e+00
-1.538898e-05
-2.487200e-05
-3.673013e-05
-5.207158e-05
-6.475258e-05
-7.961690e-05
-9.367401e-05
-1.085166e-04
-1.244200e-04
-1.426031e-04
-1.573045e-04
-1.654106e-04
-1.703826e-04
-1.725663e-04
-1.726386e-04
-1.724121e-04
0.000000e+00
1.264240e-05
1.992161e-05
3.198970e-05
4.736326e-05
6.363163e-05
8.502514e-05
1.098549e-04
1.390942e-04
1.729940e-04
2.119841e-04
2.561793e-04
3.069011e-04
3.618409e-04
4.235945e-04
4.942608e-04
5.675197e-04
0.000000e+00
7.725642e-06
1.603423e-05
2.590576e-05
4.096282e-05
5.775754e-05
7.858149e-05
1.038331e-04
1.327273e-04
1.668470e-04
2.057321e-04
2.500990e-04
3.004348e-04
3.569757e-04
4.183586e-04
4.867879e-04
5.570030e-04
0.000000e+00
4.277308e-06
1.205960e-05
2.107555e-05
3.509094e-05
5.280169e-05
7.354725e-05
9.895114e-05
1.279958e-04
1.621493e-04
2.013732e-04
2.460244e-04
2.970382e-04
3.549748e-04
4.142816e-04
4.793022e-04
5.471666e-04
0.000000e+00
2.944912e-06
9.977619e-06
1.892595e-05
3.290384e-05
5.055010e-05
7.184107e-05
9.710453e-05
1.265402e-04
1.600313e-04
1.994881e-04
2.453443e-04
2.971182e-04
3.541290e-04
4.116887e-04
4.713775e-04
5.329501e-04
0.000000e+00
2.439882e-06
9.417091e-06
1.847003e-05
3.236628e-05
5.001803e-05
7.121829e-05
9.674476e-05
1.261411e-04
1.589201e-04
1.983253e-04
2.463412e-04
2.982749e-04
3.544363e-04
4.106694e-04
4.647559e-04
5.166393e-04
0.000000e+00
3.059378e-06
1.015127e-05
1.909393e-05
3.304493e-05
5.056760e-05
7.154676e-05
9.679619e-05
1.260027e-04
1.583611e-04
1.991068e-04
2.489967e-04
3.008624e-04
3.544750e-04
4.105933e-04
4.623612e-04
5.055793e-04
0.000000e+00
4.427923e-06
1.233005e-05
2.137639e-05
3.539293e-05
5.273673e-05
7.305081e-05
9.789540e-05
1.262016e-04
1.595625e-04
2.016599e-04
2.524838e-04
3.042181e-04
3.560408e-04
4.095711e-04
4.597830e-04
5.022691e-04
0.000000e+00
7.847392e-06
1.632617e-05
2.631376e-05
4.131547e-05
5.783016e-05
7.812989e-05
1.025753e-04
1.302822e-04
1.641358e-04
2.060452e-04
2.555195e-04
3.070372e-04
3.579902e-04
4.094689e-04
4.579198e-04
5.028069e-04
0.000000e+00
1.276766e-05
2.020144e-05
3.240443e-05
4.773443e-05
6.370879e-05
8.466377e-05
1.086988e-04
1.366070e-04
1.708994e-04
2.125371e-04
2.591711e-04
3.087936e-04
3.593523e-04
4.096176e-04
4.574462e-04
5.031080e-04


5.669524e+00
6.137577e+00
6.867308e+00
5.930614e+00
5.695824e+00
6.497068e+00
6.406289e+00
6.456878e+00
5.994392e+00
5.922560e+00
6.286005e+00
7.158964e+00
8.856663e+00
9.832836e+00
9.154023e+00
8.002832e+00
8.082150e+00
8.460895e+00
8.662746e+00
8.358994e+00
8.217587e+00
8.481353e+00
8.663359e+00
8.440161e+00
8.415308e+00
8.276086e+00
8.421028e+00
8.846592e+00
9.512664e+00
9.844238e+00
8.400973e+00
6.461877e+00
9.843381e+00
9.824357e+00
1.000000e+01
9.838293e+00
9.836910e+00
9.965396e+00
9.836471e+00
9.950348e+00
9.849597e+00
9.883370e+00
9.897758e+00
9.878229e+00
9.895424e+00
9.433824e+00
8.058039e+00
6.222986e+00
1.000000e+01
1.000000e+01
1.000000e+01
1.000000e+01
1.000000e+01
1.000000e+01
1.000000e+01
1.000000e+01
1.000000e+01
1.000000e+01
1.000000e+01
9.491419e+00
8.834995e+00
8.414083e+00
8.091920e+00
7.997689e+00
1.000000e+01
1.000000e+01
1.000000e+01
1.000000e+01
1.000000e+01
1.000000e+01
1.000000e+01
1.000000e+01
1.000000e+01
9.971837e+00
9.379184e+00
8.669630e+00
7.765779e+00
7.778147e+00
8.696558e+00
9.222770e+00
9.836178e+00
9.824532e+00
1.000000e+01
9.837153e+00
9.838539e+00
9.914600e+00
9.836667e+00
1.000000e+01
9.733358e+00
9.174418e+00
8.508986e+00
7.994336e+00
8.327924e+00
8.791425e+00
9.452446e+00
1.000000e+01
8.038768e+00
8.440567e+00
8.658874e+00
8.358551e+00
8.019697e+00
8.178212e+00
8.659982e+00
8.693358e+00
8.584050e+00
8.013567e+00
7.798216e+00
8.565252e+00
9.367626e+00
9.881162e+00
1.000000e+01
1.000000e+01
5.562302e+00
6.094302e+00
6.854372e+00
5.857332e+00
5.292927e+00
5.811662e+00
6.394401e+00
7.199233e+00
6.948028e+00
7.182086e+00
8.223497e+00
9.098634e+00
1.000000e+01
1.000000e+01
1.000000e+01
1.000000e+01


-8.193559e-01
-1.692338e-01
-3.983336e-01
-2.590423e-01
-9.480405e-02
-3.060888e-01
-1.228843e-01
-2.087384e-01
-1.596144e-01
-1.582365e-01
-2.119613e-01
-1.506017e-01
-4.643413e-01
-6.804130e-01
3.140970e-01
-8.564667e-01
6.115856e-01
4.819255e-01
2.965670e-01
2.264538e-01
2.908487e-01
1.673387e-01
1.729413e-01
1.702881e-01
1.065631e-01
1.459080e-01
1.270321e-01
2.425948e-01
3.048836e-01
5.108863e-01
6.977333e-01
-9.223192e-01
7.231921e-01
4.714109e-01
5.614943e-02
-2.313657e-02
-3.994577e-02
-1.959582e-01
-9.125054e-02
-1.484475e-01
-8.235833e-02
-1.995459e-02
3.621999e-02
1.870112e-01
2.857344e-01
1.503958e-01
-2.740905e-02
-1.554544e-01
7.280147e-01
5.546927e-01
1.897449e-01
5.845730e-02
-2.771417e-02
-1.120951e-01
-2.732294e-02
-7.086242e-02
1.259234e-02
1.701664e-02
7.161685e-02
1.212137e-01
7.254300e-02
-2.582586e-01
-4.080151e-01
-9.232817e-02
7.312864e-01
5.572919e-01
1.950006e-01
6.253873e-02
-3.566781e-02
-1.263022e-01
-5.778808e-02
-1.104949e-01
-4.529930e-02
-4.963191e-02
2.783237e-02
5.482245e-03
-3.658398e-02
-1.131688e-01
-1.147173e-01
2.934638e-01
7.307905e-01
4.782308e-01
7.229264e-02
-6.664543e-03
-5.572976e-02
-2.229291e-01
-1.720161e-01
-2.856625e-01
-2.376938e-01
-1.370279e-01
-6.573895e-02
-1.010728e-01
-1.388111e-01
4.849995e-02
3.329442e-01
7.217306e-01
6.170017e-01
4.818184e-01
3.083729e-01
2.396489e-01
2.900129e-01
1.691222e-01
1.369732e-01
8.173808e-02
-7.476196e-02
-6.594474e-02
-7.868926e-02
-3.008915e-02
3.208254e-02
3.574382e-01
7.090023e-01
9.466769e-01
-8.119567e-01
-1.898070e-01
-4.018117e-01
-2.589691e-01
-1.207084e-01
-2.904985e-01
-1.141345e-01
-1.492582e-01
-3.115220e-02
-3.214620e-02
-8.640427e-02
1.413726e-01
3.737936e-01
7.694758e-01
9.521803e-01
9.986788e-01
1 2 19 18
2 3 20 19
3 4 21 20
4 5 22 21
5 6 23 22
6 7 24 23
7 8 25 24
8 9 26 25
9 10 27 26
10 11 28 27
11 12 29 28
12 13 30 29
13 14 31 30
14 15 32 31
15 16 33 32
16 17 34 33
18 19 36 35
19 20 37 36
20 21 38 37
21 22 39 38
22 23 40 39
23 24 41 40
24 25 42 41
25 26 43 42
26 27 44 43
27 28 45 44
28 29 46 45
29 30 47 46
30 31 48 47
31 32 49 48
32 33 50 49
33 34 51 50
35 36 53 52
36 37 54 53
37 38 55 54
38 39 56 55
39 40 57 56
40 41 58 57
41 42 59 58
42 43 60 59
43 44 61 60
44 45 62 61
45 46 63 62
46 47 64 63
47 48 65 64
48 49 66 65
49 50 67 66
50 51 68 67
52 53 70 69
53 54 71 70
54 55 72 71
55 56 73 72
56 57 74 73
57 58 75 74
58 59 76 75
59 60 77 76
60 61 78 77
61 62 79 78
62 63 80 79
63 64 81 80
64 65 82 81
65 66 83 82
66 67 84 83
67 68 85 84
69 70 87 86
70 71 88 87
71 72 89 88
72 73 90 89
73 74 91 90
74 75 92 91
75 76 93 92
76 77 94 93
77 78 95 94
78 79 96 95
79 80 97 96
80 81 98 97
81 82 99 98
82 83 100 99
83 84 101 100
84 85 102 101
86 87 104 103
87 88 105 104
88 89 106 105
89 90 107 106
90 91 108 107
91 92 109 108
92 93 110 109
93 94 111 110
94 95 112 111
95 96 113 112
96 97 114 113
97 98 115 114
98 99 116 115
99 100 117 116
100 101 118 117
101 102 119 118
103 104 121 120
104 105 122 121
105 106 123 122
106 107 124 123
107 108 125 124
108 109 126 125
109 110 127 126
110 111 128 127
111 112 129 128
112 113 130 129
113 114 131 130
114 115 132 131
115 116 133 132
116 117 134 133
117 118 135 134
118 119 136 135
120 121 138 137
121 122 139 138
122 123 140 139
123 124 141 140
124 125 142 141
125 126 143 142
126 127 144 143
127 128 145 144
128 129 146 145
129 130 147 146
130 131 148 147
131 132 149 148
132 133 150 149
133 134 151 150
134 135 152 151
135 136 153 152
