TITLE = "Solution"
VARIABLES = x, y, u, v, psiu, psiv, t, stress
ZONE T="structure" N=153 E=128 F=FEBLOCK ET=QUADRILATERAL VARLOCATION=([7,8]=cellcentered)
0.000000e+00
1.250000e+01
2.500000e+01
3.750000e+01
5.000000e+01
6.250000e+01
7.500000e+01
8.750000e+01
1.000000e+02
1.125000e+02
1.250000e+02
1.375000e+02
1.500000e+02
1.625000e+02
1.750000e+02
1.875000e+02
2.000000e+02
0.000000e+00
1.250000e+01
2.500000e+01
3.750000e+01
5.000000e+01
6.250000e+01
7.500000e+01
8.750000e+01
1.000000e+02
1.125000e+02
1.250000e+02
1.375000e+02
1.500000e+02
1.625000e+02
1.750000e+02
1.875000e+02
2.000000e+02
0.000000e+00
1.250000e+01
2.500000e+01
3.750000e+01
5.000000e+01
6.250000e+01
7.500000e+01
8.750000e+01
1.000000e+02
1.125000e+02
1.250000e+02
1.375000e+02
1.500000e+02
1.625000e+02
1.750000e+02
1.875000e+02
2.000000e+02
0.000000e+00
1.250000e+01
2.500000e+01
3.750000e+01
5.000000e+01
6.250000e+01
7.500000e+01
8.750000e+01
1.000000e+02
1.125000e+02
1.250000e+02
1.375000e+02
1.500000e+02
1.625000e+02
1.750000e+02
1.875000e+02
2.000000e+02
0.000000e+00
1.250000e+01
2.500000e+01
3.750000e+01
5.000000e+01
6.250000e+01
7.500000e+01
8.750000e+01
1.000000e+02
1.125000e+02
1.250000e+02
1.375000e+02
1.500000e+02
1.625000e+02
1.750000e+02
1.875000e+02
2.000000e+02
0.000000e+00
1.250000e+01
2.500000e+01
3.750000e+01
5.000000e+01
6.250000e+01
7.500000e+01
8.750000e+01
1.000000e+02
1.125000e+02
1.250000e+02
1.375000e+02
1.500000e+02
1.625000e+02
1.750000e+02
1.875000e+02
2.000000e+02
0.000000e+00
1.250000e+01
2.500000e+01
3.750000e+01
5.000000e+01
6.250000e+01
7.500000e+01
8.750000e+01
1.000000e+02
1.125000e+02
1.250000e+02
1.375000e+02
1.500000e+02
1.625000e+02
1.750000e+02
1.875000e+02
2.000000e+02
0.000000e+00
1.250000e+01
2.500000e+01
3.750000e+01
5.000000e+01
6.250000e+01
7.500000e+01
8.750000e+01
1.000000e+02
1.125000e+02
1.250000e+02
1.375000e+02
1.500000e+02
1.625000e+02
1.750000e+02
1.875000e+02
2.000000e+02
0.000000e+00
1.250000e+01
2.500000e+01
3.750000e+01
5.000000e+01
6.250000e+01
7.500000e+01
8.750000e+01
1.000000e+02
1.125000e+02
1.250000e+02
1.375000e+02
1.500000e+02
1.625000e+02
1.750000e+02
1.875000e+02
2.000000e+02
0.000000e+00
0.000000e+00
0.000000e+00
0.000000e+00
0.000000e+00
0.000000e+00
0.000000e+00
0.000000e+00
0.000000e+00
0.000000e+00
0.000000e+00
0.000000e+00
0.000000e+00
0.000000e+00
0.000000e+00
0.000000e+00
0.000000e+00
1.250000e+01
1.250000e+01
1.250000e+01
1.250000e+01
1.250000e+01
1.250000e+01
1.250000e+01
1.250000e+01
1.250000e+01
1.250000e+01
1.250000e+01
1.250000e+01
1.250000e+01
1.250000e+01
1.250000e+01
1.250000e+01
1.250000e+01
2.500000e+01
2.500000e+01
2.500000e+01
2.500000e+01
2.500000e+01
2.500000e+01
2.500000e+01
2.500000e+01
2.500000e+01
2.500000e+01
2.500000e+01
2.500000e+01
2.500000e+01
2.500000e+01
2.500000e+01
2.500000e+01
2.500000e+01
3.750000e+01
3.750000e+01
3.750000e+01
3.750000e+01
3.750000e+01
3.750000e+01
3.750000e+01
3.750000e+01
3.750000e+01
3.750000e+01
3.750000e+01
3.750000e+01
3.750000e+01
3.750000e+01
3.750000e+01
3.750000e+01
3.750000e+01
5.000000e+01
5.000000e+01
5.000000e+01
5.000000e+01
5.000000e+01
5.000000e+01
5.000000e+01
5.000000e+01
5.000000e+01
5.000000e+01
5.000000e+01
5.000000e+01
5.000000e+01
5.000000e+01
5.000000e+01
5.000000e+01
5.000000e+01
6.250000e+01
6.250000e+01
6.250000e+01
6.250000e+01
6.250000e+01
6.250000e+01
6.250000e+01
6.250000e+01
6.250000e+01
6.250000e+01
6.250000e+01
6.250000e+01
6.250000e+01
6.250000e+01
6.250000e+01
6.250000e+01
6.250000e+01
7.500000e+01
7.500000e+01
7.500000e+01
7.500000e+01
7.500000e+01
7.500000e+01
7.500000e+01
7.500000e+01
7.500000e+01
7.500000e+01
7.500000e+01
7.500000e+01
7.500000e+01
7.500000e+01
7.500000e+01
7.500000e+01
7.500000e+01
8.750000e+01
8.750000e+01
8.750000e+01
8.750000e+01
8.750000e+01
8.750000e+01
8.750000e+01
8.750000e+01
8.750000e+01
8.750000e+01
8.750000e+01
8.750000e+01
8.750000e+01
8.750000e+01
8.750000e+01
8.750000e+01
8.750000e+01
1.000000e+02
1.000000e+02
1.000000e+02
1.000000e+02
1.000000e+02
1.000000e+02
1.000000e+02
1.000000e+02
1.000000e+02
1.000000e+02
1.000000e+02
1.000000e+02
1.000000e+02
1.000000e+02
1.000000e+02
1.000000e+02
1.000000e+02
0.000000e+00
-7.002776e-01
-1.289009e+00
-1.841523e+00
-2.374129e+00
-2.881028e+00
-3.356107e+00
-3.795013e+00
-4.195128e+00
-4.555770e+00
-4.878705e+00
-5.169038e+00
-5.436862e+00
-5.700361e+00
-5.991053e+00
-6.346017e+00
-6.611437e+00
0.000000e+00
-4.123921e-01
-8.589648e-01
-1.280456e+00
-1.683254e+00
-2.064958e+00
-2.422061e+00
-2.751803e+00
-3.052230e+00
-3.322315e+00
-3.562037e+00
-3.772200e+00
-3.953560e+00
-4.103825e+00
-4.209609e+00
-4.232815e+00
-4.315142e+00
0.000000e+00
-2.545184e-01
-5.264149e-01
-8.055158e-01
-1.075389e+00
-1.330912e+00
-1.569266e+00
-1.788487e+00
-1.986828e+00
-2.162591e+00
-2.313854e+00
-2.437849e+00
-2.529747e+00
-2.581213e+00
-2.582867e+00
-2.562657e+00
-2.646749e+00
0.000000e+00
-1.218850e-01
-2.530124e-01
-3.893127e-01
-5.241361e-01
-6.520320e-01
-7.708528e-01
-8.791290e-01
-9.752894e-01
-1.057350e+00
-1.122681e+00
-1.167831e+00
-1.188869e+00
-1.183929e+00
-1.163668e+00
-1.169101e+00
-1.231917e+00
0.000000e+00
-1.747643e-04
-3.862933e-04
-5.957977e-04
-7.232885e-04
-5.894823e-04
1.634337e-04
2.179329e-03
6.516050e-03
1.475035e-02
2.894009e-02
5.115488e-02
8.196304e-02
1.168155e-01
1.409531e-01
1.345227e-01
9.280151e-02
0.000000e+00
1.216017e-01
2.523774e-01
3.883130e-01
5.228751e-01
6.508831e-01
7.707344e-01
8.819525e-01
9.846224e-01
1.079276e+00
1.166685e+00
1.247177e+00
1.319147e+00
1.376976e+00
1.411061e+00
1.413848e+00
1.392632e+00
0.000000e+00
2.544156e-01
5.261658e-01
8.050849e-01
1.074768e+00
1.330150e+00
1.568530e+00
1.788172e+00
1.987744e+00
2.166246e+00
2.322866e+00
2.456569e+00
2.565406e+00
2.646013e+00
2.694447e+00
2.710196e+00
2.705252e+00
0.000000e+00
4.125239e-01
8.592419e-01
1.280898e+00
1.683854e+00
2.065574e+00
2.422227e+00
2.750406e+00
3.047006e+00
3.309150e+00
3.534136e+00
3.719433e+00
3.862960e+00
3.963907e+00
4.024170e+00
4.049877e+00
4.054602e+00
0.000000e+00
7.005321e-01
1.289715e+00
1.842892e+00
2.376399e+00
2.884326e+00
3.360128e+00
3.798384e+00
4.194273e+00
4.543079e+00
4.839836e+00
5.079284e+00
5.256686e+00
5.370209e+00
5.425133e+00
5.438679e+00
5.438410e+00
0.000000e+00
-4.256141e-01
-8.447348e-01
-1.392677e+00
-2.068938e+00
-2.873528e+00
-3.799942e+00
-4.839520e+00
-5.982121e+00
-7.217078e+00
-8.534118e+00
-9.924874e+00
-1.138593e+01
-1.292560e+01
-1.458632e+01
-1.650114e+01
-1.929480e+01
0.000000e+00
-2.628798e-01
-6.988973e-01
-1.249291e+00
-1.932011e+00
-2.744348e+00
-3.679933e+00
-4.729588e+00
-5.882823e+00
-7.128552e+00
-8.456014e+00
-9.856288e+00
-1.132531e+01
-1.287122e+01
-1.453161e+01
-1.643454e+01
-1.878710e+01
0.000000e+00
-2.005128e-01
-5.982349e-01
-1.147968e+00
-1.834026e+00
-2.652260e+00
-3.594835e+00
-4.652334e+00
-5.814183e+00
-7.069309e+00
-8.407037e+00
-9.818656e+00
-1.130044e+01
-1.285918e+01
-1.452131e+01
-1.631922e+01
-1.805507e+01
0.000000e+00
-1.760412e-01
-5.491221e-01
-1.089000e+00
-1.775832e+00
-2.597611e+00
-3.545031e+00
-4.608297e+00
-5.776974e+00
-7.040218e+00
-8.387508e+00
-9.809895e+00
-1.130181e+01
-1.286240e+01
-1.448919e+01
-1.613276e+01
-1.763768e+01
0.000000e+00
-1.695225e-01
-5.345693e-01
-1.070378e+00
-1.756832e+00
-2.580207e+00
-3.530067e+00
-4.596683e+00
-5.769827e+00
-7.038815e+00
-8.392855e+00
-9.821526e+00
-1.131484e+01
-1.286083e+01
-1.443438e+01
-1.597743e+01
-1.738952e+01
0.000000e+00
-1.759178e-01
-5.490358e-01
-1.089151e+00
-1.776566e+00
-2.599539e+00
-3.549154e+00
-4.616113e+00
-5.790468e+00
-7.061516e+00
-8.417765e+00
-9.846592e+00
-1.133305e+01
-1.285664e+01
-1.438566e+01
-1.587180e+01
-1.725118e+01
0.000000e+00
-2.003099e-01
-5.980883e-01
-1.148211e+00
-1.835247e+00
-2.655498e+00
-3.601792e+00
-4.665564e+00
-5.837080e+00
-7.105540e+00
-8.458734e+00
-9.882129e+00
-1.135721e+01
-1.285931e+01
-1.435637e+01
-1.581170e+01
-1.719008e+01
0.000000e+00
-2.626811e-01
-6.987544e-01
-1.249597e+00
-1.933457e+00
-2.748131e+00
-3.688000e+00
-4.744842e+00
-5.909081e+00
-7.169862e+00
-8.514586e+00
-9.927770e+00
-1.138939e+01
-1.287347e+01
-1.434902e+01
-1.578682e+01
-1.717574e+01
0.000000e+00
-4.254998e-01
-8.446968e-01
-1.393137e+00
-2.070599e+00
-2.877561e+00
-3.808195e+00
-4.854642e+00
-6.007408e+00
-7.255624e+00
-8.586552e+00
-9.984507e+00
-1.142943e+01
-1.289599e+01
-1.435525e+01
-1.578227e+01
-1.717597e+01


0.000000e+00
3.151231e-06
6.475986e-06
9.344444e-06
1.171991e-05
1.362376e-05
1.509653e-05
1.619844e-05
1.699757e-05
1.756095e-05
1.794874e-05
1.821239e-05
1.839612e-05
1.853909e-05
1.867655e-05
1.885639e-05
1.908118e-05
0.000000e+00
2.257024e-06
5.148679e-06
7.380308e-06
9.136413e-06
1.051345e-05
1.156071e-05
1.232888e-05
1.287323e-05
1.324624e-05
1.349261e-05
1.364736e-05
1.373494e-05
1.377411e-05
1.381535e-05
1.396125e-05
1.419185e-05
0.000000e+00
1.661758e-06
3.521265e-06
5.015953e-06
6.209899e-06
7.127590e-06
7.810549e-06
8.300143e-06
8.637083e-06
8.857980e-06
8.993161e-06
9.066218e-06
9.095986e-06
9.105188e-06
9.136521e-06
9.251747e-06
9.436598e-06
0.000000e+00
8.442331e-07
1.672015e-06
2.434638e-06
3.059020e-06
3.535505e-06
3.884833e-06
4.131341e-06
4.296854e-06
4.400305e-06
4.458000e-06
4.484457e-06
4.494740e-06
4.506740e-06
4.537189e-06
4.605719e-06
4.715720e-06
0.000000e+00
-1.386357e-09
-2.964526e-09
-4.827975e-09
-7.187862e-09
-1.032901e-08
-1.464097e-08
-2.056944e-08
-2.847410e-08
-3.832509e-08
-4.915070e-08
-5.822911e-08
-6.068388e-08
-5.191618e-08
-3.279591e-08
-1.539557e-09
5.278163e-08
0.000000e+00
-8.468579e-07
-1.677493e-06
-2.443574e-06
-3.072159e-06
-3.553923e-06
-3.910074e-06
-4.165546e-06
-4.342768e-06
-4.460983e-06
-4.535888e-06
-4.579323e-06
-4.599924e-06
-4.605420e-06
-4.604444e-06
-4.597701e-06
-4.575512e-06
0.000000e+00
-1.663724e-06
-3.525969e-06
-5.023808e-06
-6.221283e-06
-7.142615e-06
-7.829056e-06
-8.321803e-06
-8.661718e-06
-8.886103e-06
-9.026730e-06
-9.109479e-06
-9.154852e-06
-9.178800e-06
-9.192324e-06
-9.197616e-06
-9.191576e-06
0.000000e+00
-2.258297e-06
-5.152837e-06
-7.387423e-06
-9.146418e-06
-1.052558e-05
-1.157324e-05
-1.233923e-05
-1.287841e-05
-1.324364e-05
-1.348114e-05
-1.362907e-05
-1.371752e-05
-1.376878e-05
-1.379754e-05
-1.381099e-05
-1.381296e-05
0.000000e+00
-3.153370e-06
-6.480422e-06
-9.351017e-06
-1.172803e-05
-1.363196e-05
-1.510219e-05
-1.619795e-05
-1.698673e-05
-1.753546e-05
-1.790426e-05
-1.814352e-05
-1.829287e-05
-1.838126e-05
-1.842803e-05
-1.844610e-05
-1.844929e-05
0.000000e+00
2.828855e-06
4.936504e-06
7.166317e-06
9.896126e-06
1.312091e-05
1.675594e-05
2.071207e-05
2.490867e-05
2.927935e-05
3.377271e-05
3.835329e-05
4.300518e-05
4.775317e-05
5.271902e-05
5.797934e-05
6.331312e-05
0.000000e+00
1.453941e-06
3.573520e-06
5.998867e-06
8.952912e-06
1.238647e-05
1.620658e-05
2.031532e-05
2.463174e-05
2.909239e-05
3.365079e-05
3.827654e-05
4.295677e-05
4.770361e-05
5.257290e-05
5.768866e-05
6.293646e-05
0.000000e+00
6.638744e-07
2.532084e-06
5.121105e-06
8.248238e-06
1.184414e-05
1.580332e-05
2.002673e-05
2.443342e-05
2.896244e-05
3.357095e-05
3.823206e-05
4.293244e-05
4.766465e-05
5.242990e-05
5.738242e-05
6.249501e-05
0.000000e+00
3.858891e-07
2.075852e-06
4.674505e-06
7.887475e-06
1.156813e-05
1.559886e-05
1.988083e-05
2.433446e-05
2.890000e-05
3.353565e-05
3.821447e-05
4.291909e-05
4.763132e-05
5.234405e-05
5.717233e-05
6.211894e-05
0.000000e+00
3.273153e-07
1.957150e-06
4.534984e-06
7.773260e-06
1.148149e-05
1.553554e-05
1.983661e-05
2.430606e-05
2.888431e-05
3.352909e-05
3.821181e-05
4.291225e-05
4.761263e-05
5.230715e-05
5.706034e-05
6.186072e-05
0.000000e+00
3.861980e-07
2.076178e-06
4.674909e-06
7.888152e-06
1.156959e-05
1.560191e-05
1.988645e-05
2.434351e-05
2.891268e-05
3.355036e-05
3.822612e-05
4.291842e-05
4.761163e-05
5.230107e-05
5.700995e-05
6.171648e-05
0.000000e+00
6.644134e-07
2.532825e-06
5.122183e-06
8.249991e-06
1.184752e-05
1.580979e-05
2.003805e-05
2.445119e-05
2.898724e-05
3.360052e-05
3.825829e-05
4.293738e-05
4.762214e-05
5.230510e-05
5.698794e-05
6.165025e-05
0.000000e+00
1.455250e-06
3.575746e-06
6.001816e-06
8.956935e-06
1.239249e-05
1.621610e-05
2.033019e-05
2.465378e-05
2.912242e-05
3.368685e-05
3.831049e-05
4.296690e-05
4.763776e-05
5.231131e-05
5.697927e-05
6.162826e-05
0.000000e+00
2.831742e-06
4.940880e-06
7.171775e-06
9.902734e-06
1.312911e-05
1.676664e-05
2.072664e-05
2.492858e-05
2.930536e-05
3.380311e-05
3.838037e-05
4.300612e-05
4.765790e-05
5.231970e-05
5.697865e-05
6.162486e-05


1.978396e+00
1.981424e+00
2.034260e+00
2.119638e+00
2.194459e+00
2.254853e+00
2.302935e+00
2.339735e+00
2.366479e+00
2.384921e+00
2.396937e+00
2.404017e+00
2.406096e+00
2.399649e+00
2.385770e+00
2.375213e+00
2.069933e+00
2.070795e+00
2.110833e+00
2.178394e+00
2.238183e+00
2.286550e+00
2.325128e+00
2.354613e+00
2.376013e+00
2.390746e+00
2.400293e+00
2.405783e+00
2.406870e+00
2.399886e+00
2.386224e+00
2.376017e+00
2.220820e+00
2.219007e+00
2.240194e+00
2.277561e+00
2.311203e+00
2.339221e+00
2.361666e+00
2.378784e+00
2.391177e+00
2.399667e+00
2.405089e+00
2.408044e+00
2.408058e+00
2.402143e+00
2.391277e+00
2.383489e+00
2.326730e+00
2.324275e+00
2.331681e+00
2.346624e+00
2.361961e+00
2.375511e+00
2.386504e+00
2.394859e+00
2.400869e+00
2.404938e+00
2.407480e+00
2.408814e+00
2.408688e+00
2.405458e+00
2.399579e+00
2.395433e+00
2.326676e+00
2.324207e+00
2.331591e+00
2.346501e+00
2.361788e+00
2.375268e+00
2.386165e+00
2.394396e+00
2.400271e+00
2.404230e+00
2.406750e+00
2.408274e+00
2.408943e+00
2.408246e+00
2.406366e+00
2.405015e+00
2.220614e+00
2.218758e+00
2.239891e+00
2.277202e+00
2.310773e+00
2.338697e+00
2.361008e+00
2.377937e+00
2.390101e+00
2.398383e+00
2.403762e+00
2.407156e+00
2.409240e+00
2.410265e+00
2.410515e+00
2.410531e+00
2.069538e+00
2.070336e+00
2.110316e+00
2.177865e+00
2.237685e+00
2.286119e+00
2.324773e+00
2.354300e+00
2.375678e+00
2.390346e+00
2.399911e+00
2.405883e+00
2.409486e+00
2.411555e+00
2.412640e+00
2.413097e+00
1.977885e+00
1.980838e+00
2.033626e+00
2.119044e+00
2.193997e+00
2.254617e+00
2.302990e+00
2.340078e+00
2.367042e+00
2.385612e+00
2.397738e+00
2.405261e+00
2.409706e+00
2.412201e+00
2.413489e+00
2.414035e+00


-9.194403e-02
5.981510e-02
1.702472e-01
2.334759e-01
3.076420e-01
3.920407e-01
4.806753e-01
5.680889e-01
6.495856e-01
7.212393e-01
7.801194e-01
8.242058e-01
8.522309e-01
8.632317e-01
8.719442e-01
4.387032e-01
5.958778e-01
5.169233e-01
5.414692e-01
5.748559e-01
6.143322e-01
6.586513e-01
7.052226e-01
7.522940e-01
7.984223e-01
8.425339e-01
8.839837e-01
9.223294e-01
9.562340e-01
9.786764e-01
9.238442e-01
1.792483e-01
8.598270e-01
8.125113e-01
7.902302e-01
7.944274e-01
8.073071e-01
8.233869e-01
8.411684e-01
8.603389e-01
8.807368e-01
9.018885e-01
9.223803e-01
9.385671e-01
9.419914e-01
9.126709e-01
8.069238e-01
6.170278e-01
9.683035e-01
9.344534e-01
9.111918e-01
9.020629e-01
9.003660e-01
9.008287e-01
9.021911e-01
9.043092e-01
9.070330e-01
9.096053e-01
9.100411e-01
9.045637e-01
8.879720e-01
8.585851e-01
8.341514e-01
8.282887e-01
9.684635e-01
9.346711e-01
9.113945e-01
9.020604e-01
8.998033e-01
8.991029e-01
8.983437e-01
8.969704e-01
8.945118e-01
8.903263e-01
8.837134e-01
8.746922e-01
8.662573e-01
8.678842e-01
8.912783e-01
9.315962e-01
8.601626e-01
8.129843e-01
7.906977e-01
7.945278e-01
8.063715e-01
8.202349e-01
8.338829e-01
8.461081e-01
8.559500e-01
8.628539e-01
8.673499e-01
8.721831e-01
8.831993e-01
9.067652e-01
9.422949e-01
9.790310e-01
5.959959e-01
5.170951e-01
5.415983e-01
5.748115e-01
6.138822e-01
6.573854e-01
7.024459e-01
7.468991e-01
7.887896e-01
8.266090e-01
8.598344e-01
8.895779e-01
9.186649e-01
9.493951e-01
9.782046e-01
9.963549e-01
-9.252826e-02
5.877911e-02
1.688734e-01
2.317514e-01
3.059425e-01
3.913603e-01
4.829431e-01
5.764340e-01
6.683457e-01
7.554751e-01
8.344412e-01
9.011725e-01
9.513046e-01
9.823815e-01
9.965469e-01
9.999270e-01
1 2 19 18
2 3 20 19
3 4 21 20
4 5 22 21
5 6 23 22
6 7 24 23
7 8 25 24
8 9 26 25
9 10 27 26
10 11 28 27
11 12 29 28
12 13 30 29
13 14 31 30
14 15 32 31
15 16 33 32
16 17 34 33
18 19 36 35
19 20 37 36
20 21 38 37
21 22 39 38
22 23 40 39
23 24 41 40
24 25 42 41
25 26 43 42
26 27 44 43
27 28 45 44
28 29 46 45
29 30 47 46
30 31 48 47
31 32 49 48
32 33 50 49
33 34 51 50
35 36 53 52
36 37 54 53
37 38 55 54
38 39 56 55
39 40 57 56
40 41 58 57
41 42 59 58
42 43 60 59
43 44 61 60
44 45 62 61
45 46 63 62
46 47 64 63
47 48 65 64
48 49 66 65
49 50 67 66
50 51 68 67
52 53 70 69
53 54 71 70
54 55 72 71
55 56 73 72
56 57 74 73
57 58 75 74
58 59 76 75
59 60 77 76
60 61 78 77
61 62 79 78
62 63 80 79
63 64 81 80
64 65 82 81
65 66 83 82
66 67 84 83
67 68 85 84
69 70 87 86
70 71 88 87
71 72 89 88
72 73 90 89
73 74 91 90
74 75 92 91
75 76 93 92
76 77 94 93
77 78 95 94
78 79 96 95
79 80 97 96
80 81 98 97
81 82 99 98
82 83 100 99
83 84 101 100
84 85 102 101
86 87 104 103
87 88 105 104
88 89 106 105
89 90 107 106
90 91 108 107
91 92 109 108
92 93 110 109
93 94 111 110
94 95 112 111
95 96 113 112
96 97 114 113
97 98 115 114
98 99 116 115
99 100 117 116
100 101 118 117
101 102 119 118
103 104 121 120
104 105 122 121
105 106 123 122
106 107 124 123
107 108 125 124
108 109 126 125
109 110 127 126
110 111 128 127
111 112 129 128
112 113 130 129
113 114 131 130
114 115 132 131
115 116 133 132
116 117 134 133
117 118 135 134
118 119 136 135
120 121 138 137
121 122 139 138
122 123 140 139
123 124 141 140
124 125 142 141
125 126 143 142
126 127 144 143
127 128 145 144
128 129 146 145
129 130 147 146
130 131 148 147
131 132 149 148
132 133 150 149
133 134 151 150
134 135 152 151
135 136 153 152
