TITLE = "Solution"
VARIABLES = x, y, u, v, psiu, psiv, t, stress
ZONE T="structure" N=153 E=128 F=FEBLOCK ET=QUADRILATERAL VARLOCATION=([7,8]=cellcentered)
0.000000e+00
1.250000e+01
2.500000e+01
3.750000e+01
5.000000e+01
6.250000e+01
7.500000e+01
8.750000e+01
1.000000e+02
1.125000e+02
1.250000e+02
1.375000e+02
1.500000e+02
1.625000e+02
1.750000e+02
1.875000e+02
2.000000e+02
0.000000e+00
1.250000e+01
2.500000e+01
3.750000e+01
5.000000e+01
6.250000e+01
7.500000e+01
8.750000e+01
1.000000e+02
1.125000e+02
1.250000e+02
1.375000e+02
1.500000e+02
1.625000e+02
1.750000e+02
1.875000e+02
2.000000e+02
0.000000e+00
1.250000e+01
2.500000e+01
3.750000e+01
5.000000e+01
6.250000e+01
7.500000e+01
8.750000e+01
1.000000e+02
1.125000e+02
1.250000e+02
1.375000e+02
1.500000e+02
1.625000e+02
1.750000e+02
1.875000e+02
2.000000e+02
0.000000e+00
1.250000e+01
2.500000e+01
3.750000e+01
5.000000e+01
6.250000e+01
7.500000e+01
8.750000e+01
1.000000e+02
1.125000e+02
1.250000e+02
1.375000e+02
1.500000e+02
1.625000e+02
1.750000e+02
1.875000e+02
2.000000e+02
0.000000e+00
1.250000e+01
2.500000e+01
3.750000e+01
5.000000e+01
6.250000e+01
7.500000e+01
8.750000e+01
1.000000e+02
1.125000e+02
1.250000e+02
1.375000e+02
1.500000e+02
1.625000e+02
1.750000e+02
1.875000e+02
2.000000e+02
0.000000e+00
1.250000e+01
2.500000e+01
3.750000e+01
5.000000e+01
6.250000e+01
7.500000e+01
8.750000e+01
1.000000e+02
1.125000e+02
1.250000e+02
1.375000e+02
1.500000e+02
1.625000e+02
1.750000e+02
1.875000e+02
2.000000e+02
0.000000e+00
1.250000e+01
2.500000e+01
3.750000e+01
5.000000e+01
6.250000e+01
7.500000e+01
8.750000e+01
1.000000e+02
1.125000e+02
1.250000e+02
1.375000e+02
1.500000e+02
1.625000e+02
1.750000e+02
1.875000e+02
2.000000e+02
0.000000e+00
1.250000e+01
2.500000e+01
3.750000e+01
5.000000e+01
6.250000e+01
7.500000e+01
8.750000e+01
1.000000e+02
1.125000e+02
1.250000e+02
1.375000e+02
1.500000e+02
1.625000e+02
1.750000e+02
1.875000e+02
2.000000e+02
0.000000e+00
1.250000e+01
2.500000e+01
3.750000e+01
5.000000e+01
6.250000e+01
7.500000e+01
8.750000e+01
1.000000e+02
1.125000e+02
1.250000e+02
1.375000e+02
1.500000e+02
1.625000e+02
1.750000e+02
1.875000e+02
2.000000e+02
0.000000e+00
0.000000e+00
0.000000e+00
0.000000e+00
0.000000e+00
0.000000e+00
0.000000e+00
0.000000e+00
0.000000e+00
0.000000e+00
0.000000e+00
0.000000e+00
0.000000e+00
0.000000e+00
0.000000e+00
0.000000e+00
0.000000e+00
1.250000e+01
1.250000e+01
1.250000e+01
1.250000e+01
1.250000e+01
1.250000e+01
1.250000e+01
1.250000e+01
1.250000e+01
1.250000e+01
1.250000e+01
1.250000e+01
1.250000e+01
1.250000e+01
1.250000e+01
1.250000e+01
1.250000e+01
2.500000e+01
2.500000e+01
2.500000e+01
2.500000e+01
2.500000e+01
2.500000e+01
2.500000e+01
2.500000e+01
2.500000e+01
2.500000e+01
2.500000e+01
2.500000e+01
2.500000e+01
2.500000e+01
2.500000e+01
2.500000e+01
2.500000e+01
3.750000e+01
3.750000e+01
3.750000e+01
3.750000e+01
3.750000e+01
3.750000e+01
3.750000e+01
3.750000e+01
3.750000e+01
3.750000e+01
3.750000e+01
3.750000e+01
3.750000e+01
3.750000e+01
3.750000e+01
3.750000e+01
3.750000e+01
5.000000e+01
5.000000e+01
5.000000e+01
5.000000e+01
5.000000e+01
5.000000e+01
5.000000e+01
5.000000e+01
5.000000e+01
5.000000e+01
5.000000e+01
5.000000e+01
5.000000e+01
5.000000e+01
5.000000e+01
5.000000e+01
5.000000e+01
6.250000e+01
6.250000e+01
6.250000e+01
6.250000e+01
6.250000e+01
6.250000e+01
6.250000e+01
6.250000e+01
6.250000e+01
6.250000e+01
6.250000e+01
6.250000e+01
6.250000e+01
6.250000e+01
6.250000e+01
6.250000e+01
6.250000e+01
7.500000e+01
7.500000e+01
7.500000e+01
7.500000e+01
7.500000e+01
7.500000e+01
7.500000e+01
7.500000e+01
7.500000e+01
7.500000e+01
7.500000e+01
7.500000e+01
7.500000e+01
7.500000e+01
7.500000e+01
7.500000e+01
7.500000e+01
8.750000e+01
8.750000e+01
8.750000e+01
8.750000e+01
8.750000e+01
8.750000e+01
8.750000e+01
8.750000e+01
8.750000e+01
8.750000e+01
8.750000e+01
8.750000e+01
8.750000e+01
8.750000e+01
8.750000e+01
8.750000e+01
8.750000e+01
1.000000e+02
1.000000e+02
1.000000e+02
1.000000e+02
1.000000e+02
1.000000e+02
1.000000e+02
1.000000e+02
1.000000e+02
1.000000e+02
1.000000e+02
1.000000e+02
1.000000e+02
1.000000e+02
1.000000e+02
1.000000e+02
1.000000e+02
0.000000e+00
-1.015427e+00
-1.830580e+00
-2.584547e+00
-3.324403e+00
-4.034879e+00
-4.712396e+00
-5.354306e+00
-5.939651e+00
-6.454561e+00
-6.898126e+00
-7.281136e+00
-7.660274e+00
-8.081423e+00
-8.561870e+00
-9.215820e+00
-9.798867e+00
0.000000e+00
-5.683829e-01
-1.164835e+00
-1.724089e+00
-2.278127e+00
-2.815680e+00
-3.329237e+00
-3.811376e+00
-4.255383e+00
-4.656170e+00
-5.006797e+00
-5.300852e+00
-5.568049e+00
-5.817214e+00
-6.008031e+00
-6.066473e+00
-6.246388e+00
0.000000e+00
-3.102853e-01
-6.433194e-01
-1.006137e+00
-1.377956e+00
-1.744590e+00
-2.092641e+00
-2.411606e+00
-2.706094e+00
-2.984249e+00
-3.232094e+00
-3.427114e+00
-3.574590e+00
-3.671582e+00
-3.693500e+00
-3.672095e+00
-3.801719e+00
0.000000e+00
-1.360409e-01
-2.805077e-01
-4.484452e-01
-6.333239e-01
-8.216837e-01
-1.002429e+00
-1.165561e+00
-1.315371e+00
-1.458032e+00
-1.576198e+00
-1.652453e+00
-1.687796e+00
-1.685935e+00
-1.658830e+00
-1.663578e+00
-1.744867e+00
0.000000e+00
-6.914420e-03
-1.230590e-02
-1.366323e-02
-1.351108e-02
-1.143015e-02
-1.077052e-02
-1.191780e-02
-1.188313e-02
-1.649694e-03
2.388974e-02
6.527598e-02
1.196624e-01
1.806531e-01
2.288106e-01
2.292057e-01
1.731173e-01
0.000000e+00
1.333816e-01
2.728036e-01
4.362225e-01
6.230208e-01
8.109517e-01
9.929979e-01
1.162383e+00
1.318840e+00
1.469469e+00
1.618703e+00
1.758125e+00
1.878113e+00
1.978549e+00
2.046285e+00
2.058204e+00
2.024786e+00
0.000000e+00
3.183335e-01
6.519853e-01
1.012961e+00
1.387265e+00
1.753006e+00
2.102120e+00
2.427993e+00
2.723327e+00
2.989458e+00
3.232722e+00
3.448816e+00
3.623328e+00
3.755317e+00
3.844975e+00
3.876254e+00
3.867385e+00
0.000000e+00
5.770936e-01
1.177257e+00
1.742083e+00
2.298480e+00
2.834948e+00
3.342788e+00
3.817627e+00
4.245800e+00
4.619563e+00
4.943948e+00
5.222655e+00
5.445240e+00
5.609051e+00
5.715800e+00
5.762706e+00
5.771322e+00
0.000000e+00
1.023500e+00
1.847077e+00
2.608055e+00
3.352557e+00
4.061787e+00
4.729814e+00
5.352054e+00
5.914731e+00
6.402995e+00
6.814861e+00
7.160594e+00
7.428321e+00
7.616966e+00
7.716603e+00
7.739380e+00
7.738187e+00
0.000000e+00
-6.024256e-01
-1.231339e+00
-2.071724e+00
-3.108524e+00
-4.327104e+00
-5.712166e+00
-7.253032e+00
-8.939790e+00
-1.075361e+01
-1.266567e+01
-1.465957e+01
-1.674656e+01
-1.894583e+01
-2.131920e+01
-2.410058e+01
-2.877025e+01
0.000000e+00
-3.711746e-01
-1.033625e+00
-1.875107e+00
-2.917638e+00
-4.145192e+00
-5.540110e+00
-7.091711e+00
-8.793030e+00
-1.062572e+01
-1.255873e+01
-1.456491e+01
-1.665395e+01
-1.885660e+01
-2.122650e+01
-2.397687e+01
-2.758687e+01
0.000000e+00
-2.944340e-01
-8.967388e-01
-1.734633e+00
-2.780052e+00
-4.016830e+00
-5.422665e+00
-6.980838e+00
-8.685804e+00
-1.053132e+01
-1.248538e+01
-1.450967e+01
-1.661402e+01
-1.883573e+01
-2.121668e+01
-2.379486e+01
-2.629389e+01
0.000000e+00
-2.804953e-01
-8.317901e-01
-1.646619e+00
-2.696854e+00
-3.942240e+00
-5.360059e+00
-6.922577e+00
-8.626145e+00
-1.047826e+01
-1.245081e+01
-1.449710e+01
-1.661602e+01
-1.884140e+01
-2.118198e+01
-2.354571e+01
-2.571183e+01
0.000000e+00
-2.769074e-01
-8.116259e-01
-1.615288e+00
-2.669788e+00
-3.921301e+00
-5.344638e+00
-6.913389e+00
-8.620203e+00
-1.047340e+01
-1.245279e+01
-1.451352e+01
-1.663670e+01
-1.884102e+01
-2.111687e+01
-2.335074e+01
-2.538099e+01
0.000000e+00
-2.783276e-01
-8.287820e-01
-1.644211e+00
-2.701393e+00
-3.951913e+00
-5.373098e+00
-6.946844e+00
-8.660182e+00
-1.051121e+01
-1.248496e+01
-1.454682e+01
-1.666351e+01
-1.883655e+01
-2.105278e+01
-2.320580e+01
-2.517278e+01
0.000000e+00
-2.945752e-01
-8.937812e-01
-1.733018e+00
-2.788153e+00
-4.032724e+00
-5.448180e+00
-7.019761e+00
-8.734834e+00
-1.058107e+01
-1.254278e+01
-1.459318e+01
-1.669747e+01
-1.884203e+01
-2.100905e+01
-2.310800e+01
-2.506353e+01
0.000000e+00
-3.712752e-01
-1.031714e+00
-1.876469e+00
-2.926640e+00
-4.163916e+00
-5.570666e+00
-7.133757e+00
-8.840241e+00
-1.067638e+01
-1.262306e+01
-1.465574e+01
-1.674451e+01
-1.886876e+01
-2.099910e+01
-2.306424e+01
-2.503871e+01
0.000000e+00
-6.039926e-01
-1.231781e+00
-2.075134e+00
-3.118144e+00
-4.345327e+00
-5.740926e+00
-7.290487e+00
-8.980017e+00
-1.079750e+01
-1.272526e+01
-1.473823e+01
-1.680642e+01
-1.890947e+01
-2.101140e+01
-2.305610e+01
-2.503980e+01


0.000000e+00
1.473868e-05
2.905982e-05
4.111739e-05
5.140730e-05
5.987796e-05
6.635582e-05
7.076627e-05
7.329461e-05
7.447578e-05
7.490189e-05
7.502149e-05
7.506261e-05
7.511964e-05
7.528427e-05
7.594829e-05
7.739832e-05
0.000000e+00
1.066146e-05
2.336943e-05
3.279851e-05
4.054819e-05
4.683438e-05
5.144706e-05
5.431633e-05
5.573778e-05
5.623416e-05
5.630318e-05
5.626770e-05
5.622913e-05
5.615426e-05
5.613889e-05
5.672511e-05
5.797336e-05
0.000000e+00
7.765793e-06
1.605623e-05
2.261400e-05
2.801740e-05
3.217665e-05
3.500489e-05
3.660133e-05
3.732349e-05
3.753996e-05
3.753334e-05
3.748536e-05
3.745244e-05
3.744702e-05
3.753905e-05
3.792979e-05
3.858595e-05
0.000000e+00
3.667029e-06
7.161856e-06
1.071681e-05
1.369187e-05
1.585179e-05
1.724457e-05
1.802039e-05
1.840888e-05
1.858973e-05
1.865514e-05
1.867264e-05
1.868838e-05
1.873785e-05
1.881532e-05
1.892458e-05
1.913461e-05
0.000000e+00
1.098100e-08
3.053012e-08
-2.641365e-09
-5.211054e-08
-1.166683e-07
-1.602591e-07
-1.829135e-07
-1.892661e-07
-1.866209e-07
-1.740463e-07
-1.518608e-07
-1.202445e-07
-8.275516e-08
-6.869659e-08
-8.435050e-08
-4.396592e-08
0.000000e+00
-3.709612e-06
-7.190467e-06
-1.077852e-05
-1.390348e-05
-1.616023e-05
-1.761816e-05
-1.843355e-05
-1.882070e-05
-1.897254e-05
-1.900679e-05
-1.898995e-05
-1.896178e-05
-1.894709e-05
-1.896401e-05
-1.899773e-05
-1.899355e-05
0.000000e+00
-7.934509e-06
-1.629452e-05
-2.292998e-05
-2.846664e-05
-3.265551e-05
-3.547967e-05
-3.706154e-05
-3.772798e-05
-3.789538e-05
-3.787436e-05
-3.782581e-05
-3.780126e-05
-3.780020e-05
-3.781939e-05
-3.783962e-05
-3.783935e-05
0.000000e+00
-1.093439e-05
-2.385461e-05
-3.341384e-05
-4.119869e-05
-4.745490e-05
-5.198588e-05
-5.478486e-05
-5.613140e-05
-5.657104e-05
-5.662909e-05
-5.661213e-05
-5.661588e-05
-5.663403e-05
-5.665625e-05
-5.667096e-05
-5.667356e-05
0.000000e+00
-1.500436e-05
-2.960527e-05
-4.178857e-05
-5.209296e-05
-6.049050e-05
-6.685284e-05
-7.115591e-05
-7.362722e-05
-7.477317e-05
-7.520295e-05
-7.535697e-05
-7.542675e-05
-7.547324e-05
-7.550601e-05
-7.551992e-05
-7.552195e-05
0.000000e+00
1.261051e-05
2.152822e-05
3.131883e-05
4.344116e-05
5.748242e-05
7.295525e-05
8.951320e-05
1.069292e-04
1.249961e-04
1.434914e-04
1.622160e-04
1.810284e-04
1.999276e-04
2.194690e-04
2.405743e-04
2.626901e-04
0.000000e+00
6.345401e-06
1.576435e-05
2.635940e-05
3.927393e-05
5.420014e-05
7.064251e-05
8.812703e-05
1.062653e-04
1.247644e-04
1.434468e-04
1.622198e-04
1.810406e-04
1.999126e-04
2.189690e-04
2.389913e-04
2.601708e-04
0.000000e+00
2.638426e-06
1.109320e-05
2.251379e-05
3.613339e-05
5.183541e-05
6.907376e-05
8.724669e-05
1.058762e-04
1.246555e-04
1.434503e-04
1.622459e-04
1.810613e-04
1.998770e-04
2.185827e-04
2.378932e-04
2.581651e-04
0.000000e+00
1.586821e-06
8.976515e-06
2.044559e-05
3.457443e-05
5.076380e-05
6.842030e-05
8.689065e-05
1.057027e-04
1.245887e-04
1.434371e-04
1.622495e-04
1.810496e-04
1.998183e-04
2.185059e-04
2.375458e-04
2.571457e-04
0.000000e+00
1.408221e-06
8.425271e-06
1.973236e-05
3.407504e-05
5.046361e-05
6.824621e-05
8.679532e-05
1.056471e-04
1.245552e-04
1.434167e-04
1.622316e-04
1.810228e-04
1.997934e-04
2.185668e-04
2.375286e-04
2.567028e-04
0.000000e+00
1.559606e-06
8.957599e-06
2.044684e-05
3.461421e-05
5.083115e-05
6.848138e-05
8.694911e-05
1.057446e-04
1.246011e-04
1.434223e-04
1.622150e-04
1.810040e-04
1.997997e-04
2.186334e-04
2.375582e-04
2.565163e-04
0.000000e+00
2.629957e-06
1.105392e-05
2.253395e-05
3.621865e-05
5.194059e-05
6.917436e-05
8.733325e-05
1.059310e-04
1.246677e-04
1.434259e-04
1.621962e-04
1.809919e-04
1.998133e-04
2.186697e-04
2.375635e-04
2.564386e-04
0.000000e+00
6.382675e-06
1.581344e-05
2.645283e-05
3.939410e-05
5.431493e-05
7.074252e-05
8.820042e-05
1.063017e-04
1.247659e-04
1.434181e-04
1.621743e-04
1.809850e-04
1.998227e-04
2.186852e-04
2.375595e-04
2.564167e-04
0.000000e+00
1.280040e-05
2.171133e-05
3.149103e-05
4.359269e-05
5.759504e-05
7.303384e-05
8.956563e-05
1.069475e-04
1.249854e-04
1.434634e-04
1.621806e-04
1.809914e-04
1.998327e-04
2.186931e-04
2.375590e-04
2.564142e-04


2.681477e+00
2.514542e+00
2.531327e+00
2.714290e+00
2.872116e+00
3.031555e+00
3.171240e+00
3.216308e+00
3.311939e+00
3.222815e+00
3.305288e+00
4.231406e+00
5.316396e+00
5.256889e+00
5.578110e+00
6.079798e+00
3.354202e+00
3.310213e+00
3.353181e+00
3.554932e+00
3.663523e+00
3.698614e+00
3.691615e+00
4.022095e+00
4.373204e+00
4.296711e+00
3.797805e+00
4.089512e+00
4.422880e+00
4.487138e+00
4.380649e+00
4.624128e+00
4.187565e+00
4.367393e+00
4.781658e+00
5.074731e+00
5.165675e+00
4.959916e+00
4.751546e+00
5.021937e+00
5.723195e+00
5.519888e+00
4.654588e+00
4.039540e+00
3.924622e+00
3.649014e+00
3.465696e+00
3.316411e+00
4.024537e+00
4.652967e+00
5.462318e+00
6.156558e+00
6.256314e+00
6.009906e+00
5.475572e+00
5.407307e+00
5.600608e+00
5.408503e+00
4.566362e+00
3.845949e+00
3.582275e+00
3.497137e+00
3.282993e+00
3.087264e+00
3.864626e+00
4.351875e+00
5.317182e+00
6.039756e+00
6.195880e+00
5.951886e+00
5.541858e+00
4.966922e+00
4.782043e+00
4.651560e+00
4.241445e+00
3.720859e+00
3.528239e+00
3.777282e+00
3.819312e+00
3.611857e+00
3.901841e+00
4.080265e+00
4.529219e+00
5.001256e+00
5.001602e+00
4.886625e+00
4.626323e+00
4.313047e+00
4.109315e+00
4.207786e+00
4.224658e+00
3.872293e+00
3.910656e+00
4.442580e+00
4.588451e+00
4.346413e+00
3.404686e+00
3.286853e+00
3.371783e+00
3.547325e+00
3.611293e+00
3.591143e+00
3.611526e+00
3.525903e+00
3.519800e+00
3.714977e+00
3.907472e+00
3.962280e+00
4.152273e+00
4.735867e+00
4.804724e+00
4.380310e+00
2.739514e+00
2.562110e+00
2.567441e+00
2.738659e+00
2.875530e+00
3.011417e+00
3.149817e+00
3.236310e+00
3.271000e+00
3.367720e+00
3.678706e+00
3.892248e+00
4.259164e+00
4.596870e+00
4.435809e+00
3.994331e+00


-1.193852e+00
-7.511173e-01
-5.118273e-01
-4.695652e-01
-3.686748e-01
-2.464831e-01
-1.096990e-01
6.727850e-02
2.592143e-01
4.422553e-01
5.946815e-01
6.335568e-01
6.124253e-01
6.100040e-01
5.458071e-01
-1.750604e+00
2.971047e-01
1.760975e-01
1.842920e-01
1.678339e-01
1.956458e-01
2.633778e-01
3.578738e-01
4.450653e-01
5.182446e-01
6.155861e-01
7.383370e-01
8.130072e-01
8.683266e-01
9.296955e-01
8.206698e-01
-1.458280e+00
7.729449e-01
6.627538e-01
5.485805e-01
4.858145e-01
4.769236e-01
5.063976e-01
5.635740e-01
6.001999e-01
6.121453e-01
6.717241e-01
7.801254e-01
8.503312e-01
8.646903e-01
8.091691e-01
6.200114e-01
2.700773e-01
9.121574e-01
7.979266e-01
6.509674e-01
5.437297e-01
5.302948e-01
5.551821e-01
6.017240e-01
6.301420e-01
6.399424e-01
6.828968e-01
7.578530e-01
7.999429e-01
7.757772e-01
7.037742e-01
6.857568e-01
7.054349e-01
9.201671e-01
8.167936e-01
6.751065e-01
5.628513e-01
5.475020e-01
5.696851e-01
6.149247e-01
6.527443e-01
6.601239e-01
6.676598e-01
7.011434e-01
7.325457e-01
7.177619e-01
6.868740e-01
7.513264e-01
8.546181e-01
7.728769e-01
6.804395e-01
5.723988e-01
4.941421e-01
4.921130e-01
5.164187e-01
5.568812e-01
5.976880e-01
6.144014e-01
6.159084e-01
6.381181e-01
6.870295e-01
7.101668e-01
7.252416e-01
8.250965e-01
9.373919e-01
2.726788e-01
1.727899e-01
1.807136e-01
1.608834e-01
1.989464e-01
2.649000e-01
3.442850e-01
4.430160e-01
5.325928e-01
5.938247e-01
6.495127e-01
7.260881e-01
7.892706e-01
8.412501e-01
9.280578e-01
9.885586e-01
-1.239053e+00
-7.803256e-01
-5.406726e-01
-4.857526e-01
-3.644038e-01
-2.176978e-01
-6.169424e-02
1.306918e-01
3.362681e-01
5.083799e-01
6.392790e-01
7.695586e-01
8.706102e-01
9.442150e-01
9.892108e-01
9.998239e-01
1 2 19 18
2 3 20 19
3 4 21 20
4 5 22 21
5 6 23 22
6 7 24 23
7 8 25 24
8 9 26 25
9 10 27 26
10 11 28 27
11 12 29 28
12 13 30 29
13 14 31 30
14 15 32 31
15 16 33 32
16 17 34 33
18 19 36 35
19 20 37 36
20 21 38 37
21 22 39 38
22 23 40 39
23 24 41 40
24 25 42 41
25 26 43 42
26 27 44 43
27 28 45 44
28 29 46 45
29 30 47 46
30 31 48 47
31 32 49 48
32 33 50 49
33 34 51 50
35 36 53 52
36 37 54 53
37 38 55 54
38 39 56 55
39 40 57 56
40 41 58 57
41 42 59 58
42 43 60 59
43 44 61 60
44 45 62 61
45 46 63 62
46 47 64 63
47 48 65 64
48 49 66 65
49 50 67 66
50 51 68 67
52 53 70 69
53 54 71 70
54 55 72 71
55 56 73 72
56 57 74 73
57 58 75 74
58 59 76 75
59 60 77 76
60 61 78 77
61 62 79 78
62 63 80 79
63 64 81 80
64 65 82 81
65 66 83 82
66 67 84 83
67 68 85 84
69 70 87 86
70 71 88 87
71 72 89 88
72 73 90 89
73 74 91 90
74 75 92 91
75 76 93 92
76 77 94 93
77 78 95 94
78 79 96 95
79 80 97 96
80 81 98 97
81 82 99 98
82 83 100 99
83 84 101 100
84 85 102 101
86 87 104 103
87 88 105 104
88 89 106 105
89 90 107 106
90 91 108 107
91 92 109 108
92 93 110 109
93 94 111 110
94 95 112 111
95 96 113 112
96 97 114 113
97 98 115 114
98 99 116 115
99 100 117 116
100 101 118 117
101 102 119 118
103 104 121 120
104 105 122 121
105 106 123 122
106 107 124 123
107 108 125 124
108 109 126 125
109 110 127 126
110 111 128 127
111 112 129 128
112 113 130 129
113 114 131 130
114 115 132 131
115 116 133 132
116 117 134 133
117 118 135 134
118 119 136 135
120 121 138 137
121 122 139 138
122 123 140 139
123 124 141 140
124 125 142 141
125 126 143 142
126 127 144 143
127 128 145 144
128 129 146 145
129 130 147 146
130 131 148 147
131 132 149 148
132 133 150 149
133 134 151 150
134 135 152 151
135 136 153 152
