TITLE = "Solution"
VARIABLES = x, y, u, v, psiu, psiv, t, stress
ZONE T="structure" N=153 E=128 F=FEBLOCK ET=QUADRILATERAL VARLOCATION=([7,8]=cellcentered)
0.000000e+00
1.250000e+01
2.500000e+01
3.750000e+01
5.000000e+01
6.250000e+01
7.500000e+01
8.750000e+01
1.000000e+02
1.125000e+02
1.250000e+02
1.375000e+02
1.500000e+02
1.625000e+02
1.750000e+02
1.875000e+02
2.000000e+02
0.000000e+00
1.250000e+01
2.500000e+01
3.750000e+01
5.000000e+01
6.250000e+01
7.500000e+01
8.750000e+01
1.000000e+02
1.125000e+02
1.250000e+02
1.375000e+02
1.500000e+02
1.625000e+02
1.750000e+02
1.875000e+02
2.000000e+02
0.000000e+00
1.250000e+01
2.500000e+01
3.750000e+01
5.000000e+01
6.250000e+01
7.500000e+01
8.750000e+01
1.000000e+02
1.125000e+02
1.250000e+02
1.375000e+02
1.500000e+02
1.625000e+02
1.750000e+02
1.875000e+02
2.000000e+02
0.000000e+00
1.250000e+01
2.500000e+01
3.750000e+01
5.000000e+01
6.250000e+01
7.500000e+01
8.750000e+01
1.000000e+02
1.125000e+02
1.250000e+02
1.375000e+02
1.500000e+02
1.625000e+02
1.750000e+02
1.875000e+02
2.000000e+02
0.000000e+00
1.250000e+01
2.500000e+01
3.750000e+01
5.000000e+01
6.250000e+01
7.500000e+01
8.750000e+01
1.000000e+02
1.125000e+02
1.250000e+02
1.375000e+02
1.500000e+02
1.625000e+02
1.750000e+02
1.875000e+02
2.000000e+02
0.000000e+00
1.250000e+01
2.500000e+01
3.750000e+01
5.000000e+01
6.250000e+01
7.500000e+01
8.750000e+01
1.000000e+02
1.125000e+02
1.250000e+02
1.375000e+02
1.500000e+02
1.625000e+02
1.750000e+02
1.875000e+02
2.000000e+02
0.000000e+00
1.250000e+01
2.500000e+01
3.750000e+01
5.000000e+01
6.250000e+01
7.500000e+01
8.750000e+01
1.000000e+02
1.125000e+02
1.250000e+02
1.375000e+02
1.500000e+02
1.625000e+02
1.750000e+02
1.875000e+02
2.000000e+02
0.000000e+00
1.250000e+01
2.500000e+01
3.750000e+01
5.000000e+01
6.250000e+01
7.500000e+01
8.750000e+01
1.000000e+02
1.125000e+02
1.250000e+02
1.375000e+02
1.500000e+02
1.625000e+02
1.750000e+02
1.875000e+02
2.000000e+02
0.000000e+00
1.250000e+01
2.500000e+01
3.750000e+01
5.000000e+01
6.250000e+01
7.500000e+01
8.750000e+01
1.000000e+02
1.125000e+02
1.250000e+02
1.375000e+02
1.500000e+02
1.625000e+02
1.750000e+02
1.875000e+02
2.000000e+02
0.000000e+00
0.000000e+00
0.000000e+00
0.000000e+00
0.000000e+00
0.000000e+00
0.000000e+00
0.000000e+00
0.000000e+00
0.000000e+00
0.000000e+00
0.000000e+00
0.000000e+00
0.000000e+00
0.000000e+00
0.000000e+00
0.000000e+00
1.250000e+01
1.250000e+01
1.250000e+01
1.250000e+01
1.250000e+01
1.250000e+01
1.250000e+01
1.250000e+01
1.250000e+01
1.250000e+01
1.250000e+01
1.250000e+01
1.250000e+01
1.250000e+01
1.250000e+01
1.250000e+01
1.250000e+01
2.500000e+01
2.500000e+01
2.500000e+01
2.500000e+01
2.500000e+01
2.500000e+01
2.500000e+01
2.500000e+01
2.500000e+01
2.500000e+01
2.500000e+01
2.500000e+01
2.500000e+01
2.500000e+01
2.500000e+01
2.500000e+01
2.500000e+01
3.750000e+01
3.750000e+01
3.750000e+01
3.750000e+01
3.750000e+01
3.750000e+01
3.750000e+01
3.750000e+01
3.750000e+01
3.750000e+01
3.750000e+01
3.750000e+01
3.750000e+01
3.750000e+01
3.750000e+01
3.750000e+01
3.750000e+01
5.000000e+01
5.000000e+01
5.000000e+01
5.000000e+01
5.000000e+01
5.000000e+01
5.000000e+01
5.000000e+01
5.000000e+01
5.000000e+01
5.000000e+01
5.000000e+01
5.000000e+01
5.000000e+01
5.000000e+01
5.000000e+01
5.000000e+01
6.250000e+01
6.250000e+01
6.250000e+01
6.250000e+01
6.250000e+01
6.250000e+01
6.250000e+01
6.250000e+01
6.250000e+01
6.250000e+01
6.250000e+01
6.250000e+01
6.250000e+01
6.250000e+01
6.250000e+01
6.250000e+01
6.250000e+01
7.500000e+01
7.500000e+01
7.500000e+01
7.500000e+01
7.500000e+01
7.500000e+01
7.500000e+01
7.500000e+01
7.500000e+01
7.500000e+01
7.500000e+01
7.500000e+01
7.500000e+01
7.500000e+01
7.500000e+01
7.500000e+01
7.500000e+01
8.750000e+01
8.750000e+01
8.750000e+01
8.750000e+01
8.750000e+01
8.750000e+01
8.750000e+01
8.750000e+01
8.750000e+01
8.750000e+01
8.750000e+01
8.750000e+01
8.750000e+01
8.750000e+01
8.750000e+01
8.750000e+01
8.750000e+01
1.000000e+02
1.000000e+02
1.000000e+02
1.000000e+02
1.000000e+02
1.000000e+02
1.000000e+02
1.000000e+02
1.000000e+02
1.000000e+02
1.000000e+02
1.000000e+02
1.000000e+02
1.000000e+02
1.000000e+02
1.000000e+02
1.000000e+02
0.000000e+00
-6.655611e-02
-9.876969e-02
-1.251041e-01
-1.660554e-01
-5.764024e-01
-6.637065e-01
-6.984660e-01
-7.172452e-01
-7.341059e-01
-7.558240e-01
-7.837536e-01
-8.284579e-01
-8.680762e-01
-9.109210e-01
-9.987282e-01
-1.174631e+00
0.000000e+00
-4.305671e-02
-7.383297e-02
-1.038435e-01
-1.645499e-01
-3.914771e-01
-4.887309e-01
-5.322086e-01
-5.519097e-01
-5.665832e-01
-5.824897e-01
-6.066914e-01
-6.416722e-01
-6.657896e-01
-6.798817e-01
-6.883593e-01
-7.259108e-01
0.000000e+00
-3.378112e-02
-6.285778e-02
-9.457056e-02
-1.559855e-01
-2.589393e-01
-3.177973e-01
-3.551525e-01
-3.828519e-01
-4.006857e-01
-4.166670e-01
-4.382398e-01
-4.618674e-01
-4.701813e-01
-4.701907e-01
-4.663788e-01
-4.818076e-01
0.000000e+00
-2.458311e-02
-4.705826e-02
-6.921896e-02
-1.030723e-01
-1.550916e-01
-1.844989e-01
-2.050320e-01
-2.253033e-01
-2.470509e-01
-2.664143e-01
-2.791137e-01
-2.867034e-01
-2.867294e-01
-2.850100e-01
-2.857430e-01
-2.947911e-01
0.000000e+00
-1.025995e-02
-2.030518e-02
-2.934044e-02
-3.987349e-02
-5.617972e-02
-6.729084e-02
-7.674710e-02
-8.894647e-02
-1.055978e-01
-1.140055e-01
-1.163731e-01
-1.155486e-01
-1.131041e-01
-1.112668e-01
-1.121604e-01
-1.157500e-01
0.000000e+00
8.859602e-03
1.529532e-02
2.048337e-02
2.694320e-02
3.389438e-02
3.783152e-02
3.958435e-02
3.887732e-02
3.935487e-02
4.140357e-02
4.529482e-02
5.235034e-02
6.006837e-02
6.412928e-02
6.576271e-02
6.472433e-02
0.000000e+00
2.857283e-02
5.933522e-02
8.704003e-02
1.096647e-01
1.281048e-01
1.429198e-01
1.563037e-01
1.713111e-01
1.849515e-01
1.952981e-01
2.043597e-01
2.159072e-01
2.319824e-01
2.422958e-01
2.461608e-01
2.463490e-01
0.000000e+00
5.006105e-02
1.156958e-01
1.704346e-01
2.046933e-01
2.305189e-01
2.568942e-01
2.866021e-01
3.140914e-01
3.354747e-01
3.516887e-01
3.641386e-01
3.774085e-01
3.980163e-01
4.170367e-01
4.269497e-01
4.277605e-01
0.000000e+00
7.845637e-02
1.780482e-01
2.542467e-01
3.010825e-01
3.395479e-01
3.789942e-01
4.294995e-01
4.675272e-01
4.962918e-01
5.181803e-01
5.345886e-01
5.494938e-01
5.726114e-01
5.847325e-01
6.071623e-01
6.083881e-01
0.000000e+00
-5.077976e-02
-8.573031e-02
-1.267943e-01
-1.820001e-01
-3.330016e-01
-4.562984e-01
-6.035524e-01
-7.627316e-01
-9.276973e-01
-1.099151e+00
-1.278548e+00
-1.465279e+00
-1.657813e+00
-1.870795e+00
-2.141600e+00
-2.917225e+00
0.000000e+00
-3.880552e-02
-7.699783e-02
-1.173290e-01
-1.759614e-01
-3.087251e-01
-4.426587e-01
-5.954551e-01
-7.573099e-01
-9.225038e-01
-1.092305e+00
-1.268797e+00
-1.454951e+00
-1.650358e+00
-1.860668e+00
-2.118337e+00
-2.583903e+00
0.000000e+00
-3.131182e-02
-6.700663e-02
-1.079264e-01
-1.742532e-01
-2.955586e-01
-4.319549e-01
-5.837660e-01
-7.486837e-01
-9.166261e-01
-1.085715e+00
-1.259783e+00
-1.450514e+00
-1.648719e+00
-1.857935e+00
-2.094794e+00
-2.354306e+00
0.000000e+00
-2.331087e-02
-5.795243e-02
-1.026256e-01
-1.729721e-01
-2.912375e-01
-4.264201e-01
-5.734072e-01
-7.348703e-01
-9.072798e-01
-1.077965e+00
-1.253603e+00
-1.447430e+00
-1.648405e+00
-1.853570e+00
-2.066147e+00
-2.268611e+00
0.000000e+00
-1.619367e-02
-5.155699e-02
-1.025359e-01
-1.784825e-01
-2.938846e-01
-4.256719e-01
-5.673012e-01
-7.252031e-01
-8.992806e-01
-1.073410e+00
-1.250463e+00
-1.443264e+00
-1.645675e+00
-1.847476e+00
-2.048323e+00
-2.237366e+00
0.000000e+00
-1.128990e-02
-4.832656e-02
-1.065592e-01
-1.906102e-01
-3.020594e-01
-4.275768e-01
-5.658025e-01
-7.231295e-01
-8.973731e-01
-1.072150e+00
-1.249235e+00
-1.439376e+00
-1.642056e+00
-1.842946e+00
-2.040863e+00
-2.227749e+00
0.000000e+00
-1.179089e-02
-4.986854e-02
-1.142499e-01
-2.032630e-01
-3.102656e-01
-4.310292e-01
-5.695948e-01
-7.277580e-01
-8.990638e-01
-1.073053e+00
-1.250204e+00
-1.436944e+00
-1.639255e+00
-1.840486e+00
-2.037411e+00
-2.223935e+00
0.000000e+00
-2.002329e-02
-6.054203e-02
-1.260262e-01
-2.141588e-01
-3.183786e-01
-4.378644e-01
-5.771247e-01
-7.352575e-01
-9.029197e-01
-1.076028e+00
-1.253041e+00
-1.437512e+00
-1.637880e+00
-1.838931e+00
-2.036244e+00
-2.221516e+00
0.000000e+00
-4.094840e-02
-8.184240e-02
-1.414188e-01
-2.253966e-01
-3.284059e-01
-4.488360e-01
-5.889049e-01
-7.440711e-01
-9.092771e-01
-1.080734e+00
-1.257272e+00
-1.440698e+00
-1.641354e+00
-1.835191e+00
-2.037609e+00
-2.219817e+00


0.000000e+00
2.001729e-04
8.187516e-05
-4.909299e-04
-1.475153e-03
-1.526714e-03
-1.273930e-03
-1.227204e-03
-1.214928e-03
-1.209634e-03
-1.207282e-03
-1.206950e-03
-1.206531e-03
-1.205471e-03
-1.204871e-03
-1.204618e-03
-1.204641e-03
0.000000e+00
4.813418e-05
-1.585544e-04
-6.421166e-04
-1.372551e-03
-1.224380e-03
-1.068414e-03
-1.025576e-03
-1.013726e-03
-1.009313e-03
-1.007476e-03
-1.006449e-03
-1.005679e-03
-1.005501e-03
-1.005690e-03
-1.006014e-03
-1.006182e-03
0.000000e+00
-9.704795e-05
-2.662256e-04
-4.893312e-04
-7.299392e-04
-7.584735e-04
-7.812205e-04
-7.926533e-04
-7.992285e-04
-8.022663e-04
-8.024685e-04
-8.016504e-04
-8.039389e-04
-8.061339e-04
-8.071923e-04
-8.077642e-04
-8.079063e-04
0.000000e+00
-1.172018e-04
-1.927530e-04
-2.719373e-04
-3.626827e-04
-4.968247e-04
-5.416893e-04
-5.639267e-04
-5.794999e-04
-5.912973e-04
-5.982673e-04
-6.032475e-04
-6.076018e-04
-6.092865e-04
-6.096285e-04
-6.098086e-04
-6.096386e-04
0.000000e+00
-7.353386e-05
-1.165540e-04
-1.479557e-04
-2.069293e-04
-2.908142e-04
-3.372803e-04
-3.599753e-04
-3.772613e-04
-3.937395e-04
-4.029458e-04
-4.078282e-04
-4.114815e-04
-4.123571e-04
-4.116693e-04
-4.108714e-04
-4.104332e-04
0.000000e+00
-3.250294e-05
-5.254320e-05
-7.241820e-05
-9.905662e-05
-1.331418e-04
-1.578935e-04
-1.744372e-04
-1.888691e-04
-1.995892e-04
-2.047907e-04
-2.075324e-04
-2.099312e-04
-2.109589e-04
-2.105088e-04
-2.100257e-04
-2.097053e-04
0.000000e+00
-9.148371e-06
-6.142996e-06
5.269978e-06
9.966739e-06
9.940764e-06
6.625578e-06
1.350557e-06
-1.997872e-06
-3.701134e-06
-4.217682e-06
-4.393104e-06
-4.956588e-06
-6.277584e-06
-7.506765e-06
-7.896084e-06
-7.858252e-06
0.000000e+00
1.132534e-06
4.021601e-05
1.059998e-04
1.416256e-04
1.613668e-04
1.747541e-04
1.850728e-04
1.916467e-04
1.956255e-04
1.977849e-04
1.989392e-04
1.994587e-04
1.988012e-04
1.968430e-04
1.952128e-04
1.950034e-04
0.000000e+00
1.951114e-05
1.186492e-04
2.288796e-04
2.898906e-04
3.289869e-04
3.575323e-04
3.815572e-04
3.936512e-04
3.995304e-04
4.025693e-04
4.041448e-04
4.049527e-04
4.047309e-04
4.035999e-04
3.988771e-04
3.985576e-04
0.000000e+00
-4.240394e-05
-1.907870e-04
-5.901435e-04
-1.361812e-03
-7.966294e-04
-7.593384e-04
-9.505371e-04
-1.144883e-03
-1.341110e-03
-1.537499e-03
-1.735927e-03
-1.937194e-03
-2.137820e-03
-2.337023e-03
-2.535608e-03
-2.734206e-03
0.000000e+00
-1.825859e-05
-4.907207e-05
-2.897609e-04
-8.116867e-04
-6.614391e-04
-7.885953e-04
-9.552323e-04
-1.146957e-03
-1.341610e-03
-1.537352e-03
-1.735408e-03
-1.937818e-03
-2.138061e-03
-2.336929e-03
-2.535458e-03
-2.734092e-03
0.000000e+00
1.478186e-05
1.508667e-05
-1.555896e-04
-4.952761e-04
-6.218309e-04
-7.761624e-04
-9.543852e-04
-1.145034e-03
-1.340005e-03
-1.534140e-03
-1.732322e-03
-1.937912e-03
-2.138159e-03
-2.336386e-03
-2.535319e-03
-2.734255e-03
0.000000e+00
2.551826e-05
2.309126e-06
-1.406901e-04
-3.725240e-04
-5.730381e-04
-7.506288e-04
-9.399126e-04
-1.134499e-03
-1.330632e-03
-1.523026e-03
-1.724044e-03
-1.934693e-03
-2.137428e-03
-2.335898e-03
-2.535438e-03
-2.735080e-03
0.000000e+00
2.190737e-05
-2.576187e-05
-1.412542e-04
-3.183727e-04
-5.263905e-04
-7.263611e-04
-9.211774e-04
-1.119065e-03
-1.316299e-03
-1.514522e-03
-1.718407e-03
-1.929627e-03
-2.135626e-03
-2.335646e-03
-2.535972e-03
-2.736403e-03
0.000000e+00
9.300739e-06
-3.970168e-05
-1.445332e-04
-3.010436e-04
-4.972855e-04
-7.005201e-04
-9.025447e-04
-1.103452e-03
-1.307116e-03
-1.510230e-03
-1.715655e-03
-1.925607e-03
-2.133453e-03
-2.335591e-03
-2.536452e-03
-2.737479e-03
0.000000e+00
-1.651599e-07
-4.529084e-05
-1.505269e-04
-3.039109e-04
-4.870685e-04
-6.841195e-04
-8.882108e-04
-1.094826e-03
-1.302122e-03
-1.508337e-03
-1.714548e-03
-1.923111e-03
-2.131332e-03
-2.335341e-03
-2.536680e-03
-2.738277e-03
0.000000e+00
-4.119418e-06
-5.339193e-05
-1.637502e-04
-3.131257e-04
-4.876078e-04
-6.801903e-04
-8.844431e-04
-1.092906e-03
-1.300809e-03
-1.507818e-03
-1.714401e-03
-1.921735e-03
-2.129592e-03
-2.334719e-03
-2.536637e-03
-2.738947e-03
0.000000e+00
-2.594277e-06
-7.523521e-05
-1.845472e-04
-3.254876e-04
-4.950111e-04
-6.844328e-04
-8.876804e-04
-1.094286e-03
-1.301510e-03
-1.508192e-03
-1.714668e-03
-1.921461e-03
-2.128635e-03
-2.334451e-03
-2.536168e-03
-2.739419e-03


6.259923e+00
4.667838e+00
5.795148e+00
8.775739e+00
1.000000e+01
9.504570e+00
8.015781e+00
4.801617e+00
3.062939e+00
4.304852e+00
5.798235e+00
6.110538e+00
4.661236e+00
4.904953e+00
7.248006e+00
8.347828e+00
5.686937e+00
4.017101e+00
4.852598e+00
7.801455e+00
9.095472e+00
7.999987e+00
7.093883e+00
5.979803e+00
5.036902e+00
5.418607e+00
7.428907e+00
6.956978e+00
4.970598e+00
3.831882e+00
5.211881e+00
6.513928e+00
5.067652e+00
3.759875e+00
3.343974e+00
6.227051e+00
7.138659e+00
5.150726e+00
4.264398e+00
5.899156e+00
7.132825e+00
8.022572e+00
8.216366e+00
8.057892e+00
5.571384e+00
4.108469e+00
4.593867e+00
4.464016e+00
5.546765e+00
3.220062e+00
2.594516e+00
4.959532e+00
6.759846e+00
3.887889e+00
2.346433e+00
4.192916e+00
7.215441e+00
7.510948e+00
6.936961e+00
6.937395e+00
6.235068e+00
5.123213e+00
4.781597e+00
3.956834e+00
5.298383e+00
3.404366e+00
2.439299e+00
4.959532e+00
6.613666e+00
5.512006e+00
2.766843e+00
4.101756e+00
5.407517e+00
4.974384e+00
3.649128e+00
5.673022e+00
5.720864e+00
5.476621e+00
4.925761e+00
3.866573e+00
3.577356e+00
3.759875e+00
3.343974e+00
3.873921e+00
4.959532e+00
4.068314e+00
4.143135e+00
4.234810e+00
4.524020e+00
2.602396e+00
2.254267e+00
4.146418e+00
5.914956e+00
5.710793e+00
6.340125e+00
5.292348e+00
4.140182e+00
4.956100e+00
4.681393e+00
2.838357e+00
1.574428e+00
2.640956e+00
3.419860e+00
4.325303e+00
3.347250e+00
2.489118e+00
2.078017e+00
4.026064e+00
5.742856e+00
7.666189e+00
8.347048e+00
8.216577e+00
6.259923e+00
7.215585e+00
6.061182e+00
2.814557e+00
8.451478e-01
1.590296e+00
4.056470e+00
3.329796e+00
3.062939e+00
2.878854e+00
2.837594e+00
3.675022e+00
6.877802e+00
8.586030e+00
1.000000e+01
9.657782e+00


9.883595e-01
9.962613e-01
9.967262e-01
9.881881e-01
6.603118e-01
9.672336e-01
9.940617e-01
9.986347e-01
9.991159e-01
9.987555e-01
9.976011e-01
9.945417e-01
9.964920e-01
9.971260e-01
9.916765e-01
7.754231e-01
9.936825e-01
9.957778e-01
9.952213e-01
9.832246e-01
9.050163e-01
9.792801e-01
9.936352e-01
9.977567e-01
9.990003e-01
9.990519e-01
9.980365e-01
9.967695e-01
9.989900e-01
9.997477e-01
9.978950e-01
9.200352e-01
9.963723e-01
9.968568e-01
9.967428e-01
9.911752e-01
9.774647e-01
9.930872e-01
9.970203e-01
9.976009e-01
9.980295e-01
9.982910e-01
9.982892e-01
9.981755e-01
9.992998e-01
9.991693e-01
9.963716e-01
9.855216e-01
9.987326e-01
9.986967e-01
9.988541e-01
9.975885e-01
9.940212e-01
9.976242e-01
9.985184e-01
9.978186e-01
9.967704e-01
9.982648e-01
9.992307e-01
9.988483e-01
9.986259e-01
9.985481e-01
9.978378e-01
9.973537e-01
9.999521e-01
9.998167e-01
9.997681e-01
9.990351e-01
9.976706e-01
9.983732e-01
9.986316e-01
9.979035e-01
9.975706e-01
9.990494e-01
9.994615e-01
9.988207e-01
9.982741e-01
9.987780e-01
9.990806e-01
9.996302e-01
9.988331e-01
9.988055e-01
9.990093e-01
9.988028e-01
9.984975e-01
9.987668e-01
9.986099e-01
9.980838e-01
9.980491e-01
9.989318e-01
9.992018e-01
9.985693e-01
9.976240e-01
9.987496e-01
9.994333e-01
9.999061e-01
9.948389e-01
9.921913e-01
9.941090e-01
9.970324e-01
9.980953e-01
9.982555e-01
9.979218e-01
9.976633e-01
9.981133e-01
9.987717e-01
9.990438e-01
9.985245e-01
9.966948e-01
9.978054e-01
9.992525e-01
9.999525e-01
9.858111e-01
9.766049e-01
9.850172e-01
9.941701e-01
9.963462e-01
9.961632e-01
9.943546e-01
9.961252e-01
9.976729e-01
9.986254e-01
9.991647e-01
9.990701e-01
9.972663e-01
9.981236e-01
9.980789e-01
9.999793e-01
1 2 19 18
2 3 20 19
3 4 21 20
4 5 22 21
5 6 23 22
6 7 24 23
7 8 25 24
8 9 26 25
9 10 27 26
10 11 28 27
11 12 29 28
12 13 30 29
13 14 31 30
14 15 32 31
15 16 33 32
16 17 34 33
18 19 36 35
19 20 37 36
20 21 38 37
21 22 39 38
22 23 40 39
23 24 41 40
24 25 42 41
25 26 43 42
26 27 44 43
27 28 45 44
28 29 46 45
29 30 47 46
30 31 48 47
31 32 49 48
32 33 50 49
33 34 51 50
35 36 53 52
36 37 54 53
37 38 55 54
38 39 56 55
39 40 57 56
40 41 58 57
41 42 59 58
42 43 60 59
43 44 61 60
44 45 62 61
45 46 63 62
46 47 64 63
47 48 65 64
48 49 66 65
49 50 67 66
50 51 68 67
52 53 70 69
53 54 71 70
54 55 72 71
55 56 73 72
56 57 74 73
57 58 75 74
58 59 76 75
59 60 77 76
60 61 78 77
61 62 79 78
62 63 80 79
63 64 81 80
64 65 82 81
65 66 83 82
66 67 84 83
67 68 85 84
69 70 87 86
70 71 88 87
71 72 89 88
72 73 90 89
73 74 91 90
74 75 92 91
75 76 93 92
76 77 94 93
77 78 95 94
78 79 96 95
79 80 97 96
80 81 98 97
81 82 99 98
82 83 100 99
83 84 101 100
84 85 102 101
86 87 104 103
87 88 105 104
88 89 106 105
89 90 107 106
90 91 108 107
91 92 109 108
92 93 110 109
93 94 111 110
94 95 112 111
95 96 113 112
96 97 114 113
97 98 115 114
98 99 116 115
99 100 117 116
100 101 118 117
101 102 119 118
103 104 121 120
104 105 122 121
105 106 123 122
106 107 124 123
107 108 125 124
108 109 126 125
109 110 127 126
110 111 128 127
111 112 129 128
112 113 130 129
113 114 131 130
114 115 132 131
115 116 133 132
116 117 134 133
117 118 135 134
118 119 136 135
120 121 138 137
121 122 139 138
122 123 140 139
123 124 141 140
124 125 142 141
125 126 143 142
126 127 144 143
127 128 145 144
128 129 146 145
129 130 147 146
130 131 148 147
131 132 149 148
132 133 150 149
133 134 151 150
134 135 152 151
135 136 153 152
