TITLE = "Solution"
VARIABLES = x, y, u, v, psiu, psiv, t, stress
ZONE T="structure" N=153 E=128 F=FEBLOCK ET=QUADRILATERAL VARLOCATION=([7,8]=cellcentered)
0.000000e+00
1.250000e+01
2.500000e+01
3.750000e+01
5.000000e+01
6.250000e+01
7.500000e+01
8.750000e+01
1.000000e+02
1.125000e+02
1.250000e+02
1.375000e+02
1.500000e+02
1.625000e+02
1.750000e+02
1.875000e+02
2.000000e+02
0.000000e+00
1.250000e+01
2.500000e+01
3.750000e+01
5.000000e+01
6.250000e+01
7.500000e+01
8.750000e+01
1.000000e+02
1.125000e+02
1.250000e+02
1.375000e+02
1.500000e+02
1.625000e+02
1.750000e+02
1.875000e+02
2.000000e+02
0.000000e+00
1.250000e+01
2.500000e+01
3.750000e+01
5.000000e+01
6.250000e+01
7.500000e+01
8.750000e+01
1.000000e+02
1.125000e+02
1.250000e+02
1.375000e+02
1.500000e+02
1.625000e+02
1.750000e+02
1.875000e+02
2.000000e+02
0.000000e+00
1.250000e+01
2.500000e+01
3.750000e+01
5.000000e+01
6.250000e+01
7.500000e+01
8.750000e+01
1.000000e+02
1.125000e+02
1.250000e+02
1.375000e+02
1.500000e+02
1.625000e+02
1.750000e+02
1.875000e+02
2.000000e+02
0.000000e+00
1.250000e+01
2.500000e+01
3.750000e+01
5.000000e+01
6.250000e+01
7.500000e+01
8.750000e+01
1.000000e+02
1.125000e+02
1.250000e+02
1.375000e+02
1.500000e+02
1.625000e+02
1.750000e+02
1.875000e+02
2.000000e+02
0.000000e+00
1.250000e+01
2.500000e+01
3.750000e+01
5.000000e+01
6.250000e+01
7.500000e+01
8.750000e+01
1.000000e+02
1.125000e+02
1.250000e+02
1.375000e+02
1.500000e+02
1.625000e+02
1.750000e+02
1.875000e+02
2.000000e+02
0.000000e+00
1.250000e+01
2.500000e+01
3.750000e+01
5.000000e+01
6.250000e+01
7.500000e+01
8.750000e+01
1.000000e+02
1.125000e+02
1.250000e+02
1.375000e+02
1.500000e+02
1.625000e+02
1.750000e+02
1.875000e+02
2.000000e+02
0.000000e+00
1.250000e+01
2.500000e+01
3.750000e+01
5.000000e+01
6.250000e+01
7.500000e+01
8.750000e+01
1.000000e+02
1.125000e+02
1.250000e+02
1.375000e+02
1.500000e+02
1.625000e+02
1.750000e+02
1.875000e+02
2.000000e+02
0.000000e+00
1.250000e+01
2.500000e+01
3.750000e+01
5.000000e+01
6.250000e+01
7.500000e+01
8.750000e+01
1.000000e+02
1.125000e+02
1.250000e+02
1.375000e+02
1.500000e+02
1.625000e+02
1.750000e+02
1.875000e+02
2.000000e+02
0.000000e+00
0.000000e+00
0.000000e+00
0.000000e+00
0.000000e+00
0.000000e+00
0.000000e+00
0.000000e+00
0.000000e+00
0.000000e+00
0.000000e+00
0.000000e+00
0.000000e+00
0.000000e+00
0.000000e+00
0.000000e+00
0.000000e+00
1.250000e+01
1.250000e+01
1.250000e+01
1.250000e+01
1.250000e+01
1.250000e+01
1.250000e+01
1.250000e+01
1.250000e+01
1.250000e+01
1.250000e+01
1.250000e+01
1.250000e+01
1.250000e+01
1.250000e+01
1.250000e+01
1.250000e+01
2.500000e+01
2.500000e+01
2.500000e+01
2.500000e+01
2.500000e+01
2.500000e+01
2.500000e+01
2.500000e+01
2.500000e+01
2.500000e+01
2.500000e+01
2.500000e+01
2.500000e+01
2.500000e+01
2.500000e+01
2.500000e+01
2.500000e+01
3.750000e+01
3.750000e+01
3.750000e+01
3.750000e+01
3.750000e+01
3.750000e+01
3.750000e+01
3.750000e+01
3.750000e+01
3.750000e+01
3.750000e+01
3.750000e+01
3.750000e+01
3.750000e+01
3.750000e+01
3.750000e+01
3.750000e+01
5.000000e+01
5.000000e+01
5.000000e+01
5.000000e+01
5.000000e+01
5.000000e+01
5.000000e+01
5.000000e+01
5.000000e+01
5.000000e+01
5.000000e+01
5.000000e+01
5.000000e+01
5.000000e+01
5.000000e+01
5.000000e+01
5.000000e+01
6.250000e+01
6.250000e+01
6.250000e+01
6.250000e+01
6.250000e+01
6.250000e+01
6.250000e+01
6.250000e+01
6.250000e+01
6.250000e+01
6.250000e+01
6.250000e+01
6.250000e+01
6.250000e+01
6.250000e+01
6.250000e+01
6.250000e+01
7.500000e+01
7.500000e+01
7.500000e+01
7.500000e+01
7.500000e+01
7.500000e+01
7.500000e+01
7.500000e+01
7.500000e+01
7.500000e+01
7.500000e+01
7.500000e+01
7.500000e+01
7.500000e+01
7.500000e+01
7.500000e+01
7.500000e+01
8.750000e+01
8.750000e+01
8.750000e+01
8.750000e+01
8.750000e+01
8.750000e+01
8.750000e+01
8.750000e+01
8.750000e+01
8.750000e+01
8.750000e+01
8.750000e+01
8.750000e+01
8.750000e+01
8.750000e+01
8.750000e+01
8.750000e+01
1.000000e+02
1.000000e+02
1.000000e+02
1.000000e+02
1.000000e+02
1.000000e+02
1.000000e+02
1.000000e+02
1.000000e+02
1.000000e+02
1.000000e+02
1.000000e+02
1.000000e+02
1.000000e+02
1.000000e+02
1.000000e+02
1.000000e+02
0.000000e+00
-1.014889e+00
-1.830040e+00
-2.584788e+00
-3.325939e+00
-4.036995e+00
-4.713675e+00
-5.352638e+00
-5.932230e+00
-6.439693e+00
-6.876498e+00
-7.254979e+00
-7.631369e+00
-8.051153e+00
-8.530758e+00
-9.182846e+00
-9.764913e+00
0.000000e+00
-5.673331e-01
-1.163097e+00
-1.722748e+00
-2.278114e+00
-2.816979e+00
-3.331011e+00
-3.811862e+00
-4.251822e+00
-4.646553e+00
-4.991184e+00
-5.281298e+00
-5.546472e+00
-5.795112e+00
-5.986216e+00
-6.045201e+00
-6.225029e+00
0.000000e+00
-3.090130e-01
-6.410309e-01
-1.003989e+00
-1.377133e+00
-1.745377e+00
-2.094460e+00
-2.412536e+00
-2.703944e+00
-2.977344e+00
-3.220761e+00
-3.413394e+00
-3.560051e+00
-3.657124e+00
-3.679503e+00
-3.658373e+00
-3.786909e+00
0.000000e+00
-1.351313e-01
-2.786585e-01
-4.463517e-01
-6.319815e-01
-8.213278e-01
-1.002435e+00
-1.164570e+00
-1.312165e+00
-1.452086e+00
-1.568269e+00
-1.643765e+00
-1.678927e+00
-1.677067e+00
-1.649934e+00
-1.654444e+00
-1.735000e+00
0.000000e+00
-6.684261e-03
-1.180021e-02
-1.281712e-02
-1.212335e-02
-9.232019e-03
-7.642335e-03
-8.042085e-03
-7.697318e-03
2.331452e-03
2.760881e-02
6.884858e-02
1.232569e-01
1.844973e-01
2.330748e-01
2.338392e-01
1.781175e-01
0.000000e+00
1.329098e-01
2.719194e-01
4.356422e-01
6.237247e-01
8.132248e-01
9.966218e-01
1.166525e+00
1.322319e+00
1.471061e+00
1.617938e+00
1.756142e+00
1.876017e+00
1.976884e+00
2.045194e+00
2.057448e+00
2.024138e+00
0.000000e+00
3.174206e-01
6.504721e-01
1.011916e+00
1.387717e+00
1.755204e+00
2.105635e+00
2.431951e+00
2.726077e+00
2.989121e+00
3.228420e+00
3.441362e+00
3.614947e+00
3.747469e+00
3.837752e+00
3.869296e+00
3.860422e+00
0.000000e+00
5.764117e-01
1.176211e+00
1.741537e+00
2.299353e+00
2.837399e+00
3.346346e+00
3.820912e+00
4.246648e+00
4.615744e+00
4.934889e+00
5.209143e+00
5.430041e+00
5.594416e+00
5.701963e+00
5.749148e+00
5.757825e+00
0.000000e+00
1.023506e+00
1.847242e+00
2.608989e+00
3.354828e+00
4.065032e+00
4.732982e+00
5.353298e+00
5.911249e+00
6.393067e+00
6.798794e+00
7.139943e+00
7.406655e+00
7.596235e+00
7.696669e+00
7.719623e+00
7.718449e+00
0.000000e+00
-6.022619e-01
-1.232335e+00
-2.074856e+00
-3.114162e+00
-4.334644e+00
-5.720049e+00
-7.258843e+00
-8.940910e+00
-1.074822e+01
-1.265327e+01
-1.464039e+01
-1.672068e+01
-1.891309e+01
-2.127853e+01
-2.404916e+01
-2.870533e+01
0.000000e+00
-3.711312e-01
-1.034544e+00
-1.877901e+00
-2.922921e+00
-4.152651e+00
-5.548397e+00
-7.098667e+00
-8.796004e+00
-1.062232e+01
-1.254781e+01
-1.454663e+01
-1.662848e+01
-1.882397e+01
-2.118609e+01
-2.392622e+01
-2.752140e+01
0.000000e+00
-2.946486e-01
-8.976079e-01
-1.737055e+00
-2.784958e+00
-4.024117e+00
-5.431326e+00
-6.988751e+00
-8.690272e+00
-1.052936e+01
-1.247535e+01
-1.449174e+01
-1.658853e+01
-1.880295e+01
-2.117655e+01
-2.374590e+01
-2.623640e+01
0.000000e+00
-2.811264e-01
-8.326864e-01
-1.648657e+00
-2.701475e+00
-3.949508e+00
-5.369158e+00
-6.931356e+00
-8.631650e+00
-1.047719e+01
-1.244096e+01
-1.447898e+01
-1.659016e+01
-1.880842e+01
-2.114253e+01
-2.349947e+01
-2.565942e+01
0.000000e+00
-2.777839e-01
-8.126528e-01
-1.617264e+00
-2.674445e+00
-3.928681e+00
-5.353911e+00
-6.922408e+00
-8.626199e+00
-1.047280e+01
-1.244297e+01
-1.449496e+01
-1.661029e+01
-1.880797e+01
-2.107814e+01
-2.330631e+01
-2.533106e+01
0.000000e+00
-2.790890e-01
-8.299502e-01
-1.646599e+00
-2.706345e+00
-3.959343e+00
-5.382108e+00
-6.955606e+00
-8.666105e+00
-1.051064e+01
-1.247511e+01
-1.452767e+01
-1.663655e+01
-1.880345e+01
-2.101446e+01
-2.316198e+01
-2.512333e+01
0.000000e+00
-2.949916e-01
-8.950819e-01
-1.735940e+00
-2.793443e+00
-4.040234e+00
-5.456958e+00
-7.028156e+00
-8.740129e+00
-1.057985e+01
-1.253250e+01
-1.457345e+01
-1.666999e+01
-1.880887e+01
-2.097084e+01
-2.306417e+01
-2.501372e+01
0.000000e+00
-3.715147e-01
-1.033152e+00
-1.879794e+00
-2.932325e+00
-4.171673e+00
-5.579440e+00
-7.141681e+00
-8.844520e+00
-1.067383e+01
-1.261175e+01
-1.463534e+01
-1.671672e+01
-1.883559e+01
-2.096085e+01
-2.302026e+01
-2.498862e+01
0.000000e+00
-6.042196e-01
-1.233325e+00
-2.078800e+00
-3.124229e+00
-4.353338e+00
-5.749584e+00
-7.297652e+00
-8.982786e+00
-1.079319e+01
-1.271244e+01
-1.471701e+01
-1.677862e+01
-1.887648e+01
-2.097322e+01
-2.301209e+01
-2.498969e+01


0.000000e+00
1.463416e-05
2.888644e-05
4.093401e-05
5.124990e-05
5.975010e-05
6.624228e-05
7.064501e-05
7.315093e-05
7.431311e-05
7.473102e-05
7.484828e-05
7.488823e-05
7.494337e-05
7.510479e-05
7.576640e-05
7.721883e-05
0.000000e+00
1.057317e-05
2.321666e-05
3.264981e-05
4.043142e-05
4.674502e-05
5.136357e-05
5.421616e-05
5.561297e-05
5.609464e-05
5.616060e-05
5.612579e-05
5.608771e-05
5.601335e-05
5.599893e-05
5.658569e-05
5.783135e-05
0.000000e+00
7.710629e-06
1.596368e-05
2.252401e-05
2.794780e-05
3.212087e-05
3.494530e-05
3.652325e-05
3.722700e-05
3.743342e-05
3.742430e-05
3.737637e-05
3.734394e-05
3.733937e-05
3.743209e-05
3.782085e-05
3.847132e-05
0.000000e+00
3.646202e-06
7.122958e-06
1.067114e-05
1.365210e-05
1.581434e-05
1.720121e-05
1.796602e-05
1.834473e-05
1.851872e-05
1.858054e-05
1.859672e-05
1.861223e-05
1.866164e-05
1.873863e-05
1.884645e-05
1.905406e-05
0.000000e+00
5.557583e-09
1.922482e-08
-2.001150e-08
-7.601454e-08
-1.465053e-07
-1.950439e-07
-2.210627e-07
-2.298238e-07
-2.286837e-07
-2.171447e-07
-1.955181e-07
-1.642297e-07
-1.270987e-07
-1.135226e-07
-1.296290e-07
-8.976473e-08
0.000000e+00
-3.701118e-06
-7.176578e-06
-1.077009e-05
-1.391123e-05
-1.617921e-05
-1.764055e-05
-1.845409e-05
-1.883746e-05
-1.898609e-05
-1.901869e-05
-1.900143e-05
-1.897335e-05
-1.895890e-05
-1.897612e-05
-1.900997e-05
-1.900584e-05
0.000000e+00
-7.895859e-06
-1.623452e-05
-2.288180e-05
-2.844575e-05
-3.265629e-05
-3.548630e-05
-3.706080e-05
-3.771563e-05
-3.787573e-05
-3.785286e-05
-3.780443e-05
-3.778004e-05
-3.777917e-05
-3.779859e-05
-3.781892e-05
-3.781866e-05
0.000000e+00
-1.086183e-05
-2.373394e-05
-3.330443e-05
-4.112707e-05
-4.741915e-05
-5.196707e-05
-5.476030e-05
-5.609068e-05
-5.651916e-05
-5.657449e-05
-5.655777e-05
-5.656169e-05
-5.658006e-05
-5.660250e-05
-5.661730e-05
-5.661992e-05
0.000000e+00
-1.491461e-05
-2.945830e-05
-4.163830e-05
-5.197419e-05
-6.040964e-05
-6.679737e-05
-7.110446e-05
-7.356281e-05
-7.469542e-05
-7.511876e-05
-7.527046e-05
-7.533977e-05
-7.538643e-05
-7.541944e-05
-7.543342e-05
-7.543546e-05
0.000000e+00
1.253223e-05
2.143831e-05
3.123040e-05
4.334274e-05
5.735921e-05
7.279803e-05
8.932095e-05
1.067087e-04
1.247529e-04
1.432235e-04
1.619187e-04
1.806994e-04
1.995655e-04
2.190708e-04
2.401330e-04
2.622041e-04
0.000000e+00
6.307769e-06
1.569087e-05
2.626526e-05
3.916216e-05
5.406926e-05
7.048851e-05
8.794680e-05
1.060570e-04
1.245273e-04
1.431804e-04
1.619227e-04
1.807115e-04
1.995505e-04
2.185713e-04
2.385509e-04
2.596831e-04
0.000000e+00
2.619770e-06
1.102995e-05
2.241268e-05
3.601046e-05
5.169934e-05
6.892418e-05
8.707664e-05
1.056773e-04
1.244233e-04
1.431852e-04
1.619487e-04
1.807318e-04
1.995147e-04
2.181875e-04
2.374618e-04
2.576905e-04
0.000000e+00
1.570646e-06
8.918039e-06
2.034424e-05
3.444903e-05
5.062785e-05
6.827451e-05
8.672561e-05
1.055084e-04
1.243601e-04
1.431739e-04
1.619530e-04
1.807203e-04
1.994563e-04
2.181123e-04
2.371195e-04
2.566815e-04
0.000000e+00
1.392596e-06
8.370133e-06
1.963429e-05
3.395201e-05
5.032951e-05
6.810197e-05
8.663181e-05
1.054548e-04
1.243286e-04
1.431550e-04
1.619359e-04
1.806940e-04
1.994319e-04
2.181733e-04
2.371029e-04
2.562429e-04
0.000000e+00
1.544139e-06
8.903028e-06
2.035119e-05
3.449357e-05
5.069788e-05
6.833687e-05
8.678533e-05
1.055520e-04
1.243742e-04
1.431606e-04
1.619196e-04
1.806755e-04
1.994386e-04
2.182398e-04
2.371322e-04
2.560574e-04
0.000000e+00
2.613654e-06
1.099943e-05
2.244315e-05
3.610393e-05
5.181038e-05
6.902973e-05
8.716765e-05
1.057359e-04
1.244387e-04
1.431633e-04
1.619007e-04
1.806636e-04
1.994524e-04
2.182762e-04
2.371373e-04
2.559797e-04
0.000000e+00
6.354078e-06
1.575485e-05
2.637320e-05
3.929477e-05
5.419483e-05
7.059869e-05
8.802934e-05
1.061002e-04
1.245334e-04
1.431546e-04
1.618788e-04
1.806568e-04
1.994618e-04
2.182917e-04
2.371333e-04
2.559577e-04
0.000000e+00
1.273898e-05
2.164182e-05
3.142104e-05
4.351133e-05
5.748882e-05
7.289355e-05
8.938845e-05
1.067376e-04
1.247482e-04
1.431987e-04
1.618849e-04
1.806632e-04
1.994719e-04
2.182996e-04
2.371328e-04
2.559552e-04


2.676013e+00
2.510684e+00
2.532271e+00
2.719218e+00
2.876566e+00
3.031755e+00
3.160945e+00
3.187173e+00
3.261039e+00
3.167109e+00
3.262655e+00
4.208668e+00
5.310770e+00
5.263470e+00
5.598628e+00
6.113605e+00
3.361110e+00
3.318583e+00
3.370683e+00
3.576375e+00
3.680223e+00
3.704519e+00
3.678237e+00
3.973634e+00
4.294492e+00
4.216192e+00
3.746765e+00
4.068036e+00
4.414205e+00
4.481799e+00
4.374997e+00
4.618647e+00
4.204546e+00
4.389966e+00
4.823284e+00
5.128805e+00
5.206227e+00
4.970135e+00
4.717430e+00
4.941522e+00
5.609838e+00
5.423836e+00
4.603193e+00
4.020251e+00
3.914314e+00
3.636563e+00
3.442554e+00
3.287774e+00
4.043805e+00
4.678658e+00
5.520542e+00
6.233470e+00
6.315909e+00
6.030816e+00
5.451419e+00
5.335308e+00
5.507903e+00
5.326753e+00
4.527773e+00
3.831520e+00
3.580969e+00
3.497426e+00
3.273799e+00
3.064306e+00
3.888197e+00
4.384600e+00
5.377803e+00
6.118204e+00
6.259933e+00
5.989179e+00
5.548832e+00
4.943775e+00
4.721478e+00
4.587100e+00
4.199182e+00
3.703383e+00
3.531115e+00
3.789443e+00
3.826433e+00
3.616389e+00
3.927656e+00
4.110562e+00
4.576167e+00
5.055105e+00
5.045687e+00
4.915548e+00
4.640523e+00
4.297381e+00
4.056385e+00
4.131387e+00
4.164055e+00
3.848118e+00
3.917630e+00
4.458181e+00
4.605005e+00
4.373918e+00
3.413749e+00
3.298205e+00
3.390348e+00
3.570182e+00
3.630520e+00
3.602069e+00
3.608396e+00
3.503197e+00
3.467489e+00
3.650275e+00
3.850236e+00
3.940913e+00
4.170401e+00
4.761866e+00
4.832880e+00
4.422099e+00
2.736443e+00
2.559979e+00
2.569603e+00
2.745249e+00
2.883132e+00
3.016839e+00
3.147220e+00
3.217010e+00
3.233297e+00
3.319049e+00
3.630944e+00
3.877062e+00
4.281446e+00
4.637242e+00
4.474011e+00
4.041553e+00


-1.189399e+00
-7.495655e-01
-5.147018e-01
-4.756911e-01
-3.729628e-01
-2.457560e-01
-1.012117e-01
8.511947e-02
2.809979e-01
4.600316e-01
6.047158e-01
6.388639e-01
6.145521e-01
6.107911e-01
5.476179e-01
-1.744079e+00
3.004937e-01
1.784203e-01
1.826307e-01
1.623389e-01
1.899167e-01
2.606604e-01
3.616726e-01
4.562233e-01
5.338834e-01
6.290478e-01
7.450597e-01
8.154346e-01
8.685182e-01
9.293630e-01
8.230226e-01
-1.425584e+00
7.741692e-01
6.634968e-01
5.467920e-01
4.809518e-01
4.723876e-01
5.051084e-01
5.681476e-01
6.100370e-01
6.253526e-01
6.827657e-01
7.853139e-01
8.526262e-01
8.660846e-01
8.108944e-01
6.257297e-01
2.834761e-01
9.116980e-01
7.969320e-01
6.478102e-01
5.383980e-01
5.273727e-01
5.563671e-01
6.072093e-01
6.382156e-01
6.493415e-01
6.912978e-01
7.625616e-01
8.028710e-01
7.777844e-01
7.054536e-01
6.889348e-01
7.099657e-01
9.194636e-01
8.154692e-01
6.714864e-01
5.563865e-01
5.420359e-01
5.667319e-01
6.155635e-01
6.566918e-01
6.675940e-01
6.763204e-01
7.067396e-01
7.353468e-01
7.185905e-01
6.867460e-01
7.519116e-01
8.553190e-01
7.734169e-01
6.801712e-01
5.694768e-01
4.880189e-01
4.859543e-01
5.122897e-01
5.564190e-01
6.021873e-01
6.241361e-01
6.279950e-01
6.468203e-01
6.899405e-01
7.094115e-01
7.236460e-01
8.244784e-01
9.370850e-01
2.749065e-01
1.737618e-01
1.782141e-01
1.547969e-01
1.924656e-01
2.606650e-01
3.444401e-01
4.493469e-01
5.444517e-01
6.069415e-01
6.594507e-01
7.289442e-01
7.875984e-01
8.393324e-01
9.273808e-01
9.883957e-01
-1.237179e+00
-7.799860e-01
-5.437936e-01
-4.922206e-01
-3.701492e-01
-2.199174e-01
-5.742353e-02
1.433049e-01
3.533733e-01
5.235326e-01
6.495503e-01
7.719267e-01
8.693642e-01
9.433219e-01
9.890831e-01
9.998197e-01
1 2 19 18
2 3 20 19
3 4 21 20
4 5 22 21
5 6 23 22
6 7 24 23
7 8 25 24
8 9 26 25
9 10 27 26
10 11 28 27
11 12 29 28
12 13 30 29
13 14 31 30
14 15 32 31
15 16 33 32
16 17 34 33
18 19 36 35
19 20 37 36
20 21 38 37
21 22 39 38
22 23 40 39
23 24 41 40
24 25 42 41
25 26 43 42
26 27 44 43
27 28 45 44
28 29 46 45
29 30 47 46
30 31 48 47
31 32 49 48
32 33 50 49
33 34 51 50
35 36 53 52
36 37 54 53
37 38 55 54
38 39 56 55
39 40 57 56
40 41 58 57
41 42 59 58
42 43 60 59
43 44 61 60
44 45 62 61
45 46 63 62
46 47 64 63
47 48 65 64
48 49 66 65
49 50 67 66
50 51 68 67
52 53 70 69
53 54 71 70
54 55 72 71
55 56 73 72
56 57 74 73
57 58 75 74
58 59 76 75
59 60 77 76
60 61 78 77
61 62 79 78
62 63 80 79
63 64 81 80
64 65 82 81
65 66 83 82
66 67 84 83
67 68 85 84
69 70 87 86
70 71 88 87
71 72 89 88
72 73 90 89
73 74 91 90
74 75 92 91
75 76 93 92
76 77 94 93
77 78 95 94
78 79 96 95
79 80 97 96
80 81 98 97
81 82 99 98
82 83 100 99
83 84 101 100
84 85 102 101
86 87 104 103
87 88 105 104
88 89 106 105
89 90 107 106
90 91 108 107
91 92 109 108
92 93 110 109
93 94 111 110
94 95 112 111
95 96 113 112
96 97 114 113
97 98 115 114
98 99 116 115
99 100 117 116
100 101 118 117
101 102 119 118
103 104 121 120
104 105 122 121
105 106 123 122
106 107 124 123
107 108 125 124
108 109 126 125
109 110 127 126
110 111 128 127
111 112 129 128
112 113 130 129
113 114 131 130
114 115 132 131
115 116 133 132
116 117 134 133
117 118 135 134
118 119 136 135
120 121 138 137
121 122 139 138
122 123 140 139
123 124 141 140
124 125 142 141
125 126 143 142
126 127 144 143
127 128 145 144
128 129 146 145
129 130 147 146
130 131 148 147
131 132 149 148
132 133 150 149
133 134 151 150
134 135 152 151
135 136 153 152
