TITLE = "Solution"
VARIABLES = x, y, u, v, psiu, psiv, t, stress
ZONE T="structure" N=561 E=512 F=FEBLOCK ET=QUADRILATERAL VARLOCATION=([7,8]=cellcentered)
0.000000e+00
6.250000e+00
1.250000e+01
1.875000e+01
2.500000e+01
3.125000e+01
3.750000e+01
4.375000e+01
5.000000e+01
5.625000e+01
6.250000e+01
6.875000e+01
7.500000e+01
8.125000e+01
8.750000e+01
9.375000e+01
1.000000e+02
1.062500e+02
1.125000e+02
1.187500e+02
1.250000e+02
1.312500e+02
1.375000e+02
1.437500e+02
1.500000e+02
1.562500e+02
1.625000e+02
1.687500e+02
1.750000e+02
1.812500e+02
1.875000e+02
1.937500e+02
2.000000e+02
0.000000e+00
6.250000e+00
1.250000e+01
1.875000e+01
2.500000e+01
3.125000e+01
3.750000e+01
4.375000e+01
5.000000e+01
5.625000e+01
6.250000e+01
6.875000e+01
7.500000e+01
8.125000e+01
8.750000e+01
9.375000e+01
1.000000e+02
1.062500e+02
1.125000e+02
1.187500e+02
1.250000e+02
1.312500e+02
1.375000e+02
1.437500e+02
1.500000e+02
1.562500e+02
1.625000e+02
1.687500e+02
1.750000e+02
1.812500e+02
1.875000e+02
1.937500e+02
2.000000e+02
0.000000e+00
6.250000e+00
1.250000e+01
1.875000e+01
2.500000e+01
3.125000e+01
3.750000e+01
4.375000e+01
5.000000e+01
5.625000e+01
6.250000e+01
6.875000e+01
7.500000e+01
8.125000e+01
8.750000e+01
9.375000e+01
1.000000e+02
1.062500e+02
1.125000e+02
1.187500e+02
1.250000e+02
1.312500e+02
1.375000e+02
1.437500e+02
1.500000e+02
1.562500e+02
1.625000e+02
1.687500e+02
1.750000e+02
1.812500e+02
1.875000e+02
1.937500e+02
2.000000e+02
0.000000e+00
6.250000e+00
1.250000e+01
1.875000e+01
2.500000e+01
3.125000e+01
3.750000e+01
4.375000e+01
5.000000e+01
5.625000e+01
6.250000e+01
6.875000e+01
7.500000e+01
8.125000e+01
8.750000e+01
9.375000e+01
1.000000e+02
1.062500e+02
1.125000e+02
1.187500e+02
1.250000e+02
1.312500e+02
1.375000e+02
1.437500e+02
1.500000e+02
1.562500e+02
1.625000e+02
1.687500e+02
1.750000e+02
1.812500e+02
1.875000e+02
1.937500e+02
2.000000e+02
0.000000e+00
6.250000e+00
1.250000e+01
1.875000e+01
2.500000e+01
3.125000e+01
3.750000e+01
4.375000e+01
5.000000e+01
5.625000e+01
6.250000e+01
6.875000e+01
7.500000e+01
8.125000e+01
8.750000e+01
9.375000e+01
1.000000e+02
1.062500e+02
1.125000e+02
1.187500e+02
1.250000e+02
1.312500e+02
1.375000e+02
1.437500e+02
1.500000e+02
1.562500e+02
1.625000e+02
1.687500e+02
1.750000e+02
1.812500e+02
1.875000e+02
1.937500e+02
2.000000e+02
0.000000e+00
6.250000e+00
1.250000e+01
1.875000e+01
2.500000e+01
3.125000e+01
3.750000e+01
4.375000e+01
5.000000e+01
5.625000e+01
6.250000e+01
6.875000e+01
7.500000e+01
8.125000e+01
8.750000e+01
9.375000e+01
1.000000e+02
1.062500e+02
1.125000e+02
1.187500e+02
1.250000e+02
1.312500e+02
1.375000e+02
1.437500e+02
1.500000e+02
1.562500e+02
1.625000e+02
1.687500e+02
1.750000e+02
1.812500e+02
1.875000e+02
1.937500e+02
2.000000e+02
0.000000e+00
6.250000e+00
1.250000e+01
1.875000e+01
2.500000e+01
3.125000e+01
3.750000e+01
4.375000e+01
5.000000e+01
5.625000e+01
6.250000e+01
6.875000e+01
7.500000e+01
8.125000e+01
8.750000e+01
9.375000e+01
1.000000e+02
1.062500e+02
1.125000e+02
1.187500e+02
1.250000e+02
1.312500e+02
1.375000e+02
1.437500e+02
1.500000e+02
1.562500e+02
1.625000e+02
1.687500e+02
1.750000e+02
1.812500e+02
1.875000e+02
1.937500e+02
2.000000e+02
0.000000e+00
6.250000e+00
1.250000e+01
1.875000e+01
2.500000e+01
3.125000e+01
3.750000e+01
4.375000e+01
5.000000e+01
5.625000e+01
6.250000e+01
6.875000e+01
7.500000e+01
8.125000e+01
8.750000e+01
9.375000e+01
1.000000e+02
1.062500e+02
1.125000e+02
1.187500e+02
1.250000e+02
1.312500e+02
1.375000e+02
1.437500e+02
1.500000e+02
1.562500e+02
1.625000e+02
1.687500e+02
1.750000e+02
1.812500e+02
1.875000e+02
1.937500e+02
2.000000e+02
0.000000e+00
6.250000e+00
1.250000e+01
1.875000e+01
2.500000e+01
3.125000e+01
3.750000e+01
4.375000e+01
5.000000e+01
5.625000e+01
6.250000e+01
6.875000e+01
7.500000e+01
8.125000e+01
8.750000e+01
9.375000e+01
1.000000e+02
1.062500e+02
1.125000e+02
1.187500e+02
1.250000e+02
1.312500e+02
1.375000e+02
1.437500e+02
1.500000e+02
1.562500e+02
1.625000e+02
1.687500e+02
1.750000e+02
1.812500e+02
1.875000e+02
1.937500e+02
2.000000e+02
0.000000e+00
6.250000e+00
1.250000e+01
1.875000e+01
2.500000e+01
3.125000e+01
3.750000e+01
4.375000e+01
5.000000e+01
5.625000e+01
6.250000e+01
6.875000e+01
7.500000e+01
8.125000e+01
8.750000e+01
9.375000e+01
1.000000e+02
1.062500e+02
1.125000e+02
1.187500e+02
1.250000e+02
1.312500e+02
1.375000e+02
1.437500e+02
1.500000e+02
1.562500e+02
1.625000e+02
1.687500e+02
1.750000e+02
1.812500e+02
1.875000e+02
1.937500e+02
2.000000e+02
0.000000e+00
6.250000e+00
1.250000e+01
1.875000e+01
2.500000e+01
3.125000e+01
3.750000e+01
4.375000e+01
5.000000e+01
5.625000e+01
6.250000e+01
6.875000e+01
7.500000e+01
8.125000e+01
8.750000e+01
9.375000e+01
1.000000e+02
1.062500e+02
1.125000e+02
1.187500e+02
1.250000e+02
1.312500e+02
1.375000e+02
1.437500e+02
1.500000e+02
1.562500e+02
1.625000e+02
1.687500e+02
1.750000e+02
1.812500e+02
1.875000e+02
1.937500e+02
2.000000e+02
0.000000e+00
6.250000e+00
1.250000e+01
1.875000e+01
2.500000e+01
3.125000e+01
3.750000e+01
4.375000e+01
5.000000e+01
5.625000e+01
6.250000e+01
6.875000e+01
7.500000e+01
8.125000e+01
8.750000e+01
9.375000e+01
1.000000e+02
1.062500e+02
1.125000e+02
1.187500e+02
1.250000e+02
1.312500e+02
1.375000e+02
1.437500e+02
1.500000e+02
1.562500e+02
1.625000e+02
1.687500e+02
1.750000e+02
1.812500e+02
1.875000e+02
1.937500e+02
2.000000e+02
0.000000e+00
6.250000e+00
1.250000e+01
1.875000e+01
2.500000e+01
3.125000e+01
3.750000e+01
4.375000e+01
5.000000e+01
5.625000e+01
6.250000e+01
6.875000e+01
7.500000e+01
8.125000e+01
8.750000e+01
9.375000e+01
1.000000e+02
1.062500e+02
1.125000e+02
1.187500e+02
1.250000e+02
1.312500e+02
1.375000e+02
1.437500e+02
1.500000e+02
1.562500e+02
1.625000e+02
1.687500e+02
1.750000e+02
1.812500e+02
1.875000e+02
1.937500e+02
2.000000e+02
0.000000e+00
6.250000e+00
1.250000e+01
1.875000e+01
2.500000e+01
3.125000e+01
3.750000e+01
4.375000e+01
5.000000e+01
5.625000e+01
6.250000e+01
6.875000e+01
7.500000e+01
8.125000e+01
8.750000e+01
9.375000e+01
1.000000e+02
1.062500e+02
1.125000e+02
1.187500e+02
1.250000e+02
1.312500e+02
1.375000e+02
1.437500e+02
1.500000e+02
1.562500e+02
1.625000e+02
1.687500e+02
1.750000e+02
1.812500e+02
1.875000e+02
1.937500e+02
2.000000e+02
0.000000e+00
6.250000e+00
1.250000e+01
1.875000e+01
2.500000e+01
3.125000e+01
3.750000e+01
4.375000e+01
5.000000e+01
5.625000e+01
6.250000e+01
6.875000e+01
7.500000e+01
8.125000e+01
8.750000e+01
9.375000e+01
1.000000e+02
1.062500e+02
1.125000e+02
1.187500e+02
1.250000e+02
1.312500e+02
1.375000e+02
1.437500e+02
1.500000e+02
1.562500e+02
1.625000e+02
1.687500e+02
1.750000e+02
1.812500e+02
1.875000e+02
1.937500e+02
2.000000e+02
0.000000e+00
6.250000e+00
1.250000e+01
1.875000e+01
2.500000e+01
3.125000e+01
3.750000e+01
4.375000e+01
5.000000e+01
5.625000e+01
6.250000e+01
6.875000e+01
7.500000e+01
8.125000e+01
8.750000e+01
9.375000e+01
1.000000e+02
1.062500e+02
1.125000e+02
1.187500e+02
1.250000e+02
1.312500e+02
1.375000e+02
1.437500e+02
1.500000e+02
1.562500e+02
1.625000e+02
1.687500e+02
1.750000e+02
1.812500e+02
1.875000e+02
1.937500e+02
2.000000e+02
0.000000e+00
6.250000e+00
1.250000e+01
1.875000e+01
2.500000e+01
3.125000e+01
3.750000e+01
4.375000e+01
5.000000e+01
5.625000e+01
6.250000e+01
6.875000e+01
7.500000e+01
8.125000e+01
8.750000e+01
9.375000e+01
1.000000e+02
1.062500e+02
1.125000e+02
1.187500e+02
1.250000e+02
1.312500e+02
1.375000e+02
1.437500e+02
1.500000e+02
1.562500e+02
1.625000e+02
1.687500e+02
1.750000e+02
1.812500e+02
1.875000e+02
1.937500e+02
2.000000e+02
0.000000e+00
0.000000e+00
0.000000e+00
0.000000e+00
0.000000e+00
0.000000e+00
0.000000e+00
0.000000e+00
0.000000e+00
0.000000e+00
0.000000e+00
0.000000e+00
0.000000e+00
0.000000e+00
0.000000e+00
0.000000e+00
0.000000e+00
0.000000e+00
0.000000e+00
0.000000e+00
0.000000e+00
0.000000e+00
0.000000e+00
0.000000e+00
0.000000e+00
0.000000e+00
0.000000e+00
0.000000e+00
0.000000e+00
0.000000e+00
0.000000e+00
0.000000e+00
0.000000e+00
6.250000e+00
6.250000e+00
6.250000e+00
6.250000e+00
6.250000e+00
6.250000e+00
6.250000e+00
6.250000e+00
6.250000e+00
6.250000e+00
6.250000e+00
6.250000e+00
6.250000e+00
6.250000e+00
6.250000e+00
6.250000e+00
6.250000e+00
6.250000e+00
6.250000e+00
6.250000e+00
6.250000e+00
6.250000e+00
6.250000e+00
6.250000e+00
6.250000e+00
6.250000e+00
6.250000e+00
6.250000e+00
6.250000e+00
6.250000e+00
6.250000e+00
6.250000e+00
6.250000e+00
1.250000e+01
1.250000e+01
1.250000e+01
1.250000e+01
1.250000e+01
1.250000e+01
1.250000e+01
1.250000e+01
1.250000e+01
1.250000e+01
1.250000e+01
1.250000e+01
1.250000e+01
1.250000e+01
1.250000e+01
1.250000e+01
1.250000e+01
1.250000e+01
1.250000e+01
1.250000e+01
1.250000e+01
1.250000e+01
1.250000e+01
1.250000e+01
1.250000e+01
1.250000e+01
1.250000e+01
1.250000e+01
1.250000e+01
1.250000e+01
1.250000e+01
1.250000e+01
1.250000e+01
1.875000e+01
1.875000e+01
1.875000e+01
1.875000e+01
1.875000e+01
1.875000e+01
1.875000e+01
1.875000e+01
1.875000e+01
1.875000e+01
1.875000e+01
1.875000e+01
1.875000e+01
1.875000e+01
1.875000e+01
1.875000e+01
1.875000e+01
1.875000e+01
1.875000e+01
1.875000e+01
1.875000e+01
1.875000e+01
1.875000e+01
1.875000e+01
1.875000e+01
1.875000e+01
1.875000e+01
1.875000e+01
1.875000e+01
1.875000e+01
1.875000e+01
1.875000e+01
1.875000e+01
2.500000e+01
2.500000e+01
2.500000e+01
2.500000e+01
2.500000e+01
2.500000e+01
2.500000e+01
2.500000e+01
2.500000e+01
2.500000e+01
2.500000e+01
2.500000e+01
2.500000e+01
2.500000e+01
2.500000e+01
2.500000e+01
2.500000e+01
2.500000e+01
2.500000e+01
2.500000e+01
2.500000e+01
2.500000e+01
2.500000e+01
2.500000e+01
2.500000e+01
2.500000e+01
2.500000e+01
2.500000e+01
2.500000e+01
2.500000e+01
2.500000e+01
2.500000e+01
2.500000e+01
3.125000e+01
3.125000e+01
3.125000e+01
3.125000e+01
3.125000e+01
3.125000e+01
3.125000e+01
3.125000e+01
3.125000e+01
3.125000e+01
3.125000e+01
3.125000e+01
3.125000e+01
3.125000e+01
3.125000e+01
3.125000e+01
3.125000e+01
3.125000e+01
3.125000e+01
3.125000e+01
3.125000e+01
3.125000e+01
3.125000e+01
3.125000e+01
3.125000e+01
3.125000e+01
3.125000e+01
3.125000e+01
3.125000e+01
3.125000e+01
3.125000e+01
3.125000e+01
3.125000e+01
3.750000e+01
3.750000e+01
3.750000e+01
3.750000e+01
3.750000e+01
3.750000e+01
3.750000e+01
3.750000e+01
3.750000e+01
3.750000e+01
3.750000e+01
3.750000e+01
3.750000e+01
3.750000e+01
3.750000e+01
3.750000e+01
3.750000e+01
3.750000e+01
3.750000e+01
3.750000e+01
3.750000e+01
3.750000e+01
3.750000e+01
3.750000e+01
3.750000e+01
3.750000e+01
3.750000e+01
3.750000e+01
3.750000e+01
3.750000e+01
3.750000e+01
3.750000e+01
3.750000e+01
4.375000e+01
4.375000e+01
4.375000e+01
4.375000e+01
4.375000e+01
4.375000e+01
4.375000e+01
4.375000e+01
4.375000e+01
4.375000e+01
4.375000e+01
4.375000e+01
4.375000e+01
4.375000e+01
4.375000e+01
4.375000e+01
4.375000e+01
4.375000e+01
4.375000e+01
4.375000e+01
4.375000e+01
4.375000e+01
4.375000e+01
4.375000e+01
4.375000e+01
4.375000e+01
4.375000e+01
4.375000e+01
4.375000e+01
4.375000e+01
4.375000e+01
4.375000e+01
4.375000e+01
5.000000e+01
5.000000e+01
5.000000e+01
5.000000e+01
5.000000e+01
5.000000e+01
5.000000e+01
5.000000e+01
5.000000e+01
5.000000e+01
5.000000e+01
5.000000e+01
5.000000e+01
5.000000e+01
5.000000e+01
5.000000e+01
5.000000e+01
5.000000e+01
5.000000e+01
5.000000e+01
5.000000e+01
5.000000e+01
5.000000e+01
5.000000e+01
5.000000e+01
5.000000e+01
5.000000e+01
5.000000e+01
5.000000e+01
5.000000e+01
5.000000e+01
5.000000e+01
5.000000e+01
5.625000e+01
5.625000e+01
5.625000e+01
5.625000e+01
5.625000e+01
5.625000e+01
5.625000e+01
5.625000e+01
5.625000e+01
5.625000e+01
5.625000e+01
5.625000e+01
5.625000e+01
5.625000e+01
5.625000e+01
5.625000e+01
5.625000e+01
5.625000e+01
5.625000e+01
5.625000e+01
5.625000e+01
5.625000e+01
5.625000e+01
5.625000e+01
5.625000e+01
5.625000e+01
5.625000e+01
5.625000e+01
5.625000e+01
5.625000e+01
5.625000e+01
5.625000e+01
5.625000e+01
6.250000e+01
6.250000e+01
6.250000e+01
6.250000e+01
6.250000e+01
6.250000e+01
6.250000e+01
6.250000e+01
6.250000e+01
6.250000e+01
6.250000e+01
6.250000e+01
6.250000e+01
6.250000e+01
6.250000e+01
6.250000e+01
6.250000e+01
6.250000e+01
6.250000e+01
6.250000e+01
6.250000e+01
6.250000e+01
6.250000e+01
6.250000e+01
6.250000e+01
6.250000e+01
6.250000e+01
6.250000e+01
6.250000e+01
6.250000e+01
6.250000e+01
6.250000e+01
6.250000e+01
6.875000e+01
6.875000e+01
6.875000e+01
6.875000e+01
6.875000e+01
6.875000e+01
6.875000e+01
6.875000e+01
6.875000e+01
6.875000e+01
6.875000e+01
6.875000e+01
6.875000e+01
6.875000e+01
6.875000e+01
6.875000e+01
6.875000e+01
6.875000e+01
6.875000e+01
6.875000e+01
6.875000e+01
6.875000e+01
6.875000e+01
6.875000e+01
6.875000e+01
6.875000e+01
6.875000e+01
6.875000e+01
6.875000e+01
6.875000e+01
6.875000e+01
6.875000e+01
6.875000e+01
7.500000e+01
7.500000e+01
7.500000e+01
7.500000e+01
7.500000e+01
7.500000e+01
7.500000e+01
7.500000e+01
7.500000e+01
7.500000e+01
7.500000e+01
7.500000e+01
7.500000e+01
7.500000e+01
7.500000e+01
7.500000e+01
7.500000e+01
7.500000e+01
7.500000e+01
7.500000e+01
7.500000e+01
7.500000e+01
7.500000e+01
7.500000e+01
7.500000e+01
7.500000e+01
7.500000e+01
7.500000e+01
7.500000e+01
7.500000e+01
7.500000e+01
7.500000e+01
7.500000e+01
8.125000e+01
8.125000e+01
8.125000e+01
8.125000e+01
8.125000e+01
8.125000e+01
8.125000e+01
8.125000e+01
8.125000e+01
8.125000e+01
8.125000e+01
8.125000e+01
8.125000e+01
8.125000e+01
8.125000e+01
8.125000e+01
8.125000e+01
8.125000e+01
8.125000e+01
8.125000e+01
8.125000e+01
8.125000e+01
8.125000e+01
8.125000e+01
8.125000e+01
8.125000e+01
8.125000e+01
8.125000e+01
8.125000e+01
8.125000e+01
8.125000e+01
8.125000e+01
8.125000e+01
8.750000e+01
8.750000e+01
8.750000e+01
8.750000e+01
8.750000e+01
8.750000e+01
8.750000e+01
8.750000e+01
8.750000e+01
8.750000e+01
8.750000e+01
8.750000e+01
8.750000e+01
8.750000e+01
8.750000e+01
8.750000e+01
8.750000e+01
8.750000e+01
8.750000e+01
8.750000e+01
8.750000e+01
8.750000e+01
8.750000e+01
8.750000e+01
8.750000e+01
8.750000e+01
8.750000e+01
8.750000e+01
8.750000e+01
8.750000e+01
8.750000e+01
8.750000e+01
8.750000e+01
9.375000e+01
9.375000e+01
9.375000e+01
9.375000e+01
9.375000e+01
9.375000e+01
9.375000e+01
9.375000e+01
9.375000e+01
9.375000e+01
9.375000e+01
9.375000e+01
9.375000e+01
9.375000e+01
9.375000e+01
9.375000e+01
9.375000e+01
9.375000e+01
9.375000e+01
9.375000e+01
9.375000e+01
9.375000e+01
9.375000e+01
9.375000e+01
9.375000e+01
9.375000e+01
9.375000e+01
9.375000e+01
9.375000e+01
9.375000e+01
9.375000e+01
9.375000e+01
9.375000e+01
1.000000e+02
1.000000e+02
1.000000e+02
1.000000e+02
1.000000e+02
1.000000e+02
1.000000e+02
1.000000e+02
1.000000e+02
1.000000e+02
1.000000e+02
1.000000e+02
1.000000e+02
1.000000e+02
1.000000e+02
1.000000e+02
1.000000e+02
1.000000e+02
1.000000e+02
1.000000e+02
1.000000e+02
1.000000e+02
1.000000e+02
1.000000e+02
1.000000e+02
1.000000e+02
1.000000e+02
1.000000e+02
1.000000e+02
1.000000e+02
1.000000e+02
1.000000e+02
1.000000e+02
0.000000e+00
-3.967514e-02
-7.198526e-02
-1.019160e-01
-1.306411e-01
-1.583796e-01
-1.851870e-01
-2.110612e-01
-2.359857e-01
-2.599424e-01
-2.829164e-01
-3.048972e-01
-3.258795e-01
-3.458629e-01
-3.648520e-01
-3.828568e-01
-3.998936e-01
-4.159856e-01
-4.311653e-01
-4.454763e-01
-4.589768e-01
-4.717438e-01
-4.838789e-01
-4.955172e-01
-5.068393e-01
-5.180910e-01
-5.296134e-01
-5.418932e-01
-5.556441e-01
-5.719166e-01
-5.920735e-01
-6.160949e-01
-6.307548e-01
0.000000e+00
-2.660111e-02
-5.534648e-02
-8.244956e-02
-1.082100e-01
-1.328730e-01
-1.565690e-01
-1.793550e-01
-2.012537e-01
-2.222724e-01
-2.424126e-01
-2.616743e-01
-2.800584e-01
-2.975678e-01
-3.142084e-01
-3.299894e-01
-3.449243e-01
-3.590315e-01
-3.723355e-01
-3.848680e-01
-3.966695e-01
-4.077910e-01
-4.182959e-01
-4.282618e-01
-4.377811e-01
-4.469606e-01
-4.559127e-01
-4.647299e-01
-4.734117e-01
-4.816756e-01
-4.885618e-01
-4.925877e-01
-4.981924e-01
0.000000e+00
-2.110007e-02
-4.343957e-02
-6.618472e-02
-8.828598e-02
-1.095727e-01
-1.300315e-01
-1.496815e-01
-1.685402e-01
-1.866194e-01
-2.039269e-01
-2.204681e-01
-2.362475e-01
-2.512698e-01
-2.655405e-01
-2.790666e-01
-2.918568e-01
-3.039223e-01
-3.152765e-01
-3.259357e-01
-3.359184e-01
-3.452449e-01
-3.539351e-01
-3.620043e-01
-3.694558e-01
-3.762657e-01
-3.823560e-01
-3.875475e-01
-3.914891e-01
-3.936115e-01
-3.934254e-01
-3.922336e-01
-3.987785e-01
0.000000e+00
-1.674103e-02
-3.440664e-02
-5.255584e-02
-7.066251e-02
-8.833060e-02
-1.054088e-01
-1.218428e-01
-1.376180e-01
-1.527337e-01
-1.671938e-01
-1.810031e-01
-1.941664e-01
-2.066876e-01
-2.185706e-01
-2.298187e-01
-2.404350e-01
-2.504221e-01
-2.597822e-01
-2.685158e-01
-2.766206e-01
-2.840892e-01
-2.909051e-01
-2.970366e-01
-3.024269e-01
-3.069810e-01
-3.105482e-01
-3.129105e-01
-3.138124e-01
-3.131428e-01
-3.115166e-01
-3.114195e-01
-3.176552e-01
0.000000e+00
-1.299338e-02
-2.660601e-02
-4.065349e-02
-5.481509e-02
-6.880299e-02
-8.242421e-02
-9.558101e-02
-1.082290e-01
-1.203510e-01
-1.319427e-01
-1.430045e-01
-1.535387e-01
-1.635469e-01
-1.730298e-01
-1.819866e-01
-1.904145e-01
-1.983084e-01
-2.056602e-01
-2.124575e-01
-2.186820e-01
-2.243072e-01
-2.292946e-01
-2.335894e-01
-2.371156e-01
-2.397736e-01
-2.414462e-01
-2.420329e-01
-2.415516e-01
-2.403738e-01
-2.396097e-01
-2.413742e-01
-2.466935e-01
0.000000e+00
-9.549377e-03
-1.950789e-02
-2.978633e-02
-4.020711e-02
-5.057571e-02
-6.073769e-02
-7.059267e-02
-8.008557e-02
-8.918959e-02
-9.789343e-02
-1.061931e-01
-1.140872e-01
-1.215743e-01
-1.286515e-01
-1.353139e-01
-1.415536e-01
-1.473590e-01
-1.527146e-01
-1.575993e-01
-1.619858e-01
-1.658382e-01
-1.691118e-01
-1.717515e-01
-1.736948e-01
-1.748805e-01
-1.752739e-01
-1.749208e-01
-1.740507e-01
-1.732229e-01
-1.734245e-01
-1.756739e-01
-1.800752e-01
0.000000e+00
-6.284638e-03
-1.281786e-02
-1.955834e-02
-2.640995e-02
-3.325736e-02
-3.999731e-02
-4.655453e-02
-5.288191e-02
-5.895345e-02
-6.475604e-02
-7.028305e-02
-7.553026e-02
-8.049330e-02
-8.516618e-02
-8.954036e-02
-9.360403e-02
-9.734157e-02
-1.007329e-01
-1.037531e-01
-1.063719e-01
-1.085535e-01
-1.102586e-01
-1.114467e-01
-1.120852e-01
-1.121643e-01
-1.117279e-01
-1.109201e-01
-1.100486e-01
-1.096261e-01
-1.102852e-01
-1.124753e-01
-1.160281e-01
0.000000e+00
-3.121578e-03
-6.361169e-03
-9.702124e-03
-1.310225e-02
-1.650782e-02
-1.986785e-02
-2.314240e-02
-2.630452e-02
-2.933773e-02
-3.223227e-02
-3.498168e-02
-3.758034e-02
-4.002180e-02
-4.229774e-02
-4.439723e-02
-4.630619e-02
-4.800700e-02
-4.947826e-02
-5.069494e-02
-5.162890e-02
-5.225057e-02
-5.253219e-02
-5.245386e-02
-5.201404e-02
-5.124631e-02
-5.024357e-02
-4.918701e-02
-4.836680e-02
-4.816134e-02
-4.893472e-02
-5.084525e-02
-5.366434e-02
0.000000e+00
-5.036353e-06
-1.092025e-05
-1.732573e-05
-2.391587e-05
-3.023637e-05
-3.560259e-05
-3.897411e-05
-3.880818e-05
-3.288333e-05
-1.808632e-05
9.841083e-06
5.659537e-05
1.296379e-04
2.385395e-04
3.953126e-04
6.146806e-04
9.141996e-04
1.314102e-03
1.836662e-03
2.504779e-03
3.339355e-03
4.354868e-03
5.552419e-03
6.909575e-03
8.366885e-03
9.812775e-03
1.107248e-02
1.191339e-02
1.208392e-02
1.139728e-02
9.842262e-03
7.664377e-03
0.000000e+00
3.112092e-03
6.340559e-03
9.669358e-03
1.305691e-02
1.645034e-02
1.979992e-02
2.306765e-02
2.622945e-02
2.927301e-02
3.219439e-02
3.499514e-02
3.768033e-02
4.025757e-02
4.273661e-02
4.512922e-02
4.744922e-02
4.971236e-02
5.193590e-02
5.413760e-02
5.633392e-02
5.853696e-02
6.074985e-02
6.296030e-02
6.513239e-02
6.719757e-02
6.904774e-02
7.053584e-02
7.149198e-02
7.176268e-02
7.127243e-02
7.009116e-02
6.847474e-02
0.000000e+00
6.276889e-03
1.280091e-02
1.953119e-02
2.637210e-02
3.320892e-02
3.993940e-02
4.648978e-02
5.281525e-02
5.889316e-02
6.471508e-02
7.028088e-02
7.559506e-02
8.066480e-02
8.549897e-02
9.010788e-02
9.450307e-02
9.869708e-02
1.027029e-01
1.065330e-01
1.101972e-01
1.137003e-01
1.170373e-01
1.201892e-01
1.231163e-01
1.257536e-01
1.280095e-01
1.297714e-01
1.309246e-01
1.313857e-01
1.311486e-01
1.303312e-01
1.292031e-01
0.000000e+00
9.544434e-03
1.949687e-02
2.976840e-02
4.018165e-02
5.054247e-02
6.069702e-02
7.054586e-02
8.003533e-02
8.914072e-02
9.785372e-02
1.061745e-01
1.141074e-01
1.216585e-01
1.288350e-01
1.356444e-01
1.420948e-01
1.481943e-01
1.539509e-01
1.593711e-01
1.644587e-01
1.692126e-01
1.736235e-01
1.776707e-01
1.813183e-01
1.845134e-01
1.871871e-01
1.892621e-01
1.906693e-01
1.913745e-01
1.914141e-01
1.909346e-01
1.902216e-01
0.000000e+00
1.299215e-02
2.660294e-02
4.064799e-02
5.480659e-02
6.879102e-02
8.240844e-02
9.556142e-02
1.082060e-01
1.203256e-01
1.319168e-01
1.429815e-01
1.535238e-01
1.635481e-01
1.730585e-01
1.820590e-01
1.905529e-01
1.985431e-01
2.060314e-01
2.130182e-01
2.195014e-01
2.254751e-01
2.309277e-01
2.358404e-01
2.401856e-01
2.439268e-01
2.470213e-01
2.494263e-01
2.511117e-01
2.520801e-01
2.523942e-01
2.522141e-01
2.518385e-01
0.000000e+00
1.674414e-02
3.441296e-02
5.256525e-02
7.067474e-02
8.834529e-02
1.054254e-01
1.218606e-01
1.376356e-01
1.527489e-01
1.672033e-01
1.810022e-01
1.941481e-01
2.066424e-01
2.184855e-01
2.296763e-01
2.402127e-01
2.500914e-01
2.593073e-01
2.678541e-01
2.757229e-01
2.829030e-01
2.893806e-01
2.951394e-01
3.001611e-01
3.044268e-01
3.079205e-01
3.106343e-01
3.125766e-01
3.137836e-01
3.143388e-01
3.144050e-01
3.142804e-01
0.000000e+00
2.110766e-02
4.345577e-02
6.621011e-02
8.832101e-02
1.096179e-01
1.300867e-01
1.497462e-01
1.686126e-01
1.866958e-01
2.040007e-01
2.205287e-01
2.362786e-01
2.512476e-01
2.654308e-01
2.788219e-01
2.914126e-01
3.031926e-01
3.141496e-01
3.242688e-01
3.335337e-01
3.419263e-01
3.494283e-01
3.560229e-01
3.616976e-01
3.664482e-01
3.702830e-01
3.732293e-01
3.753380e-01
3.766885e-01
3.773954e-01
3.776256e-01
3.776531e-01
0.000000e+00
2.661251e-02
5.537138e-02
8.248961e-02
1.082672e-01
1.329493e-01
1.566660e-01
1.794737e-01
2.013936e-01
2.224307e-01
2.425827e-01
2.618441e-01
2.802077e-01
2.976649e-01
3.142058e-01
3.298188e-01
3.444896e-01
3.582008e-01
3.709320e-01
3.826590e-01
3.933549e-01
4.029908e-01
4.115384e-01
4.189730e-01
4.252792e-01
4.304575e-01
4.345322e-01
4.375608e-01
4.396412e-01
4.409160e-01
4.415673e-01
4.418034e-01
4.418613e-01
0.000000e+00
3.968761e-02
7.201438e-02
1.019659e-01
1.307158e-01
1.584831e-01
1.853236e-01
2.112348e-01
2.361996e-01
2.601978e-01
2.832112e-01
3.052235e-01
3.262208e-01
3.461896e-01
3.651159e-01
3.829840e-01
3.997748e-01
4.154650e-01
4.300259e-01
4.434230e-01
4.556160e-01
4.665599e-01
4.762078e-01
4.845155e-01
4.914487e-01
4.969934e-01
5.011693e-01
5.040461e-01
5.057608e-01
5.065334e-01
5.066738e-01
5.065575e-01
5.064920e-01
0.000000e+00
-2.451848e-02
-4.279003e-02
-6.272870e-02
-8.493159e-02
-1.100120e-01
-1.381441e-01
-1.693770e-01
-2.036794e-01
-2.409779e-01
-2.811735e-01
-3.241526e-01
-3.697925e-01
-4.179656e-01
-4.685414e-01
-5.213889e-01
-5.763776e-01
-6.333794e-01
-6.922704e-01
-7.529341e-01
-8.152649e-01
-8.791740e-01
-9.445978e-01
-1.011511e+00
-1.079948e+00
-1.150034e+00
-1.222048e+00
-1.296534e+00
-1.374532e+00
-1.458101e+00
-1.551682e+00
-1.665758e+00
-1.823356e+00
0.000000e+00
-1.523730e-02
-3.436280e-02
-5.443597e-02
-7.694833e-02
-1.023012e-01
-1.307067e-01
-1.622129e-01
-1.967914e-01
-2.343687e-01
-2.748453e-01
-3.181065e-01
-3.640288e-01
-4.124833e-01
-4.633386e-01
-5.164620e-01
-5.717216e-01
-6.289874e-01
-6.881332e-01
-7.490394e-01
-8.115967e-01
-8.757118e-01
-9.413154e-01
-1.008375e+00
-1.076915e+00
-1.147050e+00
-1.219045e+00
-1.293426e+00
-1.371211e+00
-1.454425e+00
-1.547283e+00
-1.658819e+00
-1.806057e+00
0.000000e+00
-1.119268e-02
-2.770313e-02
-4.750247e-02
-7.005416e-02
-9.559384e-02
-1.242236e-01
-1.559699e-01
-1.907947e-01
-2.286209e-01
-2.693474e-01
-3.128587e-01
-3.590305e-01
-4.077336e-01
-4.588360e-01
-5.122047e-01
-5.677071e-01
-6.252123e-01
-6.845933e-01
-7.457295e-01
-8.085109e-01
-8.728432e-01
-9.386570e-01
-1.005921e+00
-1.074661e+00
-1.145001e+00
-1.217215e+00
-1.291844e+00
-1.369892e+00
-1.453185e+00
-1.544835e+00
-1.648525e+00
-1.763547e+00
0.000000e+00
-8.962619e-03
-2.345896e-02
-4.220250e-02
-6.446437e-02
-8.999612e-02
-1.187483e-01
-1.506725e-01
-1.856999e-01
-2.237395e-01
-2.646836e-01
-3.084138e-01
-3.548050e-01
-4.037274e-01
-4.550494e-01
-5.086383e-01
-5.643617e-01
-6.220895e-01
-6.816953e-01
-7.430595e-01
-8.060735e-01
-8.706452e-01
-9.367088e-01
-1.004238e+00
-1.073266e+00
-1.143920e+00
-1.216475e+00
-1.291426e+00
-1.369598e+00
-1.452192e+00
-1.540357e+00
-1.633344e+00
-1.719905e+00
0.000000e+00
-7.583849e-03
-2.068342e-02
-3.843889e-02
-6.019329e-02
-8.555764e-02
-1.143207e-01
-1.463486e-01
-1.815257e-01
-2.197370e-01
-2.608631e-01
-3.047800e-01
-3.513601e-01
-4.004737e-01
-4.519893e-01
-5.057753e-01
-5.617006e-01
-6.196365e-01
-6.794583e-01
-7.410486e-01
-8.043011e-01
-8.691266e-01
-9.354619e-01
-1.003282e+00
-1.072619e+00
-1.143584e+00
-1.216400e+00
-1.291425e+00
-1.369132e+00
-1.449903e+00
-1.533353e+00
-1.616417e+00
-1.691802e+00
0.000000e+00
-6.706526e-03
-1.886233e-02
-3.584895e-02
-5.711364e-02
-8.224040e-02
-1.109409e-01
-1.430098e-01
-1.782854e-01
-2.166255e-01
-2.578957e-01
-3.019649e-01
-3.487024e-01
-3.979777e-01
-4.496600e-01
-5.036191e-01
-5.597256e-01
-6.178527e-01
-6.778777e-01
-7.396850e-01
-8.031699e-01
-8.682436e-01
-9.348412e-01
-1.002930e+00
-1.072523e+00
-1.143687e+00
-1.216546e+00
-1.291260e+00
-1.367913e+00
-1.446248e+00
-1.525070e+00
-1.601564e+00
-1.671480e+00
0.000000e+00
-6.161279e-03
-1.771094e-02
-3.416542e-02
-5.505050e-02
-7.996074e-02
-1.085760e-01
-1.406489e-01
-1.759828e-01
-2.144119e-01
-2.557885e-01
-2.999740e-01
-3.468349e-01
-3.962401e-01
-4.480597e-01
-5.021646e-01
-5.584275e-01
-6.167232e-01
-6.769305e-01
-7.389344e-01
-8.026294e-01
-8.679232e-01
-9.347419e-01
-1.003035e+00
-1.072780e+00
-1.143976e+00
-1.216632e+00
-1.290704e+00
-1.365980e+00
-1.441847e+00
-1.516991e+00
-1.589247e+00
-1.655960e+00
0.000000e+00
-5.861658e-03
-1.707206e-02
-3.321672e-02
-5.386747e-02
-7.863285e-02
-1.071824e-01
-1.392483e-01
-1.746136e-01
-2.130979e-01
-2.545441e-01
-2.988090e-01
-3.457571e-01
-3.952573e-01
-4.471807e-01
-5.013998e-01
-5.577886e-01
-6.162230e-01
-6.765823e-01
-7.387502e-01
-8.026175e-01
-8.680838e-01
-9.350600e-01
-1.003469e+00
-1.073242e+00
-1.144307e+00
-1.216560e+00
-1.289804e+00
-1.363647e+00
-1.437364e+00
-1.509771e+00
-1.579237e+00
-1.643952e+00
0.000000e+00
-5.765121e-03
-1.686594e-02
-3.290924e-02
-5.348191e-02
-7.819826e-02
-1.067259e-01
-1.387913e-01
-1.741715e-01
-2.126816e-01
-2.541617e-01
-2.984678e-01
-3.454646e-01
-3.950217e-01
-4.470115e-01
-5.013079e-01
-5.577858e-01
-6.163216e-01
-6.767936e-01
-7.390825e-01
-8.030725e-01
-8.686515e-01
-9.357108e-01
-1.004142e+00
-1.073829e+00
-1.144634e+00
-1.216365e+00
-1.288725e+00
-1.361247e+00
-1.433218e+00
-1.503634e+00
-1.571254e+00
-1.634749e+00
0.000000e+00
-5.858866e-03
-1.706819e-02
-3.321339e-02
-5.386646e-02
-7.863639e-02
-1.071935e-01
-1.392707e-01
-1.746525e-01
-2.131600e-01
-2.546381e-01
-2.989457e-01
-3.459501e-01
-3.955229e-01
-4.475377e-01
-5.018697e-01
-5.583944e-01
-6.169877e-01
-6.775258e-01
-7.398850e-01
-8.039409e-01
-8.695678e-01
-9.366353e-01
-1.005004e+00
-1.074516e+00
-1.144978e+00
-1.216138e+00
-1.287649e+00
-1.359029e+00
-1.429629e+00
-1.498622e+00
-1.565047e+00
-1.627890e+00
0.000000e+00
-6.155921e-03
-1.770350e-02
-3.415899e-02
-5.504849e-02
-7.996739e-02
-1.085969e-01
-1.406915e-01
-1.760570e-01
-2.145307e-01
-2.559684e-01
-3.002360e-01
-3.472049e-01
-3.967492e-01
-4.487445e-01
-5.030665e-01
-5.595909e-01
-6.181926e-01
-6.787449e-01
-7.411189e-01
-8.051810e-01
-8.707914e-01
-9.377994e-01
-1.006038e+00
-1.075312e+00
-1.145391e+00
-1.215984e+00
-1.286726e+00
-1.357153e+00
-1.426698e+00
-1.494691e+00
-1.560392e+00
-1.623021e+00
0.000000e+00
-6.699078e-03
-1.885199e-02
-3.583996e-02
-5.711073e-02
-8.224950e-02
-1.109698e-01
-1.430690e-01
-1.783888e-01
-2.167911e-01
-2.581468e-01
-3.023308e-01
-3.492195e-01
-3.986897e-01
-4.506183e-01
-5.048818e-01
-5.613555e-01
-6.199128e-01
-6.804242e-01
-7.427551e-01
-8.067637e-01
-8.722972e-01
-9.391871e-01
-1.007243e+00
-1.076244e+00
-1.145931e+00
-1.215994e+00
-1.286065e+00
-1.355714e+00
-1.424454e+00
-1.491756e+00
-1.557071e+00
-1.619829e+00
0.000000e+00
-7.575076e-03
-2.067126e-02
-3.842831e-02
-6.018992e-02
-8.556867e-02
-1.143556e-01
-1.464200e-01
-1.816505e-01
-2.199370e-01
-2.611665e-01
-3.052224e-01
-3.519855e-01
-4.013350e-01
-4.531489e-01
-5.073037e-01
-5.636742e-01
-6.221324e-01
-6.825458e-01
-7.447753e-01
-8.086718e-01
-8.740720e-01
-9.407938e-01
-1.008629e+00
-1.077340e+00
-1.146647e+00
-1.216231e+00
-1.285731e+00
-1.354751e+00
-1.422878e+00
-1.489708e+00
-1.554866e+00
-1.618003e+00
0.000000e+00
-8.953602e-03
-2.344647e-02
-4.219174e-02
-6.446148e-02
-9.000906e-02
-1.187877e-01
-1.507523e-01
-1.858387e-01
-2.239615e-01
-2.650199e-01
-3.089038e-01
-3.554969e-01
-4.046799e-01
-4.563310e-01
-5.103266e-01
-5.665408e-01
-6.248443e-01
-6.851022e-01
-7.471719e-01
-8.108988e-01
-8.761126e-01
-9.426214e-01
-1.010206e+00
-1.078617e+00
-1.147564e+00
-1.216727e+00
-1.285750e+00
-1.354266e+00
-1.421923e+00
-1.488420e+00
-1.553549e+00
-1.617207e+00
0.000000e+00
-1.118482e-02
-2.769219e-02
-4.749338e-02
-7.005330e-02
-9.560960e-02
-1.242670e-01
-1.560557e-01
-1.909422e-01
-2.288551e-01
-2.697005e-01
-3.133712e-01
-3.597522e-01
-4.087244e-01
-4.601660e-01
-5.139529e-01
-5.699585e-01
-6.280521e-01
-6.880974e-01
-7.499491e-01
-8.134496e-01
-8.784240e-01
-9.446755e-01
-1.011979e+00
-1.080079e+00
-1.148684e+00
-1.217472e+00
-1.286096e+00
-1.354211e+00
-1.421505e+00
-1.487752e+00
-1.552888e+00
-1.617067e+00
0.000000e+00
-1.523225e-02
-3.435536e-02
-5.443062e-02
-7.695164e-02
-1.023217e-01
-1.307557e-01
-1.623050e-01
-1.969459e-01
-2.346104e-01
-2.752060e-01
-3.186259e-01
-3.647554e-01
-4.134751e-01
-4.646628e-01
-5.181938e-01
-5.739405e-01
-6.317715e-01
-6.915487e-01
-7.531256e-01
-8.163425e-01
-8.810227e-01
-9.469676e-01
-1.013951e+00
-1.081718e+00
-1.149977e+00
-1.218413e+00
-1.286690e+00
-1.354477e+00
-1.421485e+00
-1.487535e+00
-1.552649e+00
-1.617186e+00
0.000000e+00
-2.451776e-02
-4.278755e-02
-6.272917e-02
-8.494161e-02
-1.100402e-01
-1.382017e-01
-1.694785e-01
-2.038437e-01
-2.412291e-01
-2.815423e-01
-3.246766e-01
-3.705176e-01
-4.189457e-01
-4.698381e-01
-5.230696e-01
-5.785116e-01
-6.360312e-01
-6.954891e-01
-7.567370e-01
-8.196139e-01
-8.839420e-01
-9.495226e-01