TITLE = "Solution"
VARIABLES = x, y, u, v, psiu, psiv, t, stress
ZONE T="structure" N=561 E=512 F=FEBLOCK ET=QUADRILATERAL VARLOCATION=([7,8]=cellcentered)
0.000000e+00
6.250000e+00
1.250000e+01
1.875000e+01
2.500000e+01
3.125000e+01
3.750000e+01
4.375000e+01
5.000000e+01
5.625000e+01
6.250000e+01
6.875000e+01
7.500000e+01
8.125000e+01
8.750000e+01
9.375000e+01
1.000000e+02
1.062500e+02
1.125000e+02
1.187500e+02
1.250000e+02
1.312500e+02
1.375000e+02
1.437500e+02
1.500000e+02
1.562500e+02
1.625000e+02
1.687500e+02
1.750000e+02
1.812500e+02
1.875000e+02
1.937500e+02
2.000000e+02
0.000000e+00
6.250000e+00
1.250000e+01
1.875000e+01
2.500000e+01
3.125000e+01
3.750000e+01
4.375000e+01
5.000000e+01
5.625000e+01
6.250000e+01
6.875000e+01
7.500000e+01
8.125000e+01
8.750000e+01
9.375000e+01
1.000000e+02
1.062500e+02
1.125000e+02
1.187500e+02
1.250000e+02
1.312500e+02
1.375000e+02
1.437500e+02
1.500000e+02
1.562500e+02
1.625000e+02
1.687500e+02
1.750000e+02
1.812500e+02
1.875000e+02
1.937500e+02
2.000000e+02
0.000000e+00
6.250000e+00
1.250000e+01
1.875000e+01
2.500000e+01
3.125000e+01
3.750000e+01
4.375000e+01
5.000000e+01
5.625000e+01
6.250000e+01
6.875000e+01
7.500000e+01
8.125000e+01
8.750000e+01
9.375000e+01
1.000000e+02
1.062500e+02
1.125000e+02
1.187500e+02
1.250000e+02
1.312500e+02
1.375000e+02
1.437500e+02
1.500000e+02
1.562500e+02
1.625000e+02
1.687500e+02
1.750000e+02
1.812500e+02
1.875000e+02
1.937500e+02
2.000000e+02
0.000000e+00
6.250000e+00
1.250000e+01
1.875000e+01
2.500000e+01
3.125000e+01
3.750000e+01
4.375000e+01
5.000000e+01
5.625000e+01
6.250000e+01
6.875000e+01
7.500000e+01
8.125000e+01
8.750000e+01
9.375000e+01
1.000000e+02
1.062500e+02
1.125000e+02
1.187500e+02
1.250000e+02
1.312500e+02
1.375000e+02
1.437500e+02
1.500000e+02
1.562500e+02
1.625000e+02
1.687500e+02
1.750000e+02
1.812500e+02
1.875000e+02
1.937500e+02
2.000000e+02
0.000000e+00
6.250000e+00
1.250000e+01
1.875000e+01
2.500000e+01
3.125000e+01
3.750000e+01
4.375000e+01
5.000000e+01
5.625000e+01
6.250000e+01
6.875000e+01
7.500000e+01
8.125000e+01
8.750000e+01
9.375000e+01
1.000000e+02
1.062500e+02
1.125000e+02
1.187500e+02
1.250000e+02
1.312500e+02
1.375000e+02
1.437500e+02
1.500000e+02
1.562500e+02
1.625000e+02
1.687500e+02
1.750000e+02
1.812500e+02
1.875000e+02
1.937500e+02
2.000000e+02
0.000000e+00
6.250000e+00
1.250000e+01
1.875000e+01
2.500000e+01
3.125000e+01
3.750000e+01
4.375000e+01
5.000000e+01
5.625000e+01
6.250000e+01
6.875000e+01
7.500000e+01
8.125000e+01
8.750000e+01
9.375000e+01
1.000000e+02
1.062500e+02
1.125000e+02
1.187500e+02
1.250000e+02
1.312500e+02
1.375000e+02
1.437500e+02
1.500000e+02
1.562500e+02
1.625000e+02
1.687500e+02
1.750000e+02
1.812500e+02
1.875000e+02
1.937500e+02
2.000000e+02
0.000000e+00
6.250000e+00
1.250000e+01
1.875000e+01
2.500000e+01
3.125000e+01
3.750000e+01
4.375000e+01
5.000000e+01
5.625000e+01
6.250000e+01
6.875000e+01
7.500000e+01
8.125000e+01
8.750000e+01
9.375000e+01
1.000000e+02
1.062500e+02
1.125000e+02
1.187500e+02
1.250000e+02
1.312500e+02
1.375000e+02
1.437500e+02
1.500000e+02
1.562500e+02
1.625000e+02
1.687500e+02
1.750000e+02
1.812500e+02
1.875000e+02
1.937500e+02
2.000000e+02
0.000000e+00
6.250000e+00
1.250000e+01
1.875000e+01
2.500000e+01
3.125000e+01
3.750000e+01
4.375000e+01
5.000000e+01
5.625000e+01
6.250000e+01
6.875000e+01
7.500000e+01
8.125000e+01
8.750000e+01
9.375000e+01
1.000000e+02
1.062500e+02
1.125000e+02
1.187500e+02
1.250000e+02
1.312500e+02
1.375000e+02
1.437500e+02
1.500000e+02
1.562500e+02
1.625000e+02
1.687500e+02
1.750000e+02
1.812500e+02
1.875000e+02
1.937500e+02
2.000000e+02
0.000000e+00
6.250000e+00
1.250000e+01
1.875000e+01
2.500000e+01
3.125000e+01
3.750000e+01
4.375000e+01
5.000000e+01
5.625000e+01
6.250000e+01
6.875000e+01
7.500000e+01
8.125000e+01
8.750000e+01
9.375000e+01
1.000000e+02
1.062500e+02
1.125000e+02
1.187500e+02
1.250000e+02
1.312500e+02
1.375000e+02
1.437500e+02
1.500000e+02
1.562500e+02
1.625000e+02
1.687500e+02
1.750000e+02
1.812500e+02
1.875000e+02
1.937500e+02
2.000000e+02
0.000000e+00
6.250000e+00
1.250000e+01
1.875000e+01
2.500000e+01
3.125000e+01
3.750000e+01
4.375000e+01
5.000000e+01
5.625000e+01
6.250000e+01
6.875000e+01
7.500000e+01
8.125000e+01
8.750000e+01
9.375000e+01
1.000000e+02
1.062500e+02
1.125000e+02
1.187500e+02
1.250000e+02
1.312500e+02
1.375000e+02
1.437500e+02
1.500000e+02
1.562500e+02
1.625000e+02
1.687500e+02
1.750000e+02
1.812500e+02
1.875000e+02
1.937500e+02
2.000000e+02
0.000000e+00
6.250000e+00
1.250000e+01
1.875000e+01
2.500000e+01
3.125000e+01
3.750000e+01
4.375000e+01
5.000000e+01
5.625000e+01
6.250000e+01
6.875000e+01
7.500000e+01
8.125000e+01
8.750000e+01
9.375000e+01
1.000000e+02
1.062500e+02
1.125000e+02
1.187500e+02
1.250000e+02
1.312500e+02
1.375000e+02
1.437500e+02
1.500000e+02
1.562500e+02
1.625000e+02
1.687500e+02
1.750000e+02
1.812500e+02
1.875000e+02
1.937500e+02
2.000000e+02
0.000000e+00
6.250000e+00
1.250000e+01
1.875000e+01
2.500000e+01
3.125000e+01
3.750000e+01
4.375000e+01
5.000000e+01
5.625000e+01
6.250000e+01
6.875000e+01
7.500000e+01
8.125000e+01
8.750000e+01
9.375000e+01
1.000000e+02
1.062500e+02
1.125000e+02
1.187500e+02
1.250000e+02
1.312500e+02
1.375000e+02
1.437500e+02
1.500000e+02
1.562500e+02
1.625000e+02
1.687500e+02
1.750000e+02
1.812500e+02
1.875000e+02
1.937500e+02
2.000000e+02
0.000000e+00
6.250000e+00
1.250000e+01
1.875000e+01
2.500000e+01
3.125000e+01
3.750000e+01
4.375000e+01
5.000000e+01
5.625000e+01
6.250000e+01
6.875000e+01
7.500000e+01
8.125000e+01
8.750000e+01
9.375000e+01
1.000000e+02
1.062500e+02
1.125000e+02
1.187500e+02
1.250000e+02
1.312500e+02
1.375000e+02
1.437500e+02
1.500000e+02
1.562500e+02
1.625000e+02
1.687500e+02
1.750000e+02
1.812500e+02
1.875000e+02
1.937500e+02
2.000000e+02
0.000000e+00
6.250000e+00
1.250000e+01
1.875000e+01
2.500000e+01
3.125000e+01
3.750000e+01
4.375000e+01
5.000000e+01
5.625000e+01
6.250000e+01
6.875000e+01
7.500000e+01
8.125000e+01
8.750000e+01
9.375000e+01
1.000000e+02
1.062500e+02
1.125000e+02
1.187500e+02
1.250000e+02
1.312500e+02
1.375000e+02
1.437500e+02
1.500000e+02
1.562500e+02
1.625000e+02
1.687500e+02
1.750000e+02
1.812500e+02
1.875000e+02
1.937500e+02
2.000000e+02
0.000000e+00
6.250000e+00
1.250000e+01
1.875000e+01
2.500000e+01
3.125000e+01
3.750000e+01
4.375000e+01
5.000000e+01
5.625000e+01
6.250000e+01
6.875000e+01
7.500000e+01
8.125000e+01
8.750000e+01
9.375000e+01
1.000000e+02
1.062500e+02
1.125000e+02
1.187500e+02
1.250000e+02
1.312500e+02
1.375000e+02
1.437500e+02
1.500000e+02
1.562500e+02
1.625000e+02
1.687500e+02
1.750000e+02
1.812500e+02
1.875000e+02
1.937500e+02
2.000000e+02
0.000000e+00
6.250000e+00
1.250000e+01
1.875000e+01
2.500000e+01
3.125000e+01
3.750000e+01
4.375000e+01
5.000000e+01
5.625000e+01
6.250000e+01
6.875000e+01
7.500000e+01
8.125000e+01
8.750000e+01
9.375000e+01
1.000000e+02
1.062500e+02
1.125000e+02
1.187500e+02
1.250000e+02
1.312500e+02
1.375000e+02
1.437500e+02
1.500000e+02
1.562500e+02
1.625000e+02
1.687500e+02
1.750000e+02
1.812500e+02
1.875000e+02
1.937500e+02
2.000000e+02
0.000000e+00
6.250000e+00
1.250000e+01
1.875000e+01
2.500000e+01
3.125000e+01
3.750000e+01
4.375000e+01
5.000000e+01
5.625000e+01
6.250000e+01
6.875000e+01
7.500000e+01
8.125000e+01
8.750000e+01
9.375000e+01
1.000000e+02
1.062500e+02
1.125000e+02
1.187500e+02
1.250000e+02
1.312500e+02
1.375000e+02
1.437500e+02
1.500000e+02
1.562500e+02
1.625000e+02
1.687500e+02
1.750000e+02
1.812500e+02
1.875000e+02
1.937500e+02
2.000000e+02
0.000000e+00
0.000000e+00
0.000000e+00
0.000000e+00
0.000000e+00
0.000000e+00
0.000000e+00
0.000000e+00
0.000000e+00
0.000000e+00
0.000000e+00
0.000000e+00
0.000000e+00
0.000000e+00
0.000000e+00
0.000000e+00
0.000000e+00
0.000000e+00
0.000000e+00
0.000000e+00
0.000000e+00
0.000000e+00
0.000000e+00
0.000000e+00
0.000000e+00
0.000000e+00
0.000000e+00
0.000000e+00
0.000000e+00
0.000000e+00
0.000000e+00
0.000000e+00
0.000000e+00
6.250000e+00
6.250000e+00
6.250000e+00
6.250000e+00
6.250000e+00
6.250000e+00
6.250000e+00
6.250000e+00
6.250000e+00
6.250000e+00
6.250000e+00
6.250000e+00
6.250000e+00
6.250000e+00
6.250000e+00
6.250000e+00
6.250000e+00
6.250000e+00
6.250000e+00
6.250000e+00
6.250000e+00
6.250000e+00
6.250000e+00
6.250000e+00
6.250000e+00
6.250000e+00
6.250000e+00
6.250000e+00
6.250000e+00
6.250000e+00
6.250000e+00
6.250000e+00
6.250000e+00
1.250000e+01
1.250000e+01
1.250000e+01
1.250000e+01
1.250000e+01
1.250000e+01
1.250000e+01
1.250000e+01
1.250000e+01
1.250000e+01
1.250000e+01
1.250000e+01
1.250000e+01
1.250000e+01
1.250000e+01
1.250000e+01
1.250000e+01
1.250000e+01
1.250000e+01
1.250000e+01
1.250000e+01
1.250000e+01
1.250000e+01
1.250000e+01
1.250000e+01
1.250000e+01
1.250000e+01
1.250000e+01
1.250000e+01
1.250000e+01
1.250000e+01
1.250000e+01
1.250000e+01
1.875000e+01
1.875000e+01
1.875000e+01
1.875000e+01
1.875000e+01
1.875000e+01
1.875000e+01
1.875000e+01
1.875000e+01
1.875000e+01
1.875000e+01
1.875000e+01
1.875000e+01
1.875000e+01
1.875000e+01
1.875000e+01
1.875000e+01
1.875000e+01
1.875000e+01
1.875000e+01
1.875000e+01
1.875000e+01
1.875000e+01
1.875000e+01
1.875000e+01
1.875000e+01
1.875000e+01
1.875000e+01
1.875000e+01
1.875000e+01
1.875000e+01
1.875000e+01
1.875000e+01
2.500000e+01
2.500000e+01
2.500000e+01
2.500000e+01
2.500000e+01
2.500000e+01
2.500000e+01
2.500000e+01
2.500000e+01
2.500000e+01
2.500000e+01
2.500000e+01
2.500000e+01
2.500000e+01
2.500000e+01
2.500000e+01
2.500000e+01
2.500000e+01
2.500000e+01
2.500000e+01
2.500000e+01
2.500000e+01
2.500000e+01
2.500000e+01
2.500000e+01
2.500000e+01
2.500000e+01
2.500000e+01
2.500000e+01
2.500000e+01
2.500000e+01
2.500000e+01
2.500000e+01
3.125000e+01
3.125000e+01
3.125000e+01
3.125000e+01
3.125000e+01
3.125000e+01
3.125000e+01
3.125000e+01
3.125000e+01
3.125000e+01
3.125000e+01
3.125000e+01
3.125000e+01
3.125000e+01
3.125000e+01
3.125000e+01
3.125000e+01
3.125000e+01
3.125000e+01
3.125000e+01
3.125000e+01
3.125000e+01
3.125000e+01
3.125000e+01
3.125000e+01
3.125000e+01
3.125000e+01
3.125000e+01
3.125000e+01
3.125000e+01
3.125000e+01
3.125000e+01
3.125000e+01
3.750000e+01
3.750000e+01
3.750000e+01
3.750000e+01
3.750000e+01
3.750000e+01
3.750000e+01
3.750000e+01
3.750000e+01
3.750000e+01
3.750000e+01
3.750000e+01
3.750000e+01
3.750000e+01
3.750000e+01
3.750000e+01
3.750000e+01
3.750000e+01
3.750000e+01
3.750000e+01
3.750000e+01
3.750000e+01
3.750000e+01
3.750000e+01
3.750000e+01
3.750000e+01
3.750000e+01
3.750000e+01
3.750000e+01
3.750000e+01
3.750000e+01
3.750000e+01
3.750000e+01
4.375000e+01
4.375000e+01
4.375000e+01
4.375000e+01
4.375000e+01
4.375000e+01
4.375000e+01
4.375000e+01
4.375000e+01
4.375000e+01
4.375000e+01
4.375000e+01
4.375000e+01
4.375000e+01
4.375000e+01
4.375000e+01
4.375000e+01
4.375000e+01
4.375000e+01
4.375000e+01
4.375000e+01
4.375000e+01
4.375000e+01
4.375000e+01
4.375000e+01
4.375000e+01
4.375000e+01
4.375000e+01
4.375000e+01
4.375000e+01
4.375000e+01
4.375000e+01
4.375000e+01
5.000000e+01
5.000000e+01
5.000000e+01
5.000000e+01
5.000000e+01
5.000000e+01
5.000000e+01
5.000000e+01
5.000000e+01
5.000000e+01
5.000000e+01
5.000000e+01
5.000000e+01
5.000000e+01
5.000000e+01
5.000000e+01
5.000000e+01
5.000000e+01
5.000000e+01
5.000000e+01
5.000000e+01
5.000000e+01
5.000000e+01
5.000000e+01
5.000000e+01
5.000000e+01
5.000000e+01
5.000000e+01
5.000000e+01
5.000000e+01
5.000000e+01
5.000000e+01
5.000000e+01
5.625000e+01
5.625000e+01
5.625000e+01
5.625000e+01
5.625000e+01
5.625000e+01
5.625000e+01
5.625000e+01
5.625000e+01
5.625000e+01
5.625000e+01
5.625000e+01
5.625000e+01
5.625000e+01
5.625000e+01
5.625000e+01
5.625000e+01
5.625000e+01
5.625000e+01
5.625000e+01
5.625000e+01
5.625000e+01
5.625000e+01
5.625000e+01
5.625000e+01
5.625000e+01
5.625000e+01
5.625000e+01
5.625000e+01
5.625000e+01
5.625000e+01
5.625000e+01
5.625000e+01
6.250000e+01
6.250000e+01
6.250000e+01
6.250000e+01
6.250000e+01
6.250000e+01
6.250000e+01
6.250000e+01
6.250000e+01
6.250000e+01
6.250000e+01
6.250000e+01
6.250000e+01
6.250000e+01
6.250000e+01
6.250000e+01
6.250000e+01
6.250000e+01
6.250000e+01
6.250000e+01
6.250000e+01
6.250000e+01
6.250000e+01
6.250000e+01
6.250000e+01
6.250000e+01
6.250000e+01
6.250000e+01
6.250000e+01
6.250000e+01
6.250000e+01
6.250000e+01
6.250000e+01
6.875000e+01
6.875000e+01
6.875000e+01
6.875000e+01
6.875000e+01
6.875000e+01
6.875000e+01
6.875000e+01
6.875000e+01
6.875000e+01
6.875000e+01
6.875000e+01
6.875000e+01
6.875000e+01
6.875000e+01
6.875000e+01
6.875000e+01
6.875000e+01
6.875000e+01
6.875000e+01
6.875000e+01
6.875000e+01
6.875000e+01
6.875000e+01
6.875000e+01
6.875000e+01
6.875000e+01
6.875000e+01
6.875000e+01
6.875000e+01
6.875000e+01
6.875000e+01
6.875000e+01
7.500000e+01
7.500000e+01
7.500000e+01
7.500000e+01
7.500000e+01
7.500000e+01
7.500000e+01
7.500000e+01
7.500000e+01
7.500000e+01
7.500000e+01
7.500000e+01
7.500000e+01
7.500000e+01
7.500000e+01
7.500000e+01
7.500000e+01
7.500000e+01
7.500000e+01
7.500000e+01
7.500000e+01
7.500000e+01
7.500000e+01
7.500000e+01
7.500000e+01
7.500000e+01
7.500000e+01
7.500000e+01
7.500000e+01
7.500000e+01
7.500000e+01
7.500000e+01
7.500000e+01
8.125000e+01
8.125000e+01
8.125000e+01
8.125000e+01
8.125000e+01
8.125000e+01
8.125000e+01
8.125000e+01
8.125000e+01
8.125000e+01
8.125000e+01
8.125000e+01
8.125000e+01
8.125000e+01
8.125000e+01
8.125000e+01
8.125000e+01
8.125000e+01
8.125000e+01
8.125000e+01
8.125000e+01
8.125000e+01
8.125000e+01
8.125000e+01
8.125000e+01
8.125000e+01
8.125000e+01
8.125000e+01
8.125000e+01
8.125000e+01
8.125000e+01
8.125000e+01
8.125000e+01
8.750000e+01
8.750000e+01
8.750000e+01
8.750000e+01
8.750000e+01
8.750000e+01
8.750000e+01
8.750000e+01
8.750000e+01
8.750000e+01
8.750000e+01
8.750000e+01
8.750000e+01
8.750000e+01
8.750000e+01
8.750000e+01
8.750000e+01
8.750000e+01
8.750000e+01
8.750000e+01
8.750000e+01
8.750000e+01
8.750000e+01
8.750000e+01
8.750000e+01
8.750000e+01
8.750000e+01
8.750000e+01
8.750000e+01
8.750000e+01
8.750000e+01
8.750000e+01
8.750000e+01
9.375000e+01
9.375000e+01
9.375000e+01
9.375000e+01
9.375000e+01
9.375000e+01
9.375000e+01
9.375000e+01
9.375000e+01
9.375000e+01
9.375000e+01
9.375000e+01
9.375000e+01
9.375000e+01
9.375000e+01
9.375000e+01
9.375000e+01
9.375000e+01
9.375000e+01
9.375000e+01
9.375000e+01
9.375000e+01
9.375000e+01
9.375000e+01
9.375000e+01
9.375000e+01
9.375000e+01
9.375000e+01
9.375000e+01
9.375000e+01
9.375000e+01
9.375000e+01
9.375000e+01
1.000000e+02
1.000000e+02
1.000000e+02
1.000000e+02
1.000000e+02
1.000000e+02
1.000000e+02
1.000000e+02
1.000000e+02
1.000000e+02
1.000000e+02
1.000000e+02
1.000000e+02
1.000000e+02
1.000000e+02
1.000000e+02
1.000000e+02
1.000000e+02
1.000000e+02
1.000000e+02
1.000000e+02
1.000000e+02
1.000000e+02
1.000000e+02
1.000000e+02
1.000000e+02
1.000000e+02
1.000000e+02
1.000000e+02
1.000000e+02
1.000000e+02
1.000000e+02
1.000000e+02
0.000000e+00
-4.162005e-02
-7.551405e-02
-1.069120e-01
-1.370453e-01
-1.661435e-01
-1.942651e-01
-2.214076e-01
-2.475539e-01
-2.726851e-01
-2.967852e-01
-3.198436e-01
-3.418544e-01
-3.628174e-01
-3.827374e-01
-4.016249e-01
-4.194968e-01
-4.363777e-01
-4.523014e-01
-4.673140e-01
-4.814763e-01
-4.948692e-01
-5.075992e-01
-5.198080e-01
-5.316851e-01
-5.434884e-01
-5.555756e-01
-5.684574e-01
-5.828824e-01
-5.999527e-01
-6.210976e-01
-6.462966e-01
-6.616752e-01
0.000000e+00
-2.790513e-02
-5.805961e-02
-8.649131e-02
-1.135145e-01
-1.393866e-01
-1.642442e-01
-1.881472e-01
-2.111194e-01
-2.331684e-01
-2.542959e-01
-2.745018e-01
-2.937871e-01
-3.121549e-01
-3.296112e-01
-3.461659e-01
-3.618329e-01
-3.766317e-01
-3.905878e-01
-4.037346e-01
-4.161147e-01
-4.277814e-01
-4.388013e-01
-4.492556e-01
-4.592417e-01
-4.688711e-01
-4.782620e-01
-4.875115e-01
-4.966189e-01
-5.052879e-01
-5.125116e-01
-5.167349e-01
-5.226144e-01
0.000000e+00
-2.213441e-02
-4.556901e-02
-6.942916e-02
-9.261384e-02
-1.149441e-01
-1.364057e-01
-1.570190e-01
-1.768022e-01
-1.957677e-01
-2.139236e-01
-2.312757e-01
-2.478286e-01
-2.635873e-01
-2.785576e-01
-2.927467e-01
-3.061640e-01
-3.188209e-01
-3.307317e-01
-3.419134e-01
-3.523855e-01
-3.621692e-01
-3.712854e-01
-3.797502e-01
-3.875670e-01
-3.947106e-01
-4.010995e-01
-4.065455e-01
-4.106803e-01
-4.129068e-01
-4.127116e-01
-4.114613e-01
-4.183271e-01
0.000000e+00
-1.756169e-02
-3.609328e-02
-5.513218e-02
-7.412646e-02
-9.266065e-02
-1.105760e-01
-1.278157e-01
-1.443642e-01
-1.602209e-01
-1.753898e-01
-1.898761e-01
-2.036846e-01
-2.168197e-01
-2.292852e-01
-2.410847e-01
-2.522213e-01
-2.626981e-01
-2.725170e-01
-2.816787e-01
-2.901809e-01
-2.980156e-01
-3.051656e-01
-3.115976e-01
-3.172522e-01
-3.220296e-01
-3.257716e-01
-3.282497e-01
-3.291959e-01
-3.284935e-01
-3.267875e-01
-3.266857e-01
-3.332270e-01
0.000000e+00
-1.363032e-02
-2.791026e-02
-4.264636e-02
-5.750218e-02
-7.217578e-02
-8.646472e-02
-1.002665e-01
-1.135345e-01
-1.262507e-01
-1.384106e-01
-1.500147e-01
-1.610653e-01
-1.715641e-01
-1.815119e-01
-1.909078e-01
-1.997489e-01
-2.080297e-01
-2.157419e-01
-2.228724e-01
-2.294020e-01
-2.353030e-01
-2.405349e-01
-2.450402e-01
-2.487393e-01
-2.515276e-01
-2.532822e-01
-2.538977e-01
-2.533927e-01
-2.521572e-01
-2.513556e-01
-2.532067e-01
-2.587867e-01
0.000000e+00
-1.001750e-02
-2.046418e-02
-3.124648e-02
-4.217810e-02
-5.305498e-02
-6.371511e-02
-7.405319e-02
-8.401145e-02
-9.356175e-02
-1.026923e-01
-1.113988e-01
-1.196798e-01
-1.275340e-01
-1.349582e-01
-1.419472e-01
-1.484927e-01
-1.545827e-01
-1.602008e-01
-1.653250e-01
-1.699265e-01
-1.739678e-01
-1.774019e-01
-1.801710e-01
-1.822095e-01
-1.834533e-01
-1.838660e-01
-1.834957e-01
-1.825829e-01
-1.817145e-01
-1.819259e-01
-1.842857e-01
-1.889027e-01
0.000000e+00
-6.592717e-03
-1.344621e-02
-2.051711e-02
-2.770459e-02
-3.488767e-02
-4.195802e-02
-4.883668e-02
-5.547423e-02
-6.184341e-02
-6.793044e-02
-7.372840e-02
-7.923283e-02
-8.443917e-02
-8.934112e-02
-9.392972e-02
-9.819260e-02
-1.021134e-01
-1.056710e-01
-1.088392e-01
-1.115863e-01
-1.138750e-01
-1.156636e-01
-1.169100e-01
-1.175797e-01
-1.176628e-01
-1.172049e-01
-1.163576e-01
-1.154433e-01
-1.150000e-01
-1.156915e-01
-1.179890e-01
-1.217160e-01
0.000000e+00
-3.274600e-03
-6.673000e-03
-1.017773e-02
-1.374453e-02
-1.731705e-02
-2.084179e-02
-2.427687e-02
-2.759400e-02
-3.077590e-02
-3.381233e-02
-3.669652e-02
-3.942257e-02
-4.198371e-02
-4.437122e-02
-4.657363e-02
-4.857617e-02
-5.036035e-02
-5.190374e-02
-5.318006e-02
-5.415980e-02
-5.481195e-02
-5.510737e-02
-5.502520e-02
-5.456383e-02
-5.375846e-02
-5.270656e-02
-5.159821e-02
-5.073780e-02
-5.052226e-02
-5.133355e-02
-5.333774e-02
-5.629503e-02
0.000000e+00
-5.283244e-06
-1.145558e-05
-1.817507e-05
-2.508827e-05
-3.171861e-05
-3.734789e-05
-4.088468e-05
-4.071063e-05
-3.449533e-05
-1.897296e-05
1.032349e-05
5.936973e-05
1.359929e-04
2.502330e-04
4.146913e-04
6.448131e-04
9.590149e-04
1.378521e-03
1.926697e-03
2.627566e-03
3.503055e-03
4.568349e-03
5.824606e-03
7.248291e-03
8.777041e-03
1.029381e-02
1.161527e-02
1.249740e-02
1.267629e-02
1.195599e-02
1.032474e-02
8.040095e-03
0.000000e+00
3.264649e-03
6.651379e-03
1.014336e-02
1.369698e-02
1.725676e-02
2.077053e-02
2.419845e-02
2.751525e-02
3.070800e-02
3.377259e-02
3.671064e-02
3.952746e-02
4.223104e-02
4.483161e-02
4.734150e-02
4.977523e-02
5.214931e-02
5.448185e-02
5.679148e-02
5.909547e-02
6.140650e-02
6.372787e-02
6.604668e-02
6.832525e-02
7.049168e-02
7.243254e-02
7.399359e-02
7.499660e-02
7.528057e-02
7.476628e-02
7.352710e-02
7.183145e-02
0.000000e+00
6.584588e-03
1.342842e-02
2.048863e-02
2.766488e-02
3.483686e-02
4.189726e-02
4.876875e-02
5.540431e-02
6.178016e-02
6.788747e-02
7.372612e-02
7.930081e-02
8.461907e-02
8.969022e-02
9.452507e-02
9.913571e-02
1.035353e-01
1.077375e-01
1.117553e-01
1.155992e-01
1.192740e-01
1.227747e-01
1.260810e-01
1.291516e-01
1.319182e-01
1.342846e-01
1.361329e-01
1.373427e-01
1.378263e-01
1.375776e-01
1.367202e-01
1.355367e-01
0.000000e+00
1.001231e-02
2.045263e-02
3.122767e-02
4.215139e-02
5.302011e-02
6.367244e-02
7.400409e-02
8.395874e-02
9.351048e-02
1.026506e-01
1.113793e-01
1.197011e-01
1.276223e-01
1.351506e-01
1.422938e-01
1.490604e-01
1.554590e-01
1.614978e-01
1.671836e-01
1.725207e-01
1.775076e-01
1.821347e-01
1.863803e-01
1.902067e-01
1.935584e-01
1.963632e-01
1.985400e-01
2.000162e-01
2.007558e-01
2.007975e-01
2.002945e-01
1.995465e-01
0.000000e+00
1.362904e-02
2.790704e-02
4.264059e-02
5.749326e-02
7.216322e-02
8.644818e-02
1.002459e-01
1.135103e-01
1.262241e-01
1.383835e-01
1.499906e-01
1.610497e-01
1.715654e-01
1.815420e-01
1.909837e-01
1.998940e-01
2.082759e-01
2.161313e-01
2.234606e-01
2.302616e-01
2.365281e-01
2.422480e-01
2.474015e-01
2.519597e-01
2.558844e-01
2.591305e-01
2.616534e-01
2.634215e-01
2.644373e-01
2.647668e-01
2.645779e-01
2.641839e-01
0.000000e+00
1.756496e-02
3.609992e-02
5.514205e-02
7.413928e-02
9.267606e-02
1.105935e-01
1.278343e-01
1.443826e-01
1.602368e-01
1.753998e-01
1.898751e-01
2.036654e-01
2.167722e-01
2.291959e-01
2.409353e-01
2.519882e-01
2.623511e-01
2.720189e-01
2.809846e-01
2.892392e-01
2.967712e-01
3.035664e-01
3.096075e-01
3.148753e-01
3.193501e-01
3.230151e-01
3.258620e-01
3.278994e-01
3.291657e-01
3.297481e-01
3.298175e-01
3.296868e-01
0.000000e+00
2.214238e-02
4.558601e-02
6.945579e-02
9.265059e-02
1.149914e-01
1.364637e-01
1.570869e-01
1.768782e-01
1.958478e-01
2.140011e-01
2.313393e-01
2.478613e-01
2.635640e-01
2.784425e-01
2.924900e-01
3.056979e-01
3.180554e-01
3.295495e-01
3.401648e-01
3.498839e-01
3.586879e-01
3.665577e-01
3.734755e-01
3.794285e-01
3.844119e-01
3.884347e-01
3.915255e-01
3.937375e-01
3.951542e-01
3.958958e-01
3.961373e-01
3.961661e-01
0.000000e+00
2.791708e-02
5.808573e-02
8.653333e-02
1.135745e-01
1.394666e-01
1.643459e-01
1.882716e-01
2.112661e-01
2.333345e-01
2.544744e-01
2.746800e-01
2.939437e-01
3.122567e-01
3.296085e-01
3.459869e-01
3.613768e-01
3.757602e-01
3.891155e-01
4.014174e-01
4.126376e-01
4.227459e-01
4.317124e-01
4.395115e-01
4.461269e-01
4.515590e-01
4.558335e-01
4.590105e-01
4.611929e-01
4.625302e-01
4.632134e-01
4.634611e-01
4.635218e-01
0.000000e+00
4.163314e-02
7.554459e-02
1.069644e-01
1.371236e-01
1.662521e-01
1.944084e-01
2.215898e-01
2.477783e-01
2.729530e-01
2.970945e-01
3.201859e-01
3.422125e-01
3.631601e-01
3.830143e-01
4.017583e-01
4.193722e-01
4.358316e-01
4.511063e-01
4.651601e-01
4.779508e-01
4.894312e-01
4.995521e-01
5.082670e-01
5.155401e-01
5.213566e-01
5.257372e-01
5.287550e-01
5.305537e-01
5.313642e-01
5.315115e-01
5.313895e-01
5.313208e-01
0.000000e+00
-2.572040e-02
-4.488764e-02
-6.580372e-02
-8.909502e-02
-1.154049e-01
-1.449161e-01
-1.776800e-01
-2.136640e-01
-2.527909e-01
-2.949570e-01
-3.400429e-01
-3.879202e-01
-4.384547e-01
-4.915098e-01
-5.469480e-01
-6.046323e-01
-6.644283e-01
-7.262063e-01
-7.898438e-01
-8.552301e-01
-9.222721e-01
-9.909031e-01
-1.061097e+00
-1.132888e+00
-1.206409e+00
-1.281954e+00
-1.360092e+00
-1.441913e+00
-1.529578e+00
-1.627747e+00
-1.747415e+00
-1.912739e+00
0.000000e+00
-1.598425e-02
-3.604730e-02
-5.710448e-02
-8.072042e-02
-1.073161e-01
-1.371141e-01
-1.701648e-01
-2.064384e-01
-2.458577e-01
-2.883185e-01
-3.337005e-01
-3.818739e-01
-4.327037e-01
-4.860519e-01
-5.417795e-01
-5.997481e-01
-6.598211e-01
-7.218662e-01
-7.857581e-01
-8.513821e-01
-9.186402e-01
-9.874597e-01
-1.057807e+00
-1.129706e+00
-1.203279e+00
-1.278803e+00
-1.356831e+00
-1.438429e+00
-1.525722e+00
-1.623133e+00
-1.740137e+00
-1.894592e+00
0.000000e+00
-1.174135e-02
-2.906116e-02
-4.983109e-02
-7.348829e-02
-1.002799e-01
-1.303131e-01
-1.636157e-01
-2.001476e-01
-2.398281e-01
-2.825511e-01
-3.281953e-01
-3.766306e-01
-4.277211e-01
-4.813286e-01
-5.373136e-01
-5.955367e-01
-6.558608e-01
-7.181528e-01
-7.822860e-01
-8.481450e-01
-9.156309e-01
-9.846710e-01
-1.055232e+00
-1.127343e+00
-1.201130e+00
-1.276884e+00
-1.355171e+00
-1.437046e+00
-1.524421e+00
-1.620565e+00
-1.729337e+00
-1.849998e+00
0.000000e+00
-9.401975e-03
-2.460894e-02
-4.427131e-02
-6.762448e-02
-9.440782e-02
-1.245695e-01
-1.580586e-01
-1.948031e-01
-2.347074e-01
-2.776586e-01
-3.235326e-01
-3.721979e-01
-4.235186e-01
-4.773564e-01
-5.335723e-01
-5.920274e-01
-6.525850e-01
-7.151128e-01
-7.794851e-01
-8.455880e-01
-9.133252e-01
-9.826273e-01
-1.053466e+00
-1.125878e+00
-1.199997e+00
-1.276108e+00
-1.354733e+00
-1.436737e+00
-1.523380e+00
-1.615867e+00
-1.713412e+00
-1.804216e+00
0.000000e+00
-7.955617e-03
-2.169735e-02
-4.032321e-02
-6.314402e-02
-8.975176e-02
-1.199248e-01
-1.535227e-01
-1.904243e-01
-2.305087e-01
-2.736509e-01
-3.197206e-01
-3.685842e-01
-4.201053e-01
-4.741463e-01
-5.305689e-01
-5.892357e-01
-6.500117e-01
-7.127661e-01
-7.773757e-01
-8.437288e-01
-9.117321e-01
-9.813192e-01
-1.052464e+00
-1.125200e+00
-1.199644e+00
-1.276029e+00
-1.354732e+00
-1.436248e+00
-1.520979e+00
-1.608519e+00
-1.695655e+00
-1.774736e+00
0.000000e+00
-7.035287e-03
-1.978698e-02
-3.760630e-02
-5.991341e-02
-8.627191e-02
-1.163793e-01
-1.500203e-01
-1.870252e-01
-2.272447e-01
-2.705381e-01
-3.167675e-01
-3.657962e-01
-4.174869e-01
-4.717028e-01
-5.283070e-01
-5.871640e-01
-6.481405e-01
-7.111080e-01
-7.759452e-01
-8.425421e-01
-9.108059e-01
-9.806681e-01
-1.052095e+00
-1.125099e+00
-1.199752e+00
-1.276183e+00
-1.354559e+00
-1.434969e+00
-1.517144e+00
-1.599831e+00
-1.680075e+00
-1.753418e+00
0.000000e+00
-6.463312e-03
-1.857915e-02
-3.584025e-02
-5.774913e-02
-8.388049e-02
-1.138985e-01
-1.475437e-01
-1.846096e-01
-2.249226e-01
-2.683275e-01
-3.146790e-01
-3.638371e-01
-4.156642e-01
-4.700240e-01
-5.267813e-01
-5.858022e-01
-6.469557e-01
-7.101144e-01
-7.751578e-01
-8.419751e-01
-9.104697e-01
-9.805640e-01
-1.052205e+00
-1.125369e+00
-1.200055e+00
-1.276273e+00
-1.353976e+00
-1.432942e+00
-1.512527e+00
-1.591356e+00
-1.667154e+00
-1.737137e+00
0.000000e+00
-6.149003e-03
-1.790895e-02
-3.484504e-02
-5.650811e-02
-8.248751e-02
-1.124366e-01
-1.460744e-01
-1.831734e-01
-2.235442e-01
-2.670221e-01
-3.134569e-01
-3.627065e-01
-4.146333e-01
-4.691020e-01
-5.259790e-01
-5.851320e-01
-6.464309e-01
-7.097490e-01
-7.749646e-01
-8.419627e-01
-9.106382e-01
-9.808977e-01
-1.052660e+00
-1.125854e+00
-1.200403e+00
-1.276197e+00
-1.353032e+00
-1.430495e+00
-1.507826e+00
-1.583781e+00
-1.656653e+00
-1.724540e+00
0.000000e+00
-6.047734e-03
-1.769273e-02
-3.452249e-02
-5.610364e-02
-8.203162e-02
-1.119578e-01
-1.455950e-01
-1.827096e-01
-2.231075e-01
-2.666210e-01
-3.130990e-01
-3.623996e-01
-4.143861e-01
-4.689245e-01
-5.258825e-01
-5.851290e-01
-6.465343e-01
-7.099707e-01
-7.753132e-01
-8.424400e-01
-9.112338e-01
-9.815803e-01
-1.053366e+00
-1.126470e+00
-1.200746e+00
-1.275992e+00
-1.351900e+00
-1.427977e+00
-1.503476e+00
-1.577344e+00
-1.648279e+00
-1.714886e+00
0.000000e+00
-6.146074e-03
-1.790489e-02
-3.484154e-02
-5.650705e-02
-8.249123e-02
-1.124482e-01
-1.460979e-01
-1.832141e-01
-2.236094e-01
-2.671207e-01
-3.136004e-01
-3.629090e-01
-4.149118e-01
-4.694765e-01
-5.264719e-01
-5.857675e-01
-6.472331e-01
-7.107389e-01
-7.761549e-01
-8.433510e-01
-9.121949e-01
-9.825502e-01
-1.054271e+00
-1.127190e+00
-1.201106e+00
-1.275754e+00
-1.350771e+00
-1.425650e+00
-1.499711e+00
-1.572086e+00
-1.641768e+00
-1.707691e+00
0.000000e+00
-6.457691e-03
-1.857135e-02
-3.583350e-02
-5.774702e-02
-8.388747e-02
-1.139204e-01
-1.475884e-01
-1.846875e-01
-2.250472e-01
-2.685162e-01
-3.149539e-01
-3.642252e-01
-4.161983e-01
-4.707424e-01
-5.277273e-01
-5.870226e-01
-6.484970e-01
-7.120177e-01
-7.774493e-01
-8.446519e-01
-9.134786e-01
-9.837714e-01
-1.055355e+00
-1.128025e+00
-1.201539e+00
-1.275593e+00
-1.349803e+00
-1.423683e+00
-1.496636e+00
-1.567963e+00
-1.636884e+00
-1.702584e+00
0.000000e+00
-7.027474e-03
-1.977613e-02
-3.759687e-02
-5.991036e-02
-8.628146e-02
-1.164097e-01
-1.500824e-01
-1.871336e-01
-2.274184e-01
-2.708015e-01
-3.171514e-01
-3.663386e-01
-4.182339e-01
-4.727081e-01
-5.296316e-01
-5.888737e-01
-6.503016e-01
-7.137793e-01
-7.791658e-01
-8.463122e-01
-9.150582e-01
-9.852270e-01
-1.056619e+00
-1.129003e+00
-1.202106e+00
-1.275604e+00
-1.349109e+00
-1.422172e+00
-1.494282e+00
-1.564884e+00
-1.633400e+00
-1.699235e+00
0.000000e+00
-7.946414e-03
-2.168458e-02
-4.031210e-02
-6.314049e-02
-8.976333e-02
-1.199614e-01
-1.535977e-01
-1.905552e-01
-2.307186e-01
-2.739692e-01
-3.201847e-01
-3.692402e-01
-4.210089e-01
-4.753627e-01
-5.321722e-01
-5.913061e-01
-6.526300e-01
-7.160049e-01
-7.812850e-01
-8.483138e-01
-9.169200e-01
-9.869125e-01
-1.058074e+00
-1.130152e+00
-1.202857e+00
-1.275852e+00
-1.348759e+00
-1.421163e+00
-1.492629e+00
-1.562735e+00
-1.631087e+00
-1.697319e+00
0.000000e+00
-9.392516e-03
-2.459584e-02
-4.426002e-02
-6.762145e-02
-9.442140e-02
-1.246107e-01
-1.581423e-01
-1.949487e-01
-2.349403e-01
-2.780115e-01
-3.240466e-01
-3.729238e-01
-4.245178e-01
-4.787009e-01
-5.353434e-01
-5.943133e-01
-6.554748e-01
-7.186867e-01
-7.837990e-01
-8.506499e-01
-9.190606e-01
-9.888297e-01
-1.059728e+00
-1.131492e+00
-1.203819e+00
-1.276372e+00
-1.348778e+00
-1.420654e+00
-1.491627e+00
-1.561384e+00
-1.629706e+00
-1.696484e+00
0.000000e+00
-1.173311e-02
-2.904968e-02
-4.982156e-02
-7.348738e-02
-1.002965e-01
-1.303587e-01
-1.637057e-01
-2.003023e-01
-2.400738e-01
-2.829215e-01
-3.287330e-01
-3.773876e-01
-4.287605e-01
-4.827238e-01
-5.391474e-01
-5.978985e-01
-6.588399e-01
-7.218287e-01
-7.867125e-01
-8.533258e-01
-9.214853e-01
-9.909845e-01
-1.061588e+00
-1.133026e+00
-1.204994e+00
-1.277154e+00
-1.349142e+00
-1.420596e+00
-1.491188e+00
-1.560684e+00
-1.629012e+00
-1.696338e+00
0.000000e+00
-1.597895e-02
-3.603949e-02
-5.709887e-02
-8.072389e-02
-1.073376e-01
-1.371654e-01
-1.702614e-01
-2.066004e-01
-2.461113e-01
-2.886969e-01
-3.342453e-01
-3.826360e-01
-4.337440e-01
-4.874410e-01
-5.435962e-01
-6.020757e-01
-6.627416e-01
-7.254492e-01
-7.900446e-01
-8.563605e-01
-9.242114e-01
-9.933890e-01
-1.063656e+00
-1.134745e+00
-1.206351e+00
-1.278141e+00
-1.349765e+00
-1.420874e+00
-1.491168e+00
-1.560456e+00
-1.628761e+00
-1.696462e+00
0.000000e+00
-2.571964e-02
-4.488504e-02
-6.580422e-02
-8.910553e-02
-1.154344e-01
-1.449765e-01
-1.777865e-01
-2.138363e-01
-2.530544e-01
-2.953438e-01
-3.405926e-01
-3.886808e-01
-4.394828e-01
-4.928701e-01
-5.487111e-01
-6.068709e-01
-6.672102e-01
-7.295828e-01
-7.938331e-01
-8.597922e-01
-9.272739e-01
-9.960692e-01