TITLE = "Solution"
VARIABLES = x, y, u, v, psiu, psiv, t, stress
ZONE T="structure" N=561 E=512 F=FEBLOCK ET=QUADRILATERAL VARLOCATION=([7,8]=cellcentered)
0.000000e+00
6.250000e+00
1.250000e+01
1.875000e+01
2.500000e+01
3.125000e+01
3.750000e+01
4.375000e+01
5.000000e+01
5.625000e+01
6.250000e+01
6.875000e+01
7.500000e+01
8.125000e+01
8.750000e+01
9.375000e+01
1.000000e+02
1.062500e+02
1.125000e+02
1.187500e+02
1.250000e+02
1.312500e+02
1.375000e+02
1.437500e+02
1.500000e+02
1.562500e+02
1.625000e+02
1.687500e+02
1.750000e+02
1.812500e+02
1.875000e+02
1.937500e+02
2.000000e+02
0.000000e+00
6.250000e+00
1.250000e+01
1.875000e+01
2.500000e+01
3.125000e+01
3.750000e+01
4.375000e+01
5.000000e+01
5.625000e+01
6.250000e+01
6.875000e+01
7.500000e+01
8.125000e+01
8.750000e+01
9.375000e+01
1.000000e+02
1.062500e+02
1.125000e+02
1.187500e+02
1.250000e+02
1.312500e+02
1.375000e+02
1.437500e+02
1.500000e+02
1.562500e+02
1.625000e+02
1.687500e+02
1.750000e+02
1.812500e+02
1.875000e+02
1.937500e+02
2.000000e+02
0.000000e+00
6.250000e+00
1.250000e+01
1.875000e+01
2.500000e+01
3.125000e+01
3.750000e+01
4.375000e+01
5.000000e+01
5.625000e+01
6.250000e+01
6.875000e+01
7.500000e+01
8.125000e+01
8.750000e+01
9.375000e+01
1.000000e+02
1.062500e+02
1.125000e+02
1.187500e+02
1.250000e+02
1.312500e+02
1.375000e+02
1.437500e+02
1.500000e+02
1.562500e+02
1.625000e+02
1.687500e+02
1.750000e+02
1.812500e+02
1.875000e+02
1.937500e+02
2.000000e+02
0.000000e+00
6.250000e+00
1.250000e+01
1.875000e+01
2.500000e+01
3.125000e+01
3.750000e+01
4.375000e+01
5.000000e+01
5.625000e+01
6.250000e+01
6.875000e+01
7.500000e+01
8.125000e+01
8.750000e+01
9.375000e+01
1.000000e+02
1.062500e+02
1.125000e+02
1.187500e+02
1.250000e+02
1.312500e+02
1.375000e+02
1.437500e+02
1.500000e+02
1.562500e+02
1.625000e+02
1.687500e+02
1.750000e+02
1.812500e+02
1.875000e+02
1.937500e+02
2.000000e+02
0.000000e+00
6.250000e+00
1.250000e+01
1.875000e+01
2.500000e+01
3.125000e+01
3.750000e+01
4.375000e+01
5.000000e+01
5.625000e+01
6.250000e+01
6.875000e+01
7.500000e+01
8.125000e+01
8.750000e+01
9.375000e+01
1.000000e+02
1.062500e+02
1.125000e+02
1.187500e+02
1.250000e+02
1.312500e+02
1.375000e+02
1.437500e+02
1.500000e+02
1.562500e+02
1.625000e+02
1.687500e+02
1.750000e+02
1.812500e+02
1.875000e+02
1.937500e+02
2.000000e+02
0.000000e+00
6.250000e+00
1.250000e+01
1.875000e+01
2.500000e+01
3.125000e+01
3.750000e+01
4.375000e+01
5.000000e+01
5.625000e+01
6.250000e+01
6.875000e+01
7.500000e+01
8.125000e+01
8.750000e+01
9.375000e+01
1.000000e+02
1.062500e+02
1.125000e+02
1.187500e+02
1.250000e+02
1.312500e+02
1.375000e+02
1.437500e+02
1.500000e+02
1.562500e+02
1.625000e+02
1.687500e+02
1.750000e+02
1.812500e+02
1.875000e+02
1.937500e+02
2.000000e+02
0.000000e+00
6.250000e+00
1.250000e+01
1.875000e+01
2.500000e+01
3.125000e+01
3.750000e+01
4.375000e+01
5.000000e+01
5.625000e+01
6.250000e+01
6.875000e+01
7.500000e+01
8.125000e+01
8.750000e+01
9.375000e+01
1.000000e+02
1.062500e+02
1.125000e+02
1.187500e+02
1.250000e+02
1.312500e+02
1.375000e+02
1.437500e+02
1.500000e+02
1.562500e+02
1.625000e+02
1.687500e+02
1.750000e+02
1.812500e+02
1.875000e+02
1.937500e+02
2.000000e+02
0.000000e+00
6.250000e+00
1.250000e+01
1.875000e+01
2.500000e+01
3.125000e+01
3.750000e+01
4.375000e+01
5.000000e+01
5.625000e+01
6.250000e+01
6.875000e+01
7.500000e+01
8.125000e+01
8.750000e+01
9.375000e+01
1.000000e+02
1.062500e+02
1.125000e+02
1.187500e+02
1.250000e+02
1.312500e+02
1.375000e+02
1.437500e+02
1.500000e+02
1.562500e+02
1.625000e+02
1.687500e+02
1.750000e+02
1.812500e+02
1.875000e+02
1.937500e+02
2.000000e+02
0.000000e+00
6.250000e+00
1.250000e+01
1.875000e+01
2.500000e+01
3.125000e+01
3.750000e+01
4.375000e+01
5.000000e+01
5.625000e+01
6.250000e+01
6.875000e+01
7.500000e+01
8.125000e+01
8.750000e+01
9.375000e+01
1.000000e+02
1.062500e+02
1.125000e+02
1.187500e+02
1.250000e+02
1.312500e+02
1.375000e+02
1.437500e+02
1.500000e+02
1.562500e+02
1.625000e+02
1.687500e+02
1.750000e+02
1.812500e+02
1.875000e+02
1.937500e+02
2.000000e+02
0.000000e+00
6.250000e+00
1.250000e+01
1.875000e+01
2.500000e+01
3.125000e+01
3.750000e+01
4.375000e+01
5.000000e+01
5.625000e+01
6.250000e+01
6.875000e+01
7.500000e+01
8.125000e+01
8.750000e+01
9.375000e+01
1.000000e+02
1.062500e+02
1.125000e+02
1.187500e+02
1.250000e+02
1.312500e+02
1.375000e+02
1.437500e+02
1.500000e+02
1.562500e+02
1.625000e+02
1.687500e+02
1.750000e+02
1.812500e+02
1.875000e+02
1.937500e+02
2.000000e+02
0.000000e+00
6.250000e+00
1.250000e+01
1.875000e+01
2.500000e+01
3.125000e+01
3.750000e+01
4.375000e+01
5.000000e+01
5.625000e+01
6.250000e+01
6.875000e+01
7.500000e+01
8.125000e+01
8.750000e+01
9.375000e+01
1.000000e+02
1.062500e+02
1.125000e+02
1.187500e+02
1.250000e+02
1.312500e+02
1.375000e+02
1.437500e+02
1.500000e+02
1.562500e+02
1.625000e+02
1.687500e+02
1.750000e+02
1.812500e+02
1.875000e+02
1.937500e+02
2.000000e+02
0.000000e+00
6.250000e+00
1.250000e+01
1.875000e+01
2.500000e+01
3.125000e+01
3.750000e+01
4.375000e+01
5.000000e+01
5.625000e+01
6.250000e+01
6.875000e+01
7.500000e+01
8.125000e+01
8.750000e+01
9.375000e+01
1.000000e+02
1.062500e+02
1.125000e+02
1.187500e+02
1.250000e+02
1.312500e+02
1.375000e+02
1.437500e+02
1.500000e+02
1.562500e+02
1.625000e+02
1.687500e+02
1.750000e+02
1.812500e+02
1.875000e+02
1.937500e+02
2.000000e+02
0.000000e+00
6.250000e+00
1.250000e+01
1.875000e+01
2.500000e+01
3.125000e+01
3.750000e+01
4.375000e+01
5.000000e+01
5.625000e+01
6.250000e+01
6.875000e+01
7.500000e+01
8.125000e+01
8.750000e+01
9.375000e+01
1.000000e+02
1.062500e+02
1.125000e+02
1.187500e+02
1.250000e+02
1.312500e+02
1.375000e+02
1.437500e+02
1.500000e+02
1.562500e+02
1.625000e+02
1.687500e+02
1.750000e+02
1.812500e+02
1.875000e+02
1.937500e+02
2.000000e+02
0.000000e+00
6.250000e+00
1.250000e+01
1.875000e+01
2.500000e+01
3.125000e+01
3.750000e+01
4.375000e+01
5.000000e+01
5.625000e+01
6.250000e+01
6.875000e+01
7.500000e+01
8.125000e+01
8.750000e+01
9.375000e+01
1.000000e+02
1.062500e+02
1.125000e+02
1.187500e+02
1.250000e+02
1.312500e+02
1.375000e+02
1.437500e+02
1.500000e+02
1.562500e+02
1.625000e+02
1.687500e+02
1.750000e+02
1.812500e+02
1.875000e+02
1.937500e+02
2.000000e+02
0.000000e+00
6.250000e+00
1.250000e+01
1.875000e+01
2.500000e+01
3.125000e+01
3.750000e+01
4.375000e+01
5.000000e+01
5.625000e+01
6.250000e+01
6.875000e+01
7.500000e+01
8.125000e+01
8.750000e+01
9.375000e+01
1.000000e+02
1.062500e+02
1.125000e+02
1.187500e+02
1.250000e+02
1.312500e+02
1.375000e+02
1.437500e+02
1.500000e+02
1.562500e+02
1.625000e+02
1.687500e+02
1.750000e+02
1.812500e+02
1.875000e+02
1.937500e+02
2.000000e+02
0.000000e+00
6.250000e+00
1.250000e+01
1.875000e+01
2.500000e+01
3.125000e+01
3.750000e+01
4.375000e+01
5.000000e+01
5.625000e+01
6.250000e+01
6.875000e+01
7.500000e+01
8.125000e+01
8.750000e+01
9.375000e+01
1.000000e+02
1.062500e+02
1.125000e+02
1.187500e+02
1.250000e+02
1.312500e+02
1.375000e+02
1.437500e+02
1.500000e+02
1.562500e+02
1.625000e+02
1.687500e+02
1.750000e+02
1.812500e+02
1.875000e+02
1.937500e+02
2.000000e+02
0.000000e+00
6.250000e+00
1.250000e+01
1.875000e+01
2.500000e+01
3.125000e+01
3.750000e+01
4.375000e+01
5.000000e+01
5.625000e+01
6.250000e+01
6.875000e+01
7.500000e+01
8.125000e+01
8.750000e+01
9.375000e+01
1.000000e+02
1.062500e+02
1.125000e+02
1.187500e+02
1.250000e+02
1.312500e+02
1.375000e+02
1.437500e+02
1.500000e+02
1.562500e+02
1.625000e+02
1.687500e+02
1.750000e+02
1.812500e+02
1.875000e+02
1.937500e+02
2.000000e+02
0.000000e+00
0.000000e+00
0.000000e+00
0.000000e+00
0.000000e+00
0.000000e+00
0.000000e+00
0.000000e+00
0.000000e+00
0.000000e+00
0.000000e+00
0.000000e+00
0.000000e+00
0.000000e+00
0.000000e+00
0.000000e+00
0.000000e+00
0.000000e+00
0.000000e+00
0.000000e+00
0.000000e+00
0.000000e+00
0.000000e+00
0.000000e+00
0.000000e+00
0.000000e+00
0.000000e+00
0.000000e+00
0.000000e+00
0.000000e+00
0.000000e+00
0.000000e+00
0.000000e+00
6.250000e+00
6.250000e+00
6.250000e+00
6.250000e+00
6.250000e+00
6.250000e+00
6.250000e+00
6.250000e+00
6.250000e+00
6.250000e+00
6.250000e+00
6.250000e+00
6.250000e+00
6.250000e+00
6.250000e+00
6.250000e+00
6.250000e+00
6.250000e+00
6.250000e+00
6.250000e+00
6.250000e+00
6.250000e+00
6.250000e+00
6.250000e+00
6.250000e+00
6.250000e+00
6.250000e+00
6.250000e+00
6.250000e+00
6.250000e+00
6.250000e+00
6.250000e+00
6.250000e+00
1.250000e+01
1.250000e+01
1.250000e+01
1.250000e+01
1.250000e+01
1.250000e+01
1.250000e+01
1.250000e+01
1.250000e+01
1.250000e+01
1.250000e+01
1.250000e+01
1.250000e+01
1.250000e+01
1.250000e+01
1.250000e+01
1.250000e+01
1.250000e+01
1.250000e+01
1.250000e+01
1.250000e+01
1.250000e+01
1.250000e+01
1.250000e+01
1.250000e+01
1.250000e+01
1.250000e+01
1.250000e+01
1.250000e+01
1.250000e+01
1.250000e+01
1.250000e+01
1.250000e+01
1.875000e+01
1.875000e+01
1.875000e+01
1.875000e+01
1.875000e+01
1.875000e+01
1.875000e+01
1.875000e+01
1.875000e+01
1.875000e+01
1.875000e+01
1.875000e+01
1.875000e+01
1.875000e+01
1.875000e+01
1.875000e+01
1.875000e+01
1.875000e+01
1.875000e+01
1.875000e+01
1.875000e+01
1.875000e+01
1.875000e+01
1.875000e+01
1.875000e+01
1.875000e+01
1.875000e+01
1.875000e+01
1.875000e+01
1.875000e+01
1.875000e+01
1.875000e+01
1.875000e+01
2.500000e+01
2.500000e+01
2.500000e+01
2.500000e+01
2.500000e+01
2.500000e+01
2.500000e+01
2.500000e+01
2.500000e+01
2.500000e+01
2.500000e+01
2.500000e+01
2.500000e+01
2.500000e+01
2.500000e+01
2.500000e+01
2.500000e+01
2.500000e+01
2.500000e+01
2.500000e+01
2.500000e+01
2.500000e+01
2.500000e+01
2.500000e+01
2.500000e+01
2.500000e+01
2.500000e+01
2.500000e+01
2.500000e+01
2.500000e+01
2.500000e+01
2.500000e+01
2.500000e+01
3.125000e+01
3.125000e+01
3.125000e+01
3.125000e+01
3.125000e+01
3.125000e+01
3.125000e+01
3.125000e+01
3.125000e+01
3.125000e+01
3.125000e+01
3.125000e+01
3.125000e+01
3.125000e+01
3.125000e+01
3.125000e+01
3.125000e+01
3.125000e+01
3.125000e+01
3.125000e+01
3.125000e+01
3.125000e+01
3.125000e+01
3.125000e+01
3.125000e+01
3.125000e+01
3.125000e+01
3.125000e+01
3.125000e+01
3.125000e+01
3.125000e+01
3.125000e+01
3.125000e+01
3.750000e+01
3.750000e+01
3.750000e+01
3.750000e+01
3.750000e+01
3.750000e+01
3.750000e+01
3.750000e+01
3.750000e+01
3.750000e+01
3.750000e+01
3.750000e+01
3.750000e+01
3.750000e+01
3.750000e+01
3.750000e+01
3.750000e+01
3.750000e+01
3.750000e+01
3.750000e+01
3.750000e+01
3.750000e+01
3.750000e+01
3.750000e+01
3.750000e+01
3.750000e+01
3.750000e+01
3.750000e+01
3.750000e+01
3.750000e+01
3.750000e+01
3.750000e+01
3.750000e+01
4.375000e+01
4.375000e+01
4.375000e+01
4.375000e+01
4.375000e+01
4.375000e+01
4.375000e+01
4.375000e+01
4.375000e+01
4.375000e+01
4.375000e+01
4.375000e+01
4.375000e+01
4.375000e+01
4.375000e+01
4.375000e+01
4.375000e+01
4.375000e+01
4.375000e+01
4.375000e+01
4.375000e+01
4.375000e+01
4.375000e+01
4.375000e+01
4.375000e+01
4.375000e+01
4.375000e+01
4.375000e+01
4.375000e+01
4.375000e+01
4.375000e+01
4.375000e+01
4.375000e+01
5.000000e+01
5.000000e+01
5.000000e+01
5.000000e+01
5.000000e+01
5.000000e+01
5.000000e+01
5.000000e+01
5.000000e+01
5.000000e+01
5.000000e+01
5.000000e+01
5.000000e+01
5.000000e+01
5.000000e+01
5.000000e+01
5.000000e+01
5.000000e+01
5.000000e+01
5.000000e+01
5.000000e+01
5.000000e+01
5.000000e+01
5.000000e+01
5.000000e+01
5.000000e+01
5.000000e+01
5.000000e+01
5.000000e+01
5.000000e+01
5.000000e+01
5.000000e+01
5.000000e+01
5.625000e+01
5.625000e+01
5.625000e+01
5.625000e+01
5.625000e+01
5.625000e+01
5.625000e+01
5.625000e+01
5.625000e+01
5.625000e+01
5.625000e+01
5.625000e+01
5.625000e+01
5.625000e+01
5.625000e+01
5.625000e+01
5.625000e+01
5.625000e+01
5.625000e+01
5.625000e+01
5.625000e+01
5.625000e+01
5.625000e+01
5.625000e+01
5.625000e+01
5.625000e+01
5.625000e+01
5.625000e+01
5.625000e+01
5.625000e+01
5.625000e+01
5.625000e+01
5.625000e+01
6.250000e+01
6.250000e+01
6.250000e+01
6.250000e+01
6.250000e+01
6.250000e+01
6.250000e+01
6.250000e+01
6.250000e+01
6.250000e+01
6.250000e+01
6.250000e+01
6.250000e+01
6.250000e+01
6.250000e+01
6.250000e+01
6.250000e+01
6.250000e+01
6.250000e+01
6.250000e+01
6.250000e+01
6.250000e+01
6.250000e+01
6.250000e+01
6.250000e+01
6.250000e+01
6.250000e+01
6.250000e+01
6.250000e+01
6.250000e+01
6.250000e+01
6.250000e+01
6.250000e+01
6.875000e+01
6.875000e+01
6.875000e+01
6.875000e+01
6.875000e+01
6.875000e+01
6.875000e+01
6.875000e+01
6.875000e+01
6.875000e+01
6.875000e+01
6.875000e+01
6.875000e+01
6.875000e+01
6.875000e+01
6.875000e+01
6.875000e+01
6.875000e+01
6.875000e+01
6.875000e+01
6.875000e+01
6.875000e+01
6.875000e+01
6.875000e+01
6.875000e+01
6.875000e+01
6.875000e+01
6.875000e+01
6.875000e+01
6.875000e+01
6.875000e+01
6.875000e+01
6.875000e+01
7.500000e+01
7.500000e+01
7.500000e+01
7.500000e+01
7.500000e+01
7.500000e+01
7.500000e+01
7.500000e+01
7.500000e+01
7.500000e+01
7.500000e+01
7.500000e+01
7.500000e+01
7.500000e+01
7.500000e+01
7.500000e+01
7.500000e+01
7.500000e+01
7.500000e+01
7.500000e+01
7.500000e+01
7.500000e+01
7.500000e+01
7.500000e+01
7.500000e+01
7.500000e+01
7.500000e+01
7.500000e+01
7.500000e+01
7.500000e+01
7.500000e+01
7.500000e+01
7.500000e+01
8.125000e+01
8.125000e+01
8.125000e+01
8.125000e+01
8.125000e+01
8.125000e+01
8.125000e+01
8.125000e+01
8.125000e+01
8.125000e+01
8.125000e+01
8.125000e+01
8.125000e+01
8.125000e+01
8.125000e+01
8.125000e+01
8.125000e+01
8.125000e+01
8.125000e+01
8.125000e+01
8.125000e+01
8.125000e+01
8.125000e+01
8.125000e+01
8.125000e+01
8.125000e+01
8.125000e+01
8.125000e+01
8.125000e+01
8.125000e+01
8.125000e+01
8.125000e+01
8.125000e+01
8.750000e+01
8.750000e+01
8.750000e+01
8.750000e+01
8.750000e+01
8.750000e+01
8.750000e+01
8.750000e+01
8.750000e+01
8.750000e+01
8.750000e+01
8.750000e+01
8.750000e+01
8.750000e+01
8.750000e+01
8.750000e+01
8.750000e+01
8.750000e+01
8.750000e+01
8.750000e+01
8.750000e+01
8.750000e+01
8.750000e+01
8.750000e+01
8.750000e+01
8.750000e+01
8.750000e+01
8.750000e+01
8.750000e+01
8.750000e+01
8.750000e+01
8.750000e+01
8.750000e+01
9.375000e+01
9.375000e+01
9.375000e+01
9.375000e+01
9.375000e+01
9.375000e+01
9.375000e+01
9.375000e+01
9.375000e+01
9.375000e+01
9.375000e+01
9.375000e+01
9.375000e+01
9.375000e+01
9.375000e+01
9.375000e+01
9.375000e+01
9.375000e+01
9.375000e+01
9.375000e+01
9.375000e+01
9.375000e+01
9.375000e+01
9.375000e+01
9.375000e+01
9.375000e+01
9.375000e+01
9.375000e+01
9.375000e+01
9.375000e+01
9.375000e+01
9.375000e+01
9.375000e+01
1.000000e+02
1.000000e+02
1.000000e+02
1.000000e+02
1.000000e+02
1.000000e+02
1.000000e+02
1.000000e+02
1.000000e+02
1.000000e+02
1.000000e+02
1.000000e+02
1.000000e+02
1.000000e+02
1.000000e+02
1.000000e+02
1.000000e+02
1.000000e+02
1.000000e+02
1.000000e+02
1.000000e+02
1.000000e+02
1.000000e+02
1.000000e+02
1.000000e+02
1.000000e+02
1.000000e+02
1.000000e+02
1.000000e+02
1.000000e+02
1.000000e+02
1.000000e+02
1.000000e+02
0.000000e+00
-4.044251e-02
-7.337755e-02
-1.038872e-01
-1.331679e-01
-1.614428e-01
-1.887688e-01
-2.151434e-01
-2.405500e-01
-2.649700e-01
-2.883883e-01
-3.107943e-01
-3.321824e-01
-3.525523e-01
-3.719087e-01
-3.902618e-01
-4.076280e-01
-4.240313e-01
-4.395046e-01
-4.540924e-01
-4.678540e-01
-4.808679e-01
-4.932378e-01
-5.051011e-01
-5.166423e-01
-5.281116e-01
-5.398568e-01
-5.523741e-01
-5.663910e-01
-5.829783e-01
-6.035250e-01
-6.280110e-01
-6.429545e-01
0.000000e+00
-2.711561e-02
-5.641695e-02
-8.404424e-02
-1.103029e-01
-1.354430e-01
-1.595973e-01
-1.828240e-01
-2.051462e-01
-2.265715e-01
-2.471012e-01
-2.667354e-01
-2.854751e-01
-3.033232e-01
-3.202856e-01
-3.363719e-01
-3.515956e-01
-3.659757e-01
-3.795370e-01
-3.923119e-01
-4.043416e-01
-4.156782e-01
-4.263864e-01
-4.365449e-01
-4.462484e-01
-4.556054e-01
-4.647307e-01
-4.737184e-01
-4.825682e-01
-4.909919e-01
-4.980112e-01
-5.021150e-01
-5.078282e-01
0.000000e+00
-2.150817e-02
-4.427974e-02
-6.746482e-02
-8.999354e-02
-1.116920e-01
-1.325464e-01
-1.525765e-01
-1.717999e-01
-1.902289e-01
-2.078712e-01
-2.247323e-01
-2.408168e-01
-2.561297e-01
-2.706764e-01
-2.844641e-01
-2.975017e-01
-3.098006e-01
-3.213744e-01
-3.322397e-01
-3.424155e-01
-3.519224e-01
-3.607807e-01
-3.690060e-01
-3.766016e-01
-3.835432e-01
-3.897513e-01
-3.950432e-01
-3.990610e-01
-4.012245e-01
-4.010348e-01
-3.998199e-01
-4.064914e-01
0.000000e+00
-1.706483e-02
-3.507211e-02
-5.357234e-02
-7.202922e-02
-9.003903e-02
-1.074475e-01
-1.241994e-01
-1.402797e-01
-1.556878e-01
-1.704275e-01
-1.845040e-01
-1.979218e-01
-2.106852e-01
-2.227981e-01
-2.342637e-01
-2.450853e-01
-2.552656e-01
-2.648067e-01
-2.737092e-01
-2.819708e-01
-2.895839e-01
-2.965316e-01
-3.027816e-01
-3.082763e-01
-3.129185e-01
-3.165546e-01
-3.189626e-01
-3.198820e-01
-3.191995e-01
-3.175418e-01
-3.174428e-01
-3.237991e-01
0.000000e+00
-1.324469e-02
-2.712060e-02
-4.143978e-02
-5.587528e-02
-7.013373e-02
-8.401840e-02
-9.742967e-02
-1.103223e-01
-1.226788e-01
-1.344946e-01
-1.457704e-01
-1.565083e-01
-1.667101e-01
-1.763765e-01
-1.855065e-01
-1.940974e-01
-2.021440e-01
-2.096379e-01
-2.165667e-01
-2.229116e-01
-2.286456e-01
-2.337294e-01
-2.381073e-01
-2.417018e-01
-2.444112e-01
-2.461161e-01
-2.467142e-01
-2.462235e-01
-2.450230e-01
-2.442441e-01
-2.460427e-01
-2.514649e-01
0.000000e+00
-9.734074e-03
-1.988519e-02
-3.036244e-02
-4.098477e-02
-5.155391e-02
-6.191243e-02
-7.195803e-02
-8.163453e-02
-9.091464e-02
-9.978682e-02
-1.082470e-01
-1.162938e-01
-1.239257e-01
-1.311398e-01
-1.379311e-01
-1.442914e-01
-1.502091e-01
-1.556683e-01
-1.606475e-01
-1.651188e-01
-1.690458e-01
-1.723827e-01
-1.750734e-01
-1.770543e-01
-1.782629e-01
-1.786639e-01
-1.783041e-01
-1.774171e-01
-1.765733e-01
-1.767787e-01
-1.790717e-01
-1.835581e-01
0.000000e+00
-6.406191e-03
-1.306578e-02
-1.993662e-02
-2.692075e-02
-3.390060e-02
-4.077091e-02
-4.745496e-02
-5.390471e-02
-6.009369e-02
-6.600850e-02
-7.164242e-02
-7.699112e-02
-8.205015e-02
-8.681341e-02
-9.127219e-02
-9.541446e-02
-9.922429e-02
-1.026812e-01
-1.057599e-01
-1.084292e-01
-1.106531e-01
-1.123911e-01
-1.136023e-01
-1.142530e-01
-1.143338e-01
-1.138888e-01
-1.130655e-01
-1.121770e-01
-1.117464e-01
-1.124183e-01
-1.146507e-01
-1.182723e-01
0.000000e+00
-3.181953e-03
-6.484203e-03
-9.889776e-03
-1.335566e-02
-1.682711e-02
-2.025212e-02
-2.359001e-02
-2.681329e-02
-2.990516e-02
-3.285569e-02
-3.565827e-02
-3.830719e-02
-4.079587e-02
-4.311583e-02
-4.525593e-02
-4.720181e-02
-4.893551e-02
-5.043524e-02
-5.167545e-02
-5.262747e-02
-5.326117e-02
-5.354823e-02
-5.346839e-02
-5.302007e-02
-5.223748e-02
-5.121534e-02
-5.013835e-02
-4.930228e-02
-4.909285e-02
-4.988118e-02
-5.182867e-02
-5.470229e-02
0.000000e+00
-5.133763e-06
-1.113146e-05
-1.766084e-05
-2.437844e-05
-3.082119e-05
-3.629120e-05
-3.972792e-05
-3.955879e-05
-3.351934e-05
-1.843614e-05
1.003142e-05
5.769000e-05
1.321453e-04
2.431532e-04
4.029585e-04
6.265694e-04
9.318815e-04
1.339519e-03
1.872185e-03
2.553225e-03
3.403943e-03
4.439097e-03
5.659811e-03
7.043216e-03
8.528712e-03
1.000257e-02
1.128664e-02
1.214381e-02
1.231764e-02
1.161772e-02
1.003263e-02
7.812617e-03
0.000000e+00
3.172284e-03
6.463194e-03
9.856376e-03
1.330945e-02
1.676852e-02
2.018287e-02
2.351381e-02
2.673676e-02
2.983919e-02
3.281707e-02
3.567199e-02
3.840912e-02
4.103621e-02
4.356320e-02
4.600208e-02
4.836695e-02
5.067386e-02
5.294041e-02
5.518469e-02
5.742350e-02
5.966914e-02
6.192483e-02
6.417804e-02
6.639214e-02
6.849727e-02
7.038322e-02
7.190010e-02
7.287474e-02
7.315067e-02
7.265093e-02
7.144681e-02
6.979913e-02
0.000000e+00
6.398292e-03
1.304849e-02
1.990895e-02
2.688217e-02
3.385123e-02
4.071188e-02
4.738895e-02
5.383677e-02
6.003223e-02
6.596675e-02
7.164020e-02
7.705717e-02
8.222496e-02
8.715263e-02
9.185069e-02
9.633089e-02
1.006060e-01
1.046893e-01
1.085935e-01
1.123286e-01
1.158994e-01
1.193010e-01
1.225138e-01
1.254975e-01
1.281859e-01
1.304854e-01
1.322813e-01
1.334568e-01
1.339269e-01
1.336852e-01
1.328520e-01
1.317020e-01
0.000000e+00
9.729036e-03
1.987397e-02
3.034416e-02
4.095881e-02
5.152002e-02
6.187098e-02
7.191031e-02
8.158331e-02
9.086482e-02
9.974635e-02
1.082281e-01
1.163144e-01
1.240116e-01
1.313268e-01
1.382679e-01
1.448431e-01
1.510606e-01
1.569285e-01
1.624536e-01
1.676396e-01
1.724854e-01
1.769816e-01
1.811071e-01
1.848252e-01
1.880821e-01
1.908075e-01
1.929227e-01
1.943571e-01
1.950759e-01
1.951163e-01
1.946276e-01
1.939008e-01
0.000000e+00
1.324343e-02
2.711747e-02
4.143418e-02
5.586662e-02
7.012152e-02
8.400233e-02
9.740970e-02
1.102988e-01
1.226529e-01
1.344682e-01
1.457470e-01
1.564932e-01
1.667113e-01
1.764057e-01
1.855803e-01
1.942385e-01
2.023832e-01
2.100163e-01
2.171382e-01
2.237468e-01
2.298360e-01
2.353941e-01
2.404018e-01
2.448311e-01
2.486447e-01
2.517990e-01
2.542505e-01
2.559686e-01
2.569556e-01
2.572758e-01
2.570923e-01
2.567094e-01
0.000000e+00
1.706800e-02
3.507855e-02
5.358193e-02
7.204168e-02
9.005400e-02
1.074645e-01
1.242175e-01
1.402976e-01
1.557032e-01
1.704372e-01
1.845030e-01
1.979031e-01
2.106392e-01
2.227113e-01
2.341185e-01
2.448588e-01
2.549285e-01
2.643227e-01
2.730347e-01
2.810558e-01
2.883747e-01
2.949776e-01
3.008478e-01
3.059666e-01
3.103148e-01
3.138761e-01
3.166424e-01
3.186222e-01
3.198526e-01
3.204186e-01
3.204861e-01
3.203590e-01
0.000000e+00
2.151591e-02
4.429626e-02
6.749070e-02
9.002926e-02
1.117380e-01
1.326028e-01
1.526425e-01
1.718738e-01
1.903068e-01
2.079464e-01
2.247940e-01
2.408486e-01
2.561070e-01
2.705646e-01
2.842146e-01
2.970489e-01
3.090568e-01
3.202256e-01
3.305406e-01
3.399847e-01
3.485396e-01
3.561867e-01
3.629089e-01
3.686934e-01
3.735358e-01
3.774448e-01
3.804481e-01
3.825975e-01
3.839742e-01
3.846948e-01
3.849294e-01
3.849574e-01
0.000000e+00
2.712723e-02
5.644233e-02
8.408507e-02
1.103612e-01
1.355207e-01
1.596961e-01
1.829449e-01
2.052888e-01
2.267328e-01
2.472746e-01
2.669086e-01
2.856273e-01
3.034221e-01
3.202830e-01
3.361980e-01
3.511525e-01
3.651289e-01
3.781063e-01
3.900602e-01
4.009629e-01
4.107852e-01
4.194981e-01
4.270765e-01
4.335047e-01
4.387831e-01
4.429367e-01
4.460238e-01
4.481445e-01
4.494439e-01
4.501078e-01
4.503485e-01
4.504075e-01
0.000000e+00
4.045522e-02
7.340723e-02
1.039381e-01
1.332440e-01
1.615484e-01
1.889080e-01
2.153204e-01
2.407680e-01
2.652304e-01
2.886888e-01
3.111270e-01
3.325303e-01
3.528853e-01
3.721777e-01
3.903914e-01
4.075070e-01
4.235007e-01
4.383432e-01
4.519994e-01
4.644282e-01
4.755838e-01
4.854183e-01
4.938867e-01
5.009540e-01
5.066059e-01
5.108626e-01
5.137950e-01
5.155429e-01
5.163304e-01
5.164735e-01
5.163550e-01
5.162883e-01
0.000000e+00
-2.499270e-02
-4.361765e-02
-6.394196e-02
-8.657428e-02
-1.121398e-01
-1.408160e-01
-1.726530e-01
-2.076188e-01
-2.456387e-01
-2.866118e-01
-3.304222e-01
-3.769448e-01
-4.260496e-01
-4.776036e-01
-5.314733e-01
-5.875255e-01
-6.456298e-01
-7.056599e-01
-7.674969e-01
-8.310332e-01
-8.961784e-01
-9.628676e-01
-1.031075e+00
-1.100835e+00
-1.172277e+00
-1.245684e+00
-1.321611e+00
-1.401117e+00
-1.486302e+00
-1.581694e+00
-1.697976e+00
-1.858622e+00
0.000000e+00
-1.553201e-02
-3.502742e-02
-5.548883e-02
-7.843661e-02
-1.042798e-01
-1.332348e-01
-1.653503e-01
-2.005976e-01
-2.389017e-01
-2.801612e-01
-3.242592e-01
-3.710696e-01
-4.204613e-01
-4.723001e-01
-5.264511e-01
-5.827795e-01
-6.411529e-01
-7.014426e-01
-7.635268e-01
-8.272941e-01
-8.926492e-01
-9.595217e-01
-1.027878e+00
-1.097744e+00
-1.169235e+00
-1.242623e+00
-1.318442e+00
-1.397732e+00
-1.482555e+00
-1.577210e+00
-1.690903e+00
-1.840989e+00
0.000000e+00
-1.140916e-02
-2.823894e-02
-4.842123e-02
-7.140910e-02
-9.744275e-02
-1.266262e-01
-1.589866e-01
-1.944849e-01
-2.330427e-01
-2.745569e-01
-3.189098e-01
-3.659746e-01
-4.156197e-01
-4.677105e-01
-5.221115e-01
-5.786873e-01
-6.373047e-01
-6.978342e-01
-7.601529e-01
-8.241486e-01
-8.897251e-01
-9.568118e-01
-1.025376e+00
-1.095447e+00
-1.167147e+00
-1.240758e+00
-1.316830e+00
-1.396388e+00
-1.481291e+00
-1.574714e+00
-1.680409e+00
-1.797657e+00
0.000000e+00
-9.135967e-03
-2.391269e-02
-4.301875e-02
-6.571120e-02
-9.173676e-02
-1.210451e-01
-1.535867e-01
-1.892916e-01
-2.280669e-01
-2.698029e-01
-3.143790e-01
-3.616674e-01
-4.115361e-01
-4.638507e-01
-5.184760e-01
-5.752773e-01
-6.341216e-01
-6.948802e-01
-7.574313e-01
-8.216640e-01
-8.874847e-01
-9.548260e-01
-1.023661e+00
-1.094024e+00
-1.166045e+00
-1.240003e+00
-1.316404e+00
-1.396088e+00
-1.480279e+00
-1.570150e+00
-1.664935e+00
-1.753170e+00
0.000000e+00
-7.730531e-03
-2.108347e-02
-3.918235e-02
-6.135751e-02
-8.721244e-02
-1.165318e-01
-1.491791e-01
-1.850366e-01
-2.239870e-01
-2.659085e-01
-3.106748e-01
-3.581559e-01
-4.082194e-01
-4.607314e-01
-5.155576e-01
-5.725646e-01
-6.316211e-01
-6.926000e-01
-7.553815e-01
-8.198573e-01
-8.859366e-01
-9.535550e-01
-1.022687e+00
-1.093365e+00
-1.165702e+00
-1.239927e+00
-1.316403e+00
-1.395613e+00
-1.477946e+00
-1.563010e+00
-1.647680e+00
-1.724524e+00
0.000000e+00
-6.836239e-03
-1.922715e-02
-3.654231e-02
-5.821830e-02
-8.383104e-02
-1.130866e-01
-1.457758e-01
-1.817337e-01
-2.208153e-01
-2.628838e-01
-3.078053e-01
-3.554468e-01
-4.056751e-01
-4.583570e-01
-5.133598e-01
-5.705515e-01
-6.298028e-01
-6.909888e-01
-7.539915e-01
-8.187042e-01
-8.850366e-01
-9.529222e-01
-1.022328e+00
-1.093267e+00
-1.165807e+00
-1.240076e+00
-1.316234e+00
-1.394370e+00
-1.474220e+00
-1.554567e+00
-1.632541e+00
-1.703809e+00
0.000000e+00
-6.280447e-03
-1.805349e-02
-3.482623e-02
-5.611525e-02
-8.150728e-02
-1.106760e-01
-1.433692e-01
-1.793865e-01
-2.185590e-01
-2.607358e-01
-3.057759e-01
-3.535432e-01
-4.039039e-01
-4.567257e-01
-5.118772e-01
-5.692283e-01
-6.286515e-01
-6.900232e-01
-7.532264e-01
-8.181533e-01
-8.847100e-01
-9.528211e-01
-1.022435e+00
-1.093529e+00
-1.166102e+00
-1.240163e+00
-1.315668e+00
-1.392400e+00
-1.469734e+00
-1.546332e+00
-1.619985e+00
-1.687989e+00
0.000000e+00
-5.975031e-03
-1.740226e-02
-3.385918e-02
-5.490934e-02
-8.015372e-02
-1.092555e-01
-1.419415e-01
-1.779909e-01
-2.172195e-01
-2.594673e-01
-3.045883e-01
-3.524445e-01
-4.029021e-01
-4.558298e-01
-5.110976e-01
-5.685769e-01
-6.281416e-01
-6.896683e-01
-7.530386e-01
-8.181412e-01
-8.848737e-01
-9.531454e-01
-1.022877e+00
-1.094000e+00
-1.166440e+00
-1.240090e+00
-1.314751e+00
-1.390022e+00
-1.465165e+00
-1.538972e+00
-1.609782e+00
-1.675748e+00
0.000000e+00
-5.876627e-03
-1.719215e-02
-3.354575e-02
-5.451632e-02
-7.971072e-02
-1.087902e-01
-1.414757e-01
-1.775402e-01
-2.167951e-01
-2.590776e-01
-3.042406e-01
-3.521463e-01
-4.026619e-01
-4.556573e-01
-5.110038e-01
-5.685741e-01
-6.282421e-01
-6.898837e-01
-7.533774e-01
-8.186050e-01
-8.854524e-01
-9.538087e-01
-1.023563e+00
-1.094599e+00
-1.166773e+00
-1.239891e+00
-1.313651e+00
-1.387576e+00
-1.460938e+00
-1.532717e+00
-1.601644e+00
-1.666367e+00
0.000000e+00
-5.972184e-03
-1.739831e-02
-3.385578e-02
-5.490831e-02
-8.015732e-02
-1.092667e-01
-1.419643e-01
-1.780305e-01
-2.172828e-01
-2.595631e-01
-3.047277e-01
-3.526413e-01
-4.031728e-01
-4.561937e-01
-5.115766e-01
-5.691945e-01
-6.289211e-01
-6.906301e-01
-7.541953e-01
-8.194902e-01
-8.863864e-01
-9.547511e-01
-1.024442e+00
-1.095299e+00
-1.167124e+00
-1.239660e+00
-1.312554e+00
-1.385315e+00
-1.457280e+00
-1.527607e+00
-1.595317e+00
-1.659376e+00
0.000000e+00
-6.274984e-03
-1.804591e-02
-3.481967e-02
-5.611320e-02
-8.151406e-02
-1.106973e-01
-1.434127e-01
-1.794622e-01
-2.186800e-01
-2.609192e-01
-3.060430e-01
-3.539203e-01
-4.044229e-01
-4.574238e-01
-5.127965e-01
-5.704141e-01
-6.301492e-01
-6.918728e-01
-7.554531e-01
-8.207543e-01
-8.876337e-01
-9.559377e-01
-1.025496e+00
-1.096110e+00
-1.167545e+00
-1.239503e+00
-1.311613e+00
-1.383403e+00
-1.454292e+00
-1.523601e+00
-1.590572e+00
-1.654413e+00
0.000000e+00
-6.828647e-03
-1.921661e-02
-3.653315e-02
-5.821533e-02
-8.384032e-02
-1.131161e-01
-1.458362e-01
-1.818391e-01
-2.209841e-01
-2.631397e-01
-3.081783e-01
-3.559739e-01
-4.064009e-01
-4.593339e-01
-5.146469e-01
-5.722128e-01
-6.319027e-01
-6.935845e-01
-7.571210e-01
-8.223676e-01
-8.891686e-01
-9.573522e-01
-1.026724e+00
-1.097060e+00
-1.168095e+00
-1.239513e+00
-1.310939e+00
-1.381935e+00
-1.452004e+00
-1.520609e+00
-1.587187e+00
-1.651159e+00
0.000000e+00
-7.721588e-03
-2.107107e-02
-3.917156e-02
-6.135407e-02
-8.722368e-02
-1.165674e-01
-1.492520e-01
-1.851638e-01
-2.241909e-01
-2.662178e-01
-3.111258e-01
-3.587933e-01
-4.090974e-01
-4.619134e-01
-5.171156e-01
-5.745764e-01
-6.341652e-01
-6.957472e-01
-7.591803e-01
-8.243126e-01
-8.909778e-01
-9.589900e-01
-1.028138e+00
-1.098177e+00
-1.168825e+00
-1.239755e+00
-1.310599e+00
-1.380954e+00
-1.450399e+00
-1.518521e+00
-1.584939e+00
-1.649297e+00
0.000000e+00
-9.126776e-03
-2.389995e-02
-4.300778e-02
-6.570825e-02
-9.174996e-02
-1.210852e-01
-1.536680e-01
-1.894331e-01
-2.282932e-01
-2.701458e-01
-3.148784e-01
-3.623727e-01
-4.125070e-01
-4.651571e-01
-5.201970e-01
-5.774985e-01
-6.369296e-01
-6.983530e-01
-7.616232e-01
-8.265827e-01
-8.930578e-01
-9.608529e-01
-1.029745e+00
-1.099478e+00
-1.169760e+00
-1.240260e+00
-1.310618e+00
-1.380459e+00
-1.449425e+00
-1.517208e+00
-1.583597e+00
-1.648486e+00
0.000000e+00
-1.140114e-02
-2.822779e-02
-4.841197e-02
-7.140822e-02
-9.745881e-02
-1.266705e-01
-1.590741e-01
-1.946352e-01
-2.332815e-01
-2.749169e-01
-3.194322e-01
-3.667103e-01
-4.166297e-01
-4.690662e-01
-5.238935e-01
-5.809822e-01
-6.401995e-01
-7.014061e-01
-7.644542e-01
-8.291828e-01
-8.954139e-01
-9.629468e-01
-1.031552e+00
-1.100970e+00
-1.170902e+00
-1.241019e+00
-1.310971e+00
-1.380404e+00
-1.448998e+00
-1.516527e+00
-1.582923e+00
-1.648344e+00
0.000000e+00
-1.552686e-02
-3.501984e-02
-5.548338e-02
-7.843999e-02
-1.043008e-01
-1.332847e-01
-1.654442e-01
-2.007551e-01
-2.391481e-01
-2.805288e-01
-3.247885e-01
-3.718102e-01
-4.214722e-01
-4.736500e-01
-5.282163e-01
-5.850413e-01
-6.439908e-01
-7.049242e-01
-7.676920e-01
-8.321316e-01
-8.980629e-01
-9.652832e-01
-1.033563e+00
-1.102639e+00
-1.172220e+00
-1.241979e+00
-1.311576e+00
-1.380674e+00
-1.448979e+00
-1.516306e+00
-1.582679e+00
-1.648464e+00
0.000000e+00
-2.499197e-02
-4.361512e-02
-6.394244e-02
-8.658449e-02
-1.121685e-01
-1.408747e-01
-1.727564e-01
-2.077863e-01
-2.458948e-01
-2.869877e-01
-3.309563e-01
-3.776839e-01
-4.270486e-01
-4.789254e-01
-5.331865e-01
-5.897008e-01
-6.483329e-01
-7.089408e-01
-7.713733e-01
-8.354663e-01
-9.010387e-01
-9.678877e-01