TITLE = "Solution"
VARIABLES = x, y, u, v, psiu, psiv, t, stress
ZONE T="structure" N=561 E=512 F=FEBLOCK ET=QUADRILATERAL VARLOCATION=([7,8]=cellcentered)
0.000000e+00
6.250000e+00
1.250000e+01
1.875000e+01
2.500000e+01
3.125000e+01
3.750000e+01
4.375000e+01
5.000000e+01
5.625000e+01
6.250000e+01
6.875000e+01
7.500000e+01
8.125000e+01
8.750000e+01
9.375000e+01
1.000000e+02
1.062500e+02
1.125000e+02
1.187500e+02
1.250000e+02
1.312500e+02
1.375000e+02
1.437500e+02
1.500000e+02
1.562500e+02
1.625000e+02
1.687500e+02
1.750000e+02
1.812500e+02
1.875000e+02
1.937500e+02
2.000000e+02
0.000000e+00
6.250000e+00
1.250000e+01
1.875000e+01
2.500000e+01
3.125000e+01
3.750000e+01
4.375000e+01
5.000000e+01
5.625000e+01
6.250000e+01
6.875000e+01
7.500000e+01
8.125000e+01
8.750000e+01
9.375000e+01
1.000000e+02
1.062500e+02
1.125000e+02
1.187500e+02
1.250000e+02
1.312500e+02
1.375000e+02
1.437500e+02
1.500000e+02
1.562500e+02
1.625000e+02
1.687500e+02
1.750000e+02
1.812500e+02
1.875000e+02
1.937500e+02
2.000000e+02
0.000000e+00
6.250000e+00
1.250000e+01
1.875000e+01
2.500000e+01
3.125000e+01
3.750000e+01
4.375000e+01
5.000000e+01
5.625000e+01
6.250000e+01
6.875000e+01
7.500000e+01
8.125000e+01
8.750000e+01
9.375000e+01
1.000000e+02
1.062500e+02
1.125000e+02
1.187500e+02
1.250000e+02
1.312500e+02
1.375000e+02
1.437500e+02
1.500000e+02
1.562500e+02
1.625000e+02
1.687500e+02
1.750000e+02
1.812500e+02
1.875000e+02
1.937500e+02
2.000000e+02
0.000000e+00
6.250000e+00
1.250000e+01
1.875000e+01
2.500000e+01
3.125000e+01
3.750000e+01
4.375000e+01
5.000000e+01
5.625000e+01
6.250000e+01
6.875000e+01
7.500000e+01
8.125000e+01
8.750000e+01
9.375000e+01
1.000000e+02
1.062500e+02
1.125000e+02
1.187500e+02
1.250000e+02
1.312500e+02
1.375000e+02
1.437500e+02
1.500000e+02
1.562500e+02
1.625000e+02
1.687500e+02
1.750000e+02
1.812500e+02
1.875000e+02
1.937500e+02
2.000000e+02
0.000000e+00
6.250000e+00
1.250000e+01
1.875000e+01
2.500000e+01
3.125000e+01
3.750000e+01
4.375000e+01
5.000000e+01
5.625000e+01
6.250000e+01
6.875000e+01
7.500000e+01
8.125000e+01
8.750000e+01
9.375000e+01
1.000000e+02
1.062500e+02
1.125000e+02
1.187500e+02
1.250000e+02
1.312500e+02
1.375000e+02
1.437500e+02
1.500000e+02
1.562500e+02
1.625000e+02
1.687500e+02
1.750000e+02
1.812500e+02
1.875000e+02
1.937500e+02
2.000000e+02
0.000000e+00
6.250000e+00
1.250000e+01
1.875000e+01
2.500000e+01
3.125000e+01
3.750000e+01
4.375000e+01
5.000000e+01
5.625000e+01
6.250000e+01
6.875000e+01
7.500000e+01
8.125000e+01
8.750000e+01
9.375000e+01
1.000000e+02
1.062500e+02
1.125000e+02
1.187500e+02
1.250000e+02
1.312500e+02
1.375000e+02
1.437500e+02
1.500000e+02
1.562500e+02
1.625000e+02
1.687500e+02
1.750000e+02
1.812500e+02
1.875000e+02
1.937500e+02
2.000000e+02
0.000000e+00
6.250000e+00
1.250000e+01
1.875000e+01
2.500000e+01
3.125000e+01
3.750000e+01
4.375000e+01
5.000000e+01
5.625000e+01
6.250000e+01
6.875000e+01
7.500000e+01
8.125000e+01
8.750000e+01
9.375000e+01
1.000000e+02
1.062500e+02
1.125000e+02
1.187500e+02
1.250000e+02
1.312500e+02
1.375000e+02
1.437500e+02
1.500000e+02
1.562500e+02
1.625000e+02
1.687500e+02
1.750000e+02
1.812500e+02
1.875000e+02
1.937500e+02
2.000000e+02
0.000000e+00
6.250000e+00
1.250000e+01
1.875000e+01
2.500000e+01
3.125000e+01
3.750000e+01
4.375000e+01
5.000000e+01
5.625000e+01
6.250000e+01
6.875000e+01
7.500000e+01
8.125000e+01
8.750000e+01
9.375000e+01
1.000000e+02
1.062500e+02
1.125000e+02
1.187500e+02
1.250000e+02
1.312500e+02
1.375000e+02
1.437500e+02
1.500000e+02
1.562500e+02
1.625000e+02
1.687500e+02
1.750000e+02
1.812500e+02
1.875000e+02
1.937500e+02
2.000000e+02
0.000000e+00
6.250000e+00
1.250000e+01
1.875000e+01
2.500000e+01
3.125000e+01
3.750000e+01
4.375000e+01
5.000000e+01
5.625000e+01
6.250000e+01
6.875000e+01
7.500000e+01
8.125000e+01
8.750000e+01
9.375000e+01
1.000000e+02
1.062500e+02
1.125000e+02
1.187500e+02
1.250000e+02
1.312500e+02
1.375000e+02
1.437500e+02
1.500000e+02
1.562500e+02
1.625000e+02
1.687500e+02
1.750000e+02
1.812500e+02
1.875000e+02
1.937500e+02
2.000000e+02
0.000000e+00
6.250000e+00
1.250000e+01
1.875000e+01
2.500000e+01
3.125000e+01
3.750000e+01
4.375000e+01
5.000000e+01
5.625000e+01
6.250000e+01
6.875000e+01
7.500000e+01
8.125000e+01
8.750000e+01
9.375000e+01
1.000000e+02
1.062500e+02
1.125000e+02
1.187500e+02
1.250000e+02
1.312500e+02
1.375000e+02
1.437500e+02
1.500000e+02
1.562500e+02
1.625000e+02
1.687500e+02
1.750000e+02
1.812500e+02
1.875000e+02
1.937500e+02
2.000000e+02
0.000000e+00
6.250000e+00
1.250000e+01
1.875000e+01
2.500000e+01
3.125000e+01
3.750000e+01
4.375000e+01
5.000000e+01
5.625000e+01
6.250000e+01
6.875000e+01
7.500000e+01
8.125000e+01
8.750000e+01
9.375000e+01
1.000000e+02
1.062500e+02
1.125000e+02
1.187500e+02
1.250000e+02
1.312500e+02
1.375000e+02
1.437500e+02
1.500000e+02
1.562500e+02
1.625000e+02
1.687500e+02
1.750000e+02
1.812500e+02
1.875000e+02
1.937500e+02
2.000000e+02
0.000000e+00
6.250000e+00
1.250000e+01
1.875000e+01
2.500000e+01
3.125000e+01
3.750000e+01
4.375000e+01
5.000000e+01
5.625000e+01
6.250000e+01
6.875000e+01
7.500000e+01
8.125000e+01
8.750000e+01
9.375000e+01
1.000000e+02
1.062500e+02
1.125000e+02
1.187500e+02
1.250000e+02
1.312500e+02
1.375000e+02
1.437500e+02
1.500000e+02
1.562500e+02
1.625000e+02
1.687500e+02
1.750000e+02
1.812500e+02
1.875000e+02
1.937500e+02
2.000000e+02
0.000000e+00
6.250000e+00
1.250000e+01
1.875000e+01
2.500000e+01
3.125000e+01
3.750000e+01
4.375000e+01
5.000000e+01
5.625000e+01
6.250000e+01
6.875000e+01
7.500000e+01
8.125000e+01
8.750000e+01
9.375000e+01
1.000000e+02
1.062500e+02
1.125000e+02
1.187500e+02
1.250000e+02
1.312500e+02
1.375000e+02
1.437500e+02
1.500000e+02
1.562500e+02
1.625000e+02
1.687500e+02
1.750000e+02
1.812500e+02
1.875000e+02
1.937500e+02
2.000000e+02
0.000000e+00
6.250000e+00
1.250000e+01
1.875000e+01
2.500000e+01
3.125000e+01
3.750000e+01
4.375000e+01
5.000000e+01
5.625000e+01
6.250000e+01
6.875000e+01
7.500000e+01
8.125000e+01
8.750000e+01
9.375000e+01
1.000000e+02
1.062500e+02
1.125000e+02
1.187500e+02
1.250000e+02
1.312500e+02
1.375000e+02
1.437500e+02
1.500000e+02
1.562500e+02
1.625000e+02
1.687500e+02
1.750000e+02
1.812500e+02
1.875000e+02
1.937500e+02
2.000000e+02
0.000000e+00
6.250000e+00
1.250000e+01
1.875000e+01
2.500000e+01
3.125000e+01
3.750000e+01
4.375000e+01
5.000000e+01
5.625000e+01
6.250000e+01
6.875000e+01
7.500000e+01
8.125000e+01
8.750000e+01
9.375000e+01
1.000000e+02
1.062500e+02
1.125000e+02
1.187500e+02
1.250000e+02
1.312500e+02
1.375000e+02
1.437500e+02
1.500000e+02
1.562500e+02
1.625000e+02
1.687500e+02
1.750000e+02
1.812500e+02
1.875000e+02
1.937500e+02
2.000000e+02
0.000000e+00
6.250000e+00
1.250000e+01
1.875000e+01
2.500000e+01
3.125000e+01
3.750000e+01
4.375000e+01
5.000000e+01
5.625000e+01
6.250000e+01
6.875000e+01
7.500000e+01
8.125000e+01
8.750000e+01
9.375000e+01
1.000000e+02
1.062500e+02
1.125000e+02
1.187500e+02
1.250000e+02
1.312500e+02
1.375000e+02
1.437500e+02
1.500000e+02
1.562500e+02
1.625000e+02
1.687500e+02
1.750000e+02
1.812500e+02
1.875000e+02
1.937500e+02
2.000000e+02
0.000000e+00
6.250000e+00
1.250000e+01
1.875000e+01
2.500000e+01
3.125000e+01
3.750000e+01
4.375000e+01
5.000000e+01
5.625000e+01
6.250000e+01
6.875000e+01
7.500000e+01
8.125000e+01
8.750000e+01
9.375000e+01
1.000000e+02
1.062500e+02
1.125000e+02
1.187500e+02
1.250000e+02
1.312500e+02
1.375000e+02
1.437500e+02
1.500000e+02
1.562500e+02
1.625000e+02
1.687500e+02
1.750000e+02
1.812500e+02
1.875000e+02
1.937500e+02
2.000000e+02
0.000000e+00
0.000000e+00
0.000000e+00
0.000000e+00
0.000000e+00
0.000000e+00
0.000000e+00
0.000000e+00
0.000000e+00
0.000000e+00
0.000000e+00
0.000000e+00
0.000000e+00
0.000000e+00
0.000000e+00
0.000000e+00
0.000000e+00
0.000000e+00
0.000000e+00
0.000000e+00
0.000000e+00
0.000000e+00
0.000000e+00
0.000000e+00
0.000000e+00
0.000000e+00
0.000000e+00
0.000000e+00
0.000000e+00
0.000000e+00
0.000000e+00
0.000000e+00
0.000000e+00
6.250000e+00
6.250000e+00
6.250000e+00
6.250000e+00
6.250000e+00
6.250000e+00
6.250000e+00
6.250000e+00
6.250000e+00
6.250000e+00
6.250000e+00
6.250000e+00
6.250000e+00
6.250000e+00
6.250000e+00
6.250000e+00
6.250000e+00
6.250000e+00
6.250000e+00
6.250000e+00
6.250000e+00
6.250000e+00
6.250000e+00
6.250000e+00
6.250000e+00
6.250000e+00
6.250000e+00
6.250000e+00
6.250000e+00
6.250000e+00
6.250000e+00
6.250000e+00
6.250000e+00
1.250000e+01
1.250000e+01
1.250000e+01
1.250000e+01
1.250000e+01
1.250000e+01
1.250000e+01
1.250000e+01
1.250000e+01
1.250000e+01
1.250000e+01
1.250000e+01
1.250000e+01
1.250000e+01
1.250000e+01
1.250000e+01
1.250000e+01
1.250000e+01
1.250000e+01
1.250000e+01
1.250000e+01
1.250000e+01
1.250000e+01
1.250000e+01
1.250000e+01
1.250000e+01
1.250000e+01
1.250000e+01
1.250000e+01
1.250000e+01
1.250000e+01
1.250000e+01
1.250000e+01
1.875000e+01
1.875000e+01
1.875000e+01
1.875000e+01
1.875000e+01
1.875000e+01
1.875000e+01
1.875000e+01
1.875000e+01
1.875000e+01
1.875000e+01
1.875000e+01
1.875000e+01
1.875000e+01
1.875000e+01
1.875000e+01
1.875000e+01
1.875000e+01
1.875000e+01
1.875000e+01
1.875000e+01
1.875000e+01
1.875000e+01
1.875000e+01
1.875000e+01
1.875000e+01
1.875000e+01
1.875000e+01
1.875000e+01
1.875000e+01
1.875000e+01
1.875000e+01
1.875000e+01
2.500000e+01
2.500000e+01
2.500000e+01
2.500000e+01
2.500000e+01
2.500000e+01
2.500000e+01
2.500000e+01
2.500000e+01
2.500000e+01
2.500000e+01
2.500000e+01
2.500000e+01
2.500000e+01
2.500000e+01
2.500000e+01
2.500000e+01
2.500000e+01
2.500000e+01
2.500000e+01
2.500000e+01
2.500000e+01
2.500000e+01
2.500000e+01
2.500000e+01
2.500000e+01
2.500000e+01
2.500000e+01
2.500000e+01
2.500000e+01
2.500000e+01
2.500000e+01
2.500000e+01
3.125000e+01
3.125000e+01
3.125000e+01
3.125000e+01
3.125000e+01
3.125000e+01
3.125000e+01
3.125000e+01
3.125000e+01
3.125000e+01
3.125000e+01
3.125000e+01
3.125000e+01
3.125000e+01
3.125000e+01
3.125000e+01
3.125000e+01
3.125000e+01
3.125000e+01
3.125000e+01
3.125000e+01
3.125000e+01
3.125000e+01
3.125000e+01
3.125000e+01
3.125000e+01
3.125000e+01
3.125000e+01
3.125000e+01
3.125000e+01
3.125000e+01
3.125000e+01
3.125000e+01
3.750000e+01
3.750000e+01
3.750000e+01
3.750000e+01
3.750000e+01
3.750000e+01
3.750000e+01
3.750000e+01
3.750000e+01
3.750000e+01
3.750000e+01
3.750000e+01
3.750000e+01
3.750000e+01
3.750000e+01
3.750000e+01
3.750000e+01
3.750000e+01
3.750000e+01
3.750000e+01
3.750000e+01
3.750000e+01
3.750000e+01
3.750000e+01
3.750000e+01
3.750000e+01
3.750000e+01
3.750000e+01
3.750000e+01
3.750000e+01
3.750000e+01
3.750000e+01
3.750000e+01
4.375000e+01
4.375000e+01
4.375000e+01
4.375000e+01
4.375000e+01
4.375000e+01
4.375000e+01
4.375000e+01
4.375000e+01
4.375000e+01
4.375000e+01
4.375000e+01
4.375000e+01
4.375000e+01
4.375000e+01
4.375000e+01
4.375000e+01
4.375000e+01
4.375000e+01
4.375000e+01
4.375000e+01
4.375000e+01
4.375000e+01
4.375000e+01
4.375000e+01
4.375000e+01
4.375000e+01
4.375000e+01
4.375000e+01
4.375000e+01
4.375000e+01
4.375000e+01
4.375000e+01
5.000000e+01
5.000000e+01
5.000000e+01
5.000000e+01
5.000000e+01
5.000000e+01
5.000000e+01
5.000000e+01
5.000000e+01
5.000000e+01
5.000000e+01
5.000000e+01
5.000000e+01
5.000000e+01
5.000000e+01
5.000000e+01
5.000000e+01
5.000000e+01
5.000000e+01
5.000000e+01
5.000000e+01
5.000000e+01
5.000000e+01
5.000000e+01
5.000000e+01
5.000000e+01
5.000000e+01
5.000000e+01
5.000000e+01
5.000000e+01
5.000000e+01
5.000000e+01
5.000000e+01
5.625000e+01
5.625000e+01
5.625000e+01
5.625000e+01
5.625000e+01
5.625000e+01
5.625000e+01
5.625000e+01
5.625000e+01
5.625000e+01
5.625000e+01
5.625000e+01
5.625000e+01
5.625000e+01
5.625000e+01
5.625000e+01
5.625000e+01
5.625000e+01
5.625000e+01
5.625000e+01
5.625000e+01
5.625000e+01
5.625000e+01
5.625000e+01
5.625000e+01
5.625000e+01
5.625000e+01
5.625000e+01
5.625000e+01
5.625000e+01
5.625000e+01
5.625000e+01
5.625000e+01
6.250000e+01
6.250000e+01
6.250000e+01
6.250000e+01
6.250000e+01
6.250000e+01
6.250000e+01
6.250000e+01
6.250000e+01
6.250000e+01
6.250000e+01
6.250000e+01
6.250000e+01
6.250000e+01
6.250000e+01
6.250000e+01
6.250000e+01
6.250000e+01
6.250000e+01
6.250000e+01
6.250000e+01
6.250000e+01
6.250000e+01
6.250000e+01
6.250000e+01
6.250000e+01
6.250000e+01
6.250000e+01
6.250000e+01
6.250000e+01
6.250000e+01
6.250000e+01
6.250000e+01
6.875000e+01
6.875000e+01
6.875000e+01
6.875000e+01
6.875000e+01
6.875000e+01
6.875000e+01
6.875000e+01
6.875000e+01
6.875000e+01
6.875000e+01
6.875000e+01
6.875000e+01
6.875000e+01
6.875000e+01
6.875000e+01
6.875000e+01
6.875000e+01
6.875000e+01
6.875000e+01
6.875000e+01
6.875000e+01
6.875000e+01
6.875000e+01
6.875000e+01
6.875000e+01
6.875000e+01
6.875000e+01
6.875000e+01
6.875000e+01
6.875000e+01
6.875000e+01
6.875000e+01
7.500000e+01
7.500000e+01
7.500000e+01
7.500000e+01
7.500000e+01
7.500000e+01
7.500000e+01
7.500000e+01
7.500000e+01
7.500000e+01
7.500000e+01
7.500000e+01
7.500000e+01
7.500000e+01
7.500000e+01
7.500000e+01
7.500000e+01
7.500000e+01
7.500000e+01
7.500000e+01
7.500000e+01
7.500000e+01
7.500000e+01
7.500000e+01
7.500000e+01
7.500000e+01
7.500000e+01
7.500000e+01
7.500000e+01
7.500000e+01
7.500000e+01
7.500000e+01
7.500000e+01
8.125000e+01
8.125000e+01
8.125000e+01
8.125000e+01
8.125000e+01
8.125000e+01
8.125000e+01
8.125000e+01
8.125000e+01
8.125000e+01
8.125000e+01
8.125000e+01
8.125000e+01
8.125000e+01
8.125000e+01
8.125000e+01
8.125000e+01
8.125000e+01
8.125000e+01
8.125000e+01
8.125000e+01
8.125000e+01
8.125000e+01
8.125000e+01
8.125000e+01
8.125000e+01
8.125000e+01
8.125000e+01
8.125000e+01
8.125000e+01
8.125000e+01
8.125000e+01
8.125000e+01
8.750000e+01
8.750000e+01
8.750000e+01
8.750000e+01
8.750000e+01
8.750000e+01
8.750000e+01
8.750000e+01
8.750000e+01
8.750000e+01
8.750000e+01
8.750000e+01
8.750000e+01
8.750000e+01
8.750000e+01
8.750000e+01
8.750000e+01
8.750000e+01
8.750000e+01
8.750000e+01
8.750000e+01
8.750000e+01
8.750000e+01
8.750000e+01
8.750000e+01
8.750000e+01
8.750000e+01
8.750000e+01
8.750000e+01
8.750000e+01
8.750000e+01
8.750000e+01
8.750000e+01
9.375000e+01
9.375000e+01
9.375000e+01
9.375000e+01
9.375000e+01
9.375000e+01
9.375000e+01
9.375000e+01
9.375000e+01
9.375000e+01
9.375000e+01
9.375000e+01
9.375000e+01
9.375000e+01
9.375000e+01
9.375000e+01
9.375000e+01
9.375000e+01
9.375000e+01
9.375000e+01
9.375000e+01
9.375000e+01
9.375000e+01
9.375000e+01
9.375000e+01
9.375000e+01
9.375000e+01
9.375000e+01
9.375000e+01
9.375000e+01
9.375000e+01
9.375000e+01
9.375000e+01
1.000000e+02
1.000000e+02
1.000000e+02
1.000000e+02
1.000000e+02
1.000000e+02
1.000000e+02
1.000000e+02
1.000000e+02
1.000000e+02
1.000000e+02
1.000000e+02
1.000000e+02
1.000000e+02
1.000000e+02
1.000000e+02
1.000000e+02
1.000000e+02
1.000000e+02
1.000000e+02
1.000000e+02
1.000000e+02
1.000000e+02
1.000000e+02
1.000000e+02
1.000000e+02
1.000000e+02
1.000000e+02
1.000000e+02
1.000000e+02
1.000000e+02
1.000000e+02
1.000000e+02
0.000000e+00
-1.823199e-01
-3.307612e-01
-4.683389e-01
-6.005125e-01
-7.282578e-01
-8.518001e-01
-9.711093e-01
-1.086097e+00
-1.196669e+00
-1.302746e+00
-1.404273e+00
-1.501216e+00
-1.593569e+00
-1.681346e+00
-1.764589e+00
-1.843369e+00
-1.917789e+00
-1.987996e+00
-2.054192e+00
-2.116642e+00
-2.175701e+00
-2.231839e+00
-2.285678e+00
-2.338053e+00
-2.390099e+00
-2.443393e+00
-2.500179e+00
-2.563755e+00
-2.638962e+00
-2.732064e+00
-2.842931e+00
-2.910565e+00
0.000000e+00
-1.221918e-01
-2.542148e-01
-3.787570e-01
-4.972634e-01
-6.108312e-01
-7.200262e-01
-8.250914e-01
-9.261178e-01
-1.023129e+00
-1.116122e+00
-1.205090e+00
-1.290030e+00
-1.370950e+00
-1.447871e+00
-1.520833e+00
-1.589894e+00
-1.655135e+00
-1.716668e+00
-1.774637e+00
-1.829228e+00
-1.880675e+00
-1.929272e+00
-1.975375e+00
-2.019412e+00
-2.061875e+00
-2.103284e+00
-2.144066e+00
-2.184219e+00
-2.222432e+00
-2.254258e+00
-2.272852e+00
-2.298727e+00
0.000000e+00
-9.689459e-02
-1.994825e-01
-3.039939e-01
-4.056513e-01
-5.036531e-01
-5.979147e-01
-6.885090e-01
-7.755032e-01
-8.589420e-01
-9.388523e-01
-1.015252e+00
-1.088155e+00
-1.157579e+00
-1.223545e+00
-1.286080e+00
-1.345223e+00
-1.401021e+00
-1.453535e+00
-1.502838e+00
-1.549016e+00
-1.592160e+00
-1.632362e+00
-1.669692e+00
-1.704165e+00
-1.735670e+00
-1.763847e+00
-1.787869e+00
-1.806113e+00
-1.815945e+00
-1.815104e+00
-1.809615e+00
-1.839825e+00
0.000000e+00
-7.687780e-02
-1.580077e-01
-2.414053e-01
-3.246807e-01
-4.060066e-01
-4.846768e-01
-5.604308e-01
-6.331905e-01
-7.029439e-01
-7.697012e-01
-8.334782e-01
-8.942907e-01
-9.521533e-01
-1.007079e+00
-1.059080e+00
-1.108168e+00
-1.154353e+00
-1.197643e+00
-1.238039e+00
-1.275530e+00
-1.310079e+00
-1.341611e+00
-1.369977e+00
-1.394916e+00
-1.415989e+00
-1.432498e+00
-1.443436e+00
-1.447623e+00
-1.444541e+00
-1.437035e+00
-1.436592e+00
-1.465381e+00
0.000000e+00
-5.968067e-02
-1.222106e-01
-1.867680e-01
-2.518954e-01
-3.162713e-01
-3.790048e-01
-4.396404e-01
-4.979665e-01
-5.538971e-01
-6.074050e-01
-6.584877e-01
-7.071497e-01
-7.533955e-01
-7.972246e-01
-8.386303e-01
-8.775976e-01
-9.141010e-01
-9.481013e-01
-9.795402e-01
-1.008332e+00
-1.034354e+00
-1.057427e+00
-1.077297e+00
-1.093613e+00
-1.105914e+00
-1.113659e+00
-1.116381e+00
-1.114163e+00
-1.108721e+00
-1.105188e+00
-1.113339e+00
-1.137912e+00
0.000000e+00
-4.387144e-02
-8.962692e-02
-1.368698e-01
-1.847939e-01
-2.325083e-01
-2.793033e-01
-3.247144e-01
-3.684840e-01
-4.104835e-01
-4.506560e-01
-4.889788e-01
-5.254417e-01
-5.600349e-01
-5.927429e-01
-6.235400e-01
-6.523879e-01
-6.792325e-01
-7.039998e-01
-7.265922e-01
-7.468815e-01
-7.647026e-01
-7.798471e-01
-7.920605e-01
-8.010529e-01
-8.065420e-01
-8.083661e-01
-8.067371e-01
-8.027140e-01
-7.988825e-01
-7.998086e-01
-8.102032e-01
-8.305484e-01
0.000000e+00
-2.887750e-02
-5.890068e-02
-8.988606e-02
-1.213971e-01
-1.529065e-01
-1.839406e-01
-2.141524e-01
-2.433229e-01
-2.713295e-01
-2.981084e-01
-3.236264e-01
-3.478614e-01
-3.707908e-01
-3.923854e-01
-4.126039e-01
-4.313906e-01
-4.486722e-01
-4.643553e-01
-4.783235e-01
-4.904360e-01
-5.005281e-01
-5.084162e-01
-5.139140e-01
-5.168690e-01
-5.172373e-01
-5.152196e-01
-5.114832e-01
-5.074490e-01
-5.054894e-01
-5.085321e-01
-5.186568e-01
-5.350872e-01
0.000000e+00
-1.434504e-02
-2.923432e-02
-4.459390e-02
-6.023203e-02
-7.590330e-02
-9.137396e-02
-1.064603e-01
-1.210372e-01
-1.350276e-01
-1.483850e-01
-1.610781e-01
-1.730795e-01
-1.843585e-01
-1.948756e-01
-2.045794e-01
-2.134041e-01
-2.212679e-01
-2.280712e-01
-2.336979e-01
-2.380177e-01
-2.408934e-01
-2.421965e-01
-2.418347e-01
-2.398007e-01
-2.362493e-01
-2.316100e-01
-2.267203e-01
-2.229223e-01
-2.219668e-01
-2.255398e-01
-2.343751e-01
-2.474155e-01
0.000000e+00
-2.353553e-05
-5.098204e-05
-8.082858e-05
-1.115132e-04
-1.409324e-04
-1.659187e-04
-1.816606e-04
-1.810236e-04
-1.537345e-04
-8.539633e-05
4.368399e-05
2.598519e-04
5.976169e-04
1.101247e-03
1.826307e-03
2.840903e-03
4.226249e-03
6.075944e-03
8.493034e-03
1.158347e-02
1.544398e-02
2.014159e-02
2.568150e-02
3.196007e-02
3.870253e-02
4.539298e-02
5.122317e-02
5.511686e-02
5.590953e-02
5.273589e-02
4.554328e-02
3.546772e-02
0.000000e+00
1.430068e-02
2.913804e-02
4.444095e-02
6.002053e-02
7.563525e-02
9.105723e-02
1.061117e-01
1.206869e-01
1.347250e-01
1.482063e-01
1.611367e-01
1.735383e-01
1.854452e-01
1.969015e-01
2.079610e-01
2.186869e-01
2.291516e-01
2.394345e-01
2.496175e-01
2.597764e-01
2.699670e-01
2.802037e-01
2.904297e-01
3.004787e-01
3.100338e-01
3.185948e-01
3.254815e-01
3.299076e-01
3.311625e-01
3.288961e-01
3.234316e-01
3.159531e-01
0.000000e+00
2.884116e-02
5.882126e-02
8.975905e-02
1.212201e-01
1.526802e-01
1.836701e-01
2.138500e-01
2.430114e-01
2.710472e-01
2.979155e-01
3.236128e-01
3.481574e-01
3.715804e-01
3.939209e-01
4.152252e-01
4.355454e-01
4.549385e-01
4.734638e-01
4.911780e-01
5.081268e-01
5.243309e-01
5.397683e-01
5.543496e-01
5.678914e-01
5.800935e-01
5.905313e-01
5.986844e-01
6.040214e-01
6.061562e-01
6.050603e-01
6.012789e-01
5.960592e-01
0.000000e+00
4.384805e-02
8.957492e-02
1.367853e-01
1.846741e-01
2.323521e-01
2.791123e-01
3.244947e-01
3.682481e-01
4.102538e-01
4.504686e-01
4.888892e-01
5.255315e-01
5.604210e-01
5.935878e-01
6.250652e-01
6.548882e-01
6.830934e-01
7.097159e-01
7.347851e-01
7.583180e-01
7.803086e-01
8.007137e-01
8.194369e-01
8.363123e-01
8.510947e-01
8.634654e-01
8.730669e-01
8.795785e-01
8.828417e-01
8.830257e-01
8.808074e-01
8.775086e-01
0.000000e+00
5.967444e-02
1.221953e-01
1.867408e-01
2.518539e-01
3.162131e-01
3.789286e-01
4.395462e-01
4.978561e-01
5.537753e-01
6.072811e-01
6.583770e-01
7.070768e-01
7.533969e-01
7.973535e-01
8.389616e-01
8.782347e-01
9.151839e-01
9.498162e-01
9.821323e-01
1.012121e+00
1.039755e+00
1.064980e+00
1.087707e+00
1.107810e+00
1.125120e+00
1.139437e+00
1.150564e+00
1.158363e+00
1.162843e+00
1.164297e+00
1.163464e+00
1.161726e+00
0.000000e+00
7.689163e-02
1.580357e-01
2.414470e-01
3.247347e-01
4.060715e-01
4.847502e-01
5.605089e-01
6.332671e-01
7.030092e-01
7.697401e-01
8.334685e-01
8.942009e-01
9.519392e-01
1.006681e+00
1.058417e+00
1.107137e+00
1.152821e+00
1.195445e+00
1.234978e+00
1.271377e+00
1.304593e+00
1.334560e+00
1.361202e+00
1.384435e+00
1.404170e+00
1.420335e+00
1.432891e+00
1.441877e+00
1.447462e+00
1.450031e+00
1.450338e+00
1.449761e+00
0.000000e+00
9.692916e-02
1.995562e-01
3.041093e-01
4.058106e-01
5.038583e-01
5.981662e-01
6.888039e-01
7.758331e-01
8.592897e-01
9.391876e-01
1.015526e+00
1.088293e+00
1.157471e+00
1.223032e+00
1.284943e+00
1.343164e+00
1.397643e+00
1.448320e+00
1.495127e+00
1.537986e+00
1.576811e+00
1.611517e+00
1.642027e+00
1.668281e+00
1.690260e+00
1.708003e+00
1.721634e+00
1.731391e+00
1.737639e+00
1.740910e+00
1.741975e+00
1.742102e+00
0.000000e+00
1.222439e-01
2.543286e-01
3.789401e-01
4.975249e-01
6.111801e-01
7.204704e-01
8.256352e-01
9.267590e-01
1.023854e+00
1.116902e+00
1.205868e+00
1.290713e+00
1.371392e+00
1.447853e+00
1.520039e+00
1.587878e+00
1.651289e+00
1.710174e+00
1.764418e+00
1.813896e+00
1.858474e+00
1.898017e+00
1.932413e+00
1.961589e+00
1.985547e+00
2.004400e+00
2.018412e+00
2.028037e+00
2.033936e+00
2.036949e+00
2.038042e+00
2.038309e+00
0.000000e+00
1.823770e-01
3.308945e-01
4.685675e-01
6.008548e-01
7.287328e-01
8.524273e-01
9.719073e-01
1.087080e+00
1.197843e+00
1.304102e+00
1.405775e+00
1.502788e+00
1.595073e+00
1.682560e+00
1.765172e+00
1.842814e+00
1.915377e+00
1.982724e+00
2.044693e+00
2.101097e+00
2.151724e+00
2.196359e+00
2.234794e+00
2.266871e+00
2.292524e+00
2.311844e+00
2.325154e+00
2.333088e+00
2.336662e+00
2.337312e+00
2.336774e+00
2.336471e+00
0.000000e+00
-1.126772e-01
-1.967313e-01
-2.885313e-01
-3.907910e-01
-5.063090e-01
-6.358890e-01
-7.797624e-01
-9.377917e-01
-1.109644e+00
-1.294867e+00
-1.492942e+00
-1.703307e+00
-1.925375e+00
-2.158546e+00
-2.402218e+00
-2.655789e+00
-2.918668e+00
-3.190283e+00
-3.470098e+00
-3.757623e+00
-4.052449e+00
-4.354282e+00
-4.663005e+00
-4.978774e+00
-5.302172e+00
-5.634489e+00
-5.978235e+00
-6.338211e+00
-6.723918e+00
-7.155855e+00
-7.682376e+00
-8.409738e+00
0.000000e+00
-7.003162e-02
-1.580118e-01
-2.503991e-01
-3.540450e-01
-4.707885e-01
-6.016056e-01
-7.467209e-01
-9.060083e-01
-1.079134e+00
-1.265643e+00
-1.465012e+00
-1.676674e+00
-1.900036e+00
-2.134494e+00
-2.379437e+00
-2.634258e+00
-2.898355e+00
-3.171147e+00
-3.452082e+00
-3.740654e+00
-4.036433e+00
-4.339097e+00
-4.648496e+00
-4.964744e+00
-5.288370e+00
-5.620598e+00
-5.963859e+00
-6.322855e+00
-6.706932e+00
-7.135549e+00
-7.650360e+00
-8.329882e+00
0.000000e+00
-5.145131e-02
-1.274137e-01
-2.185240e-01
-3.223225e-01
-4.399000e-01
-5.717286e-01
-7.179332e-01
-8.783418e-01
-1.052604e+00
-1.240257e+00
-1.440772e+00
-1.653579e+00
-1.878084e+00
-2.113680e+00
-2.359754e+00
-2.615694e+00
-2.880896e+00
-3.154775e+00
-3.436772e+00
-3.726380e+00
-4.023162e+00
-4.326798e+00
-4.637142e+00
-4.954319e+00
-5.278891e+00
-5.612132e+00
-5.956538e+00
-6.316756e+00
-6.701204e+00
-7.124257e+00
-7.602859e+00
-8.133709e+00
0.000000e+00
-4.122007e-02
-1.079206e-01
-1.941652e-01
-2.966131e-01
-4.141341e-01
-5.465078e-01
-6.935155e-01
-8.548446e-01
-1.030079e+00
-1.218727e+00
-1.420245e+00
-1.634059e+00
-1.859572e+00
-2.096179e+00
-2.343267e+00
-2.600226e+00
-2.866456e+00
-3.141372e+00
-3.424423e+00
-3.715105e+00
-4.012994e+00
-4.317785e+00
-4.629355e+00
-4.947859e+00
-5.273888e+00
-5.608702e+00
-5.954602e+00
-6.315392e+00
-6.696623e+00
-7.103594e+00
-7.532802e+00
-7.932314e+00
0.000000e+00
-3.490368e-02
-9.518124e-02
-1.768758e-01
-2.769789e-01
-3.937156e-01
-5.261239e-01
-6.735951e-01
-8.356015e-01
-1.011617e+00
-1.201096e+00
-1.403468e+00
-1.618149e+00
-1.844541e+00
-2.082038e+00
-2.330034e+00
-2.587924e+00
-2.855114e+00
-3.131028e+00
-3.415123e+00
-3.706907e+00
-4.005969e+00
-4.312016e+00
-4.624933e+00
-4.944865e+00
-5.272328e+00
-5.608352e+00
-5.954592e+00
-6.313238e+00
-6.686053e+00
-7.071248e+00
-7.454645e+00
-7.802544e+00
0.000000e+00
-3.088494e-02
-8.682555e-02
-1.649829e-01
-2.628284e-01
-3.784630e-01
-5.105725e-01
-6.582212e-01
-8.206711e-01
-9.972715e-01
-1.187407e+00
-1.390476e+00
-1.605878e+00
-1.833012e+00
-2.071277e+00
-2.320070e+00
-2.578796e+00
-2.846868e+00
-3.123720e+00
-3.408817e+00
-3.701675e+00
-4.001885e+00
-4.309144e+00
-4.623304e+00
-4.944420e+00
-5.272802e+00
-5.609028e+00
-5.953828e+00
-6.307603e+00
-6.669160e+00
-7.032975e+00
-7.386017e+00
-7.708629e+00
0.000000e+00
-2.838647e-02
-8.154307e-02
-1.572541e-01
-2.533516e-01
-3.679853e-01
-4.996956e-01
-6.473550e-01
-8.100655e-01
-9.870698e-01
-1.177690e+00
-1.381291e+00
-1.597259e+00
-1.824990e+00
-2.063885e+00
-2.313351e+00
-2.572797e+00
-2.841647e+00
-3.119341e+00
-3.405347e+00
-3.699176e+00
-4.000403e+00
-4.308685e+00
-4.623788e+00
-4.945605e+00
-5.274140e+00
-5.609423e+00
-5.951262e+00
-6.298670e+00
-6.648814e+00
-6.995623e+00
-7.329068e+00
-7.636866e+00
0.000000e+00
-2.701310e-02
-7.861184e-02
-1.528991e-01
-2.479185e-01
-3.618837e-01
-4.932883e-01
-6.409108e-01
-8.037617e-01
-9.810159e-01
-1.171954e+00
-1.375918e+00
-1.592285e+00
-1.820453e+00
-2.059827e+00
-2.309818e+00
-2.569846e+00
-2.839336e+00
-3.117732e+00
-3.404496e+00
-3.699122e+00
-4.001146e+00
-4.310156e+00
-4.625794e+00
-4.947743e+00
-5.275671e+00
-5.609093e+00
-5.947101e+00
-6.287885e+00
-6.628088e+00
-6.962229e+00
-7.282769e+00
-7.581321e+00
0.000000e+00
-2.657051e-02
-7.766609e-02
-1.514877e-01
-2.461479e-01
-3.598870e-01
-4.911898e-01
-6.388087e-01
-8.017269e-01
-9.790984e-01
-1.170192e+00
-1.374345e+00
-1.590937e+00
-1.819367e+00
-2.059047e+00
-2.309395e+00
-2.569834e+00
-2.839793e+00
-3.118710e+00
-3.406033e+00
-3.701227e+00
-4.003772e+00
-4.313166e+00
-4.628907e+00
-4.950460e+00
-5.277185e+00
-5.608190e+00
-5.942112e+00
-6.276786e+00
-6.608909e+00
-6.933843e+00
-7.245837e+00
-7.538745e+00
0.000000e+00
-2.700020e-02
-7.859395e-02
-1.528838e-01
-2.479139e-01
-3.619001e-01
-4.933393e-01
-6.410143e-01
-8.039416e-01
-9.813032e-01
-1.172388e+00
-1.376550e+00
-1.593178e+00
-1.821681e+00
-2.061478e+00
-2.311992e+00
-2.572648e+00
-2.842873e+00
-3.122096e+00
-3.409744e+00
-3.705243e+00
-4.008010e+00
-4.317442e+00
-4.632896e+00
-4.953638e+00
-5.278776e+00
-5.607144e+00
-5.937136e+00
-6.266526e+00
-6.592306e+00
-6.910655e+00
-7.217121e+00
-7.507011e+00
0.000000e+00
-2.836171e-02
-8.150873e-02
-1.572244e-01
-2.533424e-01
-3.680163e-01
-4.997926e-01
-6.475525e-01
-8.104092e-01
-9.876194e-01
-1.178522e+00
-1.382503e+00
-1.598970e+00
-1.827345e+00
-2.067053e+00
-2.317522e+00
-2.578178e+00
-2.848443e+00
-3.127733e+00
-3.415450e+00
-3.710978e+00
-4.013669e+00
-4.322827e+00
-4.637676e+00
-4.957322e+00
-5.280688e+00
-5.606435e+00
-5.932869e+00
-6.257851e+00
-6.578748e+00
-6.892469e+00
-7.195581e+00
-7.484485e+00
0.000000e+00
-3.085050e-02
-8.677779e-02
-1.649414e-01
-2.628151e-01
-3.785054e-01
-5.107067e-01
-6.584955e-01
-8.211496e-01
-9.980377e-01
-1.188569e+00
-1.392169e+00
-1.608270e+00
-1.836306e+00
-2.075709e+00
-2.325910e+00
-2.586333e+00
-2.856395e+00
-3.135497e+00
-3.423016e+00
-3.718297e+00
-4.020634e+00
-4.329245e+00
-4.643252e+00
-4.961634e+00
-5.283188e+00
-5.606481e+00
-5.929812e+00
-6.251190e+00
-6.568365e+00
-6.878891e+00
-7.180216e+00
-7.469716e+00
0.000000e+00
-3.486308e-02
-9.512498e-02
-1.768270e-01
-2.769635e-01
-3.937669e-01
-5.262857e-01
-6.739260e-01
-8.361791e-01
-1.012543e+00
-1.202500e+00
-1.405515e+00
-1.621041e+00
-1.848524e+00
-2.087401e+00
-2.337102e+00
-2.597051e+00
-2.866657e+00
-3.145307e+00
-3.432359e+00
-3.727122e+00
-4.028843e+00
-4.336677e+00
-4.649666e+00
-4.966701e+00
-5.286498e+00
-5.607579e+00
-5.928269e+00
-6.246738e+00
-6.561077e+00
-6.869414e+00
-7.170015e+00
-7.461265e+00
0.000000e+00
-4.117829e-02
-1.078628e-01
-1.941154e-01
-2.965998e-01
-4.141942e-01
-5.466901e-01
-6.938849e-01
-8.554869e-01
-1.031106e+00
-1.220283e+00
-1.422511e+00
-1.637259e+00
-1.863977e+00
-2.102106e+00
-2.351075e+00
-2.610304e+00
-2.879196e+00
-3.157129e+00
-3.443442e+00
-3.737422e+00
-4.038281e+00
-4.345131e+00
-4.656961e+00
-4.972608e+00
-5.290743e+00
-5.609870e+00
-5.928353e+00
-6.244493e+00
-6.556657e+00
-6.863455e+00
-7.163924e+00
-7.457582e+00
0.000000e+00
-5.141482e-02
-1.273630e-01
-2.184819e-01
-3.223185e-01
-4.399729e-01
-5.719297e-01
-7.183304e-01
-8.790241e-01
-1.053687e+00
-1.241890e+00
-1.443142e+00
-1.656917e+00
-1.882667e+00
-2.119831e+00
-2.367839e+00
-2.626106e+00
-2.894030e+00
-3.170981e+00
-3.456288e+00
-3.749221e+00
-4.048974e+00
-4.354634e+00
-4.665163e+00
-4.979376e+00
-5.295925e+00
-5.613318e+00
-5.929958e+00
-6.244241e+00
-6.554722e+00
-6.860365e+00
-7.160862e+00
-7.456938e+00
0.000000e+00
-7.000804e-02
-1.579770e-01
-2.503741e-01
-3.540601e-01
-4.708834e-01
-6.018320e-01
-7.471469e-01
-9.067228e-01
-1.080252e+00
-1.267312e+00
-1.467414e+00
-1.680034e+00
-1.904622e+00
-2.140618e+00
-2.387446e+00
-2.644520e+00
-2.911231e+00
-3.186944e+00
-3.470980e+00
-3.762603e+00
-4.060995e+00
-4.365238e+00
-4.674287e+00
-4.986955e+00
-5.301907e+00
-5.617675e+00
-5.932706e+00
-6.245468e+00
-6.554632e+00
-6.859360e+00
-7.159756e+00
-7.457485e+00
0.000000e+00
-1.126735e-01
-1.967193e-01
-2.885330e-01
-3.908369e-01
-5.064390e-01
-6.361549e-01
-7.802316e-01
-9.385515e-01
-1.110806e+00
-1.296573e+00
-1.495366e+00
-1.706660e+00
-1.929907e+00
-2.164543e+00
-2.409991e+00
-2.665658e+00
-2.930932e+00
-3.205170e+00
-3.487686e+00
-3.777737e+00
-4.074501e+00
-4.377058e+00