TITLE = "Solution"
VARIABLES = x, y, u, v, psiu, psiv, t, stress
ZONE T="structure" N=561 E=512 F=FEBLOCK ET=QUADRILATERAL VARLOCATION=([7,8]=cellcentered)
0.000000e+00
6.250000e+00
1.250000e+01
1.875000e+01
2.500000e+01
3.125000e+01
3.750000e+01
4.375000e+01
5.000000e+01
5.625000e+01
6.250000e+01
6.875000e+01
7.500000e+01
8.125000e+01
8.750000e+01
9.375000e+01
1.000000e+02
1.062500e+02
1.125000e+02
1.187500e+02
1.250000e+02
1.312500e+02
1.375000e+02
1.437500e+02
1.500000e+02
1.562500e+02
1.625000e+02
1.687500e+02
1.750000e+02
1.812500e+02
1.875000e+02
1.937500e+02
2.000000e+02
0.000000e+00
6.250000e+00
1.250000e+01
1.875000e+01
2.500000e+01
3.125000e+01
3.750000e+01
4.375000e+01
5.000000e+01
5.625000e+01
6.250000e+01
6.875000e+01
7.500000e+01
8.125000e+01
8.750000e+01
9.375000e+01
1.000000e+02
1.062500e+02
1.125000e+02
1.187500e+02
1.250000e+02
1.312500e+02
1.375000e+02
1.437500e+02
1.500000e+02
1.562500e+02
1.625000e+02
1.687500e+02
1.750000e+02
1.812500e+02
1.875000e+02
1.937500e+02
2.000000e+02
0.000000e+00
6.250000e+00
1.250000e+01
1.875000e+01
2.500000e+01
3.125000e+01
3.750000e+01
4.375000e+01
5.000000e+01
5.625000e+01
6.250000e+01
6.875000e+01
7.500000e+01
8.125000e+01
8.750000e+01
9.375000e+01
1.000000e+02
1.062500e+02
1.125000e+02
1.187500e+02
1.250000e+02
1.312500e+02
1.375000e+02
1.437500e+02
1.500000e+02
1.562500e+02
1.625000e+02
1.687500e+02
1.750000e+02
1.812500e+02
1.875000e+02
1.937500e+02
2.000000e+02
0.000000e+00
6.250000e+00
1.250000e+01
1.875000e+01
2.500000e+01
3.125000e+01
3.750000e+01
4.375000e+01
5.000000e+01
5.625000e+01
6.250000e+01
6.875000e+01
7.500000e+01
8.125000e+01
8.750000e+01
9.375000e+01
1.000000e+02
1.062500e+02
1.125000e+02
1.187500e+02
1.250000e+02
1.312500e+02
1.375000e+02
1.437500e+02
1.500000e+02
1.562500e+02
1.625000e+02
1.687500e+02
1.750000e+02
1.812500e+02
1.875000e+02
1.937500e+02
2.000000e+02
0.000000e+00
6.250000e+00
1.250000e+01
1.875000e+01
2.500000e+01
3.125000e+01
3.750000e+01
4.375000e+01
5.000000e+01
5.625000e+01
6.250000e+01
6.875000e+01
7.500000e+01
8.125000e+01
8.750000e+01
9.375000e+01
1.000000e+02
1.062500e+02
1.125000e+02
1.187500e+02
1.250000e+02
1.312500e+02
1.375000e+02
1.437500e+02
1.500000e+02
1.562500e+02
1.625000e+02
1.687500e+02
1.750000e+02
1.812500e+02
1.875000e+02
1.937500e+02
2.000000e+02
0.000000e+00
6.250000e+00
1.250000e+01
1.875000e+01
2.500000e+01
3.125000e+01
3.750000e+01
4.375000e+01
5.000000e+01
5.625000e+01
6.250000e+01
6.875000e+01
7.500000e+01
8.125000e+01
8.750000e+01
9.375000e+01
1.000000e+02
1.062500e+02
1.125000e+02
1.187500e+02
1.250000e+02
1.312500e+02
1.375000e+02
1.437500e+02
1.500000e+02
1.562500e+02
1.625000e+02
1.687500e+02
1.750000e+02
1.812500e+02
1.875000e+02
1.937500e+02
2.000000e+02
0.000000e+00
6.250000e+00
1.250000e+01
1.875000e+01
2.500000e+01
3.125000e+01
3.750000e+01
4.375000e+01
5.000000e+01
5.625000e+01
6.250000e+01
6.875000e+01
7.500000e+01
8.125000e+01
8.750000e+01
9.375000e+01
1.000000e+02
1.062500e+02
1.125000e+02
1.187500e+02
1.250000e+02
1.312500e+02
1.375000e+02
1.437500e+02
1.500000e+02
1.562500e+02
1.625000e+02
1.687500e+02
1.750000e+02
1.812500e+02
1.875000e+02
1.937500e+02
2.000000e+02
0.000000e+00
6.250000e+00
1.250000e+01
1.875000e+01
2.500000e+01
3.125000e+01
3.750000e+01
4.375000e+01
5.000000e+01
5.625000e+01
6.250000e+01
6.875000e+01
7.500000e+01
8.125000e+01
8.750000e+01
9.375000e+01
1.000000e+02
1.062500e+02
1.125000e+02
1.187500e+02
1.250000e+02
1.312500e+02
1.375000e+02
1.437500e+02
1.500000e+02
1.562500e+02
1.625000e+02
1.687500e+02
1.750000e+02
1.812500e+02
1.875000e+02
1.937500e+02
2.000000e+02
0.000000e+00
6.250000e+00
1.250000e+01
1.875000e+01
2.500000e+01
3.125000e+01
3.750000e+01
4.375000e+01
5.000000e+01
5.625000e+01
6.250000e+01
6.875000e+01
7.500000e+01
8.125000e+01
8.750000e+01
9.375000e+01
1.000000e+02
1.062500e+02
1.125000e+02
1.187500e+02
1.250000e+02
1.312500e+02
1.375000e+02
1.437500e+02
1.500000e+02
1.562500e+02
1.625000e+02
1.687500e+02
1.750000e+02
1.812500e+02
1.875000e+02
1.937500e+02
2.000000e+02
0.000000e+00
6.250000e+00
1.250000e+01
1.875000e+01
2.500000e+01
3.125000e+01
3.750000e+01
4.375000e+01
5.000000e+01
5.625000e+01
6.250000e+01
6.875000e+01
7.500000e+01
8.125000e+01
8.750000e+01
9.375000e+01
1.000000e+02
1.062500e+02
1.125000e+02
1.187500e+02
1.250000e+02
1.312500e+02
1.375000e+02
1.437500e+02
1.500000e+02
1.562500e+02
1.625000e+02
1.687500e+02
1.750000e+02
1.812500e+02
1.875000e+02
1.937500e+02
2.000000e+02
0.000000e+00
6.250000e+00
1.250000e+01
1.875000e+01
2.500000e+01
3.125000e+01
3.750000e+01
4.375000e+01
5.000000e+01
5.625000e+01
6.250000e+01
6.875000e+01
7.500000e+01
8.125000e+01
8.750000e+01
9.375000e+01
1.000000e+02
1.062500e+02
1.125000e+02
1.187500e+02
1.250000e+02
1.312500e+02
1.375000e+02
1.437500e+02
1.500000e+02
1.562500e+02
1.625000e+02
1.687500e+02
1.750000e+02
1.812500e+02
1.875000e+02
1.937500e+02
2.000000e+02
0.000000e+00
6.250000e+00
1.250000e+01
1.875000e+01
2.500000e+01
3.125000e+01
3.750000e+01
4.375000e+01
5.000000e+01
5.625000e+01
6.250000e+01
6.875000e+01
7.500000e+01
8.125000e+01
8.750000e+01
9.375000e+01
1.000000e+02
1.062500e+02
1.125000e+02
1.187500e+02
1.250000e+02
1.312500e+02
1.375000e+02
1.437500e+02
1.500000e+02
1.562500e+02
1.625000e+02
1.687500e+02
1.750000e+02
1.812500e+02
1.875000e+02
1.937500e+02
2.000000e+02
0.000000e+00
6.250000e+00
1.250000e+01
1.875000e+01
2.500000e+01
3.125000e+01
3.750000e+01
4.375000e+01
5.000000e+01
5.625000e+01
6.250000e+01
6.875000e+01
7.500000e+01
8.125000e+01
8.750000e+01
9.375000e+01
1.000000e+02
1.062500e+02
1.125000e+02
1.187500e+02
1.250000e+02
1.312500e+02
1.375000e+02
1.437500e+02
1.500000e+02
1.562500e+02
1.625000e+02
1.687500e+02
1.750000e+02
1.812500e+02
1.875000e+02
1.937500e+02
2.000000e+02
0.000000e+00
6.250000e+00
1.250000e+01
1.875000e+01
2.500000e+01
3.125000e+01
3.750000e+01
4.375000e+01
5.000000e+01
5.625000e+01
6.250000e+01
6.875000e+01
7.500000e+01
8.125000e+01
8.750000e+01
9.375000e+01
1.000000e+02
1.062500e+02
1.125000e+02
1.187500e+02
1.250000e+02
1.312500e+02
1.375000e+02
1.437500e+02
1.500000e+02
1.562500e+02
1.625000e+02
1.687500e+02
1.750000e+02
1.812500e+02
1.875000e+02
1.937500e+02
2.000000e+02
0.000000e+00
6.250000e+00
1.250000e+01
1.875000e+01
2.500000e+01
3.125000e+01
3.750000e+01
4.375000e+01
5.000000e+01
5.625000e+01
6.250000e+01
6.875000e+01
7.500000e+01
8.125000e+01
8.750000e+01
9.375000e+01
1.000000e+02
1.062500e+02
1.125000e+02
1.187500e+02
1.250000e+02
1.312500e+02
1.375000e+02
1.437500e+02
1.500000e+02
1.562500e+02
1.625000e+02
1.687500e+02
1.750000e+02
1.812500e+02
1.875000e+02
1.937500e+02
2.000000e+02
0.000000e+00
6.250000e+00
1.250000e+01
1.875000e+01
2.500000e+01
3.125000e+01
3.750000e+01
4.375000e+01
5.000000e+01
5.625000e+01
6.250000e+01
6.875000e+01
7.500000e+01
8.125000e+01
8.750000e+01
9.375000e+01
1.000000e+02
1.062500e+02
1.125000e+02
1.187500e+02
1.250000e+02
1.312500e+02
1.375000e+02
1.437500e+02
1.500000e+02
1.562500e+02
1.625000e+02
1.687500e+02
1.750000e+02
1.812500e+02
1.875000e+02
1.937500e+02
2.000000e+02
0.000000e+00
6.250000e+00
1.250000e+01
1.875000e+01
2.500000e+01
3.125000e+01
3.750000e+01
4.375000e+01
5.000000e+01
5.625000e+01
6.250000e+01
6.875000e+01
7.500000e+01
8.125000e+01
8.750000e+01
9.375000e+01
1.000000e+02
1.062500e+02
1.125000e+02
1.187500e+02
1.250000e+02
1.312500e+02
1.375000e+02
1.437500e+02
1.500000e+02
1.562500e+02
1.625000e+02
1.687500e+02
1.750000e+02
1.812500e+02
1.875000e+02
1.937500e+02
2.000000e+02
0.000000e+00
0.000000e+00
0.000000e+00
0.000000e+00
0.000000e+00
0.000000e+00
0.000000e+00
0.000000e+00
0.000000e+00
0.000000e+00
0.000000e+00
0.000000e+00
0.000000e+00
0.000000e+00
0.000000e+00
0.000000e+00
0.000000e+00
0.000000e+00
0.000000e+00
0.000000e+00
0.000000e+00
0.000000e+00
0.000000e+00
0.000000e+00
0.000000e+00
0.000000e+00
0.000000e+00
0.000000e+00
0.000000e+00
0.000000e+00
0.000000e+00
0.000000e+00
0.000000e+00
6.250000e+00
6.250000e+00
6.250000e+00
6.250000e+00
6.250000e+00
6.250000e+00
6.250000e+00
6.250000e+00
6.250000e+00
6.250000e+00
6.250000e+00
6.250000e+00
6.250000e+00
6.250000e+00
6.250000e+00
6.250000e+00
6.250000e+00
6.250000e+00
6.250000e+00
6.250000e+00
6.250000e+00
6.250000e+00
6.250000e+00
6.250000e+00
6.250000e+00
6.250000e+00
6.250000e+00
6.250000e+00
6.250000e+00
6.250000e+00
6.250000e+00
6.250000e+00
6.250000e+00
1.250000e+01
1.250000e+01
1.250000e+01
1.250000e+01
1.250000e+01
1.250000e+01
1.250000e+01
1.250000e+01
1.250000e+01
1.250000e+01
1.250000e+01
1.250000e+01
1.250000e+01
1.250000e+01
1.250000e+01
1.250000e+01
1.250000e+01
1.250000e+01
1.250000e+01
1.250000e+01
1.250000e+01
1.250000e+01
1.250000e+01
1.250000e+01
1.250000e+01
1.250000e+01
1.250000e+01
1.250000e+01
1.250000e+01
1.250000e+01
1.250000e+01
1.250000e+01
1.250000e+01
1.875000e+01
1.875000e+01
1.875000e+01
1.875000e+01
1.875000e+01
1.875000e+01
1.875000e+01
1.875000e+01
1.875000e+01
1.875000e+01
1.875000e+01
1.875000e+01
1.875000e+01
1.875000e+01
1.875000e+01
1.875000e+01
1.875000e+01
1.875000e+01
1.875000e+01
1.875000e+01
1.875000e+01
1.875000e+01
1.875000e+01
1.875000e+01
1.875000e+01
1.875000e+01
1.875000e+01
1.875000e+01
1.875000e+01
1.875000e+01
1.875000e+01
1.875000e+01
1.875000e+01
2.500000e+01
2.500000e+01
2.500000e+01
2.500000e+01
2.500000e+01
2.500000e+01
2.500000e+01
2.500000e+01
2.500000e+01
2.500000e+01
2.500000e+01
2.500000e+01
2.500000e+01
2.500000e+01
2.500000e+01
2.500000e+01
2.500000e+01
2.500000e+01
2.500000e+01
2.500000e+01
2.500000e+01
2.500000e+01
2.500000e+01
2.500000e+01
2.500000e+01
2.500000e+01
2.500000e+01
2.500000e+01
2.500000e+01
2.500000e+01
2.500000e+01
2.500000e+01
2.500000e+01
3.125000e+01
3.125000e+01
3.125000e+01
3.125000e+01
3.125000e+01
3.125000e+01
3.125000e+01
3.125000e+01
3.125000e+01
3.125000e+01
3.125000e+01
3.125000e+01
3.125000e+01
3.125000e+01
3.125000e+01
3.125000e+01
3.125000e+01
3.125000e+01
3.125000e+01
3.125000e+01
3.125000e+01
3.125000e+01
3.125000e+01
3.125000e+01
3.125000e+01
3.125000e+01
3.125000e+01
3.125000e+01
3.125000e+01
3.125000e+01
3.125000e+01
3.125000e+01
3.125000e+01
3.750000e+01
3.750000e+01
3.750000e+01
3.750000e+01
3.750000e+01
3.750000e+01
3.750000e+01
3.750000e+01
3.750000e+01
3.750000e+01
3.750000e+01
3.750000e+01
3.750000e+01
3.750000e+01
3.750000e+01
3.750000e+01
3.750000e+01
3.750000e+01
3.750000e+01
3.750000e+01
3.750000e+01
3.750000e+01
3.750000e+01
3.750000e+01
3.750000e+01
3.750000e+01
3.750000e+01
3.750000e+01
3.750000e+01
3.750000e+01
3.750000e+01
3.750000e+01
3.750000e+01
4.375000e+01
4.375000e+01
4.375000e+01
4.375000e+01
4.375000e+01
4.375000e+01
4.375000e+01
4.375000e+01
4.375000e+01
4.375000e+01
4.375000e+01
4.375000e+01
4.375000e+01
4.375000e+01
4.375000e+01
4.375000e+01
4.375000e+01
4.375000e+01
4.375000e+01
4.375000e+01
4.375000e+01
4.375000e+01
4.375000e+01
4.375000e+01
4.375000e+01
4.375000e+01
4.375000e+01
4.375000e+01
4.375000e+01
4.375000e+01
4.375000e+01
4.375000e+01
4.375000e+01
5.000000e+01
5.000000e+01
5.000000e+01
5.000000e+01
5.000000e+01
5.000000e+01
5.000000e+01
5.000000e+01
5.000000e+01
5.000000e+01
5.000000e+01
5.000000e+01
5.000000e+01
5.000000e+01
5.000000e+01
5.000000e+01
5.000000e+01
5.000000e+01
5.000000e+01
5.000000e+01
5.000000e+01
5.000000e+01
5.000000e+01
5.000000e+01
5.000000e+01
5.000000e+01
5.000000e+01
5.000000e+01
5.000000e+01
5.000000e+01
5.000000e+01
5.000000e+01
5.000000e+01
5.625000e+01
5.625000e+01
5.625000e+01
5.625000e+01
5.625000e+01
5.625000e+01
5.625000e+01
5.625000e+01
5.625000e+01
5.625000e+01
5.625000e+01
5.625000e+01
5.625000e+01
5.625000e+01
5.625000e+01
5.625000e+01
5.625000e+01
5.625000e+01
5.625000e+01
5.625000e+01
5.625000e+01
5.625000e+01
5.625000e+01
5.625000e+01
5.625000e+01
5.625000e+01
5.625000e+01
5.625000e+01
5.625000e+01
5.625000e+01
5.625000e+01
5.625000e+01
5.625000e+01
6.250000e+01
6.250000e+01
6.250000e+01
6.250000e+01
6.250000e+01
6.250000e+01
6.250000e+01
6.250000e+01
6.250000e+01
6.250000e+01
6.250000e+01
6.250000e+01
6.250000e+01
6.250000e+01
6.250000e+01
6.250000e+01
6.250000e+01
6.250000e+01
6.250000e+01
6.250000e+01
6.250000e+01
6.250000e+01
6.250000e+01
6.250000e+01
6.250000e+01
6.250000e+01
6.250000e+01
6.250000e+01
6.250000e+01
6.250000e+01
6.250000e+01
6.250000e+01
6.250000e+01
6.875000e+01
6.875000e+01
6.875000e+01
6.875000e+01
6.875000e+01
6.875000e+01
6.875000e+01
6.875000e+01
6.875000e+01
6.875000e+01
6.875000e+01
6.875000e+01
6.875000e+01
6.875000e+01
6.875000e+01
6.875000e+01
6.875000e+01
6.875000e+01
6.875000e+01
6.875000e+01
6.875000e+01
6.875000e+01
6.875000e+01
6.875000e+01
6.875000e+01
6.875000e+01
6.875000e+01
6.875000e+01
6.875000e+01
6.875000e+01
6.875000e+01
6.875000e+01
6.875000e+01
7.500000e+01
7.500000e+01
7.500000e+01
7.500000e+01
7.500000e+01
7.500000e+01
7.500000e+01
7.500000e+01
7.500000e+01
7.500000e+01
7.500000e+01
7.500000e+01
7.500000e+01
7.500000e+01
7.500000e+01
7.500000e+01
7.500000e+01
7.500000e+01
7.500000e+01
7.500000e+01
7.500000e+01
7.500000e+01
7.500000e+01
7.500000e+01
7.500000e+01
7.500000e+01
7.500000e+01
7.500000e+01
7.500000e+01
7.500000e+01
7.500000e+01
7.500000e+01
7.500000e+01
8.125000e+01
8.125000e+01
8.125000e+01
8.125000e+01
8.125000e+01
8.125000e+01
8.125000e+01
8.125000e+01
8.125000e+01
8.125000e+01
8.125000e+01
8.125000e+01
8.125000e+01
8.125000e+01
8.125000e+01
8.125000e+01
8.125000e+01
8.125000e+01
8.125000e+01
8.125000e+01
8.125000e+01
8.125000e+01
8.125000e+01
8.125000e+01
8.125000e+01
8.125000e+01
8.125000e+01
8.125000e+01
8.125000e+01
8.125000e+01
8.125000e+01
8.125000e+01
8.125000e+01
8.750000e+01
8.750000e+01
8.750000e+01
8.750000e+01
8.750000e+01
8.750000e+01
8.750000e+01
8.750000e+01
8.750000e+01
8.750000e+01
8.750000e+01
8.750000e+01
8.750000e+01
8.750000e+01
8.750000e+01
8.750000e+01
8.750000e+01
8.750000e+01
8.750000e+01
8.750000e+01
8.750000e+01
8.750000e+01
8.750000e+01
8.750000e+01
8.750000e+01
8.750000e+01
8.750000e+01
8.750000e+01
8.750000e+01
8.750000e+01
8.750000e+01
8.750000e+01
8.750000e+01
9.375000e+01
9.375000e+01
9.375000e+01
9.375000e+01
9.375000e+01
9.375000e+01
9.375000e+01
9.375000e+01
9.375000e+01
9.375000e+01
9.375000e+01
9.375000e+01
9.375000e+01
9.375000e+01
9.375000e+01
9.375000e+01
9.375000e+01
9.375000e+01
9.375000e+01
9.375000e+01
9.375000e+01
9.375000e+01
9.375000e+01
9.375000e+01
9.375000e+01
9.375000e+01
9.375000e+01
9.375000e+01
9.375000e+01
9.375000e+01
9.375000e+01
9.375000e+01
9.375000e+01
1.000000e+02
1.000000e+02
1.000000e+02
1.000000e+02
1.000000e+02
1.000000e+02
1.000000e+02
1.000000e+02
1.000000e+02
1.000000e+02
1.000000e+02
1.000000e+02
1.000000e+02
1.000000e+02
1.000000e+02
1.000000e+02
1.000000e+02
1.000000e+02
1.000000e+02
1.000000e+02
1.000000e+02
1.000000e+02
1.000000e+02
1.000000e+02
1.000000e+02
1.000000e+02
1.000000e+02
1.000000e+02
1.000000e+02
1.000000e+02
1.000000e+02
1.000000e+02
1.000000e+02
0.000000e+00
-5.868573e-02
-1.064774e-01
-1.507497e-01
-1.932388e-01
-2.342684e-01
-2.739211e-01
-3.121933e-01
-3.490608e-01
-3.844969e-01
-4.184793e-01
-4.509927e-01
-4.820292e-01
-5.115881e-01
-5.396763e-01
-5.663086e-01
-5.915090e-01
-6.153119e-01
-6.377653e-01
-6.589338e-01
-6.789035e-01
-6.977881e-01
-7.157382e-01
-7.329532e-01
-7.497007e-01
-7.663439e-01
-7.833876e-01
-8.015516e-01
-8.218917e-01
-8.459616e-01
-8.757770e-01
-9.113088e-01
-9.329933e-01
0.000000e+00
-3.934717e-02
-8.186601e-02
-1.219557e-01
-1.600595e-01
-1.965401e-01
-2.315904e-01
-2.652947e-01
-2.976865e-01
-3.287768e-01
-3.585676e-01
-3.870589e-01
-4.142521e-01
-4.401516e-01
-4.647660e-01
-4.881089e-01
-5.102003e-01
-5.310673e-01
-5.507463e-01
-5.692840e-01
-5.867405e-01
-6.031913e-01
-6.187299e-01
-6.334711e-01
-6.475520e-01
-6.611301e-01
-6.743718e-01
-6.874140e-01
-7.002560e-01
-7.124797e-01
-7.226655e-01
-7.286206e-01
-7.369110e-01
0.000000e+00
-3.121025e-02
-6.425381e-02
-9.789745e-02
-1.305887e-01
-1.620753e-01
-1.923371e-01
-2.214027e-01
-2.492979e-01
-2.760402e-01
-3.016410e-01
-3.261082e-01
-3.494486e-01
-3.716692e-01
-3.927781e-01
-4.127856e-01
-4.317046e-01
-4.495516e-01
-4.663464e-01
-4.821132e-01
-4.968795e-01
-5.106751e-01
-5.235294e-01
-5.354652e-01
-5.464873e-01
-5.565603e-01
-5.655689e-01
-5.732481e-01
-5.790784e-01
-5.822179e-01
-5.819426e-01
-5.801798e-01
-5.898607e-01
0.000000e+00
-2.476257e-02
-5.089272e-02
-7.773823e-02
-1.045209e-01
-1.306548e-01
-1.559163e-01
-1.802249e-01
-2.035591e-01
-2.259177e-01
-2.473067e-01
-2.677330e-01
-2.872037e-01
-3.057249e-01
-3.233019e-01
-3.399398e-01
-3.556431e-01
-3.704159e-01
-3.842611e-01
-3.971796e-01
-4.091681e-01
-4.202155e-01
-4.302974e-01
-4.393669e-01
-4.473402e-01
-4.540766e-01
-4.593530e-01
-4.628473e-01
-4.641814e-01
-4.631910e-01
-4.607856e-01
-4.606420e-01
-4.698656e-01
0.000000e+00
-1.921922e-02
-3.935441e-02
-6.013282e-02
-8.108007e-02
-1.017704e-01
-1.219184e-01
-1.413795e-01
-1.600880e-01
-1.780185e-01
-1.951645e-01
-2.115269e-01
-2.271087e-01
-2.419126e-01
-2.559396e-01
-2.691883e-01
-2.816546e-01
-2.933311e-01
-3.042056e-01
-3.142600e-01
-3.234672e-01
-3.317879e-01
-3.391651e-01
-3.455178e-01
-3.507338e-01
-3.546655e-01
-3.571395e-01
-3.580074e-01
-3.572954e-01
-3.555532e-01
-3.544230e-01
-3.570331e-01
-3.649012e-01
0.000000e+00
-1.412501e-02
-2.885520e-02
-4.405863e-02
-5.947261e-02
-7.480943e-02
-8.984065e-02
-1.044178e-01
-1.184594e-01
-1.319257e-01
-1.448002e-01
-1.570768e-01
-1.687535e-01
-1.798282e-01
-1.902967e-01
-2.001516e-01
-2.093811e-01
-2.179684e-01
-2.258903e-01
-2.331157e-01
-2.396039e-01
-2.453025e-01
-2.501447e-01
-2.540493e-01
-2.569237e-01
-2.586776e-01
-2.592595e-01
-2.587373e-01
-2.574502e-01
-2.562257e-01
-2.565239e-01
-2.598512e-01
-2.663615e-01
0.000000e+00
-9.295959e-03
-1.895962e-02
-2.892984e-02
-3.906446e-02
-4.919288e-02
-5.916236e-02
-6.886156e-02
-7.822080e-02
-8.720164e-02
-9.578465e-02
-1.039600e-01
-1.117216e-01
-1.190628e-01
-1.259748e-01
-1.324449e-01
-1.384558e-01
-1.439843e-01
-1.490007e-01
-1.534682e-01
-1.573417e-01
-1.605688e-01
-1.630909e-01
-1.648484e-01
-1.657927e-01
-1.659098e-01
-1.652642e-01
-1.640694e-01
-1.627802e-01
-1.621552e-01
-1.631303e-01
-1.663698e-01
-1.716250e-01
0.000000e+00
-4.617301e-03
-9.409163e-03
-1.435096e-02
-1.938028e-02
-2.441768e-02
-2.938770e-02
-3.423130e-02
-3.890860e-02
-4.339523e-02
-4.767674e-02
-5.174359e-02
-5.558745e-02
-5.919879e-02
-6.256530e-02
-6.567082e-02
-6.849450e-02
-7.101029e-02
-7.318656e-02
-7.498624e-02
-7.636773e-02
-7.728729e-02
-7.770385e-02
-7.758799e-02
-7.693743e-02
-7.580182e-02
-7.431858e-02
-7.275573e-02
-7.154251e-02
-7.123859e-02
-7.238255e-02
-7.520856e-02
-7.937850e-02
0.000000e+00
-7.449812e-06
-1.615329e-05
-2.562827e-05
-3.537639e-05
-4.472565e-05
-5.266334e-05
-5.765050e-05
-5.740516e-05
-4.864132e-05
-2.675398e-05
1.455555e-05
8.371338e-05
1.917562e-04
3.528409e-04
5.847362e-04
9.092204e-04
1.352262e-03
1.943789e-03
2.716748e-03
3.705012e-03
4.939499e-03
6.441623e-03
8.213014e-03
1.022049e-02
1.237611e-02
1.451484e-02
1.637817e-02
1.762203e-02
1.787428e-02
1.685862e-02
1.455847e-02
1.133699e-02
0.000000e+00
4.603269e-03
9.378677e-03
1.430249e-02
1.931322e-02
2.433265e-02
2.928721e-02
3.412072e-02
3.879756e-02
4.329949e-02
4.762071e-02
5.176349e-02
5.573535e-02
5.954754e-02
6.321447e-02
6.675356e-02
7.018524e-02
7.353283e-02
7.682183e-02
8.007854e-02
8.332729e-02
8.658597e-02
8.985923e-02
9.312888e-02
9.634179e-02
9.939657e-02
1.021333e-01
1.043345e-01
1.057488e-01
1.061492e-01
1.054240e-01
1.036767e-01
1.012857e-01
0.000000e+00
9.284496e-03
1.893454e-02
2.888969e-02
3.900846e-02
4.912123e-02
5.907669e-02
6.876578e-02
7.812221e-02
8.711245e-02
9.572406e-02
1.039568e-01
1.118174e-01
1.193164e-01
1.264670e-01
1.332844e-01
1.397857e-01
1.459893e-01
1.519147e-01
1.575800e-01
1.630001e-01
1.681817e-01
1.731179e-01
1.777800e-01
1.821097e-01
1.860108e-01
1.893476e-01
1.919538e-01
1.936596e-01
1.943416e-01
1.939909e-01
1.927819e-01
1.911131e-01
0.000000e+00
1.411770e-02
2.883890e-02
4.403210e-02
5.943494e-02
7.476026e-02
8.978049e-02
1.043485e-01
1.183850e-01
1.318535e-01
1.447415e-01
1.570494e-01
1.687835e-01
1.799529e-01
1.905681e-01
2.006404e-01
2.101817e-01
2.192040e-01
2.277190e-01
2.357364e-01
2.432619e-01
2.502937e-01
2.568183e-01
2.628048e-01
2.682002e-01
2.729263e-01
2.768812e-01
2.799506e-01
2.820321e-01
2.830751e-01
2.831338e-01
2.824245e-01
2.813699e-01
0.000000e+00
1.921740e-02
3.934986e-02
6.012469e-02
8.106750e-02
1.017527e-01
1.218951e-01
1.413505e-01
1.600539e-01
1.779809e-01
1.951263e-01
2.114929e-01
2.270868e-01
2.419144e-01
2.559820e-01
2.692953e-01
2.818593e-01
2.936781e-01
3.047547e-01
3.150894e-01
3.246792e-01
3.335153e-01
3.415807e-01
3.488475e-01
3.552748e-01
3.608088e-01
3.653860e-01
3.689434e-01
3.714365e-01
3.728689e-01
3.733335e-01
3.730672e-01
3.725116e-01
0.000000e+00
2.476717e-02
5.090208e-02
7.775214e-02
1.045389e-01
1.306765e-01
1.559409e-01
1.802512e-01
2.035850e-01
2.259402e-01
2.473207e-01
2.677316e-01
2.871767e-01
3.056580e-01
3.231760e-01
3.397291e-01
3.553144e-01
3.699267e-01
3.835587e-01
3.962008e-01
4.078403e-01
4.184609e-01
4.280424e-01
4.365608e-01
4.439887e-01
4.502984e-01
4.554662e-01
4.594804e-01
4.623534e-01
4.641388e-01
4.649601e-01
4.650580e-01
4.648737e-01
0.000000e+00
3.122148e-02
6.427778e-02
9.793499e-02
1.306405e-01
1.621420e-01
1.924188e-01
2.214985e-01
2.494050e-01
2.761532e-01
3.017501e-01
3.261978e-01
3.494947e-01
3.716364e-01
3.926158e-01
4.124236e-01
4.310475e-01
4.484722e-01
4.646795e-01
4.796476e-01
4.933521e-01
5.057662e-01
5.168630e-01
5.266176e-01
5.350116e-01
5.420384e-01
5.477109e-01
5.520690e-01
5.551881e-01
5.571858e-01
5.582314e-01
5.585719e-01
5.586126e-01
0.000000e+00
3.936403e-02
8.190284e-02
1.220149e-01
1.601440e-01
1.966529e-01
2.317339e-01
2.654702e-01
2.978934e-01
3.290109e-01
3.588192e-01
3.873101e-01
4.144730e-01
4.402952e-01
4.647622e-01
4.878566e-01
5.095572e-01
5.298385e-01
5.486702e-01
5.660166e-01
5.818377e-01
5.960910e-01
6.087343e-01
6.197314e-01
6.290595e-01
6.367190e-01
6.427463e-01
6.472261e-01
6.503034e-01
6.521890e-01
6.531524e-01
6.535017e-01
6.535872e-01
0.000000e+00
5.870419e-02
1.065205e-01
1.508235e-01
1.933492e-01
2.344215e-01
2.741231e-01
3.124501e-01
3.493772e-01
3.848747e-01
4.189153e-01
4.514754e-01
4.825340e-01
5.120713e-01
5.400667e-01
5.664967e-01
5.913333e-01
6.145419e-01
6.360801e-01
6.558967e-01
6.739323e-01
6.901203e-01
7.043913e-01
7.166799e-01
7.269353e-01
7.351369e-01
7.413138e-01
7.455691e-01
7.481054e-01
7.492482e-01
7.494559e-01
7.492838e-01
7.491870e-01
0.000000e+00
-3.626667e-02
-6.329321e-02
-9.278574e-02
-1.256274e-01
-1.627254e-01
-2.043375e-01
-2.505360e-01
-3.012749e-01
-3.564455e-01
-4.159015e-01
-4.794747e-01
-5.469837e-01
-6.182396e-01
-6.930497e-01
-7.712200e-01
-8.525574e-01
-9.368726e-01
-1.023982e+00
-1.113714e+00
-1.205912e+00
-1.300444e+00
-1.397217e+00
-1.496193e+00
-1.597422e+00
-1.701091e+00
-1.807613e+00
-1.917790e+00
-2.033163e+00
-2.156775e+00
-2.295198e+00
-2.463935e+00
-2.697050e+00
0.000000e+00
-2.253836e-02
-5.082803e-02
-8.051948e-02
-1.138189e-01
-1.513199e-01
-1.933363e-01
-2.399392e-01
-2.910864e-01
-3.466694e-01
-4.065409e-01
-4.705315e-01
-5.384582e-01
-6.101304e-01
-6.853538e-01
-7.639322e-01
-8.456705e-01
-9.303761e-01
-1.017863e+00
-1.107953e+00
-1.200486e+00
-1.295323e+00
-1.392362e+00
-1.491554e+00
-1.592936e+00
-1.696678e+00
-1.803170e+00
-1.913192e+00
-2.028250e+00
-2.151337e+00
-2.288691e+00
-2.453672e+00
-2.671462e+00
0.000000e+00
-1.655573e-02
-4.097733e-02
-7.026374e-02
-1.036213e-01
-1.413987e-01
-1.837467e-01
-2.307047e-01
-2.822162e-01
-3.381674e-01
-3.984086e-01
-4.627690e-01
-5.310648e-01
-6.031047e-01
-6.786937e-01
-7.576350e-01
-8.397322e-01
-9.247920e-01
-1.012626e+00
-1.103057e+00
-1.195921e+00
-1.291080e+00
-1.388429e+00
-1.487924e+00
-1.589603e+00
-1.693647e+00
-1.800464e+00
-1.910852e+00
-2.026300e+00
-2.149503e+00
-2.285070e+00
-2.438445e+00
-2.608582e+00
0.000000e+00
-1.325714e-02
-3.469955e-02
-6.242426e-02
-9.535315e-02
-1.331187e-01
-1.756479e-01
-2.228689e-01
-2.746803e-01
-3.309470e-01
-3.915100e-01
-4.561943e-01
-5.248145e-01
-5.971789e-01
-6.730927e-01
-7.523595e-01
-8.347839e-01
-9.201729e-01
-1.008340e+00
-1.099108e+00
-1.192316e+00
-1.287829e+00
-1.385548e+00
-1.485434e+00
-1.587538e+00
-1.692049e+00
-1.799369e+00
-1.910235e+00
-2.025865e+00
-2.148035e+00
-2.278446e+00
-2.415989e+00
-2.544028e+00
0.000000e+00
-1.121774e-02
-3.059411e-02
-5.685730e-02
-8.903555e-02
-1.265535e-01
-1.690987e-01
-2.164731e-01
-2.685059e-01
-3.250267e-01
-3.858589e-01
-4.508192e-01
-5.197190e-01
-5.923661e-01
-6.685662e-01
-7.481246e-01
-8.308475e-01
-9.165444e-01
-1.005031e+00
-1.096133e+00
-1.189694e+00
-1.285582e+00
-1.383703e+00
-1.484021e+00
-1.586582e+00
-1.691551e+00
-1.799258e+00
-1.910233e+00
-2.025175e+00
-2.144649e+00
-2.268085e+00
-2.390951e+00
-2.502459e+00
0.000000e+00
-9.920048e-03
-2.790043e-02
-5.302637e-02
-8.448027e-02
-1.216468e-01
-1.640994e-01
-2.115345e-01
-2.637130e-01
-3.204242e-01
-3.814697e-01
-4.466552e-01
-5.157877e-01
-5.886740e-01
-6.651208e-01
-7.449353e-01
-8.279262e-01
-9.139059e-01
-1.002693e+00
-1.094116e+00
-1.188021e+00
-1.284276e+00
-1.382785e+00
-1.483501e+00
-1.586440e+00
-1.691703e+00
-1.799475e+00
-1.909989e+00
-2.023372e+00
-2.139242e+00
-2.255834e+00
-2.368982e+00
-2.472399e+00
0.000000e+00
-9.113549e-03
-2.619736e-02
-5.053618e-02
-8.142857e-02
-1.182748e-01
-1.606014e-01
-2.080424e-01
-2.603070e-01
-3.171500e-01
-3.783527e-01
-4.437104e-01
-5.130254e-01
-5.861039e-01
-6.627536e-01
-7.427839e-01
-8.260061e-01
-9.122352e-01
-1.001292e+00
-1.093006e+00
-1.187222e+00
-1.283802e+00
-1.382638e+00
-1.483656e+00
-1.586820e+00
-1.692132e+00
-1.799602e+00
-1.909167e+00
-2.020513e+00
-2.132732e+00
-2.243884e+00
-2.350763e+00
-2.449443e+00
0.000000e+00
-8.670366e-03
-2.525236e-02
-4.913291e-02
-7.967868e-02
-1.163107e-01
-1.585401e-01
-2.059707e-01
-2.582818e-01
-3.152064e-01
-3.765120e-01
-4.419870e-01
-5.114311e-01
-5.846502e-01
-6.614535e-01
-7.416526e-01
-8.250610e-01
-9.114953e-01
-1.000777e+00
-1.092734e+00
-1.187204e+00
-1.284040e+00
-1.383109e+00
-1.484297e+00
-1.587504e+00
-1.692621e+00
-1.799496e+00
-1.907836e+00
-2.017062e+00
-2.126102e+00
-2.233204e+00
-2.335956e+00
-2.431680e+00
0.000000e+00
-8.527573e-03
-2.494748e-02
-4.867810e-02
-7.910837e-02
-1.156678e-01
-1.578649e-01
-2.052948e-01
-2.576279e-01
-3.145905e-01
-3.759465e-01
-4.414824e-01
-5.109984e-01
-5.843016e-01
-6.612032e-01
-7.415166e-01
-8.250569e-01
-9.116412e-01
-1.001089e+00
-1.093225e+00
-1.187877e+00
-1.284880e+00
-1.384072e+00
-1.485293e+00
-1.588372e+00
-1.693105e+00
-1.799206e+00
-1.906239e+00
-2.013512e+00
-2.119969e+00
-2.224127e+00
-2.324148e+00
-2.418067e+00
0.000000e+00
-8.666235e-03
-2.524663e-02
-4.912798e-02
-7.967719e-02
-1.163159e-01
-1.585564e-01
-2.060038e-01
-2.583393e-01
-3.152982e-01
-3.766511e-01
-4.421894e-01
-5.117167e-01
-5.850429e-01
-6.619816e-01
-7.423477e-01
-8.259571e-01
-9.126264e-01
-1.002172e+00
-1.094412e+00
-1.189162e+00
-1.286235e+00
-1.385439e+00
-1.486568e+00
-1.589388e+00
-1.693613e+00
-1.798871e+00
-1.904648e+00
-2.010231e+00
-2.114660e+00
-2.216713e+00
-2.314967e+00
-2.407922e+00
0.000000e+00
-9.105623e-03
-2.618636e-02
-5.052667e-02
-8.142558e-02
-1.182847e-01
-1.606323e-01
-2.081055e-01
-2.604168e-01
-3.173257e-01
-3.786188e-01
-4.440979e-01
-5.135727e-01
-5.868570e-01
-6.637666e-01
-7.441179e-01
-8.277269e-01
-9.144087e-01
-1.003976e+00
-1.096237e+00
-1.190996e+00
-1.288045e+00
-1.387161e+00
-1.488097e+00
-1.590566e+00
-1.694224e+00
-1.798644e+00
-1.903283e+00
-2.007457e+00
-2.110325e+00
-2.210898e+00
-2.308080e+00
-2.400720e+00
0.000000e+00
-9.909031e-03
-2.788515e-02
-5.301308e-02
-8.447597e-02
-1.216603e-01
-1.641422e-01
-2.116222e-01
-2.638659e-01
-3.206691e-01
-3.818411e-01
-4.471965e-01
-5.165526e-01
-5.897272e-01
-6.665383e-01
-7.468030e-01
-8.303370e-01
-9.169532e-01
-1.006460e+00
-1.098658e+00
-1.193337e+00
-1.290272e+00
-1.389214e+00
-1.489880e+00
-1.591945e+00
-1.695024e+00
-1.798658e+00
-1.902305e+00
-2.005327e+00
-2.107005e+00
-2.206557e+00
-2.303168e+00
-2.395999e+00
0.000000e+00
-1.120476e-02
-3.057612e-02
-5.684164e-02
-8.903057e-02
-1.265698e-01
-1.691503e-01
-2.165789e-01
-2.686904e-01
-3.253225e-01
-3.863077e-01
-4.514736e-01
-5.206440e-01
-5.936401e-01
-6.702815e-01
-7.503854e-01
-8.337668e-01
-9.202363e-01
-1.009598e+00
-1.101646e+00
-1.196159e+00
-1.292898e+00
-1.391590e+00
-1.491931e+00
-1.593565e+00
-1.696082e+00
-1.799009e+00
-1.901811e+00
-2.003903e+00
-2.104675e+00
-2.203527e+00
-2.299907e+00
-2.393297e+00
0.000000e+00
-1.324380e-02
-3.468107e-02
-6.240834e-02
-9.534887e-02
-1.331379e-01
-1.757061e-01
-2.229870e-01
-2.748856e-01
-3.312754e-01
-3.920076e-01
-4.569190e-01
-5.258380e-01
-5.985878e-01
-6.749884e-01
-7.548569e-01
-8.380071e-01
-9.242477e-01
-1.013379e+00
-1.105191e+00
-1.199454e+00
-1.295916e+00
-1.394294e+00
-1.494263e+00
-1.595453e+00
-1.697439e+00
-1.799742e+00
-1.901838e+00
-2.003186e+00
-2.103262e+00
-2.201622e+00
-2.297960e+00
-2.392119e+00
0.000000e+00
-1.654410e-02
-4.096115e-02
-7.025030e-02
-1.036201e-01
-1.414220e-01
-1.838110e-01
-2.308316e-01
-2.824344e-01
-3.385138e-01
-3.989310e-01
-4.635271e-01
-5.321323e-01
-6.045703e-01
-6.806610e-01
-7.602208e-01
-8.430624e-01
-9.289927e-01
-1.017810e+00
-1.109299e+00
-1.203227e+00
-1.299335e+00
-1.397332e+00
-1.496886e+00
-1.597617e+00
-1.699096e+00
-1.800844e+00
-1.902351e+00
-2.003105e+00
-2.102643e+00
-2.200635e+00
-2.296981e+00
-2.391913e+00
0.000000e+00
-2.253089e-02
-5.081702e-02
-8.051157e-02
-1.138238e-01
-1.513503e-01
-1.934087e-01
-2.400754e-01
-2.913149e-01
-3.470270e-01
-4.070745e-01
-4.712997e-01
-5.395328e-01
-6.115974e-01
-6.873125e-01
-7.664938e-01
-8.489526e-01
-9.344942e-01
-1.022915e+00
-1.113997e+00
-1.207506e+00
-1.303179e+00
-1.400722e+00
-1.499803e+00
-1.600040e+00
-1.701008e+00
-1.802237e+00
-1.903229e+00
-2.003497e+00
-2.102614e+00
-2.200313e+00
-2.296627e+00
-2.392088e+00
0.000000e+00
-3.626561e-02
-6.328955e-02
-9.278644e-02
-1.256423e-01
-1.627671e-01
-2.044226e-01
-2.506861e-01
-3.015179e-01
-3.568171e-01
-4.164469e-01
-4.802498e-01
-5.480562e-01
-6.196893e-01
-6.949678e-01
-7.737061e-01
-8.557141e-01
-9.407952e-01
-1.028743e+00
-1.119339e+00
-1.212345e+00
-1.307497e+00
-1.404502e+00