TITLE = "Solution"
VARIABLES = x, y, u, v, psiu, psiv, t, stress
ZONE T="structure" N=561 E=512 F=FEBLOCK ET=QUADRILATERAL VARLOCATION=([7,8]=cellcentered)
0.000000e+00
6.250000e+00
1.250000e+01
1.875000e+01
2.500000e+01
3.125000e+01
3.750000e+01
4.375000e+01
5.000000e+01
5.625000e+01
6.250000e+01
6.875000e+01
7.500000e+01
8.125000e+01
8.750000e+01
9.375000e+01
1.000000e+02
1.062500e+02
1.125000e+02
1.187500e+02
1.250000e+02
1.312500e+02
1.375000e+02
1.437500e+02
1.500000e+02
1.562500e+02
1.625000e+02
1.687500e+02
1.750000e+02
1.812500e+02
1.875000e+02
1.937500e+02
2.000000e+02
0.000000e+00
6.250000e+00
1.250000e+01
1.875000e+01
2.500000e+01
3.125000e+01
3.750000e+01
4.375000e+01
5.000000e+01
5.625000e+01
6.250000e+01
6.875000e+01
7.500000e+01
8.125000e+01
8.750000e+01
9.375000e+01
1.000000e+02
1.062500e+02
1.125000e+02
1.187500e+02
1.250000e+02
1.312500e+02
1.375000e+02
1.437500e+02
1.500000e+02
1.562500e+02
1.625000e+02
1.687500e+02
1.750000e+02
1.812500e+02
1.875000e+02
1.937500e+02
2.000000e+02
0.000000e+00
6.250000e+00
1.250000e+01
1.875000e+01
2.500000e+01
3.125000e+01
3.750000e+01
4.375000e+01
5.000000e+01
5.625000e+01
6.250000e+01
6.875000e+01
7.500000e+01
8.125000e+01
8.750000e+01
9.375000e+01
1.000000e+02
1.062500e+02
1.125000e+02
1.187500e+02
1.250000e+02
1.312500e+02
1.375000e+02
1.437500e+02
1.500000e+02
1.562500e+02
1.625000e+02
1.687500e+02
1.750000e+02
1.812500e+02
1.875000e+02
1.937500e+02
2.000000e+02
0.000000e+00
6.250000e+00
1.250000e+01
1.875000e+01
2.500000e+01
3.125000e+01
3.750000e+01
4.375000e+01
5.000000e+01
5.625000e+01
6.250000e+01
6.875000e+01
7.500000e+01
8.125000e+01
8.750000e+01
9.375000e+01
1.000000e+02
1.062500e+02
1.125000e+02
1.187500e+02
1.250000e+02
1.312500e+02
1.375000e+02
1.437500e+02
1.500000e+02
1.562500e+02
1.625000e+02
1.687500e+02
1.750000e+02
1.812500e+02
1.875000e+02
1.937500e+02
2.000000e+02
0.000000e+00
6.250000e+00
1.250000e+01
1.875000e+01
2.500000e+01
3.125000e+01
3.750000e+01
4.375000e+01
5.000000e+01
5.625000e+01
6.250000e+01
6.875000e+01
7.500000e+01
8.125000e+01
8.750000e+01
9.375000e+01
1.000000e+02
1.062500e+02
1.125000e+02
1.187500e+02
1.250000e+02
1.312500e+02
1.375000e+02
1.437500e+02
1.500000e+02
1.562500e+02
1.625000e+02
1.687500e+02
1.750000e+02
1.812500e+02
1.875000e+02
1.937500e+02
2.000000e+02
0.000000e+00
6.250000e+00
1.250000e+01
1.875000e+01
2.500000e+01
3.125000e+01
3.750000e+01
4.375000e+01
5.000000e+01
5.625000e+01
6.250000e+01
6.875000e+01
7.500000e+01
8.125000e+01
8.750000e+01
9.375000e+01
1.000000e+02
1.062500e+02
1.125000e+02
1.187500e+02
1.250000e+02
1.312500e+02
1.375000e+02
1.437500e+02
1.500000e+02
1.562500e+02
1.625000e+02
1.687500e+02
1.750000e+02
1.812500e+02
1.875000e+02
1.937500e+02
2.000000e+02
0.000000e+00
6.250000e+00
1.250000e+01
1.875000e+01
2.500000e+01
3.125000e+01
3.750000e+01
4.375000e+01
5.000000e+01
5.625000e+01
6.250000e+01
6.875000e+01
7.500000e+01
8.125000e+01
8.750000e+01
9.375000e+01
1.000000e+02
1.062500e+02
1.125000e+02
1.187500e+02
1.250000e+02
1.312500e+02
1.375000e+02
1.437500e+02
1.500000e+02
1.562500e+02
1.625000e+02
1.687500e+02
1.750000e+02
1.812500e+02
1.875000e+02
1.937500e+02
2.000000e+02
0.000000e+00
6.250000e+00
1.250000e+01
1.875000e+01
2.500000e+01
3.125000e+01
3.750000e+01
4.375000e+01
5.000000e+01
5.625000e+01
6.250000e+01
6.875000e+01
7.500000e+01
8.125000e+01
8.750000e+01
9.375000e+01
1.000000e+02
1.062500e+02
1.125000e+02
1.187500e+02
1.250000e+02
1.312500e+02
1.375000e+02
1.437500e+02
1.500000e+02
1.562500e+02
1.625000e+02
1.687500e+02
1.750000e+02
1.812500e+02
1.875000e+02
1.937500e+02
2.000000e+02
0.000000e+00
6.250000e+00
1.250000e+01
1.875000e+01
2.500000e+01
3.125000e+01
3.750000e+01
4.375000e+01
5.000000e+01
5.625000e+01
6.250000e+01
6.875000e+01
7.500000e+01
8.125000e+01
8.750000e+01
9.375000e+01
1.000000e+02
1.062500e+02
1.125000e+02
1.187500e+02
1.250000e+02
1.312500e+02
1.375000e+02
1.437500e+02
1.500000e+02
1.562500e+02
1.625000e+02
1.687500e+02
1.750000e+02
1.812500e+02
1.875000e+02
1.937500e+02
2.000000e+02
0.000000e+00
6.250000e+00
1.250000e+01
1.875000e+01
2.500000e+01
3.125000e+01
3.750000e+01
4.375000e+01
5.000000e+01
5.625000e+01
6.250000e+01
6.875000e+01
7.500000e+01
8.125000e+01
8.750000e+01
9.375000e+01
1.000000e+02
1.062500e+02
1.125000e+02
1.187500e+02
1.250000e+02
1.312500e+02
1.375000e+02
1.437500e+02
1.500000e+02
1.562500e+02
1.625000e+02
1.687500e+02
1.750000e+02
1.812500e+02
1.875000e+02
1.937500e+02
2.000000e+02
0.000000e+00
6.250000e+00
1.250000e+01
1.875000e+01
2.500000e+01
3.125000e+01
3.750000e+01
4.375000e+01
5.000000e+01
5.625000e+01
6.250000e+01
6.875000e+01
7.500000e+01
8.125000e+01
8.750000e+01
9.375000e+01
1.000000e+02
1.062500e+02
1.125000e+02
1.187500e+02
1.250000e+02
1.312500e+02
1.375000e+02
1.437500e+02
1.500000e+02
1.562500e+02
1.625000e+02
1.687500e+02
1.750000e+02
1.812500e+02
1.875000e+02
1.937500e+02
2.000000e+02
0.000000e+00
6.250000e+00
1.250000e+01
1.875000e+01
2.500000e+01
3.125000e+01
3.750000e+01
4.375000e+01
5.000000e+01
5.625000e+01
6.250000e+01
6.875000e+01
7.500000e+01
8.125000e+01
8.750000e+01
9.375000e+01
1.000000e+02
1.062500e+02
1.125000e+02
1.187500e+02
1.250000e+02
1.312500e+02
1.375000e+02
1.437500e+02
1.500000e+02
1.562500e+02
1.625000e+02
1.687500e+02
1.750000e+02
1.812500e+02
1.875000e+02
1.937500e+02
2.000000e+02
0.000000e+00
6.250000e+00
1.250000e+01
1.875000e+01
2.500000e+01
3.125000e+01
3.750000e+01
4.375000e+01
5.000000e+01
5.625000e+01
6.250000e+01
6.875000e+01
7.500000e+01
8.125000e+01
8.750000e+01
9.375000e+01
1.000000e+02
1.062500e+02
1.125000e+02
1.187500e+02
1.250000e+02
1.312500e+02
1.375000e+02
1.437500e+02
1.500000e+02
1.562500e+02
1.625000e+02
1.687500e+02
1.750000e+02
1.812500e+02
1.875000e+02
1.937500e+02
2.000000e+02
0.000000e+00
6.250000e+00
1.250000e+01
1.875000e+01
2.500000e+01
3.125000e+01
3.750000e+01
4.375000e+01
5.000000e+01
5.625000e+01
6.250000e+01
6.875000e+01
7.500000e+01
8.125000e+01
8.750000e+01
9.375000e+01
1.000000e+02
1.062500e+02
1.125000e+02
1.187500e+02
1.250000e+02
1.312500e+02
1.375000e+02
1.437500e+02
1.500000e+02
1.562500e+02
1.625000e+02
1.687500e+02
1.750000e+02
1.812500e+02
1.875000e+02
1.937500e+02
2.000000e+02
0.000000e+00
6.250000e+00
1.250000e+01
1.875000e+01
2.500000e+01
3.125000e+01
3.750000e+01
4.375000e+01
5.000000e+01
5.625000e+01
6.250000e+01
6.875000e+01
7.500000e+01
8.125000e+01
8.750000e+01
9.375000e+01
1.000000e+02
1.062500e+02
1.125000e+02
1.187500e+02
1.250000e+02
1.312500e+02
1.375000e+02
1.437500e+02
1.500000e+02
1.562500e+02
1.625000e+02
1.687500e+02
1.750000e+02
1.812500e+02
1.875000e+02
1.937500e+02
2.000000e+02
0.000000e+00
6.250000e+00
1.250000e+01
1.875000e+01
2.500000e+01
3.125000e+01
3.750000e+01
4.375000e+01
5.000000e+01
5.625000e+01
6.250000e+01
6.875000e+01
7.500000e+01
8.125000e+01
8.750000e+01
9.375000e+01
1.000000e+02
1.062500e+02
1.125000e+02
1.187500e+02
1.250000e+02
1.312500e+02
1.375000e+02
1.437500e+02
1.500000e+02
1.562500e+02
1.625000e+02
1.687500e+02
1.750000e+02
1.812500e+02
1.875000e+02
1.937500e+02
2.000000e+02
0.000000e+00
6.250000e+00
1.250000e+01
1.875000e+01
2.500000e+01
3.125000e+01
3.750000e+01
4.375000e+01
5.000000e+01
5.625000e+01
6.250000e+01
6.875000e+01
7.500000e+01
8.125000e+01
8.750000e+01
9.375000e+01
1.000000e+02
1.062500e+02
1.125000e+02
1.187500e+02
1.250000e+02
1.312500e+02
1.375000e+02
1.437500e+02
1.500000e+02
1.562500e+02
1.625000e+02
1.687500e+02
1.750000e+02
1.812500e+02
1.875000e+02
1.937500e+02
2.000000e+02
0.000000e+00
0.000000e+00
0.000000e+00
0.000000e+00
0.000000e+00
0.000000e+00
0.000000e+00
0.000000e+00
0.000000e+00
0.000000e+00
0.000000e+00
0.000000e+00
0.000000e+00
0.000000e+00
0.000000e+00
0.000000e+00
0.000000e+00
0.000000e+00
0.000000e+00
0.000000e+00
0.000000e+00
0.000000e+00
0.000000e+00
0.000000e+00
0.000000e+00
0.000000e+00
0.000000e+00
0.000000e+00
0.000000e+00
0.000000e+00
0.000000e+00
0.000000e+00
0.000000e+00
6.250000e+00
6.250000e+00
6.250000e+00
6.250000e+00
6.250000e+00
6.250000e+00
6.250000e+00
6.250000e+00
6.250000e+00
6.250000e+00
6.250000e+00
6.250000e+00
6.250000e+00
6.250000e+00
6.250000e+00
6.250000e+00
6.250000e+00
6.250000e+00
6.250000e+00
6.250000e+00
6.250000e+00
6.250000e+00
6.250000e+00
6.250000e+00
6.250000e+00
6.250000e+00
6.250000e+00
6.250000e+00
6.250000e+00
6.250000e+00
6.250000e+00
6.250000e+00
6.250000e+00
1.250000e+01
1.250000e+01
1.250000e+01
1.250000e+01
1.250000e+01
1.250000e+01
1.250000e+01
1.250000e+01
1.250000e+01
1.250000e+01
1.250000e+01
1.250000e+01
1.250000e+01
1.250000e+01
1.250000e+01
1.250000e+01
1.250000e+01
1.250000e+01
1.250000e+01
1.250000e+01
1.250000e+01
1.250000e+01
1.250000e+01
1.250000e+01
1.250000e+01
1.250000e+01
1.250000e+01
1.250000e+01
1.250000e+01
1.250000e+01
1.250000e+01
1.250000e+01
1.250000e+01
1.875000e+01
1.875000e+01
1.875000e+01
1.875000e+01
1.875000e+01
1.875000e+01
1.875000e+01
1.875000e+01
1.875000e+01
1.875000e+01
1.875000e+01
1.875000e+01
1.875000e+01
1.875000e+01
1.875000e+01
1.875000e+01
1.875000e+01
1.875000e+01
1.875000e+01
1.875000e+01
1.875000e+01
1.875000e+01
1.875000e+01
1.875000e+01
1.875000e+01
1.875000e+01
1.875000e+01
1.875000e+01
1.875000e+01
1.875000e+01
1.875000e+01
1.875000e+01
1.875000e+01
2.500000e+01
2.500000e+01
2.500000e+01
2.500000e+01
2.500000e+01
2.500000e+01
2.500000e+01
2.500000e+01
2.500000e+01
2.500000e+01
2.500000e+01
2.500000e+01
2.500000e+01
2.500000e+01
2.500000e+01
2.500000e+01
2.500000e+01
2.500000e+01
2.500000e+01
2.500000e+01
2.500000e+01
2.500000e+01
2.500000e+01
2.500000e+01
2.500000e+01
2.500000e+01
2.500000e+01
2.500000e+01
2.500000e+01
2.500000e+01
2.500000e+01
2.500000e+01
2.500000e+01
3.125000e+01
3.125000e+01
3.125000e+01
3.125000e+01
3.125000e+01
3.125000e+01
3.125000e+01
3.125000e+01
3.125000e+01
3.125000e+01
3.125000e+01
3.125000e+01
3.125000e+01
3.125000e+01
3.125000e+01
3.125000e+01
3.125000e+01
3.125000e+01
3.125000e+01
3.125000e+01
3.125000e+01
3.125000e+01
3.125000e+01
3.125000e+01
3.125000e+01
3.125000e+01
3.125000e+01
3.125000e+01
3.125000e+01
3.125000e+01
3.125000e+01
3.125000e+01
3.125000e+01
3.750000e+01
3.750000e+01
3.750000e+01
3.750000e+01
3.750000e+01
3.750000e+01
3.750000e+01
3.750000e+01
3.750000e+01
3.750000e+01
3.750000e+01
3.750000e+01
3.750000e+01
3.750000e+01
3.750000e+01
3.750000e+01
3.750000e+01
3.750000e+01
3.750000e+01
3.750000e+01
3.750000e+01
3.750000e+01
3.750000e+01
3.750000e+01
3.750000e+01
3.750000e+01
3.750000e+01
3.750000e+01
3.750000e+01
3.750000e+01
3.750000e+01
3.750000e+01
3.750000e+01
4.375000e+01
4.375000e+01
4.375000e+01
4.375000e+01
4.375000e+01
4.375000e+01
4.375000e+01
4.375000e+01
4.375000e+01
4.375000e+01
4.375000e+01
4.375000e+01
4.375000e+01
4.375000e+01
4.375000e+01
4.375000e+01
4.375000e+01
4.375000e+01
4.375000e+01
4.375000e+01
4.375000e+01
4.375000e+01
4.375000e+01
4.375000e+01
4.375000e+01
4.375000e+01
4.375000e+01
4.375000e+01
4.375000e+01
4.375000e+01
4.375000e+01
4.375000e+01
4.375000e+01
5.000000e+01
5.000000e+01
5.000000e+01
5.000000e+01
5.000000e+01
5.000000e+01
5.000000e+01
5.000000e+01
5.000000e+01
5.000000e+01
5.000000e+01
5.000000e+01
5.000000e+01
5.000000e+01
5.000000e+01
5.000000e+01
5.000000e+01
5.000000e+01
5.000000e+01
5.000000e+01
5.000000e+01
5.000000e+01
5.000000e+01
5.000000e+01
5.000000e+01
5.000000e+01
5.000000e+01
5.000000e+01
5.000000e+01
5.000000e+01
5.000000e+01
5.000000e+01
5.000000e+01
5.625000e+01
5.625000e+01
5.625000e+01
5.625000e+01
5.625000e+01
5.625000e+01
5.625000e+01
5.625000e+01
5.625000e+01
5.625000e+01
5.625000e+01
5.625000e+01
5.625000e+01
5.625000e+01
5.625000e+01
5.625000e+01
5.625000e+01
5.625000e+01
5.625000e+01
5.625000e+01
5.625000e+01
5.625000e+01
5.625000e+01
5.625000e+01
5.625000e+01
5.625000e+01
5.625000e+01
5.625000e+01
5.625000e+01
5.625000e+01
5.625000e+01
5.625000e+01
5.625000e+01
6.250000e+01
6.250000e+01
6.250000e+01
6.250000e+01
6.250000e+01
6.250000e+01
6.250000e+01
6.250000e+01
6.250000e+01
6.250000e+01
6.250000e+01
6.250000e+01
6.250000e+01
6.250000e+01
6.250000e+01
6.250000e+01
6.250000e+01
6.250000e+01
6.250000e+01
6.250000e+01
6.250000e+01
6.250000e+01
6.250000e+01
6.250000e+01
6.250000e+01
6.250000e+01
6.250000e+01
6.250000e+01
6.250000e+01
6.250000e+01
6.250000e+01
6.250000e+01
6.250000e+01
6.875000e+01
6.875000e+01
6.875000e+01
6.875000e+01
6.875000e+01
6.875000e+01
6.875000e+01
6.875000e+01
6.875000e+01
6.875000e+01
6.875000e+01
6.875000e+01
6.875000e+01
6.875000e+01
6.875000e+01
6.875000e+01
6.875000e+01
6.875000e+01
6.875000e+01
6.875000e+01
6.875000e+01
6.875000e+01
6.875000e+01
6.875000e+01
6.875000e+01
6.875000e+01
6.875000e+01
6.875000e+01
6.875000e+01
6.875000e+01
6.875000e+01
6.875000e+01
6.875000e+01
7.500000e+01
7.500000e+01
7.500000e+01
7.500000e+01
7.500000e+01
7.500000e+01
7.500000e+01
7.500000e+01
7.500000e+01
7.500000e+01
7.500000e+01
7.500000e+01
7.500000e+01
7.500000e+01
7.500000e+01
7.500000e+01
7.500000e+01
7.500000e+01
7.500000e+01
7.500000e+01
7.500000e+01
7.500000e+01
7.500000e+01
7.500000e+01
7.500000e+01
7.500000e+01
7.500000e+01
7.500000e+01
7.500000e+01
7.500000e+01
7.500000e+01
7.500000e+01
7.500000e+01
8.125000e+01
8.125000e+01
8.125000e+01
8.125000e+01
8.125000e+01
8.125000e+01
8.125000e+01
8.125000e+01
8.125000e+01
8.125000e+01
8.125000e+01
8.125000e+01
8.125000e+01
8.125000e+01
8.125000e+01
8.125000e+01
8.125000e+01
8.125000e+01
8.125000e+01
8.125000e+01
8.125000e+01
8.125000e+01
8.125000e+01
8.125000e+01
8.125000e+01
8.125000e+01
8.125000e+01
8.125000e+01
8.125000e+01
8.125000e+01
8.125000e+01
8.125000e+01
8.125000e+01
8.750000e+01
8.750000e+01
8.750000e+01
8.750000e+01
8.750000e+01
8.750000e+01
8.750000e+01
8.750000e+01
8.750000e+01
8.750000e+01
8.750000e+01
8.750000e+01
8.750000e+01
8.750000e+01
8.750000e+01
8.750000e+01
8.750000e+01
8.750000e+01
8.750000e+01
8.750000e+01
8.750000e+01
8.750000e+01
8.750000e+01
8.750000e+01
8.750000e+01
8.750000e+01
8.750000e+01
8.750000e+01
8.750000e+01
8.750000e+01
8.750000e+01
8.750000e+01
8.750000e+01
9.375000e+01
9.375000e+01
9.375000e+01
9.375000e+01
9.375000e+01
9.375000e+01
9.375000e+01
9.375000e+01
9.375000e+01
9.375000e+01
9.375000e+01
9.375000e+01
9.375000e+01
9.375000e+01
9.375000e+01
9.375000e+01
9.375000e+01
9.375000e+01
9.375000e+01
9.375000e+01
9.375000e+01
9.375000e+01
9.375000e+01
9.375000e+01
9.375000e+01
9.375000e+01
9.375000e+01
9.375000e+01
9.375000e+01
9.375000e+01
9.375000e+01
9.375000e+01
9.375000e+01
1.000000e+02
1.000000e+02
1.000000e+02
1.000000e+02
1.000000e+02
1.000000e+02
1.000000e+02
1.000000e+02
1.000000e+02
1.000000e+02
1.000000e+02
1.000000e+02
1.000000e+02
1.000000e+02
1.000000e+02
1.000000e+02
1.000000e+02
1.000000e+02
1.000000e+02
1.000000e+02
1.000000e+02
1.000000e+02
1.000000e+02
1.000000e+02
1.000000e+02
1.000000e+02
1.000000e+02
1.000000e+02
1.000000e+02
1.000000e+02
1.000000e+02
1.000000e+02
1.000000e+02
0.000000e+00
-4.430852e-02
-8.039191e-02
-1.138181e-01
-1.458978e-01
-1.768756e-01
-2.068138e-01
-2.357096e-01
-2.635449e-01
-2.902993e-01
-3.159563e-01
-3.405041e-01
-3.639368e-01
-3.862539e-01
-4.074607e-01
-4.275682e-01
-4.465945e-01
-4.645659e-01
-4.815183e-01
-4.975006e-01
-5.125777e-01
-5.268357e-01
-5.403880e-01
-5.533855e-01
-5.660298e-01
-5.785955e-01
-5.914636e-01
-6.051775e-01
-6.205343e-01
-6.387072e-01
-6.612180e-01
-6.880447e-01
-7.044167e-01
0.000000e+00
-2.970767e-02
-6.181000e-02
-9.207826e-02
-1.208471e-01
-1.483904e-01
-1.748536e-01
-2.003007e-01
-2.247568e-01
-2.482301e-01
-2.707224e-01
-2.922335e-01
-3.127645e-01
-3.323188e-01
-3.509027e-01
-3.685267e-01
-3.852058e-01
-4.009605e-01
-4.158182e-01
-4.298142e-01
-4.429940e-01
-4.554143e-01
-4.671461e-01
-4.782757e-01
-4.889068e-01
-4.991583e-01
-5.091558e-01
-5.190028e-01
-5.286985e-01
-5.379275e-01
-5.456178e-01
-5.501139e-01
-5.563732e-01
0.000000e+00
-2.356419e-02
-4.851256e-02
-7.391397e-02
-9.859627e-02
-1.223690e-01
-1.452169e-01
-1.671617e-01
-1.882228e-01
-2.084134e-01
-2.277422e-01
-2.462151e-01
-2.638373e-01
-2.806139e-01
-2.965512e-01
-3.116569e-01
-3.259409e-01
-3.394154e-01
-3.520956e-01
-3.639996e-01
-3.751482e-01
-3.855639e-01
-3.952689e-01
-4.042805e-01
-4.126022e-01
-4.202074e-01
-4.270089e-01
-4.328067e-01
-4.372086e-01
-4.395789e-01
-4.393711e-01
-4.380401e-01
-4.453493e-01
0.000000e+00
-1.869610e-02
-3.842475e-02
-5.869347e-02
-7.891469e-02
-9.864611e-02
-1.177188e-01
-1.360720e-01
-1.536895e-01
-1.705704e-01
-1.867192e-01
-2.021413e-01
-2.168418e-01
-2.308253e-01
-2.440960e-01
-2.566577e-01
-2.685138e-01
-2.796673e-01
-2.901205e-01
-2.998740e-01
-3.089253e-01
-3.172662e-01
-3.248781e-01
-3.317256e-01
-3.377454e-01
-3.428314e-01
-3.468152e-01
-3.494533e-01
-3.504606e-01
-3.497128e-01
-3.478967e-01
-3.477883e-01
-3.547521e-01
0.000000e+00
-1.451078e-02
-2.971314e-02
-4.540112e-02
-6.121656e-02
-7.683802e-02
-9.204996e-02
-1.067433e-01
-1.208683e-01
-1.344060e-01
-1.473514e-01
-1.597051e-01
-1.714694e-01
-1.826465e-01
-1.932369e-01
-2.032397e-01
-2.126518e-01
-2.214676e-01
-2.296779e-01
-2.372690e-01
-2.442205e-01
-2.505026e-01
-2.560724e-01
-2.608688e-01
-2.648069e-01
-2.677753e-01
-2.696432e-01
-2.702984e-01
-2.697609e-01
-2.684455e-01
-2.675922e-01
-2.695628e-01
-2.755033e-01
0.000000e+00
-1.066458e-02
-2.178607e-02
-3.326487e-02
-4.490262e-02
-5.648209e-02
-6.783082e-02
-7.883671e-02
-8.943822e-02
-9.960544e-02
-1.093257e-01
-1.185947e-01
-1.274107e-01
-1.357721e-01
-1.436759e-01
-1.511164e-01
-1.580847e-01
-1.645681e-01
-1.705491e-01
-1.760044e-01
-1.809030e-01
-1.852054e-01
-1.888613e-01
-1.918093e-01
-1.939795e-01
-1.953037e-01
-1.957430e-01
-1.953487e-01
-1.943770e-01
-1.934525e-01
-1.936776e-01
-1.961898e-01
-2.011051e-01
0.000000e+00
-7.018577e-03
-1.431477e-02
-2.184242e-02
-2.949418e-02
-3.714126e-02
-4.466832e-02
-5.199131e-02
-5.905762e-02
-6.583823e-02
-7.231846e-02
-7.849094e-02
-8.435094e-02
-8.989358e-02
-9.511218e-02
-9.999719e-02
-1.045354e-01
-1.087095e-01
-1.124969e-01
-1.158698e-01
-1.187943e-01
-1.212308e-01
-1.231350e-01
-1.244619e-01
-1.251749e-01
-1.252633e-01
-1.247758e-01
-1.238738e-01
-1.229004e-01
-1.224286e-01
-1.231647e-01
-1.256106e-01
-1.295783e-01
0.000000e+00
-3.486125e-03
-7.104046e-03
-1.083517e-02
-1.463237e-02
-1.843566e-02
-2.218808e-02
-2.584505e-02
-2.937645e-02
-3.276389e-02
-3.599646e-02
-3.906696e-02
-4.196910e-02
-4.469568e-02
-4.723741e-02
-4.958209e-02
-5.171399e-02
-5.361342e-02
-5.525651e-02
-5.661527e-02
-5.765830e-02
-5.835258e-02
-5.866708e-02
-5.857961e-02
-5.808843e-02
-5.723104e-02
-5.611119e-02
-5.493124e-02
-5.401525e-02
-5.378579e-02
-5.464949e-02
-5.678314e-02
-5.993146e-02
0.000000e+00
-5.624528e-06
-1.219558e-05
-1.934913e-05
-2.670890e-05
-3.376754e-05
-3.976045e-05
-4.352571e-05
-4.334042e-05
-3.672364e-05
-2.019858e-05
1.099030e-05
6.320474e-05
1.447775e-04
2.663971e-04
4.414788e-04
6.864655e-04
1.020964e-03
1.467568e-03
2.051155e-03
2.797297e-03
3.729339e-03
4.863448e-03
6.200854e-03
7.716504e-03
9.344005e-03
1.095875e-02
1.236557e-02
1.330469e-02
1.349513e-02
1.272830e-02
1.099168e-02
8.559456e-03
0.000000e+00
3.475531e-03
7.081028e-03
1.079857e-02
1.458174e-02
1.837147e-02
2.211221e-02
2.576156e-02
2.929261e-02
3.269160e-02
3.595416e-02
3.908199e-02
4.208076e-02
4.495899e-02
4.772754e-02
5.039957e-02
5.299050e-02
5.551794e-02
5.800115e-02
6.045998e-02
6.291280e-02
6.537312e-02
6.784443e-02
7.031303e-02
7.273879e-02
7.504515e-02
7.711140e-02
7.877328e-02
7.984109e-02
8.014339e-02
7.959589e-02
7.827666e-02
7.647147e-02
0.000000e+00
7.009922e-03
1.429583e-02
2.181210e-02
2.945191e-02
3.708716e-02
4.460364e-02
5.191900e-02
5.898318e-02
6.577089e-02
7.227271e-02
7.848851e-02
8.442331e-02
9.008510e-02
9.548383e-02
1.006310e-01
1.055395e-01
1.102233e-01
1.146969e-01
1.189743e-01
1.230664e-01
1.269786e-01
1.307054e-01
1.342254e-01
1.374943e-01
1.404396e-01
1.429589e-01
1.449266e-01
1.462144e-01
1.467294e-01
1.464646e-01
1.455518e-01
1.442919e-01
0.000000e+00
1.065906e-02
2.177377e-02
3.324484e-02
4.487418e-02
5.644497e-02
6.778540e-02
7.878443e-02
8.938211e-02
9.955086e-02
1.092814e-01
1.185739e-01
1.274332e-01
1.358662e-01
1.438808e-01
1.514854e-01
1.586891e-01
1.655010e-01
1.719299e-01
1.779830e-01
1.836648e-01
1.889739e-01
1.938999e-01
1.984197e-01
2.024933e-01
2.060615e-01
2.090474e-01
2.113649e-01
2.129364e-01
2.137239e-01
2.137682e-01
2.132327e-01
2.124364e-01
0.000000e+00
1.450941e-02
2.970971e-02
4.539498e-02
6.120707e-02
7.682464e-02
9.203235e-02
1.067214e-01
1.208426e-01
1.343776e-01
1.473225e-01
1.596794e-01
1.714529e-01
1.826478e-01
1.932689e-01
2.033205e-01
2.128064e-01
2.217296e-01
2.300924e-01
2.378952e-01
2.451355e-01
2.518068e-01
2.578962e-01
2.633827e-01
2.682353e-01
2.724135e-01
2.758693e-01
2.785552e-01
2.804375e-01
2.815189e-01
2.818697e-01
2.816686e-01
2.812491e-01
0.000000e+00
1.869957e-02
3.843181e-02
5.870397e-02
7.892834e-02
9.866252e-02
1.177373e-01
1.360919e-01
1.537091e-01
1.705874e-01
1.867299e-01
2.021402e-01
2.168213e-01
2.307748e-01
2.440010e-01
2.564987e-01
2.682656e-01
2.792979e-01
2.895902e-01
2.991350e-01
3.079229e-01
3.159415e-01
3.231755e-01
3.296069e-01
3.352150e-01
3.399788e-01
3.438805e-01
3.469113e-01
3.490804e-01
3.504284e-01
3.510485e-01
3.511224e-01
3.509832e-01
0.000000e+00
2.357267e-02
4.853066e-02
7.394231e-02
9.863540e-02
1.224194e-01
1.452786e-01
1.672341e-01
1.883037e-01
2.084988e-01
2.278246e-01
2.462828e-01
2.638721e-01
2.805891e-01
2.964287e-01
3.113836e-01
3.254447e-01
3.386005e-01
3.508371e-01
3.621381e-01
3.724850e-01
3.818577e-01
3.902358e-01
3.976005e-01
4.039380e-01
4.092433e-01
4.135260e-01
4.168164e-01
4.191713e-01
4.206796e-01
4.214690e-01
4.217262e-01
4.217568e-01
0.000000e+00
2.972040e-02
6.183781e-02
9.212299e-02
1.209109e-01
1.484755e-01
1.749619e-01
2.004332e-01
2.249129e-01
2.484069e-01
2.709124e-01
2.924232e-01
3.129313e-01
3.324272e-01
3.508999e-01
3.683362e-01
3.847203e-01
4.000328e-01
4.142507e-01
4.273473e-01
4.392923e-01
4.500536e-01
4.595993e-01
4.679022e-01
4.749449e-01
4.807279e-01
4.852785e-01
4.886607e-01
4.909841e-01
4.924078e-01
4.931351e-01
4.933989e-01
4.934634e-01
0.000000e+00
4.432245e-02
8.042443e-02
1.138738e-01
1.459812e-01
1.769912e-01
2.069663e-01
2.359035e-01
2.637837e-01
2.905846e-01
3.162855e-01
3.408686e-01
3.643180e-01
3.866188e-01
4.077554e-01
4.277102e-01
4.464619e-01
4.639845e-01
4.802459e-01
4.952075e-01
5.088244e-01
5.210464e-01
5.318211e-01
5.410990e-01
5.488419e-01
5.550341e-01
5.596977e-01
5.629104e-01
5.648254e-01
5.656882e-01
5.658450e-01
5.657151e-01
5.656420e-01
0.000000e+00
-2.738182e-02
-4.778718e-02
-7.005436e-02
-9.485018e-02
-1.228595e-01
-1.542771e-01
-1.891574e-01
-2.274658e-01
-2.691201e-01
-3.140099e-01
-3.620083e-01
-4.129782e-01
-4.667770e-01
-5.232593e-01
-5.822785e-01
-6.436890e-01
-7.073476e-01
-7.731162e-01
-8.408644e-01
-9.104744e-01
-9.818470e-01
-1.054911e+00
-1.129639e+00
-1.206068e+00
-1.284339e+00
-1.364763e+00
-1.447948e+00
-1.535055e+00
-1.628383e+00
-1.732893e+00
-1.860291e+00
-2.036294e+00
0.000000e+00
-1.701676e-02
-3.837580e-02
-6.079318e-02
-8.593460e-02
-1.142483e-01
-1.459711e-01
-1.811567e-01
-2.197734e-01
-2.617390e-01
-3.069426e-01
-3.552561e-01
-4.065413e-01
-4.606545e-01
-5.174488e-01
-5.767762e-01
-6.384893e-01
-7.024427e-01
-7.684958e-01
-8.365148e-01
-9.063778e-01
-9.779805e-01
-1.051246e+00
-1.126137e+00
-1.202681e+00
-1.281006e+00
-1.361409e+00
-1.444476e+00
-1.531346e+00
-1.624277e+00
-1.727981e+00
-1.852542e+00
-2.016975e+00
0.000000e+00
-1.249979e-02
-3.093838e-02
-5.304996e-02
-7.823531e-02
-1.067576e-01
-1.387308e-01
-1.741846e-01
-2.130763e-01
-2.553200e-01
-3.008027e-01
-3.493954e-01
-4.009593e-01
-4.553501e-01
-5.124205e-01
-5.720218e-01
-6.340059e-01
-6.982267e-01
-7.645424e-01
-8.328184e-01
-9.029316e-01
-9.747769e-01
-1.048277e+00
-1.123396e+00
-1.200164e+00
-1.278718e+00
-1.359366e+00
-1.442710e+00
-1.529873e+00
-1.622893e+00
-1.725247e+00
-1.841045e+00
-1.969501e+00
0.000000e+00
-1.000930e-02
-2.619857e-02
-4.713104e-02
-7.199273e-02
-1.005062e-01
-1.326161e-01
-1.682685e-01
-2.073866e-01
-2.498685e-01
-2.955942e-01
-3.444314e-01
-3.962403e-01
-4.508761e-01
-5.081917e-01
-5.680388e-01
-6.302698e-01
-6.947393e-01
-7.613061e-01
-8.298366e-01
-9.002095e-01
-9.723222e-01
-1.046101e+00
-1.121516e+00
-1.198605e+00
-1.277511e+00
-1.358539e+00
-1.442244e+00
-1.529545e+00
-1.621784e+00
-1.720246e+00
-1.824091e+00
-1.920761e+00
0.000000e+00
-8.469516e-03
-2.309890e-02
-4.292791e-02
-6.722286e-02
-9.554934e-02
-1.276714e-01
-1.634396e-01
-2.027249e-01
-2.453986e-01
-2.913275e-01
-3.403732e-01
-3.923932e-01
-4.472424e-01
-5.047742e-01
-5.648414e-01
-6.272979e-01
-6.919998e-01
-7.588078e-01
-8.275909e-01
-8.982302e-01
-9.706262e-01
-1.044708e+00
-1.120449e+00
-1.197883e+00
-1.277136e+00
-1.358455e+00
-1.442242e+00
-1.529024e+00
-1.619228e+00
-1.712423e+00
-1.805188e+00
-1.889377e+00
0.000000e+00
-7.489736e-03
-2.106513e-02
-4.003550e-02
-6.378356e-02
-9.184470e-02
-1.238969e-01
-1.597109e-01
-1.991062e-01
-2.419237e-01
-2.880137e-01
-3.372294e-01
-3.894250e-01
-4.444548e-01
-5.021728e-01
-5.624334e-01
-6.250923e-01
-6.900077e-01
-7.570426e-01
-8.260680e-01
-8.969668e-01
-9.696401e-01
-1.044015e+00
-1.120056e+00
-1.197776e+00
-1.277251e+00
-1.358619e+00
-1.442058e+00
-1.527663e+00
-1.615146e+00
-1.703173e+00
-1.788601e+00
-1.866681e+00
0.000000e+00
-6.880815e-03
-1.977928e-02
-3.815537e-02
-6.147948e-02
-8.929881e-02
-1.212558e-01
-1.570743e-01
-1.965346e-01
-2.394517e-01
-2.856603e-01
-3.350060e-01
-3.873395e-01
-4.425144e-01
-5.003856e-01
-5.608091e-01
-6.236426e-01
-6.887463e-01
-7.559848e-01
-8.252298e-01
-8.963632e-01
-9.692823e-01
-1.043904e+00
-1.120173e+00
-1.198063e+00
-1.277574e+00
-1.358715e+00
-1.441437e+00
-1.525504e+00
-1.610231e+00
-1.694151e+00
-1.774845e+00
-1.849349e+00
0.000000e+00
-6.546203e-03
-1.906579e-02
-3.709588e-02
-6.015829e-02
-8.781585e-02
-1.196996e-01
-1.555102e-01
-1.950056e-01
-2.379842e-01
-2.842706e-01
-3.337049e-01
-3.861358e-01
-4.414168e-01
-4.994040e-01
-5.599550e-01
-6.229290e-01
-6.881876e-01
-7.555959e-01
-8.250240e-01
-8.963500e-01
-9.694617e-01
-1.044260e+00
-1.120658e+00
-1.198579e+00
-1.277944e+00
-1.358635e+00
-1.440432e+00
-1.522899e+00
-1.605225e+00
-1.686087e+00
-1.763666e+00
-1.835939e+00
0.000000e+00
-6.438393e-03
-1.883560e-02
-3.675249e-02
-5.972770e-02
-8.733050e-02
-1.191897e-01
-1.549998e-01
-1.945119e-01
-2.375192e-01
-2.838436e-01
-3.333239e-01
-3.858091e-01
-4.411537e-01
-4.992151e-01
-5.598523e-01
-6.229259e-01
-6.882978e-01
-7.558319e-01
-8.253952e-01
-8.968582e-01
-9.700957e-01
-1.044986e+00
-1.121409e+00
-1.199235e+00
-1.278309e+00
-1.358416e+00
-1.439227e+00
-1.520219e+00
-1.600594e+00
-1.679234e+00
-1.754751e+00
-1.825661e+00
0.000000e+00
-6.543085e-03
-1.906147e-02
-3.709216e-02
-6.015716e-02
-8.781981e-02
-1.197119e-01
-1.555351e-01
-1.950490e-01
-2.380536e-01
-2.843756e-01
-3.338576e-01
-3.863514e-01
-4.417134e-01
-4.998027e-01
-5.604798e-01
-6.236056e-01
-6.890417e-01
-7.566496e-01
-8.262913e-01
-8.978280e-01
-9.711189e-01
-1.046019e+00
-1.122372e+00
-1.200002e+00
-1.278693e+00
-1.358163e+00
-1.438025e+00
-1.517741e+00
-1.596586e+00
-1.673637e+00
-1.747819e+00
-1.818001e+00
0.000000e+00
-6.874830e-03
-1.977098e-02
-3.814819e-02
-6.147723e-02
-8.930624e-02
-1.212792e-01
-1.571220e-01
-1.966175e-01
-2.395843e-01
-2.858612e-01
-3.352986e-01
-3.877526e-01
-4.430830e-01
-5.011504e-01
-5.618163e-01
-6.249418e-01
-6.903872e-01
-7.580111e-01
-8.276693e-01
-8.992129e-01
-9.724855e-01
-1.047319e+00
-1.123526e+00
-1.200891e+00
-1.279154e+00
-1.357992e+00
-1.436995e+00
-1.515647e+00
-1.593313e+00
-1.669247e+00
-1.742620e+00
-1.812563e+00
0.000000e+00
-7.481419e-03
-2.105359e-02
-4.002547e-02
-6.378031e-02
-9.185487e-02
-1.239292e-01
-1.597771e-01
-1.992216e-01
-2.421087e-01
-2.882941e-01
-3.376380e-01
-3.900025e-01
-4.452500e-01
-5.032430e-01
-5.638436e-01
-6.269125e-01
-6.923084e-01
-7.598865e-01
-8.294967e-01
-9.009804e-01
-9.741671e-01
-1.048869e+00
-1.124872e+00
-1.201932e+00
-1.279757e+00
-1.358002e+00
-1.436256e+00
-1.514039e+00
-1.590806e+00
-1.665969e+00
-1.738911e+00
-1.808999e+00
0.000000e+00
-8.459718e-03
-2.308531e-02
-4.291609e-02
-6.721910e-02
-9.556165e-02
-1.277104e-01
-1.635194e-01
-2.028642e-01
-2.456220e-01
-2.916664e-01
-3.408673e-01
-3.930915e-01
-4.482043e-01
-5.060692e-01
-5.665483e-01
-6.295020e-01
-6.947871e-01
-7.622559e-01
-8.317528e-01
-9.031113e-01
-9.761493e-01
-1.050663e+00
-1.126421e+00
-1.203155e+00
-1.280556e+00
-1.358267e+00
-1.435884e+00
-1.512964e+00
-1.589047e+00
-1.663682e+00
-1.736449e+00
-1.806959e+00
0.000000e+00
-9.999231e-03
-2.618462e-02
-4.711902e-02
-7.198950e-02
-1.005206e-01
-1.326601e-01
-1.683576e-01
-2.075416e-01
-2.501165e-01
-2.959698e-01
-3.449786e-01
-3.970131e-01
-4.519398e-01
-5.096229e-01
-5.699243e-01
-6.327034e-01
-6.978158e-01
-7.651108e-01
-8.344292e-01
-9.055984e-01
-9.784281e-01
-1.052704e+00
-1.128182e+00
-1.204581e+00
-1.281581e+00
-1.358820e+00
-1.435904e+00
-1.512422e+00
-1.587980e+00
-1.662243e+00
-1.734979e+00
-1.806070e+00
0.000000e+00
-1.249101e-02
-3.092617e-02
-5.303981e-02
-7.823435e-02
-1.067752e-01
-1.387793e-01
-1.742804e-01
-2.132410e-01
-2.555816e-01
-3.011971e-01
-3.499677e-01
-4.017653e-01
-4.564566e-01
-5.139058e-01
-5.739741e-01
-6.365202e-01
-7.013982e-01
-7.684558e-01
-8.375308e-01
-9.084471e-01
-9.810095e-01
-1.054998e+00
-1.130162e+00
-1.206215e+00
-1.282832e+00
-1.359652e+00
-1.436291e+00
-1.512361e+00
-1.587513e+00
-1.661497e+00
-1.734240e+00
-1.805914e+00
0.000000e+00
-1.701112e-02
-3.836749e-02
-6.078721e-02
-8.593830e-02
-1.142712e-01
-1.460257e-01
-1.812595e-01
-2.199459e-01
-2.620090e-01
-3.073455e-01
-3.558361e-01
-4.073527e-01
-4.617621e-01
-5.189277e-01
-5.787102e-01
-6.409673e-01
-7.055519e-01
-7.723102e-01
-8.410782e-01
-9.116778e-01
-9.839116e-01
-1.057558e+00
-1.132364e+00
-1.208044e+00
-1.284276e+00
-1.360704e+00
-1.436954e+00
-1.512657e+00
-1.587491e+00
-1.661255e+00
-1.733973e+00
-1.806047e+00
0.000000e+00
-2.738102e-02
-4.778442e-02
-7.005488e-02
-9.486136e-02
-1.228910e-01
-1.543413e-01
-1.892707e-01
-2.276492e-01
-2.694007e-01
-3.144217e-01
-3.625935e-01
-4.137879e-01
-4.678716e-01
-5.247074e-01
-5.841555e-01
-6.460722e-01
-7.103092e-01
-7.767108e-01
-8.451114e-01
-9.153312e-01
-9.871719e-01
-1.060411e+00