TITLE = "Solution"
VARIABLES = x, y, u, v, psiu, psiv, t, stress
ZONE T="structure" N=561 E=512 F=FEBLOCK ET=QUADRILATERAL VARLOCATION=([7,8]=cellcentered)
0.000000e+00
6.250000e+00
1.250000e+01
1.875000e+01
2.500000e+01
3.125000e+01
3.750000e+01
4.375000e+01
5.000000e+01
5.625000e+01
6.250000e+01
6.875000e+01
7.500000e+01
8.125000e+01
8.750000e+01
9.375000e+01
1.000000e+02
1.062500e+02
1.125000e+02
1.187500e+02
1.250000e+02
1.312500e+02
1.375000e+02
1.437500e+02
1.500000e+02
1.562500e+02
1.625000e+02
1.687500e+02
1.750000e+02
1.812500e+02
1.875000e+02
1.937500e+02
2.000000e+02
0.000000e+00
6.250000e+00
1.250000e+01
1.875000e+01
2.500000e+01
3.125000e+01
3.750000e+01
4.375000e+01
5.000000e+01
5.625000e+01
6.250000e+01
6.875000e+01
7.500000e+01
8.125000e+01
8.750000e+01
9.375000e+01
1.000000e+02
1.062500e+02
1.125000e+02
1.187500e+02
1.250000e+02
1.312500e+02
1.375000e+02
1.437500e+02
1.500000e+02
1.562500e+02
1.625000e+02
1.687500e+02
1.750000e+02
1.812500e+02
1.875000e+02
1.937500e+02
2.000000e+02
0.000000e+00
6.250000e+00
1.250000e+01
1.875000e+01
2.500000e+01
3.125000e+01
3.750000e+01
4.375000e+01
5.000000e+01
5.625000e+01
6.250000e+01
6.875000e+01
7.500000e+01
8.125000e+01
8.750000e+01
9.375000e+01
1.000000e+02
1.062500e+02
1.125000e+02
1.187500e+02
1.250000e+02
1.312500e+02
1.375000e+02
1.437500e+02
1.500000e+02
1.562500e+02
1.625000e+02
1.687500e+02
1.750000e+02
1.812500e+02
1.875000e+02
1.937500e+02
2.000000e+02
0.000000e+00
6.250000e+00
1.250000e+01
1.875000e+01
2.500000e+01
3.125000e+01
3.750000e+01
4.375000e+01
5.000000e+01
5.625000e+01
6.250000e+01
6.875000e+01
7.500000e+01
8.125000e+01
8.750000e+01
9.375000e+01
1.000000e+02
1.062500e+02
1.125000e+02
1.187500e+02
1.250000e+02
1.312500e+02
1.375000e+02
1.437500e+02
1.500000e+02
1.562500e+02
1.625000e+02
1.687500e+02
1.750000e+02
1.812500e+02
1.875000e+02
1.937500e+02
2.000000e+02
0.000000e+00
6.250000e+00
1.250000e+01
1.875000e+01
2.500000e+01
3.125000e+01
3.750000e+01
4.375000e+01
5.000000e+01
5.625000e+01
6.250000e+01
6.875000e+01
7.500000e+01
8.125000e+01
8.750000e+01
9.375000e+01
1.000000e+02
1.062500e+02
1.125000e+02
1.187500e+02
1.250000e+02
1.312500e+02
1.375000e+02
1.437500e+02
1.500000e+02
1.562500e+02
1.625000e+02
1.687500e+02
1.750000e+02
1.812500e+02
1.875000e+02
1.937500e+02
2.000000e+02
0.000000e+00
6.250000e+00
1.250000e+01
1.875000e+01
2.500000e+01
3.125000e+01
3.750000e+01
4.375000e+01
5.000000e+01
5.625000e+01
6.250000e+01
6.875000e+01
7.500000e+01
8.125000e+01
8.750000e+01
9.375000e+01
1.000000e+02
1.062500e+02
1.125000e+02
1.187500e+02
1.250000e+02
1.312500e+02
1.375000e+02
1.437500e+02
1.500000e+02
1.562500e+02
1.625000e+02
1.687500e+02
1.750000e+02
1.812500e+02
1.875000e+02
1.937500e+02
2.000000e+02
0.000000e+00
6.250000e+00
1.250000e+01
1.875000e+01
2.500000e+01
3.125000e+01
3.750000e+01
4.375000e+01
5.000000e+01
5.625000e+01
6.250000e+01
6.875000e+01
7.500000e+01
8.125000e+01
8.750000e+01
9.375000e+01
1.000000e+02
1.062500e+02
1.125000e+02
1.187500e+02
1.250000e+02
1.312500e+02
1.375000e+02
1.437500e+02
1.500000e+02
1.562500e+02
1.625000e+02
1.687500e+02
1.750000e+02
1.812500e+02
1.875000e+02
1.937500e+02
2.000000e+02
0.000000e+00
6.250000e+00
1.250000e+01
1.875000e+01
2.500000e+01
3.125000e+01
3.750000e+01
4.375000e+01
5.000000e+01
5.625000e+01
6.250000e+01
6.875000e+01
7.500000e+01
8.125000e+01
8.750000e+01
9.375000e+01
1.000000e+02
1.062500e+02
1.125000e+02
1.187500e+02
1.250000e+02
1.312500e+02
1.375000e+02
1.437500e+02
1.500000e+02
1.562500e+02
1.625000e+02
1.687500e+02
1.750000e+02
1.812500e+02
1.875000e+02
1.937500e+02
2.000000e+02
0.000000e+00
6.250000e+00
1.250000e+01
1.875000e+01
2.500000e+01
3.125000e+01
3.750000e+01
4.375000e+01
5.000000e+01
5.625000e+01
6.250000e+01
6.875000e+01
7.500000e+01
8.125000e+01
8.750000e+01
9.375000e+01
1.000000e+02
1.062500e+02
1.125000e+02
1.187500e+02
1.250000e+02
1.312500e+02
1.375000e+02
1.437500e+02
1.500000e+02
1.562500e+02
1.625000e+02
1.687500e+02
1.750000e+02
1.812500e+02
1.875000e+02
1.937500e+02
2.000000e+02
0.000000e+00
6.250000e+00
1.250000e+01
1.875000e+01
2.500000e+01
3.125000e+01
3.750000e+01
4.375000e+01
5.000000e+01
5.625000e+01
6.250000e+01
6.875000e+01
7.500000e+01
8.125000e+01
8.750000e+01
9.375000e+01
1.000000e+02
1.062500e+02
1.125000e+02
1.187500e+02
1.250000e+02
1.312500e+02
1.375000e+02
1.437500e+02
1.500000e+02
1.562500e+02
1.625000e+02
1.687500e+02
1.750000e+02
1.812500e+02
1.875000e+02
1.937500e+02
2.000000e+02
0.000000e+00
6.250000e+00
1.250000e+01
1.875000e+01
2.500000e+01
3.125000e+01
3.750000e+01
4.375000e+01
5.000000e+01
5.625000e+01
6.250000e+01
6.875000e+01
7.500000e+01
8.125000e+01
8.750000e+01
9.375000e+01
1.000000e+02
1.062500e+02
1.125000e+02
1.187500e+02
1.250000e+02
1.312500e+02
1.375000e+02
1.437500e+02
1.500000e+02
1.562500e+02
1.625000e+02
1.687500e+02
1.750000e+02
1.812500e+02
1.875000e+02
1.937500e+02
2.000000e+02
0.000000e+00
6.250000e+00
1.250000e+01
1.875000e+01
2.500000e+01
3.125000e+01
3.750000e+01
4.375000e+01
5.000000e+01
5.625000e+01
6.250000e+01
6.875000e+01
7.500000e+01
8.125000e+01
8.750000e+01
9.375000e+01
1.000000e+02
1.062500e+02
1.125000e+02
1.187500e+02
1.250000e+02
1.312500e+02
1.375000e+02
1.437500e+02
1.500000e+02
1.562500e+02
1.625000e+02
1.687500e+02
1.750000e+02
1.812500e+02
1.875000e+02
1.937500e+02
2.000000e+02
0.000000e+00
6.250000e+00
1.250000e+01
1.875000e+01
2.500000e+01
3.125000e+01
3.750000e+01
4.375000e+01
5.000000e+01
5.625000e+01
6.250000e+01
6.875000e+01
7.500000e+01
8.125000e+01
8.750000e+01
9.375000e+01
1.000000e+02
1.062500e+02
1.125000e+02
1.187500e+02
1.250000e+02
1.312500e+02
1.375000e+02
1.437500e+02
1.500000e+02
1.562500e+02
1.625000e+02
1.687500e+02
1.750000e+02
1.812500e+02
1.875000e+02
1.937500e+02
2.000000e+02
0.000000e+00
6.250000e+00
1.250000e+01
1.875000e+01
2.500000e+01
3.125000e+01
3.750000e+01
4.375000e+01
5.000000e+01
5.625000e+01
6.250000e+01
6.875000e+01
7.500000e+01
8.125000e+01
8.750000e+01
9.375000e+01
1.000000e+02
1.062500e+02
1.125000e+02
1.187500e+02
1.250000e+02
1.312500e+02
1.375000e+02
1.437500e+02
1.500000e+02
1.562500e+02
1.625000e+02
1.687500e+02
1.750000e+02
1.812500e+02
1.875000e+02
1.937500e+02
2.000000e+02
0.000000e+00
6.250000e+00
1.250000e+01
1.875000e+01
2.500000e+01
3.125000e+01
3.750000e+01
4.375000e+01
5.000000e+01
5.625000e+01
6.250000e+01
6.875000e+01
7.500000e+01
8.125000e+01
8.750000e+01
9.375000e+01
1.000000e+02
1.062500e+02
1.125000e+02
1.187500e+02
1.250000e+02
1.312500e+02
1.375000e+02
1.437500e+02
1.500000e+02
1.562500e+02
1.625000e+02
1.687500e+02
1.750000e+02
1.812500e+02
1.875000e+02
1.937500e+02
2.000000e+02
0.000000e+00
6.250000e+00
1.250000e+01
1.875000e+01
2.500000e+01
3.125000e+01
3.750000e+01
4.375000e+01
5.000000e+01
5.625000e+01
6.250000e+01
6.875000e+01
7.500000e+01
8.125000e+01
8.750000e+01
9.375000e+01
1.000000e+02
1.062500e+02
1.125000e+02
1.187500e+02
1.250000e+02
1.312500e+02
1.375000e+02
1.437500e+02
1.500000e+02
1.562500e+02
1.625000e+02
1.687500e+02
1.750000e+02
1.812500e+02
1.875000e+02
1.937500e+02
2.000000e+02
0.000000e+00
6.250000e+00
1.250000e+01
1.875000e+01
2.500000e+01
3.125000e+01
3.750000e+01
4.375000e+01
5.000000e+01
5.625000e+01
6.250000e+01
6.875000e+01
7.500000e+01
8.125000e+01
8.750000e+01
9.375000e+01
1.000000e+02
1.062500e+02
1.125000e+02
1.187500e+02
1.250000e+02
1.312500e+02
1.375000e+02
1.437500e+02
1.500000e+02
1.562500e+02
1.625000e+02
1.687500e+02
1.750000e+02
1.812500e+02
1.875000e+02
1.937500e+02
2.000000e+02
0.000000e+00
0.000000e+00
0.000000e+00
0.000000e+00
0.000000e+00
0.000000e+00
0.000000e+00
0.000000e+00
0.000000e+00
0.000000e+00
0.000000e+00
0.000000e+00
0.000000e+00
0.000000e+00
0.000000e+00
0.000000e+00
0.000000e+00
0.000000e+00
0.000000e+00
0.000000e+00
0.000000e+00
0.000000e+00
0.000000e+00
0.000000e+00
0.000000e+00
0.000000e+00
0.000000e+00
0.000000e+00
0.000000e+00
0.000000e+00
0.000000e+00
0.000000e+00
0.000000e+00
6.250000e+00
6.250000e+00
6.250000e+00
6.250000e+00
6.250000e+00
6.250000e+00
6.250000e+00
6.250000e+00
6.250000e+00
6.250000e+00
6.250000e+00
6.250000e+00
6.250000e+00
6.250000e+00
6.250000e+00
6.250000e+00
6.250000e+00
6.250000e+00
6.250000e+00
6.250000e+00
6.250000e+00
6.250000e+00
6.250000e+00
6.250000e+00
6.250000e+00
6.250000e+00
6.250000e+00
6.250000e+00
6.250000e+00
6.250000e+00
6.250000e+00
6.250000e+00
6.250000e+00
1.250000e+01
1.250000e+01
1.250000e+01
1.250000e+01
1.250000e+01
1.250000e+01
1.250000e+01
1.250000e+01
1.250000e+01
1.250000e+01
1.250000e+01
1.250000e+01
1.250000e+01
1.250000e+01
1.250000e+01
1.250000e+01
1.250000e+01
1.250000e+01
1.250000e+01
1.250000e+01
1.250000e+01
1.250000e+01
1.250000e+01
1.250000e+01
1.250000e+01
1.250000e+01
1.250000e+01
1.250000e+01
1.250000e+01
1.250000e+01
1.250000e+01
1.250000e+01
1.250000e+01
1.875000e+01
1.875000e+01
1.875000e+01
1.875000e+01
1.875000e+01
1.875000e+01
1.875000e+01
1.875000e+01
1.875000e+01
1.875000e+01
1.875000e+01
1.875000e+01
1.875000e+01
1.875000e+01
1.875000e+01
1.875000e+01
1.875000e+01
1.875000e+01
1.875000e+01
1.875000e+01
1.875000e+01
1.875000e+01
1.875000e+01
1.875000e+01
1.875000e+01
1.875000e+01
1.875000e+01
1.875000e+01
1.875000e+01
1.875000e+01
1.875000e+01
1.875000e+01
1.875000e+01
2.500000e+01
2.500000e+01
2.500000e+01
2.500000e+01
2.500000e+01
2.500000e+01
2.500000e+01
2.500000e+01
2.500000e+01
2.500000e+01
2.500000e+01
2.500000e+01
2.500000e+01
2.500000e+01
2.500000e+01
2.500000e+01
2.500000e+01
2.500000e+01
2.500000e+01
2.500000e+01
2.500000e+01
2.500000e+01
2.500000e+01
2.500000e+01
2.500000e+01
2.500000e+01
2.500000e+01
2.500000e+01
2.500000e+01
2.500000e+01
2.500000e+01
2.500000e+01
2.500000e+01
3.125000e+01
3.125000e+01
3.125000e+01
3.125000e+01
3.125000e+01
3.125000e+01
3.125000e+01
3.125000e+01
3.125000e+01
3.125000e+01
3.125000e+01
3.125000e+01
3.125000e+01
3.125000e+01
3.125000e+01
3.125000e+01
3.125000e+01
3.125000e+01
3.125000e+01
3.125000e+01
3.125000e+01
3.125000e+01
3.125000e+01
3.125000e+01
3.125000e+01
3.125000e+01
3.125000e+01
3.125000e+01
3.125000e+01
3.125000e+01
3.125000e+01
3.125000e+01
3.125000e+01
3.750000e+01
3.750000e+01
3.750000e+01
3.750000e+01
3.750000e+01
3.750000e+01
3.750000e+01
3.750000e+01
3.750000e+01
3.750000e+01
3.750000e+01
3.750000e+01
3.750000e+01
3.750000e+01
3.750000e+01
3.750000e+01
3.750000e+01
3.750000e+01
3.750000e+01
3.750000e+01
3.750000e+01
3.750000e+01
3.750000e+01
3.750000e+01
3.750000e+01
3.750000e+01
3.750000e+01
3.750000e+01
3.750000e+01
3.750000e+01
3.750000e+01
3.750000e+01
3.750000e+01
4.375000e+01
4.375000e+01
4.375000e+01
4.375000e+01
4.375000e+01
4.375000e+01
4.375000e+01
4.375000e+01
4.375000e+01
4.375000e+01
4.375000e+01
4.375000e+01
4.375000e+01
4.375000e+01
4.375000e+01
4.375000e+01
4.375000e+01
4.375000e+01
4.375000e+01
4.375000e+01
4.375000e+01
4.375000e+01
4.375000e+01
4.375000e+01
4.375000e+01
4.375000e+01
4.375000e+01
4.375000e+01
4.375000e+01
4.375000e+01
4.375000e+01
4.375000e+01
4.375000e+01
5.000000e+01
5.000000e+01
5.000000e+01
5.000000e+01
5.000000e+01
5.000000e+01
5.000000e+01
5.000000e+01
5.000000e+01
5.000000e+01
5.000000e+01
5.000000e+01
5.000000e+01
5.000000e+01
5.000000e+01
5.000000e+01
5.000000e+01
5.000000e+01
5.000000e+01
5.000000e+01
5.000000e+01
5.000000e+01
5.000000e+01
5.000000e+01
5.000000e+01
5.000000e+01
5.000000e+01
5.000000e+01
5.000000e+01
5.000000e+01
5.000000e+01
5.000000e+01
5.000000e+01
5.625000e+01
5.625000e+01
5.625000e+01
5.625000e+01
5.625000e+01
5.625000e+01
5.625000e+01
5.625000e+01
5.625000e+01
5.625000e+01
5.625000e+01
5.625000e+01
5.625000e+01
5.625000e+01
5.625000e+01
5.625000e+01
5.625000e+01
5.625000e+01
5.625000e+01
5.625000e+01
5.625000e+01
5.625000e+01
5.625000e+01
5.625000e+01
5.625000e+01
5.625000e+01
5.625000e+01
5.625000e+01
5.625000e+01
5.625000e+01
5.625000e+01
5.625000e+01
5.625000e+01
6.250000e+01
6.250000e+01
6.250000e+01
6.250000e+01
6.250000e+01
6.250000e+01
6.250000e+01
6.250000e+01
6.250000e+01
6.250000e+01
6.250000e+01
6.250000e+01
6.250000e+01
6.250000e+01
6.250000e+01
6.250000e+01
6.250000e+01
6.250000e+01
6.250000e+01
6.250000e+01
6.250000e+01
6.250000e+01
6.250000e+01
6.250000e+01
6.250000e+01
6.250000e+01
6.250000e+01
6.250000e+01
6.250000e+01
6.250000e+01
6.250000e+01
6.250000e+01
6.250000e+01
6.875000e+01
6.875000e+01
6.875000e+01
6.875000e+01
6.875000e+01
6.875000e+01
6.875000e+01
6.875000e+01
6.875000e+01
6.875000e+01
6.875000e+01
6.875000e+01
6.875000e+01
6.875000e+01
6.875000e+01
6.875000e+01
6.875000e+01
6.875000e+01
6.875000e+01
6.875000e+01
6.875000e+01
6.875000e+01
6.875000e+01
6.875000e+01
6.875000e+01
6.875000e+01
6.875000e+01
6.875000e+01
6.875000e+01
6.875000e+01
6.875000e+01
6.875000e+01
6.875000e+01
7.500000e+01
7.500000e+01
7.500000e+01
7.500000e+01
7.500000e+01
7.500000e+01
7.500000e+01
7.500000e+01
7.500000e+01
7.500000e+01
7.500000e+01
7.500000e+01
7.500000e+01
7.500000e+01
7.500000e+01
7.500000e+01
7.500000e+01
7.500000e+01
7.500000e+01
7.500000e+01
7.500000e+01
7.500000e+01
7.500000e+01
7.500000e+01
7.500000e+01
7.500000e+01
7.500000e+01
7.500000e+01
7.500000e+01
7.500000e+01
7.500000e+01
7.500000e+01
7.500000e+01
8.125000e+01
8.125000e+01
8.125000e+01
8.125000e+01
8.125000e+01
8.125000e+01
8.125000e+01
8.125000e+01
8.125000e+01
8.125000e+01
8.125000e+01
8.125000e+01
8.125000e+01
8.125000e+01
8.125000e+01
8.125000e+01
8.125000e+01
8.125000e+01
8.125000e+01
8.125000e+01
8.125000e+01
8.125000e+01
8.125000e+01
8.125000e+01
8.125000e+01
8.125000e+01
8.125000e+01
8.125000e+01
8.125000e+01
8.125000e+01
8.125000e+01
8.125000e+01
8.125000e+01
8.750000e+01
8.750000e+01
8.750000e+01
8.750000e+01
8.750000e+01
8.750000e+01
8.750000e+01
8.750000e+01
8.750000e+01
8.750000e+01
8.750000e+01
8.750000e+01
8.750000e+01
8.750000e+01
8.750000e+01
8.750000e+01
8.750000e+01
8.750000e+01
8.750000e+01
8.750000e+01
8.750000e+01
8.750000e+01
8.750000e+01
8.750000e+01
8.750000e+01
8.750000e+01
8.750000e+01
8.750000e+01
8.750000e+01
8.750000e+01
8.750000e+01
8.750000e+01
8.750000e+01
9.375000e+01
9.375000e+01
9.375000e+01
9.375000e+01
9.375000e+01
9.375000e+01
9.375000e+01
9.375000e+01
9.375000e+01
9.375000e+01
9.375000e+01
9.375000e+01
9.375000e+01
9.375000e+01
9.375000e+01
9.375000e+01
9.375000e+01
9.375000e+01
9.375000e+01
9.375000e+01
9.375000e+01
9.375000e+01
9.375000e+01
9.375000e+01
9.375000e+01
9.375000e+01
9.375000e+01
9.375000e+01
9.375000e+01
9.375000e+01
9.375000e+01
9.375000e+01
9.375000e+01
1.000000e+02
1.000000e+02
1.000000e+02
1.000000e+02
1.000000e+02
1.000000e+02
1.000000e+02
1.000000e+02
1.000000e+02
1.000000e+02
1.000000e+02
1.000000e+02
1.000000e+02
1.000000e+02
1.000000e+02
1.000000e+02
1.000000e+02
1.000000e+02
1.000000e+02
1.000000e+02
1.000000e+02
1.000000e+02
1.000000e+02
1.000000e+02
1.000000e+02
1.000000e+02
1.000000e+02
1.000000e+02
1.000000e+02
1.000000e+02
1.000000e+02
1.000000e+02
1.000000e+02
0.000000e+00
-4.098130e-02
-7.435511e-02
-1.052712e-01
-1.349420e-01
-1.635936e-01
-1.912837e-01
-2.180096e-01
-2.437547e-01
-2.685001e-01
-2.922304e-01
-3.149348e-01
-3.366079e-01
-3.572492e-01
-3.768634e-01
-3.954610e-01
-4.130586e-01
-4.296804e-01
-4.453598e-01
-4.601420e-01
-4.740870e-01
-4.872742e-01
-4.998089e-01
-5.118303e-01
-5.235252e-01
-5.351473e-01
-5.470490e-01
-5.597331e-01
-5.739367e-01
-5.907450e-01
-6.115654e-01
-6.363776e-01
-6.515202e-01
0.000000e+00
-2.747686e-02
-5.716856e-02
-8.516391e-02
-1.117724e-01
-1.372474e-01
-1.617235e-01
-1.852596e-01
-2.078793e-01
-2.295899e-01
-2.503932e-01
-2.702890e-01
-2.892783e-01
-3.073642e-01
-3.245526e-01
-3.408532e-01
-3.562797e-01
-3.708514e-01
-3.845933e-01
-3.975384e-01
-4.097284e-01
-4.212161e-01
-4.320669e-01
-4.423608e-01
-4.521935e-01
-4.616752e-01
-4.709220e-01
-4.800295e-01
-4.889971e-01
-4.975331e-01
-5.046459e-01
-5.088044e-01
-5.145937e-01
0.000000e+00
-2.179471e-02
-4.486965e-02
-6.836361e-02
-9.119247e-02
-1.131800e-01
-1.343123e-01
-1.546092e-01
-1.740887e-01
-1.927632e-01
-2.106405e-01
-2.277262e-01
-2.440251e-01
-2.595419e-01
-2.742824e-01
-2.882538e-01
-3.014652e-01
-3.139279e-01
-3.256559e-01
-3.366659e-01
-3.469773e-01
-3.566109e-01
-3.655872e-01
-3.739220e-01
-3.816188e-01
-3.886529e-01
-3.949437e-01
-4.003061e-01
-4.043775e-01
-4.065698e-01
-4.063776e-01
-4.051465e-01
-4.119069e-01
0.000000e+00
-1.729217e-02
-3.553935e-02
-5.428605e-02
-7.298882e-02
-9.123856e-02
-1.088790e-01
-1.258541e-01
-1.421486e-01
-1.577619e-01
-1.726980e-01
-1.869620e-01
-2.005586e-01
-2.134921e-01
-2.257663e-01
-2.373847e-01
-2.483504e-01
-2.586664e-01
-2.683346e-01
-2.773557e-01
-2.857274e-01
-2.934419e-01
-3.004822e-01
-3.068154e-01
-3.123832e-01
-3.170873e-01
-3.207719e-01
-3.232119e-01
-3.241436e-01
-3.234520e-01
-3.217722e-01
-3.216719e-01
-3.281129e-01
0.000000e+00
-1.342114e-02
-2.748192e-02
-4.199186e-02
-5.661967e-02
-7.106808e-02
-8.513773e-02
-9.872767e-02
-1.117920e-01
-1.243131e-01
-1.362864e-01
-1.477124e-01
-1.585934e-01
-1.689311e-01
-1.787262e-01
-1.879779e-01
-1.966833e-01
-2.048370e-01
-2.124308e-01
-2.194519e-01
-2.258813e-01
-2.316917e-01
-2.368433e-01
-2.412795e-01
-2.449218e-01
-2.476673e-01
-2.493950e-01
-2.500010e-01
-2.495038e-01
-2.482873e-01
-2.474980e-01
-2.493206e-01
-2.548150e-01
0.000000e+00
-9.863755e-03
-2.015011e-02
-3.076694e-02
-4.153078e-02
-5.224073e-02
-6.273725e-02
-7.291668e-02
-8.272210e-02
-9.212584e-02
-1.011162e-01
-1.096891e-01
-1.178431e-01
-1.255767e-01
-1.328869e-01
-1.397687e-01
-1.462137e-01
-1.522103e-01
-1.577422e-01
-1.627877e-01
-1.673186e-01
-1.712979e-01
-1.746792e-01
-1.774059e-01
-1.794131e-01
-1.806378e-01
-1.810441e-01
-1.806795e-01
-1.797808e-01
-1.789257e-01
-1.791339e-01
-1.814574e-01
-1.860036e-01
0.000000e+00
-6.491537e-03
-1.323984e-02
-2.020223e-02
-2.727940e-02
-3.435224e-02
-4.131408e-02
-4.808717e-02
-5.462285e-02
-6.089428e-02
-6.688790e-02
-7.259687e-02
-7.801682e-02
-8.314326e-02
-8.796998e-02
-9.248815e-02
-9.668561e-02
-1.005462e-01
-1.040492e-01
-1.071688e-01
-1.098738e-01
-1.121273e-01
-1.138885e-01
-1.151157e-01
-1.157752e-01
-1.158570e-01
-1.154061e-01
-1.145718e-01
-1.136715e-01
-1.132351e-01
-1.139160e-01
-1.161781e-01
-1.198480e-01
0.000000e+00
-3.224344e-03
-6.570588e-03
-1.002153e-02
-1.353359e-02
-1.705128e-02
-2.052193e-02
-2.390428e-02
-2.717051e-02
-3.030357e-02
-3.329340e-02
-3.613333e-02
-3.881754e-02
-4.133937e-02
-4.369024e-02
-4.585885e-02
-4.783066e-02
-4.958745e-02
-5.110716e-02
-5.236389e-02
-5.332860e-02
-5.397073e-02
-5.426162e-02
-5.418072e-02
-5.372642e-02
-5.293341e-02
-5.189766e-02
-5.080631e-02
-4.995911e-02
-4.974688e-02
-5.054572e-02
-5.251915e-02
-5.543105e-02
0.000000e+00
-5.202159e-06
-1.127976e-05
-1.789613e-05
-2.470322e-05
-3.123181e-05
-3.677469e-05
-4.025720e-05
-4.008582e-05
-3.396591e-05
-1.868176e-05
1.016506e-05
5.845856e-05
1.339058e-04
2.463926e-04
4.083269e-04
6.349169e-04
9.442965e-04
1.357364e-03
1.897128e-03
2.587240e-03
3.449292e-03
4.498237e-03
5.735214e-03
7.137049e-03
8.642336e-03
1.013583e-02
1.143700e-02
1.230560e-02
1.248174e-02
1.177250e-02
1.016629e-02
7.916700e-03
0.000000e+00
3.214546e-03
6.549299e-03
9.987687e-03
1.348676e-02
1.699191e-02
2.045176e-02
2.382707e-02
2.709296e-02
3.023672e-02
3.325428e-02
3.614723e-02
3.892082e-02
4.158291e-02
4.414356e-02
4.661494e-02
4.901131e-02
5.134896e-02
5.364570e-02
5.591989e-02
5.818852e-02
6.046408e-02
6.274982e-02
6.503304e-02
6.727664e-02
6.940982e-02
7.132090e-02
7.285798e-02
7.384561e-02
7.412521e-02
7.361882e-02
7.239866e-02
7.072903e-02
0.000000e+00
6.483532e-03
1.322233e-02
2.017419e-02
2.724030e-02
3.430221e-02
4.125425e-02
4.802028e-02
5.455400e-02
6.083200e-02
6.684559e-02
7.259462e-02
7.808376e-02
8.332039e-02
8.831372e-02
9.307436e-02
9.761425e-02
1.019463e-01
1.060840e-01
1.100402e-01
1.138251e-01
1.174434e-01
1.208904e-01
1.241460e-01
1.271695e-01
1.298936e-01
1.322237e-01
1.340437e-01
1.352348e-01
1.357111e-01
1.354662e-01
1.346219e-01
1.334566e-01
0.000000e+00
9.858650e-03
2.013874e-02
3.074841e-02
4.150448e-02
5.220639e-02
6.269525e-02
7.286833e-02
8.267020e-02
9.207535e-02
1.010752e-01
1.096699e-01
1.178640e-01
1.256637e-01
1.330764e-01
1.401100e-01
1.467727e-01
1.530731e-01
1.590192e-01
1.646178e-01
1.698729e-01
1.747833e-01
1.793395e-01
1.835199e-01
1.872876e-01
1.905878e-01
1.933495e-01
1.954929e-01
1.969465e-01
1.976748e-01
1.977158e-01
1.972205e-01
1.964840e-01
0.000000e+00
1.341987e-02
2.747874e-02
4.198618e-02
5.661090e-02
7.105571e-02
8.512144e-02
9.870743e-02
1.117682e-01
1.242869e-01
1.362597e-01
1.476887e-01
1.585781e-01
1.689323e-01
1.787559e-01
1.880526e-01
1.968262e-01
2.050794e-01
2.128142e-01
2.200310e-01
2.267277e-01
2.328980e-01
2.385301e-01
2.436046e-01
2.480928e-01
2.519573e-01
2.551536e-01
2.576377e-01
2.593787e-01
2.603789e-01
2.607033e-01
2.605174e-01
2.601294e-01
0.000000e+00
1.729538e-02
3.554588e-02
5.429577e-02
7.300144e-02
9.125373e-02
1.088962e-01
1.258724e-01
1.421667e-01
1.577776e-01
1.727079e-01
1.869610e-01
2.005397e-01
2.134454e-01
2.256783e-01
2.372376e-01
2.481209e-01
2.583247e-01
2.678441e-01
2.766722e-01
2.848001e-01
2.922166e-01
2.989075e-01
3.048559e-01
3.100428e-01
3.144489e-01
3.180577e-01
3.208608e-01
3.228671e-01
3.241139e-01
3.246873e-01
3.247557e-01
3.246270e-01
0.000000e+00
2.180255e-02
4.488639e-02
6.838983e-02
9.122866e-02
1.132266e-01
1.343693e-01
1.546761e-01
1.741636e-01
1.928421e-01
2.107167e-01
2.277888e-01
2.440573e-01
2.595190e-01
2.741691e-01
2.880011e-01
3.010063e-01
3.131742e-01
3.244918e-01
3.349442e-01
3.445141e-01
3.531830e-01
3.609320e-01
3.677437e-01
3.736053e-01
3.785122e-01
3.824733e-01
3.855166e-01
3.876946e-01
3.890897e-01
3.898198e-01
3.900576e-01
3.900860e-01
0.000000e+00
2.748863e-02
5.719428e-02
8.520528e-02
1.118315e-01
1.373262e-01
1.618237e-01
1.853822e-01
2.080237e-01
2.297534e-01
2.505689e-01
2.704644e-01
2.894325e-01
3.074644e-01
3.245499e-01
3.406769e-01
3.558307e-01
3.699933e-01
3.831436e-01
3.952567e-01
4.063047e-01
4.162579e-01
4.250868e-01
4.327662e-01
4.392801e-01
4.446288e-01
4.488377e-01
4.519659e-01
4.541149e-01
4.554316e-01
4.561043e-01
4.563482e-01
4.564080e-01
0.000000e+00
4.099418e-02
7.438519e-02
1.053228e-01
1.350191e-01
1.637006e-01
1.914247e-01
2.181890e-01
2.439756e-01
2.687639e-01
2.925349e-01
3.152719e-01
3.369604e-01
3.575866e-01
3.771360e-01
3.955924e-01
4.129360e-01
4.291427e-01
4.441830e-01
4.580211e-01
4.706155e-01
4.819197e-01
4.918853e-01
5.004665e-01
5.076280e-01
5.133552e-01
5.176685e-01
5.206400e-01
5.224111e-01
5.232092e-01
5.233542e-01
5.232341e-01
5.231665e-01
0.000000e+00
-2.532566e-02
-4.419874e-02
-6.479382e-02
-8.772766e-02
-1.136337e-01
-1.426920e-01
-1.749531e-01
-2.103848e-01
-2.489112e-01
-2.904302e-01
-3.348242e-01
-3.819666e-01
-4.317256e-01
-4.839665e-01
-5.385538e-01
-5.953528e-01
-6.542311e-01
-7.150610e-01
-7.777218e-01
-8.421046e-01
-9.081177e-01
-9.756954e-01
-1.044812e+00
-1.115501e+00
-1.187894e+00
-1.262279e+00
-1.339218e+00
-1.419784e+00
-1.506103e+00
-1.602766e+00
-1.720597e+00
-1.883384e+00
0.000000e+00
-1.573893e-02
-3.549407e-02
-5.622808e-02
-7.948158e-02
-1.056691e-01
-1.350098e-01
-1.675532e-01
-2.032701e-01
-2.420844e-01
-2.838936e-01
-3.285791e-01
-3.760132e-01
-4.260629e-01
-4.785923e-01
-5.334647e-01
-5.905435e-01
-6.496946e-01
-7.107875e-01
-7.736988e-01
-8.383156e-01
-9.045415e-01
-9.723049e-01
-1.041572e+00
-1.112368e+00
-1.184812e+00
-1.259177e+00
-1.336007e+00
-1.416353e+00
-1.502306e+00
-1.598222e+00
-1.713430e+00
-1.865515e+00
0.000000e+00
-1.156115e-02
-2.861515e-02
-4.906632e-02
-7.236044e-02
-9.874092e-02
-1.283132e-01
-1.611047e-01
-1.970759e-01
-2.361474e-01
-2.782147e-01
-3.231584e-01
-3.708503e-01
-4.211568e-01
-4.739415e-01
-5.290672e-01
-5.863968e-01
-6.457951e-01
-7.071310e-01
-7.702800e-01
-8.351282e-01
-9.015784e-01
-9.695589e-01
-1.039037e+00
-1.110041e+00
-1.182696e+00
-1.257288e+00
-1.334373e+00
-1.414991e+00
-1.501026e+00
-1.595693e+00
-1.702797e+00
-1.821606e+00
0.000000e+00
-9.257680e-03
-2.423126e-02
-4.359186e-02
-6.658663e-02
-9.295892e-02
-1.226577e-01
-1.556328e-01
-1.918134e-01
-2.311053e-01
-2.733973e-01
-3.185673e-01
-3.664856e-01
-4.170187e-01
-4.700303e-01
-5.253834e-01
-5.829413e-01
-6.425696e-01
-7.041377e-01
-7.675221e-01
-8.326105e-01
-8.993081e-01
-9.675466e-01
-1.037299e+00
-1.108599e+00
-1.181580e+00
-1.256523e+00
-1.333942e+00
-1.414687e+00
-1.500000e+00
-1.591068e+00
-1.687116e+00
-1.776526e+00
0.000000e+00
-7.833520e-03
-2.136435e-02
-3.970436e-02
-6.217494e-02
-8.837432e-02
-1.180842e-01
-1.511666e-01
-1.875018e-01
-2.269711e-01
-2.694511e-01
-3.148137e-01
-3.629274e-01
-4.136579e-01
-4.668694e-01
-5.224261e-01
-5.801926e-01
-6.400358e-01
-7.018271e-01
-7.654450e-01
-8.307798e-01
-8.977394e-01
-9.662586e-01
-1.036312e+00
-1.107931e+00
-1.181232e+00
-1.256445e+00
-1.333940e+00
-1.414206e+00
-1.497636e+00
-1.583833e+00
-1.669631e+00
-1.747499e+00
0.000000e+00
-6.927314e-03
-1.948330e-02
-3.702914e-02
-5.899390e-02
-8.494787e-02
-1.145932e-01
-1.477179e-01
-1.841548e-01
-2.237571e-01
-2.663860e-01
-3.119060e-01
-3.601822e-01
-4.110796e-01
-4.644635e-01
-5.201989e-01
-5.781526e-01
-6.381933e-01
-7.001944e-01
-7.640365e-01
-8.296114e-01
-8.968274e-01
-9.656175e-01
-1.035948e+00
-1.107832e+00
-1.181339e+00
-1.256597e+00
-1.333770e+00
-1.412946e+00
-1.493860e+00
-1.575278e+00
-1.654290e+00
-1.726508e+00
0.000000e+00
-6.364117e-03
-1.829401e-02
-3.529020e-02
-5.686284e-02
-8.259316e-02
-1.121505e-01
-1.452793e-01
-1.817764e-01
-2.214707e-01
-2.642094e-01
-3.098496e-01
-3.582532e-01
-4.092849e-01
-4.628104e-01
-5.186966e-01
-5.768118e-01
-6.370266e-01
-6.992160e-01
-7.632612e-01
-8.290531e-01
-8.964964e-01
-9.655150e-01
-1.036057e+00
-1.108097e+00
-1.181638e+00
-1.256685e+00
-1.333196e+00
-1.410950e+00
-1.489314e+00
-1.566933e+00
-1.641568e+00
-1.710477e+00
0.000000e+00
-6.054632e-03
-1.763410e-02
-3.431026e-02
-5.564086e-02
-8.122156e-02
-1.107110e-01
-1.438325e-01
-1.803621e-01
-2.201134e-01
-2.629241e-01
-3.086462e-01
-3.571399e-01
-4.082698e-01
-4.619026e-01
-5.179066e-01
-5.761518e-01
-6.365099e-01
-6.988563e-01
-7.630709e-01
-8.290408e-01
-8.966624e-01
-9.658436e-01
-1.036505e+00
-1.108575e+00
-1.181980e+00
-1.256611e+00
-1.332266e+00
-1.408541e+00
-1.484685e+00
-1.559475e+00
-1.631228e+00
-1.698073e+00
0.000000e+00
-5.954917e-03
-1.742119e-02
-3.399266e-02
-5.524261e-02
-8.077265e-02
-1.102395e-01
-1.433605e-01
-1.799055e-01
-2.196834e-01
-2.625291e-01
-3.082938e-01
-3.568377e-01
-4.080264e-01
-4.617278e-01
-5.178116e-01
-5.761489e-01
-6.366118e-01
-6.990746e-01
-7.634142e-01
-8.295108e-01
-8.972488e-01
-9.665157e-01
-1.037200e+00
-1.109181e+00
-1.182317e+00
-1.256409e+00
-1.331152e+00
-1.406062e+00
-1.480401e+00
-1.553136e+00
-1.622982e+00
-1.688567e+00
0.000000e+00
-6.051748e-03
-1.763010e-02
-3.430682e-02
-5.563982e-02
-8.122521e-02
-1.107224e-01
-1.438557e-01
-1.804023e-01
-2.201776e-01
-2.630211e-01
-3.087874e-01
-3.573393e-01
-4.085440e-01
-4.622713e-01
-5.183920e-01
-5.767775e-01
-6.372998e-01
-6.998309e-01
-7.642431e-01
-8.304078e-01
-8.981952e-01
-9.674707e-01
-1.038090e+00
-1.109891e+00
-1.182672e+00
-1.256175e+00
-1.330040e+00
-1.403770e+00
-1.476694e+00
-1.547959e+00
-1.616571e+00
-1.681482e+00
0.000000e+00
-6.358582e-03
-1.828633e-02
-3.528355e-02
-5.686076e-02
-8.260003e-02
-1.121721e-01
-1.453233e-01
-1.818531e-01
-2.215934e-01
-2.643952e-01
-3.101202e-01
-3.586354e-01
-4.098108e-01
-4.635178e-01
-5.196282e-01
-5.780134e-01
-6.385444e-01
-7.010902e-01
-7.655175e-01
-8.316887e-01
-8.994591e-01
-9.686732e-01
-1.039158e+00
-1.110713e+00
-1.183099e+00
-1.256016e+00
-1.329087e+00
-1.401833e+00
-1.473667e+00
-1.543899e+00
-1.611762e+00
-1.676453e+00
0.000000e+00
-6.919621e-03
-1.947262e-02
-3.701986e-02
-5.899090e-02
-8.495727e-02
-1.146231e-01
-1.477790e-01
-1.842616e-01
-2.239281e-01
-2.666454e-01
-3.122840e-01
-3.607163e-01
-4.118151e-01
-4.654533e-01
-5.215032e-01
-5.798361e-01
-6.403212e-01
-7.028247e-01
-7.672077e-01
-8.333236e-01
-9.010145e-01
-9.701065e-01
-1.040403e+00
-1.111676e+00
-1.183657e+00
-1.256027e+00
-1.328404e+00
-1.400346e+00
-1.471349e+00
-1.540867e+00
-1.608332e+00
-1.673156e+00
0.000000e+00
-7.824458e-03
-2.135178e-02
-3.969342e-02
-6.217146e-02
-8.838571e-02
-1.181203e-01
-1.512404e-01
-1.876307e-01
-2.271777e-01
-2.697645e-01
-3.152707e-01
-3.635733e-01
-4.145475e-01
-4.680672e-01
-5.240048e-01
-5.822311e-01
-6.426139e-01
-7.050162e-01
-7.692944e-01
-8.352944e-01
-9.028478e-01
-9.717661e-01
-1.041835e+00
-1.112807e+00
-1.184396e+00
-1.256271e+00
-1.328060e+00
-1.399352e+00
-1.469721e+00
-1.538751e+00
-1.606054e+00
-1.671270e+00
0.000000e+00
-9.248366e-03
-2.421836e-02
-4.358075e-02
-6.658364e-02
-9.297229e-02
-1.226983e-01
-1.557152e-01
-1.919568e-01
-2.313346e-01
-2.737448e-01
-3.190733e-01
-3.672004e-01
-4.180026e-01
-4.713541e-01
-5.271273e-01
-5.851922e-01
-6.454151e-01
-7.076568e-01
-7.717698e-01
-8.375948e-01
-9.049555e-01
-9.736538e-01
-1.043464e+00
-1.114126e+00
-1.185344e+00
-1.256783e+00
-1.328078e+00
-1.398850e+00
-1.468735e+00
-1.537421e+00
-1.604695e+00
-1.670447e+00
0.000000e+00
-1.155304e-02
-2.860385e-02
-4.905693e-02
-7.235955e-02
-9.875720e-02
-1.283581e-01
-1.611933e-01
-1.972282e-01
-2.363893e-01
-2.785795e-01
-3.236878e-01
-3.715957e-01
-4.221802e-01
-4.753153e-01
-5.308730e-01
-5.887223e-01
-6.487285e-01
-7.107506e-01
-7.746385e-01
-8.402295e-01
-9.073430e-01
-9.757756e-01
-1.045295e+00
-1.115637e+00
-1.186501e+00
-1.257553e+00
-1.328437e+00
-1.398794e+00
-1.468303e+00
-1.536731e+00
-1.604011e+00
-1.670304e+00
0.000000e+00
-1.573372e-02
-3.548639e-02
-5.622256e-02
-7.948500e-02
-1.056903e-01
-1.350603e-01
-1.676483e-01
-2.034296e-01
-2.423341e-01
-2.842662e-01
-3.291155e-01
-3.767636e-01
-4.270873e-01
-4.799601e-01
-5.352534e-01
-5.928355e-01
-6.525703e-01
-7.143155e-01
-7.779196e-01
-8.432176e-01
-9.100272e-01
-9.781431e-01
-1.047332e+00
-1.117329e+00
-1.187836e+00
-1.258525e+00
-1.329050e+00
-1.399068e+00
-1.468282e+00
-1.536507e+00
-1.603764e+00
-1.670426e+00
0.000000e+00
-2.532492e-02
-4.419618e-02
-6.479431e-02
-8.773800e-02
-1.136628e-01
-1.427515e-01
-1.750579e-01
-2.105545e-01
-2.491707e-01
-2.908110e-01
-3.353655e-01
-3.827156e-01
-4.327379e-01
-4.853059e-01
-5.402898e-01
-5.975571e-01
-6.569703e-01
-7.183856e-01
-7.816499e-01
-8.465967e-01
-9.130427e-01
-9.807823e-01