TITLE = "Solution"
VARIABLES = x, y, u, v, psiu, psiv, t, stress
ZONE T="structure" N=561 E=512 F=FEBLOCK ET=QUADRILATERAL VARLOCATION=([7,8]=cellcentered)
0.000000e+00
6.250000e+00
1.250000e+01
1.875000e+01
2.500000e+01
3.125000e+01
3.750000e+01
4.375000e+01
5.000000e+01
5.625000e+01
6.250000e+01
6.875000e+01
7.500000e+01
8.125000e+01
8.750000e+01
9.375000e+01
1.000000e+02
1.062500e+02
1.125000e+02
1.187500e+02
1.250000e+02
1.312500e+02
1.375000e+02
1.437500e+02
1.500000e+02
1.562500e+02
1.625000e+02
1.687500e+02
1.750000e+02
1.812500e+02
1.875000e+02
1.937500e+02
2.000000e+02
0.000000e+00
6.250000e+00
1.250000e+01
1.875000e+01
2.500000e+01
3.125000e+01
3.750000e+01
4.375000e+01
5.000000e+01
5.625000e+01
6.250000e+01
6.875000e+01
7.500000e+01
8.125000e+01
8.750000e+01
9.375000e+01
1.000000e+02
1.062500e+02
1.125000e+02
1.187500e+02
1.250000e+02
1.312500e+02
1.375000e+02
1.437500e+02
1.500000e+02
1.562500e+02
1.625000e+02
1.687500e+02
1.750000e+02
1.812500e+02
1.875000e+02
1.937500e+02
2.000000e+02
0.000000e+00
6.250000e+00
1.250000e+01
1.875000e+01
2.500000e+01
3.125000e+01
3.750000e+01
4.375000e+01
5.000000e+01
5.625000e+01
6.250000e+01
6.875000e+01
7.500000e+01
8.125000e+01
8.750000e+01
9.375000e+01
1.000000e+02
1.062500e+02
1.125000e+02
1.187500e+02
1.250000e+02
1.312500e+02
1.375000e+02
1.437500e+02
1.500000e+02
1.562500e+02
1.625000e+02
1.687500e+02
1.750000e+02
1.812500e+02
1.875000e+02
1.937500e+02
2.000000e+02
0.000000e+00
6.250000e+00
1.250000e+01
1.875000e+01
2.500000e+01
3.125000e+01
3.750000e+01
4.375000e+01
5.000000e+01
5.625000e+01
6.250000e+01
6.875000e+01
7.500000e+01
8.125000e+01
8.750000e+01
9.375000e+01
1.000000e+02
1.062500e+02
1.125000e+02
1.187500e+02
1.250000e+02
1.312500e+02
1.375000e+02
1.437500e+02
1.500000e+02
1.562500e+02
1.625000e+02
1.687500e+02
1.750000e+02
1.812500e+02
1.875000e+02
1.937500e+02
2.000000e+02
0.000000e+00
6.250000e+00
1.250000e+01
1.875000e+01
2.500000e+01
3.125000e+01
3.750000e+01
4.375000e+01
5.000000e+01
5.625000e+01
6.250000e+01
6.875000e+01
7.500000e+01
8.125000e+01
8.750000e+01
9.375000e+01
1.000000e+02
1.062500e+02
1.125000e+02
1.187500e+02
1.250000e+02
1.312500e+02
1.375000e+02
1.437500e+02
1.500000e+02
1.562500e+02
1.625000e+02
1.687500e+02
1.750000e+02
1.812500e+02
1.875000e+02
1.937500e+02
2.000000e+02
0.000000e+00
6.250000e+00
1.250000e+01
1.875000e+01
2.500000e+01
3.125000e+01
3.750000e+01
4.375000e+01
5.000000e+01
5.625000e+01
6.250000e+01
6.875000e+01
7.500000e+01
8.125000e+01
8.750000e+01
9.375000e+01
1.000000e+02
1.062500e+02
1.125000e+02
1.187500e+02
1.250000e+02
1.312500e+02
1.375000e+02
1.437500e+02
1.500000e+02
1.562500e+02
1.625000e+02
1.687500e+02
1.750000e+02
1.812500e+02
1.875000e+02
1.937500e+02
2.000000e+02
0.000000e+00
6.250000e+00
1.250000e+01
1.875000e+01
2.500000e+01
3.125000e+01
3.750000e+01
4.375000e+01
5.000000e+01
5.625000e+01
6.250000e+01
6.875000e+01
7.500000e+01
8.125000e+01
8.750000e+01
9.375000e+01
1.000000e+02
1.062500e+02
1.125000e+02
1.187500e+02
1.250000e+02
1.312500e+02
1.375000e+02
1.437500e+02
1.500000e+02
1.562500e+02
1.625000e+02
1.687500e+02
1.750000e+02
1.812500e+02
1.875000e+02
1.937500e+02
2.000000e+02
0.000000e+00
6.250000e+00
1.250000e+01
1.875000e+01
2.500000e+01
3.125000e+01
3.750000e+01
4.375000e+01
5.000000e+01
5.625000e+01
6.250000e+01
6.875000e+01
7.500000e+01
8.125000e+01
8.750000e+01
9.375000e+01
1.000000e+02
1.062500e+02
1.125000e+02
1.187500e+02
1.250000e+02
1.312500e+02
1.375000e+02
1.437500e+02
1.500000e+02
1.562500e+02
1.625000e+02
1.687500e+02
1.750000e+02
1.812500e+02
1.875000e+02
1.937500e+02
2.000000e+02
0.000000e+00
6.250000e+00
1.250000e+01
1.875000e+01
2.500000e+01
3.125000e+01
3.750000e+01
4.375000e+01
5.000000e+01
5.625000e+01
6.250000e+01
6.875000e+01
7.500000e+01
8.125000e+01
8.750000e+01
9.375000e+01
1.000000e+02
1.062500e+02
1.125000e+02
1.187500e+02
1.250000e+02
1.312500e+02
1.375000e+02
1.437500e+02
1.500000e+02
1.562500e+02
1.625000e+02
1.687500e+02
1.750000e+02
1.812500e+02
1.875000e+02
1.937500e+02
2.000000e+02
0.000000e+00
6.250000e+00
1.250000e+01
1.875000e+01
2.500000e+01
3.125000e+01
3.750000e+01
4.375000e+01
5.000000e+01
5.625000e+01
6.250000e+01
6.875000e+01
7.500000e+01
8.125000e+01
8.750000e+01
9.375000e+01
1.000000e+02
1.062500e+02
1.125000e+02
1.187500e+02
1.250000e+02
1.312500e+02
1.375000e+02
1.437500e+02
1.500000e+02
1.562500e+02
1.625000e+02
1.687500e+02
1.750000e+02
1.812500e+02
1.875000e+02
1.937500e+02
2.000000e+02
0.000000e+00
6.250000e+00
1.250000e+01
1.875000e+01
2.500000e+01
3.125000e+01
3.750000e+01
4.375000e+01
5.000000e+01
5.625000e+01
6.250000e+01
6.875000e+01
7.500000e+01
8.125000e+01
8.750000e+01
9.375000e+01
1.000000e+02
1.062500e+02
1.125000e+02
1.187500e+02
1.250000e+02
1.312500e+02
1.375000e+02
1.437500e+02
1.500000e+02
1.562500e+02
1.625000e+02
1.687500e+02
1.750000e+02
1.812500e+02
1.875000e+02
1.937500e+02
2.000000e+02
0.000000e+00
6.250000e+00
1.250000e+01
1.875000e+01
2.500000e+01
3.125000e+01
3.750000e+01
4.375000e+01
5.000000e+01
5.625000e+01
6.250000e+01
6.875000e+01
7.500000e+01
8.125000e+01
8.750000e+01
9.375000e+01
1.000000e+02
1.062500e+02
1.125000e+02
1.187500e+02
1.250000e+02
1.312500e+02
1.375000e+02
1.437500e+02
1.500000e+02
1.562500e+02
1.625000e+02
1.687500e+02
1.750000e+02
1.812500e+02
1.875000e+02
1.937500e+02
2.000000e+02
0.000000e+00
6.250000e+00
1.250000e+01
1.875000e+01
2.500000e+01
3.125000e+01
3.750000e+01
4.375000e+01
5.000000e+01
5.625000e+01
6.250000e+01
6.875000e+01
7.500000e+01
8.125000e+01
8.750000e+01
9.375000e+01
1.000000e+02
1.062500e+02
1.125000e+02
1.187500e+02
1.250000e+02
1.312500e+02
1.375000e+02
1.437500e+02
1.500000e+02
1.562500e+02
1.625000e+02
1.687500e+02
1.750000e+02
1.812500e+02
1.875000e+02
1.937500e+02
2.000000e+02
0.000000e+00
6.250000e+00
1.250000e+01
1.875000e+01
2.500000e+01
3.125000e+01
3.750000e+01
4.375000e+01
5.000000e+01
5.625000e+01
6.250000e+01
6.875000e+01
7.500000e+01
8.125000e+01
8.750000e+01
9.375000e+01
1.000000e+02
1.062500e+02
1.125000e+02
1.187500e+02
1.250000e+02
1.312500e+02
1.375000e+02
1.437500e+02
1.500000e+02
1.562500e+02
1.625000e+02
1.687500e+02
1.750000e+02
1.812500e+02
1.875000e+02
1.937500e+02
2.000000e+02
0.000000e+00
6.250000e+00
1.250000e+01
1.875000e+01
2.500000e+01
3.125000e+01
3.750000e+01
4.375000e+01
5.000000e+01
5.625000e+01
6.250000e+01
6.875000e+01
7.500000e+01
8.125000e+01
8.750000e+01
9.375000e+01
1.000000e+02
1.062500e+02
1.125000e+02
1.187500e+02
1.250000e+02
1.312500e+02
1.375000e+02
1.437500e+02
1.500000e+02
1.562500e+02
1.625000e+02
1.687500e+02
1.750000e+02
1.812500e+02
1.875000e+02
1.937500e+02
2.000000e+02
0.000000e+00
6.250000e+00
1.250000e+01
1.875000e+01
2.500000e+01
3.125000e+01
3.750000e+01
4.375000e+01
5.000000e+01
5.625000e+01
6.250000e+01
6.875000e+01
7.500000e+01
8.125000e+01
8.750000e+01
9.375000e+01
1.000000e+02
1.062500e+02
1.125000e+02
1.187500e+02
1.250000e+02
1.312500e+02
1.375000e+02
1.437500e+02
1.500000e+02
1.562500e+02
1.625000e+02
1.687500e+02
1.750000e+02
1.812500e+02
1.875000e+02
1.937500e+02
2.000000e+02
0.000000e+00
6.250000e+00
1.250000e+01
1.875000e+01
2.500000e+01
3.125000e+01
3.750000e+01
4.375000e+01
5.000000e+01
5.625000e+01
6.250000e+01
6.875000e+01
7.500000e+01
8.125000e+01
8.750000e+01
9.375000e+01
1.000000e+02
1.062500e+02
1.125000e+02
1.187500e+02
1.250000e+02
1.312500e+02
1.375000e+02
1.437500e+02
1.500000e+02
1.562500e+02
1.625000e+02
1.687500e+02
1.750000e+02
1.812500e+02
1.875000e+02
1.937500e+02
2.000000e+02
0.000000e+00
0.000000e+00
0.000000e+00
0.000000e+00
0.000000e+00
0.000000e+00
0.000000e+00
0.000000e+00
0.000000e+00
0.000000e+00
0.000000e+00
0.000000e+00
0.000000e+00
0.000000e+00
0.000000e+00
0.000000e+00
0.000000e+00
0.000000e+00
0.000000e+00
0.000000e+00
0.000000e+00
0.000000e+00
0.000000e+00
0.000000e+00
0.000000e+00
0.000000e+00
0.000000e+00
0.000000e+00
0.000000e+00
0.000000e+00
0.000000e+00
0.000000e+00
0.000000e+00
6.250000e+00
6.250000e+00
6.250000e+00
6.250000e+00
6.250000e+00
6.250000e+00
6.250000e+00
6.250000e+00
6.250000e+00
6.250000e+00
6.250000e+00
6.250000e+00
6.250000e+00
6.250000e+00
6.250000e+00
6.250000e+00
6.250000e+00
6.250000e+00
6.250000e+00
6.250000e+00
6.250000e+00
6.250000e+00
6.250000e+00
6.250000e+00
6.250000e+00
6.250000e+00
6.250000e+00
6.250000e+00
6.250000e+00
6.250000e+00
6.250000e+00
6.250000e+00
6.250000e+00
1.250000e+01
1.250000e+01
1.250000e+01
1.250000e+01
1.250000e+01
1.250000e+01
1.250000e+01
1.250000e+01
1.250000e+01
1.250000e+01
1.250000e+01
1.250000e+01
1.250000e+01
1.250000e+01
1.250000e+01
1.250000e+01
1.250000e+01
1.250000e+01
1.250000e+01
1.250000e+01
1.250000e+01
1.250000e+01
1.250000e+01
1.250000e+01
1.250000e+01
1.250000e+01
1.250000e+01
1.250000e+01
1.250000e+01
1.250000e+01
1.250000e+01
1.250000e+01
1.250000e+01
1.875000e+01
1.875000e+01
1.875000e+01
1.875000e+01
1.875000e+01
1.875000e+01
1.875000e+01
1.875000e+01
1.875000e+01
1.875000e+01
1.875000e+01
1.875000e+01
1.875000e+01
1.875000e+01
1.875000e+01
1.875000e+01
1.875000e+01
1.875000e+01
1.875000e+01
1.875000e+01
1.875000e+01
1.875000e+01
1.875000e+01
1.875000e+01
1.875000e+01
1.875000e+01
1.875000e+01
1.875000e+01
1.875000e+01
1.875000e+01
1.875000e+01
1.875000e+01
1.875000e+01
2.500000e+01
2.500000e+01
2.500000e+01
2.500000e+01
2.500000e+01
2.500000e+01
2.500000e+01
2.500000e+01
2.500000e+01
2.500000e+01
2.500000e+01
2.500000e+01
2.500000e+01
2.500000e+01
2.500000e+01
2.500000e+01
2.500000e+01
2.500000e+01
2.500000e+01
2.500000e+01
2.500000e+01
2.500000e+01
2.500000e+01
2.500000e+01
2.500000e+01
2.500000e+01
2.500000e+01
2.500000e+01
2.500000e+01
2.500000e+01
2.500000e+01
2.500000e+01
2.500000e+01
3.125000e+01
3.125000e+01
3.125000e+01
3.125000e+01
3.125000e+01
3.125000e+01
3.125000e+01
3.125000e+01
3.125000e+01
3.125000e+01
3.125000e+01
3.125000e+01
3.125000e+01
3.125000e+01
3.125000e+01
3.125000e+01
3.125000e+01
3.125000e+01
3.125000e+01
3.125000e+01
3.125000e+01
3.125000e+01
3.125000e+01
3.125000e+01
3.125000e+01
3.125000e+01
3.125000e+01
3.125000e+01
3.125000e+01
3.125000e+01
3.125000e+01
3.125000e+01
3.125000e+01
3.750000e+01
3.750000e+01
3.750000e+01
3.750000e+01
3.750000e+01
3.750000e+01
3.750000e+01
3.750000e+01
3.750000e+01
3.750000e+01
3.750000e+01
3.750000e+01
3.750000e+01
3.750000e+01
3.750000e+01
3.750000e+01
3.750000e+01
3.750000e+01
3.750000e+01
3.750000e+01
3.750000e+01
3.750000e+01
3.750000e+01
3.750000e+01
3.750000e+01
3.750000e+01
3.750000e+01
3.750000e+01
3.750000e+01
3.750000e+01
3.750000e+01
3.750000e+01
3.750000e+01
4.375000e+01
4.375000e+01
4.375000e+01
4.375000e+01
4.375000e+01
4.375000e+01
4.375000e+01
4.375000e+01
4.375000e+01
4.375000e+01
4.375000e+01
4.375000e+01
4.375000e+01
4.375000e+01
4.375000e+01
4.375000e+01
4.375000e+01
4.375000e+01
4.375000e+01
4.375000e+01
4.375000e+01
4.375000e+01
4.375000e+01
4.375000e+01
4.375000e+01
4.375000e+01
4.375000e+01
4.375000e+01
4.375000e+01
4.375000e+01
4.375000e+01
4.375000e+01
4.375000e+01
5.000000e+01
5.000000e+01
5.000000e+01
5.000000e+01
5.000000e+01
5.000000e+01
5.000000e+01
5.000000e+01
5.000000e+01
5.000000e+01
5.000000e+01
5.000000e+01
5.000000e+01
5.000000e+01
5.000000e+01
5.000000e+01
5.000000e+01
5.000000e+01
5.000000e+01
5.000000e+01
5.000000e+01
5.000000e+01
5.000000e+01
5.000000e+01
5.000000e+01
5.000000e+01
5.000000e+01
5.000000e+01
5.000000e+01
5.000000e+01
5.000000e+01
5.000000e+01
5.000000e+01
5.625000e+01
5.625000e+01
5.625000e+01
5.625000e+01
5.625000e+01
5.625000e+01
5.625000e+01
5.625000e+01
5.625000e+01
5.625000e+01
5.625000e+01
5.625000e+01
5.625000e+01
5.625000e+01
5.625000e+01
5.625000e+01
5.625000e+01
5.625000e+01
5.625000e+01
5.625000e+01
5.625000e+01
5.625000e+01
5.625000e+01
5.625000e+01
5.625000e+01
5.625000e+01
5.625000e+01
5.625000e+01
5.625000e+01
5.625000e+01
5.625000e+01
5.625000e+01
5.625000e+01
6.250000e+01
6.250000e+01
6.250000e+01
6.250000e+01
6.250000e+01
6.250000e+01
6.250000e+01
6.250000e+01
6.250000e+01
6.250000e+01
6.250000e+01
6.250000e+01
6.250000e+01
6.250000e+01
6.250000e+01
6.250000e+01
6.250000e+01
6.250000e+01
6.250000e+01
6.250000e+01
6.250000e+01
6.250000e+01
6.250000e+01
6.250000e+01
6.250000e+01
6.250000e+01
6.250000e+01
6.250000e+01
6.250000e+01
6.250000e+01
6.250000e+01
6.250000e+01
6.250000e+01
6.875000e+01
6.875000e+01
6.875000e+01
6.875000e+01
6.875000e+01
6.875000e+01
6.875000e+01
6.875000e+01
6.875000e+01
6.875000e+01
6.875000e+01
6.875000e+01
6.875000e+01
6.875000e+01
6.875000e+01
6.875000e+01
6.875000e+01
6.875000e+01
6.875000e+01
6.875000e+01
6.875000e+01
6.875000e+01
6.875000e+01
6.875000e+01
6.875000e+01
6.875000e+01
6.875000e+01
6.875000e+01
6.875000e+01
6.875000e+01
6.875000e+01
6.875000e+01
6.875000e+01
7.500000e+01
7.500000e+01
7.500000e+01
7.500000e+01
7.500000e+01
7.500000e+01
7.500000e+01
7.500000e+01
7.500000e+01
7.500000e+01
7.500000e+01
7.500000e+01
7.500000e+01
7.500000e+01
7.500000e+01
7.500000e+01
7.500000e+01
7.500000e+01
7.500000e+01
7.500000e+01
7.500000e+01
7.500000e+01
7.500000e+01
7.500000e+01
7.500000e+01
7.500000e+01
7.500000e+01
7.500000e+01
7.500000e+01
7.500000e+01
7.500000e+01
7.500000e+01
7.500000e+01
8.125000e+01
8.125000e+01
8.125000e+01
8.125000e+01
8.125000e+01
8.125000e+01
8.125000e+01
8.125000e+01
8.125000e+01
8.125000e+01
8.125000e+01
8.125000e+01
8.125000e+01
8.125000e+01
8.125000e+01
8.125000e+01
8.125000e+01
8.125000e+01
8.125000e+01
8.125000e+01
8.125000e+01
8.125000e+01
8.125000e+01
8.125000e+01
8.125000e+01
8.125000e+01
8.125000e+01
8.125000e+01
8.125000e+01
8.125000e+01
8.125000e+01
8.125000e+01
8.125000e+01
8.750000e+01
8.750000e+01
8.750000e+01
8.750000e+01
8.750000e+01
8.750000e+01
8.750000e+01
8.750000e+01
8.750000e+01
8.750000e+01
8.750000e+01
8.750000e+01
8.750000e+01
8.750000e+01
8.750000e+01
8.750000e+01
8.750000e+01
8.750000e+01
8.750000e+01
8.750000e+01
8.750000e+01
8.750000e+01
8.750000e+01
8.750000e+01
8.750000e+01
8.750000e+01
8.750000e+01
8.750000e+01
8.750000e+01
8.750000e+01
8.750000e+01
8.750000e+01
8.750000e+01
9.375000e+01
9.375000e+01
9.375000e+01
9.375000e+01
9.375000e+01
9.375000e+01
9.375000e+01
9.375000e+01
9.375000e+01
9.375000e+01
9.375000e+01
9.375000e+01
9.375000e+01
9.375000e+01
9.375000e+01
9.375000e+01
9.375000e+01
9.375000e+01
9.375000e+01
9.375000e+01
9.375000e+01
9.375000e+01
9.375000e+01
9.375000e+01
9.375000e+01
9.375000e+01
9.375000e+01
9.375000e+01
9.375000e+01
9.375000e+01
9.375000e+01
9.375000e+01
9.375000e+01
1.000000e+02
1.000000e+02
1.000000e+02
1.000000e+02
1.000000e+02
1.000000e+02
1.000000e+02
1.000000e+02
1.000000e+02
1.000000e+02
1.000000e+02
1.000000e+02
1.000000e+02
1.000000e+02
1.000000e+02
1.000000e+02
1.000000e+02
1.000000e+02
1.000000e+02
1.000000e+02
1.000000e+02
1.000000e+02
1.000000e+02
1.000000e+02
1.000000e+02
1.000000e+02
1.000000e+02
1.000000e+02
1.000000e+02
1.000000e+02
1.000000e+02
1.000000e+02
1.000000e+02
0.000000e+00
-3.702008e-01
-6.668014e-01
-9.548504e-01
-1.249055e+00
-1.537911e+00
-1.824656e+00
-2.111668e+00
-2.397614e+00
-2.681760e+00
-2.964175e+00
-3.244656e+00
-3.522703e+00
-3.797750e+00
-4.069116e+00
-4.335913e+00
-4.597039e+00
-4.851255e+00
-5.097342e+00
-5.334285e+00
-5.561457e+00
-5.778768e+00
-5.986770e+00
-6.186734e+00
-6.380733e+00
-6.571762e+00
-6.763922e+00
-6.962784e+00
-7.176214e+00
-7.415063e+00
-7.686761e+00
-7.979559e+00
-8.150673e+00
0.000000e+00
-2.367164e-01
-4.912107e-01
-7.444374e-01
-1.003379e+00
-1.257519e+00
-1.509122e+00
-1.760678e+00
-2.011171e+00
-2.259920e+00
-2.507021e+00
-2.752362e+00
-2.995540e+00
-3.236083e+00
-3.473429e+00
-3.706827e+00
-3.935328e+00
-4.157840e+00
-4.373242e+00
-4.580537e+00
-4.778998e+00
-4.968266e+00
-5.148406e+00
-5.319908e+00
-5.483644e+00
-5.640799e+00
-5.792709e+00
-5.940527e+00
-6.084137e+00
-6.217990e+00
-6.322321e+00
-6.378011e+00
-6.451342e+00
0.000000e+00
-1.789640e-01
-3.710733e-01
-5.800325e-01
-7.974543e-01
-1.013589e+00
-1.229130e+00
-1.444910e+00
-1.659938e+00
-1.873654e+00
-2.085981e+00
-2.296703e+00
-2.505436e+00
-2.711736e+00
-2.915069e+00
-3.114749e+00
-3.309933e+00
-3.499646e+00
-3.682868e+00
-3.858625e+00
-4.026077e+00
-4.184579e+00
-4.333675e+00
-4.473045e+00
-4.602386e+00
-4.721204e+00
-4.828472e+00
-4.921974e+00
-4.996983e+00
-5.044176e+00
-5.053843e+00
-5.045958e+00
-5.124241e+00
0.000000e+00
-1.402870e-01
-2.905709e-01
-4.549258e-01
-6.289022e-01
-8.055304e-01
-9.839085e-01
-1.163183e+00
-1.342284e+00
-1.520652e+00
-1.697962e+00
-1.873847e+00
-2.047890e+00
-2.219638e+00
-2.388560e+00
-2.554017e+00
-2.715249e+00
-2.871398e+00
-3.021538e+00
-3.164725e+00
-3.300042e+00
-3.426606e+00
-3.543551e+00
-3.649949e+00
-3.744681e+00
-3.826249e+00
-3.892514e+00
-3.940409e+00
-3.965937e+00
-3.966055e+00
-3.949063e+00
-3.950213e+00
-4.023994e+00
0.000000e+00
-1.120039e-01
-2.295102e-01
-3.557718e-01
-4.889664e-01
-6.269016e-01
-7.676620e-01
-9.098414e-01
-1.052457e+00
-1.194852e+00
-1.336511e+00
-1.476976e+00
-1.615806e+00
-1.752542e+00
-1.886670e+00
-2.017601e+00
-2.144660e+00
-2.267086e+00
-2.384041e+00
-2.494624e+00
-2.597882e+00
-2.692809e+00
-2.778317e+00
-2.853190e+00
-2.916012e+00
-2.965108e+00
-2.998558e+00
-3.014519e+00
-3.012414e+00
-2.996567e+00
-2.984140e+00
-3.006495e+00
-3.076729e+00
0.000000e+00
-8.410488e-02
-1.717350e-01
-2.641144e-01
-3.615199e-01
-4.628835e-01
-5.669794e-01
-6.726442e-01
-7.790083e-01
-8.854187e-01
-9.913431e-01
-1.096322e+00
-1.199929e+00
-1.301732e+00
-1.401259e+00
-1.497989e+00
-1.591327e+00
-1.680605e+00
-1.765071e+00
-1.843891e+00
-1.916148e+00
-1.980839e+00
-2.036875e+00
-2.083075e+00
-2.118196e+00
-2.141032e+00
-2.150700e+00
-2.147353e+00
-2.133717e+00
-2.117967e+00
-2.116728e+00
-2.147701e+00
-2.213692e+00
0.000000e+00
-5.606391e-02
-1.142479e-01
-1.752575e-01
-2.392907e-01
-3.059950e-01
-3.746794e-01
-4.446172e-01
-5.151766e-01
-5.858419e-01
-6.561822e-01
-7.258185e-01
-7.943939e-01
-8.615448e-01
-9.268781e-01
-9.899539e-01
-1.050273e+00
-1.107264e+00
-1.160279e+00
-1.208586e+00
-1.251377e+00
-1.287778e+00
-1.316872e+00
-1.337761e+00
-1.349668e+00
-1.352159e+00
-1.345560e+00
-1.331696e+00
-1.315048e+00
-1.304065e+00
-1.310512e+00
-1.343707e+00
-1.401842e+00
0.000000e+00
-2.806739e-02
-5.717474e-02
-8.761021e-02
-1.194756e-01
-1.526383e-01
-1.868080e-01
-2.216322e-01
-2.567771e-01
-2.919498e-01
-3.268927e-01
-3.613670e-01
-3.951346e-01
-4.279411e-01
-4.594999e-01
-4.894797e-01
-5.174932e-01
-5.430892e-01
-5.657487e-01
-5.848876e-01
-5.998705e-01
-6.100401e-01
-6.147711e-01
-6.135650e-01
-6.062064e-01
-5.930177e-01
-5.752482e-01
-5.556058e-01
-5.388118e-01
-5.316700e-01
-5.415672e-01
-5.724907e-01
-6.207037e-01
0.000000e+00
-1.589661e-04
-3.208930e-04
-4.790610e-04
-6.250974e-04
-7.486023e-04
-8.360672e-04
-8.692346e-04
-8.230182e-04
-6.628601e-04
-3.413322e-04
2.062443e-04
1.067318e-03
2.358766e-03
4.234365e-03
6.892324e-03
1.058159e-02
1.560509e-02
2.231759e-02
3.111495e-02
4.241047e-02
5.659231e-02
7.395297e-02
9.457973e-02
1.181928e-01
1.439220e-01
1.700316e-01
1.936541e-01
2.107132e-01
2.163839e-01
2.065816e-01
1.804517e-01
1.424261e-01
0.000000e+00
2.775467e-02
5.654297e-02
8.666662e-02
1.182436e-01
1.511614e-01
1.851551e-01
2.199073e-01
2.551319e-01
2.906018e-01
3.261491e-01
3.616572e-01
3.970528e-01
4.323011e-01
4.674048e-01
5.024052e-01
5.373845e-01
5.724638e-01
6.077967e-01
6.435534e-01
6.798929e-01
7.169170e-01
7.545987e-01
7.926806e-01
8.305375e-01
8.670151e-01
9.002792e-01
9.277545e-01
9.463010e-01
9.528283e-01
9.454930e-01
9.252305e-01
8.967379e-01
0.000000e+00
5.576698e-02
1.136464e-01
1.743579e-01
2.381136e-01
3.045786e-01
3.730834e-01
4.429315e-01
5.135319e-01
5.844250e-01
6.552553e-01
7.257458e-01
7.956753e-01
8.648602e-01
9.331434e-01
1.000390e+00
1.066487e+00
1.131336e+00
1.194850e+00
1.256939e+00
1.317485e+00
1.376306e+00
1.433103e+00
1.487371e+00
1.538307e+00
1.584708e+00
1.624908e+00
1.656834e+00
1.678273e+00
1.687457e+00
1.683979e+00
1.669800e+00
1.649826e+00
0.000000e+00
8.383533e-02
1.711865e-01
2.632914e-01
3.604382e-01
4.615715e-01
5.654813e-01
6.710265e-01
7.773682e-01
8.838943e-01
9.901270e-01
1.095678e+00
1.200215e+00
1.303426e+00
1.404997e+00
1.504604e+00
1.601908e+00
1.696554e+00
1.788168e+00
1.876356e+00
1.960703e+00
2.040754e+00
2.115982e+00
2.185735e+00
2.249176e+00
2.305223e+00
2.352541e+00
2.389633e+00
2.415098e+00
2.428125e+00
2.429187e+00
2.420820e+00
2.408167e+00
0.000000e+00
1.117774e-01
2.290451e-01
3.550701e-01
4.880349e-01
6.257556e-01
7.663254e-01
9.083502e-01
1.050865e+00
1.193236e+00
1.334979e+00
1.475671e+00
1.614916e+00
1.752307e+00
1.887392e+00
2.019654e+00
2.148500e+00
2.273269e+00
2.393243e+00
2.507675e+00
2.615820e+00
2.716945e+00
2.810332e+00
2.895251e+00
2.970925e+00
3.036506e+00
3.091080e+00
3.133749e+00
3.163835e+00
3.181236e+00
3.186963e+00
3.183821e+00
3.177141e+00
0.000000e+00
1.401285e-01
2.902373e-01
4.544146e-01
6.282104e-01
8.046566e-01
9.828572e-01
1.161960e+00
1.340897e+00
1.519115e+00
1.696294e+00
1.872070e+00
2.046022e+00
2.217685e+00
2.386496e+00
2.551747e+00
2.712572e+00
2.867950e+00
3.016755e+00
3.157825e+00
3.290035e+00
3.412357e+00
3.523882e+00
3.623825e+00
3.711508e+00
3.786358e+00
3.847921e+00
3.895921e+00
3.930388e+00
3.951866e+00
3.961766e+00
3.962953e+00
3.960726e+00
0.000000e+00
1.789044e-01
3.709368e-01
5.798082e-01
7.971318e-01
1.013156e+00
1.228579e+00
1.444227e+00
1.659098e+00
1.872624e+00
2.084711e+00
2.295118e+00
2.503419e+00
2.709103e+00
2.911520e+00
3.109793e+00
3.302769e+00
3.489038e+00
3.667016e+00
3.835066e+00
3.991635e+00
4.135348e+00
4.265066e+00
4.379901e+00
4.479229e+00
4.562705e+00
4.630302e+00
4.682371e+00
4.719716e+00
4.743673e+00
4.756225e+00
4.760311e+00
4.760788e+00
0.000000e+00
2.367619e-01
4.912823e-01
7.445306e-01
1.003491e+00
1.257638e+00
1.509245e+00
1.760797e+00
2.011258e+00
2.259930e+00
2.506888e+00
2.751974e+00
2.994723e+00
3.234560e+00
3.470745e+00
3.702231e+00
3.927585e+00
4.145016e+00
4.352481e+00
4.547864e+00
4.729156e+00
4.894586e+00
5.042697e+00
5.172378e+00
5.282902e+00
5.373980e+00
5.445847e+00
5.499385e+00
5.536235e+00
5.558854e+00
5.570427e+00
5.574628e+00
5.575655e+00
0.000000e+00
3.702824e-01
6.670024e-01
9.551985e-01
1.249565e+00
1.538584e+00
1.825516e+00
2.112738e+00
2.398905e+00
2.683276e+00
2.965905e+00
3.246553e+00
3.524661e+00
3.799550e+00
4.070335e+00
4.335760e+00
4.594113e+00
4.843257e+00
5.080755e+00
5.304071e+00
5.510766e+00
5.698632e+00
5.865776e+00
6.010665e+00
6.132184e+00
6.229746e+00
6.303465e+00
6.354404e+00
6.384865e+00
6.398656e+00
6.401215e+00
6.399184e+00
6.398028e+00
0.000000e+00
-2.285048e-01
-4.187517e-01
-6.414341e-01
-8.930127e-01
-1.175489e+00
-1.492584e+00
-1.844974e+00
-2.232626e+00
-2.655918e+00
-3.115022e+00
-3.609789e+00
-4.139936e+00
-4.705073e+00
-5.304646e+00
-5.937906e+00
-6.603909e+00
-7.301537e+00
-8.029538e+00
-8.786594e+00
-9.571418e+00
-1.038287e+01
-1.122013e+01
-1.208288e+01
-1.297169e+01
-1.388842e+01
-1.483698e+01
-1.582445e+01
-1.686299e+01
-1.797429e+01
-1.920646e+01
-2.067980e+01
-2.268306e+01
0.000000e+00
-1.423243e-01
-3.409737e-01
-5.601455e-01
-8.113609e-01
-1.094770e+00
-1.412022e+00
-1.764466e+00
-2.152521e+00
-2.576319e+00
-3.035945e+00
-3.531336e+00
-4.062259e+00
-4.628347e+00
-5.229089e+00
-5.863797e+00
-6.531584e+00
-7.231353e+00
-7.961832e+00
-8.721632e+00
-9.509352e+00
-1.032371e+01
-1.116371e+01
-1.202889e+01
-1.291963e+01
-1.383761e+01
-1.478657e+01
-1.577349e+01
-1.681073e+01
-1.792145e+01
-1.915242e+01
-2.059836e+01
-2.245381e+01
0.000000e+00
-1.063079e-01
-2.805217e-01
-4.946392e-01
-7.431679e-01
-1.025913e+00
-1.342888e+00
-1.695206e+00
-2.083430e+00
-2.507596e+00
-2.967698e+00
-3.463686e+00
-3.995358e+00
-4.562368e+00
-5.164237e+00
-5.800326e+00
-6.469789e+00
-7.171562e+00
-7.904370e+00
-8.666796e+00
-9.457381e+00
-1.027477e+01
-1.111790e+01
-1.198624e+01
-1.288014e+01
-1.380128e+01
-1.475350e+01
-1.574410e+01
-1.678639e+01
-1.790367e+01
-1.912855e+01
-2.048384e+01
-2.194942e+01
0.000000e+00
-9.136576e-02
-2.457674e-01
-4.478624e-01
-6.908035e-01
-9.705652e-01
-1.286096e+00
-1.637733e+00
-2.025738e+00
-2.450031e+00
-2.910515e+00
-3.407087e+00
-3.939534e+00
-4.507516e+00
-5.110574e+00
-5.748091e+00
-6.419254e+00
-7.123024e+00
-7.858150e+00
-8.623226e+00
-9.416790e+00
-1.023748e+01
-1.108423e+01
-1.195650e+01
-1.285462e+01
-1.378031e+01
-1.473731e+01
-1.573268e+01
-1.677851e+01
-1.789237e+01
-1.908244e+01
-2.031814e+01
-2.146299e+01
0.000000e+00
-8.593964e-02
-2.275068e-01
-4.186566e-01
-6.538680e-01
-9.290300e-01
-1.242011e+00
-1.592305e+00
-1.979668e+00
-2.403833e+00
-2.864581e+00
-3.361707e+00
-3.894950e+00
-4.463959e+00
-5.068271e+00
-5.707278e+00
-6.380183e+00
-7.085977e+00
-7.823444e+00
-8.591213e+00
-9.387853e+00
-1.021202e+01
-1.106264e+01
-1.193915e+01
-1.284178e+01
-1.377195e+01
-1.473279e+01
-1.572972e+01
-1.677083e+01
-1.786359e+01
-1.899750e+01
-2.011625e+01
-2.111815e+01
0.000000e+00
-8.237049e-02
-2.169505e-01
-4.003996e-01
-6.290888e-01
-8.995769e-01
-1.209725e+00
-1.558383e+00
-1.944895e+00
-2.368795e+00
-2.829720e+00
-3.327358e+00
-3.861389e+00
-4.431432e+00
-5.037014e+00
-5.677526e+00
-6.352182e+00
-7.060001e+00
-7.799801e+00
-8.570250e+00
-9.369945e+00
-1.019754e+01
-1.105191e+01
-1.193234e+01
-1.283875e+01
-1.377191e+01
-1.473361e+01
-1.572660e+01
-1.675349e+01
-1.781215e+01
-1.888137e+01
-1.991012e+01
-2.082720e+01
0.000000e+00
-7.988801e-02
-2.104063e-01
-3.890850e-01
-6.132085e-01
-8.801463e-01
-1.187886e+00
-1.535076e+00
-1.920811e+00
-2.344456e+00
-2.805531e+00
-3.303639e+00
-3.838408e+00
-4.409432e+00
-5.016227e+00
-5.658183e+00
-6.334529e+00
-7.044301e+00
-7.786347e+00
-8.559352e+00
-9.361909e+00
-1.019262e+01
-1.105021e+01
-1.193367e+01
-1.284239e+01
-1.377615e+01
-1.473503e+01
-1.571876e+01
-1.672502e+01
-1.774510e+01
-1.875576e+01
-1.971642e+01
-2.057761e+01
0.000000e+00
-7.845804e-02
-2.067474e-01
-3.828036e-01
-6.043382e-01
-8.691334e-01
-1.175346e+00
-1.521579e+00
-1.906825e+00
-2.330348e+00
-2.791600e+00
-3.290135e+00
-3.825553e+00
-4.397438e+00
-5.005307e+00
-5.648558e+00
-6.326434e+00
-7.037988e+00
-7.782074e+00
-8.557366e+00
-9.362405e+00
-1.019566e+01
-1.105564e+01
-1.194089e+01
-1.285011e+01
-1.378197e+01
-1.473479e+01
-1.570571e+01
-1.668900e+01
-1.767303e+01
-1.863636e+01
-1.954786e+01
-2.037295e+01
0.000000e+00
-7.798816e-02
-2.055635e-01
-3.807924e-01
-6.015121e-01
-8.656330e-01
-1.171375e+00
-1.517347e+00
-1.902516e+00
-2.326125e+00
-2.787608e+00
-3.286518e+00
-3.822456e+00
-4.395020e+00
-5.003745e+00
-5.648050e+00
-6.327195e+00
-7.040241e+00
-7.786035e+00
-8.563203e+00
-9.370183e+00
-1.020526e+01
-1.106661e+01
-1.195231e+01
-1.286030e+01
-1.378816e+01
-1.473275e+01
-1.568936e+01
-1.665049e+01
-1.760398e+01
-1.853143e+01
-1.940916e+01
-2.021212e+01
0.000000e+00
-7.844320e-02
-2.067413e-01
-3.828356e-01
-6.044423e-01
-8.693493e-01
-1.175721e+00
-1.522175e+00
-1.907714e+00
-2.331629e+00
-2.793395e+00
-3.292603e+00
-3.828893e+00
-4.401899e+00
-5.011193e+00
-5.656227e+00
-6.336283e+00
-7.050427e+00
-7.797476e+00
-8.575985e+00
-9.384249e+00
-1.022032e+01
-1.108203e+01
-1.196694e+01
-1.287227e+01
-1.379472e+01
-1.473004e+01
-1.567248e+01
-1.661389e+01
-1.754288e+01
-1.844422e+01
-1.929984e+01
-2.009096e+01
0.000000e+00
-7.985506e-02
-2.103886e-01
-3.891408e-01
-6.134036e-01
-8.805574e-01
-1.188606e+00
-1.536218e+00
-1.922520e+00
-2.346917e+00
-2.808979e+00
-3.308376e+00
-3.844816e+00
-4.417988e+00
-5.027512e+00
-5.672885e+00
-6.353416e+00
-7.068170e+00
-7.815927e+00
-8.595145e+00
-9.403961e+00
-1.024018e+01
-1.110129e+01
-1.198437e+01
-1.288607e+01
-1.380236e+01
-1.472830e+01
-1.565763e+01
-1.658235e+01
-1.749231e+01
-1.837524e+01
-1.921739e+01
-2.000456e+01
0.000000e+00
-8.231324e-02
-2.169113e-01
-4.004641e-01
-6.293507e-01
-9.001437e-01
-1.210726e+00
-1.559979e+00
-1.947289e+00
-2.372244e+00
-2.834552e+00
-3.333994e+00
-3.870358e+00
-4.443399e+00
-5.052792e+00
-5.698077e+00
-6.378593e+00
-7.093403e+00
-7.841239e+00
-8.620463e+00
-9.429049e+00
-1.026458e+01
-1.112422e+01
-1.200467e+01
-1.290211e+01
-1.381203e+01
-1.472907e+01
-1.564685e+01
-1.655783e+01
-1.745326e+01
-1.832351e+01
-1.915845e+01
-1.994780e+01
0.000000e+00
-8.585075e-02
-2.274353e-01
-4.187121e-01
-6.541654e-01
-9.296996e-01
-1.243210e+00
-1.594229e+00
-1.982563e+00
-2.408011e+00
-2.870437e+00
-3.369745e+00
-3.905808e+00
-4.478433e+00
-5.087342e+00
-5.732113e+00
-6.412103e+00
-7.126368e+00
-7.873594e+00
-8.652049e+00
-9.459572e+00
-1.029355e+01
-1.115093e+01
-1.202811e+01
-1.292095e+01
-1.382462e+01
-1.473357e+01
-1.564147e+01
-1.654132e+01
-1.742572e+01
-1.828732e+01
-1.911928e+01
-1.991527e+01
0.000000e+00
-9.124265e-02
-2.456612e-01
-4.478967e-01
-6.911068e-01
-9.712826e-01
-1.287402e+00
-1.639847e+00
-2.028933e+00
-2.454649e+00
-2.916995e+00
-3.415983e+00
-3.951545e+00
-4.523516e+00
-5.131637e+00
-5.775500e+00
-6.454463e+00
-7.167560e+00
-7.913430e+00
-8.690272e+00
-9.495827e+00
-1.032737e+01
-1.118168e+01
-1.205501e+01
-1.294301e+01
-1.384070e+01
-1.474245e+01
-1.564205e+01
-1.653300e+01
-1.740898e+01
-1.826455e+01
-1.909588e+01
-1.990105e+01
0.000000e+00
-1.061700e-01
-2.803989e-01
-4.946566e-01
-7.434622e-01
-1.026639e+00
-1.344229e+00
-1.697391e+00
-2.086745e+00
-2.512400e+00
-2.974445e+00
-3.472950e+00
-4.007860e+00
-4.579006e+00
-5.186112e+00
-5.828743e+00
-6.506218e+00
-7.217529e+00
-7.961270e+00
-8.735596e+00
-9.538211e+00
-1.036635e+01
-1.121674e+01
-1.208557e+01
-1.296846e+01
-1.386036e+01
-1.475566e+01
-1.564831e+01
-1.653216e+01
-1.740165e+01
-1.825273e+01
-1.908411e+01
-1.989851e+01
0.000000e+00
-1.422045e-01
-3.408584e-01
-5.601633e-01
-8.116543e-01
-1.095499e+00
-1.413373e+00
-1.766671e+00
-2.155866e+00
-2.581164e+00
-3.042745e+00
-3.540662e+00
-4.074826e+00
-4.645037e+00
-5.250969e+00
-5.892111e+00
-6.567699e+00
-7.276650e+00
-8.017508e+00
-8.788416e+00
-9.587091e+00
-1.041080e+01
-1.125632e+01
-1.211987e+01
-1.299712e+01
-1.388310e+01
-1.477230e+01
-1.565886e+01
-1.653691e+01
-1.740134e+01
-1.824888e+01
-1.907985e+01
-1.990058e+01
0.000000e+00
-2.284188e-01
-4.186645e-01
-6.414812e-01
-8.933348e-01
-1.176249e+00
-1.493972e+00
-1.847218e+00
-2.236010e+00
-2.660799e+00
-3.121848e+00
-3.619119e+00
-4.152463e+00
-4.721642e+00
-5.326252e+00
-5.965671e+00
-6.639010e+00
-7.345085e+00
-8.082384e+00
-8.849047e+00
-9.642838e+00
-1.046110e+01
-1.130069e+01