TITLE = "Solution"
VARIABLES = x, y, u, v, psiu, psiv, t, stress
ZONE T="structure" N=561 E=512 F=FEBLOCK ET=QUADRILATERAL VARLOCATION=([7,8]=cellcentered)
0.000000e+00
6.250000e+00
1.250000e+01
1.875000e+01
2.500000e+01
3.125000e+01
3.750000e+01
4.375000e+01
5.000000e+01
5.625000e+01
6.250000e+01
6.875000e+01
7.500000e+01
8.125000e+01
8.750000e+01
9.375000e+01
1.000000e+02
1.062500e+02
1.125000e+02
1.187500e+02
1.250000e+02
1.312500e+02
1.375000e+02
1.437500e+02
1.500000e+02
1.562500e+02
1.625000e+02
1.687500e+02
1.750000e+02
1.812500e+02
1.875000e+02
1.937500e+02
2.000000e+02
0.000000e+00
6.250000e+00
1.250000e+01
1.875000e+01
2.500000e+01
3.125000e+01
3.750000e+01
4.375000e+01
5.000000e+01
5.625000e+01
6.250000e+01
6.875000e+01
7.500000e+01
8.125000e+01
8.750000e+01
9.375000e+01
1.000000e+02
1.062500e+02
1.125000e+02
1.187500e+02
1.250000e+02
1.312500e+02
1.375000e+02
1.437500e+02
1.500000e+02
1.562500e+02
1.625000e+02
1.687500e+02
1.750000e+02
1.812500e+02
1.875000e+02
1.937500e+02
2.000000e+02
0.000000e+00
6.250000e+00
1.250000e+01
1.875000e+01
2.500000e+01
3.125000e+01
3.750000e+01
4.375000e+01
5.000000e+01
5.625000e+01
6.250000e+01
6.875000e+01
7.500000e+01
8.125000e+01
8.750000e+01
9.375000e+01
1.000000e+02
1.062500e+02
1.125000e+02
1.187500e+02
1.250000e+02
1.312500e+02
1.375000e+02
1.437500e+02
1.500000e+02
1.562500e+02
1.625000e+02
1.687500e+02
1.750000e+02
1.812500e+02
1.875000e+02
1.937500e+02
2.000000e+02
0.000000e+00
6.250000e+00
1.250000e+01
1.875000e+01
2.500000e+01
3.125000e+01
3.750000e+01
4.375000e+01
5.000000e+01
5.625000e+01
6.250000e+01
6.875000e+01
7.500000e+01
8.125000e+01
8.750000e+01
9.375000e+01
1.000000e+02
1.062500e+02
1.125000e+02
1.187500e+02
1.250000e+02
1.312500e+02
1.375000e+02
1.437500e+02
1.500000e+02
1.562500e+02
1.625000e+02
1.687500e+02
1.750000e+02
1.812500e+02
1.875000e+02
1.937500e+02
2.000000e+02
0.000000e+00
6.250000e+00
1.250000e+01
1.875000e+01
2.500000e+01
3.125000e+01
3.750000e+01
4.375000e+01
5.000000e+01
5.625000e+01
6.250000e+01
6.875000e+01
7.500000e+01
8.125000e+01
8.750000e+01
9.375000e+01
1.000000e+02
1.062500e+02
1.125000e+02
1.187500e+02
1.250000e+02
1.312500e+02
1.375000e+02
1.437500e+02
1.500000e+02
1.562500e+02
1.625000e+02
1.687500e+02
1.750000e+02
1.812500e+02
1.875000e+02
1.937500e+02
2.000000e+02
0.000000e+00
6.250000e+00
1.250000e+01
1.875000e+01
2.500000e+01
3.125000e+01
3.750000e+01
4.375000e+01
5.000000e+01
5.625000e+01
6.250000e+01
6.875000e+01
7.500000e+01
8.125000e+01
8.750000e+01
9.375000e+01
1.000000e+02
1.062500e+02
1.125000e+02
1.187500e+02
1.250000e+02
1.312500e+02
1.375000e+02
1.437500e+02
1.500000e+02
1.562500e+02
1.625000e+02
1.687500e+02
1.750000e+02
1.812500e+02
1.875000e+02
1.937500e+02
2.000000e+02
0.000000e+00
6.250000e+00
1.250000e+01
1.875000e+01
2.500000e+01
3.125000e+01
3.750000e+01
4.375000e+01
5.000000e+01
5.625000e+01
6.250000e+01
6.875000e+01
7.500000e+01
8.125000e+01
8.750000e+01
9.375000e+01
1.000000e+02
1.062500e+02
1.125000e+02
1.187500e+02
1.250000e+02
1.312500e+02
1.375000e+02
1.437500e+02
1.500000e+02
1.562500e+02
1.625000e+02
1.687500e+02
1.750000e+02
1.812500e+02
1.875000e+02
1.937500e+02
2.000000e+02
0.000000e+00
6.250000e+00
1.250000e+01
1.875000e+01
2.500000e+01
3.125000e+01
3.750000e+01
4.375000e+01
5.000000e+01
5.625000e+01
6.250000e+01
6.875000e+01
7.500000e+01
8.125000e+01
8.750000e+01
9.375000e+01
1.000000e+02
1.062500e+02
1.125000e+02
1.187500e+02
1.250000e+02
1.312500e+02
1.375000e+02
1.437500e+02
1.500000e+02
1.562500e+02
1.625000e+02
1.687500e+02
1.750000e+02
1.812500e+02
1.875000e+02
1.937500e+02
2.000000e+02
0.000000e+00
6.250000e+00
1.250000e+01
1.875000e+01
2.500000e+01
3.125000e+01
3.750000e+01
4.375000e+01
5.000000e+01
5.625000e+01
6.250000e+01
6.875000e+01
7.500000e+01
8.125000e+01
8.750000e+01
9.375000e+01
1.000000e+02
1.062500e+02
1.125000e+02
1.187500e+02
1.250000e+02
1.312500e+02
1.375000e+02
1.437500e+02
1.500000e+02
1.562500e+02
1.625000e+02
1.687500e+02
1.750000e+02
1.812500e+02
1.875000e+02
1.937500e+02
2.000000e+02
0.000000e+00
6.250000e+00
1.250000e+01
1.875000e+01
2.500000e+01
3.125000e+01
3.750000e+01
4.375000e+01
5.000000e+01
5.625000e+01
6.250000e+01
6.875000e+01
7.500000e+01
8.125000e+01
8.750000e+01
9.375000e+01
1.000000e+02
1.062500e+02
1.125000e+02
1.187500e+02
1.250000e+02
1.312500e+02
1.375000e+02
1.437500e+02
1.500000e+02
1.562500e+02
1.625000e+02
1.687500e+02
1.750000e+02
1.812500e+02
1.875000e+02
1.937500e+02
2.000000e+02
0.000000e+00
6.250000e+00
1.250000e+01
1.875000e+01
2.500000e+01
3.125000e+01
3.750000e+01
4.375000e+01
5.000000e+01
5.625000e+01
6.250000e+01
6.875000e+01
7.500000e+01
8.125000e+01
8.750000e+01
9.375000e+01
1.000000e+02
1.062500e+02
1.125000e+02
1.187500e+02
1.250000e+02
1.312500e+02
1.375000e+02
1.437500e+02
1.500000e+02
1.562500e+02
1.625000e+02
1.687500e+02
1.750000e+02
1.812500e+02
1.875000e+02
1.937500e+02
2.000000e+02
0.000000e+00
6.250000e+00
1.250000e+01
1.875000e+01
2.500000e+01
3.125000e+01
3.750000e+01
4.375000e+01
5.000000e+01
5.625000e+01
6.250000e+01
6.875000e+01
7.500000e+01
8.125000e+01
8.750000e+01
9.375000e+01
1.000000e+02
1.062500e+02
1.125000e+02
1.187500e+02
1.250000e+02
1.312500e+02
1.375000e+02
1.437500e+02
1.500000e+02
1.562500e+02
1.625000e+02
1.687500e+02
1.750000e+02
1.812500e+02
1.875000e+02
1.937500e+02
2.000000e+02
0.000000e+00
6.250000e+00
1.250000e+01
1.875000e+01
2.500000e+01
3.125000e+01
3.750000e+01
4.375000e+01
5.000000e+01
5.625000e+01
6.250000e+01
6.875000e+01
7.500000e+01
8.125000e+01
8.750000e+01
9.375000e+01
1.000000e+02
1.062500e+02
1.125000e+02
1.187500e+02
1.250000e+02
1.312500e+02
1.375000e+02
1.437500e+02
1.500000e+02
1.562500e+02
1.625000e+02
1.687500e+02
1.750000e+02
1.812500e+02
1.875000e+02
1.937500e+02
2.000000e+02
0.000000e+00
6.250000e+00
1.250000e+01
1.875000e+01
2.500000e+01
3.125000e+01
3.750000e+01
4.375000e+01
5.000000e+01
5.625000e+01
6.250000e+01
6.875000e+01
7.500000e+01
8.125000e+01
8.750000e+01
9.375000e+01
1.000000e+02
1.062500e+02
1.125000e+02
1.187500e+02
1.250000e+02
1.312500e+02
1.375000e+02
1.437500e+02
1.500000e+02
1.562500e+02
1.625000e+02
1.687500e+02
1.750000e+02
1.812500e+02
1.875000e+02
1.937500e+02
2.000000e+02
0.000000e+00
6.250000e+00
1.250000e+01
1.875000e+01
2.500000e+01
3.125000e+01
3.750000e+01
4.375000e+01
5.000000e+01
5.625000e+01
6.250000e+01
6.875000e+01
7.500000e+01
8.125000e+01
8.750000e+01
9.375000e+01
1.000000e+02
1.062500e+02
1.125000e+02
1.187500e+02
1.250000e+02
1.312500e+02
1.375000e+02
1.437500e+02
1.500000e+02
1.562500e+02
1.625000e+02
1.687500e+02
1.750000e+02
1.812500e+02
1.875000e+02
1.937500e+02
2.000000e+02
0.000000e+00
6.250000e+00
1.250000e+01
1.875000e+01
2.500000e+01
3.125000e+01
3.750000e+01
4.375000e+01
5.000000e+01
5.625000e+01
6.250000e+01
6.875000e+01
7.500000e+01
8.125000e+01
8.750000e+01
9.375000e+01
1.000000e+02
1.062500e+02
1.125000e+02
1.187500e+02
1.250000e+02
1.312500e+02
1.375000e+02
1.437500e+02
1.500000e+02
1.562500e+02
1.625000e+02
1.687500e+02
1.750000e+02
1.812500e+02
1.875000e+02
1.937500e+02
2.000000e+02
0.000000e+00
6.250000e+00
1.250000e+01
1.875000e+01
2.500000e+01
3.125000e+01
3.750000e+01
4.375000e+01
5.000000e+01
5.625000e+01
6.250000e+01
6.875000e+01
7.500000e+01
8.125000e+01
8.750000e+01
9.375000e+01
1.000000e+02
1.062500e+02
1.125000e+02
1.187500e+02
1.250000e+02
1.312500e+02
1.375000e+02
1.437500e+02
1.500000e+02
1.562500e+02
1.625000e+02
1.687500e+02
1.750000e+02
1.812500e+02
1.875000e+02
1.937500e+02
2.000000e+02
0.000000e+00
0.000000e+00
0.000000e+00
0.000000e+00
0.000000e+00
0.000000e+00
0.000000e+00
0.000000e+00
0.000000e+00
0.000000e+00
0.000000e+00
0.000000e+00
0.000000e+00
0.000000e+00
0.000000e+00
0.000000e+00
0.000000e+00
0.000000e+00
0.000000e+00
0.000000e+00
0.000000e+00
0.000000e+00
0.000000e+00
0.000000e+00
0.000000e+00
0.000000e+00
0.000000e+00
0.000000e+00
0.000000e+00
0.000000e+00
0.000000e+00
0.000000e+00
0.000000e+00
6.250000e+00
6.250000e+00
6.250000e+00
6.250000e+00
6.250000e+00
6.250000e+00
6.250000e+00
6.250000e+00
6.250000e+00
6.250000e+00
6.250000e+00
6.250000e+00
6.250000e+00
6.250000e+00
6.250000e+00
6.250000e+00
6.250000e+00
6.250000e+00
6.250000e+00
6.250000e+00
6.250000e+00
6.250000e+00
6.250000e+00
6.250000e+00
6.250000e+00
6.250000e+00
6.250000e+00
6.250000e+00
6.250000e+00
6.250000e+00
6.250000e+00
6.250000e+00
6.250000e+00
1.250000e+01
1.250000e+01
1.250000e+01
1.250000e+01
1.250000e+01
1.250000e+01
1.250000e+01
1.250000e+01
1.250000e+01
1.250000e+01
1.250000e+01
1.250000e+01
1.250000e+01
1.250000e+01
1.250000e+01
1.250000e+01
1.250000e+01
1.250000e+01
1.250000e+01
1.250000e+01
1.250000e+01
1.250000e+01
1.250000e+01
1.250000e+01
1.250000e+01
1.250000e+01
1.250000e+01
1.250000e+01
1.250000e+01
1.250000e+01
1.250000e+01
1.250000e+01
1.250000e+01
1.875000e+01
1.875000e+01
1.875000e+01
1.875000e+01
1.875000e+01
1.875000e+01
1.875000e+01
1.875000e+01
1.875000e+01
1.875000e+01
1.875000e+01
1.875000e+01
1.875000e+01
1.875000e+01
1.875000e+01
1.875000e+01
1.875000e+01
1.875000e+01
1.875000e+01
1.875000e+01
1.875000e+01
1.875000e+01
1.875000e+01
1.875000e+01
1.875000e+01
1.875000e+01
1.875000e+01
1.875000e+01
1.875000e+01
1.875000e+01
1.875000e+01
1.875000e+01
1.875000e+01
2.500000e+01
2.500000e+01
2.500000e+01
2.500000e+01
2.500000e+01
2.500000e+01
2.500000e+01
2.500000e+01
2.500000e+01
2.500000e+01
2.500000e+01
2.500000e+01
2.500000e+01
2.500000e+01
2.500000e+01
2.500000e+01
2.500000e+01
2.500000e+01
2.500000e+01
2.500000e+01
2.500000e+01
2.500000e+01
2.500000e+01
2.500000e+01
2.500000e+01
2.500000e+01
2.500000e+01
2.500000e+01
2.500000e+01
2.500000e+01
2.500000e+01
2.500000e+01
2.500000e+01
3.125000e+01
3.125000e+01
3.125000e+01
3.125000e+01
3.125000e+01
3.125000e+01
3.125000e+01
3.125000e+01
3.125000e+01
3.125000e+01
3.125000e+01
3.125000e+01
3.125000e+01
3.125000e+01
3.125000e+01
3.125000e+01
3.125000e+01
3.125000e+01
3.125000e+01
3.125000e+01
3.125000e+01
3.125000e+01
3.125000e+01
3.125000e+01
3.125000e+01
3.125000e+01
3.125000e+01
3.125000e+01
3.125000e+01
3.125000e+01
3.125000e+01
3.125000e+01
3.125000e+01
3.750000e+01
3.750000e+01
3.750000e+01
3.750000e+01
3.750000e+01
3.750000e+01
3.750000e+01
3.750000e+01
3.750000e+01
3.750000e+01
3.750000e+01
3.750000e+01
3.750000e+01
3.750000e+01
3.750000e+01
3.750000e+01
3.750000e+01
3.750000e+01
3.750000e+01
3.750000e+01
3.750000e+01
3.750000e+01
3.750000e+01
3.750000e+01
3.750000e+01
3.750000e+01
3.750000e+01
3.750000e+01
3.750000e+01
3.750000e+01
3.750000e+01
3.750000e+01
3.750000e+01
4.375000e+01
4.375000e+01
4.375000e+01
4.375000e+01
4.375000e+01
4.375000e+01
4.375000e+01
4.375000e+01
4.375000e+01
4.375000e+01
4.375000e+01
4.375000e+01
4.375000e+01
4.375000e+01
4.375000e+01
4.375000e+01
4.375000e+01
4.375000e+01
4.375000e+01
4.375000e+01
4.375000e+01
4.375000e+01
4.375000e+01
4.375000e+01
4.375000e+01
4.375000e+01
4.375000e+01
4.375000e+01
4.375000e+01
4.375000e+01
4.375000e+01
4.375000e+01
4.375000e+01
5.000000e+01
5.000000e+01
5.000000e+01
5.000000e+01
5.000000e+01
5.000000e+01
5.000000e+01
5.000000e+01
5.000000e+01
5.000000e+01
5.000000e+01
5.000000e+01
5.000000e+01
5.000000e+01
5.000000e+01
5.000000e+01
5.000000e+01
5.000000e+01
5.000000e+01
5.000000e+01
5.000000e+01
5.000000e+01
5.000000e+01
5.000000e+01
5.000000e+01
5.000000e+01
5.000000e+01
5.000000e+01
5.000000e+01
5.000000e+01
5.000000e+01
5.000000e+01
5.000000e+01
5.625000e+01
5.625000e+01
5.625000e+01
5.625000e+01
5.625000e+01
5.625000e+01
5.625000e+01
5.625000e+01
5.625000e+01
5.625000e+01
5.625000e+01
5.625000e+01
5.625000e+01
5.625000e+01
5.625000e+01
5.625000e+01
5.625000e+01
5.625000e+01
5.625000e+01
5.625000e+01
5.625000e+01
5.625000e+01
5.625000e+01
5.625000e+01
5.625000e+01
5.625000e+01
5.625000e+01
5.625000e+01
5.625000e+01
5.625000e+01
5.625000e+01
5.625000e+01
5.625000e+01
6.250000e+01
6.250000e+01
6.250000e+01
6.250000e+01
6.250000e+01
6.250000e+01
6.250000e+01
6.250000e+01
6.250000e+01
6.250000e+01
6.250000e+01
6.250000e+01
6.250000e+01
6.250000e+01
6.250000e+01
6.250000e+01
6.250000e+01
6.250000e+01
6.250000e+01
6.250000e+01
6.250000e+01
6.250000e+01
6.250000e+01
6.250000e+01
6.250000e+01
6.250000e+01
6.250000e+01
6.250000e+01
6.250000e+01
6.250000e+01
6.250000e+01
6.250000e+01
6.250000e+01
6.875000e+01
6.875000e+01
6.875000e+01
6.875000e+01
6.875000e+01
6.875000e+01
6.875000e+01
6.875000e+01
6.875000e+01
6.875000e+01
6.875000e+01
6.875000e+01
6.875000e+01
6.875000e+01
6.875000e+01
6.875000e+01
6.875000e+01
6.875000e+01
6.875000e+01
6.875000e+01
6.875000e+01
6.875000e+01
6.875000e+01
6.875000e+01
6.875000e+01
6.875000e+01
6.875000e+01
6.875000e+01
6.875000e+01
6.875000e+01
6.875000e+01
6.875000e+01
6.875000e+01
7.500000e+01
7.500000e+01
7.500000e+01
7.500000e+01
7.500000e+01
7.500000e+01
7.500000e+01
7.500000e+01
7.500000e+01
7.500000e+01
7.500000e+01
7.500000e+01
7.500000e+01
7.500000e+01
7.500000e+01
7.500000e+01
7.500000e+01
7.500000e+01
7.500000e+01
7.500000e+01
7.500000e+01
7.500000e+01
7.500000e+01
7.500000e+01
7.500000e+01
7.500000e+01
7.500000e+01
7.500000e+01
7.500000e+01
7.500000e+01
7.500000e+01
7.500000e+01
7.500000e+01
8.125000e+01
8.125000e+01
8.125000e+01
8.125000e+01
8.125000e+01
8.125000e+01
8.125000e+01
8.125000e+01
8.125000e+01
8.125000e+01
8.125000e+01
8.125000e+01
8.125000e+01
8.125000e+01
8.125000e+01
8.125000e+01
8.125000e+01
8.125000e+01
8.125000e+01
8.125000e+01
8.125000e+01
8.125000e+01
8.125000e+01
8.125000e+01
8.125000e+01
8.125000e+01
8.125000e+01
8.125000e+01
8.125000e+01
8.125000e+01
8.125000e+01
8.125000e+01
8.125000e+01
8.750000e+01
8.750000e+01
8.750000e+01
8.750000e+01
8.750000e+01
8.750000e+01
8.750000e+01
8.750000e+01
8.750000e+01
8.750000e+01
8.750000e+01
8.750000e+01
8.750000e+01
8.750000e+01
8.750000e+01
8.750000e+01
8.750000e+01
8.750000e+01
8.750000e+01
8.750000e+01
8.750000e+01
8.750000e+01
8.750000e+01
8.750000e+01
8.750000e+01
8.750000e+01
8.750000e+01
8.750000e+01
8.750000e+01
8.750000e+01
8.750000e+01
8.750000e+01
8.750000e+01
9.375000e+01
9.375000e+01
9.375000e+01
9.375000e+01
9.375000e+01
9.375000e+01
9.375000e+01
9.375000e+01
9.375000e+01
9.375000e+01
9.375000e+01
9.375000e+01
9.375000e+01
9.375000e+01
9.375000e+01
9.375000e+01
9.375000e+01
9.375000e+01
9.375000e+01
9.375000e+01
9.375000e+01
9.375000e+01
9.375000e+01
9.375000e+01
9.375000e+01
9.375000e+01
9.375000e+01
9.375000e+01
9.375000e+01
9.375000e+01
9.375000e+01
9.375000e+01
9.375000e+01
1.000000e+02
1.000000e+02
1.000000e+02
1.000000e+02
1.000000e+02
1.000000e+02
1.000000e+02
1.000000e+02
1.000000e+02
1.000000e+02
1.000000e+02
1.000000e+02
1.000000e+02
1.000000e+02
1.000000e+02
1.000000e+02
1.000000e+02
1.000000e+02
1.000000e+02
1.000000e+02
1.000000e+02
1.000000e+02
1.000000e+02
1.000000e+02
1.000000e+02
1.000000e+02
1.000000e+02
1.000000e+02
1.000000e+02
1.000000e+02
1.000000e+02
1.000000e+02
1.000000e+02
0.000000e+00
-4.653202e-01
-7.765077e-01
-1.114109e+00
-1.417514e+00
-1.711363e+00
-2.020513e+00
-2.310061e+00
-2.611636e+00
-2.906188e+00
-3.205791e+00
-3.504747e+00
-3.803116e+00
-4.104137e+00
-4.402718e+00
-4.704116e+00
-5.004810e+00
-5.306366e+00
-5.608605e+00
-5.910071e+00
-6.212780e+00
-6.514128e+00
-6.815483e+00
-7.113239e+00
-7.412073e+00
-7.714811e+00
-8.020049e+00
-8.346354e+00
-8.670214e+00
-9.031467e+00
-9.510173e+00
-9.926182e+00
-1.013177e+01
0.000000e+00
-2.329169e-01
-4.721571e-01
-7.368002e-01
-1.003243e+00
-1.256513e+00
-1.525807e+00
-1.786359e+00
-2.048731e+00
-2.313727e+00
-2.573892e+00
-2.838686e+00
-3.099505e+00
-3.362481e+00
-3.624698e+00
-3.886245e+00
-4.148742e+00
-4.410031e+00
-4.671705e+00
-4.933210e+00
-5.194149e+00
-5.455249e+00
-5.716489e+00
-5.976609e+00
-6.238627e+00
-6.498742e+00
-6.759268e+00
-7.022429e+00
-7.277937e+00
-7.538330e+00
-7.785933e+00
-7.884619e+00
-7.990321e+00
0.000000e+00
-1.076488e-01
-2.481745e-01
-4.438219e-01
-6.601813e-01
-8.673984e-01
-1.095259e+00
-1.320447e+00
-1.545601e+00
-1.775417e+00
-1.997171e+00
-2.224687e+00
-2.447794e+00
-2.672387e+00
-2.896968e+00
-3.119956e+00
-3.343904e+00
-3.566501e+00
-3.789581e+00
-4.013119e+00
-4.236130e+00
-4.459960e+00
-4.685210e+00
-4.911671e+00
-5.138263e+00
-5.358484e+00
-5.569690e+00
-5.767357e+00
-5.945891e+00
-6.094626e+00
-6.177346e+00
-6.181829e+00
-6.274663e+00
0.000000e+00
-1.022121e-01
-1.878519e-01
-3.375764e-01
-4.619695e-01
-6.199021e-01
-7.969748e-01
-9.673009e-01
-1.155397e+00
-1.333775e+00
-1.518310e+00
-1.701705e+00
-1.886441e+00
-2.071980e+00
-2.257705e+00
-2.444660e+00
-2.631422e+00
-2.819713e+00
-3.008918e+00
-3.199495e+00
-3.391295e+00
-3.583153e+00
-3.776166e+00
-3.966218e+00
-4.149167e+00
-4.319984e+00
-4.471045e+00
-4.602173e+00
-4.702784e+00
-4.763963e+00
-4.777539e+00
-4.793600e+00
-4.874509e+00
0.000000e+00
-9.183551e-02
-1.823020e-01
-2.734636e-01
-3.848812e-01
-5.018370e-01
-6.331597e-01
-7.681102e-01
-9.102421e-01
-1.053320e+00
-1.197397e+00
-1.344326e+00
-1.489623e+00
-1.637390e+00
-1.784795e+00
-1.932684e+00
-2.081478e+00
-2.230160e+00
-2.379340e+00
-2.528350e+00
-2.676268e+00
-2.822330e+00
-2.964539e+00
-3.100381e+00
-3.226685e+00
-3.339521e+00
-3.435214e+00
-3.508533e+00
-3.555889e+00
-3.577748e+00
-3.578388e+00
-3.607922e+00
-3.680721e+00
0.000000e+00
-7.345415e-02
-1.442748e-01
-2.187457e-01
-2.996204e-01
-3.882475e-01
-4.827698e-01
-5.836104e-01
-6.873214e-01
-7.942003e-01
-9.020417e-01
-1.010367e+00
-1.119484e+00
-1.228291e+00
-1.337486e+00
-1.446543e+00
-1.555373e+00
-1.663865e+00
-1.771419e+00
-1.877520e+00
-1.981223e+00
-2.081053e+00
-2.175307e+00
-2.261897e+00
-2.338369e+00
-2.402473e+00
-2.452158e+00
-2.485393e+00
-2.503453e+00
-2.500594e+00
-2.496174e+00
-2.524007e+00
-2.591172e+00
0.000000e+00
-5.063262e-02
-1.008022e-01
-1.521798e-01
-2.070453e-01
-2.658454e-01
-3.287834e-01
-3.949680e-01
-4.637999e-01
-5.341757e-01
-6.054117e-01
-6.769315e-01
-7.483718e-01
-8.196475e-01
-8.905321e-01
-9.609535e-01
-1.030660e+00
-1.099333e+00
-1.166529e+00
-1.231566e+00
-1.293467e+00
-1.350920e+00
-1.402440e+00
-1.446375e+00
-1.481080e+00
-1.504515e+00
-1.516401e+00
-1.517264e+00
-1.499206e+00
-1.470462e+00
-1.460173e+00
-1.486325e+00
-1.552758e+00
0.000000e+00
-2.662332e-02
-5.313041e-02
-8.022228e-02
-1.086079e-01
-1.387505e-01
-1.705943e-01
-2.039184e-01
-2.382471e-01
-2.731501e-01
-3.081698e-01
-3.429833e-01
-3.773754e-01
-4.111836e-01
-4.443002e-01
-4.765465e-01
-5.076881e-01
-5.374190e-01
-5.653772e-01
-5.910587e-01
-6.136749e-01
-6.321218e-01
-6.451100e-01
-6.517314e-01
-6.506080e-01
-6.415054e-01
-6.221753e-01
-5.841661e-01
-5.363189e-01
-4.885884e-01
-4.671050e-01
-4.931655e-01
-5.618027e-01
0.000000e+00
-1.831378e-03
-3.715488e-03
-5.573605e-03
-7.316704e-03
-8.844295e-03
-1.006136e-02
-1.087560e-02
-1.121252e-02
-1.099917e-02
-1.017503e-02
-8.667400e-03
-6.387738e-03
-3.229954e-03
9.234444e-04
6.249724e-03
1.301663e-02
2.148552e-02
3.184099e-02
4.423707e-02
5.905226e-02
7.706215e-02
9.928639e-02
1.271357e-01
1.599284e-01
2.010547e-01
2.577355e-01
3.267844e-01
3.963654e-01
4.443865e-01
4.578777e-01
4.255294e-01
3.500840e-01
0.000000e+00
2.306898e-02
4.592698e-02
6.943425e-02
9.449261e-02
1.217615e-01
1.513826e-01
1.832678e-01
2.170781e-01
2.524411e-01
2.889895e-01
3.264858e-01
3.649015e-01
4.043334e-01
4.449922e-01
4.871531e-01
5.311334e-01
5.771371e-01
6.251738e-01
6.751359e-01
7.267607e-01
7.803689e-01
8.366517e-01
8.961591e-01
9.650599e-01
1.046481e+00
1.133209e+00
1.220380e+00
1.292184e+00
1.334354e+00
1.333752e+00
1.292552e+00
1.230867e+00
0.000000e+00
4.737488e-02
9.422541e-02
1.423965e-01
1.943962e-01
2.509289e-01
3.122878e-01
3.777773e-01
4.466756e-01
5.179355e-01
5.906797e-01
6.643213e-01
7.385403e-01
8.135324e-01
8.896837e-01
9.677294e-01
1.048047e+00
1.130537e+00
1.215214e+00
1.302174e+00
1.391429e+00
1.482914e+00
1.576541e+00
1.677406e+00
1.783558e+00
1.893482e+00
2.000466e+00
2.089382e+00
2.153427e+00
2.182223e+00
2.176952e+00
2.147082e+00
2.103004e+00
0.000000e+00
7.057842e-02
1.385202e-01
2.103587e-01
2.891165e-01
3.764858e-01
4.708358e-01
5.720952e-01
6.775708e-01
7.863173e-01
8.967070e-01
1.007792e+00
1.119705e+00
1.231685e+00
1.344590e+00
1.458850e+00
1.574949e+00
1.692437e+00
1.811445e+00
1.933307e+00
2.060343e+00
2.195557e+00
2.336154e+00
2.475484e+00
2.610305e+00
2.736354e+00
2.848403e+00
2.938276e+00
2.996220e+00
3.025818e+00
3.029608e+00
3.011802e+00
2.983960e+00
0.000000e+00
8.931376e-02
1.771121e-01
2.661854e-01
3.766495e-01
4.942404e-01
6.262517e-01
7.652299e-01
9.095604e-01
1.057000e+00
1.204651e+00
1.354811e+00
1.504702e+00
1.657304e+00
1.810925e+00
1.967450e+00
2.126502e+00
2.287535e+00
2.451428e+00
2.616086e+00
2.783915e+00
2.953246e+00
3.120940e+00
3.284144e+00
3.436829e+00
3.575491e+00
3.694274e+00
3.787659e+00
3.855424e+00
3.895247e+00
3.908705e+00
3.902292e+00
3.887655e+00
0.000000e+00
9.972949e-02
1.828972e-01
3.298089e-01
4.537164e-01
6.125500e-01
7.931948e-01
9.670052e-01
1.160893e+00
1.342846e+00
1.531056e+00
1.716205e+00
1.903202e+00
2.093826e+00
2.288300e+00
2.487391e+00
2.688800e+00
2.894038e+00
3.103279e+00
3.314606e+00
3.523511e+00
3.726294e+00
3.919460e+00
4.103485e+00
4.278668e+00
4.435858e+00
4.570840e+00
4.677642e+00
4.754648e+00
4.803022e+00
4.825597e+00
4.828565e+00
4.823779e+00
0.000000e+00
1.066711e-01
2.444612e-01
4.353898e-01
6.488101e-01
8.536235e-01
1.081337e+00
1.308974e+00
1.537239e+00
1.771532e+00
1.997130e+00
2.226388e+00
2.451109e+00
2.678131e+00
2.907616e+00
3.138288e+00
3.369495e+00
3.600088e+00
3.832437e+00
4.065684e+00
4.298892e+00
4.526358e+00
4.747507e+00
4.965906e+00
5.173588e+00
5.356892e+00
5.506543e+00
5.621942e+00
5.704904e+00
5.758224e+00
5.786250e+00
5.795442e+00
5.796572e+00
0.000000e+00
2.336299e-01
4.732933e-01
7.377074e-01
1.003685e+00
1.256574e+00
1.525229e+00
1.785402e+00
2.047321e+00
2.311779e+00
2.571530e+00
2.835389e+00
3.095392e+00
3.356818e+00
3.617268e+00
3.876855e+00
4.136582e+00
4.394423e+00
4.651575e+00
4.906967e+00
5.161409e+00
5.415030e+00
5.668624e+00
5.923765e+00
6.160300e+00
6.359477e+00
6.517299e+00
6.634831e+00
6.715683e+00
6.765323e+00
6.790723e+00
6.799939e+00
6.802203e+00
0.000000e+00
4.660443e-01
7.803648e-01
1.122009e+00
1.429060e+00
1.724893e+00
2.035437e+00
2.323278e+00
2.622814e+00
2.913971e+00
3.209503e+00
3.506399e+00
3.802166e+00
4.099078e+00
4.391527e+00
4.682726e+00
4.972997e+00
5.263440e+00
5.551703e+00
5.839675e+00
6.125427e+00
6.414467e+00
6.705743e+00
6.994476e+00
7.253118e+00
7.462989e+00
7.621805e+00
7.731535e+00
7.797015e+00
7.826439e+00
7.831595e+00
7.826936e+00
7.824357e+00
0.000000e+00
-2.764990e-01
-5.806957e-01
-9.682202e-01
-1.392318e+00
-1.854927e+00
-2.357845e+00
-2.891462e+00
-3.461874e+00
-4.065339e+00
-4.704427e+00
-5.380708e+00
-6.092979e+00
-6.843662e+00
-7.631152e+00
-8.456900e+00
-9.320955e+00
-1.022354e+01
-1.116560e+01
-1.214677e+01
-1.316773e+01
-1.422900e+01
-1.533032e+01
-1.647125e+01
-1.765111e+01
-1.887111e+01
-2.013628e+01
-2.145428e+01
-2.283406e+01
-2.429497e+01
-2.585353e+01
-2.766406e+01
-3.020881e+01
0.000000e+00
-1.777002e-01
-5.003370e-01
-8.805253e-01
-1.310776e+00
-1.770602e+00
-2.273574e+00
-2.808639e+00
-3.377477e+00
-3.982040e+00
-4.620089e+00
-5.296954e+00
-6.009028e+00
-6.759595e+00
-7.547388e+00
-8.372788e+00
-9.237027e+00
-1.013950e+01
-1.108153e+01
-1.206278e+01
-1.308360e+01
-1.414481e+01
-1.524639e+01
-1.638739e+01
-1.756712e+01
-1.878685e+01
-2.005029e+01
-2.136732e+01
-2.274678e+01
-2.420020e+01
-2.577878e+01
-2.757514e+01
-2.983222e+01
0.000000e+00
-1.552115e-01
-4.421969e-01
-8.233180e-01
-1.243935e+00
-1.701502e+00
-2.202980e+00
-2.736339e+00
-3.305853e+00
-3.909754e+00
-4.548427e+00
-5.224972e+00
-5.937666e+00
-6.687970e+00
-7.476164e+00
-8.301796e+00
-9.166051e+00
-1.006887e+01
-1.101072e+01
-1.199211e+01
-1.301283e+01
-1.407332e+01
-1.517450e+01
-1.631499e+01
-1.749583e+01
-1.871757e+01
-1.998336e+01
-2.130461e+01
-2.268858e+01
-2.416255e+01
-2.578205e+01
-2.746972e+01
-2.922276e+01
0.000000e+00
-1.963929e-01
-4.411518e-01
-8.161337e-01
-1.207121e+00
-1.655528e+00
-2.154487e+00
-2.678750e+00
-3.251227e+00
-3.851890e+00
-4.491428e+00
-5.167795e+00
-5.880235e+00
-6.631011e+00
-7.419040e+00
-8.245154e+00
-9.109452e+00
-1.001240e+01
-1.095417e+01
-1.193551e+01
-1.295626e+01
-1.401619e+01
-1.511712e+01
-1.625840e+01
-1.744170e+01
-1.866853e+01
-1.994041e+01
-2.126838e+01
-2.266180e+01
-2.415325e+01
-2.576626e+01
-2.731810e+01
-2.872142e+01
0.000000e+00
-2.137440e-01
-4.763048e-01
-8.137523e-01
-1.203895e+00
-1.635665e+00
-2.124824e+00
-2.644628e+00
-3.211849e+00
-3.812772e+00
-4.450286e+00
-5.127703e+00
-5.839337e+00
-6.590772e+00
-7.378933e+00
-8.205098e+00
-9.069874e+00
-9.972727e+00
-1.091473e+01
-1.189620e+01
-1.291716e+01
-1.397797e+01
-1.507979e+01
-1.622333e+01
-1.740990e+01
-1.864097e+01
-1.991945e+01
-2.125181e+01
-2.264720e+01
-2.413128e+01
-2.566986e+01
-2.711594e+01
-2.837937e+01
0.000000e+00
-2.210903e-01
-4.920279e-01
-8.192848e-01
-1.199253e+00
-1.627970e+00
-2.104378e+00
-2.623600e+00
-3.184453e+00
-3.784616e+00
-4.422318e+00
-5.098360e+00
-5.811652e+00
-6.562634e+00
-7.351533e+00
-8.178209e+00
-9.043273e+00
-9.946928e+00
-1.088967e+01
-1.187211e+01
-1.289454e+01
-1.395750e+01
-1.506183e+01
-1.620835e+01
-1.739789e+01
-1.863143e+01
-1.991205e+01
-2.124399e+01
-2.262691e+01
-2.407249e+01
-2.551646e+01
-2.688281e+01
-2.807995e+01
0.000000e+00
-2.248162e-01
-4.980730e-01
-8.224610e-01
-1.197728e+00
-1.622110e+00
-2.093569e+00
-2.609581e+00
-3.167998e+00
-3.766790e+00
-4.404636e+00
-5.080740e+00
-5.794700e+00
-6.546384e+00
-7.335848e+00
-8.163325e+00
-9.029143e+00
-9.933762e+00
-1.087774e+01
-1.186169e+01
-1.288620e+01
-1.395177e+01
-1.505894e+01
-1.620825e+01
-1.740013e+01
-1.863424e+01
-1.991108e+01
-2.123757e+01
-2.259075e+01
-2.398492e+01
-2.535984e+01
-2.665677e+01
-2.779248e+01
0.000000e+00
-2.262021e-01
-5.003389e-01
-8.239049e-01
-1.197192e+00
-1.619297e+00
-2.088572e+00
-2.602975e+00
-3.160413e+00
-3.758993e+00
-4.397200e+00
-5.074025e+00
-5.788853e+00
-6.541421e+00
-7.331754e+00
-8.160109e+00
-9.026895e+00
-9.932591e+00
-1.087781e+01
-1.186331e+01
-1.288984e+01
-1.395787e+01
-1.506744e+01
-1.621877e+01
-1.741158e+01
-1.864497e+01
-1.991290e+01
-2.122091e+01
-2.254081e+01
-2.388167e+01
-2.520400e+01
-2.644054e+01
-2.751882e+01
0.000000e+00
-2.264685e-01
-5.008702e-01
-8.244036e-01
-1.197433e+00
-1.619284e+00
-2.088484e+00
-2.603108e+00
-3.161105e+00
-3.760547e+00
-4.399845e+00
-5.077853e+00
-5.793866e+00
-6.547526e+00
-7.338838e+00
-8.168164e+00
-9.035982e+00
-9.942723e+00
-1.088894e+01
-1.187550e+01
-1.290344e+01
-1.397327e+01
-1.508473e+01
-1.623643e+01
-1.742922e+01
-1.865667e+01
-1.990966e+01
-2.119045e+01
-2.248507e+01
-2.377505e+01
-2.503808e+01
-2.620230e+01
-2.720027e+01
0.000000e+00
-2.259684e-01
-5.002127e-01
-8.242671e-01
-1.198481e+00
-1.621980e+00
-2.093104e+00
-2.609781e+00
-3.169832e+00
-3.771238e+00
-4.412326e+00
-5.091949e+00
-5.809415e+00
-6.564324e+00
-7.356660e+00
-8.186989e+00
-9.055914e+00
-9.963642e+00
-1.091050e+01
-1.189731e+01
-1.292548e+01
-1.399617e+01
-1.510811e+01
-1.626020e+01
-1.744555e+01
-1.866137e+01
-1.989825e+01
-2.115616e+01
-2.242214e+01
-2.367362e+01
-2.487559e+01
-2.597731e+01
-2.693721e+01
0.000000e+00
-2.243734e-01
-4.978378e-01
-8.231970e-01
-1.200356e+00
-1.627566e+00
-2.102755e+00
-2.623318e+00
-3.186894e+00
-3.791225e+00
-4.434630e+00
-5.116075e+00
-5.835069e+00
-6.591237e+00
-7.384583e+00
-8.216015e+00
-9.086184e+00
-9.994846e+00
-1.094202e+01
-1.192840e+01
-1.295504e+01
-1.402558e+01
-1.513542e+01
-1.628189e+01
-1.745647e+01
-1.865882e+01
-1.988451e+01
-2.112175e+01
-2.236072e+01
-2.357346e+01
-2.473039e+01
-2.579838e+01
-2.674541e+01
0.000000e+00
-2.204419e-01
-4.916889e-01
-8.203897e-01
-1.203278e+00
-1.636521e+00
-2.118426e+00
-2.644683e+00
-3.213116e+00
-3.821227e+00
-4.467020e+00
-5.150354e+00
-5.870547e+00
-6.627699e+00
-7.422025e+00
-8.254718e+00
-9.126148e+00
-1.003513e+01
-1.098230e+01
-1.196720e+01
-1.299192e+01
-1.405851e+01
-1.516203e+01
-1.629890e+01
-1.746468e+01
-1.865710e+01
-1.987191e+01
-2.109517e+01
-2.230721e+01
-2.349018e+01
-2.461802e+01
-2.566899e+01
-2.661882e+01
0.000000e+00
-2.127353e-01
-4.757176e-01
-8.151737e-01
-1.209358e+00
-1.648051e+00
-2.143797e+00
-2.674312e+00
-3.250325e+00
-3.861893e+00
-4.509483e+00
-5.195363e+00
-5.915569e+00
-6.674320e+00
-7.469497e+00
-8.303863e+00
-9.175874e+00
-1.008386e+01
-1.102964e+01
-1.201166e+01
-1.303322e+01
-1.409315e+01
-1.518777e+01
-1.631608e+01
-1.747590e+01
-1.866368e+01
-1.987112e+01
-2.107991e+01
-2.227156e+01
-2.343016e+01
-2.453909e+01
-2.558272e+01
-2.654661e+01
0.000000e+00
-1.945766e-01
-4.397104e-01
-8.173645e-01
-1.214262e+00
-1.670716e+00
-2.180390e+00
-2.715733e+00
-3.300475e+00
-3.912124e+00
-4.562860e+00
-5.248548e+00
-5.970355e+00
-6.730321e+00
-7.527545e+00
-8.363109e+00
-9.234488e+00
-1.014141e+01
-1.108447e+01
-1.206340e+01
-1.307950e+01
-1.413152e+01
-1.521739e+01
-1.633997e+01
-1.750013e+01
-1.868642e+01
-1.988646e+01
-2.107994e+01
-2.225361e+01
-2.339392e+01
-2.448931e+01
-2.553127e+01
-2.651530e+01
0.000000e+00
-1.524660e-01
-4.391460e-01
-8.228790e-01
-1.250492e+00
-1.717730e+00
-2.231746e+00
-2.777905e+00
-3.360427e+00
-3.975817e+00
-4.624897e+00
-5.310840e+00
-6.033380e+00
-6.794322e+00
-7.593241e+00
-8.428438e+00
-9.299253e+00
-1.020534e+01
-1.114700e+01
-1.212339e+01
-1.313452e+01
-1.417957e+01
-1.525996e+01
-1.638264e+01
-1.754357e+01
-1.872607e+01
-1.991389e+01
-2.109343e+01
-2.225200e+01
-2.337821e+01
-2.446358e+01
-2.550547e+01
-2.650994e+01
0.000000e+00
-1.747918e-01
-4.967625e-01
-8.796203e-01
-1.316929e+00
-1.787186e+00
-2.302951e+00
-2.851753e+00
-3.433513e+00
-4.050009e+00
-4.697957e+00
-5.384108e+00
-6.106300e+00
-6.867856e+00
-7.666866e+00
-8.501497e+00
-9.371548e+00
-1.027675e+01
-1.121751e+01
-1.219249e+01
-1.320115e+01
-1.424357e+01
-1.532386e+01
-1.644682e+01
-1.760286e+01
-1.877499e+01
-1.995007e+01
-2.111653e+01
-2.226256e+01
-2.337769e+01
-2.445523e+01
-2.549618e+01
-2.651464e+01
0.000000e+00
-2.740503e-01
-5.777912e-01
-9.679124e-01
-1.398908e+00
-1.871803e+00
-2.387269e+00
-2.934361e+00
-3.517668e+00
-4.132843e+00
-4.781928e+00
-5.467674e+00
-6.189907e+00
-6.951279e+00
-7.749461e+00
-8.583814e+00
-9.453338e+00
-1.035811e+01
-1.129803e+01
-1.227245e+01
-1.328051e+01
-1.432345e+01