TITLE = "Solution"
VARIABLES = x, y, u, v, psiu, psiv, t, stress
ZONE T="structure" N=561 E=512 F=FEBLOCK ET=QUADRILATERAL VARLOCATION=([7,8]=cellcentered)
0.000000e+00
6.250000e+00
1.250000e+01
1.875000e+01
2.500000e+01
3.125000e+01
3.750000e+01
4.375000e+01
5.000000e+01
5.625000e+01
6.250000e+01
6.875000e+01
7.500000e+01
8.125000e+01
8.750000e+01
9.375000e+01
1.000000e+02
1.062500e+02
1.125000e+02
1.187500e+02
1.250000e+02
1.312500e+02
1.375000e+02
1.437500e+02
1.500000e+02
1.562500e+02
1.625000e+02
1.687500e+02
1.750000e+02
1.812500e+02
1.875000e+02
1.937500e+02
2.000000e+02
0.000000e+00
6.250000e+00
1.250000e+01
1.875000e+01
2.500000e+01
3.125000e+01
3.750000e+01
4.375000e+01
5.000000e+01
5.625000e+01
6.250000e+01
6.875000e+01
7.500000e+01
8.125000e+01
8.750000e+01
9.375000e+01
1.000000e+02
1.062500e+02
1.125000e+02
1.187500e+02
1.250000e+02
1.312500e+02
1.375000e+02
1.437500e+02
1.500000e+02
1.562500e+02
1.625000e+02
1.687500e+02
1.750000e+02
1.812500e+02
1.875000e+02
1.937500e+02
2.000000e+02
0.000000e+00
6.250000e+00
1.250000e+01
1.875000e+01
2.500000e+01
3.125000e+01
3.750000e+01
4.375000e+01
5.000000e+01
5.625000e+01
6.250000e+01
6.875000e+01
7.500000e+01
8.125000e+01
8.750000e+01
9.375000e+01
1.000000e+02
1.062500e+02
1.125000e+02
1.187500e+02
1.250000e+02
1.312500e+02
1.375000e+02
1.437500e+02
1.500000e+02
1.562500e+02
1.625000e+02
1.687500e+02
1.750000e+02
1.812500e+02
1.875000e+02
1.937500e+02
2.000000e+02
0.000000e+00
6.250000e+00
1.250000e+01
1.875000e+01
2.500000e+01
3.125000e+01
3.750000e+01
4.375000e+01
5.000000e+01
5.625000e+01
6.250000e+01
6.875000e+01
7.500000e+01
8.125000e+01
8.750000e+01
9.375000e+01
1.000000e+02
1.062500e+02
1.125000e+02
1.187500e+02
1.250000e+02
1.312500e+02
1.375000e+02
1.437500e+02
1.500000e+02
1.562500e+02
1.625000e+02
1.687500e+02
1.750000e+02
1.812500e+02
1.875000e+02
1.937500e+02
2.000000e+02
0.000000e+00
6.250000e+00
1.250000e+01
1.875000e+01
2.500000e+01
3.125000e+01
3.750000e+01
4.375000e+01
5.000000e+01
5.625000e+01
6.250000e+01
6.875000e+01
7.500000e+01
8.125000e+01
8.750000e+01
9.375000e+01
1.000000e+02
1.062500e+02
1.125000e+02
1.187500e+02
1.250000e+02
1.312500e+02
1.375000e+02
1.437500e+02
1.500000e+02
1.562500e+02
1.625000e+02
1.687500e+02
1.750000e+02
1.812500e+02
1.875000e+02
1.937500e+02
2.000000e+02
0.000000e+00
6.250000e+00
1.250000e+01
1.875000e+01
2.500000e+01
3.125000e+01
3.750000e+01
4.375000e+01
5.000000e+01
5.625000e+01
6.250000e+01
6.875000e+01
7.500000e+01
8.125000e+01
8.750000e+01
9.375000e+01
1.000000e+02
1.062500e+02
1.125000e+02
1.187500e+02
1.250000e+02
1.312500e+02
1.375000e+02
1.437500e+02
1.500000e+02
1.562500e+02
1.625000e+02
1.687500e+02
1.750000e+02
1.812500e+02
1.875000e+02
1.937500e+02
2.000000e+02
0.000000e+00
6.250000e+00
1.250000e+01
1.875000e+01
2.500000e+01
3.125000e+01
3.750000e+01
4.375000e+01
5.000000e+01
5.625000e+01
6.250000e+01
6.875000e+01
7.500000e+01
8.125000e+01
8.750000e+01
9.375000e+01
1.000000e+02
1.062500e+02
1.125000e+02
1.187500e+02
1.250000e+02
1.312500e+02
1.375000e+02
1.437500e+02
1.500000e+02
1.562500e+02
1.625000e+02
1.687500e+02
1.750000e+02
1.812500e+02
1.875000e+02
1.937500e+02
2.000000e+02
0.000000e+00
6.250000e+00
1.250000e+01
1.875000e+01
2.500000e+01
3.125000e+01
3.750000e+01
4.375000e+01
5.000000e+01
5.625000e+01
6.250000e+01
6.875000e+01
7.500000e+01
8.125000e+01
8.750000e+01
9.375000e+01
1.000000e+02
1.062500e+02
1.125000e+02
1.187500e+02
1.250000e+02
1.312500e+02
1.375000e+02
1.437500e+02
1.500000e+02
1.562500e+02
1.625000e+02
1.687500e+02
1.750000e+02
1.812500e+02
1.875000e+02
1.937500e+02
2.000000e+02
0.000000e+00
6.250000e+00
1.250000e+01
1.875000e+01
2.500000e+01
3.125000e+01
3.750000e+01
4.375000e+01
5.000000e+01
5.625000e+01
6.250000e+01
6.875000e+01
7.500000e+01
8.125000e+01
8.750000e+01
9.375000e+01
1.000000e+02
1.062500e+02
1.125000e+02
1.187500e+02
1.250000e+02
1.312500e+02
1.375000e+02
1.437500e+02
1.500000e+02
1.562500e+02
1.625000e+02
1.687500e+02
1.750000e+02
1.812500e+02
1.875000e+02
1.937500e+02
2.000000e+02
0.000000e+00
6.250000e+00
1.250000e+01
1.875000e+01
2.500000e+01
3.125000e+01
3.750000e+01
4.375000e+01
5.000000e+01
5.625000e+01
6.250000e+01
6.875000e+01
7.500000e+01
8.125000e+01
8.750000e+01
9.375000e+01
1.000000e+02
1.062500e+02
1.125000e+02
1.187500e+02
1.250000e+02
1.312500e+02
1.375000e+02
1.437500e+02
1.500000e+02
1.562500e+02
1.625000e+02
1.687500e+02
1.750000e+02
1.812500e+02
1.875000e+02
1.937500e+02
2.000000e+02
0.000000e+00
6.250000e+00
1.250000e+01
1.875000e+01
2.500000e+01
3.125000e+01
3.750000e+01
4.375000e+01
5.000000e+01
5.625000e+01
6.250000e+01
6.875000e+01
7.500000e+01
8.125000e+01
8.750000e+01
9.375000e+01
1.000000e+02
1.062500e+02
1.125000e+02
1.187500e+02
1.250000e+02
1.312500e+02
1.375000e+02
1.437500e+02
1.500000e+02
1.562500e+02
1.625000e+02
1.687500e+02
1.750000e+02
1.812500e+02
1.875000e+02
1.937500e+02
2.000000e+02
0.000000e+00
6.250000e+00
1.250000e+01
1.875000e+01
2.500000e+01
3.125000e+01
3.750000e+01
4.375000e+01
5.000000e+01
5.625000e+01
6.250000e+01
6.875000e+01
7.500000e+01
8.125000e+01
8.750000e+01
9.375000e+01
1.000000e+02
1.062500e+02
1.125000e+02
1.187500e+02
1.250000e+02
1.312500e+02
1.375000e+02
1.437500e+02
1.500000e+02
1.562500e+02
1.625000e+02
1.687500e+02
1.750000e+02
1.812500e+02
1.875000e+02
1.937500e+02
2.000000e+02
0.000000e+00
6.250000e+00
1.250000e+01
1.875000e+01
2.500000e+01
3.125000e+01
3.750000e+01
4.375000e+01
5.000000e+01
5.625000e+01
6.250000e+01
6.875000e+01
7.500000e+01
8.125000e+01
8.750000e+01
9.375000e+01
1.000000e+02
1.062500e+02
1.125000e+02
1.187500e+02
1.250000e+02
1.312500e+02
1.375000e+02
1.437500e+02
1.500000e+02
1.562500e+02
1.625000e+02
1.687500e+02
1.750000e+02
1.812500e+02
1.875000e+02
1.937500e+02
2.000000e+02
0.000000e+00
6.250000e+00
1.250000e+01
1.875000e+01
2.500000e+01
3.125000e+01
3.750000e+01
4.375000e+01
5.000000e+01
5.625000e+01
6.250000e+01
6.875000e+01
7.500000e+01
8.125000e+01
8.750000e+01
9.375000e+01
1.000000e+02
1.062500e+02
1.125000e+02
1.187500e+02
1.250000e+02
1.312500e+02
1.375000e+02
1.437500e+02
1.500000e+02
1.562500e+02
1.625000e+02
1.687500e+02
1.750000e+02
1.812500e+02
1.875000e+02
1.937500e+02
2.000000e+02
0.000000e+00
6.250000e+00
1.250000e+01
1.875000e+01
2.500000e+01
3.125000e+01
3.750000e+01
4.375000e+01
5.000000e+01
5.625000e+01
6.250000e+01
6.875000e+01
7.500000e+01
8.125000e+01
8.750000e+01
9.375000e+01
1.000000e+02
1.062500e+02
1.125000e+02
1.187500e+02
1.250000e+02
1.312500e+02
1.375000e+02
1.437500e+02
1.500000e+02
1.562500e+02
1.625000e+02
1.687500e+02
1.750000e+02
1.812500e+02
1.875000e+02
1.937500e+02
2.000000e+02
0.000000e+00
6.250000e+00
1.250000e+01
1.875000e+01
2.500000e+01
3.125000e+01
3.750000e+01
4.375000e+01
5.000000e+01
5.625000e+01
6.250000e+01
6.875000e+01
7.500000e+01
8.125000e+01
8.750000e+01
9.375000e+01
1.000000e+02
1.062500e+02
1.125000e+02
1.187500e+02
1.250000e+02
1.312500e+02
1.375000e+02
1.437500e+02
1.500000e+02
1.562500e+02
1.625000e+02
1.687500e+02
1.750000e+02
1.812500e+02
1.875000e+02
1.937500e+02
2.000000e+02
0.000000e+00
6.250000e+00
1.250000e+01
1.875000e+01
2.500000e+01
3.125000e+01
3.750000e+01
4.375000e+01
5.000000e+01
5.625000e+01
6.250000e+01
6.875000e+01
7.500000e+01
8.125000e+01
8.750000e+01
9.375000e+01
1.000000e+02
1.062500e+02
1.125000e+02
1.187500e+02
1.250000e+02
1.312500e+02
1.375000e+02
1.437500e+02
1.500000e+02
1.562500e+02
1.625000e+02
1.687500e+02
1.750000e+02
1.812500e+02
1.875000e+02
1.937500e+02
2.000000e+02
0.000000e+00
0.000000e+00
0.000000e+00
0.000000e+00
0.000000e+00
0.000000e+00
0.000000e+00
0.000000e+00
0.000000e+00
0.000000e+00
0.000000e+00
0.000000e+00
0.000000e+00
0.000000e+00
0.000000e+00
0.000000e+00
0.000000e+00
0.000000e+00
0.000000e+00
0.000000e+00
0.000000e+00
0.000000e+00
0.000000e+00
0.000000e+00
0.000000e+00
0.000000e+00
0.000000e+00
0.000000e+00
0.000000e+00
0.000000e+00
0.000000e+00
0.000000e+00
0.000000e+00
6.250000e+00
6.250000e+00
6.250000e+00
6.250000e+00
6.250000e+00
6.250000e+00
6.250000e+00
6.250000e+00
6.250000e+00
6.250000e+00
6.250000e+00
6.250000e+00
6.250000e+00
6.250000e+00
6.250000e+00
6.250000e+00
6.250000e+00
6.250000e+00
6.250000e+00
6.250000e+00
6.250000e+00
6.250000e+00
6.250000e+00
6.250000e+00
6.250000e+00
6.250000e+00
6.250000e+00
6.250000e+00
6.250000e+00
6.250000e+00
6.250000e+00
6.250000e+00
6.250000e+00
1.250000e+01
1.250000e+01
1.250000e+01
1.250000e+01
1.250000e+01
1.250000e+01
1.250000e+01
1.250000e+01
1.250000e+01
1.250000e+01
1.250000e+01
1.250000e+01
1.250000e+01
1.250000e+01
1.250000e+01
1.250000e+01
1.250000e+01
1.250000e+01
1.250000e+01
1.250000e+01
1.250000e+01
1.250000e+01
1.250000e+01
1.250000e+01
1.250000e+01
1.250000e+01
1.250000e+01
1.250000e+01
1.250000e+01
1.250000e+01
1.250000e+01
1.250000e+01
1.250000e+01
1.875000e+01
1.875000e+01
1.875000e+01
1.875000e+01
1.875000e+01
1.875000e+01
1.875000e+01
1.875000e+01
1.875000e+01
1.875000e+01
1.875000e+01
1.875000e+01
1.875000e+01
1.875000e+01
1.875000e+01
1.875000e+01
1.875000e+01
1.875000e+01
1.875000e+01
1.875000e+01
1.875000e+01
1.875000e+01
1.875000e+01
1.875000e+01
1.875000e+01
1.875000e+01
1.875000e+01
1.875000e+01
1.875000e+01
1.875000e+01
1.875000e+01
1.875000e+01
1.875000e+01
2.500000e+01
2.500000e+01
2.500000e+01
2.500000e+01
2.500000e+01
2.500000e+01
2.500000e+01
2.500000e+01
2.500000e+01
2.500000e+01
2.500000e+01
2.500000e+01
2.500000e+01
2.500000e+01
2.500000e+01
2.500000e+01
2.500000e+01
2.500000e+01
2.500000e+01
2.500000e+01
2.500000e+01
2.500000e+01
2.500000e+01
2.500000e+01
2.500000e+01
2.500000e+01
2.500000e+01
2.500000e+01
2.500000e+01
2.500000e+01
2.500000e+01
2.500000e+01
2.500000e+01
3.125000e+01
3.125000e+01
3.125000e+01
3.125000e+01
3.125000e+01
3.125000e+01
3.125000e+01
3.125000e+01
3.125000e+01
3.125000e+01
3.125000e+01
3.125000e+01
3.125000e+01
3.125000e+01
3.125000e+01
3.125000e+01
3.125000e+01
3.125000e+01
3.125000e+01
3.125000e+01
3.125000e+01
3.125000e+01
3.125000e+01
3.125000e+01
3.125000e+01
3.125000e+01
3.125000e+01
3.125000e+01
3.125000e+01
3.125000e+01
3.125000e+01
3.125000e+01
3.125000e+01
3.750000e+01
3.750000e+01
3.750000e+01
3.750000e+01
3.750000e+01
3.750000e+01
3.750000e+01
3.750000e+01
3.750000e+01
3.750000e+01
3.750000e+01
3.750000e+01
3.750000e+01
3.750000e+01
3.750000e+01
3.750000e+01
3.750000e+01
3.750000e+01
3.750000e+01
3.750000e+01
3.750000e+01
3.750000e+01
3.750000e+01
3.750000e+01
3.750000e+01
3.750000e+01
3.750000e+01
3.750000e+01
3.750000e+01
3.750000e+01
3.750000e+01
3.750000e+01
3.750000e+01
4.375000e+01
4.375000e+01
4.375000e+01
4.375000e+01
4.375000e+01
4.375000e+01
4.375000e+01
4.375000e+01
4.375000e+01
4.375000e+01
4.375000e+01
4.375000e+01
4.375000e+01
4.375000e+01
4.375000e+01
4.375000e+01
4.375000e+01
4.375000e+01
4.375000e+01
4.375000e+01
4.375000e+01
4.375000e+01
4.375000e+01
4.375000e+01
4.375000e+01
4.375000e+01
4.375000e+01
4.375000e+01
4.375000e+01
4.375000e+01
4.375000e+01
4.375000e+01
4.375000e+01
5.000000e+01
5.000000e+01
5.000000e+01
5.000000e+01
5.000000e+01
5.000000e+01
5.000000e+01
5.000000e+01
5.000000e+01
5.000000e+01
5.000000e+01
5.000000e+01
5.000000e+01
5.000000e+01
5.000000e+01
5.000000e+01
5.000000e+01
5.000000e+01
5.000000e+01
5.000000e+01
5.000000e+01
5.000000e+01
5.000000e+01
5.000000e+01
5.000000e+01
5.000000e+01
5.000000e+01
5.000000e+01
5.000000e+01
5.000000e+01
5.000000e+01
5.000000e+01
5.000000e+01
5.625000e+01
5.625000e+01
5.625000e+01
5.625000e+01
5.625000e+01
5.625000e+01
5.625000e+01
5.625000e+01
5.625000e+01
5.625000e+01
5.625000e+01
5.625000e+01
5.625000e+01
5.625000e+01
5.625000e+01
5.625000e+01
5.625000e+01
5.625000e+01
5.625000e+01
5.625000e+01
5.625000e+01
5.625000e+01
5.625000e+01
5.625000e+01
5.625000e+01
5.625000e+01
5.625000e+01
5.625000e+01
5.625000e+01
5.625000e+01
5.625000e+01
5.625000e+01
5.625000e+01
6.250000e+01
6.250000e+01
6.250000e+01
6.250000e+01
6.250000e+01
6.250000e+01
6.250000e+01
6.250000e+01
6.250000e+01
6.250000e+01
6.250000e+01
6.250000e+01
6.250000e+01
6.250000e+01
6.250000e+01
6.250000e+01
6.250000e+01
6.250000e+01
6.250000e+01
6.250000e+01
6.250000e+01
6.250000e+01
6.250000e+01
6.250000e+01
6.250000e+01
6.250000e+01
6.250000e+01
6.250000e+01
6.250000e+01
6.250000e+01
6.250000e+01
6.250000e+01
6.250000e+01
6.875000e+01
6.875000e+01
6.875000e+01
6.875000e+01
6.875000e+01
6.875000e+01
6.875000e+01
6.875000e+01
6.875000e+01
6.875000e+01
6.875000e+01
6.875000e+01
6.875000e+01
6.875000e+01
6.875000e+01
6.875000e+01
6.875000e+01
6.875000e+01
6.875000e+01
6.875000e+01
6.875000e+01
6.875000e+01
6.875000e+01
6.875000e+01
6.875000e+01
6.875000e+01
6.875000e+01
6.875000e+01
6.875000e+01
6.875000e+01
6.875000e+01
6.875000e+01
6.875000e+01
7.500000e+01
7.500000e+01
7.500000e+01
7.500000e+01
7.500000e+01
7.500000e+01
7.500000e+01
7.500000e+01
7.500000e+01
7.500000e+01
7.500000e+01
7.500000e+01
7.500000e+01
7.500000e+01
7.500000e+01
7.500000e+01
7.500000e+01
7.500000e+01
7.500000e+01
7.500000e+01
7.500000e+01
7.500000e+01
7.500000e+01
7.500000e+01
7.500000e+01
7.500000e+01
7.500000e+01
7.500000e+01
7.500000e+01
7.500000e+01
7.500000e+01
7.500000e+01
7.500000e+01
8.125000e+01
8.125000e+01
8.125000e+01
8.125000e+01
8.125000e+01
8.125000e+01
8.125000e+01
8.125000e+01
8.125000e+01
8.125000e+01
8.125000e+01
8.125000e+01
8.125000e+01
8.125000e+01
8.125000e+01
8.125000e+01
8.125000e+01
8.125000e+01
8.125000e+01
8.125000e+01
8.125000e+01
8.125000e+01
8.125000e+01
8.125000e+01
8.125000e+01
8.125000e+01
8.125000e+01
8.125000e+01
8.125000e+01
8.125000e+01
8.125000e+01
8.125000e+01
8.125000e+01
8.750000e+01
8.750000e+01
8.750000e+01
8.750000e+01
8.750000e+01
8.750000e+01
8.750000e+01
8.750000e+01
8.750000e+01
8.750000e+01
8.750000e+01
8.750000e+01
8.750000e+01
8.750000e+01
8.750000e+01
8.750000e+01
8.750000e+01
8.750000e+01
8.750000e+01
8.750000e+01
8.750000e+01
8.750000e+01
8.750000e+01
8.750000e+01
8.750000e+01
8.750000e+01
8.750000e+01
8.750000e+01
8.750000e+01
8.750000e+01
8.750000e+01
8.750000e+01
8.750000e+01
9.375000e+01
9.375000e+01
9.375000e+01
9.375000e+01
9.375000e+01
9.375000e+01
9.375000e+01
9.375000e+01
9.375000e+01
9.375000e+01
9.375000e+01
9.375000e+01
9.375000e+01
9.375000e+01
9.375000e+01
9.375000e+01
9.375000e+01
9.375000e+01
9.375000e+01
9.375000e+01
9.375000e+01
9.375000e+01
9.375000e+01
9.375000e+01
9.375000e+01
9.375000e+01
9.375000e+01
9.375000e+01
9.375000e+01
9.375000e+01
9.375000e+01
9.375000e+01
9.375000e+01
1.000000e+02
1.000000e+02
1.000000e+02
1.000000e+02
1.000000e+02
1.000000e+02
1.000000e+02
1.000000e+02
1.000000e+02
1.000000e+02
1.000000e+02
1.000000e+02
1.000000e+02
1.000000e+02
1.000000e+02
1.000000e+02
1.000000e+02
1.000000e+02
1.000000e+02
1.000000e+02
1.000000e+02
1.000000e+02
1.000000e+02
1.000000e+02
1.000000e+02
1.000000e+02
1.000000e+02
1.000000e+02
1.000000e+02
1.000000e+02
1.000000e+02
1.000000e+02
1.000000e+02
0.000000e+00
-4.694306e-02
-8.517195e-02
-1.205856e-01
-1.545728e-01
-1.873925e-01
-2.191108e-01
-2.497247e-01
-2.792151e-01
-3.075604e-01
-3.347429e-01
-3.607503e-01
-3.855763e-01
-4.092204e-01
-4.316881e-01
-4.529912e-01
-4.731489e-01
-4.921888e-01
-5.101492e-01
-5.270818e-01
-5.430555e-01
-5.581612e-01
-5.725194e-01
-5.862896e-01
-5.996859e-01
-6.129987e-01
-6.266319e-01
-6.411612e-01
-6.574311e-01
-6.766846e-01
-7.005339e-01
-7.289558e-01
-7.463012e-01
0.000000e+00
-3.147406e-02
-6.548516e-02
-9.755315e-02
-1.280325e-01
-1.572135e-01
-1.852503e-01
-2.122104e-01
-2.381206e-01
-2.629897e-01
-2.868194e-01
-3.096096e-01
-3.313614e-01
-3.520783e-01
-3.717673e-01
-3.904392e-01
-4.081100e-01
-4.248015e-01
-4.405426e-01
-4.553709e-01
-4.693343e-01
-4.824931e-01
-4.949225e-01
-5.067139e-01
-5.179771e-01
-5.288382e-01
-5.394302e-01
-5.498626e-01
-5.601348e-01
-5.699126e-01
-5.780601e-01
-5.828236e-01
-5.894551e-01
0.000000e+00
-2.496530e-02
-5.139707e-02
-7.830882e-02
-1.044587e-01
-1.296449e-01
-1.538514e-01
-1.771010e-01
-1.994144e-01
-2.208056e-01
-2.412836e-01
-2.608549e-01
-2.795249e-01
-2.972991e-01
-3.141840e-01
-3.301879e-01
-3.453212e-01
-3.595969e-01
-3.730311e-01
-3.856429e-01
-3.974544e-01
-4.084894e-01
-4.187715e-01
-4.283189e-01
-4.371354e-01
-4.451928e-01
-4.523988e-01
-4.585413e-01
-4.632050e-01
-4.657162e-01
-4.654960e-01
-4.640859e-01
-4.718297e-01
0.000000e+00
-1.980775e-02
-4.070944e-02
-6.218332e-02
-8.360689e-02
-1.045115e-01
-1.247182e-01
-1.441628e-01
-1.628278e-01
-1.807125e-01
-1.978214e-01
-2.141605e-01
-2.297351e-01
-2.445501e-01
-2.586099e-01
-2.719185e-01
-2.844795e-01
-2.962962e-01
-3.073710e-01
-3.177044e-01
-3.272940e-01
-3.361307e-01
-3.441952e-01
-3.514499e-01
-3.578277e-01
-3.632161e-01
-3.674367e-01
-3.702317e-01
-3.712989e-01
-3.705067e-01
-3.685826e-01
-3.684677e-01
-3.758456e-01
0.000000e+00
-1.537358e-02
-3.147985e-02
-4.810063e-02
-6.485644e-02
-8.140674e-02
-9.752318e-02
-1.130901e-01
-1.280550e-01
-1.423977e-01
-1.561128e-01
-1.692010e-01
-1.816649e-01
-1.935065e-01
-2.047266e-01
-2.153242e-01
-2.252960e-01
-2.346360e-01
-2.433345e-01
-2.513769e-01
-2.587417e-01
-2.653974e-01
-2.712984e-01
-2.763800e-01
-2.805522e-01
-2.836971e-01
-2.856761e-01
-2.863703e-01
-2.858008e-01
-2.844072e-01
-2.835032e-01
-2.855909e-01
-2.918846e-01
0.000000e+00
-1.129869e-02
-2.308145e-02
-3.524277e-02
-4.757249e-02
-5.984047e-02
-7.186399e-02
-8.352428e-02
-9.475616e-02
-1.055279e-01
-1.158262e-01
-1.256462e-01
-1.349864e-01
-1.438451e-01
-1.522188e-01
-1.601017e-01
-1.674843e-01
-1.743533e-01
-1.806899e-01
-1.864695e-01
-1.916595e-01
-1.962177e-01
-2.000909e-01
-2.032142e-01
-2.055135e-01
-2.069164e-01
-2.073818e-01
-2.069641e-01
-2.059346e-01
-2.049551e-01
-2.051936e-01
-2.078551e-01
-2.130627e-01
0.000000e+00
-7.435895e-03
-1.516591e-02
-2.314115e-02
-3.124788e-02
-3.934965e-02
-4.732427e-02
-5.508268e-02
-6.256915e-02
-6.975293e-02
-7.661847e-02
-8.315797e-02
-8.936640e-02
-9.523861e-02
-1.007675e-01
-1.059430e-01
-1.107511e-01
-1.151733e-01
-1.191859e-01
-1.227594e-01
-1.258578e-01
-1.284392e-01
-1.304565e-01
-1.318624e-01
-1.326177e-01
-1.327114e-01
-1.321950e-01
-1.312393e-01
-1.302080e-01
-1.297081e-01
-1.304881e-01
-1.330793e-01
-1.372830e-01
0.000000e+00
-3.693407e-03
-7.526446e-03
-1.147942e-02
-1.550240e-02
-1.953183e-02
-2.350736e-02
-2.738178e-02
-3.112315e-02
-3.471201e-02
-3.813679e-02
-4.138986e-02
-4.446456e-02
-4.735326e-02
-5.004613e-02
-5.253022e-02
-5.478888e-02
-5.680125e-02
-5.854204e-02
-5.998160e-02
-6.108665e-02
-6.182220e-02
-6.215541e-02
-6.206273e-02
-6.154235e-02
-6.063398e-02
-5.944754e-02
-5.819743e-02
-5.722697e-02
-5.698387e-02
-5.789892e-02
-6.015945e-02
-6.349496e-02
0.000000e+00
-5.958973e-06
-1.292075e-05
-2.049966e-05
-2.829705e-05
-3.577541e-05
-4.212467e-05
-4.611382e-05
-4.591751e-05
-3.890730e-05
-2.139966e-05
1.164372e-05
6.696284e-05
1.533859e-04
2.822370e-04
4.677292e-04
7.272829e-04
1.081670e-03
1.554830e-03
2.173117e-03
2.963626e-03
3.951087e-03
5.152630e-03
6.569559e-03
8.175330e-03
9.899602e-03
1.161036e-02
1.310083e-02
1.409579e-02
1.429756e-02
1.348513e-02
1.164525e-02
9.068404e-03
0.000000e+00
3.682183e-03
7.502060e-03
1.144065e-02
1.544876e-02
1.946382e-02
2.342699e-02
2.729332e-02
3.103433e-02
3.463543e-02
3.809197e-02
4.140578e-02
4.458286e-02
4.763223e-02
5.056540e-02
5.339631e-02
5.614130e-02
5.881902e-02
6.144988e-02
6.405491e-02
6.665358e-02
6.926018e-02
7.187845e-02
7.449383e-02
7.706382e-02
7.950733e-02
8.169643e-02
8.345713e-02
8.458842e-02
8.490871e-02
8.432865e-02
8.293098e-02
8.101845e-02
0.000000e+00
7.426726e-03
1.514585e-02
2.310903e-02
3.120309e-02
3.929233e-02
4.725574e-02
5.500607e-02
6.249028e-02
6.968159e-02
7.657001e-02
8.315540e-02
8.944308e-02
9.544152e-02
1.011613e-01
1.066145e-01
1.118148e-01
1.167771e-01
1.215168e-01
1.260485e-01
1.303839e-01
1.345287e-01
1.384771e-01
1.422064e-01
1.456696e-01
1.487901e-01
1.514592e-01
1.535439e-01
1.549083e-01
1.554539e-01
1.551734e-01
1.542062e-01
1.528714e-01
0.000000e+00
1.129284e-02
2.306842e-02
3.522155e-02
4.754236e-02
5.980114e-02
7.181587e-02
8.346889e-02
9.469671e-02
1.054701e-01
1.157792e-01
1.256243e-01
1.350104e-01
1.439448e-01
1.524358e-01
1.604927e-01
1.681247e-01
1.753416e-01
1.821527e-01
1.885658e-01
1.945855e-01
2.002102e-01
2.054291e-01
2.102177e-01
2.145335e-01
2.183139e-01
2.214774e-01
2.239326e-01
2.255976e-01
2.264318e-01
2.264788e-01
2.259114e-01
2.250678e-01
0.000000e+00
1.537213e-02
3.147622e-02
4.809412e-02
6.484639e-02
8.139257e-02
9.750452e-02
1.130670e-01
1.280278e-01
1.423676e-01
1.560822e-01
1.691739e-01
1.816474e-01
1.935079e-01
2.047606e-01
2.154098e-01
2.254597e-01
2.349136e-01
2.437737e-01
2.520404e-01
2.597112e-01
2.667792e-01
2.732307e-01
2.790433e-01
2.841845e-01
2.886111e-01
2.922725e-01
2.951180e-01
2.971122e-01
2.982579e-01
2.986296e-01
2.984166e-01
2.979721e-01
0.000000e+00
1.981143e-02
4.071692e-02
6.219445e-02
8.362135e-02
1.045289e-01
1.247379e-01
1.441838e-01
1.628485e-01
1.807304e-01
1.978327e-01
2.141594e-01
2.297134e-01
2.444966e-01
2.585092e-01
2.717500e-01
2.842166e-01
2.959049e-01
3.068091e-01
3.169215e-01
3.262319e-01
3.347272e-01
3.423915e-01
3.492052e-01
3.551468e-01
3.601939e-01
3.643276e-01
3.675386e-01
3.698367e-01
3.712648e-01
3.719218e-01
3.720001e-01
3.718526e-01
0.000000e+00
2.497428e-02
5.141625e-02
7.833885e-02
1.045002e-01
1.296983e-01
1.539168e-01
1.771777e-01
1.995001e-01
2.208960e-01
2.413709e-01
2.609266e-01
2.795618e-01
2.972728e-01
3.140542e-01
3.298984e-01
3.447956e-01
3.587336e-01
3.716977e-01
3.836707e-01
3.946328e-01
4.045628e-01
4.134391e-01
4.212418e-01
4.279561e-01
4.335768e-01
4.381142e-01
4.416002e-01
4.440952e-01
4.456931e-01
4.465295e-01
4.468019e-01
4.468344e-01
0.000000e+00
3.148754e-02
6.551462e-02
9.760053e-02
1.281002e-01
1.573037e-01
1.853651e-01
2.123508e-01
2.382861e-01
2.631770e-01
2.870206e-01
3.098105e-01
3.315380e-01
3.521932e-01
3.717642e-01
3.902373e-01
4.075956e-01
4.238186e-01
4.388820e-01
4.527573e-01
4.654125e-01
4.768136e-01
4.869270e-01
4.957235e-01
5.031850e-01
5.093119e-01
5.141330e-01
5.177164e-01
5.201780e-01
5.216863e-01
5.224568e-01
5.227362e-01
5.228047e-01
0.000000e+00
4.695783e-02
8.520639e-02
1.206446e-01
1.546611e-01
1.875150e-01
2.192724e-01
2.499302e-01
2.794681e-01
3.078626e-01
3.350917e-01
3.611364e-01
3.859801e-01
4.096069e-01
4.320004e-01
4.531417e-01
4.730084e-01
4.915729e-01
5.088012e-01
5.246524e-01
5.390790e-01
5.520277e-01
5.634431e-01
5.732727e-01
5.814759e-01
5.880363e-01
5.929772e-01
5.963810e-01
5.984097e-01
5.993239e-01
5.994900e-01
5.993524e-01
5.992750e-01
0.000000e+00
-2.900992e-02
-5.062857e-02
-7.421974e-02
-1.004899e-01
-1.301647e-01
-1.634503e-01
-2.004046e-01
-2.409908e-01
-2.851218e-01
-3.326808e-01
-3.835331e-01
-4.375337e-01
-4.945314e-01
-5.543720e-01
-6.169005e-01
-6.819625e-01
-7.494062e-01
-8.190854e-01
-8.908619e-01
-9.646109e-01
-1.040227e+00
-1.117636e+00
-1.196807e+00
-1.277780e+00
-1.360705e+00
-1.445911e+00
-1.534043e+00
-1.626329e+00
-1.725206e+00
-1.835930e+00
-1.970903e+00
-2.157372e+00
0.000000e+00
-1.802856e-02
-4.065759e-02
-6.440790e-02
-9.104422e-02
-1.210414e-01
-1.546504e-01
-1.919282e-01
-2.328410e-01
-2.773019e-01
-3.251933e-01
-3.763795e-01
-4.307141e-01
-4.880448e-01
-5.482161e-01
-6.110711e-01
-6.764536e-01
-7.442097e-01
-8.141902e-01
-8.862536e-01
-9.602707e-01
-1.036131e+00
-1.113752e+00
-1.193096e+00
-1.274192e+00
-1.357175e+00
-1.442358e+00
-1.530365e+00
-1.622399e+00
-1.720857e+00
-1.830726e+00
-1.962694e+00
-2.136904e+00
0.000000e+00
-1.324302e-02
-3.277796e-02
-5.620427e-02
-8.288713e-02
-1.131053e-01
-1.469796e-01
-1.845415e-01
-2.257457e-01
-2.705012e-01
-3.186883e-01
-3.701702e-01
-4.248001e-01
-4.824250e-01
-5.428887e-01
-6.060339e-01
-6.717036e-01
-7.397430e-01
-8.100018e-01
-8.823375e-01
-9.566196e-01
-1.032737e+00
-1.110607e+00
-1.190192e+00
-1.271526e+00
-1.354750e+00
-1.440193e+00
-1.528493e+00
-1.620839e+00
-1.719390e+00
-1.827829e+00
-1.950514e+00
-2.086607e+00
0.000000e+00
-1.060445e-02
-2.775632e-02
-4.993342e-02
-7.627337e-02
-1.064822e-01
-1.405014e-01
-1.782737e-01
-2.197177e-01
-2.647256e-01
-3.131701e-01
-3.649112e-01
-4.198005e-01
-4.776850e-01
-5.384085e-01
-6.018141e-01
-6.677454e-01
-7.360482e-01
-8.065730e-01
-8.791784e-01
-9.537357e-01
-1.030136e+00
-1.108302e+00
-1.188201e+00
-1.269874e+00
-1.353472e+00
-1.439317e+00
-1.527999e+00
-1.620491e+00
-1.718215e+00
-1.822531e+00
-1.932551e+00
-2.034969e+00
0.000000e+00
-8.973108e-03
-2.447235e-02
-4.548038e-02
-7.121988e-02
-1.012306e-01
-1.352627e-01
-1.731577e-01
-2.147788e-01
-2.599899e-01
-3.086497e-01
-3.606116e-01
-4.157247e-01
-4.738352e-01
-5.347878e-01
-5.984266e-01
-6.645968e-01
-7.331458e-01
-8.039263e-01
-8.767991e-01
-9.516386e-01
-1.028339e+00
-1.106826e+00
-1.187071e+00
-1.269109e+00
-1.353074e+00
-1.439229e+00
-1.527997e+00
-1.619940e+00
-1.715507e+00
-1.814243e+00
-1.912524e+00
-2.001719e+00
0.000000e+00
-7.935072e-03
-2.231765e-02
-4.241599e-02
-6.757609e-02
-9.730573e-02
-1.312637e-01
-1.692072e-01
-2.109449e-01
-2.563084e-01
-3.051388e-01
-3.572809e-01
-4.125801e-01
-4.708819e-01
-5.320318e-01
-5.958755e-01
-6.622600e-01
-7.310352e-01
-8.020561e-01
-8.751857e-01
-9.503002e-01
-1.027295e+00
-1.106092e+00
-1.186654e+00
-1.268996e+00
-1.353196e+00
-1.439402e+00
-1.527802e+00
-1.618497e+00
-1.711182e+00
-1.804444e+00
-1.894951e+00
-1.977674e+00
0.000000e+00
-7.289945e-03
-2.095535e-02
-4.042407e-02
-6.513501e-02
-9.460846e-02
-1.284656e-01
-1.664139e-01
-2.082204e-01
-2.536893e-01
-3.026455e-01
-3.549252e-01
-4.103705e-01
-4.688261e-01
-5.301383e-01
-5.941546e-01
-6.607241e-01
-7.296989e-01
-8.009353e-01
-8.742976e-01
-9.496607e-01
-1.026915e+00
-1.105975e+00
-1.186778e+00
-1.269299e+00
-1.353538e+00
-1.439503e+00
-1.527145e+00
-1.616210e+00
-1.705974e+00
-1.794885e+00
-1.880377e+00
-1.959311e+00
0.000000e+00
-6.935438e-03
-2.019943e-02
-3.930158e-02
-6.373527e-02
-9.303733e-02
-1.268168e-01
-1.647567e-01
-2.066005e-01
-2.521346e-01
-3.011732e-01
-3.535468e-01
-4.090952e-01
-4.676633e-01
-5.290984e-01
-5.932497e-01
-6.599681e-01
-7.291070e-01
-8.005233e-01
-8.740796e-01
-9.496466e-01
-1.027106e+00
-1.106351e+00
-1.187292e+00
-1.269846e+00
-1.353930e+00
-1.439419e+00
-1.526080e+00
-1.613450e+00
-1.700671e+00
-1.786342e+00
-1.868533e+00
-1.945103e+00
0.000000e+00
-6.821217e-03
-1.995556e-02
-3.893777e-02
-6.327907e-02
-9.252312e-02
-1.262767e-01
-1.642160e-01
-2.060774e-01
-2.516420e-01
-3.007208e-01
-3.531431e-01
-4.087491e-01
-4.673845e-01
-5.288981e-01
-5.931409e-01
-6.599648e-01
-7.292237e-01
-8.007734e-01
-8.744728e-01
-9.501850e-01
-1.027777e+00
-1.107121e+00
-1.188088e+00
-1.270541e+00
-1.354317e+00
-1.439187e+00
-1.524803e+00
-1.610611e+00
-1.695765e+00
-1.779081e+00
-1.859088e+00
-1.934214e+00
0.000000e+00
-6.932134e-03
-2.019485e-02
-3.929763e-02
-6.373407e-02
-9.304152e-02
-1.268298e-01
-1.647832e-01
-2.066465e-01
-2.522081e-01
-3.012844e-01
-3.537086e-01
-4.093236e-01
-4.679774e-01
-5.295207e-01
-5.938057e-01
-6.606849e-01
-7.300118e-01
-8.016397e-01
-8.754223e-01
-9.512125e-01
-1.028861e+00
-1.108215e+00
-1.189108e+00
-1.271354e+00
-1.354723e+00
-1.438919e+00
-1.523530e+00
-1.607986e+00
-1.691518e+00
-1.773151e+00
-1.851744e+00
-1.926099e+00
0.000000e+00
-7.283605e-03
-2.094655e-02
-4.041646e-02
-6.513263e-02
-9.461633e-02
-1.284904e-01
-1.664643e-01
-2.083083e-01
-2.538299e-01
-3.028584e-01
-3.552352e-01
-4.108082e-01
-4.694285e-01
-5.309486e-01
-5.952217e-01
-6.621006e-01
-7.314374e-01
-8.030822e-01
-8.768822e-01
-9.526797e-01
-1.030309e+00
-1.109592e+00
-1.190331e+00
-1.272296e+00
-1.355212e+00
-1.438737e+00
-1.522438e+00
-1.605767e+00
-1.688051e+00
-1.768500e+00
-1.846235e+00
-1.920338e+00
0.000000e+00
-7.926260e-03
-2.230542e-02
-4.240536e-02
-6.757265e-02
-9.731650e-02
-1.312980e-01
-1.692773e-01
-2.110672e-01
-2.565043e-01
-3.054359e-01
-3.577138e-01
-4.131919e-01
-4.717244e-01
-5.331656e-01
-5.973695e-01
-6.641884e-01
-7.334727e-01
-8.050690e-01
-8.788182e-01
-9.545524e-01
-1.032091e+00
-1.111234e+00
-1.191757e+00
-1.273399e+00
-1.355851e+00
-1.438749e+00
-1.521656e+00
-1.604063e+00
-1.685395e+00
-1.765027e+00
-1.842306e+00
-1.916561e+00
0.000000e+00
-8.962728e-03
-2.445795e-02
-4.546785e-02
-7.121590e-02
-1.012437e-01
-1.353040e-01
-1.732422e-01
-2.149264e-01
-2.602266e-01
-3.090087e-01
-3.611350e-01
-4.164646e-01
-4.748543e-01
-5.361598e-01
-6.002351e-01
-6.669319e-01
-7.360989e-01
-8.075793e-01
-8.812085e-01
-9.568100e-01
-1.034191e+00
-1.113135e+00
-1.193397e+00
-1.274694e+00
-1.356698e+00
-1.439029e+00
-1.521261e+00
-1.602924e+00
-1.683531e+00
-1.762604e+00
-1.839697e+00
-1.914400e+00
0.000000e+00
-1.059378e-02
-2.774154e-02
-4.992069e-02
-7.626995e-02
-1.064975e-01
-1.405479e-01
-1.783681e-01
-2.198819e-01
-2.649882e-01
-3.135680e-01
-3.654908e-01
-4.206193e-01
-4.788120e-01
-5.399249e-01
-6.038118e-01
-6.703237e-01
-7.393076e-01
-8.106040e-01
-8.840440e-01
-9.594449e-01
-1.036605e+00
-1.115297e+00
-1.195263e+00
-1.276205e+00
-1.357784e+00
-1.439615e+00
-1.521282e+00
-1.602350e+00
-1.682401e+00
-1.761080e+00
-1.838140e+00
-1.913458e+00
0.000000e+00
-1.323372e-02
-3.276501e-02
-5.619352e-02
-8.288611e-02
-1.131240e-01
-1.470311e-01
-1.846430e-01
-2.259202e-01
-2.707783e-01
-3.191061e-01
-3.707766e-01
-4.256540e-01
-4.835973e-01
-5.444624e-01
-6.081024e-01
-6.743674e-01
-7.431031e-01
-8.141479e-01
-8.873301e-01
-9.624630e-01
-1.039340e+00
-1.117728e+00
-1.197361e+00
-1.277936e+00
-1.359109e+00
-1.440497e+00
-1.521693e+00
-1.602286e+00
-1.681906e+00
-1.760290e+00
-1.837357e+00
-1.913294e+00
0.000000e+00
-1.802258e-02
-4.064879e-02
-6.440157e-02
-9.104813e-02
-1.210657e-01
-1.547083e-01
-1.920371e-01
-2.330238e-01
-2.775879e-01
-3.256201e-01
-3.769939e-01
-4.315737e-01
-4.892182e-01
-5.497829e-01
-6.131201e-01
-6.790789e-01
-7.475037e-01
-8.182315e-01
-8.910884e-01
-9.658858e-01
-1.042415e+00
-1.120440e+00
-1.199694e+00
-1.279874e+00
-1.360639e+00
-1.441611e+00
-1.522395e+00
-1.602599e+00
-1.681883e+00
-1.760032e+00
-1.837074e+00
-1.913434e+00
0.000000e+00
-2.900907e-02
-5.062564e-02
-7.422030e-02
-1.005018e-01
-1.301980e-01
-1.635184e-01
-2.005247e-01
-2.411851e-01
-2.854191e-01
-3.331171e-01
-3.841531e-01
-4.383915e-01
-4.956910e-01
-5.559063e-01
-6.188892e-01
-6.844874e-01
-7.525439e-01
-8.228937e-01
-8.953614e-01
-9.697565e-01
-1.045869e+00
-1.123463e+00