TITLE = "Solution"
VARIABLES = x, y, u, v, psiu, psiv, t, stress
ZONE T="structure" N=561 E=512 F=FEBLOCK ET=QUADRILATERAL VARLOCATION=([7,8]=cellcentered)
0.000000e+00
6.250000e+00
1.250000e+01
1.875000e+01
2.500000e+01
3.125000e+01
3.750000e+01
4.375000e+01
5.000000e+01
5.625000e+01
6.250000e+01
6.875000e+01
7.500000e+01
8.125000e+01
8.750000e+01
9.375000e+01
1.000000e+02
1.062500e+02
1.125000e+02
1.187500e+02
1.250000e+02
1.312500e+02
1.375000e+02
1.437500e+02
1.500000e+02
1.562500e+02
1.625000e+02
1.687500e+02
1.750000e+02
1.812500e+02
1.875000e+02
1.937500e+02
2.000000e+02
0.000000e+00
6.250000e+00
1.250000e+01
1.875000e+01
2.500000e+01
3.125000e+01
3.750000e+01
4.375000e+01
5.000000e+01
5.625000e+01
6.250000e+01
6.875000e+01
7.500000e+01
8.125000e+01
8.750000e+01
9.375000e+01
1.000000e+02
1.062500e+02
1.125000e+02
1.187500e+02
1.250000e+02
1.312500e+02
1.375000e+02
1.437500e+02
1.500000e+02
1.562500e+02
1.625000e+02
1.687500e+02
1.750000e+02
1.812500e+02
1.875000e+02
1.937500e+02
2.000000e+02
0.000000e+00
6.250000e+00
1.250000e+01
1.875000e+01
2.500000e+01
3.125000e+01
3.750000e+01
4.375000e+01
5.000000e+01
5.625000e+01
6.250000e+01
6.875000e+01
7.500000e+01
8.125000e+01
8.750000e+01
9.375000e+01
1.000000e+02
1.062500e+02
1.125000e+02
1.187500e+02
1.250000e+02
1.312500e+02
1.375000e+02
1.437500e+02
1.500000e+02
1.562500e+02
1.625000e+02
1.687500e+02
1.750000e+02
1.812500e+02
1.875000e+02
1.937500e+02
2.000000e+02
0.000000e+00
6.250000e+00
1.250000e+01
1.875000e+01
2.500000e+01
3.125000e+01
3.750000e+01
4.375000e+01
5.000000e+01
5.625000e+01
6.250000e+01
6.875000e+01
7.500000e+01
8.125000e+01
8.750000e+01
9.375000e+01
1.000000e+02
1.062500e+02
1.125000e+02
1.187500e+02
1.250000e+02
1.312500e+02
1.375000e+02
1.437500e+02
1.500000e+02
1.562500e+02
1.625000e+02
1.687500e+02
1.750000e+02
1.812500e+02
1.875000e+02
1.937500e+02
2.000000e+02
0.000000e+00
6.250000e+00
1.250000e+01
1.875000e+01
2.500000e+01
3.125000e+01
3.750000e+01
4.375000e+01
5.000000e+01
5.625000e+01
6.250000e+01
6.875000e+01
7.500000e+01
8.125000e+01
8.750000e+01
9.375000e+01
1.000000e+02
1.062500e+02
1.125000e+02
1.187500e+02
1.250000e+02
1.312500e+02
1.375000e+02
1.437500e+02
1.500000e+02
1.562500e+02
1.625000e+02
1.687500e+02
1.750000e+02
1.812500e+02
1.875000e+02
1.937500e+02
2.000000e+02
0.000000e+00
6.250000e+00
1.250000e+01
1.875000e+01
2.500000e+01
3.125000e+01
3.750000e+01
4.375000e+01
5.000000e+01
5.625000e+01
6.250000e+01
6.875000e+01
7.500000e+01
8.125000e+01
8.750000e+01
9.375000e+01
1.000000e+02
1.062500e+02
1.125000e+02
1.187500e+02
1.250000e+02
1.312500e+02
1.375000e+02
1.437500e+02
1.500000e+02
1.562500e+02
1.625000e+02
1.687500e+02
1.750000e+02
1.812500e+02
1.875000e+02
1.937500e+02
2.000000e+02
0.000000e+00
6.250000e+00
1.250000e+01
1.875000e+01
2.500000e+01
3.125000e+01
3.750000e+01
4.375000e+01
5.000000e+01
5.625000e+01
6.250000e+01
6.875000e+01
7.500000e+01
8.125000e+01
8.750000e+01
9.375000e+01
1.000000e+02
1.062500e+02
1.125000e+02
1.187500e+02
1.250000e+02
1.312500e+02
1.375000e+02
1.437500e+02
1.500000e+02
1.562500e+02
1.625000e+02
1.687500e+02
1.750000e+02
1.812500e+02
1.875000e+02
1.937500e+02
2.000000e+02
0.000000e+00
6.250000e+00
1.250000e+01
1.875000e+01
2.500000e+01
3.125000e+01
3.750000e+01
4.375000e+01
5.000000e+01
5.625000e+01
6.250000e+01
6.875000e+01
7.500000e+01
8.125000e+01
8.750000e+01
9.375000e+01
1.000000e+02
1.062500e+02
1.125000e+02
1.187500e+02
1.250000e+02
1.312500e+02
1.375000e+02
1.437500e+02
1.500000e+02
1.562500e+02
1.625000e+02
1.687500e+02
1.750000e+02
1.812500e+02
1.875000e+02
1.937500e+02
2.000000e+02
0.000000e+00
6.250000e+00
1.250000e+01
1.875000e+01
2.500000e+01
3.125000e+01
3.750000e+01
4.375000e+01
5.000000e+01
5.625000e+01
6.250000e+01
6.875000e+01
7.500000e+01
8.125000e+01
8.750000e+01
9.375000e+01
1.000000e+02
1.062500e+02
1.125000e+02
1.187500e+02
1.250000e+02
1.312500e+02
1.375000e+02
1.437500e+02
1.500000e+02
1.562500e+02
1.625000e+02
1.687500e+02
1.750000e+02
1.812500e+02
1.875000e+02
1.937500e+02
2.000000e+02
0.000000e+00
6.250000e+00
1.250000e+01
1.875000e+01
2.500000e+01
3.125000e+01
3.750000e+01
4.375000e+01
5.000000e+01
5.625000e+01
6.250000e+01
6.875000e+01
7.500000e+01
8.125000e+01
8.750000e+01
9.375000e+01
1.000000e+02
1.062500e+02
1.125000e+02
1.187500e+02
1.250000e+02
1.312500e+02
1.375000e+02
1.437500e+02
1.500000e+02
1.562500e+02
1.625000e+02
1.687500e+02
1.750000e+02
1.812500e+02
1.875000e+02
1.937500e+02
2.000000e+02
0.000000e+00
6.250000e+00
1.250000e+01
1.875000e+01
2.500000e+01
3.125000e+01
3.750000e+01
4.375000e+01
5.000000e+01
5.625000e+01
6.250000e+01
6.875000e+01
7.500000e+01
8.125000e+01
8.750000e+01
9.375000e+01
1.000000e+02
1.062500e+02
1.125000e+02
1.187500e+02
1.250000e+02
1.312500e+02
1.375000e+02
1.437500e+02
1.500000e+02
1.562500e+02
1.625000e+02
1.687500e+02
1.750000e+02
1.812500e+02
1.875000e+02
1.937500e+02
2.000000e+02
0.000000e+00
6.250000e+00
1.250000e+01
1.875000e+01
2.500000e+01
3.125000e+01
3.750000e+01
4.375000e+01
5.000000e+01
5.625000e+01
6.250000e+01
6.875000e+01
7.500000e+01
8.125000e+01
8.750000e+01
9.375000e+01
1.000000e+02
1.062500e+02
1.125000e+02
1.187500e+02
1.250000e+02
1.312500e+02
1.375000e+02
1.437500e+02
1.500000e+02
1.562500e+02
1.625000e+02
1.687500e+02
1.750000e+02
1.812500e+02
1.875000e+02
1.937500e+02
2.000000e+02
0.000000e+00
6.250000e+00
1.250000e+01
1.875000e+01
2.500000e+01
3.125000e+01
3.750000e+01
4.375000e+01
5.000000e+01
5.625000e+01
6.250000e+01
6.875000e+01
7.500000e+01
8.125000e+01
8.750000e+01
9.375000e+01
1.000000e+02
1.062500e+02
1.125000e+02
1.187500e+02
1.250000e+02
1.312500e+02
1.375000e+02
1.437500e+02
1.500000e+02
1.562500e+02
1.625000e+02
1.687500e+02
1.750000e+02
1.812500e+02
1.875000e+02
1.937500e+02
2.000000e+02
0.000000e+00
6.250000e+00
1.250000e+01
1.875000e+01
2.500000e+01
3.125000e+01
3.750000e+01
4.375000e+01
5.000000e+01
5.625000e+01
6.250000e+01
6.875000e+01
7.500000e+01
8.125000e+01
8.750000e+01
9.375000e+01
1.000000e+02
1.062500e+02
1.125000e+02
1.187500e+02
1.250000e+02
1.312500e+02
1.375000e+02
1.437500e+02
1.500000e+02
1.562500e+02
1.625000e+02
1.687500e+02
1.750000e+02
1.812500e+02
1.875000e+02
1.937500e+02
2.000000e+02
0.000000e+00
6.250000e+00
1.250000e+01
1.875000e+01
2.500000e+01
3.125000e+01
3.750000e+01
4.375000e+01
5.000000e+01
5.625000e+01
6.250000e+01
6.875000e+01
7.500000e+01
8.125000e+01
8.750000e+01
9.375000e+01
1.000000e+02
1.062500e+02
1.125000e+02
1.187500e+02
1.250000e+02
1.312500e+02
1.375000e+02
1.437500e+02
1.500000e+02
1.562500e+02
1.625000e+02
1.687500e+02
1.750000e+02
1.812500e+02
1.875000e+02
1.937500e+02
2.000000e+02
0.000000e+00
6.250000e+00
1.250000e+01
1.875000e+01
2.500000e+01
3.125000e+01
3.750000e+01
4.375000e+01
5.000000e+01
5.625000e+01
6.250000e+01
6.875000e+01
7.500000e+01
8.125000e+01
8.750000e+01
9.375000e+01
1.000000e+02
1.062500e+02
1.125000e+02
1.187500e+02
1.250000e+02
1.312500e+02
1.375000e+02
1.437500e+02
1.500000e+02
1.562500e+02
1.625000e+02
1.687500e+02
1.750000e+02
1.812500e+02
1.875000e+02
1.937500e+02
2.000000e+02
0.000000e+00
6.250000e+00
1.250000e+01
1.875000e+01
2.500000e+01
3.125000e+01
3.750000e+01
4.375000e+01
5.000000e+01
5.625000e+01
6.250000e+01
6.875000e+01
7.500000e+01
8.125000e+01
8.750000e+01
9.375000e+01
1.000000e+02
1.062500e+02
1.125000e+02
1.187500e+02
1.250000e+02
1.312500e+02
1.375000e+02
1.437500e+02
1.500000e+02
1.562500e+02
1.625000e+02
1.687500e+02
1.750000e+02
1.812500e+02
1.875000e+02
1.937500e+02
2.000000e+02
0.000000e+00
0.000000e+00
0.000000e+00
0.000000e+00
0.000000e+00
0.000000e+00
0.000000e+00
0.000000e+00
0.000000e+00
0.000000e+00
0.000000e+00
0.000000e+00
0.000000e+00
0.000000e+00
0.000000e+00
0.000000e+00
0.000000e+00
0.000000e+00
0.000000e+00
0.000000e+00
0.000000e+00
0.000000e+00
0.000000e+00
0.000000e+00
0.000000e+00
0.000000e+00
0.000000e+00
0.000000e+00
0.000000e+00
0.000000e+00
0.000000e+00
0.000000e+00
0.000000e+00
6.250000e+00
6.250000e+00
6.250000e+00
6.250000e+00
6.250000e+00
6.250000e+00
6.250000e+00
6.250000e+00
6.250000e+00
6.250000e+00
6.250000e+00
6.250000e+00
6.250000e+00
6.250000e+00
6.250000e+00
6.250000e+00
6.250000e+00
6.250000e+00
6.250000e+00
6.250000e+00
6.250000e+00
6.250000e+00
6.250000e+00
6.250000e+00
6.250000e+00
6.250000e+00
6.250000e+00
6.250000e+00
6.250000e+00
6.250000e+00
6.250000e+00
6.250000e+00
6.250000e+00
1.250000e+01
1.250000e+01
1.250000e+01
1.250000e+01
1.250000e+01
1.250000e+01
1.250000e+01
1.250000e+01
1.250000e+01
1.250000e+01
1.250000e+01
1.250000e+01
1.250000e+01
1.250000e+01
1.250000e+01
1.250000e+01
1.250000e+01
1.250000e+01
1.250000e+01
1.250000e+01
1.250000e+01
1.250000e+01
1.250000e+01
1.250000e+01
1.250000e+01
1.250000e+01
1.250000e+01
1.250000e+01
1.250000e+01
1.250000e+01
1.250000e+01
1.250000e+01
1.250000e+01
1.875000e+01
1.875000e+01
1.875000e+01
1.875000e+01
1.875000e+01
1.875000e+01
1.875000e+01
1.875000e+01
1.875000e+01
1.875000e+01
1.875000e+01
1.875000e+01
1.875000e+01
1.875000e+01
1.875000e+01
1.875000e+01
1.875000e+01
1.875000e+01
1.875000e+01
1.875000e+01
1.875000e+01
1.875000e+01
1.875000e+01
1.875000e+01
1.875000e+01
1.875000e+01
1.875000e+01
1.875000e+01
1.875000e+01
1.875000e+01
1.875000e+01
1.875000e+01
1.875000e+01
2.500000e+01
2.500000e+01
2.500000e+01
2.500000e+01
2.500000e+01
2.500000e+01
2.500000e+01
2.500000e+01
2.500000e+01
2.500000e+01
2.500000e+01
2.500000e+01
2.500000e+01
2.500000e+01
2.500000e+01
2.500000e+01
2.500000e+01
2.500000e+01
2.500000e+01
2.500000e+01
2.500000e+01
2.500000e+01
2.500000e+01
2.500000e+01
2.500000e+01
2.500000e+01
2.500000e+01
2.500000e+01
2.500000e+01
2.500000e+01
2.500000e+01
2.500000e+01
2.500000e+01
3.125000e+01
3.125000e+01
3.125000e+01
3.125000e+01
3.125000e+01
3.125000e+01
3.125000e+01
3.125000e+01
3.125000e+01
3.125000e+01
3.125000e+01
3.125000e+01
3.125000e+01
3.125000e+01
3.125000e+01
3.125000e+01
3.125000e+01
3.125000e+01
3.125000e+01
3.125000e+01
3.125000e+01
3.125000e+01
3.125000e+01
3.125000e+01
3.125000e+01
3.125000e+01
3.125000e+01
3.125000e+01
3.125000e+01
3.125000e+01
3.125000e+01
3.125000e+01
3.125000e+01
3.750000e+01
3.750000e+01
3.750000e+01
3.750000e+01
3.750000e+01
3.750000e+01
3.750000e+01
3.750000e+01
3.750000e+01
3.750000e+01
3.750000e+01
3.750000e+01
3.750000e+01
3.750000e+01
3.750000e+01
3.750000e+01
3.750000e+01
3.750000e+01
3.750000e+01
3.750000e+01
3.750000e+01
3.750000e+01
3.750000e+01
3.750000e+01
3.750000e+01
3.750000e+01
3.750000e+01
3.750000e+01
3.750000e+01
3.750000e+01
3.750000e+01
3.750000e+01
3.750000e+01
4.375000e+01
4.375000e+01
4.375000e+01
4.375000e+01
4.375000e+01
4.375000e+01
4.375000e+01
4.375000e+01
4.375000e+01
4.375000e+01
4.375000e+01
4.375000e+01
4.375000e+01
4.375000e+01
4.375000e+01
4.375000e+01
4.375000e+01
4.375000e+01
4.375000e+01
4.375000e+01
4.375000e+01
4.375000e+01
4.375000e+01
4.375000e+01
4.375000e+01
4.375000e+01
4.375000e+01
4.375000e+01
4.375000e+01
4.375000e+01
4.375000e+01
4.375000e+01
4.375000e+01
5.000000e+01
5.000000e+01
5.000000e+01
5.000000e+01
5.000000e+01
5.000000e+01
5.000000e+01
5.000000e+01
5.000000e+01
5.000000e+01
5.000000e+01
5.000000e+01
5.000000e+01
5.000000e+01
5.000000e+01
5.000000e+01
5.000000e+01
5.000000e+01
5.000000e+01
5.000000e+01
5.000000e+01
5.000000e+01
5.000000e+01
5.000000e+01
5.000000e+01
5.000000e+01
5.000000e+01
5.000000e+01
5.000000e+01
5.000000e+01
5.000000e+01
5.000000e+01
5.000000e+01
5.625000e+01
5.625000e+01
5.625000e+01
5.625000e+01
5.625000e+01
5.625000e+01
5.625000e+01
5.625000e+01
5.625000e+01
5.625000e+01
5.625000e+01
5.625000e+01
5.625000e+01
5.625000e+01
5.625000e+01
5.625000e+01
5.625000e+01
5.625000e+01
5.625000e+01
5.625000e+01
5.625000e+01
5.625000e+01
5.625000e+01
5.625000e+01
5.625000e+01
5.625000e+01
5.625000e+01
5.625000e+01
5.625000e+01
5.625000e+01
5.625000e+01
5.625000e+01
5.625000e+01
6.250000e+01
6.250000e+01
6.250000e+01
6.250000e+01
6.250000e+01
6.250000e+01
6.250000e+01
6.250000e+01
6.250000e+01
6.250000e+01
6.250000e+01
6.250000e+01
6.250000e+01
6.250000e+01
6.250000e+01
6.250000e+01
6.250000e+01
6.250000e+01
6.250000e+01
6.250000e+01
6.250000e+01
6.250000e+01
6.250000e+01
6.250000e+01
6.250000e+01
6.250000e+01
6.250000e+01
6.250000e+01
6.250000e+01
6.250000e+01
6.250000e+01
6.250000e+01
6.250000e+01
6.875000e+01
6.875000e+01
6.875000e+01
6.875000e+01
6.875000e+01
6.875000e+01
6.875000e+01
6.875000e+01
6.875000e+01
6.875000e+01
6.875000e+01
6.875000e+01
6.875000e+01
6.875000e+01
6.875000e+01
6.875000e+01
6.875000e+01
6.875000e+01
6.875000e+01
6.875000e+01
6.875000e+01
6.875000e+01
6.875000e+01
6.875000e+01
6.875000e+01
6.875000e+01
6.875000e+01
6.875000e+01
6.875000e+01
6.875000e+01
6.875000e+01
6.875000e+01
6.875000e+01
7.500000e+01
7.500000e+01
7.500000e+01
7.500000e+01
7.500000e+01
7.500000e+01
7.500000e+01
7.500000e+01
7.500000e+01
7.500000e+01
7.500000e+01
7.500000e+01
7.500000e+01
7.500000e+01
7.500000e+01
7.500000e+01
7.500000e+01
7.500000e+01
7.500000e+01
7.500000e+01
7.500000e+01
7.500000e+01
7.500000e+01
7.500000e+01
7.500000e+01
7.500000e+01
7.500000e+01
7.500000e+01
7.500000e+01
7.500000e+01
7.500000e+01
7.500000e+01
7.500000e+01
8.125000e+01
8.125000e+01
8.125000e+01
8.125000e+01
8.125000e+01
8.125000e+01
8.125000e+01
8.125000e+01
8.125000e+01
8.125000e+01
8.125000e+01
8.125000e+01
8.125000e+01
8.125000e+01
8.125000e+01
8.125000e+01
8.125000e+01
8.125000e+01
8.125000e+01
8.125000e+01
8.125000e+01
8.125000e+01
8.125000e+01
8.125000e+01
8.125000e+01
8.125000e+01
8.125000e+01
8.125000e+01
8.125000e+01
8.125000e+01
8.125000e+01
8.125000e+01
8.125000e+01
8.750000e+01
8.750000e+01
8.750000e+01
8.750000e+01
8.750000e+01
8.750000e+01
8.750000e+01
8.750000e+01
8.750000e+01
8.750000e+01
8.750000e+01
8.750000e+01
8.750000e+01
8.750000e+01
8.750000e+01
8.750000e+01
8.750000e+01
8.750000e+01
8.750000e+01
8.750000e+01
8.750000e+01
8.750000e+01
8.750000e+01
8.750000e+01
8.750000e+01
8.750000e+01
8.750000e+01
8.750000e+01
8.750000e+01
8.750000e+01
8.750000e+01
8.750000e+01
8.750000e+01
9.375000e+01
9.375000e+01
9.375000e+01
9.375000e+01
9.375000e+01
9.375000e+01
9.375000e+01
9.375000e+01
9.375000e+01
9.375000e+01
9.375000e+01
9.375000e+01
9.375000e+01
9.375000e+01
9.375000e+01
9.375000e+01
9.375000e+01
9.375000e+01
9.375000e+01
9.375000e+01
9.375000e+01
9.375000e+01
9.375000e+01
9.375000e+01
9.375000e+01
9.375000e+01
9.375000e+01
9.375000e+01
9.375000e+01
9.375000e+01
9.375000e+01
9.375000e+01
9.375000e+01
1.000000e+02
1.000000e+02
1.000000e+02
1.000000e+02
1.000000e+02
1.000000e+02
1.000000e+02
1.000000e+02
1.000000e+02
1.000000e+02
1.000000e+02
1.000000e+02
1.000000e+02
1.000000e+02
1.000000e+02
1.000000e+02
1.000000e+02
1.000000e+02
1.000000e+02
1.000000e+02
1.000000e+02
1.000000e+02
1.000000e+02
1.000000e+02
1.000000e+02
1.000000e+02
1.000000e+02
1.000000e+02
1.000000e+02
1.000000e+02
1.000000e+02
1.000000e+02
1.000000e+02
0.000000e+00
-1.062764e-01
-1.928229e-01
-2.729987e-01
-3.499505e-01
-4.242638e-01
-4.960864e-01
-5.654113e-01
-6.321943e-01
-6.963864e-01
-7.579469e-01
-8.168478e-01
-8.730744e-01
-9.266252e-01
-9.775125e-01
-1.025763e+00
-1.071420e+00
-1.114545e+00
-1.155225e+00
-1.193578e+00
-1.229759e+00
-1.263975e+00
-1.296497e+00
-1.327687e+00
-1.358030e+00
-1.388184e+00
-1.419064e+00
-1.451973e+00
-1.488824e+00
-1.532431e+00
-1.586445e+00
-1.650811e+00
-1.690092e+00
0.000000e+00
-7.125343e-02
-1.482495e-01
-2.208492e-01
-2.898578e-01
-3.559313e-01
-4.194172e-01
-4.804679e-01
-5.391433e-01
-5.954630e-01
-6.494303e-01
-7.010449e-01
-7.503089e-01
-7.972302e-01
-8.418239e-01
-8.841148e-01
-9.241388e-01
-9.619449e-01
-9.975988e-01
-1.031185e+00
-1.062813e+00
-1.092618e+00
-1.120772e+00
-1.147480e+00
-1.172992e+00
-1.197593e+00
-1.221584e+00
-1.245214e+00
-1.268481e+00
-1.290627e+00
-1.309081e+00
-1.319869e+00
-1.334887e+00
0.000000e+00
-5.651716e-02
-1.163542e-01
-1.772802e-01
-2.364857e-01
-2.935131e-01
-3.483252e-01
-4.009731e-01
-4.515029e-01
-4.999461e-01
-5.463228e-01
-5.906473e-01
-6.329314e-01
-6.731876e-01
-7.114305e-01
-7.476784e-01
-7.819549e-01
-8.142893e-01
-8.447179e-01
-8.732840e-01
-9.000374e-01
-9.250323e-01
-9.483219e-01
-9.699475e-01
-9.899174e-01
-1.008168e+00
-1.024490e+00
-1.038403e+00
-1.048967e+00
-1.054656e+00
-1.054158e+00
-1.050965e+00
-1.068503e+00
0.000000e+00
-4.484133e-02
-9.215935e-02
-1.407746e-01
-1.892789e-01
-2.366112e-01
-2.823657e-01
-3.263966e-01
-3.686640e-01
-4.091660e-01
-4.479126e-01
-4.849165e-01
-5.201900e-01
-5.537439e-01
-5.855880e-01
-6.157311e-01
-6.441814e-01
-6.709461e-01
-6.960305e-01
-7.194361e-01
-7.411567e-01
-7.611725e-01
-7.794391e-01
-7.958713e-01
-8.103176e-01
-8.225228e-01
-8.320831e-01
-8.384144e-01
-8.408322e-01
-8.390385e-01
-8.346810e-01
-8.344210e-01
-8.511300e-01
0.000000e+00
-3.480362e-02
-7.126611e-02
-1.088946e-01
-1.468307e-01
-1.843034e-01
-2.207957e-01
-2.560456e-01
-2.899337e-01
-3.224140e-01
-3.534741e-01
-3.831156e-01
-4.113438e-01
-4.381632e-01
-4.635755e-01
-4.875782e-01
-5.101639e-01
-5.313188e-01
-5.510209e-01
-5.692372e-01
-5.859188e-01
-6.009942e-01
-6.143603e-01
-6.258704e-01
-6.353209e-01
-6.424445e-01
-6.469274e-01
-6.485001e-01
-6.472105e-01
-6.440543e-01
-6.420066e-01
-6.467350e-01
-6.609892e-01
0.000000e+00
-2.557901e-02
-5.225407e-02
-7.978684e-02
-1.077020e-01
-1.354787e-01
-1.627032e-01
-1.891065e-01
-2.145408e-01
-2.389342e-01
-2.622562e-01
-2.844959e-01
-3.056494e-01
-3.257127e-01
-3.446782e-01
-3.625322e-01
-3.792536e-01
-3.948115e-01
-4.091640e-01
-4.222549e-01
-4.340102e-01
-4.443348e-01
-4.531080e-01
-4.601825e-01
-4.653905e-01
-4.685684e-01
-4.696228e-01
-4.686769e-01
-4.663451e-01
-4.641264e-01
-4.646663e-01
-4.706943e-01
-4.824892e-01
0.000000e+00
-1.683425e-02
-3.433449e-02
-5.239030e-02
-7.074443e-02
-8.908808e-02
-1.071447e-01
-1.247125e-01
-1.416653e-01
-1.579334e-01
-1.734813e-01
-1.882913e-01
-2.023520e-01
-2.156515e-01
-2.281737e-01
-2.398957e-01
-2.507857e-01
-2.608018e-01
-2.698904e-01
-2.779843e-01
-2.850024e-01
-2.908492e-01
-2.954187e-01
-2.986030e-01
-3.003140e-01
-3.005263e-01
-2.993566e-01
-2.971919e-01
-2.948560e-01
-2.937235e-01
-2.954898e-01
-3.013588e-01
-3.108802e-01
0.000000e+00
-8.361627e-03
-1.703945e-02
-2.598897e-02
-3.509727e-02
-4.422053e-02
-5.322213e-02
-6.199516e-02
-7.046732e-02
-7.859442e-02
-8.635026e-02
-9.371748e-02
-1.006809e-01
-1.072233e-01
-1.133222e-01
-1.189485e-01
-1.240641e-01
-1.286221e-01
-1.325649e-01
-1.358255e-01
-1.383285e-01
-1.399945e-01
-1.407493e-01
-1.405394e-01
-1.393607e-01
-1.373032e-01
-1.346158e-01
-1.317841e-01
-1.295858e-01
-1.290350e-01
-1.311074e-01
-1.362275e-01
-1.437826e-01
0.000000e+00
-1.350685e-05
-2.928474e-05
-4.645997e-05
-6.412939e-05
-8.107544e-05
-9.546327e-05
-1.045047e-04
-1.040652e-04
-8.819149e-05
-4.854032e-05
2.630009e-05
1.515959e-04
3.473433e-04
6.391915e-04
1.059334e-03
1.647228e-03
2.449925e-03
3.521648e-03
4.922089e-03
6.712623e-03
8.949268e-03
1.167083e-02
1.488025e-02
1.851743e-02
2.242305e-02
2.629810e-02
2.967423e-02
3.192802e-02
3.238521e-02
3.054514e-02
2.637774e-02
2.054100e-02
0.000000e+00
8.336186e-03
1.698417e-02
2.590110e-02
3.497570e-02
4.406639e-02
5.303997e-02
6.179470e-02
7.026601e-02
7.842084e-02
8.624861e-02
9.375339e-02
1.009487e-01
1.078550e-01
1.144982e-01
1.209100e-01
1.271272e-01
1.331922e-01
1.391511e-01
1.450515e-01
1.509376e-01
1.568417e-01
1.627722e-01
1.686962e-01
1.745174e-01
1.800521e-01
1.850107e-01
1.889989e-01
1.915615e-01
1.922870e-01
1.909732e-01
1.878074e-01
1.834754e-01
0.000000e+00
1.681346e-02
3.428901e-02
5.231750e-02
7.064292e-02
8.895818e-02
1.069893e-01
1.245388e-01
1.414866e-01
1.577716e-01
1.733714e-01
1.882854e-01
2.025255e-01
2.161110e-01
2.290654e-01
2.414165e-01
2.531949e-01
2.644344e-01
2.751697e-01
2.854340e-01
2.952540e-01
3.046421e-01
3.135855e-01
3.220325e-01
3.298770e-01
3.369451e-01
3.429909e-01
3.477129e-01
3.508036e-01
3.520394e-01
3.514040e-01
3.492134e-01
3.461899e-01
0.000000e+00
2.556574e-02
5.222451e-02
7.973871e-02
1.076337e-01
1.353895e-01
1.625941e-01
1.889809e-01
2.144060e-01
2.388031e-01
2.621497e-01
2.844460e-01
3.057035e-01
3.259384e-01
3.451697e-01
3.634177e-01
3.807039e-01
3.970501e-01
4.124772e-01
4.270030e-01
4.406377e-01
4.533779e-01
4.651991e-01
4.760455e-01
4.858211e-01
4.943840e-01
5.015496e-01
5.071108e-01
5.108822e-01
5.127720e-01
5.128783e-01
5.115933e-01
5.096824e-01
0.000000e+00
3.480031e-02
7.125783e-02
1.088798e-01
1.468078e-01
1.842712e-01
2.207534e-01
2.559930e-01
2.898719e-01
3.223457e-01
3.534047e-01
3.830539e-01
4.113039e-01
4.381663e-01
4.636523e-01
4.877721e-01
5.105347e-01
5.319475e-01
5.520156e-01
5.707399e-01
5.881147e-01
6.041240e-01
6.187369e-01
6.319030e-01
6.435482e-01
6.535748e-01
6.618680e-01
6.683134e-01
6.728305e-01
6.754257e-01
6.762675e-01
6.757850e-01
6.747783e-01
0.000000e+00
4.484964e-02
9.217625e-02
1.407997e-01
1.893116e-01
2.366505e-01
2.824102e-01
3.264440e-01
3.687109e-01
4.092065e-01
4.479379e-01
4.849138e-01
5.201408e-01
5.536226e-01
5.853597e-01
6.153494e-01
6.435858e-01
6.700597e-01
6.947578e-01
7.176627e-01
7.387511e-01
7.579936e-01
7.753535e-01
7.907872e-01
8.042453e-01
8.156773e-01
8.250405e-01
8.323137e-01
8.375190e-01
8.407540e-01
8.422419e-01
8.424194e-01
8.420854e-01
0.000000e+00
5.653749e-02
1.163976e-01
1.773481e-01
2.365795e-01
2.936339e-01
3.484731e-01
4.011465e-01
4.516969e-01
5.001506e-01
5.465203e-01
5.908094e-01
6.330147e-01
6.731279e-01
7.111362e-01
7.470224e-01
7.807641e-01
8.123337e-01
8.416976e-01
8.688168e-01
8.936465e-01
9.161386e-01
9.362439e-01
9.539175e-01
9.691259e-01
9.818574e-01
9.921349e-01
1.000031e+00
1.005682e+00
1.009302e+00
1.011196e+00
1.011813e+00
1.011887e+00
0.000000e+00
7.128395e-02
1.483162e-01
2.209564e-01
2.900109e-01
3.561355e-01
4.196770e-01
4.807856e-01
5.395179e-01
5.958869e-01
6.498859e-01
7.014997e-01
7.507088e-01
7.974900e-01
8.418168e-01
8.836574e-01
9.229734e-01
9.597185e-01
9.938373e-01
1.025265e+00
1.053930e+00
1.079754e+00
1.102662e+00
1.122586e+00
1.139487e+00
1.153365e+00
1.164286e+00
1.172402e+00
1.177978e+00
1.181394e+00
1.183140e+00
1.183772e+00
1.183928e+00
0.000000e+00
1.063098e-01
1.929009e-01
2.731323e-01
3.501505e-01
4.245410e-01
4.964522e-01
5.658765e-01
6.327673e-01
6.970706e-01
7.587366e-01
8.177221e-01
8.739888e-01
9.275004e-01
9.782196e-01
1.026103e+00
1.071101e+00
1.113150e+00
1.152172e+00
1.188076e+00
1.220753e+00
1.250082e+00
1.275939e+00
1.298203e+00
1.316784e+00
1.331644e+00
1.342836e+00
1.350546e+00
1.355141e+00
1.357211e+00
1.357588e+00
1.357276e+00
1.357101e+00
0.000000e+00
-6.567705e-02
-1.146242e-01
-1.680406e-01
-2.275244e-01
-2.947175e-01
-3.700869e-01
-4.537638e-01
-5.456651e-01
-6.455941e-01
-7.532862e-01
-8.684367e-01
-9.907173e-01
-1.119786e+00
-1.255293e+00
-1.396888e+00
-1.544222e+00
-1.696950e+00
-1.854741e+00
-2.017283e+00
-2.184292e+00
-2.355531e+00
-2.530830e+00
-2.710121e+00
-2.893493e+00
-3.081286e+00
-3.274247e+00
-3.473832e+00
-3.682828e+00
-3.906752e+00
-4.157506e+00
-4.463176e+00
-4.885465e+00
0.000000e+00
-4.081606e-02
-9.205079e-02
-1.458262e-01
-2.061375e-01
-2.740594e-01
-3.501602e-01
-4.345687e-01
-5.272091e-01
-6.278846e-01
-7.363290e-01
-8.522352e-01
-9.752720e-01
-1.105095e+00
-1.241351e+00
-1.383685e+00
-1.531744e+00
-1.685180e+00
-1.843653e+00
-2.006845e+00
-2.174461e+00
-2.346253e+00
-2.522033e+00
-2.701715e+00
-2.885365e+00
-3.073290e+00
-3.266198e+00
-3.465502e+00
-3.673928e+00
-3.896901e+00
-4.145720e+00
-4.444585e+00
-4.839111e+00
0.000000e+00
-2.998212e-02
-7.421201e-02
-1.272532e-01
-1.876687e-01
-2.560900e-01
-3.327905e-01
-4.178417e-01
-5.111413e-01
-6.124833e-01
-7.215969e-01
-8.381727e-01
-9.618779e-01
-1.092366e+00
-1.229285e+00
-1.372276e+00
-1.520986e+00
-1.675062e+00
-1.834166e+00
-1.997974e+00
-2.166191e+00
-2.338565e+00
-2.514908e+00
-2.695138e+00
-2.879326e+00
-3.067799e+00
-3.261295e+00
-3.461262e+00
-3.670395e+00
-3.893579e+00
-4.139160e+00
-4.417000e+00
-4.725204e+00
0.000000e+00
-2.400927e-02
-6.284379e-02
-1.130563e-01
-1.726946e-01
-2.410938e-01
-3.181217e-01
-4.036486e-01
-4.974907e-01
-5.994038e-01
-7.091000e-01
-8.262622e-01
-9.505548e-01
-1.081631e+00
-1.219137e+00
-1.362719e+00
-1.512020e+00
-1.666694e+00
-1.826400e+00
-1.990819e+00
-2.159659e+00
-2.332674e+00
-2.509687e+00
-2.690627e+00
-2.875585e+00
-3.064902e+00
-3.259311e+00
-3.460143e+00
-3.669606e+00
-3.890918e+00
-4.127161e+00
-4.376322e+00
-4.608264e+00
0.000000e+00
-2.031688e-02
-5.540977e-02
-1.029751e-01
-1.612536e-01
-2.292038e-01
-3.062600e-01
-3.920642e-01
-4.863068e-01
-5.886796e-01
-6.988630e-01
-8.165250e-01
-9.413239e-01
-1.072912e+00
-1.210937e+00
-1.355046e+00
-1.504889e+00
-1.660120e+00
-1.820405e+00
-1.985430e+00
-2.154909e+00
-2.328604e+00
-2.506346e+00
-2.688067e+00
-2.873852e+00
-3.064001e+00
-3.259110e+00
-3.460139e+00
-3.668357e+00
-3.884786e+00
-4.108392e+00
-4.330964e+00
-4.532959e+00
0.000000e+00
-1.796742e-02
-5.053226e-02
-9.603797e-02
-1.530044e-01
-2.203177e-01
-2.972059e-01
-3.831194e-01
-4.776255e-01
-5.803430e-01
-6.909123e-01
-8.089820e-01
-9.342023e-01
-1.066223e+00
-1.204695e+00
-1.349268e+00
-1.499596e+00
-1.655340e+00
-1.816169e+00
-1.981776e+00
-2.151878e+00
-2.326238e+00
-2.504682e+00
-2.687124e+00
-2.873595e+00
-3.064276e+00
-3.259503e+00
-3.459697e+00
-3.665090e+00
-3.874989e+00
-4.086197e+00
-4.291164e+00
-4.478500e+00
0.000000e+00
-1.650724e-02
-4.744850e-02
-9.152874e-02
-1.474781e-01
-2.142112e-01
-2.908708e-01
-3.767948e-01
-4.714564e-01
-5.744124e-01
-6.852663e-01
-8.036475e-01
-9.291984e-01
-1.061567e+00
-1.200407e+00
-1.345371e+00
-1.496118e+00
-1.652313e+00
-1.813631e+00
-1.979764e+00
-2.150429e+00
-2.325379e+00
-2.504416e+00
-2.687405e+00
-2.874283e+00
-3.065052e+00
-3.259732e+00
-3.458208e+00
-3.659911e+00
-3.863195e+00
-4.064546e+00
-4.258155e+00
-4.436909e+00
0.000000e+00
-1.570483e-02
-4.573739e-02
-8.898772e-02
-1.443094e-01
-2.106542e-01
-2.871378e-01
-3.730427e-01
-4.677885e-01
-5.708919e-01
-6.819322e-01
-8.005259e-01
-9.263104e-01
-1.058934e+00
-1.198052e+00
-1.343321e+00
-1.494406e+00
-1.650973e+00
-1.812698e+00
-1.979271e+00
-2.150397e+00
-2.325810e+00
-2.505269e+00
-2.688567e+00
-2.875522e+00
-3.065939e+00
-3.259540e+00
-3.455796e+00
-3.653659e+00
-3.851184e+00
-4.045196e+00
-4.231329e+00
-4.404727e+00
0.000000e+00
-1.544630e-02
-4.518534e-02
-8.816416e-02
-1.432766e-01
-2.094901e-01
-2.859150e-01
-3.718185e-01
-4.666041e-01
-5.697765e-01
-6.809078e-01
-7.996119e-01
-9.255266e-01
-1.058303e+00
-1.197598e+00
-1.343075e+00
-1.494398e+00
-1.651237e+00
-1.813264e+00
-1.980161e+00
-2.151617e+00
-2.327331e+00
-2.507013e+00
-2.690370e+00
-2.877095e+00
-3.066816e+00
-3.259016e+00
-3.452904e+00
-3.647227e+00
-3.840071e+00
-4.028750e+00
-4.209934e+00
-4.380063e+00
0.000000e+00
-1.569735e-02
-4.572701e-02
-8.897878e-02
-1.443067e-01
-2.106637e-01
-2.871673e-01
-3.731026e-01
-4.678927e-01
-5.710583e-01
-6.821841e-01
-8.008925e-01
-9.268277e-01
-1.059646e+00
-1.199008e+00
-1.344581e+00
-1.496029e+00
-1.653022e+00
-1.815227e+00
-1.982312e+00
-2.153944e+00
-2.329787e+00
-2.509490e+00
-2.692681e+00
-2.878936e+00
-3.067737e+00
-3.258408e+00
-3.450020e+00
-3.641282e+00
-3.830452e+00
-4.015317e+00
-4.193299e+00
-4.361681e+00
0.000000e+00
-1.649288e-02
-4.742858e-02
-9.151151e-02
-1.474727e-01
-2.142290e-01
-2.909268e-01
-3.769091e-01
-4.716554e-01
-5.747307e-01
-6.857484e-01
-8.043497e-01
-9.301899e-01
-1.062932e+00
-1.202242e+00
-1.347788e+00
-1.499236e+00
-1.656251e+00
-1.818494e+00
-1.985618e+00
-2.157267e+00
-2.333066e+00
-2.512610e+00
-2.695451e+00
-2.881070e+00
-3.068844e+00
-3.257997e+00
-3.447547e+00
-3.636256e+00
-3.822598e+00
-4.004782e+00
-4.180822e+00
-4.348632e+00
0.000000e+00
-1.794747e-02
-5.050456e-02
-9.601390e-02
-1.529966e-01
-2.203421e-01
-2.972835e-01
-3.832782e-01
-4.779026e-01
-5.807868e-01
-6.915852e-01
-8.099627e-01
-9.355880e-01
-1.068131e+00
-1.207263e+00
-1.352652e+00
-1.503964e+00
-1.660861e+00
-1.822994e+00
-1.990003e+00
-2.161509e+00
-2.337101e+00
-2.516329e+00
-2.698681e+00
-2.883568e+00
-3.070292e+00
-3.258023e+00
-3.445776e+00
-3.632397e+00
-3.816583e+00
-3.996917e+00
-4.171923e+00
-4.340078e+00
0.000000e+00
-2.029337e-02
-5.537716e-02
-1.029468e-01
-1.612446e-01
-2.292333e-01
-3.063536e-01
-3.922558e-01
-4.866412e-01
-5.892157e-01
-6.996762e-01
-8.177106e-01
-9.429998e-01
-1.075220e+00
-1.214045e+00
-1.359142e+00
-1.510178e+00
-1.666809e+00
-1.828680e+00
-1.995417e+00
-2.166622e+00
-2.341858e+00
-2.520635e+00
-2.702397e+00
-2.886503e+00
-3.072209e+00
-3.258659e+00
-3.444882e+00
-3.629818e+00
-3.812361e+00
-3.991428e+00
-4.166013e+00
-4.335183e+00
0.000000e+00
-2.398510e-02
-6.281031e-02
-1.130274e-01
-1.726869e-01
-2.411285e-01
-3.182272e-01
-4.038625e-01
-4.978627e-01
-5.999988e-01
-7.100014e-01
-8.275752e-01
-9.524093e-01
-1.084183e+00
-1.222572e+00
-1.367243e+00
-1.517860e+00
-1.674076e+00
-1.835530e+00
-2.001840e+00
-2.172591e+00
-2.347326e+00
-2.525533e+00
-2.706623e+00
-2.889925e+00
-3.074669e+00
-3.259986e+00
-3.444930e+00
-3.628517e+00
-3.809801e+00
-3.987976e+00
-4.162485e+00
-4.333049e+00
0.000000e+00
-2.996105e-02
-7.418268e-02
-1.272288e-01
-1.876664e-01
-2.561322e-01
-3.329070e-01
-4.180717e-01
-5.115366e-01
-6.131110e-01
-7.225433e-01
-8.395461e-01
-9.638120e-01
-1.095022e+00
-1.232849e+00
-1.376961e+00
-1.527019e+00
-1.682673e+00
-1.843557e+00
-2.009283e+00
-2.179427e+00
-2.353521e+00
-2.531038e+00
-2.711375e+00
-2.893846e+00
-3.077670e+00
-3.261983e+00
-3.445860e+00
-3.628371e+00
-3.808680e+00
-3.986186e+00
-4.160712e+00
-4.332676e+00
0.000000e+00
-4.080252e-02
-9.203083e-02
-1.458119e-01
-2.061464e-01
-2.741144e-01
-3.502914e-01
-4.348155e-01
-5.276231e-01
-6.285325e-01
-7.372957e-01
-8.536270e-01
-9.772191e-01
-1.107752e+00
-1.244899e+00
-1.388326e+00
-1.537691e+00
-1.692641e+00
-1.852807e+00
-2.017796e+00
-2.187180e+00
-2.360485e+00
-2.537181e+00
-2.716660e+00
-2.898236e+00
-3.081135e+00
-3.264507e+00
-3.447451e+00
-3.629081e+00
-3.808627e+00
-3.985604e+00
-4.160071e+00
-4.332993e+00
0.000000e+00
-6.567511e-02
-1.146175e-01
-1.680419e-01
-2.275512e-01
-2.947930e-01
-3.702411e-01
-4.540358e-01
-5.461054e-01
-6.462675e-01
-7.542744e-01
-8.698411e-01
-9.926604e-01
-1.122412e+00
-1.258769e+00
-1.401393e+00
-1.549941e+00
-1.704057e+00
-1.863367e+00
-2.027474e+00
-2.195947e+00
-2.368309e+00
-2.544028e+00