TITLE = "Solution"
VARIABLES = x, y, u, v, psiu, psiv, t, stress
ZONE T="structure" N=561 E=512 F=FEBLOCK ET=QUADRILATERAL VARLOCATION=([7,8]=cellcentered)
0.000000e+00
6.250000e+00
1.250000e+01
1.875000e+01
2.500000e+01
3.125000e+01
3.750000e+01
4.375000e+01
5.000000e+01
5.625000e+01
6.250000e+01
6.875000e+01
7.500000e+01
8.125000e+01
8.750000e+01
9.375000e+01
1.000000e+02
1.062500e+02
1.125000e+02
1.187500e+02
1.250000e+02
1.312500e+02
1.375000e+02
1.437500e+02
1.500000e+02
1.562500e+02
1.625000e+02
1.687500e+02
1.750000e+02
1.812500e+02
1.875000e+02
1.937500e+02
2.000000e+02
0.000000e+00
6.250000e+00
1.250000e+01
1.875000e+01
2.500000e+01
3.125000e+01
3.750000e+01
4.375000e+01
5.000000e+01
5.625000e+01
6.250000e+01
6.875000e+01
7.500000e+01
8.125000e+01
8.750000e+01
9.375000e+01
1.000000e+02
1.062500e+02
1.125000e+02
1.187500e+02
1.250000e+02
1.312500e+02
1.375000e+02
1.437500e+02
1.500000e+02
1.562500e+02
1.625000e+02
1.687500e+02
1.750000e+02
1.812500e+02
1.875000e+02
1.937500e+02
2.000000e+02
0.000000e+00
6.250000e+00
1.250000e+01
1.875000e+01
2.500000e+01
3.125000e+01
3.750000e+01
4.375000e+01
5.000000e+01
5.625000e+01
6.250000e+01
6.875000e+01
7.500000e+01
8.125000e+01
8.750000e+01
9.375000e+01
1.000000e+02
1.062500e+02
1.125000e+02
1.187500e+02
1.250000e+02
1.312500e+02
1.375000e+02
1.437500e+02
1.500000e+02
1.562500e+02
1.625000e+02
1.687500e+02
1.750000e+02
1.812500e+02
1.875000e+02
1.937500e+02
2.000000e+02
0.000000e+00
6.250000e+00
1.250000e+01
1.875000e+01
2.500000e+01
3.125000e+01
3.750000e+01
4.375000e+01
5.000000e+01
5.625000e+01
6.250000e+01
6.875000e+01
7.500000e+01
8.125000e+01
8.750000e+01
9.375000e+01
1.000000e+02
1.062500e+02
1.125000e+02
1.187500e+02
1.250000e+02
1.312500e+02
1.375000e+02
1.437500e+02
1.500000e+02
1.562500e+02
1.625000e+02
1.687500e+02
1.750000e+02
1.812500e+02
1.875000e+02
1.937500e+02
2.000000e+02
0.000000e+00
6.250000e+00
1.250000e+01
1.875000e+01
2.500000e+01
3.125000e+01
3.750000e+01
4.375000e+01
5.000000e+01
5.625000e+01
6.250000e+01
6.875000e+01
7.500000e+01
8.125000e+01
8.750000e+01
9.375000e+01
1.000000e+02
1.062500e+02
1.125000e+02
1.187500e+02
1.250000e+02
1.312500e+02
1.375000e+02
1.437500e+02
1.500000e+02
1.562500e+02
1.625000e+02
1.687500e+02
1.750000e+02
1.812500e+02
1.875000e+02
1.937500e+02
2.000000e+02
0.000000e+00
6.250000e+00
1.250000e+01
1.875000e+01
2.500000e+01
3.125000e+01
3.750000e+01
4.375000e+01
5.000000e+01
5.625000e+01
6.250000e+01
6.875000e+01
7.500000e+01
8.125000e+01
8.750000e+01
9.375000e+01
1.000000e+02
1.062500e+02
1.125000e+02
1.187500e+02
1.250000e+02
1.312500e+02
1.375000e+02
1.437500e+02
1.500000e+02
1.562500e+02
1.625000e+02
1.687500e+02
1.750000e+02
1.812500e+02
1.875000e+02
1.937500e+02
2.000000e+02
0.000000e+00
6.250000e+00
1.250000e+01
1.875000e+01
2.500000e+01
3.125000e+01
3.750000e+01
4.375000e+01
5.000000e+01
5.625000e+01
6.250000e+01
6.875000e+01
7.500000e+01
8.125000e+01
8.750000e+01
9.375000e+01
1.000000e+02
1.062500e+02
1.125000e+02
1.187500e+02
1.250000e+02
1.312500e+02
1.375000e+02
1.437500e+02
1.500000e+02
1.562500e+02
1.625000e+02
1.687500e+02
1.750000e+02
1.812500e+02
1.875000e+02
1.937500e+02
2.000000e+02
0.000000e+00
6.250000e+00
1.250000e+01
1.875000e+01
2.500000e+01
3.125000e+01
3.750000e+01
4.375000e+01
5.000000e+01
5.625000e+01
6.250000e+01
6.875000e+01
7.500000e+01
8.125000e+01
8.750000e+01
9.375000e+01
1.000000e+02
1.062500e+02
1.125000e+02
1.187500e+02
1.250000e+02
1.312500e+02
1.375000e+02
1.437500e+02
1.500000e+02
1.562500e+02
1.625000e+02
1.687500e+02
1.750000e+02
1.812500e+02
1.875000e+02
1.937500e+02
2.000000e+02
0.000000e+00
6.250000e+00
1.250000e+01
1.875000e+01
2.500000e+01
3.125000e+01
3.750000e+01
4.375000e+01
5.000000e+01
5.625000e+01
6.250000e+01
6.875000e+01
7.500000e+01
8.125000e+01
8.750000e+01
9.375000e+01
1.000000e+02
1.062500e+02
1.125000e+02
1.187500e+02
1.250000e+02
1.312500e+02
1.375000e+02
1.437500e+02
1.500000e+02
1.562500e+02
1.625000e+02
1.687500e+02
1.750000e+02
1.812500e+02
1.875000e+02
1.937500e+02
2.000000e+02
0.000000e+00
6.250000e+00
1.250000e+01
1.875000e+01
2.500000e+01
3.125000e+01
3.750000e+01
4.375000e+01
5.000000e+01
5.625000e+01
6.250000e+01
6.875000e+01
7.500000e+01
8.125000e+01
8.750000e+01
9.375000e+01
1.000000e+02
1.062500e+02
1.125000e+02
1.187500e+02
1.250000e+02
1.312500e+02
1.375000e+02
1.437500e+02
1.500000e+02
1.562500e+02
1.625000e+02
1.687500e+02
1.750000e+02
1.812500e+02
1.875000e+02
1.937500e+02
2.000000e+02
0.000000e+00
6.250000e+00
1.250000e+01
1.875000e+01
2.500000e+01
3.125000e+01
3.750000e+01
4.375000e+01
5.000000e+01
5.625000e+01
6.250000e+01
6.875000e+01
7.500000e+01
8.125000e+01
8.750000e+01
9.375000e+01
1.000000e+02
1.062500e+02
1.125000e+02
1.187500e+02
1.250000e+02
1.312500e+02
1.375000e+02
1.437500e+02
1.500000e+02
1.562500e+02
1.625000e+02
1.687500e+02
1.750000e+02
1.812500e+02
1.875000e+02
1.937500e+02
2.000000e+02
0.000000e+00
6.250000e+00
1.250000e+01
1.875000e+01
2.500000e+01
3.125000e+01
3.750000e+01
4.375000e+01
5.000000e+01
5.625000e+01
6.250000e+01
6.875000e+01
7.500000e+01
8.125000e+01
8.750000e+01
9.375000e+01
1.000000e+02
1.062500e+02
1.125000e+02
1.187500e+02
1.250000e+02
1.312500e+02
1.375000e+02
1.437500e+02
1.500000e+02
1.562500e+02
1.625000e+02
1.687500e+02
1.750000e+02
1.812500e+02
1.875000e+02
1.937500e+02
2.000000e+02
0.000000e+00
6.250000e+00
1.250000e+01
1.875000e+01
2.500000e+01
3.125000e+01
3.750000e+01
4.375000e+01
5.000000e+01
5.625000e+01
6.250000e+01
6.875000e+01
7.500000e+01
8.125000e+01
8.750000e+01
9.375000e+01
1.000000e+02
1.062500e+02
1.125000e+02
1.187500e+02
1.250000e+02
1.312500e+02
1.375000e+02
1.437500e+02
1.500000e+02
1.562500e+02
1.625000e+02
1.687500e+02
1.750000e+02
1.812500e+02
1.875000e+02
1.937500e+02
2.000000e+02
0.000000e+00
6.250000e+00
1.250000e+01
1.875000e+01
2.500000e+01
3.125000e+01
3.750000e+01
4.375000e+01
5.000000e+01
5.625000e+01
6.250000e+01
6.875000e+01
7.500000e+01
8.125000e+01
8.750000e+01
9.375000e+01
1.000000e+02
1.062500e+02
1.125000e+02
1.187500e+02
1.250000e+02
1.312500e+02
1.375000e+02
1.437500e+02
1.500000e+02
1.562500e+02
1.625000e+02
1.687500e+02
1.750000e+02
1.812500e+02
1.875000e+02
1.937500e+02
2.000000e+02
0.000000e+00
6.250000e+00
1.250000e+01
1.875000e+01
2.500000e+01
3.125000e+01
3.750000e+01
4.375000e+01
5.000000e+01
5.625000e+01
6.250000e+01
6.875000e+01
7.500000e+01
8.125000e+01
8.750000e+01
9.375000e+01
1.000000e+02
1.062500e+02
1.125000e+02
1.187500e+02
1.250000e+02
1.312500e+02
1.375000e+02
1.437500e+02
1.500000e+02
1.562500e+02
1.625000e+02
1.687500e+02
1.750000e+02
1.812500e+02
1.875000e+02
1.937500e+02
2.000000e+02
0.000000e+00
6.250000e+00
1.250000e+01
1.875000e+01
2.500000e+01
3.125000e+01
3.750000e+01
4.375000e+01
5.000000e+01
5.625000e+01
6.250000e+01
6.875000e+01
7.500000e+01
8.125000e+01
8.750000e+01
9.375000e+01
1.000000e+02
1.062500e+02
1.125000e+02
1.187500e+02
1.250000e+02
1.312500e+02
1.375000e+02
1.437500e+02
1.500000e+02
1.562500e+02
1.625000e+02
1.687500e+02
1.750000e+02
1.812500e+02
1.875000e+02
1.937500e+02
2.000000e+02
0.000000e+00
6.250000e+00
1.250000e+01
1.875000e+01
2.500000e+01
3.125000e+01
3.750000e+01
4.375000e+01
5.000000e+01
5.625000e+01
6.250000e+01
6.875000e+01
7.500000e+01
8.125000e+01
8.750000e+01
9.375000e+01
1.000000e+02
1.062500e+02
1.125000e+02
1.187500e+02
1.250000e+02
1.312500e+02
1.375000e+02
1.437500e+02
1.500000e+02
1.562500e+02
1.625000e+02
1.687500e+02
1.750000e+02
1.812500e+02
1.875000e+02
1.937500e+02
2.000000e+02
0.000000e+00
0.000000e+00
0.000000e+00
0.000000e+00
0.000000e+00
0.000000e+00
0.000000e+00
0.000000e+00
0.000000e+00
0.000000e+00
0.000000e+00
0.000000e+00
0.000000e+00
0.000000e+00
0.000000e+00
0.000000e+00
0.000000e+00
0.000000e+00
0.000000e+00
0.000000e+00
0.000000e+00
0.000000e+00
0.000000e+00
0.000000e+00
0.000000e+00
0.000000e+00
0.000000e+00
0.000000e+00
0.000000e+00
0.000000e+00
0.000000e+00
0.000000e+00
0.000000e+00
6.250000e+00
6.250000e+00
6.250000e+00
6.250000e+00
6.250000e+00
6.250000e+00
6.250000e+00
6.250000e+00
6.250000e+00
6.250000e+00
6.250000e+00
6.250000e+00
6.250000e+00
6.250000e+00
6.250000e+00
6.250000e+00
6.250000e+00
6.250000e+00
6.250000e+00
6.250000e+00
6.250000e+00
6.250000e+00
6.250000e+00
6.250000e+00
6.250000e+00
6.250000e+00
6.250000e+00
6.250000e+00
6.250000e+00
6.250000e+00
6.250000e+00
6.250000e+00
6.250000e+00
1.250000e+01
1.250000e+01
1.250000e+01
1.250000e+01
1.250000e+01
1.250000e+01
1.250000e+01
1.250000e+01
1.250000e+01
1.250000e+01
1.250000e+01
1.250000e+01
1.250000e+01
1.250000e+01
1.250000e+01
1.250000e+01
1.250000e+01
1.250000e+01
1.250000e+01
1.250000e+01
1.250000e+01
1.250000e+01
1.250000e+01
1.250000e+01
1.250000e+01
1.250000e+01
1.250000e+01
1.250000e+01
1.250000e+01
1.250000e+01
1.250000e+01
1.250000e+01
1.250000e+01
1.875000e+01
1.875000e+01
1.875000e+01
1.875000e+01
1.875000e+01
1.875000e+01
1.875000e+01
1.875000e+01
1.875000e+01
1.875000e+01
1.875000e+01
1.875000e+01
1.875000e+01
1.875000e+01
1.875000e+01
1.875000e+01
1.875000e+01
1.875000e+01
1.875000e+01
1.875000e+01
1.875000e+01
1.875000e+01
1.875000e+01
1.875000e+01
1.875000e+01
1.875000e+01
1.875000e+01
1.875000e+01
1.875000e+01
1.875000e+01
1.875000e+01
1.875000e+01
1.875000e+01
2.500000e+01
2.500000e+01
2.500000e+01
2.500000e+01
2.500000e+01
2.500000e+01
2.500000e+01
2.500000e+01
2.500000e+01
2.500000e+01
2.500000e+01
2.500000e+01
2.500000e+01
2.500000e+01
2.500000e+01
2.500000e+01
2.500000e+01
2.500000e+01
2.500000e+01
2.500000e+01
2.500000e+01
2.500000e+01
2.500000e+01
2.500000e+01
2.500000e+01
2.500000e+01
2.500000e+01
2.500000e+01
2.500000e+01
2.500000e+01
2.500000e+01
2.500000e+01
2.500000e+01
3.125000e+01
3.125000e+01
3.125000e+01
3.125000e+01
3.125000e+01
3.125000e+01
3.125000e+01
3.125000e+01
3.125000e+01
3.125000e+01
3.125000e+01
3.125000e+01
3.125000e+01
3.125000e+01
3.125000e+01
3.125000e+01
3.125000e+01
3.125000e+01
3.125000e+01
3.125000e+01
3.125000e+01
3.125000e+01
3.125000e+01
3.125000e+01
3.125000e+01
3.125000e+01
3.125000e+01
3.125000e+01
3.125000e+01
3.125000e+01
3.125000e+01
3.125000e+01
3.125000e+01
3.750000e+01
3.750000e+01
3.750000e+01
3.750000e+01
3.750000e+01
3.750000e+01
3.750000e+01
3.750000e+01
3.750000e+01
3.750000e+01
3.750000e+01
3.750000e+01
3.750000e+01
3.750000e+01
3.750000e+01
3.750000e+01
3.750000e+01
3.750000e+01
3.750000e+01
3.750000e+01
3.750000e+01
3.750000e+01
3.750000e+01
3.750000e+01
3.750000e+01
3.750000e+01
3.750000e+01
3.750000e+01
3.750000e+01
3.750000e+01
3.750000e+01
3.750000e+01
3.750000e+01
4.375000e+01
4.375000e+01
4.375000e+01
4.375000e+01
4.375000e+01
4.375000e+01
4.375000e+01
4.375000e+01
4.375000e+01
4.375000e+01
4.375000e+01
4.375000e+01
4.375000e+01
4.375000e+01
4.375000e+01
4.375000e+01
4.375000e+01
4.375000e+01
4.375000e+01
4.375000e+01
4.375000e+01
4.375000e+01
4.375000e+01
4.375000e+01
4.375000e+01
4.375000e+01
4.375000e+01
4.375000e+01
4.375000e+01
4.375000e+01
4.375000e+01
4.375000e+01
4.375000e+01
5.000000e+01
5.000000e+01
5.000000e+01
5.000000e+01
5.000000e+01
5.000000e+01
5.000000e+01
5.000000e+01
5.000000e+01
5.000000e+01
5.000000e+01
5.000000e+01
5.000000e+01
5.000000e+01
5.000000e+01
5.000000e+01
5.000000e+01
5.000000e+01
5.000000e+01
5.000000e+01
5.000000e+01
5.000000e+01
5.000000e+01
5.000000e+01
5.000000e+01
5.000000e+01
5.000000e+01
5.000000e+01
5.000000e+01
5.000000e+01
5.000000e+01
5.000000e+01
5.000000e+01
5.625000e+01
5.625000e+01
5.625000e+01
5.625000e+01
5.625000e+01
5.625000e+01
5.625000e+01
5.625000e+01
5.625000e+01
5.625000e+01
5.625000e+01
5.625000e+01
5.625000e+01
5.625000e+01
5.625000e+01
5.625000e+01
5.625000e+01
5.625000e+01
5.625000e+01
5.625000e+01
5.625000e+01
5.625000e+01
5.625000e+01
5.625000e+01
5.625000e+01
5.625000e+01
5.625000e+01
5.625000e+01
5.625000e+01
5.625000e+01
5.625000e+01
5.625000e+01
5.625000e+01
6.250000e+01
6.250000e+01
6.250000e+01
6.250000e+01
6.250000e+01
6.250000e+01
6.250000e+01
6.250000e+01
6.250000e+01
6.250000e+01
6.250000e+01
6.250000e+01
6.250000e+01
6.250000e+01
6.250000e+01
6.250000e+01
6.250000e+01
6.250000e+01
6.250000e+01
6.250000e+01
6.250000e+01
6.250000e+01
6.250000e+01
6.250000e+01
6.250000e+01
6.250000e+01
6.250000e+01
6.250000e+01
6.250000e+01
6.250000e+01
6.250000e+01
6.250000e+01
6.250000e+01
6.875000e+01
6.875000e+01
6.875000e+01
6.875000e+01
6.875000e+01
6.875000e+01
6.875000e+01
6.875000e+01
6.875000e+01
6.875000e+01
6.875000e+01
6.875000e+01
6.875000e+01
6.875000e+01
6.875000e+01
6.875000e+01
6.875000e+01
6.875000e+01
6.875000e+01
6.875000e+01
6.875000e+01
6.875000e+01
6.875000e+01
6.875000e+01
6.875000e+01
6.875000e+01
6.875000e+01
6.875000e+01
6.875000e+01
6.875000e+01
6.875000e+01
6.875000e+01
6.875000e+01
7.500000e+01
7.500000e+01
7.500000e+01
7.500000e+01
7.500000e+01
7.500000e+01
7.500000e+01
7.500000e+01
7.500000e+01
7.500000e+01
7.500000e+01
7.500000e+01
7.500000e+01
7.500000e+01
7.500000e+01
7.500000e+01
7.500000e+01
7.500000e+01
7.500000e+01
7.500000e+01
7.500000e+01
7.500000e+01
7.500000e+01
7.500000e+01
7.500000e+01
7.500000e+01
7.500000e+01
7.500000e+01
7.500000e+01
7.500000e+01
7.500000e+01
7.500000e+01
7.500000e+01
8.125000e+01
8.125000e+01
8.125000e+01
8.125000e+01
8.125000e+01
8.125000e+01
8.125000e+01
8.125000e+01
8.125000e+01
8.125000e+01
8.125000e+01
8.125000e+01
8.125000e+01
8.125000e+01
8.125000e+01
8.125000e+01
8.125000e+01
8.125000e+01
8.125000e+01
8.125000e+01
8.125000e+01
8.125000e+01
8.125000e+01
8.125000e+01
8.125000e+01
8.125000e+01
8.125000e+01
8.125000e+01
8.125000e+01
8.125000e+01
8.125000e+01
8.125000e+01
8.125000e+01
8.750000e+01
8.750000e+01
8.750000e+01
8.750000e+01
8.750000e+01
8.750000e+01
8.750000e+01
8.750000e+01
8.750000e+01
8.750000e+01
8.750000e+01
8.750000e+01
8.750000e+01
8.750000e+01
8.750000e+01
8.750000e+01
8.750000e+01
8.750000e+01
8.750000e+01
8.750000e+01
8.750000e+01
8.750000e+01
8.750000e+01
8.750000e+01
8.750000e+01
8.750000e+01
8.750000e+01
8.750000e+01
8.750000e+01
8.750000e+01
8.750000e+01
8.750000e+01
8.750000e+01
9.375000e+01
9.375000e+01
9.375000e+01
9.375000e+01
9.375000e+01
9.375000e+01
9.375000e+01
9.375000e+01
9.375000e+01
9.375000e+01
9.375000e+01
9.375000e+01
9.375000e+01
9.375000e+01
9.375000e+01
9.375000e+01
9.375000e+01
9.375000e+01
9.375000e+01
9.375000e+01
9.375000e+01
9.375000e+01
9.375000e+01
9.375000e+01
9.375000e+01
9.375000e+01
9.375000e+01
9.375000e+01
9.375000e+01
9.375000e+01
9.375000e+01
9.375000e+01
9.375000e+01
1.000000e+02
1.000000e+02
1.000000e+02
1.000000e+02
1.000000e+02
1.000000e+02
1.000000e+02
1.000000e+02
1.000000e+02
1.000000e+02
1.000000e+02
1.000000e+02
1.000000e+02
1.000000e+02
1.000000e+02
1.000000e+02
1.000000e+02
1.000000e+02
1.000000e+02
1.000000e+02
1.000000e+02
1.000000e+02
1.000000e+02
1.000000e+02
1.000000e+02
1.000000e+02
1.000000e+02
1.000000e+02
1.000000e+02
1.000000e+02
1.000000e+02
1.000000e+02
1.000000e+02
0.000000e+00
-6.729529e-02
-1.220983e-01
-1.728656e-01
-2.215883e-01
-2.686375e-01
-3.141079e-01
-3.579953e-01
-4.002721e-01
-4.409074e-01
-4.798758e-01
-5.171598e-01
-5.527501e-01
-5.866461e-01
-6.188556e-01
-6.493957e-01
-6.782937e-01
-7.055892e-01
-7.313372e-01
-7.556119e-01
-7.785117e-01
-8.001673e-01
-8.207512e-01
-8.404922e-01
-8.596970e-01
-8.787824e-01
-8.983269e-01
-9.191561e-01
-9.424806e-01
-9.700823e-01
-1.004272e+00
-1.045018e+00
-1.069884e+00
0.000000e+00
-4.511959e-02
-9.387611e-02
-1.398472e-01
-1.835412e-01
-2.253740e-01
-2.655667e-01
-3.042160e-01
-3.413604e-01
-3.770123e-01
-4.111741e-01
-4.438458e-01
-4.750290e-01
-5.047287e-01
-5.329547e-01
-5.597227e-01
-5.850555e-01
-6.089844e-01
-6.315508e-01
-6.528086e-01
-6.728265e-01
-6.916911e-01
-7.095098e-01
-7.264140e-01
-7.425610e-01
-7.581314e-01
-7.733161e-01
-7.882720e-01
-8.029982e-01
-8.170156e-01
-8.286959e-01
-8.355247e-01
-8.450316e-01
0.000000e+00
-3.578891e-02
-7.368007e-02
-1.122594e-01
-1.497468e-01
-1.858528e-01
-2.205545e-01
-2.538846e-01
-2.858725e-01
-3.165385e-01
-3.458955e-01
-3.739527e-01
-4.007178e-01
-4.261987e-01
-4.504049e-01
-4.733480e-01
-4.950430e-01
-5.155087e-01
-5.347679e-01
-5.528482e-01
-5.697811e-01
-5.856009e-01
-6.003413e-01
-6.140286e-01
-6.266679e-01
-6.382189e-01
-6.485495e-01
-6.573554e-01
-6.640412e-01
-6.676414e-01
-6.673258e-01
-6.653042e-01
-6.764057e-01
0.000000e+00
-2.839532e-02
-5.835887e-02
-8.914276e-02
-1.198546e-01
-1.498228e-01
-1.787904e-01
-2.066656e-01
-2.334233e-01
-2.590625e-01
-2.835896e-01
-3.070131e-01
-3.293406e-01
-3.505793e-01
-3.707354e-01
-3.898145e-01
-4.078220e-01
-4.247624e-01
-4.406391e-01
-4.554532e-01
-4.692007e-01
-4.818691e-01
-4.934304e-01
-5.038307e-01
-5.129739e-01
-5.206987e-01
-5.267494e-01
-5.307564e-01
-5.322863e-01
-5.311506e-01
-5.283922e-01
-5.282275e-01
-5.388044e-01
0.000000e+00
-2.203875e-02
-4.512787e-02
-6.895460e-02
-9.297499e-02
-1.167009e-01
-1.398048e-01
-1.621212e-01
-1.835745e-01
-2.041359e-01
-2.237976e-01
-2.425607e-01
-2.604288e-01
-2.774048e-01
-2.934899e-01
-3.086826e-01
-3.229781e-01
-3.363678e-01
-3.488380e-01
-3.603677e-01
-3.709258e-01
-3.804674e-01
-3.889271e-01
-3.962120e-01
-4.021933e-01
-4.067019e-01
-4.095390e-01
-4.105342e-01
-4.097177e-01
-4.077200e-01
-4.064239e-01
-4.094169e-01
-4.184395e-01
0.000000e+00
-1.619722e-02
-3.308840e-02
-5.052227e-02
-6.819762e-02
-8.578451e-02
-1.030210e-01
-1.197369e-01
-1.358386e-01
-1.512808e-01
-1.660442e-01
-1.801221e-01
-1.935121e-01
-2.062117e-01
-2.182162e-01
-2.295171e-01
-2.401008e-01
-2.499481e-01
-2.590324e-01
-2.673180e-01
-2.747583e-01
-2.812929e-01
-2.868456e-01
-2.913232e-01
-2.946194e-01
-2.966306e-01
-2.972979e-01
-2.966991e-01
-2.952232e-01
-2.938190e-01
-2.941609e-01
-2.979764e-01
-3.054420e-01
0.000000e+00
-1.065973e-02
-2.174110e-02
-3.317402e-02
-4.479548e-02
-5.640985e-02
-6.784198e-02
-7.896421e-02
-8.969662e-02
-9.999512e-02
-1.098374e-01
-1.192124e-01
-1.281127e-01
-1.365310e-01
-1.444572e-01
-1.518768e-01
-1.587696e-01
-1.651093e-01
-1.708618e-01
-1.759847e-01
-1.804266e-01
-1.841272e-01
-1.870193e-01
-1.890347e-01
-1.901176e-01
-1.902520e-01
-1.895116e-01
-1.881415e-01
-1.866631e-01
-1.859464e-01
-1.870645e-01
-1.907794e-01
-1.968057e-01
0.000000e+00
-5.294686e-03
-1.078954e-02
-1.645634e-02
-2.222351e-02
-2.799994e-02
-3.369913e-02
-3.925337e-02
-4.461691e-02
-4.976181e-02
-5.467151e-02
-5.933506e-02
-6.374291e-02
-6.788413e-02
-7.174460e-02
-7.530578e-02
-7.854378e-02
-8.142871e-02
-8.392430e-02
-8.598804e-02
-8.757224e-02
-8.862673e-02
-8.910442e-02
-8.897156e-02
-8.822554e-02
-8.692329e-02
-8.522241e-02
-8.343025e-02
-8.203900e-02
-8.169048e-02
-8.300229e-02
-8.624297e-02
-9.102477e-02
0.000000e+00
-8.543198e-06
-1.852400e-05
-2.938951e-05
-4.056820e-05
-5.128949e-05
-6.039206e-05
-6.611116e-05
-6.582996e-05
-5.578032e-05
-3.068156e-05
1.668926e-05
9.599458e-05
2.198906e-04
4.046113e-04
6.705327e-04
1.042629e-03
1.550678e-03
2.229001e-03
3.115376e-03
4.248650e-03
5.664274e-03
7.386808e-03
9.418118e-03
1.172015e-02
1.419208e-02
1.664463e-02
1.878137e-02
2.020775e-02
2.049701e-02
1.933232e-02
1.669467e-02
1.300050e-02
0.000000e+00
5.278595e-03
1.075458e-02
1.640076e-02
2.214661e-02
2.790244e-02
3.358390e-02
3.912656e-02
4.448956e-02
4.965202e-02
5.460726e-02
5.935788e-02
6.391251e-02
6.828405e-02
7.248902e-02
7.654739e-02
8.048260e-02
8.432137e-02
8.809297e-02
9.182754e-02
9.555298e-02
9.928982e-02
1.030434e-01
1.067928e-01
1.104771e-01
1.139801e-01
1.171184e-01
1.196426e-01
1.212644e-01
1.217236e-01
1.208920e-01
1.188883e-01
1.161465e-01
0.000000e+00
1.064658e-02
2.171234e-02
3.312798e-02
4.473127e-02
5.632768e-02
6.774374e-02
7.885437e-02
8.958355e-02
9.989285e-02
1.097680e-01
1.192087e-01
1.282226e-01
1.368219e-01
1.450217e-01
1.528394e-01
1.602946e-01
1.674085e-01
1.742033e-01
1.806999e-01
1.869152e-01
1.928572e-01
1.985176e-01
2.038639e-01
2.088288e-01
2.133023e-01
2.171288e-01
2.201174e-01
2.220735e-01
2.228556e-01
2.224534e-01
2.210670e-01
2.191534e-01
0.000000e+00
1.618884e-02
3.306972e-02
5.049185e-02
6.815442e-02
8.572813e-02
1.029520e-01
1.196575e-01
1.357534e-01
1.511979e-01
1.659768e-01
1.800906e-01
1.935464e-01
2.063546e-01
2.185274e-01
2.300776e-01
2.410189e-01
2.513650e-01
2.611294e-01
2.703232e-01
2.789530e-01
2.870166e-01
2.944985e-01
3.013634e-01
3.075505e-01
3.129700e-01
3.175052e-01
3.210250e-01
3.234120e-01
3.246080e-01
3.246753e-01
3.238620e-01
3.226526e-01
0.000000e+00
2.203667e-02
4.512266e-02
6.894527e-02
9.296058e-02
1.166805e-01
1.397781e-01
1.620880e-01
1.835355e-01
2.040927e-01
2.237537e-01
2.425218e-01
2.604036e-01
2.774069e-01
2.935386e-01
3.088053e-01
3.232128e-01
3.367658e-01
3.494676e-01
3.613187e-01
3.723157e-01
3.824483e-01
3.916972e-01
4.000302e-01
4.074006e-01
4.137466e-01
4.189955e-01
4.230749e-01
4.259338e-01
4.275763e-01
4.281091e-01
4.278037e-01
4.271666e-01
0.000000e+00
2.840060e-02
5.836959e-02
8.915871e-02
1.198754e-01
1.498477e-01
1.788186e-01
2.066957e-01
2.334530e-01
2.590882e-01
2.836058e-01
3.070115e-01
3.293096e-01
3.505026e-01
3.705909e-01
3.895730e-01
4.074450e-01
4.242013e-01
4.398336e-01
4.543307e-01
4.676781e-01
4.798571e-01
4.908445e-01
5.006128e-01
5.091306e-01
5.163661e-01
5.222922e-01
5.268955e-01
5.301900e-01
5.322374e-01
5.331792e-01
5.332915e-01
5.330801e-01
0.000000e+00
3.580179e-02
7.370756e-02
1.123025e-01
1.498062e-01
1.859294e-01
2.206482e-01
2.539944e-01
2.859954e-01
3.166681e-01
3.460207e-01
3.740555e-01
4.007706e-01
4.261611e-01
4.502188e-01
4.729329e-01
4.942895e-01
5.142710e-01
5.328563e-01
5.500208e-01
5.657361e-01
5.799718e-01
5.926968e-01
6.038827e-01
6.135084e-01
6.215663e-01
6.280711e-01
6.330687e-01
6.366454e-01
6.389362e-01
6.401353e-01
6.405258e-01
6.405724e-01
0.000000e+00
4.513891e-02
9.391834e-02
1.399151e-01
1.836381e-01
2.255033e-01
2.657312e-01
3.044173e-01
3.415976e-01
3.772807e-01
4.114626e-01
4.441339e-01
4.752822e-01
5.048933e-01
5.329503e-01
5.594333e-01
5.843180e-01
6.075753e-01
6.291701e-01
6.490617e-01
6.672043e-01
6.835490e-01
6.980475e-01
7.106582e-01
7.213550e-01
7.301385e-01
7.370501e-01
7.421872e-01
7.457161e-01
7.478784e-01
7.489832e-01
7.493837e-01
7.494818e-01
0.000000e+00
6.731645e-02
1.221477e-01
1.729503e-01
2.217149e-01
2.688131e-01
3.143396e-01
3.582898e-01
4.006348e-01
4.413406e-01
4.803758e-01
5.177133e-01
5.533290e-01
5.872002e-01
6.193033e-01
6.496114e-01
6.780922e-01
7.047062e-01
7.294047e-01
7.521291e-01
7.728110e-01
7.913743e-01
8.077393e-01
8.218311e-01
8.335913e-01
8.429963e-01
8.500796e-01
8.549592e-01
8.578677e-01
8.591782e-01
8.594164e-01
8.592191e-01
8.591081e-01
0.000000e+00
-4.158722e-02
-7.257883e-02
-1.063983e-01
-1.440584e-01
-1.865992e-01
-2.343163e-01
-2.872929e-01
-3.454760e-01
-4.087409e-01
-4.769201e-01
-5.498205e-01
-6.272343e-01
-7.089447e-01
-7.947308e-01
-8.843701e-01
-9.776413e-01
-1.074327e+00
-1.174218e+00
-1.277115e+00
-1.382840e+00
-1.491242e+00
-1.602213e+00
-1.715712e+00
-1.831793e+00
-1.950672e+00
-2.072823e+00
-2.199166e+00
-2.331466e+00
-2.473215e+00
-2.631947e+00
-2.825442e+00
-3.092761e+00
0.000000e+00
-2.584488e-02
-5.828493e-02
-9.233248e-02
-1.305174e-01
-1.735203e-01
-2.217011e-01
-2.751413e-01
-3.337926e-01
-3.975304e-01
-4.661861e-01
-5.395651e-01
-6.174578e-01
-6.996456e-01
-7.859056e-01
-8.760130e-01
-9.697438e-01
-1.066877e+00
-1.167200e+00
-1.270508e+00
-1.376618e+00
-1.485369e+00
-1.596646e+00
-1.710392e+00
-1.826649e+00
-1.945611e+00
-2.067729e+00
-2.193893e+00
-2.325832e+00
-2.466980e+00
-2.624486e+00
-2.813674e+00
-3.063418e+00
0.000000e+00
-1.898457e-02
-4.698909e-02
-8.057215e-02
-1.188237e-01
-1.621435e-01
-2.107045e-01
-2.645519e-01
-3.236210e-01
-3.877810e-01
-4.568606e-01
-5.306637e-01
-6.089796e-01
-6.915891e-01
-7.782683e-01
-8.687917e-01
-9.629342e-01
-1.060474e+00
-1.161195e+00
-1.264894e+00
-1.371384e+00
-1.480504e+00
-1.592136e+00
-1.706229e+00
-1.822827e+00
-1.942136e+00
-2.064625e+00
-2.191210e+00
-2.323596e+00
-2.464876e+00
-2.620334e+00
-2.796212e+00
-2.991313e+00
0.000000e+00
-1.520208e-02
-3.979033e-02
-7.158256e-02
-1.093425e-01
-1.526488e-01
-2.014175e-01
-2.555665e-01
-3.149793e-01
-3.795012e-01
-4.489498e-01
-5.231243e-01
-6.018122e-01
-6.847938e-01
-7.718455e-01
-8.627423e-01
-9.572598e-01
-1.055177e+00
-1.156280e+00
-1.260365e+00
-1.367249e+00
-1.476775e+00
-1.588832e+00
-1.703374e+00
-1.820459e+00
-1.940303e+00
-2.063369e+00
-2.190502e+00
-2.323097e+00
-2.463192e+00
-2.612738e+00
-2.770462e+00
-2.917286e+00
0.000000e+00
-1.286351e-02
-3.508262e-02
-6.519891e-02
-1.020981e-01
-1.451204e-01
-1.939074e-01
-2.482324e-01
-3.078990e-01
-3.727123e-01
-4.424695e-01
-5.169605e-01
-5.959691e-01
-6.792748e-01
-7.666549e-01
-8.578860e-01
-9.527459e-01
-1.051016e+00
-1.152485e+00
-1.256954e+00
-1.364243e+00
-1.474199e+00
-1.586717e+00
-1.701753e+00
-1.819362e+00
-1.939733e+00
-2.063243e+00
-2.190500e+00
-2.322307e+00
-2.459310e+00
-2.600857e+00
-2.741750e+00
-2.869619e+00
0.000000e+00
-1.137546e-02
-3.199378e-02
-6.080597e-02
-9.687450e-02
-1.394938e-01
-1.881747e-01
-2.425692e-01
-3.024029e-01
-3.674345e-01
-4.374363e-01
-5.121857e-01
-5.914610e-01
-6.750410e-01
-7.627039e-01
-8.542287e-01
-9.493959e-01
-1.047991e+00
-1.149804e+00
-1.254641e+00
-1.362324e+00
-1.472702e+00
-1.585664e+00
-1.701157e+00
-1.819200e+00
-1.939907e+00
-2.063491e+00
-2.190220e+00
-2.320238e+00
-2.453110e+00
-2.586808e+00
-2.716558e+00
-2.835148e+00
0.000000e+00
-1.045065e-02
-3.004087e-02
-5.795047e-02
-9.337510e-02
-1.356271e-01
-1.841635e-01
-2.385648e-01
-2.984972e-01
-3.636799e-01
-4.338620e-01
-5.088087e-01
-5.882935e-01
-6.720938e-01
-7.599894e-01
-8.517616e-01
-9.471941e-01
-1.046075e+00
-1.148198e+00
-1.253368e+00
-1.361407e+00
-1.472158e+00
-1.585496e+00
-1.701334e+00
-1.819635e+00
-1.940398e+00
-2.063636e+00
-2.189278e+00
-2.316960e+00
-2.445645e+00
-2.573105e+00
-2.695665e+00
-2.808823e+00
0.000000e+00
-9.942459e-03
-2.895724e-02
-5.634133e-02
-9.136850e-02
-1.333748e-01
-1.817998e-01
-2.361891e-01
-2.961749e-01
-3.614511e-01
-4.317513e-01
-5.068326e-01
-5.864652e-01
-6.704268e-01
-7.584986e-01
-8.504643e-01
-9.461103e-01
-1.045226e+00
-1.147607e+00
-1.253056e+00
-1.361387e+00
-1.472431e+00
-1.586035e+00
-1.702070e+00
-1.820419e+00
-1.940960e+00
-2.063515e+00
-2.187751e+00
-2.313003e+00
-2.438042e+00
-2.560857e+00
-2.678686e+00
-2.788455e+00
0.000000e+00
-9.778720e-03
-2.860764e-02
-5.581980e-02
-9.071453e-02
-1.326377e-01
-1.810255e-01
-2.354140e-01
-2.954251e-01
-3.607450e-01
-4.311028e-01
-5.062539e-01
-5.859690e-01
-6.700271e-01
-7.582116e-01
-8.503084e-01
-9.461056e-01
-1.045393e+00
-1.147966e+00
-1.253620e+00
-1.362159e+00
-1.473394e+00
-1.587139e+00
-1.703211e+00
-1.821415e+00
-1.941514e+00
-2.063183e+00
-2.185920e+00
-2.308933e+00
-2.431008e+00
-2.550449e+00
-2.665145e+00
-2.772844e+00
0.000000e+00
-9.937723e-03
-2.895067e-02
-5.633567e-02
-9.136679e-02
-1.333808e-01
-1.818185e-01
-2.362270e-01
-2.962408e-01
-3.615565e-01
-4.319107e-01
-5.070646e-01
-5.867927e-01
-6.708772e-01
-7.591041e-01
-8.512614e-01
-9.471379e-01
-1.046523e+00
-1.149208e+00
-1.254981e+00
-1.363632e+00
-1.474948e+00
-1.588707e+00
-1.704674e+00
-1.822580e+00
-1.942097e+00
-2.062798e+00
-2.184095e+00
-2.305170e+00
-2.424921e+00
-2.541947e+00
-2.654617e+00
-2.761210e+00
0.000000e+00
-1.044157e-02
-3.002826e-02
-5.793955e-02
-9.337168e-02
-1.356384e-01
-1.841990e-01
-2.386371e-01
-2.986231e-01
-3.638814e-01
-4.341672e-01
-5.092531e-01
-5.889210e-01
-6.729574e-01
-7.611510e-01
-8.532914e-01
-9.491674e-01
-1.048567e+00
-1.151275e+00
-1.257074e+00
-1.365735e+00
-1.477023e+00
-1.590682e+00
-1.706427e+00
-1.823931e+00
-1.942798e+00
-2.062538e+00
-2.182530e+00
-2.301988e+00
-2.419949e+00
-2.535279e+00
-2.646720e+00
-2.752952e+00
0.000000e+00
-1.136283e-02
-3.197625e-02
-6.079073e-02
-9.686957e-02
-1.395092e-01
-1.882238e-01
-2.426697e-01
-3.025783e-01
-3.677154e-01
-4.378622e-01
-5.128064e-01
-5.923381e-01
-6.762487e-01
-7.643294e-01
-8.563705e-01
-9.521605e-01
-1.051485e+00
-1.154124e+00
-1.259849e+00
-1.368420e+00
-1.479577e+00
-1.593036e+00
-1.708472e+00
-1.825512e+00
-1.943714e+00
-2.062555e+00
-2.181408e+00
-2.299546e+00
-2.416142e+00
-2.530301e+00
-2.641087e+00
-2.747537e+00
0.000000e+00
-1.284863e-02
-3.506198e-02
-6.518095e-02
-1.020924e-01
-1.451391e-01
-1.939666e-01
-2.483536e-01
-3.081107e-01
-3.730515e-01
-4.429842e-01
-5.177110e-01
-5.970298e-01
-6.807358e-01
-7.686218e-01
-8.604785e-01
-9.560935e-01
-1.055250e+00
-1.157723e+00
-1.263276e+00
-1.371656e+00
-1.482588e+00
-1.595761e+00
-1.710823e+00
-1.827369e+00
-1.944928e+00
-2.062957e+00
-2.180842e+00
-2.297914e+00
-2.413470e+00
-2.526827e+00
-2.637347e+00
-2.744439e+00
0.000000e+00
-1.518679e-02
-3.976915e-02
-7.156430e-02
-1.093376e-01
-1.526707e-01
-2.014842e-01
-2.557019e-01
-3.152147e-01
-3.798778e-01
-4.495203e-01
-5.239554e-01
-6.029860e-01
-6.864095e-01
-7.740194e-01
-8.656061e-01
-9.609560e-01
-1.059850e+00
-1.162059e+00
-1.267341e+00
-1.375434e+00
-1.486049e+00
-1.598861e+00
-1.713498e+00
-1.829535e+00
-1.946484e+00
-2.063797e+00
-2.180873e+00
-2.297090e+00
-2.411850e+00
-2.524642e+00
-2.635114e+00
-2.743089e+00
0.000000e+00
-1.897124e-02
-4.697053e-02
-8.055673e-02
-1.188222e-01
-1.621702e-01
-2.107782e-01
-2.646975e-01
-3.238711e-01
-3.881783e-01
-4.574596e-01
-5.315330e-01
-6.102037e-01
-6.932697e-01
-7.805243e-01
-8.717570e-01
-9.667531e-01
-1.065291e+00
-1.167139e+00
-1.272052e+00
-1.379761e+00
-1.489970e+00
-1.602345e+00
-1.716506e+00
-1.832016e+00
-1.948384e+00
-2.065061e+00
-2.181461e+00
-2.296998e+00
-2.411140e+00
-2.523509e+00
-2.633991e+00
-2.742853e+00
0.000000e+00
-2.583632e-02
-5.827231e-02
-9.232341e-02
-1.305230e-01
-1.735551e-01
-2.217841e-01
-2.752975e-01
-3.340546e-01
-3.979405e-01
-4.667979e-01
-5.404460e-01
-6.186901e-01
-7.013278e-01
-7.881517e-01
-8.789504e-01
-9.735075e-01
-1.071600e+00
-1.172993e+00
-1.277440e+00
-1.384668e+00
-1.494378e+00
-1.606233e+00
-1.719851e+00
-1.834795e+00
-1.950577e+00
-2.066658e+00
-2.182469e+00
-2.297448e+00
-2.411107e+00
-2.523141e+00
-2.633586e+00
-2.743053e+00
0.000000e+00
-4.158600e-02
-7.257462e-02
-1.063991e-01
-1.440753e-01
-1.866470e-01
-2.344140e-01
-2.874650e-01
-3.457546e-01
-4.091671e-01
-4.775455e-01
-5.507094e-01
-6.284641e-01
-7.106071e-01
-7.969303e-01
-8.872210e-01
-9.812611e-01
-1.078825e+00
-1.179677e+00
-1.283565e+00
-1.390217e+00
-1.499330e+00
-1.610567e+00