TITLE = "Solution"
VARIABLES = x, y, u, v, psiu, psiv, t, stress
ZONE T="structure" N=561 E=512 F=FEBLOCK ET=QUADRILATERAL VARLOCATION=([7,8]=cellcentered)
0.000000e+00
6.250000e+00
1.250000e+01
1.875000e+01
2.500000e+01
3.125000e+01
3.750000e+01
4.375000e+01
5.000000e+01
5.625000e+01
6.250000e+01
6.875000e+01
7.500000e+01
8.125000e+01
8.750000e+01
9.375000e+01
1.000000e+02
1.062500e+02
1.125000e+02
1.187500e+02
1.250000e+02
1.312500e+02
1.375000e+02
1.437500e+02
1.500000e+02
1.562500e+02
1.625000e+02
1.687500e+02
1.750000e+02
1.812500e+02
1.875000e+02
1.937500e+02
2.000000e+02
0.000000e+00
6.250000e+00
1.250000e+01
1.875000e+01
2.500000e+01
3.125000e+01
3.750000e+01
4.375000e+01
5.000000e+01
5.625000e+01
6.250000e+01
6.875000e+01
7.500000e+01
8.125000e+01
8.750000e+01
9.375000e+01
1.000000e+02
1.062500e+02
1.125000e+02
1.187500e+02
1.250000e+02
1.312500e+02
1.375000e+02
1.437500e+02
1.500000e+02
1.562500e+02
1.625000e+02
1.687500e+02
1.750000e+02
1.812500e+02
1.875000e+02
1.937500e+02
2.000000e+02
0.000000e+00
6.250000e+00
1.250000e+01
1.875000e+01
2.500000e+01
3.125000e+01
3.750000e+01
4.375000e+01
5.000000e+01
5.625000e+01
6.250000e+01
6.875000e+01
7.500000e+01
8.125000e+01
8.750000e+01
9.375000e+01
1.000000e+02
1.062500e+02
1.125000e+02
1.187500e+02
1.250000e+02
1.312500e+02
1.375000e+02
1.437500e+02
1.500000e+02
1.562500e+02
1.625000e+02
1.687500e+02
1.750000e+02
1.812500e+02
1.875000e+02
1.937500e+02
2.000000e+02
0.000000e+00
6.250000e+00
1.250000e+01
1.875000e+01
2.500000e+01
3.125000e+01
3.750000e+01
4.375000e+01
5.000000e+01
5.625000e+01
6.250000e+01
6.875000e+01
7.500000e+01
8.125000e+01
8.750000e+01
9.375000e+01
1.000000e+02
1.062500e+02
1.125000e+02
1.187500e+02
1.250000e+02
1.312500e+02
1.375000e+02
1.437500e+02
1.500000e+02
1.562500e+02
1.625000e+02
1.687500e+02
1.750000e+02
1.812500e+02
1.875000e+02
1.937500e+02
2.000000e+02
0.000000e+00
6.250000e+00
1.250000e+01
1.875000e+01
2.500000e+01
3.125000e+01
3.750000e+01
4.375000e+01
5.000000e+01
5.625000e+01
6.250000e+01
6.875000e+01
7.500000e+01
8.125000e+01
8.750000e+01
9.375000e+01
1.000000e+02
1.062500e+02
1.125000e+02
1.187500e+02
1.250000e+02
1.312500e+02
1.375000e+02
1.437500e+02
1.500000e+02
1.562500e+02
1.625000e+02
1.687500e+02
1.750000e+02
1.812500e+02
1.875000e+02
1.937500e+02
2.000000e+02
0.000000e+00
6.250000e+00
1.250000e+01
1.875000e+01
2.500000e+01
3.125000e+01
3.750000e+01
4.375000e+01
5.000000e+01
5.625000e+01
6.250000e+01
6.875000e+01
7.500000e+01
8.125000e+01
8.750000e+01
9.375000e+01
1.000000e+02
1.062500e+02
1.125000e+02
1.187500e+02
1.250000e+02
1.312500e+02
1.375000e+02
1.437500e+02
1.500000e+02
1.562500e+02
1.625000e+02
1.687500e+02
1.750000e+02
1.812500e+02
1.875000e+02
1.937500e+02
2.000000e+02
0.000000e+00
6.250000e+00
1.250000e+01
1.875000e+01
2.500000e+01
3.125000e+01
3.750000e+01
4.375000e+01
5.000000e+01
5.625000e+01
6.250000e+01
6.875000e+01
7.500000e+01
8.125000e+01
8.750000e+01
9.375000e+01
1.000000e+02
1.062500e+02
1.125000e+02
1.187500e+02
1.250000e+02
1.312500e+02
1.375000e+02
1.437500e+02
1.500000e+02
1.562500e+02
1.625000e+02
1.687500e+02
1.750000e+02
1.812500e+02
1.875000e+02
1.937500e+02
2.000000e+02
0.000000e+00
6.250000e+00
1.250000e+01
1.875000e+01
2.500000e+01
3.125000e+01
3.750000e+01
4.375000e+01
5.000000e+01
5.625000e+01
6.250000e+01
6.875000e+01
7.500000e+01
8.125000e+01
8.750000e+01
9.375000e+01
1.000000e+02
1.062500e+02
1.125000e+02
1.187500e+02
1.250000e+02
1.312500e+02
1.375000e+02
1.437500e+02
1.500000e+02
1.562500e+02
1.625000e+02
1.687500e+02
1.750000e+02
1.812500e+02
1.875000e+02
1.937500e+02
2.000000e+02
0.000000e+00
6.250000e+00
1.250000e+01
1.875000e+01
2.500000e+01
3.125000e+01
3.750000e+01
4.375000e+01
5.000000e+01
5.625000e+01
6.250000e+01
6.875000e+01
7.500000e+01
8.125000e+01
8.750000e+01
9.375000e+01
1.000000e+02
1.062500e+02
1.125000e+02
1.187500e+02
1.250000e+02
1.312500e+02
1.375000e+02
1.437500e+02
1.500000e+02
1.562500e+02
1.625000e+02
1.687500e+02
1.750000e+02
1.812500e+02
1.875000e+02
1.937500e+02
2.000000e+02
0.000000e+00
6.250000e+00
1.250000e+01
1.875000e+01
2.500000e+01
3.125000e+01
3.750000e+01
4.375000e+01
5.000000e+01
5.625000e+01
6.250000e+01
6.875000e+01
7.500000e+01
8.125000e+01
8.750000e+01
9.375000e+01
1.000000e+02
1.062500e+02
1.125000e+02
1.187500e+02
1.250000e+02
1.312500e+02
1.375000e+02
1.437500e+02
1.500000e+02
1.562500e+02
1.625000e+02
1.687500e+02
1.750000e+02
1.812500e+02
1.875000e+02
1.937500e+02
2.000000e+02
0.000000e+00
6.250000e+00
1.250000e+01
1.875000e+01
2.500000e+01
3.125000e+01
3.750000e+01
4.375000e+01
5.000000e+01
5.625000e+01
6.250000e+01
6.875000e+01
7.500000e+01
8.125000e+01
8.750000e+01
9.375000e+01
1.000000e+02
1.062500e+02
1.125000e+02
1.187500e+02
1.250000e+02
1.312500e+02
1.375000e+02
1.437500e+02
1.500000e+02
1.562500e+02
1.625000e+02
1.687500e+02
1.750000e+02
1.812500e+02
1.875000e+02
1.937500e+02
2.000000e+02
0.000000e+00
6.250000e+00
1.250000e+01
1.875000e+01
2.500000e+01
3.125000e+01
3.750000e+01
4.375000e+01
5.000000e+01
5.625000e+01
6.250000e+01
6.875000e+01
7.500000e+01
8.125000e+01
8.750000e+01
9.375000e+01
1.000000e+02
1.062500e+02
1.125000e+02
1.187500e+02
1.250000e+02
1.312500e+02
1.375000e+02
1.437500e+02
1.500000e+02
1.562500e+02
1.625000e+02
1.687500e+02
1.750000e+02
1.812500e+02
1.875000e+02
1.937500e+02
2.000000e+02
0.000000e+00
6.250000e+00
1.250000e+01
1.875000e+01
2.500000e+01
3.125000e+01
3.750000e+01
4.375000e+01
5.000000e+01
5.625000e+01
6.250000e+01
6.875000e+01
7.500000e+01
8.125000e+01
8.750000e+01
9.375000e+01
1.000000e+02
1.062500e+02
1.125000e+02
1.187500e+02
1.250000e+02
1.312500e+02
1.375000e+02
1.437500e+02
1.500000e+02
1.562500e+02
1.625000e+02
1.687500e+02
1.750000e+02
1.812500e+02
1.875000e+02
1.937500e+02
2.000000e+02
0.000000e+00
6.250000e+00
1.250000e+01
1.875000e+01
2.500000e+01
3.125000e+01
3.750000e+01
4.375000e+01
5.000000e+01
5.625000e+01
6.250000e+01
6.875000e+01
7.500000e+01
8.125000e+01
8.750000e+01
9.375000e+01
1.000000e+02
1.062500e+02
1.125000e+02
1.187500e+02
1.250000e+02
1.312500e+02
1.375000e+02
1.437500e+02
1.500000e+02
1.562500e+02
1.625000e+02
1.687500e+02
1.750000e+02
1.812500e+02
1.875000e+02
1.937500e+02
2.000000e+02
0.000000e+00
6.250000e+00
1.250000e+01
1.875000e+01
2.500000e+01
3.125000e+01
3.750000e+01
4.375000e+01
5.000000e+01
5.625000e+01
6.250000e+01
6.875000e+01
7.500000e+01
8.125000e+01
8.750000e+01
9.375000e+01
1.000000e+02
1.062500e+02
1.125000e+02
1.187500e+02
1.250000e+02
1.312500e+02
1.375000e+02
1.437500e+02
1.500000e+02
1.562500e+02
1.625000e+02
1.687500e+02
1.750000e+02
1.812500e+02
1.875000e+02
1.937500e+02
2.000000e+02
0.000000e+00
6.250000e+00
1.250000e+01
1.875000e+01
2.500000e+01
3.125000e+01
3.750000e+01
4.375000e+01
5.000000e+01
5.625000e+01
6.250000e+01
6.875000e+01
7.500000e+01
8.125000e+01
8.750000e+01
9.375000e+01
1.000000e+02
1.062500e+02
1.125000e+02
1.187500e+02
1.250000e+02
1.312500e+02
1.375000e+02
1.437500e+02
1.500000e+02
1.562500e+02
1.625000e+02
1.687500e+02
1.750000e+02
1.812500e+02
1.875000e+02
1.937500e+02
2.000000e+02
0.000000e+00
6.250000e+00
1.250000e+01
1.875000e+01
2.500000e+01
3.125000e+01
3.750000e+01
4.375000e+01
5.000000e+01
5.625000e+01
6.250000e+01
6.875000e+01
7.500000e+01
8.125000e+01
8.750000e+01
9.375000e+01
1.000000e+02
1.062500e+02
1.125000e+02
1.187500e+02
1.250000e+02
1.312500e+02
1.375000e+02
1.437500e+02
1.500000e+02
1.562500e+02
1.625000e+02
1.687500e+02
1.750000e+02
1.812500e+02
1.875000e+02
1.937500e+02
2.000000e+02
0.000000e+00
0.000000e+00
0.000000e+00
0.000000e+00
0.000000e+00
0.000000e+00
0.000000e+00
0.000000e+00
0.000000e+00
0.000000e+00
0.000000e+00
0.000000e+00
0.000000e+00
0.000000e+00
0.000000e+00
0.000000e+00
0.000000e+00
0.000000e+00
0.000000e+00
0.000000e+00
0.000000e+00
0.000000e+00
0.000000e+00
0.000000e+00
0.000000e+00
0.000000e+00
0.000000e+00
0.000000e+00
0.000000e+00
0.000000e+00
0.000000e+00
0.000000e+00
0.000000e+00
6.250000e+00
6.250000e+00
6.250000e+00
6.250000e+00
6.250000e+00
6.250000e+00
6.250000e+00
6.250000e+00
6.250000e+00
6.250000e+00
6.250000e+00
6.250000e+00
6.250000e+00
6.250000e+00
6.250000e+00
6.250000e+00
6.250000e+00
6.250000e+00
6.250000e+00
6.250000e+00
6.250000e+00
6.250000e+00
6.250000e+00
6.250000e+00
6.250000e+00
6.250000e+00
6.250000e+00
6.250000e+00
6.250000e+00
6.250000e+00
6.250000e+00
6.250000e+00
6.250000e+00
1.250000e+01
1.250000e+01
1.250000e+01
1.250000e+01
1.250000e+01
1.250000e+01
1.250000e+01
1.250000e+01
1.250000e+01
1.250000e+01
1.250000e+01
1.250000e+01
1.250000e+01
1.250000e+01
1.250000e+01
1.250000e+01
1.250000e+01
1.250000e+01
1.250000e+01
1.250000e+01
1.250000e+01
1.250000e+01
1.250000e+01
1.250000e+01
1.250000e+01
1.250000e+01
1.250000e+01
1.250000e+01
1.250000e+01
1.250000e+01
1.250000e+01
1.250000e+01
1.250000e+01
1.875000e+01
1.875000e+01
1.875000e+01
1.875000e+01
1.875000e+01
1.875000e+01
1.875000e+01
1.875000e+01
1.875000e+01
1.875000e+01
1.875000e+01
1.875000e+01
1.875000e+01
1.875000e+01
1.875000e+01
1.875000e+01
1.875000e+01
1.875000e+01
1.875000e+01
1.875000e+01
1.875000e+01
1.875000e+01
1.875000e+01
1.875000e+01
1.875000e+01
1.875000e+01
1.875000e+01
1.875000e+01
1.875000e+01
1.875000e+01
1.875000e+01
1.875000e+01
1.875000e+01
2.500000e+01
2.500000e+01
2.500000e+01
2.500000e+01
2.500000e+01
2.500000e+01
2.500000e+01
2.500000e+01
2.500000e+01
2.500000e+01
2.500000e+01
2.500000e+01
2.500000e+01
2.500000e+01
2.500000e+01
2.500000e+01
2.500000e+01
2.500000e+01
2.500000e+01
2.500000e+01
2.500000e+01
2.500000e+01
2.500000e+01
2.500000e+01
2.500000e+01
2.500000e+01
2.500000e+01
2.500000e+01
2.500000e+01
2.500000e+01
2.500000e+01
2.500000e+01
2.500000e+01
3.125000e+01
3.125000e+01
3.125000e+01
3.125000e+01
3.125000e+01
3.125000e+01
3.125000e+01
3.125000e+01
3.125000e+01
3.125000e+01
3.125000e+01
3.125000e+01
3.125000e+01
3.125000e+01
3.125000e+01
3.125000e+01
3.125000e+01
3.125000e+01
3.125000e+01
3.125000e+01
3.125000e+01
3.125000e+01
3.125000e+01
3.125000e+01
3.125000e+01
3.125000e+01
3.125000e+01
3.125000e+01
3.125000e+01
3.125000e+01
3.125000e+01
3.125000e+01
3.125000e+01
3.750000e+01
3.750000e+01
3.750000e+01
3.750000e+01
3.750000e+01
3.750000e+01
3.750000e+01
3.750000e+01
3.750000e+01
3.750000e+01
3.750000e+01
3.750000e+01
3.750000e+01
3.750000e+01
3.750000e+01
3.750000e+01
3.750000e+01
3.750000e+01
3.750000e+01
3.750000e+01
3.750000e+01
3.750000e+01
3.750000e+01
3.750000e+01
3.750000e+01
3.750000e+01
3.750000e+01
3.750000e+01
3.750000e+01
3.750000e+01
3.750000e+01
3.750000e+01
3.750000e+01
4.375000e+01
4.375000e+01
4.375000e+01
4.375000e+01
4.375000e+01
4.375000e+01
4.375000e+01
4.375000e+01
4.375000e+01
4.375000e+01
4.375000e+01
4.375000e+01
4.375000e+01
4.375000e+01
4.375000e+01
4.375000e+01
4.375000e+01
4.375000e+01
4.375000e+01
4.375000e+01
4.375000e+01
4.375000e+01
4.375000e+01
4.375000e+01
4.375000e+01
4.375000e+01
4.375000e+01
4.375000e+01
4.375000e+01
4.375000e+01
4.375000e+01
4.375000e+01
4.375000e+01
5.000000e+01
5.000000e+01
5.000000e+01
5.000000e+01
5.000000e+01
5.000000e+01
5.000000e+01
5.000000e+01
5.000000e+01
5.000000e+01
5.000000e+01
5.000000e+01
5.000000e+01
5.000000e+01
5.000000e+01
5.000000e+01
5.000000e+01
5.000000e+01
5.000000e+01
5.000000e+01
5.000000e+01
5.000000e+01
5.000000e+01
5.000000e+01
5.000000e+01
5.000000e+01
5.000000e+01
5.000000e+01
5.000000e+01
5.000000e+01
5.000000e+01
5.000000e+01
5.000000e+01
5.625000e+01
5.625000e+01
5.625000e+01
5.625000e+01
5.625000e+01
5.625000e+01
5.625000e+01
5.625000e+01
5.625000e+01
5.625000e+01
5.625000e+01
5.625000e+01
5.625000e+01
5.625000e+01
5.625000e+01
5.625000e+01
5.625000e+01
5.625000e+01
5.625000e+01
5.625000e+01
5.625000e+01
5.625000e+01
5.625000e+01
5.625000e+01
5.625000e+01
5.625000e+01
5.625000e+01
5.625000e+01
5.625000e+01
5.625000e+01
5.625000e+01
5.625000e+01
5.625000e+01
6.250000e+01
6.250000e+01
6.250000e+01
6.250000e+01
6.250000e+01
6.250000e+01
6.250000e+01
6.250000e+01
6.250000e+01
6.250000e+01
6.250000e+01
6.250000e+01
6.250000e+01
6.250000e+01
6.250000e+01
6.250000e+01
6.250000e+01
6.250000e+01
6.250000e+01
6.250000e+01
6.250000e+01
6.250000e+01
6.250000e+01
6.250000e+01
6.250000e+01
6.250000e+01
6.250000e+01
6.250000e+01
6.250000e+01
6.250000e+01
6.250000e+01
6.250000e+01
6.250000e+01
6.875000e+01
6.875000e+01
6.875000e+01
6.875000e+01
6.875000e+01
6.875000e+01
6.875000e+01
6.875000e+01
6.875000e+01
6.875000e+01
6.875000e+01
6.875000e+01
6.875000e+01
6.875000e+01
6.875000e+01
6.875000e+01
6.875000e+01
6.875000e+01
6.875000e+01
6.875000e+01
6.875000e+01
6.875000e+01
6.875000e+01
6.875000e+01
6.875000e+01
6.875000e+01
6.875000e+01
6.875000e+01
6.875000e+01
6.875000e+01
6.875000e+01
6.875000e+01
6.875000e+01
7.500000e+01
7.500000e+01
7.500000e+01
7.500000e+01
7.500000e+01
7.500000e+01
7.500000e+01
7.500000e+01
7.500000e+01
7.500000e+01
7.500000e+01
7.500000e+01
7.500000e+01
7.500000e+01
7.500000e+01
7.500000e+01
7.500000e+01
7.500000e+01
7.500000e+01
7.500000e+01
7.500000e+01
7.500000e+01
7.500000e+01
7.500000e+01
7.500000e+01
7.500000e+01
7.500000e+01
7.500000e+01
7.500000e+01
7.500000e+01
7.500000e+01
7.500000e+01
7.500000e+01
8.125000e+01
8.125000e+01
8.125000e+01
8.125000e+01
8.125000e+01
8.125000e+01
8.125000e+01
8.125000e+01
8.125000e+01
8.125000e+01
8.125000e+01
8.125000e+01
8.125000e+01
8.125000e+01
8.125000e+01
8.125000e+01
8.125000e+01
8.125000e+01
8.125000e+01
8.125000e+01
8.125000e+01
8.125000e+01
8.125000e+01
8.125000e+01
8.125000e+01
8.125000e+01
8.125000e+01
8.125000e+01
8.125000e+01
8.125000e+01
8.125000e+01
8.125000e+01
8.125000e+01
8.750000e+01
8.750000e+01
8.750000e+01
8.750000e+01
8.750000e+01
8.750000e+01
8.750000e+01
8.750000e+01
8.750000e+01
8.750000e+01
8.750000e+01
8.750000e+01
8.750000e+01
8.750000e+01
8.750000e+01
8.750000e+01
8.750000e+01
8.750000e+01
8.750000e+01
8.750000e+01
8.750000e+01
8.750000e+01
8.750000e+01
8.750000e+01
8.750000e+01
8.750000e+01
8.750000e+01
8.750000e+01
8.750000e+01
8.750000e+01
8.750000e+01
8.750000e+01
8.750000e+01
9.375000e+01
9.375000e+01
9.375000e+01
9.375000e+01
9.375000e+01
9.375000e+01
9.375000e+01
9.375000e+01
9.375000e+01
9.375000e+01
9.375000e+01
9.375000e+01
9.375000e+01
9.375000e+01
9.375000e+01
9.375000e+01
9.375000e+01
9.375000e+01
9.375000e+01
9.375000e+01
9.375000e+01
9.375000e+01
9.375000e+01
9.375000e+01
9.375000e+01
9.375000e+01
9.375000e+01
9.375000e+01
9.375000e+01
9.375000e+01
9.375000e+01
9.375000e+01
9.375000e+01
1.000000e+02
1.000000e+02
1.000000e+02
1.000000e+02
1.000000e+02
1.000000e+02
1.000000e+02
1.000000e+02
1.000000e+02
1.000000e+02
1.000000e+02
1.000000e+02
1.000000e+02
1.000000e+02
1.000000e+02
1.000000e+02
1.000000e+02
1.000000e+02
1.000000e+02
1.000000e+02
1.000000e+02
1.000000e+02
1.000000e+02
1.000000e+02
1.000000e+02
1.000000e+02
1.000000e+02
1.000000e+02
1.000000e+02
1.000000e+02
1.000000e+02
1.000000e+02
1.000000e+02
0.000000e+00
-3.607248e-01
-6.513970e-01
-9.313330e-01
-1.215666e+00
-1.497092e+00
-1.775522e+00
-2.052291e+00
-2.327049e+00
-2.598999e+00
-2.867556e+00
-3.132130e+00
-3.391968e+00
-3.646180e+00
-3.893796e+00
-4.133831e+00
-4.365361e+00
-4.587608e+00
-4.800026e+00
-5.002366e+00
-5.194734e+00
-5.377636e+00
-5.552038e+00
-5.719430e+00
-5.881944e+00
-6.042517e+00
-6.205150e+00
-6.375353e+00
-6.560954e+00
-6.772703e+00
-7.019791e+00
-7.294010e+00
-7.456032e+00
0.000000e+00
-2.338812e-01
-4.861655e-01
-7.343968e-01
-9.858891e-01
-1.234127e+00
-1.478866e+00
-1.721665e+00
-1.962457e+00
-2.200623e+00
-2.435707e+00
-2.667256e+00
-2.894663e+00
-3.117182e+00
-3.333988e+00
-3.544227e+00
-3.747080e+00
-3.941832e+00
-4.127946e+00
-4.305104e+00
-4.473247e+00
-4.632588e+00
-4.783615e+00
-4.927095e+00
-5.064049e+00
-5.195714e+00
-5.323420e+00
-5.448275e+00
-5.570171e+00
-5.684455e+00
-5.775287e+00
-5.825259e+00
-5.891988e+00
0.000000e+00
-1.803309e-01
-3.733581e-01
-5.798697e-01
-7.924970e-01
-1.004187e+00
-1.214028e+00
-1.422472e+00
-1.629180e+00
-1.833608e+00
-2.035330e+00
-2.233912e+00
-2.428815e+00
-2.619403e+00
-2.804971e+00
-2.984787e+00
-3.158130e+00
-3.324342e+00
-3.482874e+00
-3.633311e+00
-3.775382e+00
-3.908948e+00
-4.033968e+00
-4.150431e+00
-4.258251e+00
-4.357079e+00
-4.445983e+00
-4.522848e+00
-4.583295e+00
-4.619363e+00
-4.623672e+00
-4.613839e+00
-4.688213e+00
0.000000e+00
-1.428558e-01
-2.953762e-01
-4.592801e-01
-6.308915e-01
-8.043890e-01
-9.781924e-01
-1.151542e+00
-1.323694e+00
-1.494050e+00
-1.662140e+00
-1.827500e+00
-1.989624e+00
-2.147957e+00
-2.301900e+00
-2.450827e+00
-2.594108e+00
-2.731134e+00
-2.861341e+00
-2.984219e+00
-3.099302e+00
-3.206145e+00
-3.304264e+00
-3.393056e+00
-3.471674e+00
-3.538851e+00
-3.592672e+00
-3.630362e+00
-3.648437e+00
-3.644731e+00
-3.627118e+00
-3.627329e+00
-3.698477e+00
0.000000e+00
-1.133133e-01
-2.324902e-01
-3.592150e-01
-4.917423e-01
-6.276687e-01
-7.651478e-01
-9.029324e-01
-1.040113e+00
-1.176034e+00
-1.310168e+00
-1.442036e+00
-1.571168e+00
-1.697079e+00
-1.819259e+00
-1.937173e+00
-2.050268e+00
-2.157979e+00
-2.259737e+00
-2.354966e+00
-2.443071e+00
-2.523404e+00
-2.595226e+00
-2.657641e+00
-2.709530e+00
-2.749499e+00
-2.775925e+00
-2.787303e+00
-2.783425e+00
-2.768600e+00
-2.757879e+00
-2.778973e+00
-2.844246e+00
0.000000e+00
-8.473199e-02
-1.732675e-01
-2.662883e-01
-3.634964e-01
-4.636742e-01
-5.655952e-01
-6.681622e-01
-7.705387e-01
-8.720956e-01
-9.723278e-01
-1.070794e+00
-1.167080e+00
-1.260773e+00
-1.351444e+00
-1.438640e+00
-1.521878e+00
-1.600642e+00
-1.674381e+00
-1.742507e+00
-1.804375e+00
-1.859278e+00
-1.906419e+00
-1.944909e+00
-1.973780e+00
-1.992087e+00
-1.999193e+00
-1.995432e+00
-1.983483e+00
-1.970690e+00
-1.971107e+00
-1.999516e+00
-2.057963e+00
0.000000e+00
-5.636454e-02
-1.150546e-01
-1.764522e-01
-2.404408e-01
-3.064790e-01
-3.738373e-01
-4.417968e-01
-5.097456e-01
-5.771946e-01
-6.437424e-01
-7.090390e-01
-7.727566e-01
-8.345682e-01
-8.941304e-01
-9.510715e-01
-1.004983e+00
-1.055414e+00
-1.101864e+00
-1.143785e+00
-1.180575e+00
-1.211584e+00
-1.236128e+00
-1.253532e+00
-1.263229e+00
-1.264951e+00
-1.259116e+00
-1.247470e+00
-1.234038e+00
-1.226038e+00
-1.233051e+00
-1.262370e+00
-1.312109e+00
0.000000e+00
-2.818504e-02
-5.750274e-02
-8.810923e-02
-1.199581e-01
-1.528198e-01
-1.863638e-01
-2.202347e-01
-2.541091e-01
-2.877109e-01
-3.208028e-01
-3.531681e-01
-3.845940e-01
-4.148570e-01
-4.437104e-01
-4.708749e-01
-4.960308e-01
-5.188126e-01
-5.388078e-01
-5.555588e-01
-5.685736e-01
-5.773482e-01
-5.814107e-01
-5.804003e-01
-5.742045e-01
-5.631813e-01
-5.484947e-01
-5.325503e-01
-5.193976e-01
-5.146456e-01
-5.241080e-01
-5.506972e-01
-5.912042e-01
0.000000e+00
-1.303903e-04
-2.685179e-04
-4.088079e-04
-5.449936e-04
-6.693622e-04
-7.715165e-04
-8.367178e-04
-8.438764e-04
-7.630713e-04
-5.524526e-04
-1.544188e-04
5.089440e-04
1.541034e-03
3.076210e-03
5.285048e-03
8.378551e-03
1.261011e-02
1.827338e-02
2.569344e-02
3.520723e-02
4.712751e-02
6.168258e-02
7.892157e-02
9.857485e-02
1.198640e-01
1.412758e-01
1.603632e-01
1.737364e-01
1.775223e-01
1.686004e-01
1.464870e-01
1.148313e-01
0.000000e+00
2.793054e-02
5.697841e-02
8.731077e-02
1.188932e-01
1.515106e-01
1.848522e-01
2.185902e-01
2.524411e-01
2.861852e-01
3.196641e-01
3.527693e-01
3.854346e-01
4.176309e-01
4.493646e-01
4.806782e-01
5.116505e-01
5.423962e-01
5.730612e-01
6.038097e-01
6.348012e-01
6.661486e-01
6.978550e-01
7.297232e-01
7.612373e-01
7.914287e-01
8.187586e-01
8.410898e-01
8.558695e-01
8.606664e-01
8.541286e-01
8.371363e-01
8.135241e-01
0.000000e+00
5.612893e-02
1.145684e-01
1.757112e-01
2.394509e-01
3.052581e-01
3.724194e-01
4.402392e-01
5.081385e-01
5.756749e-01
6.425119e-01
7.083882e-01
7.730959e-01
8.364673e-01
8.983666e-01
9.586869e-01
1.017350e+00
1.074304e+00
1.129523e+00
1.182992e+00
1.234685e+00
1.284530e+00
1.332351e+00
1.377794e+00
1.420237e+00
1.458715e+00
1.491869e+00
1.518017e+00
1.535392e+00
1.542631e+00
1.539503e+00
1.527672e+00
1.511156e+00
0.000000e+00
8.452826e-02
1.728458e-01
2.656441e-01
3.626324e-01
4.626014e-01
5.643357e-01
6.667543e-01
7.690439e-01
8.706076e-01
9.709843e-01
1.069792e+00
1.166697e+00
1.261391e+00
1.353584e+00
1.442996e+00
1.529365e+00
1.612446e+00
1.692015e+00
1.767863e+00
1.839782e+00
1.907537e+00
1.970822e+00
2.029208e+00
2.082086e+00
2.128623e+00
2.167761e+00
2.198312e+00
2.219180e+00
2.229763e+00
2.230515e+00
2.223554e+00
2.213103e+00
0.000000e+00
1.131560e-01
2.321620e-01
3.587111e-01
4.910603e-01
6.268109e-01
7.641227e-01
9.017567e-01
1.038815e+00
1.174657e+00
1.308775e+00
1.440717e+00
1.570044e+00
1.696310e+00
1.819057e+00
1.937808e+00
2.052088e+00
2.161427e+00
2.265382e+00
2.363533e+00
2.455488e+00
2.540865e+00
2.619264e+00
2.690242e+00
2.753271e+00
2.807735e+00
2.852937e+00
2.888189e+00
2.912981e+00
2.927280e+00
2.931957e+00
2.929343e+00
2.923832e+00
0.000000e+00
1.427614e-01
2.951744e-01
4.589654e-01
6.304572e-01
8.038285e-01
9.775032e-01
1.150723e+00
1.322741e+00
1.492962e+00
1.660910e+00
1.826116e+00
1.988056e+00
2.146147e+00
2.299746e+00
2.448157e+00
2.590660e+00
2.726534e+00
2.855086e+00
2.975672e+00
3.087704e+00
3.190651e+00
3.284029e+00
3.367393e+00
3.440324e+00
3.502446e+00
3.553447e+00
3.593149e+00
3.621618e+00
3.639338e+00
3.647499e+00
3.648475e+00
3.646641e+00
0.000000e+00
1.803134e-01
3.733132e-01
5.797906e-01
7.923782e-01
1.004019e+00
1.213804e+00
1.422185e+00
1.628811e+00
1.833124e+00
2.034679e+00
2.233008e+00
2.427516e+00
2.617477e+00
2.802050e+00
2.980307e+00
3.151262e+00
3.313921e+00
3.467323e+00
3.610575e+00
3.742870e+00
3.863502e+00
3.971869e+00
4.067484e+00
4.149994e+00
4.219219e+00
4.275202e+00
4.318280e+00
4.349148e+00
4.368938e+00
4.379302e+00
4.382677e+00
4.383075e+00
0.000000e+00
2.339364e-01
4.862677e-01
7.345510e-01
9.861043e-01
1.234400e+00
1.479202e+00
1.722068e+00
1.962917e+00
2.201112e+00
2.436170e+00
2.667591e+00
2.894684e+00
3.116572e+00
3.332220e+00
3.540468e+00
3.740079e+00
3.929787e+00
4.108362e+00
4.274648e+00
4.427591e+00
4.566255e+00
4.689842e+00
4.797717e+00
4.889463e+00
4.964954e+00
5.024454e+00
5.068739e+00
5.099196e+00
5.117877e+00
5.127429e+00
5.130895e+00
5.131743e+00
0.000000e+00
3.607871e-01
6.515695e-01
9.316532e-01
1.216163e+00
1.497782e+00
1.776434e+00
2.053463e+00
2.328515e+00
2.600782e+00
2.869660e+00
3.134515e+00
3.394511e+00
3.648605e+00
3.895583e+00
4.134086e+00
4.362661e+00
4.579815e+00
4.784078e+00
4.974035e+00
5.148358e+00
5.305814e+00
5.445285e+00
5.565816e+00
5.666688e+00
5.747540e+00
5.808551e+00
5.850658e+00
5.875803e+00
5.887165e+00
5.889255e+00
5.887565e+00
5.886609e+00
0.000000e+00
-2.234333e-01
-4.039744e-01
-6.117344e-01
-8.462897e-01
-1.110531e+00
-1.407480e+00
-1.738281e+00
-2.103043e+00
-2.501760e+00
-2.934279e+00
-3.400200e+00
-3.898914e+00
-4.429643e+00
-4.991451e+00
-5.583258e+00
-6.203861e+00
-6.851966e+00
-7.526236e+00
-8.225335e+00
-8.948008e+00
-9.693167e+00
-1.046003e+01
-1.124828e+01
-1.205840e+01
-1.289204e+01
-1.375276e+01
-1.464717e+01
-1.558715e+01
-1.659482e+01
-1.771804e+01
-1.907155e+01
-2.091885e+01
0.000000e+00
-1.393468e-01
-3.276888e-01
-5.326955e-01
-7.668345e-01
-1.031839e+00
-1.329433e+00
-1.660736e+00
-2.026179e+00
-2.425781e+00
-2.859346e+00
-3.326498e+00
-3.826672e+00
-4.359121e+00
-4.922926e+00
-5.517003e+00
-6.140123e+00
-6.790947e+00
-7.468067e+00
-8.170068e+00
-8.895598e+00
-9.643470e+00
-1.041279e+01
-1.120313e+01
-1.201482e+01
-1.284938e+01
-1.371020e+01
-1.460376e+01
-1.554198e+01
-1.654775e+01
-1.766724e+01
-1.899414e+01
-2.071255e+01
0.000000e+00
-1.036626e-01
-2.679206e-01
-4.682094e-01
-6.999401e-01
-9.645114e-01
-1.262246e+00
-1.593865e+00
-1.959837e+00
-2.360185e+00
-2.794681e+00
-3.262945e+00
-3.764434e+00
-4.298425e+00
-4.864010e+00
-5.460110e+00
-6.085484e+00
-6.738766e+00
-7.418510e+00
-8.123253e+00
-8.851597e+00
-9.602306e+00
-1.037445e+01
-1.116757e+01
-1.198202e+01
-1.281934e+01
-1.368304e+01
-1.457986e+01
-1.552219e+01
-1.653196e+01
-1.764228e+01
-1.888218e+01
-2.023517e+01
0.000000e+00
-8.693183e-02
-2.319676e-01
-4.208978e-01
-6.477518e-01
-9.099423e-01
-1.206731e+00
-1.538148e+00
-1.904352e+00
-2.305244e+00
-2.740533e+00
-3.209805e+00
-3.712506e+00
-4.247913e+00
-4.815127e+00
-5.413075e+00
-6.040519e+00
-6.696090e+00
-7.378334e+00
-8.085781e+00
-8.817021e+00
-9.570820e+00
-1.034625e+01
-1.114290e+01
-1.196114e+01
-1.280255e+01
-1.367060e+01
-1.457167e+01
-1.551656e+01
-1.652091e+01
-1.759495e+01
-1.871774e+01
-1.975822e+01
0.000000e+00
-7.872019e-02
-2.109153e-01
-3.896323e-01
-6.098617e-01
-8.683077e-01
-1.163169e+00
-1.493799e+00
-1.859879e+00
-2.261084e+00
-2.697009e+00
-3.167172e+00
-3.670975e+00
-4.207682e+00
-4.776393e+00
-5.376043e+00
-6.005410e+00
-6.663139e+00
-7.347793e+00
-8.057916e+00
-8.792113e+00
-9.549161e+00
-1.032814e+01
-1.112863e+01
-1.195092e+01
-1.279638e+01
-1.366786e+01
-1.457017e+01
-1.551012e+01
-1.649368e+01
-1.751323e+01
-1.852278e+01
-1.942949e+01
0.000000e+00
-7.340551e-02
-1.978879e-01
-3.692356e-01
-5.837258e-01
-8.382831e-01
-1.130913e+00
-1.460447e+00
-1.826167e+00
-2.227505e+00
-2.663921e+00
-3.134843e+00
-3.639625e+00
-4.177503e+00
-4.747575e+00
-5.348787e+00
-5.979935e+00
-6.639692e+00
-7.326646e+00
-8.039358e+00
-8.776445e+00
-9.536674e+00
-1.031908e+01
-1.112311e+01
-1.194879e+01
-1.279691e+01
-1.366910e+01
-1.456767e+01
-1.549448e+01
-1.644700e+01
-1.740771e+01
-1.833468e+01
-1.916742e+01
0.000000e+00
-6.991006e-02
-1.897173e-01
-3.563021e-01
-5.666705e-01
-8.181963e-01
-1.108899e+00
-1.437399e+00
-1.802720e+00
-2.204108e+00
-2.640902e+00
-3.112455e+00
-3.618072e+00
-4.156971e+00
-4.728248e+00
-5.330861e+00
-5.963628e+00
-6.625246e+00
-7.314324e+00
-8.029433e+00
-8.769172e+00
-9.532248e+00
-1.031757e+01
-1.112432e+01
-1.195205e+01
-1.280069e+01
-1.367031e+01
-1.456056e+01
-1.546908e+01
-1.638798e+01
-1.729803e+01
-1.816630e+01
-1.895251e+01
0.000000e+00
-6.793234e-02
-1.851537e-01
-3.490585e-01
-5.570256e-01
-8.066949e-01
-1.096161e+00
-1.423972e+00
-1.789031e+00
-2.190478e+00
-2.627575e+00
-3.099629e+00
-3.605921e+00
-4.145661e+00
-4.717949e+00
-5.321761e+00
-5.955933e+00
-6.619181e+00
-7.310120e+00
-8.027303e+00
-8.769279e+00
-9.534638e+00
-1.032207e+01
-1.113040e+01
-1.195857e+01
-1.280550e+01
-1.366977e+01
-1.454882e+01
-1.543754e+01
-1.632589e+01
-1.719629e+01
-1.802371e+01
-1.878032e+01
0.000000e+00
-6.728422e-02
-1.836710e-01
-3.467153e-01
-5.539107e-01
-8.029851e-01
-1.092066e+00
-1.419690e+00
-1.784731e+00
-2.186302e+00
-2.623649e+00
-3.096070e+00
-3.602852e+00
-4.143214e+00
-4.716275e+00
-5.321027e+00
-5.956324e+00
-6.620887e+00
-7.313319e+00
-8.032135e+00
-8.775790e+00
-9.542710e+00
-1.033131e+01
-1.114000e+01
-1.196705e+01
-1.281048e+01
-1.366761e+01
-1.453439e+01
-1.540434e+01
-1.626726e+01
-1.710814e+01
-1.790794e+01
-1.864646e+01
0.000000e+00
-6.790337e-02
-1.851187e-01
-3.490425e-01
-5.570564e-01
-8.068051e-01
-1.096391e+00
-1.424373e+00
-1.789670e+00
-2.191442e+00
-2.628978e+00
-3.101614e+00
-3.608670e+00
-4.149397e+00
-4.722939e+00
-5.328311e+00
-5.964377e+00
-6.629854e+00
-7.323319e+00
-8.043221e+00
-8.787898e+00
-9.555587e+00
-1.034441e+01
-1.115232e+01
-1.197703e+01
-1.281576e+01
-1.366494e+01
-1.451969e+01
-1.537316e+01
-1.621587e+01
-1.703544e+01
-1.781728e+01
-1.854613e+01
0.000000e+00
-6.985174e-02
-1.896465e-01
-3.562678e-01
-5.667263e-01
-8.184045e-01
-1.109337e+00
-1.438165e+00
-1.803943e+00
-2.205954e+00
-2.643588e+00
-3.116256e+00
-3.623338e+00
-4.164131e+00
-4.737814e+00
-5.343422e+00
-5.979829e+00
-6.645738e+00
-7.339687e+00
-8.060051e+00
-8.805039e+00
-9.572692e+00
-1.036085e+01
-1.116707e+01
-1.198856e+01
-1.282198e+01
-1.366318e+01
-1.450691e+01
-1.534650e+01
-1.617359e+01
-1.697817e+01
-1.774909e+01
-1.847476e+01
0.000000e+00
-7.331756e-02
-1.977809e-01
-3.691798e-01
-5.837964e-01
-8.385672e-01
-1.131519e+00
-1.461513e+00
-1.827872e+00
-2.230081e+00
-2.667670e+00
-3.140152e+00
-3.646980e+00
-4.187506e+00
-4.760946e+00
-5.366354e+00
-6.002608e+00
-6.668393e+00
-7.362206e+00
-8.082344e+00
-8.826899e+00
-9.593733e+00
-1.038044e+01
-1.118426e+01
-1.200202e+01
-1.282996e+01
-1.366362e+01
-1.449769e+01
-1.532589e+01
-1.614106e+01
-1.693531e+01
-1.770040e+01
-1.842792e+01
0.000000e+00
-7.860394e-02
-2.107744e-01
-3.895531e-01
-6.099353e-01
-8.686399e-01
-1.163891e+00
-1.495077e+00
-1.861931e+00
-2.264191e+00
-2.701536e+00
-3.173583e+00
-3.679860e+00
-4.219767e+00
-4.792552e+00
-5.397282e+00
-6.032833e+00
-6.697875e+00
-7.390864e+00
-8.110037e+00
-8.853387e+00
-9.618639e+00
-1.040320e+01
-1.120407e+01
-1.201782e+01
-1.284042e+01
-1.366725e+01
-1.449306e+01
-1.531207e+01
-1.611817e+01
-1.690537e+01
-1.766806e+01
-1.840109e+01
0.000000e+00
-8.679380e-02
-2.318020e-01
-4.207989e-01
-6.478203e-01
-9.102964e-01
-1.207516e+00
-1.539550e+00
-1.906612e+00
-2.308673e+00
-2.745533e+00
-3.216889e+00
-3.722321e+00
-4.261260e+00
-4.832967e+00
-5.436516e+00
-6.070776e+00
-6.734403e+00
-7.425828e+00
-8.143244e+00
-8.884587e+00
-9.647491e+00
-1.042924e+01
-1.122671e+01
-1.203627e+01
-1.285379e+01
-1.367456e+01
-1.449346e+01
-1.530510e+01
-1.610427e+01
-1.688652e+01
-1.764875e+01
-1.838938e+01
0.000000e+00
-1.035223e-01
-2.677507e-01
-4.681034e-01
-7.000049e-01
-9.648731e-01
-1.263058e+00
-1.595323e+00
-1.962191e+00
-2.363760e+00
-2.799893e+00
-3.270325e+00
-3.774650e+00
-4.312298e+00
-4.882523e+00
-5.484388e+00
-6.116755e+00
-6.778271e+00
-7.467358e+00
-8.182196e+00
-8.920697e+00
-9.680461e+00
-1.045872e+01
-1.125229e+01
-1.205748e+01
-1.287010e+01
-1.368548e+01
-1.449859e+01
-1.530436e+01
-1.609819e+01
-1.687675e+01
-1.763904e+01
-1.838731e+01
0.000000e+00
-1.392294e-01
-3.275344e-01
-5.326003e-01
-7.669098e-01
-1.032215e+00
-1.330266e+00
-1.662223e+00
-2.028575e+00
-2.429408e+00
-2.864620e+00
-3.333945e+00
-3.836948e+00
-4.373025e+00
-4.941399e+00
-5.541113e+00
-6.171014e+00
-6.829747e+00
-7.515739e+00
-8.227182e+00
-8.961997e+00
-9.717793e+00
-1.049181e+01
-1.128087e+01
-1.208130e+01
-1.288896e+01
-1.369925e+01
-1.450730e+01
-1.530827e+01
-1.609792e+01
-1.687357e+01
-1.763553e+01
-1.838903e+01
0.000000e+00
-2.233467e-01
-4.038505e-01
-6.116741e-01
-8.464031e-01
-1.110949e+00
-1.408362e+00
-1.739826e+00
-2.105501e+00
-2.505452e+00
-2.939610e+00
-3.407681e+00
-3.909172e+00
-4.443425e+00
-5.009623e+00
-5.606772e+00
-6.233702e+00
-6.889057e+00
-7.571276e+00
-8.278572e+00
-9.008894e+00
-9.759878e+00
-1.052880e+01