TITLE = "Solution"
VARIABLES = x, y, u, v, psiu, psiv, t, stress
ZONE T="structure" N=561 E=512 F=FEBLOCK ET=QUADRILATERAL VARLOCATION=([7,8]=cellcentered)
0.000000e+00
6.250000e+00
1.250000e+01
1.875000e+01
2.500000e+01
3.125000e+01
3.750000e+01
4.375000e+01
5.000000e+01
5.625000e+01
6.250000e+01
6.875000e+01
7.500000e+01
8.125000e+01
8.750000e+01
9.375000e+01
1.000000e+02
1.062500e+02
1.125000e+02
1.187500e+02
1.250000e+02
1.312500e+02
1.375000e+02
1.437500e+02
1.500000e+02
1.562500e+02
1.625000e+02
1.687500e+02
1.750000e+02
1.812500e+02
1.875000e+02
1.937500e+02
2.000000e+02
0.000000e+00
6.250000e+00
1.250000e+01
1.875000e+01
2.500000e+01
3.125000e+01
3.750000e+01
4.375000e+01
5.000000e+01
5.625000e+01
6.250000e+01
6.875000e+01
7.500000e+01
8.125000e+01
8.750000e+01
9.375000e+01
1.000000e+02
1.062500e+02
1.125000e+02
1.187500e+02
1.250000e+02
1.312500e+02
1.375000e+02
1.437500e+02
1.500000e+02
1.562500e+02
1.625000e+02
1.687500e+02
1.750000e+02
1.812500e+02
1.875000e+02
1.937500e+02
2.000000e+02
0.000000e+00
6.250000e+00
1.250000e+01
1.875000e+01
2.500000e+01
3.125000e+01
3.750000e+01
4.375000e+01
5.000000e+01
5.625000e+01
6.250000e+01
6.875000e+01
7.500000e+01
8.125000e+01
8.750000e+01
9.375000e+01
1.000000e+02
1.062500e+02
1.125000e+02
1.187500e+02
1.250000e+02
1.312500e+02
1.375000e+02
1.437500e+02
1.500000e+02
1.562500e+02
1.625000e+02
1.687500e+02
1.750000e+02
1.812500e+02
1.875000e+02
1.937500e+02
2.000000e+02
0.000000e+00
6.250000e+00
1.250000e+01
1.875000e+01
2.500000e+01
3.125000e+01
3.750000e+01
4.375000e+01
5.000000e+01
5.625000e+01
6.250000e+01
6.875000e+01
7.500000e+01
8.125000e+01
8.750000e+01
9.375000e+01
1.000000e+02
1.062500e+02
1.125000e+02
1.187500e+02
1.250000e+02
1.312500e+02
1.375000e+02
1.437500e+02
1.500000e+02
1.562500e+02
1.625000e+02
1.687500e+02
1.750000e+02
1.812500e+02
1.875000e+02
1.937500e+02
2.000000e+02
0.000000e+00
6.250000e+00
1.250000e+01
1.875000e+01
2.500000e+01
3.125000e+01
3.750000e+01
4.375000e+01
5.000000e+01
5.625000e+01
6.250000e+01
6.875000e+01
7.500000e+01
8.125000e+01
8.750000e+01
9.375000e+01
1.000000e+02
1.062500e+02
1.125000e+02
1.187500e+02
1.250000e+02
1.312500e+02
1.375000e+02
1.437500e+02
1.500000e+02
1.562500e+02
1.625000e+02
1.687500e+02
1.750000e+02
1.812500e+02
1.875000e+02
1.937500e+02
2.000000e+02
0.000000e+00
6.250000e+00
1.250000e+01
1.875000e+01
2.500000e+01
3.125000e+01
3.750000e+01
4.375000e+01
5.000000e+01
5.625000e+01
6.250000e+01
6.875000e+01
7.500000e+01
8.125000e+01
8.750000e+01
9.375000e+01
1.000000e+02
1.062500e+02
1.125000e+02
1.187500e+02
1.250000e+02
1.312500e+02
1.375000e+02
1.437500e+02
1.500000e+02
1.562500e+02
1.625000e+02
1.687500e+02
1.750000e+02
1.812500e+02
1.875000e+02
1.937500e+02
2.000000e+02
0.000000e+00
6.250000e+00
1.250000e+01
1.875000e+01
2.500000e+01
3.125000e+01
3.750000e+01
4.375000e+01
5.000000e+01
5.625000e+01
6.250000e+01
6.875000e+01
7.500000e+01
8.125000e+01
8.750000e+01
9.375000e+01
1.000000e+02
1.062500e+02
1.125000e+02
1.187500e+02
1.250000e+02
1.312500e+02
1.375000e+02
1.437500e+02
1.500000e+02
1.562500e+02
1.625000e+02
1.687500e+02
1.750000e+02
1.812500e+02
1.875000e+02
1.937500e+02
2.000000e+02
0.000000e+00
6.250000e+00
1.250000e+01
1.875000e+01
2.500000e+01
3.125000e+01
3.750000e+01
4.375000e+01
5.000000e+01
5.625000e+01
6.250000e+01
6.875000e+01
7.500000e+01
8.125000e+01
8.750000e+01
9.375000e+01
1.000000e+02
1.062500e+02
1.125000e+02
1.187500e+02
1.250000e+02
1.312500e+02
1.375000e+02
1.437500e+02
1.500000e+02
1.562500e+02
1.625000e+02
1.687500e+02
1.750000e+02
1.812500e+02
1.875000e+02
1.937500e+02
2.000000e+02
0.000000e+00
6.250000e+00
1.250000e+01
1.875000e+01
2.500000e+01
3.125000e+01
3.750000e+01
4.375000e+01
5.000000e+01
5.625000e+01
6.250000e+01
6.875000e+01
7.500000e+01
8.125000e+01
8.750000e+01
9.375000e+01
1.000000e+02
1.062500e+02
1.125000e+02
1.187500e+02
1.250000e+02
1.312500e+02
1.375000e+02
1.437500e+02
1.500000e+02
1.562500e+02
1.625000e+02
1.687500e+02
1.750000e+02
1.812500e+02
1.875000e+02
1.937500e+02
2.000000e+02
0.000000e+00
6.250000e+00
1.250000e+01
1.875000e+01
2.500000e+01
3.125000e+01
3.750000e+01
4.375000e+01
5.000000e+01
5.625000e+01
6.250000e+01
6.875000e+01
7.500000e+01
8.125000e+01
8.750000e+01
9.375000e+01
1.000000e+02
1.062500e+02
1.125000e+02
1.187500e+02
1.250000e+02
1.312500e+02
1.375000e+02
1.437500e+02
1.500000e+02
1.562500e+02
1.625000e+02
1.687500e+02
1.750000e+02
1.812500e+02
1.875000e+02
1.937500e+02
2.000000e+02
0.000000e+00
6.250000e+00
1.250000e+01
1.875000e+01
2.500000e+01
3.125000e+01
3.750000e+01
4.375000e+01
5.000000e+01
5.625000e+01
6.250000e+01
6.875000e+01
7.500000e+01
8.125000e+01
8.750000e+01
9.375000e+01
1.000000e+02
1.062500e+02
1.125000e+02
1.187500e+02
1.250000e+02
1.312500e+02
1.375000e+02
1.437500e+02
1.500000e+02
1.562500e+02
1.625000e+02
1.687500e+02
1.750000e+02
1.812500e+02
1.875000e+02
1.937500e+02
2.000000e+02
0.000000e+00
6.250000e+00
1.250000e+01
1.875000e+01
2.500000e+01
3.125000e+01
3.750000e+01
4.375000e+01
5.000000e+01
5.625000e+01
6.250000e+01
6.875000e+01
7.500000e+01
8.125000e+01
8.750000e+01
9.375000e+01
1.000000e+02
1.062500e+02
1.125000e+02
1.187500e+02
1.250000e+02
1.312500e+02
1.375000e+02
1.437500e+02
1.500000e+02
1.562500e+02
1.625000e+02
1.687500e+02
1.750000e+02
1.812500e+02
1.875000e+02
1.937500e+02
2.000000e+02
0.000000e+00
6.250000e+00
1.250000e+01
1.875000e+01
2.500000e+01
3.125000e+01
3.750000e+01
4.375000e+01
5.000000e+01
5.625000e+01
6.250000e+01
6.875000e+01
7.500000e+01
8.125000e+01
8.750000e+01
9.375000e+01
1.000000e+02
1.062500e+02
1.125000e+02
1.187500e+02
1.250000e+02
1.312500e+02
1.375000e+02
1.437500e+02
1.500000e+02
1.562500e+02
1.625000e+02
1.687500e+02
1.750000e+02
1.812500e+02
1.875000e+02
1.937500e+02
2.000000e+02
0.000000e+00
6.250000e+00
1.250000e+01
1.875000e+01
2.500000e+01
3.125000e+01
3.750000e+01
4.375000e+01
5.000000e+01
5.625000e+01
6.250000e+01
6.875000e+01
7.500000e+01
8.125000e+01
8.750000e+01
9.375000e+01
1.000000e+02
1.062500e+02
1.125000e+02
1.187500e+02
1.250000e+02
1.312500e+02
1.375000e+02
1.437500e+02
1.500000e+02
1.562500e+02
1.625000e+02
1.687500e+02
1.750000e+02
1.812500e+02
1.875000e+02
1.937500e+02
2.000000e+02
0.000000e+00
6.250000e+00
1.250000e+01
1.875000e+01
2.500000e+01
3.125000e+01
3.750000e+01
4.375000e+01
5.000000e+01
5.625000e+01
6.250000e+01
6.875000e+01
7.500000e+01
8.125000e+01
8.750000e+01
9.375000e+01
1.000000e+02
1.062500e+02
1.125000e+02
1.187500e+02
1.250000e+02
1.312500e+02
1.375000e+02
1.437500e+02
1.500000e+02
1.562500e+02
1.625000e+02
1.687500e+02
1.750000e+02
1.812500e+02
1.875000e+02
1.937500e+02
2.000000e+02
0.000000e+00
6.250000e+00
1.250000e+01
1.875000e+01
2.500000e+01
3.125000e+01
3.750000e+01
4.375000e+01
5.000000e+01
5.625000e+01
6.250000e+01
6.875000e+01
7.500000e+01
8.125000e+01
8.750000e+01
9.375000e+01
1.000000e+02
1.062500e+02
1.125000e+02
1.187500e+02
1.250000e+02
1.312500e+02
1.375000e+02
1.437500e+02
1.500000e+02
1.562500e+02
1.625000e+02
1.687500e+02
1.750000e+02
1.812500e+02
1.875000e+02
1.937500e+02
2.000000e+02
0.000000e+00
6.250000e+00
1.250000e+01
1.875000e+01
2.500000e+01
3.125000e+01
3.750000e+01
4.375000e+01
5.000000e+01
5.625000e+01
6.250000e+01
6.875000e+01
7.500000e+01
8.125000e+01
8.750000e+01
9.375000e+01
1.000000e+02
1.062500e+02
1.125000e+02
1.187500e+02
1.250000e+02
1.312500e+02
1.375000e+02
1.437500e+02
1.500000e+02
1.562500e+02
1.625000e+02
1.687500e+02
1.750000e+02
1.812500e+02
1.875000e+02
1.937500e+02
2.000000e+02
0.000000e+00
0.000000e+00
0.000000e+00
0.000000e+00
0.000000e+00
0.000000e+00
0.000000e+00
0.000000e+00
0.000000e+00
0.000000e+00
0.000000e+00
0.000000e+00
0.000000e+00
0.000000e+00
0.000000e+00
0.000000e+00
0.000000e+00
0.000000e+00
0.000000e+00
0.000000e+00
0.000000e+00
0.000000e+00
0.000000e+00
0.000000e+00
0.000000e+00
0.000000e+00
0.000000e+00
0.000000e+00
0.000000e+00
0.000000e+00
0.000000e+00
0.000000e+00
0.000000e+00
6.250000e+00
6.250000e+00
6.250000e+00
6.250000e+00
6.250000e+00
6.250000e+00
6.250000e+00
6.250000e+00
6.250000e+00
6.250000e+00
6.250000e+00
6.250000e+00
6.250000e+00
6.250000e+00
6.250000e+00
6.250000e+00
6.250000e+00
6.250000e+00
6.250000e+00
6.250000e+00
6.250000e+00
6.250000e+00
6.250000e+00
6.250000e+00
6.250000e+00
6.250000e+00
6.250000e+00
6.250000e+00
6.250000e+00
6.250000e+00
6.250000e+00
6.250000e+00
6.250000e+00
1.250000e+01
1.250000e+01
1.250000e+01
1.250000e+01
1.250000e+01
1.250000e+01
1.250000e+01
1.250000e+01
1.250000e+01
1.250000e+01
1.250000e+01
1.250000e+01
1.250000e+01
1.250000e+01
1.250000e+01
1.250000e+01
1.250000e+01
1.250000e+01
1.250000e+01
1.250000e+01
1.250000e+01
1.250000e+01
1.250000e+01
1.250000e+01
1.250000e+01
1.250000e+01
1.250000e+01
1.250000e+01
1.250000e+01
1.250000e+01
1.250000e+01
1.250000e+01
1.250000e+01
1.875000e+01
1.875000e+01
1.875000e+01
1.875000e+01
1.875000e+01
1.875000e+01
1.875000e+01
1.875000e+01
1.875000e+01
1.875000e+01
1.875000e+01
1.875000e+01
1.875000e+01
1.875000e+01
1.875000e+01
1.875000e+01
1.875000e+01
1.875000e+01
1.875000e+01
1.875000e+01
1.875000e+01
1.875000e+01
1.875000e+01
1.875000e+01
1.875000e+01
1.875000e+01
1.875000e+01
1.875000e+01
1.875000e+01
1.875000e+01
1.875000e+01
1.875000e+01
1.875000e+01
2.500000e+01
2.500000e+01
2.500000e+01
2.500000e+01
2.500000e+01
2.500000e+01
2.500000e+01
2.500000e+01
2.500000e+01
2.500000e+01
2.500000e+01
2.500000e+01
2.500000e+01
2.500000e+01
2.500000e+01
2.500000e+01
2.500000e+01
2.500000e+01
2.500000e+01
2.500000e+01
2.500000e+01
2.500000e+01
2.500000e+01
2.500000e+01
2.500000e+01
2.500000e+01
2.500000e+01
2.500000e+01
2.500000e+01
2.500000e+01
2.500000e+01
2.500000e+01
2.500000e+01
3.125000e+01
3.125000e+01
3.125000e+01
3.125000e+01
3.125000e+01
3.125000e+01
3.125000e+01
3.125000e+01
3.125000e+01
3.125000e+01
3.125000e+01
3.125000e+01
3.125000e+01
3.125000e+01
3.125000e+01
3.125000e+01
3.125000e+01
3.125000e+01
3.125000e+01
3.125000e+01
3.125000e+01
3.125000e+01
3.125000e+01
3.125000e+01
3.125000e+01
3.125000e+01
3.125000e+01
3.125000e+01
3.125000e+01
3.125000e+01
3.125000e+01
3.125000e+01
3.125000e+01
3.750000e+01
3.750000e+01
3.750000e+01
3.750000e+01
3.750000e+01
3.750000e+01
3.750000e+01
3.750000e+01
3.750000e+01
3.750000e+01
3.750000e+01
3.750000e+01
3.750000e+01
3.750000e+01
3.750000e+01
3.750000e+01
3.750000e+01
3.750000e+01
3.750000e+01
3.750000e+01
3.750000e+01
3.750000e+01
3.750000e+01
3.750000e+01
3.750000e+01
3.750000e+01
3.750000e+01
3.750000e+01
3.750000e+01
3.750000e+01
3.750000e+01
3.750000e+01
3.750000e+01
4.375000e+01
4.375000e+01
4.375000e+01
4.375000e+01
4.375000e+01
4.375000e+01
4.375000e+01
4.375000e+01
4.375000e+01
4.375000e+01
4.375000e+01
4.375000e+01
4.375000e+01
4.375000e+01
4.375000e+01
4.375000e+01
4.375000e+01
4.375000e+01
4.375000e+01
4.375000e+01
4.375000e+01
4.375000e+01
4.375000e+01
4.375000e+01
4.375000e+01
4.375000e+01
4.375000e+01
4.375000e+01
4.375000e+01
4.375000e+01
4.375000e+01
4.375000e+01
4.375000e+01
5.000000e+01
5.000000e+01
5.000000e+01
5.000000e+01
5.000000e+01
5.000000e+01
5.000000e+01
5.000000e+01
5.000000e+01
5.000000e+01
5.000000e+01
5.000000e+01
5.000000e+01
5.000000e+01
5.000000e+01
5.000000e+01
5.000000e+01
5.000000e+01
5.000000e+01
5.000000e+01
5.000000e+01
5.000000e+01
5.000000e+01
5.000000e+01
5.000000e+01
5.000000e+01
5.000000e+01
5.000000e+01
5.000000e+01
5.000000e+01
5.000000e+01
5.000000e+01
5.000000e+01
5.625000e+01
5.625000e+01
5.625000e+01
5.625000e+01
5.625000e+01
5.625000e+01
5.625000e+01
5.625000e+01
5.625000e+01
5.625000e+01
5.625000e+01
5.625000e+01
5.625000e+01
5.625000e+01
5.625000e+01
5.625000e+01
5.625000e+01
5.625000e+01
5.625000e+01
5.625000e+01
5.625000e+01
5.625000e+01
5.625000e+01
5.625000e+01
5.625000e+01
5.625000e+01
5.625000e+01
5.625000e+01
5.625000e+01
5.625000e+01
5.625000e+01
5.625000e+01
5.625000e+01
6.250000e+01
6.250000e+01
6.250000e+01
6.250000e+01
6.250000e+01
6.250000e+01
6.250000e+01
6.250000e+01
6.250000e+01
6.250000e+01
6.250000e+01
6.250000e+01
6.250000e+01
6.250000e+01
6.250000e+01
6.250000e+01
6.250000e+01
6.250000e+01
6.250000e+01
6.250000e+01
6.250000e+01
6.250000e+01
6.250000e+01
6.250000e+01
6.250000e+01
6.250000e+01
6.250000e+01
6.250000e+01
6.250000e+01
6.250000e+01
6.250000e+01
6.250000e+01
6.250000e+01
6.875000e+01
6.875000e+01
6.875000e+01
6.875000e+01
6.875000e+01
6.875000e+01
6.875000e+01
6.875000e+01
6.875000e+01
6.875000e+01
6.875000e+01
6.875000e+01
6.875000e+01
6.875000e+01
6.875000e+01
6.875000e+01
6.875000e+01
6.875000e+01
6.875000e+01
6.875000e+01
6.875000e+01
6.875000e+01
6.875000e+01
6.875000e+01
6.875000e+01
6.875000e+01
6.875000e+01
6.875000e+01
6.875000e+01
6.875000e+01
6.875000e+01
6.875000e+01
6.875000e+01
7.500000e+01
7.500000e+01
7.500000e+01
7.500000e+01
7.500000e+01
7.500000e+01
7.500000e+01
7.500000e+01
7.500000e+01
7.500000e+01
7.500000e+01
7.500000e+01
7.500000e+01
7.500000e+01
7.500000e+01
7.500000e+01
7.500000e+01
7.500000e+01
7.500000e+01
7.500000e+01
7.500000e+01
7.500000e+01
7.500000e+01
7.500000e+01
7.500000e+01
7.500000e+01
7.500000e+01
7.500000e+01
7.500000e+01
7.500000e+01
7.500000e+01
7.500000e+01
7.500000e+01
8.125000e+01
8.125000e+01
8.125000e+01
8.125000e+01
8.125000e+01
8.125000e+01
8.125000e+01
8.125000e+01
8.125000e+01
8.125000e+01
8.125000e+01
8.125000e+01
8.125000e+01
8.125000e+01
8.125000e+01
8.125000e+01
8.125000e+01
8.125000e+01
8.125000e+01
8.125000e+01
8.125000e+01
8.125000e+01
8.125000e+01
8.125000e+01
8.125000e+01
8.125000e+01
8.125000e+01
8.125000e+01
8.125000e+01
8.125000e+01
8.125000e+01
8.125000e+01
8.125000e+01
8.750000e+01
8.750000e+01
8.750000e+01
8.750000e+01
8.750000e+01
8.750000e+01
8.750000e+01
8.750000e+01
8.750000e+01
8.750000e+01
8.750000e+01
8.750000e+01
8.750000e+01
8.750000e+01
8.750000e+01
8.750000e+01
8.750000e+01
8.750000e+01
8.750000e+01
8.750000e+01
8.750000e+01
8.750000e+01
8.750000e+01
8.750000e+01
8.750000e+01
8.750000e+01
8.750000e+01
8.750000e+01
8.750000e+01
8.750000e+01
8.750000e+01
8.750000e+01
8.750000e+01
9.375000e+01
9.375000e+01
9.375000e+01
9.375000e+01
9.375000e+01
9.375000e+01
9.375000e+01
9.375000e+01
9.375000e+01
9.375000e+01
9.375000e+01
9.375000e+01
9.375000e+01
9.375000e+01
9.375000e+01
9.375000e+01
9.375000e+01
9.375000e+01
9.375000e+01
9.375000e+01
9.375000e+01
9.375000e+01
9.375000e+01
9.375000e+01
9.375000e+01
9.375000e+01
9.375000e+01
9.375000e+01
9.375000e+01
9.375000e+01
9.375000e+01
9.375000e+01
9.375000e+01
1.000000e+02
1.000000e+02
1.000000e+02
1.000000e+02
1.000000e+02
1.000000e+02
1.000000e+02
1.000000e+02
1.000000e+02
1.000000e+02
1.000000e+02
1.000000e+02
1.000000e+02
1.000000e+02
1.000000e+02
1.000000e+02
1.000000e+02
1.000000e+02
1.000000e+02
1.000000e+02
1.000000e+02
1.000000e+02
1.000000e+02
1.000000e+02
1.000000e+02
1.000000e+02
1.000000e+02
1.000000e+02
1.000000e+02
1.000000e+02
1.000000e+02
1.000000e+02
1.000000e+02
0.000000e+00
-3.770902e-01
-6.774649e-01
-9.708411e-01
-1.270635e+00
-1.562411e+00
-1.853384e+00
-2.145669e+00
-2.436560e+00
-2.726059e+00
-3.014817e+00
-3.302529e+00
-3.588772e+00
-3.873323e+00
-4.155876e+00
-4.435948e+00
-4.712907e+00
-4.985903e+00
-5.253825e+00
-5.515368e+00
-5.769266e+00
-6.014612e+00
-6.251154e+00
-6.479519e+00
-6.701335e+00
-6.919324e+00
-7.137411e+00
-7.361003e+00
-7.597837e+00
-7.858940e+00
-8.150976e+00
-8.459453e+00
-8.638172e+00
0.000000e+00
-2.379756e-01
-4.928415e-01
-7.486235e-01
-1.011265e+00
-1.267308e+00
-1.522210e+00
-1.778250e+00
-2.033050e+00
-2.286456e+00
-2.539097e+00
-2.790764e+00
-3.041089e+00
-3.289887e+00
-3.536908e+00
-3.781747e+00
-4.023859e+00
-4.262506e+00
-4.496695e+00
-4.725205e+00
-4.946764e+00
-5.160281e+00
-5.365077e+00
-5.561009e+00
-5.748487e+00
-5.928391e+00
-6.101890e+00
-6.270088e+00
-6.432887e+00
-6.584129e+00
-6.700587e+00
-6.761076e+00
-6.840096e+00
0.000000e+00
-1.761471e-01
-3.656014e-01
-5.747270e-01
-7.937968e-01
-1.010965e+00
-1.228980e+00
-1.448301e+00
-1.667018e+00
-1.884907e+00
-2.102193e+00
-2.318608e+00
-2.533821e+00
-2.747601e+00
-2.959646e+00
-3.169523e+00
-3.376668e+00
-3.580336e+00
-3.779562e+00
-3.973171e+00
-4.159888e+00
-4.338475e+00
-4.507857e+00
-4.667164e+00
-4.815659e+00
-4.952550e+00
-5.076628e+00
-5.185570e+00
-5.274400e+00
-5.332596e+00
-5.347768e+00
-5.341736e+00
-5.422752e+00
0.000000e+00
-1.361247e-01
-2.823340e-01
-4.450730e-01
-6.188555e-01
-7.958284e-01
-9.759116e-01
-1.157772e+00
-1.339925e+00
-1.521977e+00
-1.703684e+00
-1.884654e+00
-2.064542e+00
-2.243030e+00
-2.419729e+00
-2.594149e+00
-2.765677e+00
-2.933551e+00
-3.096824e+00
-3.254379e+00
-3.404966e+00
-3.547265e+00
-3.679930e+00
-3.801576e+00
-3.910694e+00
-4.005469e+00
-4.083505e+00
-4.141466e+00
-4.174882e+00
-4.179754e+00
-4.164208e+00
-4.166325e+00
-4.241187e+00
0.000000e+00
-1.094057e-01
-2.237191e-01
-3.478501e-01
-4.797122e-01
-6.174546e-01
-7.590051e-01
-9.027209e-01
-1.047563e+00
-1.192853e+00
-1.338043e+00
-1.482680e+00
-1.626373e+00
-1.768727e+00
-1.909297e+00
-2.047560e+00
-2.182887e+00
-2.314523e+00
-2.441568e+00
-2.562971e+00
-2.677536e+00
-2.783934e+00
-2.880714e+00
-2.966282e+00
-3.038868e+00
-3.096466e+00
-3.136842e+00
-3.157800e+00
-3.158335e+00
-3.142517e+00
-3.128982e+00
-3.152048e+00
-3.225038e+00
0.000000e+00
-8.248883e-02
-1.681267e-01
-2.585814e-01
-3.547182e-01
-4.555560e-01
-5.598478e-01
-6.663727e-01
-7.742217e-01
-8.826964e-01
-9.912299e-01
-1.099360e+00
-1.206677e+00
-1.312770e+00
-1.417189e+00
-1.519420e+00
-1.618858e+00
-1.714792e+00
-1.806391e+00
-1.892689e+00
-1.972583e+00
-2.044831e+00
-2.108060e+00
-2.160788e+00
-2.201465e+00
-2.228586e+00
-2.240986e+00
-2.238562e+00
-2.223933e+00
-2.205770e+00
-2.202855e+00
-2.235281e+00
-2.306421e+00
0.000000e+00
-5.509839e-02
-1.120387e-01
-1.718050e-01
-2.348719e-01
-3.010570e-01
-3.696955e-01
-4.400569e-01
-5.114877e-01
-5.834416e-01
-6.554635e-01
-7.271646e-01
-7.981861e-01
-8.681637e-01
-9.366980e-01
-1.003331e+00
-1.067526e+00
-1.128656e+00
-1.185988e+00
-1.238677e+00
-1.285769e+00
-1.326204e+00
-1.358854e+00
-1.382591e+00
-1.396407e+00
-1.399660e+00
-1.392516e+00
-1.376770e+00
-1.357174e+00
-1.343166e+00
-1.348498e+00
-1.384330e+00
-1.448990e+00
0.000000e+00
-2.760434e-02
-5.611681e-02
-8.593055e-02
-1.172790e-01
-1.501152e-01
-1.841846e-01
-2.191380e-01
-2.546317e-01
-2.903575e-01
-3.260440e-01
-3.614425e-01
-3.963078e-01
-4.303771e-01
-4.633498e-01
-4.948706e-01
-5.245143e-01
-5.517755e-01
-5.760620e-01
-5.966961e-01
-6.129276e-01
-6.239652e-01
-6.290377e-01
-6.274999e-01
-6.190085e-01
-6.038049e-01
-5.831512e-01
-5.599500e-01
-5.394572e-01
-5.295554e-01
-5.391797e-01
-5.734266e-01
-6.281516e-01
0.000000e+00
-1.607679e-04
-3.137194e-04
-4.513498e-04
-5.629211e-04
-6.347016e-04
-6.493071e-04
-5.842825e-04
-4.100959e-04
-8.752063e-05
4.357727e-04
1.229690e-03
2.387565e-03
4.033658e-03
6.332290e-03
9.498061e-03
1.380563e-02
1.959638e-02
2.727821e-02
3.731413e-02
5.019467e-02
6.638805e-02
8.625963e-02
1.099489e-01
1.371886e-01
1.670535e-01
1.976398e-01
2.257303e-01
2.466297e-01
2.545840e-01
2.444891e-01
2.150298e-01
1.713298e-01
0.000000e+00
2.728504e-02
5.549250e-02
8.503093e-02
1.161550e-01
1.488444e-01
1.828780e-01
2.179498e-01
2.537729e-01
2.901145e-01
3.268031e-01
3.637232e-01
4.008062e-01
4.380233e-01
4.753827e-01
5.129313e-01
5.507598e-01
5.890052e-01
6.278462e-01
6.674840e-01
7.081061e-01
7.498278e-01
7.926108e-01
8.361483e-01
8.797158e-01
9.219889e-01
9.608617e-01
9.933487e-01
1.015738e+00
1.024259e+00
1.016508e+00
9.933979e-01
9.604301e-01
0.000000e+00
5.478584e-02
1.114239e-01
1.709150e-01
2.337539e-01
2.997820e-01
3.683638e-01
4.388069e-01
5.105080e-01
5.829868e-01
6.558751e-01
7.288976e-01
8.018443e-01
8.745445e-01
9.468505e-01
1.018630e+00
1.089767e+00
1.160157e+00
1.229706e+00
1.298305e+00
1.365798e+00
1.431932e+00
1.496294e+00
1.558228e+00
1.616734e+00
1.670358e+00
1.717121e+00
1.754553e+00
1.779983e+00
1.791202e+00
1.787573e+00
1.771287e+00
1.748096e+00
0.000000e+00
8.218862e-02
1.675305e-01
2.577122e-01
3.536166e-01
4.542806e-01
5.584791e-01
6.650214e-01
7.730380e-01
8.818817e-01
9.910520e-01
1.100172e+00
1.208939e+00
1.317076e+00
1.424303e+00
1.530318e+00
1.634788e+00
1.737342e+00
1.837565e+00
1.934980e+00
2.029037e+00
2.119091e+00
2.204381e+00
2.283995e+00
2.356818e+00
2.421478e+00
2.476330e+00
2.519543e+00
2.549389e+00
2.564802e+00
2.566234e+00
2.556586e+00
2.541868e+00
0.000000e+00
1.091287e-01
2.231628e-01
3.470333e-01
4.786631e-01
6.162136e-01
7.576245e-01
9.012710e-01
1.046141e+00
1.191587e+00
1.337105e+00
1.482290e+00
1.626812e+00
1.770345e+00
1.912518e+00
2.052892e+00
2.190933e+00
2.325985e+00
2.457262e+00
2.583840e+00
2.704693e+00
2.818733e+00
2.924850e+00
3.021940e+00
3.108886e+00
3.184538e+00
3.247711e+00
3.297262e+00
3.332310e+00
3.352649e+00
3.359388e+00
3.355761e+00
3.347979e+00
0.000000e+00
1.359007e-01
2.818754e-01
4.443941e-01
6.179677e-01
7.947462e-01
9.746564e-01
1.156368e+00
1.338404e+00
1.520388e+00
1.702089e+00
1.883130e+00
2.063178e+00
2.241919e+00
2.418954e+00
2.593756e+00
2.765629e+00
2.933638e+00
3.096570e+00
3.252953e+00
3.401167e+00
3.539593e+00
3.666740e+00
3.781319e+00
3.882260e+00
3.968700e+00
4.039973e+00
4.095662e+00
4.135723e+00
4.160725e+00
4.172263e+00
4.173648e+00
4.171045e+00
0.000000e+00
1.760336e-01
3.653604e-01
5.743574e-01
7.932940e-01
1.010320e+00
1.228190e+00
1.447355e+00
1.665895e+00
1.883583e+00
2.100634e+00
2.316761e+00
2.531605e+00
2.744880e+00
2.956206e+00
3.165017e+00
3.370508e+00
3.571499e+00
3.766326e+00
3.952887e+00
4.128857e+00
4.291979e+00
4.440293e+00
4.572270e+00
4.686835e+00
4.783361e+00
4.861676e+00
4.922091e+00
4.965477e+00
4.993336e+00
5.007941e+00
5.012694e+00
5.013242e+00
0.000000e+00
2.380045e-01
4.928793e-01
7.486649e-01
1.011301e+00
1.267322e+00
1.522196e+00
1.778190e+00
2.032903e+00
2.286170e+00
2.538594e+00
2.789930e+00
3.039750e+00
3.287777e+00
3.533631e+00
3.776705e+00
4.016085e+00
4.250349e+00
4.477389e+00
4.694464e+00
4.898519e+00
5.086607e+00
5.256221e+00
5.405460e+00
5.533074e+00
5.638475e+00
5.721787e+00
5.783936e+00
5.826764e+00
5.853077e+00
5.866553e+00
5.871450e+00
5.872645e+00
0.000000e+00
3.772178e-01
6.777348e-01
9.712730e-01
1.271229e+00
1.563156e+00
1.854301e+00
2.146766e+00
2.437831e+00
2.727488e+00
3.016375e+00
3.304150e+00
3.590333e+00
3.874611e+00
4.156533e+00
4.435373e+00
4.710020e+00
4.978731e+00
5.238926e+00
5.487277e+00
5.720086e+00
5.933766e+00
6.125208e+00
6.291954e+00
6.432269e+00
6.545195e+00
6.630694e+00
6.689880e+00
6.725341e+00
6.741441e+00
6.744467e+00
6.742126e+00
6.740787e+00
0.000000e+00
-2.318618e-01
-4.301061e-01
-6.654172e-01
-9.312408e-01
-1.228939e+00
-1.562622e+00
-1.932104e+00
-2.337294e+00
-2.778952e+00
-3.257309e+00
-3.772269e+00
-4.323772e+00
-4.911696e+00
-5.535769e+00
-6.195588e+00
-6.890602e+00
-7.620072e+00
-8.383050e+00
-9.178423e+00
-1.000501e+01
-1.086171e+01
-1.174772e+01
-1.266278e+01
-1.360753e+01
-1.458399e+01
-1.559629e+01
-1.665175e+01
-1.776238e+01
-1.894883e+01
-2.025840e+01
-2.181649e+01
-2.393648e+01
0.000000e+00
-1.442234e-01
-3.514792e-01
-5.828560e-01
-8.486459e-01
-1.147389e+00
-1.480789e+00
-1.850200e+00
-2.255778e+00
-2.697727e+00
-3.176332e+00
-3.691659e+00
-4.243625e+00
-4.832088e+00
-5.456815e+00
-6.117445e+00
-6.813482e+00
-7.544257e+00
-8.308897e+00
-9.106326e+00
-9.935325e+00
-1.079468e+01
-1.168341e+01
-1.260102e+01
-1.354792e+01
-1.452592e+01
-1.553895e+01
-1.659420e+01
-1.770405e+01
-1.889115e+01
-2.020193e+01
-2.173202e+01
-2.368581e+01
0.000000e+00
-1.082215e-01
-2.909090e-01
-5.171226e-01
-7.801577e-01
-1.078048e+00
-1.410836e+00
-1.779885e+00
-2.185484e+00
-2.627597e+00
-3.106431e+00
-3.622099e+00
-4.174526e+00
-4.763562e+00
-5.388995e+00
-6.050502e+00
-6.747632e+00
-7.479779e+00
-8.246136e+00
-9.045669e+00
-9.877168e+00
-1.073938e+01
-1.163123e+01
-1.255214e+01
-1.350244e+01
-1.448387e+01
-1.550044e+01
-1.655973e+01
-1.767549e+01
-1.887169e+01
-2.017980e+01
-2.161657e+01
-2.315996e+01
0.000000e+00
-9.534107e-02
-2.578178e-01
-4.715433e-01
-7.284125e-01
-1.022851e+00
-1.353807e+00
-1.721810e+00
-2.126888e+00
-2.568871e+00
-3.047833e+00
-3.563822e+00
-4.116750e+00
-4.706467e+00
-5.332769e+00
-5.995360e+00
-6.693824e+00
-7.427597e+00
-8.195918e+00
-8.997801e+00
-9.832071e+00
-1.069749e+01
-1.159299e+01
-1.251797e+01
-1.347272e+01
-1.445895e+01
-1.548059e+01
-1.654506e+01
-1.766535e+01
-1.886048e+01
-2.013608e+01
-2.145226e+01
-2.267145e+01
0.000000e+00
-9.301468e-02
-2.428964e-01
-4.450396e-01
-6.931349e-01
-9.822882e-01
-1.310171e+00
-1.676315e+00
-2.080322e+00
-2.521860e+00
-3.000809e+00
-3.517088e+00
-4.070567e+00
-4.661085e+00
-5.288433e+00
-5.952328e+00
-6.652375e+00
-7.388034e+00
-8.158573e+00
-8.963049e+00
-9.800332e+00
-1.066923e+01
-1.156868e+01
-1.249805e+01
-1.345751e+01
-1.444846e+01
-1.547418e+01
-1.654053e+01
-1.765660e+01
-1.883113e+01
-2.005053e+01
-2.124875e+01
-2.231952e+01
0.000000e+00
-9.129053e-02
-2.351621e-01
-4.293343e-01
-6.702524e-01
-9.541067e-01
-1.278649e+00
-1.642654e+00
-2.045380e+00
-2.486328e+00
-2.965186e+00
-3.481743e+00
-4.035813e+00
-4.627211e+00
-5.255721e+00
-5.921062e+00
-6.622853e+00
-7.360564e+00
-8.133483e+00
-8.940691e+00
-9.781090e+00
-1.065350e+01
-1.155682e+01
-1.249027e+01
-1.345369e+01
-1.444780e+01
-1.547448e+01
-1.653682e+01
-1.763815e+01
-1.877680e+01
-1.992781e+01
-2.103188e+01
-2.200994e+01
0.000000e+00
-8.985218e-02
-2.304040e-01
-4.199017e-01
-6.559216e-01
-9.358328e-01
-1.257564e+00
-1.619712e+00
-2.021322e+00
-2.461746e+00
-2.940537e+00
-3.457389e+00
-4.012065e+00
-4.604357e+00
-5.234047e+00
-5.900858e+00
-6.604417e+00
-7.344205e+00
-8.119514e+00
-8.929430e+00
-9.772843e+00
-1.064852e+01
-1.155522e+01
-1.249187e+01
-1.345773e+01
-1.445247e+01
-1.547615e+01
-1.652858e+01
-1.760762e+01
-1.870402e+01
-1.979061e+01
-2.081975e+01
-2.173411e+01
0.000000e+00
-8.898200e-02
-2.277276e-01
-4.147350e-01
-6.480595e-01
-9.256163e-01
-1.245583e+00
-1.606542e+00
-2.007459e+00
-2.447595e+00
-2.926434e+00
-3.443616e+00
-3.998878e+00
-4.592007e+00
-5.222788e+00
-5.890960e+00
-6.596162e+00
-7.337885e+00
-8.115418e+00
-8.927823e+00
-9.773927e+00
-1.065236e+01
-1.156163e+01
-1.250022e+01
-1.346661e+01
-1.445929e+01
-1.547636e+01
-1.651475e+01
-1.756832e+01
-1.862417e+01
-1.965709e+01
-2.063015e+01
-2.150245e+01
0.000000e+00
-8.869906e-02
-2.268771e-01
-4.131210e-01
-6.456186e-01
-9.224503e-01
-1.241884e+00
-1.602523e+00
-2.003315e+00
-2.443502e+00
-2.922552e+00
-3.440102e+00
-3.995892e+00
-4.589725e+00
-5.221409e+00
-5.890708e+00
-6.597285e+00
-7.340642e+00
-8.120061e+00
-8.934550e+00
-9.782825e+00
-1.066330e+01
-1.157415e+01
-1.251328e+01
-1.347837e+01
-1.446668e+01
-1.547467e+01
-1.649711e+01
-1.752565e+01
-1.854645e+01
-1.953780e+01
-2.047149e+01
-2.131773e+01
0.000000e+00
-8.900026e-02
-2.277843e-01
-4.148612e-01
-6.482942e-01
-9.260060e-01
-1.246183e+00
-1.607419e+00
-2.008694e+00
-2.449292e+00
-2.928721e+00
-3.446655e+00
-4.002876e+00
-4.597221e+00
-5.229537e+00
-5.899627e+00
-6.607190e+00
-7.351747e+00
-8.132567e+00
-8.948588e+00
-9.798373e+00
-1.068008e+01
-1.159145e+01
-1.252984e+01
-1.349211e+01
-1.447448e+01
-1.547214e+01
-1.647858e+01
-1.748456e+01
-1.847690e+01
-1.943764e+01
-2.034525e+01
-2.117745e+01
0.000000e+00
-8.988127e-02
-2.305042e-01
-4.201361e-01
-6.563669e-01
-9.365788e-01
-1.258717e+00
-1.621400e+00
-2.023704e+00
-2.465016e+00
-2.944944e+00
-3.463243e+00
-4.019758e+00
-4.614380e+00
-5.247005e+00
-5.917485e+00
-6.625562e+00
-7.370787e+00
-8.152419e+00
-8.969317e+00
-9.819870e+00
-1.070194e+01
-1.161287e+01
-1.254944e+01
-1.350781e+01
-1.448339e+01
-1.547053e+01
-1.646207e+01
-1.744880e+01
-1.841892e+01
-1.935795e+01
-2.024958e+01
-2.107704e+01
0.000000e+00
-9.131541e-02
-2.352806e-01
-4.296429e-01
-6.708622e-01
-9.551443e-01
-1.280264e+00
-1.645028e+00
-2.048733e+00
-2.490936e+00
-2.971394e+00
-3.489984e+00
-4.046629e+00
-4.641279e+00
-5.273878e+00
-5.944325e+00
-6.652413e+00
-7.397728e+00
-8.179523e+00
-8.996582e+00
-9.847114e+00
-1.072870e+01
-1.163829e+01
-1.257218e+01
-1.352598e+01
-1.449452e+01
-1.547164e+01
-1.644999e+01
-1.742082e+01
-1.837395e+01
-1.929802e+01
-2.018105e+01
-2.101095e+01
0.000000e+00
-9.301406e-02
-2.430001e-01
-4.453782e-01
-6.938471e-01
-9.835278e-01
-1.312120e+00
-1.679196e+00
-2.084403e+00
-2.527475e+00
-3.008374e+00
-3.527124e+00
-4.083724e+00
-4.678169e+00
-5.310441e+00
-5.980474e+00
-6.688098e+00
-7.432932e+00
-8.214227e+00
-9.030691e+00
-9.880368e+00
-1.076059e+01
-1.166799e+01
-1.259850e+01
-1.354734e+01
-1.450895e+01
-1.547692e+01
-1.644395e+01
-1.740191e+01
-1.834216e+01
-1.925604e+01
-2.013547e+01
-2.097303e+01
0.000000e+00
-9.529469e-02
-2.578811e-01
-4.718713e-01
-7.291628e-01
-1.024194e+00
-1.355946e+00
-1.724992e+00
-2.131412e+00
-2.575108e+00
-3.056243e+00
-3.574978e+00
-4.131364e+00
-4.725419e+00
-5.357141e+00
-6.026472e+00
-6.733249e+00
-7.477098e+00
-8.257244e+00
-9.072321e+00
-9.920238e+00
-1.079815e+01
-1.170247e+01
-1.262891e+01
-1.357247e+01
-1.452741e+01
-1.548721e+01
-1.644472e+01
-1.739238e+01
-1.832280e+01
-1.922959e+01
-2.010823e+01
-2.095641e+01
0.000000e+00
-1.081399e-01
-2.909403e-01
-5.174274e-01
-7.809039e-01
-1.079415e+00
-1.413037e+00
-1.783180e+00
-2.190187e+00
-2.634093e+00
-3.115201e+00
-3.633739e+00
-4.189769e+00
-4.783314e+00
-5.414361e+00
-6.082825e+00
-6.788504e+00
-7.530967e+00
-8.309365e+00
-9.122241e+00
-9.967408e+00
-1.084194e+01
-1.174217e+01
-1.266376e+01
-1.360165e+01
-1.455006e+01
-1.550251e+01
-1.645202e+01
-1.739146e+01
-1.831433e+01
-1.921586e+01
-2.009452e+01
-2.095341e+01
0.000000e+00
-1.441469e-01
-3.515080e-01
-5.831536e-01
-8.493860e-01
-1.148757e+00
-1.483001e+00
-1.853516e+00
-2.260514e+00
-2.704272e+00
-3.185168e+00
-3.703379e+00
-4.258958e+00
-4.851927e+00
-5.482245e+00
-6.149768e+00
-6.854201e+00
-7.594977e+00
-8.371096e+00
-9.180976e+00
-1.002237e+01
-1.089237e+01
-1.178738e+01
-1.270314e+01
-1.363469e+01
-1.457635e+01
-1.552181e+01
-1.646429e+01
-1.739701e+01
-1.831399e+01
-1.921139e+01
-2.008956e+01
-2.095580e+01
0.000000e+00
-2.318230e-01
-4.301627e-01
-6.657425e-01
-9.320052e-01
-1.230333e+00
-1.564862e+00
-1.935448e+00
-2.342055e+00
-2.785515e+00
-3.266149e+00
-3.783969e+00
-4.339040e+00
-4.931395e+00
-5.560939e+00
-6.227444e+00
-6.930480e+00
-7.669282e+00
-8.442625e+00
-9.248764e+00
-1.008542e+01
-1.094974e+01
-1.183830e+01