TITLE = "Solution"
VARIABLES = x, y, u, v, psiu, psiv, t, stress
ZONE T="structure" N=561 E=512 F=FEBLOCK ET=QUADRILATERAL VARLOCATION=([7,8]=cellcentered)
0.000000e+00
6.250000e+00
1.250000e+01
1.875000e+01
2.500000e+01
3.125000e+01
3.750000e+01
4.375000e+01
5.000000e+01
5.625000e+01
6.250000e+01
6.875000e+01
7.500000e+01
8.125000e+01
8.750000e+01
9.375000e+01
1.000000e+02
1.062500e+02
1.125000e+02
1.187500e+02
1.250000e+02
1.312500e+02
1.375000e+02
1.437500e+02
1.500000e+02
1.562500e+02
1.625000e+02
1.687500e+02
1.750000e+02
1.812500e+02
1.875000e+02
1.937500e+02
2.000000e+02
0.000000e+00
6.250000e+00
1.250000e+01
1.875000e+01
2.500000e+01
3.125000e+01
3.750000e+01
4.375000e+01
5.000000e+01
5.625000e+01
6.250000e+01
6.875000e+01
7.500000e+01
8.125000e+01
8.750000e+01
9.375000e+01
1.000000e+02
1.062500e+02
1.125000e+02
1.187500e+02
1.250000e+02
1.312500e+02
1.375000e+02
1.437500e+02
1.500000e+02
1.562500e+02
1.625000e+02
1.687500e+02
1.750000e+02
1.812500e+02
1.875000e+02
1.937500e+02
2.000000e+02
0.000000e+00
6.250000e+00
1.250000e+01
1.875000e+01
2.500000e+01
3.125000e+01
3.750000e+01
4.375000e+01
5.000000e+01
5.625000e+01
6.250000e+01
6.875000e+01
7.500000e+01
8.125000e+01
8.750000e+01
9.375000e+01
1.000000e+02
1.062500e+02
1.125000e+02
1.187500e+02
1.250000e+02
1.312500e+02
1.375000e+02
1.437500e+02
1.500000e+02
1.562500e+02
1.625000e+02
1.687500e+02
1.750000e+02
1.812500e+02
1.875000e+02
1.937500e+02
2.000000e+02
0.000000e+00
6.250000e+00
1.250000e+01
1.875000e+01
2.500000e+01
3.125000e+01
3.750000e+01
4.375000e+01
5.000000e+01
5.625000e+01
6.250000e+01
6.875000e+01
7.500000e+01
8.125000e+01
8.750000e+01
9.375000e+01
1.000000e+02
1.062500e+02
1.125000e+02
1.187500e+02
1.250000e+02
1.312500e+02
1.375000e+02
1.437500e+02
1.500000e+02
1.562500e+02
1.625000e+02
1.687500e+02
1.750000e+02
1.812500e+02
1.875000e+02
1.937500e+02
2.000000e+02
0.000000e+00
6.250000e+00
1.250000e+01
1.875000e+01
2.500000e+01
3.125000e+01
3.750000e+01
4.375000e+01
5.000000e+01
5.625000e+01
6.250000e+01
6.875000e+01
7.500000e+01
8.125000e+01
8.750000e+01
9.375000e+01
1.000000e+02
1.062500e+02
1.125000e+02
1.187500e+02
1.250000e+02
1.312500e+02
1.375000e+02
1.437500e+02
1.500000e+02
1.562500e+02
1.625000e+02
1.687500e+02
1.750000e+02
1.812500e+02
1.875000e+02
1.937500e+02
2.000000e+02
0.000000e+00
6.250000e+00
1.250000e+01
1.875000e+01
2.500000e+01
3.125000e+01
3.750000e+01
4.375000e+01
5.000000e+01
5.625000e+01
6.250000e+01
6.875000e+01
7.500000e+01
8.125000e+01
8.750000e+01
9.375000e+01
1.000000e+02
1.062500e+02
1.125000e+02
1.187500e+02
1.250000e+02
1.312500e+02
1.375000e+02
1.437500e+02
1.500000e+02
1.562500e+02
1.625000e+02
1.687500e+02
1.750000e+02
1.812500e+02
1.875000e+02
1.937500e+02
2.000000e+02
0.000000e+00
6.250000e+00
1.250000e+01
1.875000e+01
2.500000e+01
3.125000e+01
3.750000e+01
4.375000e+01
5.000000e+01
5.625000e+01
6.250000e+01
6.875000e+01
7.500000e+01
8.125000e+01
8.750000e+01
9.375000e+01
1.000000e+02
1.062500e+02
1.125000e+02
1.187500e+02
1.250000e+02
1.312500e+02
1.375000e+02
1.437500e+02
1.500000e+02
1.562500e+02
1.625000e+02
1.687500e+02
1.750000e+02
1.812500e+02
1.875000e+02
1.937500e+02
2.000000e+02
0.000000e+00
6.250000e+00
1.250000e+01
1.875000e+01
2.500000e+01
3.125000e+01
3.750000e+01
4.375000e+01
5.000000e+01
5.625000e+01
6.250000e+01
6.875000e+01
7.500000e+01
8.125000e+01
8.750000e+01
9.375000e+01
1.000000e+02
1.062500e+02
1.125000e+02
1.187500e+02
1.250000e+02
1.312500e+02
1.375000e+02
1.437500e+02
1.500000e+02
1.562500e+02
1.625000e+02
1.687500e+02
1.750000e+02
1.812500e+02
1.875000e+02
1.937500e+02
2.000000e+02
0.000000e+00
6.250000e+00
1.250000e+01
1.875000e+01
2.500000e+01
3.125000e+01
3.750000e+01
4.375000e+01
5.000000e+01
5.625000e+01
6.250000e+01
6.875000e+01
7.500000e+01
8.125000e+01
8.750000e+01
9.375000e+01
1.000000e+02
1.062500e+02
1.125000e+02
1.187500e+02
1.250000e+02
1.312500e+02
1.375000e+02
1.437500e+02
1.500000e+02
1.562500e+02
1.625000e+02
1.687500e+02
1.750000e+02
1.812500e+02
1.875000e+02
1.937500e+02
2.000000e+02
0.000000e+00
6.250000e+00
1.250000e+01
1.875000e+01
2.500000e+01
3.125000e+01
3.750000e+01
4.375000e+01
5.000000e+01
5.625000e+01
6.250000e+01
6.875000e+01
7.500000e+01
8.125000e+01
8.750000e+01
9.375000e+01
1.000000e+02
1.062500e+02
1.125000e+02
1.187500e+02
1.250000e+02
1.312500e+02
1.375000e+02
1.437500e+02
1.500000e+02
1.562500e+02
1.625000e+02
1.687500e+02
1.750000e+02
1.812500e+02
1.875000e+02
1.937500e+02
2.000000e+02
0.000000e+00
6.250000e+00
1.250000e+01
1.875000e+01
2.500000e+01
3.125000e+01
3.750000e+01
4.375000e+01
5.000000e+01
5.625000e+01
6.250000e+01
6.875000e+01
7.500000e+01
8.125000e+01
8.750000e+01
9.375000e+01
1.000000e+02
1.062500e+02
1.125000e+02
1.187500e+02
1.250000e+02
1.312500e+02
1.375000e+02
1.437500e+02
1.500000e+02
1.562500e+02
1.625000e+02
1.687500e+02
1.750000e+02
1.812500e+02
1.875000e+02
1.937500e+02
2.000000e+02
0.000000e+00
6.250000e+00
1.250000e+01
1.875000e+01
2.500000e+01
3.125000e+01
3.750000e+01
4.375000e+01
5.000000e+01
5.625000e+01
6.250000e+01
6.875000e+01
7.500000e+01
8.125000e+01
8.750000e+01
9.375000e+01
1.000000e+02
1.062500e+02
1.125000e+02
1.187500e+02
1.250000e+02
1.312500e+02
1.375000e+02
1.437500e+02
1.500000e+02
1.562500e+02
1.625000e+02
1.687500e+02
1.750000e+02
1.812500e+02
1.875000e+02
1.937500e+02
2.000000e+02
0.000000e+00
6.250000e+00
1.250000e+01
1.875000e+01
2.500000e+01
3.125000e+01
3.750000e+01
4.375000e+01
5.000000e+01
5.625000e+01
6.250000e+01
6.875000e+01
7.500000e+01
8.125000e+01
8.750000e+01
9.375000e+01
1.000000e+02
1.062500e+02
1.125000e+02
1.187500e+02
1.250000e+02
1.312500e+02
1.375000e+02
1.437500e+02
1.500000e+02
1.562500e+02
1.625000e+02
1.687500e+02
1.750000e+02
1.812500e+02
1.875000e+02
1.937500e+02
2.000000e+02
0.000000e+00
6.250000e+00
1.250000e+01
1.875000e+01
2.500000e+01
3.125000e+01
3.750000e+01
4.375000e+01
5.000000e+01
5.625000e+01
6.250000e+01
6.875000e+01
7.500000e+01
8.125000e+01
8.750000e+01
9.375000e+01
1.000000e+02
1.062500e+02
1.125000e+02
1.187500e+02
1.250000e+02
1.312500e+02
1.375000e+02
1.437500e+02
1.500000e+02
1.562500e+02
1.625000e+02
1.687500e+02
1.750000e+02
1.812500e+02
1.875000e+02
1.937500e+02
2.000000e+02
0.000000e+00
6.250000e+00
1.250000e+01
1.875000e+01
2.500000e+01
3.125000e+01
3.750000e+01
4.375000e+01
5.000000e+01
5.625000e+01
6.250000e+01
6.875000e+01
7.500000e+01
8.125000e+01
8.750000e+01
9.375000e+01
1.000000e+02
1.062500e+02
1.125000e+02
1.187500e+02
1.250000e+02
1.312500e+02
1.375000e+02
1.437500e+02
1.500000e+02
1.562500e+02
1.625000e+02
1.687500e+02
1.750000e+02
1.812500e+02
1.875000e+02
1.937500e+02
2.000000e+02
0.000000e+00
6.250000e+00
1.250000e+01
1.875000e+01
2.500000e+01
3.125000e+01
3.750000e+01
4.375000e+01
5.000000e+01
5.625000e+01
6.250000e+01
6.875000e+01
7.500000e+01
8.125000e+01
8.750000e+01
9.375000e+01
1.000000e+02
1.062500e+02
1.125000e+02
1.187500e+02
1.250000e+02
1.312500e+02
1.375000e+02
1.437500e+02
1.500000e+02
1.562500e+02
1.625000e+02
1.687500e+02
1.750000e+02
1.812500e+02
1.875000e+02
1.937500e+02
2.000000e+02
0.000000e+00
6.250000e+00
1.250000e+01
1.875000e+01
2.500000e+01
3.125000e+01
3.750000e+01
4.375000e+01
5.000000e+01
5.625000e+01
6.250000e+01
6.875000e+01
7.500000e+01
8.125000e+01
8.750000e+01
9.375000e+01
1.000000e+02
1.062500e+02
1.125000e+02
1.187500e+02
1.250000e+02
1.312500e+02
1.375000e+02
1.437500e+02
1.500000e+02
1.562500e+02
1.625000e+02
1.687500e+02
1.750000e+02
1.812500e+02
1.875000e+02
1.937500e+02
2.000000e+02
0.000000e+00
0.000000e+00
0.000000e+00
0.000000e+00
0.000000e+00
0.000000e+00
0.000000e+00
0.000000e+00
0.000000e+00
0.000000e+00
0.000000e+00
0.000000e+00
0.000000e+00
0.000000e+00
0.000000e+00
0.000000e+00
0.000000e+00
0.000000e+00
0.000000e+00
0.000000e+00
0.000000e+00
0.000000e+00
0.000000e+00
0.000000e+00
0.000000e+00
0.000000e+00
0.000000e+00
0.000000e+00
0.000000e+00
0.000000e+00
0.000000e+00
0.000000e+00
0.000000e+00
6.250000e+00
6.250000e+00
6.250000e+00
6.250000e+00
6.250000e+00
6.250000e+00
6.250000e+00
6.250000e+00
6.250000e+00
6.250000e+00
6.250000e+00
6.250000e+00
6.250000e+00
6.250000e+00
6.250000e+00
6.250000e+00
6.250000e+00
6.250000e+00
6.250000e+00
6.250000e+00
6.250000e+00
6.250000e+00
6.250000e+00
6.250000e+00
6.250000e+00
6.250000e+00
6.250000e+00
6.250000e+00
6.250000e+00
6.250000e+00
6.250000e+00
6.250000e+00
6.250000e+00
1.250000e+01
1.250000e+01
1.250000e+01
1.250000e+01
1.250000e+01
1.250000e+01
1.250000e+01
1.250000e+01
1.250000e+01
1.250000e+01
1.250000e+01
1.250000e+01
1.250000e+01
1.250000e+01
1.250000e+01
1.250000e+01
1.250000e+01
1.250000e+01
1.250000e+01
1.250000e+01
1.250000e+01
1.250000e+01
1.250000e+01
1.250000e+01
1.250000e+01
1.250000e+01
1.250000e+01
1.250000e+01
1.250000e+01
1.250000e+01
1.250000e+01
1.250000e+01
1.250000e+01
1.875000e+01
1.875000e+01
1.875000e+01
1.875000e+01
1.875000e+01
1.875000e+01
1.875000e+01
1.875000e+01
1.875000e+01
1.875000e+01
1.875000e+01
1.875000e+01
1.875000e+01
1.875000e+01
1.875000e+01
1.875000e+01
1.875000e+01
1.875000e+01
1.875000e+01
1.875000e+01
1.875000e+01
1.875000e+01
1.875000e+01
1.875000e+01
1.875000e+01
1.875000e+01
1.875000e+01
1.875000e+01
1.875000e+01
1.875000e+01
1.875000e+01
1.875000e+01
1.875000e+01
2.500000e+01
2.500000e+01
2.500000e+01
2.500000e+01
2.500000e+01
2.500000e+01
2.500000e+01
2.500000e+01
2.500000e+01
2.500000e+01
2.500000e+01
2.500000e+01
2.500000e+01
2.500000e+01
2.500000e+01
2.500000e+01
2.500000e+01
2.500000e+01
2.500000e+01
2.500000e+01
2.500000e+01
2.500000e+01
2.500000e+01
2.500000e+01
2.500000e+01
2.500000e+01
2.500000e+01
2.500000e+01
2.500000e+01
2.500000e+01
2.500000e+01
2.500000e+01
2.500000e+01
3.125000e+01
3.125000e+01
3.125000e+01
3.125000e+01
3.125000e+01
3.125000e+01
3.125000e+01
3.125000e+01
3.125000e+01
3.125000e+01
3.125000e+01
3.125000e+01
3.125000e+01
3.125000e+01
3.125000e+01
3.125000e+01
3.125000e+01
3.125000e+01
3.125000e+01
3.125000e+01
3.125000e+01
3.125000e+01
3.125000e+01
3.125000e+01
3.125000e+01
3.125000e+01
3.125000e+01
3.125000e+01
3.125000e+01
3.125000e+01
3.125000e+01
3.125000e+01
3.125000e+01
3.750000e+01
3.750000e+01
3.750000e+01
3.750000e+01
3.750000e+01
3.750000e+01
3.750000e+01
3.750000e+01
3.750000e+01
3.750000e+01
3.750000e+01
3.750000e+01
3.750000e+01
3.750000e+01
3.750000e+01
3.750000e+01
3.750000e+01
3.750000e+01
3.750000e+01
3.750000e+01
3.750000e+01
3.750000e+01
3.750000e+01
3.750000e+01
3.750000e+01
3.750000e+01
3.750000e+01
3.750000e+01
3.750000e+01
3.750000e+01
3.750000e+01
3.750000e+01
3.750000e+01
4.375000e+01
4.375000e+01
4.375000e+01
4.375000e+01
4.375000e+01
4.375000e+01
4.375000e+01
4.375000e+01
4.375000e+01
4.375000e+01
4.375000e+01
4.375000e+01
4.375000e+01
4.375000e+01
4.375000e+01
4.375000e+01
4.375000e+01
4.375000e+01
4.375000e+01
4.375000e+01
4.375000e+01
4.375000e+01
4.375000e+01
4.375000e+01
4.375000e+01
4.375000e+01
4.375000e+01
4.375000e+01
4.375000e+01
4.375000e+01
4.375000e+01
4.375000e+01
4.375000e+01
5.000000e+01
5.000000e+01
5.000000e+01
5.000000e+01
5.000000e+01
5.000000e+01
5.000000e+01
5.000000e+01
5.000000e+01
5.000000e+01
5.000000e+01
5.000000e+01
5.000000e+01
5.000000e+01
5.000000e+01
5.000000e+01
5.000000e+01
5.000000e+01
5.000000e+01
5.000000e+01
5.000000e+01
5.000000e+01
5.000000e+01
5.000000e+01
5.000000e+01
5.000000e+01
5.000000e+01
5.000000e+01
5.000000e+01
5.000000e+01
5.000000e+01
5.000000e+01
5.000000e+01
5.625000e+01
5.625000e+01
5.625000e+01
5.625000e+01
5.625000e+01
5.625000e+01
5.625000e+01
5.625000e+01
5.625000e+01
5.625000e+01
5.625000e+01
5.625000e+01
5.625000e+01
5.625000e+01
5.625000e+01
5.625000e+01
5.625000e+01
5.625000e+01
5.625000e+01
5.625000e+01
5.625000e+01
5.625000e+01
5.625000e+01
5.625000e+01
5.625000e+01
5.625000e+01
5.625000e+01
5.625000e+01
5.625000e+01
5.625000e+01
5.625000e+01
5.625000e+01
5.625000e+01
6.250000e+01
6.250000e+01
6.250000e+01
6.250000e+01
6.250000e+01
6.250000e+01
6.250000e+01
6.250000e+01
6.250000e+01
6.250000e+01
6.250000e+01
6.250000e+01
6.250000e+01
6.250000e+01
6.250000e+01
6.250000e+01
6.250000e+01
6.250000e+01
6.250000e+01
6.250000e+01
6.250000e+01
6.250000e+01
6.250000e+01
6.250000e+01
6.250000e+01
6.250000e+01
6.250000e+01
6.250000e+01
6.250000e+01
6.250000e+01
6.250000e+01
6.250000e+01
6.250000e+01
6.875000e+01
6.875000e+01
6.875000e+01
6.875000e+01
6.875000e+01
6.875000e+01
6.875000e+01
6.875000e+01
6.875000e+01
6.875000e+01
6.875000e+01
6.875000e+01
6.875000e+01
6.875000e+01
6.875000e+01
6.875000e+01
6.875000e+01
6.875000e+01
6.875000e+01
6.875000e+01
6.875000e+01
6.875000e+01
6.875000e+01
6.875000e+01
6.875000e+01
6.875000e+01
6.875000e+01
6.875000e+01
6.875000e+01
6.875000e+01
6.875000e+01
6.875000e+01
6.875000e+01
7.500000e+01
7.500000e+01
7.500000e+01
7.500000e+01
7.500000e+01
7.500000e+01
7.500000e+01
7.500000e+01
7.500000e+01
7.500000e+01
7.500000e+01
7.500000e+01
7.500000e+01
7.500000e+01
7.500000e+01
7.500000e+01
7.500000e+01
7.500000e+01
7.500000e+01
7.500000e+01
7.500000e+01
7.500000e+01
7.500000e+01
7.500000e+01
7.500000e+01
7.500000e+01
7.500000e+01
7.500000e+01
7.500000e+01
7.500000e+01
7.500000e+01
7.500000e+01
7.500000e+01
8.125000e+01
8.125000e+01
8.125000e+01
8.125000e+01
8.125000e+01
8.125000e+01
8.125000e+01
8.125000e+01
8.125000e+01
8.125000e+01
8.125000e+01
8.125000e+01
8.125000e+01
8.125000e+01
8.125000e+01
8.125000e+01
8.125000e+01
8.125000e+01
8.125000e+01
8.125000e+01
8.125000e+01
8.125000e+01
8.125000e+01
8.125000e+01
8.125000e+01
8.125000e+01
8.125000e+01
8.125000e+01
8.125000e+01
8.125000e+01
8.125000e+01
8.125000e+01
8.125000e+01
8.750000e+01
8.750000e+01
8.750000e+01
8.750000e+01
8.750000e+01
8.750000e+01
8.750000e+01
8.750000e+01
8.750000e+01
8.750000e+01
8.750000e+01
8.750000e+01
8.750000e+01
8.750000e+01
8.750000e+01
8.750000e+01
8.750000e+01
8.750000e+01
8.750000e+01
8.750000e+01
8.750000e+01
8.750000e+01
8.750000e+01
8.750000e+01
8.750000e+01
8.750000e+01
8.750000e+01
8.750000e+01
8.750000e+01
8.750000e+01
8.750000e+01
8.750000e+01
8.750000e+01
9.375000e+01
9.375000e+01
9.375000e+01
9.375000e+01
9.375000e+01
9.375000e+01
9.375000e+01
9.375000e+01
9.375000e+01
9.375000e+01
9.375000e+01
9.375000e+01
9.375000e+01
9.375000e+01
9.375000e+01
9.375000e+01
9.375000e+01
9.375000e+01
9.375000e+01
9.375000e+01
9.375000e+01
9.375000e+01
9.375000e+01
9.375000e+01
9.375000e+01
9.375000e+01
9.375000e+01
9.375000e+01
9.375000e+01
9.375000e+01
9.375000e+01
9.375000e+01
9.375000e+01
1.000000e+02
1.000000e+02
1.000000e+02
1.000000e+02
1.000000e+02
1.000000e+02
1.000000e+02
1.000000e+02
1.000000e+02
1.000000e+02
1.000000e+02
1.000000e+02
1.000000e+02
1.000000e+02
1.000000e+02
1.000000e+02
1.000000e+02
1.000000e+02
1.000000e+02
1.000000e+02
1.000000e+02
1.000000e+02
1.000000e+02
1.000000e+02
1.000000e+02
1.000000e+02
1.000000e+02
1.000000e+02
1.000000e+02
1.000000e+02
1.000000e+02
1.000000e+02
1.000000e+02
0.000000e+00
-4.859675e-02
-8.817234e-02
-1.248335e-01
-1.600180e-01
-1.939939e-01
-2.268295e-01
-2.585219e-01
-2.890512e-01
-3.183950e-01
-3.465351e-01
-3.734587e-01
-3.991593e-01
-4.236364e-01
-4.468956e-01
-4.689492e-01
-4.898169e-01
-5.095276e-01
-5.281207e-01
-5.456498e-01
-5.621862e-01
-5.778241e-01
-5.926881e-01
-6.069435e-01
-6.208116e-01
-6.345934e-01
-6.487069e-01
-6.637480e-01
-6.805912e-01
-7.005229e-01
-7.252124e-01
-7.546355e-01
-7.725920e-01
0.000000e+00
-3.258281e-02
-6.779203e-02
-1.009897e-01
-1.325428e-01
-1.627518e-01
-1.917762e-01
-2.196861e-01
-2.465091e-01
-2.722543e-01
-2.969234e-01
-3.205164e-01
-3.430345e-01
-3.644813e-01
-3.848638e-01
-4.041935e-01
-4.224869e-01
-4.397664e-01
-4.560620e-01
-4.714127e-01
-4.858680e-01
-4.994904e-01
-5.123576e-01
-5.245644e-01
-5.362244e-01
-5.474681e-01
-5.584332e-01
-5.692332e-01
-5.798673e-01
-5.899895e-01
-5.984241e-01
-6.033553e-01
-6.102204e-01
0.000000e+00
-2.584476e-02
-5.320766e-02
-8.106744e-02
-1.081385e-01
-1.342120e-01
-1.592712e-01
-1.833399e-01
-2.064393e-01
-2.285840e-01
-2.497835e-01
-2.700443e-01
-2.893719e-01
-3.077723e-01
-3.252520e-01
-3.418197e-01
-3.574862e-01
-3.722648e-01
-3.861722e-01
-3.992283e-01
-4.114559e-01
-4.228796e-01
-4.335240e-01
-4.434077e-01
-4.525348e-01
-4.608760e-01
-4.683359e-01
-4.746948e-01
-4.795228e-01
-4.821224e-01
-4.818945e-01
-4.804347e-01
-4.884513e-01
0.000000e+00
-2.050553e-02
-4.214353e-02
-6.437388e-02
-8.655214e-02
-1.081932e-01
-1.291117e-01
-1.492413e-01
-1.685638e-01
-1.870785e-01
-2.047902e-01
-2.217049e-01
-2.378281e-01
-2.531650e-01
-2.677202e-01
-2.814976e-01
-2.945011e-01
-3.067341e-01
-3.181990e-01
-3.288965e-01
-3.388239e-01
-3.479719e-01
-3.563205e-01
-3.638307e-01
-3.704332e-01
-3.760115e-01
-3.803808e-01
-3.832742e-01
-3.843790e-01
-3.835589e-01
-3.815670e-01
-3.814481e-01
-3.890859e-01
0.000000e+00
-1.591515e-02
-3.258880e-02
-4.979509e-02
-6.714117e-02
-8.427449e-02
-1.009587e-01
-1.170740e-01
-1.325661e-01
-1.474140e-01
-1.616123e-01
-1.751616e-01
-1.880646e-01
-2.003233e-01
-2.119387e-01
-2.229096e-01
-2.332327e-01
-2.429017e-01
-2.519067e-01
-2.602324e-01
-2.678567e-01
-2.747468e-01
-2.808557e-01
-2.861163e-01
-2.904355e-01
-2.936912e-01
-2.957399e-01
-2.964585e-01
-2.958690e-01
-2.944263e-01
-2.934904e-01
-2.956517e-01
-3.021671e-01
0.000000e+00
-1.169671e-02
-2.389455e-02
-3.648428e-02
-4.924835e-02
-6.194850e-02
-7.439558e-02
-8.646664e-02
-9.809419e-02
-1.092454e-01
-1.199065e-01
-1.300725e-01
-1.397417e-01
-1.489124e-01
-1.575811e-01
-1.657417e-01
-1.733845e-01
-1.804954e-01
-1.870553e-01
-1.930385e-01
-1.984112e-01
-2.031300e-01
-2.071397e-01
-2.103731e-01
-2.127533e-01
-2.142056e-01
-2.146875e-01
-2.142550e-01
-2.131893e-01
-2.121753e-01
-2.124222e-01
-2.151775e-01
-2.205685e-01
0.000000e+00
-7.697842e-03
-1.570017e-02
-2.395635e-02
-3.234866e-02
-4.073584e-02
-4.899138e-02
-5.702311e-02
-6.477331e-02
-7.221016e-02
-7.931756e-02
-8.608743e-02
-9.251458e-02
-9.859366e-02
-1.043173e-01
-1.096751e-01
-1.146526e-01
-1.192306e-01
-1.233846e-01
-1.270839e-01
-1.302915e-01
-1.329638e-01
-1.350523e-01
-1.365076e-01
-1.372896e-01
-1.373866e-01
-1.368519e-01
-1.358626e-01
-1.347950e-01
-1.342775e-01
-1.350849e-01
-1.377674e-01
-1.421192e-01
0.000000e+00
-3.823516e-03
-7.791583e-03
-1.188381e-02
-1.604851e-02
-2.021989e-02
-2.433547e-02
-2.834637e-02
-3.221955e-02
-3.593483e-02
-3.948026e-02
-4.284793e-02
-4.603094e-02
-4.902141e-02
-5.180915e-02
-5.438075e-02
-5.671898e-02
-5.880224e-02
-6.060435e-02
-6.209462e-02
-6.323860e-02
-6.400007e-02
-6.434501e-02
-6.424907e-02
-6.371036e-02
-6.276998e-02
-6.154175e-02
-6.024760e-02
-5.924296e-02
-5.899129e-02
-5.993858e-02
-6.227874e-02
-6.573176e-02
0.000000e+00
-6.168906e-06
-1.337594e-05
-2.122185e-05
-2.929394e-05
-3.703576e-05
-4.360869e-05
-4.773838e-05
-4.753516e-05
-4.027800e-05
-2.215360e-05
1.205385e-05
6.932177e-05
1.587894e-04
2.921797e-04
4.842065e-04
7.529038e-04
1.119776e-03
1.609605e-03
2.249672e-03
3.068029e-03
4.090277e-03
5.334149e-03
6.800994e-03
8.463334e-03
1.024835e-02
1.201938e-02
1.356235e-02
1.459236e-02
1.480124e-02
1.396019e-02
1.205550e-02
9.387870e-03
0.000000e+00
3.811897e-03
7.766339e-03
1.184367e-02
1.599298e-02
2.014948e-02
2.425226e-02
2.825480e-02
3.212760e-02
3.585555e-02
3.943386e-02
4.286441e-02
4.615342e-02
4.931021e-02
5.234671e-02
5.527734e-02
5.811904e-02
6.089109e-02
6.361463e-02
6.631144e-02
6.900165e-02
7.170008e-02
7.441058e-02
7.711810e-02
7.977863e-02
8.230821e-02
8.457443e-02
8.639716e-02
8.756831e-02
8.789988e-02
8.729938e-02
8.585248e-02
8.387257e-02
0.000000e+00
7.688350e-03
1.567940e-02
2.392310e-02
3.230230e-02
4.067651e-02
4.892044e-02
5.694380e-02
6.469167e-02
7.213631e-02
7.926739e-02
8.608477e-02
9.259396e-02
9.880372e-02
1.047249e-01
1.103703e-01
1.157538e-01
1.208909e-01
1.257975e-01
1.304889e-01
1.349771e-01
1.392679e-01
1.433554e-01
1.472160e-01
1.508013e-01
1.540317e-01
1.567948e-01
1.589529e-01
1.603654e-01
1.609302e-01
1.606398e-01
1.596386e-01
1.582568e-01
0.000000e+00
1.169066e-02
2.388106e-02
3.646231e-02
4.921716e-02
6.190778e-02
7.434576e-02
8.640930e-02
9.803265e-02
1.091856e-01
1.198578e-01
1.300497e-01
1.397665e-01
1.490156e-01
1.578058e-01
1.661465e-01
1.740474e-01
1.815185e-01
1.885696e-01
1.952086e-01
2.014403e-01
2.072632e-01
2.126660e-01
2.176232e-01
2.220911e-01
2.260046e-01
2.292796e-01
2.318213e-01
2.335449e-01
2.344086e-01
2.344572e-01
2.338699e-01
2.329965e-01
0.000000e+00
1.591365e-02
3.258504e-02
4.978836e-02
6.713076e-02
8.425982e-02
1.009394e-01
1.170500e-01
1.325379e-01
1.473829e-01
1.615806e-01
1.751335e-01
1.880464e-01
2.003248e-01
2.119738e-01
2.229983e-01
2.334022e-01
2.431891e-01
2.523613e-01
2.609192e-01
2.688603e-01
2.761773e-01
2.828560e-01
2.888735e-01
2.941958e-01
2.987783e-01
3.025686e-01
3.055144e-01
3.075789e-01
3.087650e-01
3.091497e-01
3.089292e-01
3.084691e-01
0.000000e+00
2.050933e-02
4.215127e-02
6.438540e-02
8.656711e-02
1.082112e-01
1.291321e-01
1.492630e-01
1.685853e-01
1.870971e-01
2.048019e-01
2.217037e-01
2.378057e-01
2.531097e-01
2.676159e-01
2.813232e-01
2.942289e-01
3.063290e-01
3.176173e-01
3.280860e-01
3.377243e-01
3.465190e-01
3.544532e-01
3.615070e-01
3.676579e-01
3.728828e-01
3.771621e-01
3.804862e-01
3.828653e-01
3.843438e-01
3.850238e-01
3.851049e-01
3.849523e-01
0.000000e+00
2.585406e-02
5.322750e-02
8.109853e-02
1.081814e-01
1.342673e-01
1.593389e-01
1.834192e-01
2.065281e-01
2.286776e-01
2.498739e-01
2.701185e-01
2.894101e-01
3.077451e-01
3.251177e-01
3.415200e-01
3.569420e-01
3.713710e-01
3.847919e-01
3.971866e-01
4.085349e-01
4.188148e-01
4.280037e-01
4.360813e-01
4.430321e-01
4.488509e-01
4.535481e-01
4.571569e-01
4.597397e-01
4.613940e-01
4.622598e-01
4.625418e-01
4.625755e-01
0.000000e+00
3.259677e-02
6.782253e-02
1.010387e-01
1.326128e-01
1.628452e-01
1.918950e-01
2.198314e-01
2.466804e-01
2.724481e-01
2.971317e-01
3.207244e-01
3.432174e-01
3.646001e-01
3.848607e-01
4.039846e-01
4.219543e-01
4.387488e-01
4.543429e-01
4.687070e-01
4.818080e-01
4.936108e-01
5.040804e-01
5.131869e-01
5.209112e-01
5.272539e-01
5.322449e-01
5.359545e-01
5.385028e-01
5.400642e-01
5.408620e-01
5.411512e-01
5.412220e-01
0.000000e+00
4.861203e-02
8.820800e-02
1.248946e-01
1.601094e-01
1.941207e-01
2.269968e-01
2.587346e-01
2.893131e-01
3.187079e-01
3.468962e-01
3.738585e-01
3.995774e-01
4.240365e-01
4.472188e-01
4.691049e-01
4.896715e-01
5.088900e-01
5.267252e-01
5.431349e-01
5.580697e-01
5.714745e-01
5.832920e-01
5.934679e-01
6.019602e-01
6.087517e-01
6.138666e-01
6.173903e-01
6.194905e-01
6.204369e-01
6.206089e-01
6.204664e-01
6.203862e-01
0.000000e+00
-3.003186e-02
-5.241209e-02
-7.683432e-02
-1.040299e-01
-1.347501e-01
-1.692083e-01
-2.074644e-01
-2.494803e-01
-2.951660e-01
-3.444004e-01
-3.970441e-01
-4.529470e-01
-5.119526e-01
-5.739014e-01
-6.386326e-01
-7.059865e-01
-7.758062e-01
-8.479400e-01
-9.222451e-01
-9.985921e-01
-1.076872e+00
-1.157008e+00
-1.238968e+00
-1.322794e+00
-1.408640e+00
-1.496848e+00
-1.588084e+00
-1.683621e+00
-1.785981e+00
-1.900606e+00
-2.040334e+00
-2.233372e+00
0.000000e+00
-1.866366e-02
-4.208986e-02
-6.667683e-02
-9.425149e-02
-1.253054e-01
-1.600984e-01
-1.986893e-01
-2.410434e-01
-2.870706e-01
-3.366491e-01
-3.896385e-01
-4.458872e-01
-5.052376e-01
-5.675285e-01
-6.325978e-01
-7.002836e-01
-7.704266e-01
-8.428724e-01
-9.174745e-01
-9.940990e-01
-1.072632e+00
-1.152987e+00
-1.235127e+00
-1.319079e+00
-1.404985e+00
-1.493169e+00
-1.584276e+00
-1.679553e+00
-1.781479e+00
-1.895219e+00
-2.031836e+00
-2.212183e+00
0.000000e+00
-1.370954e-02
-3.393265e-02
-5.818421e-02
-8.580705e-02
-1.170898e-01
-1.521574e-01
-1.910425e-01
-2.336982e-01
-2.800303e-01
-3.299149e-01
-3.832105e-01
-4.397649e-01
-4.994198e-01
-5.620135e-01
-6.273832e-01
-6.953663e-01
-7.658025e-01
-8.385364e-01
-9.134203e-01
-9.903193e-01
-1.069118e+00
-1.149731e+00
-1.232120e+00
-1.316319e+00
-1.402475e+00
-1.490928e+00
-1.582338e+00
-1.677938e+00
-1.779960e+00
-1.892220e+00
-2.019226e+00
-2.160114e+00
0.000000e+00
-1.097802e-02
-2.873411e-02
-5.169246e-02
-7.896030e-02
-1.102333e-01
-1.454509e-01
-1.845538e-01
-2.274578e-01
-2.740512e-01
-3.242023e-01
-3.777662e-01
-4.345892e-01
-4.945127e-01
-5.573754e-01
-6.230147e-01
-6.912686e-01
-7.619776e-01
-8.349868e-01
-9.101500e-01
-9.873337e-01
-1.066426e+00
-1.147345e+00
-1.230059e+00
-1.314609e+00
-1.401152e+00
-1.490021e+00
-1.581827e+00
-1.677578e+00
-1.778744e+00
-1.886735e+00
-2.000631e+00
-2.106657e+00
0.000000e+00
-9.289210e-03
-2.533445e-02
-4.708255e-02
-7.372879e-02
-1.047968e-01
-1.400276e-01
-1.792576e-01
-2.223449e-01
-2.691487e-01
-3.195228e-01
-3.733151e-01
-4.303697e-01
-4.905273e-01
-5.536272e-01
-6.195079e-01
-6.880091e-01
-7.589729e-01
-8.322468e-01
-9.076869e-01
-9.851628e-01
-1.064566e+00
-1.145818e+00
-1.228889e+00
-1.313817e+00
-1.400740e+00
-1.489930e+00
-1.581825e+00
-1.677007e+00
-1.775941e+00
-1.878155e+00
-1.979898e+00
-2.072235e+00
0.000000e+00
-8.214607e-03
-2.310385e-02
-4.391021e-02
-6.995664e-02
-1.007336e-01
-1.358879e-01
-1.751680e-01
-2.183760e-01
-2.653375e-01
-3.158882e-01
-3.698671e-01
-4.271143e-01
-4.874700e-01
-5.507741e-01
-6.168669e-01
-6.855900e-01
-7.567880e-01
-8.303108e-01
-9.060166e-01
-9.837772e-01
-1.063484e+00
-1.145057e+00
-1.228458e+00
-1.313700e+00
-1.400866e+00
-1.490109e+00
-1.581623e+00
-1.675513e+00
-1.771463e+00
-1.868010e+00
-1.961706e+00
-2.047343e+00
0.000000e+00
-7.546754e-03
-2.169356e-02
-4.184812e-02
-6.742957e-02
-9.794130e-02
-1.329912e-01
-1.722763e-01
-2.155556e-01
-2.626262e-01
-3.133070e-01
-3.674285e-01
-4.248269e-01
-4.853418e-01
-5.488139e-01
-6.150853e-01
-6.840000e-01
-7.554046e-01
-8.291506e-01
-9.050972e-01
-9.831152e-01
-1.063091e+00
-1.144936e+00
-1.228586e+00
-1.314014e+00
-1.401221e+00
-1.490214e+00
-1.580943e+00
-1.673146e+00
-1.766072e+00
-1.858115e+00
-1.946619e+00
-2.028334e+00
0.000000e+00
-7.179759e-03
-2.091102e-02
-4.068609e-02
-6.598051e-02
-9.631482e-02
-1.312843e-01
-1.705607e-01
-2.138786e-01
-2.610167e-01
-3.117828e-01
-3.660014e-01
-4.235067e-01
-4.841380e-01
-5.477373e-01
-6.141486e-01
-6.832174e-01
-7.547918e-01
-8.287240e-01
-9.048716e-01
-9.831006e-01
-1.063288e+00
-1.145325e+00
-1.229117e+00
-1.314580e+00
-1.401626e+00
-1.490126e+00
-1.579840e+00
-1.670289e+00
-1.760582e+00
-1.849271e+00
-1.934358e+00
-2.013625e+00
0.000000e+00
-7.061515e-03
-2.065855e-02
-4.030946e-02
-6.550825e-02
-9.578250e-02
-1.307251e-01
-1.700010e-01
-2.133371e-01
-2.605068e-01
-3.113145e-01
-3.655836e-01
-4.231484e-01
-4.838494e-01
-5.475301e-01
-6.140359e-01
-6.832139e-01
-7.549126e-01
-8.289829e-01
-9.052786e-01
-9.836580e-01
-1.063984e+00
-1.146122e+00
-1.229941e+00
-1.315299e+00
-1.402026e+00
-1.489887e+00
-1.578519e+00
-1.667349e+00
-1.755503e+00
-1.841754e+00
-1.924579e+00
-2.002353e+00
0.000000e+00
-7.176339e-03
-2.090627e-02
-4.068200e-02
-6.597928e-02
-9.631916e-02
-1.312978e-01
-1.705881e-01
-2.139262e-01
-2.610928e-01
-3.118979e-01
-3.661690e-01
-4.237432e-01
-4.844632e-01
-5.481746e-01
-6.147241e-01
-6.839594e-01
-7.557285e-01
-8.298798e-01
-9.062615e-01
-9.847217e-01
-1.065106e+00
-1.147255e+00
-1.230998e+00
-1.316141e+00
-1.402448e+00
-1.489609e+00
-1.577200e+00
-1.664632e+00
-1.751107e+00
-1.835615e+00
-1.916977e+00
-1.993951e+00
0.000000e+00
-7.540191e-03
-2.168445e-02
-4.184024e-02
-6.742710e-02
-9.794945e-02
-1.330168e-01
-1.723285e-01
-2.156465e-01
-2.627717e-01
-3.135274e-01
-3.677494e-01
-4.252801e-01
-4.859654e-01
-5.496527e-01
-6.161900e-01
-6.854250e-01
-7.572043e-01
-8.313730e-01
-9.077729e-01
-9.862406e-01
-1.066605e+00
-1.148681e+00
-1.232264e+00
-1.317116e+00
-1.402953e+00
-1.489421e+00
-1.576070e+00
-1.662334e+00
-1.747517e+00
-1.830800e+00
-1.911274e+00
-1.987988e+00
0.000000e+00
-8.205485e-03
-2.309119e-02
-4.389920e-02
-6.995308e-02
-1.007447e-01
-1.359233e-01
-1.752406e-01
-2.185026e-01
-2.655404e-01
-3.161957e-01
-3.703153e-01
-4.277477e-01
-4.883422e-01
-5.519479e-01
-6.184135e-01
-6.875863e-01
-7.593114e-01
-8.334299e-01
-9.097771e-01
-9.881792e-01
-1.068449e+00
-1.150380e+00
-1.233740e+00
-1.318258e+00
-1.403615e+00
-1.489433e+00
-1.575260e+00
-1.660571e+00
-1.744768e+00
-1.827205e+00
-1.907207e+00
-1.984078e+00
0.000000e+00
-9.278464e-03
-2.531955e-02
-4.706958e-02
-7.372467e-02
-1.048103e-01
-1.400704e-01
-1.793451e-01
-2.224978e-01
-2.693937e-01
-3.198944e-01
-3.738570e-01
-4.311357e-01
-4.915824e-01
-5.550475e-01
-6.213800e-01
-6.904265e-01
-7.620301e-01
-8.360286e-01
-9.122516e-01
-9.905164e-01
-1.070623e+00
-1.152348e+00
-1.235438e+00
-1.319599e+00
-1.404492e+00
-1.489723e+00
-1.574852e+00
-1.659392e+00
-1.742839e+00
-1.824696e+00
-1.904506e+00
-1.981841e+00
0.000000e+00
-1.096697e-02
-2.871881e-02
-5.167928e-02
-7.895676e-02
-1.102492e-01
-1.454991e-01
-1.846516e-01
-2.276278e-01
-2.743232e-01
-3.246143e-01
-3.783663e-01
-4.354368e-01
-4.956794e-01
-5.589452e-01
-6.250827e-01
-6.939378e-01
-7.653518e-01
-8.391599e-01
-9.151870e-01
-9.932442e-01
-1.073122e+00
-1.154587e+00
-1.237370e+00
-1.321163e+00
-1.405615e+00
-1.490330e+00
-1.574874e+00
-1.658798e+00
-1.741669e+00
-1.823119e+00
-1.902894e+00
-1.980866e+00
0.000000e+00
-1.369991e-02
-3.391925e-02
-5.817308e-02
-8.580599e-02
-1.171091e-01
-1.522106e-01
-1.911476e-01
-2.338788e-01
-2.803172e-01
-3.303475e-01
-3.838382e-01
-4.406489e-01
-5.006334e-01
-5.636426e-01
-6.295245e-01
-6.981239e-01
-7.692810e-01
-8.428286e-01
-9.185888e-01
-9.963685e-01
-1.075954e+00
-1.157103e+00
-1.239542e+00
-1.322955e+00
-1.406987e+00
-1.491243e+00
-1.575299e+00
-1.658731e+00
-1.741156e+00
-1.822301e+00
-1.902083e+00
-1.980695e+00
0.000000e+00
-1.865747e-02
-4.208074e-02
-6.667028e-02
-9.425554e-02
-1.253305e-01
-1.601584e-01
-1.988022e-01
-2.412327e-01
-2.873667e-01
-3.370909e-01
-3.902746e-01
-4.467771e-01
-5.064523e-01
-5.691505e-01
-6.347189e-01
-7.030014e-01
-7.738367e-01
-8.470560e-01
-9.224796e-01
-9.999119e-01
-1.079137e+00
-1.159911e+00
-1.241957e+00
-1.324962e+00
-1.408571e+00
-1.492396e+00
-1.576026e+00
-1.659056e+00
-1.741132e+00
-1.822035e+00
-1.901790e+00
-1.980840e+00
0.000000e+00
-3.003099e-02
-5.240905e-02
-7.683490e-02
-1.040422e-01
-1.347846e-01
-1.692788e-01
-2.075887e-01
-2.496815e-01
-2.954738e-01
-3.448520e-01
-3.976860e-01
-4.538351e-01
-5.131531e-01
-5.754897e-01
-6.406913e-01
-7.086004e-01
-7.790544e-01
-8.518825e-01
-9.269031e-01
-1.003919e+00
-1.082713e+00
-1.163040e+00