TITLE = "Solution"
VARIABLES = x, y, u, v, psiu, psiv, t, stress
ZONE T="structure" N=561 E=512 F=FEBLOCK ET=QUADRILATERAL VARLOCATION=([7,8]=cellcentered)
0.000000e+00
6.250000e+00
1.250000e+01
1.875000e+01
2.500000e+01
3.125000e+01
3.750000e+01
4.375000e+01
5.000000e+01
5.625000e+01
6.250000e+01
6.875000e+01
7.500000e+01
8.125000e+01
8.750000e+01
9.375000e+01
1.000000e+02
1.062500e+02
1.125000e+02
1.187500e+02
1.250000e+02
1.312500e+02
1.375000e+02
1.437500e+02
1.500000e+02
1.562500e+02
1.625000e+02
1.687500e+02
1.750000e+02
1.812500e+02
1.875000e+02
1.937500e+02
2.000000e+02
0.000000e+00
6.250000e+00
1.250000e+01
1.875000e+01
2.500000e+01
3.125000e+01
3.750000e+01
4.375000e+01
5.000000e+01
5.625000e+01
6.250000e+01
6.875000e+01
7.500000e+01
8.125000e+01
8.750000e+01
9.375000e+01
1.000000e+02
1.062500e+02
1.125000e+02
1.187500e+02
1.250000e+02
1.312500e+02
1.375000e+02
1.437500e+02
1.500000e+02
1.562500e+02
1.625000e+02
1.687500e+02
1.750000e+02
1.812500e+02
1.875000e+02
1.937500e+02
2.000000e+02
0.000000e+00
6.250000e+00
1.250000e+01
1.875000e+01
2.500000e+01
3.125000e+01
3.750000e+01
4.375000e+01
5.000000e+01
5.625000e+01
6.250000e+01
6.875000e+01
7.500000e+01
8.125000e+01
8.750000e+01
9.375000e+01
1.000000e+02
1.062500e+02
1.125000e+02
1.187500e+02
1.250000e+02
1.312500e+02
1.375000e+02
1.437500e+02
1.500000e+02
1.562500e+02
1.625000e+02
1.687500e+02
1.750000e+02
1.812500e+02
1.875000e+02
1.937500e+02
2.000000e+02
0.000000e+00
6.250000e+00
1.250000e+01
1.875000e+01
2.500000e+01
3.125000e+01
3.750000e+01
4.375000e+01
5.000000e+01
5.625000e+01
6.250000e+01
6.875000e+01
7.500000e+01
8.125000e+01
8.750000e+01
9.375000e+01
1.000000e+02
1.062500e+02
1.125000e+02
1.187500e+02
1.250000e+02
1.312500e+02
1.375000e+02
1.437500e+02
1.500000e+02
1.562500e+02
1.625000e+02
1.687500e+02
1.750000e+02
1.812500e+02
1.875000e+02
1.937500e+02
2.000000e+02
0.000000e+00
6.250000e+00
1.250000e+01
1.875000e+01
2.500000e+01
3.125000e+01
3.750000e+01
4.375000e+01
5.000000e+01
5.625000e+01
6.250000e+01
6.875000e+01
7.500000e+01
8.125000e+01
8.750000e+01
9.375000e+01
1.000000e+02
1.062500e+02
1.125000e+02
1.187500e+02
1.250000e+02
1.312500e+02
1.375000e+02
1.437500e+02
1.500000e+02
1.562500e+02
1.625000e+02
1.687500e+02
1.750000e+02
1.812500e+02
1.875000e+02
1.937500e+02
2.000000e+02
0.000000e+00
6.250000e+00
1.250000e+01
1.875000e+01
2.500000e+01
3.125000e+01
3.750000e+01
4.375000e+01
5.000000e+01
5.625000e+01
6.250000e+01
6.875000e+01
7.500000e+01
8.125000e+01
8.750000e+01
9.375000e+01
1.000000e+02
1.062500e+02
1.125000e+02
1.187500e+02
1.250000e+02
1.312500e+02
1.375000e+02
1.437500e+02
1.500000e+02
1.562500e+02
1.625000e+02
1.687500e+02
1.750000e+02
1.812500e+02
1.875000e+02
1.937500e+02
2.000000e+02
0.000000e+00
6.250000e+00
1.250000e+01
1.875000e+01
2.500000e+01
3.125000e+01
3.750000e+01
4.375000e+01
5.000000e+01
5.625000e+01
6.250000e+01
6.875000e+01
7.500000e+01
8.125000e+01
8.750000e+01
9.375000e+01
1.000000e+02
1.062500e+02
1.125000e+02
1.187500e+02
1.250000e+02
1.312500e+02
1.375000e+02
1.437500e+02
1.500000e+02
1.562500e+02
1.625000e+02
1.687500e+02
1.750000e+02
1.812500e+02
1.875000e+02
1.937500e+02
2.000000e+02
0.000000e+00
6.250000e+00
1.250000e+01
1.875000e+01
2.500000e+01
3.125000e+01
3.750000e+01
4.375000e+01
5.000000e+01
5.625000e+01
6.250000e+01
6.875000e+01
7.500000e+01
8.125000e+01
8.750000e+01
9.375000e+01
1.000000e+02
1.062500e+02
1.125000e+02
1.187500e+02
1.250000e+02
1.312500e+02
1.375000e+02
1.437500e+02
1.500000e+02
1.562500e+02
1.625000e+02
1.687500e+02
1.750000e+02
1.812500e+02
1.875000e+02
1.937500e+02
2.000000e+02
0.000000e+00
6.250000e+00
1.250000e+01
1.875000e+01
2.500000e+01
3.125000e+01
3.750000e+01
4.375000e+01
5.000000e+01
5.625000e+01
6.250000e+01
6.875000e+01
7.500000e+01
8.125000e+01
8.750000e+01
9.375000e+01
1.000000e+02
1.062500e+02
1.125000e+02
1.187500e+02
1.250000e+02
1.312500e+02
1.375000e+02
1.437500e+02
1.500000e+02
1.562500e+02
1.625000e+02
1.687500e+02
1.750000e+02
1.812500e+02
1.875000e+02
1.937500e+02
2.000000e+02
0.000000e+00
6.250000e+00
1.250000e+01
1.875000e+01
2.500000e+01
3.125000e+01
3.750000e+01
4.375000e+01
5.000000e+01
5.625000e+01
6.250000e+01
6.875000e+01
7.500000e+01
8.125000e+01
8.750000e+01
9.375000e+01
1.000000e+02
1.062500e+02
1.125000e+02
1.187500e+02
1.250000e+02
1.312500e+02
1.375000e+02
1.437500e+02
1.500000e+02
1.562500e+02
1.625000e+02
1.687500e+02
1.750000e+02
1.812500e+02
1.875000e+02
1.937500e+02
2.000000e+02
0.000000e+00
6.250000e+00
1.250000e+01
1.875000e+01
2.500000e+01
3.125000e+01
3.750000e+01
4.375000e+01
5.000000e+01
5.625000e+01
6.250000e+01
6.875000e+01
7.500000e+01
8.125000e+01
8.750000e+01
9.375000e+01
1.000000e+02
1.062500e+02
1.125000e+02
1.187500e+02
1.250000e+02
1.312500e+02
1.375000e+02
1.437500e+02
1.500000e+02
1.562500e+02
1.625000e+02
1.687500e+02
1.750000e+02
1.812500e+02
1.875000e+02
1.937500e+02
2.000000e+02
0.000000e+00
6.250000e+00
1.250000e+01
1.875000e+01
2.500000e+01
3.125000e+01
3.750000e+01
4.375000e+01
5.000000e+01
5.625000e+01
6.250000e+01
6.875000e+01
7.500000e+01
8.125000e+01
8.750000e+01
9.375000e+01
1.000000e+02
1.062500e+02
1.125000e+02
1.187500e+02
1.250000e+02
1.312500e+02
1.375000e+02
1.437500e+02
1.500000e+02
1.562500e+02
1.625000e+02
1.687500e+02
1.750000e+02
1.812500e+02
1.875000e+02
1.937500e+02
2.000000e+02
0.000000e+00
6.250000e+00
1.250000e+01
1.875000e+01
2.500000e+01
3.125000e+01
3.750000e+01
4.375000e+01
5.000000e+01
5.625000e+01
6.250000e+01
6.875000e+01
7.500000e+01
8.125000e+01
8.750000e+01
9.375000e+01
1.000000e+02
1.062500e+02
1.125000e+02
1.187500e+02
1.250000e+02
1.312500e+02
1.375000e+02
1.437500e+02
1.500000e+02
1.562500e+02
1.625000e+02
1.687500e+02
1.750000e+02
1.812500e+02
1.875000e+02
1.937500e+02
2.000000e+02
0.000000e+00
6.250000e+00
1.250000e+01
1.875000e+01
2.500000e+01
3.125000e+01
3.750000e+01
4.375000e+01
5.000000e+01
5.625000e+01
6.250000e+01
6.875000e+01
7.500000e+01
8.125000e+01
8.750000e+01
9.375000e+01
1.000000e+02
1.062500e+02
1.125000e+02
1.187500e+02
1.250000e+02
1.312500e+02
1.375000e+02
1.437500e+02
1.500000e+02
1.562500e+02
1.625000e+02
1.687500e+02
1.750000e+02
1.812500e+02
1.875000e+02
1.937500e+02
2.000000e+02
0.000000e+00
6.250000e+00
1.250000e+01
1.875000e+01
2.500000e+01
3.125000e+01
3.750000e+01
4.375000e+01
5.000000e+01
5.625000e+01
6.250000e+01
6.875000e+01
7.500000e+01
8.125000e+01
8.750000e+01
9.375000e+01
1.000000e+02
1.062500e+02
1.125000e+02
1.187500e+02
1.250000e+02
1.312500e+02
1.375000e+02
1.437500e+02
1.500000e+02
1.562500e+02
1.625000e+02
1.687500e+02
1.750000e+02
1.812500e+02
1.875000e+02
1.937500e+02
2.000000e+02
0.000000e+00
6.250000e+00
1.250000e+01
1.875000e+01
2.500000e+01
3.125000e+01
3.750000e+01
4.375000e+01
5.000000e+01
5.625000e+01
6.250000e+01
6.875000e+01
7.500000e+01
8.125000e+01
8.750000e+01
9.375000e+01
1.000000e+02
1.062500e+02
1.125000e+02
1.187500e+02
1.250000e+02
1.312500e+02
1.375000e+02
1.437500e+02
1.500000e+02
1.562500e+02
1.625000e+02
1.687500e+02
1.750000e+02
1.812500e+02
1.875000e+02
1.937500e+02
2.000000e+02
0.000000e+00
6.250000e+00
1.250000e+01
1.875000e+01
2.500000e+01
3.125000e+01
3.750000e+01
4.375000e+01
5.000000e+01
5.625000e+01
6.250000e+01
6.875000e+01
7.500000e+01
8.125000e+01
8.750000e+01
9.375000e+01
1.000000e+02
1.062500e+02
1.125000e+02
1.187500e+02
1.250000e+02
1.312500e+02
1.375000e+02
1.437500e+02
1.500000e+02
1.562500e+02
1.625000e+02
1.687500e+02
1.750000e+02
1.812500e+02
1.875000e+02
1.937500e+02
2.000000e+02
0.000000e+00
0.000000e+00
0.000000e+00
0.000000e+00
0.000000e+00
0.000000e+00
0.000000e+00
0.000000e+00
0.000000e+00
0.000000e+00
0.000000e+00
0.000000e+00
0.000000e+00
0.000000e+00
0.000000e+00
0.000000e+00
0.000000e+00
0.000000e+00
0.000000e+00
0.000000e+00
0.000000e+00
0.000000e+00
0.000000e+00
0.000000e+00
0.000000e+00
0.000000e+00
0.000000e+00
0.000000e+00
0.000000e+00
0.000000e+00
0.000000e+00
0.000000e+00
0.000000e+00
6.250000e+00
6.250000e+00
6.250000e+00
6.250000e+00
6.250000e+00
6.250000e+00
6.250000e+00
6.250000e+00
6.250000e+00
6.250000e+00
6.250000e+00
6.250000e+00
6.250000e+00
6.250000e+00
6.250000e+00
6.250000e+00
6.250000e+00
6.250000e+00
6.250000e+00
6.250000e+00
6.250000e+00
6.250000e+00
6.250000e+00
6.250000e+00
6.250000e+00
6.250000e+00
6.250000e+00
6.250000e+00
6.250000e+00
6.250000e+00
6.250000e+00
6.250000e+00
6.250000e+00
1.250000e+01
1.250000e+01
1.250000e+01
1.250000e+01
1.250000e+01
1.250000e+01
1.250000e+01
1.250000e+01
1.250000e+01
1.250000e+01
1.250000e+01
1.250000e+01
1.250000e+01
1.250000e+01
1.250000e+01
1.250000e+01
1.250000e+01
1.250000e+01
1.250000e+01
1.250000e+01
1.250000e+01
1.250000e+01
1.250000e+01
1.250000e+01
1.250000e+01
1.250000e+01
1.250000e+01
1.250000e+01
1.250000e+01
1.250000e+01
1.250000e+01
1.250000e+01
1.250000e+01
1.875000e+01
1.875000e+01
1.875000e+01
1.875000e+01
1.875000e+01
1.875000e+01
1.875000e+01
1.875000e+01
1.875000e+01
1.875000e+01
1.875000e+01
1.875000e+01
1.875000e+01
1.875000e+01
1.875000e+01
1.875000e+01
1.875000e+01
1.875000e+01
1.875000e+01
1.875000e+01
1.875000e+01
1.875000e+01
1.875000e+01
1.875000e+01
1.875000e+01
1.875000e+01
1.875000e+01
1.875000e+01
1.875000e+01
1.875000e+01
1.875000e+01
1.875000e+01
1.875000e+01
2.500000e+01
2.500000e+01
2.500000e+01
2.500000e+01
2.500000e+01
2.500000e+01
2.500000e+01
2.500000e+01
2.500000e+01
2.500000e+01
2.500000e+01
2.500000e+01
2.500000e+01
2.500000e+01
2.500000e+01
2.500000e+01
2.500000e+01
2.500000e+01
2.500000e+01
2.500000e+01
2.500000e+01
2.500000e+01
2.500000e+01
2.500000e+01
2.500000e+01
2.500000e+01
2.500000e+01
2.500000e+01
2.500000e+01
2.500000e+01
2.500000e+01
2.500000e+01
2.500000e+01
3.125000e+01
3.125000e+01
3.125000e+01
3.125000e+01
3.125000e+01
3.125000e+01
3.125000e+01
3.125000e+01
3.125000e+01
3.125000e+01
3.125000e+01
3.125000e+01
3.125000e+01
3.125000e+01
3.125000e+01
3.125000e+01
3.125000e+01
3.125000e+01
3.125000e+01
3.125000e+01
3.125000e+01
3.125000e+01
3.125000e+01
3.125000e+01
3.125000e+01
3.125000e+01
3.125000e+01
3.125000e+01
3.125000e+01
3.125000e+01
3.125000e+01
3.125000e+01
3.125000e+01
3.750000e+01
3.750000e+01
3.750000e+01
3.750000e+01
3.750000e+01
3.750000e+01
3.750000e+01
3.750000e+01
3.750000e+01
3.750000e+01
3.750000e+01
3.750000e+01
3.750000e+01
3.750000e+01
3.750000e+01
3.750000e+01
3.750000e+01
3.750000e+01
3.750000e+01
3.750000e+01
3.750000e+01
3.750000e+01
3.750000e+01
3.750000e+01
3.750000e+01
3.750000e+01
3.750000e+01
3.750000e+01
3.750000e+01
3.750000e+01
3.750000e+01
3.750000e+01
3.750000e+01
4.375000e+01
4.375000e+01
4.375000e+01
4.375000e+01
4.375000e+01
4.375000e+01
4.375000e+01
4.375000e+01
4.375000e+01
4.375000e+01
4.375000e+01
4.375000e+01
4.375000e+01
4.375000e+01
4.375000e+01
4.375000e+01
4.375000e+01
4.375000e+01
4.375000e+01
4.375000e+01
4.375000e+01
4.375000e+01
4.375000e+01
4.375000e+01
4.375000e+01
4.375000e+01
4.375000e+01
4.375000e+01
4.375000e+01
4.375000e+01
4.375000e+01
4.375000e+01
4.375000e+01
5.000000e+01
5.000000e+01
5.000000e+01
5.000000e+01
5.000000e+01
5.000000e+01
5.000000e+01
5.000000e+01
5.000000e+01
5.000000e+01
5.000000e+01
5.000000e+01
5.000000e+01
5.000000e+01
5.000000e+01
5.000000e+01
5.000000e+01
5.000000e+01
5.000000e+01
5.000000e+01
5.000000e+01
5.000000e+01
5.000000e+01
5.000000e+01
5.000000e+01
5.000000e+01
5.000000e+01
5.000000e+01
5.000000e+01
5.000000e+01
5.000000e+01
5.000000e+01
5.000000e+01
5.625000e+01
5.625000e+01
5.625000e+01
5.625000e+01
5.625000e+01
5.625000e+01
5.625000e+01
5.625000e+01
5.625000e+01
5.625000e+01
5.625000e+01
5.625000e+01
5.625000e+01
5.625000e+01
5.625000e+01
5.625000e+01
5.625000e+01
5.625000e+01
5.625000e+01
5.625000e+01
5.625000e+01
5.625000e+01
5.625000e+01
5.625000e+01
5.625000e+01
5.625000e+01
5.625000e+01
5.625000e+01
5.625000e+01
5.625000e+01
5.625000e+01
5.625000e+01
5.625000e+01
6.250000e+01
6.250000e+01
6.250000e+01
6.250000e+01
6.250000e+01
6.250000e+01
6.250000e+01
6.250000e+01
6.250000e+01
6.250000e+01
6.250000e+01
6.250000e+01
6.250000e+01
6.250000e+01
6.250000e+01
6.250000e+01
6.250000e+01
6.250000e+01
6.250000e+01
6.250000e+01
6.250000e+01
6.250000e+01
6.250000e+01
6.250000e+01
6.250000e+01
6.250000e+01
6.250000e+01
6.250000e+01
6.250000e+01
6.250000e+01
6.250000e+01
6.250000e+01
6.250000e+01
6.875000e+01
6.875000e+01
6.875000e+01
6.875000e+01
6.875000e+01
6.875000e+01
6.875000e+01
6.875000e+01
6.875000e+01
6.875000e+01
6.875000e+01
6.875000e+01
6.875000e+01
6.875000e+01
6.875000e+01
6.875000e+01
6.875000e+01
6.875000e+01
6.875000e+01
6.875000e+01
6.875000e+01
6.875000e+01
6.875000e+01
6.875000e+01
6.875000e+01
6.875000e+01
6.875000e+01
6.875000e+01
6.875000e+01
6.875000e+01
6.875000e+01
6.875000e+01
6.875000e+01
7.500000e+01
7.500000e+01
7.500000e+01
7.500000e+01
7.500000e+01
7.500000e+01
7.500000e+01
7.500000e+01
7.500000e+01
7.500000e+01
7.500000e+01
7.500000e+01
7.500000e+01
7.500000e+01
7.500000e+01
7.500000e+01
7.500000e+01
7.500000e+01
7.500000e+01
7.500000e+01
7.500000e+01
7.500000e+01
7.500000e+01
7.500000e+01
7.500000e+01
7.500000e+01
7.500000e+01
7.500000e+01
7.500000e+01
7.500000e+01
7.500000e+01
7.500000e+01
7.500000e+01
8.125000e+01
8.125000e+01
8.125000e+01
8.125000e+01
8.125000e+01
8.125000e+01
8.125000e+01
8.125000e+01
8.125000e+01
8.125000e+01
8.125000e+01
8.125000e+01
8.125000e+01
8.125000e+01
8.125000e+01
8.125000e+01
8.125000e+01
8.125000e+01
8.125000e+01
8.125000e+01
8.125000e+01
8.125000e+01
8.125000e+01
8.125000e+01
8.125000e+01
8.125000e+01
8.125000e+01
8.125000e+01
8.125000e+01
8.125000e+01
8.125000e+01
8.125000e+01
8.125000e+01
8.750000e+01
8.750000e+01
8.750000e+01
8.750000e+01
8.750000e+01
8.750000e+01
8.750000e+01
8.750000e+01
8.750000e+01
8.750000e+01
8.750000e+01
8.750000e+01
8.750000e+01
8.750000e+01
8.750000e+01
8.750000e+01
8.750000e+01
8.750000e+01
8.750000e+01
8.750000e+01
8.750000e+01
8.750000e+01
8.750000e+01
8.750000e+01
8.750000e+01
8.750000e+01
8.750000e+01
8.750000e+01
8.750000e+01
8.750000e+01
8.750000e+01
8.750000e+01
8.750000e+01
9.375000e+01
9.375000e+01
9.375000e+01
9.375000e+01
9.375000e+01
9.375000e+01
9.375000e+01
9.375000e+01
9.375000e+01
9.375000e+01
9.375000e+01
9.375000e+01
9.375000e+01
9.375000e+01
9.375000e+01
9.375000e+01
9.375000e+01
9.375000e+01
9.375000e+01
9.375000e+01
9.375000e+01
9.375000e+01
9.375000e+01
9.375000e+01
9.375000e+01
9.375000e+01
9.375000e+01
9.375000e+01
9.375000e+01
9.375000e+01
9.375000e+01
9.375000e+01
9.375000e+01
1.000000e+02
1.000000e+02
1.000000e+02
1.000000e+02
1.000000e+02
1.000000e+02
1.000000e+02
1.000000e+02
1.000000e+02
1.000000e+02
1.000000e+02
1.000000e+02
1.000000e+02
1.000000e+02
1.000000e+02
1.000000e+02
1.000000e+02
1.000000e+02
1.000000e+02
1.000000e+02
1.000000e+02
1.000000e+02
1.000000e+02
1.000000e+02
1.000000e+02
1.000000e+02
1.000000e+02
1.000000e+02
1.000000e+02
1.000000e+02
1.000000e+02
1.000000e+02
1.000000e+02
0.000000e+00
-4.275711e-01
-7.370507e-01
-1.059318e+00
-1.368958e+00
-1.667035e+00
-1.975331e+00
-2.274727e+00
-2.573553e+00
-2.875427e+00
-3.173904e+00
-3.473266e+00
-3.772876e+00
-4.071153e+00
-4.370024e+00
-4.668569e+00
-4.966701e+00
-5.265092e+00
-5.563266e+00
-5.861523e+00
-6.160033e+00
-6.458723e+00
-6.758448e+00
-7.059546e+00
-7.362702e+00
-7.671358e+00
-7.986776e+00
-8.308883e+00
-8.648597e+00
-9.025314e+00
-9.455377e+00
-9.858218e+00
-1.006585e+01
0.000000e+00
-2.359269e-01
-4.834955e-01
-7.467302e-01
-1.013873e+00
-1.268104e+00
-1.535172e+00
-1.796388e+00
-2.056746e+00
-2.320697e+00
-2.581407e+00
-2.843126e+00
-3.105117e+00
-3.365922e+00
-3.627290e+00
-3.888296e+00
-4.148866e+00
-4.409513e+00
-4.669771e+00
-4.929840e+00
-5.189776e+00
-5.449375e+00
-5.709104e+00
-5.968671e+00
-6.227707e+00
-6.487622e+00
-6.747245e+00
-7.003748e+00
-7.260531e+00
-7.516533e+00
-7.728150e+00
-7.816365e+00
-7.920189e+00
0.000000e+00
-1.397524e-01
-3.024246e-01
-5.025853e-01
-7.145808e-01
-9.215122e-01
-1.144126e+00
-1.364605e+00
-1.585984e+00
-1.811032e+00
-2.034179e+00
-2.258737e+00
-2.483881e+00
-2.708433e+00
-2.933652e+00
-3.158739e+00
-3.383552e+00
-3.608359e+00
-3.832683e+00
-4.056496e+00
-4.279606e+00
-4.501504e+00
-4.721894e+00
-4.939685e+00
-5.153232e+00
-5.361221e+00
-5.560378e+00
-5.745663e+00
-5.911816e+00
-6.044682e+00
-6.104340e+00
-6.104824e+00
-6.196462e+00
0.000000e+00
-1.030462e-01
-2.076505e-01
-3.509114e-01
-4.954086e-01
-6.567083e-01
-8.321484e-01
-1.009469e+00
-1.191557e+00
-1.377090e+00
-1.563059e+00
-1.751067e+00
-1.940121e+00
-2.129353e+00
-2.319393e+00
-2.509494e+00
-2.699398e+00
-2.889042e+00
-3.077826e+00
-3.265365e+00
-3.451042e+00
-3.633843e+00
-3.812588e+00
-3.985435e+00
-4.149798e+00
-4.302670e+00
-4.439834e+00
-4.555338e+00
-4.641327e+00
-4.686251e+00
-4.686159e+00
-4.694571e+00
-4.775332e+00
0.000000e+00
-8.988252e-02
-1.788463e-01
-2.780704e-01
-3.889265e-01
-5.115304e-01
-6.438293e-01
-7.809351e-01
-9.239010e-01
-1.069429e+00
-1.216788e+00
-1.366093e+00
-1.515918e+00
-1.666387e+00
-1.817119e+00
-1.967578e+00
-2.117596e+00
-2.266657e+00
-2.414206e+00
-2.559582e+00
-2.701814e+00
-2.839630e+00
-2.971386e+00
-3.094944e+00
-3.207597e+00
-3.306077e+00
-3.386390e+00
-3.443774e+00
-3.473808e+00
-3.475852e+00
-3.463896e+00
-3.490723e+00
-3.568756e+00
0.000000e+00
-7.128689e-02
-1.416852e-01
-2.157232e-01
-2.975591e-01
-3.863669e-01
-4.816272e-01
-5.825065e-01
-6.868544e-01
-7.940998e-01
-9.031512e-01
-1.013221e+00
-1.124033e+00
-1.235031e+00
-1.345891e+00
-1.456283e+00
-1.565747e+00
-1.673808e+00
-1.779823e+00
-1.882944e+00
-1.982083e+00
-2.075822e+00
-2.162393e+00
-2.239693e+00
-2.305304e+00
-2.356583e+00
-2.390792e+00
-2.405623e+00
-2.401258e+00
-2.383388e+00
-2.376225e+00
-2.408782e+00
-2.482654e+00
0.000000e+00
-4.892563e-02
-9.754862e-02
-1.478902e-01
-2.017877e-01
-2.599654e-01
-3.222082e-01
-3.878881e-01
-4.562346e-01
-5.263909e-01
-5.977372e-01
-6.697211e-01
-7.419057e-01
-8.139493e-01
-8.854977e-01
-9.562006e-01
-1.025651e+00
-1.093340e+00
-1.158622e+00
-1.220655e+00
-1.278354e+00
-1.330353e+00
-1.375007e+00
-1.410453e+00
-1.434746e+00
-1.446115e+00
-1.443302e+00
-1.426353e+00
-1.398536e+00
-1.369894e+00
-1.362911e+00
-1.397377e+00
-1.469632e+00
0.000000e+00
-2.515293e-02
-5.021979e-02
-7.590475e-02
-1.030043e-01
-1.319242e-01
-1.626632e-01
-1.949470e-01
-2.283590e-01
-2.624785e-01
-2.969023e-01
-3.312897e-01
-3.653433e-01
-3.987863e-01
-4.313453e-01
-4.627172e-01
-4.925459e-01
-5.203921e-01
-5.456963e-01
-5.677381e-01
-5.855955e-01
-5.981202e-01
-6.039484e-01
-6.015764e-01
-5.895458e-01
-5.667926e-01
-5.332657e-01
-4.912404e-01
-4.472067e-01
-4.128831e-01
-4.075978e-01
-4.434397e-01
-5.150019e-01
0.000000e+00
-8.138105e-04
-1.552780e-03
-2.180574e-03
-2.651060e-03
-2.906316e-03
-2.877028e-03
-2.482353e-03
-1.630778e-03
-2.202990e-04
1.861798e-03
4.739874e-03
8.552487e-03
1.345675e-02
1.963536e-02
2.730586e-02
3.673200e-02
4.823791e-02
6.222840e-02
7.921691e-02
9.985454e-02
1.249484e-01
1.554554e-01
1.924069e-01
2.366723e-01
2.884617e-01
3.464020e-01
4.059977e-01
4.586514e-01
4.924148e-01
4.940181e-01
4.573111e-01
3.897585e-01
0.000000e+00
2.354983e-02
4.715801e-02
7.160011e-02
9.776670e-02
1.261775e-01
1.569701e-01
1.900301e-01
2.251220e-01
2.620270e-01
3.005645e-01
3.406391e-01
3.822242e-01
4.253470e-01
4.700836e-01
5.165447e-01
5.648757e-01
6.152566e-01
6.679062e-01
7.230956e-01
7.811514e-01
8.424530e-01
9.074248e-01
9.764201e-01
1.049340e+00
1.125004e+00
1.200377e+00
1.269690e+00
1.324339e+00
1.354573e+00
1.353014e+00
1.319139e+00
1.262564e+00
0.000000e+00
4.739214e-02
9.460454e-02
1.437376e-01
1.967170e-01
2.543850e-01
3.166595e-01
3.830721e-01
4.530286e-01
5.258691e-01
6.011949e-01
6.786909e-01
7.581785e-01
8.395944e-01
9.228864e-01
1.008049e+00
1.095080e+00
1.183974e+00
1.274737e+00
1.367377e+00
1.461849e+00
1.558007e+00
1.655597e+00
1.754088e+00
1.852182e+00
1.947264e+00
2.035089e+00
2.109760e+00
2.164491e+00
2.193216e+00
2.192942e+00
2.166655e+00
2.124957e+00
0.000000e+00
6.985035e-02
1.389012e-01
2.117490e-01
2.926852e-01
3.809352e-01
4.761558e-01
5.776555e-01
6.834399e-01
7.931599e-01
9.059310e-01
1.021213e+00
1.138990e+00
1.258958e+00
1.381045e+00
1.505144e+00
1.631028e+00
1.758463e+00
1.887142e+00
2.016711e+00
2.146623e+00
2.276064e+00
2.404130e+00
2.529602e+00
2.650237e+00
2.762414e+00
2.861449e+00
2.942266e+00
3.000205e+00
3.032084e+00
3.037622e+00
3.021367e+00
2.994281e+00
0.000000e+00
8.855726e-02
1.761752e-01
2.742751e-01
3.840983e-01
5.060612e-01
6.381112e-01
7.754902e-01
9.194913e-01
1.066930e+00
1.217359e+00
1.371133e+00
1.527107e+00
1.685701e+00
1.846729e+00
2.009823e+00
2.174815e+00
2.341050e+00
2.507855e+00
2.674401e+00
2.839417e+00
3.001522e+00
3.159469e+00
3.311564e+00
3.454781e+00
3.584747e+00
3.696802e+00
3.786893e+00
3.852052e+00
3.890900e+00
3.904624e+00
3.898572e+00
3.884066e+00
0.000000e+00
1.017962e-01
2.053951e-01
3.473950e-01
4.909165e-01
6.512967e-01
8.260852e-01
1.003090e+00
1.185277e+00
1.371566e+00
1.559079e+00
1.749709e+00
1.942773e+00
2.137704e+00
2.335426e+00
2.535378e+00
2.737213e+00
2.940498e+00
3.144183e+00
3.347007e+00
3.547202e+00
3.743283e+00
3.933899e+00
4.116138e+00
4.285094e+00
4.435346e+00
4.562465e+00
4.663594e+00
4.737403e+00
4.784114e+00
4.806051e+00
4.808911e+00
4.803991e+00
0.000000e+00
1.392451e-01
3.014090e-01
5.009267e-01
7.120712e-01
9.182753e-01
1.140173e+00
1.360002e+00
1.580891e+00
1.805634e+00
2.028744e+00
2.253664e+00
2.479742e+00
2.705972e+00
2.933823e+00
3.162727e+00
3.392491e+00
3.623176e+00
3.854106e+00
4.084261e+00
4.312141e+00
4.537193e+00
4.758666e+00
4.971639e+00
5.167430e+00
5.338204e+00
5.479491e+00
5.589814e+00
5.669763e+00
5.721519e+00
5.748863e+00
5.757824e+00
5.758797e+00
0.000000e+00
2.358223e-01
4.833653e-01
7.465155e-01
1.013499e+00
1.267593e+00
1.534477e+00
1.795439e+00
2.055523e+00
2.319110e+00
2.579342e+00
2.840468e+00
3.101704e+00
3.361523e+00
3.621618e+00
3.881063e+00
4.139573e+00
4.397501e+00
4.654498e+00
4.910130e+00
5.163718e+00
5.415911e+00
5.666545e+00
5.908407e+00
6.128540e+00
6.316438e+00
6.467385e+00
6.581052e+00
6.659947e+00
6.708751e+00
6.733917e+00
6.743123e+00
6.745356e+00
0.000000e+00
4.278734e-01
7.378873e-01
1.060599e+00
1.370904e+00
1.669620e+00
1.978513e+00
2.278465e+00
2.577730e+00
2.879901e+00
3.178401e+00
3.477443e+00
3.776203e+00
4.072833e+00
4.369015e+00
4.663582e+00
4.956106e+00
5.247086e+00
5.536331e+00
5.823911e+00
6.109962e+00
6.395581e+00
6.679260e+00
6.950233e+00
7.191864e+00
7.392088e+00
7.545987e+00
7.653653e+00
7.718839e+00
7.748867e+00
7.754814e+00
7.750662e+00
7.748214e+00
0.000000e+00
-2.572879e-01
-5.180725e-01
-8.451017e-01
-1.209425e+00
-1.614554e+00
-2.062451e+00
-2.545541e+00
-3.067677e+00
-3.627455e+00
-4.224071e+00
-4.859136e+00
-5.531666e+00
-6.241951e+00
-6.990387e+00
-7.776646e+00
-8.601069e+00
-9.463818e+00
-1.036496e+01
-1.130485e+01
-1.228369e+01
-1.330187e+01
-1.435996e+01
-1.545861e+01
-1.659950e+01
-1.778551e+01
-1.902032e+01
-2.031120e+01
-2.167007e+01
-2.311044e+01
-2.465891e+01
-2.647630e+01
-2.902252e+01
0.000000e+00
-1.619309e-01
-4.376762e-01
-7.584376e-01
-1.126341e+00
-1.530496e+00
-1.977772e+00
-2.462150e+00
-2.983552e+00
-3.543395e+00
-4.140324e+00
-4.775127e+00
-5.447844e+00
-6.158194e+00
-6.906585e+00
-7.692979e+00
-8.517432e+00
-9.380218e+00
-1.028144e+01
-1.122134e+01
-1.220024e+01
-1.321839e+01
-1.427638e+01
-1.537498e+01
-1.651542e+01
-1.770061e+01
-1.893500e+01
-2.022475e+01
-2.158093e+01
-2.302144e+01
-2.458829e+01
-2.638437e+01
-2.865636e+01
0.000000e+00
-1.315780e-01
-3.791502e-01
-6.967053e-01
-1.060064e+00
-1.462109e+00
-1.907913e+00
-2.391575e+00
-2.912236e+00
-3.471823e+00
-4.068526e+00
-4.703100e+00
-5.375820e+00
-6.086089e+00
-6.834494e+00
-7.620978e+00
-8.445518e+00
-9.308478e+00
-1.020991e+01
-1.115010e+01
-1.212939e+01
-1.314803e+01
-1.420674e+01
-1.530640e+01
-1.644818e+01
-1.763522e+01
-1.887225e+01
-2.016549e+01
-2.152829e+01
-2.299009e+01
-2.458465e+01
-2.627620e+01
-2.804585e+01
0.000000e+00
-1.443966e-01
-3.633847e-01
-6.690395e-01
-1.018605e+00
-1.414574e+00
-1.856536e+00
-2.336541e+00
-2.855671e+00
-3.414020e+00
-4.009696e+00
-4.643829e+00
-5.316146e+00
-6.026216e+00
-6.774625e+00
-7.561200e+00
-8.386013e+00
-9.249408e+00
-1.015146e+01
-1.109249e+01
-1.207293e+01
-1.309310e+01
-1.415384e+01
-1.525617e+01
-1.640147e+01
-1.759287e+01
-1.883502e+01
-2.013479e+01
-2.150729e+01
-2.298250e+01
-2.456521e+01
-2.612171e+01
-2.754372e+01
0.000000e+00
-1.631695e-01
-3.798201e-01
-6.672867e-01
-1.005363e+00
-1.391277e+00
-1.825565e+00
-2.299847e+00
-2.815722e+00
-3.371402e+00
-3.965407e+00
-4.598625e+00
-5.270191e+00
-5.980080e+00
-6.728534e+00
-7.515380e+00
-8.340820e+00
-9.205073e+00
-1.010833e+01
-1.105098e+01
-1.203347e+01
-1.305629e+01
-1.412027e+01
-1.522646e+01
-1.637640e+01
-1.757288e+01
-1.882008e+01
-2.012419e+01
-2.149754e+01
-2.295899e+01
-2.448583e+01
-2.591783e+01
-2.717318e+01
0.000000e+00
-1.714118e-01
-3.928227e-01
-6.703738e-01
-1.000483e+00
-1.379493e+00
-1.805800e+00
-2.275787e+00
-2.787809e+00
-3.340859e+00
-3.933567e+00
-4.565701e+00
-5.236879e+00
-5.946800e+00
-6.695532e+00
-7.483048e+00
-8.309469e+00
-9.175047e+00
-1.008007e+01
-1.102495e+01
-1.201020e+01
-1.303641e+01
-1.410429e+01
-1.521475e+01
-1.636910e+01
-1.756948e+01
-1.881895e+01
-2.012092e+01
-2.148060e+01
-2.290531e+01
-2.434806e+01
-2.569001e+01
-2.685078e+01
0.000000e+00
-1.753272e-01
-3.988600e-01
-6.733158e-01
-9.985443e-01
-1.372864e+00
-1.794241e+00
-2.260547e+00
-2.769946e+00
-3.321017e+00
-3.912714e+00
-4.544317e+00
-5.215378e+00
-5.925627e+00
-6.674959e+00
-7.463400e+00
-8.291086e+00
-9.158272e+00
-1.006533e+01
-1.101272e+01
-1.200100e+01
-1.303075e+01
-1.410250e+01
-1.521682e+01
-1.637434e+01
-1.757610e+01
-1.882343e+01
-2.011581e+01
-2.145085e+01
-2.282503e+01
-2.418949e+01
-2.545815e+01
-2.655325e+01
0.000000e+00
-1.770552e-01
-4.015259e-01
-6.750671e-01
-9.980846e-01
-1.369772e+00
-1.788621e+00
-2.252851e+00
-2.760765e+00
-3.310924e+00
-3.902203e+00
-4.533804e+00
-5.205192e+00
-5.916055e+00
-6.666260e+00
-7.455825e+00
-8.284901e+00
-9.153771e+00
-1.006284e+01
-1.101263e+01
-1.200370e+01
-1.303656e+01
-1.411152e+01
-1.522861e+01
-1.638747e+01
-1.758760e+01
-1.882808e+01
-2.010493e+01
-2.140950e+01
-2.273112e+01
-2.402498e+01
-2.522637e+01
-2.626404e+01
0.000000e+00
-1.775885e-01
-4.024271e-01
-6.758818e-01
-9.984339e-01
-1.369526e+00
-1.787842e+00
-2.251734e+00
-2.759557e+00
-3.309873e+00
-3.901545e+00
-4.533740e+00
-5.205899e+00
-5.917693e+00
-6.668982e+00
-7.459781e+00
-8.290248e+00
-9.160670e+00
-1.007147e+01
-1.102318e+01
-1.201635e+01
-1.305140e+01
-1.412836e+01
-1.524662e+01
-1.640468e+01
-1.760026e+01
-1.883008e+01
-2.008737e+01
-2.135975e+01
-2.263039e+01
-2.386157e+01
-2.499987e+01
-2.598611e+01
0.000000e+00
-1.772204e-01
-4.019625e-01
-6.758988e-01
-9.994538e-01
-1.371838e+00
-1.791555e+00
-2.256835e+00
-2.765987e+00
-3.317572e+00
-3.910463e+00
-4.543858e+00
-5.217216e+00
-5.930223e+00
-6.682747e+00
-7.474803e+00
-8.306537e+00
-9.178214e+00
-1.009023e+01
-1.104312e+01
-1.203737e+01
-1.307326e+01
-1.415054e+01
-1.526802e+01
-1.642314e+01
-1.761190e+01
-1.882869e+01
-2.006447e+01
-2.130481e+01
-2.252958e+01
-2.370727e+01
-2.479456e+01
-2.574522e+01
0.000000e+00
-1.756426e-01
-3.996987e-01
-6.749249e-01
-1.001205e+00
-1.376890e+00
-1.799977e+00
-2.268351e+00
-2.780186e+00
-3.334067e+00
-3.928937e+00
-4.564066e+00
-5.238992e+00
-5.953431e+00
-6.707265e+00
-7.500510e+00
-8.333275e+00
-9.205772e+00
-1.011835e+01
-1.107146e+01
-1.206551e+01
-1.310059e+01
-1.417629e+01
-1.529111e+01
-1.644167e+01
-1.762237e+01
-1.882542e+01
-2.003987e+01
-2.125046e+01
-2.243722e+01
-2.357375e+01
-2.462724e+01
-2.556254e+01
0.000000e+00
-1.718425e-01
-3.939773e-01
-6.726469e-01
-1.004268e+00
-1.385253e+00
-1.814061e+00
-2.287058e+00
-2.802639e+00
-3.359798e+00
-3.957142e+00
-4.594428e+00
-5.271231e+00
-5.987209e+00
-6.742384e+00
-7.536682e+00
-8.370154e+00
-9.242943e+00
-1.015529e+01
-1.110758e+01
-1.209999e+01
-1.313249e+01
-1.420491e+01
-1.531587e+01
-1.646124e+01
-1.763381e+01
-1.882378e+01
-2.001887e+01
-2.120397e+01
-2.236099e+01
-2.346870e+01
-2.450320e+01
-2.543922e+01
0.000000e+00
-1.636440e-01
-3.811184e-01
-6.700547e-01
-1.009968e+00
-1.398392e+00
-1.835890e+00
-2.313980e+00
-2.834417e+00
-3.395364e+00
-3.995312e+00
-4.635146e+00
-5.313918e+00
-6.031519e+00
-6.788060e+00
-7.583264e+00
-8.417154e+00
-9.289711e+00
-1.020109e+01
-1.115154e+01
-1.214093e+01
-1.316940e+01
-1.423757e+01
-1.534443e+01
-1.648494e+01
-1.765005e+01
-1.882829e+01
-2.000669e+01
-2.117086e+01
-2.230520e+01
-2.339340e+01
-2.441934e+01
-2.536741e+01
0.000000e+00
-1.447686e-01
-3.647416e-01
-6.719239e-01
-1.023647e+00
-1.422447e+00
-1.868107e+00
-2.352532e+00
-2.876941e+00
-3.441452e+00
-4.044081e+00
-4.685997e+00
-5.366827e+00
-6.085964e+00
-6.843813e+00
-7.639953e+00
-8.474108e+00
-9.346208e+00
-1.025623e+01
-1.120425e+01
-1.218996e+01
-1.321393e+01
-1.427787e+01
-1.538100e+01
-1.651696e+01
-1.767500e+01
-1.884258e+01
-2.000663e+01
-2.115377e+01
-2.227071e+01
-2.334543e+01
-2.436883e+01
-2.533546e+01
0.000000e+00
-1.320071e-01
-3.805065e-01
-6.995606e-01
-1.065087e+00
-1.470077e+00
-1.919723e+00
-2.408045e+00
-2.934276e+00
-3.500413e+00
-4.104548e+00
-4.747498e+00
-5.429457e+00
-6.149602e+00
-6.908323e+00
-7.705178e+00
-8.539620e+00
-9.411464e+00
-1.032044e+01
-1.126641e+01
-1.224917e+01
-1.326973e+01
-1.433029e+01
-1.542972e+01
-1.656042e+01
-1.771064e+01
-1.886772e+01
-2.001907e+01
-2.115224e+01
-2.225564e+01
-2.332043e+01
-2.434329e+01
-2.532927e+01
0.000000e+00
-1.623292e-01
-4.389591e-01
-7.611931e-01
-1.131249e+00
-1.538393e+00
-1.989522e+00
-2.478619e+00
-3.005675e+00
-3.572147e+00
-4.176643e+00
-4.819988e+00
-5.502142e+00
-6.222620e+00
-6.981594e+00
-7.778586e+00
-8.613050e+00
-9.484651e+00
-1.039296e+01
-1.133769e+01
-1.231892e+01
-1.333794e+01
-1.439632e+01
-1.549156e+01
-1.661522e+01
-1.775588e+01
-1.890179e+01
-2.004124e+01
-2.116257e+01
-2.225529e+01
-2.331234e+01
-2.433402e+01
-2.533346e+01
0.000000e+00
-2.577421e-01
-5.194233e-01
-8.479117e-01
-1.214411e+00
-1.622526e+00
-2.074260e+00
-2.562066e+00
-3.089843e+00
-3.656214e+00
-4.260362e+00
-4.903907e+00
-5.585776e+00
-6.306051e+00
-7.064889e+00
-7.861491e+00
-8.695576e+00
-9.566771e+00
-1.047453e+01
-1.141856e+01
-1.239921e+01
-1.341788e+01
-1.447458e+01