TITLE = "Solution"
VARIABLES = x, y, u, v, psiu, psiv, t, stress
ZONE T="structure" N=561 E=512 F=FEBLOCK ET=QUADRILATERAL VARLOCATION=([7,8]=cellcentered)
0.000000e+00
6.250000e+00
1.250000e+01
1.875000e+01
2.500000e+01
3.125000e+01
3.750000e+01
4.375000e+01
5.000000e+01
5.625000e+01
6.250000e+01
6.875000e+01
7.500000e+01
8.125000e+01
8.750000e+01
9.375000e+01
1.000000e+02
1.062500e+02
1.125000e+02
1.187500e+02
1.250000e+02
1.312500e+02
1.375000e+02
1.437500e+02
1.500000e+02
1.562500e+02
1.625000e+02
1.687500e+02
1.750000e+02
1.812500e+02
1.875000e+02
1.937500e+02
2.000000e+02
0.000000e+00
6.250000e+00
1.250000e+01
1.875000e+01
2.500000e+01
3.125000e+01
3.750000e+01
4.375000e+01
5.000000e+01
5.625000e+01
6.250000e+01
6.875000e+01
7.500000e+01
8.125000e+01
8.750000e+01
9.375000e+01
1.000000e+02
1.062500e+02
1.125000e+02
1.187500e+02
1.250000e+02
1.312500e+02
1.375000e+02
1.437500e+02
1.500000e+02
1.562500e+02
1.625000e+02
1.687500e+02
1.750000e+02
1.812500e+02
1.875000e+02
1.937500e+02
2.000000e+02
0.000000e+00
6.250000e+00
1.250000e+01
1.875000e+01
2.500000e+01
3.125000e+01
3.750000e+01
4.375000e+01
5.000000e+01
5.625000e+01
6.250000e+01
6.875000e+01
7.500000e+01
8.125000e+01
8.750000e+01
9.375000e+01
1.000000e+02
1.062500e+02
1.125000e+02
1.187500e+02
1.250000e+02
1.312500e+02
1.375000e+02
1.437500e+02
1.500000e+02
1.562500e+02
1.625000e+02
1.687500e+02
1.750000e+02
1.812500e+02
1.875000e+02
1.937500e+02
2.000000e+02
0.000000e+00
6.250000e+00
1.250000e+01
1.875000e+01
2.500000e+01
3.125000e+01
3.750000e+01
4.375000e+01
5.000000e+01
5.625000e+01
6.250000e+01
6.875000e+01
7.500000e+01
8.125000e+01
8.750000e+01
9.375000e+01
1.000000e+02
1.062500e+02
1.125000e+02
1.187500e+02
1.250000e+02
1.312500e+02
1.375000e+02
1.437500e+02
1.500000e+02
1.562500e+02
1.625000e+02
1.687500e+02
1.750000e+02
1.812500e+02
1.875000e+02
1.937500e+02
2.000000e+02
0.000000e+00
6.250000e+00
1.250000e+01
1.875000e+01
2.500000e+01
3.125000e+01
3.750000e+01
4.375000e+01
5.000000e+01
5.625000e+01
6.250000e+01
6.875000e+01
7.500000e+01
8.125000e+01
8.750000e+01
9.375000e+01
1.000000e+02
1.062500e+02
1.125000e+02
1.187500e+02
1.250000e+02
1.312500e+02
1.375000e+02
1.437500e+02
1.500000e+02
1.562500e+02
1.625000e+02
1.687500e+02
1.750000e+02
1.812500e+02
1.875000e+02
1.937500e+02
2.000000e+02
0.000000e+00
6.250000e+00
1.250000e+01
1.875000e+01
2.500000e+01
3.125000e+01
3.750000e+01
4.375000e+01
5.000000e+01
5.625000e+01
6.250000e+01
6.875000e+01
7.500000e+01
8.125000e+01
8.750000e+01
9.375000e+01
1.000000e+02
1.062500e+02
1.125000e+02
1.187500e+02
1.250000e+02
1.312500e+02
1.375000e+02
1.437500e+02
1.500000e+02
1.562500e+02
1.625000e+02
1.687500e+02
1.750000e+02
1.812500e+02
1.875000e+02
1.937500e+02
2.000000e+02
0.000000e+00
6.250000e+00
1.250000e+01
1.875000e+01
2.500000e+01
3.125000e+01
3.750000e+01
4.375000e+01
5.000000e+01
5.625000e+01
6.250000e+01
6.875000e+01
7.500000e+01
8.125000e+01
8.750000e+01
9.375000e+01
1.000000e+02
1.062500e+02
1.125000e+02
1.187500e+02
1.250000e+02
1.312500e+02
1.375000e+02
1.437500e+02
1.500000e+02
1.562500e+02
1.625000e+02
1.687500e+02
1.750000e+02
1.812500e+02
1.875000e+02
1.937500e+02
2.000000e+02
0.000000e+00
6.250000e+00
1.250000e+01
1.875000e+01
2.500000e+01
3.125000e+01
3.750000e+01
4.375000e+01
5.000000e+01
5.625000e+01
6.250000e+01
6.875000e+01
7.500000e+01
8.125000e+01
8.750000e+01
9.375000e+01
1.000000e+02
1.062500e+02
1.125000e+02
1.187500e+02
1.250000e+02
1.312500e+02
1.375000e+02
1.437500e+02
1.500000e+02
1.562500e+02
1.625000e+02
1.687500e+02
1.750000e+02
1.812500e+02
1.875000e+02
1.937500e+02
2.000000e+02
0.000000e+00
6.250000e+00
1.250000e+01
1.875000e+01
2.500000e+01
3.125000e+01
3.750000e+01
4.375000e+01
5.000000e+01
5.625000e+01
6.250000e+01
6.875000e+01
7.500000e+01
8.125000e+01
8.750000e+01
9.375000e+01
1.000000e+02
1.062500e+02
1.125000e+02
1.187500e+02
1.250000e+02
1.312500e+02
1.375000e+02
1.437500e+02
1.500000e+02
1.562500e+02
1.625000e+02
1.687500e+02
1.750000e+02
1.812500e+02
1.875000e+02
1.937500e+02
2.000000e+02
0.000000e+00
6.250000e+00
1.250000e+01
1.875000e+01
2.500000e+01
3.125000e+01
3.750000e+01
4.375000e+01
5.000000e+01
5.625000e+01
6.250000e+01
6.875000e+01
7.500000e+01
8.125000e+01
8.750000e+01
9.375000e+01
1.000000e+02
1.062500e+02
1.125000e+02
1.187500e+02
1.250000e+02
1.312500e+02
1.375000e+02
1.437500e+02
1.500000e+02
1.562500e+02
1.625000e+02
1.687500e+02
1.750000e+02
1.812500e+02
1.875000e+02
1.937500e+02
2.000000e+02
0.000000e+00
6.250000e+00
1.250000e+01
1.875000e+01
2.500000e+01
3.125000e+01
3.750000e+01
4.375000e+01
5.000000e+01
5.625000e+01
6.250000e+01
6.875000e+01
7.500000e+01
8.125000e+01
8.750000e+01
9.375000e+01
1.000000e+02
1.062500e+02
1.125000e+02
1.187500e+02
1.250000e+02
1.312500e+02
1.375000e+02
1.437500e+02
1.500000e+02
1.562500e+02
1.625000e+02
1.687500e+02
1.750000e+02
1.812500e+02
1.875000e+02
1.937500e+02
2.000000e+02
0.000000e+00
6.250000e+00
1.250000e+01
1.875000e+01
2.500000e+01
3.125000e+01
3.750000e+01
4.375000e+01
5.000000e+01
5.625000e+01
6.250000e+01
6.875000e+01
7.500000e+01
8.125000e+01
8.750000e+01
9.375000e+01
1.000000e+02
1.062500e+02
1.125000e+02
1.187500e+02
1.250000e+02
1.312500e+02
1.375000e+02
1.437500e+02
1.500000e+02
1.562500e+02
1.625000e+02
1.687500e+02
1.750000e+02
1.812500e+02
1.875000e+02
1.937500e+02
2.000000e+02
0.000000e+00
6.250000e+00
1.250000e+01
1.875000e+01
2.500000e+01
3.125000e+01
3.750000e+01
4.375000e+01
5.000000e+01
5.625000e+01
6.250000e+01
6.875000e+01
7.500000e+01
8.125000e+01
8.750000e+01
9.375000e+01
1.000000e+02
1.062500e+02
1.125000e+02
1.187500e+02
1.250000e+02
1.312500e+02
1.375000e+02
1.437500e+02
1.500000e+02
1.562500e+02
1.625000e+02
1.687500e+02
1.750000e+02
1.812500e+02
1.875000e+02
1.937500e+02
2.000000e+02
0.000000e+00
6.250000e+00
1.250000e+01
1.875000e+01
2.500000e+01
3.125000e+01
3.750000e+01
4.375000e+01
5.000000e+01
5.625000e+01
6.250000e+01
6.875000e+01
7.500000e+01
8.125000e+01
8.750000e+01
9.375000e+01
1.000000e+02
1.062500e+02
1.125000e+02
1.187500e+02
1.250000e+02
1.312500e+02
1.375000e+02
1.437500e+02
1.500000e+02
1.562500e+02
1.625000e+02
1.687500e+02
1.750000e+02
1.812500e+02
1.875000e+02
1.937500e+02
2.000000e+02
0.000000e+00
6.250000e+00
1.250000e+01
1.875000e+01
2.500000e+01
3.125000e+01
3.750000e+01
4.375000e+01
5.000000e+01
5.625000e+01
6.250000e+01
6.875000e+01
7.500000e+01
8.125000e+01
8.750000e+01
9.375000e+01
1.000000e+02
1.062500e+02
1.125000e+02
1.187500e+02
1.250000e+02
1.312500e+02
1.375000e+02
1.437500e+02
1.500000e+02
1.562500e+02
1.625000e+02
1.687500e+02
1.750000e+02
1.812500e+02
1.875000e+02
1.937500e+02
2.000000e+02
0.000000e+00
6.250000e+00
1.250000e+01
1.875000e+01
2.500000e+01
3.125000e+01
3.750000e+01
4.375000e+01
5.000000e+01
5.625000e+01
6.250000e+01
6.875000e+01
7.500000e+01
8.125000e+01
8.750000e+01
9.375000e+01
1.000000e+02
1.062500e+02
1.125000e+02
1.187500e+02
1.250000e+02
1.312500e+02
1.375000e+02
1.437500e+02
1.500000e+02
1.562500e+02
1.625000e+02
1.687500e+02
1.750000e+02
1.812500e+02
1.875000e+02
1.937500e+02
2.000000e+02
0.000000e+00
6.250000e+00
1.250000e+01
1.875000e+01
2.500000e+01
3.125000e+01
3.750000e+01
4.375000e+01
5.000000e+01
5.625000e+01
6.250000e+01
6.875000e+01
7.500000e+01
8.125000e+01
8.750000e+01
9.375000e+01
1.000000e+02
1.062500e+02
1.125000e+02
1.187500e+02
1.250000e+02
1.312500e+02
1.375000e+02
1.437500e+02
1.500000e+02
1.562500e+02
1.625000e+02
1.687500e+02
1.750000e+02
1.812500e+02
1.875000e+02
1.937500e+02
2.000000e+02
0.000000e+00
0.000000e+00
0.000000e+00
0.000000e+00
0.000000e+00
0.000000e+00
0.000000e+00
0.000000e+00
0.000000e+00
0.000000e+00
0.000000e+00
0.000000e+00
0.000000e+00
0.000000e+00
0.000000e+00
0.000000e+00
0.000000e+00
0.000000e+00
0.000000e+00
0.000000e+00
0.000000e+00
0.000000e+00
0.000000e+00
0.000000e+00
0.000000e+00
0.000000e+00
0.000000e+00
0.000000e+00
0.000000e+00
0.000000e+00
0.000000e+00
0.000000e+00
0.000000e+00
6.250000e+00
6.250000e+00
6.250000e+00
6.250000e+00
6.250000e+00
6.250000e+00
6.250000e+00
6.250000e+00
6.250000e+00
6.250000e+00
6.250000e+00
6.250000e+00
6.250000e+00
6.250000e+00
6.250000e+00
6.250000e+00
6.250000e+00
6.250000e+00
6.250000e+00
6.250000e+00
6.250000e+00
6.250000e+00
6.250000e+00
6.250000e+00
6.250000e+00
6.250000e+00
6.250000e+00
6.250000e+00
6.250000e+00
6.250000e+00
6.250000e+00
6.250000e+00
6.250000e+00
1.250000e+01
1.250000e+01
1.250000e+01
1.250000e+01
1.250000e+01
1.250000e+01
1.250000e+01
1.250000e+01
1.250000e+01
1.250000e+01
1.250000e+01
1.250000e+01
1.250000e+01
1.250000e+01
1.250000e+01
1.250000e+01
1.250000e+01
1.250000e+01
1.250000e+01
1.250000e+01
1.250000e+01
1.250000e+01
1.250000e+01
1.250000e+01
1.250000e+01
1.250000e+01
1.250000e+01
1.250000e+01
1.250000e+01
1.250000e+01
1.250000e+01
1.250000e+01
1.250000e+01
1.875000e+01
1.875000e+01
1.875000e+01
1.875000e+01
1.875000e+01
1.875000e+01
1.875000e+01
1.875000e+01
1.875000e+01
1.875000e+01
1.875000e+01
1.875000e+01
1.875000e+01
1.875000e+01
1.875000e+01
1.875000e+01
1.875000e+01
1.875000e+01
1.875000e+01
1.875000e+01
1.875000e+01
1.875000e+01
1.875000e+01
1.875000e+01
1.875000e+01
1.875000e+01
1.875000e+01
1.875000e+01
1.875000e+01
1.875000e+01
1.875000e+01
1.875000e+01
1.875000e+01
2.500000e+01
2.500000e+01
2.500000e+01
2.500000e+01
2.500000e+01
2.500000e+01
2.500000e+01
2.500000e+01
2.500000e+01
2.500000e+01
2.500000e+01
2.500000e+01
2.500000e+01
2.500000e+01
2.500000e+01
2.500000e+01
2.500000e+01
2.500000e+01
2.500000e+01
2.500000e+01
2.500000e+01
2.500000e+01
2.500000e+01
2.500000e+01
2.500000e+01
2.500000e+01
2.500000e+01
2.500000e+01
2.500000e+01
2.500000e+01
2.500000e+01
2.500000e+01
2.500000e+01
3.125000e+01
3.125000e+01
3.125000e+01
3.125000e+01
3.125000e+01
3.125000e+01
3.125000e+01
3.125000e+01
3.125000e+01
3.125000e+01
3.125000e+01
3.125000e+01
3.125000e+01
3.125000e+01
3.125000e+01
3.125000e+01
3.125000e+01
3.125000e+01
3.125000e+01
3.125000e+01
3.125000e+01
3.125000e+01
3.125000e+01
3.125000e+01
3.125000e+01
3.125000e+01
3.125000e+01
3.125000e+01
3.125000e+01
3.125000e+01
3.125000e+01
3.125000e+01
3.125000e+01
3.750000e+01
3.750000e+01
3.750000e+01
3.750000e+01
3.750000e+01
3.750000e+01
3.750000e+01
3.750000e+01
3.750000e+01
3.750000e+01
3.750000e+01
3.750000e+01
3.750000e+01
3.750000e+01
3.750000e+01
3.750000e+01
3.750000e+01
3.750000e+01
3.750000e+01
3.750000e+01
3.750000e+01
3.750000e+01
3.750000e+01
3.750000e+01
3.750000e+01
3.750000e+01
3.750000e+01
3.750000e+01
3.750000e+01
3.750000e+01
3.750000e+01
3.750000e+01
3.750000e+01
4.375000e+01
4.375000e+01
4.375000e+01
4.375000e+01
4.375000e+01
4.375000e+01
4.375000e+01
4.375000e+01
4.375000e+01
4.375000e+01
4.375000e+01
4.375000e+01
4.375000e+01
4.375000e+01
4.375000e+01
4.375000e+01
4.375000e+01
4.375000e+01
4.375000e+01
4.375000e+01
4.375000e+01
4.375000e+01
4.375000e+01
4.375000e+01
4.375000e+01
4.375000e+01
4.375000e+01
4.375000e+01
4.375000e+01
4.375000e+01
4.375000e+01
4.375000e+01
4.375000e+01
5.000000e+01
5.000000e+01
5.000000e+01
5.000000e+01
5.000000e+01
5.000000e+01
5.000000e+01
5.000000e+01
5.000000e+01
5.000000e+01
5.000000e+01
5.000000e+01
5.000000e+01
5.000000e+01
5.000000e+01
5.000000e+01
5.000000e+01
5.000000e+01
5.000000e+01
5.000000e+01
5.000000e+01
5.000000e+01
5.000000e+01
5.000000e+01
5.000000e+01
5.000000e+01
5.000000e+01
5.000000e+01
5.000000e+01
5.000000e+01
5.000000e+01
5.000000e+01
5.000000e+01
5.625000e+01
5.625000e+01
5.625000e+01
5.625000e+01
5.625000e+01
5.625000e+01
5.625000e+01
5.625000e+01
5.625000e+01
5.625000e+01
5.625000e+01
5.625000e+01
5.625000e+01
5.625000e+01
5.625000e+01
5.625000e+01
5.625000e+01
5.625000e+01
5.625000e+01
5.625000e+01
5.625000e+01
5.625000e+01
5.625000e+01
5.625000e+01
5.625000e+01
5.625000e+01
5.625000e+01
5.625000e+01
5.625000e+01
5.625000e+01
5.625000e+01
5.625000e+01
5.625000e+01
6.250000e+01
6.250000e+01
6.250000e+01
6.250000e+01
6.250000e+01
6.250000e+01
6.250000e+01
6.250000e+01
6.250000e+01
6.250000e+01
6.250000e+01
6.250000e+01
6.250000e+01
6.250000e+01
6.250000e+01
6.250000e+01
6.250000e+01
6.250000e+01
6.250000e+01
6.250000e+01
6.250000e+01
6.250000e+01
6.250000e+01
6.250000e+01
6.250000e+01
6.250000e+01
6.250000e+01
6.250000e+01
6.250000e+01
6.250000e+01
6.250000e+01
6.250000e+01
6.250000e+01
6.875000e+01
6.875000e+01
6.875000e+01
6.875000e+01
6.875000e+01
6.875000e+01
6.875000e+01
6.875000e+01
6.875000e+01
6.875000e+01
6.875000e+01
6.875000e+01
6.875000e+01
6.875000e+01
6.875000e+01
6.875000e+01
6.875000e+01
6.875000e+01
6.875000e+01
6.875000e+01
6.875000e+01
6.875000e+01
6.875000e+01
6.875000e+01
6.875000e+01
6.875000e+01
6.875000e+01
6.875000e+01
6.875000e+01
6.875000e+01
6.875000e+01
6.875000e+01
6.875000e+01
7.500000e+01
7.500000e+01
7.500000e+01
7.500000e+01
7.500000e+01
7.500000e+01
7.500000e+01
7.500000e+01
7.500000e+01
7.500000e+01
7.500000e+01
7.500000e+01
7.500000e+01
7.500000e+01
7.500000e+01
7.500000e+01
7.500000e+01
7.500000e+01
7.500000e+01
7.500000e+01
7.500000e+01
7.500000e+01
7.500000e+01
7.500000e+01
7.500000e+01
7.500000e+01
7.500000e+01
7.500000e+01
7.500000e+01
7.500000e+01
7.500000e+01
7.500000e+01
7.500000e+01
8.125000e+01
8.125000e+01
8.125000e+01
8.125000e+01
8.125000e+01
8.125000e+01
8.125000e+01
8.125000e+01
8.125000e+01
8.125000e+01
8.125000e+01
8.125000e+01
8.125000e+01
8.125000e+01
8.125000e+01
8.125000e+01
8.125000e+01
8.125000e+01
8.125000e+01
8.125000e+01
8.125000e+01
8.125000e+01
8.125000e+01
8.125000e+01
8.125000e+01
8.125000e+01
8.125000e+01
8.125000e+01
8.125000e+01
8.125000e+01
8.125000e+01
8.125000e+01
8.125000e+01
8.750000e+01
8.750000e+01
8.750000e+01
8.750000e+01
8.750000e+01
8.750000e+01
8.750000e+01
8.750000e+01
8.750000e+01
8.750000e+01
8.750000e+01
8.750000e+01
8.750000e+01
8.750000e+01
8.750000e+01
8.750000e+01
8.750000e+01
8.750000e+01
8.750000e+01
8.750000e+01
8.750000e+01
8.750000e+01
8.750000e+01
8.750000e+01
8.750000e+01
8.750000e+01
8.750000e+01
8.750000e+01
8.750000e+01
8.750000e+01
8.750000e+01
8.750000e+01
8.750000e+01
9.375000e+01
9.375000e+01
9.375000e+01
9.375000e+01
9.375000e+01
9.375000e+01
9.375000e+01
9.375000e+01
9.375000e+01
9.375000e+01
9.375000e+01
9.375000e+01
9.375000e+01
9.375000e+01
9.375000e+01
9.375000e+01
9.375000e+01
9.375000e+01
9.375000e+01
9.375000e+01
9.375000e+01
9.375000e+01
9.375000e+01
9.375000e+01
9.375000e+01
9.375000e+01
9.375000e+01
9.375000e+01
9.375000e+01
9.375000e+01
9.375000e+01
9.375000e+01
9.375000e+01
1.000000e+02
1.000000e+02
1.000000e+02
1.000000e+02
1.000000e+02
1.000000e+02
1.000000e+02
1.000000e+02
1.000000e+02
1.000000e+02
1.000000e+02
1.000000e+02
1.000000e+02
1.000000e+02
1.000000e+02
1.000000e+02
1.000000e+02
1.000000e+02
1.000000e+02
1.000000e+02
1.000000e+02
1.000000e+02
1.000000e+02
1.000000e+02
1.000000e+02
1.000000e+02
1.000000e+02
1.000000e+02
1.000000e+02
1.000000e+02
1.000000e+02
1.000000e+02
1.000000e+02
0.000000e+00
-3.906334e-01
-6.970911e-01
-9.998351e-01
-1.306872e+00
-1.601219e+00
-1.898778e+00
-2.197078e+00
-2.492015e+00
-2.787239e+00
-3.082680e+00
-3.377066e+00
-3.670937e+00
-3.964470e+00
-4.257318e+00
-4.549413e+00
-4.840750e+00
-5.131188e+00
-5.420556e+00
-5.708694e+00
-5.995398e+00
-6.280281e+00
-6.562628e+00
-6.841532e+00
-7.116452e+00
-7.387915e+00
-7.658056e+00
-7.931037e+00
-8.214033e+00
-8.518833e+00
-8.852698e+00
-9.194152e+00
-9.387208e+00
0.000000e+00
-2.389214e-01
-4.927197e-01
-7.517175e-01
-1.017936e+00
-1.274282e+00
-1.533905e+00
-1.794903e+00
-2.053118e+00
-2.311472e+00
-2.570050e+00
-2.827679e+00
-3.084758e+00
-3.341475e+00
-3.597525e+00
-3.852820e+00
-4.107343e+00
-4.360948e+00
-4.613437e+00
-4.864579e+00
-5.114051e+00
-5.361274e+00
-5.605213e+00
-5.844398e+00
-6.077298e+00
-6.302815e+00
-6.520589e+00
-6.730890e+00
-6.933471e+00
-7.121338e+00
-7.264467e+00
-7.334273e+00
-7.424164e+00
0.000000e+00
-1.676980e-01
-3.490903e-01
-5.558819e-01
-7.743717e-01
-9.898456e-01
-1.210418e+00
-1.433109e+00
-1.654673e+00
-1.876835e+00
-2.099327e+00
-2.321255e+00
-2.542808e+00
-2.763993e+00
-2.984516e+00
-3.204222e+00
-3.422964e+00
-3.640471e+00
-3.856378e+00
-4.070201e+00
-4.281257e+00
-4.488534e+00
-4.690550e+00
-4.885346e+00
-5.070687e+00
-5.244278e+00
-5.403727e+00
-5.545917e+00
-5.665085e+00
-5.748236e+00
-5.775973e+00
-5.773099e+00
-5.859002e+00
0.000000e+00
-1.244389e-01
-2.585641e-01
-4.148481e-01
-5.842112e-01
-7.583096e-01
-9.390701e-01
-1.122708e+00
-1.307185e+00
-1.492907e+00
-1.679144e+00
-1.865256e+00
-2.051170e+00
-2.236661e+00
-2.421407e+00
-2.605148e+00
-2.787564e+00
-2.968218e+00
-3.146536e+00
-3.321756e+00
-3.492855e+00
-3.658468e+00
-3.816819e+00
-3.965707e+00
-4.102565e+00
-4.224487e+00
-4.328095e+00
-4.409113e+00
-4.461752e+00
-4.479427e+00
-4.468245e+00
-4.472492e+00
-4.549005e+00
0.000000e+00
-1.020936e-01
-2.071699e-01
-3.243342e-01
-4.504707e-01
-5.849867e-01
-7.252517e-01
-8.689180e-01
-1.015004e+00
-1.162599e+00
-1.310917e+00
-1.459505e+00
-1.607994e+00
-1.756019e+00
-1.903239e+00
-2.049280e+00
-2.193688e+00
-2.335893e+00
-2.475161e+00
-2.610543e+00
-2.740828e+00
-2.864498e+00
-2.979702e+00
-3.084242e+00
-3.175583e+00
-3.250881e+00
-3.307025e+00
-3.340871e+00
-3.350224e+00
-3.337819e+00
-3.323660e+00
-3.347898e+00
-3.423837e+00
0.000000e+00
-7.794711e-02
-1.579985e-01
-2.426336e-01
-3.341983e-01
-4.317165e-01
-5.339616e-01
-6.396760e-01
-7.477674e-01
-8.573685e-01
-9.678109e-01
-1.078585e+00
-1.189268e+00
-1.299474e+00
-1.408817e+00
-1.516867e+00
-1.623104e+00
-1.726882e+00
-1.827387e+00
-1.923603e+00
-2.014280e+00
-2.097924e+00
-2.172797e+00
-2.236933e+00
-2.288192e+00
-2.324399e+00
-2.343664e+00
-2.345154e+00
-2.330892e+00
-2.309768e+00
-2.304242e+00
-2.337955e+00
-2.414426e+00
0.000000e+00
-5.241343e-02
-1.059246e-01
-1.620433e-01
-2.217966e-01
-2.853829e-01
-3.522080e-01
-4.215532e-01
-4.926959e-01
-5.649880e-01
-6.379065e-01
-7.110241e-01
-7.839669e-01
-8.563828e-01
-9.279043e-01
-9.981092e-01
-1.066485e+00
-1.132393e+00
-1.195043e+00
-1.253463e+00
-1.306499e+00
-1.352824e+00
-1.390970e+00
-1.419404e+00
-1.436656e+00
-1.441582e+00
-1.433863e+00
-1.414953e+00
-1.389730e+00
-1.369147e+00
-1.370960e+00
-1.409436e+00
-1.482604e+00
0.000000e+00
-2.632166e-02
-5.319495e-02
-8.118068e-02
-1.107769e-01
-1.421159e-01
-1.750307e-01
-2.091803e-01
-2.441912e-01
-2.797108e-01
-3.154281e-01
-3.510684e-01
-3.863750e-01
-4.210862e-01
-4.549113e-01
-4.875026e-01
-5.184285e-01
-5.471465e-01
-5.729816e-01
-5.951164e-01
-6.125995e-01
-6.243832e-01
-6.293971e-01
-6.266735e-01
-6.155478e-01
-5.959837e-01
-5.690934e-01
-5.379294e-01
-5.085576e-01
-4.909841e-01
-4.977148e-01
-5.362928e-01
-6.018640e-01
0.000000e+00
-1.430188e-04
-2.357262e-04
-2.676404e-04
-2.201166e-04
-6.820263e-05
2.185762e-04
6.767028e-04
1.350191e-03
2.292828e-03
3.571100e-03
5.267985e-03
7.488030e-03
1.036433e-02
1.406807e-02
1.882126e-02
2.491263e-02
3.271527e-02
4.270169e-02
5.544759e-02
7.161101e-02
9.187289e-02
1.168279e-01
1.468196e-01
1.817109e-01
2.205721e-01
2.612684e-01
2.999681e-01
3.307331e-01
3.456744e-01
3.370607e-01
3.021888e-01
2.474405e-01
0.000000e+00
2.602910e-02
5.270569e-02
8.061257e-02
1.102855e-01
1.419063e-01
1.753674e-01
2.103987e-01
2.467127e-01
2.840619e-01
3.222649e-01
3.612085e-01
4.008376e-01
4.411459e-01
4.821675e-01
5.239723e-01
5.666670e-01
6.104019e-01
6.553807e-01
7.018636e-01
7.501437e-01
8.004731e-01
8.529320e-01
9.072501e-01
9.625959e-01
1.017342e+00
1.068823e+00
1.113147e+00
1.145269e+00
1.159689e+00
1.152412e+00
1.123989e+00
1.081623e+00
0.000000e+00
5.210039e-02
1.053803e-01
1.613749e-01
2.211506e-01
2.849523e-01
3.522400e-01
4.223602e-01
4.946695e-01
5.686169e-01
6.437995e-01
7.199373e-01
7.968376e-01
8.743712e-01
9.524468e-01
1.030986e+00
1.109908e+00
1.189116e+00
1.268506e+00
1.347971e+00
1.427382e+00
1.506516e+00
1.584917e+00
1.661743e+00
1.735623e+00
1.804536e+00
1.865732e+00
1.915763e+00
1.950785e+00
1.967393e+00
1.964176e+00
1.943661e+00
1.913490e+00
0.000000e+00
7.759852e-02
1.573594e-01
2.417974e-01
3.332973e-01
4.309210e-01
5.334858e-01
6.397889e-01
7.488053e-01
8.597515e-01
9.720624e-01
1.085353e+00
1.199349e+00
1.313840e+00
1.428645e+00
1.543575e+00
1.658389e+00
1.772769e+00
1.886305e+00
1.998502e+00
2.108765e+00
2.216327e+00
2.320145e+00
2.418819e+00
2.510572e+00
2.593252e+00
2.664359e+00
2.721158e+00
2.761018e+00
2.782139e+00
2.784738e+00
2.772429e+00
2.753158e+00
0.000000e+00
1.016922e-01
2.064095e-01
3.232888e-01
4.492539e-01
5.837337e-01
7.241215e-01
8.681099e-01
1.014768e+00
1.163250e+00
1.312850e+00
1.463209e+00
1.614064e+00
1.765170e+00
1.916311e+00
2.067245e+00
2.217641e+00
2.367026e+00
2.514761e+00
2.659998e+00
2.801625e+00
2.938192e+00
3.067908e+00
3.188742e+00
3.298573e+00
3.395301e+00
3.476895e+00
3.541477e+00
3.587556e+00
3.614553e+00
3.623673e+00
3.619034e+00
3.608798e+00
0.000000e+00
1.240074e-01
2.577300e-01
4.136900e-01
5.827998e-01
7.567268e-01
9.374045e-01
1.121063e+00
1.305692e+00
1.491741e+00
1.678529e+00
1.865470e+00
2.052554e+00
2.239614e+00
2.426384e+00
2.612634e+00
2.798027e+00
2.982048e+00
3.163983e+00
3.342763e+00
3.516708e+00
3.683432e+00
3.840086e+00
3.983814e+00
4.112129e+00
4.223075e+00
4.315229e+00
4.387663e+00
4.440036e+00
4.472864e+00
4.488072e+00
4.489914e+00
4.486461e+00
0.000000e+00
1.673872e-01
3.484931e-01
5.550442e-01
7.733310e-01
9.886155e-01
1.209016e+00
1.431551e+00
1.652973e+00
1.875014e+00
2.097424e+00
2.319316e+00
2.540878e+00
2.762114e+00
2.982716e+00
3.202473e+00
3.421099e+00
3.638133e+00
3.852980e+00
4.064572e+00
4.270729e+00
4.467926e+00
4.651902e+00
4.818668e+00
4.965210e+00
5.089658e+00
5.191175e+00
5.269813e+00
5.326474e+00
5.362957e+00
5.382119e+00
5.388355e+00
5.389049e+00
0.000000e+00
2.388787e-01
4.926342e-01
7.515951e-01
1.017769e+00
1.274043e+00
1.533583e+00
1.794468e+00
2.052514e+00
2.310633e+00
2.568893e+00
2.826085e+00
3.082554e+00
3.338424e+00
3.593317e+00
3.847009e+00
4.099242e+00
4.349590e+00
4.597562e+00
4.842113e+00
5.080581e+00
5.308270e+00
5.519405e+00
5.708726e+00
5.872508e+00
6.008742e+00
6.116927e+00
6.197920e+00
6.253902e+00
6.288393e+00
6.306103e+00
6.312553e+00
6.314121e+00
0.000000e+00
3.909409e-01
6.976233e-01
1.000598e+00
1.307818e+00
1.602315e+00
1.900031e+00
2.198467e+00
2.493496e+00
2.788756e+00
3.084150e+00
3.378355e+00
3.671843e+00
3.964710e+00
4.256511e+00
4.547019e+00
4.835958e+00
5.122859e+00
5.407117e+00
5.687302e+00
5.959920e+00
6.219041e+00
6.457574e+00
6.669141e+00
6.849184e+00
6.995127e+00
7.106205e+00
7.183461e+00
7.229984e+00
7.251268e+00
7.255398e+00
7.252410e+00
7.250670e+00
0.000000e+00
-2.383338e-01
-4.537849e-01
-7.160520e-01
-1.012065e+00
-1.342592e+00
-1.711652e+00
-2.116450e+00
-2.557523e+00
-3.036113e+00
-3.551829e+00
-4.104771e+00
-4.695321e+00
-5.323486e+00
-5.989236e+00
-6.692614e+00
-7.433576e+00
-8.211994e+00
-9.027694e+00
-9.880447e+00
-1.076995e+01
-1.169583e+01
-1.265772e+01
-1.365555e+01
-1.469005e+01
-1.576337e+01
-1.687981e+01
-1.804665e+01
-1.927500e+01
-2.058245e+01
-2.201326e+01
-2.370499e+01
-2.602486e+01
0.000000e+00
-1.480625e-01
-3.739408e-01
-6.317444e-01
-9.287390e-01
-1.260134e+00
-1.628196e+00
-2.033284e+00
-2.474722e+00
-2.953156e+00
-3.468985e+00
-4.022156e+00
-4.612831e+00
-5.241160e+00
-5.907147e+00
-6.610779e+00
-7.352026e+00
-8.130790e+00
-8.946906e+00
-9.800155e+00
-1.069028e+01
-1.161699e+01
-1.258005e+01
-1.357942e+01
-1.461567e+01
-1.569068e+01
-1.680837e+01
-1.797579e+01
-1.920449e+01
-2.051494e+01
-2.195213e+01
-2.361536e+01
-2.572938e+01
0.000000e+00
-1.127752e-01
-3.137427e-01
-5.665202e-01
-8.607850e-01
-1.190776e+00
-1.557640e+00
-1.962188e+00
-2.403418e+00
-2.881673e+00
-3.397478e+00
-3.950760e+00
-4.541589e+00
-5.170137e+00
-5.836428e+00
-6.540439e+00
-7.282155e+00
-8.061504e+00
-8.878353e+00
-9.732523e+00
-1.062382e+01
-1.155208e+01
-1.251715e+01
-1.351906e+01
-1.455840e+01
-1.563691e+01
-1.675852e+01
-1.793070e+01
-1.916718e+01
-2.049230e+01
-2.193491e+01
-2.349955e+01
-2.516284e+01
0.000000e+00
-1.053501e-01
-2.851238e-01
-5.247693e-01
-8.116665e-01
-1.137224e+00
-1.501437e+00
-1.904194e+00
-2.344384e+00
-2.822093e+00
-3.337622e+00
-3.890870e+00
-4.481863e+00
-5.110726e+00
-5.777485e+00
-6.482134e+00
-7.224672e+00
-8.005065e+00
-8.823231e+00
-9.679056e+00
-1.057242e+01
-1.150322e+01
-1.247137e+01
-1.347697e+01
-1.452057e+01
-1.560391e+01
-1.673087e+01
-1.790912e+01
-1.915262e+01
-2.048235e+01
-2.189790e+01
-2.333855e+01
-2.467133e+01
0.000000e+00
-1.107014e-01
-2.790652e-01
-5.058137e-01
-7.816637e-01
-1.100618e+00
-1.460425e+00
-1.860031e+00
-2.298339e+00
-2.774999e+00
-3.289948e+00
-3.843031e+00
-4.434200e+00
-5.063495e+00
-5.730933e+00
-6.436524e+00
-7.180290e+00
-7.962235e+00
-8.782335e+00
-9.640534e+00
-1.053676e+01
-1.147091e+01
-1.244291e+01
-1.345280e+01
-1.450105e+01
-1.558915e+01
-1.672043e+01
-1.790129e+01
-1.914239e+01
-2.045414e+01
-2.181452e+01
-2.313548e+01
-2.431197e+01
0.000000e+00
-1.131205e-01
-2.784302e-01
-4.965692e-01
-7.641456e-01
-1.076709e+00
-1.431980e+00
-1.828289e+00
-2.264475e+00
-2.739907e+00
-3.254203e+00
-3.807109e+00
-4.398504e+00
-5.028349e+00
-5.696647e+00
-6.403428e+00
-7.148741e+00
-7.932629e+00
-8.755115e+00
-9.616180e+00
-1.051575e+01
-1.145367e+01
-1.242977e+01
-1.344389e+01
-1.449617e+01
-1.558746e+01
-1.671977e+01
-1.789672e+01
-1.912307e+01
-2.039799e+01
-2.168567e+01
-2.290923e+01
-2.398340e+01
0.000000e+00
-1.139142e-01
-2.778398e-01
-4.917395e-01
-7.539470e-01
-1.061957e+00
-1.413589e+00
-1.807222e+00
-2.241641e+00
-2.716016e+00
-3.229798e+00
-3.782639e+00
-4.374345e+00
-5.004833e+00
-5.674101e+00
-6.382201e+00
-7.129211e+00
-7.915218e+00
-8.740274e+00
-9.604369e+00
-1.050738e+01
-1.144904e+01
-1.242895e+01
-1.344658e+01
-1.450148e+01
-1.559341e+01
-1.672243e+01
-1.788864e+01
-1.909064e+01
-2.031859e+01
-2.153492e+01
-2.267688e+01
-2.367645e+01
0.000000e+00
-1.142108e-01
-2.773809e-01
-4.892592e-01
-7.487315e-01
-1.054076e+00
-1.403519e+00
-1.795520e+00
-2.228861e+00
-2.702634e+00
-3.216209e+00
-3.769176e+00
-4.361302e+00
-4.992492e+00
-5.662749e+00
-6.372151e+00
-7.120815e+00
-7.908863e+00
-8.736372e+00
-9.603313e+00
-1.050948e+01
-1.145443e+01
-1.243742e+01
-1.345740e+01
-1.451304e+01
-1.560275e+01
-1.672444e+01
-1.787482e+01
-1.904744e+01
-2.022738e+01
-2.138043e+01
-2.245658e+01
-2.340284e+01
0.000000e+00
-1.143290e-01
-2.773050e-01
-4.886368e-01
-7.473394e-01
-1.051920e+00
-1.400750e+00
-1.792347e+00
-2.225497e+00
-2.699280e+00
-3.213047e+00
-3.766377e+00
-4.359037e+00
-4.990940e+00
-5.662111e+00
-6.372661e+00
-7.122744e+00
-7.912519e+00
-8.742083e+00
-9.611385e+00
-1.052012e+01
-1.146760e+01
-1.245266e+01
-1.347359e+01
-1.452807e+01
-1.561307e+01
-1.672447e+01
-1.785626e+01
-1.899874e+01
-2.013495e+01
-2.123558e+01
-2.226170e+01
-2.317272e+01
0.000000e+00
-1.143543e-01
-2.776774e-01
-4.897433e-01
-7.494553e-01
-1.055104e+00
-1.404925e+00
-1.797386e+00
-2.231284e+00
-2.705727e+00
-3.220104e+00
-3.774031e+00
-4.367310e+00
-4.999886e+00
-5.671817e+00
-6.383245e+00
-7.134362e+00
-7.925362e+00
-8.756366e+00
-9.627312e+00
-1.053779e+01
-1.148688e+01
-1.247293e+01
-1.349349e+01
-1.454519e+01
-1.562367e+01
-1.672314e+01
-1.783574e+01
-1.895016e+01
-2.004961e+01
-2.110979e+01
-2.210092e+01
-2.299232e+01
0.000000e+00
-1.141821e-01
-2.783967e-01
-4.926588e-01
-7.553341e-01
-1.063938e+00
-1.416306e+00
-1.810837e+00
-2.246341e+00
-2.722016e+00
-3.237355e+00
-3.792057e+00
-4.385988e+00
-5.019147e+00
-5.691626e+00
-6.403596e+00
-7.155275e+00
-7.946886e+00
-8.778586e+00
-9.650328e+00
-1.056165e+01
-1.151137e+01
-1.249738e+01
-1.351645e+01
-1.456423e+01
-1.563517e+01
-1.672229e+01
-1.781667e+01
-1.890665e+01
-1.997688e+01
-2.100777e+01
-2.197689e+01
-2.286131e+01
0.000000e+00
-1.134723e-01
-2.791738e-01
-4.978275e-01
-7.660769e-01
-1.079493e+00
-1.435822e+00
-1.833418e+00
-2.271153e+00
-2.748441e+00
-3.264954e+00
-3.820503e+00
-4.415050e+00
-5.048655e+00
-5.721449e+00
-6.433617e+00
-7.185384e+00
-7.976985e+00
-8.808614e+00
-9.680288e+00
-1.059154e+01
-1.154100e+01
-1.252607e+01
-1.354279e+01
-1.458593e+01
-1.564901e+01
-1.672424e+01
-1.780228e+01
-1.887189e+01
-1.991968e+01
-2.093029e+01
-2.188737e+01
-2.277453e+01
0.000000e+00
-1.110732e-01
-2.798849e-01
-5.072746e-01
-7.839712e-01
-1.103991e+00
-1.465117e+00
-1.866325e+00
-2.306555e+00
-2.785514e+00
-3.303204e+00
-3.859546e+00
-4.454584e+00
-5.088471e+00
-5.761360e+00
-6.473435e+00
-7.224906e+00
-8.015988e+00
-8.846902e+00
-9.717755e+00
-1.062813e+01
-1.157651e+01
-1.255983e+01
-1.357349e+01
-1.461152e+01
-1.566680e+01
-1.673110e+01
-1.779505e+01
-1.884812e+01
-1.987889e+01
-2.087573e+01
-2.182764e+01
-2.272451e+01
0.000000e+00
-1.056547e-01
-2.859009e-01
-5.262806e-01
-8.141539e-01
-1.140924e+00
-1.506634e+00
-1.911209e+00
-2.353572e+00
-2.833880e+00
-3.352506e+00
-3.909425e+00
-4.504763e+00
-5.138756e+00
-5.811567e+00
-6.523360e+00
-7.274317e+00
-8.064601e+00
-8.894420e+00
-9.763944e+00
-1.067279e+01
-1.161928e+01
-1.259997e+01
-1.360975e+01
-1.464219e+01
-1.568983e+01
-1.674427e+01
-1.779629e+01
-1.883610e+01
-1.985395e+01
-2.084127e+01
-2.179187e+01
-2.270246e+01
0.000000e+00
-1.129670e-01
-3.144334e-01
-5.679885e-01
-8.632938e-01
-1.194567e+00
-1.563009e+00
-1.969473e+00
-2.412993e+00
-2.893989e+00
-3.413061e+00
-3.970215e+00
-4.565617e+00
-5.199549e+00
-5.872162e+00
-6.583593e+00
-7.333987e+00
-8.123456e+00
-8.952146e+00
-9.820162e+00
-1.072700e+01
-1.167076e+01
-1.264772e+01
-1.365254e+01
-1.467866e+01
-1.571857e+01
-1.676398e+01
-1.780589e+01
-1.883510e+01
-1.984304e+01
-2.082336e+01
-2.177384e+01
-2.269835e+01
0.000000e+00
-1.482017e-01
-3.745927e-01
-6.331825e-01
-9.312324e-01
-1.263930e+00
-1.633588e+00
-2.040614e+00
-2.484369e+00
-2.965575e+00
-3.484708e+00
-4.041790e+00
-4.637075e+00
-5.270821e+00
-5.943148e+00
-6.654177e+00
-7.404028e+00
-8.192778e+00
-9.020494e+00
-9.887042e+00
-1.079153e+01
-1.173169e+01
-1.270362e+01
-1.370208e+01
-1.472074e+01
-1.575239e+01
-1.678901e+01
-1.782193e+01
-1.884243e+01
-1.984268e+01
-2.081754e+01
-2.176730e+01
-2.270140e+01
0.000000e+00
-2.385223e-01
-4.544639e-01
-7.175192e-01
-1.014577e+00
-1.346408e+00
-1.717066e+00
-2.123793e+00
-2.567175e+00
-3.048523e+00
-3.567522e+00
-4.124339e+00
-4.719446e+00
-5.352951e+00
-6.024934e+00
-6.735541e+00
-7.484855e+00
-8.272926e+00
-9.099724e+00
-9.964741e+00
-1.086645e+01
-1.180203e+01
-1.276751e+01