TITLE = "Solution"
VARIABLES = x, y, u, v, psiu, psiv, t, stress
ZONE T="structure" N=561 E=512 F=FEBLOCK ET=QUADRILATERAL VARLOCATION=([7,8]=cellcentered)
0.000000e+00
6.250000e+00
1.250000e+01
1.875000e+01
2.500000e+01
3.125000e+01
3.750000e+01
4.375000e+01
5.000000e+01
5.625000e+01
6.250000e+01
6.875000e+01
7.500000e+01
8.125000e+01
8.750000e+01
9.375000e+01
1.000000e+02
1.062500e+02
1.125000e+02
1.187500e+02
1.250000e+02
1.312500e+02
1.375000e+02
1.437500e+02
1.500000e+02
1.562500e+02
1.625000e+02
1.687500e+02
1.750000e+02
1.812500e+02
1.875000e+02
1.937500e+02
2.000000e+02
0.000000e+00
6.250000e+00
1.250000e+01
1.875000e+01
2.500000e+01
3.125000e+01
3.750000e+01
4.375000e+01
5.000000e+01
5.625000e+01
6.250000e+01
6.875000e+01
7.500000e+01
8.125000e+01
8.750000e+01
9.375000e+01
1.000000e+02
1.062500e+02
1.125000e+02
1.187500e+02
1.250000e+02
1.312500e+02
1.375000e+02
1.437500e+02
1.500000e+02
1.562500e+02
1.625000e+02
1.687500e+02
1.750000e+02
1.812500e+02
1.875000e+02
1.937500e+02
2.000000e+02
0.000000e+00
6.250000e+00
1.250000e+01
1.875000e+01
2.500000e+01
3.125000e+01
3.750000e+01
4.375000e+01
5.000000e+01
5.625000e+01
6.250000e+01
6.875000e+01
7.500000e+01
8.125000e+01
8.750000e+01
9.375000e+01
1.000000e+02
1.062500e+02
1.125000e+02
1.187500e+02
1.250000e+02
1.312500e+02
1.375000e+02
1.437500e+02
1.500000e+02
1.562500e+02
1.625000e+02
1.687500e+02
1.750000e+02
1.812500e+02
1.875000e+02
1.937500e+02
2.000000e+02
0.000000e+00
6.250000e+00
1.250000e+01
1.875000e+01
2.500000e+01
3.125000e+01
3.750000e+01
4.375000e+01
5.000000e+01
5.625000e+01
6.250000e+01
6.875000e+01
7.500000e+01
8.125000e+01
8.750000e+01
9.375000e+01
1.000000e+02
1.062500e+02
1.125000e+02
1.187500e+02
1.250000e+02
1.312500e+02
1.375000e+02
1.437500e+02
1.500000e+02
1.562500e+02
1.625000e+02
1.687500e+02
1.750000e+02
1.812500e+02
1.875000e+02
1.937500e+02
2.000000e+02
0.000000e+00
6.250000e+00
1.250000e+01
1.875000e+01
2.500000e+01
3.125000e+01
3.750000e+01
4.375000e+01
5.000000e+01
5.625000e+01
6.250000e+01
6.875000e+01
7.500000e+01
8.125000e+01
8.750000e+01
9.375000e+01
1.000000e+02
1.062500e+02
1.125000e+02
1.187500e+02
1.250000e+02
1.312500e+02
1.375000e+02
1.437500e+02
1.500000e+02
1.562500e+02
1.625000e+02
1.687500e+02
1.750000e+02
1.812500e+02
1.875000e+02
1.937500e+02
2.000000e+02
0.000000e+00
6.250000e+00
1.250000e+01
1.875000e+01
2.500000e+01
3.125000e+01
3.750000e+01
4.375000e+01
5.000000e+01
5.625000e+01
6.250000e+01
6.875000e+01
7.500000e+01
8.125000e+01
8.750000e+01
9.375000e+01
1.000000e+02
1.062500e+02
1.125000e+02
1.187500e+02
1.250000e+02
1.312500e+02
1.375000e+02
1.437500e+02
1.500000e+02
1.562500e+02
1.625000e+02
1.687500e+02
1.750000e+02
1.812500e+02
1.875000e+02
1.937500e+02
2.000000e+02
0.000000e+00
6.250000e+00
1.250000e+01
1.875000e+01
2.500000e+01
3.125000e+01
3.750000e+01
4.375000e+01
5.000000e+01
5.625000e+01
6.250000e+01
6.875000e+01
7.500000e+01
8.125000e+01
8.750000e+01
9.375000e+01
1.000000e+02
1.062500e+02
1.125000e+02
1.187500e+02
1.250000e+02
1.312500e+02
1.375000e+02
1.437500e+02
1.500000e+02
1.562500e+02
1.625000e+02
1.687500e+02
1.750000e+02
1.812500e+02
1.875000e+02
1.937500e+02
2.000000e+02
0.000000e+00
6.250000e+00
1.250000e+01
1.875000e+01
2.500000e+01
3.125000e+01
3.750000e+01
4.375000e+01
5.000000e+01
5.625000e+01
6.250000e+01
6.875000e+01
7.500000e+01
8.125000e+01
8.750000e+01
9.375000e+01
1.000000e+02
1.062500e+02
1.125000e+02
1.187500e+02
1.250000e+02
1.312500e+02
1.375000e+02
1.437500e+02
1.500000e+02
1.562500e+02
1.625000e+02
1.687500e+02
1.750000e+02
1.812500e+02
1.875000e+02
1.937500e+02
2.000000e+02
0.000000e+00
6.250000e+00
1.250000e+01
1.875000e+01
2.500000e+01
3.125000e+01
3.750000e+01
4.375000e+01
5.000000e+01
5.625000e+01
6.250000e+01
6.875000e+01
7.500000e+01
8.125000e+01
8.750000e+01
9.375000e+01
1.000000e+02
1.062500e+02
1.125000e+02
1.187500e+02
1.250000e+02
1.312500e+02
1.375000e+02
1.437500e+02
1.500000e+02
1.562500e+02
1.625000e+02
1.687500e+02
1.750000e+02
1.812500e+02
1.875000e+02
1.937500e+02
2.000000e+02
0.000000e+00
6.250000e+00
1.250000e+01
1.875000e+01
2.500000e+01
3.125000e+01
3.750000e+01
4.375000e+01
5.000000e+01
5.625000e+01
6.250000e+01
6.875000e+01
7.500000e+01
8.125000e+01
8.750000e+01
9.375000e+01
1.000000e+02
1.062500e+02
1.125000e+02
1.187500e+02
1.250000e+02
1.312500e+02
1.375000e+02
1.437500e+02
1.500000e+02
1.562500e+02
1.625000e+02
1.687500e+02
1.750000e+02
1.812500e+02
1.875000e+02
1.937500e+02
2.000000e+02
0.000000e+00
6.250000e+00
1.250000e+01
1.875000e+01
2.500000e+01
3.125000e+01
3.750000e+01
4.375000e+01
5.000000e+01
5.625000e+01
6.250000e+01
6.875000e+01
7.500000e+01
8.125000e+01
8.750000e+01
9.375000e+01
1.000000e+02
1.062500e+02
1.125000e+02
1.187500e+02
1.250000e+02
1.312500e+02
1.375000e+02
1.437500e+02
1.500000e+02
1.562500e+02
1.625000e+02
1.687500e+02
1.750000e+02
1.812500e+02
1.875000e+02
1.937500e+02
2.000000e+02
0.000000e+00
6.250000e+00
1.250000e+01
1.875000e+01
2.500000e+01
3.125000e+01
3.750000e+01
4.375000e+01
5.000000e+01
5.625000e+01
6.250000e+01
6.875000e+01
7.500000e+01
8.125000e+01
8.750000e+01
9.375000e+01
1.000000e+02
1.062500e+02
1.125000e+02
1.187500e+02
1.250000e+02
1.312500e+02
1.375000e+02
1.437500e+02
1.500000e+02
1.562500e+02
1.625000e+02
1.687500e+02
1.750000e+02
1.812500e+02
1.875000e+02
1.937500e+02
2.000000e+02
0.000000e+00
6.250000e+00
1.250000e+01
1.875000e+01
2.500000e+01
3.125000e+01
3.750000e+01
4.375000e+01
5.000000e+01
5.625000e+01
6.250000e+01
6.875000e+01
7.500000e+01
8.125000e+01
8.750000e+01
9.375000e+01
1.000000e+02
1.062500e+02
1.125000e+02
1.187500e+02
1.250000e+02
1.312500e+02
1.375000e+02
1.437500e+02
1.500000e+02
1.562500e+02
1.625000e+02
1.687500e+02
1.750000e+02
1.812500e+02
1.875000e+02
1.937500e+02
2.000000e+02
0.000000e+00
6.250000e+00
1.250000e+01
1.875000e+01
2.500000e+01
3.125000e+01
3.750000e+01
4.375000e+01
5.000000e+01
5.625000e+01
6.250000e+01
6.875000e+01
7.500000e+01
8.125000e+01
8.750000e+01
9.375000e+01
1.000000e+02
1.062500e+02
1.125000e+02
1.187500e+02
1.250000e+02
1.312500e+02
1.375000e+02
1.437500e+02
1.500000e+02
1.562500e+02
1.625000e+02
1.687500e+02
1.750000e+02
1.812500e+02
1.875000e+02
1.937500e+02
2.000000e+02
0.000000e+00
6.250000e+00
1.250000e+01
1.875000e+01
2.500000e+01
3.125000e+01
3.750000e+01
4.375000e+01
5.000000e+01
5.625000e+01
6.250000e+01
6.875000e+01
7.500000e+01
8.125000e+01
8.750000e+01
9.375000e+01
1.000000e+02
1.062500e+02
1.125000e+02
1.187500e+02
1.250000e+02
1.312500e+02
1.375000e+02
1.437500e+02
1.500000e+02
1.562500e+02
1.625000e+02
1.687500e+02
1.750000e+02
1.812500e+02
1.875000e+02
1.937500e+02
2.000000e+02
0.000000e+00
6.250000e+00
1.250000e+01
1.875000e+01
2.500000e+01
3.125000e+01
3.750000e+01
4.375000e+01
5.000000e+01
5.625000e+01
6.250000e+01
6.875000e+01
7.500000e+01
8.125000e+01
8.750000e+01
9.375000e+01
1.000000e+02
1.062500e+02
1.125000e+02
1.187500e+02
1.250000e+02
1.312500e+02
1.375000e+02
1.437500e+02
1.500000e+02
1.562500e+02
1.625000e+02
1.687500e+02
1.750000e+02
1.812500e+02
1.875000e+02
1.937500e+02
2.000000e+02
0.000000e+00
6.250000e+00
1.250000e+01
1.875000e+01
2.500000e+01
3.125000e+01
3.750000e+01
4.375000e+01
5.000000e+01
5.625000e+01
6.250000e+01
6.875000e+01
7.500000e+01
8.125000e+01
8.750000e+01
9.375000e+01
1.000000e+02
1.062500e+02
1.125000e+02
1.187500e+02
1.250000e+02
1.312500e+02
1.375000e+02
1.437500e+02
1.500000e+02
1.562500e+02
1.625000e+02
1.687500e+02
1.750000e+02
1.812500e+02
1.875000e+02
1.937500e+02
2.000000e+02
0.000000e+00
0.000000e+00
0.000000e+00
0.000000e+00
0.000000e+00
0.000000e+00
0.000000e+00
0.000000e+00
0.000000e+00
0.000000e+00
0.000000e+00
0.000000e+00
0.000000e+00
0.000000e+00
0.000000e+00
0.000000e+00
0.000000e+00
0.000000e+00
0.000000e+00
0.000000e+00
0.000000e+00
0.000000e+00
0.000000e+00
0.000000e+00
0.000000e+00
0.000000e+00
0.000000e+00
0.000000e+00
0.000000e+00
0.000000e+00
0.000000e+00
0.000000e+00
0.000000e+00
6.250000e+00
6.250000e+00
6.250000e+00
6.250000e+00
6.250000e+00
6.250000e+00
6.250000e+00
6.250000e+00
6.250000e+00
6.250000e+00
6.250000e+00
6.250000e+00
6.250000e+00
6.250000e+00
6.250000e+00
6.250000e+00
6.250000e+00
6.250000e+00
6.250000e+00
6.250000e+00
6.250000e+00
6.250000e+00
6.250000e+00
6.250000e+00
6.250000e+00
6.250000e+00
6.250000e+00
6.250000e+00
6.250000e+00
6.250000e+00
6.250000e+00
6.250000e+00
6.250000e+00
1.250000e+01
1.250000e+01
1.250000e+01
1.250000e+01
1.250000e+01
1.250000e+01
1.250000e+01
1.250000e+01
1.250000e+01
1.250000e+01
1.250000e+01
1.250000e+01
1.250000e+01
1.250000e+01
1.250000e+01
1.250000e+01
1.250000e+01
1.250000e+01
1.250000e+01
1.250000e+01
1.250000e+01
1.250000e+01
1.250000e+01
1.250000e+01
1.250000e+01
1.250000e+01
1.250000e+01
1.250000e+01
1.250000e+01
1.250000e+01
1.250000e+01
1.250000e+01
1.250000e+01
1.875000e+01
1.875000e+01
1.875000e+01
1.875000e+01
1.875000e+01
1.875000e+01
1.875000e+01
1.875000e+01
1.875000e+01
1.875000e+01
1.875000e+01
1.875000e+01
1.875000e+01
1.875000e+01
1.875000e+01
1.875000e+01
1.875000e+01
1.875000e+01
1.875000e+01
1.875000e+01
1.875000e+01
1.875000e+01
1.875000e+01
1.875000e+01
1.875000e+01
1.875000e+01
1.875000e+01
1.875000e+01
1.875000e+01
1.875000e+01
1.875000e+01
1.875000e+01
1.875000e+01
2.500000e+01
2.500000e+01
2.500000e+01
2.500000e+01
2.500000e+01
2.500000e+01
2.500000e+01
2.500000e+01
2.500000e+01
2.500000e+01
2.500000e+01
2.500000e+01
2.500000e+01
2.500000e+01
2.500000e+01
2.500000e+01
2.500000e+01
2.500000e+01
2.500000e+01
2.500000e+01
2.500000e+01
2.500000e+01
2.500000e+01
2.500000e+01
2.500000e+01
2.500000e+01
2.500000e+01
2.500000e+01
2.500000e+01
2.500000e+01
2.500000e+01
2.500000e+01
2.500000e+01
3.125000e+01
3.125000e+01
3.125000e+01
3.125000e+01
3.125000e+01
3.125000e+01
3.125000e+01
3.125000e+01
3.125000e+01
3.125000e+01
3.125000e+01
3.125000e+01
3.125000e+01
3.125000e+01
3.125000e+01
3.125000e+01
3.125000e+01
3.125000e+01
3.125000e+01
3.125000e+01
3.125000e+01
3.125000e+01
3.125000e+01
3.125000e+01
3.125000e+01
3.125000e+01
3.125000e+01
3.125000e+01
3.125000e+01
3.125000e+01
3.125000e+01
3.125000e+01
3.125000e+01
3.750000e+01
3.750000e+01
3.750000e+01
3.750000e+01
3.750000e+01
3.750000e+01
3.750000e+01
3.750000e+01
3.750000e+01
3.750000e+01
3.750000e+01
3.750000e+01
3.750000e+01
3.750000e+01
3.750000e+01
3.750000e+01
3.750000e+01
3.750000e+01
3.750000e+01
3.750000e+01
3.750000e+01
3.750000e+01
3.750000e+01
3.750000e+01
3.750000e+01
3.750000e+01
3.750000e+01
3.750000e+01
3.750000e+01
3.750000e+01
3.750000e+01
3.750000e+01
3.750000e+01
4.375000e+01
4.375000e+01
4.375000e+01
4.375000e+01
4.375000e+01
4.375000e+01
4.375000e+01
4.375000e+01
4.375000e+01
4.375000e+01
4.375000e+01
4.375000e+01
4.375000e+01
4.375000e+01
4.375000e+01
4.375000e+01
4.375000e+01
4.375000e+01
4.375000e+01
4.375000e+01
4.375000e+01
4.375000e+01
4.375000e+01
4.375000e+01
4.375000e+01
4.375000e+01
4.375000e+01
4.375000e+01
4.375000e+01
4.375000e+01
4.375000e+01
4.375000e+01
4.375000e+01
5.000000e+01
5.000000e+01
5.000000e+01
5.000000e+01
5.000000e+01
5.000000e+01
5.000000e+01
5.000000e+01
5.000000e+01
5.000000e+01
5.000000e+01
5.000000e+01
5.000000e+01
5.000000e+01
5.000000e+01
5.000000e+01
5.000000e+01
5.000000e+01
5.000000e+01
5.000000e+01
5.000000e+01
5.000000e+01
5.000000e+01
5.000000e+01
5.000000e+01
5.000000e+01
5.000000e+01
5.000000e+01
5.000000e+01
5.000000e+01
5.000000e+01
5.000000e+01
5.000000e+01
5.625000e+01
5.625000e+01
5.625000e+01
5.625000e+01
5.625000e+01
5.625000e+01
5.625000e+01
5.625000e+01
5.625000e+01
5.625000e+01
5.625000e+01
5.625000e+01
5.625000e+01
5.625000e+01
5.625000e+01
5.625000e+01
5.625000e+01
5.625000e+01
5.625000e+01
5.625000e+01
5.625000e+01
5.625000e+01
5.625000e+01
5.625000e+01
5.625000e+01
5.625000e+01
5.625000e+01
5.625000e+01
5.625000e+01
5.625000e+01
5.625000e+01
5.625000e+01
5.625000e+01
6.250000e+01
6.250000e+01
6.250000e+01
6.250000e+01
6.250000e+01
6.250000e+01
6.250000e+01
6.250000e+01
6.250000e+01
6.250000e+01
6.250000e+01
6.250000e+01
6.250000e+01
6.250000e+01
6.250000e+01
6.250000e+01
6.250000e+01
6.250000e+01
6.250000e+01
6.250000e+01
6.250000e+01
6.250000e+01
6.250000e+01
6.250000e+01
6.250000e+01
6.250000e+01
6.250000e+01
6.250000e+01
6.250000e+01
6.250000e+01
6.250000e+01
6.250000e+01
6.250000e+01
6.875000e+01
6.875000e+01
6.875000e+01
6.875000e+01
6.875000e+01
6.875000e+01
6.875000e+01
6.875000e+01
6.875000e+01
6.875000e+01
6.875000e+01
6.875000e+01
6.875000e+01
6.875000e+01
6.875000e+01
6.875000e+01
6.875000e+01
6.875000e+01
6.875000e+01
6.875000e+01
6.875000e+01
6.875000e+01
6.875000e+01
6.875000e+01
6.875000e+01
6.875000e+01
6.875000e+01
6.875000e+01
6.875000e+01
6.875000e+01
6.875000e+01
6.875000e+01
6.875000e+01
7.500000e+01
7.500000e+01
7.500000e+01
7.500000e+01
7.500000e+01
7.500000e+01
7.500000e+01
7.500000e+01
7.500000e+01
7.500000e+01
7.500000e+01
7.500000e+01
7.500000e+01
7.500000e+01
7.500000e+01
7.500000e+01
7.500000e+01
7.500000e+01
7.500000e+01
7.500000e+01
7.500000e+01
7.500000e+01
7.500000e+01
7.500000e+01
7.500000e+01
7.500000e+01
7.500000e+01
7.500000e+01
7.500000e+01
7.500000e+01
7.500000e+01
7.500000e+01
7.500000e+01
8.125000e+01
8.125000e+01
8.125000e+01
8.125000e+01
8.125000e+01
8.125000e+01
8.125000e+01
8.125000e+01
8.125000e+01
8.125000e+01
8.125000e+01
8.125000e+01
8.125000e+01
8.125000e+01
8.125000e+01
8.125000e+01
8.125000e+01
8.125000e+01
8.125000e+01
8.125000e+01
8.125000e+01
8.125000e+01
8.125000e+01
8.125000e+01
8.125000e+01
8.125000e+01
8.125000e+01
8.125000e+01
8.125000e+01
8.125000e+01
8.125000e+01
8.125000e+01
8.125000e+01
8.750000e+01
8.750000e+01
8.750000e+01
8.750000e+01
8.750000e+01
8.750000e+01
8.750000e+01
8.750000e+01
8.750000e+01
8.750000e+01
8.750000e+01
8.750000e+01
8.750000e+01
8.750000e+01
8.750000e+01
8.750000e+01
8.750000e+01
8.750000e+01
8.750000e+01
8.750000e+01
8.750000e+01
8.750000e+01
8.750000e+01
8.750000e+01
8.750000e+01
8.750000e+01
8.750000e+01
8.750000e+01
8.750000e+01
8.750000e+01
8.750000e+01
8.750000e+01
8.750000e+01
9.375000e+01
9.375000e+01
9.375000e+01
9.375000e+01
9.375000e+01
9.375000e+01
9.375000e+01
9.375000e+01
9.375000e+01
9.375000e+01
9.375000e+01
9.375000e+01
9.375000e+01
9.375000e+01
9.375000e+01
9.375000e+01
9.375000e+01
9.375000e+01
9.375000e+01
9.375000e+01
9.375000e+01
9.375000e+01
9.375000e+01
9.375000e+01
9.375000e+01
9.375000e+01
9.375000e+01
9.375000e+01
9.375000e+01
9.375000e+01
9.375000e+01
9.375000e+01
9.375000e+01
1.000000e+02
1.000000e+02
1.000000e+02
1.000000e+02
1.000000e+02
1.000000e+02
1.000000e+02
1.000000e+02
1.000000e+02
1.000000e+02
1.000000e+02
1.000000e+02
1.000000e+02
1.000000e+02
1.000000e+02
1.000000e+02
1.000000e+02
1.000000e+02
1.000000e+02
1.000000e+02
1.000000e+02
1.000000e+02
1.000000e+02
1.000000e+02
1.000000e+02
1.000000e+02
1.000000e+02
1.000000e+02
1.000000e+02
1.000000e+02
1.000000e+02
1.000000e+02
1.000000e+02
0.000000e+00
-3.981701e-02
-7.224266e-02
-1.022805e-01
-1.311083e-01
-1.589459e-01
-1.858492e-01
-2.118159e-01
-2.368295e-01
-2.608719e-01
-2.839280e-01
-3.059874e-01
-3.270448e-01
-3.470996e-01
-3.661566e-01
-3.842258e-01
-4.013235e-01
-4.174731e-01
-4.327070e-01
-4.470692e-01
-4.606180e-01
-4.734306e-01
-4.856091e-01
-4.972890e-01
-5.086516e-01
-5.199435e-01
-5.315072e-01
-5.438309e-01
-5.576310e-01
-5.739617e-01
-5.941906e-01
-6.182979e-01
-6.330103e-01
0.000000e+00
-2.669623e-02
-5.554438e-02
-8.274438e-02
-1.085969e-01
-1.333482e-01
-1.571289e-01
-1.799964e-01
-2.019733e-01
-2.230672e-01
-2.432794e-01
-2.626100e-01
-2.810598e-01
-2.986318e-01
-3.153319e-01
-3.311694e-01
-3.461577e-01
-3.603154e-01
-3.736669e-01
-3.862442e-01
-3.980879e-01
-4.092492e-01
-4.197917e-01
-4.297931e-01
-4.393466e-01
-4.485589e-01
-4.575429e-01
-4.663917e-01
-4.751045e-01
-4.833980e-01
-4.903087e-01
-4.943491e-01
-4.999739e-01
0.000000e+00
-2.117552e-02
-4.359490e-02
-6.642139e-02
-8.860167e-02
-1.099646e-01
-1.304964e-01
-1.502167e-01
-1.691428e-01
-1.872867e-01
-2.046561e-01
-2.212565e-01
-2.370923e-01
-2.521682e-01
-2.664900e-01
-2.800644e-01
-2.929004e-01
-3.050091e-01
-3.164039e-01
-3.271011e-01
-3.371196e-01
-3.464794e-01
-3.552007e-01
-3.632988e-01
-3.707769e-01
-3.776111e-01
-3.837232e-01
-3.889333e-01
-3.928890e-01
-3.950190e-01
-3.948322e-01
-3.936361e-01
-4.002044e-01
0.000000e+00
-1.680090e-02
-3.452967e-02
-5.274377e-02
-7.091519e-02
-8.864645e-02
-1.057857e-01
-1.222785e-01
-1.381101e-01
-1.532798e-01
-1.677916e-01
-1.816504e-01
-1.948607e-01
-2.074267e-01
-2.193522e-01
-2.306405e-01
-2.412947e-01
-2.513176e-01
-2.607111e-01
-2.694759e-01
-2.776097e-01
-2.851051e-01
-2.919453e-01
-2.980987e-01
-3.035083e-01
-3.080787e-01
-3.116586e-01
-3.140294e-01
-3.149345e-01
-3.142626e-01
-3.126305e-01
-3.125331e-01
-3.187910e-01
0.000000e+00
-1.303984e-02
-2.670115e-02
-4.079886e-02
-5.501109e-02
-6.904902e-02
-8.271894e-02
-9.592279e-02
-1.086160e-01
-1.207814e-01
-1.324145e-01
-1.435159e-01
-1.540877e-01
-1.641317e-01
-1.736486e-01
-1.826374e-01
-1.910954e-01
-1.990176e-01
-2.063956e-01
-2.132172e-01
-2.194640e-01
-2.251093e-01
-2.301145e-01
-2.344246e-01
-2.379635e-01
-2.406310e-01
-2.423096e-01
-2.428984e-01
-2.424153e-01
-2.412333e-01
-2.404665e-01
-2.422373e-01
-2.475756e-01
0.000000e+00
-9.583523e-03
-1.957764e-02
-2.989284e-02
-4.035088e-02
-5.075655e-02
-6.095487e-02
-7.084510e-02
-8.037194e-02
-8.950851e-02
-9.824347e-02
-1.065728e-01
-1.144951e-01
-1.220090e-01
-1.291116e-01
-1.357978e-01
-1.420597e-01
-1.478859e-01
-1.532607e-01
-1.581629e-01
-1.625650e-01
-1.664312e-01
-1.697165e-01
-1.723657e-01
-1.743159e-01
-1.755058e-01
-1.759006e-01
-1.755463e-01
-1.746731e-01
-1.738423e-01
-1.740446e-01
-1.763021e-01
-1.807192e-01
0.000000e+00
-6.307110e-03
-1.286370e-02
-1.962827e-02
-2.650438e-02
-3.337628e-02
-4.014033e-02
-4.672100e-02
-5.307100e-02
-5.916426e-02
-6.498759e-02
-7.053437e-02
-7.580034e-02
-8.078113e-02
-8.547072e-02
-8.986053e-02
-9.393873e-02
-9.768964e-02
-1.010931e-01
-1.041241e-01
-1.067522e-01
-1.089417e-01
-1.106528e-01
-1.118453e-01
-1.124859e-01
-1.125654e-01
-1.121274e-01
-1.113168e-01
-1.104421e-01
-1.100181e-01
-1.106796e-01
-1.128775e-01
-1.164430e-01
0.000000e+00
-3.132740e-03
-6.383915e-03
-9.736817e-03
-1.314910e-02
-1.656685e-02
-1.993889e-02
-2.322516e-02
-2.639858e-02
-2.944264e-02
-3.234753e-02
-3.510677e-02
-3.771472e-02
-4.016491e-02
-4.244899e-02
-4.455599e-02
-4.647177e-02
-4.817866e-02
-4.965519e-02
-5.087621e-02
-5.181351e-02
-5.243741e-02
-5.272003e-02
-5.264142e-02
-5.220004e-02
-5.142956e-02
-5.042323e-02
-4.936289e-02
-4.853975e-02
-4.833356e-02
-4.910970e-02
-5.102706e-02
-5.385624e-02
0.000000e+00
-5.054362e-06
-1.095930e-05
-1.738769e-05
-2.400139e-05
-3.034449e-05
-3.572990e-05
-3.911347e-05
-3.894695e-05
-3.300091e-05
-1.815100e-05
9.876273e-06
5.679774e-05
1.301015e-04
2.393925e-04
3.967262e-04
6.168786e-04
9.174686e-04
1.318801e-03
1.843229e-03
2.513736e-03
3.351296e-03
4.370440e-03
5.572273e-03
6.934282e-03
8.396803e-03
9.847863e-03
1.111207e-02
1.195599e-02
1.212713e-02
1.143803e-02
9.877456e-03
7.691783e-03
0.000000e+00
3.123220e-03
6.363232e-03
9.703934e-03
1.310360e-02
1.650917e-02
1.987072e-02
2.315013e-02
2.632324e-02
2.937768e-02
3.230951e-02
3.512027e-02
3.781507e-02
4.040153e-02
4.288943e-02
4.529059e-02
4.761889e-02
4.989012e-02
5.212161e-02
5.433118e-02
5.653536e-02
5.874627e-02
6.096707e-02
6.318543e-02
6.536529e-02
6.743786e-02
6.929464e-02
7.078806e-02
7.174762e-02
7.201929e-02
7.152728e-02
7.034179e-02
6.871959e-02
0.000000e+00
6.299334e-03
1.284668e-02
1.960103e-02
2.646640e-02
3.332767e-02
4.008221e-02
4.665601e-02
5.300411e-02
5.910375e-02
6.494648e-02
7.053219e-02
7.586538e-02
8.095323e-02
8.580469e-02
9.043009e-02
9.484099e-02
9.905000e-02
1.030702e-01
1.069139e-01
1.105913e-01
1.141068e-01
1.174558e-01
1.206190e-01
1.235565e-01
1.262033e-01
1.284672e-01
1.302354e-01
1.313927e-01
1.318555e-01
1.316176e-01
1.307972e-01
1.296651e-01
0.000000e+00
9.578563e-03
1.956659e-02
2.987484e-02
4.032533e-02
5.072319e-02
6.091406e-02
7.079812e-02
8.032151e-02
8.945946e-02
9.820363e-02
1.065542e-01
1.145154e-01
1.220935e-01
1.292957e-01
1.361294e-01
1.426029e-01
1.487243e-01
1.545014e-01
1.599410e-01
1.650468e-01
1.698177e-01
1.742444e-01
1.783060e-01
1.819666e-01
1.851731e-01
1.878564e-01
1.899389e-01
1.913511e-01
1.920588e-01
1.920986e-01
1.916174e-01
1.909018e-01
0.000000e+00
1.303861e-02
2.669806e-02
4.079334e-02
5.500257e-02
6.903700e-02
8.270311e-02
9.590313e-02
1.085929e-01
1.207559e-01
1.323885e-01
1.434928e-01
1.540728e-01
1.641329e-01
1.736773e-01
1.827100e-01
1.912343e-01
1.992530e-01
2.067681e-01
2.137799e-01
2.202863e-01
2.262813e-01
2.317534e-01
2.366837e-01
2.410444e-01
2.447991e-01
2.479046e-01
2.503181e-01
2.520096e-01
2.529814e-01
2.532967e-01
2.531160e-01
2.527390e-01
0.000000e+00
1.680402e-02
3.453601e-02
5.275321e-02
7.092745e-02
8.866119e-02
1.058024e-01
1.222964e-01
1.381277e-01
1.532951e-01
1.678012e-01
1.816494e-01
1.948423e-01
2.073813e-01
2.192667e-01
2.304976e-01
2.410717e-01
2.509857e-01
2.602346e-01
2.688118e-01
2.767089e-01
2.839146e-01
2.904154e-01
2.961948e-01
3.012344e-01
3.055153e-01
3.090215e-01
3.117451e-01
3.136943e-01
3.149057e-01
3.154629e-01
3.155293e-01
3.154042e-01
0.000000e+00
2.118314e-02
4.361116e-02
6.644686e-02
8.863683e-02
1.100098e-01
1.305519e-01
1.502817e-01
1.692155e-01
1.873634e-01
2.047302e-01
2.213173e-01
2.371235e-01
2.521460e-01
2.663799e-01
2.798189e-01
2.924546e-01
3.042768e-01
3.152729e-01
3.254283e-01
3.347263e-01
3.431489e-01
3.506778e-01
3.572960e-01
3.629910e-01
3.677585e-01
3.716071e-01
3.745639e-01
3.766801e-01
3.780355e-01
3.787449e-01
3.789760e-01
3.790035e-01
0.000000e+00
2.670767e-02
5.556937e-02
8.278457e-02
1.086543e-01
1.334247e-01
1.572262e-01
1.801154e-01
2.021137e-01
2.232260e-01
2.434502e-01
2.627804e-01
2.812096e-01
2.987292e-01
3.153294e-01
3.309982e-01
3.457214e-01
3.594817e-01
3.722583e-01
3.840273e-01
3.947615e-01
4.044319e-01
4.130099e-01
4.204711e-01
4.267999e-01
4.319967e-01
4.360860e-01
4.391254e-01
4.412133e-01
4.424926e-01
4.431462e-01
4.433832e-01
4.434413e-01
0.000000e+00
3.982953e-02
7.227188e-02
1.023305e-01
1.311832e-01
1.590498e-01
1.859863e-01
2.119902e-01
2.370442e-01
2.611282e-01
2.842239e-01
3.063149e-01
3.273873e-01
3.474274e-01
3.664215e-01
3.843535e-01
4.012043e-01
4.169506e-01
4.315636e-01
4.450086e-01
4.572451e-01
4.682282e-01
4.779106e-01
4.862481e-01
4.932061e-01
4.987706e-01
5.029614e-01
5.058484e-01
5.075692e-01
5.083446e-01
5.084855e-01
5.083688e-01
5.083031e-01
0.000000e+00
-2.460615e-02
-4.294304e-02
-6.295300e-02
-8.523529e-02
-1.104054e-01
-1.386381e-01
-1.699826e-01
-2.044077e-01
-2.418396e-01
-2.821789e-01
-3.253117e-01
-3.711148e-01
-4.194601e-01
-4.702168e-01
-5.232533e-01
-5.784386e-01
-6.356442e-01
-6.947458e-01
-7.556265e-01
-8.181801e-01
-8.823177e-01
-9.479755e-01
-1.015128e+00
-1.083809e+00
-1.154146e+00
-1.226418e+00
-1.301170e+00
-1.379447e+00
-1.463314e+00
-1.557230e+00
-1.671714e+00
-1.829876e+00
0.000000e+00
-1.529178e-02
-3.448568e-02
-5.463062e-02
-7.722348e-02
-1.026670e-01
-1.311741e-01
-1.627930e-01
-1.974951e-01
-2.352067e-01
-2.758281e-01
-3.192440e-01
-3.653305e-01
-4.139583e-01
-4.649953e-01
-5.183088e-01
-5.737660e-01
-6.312365e-01
-6.905938e-01
-7.517178e-01
-8.144988e-01
-8.788432e-01
-9.446813e-01
-1.011981e+00
-1.080766e+00
-1.151151e+00
-1.223404e+00
-1.298051e+00
-1.376114e+00
-1.459625e+00
-1.552816e+00
-1.664751e+00
-1.812515e+00
0.000000e+00
-1.123270e-02
-2.780219e-02
-4.767233e-02
-7.030466e-02
-9.593566e-02
-1.246678e-01
-1.565276e-01
-1.914769e-01
-2.294384e-01
-2.703105e-01
-3.139774e-01
-3.603143e-01
-4.091916e-01
-4.604767e-01
-5.140363e-01
-5.697371e-01
-6.274479e-01
-6.870412e-01
-7.483961e-01
-8.114019e-01
-8.759643e-01
-9.420134e-01
-1.009518e+00
-1.078504e+00
-1.149095e+00
-1.221568e+00
-1.296463e+00
-1.374791e+00
-1.458381e+00
-1.550359e+00
-1.654419e+00
-1.769853e+00
0.000000e+00
-8.994667e-03
-2.354284e-02
-4.235341e-02
-6.469488e-02
-9.031793e-02
-1.191729e-01
-1.512113e-01
-1.863640e-01
-2.245395e-01
-2.656300e-01
-3.095167e-01
-3.560737e-01
-4.051711e-01
-4.566766e-01
-5.104571e-01
-5.663798e-01
-6.243140e-01
-6.841329e-01
-7.457165e-01
-8.089558e-01
-8.737584e-01
-9.400583e-01
-1.007829e+00
-1.077103e+00
-1.148011e+00
-1.220824e+00
-1.296044e+00
-1.374496e+00
-1.457385e+00
-1.545865e+00
-1.639184e+00
-1.726055e+00
0.000000e+00
-7.610967e-03
-2.075738e-02
-3.857634e-02
-6.040853e-02
-8.586358e-02
-1.147294e-01
-1.468719e-01
-1.821748e-01
-2.205227e-01
-2.617959e-01
-3.058698e-01
-3.526165e-01
-4.019057e-01
-4.536055e-01
-5.075838e-01
-5.637091e-01
-6.218522e-01
-6.818879e-01
-7.436985e-01
-8.071771e-01
-8.722344e-01
-9.388069e-01
-1.006870e+00
-1.076454e+00
-1.147673e+00
-1.220749e+00
-1.296043e+00
-1.374028e+00
-1.455088e+00
-1.538835e+00
-1.622197e+00
-1.697852e+00
0.000000e+00
-6.730507e-03
-1.892977e-02
-3.597713e-02
-5.731787e-02
-8.253447e-02
-1.113376e-01
-1.435211e-01
-1.789229e-01
-2.174001e-01
-2.588179e-01
-3.030447e-01
-3.499493e-01
-3.994007e-01
-4.512679e-01
-5.054199e-01
-5.617271e-01
-6.200620e-01
-6.803016e-01
-7.423300e-01
-8.060418e-01
-8.713482e-01
-9.381839e-01
-1.006517e+00
-1.076358e+00
-1.147776e+00
-1.220897e+00
-1.295877e+00
-1.372804e+00
-1.451419e+00
-1.530523e+00
-1.607291e+00
-1.677457e+00
0.000000e+00
-6.183310e-03
-1.777427e-02
-3.428759e-02
-5.524735e-02
-8.024666e-02
-1.089642e-01
-1.411518e-01
-1.766120e-01
-2.151786e-01
-2.567031e-01
-3.010466e-01
-3.480751e-01
-3.976570e-01
-4.496618e-01
-5.039603e-01
-5.604243e-01
-6.189285e-01
-6.793511e-01
-7.415767e-01
-8.054994e-01
-8.710267e-01
-9.380843e-01
-1.006622e+00
-1.076616e+00
-1.148067e+00
-1.220982e+00
-1.295320e+00
-1.370865e+00
-1.447002e+00
-1.522416e+00
-1.594930e+00
-1.661882e+00
0.000000e+00
-5.882618e-03
-1.713311e-02
-3.333550e-02
-5.406009e-02
-7.891403e-02
-1.075657e-01
-1.397462e-01
-1.752380e-01
-2.138599e-01
-2.554543e-01
-2.998774e-01
-3.469934e-01
-3.966707e-01
-4.487798e-01
-5.031927e-01
-5.597831e-01
-6.184265e-01
-6.790016e-01
-7.413918e-01
-8.054875e-01
-8.711879e-01
-9.384036e-01
-1.007057e+00
-1.077080e+00
-1.148399e+00
-1.220910e+00
-1.294416e+00
-1.368524e+00
-1.442504e+00
-1.515169e+00
-1.584884e+00
-1.649830e+00
0.000000e+00
-5.785736e-03
-1.692625e-02
-3.302692e-02
-5.367315e-02
-7.847788e-02
-1.071076e-01
-1.392876e-01
-1.747943e-01
-2.134421e-01
-2.550706e-01
-2.995351e-01
-3.466999e-01
-3.964342e-01
-4.486099e-01
-5.031004e-01
-5.597803e-01
-6.185254e-01
-6.792137e-01
-7.417253e-01
-8.059441e-01
-8.717576e-01
-9.390566e-01
-1.007732e+00
-1.077669e+00
-1.148727e+00
-1.220714e+00
-1.293333e+00
-1.366115e+00
-1.438343e+00
-1.509011e+00
-1.576872e+00
-1.640594e+00
0.000000e+00
-5.879816e-03
-1.712922e-02
-3.333215e-02
-5.405908e-02
-7.891758e-02
-1.075768e-01
-1.397687e-01
-1.752770e-01
-2.139222e-01
-2.555486e-01
-3.000147e-01
-3.471872e-01
-3.969372e-01
-4.491380e-01
-5.036643e-01
-5.603911e-01
-6.191939e-01
-6.799485e-01
-7.425306e-01
-8.068156e-01
-8.726771e-01
-9.399845e-01
-1.008598e+00
-1.078358e+00
-1.149072e+00
-1.220487e+00
-1.292253e+00
-1.363889e+00
-1.434741e+00
-1.503981e+00
-1.570643e+00
-1.633711e+00
0.000000e+00
-6.177933e-03
-1.776681e-02
-3.428113e-02
-5.524533e-02
-8.025333e-02
-1.089852e-01
-1.411946e-01
-1.766865e-01
-2.152978e-01
-2.568837e-01
-3.013096e-01
-3.484464e-01
-3.981679e-01
-4.503491e-01
-5.048653e-01
-5.615919e-01
-6.204031e-01
-6.811720e-01
-7.437689e-01
-8.080602e-01
-8.739052e-01
-9.411528e-01
-1.009635e+00
-1.079157e+00
-1.149487e+00
-1.220333e+00
-1.291327e+00
-1.362006e+00
-1.431800e+00
-1.500036e+00
-1.565971e+00
-1.628825e+00
0.000000e+00
-6.723032e-03
-1.891940e-02
-3.596812e-02
-5.731495e-02
-8.254361e-02
-1.113666e-01
-1.435806e-01
-1.790267e-01
-2.175663e-01
-2.590699e-01
-3.034119e-01
-3.504682e-01
-4.001153e-01
-4.522296e-01
-5.066871e-01
-5.633627e-01
-6.221295e-01
-6.828572e-01
-7.454111e-01
-8.096485e-01
-8.754163e-01
-9.425454e-01
-1.010845e+00
-1.080093e+00
-1.150029e+00
-1.220342e+00
-1.290664e+00
-1.360561e+00
-1.429547e+00
-1.497091e+00
-1.562639e+00
-1.625621e+00
0.000000e+00
-7.602163e-03
-2.074517e-02
-3.856572e-02
-6.040515e-02
-8.587464e-02
-1.147645e-01
-1.469436e-01
-1.823000e-01
-2.207235e-01
-2.621004e-01
-3.063138e-01
-3.532441e-01
-4.027701e-01
-4.547693e-01
-5.091177e-01
-5.656897e-01
-6.243570e-01
-6.849864e-01
-7.474385e-01
-8.115634e-01
-8.771975e-01
-9.441579e-01
-1.012236e+00
-1.081192e+00
-1.150747e+00
-1.220580e+00
-1.290329e+00
-1.359596e+00
-1.427966e+00
-1.495035e+00
-1.560426e+00
-1.623788e+00
0.000000e+00
-8.985618e-03
-2.353031e-02
-4.234260e-02
-6.469198e-02
-9.033092e-02
-1.192124e-01
-1.512913e-01
-1.865032e-01
-2.247623e-01
-2.659676e-01
-3.100083e-01
-3.567681e-01
-4.061270e-01
-4.579628e-01
-5.121514e-01
-5.685667e-01
-6.270786e-01
-6.875520e-01
-7.498436e-01
-8.137984e-01
-8.792453e-01
-9.459920e-01
-1.013819e+00
-1.082473e+00
-1.151668e+00
-1.221077e+00
-1.290347e+00
-1.359109e+00
-1.427007e+00
-1.493742e+00
-1.559105e+00
-1.622989e+00
0.000000e+00
-1.122481e-02
-2.779121e-02
-4.766321e-02
-7.030379e-02
-9.595148e-02
-1.247114e-01
-1.566137e-01
-1.916249e-01
-2.296734e-01
-2.706649e-01
-3.144917e-01
-3.610386e-01
-4.101859e-01
-4.618114e-01
-5.157907e-01
-5.719965e-01
-6.302979e-01
-6.905579e-01
-7.526308e-01
-8.163583e-01
-8.815651e-01
-9.480534e-01
-1.015598e+00
-1.083941e+00
-1.152792e+00
-1.221825e+00
-1.290695e+00
-1.359054e+00
-1.426588e+00
-1.493072e+00
-1.558441e+00
-1.622850e+00
0.000000e+00
-1.528672e-02
-3.447821e-02
-5.462526e-02
-7.722680e-02
-1.026876e-01
-1.312232e-01
-1.628854e-01
-1.976501e-01
-2.354493e-01
-2.761901e-01
-3.197652e-01
-3.660596e-01
-4.149536e-01
-4.663243e-01
-5.200467e-01
-5.759928e-01
-6.340305e-01
-6.940216e-01
-7.558186e-01
-8.192615e-01
-8.841730e-01
-9.503537e-01
-1.017577e+00
-1.085586e+00
-1.154090e+00
-1.222770e+00
-1.291291e+00
-1.359320e+00
-1.426568e+00
-1.492854e+00
-1.558201e+00
-1.622969e+00
0.000000e+00
-2.460543e-02
-4.294055e-02
-6.295348e-02
-8.524534e-02
-1.104336e-01
-1.386959e-01
-1.700845e-01
-2.045726e-01
-2.420917e-01
-2.825490e-01
-3.258376e-01
-3.718425e-01
-4.204437e-01
-4.715182e-01
-5.249400e-01
-5.805803e-01
-6.383055e-01
-6.979760e-01
-7.594429e-01
-8.225446e-01
-8.871028e-01
-9.529179e-01