TITLE = "Solution"
VARIABLES = x, y, u, v, psiu, psiv, t, stress
ZONE T="structure" N=561 E=512 F=FEBLOCK ET=QUADRILATERAL VARLOCATION=([7,8]=cellcentered)
0.000000e+00
6.250000e+00
1.250000e+01
1.875000e+01
2.500000e+01
3.125000e+01
3.750000e+01
4.375000e+01
5.000000e+01
5.625000e+01
6.250000e+01
6.875000e+01
7.500000e+01
8.125000e+01
8.750000e+01
9.375000e+01
1.000000e+02
1.062500e+02
1.125000e+02
1.187500e+02
1.250000e+02
1.312500e+02
1.375000e+02
1.437500e+02
1.500000e+02
1.562500e+02
1.625000e+02
1.687500e+02
1.750000e+02
1.812500e+02
1.875000e+02
1.937500e+02
2.000000e+02
0.000000e+00
6.250000e+00
1.250000e+01
1.875000e+01
2.500000e+01
3.125000e+01
3.750000e+01
4.375000e+01
5.000000e+01
5.625000e+01
6.250000e+01
6.875000e+01
7.500000e+01
8.125000e+01
8.750000e+01
9.375000e+01
1.000000e+02
1.062500e+02
1.125000e+02
1.187500e+02
1.250000e+02
1.312500e+02
1.375000e+02
1.437500e+02
1.500000e+02
1.562500e+02
1.625000e+02
1.687500e+02
1.750000e+02
1.812500e+02
1.875000e+02
1.937500e+02
2.000000e+02
0.000000e+00
6.250000e+00
1.250000e+01
1.875000e+01
2.500000e+01
3.125000e+01
3.750000e+01
4.375000e+01
5.000000e+01
5.625000e+01
6.250000e+01
6.875000e+01
7.500000e+01
8.125000e+01
8.750000e+01
9.375000e+01
1.000000e+02
1.062500e+02
1.125000e+02
1.187500e+02
1.250000e+02
1.312500e+02
1.375000e+02
1.437500e+02
1.500000e+02
1.562500e+02
1.625000e+02
1.687500e+02
1.750000e+02
1.812500e+02
1.875000e+02
1.937500e+02
2.000000e+02
0.000000e+00
6.250000e+00
1.250000e+01
1.875000e+01
2.500000e+01
3.125000e+01
3.750000e+01
4.375000e+01
5.000000e+01
5.625000e+01
6.250000e+01
6.875000e+01
7.500000e+01
8.125000e+01
8.750000e+01
9.375000e+01
1.000000e+02
1.062500e+02
1.125000e+02
1.187500e+02
1.250000e+02
1.312500e+02
1.375000e+02
1.437500e+02
1.500000e+02
1.562500e+02
1.625000e+02
1.687500e+02
1.750000e+02
1.812500e+02
1.875000e+02
1.937500e+02
2.000000e+02
0.000000e+00
6.250000e+00
1.250000e+01
1.875000e+01
2.500000e+01
3.125000e+01
3.750000e+01
4.375000e+01
5.000000e+01
5.625000e+01
6.250000e+01
6.875000e+01
7.500000e+01
8.125000e+01
8.750000e+01
9.375000e+01
1.000000e+02
1.062500e+02
1.125000e+02
1.187500e+02
1.250000e+02
1.312500e+02
1.375000e+02
1.437500e+02
1.500000e+02
1.562500e+02
1.625000e+02
1.687500e+02
1.750000e+02
1.812500e+02
1.875000e+02
1.937500e+02
2.000000e+02
0.000000e+00
6.250000e+00
1.250000e+01
1.875000e+01
2.500000e+01
3.125000e+01
3.750000e+01
4.375000e+01
5.000000e+01
5.625000e+01
6.250000e+01
6.875000e+01
7.500000e+01
8.125000e+01
8.750000e+01
9.375000e+01
1.000000e+02
1.062500e+02
1.125000e+02
1.187500e+02
1.250000e+02
1.312500e+02
1.375000e+02
1.437500e+02
1.500000e+02
1.562500e+02
1.625000e+02
1.687500e+02
1.750000e+02
1.812500e+02
1.875000e+02
1.937500e+02
2.000000e+02
0.000000e+00
6.250000e+00
1.250000e+01
1.875000e+01
2.500000e+01
3.125000e+01
3.750000e+01
4.375000e+01
5.000000e+01
5.625000e+01
6.250000e+01
6.875000e+01
7.500000e+01
8.125000e+01
8.750000e+01
9.375000e+01
1.000000e+02
1.062500e+02
1.125000e+02
1.187500e+02
1.250000e+02
1.312500e+02
1.375000e+02
1.437500e+02
1.500000e+02
1.562500e+02
1.625000e+02
1.687500e+02
1.750000e+02
1.812500e+02
1.875000e+02
1.937500e+02
2.000000e+02
0.000000e+00
6.250000e+00
1.250000e+01
1.875000e+01
2.500000e+01
3.125000e+01
3.750000e+01
4.375000e+01
5.000000e+01
5.625000e+01
6.250000e+01
6.875000e+01
7.500000e+01
8.125000e+01
8.750000e+01
9.375000e+01
1.000000e+02
1.062500e+02
1.125000e+02
1.187500e+02
1.250000e+02
1.312500e+02
1.375000e+02
1.437500e+02
1.500000e+02
1.562500e+02
1.625000e+02
1.687500e+02
1.750000e+02
1.812500e+02
1.875000e+02
1.937500e+02
2.000000e+02
0.000000e+00
6.250000e+00
1.250000e+01
1.875000e+01
2.500000e+01
3.125000e+01
3.750000e+01
4.375000e+01
5.000000e+01
5.625000e+01
6.250000e+01
6.875000e+01
7.500000e+01
8.125000e+01
8.750000e+01
9.375000e+01
1.000000e+02
1.062500e+02
1.125000e+02
1.187500e+02
1.250000e+02
1.312500e+02
1.375000e+02
1.437500e+02
1.500000e+02
1.562500e+02
1.625000e+02
1.687500e+02
1.750000e+02
1.812500e+02
1.875000e+02
1.937500e+02
2.000000e+02
0.000000e+00
6.250000e+00
1.250000e+01
1.875000e+01
2.500000e+01
3.125000e+01
3.750000e+01
4.375000e+01
5.000000e+01
5.625000e+01
6.250000e+01
6.875000e+01
7.500000e+01
8.125000e+01
8.750000e+01
9.375000e+01
1.000000e+02
1.062500e+02
1.125000e+02
1.187500e+02
1.250000e+02
1.312500e+02
1.375000e+02
1.437500e+02
1.500000e+02
1.562500e+02
1.625000e+02
1.687500e+02
1.750000e+02
1.812500e+02
1.875000e+02
1.937500e+02
2.000000e+02
0.000000e+00
6.250000e+00
1.250000e+01
1.875000e+01
2.500000e+01
3.125000e+01
3.750000e+01
4.375000e+01
5.000000e+01
5.625000e+01
6.250000e+01
6.875000e+01
7.500000e+01
8.125000e+01
8.750000e+01
9.375000e+01
1.000000e+02
1.062500e+02
1.125000e+02
1.187500e+02
1.250000e+02
1.312500e+02
1.375000e+02
1.437500e+02
1.500000e+02
1.562500e+02
1.625000e+02
1.687500e+02
1.750000e+02
1.812500e+02
1.875000e+02
1.937500e+02
2.000000e+02
0.000000e+00
6.250000e+00
1.250000e+01
1.875000e+01
2.500000e+01
3.125000e+01
3.750000e+01
4.375000e+01
5.000000e+01
5.625000e+01
6.250000e+01
6.875000e+01
7.500000e+01
8.125000e+01
8.750000e+01
9.375000e+01
1.000000e+02
1.062500e+02
1.125000e+02
1.187500e+02
1.250000e+02
1.312500e+02
1.375000e+02
1.437500e+02
1.500000e+02
1.562500e+02
1.625000e+02
1.687500e+02
1.750000e+02
1.812500e+02
1.875000e+02
1.937500e+02
2.000000e+02
0.000000e+00
6.250000e+00
1.250000e+01
1.875000e+01
2.500000e+01
3.125000e+01
3.750000e+01
4.375000e+01
5.000000e+01
5.625000e+01
6.250000e+01
6.875000e+01
7.500000e+01
8.125000e+01
8.750000e+01
9.375000e+01
1.000000e+02
1.062500e+02
1.125000e+02
1.187500e+02
1.250000e+02
1.312500e+02
1.375000e+02
1.437500e+02
1.500000e+02
1.562500e+02
1.625000e+02
1.687500e+02
1.750000e+02
1.812500e+02
1.875000e+02
1.937500e+02
2.000000e+02
0.000000e+00
6.250000e+00
1.250000e+01
1.875000e+01
2.500000e+01
3.125000e+01
3.750000e+01
4.375000e+01
5.000000e+01
5.625000e+01
6.250000e+01
6.875000e+01
7.500000e+01
8.125000e+01
8.750000e+01
9.375000e+01
1.000000e+02
1.062500e+02
1.125000e+02
1.187500e+02
1.250000e+02
1.312500e+02
1.375000e+02
1.437500e+02
1.500000e+02
1.562500e+02
1.625000e+02
1.687500e+02
1.750000e+02
1.812500e+02
1.875000e+02
1.937500e+02
2.000000e+02
0.000000e+00
6.250000e+00
1.250000e+01
1.875000e+01
2.500000e+01
3.125000e+01
3.750000e+01
4.375000e+01
5.000000e+01
5.625000e+01
6.250000e+01
6.875000e+01
7.500000e+01
8.125000e+01
8.750000e+01
9.375000e+01
1.000000e+02
1.062500e+02
1.125000e+02
1.187500e+02
1.250000e+02
1.312500e+02
1.375000e+02
1.437500e+02
1.500000e+02
1.562500e+02
1.625000e+02
1.687500e+02
1.750000e+02
1.812500e+02
1.875000e+02
1.937500e+02
2.000000e+02
0.000000e+00
6.250000e+00
1.250000e+01
1.875000e+01
2.500000e+01
3.125000e+01
3.750000e+01
4.375000e+01
5.000000e+01
5.625000e+01
6.250000e+01
6.875000e+01
7.500000e+01
8.125000e+01
8.750000e+01
9.375000e+01
1.000000e+02
1.062500e+02
1.125000e+02
1.187500e+02
1.250000e+02
1.312500e+02
1.375000e+02
1.437500e+02
1.500000e+02
1.562500e+02
1.625000e+02
1.687500e+02
1.750000e+02
1.812500e+02
1.875000e+02
1.937500e+02
2.000000e+02
0.000000e+00
6.250000e+00
1.250000e+01
1.875000e+01
2.500000e+01
3.125000e+01
3.750000e+01
4.375000e+01
5.000000e+01
5.625000e+01
6.250000e+01
6.875000e+01
7.500000e+01
8.125000e+01
8.750000e+01
9.375000e+01
1.000000e+02
1.062500e+02
1.125000e+02
1.187500e+02
1.250000e+02
1.312500e+02
1.375000e+02
1.437500e+02
1.500000e+02
1.562500e+02
1.625000e+02
1.687500e+02
1.750000e+02
1.812500e+02
1.875000e+02
1.937500e+02
2.000000e+02
0.000000e+00
0.000000e+00
0.000000e+00
0.000000e+00
0.000000e+00
0.000000e+00
0.000000e+00
0.000000e+00
0.000000e+00
0.000000e+00
0.000000e+00
0.000000e+00
0.000000e+00
0.000000e+00
0.000000e+00
0.000000e+00
0.000000e+00
0.000000e+00
0.000000e+00
0.000000e+00
0.000000e+00
0.000000e+00
0.000000e+00
0.000000e+00
0.000000e+00
0.000000e+00
0.000000e+00
0.000000e+00
0.000000e+00
0.000000e+00
0.000000e+00
0.000000e+00
0.000000e+00
6.250000e+00
6.250000e+00
6.250000e+00
6.250000e+00
6.250000e+00
6.250000e+00
6.250000e+00
6.250000e+00
6.250000e+00
6.250000e+00
6.250000e+00
6.250000e+00
6.250000e+00
6.250000e+00
6.250000e+00
6.250000e+00
6.250000e+00
6.250000e+00
6.250000e+00
6.250000e+00
6.250000e+00
6.250000e+00
6.250000e+00
6.250000e+00
6.250000e+00
6.250000e+00
6.250000e+00
6.250000e+00
6.250000e+00
6.250000e+00
6.250000e+00
6.250000e+00
6.250000e+00
1.250000e+01
1.250000e+01
1.250000e+01
1.250000e+01
1.250000e+01
1.250000e+01
1.250000e+01
1.250000e+01
1.250000e+01
1.250000e+01
1.250000e+01
1.250000e+01
1.250000e+01
1.250000e+01
1.250000e+01
1.250000e+01
1.250000e+01
1.250000e+01
1.250000e+01
1.250000e+01
1.250000e+01
1.250000e+01
1.250000e+01
1.250000e+01
1.250000e+01
1.250000e+01
1.250000e+01
1.250000e+01
1.250000e+01
1.250000e+01
1.250000e+01
1.250000e+01
1.250000e+01
1.875000e+01
1.875000e+01
1.875000e+01
1.875000e+01
1.875000e+01
1.875000e+01
1.875000e+01
1.875000e+01
1.875000e+01
1.875000e+01
1.875000e+01
1.875000e+01
1.875000e+01
1.875000e+01
1.875000e+01
1.875000e+01
1.875000e+01
1.875000e+01
1.875000e+01
1.875000e+01
1.875000e+01
1.875000e+01
1.875000e+01
1.875000e+01
1.875000e+01
1.875000e+01
1.875000e+01
1.875000e+01
1.875000e+01
1.875000e+01
1.875000e+01
1.875000e+01
1.875000e+01
2.500000e+01
2.500000e+01
2.500000e+01
2.500000e+01
2.500000e+01
2.500000e+01
2.500000e+01
2.500000e+01
2.500000e+01
2.500000e+01
2.500000e+01
2.500000e+01
2.500000e+01
2.500000e+01
2.500000e+01
2.500000e+01
2.500000e+01
2.500000e+01
2.500000e+01
2.500000e+01
2.500000e+01
2.500000e+01
2.500000e+01
2.500000e+01
2.500000e+01
2.500000e+01
2.500000e+01
2.500000e+01
2.500000e+01
2.500000e+01
2.500000e+01
2.500000e+01
2.500000e+01
3.125000e+01
3.125000e+01
3.125000e+01
3.125000e+01
3.125000e+01
3.125000e+01
3.125000e+01
3.125000e+01
3.125000e+01
3.125000e+01
3.125000e+01
3.125000e+01
3.125000e+01
3.125000e+01
3.125000e+01
3.125000e+01
3.125000e+01
3.125000e+01
3.125000e+01
3.125000e+01
3.125000e+01
3.125000e+01
3.125000e+01
3.125000e+01
3.125000e+01
3.125000e+01
3.125000e+01
3.125000e+01
3.125000e+01
3.125000e+01
3.125000e+01
3.125000e+01
3.125000e+01
3.750000e+01
3.750000e+01
3.750000e+01
3.750000e+01
3.750000e+01
3.750000e+01
3.750000e+01
3.750000e+01
3.750000e+01
3.750000e+01
3.750000e+01
3.750000e+01
3.750000e+01
3.750000e+01
3.750000e+01
3.750000e+01
3.750000e+01
3.750000e+01
3.750000e+01
3.750000e+01
3.750000e+01
3.750000e+01
3.750000e+01
3.750000e+01
3.750000e+01
3.750000e+01
3.750000e+01
3.750000e+01
3.750000e+01
3.750000e+01
3.750000e+01
3.750000e+01
3.750000e+01
4.375000e+01
4.375000e+01
4.375000e+01
4.375000e+01
4.375000e+01
4.375000e+01
4.375000e+01
4.375000e+01
4.375000e+01
4.375000e+01
4.375000e+01
4.375000e+01
4.375000e+01
4.375000e+01
4.375000e+01
4.375000e+01
4.375000e+01
4.375000e+01
4.375000e+01
4.375000e+01
4.375000e+01
4.375000e+01
4.375000e+01
4.375000e+01
4.375000e+01
4.375000e+01
4.375000e+01
4.375000e+01
4.375000e+01
4.375000e+01
4.375000e+01
4.375000e+01
4.375000e+01
5.000000e+01
5.000000e+01
5.000000e+01
5.000000e+01
5.000000e+01
5.000000e+01
5.000000e+01
5.000000e+01
5.000000e+01
5.000000e+01
5.000000e+01
5.000000e+01
5.000000e+01
5.000000e+01
5.000000e+01
5.000000e+01
5.000000e+01
5.000000e+01
5.000000e+01
5.000000e+01
5.000000e+01
5.000000e+01
5.000000e+01
5.000000e+01
5.000000e+01
5.000000e+01
5.000000e+01
5.000000e+01
5.000000e+01
5.000000e+01
5.000000e+01
5.000000e+01
5.000000e+01
5.625000e+01
5.625000e+01
5.625000e+01
5.625000e+01
5.625000e+01
5.625000e+01
5.625000e+01
5.625000e+01
5.625000e+01
5.625000e+01
5.625000e+01
5.625000e+01
5.625000e+01
5.625000e+01
5.625000e+01
5.625000e+01
5.625000e+01
5.625000e+01
5.625000e+01
5.625000e+01
5.625000e+01
5.625000e+01
5.625000e+01
5.625000e+01
5.625000e+01
5.625000e+01
5.625000e+01
5.625000e+01
5.625000e+01
5.625000e+01
5.625000e+01
5.625000e+01
5.625000e+01
6.250000e+01
6.250000e+01
6.250000e+01
6.250000e+01
6.250000e+01
6.250000e+01
6.250000e+01
6.250000e+01
6.250000e+01
6.250000e+01
6.250000e+01
6.250000e+01
6.250000e+01
6.250000e+01
6.250000e+01
6.250000e+01
6.250000e+01
6.250000e+01
6.250000e+01
6.250000e+01
6.250000e+01
6.250000e+01
6.250000e+01
6.250000e+01
6.250000e+01
6.250000e+01
6.250000e+01
6.250000e+01
6.250000e+01
6.250000e+01
6.250000e+01
6.250000e+01
6.250000e+01
6.875000e+01
6.875000e+01
6.875000e+01
6.875000e+01
6.875000e+01
6.875000e+01
6.875000e+01
6.875000e+01
6.875000e+01
6.875000e+01
6.875000e+01
6.875000e+01
6.875000e+01
6.875000e+01
6.875000e+01
6.875000e+01
6.875000e+01
6.875000e+01
6.875000e+01
6.875000e+01
6.875000e+01
6.875000e+01
6.875000e+01
6.875000e+01
6.875000e+01
6.875000e+01
6.875000e+01
6.875000e+01
6.875000e+01
6.875000e+01
6.875000e+01
6.875000e+01
6.875000e+01
7.500000e+01
7.500000e+01
7.500000e+01
7.500000e+01
7.500000e+01
7.500000e+01
7.500000e+01
7.500000e+01
7.500000e+01
7.500000e+01
7.500000e+01
7.500000e+01
7.500000e+01
7.500000e+01
7.500000e+01
7.500000e+01
7.500000e+01
7.500000e+01
7.500000e+01
7.500000e+01
7.500000e+01
7.500000e+01
7.500000e+01
7.500000e+01
7.500000e+01
7.500000e+01
7.500000e+01
7.500000e+01
7.500000e+01
7.500000e+01
7.500000e+01
7.500000e+01
7.500000e+01
8.125000e+01
8.125000e+01
8.125000e+01
8.125000e+01
8.125000e+01
8.125000e+01
8.125000e+01
8.125000e+01
8.125000e+01
8.125000e+01
8.125000e+01
8.125000e+01
8.125000e+01
8.125000e+01
8.125000e+01
8.125000e+01
8.125000e+01
8.125000e+01
8.125000e+01
8.125000e+01
8.125000e+01
8.125000e+01
8.125000e+01
8.125000e+01
8.125000e+01
8.125000e+01
8.125000e+01
8.125000e+01
8.125000e+01
8.125000e+01
8.125000e+01
8.125000e+01
8.125000e+01
8.750000e+01
8.750000e+01
8.750000e+01
8.750000e+01
8.750000e+01
8.750000e+01
8.750000e+01
8.750000e+01
8.750000e+01
8.750000e+01
8.750000e+01
8.750000e+01
8.750000e+01
8.750000e+01
8.750000e+01
8.750000e+01
8.750000e+01
8.750000e+01
8.750000e+01
8.750000e+01
8.750000e+01
8.750000e+01
8.750000e+01
8.750000e+01
8.750000e+01
8.750000e+01
8.750000e+01
8.750000e+01
8.750000e+01
8.750000e+01
8.750000e+01
8.750000e+01
8.750000e+01
9.375000e+01
9.375000e+01
9.375000e+01
9.375000e+01
9.375000e+01
9.375000e+01
9.375000e+01
9.375000e+01
9.375000e+01
9.375000e+01
9.375000e+01
9.375000e+01
9.375000e+01
9.375000e+01
9.375000e+01
9.375000e+01
9.375000e+01
9.375000e+01
9.375000e+01
9.375000e+01
9.375000e+01
9.375000e+01
9.375000e+01
9.375000e+01
9.375000e+01
9.375000e+01
9.375000e+01
9.375000e+01
9.375000e+01
9.375000e+01
9.375000e+01
9.375000e+01
9.375000e+01
1.000000e+02
1.000000e+02
1.000000e+02
1.000000e+02
1.000000e+02
1.000000e+02
1.000000e+02
1.000000e+02
1.000000e+02
1.000000e+02
1.000000e+02
1.000000e+02
1.000000e+02
1.000000e+02
1.000000e+02
1.000000e+02
1.000000e+02
1.000000e+02
1.000000e+02
1.000000e+02
1.000000e+02
1.000000e+02
1.000000e+02
1.000000e+02
1.000000e+02
1.000000e+02
1.000000e+02
1.000000e+02
1.000000e+02
1.000000e+02
1.000000e+02
1.000000e+02
1.000000e+02
0.000000e+00
-3.986898e-02
-7.233696e-02
-1.024140e-01
-1.312794e-01
-1.591534e-01
-1.860918e-01
-2.120924e-01
-2.371386e-01
-2.612124e-01
-2.842986e-01
-3.063868e-01
-3.274716e-01
-3.475526e-01
-3.666345e-01
-3.847273e-01
-4.018473e-01
-4.180179e-01
-4.332718e-01
-4.476527e-01
-4.612192e-01
-4.740485e-01
-4.862430e-01
-4.979381e-01
-5.093155e-01
-5.206222e-01
-5.322009e-01
-5.445407e-01
-5.583588e-01
-5.747108e-01
-5.949661e-01
-6.191049e-01
-6.338365e-01
0.000000e+00
-2.673108e-02
-5.561688e-02
-8.285238e-02
-1.087387e-01
-1.335222e-01
-1.573340e-01
-1.802313e-01
-2.022370e-01
-2.233584e-01
-2.435970e-01
-2.629528e-01
-2.814266e-01
-2.990216e-01
-3.157435e-01
-3.316016e-01
-3.466095e-01
-3.607857e-01
-3.741546e-01
-3.867483e-01
-3.986075e-01
-4.097833e-01
-4.203396e-01
-4.303541e-01
-4.399200e-01
-4.491443e-01
-4.581401e-01
-4.670004e-01
-4.757247e-01
-4.840289e-01
-4.909487e-01
-4.949943e-01
-5.006264e-01
0.000000e+00
-2.120316e-02
-4.365180e-02
-6.650808e-02
-8.871731e-02
-1.101081e-01
-1.306667e-01
-1.504127e-01
-1.693636e-01
-1.875312e-01
-2.049233e-01
-2.215452e-01
-2.374017e-01
-2.524974e-01
-2.668378e-01
-2.804300e-01
-2.932827e-01
-3.054072e-01
-3.168168e-01
-3.275281e-01
-3.375596e-01
-3.469317e-01
-3.556643e-01
-3.637730e-01
-3.712608e-01
-3.781040e-01
-3.842240e-01
-3.894409e-01
-3.934018e-01
-3.955346e-01
-3.953476e-01
-3.941499e-01
-4.007268e-01
0.000000e+00
-1.682282e-02
-3.457474e-02
-5.281261e-02
-7.100775e-02
-8.876215e-02
-1.059238e-01
-1.224381e-01
-1.382904e-01
-1.534799e-01
-1.680106e-01
-1.818874e-01
-1.951150e-01
-2.076974e-01
-2.196385e-01
-2.309415e-01
-2.416096e-01
-2.516456e-01
-2.610514e-01
-2.698277e-01
-2.779721e-01
-2.854772e-01
-2.923264e-01
-2.984878e-01
-3.039045e-01
-3.084809e-01
-3.120654e-01
-3.144392e-01
-3.153456e-01
-3.146728e-01
-3.130386e-01
-3.129410e-01
-3.192071e-01
0.000000e+00
-1.305686e-02
-2.673600e-02
-4.085211e-02
-5.508290e-02
-6.913914e-02
-8.282690e-02
-9.604799e-02
-1.087577e-01
-1.209390e-01
-1.325873e-01
-1.437032e-01
-1.542888e-01
-1.643459e-01
-1.738752e-01
-1.828758e-01
-1.913448e-01
-1.992773e-01
-2.066650e-01
-2.134955e-01
-2.197504e-01
-2.254031e-01
-2.304148e-01
-2.347306e-01
-2.382741e-01
-2.409451e-01
-2.426258e-01
-2.432154e-01
-2.427317e-01
-2.415482e-01
-2.407803e-01
-2.425535e-01
-2.478988e-01
0.000000e+00
-9.596032e-03
-1.960320e-02
-2.993186e-02
-4.040355e-02
-5.082280e-02
-6.103443e-02
-7.093756e-02
-8.047684e-02
-8.962534e-02
-9.837170e-02
-1.067119e-01
-1.146446e-01
-1.221682e-01
-1.292801e-01
-1.359750e-01
-1.422451e-01
-1.480790e-01
-1.534607e-01
-1.583693e-01
-1.627772e-01
-1.666485e-01
-1.699380e-01
-1.725907e-01
-1.745434e-01
-1.757349e-01
-1.761302e-01
-1.757754e-01
-1.749011e-01
-1.740692e-01
-1.742718e-01
-1.765322e-01
-1.809550e-01
0.000000e+00
-6.315343e-03
-1.288049e-02
-1.965389e-02
-2.653898e-02
-3.341984e-02
-4.019272e-02
-4.678198e-02
-5.314027e-02
-5.924148e-02
-6.507241e-02
-7.062643e-02
-7.589927e-02
-8.088656e-02
-8.558228e-02
-8.997782e-02
-9.406134e-02
-9.781715e-02
-1.012251e-01
-1.042600e-01
-1.068916e-01
-1.090839e-01
-1.107973e-01
-1.119912e-01
-1.126328e-01
-1.127123e-01
-1.122737e-01
-1.114621e-01
-1.105862e-01
-1.101617e-01
-1.108241e-01
-1.130248e-01
-1.165950e-01
0.000000e+00
-3.136829e-03
-6.392248e-03
-9.749525e-03
-1.316626e-02
-1.658848e-02
-1.996492e-02
-2.325547e-02
-2.643304e-02
-2.948107e-02
-3.238975e-02
-3.515259e-02
-3.776394e-02
-4.021733e-02
-4.250439e-02
-4.461414e-02
-4.653243e-02
-4.824154e-02
-4.972000e-02
-5.094262e-02
-5.188114e-02
-5.250585e-02
-5.278884e-02
-5.271013e-02
-5.226817e-02
-5.149668e-02
-5.048904e-02
-4.942732e-02
-4.860311e-02
-4.839664e-02
-4.917380e-02
-5.109367e-02
-5.392653e-02
0.000000e+00
-5.060959e-06
-1.097360e-05
-1.741038e-05
-2.403272e-05
-3.038410e-05
-3.577653e-05
-3.916452e-05
-3.899779e-05
-3.304399e-05
-1.817469e-05
9.889163e-06
5.687187e-05
1.302713e-04
2.397049e-04
3.972440e-04
6.176838e-04
9.186661e-04
1.320522e-03
1.845635e-03
2.517016e-03
3.355670e-03
4.376145e-03
5.579546e-03
6.943333e-03
8.407763e-03
9.860716e-03
1.112658e-02
1.197159e-02
1.214296e-02
1.145296e-02
9.890348e-03
7.701822e-03
0.000000e+00
3.127296e-03
6.371537e-03
9.716599e-03
1.312070e-02
1.653072e-02
1.989665e-02
2.318035e-02
2.635760e-02
2.941603e-02
3.235168e-02
3.516611e-02
3.786442e-02
4.045426e-02
4.294541e-02
4.534971e-02
4.768104e-02
4.995524e-02
5.218964e-02
5.440210e-02
5.660915e-02
5.882295e-02
6.104665e-02
6.326790e-02
6.545061e-02
6.752588e-02
6.938509e-02
7.088045e-02
7.184127e-02
7.211329e-02
7.162064e-02
7.043360e-02
6.880928e-02
0.000000e+00
6.307556e-03
1.286345e-02
1.962662e-02
2.650094e-02
3.337117e-02
4.013453e-02
4.671691e-02
5.307329e-02
5.918089e-02
6.503125e-02
7.062424e-02
7.596440e-02
8.105890e-02
8.591669e-02
9.054812e-02
9.496478e-02
9.917928e-02
1.032047e-01
1.070535e-01
1.107356e-01
1.142558e-01
1.176092e-01
1.207764e-01
1.237178e-01
1.263680e-01
1.286349e-01
1.304054e-01
1.315642e-01
1.320276e-01
1.317893e-01
1.309680e-01
1.298343e-01
0.000000e+00
9.591065e-03
1.959213e-02
2.991383e-02
4.037796e-02
5.078940e-02
6.099356e-02
7.089052e-02
8.042635e-02
8.957623e-02
9.833180e-02
1.066933e-01
1.146649e-01
1.222529e-01
1.294644e-01
1.363071e-01
1.427890e-01
1.489184e-01
1.547031e-01
1.601497e-01
1.652622e-01
1.700393e-01
1.744718e-01
1.785387e-01
1.822041e-01
1.854148e-01
1.881016e-01
1.901868e-01
1.916009e-01
1.923094e-01
1.923493e-01
1.918675e-01
1.911510e-01
0.000000e+00
1.305562e-02
2.673291e-02
4.084658e-02
5.507436e-02
6.912711e-02
8.281106e-02
9.602830e-02
1.087346e-01
1.209135e-01
1.325613e-01
1.436801e-01
1.542739e-01
1.643471e-01
1.739040e-01
1.829485e-01
1.914839e-01
1.995131e-01
2.070380e-01
2.140589e-01
2.205738e-01
2.265766e-01
2.320559e-01
2.369926e-01
2.413590e-01
2.451186e-01
2.482281e-01
2.506449e-01
2.523386e-01
2.533116e-01
2.536273e-01
2.534463e-01
2.530689e-01
0.000000e+00
1.682595e-02
3.458109e-02
5.282206e-02
7.102003e-02
8.877691e-02
1.059405e-01
1.224560e-01
1.383080e-01
1.534952e-01
1.680202e-01
1.818865e-01
1.950966e-01
2.076520e-01
2.195529e-01
2.307984e-01
2.413863e-01
2.513132e-01
2.605742e-01
2.691627e-01
2.770700e-01
2.842852e-01
2.907944e-01
2.965814e-01
3.016276e-01
3.059141e-01
3.094249e-01
3.121520e-01
3.141037e-01
3.153167e-01
3.158746e-01
3.159411e-01
3.158159e-01
0.000000e+00
2.121079e-02
4.366808e-02
6.653359e-02
8.875252e-02
1.101534e-01
1.307223e-01
1.504778e-01
1.694364e-01
1.876079e-01
2.049974e-01
2.216061e-01
2.374330e-01
2.524751e-01
2.667276e-01
2.801841e-01
2.928363e-01
3.046739e-01
3.156844e-01
3.258531e-01
3.351632e-01
3.435968e-01
3.511355e-01
3.577623e-01
3.634648e-01
3.682385e-01
3.720921e-01
3.750528e-01
3.771717e-01
3.785289e-01
3.792392e-01
3.794706e-01
3.794982e-01
0.000000e+00
2.674253e-02
5.564190e-02
8.289263e-02
1.087961e-01
1.335988e-01
1.574314e-01
1.803505e-01
2.023775e-01
2.235174e-01
2.437679e-01
2.631234e-01
2.815767e-01
2.991191e-01
3.157409e-01
3.314302e-01
3.461726e-01
3.599509e-01
3.727442e-01
3.845286e-01
3.952767e-01
4.049597e-01
4.135490e-01
4.210199e-01
4.273570e-01
4.325606e-01
4.366552e-01
4.396986e-01
4.417892e-01
4.430702e-01
4.437246e-01
4.439619e-01
4.440201e-01
0.000000e+00
3.988151e-02
7.236621e-02
1.024641e-01
1.313544e-01
1.592574e-01
1.862290e-01
2.122669e-01
2.373536e-01
2.614691e-01
2.845948e-01
3.067147e-01
3.278146e-01
3.478809e-01
3.668997e-01
3.848551e-01
4.017280e-01
4.174948e-01
4.321269e-01
4.455894e-01
4.578420e-01
4.688393e-01
4.785344e-01
4.868827e-01
4.938498e-01
4.994216e-01
5.036179e-01
5.065087e-01
5.082317e-01
5.090081e-01
5.091492e-01
5.090323e-01
5.089666e-01
0.000000e+00
-2.463827e-02
-4.299909e-02
-6.303517e-02
-8.534654e-02
-1.105495e-01
-1.388191e-01
-1.702045e-01
-2.046745e-01
-2.421552e-01
-2.825472e-01
-3.257363e-01
-3.715992e-01
-4.200076e-01
-4.708305e-01
-5.239362e-01
-5.791936e-01
-6.364738e-01
-6.956526e-01
-7.566127e-01
-8.192480e-01
-8.834693e-01
-9.492128e-01
-1.016453e+00
-1.085224e+00
-1.155652e+00
-1.228018e+00
-1.302869e+00
-1.381247e+00
-1.465224e+00
-1.559263e+00
-1.673896e+00
-1.832265e+00
0.000000e+00
-1.531174e-02
-3.453069e-02
-5.470193e-02
-7.732427e-02
-1.028010e-01
-1.313453e-01
-1.630054e-01
-1.977529e-01
-2.355137e-01
-2.761881e-01
-3.196607e-01
-3.658073e-01
-4.144986e-01
-4.656023e-01
-5.189853e-01
-5.745149e-01
-6.320604e-01
-6.914952e-01
-7.526989e-01
-8.155619e-01
-8.799902e-01
-9.459143e-01
-1.013302e+00
-1.082176e+00
-1.152654e+00
-1.225000e+00
-1.299745e+00
-1.377910e+00
-1.461530e+00
-1.554843e+00
-1.666924e+00
-1.814881e+00
0.000000e+00
-1.124736e-02
-2.783847e-02
-4.773455e-02
-7.039642e-02
-9.606088e-02
-1.248305e-01
-1.567319e-01
-1.917268e-01
-2.297378e-01
-2.706633e-01
-3.143872e-01
-3.607846e-01
-4.097256e-01
-4.610777e-01
-5.147072e-01
-5.704807e-01
-6.282668e-01
-6.879379e-01
-7.493729e-01
-8.124610e-01
-8.771076e-01
-9.432429e-01
-1.010835e+00
-1.079912e+00
-1.150595e+00
-1.223162e+00
-1.298155e+00
-1.376585e+00
-1.460284e+00
-1.552383e+00
-1.656579e+00
-1.772163e+00
0.000000e+00
-9.006407e-03
-2.357357e-02
-4.240869e-02
-6.477932e-02
-9.043581e-02
-1.193285e-01
-1.514086e-01
-1.866072e-01
-2.248326e-01
-2.659767e-01
-3.099206e-01
-3.565384e-01
-4.056999e-01
-4.572726e-01
-5.111233e-01
-5.671190e-01
-6.251288e-01
-6.850258e-01
-7.466899e-01
-8.100116e-01
-8.748989e-01
-9.412852e-01
-1.009144e+00
-1.078509e+00
-1.149509e+00
-1.222418e+00
-1.297736e+00
-1.376290e+00
-1.459287e+00
-1.547883e+00
-1.641324e+00
-1.728307e+00
0.000000e+00
-7.620901e-03
-2.078448e-02
-3.862669e-02
-6.048737e-02
-8.597565e-02
-1.148792e-01
-1.470636e-01
-1.824126e-01
-2.208106e-01
-2.621376e-01
-3.062690e-01
-3.530768e-01
-4.024303e-01
-4.541976e-01
-5.082463e-01
-5.644449e-01
-6.226638e-01
-6.827779e-01
-7.446692e-01
-8.082306e-01
-8.733728e-01
-9.400322e-01
-1.008184e+00
-1.077859e+00
-1.149171e+00
-1.222343e+00
-1.297734e+00
-1.375821e+00
-1.456987e+00
-1.540844e+00
-1.624314e+00
-1.700068e+00
0.000000e+00
-6.739291e-03
-1.895448e-02
-3.602409e-02
-5.739268e-02
-8.264220e-02
-1.114829e-01
-1.437085e-01
-1.791565e-01
-2.176838e-01
-2.591557e-01
-3.034402e-01
-3.504060e-01
-3.999220e-01
-4.518569e-01
-5.060796e-01
-5.624602e-01
-6.208713e-01
-6.811896e-01
-7.432989e-01
-8.070939e-01
-8.724855e-01
-9.394085e-01
-1.007830e+00
-1.077763e+00
-1.149275e+00
-1.222490e+00
-1.297568e+00
-1.374596e+00
-1.453313e+00
-1.532521e+00
-1.609389e+00
-1.679646e+00
0.000000e+00
-6.191381e-03
-1.779747e-02
-3.433234e-02
-5.531946e-02
-8.035140e-02
-1.091064e-01
-1.413361e-01
-1.768426e-01
-2.154595e-01
-2.570382e-01
-3.014396e-01
-3.485295e-01
-3.981760e-01
-4.502487e-01
-5.046180e-01
-5.611558e-01
-6.197363e-01
-6.802378e-01
-7.425446e-01
-8.065507e-01
-8.721635e-01
-9.393087e-01
-1.007936e+00
-1.078021e+00
-1.149565e+00
-1.222576e+00
-1.297010e+00
-1.372654e+00
-1.448891e+00
-1.524403e+00
-1.597012e+00
-1.664051e+00
0.000000e+00
-5.890296e-03
-1.715547e-02
-3.337901e-02
-5.413065e-02
-7.901703e-02
-1.077061e-01
-1.399286e-01
-1.754667e-01
-2.141391e-01
-2.557877e-01
-3.002688e-01
-3.474463e-01
-3.971884e-01
-4.493655e-01
-5.038495e-01
-5.605137e-01
-6.192336e-01
-6.798878e-01
-7.423595e-01
-8.065388e-01
-8.723250e-01
-9.396284e-01
-1.008372e+00
-1.078486e+00
-1.149898e+00
-1.222504e+00
-1.296106e+00
-1.370310e+00
-1.444387e+00
-1.517147e+00
-1.586953e+00
-1.651984e+00
0.000000e+00
-5.793288e-03
-1.694834e-02
-3.307002e-02
-5.374320e-02
-7.858031e-02
-1.072474e-01
-1.394694e-01
-1.750225e-01
-2.137207e-01
-2.554035e-01
-2.999260e-01
-3.471524e-01
-3.969516e-01
-4.491955e-01
-5.037571e-01
-5.605109e-01
-6.193327e-01
-6.801002e-01
-7.426934e-01
-8.069961e-01
-8.728955e-01
-9.402823e-01
-1.009048e+00
-1.079076e+00
-1.150227e+00
-1.222307e+00
-1.295021e+00
-1.367898e+00
-1.440220e+00
-1.510981e+00
-1.578930e+00
-1.642736e+00
0.000000e+00
-5.887490e-03
-1.715158e-02
-3.337566e-02
-5.412963e-02
-7.902058e-02
-1.077172e-01
-1.399511e-01
-1.755058e-01
-2.142015e-01
-2.558822e-01
-3.004063e-01
-3.476403e-01
-3.974552e-01
-4.497242e-01
-5.043217e-01
-5.611225e-01
-6.200021e-01
-6.808360e-01
-7.434998e-01
-8.078687e-01
-8.738162e-01
-9.412114e-01
-1.009914e+00
-1.079766e+00
-1.150572e+00
-1.222080e+00
-1.293940e+00
-1.365669e+00
-1.436613e+00
-1.505944e+00
-1.572693e+00
-1.635843e+00
0.000000e+00
-6.185996e-03
-1.779000e-02
-3.432588e-02
-5.531743e-02
-8.035808e-02
-1.091275e-01
-1.413789e-01
-1.769172e-01
-2.155788e-01
-2.572190e-01
-3.017028e-01
-3.489012e-01
-3.986876e-01
-4.509369e-01
-5.055243e-01
-5.623249e-01
-6.212128e-01
-6.820611e-01
-7.447397e-01
-8.091149e-01
-8.750458e-01
-9.423812e-01
-1.010953e+00
-1.080566e+00
-1.150987e+00
-1.221925e+00
-1.293013e+00
-1.363784e+00
-1.433668e+00
-1.501994e+00
-1.568015e+00
-1.630951e+00
0.000000e+00
-6.731807e-03
-1.894409e-02
-3.601506e-02
-5.738976e-02
-8.265135e-02
-1.115120e-01
-1.437680e-01
-1.792603e-01
-2.178502e-01
-2.594080e-01
-3.038079e-01
-3.509256e-01
-4.006375e-01
-4.528199e-01
-5.073485e-01
-5.640980e-01
-6.229415e-01
-6.837485e-01
-7.463840e-01
-8.107053e-01
-8.765589e-01
-9.437756e-01
-1.012164e+00
-1.081503e+00
-1.151530e+00
-1.221935e+00
-1.292348e+00
-1.362337e+00
-1.431413e+00
-1.499045e+00
-1.564678e+00
-1.627743e+00
0.000000e+00
-7.612085e-03
-2.077225e-02
-3.861606e-02
-6.048399e-02
-8.598673e-02
-1.149143e-01
-1.471354e-01
-1.825380e-01
-2.210116e-01
-2.624425e-01
-3.067136e-01
-3.537052e-01
-4.032958e-01
-4.553628e-01
-5.097822e-01
-5.664281e-01
-6.251719e-01
-6.858805e-01
-7.484140e-01
-8.126227e-01
-8.783425e-01
-9.453902e-01
-1.013557e+00
-1.082603e+00
-1.152249e+00
-1.222173e+00
-1.292013e+00
-1.361370e+00
-1.429830e+00
-1.496986e+00
-1.562462e+00
-1.625908e+00
0.000000e+00
-8.997346e-03
-2.356102e-02
-4.239787e-02
-6.477642e-02
-9.044882e-02
-1.193680e-01
-1.514888e-01
-1.867467e-01
-2.250557e-01
-2.663147e-01
-3.104130e-01
-3.572338e-01
-4.066571e-01
-4.585605e-01
-5.128199e-01
-5.693088e-01
-6.278971e-01
-6.884494e-01
-7.508223e-01
-8.148606e-01
-8.803930e-01
-9.472267e-01
-1.015142e+00
-1.083886e+00
-1.153171e+00
-1.222671e+00
-1.292031e+00
-1.360882e+00
-1.428870e+00
-1.495692e+00
-1.561140e+00
-1.625108e+00
0.000000e+00
-1.123946e-02
-2.782748e-02
-4.772542e-02
-7.039555e-02
-9.607671e-02
-1.248741e-01
-1.568182e-01
-1.918750e-01
-2.299732e-01
-2.710182e-01
-3.149022e-01
-3.615098e-01
-4.107213e-01
-4.624142e-01
-5.164639e-01
-5.727431e-01
-6.311206e-01
-6.914592e-01
-7.536131e-01
-8.174238e-01
-8.827157e-01
-9.492908e-01
-1.016924e+00
-1.085356e+00
-1.154296e+00
-1.223420e+00
-1.292380e+00
-1.360828e+00
-1.428450e+00
-1.495021e+00
-1.560475e+00
-1.624968e+00
0.000000e+00
-1.530667e-02
-3.452321e-02
-5.469655e-02
-7.732760e-02
-1.028216e-01
-1.313945e-01
-1.630980e-01
-1.979081e-01
-2.357567e-01
-2.765506e-01
-3.201826e-01
-3.665374e-01
-4.154952e-01
-4.669329e-01
-5.207255e-01
-5.767446e-01
-6.348581e-01
-6.949274e-01
-7.568051e-01
-8.203308e-01
-8.853271e-01
-9.515942e-01
-1.018905e+00
-1.087002e+00
-1.155596e+00
-1.224366e+00
-1.292976e+00
-1.361094e+00
-1.428430e+00
-1.494803e+00
-1.560234e+00
-1.625087e+00
0.000000e+00
-2.463755e-02
-4.299660e-02
-6.303565e-02
-8.535660e-02
-1.105778e-01
-1.388769e-01
-1.703065e-01
-2.048396e-01
-2.424077e-01
-2.829178e-01
-3.262629e-01
-3.723278e-01
-4.209925e-01
-4.721336e-01
-5.256252e-01
-5.813381e-01
-6.391387e-01
-6.988870e-01
-7.604341e-01
-8.236182e-01
-8.882607e-01
-9.541617e-01