TITLE = "Solution"
VARIABLES = x, y, u, v, psiu, psiv, t, stress
ZONE T="structure" N=561 E=512 F=FEBLOCK ET=QUADRILATERAL VARLOCATION=([7,8]=cellcentered)
0.000000e+00
6.250000e+00
1.250000e+01
1.875000e+01
2.500000e+01
3.125000e+01
3.750000e+01
4.375000e+01
5.000000e+01
5.625000e+01
6.250000e+01
6.875000e+01
7.500000e+01
8.125000e+01
8.750000e+01
9.375000e+01
1.000000e+02
1.062500e+02
1.125000e+02
1.187500e+02
1.250000e+02
1.312500e+02
1.375000e+02
1.437500e+02
1.500000e+02
1.562500e+02
1.625000e+02
1.687500e+02
1.750000e+02
1.812500e+02
1.875000e+02
1.937500e+02
2.000000e+02
0.000000e+00
6.250000e+00
1.250000e+01
1.875000e+01
2.500000e+01
3.125000e+01
3.750000e+01
4.375000e+01
5.000000e+01
5.625000e+01
6.250000e+01
6.875000e+01
7.500000e+01
8.125000e+01
8.750000e+01
9.375000e+01
1.000000e+02
1.062500e+02
1.125000e+02
1.187500e+02
1.250000e+02
1.312500e+02
1.375000e+02
1.437500e+02
1.500000e+02
1.562500e+02
1.625000e+02
1.687500e+02
1.750000e+02
1.812500e+02
1.875000e+02
1.937500e+02
2.000000e+02
0.000000e+00
6.250000e+00
1.250000e+01
1.875000e+01
2.500000e+01
3.125000e+01
3.750000e+01
4.375000e+01
5.000000e+01
5.625000e+01
6.250000e+01
6.875000e+01
7.500000e+01
8.125000e+01
8.750000e+01
9.375000e+01
1.000000e+02
1.062500e+02
1.125000e+02
1.187500e+02
1.250000e+02
1.312500e+02
1.375000e+02
1.437500e+02
1.500000e+02
1.562500e+02
1.625000e+02
1.687500e+02
1.750000e+02
1.812500e+02
1.875000e+02
1.937500e+02
2.000000e+02
0.000000e+00
6.250000e+00
1.250000e+01
1.875000e+01
2.500000e+01
3.125000e+01
3.750000e+01
4.375000e+01
5.000000e+01
5.625000e+01
6.250000e+01
6.875000e+01
7.500000e+01
8.125000e+01
8.750000e+01
9.375000e+01
1.000000e+02
1.062500e+02
1.125000e+02
1.187500e+02
1.250000e+02
1.312500e+02
1.375000e+02
1.437500e+02
1.500000e+02
1.562500e+02
1.625000e+02
1.687500e+02
1.750000e+02
1.812500e+02
1.875000e+02
1.937500e+02
2.000000e+02
0.000000e+00
6.250000e+00
1.250000e+01
1.875000e+01
2.500000e+01
3.125000e+01
3.750000e+01
4.375000e+01
5.000000e+01
5.625000e+01
6.250000e+01
6.875000e+01
7.500000e+01
8.125000e+01
8.750000e+01
9.375000e+01
1.000000e+02
1.062500e+02
1.125000e+02
1.187500e+02
1.250000e+02
1.312500e+02
1.375000e+02
1.437500e+02
1.500000e+02
1.562500e+02
1.625000e+02
1.687500e+02
1.750000e+02
1.812500e+02
1.875000e+02
1.937500e+02
2.000000e+02
0.000000e+00
6.250000e+00
1.250000e+01
1.875000e+01
2.500000e+01
3.125000e+01
3.750000e+01
4.375000e+01
5.000000e+01
5.625000e+01
6.250000e+01
6.875000e+01
7.500000e+01
8.125000e+01
8.750000e+01
9.375000e+01
1.000000e+02
1.062500e+02
1.125000e+02
1.187500e+02
1.250000e+02
1.312500e+02
1.375000e+02
1.437500e+02
1.500000e+02
1.562500e+02
1.625000e+02
1.687500e+02
1.750000e+02
1.812500e+02
1.875000e+02
1.937500e+02
2.000000e+02
0.000000e+00
6.250000e+00
1.250000e+01
1.875000e+01
2.500000e+01
3.125000e+01
3.750000e+01
4.375000e+01
5.000000e+01
5.625000e+01
6.250000e+01
6.875000e+01
7.500000e+01
8.125000e+01
8.750000e+01
9.375000e+01
1.000000e+02
1.062500e+02
1.125000e+02
1.187500e+02
1.250000e+02
1.312500e+02
1.375000e+02
1.437500e+02
1.500000e+02
1.562500e+02
1.625000e+02
1.687500e+02
1.750000e+02
1.812500e+02
1.875000e+02
1.937500e+02
2.000000e+02
0.000000e+00
6.250000e+00
1.250000e+01
1.875000e+01
2.500000e+01
3.125000e+01
3.750000e+01
4.375000e+01
5.000000e+01
5.625000e+01
6.250000e+01
6.875000e+01
7.500000e+01
8.125000e+01
8.750000e+01
9.375000e+01
1.000000e+02
1.062500e+02
1.125000e+02
1.187500e+02
1.250000e+02
1.312500e+02
1.375000e+02
1.437500e+02
1.500000e+02
1.562500e+02
1.625000e+02
1.687500e+02
1.750000e+02
1.812500e+02
1.875000e+02
1.937500e+02
2.000000e+02
0.000000e+00
6.250000e+00
1.250000e+01
1.875000e+01
2.500000e+01
3.125000e+01
3.750000e+01
4.375000e+01
5.000000e+01
5.625000e+01
6.250000e+01
6.875000e+01
7.500000e+01
8.125000e+01
8.750000e+01
9.375000e+01
1.000000e+02
1.062500e+02
1.125000e+02
1.187500e+02
1.250000e+02
1.312500e+02
1.375000e+02
1.437500e+02
1.500000e+02
1.562500e+02
1.625000e+02
1.687500e+02
1.750000e+02
1.812500e+02
1.875000e+02
1.937500e+02
2.000000e+02
0.000000e+00
6.250000e+00
1.250000e+01
1.875000e+01
2.500000e+01
3.125000e+01
3.750000e+01
4.375000e+01
5.000000e+01
5.625000e+01
6.250000e+01
6.875000e+01
7.500000e+01
8.125000e+01
8.750000e+01
9.375000e+01
1.000000e+02
1.062500e+02
1.125000e+02
1.187500e+02
1.250000e+02
1.312500e+02
1.375000e+02
1.437500e+02
1.500000e+02
1.562500e+02
1.625000e+02
1.687500e+02
1.750000e+02
1.812500e+02
1.875000e+02
1.937500e+02
2.000000e+02
0.000000e+00
6.250000e+00
1.250000e+01
1.875000e+01
2.500000e+01
3.125000e+01
3.750000e+01
4.375000e+01
5.000000e+01
5.625000e+01
6.250000e+01
6.875000e+01
7.500000e+01
8.125000e+01
8.750000e+01
9.375000e+01
1.000000e+02
1.062500e+02
1.125000e+02
1.187500e+02
1.250000e+02
1.312500e+02
1.375000e+02
1.437500e+02
1.500000e+02
1.562500e+02
1.625000e+02
1.687500e+02
1.750000e+02
1.812500e+02
1.875000e+02
1.937500e+02
2.000000e+02
0.000000e+00
6.250000e+00
1.250000e+01
1.875000e+01
2.500000e+01
3.125000e+01
3.750000e+01
4.375000e+01
5.000000e+01
5.625000e+01
6.250000e+01
6.875000e+01
7.500000e+01
8.125000e+01
8.750000e+01
9.375000e+01
1.000000e+02
1.062500e+02
1.125000e+02
1.187500e+02
1.250000e+02
1.312500e+02
1.375000e+02
1.437500e+02
1.500000e+02
1.562500e+02
1.625000e+02
1.687500e+02
1.750000e+02
1.812500e+02
1.875000e+02
1.937500e+02
2.000000e+02
0.000000e+00
6.250000e+00
1.250000e+01
1.875000e+01
2.500000e+01
3.125000e+01
3.750000e+01
4.375000e+01
5.000000e+01
5.625000e+01
6.250000e+01
6.875000e+01
7.500000e+01
8.125000e+01
8.750000e+01
9.375000e+01
1.000000e+02
1.062500e+02
1.125000e+02
1.187500e+02
1.250000e+02
1.312500e+02
1.375000e+02
1.437500e+02
1.500000e+02
1.562500e+02
1.625000e+02
1.687500e+02
1.750000e+02
1.812500e+02
1.875000e+02
1.937500e+02
2.000000e+02
0.000000e+00
6.250000e+00
1.250000e+01
1.875000e+01
2.500000e+01
3.125000e+01
3.750000e+01
4.375000e+01
5.000000e+01
5.625000e+01
6.250000e+01
6.875000e+01
7.500000e+01
8.125000e+01
8.750000e+01
9.375000e+01
1.000000e+02
1.062500e+02
1.125000e+02
1.187500e+02
1.250000e+02
1.312500e+02
1.375000e+02
1.437500e+02
1.500000e+02
1.562500e+02
1.625000e+02
1.687500e+02
1.750000e+02
1.812500e+02
1.875000e+02
1.937500e+02
2.000000e+02
0.000000e+00
6.250000e+00
1.250000e+01
1.875000e+01
2.500000e+01
3.125000e+01
3.750000e+01
4.375000e+01
5.000000e+01
5.625000e+01
6.250000e+01
6.875000e+01
7.500000e+01
8.125000e+01
8.750000e+01
9.375000e+01
1.000000e+02
1.062500e+02
1.125000e+02
1.187500e+02
1.250000e+02
1.312500e+02
1.375000e+02
1.437500e+02
1.500000e+02
1.562500e+02
1.625000e+02
1.687500e+02
1.750000e+02
1.812500e+02
1.875000e+02
1.937500e+02
2.000000e+02
0.000000e+00
6.250000e+00
1.250000e+01
1.875000e+01
2.500000e+01
3.125000e+01
3.750000e+01
4.375000e+01
5.000000e+01
5.625000e+01
6.250000e+01
6.875000e+01
7.500000e+01
8.125000e+01
8.750000e+01
9.375000e+01
1.000000e+02
1.062500e+02
1.125000e+02
1.187500e+02
1.250000e+02
1.312500e+02
1.375000e+02
1.437500e+02
1.500000e+02
1.562500e+02
1.625000e+02
1.687500e+02
1.750000e+02
1.812500e+02
1.875000e+02
1.937500e+02
2.000000e+02
0.000000e+00
6.250000e+00
1.250000e+01
1.875000e+01
2.500000e+01
3.125000e+01
3.750000e+01
4.375000e+01
5.000000e+01
5.625000e+01
6.250000e+01
6.875000e+01
7.500000e+01
8.125000e+01
8.750000e+01
9.375000e+01
1.000000e+02
1.062500e+02
1.125000e+02
1.187500e+02
1.250000e+02
1.312500e+02
1.375000e+02
1.437500e+02
1.500000e+02
1.562500e+02
1.625000e+02
1.687500e+02
1.750000e+02
1.812500e+02
1.875000e+02
1.937500e+02
2.000000e+02
0.000000e+00
0.000000e+00
0.000000e+00
0.000000e+00
0.000000e+00
0.000000e+00
0.000000e+00
0.000000e+00
0.000000e+00
0.000000e+00
0.000000e+00
0.000000e+00
0.000000e+00
0.000000e+00
0.000000e+00
0.000000e+00
0.000000e+00
0.000000e+00
0.000000e+00
0.000000e+00
0.000000e+00
0.000000e+00
0.000000e+00
0.000000e+00
0.000000e+00
0.000000e+00
0.000000e+00
0.000000e+00
0.000000e+00
0.000000e+00
0.000000e+00
0.000000e+00
0.000000e+00
6.250000e+00
6.250000e+00
6.250000e+00
6.250000e+00
6.250000e+00
6.250000e+00
6.250000e+00
6.250000e+00
6.250000e+00
6.250000e+00
6.250000e+00
6.250000e+00
6.250000e+00
6.250000e+00
6.250000e+00
6.250000e+00
6.250000e+00
6.250000e+00
6.250000e+00
6.250000e+00
6.250000e+00
6.250000e+00
6.250000e+00
6.250000e+00
6.250000e+00
6.250000e+00
6.250000e+00
6.250000e+00
6.250000e+00
6.250000e+00
6.250000e+00
6.250000e+00
6.250000e+00
1.250000e+01
1.250000e+01
1.250000e+01
1.250000e+01
1.250000e+01
1.250000e+01
1.250000e+01
1.250000e+01
1.250000e+01
1.250000e+01
1.250000e+01
1.250000e+01
1.250000e+01
1.250000e+01
1.250000e+01
1.250000e+01
1.250000e+01
1.250000e+01
1.250000e+01
1.250000e+01
1.250000e+01
1.250000e+01
1.250000e+01
1.250000e+01
1.250000e+01
1.250000e+01
1.250000e+01
1.250000e+01
1.250000e+01
1.250000e+01
1.250000e+01
1.250000e+01
1.250000e+01
1.875000e+01
1.875000e+01
1.875000e+01
1.875000e+01
1.875000e+01
1.875000e+01
1.875000e+01
1.875000e+01
1.875000e+01
1.875000e+01
1.875000e+01
1.875000e+01
1.875000e+01
1.875000e+01
1.875000e+01
1.875000e+01
1.875000e+01
1.875000e+01
1.875000e+01
1.875000e+01
1.875000e+01
1.875000e+01
1.875000e+01
1.875000e+01
1.875000e+01
1.875000e+01
1.875000e+01
1.875000e+01
1.875000e+01
1.875000e+01
1.875000e+01
1.875000e+01
1.875000e+01
2.500000e+01
2.500000e+01
2.500000e+01
2.500000e+01
2.500000e+01
2.500000e+01
2.500000e+01
2.500000e+01
2.500000e+01
2.500000e+01
2.500000e+01
2.500000e+01
2.500000e+01
2.500000e+01
2.500000e+01
2.500000e+01
2.500000e+01
2.500000e+01
2.500000e+01
2.500000e+01
2.500000e+01
2.500000e+01
2.500000e+01
2.500000e+01
2.500000e+01
2.500000e+01
2.500000e+01
2.500000e+01
2.500000e+01
2.500000e+01
2.500000e+01
2.500000e+01
2.500000e+01
3.125000e+01
3.125000e+01
3.125000e+01
3.125000e+01
3.125000e+01
3.125000e+01
3.125000e+01
3.125000e+01
3.125000e+01
3.125000e+01
3.125000e+01
3.125000e+01
3.125000e+01
3.125000e+01
3.125000e+01
3.125000e+01
3.125000e+01
3.125000e+01
3.125000e+01
3.125000e+01
3.125000e+01
3.125000e+01
3.125000e+01
3.125000e+01
3.125000e+01
3.125000e+01
3.125000e+01
3.125000e+01
3.125000e+01
3.125000e+01
3.125000e+01
3.125000e+01
3.125000e+01
3.750000e+01
3.750000e+01
3.750000e+01
3.750000e+01
3.750000e+01
3.750000e+01
3.750000e+01
3.750000e+01
3.750000e+01
3.750000e+01
3.750000e+01
3.750000e+01
3.750000e+01
3.750000e+01
3.750000e+01
3.750000e+01
3.750000e+01
3.750000e+01
3.750000e+01
3.750000e+01
3.750000e+01
3.750000e+01
3.750000e+01
3.750000e+01
3.750000e+01
3.750000e+01
3.750000e+01
3.750000e+01
3.750000e+01
3.750000e+01
3.750000e+01
3.750000e+01
3.750000e+01
4.375000e+01
4.375000e+01
4.375000e+01
4.375000e+01
4.375000e+01
4.375000e+01
4.375000e+01
4.375000e+01
4.375000e+01
4.375000e+01
4.375000e+01
4.375000e+01
4.375000e+01
4.375000e+01
4.375000e+01
4.375000e+01
4.375000e+01
4.375000e+01
4.375000e+01
4.375000e+01
4.375000e+01
4.375000e+01
4.375000e+01
4.375000e+01
4.375000e+01
4.375000e+01
4.375000e+01
4.375000e+01
4.375000e+01
4.375000e+01
4.375000e+01
4.375000e+01
4.375000e+01
5.000000e+01
5.000000e+01
5.000000e+01
5.000000e+01
5.000000e+01
5.000000e+01
5.000000e+01
5.000000e+01
5.000000e+01
5.000000e+01
5.000000e+01
5.000000e+01
5.000000e+01
5.000000e+01
5.000000e+01
5.000000e+01
5.000000e+01
5.000000e+01
5.000000e+01
5.000000e+01
5.000000e+01
5.000000e+01
5.000000e+01
5.000000e+01
5.000000e+01
5.000000e+01
5.000000e+01
5.000000e+01
5.000000e+01
5.000000e+01
5.000000e+01
5.000000e+01
5.000000e+01
5.625000e+01
5.625000e+01
5.625000e+01
5.625000e+01
5.625000e+01
5.625000e+01
5.625000e+01
5.625000e+01
5.625000e+01
5.625000e+01
5.625000e+01
5.625000e+01
5.625000e+01
5.625000e+01
5.625000e+01
5.625000e+01
5.625000e+01
5.625000e+01
5.625000e+01
5.625000e+01
5.625000e+01
5.625000e+01
5.625000e+01
5.625000e+01
5.625000e+01
5.625000e+01
5.625000e+01
5.625000e+01
5.625000e+01
5.625000e+01
5.625000e+01
5.625000e+01
5.625000e+01
6.250000e+01
6.250000e+01
6.250000e+01
6.250000e+01
6.250000e+01
6.250000e+01
6.250000e+01
6.250000e+01
6.250000e+01
6.250000e+01
6.250000e+01
6.250000e+01
6.250000e+01
6.250000e+01
6.250000e+01
6.250000e+01
6.250000e+01
6.250000e+01
6.250000e+01
6.250000e+01
6.250000e+01
6.250000e+01
6.250000e+01
6.250000e+01
6.250000e+01
6.250000e+01
6.250000e+01
6.250000e+01
6.250000e+01
6.250000e+01
6.250000e+01
6.250000e+01
6.250000e+01
6.875000e+01
6.875000e+01
6.875000e+01
6.875000e+01
6.875000e+01
6.875000e+01
6.875000e+01
6.875000e+01
6.875000e+01
6.875000e+01
6.875000e+01
6.875000e+01
6.875000e+01
6.875000e+01
6.875000e+01
6.875000e+01
6.875000e+01
6.875000e+01
6.875000e+01
6.875000e+01
6.875000e+01
6.875000e+01
6.875000e+01
6.875000e+01
6.875000e+01
6.875000e+01
6.875000e+01
6.875000e+01
6.875000e+01
6.875000e+01
6.875000e+01
6.875000e+01
6.875000e+01
7.500000e+01
7.500000e+01
7.500000e+01
7.500000e+01
7.500000e+01
7.500000e+01
7.500000e+01
7.500000e+01
7.500000e+01
7.500000e+01
7.500000e+01
7.500000e+01
7.500000e+01
7.500000e+01
7.500000e+01
7.500000e+01
7.500000e+01
7.500000e+01
7.500000e+01
7.500000e+01
7.500000e+01
7.500000e+01
7.500000e+01
7.500000e+01
7.500000e+01
7.500000e+01
7.500000e+01
7.500000e+01
7.500000e+01
7.500000e+01
7.500000e+01
7.500000e+01
7.500000e+01
8.125000e+01
8.125000e+01
8.125000e+01
8.125000e+01
8.125000e+01
8.125000e+01
8.125000e+01
8.125000e+01
8.125000e+01
8.125000e+01
8.125000e+01
8.125000e+01
8.125000e+01
8.125000e+01
8.125000e+01
8.125000e+01
8.125000e+01
8.125000e+01
8.125000e+01
8.125000e+01
8.125000e+01
8.125000e+01
8.125000e+01
8.125000e+01
8.125000e+01
8.125000e+01
8.125000e+01
8.125000e+01
8.125000e+01
8.125000e+01
8.125000e+01
8.125000e+01
8.125000e+01
8.750000e+01
8.750000e+01
8.750000e+01
8.750000e+01
8.750000e+01
8.750000e+01
8.750000e+01
8.750000e+01
8.750000e+01
8.750000e+01
8.750000e+01
8.750000e+01
8.750000e+01
8.750000e+01
8.750000e+01
8.750000e+01
8.750000e+01
8.750000e+01
8.750000e+01
8.750000e+01
8.750000e+01
8.750000e+01
8.750000e+01
8.750000e+01
8.750000e+01
8.750000e+01
8.750000e+01
8.750000e+01
8.750000e+01
8.750000e+01
8.750000e+01
8.750000e+01
8.750000e+01
9.375000e+01
9.375000e+01
9.375000e+01
9.375000e+01
9.375000e+01
9.375000e+01
9.375000e+01
9.375000e+01
9.375000e+01
9.375000e+01
9.375000e+01
9.375000e+01
9.375000e+01
9.375000e+01
9.375000e+01
9.375000e+01
9.375000e+01
9.375000e+01
9.375000e+01
9.375000e+01
9.375000e+01
9.375000e+01
9.375000e+01
9.375000e+01
9.375000e+01
9.375000e+01
9.375000e+01
9.375000e+01
9.375000e+01
9.375000e+01
9.375000e+01
9.375000e+01
9.375000e+01
1.000000e+02
1.000000e+02
1.000000e+02
1.000000e+02
1.000000e+02
1.000000e+02
1.000000e+02
1.000000e+02
1.000000e+02
1.000000e+02
1.000000e+02
1.000000e+02
1.000000e+02
1.000000e+02
1.000000e+02
1.000000e+02
1.000000e+02
1.000000e+02
1.000000e+02
1.000000e+02
1.000000e+02
1.000000e+02
1.000000e+02
1.000000e+02
1.000000e+02
1.000000e+02
1.000000e+02
1.000000e+02
1.000000e+02
1.000000e+02
1.000000e+02
1.000000e+02
1.000000e+02
0.000000e+00
-4.468507e-01
-7.560370e-01
-1.085858e+00
-1.392347e+00
-1.690320e+00
-1.999342e+00
-2.295308e+00
-2.595835e+00
-2.895967e+00
-3.194077e+00
-3.494638e+00
-3.793875e+00
-4.093136e+00
-4.393182e+00
-4.692403e+00
-4.992009e+00
-5.291662e+00
-5.591030e+00
-5.890724e+00
-6.190384e+00
-6.490163e+00
-6.789840e+00
-7.090715e+00
-7.392955e+00
-7.697926e+00
-8.012810e+00
-8.333713e+00
-8.664381e+00
-9.042653e+00
-9.503911e+00
-9.917603e+00
-1.012509e+01
0.000000e+00
-2.338065e-01
-4.775469e-01
-7.414882e-01
-1.008552e+00
-1.262493e+00
-1.530966e+00
-1.791390e+00
-2.053140e+00
-2.317553e+00
-2.577868e+00
-2.841288e+00
-3.103024e+00
-3.364569e+00
-3.626926e+00
-3.888119e+00
-4.149772e+00
-4.411157e+00
-4.672176e+00
-4.933220e+00
-5.194030e+00
-5.454738e+00
-5.715097e+00
-5.976039e+00
-6.236453e+00
-6.496324e+00
-6.758673e+00
-7.017437e+00
-7.273131e+00
-7.537729e+00
-7.772436e+00
-7.866331e+00
-7.971592e+00
0.000000e+00
-1.235721e-01
-2.771543e-01
-4.753517e-01
-6.882159e-01
-8.938327e-01
-1.118473e+00
-1.339444e+00
-1.562150e+00
-1.788282e+00
-2.010895e+00
-2.236432e+00
-2.460824e+00
-2.685187e+00
-2.910365e+00
-3.134785e+00
-3.359725e+00
-3.584606e+00
-3.809270e+00
-4.033941e+00
-4.258335e+00
-4.482403e+00
-4.705663e+00
-4.927869e+00
-5.147000e+00
-5.360516e+00
-5.566432e+00
-5.758740e+00
-5.932093e+00
-6.076139e+00
-6.148080e+00
-6.150263e+00
-6.242751e+00
0.000000e+00
-1.023612e-01
-1.968596e-01
-3.410900e-01
-4.727411e-01
-6.312052e-01
-8.052332e-01
-9.792676e-01
-1.161836e+00
-1.344940e+00
-1.529508e+00
-1.716203e+00
-1.903306e+00
-2.091240e+00
-2.280249e+00
-2.469494e+00
-2.659527e+00
-2.849959e+00
-3.040413e+00
-3.230806e+00
-3.420400e+00
-3.608557e+00
-3.793793e+00
-3.974311e+00
-4.147282e+00
-4.308550e+00
-4.454292e+00
-4.578728e+00
-4.673493e+00
-4.727261e+00
-4.734159e+00
-4.746010e+00
-4.827448e+00
0.000000e+00
-9.021293e-02
-1.793413e-01
-2.731806e-01
-3.821123e-01
-5.008267e-01
-6.312538e-01
-7.664854e-01
-9.085387e-01
-1.052748e+00
-1.198832e+00
-1.347256e+00
-1.495552e+00
-1.645271e+00
-1.795159e+00
-1.945204e+00
-2.095566e+00
-2.245388e+00
-2.394699e+00
-2.542618e+00
-2.688309e+00
-2.830576e+00
-2.967572e+00
-3.097228e+00
-3.216744e+00
-3.322838e+00
-3.411532e+00
-3.478015e+00
-3.517409e+00
-3.528910e+00
-3.522040e+00
-3.550428e+00
-3.626510e+00
0.000000e+00
-7.195009e-02
-1.419960e-01
-2.156778e-01
-2.962536e-01
-3.840152e-01
-4.782441e-01
-5.786027e-01
-6.824099e-01
-7.894162e-01
-8.980582e-01
-1.007617e+00
-1.118005e+00
-1.228417e+00
-1.338930e+00
-1.449166e+00
-1.558808e+00
-1.667605e+00
-1.774920e+00
-1.880071e+00
-1.981965e+00
-2.079187e+00
-2.169974e+00
-2.252208e+00
-2.323614e+00
-2.381729e+00
-2.423996e+00
-2.448014e+00
-2.453375e+00
-2.441765e+00
-2.436086e+00
-2.466729e+00
-2.537163e+00
0.000000e+00
-4.957565e-02
-9.875651e-02
-1.493804e-01
-2.034519e-01
-2.615986e-01
-3.238901e-01
-3.896708e-01
-4.582358e-01
-5.286148e-01
-6.001425e-01
-6.722218e-01
-7.444075e-01
-8.164267e-01
-8.879657e-01
-9.587938e-01
-1.028610e+00
-1.097032e+00
-1.163553e+00
-1.227423e+00
-1.287621e+00
-1.342790e+00
-1.391278e+00
-1.431259e+00
-1.460870e+00
-1.478425e+00
-1.482625e+00
-1.472458e+00
-1.448511e+00
-1.419999e+00
-1.411001e+00
-1.441837e+00
-1.511990e+00
0.000000e+00
-2.591440e-02
-5.173674e-02
-7.816809e-02
-1.059516e-01
-1.355291e-01
-1.669096e-01
-1.998693e-01
-2.339738e-01
-2.687842e-01
-3.038540e-01
-3.388209e-01
-3.733882e-01
-4.072955e-01
-4.403187e-01
-4.722174e-01
-5.027303e-01
-5.315375e-01
-5.582141e-01
-5.821719e-01
-6.025764e-01
-6.183025e-01
-6.279734e-01
-6.300989e-01
-6.232005e-01
-6.059266e-01
-5.769334e-01
-5.359229e-01
-4.895310e-01
-4.491554e-01
-4.379332e-01
-4.699733e-01
-5.407775e-01
0.000000e+00
-1.559502e-03
-3.141959e-03
-4.691531e-03
-6.147545e-03
-7.437776e-03
-8.477558e-03
-9.169429e-03
-9.407675e-03
-9.079940e-03
-8.067925e-03
-6.246277e-03
-3.479400e-03
3.823552e-04
5.507587e-03
1.208561e-02
2.032826e-02
3.047550e-02
4.281356e-02
5.771808e-02
7.572658e-02
9.760686e-02
1.243736e-01
1.571610e-01
1.971546e-01
2.459732e-01
3.045820e-01
3.691950e-01
4.292210e-01
4.701224e-01
4.777230e-01
4.434005e-01
3.737591e-01
0.000000e+00
2.285427e-02
4.557070e-02
6.896008e-02
9.389066e-02
1.209457e-01
1.503109e-01
1.819563e-01
2.156553e-01
2.511818e-01
2.883063e-01
3.268925e-01
3.668848e-01
4.082964e-01
4.512193e-01
4.957830e-01
5.421564e-01
5.905301e-01
6.411069e-01
6.941171e-01
7.498450e-01
8.086759e-01
8.711310e-01
9.380063e-01
1.010465e+00
1.088656e+00
1.169845e+00
1.247646e+00
1.310530e+00
1.346545e+00
1.347138e+00
1.312100e+00
1.253295e+00
0.000000e+00
4.668771e-02
9.292310e-02
1.406739e-01
1.920488e-01
2.478409e-01
3.083008e-01
3.729925e-01
4.414108e-01
5.127791e-01
5.866136e-01
6.624719e-01
7.400651e-01
8.192866e-01
9.000399e-01
9.823724e-01
1.066371e+00
1.152204e+00
1.240128e+00
1.330460e+00
1.423535e+00
1.519489e+00
1.618252e+00
1.719517e+00
1.822259e+00
1.924263e+00
2.020602e+00
2.103045e+00
2.163252e+00
2.194006e+00
2.193017e+00
2.165043e+00
2.121746e+00
0.000000e+00
6.932539e-02
1.366799e-01
2.076933e-01
2.858213e-01
3.713971e-01
4.640648e-01
5.636760e-01
6.677669e-01
7.763307e-01
8.879551e-01
1.002058e+00
1.118612e+00
1.236868e+00
1.356906e+00
1.478405e+00
1.601149e+00
1.725213e+00
1.850652e+00
1.977958e+00
2.107714e+00
2.239890e+00
2.373225e+00
2.505144e+00
2.632747e+00
2.752459e+00
2.858661e+00
2.944697e+00
3.004979e+00
3.037272e+00
3.042308e+00
3.025131e+00
2.997126e+00
0.000000e+00
8.798593e-02
1.746309e-01
2.661713e-01
3.725508e-01
4.893501e-01
6.183599e-01
7.530163e-01
8.956944e-01
1.041895e+00
1.191642e+00
1.345511e+00
1.501274e+00
1.660390e+00
1.821641e+00
1.984736e+00
2.149605e+00
2.315286e+00
2.481626e+00
2.648337e+00
2.814929e+00
2.980106e+00
3.142252e+00
3.299143e+00
3.447410e+00
3.582744e+00
3.699839e+00
3.793579e+00
3.860994e+00
3.900946e+00
3.914912e+00
3.908596e+00
3.893694e+00
0.000000e+00
1.006496e-01
1.937488e-01
3.353593e-01
4.648931e-01
6.210840e-01
7.935136e-01
9.666324e-01
1.149154e+00
1.333534e+00
1.520859e+00
1.712114e+00
1.905828e+00
2.102699e+00
2.302885e+00
2.505309e+00
2.710229e+00
2.916786e+00
3.123887e+00
3.330810e+00
3.535103e+00
3.734257e+00
3.926938e+00
4.111420e+00
4.283909e+00
4.438859e+00
4.570870e+00
4.676010e+00
4.752583e+00
4.800927e+00
4.823603e+00
4.826595e+00
4.821602e+00
0.000000e+00
1.235803e-01
2.769513e-01
4.740812e-01
6.849244e-01
8.887521e-01
1.111626e+00
1.331135e+00
1.552865e+00
1.778653e+00
2.001636e+00
2.228571e+00
2.455477e+00
2.683722e+00
2.914233e+00
3.145074e+00
3.377544e+00
3.610633e+00
3.843676e+00
4.076654e+00
4.307103e+00
4.533348e+00
4.755683e+00
4.971524e+00
5.172628e+00
5.349627e+00
5.496395e+00
5.610862e+00
5.693657e+00
5.747163e+00
5.775399e+00
5.784665e+00
5.785716e+00
0.000000e+00
2.339247e-01
4.778343e-01
7.417480e-01
1.008609e+00
1.262428e+00
1.530588e+00
1.790635e+00
2.052075e+00
2.315970e+00
2.575662e+00
2.838410e+00
3.099222e+00
3.359646e+00
3.620688e+00
3.880053e+00
4.139518e+00
4.398088e+00
4.655206e+00
4.911755e+00
5.166294e+00
5.418923e+00
5.671327e+00
5.918264e+00
6.145422e+00
6.339928e+00
6.496123e+00
6.613551e+00
6.694891e+00
6.745103e+00
6.770940e+00
6.780371e+00
6.782667e+00
0.000000e+00
4.465853e-01
7.563605e-01
1.086986e+00
1.395092e+00
1.694846e+00
2.005419e+00
2.302753e+00
2.604447e+00
2.905034e+00
3.202939e+00
3.502527e+00
3.799416e+00
4.095016e+00
4.389776e+00
4.681961e+00
4.973049e+00
5.262552e+00
5.550007e+00
5.836992e+00
6.123098e+00
6.409594e+00
6.696845e+00
6.974988e+00
7.224485e+00
7.431153e+00
7.589717e+00
7.700341e+00
7.767037e+00
7.797522e+00
7.803336e+00
7.798921e+00
7.796373e+00
0.000000e+00
-2.674282e-01
-5.505844e-01
-9.077853e-01
-1.301639e+00
-1.736126e+00
-2.212952e+00
-2.723761e+00
-3.273405e+00
-3.859203e+00
-4.481664e+00
-5.142351e+00
-5.839834e+00
-6.575449e+00
-7.348859e+00
-8.160027e+00
-9.009475e+00
-9.896940e+00
-1.082273e+01
-1.178711e+01
-1.279024e+01
-1.383241e+01
-1.491405e+01
-1.603566e+01
-1.719794e+01
-1.840376e+01
-1.965725e+01
-2.096399e+01
-2.233651e+01
-2.379147e+01
-2.534687e+01
-2.716516e+01
-2.972302e+01
0.000000e+00
-1.701450e-01
-4.705054e-01
-8.205677e-01
-1.219115e+00
-1.651663e+00
-2.128451e+00
-2.640474e+00
-3.189017e+00
-3.775415e+00
-4.397699e+00
-5.058254e+00
-5.756016e+00
-6.491462e+00
-7.264965e+00
-8.076200e+00
-8.925608e+00
-9.813155e+00
-1.073896e+01
-1.170333e+01
-1.270646e+01
-1.374868e+01
-1.483020e+01
-1.595169e+01
-1.711394e+01
-1.831874e+01
-1.957130e+01
-2.087795e+01
-2.224730e+01
-2.369730e+01
-2.527361e+01
-2.707481e+01
-2.934683e+01
0.000000e+00
-1.434095e-01
-4.126026e-01
-7.611230e-01
-1.152652e+00
-1.583173e+00
-2.058446e+00
-2.569486e+00
-3.117604e+00
-3.703743e+00
-4.325961e+00
-4.986382e+00
-5.684281e+00
-6.419627e+00
-7.193251e+00
-8.004516e+00
-8.853956e+00
-9.741629e+00
-1.066751e+01
-1.163200e+01
-1.263525e+01
-1.367767e+01
-1.475942e+01
-1.588153e+01
-1.704499e+01
-1.825136e+01
-1.950653e+01
-2.081661e+01
-2.219132e+01
-2.366245e+01
-2.527390e+01
-2.696956e+01
-2.873591e+01
0.000000e+00
-1.704214e-01
-4.044879e-01
-7.431963e-01
-1.113544e+00
-1.537340e+00
-2.008498e+00
-2.514450e+00
-3.061949e+00
-3.646435e+00
-4.267946e+00
-4.928261e+00
-5.625654e+00
-6.361043e+00
-7.134615e+00
-7.945830e+00
-8.795429e+00
-9.683207e+00
-1.060940e+01
-1.157430e+01
-1.257815e+01
-1.362149e+01
-1.470460e+01
-1.582875e+01
-1.699528e+01
-1.820611e+01
-1.946653e+01
-2.078284e+01
-2.216765e+01
-2.365396e+01
-2.525782e+01
-2.681637e+01
-2.823218e+01
0.000000e+00
-1.893599e-01
-4.301405e-01
-7.431592e-01
-1.106535e+00
-1.517109e+00
-1.979682e+00
-2.479720e+00
-3.023465e+00
-3.605674e+00
-4.225587e+00
-4.885400e+00
-5.582094e+00
-6.317545e+00
-7.091053e+00
-7.902397e+00
-8.752362e+00
-9.640493e+00
-1.056743e+01
-1.153332e+01
-1.253858e+01
-1.358386e+01
-1.466961e+01
-1.579701e+01
-1.696747e+01
-1.818333e+01
-1.944884e+01
-2.076980e+01
-2.215647e+01
-2.363056e+01
-2.517227e+01
-2.661263e+01
-2.787031e+01
0.000000e+00
-1.974465e-01
-4.447054e-01
-7.478626e-01
-1.103272e+00
-1.508051e+00
-1.960854e+00
-2.457537e+00
-2.996560e+00
-3.576480e+00
-4.195654e+00
-4.854160e+00
-5.551192e+00
-6.286607e+00
-7.060453e+00
-7.872507e+00
-8.723055e+00
-9.612238e+00
-1.054039e+01
-1.150799e+01
-1.251553e+01
-1.356364e+01
-1.465289e+01
-1.578407e+01
-1.695831e+01
-1.817760e+01
-1.944533e+01
-2.076501e+01
-2.213861e+01
-2.357590e+01
-2.502587e+01
-2.638436e+01
-2.756218e+01
0.000000e+00
-2.013872e-01
-4.508392e-01
-7.510770e-01
-1.102043e+00
-1.502322e+00
-1.950094e+00
-2.443144e+00
-2.979522e+00
-3.557584e+00
-4.176132e+00
-4.834320e+00
-5.531590e+00
-6.267583e+00
-7.042109e+00
-7.855131e+00
-8.706746e+00
-9.597219e+00
-1.052697e+01
-1.149658e+01
-1.250671e+01
-1.355795e+01
-1.465078e+01
-1.578552e+01
-1.696252e+01
-1.818269e+01
-1.944810e+01
-2.075916e+01
-2.210721e+01
-2.349394e+01
-2.486641e+01
-2.615331e+01
-2.727057e+01
0.000000e+00
-2.029546e-01
-4.532961e-01
-7.526887e-01
-1.101621e+00
-1.499445e+00
-1.944773e+00
-2.435839e+00
-2.970852e+00
-3.548217e+00
-4.166639e+00
-4.825161e+00
-5.523092e+00
-6.259983e+00
-7.035578e+00
-7.849788e+00
-8.702697e+00
-9.594578e+00
-1.052592e+01
-1.149743e+01
-1.250989e+01
-1.356396e+01
-1.465986e+01
-1.579725e+01
-1.697539e+01
-1.819354e+01
-1.945153e+01
-2.074640e+01
-2.206271e+01
-2.339759e+01
-2.470498e+01
-2.592456e+01
-2.698334e+01
0.000000e+00
-2.033134e-01
-4.539253e-01
-7.532087e-01
-1.101721e+00
-1.499030e+00
-1.943930e+00
-2.434795e+00
-2.969908e+00
-3.547685e+00
-4.166816e+00
-4.826279e+00
-5.525338e+00
-6.263487e+00
-7.040421e+00
-7.856009e+00
-8.710288e+00
-9.603506e+00
-1.053617e+01
-1.150909e+01
-1.252319e+01
-1.357923e+01
-1.467715e+01
-1.581571e+01
-1.699272e+01
-1.820536e+01
-1.945103e+01
-2.072444e+01
-2.200996e+01
-2.329366e+01
-2.454208e+01
-2.569548e+01
-2.669396e+01
0.000000e+00
-2.027988e-01
-4.531990e-01
-7.528684e-01
-1.102310e+00
-1.500903e+00
-1.947287e+00
-2.439716e+00
-2.976403e+00
-3.555745e+00
-4.176424e+00
-4.837442e+00
-5.538059e+00
-6.277767e+00
-7.056243e+00
-7.873306e+00
-8.728931e+00
-9.623289e+00
-1.055684e+01
-1.153044e+01
-1.254517e+01
-1.360189e+01
-1.470024e+01
-1.583764e+01
-1.701013e+01
-1.821411e+01
-1.944530e+01
-2.069639e+01
-2.195161e+01
-2.319107e+01
-2.438467e+01
-2.548366e+01
-2.644234e+01
0.000000e+00
-2.010694e-01
-4.506352e-01
-7.514162e-01
-1.103378e+00
-1.505176e+00
-1.955053e+00
-2.450821e+00
-2.990532e+00
-3.572519e+00
-4.195525e+00
-4.858617e+00
-5.561129e+00
-6.302592e+00
-7.082682e+00
-7.901185e+00
-8.757989e+00
-9.653168e+00
-1.058708e+01
-1.156055e+01
-1.257477e+01
-1.363047e+01
-1.472668e+01
-1.585976e+01
-1.702526e+01
-1.821950e+01
-1.943687e+01
-2.066677e+01
-2.189362e+01
-2.309564e+01
-2.424621e+01
-2.531040e+01
-2.625331e+01
0.000000e+00
-1.969462e-01
-4.443524e-01
-7.483175e-01
-1.105138e+00
-1.512137e+00
-1.968109e+00
-2.468846e+00
-3.012853e+00
-3.598621e+00
-4.224390e+00
-4.890087e+00
-5.594726e+00
-6.337976e+00
-7.119688e+00
-7.939352e+00
-8.796946e+00
-9.692394e+00
-1.062590e+01
-1.159837e+01
-1.261077e+01
-1.366316e+01
-1.475429e+01
-1.588106e+01
-1.703946e+01
-1.822507e+01
-1.943008e+01
-2.064172e+01
-2.184337e+01
-2.301578e+01
-2.413684e+01
-2.518211e+01
-2.612610e+01
0.000000e+00
-1.886140e-01
-4.295385e-01
-7.436525e-01
-1.108609e+00
-1.522129e+00
-1.988917e+00
-2.494284e+00
-3.044680e+00
-3.634636e+00
-4.263239e+00
-4.932429e+00
-5.638967e+00
-6.384318e+00
-7.167598e+00
-7.988033e+00
-8.846006e+00
-9.740912e+00
-1.067304e+01
-1.164334e+01
-1.265226e+01
-1.369914e+01
-1.478359e+01
-1.590421e+01
-1.705727e+01
-1.823642e+01
-1.943123e+01
-2.062702e+01
-2.180789e+01
-2.295736e+01
-2.405871e+01
-2.509562e+01
-2.605232e+01
0.000000e+00
-1.693374e-01
-4.038605e-01
-7.431885e-01
-1.115574e+00
-1.542685e+00
-2.018932e+00
-2.531362e+00
-3.086938e+00
-3.680867e+00
-4.312900e+00
-4.984607e+00
-5.693775e+00
-6.440913e+00
-7.225740e+00
-8.046954e+00
-8.904884e+00
-9.798969e+00
-1.072905e+01
-1.169624e+01
-1.270032e+01
-1.374079e+01
-1.481893e+01
-1.593515e+01
-1.708511e+01
-1.825930e+01
-1.944467e+01
-2.062629e+01
-2.178979e+01
-2.292146e+01
-2.400911e+01
-2.504365e+01
-2.601974e+01
0.000000e+00
-1.428217e-01
-4.120687e-01
-7.610247e-01
-1.154271e+00
-1.588294e+00
-2.068909e+00
-2.586960e+00
-3.143813e+00
-3.740247e+00
-4.373910e+00
-5.046810e+00
-5.757623e+00
-6.505789e+00
-7.291563e+00
-8.113349e+00
-8.971280e+00
-9.864840e+00
-1.079348e+01
-1.175795e+01
-1.275782e+01
-1.379331e+01
-1.486728e+01
-1.598085e+01
-1.712768e+01
-1.829556e+01
-1.947057e+01
-2.063909e+01
-2.178813e+01
-2.290584e+01
-2.398333e+01
-2.501744e+01
-2.601363e+01
0.000000e+00
-1.697655e-01
-4.698671e-01
-8.202737e-01
-1.220424e+00
-1.656526e+00
-2.138690e+00
-2.657889e+00
-3.215388e+00
-3.812311e+00
-4.446357e+00
-5.119734e+00
-5.830784e+00
-6.579400e+00
-7.365275e+00
-8.187126e+00
-9.044918e+00
-9.937957e+00
-1.086580e+01
-1.182865e+01
-1.282625e+01
-1.385974e+01
-1.493215e+01
-1.604301e+01
-1.718399e+01
-1.834249e+01
-1.950591e+01
-2.066201e+01
-2.179876e+01
-2.290544e+01
-2.397499e+01
-2.500795e+01
-2.601807e+01
0.000000e+00
-2.671070e-01
-5.500648e-01
-9.076309e-01
-1.303202e+00
-1.741209e+00
-2.223359e+00
-2.741353e+00
-3.299908e+00
-3.896121e+00
-4.530291e+00
-5.203657e+00
-5.914239e+00
-6.662820e+00
-7.448289e+00
-8.269763e+00
-9.127230e+00
-1.001969e+01
-1.094702e+01
-1.190924e+01
-1.290614e+01
-1.393960e+01
-1.501140e+01