TITLE = "Solution"
VARIABLES = x, y, u, v, psiu, psiv, t, stress
ZONE T="structure" N=561 E=512 F=FEBLOCK ET=QUADRILATERAL VARLOCATION=([7,8]=cellcentered)
0.000000e+00
6.250000e+00
1.250000e+01
1.875000e+01
2.500000e+01
3.125000e+01
3.750000e+01
4.375000e+01
5.000000e+01
5.625000e+01
6.250000e+01
6.875000e+01
7.500000e+01
8.125000e+01
8.750000e+01
9.375000e+01
1.000000e+02
1.062500e+02
1.125000e+02
1.187500e+02
1.250000e+02
1.312500e+02
1.375000e+02
1.437500e+02
1.500000e+02
1.562500e+02
1.625000e+02
1.687500e+02
1.750000e+02
1.812500e+02
1.875000e+02
1.937500e+02
2.000000e+02
0.000000e+00
6.250000e+00
1.250000e+01
1.875000e+01
2.500000e+01
3.125000e+01
3.750000e+01
4.375000e+01
5.000000e+01
5.625000e+01
6.250000e+01
6.875000e+01
7.500000e+01
8.125000e+01
8.750000e+01
9.375000e+01
1.000000e+02
1.062500e+02
1.125000e+02
1.187500e+02
1.250000e+02
1.312500e+02
1.375000e+02
1.437500e+02
1.500000e+02
1.562500e+02
1.625000e+02
1.687500e+02
1.750000e+02
1.812500e+02
1.875000e+02
1.937500e+02
2.000000e+02
0.000000e+00
6.250000e+00
1.250000e+01
1.875000e+01
2.500000e+01
3.125000e+01
3.750000e+01
4.375000e+01
5.000000e+01
5.625000e+01
6.250000e+01
6.875000e+01
7.500000e+01
8.125000e+01
8.750000e+01
9.375000e+01
1.000000e+02
1.062500e+02
1.125000e+02
1.187500e+02
1.250000e+02
1.312500e+02
1.375000e+02
1.437500e+02
1.500000e+02
1.562500e+02
1.625000e+02
1.687500e+02
1.750000e+02
1.812500e+02
1.875000e+02
1.937500e+02
2.000000e+02
0.000000e+00
6.250000e+00
1.250000e+01
1.875000e+01
2.500000e+01
3.125000e+01
3.750000e+01
4.375000e+01
5.000000e+01
5.625000e+01
6.250000e+01
6.875000e+01
7.500000e+01
8.125000e+01
8.750000e+01
9.375000e+01
1.000000e+02
1.062500e+02
1.125000e+02
1.187500e+02
1.250000e+02
1.312500e+02
1.375000e+02
1.437500e+02
1.500000e+02
1.562500e+02
1.625000e+02
1.687500e+02
1.750000e+02
1.812500e+02
1.875000e+02
1.937500e+02
2.000000e+02
0.000000e+00
6.250000e+00
1.250000e+01
1.875000e+01
2.500000e+01
3.125000e+01
3.750000e+01
4.375000e+01
5.000000e+01
5.625000e+01
6.250000e+01
6.875000e+01
7.500000e+01
8.125000e+01
8.750000e+01
9.375000e+01
1.000000e+02
1.062500e+02
1.125000e+02
1.187500e+02
1.250000e+02
1.312500e+02
1.375000e+02
1.437500e+02
1.500000e+02
1.562500e+02
1.625000e+02
1.687500e+02
1.750000e+02
1.812500e+02
1.875000e+02
1.937500e+02
2.000000e+02
0.000000e+00
6.250000e+00
1.250000e+01
1.875000e+01
2.500000e+01
3.125000e+01
3.750000e+01
4.375000e+01
5.000000e+01
5.625000e+01
6.250000e+01
6.875000e+01
7.500000e+01
8.125000e+01
8.750000e+01
9.375000e+01
1.000000e+02
1.062500e+02
1.125000e+02
1.187500e+02
1.250000e+02
1.312500e+02
1.375000e+02
1.437500e+02
1.500000e+02
1.562500e+02
1.625000e+02
1.687500e+02
1.750000e+02
1.812500e+02
1.875000e+02
1.937500e+02
2.000000e+02
0.000000e+00
6.250000e+00
1.250000e+01
1.875000e+01
2.500000e+01
3.125000e+01
3.750000e+01
4.375000e+01
5.000000e+01
5.625000e+01
6.250000e+01
6.875000e+01
7.500000e+01
8.125000e+01
8.750000e+01
9.375000e+01
1.000000e+02
1.062500e+02
1.125000e+02
1.187500e+02
1.250000e+02
1.312500e+02
1.375000e+02
1.437500e+02
1.500000e+02
1.562500e+02
1.625000e+02
1.687500e+02
1.750000e+02
1.812500e+02
1.875000e+02
1.937500e+02
2.000000e+02
0.000000e+00
6.250000e+00
1.250000e+01
1.875000e+01
2.500000e+01
3.125000e+01
3.750000e+01
4.375000e+01
5.000000e+01
5.625000e+01
6.250000e+01
6.875000e+01
7.500000e+01
8.125000e+01
8.750000e+01
9.375000e+01
1.000000e+02
1.062500e+02
1.125000e+02
1.187500e+02
1.250000e+02
1.312500e+02
1.375000e+02
1.437500e+02
1.500000e+02
1.562500e+02
1.625000e+02
1.687500e+02
1.750000e+02
1.812500e+02
1.875000e+02
1.937500e+02
2.000000e+02
0.000000e+00
6.250000e+00
1.250000e+01
1.875000e+01
2.500000e+01
3.125000e+01
3.750000e+01
4.375000e+01
5.000000e+01
5.625000e+01
6.250000e+01
6.875000e+01
7.500000e+01
8.125000e+01
8.750000e+01
9.375000e+01
1.000000e+02
1.062500e+02
1.125000e+02
1.187500e+02
1.250000e+02
1.312500e+02
1.375000e+02
1.437500e+02
1.500000e+02
1.562500e+02
1.625000e+02
1.687500e+02
1.750000e+02
1.812500e+02
1.875000e+02
1.937500e+02
2.000000e+02
0.000000e+00
6.250000e+00
1.250000e+01
1.875000e+01
2.500000e+01
3.125000e+01
3.750000e+01
4.375000e+01
5.000000e+01
5.625000e+01
6.250000e+01
6.875000e+01
7.500000e+01
8.125000e+01
8.750000e+01
9.375000e+01
1.000000e+02
1.062500e+02
1.125000e+02
1.187500e+02
1.250000e+02
1.312500e+02
1.375000e+02
1.437500e+02
1.500000e+02
1.562500e+02
1.625000e+02
1.687500e+02
1.750000e+02
1.812500e+02
1.875000e+02
1.937500e+02
2.000000e+02
0.000000e+00
6.250000e+00
1.250000e+01
1.875000e+01
2.500000e+01
3.125000e+01
3.750000e+01
4.375000e+01
5.000000e+01
5.625000e+01
6.250000e+01
6.875000e+01
7.500000e+01
8.125000e+01
8.750000e+01
9.375000e+01
1.000000e+02
1.062500e+02
1.125000e+02
1.187500e+02
1.250000e+02
1.312500e+02
1.375000e+02
1.437500e+02
1.500000e+02
1.562500e+02
1.625000e+02
1.687500e+02
1.750000e+02
1.812500e+02
1.875000e+02
1.937500e+02
2.000000e+02
0.000000e+00
6.250000e+00
1.250000e+01
1.875000e+01
2.500000e+01
3.125000e+01
3.750000e+01
4.375000e+01
5.000000e+01
5.625000e+01
6.250000e+01
6.875000e+01
7.500000e+01
8.125000e+01
8.750000e+01
9.375000e+01
1.000000e+02
1.062500e+02
1.125000e+02
1.187500e+02
1.250000e+02
1.312500e+02
1.375000e+02
1.437500e+02
1.500000e+02
1.562500e+02
1.625000e+02
1.687500e+02
1.750000e+02
1.812500e+02
1.875000e+02
1.937500e+02
2.000000e+02
0.000000e+00
6.250000e+00
1.250000e+01
1.875000e+01
2.500000e+01
3.125000e+01
3.750000e+01
4.375000e+01
5.000000e+01
5.625000e+01
6.250000e+01
6.875000e+01
7.500000e+01
8.125000e+01
8.750000e+01
9.375000e+01
1.000000e+02
1.062500e+02
1.125000e+02
1.187500e+02
1.250000e+02
1.312500e+02
1.375000e+02
1.437500e+02
1.500000e+02
1.562500e+02
1.625000e+02
1.687500e+02
1.750000e+02
1.812500e+02
1.875000e+02
1.937500e+02
2.000000e+02
0.000000e+00
6.250000e+00
1.250000e+01
1.875000e+01
2.500000e+01
3.125000e+01
3.750000e+01
4.375000e+01
5.000000e+01
5.625000e+01
6.250000e+01
6.875000e+01
7.500000e+01
8.125000e+01
8.750000e+01
9.375000e+01
1.000000e+02
1.062500e+02
1.125000e+02
1.187500e+02
1.250000e+02
1.312500e+02
1.375000e+02
1.437500e+02
1.500000e+02
1.562500e+02
1.625000e+02
1.687500e+02
1.750000e+02
1.812500e+02
1.875000e+02
1.937500e+02
2.000000e+02
0.000000e+00
6.250000e+00
1.250000e+01
1.875000e+01
2.500000e+01
3.125000e+01
3.750000e+01
4.375000e+01
5.000000e+01
5.625000e+01
6.250000e+01
6.875000e+01
7.500000e+01
8.125000e+01
8.750000e+01
9.375000e+01
1.000000e+02
1.062500e+02
1.125000e+02
1.187500e+02
1.250000e+02
1.312500e+02
1.375000e+02
1.437500e+02
1.500000e+02
1.562500e+02
1.625000e+02
1.687500e+02
1.750000e+02
1.812500e+02
1.875000e+02
1.937500e+02
2.000000e+02
0.000000e+00
6.250000e+00
1.250000e+01
1.875000e+01
2.500000e+01
3.125000e+01
3.750000e+01
4.375000e+01
5.000000e+01
5.625000e+01
6.250000e+01
6.875000e+01
7.500000e+01
8.125000e+01
8.750000e+01
9.375000e+01
1.000000e+02
1.062500e+02
1.125000e+02
1.187500e+02
1.250000e+02
1.312500e+02
1.375000e+02
1.437500e+02
1.500000e+02
1.562500e+02
1.625000e+02
1.687500e+02
1.750000e+02
1.812500e+02
1.875000e+02
1.937500e+02
2.000000e+02
0.000000e+00
6.250000e+00
1.250000e+01
1.875000e+01
2.500000e+01
3.125000e+01
3.750000e+01
4.375000e+01
5.000000e+01
5.625000e+01
6.250000e+01
6.875000e+01
7.500000e+01
8.125000e+01
8.750000e+01
9.375000e+01
1.000000e+02
1.062500e+02
1.125000e+02
1.187500e+02
1.250000e+02
1.312500e+02
1.375000e+02
1.437500e+02
1.500000e+02
1.562500e+02
1.625000e+02
1.687500e+02
1.750000e+02
1.812500e+02
1.875000e+02
1.937500e+02
2.000000e+02
0.000000e+00
0.000000e+00
0.000000e+00
0.000000e+00
0.000000e+00
0.000000e+00
0.000000e+00
0.000000e+00
0.000000e+00
0.000000e+00
0.000000e+00
0.000000e+00
0.000000e+00
0.000000e+00
0.000000e+00
0.000000e+00
0.000000e+00
0.000000e+00
0.000000e+00
0.000000e+00
0.000000e+00
0.000000e+00
0.000000e+00
0.000000e+00
0.000000e+00
0.000000e+00
0.000000e+00
0.000000e+00
0.000000e+00
0.000000e+00
0.000000e+00
0.000000e+00
0.000000e+00
6.250000e+00
6.250000e+00
6.250000e+00
6.250000e+00
6.250000e+00
6.250000e+00
6.250000e+00
6.250000e+00
6.250000e+00
6.250000e+00
6.250000e+00
6.250000e+00
6.250000e+00
6.250000e+00
6.250000e+00
6.250000e+00
6.250000e+00
6.250000e+00
6.250000e+00
6.250000e+00
6.250000e+00
6.250000e+00
6.250000e+00
6.250000e+00
6.250000e+00
6.250000e+00
6.250000e+00
6.250000e+00
6.250000e+00
6.250000e+00
6.250000e+00
6.250000e+00
6.250000e+00
1.250000e+01
1.250000e+01
1.250000e+01
1.250000e+01
1.250000e+01
1.250000e+01
1.250000e+01
1.250000e+01
1.250000e+01
1.250000e+01
1.250000e+01
1.250000e+01
1.250000e+01
1.250000e+01
1.250000e+01
1.250000e+01
1.250000e+01
1.250000e+01
1.250000e+01
1.250000e+01
1.250000e+01
1.250000e+01
1.250000e+01
1.250000e+01
1.250000e+01
1.250000e+01
1.250000e+01
1.250000e+01
1.250000e+01
1.250000e+01
1.250000e+01
1.250000e+01
1.250000e+01
1.875000e+01
1.875000e+01
1.875000e+01
1.875000e+01
1.875000e+01
1.875000e+01
1.875000e+01
1.875000e+01
1.875000e+01
1.875000e+01
1.875000e+01
1.875000e+01
1.875000e+01
1.875000e+01
1.875000e+01
1.875000e+01
1.875000e+01
1.875000e+01
1.875000e+01
1.875000e+01
1.875000e+01
1.875000e+01
1.875000e+01
1.875000e+01
1.875000e+01
1.875000e+01
1.875000e+01
1.875000e+01
1.875000e+01
1.875000e+01
1.875000e+01
1.875000e+01
1.875000e+01
2.500000e+01
2.500000e+01
2.500000e+01
2.500000e+01
2.500000e+01
2.500000e+01
2.500000e+01
2.500000e+01
2.500000e+01
2.500000e+01
2.500000e+01
2.500000e+01
2.500000e+01
2.500000e+01
2.500000e+01
2.500000e+01
2.500000e+01
2.500000e+01
2.500000e+01
2.500000e+01
2.500000e+01
2.500000e+01
2.500000e+01
2.500000e+01
2.500000e+01
2.500000e+01
2.500000e+01
2.500000e+01
2.500000e+01
2.500000e+01
2.500000e+01
2.500000e+01
2.500000e+01
3.125000e+01
3.125000e+01
3.125000e+01
3.125000e+01
3.125000e+01
3.125000e+01
3.125000e+01
3.125000e+01
3.125000e+01
3.125000e+01
3.125000e+01
3.125000e+01
3.125000e+01
3.125000e+01
3.125000e+01
3.125000e+01
3.125000e+01
3.125000e+01
3.125000e+01
3.125000e+01
3.125000e+01
3.125000e+01
3.125000e+01
3.125000e+01
3.125000e+01
3.125000e+01
3.125000e+01
3.125000e+01
3.125000e+01
3.125000e+01
3.125000e+01
3.125000e+01
3.125000e+01
3.750000e+01
3.750000e+01
3.750000e+01
3.750000e+01
3.750000e+01
3.750000e+01
3.750000e+01
3.750000e+01
3.750000e+01
3.750000e+01
3.750000e+01
3.750000e+01
3.750000e+01
3.750000e+01
3.750000e+01
3.750000e+01
3.750000e+01
3.750000e+01
3.750000e+01
3.750000e+01
3.750000e+01
3.750000e+01
3.750000e+01
3.750000e+01
3.750000e+01
3.750000e+01
3.750000e+01
3.750000e+01
3.750000e+01
3.750000e+01
3.750000e+01
3.750000e+01
3.750000e+01
4.375000e+01
4.375000e+01
4.375000e+01
4.375000e+01
4.375000e+01
4.375000e+01
4.375000e+01
4.375000e+01
4.375000e+01
4.375000e+01
4.375000e+01
4.375000e+01
4.375000e+01
4.375000e+01
4.375000e+01
4.375000e+01
4.375000e+01
4.375000e+01
4.375000e+01
4.375000e+01
4.375000e+01
4.375000e+01
4.375000e+01
4.375000e+01
4.375000e+01
4.375000e+01
4.375000e+01
4.375000e+01
4.375000e+01
4.375000e+01
4.375000e+01
4.375000e+01
4.375000e+01
5.000000e+01
5.000000e+01
5.000000e+01
5.000000e+01
5.000000e+01
5.000000e+01
5.000000e+01
5.000000e+01
5.000000e+01
5.000000e+01
5.000000e+01
5.000000e+01
5.000000e+01
5.000000e+01
5.000000e+01
5.000000e+01
5.000000e+01
5.000000e+01
5.000000e+01
5.000000e+01
5.000000e+01
5.000000e+01
5.000000e+01
5.000000e+01
5.000000e+01
5.000000e+01
5.000000e+01
5.000000e+01
5.000000e+01
5.000000e+01
5.000000e+01
5.000000e+01
5.000000e+01
5.625000e+01
5.625000e+01
5.625000e+01
5.625000e+01
5.625000e+01
5.625000e+01
5.625000e+01
5.625000e+01
5.625000e+01
5.625000e+01
5.625000e+01
5.625000e+01
5.625000e+01
5.625000e+01
5.625000e+01
5.625000e+01
5.625000e+01
5.625000e+01
5.625000e+01
5.625000e+01
5.625000e+01
5.625000e+01
5.625000e+01
5.625000e+01
5.625000e+01
5.625000e+01
5.625000e+01
5.625000e+01
5.625000e+01
5.625000e+01
5.625000e+01
5.625000e+01
5.625000e+01
6.250000e+01
6.250000e+01
6.250000e+01
6.250000e+01
6.250000e+01
6.250000e+01
6.250000e+01
6.250000e+01
6.250000e+01
6.250000e+01
6.250000e+01
6.250000e+01
6.250000e+01
6.250000e+01
6.250000e+01
6.250000e+01
6.250000e+01
6.250000e+01
6.250000e+01
6.250000e+01
6.250000e+01
6.250000e+01
6.250000e+01
6.250000e+01
6.250000e+01
6.250000e+01
6.250000e+01
6.250000e+01
6.250000e+01
6.250000e+01
6.250000e+01
6.250000e+01
6.250000e+01
6.875000e+01
6.875000e+01
6.875000e+01
6.875000e+01
6.875000e+01
6.875000e+01
6.875000e+01
6.875000e+01
6.875000e+01
6.875000e+01
6.875000e+01
6.875000e+01
6.875000e+01
6.875000e+01
6.875000e+01
6.875000e+01
6.875000e+01
6.875000e+01
6.875000e+01
6.875000e+01
6.875000e+01
6.875000e+01
6.875000e+01
6.875000e+01
6.875000e+01
6.875000e+01
6.875000e+01
6.875000e+01
6.875000e+01
6.875000e+01
6.875000e+01
6.875000e+01
6.875000e+01
7.500000e+01
7.500000e+01
7.500000e+01
7.500000e+01
7.500000e+01
7.500000e+01
7.500000e+01
7.500000e+01
7.500000e+01
7.500000e+01
7.500000e+01
7.500000e+01
7.500000e+01
7.500000e+01
7.500000e+01
7.500000e+01
7.500000e+01
7.500000e+01
7.500000e+01
7.500000e+01
7.500000e+01
7.500000e+01
7.500000e+01
7.500000e+01
7.500000e+01
7.500000e+01
7.500000e+01
7.500000e+01
7.500000e+01
7.500000e+01
7.500000e+01
7.500000e+01
7.500000e+01
8.125000e+01
8.125000e+01
8.125000e+01
8.125000e+01
8.125000e+01
8.125000e+01
8.125000e+01
8.125000e+01
8.125000e+01
8.125000e+01
8.125000e+01
8.125000e+01
8.125000e+01
8.125000e+01
8.125000e+01
8.125000e+01
8.125000e+01
8.125000e+01
8.125000e+01
8.125000e+01
8.125000e+01
8.125000e+01
8.125000e+01
8.125000e+01
8.125000e+01
8.125000e+01
8.125000e+01
8.125000e+01
8.125000e+01
8.125000e+01
8.125000e+01
8.125000e+01
8.125000e+01
8.750000e+01
8.750000e+01
8.750000e+01
8.750000e+01
8.750000e+01
8.750000e+01
8.750000e+01
8.750000e+01
8.750000e+01
8.750000e+01
8.750000e+01
8.750000e+01
8.750000e+01
8.750000e+01
8.750000e+01
8.750000e+01
8.750000e+01
8.750000e+01
8.750000e+01
8.750000e+01
8.750000e+01
8.750000e+01
8.750000e+01
8.750000e+01
8.750000e+01
8.750000e+01
8.750000e+01
8.750000e+01
8.750000e+01
8.750000e+01
8.750000e+01
8.750000e+01
8.750000e+01
9.375000e+01
9.375000e+01
9.375000e+01
9.375000e+01
9.375000e+01
9.375000e+01
9.375000e+01
9.375000e+01
9.375000e+01
9.375000e+01
9.375000e+01
9.375000e+01
9.375000e+01
9.375000e+01
9.375000e+01
9.375000e+01
9.375000e+01
9.375000e+01
9.375000e+01
9.375000e+01
9.375000e+01
9.375000e+01
9.375000e+01
9.375000e+01
9.375000e+01
9.375000e+01
9.375000e+01
9.375000e+01
9.375000e+01
9.375000e+01
9.375000e+01
9.375000e+01
9.375000e+01
1.000000e+02
1.000000e+02
1.000000e+02
1.000000e+02
1.000000e+02
1.000000e+02
1.000000e+02
1.000000e+02
1.000000e+02
1.000000e+02
1.000000e+02
1.000000e+02
1.000000e+02
1.000000e+02
1.000000e+02
1.000000e+02
1.000000e+02
1.000000e+02
1.000000e+02
1.000000e+02
1.000000e+02
1.000000e+02
1.000000e+02
1.000000e+02
1.000000e+02
1.000000e+02
1.000000e+02
1.000000e+02
1.000000e+02
1.000000e+02
1.000000e+02
1.000000e+02
1.000000e+02
0.000000e+00
-4.010924e-02
-7.277288e-02
-1.030311e-01
-1.320705e-01
-1.601125e-01
-1.872132e-01
-2.133705e-01
-2.385677e-01
-2.627865e-01
-2.860119e-01
-3.082332e-01
-3.294451e-01
-3.496471e-01
-3.688440e-01
-3.870458e-01
-4.042690e-01
-4.205370e-01
-4.358828e-01
-4.503504e-01
-4.639986e-01
-4.769053e-01
-4.891732e-01
-5.009388e-01
-5.123848e-01
-5.237596e-01
-5.354081e-01
-5.478222e-01
-5.617236e-01
-5.781742e-01
-5.985516e-01
-6.228358e-01
-6.376562e-01
0.000000e+00
-2.689217e-02
-5.595204e-02
-8.335167e-02
-1.093940e-01
-1.343269e-01
-1.582821e-01
-1.813174e-01
-2.034557e-01
-2.247044e-01
-2.450650e-01
-2.645374e-01
-2.831226e-01
-3.008236e-01
-3.176463e-01
-3.336000e-01
-3.486983e-01
-3.629599e-01
-3.764094e-01
-3.890790e-01
-4.010096e-01
-4.122528e-01
-4.228727e-01
-4.329475e-01
-4.425711e-01
-4.518510e-01
-4.609010e-01
-4.698147e-01
-4.785915e-01
-4.869458e-01
-4.939073e-01
-4.979773e-01
-5.036434e-01
0.000000e+00
-2.133093e-02
-4.391485e-02
-6.690888e-02
-8.925195e-02
-1.107716e-01
-1.314542e-01
-1.513192e-01
-1.703842e-01
-1.886613e-01
-2.061582e-01
-2.228803e-01
-2.388324e-01
-2.540190e-01
-2.684459e-01
-2.821199e-01
-2.950502e-01
-3.072476e-01
-3.187261e-01
-3.295019e-01
-3.395938e-01
-3.490224e-01
-3.578076e-01
-3.659652e-01
-3.734982e-01
-3.803825e-01
-3.865395e-01
-3.917878e-01
-3.957725e-01
-3.979182e-01
-3.977300e-01
-3.965252e-01
-4.031417e-01
0.000000e+00
-1.692420e-02
-3.478310e-02
-5.313088e-02
-7.143566e-02
-8.929706e-02
-1.065621e-01
-1.231760e-01
-1.391237e-01
-1.544048e-01
-1.690231e-01
-1.829836e-01
-1.962908e-01
-2.089491e-01
-2.209621e-01
-2.323332e-01
-2.430657e-01
-2.531621e-01
-2.626246e-01
-2.714537e-01
-2.796472e-01
-2.871976e-01
-2.940880e-01
-3.002865e-01
-3.057359e-01
-3.103398e-01
-3.139460e-01
-3.163341e-01
-3.172460e-01
-3.165691e-01
-3.149251e-01
-3.148269e-01
-3.211308e-01
0.000000e+00
-1.313554e-02
-2.689712e-02
-4.109829e-02
-5.541484e-02
-6.955579e-02
-8.332604e-02
-9.662680e-02
-1.094131e-01
-1.216678e-01
-1.333863e-01
-1.445692e-01
-1.552186e-01
-1.653363e-01
-1.749230e-01
-1.839778e-01
-1.924979e-01
-2.004782e-01
-2.079104e-01
-2.147820e-01
-2.210747e-01
-2.267614e-01
-2.318034e-01
-2.361451e-01
-2.397100e-01
-2.423971e-01
-2.440880e-01
-2.446811e-01
-2.441945e-01
-2.430038e-01
-2.422314e-01
-2.440152e-01
-2.493927e-01
0.000000e+00
-9.653860e-03
-1.972133e-02
-3.011223e-02
-4.064703e-02
-5.112907e-02
-6.140224e-02
-7.136505e-02
-8.096182e-02
-9.016545e-02
-9.896452e-02
-1.073550e-01
-1.153354e-01
-1.229044e-01
-1.300592e-01
-1.367945e-01
-1.431024e-01
-1.489713e-01
-1.543855e-01
-1.593237e-01
-1.637581e-01
-1.676527e-01
-1.709621e-01
-1.736307e-01
-1.755952e-01
-1.767939e-01
-1.771916e-01
-1.768347e-01
-1.759551e-01
-1.751182e-01
-1.753220e-01
-1.775960e-01
-1.820455e-01
0.000000e+00
-6.353401e-03
-1.295811e-02
-1.977233e-02
-2.669891e-02
-3.362124e-02
-4.043494e-02
-4.706390e-02
-5.346051e-02
-5.959849e-02
-6.546456e-02
-7.105204e-02
-7.635667e-02
-8.137401e-02
-8.609802e-02
-9.052005e-02
-9.462819e-02
-9.840662e-02
-1.018351e-01
-1.048883e-01
-1.075357e-01
-1.097413e-01
-1.114650e-01
-1.126661e-01
-1.133115e-01
-1.133916e-01
-1.129503e-01
-1.121338e-01
-1.112526e-01
-1.108255e-01
-1.114919e-01
-1.137059e-01
-1.172976e-01
0.000000e+00
-3.155732e-03
-6.430769e-03
-9.808279e-03
-1.324560e-02
-1.668844e-02
-2.008523e-02
-2.339561e-02
-2.659233e-02
-2.965873e-02
-3.258494e-02
-3.536443e-02
-3.799152e-02
-4.045969e-02
-4.276053e-02
-4.488300e-02
-4.681284e-02
-4.853226e-02
-5.001963e-02
-5.124961e-02
-5.219379e-02
-5.282226e-02
-5.310696e-02
-5.302778e-02
-5.258315e-02
-5.180702e-02
-5.079330e-02
-4.972518e-02
-4.889600e-02
-4.868829e-02
-4.947013e-02
-5.140157e-02
-5.425151e-02
0.000000e+00
-5.091458e-06
-1.103973e-05
-1.751530e-05
-2.417755e-05
-3.056720e-05
-3.599213e-05
-3.940054e-05
-3.923280e-05
-3.324312e-05
-1.828421e-05
9.948757e-06
5.721460e-05
1.310563e-04
2.411494e-04
3.996379e-04
6.214061e-04
9.242023e-04
1.328480e-03
1.856758e-03
2.532185e-03
3.375893e-03
4.402517e-03
5.613171e-03
6.985175e-03
8.458431e-03
9.920140e-03
1.119363e-02
1.204374e-02
1.221614e-02
1.152198e-02
9.949951e-03
7.748236e-03
0.000000e+00
3.146142e-03
6.409934e-03
9.775154e-03
1.319977e-02
1.663033e-02
2.001655e-02
2.332004e-02
2.651644e-02
2.959330e-02
3.254664e-02
3.537803e-02
3.809260e-02
4.069805e-02
4.320421e-02
4.562300e-02
4.796838e-02
5.025628e-02
5.250415e-02
5.472994e-02
5.695029e-02
5.917743e-02
6.141453e-02
6.364917e-02
6.584503e-02
6.793281e-02
6.980322e-02
7.130760e-02
7.227421e-02
7.254786e-02
7.205225e-02
7.085805e-02
6.922395e-02
0.000000e+00
6.345567e-03
1.294097e-02
1.974489e-02
2.666064e-02
3.357227e-02
4.037639e-02
4.699844e-02
5.339312e-02
5.953753e-02
6.542315e-02
7.104985e-02
7.642218e-02
8.154738e-02
8.643445e-02
9.109379e-02
9.553707e-02
9.977696e-02
1.038266e-01
1.076986e-01
1.114029e-01
1.149443e-01
1.183179e-01
1.215043e-01
1.244633e-01
1.271295e-01
1.294101e-01
1.311913e-01
1.323571e-01
1.328232e-01
1.325835e-01
1.317572e-01
1.306167e-01
0.000000e+00
9.648863e-03
1.971020e-02
3.009410e-02
4.062129e-02
5.109547e-02
6.136113e-02
7.131773e-02
8.091102e-02
9.011604e-02
9.892438e-02
1.073362e-01
1.153559e-01
1.229896e-01
1.302446e-01
1.371285e-01
1.436495e-01
1.498158e-01
1.556354e-01
1.611148e-01
1.662581e-01
1.710640e-01
1.755232e-01
1.796146e-01
1.833022e-01
1.865322e-01
1.892351e-01
1.913329e-01
1.927555e-01
1.934684e-01
1.935085e-01
1.930237e-01
1.923029e-01
0.000000e+00
1.313430e-02
2.689401e-02
4.109274e-02
5.540625e-02
6.954368e-02
8.331010e-02
9.660699e-02
1.093899e-01
1.216421e-01
1.333601e-01
1.445460e-01
1.552036e-01
1.653375e-01
1.749520e-01
1.840510e-01
1.926378e-01
2.007154e-01
2.082856e-01
2.153489e-01
2.219030e-01
2.279421e-01
2.334543e-01
2.384208e-01
2.428135e-01
2.465957e-01
2.497240e-01
2.521553e-01
2.538592e-01
2.548382e-01
2.551557e-01
2.549737e-01
2.545940e-01
0.000000e+00
1.692735e-02
3.478949e-02
5.314038e-02
7.144801e-02
8.931191e-02
1.065789e-01
1.231939e-01
1.391415e-01
1.544202e-01
1.690327e-01
1.829826e-01
1.962723e-01
2.089034e-01
2.208760e-01
2.321893e-01
2.428410e-01
2.528277e-01
2.621445e-01
2.707848e-01
2.787397e-01
2.859984e-01
2.925469e-01
2.983687e-01
3.034453e-01
3.077576e-01
3.112895e-01
3.140331e-01
3.159966e-01
3.172169e-01
3.177782e-01
3.178451e-01
3.177191e-01
0.000000e+00
2.133861e-02
4.393124e-02
6.693454e-02
8.928737e-02
1.108172e-01
1.315100e-01
1.513847e-01
1.704575e-01
1.887385e-01
2.062328e-01
2.229416e-01
2.388639e-01
2.539966e-01
2.683350e-01
2.818726e-01
2.946010e-01
3.065100e-01
3.175868e-01
3.278167e-01
3.371830e-01
3.456674e-01
3.532515e-01
3.599183e-01
3.656551e-01
3.704576e-01
3.743344e-01
3.773130e-01
3.794447e-01
3.808100e-01
3.815246e-01
3.817574e-01
3.817852e-01
0.000000e+00
2.690369e-02
5.597722e-02
8.339216e-02
1.094517e-01
1.344039e-01
1.583801e-01
1.814374e-01
2.035971e-01
2.248644e-01
2.452369e-01
2.647091e-01
2.832735e-01
3.009217e-01
3.176437e-01
3.334275e-01
3.482588e-01
3.621200e-01
3.749905e-01
3.868458e-01
3.976588e-01
4.074001e-01
4.160412e-01
4.235571e-01
4.299324e-01
4.351673e-01
4.392866e-01
4.423483e-01
4.444515e-01
4.457402e-01
4.463986e-01
4.466374e-01
4.466958e-01
0.000000e+00
4.012185e-02
7.280231e-02
1.030816e-01
1.321460e-01
1.602171e-01
1.873513e-01
2.135460e-01
2.387839e-01
2.630447e-01
2.863099e-01
3.085631e-01
3.297901e-01
3.499773e-01
3.691108e-01
3.871744e-01
4.041489e-01
4.200108e-01
4.347310e-01
4.482747e-01
4.606010e-01
4.716647e-01
4.814182e-01
4.898168e-01
4.968259e-01
5.024312e-01
5.066528e-01
5.095611e-01
5.112945e-01
5.120755e-01
5.122175e-01
5.120999e-01
5.120337e-01
0.000000e+00
-2.478674e-02
-4.325821e-02
-6.341504e-02
-8.586086e-02
-1.112157e-01
-1.396556e-01
-1.712302e-01
-2.059079e-01
-2.436145e-01
-2.842500e-01
-3.276993e-01
-3.738386e-01
-4.225387e-01
-4.736679e-01
-5.270936e-01
-5.826840e-01
-6.403094e-01
-6.998448e-01
-7.611723e-01
-8.241851e-01
-8.887934e-01
-9.549330e-01
-1.022579e+00
-1.091764e+00
-1.162617e+00
-1.235419e+00
-1.310720e+00
-1.389571e+00
-1.474054e+00
-1.568660e+00
-1.683983e+00
-1.843306e+00
0.000000e+00
-1.540402e-02
-3.473878e-02
-5.503158e-02
-7.779025e-02
-1.034205e-01
-1.321368e-01
-1.639878e-01
-1.989446e-01
-2.369330e-01
-2.778525e-01
-3.215871e-01
-3.680118e-01
-4.169965e-01
-4.684081e-01
-5.221128e-01
-5.779771e-01
-6.358694e-01
-6.956623e-01
-7.572349e-01
-8.204767e-01
-8.852933e-01
-9.516147e-01
-1.019408e+00
-1.088698e+00
-1.159600e+00
-1.232383e+00
-1.307577e+00
-1.386214e+00
-1.470338e+00
-1.564213e+00
-1.676969e+00
-1.825818e+00
0.000000e+00
-1.131514e-02
-2.800624e-02
-4.802221e-02
-7.082065e-02
-9.663977e-02
-1.255827e-01
-1.576764e-01
-1.928822e-01
-2.311223e-01
-2.722944e-01
-3.162818e-01
-3.629588e-01
-4.121948e-01
-4.638563e-01
-5.178090e-01
-5.739186e-01
-6.320529e-01
-6.920837e-01
-7.538888e-01
-8.173571e-01
-8.823933e-01
-9.489272e-01
-1.016927e+00
-1.086420e+00
-1.157529e+00
-1.230533e+00
-1.305978e+00
-1.384881e+00
-1.469085e+00
-1.561738e+00
-1.666562e+00
-1.782843e+00
0.000000e+00
-9.060682e-03
-2.371563e-02
-4.266425e-02
-6.516970e-02
-9.098080e-02
-1.200476e-01
-1.523211e-01
-1.877318e-01
-2.261875e-01
-2.675796e-01
-3.117883e-01
-3.586870e-01
-4.081448e-01
-4.600283e-01
-5.142035e-01
-5.705366e-01
-6.288961e-01
-6.891540e-01
-7.511896e-01
-8.148930e-01
-8.801713e-01
-9.469577e-01
-1.015225e+00
-1.085009e+00
-1.156436e+00
-1.229785e+00
-1.305556e+00
-1.384584e+00
-1.468081e+00
-1.557211e+00
-1.651215e+00
-1.738723e+00
0.000000e+00
-7.666827e-03
-2.090973e-02
-3.885947e-02
-6.085189e-02
-8.649376e-02
-1.155715e-01
-1.479498e-01
-1.835118e-01
-2.221412e-01
-2.637173e-01
-3.081147e-01
-3.552045e-01
-4.048554e-01
-4.569347e-01
-5.113091e-01
-5.678464e-01
-6.264162e-01
-6.868926e-01
-7.491567e-01
-8.131013e-01
-8.786360e-01
-9.456971e-01
-1.014260e+00
-1.084355e+00
-1.156096e+00
-1.229709e+00
-1.305555e+00
-1.384112e+00
-1.465767e+00
-1.550130e+00
-1.634102e+00
-1.710313e+00
0.000000e+00
-6.779904e-03
-1.906871e-02
-3.624118e-02
-5.773854e-02
-8.314022e-02
-1.121547e-01
-1.445745e-01
-1.802361e-01
-2.189957e-01
-2.607175e-01
-3.052688e-01
-3.525177e-01
-4.023321e-01
-4.545799e-01
-5.091294e-01
-5.658498e-01
-6.246129e-01
-6.852946e-01
-7.477782e-01
-8.119576e-01
-8.777434e-01
-9.450696e-01
-1.013904e+00
-1.084258e+00
-1.156200e+00
-1.229857e+00
-1.305388e+00
-1.382880e+00
-1.462072e+00
-1.541757e+00
-1.619088e+00
-1.689768e+00
0.000000e+00
-6.228692e-03
-1.790472e-02
-3.453924e-02
-5.565283e-02
-8.083562e-02
-1.097640e-01
-1.421878e-01
-1.779083e-01
-2.167579e-01
-2.585872e-01
-3.032561e-01
-3.506298e-01
-4.005755e-01
-4.529620e-01
-5.076590e-01
-5.645375e-01
-6.234710e-01
-6.843371e-01
-7.470194e-01
-8.114112e-01
-8.774194e-01
-9.449693e-01
-1.014010e+00
-1.084517e+00
-1.156493e+00
-1.229944e+00
-1.304826e+00
-1.380926e+00
-1.457622e+00
-1.533589e+00
-1.606636e+00
-1.674079e+00
0.000000e+00
-5.925793e-03
-1.725885e-02
-3.358016e-02
-5.445686e-02
-7.949320e-02
-1.083552e-01
-1.407719e-01
-1.765241e-01
-2.154295e-01
-2.573292e-01
-3.020783e-01
-3.495402e-01
-3.995820e-01
-4.520735e-01
-5.068858e-01
-5.638915e-01
-6.229653e-01
-6.839850e-01
-7.468332e-01
-8.113993e-01
-8.775819e-01
-9.452909e-01
-1.014448e+00
-1.084985e+00
-1.156828e+00
-1.229871e+00
-1.303916e+00
-1.378568e+00
-1.453091e+00
-1.526290e+00
-1.596516e+00
-1.661939e+00
0.000000e+00
-5.828200e-03
-1.705048e-02
-3.326931e-02
-5.406707e-02
-7.905385e-02
-1.078937e-01
-1.403099e-01
-1.760772e-01
-2.150086e-01
-2.569426e-01
-3.017334e-01
-3.492444e-01
-3.993438e-01
-4.519025e-01
-5.067929e-01
-5.638887e-01
-6.230650e-01
-6.841986e-01
-7.471691e-01
-8.118593e-01
-8.781558e-01
-9.459487e-01
-1.015129e+00
-1.085578e+00
-1.157158e+00
-1.229673e+00
-1.302825e+00
-1.376141e+00
-1.448899e+00
-1.520086e+00
-1.588446e+00
-1.652635e+00
0.000000e+00
-5.922970e-03
-1.725494e-02
-3.357679e-02
-5.445583e-02
-7.949678e-02
-1.083663e-01
-1.407945e-01
-1.765634e-01
-2.154923e-01
-2.574242e-01
-3.022166e-01
-3.497353e-01
-3.998504e-01
-4.524344e-01
-5.073609e-01
-5.645040e-01
-6.237384e-01
-6.849389e-01
-7.479803e-01
-8.127372e-01
-8.790820e-01
-9.468834e-01
-1.016000e+00
-1.086273e+00
-1.157506e+00
-1.229444e+00
-1.301737e+00
-1.373899e+00
-1.445271e+00
-1.515019e+00
-1.582171e+00
-1.645701e+00
0.000000e+00
-6.223275e-03
-1.789721e-02
-3.453274e-02
-5.565079e-02
-8.084234e-02
-1.097851e-01
-1.422309e-01
-1.779833e-01
-2.168780e-01
-2.587690e-01
-3.035210e-01
-3.510038e-01
-4.010902e-01
-4.536544e-01
-5.085707e-01
-5.657136e-01
-6.249565e-01
-6.861713e-01
-7.492277e-01
-8.139908e-01
-8.803191e-01
-9.480603e-01
-1.017045e+00
-1.087078e+00
-1.157923e+00
-1.229289e+00
-1.300805e+00
-1.372003e+00
-1.442308e+00
-1.511045e+00
-1.577464e+00
-1.640779e+00
0.000000e+00
-6.772375e-03
-1.905826e-02
-3.623210e-02
-5.773560e-02
-8.314943e-02
-1.121840e-01
-1.446344e-01
-1.803406e-01
-2.191631e-01
-2.609713e-01
-3.056388e-01
-3.530404e-01
-4.030519e-01
-4.555487e-01
-5.104059e-01
-5.674975e-01
-6.266955e-01
-6.878690e-01
-7.508819e-01
-8.155908e-01
-8.818413e-01
-9.494631e-01
-1.018264e+00
-1.088020e+00
-1.158470e+00
-1.229299e+00
-1.300136e+00
-1.370547e+00
-1.440039e+00
-1.508078e+00
-1.574107e+00
-1.637552e+00
0.000000e+00
-7.657958e-03
-2.089743e-02
-3.884877e-02
-6.084848e-02
-8.650491e-02
-1.156068e-01
-1.480221e-01
-1.836380e-01
-2.223434e-01
-2.640240e-01
-3.085619e-01
-3.558367e-01
-4.057262e-01
-4.581070e-01
-5.128543e-01
-5.698416e-01
-6.289394e-01
-6.900138e-01
-7.529242e-01
-8.175198e-01
-8.836356e-01
-9.510874e-01
-1.019665e+00
-1.089127e+00
-1.159193e+00
-1.229539e+00
-1.299799e+00
-1.369574e+00
-1.438447e+00
-1.506008e+00
-1.571878e+00
-1.635706e+00
0.000000e+00
-9.051566e-03
-2.370300e-02
-4.265337e-02
-6.516678e-02
-9.099389e-02
-1.200874e-01
-1.524017e-01
-1.878721e-01
-2.264119e-01
-2.679196e-01
-3.122836e-01
-3.593866e-01
-4.091077e-01
-4.613239e-01
-5.159103e-01
-5.727396e-01
-6.316810e-01
-6.925982e-01
-7.553470e-01
-8.197712e-01
-8.856985e-01
-9.529350e-01
-1.021259e+00
-1.090418e+00
-1.160120e+00
-1.230039e+00
-1.299817e+00
-1.369084e+00
-1.437481e+00
-1.504706e+00
-1.570547e+00
-1.634901e+00
0.000000e+00
-1.130719e-02
-2.799518e-02
-4.801303e-02
-7.081978e-02
-9.665570e-02
-1.256267e-01
-1.577632e-01
-1.930313e-01
-2.313591e-01
-2.726514e-01
-3.167999e-01
-3.636884e-01
-4.131964e-01
-4.652008e-01
-5.195763e-01
-5.761946e-01
-6.349239e-01
-6.956262e-01
-7.581546e-01
-8.223499e-01
-8.880352e-01
-9.550115e-01
-1.023052e+00
-1.091897e+00
-1.161253e+00
-1.230793e+00
-1.300168e+00
-1.369028e+00
-1.437058e+00
-1.504030e+00
-1.569878e+00
-1.634760e+00
0.000000e+00
-1.539891e-02
-3.473125e-02
-5.502617e-02
-7.779360e-02
-1.034413e-01
-1.321863e-01
-1.640809e-01
-1.991008e-01
-2.371774e-01
-2.782171e-01
-3.221121e-01
-3.687463e-01
-4.179991e-01
-4.697468e-01
-5.238635e-01
-5.802202e-01
-6.386839e-01
-6.991152e-01
-7.613658e-01
-8.252744e-01
-8.906623e-01
-9.573287e-01
-1.025045e+00
-1.093553e+00
-1.162560e+00
-1.231745e+00
-1.300768e+00
-1.369296e+00
-1.437038e+00
-1.503811e+00
-1.569637e+00
-1.634880e+00
0.000000e+00
-2.478602e-02
-4.325571e-02
-6.341552e-02
-8.587099e-02
-1.112441e-01
-1.397138e-01
-1.713328e-01
-2.060740e-01
-2.438685e-01
-2.846227e-01
-3.282291e-01
-3.745716e-01
-4.235295e-01
-4.749788e-01
-5.287928e-01
-5.848414e-01
-6.429903e-01
-7.030987e-01
-7.650167e-01
-8.285816e-01
-8.936136e-01
-9.599117e-01