TITLE = "Solution"
VARIABLES = x, y, u, v, psiu, psiv, t, stress
ZONE T="structure" N=561 E=512 F=FEBLOCK ET=QUADRILATERAL VARLOCATION=([7,8]=cellcentered)
0.000000e+00
6.250000e+00
1.250000e+01
1.875000e+01
2.500000e+01
3.125000e+01
3.750000e+01
4.375000e+01
5.000000e+01
5.625000e+01
6.250000e+01
6.875000e+01
7.500000e+01
8.125000e+01
8.750000e+01
9.375000e+01
1.000000e+02
1.062500e+02
1.125000e+02
1.187500e+02
1.250000e+02
1.312500e+02
1.375000e+02
1.437500e+02
1.500000e+02
1.562500e+02
1.625000e+02
1.687500e+02
1.750000e+02
1.812500e+02
1.875000e+02
1.937500e+02
2.000000e+02
0.000000e+00
6.250000e+00
1.250000e+01
1.875000e+01
2.500000e+01
3.125000e+01
3.750000e+01
4.375000e+01
5.000000e+01
5.625000e+01
6.250000e+01
6.875000e+01
7.500000e+01
8.125000e+01
8.750000e+01
9.375000e+01
1.000000e+02
1.062500e+02
1.125000e+02
1.187500e+02
1.250000e+02
1.312500e+02
1.375000e+02
1.437500e+02
1.500000e+02
1.562500e+02
1.625000e+02
1.687500e+02
1.750000e+02
1.812500e+02
1.875000e+02
1.937500e+02
2.000000e+02
0.000000e+00
6.250000e+00
1.250000e+01
1.875000e+01
2.500000e+01
3.125000e+01
3.750000e+01
4.375000e+01
5.000000e+01
5.625000e+01
6.250000e+01
6.875000e+01
7.500000e+01
8.125000e+01
8.750000e+01
9.375000e+01
1.000000e+02
1.062500e+02
1.125000e+02
1.187500e+02
1.250000e+02
1.312500e+02
1.375000e+02
1.437500e+02
1.500000e+02
1.562500e+02
1.625000e+02
1.687500e+02
1.750000e+02
1.812500e+02
1.875000e+02
1.937500e+02
2.000000e+02
0.000000e+00
6.250000e+00
1.250000e+01
1.875000e+01
2.500000e+01
3.125000e+01
3.750000e+01
4.375000e+01
5.000000e+01
5.625000e+01
6.250000e+01
6.875000e+01
7.500000e+01
8.125000e+01
8.750000e+01
9.375000e+01
1.000000e+02
1.062500e+02
1.125000e+02
1.187500e+02
1.250000e+02
1.312500e+02
1.375000e+02
1.437500e+02
1.500000e+02
1.562500e+02
1.625000e+02
1.687500e+02
1.750000e+02
1.812500e+02
1.875000e+02
1.937500e+02
2.000000e+02
0.000000e+00
6.250000e+00
1.250000e+01
1.875000e+01
2.500000e+01
3.125000e+01
3.750000e+01
4.375000e+01
5.000000e+01
5.625000e+01
6.250000e+01
6.875000e+01
7.500000e+01
8.125000e+01
8.750000e+01
9.375000e+01
1.000000e+02
1.062500e+02
1.125000e+02
1.187500e+02
1.250000e+02
1.312500e+02
1.375000e+02
1.437500e+02
1.500000e+02
1.562500e+02
1.625000e+02
1.687500e+02
1.750000e+02
1.812500e+02
1.875000e+02
1.937500e+02
2.000000e+02
0.000000e+00
6.250000e+00
1.250000e+01
1.875000e+01
2.500000e+01
3.125000e+01
3.750000e+01
4.375000e+01
5.000000e+01
5.625000e+01
6.250000e+01
6.875000e+01
7.500000e+01
8.125000e+01
8.750000e+01
9.375000e+01
1.000000e+02
1.062500e+02
1.125000e+02
1.187500e+02
1.250000e+02
1.312500e+02
1.375000e+02
1.437500e+02
1.500000e+02
1.562500e+02
1.625000e+02
1.687500e+02
1.750000e+02
1.812500e+02
1.875000e+02
1.937500e+02
2.000000e+02
0.000000e+00
6.250000e+00
1.250000e+01
1.875000e+01
2.500000e+01
3.125000e+01
3.750000e+01
4.375000e+01
5.000000e+01
5.625000e+01
6.250000e+01
6.875000e+01
7.500000e+01
8.125000e+01
8.750000e+01
9.375000e+01
1.000000e+02
1.062500e+02
1.125000e+02
1.187500e+02
1.250000e+02
1.312500e+02
1.375000e+02
1.437500e+02
1.500000e+02
1.562500e+02
1.625000e+02
1.687500e+02
1.750000e+02
1.812500e+02
1.875000e+02
1.937500e+02
2.000000e+02
0.000000e+00
6.250000e+00
1.250000e+01
1.875000e+01
2.500000e+01
3.125000e+01
3.750000e+01
4.375000e+01
5.000000e+01
5.625000e+01
6.250000e+01
6.875000e+01
7.500000e+01
8.125000e+01
8.750000e+01
9.375000e+01
1.000000e+02
1.062500e+02
1.125000e+02
1.187500e+02
1.250000e+02
1.312500e+02
1.375000e+02
1.437500e+02
1.500000e+02
1.562500e+02
1.625000e+02
1.687500e+02
1.750000e+02
1.812500e+02
1.875000e+02
1.937500e+02
2.000000e+02
0.000000e+00
6.250000e+00
1.250000e+01
1.875000e+01
2.500000e+01
3.125000e+01
3.750000e+01
4.375000e+01
5.000000e+01
5.625000e+01
6.250000e+01
6.875000e+01
7.500000e+01
8.125000e+01
8.750000e+01
9.375000e+01
1.000000e+02
1.062500e+02
1.125000e+02
1.187500e+02
1.250000e+02
1.312500e+02
1.375000e+02
1.437500e+02
1.500000e+02
1.562500e+02
1.625000e+02
1.687500e+02
1.750000e+02
1.812500e+02
1.875000e+02
1.937500e+02
2.000000e+02
0.000000e+00
6.250000e+00
1.250000e+01
1.875000e+01
2.500000e+01
3.125000e+01
3.750000e+01
4.375000e+01
5.000000e+01
5.625000e+01
6.250000e+01
6.875000e+01
7.500000e+01
8.125000e+01
8.750000e+01
9.375000e+01
1.000000e+02
1.062500e+02
1.125000e+02
1.187500e+02
1.250000e+02
1.312500e+02
1.375000e+02
1.437500e+02
1.500000e+02
1.562500e+02
1.625000e+02
1.687500e+02
1.750000e+02
1.812500e+02
1.875000e+02
1.937500e+02
2.000000e+02
0.000000e+00
6.250000e+00
1.250000e+01
1.875000e+01
2.500000e+01
3.125000e+01
3.750000e+01
4.375000e+01
5.000000e+01
5.625000e+01
6.250000e+01
6.875000e+01
7.500000e+01
8.125000e+01
8.750000e+01
9.375000e+01
1.000000e+02
1.062500e+02
1.125000e+02
1.187500e+02
1.250000e+02
1.312500e+02
1.375000e+02
1.437500e+02
1.500000e+02
1.562500e+02
1.625000e+02
1.687500e+02
1.750000e+02
1.812500e+02
1.875000e+02
1.937500e+02
2.000000e+02
0.000000e+00
6.250000e+00
1.250000e+01
1.875000e+01
2.500000e+01
3.125000e+01
3.750000e+01
4.375000e+01
5.000000e+01
5.625000e+01
6.250000e+01
6.875000e+01
7.500000e+01
8.125000e+01
8.750000e+01
9.375000e+01
1.000000e+02
1.062500e+02
1.125000e+02
1.187500e+02
1.250000e+02
1.312500e+02
1.375000e+02
1.437500e+02
1.500000e+02
1.562500e+02
1.625000e+02
1.687500e+02
1.750000e+02
1.812500e+02
1.875000e+02
1.937500e+02
2.000000e+02
0.000000e+00
6.250000e+00
1.250000e+01
1.875000e+01
2.500000e+01
3.125000e+01
3.750000e+01
4.375000e+01
5.000000e+01
5.625000e+01
6.250000e+01
6.875000e+01
7.500000e+01
8.125000e+01
8.750000e+01
9.375000e+01
1.000000e+02
1.062500e+02
1.125000e+02
1.187500e+02
1.250000e+02
1.312500e+02
1.375000e+02
1.437500e+02
1.500000e+02
1.562500e+02
1.625000e+02
1.687500e+02
1.750000e+02
1.812500e+02
1.875000e+02
1.937500e+02
2.000000e+02
0.000000e+00
6.250000e+00
1.250000e+01
1.875000e+01
2.500000e+01
3.125000e+01
3.750000e+01
4.375000e+01
5.000000e+01
5.625000e+01
6.250000e+01
6.875000e+01
7.500000e+01
8.125000e+01
8.750000e+01
9.375000e+01
1.000000e+02
1.062500e+02
1.125000e+02
1.187500e+02
1.250000e+02
1.312500e+02
1.375000e+02
1.437500e+02
1.500000e+02
1.562500e+02
1.625000e+02
1.687500e+02
1.750000e+02
1.812500e+02
1.875000e+02
1.937500e+02
2.000000e+02
0.000000e+00
6.250000e+00
1.250000e+01
1.875000e+01
2.500000e+01
3.125000e+01
3.750000e+01
4.375000e+01
5.000000e+01
5.625000e+01
6.250000e+01
6.875000e+01
7.500000e+01
8.125000e+01
8.750000e+01
9.375000e+01
1.000000e+02
1.062500e+02
1.125000e+02
1.187500e+02
1.250000e+02
1.312500e+02
1.375000e+02
1.437500e+02
1.500000e+02
1.562500e+02
1.625000e+02
1.687500e+02
1.750000e+02
1.812500e+02
1.875000e+02
1.937500e+02
2.000000e+02
0.000000e+00
6.250000e+00
1.250000e+01
1.875000e+01
2.500000e+01
3.125000e+01
3.750000e+01
4.375000e+01
5.000000e+01
5.625000e+01
6.250000e+01
6.875000e+01
7.500000e+01
8.125000e+01
8.750000e+01
9.375000e+01
1.000000e+02
1.062500e+02
1.125000e+02
1.187500e+02
1.250000e+02
1.312500e+02
1.375000e+02
1.437500e+02
1.500000e+02
1.562500e+02
1.625000e+02
1.687500e+02
1.750000e+02
1.812500e+02
1.875000e+02
1.937500e+02
2.000000e+02
0.000000e+00
6.250000e+00
1.250000e+01
1.875000e+01
2.500000e+01
3.125000e+01
3.750000e+01
4.375000e+01
5.000000e+01
5.625000e+01
6.250000e+01
6.875000e+01
7.500000e+01
8.125000e+01
8.750000e+01
9.375000e+01
1.000000e+02
1.062500e+02
1.125000e+02
1.187500e+02
1.250000e+02
1.312500e+02
1.375000e+02
1.437500e+02
1.500000e+02
1.562500e+02
1.625000e+02
1.687500e+02
1.750000e+02
1.812500e+02
1.875000e+02
1.937500e+02
2.000000e+02
0.000000e+00
0.000000e+00
0.000000e+00
0.000000e+00
0.000000e+00
0.000000e+00
0.000000e+00
0.000000e+00
0.000000e+00
0.000000e+00
0.000000e+00
0.000000e+00
0.000000e+00
0.000000e+00
0.000000e+00
0.000000e+00
0.000000e+00
0.000000e+00
0.000000e+00
0.000000e+00
0.000000e+00
0.000000e+00
0.000000e+00
0.000000e+00
0.000000e+00
0.000000e+00
0.000000e+00
0.000000e+00
0.000000e+00
0.000000e+00
0.000000e+00
0.000000e+00
0.000000e+00
6.250000e+00
6.250000e+00
6.250000e+00
6.250000e+00
6.250000e+00
6.250000e+00
6.250000e+00
6.250000e+00
6.250000e+00
6.250000e+00
6.250000e+00
6.250000e+00
6.250000e+00
6.250000e+00
6.250000e+00
6.250000e+00
6.250000e+00
6.250000e+00
6.250000e+00
6.250000e+00
6.250000e+00
6.250000e+00
6.250000e+00
6.250000e+00
6.250000e+00
6.250000e+00
6.250000e+00
6.250000e+00
6.250000e+00
6.250000e+00
6.250000e+00
6.250000e+00
6.250000e+00
1.250000e+01
1.250000e+01
1.250000e+01
1.250000e+01
1.250000e+01
1.250000e+01
1.250000e+01
1.250000e+01
1.250000e+01
1.250000e+01
1.250000e+01
1.250000e+01
1.250000e+01
1.250000e+01
1.250000e+01
1.250000e+01
1.250000e+01
1.250000e+01
1.250000e+01
1.250000e+01
1.250000e+01
1.250000e+01
1.250000e+01
1.250000e+01
1.250000e+01
1.250000e+01
1.250000e+01
1.250000e+01
1.250000e+01
1.250000e+01
1.250000e+01
1.250000e+01
1.250000e+01
1.875000e+01
1.875000e+01
1.875000e+01
1.875000e+01
1.875000e+01
1.875000e+01
1.875000e+01
1.875000e+01
1.875000e+01
1.875000e+01
1.875000e+01
1.875000e+01
1.875000e+01
1.875000e+01
1.875000e+01
1.875000e+01
1.875000e+01
1.875000e+01
1.875000e+01
1.875000e+01
1.875000e+01
1.875000e+01
1.875000e+01
1.875000e+01
1.875000e+01
1.875000e+01
1.875000e+01
1.875000e+01
1.875000e+01
1.875000e+01
1.875000e+01
1.875000e+01
1.875000e+01
2.500000e+01
2.500000e+01
2.500000e+01
2.500000e+01
2.500000e+01
2.500000e+01
2.500000e+01
2.500000e+01
2.500000e+01
2.500000e+01
2.500000e+01
2.500000e+01
2.500000e+01
2.500000e+01
2.500000e+01
2.500000e+01
2.500000e+01
2.500000e+01
2.500000e+01
2.500000e+01
2.500000e+01
2.500000e+01
2.500000e+01
2.500000e+01
2.500000e+01
2.500000e+01
2.500000e+01
2.500000e+01
2.500000e+01
2.500000e+01
2.500000e+01
2.500000e+01
2.500000e+01
3.125000e+01
3.125000e+01
3.125000e+01
3.125000e+01
3.125000e+01
3.125000e+01
3.125000e+01
3.125000e+01
3.125000e+01
3.125000e+01
3.125000e+01
3.125000e+01
3.125000e+01
3.125000e+01
3.125000e+01
3.125000e+01
3.125000e+01
3.125000e+01
3.125000e+01
3.125000e+01
3.125000e+01
3.125000e+01
3.125000e+01
3.125000e+01
3.125000e+01
3.125000e+01
3.125000e+01
3.125000e+01
3.125000e+01
3.125000e+01
3.125000e+01
3.125000e+01
3.125000e+01
3.750000e+01
3.750000e+01
3.750000e+01
3.750000e+01
3.750000e+01
3.750000e+01
3.750000e+01
3.750000e+01
3.750000e+01
3.750000e+01
3.750000e+01
3.750000e+01
3.750000e+01
3.750000e+01
3.750000e+01
3.750000e+01
3.750000e+01
3.750000e+01
3.750000e+01
3.750000e+01
3.750000e+01
3.750000e+01
3.750000e+01
3.750000e+01
3.750000e+01
3.750000e+01
3.750000e+01
3.750000e+01
3.750000e+01
3.750000e+01
3.750000e+01
3.750000e+01
3.750000e+01
4.375000e+01
4.375000e+01
4.375000e+01
4.375000e+01
4.375000e+01
4.375000e+01
4.375000e+01
4.375000e+01
4.375000e+01
4.375000e+01
4.375000e+01
4.375000e+01
4.375000e+01
4.375000e+01
4.375000e+01
4.375000e+01
4.375000e+01
4.375000e+01
4.375000e+01
4.375000e+01
4.375000e+01
4.375000e+01
4.375000e+01
4.375000e+01
4.375000e+01
4.375000e+01
4.375000e+01
4.375000e+01
4.375000e+01
4.375000e+01
4.375000e+01
4.375000e+01
4.375000e+01
5.000000e+01
5.000000e+01
5.000000e+01
5.000000e+01
5.000000e+01
5.000000e+01
5.000000e+01
5.000000e+01
5.000000e+01
5.000000e+01
5.000000e+01
5.000000e+01
5.000000e+01
5.000000e+01
5.000000e+01
5.000000e+01
5.000000e+01
5.000000e+01
5.000000e+01
5.000000e+01
5.000000e+01
5.000000e+01
5.000000e+01
5.000000e+01
5.000000e+01
5.000000e+01
5.000000e+01
5.000000e+01
5.000000e+01
5.000000e+01
5.000000e+01
5.000000e+01
5.000000e+01
5.625000e+01
5.625000e+01
5.625000e+01
5.625000e+01
5.625000e+01
5.625000e+01
5.625000e+01
5.625000e+01
5.625000e+01
5.625000e+01
5.625000e+01
5.625000e+01
5.625000e+01
5.625000e+01
5.625000e+01
5.625000e+01
5.625000e+01
5.625000e+01
5.625000e+01
5.625000e+01
5.625000e+01
5.625000e+01
5.625000e+01
5.625000e+01
5.625000e+01
5.625000e+01
5.625000e+01
5.625000e+01
5.625000e+01
5.625000e+01
5.625000e+01
5.625000e+01
5.625000e+01
6.250000e+01
6.250000e+01
6.250000e+01
6.250000e+01
6.250000e+01
6.250000e+01
6.250000e+01
6.250000e+01
6.250000e+01
6.250000e+01
6.250000e+01
6.250000e+01
6.250000e+01
6.250000e+01
6.250000e+01
6.250000e+01
6.250000e+01
6.250000e+01
6.250000e+01
6.250000e+01
6.250000e+01
6.250000e+01
6.250000e+01
6.250000e+01
6.250000e+01
6.250000e+01
6.250000e+01
6.250000e+01
6.250000e+01
6.250000e+01
6.250000e+01
6.250000e+01
6.250000e+01
6.875000e+01
6.875000e+01
6.875000e+01
6.875000e+01
6.875000e+01
6.875000e+01
6.875000e+01
6.875000e+01
6.875000e+01
6.875000e+01
6.875000e+01
6.875000e+01
6.875000e+01
6.875000e+01
6.875000e+01
6.875000e+01
6.875000e+01
6.875000e+01
6.875000e+01
6.875000e+01
6.875000e+01
6.875000e+01
6.875000e+01
6.875000e+01
6.875000e+01
6.875000e+01
6.875000e+01
6.875000e+01
6.875000e+01
6.875000e+01
6.875000e+01
6.875000e+01
6.875000e+01
7.500000e+01
7.500000e+01
7.500000e+01
7.500000e+01
7.500000e+01
7.500000e+01
7.500000e+01
7.500000e+01
7.500000e+01
7.500000e+01
7.500000e+01
7.500000e+01
7.500000e+01
7.500000e+01
7.500000e+01
7.500000e+01
7.500000e+01
7.500000e+01
7.500000e+01
7.500000e+01
7.500000e+01
7.500000e+01
7.500000e+01
7.500000e+01
7.500000e+01
7.500000e+01
7.500000e+01
7.500000e+01
7.500000e+01
7.500000e+01
7.500000e+01
7.500000e+01
7.500000e+01
8.125000e+01
8.125000e+01
8.125000e+01
8.125000e+01
8.125000e+01
8.125000e+01
8.125000e+01
8.125000e+01
8.125000e+01
8.125000e+01
8.125000e+01
8.125000e+01
8.125000e+01
8.125000e+01
8.125000e+01
8.125000e+01
8.125000e+01
8.125000e+01
8.125000e+01
8.125000e+01
8.125000e+01
8.125000e+01
8.125000e+01
8.125000e+01
8.125000e+01
8.125000e+01
8.125000e+01
8.125000e+01
8.125000e+01
8.125000e+01
8.125000e+01
8.125000e+01
8.125000e+01
8.750000e+01
8.750000e+01
8.750000e+01
8.750000e+01
8.750000e+01
8.750000e+01
8.750000e+01
8.750000e+01
8.750000e+01
8.750000e+01
8.750000e+01
8.750000e+01
8.750000e+01
8.750000e+01
8.750000e+01
8.750000e+01
8.750000e+01
8.750000e+01
8.750000e+01
8.750000e+01
8.750000e+01
8.750000e+01
8.750000e+01
8.750000e+01
8.750000e+01
8.750000e+01
8.750000e+01
8.750000e+01
8.750000e+01
8.750000e+01
8.750000e+01
8.750000e+01
8.750000e+01
9.375000e+01
9.375000e+01
9.375000e+01
9.375000e+01
9.375000e+01
9.375000e+01
9.375000e+01
9.375000e+01
9.375000e+01
9.375000e+01
9.375000e+01
9.375000e+01
9.375000e+01
9.375000e+01
9.375000e+01
9.375000e+01
9.375000e+01
9.375000e+01
9.375000e+01
9.375000e+01
9.375000e+01
9.375000e+01
9.375000e+01
9.375000e+01
9.375000e+01
9.375000e+01
9.375000e+01
9.375000e+01
9.375000e+01
9.375000e+01
9.375000e+01
9.375000e+01
9.375000e+01
1.000000e+02
1.000000e+02
1.000000e+02
1.000000e+02
1.000000e+02
1.000000e+02
1.000000e+02
1.000000e+02
1.000000e+02
1.000000e+02
1.000000e+02
1.000000e+02
1.000000e+02
1.000000e+02
1.000000e+02
1.000000e+02
1.000000e+02
1.000000e+02
1.000000e+02
1.000000e+02
1.000000e+02
1.000000e+02
1.000000e+02
1.000000e+02
1.000000e+02
1.000000e+02
1.000000e+02
1.000000e+02
1.000000e+02
1.000000e+02
1.000000e+02
1.000000e+02
1.000000e+02
0.000000e+00
-9.130391e-02
-1.656582e-01
-2.345380e-01
-3.006454e-01
-3.644838e-01
-4.261810e-01
-4.857312e-01
-5.430967e-01
-5.982357e-01
-6.511134e-01
-7.017059e-01
-7.500006e-01
-7.959966e-01
-8.397044e-01
-8.811469e-01
-9.203613e-01
-9.574014e-01
-9.923416e-01
-1.025283e+00
-1.056358e+00
-1.085745e+00
-1.113677e+00
-1.140466e+00
-1.166528e+00
-1.192427e+00
-1.218949e+00
-1.247214e+00
-1.278865e+00
-1.316320e+00
-1.362715e+00
-1.418003e+00
-1.451744e+00
0.000000e+00
-6.121603e-02
-1.273662e-01
-1.897380e-01
-2.490221e-01
-3.057825e-01
-3.603184e-01
-4.127611e-01
-4.631625e-01
-5.115393e-01
-5.578947e-01
-6.022287e-01
-6.445431e-01
-6.848447e-01
-7.231469e-01
-7.594708e-01
-7.938473e-01
-8.263189e-01
-8.569416e-01
-8.857887e-01
-9.129532e-01
-9.385527e-01
-9.627329e-01
-9.856722e-01
-1.007584e+00
-1.028713e+00
-1.049319e+00
-1.069614e+00
-1.089598e+00
-1.108620e+00
-1.124470e+00
-1.133736e+00
-1.146636e+00
0.000000e+00
-4.855623e-02
-9.996468e-02
-1.523076e-01
-2.031703e-01
-2.521601e-01
-2.992453e-01
-3.444702e-01
-3.878747e-01
-4.294860e-01
-4.693215e-01
-5.073937e-01
-5.437129e-01
-5.782898e-01
-6.111371e-01
-6.422707e-01
-6.717108e-01
-6.994827e-01
-7.256175e-01
-7.501526e-01
-7.731308e-01
-7.945985e-01
-8.146015e-01
-8.331753e-01
-8.503271e-01
-8.660021e-01
-8.800208e-01
-8.919707e-01
-9.010436e-01
-9.059292e-01
-9.055012e-01
-9.027583e-01
-9.178222e-01
0.000000e+00
-3.852505e-02
-7.917784e-02
-1.209442e-01
-1.626139e-01
-2.032753e-01
-2.425800e-01
-2.804031e-01
-3.167106e-01
-3.515008e-01
-3.847825e-01
-4.165669e-01
-4.468644e-01
-4.756847e-01
-5.030361e-01
-5.289262e-01
-5.533622e-01
-5.763503e-01
-5.978951e-01
-6.179979e-01
-6.366535e-01
-6.538447e-01
-6.695336e-01
-6.836469e-01
-6.960545e-01
-7.065372e-01
-7.147482e-01
-7.201859e-01
-7.222622e-01
-7.207212e-01
-7.169783e-01
-7.167549e-01
-7.311072e-01
0.000000e+00
-2.990100e-02
-6.122712e-02
-9.355439e-02
-1.261450e-01
-1.583367e-01
-1.896852e-01
-2.199655e-01
-2.490753e-01
-2.769752e-01
-3.036547e-01
-3.291153e-01
-3.533615e-01
-3.763974e-01
-3.982245e-01
-4.188407e-01
-4.382396e-01
-4.564095e-01
-4.733315e-01
-4.889773e-01
-5.033049e-01
-5.162529e-01
-5.277328e-01
-5.376186e-01
-5.457354e-01
-5.518537e-01
-5.557037e-01
-5.570544e-01
-5.559465e-01
-5.532357e-01
-5.514769e-01
-5.555383e-01
-5.677816e-01
0.000000e+00
-2.197564e-02
-4.489285e-02
-6.854660e-02
-9.252834e-02
-1.163905e-01
-1.397776e-01
-1.624587e-01
-1.843069e-01
-2.052605e-01
-2.252933e-01
-2.443962e-01
-2.625657e-01
-2.797987e-01
-2.960885e-01
-3.114236e-01
-3.257856e-01
-3.391484e-01
-3.514757e-01
-3.627193e-01
-3.728158e-01
-3.816835e-01
-3.892186e-01
-3.952947e-01
-3.997677e-01
-4.024970e-01
-4.034026e-01
-4.025901e-01
-4.005873e-01
-3.986818e-01
-3.991456e-01
-4.043232e-01
-4.144539e-01
0.000000e+00
-1.446268e-02
-2.949748e-02
-4.500937e-02
-6.077726e-02
-7.653578e-02
-9.204730e-02
-1.071386e-01
-1.217012e-01
-1.356752e-01
-1.490305e-01
-1.617516e-01
-1.738290e-01
-1.852523e-01
-1.960079e-01
-2.060761e-01
-2.154296e-01
-2.240325e-01
-2.318386e-01
-2.387905e-01
-2.448182e-01
-2.498400e-01
-2.537646e-01
-2.564995e-01
-2.579690e-01
-2.581514e-01
-2.571467e-01
-2.552875e-01
-2.532812e-01
-2.523086e-01
-2.538258e-01
-2.588668e-01
-2.670446e-01
0.000000e+00
-7.183633e-03
-1.463888e-02
-2.232746e-02
-3.015231e-02
-3.798985e-02
-4.572270e-02
-5.325900e-02
-6.053667e-02
-6.751778e-02
-7.417984e-02
-8.050797e-02
-8.648919e-02
-9.210865e-02
-9.734719e-02
-1.021796e-01
-1.065736e-01
-1.104884e-01
-1.138749e-01
-1.166754e-01
-1.188252e-01
-1.202561e-01
-1.209043e-01
-1.207240e-01
-1.197117e-01
-1.179445e-01
-1.156364e-01
-1.132044e-01
-1.113164e-01
-1.108434e-01
-1.126234e-01
-1.170211e-01
-1.235100e-01
0.000000e+00
-1.159625e-05
-2.514325e-05
-3.989063e-05
-5.506279e-05
-6.961402e-05
-8.196839e-05
-8.973112e-05
-8.935117e-05
-7.571520e-05
-4.165727e-05
2.262412e-05
1.302410e-04
2.983678e-04
5.490344e-04
9.098912e-04
1.414828e-03
2.104256e-03
3.024745e-03
4.227566e-03
5.765431e-03
7.686452e-03
1.002395e-02
1.278047e-02
1.590438e-02
1.925883e-02
2.258700e-02
2.548664e-02
2.742230e-02
2.781489e-02
2.623443e-02
2.265511e-02
1.764205e-02
0.000000e+00
7.161791e-03
1.459142e-02
2.225202e-02
3.004793e-02
3.785751e-02
4.556629e-02
5.308688e-02
6.036382e-02
6.736875e-02
7.409260e-02
8.053889e-02
8.671928e-02
9.265130e-02
9.835732e-02
1.038645e-01
1.092045e-01
1.144137e-01
1.195318e-01
1.245996e-01
1.296551e-01
1.347260e-01
1.398196e-01
1.449076e-01
1.499073e-01
1.546610e-01
1.589198e-01
1.623451e-01
1.645460e-01
1.651691e-01
1.640407e-01
1.613216e-01
1.576010e-01
0.000000e+00
1.444484e-02
2.945843e-02
4.494687e-02
6.069010e-02
7.642425e-02
9.191395e-02
1.069895e-01
1.215477e-01
1.355364e-01
1.489361e-01
1.617466e-01
1.739781e-01
1.856470e-01
1.967739e-01
2.073823e-01
2.174989e-01
2.271525e-01
2.363730e-01
2.451890e-01
2.536233e-01
2.616865e-01
2.693678e-01
2.766228e-01
2.833603e-01
2.894310e-01
2.946235e-01
2.986791e-01
3.013336e-01
3.023950e-01
3.018493e-01
2.999678e-01
2.973710e-01
0.000000e+00
2.196425e-02
4.486749e-02
6.850530e-02
9.246970e-02
1.163139e-01
1.396840e-01
1.623509e-01
1.841912e-01
2.051479e-01
2.252019e-01
2.443534e-01
2.626122e-01
2.799926e-01
2.965107e-01
3.121842e-01
3.270314e-01
3.410711e-01
3.543214e-01
3.667975e-01
3.785081e-01
3.894505e-01
3.996035e-01
4.089193e-01
4.173154e-01
4.246698e-01
4.308241e-01
4.356006e-01
4.388397e-01
4.404628e-01
4.405541e-01
4.394504e-01
4.378092e-01
0.000000e+00
2.989817e-02
6.122003e-02
9.354171e-02
1.261254e-01
1.583091e-01
1.896488e-01
2.199203e-01
2.490223e-01
2.769166e-01
3.035951e-01
3.290623e-01
3.533273e-01
3.764001e-01
3.982904e-01
4.190072e-01
4.385580e-01
4.569495e-01
4.741858e-01
4.902679e-01
5.051909e-01
5.189411e-01
5.314919e-01
5.427999e-01
5.528017e-01
5.614134e-01
5.685362e-01
5.740720e-01
5.779516e-01
5.801806e-01
5.809036e-01
5.804891e-01
5.796246e-01
0.000000e+00
3.853220e-02
7.919237e-02
1.209658e-01
1.626420e-01
2.033090e-01
2.426183e-01
2.804440e-01
3.167509e-01
3.515356e-01
3.848043e-01
4.165646e-01
4.468222e-01
4.755806e-01
5.028400e-01
5.285984e-01
5.528507e-01
5.755890e-01
5.968021e-01
6.164748e-01
6.345873e-01
6.511144e-01
6.660245e-01
6.792802e-01
6.908390e-01
7.006578e-01
7.086996e-01
7.149464e-01
7.194171e-01
7.221955e-01
7.234735e-01
7.236259e-01
7.233390e-01
0.000000e+00
4.857370e-02
1.000020e-01
1.523660e-01
2.032509e-01
2.522638e-01
2.993724e-01
3.446192e-01
3.880414e-01
4.296617e-01
4.694913e-01
5.075331e-01
5.437846e-01
5.782387e-01
6.108845e-01
6.417074e-01
6.706881e-01
6.978031e-01
7.230235e-01
7.463158e-01
7.676417e-01
7.869598e-01
8.042278e-01
8.194073e-01
8.324695e-01
8.434042e-01
8.522314e-01
8.590132e-01
8.638669e-01
8.669756e-01
8.686028e-01
8.691327e-01
8.691960e-01
0.000000e+00
6.124226e-02
1.274235e-01
1.898302e-01
2.491536e-01
3.059579e-01
3.605416e-01
4.130341e-01
4.634843e-01
5.119035e-01
5.582862e-01
6.026195e-01
6.448866e-01
6.850680e-01
7.231409e-01
7.590780e-01
7.928465e-01
8.244066e-01
8.537110e-01
8.807041e-01
9.053238e-01
9.275038e-01
9.471785e-01
9.642915e-01
9.788073e-01
9.907266e-01
1.000106e+00
1.007077e+00
1.011866e+00
1.014800e+00
1.016299e+00
1.016843e+00
1.016976e+00
0.000000e+00
9.133263e-02
1.657252e-01
2.346528e-01
3.008172e-01
3.647220e-01
4.264953e-01
4.861308e-01
5.435890e-01
5.988235e-01
6.517918e-01
7.024569e-01
7.507861e-01
7.967484e-01
8.403117e-01
8.814395e-01
9.200879e-01
9.562032e-01
9.897192e-01
1.020556e+00
1.048622e+00
1.073813e+00
1.096020e+00
1.115143e+00
1.131102e+00
1.143865e+00
1.153477e+00
1.160099e+00
1.164045e+00
1.165824e+00
1.166147e+00
1.165879e+00
1.165729e+00
0.000000e+00
-5.642417e-02
-9.847372e-02
-1.443612e-01
-1.954601e-01
-2.531815e-01
-3.179266e-01
-3.898080e-01
-4.687541e-01
-5.545958e-01
-6.471058e-01
-7.460222e-01
-8.510629e-01
-9.619340e-01
-1.078336e+00
-1.199966e+00
-1.326525e+00
-1.457718e+00
-1.593259e+00
-1.732880e+00
-1.876339e+00
-2.023431e+00
-2.174009e+00
-2.328016e+00
-2.485529e+00
-2.646838e+00
-2.812586e+00
-2.984024e+00
-3.163545e+00
-3.355887e+00
-3.571276e+00
-3.833835e+00
-4.196567e+00
0.000000e+00
-3.506558e-02
-7.908036e-02
-1.252768e-01
-1.770874e-01
-2.354355e-01
-3.008093e-01
-3.733195e-01
-4.529008e-01
-5.393840e-01
-6.325403e-01
-7.321060e-01
-8.377965e-01
-9.493154e-01
-1.066360e+00
-1.188626e+00
-1.315808e+00
-1.447608e+00
-1.583736e+00
-1.723915e+00
-1.867896e+00
-2.015461e+00
-2.166453e+00
-2.320797e+00
-2.478548e+00
-2.639970e+00
-2.805673e+00
-2.976869e+00
-3.155900e+00
-3.347427e+00
-3.561152e+00
-3.817866e+00
-4.156751e+00
0.000000e+00
-2.575783e-02
-6.375463e-02
-1.093207e-01
-1.612213e-01
-2.199989e-01
-2.858884e-01
-3.589510e-01
-4.390988e-01
-5.261547e-01
-6.198862e-01
-7.200272e-01
-8.262919e-01
-9.383829e-01
-1.055996e+00
-1.178827e+00
-1.306568e+00
-1.438919e+00
-1.575588e+00
-1.716297e+00
-1.860793e+00
-2.008858e+00
-2.160334e+00
-2.315147e+00
-2.473361e+00
-2.635254e+00
-2.801462e+00
-2.973227e+00
-3.152866e+00
-3.344573e+00
-3.555518e+00
-3.794172e+00
-4.058909e+00
0.000000e+00
-2.062611e-02
-5.398777e-02
-9.712390e-02
-1.483573e-01
-2.071163e-01
-2.732874e-01
-3.467589e-01
-4.273730e-01
-5.149198e-01
-6.091518e-01
-7.097967e-01
-8.165661e-01
-9.291619e-01
-1.047281e+00
-1.170617e+00
-1.298868e+00
-1.431731e+00
-1.568917e+00
-1.710151e+00
-1.855182e+00
-2.003799e+00
-2.155850e+00
-2.311274e+00
-2.470148e+00
-2.632766e+00
-2.799758e+00
-2.972267e+00
-3.152188e+00
-3.342288e+00
-3.545211e+00
-3.759231e+00
-3.958461e+00
0.000000e+00
-1.745350e-02
-4.760074e-02
-8.846288e-02
-1.385282e-01
-1.969018e-01
-2.630975e-01
-3.368076e-01
-4.177659e-01
-5.057079e-01
-6.003586e-01
-7.014329e-01
-8.086373e-01
-9.216728e-01
-1.040237e+00
-1.164028e+00
-1.292742e+00
-1.426085e+00
-1.563768e+00
-1.705523e+00
-1.851103e+00
-2.000304e+00
-2.152980e+00
-2.309074e+00
-2.468659e+00
-2.631992e+00
-2.799585e+00
-2.972263e+00
-3.151116e+00
-3.337020e+00
-3.529089e+00
-3.720271e+00
-3.893778e+00
0.000000e+00
-1.543476e-02
-4.341011e-02
-8.250283e-02
-1.314411e-01
-1.892677e-01
-2.553193e-01
-3.291236e-01
-4.103085e-01
-4.985466e-01
-5.935290e-01
-6.949537e-01
-8.025201e-01
-9.159278e-01
-1.034876e+00
-1.159065e+00
-1.288196e+00
-1.421979e+00
-1.560130e+00
-1.702384e+00
-1.848499e+00
-1.998271e+00
-2.151551e+00
-2.308264e+00
-2.468439e+00
-2.632229e+00
-2.799923e+00
-2.971883e+00
-3.148309e+00
-3.328606e+00
-3.510025e+00
-3.686085e+00
-3.847003e+00
0.000000e+00
-1.418012e-02
-4.076060e-02
-7.862871e-02
-1.266933e-01
-1.840215e-01
-2.498769e-01
-3.236902e-01
-4.050090e-01
-4.934521e-01
-5.886791e-01
-6.903715e-01
-7.982219e-01
-9.119286e-01
-1.031193e+00
-1.155717e+00
-1.285209e+00
-1.419379e+00
-1.557950e+00
-1.700656e+00
-1.847255e+00
-1.997534e+00
-2.151323e+00
-2.308506e+00
-2.469029e+00
-2.632895e+00
-2.800120e+00
-2.970605e+00
-3.143861e+00
-3.318476e+00
-3.491429e+00
-3.657734e+00
-3.811280e+00
0.000000e+00
-1.349068e-02
-3.929044e-02
-7.644557e-02
-1.239709e-01
-1.809657e-01
-2.466699e-01
-3.204669e-01
-4.018580e-01
-4.904279e-01
-5.858151e-01
-6.876901e-01
-7.957412e-01
-9.096667e-01
-1.029170e+00
-1.153957e+00
-1.283738e+00
-1.418228e+00
-1.557148e+00
-1.700232e+00
-1.847227e+00
-1.997903e+00
-2.152055e+00
-2.309504e+00
-2.470093e+00
-2.633657e+00
-2.799955e+00
-2.968533e+00
-3.138491e+00
-3.308159e+00
-3.474810e+00
-3.634693e+00
-3.783639e+00
0.000000e+00
-1.326854e-02
-3.881614e-02
-7.573799e-02
-1.230836e-01
-1.799656e-01
-2.456193e-01
-3.194153e-01
-4.008406e-01
-4.894698e-01
-5.849351e-01
-6.869049e-01
-7.950679e-01
-9.091243e-01
-1.028780e+00
-1.153745e+00
-1.283732e+00
-1.418455e+00
-1.557635e+00
-1.700997e+00
-1.848275e+00
-1.999210e+00
-2.153553e+00
-2.311053e+00
-2.471445e+00
-2.634410e+00
-2.799504e+00
-2.966049e+00
-3.132967e+00
-3.298614e+00
-3.460685e+00
-3.616317e+00
-3.762456e+00
0.000000e+00
-1.348425e-02
-3.928153e-02
-7.643789e-02
-1.239685e-01
-1.809739e-01
-2.466952e-01
-3.205184e-01
-4.019475e-01
-4.905709e-01
-5.860314e-01
-6.880049e-01
-7.961855e-01
-9.102778e-01
-1.029991e+00
-1.155038e+00
-1.285132e+00
-1.419988e+00
-1.559320e+00
-1.702844e+00
-1.850274e+00
-2.001319e+00
-2.155681e+00
-2.313038e+00
-2.473026e+00
-2.635201e+00
-2.798983e+00
-2.963572e+00
-3.127861e+00
-3.290353e+00
-3.449148e+00
-3.602030e+00
-3.746668e+00
0.000000e+00
-1.416779e-02
-4.074348e-02
-7.861390e-02
-1.266887e-01
-1.840369e-01
-2.499250e-01
-3.237884e-01
-4.051799e-01
-4.937255e-01
-5.890932e-01
-6.909745e-01
-7.990735e-01
-9.131005e-01
-1.032769e+00
-1.157793e+00
-1.287886e+00
-1.422761e+00
-1.562126e+00
-1.705684e+00
-1.853128e+00
-2.004136e+00
-2.158360e+00
-2.315417e+00
-2.474859e+00
-2.636152e+00
-2.798629e+00
-2.961448e+00
-3.123544e+00
-3.283607e+00
-3.440099e+00
-3.591314e+00
-3.735461e+00
0.000000e+00
-1.541761e-02
-4.338631e-02
-8.248216e-02
-1.314344e-01
-1.892887e-01
-2.553859e-01
-3.292599e-01
-4.105464e-01
-4.989278e-01
-5.941070e-01
-6.957960e-01
-8.037103e-01
-9.175667e-01
-1.037082e+00
-1.161971e+00
-1.291948e+00
-1.426721e+00
-1.565992e+00
-1.709451e+00
-1.856771e+00
-2.007602e+00
-2.161554e+00
-2.318191e+00
-2.477004e+00
-2.637396e+00
-2.798652e+00
-2.959926e+00
-3.120229e+00
-3.278441e+00
-3.433344e+00
-3.583670e+00
-3.728114e+00
0.000000e+00
-1.743330e-02
-4.757273e-02
-8.843852e-02
-1.385205e-01
-1.969272e-01
-2.631778e-01
-3.369721e-01
-4.180532e-01
-5.061683e-01
-6.010570e-01
-7.024512e-01
-8.100767e-01
-9.236554e-01
-1.042906e+00
-1.167546e+00
-1.297285e+00
-1.431830e+00
-1.570875e+00
-1.714101e+00
-1.861163e+00
-2.011687e+00
-2.165253e+00
-2.321383e+00
-2.479525e+00
-2.639042e+00
-2.799198e+00
-2.959159e+00
-3.118014e+00
-3.274815e+00
-3.428629e+00
-3.578595e+00
-3.723909e+00
0.000000e+00
-2.060535e-02
-5.395902e-02
-9.709913e-02
-1.483506e-01
-2.071461e-01
-2.733779e-01
-3.469426e-01
-4.276925e-01
-5.154308e-01
-6.099260e-01
-7.109244e-01
-8.181589e-01
-9.313544e-01
-1.050231e+00
-1.174504e+00
-1.303883e+00
-1.438072e+00
-1.576759e+00
-1.719617e+00
-1.866289e+00
-2.016384e+00
-2.169459e+00
-2.325012e+00
-2.482465e+00
-2.641155e+00
-2.800338e+00
-2.959200e+00
-3.116897e+00
-3.272616e+00
-3.425665e+00
-3.575565e+00
-3.722077e+00
0.000000e+00
-2.573974e-02
-6.372945e-02
-1.092998e-01
-1.612193e-01
-2.200352e-01
-2.859885e-01
-3.591485e-01
-4.394383e-01
-5.266939e-01
-6.206990e-01
-7.212068e-01
-8.279531e-01
-9.406635e-01
-1.059058e+00
-1.182850e+00
-1.311750e+00
-1.445456e+00
-1.583654e+00
-1.726009e+00
-1.872161e+00
-2.021704e+00
-2.174188e+00
-2.329094e+00
-2.485832e+00
-2.643732e+00
-2.802053e+00
-2.959999e+00
-3.116772e+00
-3.271653e+00
-3.424127e+00
-3.574042e+00
-3.721756e+00
0.000000e+00
-3.505395e-02
-7.906323e-02
-1.252645e-01
-1.770950e-01
-2.354827e-01
-3.009220e-01
-3.735315e-01
-4.532564e-01
-5.399404e-01
-6.333706e-01
-7.333014e-01
-8.394688e-01
-9.515982e-01
-1.069408e+00
-1.192612e+00
-1.320916e+00
-1.454017e+00
-1.591598e+00
-1.733321e+00
-1.878819e+00
-2.027686e+00
-2.179464e+00
-2.333633e+00
-2.489603e+00
-2.646709e+00
-2.804220e+00
-2.961365e+00
-3.117382e+00
-3.271608e+00
-3.423627e+00
-3.573492e+00
-3.722029e+00
0.000000e+00
-5.642251e-02
-9.846801e-02
-1.443622e-01
-1.954832e-01
-2.532464e-01
-3.180591e-01
-3.900416e-01
-4.691322e-01
-5.551741e-01
-6.479545e-01
-7.472283e-01
-8.527318e-01
-9.641900e-01
-1.081321e+00
-1.203835e+00
-1.331437e+00
-1.463822e+00
-1.600668e+00
-1.741634e+00
-1.886349e+00
-2.034406e+00
-2.185345e+00