TITLE = "Solution"
VARIABLES = x, y, u, v, psiu, psiv, t, stress
ZONE T="structure" N=561 E=512 F=FEBLOCK ET=QUADRILATERAL VARLOCATION=([7,8]=cellcentered)
0.000000e+00
6.250000e+00
1.250000e+01
1.875000e+01
2.500000e+01
3.125000e+01
3.750000e+01
4.375000e+01
5.000000e+01
5.625000e+01
6.250000e+01
6.875000e+01
7.500000e+01
8.125000e+01
8.750000e+01
9.375000e+01
1.000000e+02
1.062500e+02
1.125000e+02
1.187500e+02
1.250000e+02
1.312500e+02
1.375000e+02
1.437500e+02
1.500000e+02
1.562500e+02
1.625000e+02
1.687500e+02
1.750000e+02
1.812500e+02
1.875000e+02
1.937500e+02
2.000000e+02
0.000000e+00
6.250000e+00
1.250000e+01
1.875000e+01
2.500000e+01
3.125000e+01
3.750000e+01
4.375000e+01
5.000000e+01
5.625000e+01
6.250000e+01
6.875000e+01
7.500000e+01
8.125000e+01
8.750000e+01
9.375000e+01
1.000000e+02
1.062500e+02
1.125000e+02
1.187500e+02
1.250000e+02
1.312500e+02
1.375000e+02
1.437500e+02
1.500000e+02
1.562500e+02
1.625000e+02
1.687500e+02
1.750000e+02
1.812500e+02
1.875000e+02
1.937500e+02
2.000000e+02
0.000000e+00
6.250000e+00
1.250000e+01
1.875000e+01
2.500000e+01
3.125000e+01
3.750000e+01
4.375000e+01
5.000000e+01
5.625000e+01
6.250000e+01
6.875000e+01
7.500000e+01
8.125000e+01
8.750000e+01
9.375000e+01
1.000000e+02
1.062500e+02
1.125000e+02
1.187500e+02
1.250000e+02
1.312500e+02
1.375000e+02
1.437500e+02
1.500000e+02
1.562500e+02
1.625000e+02
1.687500e+02
1.750000e+02
1.812500e+02
1.875000e+02
1.937500e+02
2.000000e+02
0.000000e+00
6.250000e+00
1.250000e+01
1.875000e+01
2.500000e+01
3.125000e+01
3.750000e+01
4.375000e+01
5.000000e+01
5.625000e+01
6.250000e+01
6.875000e+01
7.500000e+01
8.125000e+01
8.750000e+01
9.375000e+01
1.000000e+02
1.062500e+02
1.125000e+02
1.187500e+02
1.250000e+02
1.312500e+02
1.375000e+02
1.437500e+02
1.500000e+02
1.562500e+02
1.625000e+02
1.687500e+02
1.750000e+02
1.812500e+02
1.875000e+02
1.937500e+02
2.000000e+02
0.000000e+00
6.250000e+00
1.250000e+01
1.875000e+01
2.500000e+01
3.125000e+01
3.750000e+01
4.375000e+01
5.000000e+01
5.625000e+01
6.250000e+01
6.875000e+01
7.500000e+01
8.125000e+01
8.750000e+01
9.375000e+01
1.000000e+02
1.062500e+02
1.125000e+02
1.187500e+02
1.250000e+02
1.312500e+02
1.375000e+02
1.437500e+02
1.500000e+02
1.562500e+02
1.625000e+02
1.687500e+02
1.750000e+02
1.812500e+02
1.875000e+02
1.937500e+02
2.000000e+02
0.000000e+00
6.250000e+00
1.250000e+01
1.875000e+01
2.500000e+01
3.125000e+01
3.750000e+01
4.375000e+01
5.000000e+01
5.625000e+01
6.250000e+01
6.875000e+01
7.500000e+01
8.125000e+01
8.750000e+01
9.375000e+01
1.000000e+02
1.062500e+02
1.125000e+02
1.187500e+02
1.250000e+02
1.312500e+02
1.375000e+02
1.437500e+02
1.500000e+02
1.562500e+02
1.625000e+02
1.687500e+02
1.750000e+02
1.812500e+02
1.875000e+02
1.937500e+02
2.000000e+02
0.000000e+00
6.250000e+00
1.250000e+01
1.875000e+01
2.500000e+01
3.125000e+01
3.750000e+01
4.375000e+01
5.000000e+01
5.625000e+01
6.250000e+01
6.875000e+01
7.500000e+01
8.125000e+01
8.750000e+01
9.375000e+01
1.000000e+02
1.062500e+02
1.125000e+02
1.187500e+02
1.250000e+02
1.312500e+02
1.375000e+02
1.437500e+02
1.500000e+02
1.562500e+02
1.625000e+02
1.687500e+02
1.750000e+02
1.812500e+02
1.875000e+02
1.937500e+02
2.000000e+02
0.000000e+00
6.250000e+00
1.250000e+01
1.875000e+01
2.500000e+01
3.125000e+01
3.750000e+01
4.375000e+01
5.000000e+01
5.625000e+01
6.250000e+01
6.875000e+01
7.500000e+01
8.125000e+01
8.750000e+01
9.375000e+01
1.000000e+02
1.062500e+02
1.125000e+02
1.187500e+02
1.250000e+02
1.312500e+02
1.375000e+02
1.437500e+02
1.500000e+02
1.562500e+02
1.625000e+02
1.687500e+02
1.750000e+02
1.812500e+02
1.875000e+02
1.937500e+02
2.000000e+02
0.000000e+00
6.250000e+00
1.250000e+01
1.875000e+01
2.500000e+01
3.125000e+01
3.750000e+01
4.375000e+01
5.000000e+01
5.625000e+01
6.250000e+01
6.875000e+01
7.500000e+01
8.125000e+01
8.750000e+01
9.375000e+01
1.000000e+02
1.062500e+02
1.125000e+02
1.187500e+02
1.250000e+02
1.312500e+02
1.375000e+02
1.437500e+02
1.500000e+02
1.562500e+02
1.625000e+02
1.687500e+02
1.750000e+02
1.812500e+02
1.875000e+02
1.937500e+02
2.000000e+02
0.000000e+00
6.250000e+00
1.250000e+01
1.875000e+01
2.500000e+01
3.125000e+01
3.750000e+01
4.375000e+01
5.000000e+01
5.625000e+01
6.250000e+01
6.875000e+01
7.500000e+01
8.125000e+01
8.750000e+01
9.375000e+01
1.000000e+02
1.062500e+02
1.125000e+02
1.187500e+02
1.250000e+02
1.312500e+02
1.375000e+02
1.437500e+02
1.500000e+02
1.562500e+02
1.625000e+02
1.687500e+02
1.750000e+02
1.812500e+02
1.875000e+02
1.937500e+02
2.000000e+02
0.000000e+00
6.250000e+00
1.250000e+01
1.875000e+01
2.500000e+01
3.125000e+01
3.750000e+01
4.375000e+01
5.000000e+01
5.625000e+01
6.250000e+01
6.875000e+01
7.500000e+01
8.125000e+01
8.750000e+01
9.375000e+01
1.000000e+02
1.062500e+02
1.125000e+02
1.187500e+02
1.250000e+02
1.312500e+02
1.375000e+02
1.437500e+02
1.500000e+02
1.562500e+02
1.625000e+02
1.687500e+02
1.750000e+02
1.812500e+02
1.875000e+02
1.937500e+02
2.000000e+02
0.000000e+00
6.250000e+00
1.250000e+01
1.875000e+01
2.500000e+01
3.125000e+01
3.750000e+01
4.375000e+01
5.000000e+01
5.625000e+01
6.250000e+01
6.875000e+01
7.500000e+01
8.125000e+01
8.750000e+01
9.375000e+01
1.000000e+02
1.062500e+02
1.125000e+02
1.187500e+02
1.250000e+02
1.312500e+02
1.375000e+02
1.437500e+02
1.500000e+02
1.562500e+02
1.625000e+02
1.687500e+02
1.750000e+02
1.812500e+02
1.875000e+02
1.937500e+02
2.000000e+02
0.000000e+00
6.250000e+00
1.250000e+01
1.875000e+01
2.500000e+01
3.125000e+01
3.750000e+01
4.375000e+01
5.000000e+01
5.625000e+01
6.250000e+01
6.875000e+01
7.500000e+01
8.125000e+01
8.750000e+01
9.375000e+01
1.000000e+02
1.062500e+02
1.125000e+02
1.187500e+02
1.250000e+02
1.312500e+02
1.375000e+02
1.437500e+02
1.500000e+02
1.562500e+02
1.625000e+02
1.687500e+02
1.750000e+02
1.812500e+02
1.875000e+02
1.937500e+02
2.000000e+02
0.000000e+00
6.250000e+00
1.250000e+01
1.875000e+01
2.500000e+01
3.125000e+01
3.750000e+01
4.375000e+01
5.000000e+01
5.625000e+01
6.250000e+01
6.875000e+01
7.500000e+01
8.125000e+01
8.750000e+01
9.375000e+01
1.000000e+02
1.062500e+02
1.125000e+02
1.187500e+02
1.250000e+02
1.312500e+02
1.375000e+02
1.437500e+02
1.500000e+02
1.562500e+02
1.625000e+02
1.687500e+02
1.750000e+02
1.812500e+02
1.875000e+02
1.937500e+02
2.000000e+02
0.000000e+00
6.250000e+00
1.250000e+01
1.875000e+01
2.500000e+01
3.125000e+01
3.750000e+01
4.375000e+01
5.000000e+01
5.625000e+01
6.250000e+01
6.875000e+01
7.500000e+01
8.125000e+01
8.750000e+01
9.375000e+01
1.000000e+02
1.062500e+02
1.125000e+02
1.187500e+02
1.250000e+02
1.312500e+02
1.375000e+02
1.437500e+02
1.500000e+02
1.562500e+02
1.625000e+02
1.687500e+02
1.750000e+02
1.812500e+02
1.875000e+02
1.937500e+02
2.000000e+02
0.000000e+00
6.250000e+00
1.250000e+01
1.875000e+01
2.500000e+01
3.125000e+01
3.750000e+01
4.375000e+01
5.000000e+01
5.625000e+01
6.250000e+01
6.875000e+01
7.500000e+01
8.125000e+01
8.750000e+01
9.375000e+01
1.000000e+02
1.062500e+02
1.125000e+02
1.187500e+02
1.250000e+02
1.312500e+02
1.375000e+02
1.437500e+02
1.500000e+02
1.562500e+02
1.625000e+02
1.687500e+02
1.750000e+02
1.812500e+02
1.875000e+02
1.937500e+02
2.000000e+02
0.000000e+00
6.250000e+00
1.250000e+01
1.875000e+01
2.500000e+01
3.125000e+01
3.750000e+01
4.375000e+01
5.000000e+01
5.625000e+01
6.250000e+01
6.875000e+01
7.500000e+01
8.125000e+01
8.750000e+01
9.375000e+01
1.000000e+02
1.062500e+02
1.125000e+02
1.187500e+02
1.250000e+02
1.312500e+02
1.375000e+02
1.437500e+02
1.500000e+02
1.562500e+02
1.625000e+02
1.687500e+02
1.750000e+02
1.812500e+02
1.875000e+02
1.937500e+02
2.000000e+02
0.000000e+00
0.000000e+00
0.000000e+00
0.000000e+00
0.000000e+00
0.000000e+00
0.000000e+00
0.000000e+00
0.000000e+00
0.000000e+00
0.000000e+00
0.000000e+00
0.000000e+00
0.000000e+00
0.000000e+00
0.000000e+00
0.000000e+00
0.000000e+00
0.000000e+00
0.000000e+00
0.000000e+00
0.000000e+00
0.000000e+00
0.000000e+00
0.000000e+00
0.000000e+00
0.000000e+00
0.000000e+00
0.000000e+00
0.000000e+00
0.000000e+00
0.000000e+00
0.000000e+00
6.250000e+00
6.250000e+00
6.250000e+00
6.250000e+00
6.250000e+00
6.250000e+00
6.250000e+00
6.250000e+00
6.250000e+00
6.250000e+00
6.250000e+00
6.250000e+00
6.250000e+00
6.250000e+00
6.250000e+00
6.250000e+00
6.250000e+00
6.250000e+00
6.250000e+00
6.250000e+00
6.250000e+00
6.250000e+00
6.250000e+00
6.250000e+00
6.250000e+00
6.250000e+00
6.250000e+00
6.250000e+00
6.250000e+00
6.250000e+00
6.250000e+00
6.250000e+00
6.250000e+00
1.250000e+01
1.250000e+01
1.250000e+01
1.250000e+01
1.250000e+01
1.250000e+01
1.250000e+01
1.250000e+01
1.250000e+01
1.250000e+01
1.250000e+01
1.250000e+01
1.250000e+01
1.250000e+01
1.250000e+01
1.250000e+01
1.250000e+01
1.250000e+01
1.250000e+01
1.250000e+01
1.250000e+01
1.250000e+01
1.250000e+01
1.250000e+01
1.250000e+01
1.250000e+01
1.250000e+01
1.250000e+01
1.250000e+01
1.250000e+01
1.250000e+01
1.250000e+01
1.250000e+01
1.875000e+01
1.875000e+01
1.875000e+01
1.875000e+01
1.875000e+01
1.875000e+01
1.875000e+01
1.875000e+01
1.875000e+01
1.875000e+01
1.875000e+01
1.875000e+01
1.875000e+01
1.875000e+01
1.875000e+01
1.875000e+01
1.875000e+01
1.875000e+01
1.875000e+01
1.875000e+01
1.875000e+01
1.875000e+01
1.875000e+01
1.875000e+01
1.875000e+01
1.875000e+01
1.875000e+01
1.875000e+01
1.875000e+01
1.875000e+01
1.875000e+01
1.875000e+01
1.875000e+01
2.500000e+01
2.500000e+01
2.500000e+01
2.500000e+01
2.500000e+01
2.500000e+01
2.500000e+01
2.500000e+01
2.500000e+01
2.500000e+01
2.500000e+01
2.500000e+01
2.500000e+01
2.500000e+01
2.500000e+01
2.500000e+01
2.500000e+01
2.500000e+01
2.500000e+01
2.500000e+01
2.500000e+01
2.500000e+01
2.500000e+01
2.500000e+01
2.500000e+01
2.500000e+01
2.500000e+01
2.500000e+01
2.500000e+01
2.500000e+01
2.500000e+01
2.500000e+01
2.500000e+01
3.125000e+01
3.125000e+01
3.125000e+01
3.125000e+01
3.125000e+01
3.125000e+01
3.125000e+01
3.125000e+01
3.125000e+01
3.125000e+01
3.125000e+01
3.125000e+01
3.125000e+01
3.125000e+01
3.125000e+01
3.125000e+01
3.125000e+01
3.125000e+01
3.125000e+01
3.125000e+01
3.125000e+01
3.125000e+01
3.125000e+01
3.125000e+01
3.125000e+01
3.125000e+01
3.125000e+01
3.125000e+01
3.125000e+01
3.125000e+01
3.125000e+01
3.125000e+01
3.125000e+01
3.750000e+01
3.750000e+01
3.750000e+01
3.750000e+01
3.750000e+01
3.750000e+01
3.750000e+01
3.750000e+01
3.750000e+01
3.750000e+01
3.750000e+01
3.750000e+01
3.750000e+01
3.750000e+01
3.750000e+01
3.750000e+01
3.750000e+01
3.750000e+01
3.750000e+01
3.750000e+01
3.750000e+01
3.750000e+01
3.750000e+01
3.750000e+01
3.750000e+01
3.750000e+01
3.750000e+01
3.750000e+01
3.750000e+01
3.750000e+01
3.750000e+01
3.750000e+01
3.750000e+01
4.375000e+01
4.375000e+01
4.375000e+01
4.375000e+01
4.375000e+01
4.375000e+01
4.375000e+01
4.375000e+01
4.375000e+01
4.375000e+01
4.375000e+01
4.375000e+01
4.375000e+01
4.375000e+01
4.375000e+01
4.375000e+01
4.375000e+01
4.375000e+01
4.375000e+01
4.375000e+01
4.375000e+01
4.375000e+01
4.375000e+01
4.375000e+01
4.375000e+01
4.375000e+01
4.375000e+01
4.375000e+01
4.375000e+01
4.375000e+01
4.375000e+01
4.375000e+01
4.375000e+01
5.000000e+01
5.000000e+01
5.000000e+01
5.000000e+01
5.000000e+01
5.000000e+01
5.000000e+01
5.000000e+01
5.000000e+01
5.000000e+01
5.000000e+01
5.000000e+01
5.000000e+01
5.000000e+01
5.000000e+01
5.000000e+01
5.000000e+01
5.000000e+01
5.000000e+01
5.000000e+01
5.000000e+01
5.000000e+01
5.000000e+01
5.000000e+01
5.000000e+01
5.000000e+01
5.000000e+01
5.000000e+01
5.000000e+01
5.000000e+01
5.000000e+01
5.000000e+01
5.000000e+01
5.625000e+01
5.625000e+01
5.625000e+01
5.625000e+01
5.625000e+01
5.625000e+01
5.625000e+01
5.625000e+01
5.625000e+01
5.625000e+01
5.625000e+01
5.625000e+01
5.625000e+01
5.625000e+01
5.625000e+01
5.625000e+01
5.625000e+01
5.625000e+01
5.625000e+01
5.625000e+01
5.625000e+01
5.625000e+01
5.625000e+01
5.625000e+01
5.625000e+01
5.625000e+01
5.625000e+01
5.625000e+01
5.625000e+01
5.625000e+01
5.625000e+01
5.625000e+01
5.625000e+01
6.250000e+01
6.250000e+01
6.250000e+01
6.250000e+01
6.250000e+01
6.250000e+01
6.250000e+01
6.250000e+01
6.250000e+01
6.250000e+01
6.250000e+01
6.250000e+01
6.250000e+01
6.250000e+01
6.250000e+01
6.250000e+01
6.250000e+01
6.250000e+01
6.250000e+01
6.250000e+01
6.250000e+01
6.250000e+01
6.250000e+01
6.250000e+01
6.250000e+01
6.250000e+01
6.250000e+01
6.250000e+01
6.250000e+01
6.250000e+01
6.250000e+01
6.250000e+01
6.250000e+01
6.875000e+01
6.875000e+01
6.875000e+01
6.875000e+01
6.875000e+01
6.875000e+01
6.875000e+01
6.875000e+01
6.875000e+01
6.875000e+01
6.875000e+01
6.875000e+01
6.875000e+01
6.875000e+01
6.875000e+01
6.875000e+01
6.875000e+01
6.875000e+01
6.875000e+01
6.875000e+01
6.875000e+01
6.875000e+01
6.875000e+01
6.875000e+01
6.875000e+01
6.875000e+01
6.875000e+01
6.875000e+01
6.875000e+01
6.875000e+01
6.875000e+01
6.875000e+01
6.875000e+01
7.500000e+01
7.500000e+01
7.500000e+01
7.500000e+01
7.500000e+01
7.500000e+01
7.500000e+01
7.500000e+01
7.500000e+01
7.500000e+01
7.500000e+01
7.500000e+01
7.500000e+01
7.500000e+01
7.500000e+01
7.500000e+01
7.500000e+01
7.500000e+01
7.500000e+01
7.500000e+01
7.500000e+01
7.500000e+01
7.500000e+01
7.500000e+01
7.500000e+01
7.500000e+01
7.500000e+01
7.500000e+01
7.500000e+01
7.500000e+01
7.500000e+01
7.500000e+01
7.500000e+01
8.125000e+01
8.125000e+01
8.125000e+01
8.125000e+01
8.125000e+01
8.125000e+01
8.125000e+01
8.125000e+01
8.125000e+01
8.125000e+01
8.125000e+01
8.125000e+01
8.125000e+01
8.125000e+01
8.125000e+01
8.125000e+01
8.125000e+01
8.125000e+01
8.125000e+01
8.125000e+01
8.125000e+01
8.125000e+01
8.125000e+01
8.125000e+01
8.125000e+01
8.125000e+01
8.125000e+01
8.125000e+01
8.125000e+01
8.125000e+01
8.125000e+01
8.125000e+01
8.125000e+01
8.750000e+01
8.750000e+01
8.750000e+01
8.750000e+01
8.750000e+01
8.750000e+01
8.750000e+01
8.750000e+01
8.750000e+01
8.750000e+01
8.750000e+01
8.750000e+01
8.750000e+01
8.750000e+01
8.750000e+01
8.750000e+01
8.750000e+01
8.750000e+01
8.750000e+01
8.750000e+01
8.750000e+01
8.750000e+01
8.750000e+01
8.750000e+01
8.750000e+01
8.750000e+01
8.750000e+01
8.750000e+01
8.750000e+01
8.750000e+01
8.750000e+01
8.750000e+01
8.750000e+01
9.375000e+01
9.375000e+01
9.375000e+01
9.375000e+01
9.375000e+01
9.375000e+01
9.375000e+01
9.375000e+01
9.375000e+01
9.375000e+01
9.375000e+01
9.375000e+01
9.375000e+01
9.375000e+01
9.375000e+01
9.375000e+01
9.375000e+01
9.375000e+01
9.375000e+01
9.375000e+01
9.375000e+01
9.375000e+01
9.375000e+01
9.375000e+01
9.375000e+01
9.375000e+01
9.375000e+01
9.375000e+01
9.375000e+01
9.375000e+01
9.375000e+01
9.375000e+01
9.375000e+01
1.000000e+02
1.000000e+02
1.000000e+02
1.000000e+02
1.000000e+02
1.000000e+02
1.000000e+02
1.000000e+02
1.000000e+02
1.000000e+02
1.000000e+02
1.000000e+02
1.000000e+02
1.000000e+02
1.000000e+02
1.000000e+02
1.000000e+02
1.000000e+02
1.000000e+02
1.000000e+02
1.000000e+02
1.000000e+02
1.000000e+02
1.000000e+02
1.000000e+02
1.000000e+02
1.000000e+02
1.000000e+02
1.000000e+02
1.000000e+02
1.000000e+02
1.000000e+02
1.000000e+02
0.000000e+00
-4.565865e-01
-7.667052e-01
-1.100480e+00
-1.405238e+00
-1.701993e+00
-2.010958e+00
-2.304134e+00
-2.605466e+00
-2.902935e+00
-3.201160e+00
-3.501316e+00
-3.799929e+00
-4.100015e+00
-4.400033e+00
-4.699999e+00
-5.000586e+00
-5.300950e+00
-5.601445e+00
-5.902333e+00
-6.202841e+00
-6.503868e+00
-6.804129e+00
-7.103411e+00
-7.405705e+00
-7.707844e+00
-8.018662e+00
-8.342440e+00
-8.668000e+00
-9.038224e+00
-9.509708e+00
-9.925237e+00
-1.013198e+01
0.000000e+00
-2.330505e-01
-4.746689e-01
-7.388907e-01
-1.005681e+00
-1.259481e+00
-1.528396e+00
-1.788659e+00
-2.051001e+00
-2.315578e+00
-2.575747e+00
-2.840032e+00
-3.101266e+00
-3.363546e+00
-3.625992e+00
-3.887156e+00
-4.149501e+00
-4.410746e+00
-4.672153e+00
-4.933711e+00
-5.194296e+00
-5.455716e+00
-5.716286e+00
-5.976824e+00
-6.238702e+00
-6.497994e+00
-6.759736e+00
-7.021433e+00
-7.276353e+00
-7.539485e+00
-7.781949e+00
-7.878340e+00
-7.983884e+00
0.000000e+00
-1.149853e-01
-2.623826e-01
-4.593500e-01
-6.736446e-01
-8.796457e-01
-1.105838e+00
-1.328216e+00
-1.552149e+00
-1.779981e+00
-2.002553e+00
-2.229080e+00
-2.452855e+00
-2.677295e+00
-2.901912e+00
-3.125414e+00
-3.350040e+00
-3.573890e+00
-3.798073e+00
-4.022519e+00
-4.246225e+00
-4.470706e+00
-4.694989e+00
-4.918979e+00
-5.141847e+00
-5.358729e+00
-5.567712e+00
-5.763724e+00
-5.940079e+00
-6.087305e+00
-6.165039e+00
-6.168368e+00
-6.261077e+00
0.000000e+00
-1.026989e-01
-1.923539e-01
-3.386675e-01
-4.651423e-01
-6.230947e-01
-7.978323e-01
-9.701284e-01
-1.154792e+00
-1.336283e+00
-1.520868e+00
-1.706212e+00
-1.891903e+00
-2.078529e+00
-2.265775e+00
-2.453525e+00
-2.642400e+00
-2.831923e+00
-3.022099e+00
-3.213075e+00
-3.403727e+00
-3.594205e+00
-3.783291e+00
-3.968161e+00
-4.146621e+00
-4.312919e+00
-4.462524e+00
-4.591145e+00
-4.689635e+00
-4.747585e+00
-4.758314e+00
-4.772499e+00
-4.853793e+00
0.000000e+00
-9.107658e-02
-1.809171e-01
-2.729110e-01
-3.824558e-01
-4.998164e-01
-6.303482e-01
-7.652141e-01
-9.072757e-01
-1.051067e+00
-1.196304e+00
-1.344064e+00
-1.490868e+00
-1.639623e+00
-1.788174e+00
-1.937139e+00
-2.086921e+00
-2.236227e+00
-2.385789e+00
-2.534466e+00
-2.681420e+00
-2.825833e+00
-2.965509e+00
-3.098443e+00
-3.221608e+00
-3.331622e+00
-3.424433e+00
-3.495203e+00
-3.539424e+00
-3.556757e+00
-3.553787e+00
-3.582861e+00
-3.657298e+00
0.000000e+00
-7.271517e-02
-1.430977e-01
-2.171277e-01
-2.976587e-01
-3.856108e-01
-4.798304e-01
-5.803832e-01
-6.841618e-01
-7.911651e-01
-8.995272e-01
-1.008578e+00
-1.118401e+00
-1.228028e+00
-1.337911e+00
-1.447554e+00
-1.556800e+00
-1.665551e+00
-1.773082e+00
-1.878905e+00
-1.981912e+00
-2.080631e+00
-2.173412e+00
-2.258062e+00
-2.332321e+00
-2.393847e+00
-2.440340e+00
-2.469584e+00
-2.481618e+00
-2.474514e+00
-2.469732e+00
-2.498960e+00
-2.567527e+00
0.000000e+00
-5.014458e-02
-9.986775e-02
-1.509069e-01
-2.053840e-01
-2.638391e-01
-3.264602e-01
-3.924993e-01
-4.612905e-01
-5.317836e-01
-6.032910e-01
-6.752077e-01
-7.471047e-01
-8.188055e-01
-8.900362e-01
-9.606523e-01
-1.030405e+00
-1.098969e+00
-1.165909e+00
-1.230513e+00
-1.291783e+00
-1.348366e+00
-1.398655e+00
-1.440911e+00
-1.473358e+00
-1.494286e+00
-1.502743e+00
-1.497885e+00
-1.476782e+00
-1.448278e+00
-1.438620e+00
-1.467180e+00
-1.535705e+00
0.000000e+00
-2.636903e-02
-5.264333e-02
-7.952354e-02
-1.077268e-01
-1.377103e-01
-1.694645e-01
-2.027751e-01
-2.371793e-01
-2.722238e-01
-3.074369e-01
-3.424593e-01
-3.770317e-01
-4.109445e-01
-4.440307e-01
-4.760818e-01
-5.068718e-01
-5.361286e-01
-5.634920e-01
-5.884385e-01
-6.101620e-01
-6.275282e-01
-6.391811e-01
-6.438339e-01
-6.401509e-01
-6.270296e-01
-6.025735e-01
-5.631953e-01
-5.161299e-01
-4.719884e-01
-4.559327e-01
-4.851051e-01
-5.549828e-01
0.000000e+00
-1.854101e-03
-3.761216e-03
-5.654368e-03
-7.463274e-03
-9.108177e-03
-1.050046e-02
-1.153972e-02
-1.211824e-02
-1.211787e-02
-1.141767e-02
-9.901488e-03
-7.465105e-03
-4.001402e-03
6.302905e-04
6.616872e-03
1.416863e-02
2.349239e-02
3.480010e-02
4.836226e-02
6.464027e-02
8.439785e-02
1.087089e-01
1.387225e-01
1.750646e-01
2.202169e-01
2.778159e-01
3.447606e-01
4.093579e-01
4.538865e-01
4.647123e-01
4.317086e-01
3.598014e-01
0.000000e+00
2.274051e-02
4.528384e-02
6.846575e-02
9.315073e-02
1.199543e-01
1.490523e-01
1.804168e-01
2.137859e-01
2.488993e-01
2.854899e-01
3.233933e-01
3.625440e-01
4.029574e-01
4.447660e-01
4.881463e-01
5.332996e-01
5.804041e-01
6.296067e-01
6.810184e-01
7.347379e-01
7.910971e-01
8.506215e-01
9.142559e-01
9.850350e-01
1.064481e+00
1.148450e+00
1.231049e+00
1.298743e+00
1.338028e+00
1.338642e+00
1.301240e+00
1.241119e+00
0.000000e+00
4.674484e-02
9.296722e-02
1.405613e-01
1.917936e-01
2.474014e-01
3.077521e-01
3.723192e-01
4.405568e-01
5.115538e-01
5.846867e-01
6.594177e-01
7.354092e-01
8.126679e-01
8.912572e-01
9.714148e-01
1.053276e+00
1.137037e+00
1.223019e+00
1.311519e+00
1.402914e+00
1.497221e+00
1.594397e+00
1.695550e+00
1.800017e+00
1.906166e+00
2.007964e+00
2.094222e+00
2.156953e+00
2.187515e+00
2.184791e+00
2.155723e+00
2.111927e+00
0.000000e+00
6.965991e-02
1.368840e-01
2.078073e-01
2.855002e-01
3.710451e-01
4.636732e-01
5.635307e-01
6.678295e-01
7.764121e-01
8.875458e-01
1.000411e+00
1.114944e+00
1.230368e+00
1.347275e+00
1.465440e+00
1.584756e+00
1.705276e+00
1.827240e+00
1.951778e+00
2.080406e+00
2.214154e+00
2.351341e+00
2.487290e+00
2.618584e+00
2.742087e+00
2.851869e+00
2.940205e+00
3.000193e+00
3.031494e+00
3.035908e+00
3.018378e+00
2.990368e+00
0.000000e+00
8.851048e-02
1.755094e-01
2.647896e-01
3.716598e-01
4.872548e-01
6.166653e-01
7.521054e-01
8.956149e-01
1.042642e+00
1.192240e+00
1.345291e+00
1.498770e+00
1.655247e+00
1.813292e+00
1.973507e+00
2.135702e+00
2.299050e+00
2.463800e+00
2.629379e+00
2.796698e+00
2.963923e+00
3.128990e+00
3.289402e+00
3.440320e+00
3.577644e+00
3.696239e+00
3.790399e+00
3.858158e+00
3.898132e+00
3.911908e+00
3.905534e+00
3.890733e+00
0.000000e+00
1.007888e-01
1.885582e-01
3.317104e-01
4.557750e-01
6.115454e-01
7.855126e-01
9.580618e-01
1.144877e+00
1.329445e+00
1.518782e+00
1.709102e+00
1.900923e+00
2.095625e+00
2.293350e+00
2.493926e+00
2.697261e+00
2.903445e+00
3.111776e+00
3.320931e+00
3.527793e+00
3.728828e+00
3.921823e+00
4.106548e+00
4.280571e+00
4.437029e+00
4.570586e+00
4.676763e+00
4.753797e+00
4.802277e+00
4.824955e+00
4.827949e+00
4.823051e+00
0.000000e+00
1.148330e-01
2.614576e-01
4.563822e-01
6.680279e-01
8.715477e-01
1.095719e+00
1.317227e+00
1.541109e+00
1.770416e+00
1.995196e+00
2.224339e+00
2.451150e+00
2.679679e+00
2.909997e+00
3.140426e+00
3.372266e+00
3.604345e+00
3.837463e+00
4.071123e+00
4.302819e+00
4.529712e+00
4.751695e+00
4.968698e+00
5.172825e+00
5.352946e+00
5.501485e+00
5.616731e+00
5.699823e+00
5.753373e+00
5.781569e+00
5.790820e+00
5.791915e+00
0.000000e+00
2.334231e-01
4.753117e-01
7.394756e-01
1.006001e+00
1.259640e+00
1.528053e+00
1.787931e+00
2.049839e+00
2.313804e+00
2.573432e+00
2.836906e+00
3.097248e+00
3.358330e+00
3.619222e+00
3.878556e+00
4.138370e+00
4.396532e+00
4.653675e+00
4.910083e+00
5.164380e+00
5.417352e+00
5.670920e+00
5.921607e+00
6.152998e+00
6.349989e+00
6.507298e+00
6.625059e+00
6.706355e+00
6.756398e+00
6.782074e+00
6.791416e+00
6.793702e+00
0.000000e+00
4.565475e-01
7.678518e-01
1.103442e+00
1.410635e+00
1.709834e+00
2.020877e+00
2.315057e+00
2.617025e+00
2.913361e+00
3.209888e+00
3.507635e+00
3.803046e+00
4.098725e+00
4.392235e+00
4.683970e+00
4.975181e+00
5.264798e+00
5.552263e+00
5.839484e+00
6.125251e+00
6.412864e+00
6.702941e+00
6.986091e+00
7.239698e+00
7.448122e+00
7.607105e+00
7.717532e+00
7.783778e+00
7.813799e+00
7.819290e+00
7.814738e+00
7.812168e+00
0.000000e+00
-2.724091e-01
-5.669442e-01
-9.400726e-01
-1.349729e+00
-1.799217e+00
-2.290154e+00
-2.813810e+00
-3.375594e+00
-3.972053e+00
-4.604621e+00
-5.274799e+00
-5.981275e+00
-6.726057e+00
-7.508257e+00
-8.328591e+00
-9.187363e+00
-1.008424e+01
-1.101996e+01
-1.199428e+01
-1.300771e+01
-1.406072e+01
-1.515309e+01
-1.628543e+01
-1.745777e+01
-1.867175e+01
-1.993257e+01
-2.124588e+01
-2.262246e+01
-2.408108e+01
-2.563789e+01
-2.745201e+01
-3.000450e+01
0.000000e+00
-1.742394e-01
-4.868035e-01
-8.526361e-01
-1.267626e+00
-1.714711e+00
-2.205806e+00
-2.730658e+00
-3.291160e+00
-3.888552e+00
-4.520508e+00
-5.190825e+00
-5.897430e+00
-6.641980e+00
-7.424398e+00
-8.244618e+00
-9.103433e+00
-1.000038e+01
-1.093601e+01
-1.191043e+01
-1.292374e+01
-1.397675e+01
-1.506928e+01
-1.620131e+01
-1.737375e+01
-1.858727e+01
-1.984634e+01
-2.115951e+01
-2.253432e+01
-2.398622e+01
-2.556379e+01
-2.736248e+01
-2.962703e+01
0.000000e+00
-1.496437e-01
-4.289354e-01
-7.944581e-01
-1.200959e+00
-1.645989e+00
-2.135572e+00
-2.659128e+00
-3.219564e+00
-3.816568e+00
-4.448750e+00
-5.118920e+00
-5.825853e+00
-6.570331e+00
-7.353001e+00
-8.173238e+00
-9.032132e+00
-9.929213e+00
-1.086480e+01
-1.183943e+01
-1.285263e+01
-1.390554e+01
-1.499806e+01
-1.613009e+01
-1.730371e+01
-1.851879e+01
-1.978039e+01
-2.109724e+01
-2.247701e+01
-2.394982e+01
-2.556572e+01
-2.725758e+01
-2.901695e+01
0.000000e+00
-1.844667e-01
-4.248791e-01
-7.823206e-01
-1.163014e+00
-1.600457e+00
-2.086336e+00
-2.603214e+00
-3.164214e+00
-3.758981e+00
-4.391091e+00
-5.061321e+00
-5.767817e+00
-6.512683e+00
-7.295280e+00
-8.115507e+00
-8.974590e+00
-9.871603e+00
-1.080735e+01
-1.178223e+01
-1.279565e+01
-1.384892e+01
-1.494214e+01
-1.607563e+01
-1.725189e+01
-1.847147e+01
-1.973883e+01
-2.106193e+01
-2.245161e+01
-2.394072e+01
-2.555006e+01
-2.710514e+01
-2.851420e+01
0.000000e+00
-2.026507e-01
-4.555159e-01
-7.815650e-01
-1.158582e+00
-1.580765e+00
-2.057563e+00
-2.568891e+00
-3.125524e+00
-3.718899e+00
-4.349338e+00
-5.019795e+00
-5.725666e+00
-6.470930e+00
-7.253548e+00
-8.073877e+00
-8.933257e+00
-9.830355e+00
-1.076660e+01
-1.174198e+01
-1.275639e+01
-1.381104e+01
-1.490610e+01
-1.604258e+01
-1.722211e+01
-1.844645e+01
-1.971938e+01
-2.104704e+01
-2.243872e+01
-2.391774e+01
-2.545887e+01
-2.690197e+01
-2.816186e+01
0.000000e+00
-2.103866e-01
-4.705991e-01
-7.867002e-01
-1.155050e+00
-1.572603e+00
-2.038195e+00
-2.547308e+00
-3.098549e+00
-3.690166e+00
-4.320350e+00
-4.989430e+00
-5.696394e+00
-6.441417e+00
-7.224581e+00
-8.045685e+00
-8.905296e+00
-9.803433e+00
-1.074055e+01
-1.171719e+01
-1.273367e+01
-1.379070e+01
-1.488885e+01
-1.602883e+01
-1.721168e+01
-1.843897e+01
-1.971400e+01
-2.104078e+01
-2.241962e+01
-2.386142e+01
-2.530826e+01
-2.667165e+01
-2.785973e+01
0.000000e+00
-2.142251e-01
-4.766200e-01
-7.898393e-01
-1.153754e+00
-1.566901e+00
-2.027453e+00
-2.533087e+00
-3.081788e+00
-3.671743e+00
-4.301653e+00
-4.970613e+00
-5.678080e+00
-6.423780e+00
-7.207626e+00
-8.029705e+00
-8.890206e+00
-9.789457e+00
-1.072794e+01
-1.170626e+01
-1.272509e+01
-1.378501e+01
-1.488645e+01
-1.602972e+01
-1.721512e+01
-1.844304e+01
-1.971512e+01
-2.103459e+01
-2.238609e+01
-2.377694e+01
-2.515009e+01
-2.644256e+01
-2.757014e+01
0.000000e+00
-2.156807e-01
-4.789214e-01
-7.912965e-01
-1.153224e+00
-1.564002e+00
-2.022203e+00
-2.526001e+00
-3.073508e+00
-3.663002e+00
-4.293042e+00
-4.962567e+00
-5.670847e+00
-6.417500e+00
-7.202402e+00
-8.025597e+00
-8.887263e+00
-9.787728e+00
-1.072755e+01
-1.170751e+01
-1.272847e+01
-1.379106e+01
-1.489538e+01
-1.604111e+01
-1.722762e+01
-1.845378e+01
-1.971780e+01
-2.102009e+01
-2.233878e+01
-2.367710e+01
-2.499120e+01
-2.621900e+01
-2.728807e+01
0.000000e+00
-2.159671e-01
-4.794455e-01
-7.917207e-01
-1.153277e+00
-1.563626e+00
-2.021520e+00
-2.525279e+00
-3.073093e+00
-3.663243e+00
-4.294244e+00
-4.964907e+00
-5.674410e+00
-6.422310e+00
-7.208482e+00
-8.032968e+00
-8.895884e+00
-9.797503e+00
-1.073839e+01
-1.171948e+01
-1.274189e+01
-1.380641e+01
-1.491282e+01
-1.605958e+01
-1.724512e+01
-1.846555e+01
-1.971579e+01
-2.099404e+01
-2.228422e+01
-2.357124e+01
-2.482720e+01
-2.598616e+01
-2.698615e+01
0.000000e+00
-2.154300e-01
-4.786991e-01
-7.913859e-01
-1.153926e+00
-1.565651e+00
-2.025164e+00
-2.530663e+00
-3.080268e+00
-3.672228e+00
-4.305013e+00
-4.977396e+00
-5.688491e+00
-6.437864e+00
-7.225460e+00
-8.051340e+00
-8.915524e+00
-9.818146e+00
-1.075970e+01
-1.174115e+01
-1.276395e+01
-1.382921e+01
-1.493641e+01
-1.608239e+01
-1.726200e+01
-1.847235e+01
-1.970715e+01
-2.096242e+01
-2.222356e+01
-2.346907e+01
-2.466787e+01
-2.576922e+01
-2.672929e+01
0.000000e+00
-2.137237e-01
-4.761771e-01
-7.900168e-01
-1.155155e+00
-1.570196e+00
-2.033381e+00
-2.542419e+00
-3.095280e+00
-3.690101e+00
-4.325394e+00
-4.999934e+00
-5.712856e+00
-6.463807e+00
-7.252867e+00
-8.080150e+00
-8.945512e+00
-9.848925e+00
-1.079074e+01
-1.177180e+01
-1.279381e+01
-1.385829e+01
-1.496349e+01
-1.610431e+01
-1.727490e+01
-1.847380e+01
-1.969578e+01
-2.093000e+01
-2.216372e+01
-2.337177e+01
-2.452644e+01
-2.559321e+01
-2.653864e+01
0.000000e+00
-2.096142e-01
-4.699140e-01
-7.869456e-01
-1.157091e+00
-1.577522e+00
-2.047094e+00
-2.561376e+00
-3.118821e+00
-3.717600e+00
-4.355697e+00
-5.032794e+00
-5.747548e+00
-6.500000e+00
-7.290507e+00
-8.118932e+00
-8.985117e+00
-9.888800e+00
-1.083026e+01
-1.181018e+01
-1.283051e+01
-1.389141e+01
-1.499049e+01
-1.612342e+01
-1.728583e+01
-1.847549e+01
-1.968596e+01
-2.090369e+01
-2.211171e+01
-2.329013e+01
-2.441539e+01
-2.546408e+01
-2.641138e+01
0.000000e+00
-2.015175e-01
-4.545016e-01
-7.817800e-01
-1.161016e+00
-1.587238e+00
-2.069318e+00
-2.587848e+00
-3.152591e+00
-3.755437e+00
-4.396181e+00
-5.076709e+00
-5.792555e+00
-6.547037e+00
-7.338788e+00
-8.168042e+00
-9.034557e+00
-9.937434e+00
-1.087751e+01
-1.185513e+01
-1.287212e+01
-1.392688e+01
-1.501771e+01
-1.614328e+01
-1.730025e+01
-1.848416e+01
-1.968583e+01
-2.088857e+01
-2.207586e+01
-2.323079e+01
-2.433665e+01
-2.537749e+01
-2.633817e+01
0.000000e+00
-1.828424e-01
-4.235330e-01
-7.818935e-01
-1.165513e+00
-1.607735e+00
-2.100710e+00
-2.626229e+00
-3.197668e+00
-3.803639e+00
-4.447962e+00
-5.129992e+00
-5.848076e+00
-6.604025e+00
-7.397228e+00
-8.227108e+00
-9.093329e+00
-9.995281e+00
-1.093316e+01
-1.190774e+01
-1.291937e+01
-1.396673e+01
-1.504989e+01
-1.617053e+01
-1.732601e+01
-1.850672e+01
-1.969981e+01
-2.088825e+01
-2.205776e+01
-2.319462e+01
-2.428685e+01
-2.532566e+01
-2.630616e+01
0.000000e+00
-1.481357e-01
-4.271466e-01
-7.933780e-01
-1.202737e+00
-1.653095e+00
-2.150522e+00
-2.683851e+00
-3.255757e+00
-3.865133e+00
-4.510039e+00
-5.192831e+00
-5.912174e+00
-6.668851e+00
-7.462965e+00
-8.292878e+00
-9.158923e+00
-1.006037e+01
-1.099689e+01
-1.196883e+01
-1.297554e+01
-1.401681e+01
-1.509527e+01
-1.621443e+01
-1.736872e+01
-1.854438e+01
-1.972654e+01
-2.090145e+01
-2.205614e+01
-2.317891e+01
-2.426103e+01
-2.529960e+01
-2.630042e+01
0.000000e+00
-1.729088e-01
-4.847864e-01
-8.512003e-01
-1.268974e+00
-1.721571e+00
-2.220683e+00
-2.755734e+00
-3.328022e+00
-3.938201e+00
-4.583001e+00
-5.266177e+00
-5.985486e+00
-6.742569e+00
-7.536579e+00
-8.366246e+00
-9.231921e+00
-1.013275e+01
-1.106851e+01
-1.203880e+01
-1.304293e+01
-1.408190e+01
-1.515952e+01
-1.627730e+01
-1.742635e+01
-1.859235e+01
-1.976242e+01
-2.092454e+01
-2.206677e+01
-2.317844e+01
-2.425266e+01
-2.529019e+01
-2.630500e+01
0.000000e+00
-2.712584e-01
-5.651897e-01
-9.389211e-01
-1.351449e+00
-1.806399e+00
-2.305251e+00
-2.839036e+00
-3.412500e+00
-4.021540e+00
-4.666911e+00
-5.349841e+00
-6.068922e+00
-6.825965e+00
-7.619364e+00
-8.448781e+00
-9.314032e+00
-1.021425e+01
-1.114943e+01
-1.211903e+01
-1.312246e+01
-1.416179e+01