TITLE = "Solution"
VARIABLES = x, y, u, v, psiu, psiv, t, stress
ZONE T="structure" N=561 E=512 F=FEBLOCK ET=QUADRILATERAL VARLOCATION=([7,8]=cellcentered)
0.000000e+00
6.250000e+00
1.250000e+01
1.875000e+01
2.500000e+01
3.125000e+01
3.750000e+01
4.375000e+01
5.000000e+01
5.625000e+01
6.250000e+01
6.875000e+01
7.500000e+01
8.125000e+01
8.750000e+01
9.375000e+01
1.000000e+02
1.062500e+02
1.125000e+02
1.187500e+02
1.250000e+02
1.312500e+02
1.375000e+02
1.437500e+02
1.500000e+02
1.562500e+02
1.625000e+02
1.687500e+02
1.750000e+02
1.812500e+02
1.875000e+02
1.937500e+02
2.000000e+02
0.000000e+00
6.250000e+00
1.250000e+01
1.875000e+01
2.500000e+01
3.125000e+01
3.750000e+01
4.375000e+01
5.000000e+01
5.625000e+01
6.250000e+01
6.875000e+01
7.500000e+01
8.125000e+01
8.750000e+01
9.375000e+01
1.000000e+02
1.062500e+02
1.125000e+02
1.187500e+02
1.250000e+02
1.312500e+02
1.375000e+02
1.437500e+02
1.500000e+02
1.562500e+02
1.625000e+02
1.687500e+02
1.750000e+02
1.812500e+02
1.875000e+02
1.937500e+02
2.000000e+02
0.000000e+00
6.250000e+00
1.250000e+01
1.875000e+01
2.500000e+01
3.125000e+01
3.750000e+01
4.375000e+01
5.000000e+01
5.625000e+01
6.250000e+01
6.875000e+01
7.500000e+01
8.125000e+01
8.750000e+01
9.375000e+01
1.000000e+02
1.062500e+02
1.125000e+02
1.187500e+02
1.250000e+02
1.312500e+02
1.375000e+02
1.437500e+02
1.500000e+02
1.562500e+02
1.625000e+02
1.687500e+02
1.750000e+02
1.812500e+02
1.875000e+02
1.937500e+02
2.000000e+02
0.000000e+00
6.250000e+00
1.250000e+01
1.875000e+01
2.500000e+01
3.125000e+01
3.750000e+01
4.375000e+01
5.000000e+01
5.625000e+01
6.250000e+01
6.875000e+01
7.500000e+01
8.125000e+01
8.750000e+01
9.375000e+01
1.000000e+02
1.062500e+02
1.125000e+02
1.187500e+02
1.250000e+02
1.312500e+02
1.375000e+02
1.437500e+02
1.500000e+02
1.562500e+02
1.625000e+02
1.687500e+02
1.750000e+02
1.812500e+02
1.875000e+02
1.937500e+02
2.000000e+02
0.000000e+00
6.250000e+00
1.250000e+01
1.875000e+01
2.500000e+01
3.125000e+01
3.750000e+01
4.375000e+01
5.000000e+01
5.625000e+01
6.250000e+01
6.875000e+01
7.500000e+01
8.125000e+01
8.750000e+01
9.375000e+01
1.000000e+02
1.062500e+02
1.125000e+02
1.187500e+02
1.250000e+02
1.312500e+02
1.375000e+02
1.437500e+02
1.500000e+02
1.562500e+02
1.625000e+02
1.687500e+02
1.750000e+02
1.812500e+02
1.875000e+02
1.937500e+02
2.000000e+02
0.000000e+00
6.250000e+00
1.250000e+01
1.875000e+01
2.500000e+01
3.125000e+01
3.750000e+01
4.375000e+01
5.000000e+01
5.625000e+01
6.250000e+01
6.875000e+01
7.500000e+01
8.125000e+01
8.750000e+01
9.375000e+01
1.000000e+02
1.062500e+02
1.125000e+02
1.187500e+02
1.250000e+02
1.312500e+02
1.375000e+02
1.437500e+02
1.500000e+02
1.562500e+02
1.625000e+02
1.687500e+02
1.750000e+02
1.812500e+02
1.875000e+02
1.937500e+02
2.000000e+02
0.000000e+00
6.250000e+00
1.250000e+01
1.875000e+01
2.500000e+01
3.125000e+01
3.750000e+01
4.375000e+01
5.000000e+01
5.625000e+01
6.250000e+01
6.875000e+01
7.500000e+01
8.125000e+01
8.750000e+01
9.375000e+01
1.000000e+02
1.062500e+02
1.125000e+02
1.187500e+02
1.250000e+02
1.312500e+02
1.375000e+02
1.437500e+02
1.500000e+02
1.562500e+02
1.625000e+02
1.687500e+02
1.750000e+02
1.812500e+02
1.875000e+02
1.937500e+02
2.000000e+02
0.000000e+00
6.250000e+00
1.250000e+01
1.875000e+01
2.500000e+01
3.125000e+01
3.750000e+01
4.375000e+01
5.000000e+01
5.625000e+01
6.250000e+01
6.875000e+01
7.500000e+01
8.125000e+01
8.750000e+01
9.375000e+01
1.000000e+02
1.062500e+02
1.125000e+02
1.187500e+02
1.250000e+02
1.312500e+02
1.375000e+02
1.437500e+02
1.500000e+02
1.562500e+02
1.625000e+02
1.687500e+02
1.750000e+02
1.812500e+02
1.875000e+02
1.937500e+02
2.000000e+02
0.000000e+00
6.250000e+00
1.250000e+01
1.875000e+01
2.500000e+01
3.125000e+01
3.750000e+01
4.375000e+01
5.000000e+01
5.625000e+01
6.250000e+01
6.875000e+01
7.500000e+01
8.125000e+01
8.750000e+01
9.375000e+01
1.000000e+02
1.062500e+02
1.125000e+02
1.187500e+02
1.250000e+02
1.312500e+02
1.375000e+02
1.437500e+02
1.500000e+02
1.562500e+02
1.625000e+02
1.687500e+02
1.750000e+02
1.812500e+02
1.875000e+02
1.937500e+02
2.000000e+02
0.000000e+00
6.250000e+00
1.250000e+01
1.875000e+01
2.500000e+01
3.125000e+01
3.750000e+01
4.375000e+01
5.000000e+01
5.625000e+01
6.250000e+01
6.875000e+01
7.500000e+01
8.125000e+01
8.750000e+01
9.375000e+01
1.000000e+02
1.062500e+02
1.125000e+02
1.187500e+02
1.250000e+02
1.312500e+02
1.375000e+02
1.437500e+02
1.500000e+02
1.562500e+02
1.625000e+02
1.687500e+02
1.750000e+02
1.812500e+02
1.875000e+02
1.937500e+02
2.000000e+02
0.000000e+00
6.250000e+00
1.250000e+01
1.875000e+01
2.500000e+01
3.125000e+01
3.750000e+01
4.375000e+01
5.000000e+01
5.625000e+01
6.250000e+01
6.875000e+01
7.500000e+01
8.125000e+01
8.750000e+01
9.375000e+01
1.000000e+02
1.062500e+02
1.125000e+02
1.187500e+02
1.250000e+02
1.312500e+02
1.375000e+02
1.437500e+02
1.500000e+02
1.562500e+02
1.625000e+02
1.687500e+02
1.750000e+02
1.812500e+02
1.875000e+02
1.937500e+02
2.000000e+02
0.000000e+00
6.250000e+00
1.250000e+01
1.875000e+01
2.500000e+01
3.125000e+01
3.750000e+01
4.375000e+01
5.000000e+01
5.625000e+01
6.250000e+01
6.875000e+01
7.500000e+01
8.125000e+01
8.750000e+01
9.375000e+01
1.000000e+02
1.062500e+02
1.125000e+02
1.187500e+02
1.250000e+02
1.312500e+02
1.375000e+02
1.437500e+02
1.500000e+02
1.562500e+02
1.625000e+02
1.687500e+02
1.750000e+02
1.812500e+02
1.875000e+02
1.937500e+02
2.000000e+02
0.000000e+00
6.250000e+00
1.250000e+01
1.875000e+01
2.500000e+01
3.125000e+01
3.750000e+01
4.375000e+01
5.000000e+01
5.625000e+01
6.250000e+01
6.875000e+01
7.500000e+01
8.125000e+01
8.750000e+01
9.375000e+01
1.000000e+02
1.062500e+02
1.125000e+02
1.187500e+02
1.250000e+02
1.312500e+02
1.375000e+02
1.437500e+02
1.500000e+02
1.562500e+02
1.625000e+02
1.687500e+02
1.750000e+02
1.812500e+02
1.875000e+02
1.937500e+02
2.000000e+02
0.000000e+00
6.250000e+00
1.250000e+01
1.875000e+01
2.500000e+01
3.125000e+01
3.750000e+01
4.375000e+01
5.000000e+01
5.625000e+01
6.250000e+01
6.875000e+01
7.500000e+01
8.125000e+01
8.750000e+01
9.375000e+01
1.000000e+02
1.062500e+02
1.125000e+02
1.187500e+02
1.250000e+02
1.312500e+02
1.375000e+02
1.437500e+02
1.500000e+02
1.562500e+02
1.625000e+02
1.687500e+02
1.750000e+02
1.812500e+02
1.875000e+02
1.937500e+02
2.000000e+02
0.000000e+00
6.250000e+00
1.250000e+01
1.875000e+01
2.500000e+01
3.125000e+01
3.750000e+01
4.375000e+01
5.000000e+01
5.625000e+01
6.250000e+01
6.875000e+01
7.500000e+01
8.125000e+01
8.750000e+01
9.375000e+01
1.000000e+02
1.062500e+02
1.125000e+02
1.187500e+02
1.250000e+02
1.312500e+02
1.375000e+02
1.437500e+02
1.500000e+02
1.562500e+02
1.625000e+02
1.687500e+02
1.750000e+02
1.812500e+02
1.875000e+02
1.937500e+02
2.000000e+02
0.000000e+00
6.250000e+00
1.250000e+01
1.875000e+01
2.500000e+01
3.125000e+01
3.750000e+01
4.375000e+01
5.000000e+01
5.625000e+01
6.250000e+01
6.875000e+01
7.500000e+01
8.125000e+01
8.750000e+01
9.375000e+01
1.000000e+02
1.062500e+02
1.125000e+02
1.187500e+02
1.250000e+02
1.312500e+02
1.375000e+02
1.437500e+02
1.500000e+02
1.562500e+02
1.625000e+02
1.687500e+02
1.750000e+02
1.812500e+02
1.875000e+02
1.937500e+02
2.000000e+02
0.000000e+00
6.250000e+00
1.250000e+01
1.875000e+01
2.500000e+01
3.125000e+01
3.750000e+01
4.375000e+01
5.000000e+01
5.625000e+01
6.250000e+01
6.875000e+01
7.500000e+01
8.125000e+01
8.750000e+01
9.375000e+01
1.000000e+02
1.062500e+02
1.125000e+02
1.187500e+02
1.250000e+02
1.312500e+02
1.375000e+02
1.437500e+02
1.500000e+02
1.562500e+02
1.625000e+02
1.687500e+02
1.750000e+02
1.812500e+02
1.875000e+02
1.937500e+02
2.000000e+02
0.000000e+00
0.000000e+00
0.000000e+00
0.000000e+00
0.000000e+00
0.000000e+00
0.000000e+00
0.000000e+00
0.000000e+00
0.000000e+00
0.000000e+00
0.000000e+00
0.000000e+00
0.000000e+00
0.000000e+00
0.000000e+00
0.000000e+00
0.000000e+00
0.000000e+00
0.000000e+00
0.000000e+00
0.000000e+00
0.000000e+00
0.000000e+00
0.000000e+00
0.000000e+00
0.000000e+00
0.000000e+00
0.000000e+00
0.000000e+00
0.000000e+00
0.000000e+00
0.000000e+00
6.250000e+00
6.250000e+00
6.250000e+00
6.250000e+00
6.250000e+00
6.250000e+00
6.250000e+00
6.250000e+00
6.250000e+00
6.250000e+00
6.250000e+00
6.250000e+00
6.250000e+00
6.250000e+00
6.250000e+00
6.250000e+00
6.250000e+00
6.250000e+00
6.250000e+00
6.250000e+00
6.250000e+00
6.250000e+00
6.250000e+00
6.250000e+00
6.250000e+00
6.250000e+00
6.250000e+00
6.250000e+00
6.250000e+00
6.250000e+00
6.250000e+00
6.250000e+00
6.250000e+00
1.250000e+01
1.250000e+01
1.250000e+01
1.250000e+01
1.250000e+01
1.250000e+01
1.250000e+01
1.250000e+01
1.250000e+01
1.250000e+01
1.250000e+01
1.250000e+01
1.250000e+01
1.250000e+01
1.250000e+01
1.250000e+01
1.250000e+01
1.250000e+01
1.250000e+01
1.250000e+01
1.250000e+01
1.250000e+01
1.250000e+01
1.250000e+01
1.250000e+01
1.250000e+01
1.250000e+01
1.250000e+01
1.250000e+01
1.250000e+01
1.250000e+01
1.250000e+01
1.250000e+01
1.875000e+01
1.875000e+01
1.875000e+01
1.875000e+01
1.875000e+01
1.875000e+01
1.875000e+01
1.875000e+01
1.875000e+01
1.875000e+01
1.875000e+01
1.875000e+01
1.875000e+01
1.875000e+01
1.875000e+01
1.875000e+01
1.875000e+01
1.875000e+01
1.875000e+01
1.875000e+01
1.875000e+01
1.875000e+01
1.875000e+01
1.875000e+01
1.875000e+01
1.875000e+01
1.875000e+01
1.875000e+01
1.875000e+01
1.875000e+01
1.875000e+01
1.875000e+01
1.875000e+01
2.500000e+01
2.500000e+01
2.500000e+01
2.500000e+01
2.500000e+01
2.500000e+01
2.500000e+01
2.500000e+01
2.500000e+01
2.500000e+01
2.500000e+01
2.500000e+01
2.500000e+01
2.500000e+01
2.500000e+01
2.500000e+01
2.500000e+01
2.500000e+01
2.500000e+01
2.500000e+01
2.500000e+01
2.500000e+01
2.500000e+01
2.500000e+01
2.500000e+01
2.500000e+01
2.500000e+01
2.500000e+01
2.500000e+01
2.500000e+01
2.500000e+01
2.500000e+01
2.500000e+01
3.125000e+01
3.125000e+01
3.125000e+01
3.125000e+01
3.125000e+01
3.125000e+01
3.125000e+01
3.125000e+01
3.125000e+01
3.125000e+01
3.125000e+01
3.125000e+01
3.125000e+01
3.125000e+01
3.125000e+01
3.125000e+01
3.125000e+01
3.125000e+01
3.125000e+01
3.125000e+01
3.125000e+01
3.125000e+01
3.125000e+01
3.125000e+01
3.125000e+01
3.125000e+01
3.125000e+01
3.125000e+01
3.125000e+01
3.125000e+01
3.125000e+01
3.125000e+01
3.125000e+01
3.750000e+01
3.750000e+01
3.750000e+01
3.750000e+01
3.750000e+01
3.750000e+01
3.750000e+01
3.750000e+01
3.750000e+01
3.750000e+01
3.750000e+01
3.750000e+01
3.750000e+01
3.750000e+01
3.750000e+01
3.750000e+01
3.750000e+01
3.750000e+01
3.750000e+01
3.750000e+01
3.750000e+01
3.750000e+01
3.750000e+01
3.750000e+01
3.750000e+01
3.750000e+01
3.750000e+01
3.750000e+01
3.750000e+01
3.750000e+01
3.750000e+01
3.750000e+01
3.750000e+01
4.375000e+01
4.375000e+01
4.375000e+01
4.375000e+01
4.375000e+01
4.375000e+01
4.375000e+01
4.375000e+01
4.375000e+01
4.375000e+01
4.375000e+01
4.375000e+01
4.375000e+01
4.375000e+01
4.375000e+01
4.375000e+01
4.375000e+01
4.375000e+01
4.375000e+01
4.375000e+01
4.375000e+01
4.375000e+01
4.375000e+01
4.375000e+01
4.375000e+01
4.375000e+01
4.375000e+01
4.375000e+01
4.375000e+01
4.375000e+01
4.375000e+01
4.375000e+01
4.375000e+01
5.000000e+01
5.000000e+01
5.000000e+01
5.000000e+01
5.000000e+01
5.000000e+01
5.000000e+01
5.000000e+01
5.000000e+01
5.000000e+01
5.000000e+01
5.000000e+01
5.000000e+01
5.000000e+01
5.000000e+01
5.000000e+01
5.000000e+01
5.000000e+01
5.000000e+01
5.000000e+01
5.000000e+01
5.000000e+01
5.000000e+01
5.000000e+01
5.000000e+01
5.000000e+01
5.000000e+01
5.000000e+01
5.000000e+01
5.000000e+01
5.000000e+01
5.000000e+01
5.000000e+01
5.625000e+01
5.625000e+01
5.625000e+01
5.625000e+01
5.625000e+01
5.625000e+01
5.625000e+01
5.625000e+01
5.625000e+01
5.625000e+01
5.625000e+01
5.625000e+01
5.625000e+01
5.625000e+01
5.625000e+01
5.625000e+01
5.625000e+01
5.625000e+01
5.625000e+01
5.625000e+01
5.625000e+01
5.625000e+01
5.625000e+01
5.625000e+01
5.625000e+01
5.625000e+01
5.625000e+01
5.625000e+01
5.625000e+01
5.625000e+01
5.625000e+01
5.625000e+01
5.625000e+01
6.250000e+01
6.250000e+01
6.250000e+01
6.250000e+01
6.250000e+01
6.250000e+01
6.250000e+01
6.250000e+01
6.250000e+01
6.250000e+01
6.250000e+01
6.250000e+01
6.250000e+01
6.250000e+01
6.250000e+01
6.250000e+01
6.250000e+01
6.250000e+01
6.250000e+01
6.250000e+01
6.250000e+01
6.250000e+01
6.250000e+01
6.250000e+01
6.250000e+01
6.250000e+01
6.250000e+01
6.250000e+01
6.250000e+01
6.250000e+01
6.250000e+01
6.250000e+01
6.250000e+01
6.875000e+01
6.875000e+01
6.875000e+01
6.875000e+01
6.875000e+01
6.875000e+01
6.875000e+01
6.875000e+01
6.875000e+01
6.875000e+01
6.875000e+01
6.875000e+01
6.875000e+01
6.875000e+01
6.875000e+01
6.875000e+01
6.875000e+01
6.875000e+01
6.875000e+01
6.875000e+01
6.875000e+01
6.875000e+01
6.875000e+01
6.875000e+01
6.875000e+01
6.875000e+01
6.875000e+01
6.875000e+01
6.875000e+01
6.875000e+01
6.875000e+01
6.875000e+01
6.875000e+01
7.500000e+01
7.500000e+01
7.500000e+01
7.500000e+01
7.500000e+01
7.500000e+01
7.500000e+01
7.500000e+01
7.500000e+01
7.500000e+01
7.500000e+01
7.500000e+01
7.500000e+01
7.500000e+01
7.500000e+01
7.500000e+01
7.500000e+01
7.500000e+01
7.500000e+01
7.500000e+01
7.500000e+01
7.500000e+01
7.500000e+01
7.500000e+01
7.500000e+01
7.500000e+01
7.500000e+01
7.500000e+01
7.500000e+01
7.500000e+01
7.500000e+01
7.500000e+01
7.500000e+01
8.125000e+01
8.125000e+01
8.125000e+01
8.125000e+01
8.125000e+01
8.125000e+01
8.125000e+01
8.125000e+01
8.125000e+01
8.125000e+01
8.125000e+01
8.125000e+01
8.125000e+01
8.125000e+01
8.125000e+01
8.125000e+01
8.125000e+01
8.125000e+01
8.125000e+01
8.125000e+01
8.125000e+01
8.125000e+01
8.125000e+01
8.125000e+01
8.125000e+01
8.125000e+01
8.125000e+01
8.125000e+01
8.125000e+01
8.125000e+01
8.125000e+01
8.125000e+01
8.125000e+01
8.750000e+01
8.750000e+01
8.750000e+01
8.750000e+01
8.750000e+01
8.750000e+01
8.750000e+01
8.750000e+01
8.750000e+01
8.750000e+01
8.750000e+01
8.750000e+01
8.750000e+01
8.750000e+01
8.750000e+01
8.750000e+01
8.750000e+01
8.750000e+01
8.750000e+01
8.750000e+01
8.750000e+01
8.750000e+01
8.750000e+01
8.750000e+01
8.750000e+01
8.750000e+01
8.750000e+01
8.750000e+01
8.750000e+01
8.750000e+01
8.750000e+01
8.750000e+01
8.750000e+01
9.375000e+01
9.375000e+01
9.375000e+01
9.375000e+01
9.375000e+01
9.375000e+01
9.375000e+01
9.375000e+01
9.375000e+01
9.375000e+01
9.375000e+01
9.375000e+01
9.375000e+01
9.375000e+01
9.375000e+01
9.375000e+01
9.375000e+01
9.375000e+01
9.375000e+01
9.375000e+01
9.375000e+01
9.375000e+01
9.375000e+01
9.375000e+01
9.375000e+01
9.375000e+01
9.375000e+01
9.375000e+01
9.375000e+01
9.375000e+01
9.375000e+01
9.375000e+01
9.375000e+01
1.000000e+02
1.000000e+02
1.000000e+02
1.000000e+02
1.000000e+02
1.000000e+02
1.000000e+02
1.000000e+02
1.000000e+02
1.000000e+02
1.000000e+02
1.000000e+02
1.000000e+02
1.000000e+02
1.000000e+02
1.000000e+02
1.000000e+02
1.000000e+02
1.000000e+02
1.000000e+02
1.000000e+02
1.000000e+02
1.000000e+02
1.000000e+02
1.000000e+02
1.000000e+02
1.000000e+02
1.000000e+02
1.000000e+02
1.000000e+02
1.000000e+02
1.000000e+02
1.000000e+02
0.000000e+00
-1.306184e-01
-2.369844e-01
-3.355271e-01
-4.301200e-01
-5.214799e-01
-6.097858e-01
-6.950272e-01
-7.771485e-01
-8.560885e-01
-9.317965e-01
-1.004237e+00
-1.073391e+00
-1.139257e+00
-1.201849e+00
-1.261198e+00
-1.317359e+00
-1.370407e+00
-1.420448e+00
-1.467627e+00
-1.512134e+00
-1.554223e+00
-1.594230e+00
-1.632598e+00
-1.669925e+00
-1.707018e+00
-1.745004e+00
-1.785484e+00
-1.830812e+00
-1.884449e+00
-1.950880e+00
-2.030036e+00
-2.078339e+00
0.000000e+00
-8.756895e-02
-1.821937e-01
-2.714210e-01
-3.562474e-01
-4.374759e-01
-5.155311e-01
-5.905981e-01
-6.627497e-01
-7.320086e-01
-7.983783e-01
-8.618576e-01
-9.224486e-01
-9.801602e-01
-1.035011e+00
-1.087030e+00
-1.136262e+00
-1.182767e+00
-1.226625e+00
-1.267940e+00
-1.306846e+00
-1.343511e+00
-1.378143e+00
-1.410998e+00
-1.442382e+00
-1.472644e+00
-1.502156e+00
-1.531224e+00
-1.559844e+00
-1.587086e+00
-1.609784e+00
-1.623052e+00
-1.641522e+00
0.000000e+00
-6.945568e-02
-1.429913e-01
-2.178707e-01
-2.906455e-01
-3.607514e-01
-4.281406e-01
-4.928747e-01
-5.550091e-01
-6.145814e-01
-6.716158e-01
-7.261290e-01
-7.781351e-01
-8.276487e-01
-8.746875e-01
-9.192737e-01
-9.614358e-01
-1.001210e+00
-1.038640e+00
-1.073780e+00
-1.106690e+00
-1.137437e+00
-1.166087e+00
-1.192689e+00
-1.217255e+00
-1.239706e+00
-1.259785e+00
-1.276901e+00
-1.289897e+00
-1.296896e+00
-1.296286e+00
-1.292360e+00
-1.313927e+00
0.000000e+00
-5.510687e-02
-1.132579e-01
-1.730075e-01
-2.326276e-01
-2.908135e-01
-3.470653e-01
-4.012029e-01
-4.531765e-01
-5.029825e-01
-5.506328e-01
-5.961422e-01
-6.395253e-01
-6.807951e-01
-7.199632e-01
-7.570400e-01
-7.920354e-01
-8.249581e-01
-8.558143e-01
-8.846058e-01
-9.113250e-01
-9.359471e-01
-9.584176e-01
-9.786318e-01
-9.964030e-01
-1.011418e+00
-1.023179e+00
-1.030968e+00
-1.033944e+00
-1.031739e+00
-1.026380e+00
-1.026061e+00
-1.046610e+00
0.000000e+00
-4.277237e-02
-8.758383e-02
-1.338310e-01
-1.804606e-01
-2.265251e-01
-2.713886e-01
-3.147286e-01
-3.563977e-01
-3.963385e-01
-4.345354e-01
-4.709896e-01
-5.057073e-01
-5.386936e-01
-5.699503e-01
-5.994740e-01
-6.272554e-01
-6.532774e-01
-6.775128e-01
-6.999208e-01
-7.204412e-01
-7.389859e-01
-7.554283e-01
-7.695874e-01
-7.812133e-01
-7.899768e-01
-7.954920e-01
-7.974275e-01
-7.958419e-01
-7.919600e-01
-7.894412e-01
-7.952567e-01
-8.127880e-01
0.000000e+00
-3.143652e-02
-6.422047e-02
-9.806017e-02
-1.323724e-01
-1.665173e-01
-1.999864e-01
-2.324488e-01
-2.637224e-01
-2.937183e-01
-3.223986e-01
-3.497494e-01
-3.757655e-01
-4.004420e-01
-4.237690e-01
-4.457296e-01
-4.662974e-01
-4.854346e-01
-5.030894e-01
-5.191925e-01
-5.336530e-01
-5.463536e-01
-5.571459e-01
-5.658487e-01
-5.722555e-01
-5.761651e-01
-5.774626e-01
-5.762994e-01
-5.734312e-01
-5.707017e-01
-5.713653e-01
-5.787795e-01
-5.932874e-01
0.000000e+00
-2.068967e-02
-4.219818e-02
-6.439041e-02
-8.695072e-02
-1.094998e-01
-1.316978e-01
-1.532969e-01
-1.741414e-01
-1.941455e-01
-2.132653e-01
-2.314788e-01
-2.487715e-01
-2.651287e-01
-2.805306e-01
-2.949485e-01
-3.083435e-01
-3.206639e-01
-3.318435e-01
-3.417999e-01
-3.504328e-01
-3.576252e-01
-3.632464e-01
-3.671636e-01
-3.692686e-01
-3.695299e-01
-3.680912e-01
-3.654283e-01
-3.625546e-01
-3.611609e-01
-3.633331e-01
-3.705522e-01
-3.822643e-01
0.000000e+00
-1.027677e-02
-2.094233e-02
-3.194225e-02
-4.313795e-02
-5.435279e-02
-6.541896e-02
-7.620499e-02
-8.662194e-02
-9.661537e-02
-1.061529e-01
-1.152131e-01
-1.237771e-01
-1.318236e-01
-1.393250e-01
-1.462451e-01
-1.525375e-01
-1.581440e-01
-1.629939e-01
-1.670047e-01
-1.700836e-01
-1.721331e-01
-1.730616e-01
-1.728034e-01
-1.713535e-01
-1.688225e-01
-1.655166e-01
-1.620330e-01
-1.593285e-01
-1.586503e-01
-1.611993e-01
-1.674974e-01
-1.767912e-01
0.000000e+00
-1.663709e-05
-3.606703e-05
-5.721469e-05
-7.896877e-05
-9.983131e-05
-1.175452e-04
-1.286807e-04
-1.281521e-04
-1.086363e-04
-5.987036e-05
3.218314e-05
1.863032e-04
4.270870e-04
7.860862e-04
1.302902e-03
2.026074e-03
3.013480e-03
4.331823e-03
6.054534e-03
8.257114e-03
1.100848e-02
1.435636e-02
1.830440e-02
2.277868e-02
2.758323e-02
3.235026e-02
3.650364e-02
3.927647e-02
3.983924e-02
3.757596e-02
3.244957e-02
2.526950e-02
0.000000e+00
1.024543e-02
2.087425e-02
3.183404e-02
4.298824e-02
5.416299e-02
6.519465e-02
7.595814e-02
8.637403e-02
9.640154e-02
1.060275e-01
1.152569e-01
1.241062e-01
1.326003e-01
1.407712e-01
1.486577e-01
1.563051e-01
1.637654e-01
1.710953e-01
1.783535e-01
1.855940e-01
1.928567e-01
2.001521e-01
2.074395e-01
2.146005e-01
2.214091e-01
2.275090e-01
2.324153e-01
2.355680e-01
2.364608e-01
2.348448e-01
2.309504e-01
2.256213e-01
0.000000e+00
2.066405e-02
4.214214e-02
6.430072e-02
8.682567e-02
1.093398e-01
1.315065e-01
1.530830e-01
1.739212e-01
1.939462e-01
2.131298e-01
2.314711e-01
2.489846e-01
2.656936e-01
2.816271e-01
2.968189e-01
3.113069e-01
3.251321e-01
3.383374e-01
3.509636e-01
3.630433e-01
3.745918e-01
3.855934e-01
3.959845e-01
4.056345e-01
4.143294e-01
4.217668e-01
4.275757e-01
4.313779e-01
4.328983e-01
4.321168e-01
4.294220e-01
4.257027e-01
0.000000e+00
3.142015e-02
6.418402e-02
9.800083e-02
1.322882e-01
1.664074e-01
1.998519e-01
2.322940e-01
2.635563e-01
2.935567e-01
3.222671e-01
3.496876e-01
3.758317e-01
4.007193e-01
4.243732e-01
4.468185e-01
4.680812e-01
4.881881e-01
5.071648e-01
5.250331e-01
5.418053e-01
5.574775e-01
5.720192e-01
5.853619e-01
5.973874e-01
6.079211e-01
6.167360e-01
6.235773e-01
6.282168e-01
6.305416e-01
6.306725e-01
6.290917e-01
6.267410e-01
0.000000e+00
4.276824e-02
8.757355e-02
1.338127e-01
1.804322e-01
2.264852e-01
2.713362e-01
3.146635e-01
3.563212e-01
3.962541e-01
4.344495e-01
4.709133e-01
5.056577e-01
5.386969e-01
5.700443e-01
5.997121e-01
6.277112e-01
6.540506e-01
6.787362e-01
7.017692e-01
7.231423e-01
7.428359e-01
7.608119e-01
7.770081e-01
7.913335e-01
8.036679e-01
8.138699e-01
8.217988e-01
8.273557e-01
8.305482e-01
8.315838e-01
8.309902e-01
8.297519e-01
0.000000e+00
5.511705e-02
1.132786e-01
1.730383e-01
2.326676e-01
2.908615e-01
3.471197e-01
4.012610e-01
4.532337e-01
5.030319e-01
5.506634e-01
5.961383e-01
6.394643e-01
6.806454e-01
7.196818e-01
7.565700e-01
7.913024e-01
8.238674e-01
8.542487e-01
8.824243e-01
9.083657e-01
9.320366e-01
9.533919e-01
9.723777e-01
9.889332e-01
1.002997e+00
1.014515e+00
1.023462e+00
1.029865e+00
1.033845e+00
1.035675e+00
1.035894e+00
1.035483e+00
0.000000e+00
6.948064e-02
1.430445e-01
2.179542e-01
2.907606e-01
3.608996e-01
4.283222e-01
4.930876e-01
5.552472e-01
6.148325e-01
6.718582e-01
7.263279e-01
7.782369e-01
8.275747e-01
8.743251e-01
9.184663e-01
9.599707e-01
9.988040e-01
1.034925e+00
1.068285e+00
1.098828e+00
1.126497e+00
1.151229e+00
1.172971e+00
1.191679e+00
1.207341e+00
1.219984e+00
1.229698e+00
1.236650e+00
1.241102e+00
1.243433e+00
1.244192e+00
1.244282e+00
0.000000e+00
8.760645e-02
1.822756e-01
2.715528e-01
3.564354e-01
4.377268e-01
5.158502e-01
5.909885e-01
6.632099e-01
7.325294e-01
7.989381e-01
8.624165e-01
9.229398e-01
9.804792e-01
1.035001e+00
1.086467e+00
1.134828e+00
1.180028e+00
1.221998e+00
1.260658e+00
1.295919e+00
1.327687e+00
1.355866e+00
1.380377e+00
1.401168e+00
1.418240e+00
1.431673e+00
1.441658e+00
1.448517e+00
1.452720e+00
1.454867e+00
1.455646e+00
1.455836e+00
0.000000e+00
1.306594e-01
2.370802e-01
3.356913e-01
4.303657e-01
5.218207e-01
6.102354e-01
6.955989e-01
7.778528e-01
8.569296e-01
9.327673e-01
1.005312e+00
1.074515e+00
1.140333e+00
1.202718e+00
1.261617e+00
1.316967e+00
1.368690e+00
1.416692e+00
1.460858e+00
1.501054e+00
1.537134e+00
1.568941e+00
1.596330e+00
1.619188e+00
1.637468e+00
1.651235e+00
1.660720e+00
1.666373e+00
1.668920e+00
1.669383e+00
1.668999e+00
1.668784e+00
0.000000e+00
-8.072056e-02
-1.408872e-01
-2.065549e-01
-2.796847e-01
-3.622930e-01
-4.549538e-01
-5.578292e-01
-6.708174e-01
-7.936772e-01
-9.260835e-01
-1.067662e+00
-1.218010e+00
-1.376706e+00
-1.543323e+00
-1.717426e+00
-1.898588e+00
-2.086386e+00
-2.280412e+00
-2.480281e+00
-2.685647e+00
-2.896215e+00
-3.111777e+00
-3.332250e+00
-3.557744e+00
-3.788676e+00
-4.025965e+00
-4.271402e+00
-4.528414e+00
-4.803786e+00
-5.112154e+00
-5.488055e+00
-6.007367e+00
0.000000e+00
-5.016573e-02
-1.131442e-01
-1.792502e-01
-2.533938e-01
-3.368953e-01
-4.304532e-01
-5.342264e-01
-6.481220e-01
-7.718983e-01
-9.052288e-01
-1.047736e+00
-1.199013e+00
-1.358636e+00
-1.526173e+00
-1.701185e+00
-1.883240e+00
-2.071908e+00
-2.266773e+00
-2.467441e+00
-2.673553e+00
-2.884801e+00
-3.100956e+00
-3.321910e+00
-3.547745e+00
-3.778839e+00
-4.016064e+00
-4.261154e+00
-4.517466e+00
-4.791670e+00
-5.097659e+00
-5.465193e+00
-5.950361e+00
0.000000e+00
-3.685091e-02
-9.122010e-02
-1.564220e-01
-2.306910e-01
-3.148040e-01
-4.090973e-01
-5.136590e-01
-6.283637e-01
-7.529585e-01
-8.871109e-01
-1.030441e+00
-1.182539e+00
-1.342981e+00
-1.511331e+00
-1.687152e+00
-1.870006e+00
-2.059463e+00
-2.255103e+00
-2.456530e+00
-2.663380e+00
-2.875344e+00
-3.092191e+00
-3.313819e+00
-3.540316e+00
-3.772084e+00
-4.010032e+00
-4.255938e+00
-4.513120e+00
-4.787583e+00
-5.089593e+00
-5.431272e+00
-5.810286e+00
0.000000e+00
-2.951163e-02
-7.724909e-02
-1.389731e-01
-2.122853e-01
-2.963692e-01
-3.910632e-01
-4.962082e-01
-6.115785e-01
-7.368745e-01
-8.717424e-01
-1.015793e+00
-1.168613e+00
-1.329777e+00
-1.498850e+00
-1.675396e+00
-1.858979e+00
-2.049169e+00
-2.245550e+00
-2.447728e+00
-2.655345e+00
-2.868098e+00
-3.085769e+00
-3.308270e+00
-3.535714e+00
-3.768521e+00
-4.007590e+00
-4.254562e+00
-4.512149e+00
-4.784312e+00
-5.074838e+00
-5.381249e+00
-5.666480e+00
0.000000e+00
-2.497543e-02
-6.811387e-02
-1.265836e-01
-1.982232e-01
-2.817538e-01
-3.764811e-01
-4.819657e-01
-5.978273e-01
-7.236876e-01
-8.591538e-01
-1.003818e+00
-1.157260e+00
-1.319053e+00
-1.488764e+00
-1.665959e+00
-1.850207e+00
-2.041082e+00
-2.238176e+00
-2.441099e+00
-2.649502e+00
-2.863091e+00
-3.081658e+00
-3.305120e+00
-3.533582e+00
-3.767412e+00
-4.007343e+00
-4.254556e+00
-4.510613e+00
-4.776769e+00
-5.051754e+00
-5.325466e+00
-5.573867e+00
0.000000e+00
-2.208913e-02
-6.212051e-02
-1.180584e-01
-1.880847e-01
-2.708316e-01
-3.653513e-01
-4.709693e-01
-5.871539e-01
-7.134370e-01
-8.493771e-01
-9.945421e-01
-1.148502e+00
-1.310827e+00
-1.481087e+00
-1.658853e+00
-1.843697e+00
-2.035203e+00
-2.232965e+00
-2.436604e+00
-2.645773e+00
-2.860180e+00
-3.079611e+00
-3.303960e+00
-3.533266e+00
-3.767750e+00
-4.007826e+00
-4.254012e+00
-4.506594e+00
-4.764720e+00
-5.024455e+00
-5.276513e+00
-5.506883e+00
0.000000e+00
-2.029523e-02
-5.833131e-02
-1.125171e-01
-1.812931e-01
-2.633263e-01
-3.575644e-01
-4.631944e-01
-5.795696e-01
-7.061452e-01
-8.424347e-01
-9.879824e-01
-1.142349e+00
-1.305102e+00
-1.475813e+00
-1.654059e+00
-1.839419e+00
-2.031480e+00
-2.229843e+00
-2.434130e+00
-2.643991e+00
-2.859124e+00
-3.079284e+00
-3.304306e+00
-3.534112e+00
-3.768705e+00
-4.008108e+00
-4.252182e+00
-4.500224e+00
-4.750213e+00
-4.997823e+00
-5.235911e+00
-5.455723e+00
0.000000e+00
-1.930941e-02
-5.622876e-02
-1.093946e-01
-1.773989e-01
-2.589548e-01
-3.529761e-01
-4.585822e-01
-5.750603e-01
-7.018170e-01
-8.383353e-01
-9.841439e-01
-1.138797e+00
-1.301863e+00
-1.472917e+00
-1.651539e+00
-1.837313e+00
-2.029831e+00
-2.228695e+00
-2.433523e+00
-2.643952e+00
-2.859654e+00
-3.080333e+00
-3.305735e+00
-3.535636e+00
-3.769796e+00
-4.007872e+00
-4.249214e+00
-4.492534e+00
-4.735438e+00
-4.974021e+00
-5.202911e+00
-5.416136e+00
0.000000e+00
-1.899177e-02
-5.555042e-02
-1.083826e-01
-1.761298e-01
-2.575241e-01
-3.514731e-01
-4.570774e-01
-5.736044e-01
-7.004457e-01
-8.370758e-01
-9.830201e-01
-1.137833e+00
-1.301087e+00
-1.472359e+00
-1.651236e+00
-1.837304e+00
-2.030156e+00
-2.229392e+00
-2.434618e+00
-2.645452e+00
-2.861525e+00
-3.082478e+00
-3.307954e+00
-3.537572e+00
-3.770874e+00
-4.007227e+00
-4.245657e+00
-4.484623e+00
-4.721768e+00
-4.953791e+00
-5.176592e+00
-5.385795e+00
0.000000e+00
-1.930021e-02
-5.621599e-02
-1.093836e-01
-1.773956e-01
-2.589664e-01
-3.530124e-01
-4.586559e-01
-5.751885e-01
-7.020218e-01
-8.386451e-01
-9.845948e-01
-1.139434e+00
-1.302738e+00
-1.474094e+00
-1.653088e+00
-1.839310e+00
-2.032352e+00
-2.231806e+00
-2.437263e+00
-2.648315e+00
-2.864546e+00
-3.085526e+00
-3.310797e+00
-3.539836e+00
-3.772008e+00
-4.006480e+00
-4.242110e+00
-4.477309e+00
-4.709936e+00
-4.937266e+00
-5.156129e+00
-5.363182e+00
0.000000e+00
-2.027757e-02
-5.830680e-02
-1.124960e-01
-1.812865e-01
-2.633483e-01
-3.576334e-01
-4.633350e-01
-5.798144e-01
-7.065368e-01
-8.430278e-01
-9.888461e-01
-1.143568e+00
-1.306780e+00
-1.478071e+00
-1.657032e+00
-1.843254e+00
-2.036324e+00
-2.235825e+00
-2.441331e+00
-2.652403e+00
-2.868580e+00
-3.089364e+00
-3.314204e+00
-3.542461e+00
-3.773369e+00
-4.005974e+00
-4.239068e+00
-4.471126e+00
-4.700273e+00
-4.924307e+00
-5.140780e+00
-5.347130e+00
0.000000e+00
-2.206458e-02
-6.208644e-02
-1.180288e-01
-1.880752e-01
-2.708617e-01
-3.654468e-01
-4.711646e-01
-5.874947e-01
-7.139830e-01
-8.502049e-01
-9.957485e-01
-1.150207e+00
-1.313175e+00
-1.484246e+00
-1.663015e+00
-1.849070e+00
-2.041994e+00
-2.241360e+00
-2.446725e+00
-2.657621e+00
-2.873543e+00
-3.093938e+00
-3.318177e+00
-3.545534e+00
-3.775151e+00
-4.006007e+00
-4.236889e+00
-4.466379e+00
-4.692874e+00
-4.914631e+00
-5.129832e+00
-5.336607e+00
0.000000e+00
-2.494651e-02
-6.807376e-02
-1.265487e-01
-1.982121e-01
-2.817902e-01
-3.765963e-01
-4.822014e-01
-5.982387e-01
-7.243471e-01
-8.601542e-01
-1.005276e+00
-1.159322e+00
-1.321893e+00
-1.492587e+00
-1.670998e+00
-1.856713e+00
-2.049310e+00
-2.248354e+00
-2.453384e+00
-2.663911e+00
-2.879394e+00
-3.099235e+00
-3.322748e+00
-3.549145e+00
-3.777509e+00
-4.006788e+00
-4.235789e+00
-4.463206e+00
-4.687681e+00
-4.907878e+00
-5.122563e+00
-5.330585e+00
0.000000e+00
-2.948189e-02
-7.720791e-02
-1.389376e-01
-2.122758e-01
-2.964119e-01
-3.911929e-01
-4.964712e-01
-6.120362e-01
-7.376064e-01
-8.728513e-01
-1.017408e+00
-1.170894e+00
-1.332917e+00
-1.503075e+00
-1.680962e+00
-1.866162e+00
-2.058250e+00
-2.256781e+00
-2.461285e+00
-2.671252e+00
-2.886121e+00
-3.105260e+00
-3.327947e+00
-3.553354e+00
-3.780535e+00
-4.008421e+00
-4.235849e+00
-4.461607e+00
-4.684531e+00
-4.903632e+00
-5.118223e+00
-5.327960e+00
0.000000e+00
-3.682499e-02
-9.118402e-02
-1.563920e-01
-2.306882e-01
-3.148559e-01
-4.092406e-01
-5.139419e-01
-6.288499e-01
-7.537307e-01
-8.882751e-01
-1.032130e+00
-1.184918e+00
-1.346247e+00
-1.515716e+00
-1.692915e+00
-1.877428e+00
-2.068824e+00
-2.266655e+00
-2.470440e+00
-2.679661e+00
-2.893742e+00
-3.112032e+00
-3.333792e+00
-3.558177e+00
-3.784227e+00
-4.010878e+00
-4.236992e+00
-4.461427e+00
-4.683152e+00
-4.901430e+00
-5.116041e+00
-5.327502e+00
0.000000e+00
-5.014906e-02
-1.131196e-01
-1.792326e-01
-2.534047e-01
-3.369629e-01
-4.306146e-01
-5.345301e-01
-6.486313e-01
-7.726953e-01
-9.064179e-01
-1.049448e+00
-1.201408e+00
-1.361906e+00
-1.530538e+00
-1.706894e+00
-1.890555e+00
-2.081085e+00
-2.278032e+00
-2.480912e+00
-2.689198e+00
-2.902309e+00
-3.119589e+00
-3.340294e+00
-3.563578e+00
-3.788490e+00
-4.013982e+00
-4.238950e+00
-4.462301e+00
-4.683088e+00
-4.900713e+00
-5.115253e+00
-5.327892e+00
0.000000e+00
-8.071814e-02
-1.408790e-01
-2.065564e-01
-2.797177e-01
-3.623859e-01
-4.551436e-01
-5.581638e-01
-6.713590e-01
-7.945055e-01
-9.272991e-01
-1.069390e+00
-1.220400e+00
-1.379937e+00
-1.547597e+00
-1.722967e+00
-1.905623e+00
-2.095128e+00
-2.291023e+00
-2.492818e+00
-2.699983e+00
-2.911933e+00
-3.128012e+00