TITLE = "Solution"
VARIABLES = x, y, u, v, psiu, psiv, t, stress
ZONE T="structure" N=561 E=512 F=FEBLOCK ET=QUADRILATERAL VARLOCATION=([7,8]=cellcentered)
0.000000e+00
6.250000e+00
1.250000e+01
1.875000e+01
2.500000e+01
3.125000e+01
3.750000e+01
4.375000e+01
5.000000e+01
5.625000e+01
6.250000e+01
6.875000e+01
7.500000e+01
8.125000e+01
8.750000e+01
9.375000e+01
1.000000e+02
1.062500e+02
1.125000e+02
1.187500e+02
1.250000e+02
1.312500e+02
1.375000e+02
1.437500e+02
1.500000e+02
1.562500e+02
1.625000e+02
1.687500e+02
1.750000e+02
1.812500e+02
1.875000e+02
1.937500e+02
2.000000e+02
0.000000e+00
6.250000e+00
1.250000e+01
1.875000e+01
2.500000e+01
3.125000e+01
3.750000e+01
4.375000e+01
5.000000e+01
5.625000e+01
6.250000e+01
6.875000e+01
7.500000e+01
8.125000e+01
8.750000e+01
9.375000e+01
1.000000e+02
1.062500e+02
1.125000e+02
1.187500e+02
1.250000e+02
1.312500e+02
1.375000e+02
1.437500e+02
1.500000e+02
1.562500e+02
1.625000e+02
1.687500e+02
1.750000e+02
1.812500e+02
1.875000e+02
1.937500e+02
2.000000e+02
0.000000e+00
6.250000e+00
1.250000e+01
1.875000e+01
2.500000e+01
3.125000e+01
3.750000e+01
4.375000e+01
5.000000e+01
5.625000e+01
6.250000e+01
6.875000e+01
7.500000e+01
8.125000e+01
8.750000e+01
9.375000e+01
1.000000e+02
1.062500e+02
1.125000e+02
1.187500e+02
1.250000e+02
1.312500e+02
1.375000e+02
1.437500e+02
1.500000e+02
1.562500e+02
1.625000e+02
1.687500e+02
1.750000e+02
1.812500e+02
1.875000e+02
1.937500e+02
2.000000e+02
0.000000e+00
6.250000e+00
1.250000e+01
1.875000e+01
2.500000e+01
3.125000e+01
3.750000e+01
4.375000e+01
5.000000e+01
5.625000e+01
6.250000e+01
6.875000e+01
7.500000e+01
8.125000e+01
8.750000e+01
9.375000e+01
1.000000e+02
1.062500e+02
1.125000e+02
1.187500e+02
1.250000e+02
1.312500e+02
1.375000e+02
1.437500e+02
1.500000e+02
1.562500e+02
1.625000e+02
1.687500e+02
1.750000e+02
1.812500e+02
1.875000e+02
1.937500e+02
2.000000e+02
0.000000e+00
6.250000e+00
1.250000e+01
1.875000e+01
2.500000e+01
3.125000e+01
3.750000e+01
4.375000e+01
5.000000e+01
5.625000e+01
6.250000e+01
6.875000e+01
7.500000e+01
8.125000e+01
8.750000e+01
9.375000e+01
1.000000e+02
1.062500e+02
1.125000e+02
1.187500e+02
1.250000e+02
1.312500e+02
1.375000e+02
1.437500e+02
1.500000e+02
1.562500e+02
1.625000e+02
1.687500e+02
1.750000e+02
1.812500e+02
1.875000e+02
1.937500e+02
2.000000e+02
0.000000e+00
6.250000e+00
1.250000e+01
1.875000e+01
2.500000e+01
3.125000e+01
3.750000e+01
4.375000e+01
5.000000e+01
5.625000e+01
6.250000e+01
6.875000e+01
7.500000e+01
8.125000e+01
8.750000e+01
9.375000e+01
1.000000e+02
1.062500e+02
1.125000e+02
1.187500e+02
1.250000e+02
1.312500e+02
1.375000e+02
1.437500e+02
1.500000e+02
1.562500e+02
1.625000e+02
1.687500e+02
1.750000e+02
1.812500e+02
1.875000e+02
1.937500e+02
2.000000e+02
0.000000e+00
6.250000e+00
1.250000e+01
1.875000e+01
2.500000e+01
3.125000e+01
3.750000e+01
4.375000e+01
5.000000e+01
5.625000e+01
6.250000e+01
6.875000e+01
7.500000e+01
8.125000e+01
8.750000e+01
9.375000e+01
1.000000e+02
1.062500e+02
1.125000e+02
1.187500e+02
1.250000e+02
1.312500e+02
1.375000e+02
1.437500e+02
1.500000e+02
1.562500e+02
1.625000e+02
1.687500e+02
1.750000e+02
1.812500e+02
1.875000e+02
1.937500e+02
2.000000e+02
0.000000e+00
6.250000e+00
1.250000e+01
1.875000e+01
2.500000e+01
3.125000e+01
3.750000e+01
4.375000e+01
5.000000e+01
5.625000e+01
6.250000e+01
6.875000e+01
7.500000e+01
8.125000e+01
8.750000e+01
9.375000e+01
1.000000e+02
1.062500e+02
1.125000e+02
1.187500e+02
1.250000e+02
1.312500e+02
1.375000e+02
1.437500e+02
1.500000e+02
1.562500e+02
1.625000e+02
1.687500e+02
1.750000e+02
1.812500e+02
1.875000e+02
1.937500e+02
2.000000e+02
0.000000e+00
6.250000e+00
1.250000e+01
1.875000e+01
2.500000e+01
3.125000e+01
3.750000e+01
4.375000e+01
5.000000e+01
5.625000e+01
6.250000e+01
6.875000e+01
7.500000e+01
8.125000e+01
8.750000e+01
9.375000e+01
1.000000e+02
1.062500e+02
1.125000e+02
1.187500e+02
1.250000e+02
1.312500e+02
1.375000e+02
1.437500e+02
1.500000e+02
1.562500e+02
1.625000e+02
1.687500e+02
1.750000e+02
1.812500e+02
1.875000e+02
1.937500e+02
2.000000e+02
0.000000e+00
6.250000e+00
1.250000e+01
1.875000e+01
2.500000e+01
3.125000e+01
3.750000e+01
4.375000e+01
5.000000e+01
5.625000e+01
6.250000e+01
6.875000e+01
7.500000e+01
8.125000e+01
8.750000e+01
9.375000e+01
1.000000e+02
1.062500e+02
1.125000e+02
1.187500e+02
1.250000e+02
1.312500e+02
1.375000e+02
1.437500e+02
1.500000e+02
1.562500e+02
1.625000e+02
1.687500e+02
1.750000e+02
1.812500e+02
1.875000e+02
1.937500e+02
2.000000e+02
0.000000e+00
6.250000e+00
1.250000e+01
1.875000e+01
2.500000e+01
3.125000e+01
3.750000e+01
4.375000e+01
5.000000e+01
5.625000e+01
6.250000e+01
6.875000e+01
7.500000e+01
8.125000e+01
8.750000e+01
9.375000e+01
1.000000e+02
1.062500e+02
1.125000e+02
1.187500e+02
1.250000e+02
1.312500e+02
1.375000e+02
1.437500e+02
1.500000e+02
1.562500e+02
1.625000e+02
1.687500e+02
1.750000e+02
1.812500e+02
1.875000e+02
1.937500e+02
2.000000e+02
0.000000e+00
6.250000e+00
1.250000e+01
1.875000e+01
2.500000e+01
3.125000e+01
3.750000e+01
4.375000e+01
5.000000e+01
5.625000e+01
6.250000e+01
6.875000e+01
7.500000e+01
8.125000e+01
8.750000e+01
9.375000e+01
1.000000e+02
1.062500e+02
1.125000e+02
1.187500e+02
1.250000e+02
1.312500e+02
1.375000e+02
1.437500e+02
1.500000e+02
1.562500e+02
1.625000e+02
1.687500e+02
1.750000e+02
1.812500e+02
1.875000e+02
1.937500e+02
2.000000e+02
0.000000e+00
6.250000e+00
1.250000e+01
1.875000e+01
2.500000e+01
3.125000e+01
3.750000e+01
4.375000e+01
5.000000e+01
5.625000e+01
6.250000e+01
6.875000e+01
7.500000e+01
8.125000e+01
8.750000e+01
9.375000e+01
1.000000e+02
1.062500e+02
1.125000e+02
1.187500e+02
1.250000e+02
1.312500e+02
1.375000e+02
1.437500e+02
1.500000e+02
1.562500e+02
1.625000e+02
1.687500e+02
1.750000e+02
1.812500e+02
1.875000e+02
1.937500e+02
2.000000e+02
0.000000e+00
6.250000e+00
1.250000e+01
1.875000e+01
2.500000e+01
3.125000e+01
3.750000e+01
4.375000e+01
5.000000e+01
5.625000e+01
6.250000e+01
6.875000e+01
7.500000e+01
8.125000e+01
8.750000e+01
9.375000e+01
1.000000e+02
1.062500e+02
1.125000e+02
1.187500e+02
1.250000e+02
1.312500e+02
1.375000e+02
1.437500e+02
1.500000e+02
1.562500e+02
1.625000e+02
1.687500e+02
1.750000e+02
1.812500e+02
1.875000e+02
1.937500e+02
2.000000e+02
0.000000e+00
6.250000e+00
1.250000e+01
1.875000e+01
2.500000e+01
3.125000e+01
3.750000e+01
4.375000e+01
5.000000e+01
5.625000e+01
6.250000e+01
6.875000e+01
7.500000e+01
8.125000e+01
8.750000e+01
9.375000e+01
1.000000e+02
1.062500e+02
1.125000e+02
1.187500e+02
1.250000e+02
1.312500e+02
1.375000e+02
1.437500e+02
1.500000e+02
1.562500e+02
1.625000e+02
1.687500e+02
1.750000e+02
1.812500e+02
1.875000e+02
1.937500e+02
2.000000e+02
0.000000e+00
6.250000e+00
1.250000e+01
1.875000e+01
2.500000e+01
3.125000e+01
3.750000e+01
4.375000e+01
5.000000e+01
5.625000e+01
6.250000e+01
6.875000e+01
7.500000e+01
8.125000e+01
8.750000e+01
9.375000e+01
1.000000e+02
1.062500e+02
1.125000e+02
1.187500e+02
1.250000e+02
1.312500e+02
1.375000e+02
1.437500e+02
1.500000e+02
1.562500e+02
1.625000e+02
1.687500e+02
1.750000e+02
1.812500e+02
1.875000e+02
1.937500e+02
2.000000e+02
0.000000e+00
6.250000e+00
1.250000e+01
1.875000e+01
2.500000e+01
3.125000e+01
3.750000e+01
4.375000e+01
5.000000e+01
5.625000e+01
6.250000e+01
6.875000e+01
7.500000e+01
8.125000e+01
8.750000e+01
9.375000e+01
1.000000e+02
1.062500e+02
1.125000e+02
1.187500e+02
1.250000e+02
1.312500e+02
1.375000e+02
1.437500e+02
1.500000e+02
1.562500e+02
1.625000e+02
1.687500e+02
1.750000e+02
1.812500e+02
1.875000e+02
1.937500e+02
2.000000e+02
0.000000e+00
0.000000e+00
0.000000e+00
0.000000e+00
0.000000e+00
0.000000e+00
0.000000e+00
0.000000e+00
0.000000e+00
0.000000e+00
0.000000e+00
0.000000e+00
0.000000e+00
0.000000e+00
0.000000e+00
0.000000e+00
0.000000e+00
0.000000e+00
0.000000e+00
0.000000e+00
0.000000e+00
0.000000e+00
0.000000e+00
0.000000e+00
0.000000e+00
0.000000e+00
0.000000e+00
0.000000e+00
0.000000e+00
0.000000e+00
0.000000e+00
0.000000e+00
0.000000e+00
6.250000e+00
6.250000e+00
6.250000e+00
6.250000e+00
6.250000e+00
6.250000e+00
6.250000e+00
6.250000e+00
6.250000e+00
6.250000e+00
6.250000e+00
6.250000e+00
6.250000e+00
6.250000e+00
6.250000e+00
6.250000e+00
6.250000e+00
6.250000e+00
6.250000e+00
6.250000e+00
6.250000e+00
6.250000e+00
6.250000e+00
6.250000e+00
6.250000e+00
6.250000e+00
6.250000e+00
6.250000e+00
6.250000e+00
6.250000e+00
6.250000e+00
6.250000e+00
6.250000e+00
1.250000e+01
1.250000e+01
1.250000e+01
1.250000e+01
1.250000e+01
1.250000e+01
1.250000e+01
1.250000e+01
1.250000e+01
1.250000e+01
1.250000e+01
1.250000e+01
1.250000e+01
1.250000e+01
1.250000e+01
1.250000e+01
1.250000e+01
1.250000e+01
1.250000e+01
1.250000e+01
1.250000e+01
1.250000e+01
1.250000e+01
1.250000e+01
1.250000e+01
1.250000e+01
1.250000e+01
1.250000e+01
1.250000e+01
1.250000e+01
1.250000e+01
1.250000e+01
1.250000e+01
1.875000e+01
1.875000e+01
1.875000e+01
1.875000e+01
1.875000e+01
1.875000e+01
1.875000e+01
1.875000e+01
1.875000e+01
1.875000e+01
1.875000e+01
1.875000e+01
1.875000e+01
1.875000e+01
1.875000e+01
1.875000e+01
1.875000e+01
1.875000e+01
1.875000e+01
1.875000e+01
1.875000e+01
1.875000e+01
1.875000e+01
1.875000e+01
1.875000e+01
1.875000e+01
1.875000e+01
1.875000e+01
1.875000e+01
1.875000e+01
1.875000e+01
1.875000e+01
1.875000e+01
2.500000e+01
2.500000e+01
2.500000e+01
2.500000e+01
2.500000e+01
2.500000e+01
2.500000e+01
2.500000e+01
2.500000e+01
2.500000e+01
2.500000e+01
2.500000e+01
2.500000e+01
2.500000e+01
2.500000e+01
2.500000e+01
2.500000e+01
2.500000e+01
2.500000e+01
2.500000e+01
2.500000e+01
2.500000e+01
2.500000e+01
2.500000e+01
2.500000e+01
2.500000e+01
2.500000e+01
2.500000e+01
2.500000e+01
2.500000e+01
2.500000e+01
2.500000e+01
2.500000e+01
3.125000e+01
3.125000e+01
3.125000e+01
3.125000e+01
3.125000e+01
3.125000e+01
3.125000e+01
3.125000e+01
3.125000e+01
3.125000e+01
3.125000e+01
3.125000e+01
3.125000e+01
3.125000e+01
3.125000e+01
3.125000e+01
3.125000e+01
3.125000e+01
3.125000e+01
3.125000e+01
3.125000e+01
3.125000e+01
3.125000e+01
3.125000e+01
3.125000e+01
3.125000e+01
3.125000e+01
3.125000e+01
3.125000e+01
3.125000e+01
3.125000e+01
3.125000e+01
3.125000e+01
3.750000e+01
3.750000e+01
3.750000e+01
3.750000e+01
3.750000e+01
3.750000e+01
3.750000e+01
3.750000e+01
3.750000e+01
3.750000e+01
3.750000e+01
3.750000e+01
3.750000e+01
3.750000e+01
3.750000e+01
3.750000e+01
3.750000e+01
3.750000e+01
3.750000e+01
3.750000e+01
3.750000e+01
3.750000e+01
3.750000e+01
3.750000e+01
3.750000e+01
3.750000e+01
3.750000e+01
3.750000e+01
3.750000e+01
3.750000e+01
3.750000e+01
3.750000e+01
3.750000e+01
4.375000e+01
4.375000e+01
4.375000e+01
4.375000e+01
4.375000e+01
4.375000e+01
4.375000e+01
4.375000e+01
4.375000e+01
4.375000e+01
4.375000e+01
4.375000e+01
4.375000e+01
4.375000e+01
4.375000e+01
4.375000e+01
4.375000e+01
4.375000e+01
4.375000e+01
4.375000e+01
4.375000e+01
4.375000e+01
4.375000e+01
4.375000e+01
4.375000e+01
4.375000e+01
4.375000e+01
4.375000e+01
4.375000e+01
4.375000e+01
4.375000e+01
4.375000e+01
4.375000e+01
5.000000e+01
5.000000e+01
5.000000e+01
5.000000e+01
5.000000e+01
5.000000e+01
5.000000e+01
5.000000e+01
5.000000e+01
5.000000e+01
5.000000e+01
5.000000e+01
5.000000e+01
5.000000e+01
5.000000e+01
5.000000e+01
5.000000e+01
5.000000e+01
5.000000e+01
5.000000e+01
5.000000e+01
5.000000e+01
5.000000e+01
5.000000e+01
5.000000e+01
5.000000e+01
5.000000e+01
5.000000e+01
5.000000e+01
5.000000e+01
5.000000e+01
5.000000e+01
5.000000e+01
5.625000e+01
5.625000e+01
5.625000e+01
5.625000e+01
5.625000e+01
5.625000e+01
5.625000e+01
5.625000e+01
5.625000e+01
5.625000e+01
5.625000e+01
5.625000e+01
5.625000e+01
5.625000e+01
5.625000e+01
5.625000e+01
5.625000e+01
5.625000e+01
5.625000e+01
5.625000e+01
5.625000e+01
5.625000e+01
5.625000e+01
5.625000e+01
5.625000e+01
5.625000e+01
5.625000e+01
5.625000e+01
5.625000e+01
5.625000e+01
5.625000e+01
5.625000e+01
5.625000e+01
6.250000e+01
6.250000e+01
6.250000e+01
6.250000e+01
6.250000e+01
6.250000e+01
6.250000e+01
6.250000e+01
6.250000e+01
6.250000e+01
6.250000e+01
6.250000e+01
6.250000e+01
6.250000e+01
6.250000e+01
6.250000e+01
6.250000e+01
6.250000e+01
6.250000e+01
6.250000e+01
6.250000e+01
6.250000e+01
6.250000e+01
6.250000e+01
6.250000e+01
6.250000e+01
6.250000e+01
6.250000e+01
6.250000e+01
6.250000e+01
6.250000e+01
6.250000e+01
6.250000e+01
6.875000e+01
6.875000e+01
6.875000e+01
6.875000e+01
6.875000e+01
6.875000e+01
6.875000e+01
6.875000e+01
6.875000e+01
6.875000e+01
6.875000e+01
6.875000e+01
6.875000e+01
6.875000e+01
6.875000e+01
6.875000e+01
6.875000e+01
6.875000e+01
6.875000e+01
6.875000e+01
6.875000e+01
6.875000e+01
6.875000e+01
6.875000e+01
6.875000e+01
6.875000e+01
6.875000e+01
6.875000e+01
6.875000e+01
6.875000e+01
6.875000e+01
6.875000e+01
6.875000e+01
7.500000e+01
7.500000e+01
7.500000e+01
7.500000e+01
7.500000e+01
7.500000e+01
7.500000e+01
7.500000e+01
7.500000e+01
7.500000e+01
7.500000e+01
7.500000e+01
7.500000e+01
7.500000e+01
7.500000e+01
7.500000e+01
7.500000e+01
7.500000e+01
7.500000e+01
7.500000e+01
7.500000e+01
7.500000e+01
7.500000e+01
7.500000e+01
7.500000e+01
7.500000e+01
7.500000e+01
7.500000e+01
7.500000e+01
7.500000e+01
7.500000e+01
7.500000e+01
7.500000e+01
8.125000e+01
8.125000e+01
8.125000e+01
8.125000e+01
8.125000e+01
8.125000e+01
8.125000e+01
8.125000e+01
8.125000e+01
8.125000e+01
8.125000e+01
8.125000e+01
8.125000e+01
8.125000e+01
8.125000e+01
8.125000e+01
8.125000e+01
8.125000e+01
8.125000e+01
8.125000e+01
8.125000e+01
8.125000e+01
8.125000e+01
8.125000e+01
8.125000e+01
8.125000e+01
8.125000e+01
8.125000e+01
8.125000e+01
8.125000e+01
8.125000e+01
8.125000e+01
8.125000e+01
8.750000e+01
8.750000e+01
8.750000e+01
8.750000e+01
8.750000e+01
8.750000e+01
8.750000e+01
8.750000e+01
8.750000e+01
8.750000e+01
8.750000e+01
8.750000e+01
8.750000e+01
8.750000e+01
8.750000e+01
8.750000e+01
8.750000e+01
8.750000e+01
8.750000e+01
8.750000e+01
8.750000e+01
8.750000e+01
8.750000e+01
8.750000e+01
8.750000e+01
8.750000e+01
8.750000e+01
8.750000e+01
8.750000e+01
8.750000e+01
8.750000e+01
8.750000e+01
8.750000e+01
9.375000e+01
9.375000e+01
9.375000e+01
9.375000e+01
9.375000e+01
9.375000e+01
9.375000e+01
9.375000e+01
9.375000e+01
9.375000e+01
9.375000e+01
9.375000e+01
9.375000e+01
9.375000e+01
9.375000e+01
9.375000e+01
9.375000e+01
9.375000e+01
9.375000e+01
9.375000e+01
9.375000e+01
9.375000e+01
9.375000e+01
9.375000e+01
9.375000e+01
9.375000e+01
9.375000e+01
9.375000e+01
9.375000e+01
9.375000e+01
9.375000e+01
9.375000e+01
9.375000e+01
1.000000e+02
1.000000e+02
1.000000e+02
1.000000e+02
1.000000e+02
1.000000e+02
1.000000e+02
1.000000e+02
1.000000e+02
1.000000e+02
1.000000e+02
1.000000e+02
1.000000e+02
1.000000e+02
1.000000e+02
1.000000e+02
1.000000e+02
1.000000e+02
1.000000e+02
1.000000e+02
1.000000e+02
1.000000e+02
1.000000e+02
1.000000e+02
1.000000e+02
1.000000e+02
1.000000e+02
1.000000e+02
1.000000e+02
1.000000e+02
1.000000e+02
1.000000e+02
1.000000e+02
0.000000e+00
-5.548424e-02
-1.006688e-01
-1.425259e-01
-1.826969e-01
-2.214883e-01
-2.589777e-01
-2.951619e-01
-3.300181e-01
-3.635209e-01
-3.956493e-01
-4.263889e-01
-4.557322e-01
-4.836784e-01
-5.102342e-01
-5.354136e-01
-5.592390e-01
-5.817433e-01
-6.029718e-01
-6.229854e-01
-6.418655e-01
-6.597199e-01
-6.766906e-01
-6.929664e-01
-7.088002e-01
-7.245354e-01
-7.406492e-01
-7.578222e-01
-7.770526e-01
-7.998093e-01
-8.279981e-01
-8.615914e-01
-8.820929e-01
0.000000e+00
-3.720067e-02
-7.739998e-02
-1.153027e-01
-1.513277e-01
-1.858182e-01
-2.189563e-01
-2.508218e-01
-2.814465e-01
-3.108406e-01
-3.390061e-01
-3.659431e-01
-3.916527e-01
-4.161392e-01
-4.394107e-01
-4.614801e-01
-4.823662e-01
-5.020948e-01
-5.207001e-01
-5.382265e-01
-5.547306e-01
-5.702838e-01
-5.849747e-01
-5.989117e-01
-6.122243e-01
-6.250616e-01
-6.375808e-01
-6.499115e-01
-6.620528e-01
-6.736097e-01
-6.832398e-01
-6.888700e-01
-6.967081e-01
0.000000e+00
-2.950765e-02
-6.074859e-02
-9.255686e-02
-1.234647e-01
-1.532335e-01
-1.818444e-01
-2.093243e-01
-2.356977e-01
-2.609810e-01
-2.851851e-01
-3.083175e-01
-3.303846e-01
-3.513928e-01
-3.713501e-01
-3.902660e-01
-4.081529e-01
-4.250261e-01
-4.409047e-01
-4.558113e-01
-4.697720e-01
-4.828149e-01
-4.949679e-01
-5.062525e-01
-5.166733e-01
-5.261967e-01
-5.347139e-01
-5.419741e-01
-5.474863e-01
-5.504545e-01
-5.501942e-01
-5.485275e-01
-5.576804e-01
0.000000e+00
-2.341170e-02
-4.811639e-02
-7.349739e-02
-9.881893e-02
-1.235272e-01
-1.474105e-01
-1.703930e-01
-1.924541e-01
-2.135930e-01
-2.338150e-01
-2.531270e-01
-2.715354e-01
-2.890461e-01
-3.056642e-01
-3.213944e-01
-3.362409e-01
-3.502077e-01
-3.632976e-01
-3.755113e-01
-3.868457e-01
-3.972904e-01
-4.068223e-01
-4.153970e-01
-4.229353e-01
-4.293041e-01
-4.342927e-01
-4.375963e-01
-4.388576e-01
-4.379213e-01
-4.356471e-01
-4.355113e-01
-4.442317e-01
0.000000e+00
-1.817075e-02
-3.720751e-02
-5.685240e-02
-7.665690e-02
-9.621852e-02
-1.152673e-01
-1.336667e-01
-1.513545e-01
-1.683069e-01
-1.845175e-01
-1.999872e-01
-2.147189e-01
-2.287151e-01
-2.419768e-01
-2.545027e-01
-2.662889e-01
-2.773283e-01
-2.876096e-01
-2.971154e-01
-3.058203e-01
-3.136870e-01
-3.206617e-01
-3.266679e-01
-3.315993e-01
-3.353164e-01
-3.376555e-01
-3.384760e-01
-3.378029e-01
-3.361558e-01
-3.350872e-01
-3.375549e-01
-3.449937e-01
0.000000e+00
-1.335445e-02
-2.728106e-02
-4.165509e-02
-5.622819e-02
-7.072832e-02
-8.493952e-02
-9.872141e-02
-1.119969e-01
-1.247287e-01
-1.369007e-01
-1.485076e-01
-1.595472e-01
-1.700177e-01
-1.799151e-01
-1.892323e-01
-1.979583e-01
-2.060771e-01
-2.135667e-01
-2.203980e-01
-2.265322e-01
-2.319199e-01
-2.364979e-01
-2.401895e-01
-2.429071e-01
-2.445653e-01
-2.451154e-01
-2.446217e-01
-2.434049e-01
-2.422472e-01
-2.425290e-01
-2.456748e-01
-2.518300e-01
0.000000e+00
-8.788836e-03
-1.792531e-02
-2.735162e-02
-3.693336e-02
-4.650924e-02
-5.593484e-02
-6.510490e-02
-7.395355e-02
-8.244443e-02
-9.055918e-02
-9.828856e-02
-1.056266e-01
-1.125673e-01
-1.191022e-01
-1.252194e-01
-1.309024e-01
-1.361292e-01
-1.408720e-01
-1.450957e-01
-1.487579e-01
-1.518089e-01
-1.541934e-01
-1.558550e-01
-1.567478e-01
-1.568585e-01
-1.562481e-01
-1.551185e-01
-1.538996e-01
-1.533088e-01
-1.542306e-01
-1.572934e-01
-1.622619e-01
0.000000e+00
-4.365412e-03
-8.895864e-03
-1.356807e-02
-1.832302e-02
-2.308561e-02
-2.778449e-02
-3.236385e-02
-3.678598e-02
-4.102784e-02
-4.507577e-02
-4.892074e-02
-5.255490e-02
-5.596921e-02
-5.915206e-02
-6.208815e-02
-6.475778e-02
-6.713631e-02
-6.919385e-02
-7.089534e-02
-7.220146e-02
-7.307086e-02
-7.346469e-02
-7.335515e-02
-7.274008e-02
-7.166642e-02
-7.026411e-02
-6.878653e-02
-6.763949e-02
-6.735216e-02
-6.843370e-02
-7.110554e-02
-7.504798e-02
0.000000e+00
-7.043318e-06
-1.527190e-05
-2.422991e-05
-3.344615e-05
-4.228530e-05
-4.978989e-05
-5.450494e-05
-5.427295e-05
-4.598722e-05
-2.529399e-05
1.376180e-05
7.914655e-05
1.812948e-04
3.335911e-04
5.528347e-04
8.596158e-04
1.278486e-03
1.837741e-03
2.568528e-03
3.502875e-03
4.670011e-03
6.090182e-03
7.764930e-03
9.662882e-03
1.170090e-02
1.372294e-02
1.548461e-02
1.666061e-02
1.689909e-02
1.593884e-02
1.376419e-02
1.071846e-02
0.000000e+00
4.352147e-03
8.867041e-03
1.352225e-02
1.825962e-02
2.300522e-02
2.768949e-02
3.225931e-02
3.668100e-02
4.093732e-02
4.502279e-02
4.893956e-02
5.269473e-02
5.629894e-02
5.976581e-02
6.311182e-02
6.635628e-02
6.952122e-02
7.263079e-02
7.570982e-02
7.878133e-02
8.186222e-02
8.495689e-02
8.804816e-02
9.108578e-02
9.397390e-02
9.656132e-02
9.864239e-02
9.997954e-02
1.003581e-01
9.967249e-02
9.802051e-02
9.575998e-02
0.000000e+00
8.777998e-03
1.790160e-02
2.731366e-02
3.688043e-02
4.644150e-02
5.585384e-02
6.501435e-02
7.386033e-02
8.236011e-02
9.050190e-02
9.828552e-02
1.057173e-01
1.128072e-01
1.195676e-01
1.260131e-01
1.321596e-01
1.380249e-01
1.436269e-01
1.489832e-01
1.541075e-01
1.590065e-01
1.636733e-01
1.680811e-01
1.721746e-01
1.758628e-01
1.790176e-01
1.814816e-01
1.830943e-01
1.837391e-01
1.834076e-01
1.822645e-01
1.806868e-01
0.000000e+00
1.334754e-02
2.726566e-02
4.163001e-02
5.619258e-02
7.068183e-02
8.488264e-02
9.865594e-02
1.119267e-01
1.246603e-01
1.368452e-01
1.484816e-01
1.595755e-01
1.701356e-01
1.801717e-01
1.896945e-01
1.987152e-01
2.072453e-01
2.152957e-01
2.228757e-01
2.299906e-01
2.366388e-01
2.428074e-01
2.484673e-01
2.535684e-01
2.580366e-01
2.617757e-01
2.646776e-01
2.666456e-01
2.676317e-01
2.676872e-01
2.670166e-01
2.660195e-01
0.000000e+00
1.816903e-02
3.720322e-02
5.684471e-02
7.664502e-02
9.620176e-02
1.152453e-01
1.336393e-01
1.513223e-01
1.682713e-01
1.844813e-01
1.999550e-01
2.146982e-01
2.287168e-01
2.420169e-01
2.546039e-01
2.664824e-01
2.776565e-01
2.881287e-01
2.978995e-01
3.069662e-01
3.153202e-01
3.229456e-01
3.298159e-01
3.358925e-01
3.411246e-01
3.454521e-01
3.488154e-01
3.511725e-01
3.525267e-01
3.529660e-01
3.527142e-01
3.521889e-01
0.000000e+00
2.341605e-02
4.812523e-02
7.351054e-02
9.883602e-02
1.235477e-01
1.474338e-01
1.704178e-01
1.924786e-01
2.136142e-01
2.338283e-01
2.531257e-01
2.715098e-01
2.889829e-01
3.055451e-01
3.211952e-01
3.359302e-01
3.497452e-01
3.626335e-01
3.745859e-01
3.855904e-01
3.956315e-01
4.046903e-01
4.127439e-01
4.197666e-01
4.257320e-01
4.306179e-01
4.344131e-01
4.371293e-01
4.388174e-01
4.395938e-01
4.396864e-01
4.395121e-01
0.000000e+00
2.951827e-02
6.077126e-02
9.259236e-02
1.235137e-01
1.532966e-01
1.819217e-01
2.094149e-01
2.357990e-01
2.610879e-01
2.852883e-01
3.084023e-01
3.304281e-01
3.513618e-01
3.711967e-01
3.899238e-01
4.075316e-01
4.240057e-01
4.393287e-01
4.534802e-01
4.664370e-01
4.781739e-01
4.886652e-01
4.978876e-01
5.058236e-01
5.124671e-01
5.178301e-01
5.219505e-01
5.248993e-01
5.267880e-01
5.277766e-01
5.280986e-01
5.281370e-01
0.000000e+00
3.721661e-02
7.743481e-02
1.153587e-01
1.514077e-01
1.859248e-01
2.190919e-01
2.509878e-01
2.816421e-01
3.110619e-01
3.392440e-01
3.661806e-01
3.918615e-01
4.162750e-01
4.394071e-01
4.612415e-01
4.817582e-01
5.009330e-01
5.187373e-01
5.351373e-01
5.500952e-01
5.635709e-01
5.755244e-01
5.859215e-01
5.947407e-01
6.019824e-01
6.076808e-01
6.119161e-01
6.148256e-01
6.166083e-01
6.175191e-01
6.178494e-01
6.179303e-01
0.000000e+00
5.550169e-02
1.007095e-01
1.425956e-01
1.828013e-01
2.216330e-01
2.591687e-01
2.954047e-01
3.303172e-01
3.638781e-01
3.960616e-01
4.268453e-01
4.562095e-01
4.841353e-01
5.106033e-01
5.355914e-01
5.590730e-01
5.810154e-01
6.013784e-01
6.201139e-01
6.371655e-01
6.524703e-01
6.659628e-01
6.775809e-01
6.872768e-01
6.950309e-01
7.008708e-01
7.048939e-01
7.072919e-01
7.083723e-01
7.085687e-01
7.084061e-01
7.083145e-01
0.000000e+00
-3.428820e-02
-5.984035e-02
-8.772392e-02
-1.187740e-01
-1.538481e-01
-1.931900e-01
-2.368682e-01
-2.848390e-01
-3.369998e-01
-3.932121e-01
-4.533171e-01
-5.171431e-01
-5.845117e-01
-6.552404e-01
-7.291461e-01
-8.060462e-01
-8.857615e-01
-9.681189e-01
-1.052955e+00
-1.140123e+00
-1.229498e+00
-1.320992e+00
-1.414568e+00
-1.510274e+00
-1.608288e+00
-1.708998e+00
-1.813164e+00
-1.922242e+00
-2.039111e+00
-2.169982e+00
-2.329513e+00
-2.549911e+00
0.000000e+00
-2.130881e-02
-4.805518e-02
-7.612683e-02
-1.076096e-01
-1.430648e-01
-1.827890e-01
-2.268494e-01
-2.752064e-01
-3.277570e-01
-3.843623e-01
-4.448618e-01
-5.090827e-01
-5.768449e-01
-6.479644e-01
-7.222559e-01
-7.995349e-01
-8.796194e-01
-9.623330e-01
-1.047509e+00
-1.134993e+00
-1.224656e+00
-1.316401e+00
-1.410182e+00
-1.506033e+00
-1.604115e+00
-1.704798e+00
-1.808817e+00
-1.917598e+00
-2.033970e+00
-2.163830e+00
-2.319811e+00
-2.525718e+00
0.000000e+00
-1.565256e-02
-3.874186e-02
-6.643058e-02
-9.796837e-02
-1.336848e-01
-1.737225e-01
-2.181188e-01
-2.668201e-01
-3.197188e-01
-3.766736e-01
-4.375228e-01
-5.020927e-01
-5.702025e-01
-6.416677e-01
-7.163023e-01
-7.939206e-01
-8.743400e-01
-9.573825e-01
-1.042880e+00
-1.130678e+00
-1.220645e+00
-1.312683e+00
-1.406750e+00
-1.502882e+00
-1.601250e+00
-1.702239e+00
-1.806605e+00
-1.915754e+00
-2.032236e+00
-2.160407e+00
-2.305414e+00
-2.466269e+00
0.000000e+00
-1.253391e-02
-3.280655e-02
-5.901876e-02
-9.015124e-02
-1.258566e-01
-1.660656e-01
-2.107105e-01
-2.596953e-01
-3.128923e-01
-3.701514e-01
-4.313068e-01
-4.961834e-01
-5.646000e-01
-6.363722e-01
-7.113147e-01
-7.892423e-01
-8.699729e-01
-9.533298e-01
-1.039146e+00
-1.127269e+00
-1.217571e+00
-1.309959e+00
-1.404396e+00
-1.500930e+00
-1.599738e+00
-1.701204e+00
-1.806021e+00
-1.915343e+00
-2.030848e+00
-2.154144e+00
-2.284183e+00
-2.405236e+00
0.000000e+00
-1.060576e-02
-2.892508e-02
-5.375550e-02
-8.417829e-02
-1.196495e-01
-1.598736e-01
-2.046636e-01
-2.538577e-01
-3.072950e-01
-3.648085e-01
-4.262249e-01
-4.913659e-01
-5.600497e-01
-6.320927e-01
-7.073108e-01
-7.855207e-01
-8.665423e-01
-9.502015e-01
-1.036334e+00
-1.124790e+00
-1.215447e+00
-1.308215e+00
-1.403060e+00
-1.500025e+00
-1.599268e+00
-1.701099e+00
-1.806019e+00
-1.914691e+00
-2.027647e+00
-2.144348e+00
-2.260511e+00
-2.365936e+00
0.000000e+00
-9.378862e-03
-2.637834e-02
-5.013356e-02
-7.987152e-02
-1.150104e-01
-1.551471e-01
-1.999944e-01
-2.493263e-01
-3.029436e-01
-3.606588e-01
-4.222881e-01
-4.876491e-01
-5.565591e-01
-6.288353e-01
-7.042954e-01
-7.827587e-01
-8.640478e-01
-9.479910e-01
-1.034427e+00
-1.123208e+00
-1.214212e+00
-1.307347e+00
-1.402568e+00
-1.499891e+00
-1.599412e+00
-1.701304e+00
-1.805788e+00
-1.912986e+00
-2.022535e+00
-2.132766e+00
-2.239741e+00
-2.337516e+00
0.000000e+00
-8.616358e-03
-2.476818e-02
-4.777922e-02
-7.698630e-02
-1.118224e-01
-1.518399e-01
-1.966928e-01
-2.461061e-01
-2.998481e-01
-3.577119e-01
-4.195039e-01
-4.850375e-01
-5.541292e-01
-6.265972e-01
-7.022614e-01
-7.809434e-01
-8.624682e-01
-9.466664e-01
-1.033377e+00
-1.122453e+00
-1.213764e+00
-1.307208e+00
-1.402715e+00
-1.500250e+00
-1.599817e+00
-1.701423e+00
-1.805012e+00
-1.910283e+00
-2.016380e+00
-2.121467e+00
-2.222516e+00
-2.315812e+00
0.000000e+00
-8.197351e-03
-2.387473e-02
-4.645250e-02
-7.533187e-02
-1.099654e-01
-1.498911e-01
-1.947341e-01
-2.441914e-01
-2.980105e-01
-3.559716e-01
-4.178746e-01
-4.835302e-01
-5.527548e-01
-6.253681e-01
-7.011919e-01
-7.800498e-01
-8.617687e-01
-9.461793e-01
-1.033119e+00
-1.122436e+00
-1.213989e+00
-1.307653e+00
-1.403321e+00
-1.500897e+00
-1.600280e+00
-1.701323e+00
-1.803753e+00
-1.907021e+00
-2.010112e+00
-2.111370e+00
-2.208517e+00
-2.299019e+00
0.000000e+00
-8.062349e-03
-2.358648e-02
-4.602249e-02
-7.479267e-02
-1.093577e-01
-1.492527e-01
-1.940951e-01
-2.435731e-01
-2.974282e-01
-3.554369e-01
-4.173976e-01
-4.831211e-01
-5.524252e-01
-6.251314e-01
-7.010633e-01
-7.800459e-01
-8.619066e-01
-9.464749e-01
-1.033584e+00
-1.123072e+00
-1.214783e+00
-1.308563e+00
-1.404262e+00
-1.501718e+00
-1.600737e+00
-1.701050e+00
-1.802244e+00
-1.903664e+00
-2.004313e+00
-2.102788e+00
-2.197352e+00
-2.286148e+00
0.000000e+00
-8.193446e-03
-2.386931e-02
-4.644783e-02
-7.533046e-02
-1.099704e-01
-1.499065e-01
-1.947654e-01
-2.442457e-01
-2.980973e-01
-3.561031e-01
-4.180659e-01
-4.838001e-01
-5.531261e-01
-6.258673e-01
-7.018490e-01
-7.808971e-01
-8.628381e-01
-9.474989e-01
-1.034706e+00
-1.124287e+00
-1.216064e+00
-1.309856e+00
-1.405468e+00
-1.502678e+00
-1.601218e+00
-1.700733e+00
-1.800739e+00
-1.900562e+00
-1.999294e+00
-2.095779e+00
-2.188672e+00
-2.276556e+00
0.000000e+00
-8.608865e-03
-2.475778e-02
-4.777022e-02
-7.698347e-02
-1.118317e-01
-1.518691e-01
-1.967525e-01
-2.462099e-01
-3.000142e-01
-3.579635e-01
-4.198703e-01
-4.855549e-01
-5.548412e-01
-6.275550e-01
-7.035227e-01
-7.825704e-01
-8.645231e-01
-9.492038e-01
-1.036432e+00
-1.126021e+00
-1.217775e+00
-1.311484e+00
-1.406913e+00
-1.503792e+00
-1.601795e+00
-1.700518e+00
-1.799448e+00
-1.897939e+00
-1.995195e+00
-2.090282e+00
-2.182162e+00
-2.269747e+00
0.000000e+00
-9.368447e-03
-2.636389e-02
-5.012099e-02
-7.986745e-02
-1.150232e-01
-1.551876e-01
-2.000773e-01
-2.494708e-01
-3.031752e-01
-3.610099e-01
-4.227999e-01
-4.883722e-01
-5.575548e-01
-6.301754e-01
-7.060613e-01
-7.850380e-01
-8.669288e-01
-9.515522e-01
-1.038720e+00
-1.128234e+00
-1.219881e+00
-1.313425e+00
-1.408599e+00
-1.505096e+00
-1.602551e+00
-1.700532e+00
-1.798524e+00
-1.895925e+00
-1.992056e+00
-2.086177e+00
-2.177518e+00
-2.265284e+00
0.000000e+00
-1.059349e-02
-2.890806e-02
-5.374070e-02
-8.417358e-02
-1.196649e-01
-1.599224e-01
-2.047636e-01
-2.540322e-01
-3.075747e-01
-3.652329e-01
-4.268436e-01
-4.922404e-01
-5.612542e-01
-6.337144e-01
-7.094482e-01
-7.882807e-01
-8.700328e-01
-9.545192e-01
-1.041545e+00
-1.130903e+00
-1.222363e+00
-1.315672e+00
-1.410538e+00
-1.506627e+00
-1.603551e+00
-1.700863e+00
-1.798057e+00
-1.894579e+00
-1.989853e+00
-2.083313e+00
-2.174434e+00
-2.262729e+00
0.000000e+00
-1.252130e-02
-3.278909e-02
-5.900371e-02
-9.014720e-02
-1.258747e-01
-1.661206e-01
-2.108221e-01
-2.598894e-01
-3.132028e-01
-3.706218e-01
-4.319920e-01
-4.971511e-01
-5.659320e-01
-6.381645e-01
-7.136758e-01
-7.922897e-01
-8.738254e-01
-9.580943e-01
-1.044897e+00
-1.134017e+00
-1.225217e+00
-1.318227e+00
-1.412743e+00
-1.508413e+00
-1.604835e+00
-1.701556e+00
-1.798082e+00
-1.893901e+00
-1.988517e+00
-2.081512e+00
-2.172593e+00
-2.261616e+00
0.000000e+00
-1.564157e-02
-3.872656e-02
-6.641787e-02
-9.796716e-02
-1.337068e-01
-1.737833e-01
-2.182388e-01
-2.670263e-01
-3.200464e-01
-3.771675e-01
-4.382395e-01
-5.031019e-01
-5.715881e-01
-6.435276e-01
-7.187470e-01
-7.970692e-01
-8.783114e-01
-9.622830e-01
-1.048781e+00
-1.137584e+00
-1.228449e+00
-1.321100e+00
-1.415223e+00
-1.510459e+00
-1.606401e+00
-1.702598e+00
-1.798568e+00
-1.893825e+00
-1.987932e+00
-2.080578e+00
-2.171668e+00
-2.261421e+00
0.000000e+00
-2.130175e-02
-4.804477e-02
-7.611936e-02
-1.076143e-01
-1.430935e-01
-1.828575e-01
-2.269782e-01
-2.754224e-01
-3.280951e-01
-3.848667e-01
-4.455881e-01
-5.100987e-01
-5.782318e-01
-6.498162e-01
-7.246778e-01
-8.026380e-01
-8.835128e-01
-9.671096e-01
-1.053223e+00
-1.141630e+00
-1.232084e+00
-1.324306e+00
-1.417981e+00
-1.512750e+00
-1.608209e+00
-1.703915e+00
-1.799398e+00
-1.894195e+00
-1.987905e+00
-2.080274e+00
-2.171333e+00
-2.261587e+00
0.000000e+00
-3.428720e-02
-5.983688e-02
-8.772459e-02
-1.187880e-01
-1.538875e-01
-1.932705e-01
-2.370101e-01
-2.850688e-01
-3.373511e-01
-3.937278e-01
-4.540499e-01
-5.181571e-01
-5.858823e-01
-6.570539e-01
-7.314966e-01
-8.090306e-01
-8.894700e-01
-9.726202e-01
-1.058274e+00
-1.146205e+00
-1.236166e+00
-1.327879e+00