TITLE = "Solution"
VARIABLES = x, y, u, v, psiu, psiv, t, stress
ZONE T="structure" N=561 E=512 F=FEBLOCK ET=QUADRILATERAL VARLOCATION=([7,8]=cellcentered)
0.000000e+00
6.250000e+00
1.250000e+01
1.875000e+01
2.500000e+01
3.125000e+01
3.750000e+01
4.375000e+01
5.000000e+01
5.625000e+01
6.250000e+01
6.875000e+01
7.500000e+01
8.125000e+01
8.750000e+01
9.375000e+01
1.000000e+02
1.062500e+02
1.125000e+02
1.187500e+02
1.250000e+02
1.312500e+02
1.375000e+02
1.437500e+02
1.500000e+02
1.562500e+02
1.625000e+02
1.687500e+02
1.750000e+02
1.812500e+02
1.875000e+02
1.937500e+02
2.000000e+02
0.000000e+00
6.250000e+00
1.250000e+01
1.875000e+01
2.500000e+01
3.125000e+01
3.750000e+01
4.375000e+01
5.000000e+01
5.625000e+01
6.250000e+01
6.875000e+01
7.500000e+01
8.125000e+01
8.750000e+01
9.375000e+01
1.000000e+02
1.062500e+02
1.125000e+02
1.187500e+02
1.250000e+02
1.312500e+02
1.375000e+02
1.437500e+02
1.500000e+02
1.562500e+02
1.625000e+02
1.687500e+02
1.750000e+02
1.812500e+02
1.875000e+02
1.937500e+02
2.000000e+02
0.000000e+00
6.250000e+00
1.250000e+01
1.875000e+01
2.500000e+01
3.125000e+01
3.750000e+01
4.375000e+01
5.000000e+01
5.625000e+01
6.250000e+01
6.875000e+01
7.500000e+01
8.125000e+01
8.750000e+01
9.375000e+01
1.000000e+02
1.062500e+02
1.125000e+02
1.187500e+02
1.250000e+02
1.312500e+02
1.375000e+02
1.437500e+02
1.500000e+02
1.562500e+02
1.625000e+02
1.687500e+02
1.750000e+02
1.812500e+02
1.875000e+02
1.937500e+02
2.000000e+02
0.000000e+00
6.250000e+00
1.250000e+01
1.875000e+01
2.500000e+01
3.125000e+01
3.750000e+01
4.375000e+01
5.000000e+01
5.625000e+01
6.250000e+01
6.875000e+01
7.500000e+01
8.125000e+01
8.750000e+01
9.375000e+01
1.000000e+02
1.062500e+02
1.125000e+02
1.187500e+02
1.250000e+02
1.312500e+02
1.375000e+02
1.437500e+02
1.500000e+02
1.562500e+02
1.625000e+02
1.687500e+02
1.750000e+02
1.812500e+02
1.875000e+02
1.937500e+02
2.000000e+02
0.000000e+00
6.250000e+00
1.250000e+01
1.875000e+01
2.500000e+01
3.125000e+01
3.750000e+01
4.375000e+01
5.000000e+01
5.625000e+01
6.250000e+01
6.875000e+01
7.500000e+01
8.125000e+01
8.750000e+01
9.375000e+01
1.000000e+02
1.062500e+02
1.125000e+02
1.187500e+02
1.250000e+02
1.312500e+02
1.375000e+02
1.437500e+02
1.500000e+02
1.562500e+02
1.625000e+02
1.687500e+02
1.750000e+02
1.812500e+02
1.875000e+02
1.937500e+02
2.000000e+02
0.000000e+00
6.250000e+00
1.250000e+01
1.875000e+01
2.500000e+01
3.125000e+01
3.750000e+01
4.375000e+01
5.000000e+01
5.625000e+01
6.250000e+01
6.875000e+01
7.500000e+01
8.125000e+01
8.750000e+01
9.375000e+01
1.000000e+02
1.062500e+02
1.125000e+02
1.187500e+02
1.250000e+02
1.312500e+02
1.375000e+02
1.437500e+02
1.500000e+02
1.562500e+02
1.625000e+02
1.687500e+02
1.750000e+02
1.812500e+02
1.875000e+02
1.937500e+02
2.000000e+02
0.000000e+00
6.250000e+00
1.250000e+01
1.875000e+01
2.500000e+01
3.125000e+01
3.750000e+01
4.375000e+01
5.000000e+01
5.625000e+01
6.250000e+01
6.875000e+01
7.500000e+01
8.125000e+01
8.750000e+01
9.375000e+01
1.000000e+02
1.062500e+02
1.125000e+02
1.187500e+02
1.250000e+02
1.312500e+02
1.375000e+02
1.437500e+02
1.500000e+02
1.562500e+02
1.625000e+02
1.687500e+02
1.750000e+02
1.812500e+02
1.875000e+02
1.937500e+02
2.000000e+02
0.000000e+00
6.250000e+00
1.250000e+01
1.875000e+01
2.500000e+01
3.125000e+01
3.750000e+01
4.375000e+01
5.000000e+01
5.625000e+01
6.250000e+01
6.875000e+01
7.500000e+01
8.125000e+01
8.750000e+01
9.375000e+01
1.000000e+02
1.062500e+02
1.125000e+02
1.187500e+02
1.250000e+02
1.312500e+02
1.375000e+02
1.437500e+02
1.500000e+02
1.562500e+02
1.625000e+02
1.687500e+02
1.750000e+02
1.812500e+02
1.875000e+02
1.937500e+02
2.000000e+02
0.000000e+00
6.250000e+00
1.250000e+01
1.875000e+01
2.500000e+01
3.125000e+01
3.750000e+01
4.375000e+01
5.000000e+01
5.625000e+01
6.250000e+01
6.875000e+01
7.500000e+01
8.125000e+01
8.750000e+01
9.375000e+01
1.000000e+02
1.062500e+02
1.125000e+02
1.187500e+02
1.250000e+02
1.312500e+02
1.375000e+02
1.437500e+02
1.500000e+02
1.562500e+02
1.625000e+02
1.687500e+02
1.750000e+02
1.812500e+02
1.875000e+02
1.937500e+02
2.000000e+02
0.000000e+00
6.250000e+00
1.250000e+01
1.875000e+01
2.500000e+01
3.125000e+01
3.750000e+01
4.375000e+01
5.000000e+01
5.625000e+01
6.250000e+01
6.875000e+01
7.500000e+01
8.125000e+01
8.750000e+01
9.375000e+01
1.000000e+02
1.062500e+02
1.125000e+02
1.187500e+02
1.250000e+02
1.312500e+02
1.375000e+02
1.437500e+02
1.500000e+02
1.562500e+02
1.625000e+02
1.687500e+02
1.750000e+02
1.812500e+02
1.875000e+02
1.937500e+02
2.000000e+02
0.000000e+00
6.250000e+00
1.250000e+01
1.875000e+01
2.500000e+01
3.125000e+01
3.750000e+01
4.375000e+01
5.000000e+01
5.625000e+01
6.250000e+01
6.875000e+01
7.500000e+01
8.125000e+01
8.750000e+01
9.375000e+01
1.000000e+02
1.062500e+02
1.125000e+02
1.187500e+02
1.250000e+02
1.312500e+02
1.375000e+02
1.437500e+02
1.500000e+02
1.562500e+02
1.625000e+02
1.687500e+02
1.750000e+02
1.812500e+02
1.875000e+02
1.937500e+02
2.000000e+02
0.000000e+00
6.250000e+00
1.250000e+01
1.875000e+01
2.500000e+01
3.125000e+01
3.750000e+01
4.375000e+01
5.000000e+01
5.625000e+01
6.250000e+01
6.875000e+01
7.500000e+01
8.125000e+01
8.750000e+01
9.375000e+01
1.000000e+02
1.062500e+02
1.125000e+02
1.187500e+02
1.250000e+02
1.312500e+02
1.375000e+02
1.437500e+02
1.500000e+02
1.562500e+02
1.625000e+02
1.687500e+02
1.750000e+02
1.812500e+02
1.875000e+02
1.937500e+02
2.000000e+02
0.000000e+00
6.250000e+00
1.250000e+01
1.875000e+01
2.500000e+01
3.125000e+01
3.750000e+01
4.375000e+01
5.000000e+01
5.625000e+01
6.250000e+01
6.875000e+01
7.500000e+01
8.125000e+01
8.750000e+01
9.375000e+01
1.000000e+02
1.062500e+02
1.125000e+02
1.187500e+02
1.250000e+02
1.312500e+02
1.375000e+02
1.437500e+02
1.500000e+02
1.562500e+02
1.625000e+02
1.687500e+02
1.750000e+02
1.812500e+02
1.875000e+02
1.937500e+02
2.000000e+02
0.000000e+00
6.250000e+00
1.250000e+01
1.875000e+01
2.500000e+01
3.125000e+01
3.750000e+01
4.375000e+01
5.000000e+01
5.625000e+01
6.250000e+01
6.875000e+01
7.500000e+01
8.125000e+01
8.750000e+01
9.375000e+01
1.000000e+02
1.062500e+02
1.125000e+02
1.187500e+02
1.250000e+02
1.312500e+02
1.375000e+02
1.437500e+02
1.500000e+02
1.562500e+02
1.625000e+02
1.687500e+02
1.750000e+02
1.812500e+02
1.875000e+02
1.937500e+02
2.000000e+02
0.000000e+00
6.250000e+00
1.250000e+01
1.875000e+01
2.500000e+01
3.125000e+01
3.750000e+01
4.375000e+01
5.000000e+01
5.625000e+01
6.250000e+01
6.875000e+01
7.500000e+01
8.125000e+01
8.750000e+01
9.375000e+01
1.000000e+02
1.062500e+02
1.125000e+02
1.187500e+02
1.250000e+02
1.312500e+02
1.375000e+02
1.437500e+02
1.500000e+02
1.562500e+02
1.625000e+02
1.687500e+02
1.750000e+02
1.812500e+02
1.875000e+02
1.937500e+02
2.000000e+02
0.000000e+00
6.250000e+00
1.250000e+01
1.875000e+01
2.500000e+01
3.125000e+01
3.750000e+01
4.375000e+01
5.000000e+01
5.625000e+01
6.250000e+01
6.875000e+01
7.500000e+01
8.125000e+01
8.750000e+01
9.375000e+01
1.000000e+02
1.062500e+02
1.125000e+02
1.187500e+02
1.250000e+02
1.312500e+02
1.375000e+02
1.437500e+02
1.500000e+02
1.562500e+02
1.625000e+02
1.687500e+02
1.750000e+02
1.812500e+02
1.875000e+02
1.937500e+02
2.000000e+02
0.000000e+00
6.250000e+00
1.250000e+01
1.875000e+01
2.500000e+01
3.125000e+01
3.750000e+01
4.375000e+01
5.000000e+01
5.625000e+01
6.250000e+01
6.875000e+01
7.500000e+01
8.125000e+01
8.750000e+01
9.375000e+01
1.000000e+02
1.062500e+02
1.125000e+02
1.187500e+02
1.250000e+02
1.312500e+02
1.375000e+02
1.437500e+02
1.500000e+02
1.562500e+02
1.625000e+02
1.687500e+02
1.750000e+02
1.812500e+02
1.875000e+02
1.937500e+02
2.000000e+02
0.000000e+00
0.000000e+00
0.000000e+00
0.000000e+00
0.000000e+00
0.000000e+00
0.000000e+00
0.000000e+00
0.000000e+00
0.000000e+00
0.000000e+00
0.000000e+00
0.000000e+00
0.000000e+00
0.000000e+00
0.000000e+00
0.000000e+00
0.000000e+00
0.000000e+00
0.000000e+00
0.000000e+00
0.000000e+00
0.000000e+00
0.000000e+00
0.000000e+00
0.000000e+00
0.000000e+00
0.000000e+00
0.000000e+00
0.000000e+00
0.000000e+00
0.000000e+00
0.000000e+00
6.250000e+00
6.250000e+00
6.250000e+00
6.250000e+00
6.250000e+00
6.250000e+00
6.250000e+00
6.250000e+00
6.250000e+00
6.250000e+00
6.250000e+00
6.250000e+00
6.250000e+00
6.250000e+00
6.250000e+00
6.250000e+00
6.250000e+00
6.250000e+00
6.250000e+00
6.250000e+00
6.250000e+00
6.250000e+00
6.250000e+00
6.250000e+00
6.250000e+00
6.250000e+00
6.250000e+00
6.250000e+00
6.250000e+00
6.250000e+00
6.250000e+00
6.250000e+00
6.250000e+00
1.250000e+01
1.250000e+01
1.250000e+01
1.250000e+01
1.250000e+01
1.250000e+01
1.250000e+01
1.250000e+01
1.250000e+01
1.250000e+01
1.250000e+01
1.250000e+01
1.250000e+01
1.250000e+01
1.250000e+01
1.250000e+01
1.250000e+01
1.250000e+01
1.250000e+01
1.250000e+01
1.250000e+01
1.250000e+01
1.250000e+01
1.250000e+01
1.250000e+01
1.250000e+01
1.250000e+01
1.250000e+01
1.250000e+01
1.250000e+01
1.250000e+01
1.250000e+01
1.250000e+01
1.875000e+01
1.875000e+01
1.875000e+01
1.875000e+01
1.875000e+01
1.875000e+01
1.875000e+01
1.875000e+01
1.875000e+01
1.875000e+01
1.875000e+01
1.875000e+01
1.875000e+01
1.875000e+01
1.875000e+01
1.875000e+01
1.875000e+01
1.875000e+01
1.875000e+01
1.875000e+01
1.875000e+01
1.875000e+01
1.875000e+01
1.875000e+01
1.875000e+01
1.875000e+01
1.875000e+01
1.875000e+01
1.875000e+01
1.875000e+01
1.875000e+01
1.875000e+01
1.875000e+01
2.500000e+01
2.500000e+01
2.500000e+01
2.500000e+01
2.500000e+01
2.500000e+01
2.500000e+01
2.500000e+01
2.500000e+01
2.500000e+01
2.500000e+01
2.500000e+01
2.500000e+01
2.500000e+01
2.500000e+01
2.500000e+01
2.500000e+01
2.500000e+01
2.500000e+01
2.500000e+01
2.500000e+01
2.500000e+01
2.500000e+01
2.500000e+01
2.500000e+01
2.500000e+01
2.500000e+01
2.500000e+01
2.500000e+01
2.500000e+01
2.500000e+01
2.500000e+01
2.500000e+01
3.125000e+01
3.125000e+01
3.125000e+01
3.125000e+01
3.125000e+01
3.125000e+01
3.125000e+01
3.125000e+01
3.125000e+01
3.125000e+01
3.125000e+01
3.125000e+01
3.125000e+01
3.125000e+01
3.125000e+01
3.125000e+01
3.125000e+01
3.125000e+01
3.125000e+01
3.125000e+01
3.125000e+01
3.125000e+01
3.125000e+01
3.125000e+01
3.125000e+01
3.125000e+01
3.125000e+01
3.125000e+01
3.125000e+01
3.125000e+01
3.125000e+01
3.125000e+01
3.125000e+01
3.750000e+01
3.750000e+01
3.750000e+01
3.750000e+01
3.750000e+01
3.750000e+01
3.750000e+01
3.750000e+01
3.750000e+01
3.750000e+01
3.750000e+01
3.750000e+01
3.750000e+01
3.750000e+01
3.750000e+01
3.750000e+01
3.750000e+01
3.750000e+01
3.750000e+01
3.750000e+01
3.750000e+01
3.750000e+01
3.750000e+01
3.750000e+01
3.750000e+01
3.750000e+01
3.750000e+01
3.750000e+01
3.750000e+01
3.750000e+01
3.750000e+01
3.750000e+01
3.750000e+01
4.375000e+01
4.375000e+01
4.375000e+01
4.375000e+01
4.375000e+01
4.375000e+01
4.375000e+01
4.375000e+01
4.375000e+01
4.375000e+01
4.375000e+01
4.375000e+01
4.375000e+01
4.375000e+01
4.375000e+01
4.375000e+01
4.375000e+01
4.375000e+01
4.375000e+01
4.375000e+01
4.375000e+01
4.375000e+01
4.375000e+01
4.375000e+01
4.375000e+01
4.375000e+01
4.375000e+01
4.375000e+01
4.375000e+01
4.375000e+01
4.375000e+01
4.375000e+01
4.375000e+01
5.000000e+01
5.000000e+01
5.000000e+01
5.000000e+01
5.000000e+01
5.000000e+01
5.000000e+01
5.000000e+01
5.000000e+01
5.000000e+01
5.000000e+01
5.000000e+01
5.000000e+01
5.000000e+01
5.000000e+01
5.000000e+01
5.000000e+01
5.000000e+01
5.000000e+01
5.000000e+01
5.000000e+01
5.000000e+01
5.000000e+01
5.000000e+01
5.000000e+01
5.000000e+01
5.000000e+01
5.000000e+01
5.000000e+01
5.000000e+01
5.000000e+01
5.000000e+01
5.000000e+01
5.625000e+01
5.625000e+01
5.625000e+01
5.625000e+01
5.625000e+01
5.625000e+01
5.625000e+01
5.625000e+01
5.625000e+01
5.625000e+01
5.625000e+01
5.625000e+01
5.625000e+01
5.625000e+01
5.625000e+01
5.625000e+01
5.625000e+01
5.625000e+01
5.625000e+01
5.625000e+01
5.625000e+01
5.625000e+01
5.625000e+01
5.625000e+01
5.625000e+01
5.625000e+01
5.625000e+01
5.625000e+01
5.625000e+01
5.625000e+01
5.625000e+01
5.625000e+01
5.625000e+01
6.250000e+01
6.250000e+01
6.250000e+01
6.250000e+01
6.250000e+01
6.250000e+01
6.250000e+01
6.250000e+01
6.250000e+01
6.250000e+01
6.250000e+01
6.250000e+01
6.250000e+01
6.250000e+01
6.250000e+01
6.250000e+01
6.250000e+01
6.250000e+01
6.250000e+01
6.250000e+01
6.250000e+01
6.250000e+01
6.250000e+01
6.250000e+01
6.250000e+01
6.250000e+01
6.250000e+01
6.250000e+01
6.250000e+01
6.250000e+01
6.250000e+01
6.250000e+01
6.250000e+01
6.875000e+01
6.875000e+01
6.875000e+01
6.875000e+01
6.875000e+01
6.875000e+01
6.875000e+01
6.875000e+01
6.875000e+01
6.875000e+01
6.875000e+01
6.875000e+01
6.875000e+01
6.875000e+01
6.875000e+01
6.875000e+01
6.875000e+01
6.875000e+01
6.875000e+01
6.875000e+01
6.875000e+01
6.875000e+01
6.875000e+01
6.875000e+01
6.875000e+01
6.875000e+01
6.875000e+01
6.875000e+01
6.875000e+01
6.875000e+01
6.875000e+01
6.875000e+01
6.875000e+01
7.500000e+01
7.500000e+01
7.500000e+01
7.500000e+01
7.500000e+01
7.500000e+01
7.500000e+01
7.500000e+01
7.500000e+01
7.500000e+01
7.500000e+01
7.500000e+01
7.500000e+01
7.500000e+01
7.500000e+01
7.500000e+01
7.500000e+01
7.500000e+01
7.500000e+01
7.500000e+01
7.500000e+01
7.500000e+01
7.500000e+01
7.500000e+01
7.500000e+01
7.500000e+01
7.500000e+01
7.500000e+01
7.500000e+01
7.500000e+01
7.500000e+01
7.500000e+01
7.500000e+01
8.125000e+01
8.125000e+01
8.125000e+01
8.125000e+01
8.125000e+01
8.125000e+01
8.125000e+01
8.125000e+01
8.125000e+01
8.125000e+01
8.125000e+01
8.125000e+01
8.125000e+01
8.125000e+01
8.125000e+01
8.125000e+01
8.125000e+01
8.125000e+01
8.125000e+01
8.125000e+01
8.125000e+01
8.125000e+01
8.125000e+01
8.125000e+01
8.125000e+01
8.125000e+01
8.125000e+01
8.125000e+01
8.125000e+01
8.125000e+01
8.125000e+01
8.125000e+01
8.125000e+01
8.750000e+01
8.750000e+01
8.750000e+01
8.750000e+01
8.750000e+01
8.750000e+01
8.750000e+01
8.750000e+01
8.750000e+01
8.750000e+01
8.750000e+01
8.750000e+01
8.750000e+01
8.750000e+01
8.750000e+01
8.750000e+01
8.750000e+01
8.750000e+01
8.750000e+01
8.750000e+01
8.750000e+01
8.750000e+01
8.750000e+01
8.750000e+01
8.750000e+01
8.750000e+01
8.750000e+01
8.750000e+01
8.750000e+01
8.750000e+01
8.750000e+01
8.750000e+01
8.750000e+01
9.375000e+01
9.375000e+01
9.375000e+01
9.375000e+01
9.375000e+01
9.375000e+01
9.375000e+01
9.375000e+01
9.375000e+01
9.375000e+01
9.375000e+01
9.375000e+01
9.375000e+01
9.375000e+01
9.375000e+01
9.375000e+01
9.375000e+01
9.375000e+01
9.375000e+01
9.375000e+01
9.375000e+01
9.375000e+01
9.375000e+01
9.375000e+01
9.375000e+01
9.375000e+01
9.375000e+01
9.375000e+01
9.375000e+01
9.375000e+01
9.375000e+01
9.375000e+01
9.375000e+01
1.000000e+02
1.000000e+02
1.000000e+02
1.000000e+02
1.000000e+02
1.000000e+02
1.000000e+02
1.000000e+02
1.000000e+02
1.000000e+02
1.000000e+02
1.000000e+02
1.000000e+02
1.000000e+02
1.000000e+02
1.000000e+02
1.000000e+02
1.000000e+02
1.000000e+02
1.000000e+02
1.000000e+02
1.000000e+02
1.000000e+02
1.000000e+02
1.000000e+02
1.000000e+02
1.000000e+02
1.000000e+02
1.000000e+02
1.000000e+02
1.000000e+02
1.000000e+02
1.000000e+02
0.000000e+00
-3.835633e-01
-6.871839e-01
-9.852618e-01
-1.289081e+00
-1.582383e+00
-1.876706e+00
-2.172557e+00
-2.466081e+00
-2.758828e+00
-3.051560e+00
-3.343467e+00
-3.634386e+00
-3.924433e+00
-4.213415e+00
-4.501047e+00
-4.787071e+00
-5.071156e+00
-5.352822e+00
-5.631348e+00
-5.905689e+00
-6.174586e+00
-6.436947e+00
-6.692339e+00
-6.941405e+00
-7.186099e+00
-7.429803e+00
-7.677551e+00
-7.936907e+00
-8.219245e+00
-8.531223e+00
-8.855516e+00
-9.041526e+00
0.000000e+00
-2.386557e-01
-4.932639e-01
-7.508569e-01
-1.015724e+00
-1.272285e+00
-1.529661e+00
-1.788699e+00
-2.045776e+00
-2.302003e+00
-2.558153e+00
-2.813545e+00
-3.067993e+00
-3.321609e+00
-3.574240e+00
-3.825633e+00
-4.075552e+00
-4.323692e+00
-4.569602e+00
-4.812591e+00
-5.051615e+00
-5.285318e+00
-5.512288e+00
-5.731426e+00
-5.942223e+00
-6.144842e+00
-6.339987e+00
-6.528563e+00
-6.710485e+00
-6.879154e+00
-7.008034e+00
-7.073074e+00
-7.157540e+00
0.000000e+00
-1.724428e-01
-3.583331e-01
-5.666755e-01
-7.860142e-01
-1.002859e+00
-1.222413e+00
-1.443916e+00
-1.664589e+00
-1.884996e+00
-2.105398e+00
-2.325228e+00
-2.544291e+00
-2.762559e+00
-2.979818e+00
-3.195777e+00
-3.410115e+00
-3.622408e+00
-3.832063e+00
-4.038239e+00
-4.239769e+00
-4.435167e+00
-4.622781e+00
-4.800992e+00
-4.968332e+00
-5.123427e+00
-5.264680e+00
-5.389542e+00
-5.492755e+00
-5.562624e+00
-5.583638e+00
-5.579266e+00
-5.662765e+00
0.000000e+00
-1.308529e-01
-2.717423e-01
-4.317927e-01
-6.040920e-01
-7.801996e-01
-9.609923e-01
-1.144207e+00
-1.327984e+00
-1.512264e+00
-1.696713e+00
-1.880814e+00
-2.064317e+00
-2.247007e+00
-2.428571e+00
-2.608642e+00
-2.786779e+00
-2.962406e+00
-3.134770e+00
-3.302888e+00
-3.465499e+00
-3.621065e+00
-3.767823e+00
-3.903856e+00
-4.027114e+00
-4.135308e+00
-4.225661e+00
-4.294484e+00
-4.336769e+00
-4.347398e+00
-4.333816e+00
-4.336963e+00
-4.412586e+00
0.000000e+00
-1.060698e-01
-2.162482e-01
-3.373646e-01
-4.668891e-01
-6.034737e-01
-7.448064e-01
-8.889361e-01
-1.034812e+00
-1.181683e+00
-1.328913e+00
-1.476041e+00
-1.622708e+00
-1.768557e+00
-1.913206e+00
-2.056216e+00
-2.197052e+00
-2.335041e+00
-2.469343e+00
-2.598914e+00
-2.722483e+00
-2.838538e+00
-2.945330e+00
-3.040890e+00
-3.123036e+00
-3.189358e+00
-3.237233e+00
-3.264056e+00
-3.268308e+00
-3.253576e+00
-3.239492e+00
-3.263148e+00
-3.337862e+00
0.000000e+00
-8.039493e-02
-1.634871e-01
-2.513530e-01
-3.455287e-01
-4.450652e-01
-5.487010e-01
-6.551786e-01
-7.635218e-01
-8.729570e-01
-9.828693e-01
-1.092785e+00
-1.202300e+00
-1.311022e+00
-1.418539e+00
-1.524376e+00
-1.627963e+00
-1.728602e+00
-1.825443e+00
-1.917463e+00
-2.003455e+00
-2.082016e+00
-2.151550e+00
-2.210293e+00
-2.256374e+00
-2.287953e+00
-2.303525e+00
-2.302666e+00
-2.287770e+00
-2.267765e+00
-2.263370e+00
-2.296659e+00
-2.371269e+00
0.000000e+00
-5.384848e-02
-1.092072e-01
-1.673255e-01
-2.289497e-01
-2.940749e-01
-3.620644e-01
-4.321882e-01
-5.037616e-01
-5.761934e-01
-6.489980e-01
-7.217735e-01
-7.941594e-01
-8.657995e-01
-9.363083e-01
-1.005239e+00
-1.072054e+00
-1.136100e+00
-1.196594e+00
-1.252611e+00
-1.303082e+00
-1.346804e+00
-1.382469e+00
-1.408731e+00
-1.424345e+00
-1.428424e+00
-1.420921e+00
-1.403505e+00
-1.381071e+00
-1.363897e+00
-1.367698e+00
-1.405300e+00
-1.475063e+00
0.000000e+00
-2.700262e-02
-5.475423e-02
-8.373826e-02
-1.143185e-01
-1.465340e-01
-1.801696e-01
-2.148787e-01
-2.503040e-01
-2.861172e-01
-3.220298e-01
-3.577833e-01
-3.931286e-01
-4.278036e-01
-4.615092e-01
-4.938869e-01
-5.244966e-01
-5.527994e-01
-5.781465e-01
-5.997790e-01
-6.168416e-01
-6.284169e-01
-6.335904e-01
-6.315646e-01
-6.218487e-01
-6.045657e-01
-5.809342e-01
-5.539744e-01
-5.293941e-01
-5.161359e-01
-5.247942e-01
-5.616411e-01
-6.221835e-01
0.000000e+00
-1.514186e-04
-2.776202e-04
-3.700572e-04
-4.147875e-04
-3.934797e-04
-2.833886e-04
-5.633393e-05
3.231130e-04
9.001036e-04
1.732742e-03
2.896329e-03
4.489044e-03
6.639524e-03
9.516763e-03
1.334234e-02
1.840410e-02
2.506851e-02
3.378676e-02
4.508706e-02
5.954533e-02
7.772697e-02
1.000927e-01
1.268586e-01
1.577963e-01
1.919541e-01
2.272923e-01
2.602742e-01
2.855918e-01
2.964931e-01
2.866999e-01
2.543083e-01
2.050933e-01
0.000000e+00
2.669780e-02
5.419221e-02
8.298450e-02
1.134664e-01
1.457131e-01
1.795534e-01
2.146954e-01
2.508503e-01
2.877776e-01
3.253011e-01
3.633067e-01
4.017330e-01
4.405618e-01
4.798123e-01
5.195408e-01
5.598447e-01
6.008704e-01
6.428167e-01
6.859234e-01
7.304311e-01
7.765082e-01
8.241455e-01
8.730196e-01
9.223246e-01
9.705710e-01
1.015376e+00
1.053325e+00
1.080089e+00
1.091118e+00
1.083327e+00
1.057516e+00
1.020012e+00
0.000000e+00
5.353745e-02
1.086245e-01
1.665307e-01
2.280304e-01
2.931520e-01
3.612983e-01
4.317886e-01
5.040005e-01
5.774216e-01
6.516670e-01
7.264626e-01
8.016102e-01
8.769600e-01
9.523898e-01
1.027788e+00
1.103047e+00
1.178063e+00
1.252739e+00
1.326974e+00
1.400623e+00
1.473421e+00
1.544891e+00
1.614248e+00
1.680288e+00
1.741281e+00
1.794892e+00
1.838207e+00
1.868030e+00
1.881629e+00
1.878053e+00
1.859687e+00
1.833176e+00
0.000000e+00
8.007402e-02
1.628714e-01
2.504941e-01
3.445046e-01
4.439803e-01
5.476906e-01
6.544184e-01
7.632388e-01
8.734428e-01
9.844975e-01
1.096030e+00
1.207762e+00
1.319453e+00
1.430874e+00
1.541774e+00
1.651855e+00
1.760761e+00
1.868075e+00
1.973309e+00
2.075863e+00
2.174981e+00
2.269706e+00
2.358855e+00
2.440987e+00
2.514376e+00
2.577001e+00
2.626635e+00
2.661155e+00
2.679186e+00
2.681102e+00
2.670165e+00
2.653296e+00
0.000000e+00
1.057395e-01
2.156024e-01
3.364455e-01
4.657589e-01
6.022117e-01
7.435086e-01
8.877255e-01
1.033848e+00
1.181172e+00
1.329117e+00
1.477292e+00
1.625417e+00
1.773224e+00
1.920429e+00
2.066694e+00
2.211584e+00
2.354531e+00
2.494805e+00
2.631476e+00
2.763386e+00
2.889169e+00
3.007316e+00
3.116264e+00
3.214447e+00
3.300312e+00
3.372319e+00
3.429019e+00
3.469272e+00
3.492727e+00
3.500562e+00
3.496445e+00
3.487509e+00
0.000000e+00
1.305435e-01
2.711264e-01
4.309098e-01
6.029778e-01
7.788957e-01
9.595471e-01
1.142676e+00
1.326442e+00
1.510809e+00
1.695473e+00
1.879947e+00
2.064014e+00
2.247490e+00
2.430076e+00
2.611395e+00
2.790959e+00
2.968088e+00
3.141791e+00
3.310643e+00
3.472769e+00
3.625997e+00
3.768125e+00
3.897165e+00
4.011464e+00
4.109730e+00
4.191000e+00
4.254659e+00
4.300550e+00
4.329241e+00
4.342501e+00
4.344098e+00
4.341099e+00
0.000000e+00
1.722498e-01
3.579448e-01
5.661081e-01
7.852791e-01
1.001957e+00
1.221348e+00
1.442686e+00
1.663185e+00
1.883414e+00
2.103632e+00
2.323263e+00
2.542099e+00
2.760081e+00
2.976938e+00
3.192275e+00
3.405625e+00
3.616311e+00
3.823188e+00
4.024344e+00
4.217058e+00
4.398149e+00
4.564531e+00
4.713664e+00
4.843738e+00
4.953676e+00
5.043067e+00
5.112145e+00
5.161818e+00
5.193749e+00
5.210501e+00
5.215952e+00
5.216571e+00
0.000000e+00
2.386553e-01
4.932477e-01
7.508218e-01
1.015662e+00
1.272174e+00
1.529491e+00
1.788442e+00
2.045387e+00
2.301421e+00
2.557296e+00
2.812292e+00
3.066172e+00
3.318976e+00
3.570436e+00
3.820121e+00
4.067570e+00
4.312112e+00
4.552453e+00
4.786199e+00
5.009765e+00
5.218903e+00
5.409557e+00
5.578508e+00
5.723614e+00
5.843791e+00
5.938960e+00
6.010056e+00
6.059110e+00
6.089282e+00
6.104751e+00
6.110376e+00
6.111747e+00
0.000000e+00
3.837620e-01
6.875544e-01
9.858154e-01
1.289800e+00
1.583249e+00
1.877728e+00
2.173729e+00
2.467380e+00
2.760220e+00
3.052990e+00
3.344838e+00
3.635546e+00
3.925154e+00
4.213342e+00
4.499627e+00
4.783481e+00
5.064067e+00
5.339731e+00
5.607455e+00
5.862796e+00
6.100568e+00
6.315834e+00
6.504618e+00
6.664160e+00
6.792925e+00
6.890624e+00
6.958388e+00
6.999073e+00
7.017604e+00
7.021135e+00
7.018481e+00
7.016951e+00
0.000000e+00
-2.349245e-01
-4.412345e-01
-6.892816e-01
-9.694042e-01
-1.282553e+00
-1.632938e+00
-2.019209e+00
-2.441443e+00
-2.900741e+00
-3.397139e+00
-3.930568e+00
-4.501197e+00
-5.109054e+00
-5.754010e+00
-6.435902e+00
-7.154494e+00
-7.909434e+00
-8.700228e+00
-9.526205e+00
-1.038652e+01
-1.128026e+01
-1.220670e+01
-1.316563e+01
-1.415772e+01
-1.518512e+01
-1.625210e+01
-1.736599e+01
-1.853847e+01
-1.978878e+01
-2.116301e+01
-2.279220e+01
-2.501558e+01
0.000000e+00
-1.459757e-01
-3.619356e-01
-6.057712e-01
-8.863232e-01
-1.200495e+00
-1.550194e+00
-1.936490e+00
-2.359140e+00
-2.818507e+00
-3.315014e+00
-3.848713e+00
-4.419620e+00
-5.027771e+00
-5.673098e+00
-6.355444e+00
-7.074582e+00
-7.830192e+00
-8.621838e+00
-9.448939e+00
-1.031074e+01
-1.120639e+01
-1.213506e+01
-1.309635e+01
-1.409066e+01
-1.511983e+01
-1.618787e+01
-1.730197e+01
-1.847423e+01
-1.972640e+01
-2.110427e+01
-2.270501e+01
-2.474317e+01
0.000000e+00
-1.101968e-01
-3.014635e-01
-5.401440e-01
-8.179479e-01
-1.131025e+00
-1.479803e+00
-1.865614e+00
-2.288186e+00
-2.747544e+00
-3.244117e+00
-3.778018e+00
-4.349212e+00
-4.957717e+00
-5.603495e+00
-6.286409e+00
-7.006250e+00
-7.762736e+00
-8.555490e+00
-9.384013e+00
-1.024765e+01
-1.114559e+01
-1.207703e+01
-1.304147e+01
-1.403922e+01
-1.507201e+01
-1.614384e+01
-1.726236e+01
-1.844145e+01
-1.970539e+01
-2.108430e+01
-2.258908e+01
-2.419673e+01
0.000000e+00
-9.972620e-02
-2.703742e-01
-4.961860e-01
-7.672548e-01
-1.076418e+00
-1.422976e+00
-1.807387e+00
-2.229181e+00
-2.688202e+00
-3.184700e+00
-3.718726e+00
-4.290232e+00
-4.899211e+00
-5.545627e+00
-6.229364e+00
-6.950246e+00
-7.708032e+00
-8.502399e+00
-9.332907e+00
-1.019896e+01
-1.109982e+01
-1.203471e+01
-1.300314e+01
-1.400538e+01
-1.504308e+01
-1.612019e+01
-1.724433e+01
-1.842909e+01
-1.969460e+01
-2.104357e+01
-2.242646e+01
-2.370698e+01
0.000000e+00
-1.009288e-01
-2.594147e-01
-4.729961e-01
-7.341906e-01
-1.037426e+00
-1.380327e+00
-1.762296e+00
-2.182617e+00
-2.640912e+00
-3.137135e+00
-3.671217e+00
-4.243074e+00
-4.852662e+00
-5.499929e+00
-6.184779e+00
-6.907069e+00
-7.666596e+00
-8.463070e+00
-9.296085e+00
-1.016508e+01
-1.106934e+01
-1.200812e+01
-1.298093e+01
-1.398790e+01
-1.503042e+01
-1.611177e+01
-1.723814e+01
-1.841945e+01
-1.966540e+01
-2.095867e+01
-2.222304e+01
-2.335109e+01
0.000000e+00
-1.011834e-01
-2.549196e-01
-4.602356e-01
-7.136573e-01
-1.011029e+00
-1.350051e+00
-1.729335e+00
-2.147960e+00
-2.605363e+00
-3.101231e+00
-3.635363e+00
-4.207624e+00
-4.817930e+00
-5.466215e+00
-6.152398e+00
-6.876364e+00
-7.637939e+00
-8.436853e+00
-9.272703e+00
-1.014492e+01
-1.105279e+01
-1.199551e+01
-1.297245e+01
-1.398344e+01
-1.502916e+01
-1.611153e+01
-1.723391e+01
-1.840031e+01
-1.960949e+01
-2.083189e+01
-2.199987e+01
-2.302940e+01
0.000000e+00
-1.008273e-01
-2.521191e-01
-4.529301e-01
-7.011806e-01
-9.942758e-01
-1.330086e+00
-1.707115e+00
-2.124301e+00
-2.580922e+00
-3.076506e+00
-3.610752e+00
-4.183473e+00
-4.794557e+00
-5.443933e+00
-6.131539e+00
-6.857283e+00
-7.621014e+00
-8.422467e+00
-9.261225e+00
-1.013667e+01
-1.104800e+01
-1.199427e+01
-1.297453e+01
-1.398802e+01
-1.503436e+01
-1.611356e+01
-1.722555e+01
-1.836845e+01
-1.953259e+01
-2.068628e+01
-2.177469e+01
-2.273408e+01
0.000000e+00
-1.005278e-01
-2.504982e-01
-4.490132e-01
-6.945154e-01
-9.850813e-01
-1.318908e+00
-1.694525e+00
-2.110823e+00
-2.566999e+00
-3.062503e+00
-3.596976e+00
-4.170203e+00
-4.782062e+00
-5.432495e+00
-6.121461e+00
-6.848897e+00
-7.614669e+00
-8.418514e+00
-9.259980e+00
-1.013837e+01
-1.105270e+01
-1.200175e+01
-1.298409e+01
-1.399817e+01
-1.504232e+01
-1.611449e+01
-1.721143e+01
-1.832674e+01
-1.944636e+01
-2.054101e+01
-2.156761e+01
-2.247913e+01
0.000000e+00
-1.004393e-01
-2.500132e-01
-4.478556e-01
-6.925438e-01
-9.823532e-01
-1.315598e+00
-1.690845e+00
-2.106979e+00
-2.563179e+00
-3.058879e+00
-3.593713e+00
-4.167467e+00
-4.780037e+00
-5.431387e+00
-6.121507e+00
-6.850369e+00
-7.617863e+00
-8.423727e+00
-9.267461e+00
-1.014825e+01
-1.106487e+01
-1.201572e+01
-1.299877e+01
-1.401154e+01
-1.505107e+01
-1.611346e+01
-1.719302e+01
-1.828064e+01
-1.936088e+01
-2.040849e+01
-2.139029e+01
-2.227148e+01
0.000000e+00
-1.005983e-01
-2.506538e-01
-4.492860e-01
-6.949498e-01
-9.857312e-01
-1.319836e+00
-1.695805e+00
-2.112544e+00
-2.569268e+00
-3.065451e+00
-3.600766e+00
-4.175036e+00
-4.788191e+00
-5.440231e+00
-6.131186e+00
-6.861067e+00
-7.629798e+00
-8.437127e+00
-9.282510e+00
-1.016498e+01
-1.108306e+01
-1.203467e+01
-1.301711e+01
-1.402702e+01
-1.506022e+01
-1.611138e+01
-1.717326e+01
-1.823557e+01
-1.928333e+01
-2.029564e+01
-2.124717e+01
-2.211183e+01
0.000000e+00
-1.009554e-01
-2.524069e-01
-4.534442e-01
-7.020094e-01
-9.955244e-01
-1.331876e+00
-1.709589e+00
-2.127630e+00
-2.585311e+00
-3.082208e+00
-3.618078e+00
-4.192807e+00
-4.806375e+00
-5.458827e+00
-6.150231e+00
-6.880639e+00
-7.650018e+00
-8.458144e+00
-9.304442e+00
-1.018781e+01
-1.110646e+01
-1.205784e+01
-1.303859e+01
-1.404450e+01
-1.507045e+01
-1.611008e+01
-1.715536e+01
-1.819587e+01
-1.921808e+01
-2.020514e+01
-2.113793e+01
-2.199690e+01
0.000000e+00
-1.013425e-01
-2.552929e-01
-4.609298e-01
-7.148030e-01
-1.012776e+00
-1.352571e+00
-1.732830e+00
-2.152671e+00
-2.611579e+00
-3.109306e+00
-3.645728e+00
-4.220813e+00
-4.834600e+00
-5.487174e+00
-6.178633e+00
-6.909062e+00
-7.678474e+00
-8.486693e+00
-9.333140e+00
-1.021659e+01
-1.113496e+01
-1.208522e+01
-1.306340e+01
-1.406461e+01
-1.508300e+01
-1.611161e+01
-1.714211e+01
-1.816453e+01
-1.916717e+01
-2.013680e+01
-2.105945e+01
-2.192106e+01
0.000000e+00
-1.010785e-01
-2.598075e-01
-4.737870e-01
-7.355462e-01
-1.039528e+00
-1.383388e+00
-1.766563e+00
-2.188383e+00
-2.648530e+00
-3.147033e+00
-3.683918e+00
-4.259215e+00
-4.873024e+00
-5.525467e+00
-6.216649e+00
-6.946664e+00
-7.715562e+00
-8.523222e+00
-9.369080e+00
-1.025180e+01
-1.116903e+01
-1.211731e+01
-1.309219e+01
-1.408826e+01
-1.509919e+01
-1.611771e+01
-1.713549e+01
-1.814325e+01
-1.913105e+01
-2.008884e+01
-2.100719e+01
-2.187747e+01
0.000000e+00
-9.981888e-02
-2.707232e-01
-4.969876e-01
-7.687023e-01
-1.078711e+00
-1.426351e+00
-1.812122e+00
-2.235601e+00
-2.696702e+00
-3.195758e+00
-3.732919e+00
-4.308256e+00
-4.921919e+00
-5.574047e+00
-6.264734e+00
-6.994053e+00
-7.762058e+00
-8.568650e+00
-9.413257e+00
-1.029443e+01
-1.120958e+01
-1.215496e+01
-1.312577e+01
-1.411629e+01
-1.511998e+01
-1.612943e+01
-1.713649e+01
-1.813251e+01
-1.910902e+01
-2.005858e+01
-2.097593e+01
-2.185832e+01
0.000000e+00
-1.102227e-01
-3.017578e-01
-5.409137e-01
-8.194006e-01
-1.133369e+00
-1.483284e+00
-1.870526e+00
-2.294871e+00
-2.756413e+00
-3.255674e+00
-3.792862e+00
-4.368067e+00
-4.981457e+00
-5.633171e+00
-6.323272e+00
-7.051795e+00
-7.818747e+00
-8.623960e+00
-9.466759e+00
-1.034555e+01
-1.125757e+01
-1.219892e+01
-1.316469e+01
-1.414913e+01
-1.514563e+01
-1.614687e+01
-1.714489e+01
-1.813155e+01
-1.909938e+01
-2.004287e+01
-2.096019e+01
-2.185482e+01
0.000000e+00
-1.459834e-01
-3.622118e-01
-6.065233e-01
-8.877648e-01
-1.202840e+00
-1.553690e+00
-1.941431e+00
-2.365872e+00
-2.827446e+00
-3.326663e+00
-3.863674e+00
-4.438613e+00
-5.051659e+00
-5.702912e+00
-6.392405e+00
-7.120137e+00
-7.886018e+00
-8.689693e+00
-9.530230e+00
-1.040580e+01
-1.131354e+01
-1.224957e+01
-1.320912e+01
-1.418659e+01
-1.517557e+01
-1.616892e+01
-1.715895e+01
-1.813793e+01
-1.909902e+01
-2.003776e+01
-2.095449e+01
-2.185752e+01
0.000000e+00
-2.349744e-01
-4.415366e-01
-6.900602e-01
-9.708669e-01
-1.284919e+00
-1.636456e+00
-2.024169e+00
-2.448187e+00
-2.909682e+00
-3.408772e+00
-3.945483e+00
-4.520099e+00
-5.132778e+00
-5.783544e+00
-6.472408e+00
-7.199333e+00
-7.964092e+00
-8.766036e+00
-9.603841e+00
-1.047536e+01
-1.137764e+01
-1.230697e+01