TITLE = "Solution"
VARIABLES = x, y, u, v, psiu, psiv, t, stress
ZONE T="structure" N=561 E=512 F=FEBLOCK ET=QUADRILATERAL VARLOCATION=([7,8]=cellcentered)
0.000000e+00
6.250000e+00
1.250000e+01
1.875000e+01
2.500000e+01
3.125000e+01
3.750000e+01
4.375000e+01
5.000000e+01
5.625000e+01
6.250000e+01
6.875000e+01
7.500000e+01
8.125000e+01
8.750000e+01
9.375000e+01
1.000000e+02
1.062500e+02
1.125000e+02
1.187500e+02
1.250000e+02
1.312500e+02
1.375000e+02
1.437500e+02
1.500000e+02
1.562500e+02
1.625000e+02
1.687500e+02
1.750000e+02
1.812500e+02
1.875000e+02
1.937500e+02
2.000000e+02
0.000000e+00
6.250000e+00
1.250000e+01
1.875000e+01
2.500000e+01
3.125000e+01
3.750000e+01
4.375000e+01
5.000000e+01
5.625000e+01
6.250000e+01
6.875000e+01
7.500000e+01
8.125000e+01
8.750000e+01
9.375000e+01
1.000000e+02
1.062500e+02
1.125000e+02
1.187500e+02
1.250000e+02
1.312500e+02
1.375000e+02
1.437500e+02
1.500000e+02
1.562500e+02
1.625000e+02
1.687500e+02
1.750000e+02
1.812500e+02
1.875000e+02
1.937500e+02
2.000000e+02
0.000000e+00
6.250000e+00
1.250000e+01
1.875000e+01
2.500000e+01
3.125000e+01
3.750000e+01
4.375000e+01
5.000000e+01
5.625000e+01
6.250000e+01
6.875000e+01
7.500000e+01
8.125000e+01
8.750000e+01
9.375000e+01
1.000000e+02
1.062500e+02
1.125000e+02
1.187500e+02
1.250000e+02
1.312500e+02
1.375000e+02
1.437500e+02
1.500000e+02
1.562500e+02
1.625000e+02
1.687500e+02
1.750000e+02
1.812500e+02
1.875000e+02
1.937500e+02
2.000000e+02
0.000000e+00
6.250000e+00
1.250000e+01
1.875000e+01
2.500000e+01
3.125000e+01
3.750000e+01
4.375000e+01
5.000000e+01
5.625000e+01
6.250000e+01
6.875000e+01
7.500000e+01
8.125000e+01
8.750000e+01
9.375000e+01
1.000000e+02
1.062500e+02
1.125000e+02
1.187500e+02
1.250000e+02
1.312500e+02
1.375000e+02
1.437500e+02
1.500000e+02
1.562500e+02
1.625000e+02
1.687500e+02
1.750000e+02
1.812500e+02
1.875000e+02
1.937500e+02
2.000000e+02
0.000000e+00
6.250000e+00
1.250000e+01
1.875000e+01
2.500000e+01
3.125000e+01
3.750000e+01
4.375000e+01
5.000000e+01
5.625000e+01
6.250000e+01
6.875000e+01
7.500000e+01
8.125000e+01
8.750000e+01
9.375000e+01
1.000000e+02
1.062500e+02
1.125000e+02
1.187500e+02
1.250000e+02
1.312500e+02
1.375000e+02
1.437500e+02
1.500000e+02
1.562500e+02
1.625000e+02
1.687500e+02
1.750000e+02
1.812500e+02
1.875000e+02
1.937500e+02
2.000000e+02
0.000000e+00
6.250000e+00
1.250000e+01
1.875000e+01
2.500000e+01
3.125000e+01
3.750000e+01
4.375000e+01
5.000000e+01
5.625000e+01
6.250000e+01
6.875000e+01
7.500000e+01
8.125000e+01
8.750000e+01
9.375000e+01
1.000000e+02
1.062500e+02
1.125000e+02
1.187500e+02
1.250000e+02
1.312500e+02
1.375000e+02
1.437500e+02
1.500000e+02
1.562500e+02
1.625000e+02
1.687500e+02
1.750000e+02
1.812500e+02
1.875000e+02
1.937500e+02
2.000000e+02
0.000000e+00
6.250000e+00
1.250000e+01
1.875000e+01
2.500000e+01
3.125000e+01
3.750000e+01
4.375000e+01
5.000000e+01
5.625000e+01
6.250000e+01
6.875000e+01
7.500000e+01
8.125000e+01
8.750000e+01
9.375000e+01
1.000000e+02
1.062500e+02
1.125000e+02
1.187500e+02
1.250000e+02
1.312500e+02
1.375000e+02
1.437500e+02
1.500000e+02
1.562500e+02
1.625000e+02
1.687500e+02
1.750000e+02
1.812500e+02
1.875000e+02
1.937500e+02
2.000000e+02
0.000000e+00
6.250000e+00
1.250000e+01
1.875000e+01
2.500000e+01
3.125000e+01
3.750000e+01
4.375000e+01
5.000000e+01
5.625000e+01
6.250000e+01
6.875000e+01
7.500000e+01
8.125000e+01
8.750000e+01
9.375000e+01
1.000000e+02
1.062500e+02
1.125000e+02
1.187500e+02
1.250000e+02
1.312500e+02
1.375000e+02
1.437500e+02
1.500000e+02
1.562500e+02
1.625000e+02
1.687500e+02
1.750000e+02
1.812500e+02
1.875000e+02
1.937500e+02
2.000000e+02
0.000000e+00
6.250000e+00
1.250000e+01
1.875000e+01
2.500000e+01
3.125000e+01
3.750000e+01
4.375000e+01
5.000000e+01
5.625000e+01
6.250000e+01
6.875000e+01
7.500000e+01
8.125000e+01
8.750000e+01
9.375000e+01
1.000000e+02
1.062500e+02
1.125000e+02
1.187500e+02
1.250000e+02
1.312500e+02
1.375000e+02
1.437500e+02
1.500000e+02
1.562500e+02
1.625000e+02
1.687500e+02
1.750000e+02
1.812500e+02
1.875000e+02
1.937500e+02
2.000000e+02
0.000000e+00
6.250000e+00
1.250000e+01
1.875000e+01
2.500000e+01
3.125000e+01
3.750000e+01
4.375000e+01
5.000000e+01
5.625000e+01
6.250000e+01
6.875000e+01
7.500000e+01
8.125000e+01
8.750000e+01
9.375000e+01
1.000000e+02
1.062500e+02
1.125000e+02
1.187500e+02
1.250000e+02
1.312500e+02
1.375000e+02
1.437500e+02
1.500000e+02
1.562500e+02
1.625000e+02
1.687500e+02
1.750000e+02
1.812500e+02
1.875000e+02
1.937500e+02
2.000000e+02
0.000000e+00
6.250000e+00
1.250000e+01
1.875000e+01
2.500000e+01
3.125000e+01
3.750000e+01
4.375000e+01
5.000000e+01
5.625000e+01
6.250000e+01
6.875000e+01
7.500000e+01
8.125000e+01
8.750000e+01
9.375000e+01
1.000000e+02
1.062500e+02
1.125000e+02
1.187500e+02
1.250000e+02
1.312500e+02
1.375000e+02
1.437500e+02
1.500000e+02
1.562500e+02
1.625000e+02
1.687500e+02
1.750000e+02
1.812500e+02
1.875000e+02
1.937500e+02
2.000000e+02
0.000000e+00
6.250000e+00
1.250000e+01
1.875000e+01
2.500000e+01
3.125000e+01
3.750000e+01
4.375000e+01
5.000000e+01
5.625000e+01
6.250000e+01
6.875000e+01
7.500000e+01
8.125000e+01
8.750000e+01
9.375000e+01
1.000000e+02
1.062500e+02
1.125000e+02
1.187500e+02
1.250000e+02
1.312500e+02
1.375000e+02
1.437500e+02
1.500000e+02
1.562500e+02
1.625000e+02
1.687500e+02
1.750000e+02
1.812500e+02
1.875000e+02
1.937500e+02
2.000000e+02
0.000000e+00
6.250000e+00
1.250000e+01
1.875000e+01
2.500000e+01
3.125000e+01
3.750000e+01
4.375000e+01
5.000000e+01
5.625000e+01
6.250000e+01
6.875000e+01
7.500000e+01
8.125000e+01
8.750000e+01
9.375000e+01
1.000000e+02
1.062500e+02
1.125000e+02
1.187500e+02
1.250000e+02
1.312500e+02
1.375000e+02
1.437500e+02
1.500000e+02
1.562500e+02
1.625000e+02
1.687500e+02
1.750000e+02
1.812500e+02
1.875000e+02
1.937500e+02
2.000000e+02
0.000000e+00
6.250000e+00
1.250000e+01
1.875000e+01
2.500000e+01
3.125000e+01
3.750000e+01
4.375000e+01
5.000000e+01
5.625000e+01
6.250000e+01
6.875000e+01
7.500000e+01
8.125000e+01
8.750000e+01
9.375000e+01
1.000000e+02
1.062500e+02
1.125000e+02
1.187500e+02
1.250000e+02
1.312500e+02
1.375000e+02
1.437500e+02
1.500000e+02
1.562500e+02
1.625000e+02
1.687500e+02
1.750000e+02
1.812500e+02
1.875000e+02
1.937500e+02
2.000000e+02
0.000000e+00
6.250000e+00
1.250000e+01
1.875000e+01
2.500000e+01
3.125000e+01
3.750000e+01
4.375000e+01
5.000000e+01
5.625000e+01
6.250000e+01
6.875000e+01
7.500000e+01
8.125000e+01
8.750000e+01
9.375000e+01
1.000000e+02
1.062500e+02
1.125000e+02
1.187500e+02
1.250000e+02
1.312500e+02
1.375000e+02
1.437500e+02
1.500000e+02
1.562500e+02
1.625000e+02
1.687500e+02
1.750000e+02
1.812500e+02
1.875000e+02
1.937500e+02
2.000000e+02
0.000000e+00
6.250000e+00
1.250000e+01
1.875000e+01
2.500000e+01
3.125000e+01
3.750000e+01
4.375000e+01
5.000000e+01
5.625000e+01
6.250000e+01
6.875000e+01
7.500000e+01
8.125000e+01
8.750000e+01
9.375000e+01
1.000000e+02
1.062500e+02
1.125000e+02
1.187500e+02
1.250000e+02
1.312500e+02
1.375000e+02
1.437500e+02
1.500000e+02
1.562500e+02
1.625000e+02
1.687500e+02
1.750000e+02
1.812500e+02
1.875000e+02
1.937500e+02
2.000000e+02
0.000000e+00
6.250000e+00
1.250000e+01
1.875000e+01
2.500000e+01
3.125000e+01
3.750000e+01
4.375000e+01
5.000000e+01
5.625000e+01
6.250000e+01
6.875000e+01
7.500000e+01
8.125000e+01
8.750000e+01
9.375000e+01
1.000000e+02
1.062500e+02
1.125000e+02
1.187500e+02
1.250000e+02
1.312500e+02
1.375000e+02
1.437500e+02
1.500000e+02
1.562500e+02
1.625000e+02
1.687500e+02
1.750000e+02
1.812500e+02
1.875000e+02
1.937500e+02
2.000000e+02
0.000000e+00
0.000000e+00
0.000000e+00
0.000000e+00
0.000000e+00
0.000000e+00
0.000000e+00
0.000000e+00
0.000000e+00
0.000000e+00
0.000000e+00
0.000000e+00
0.000000e+00
0.000000e+00
0.000000e+00
0.000000e+00
0.000000e+00
0.000000e+00
0.000000e+00
0.000000e+00
0.000000e+00
0.000000e+00
0.000000e+00
0.000000e+00
0.000000e+00
0.000000e+00
0.000000e+00
0.000000e+00
0.000000e+00
0.000000e+00
0.000000e+00
0.000000e+00
0.000000e+00
6.250000e+00
6.250000e+00
6.250000e+00
6.250000e+00
6.250000e+00
6.250000e+00
6.250000e+00
6.250000e+00
6.250000e+00
6.250000e+00
6.250000e+00
6.250000e+00
6.250000e+00
6.250000e+00
6.250000e+00
6.250000e+00
6.250000e+00
6.250000e+00
6.250000e+00
6.250000e+00
6.250000e+00
6.250000e+00
6.250000e+00
6.250000e+00
6.250000e+00
6.250000e+00
6.250000e+00
6.250000e+00
6.250000e+00
6.250000e+00
6.250000e+00
6.250000e+00
6.250000e+00
1.250000e+01
1.250000e+01
1.250000e+01
1.250000e+01
1.250000e+01
1.250000e+01
1.250000e+01
1.250000e+01
1.250000e+01
1.250000e+01
1.250000e+01
1.250000e+01
1.250000e+01
1.250000e+01
1.250000e+01
1.250000e+01
1.250000e+01
1.250000e+01
1.250000e+01
1.250000e+01
1.250000e+01
1.250000e+01
1.250000e+01
1.250000e+01
1.250000e+01
1.250000e+01
1.250000e+01
1.250000e+01
1.250000e+01
1.250000e+01
1.250000e+01
1.250000e+01
1.250000e+01
1.875000e+01
1.875000e+01
1.875000e+01
1.875000e+01
1.875000e+01
1.875000e+01
1.875000e+01
1.875000e+01
1.875000e+01
1.875000e+01
1.875000e+01
1.875000e+01
1.875000e+01
1.875000e+01
1.875000e+01
1.875000e+01
1.875000e+01
1.875000e+01
1.875000e+01
1.875000e+01
1.875000e+01
1.875000e+01
1.875000e+01
1.875000e+01
1.875000e+01
1.875000e+01
1.875000e+01
1.875000e+01
1.875000e+01
1.875000e+01
1.875000e+01
1.875000e+01
1.875000e+01
2.500000e+01
2.500000e+01
2.500000e+01
2.500000e+01
2.500000e+01
2.500000e+01
2.500000e+01
2.500000e+01
2.500000e+01
2.500000e+01
2.500000e+01
2.500000e+01
2.500000e+01
2.500000e+01
2.500000e+01
2.500000e+01
2.500000e+01
2.500000e+01
2.500000e+01
2.500000e+01
2.500000e+01
2.500000e+01
2.500000e+01
2.500000e+01
2.500000e+01
2.500000e+01
2.500000e+01
2.500000e+01
2.500000e+01
2.500000e+01
2.500000e+01
2.500000e+01
2.500000e+01
3.125000e+01
3.125000e+01
3.125000e+01
3.125000e+01
3.125000e+01
3.125000e+01
3.125000e+01
3.125000e+01
3.125000e+01
3.125000e+01
3.125000e+01
3.125000e+01
3.125000e+01
3.125000e+01
3.125000e+01
3.125000e+01
3.125000e+01
3.125000e+01
3.125000e+01
3.125000e+01
3.125000e+01
3.125000e+01
3.125000e+01
3.125000e+01
3.125000e+01
3.125000e+01
3.125000e+01
3.125000e+01
3.125000e+01
3.125000e+01
3.125000e+01
3.125000e+01
3.125000e+01
3.750000e+01
3.750000e+01
3.750000e+01
3.750000e+01
3.750000e+01
3.750000e+01
3.750000e+01
3.750000e+01
3.750000e+01
3.750000e+01
3.750000e+01
3.750000e+01
3.750000e+01
3.750000e+01
3.750000e+01
3.750000e+01
3.750000e+01
3.750000e+01
3.750000e+01
3.750000e+01
3.750000e+01
3.750000e+01
3.750000e+01
3.750000e+01
3.750000e+01
3.750000e+01
3.750000e+01
3.750000e+01
3.750000e+01
3.750000e+01
3.750000e+01
3.750000e+01
3.750000e+01
4.375000e+01
4.375000e+01
4.375000e+01
4.375000e+01
4.375000e+01
4.375000e+01
4.375000e+01
4.375000e+01
4.375000e+01
4.375000e+01
4.375000e+01
4.375000e+01
4.375000e+01
4.375000e+01
4.375000e+01
4.375000e+01
4.375000e+01
4.375000e+01
4.375000e+01
4.375000e+01
4.375000e+01
4.375000e+01
4.375000e+01
4.375000e+01
4.375000e+01
4.375000e+01
4.375000e+01
4.375000e+01
4.375000e+01
4.375000e+01
4.375000e+01
4.375000e+01
4.375000e+01
5.000000e+01
5.000000e+01
5.000000e+01
5.000000e+01
5.000000e+01
5.000000e+01
5.000000e+01
5.000000e+01
5.000000e+01
5.000000e+01
5.000000e+01
5.000000e+01
5.000000e+01
5.000000e+01
5.000000e+01
5.000000e+01
5.000000e+01
5.000000e+01
5.000000e+01
5.000000e+01
5.000000e+01
5.000000e+01
5.000000e+01
5.000000e+01
5.000000e+01
5.000000e+01
5.000000e+01
5.000000e+01
5.000000e+01
5.000000e+01
5.000000e+01
5.000000e+01
5.000000e+01
5.625000e+01
5.625000e+01
5.625000e+01
5.625000e+01
5.625000e+01
5.625000e+01
5.625000e+01
5.625000e+01
5.625000e+01
5.625000e+01
5.625000e+01
5.625000e+01
5.625000e+01
5.625000e+01
5.625000e+01
5.625000e+01
5.625000e+01
5.625000e+01
5.625000e+01
5.625000e+01
5.625000e+01
5.625000e+01
5.625000e+01
5.625000e+01
5.625000e+01
5.625000e+01
5.625000e+01
5.625000e+01
5.625000e+01
5.625000e+01
5.625000e+01
5.625000e+01
5.625000e+01
6.250000e+01
6.250000e+01
6.250000e+01
6.250000e+01
6.250000e+01
6.250000e+01
6.250000e+01
6.250000e+01
6.250000e+01
6.250000e+01
6.250000e+01
6.250000e+01
6.250000e+01
6.250000e+01
6.250000e+01
6.250000e+01
6.250000e+01
6.250000e+01
6.250000e+01
6.250000e+01
6.250000e+01
6.250000e+01
6.250000e+01
6.250000e+01
6.250000e+01
6.250000e+01
6.250000e+01
6.250000e+01
6.250000e+01
6.250000e+01
6.250000e+01
6.250000e+01
6.250000e+01
6.875000e+01
6.875000e+01
6.875000e+01
6.875000e+01
6.875000e+01
6.875000e+01
6.875000e+01
6.875000e+01
6.875000e+01
6.875000e+01
6.875000e+01
6.875000e+01
6.875000e+01
6.875000e+01
6.875000e+01
6.875000e+01
6.875000e+01
6.875000e+01
6.875000e+01
6.875000e+01
6.875000e+01
6.875000e+01
6.875000e+01
6.875000e+01
6.875000e+01
6.875000e+01
6.875000e+01
6.875000e+01
6.875000e+01
6.875000e+01
6.875000e+01
6.875000e+01
6.875000e+01
7.500000e+01
7.500000e+01
7.500000e+01
7.500000e+01
7.500000e+01
7.500000e+01
7.500000e+01
7.500000e+01
7.500000e+01
7.500000e+01
7.500000e+01
7.500000e+01
7.500000e+01
7.500000e+01
7.500000e+01
7.500000e+01
7.500000e+01
7.500000e+01
7.500000e+01
7.500000e+01
7.500000e+01
7.500000e+01
7.500000e+01
7.500000e+01
7.500000e+01
7.500000e+01
7.500000e+01
7.500000e+01
7.500000e+01
7.500000e+01
7.500000e+01
7.500000e+01
7.500000e+01
8.125000e+01
8.125000e+01
8.125000e+01
8.125000e+01
8.125000e+01
8.125000e+01
8.125000e+01
8.125000e+01
8.125000e+01
8.125000e+01
8.125000e+01
8.125000e+01
8.125000e+01
8.125000e+01
8.125000e+01
8.125000e+01
8.125000e+01
8.125000e+01
8.125000e+01
8.125000e+01
8.125000e+01
8.125000e+01
8.125000e+01
8.125000e+01
8.125000e+01
8.125000e+01
8.125000e+01
8.125000e+01
8.125000e+01
8.125000e+01
8.125000e+01
8.125000e+01
8.125000e+01
8.750000e+01
8.750000e+01
8.750000e+01
8.750000e+01
8.750000e+01
8.750000e+01
8.750000e+01
8.750000e+01
8.750000e+01
8.750000e+01
8.750000e+01
8.750000e+01
8.750000e+01
8.750000e+01
8.750000e+01
8.750000e+01
8.750000e+01
8.750000e+01
8.750000e+01
8.750000e+01
8.750000e+01
8.750000e+01
8.750000e+01
8.750000e+01
8.750000e+01
8.750000e+01
8.750000e+01
8.750000e+01
8.750000e+01
8.750000e+01
8.750000e+01
8.750000e+01
8.750000e+01
9.375000e+01
9.375000e+01
9.375000e+01
9.375000e+01
9.375000e+01
9.375000e+01
9.375000e+01
9.375000e+01
9.375000e+01
9.375000e+01
9.375000e+01
9.375000e+01
9.375000e+01
9.375000e+01
9.375000e+01
9.375000e+01
9.375000e+01
9.375000e+01
9.375000e+01
9.375000e+01
9.375000e+01
9.375000e+01
9.375000e+01
9.375000e+01
9.375000e+01
9.375000e+01
9.375000e+01
9.375000e+01
9.375000e+01
9.375000e+01
9.375000e+01
9.375000e+01
9.375000e+01
1.000000e+02
1.000000e+02
1.000000e+02
1.000000e+02
1.000000e+02
1.000000e+02
1.000000e+02
1.000000e+02
1.000000e+02
1.000000e+02
1.000000e+02
1.000000e+02
1.000000e+02
1.000000e+02
1.000000e+02
1.000000e+02
1.000000e+02
1.000000e+02
1.000000e+02
1.000000e+02
1.000000e+02
1.000000e+02
1.000000e+02
1.000000e+02
1.000000e+02
1.000000e+02
1.000000e+02
1.000000e+02
1.000000e+02
1.000000e+02
1.000000e+02
1.000000e+02
1.000000e+02
0.000000e+00
-4.383884e-01
-7.472675e-01
-1.073761e+00
-1.381752e+00
-1.680037e+00
-1.989017e+00
-2.286828e+00
-2.586632e+00
-2.888088e+00
-3.186376e+00
-3.486654e+00
-3.786281e+00
-4.085027e+00
-4.384738e+00
-4.683633e+00
-4.982484e+00
-5.281652e+00
-5.580323e+00
-5.879300e+00
-6.178505e+00
-6.477478e+00
-6.777371e+00
-7.078632e+00
-7.380766e+00
-7.688347e+00
-8.004001e+00
-8.323473e+00
-8.659064e+00
-9.041141e+00
-9.492939e+00
-9.903743e+00
-1.011137e+01
0.000000e+00
-2.346922e-01
-4.801062e-01
-7.438194e-01
-1.010987e+00
-1.264990e+00
-1.532972e+00
-1.793686e+00
-2.054815e+00
-2.319116e+00
-2.579568e+00
-2.842262e+00
-3.104249e+00
-3.365357e+00
-3.627432e+00
-3.888599e+00
-4.149726e+00
-4.410994e+00
-4.671634e+00
-4.932322e+00
-5.192965e+00
-5.453015e+00
-5.713381e+00
-5.973925e+00
-6.233304e+00
-6.493846e+00
-6.755330e+00
-7.011905e+00
-7.268707e+00
-7.532796e+00
-7.760082e+00
-7.852006e+00
-7.956882e+00
0.000000e+00
-1.309094e-01
-2.889125e-01
-4.880743e-01
-7.001796e-01
-9.060129e-01
-1.129542e+00
-1.349918e+00
-1.571822e+00
-1.797200e+00
-2.019884e+00
-2.244891e+00
-2.469676e+00
-2.694064e+00
-2.919458e+00
-3.144346e+00
-3.369360e+00
-3.594562e+00
-3.819250e+00
-4.043810e+00
-4.268016e+00
-4.491200e+00
-4.713454e+00
-4.933866e+00
-5.150242e+00
-5.361469e+00
-5.564596e+00
-5.753644e+00
-5.924436e+00
-6.065093e+00
-6.132464e+00
-6.133975e+00
-6.226175e+00
0.000000e+00
-1.022626e-01
-2.011005e-01
-3.444281e-01
-4.814135e-01
-6.406921e-01
-8.149347e-01
-9.902665e-01
-1.172137e+00
-1.356345e+00
-1.541317e+00
-1.728742e+00
-1.916900e+00
-2.105584e+00
-2.295458e+00
-2.485457e+00
-2.675793e+00
-2.866337e+00
-3.056381e+00
-3.245800e+00
-3.433964e+00
-3.619787e+00
-3.802151e+00
-3.979267e+00
-4.148172e+00
-4.305746e+00
-4.447951e+00
-4.568708e+00
-4.660083e+00
-4.710356e+00
-4.714092e+00
-4.724219e+00
-4.805502e+00
0.000000e+00
-8.978163e-02
-1.785180e-01
-2.744487e-01
-3.836950e-01
-5.038780e-01
-6.347937e-01
-7.705701e-01
-9.128598e-01
-1.057525e+00
-1.204156e+00
-1.353030e+00
-1.502181e+00
-1.652396e+00
-1.802957e+00
-1.953449e+00
-2.103914e+00
-2.253703e+00
-2.402426e+00
-2.549416e+00
-2.693734e+00
-2.834094e+00
-2.968835e+00
-3.095829e+00
-3.212352e+00
-3.315164e+00
-3.400327e+00
-3.462975e+00
-3.498259e+00
-3.505265e+00
-3.495695e+00
-3.523301e+00
-3.600433e+00
0.000000e+00
-7.148740e-02
-1.414781e-01
-2.150794e-01
-2.959866e-01
-3.839395e-01
-4.784041e-01
-5.787971e-01
-6.826848e-01
-7.896937e-01
-8.984741e-01
-1.008268e+00
-1.118912e+00
-1.229710e+00
-1.340507e+00
-1.450982e+00
-1.560705e+00
-1.669316e+00
-1.776198e+00
-1.880554e+00
-1.981324e+00
-2.077092e+00
-2.166074e+00
-2.246194e+00
-2.315099e+00
-2.370231e+00
-2.408913e+00
-2.428651e+00
-2.429132e+00
-2.414259e+00
-2.407732e+00
-2.439305e+00
-2.511346e+00
0.000000e+00
-4.919019e-02
-9.800301e-02
-1.483679e-01
-2.022115e-01
-2.602186e-01
-3.223366e-01
-3.879403e-01
-4.562989e-01
-5.265005e-01
-5.979055e-01
-6.699382e-01
-7.421584e-01
-8.142510e-01
-8.858763e-01
-9.567347e-01
-1.026469e+00
-1.094632e+00
-1.160654e+00
-1.223746e+00
-1.282864e+00
-1.336651e+00
-1.383455e+00
-1.421417e+00
-1.448616e+00
-1.463296e+00
-1.464086e+00
-1.450371e+00
-1.424315e+00
-1.395501e+00
-1.387148e+00
-1.419656e+00
-1.490834e+00
0.000000e+00
-2.553400e-02
-5.096832e-02
-7.700561e-02
-1.044161e-01
-1.336274e-01
-1.646505e-01
-1.972435e-01
-2.309853e-01
-2.654489e-01
-3.002104e-01
-3.349195e-01
-3.692773e-01
-4.030108e-01
-4.358632e-01
-4.675557e-01
-4.977742e-01
-5.261403e-01
-5.521694e-01
-5.752172e-01
-5.944146e-01
-6.086296e-01
-6.164853e-01
-6.164512e-01
-6.069955e-01
-5.868026e-01
-5.551116e-01
-5.131501e-01
-4.674769e-01
-4.298236e-01
-4.214539e-01
-4.553359e-01
-5.266554e-01
0.000000e+00
-1.231744e-03
-2.442509e-03
-3.585219e-03
-4.605850e-03
-5.438681e-03
-6.006002e-03
-6.217672e-03
-5.973803e-03
-5.166251e-03
-3.679062e-03
-1.387469e-03
1.846031e-03
6.177151e-03
1.178670e-02
1.888599e-02
2.772008e-02
3.857253e-02
5.178306e-02
6.778974e-02
8.718633e-02
1.107658e-01
1.395191e-01
1.745694e-01
2.170722e-01
2.679658e-01
3.268685e-01
3.895384e-01
4.463280e-01
4.841242e-01
4.889482e-01
4.534373e-01
3.847840e-01
0.000000e+00
2.311457e-02
4.616924e-02
6.995855e-02
9.536386e-02
1.229413e-01
1.528612e-01
1.850612e-01
2.193185e-01
2.554186e-01
2.931615e-01
3.324346e-01
3.731957e-01
4.154597e-01
4.593049e-01
5.048509e-01
5.522612e-01
6.017274e-01
6.534645e-01
7.077334e-01
7.648666e-01
8.252774e-01
8.894623e-01
9.579972e-01
1.031297e+00
1.108766e+00
1.187637e+00
1.261718e+00
1.320929e+00
1.354356e+00
1.354136e+00
1.319837e+00
1.261912e+00
0.000000e+00
4.689904e-02
9.344365e-02
1.416708e-01
1.936021e-01
2.500652e-01
3.111645e-01
3.764671e-01
4.454409e-01
5.173793e-01
5.918613e-01
6.685207e-01
7.471318e-01
8.275982e-01
9.098206e-01
9.937917e-01
1.079536e+00
1.167122e+00
1.256692e+00
1.348448e+00
1.442591e+00
1.539167e+00
1.637979e+00
1.738507e+00
1.839547e+00
1.938585e+00
2.031050e+00
2.110084e+00
2.167975e+00
2.198119e+00
2.197759e+00
2.170600e+00
2.127841e+00
0.000000e+00
6.938595e-02
1.372823e-01
2.088670e-01
2.880147e-01
3.744911e-01
4.680348e-01
5.682360e-01
6.728462e-01
7.817661e-01
8.938401e-01
1.008548e+00
1.125920e+00
1.245410e+00
1.366982e+00
1.490389e+00
1.615320e+00
1.741637e+00
1.869202e+00
1.998099e+00
2.128368e+00
2.259509e+00
2.390410e+00
2.519405e+00
2.644029e+00
2.760507e+00
2.863595e+00
2.947487e+00
3.007127e+00
3.039600e+00
3.045022e+00
3.028229e+00
3.000462e+00
0.000000e+00
8.794835e-02
1.746897e-01
2.688779e-01
3.762518e-01
4.950659e-01
6.250308e-01
7.604635e-01
9.034189e-01
1.049839e+00
1.199720e+00
1.353566e+00
1.509694e+00
1.669102e+00
1.831093e+00
1.995177e+00
2.161121e+00
2.327934e+00
2.495097e+00
2.662177e+00
2.828316e+00
2.992222e+00
3.152445e+00
3.307155e+00
3.453397e+00
3.586716e+00
3.701947e+00
3.794497e+00
3.861266e+00
3.900973e+00
3.914953e+00
3.908735e+00
3.893898e+00
0.000000e+00
1.007111e-01
1.983555e-01
3.397295e-01
4.751890e-01
6.328140e-01
8.057942e-01
9.803328e-01
1.161949e+00
1.346896e+00
1.533733e+00
1.724591e+00
1.918091e+00
2.114397e+00
2.314337e+00
2.516741e+00
2.721442e+00
2.927457e+00
3.133476e+00
3.338691e+00
3.541199e+00
3.739102e+00
3.931188e+00
4.115153e+00
4.286593e+00
4.439999e+00
4.570330e+00
4.674146e+00
4.749883e+00
4.797781e+00
4.820275e+00
4.823231e+00
4.818223e+00
0.000000e+00
1.307067e-01
2.883857e-01
4.867443e-01
6.974364e-01
9.020524e-01
1.124330e+00
1.343569e+00
1.564613e+00
1.789438e+00
2.012051e+00
2.237685e+00
2.464011e+00
2.691152e+00
2.920698e+00
3.151183e+00
3.383100e+00
3.615871e+00
3.848414e+00
4.080378e+00
4.309842e+00
4.535679e+00
4.757947e+00
4.972968e+00
5.172184e+00
5.346914e+00
5.491824e+00
5.605026e+00
5.687035e+00
5.740099e+00
5.768129e+00
5.777324e+00
5.778340e+00
0.000000e+00
2.346915e-01
4.801788e-01
7.438377e-01
1.010823e+00
1.264694e+00
1.532439e+00
1.792842e+00
2.053684e+00
2.317541e+00
2.577447e+00
2.839503e+00
3.100626e+00
3.360688e+00
3.621443e+00
3.880914e+00
4.139966e+00
4.398458e+00
4.655620e+00
4.911917e+00
5.166260e+00
5.418703e+00
5.670280e+00
5.915094e+00
6.139549e+00
6.331805e+00
6.486427e+00
6.602865e+00
6.683647e+00
6.733585e+00
6.759319e+00
6.768726e+00
6.771011e+00
0.000000e+00
4.383307e-01
7.477508e-01
1.074780e+00
1.383883e+00
1.683328e+00
1.993351e+00
2.292201e+00
2.592870e+00
2.894901e+00
3.193328e+00
3.493214e+00
3.791478e+00
4.087718e+00
4.383420e+00
4.676530e+00
4.967907e+00
5.257811e+00
5.545826e+00
5.833009e+00
6.119193e+00
6.405116e+00
6.690533e+00
6.965564e+00
7.212129e+00
7.416788e+00
7.574137e+00
7.684152e+00
7.750666e+00
7.781216e+00
7.787178e+00
7.782873e+00
7.780356e+00
0.000000e+00
-2.630219e-01
-5.362776e-01
-8.800075e-01
-1.260614e+00
-1.682182e+00
-2.146537e+00
-2.645599e+00
-3.183798e+00
-3.759011e+00
-4.371096e+00
-5.021667e+00
-5.709364e+00
-6.435041e+00
-7.198734e+00
-8.000096e+00
-8.839677e+00
-9.717350e+00
-1.063324e+01
-1.158779e+01
-1.258103e+01
-1.361335e+01
-1.468542e+01
-1.579755e+01
-1.695115e+01
-1.814939e+01
-1.939554e+01
-2.069609e+01
-2.206413e+01
-2.351446e+01
-2.506802e+01
-2.688839e+01
-2.944611e+01
0.000000e+00
-1.665757e-01
-4.561253e-01
-7.930013e-01
-1.177810e+00
-1.597855e+00
-2.061921e+00
-2.562250e+00
-3.099497e+00
-3.675055e+00
-4.287230e+00
-4.937560e+00
-5.625541e+00
-6.351144e+00
-7.114846e+00
-7.916351e+00
-8.755885e+00
-9.633635e+00
-1.054958e+01
-1.150409e+01
-1.249742e+01
-1.352972e+01
-1.460160e+01
-1.571379e+01
-1.686706e+01
-1.806420e+01
-1.931008e+01
-2.061006e+01
-2.197427e+01
-2.342148e+01
-2.499554e+01
-2.679736e+01
-2.907294e+01
0.000000e+00
-1.381495e-01
-3.979969e-01
-7.325058e-01
-1.111487e+00
-1.529481e+00
-1.992055e+00
-2.491549e+00
-3.028184e+00
-3.603519e+00
-4.215493e+00
-4.865645e+00
-5.553687e+00
-6.279162e+00
-7.042921e+00
-7.844478e+00
-8.684031e+00
-9.561935e+00
-1.047801e+01
-1.143267e+01
-1.242630e+01
-1.345892e+01
-1.453126e+01
-1.564437e+01
-1.679885e+01
-1.799767e+01
-1.924622e+01
-2.054956e+01
-2.191950e+01
-2.338794e+01
-2.499428e+01
-2.669113e+01
-2.846180e+01
0.000000e+00
-1.585895e-01
-3.863505e-01
-7.099860e-01
-1.071418e+00
-1.483060e+00
-1.941585e+00
-2.436758e+00
-2.972237e+00
-3.546172e+00
-4.157170e+00
-4.807035e+00
-5.494593e+00
-6.219910e+00
-6.983637e+00
-7.785171e+00
-8.624896e+00
-9.503067e+00
-1.041957e+01
-1.137485e+01
-1.236935e+01
-1.340321e+01
-1.447727e+01
-1.559273e+01
-1.675055e+01
-1.795375e+01
-1.920731e+01
-2.051706e+01
-2.189715e+01
-2.338009e+01
-2.497714e+01
-2.653742e+01
-2.795829e+01
0.000000e+00
-1.777985e-01
-4.079072e-01
-7.097379e-01
-1.061872e+00
-1.461876e+00
-1.912221e+00
-2.401448e+00
-2.933452e+00
-3.504764e+00
-4.114108e+00
-4.763147e+00
-5.449917e+00
-6.175118e+00
-6.938774e+00
-7.740470e+00
-8.580669e+00
-9.459413e+00
-1.037688e+01
-1.133347e+01
-1.232967e+01
-1.336588e+01
-1.444289e+01
-1.556184e+01
-1.672405e+01
-1.793227e+01
-1.919077e+01
-2.050522e+01
-2.188700e+01
-2.335689e+01
-2.489511e+01
-2.633346e+01
-2.759109e+01
0.000000e+00
-1.860723e-01
-4.219877e-01
-7.139381e-01
-1.058277e+00
-1.451891e+00
-1.893338e+00
-2.378690e+00
-2.906367e+00
-3.475130e+00
-4.083429e+00
-4.731211e+00
-5.417855e+00
-6.143081e+00
-6.906966e+00
-7.709334e+00
-8.550342e+00
-9.430208e+00
-1.034919e+01
-1.130775e+01
-1.230641e+01
-1.334576e+01
-1.442647e+01
-1.554939e+01
-1.671573e+01
-1.792763e+01
-1.918840e+01
-2.050133e+01
-2.186994e+01
-2.330309e+01
-2.475292e+01
-2.610579e+01
-2.727638e+01
0.000000e+00
-1.900609e-01
-4.281982e-01
-7.171763e-01
-1.056935e+00
-1.445984e+00
-1.882432e+00
-2.364111e+00
-2.889121e+00
-3.455919e+00
-4.063372e+00
-4.710689e+00
-5.397352e+00
-6.123026e+00
-6.887537e+00
-7.690847e+00
-8.533037e+00
-9.414340e+00
-1.033513e+01
-1.129594e+01
-1.229738e+01
-1.334005e+01
-1.442448e+01
-1.555109e+01
-1.672038e+01
-1.793343e+01
-1.919208e+01
-2.049592e+01
-2.183971e+01
-2.322233e+01
-2.459353e+01
-2.587431e+01
-2.698251e+01
0.000000e+00
-1.917271e-01
-4.308049e-01
-7.189331e-01
-1.056603e+00
-1.443129e+00
-1.877092e+00
-2.356731e+00
-2.880298e+00
-3.446268e+00
-4.053426e+00
-4.700887e+00
-5.388031e+00
-6.114461e+00
-6.879957e+00
-7.684445e+00
-8.528001e+00
-9.410863e+00
-1.033346e+01
-1.129639e+01
-1.230036e+01
-1.334598e+01
-1.443353e+01
-1.556285e+01
-1.673336e+01
-1.794455e+01
-1.919611e+01
-2.048421e+01
-2.179710e+01
-2.312765e+01
-2.443035e+01
-2.564336e+01
-2.669351e+01
0.000000e+00
-1.921709e-01
-4.315719e-01
-7.196087e-01
-1.056843e+00
-1.442819e+00
-1.876302e+00
-2.355667e+00
-2.879229e+00
-3.445474e+00
-4.053171e+00
-4.701393e+00
-5.389488e+00
-6.117030e+00
-6.883771e+00
-7.689611e+00
-8.534594e+00
-9.418933e+00
-1.034306e+01
-1.130763e+01
-1.231345e+01
-1.336111e+01
-1.445062e+01
-1.558107e+01
-1.675056e+01
-1.795670e+01
-1.919684e+01
-2.046465e+01
-2.174592e+01
-2.302548e+01
-2.426729e+01
-2.541542e+01
-2.640991e+01
0.000000e+00
-1.917135e-01
-4.309430e-01
-7.193973e-01
-1.057583e+00
-1.444835e+00
-1.879755e+00
-2.360594e+00
-2.885609e+00
-3.453272e+00
-4.062357e+00
-4.711964e+00
-5.401455e+00
-6.130414e+00
-6.898591e+00
-7.705861e+00
-8.552219e+00
-9.437806e+00
-1.036300e+01
-1.132849e+01
-1.233513e+01
-1.338350e+01
-1.447326e+01
-1.560260e+01
-1.676842e+01
-1.796689e+01
-1.919327e+01
-2.043915e+01
-2.168920e+01
-2.292342e+01
-2.411116e+01
-2.520638e+01
-2.616249e+01
0.000000e+00
-1.900250e-01
-4.284544e-01
-7.180700e-01
-1.058837e+00
-1.449315e+00
-1.887656e+00
-2.371714e+00
-2.899596e+00
-3.469749e+00
-4.081012e+00
-4.732555e+00
-5.423818e+00
-6.154416e+00
-6.924112e+00
-7.732769e+00
-8.580312e+00
-9.466773e+00
-1.039243e+01
-1.135795e+01
-1.236419e+01
-1.341156e+01
-1.449929e+01
-1.562506e+01
-1.678519e+01
-1.797485e+01
-1.918728e+01
-2.041182e+01
-2.163269e+01
-2.282915e+01
-2.397471e+01
-2.503531e+01
-2.597537e+01
0.000000e+00
-1.859917e-01
-4.223008e-01
-7.151890e-01
-1.060968e+00
-1.456651e+00
-1.900909e+00
-2.389761e+00
-2.921691e+00
-3.495425e+00
-4.109348e+00
-4.763351e+00
-5.456705e+00
-6.189035e+00
-6.960292e+00
-7.770135e+00
-8.618496e+00
-9.505276e+00
-1.043059e+01
-1.139513e+01
-1.239956e+01
-1.344388e+01
-1.452735e+01
-1.564797e+01
-1.680196e+01
-1.798327e+01
-1.918288e+01
-2.038841e+01
-2.158394e+01
-2.275067e+01
-2.386694e+01
-2.490831e+01
-2.584906e+01
0.000000e+00
-1.776129e-01
-4.081415e-01
-7.112457e-01
-1.065043e+00
-1.467726e+00
-1.921741e+00
-2.415456e+00
-2.953051e+00
-3.530854e+00
-4.147550e+00
-4.804717e+00
-5.500175e+00
-6.234460e+00
-7.007337e+00
-7.818100e+00
-8.666899e+00
-9.553310e+00
-1.047736e+01
-1.143982e+01
-1.244088e+01
-1.348031e+01
-1.455824e+01
-1.567370e+01
-1.682255e+01
-1.799687e+01
-1.918544e+01
-2.037463e+01
-2.154926e+01
-2.269316e+01
-2.378970e+01
-2.482248e+01
-2.577558e+01
0.000000e+00
-1.581811e-01
-3.866383e-01
-7.113116e-01
-1.074794e+00
-1.489418e+00
-1.952217e+00
-2.452730e+00
-2.994801e+00
-3.576521e+00
-4.196319e+00
-4.855980e+00
-5.553985e+00
-6.290128e+00
-7.064650e+00
-7.876392e+00
-8.725314e+00
-9.611017e+00
-1.053325e+01
-1.149279e+01
-1.248951e+01
-1.352339e+01
-1.459602e+01
-1.570742e+01
-1.685235e+01
-1.802054e+01
-1.919905e+01
-2.037400e+01
-2.153143e+01
-2.265768e+01
-2.374055e+01
-2.477080e+01
-2.574297e+01
0.000000e+00
-1.381130e-01
-3.984234e-01
-7.338473e-01
-1.114685e+00
-1.535776e+00
-2.002772e+00
-2.507936e+00
-3.051588e+00
-3.635291e+00
-4.256780e+00
-4.917608e+00
-5.617142e+00
-6.354518e+00
-7.130129e+00
-7.942673e+00
-8.791740e+00
-9.676959e+00
-1.059782e+01
-1.155487e+01
-1.254796e+01
-1.357763e+01
-1.464649e+01
-1.575467e+01
-1.689528e+01
-1.805635e+01
-1.922452e+01
-2.038660e+01
-2.152978e+01
-2.264221e+01
-2.371495e+01
-2.474470e+01
-2.573672e+01
0.000000e+00
-1.666469e-01
-4.564838e-01
-7.942170e-01
-1.180800e+00
-1.603980e+00
-2.072479e+00
-2.578563e+00
-3.122963e+00
-3.707021e+00
-4.328942e+00
-4.990211e+00
-5.690010e+00
-6.427880e+00
-7.203757e+00
-8.016475e+00
-8.865509e+00
-9.750312e+00
-1.067040e+01
-1.162599e+01
-1.261713e+01
-1.364502e+01
-1.471200e+01
-1.581673e+01
-1.695092e+01
-1.810256e+01
-1.925938e+01
-2.040928e+01
-2.154033e+01
-2.264184e+01
-2.370667e+01
-2.473523e+01
-2.574106e+01
0.000000e+00
-2.631356e-01
-5.367254e-01
-8.813097e-01
-1.263764e+00
-1.688444e+00
-2.157207e+00
-2.662034e+00
-3.207359e+00
-3.791014e+00
-4.412805e+00
-5.074215e+00
-5.773586e+00
-6.511351e+00
-7.286947e+00
-8.099219e+00
-8.947920e+00
-9.832227e+00
-1.075181e+01
-1.170678e+01
-1.269725e+01
-1.372490e+01
-1.479079e+01