TITLE = "Solution"
VARIABLES = x, y, u, v, psiu, psiv, t, stress
ZONE T="structure" N=561 E=512 F=FEBLOCK ET=QUADRILATERAL VARLOCATION=([7,8]=cellcentered)
0.000000e+00
6.250000e+00
1.250000e+01
1.875000e+01
2.500000e+01
3.125000e+01
3.750000e+01
4.375000e+01
5.000000e+01
5.625000e+01
6.250000e+01
6.875000e+01
7.500000e+01
8.125000e+01
8.750000e+01
9.375000e+01
1.000000e+02
1.062500e+02
1.125000e+02
1.187500e+02
1.250000e+02
1.312500e+02
1.375000e+02
1.437500e+02
1.500000e+02
1.562500e+02
1.625000e+02
1.687500e+02
1.750000e+02
1.812500e+02
1.875000e+02
1.937500e+02
2.000000e+02
0.000000e+00
6.250000e+00
1.250000e+01
1.875000e+01
2.500000e+01
3.125000e+01
3.750000e+01
4.375000e+01
5.000000e+01
5.625000e+01
6.250000e+01
6.875000e+01
7.500000e+01
8.125000e+01
8.750000e+01
9.375000e+01
1.000000e+02
1.062500e+02
1.125000e+02
1.187500e+02
1.250000e+02
1.312500e+02
1.375000e+02
1.437500e+02
1.500000e+02
1.562500e+02
1.625000e+02
1.687500e+02
1.750000e+02
1.812500e+02
1.875000e+02
1.937500e+02
2.000000e+02
0.000000e+00
6.250000e+00
1.250000e+01
1.875000e+01
2.500000e+01
3.125000e+01
3.750000e+01
4.375000e+01
5.000000e+01
5.625000e+01
6.250000e+01
6.875000e+01
7.500000e+01
8.125000e+01
8.750000e+01
9.375000e+01
1.000000e+02
1.062500e+02
1.125000e+02
1.187500e+02
1.250000e+02
1.312500e+02
1.375000e+02
1.437500e+02
1.500000e+02
1.562500e+02
1.625000e+02
1.687500e+02
1.750000e+02
1.812500e+02
1.875000e+02
1.937500e+02
2.000000e+02
0.000000e+00
6.250000e+00
1.250000e+01
1.875000e+01
2.500000e+01
3.125000e+01
3.750000e+01
4.375000e+01
5.000000e+01
5.625000e+01
6.250000e+01
6.875000e+01
7.500000e+01
8.125000e+01
8.750000e+01
9.375000e+01
1.000000e+02
1.062500e+02
1.125000e+02
1.187500e+02
1.250000e+02
1.312500e+02
1.375000e+02
1.437500e+02
1.500000e+02
1.562500e+02
1.625000e+02
1.687500e+02
1.750000e+02
1.812500e+02
1.875000e+02
1.937500e+02
2.000000e+02
0.000000e+00
6.250000e+00
1.250000e+01
1.875000e+01
2.500000e+01
3.125000e+01
3.750000e+01
4.375000e+01
5.000000e+01
5.625000e+01
6.250000e+01
6.875000e+01
7.500000e+01
8.125000e+01
8.750000e+01
9.375000e+01
1.000000e+02
1.062500e+02
1.125000e+02
1.187500e+02
1.250000e+02
1.312500e+02
1.375000e+02
1.437500e+02
1.500000e+02
1.562500e+02
1.625000e+02
1.687500e+02
1.750000e+02
1.812500e+02
1.875000e+02
1.937500e+02
2.000000e+02
0.000000e+00
6.250000e+00
1.250000e+01
1.875000e+01
2.500000e+01
3.125000e+01
3.750000e+01
4.375000e+01
5.000000e+01
5.625000e+01
6.250000e+01
6.875000e+01
7.500000e+01
8.125000e+01
8.750000e+01
9.375000e+01
1.000000e+02
1.062500e+02
1.125000e+02
1.187500e+02
1.250000e+02
1.312500e+02
1.375000e+02
1.437500e+02
1.500000e+02
1.562500e+02
1.625000e+02
1.687500e+02
1.750000e+02
1.812500e+02
1.875000e+02
1.937500e+02
2.000000e+02
0.000000e+00
6.250000e+00
1.250000e+01
1.875000e+01
2.500000e+01
3.125000e+01
3.750000e+01
4.375000e+01
5.000000e+01
5.625000e+01
6.250000e+01
6.875000e+01
7.500000e+01
8.125000e+01
8.750000e+01
9.375000e+01
1.000000e+02
1.062500e+02
1.125000e+02
1.187500e+02
1.250000e+02
1.312500e+02
1.375000e+02
1.437500e+02
1.500000e+02
1.562500e+02
1.625000e+02
1.687500e+02
1.750000e+02
1.812500e+02
1.875000e+02
1.937500e+02
2.000000e+02
0.000000e+00
6.250000e+00
1.250000e+01
1.875000e+01
2.500000e+01
3.125000e+01
3.750000e+01
4.375000e+01
5.000000e+01
5.625000e+01
6.250000e+01
6.875000e+01
7.500000e+01
8.125000e+01
8.750000e+01
9.375000e+01
1.000000e+02
1.062500e+02
1.125000e+02
1.187500e+02
1.250000e+02
1.312500e+02
1.375000e+02
1.437500e+02
1.500000e+02
1.562500e+02
1.625000e+02
1.687500e+02
1.750000e+02
1.812500e+02
1.875000e+02
1.937500e+02
2.000000e+02
0.000000e+00
6.250000e+00
1.250000e+01
1.875000e+01
2.500000e+01
3.125000e+01
3.750000e+01
4.375000e+01
5.000000e+01
5.625000e+01
6.250000e+01
6.875000e+01
7.500000e+01
8.125000e+01
8.750000e+01
9.375000e+01
1.000000e+02
1.062500e+02
1.125000e+02
1.187500e+02
1.250000e+02
1.312500e+02
1.375000e+02
1.437500e+02
1.500000e+02
1.562500e+02
1.625000e+02
1.687500e+02
1.750000e+02
1.812500e+02
1.875000e+02
1.937500e+02
2.000000e+02
0.000000e+00
6.250000e+00
1.250000e+01
1.875000e+01
2.500000e+01
3.125000e+01
3.750000e+01
4.375000e+01
5.000000e+01
5.625000e+01
6.250000e+01
6.875000e+01
7.500000e+01
8.125000e+01
8.750000e+01
9.375000e+01
1.000000e+02
1.062500e+02
1.125000e+02
1.187500e+02
1.250000e+02
1.312500e+02
1.375000e+02
1.437500e+02
1.500000e+02
1.562500e+02
1.625000e+02
1.687500e+02
1.750000e+02
1.812500e+02
1.875000e+02
1.937500e+02
2.000000e+02
0.000000e+00
6.250000e+00
1.250000e+01
1.875000e+01
2.500000e+01
3.125000e+01
3.750000e+01
4.375000e+01
5.000000e+01
5.625000e+01
6.250000e+01
6.875000e+01
7.500000e+01
8.125000e+01
8.750000e+01
9.375000e+01
1.000000e+02
1.062500e+02
1.125000e+02
1.187500e+02
1.250000e+02
1.312500e+02
1.375000e+02
1.437500e+02
1.500000e+02
1.562500e+02
1.625000e+02
1.687500e+02
1.750000e+02
1.812500e+02
1.875000e+02
1.937500e+02
2.000000e+02
0.000000e+00
6.250000e+00
1.250000e+01
1.875000e+01
2.500000e+01
3.125000e+01
3.750000e+01
4.375000e+01
5.000000e+01
5.625000e+01
6.250000e+01
6.875000e+01
7.500000e+01
8.125000e+01
8.750000e+01
9.375000e+01
1.000000e+02
1.062500e+02
1.125000e+02
1.187500e+02
1.250000e+02
1.312500e+02
1.375000e+02
1.437500e+02
1.500000e+02
1.562500e+02
1.625000e+02
1.687500e+02
1.750000e+02
1.812500e+02
1.875000e+02
1.937500e+02
2.000000e+02
0.000000e+00
6.250000e+00
1.250000e+01
1.875000e+01
2.500000e+01
3.125000e+01
3.750000e+01
4.375000e+01
5.000000e+01
5.625000e+01
6.250000e+01
6.875000e+01
7.500000e+01
8.125000e+01
8.750000e+01
9.375000e+01
1.000000e+02
1.062500e+02
1.125000e+02
1.187500e+02
1.250000e+02
1.312500e+02
1.375000e+02
1.437500e+02
1.500000e+02
1.562500e+02
1.625000e+02
1.687500e+02
1.750000e+02
1.812500e+02
1.875000e+02
1.937500e+02
2.000000e+02
0.000000e+00
6.250000e+00
1.250000e+01
1.875000e+01
2.500000e+01
3.125000e+01
3.750000e+01
4.375000e+01
5.000000e+01
5.625000e+01
6.250000e+01
6.875000e+01
7.500000e+01
8.125000e+01
8.750000e+01
9.375000e+01
1.000000e+02
1.062500e+02
1.125000e+02
1.187500e+02
1.250000e+02
1.312500e+02
1.375000e+02
1.437500e+02
1.500000e+02
1.562500e+02
1.625000e+02
1.687500e+02
1.750000e+02
1.812500e+02
1.875000e+02
1.937500e+02
2.000000e+02
0.000000e+00
6.250000e+00
1.250000e+01
1.875000e+01
2.500000e+01
3.125000e+01
3.750000e+01
4.375000e+01
5.000000e+01
5.625000e+01
6.250000e+01
6.875000e+01
7.500000e+01
8.125000e+01
8.750000e+01
9.375000e+01
1.000000e+02
1.062500e+02
1.125000e+02
1.187500e+02
1.250000e+02
1.312500e+02
1.375000e+02
1.437500e+02
1.500000e+02
1.562500e+02
1.625000e+02
1.687500e+02
1.750000e+02
1.812500e+02
1.875000e+02
1.937500e+02
2.000000e+02
0.000000e+00
6.250000e+00
1.250000e+01
1.875000e+01
2.500000e+01
3.125000e+01
3.750000e+01
4.375000e+01
5.000000e+01
5.625000e+01
6.250000e+01
6.875000e+01
7.500000e+01
8.125000e+01
8.750000e+01
9.375000e+01
1.000000e+02
1.062500e+02
1.125000e+02
1.187500e+02
1.250000e+02
1.312500e+02
1.375000e+02
1.437500e+02
1.500000e+02
1.562500e+02
1.625000e+02
1.687500e+02
1.750000e+02
1.812500e+02
1.875000e+02
1.937500e+02
2.000000e+02
0.000000e+00
6.250000e+00
1.250000e+01
1.875000e+01
2.500000e+01
3.125000e+01
3.750000e+01
4.375000e+01
5.000000e+01
5.625000e+01
6.250000e+01
6.875000e+01
7.500000e+01
8.125000e+01
8.750000e+01
9.375000e+01
1.000000e+02
1.062500e+02
1.125000e+02
1.187500e+02
1.250000e+02
1.312500e+02
1.375000e+02
1.437500e+02
1.500000e+02
1.562500e+02
1.625000e+02
1.687500e+02
1.750000e+02
1.812500e+02
1.875000e+02
1.937500e+02
2.000000e+02
0.000000e+00
0.000000e+00
0.000000e+00
0.000000e+00
0.000000e+00
0.000000e+00
0.000000e+00
0.000000e+00
0.000000e+00
0.000000e+00
0.000000e+00
0.000000e+00
0.000000e+00
0.000000e+00
0.000000e+00
0.000000e+00
0.000000e+00
0.000000e+00
0.000000e+00
0.000000e+00
0.000000e+00
0.000000e+00
0.000000e+00
0.000000e+00
0.000000e+00
0.000000e+00
0.000000e+00
0.000000e+00
0.000000e+00
0.000000e+00
0.000000e+00
0.000000e+00
0.000000e+00
6.250000e+00
6.250000e+00
6.250000e+00
6.250000e+00
6.250000e+00
6.250000e+00
6.250000e+00
6.250000e+00
6.250000e+00
6.250000e+00
6.250000e+00
6.250000e+00
6.250000e+00
6.250000e+00
6.250000e+00
6.250000e+00
6.250000e+00
6.250000e+00
6.250000e+00
6.250000e+00
6.250000e+00
6.250000e+00
6.250000e+00
6.250000e+00
6.250000e+00
6.250000e+00
6.250000e+00
6.250000e+00
6.250000e+00
6.250000e+00
6.250000e+00
6.250000e+00
6.250000e+00
1.250000e+01
1.250000e+01
1.250000e+01
1.250000e+01
1.250000e+01
1.250000e+01
1.250000e+01
1.250000e+01
1.250000e+01
1.250000e+01
1.250000e+01
1.250000e+01
1.250000e+01
1.250000e+01
1.250000e+01
1.250000e+01
1.250000e+01
1.250000e+01
1.250000e+01
1.250000e+01
1.250000e+01
1.250000e+01
1.250000e+01
1.250000e+01
1.250000e+01
1.250000e+01
1.250000e+01
1.250000e+01
1.250000e+01
1.250000e+01
1.250000e+01
1.250000e+01
1.250000e+01
1.875000e+01
1.875000e+01
1.875000e+01
1.875000e+01
1.875000e+01
1.875000e+01
1.875000e+01
1.875000e+01
1.875000e+01
1.875000e+01
1.875000e+01
1.875000e+01
1.875000e+01
1.875000e+01
1.875000e+01
1.875000e+01
1.875000e+01
1.875000e+01
1.875000e+01
1.875000e+01
1.875000e+01
1.875000e+01
1.875000e+01
1.875000e+01
1.875000e+01
1.875000e+01
1.875000e+01
1.875000e+01
1.875000e+01
1.875000e+01
1.875000e+01
1.875000e+01
1.875000e+01
2.500000e+01
2.500000e+01
2.500000e+01
2.500000e+01
2.500000e+01
2.500000e+01
2.500000e+01
2.500000e+01
2.500000e+01
2.500000e+01
2.500000e+01
2.500000e+01
2.500000e+01
2.500000e+01
2.500000e+01
2.500000e+01
2.500000e+01
2.500000e+01
2.500000e+01
2.500000e+01
2.500000e+01
2.500000e+01
2.500000e+01
2.500000e+01
2.500000e+01
2.500000e+01
2.500000e+01
2.500000e+01
2.500000e+01
2.500000e+01
2.500000e+01
2.500000e+01
2.500000e+01
3.125000e+01
3.125000e+01
3.125000e+01
3.125000e+01
3.125000e+01
3.125000e+01
3.125000e+01
3.125000e+01
3.125000e+01
3.125000e+01
3.125000e+01
3.125000e+01
3.125000e+01
3.125000e+01
3.125000e+01
3.125000e+01
3.125000e+01
3.125000e+01
3.125000e+01
3.125000e+01
3.125000e+01
3.125000e+01
3.125000e+01
3.125000e+01
3.125000e+01
3.125000e+01
3.125000e+01
3.125000e+01
3.125000e+01
3.125000e+01
3.125000e+01
3.125000e+01
3.125000e+01
3.750000e+01
3.750000e+01
3.750000e+01
3.750000e+01
3.750000e+01
3.750000e+01
3.750000e+01
3.750000e+01
3.750000e+01
3.750000e+01
3.750000e+01
3.750000e+01
3.750000e+01
3.750000e+01
3.750000e+01
3.750000e+01
3.750000e+01
3.750000e+01
3.750000e+01
3.750000e+01
3.750000e+01
3.750000e+01
3.750000e+01
3.750000e+01
3.750000e+01
3.750000e+01
3.750000e+01
3.750000e+01
3.750000e+01
3.750000e+01
3.750000e+01
3.750000e+01
3.750000e+01
4.375000e+01
4.375000e+01
4.375000e+01
4.375000e+01
4.375000e+01
4.375000e+01
4.375000e+01
4.375000e+01
4.375000e+01
4.375000e+01
4.375000e+01
4.375000e+01
4.375000e+01
4.375000e+01
4.375000e+01
4.375000e+01
4.375000e+01
4.375000e+01
4.375000e+01
4.375000e+01
4.375000e+01
4.375000e+01
4.375000e+01
4.375000e+01
4.375000e+01
4.375000e+01
4.375000e+01
4.375000e+01
4.375000e+01
4.375000e+01
4.375000e+01
4.375000e+01
4.375000e+01
5.000000e+01
5.000000e+01
5.000000e+01
5.000000e+01
5.000000e+01
5.000000e+01
5.000000e+01
5.000000e+01
5.000000e+01
5.000000e+01
5.000000e+01
5.000000e+01
5.000000e+01
5.000000e+01
5.000000e+01
5.000000e+01
5.000000e+01
5.000000e+01
5.000000e+01
5.000000e+01
5.000000e+01
5.000000e+01
5.000000e+01
5.000000e+01
5.000000e+01
5.000000e+01
5.000000e+01
5.000000e+01
5.000000e+01
5.000000e+01
5.000000e+01
5.000000e+01
5.000000e+01
5.625000e+01
5.625000e+01
5.625000e+01
5.625000e+01
5.625000e+01
5.625000e+01
5.625000e+01
5.625000e+01
5.625000e+01
5.625000e+01
5.625000e+01
5.625000e+01
5.625000e+01
5.625000e+01
5.625000e+01
5.625000e+01
5.625000e+01
5.625000e+01
5.625000e+01
5.625000e+01
5.625000e+01
5.625000e+01
5.625000e+01
5.625000e+01
5.625000e+01
5.625000e+01
5.625000e+01
5.625000e+01
5.625000e+01
5.625000e+01
5.625000e+01
5.625000e+01
5.625000e+01
6.250000e+01
6.250000e+01
6.250000e+01
6.250000e+01
6.250000e+01
6.250000e+01
6.250000e+01
6.250000e+01
6.250000e+01
6.250000e+01
6.250000e+01
6.250000e+01
6.250000e+01
6.250000e+01
6.250000e+01
6.250000e+01
6.250000e+01
6.250000e+01
6.250000e+01
6.250000e+01
6.250000e+01
6.250000e+01
6.250000e+01
6.250000e+01
6.250000e+01
6.250000e+01
6.250000e+01
6.250000e+01
6.250000e+01
6.250000e+01
6.250000e+01
6.250000e+01
6.250000e+01
6.875000e+01
6.875000e+01
6.875000e+01
6.875000e+01
6.875000e+01
6.875000e+01
6.875000e+01
6.875000e+01
6.875000e+01
6.875000e+01
6.875000e+01
6.875000e+01
6.875000e+01
6.875000e+01
6.875000e+01
6.875000e+01
6.875000e+01
6.875000e+01
6.875000e+01
6.875000e+01
6.875000e+01
6.875000e+01
6.875000e+01
6.875000e+01
6.875000e+01
6.875000e+01
6.875000e+01
6.875000e+01
6.875000e+01
6.875000e+01
6.875000e+01
6.875000e+01
6.875000e+01
7.500000e+01
7.500000e+01
7.500000e+01
7.500000e+01
7.500000e+01
7.500000e+01
7.500000e+01
7.500000e+01
7.500000e+01
7.500000e+01
7.500000e+01
7.500000e+01
7.500000e+01
7.500000e+01
7.500000e+01
7.500000e+01
7.500000e+01
7.500000e+01
7.500000e+01
7.500000e+01
7.500000e+01
7.500000e+01
7.500000e+01
7.500000e+01
7.500000e+01
7.500000e+01
7.500000e+01
7.500000e+01
7.500000e+01
7.500000e+01
7.500000e+01
7.500000e+01
7.500000e+01
8.125000e+01
8.125000e+01
8.125000e+01
8.125000e+01
8.125000e+01
8.125000e+01
8.125000e+01
8.125000e+01
8.125000e+01
8.125000e+01
8.125000e+01
8.125000e+01
8.125000e+01
8.125000e+01
8.125000e+01
8.125000e+01
8.125000e+01
8.125000e+01
8.125000e+01
8.125000e+01
8.125000e+01
8.125000e+01
8.125000e+01
8.125000e+01
8.125000e+01
8.125000e+01
8.125000e+01
8.125000e+01
8.125000e+01
8.125000e+01
8.125000e+01
8.125000e+01
8.125000e+01
8.750000e+01
8.750000e+01
8.750000e+01
8.750000e+01
8.750000e+01
8.750000e+01
8.750000e+01
8.750000e+01
8.750000e+01
8.750000e+01
8.750000e+01
8.750000e+01
8.750000e+01
8.750000e+01
8.750000e+01
8.750000e+01
8.750000e+01
8.750000e+01
8.750000e+01
8.750000e+01
8.750000e+01
8.750000e+01
8.750000e+01
8.750000e+01
8.750000e+01
8.750000e+01
8.750000e+01
8.750000e+01
8.750000e+01
8.750000e+01
8.750000e+01
8.750000e+01
8.750000e+01
9.375000e+01
9.375000e+01
9.375000e+01
9.375000e+01
9.375000e+01
9.375000e+01
9.375000e+01
9.375000e+01
9.375000e+01
9.375000e+01
9.375000e+01
9.375000e+01
9.375000e+01
9.375000e+01
9.375000e+01
9.375000e+01
9.375000e+01
9.375000e+01
9.375000e+01
9.375000e+01
9.375000e+01
9.375000e+01
9.375000e+01
9.375000e+01
9.375000e+01
9.375000e+01
9.375000e+01
9.375000e+01
9.375000e+01
9.375000e+01
9.375000e+01
9.375000e+01
9.375000e+01
1.000000e+02
1.000000e+02
1.000000e+02
1.000000e+02
1.000000e+02
1.000000e+02
1.000000e+02
1.000000e+02
1.000000e+02
1.000000e+02
1.000000e+02
1.000000e+02
1.000000e+02
1.000000e+02
1.000000e+02
1.000000e+02
1.000000e+02
1.000000e+02
1.000000e+02
1.000000e+02
1.000000e+02
1.000000e+02
1.000000e+02
1.000000e+02
1.000000e+02
1.000000e+02
1.000000e+02
1.000000e+02
1.000000e+02
1.000000e+02
1.000000e+02
1.000000e+02
1.000000e+02
0.000000e+00
-6.255148e-02
-1.134913e-01
-1.606799e-01
-2.059679e-01
-2.497004e-01
-2.919652e-01
-3.327586e-01
-3.720548e-01
-4.098253e-01
-4.460464e-01
-4.807018e-01
-5.137829e-01
-5.452891e-01
-5.752278e-01
-6.036147e-01
-6.304752e-01
-6.558463e-01
-6.797789e-01
-7.023420e-01
-7.236273e-01
-7.437561e-01
-7.628887e-01
-7.812379e-01
-7.990887e-01
-8.168284e-01
-8.349949e-01
-8.543555e-01
-8.760356e-01
-9.016913e-01
-9.334709e-01
-9.713434e-01
-9.944565e-01
0.000000e+00
-4.193903e-02
-8.725864e-02
-1.299891e-01
-1.706029e-01
-2.094867e-01
-2.468459e-01
-2.827705e-01
-3.172962e-01
-3.504347e-01
-3.821880e-01
-4.125563e-01
-4.415410e-01
-4.691467e-01
-4.953827e-01
-5.202634e-01
-5.438102e-01
-5.660520e-01
-5.870274e-01
-6.067864e-01
-6.253929e-01
-6.429274e-01
-6.594898e-01
-6.752022e-01
-6.902107e-01
-7.046833e-01
-7.187974e-01
-7.326989e-01
-7.463868e-01
-7.594159e-01
-7.702727e-01
-7.766201e-01
-7.854567e-01
0.000000e+00
-3.326611e-02
-6.848629e-02
-1.043461e-01
-1.391908e-01
-1.727516e-01
-2.050069e-01
-2.359872e-01
-2.657200e-01
-2.942240e-01
-3.215113e-01
-3.475905e-01
-3.724685e-01
-3.961530e-01
-4.186525e-01
-4.399781e-01
-4.601435e-01
-4.791662e-01
-4.970676e-01
-5.138731e-01
-5.296121e-01
-5.443166e-01
-5.580177e-01
-5.707399e-01
-5.824881e-01
-5.932247e-01
-6.028269e-01
-6.110120e-01
-6.172264e-01
-6.205727e-01
-6.202793e-01
-6.184003e-01
-6.287191e-01
0.000000e+00
-2.639371e-02
-5.424509e-02
-8.285896e-02
-1.114058e-01
-1.392613e-01
-1.661869e-01
-1.920969e-01
-2.169682e-01
-2.407998e-01
-2.635978e-01
-2.853698e-01
-3.061232e-01
-3.258645e-01
-3.445995e-01
-3.623335e-01
-3.790714e-01
-3.948174e-01
-4.095747e-01
-4.233443e-01
-4.361226e-01
-4.478978e-01
-4.586440e-01
-4.683110e-01
-4.768095e-01
-4.839897e-01
-4.896138e-01
-4.933382e-01
-4.947603e-01
-4.937046e-01
-4.911407e-01
-4.909877e-01
-5.008189e-01
0.000000e+00
-2.048521e-02
-4.194674e-02
-6.409387e-02
-8.642098e-02
-1.084743e-01
-1.299495e-01
-1.506926e-01
-1.706335e-01
-1.897453e-01
-2.080208e-01
-2.254612e-01
-2.420695e-01
-2.578487e-01
-2.727997e-01
-2.869212e-01
-3.002088e-01
-3.126545e-01
-3.242455e-01
-3.349622e-01
-3.447760e-01
-3.536449e-01
-3.615081e-01
-3.682794e-01
-3.738390e-01
-3.780297e-01
-3.806667e-01
-3.815918e-01
-3.808329e-01
-3.789760e-01
-3.777712e-01
-3.805533e-01
-3.889397e-01
0.000000e+00
-1.505545e-02
-3.075594e-02
-4.696085e-02
-6.339020e-02
-7.973731e-02
-9.575870e-02
-1.112961e-01
-1.262627e-01
-1.406162e-01
-1.543388e-01
-1.674242e-01
-1.798701e-01
-1.916744e-01
-2.028326e-01
-2.133367e-01
-2.231743e-01
-2.323273e-01
-2.407710e-01
-2.484724e-01
-2.553882e-01
-2.614621e-01
-2.666233e-01
-2.707852e-01
-2.738489e-01
-2.757184e-01
-2.763386e-01
-2.757820e-01
-2.744102e-01
-2.731050e-01
-2.734228e-01
-2.769693e-01
-2.839085e-01
0.000000e+00
-9.908301e-03
-2.020852e-02
-3.083551e-02
-4.163772e-02
-5.243334e-02
-6.305955e-02
-7.339770e-02
-8.337349e-02
-9.294595e-02
-1.020944e-01
-1.108084e-01
-1.190812e-01
-1.269060e-01
-1.342734e-01
-1.411698e-01
-1.475767e-01
-1.534694e-01
-1.588163e-01
-1.635780e-01
-1.677068e-01
-1.711465e-01
-1.738347e-01
-1.757080e-01
-1.767145e-01
-1.768394e-01
-1.761512e-01
-1.748777e-01
-1.735036e-01
-1.728374e-01
-1.738767e-01
-1.773296e-01
-1.829311e-01
0.000000e+00
-4.921451e-03
-1.002896e-02
-1.529629e-02
-2.065691e-02
-2.602614e-02
-3.132355e-02
-3.648623e-02
-4.147165e-02
-4.625384e-02
-5.081741e-02
-5.515217e-02
-5.924926e-02
-6.309851e-02
-6.668681e-02
-6.999691e-02
-7.300662e-02
-7.568815e-02
-7.800779e-02
-7.992603e-02
-8.139854e-02
-8.237868e-02
-8.282268e-02
-8.269919e-02
-8.200577e-02
-8.079534e-02
-7.921438e-02
-7.754858e-02
-7.625542e-02
-7.593148e-02
-7.715080e-02
-8.016300e-02
-8.460766e-02
0.000000e+00
-7.940701e-06
-1.721765e-05
-2.731694e-05
-3.770734e-05
-4.767261e-05
-5.613330e-05
-6.144908e-05
-6.118762e-05
-5.184646e-05
-2.851721e-05
1.551378e-05
8.922773e-05
2.043885e-04
3.760855e-04
6.232581e-04
9.691195e-04
1.441349e-03
2.071846e-03
2.895728e-03
3.949099e-03
5.264915e-03
6.866000e-03
8.754092e-03
1.089382e-02
1.319146e-02
1.547109e-02
1.745718e-02
1.878299e-02
1.905185e-02
1.796928e-02
1.551760e-02
1.208388e-02
0.000000e+00
4.906495e-03
9.996469e-03
1.524463e-02
2.058543e-02
2.593551e-02
3.121645e-02
3.636837e-02
4.135329e-02
4.615179e-02
5.075769e-02
5.517339e-02
5.940690e-02
6.347024e-02
6.737875e-02
7.115098e-02
7.480875e-02
7.837687e-02
8.188255e-02
8.535382e-02
8.881660e-02
9.228996e-02
9.577886e-02
9.926393e-02
1.026885e-01
1.059445e-01
1.088616e-01
1.112077e-01
1.127152e-01
1.131420e-01
1.123691e-01
1.105066e-01
1.079582e-01
0.000000e+00
9.896082e-03
2.018179e-02
3.079271e-02
4.157804e-02
5.235697e-02
6.296824e-02
7.329560e-02
8.326839e-02
9.285089e-02
1.020298e-01
1.108049e-01
1.191834e-01
1.271764e-01
1.347981e-01
1.420646e-01
1.489942e-01
1.556065e-01
1.619222e-01
1.679608e-01
1.737379e-01
1.792609e-01
1.845223e-01
1.894916e-01
1.941065e-01
1.982646e-01
2.018212e-01
2.045991e-01
2.064173e-01
2.071443e-01
2.067705e-01
2.054818e-01
2.037031e-01
0.000000e+00
1.504766e-02
3.073857e-02
4.693257e-02
6.335005e-02
7.968490e-02
9.569458e-02
1.112223e-01
1.261835e-01
1.405392e-01
1.542762e-01
1.673949e-01
1.799020e-01
1.918073e-01
2.031218e-01
2.138577e-01
2.240276e-01
2.336443e-01
2.427202e-01
2.512658e-01
2.592871e-01
2.667822e-01
2.737366e-01
2.801175e-01
2.858684e-01
2.909058e-01
2.951212e-01
2.983929e-01
3.006115e-01
3.017232e-01
3.017858e-01
3.010298e-01
2.999056e-01
0.000000e+00
2.048328e-02
4.194190e-02
6.408520e-02
8.640758e-02
1.084554e-01
1.299247e-01
1.506617e-01
1.705972e-01
1.897052e-01
2.079800e-01
2.254249e-01
2.420461e-01
2.578505e-01
2.728449e-01
2.870353e-01
3.004270e-01
3.130245e-01
3.248307e-01
3.358463e-01
3.460679e-01
3.554861e-01
3.640829e-01
3.718284e-01
3.786791e-01
3.845777e-01
3.894565e-01
3.932483e-01
3.959056e-01
3.974323e-01
3.979275e-01
3.976437e-01
3.970515e-01
0.000000e+00
2.639861e-02
5.425506e-02
8.287378e-02
1.114251e-01
1.392845e-01
1.662131e-01
1.921249e-01
2.169959e-01
2.408237e-01
2.636128e-01
2.853683e-01
3.060944e-01
3.257932e-01
3.444653e-01
3.621090e-01
3.787210e-01
3.942959e-01
4.088260e-01
4.223010e-01
4.347073e-01
4.460276e-01
4.562404e-01
4.653199e-01
4.732372e-01
4.799626e-01
4.854708e-01
4.897496e-01
4.928118e-01
4.947149e-01
4.955902e-01
4.956946e-01
4.954981e-01
0.000000e+00
3.327808e-02
6.851184e-02
1.043861e-01
1.392461e-01
1.728227e-01
2.050940e-01
2.360893e-01
2.658343e-01
2.943445e-01
3.216277e-01
3.476860e-01
3.725177e-01
3.961180e-01
4.184795e-01
4.395922e-01
4.594431e-01
4.780158e-01
4.952908e-01
5.112450e-01
5.258523e-01
5.390843e-01
5.509122e-01
5.613094e-01
5.702564e-01
5.777462e-01
5.837924e-01
5.884376e-01
5.917621e-01
5.938914e-01
5.950059e-01
5.953689e-01
5.954123e-01
0.000000e+00
4.195700e-02
8.729790e-02
1.300523e-01
1.706931e-01
2.096069e-01
2.469988e-01
2.829576e-01
3.175167e-01
3.506842e-01
3.824562e-01
4.128241e-01
4.417764e-01
4.692998e-01
4.953786e-01
5.199945e-01
5.431247e-01
5.647422e-01
5.848145e-01
6.033037e-01
6.201671e-01
6.353594e-01
6.488356e-01
6.605573e-01
6.704999e-01
6.786641e-01
6.850884e-01
6.898633e-01
6.931434e-01
6.951533e-01
6.961801e-01
6.965524e-01
6.966436e-01
0.000000e+00
6.257115e-02
1.135372e-01
1.607586e-01
2.060856e-01
2.498635e-01
2.921805e-01
3.330323e-01
3.723920e-01
4.102280e-01
4.465112e-01
4.812163e-01
5.143210e-01
5.458042e-01
5.756439e-01
6.038151e-01
6.302880e-01
6.550255e-01
6.779827e-01
6.991048e-01
7.183286e-01
7.355831e-01
7.507943e-01
7.638925e-01
7.748235e-01
7.835654e-01
7.901493e-01
7.946849e-01
7.973883e-01
7.986064e-01
7.988278e-01
7.986444e-01
7.985412e-01
0.000000e+00
-3.865563e-02
-6.746251e-02
-9.889784e-02
-1.339030e-01
-1.734448e-01
-2.177981e-01
-2.670399e-01
-3.211213e-01
-3.799262e-01
-4.432989e-01
-5.110600e-01
-5.830163e-01
-6.589662e-01
-7.387045e-01
-8.220244e-01
-9.087201e-01
-9.985896e-01
-1.091438e+00
-1.187081e+00
-1.285352e+00
-1.386112e+00
-1.489260e+00
-1.594757e+00
-1.702654e+00
-1.813153e+00
-1.926692e+00
-2.044128e+00
-2.167100e+00
-2.298855e+00
-2.446397e+00
-2.626251e+00
-2.874723e+00
0.000000e+00
-2.402301e-02
-5.417622e-02
-8.582357e-02
-1.213166e-01
-1.612880e-01
-2.060722e-01
-2.557450e-01
-3.102616e-01
-3.695061e-01
-4.333217e-01
-5.015277e-01
-5.739291e-01
-6.503228e-01
-7.305016e-01
-8.142565e-01
-9.013793e-01
-9.916651e-01
-1.084915e+00
-1.180940e+00
-1.279569e+00
-1.380654e+00
-1.484085e+00
-1.589812e+00
-1.697873e+00
-1.808449e+00
-1.921956e+00
-2.039227e+00
-2.161864e+00
-2.293060e+00
-2.439462e+00
-2.615312e+00
-2.847449e+00
0.000000e+00
-1.764629e-02
-4.367664e-02
-7.489226e-02
-1.104473e-01
-1.507131e-01
-1.958508e-01
-2.459022e-01
-3.008070e-01
-3.604440e-01
-4.246536e-01
-4.932538e-01
-5.660486e-01
-6.428343e-01
-7.234028e-01
-8.075444e-01
-8.950499e-01
-9.857131e-01
-1.079334e+00
-1.175722e+00
-1.274704e+00
-1.376131e+00
-1.479894e+00
-1.585942e+00
-1.694320e+00
-1.805218e+00
-1.919072e+00
-2.036732e+00
-2.159785e+00
-2.291105e+00
-2.435603e+00
-2.599081e+00
-2.780427e+00
0.000000e+00
-1.413043e-02
-3.698533e-02
-6.653637e-02
-1.016344e-01
-1.418878e-01
-1.872185e-01
-2.375502e-01
-2.927746e-01
-3.527479e-01
-4.173006e-01
-4.862460e-01
-5.593865e-01
-6.365181e-01
-7.174327e-01
-8.019214e-01
-8.897755e-01
-9.807898e-01
-1.074765e+00
-1.171512e+00
-1.270861e+00
-1.372665e+00
-1.476822e+00
-1.583289e+00
-1.692119e+00
-1.803514e+00
-1.917905e+00
-2.036074e+00
-2.159321e+00
-2.289540e+00
-2.428542e+00
-2.575146e+00
-2.711620e+00
0.000000e+00
-1.195669e-02
-3.260947e-02
-6.060271e-02
-9.490066e-02
-1.348901e-01
-1.802379e-01
-2.307331e-01
-2.861935e-01
-3.464376e-01
-4.112772e-01
-4.805168e-01
-5.539554e-01
-6.313882e-01
-7.126081e-01
-7.974075e-01
-8.855799e-01
-9.769222e-01
-1.071238e+00
-1.168342e+00
-1.268066e+00
-1.370271e+00
-1.474856e+00
-1.581783e+00
-1.691100e+00
-1.802984e+00
-1.917787e+00
-2.036072e+00
-2.158587e+00
-2.285931e+00
-2.417499e+00
-2.548459e+00
-2.667313e+00
0.000000e+00
-1.057353e-02
-2.973836e-02
-5.651943e-02
-9.004532e-02
-1.296601e-01
-1.749093e-01
-2.254692e-01
-2.810849e-01
-3.415319e-01
-4.065988e-01
-4.760785e-01
-5.497651e-01
-6.274529e-01
-7.089357e-01
-7.940080e-01
-8.824661e-01
-9.741099e-01
-1.068746e+00
-1.166192e+00
-1.266283e+00
-1.368879e+00
-1.473878e+00
-1.581228e+00
-1.690949e+00
-1.803146e+00
-1.918018e+00
-2.035812e+00
-2.156664e+00
-2.280168e+00
-2.404441e+00
-2.525043e+00
-2.635272e+00
0.000000e+00
-9.713909e-03
-2.792310e-02
-5.386521e-02
-8.679260e-02
-1.260660e-01
-1.711808e-01
-2.217470e-01
-2.774545e-01
-3.380420e-01
-4.032765e-01
-4.729396e-01
-5.468209e-01
-6.247134e-01
-7.064125e-01
-7.917149e-01
-8.804195e-01
-9.723291e-01
-1.067253e+00
-1.165009e+00
-1.265431e+00
-1.368374e+00
-1.473721e+00
-1.581393e+00
-1.691353e+00
-1.803603e+00
-1.918153e+00
-2.034936e+00
-2.153617e+00
-2.273229e+00
-2.391703e+00
-2.505623e+00
-2.610804e+00
0.000000e+00
-9.241534e-03
-2.691586e-02
-5.236951e-02
-8.492744e-02
-1.239725e-01
-1.689838e-01
-2.195388e-01
-2.752959e-01
-3.359704e-01
-4.013146e-01
-4.711028e-01
-5.451215e-01
-6.231640e-01
-7.050268e-01
-7.905091e-01
-8.794121e-01
-9.715404e-01
-1.066703e+00
-1.164718e+00
-1.265412e+00
-1.368627e+00
-1.474223e+00
-1.582077e+00
-1.692082e+00
-1.804125e+00
-1.918040e+00
-2.033517e+00
-2.149939e+00
-2.266162e+00
-2.380319e+00
-2.489841e+00
-2.591871e+00
0.000000e+00
-9.089336e-03
-2.659090e-02
-5.188474e-02
-8.431957e-02
-1.232873e-01
-1.682641e-01
-2.188184e-01
-2.745989e-01
-3.353140e-01
-4.007117e-01
-4.705649e-01
-5.446603e-01
-6.227925e-01
-7.047600e-01
-7.903641e-01
-8.794077e-01
-9.716959e-01
-1.067037e+00
-1.165242e+00
-1.266130e+00
-1.369522e+00
-1.475249e+00
-1.583138e+00
-1.693008e+00
-1.804640e+00
-1.917731e+00
-2.031815e+00
-2.146155e+00
-2.259625e+00
-2.370645e+00
-2.477254e+00
-2.577361e+00
0.000000e+00
-9.237131e-03
-2.690975e-02
-5.236425e-02
-8.492585e-02
-1.239781e-01
-1.690011e-01
-2.195741e-01
-2.753572e-01
-3.360683e-01
-4.014628e-01
-4.713184e-01
-5.454259e-01
-6.235826e-01
-7.055897e-01
-7.912500e-01
-8.803673e-01
-9.727461e-01
-1.068191e+00
-1.166507e+00
-1.267499e+00
-1.370967e+00
-1.476706e+00
-1.584497e+00
-1.694091e+00
-1.805182e+00
-1.917374e+00
-2.030119e+00
-2.142658e+00
-2.253966e+00
-2.362742e+00
-2.467469e+00
-2.566547e+00
0.000000e+00
-9.705460e-03
-2.791138e-02
-5.385507e-02
-8.678942e-02
-1.260765e-01
-1.712138e-01
-2.218143e-01
-2.775715e-01
-3.382293e-01
-4.035601e-01
-4.733527e-01
-5.474041e-01
-6.255161e-01
-7.074923e-01
-7.931368e-01
-8.822537e-01
-9.746457e-01
-1.070113e+00
-1.168453e+00
-1.269454e+00
-1.372896e+00
-1.478542e+00
-1.586127e+00
-1.695346e+00
-1.805833e+00
-1.917132e+00
-2.028664e+00
-2.139701e+00
-2.249345e+00
-2.356544e+00
-2.460128e+00
-2.558871e+00
0.000000e+00
-1.056179e-02
-2.972206e-02
-5.650527e-02
-9.004073e-02
-1.296745e-01
-1.749549e-01
-2.255626e-01
-2.812478e-01
-3.417930e-01
-4.069947e-01
-4.766554e-01
-5.505804e-01
-6.285754e-01
-7.104466e-01
-7.959988e-01
-8.850358e-01
-9.773579e-01
-1.072761e+00
-1.171032e+00
-1.271949e+00
-1.375270e+00
-1.480729e+00
-1.588027e+00
-1.696816e+00
-1.806685e+00
-1.917147e+00
-2.027622e+00
-2.137431e+00
-2.245807e+00
-2.351917e+00
-2.454893e+00
-2.553839e+00
0.000000e+00
-1.194286e-02
-3.259028e-02
-6.058602e-02
-9.489535e-02
-1.349075e-01
-1.802929e-01
-2.308458e-01
-2.863902e-01
-3.467529e-01
-4.117556e-01
-4.812143e-01
-5.549413e-01
-6.327462e-01
-7.144363e-01
-7.998173e-01
-8.886915e-01
-9.808573e-01
-1.076106e+00
-1.174218e+00
-1.274957e+00
-1.378068e+00
-1.483263e+00
-1.590213e+00
-1.698543e+00
-1.807813e+00
-1.917521e+00
-2.027096e+00
-2.135913e+00
-2.243323e+00
-2.348688e+00
-2.451417e+00
-2.550959e+00
0.000000e+00
-1.411621e-02
-3.696564e-02
-6.651940e-02
-1.016299e-01
-1.419082e-01
-1.872805e-01
-2.376760e-01
-2.929935e-01
-3.530979e-01
-4.178309e-01
-4.870184e-01
-5.604775e-01
-6.380198e-01
-7.194533e-01
-8.045833e-01
-8.932112e-01
-9.851330e-01
-1.080136e+00
-1.177996e+00
-1.278469e+00
-1.381285e+00
-1.486144e+00
-1.592700e+00
-1.700556e+00
-1.809260e+00
-1.918302e+00
-2.027124e+00
-2.135148e+00
-2.241817e+00
-2.346657e+00
-2.449341e+00
-2.549704e+00
0.000000e+00
-1.763390e-02
-4.365939e-02
-7.487793e-02
-1.104459e-01
-1.507380e-01
-1.959193e-01
-2.460375e-01
-3.010396e-01
-3.608133e-01
-4.252104e-01
-4.940618e-01
-5.671864e-01
-6.443964e-01
-7.254996e-01
-8.103006e-01
-8.985995e-01
-9.901905e-01
-1.084859e+00
-1.182375e+00
-1.282490e+00
-1.384930e+00
-1.489383e+00
-1.595495e+00
-1.702862e+00
-1.811026e+00
-1.919477e+00
-2.027671e+00
-2.135062e+00
-2.241158e+00
-2.345604e+00
-2.448298e+00
-2.549484e+00
0.000000e+00
-2.401505e-02
-5.416448e-02
-8.581514e-02
-1.213218e-01
-1.613203e-01
-2.061494e-01
-2.558902e-01
-3.105051e-01
-3.698872e-01
-4.338904e-01
-5.023465e-01
-5.750745e-01
-6.518864e-01
-7.325893e-01
-8.169868e-01
-9.048777e-01
-9.960545e-01
-1.090300e+00
-1.187383e+00
-1.287051e+00
-1.389027e+00
-1.492996e+00
-1.598604e+00
-1.705445e+00
-1.813064e+00
-1.920961e+00
-2.028607e+00
-2.135480e+00
-2.241127e+00
-2.345262e+00
-2.447921e+00
-2.549671e+00
0.000000e+00
-3.865450e-02
-6.745860e-02
-9.889859e-02
-1.339188e-01
-1.734892e-01
-2.178888e-01
-2.671999e-01
-3.213803e-01
-3.803223e-01
-4.438803e-01
-5.118862e-01
-5.841594e-01
-6.605114e-01
-7.407490e-01
-8.246742e-01
-9.120846e-01
-1.002771e+00
-1.096513e+00
-1.193077e+00
-1.292209e+00
-1.393630e+00
-1.497025e+00