TITLE = "Solution"
VARIABLES = x, y, u, v, psiu, psiv, t, stress
ZONE T="structure" N=561 E=512 F=FEBLOCK ET=QUADRILATERAL VARLOCATION=([7,8]=cellcentered)
0.000000e+00
6.250000e+00
1.250000e+01
1.875000e+01
2.500000e+01
3.125000e+01
3.750000e+01
4.375000e+01
5.000000e+01
5.625000e+01
6.250000e+01
6.875000e+01
7.500000e+01
8.125000e+01
8.750000e+01
9.375000e+01
1.000000e+02
1.062500e+02
1.125000e+02
1.187500e+02
1.250000e+02
1.312500e+02
1.375000e+02
1.437500e+02
1.500000e+02
1.562500e+02
1.625000e+02
1.687500e+02
1.750000e+02
1.812500e+02
1.875000e+02
1.937500e+02
2.000000e+02
0.000000e+00
6.250000e+00
1.250000e+01
1.875000e+01
2.500000e+01
3.125000e+01
3.750000e+01
4.375000e+01
5.000000e+01
5.625000e+01
6.250000e+01
6.875000e+01
7.500000e+01
8.125000e+01
8.750000e+01
9.375000e+01
1.000000e+02
1.062500e+02
1.125000e+02
1.187500e+02
1.250000e+02
1.312500e+02
1.375000e+02
1.437500e+02
1.500000e+02
1.562500e+02
1.625000e+02
1.687500e+02
1.750000e+02
1.812500e+02
1.875000e+02
1.937500e+02
2.000000e+02
0.000000e+00
6.250000e+00
1.250000e+01
1.875000e+01
2.500000e+01
3.125000e+01
3.750000e+01
4.375000e+01
5.000000e+01
5.625000e+01
6.250000e+01
6.875000e+01
7.500000e+01
8.125000e+01
8.750000e+01
9.375000e+01
1.000000e+02
1.062500e+02
1.125000e+02
1.187500e+02
1.250000e+02
1.312500e+02
1.375000e+02
1.437500e+02
1.500000e+02
1.562500e+02
1.625000e+02
1.687500e+02
1.750000e+02
1.812500e+02
1.875000e+02
1.937500e+02
2.000000e+02
0.000000e+00
6.250000e+00
1.250000e+01
1.875000e+01
2.500000e+01
3.125000e+01
3.750000e+01
4.375000e+01
5.000000e+01
5.625000e+01
6.250000e+01
6.875000e+01
7.500000e+01
8.125000e+01
8.750000e+01
9.375000e+01
1.000000e+02
1.062500e+02
1.125000e+02
1.187500e+02
1.250000e+02
1.312500e+02
1.375000e+02
1.437500e+02
1.500000e+02
1.562500e+02
1.625000e+02
1.687500e+02
1.750000e+02
1.812500e+02
1.875000e+02
1.937500e+02
2.000000e+02
0.000000e+00
6.250000e+00
1.250000e+01
1.875000e+01
2.500000e+01
3.125000e+01
3.750000e+01
4.375000e+01
5.000000e+01
5.625000e+01
6.250000e+01
6.875000e+01
7.500000e+01
8.125000e+01
8.750000e+01
9.375000e+01
1.000000e+02
1.062500e+02
1.125000e+02
1.187500e+02
1.250000e+02
1.312500e+02
1.375000e+02
1.437500e+02
1.500000e+02
1.562500e+02
1.625000e+02
1.687500e+02
1.750000e+02
1.812500e+02
1.875000e+02
1.937500e+02
2.000000e+02
0.000000e+00
6.250000e+00
1.250000e+01
1.875000e+01
2.500000e+01
3.125000e+01
3.750000e+01
4.375000e+01
5.000000e+01
5.625000e+01
6.250000e+01
6.875000e+01
7.500000e+01
8.125000e+01
8.750000e+01
9.375000e+01
1.000000e+02
1.062500e+02
1.125000e+02
1.187500e+02
1.250000e+02
1.312500e+02
1.375000e+02
1.437500e+02
1.500000e+02
1.562500e+02
1.625000e+02
1.687500e+02
1.750000e+02
1.812500e+02
1.875000e+02
1.937500e+02
2.000000e+02
0.000000e+00
6.250000e+00
1.250000e+01
1.875000e+01
2.500000e+01
3.125000e+01
3.750000e+01
4.375000e+01
5.000000e+01
5.625000e+01
6.250000e+01
6.875000e+01
7.500000e+01
8.125000e+01
8.750000e+01
9.375000e+01
1.000000e+02
1.062500e+02
1.125000e+02
1.187500e+02
1.250000e+02
1.312500e+02
1.375000e+02
1.437500e+02
1.500000e+02
1.562500e+02
1.625000e+02
1.687500e+02
1.750000e+02
1.812500e+02
1.875000e+02
1.937500e+02
2.000000e+02
0.000000e+00
6.250000e+00
1.250000e+01
1.875000e+01
2.500000e+01
3.125000e+01
3.750000e+01
4.375000e+01
5.000000e+01
5.625000e+01
6.250000e+01
6.875000e+01
7.500000e+01
8.125000e+01
8.750000e+01
9.375000e+01
1.000000e+02
1.062500e+02
1.125000e+02
1.187500e+02
1.250000e+02
1.312500e+02
1.375000e+02
1.437500e+02
1.500000e+02
1.562500e+02
1.625000e+02
1.687500e+02
1.750000e+02
1.812500e+02
1.875000e+02
1.937500e+02
2.000000e+02
0.000000e+00
6.250000e+00
1.250000e+01
1.875000e+01
2.500000e+01
3.125000e+01
3.750000e+01
4.375000e+01
5.000000e+01
5.625000e+01
6.250000e+01
6.875000e+01
7.500000e+01
8.125000e+01
8.750000e+01
9.375000e+01
1.000000e+02
1.062500e+02
1.125000e+02
1.187500e+02
1.250000e+02
1.312500e+02
1.375000e+02
1.437500e+02
1.500000e+02
1.562500e+02
1.625000e+02
1.687500e+02
1.750000e+02
1.812500e+02
1.875000e+02
1.937500e+02
2.000000e+02
0.000000e+00
6.250000e+00
1.250000e+01
1.875000e+01
2.500000e+01
3.125000e+01
3.750000e+01
4.375000e+01
5.000000e+01
5.625000e+01
6.250000e+01
6.875000e+01
7.500000e+01
8.125000e+01
8.750000e+01
9.375000e+01
1.000000e+02
1.062500e+02
1.125000e+02
1.187500e+02
1.250000e+02
1.312500e+02
1.375000e+02
1.437500e+02
1.500000e+02
1.562500e+02
1.625000e+02
1.687500e+02
1.750000e+02
1.812500e+02
1.875000e+02
1.937500e+02
2.000000e+02
0.000000e+00
6.250000e+00
1.250000e+01
1.875000e+01
2.500000e+01
3.125000e+01
3.750000e+01
4.375000e+01
5.000000e+01
5.625000e+01
6.250000e+01
6.875000e+01
7.500000e+01
8.125000e+01
8.750000e+01
9.375000e+01
1.000000e+02
1.062500e+02
1.125000e+02
1.187500e+02
1.250000e+02
1.312500e+02
1.375000e+02
1.437500e+02
1.500000e+02
1.562500e+02
1.625000e+02
1.687500e+02
1.750000e+02
1.812500e+02
1.875000e+02
1.937500e+02
2.000000e+02
0.000000e+00
6.250000e+00
1.250000e+01
1.875000e+01
2.500000e+01
3.125000e+01
3.750000e+01
4.375000e+01
5.000000e+01
5.625000e+01
6.250000e+01
6.875000e+01
7.500000e+01
8.125000e+01
8.750000e+01
9.375000e+01
1.000000e+02
1.062500e+02
1.125000e+02
1.187500e+02
1.250000e+02
1.312500e+02
1.375000e+02
1.437500e+02
1.500000e+02
1.562500e+02
1.625000e+02
1.687500e+02
1.750000e+02
1.812500e+02
1.875000e+02
1.937500e+02
2.000000e+02
0.000000e+00
6.250000e+00
1.250000e+01
1.875000e+01
2.500000e+01
3.125000e+01
3.750000e+01
4.375000e+01
5.000000e+01
5.625000e+01
6.250000e+01
6.875000e+01
7.500000e+01
8.125000e+01
8.750000e+01
9.375000e+01
1.000000e+02
1.062500e+02
1.125000e+02
1.187500e+02
1.250000e+02
1.312500e+02
1.375000e+02
1.437500e+02
1.500000e+02
1.562500e+02
1.625000e+02
1.687500e+02
1.750000e+02
1.812500e+02
1.875000e+02
1.937500e+02
2.000000e+02
0.000000e+00
6.250000e+00
1.250000e+01
1.875000e+01
2.500000e+01
3.125000e+01
3.750000e+01
4.375000e+01
5.000000e+01
5.625000e+01
6.250000e+01
6.875000e+01
7.500000e+01
8.125000e+01
8.750000e+01
9.375000e+01
1.000000e+02
1.062500e+02
1.125000e+02
1.187500e+02
1.250000e+02
1.312500e+02
1.375000e+02
1.437500e+02
1.500000e+02
1.562500e+02
1.625000e+02
1.687500e+02
1.750000e+02
1.812500e+02
1.875000e+02
1.937500e+02
2.000000e+02
0.000000e+00
6.250000e+00
1.250000e+01
1.875000e+01
2.500000e+01
3.125000e+01
3.750000e+01
4.375000e+01
5.000000e+01
5.625000e+01
6.250000e+01
6.875000e+01
7.500000e+01
8.125000e+01
8.750000e+01
9.375000e+01
1.000000e+02
1.062500e+02
1.125000e+02
1.187500e+02
1.250000e+02
1.312500e+02
1.375000e+02
1.437500e+02
1.500000e+02
1.562500e+02
1.625000e+02
1.687500e+02
1.750000e+02
1.812500e+02
1.875000e+02
1.937500e+02
2.000000e+02
0.000000e+00
6.250000e+00
1.250000e+01
1.875000e+01
2.500000e+01
3.125000e+01
3.750000e+01
4.375000e+01
5.000000e+01
5.625000e+01
6.250000e+01
6.875000e+01
7.500000e+01
8.125000e+01
8.750000e+01
9.375000e+01
1.000000e+02
1.062500e+02
1.125000e+02
1.187500e+02
1.250000e+02
1.312500e+02
1.375000e+02
1.437500e+02
1.500000e+02
1.562500e+02
1.625000e+02
1.687500e+02
1.750000e+02
1.812500e+02
1.875000e+02
1.937500e+02
2.000000e+02
0.000000e+00
6.250000e+00
1.250000e+01
1.875000e+01
2.500000e+01
3.125000e+01
3.750000e+01
4.375000e+01
5.000000e+01
5.625000e+01
6.250000e+01
6.875000e+01
7.500000e+01
8.125000e+01
8.750000e+01
9.375000e+01
1.000000e+02
1.062500e+02
1.125000e+02
1.187500e+02
1.250000e+02
1.312500e+02
1.375000e+02
1.437500e+02
1.500000e+02
1.562500e+02
1.625000e+02
1.687500e+02
1.750000e+02
1.812500e+02
1.875000e+02
1.937500e+02
2.000000e+02
0.000000e+00
0.000000e+00
0.000000e+00
0.000000e+00
0.000000e+00
0.000000e+00
0.000000e+00
0.000000e+00
0.000000e+00
0.000000e+00
0.000000e+00
0.000000e+00
0.000000e+00
0.000000e+00
0.000000e+00
0.000000e+00
0.000000e+00
0.000000e+00
0.000000e+00
0.000000e+00
0.000000e+00
0.000000e+00
0.000000e+00
0.000000e+00
0.000000e+00
0.000000e+00
0.000000e+00
0.000000e+00
0.000000e+00
0.000000e+00
0.000000e+00
0.000000e+00
0.000000e+00
6.250000e+00
6.250000e+00
6.250000e+00
6.250000e+00
6.250000e+00
6.250000e+00
6.250000e+00
6.250000e+00
6.250000e+00
6.250000e+00
6.250000e+00
6.250000e+00
6.250000e+00
6.250000e+00
6.250000e+00
6.250000e+00
6.250000e+00
6.250000e+00
6.250000e+00
6.250000e+00
6.250000e+00
6.250000e+00
6.250000e+00
6.250000e+00
6.250000e+00
6.250000e+00
6.250000e+00
6.250000e+00
6.250000e+00
6.250000e+00
6.250000e+00
6.250000e+00
6.250000e+00
1.250000e+01
1.250000e+01
1.250000e+01
1.250000e+01
1.250000e+01
1.250000e+01
1.250000e+01
1.250000e+01
1.250000e+01
1.250000e+01
1.250000e+01
1.250000e+01
1.250000e+01
1.250000e+01
1.250000e+01
1.250000e+01
1.250000e+01
1.250000e+01
1.250000e+01
1.250000e+01
1.250000e+01
1.250000e+01
1.250000e+01
1.250000e+01
1.250000e+01
1.250000e+01
1.250000e+01
1.250000e+01
1.250000e+01
1.250000e+01
1.250000e+01
1.250000e+01
1.250000e+01
1.875000e+01
1.875000e+01
1.875000e+01
1.875000e+01
1.875000e+01
1.875000e+01
1.875000e+01
1.875000e+01
1.875000e+01
1.875000e+01
1.875000e+01
1.875000e+01
1.875000e+01
1.875000e+01
1.875000e+01
1.875000e+01
1.875000e+01
1.875000e+01
1.875000e+01
1.875000e+01
1.875000e+01
1.875000e+01
1.875000e+01
1.875000e+01
1.875000e+01
1.875000e+01
1.875000e+01
1.875000e+01
1.875000e+01
1.875000e+01
1.875000e+01
1.875000e+01
1.875000e+01
2.500000e+01
2.500000e+01
2.500000e+01
2.500000e+01
2.500000e+01
2.500000e+01
2.500000e+01
2.500000e+01
2.500000e+01
2.500000e+01
2.500000e+01
2.500000e+01
2.500000e+01
2.500000e+01
2.500000e+01
2.500000e+01
2.500000e+01
2.500000e+01
2.500000e+01
2.500000e+01
2.500000e+01
2.500000e+01
2.500000e+01
2.500000e+01
2.500000e+01
2.500000e+01
2.500000e+01
2.500000e+01
2.500000e+01
2.500000e+01
2.500000e+01
2.500000e+01
2.500000e+01
3.125000e+01
3.125000e+01
3.125000e+01
3.125000e+01
3.125000e+01
3.125000e+01
3.125000e+01
3.125000e+01
3.125000e+01
3.125000e+01
3.125000e+01
3.125000e+01
3.125000e+01
3.125000e+01
3.125000e+01
3.125000e+01
3.125000e+01
3.125000e+01
3.125000e+01
3.125000e+01
3.125000e+01
3.125000e+01
3.125000e+01
3.125000e+01
3.125000e+01
3.125000e+01
3.125000e+01
3.125000e+01
3.125000e+01
3.125000e+01
3.125000e+01
3.125000e+01
3.125000e+01
3.750000e+01
3.750000e+01
3.750000e+01
3.750000e+01
3.750000e+01
3.750000e+01
3.750000e+01
3.750000e+01
3.750000e+01
3.750000e+01
3.750000e+01
3.750000e+01
3.750000e+01
3.750000e+01
3.750000e+01
3.750000e+01
3.750000e+01
3.750000e+01
3.750000e+01
3.750000e+01
3.750000e+01
3.750000e+01
3.750000e+01
3.750000e+01
3.750000e+01
3.750000e+01
3.750000e+01
3.750000e+01
3.750000e+01
3.750000e+01
3.750000e+01
3.750000e+01
3.750000e+01
4.375000e+01
4.375000e+01
4.375000e+01
4.375000e+01
4.375000e+01
4.375000e+01
4.375000e+01
4.375000e+01
4.375000e+01
4.375000e+01
4.375000e+01
4.375000e+01
4.375000e+01
4.375000e+01
4.375000e+01
4.375000e+01
4.375000e+01
4.375000e+01
4.375000e+01
4.375000e+01
4.375000e+01
4.375000e+01
4.375000e+01
4.375000e+01
4.375000e+01
4.375000e+01
4.375000e+01
4.375000e+01
4.375000e+01
4.375000e+01
4.375000e+01
4.375000e+01
4.375000e+01
5.000000e+01
5.000000e+01
5.000000e+01
5.000000e+01
5.000000e+01
5.000000e+01
5.000000e+01
5.000000e+01
5.000000e+01
5.000000e+01
5.000000e+01
5.000000e+01
5.000000e+01
5.000000e+01
5.000000e+01
5.000000e+01
5.000000e+01
5.000000e+01
5.000000e+01
5.000000e+01
5.000000e+01
5.000000e+01
5.000000e+01
5.000000e+01
5.000000e+01
5.000000e+01
5.000000e+01
5.000000e+01
5.000000e+01
5.000000e+01
5.000000e+01
5.000000e+01
5.000000e+01
5.625000e+01
5.625000e+01
5.625000e+01
5.625000e+01
5.625000e+01
5.625000e+01
5.625000e+01
5.625000e+01
5.625000e+01
5.625000e+01
5.625000e+01
5.625000e+01
5.625000e+01
5.625000e+01
5.625000e+01
5.625000e+01
5.625000e+01
5.625000e+01
5.625000e+01
5.625000e+01
5.625000e+01
5.625000e+01
5.625000e+01
5.625000e+01
5.625000e+01
5.625000e+01
5.625000e+01
5.625000e+01
5.625000e+01
5.625000e+01
5.625000e+01
5.625000e+01
5.625000e+01
6.250000e+01
6.250000e+01
6.250000e+01
6.250000e+01
6.250000e+01
6.250000e+01
6.250000e+01
6.250000e+01
6.250000e+01
6.250000e+01
6.250000e+01
6.250000e+01
6.250000e+01
6.250000e+01
6.250000e+01
6.250000e+01
6.250000e+01
6.250000e+01
6.250000e+01
6.250000e+01
6.250000e+01
6.250000e+01
6.250000e+01
6.250000e+01
6.250000e+01
6.250000e+01
6.250000e+01
6.250000e+01
6.250000e+01
6.250000e+01
6.250000e+01
6.250000e+01
6.250000e+01
6.875000e+01
6.875000e+01
6.875000e+01
6.875000e+01
6.875000e+01
6.875000e+01
6.875000e+01
6.875000e+01
6.875000e+01
6.875000e+01
6.875000e+01
6.875000e+01
6.875000e+01
6.875000e+01
6.875000e+01
6.875000e+01
6.875000e+01
6.875000e+01
6.875000e+01
6.875000e+01
6.875000e+01
6.875000e+01
6.875000e+01
6.875000e+01
6.875000e+01
6.875000e+01
6.875000e+01
6.875000e+01
6.875000e+01
6.875000e+01
6.875000e+01
6.875000e+01
6.875000e+01
7.500000e+01
7.500000e+01
7.500000e+01
7.500000e+01
7.500000e+01
7.500000e+01
7.500000e+01
7.500000e+01
7.500000e+01
7.500000e+01
7.500000e+01
7.500000e+01
7.500000e+01
7.500000e+01
7.500000e+01
7.500000e+01
7.500000e+01
7.500000e+01
7.500000e+01
7.500000e+01
7.500000e+01
7.500000e+01
7.500000e+01
7.500000e+01
7.500000e+01
7.500000e+01
7.500000e+01
7.500000e+01
7.500000e+01
7.500000e+01
7.500000e+01
7.500000e+01
7.500000e+01
8.125000e+01
8.125000e+01
8.125000e+01
8.125000e+01
8.125000e+01
8.125000e+01
8.125000e+01
8.125000e+01
8.125000e+01
8.125000e+01
8.125000e+01
8.125000e+01
8.125000e+01
8.125000e+01
8.125000e+01
8.125000e+01
8.125000e+01
8.125000e+01
8.125000e+01
8.125000e+01
8.125000e+01
8.125000e+01
8.125000e+01
8.125000e+01
8.125000e+01
8.125000e+01
8.125000e+01
8.125000e+01
8.125000e+01
8.125000e+01
8.125000e+01
8.125000e+01
8.125000e+01
8.750000e+01
8.750000e+01
8.750000e+01
8.750000e+01
8.750000e+01
8.750000e+01
8.750000e+01
8.750000e+01
8.750000e+01
8.750000e+01
8.750000e+01
8.750000e+01
8.750000e+01
8.750000e+01
8.750000e+01
8.750000e+01
8.750000e+01
8.750000e+01
8.750000e+01
8.750000e+01
8.750000e+01
8.750000e+01
8.750000e+01
8.750000e+01
8.750000e+01
8.750000e+01
8.750000e+01
8.750000e+01
8.750000e+01
8.750000e+01
8.750000e+01
8.750000e+01
8.750000e+01
9.375000e+01
9.375000e+01
9.375000e+01
9.375000e+01
9.375000e+01
9.375000e+01
9.375000e+01
9.375000e+01
9.375000e+01
9.375000e+01
9.375000e+01
9.375000e+01
9.375000e+01
9.375000e+01
9.375000e+01
9.375000e+01
9.375000e+01
9.375000e+01
9.375000e+01
9.375000e+01
9.375000e+01
9.375000e+01
9.375000e+01
9.375000e+01
9.375000e+01
9.375000e+01
9.375000e+01
9.375000e+01
9.375000e+01
9.375000e+01
9.375000e+01
9.375000e+01
9.375000e+01
1.000000e+02
1.000000e+02
1.000000e+02
1.000000e+02
1.000000e+02
1.000000e+02
1.000000e+02
1.000000e+02
1.000000e+02
1.000000e+02
1.000000e+02
1.000000e+02
1.000000e+02
1.000000e+02
1.000000e+02
1.000000e+02
1.000000e+02
1.000000e+02
1.000000e+02
1.000000e+02
1.000000e+02
1.000000e+02
1.000000e+02
1.000000e+02
1.000000e+02
1.000000e+02
1.000000e+02
1.000000e+02
1.000000e+02
1.000000e+02
1.000000e+02
1.000000e+02
1.000000e+02
0.000000e+00
-4.326622e-02
-7.850081e-02
-1.111407e-01
-1.424657e-01
-1.727149e-01
-2.019488e-01
-2.301648e-01
-2.573453e-01
-2.834704e-01
-3.085238e-01
-3.324942e-01
-3.553757e-01
-3.771678e-01
-3.978757e-01
-4.175102e-01
-4.360890e-01
-4.536375e-01
-4.701911e-01
-4.857975e-01
-5.005200e-01
-5.144425e-01
-5.276761e-01
-5.403677e-01
-5.527147e-01
-5.649848e-01
-5.775501e-01
-5.909414e-01
-6.059370e-01
-6.236824e-01
-6.456637e-01
-6.718593e-01
-6.878462e-01
0.000000e+00
-2.900884e-02
-6.035601e-02
-8.991225e-02
-1.180043e-01
-1.448997e-01
-1.707404e-01
-1.955889e-01
-2.194696e-01
-2.423908e-01
-2.643540e-01
-2.853591e-01
-3.054071e-01
-3.245014e-01
-3.426482e-01
-3.598576e-01
-3.761443e-01
-3.915284e-01
-4.060366e-01
-4.197034e-01
-4.325731e-01
-4.447013e-01
-4.561570e-01
-4.670249e-01
-4.774059e-01
-4.874162e-01
-4.971786e-01
-5.067939e-01
-5.162615e-01
-5.252734e-01
-5.327828e-01
-5.371731e-01
-5.432852e-01
0.000000e+00
-2.300988e-02
-4.737137e-02
-7.217525e-02
-9.627693e-02
-1.194904e-01
-1.418009e-01
-1.632295e-01
-1.837951e-01
-2.035108e-01
-2.223849e-01
-2.404232e-01
-2.576308e-01
-2.740128e-01
-2.895752e-01
-3.043256e-01
-3.182735e-01
-3.314311e-01
-3.438130e-01
-3.554370e-01
-3.663233e-01
-3.764940e-01
-3.859707e-01
-3.947703e-01
-4.028962e-01
-4.103225e-01
-4.169640e-01
-4.226254e-01
-4.269238e-01
-4.292383e-01
-4.290354e-01
-4.277357e-01
-4.348730e-01
0.000000e+00
-1.825630e-02
-3.752086e-02
-5.731279e-02
-7.705833e-02
-9.632560e-02
-1.149496e-01
-1.328711e-01
-1.500741e-01
-1.665580e-01
-1.823269e-01
-1.973862e-01
-2.117408e-01
-2.253954e-01
-2.383540e-01
-2.506202e-01
-2.621973e-01
-2.730885e-01
-2.832958e-01
-2.928198e-01
-3.016583e-01
-3.098029e-01
-3.172357e-01
-3.239221e-01
-3.298004e-01
-3.347667e-01
-3.386567e-01
-3.412328e-01
-3.422164e-01
-3.414862e-01
-3.397128e-01
-3.396070e-01
-3.464070e-01
0.000000e+00
-1.416944e-02
-2.901418e-02
-4.433312e-02
-5.977652e-02
-7.503051e-02
-8.988461e-02
-1.042323e-01
-1.180250e-01
-1.312443e-01
-1.438851e-01
-1.559482e-01
-1.674358e-01
-1.783499e-01
-1.886912e-01
-1.984587e-01
-2.076494e-01
-2.162579e-01
-2.242750e-01
-2.316875e-01
-2.384755e-01
-2.446098e-01
-2.500486e-01
-2.547321e-01
-2.585776e-01
-2.614762e-01
-2.633001e-01
-2.639400e-01
-2.634151e-01
-2.621307e-01
-2.612974e-01
-2.632217e-01
-2.690224e-01
0.000000e+00
-1.041371e-02
-2.127359e-02
-3.248236e-02
-4.384635e-02
-5.515343e-02
-6.623519e-02
-7.698218e-02
-8.733431e-02
-9.726235e-02
-1.067540e-01
-1.158049e-01
-1.244135e-01
-1.325782e-01
-1.402961e-01
-1.475615e-01
-1.543659e-01
-1.606969e-01
-1.665372e-01
-1.718641e-01
-1.766475e-01
-1.808487e-01
-1.844186e-01
-1.872972e-01
-1.894164e-01
-1.907094e-01
-1.911384e-01
-1.907534e-01
-1.898045e-01
-1.889018e-01
-1.891216e-01
-1.915746e-01
-1.963743e-01
0.000000e+00
-6.853474e-03
-1.397804e-02
-2.132861e-02
-2.880037e-02
-3.626756e-02
-4.361756e-02
-5.076829e-02
-5.766837e-02
-6.428947e-02
-7.061726e-02
-7.664454e-02
-8.236669e-02
-8.777895e-02
-9.287479e-02
-9.764488e-02
-1.020764e-01
-1.061522e-01
-1.098505e-01
-1.131441e-01
-1.159999e-01
-1.183790e-01
-1.202384e-01
-1.215341e-01
-1.222303e-01
-1.223166e-01
-1.218406e-01
-1.209598e-01
-1.200093e-01
-1.195486e-01
-1.202674e-01
-1.226557e-01
-1.265302e-01
0.000000e+00
-3.404119e-03
-6.936933e-03
-1.058029e-02
-1.428816e-02
-1.800199e-02
-2.166613e-02
-2.523708e-02
-2.868541e-02
-3.199316e-02
-3.514969e-02
-3.814796e-02
-4.098183e-02
-4.364427e-02
-4.612621e-02
-4.841574e-02
-5.049748e-02
-5.235223e-02
-5.395667e-02
-5.528347e-02
-5.630196e-02
-5.697991e-02
-5.728701e-02
-5.720159e-02
-5.672197e-02
-5.588475e-02
-5.479124e-02
-5.363905e-02
-5.274461e-02
-5.252055e-02
-5.336393e-02
-5.544739e-02
-5.852164e-02
0.000000e+00
-5.492214e-06
-1.190868e-05
-1.889395e-05
-2.608059e-05
-3.297319e-05
-3.882512e-05
-4.250180e-05
-4.232087e-05
-3.585974e-05
-1.972341e-05
1.073179e-05
6.171794e-05
1.413718e-04
2.601304e-04
4.310935e-04
6.703172e-04
9.969466e-04
1.433045e-03
2.002904e-03
2.731494e-03
3.641611e-03
4.749041e-03
6.054986e-03
7.534981e-03
9.124197e-03
1.070096e-02
1.207469e-02
1.299171e-02
1.317767e-02
1.242888e-02
1.073312e-02
8.358103e-03
0.000000e+00
3.393774e-03
6.914457e-03
1.054455e-02
1.423872e-02
1.793930e-02
2.159205e-02
2.515555e-02
2.860354e-02
3.192258e-02
3.510838e-02
3.816263e-02
4.109087e-02
4.390139e-02
4.660481e-02
4.921398e-02
5.174397e-02
5.421195e-02
5.663675e-02
5.903774e-02
6.143285e-02
6.383529e-02
6.624847e-02
6.865900e-02
7.102770e-02
7.327981e-02
7.529744e-02
7.692023e-02
7.796292e-02
7.825812e-02
7.772349e-02
7.643530e-02
7.467257e-02
0.000000e+00
6.845024e-03
1.395954e-02
2.129900e-02
2.875909e-02
3.621474e-02
4.355440e-02
5.069767e-02
5.759568e-02
6.422372e-02
7.057259e-02
7.664217e-02
8.243736e-02
8.796597e-02
9.323770e-02
9.826378e-02
1.030568e-01
1.076304e-01
1.119988e-01
1.161756e-01
1.201715e-01
1.239916e-01
1.276307e-01
1.310679e-01
1.342599e-01
1.371359e-01
1.395960e-01
1.415173e-01
1.427749e-01
1.432777e-01
1.430192e-01
1.421278e-01
1.408976e-01
0.000000e+00
1.040832e-02
2.126158e-02
3.246280e-02
4.381858e-02
5.511718e-02
6.619084e-02
7.693113e-02
8.727951e-02
9.720905e-02
1.067107e-01
1.157846e-01
1.244355e-01
1.326701e-01
1.404961e-01
1.479219e-01
1.549561e-01
1.616078e-01
1.678854e-01
1.737962e-01
1.793443e-01
1.845285e-01
1.893386e-01
1.937521e-01
1.977299e-01
2.012142e-01
2.041299e-01
2.063927e-01
2.079273e-01
2.086963e-01
2.087395e-01
2.082166e-01
2.074391e-01
0.000000e+00
1.416810e-02
2.901083e-02
4.432713e-02
5.976726e-02
7.501744e-02
8.986742e-02
1.042109e-01
1.179999e-01
1.312166e-01
1.438569e-01
1.559232e-01
1.674197e-01
1.783512e-01
1.887225e-01
1.985376e-01
2.078004e-01
2.165137e-01
2.246798e-01
2.322990e-01
2.393690e-01
2.458834e-01
2.518295e-01
2.571869e-01
2.619254e-01
2.660053e-01
2.693798e-01
2.720025e-01
2.738405e-01
2.748965e-01
2.752390e-01
2.750427e-01
2.746331e-01
0.000000e+00
1.825969e-02
3.752775e-02
5.732304e-02
7.707166e-02
9.634162e-02
1.149677e-01
1.328905e-01
1.500933e-01
1.665745e-01
1.823373e-01
1.973851e-01
2.117209e-01
2.253461e-01
2.382611e-01
2.504649e-01
2.619550e-01
2.727278e-01
2.827779e-01
2.920982e-01
3.006793e-01
3.085093e-01
3.155732e-01
3.218533e-01
3.273295e-01
3.319812e-01
3.357912e-01
3.387507e-01
3.408687e-01
3.421850e-01
3.427905e-01
3.428627e-01
3.427268e-01
0.000000e+00
2.301816e-02
4.738905e-02
7.220292e-02
9.631514e-02
1.195396e-01
1.418612e-01
1.633001e-01
1.838741e-01
2.035941e-01
2.224653e-01
2.404893e-01
2.576648e-01
2.739886e-01
2.894556e-01
3.040587e-01
3.177891e-01
3.306354e-01
3.425841e-01
3.536192e-01
3.637227e-01
3.728749e-01
3.810560e-01
3.882475e-01
3.944359e-01
3.996163e-01
4.037983e-01
4.070113e-01
4.093108e-01
4.107836e-01
4.115545e-01
4.118056e-01
4.118355e-01
0.000000e+00
2.902126e-02
6.038316e-02
8.995592e-02
1.180667e-01
1.449828e-01
1.708462e-01
1.957182e-01
2.196222e-01
2.425634e-01
2.645395e-01
2.855443e-01
3.055700e-01
3.246073e-01
3.426454e-01
3.596716e-01
3.756702e-01
3.906225e-01
4.045060e-01
4.172945e-01
4.289585e-01
4.394666e-01
4.487878e-01
4.568953e-01
4.637724e-01
4.694194e-01
4.738629e-01
4.771656e-01
4.794343e-01
4.808245e-01
4.815347e-01
4.817922e-01
4.818553e-01
0.000000e+00
4.327983e-02
7.853255e-02
1.111951e-01
1.425472e-01
1.728277e-01
2.020977e-01
2.303542e-01
2.575786e-01
2.837490e-01
3.088453e-01
3.328501e-01
3.557478e-01
3.775240e-01
3.981635e-01
4.176488e-01
4.359595e-01
4.530698e-01
4.689487e-01
4.835584e-01
4.968550e-01
5.087894e-01
5.193107e-01
5.283703e-01
5.359311e-01
5.419776e-01
5.465315e-01
5.496686e-01
5.515385e-01
5.523811e-01
5.525342e-01
5.524073e-01
5.523360e-01
0.000000e+00
-2.673770e-02
-4.666306e-02
-6.840642e-02
-9.261895e-02
-1.199694e-01
-1.506479e-01
-1.847077e-01
-2.221149e-01
-2.627894e-01
-3.066232e-01
-3.534925e-01
-4.032634e-01
-4.557967e-01
-5.109503e-01
-5.685811e-01
-6.285470e-01
-6.907081e-01
-7.549296e-01
-8.210841e-01
-8.890567e-01
-9.587503e-01
-1.030096e+00
-1.103066e+00
-1.177697e+00
-1.254126e+00
-1.332659e+00
-1.413887e+00
-1.498944e+00
-1.590077e+00
-1.692129e+00
-1.816530e+00
-1.988393e+00
0.000000e+00
-1.661646e-02
-3.747306e-02
-5.936310e-02
-8.391311e-02
-1.115607e-01
-1.425373e-01
-1.768952e-01
-2.146035e-01
-2.555820e-01
-2.997222e-01
-3.468992e-01
-3.969780e-01
-4.498182e-01
-5.052765e-01
-5.632083e-01
-6.234696e-01
-6.859187e-01
-7.504179e-01
-8.168368e-01
-8.850564e-01
-9.549747e-01
-1.026516e+00
-1.099646e+00
-1.174389e+00
-1.250872e+00
-1.329383e+00
-1.410497e+00
-1.495323e+00
-1.586068e+00
-1.687332e+00
-1.808964e+00
-1.969528e+00
0.000000e+00
-1.220575e-02
-3.021060e-02
-5.180203e-02
-7.639493e-02
-1.042463e-01
-1.354673e-01
-1.700871e-01
-2.080640e-01
-2.493139e-01
-2.937267e-01
-3.411763e-01
-3.915272e-01
-4.446386e-01
-5.003664e-01
-5.585657e-01
-6.190917e-01
-6.818018e-01
-7.465575e-01
-8.132274e-01
-8.816913e-01
-9.518465e-01
-1.023617e+00
-1.096969e+00
-1.171932e+00
-1.248638e+00
-1.327388e+00
-1.408772e+00
-1.493885e+00
-1.584716e+00
-1.684662e+00
-1.797737e+00
-1.923170e+00
0.000000e+00
-9.773846e-03
-2.558228e-02
-4.602235e-02
-7.029919e-02
-9.814188e-02
-1.294965e-01
-1.643102e-01
-2.025081e-01
-2.439907e-01
-2.886407e-01
-3.363291e-01
-3.869192e-01
-4.402698e-01
-4.962371e-01
-5.546764e-01
-6.154435e-01
-6.783964e-01
-7.433973e-01
-8.103157e-01
-8.790332e-01
-9.494496e-01
-1.021493e+00
-1.095134e+00
-1.170410e+00
-1.247460e+00
-1.326581e+00
-1.408317e+00
-1.493564e+00
-1.583634e+00
-1.679779e+00
-1.781182e+00
-1.875578e+00
0.000000e+00
-8.270282e-03
-2.255553e-02
-4.191809e-02
-6.564153e-02
-9.330167e-02
-1.246681e-01
-1.595949e-01
-1.979560e-01
-2.396259e-01
-2.844744e-01
-3.323663e-01
-3.831626e-01
-4.367216e-01
-4.929000e-01
-5.515542e-01
-6.125415e-01
-6.757213e-01
-7.409578e-01
-8.081229e-01
-8.771004e-01
-9.477934e-01
-1.020133e+00
-1.094092e+00
-1.169704e+00
-1.247093e+00
-1.326499e+00
-1.408315e+00
-1.493056e+00
-1.581138e+00
-1.672140e+00
-1.762723e+00
-1.844932e+00
0.000000e+00
-7.313550e-03
-2.056960e-02
-3.909372e-02
-6.228313e-02
-8.968417e-02
-1.209824e-01
-1.559539e-01
-1.944225e-01
-2.362328e-01
-2.812385e-01
-3.292965e-01
-3.802643e-01
-4.339996e-01
-4.903599e-01
-5.492029e-01
-6.103878e-01
-6.737761e-01
-7.392341e-01
-8.066358e-01
-8.758668e-01
-9.468306e-01
-1.019456e+00
-1.093708e+00
-1.169600e+00
-1.247205e+00
-1.326659e+00
-1.408135e+00
-1.491726e+00
-1.577151e+00
-1.663108e+00
-1.746526e+00
-1.822770e+00
0.000000e+00
-6.718952e-03
-1.931400e-02
-3.725782e-02
-6.003326e-02
-8.719817e-02
-1.184035e-01
-1.533794e-01
-1.919114e-01
-2.338189e-01
-2.789405e-01
-3.271254e-01
-3.782278e-01
-4.321048e-01
-4.886147e-01
-5.476168e-01
-6.089722e-01
-6.725444e-01
-7.382012e-01
-8.058173e-01
-8.752774e-01
-9.464811e-01
-1.019348e+00
-1.093823e+00
-1.169880e+00
-1.247521e+00
-1.326752e+00
-1.407529e+00
-1.489619e+00
-1.572352e+00
-1.654298e+00
-1.733094e+00
-1.805846e+00
0.000000e+00
-6.392212e-03
-1.861729e-02
-3.622325e-02
-5.874314e-02
-8.575010e-02
-1.168838e-01
-1.518520e-01
-1.904183e-01
-2.323859e-01
-2.775835e-01
-3.258549e-01
-3.770524e-01
-4.310331e-01
-4.876562e-01
-5.467828e-01
-6.082754e-01
-6.719989e-01
-7.378214e-01
-8.056164e-01
-8.752645e-01
-9.466563e-01
-1.019695e+00
-1.094296e+00
-1.170384e+00
-1.247882e+00
-1.326674e+00
-1.406548e+00
-1.487075e+00
-1.567464e+00
-1.646424e+00
-1.722178e+00
-1.792750e+00
0.000000e+00
-6.286937e-03
-1.839252e-02
-3.588794e-02
-5.832268e-02
-8.527617e-02
-1.163860e-01
-1.513537e-01
-1.899362e-01
-2.319319e-01
-2.771665e-01
-3.254829e-01
-3.767334e-01
-4.307761e-01
-4.874717e-01
-5.466825e-01
-6.082724e-01
-6.721064e-01
-7.380519e-01
-8.059788e-01
-8.757607e-01
-9.472754e-01
-1.020404e+00
-1.095029e+00
-1.171024e+00
-1.248238e+00
-1.326461e+00
-1.405371e+00
-1.484458e+00
-1.562942e+00
-1.639732e+00
-1.713472e+00
-1.782714e+00
0.000000e+00
-6.389167e-03
-1.861307e-02
-3.621961e-02
-5.874204e-02
-8.575396e-02
-1.168958e-01
-1.518764e-01
-1.904607e-01
-2.324537e-01
-2.776860e-01
-3.260040e-01
-3.772629e-01
-4.313226e-01
-4.880455e-01
-5.472952e-01
-6.089361e-01
-6.728328e-01
-7.388504e-01
-8.068539e-01
-8.767077e-01
-9.482746e-01
-1.021413e+00
-1.095970e+00
-1.171773e+00
-1.248613e+00
-1.326214e+00
-1.404197e+00
-1.482038e+00
-1.559028e+00
-1.634266e+00
-1.706704e+00
-1.775235e+00
0.000000e+00
-6.713109e-03
-1.930589e-02
-3.725080e-02
-6.003106e-02
-8.720543e-02
-1.184263e-01
-1.534259e-01
-1.919924e-01
-2.339484e-01
-2.791367e-01
-3.274111e-01
-3.786313e-01
-4.326600e-01
-4.893615e-01
-5.486003e-01
-6.102409e-01
-6.741467e-01
-7.401799e-01
-8.081994e-01
-8.780600e-01
-9.496090e-01
-1.022682e+00
-1.097097e+00
-1.172642e+00
-1.249063e+00
-1.326046e+00
-1.403191e+00
-1.479993e+00
-1.555832e+00
-1.629980e+00
-1.701627e+00
-1.769925e+00
0.000000e+00
-7.305428e-03
-2.055833e-02
-3.908392e-02
-6.227996e-02
-8.969410e-02
-1.210140e-01
-1.560185e-01
-1.945352e-01
-2.364134e-01
-2.815123e-01
-3.296955e-01
-3.808282e-01
-4.347761e-01
-4.914049e-01
-5.505799e-01
-6.121651e-01
-6.760227e-01
-7.420111e-01
-8.099838e-01
-8.797860e-01
-9.512511e-01
-1.024195e+00
-1.098411e+00
-1.173658e+00
-1.249653e+00
-1.326057e+00
-1.402470e+00
-1.478423e+00
-1.553385e+00
-1.626779e+00
-1.698005e+00
-1.766444e+00
0.000000e+00
-8.260714e-03
-2.254226e-02
-4.190655e-02
-6.563785e-02
-9.331369e-02
-1.247062e-01
-1.596729e-01
-1.980921e-01
-2.398441e-01
-2.848053e-01
-3.328488e-01
-3.838446e-01
-4.376609e-01
-4.941645e-01
-5.532210e-01
-6.146937e-01
-6.784431e-01
-7.443248e-01
-8.121868e-01
-8.818667e-01
-9.531866e-01
-1.025947e+00
-1.099923e+00
-1.174852e+00
-1.250433e+00
-1.326316e+00
-1.402106e+00
-1.477373e+00
-1.551667e+00
-1.624545e+00
-1.695601e+00
-1.764453e+00
0.000000e+00
-9.764013e-03
-2.556866e-02
-4.601061e-02
-7.029604e-02
-9.815600e-02
-1.295394e-01
-1.643972e-01
-2.026594e-01
-2.442328e-01
-2.890075e-01
-3.368634e-01
-3.876739e-01
-4.413085e-01
-4.976347e-01
-5.565176e-01
-6.178199e-01
-6.814005e-01
-7.471126e-01
-8.148003e-01
-8.842953e-01
-9.554118e-01
-1.027940e+00
-1.101643e+00
-1.176245e+00
-1.251434e+00
-1.326856e+00
-1.402126e+00
-1.476844e+00
-1.550625e+00
-1.623141e+00
-1.694165e+00
-1.763584e+00
0.000000e+00
-1.219718e-02
-3.019867e-02
-5.179212e-02
-7.639399e-02
-1.042635e-01
-1.355147e-01
-1.701807e-01
-2.082248e-01
-2.495693e-01
-2.941118e-01
-3.417352e-01
-3.923142e-01
-4.457191e-01
-5.018168e-01
-5.604721e-01
-6.215469e-01
-6.848987e-01
-7.503789e-01
-8.178289e-01
-8.870770e-01
-9.579325e-01
-1.030180e+00
-1.103576e+00
-1.177840e+00
-1.252655e+00
-1.327668e+00
-1.402504e+00
-1.476785e+00
-1.550169e+00
-1.622413e+00
-1.693444e+00
-1.763433e+00
0.000000e+00
-1.661095e-02
-3.746494e-02
-5.935727e-02
-8.391672e-02
-1.115831e-01
-1.425907e-01
-1.769956e-01
-2.147720e-01
-2.558456e-01
-3.001156e-01
-3.474655e-01
-3.977703e-01
-4.508997e-01
-5.067205e-01
-5.650968e-01
-6.258893e-01
-6.889547e-01
-7.541426e-01
-8.212929e-01
-8.902317e-01
-9.607663e-01
-1.032680e+00
-1.105727e+00
-1.179627e+00
-1.254065e+00
-1.328695e+00
-1.403152e+00
-1.477074e+00
-1.550147e+00
-1.622176e+00
-1.693183e+00
-1.763562e+00
0.000000e+00
-2.673692e-02
-4.666035e-02
-6.840694e-02
-9.262987e-02
-1.200002e-01
-1.507107e-01
-1.848184e-01
-2.222941e-01
-2.630634e-01
-3.070254e-01
-3.540639e-01
-4.040541e-01
-4.568655e-01
-5.123644e-01
-5.704140e-01
-6.308742e-01
-6.936000e-01
-7.584396e-01
-8.252312e-01
-8.937992e-01
-9.639499e-01
-1.035466e+00