TITLE = "Solution"
VARIABLES = x, y, u, v, psiu, psiv, t, stress
ZONE T="structure" N=561 E=512 F=FEBLOCK ET=QUADRILATERAL VARLOCATION=([7,8]=cellcentered)
0.000000e+00
6.250000e+00
1.250000e+01
1.875000e+01
2.500000e+01
3.125000e+01
3.750000e+01
4.375000e+01
5.000000e+01
5.625000e+01
6.250000e+01
6.875000e+01
7.500000e+01
8.125000e+01
8.750000e+01
9.375000e+01
1.000000e+02
1.062500e+02
1.125000e+02
1.187500e+02
1.250000e+02
1.312500e+02
1.375000e+02
1.437500e+02
1.500000e+02
1.562500e+02
1.625000e+02
1.687500e+02
1.750000e+02
1.812500e+02
1.875000e+02
1.937500e+02
2.000000e+02
0.000000e+00
6.250000e+00
1.250000e+01
1.875000e+01
2.500000e+01
3.125000e+01
3.750000e+01
4.375000e+01
5.000000e+01
5.625000e+01
6.250000e+01
6.875000e+01
7.500000e+01
8.125000e+01
8.750000e+01
9.375000e+01
1.000000e+02
1.062500e+02
1.125000e+02
1.187500e+02
1.250000e+02
1.312500e+02
1.375000e+02
1.437500e+02
1.500000e+02
1.562500e+02
1.625000e+02
1.687500e+02
1.750000e+02
1.812500e+02
1.875000e+02
1.937500e+02
2.000000e+02
0.000000e+00
6.250000e+00
1.250000e+01
1.875000e+01
2.500000e+01
3.125000e+01
3.750000e+01
4.375000e+01
5.000000e+01
5.625000e+01
6.250000e+01
6.875000e+01
7.500000e+01
8.125000e+01
8.750000e+01
9.375000e+01
1.000000e+02
1.062500e+02
1.125000e+02
1.187500e+02
1.250000e+02
1.312500e+02
1.375000e+02
1.437500e+02
1.500000e+02
1.562500e+02
1.625000e+02
1.687500e+02
1.750000e+02
1.812500e+02
1.875000e+02
1.937500e+02
2.000000e+02
0.000000e+00
6.250000e+00
1.250000e+01
1.875000e+01
2.500000e+01
3.125000e+01
3.750000e+01
4.375000e+01
5.000000e+01
5.625000e+01
6.250000e+01
6.875000e+01
7.500000e+01
8.125000e+01
8.750000e+01
9.375000e+01
1.000000e+02
1.062500e+02
1.125000e+02
1.187500e+02
1.250000e+02
1.312500e+02
1.375000e+02
1.437500e+02
1.500000e+02
1.562500e+02
1.625000e+02
1.687500e+02
1.750000e+02
1.812500e+02
1.875000e+02
1.937500e+02
2.000000e+02
0.000000e+00
6.250000e+00
1.250000e+01
1.875000e+01
2.500000e+01
3.125000e+01
3.750000e+01
4.375000e+01
5.000000e+01
5.625000e+01
6.250000e+01
6.875000e+01
7.500000e+01
8.125000e+01
8.750000e+01
9.375000e+01
1.000000e+02
1.062500e+02
1.125000e+02
1.187500e+02
1.250000e+02
1.312500e+02
1.375000e+02
1.437500e+02
1.500000e+02
1.562500e+02
1.625000e+02
1.687500e+02
1.750000e+02
1.812500e+02
1.875000e+02
1.937500e+02
2.000000e+02
0.000000e+00
6.250000e+00
1.250000e+01
1.875000e+01
2.500000e+01
3.125000e+01
3.750000e+01
4.375000e+01
5.000000e+01
5.625000e+01
6.250000e+01
6.875000e+01
7.500000e+01
8.125000e+01
8.750000e+01
9.375000e+01
1.000000e+02
1.062500e+02
1.125000e+02
1.187500e+02
1.250000e+02
1.312500e+02
1.375000e+02
1.437500e+02
1.500000e+02
1.562500e+02
1.625000e+02
1.687500e+02
1.750000e+02
1.812500e+02
1.875000e+02
1.937500e+02
2.000000e+02
0.000000e+00
6.250000e+00
1.250000e+01
1.875000e+01
2.500000e+01
3.125000e+01
3.750000e+01
4.375000e+01
5.000000e+01
5.625000e+01
6.250000e+01
6.875000e+01
7.500000e+01
8.125000e+01
8.750000e+01
9.375000e+01
1.000000e+02
1.062500e+02
1.125000e+02
1.187500e+02
1.250000e+02
1.312500e+02
1.375000e+02
1.437500e+02
1.500000e+02
1.562500e+02
1.625000e+02
1.687500e+02
1.750000e+02
1.812500e+02
1.875000e+02
1.937500e+02
2.000000e+02
0.000000e+00
6.250000e+00
1.250000e+01
1.875000e+01
2.500000e+01
3.125000e+01
3.750000e+01
4.375000e+01
5.000000e+01
5.625000e+01
6.250000e+01
6.875000e+01
7.500000e+01
8.125000e+01
8.750000e+01
9.375000e+01
1.000000e+02
1.062500e+02
1.125000e+02
1.187500e+02
1.250000e+02
1.312500e+02
1.375000e+02
1.437500e+02
1.500000e+02
1.562500e+02
1.625000e+02
1.687500e+02
1.750000e+02
1.812500e+02
1.875000e+02
1.937500e+02
2.000000e+02
0.000000e+00
6.250000e+00
1.250000e+01
1.875000e+01
2.500000e+01
3.125000e+01
3.750000e+01
4.375000e+01
5.000000e+01
5.625000e+01
6.250000e+01
6.875000e+01
7.500000e+01
8.125000e+01
8.750000e+01
9.375000e+01
1.000000e+02
1.062500e+02
1.125000e+02
1.187500e+02
1.250000e+02
1.312500e+02
1.375000e+02
1.437500e+02
1.500000e+02
1.562500e+02
1.625000e+02
1.687500e+02
1.750000e+02
1.812500e+02
1.875000e+02
1.937500e+02
2.000000e+02
0.000000e+00
6.250000e+00
1.250000e+01
1.875000e+01
2.500000e+01
3.125000e+01
3.750000e+01
4.375000e+01
5.000000e+01
5.625000e+01
6.250000e+01
6.875000e+01
7.500000e+01
8.125000e+01
8.750000e+01
9.375000e+01
1.000000e+02
1.062500e+02
1.125000e+02
1.187500e+02
1.250000e+02
1.312500e+02
1.375000e+02
1.437500e+02
1.500000e+02
1.562500e+02
1.625000e+02
1.687500e+02
1.750000e+02
1.812500e+02
1.875000e+02
1.937500e+02
2.000000e+02
0.000000e+00
6.250000e+00
1.250000e+01
1.875000e+01
2.500000e+01
3.125000e+01
3.750000e+01
4.375000e+01
5.000000e+01
5.625000e+01
6.250000e+01
6.875000e+01
7.500000e+01
8.125000e+01
8.750000e+01
9.375000e+01
1.000000e+02
1.062500e+02
1.125000e+02
1.187500e+02
1.250000e+02
1.312500e+02
1.375000e+02
1.437500e+02
1.500000e+02
1.562500e+02
1.625000e+02
1.687500e+02
1.750000e+02
1.812500e+02
1.875000e+02
1.937500e+02
2.000000e+02
0.000000e+00
6.250000e+00
1.250000e+01
1.875000e+01
2.500000e+01
3.125000e+01
3.750000e+01
4.375000e+01
5.000000e+01
5.625000e+01
6.250000e+01
6.875000e+01
7.500000e+01
8.125000e+01
8.750000e+01
9.375000e+01
1.000000e+02
1.062500e+02
1.125000e+02
1.187500e+02
1.250000e+02
1.312500e+02
1.375000e+02
1.437500e+02
1.500000e+02
1.562500e+02
1.625000e+02
1.687500e+02
1.750000e+02
1.812500e+02
1.875000e+02
1.937500e+02
2.000000e+02
0.000000e+00
6.250000e+00
1.250000e+01
1.875000e+01
2.500000e+01
3.125000e+01
3.750000e+01
4.375000e+01
5.000000e+01
5.625000e+01
6.250000e+01
6.875000e+01
7.500000e+01
8.125000e+01
8.750000e+01
9.375000e+01
1.000000e+02
1.062500e+02
1.125000e+02
1.187500e+02
1.250000e+02
1.312500e+02
1.375000e+02
1.437500e+02
1.500000e+02
1.562500e+02
1.625000e+02
1.687500e+02
1.750000e+02
1.812500e+02
1.875000e+02
1.937500e+02
2.000000e+02
0.000000e+00
6.250000e+00
1.250000e+01
1.875000e+01
2.500000e+01
3.125000e+01
3.750000e+01
4.375000e+01
5.000000e+01
5.625000e+01
6.250000e+01
6.875000e+01
7.500000e+01
8.125000e+01
8.750000e+01
9.375000e+01
1.000000e+02
1.062500e+02
1.125000e+02
1.187500e+02
1.250000e+02
1.312500e+02
1.375000e+02
1.437500e+02
1.500000e+02
1.562500e+02
1.625000e+02
1.687500e+02
1.750000e+02
1.812500e+02
1.875000e+02
1.937500e+02
2.000000e+02
0.000000e+00
6.250000e+00
1.250000e+01
1.875000e+01
2.500000e+01
3.125000e+01
3.750000e+01
4.375000e+01
5.000000e+01
5.625000e+01
6.250000e+01
6.875000e+01
7.500000e+01
8.125000e+01
8.750000e+01
9.375000e+01
1.000000e+02
1.062500e+02
1.125000e+02
1.187500e+02
1.250000e+02
1.312500e+02
1.375000e+02
1.437500e+02
1.500000e+02
1.562500e+02
1.625000e+02
1.687500e+02
1.750000e+02
1.812500e+02
1.875000e+02
1.937500e+02
2.000000e+02
0.000000e+00
6.250000e+00
1.250000e+01
1.875000e+01
2.500000e+01
3.125000e+01
3.750000e+01
4.375000e+01
5.000000e+01
5.625000e+01
6.250000e+01
6.875000e+01
7.500000e+01
8.125000e+01
8.750000e+01
9.375000e+01
1.000000e+02
1.062500e+02
1.125000e+02
1.187500e+02
1.250000e+02
1.312500e+02
1.375000e+02
1.437500e+02
1.500000e+02
1.562500e+02
1.625000e+02
1.687500e+02
1.750000e+02
1.812500e+02
1.875000e+02
1.937500e+02
2.000000e+02
0.000000e+00
6.250000e+00
1.250000e+01
1.875000e+01
2.500000e+01
3.125000e+01
3.750000e+01
4.375000e+01
5.000000e+01
5.625000e+01
6.250000e+01
6.875000e+01
7.500000e+01
8.125000e+01
8.750000e+01
9.375000e+01
1.000000e+02
1.062500e+02
1.125000e+02
1.187500e+02
1.250000e+02
1.312500e+02
1.375000e+02
1.437500e+02
1.500000e+02
1.562500e+02
1.625000e+02
1.687500e+02
1.750000e+02
1.812500e+02
1.875000e+02
1.937500e+02
2.000000e+02
0.000000e+00
0.000000e+00
0.000000e+00
0.000000e+00
0.000000e+00
0.000000e+00
0.000000e+00
0.000000e+00
0.000000e+00
0.000000e+00
0.000000e+00
0.000000e+00
0.000000e+00
0.000000e+00
0.000000e+00
0.000000e+00
0.000000e+00
0.000000e+00
0.000000e+00
0.000000e+00
0.000000e+00
0.000000e+00
0.000000e+00
0.000000e+00
0.000000e+00
0.000000e+00
0.000000e+00
0.000000e+00
0.000000e+00
0.000000e+00
0.000000e+00
0.000000e+00
0.000000e+00
6.250000e+00
6.250000e+00
6.250000e+00
6.250000e+00
6.250000e+00
6.250000e+00
6.250000e+00
6.250000e+00
6.250000e+00
6.250000e+00
6.250000e+00
6.250000e+00
6.250000e+00
6.250000e+00
6.250000e+00
6.250000e+00
6.250000e+00
6.250000e+00
6.250000e+00
6.250000e+00
6.250000e+00
6.250000e+00
6.250000e+00
6.250000e+00
6.250000e+00
6.250000e+00
6.250000e+00
6.250000e+00
6.250000e+00
6.250000e+00
6.250000e+00
6.250000e+00
6.250000e+00
1.250000e+01
1.250000e+01
1.250000e+01
1.250000e+01
1.250000e+01
1.250000e+01
1.250000e+01
1.250000e+01
1.250000e+01
1.250000e+01
1.250000e+01
1.250000e+01
1.250000e+01
1.250000e+01
1.250000e+01
1.250000e+01
1.250000e+01
1.250000e+01
1.250000e+01
1.250000e+01
1.250000e+01
1.250000e+01
1.250000e+01
1.250000e+01
1.250000e+01
1.250000e+01
1.250000e+01
1.250000e+01
1.250000e+01
1.250000e+01
1.250000e+01
1.250000e+01
1.250000e+01
1.875000e+01
1.875000e+01
1.875000e+01
1.875000e+01
1.875000e+01
1.875000e+01
1.875000e+01
1.875000e+01
1.875000e+01
1.875000e+01
1.875000e+01
1.875000e+01
1.875000e+01
1.875000e+01
1.875000e+01
1.875000e+01
1.875000e+01
1.875000e+01
1.875000e+01
1.875000e+01
1.875000e+01
1.875000e+01
1.875000e+01
1.875000e+01
1.875000e+01
1.875000e+01
1.875000e+01
1.875000e+01
1.875000e+01
1.875000e+01
1.875000e+01
1.875000e+01
1.875000e+01
2.500000e+01
2.500000e+01
2.500000e+01
2.500000e+01
2.500000e+01
2.500000e+01
2.500000e+01
2.500000e+01
2.500000e+01
2.500000e+01
2.500000e+01
2.500000e+01
2.500000e+01
2.500000e+01
2.500000e+01
2.500000e+01
2.500000e+01
2.500000e+01
2.500000e+01
2.500000e+01
2.500000e+01
2.500000e+01
2.500000e+01
2.500000e+01
2.500000e+01
2.500000e+01
2.500000e+01
2.500000e+01
2.500000e+01
2.500000e+01
2.500000e+01
2.500000e+01
2.500000e+01
3.125000e+01
3.125000e+01
3.125000e+01
3.125000e+01
3.125000e+01
3.125000e+01
3.125000e+01
3.125000e+01
3.125000e+01
3.125000e+01
3.125000e+01
3.125000e+01
3.125000e+01
3.125000e+01
3.125000e+01
3.125000e+01
3.125000e+01
3.125000e+01
3.125000e+01
3.125000e+01
3.125000e+01
3.125000e+01
3.125000e+01
3.125000e+01
3.125000e+01
3.125000e+01
3.125000e+01
3.125000e+01
3.125000e+01
3.125000e+01
3.125000e+01
3.125000e+01
3.125000e+01
3.750000e+01
3.750000e+01
3.750000e+01
3.750000e+01
3.750000e+01
3.750000e+01
3.750000e+01
3.750000e+01
3.750000e+01
3.750000e+01
3.750000e+01
3.750000e+01
3.750000e+01
3.750000e+01
3.750000e+01
3.750000e+01
3.750000e+01
3.750000e+01
3.750000e+01
3.750000e+01
3.750000e+01
3.750000e+01
3.750000e+01
3.750000e+01
3.750000e+01
3.750000e+01
3.750000e+01
3.750000e+01
3.750000e+01
3.750000e+01
3.750000e+01
3.750000e+01
3.750000e+01
4.375000e+01
4.375000e+01
4.375000e+01
4.375000e+01
4.375000e+01
4.375000e+01
4.375000e+01
4.375000e+01
4.375000e+01
4.375000e+01
4.375000e+01
4.375000e+01
4.375000e+01
4.375000e+01
4.375000e+01
4.375000e+01
4.375000e+01
4.375000e+01
4.375000e+01
4.375000e+01
4.375000e+01
4.375000e+01
4.375000e+01
4.375000e+01
4.375000e+01
4.375000e+01
4.375000e+01
4.375000e+01
4.375000e+01
4.375000e+01
4.375000e+01
4.375000e+01
4.375000e+01
5.000000e+01
5.000000e+01
5.000000e+01
5.000000e+01
5.000000e+01
5.000000e+01
5.000000e+01
5.000000e+01
5.000000e+01
5.000000e+01
5.000000e+01
5.000000e+01
5.000000e+01
5.000000e+01
5.000000e+01
5.000000e+01
5.000000e+01
5.000000e+01
5.000000e+01
5.000000e+01
5.000000e+01
5.000000e+01
5.000000e+01
5.000000e+01
5.000000e+01
5.000000e+01
5.000000e+01
5.000000e+01
5.000000e+01
5.000000e+01
5.000000e+01
5.000000e+01
5.000000e+01
5.625000e+01
5.625000e+01
5.625000e+01
5.625000e+01
5.625000e+01
5.625000e+01
5.625000e+01
5.625000e+01
5.625000e+01
5.625000e+01
5.625000e+01
5.625000e+01
5.625000e+01
5.625000e+01
5.625000e+01
5.625000e+01
5.625000e+01
5.625000e+01
5.625000e+01
5.625000e+01
5.625000e+01
5.625000e+01
5.625000e+01
5.625000e+01
5.625000e+01
5.625000e+01
5.625000e+01
5.625000e+01
5.625000e+01
5.625000e+01
5.625000e+01
5.625000e+01
5.625000e+01
6.250000e+01
6.250000e+01
6.250000e+01
6.250000e+01
6.250000e+01
6.250000e+01
6.250000e+01
6.250000e+01
6.250000e+01
6.250000e+01
6.250000e+01
6.250000e+01
6.250000e+01
6.250000e+01
6.250000e+01
6.250000e+01
6.250000e+01
6.250000e+01
6.250000e+01
6.250000e+01
6.250000e+01
6.250000e+01
6.250000e+01
6.250000e+01
6.250000e+01
6.250000e+01
6.250000e+01
6.250000e+01
6.250000e+01
6.250000e+01
6.250000e+01
6.250000e+01
6.250000e+01
6.875000e+01
6.875000e+01
6.875000e+01
6.875000e+01
6.875000e+01
6.875000e+01
6.875000e+01
6.875000e+01
6.875000e+01
6.875000e+01
6.875000e+01
6.875000e+01
6.875000e+01
6.875000e+01
6.875000e+01
6.875000e+01
6.875000e+01
6.875000e+01
6.875000e+01
6.875000e+01
6.875000e+01
6.875000e+01
6.875000e+01
6.875000e+01
6.875000e+01
6.875000e+01
6.875000e+01
6.875000e+01
6.875000e+01
6.875000e+01
6.875000e+01
6.875000e+01
6.875000e+01
7.500000e+01
7.500000e+01
7.500000e+01
7.500000e+01
7.500000e+01
7.500000e+01
7.500000e+01
7.500000e+01
7.500000e+01
7.500000e+01
7.500000e+01
7.500000e+01
7.500000e+01
7.500000e+01
7.500000e+01
7.500000e+01
7.500000e+01
7.500000e+01
7.500000e+01
7.500000e+01
7.500000e+01
7.500000e+01
7.500000e+01
7.500000e+01
7.500000e+01
7.500000e+01
7.500000e+01
7.500000e+01
7.500000e+01
7.500000e+01
7.500000e+01
7.500000e+01
7.500000e+01
8.125000e+01
8.125000e+01
8.125000e+01
8.125000e+01
8.125000e+01
8.125000e+01
8.125000e+01
8.125000e+01
8.125000e+01
8.125000e+01
8.125000e+01
8.125000e+01
8.125000e+01
8.125000e+01
8.125000e+01
8.125000e+01
8.125000e+01
8.125000e+01
8.125000e+01
8.125000e+01
8.125000e+01
8.125000e+01
8.125000e+01
8.125000e+01
8.125000e+01
8.125000e+01
8.125000e+01
8.125000e+01
8.125000e+01
8.125000e+01
8.125000e+01
8.125000e+01
8.125000e+01
8.750000e+01
8.750000e+01
8.750000e+01
8.750000e+01
8.750000e+01
8.750000e+01
8.750000e+01
8.750000e+01
8.750000e+01
8.750000e+01
8.750000e+01
8.750000e+01
8.750000e+01
8.750000e+01
8.750000e+01
8.750000e+01
8.750000e+01
8.750000e+01
8.750000e+01
8.750000e+01
8.750000e+01
8.750000e+01
8.750000e+01
8.750000e+01
8.750000e+01
8.750000e+01
8.750000e+01
8.750000e+01
8.750000e+01
8.750000e+01
8.750000e+01
8.750000e+01
8.750000e+01
9.375000e+01
9.375000e+01
9.375000e+01
9.375000e+01
9.375000e+01
9.375000e+01
9.375000e+01
9.375000e+01
9.375000e+01
9.375000e+01
9.375000e+01
9.375000e+01
9.375000e+01
9.375000e+01
9.375000e+01
9.375000e+01
9.375000e+01
9.375000e+01
9.375000e+01
9.375000e+01
9.375000e+01
9.375000e+01
9.375000e+01
9.375000e+01
9.375000e+01
9.375000e+01
9.375000e+01
9.375000e+01
9.375000e+01
9.375000e+01
9.375000e+01
9.375000e+01
9.375000e+01
1.000000e+02
1.000000e+02
1.000000e+02
1.000000e+02
1.000000e+02
1.000000e+02
1.000000e+02
1.000000e+02
1.000000e+02
1.000000e+02
1.000000e+02
1.000000e+02
1.000000e+02
1.000000e+02
1.000000e+02
1.000000e+02
1.000000e+02
1.000000e+02
1.000000e+02
1.000000e+02
1.000000e+02
1.000000e+02
1.000000e+02
1.000000e+02
1.000000e+02
1.000000e+02
1.000000e+02
1.000000e+02
1.000000e+02
1.000000e+02
1.000000e+02
1.000000e+02
1.000000e+02
0.000000e+00
-5.053009e-02
-9.168012e-02
-1.297998e-01
-1.663840e-01
-2.017116e-01
-2.358536e-01
-2.688068e-01
-3.005507e-01
-3.310619e-01
-3.603215e-01
-3.883163e-01
-4.150394e-01
-4.404902e-01
-4.646748e-01
-4.876058e-01
-5.093038e-01
-5.297986e-01
-5.491314e-01
-5.673579e-01
-5.845522e-01
-6.008123e-01
-6.162676e-01
-6.310901e-01
-6.455100e-01
-6.598401e-01
-6.745151e-01
-6.901547e-01
-7.076679e-01
-7.283926e-01
-7.540643e-01
-7.846580e-01
-8.033289e-01
0.000000e+00
-3.387906e-02
-7.048901e-02
-1.050074e-01
-1.378158e-01
-1.692266e-01
-1.994057e-01
-2.284259e-01
-2.563161e-01
-2.830855e-01
-3.087361e-01
-3.332677e-01
-3.566817e-01
-3.789817e-01
-4.001752e-01
-4.202739e-01
-4.392950e-01
-4.572620e-01
-4.742059e-01
-4.901673e-01
-5.051977e-01
-5.193621e-01
-5.327412e-01
-5.454337e-01
-5.575576e-01
-5.692486e-01
-5.806500e-01
-5.918796e-01
-6.029368e-01
-6.134617e-01
-6.222318e-01
-6.273593e-01
-6.344975e-01
0.000000e+00
-2.687295e-02
-5.532442e-02
-8.429255e-02
-1.124406e-01
-1.395514e-01
-1.656076e-01
-1.906338e-01
-2.146522e-01
-2.376779e-01
-2.597208e-01
-2.807876e-01
-3.008842e-01
-3.200166e-01
-3.381918e-01
-3.554186e-01
-3.717083e-01
-3.870749e-01
-4.015357e-01
-4.151112e-01
-4.278252e-01
-4.397035e-01
-4.507713e-01
-4.610483e-01
-4.705385e-01
-4.792116e-01
-4.869682e-01
-4.935801e-01
-4.986001e-01
-5.013032e-01
-5.010662e-01
-4.995484e-01
-5.078839e-01
0.000000e+00
-2.132130e-02
-4.382013e-02
-6.693488e-02
-8.999547e-02
-1.124975e-01
-1.342482e-01
-1.551786e-01
-1.752698e-01
-1.945212e-01
-2.129375e-01
-2.305251e-01
-2.472898e-01
-2.632369e-01
-2.783711e-01
-2.926966e-01
-3.062175e-01
-3.189372e-01
-3.308582e-01
-3.419813e-01
-3.523036e-01
-3.618156e-01
-3.704964e-01
-3.783054e-01
-3.851706e-01
-3.909707e-01
-3.955138e-01
-3.985224e-01
-3.996712e-01
-3.988184e-01
-3.967473e-01
-3.966236e-01
-4.045653e-01
0.000000e+00
-1.654830e-02
-3.388529e-02
-5.177610e-02
-6.981226e-02
-8.762721e-02
-1.049752e-01
-1.217316e-01
-1.378401e-01
-1.532787e-01
-1.680418e-01
-1.821302e-01
-1.955465e-01
-2.082929e-01
-2.203704e-01
-2.317778e-01
-2.425116e-01
-2.525653e-01
-2.619285e-01
-2.705855e-01
-2.785131e-01
-2.856773e-01
-2.920293e-01
-2.974991e-01
-3.019902e-01
-3.053754e-01
-3.075056e-01
-3.082529e-01
-3.076398e-01
-3.061398e-01
-3.051666e-01
-3.074139e-01
-3.141886e-01
0.000000e+00
-1.216204e-02
-2.484516e-02
-3.793574e-02
-5.120761e-02
-6.441302e-02
-7.735529e-02
-8.990658e-02
-1.019967e-01
-1.135916e-01
-1.246768e-01
-1.352472e-01
-1.453011e-01
-1.548367e-01
-1.638503e-01
-1.723356e-01
-1.802824e-01
-1.876762e-01
-1.944971e-01
-2.007183e-01
-2.063048e-01
-2.112113e-01
-2.153806e-01
-2.187425e-01
-2.212174e-01
-2.227276e-01
-2.232286e-01
-2.227790e-01
-2.216708e-01
-2.206165e-01
-2.208732e-01
-2.237381e-01
-2.293436e-01
0.000000e+00
-8.004087e-03
-1.632477e-02
-2.490942e-02
-3.363560e-02
-4.235644e-02
-5.094043e-02
-5.929169e-02
-6.735022e-02
-7.508294e-02
-8.247310e-02
-8.951231e-02
-9.619515e-02
-1.025161e-01
-1.084675e-01
-1.140384e-01
-1.192139e-01
-1.239740e-01
-1.282933e-01
-1.321398e-01
-1.354750e-01
-1.382536e-01
-1.404252e-01
-1.419384e-01
-1.427515e-01
-1.428524e-01
-1.422964e-01
-1.412677e-01
-1.401577e-01
-1.396196e-01
-1.404591e-01
-1.432484e-01
-1.477733e-01
0.000000e+00
-3.975628e-03
-8.101558e-03
-1.235658e-02
-1.668697e-02
-2.102430e-02
-2.530362e-02
-2.947409e-02
-3.350136e-02
-3.736445e-02
-4.105093e-02
-4.455258e-02
-4.786223e-02
-5.097167e-02
-5.387031e-02
-5.654422e-02
-5.897548e-02
-6.114162e-02
-6.301543e-02
-6.456499e-02
-6.575448e-02
-6.654624e-02
-6.690491e-02
-6.680515e-02
-6.624501e-02
-6.526722e-02
-6.399012e-02
-6.264448e-02
-6.159987e-02
-6.133819e-02
-6.232317e-02
-6.475643e-02
-6.834683e-02
0.000000e+00
-6.414346e-06
-1.390812e-05
-2.206619e-05
-3.045944e-05
-3.850927e-05
-4.534371e-05
-4.963771e-05
-4.942641e-05
-4.188053e-05
-2.303506e-05
1.253331e-05
7.207962e-05
1.651067e-04
3.038039e-04
5.034703e-04
7.828577e-04
1.164326e-03
1.673642e-03
2.339175e-03
3.190090e-03
4.253007e-03
5.546366e-03
7.071569e-03
8.800044e-03
1.065608e-02
1.249756e-02
1.410193e-02
1.517291e-02
1.539010e-02
1.451560e-02
1.253512e-02
9.761364e-03
0.000000e+00
3.963547e-03
8.075309e-03
1.231485e-02
1.662923e-02
2.095109e-02
2.521710e-02
2.937888e-02
3.340574e-02
3.728201e-02
4.100269e-02
4.456972e-02
4.798957e-02
5.127195e-02
5.442926e-02
5.747649e-02
6.043124e-02
6.331357e-02
6.614547e-02
6.894957e-02
7.174681e-02
7.455260e-02
7.737093e-02
8.018617e-02
8.295255e-02
8.558277e-02
8.793915e-02
8.983439e-02
9.105214e-02
9.139690e-02
9.077251e-02
8.926804e-02
8.720937e-02
0.000000e+00
7.994218e-03
1.630318e-02
2.487484e-02
3.358739e-02
4.229475e-02
5.086666e-02
5.920922e-02
6.726533e-02
7.500615e-02
8.242094e-02
8.950954e-02
9.627769e-02
1.027345e-01
1.088913e-01
1.147612e-01
1.203589e-01
1.257004e-01
1.308023e-01
1.356802e-01
1.403470e-01
1.448085e-01
1.490586e-01
1.530729e-01
1.568008e-01
1.601597e-01
1.630327e-01
1.652767e-01
1.667454e-01
1.673327e-01
1.670307e-01
1.659897e-01
1.645529e-01
0.000000e+00
1.215575e-02
2.483113e-02
3.791290e-02
5.117518e-02
6.437068e-02
7.730349e-02
8.984696e-02
1.019327e-01
1.135293e-01
1.246262e-01
1.352236e-01
1.453269e-01
1.549440e-01
1.640839e-01
1.727564e-01
1.809717e-01
1.887401e-01
1.960716e-01
2.029748e-01
2.094544e-01
2.155089e-01
2.211267e-01
2.262812e-01
2.309268e-01
2.349960e-01
2.384012e-01
2.410440e-01
2.428363e-01
2.437343e-01
2.437848e-01
2.431741e-01
2.422661e-01
0.000000e+00
1.654674e-02
3.388138e-02
5.176910e-02
6.980144e-02
8.761196e-02
1.049551e-01
1.217067e-01
1.378107e-01
1.532463e-01
1.680089e-01
1.821009e-01
1.955276e-01
2.082945e-01
2.204070e-01
2.318700e-01
2.426878e-01
2.528641e-01
2.624012e-01
2.712996e-01
2.795567e-01
2.871647e-01
2.941092e-01
3.003660e-01
3.059001e-01
3.106649e-01
3.146060e-01
3.176690e-01
3.198156e-01
3.210489e-01
3.214489e-01
3.212196e-01
3.207413e-01
0.000000e+00
2.132526e-02
4.382818e-02
6.694686e-02
9.001103e-02
1.125162e-01
1.342694e-01
1.552012e-01
1.752922e-01
1.945405e-01
2.129497e-01
2.305239e-01
2.472665e-01
2.631793e-01
2.782626e-01
2.925153e-01
3.059345e-01
3.185160e-01
3.302534e-01
3.411385e-01
3.511603e-01
3.603049e-01
3.685548e-01
3.758892e-01
3.822848e-01
3.877176e-01
3.921672e-01
3.956235e-01
3.980972e-01
3.996345e-01
4.003416e-01
4.004259e-01
4.002672e-01
0.000000e+00
2.688262e-02
5.534506e-02
8.432488e-02
1.124853e-01
1.396089e-01
1.656779e-01
1.907163e-01
2.147445e-01
2.377752e-01
2.598148e-01
2.808648e-01
3.009239e-01
3.199883e-01
3.380521e-01
3.551070e-01
3.711425e-01
3.861456e-01
4.001004e-01
4.129882e-01
4.247880e-01
4.354769e-01
4.450314e-01
4.534303e-01
4.606577e-01
4.667080e-01
4.715921e-01
4.753445e-01
4.780300e-01
4.797501e-01
4.806504e-01
4.809436e-01
4.809786e-01
0.000000e+00
3.389357e-02
7.052073e-02
1.050584e-01
1.378886e-01
1.693237e-01
1.995292e-01
2.285770e-01
2.564942e-01
2.832871e-01
3.089527e-01
3.334840e-01
3.568718e-01
3.791053e-01
4.001719e-01
4.200566e-01
4.387413e-01
4.562040e-01
4.724184e-01
4.873540e-01
5.009763e-01
5.132486e-01
5.241348e-01
5.336035e-01
5.416351e-01
5.482302e-01
5.534198e-01
5.572769e-01
5.599266e-01
5.615502e-01
5.623796e-01
5.626804e-01
5.627540e-01
0.000000e+00
5.054598e-02
9.171720e-02
1.298634e-01
1.664791e-01
2.018435e-01
2.360275e-01
2.690280e-01
3.008231e-01
3.313872e-01
3.606970e-01
3.887319e-01
4.154741e-01
4.409063e-01
4.650109e-01
4.877677e-01
5.091525e-01
5.291356e-01
5.476804e-01
5.647429e-01
5.802719e-01
5.942101e-01
6.064977e-01
6.170784e-01
6.259086e-01
6.329703e-01
6.382887e-01
6.419526e-01
6.441364e-01
6.451204e-01
6.452992e-01
6.451511e-01
6.450677e-01
0.000000e+00
-3.122663e-02
-5.449722e-02
-7.989105e-02
-1.081686e-01
-1.401109e-01
-1.759400e-01
-2.157181e-01
-2.594056e-01
-3.069088e-01
-3.581019e-01
-4.128400e-01
-4.709669e-01
-5.323200e-01
-5.967333e-01
-6.640398e-01
-7.340733e-01
-8.066707e-01
-8.816743e-01
-9.589355e-01
-1.038320e+00
-1.119714e+00
-1.203038e+00
-1.288259e+00
-1.375420e+00
-1.464681e+00
-1.556398e+00
-1.651264e+00
-1.750602e+00
-1.857035e+00
-1.976220e+00
-2.121507e+00
-2.322224e+00
0.000000e+00
-1.940616e-02
-4.376434e-02
-6.932947e-02
-9.800115e-02
-1.302905e-01
-1.664677e-01
-2.065939e-01
-2.506330e-01
-2.984913e-01
-3.500423e-01
-4.051397e-01
-4.636263e-01
-5.253378e-01
-5.901070e-01
-6.577649e-01
-7.281435e-01
-8.010771e-01
-8.764051e-01
-9.539751e-01
-1.033648e+00
-1.115305e+00
-1.198858e+00
-1.284265e+00
-1.371557e+00
-1.460881e+00
-1.552573e+00
-1.647305e+00
-1.746372e+00
-1.852353e+00
-1.970618e+00
-2.112670e+00
-2.300192e+00
0.000000e+00
-1.425495e-02
-3.528260e-02
-6.049899e-02
-8.922075e-02
-1.217480e-01
-1.582108e-01
-1.986428e-01
-2.429956e-01
-2.911709e-01
-3.430402e-01
-3.984560e-01
-4.572604e-01
-5.192886e-01
-5.843725e-01
-6.523428e-01
-7.230306e-01
-7.962691e-01
-8.718966e-01
-9.497597e-01
-1.029718e+00
-1.111652e+00
-1.195472e+00
-1.281139e+00
-1.368687e+00
-1.458271e+00
-1.550243e+00
-1.645290e+00
-1.744693e+00
-1.850774e+00
-1.967500e+00
-2.099559e+00
-2.246052e+00
0.000000e+00
-1.141476e-02
-2.987725e-02
-5.374897e-02
-8.210162e-02
-1.146188e-01
-1.512375e-01
-1.918960e-01
-2.365069e-01
-2.849540e-01
-3.371003e-01
-3.927951e-01
-4.518787e-01
-5.141863e-01
-5.795499e-01
-6.478006e-01
-7.187699e-01
-7.922920e-01
-8.682058e-01
-9.463592e-01
-1.026614e+00
-1.108852e+00
-1.192991e+00
-1.278995e+00
-1.366909e+00
-1.456895e+00
-1.549300e+00
-1.644759e+00
-1.744318e+00
-1.849510e+00
-1.961797e+00
-2.080224e+00
-2.190468e+00
0.000000e+00
-9.658768e-03
-2.634235e-02
-4.895566e-02
-7.666199e-02
-1.089660e-01
-1.455984e-01
-1.863891e-01
-2.311906e-01
-2.798565e-01
-3.322345e-01
-3.881670e-01
-4.474914e-01
-5.100424e-01
-5.756526e-01
-6.441543e-01
-7.153807e-01
-7.891678e-01
-8.653568e-01
-9.437982e-01
-1.024356e+00
-1.106918e+00
-1.191403e+00
-1.277779e+00
-1.366086e+00
-1.456467e+00
-1.549205e+00
-1.644757e+00
-1.743725e+00
-1.846595e+00
-1.952876e+00
-2.058666e+00
-2.154677e+00
0.000000e+00
-8.541415e-03
-2.402301e-02
-4.565711e-02
-7.273976e-02
-1.047411e-01
-1.412940e-01
-1.821368e-01
-2.270638e-01
-2.758936e-01
-3.284553e-01
-3.845817e-01
-4.441065e-01
-5.068634e-01
-5.726860e-01
-6.414082e-01
-7.128653e-01
-7.868959e-01
-8.633437e-01
-9.420615e-01
-1.022916e+00
-1.105794e+00
-1.190612e+00
-1.277330e+00
-1.365964e+00
-1.456598e+00
-1.549392e+00
-1.644546e+00
-1.742172e+00
-1.841939e+00
-1.942327e+00
-2.039750e+00
-2.128795e+00
0.000000e+00
-7.846993e-03
-2.255661e-02
-4.351299e-02
-7.011216e-02
-1.018378e-01
-1.382820e-01
-1.791300e-01
-2.241311e-01
-2.730745e-01
-3.257715e-01
-3.820461e-01
-4.417281e-01
-5.046505e-01
-5.706478e-01
-6.395558e-01
-7.112121e-01
-7.854574e-01
-8.621374e-01
-9.411055e-01
-1.022227e+00
-1.105385e+00
-1.190486e+00
-1.277464e+00
-1.366291e+00
-1.456967e+00
-1.549501e+00
-1.643839e+00
-1.739710e+00
-1.836334e+00
-1.932038e+00
-2.024063e+00
-2.109029e+00
0.000000e+00
-7.465398e-03
-2.174293e-02
-4.230473e-02
-6.860545e-02
-1.001466e-01
-1.365072e-01
-1.773462e-01
-2.223874e-01
-2.714009e-01
-3.241867e-01
-3.805623e-01
-4.403554e-01
-5.033988e-01
-5.695284e-01
-6.385817e-01
-7.103983e-01
-7.848203e-01
-8.616938e-01
-9.408709e-01
-1.022212e+00
-1.105590e+00
-1.190891e+00
-1.278016e+00
-1.366879e+00
-1.457388e+00
-1.549409e+00
-1.642693e+00
-1.736739e+00
-1.830625e+00
-1.922842e+00
-2.011314e+00
-2.093735e+00
0.000000e+00
-7.342449e-03
-2.148042e-02
-4.191312e-02
-6.811440e-02
-9.959307e-02
-1.359258e-01
-1.767642e-01
-2.218244e-01
-2.708707e-01
-3.236997e-01
-3.801278e-01
-4.399828e-01
-5.030987e-01
-5.693129e-01
-6.384646e-01
-7.103948e-01
-7.849459e-01
-8.619630e-01
-9.412941e-01
-1.022792e+00
-1.106313e+00
-1.191720e+00
-1.278873e+00
-1.367627e+00
-1.457804e+00
-1.549160e+00
-1.641318e+00
-1.733683e+00
-1.825344e+00
-1.915027e+00
-2.001147e+00
-2.082014e+00
0.000000e+00
-7.461841e-03
-2.173800e-02
-4.230048e-02
-6.860417e-02
-1.001511e-01
-1.365213e-01
-1.773747e-01
-2.224369e-01
-2.714800e-01
-3.243064e-01
-3.807365e-01
-4.406012e-01
-5.037370e-01
-5.699830e-01
-6.391802e-01
-7.111699e-01
-7.857943e-01
-8.628956e-01
-9.423161e-01
-1.023898e+00
-1.107480e+00
-1.192897e+00
-1.279972e+00
-1.368502e+00
-1.458242e+00
-1.548871e+00
-1.639948e+00
-1.730858e+00
-1.820773e+00
-1.908643e+00
-1.993242e+00
-2.073279e+00
0.000000e+00
-7.840169e-03
-2.254714e-02
-4.350479e-02
-7.010959e-02
-1.018462e-01
-1.383087e-01
-1.791843e-01
-2.242257e-01
-2.732257e-01
-3.260007e-01
-3.823798e-01
-4.421993e-01
-5.052989e-01
-5.715200e-01
-6.407044e-01
-7.126938e-01
-7.873288e-01
-8.644482e-01
-9.438876e-01
-1.025477e+00
-1.109038e+00
-1.194380e+00
-1.281288e+00
-1.369516e+00
-1.458768e+00
-1.548676e+00
-1.638772e+00
-1.728469e+00
-1.817041e+00
-1.903637e+00
-1.987313e+00
-2.067078e+00
0.000000e+00
-8.531930e-03
-2.400984e-02
-4.564567e-02
-7.273606e-02
-1.047527e-01
-1.413308e-01
-1.822123e-01
-2.271955e-01
-2.761045e-01
-3.287751e-01
-3.850478e-01
-4.447651e-01
-5.077702e-01
-5.739064e-01
-6.430163e-01
-7.149411e-01
-7.895197e-01
-8.665869e-01
-9.459715e-01
-1.027493e+00
-1.110956e+00
-1.196147e+00
-1.282823e+00
-1.370703e+00
-1.459457e+00
-1.548689e+00
-1.637931e+00
-1.726635e+00
-1.814182e+00
-1.899899e+00
-1.983083e+00
-2.063012e+00
0.000000e+00
-9.647594e-03
-2.632685e-02
-4.894217e-02
-7.665770e-02
-1.089800e-01
-1.456429e-01
-1.864801e-01
-2.313495e-01
-2.801112e-01
-3.326210e-01
-3.887304e-01
-4.482878e-01
-5.111393e-01
-5.771294e-01
-6.461009e-01
-7.178942e-01
-7.923465e-01
-8.692890e-01
-9.485445e-01
-1.029923e+00
-1.113217e+00
-1.198193e+00
-1.284589e+00
-1.372098e+00
-1.460368e+00
-1.548990e+00
-1.637506e+00
-1.725409e+00
-1.812176e+00
-1.897290e+00
-1.980275e+00
-2.060686e+00
0.000000e+00
-1.140327e-02
-2.986134e-02
-5.373526e-02
-8.209794e-02
-1.146353e-01
-1.512876e-01
-1.919977e-01
-2.366837e-01
-2.852367e-01
-3.375287e-01
-3.934191e-01
-4.527601e-01
-5.153994e-01
-5.811822e-01
-6.499509e-01
-7.215452e-01
-7.958004e-01
-8.725449e-01
-9.515967e-01
-1.032759e+00
-1.115815e+00
-1.200521e+00
-1.286597e+00
-1.373724e+00
-1.461536e+00
-1.549621e+00
-1.637529e+00
-1.724791e+00
-1.810959e+00
-1.895650e+00
-1.978599e+00
-2.059672e+00
0.000000e+00
-1.424494e-02
-3.526867e-02
-6.048741e-02
-8.921966e-02
-1.217681e-01
-1.582661e-01
-1.987521e-01
-2.431834e-01
-2.914692e-01
-3.434899e-01
-3.991088e-01
-4.581795e-01
-5.205505e-01
-5.860664e-01
-6.545693e-01
-7.258979e-01
-7.998859e-01
-8.763595e-01
-9.551338e-01
-1.036008e+00
-1.118759e+00
-1.203137e+00
-1.288855e+00
-1.375587e+00
-1.462963e+00
-1.550570e+00
-1.637970e+00
-1.724722e+00
-1.810426e+00
-1.894799e+00
-1.977756e+00
-2.059495e+00
0.000000e+00
-1.939973e-02
-4.375486e-02
-6.932266e-02
-9.800536e-02
-1.303166e-01
-1.665300e-01
-2.067112e-01
-2.508298e-01
-2.987992e-01
-3.505017e-01
-4.058011e-01
-4.645516e-01
-5.266009e-01
-5.917935e-01
-6.599705e-01
-7.309695e-01
-8.046229e-01
-8.807552e-01
-9.591794e-01
-1.039692e+00
-1.122069e+00
-1.206056e+00
-1.291367e+00
-1.377674e+00
-1.464610e+00
-1.551770e+00
-1.638727e+00
-1.725059e+00
-1.810401e+00
-1.894523e+00
-1.977451e+00
-2.059646e+00
0.000000e+00
-3.122572e-02
-5.449406e-02
-7.989166e-02
-1.081814e-01
-1.401468e-01
-1.760133e-01
-2.158473e-01
-2.596148e-01
-3.072288e-01
-3.585715e-01
-4.135074e-01
-4.718904e-01
-5.335682e-01
-5.983848e-01
-6.661804e-01
-7.367913e-01
-8.100481e-01
-8.857736e-01
-9.637789e-01
-1.043859e+00
-1.125787e+00
-1.209310e+00