TITLE = "Solution"
VARIABLES = x, y, u, v, psiu, psiv, t, stress
ZONE T="structure" N=561 E=512 F=FEBLOCK ET=QUADRILATERAL VARLOCATION=([7,8]=cellcentered)
0.000000e+00
6.250000e+00
1.250000e+01
1.875000e+01
2.500000e+01
3.125000e+01
3.750000e+01
4.375000e+01
5.000000e+01
5.625000e+01
6.250000e+01
6.875000e+01
7.500000e+01
8.125000e+01
8.750000e+01
9.375000e+01
1.000000e+02
1.062500e+02
1.125000e+02
1.187500e+02
1.250000e+02
1.312500e+02
1.375000e+02
1.437500e+02
1.500000e+02
1.562500e+02
1.625000e+02
1.687500e+02
1.750000e+02
1.812500e+02
1.875000e+02
1.937500e+02
2.000000e+02
0.000000e+00
6.250000e+00
1.250000e+01
1.875000e+01
2.500000e+01
3.125000e+01
3.750000e+01
4.375000e+01
5.000000e+01
5.625000e+01
6.250000e+01
6.875000e+01
7.500000e+01
8.125000e+01
8.750000e+01
9.375000e+01
1.000000e+02
1.062500e+02
1.125000e+02
1.187500e+02
1.250000e+02
1.312500e+02
1.375000e+02
1.437500e+02
1.500000e+02
1.562500e+02
1.625000e+02
1.687500e+02
1.750000e+02
1.812500e+02
1.875000e+02
1.937500e+02
2.000000e+02
0.000000e+00
6.250000e+00
1.250000e+01
1.875000e+01
2.500000e+01
3.125000e+01
3.750000e+01
4.375000e+01
5.000000e+01
5.625000e+01
6.250000e+01
6.875000e+01
7.500000e+01
8.125000e+01
8.750000e+01
9.375000e+01
1.000000e+02
1.062500e+02
1.125000e+02
1.187500e+02
1.250000e+02
1.312500e+02
1.375000e+02
1.437500e+02
1.500000e+02
1.562500e+02
1.625000e+02
1.687500e+02
1.750000e+02
1.812500e+02
1.875000e+02
1.937500e+02
2.000000e+02
0.000000e+00
6.250000e+00
1.250000e+01
1.875000e+01
2.500000e+01
3.125000e+01
3.750000e+01
4.375000e+01
5.000000e+01
5.625000e+01
6.250000e+01
6.875000e+01
7.500000e+01
8.125000e+01
8.750000e+01
9.375000e+01
1.000000e+02
1.062500e+02
1.125000e+02
1.187500e+02
1.250000e+02
1.312500e+02
1.375000e+02
1.437500e+02
1.500000e+02
1.562500e+02
1.625000e+02
1.687500e+02
1.750000e+02
1.812500e+02
1.875000e+02
1.937500e+02
2.000000e+02
0.000000e+00
6.250000e+00
1.250000e+01
1.875000e+01
2.500000e+01
3.125000e+01
3.750000e+01
4.375000e+01
5.000000e+01
5.625000e+01
6.250000e+01
6.875000e+01
7.500000e+01
8.125000e+01
8.750000e+01
9.375000e+01
1.000000e+02
1.062500e+02
1.125000e+02
1.187500e+02
1.250000e+02
1.312500e+02
1.375000e+02
1.437500e+02
1.500000e+02
1.562500e+02
1.625000e+02
1.687500e+02
1.750000e+02
1.812500e+02
1.875000e+02
1.937500e+02
2.000000e+02
0.000000e+00
6.250000e+00
1.250000e+01
1.875000e+01
2.500000e+01
3.125000e+01
3.750000e+01
4.375000e+01
5.000000e+01
5.625000e+01
6.250000e+01
6.875000e+01
7.500000e+01
8.125000e+01
8.750000e+01
9.375000e+01
1.000000e+02
1.062500e+02
1.125000e+02
1.187500e+02
1.250000e+02
1.312500e+02
1.375000e+02
1.437500e+02
1.500000e+02
1.562500e+02
1.625000e+02
1.687500e+02
1.750000e+02
1.812500e+02
1.875000e+02
1.937500e+02
2.000000e+02
0.000000e+00
6.250000e+00
1.250000e+01
1.875000e+01
2.500000e+01
3.125000e+01
3.750000e+01
4.375000e+01
5.000000e+01
5.625000e+01
6.250000e+01
6.875000e+01
7.500000e+01
8.125000e+01
8.750000e+01
9.375000e+01
1.000000e+02
1.062500e+02
1.125000e+02
1.187500e+02
1.250000e+02
1.312500e+02
1.375000e+02
1.437500e+02
1.500000e+02
1.562500e+02
1.625000e+02
1.687500e+02
1.750000e+02
1.812500e+02
1.875000e+02
1.937500e+02
2.000000e+02
0.000000e+00
6.250000e+00
1.250000e+01
1.875000e+01
2.500000e+01
3.125000e+01
3.750000e+01
4.375000e+01
5.000000e+01
5.625000e+01
6.250000e+01
6.875000e+01
7.500000e+01
8.125000e+01
8.750000e+01
9.375000e+01
1.000000e+02
1.062500e+02
1.125000e+02
1.187500e+02
1.250000e+02
1.312500e+02
1.375000e+02
1.437500e+02
1.500000e+02
1.562500e+02
1.625000e+02
1.687500e+02
1.750000e+02
1.812500e+02
1.875000e+02
1.937500e+02
2.000000e+02
0.000000e+00
6.250000e+00
1.250000e+01
1.875000e+01
2.500000e+01
3.125000e+01
3.750000e+01
4.375000e+01
5.000000e+01
5.625000e+01
6.250000e+01
6.875000e+01
7.500000e+01
8.125000e+01
8.750000e+01
9.375000e+01
1.000000e+02
1.062500e+02
1.125000e+02
1.187500e+02
1.250000e+02
1.312500e+02
1.375000e+02
1.437500e+02
1.500000e+02
1.562500e+02
1.625000e+02
1.687500e+02
1.750000e+02
1.812500e+02
1.875000e+02
1.937500e+02
2.000000e+02
0.000000e+00
6.250000e+00
1.250000e+01
1.875000e+01
2.500000e+01
3.125000e+01
3.750000e+01
4.375000e+01
5.000000e+01
5.625000e+01
6.250000e+01
6.875000e+01
7.500000e+01
8.125000e+01
8.750000e+01
9.375000e+01
1.000000e+02
1.062500e+02
1.125000e+02
1.187500e+02
1.250000e+02
1.312500e+02
1.375000e+02
1.437500e+02
1.500000e+02
1.562500e+02
1.625000e+02
1.687500e+02
1.750000e+02
1.812500e+02
1.875000e+02
1.937500e+02
2.000000e+02
0.000000e+00
6.250000e+00
1.250000e+01
1.875000e+01
2.500000e+01
3.125000e+01
3.750000e+01
4.375000e+01
5.000000e+01
5.625000e+01
6.250000e+01
6.875000e+01
7.500000e+01
8.125000e+01
8.750000e+01
9.375000e+01
1.000000e+02
1.062500e+02
1.125000e+02
1.187500e+02
1.250000e+02
1.312500e+02
1.375000e+02
1.437500e+02
1.500000e+02
1.562500e+02
1.625000e+02
1.687500e+02
1.750000e+02
1.812500e+02
1.875000e+02
1.937500e+02
2.000000e+02
0.000000e+00
6.250000e+00
1.250000e+01
1.875000e+01
2.500000e+01
3.125000e+01
3.750000e+01
4.375000e+01
5.000000e+01
5.625000e+01
6.250000e+01
6.875000e+01
7.500000e+01
8.125000e+01
8.750000e+01
9.375000e+01
1.000000e+02
1.062500e+02
1.125000e+02
1.187500e+02
1.250000e+02
1.312500e+02
1.375000e+02
1.437500e+02
1.500000e+02
1.562500e+02
1.625000e+02
1.687500e+02
1.750000e+02
1.812500e+02
1.875000e+02
1.937500e+02
2.000000e+02
0.000000e+00
6.250000e+00
1.250000e+01
1.875000e+01
2.500000e+01
3.125000e+01
3.750000e+01
4.375000e+01
5.000000e+01
5.625000e+01
6.250000e+01
6.875000e+01
7.500000e+01
8.125000e+01
8.750000e+01
9.375000e+01
1.000000e+02
1.062500e+02
1.125000e+02
1.187500e+02
1.250000e+02
1.312500e+02
1.375000e+02
1.437500e+02
1.500000e+02
1.562500e+02
1.625000e+02
1.687500e+02
1.750000e+02
1.812500e+02
1.875000e+02
1.937500e+02
2.000000e+02
0.000000e+00
6.250000e+00
1.250000e+01
1.875000e+01
2.500000e+01
3.125000e+01
3.750000e+01
4.375000e+01
5.000000e+01
5.625000e+01
6.250000e+01
6.875000e+01
7.500000e+01
8.125000e+01
8.750000e+01
9.375000e+01
1.000000e+02
1.062500e+02
1.125000e+02
1.187500e+02
1.250000e+02
1.312500e+02
1.375000e+02
1.437500e+02
1.500000e+02
1.562500e+02
1.625000e+02
1.687500e+02
1.750000e+02
1.812500e+02
1.875000e+02
1.937500e+02
2.000000e+02
0.000000e+00
6.250000e+00
1.250000e+01
1.875000e+01
2.500000e+01
3.125000e+01
3.750000e+01
4.375000e+01
5.000000e+01
5.625000e+01
6.250000e+01
6.875000e+01
7.500000e+01
8.125000e+01
8.750000e+01
9.375000e+01
1.000000e+02
1.062500e+02
1.125000e+02
1.187500e+02
1.250000e+02
1.312500e+02
1.375000e+02
1.437500e+02
1.500000e+02
1.562500e+02
1.625000e+02
1.687500e+02
1.750000e+02
1.812500e+02
1.875000e+02
1.937500e+02
2.000000e+02
0.000000e+00
6.250000e+00
1.250000e+01
1.875000e+01
2.500000e+01
3.125000e+01
3.750000e+01
4.375000e+01
5.000000e+01
5.625000e+01
6.250000e+01
6.875000e+01
7.500000e+01
8.125000e+01
8.750000e+01
9.375000e+01
1.000000e+02
1.062500e+02
1.125000e+02
1.187500e+02
1.250000e+02
1.312500e+02
1.375000e+02
1.437500e+02
1.500000e+02
1.562500e+02
1.625000e+02
1.687500e+02
1.750000e+02
1.812500e+02
1.875000e+02
1.937500e+02
2.000000e+02
0.000000e+00
6.250000e+00
1.250000e+01
1.875000e+01
2.500000e+01
3.125000e+01
3.750000e+01
4.375000e+01
5.000000e+01
5.625000e+01
6.250000e+01
6.875000e+01
7.500000e+01
8.125000e+01
8.750000e+01
9.375000e+01
1.000000e+02
1.062500e+02
1.125000e+02
1.187500e+02
1.250000e+02
1.312500e+02
1.375000e+02
1.437500e+02
1.500000e+02
1.562500e+02
1.625000e+02
1.687500e+02
1.750000e+02
1.812500e+02
1.875000e+02
1.937500e+02
2.000000e+02
0.000000e+00
0.000000e+00
0.000000e+00
0.000000e+00
0.000000e+00
0.000000e+00
0.000000e+00
0.000000e+00
0.000000e+00
0.000000e+00
0.000000e+00
0.000000e+00
0.000000e+00
0.000000e+00
0.000000e+00
0.000000e+00
0.000000e+00
0.000000e+00
0.000000e+00
0.000000e+00
0.000000e+00
0.000000e+00
0.000000e+00
0.000000e+00
0.000000e+00
0.000000e+00
0.000000e+00
0.000000e+00
0.000000e+00
0.000000e+00
0.000000e+00
0.000000e+00
0.000000e+00
6.250000e+00
6.250000e+00
6.250000e+00
6.250000e+00
6.250000e+00
6.250000e+00
6.250000e+00
6.250000e+00
6.250000e+00
6.250000e+00
6.250000e+00
6.250000e+00
6.250000e+00
6.250000e+00
6.250000e+00
6.250000e+00
6.250000e+00
6.250000e+00
6.250000e+00
6.250000e+00
6.250000e+00
6.250000e+00
6.250000e+00
6.250000e+00
6.250000e+00
6.250000e+00
6.250000e+00
6.250000e+00
6.250000e+00
6.250000e+00
6.250000e+00
6.250000e+00
6.250000e+00
1.250000e+01
1.250000e+01
1.250000e+01
1.250000e+01
1.250000e+01
1.250000e+01
1.250000e+01
1.250000e+01
1.250000e+01
1.250000e+01
1.250000e+01
1.250000e+01
1.250000e+01
1.250000e+01
1.250000e+01
1.250000e+01
1.250000e+01
1.250000e+01
1.250000e+01
1.250000e+01
1.250000e+01
1.250000e+01
1.250000e+01
1.250000e+01
1.250000e+01
1.250000e+01
1.250000e+01
1.250000e+01
1.250000e+01
1.250000e+01
1.250000e+01
1.250000e+01
1.250000e+01
1.875000e+01
1.875000e+01
1.875000e+01
1.875000e+01
1.875000e+01
1.875000e+01
1.875000e+01
1.875000e+01
1.875000e+01
1.875000e+01
1.875000e+01
1.875000e+01
1.875000e+01
1.875000e+01
1.875000e+01
1.875000e+01
1.875000e+01
1.875000e+01
1.875000e+01
1.875000e+01
1.875000e+01
1.875000e+01
1.875000e+01
1.875000e+01
1.875000e+01
1.875000e+01
1.875000e+01
1.875000e+01
1.875000e+01
1.875000e+01
1.875000e+01
1.875000e+01
1.875000e+01
2.500000e+01
2.500000e+01
2.500000e+01
2.500000e+01
2.500000e+01
2.500000e+01
2.500000e+01
2.500000e+01
2.500000e+01
2.500000e+01
2.500000e+01
2.500000e+01
2.500000e+01
2.500000e+01
2.500000e+01
2.500000e+01
2.500000e+01
2.500000e+01
2.500000e+01
2.500000e+01
2.500000e+01
2.500000e+01
2.500000e+01
2.500000e+01
2.500000e+01
2.500000e+01
2.500000e+01
2.500000e+01
2.500000e+01
2.500000e+01
2.500000e+01
2.500000e+01
2.500000e+01
3.125000e+01
3.125000e+01
3.125000e+01
3.125000e+01
3.125000e+01
3.125000e+01
3.125000e+01
3.125000e+01
3.125000e+01
3.125000e+01
3.125000e+01
3.125000e+01
3.125000e+01
3.125000e+01
3.125000e+01
3.125000e+01
3.125000e+01
3.125000e+01
3.125000e+01
3.125000e+01
3.125000e+01
3.125000e+01
3.125000e+01
3.125000e+01
3.125000e+01
3.125000e+01
3.125000e+01
3.125000e+01
3.125000e+01
3.125000e+01
3.125000e+01
3.125000e+01
3.125000e+01
3.750000e+01
3.750000e+01
3.750000e+01
3.750000e+01
3.750000e+01
3.750000e+01
3.750000e+01
3.750000e+01
3.750000e+01
3.750000e+01
3.750000e+01
3.750000e+01
3.750000e+01
3.750000e+01
3.750000e+01
3.750000e+01
3.750000e+01
3.750000e+01
3.750000e+01
3.750000e+01
3.750000e+01
3.750000e+01
3.750000e+01
3.750000e+01
3.750000e+01
3.750000e+01
3.750000e+01
3.750000e+01
3.750000e+01
3.750000e+01
3.750000e+01
3.750000e+01
3.750000e+01
4.375000e+01
4.375000e+01
4.375000e+01
4.375000e+01
4.375000e+01
4.375000e+01
4.375000e+01
4.375000e+01
4.375000e+01
4.375000e+01
4.375000e+01
4.375000e+01
4.375000e+01
4.375000e+01
4.375000e+01
4.375000e+01
4.375000e+01
4.375000e+01
4.375000e+01
4.375000e+01
4.375000e+01
4.375000e+01
4.375000e+01
4.375000e+01
4.375000e+01
4.375000e+01
4.375000e+01
4.375000e+01
4.375000e+01
4.375000e+01
4.375000e+01
4.375000e+01
4.375000e+01
5.000000e+01
5.000000e+01
5.000000e+01
5.000000e+01
5.000000e+01
5.000000e+01
5.000000e+01
5.000000e+01
5.000000e+01
5.000000e+01
5.000000e+01
5.000000e+01
5.000000e+01
5.000000e+01
5.000000e+01
5.000000e+01
5.000000e+01
5.000000e+01
5.000000e+01
5.000000e+01
5.000000e+01
5.000000e+01
5.000000e+01
5.000000e+01
5.000000e+01
5.000000e+01
5.000000e+01
5.000000e+01
5.000000e+01
5.000000e+01
5.000000e+01
5.000000e+01
5.000000e+01
5.625000e+01
5.625000e+01
5.625000e+01
5.625000e+01
5.625000e+01
5.625000e+01
5.625000e+01
5.625000e+01
5.625000e+01
5.625000e+01
5.625000e+01
5.625000e+01
5.625000e+01
5.625000e+01
5.625000e+01
5.625000e+01
5.625000e+01
5.625000e+01
5.625000e+01
5.625000e+01
5.625000e+01
5.625000e+01
5.625000e+01
5.625000e+01
5.625000e+01
5.625000e+01
5.625000e+01
5.625000e+01
5.625000e+01
5.625000e+01
5.625000e+01
5.625000e+01
5.625000e+01
6.250000e+01
6.250000e+01
6.250000e+01
6.250000e+01
6.250000e+01
6.250000e+01
6.250000e+01
6.250000e+01
6.250000e+01
6.250000e+01
6.250000e+01
6.250000e+01
6.250000e+01
6.250000e+01
6.250000e+01
6.250000e+01
6.250000e+01
6.250000e+01
6.250000e+01
6.250000e+01
6.250000e+01
6.250000e+01
6.250000e+01
6.250000e+01
6.250000e+01
6.250000e+01
6.250000e+01
6.250000e+01
6.250000e+01
6.250000e+01
6.250000e+01
6.250000e+01
6.250000e+01
6.875000e+01
6.875000e+01
6.875000e+01
6.875000e+01
6.875000e+01
6.875000e+01
6.875000e+01
6.875000e+01
6.875000e+01
6.875000e+01
6.875000e+01
6.875000e+01
6.875000e+01
6.875000e+01
6.875000e+01
6.875000e+01
6.875000e+01
6.875000e+01
6.875000e+01
6.875000e+01
6.875000e+01
6.875000e+01
6.875000e+01
6.875000e+01
6.875000e+01
6.875000e+01
6.875000e+01
6.875000e+01
6.875000e+01
6.875000e+01
6.875000e+01
6.875000e+01
6.875000e+01
7.500000e+01
7.500000e+01
7.500000e+01
7.500000e+01
7.500000e+01
7.500000e+01
7.500000e+01
7.500000e+01
7.500000e+01
7.500000e+01
7.500000e+01
7.500000e+01
7.500000e+01
7.500000e+01
7.500000e+01
7.500000e+01
7.500000e+01
7.500000e+01
7.500000e+01
7.500000e+01
7.500000e+01
7.500000e+01
7.500000e+01
7.500000e+01
7.500000e+01
7.500000e+01
7.500000e+01
7.500000e+01
7.500000e+01
7.500000e+01
7.500000e+01
7.500000e+01
7.500000e+01
8.125000e+01
8.125000e+01
8.125000e+01
8.125000e+01
8.125000e+01
8.125000e+01
8.125000e+01
8.125000e+01
8.125000e+01
8.125000e+01
8.125000e+01
8.125000e+01
8.125000e+01
8.125000e+01
8.125000e+01
8.125000e+01
8.125000e+01
8.125000e+01
8.125000e+01
8.125000e+01
8.125000e+01
8.125000e+01
8.125000e+01
8.125000e+01
8.125000e+01
8.125000e+01
8.125000e+01
8.125000e+01
8.125000e+01
8.125000e+01
8.125000e+01
8.125000e+01
8.125000e+01
8.750000e+01
8.750000e+01
8.750000e+01
8.750000e+01
8.750000e+01
8.750000e+01
8.750000e+01
8.750000e+01
8.750000e+01
8.750000e+01
8.750000e+01
8.750000e+01
8.750000e+01
8.750000e+01
8.750000e+01
8.750000e+01
8.750000e+01
8.750000e+01
8.750000e+01
8.750000e+01
8.750000e+01
8.750000e+01
8.750000e+01
8.750000e+01
8.750000e+01
8.750000e+01
8.750000e+01
8.750000e+01
8.750000e+01
8.750000e+01
8.750000e+01
8.750000e+01
8.750000e+01
9.375000e+01
9.375000e+01
9.375000e+01
9.375000e+01
9.375000e+01
9.375000e+01
9.375000e+01
9.375000e+01
9.375000e+01
9.375000e+01
9.375000e+01
9.375000e+01
9.375000e+01
9.375000e+01
9.375000e+01
9.375000e+01
9.375000e+01
9.375000e+01
9.375000e+01
9.375000e+01
9.375000e+01
9.375000e+01
9.375000e+01
9.375000e+01
9.375000e+01
9.375000e+01
9.375000e+01
9.375000e+01
9.375000e+01
9.375000e+01
9.375000e+01
9.375000e+01
9.375000e+01
1.000000e+02
1.000000e+02
1.000000e+02
1.000000e+02
1.000000e+02
1.000000e+02
1.000000e+02
1.000000e+02
1.000000e+02
1.000000e+02
1.000000e+02
1.000000e+02
1.000000e+02
1.000000e+02
1.000000e+02
1.000000e+02
1.000000e+02
1.000000e+02
1.000000e+02
1.000000e+02
1.000000e+02
1.000000e+02
1.000000e+02
1.000000e+02
1.000000e+02
1.000000e+02
1.000000e+02
1.000000e+02
1.000000e+02
1.000000e+02
1.000000e+02
1.000000e+02
1.000000e+02
0.000000e+00
-3.974400e-02
-7.211020e-02
-1.020929e-01
-1.308679e-01
-1.586545e-01
-1.855085e-01
-2.114275e-01
-2.363953e-01
-2.603936e-01
-2.834074e-01
-3.054264e-01
-3.264451e-01
-3.464632e-01
-3.654852e-01
-3.835213e-01
-4.005876e-01
-4.167076e-01
-4.319136e-01
-4.462495e-01
-4.597734e-01
-4.725625e-01
-4.847187e-01
-4.963772e-01
-5.077190e-01
-5.189902e-01
-5.305326e-01
-5.428337e-01
-5.566085e-01
-5.729093e-01
-5.931011e-01
-6.171642e-01
-6.318496e-01
0.000000e+00
-2.664728e-02
-5.544254e-02
-8.259266e-02
-1.083978e-01
-1.331037e-01
-1.568408e-01
-1.796663e-01
-2.016030e-01
-2.226582e-01
-2.428334e-01
-2.621285e-01
-2.805445e-01
-2.980843e-01
-3.147537e-01
-3.305622e-01
-3.455230e-01
-3.596547e-01
-3.729818e-01
-3.855360e-01
-3.973580e-01
-4.084988e-01
-4.190220e-01
-4.290051e-01
-4.385410e-01
-4.477364e-01
-4.567040e-01
-4.655365e-01
-4.742334e-01
-4.825117e-01
-4.894097e-01
-4.934426e-01
-4.990571e-01
0.000000e+00
-2.113669e-02
-4.351496e-02
-6.629960e-02
-8.843921e-02
-1.097629e-01
-1.302571e-01
-1.499413e-01
-1.688327e-01
-1.869433e-01
-2.042809e-01
-2.208508e-01
-2.366575e-01
-2.517059e-01
-2.660014e-01
-2.795509e-01
-2.923634e-01
-3.044498e-01
-3.158237e-01
-3.265014e-01
-3.365014e-01
-3.458442e-01
-3.545494e-01
-3.626326e-01
-3.700971e-01
-3.769187e-01
-3.830196e-01
-3.882201e-01
-3.921686e-01
-3.942947e-01
-3.941083e-01
-3.929144e-01
-3.994706e-01
0.000000e+00
-1.677009e-02
-3.446636e-02
-5.264706e-02
-7.078516e-02
-8.848391e-02
-1.055917e-01
-1.220543e-01
-1.378569e-01
-1.529988e-01
-1.674840e-01
-1.813173e-01
-1.945034e-01
-2.070464e-01
-2.189500e-01
-2.302176e-01
-2.408523e-01
-2.508568e-01
-2.602331e-01
-2.689818e-01
-2.771007e-01
-2.845823e-01
-2.914100e-01
-2.975521e-01
-3.029518e-01
-3.075139e-01
-3.110872e-01
-3.134536e-01
-3.143571e-01
-3.136864e-01
-3.120573e-01
-3.119601e-01
-3.182065e-01
0.000000e+00
-1.301593e-02
-2.665219e-02
-4.072405e-02
-5.491023e-02
-6.892241e-02
-8.256727e-02
-9.574691e-02
-1.084168e-01
-1.205599e-01
-1.321717e-01
-1.432527e-01
-1.538052e-01
-1.638308e-01
-1.733302e-01
-1.823025e-01
-1.907450e-01
-1.986526e-01
-2.060172e-01
-2.128262e-01
-2.190616e-01
-2.246965e-01
-2.296926e-01
-2.339948e-01
-2.375272e-01
-2.401898e-01
-2.418653e-01
-2.424530e-01
-2.419708e-01
-2.407910e-01
-2.400256e-01
-2.417932e-01
-2.471217e-01
0.000000e+00
-9.565952e-03
-1.954175e-02
-2.983803e-02
-4.027690e-02
-5.066349e-02
-6.084311e-02
-7.071520e-02
-8.022457e-02
-8.934439e-02
-9.806334e-02
-1.063774e-01
-1.142852e-01
-1.217853e-01
-1.288748e-01
-1.355488e-01
-1.417993e-01
-1.476148e-01
-1.529797e-01
-1.578729e-01
-1.622669e-01
-1.661261e-01
-1.694053e-01
-1.720496e-01
-1.739963e-01
-1.751840e-01
-1.755781e-01
-1.752244e-01
-1.743528e-01
-1.735236e-01
-1.737255e-01
-1.759788e-01
-1.803878e-01
0.000000e+00
-6.295546e-03
-1.284011e-02
-1.959229e-02
-2.645579e-02
-3.331508e-02
-4.006673e-02
-4.663533e-02
-5.297369e-02
-5.905578e-02
-6.486843e-02
-7.040504e-02
-7.566135e-02
-8.063301e-02
-8.531400e-02
-8.969577e-02
-9.376649e-02
-9.751052e-02
-1.009078e-01
-1.039332e-01
-1.065565e-01
-1.087420e-01
-1.104500e-01
-1.116402e-01
-1.122797e-01
-1.123590e-01
-1.119218e-01
-1.111127e-01
-1.102396e-01
-1.098163e-01
-1.104767e-01
-1.126705e-01
-1.162295e-01
0.000000e+00
-3.126996e-03
-6.372210e-03
-9.718964e-03
-1.312499e-02
-1.653648e-02
-1.990233e-02
-2.318257e-02
-2.635018e-02
-2.938865e-02
-3.228821e-02
-3.504240e-02
-3.764556e-02
-4.009126e-02
-4.237115e-02
-4.447429e-02
-4.638656e-02
-4.809032e-02
-4.956414e-02
-5.078293e-02
-5.171851e-02
-5.234126e-02
-5.262336e-02
-5.254490e-02
-5.210432e-02
-5.133526e-02
-5.033077e-02
-4.927238e-02
-4.845075e-02
-4.824493e-02
-4.901965e-02
-5.093350e-02
-5.375749e-02
0.000000e+00
-5.045094e-06
-1.093920e-05
-1.735580e-05
-2.395738e-05
-3.028885e-05
-3.566438e-05
-3.904175e-05
-3.887554e-05
-3.294040e-05
-1.811772e-05
9.858164e-06
5.669360e-05
1.298629e-04
2.389535e-04
3.959988e-04
6.157475e-04
9.157864e-04
1.316383e-03
1.839850e-03
2.509126e-03
3.345151e-03
4.362427e-03
5.562056e-03
6.921568e-03
8.381407e-03
9.829806e-03
1.109170e-02
1.193407e-02
1.210489e-02
1.141706e-02
9.859345e-03
7.677680e-03
0.000000e+00
3.117493e-03
6.351564e-03
9.686141e-03
1.307958e-02
1.647890e-02
1.983428e-02
2.310769e-02
2.627498e-02
2.932382e-02
3.225027e-02
3.505588e-02
3.774573e-02
4.032745e-02
4.281079e-02
4.520755e-02
4.753157e-02
4.979864e-02
5.202604e-02
5.423156e-02
5.643170e-02
5.863856e-02
6.085529e-02
6.306958e-02
6.524544e-02
6.731421e-02
6.916759e-02
7.065827e-02
7.161607e-02
7.188724e-02
7.139613e-02
7.021281e-02
6.859358e-02
0.000000e+00
6.287783e-03
1.282312e-02
1.956509e-02
2.641787e-02
3.326656e-02
4.000872e-02
4.657047e-02
5.290692e-02
5.899538e-02
6.482740e-02
7.040286e-02
7.572627e-02
8.080480e-02
8.564737e-02
9.026428e-02
9.466710e-02
9.886838e-02
1.028812e-01
1.067179e-01
1.103885e-01
1.138976e-01
1.172405e-01
1.203978e-01
1.233300e-01
1.259719e-01
1.282317e-01
1.299966e-01
1.311518e-01
1.316137e-01
1.313762e-01
1.305574e-01
1.294273e-01
0.000000e+00
9.561000e-03
1.953071e-02
2.982006e-02
4.025139e-02
5.063019e-02
6.080237e-02
7.066830e-02
8.017424e-02
8.929543e-02
9.802357e-02
1.063588e-01
1.143055e-01
1.218697e-01
1.290586e-01
1.358798e-01
1.423414e-01
1.484516e-01
1.542181e-01
1.596477e-01
1.647442e-01
1.695063e-01
1.739249e-01
1.779791e-01
1.816330e-01
1.848336e-01
1.875119e-01
1.895906e-01
1.910003e-01
1.917066e-01
1.917464e-01
1.912660e-01
1.905518e-01
0.000000e+00
1.301470e-02
2.664911e-02
4.071854e-02
5.490172e-02
6.891041e-02
8.255147e-02
9.572728e-02
1.083938e-01
1.205344e-01
1.321458e-01
1.432297e-01
1.537903e-01
1.638320e-01
1.733589e-01
1.823750e-01
1.908837e-01
1.988877e-01
2.063890e-01
2.133879e-01
2.198824e-01
2.258664e-01
2.313285e-01
2.362497e-01
2.406025e-01
2.443502e-01
2.474500e-01
2.498592e-01
2.515476e-01
2.525176e-01
2.528322e-01
2.526519e-01
2.522756e-01
0.000000e+00
1.677320e-02
3.447269e-02
5.265648e-02
7.079740e-02
8.849862e-02
1.056084e-01
1.220721e-01
1.378744e-01
1.530140e-01
1.674935e-01
1.813163e-01
1.944850e-01
2.070011e-01
2.188647e-01
2.300749e-01
2.406297e-01
2.505255e-01
2.597574e-01
2.683190e-01
2.762015e-01
2.833940e-01
2.898829e-01
2.956517e-01
3.006821e-01
3.049552e-01
3.084549e-01
3.111735e-01
3.131191e-01
3.143283e-01
3.148844e-01
3.149507e-01
3.148259e-01
0.000000e+00
2.114430e-02
4.353120e-02
6.632502e-02
8.847431e-02
1.098081e-01
1.303125e-01
1.500061e-01
1.689053e-01
1.870199e-01
2.043548e-01
2.209115e-01
2.366887e-01
2.516836e-01
2.658915e-01
2.793058e-01
2.919184e-01
3.037189e-01
3.146948e-01
3.248316e-01
3.341126e-01
3.425198e-01
3.500348e-01
3.566408e-01
3.623254e-01
3.670842e-01
3.709257e-01
3.738771e-01
3.759894e-01
3.773423e-01
3.780504e-01
3.782811e-01
3.783086e-01
0.000000e+00
2.665870e-02
5.546748e-02
8.263278e-02
1.084551e-01
1.331800e-01
1.569379e-01
1.797852e-01
2.017431e-01
2.228167e-01
2.430038e-01
2.622986e-01
2.806940e-01
2.981815e-01
3.147512e-01
3.303913e-01
3.450875e-01
3.588225e-01
3.715758e-01
3.833232e-01
3.940376e-01
4.036903e-01
4.122527e-01
4.197002e-01
4.260174e-01
4.312046e-01
4.352864e-01
4.383202e-01
4.404043e-01
4.416813e-01
4.423337e-01
4.425702e-01
4.426282e-01
0.000000e+00
3.975650e-02
7.213937e-02
1.021429e-01
1.309427e-01
1.587582e-01
1.856453e-01
2.116015e-01
2.366095e-01
2.606494e-01
2.837027e-01
3.057533e-01
3.267870e-01
3.467904e-01
3.657496e-01
3.836487e-01
4.004687e-01
4.161861e-01
4.307723e-01
4.441926e-01
4.564068e-01
4.673697e-01
4.770344e-01
4.853565e-01
4.923017e-01
4.978560e-01
5.020392e-01
5.049209e-01
5.066386e-01
5.074125e-01
5.075532e-01
5.074367e-01
5.073711e-01
0.000000e+00
-2.456103e-02
-4.286430e-02
-6.283758e-02
-8.507900e-02
-1.102029e-01
-1.383839e-01
-1.696710e-01
-2.040329e-01
-2.413961e-01
-2.816616e-01
-3.247152e-01
-3.704344e-01
-4.186910e-01
-4.693546e-01
-5.222939e-01
-5.773780e-01
-6.344787e-01
-6.934720e-01
-7.542410e-01
-8.166800e-01
-8.806999e-01
-9.462373e-01
-1.013267e+00
-1.081822e+00
-1.152030e+00
-1.224169e+00
-1.298784e+00
-1.376918e+00
-1.460631e+00
-1.554375e+00
-1.668649e+00
-1.826521e+00
0.000000e+00
-1.526375e-02
-3.442244e-02
-5.453045e-02
-7.708189e-02
-1.024788e-01
-1.309336e-01
-1.624945e-01
-1.971330e-01
-2.347755e-01
-2.753223e-01
-3.186587e-01
-3.646607e-01
-4.131993e-01
-4.641428e-01
-5.173584e-01
-5.727140e-01
-6.300791e-01
-6.893275e-01
-7.503394e-01
-8.130054e-01
-8.772317e-01
-9.429492e-01
-1.010125e+00
-1.078784e+00
-1.149041e+00
-1.221160e+00
-1.295670e+00
-1.373591e+00
-1.456949e+00
-1.549969e+00
-1.661699e+00
-1.809192e+00
0.000000e+00
-1.121210e-02
-2.775121e-02
-4.758492e-02
-7.017575e-02
-9.575976e-02
-1.244392e-01
-1.562406e-01
-1.911258e-01
-2.290177e-01
-2.698149e-01
-3.134017e-01
-3.596537e-01
-4.084413e-01
-4.596324e-01
-5.130937e-01
-5.686924e-01
-6.262974e-01
-6.857815e-01
-7.470239e-01
-8.099142e-01
-8.743581e-01
-9.402861e-01
-1.007667e+00
-1.076527e+00
-1.146988e+00
-1.219328e+00
-1.294086e+00
-1.372270e+00
-1.455707e+00
-1.547517e+00
-1.651386e+00
-1.766608e+00
0.000000e+00
-8.978175e-03
-2.349968e-02
-4.227575e-02
-6.457626e-02
-9.015232e-02
-1.189544e-01
-1.509340e-01
-1.860223e-01
-2.241278e-01
-2.651430e-01
-3.089491e-01
-3.554208e-01
-4.044282e-01
-4.558392e-01
-5.095211e-01
-5.653413e-01
-6.231693e-01
-6.828785e-01
-7.443492e-01
-8.074725e-01
-8.721564e-01
-9.383346e-01
-1.005981e+00
-1.075128e+00
-1.145906e+00
-1.218586e+00
-1.293668e+00
-1.371975e+00
-1.454712e+00
-1.543031e+00
-1.636179e+00
-1.722890e+00
0.000000e+00
-7.597012e-03
-2.071932e-02
-3.850561e-02
-6.029776e-02
-8.570614e-02
-1.145191e-01
-1.466026e-01
-1.818408e-01
-2.201184e-01
-2.613159e-01
-3.053090e-01
-3.519700e-01
-4.011688e-01
-4.527738e-01
-5.066531e-01
-5.626755e-01
-6.207120e-01
-6.806376e-01
-7.423349e-01
-8.056971e-01
-8.706351e-01
-9.370855e-01
-1.005024e+00
-1.074481e+00
-1.145569e+00
-1.218511e+00
-1.293666e+00
-1.371508e+00
-1.452420e+00
-1.536014e+00
-1.619222e+00
-1.694738e+00
0.000000e+00
-6.718166e-03
-1.889506e-02
-3.591117e-02
-5.721277e-02
-8.238314e-02
-1.111334e-01
-1.432580e-01
-1.785949e-01
-2.170015e-01
-2.583434e-01
-3.024890e-01
-3.493076e-01
-3.986684e-01
-4.504405e-01
-5.044932e-01
-5.606971e-01
-6.189251e-01
-6.790543e-01
-7.409689e-01
-8.045639e-01
-8.697506e-01
-9.364637e-01
-1.004671e+00
-1.074385e+00
-1.145672e+00
-1.218658e+00
-1.293501e+00
-1.370287e+00
-1.448758e+00
-1.527717e+00
-1.604344e+00
-1.674381e+00
0.000000e+00
-6.171973e-03
-1.774168e-02
-3.422472e-02
-5.514605e-02
-8.009952e-02
-1.087644e-01
-1.408930e-01
-1.762882e-01
-2.147841e-01
-2.562325e-01
-3.004947e-01
-3.474369e-01
-3.969279e-01
-4.488373e-01
-5.030362e-01
-5.593968e-01
-6.177936e-01
-6.781054e-01
-7.402170e-01
-8.040225e-01
-8.694296e-01
-9.363643e-01
-1.004776e+00
-1.074642e+00
-1.145962e+00
-1.218744e+00
-1.292945e+00
-1.368351e+00
-1.444349e+00
-1.519624e+00
-1.592006e+00
-1.658834e+00
0.000000e+00
-5.871832e-03
-1.710169e-02
-3.327438e-02
-5.396097e-02
-7.876933e-02
-1.073685e-01
-1.394900e-01
-1.749167e-01
-2.134678e-01
-2.549859e-01
-2.993276e-01
-3.463572e-01
-3.959434e-01
-4.479569e-01
-5.022701e-01
-5.587567e-01
-6.172925e-01
-6.777566e-01
-7.400324e-01
-8.040106e-01
-8.695905e-01
-9.366830e-01
-1.005211e+00
-1.075105e+00
-1.146293e+00
-1.218672e+00
-1.292043e+00
-1.366014e+00
-1.439859e+00
-1.512391e+00
-1.581978e+00
-1.646805e+00
0.000000e+00
-5.775128e-03
-1.689522e-02
-3.296636e-02
-5.357473e-02
-7.833398e-02
-1.069112e-01
-1.390322e-01
-1.744738e-01
-2.130507e-01
-2.546029e-01
-2.989858e-01
-3.460642e-01
-3.957073e-01
-4.477874e-01
-5.021780e-01
-5.587539e-01
-6.173913e-01
-6.779683e-01
-7.403653e-01
-8.044664e-01
-8.701592e-01
-9.373348e-01
-1.005885e+00
-1.075693e+00
-1.146621e+00
-1.218476e+00
-1.290962e+00
-1.363610e+00
-1.435705e+00
-1.506244e+00
-1.573981e+00
-1.637586e+00
0.000000e+00
-5.869035e-03
-1.709781e-02
-3.327103e-02
-5.395996e-02
-7.877288e-02
-1.073795e-01
-1.395124e-01
-1.749556e-01
-2.135300e-01
-2.550801e-01
-2.994646e-01
-3.465506e-01
-3.962094e-01
-4.483145e-01
-5.027408e-01
-5.593636e-01
-6.180586e-01
-6.787018e-01
-7.411692e-01
-8.053363e-01
-8.710770e-01
-9.382610e-01
-1.006749e+00
-1.076381e+00
-1.146965e+00
-1.218249e+00
-1.289884e+00
-1.361388e+00
-1.432110e+00
-1.501223e+00
-1.567764e+00
-1.630715e+00
0.000000e+00
-6.166605e-03
-1.773423e-02
-3.421828e-02
-5.514403e-02
-8.010619e-02
-1.087854e-01
-1.409357e-01
-1.763626e-01
-2.149031e-01
-2.564127e-01
-3.007571e-01
-3.478075e-01
-3.974379e-01
-4.495234e-01
-5.039396e-01
-5.605621e-01
-6.192655e-01
-6.799230e-01
-7.424052e-01
-8.065785e-01
-8.723028e-01
-9.394271e-01
-1.007784e+00
-1.077179e+00
-1.147379e+00
-1.218095e+00
-1.288959e+00
-1.359509e+00
-1.429174e+00
-1.497285e+00
-1.563100e+00
-1.625838e+00
0.000000e+00
-6.710705e-03
-1.888471e-02
-3.590217e-02
-5.720986e-02
-8.239226e-02
-1.111624e-01
-1.433173e-01
-1.786984e-01
-2.171674e-01
-2.585949e-01
-3.028556e-01
-3.498256e-01
-3.993817e-01
-4.514004e-01
-5.057581e-01
-5.623298e-01
-6.209888e-01
-6.816052e-01
-7.440443e-01
-8.081640e-01
-8.738112e-01
-9.408172e-01
-1.008991e+00
-1.078112e+00
-1.147920e+00
-1.218105e+00
-1.288297e+00
-1.358067e+00
-1.426926e+00
-1.494346e+00
-1.559773e+00
-1.622641e+00
0.000000e+00
-7.588224e-03
-2.070713e-02
-3.849501e-02
-6.029439e-02
-8.571718e-02
-1.145540e-01
-1.466742e-01
-1.819658e-01
-2.203188e-01
-2.616198e-01
-3.057521e-01
-3.525964e-01
-4.020316e-01
-4.539354e-01
-5.081842e-01
-5.646525e-01
-6.232122e-01
-6.837305e-01
-7.460680e-01
-8.100754e-01
-8.755891e-01
-9.424267e-01
-1.010380e+00
-1.079210e+00
-1.148637e+00
-1.218342e+00
-1.287963e+00
-1.357103e+00
-1.425348e+00
-1.492294e+00
-1.557565e+00
-1.620811e+00
0.000000e+00
-8.969142e-03
-2.348716e-02
-4.226497e-02
-6.457336e-02
-9.016529e-02
-1.189938e-01
-1.510139e-01
-1.861613e-01
-2.243502e-01
-2.654799e-01
-3.094399e-01
-3.561140e-01
-4.053823e-01
-4.571231e-01
-5.112124e-01
-5.675242e-01
-6.259288e-01
-6.862913e-01
-7.484687e-01
-8.123062e-01
-8.776332e-01
-9.442574e-01
-1.011960e+00
-1.080489e+00
-1.149556e+00
-1.218838e+00
-1.287981e+00
-1.356617e+00
-1.424391e+00
-1.491004e+00
-1.556246e+00
-1.620014e+00
0.000000e+00
-1.120423e-02
-2.774025e-02
-4.757581e-02
-7.017489e-02
-9.577554e-02
-1.244827e-01
-1.563266e-01
-1.912736e-01
-2.292523e-01
-2.701686e-01
-3.139151e-01
-3.603766e-01
-4.094338e-01
-4.609647e-01
-5.148450e-01
-5.709477e-01
-6.291422e-01
-6.892917e-01
-7.512508e-01
-8.148615e-01
-8.799487e-01
-9.463151e-01
-1.013736e+00
-1.081954e+00
-1.150678e+00
-1.219585e+00
-1.288329e+00
-1.356562e+00
-1.423972e+00
-1.490335e+00
-1.555583e+00
-1.619874e+00
0.000000e+00
-1.525869e-02
-3.441499e-02
-5.452510e-02
-7.708520e-02
-1.024993e-01
-1.309826e-01
-1.625867e-01
-1.972877e-01
-2.350176e-01
-2.756837e-01
-3.191789e-01
-3.653884e-01
-4.141927e-01
-4.654692e-01
-5.190932e-01
-5.749367e-01
-6.328680e-01
-6.927490e-01
-7.544327e-01
-8.177593e-01
-8.825519e-01
-9.486112e-01
-1.015711e+00
-1.083595e+00
-1.151973e+00
-1.220528e+00
-1.288923e+00
-1.356827e+00
-1.423952e+00
-1.490117e+00
-1.555344e+00
-1.619993e+00
0.000000e+00
-2.456032e-02
-4.286182e-02
-6.283805e-02
-8.508904e-02
-1.102312e-01
-1.384416e-01
-1.697726e-01
-2.041975e-01
-2.416478e-01
-2.820309e-01
-3.252402e-01
-3.711607e-01
-4.196728e-01
-4.706536e-01
-5.239775e-01
-5.795157e-01
-6.371352e-01
-6.966963e-01
-7.580504e-01
-8.210364e-01
-8.854763e-01
-9.511707e-01