TITLE = "Solution"
VARIABLES = x, y, u, v, psiu, psiv, t, stress
ZONE T="structure" N=561 E=512 F=FEBLOCK ET=QUADRILATERAL VARLOCATION=([7,8]=cellcentered)
0.000000e+00
6.250000e+00
1.250000e+01
1.875000e+01
2.500000e+01
3.125000e+01
3.750000e+01
4.375000e+01
5.000000e+01
5.625000e+01
6.250000e+01
6.875000e+01
7.500000e+01
8.125000e+01
8.750000e+01
9.375000e+01
1.000000e+02
1.062500e+02
1.125000e+02
1.187500e+02
1.250000e+02
1.312500e+02
1.375000e+02
1.437500e+02
1.500000e+02
1.562500e+02
1.625000e+02
1.687500e+02
1.750000e+02
1.812500e+02
1.875000e+02
1.937500e+02
2.000000e+02
0.000000e+00
6.250000e+00
1.250000e+01
1.875000e+01
2.500000e+01
3.125000e+01
3.750000e+01
4.375000e+01
5.000000e+01
5.625000e+01
6.250000e+01
6.875000e+01
7.500000e+01
8.125000e+01
8.750000e+01
9.375000e+01
1.000000e+02
1.062500e+02
1.125000e+02
1.187500e+02
1.250000e+02
1.312500e+02
1.375000e+02
1.437500e+02
1.500000e+02
1.562500e+02
1.625000e+02
1.687500e+02
1.750000e+02
1.812500e+02
1.875000e+02
1.937500e+02
2.000000e+02
0.000000e+00
6.250000e+00
1.250000e+01
1.875000e+01
2.500000e+01
3.125000e+01
3.750000e+01
4.375000e+01
5.000000e+01
5.625000e+01
6.250000e+01
6.875000e+01
7.500000e+01
8.125000e+01
8.750000e+01
9.375000e+01
1.000000e+02
1.062500e+02
1.125000e+02
1.187500e+02
1.250000e+02
1.312500e+02
1.375000e+02
1.437500e+02
1.500000e+02
1.562500e+02
1.625000e+02
1.687500e+02
1.750000e+02
1.812500e+02
1.875000e+02
1.937500e+02
2.000000e+02
0.000000e+00
6.250000e+00
1.250000e+01
1.875000e+01
2.500000e+01
3.125000e+01
3.750000e+01
4.375000e+01
5.000000e+01
5.625000e+01
6.250000e+01
6.875000e+01
7.500000e+01
8.125000e+01
8.750000e+01
9.375000e+01
1.000000e+02
1.062500e+02
1.125000e+02
1.187500e+02
1.250000e+02
1.312500e+02
1.375000e+02
1.437500e+02
1.500000e+02
1.562500e+02
1.625000e+02
1.687500e+02
1.750000e+02
1.812500e+02
1.875000e+02
1.937500e+02
2.000000e+02
0.000000e+00
6.250000e+00
1.250000e+01
1.875000e+01
2.500000e+01
3.125000e+01
3.750000e+01
4.375000e+01
5.000000e+01
5.625000e+01
6.250000e+01
6.875000e+01
7.500000e+01
8.125000e+01
8.750000e+01
9.375000e+01
1.000000e+02
1.062500e+02
1.125000e+02
1.187500e+02
1.250000e+02
1.312500e+02
1.375000e+02
1.437500e+02
1.500000e+02
1.562500e+02
1.625000e+02
1.687500e+02
1.750000e+02
1.812500e+02
1.875000e+02
1.937500e+02
2.000000e+02
0.000000e+00
6.250000e+00
1.250000e+01
1.875000e+01
2.500000e+01
3.125000e+01
3.750000e+01
4.375000e+01
5.000000e+01
5.625000e+01
6.250000e+01
6.875000e+01
7.500000e+01
8.125000e+01
8.750000e+01
9.375000e+01
1.000000e+02
1.062500e+02
1.125000e+02
1.187500e+02
1.250000e+02
1.312500e+02
1.375000e+02
1.437500e+02
1.500000e+02
1.562500e+02
1.625000e+02
1.687500e+02
1.750000e+02
1.812500e+02
1.875000e+02
1.937500e+02
2.000000e+02
0.000000e+00
6.250000e+00
1.250000e+01
1.875000e+01
2.500000e+01
3.125000e+01
3.750000e+01
4.375000e+01
5.000000e+01
5.625000e+01
6.250000e+01
6.875000e+01
7.500000e+01
8.125000e+01
8.750000e+01
9.375000e+01
1.000000e+02
1.062500e+02
1.125000e+02
1.187500e+02
1.250000e+02
1.312500e+02
1.375000e+02
1.437500e+02
1.500000e+02
1.562500e+02
1.625000e+02
1.687500e+02
1.750000e+02
1.812500e+02
1.875000e+02
1.937500e+02
2.000000e+02
0.000000e+00
6.250000e+00
1.250000e+01
1.875000e+01
2.500000e+01
3.125000e+01
3.750000e+01
4.375000e+01
5.000000e+01
5.625000e+01
6.250000e+01
6.875000e+01
7.500000e+01
8.125000e+01
8.750000e+01
9.375000e+01
1.000000e+02
1.062500e+02
1.125000e+02
1.187500e+02
1.250000e+02
1.312500e+02
1.375000e+02
1.437500e+02
1.500000e+02
1.562500e+02
1.625000e+02
1.687500e+02
1.750000e+02
1.812500e+02
1.875000e+02
1.937500e+02
2.000000e+02
0.000000e+00
6.250000e+00
1.250000e+01
1.875000e+01
2.500000e+01
3.125000e+01
3.750000e+01
4.375000e+01
5.000000e+01
5.625000e+01
6.250000e+01
6.875000e+01
7.500000e+01
8.125000e+01
8.750000e+01
9.375000e+01
1.000000e+02
1.062500e+02
1.125000e+02
1.187500e+02
1.250000e+02
1.312500e+02
1.375000e+02
1.437500e+02
1.500000e+02
1.562500e+02
1.625000e+02
1.687500e+02
1.750000e+02
1.812500e+02
1.875000e+02
1.937500e+02
2.000000e+02
0.000000e+00
6.250000e+00
1.250000e+01
1.875000e+01
2.500000e+01
3.125000e+01
3.750000e+01
4.375000e+01
5.000000e+01
5.625000e+01
6.250000e+01
6.875000e+01
7.500000e+01
8.125000e+01
8.750000e+01
9.375000e+01
1.000000e+02
1.062500e+02
1.125000e+02
1.187500e+02
1.250000e+02
1.312500e+02
1.375000e+02
1.437500e+02
1.500000e+02
1.562500e+02
1.625000e+02
1.687500e+02
1.750000e+02
1.812500e+02
1.875000e+02
1.937500e+02
2.000000e+02
0.000000e+00
6.250000e+00
1.250000e+01
1.875000e+01
2.500000e+01
3.125000e+01
3.750000e+01
4.375000e+01
5.000000e+01
5.625000e+01
6.250000e+01
6.875000e+01
7.500000e+01
8.125000e+01
8.750000e+01
9.375000e+01
1.000000e+02
1.062500e+02
1.125000e+02
1.187500e+02
1.250000e+02
1.312500e+02
1.375000e+02
1.437500e+02
1.500000e+02
1.562500e+02
1.625000e+02
1.687500e+02
1.750000e+02
1.812500e+02
1.875000e+02
1.937500e+02
2.000000e+02
0.000000e+00
6.250000e+00
1.250000e+01
1.875000e+01
2.500000e+01
3.125000e+01
3.750000e+01
4.375000e+01
5.000000e+01
5.625000e+01
6.250000e+01
6.875000e+01
7.500000e+01
8.125000e+01
8.750000e+01
9.375000e+01
1.000000e+02
1.062500e+02
1.125000e+02
1.187500e+02
1.250000e+02
1.312500e+02
1.375000e+02
1.437500e+02
1.500000e+02
1.562500e+02
1.625000e+02
1.687500e+02
1.750000e+02
1.812500e+02
1.875000e+02
1.937500e+02
2.000000e+02
0.000000e+00
6.250000e+00
1.250000e+01
1.875000e+01
2.500000e+01
3.125000e+01
3.750000e+01
4.375000e+01
5.000000e+01
5.625000e+01
6.250000e+01
6.875000e+01
7.500000e+01
8.125000e+01
8.750000e+01
9.375000e+01
1.000000e+02
1.062500e+02
1.125000e+02
1.187500e+02
1.250000e+02
1.312500e+02
1.375000e+02
1.437500e+02
1.500000e+02
1.562500e+02
1.625000e+02
1.687500e+02
1.750000e+02
1.812500e+02
1.875000e+02
1.937500e+02
2.000000e+02
0.000000e+00
6.250000e+00
1.250000e+01
1.875000e+01
2.500000e+01
3.125000e+01
3.750000e+01
4.375000e+01
5.000000e+01
5.625000e+01
6.250000e+01
6.875000e+01
7.500000e+01
8.125000e+01
8.750000e+01
9.375000e+01
1.000000e+02
1.062500e+02
1.125000e+02
1.187500e+02
1.250000e+02
1.312500e+02
1.375000e+02
1.437500e+02
1.500000e+02
1.562500e+02
1.625000e+02
1.687500e+02
1.750000e+02
1.812500e+02
1.875000e+02
1.937500e+02
2.000000e+02
0.000000e+00
6.250000e+00
1.250000e+01
1.875000e+01
2.500000e+01
3.125000e+01
3.750000e+01
4.375000e+01
5.000000e+01
5.625000e+01
6.250000e+01
6.875000e+01
7.500000e+01
8.125000e+01
8.750000e+01
9.375000e+01
1.000000e+02
1.062500e+02
1.125000e+02
1.187500e+02
1.250000e+02
1.312500e+02
1.375000e+02
1.437500e+02
1.500000e+02
1.562500e+02
1.625000e+02
1.687500e+02
1.750000e+02
1.812500e+02
1.875000e+02
1.937500e+02
2.000000e+02
0.000000e+00
6.250000e+00
1.250000e+01
1.875000e+01
2.500000e+01
3.125000e+01
3.750000e+01
4.375000e+01
5.000000e+01
5.625000e+01
6.250000e+01
6.875000e+01
7.500000e+01
8.125000e+01
8.750000e+01
9.375000e+01
1.000000e+02
1.062500e+02
1.125000e+02
1.187500e+02
1.250000e+02
1.312500e+02
1.375000e+02
1.437500e+02
1.500000e+02
1.562500e+02
1.625000e+02
1.687500e+02
1.750000e+02
1.812500e+02
1.875000e+02
1.937500e+02
2.000000e+02
0.000000e+00
6.250000e+00
1.250000e+01
1.875000e+01
2.500000e+01
3.125000e+01
3.750000e+01
4.375000e+01
5.000000e+01
5.625000e+01
6.250000e+01
6.875000e+01
7.500000e+01
8.125000e+01
8.750000e+01
9.375000e+01
1.000000e+02
1.062500e+02
1.125000e+02
1.187500e+02
1.250000e+02
1.312500e+02
1.375000e+02
1.437500e+02
1.500000e+02
1.562500e+02
1.625000e+02
1.687500e+02
1.750000e+02
1.812500e+02
1.875000e+02
1.937500e+02
2.000000e+02
0.000000e+00
0.000000e+00
0.000000e+00
0.000000e+00
0.000000e+00
0.000000e+00
0.000000e+00
0.000000e+00
0.000000e+00
0.000000e+00
0.000000e+00
0.000000e+00
0.000000e+00
0.000000e+00
0.000000e+00
0.000000e+00
0.000000e+00
0.000000e+00
0.000000e+00
0.000000e+00
0.000000e+00
0.000000e+00
0.000000e+00
0.000000e+00
0.000000e+00
0.000000e+00
0.000000e+00
0.000000e+00
0.000000e+00
0.000000e+00
0.000000e+00
0.000000e+00
0.000000e+00
6.250000e+00
6.250000e+00
6.250000e+00
6.250000e+00
6.250000e+00
6.250000e+00
6.250000e+00
6.250000e+00
6.250000e+00
6.250000e+00
6.250000e+00
6.250000e+00
6.250000e+00
6.250000e+00
6.250000e+00
6.250000e+00
6.250000e+00
6.250000e+00
6.250000e+00
6.250000e+00
6.250000e+00
6.250000e+00
6.250000e+00
6.250000e+00
6.250000e+00
6.250000e+00
6.250000e+00
6.250000e+00
6.250000e+00
6.250000e+00
6.250000e+00
6.250000e+00
6.250000e+00
1.250000e+01
1.250000e+01
1.250000e+01
1.250000e+01
1.250000e+01
1.250000e+01
1.250000e+01
1.250000e+01
1.250000e+01
1.250000e+01
1.250000e+01
1.250000e+01
1.250000e+01
1.250000e+01
1.250000e+01
1.250000e+01
1.250000e+01
1.250000e+01
1.250000e+01
1.250000e+01
1.250000e+01
1.250000e+01
1.250000e+01
1.250000e+01
1.250000e+01
1.250000e+01
1.250000e+01
1.250000e+01
1.250000e+01
1.250000e+01
1.250000e+01
1.250000e+01
1.250000e+01
1.875000e+01
1.875000e+01
1.875000e+01
1.875000e+01
1.875000e+01
1.875000e+01
1.875000e+01
1.875000e+01
1.875000e+01
1.875000e+01
1.875000e+01
1.875000e+01
1.875000e+01
1.875000e+01
1.875000e+01
1.875000e+01
1.875000e+01
1.875000e+01
1.875000e+01
1.875000e+01
1.875000e+01
1.875000e+01
1.875000e+01
1.875000e+01
1.875000e+01
1.875000e+01
1.875000e+01
1.875000e+01
1.875000e+01
1.875000e+01
1.875000e+01
1.875000e+01
1.875000e+01
2.500000e+01
2.500000e+01
2.500000e+01
2.500000e+01
2.500000e+01
2.500000e+01
2.500000e+01
2.500000e+01
2.500000e+01
2.500000e+01
2.500000e+01
2.500000e+01
2.500000e+01
2.500000e+01
2.500000e+01
2.500000e+01
2.500000e+01
2.500000e+01
2.500000e+01
2.500000e+01
2.500000e+01
2.500000e+01
2.500000e+01
2.500000e+01
2.500000e+01
2.500000e+01
2.500000e+01
2.500000e+01
2.500000e+01
2.500000e+01
2.500000e+01
2.500000e+01
2.500000e+01
3.125000e+01
3.125000e+01
3.125000e+01
3.125000e+01
3.125000e+01
3.125000e+01
3.125000e+01
3.125000e+01
3.125000e+01
3.125000e+01
3.125000e+01
3.125000e+01
3.125000e+01
3.125000e+01
3.125000e+01
3.125000e+01
3.125000e+01
3.125000e+01
3.125000e+01
3.125000e+01
3.125000e+01
3.125000e+01
3.125000e+01
3.125000e+01
3.125000e+01
3.125000e+01
3.125000e+01
3.125000e+01
3.125000e+01
3.125000e+01
3.125000e+01
3.125000e+01
3.125000e+01
3.750000e+01
3.750000e+01
3.750000e+01
3.750000e+01
3.750000e+01
3.750000e+01
3.750000e+01
3.750000e+01
3.750000e+01
3.750000e+01
3.750000e+01
3.750000e+01
3.750000e+01
3.750000e+01
3.750000e+01
3.750000e+01
3.750000e+01
3.750000e+01
3.750000e+01
3.750000e+01
3.750000e+01
3.750000e+01
3.750000e+01
3.750000e+01
3.750000e+01
3.750000e+01
3.750000e+01
3.750000e+01
3.750000e+01
3.750000e+01
3.750000e+01
3.750000e+01
3.750000e+01
4.375000e+01
4.375000e+01
4.375000e+01
4.375000e+01
4.375000e+01
4.375000e+01
4.375000e+01
4.375000e+01
4.375000e+01
4.375000e+01
4.375000e+01
4.375000e+01
4.375000e+01
4.375000e+01
4.375000e+01
4.375000e+01
4.375000e+01
4.375000e+01
4.375000e+01
4.375000e+01
4.375000e+01
4.375000e+01
4.375000e+01
4.375000e+01
4.375000e+01
4.375000e+01
4.375000e+01
4.375000e+01
4.375000e+01
4.375000e+01
4.375000e+01
4.375000e+01
4.375000e+01
5.000000e+01
5.000000e+01
5.000000e+01
5.000000e+01
5.000000e+01
5.000000e+01
5.000000e+01
5.000000e+01
5.000000e+01
5.000000e+01
5.000000e+01
5.000000e+01
5.000000e+01
5.000000e+01
5.000000e+01
5.000000e+01
5.000000e+01
5.000000e+01
5.000000e+01
5.000000e+01
5.000000e+01
5.000000e+01
5.000000e+01
5.000000e+01
5.000000e+01
5.000000e+01
5.000000e+01
5.000000e+01
5.000000e+01
5.000000e+01
5.000000e+01
5.000000e+01
5.000000e+01
5.625000e+01
5.625000e+01
5.625000e+01
5.625000e+01
5.625000e+01
5.625000e+01
5.625000e+01
5.625000e+01
5.625000e+01
5.625000e+01
5.625000e+01
5.625000e+01
5.625000e+01
5.625000e+01
5.625000e+01
5.625000e+01
5.625000e+01
5.625000e+01
5.625000e+01
5.625000e+01
5.625000e+01
5.625000e+01
5.625000e+01
5.625000e+01
5.625000e+01
5.625000e+01
5.625000e+01
5.625000e+01
5.625000e+01
5.625000e+01
5.625000e+01
5.625000e+01
5.625000e+01
6.250000e+01
6.250000e+01
6.250000e+01
6.250000e+01
6.250000e+01
6.250000e+01
6.250000e+01
6.250000e+01
6.250000e+01
6.250000e+01
6.250000e+01
6.250000e+01
6.250000e+01
6.250000e+01
6.250000e+01
6.250000e+01
6.250000e+01
6.250000e+01
6.250000e+01
6.250000e+01
6.250000e+01
6.250000e+01
6.250000e+01
6.250000e+01
6.250000e+01
6.250000e+01
6.250000e+01
6.250000e+01
6.250000e+01
6.250000e+01
6.250000e+01
6.250000e+01
6.250000e+01
6.875000e+01
6.875000e+01
6.875000e+01
6.875000e+01
6.875000e+01
6.875000e+01
6.875000e+01
6.875000e+01
6.875000e+01
6.875000e+01
6.875000e+01
6.875000e+01
6.875000e+01
6.875000e+01
6.875000e+01
6.875000e+01
6.875000e+01
6.875000e+01
6.875000e+01
6.875000e+01
6.875000e+01
6.875000e+01
6.875000e+01
6.875000e+01
6.875000e+01
6.875000e+01
6.875000e+01
6.875000e+01
6.875000e+01
6.875000e+01
6.875000e+01
6.875000e+01
6.875000e+01
7.500000e+01
7.500000e+01
7.500000e+01
7.500000e+01
7.500000e+01
7.500000e+01
7.500000e+01
7.500000e+01
7.500000e+01
7.500000e+01
7.500000e+01
7.500000e+01
7.500000e+01
7.500000e+01
7.500000e+01
7.500000e+01
7.500000e+01
7.500000e+01
7.500000e+01
7.500000e+01
7.500000e+01
7.500000e+01
7.500000e+01
7.500000e+01
7.500000e+01
7.500000e+01
7.500000e+01
7.500000e+01
7.500000e+01
7.500000e+01
7.500000e+01
7.500000e+01
7.500000e+01
8.125000e+01
8.125000e+01
8.125000e+01
8.125000e+01
8.125000e+01
8.125000e+01
8.125000e+01
8.125000e+01
8.125000e+01
8.125000e+01
8.125000e+01
8.125000e+01
8.125000e+01
8.125000e+01
8.125000e+01
8.125000e+01
8.125000e+01
8.125000e+01
8.125000e+01
8.125000e+01
8.125000e+01
8.125000e+01
8.125000e+01
8.125000e+01
8.125000e+01
8.125000e+01
8.125000e+01
8.125000e+01
8.125000e+01
8.125000e+01
8.125000e+01
8.125000e+01
8.125000e+01
8.750000e+01
8.750000e+01
8.750000e+01
8.750000e+01
8.750000e+01
8.750000e+01
8.750000e+01
8.750000e+01
8.750000e+01
8.750000e+01
8.750000e+01
8.750000e+01
8.750000e+01
8.750000e+01
8.750000e+01
8.750000e+01
8.750000e+01
8.750000e+01
8.750000e+01
8.750000e+01
8.750000e+01
8.750000e+01
8.750000e+01
8.750000e+01
8.750000e+01
8.750000e+01
8.750000e+01
8.750000e+01
8.750000e+01
8.750000e+01
8.750000e+01
8.750000e+01
8.750000e+01
9.375000e+01
9.375000e+01
9.375000e+01
9.375000e+01
9.375000e+01
9.375000e+01
9.375000e+01
9.375000e+01
9.375000e+01
9.375000e+01
9.375000e+01
9.375000e+01
9.375000e+01
9.375000e+01
9.375000e+01
9.375000e+01
9.375000e+01
9.375000e+01
9.375000e+01
9.375000e+01
9.375000e+01
9.375000e+01
9.375000e+01
9.375000e+01
9.375000e+01
9.375000e+01
9.375000e+01
9.375000e+01
9.375000e+01
9.375000e+01
9.375000e+01
9.375000e+01
9.375000e+01
1.000000e+02
1.000000e+02
1.000000e+02
1.000000e+02
1.000000e+02
1.000000e+02
1.000000e+02
1.000000e+02
1.000000e+02
1.000000e+02
1.000000e+02
1.000000e+02
1.000000e+02
1.000000e+02
1.000000e+02
1.000000e+02
1.000000e+02
1.000000e+02
1.000000e+02
1.000000e+02
1.000000e+02
1.000000e+02
1.000000e+02
1.000000e+02
1.000000e+02
1.000000e+02
1.000000e+02
1.000000e+02
1.000000e+02
1.000000e+02
1.000000e+02
1.000000e+02
1.000000e+02
0.000000e+00
-3.962581e-02
-7.189577e-02
-1.017893e-01
-1.304787e-01
-1.581827e-01
-1.849568e-01
-2.107988e-01
-2.356923e-01
-2.596192e-01
-2.825646e-01
-3.045181e-01
-3.254743e-01
-3.454329e-01
-3.643984e-01
-3.823809e-01
-3.993964e-01
-4.154684e-01
-4.306292e-01
-4.449224e-01
-4.584062e-01
-4.711573e-01
-4.832773e-01
-4.949011e-01
-5.062092e-01
-5.174469e-01
-5.289550e-01
-5.412195e-01
-5.549533e-01
-5.712056e-01
-5.913374e-01
-6.153289e-01
-6.299707e-01
0.000000e+00
-2.656804e-02
-5.527767e-02
-8.234705e-02
-1.080755e-01
-1.327079e-01
-1.563744e-01
-1.791320e-01
-2.010035e-01
-2.219961e-01
-2.421112e-01
-2.613490e-01
-2.797102e-01
-2.971978e-01
-3.138178e-01
-3.295792e-01
-3.444955e-01
-3.585852e-01
-3.718726e-01
-3.843895e-01
-3.961763e-01
-4.072840e-01
-4.177759e-01
-4.277293e-01
-4.372369e-01
-4.464049e-01
-4.553459e-01
-4.641522e-01
-4.728232e-01
-4.810768e-01
-4.879544e-01
-4.919753e-01
-4.975731e-01
0.000000e+00
-2.107384e-02
-4.338556e-02
-6.610244e-02
-8.817622e-02
-1.094365e-01
-1.298698e-01
-1.494954e-01
-1.683306e-01
-1.863874e-01
-2.036734e-01
-2.201940e-01
-2.359538e-01
-2.509574e-01
-2.652103e-01
-2.787196e-01
-2.914940e-01
-3.035445e-01
-3.148845e-01
-3.255305e-01
-3.355008e-01
-3.448157e-01
-3.534951e-01
-3.615543e-01
-3.689965e-01
-3.757979e-01
-3.818806e-01
-3.870657e-01
-3.910024e-01
-3.931222e-01
-3.929363e-01
-3.917460e-01
-3.982827e-01
0.000000e+00
-1.672022e-02
-3.436386e-02
-5.249050e-02
-7.057466e-02
-8.822078e-02
-1.052777e-01
-1.216913e-01
-1.374469e-01
-1.525438e-01
-1.669859e-01
-1.807781e-01
-1.939250e-01
-2.064307e-01
-2.182989e-01
-2.295330e-01
-2.401360e-01
-2.501108e-01
-2.594592e-01
-2.681820e-01
-2.762767e-01
-2.837360e-01
-2.905435e-01
-2.966673e-01
-3.020509e-01
-3.065994e-01
-3.101621e-01
-3.125215e-01
-3.134223e-01
-3.127535e-01
-3.111293e-01
-3.110324e-01
-3.172603e-01
0.000000e+00
-1.297722e-02
-2.657293e-02
-4.060295e-02
-5.474694e-02
-6.871746e-02
-8.232174e-02
-9.546218e-02
-1.080944e-01
-1.202014e-01
-1.317786e-01
-1.428267e-01
-1.533478e-01
-1.633436e-01
-1.728147e-01
-1.817604e-01
-1.901778e-01
-1.980619e-01
-2.054045e-01
-2.121933e-01
-2.184101e-01
-2.240283e-01
-2.290095e-01
-2.332990e-01
-2.368208e-01
-2.394755e-01
-2.411460e-01
-2.417320e-01
-2.412513e-01
-2.400750e-01
-2.393118e-01
-2.410741e-01
-2.463868e-01
0.000000e+00
-9.537505e-03
-1.948363e-02
-2.974930e-02
-4.015712e-02
-5.051283e-02
-6.066218e-02
-7.050491e-02
-7.998601e-02
-8.907871e-02
-9.777172e-02
-1.060611e-01
-1.139453e-01
-1.214231e-01
-1.284916e-01
-1.351457e-01
-1.413776e-01
-1.471758e-01
-1.525247e-01
-1.574034e-01
-1.617844e-01
-1.656321e-01
-1.689016e-01
-1.715380e-01
-1.734788e-01
-1.746631e-01
-1.750560e-01
-1.747034e-01
-1.738344e-01
-1.730076e-01
-1.732089e-01
-1.754555e-01
-1.798514e-01
0.000000e+00
-6.276825e-03
-1.280193e-02
-1.953402e-02
-2.637711e-02
-3.321601e-02
-3.994759e-02
-4.649665e-02
-5.281616e-02
-5.888016e-02
-6.467553e-02
-7.019567e-02
-7.543636e-02
-8.039323e-02
-8.506030e-02
-8.942904e-02
-9.348766e-02
-9.722055e-02
-1.006077e-01
-1.036242e-01
-1.062396e-01
-1.084186e-01
-1.101215e-01
-1.113082e-01
-1.119458e-01
-1.120249e-01
-1.115890e-01
-1.107822e-01
-1.099117e-01
-1.094898e-01
-1.101481e-01
-1.123355e-01
-1.158839e-01
0.000000e+00
-3.117697e-03
-6.353261e-03
-9.690062e-03
-1.308596e-02
-1.648730e-02
-1.984315e-02
-2.311363e-02
-2.627182e-02
-2.930126e-02
-3.219220e-02
-3.493819e-02
-3.753362e-02
-3.997204e-02
-4.224515e-02
-4.434203e-02
-4.624862e-02
-4.794731e-02
-4.941675e-02
-5.063191e-02
-5.156471e-02
-5.218561e-02
-5.246688e-02
-5.238865e-02
-5.194938e-02
-5.118260e-02
-5.018110e-02
-4.912586e-02
-4.830667e-02
-4.810147e-02
-4.887388e-02
-5.078204e-02
-5.359763e-02
0.000000e+00
-5.030091e-06
-1.090667e-05
-1.730419e-05
-2.388614e-05
-3.019878e-05
-3.555833e-05
-3.892565e-05
-3.875994e-05
-3.284245e-05
-1.806384e-05
9.828849e-06
5.652501e-05
1.294767e-04
2.382429e-04
3.948212e-04
6.139165e-04
9.130631e-04
1.312468e-03
1.834378e-03
2.501665e-03
3.335204e-03
4.349454e-03
5.545516e-03
6.900985e-03
8.356483e-03
9.800575e-03
1.105872e-02
1.189858e-02
1.206890e-02
1.138311e-02
9.830026e-03
7.654848e-03
0.000000e+00
3.108223e-03
6.332676e-03
9.657337e-03
1.304068e-02
1.642989e-02
1.977530e-02
2.303897e-02
2.619684e-02
2.923662e-02
3.215437e-02
3.495163e-02
3.763348e-02
4.020753e-02
4.268348e-02
4.507311e-02
4.739023e-02
4.965055e-02
5.187133e-02
5.407029e-02
5.626389e-02
5.846418e-02
6.067432e-02
6.288202e-02
6.505142e-02
6.711403e-02
6.896190e-02
7.044815e-02
7.140310e-02
7.167346e-02
7.118382e-02
7.000402e-02
6.838961e-02
0.000000e+00
6.269085e-03
1.278499e-02
1.950691e-02
2.633931e-02
3.316764e-02
3.988974e-02
4.643198e-02
5.274959e-02
5.881994e-02
6.463462e-02
7.019350e-02
7.550108e-02
8.056451e-02
8.539267e-02
8.999586e-02
9.438558e-02
9.857437e-02
1.025752e-01
1.064005e-01
1.100602e-01
1.135589e-01
1.168918e-01
1.200398e-01
1.229632e-01
1.255973e-01
1.278503e-01
1.296101e-01
1.307618e-01
1.312223e-01
1.309855e-01
1.301692e-01
1.290424e-01
0.000000e+00
9.532568e-03
1.947263e-02
2.973139e-02
4.013169e-02
5.047963e-02
6.062156e-02
7.045815e-02
7.993582e-02
8.902989e-02
9.773207e-02
1.060425e-01
1.139655e-01
1.215073e-01
1.286748e-01
1.354757e-01
1.419181e-01
1.480101e-01
1.537595e-01
1.591730e-01
1.642543e-01
1.690022e-01
1.734077e-01
1.774498e-01
1.810929e-01
1.842840e-01
1.869543e-01
1.890268e-01
1.904323e-01
1.911365e-01
1.911762e-01
1.906973e-01
1.899851e-01
0.000000e+00
1.297600e-02
2.656987e-02
4.059746e-02
5.473845e-02
6.870549e-02
8.230599e-02
9.544262e-02
1.080714e-01
1.201760e-01
1.317528e-01
1.428038e-01
1.533330e-01
1.633448e-01
1.728434e-01
1.818327e-01
1.903160e-01
1.982962e-01
2.057752e-01
2.127533e-01
2.192285e-01
2.251947e-01
2.306406e-01
2.355472e-01
2.398870e-01
2.436236e-01
2.467142e-01
2.491162e-01
2.507995e-01
2.517667e-01
2.520804e-01
2.519006e-01
2.515254e-01
0.000000e+00
1.672333e-02
3.437018e-02
5.249990e-02
7.058687e-02
8.823545e-02
1.052944e-01
1.217091e-01
1.374644e-01
1.525590e-01
1.669954e-01
1.807771e-01
1.939067e-01
2.063855e-01
2.182138e-01
2.293908e-01
2.399141e-01
2.497805e-01
2.589850e-01
2.675211e-01
2.753802e-01
2.825513e-01
2.890209e-01
2.947725e-01
2.997879e-01
3.040483e-01
3.075376e-01
3.102481e-01
3.121880e-01
3.133935e-01
3.139481e-01
3.140142e-01
3.138897e-01
0.000000e+00
2.108142e-02
4.340175e-02
6.612779e-02
8.821121e-02
1.094816e-01
1.299250e-01
1.495601e-01
1.684030e-01
1.864637e-01
2.037471e-01
2.202545e-01
2.359849e-01
2.509352e-01
2.651008e-01
2.784752e-01
2.910503e-01
3.028157e-01
3.137590e-01
3.238656e-01
3.331190e-01
3.415012e-01
3.489939e-01
3.555803e-01
3.612480e-01
3.659926e-01
3.698227e-01
3.727653e-01
3.748713e-01
3.762202e-01
3.769262e-01
3.771562e-01
3.771836e-01
0.000000e+00
2.657942e-02
5.530254e-02
8.238706e-02
1.081326e-01
1.327840e-01
1.564712e-01
1.792505e-01
2.011432e-01
2.221541e-01
2.422811e-01
2.615186e-01
2.798593e-01
2.972948e-01
3.138152e-01
3.294088e-01
3.440613e-01
3.577555e-01
3.704708e-01
3.821833e-01
3.928659e-01
4.024898e-01
4.110267e-01
4.184521e-01
4.247505e-01
4.299223e-01
4.339920e-01
4.370168e-01
4.390947e-01
4.403679e-01
4.410183e-01
4.412542e-01
4.413119e-01
0.000000e+00
3.963827e-02
7.192484e-02
1.018391e-01
1.305533e-01
1.582860e-01
1.850932e-01
2.109722e-01
2.359059e-01
2.598743e-01
2.828591e-01
3.048441e-01
3.258152e-01
3.457592e-01
3.646620e-01
3.825078e-01
3.992778e-01
4.149485e-01
4.294913e-01
4.428717e-01
4.550495e-01
4.659798e-01
4.756158e-01
4.839132e-01
4.908378e-01
4.963755e-01
5.005462e-01
5.034194e-01
5.051320e-01
5.059036e-01
5.060439e-01
5.059277e-01
5.058623e-01
0.000000e+00
-2.448800e-02
-4.273684e-02
-6.265071e-02
-8.482600e-02
-1.098752e-01
-1.379724e-01
-1.691664e-01
-2.034262e-01
-2.406783e-01
-2.808240e-01
-3.237496e-01
-3.693328e-01
-4.174459e-01
-4.679589e-01
-5.207407e-01
-5.756610e-01
-6.325919e-01
-6.914098e-01
-7.519981e-01
-8.142514e-01
-8.780810e-01
-9.434235e-01
-1.010254e+00
-1.078605e+00
-1.148604e+00
-1.220529e+00
-1.294922e+00
-1.372823e+00
-1.456288e+00
-1.549753e+00
-1.663687e+00
-1.821089e+00
0.000000e+00
-1.521836e-02
-3.432008e-02
-5.436829e-02
-7.685267e-02
-1.021740e-01
-1.305442e-01
-1.620113e-01
-1.965468e-01
-2.340773e-01
-2.745036e-01
-3.177111e-01
-3.635763e-01
-4.119705e-01
-4.627625e-01
-5.158199e-01
-5.710109e-01
-6.282054e-01
-6.872777e-01
-7.481081e-01
-8.105877e-01
-8.746231e-01
-9.401451e-01
-1.007121e+00
-1.075576e+00
-1.145624e+00
-1.217529e+00
-1.291818e+00
-1.369506e+00
-1.452616e+00
-1.545360e+00
-1.656757e+00
-1.803812e+00
0.000000e+00
-1.117876e-02
-2.766868e-02
-4.744341e-02
-6.996707e-02
-9.547500e-02
-1.240691e-01
-1.557760e-01
-1.905575e-01
-2.283366e-01
-2.690125e-01
-3.124697e-01
-3.585841e-01
-4.072267e-01
-4.582656e-01
-5.115679e-01
-5.670013e-01
-6.244350e-01
-6.837421e-01
-7.448024e-01
-8.075057e-01
-8.717580e-01
-9.374900e-01
-1.004670e+00
-1.073325e+00
-1.143577e+00
-1.215702e+00
-1.290237e+00
-1.368189e+00
-1.451378e+00
-1.542915e+00
-1.646475e+00
-1.761355e+00
0.000000e+00
-8.951476e-03
-2.342979e-02
-4.215003e-02
-6.438423e-02
-8.988423e-02
-1.186007e-01
-1.504852e-01
-1.854691e-01
-2.234613e-01
-2.643545e-01
-3.080304e-01
-3.543639e-01
-4.032255e-01
-4.544837e-01
-5.080059e-01
-5.636601e-01
-6.213161e-01
-6.808478e-01
-7.421357e-01
-8.050713e-01
-8.695628e-01
-9.355443e-01
-1.002989e+00
-1.071931e+00
-1.142498e+00
-1.214962e+00
-1.289821e+00
-1.367896e+00
-1.450386e+00
-1.538442e+00
-1.631313e+00
-1.717766e+00
0.000000e+00
-7.574421e-03
-2.065771e-02
-3.839111e-02
-6.011846e-02
-8.545128e-02
-1.141785e-01
-1.461666e-01
-1.813000e-01
-2.194638e-01
-2.605388e-01
-3.044010e-01
-3.509233e-01
-3.999758e-01
-4.514274e-01
-5.051465e-01
-5.610023e-01
-6.188661e-01
-6.786136e-01
-7.401274e-01
-8.033011e-01
-8.680460e-01
-9.342989e-01
-1.002035e+00
-1.071285e+00
-1.142162e+00
-1.214888e+00
-1.289819e+00
-1.367430e+00
-1.448101e+00
-1.531446e+00
-1.614407e+00
-1.689699e+00
0.000000e+00
-6.698188e-03
-1.883888e-02
-3.580438e-02
-5.704264e-02
-8.213816e-02
-1.108029e-01
-1.428320e-01
-1.780638e-01
-2.163562e-01
-2.575751e-01
-3.015895e-01
-3.482689e-01
-3.974829e-01
-4.491010e-01
-5.029930e-01
-5.590297e-01
-6.170846e-01
-6.770350e-01
-7.387654e-01
-8.021713e-01
-8.671642e-01
-9.336789e-01
-1.001683e+00
-1.071190e+00
-1.142265e+00
-1.215034e+00
-1.289654e+00
-1.366212e+00
-1.444450e+00
-1.523174e+00
-1.599573e+00
-1.669402e+00
0.000000e+00
-6.153619e-03
-1.768892e-02
-3.412295e-02
-5.498206e-02
-7.986133e-02
-1.084410e-01
-1.404740e-01
-1.757640e-01
-2.141454e-01
-2.554705e-01
-2.996011e-01
-3.464037e-01
-3.957475e-01
-4.475026e-01
-5.015403e-01
-5.577333e-01
-6.159565e-01
-6.760889e-01
-7.380158e-01
-8.016315e-01
-8.668441e-01
-9.335798e-01
-1.001788e+00
-1.071446e+00
-1.142554e+00
-1.215119e+00
-1.289100e+00
-1.364282e+00
-1.440054e+00
-1.515105e+00
-1.587271e+00
-1.653902e+00
0.000000e+00
-5.854371e-03
-1.705084e-02
-3.317543e-02
-5.380050e-02
-7.853509e-02
-1.070492e-01
-1.390752e-01
-1.743965e-01
-2.128330e-01
-2.542276e-01
-2.984375e-01
-3.453272e-01
-3.947659e-01
-4.466248e-01
-5.007765e-01
-5.570951e-01
-6.154569e-01
-6.757411e-01
-7.378318e-01
-8.016197e-01
-8.670046e-01
-9.338975e-01
-1.002221e+00
-1.071908e+00
-1.142885e+00
-1.215048e+00
-1.288201e+00
-1.361952e+00
-1.435577e+00
-1.507894e+00
-1.577274e+00
-1.641908e+00
0.000000e+00
-5.757954e-03
-1.684497e-02
-3.286833e-02
-5.341542e-02
-7.810104e-02
-1.065933e-01
-1.386188e-01
-1.739550e-01
-2.124172e-01
-2.538458e-01
-2.980967e-01
-3.450351e-01
-3.945306e-01
-4.464558e-01
-5.006846e-01
-5.570923e-01
-6.155554e-01
-6.759522e-01
-7.381637e-01
-8.020741e-01
-8.675716e-01
-9.345474e-01
-1.002893e+00
-1.072494e+00
-1.143211e+00
-1.214852e+00
-1.287123e+00
-1.359555e+00
-1.431436e+00
-1.501765e+00
-1.569300e+00
-1.632717e+00
0.000000e+00
-5.851582e-03
-1.704697e-02
-3.317209e-02
-5.379949e-02
-7.853863e-02
-1.070602e-01
-1.390975e-01
-1.744354e-01
-2.128950e-01
-2.543215e-01
-2.985741e-01
-3.455200e-01
-3.950311e-01
-4.469813e-01
-5.012458e-01
-5.577002e-01
-6.162207e-01
-6.766835e-01
-7.389651e-01
-8.029414e-01
-8.684867e-01
-9.354709e-01
-1.003755e+00
-1.073180e+00
-1.143555e+00
-1.214626e+00
-1.286048e+00
-1.357339e+00
-1.427851e+00
-1.496759e+00
-1.563101e+00
-1.625866e+00
0.000000e+00
-6.148267e-03
-1.768149e-02
-3.411652e-02
-5.498005e-02
-7.986797e-02
-1.084619e-01
-1.405166e-01
-1.758381e-01
-2.142640e-01
-2.556502e-01
-2.998627e-01
-3.467732e-01
-3.962560e-01
-4.481866e-01
-5.024411e-01
-5.588952e-01
-6.174240e-01
-6.779011e-01
-7.401975e-01
-8.041800e-01
-8.697088e-01
-9.366335e-01
-1.004787e+00
-1.073976e+00
-1.143967e+00
-1.214473e+00
-1.285126e+00
-1.355466e+00
-1.424924e+00
-1.492833e+00
-1.558452e+00
-1.621003e+00
0.000000e+00
-6.690749e-03
-1.882855e-02
-3.579540e-02
-5.703973e-02
-8.214725e-02
-1.108319e-01
-1.428911e-01
-1.781670e-01
-2.165216e-01
-2.578259e-01
-3.019550e-01
-3.487853e-01
-3.981940e-01
-4.500581e-01
-5.042541e-01
-5.606576e-01
-6.191421e-01
-6.795783e-01
-7.418317e-01
-8.057607e-01
-8.712127e-01
-9.380194e-01
-1.005991e+00
-1.074906e+00
-1.144507e+00
-1.214483e+00
-1.284466e+00
-1.354028e+00
-1.422683e+00
-1.489902e+00
-1.555135e+00
-1.617815e+00
0.000000e+00
-7.565658e-03
-2.064556e-02
-3.838053e-02
-6.011509e-02
-8.546229e-02
-1.142134e-01
-1.462380e-01
-1.814247e-01
-2.196636e-01
-2.608418e-01
-3.048429e-01
-3.515479e-01
-4.008361e-01
-4.525855e-01
-5.066730e-01
-5.629734e-01
-6.213589e-01
-6.816973e-01
-7.438494e-01
-8.076664e-01
-8.729854e-01
-9.396242e-01
-1.007375e+00
-1.076000e+00
-1.145221e+00
-1.214719e+00
-1.284133e+00
-1.353067e+00
-1.421109e+00
-1.487856e+00
-1.552933e+00
-1.615991e+00
0.000000e+00
-8.942470e-03
-2.341732e-02
-4.213928e-02
-6.438134e-02
-8.989716e-02
-1.186400e-01
-1.505649e-01
-1.856077e-01
-2.236831e-01
-2.646904e-01
-3.085197e-01
-3.550550e-01
-4.041768e-01
-4.557637e-01
-5.096922e-01
-5.658365e-01
-6.240675e-01
-6.842505e-01
-7.462430e-01
-8.098907e-01
-8.750234e-01
-9.414495e-01
-1.008951e+00
-1.077276e+00
-1.146138e+00
-1.215214e+00
-1.284151e+00
-1.352582e+00
-1.420155e+00
-1.486570e+00
-1.551618e+00
-1.615196e+00
0.000000e+00
-1.117091e-02
-2.765776e-02
-4.743434e-02
-6.996621e-02
-9.549073e-02
-1.241125e-01
-1.558617e-01
-1.907048e-01
-2.285706e-01
-2.693652e-01
-3.129816e-01
-3.593049e-01
-4.082163e-01
-4.595939e-01
-5.133140e-01
-5.692499e-01
-6.272713e-01
-6.872420e-01
-7.490168e-01
-8.124383e-01
-8.773319e-01
-9.435010e-01
-1.010721e+00
-1.078737e+00
-1.147256e+00
-1.215958e+00
-1.284497e+00
-1.352528e+00
-1.419737e+00
-1.485903e+00
-1.550957e+00
-1.615057e+00
0.000000e+00
-1.521331e-02
-3.431265e-02
-5.436296e-02
-7.685597e-02
-1.021945e-01
-1.305931e-01
-1.621032e-01
-1.967011e-01
-2.343187e-01
-2.748638e-01
-3.182298e-01
-3.643019e-01
-4.129610e-01
-4.640851e-01
-5.175495e-01
-5.732270e-01
-6.309860e-01
-6.906890e-01
-7.521893e-01
-8.153276e-01
-8.799274e-01
-9.457903e-01
-1.012691e+00
-1.080373e+00
-1.148548e+00
-1.216899e+00
-1.285090e+00
-1.352793e+00
-1.419718e+00
-1.485686e+00
-1.550718e+00
-1.615175e+00
0.000000e+00
-2.448728e-02
-4.273436e-02
-6.265119e-02
-8.483600e-02
-1.099034e-01
-1.380299e-01
-1.692678e-01
-2.035903e-01
-2.409292e-01
-2.811922e-01
-3.242730e-01
-3.700570e-01
-4.184248e-01
-4.692540e-01
-5.224194e-01
-5.777924e-01
-6.352405e-01
-6.946245e-01
-7.557962e-01
-8.185949e-01
-8.828431e-01
-9.483421e-01