TITLE = "Solution"
VARIABLES = x, y, u, v, psiu, psiv, t, stress
ZONE T="structure" N=561 E=512 F=FEBLOCK ET=QUADRILATERAL VARLOCATION=([7,8]=cellcentered)
0.000000e+00
6.250000e+00
1.250000e+01
1.875000e+01
2.500000e+01
3.125000e+01
3.750000e+01
4.375000e+01
5.000000e+01
5.625000e+01
6.250000e+01
6.875000e+01
7.500000e+01
8.125000e+01
8.750000e+01
9.375000e+01
1.000000e+02
1.062500e+02
1.125000e+02
1.187500e+02
1.250000e+02
1.312500e+02
1.375000e+02
1.437500e+02
1.500000e+02
1.562500e+02
1.625000e+02
1.687500e+02
1.750000e+02
1.812500e+02
1.875000e+02
1.937500e+02
2.000000e+02
0.000000e+00
6.250000e+00
1.250000e+01
1.875000e+01
2.500000e+01
3.125000e+01
3.750000e+01
4.375000e+01
5.000000e+01
5.625000e+01
6.250000e+01
6.875000e+01
7.500000e+01
8.125000e+01
8.750000e+01
9.375000e+01
1.000000e+02
1.062500e+02
1.125000e+02
1.187500e+02
1.250000e+02
1.312500e+02
1.375000e+02
1.437500e+02
1.500000e+02
1.562500e+02
1.625000e+02
1.687500e+02
1.750000e+02
1.812500e+02
1.875000e+02
1.937500e+02
2.000000e+02
0.000000e+00
6.250000e+00
1.250000e+01
1.875000e+01
2.500000e+01
3.125000e+01
3.750000e+01
4.375000e+01
5.000000e+01
5.625000e+01
6.250000e+01
6.875000e+01
7.500000e+01
8.125000e+01
8.750000e+01
9.375000e+01
1.000000e+02
1.062500e+02
1.125000e+02
1.187500e+02
1.250000e+02
1.312500e+02
1.375000e+02
1.437500e+02
1.500000e+02
1.562500e+02
1.625000e+02
1.687500e+02
1.750000e+02
1.812500e+02
1.875000e+02
1.937500e+02
2.000000e+02
0.000000e+00
6.250000e+00
1.250000e+01
1.875000e+01
2.500000e+01
3.125000e+01
3.750000e+01
4.375000e+01
5.000000e+01
5.625000e+01
6.250000e+01
6.875000e+01
7.500000e+01
8.125000e+01
8.750000e+01
9.375000e+01
1.000000e+02
1.062500e+02
1.125000e+02
1.187500e+02
1.250000e+02
1.312500e+02
1.375000e+02
1.437500e+02
1.500000e+02
1.562500e+02
1.625000e+02
1.687500e+02
1.750000e+02
1.812500e+02
1.875000e+02
1.937500e+02
2.000000e+02
0.000000e+00
6.250000e+00
1.250000e+01
1.875000e+01
2.500000e+01
3.125000e+01
3.750000e+01
4.375000e+01
5.000000e+01
5.625000e+01
6.250000e+01
6.875000e+01
7.500000e+01
8.125000e+01
8.750000e+01
9.375000e+01
1.000000e+02
1.062500e+02
1.125000e+02
1.187500e+02
1.250000e+02
1.312500e+02
1.375000e+02
1.437500e+02
1.500000e+02
1.562500e+02
1.625000e+02
1.687500e+02
1.750000e+02
1.812500e+02
1.875000e+02
1.937500e+02
2.000000e+02
0.000000e+00
6.250000e+00
1.250000e+01
1.875000e+01
2.500000e+01
3.125000e+01
3.750000e+01
4.375000e+01
5.000000e+01
5.625000e+01
6.250000e+01
6.875000e+01
7.500000e+01
8.125000e+01
8.750000e+01
9.375000e+01
1.000000e+02
1.062500e+02
1.125000e+02
1.187500e+02
1.250000e+02
1.312500e+02
1.375000e+02
1.437500e+02
1.500000e+02
1.562500e+02
1.625000e+02
1.687500e+02
1.750000e+02
1.812500e+02
1.875000e+02
1.937500e+02
2.000000e+02
0.000000e+00
6.250000e+00
1.250000e+01
1.875000e+01
2.500000e+01
3.125000e+01
3.750000e+01
4.375000e+01
5.000000e+01
5.625000e+01
6.250000e+01
6.875000e+01
7.500000e+01
8.125000e+01
8.750000e+01
9.375000e+01
1.000000e+02
1.062500e+02
1.125000e+02
1.187500e+02
1.250000e+02
1.312500e+02
1.375000e+02
1.437500e+02
1.500000e+02
1.562500e+02
1.625000e+02
1.687500e+02
1.750000e+02
1.812500e+02
1.875000e+02
1.937500e+02
2.000000e+02
0.000000e+00
6.250000e+00
1.250000e+01
1.875000e+01
2.500000e+01
3.125000e+01
3.750000e+01
4.375000e+01
5.000000e+01
5.625000e+01
6.250000e+01
6.875000e+01
7.500000e+01
8.125000e+01
8.750000e+01
9.375000e+01
1.000000e+02
1.062500e+02
1.125000e+02
1.187500e+02
1.250000e+02
1.312500e+02
1.375000e+02
1.437500e+02
1.500000e+02
1.562500e+02
1.625000e+02
1.687500e+02
1.750000e+02
1.812500e+02
1.875000e+02
1.937500e+02
2.000000e+02
0.000000e+00
6.250000e+00
1.250000e+01
1.875000e+01
2.500000e+01
3.125000e+01
3.750000e+01
4.375000e+01
5.000000e+01
5.625000e+01
6.250000e+01
6.875000e+01
7.500000e+01
8.125000e+01
8.750000e+01
9.375000e+01
1.000000e+02
1.062500e+02
1.125000e+02
1.187500e+02
1.250000e+02
1.312500e+02
1.375000e+02
1.437500e+02
1.500000e+02
1.562500e+02
1.625000e+02
1.687500e+02
1.750000e+02
1.812500e+02
1.875000e+02
1.937500e+02
2.000000e+02
0.000000e+00
6.250000e+00
1.250000e+01
1.875000e+01
2.500000e+01
3.125000e+01
3.750000e+01
4.375000e+01
5.000000e+01
5.625000e+01
6.250000e+01
6.875000e+01
7.500000e+01
8.125000e+01
8.750000e+01
9.375000e+01
1.000000e+02
1.062500e+02
1.125000e+02
1.187500e+02
1.250000e+02
1.312500e+02
1.375000e+02
1.437500e+02
1.500000e+02
1.562500e+02
1.625000e+02
1.687500e+02
1.750000e+02
1.812500e+02
1.875000e+02
1.937500e+02
2.000000e+02
0.000000e+00
6.250000e+00
1.250000e+01
1.875000e+01
2.500000e+01
3.125000e+01
3.750000e+01
4.375000e+01
5.000000e+01
5.625000e+01
6.250000e+01
6.875000e+01
7.500000e+01
8.125000e+01
8.750000e+01
9.375000e+01
1.000000e+02
1.062500e+02
1.125000e+02
1.187500e+02
1.250000e+02
1.312500e+02
1.375000e+02
1.437500e+02
1.500000e+02
1.562500e+02
1.625000e+02
1.687500e+02
1.750000e+02
1.812500e+02
1.875000e+02
1.937500e+02
2.000000e+02
0.000000e+00
6.250000e+00
1.250000e+01
1.875000e+01
2.500000e+01
3.125000e+01
3.750000e+01
4.375000e+01
5.000000e+01
5.625000e+01
6.250000e+01
6.875000e+01
7.500000e+01
8.125000e+01
8.750000e+01
9.375000e+01
1.000000e+02
1.062500e+02
1.125000e+02
1.187500e+02
1.250000e+02
1.312500e+02
1.375000e+02
1.437500e+02
1.500000e+02
1.562500e+02
1.625000e+02
1.687500e+02
1.750000e+02
1.812500e+02
1.875000e+02
1.937500e+02
2.000000e+02
0.000000e+00
6.250000e+00
1.250000e+01
1.875000e+01
2.500000e+01
3.125000e+01
3.750000e+01
4.375000e+01
5.000000e+01
5.625000e+01
6.250000e+01
6.875000e+01
7.500000e+01
8.125000e+01
8.750000e+01
9.375000e+01
1.000000e+02
1.062500e+02
1.125000e+02
1.187500e+02
1.250000e+02
1.312500e+02
1.375000e+02
1.437500e+02
1.500000e+02
1.562500e+02
1.625000e+02
1.687500e+02
1.750000e+02
1.812500e+02
1.875000e+02
1.937500e+02
2.000000e+02
0.000000e+00
6.250000e+00
1.250000e+01
1.875000e+01
2.500000e+01
3.125000e+01
3.750000e+01
4.375000e+01
5.000000e+01
5.625000e+01
6.250000e+01
6.875000e+01
7.500000e+01
8.125000e+01
8.750000e+01
9.375000e+01
1.000000e+02
1.062500e+02
1.125000e+02
1.187500e+02
1.250000e+02
1.312500e+02
1.375000e+02
1.437500e+02
1.500000e+02
1.562500e+02
1.625000e+02
1.687500e+02
1.750000e+02
1.812500e+02
1.875000e+02
1.937500e+02
2.000000e+02
0.000000e+00
6.250000e+00
1.250000e+01
1.875000e+01
2.500000e+01
3.125000e+01
3.750000e+01
4.375000e+01
5.000000e+01
5.625000e+01
6.250000e+01
6.875000e+01
7.500000e+01
8.125000e+01
8.750000e+01
9.375000e+01
1.000000e+02
1.062500e+02
1.125000e+02
1.187500e+02
1.250000e+02
1.312500e+02
1.375000e+02
1.437500e+02
1.500000e+02
1.562500e+02
1.625000e+02
1.687500e+02
1.750000e+02
1.812500e+02
1.875000e+02
1.937500e+02
2.000000e+02
0.000000e+00
6.250000e+00
1.250000e+01
1.875000e+01
2.500000e+01
3.125000e+01
3.750000e+01
4.375000e+01
5.000000e+01
5.625000e+01
6.250000e+01
6.875000e+01
7.500000e+01
8.125000e+01
8.750000e+01
9.375000e+01
1.000000e+02
1.062500e+02
1.125000e+02
1.187500e+02
1.250000e+02
1.312500e+02
1.375000e+02
1.437500e+02
1.500000e+02
1.562500e+02
1.625000e+02
1.687500e+02
1.750000e+02
1.812500e+02
1.875000e+02
1.937500e+02
2.000000e+02
0.000000e+00
6.250000e+00
1.250000e+01
1.875000e+01
2.500000e+01
3.125000e+01
3.750000e+01
4.375000e+01
5.000000e+01
5.625000e+01
6.250000e+01
6.875000e+01
7.500000e+01
8.125000e+01
8.750000e+01
9.375000e+01
1.000000e+02
1.062500e+02
1.125000e+02
1.187500e+02
1.250000e+02
1.312500e+02
1.375000e+02
1.437500e+02
1.500000e+02
1.562500e+02
1.625000e+02
1.687500e+02
1.750000e+02
1.812500e+02
1.875000e+02
1.937500e+02
2.000000e+02
0.000000e+00
0.000000e+00
0.000000e+00
0.000000e+00
0.000000e+00
0.000000e+00
0.000000e+00
0.000000e+00
0.000000e+00
0.000000e+00
0.000000e+00
0.000000e+00
0.000000e+00
0.000000e+00
0.000000e+00
0.000000e+00
0.000000e+00
0.000000e+00
0.000000e+00
0.000000e+00
0.000000e+00
0.000000e+00
0.000000e+00
0.000000e+00
0.000000e+00
0.000000e+00
0.000000e+00
0.000000e+00
0.000000e+00
0.000000e+00
0.000000e+00
0.000000e+00
0.000000e+00
6.250000e+00
6.250000e+00
6.250000e+00
6.250000e+00
6.250000e+00
6.250000e+00
6.250000e+00
6.250000e+00
6.250000e+00
6.250000e+00
6.250000e+00
6.250000e+00
6.250000e+00
6.250000e+00
6.250000e+00
6.250000e+00
6.250000e+00
6.250000e+00
6.250000e+00
6.250000e+00
6.250000e+00
6.250000e+00
6.250000e+00
6.250000e+00
6.250000e+00
6.250000e+00
6.250000e+00
6.250000e+00
6.250000e+00
6.250000e+00
6.250000e+00
6.250000e+00
6.250000e+00
1.250000e+01
1.250000e+01
1.250000e+01
1.250000e+01
1.250000e+01
1.250000e+01
1.250000e+01
1.250000e+01
1.250000e+01
1.250000e+01
1.250000e+01
1.250000e+01
1.250000e+01
1.250000e+01
1.250000e+01
1.250000e+01
1.250000e+01
1.250000e+01
1.250000e+01
1.250000e+01
1.250000e+01
1.250000e+01
1.250000e+01
1.250000e+01
1.250000e+01
1.250000e+01
1.250000e+01
1.250000e+01
1.250000e+01
1.250000e+01
1.250000e+01
1.250000e+01
1.250000e+01
1.875000e+01
1.875000e+01
1.875000e+01
1.875000e+01
1.875000e+01
1.875000e+01
1.875000e+01
1.875000e+01
1.875000e+01
1.875000e+01
1.875000e+01
1.875000e+01
1.875000e+01
1.875000e+01
1.875000e+01
1.875000e+01
1.875000e+01
1.875000e+01
1.875000e+01
1.875000e+01
1.875000e+01
1.875000e+01
1.875000e+01
1.875000e+01
1.875000e+01
1.875000e+01
1.875000e+01
1.875000e+01
1.875000e+01
1.875000e+01
1.875000e+01
1.875000e+01
1.875000e+01
2.500000e+01
2.500000e+01
2.500000e+01
2.500000e+01
2.500000e+01
2.500000e+01
2.500000e+01
2.500000e+01
2.500000e+01
2.500000e+01
2.500000e+01
2.500000e+01
2.500000e+01
2.500000e+01
2.500000e+01
2.500000e+01
2.500000e+01
2.500000e+01
2.500000e+01
2.500000e+01
2.500000e+01
2.500000e+01
2.500000e+01
2.500000e+01
2.500000e+01
2.500000e+01
2.500000e+01
2.500000e+01
2.500000e+01
2.500000e+01
2.500000e+01
2.500000e+01
2.500000e+01
3.125000e+01
3.125000e+01
3.125000e+01
3.125000e+01
3.125000e+01
3.125000e+01
3.125000e+01
3.125000e+01
3.125000e+01
3.125000e+01
3.125000e+01
3.125000e+01
3.125000e+01
3.125000e+01
3.125000e+01
3.125000e+01
3.125000e+01
3.125000e+01
3.125000e+01
3.125000e+01
3.125000e+01
3.125000e+01
3.125000e+01
3.125000e+01
3.125000e+01
3.125000e+01
3.125000e+01
3.125000e+01
3.125000e+01
3.125000e+01
3.125000e+01
3.125000e+01
3.125000e+01
3.750000e+01
3.750000e+01
3.750000e+01
3.750000e+01
3.750000e+01
3.750000e+01
3.750000e+01
3.750000e+01
3.750000e+01
3.750000e+01
3.750000e+01
3.750000e+01
3.750000e+01
3.750000e+01
3.750000e+01
3.750000e+01
3.750000e+01
3.750000e+01
3.750000e+01
3.750000e+01
3.750000e+01
3.750000e+01
3.750000e+01
3.750000e+01
3.750000e+01
3.750000e+01
3.750000e+01
3.750000e+01
3.750000e+01
3.750000e+01
3.750000e+01
3.750000e+01
3.750000e+01
4.375000e+01
4.375000e+01
4.375000e+01
4.375000e+01
4.375000e+01
4.375000e+01
4.375000e+01
4.375000e+01
4.375000e+01
4.375000e+01
4.375000e+01
4.375000e+01
4.375000e+01
4.375000e+01
4.375000e+01
4.375000e+01
4.375000e+01
4.375000e+01
4.375000e+01
4.375000e+01
4.375000e+01
4.375000e+01
4.375000e+01
4.375000e+01
4.375000e+01
4.375000e+01
4.375000e+01
4.375000e+01
4.375000e+01
4.375000e+01
4.375000e+01
4.375000e+01
4.375000e+01
5.000000e+01
5.000000e+01
5.000000e+01
5.000000e+01
5.000000e+01
5.000000e+01
5.000000e+01
5.000000e+01
5.000000e+01
5.000000e+01
5.000000e+01
5.000000e+01
5.000000e+01
5.000000e+01
5.000000e+01
5.000000e+01
5.000000e+01
5.000000e+01
5.000000e+01
5.000000e+01
5.000000e+01
5.000000e+01
5.000000e+01
5.000000e+01
5.000000e+01
5.000000e+01
5.000000e+01
5.000000e+01
5.000000e+01
5.000000e+01
5.000000e+01
5.000000e+01
5.000000e+01
5.625000e+01
5.625000e+01
5.625000e+01
5.625000e+01
5.625000e+01
5.625000e+01
5.625000e+01
5.625000e+01
5.625000e+01
5.625000e+01
5.625000e+01
5.625000e+01
5.625000e+01
5.625000e+01
5.625000e+01
5.625000e+01
5.625000e+01
5.625000e+01
5.625000e+01
5.625000e+01
5.625000e+01
5.625000e+01
5.625000e+01
5.625000e+01
5.625000e+01
5.625000e+01
5.625000e+01
5.625000e+01
5.625000e+01
5.625000e+01
5.625000e+01
5.625000e+01
5.625000e+01
6.250000e+01
6.250000e+01
6.250000e+01
6.250000e+01
6.250000e+01
6.250000e+01
6.250000e+01
6.250000e+01
6.250000e+01
6.250000e+01
6.250000e+01
6.250000e+01
6.250000e+01
6.250000e+01
6.250000e+01
6.250000e+01
6.250000e+01
6.250000e+01
6.250000e+01
6.250000e+01
6.250000e+01
6.250000e+01
6.250000e+01
6.250000e+01
6.250000e+01
6.250000e+01
6.250000e+01
6.250000e+01
6.250000e+01
6.250000e+01
6.250000e+01
6.250000e+01
6.250000e+01
6.875000e+01
6.875000e+01
6.875000e+01
6.875000e+01
6.875000e+01
6.875000e+01
6.875000e+01
6.875000e+01
6.875000e+01
6.875000e+01
6.875000e+01
6.875000e+01
6.875000e+01
6.875000e+01
6.875000e+01
6.875000e+01
6.875000e+01
6.875000e+01
6.875000e+01
6.875000e+01
6.875000e+01
6.875000e+01
6.875000e+01
6.875000e+01
6.875000e+01
6.875000e+01
6.875000e+01
6.875000e+01
6.875000e+01
6.875000e+01
6.875000e+01
6.875000e+01
6.875000e+01
7.500000e+01
7.500000e+01
7.500000e+01
7.500000e+01
7.500000e+01
7.500000e+01
7.500000e+01
7.500000e+01
7.500000e+01
7.500000e+01
7.500000e+01
7.500000e+01
7.500000e+01
7.500000e+01
7.500000e+01
7.500000e+01
7.500000e+01
7.500000e+01
7.500000e+01
7.500000e+01
7.500000e+01
7.500000e+01
7.500000e+01
7.500000e+01
7.500000e+01
7.500000e+01
7.500000e+01
7.500000e+01
7.500000e+01
7.500000e+01
7.500000e+01
7.500000e+01
7.500000e+01
8.125000e+01
8.125000e+01
8.125000e+01
8.125000e+01
8.125000e+01
8.125000e+01
8.125000e+01
8.125000e+01
8.125000e+01
8.125000e+01
8.125000e+01
8.125000e+01
8.125000e+01
8.125000e+01
8.125000e+01
8.125000e+01
8.125000e+01
8.125000e+01
8.125000e+01
8.125000e+01
8.125000e+01
8.125000e+01
8.125000e+01
8.125000e+01
8.125000e+01
8.125000e+01
8.125000e+01
8.125000e+01
8.125000e+01
8.125000e+01
8.125000e+01
8.125000e+01
8.125000e+01
8.750000e+01
8.750000e+01
8.750000e+01
8.750000e+01
8.750000e+01
8.750000e+01
8.750000e+01
8.750000e+01
8.750000e+01
8.750000e+01
8.750000e+01
8.750000e+01
8.750000e+01
8.750000e+01
8.750000e+01
8.750000e+01
8.750000e+01
8.750000e+01
8.750000e+01
8.750000e+01
8.750000e+01
8.750000e+01
8.750000e+01
8.750000e+01
8.750000e+01
8.750000e+01
8.750000e+01
8.750000e+01
8.750000e+01
8.750000e+01
8.750000e+01
8.750000e+01
8.750000e+01
9.375000e+01
9.375000e+01
9.375000e+01
9.375000e+01
9.375000e+01
9.375000e+01
9.375000e+01
9.375000e+01
9.375000e+01
9.375000e+01
9.375000e+01
9.375000e+01
9.375000e+01
9.375000e+01
9.375000e+01
9.375000e+01
9.375000e+01
9.375000e+01
9.375000e+01
9.375000e+01
9.375000e+01
9.375000e+01
9.375000e+01
9.375000e+01
9.375000e+01
9.375000e+01
9.375000e+01
9.375000e+01
9.375000e+01
9.375000e+01
9.375000e+01
9.375000e+01
9.375000e+01
1.000000e+02
1.000000e+02
1.000000e+02
1.000000e+02
1.000000e+02
1.000000e+02
1.000000e+02
1.000000e+02
1.000000e+02
1.000000e+02
1.000000e+02
1.000000e+02
1.000000e+02
1.000000e+02
1.000000e+02
1.000000e+02
1.000000e+02
1.000000e+02
1.000000e+02
1.000000e+02
1.000000e+02
1.000000e+02
1.000000e+02
1.000000e+02
1.000000e+02
1.000000e+02
1.000000e+02
1.000000e+02
1.000000e+02
1.000000e+02
1.000000e+02
1.000000e+02
1.000000e+02
0.000000e+00
-7.324424e-02
-1.328918e-01
-1.881471e-01
-2.411771e-01
-2.923859e-01
-3.418764e-01
-3.896441e-01
-4.356588e-01
-4.798870e-01
-5.223010e-01
-5.628817e-01
-6.016190e-01
-6.385122e-01
-6.735699e-01
-7.068105e-01
-7.382638e-01
-7.679730e-01
-7.959979e-01
-8.224190e-01
-8.473438e-01
-8.709144e-01
-8.933185e-01
-9.148052e-01
-9.357083e-01
-9.564813e-01
-9.777541e-01
-1.000425e+00
-1.025812e+00
-1.055855e+00
-1.093068e+00
-1.137416e+00
-1.164480e+00
0.000000e+00
-4.910812e-02
-1.021746e-01
-1.522096e-01
-1.997663e-01
-2.452976e-01
-2.890438e-01
-3.311102e-01
-3.715388e-01
-4.103429e-01
-4.475253e-01
-4.830859e-01
-5.170264e-01
-5.493522e-01
-5.800741e-01
-6.092091e-01
-6.367820e-01
-6.628268e-01
-6.873887e-01
-7.105263e-01
-7.323144e-01
-7.528471e-01
-7.722415e-01
-7.906406e-01
-8.082154e-01
-8.251626e-01
-8.416901e-01
-8.579686e-01
-8.739970e-01
-8.892539e-01
-9.019670e-01
-9.093997e-01
-9.197471e-01
0.000000e+00
-3.895257e-02
-8.019324e-02
-1.221830e-01
-1.629844e-01
-2.022825e-01
-2.400522e-01
-2.763291e-01
-3.111453e-01
-3.445227e-01
-3.764754e-01
-4.070135e-01
-4.361452e-01
-4.638792e-01
-4.902258e-01
-5.151977e-01
-5.388112e-01
-5.610865e-01
-5.820488e-01
-6.017279e-01
-6.201581e-01
-6.373769e-01
-6.534208e-01
-6.683183e-01
-6.820754e-01
-6.946478e-01
-7.058919e-01
-7.154765e-01
-7.227536e-01
-7.266721e-01
-7.263286e-01
-7.241284e-01
-7.362114e-01
0.000000e+00
-3.090541e-02
-6.351768e-02
-9.702287e-02
-1.304498e-01
-1.630673e-01
-1.945960e-01
-2.249357e-01
-2.540592e-01
-2.819653e-01
-3.086612e-01
-3.341557e-01
-3.584575e-01
-3.815742e-01
-4.035126e-01
-4.242788e-01
-4.438786e-01
-4.623170e-01
-4.795976e-01
-4.957217e-01
-5.106849e-01
-5.244735e-01
-5.370572e-01
-5.483771e-01
-5.583289e-01
-5.667368e-01
-5.733226e-01
-5.776839e-01
-5.793491e-01
-5.781130e-01
-5.751107e-01
-5.749315e-01
-5.864436e-01
0.000000e+00
-2.398695e-02
-4.911711e-02
-7.505015e-02
-1.011940e-01
-1.270174e-01
-1.521640e-01
-1.764534e-01
-1.998035e-01
-2.221828e-01
-2.435830e-01
-2.640052e-01
-2.834532e-01
-3.019303e-01
-3.194377e-01
-3.359738e-01
-3.515334e-01
-3.661071e-01
-3.796800e-01
-3.922292e-01
-4.037210e-01
-4.141063e-01
-4.233141e-01
-4.312432e-01
-4.377535e-01
-4.426607e-01
-4.457487e-01
-4.468319e-01
-4.459433e-01
-4.437689e-01
-4.423582e-01
-4.456159e-01
-4.554362e-01
0.000000e+00
-1.762905e-02
-3.601340e-02
-5.498845e-02
-7.422636e-02
-9.336804e-02
-1.121284e-01
-1.303221e-01
-1.478475e-01
-1.646550e-01
-1.807238e-01
-1.960464e-01
-2.106204e-01
-2.244429e-01
-2.375090e-01
-2.498091e-01
-2.613287e-01
-2.720468e-01
-2.819343e-01
-2.909526e-01
-2.990508e-01
-3.061633e-01
-3.122071e-01
-3.170806e-01
-3.206682e-01
-3.228573e-01
-3.235836e-01
-3.229318e-01
-3.213254e-01
-3.197971e-01
-3.201692e-01
-3.243221e-01
-3.324478e-01
0.000000e+00
-1.160205e-02
-2.366302e-02
-3.610663e-02
-4.875546e-02
-6.139661e-02
-7.383945e-02
-8.594500e-02
-9.762630e-02
-1.088354e-01
-1.195479e-01
-1.297518e-01
-1.394391e-01
-1.486018e-01
-1.572288e-01
-1.653044e-01
-1.728068e-01
-1.797071e-01
-1.859682e-01
-1.915442e-01
-1.963789e-01
-2.004067e-01
-2.035546e-01
-2.057482e-01
-2.069268e-01
-2.070730e-01
-2.062672e-01
-2.047760e-01
-2.031668e-01
-2.023868e-01
-2.036038e-01
-2.076471e-01
-2.142063e-01
0.000000e+00
-5.762738e-03
-1.174335e-02
-1.791110e-02
-2.418811e-02
-3.047521e-02
-3.667826e-02
-4.272355e-02
-4.856130e-02
-5.416109e-02
-5.950489e-02
-6.458079e-02
-6.937839e-02
-7.388578e-02
-7.808761e-02
-8.196369e-02
-8.548801e-02
-8.862804e-02
-9.134431e-02
-9.359054e-02
-9.531483e-02
-9.646256e-02
-9.698249e-02
-9.683788e-02
-9.602589e-02
-9.460849e-02
-9.275720e-02
-9.080656e-02
-8.929227e-02
-8.891293e-02
-9.034073e-02
-9.386798e-02
-9.907262e-02
0.000000e+00
-9.298992e-06
-2.016270e-05
-3.198933e-05
-4.415681e-05
-5.582642e-05
-6.573415e-05
-7.195918e-05
-7.165329e-05
-6.071515e-05
-3.339710e-05
1.816248e-05
1.044805e-04
2.393322e-04
4.403873e-04
7.298234e-04
1.134823e-03
1.687798e-03
2.426103e-03
3.390860e-03
4.624346e-03
6.165152e-03
8.040007e-03
1.025094e-02
1.275655e-02
1.544706e-02
1.811649e-02
2.044219e-02
2.199470e-02
2.230955e-02
2.104187e-02
1.817098e-02
1.415013e-02
0.000000e+00
5.745224e-03
1.170529e-02
1.785060e-02
2.410440e-02
3.036909e-02
3.655283e-02
4.258552e-02
4.842269e-02
5.404158e-02
5.943495e-02
6.460562e-02
6.956298e-02
7.432106e-02
7.889785e-02
8.331508e-02
8.759826e-02
9.177649e-02
9.588160e-02
9.994641e-02
1.040013e-01
1.080686e-01
1.121540e-01
1.162350e-01
1.202451e-01
1.240579e-01
1.274737e-01
1.302211e-01
1.319864e-01
1.324861e-01
1.315810e-01
1.294001e-01
1.264159e-01
0.000000e+00
1.158774e-02
2.363171e-02
3.605651e-02
4.868557e-02
6.130718e-02
7.373251e-02
8.582544e-02
9.750323e-02
1.087240e-01
1.194723e-01
1.297477e-01
1.395587e-01
1.489184e-01
1.578432e-01
1.663522e-01
1.744666e-01
1.822096e-01
1.896052e-01
1.966763e-01
2.034413e-01
2.099086e-01
2.160696e-01
2.218887e-01
2.272926e-01
2.321617e-01
2.363265e-01
2.395794e-01
2.417085e-01
2.425597e-01
2.421221e-01
2.406130e-01
2.385302e-01
0.000000e+00
1.761992e-02
3.599306e-02
5.495533e-02
7.417934e-02
9.330666e-02
1.120533e-01
1.302357e-01
1.477547e-01
1.645647e-01
1.806505e-01
1.960121e-01
2.106577e-01
2.245985e-01
2.378476e-01
2.504192e-01
2.623279e-01
2.735890e-01
2.842168e-01
2.942236e-01
3.036164e-01
3.123931e-01
3.205366e-01
3.280085e-01
3.347428e-01
3.406416e-01
3.455778e-01
3.494089e-01
3.520069e-01
3.533087e-01
3.533819e-01
3.524967e-01
3.511803e-01
0.000000e+00
2.398468e-02
4.911144e-02
7.503999e-02
1.011783e-01
1.269953e-01
1.521349e-01
1.764172e-01
1.997610e-01
2.221359e-01
2.435352e-01
2.639628e-01
2.834258e-01
3.019325e-01
3.194906e-01
3.361073e-01
3.517888e-01
3.665403e-01
3.803653e-01
3.932644e-01
4.052338e-01
4.162624e-01
4.263291e-01
4.353990e-01
4.434212e-01
4.503284e-01
4.560414e-01
4.604815e-01
4.635933e-01
4.653810e-01
4.659609e-01
4.656285e-01
4.649351e-01
0.000000e+00
3.091115e-02
6.352935e-02
9.704023e-02
1.304724e-01
1.630944e-01
1.946267e-01
2.249685e-01
2.540916e-01
2.819933e-01
3.086787e-01
3.341539e-01
3.584237e-01
3.814907e-01
4.033554e-01
4.240159e-01
4.434683e-01
4.617063e-01
4.787209e-01
4.945000e-01
5.090276e-01
5.222836e-01
5.342426e-01
5.448747e-01
5.541457e-01
5.620211e-01
5.684712e-01
5.734815e-01
5.770674e-01
5.792959e-01
5.803209e-01
5.804431e-01
5.802131e-01
0.000000e+00
3.896659e-02
8.022315e-02
1.222299e-01
1.630491e-01
2.023658e-01
2.401542e-01
2.764486e-01
3.112790e-01
3.446637e-01
3.766116e-01
4.071253e-01
4.362027e-01
4.638382e-01
4.900233e-01
5.147459e-01
5.379910e-01
5.597394e-01
5.799682e-01
5.986504e-01
6.157554e-01
6.312500e-01
6.451003e-01
6.572753e-01
6.677521e-01
6.765226e-01
6.836027e-01
6.890422e-01
6.929352e-01
6.954286e-01
6.967336e-01
6.971587e-01
6.972094e-01
0.000000e+00
4.912916e-02
1.022206e-01
1.522835e-01
1.998719e-01
2.454383e-01
2.892228e-01
3.313293e-01
3.717969e-01
4.106351e-01
4.478394e-01
4.833994e-01
5.173020e-01
5.495314e-01
5.800693e-01
6.088941e-01
6.359793e-01
6.612931e-01
6.847975e-01
7.064481e-01
7.261950e-01
7.439850e-01
7.597656e-01
7.734915e-01
7.851342e-01
7.946944e-01
8.022172e-01
8.078086e-01
8.116496e-01
8.140031e-01
8.152055e-01
8.156415e-01
8.157482e-01
0.000000e+00
7.326728e-02
1.329456e-01
1.882392e-01
2.413149e-01
2.925770e-01
3.421286e-01
3.899647e-01
4.360537e-01
4.803585e-01
5.228452e-01
5.634841e-01
6.022491e-01
6.391153e-01
6.740571e-01
7.070452e-01
7.380445e-01
7.670119e-01
7.938944e-01
8.186283e-01
8.411391e-01
8.613439e-01
8.791561e-01
8.944939e-01
9.072941e-01
9.175308e-01
9.252404e-01
9.305515e-01
9.337172e-01
9.351436e-01
9.354028e-01
9.351881e-01
9.350673e-01
0.000000e+00
-4.526357e-02
-7.899500e-02
-1.158044e-01
-1.567940e-01
-2.030958e-01
-2.550317e-01
-3.126919e-01
-3.760190e-01
-4.448773e-01
-5.190843e-01
-5.984301e-01
-6.826882e-01
-7.716229e-01
-8.649936e-01
-9.625583e-01
-1.064076e+00
-1.169310e+00
-1.278033e+00
-1.390028e+00
-1.505101e+00
-1.623087e+00
-1.743871e+00
-1.867404e+00
-1.993749e+00
-2.123139e+00
-2.256090e+00
-2.393604e+00
-2.537602e+00
-2.691884e+00
-2.864652e+00
-3.075255e+00
-3.366210e+00
0.000000e+00
-2.812961e-02
-6.343752e-02
-1.004951e-01
-1.420559e-01
-1.888606e-01
-2.413011e-01
-2.994659e-01
-3.633026e-01
-4.326756e-01
-5.074012e-01
-5.872679e-01
-6.720472e-01
-7.615016e-01
-8.553881e-01
-9.534623e-01
-1.055480e+00
-1.161202e+00
-1.270395e+00
-1.382837e+00
-1.498328e+00
-1.616695e+00
-1.737810e+00
-1.861614e+00
-1.988150e+00
-2.117631e+00
-2.250545e+00
-2.387865e+00
-2.531470e+00
-2.685097e+00
-2.856531e+00
-3.062446e+00
-3.334272e+00
0.000000e+00
-2.066285e-02
-5.114312e-02
-8.769514e-02
-1.293284e-01
-1.764780e-01
-2.293323e-01
-2.879403e-01
-3.522316e-01
-4.220641e-01
-4.972511e-01
-5.775793e-01
-6.628194e-01
-7.527326e-01
-8.470755e-01
-9.456025e-01
-1.048069e+00
-1.154232e+00
-1.263859e+00
-1.376727e+00
-1.492631e+00
-1.611399e+00
-1.732902e+00
-1.857082e+00
-1.983989e+00
-2.113848e+00
-2.247168e+00
-2.384945e+00
-2.529036e+00
-2.682808e+00
-2.852011e+00
-3.043440e+00
-3.255792e+00
0.000000e+00
-1.654601e-02
-4.330801e-02
-7.791087e-02
-1.190090e-01
-1.661439e-01
-2.192242e-01
-2.781605e-01
-3.428260e-01
-4.130522e-01
-4.886409e-01
-5.693733e-01
-6.550182e-01
-7.453365e-01
-8.400847e-01
-9.390181e-01
-1.041892e+00
-1.148467e+00
-1.258509e+00
-1.371797e+00
-1.488131e+00
-1.607341e+00
-1.729306e+00
-1.853975e+00
-1.981412e+00
-2.111853e+00
-2.245801e+00
-2.384174e+00
-2.528493e+00
-2.680975e+00
-2.843744e+00
-3.015413e+00
-3.175220e+00
0.000000e+00
-1.400074e-02
-3.818416e-02
-7.096291e-02
-1.111242e-01
-1.579499e-01
-2.110502e-01
-2.701779e-01
-3.351197e-01
-4.056631e-01
-4.815876e-01
-5.626646e-01
-6.486585e-01
-7.393295e-01
-8.344352e-01
-9.337324e-01
-1.036979e+00
-1.143938e+00
-1.254379e+00
-1.368085e+00
-1.484859e+00
-1.604538e+00
-1.727004e+00
-1.852211e+00
-1.980219e+00
-2.111232e+00
-2.245662e+00
-2.384171e+00
-2.527633e+00
-2.676750e+00
-2.830812e+00
-2.984163e+00
-3.123337e+00
0.000000e+00
-1.238116e-02
-3.482229e-02
-6.618164e-02
-1.054389e-01
-1.518260e-01
-2.048107e-01
-2.640141e-01
-3.291377e-01
-3.999187e-01
-4.761094e-01
-5.574675e-01
-6.437518e-01
-7.347213e-01
-8.301348e-01
-9.297517e-01
-1.033333e+00
-1.140645e+00
-1.251461e+00
-1.365567e+00
-1.482771e+00
-1.602907e+00
-1.725858e+00
-1.851562e+00
-1.980042e+00
-2.111422e+00
-2.245933e+00
-2.383867e+00
-2.525382e+00
-2.670001e+00
-2.815521e+00
-2.956743e+00
-3.085819e+00
0.000000e+00
-1.137462e-02
-3.269675e-02
-6.307373e-02
-1.016301e-01
-1.476175e-01
-2.004448e-01
-2.596556e-01
-3.248866e-01
-3.958322e-01
-4.722191e-01
-5.537919e-01
-6.403041e-01
-7.315135e-01
-8.271803e-01
-9.270665e-01
-1.030937e+00
-1.138560e+00
-1.249712e+00
-1.364181e+00
-1.481773e+00
-1.602316e+00
-1.725674e+00
-1.851755e+00
-1.980515e+00
-2.111956e+00
-2.246091e+00
-2.382841e+00
-2.521813e+00
-2.661876e+00
-2.800606e+00
-2.934003e+00
-3.057166e+00
0.000000e+00
-1.082150e-02
-3.151734e-02
-6.132235e-02
-9.944613e-02
-1.451661e-01
-1.978722e-01
-2.570699e-01
-3.223590e-01
-3.934063e-01
-4.699218e-01
-5.516411e-01
-6.383143e-01
-7.296991e-01
-8.255577e-01
-9.256545e-01
-1.029757e+00
-1.137636e+00
-1.249069e+00
-1.363841e+00
-1.481751e+00
-1.602612e+00
-1.726262e+00
-1.852556e+00
-1.981369e+00
-2.112567e+00
-2.245959e+00
-2.381179e+00
-2.517507e+00
-2.653601e+00
-2.787275e+00
-2.915522e+00
-3.034996e+00
0.000000e+00
-1.064329e-02
-3.113683e-02
-6.075472e-02
-9.873435e-02
-1.443638e-01
-1.970295e-01
-2.562263e-01
-3.215429e-01
-3.926377e-01
-4.692159e-01
-5.510113e-01
-6.377742e-01
-7.292641e-01
-8.252453e-01
-9.254847e-01
-1.029752e+00
-1.137818e+00
-1.249459e+00
-1.364455e+00
-1.482591e+00
-1.603661e+00
-1.727463e+00
-1.853798e+00
-1.982453e+00
-2.113171e+00
-2.245598e+00
-2.379187e+00
-2.513076e+00
-2.645945e+00
-2.775946e+00
-2.900783e+00
-3.018006e+00
0.000000e+00
-1.081635e-02
-3.151018e-02
-6.131619e-02
-9.944427e-02
-1.451726e-01
-1.978925e-01
-2.571112e-01
-3.224308e-01
-3.935210e-01
-4.700953e-01
-5.518936e-01
-6.386706e-01
-7.301893e-01
-8.262167e-01
-9.265220e-01
-1.030875e+00
-1.139048e+00
-1.250811e+00
-1.365936e+00
-1.484194e+00
-1.605352e+00
-1.729170e+00
-1.855390e+00
-1.983721e+00
-2.113806e+00
-2.245179e+00
-2.377200e+00
-2.508980e+00
-2.639319e+00
-2.766693e+00
-2.889324e+00
-3.005342e+00
0.000000e+00
-1.136472e-02
-3.268302e-02
-6.306185e-02
-1.016264e-01
-1.476298e-01
-2.004834e-01
-2.597343e-01
-3.250237e-01
-3.960515e-01
-4.725513e-01
-5.542756e-01
-6.409872e-01
-7.324535e-01
-8.284447e-01
-9.287315e-01
-1.033084e+00
-1.141272e+00
-1.253062e+00
-1.368214e+00
-1.486484e+00
-1.607611e+00
-1.731319e+00
-1.857298e+00
-1.985191e+00
-2.114568e+00
-2.244896e+00
-2.375497e+00
-2.505518e+00
-2.633908e+00
-2.759435e+00
-2.880729e+00
-2.996354e+00
0.000000e+00
-1.236741e-02
-3.480320e-02
-6.616505e-02
-1.054335e-01
-1.518428e-01
-2.048641e-01
-2.641234e-01
-3.293285e-01
-4.002244e-01
-4.765730e-01
-5.581431e-01
-6.447064e-01
-7.360359e-01
-8.319041e-01
-9.320829e-01
-1.036342e+00
-1.144448e+00
-1.256162e+00
-1.371235e+00
-1.489406e+00
-1.610391e+00
-1.733881e+00
-1.859524e+00
-1.986912e+00
-2.115566e+00
-2.244914e+00
-2.374276e+00
-2.502859e+00
-2.629765e+00
-2.754017e+00
-2.874598e+00
-2.990461e+00
0.000000e+00
-1.398454e-02
-3.816170e-02
-7.094336e-02
-1.111180e-01
-1.579703e-01
-2.111146e-01
-2.703099e-01
-3.353501e-01
-4.060323e-01
-4.821478e-01
-5.634813e-01
-6.498130e-01
-7.409197e-01
-8.365760e-01
-9.365542e-01
-1.040623e+00
-1.148546e+00
-1.260079e+00
-1.374965e+00
-1.492928e+00
-1.613668e+00
-1.736847e+00
-1.862083e+00
-1.988934e+00
-2.116887e+00
-2.245351e+00
-2.373660e+00
-2.501082e+00
-2.626856e+00
-2.750235e+00
-2.870527e+00
-2.987089e+00
0.000000e+00
-1.652936e-02
-4.328495e-02
-7.789100e-02
-1.190037e-01
-1.661678e-01
-2.192968e-01
-2.783078e-01
-3.430822e-01
-4.134621e-01
-4.892619e-01
-5.702779e-01
-6.562958e-01
-7.470950e-01
-8.424508e-01
-9.421351e-01
-1.045915e+00
-1.153553e+00
-1.264799e+00
-1.379389e+00
-1.497040e+00
-1.617435e+00
-1.740222e+00
-1.864995e+00
-1.991291e+00
-2.118581e+00
-2.246266e+00
-2.373694e+00
-2.500187e+00
-2.625093e+00
-2.747858e+00
-2.868097e+00
-2.985619e+00
0.000000e+00
-2.064834e-02
-5.112292e-02
-8.767836e-02
-1.293268e-01
-1.765071e-01
-2.294125e-01
-2.880987e-01
-3.525039e-01
-4.224966e-01
-4.979031e-01
-5.785255e-01
-6.641517e-01
-7.545619e-01
-8.495309e-01
-9.488300e-01
-1.052225e+00
-1.159475e+00
-1.270329e+00
-1.384517e+00
-1.501749e+00
-1.621703e+00
-1.744014e+00
-1.868268e+00
-1.993992e+00
-2.120648e+00
-2.247642e+00
-2.374334e+00
-2.500086e+00
-2.624320e+00
-2.746625e+00
-2.866875e+00
-2.985362e+00
0.000000e+00
-2.812028e-02
-6.342378e-02
-1.004852e-01
-1.420620e-01
-1.888985e-01
-2.413915e-01
-2.996359e-01
-3.635878e-01
-4.331219e-01
-5.080672e-01
-5.882267e-01
-6.733886e-01
-7.633325e-01
-8.578329e-01
-9.566594e-01
-1.059577e+00
-1.166342e+00
-1.276700e+00
-1.390381e+00
-1.507090e+00
-1.626500e+00
-1.748246e+00
-1.871909e+00
-1.997017e+00
-2.123036e+00
-2.249380e+00
-2.375430e+00
-2.500575e+00
-2.624284e+00
-2.746223e+00
-2.866434e+00
-2.985580e+00
0.000000e+00
-4.526224e-02
-7.899042e-02
-1.158053e-01
-1.568125e-01
-2.031478e-01
-2.551379e-01
-3.128792e-01
-3.763223e-01
-4.453412e-01
-5.197651e-01
-5.993975e-01
-6.840268e-01
-7.734323e-01
-8.673877e-01
-9.656613e-01
-1.068016e+00
-1.174206e+00
-1.283975e+00
-1.397049e+00
-1.513130e+00
-1.631890e+00
-1.752963e+00