TITLE = "Solution"
VARIABLES = x, y, u, v, psiu, psiv, t, stress
ZONE T="structure" N=561 E=512 F=FEBLOCK ET=QUADRILATERAL VARLOCATION=([7,8]=cellcentered)
0.000000e+00
6.250000e+00
1.250000e+01
1.875000e+01
2.500000e+01
3.125000e+01
3.750000e+01
4.375000e+01
5.000000e+01
5.625000e+01
6.250000e+01
6.875000e+01
7.500000e+01
8.125000e+01
8.750000e+01
9.375000e+01
1.000000e+02
1.062500e+02
1.125000e+02
1.187500e+02
1.250000e+02
1.312500e+02
1.375000e+02
1.437500e+02
1.500000e+02
1.562500e+02
1.625000e+02
1.687500e+02
1.750000e+02
1.812500e+02
1.875000e+02
1.937500e+02
2.000000e+02
0.000000e+00
6.250000e+00
1.250000e+01
1.875000e+01
2.500000e+01
3.125000e+01
3.750000e+01
4.375000e+01
5.000000e+01
5.625000e+01
6.250000e+01
6.875000e+01
7.500000e+01
8.125000e+01
8.750000e+01
9.375000e+01
1.000000e+02
1.062500e+02
1.125000e+02
1.187500e+02
1.250000e+02
1.312500e+02
1.375000e+02
1.437500e+02
1.500000e+02
1.562500e+02
1.625000e+02
1.687500e+02
1.750000e+02
1.812500e+02
1.875000e+02
1.937500e+02
2.000000e+02
0.000000e+00
6.250000e+00
1.250000e+01
1.875000e+01
2.500000e+01
3.125000e+01
3.750000e+01
4.375000e+01
5.000000e+01
5.625000e+01
6.250000e+01
6.875000e+01
7.500000e+01
8.125000e+01
8.750000e+01
9.375000e+01
1.000000e+02
1.062500e+02
1.125000e+02
1.187500e+02
1.250000e+02
1.312500e+02
1.375000e+02
1.437500e+02
1.500000e+02
1.562500e+02
1.625000e+02
1.687500e+02
1.750000e+02
1.812500e+02
1.875000e+02
1.937500e+02
2.000000e+02
0.000000e+00
6.250000e+00
1.250000e+01
1.875000e+01
2.500000e+01
3.125000e+01
3.750000e+01
4.375000e+01
5.000000e+01
5.625000e+01
6.250000e+01
6.875000e+01
7.500000e+01
8.125000e+01
8.750000e+01
9.375000e+01
1.000000e+02
1.062500e+02
1.125000e+02
1.187500e+02
1.250000e+02
1.312500e+02
1.375000e+02
1.437500e+02
1.500000e+02
1.562500e+02
1.625000e+02
1.687500e+02
1.750000e+02
1.812500e+02
1.875000e+02
1.937500e+02
2.000000e+02
0.000000e+00
6.250000e+00
1.250000e+01
1.875000e+01
2.500000e+01
3.125000e+01
3.750000e+01
4.375000e+01
5.000000e+01
5.625000e+01
6.250000e+01
6.875000e+01
7.500000e+01
8.125000e+01
8.750000e+01
9.375000e+01
1.000000e+02
1.062500e+02
1.125000e+02
1.187500e+02
1.250000e+02
1.312500e+02
1.375000e+02
1.437500e+02
1.500000e+02
1.562500e+02
1.625000e+02
1.687500e+02
1.750000e+02
1.812500e+02
1.875000e+02
1.937500e+02
2.000000e+02
0.000000e+00
6.250000e+00
1.250000e+01
1.875000e+01
2.500000e+01
3.125000e+01
3.750000e+01
4.375000e+01
5.000000e+01
5.625000e+01
6.250000e+01
6.875000e+01
7.500000e+01
8.125000e+01
8.750000e+01
9.375000e+01
1.000000e+02
1.062500e+02
1.125000e+02
1.187500e+02
1.250000e+02
1.312500e+02
1.375000e+02
1.437500e+02
1.500000e+02
1.562500e+02
1.625000e+02
1.687500e+02
1.750000e+02
1.812500e+02
1.875000e+02
1.937500e+02
2.000000e+02
0.000000e+00
6.250000e+00
1.250000e+01
1.875000e+01
2.500000e+01
3.125000e+01
3.750000e+01
4.375000e+01
5.000000e+01
5.625000e+01
6.250000e+01
6.875000e+01
7.500000e+01
8.125000e+01
8.750000e+01
9.375000e+01
1.000000e+02
1.062500e+02
1.125000e+02
1.187500e+02
1.250000e+02
1.312500e+02
1.375000e+02
1.437500e+02
1.500000e+02
1.562500e+02
1.625000e+02
1.687500e+02
1.750000e+02
1.812500e+02
1.875000e+02
1.937500e+02
2.000000e+02
0.000000e+00
6.250000e+00
1.250000e+01
1.875000e+01
2.500000e+01
3.125000e+01
3.750000e+01
4.375000e+01
5.000000e+01
5.625000e+01
6.250000e+01
6.875000e+01
7.500000e+01
8.125000e+01
8.750000e+01
9.375000e+01
1.000000e+02
1.062500e+02
1.125000e+02
1.187500e+02
1.250000e+02
1.312500e+02
1.375000e+02
1.437500e+02
1.500000e+02
1.562500e+02
1.625000e+02
1.687500e+02
1.750000e+02
1.812500e+02
1.875000e+02
1.937500e+02
2.000000e+02
0.000000e+00
6.250000e+00
1.250000e+01
1.875000e+01
2.500000e+01
3.125000e+01
3.750000e+01
4.375000e+01
5.000000e+01
5.625000e+01
6.250000e+01
6.875000e+01
7.500000e+01
8.125000e+01
8.750000e+01
9.375000e+01
1.000000e+02
1.062500e+02
1.125000e+02
1.187500e+02
1.250000e+02
1.312500e+02
1.375000e+02
1.437500e+02
1.500000e+02
1.562500e+02
1.625000e+02
1.687500e+02
1.750000e+02
1.812500e+02
1.875000e+02
1.937500e+02
2.000000e+02
0.000000e+00
6.250000e+00
1.250000e+01
1.875000e+01
2.500000e+01
3.125000e+01
3.750000e+01
4.375000e+01
5.000000e+01
5.625000e+01
6.250000e+01
6.875000e+01
7.500000e+01
8.125000e+01
8.750000e+01
9.375000e+01
1.000000e+02
1.062500e+02
1.125000e+02
1.187500e+02
1.250000e+02
1.312500e+02
1.375000e+02
1.437500e+02
1.500000e+02
1.562500e+02
1.625000e+02
1.687500e+02
1.750000e+02
1.812500e+02
1.875000e+02
1.937500e+02
2.000000e+02
0.000000e+00
6.250000e+00
1.250000e+01
1.875000e+01
2.500000e+01
3.125000e+01
3.750000e+01
4.375000e+01
5.000000e+01
5.625000e+01
6.250000e+01
6.875000e+01
7.500000e+01
8.125000e+01
8.750000e+01
9.375000e+01
1.000000e+02
1.062500e+02
1.125000e+02
1.187500e+02
1.250000e+02
1.312500e+02
1.375000e+02
1.437500e+02
1.500000e+02
1.562500e+02
1.625000e+02
1.687500e+02
1.750000e+02
1.812500e+02
1.875000e+02
1.937500e+02
2.000000e+02
0.000000e+00
6.250000e+00
1.250000e+01
1.875000e+01
2.500000e+01
3.125000e+01
3.750000e+01
4.375000e+01
5.000000e+01
5.625000e+01
6.250000e+01
6.875000e+01
7.500000e+01
8.125000e+01
8.750000e+01
9.375000e+01
1.000000e+02
1.062500e+02
1.125000e+02
1.187500e+02
1.250000e+02
1.312500e+02
1.375000e+02
1.437500e+02
1.500000e+02
1.562500e+02
1.625000e+02
1.687500e+02
1.750000e+02
1.812500e+02
1.875000e+02
1.937500e+02
2.000000e+02
0.000000e+00
6.250000e+00
1.250000e+01
1.875000e+01
2.500000e+01
3.125000e+01
3.750000e+01
4.375000e+01
5.000000e+01
5.625000e+01
6.250000e+01
6.875000e+01
7.500000e+01
8.125000e+01
8.750000e+01
9.375000e+01
1.000000e+02
1.062500e+02
1.125000e+02
1.187500e+02
1.250000e+02
1.312500e+02
1.375000e+02
1.437500e+02
1.500000e+02
1.562500e+02
1.625000e+02
1.687500e+02
1.750000e+02
1.812500e+02
1.875000e+02
1.937500e+02
2.000000e+02
0.000000e+00
6.250000e+00
1.250000e+01
1.875000e+01
2.500000e+01
3.125000e+01
3.750000e+01
4.375000e+01
5.000000e+01
5.625000e+01
6.250000e+01
6.875000e+01
7.500000e+01
8.125000e+01
8.750000e+01
9.375000e+01
1.000000e+02
1.062500e+02
1.125000e+02
1.187500e+02
1.250000e+02
1.312500e+02
1.375000e+02
1.437500e+02
1.500000e+02
1.562500e+02
1.625000e+02
1.687500e+02
1.750000e+02
1.812500e+02
1.875000e+02
1.937500e+02
2.000000e+02
0.000000e+00
6.250000e+00
1.250000e+01
1.875000e+01
2.500000e+01
3.125000e+01
3.750000e+01
4.375000e+01
5.000000e+01
5.625000e+01
6.250000e+01
6.875000e+01
7.500000e+01
8.125000e+01
8.750000e+01
9.375000e+01
1.000000e+02
1.062500e+02
1.125000e+02
1.187500e+02
1.250000e+02
1.312500e+02
1.375000e+02
1.437500e+02
1.500000e+02
1.562500e+02
1.625000e+02
1.687500e+02
1.750000e+02
1.812500e+02
1.875000e+02
1.937500e+02
2.000000e+02
0.000000e+00
6.250000e+00
1.250000e+01
1.875000e+01
2.500000e+01
3.125000e+01
3.750000e+01
4.375000e+01
5.000000e+01
5.625000e+01
6.250000e+01
6.875000e+01
7.500000e+01
8.125000e+01
8.750000e+01
9.375000e+01
1.000000e+02
1.062500e+02
1.125000e+02
1.187500e+02
1.250000e+02
1.312500e+02
1.375000e+02
1.437500e+02
1.500000e+02
1.562500e+02
1.625000e+02
1.687500e+02
1.750000e+02
1.812500e+02
1.875000e+02
1.937500e+02
2.000000e+02
0.000000e+00
6.250000e+00
1.250000e+01
1.875000e+01
2.500000e+01
3.125000e+01
3.750000e+01
4.375000e+01
5.000000e+01
5.625000e+01
6.250000e+01
6.875000e+01
7.500000e+01
8.125000e+01
8.750000e+01
9.375000e+01
1.000000e+02
1.062500e+02
1.125000e+02
1.187500e+02
1.250000e+02
1.312500e+02
1.375000e+02
1.437500e+02
1.500000e+02
1.562500e+02
1.625000e+02
1.687500e+02
1.750000e+02
1.812500e+02
1.875000e+02
1.937500e+02
2.000000e+02
0.000000e+00
0.000000e+00
0.000000e+00
0.000000e+00
0.000000e+00
0.000000e+00
0.000000e+00
0.000000e+00
0.000000e+00
0.000000e+00
0.000000e+00
0.000000e+00
0.000000e+00
0.000000e+00
0.000000e+00
0.000000e+00
0.000000e+00
0.000000e+00
0.000000e+00
0.000000e+00
0.000000e+00
0.000000e+00
0.000000e+00
0.000000e+00
0.000000e+00
0.000000e+00
0.000000e+00
0.000000e+00
0.000000e+00
0.000000e+00
0.000000e+00
0.000000e+00
0.000000e+00
6.250000e+00
6.250000e+00
6.250000e+00
6.250000e+00
6.250000e+00
6.250000e+00
6.250000e+00
6.250000e+00
6.250000e+00
6.250000e+00
6.250000e+00
6.250000e+00
6.250000e+00
6.250000e+00
6.250000e+00
6.250000e+00
6.250000e+00
6.250000e+00
6.250000e+00
6.250000e+00
6.250000e+00
6.250000e+00
6.250000e+00
6.250000e+00
6.250000e+00
6.250000e+00
6.250000e+00
6.250000e+00
6.250000e+00
6.250000e+00
6.250000e+00
6.250000e+00
6.250000e+00
1.250000e+01
1.250000e+01
1.250000e+01
1.250000e+01
1.250000e+01
1.250000e+01
1.250000e+01
1.250000e+01
1.250000e+01
1.250000e+01
1.250000e+01
1.250000e+01
1.250000e+01
1.250000e+01
1.250000e+01
1.250000e+01
1.250000e+01
1.250000e+01
1.250000e+01
1.250000e+01
1.250000e+01
1.250000e+01
1.250000e+01
1.250000e+01
1.250000e+01
1.250000e+01
1.250000e+01
1.250000e+01
1.250000e+01
1.250000e+01
1.250000e+01
1.250000e+01
1.250000e+01
1.875000e+01
1.875000e+01
1.875000e+01
1.875000e+01
1.875000e+01
1.875000e+01
1.875000e+01
1.875000e+01
1.875000e+01
1.875000e+01
1.875000e+01
1.875000e+01
1.875000e+01
1.875000e+01
1.875000e+01
1.875000e+01
1.875000e+01
1.875000e+01
1.875000e+01
1.875000e+01
1.875000e+01
1.875000e+01
1.875000e+01
1.875000e+01
1.875000e+01
1.875000e+01
1.875000e+01
1.875000e+01
1.875000e+01
1.875000e+01
1.875000e+01
1.875000e+01
1.875000e+01
2.500000e+01
2.500000e+01
2.500000e+01
2.500000e+01
2.500000e+01
2.500000e+01
2.500000e+01
2.500000e+01
2.500000e+01
2.500000e+01
2.500000e+01
2.500000e+01
2.500000e+01
2.500000e+01
2.500000e+01
2.500000e+01
2.500000e+01
2.500000e+01
2.500000e+01
2.500000e+01
2.500000e+01
2.500000e+01
2.500000e+01
2.500000e+01
2.500000e+01
2.500000e+01
2.500000e+01
2.500000e+01
2.500000e+01
2.500000e+01
2.500000e+01
2.500000e+01
2.500000e+01
3.125000e+01
3.125000e+01
3.125000e+01
3.125000e+01
3.125000e+01
3.125000e+01
3.125000e+01
3.125000e+01
3.125000e+01
3.125000e+01
3.125000e+01
3.125000e+01
3.125000e+01
3.125000e+01
3.125000e+01
3.125000e+01
3.125000e+01
3.125000e+01
3.125000e+01
3.125000e+01
3.125000e+01
3.125000e+01
3.125000e+01
3.125000e+01
3.125000e+01
3.125000e+01
3.125000e+01
3.125000e+01
3.125000e+01
3.125000e+01
3.125000e+01
3.125000e+01
3.125000e+01
3.750000e+01
3.750000e+01
3.750000e+01
3.750000e+01
3.750000e+01
3.750000e+01
3.750000e+01
3.750000e+01
3.750000e+01
3.750000e+01
3.750000e+01
3.750000e+01
3.750000e+01
3.750000e+01
3.750000e+01
3.750000e+01
3.750000e+01
3.750000e+01
3.750000e+01
3.750000e+01
3.750000e+01
3.750000e+01
3.750000e+01
3.750000e+01
3.750000e+01
3.750000e+01
3.750000e+01
3.750000e+01
3.750000e+01
3.750000e+01
3.750000e+01
3.750000e+01
3.750000e+01
4.375000e+01
4.375000e+01
4.375000e+01
4.375000e+01
4.375000e+01
4.375000e+01
4.375000e+01
4.375000e+01
4.375000e+01
4.375000e+01
4.375000e+01
4.375000e+01
4.375000e+01
4.375000e+01
4.375000e+01
4.375000e+01
4.375000e+01
4.375000e+01
4.375000e+01
4.375000e+01
4.375000e+01
4.375000e+01
4.375000e+01
4.375000e+01
4.375000e+01
4.375000e+01
4.375000e+01
4.375000e+01
4.375000e+01
4.375000e+01
4.375000e+01
4.375000e+01
4.375000e+01
5.000000e+01
5.000000e+01
5.000000e+01
5.000000e+01
5.000000e+01
5.000000e+01
5.000000e+01
5.000000e+01
5.000000e+01
5.000000e+01
5.000000e+01
5.000000e+01
5.000000e+01
5.000000e+01
5.000000e+01
5.000000e+01
5.000000e+01
5.000000e+01
5.000000e+01
5.000000e+01
5.000000e+01
5.000000e+01
5.000000e+01
5.000000e+01
5.000000e+01
5.000000e+01
5.000000e+01
5.000000e+01
5.000000e+01
5.000000e+01
5.000000e+01
5.000000e+01
5.000000e+01
5.625000e+01
5.625000e+01
5.625000e+01
5.625000e+01
5.625000e+01
5.625000e+01
5.625000e+01
5.625000e+01
5.625000e+01
5.625000e+01
5.625000e+01
5.625000e+01
5.625000e+01
5.625000e+01
5.625000e+01
5.625000e+01
5.625000e+01
5.625000e+01
5.625000e+01
5.625000e+01
5.625000e+01
5.625000e+01
5.625000e+01
5.625000e+01
5.625000e+01
5.625000e+01
5.625000e+01
5.625000e+01
5.625000e+01
5.625000e+01
5.625000e+01
5.625000e+01
5.625000e+01
6.250000e+01
6.250000e+01
6.250000e+01
6.250000e+01
6.250000e+01
6.250000e+01
6.250000e+01
6.250000e+01
6.250000e+01
6.250000e+01
6.250000e+01
6.250000e+01
6.250000e+01
6.250000e+01
6.250000e+01
6.250000e+01
6.250000e+01
6.250000e+01
6.250000e+01
6.250000e+01
6.250000e+01
6.250000e+01
6.250000e+01
6.250000e+01
6.250000e+01
6.250000e+01
6.250000e+01
6.250000e+01
6.250000e+01
6.250000e+01
6.250000e+01
6.250000e+01
6.250000e+01
6.875000e+01
6.875000e+01
6.875000e+01
6.875000e+01
6.875000e+01
6.875000e+01
6.875000e+01
6.875000e+01
6.875000e+01
6.875000e+01
6.875000e+01
6.875000e+01
6.875000e+01
6.875000e+01
6.875000e+01
6.875000e+01
6.875000e+01
6.875000e+01
6.875000e+01
6.875000e+01
6.875000e+01
6.875000e+01
6.875000e+01
6.875000e+01
6.875000e+01
6.875000e+01
6.875000e+01
6.875000e+01
6.875000e+01
6.875000e+01
6.875000e+01
6.875000e+01
6.875000e+01
7.500000e+01
7.500000e+01
7.500000e+01
7.500000e+01
7.500000e+01
7.500000e+01
7.500000e+01
7.500000e+01
7.500000e+01
7.500000e+01
7.500000e+01
7.500000e+01
7.500000e+01
7.500000e+01
7.500000e+01
7.500000e+01
7.500000e+01
7.500000e+01
7.500000e+01
7.500000e+01
7.500000e+01
7.500000e+01
7.500000e+01
7.500000e+01
7.500000e+01
7.500000e+01
7.500000e+01
7.500000e+01
7.500000e+01
7.500000e+01
7.500000e+01
7.500000e+01
7.500000e+01
8.125000e+01
8.125000e+01
8.125000e+01
8.125000e+01
8.125000e+01
8.125000e+01
8.125000e+01
8.125000e+01
8.125000e+01
8.125000e+01
8.125000e+01
8.125000e+01
8.125000e+01
8.125000e+01
8.125000e+01
8.125000e+01
8.125000e+01
8.125000e+01
8.125000e+01
8.125000e+01
8.125000e+01
8.125000e+01
8.125000e+01
8.125000e+01
8.125000e+01
8.125000e+01
8.125000e+01
8.125000e+01
8.125000e+01
8.125000e+01
8.125000e+01
8.125000e+01
8.125000e+01
8.750000e+01
8.750000e+01
8.750000e+01
8.750000e+01
8.750000e+01
8.750000e+01
8.750000e+01
8.750000e+01
8.750000e+01
8.750000e+01
8.750000e+01
8.750000e+01
8.750000e+01
8.750000e+01
8.750000e+01
8.750000e+01
8.750000e+01
8.750000e+01
8.750000e+01
8.750000e+01
8.750000e+01
8.750000e+01
8.750000e+01
8.750000e+01
8.750000e+01
8.750000e+01
8.750000e+01
8.750000e+01
8.750000e+01
8.750000e+01
8.750000e+01
8.750000e+01
8.750000e+01
9.375000e+01
9.375000e+01
9.375000e+01
9.375000e+01
9.375000e+01
9.375000e+01
9.375000e+01
9.375000e+01
9.375000e+01
9.375000e+01
9.375000e+01
9.375000e+01
9.375000e+01
9.375000e+01
9.375000e+01
9.375000e+01
9.375000e+01
9.375000e+01
9.375000e+01
9.375000e+01
9.375000e+01
9.375000e+01
9.375000e+01
9.375000e+01
9.375000e+01
9.375000e+01
9.375000e+01
9.375000e+01
9.375000e+01
9.375000e+01
9.375000e+01
9.375000e+01
9.375000e+01
1.000000e+02
1.000000e+02
1.000000e+02
1.000000e+02
1.000000e+02
1.000000e+02
1.000000e+02
1.000000e+02
1.000000e+02
1.000000e+02
1.000000e+02
1.000000e+02
1.000000e+02
1.000000e+02
1.000000e+02
1.000000e+02
1.000000e+02
1.000000e+02
1.000000e+02
1.000000e+02
1.000000e+02
1.000000e+02
1.000000e+02
1.000000e+02
1.000000e+02
1.000000e+02
1.000000e+02
1.000000e+02
1.000000e+02
1.000000e+02
1.000000e+02
1.000000e+02
1.000000e+02
0.000000e+00
-3.971193e-02
-7.205202e-02
-1.020105e-01
-1.307623e-01
-1.585265e-01
-1.853588e-01
-2.112569e-01
-2.362045e-01
-2.601835e-01
-2.831787e-01
-3.051799e-01
-3.261817e-01
-3.461836e-01
-3.651903e-01
-3.832119e-01
-4.002644e-01
-4.163714e-01
-4.315651e-01
-4.458894e-01
-4.594024e-01
-4.721812e-01
-4.843276e-01
-4.959767e-01
-5.073093e-01
-5.185714e-01
-5.301045e-01
-5.423957e-01
-5.561594e-01
-5.724470e-01
-5.926226e-01
-6.166662e-01
-6.313398e-01
0.000000e+00
-2.662578e-02
-5.539780e-02
-8.252602e-02
-1.083103e-01
-1.329963e-01
-1.567142e-01
-1.795214e-01
-2.014403e-01
-2.224786e-01
-2.426374e-01
-2.619170e-01
-2.803181e-01
-2.978438e-01
-3.144998e-01
-3.302955e-01
-3.452442e-01
-3.593645e-01
-3.726808e-01
-3.852249e-01
-3.970373e-01
-4.081692e-01
-4.186839e-01
-4.286589e-01
-4.381871e-01
-4.473751e-01
-4.563355e-01
-4.651609e-01
-4.738508e-01
-4.821223e-01
-4.890148e-01
-4.930445e-01
-4.986545e-01
0.000000e+00
-2.111964e-02
-4.347985e-02
-6.624610e-02
-8.836785e-02
-1.096744e-01
-1.301520e-01
-1.498203e-01
-1.686965e-01
-1.867925e-01
-2.041161e-01
-2.206726e-01
-2.364666e-01
-2.515028e-01
-2.657867e-01
-2.793254e-01
-2.921275e-01
-3.042041e-01
-3.155689e-01
-3.262379e-01
-3.362299e-01
-3.455651e-01
-3.542633e-01
-3.623401e-01
-3.697984e-01
-3.766146e-01
-3.827106e-01
-3.879069e-01
-3.918521e-01
-3.939765e-01
-3.937903e-01
-3.925974e-01
-3.991483e-01
0.000000e+00
-1.675656e-02
-3.443855e-02
-5.260458e-02
-7.072805e-02
-8.841251e-02
-1.055065e-01
-1.219558e-01
-1.377456e-01
-1.528753e-01
-1.673488e-01
-1.811710e-01
-1.943464e-01
-2.068793e-01
-2.187733e-01
-2.300318e-01
-2.406579e-01
-2.506544e-01
-2.600231e-01
-2.687648e-01
-2.768771e-01
-2.843527e-01
-2.911749e-01
-2.973120e-01
-3.027074e-01
-3.072657e-01
-3.108362e-01
-3.132007e-01
-3.141034e-01
-3.134332e-01
-3.118055e-01
-3.117084e-01
-3.179498e-01
0.000000e+00
-1.300543e-02
-2.663068e-02
-4.069119e-02
-5.486592e-02
-6.886680e-02
-8.250065e-02
-9.566965e-02
-1.083293e-01
-1.204626e-01
-1.320650e-01
-1.431371e-01
-1.536811e-01
-1.636986e-01
-1.731903e-01
-1.821554e-01
-1.905911e-01
-1.984924e-01
-2.058509e-01
-2.126545e-01
-2.188848e-01
-2.245152e-01
-2.295072e-01
-2.338060e-01
-2.373355e-01
-2.399960e-01
-2.416701e-01
-2.422574e-01
-2.417756e-01
-2.405967e-01
-2.398319e-01
-2.415981e-01
-2.469223e-01
0.000000e+00
-9.558233e-03
-1.952598e-02
-2.981395e-02
-4.024440e-02
-5.062261e-02
-6.079401e-02
-7.065814e-02
-8.015984e-02
-8.927230e-02
-9.798421e-02
-1.062916e-01
-1.141930e-01
-1.216870e-01
-1.287708e-01
-1.354394e-01
-1.416848e-01
-1.474957e-01
-1.528562e-01
-1.577455e-01
-1.621360e-01
-1.659920e-01
-1.692687e-01
-1.719108e-01
-1.738559e-01
-1.750427e-01
-1.754364e-01
-1.750831e-01
-1.742122e-01
-1.733836e-01
-1.735853e-01
-1.758368e-01
-1.802422e-01
0.000000e+00
-6.290466e-03
-1.282975e-02
-1.957648e-02
-2.643444e-02
-3.328820e-02
-4.003440e-02
-4.659770e-02
-5.293095e-02
-5.900813e-02
-6.481609e-02
-7.034823e-02
-7.560031e-02
-8.056795e-02
-8.524517e-02
-8.962339e-02
-9.369083e-02
-9.743184e-02
-1.008264e-01
-1.038494e-01
-1.064705e-01
-1.086542e-01
-1.103608e-01
-1.115501e-01
-1.121891e-01
-1.122684e-01
-1.118315e-01
-1.110230e-01
-1.101506e-01
-1.097277e-01
-1.103875e-01
-1.125796e-01
-1.161357e-01
0.000000e+00
-3.124473e-03
-6.367069e-03
-9.711122e-03
-1.311440e-02
-1.652313e-02
-1.988627e-02
-2.316387e-02
-2.632892e-02
-2.936494e-02
-3.226216e-02
-3.501412e-02
-3.761519e-02
-4.005891e-02
-4.233697e-02
-4.443840e-02
-4.634913e-02
-4.805152e-02
-4.952415e-02
-5.074195e-02
-5.167678e-02
-5.229903e-02
-5.258090e-02
-5.250250e-02
-5.206228e-02
-5.129384e-02
-5.029016e-02
-4.923262e-02
-4.841166e-02
-4.820601e-02
-4.898010e-02
-5.089241e-02
-5.371411e-02
0.000000e+00
-5.041023e-06
-1.093038e-05
-1.734180e-05
-2.393805e-05
-3.026441e-05
-3.563561e-05
-3.901025e-05
-3.884417e-05
-3.291383e-05
-1.810310e-05
9.850210e-06
5.664785e-05
1.297581e-04
2.387607e-04
3.956792e-04
6.152507e-04
9.150475e-04
1.315321e-03
1.838365e-03
2.507102e-03
3.342452e-03
4.358907e-03
5.557569e-03
6.915983e-03
8.374644e-03
9.821875e-03
1.108275e-02
1.192444e-02
1.209513e-02
1.140785e-02
9.851390e-03
7.671485e-03
0.000000e+00
3.114978e-03
6.346439e-03
9.678326e-03
1.306902e-02
1.646560e-02
1.981828e-02
2.308904e-02
2.625378e-02
2.930016e-02
3.222425e-02
3.502759e-02
3.771527e-02
4.029491e-02
4.277625e-02
4.517107e-02
4.749322e-02
4.975846e-02
5.198406e-02
5.418781e-02
5.638616e-02
5.859124e-02
6.080618e-02
6.301869e-02
6.519279e-02
6.725989e-02
6.911178e-02
7.060125e-02
7.155829e-02
7.182923e-02
7.133852e-02
7.015616e-02
6.853824e-02
0.000000e+00
6.282710e-03
1.281278e-02
1.954931e-02
2.639655e-02
3.323972e-02
3.997643e-02
4.653289e-02
5.286423e-02
5.894778e-02
6.477509e-02
7.034605e-02
7.566517e-02
8.073960e-02
8.557826e-02
9.019145e-02
9.459071e-02
9.878861e-02
1.027982e-01
1.066318e-01
1.102994e-01
1.138057e-01
1.171459e-01
1.203007e-01
1.232305e-01
1.258702e-01
1.281282e-01
1.298917e-01
1.310460e-01
1.315075e-01
1.312702e-01
1.304521e-01
1.293229e-01
0.000000e+00
9.553286e-03
1.951495e-02
2.979600e-02
4.021891e-02
5.058934e-02
6.075331e-02
7.061128e-02
8.010955e-02
8.922338e-02
9.794447e-02
1.062730e-01
1.142132e-01
1.217713e-01
1.289544e-01
1.357702e-01
1.422266e-01
1.483318e-01
1.540937e-01
1.595189e-01
1.646112e-01
1.693695e-01
1.737845e-01
1.778355e-01
1.814864e-01
1.846845e-01
1.873607e-01
1.894376e-01
1.908462e-01
1.915519e-01
1.915916e-01
1.911117e-01
1.903980e-01
0.000000e+00
1.300420e-02
2.662761e-02
4.068569e-02
5.485742e-02
6.885481e-02
8.248486e-02
9.565004e-02
1.083063e-01
1.204372e-01
1.320391e-01
1.431141e-01
1.536662e-01
1.636998e-01
1.732190e-01
1.822278e-01
1.907296e-01
1.987272e-01
2.062224e-01
2.132157e-01
2.197050e-01
2.256842e-01
2.311418e-01
2.360591e-01
2.404083e-01
2.441530e-01
2.472504e-01
2.496576e-01
2.513446e-01
2.523138e-01
2.526282e-01
2.524480e-01
2.520721e-01
0.000000e+00
1.675967e-02
3.444488e-02
5.261400e-02
7.074028e-02
8.842722e-02
1.055232e-01
1.219736e-01
1.377632e-01
1.528905e-01
1.673584e-01
1.811700e-01
1.943281e-01
2.068340e-01
2.186881e-01
2.298893e-01
2.404355e-01
2.503233e-01
2.595478e-01
2.681025e-01
2.759786e-01
2.831654e-01
2.896490e-01
2.954132e-01
3.004395e-01
3.047091e-01
3.082060e-01
3.109224e-01
3.128665e-01
3.140746e-01
3.146304e-01
3.146966e-01
3.145719e-01
0.000000e+00
2.112724e-02
4.349607e-02
6.627151e-02
8.840292e-02
1.097195e-01
1.302073e-01
1.498851e-01
1.687690e-01
1.868690e-01
2.041899e-01
2.207332e-01
2.364978e-01
2.514806e-01
2.656769e-01
2.790804e-01
2.916828e-01
3.034738e-01
3.144409e-01
3.245695e-01
3.338430e-01
3.422434e-01
3.497523e-01
3.563531e-01
3.620331e-01
3.667880e-01
3.706264e-01
3.735755e-01
3.756861e-01
3.770379e-01
3.777454e-01
3.779759e-01
3.780034e-01
0.000000e+00
2.663719e-02
5.542273e-02
8.256611e-02
1.083676e-01
1.330726e-01
1.568113e-01
1.796401e-01
2.015803e-01
2.226370e-01
2.428077e-01
2.620870e-01
2.804675e-01
2.979409e-01
3.144972e-01
3.301247e-01
3.448090e-01
3.585330e-01
3.712760e-01
3.830139e-01
3.937197e-01
4.033646e-01
4.119200e-01
4.193615e-01
4.256736e-01
4.308567e-01
4.349352e-01
4.379666e-01
4.400489e-01
4.413249e-01
4.419768e-01
4.422131e-01
4.422710e-01
0.000000e+00
3.972442e-02
7.208116e-02
1.020605e-01
1.308370e-01
1.586301e-01
1.854955e-01
2.114307e-01
2.364186e-01
2.604391e-01
2.834738e-01
3.055066e-01
3.265233e-01
3.465106e-01
3.654545e-01
3.833392e-01
4.001456e-01
4.158503e-01
4.304247e-01
4.438342e-01
4.560385e-01
4.669926e-01
4.766495e-01
4.849649e-01
4.919045e-01
4.974543e-01
5.016341e-01
5.045135e-01
5.062298e-01
5.070031e-01
5.071437e-01
5.070272e-01
5.069617e-01
0.000000e+00
-2.454122e-02
-4.282972e-02
-6.278687e-02
-8.501036e-02
-1.101140e-01
-1.382723e-01
-1.695341e-01
-2.038683e-01
-2.412013e-01
-2.814343e-01
-3.244532e-01
-3.701355e-01
-4.183532e-01
-4.689759e-01
-5.218724e-01
-5.769121e-01
-6.339668e-01
-6.929124e-01
-7.536324e-01
-8.160210e-01
-8.799893e-01
-9.454738e-01
-1.012449e+00
-1.080949e+00
-1.151100e+00
-1.223181e+00
-1.297736e+00
-1.375807e+00
-1.459453e+00
-1.553121e+00
-1.667302e+00
-1.825047e+00
0.000000e+00
-1.525143e-02
-3.439467e-02
-5.448645e-02
-7.701969e-02
-1.023961e-01
-1.308279e-01
-1.623634e-01
-1.969739e-01
-2.345860e-01
-2.751002e-01
-3.184016e-01
-3.643664e-01
-4.128659e-01
-4.637682e-01
-5.169410e-01
-5.722519e-01
-6.295707e-01
-6.887713e-01
-7.497340e-01
-8.123494e-01
-8.765239e-01
-9.421884e-01
-1.009310e+00
-1.077914e+00
-1.148114e+00
-1.220175e+00
-1.294625e+00
-1.372482e+00
-1.455773e+00
-1.548718e+00
-1.660358e+00
-1.807732e+00
0.000000e+00
-1.120306e-02
-2.772882e-02
-4.754652e-02
-7.011913e-02
-9.568250e-02
-1.243388e-01
-1.561146e-01
-1.909716e-01
-2.288329e-01
-2.695972e-01
-3.131488e-01
-3.593635e-01
-4.081117e-01
-4.592615e-01
-5.126797e-01
-5.682336e-01
-6.257921e-01
-6.852281e-01
-7.464211e-01
-8.092607e-01
-8.736527e-01
-9.395275e-01
-1.006853e+00
-1.075658e+00
-1.146063e+00
-1.218344e+00
-1.293042e+00
-1.371163e+00
-1.454532e+00
-1.546268e+00
-1.650054e+00
-1.765183e+00
0.000000e+00
-8.970930e-03
-2.348072e-02
-4.224164e-02
-6.452415e-02
-9.007958e-02
-1.188584e-01
-1.508122e-01
-1.858722e-01
-2.239470e-01
-2.649290e-01
-3.086999e-01
-3.551340e-01
-4.041018e-01
-4.554714e-01
-5.091100e-01
-5.648851e-01
-6.226664e-01
-6.823275e-01
-7.437486e-01
-8.068210e-01
-8.714526e-01
-9.375775e-01
-1.005169e+00
-1.074261e+00
-1.144981e+00
-1.217603e+00
-1.292624e+00
-1.370868e+00
-1.453539e+00
-1.541786e+00
-1.634858e+00
-1.721500e+00
0.000000e+00
-7.590883e-03
-2.070261e-02
-3.847454e-02
-6.024911e-02
-8.563699e-02
-1.144267e-01
-1.464843e-01
-1.816940e-01
-2.199408e-01
-2.611050e-01
-3.050626e-01
-3.516860e-01
-4.008451e-01
-4.524085e-01
-5.062443e-01
-5.622215e-01
-6.202111e-01
-6.800885e-01
-7.417359e-01
-8.050470e-01
-8.699326e-01
-9.363294e-01
-1.004213e+00
-1.073614e+00
-1.144645e+00
-1.217528e+00
-1.292622e+00
-1.370402e+00
-1.451248e+00
-1.534775e+00
-1.617916e+00
-1.693371e+00
0.000000e+00
-6.712745e-03
-1.887982e-02
-3.588219e-02
-5.716661e-02
-8.231667e-02
-1.110438e-01
-1.431424e-01
-1.784508e-01
-2.168264e-01
-2.581349e-01
-3.022449e-01
-3.490258e-01
-3.983467e-01
-4.500770e-01
-5.040861e-01
-5.602447e-01
-6.184257e-01
-6.785064e-01
-7.403710e-01
-8.039147e-01
-8.690488e-01
-9.357081e-01
-1.003860e+00
-1.073518e+00
-1.144747e+00
-1.217675e+00
-1.292457e+00
-1.369181e+00
-1.447589e+00
-1.526484e+00
-1.603050e+00
-1.673030e+00
0.000000e+00
-6.166993e-03
-1.772737e-02
-3.419711e-02
-5.510156e-02
-8.003489e-02
-1.086767e-01
-1.407793e-01
-1.761460e-01
-2.146108e-01
-2.560257e-01
-3.002522e-01
-3.471566e-01
-3.966076e-01
-4.484752e-01
-5.026303e-01
-5.589454e-01
-6.172952e-01
-6.775583e-01
-7.396197e-01
-8.033737e-01
-8.687281e-01
-9.356088e-01
-1.003965e+00
-1.073775e+00
-1.145037e+00
-1.217760e+00
-1.291901e+00
-1.367247e+00
-1.443184e+00
-1.518398e+00
-1.590721e+00
-1.657496e+00
0.000000e+00
-5.867094e-03
-1.708789e-02
-3.324753e-02
-5.391743e-02
-7.870578e-02
-1.072818e-01
-1.393774e-01
-1.747756e-01
-2.132956e-01
-2.547802e-01
-2.990861e-01
-3.460777e-01
-3.956239e-01
-4.475955e-01
-5.018648e-01
-5.583059e-01
-6.167945e-01
-6.772097e-01
-7.394353e-01
-8.033618e-01
-8.688889e-01
-9.359272e-01
-1.004400e+00
-1.074237e+00
-1.145369e+00
-1.217689e+00
-1.291000e+00
-1.364912e+00
-1.438697e+00
-1.511171e+00
-1.580702e+00
-1.645477e+00
0.000000e+00
-5.770468e-03
-1.688158e-02
-3.293976e-02
-5.353150e-02
-7.827078e-02
-1.068249e-01
-1.389200e-01
-1.743331e-01
-2.128788e-01
-2.543974e-01
-2.987446e-01
-3.457849e-01
-3.953880e-01
-4.474261e-01
-5.017728e-01
-5.583031e-01
-6.168932e-01
-6.774212e-01
-7.397679e-01
-8.038173e-01
-8.694571e-01
-9.365785e-01
-1.005073e+00
-1.074825e+00
-1.145696e+00
-1.217493e+00
-1.289920e+00
-1.362510e+00
-1.434547e+00
-1.505029e+00
-1.572711e+00
-1.636265e+00
0.000000e+00
-5.864299e-03
-1.708402e-02
-3.324419e-02
-5.391642e-02
-7.870932e-02
-1.072929e-01
-1.393998e-01
-1.748145e-01
-2.133577e-01
-2.548742e-01
-2.992230e-01
-3.462710e-01
-3.958897e-01
-4.479528e-01
-5.023352e-01
-5.589122e-01
-6.175599e-01
-6.781542e-01
-7.405711e-01
-8.046865e-01
-8.703742e-01
-9.375040e-01
-1.005936e+00
-1.075513e+00
-1.146040e+00
-1.217266e+00
-1.288843e+00
-1.360289e+00
-1.430955e+00
-1.500012e+00
-1.566499e+00
-1.629400e+00
0.000000e+00
-6.161630e-03
-1.771992e-02
-3.419067e-02
-5.509954e-02
-8.004155e-02
-1.086976e-01
-1.408220e-01
-1.762203e-01
-2.147297e-01
-2.562058e-01
-3.005144e-01
-3.475269e-01
-3.971172e-01
-4.491607e-01
-5.035330e-01
-5.601098e-01
-6.187659e-01
-6.793744e-01
-7.418062e-01
-8.059277e-01
-8.715990e-01
-9.386691e-01
-1.006971e+00
-1.076310e+00
-1.146453e+00
-1.217112e+00
-1.287919e+00
-1.358412e+00
-1.428021e+00
-1.496077e+00
-1.561839e+00
-1.624526e+00
0.000000e+00
-6.705290e-03
-1.886947e-02
-3.587320e-02
-5.716370e-02
-8.232578e-02
-1.110727e-01
-1.432017e-01
-1.785542e-01
-2.169921e-01
-2.583862e-01
-3.026112e-01
-3.495433e-01
-3.990594e-01
-4.510362e-01
-5.053500e-01
-5.618760e-01
-6.204877e-01
-6.810552e-01
-7.434440e-01
-8.075119e-01
-8.731061e-01
-9.400581e-01
-1.008177e+00
-1.077243e+00
-1.146994e+00
-1.217122e+00
-1.287258e+00
-1.356971e+00
-1.425775e+00
-1.493140e+00
-1.558515e+00
-1.621332e+00
0.000000e+00
-7.582101e-03
-2.069043e-02
-3.846395e-02
-6.024574e-02
-8.564802e-02
-1.144616e-01
-1.465558e-01
-1.818189e-01
-2.201410e-01
-2.614087e-01
-3.055054e-01
-3.523119e-01
-4.017072e-01
-4.535691e-01
-5.077741e-01
-5.641969e-01
-6.227093e-01
-6.831788e-01
-7.454660e-01
-8.094217e-01
-8.748827e-01
-9.416663e-01
-1.009565e+00
-1.078339e+00
-1.147710e+00
-1.217359e+00
-1.286924e+00
-1.356008e+00
-1.424198e+00
-1.491090e+00
-1.556308e+00
-1.619503e+00
0.000000e+00
-8.961905e-03
-2.346821e-02
-4.223086e-02
-6.452126e-02
-9.009254e-02
-1.188978e-01
-1.508921e-01
-1.860111e-01
-2.241692e-01
-2.652657e-01
-3.091903e-01
-3.558266e-01
-4.050552e-01
-4.567542e-01
-5.107999e-01
-5.670663e-01
-6.254238e-01
-6.857376e-01
-7.478648e-01
-8.116508e-01
-8.769251e-01
-9.434956e-01
-1.011143e+00
-1.079617e+00
-1.148629e+00
-1.217855e+00
-1.286942e+00
-1.355522e+00
-1.423242e+00
-1.489800e+00
-1.554990e+00
-1.618706e+00
0.000000e+00
-1.119519e-02
-2.771787e-02
-4.753743e-02
-7.011826e-02
-9.569827e-02
-1.243823e-01
-1.562004e-01
-1.911192e-01
-2.290673e-01
-2.699506e-01
-3.136618e-01
-3.600858e-01
-4.091034e-01
-4.605927e-01
-5.144296e-01
-5.704871e-01
-6.286346e-01
-6.887355e-01
-7.506446e-01
-8.142040e-01
-8.792387e-01
-9.455516e-01
-1.012918e+00
-1.081081e+00
-1.149750e+00
-1.218601e+00
-1.287289e+00
-1.355467e+00
-1.422823e+00
-1.489132e+00
-1.554328e+00
-1.618567e+00
0.000000e+00
-1.524638e-02
-3.438722e-02
-5.448110e-02
-7.702300e-02
-1.024166e-01
-1.308769e-01
-1.624555e-01
-1.971286e-01
-2.348280e-01
-2.754612e-01
-3.189214e-01
-3.650936e-01
-4.138585e-01
-4.650937e-01
-5.186743e-01
-5.744728e-01
-6.323574e-01
-6.921901e-01
-7.538240e-01
-8.170995e-01
-8.818398e-01
-9.478458e-01
-1.014892e+00
-1.082721e+00
-1.151044e+00
-1.219543e+00
-1.287883e+00
-1.355733e+00
-1.422803e+00
-1.488915e+00
-1.554089e+00
-1.618686e+00
0.000000e+00
-2.454050e-02
-4.282723e-02
-6.278735e-02
-8.502038e-02
-1.101422e-01
-1.383299e-01
-1.696356e-01
-2.040327e-01
-2.414528e-01
-2.818034e-01
-3.249777e-01
-3.708612e-01
-4.193342e-01
-4.702739e-01
-5.235547e-01
-5.790482e-01
-6.366211e-01
-6.961341e-01
-7.574388e-01
-8.203740e-01
-8.847618e-01
-9.504032e-01