TITLE = "Solution"
VARIABLES = x, y, u, v, psiu, psiv, t, stress
ZONE T="structure" N=561 E=512 F=FEBLOCK ET=QUADRILATERAL VARLOCATION=([7,8]=cellcentered)
0.000000e+00
6.250000e+00
1.250000e+01
1.875000e+01
2.500000e+01
3.125000e+01
3.750000e+01
4.375000e+01
5.000000e+01
5.625000e+01
6.250000e+01
6.875000e+01
7.500000e+01
8.125000e+01
8.750000e+01
9.375000e+01
1.000000e+02
1.062500e+02
1.125000e+02
1.187500e+02
1.250000e+02
1.312500e+02
1.375000e+02
1.437500e+02
1.500000e+02
1.562500e+02
1.625000e+02
1.687500e+02
1.750000e+02
1.812500e+02
1.875000e+02
1.937500e+02
2.000000e+02
0.000000e+00
6.250000e+00
1.250000e+01
1.875000e+01
2.500000e+01
3.125000e+01
3.750000e+01
4.375000e+01
5.000000e+01
5.625000e+01
6.250000e+01
6.875000e+01
7.500000e+01
8.125000e+01
8.750000e+01
9.375000e+01
1.000000e+02
1.062500e+02
1.125000e+02
1.187500e+02
1.250000e+02
1.312500e+02
1.375000e+02
1.437500e+02
1.500000e+02
1.562500e+02
1.625000e+02
1.687500e+02
1.750000e+02
1.812500e+02
1.875000e+02
1.937500e+02
2.000000e+02
0.000000e+00
6.250000e+00
1.250000e+01
1.875000e+01
2.500000e+01
3.125000e+01
3.750000e+01
4.375000e+01
5.000000e+01
5.625000e+01
6.250000e+01
6.875000e+01
7.500000e+01
8.125000e+01
8.750000e+01
9.375000e+01
1.000000e+02
1.062500e+02
1.125000e+02
1.187500e+02
1.250000e+02
1.312500e+02
1.375000e+02
1.437500e+02
1.500000e+02
1.562500e+02
1.625000e+02
1.687500e+02
1.750000e+02
1.812500e+02
1.875000e+02
1.937500e+02
2.000000e+02
0.000000e+00
6.250000e+00
1.250000e+01
1.875000e+01
2.500000e+01
3.125000e+01
3.750000e+01
4.375000e+01
5.000000e+01
5.625000e+01
6.250000e+01
6.875000e+01
7.500000e+01
8.125000e+01
8.750000e+01
9.375000e+01
1.000000e+02
1.062500e+02
1.125000e+02
1.187500e+02
1.250000e+02
1.312500e+02
1.375000e+02
1.437500e+02
1.500000e+02
1.562500e+02
1.625000e+02
1.687500e+02
1.750000e+02
1.812500e+02
1.875000e+02
1.937500e+02
2.000000e+02
0.000000e+00
6.250000e+00
1.250000e+01
1.875000e+01
2.500000e+01
3.125000e+01
3.750000e+01
4.375000e+01
5.000000e+01
5.625000e+01
6.250000e+01
6.875000e+01
7.500000e+01
8.125000e+01
8.750000e+01
9.375000e+01
1.000000e+02
1.062500e+02
1.125000e+02
1.187500e+02
1.250000e+02
1.312500e+02
1.375000e+02
1.437500e+02
1.500000e+02
1.562500e+02
1.625000e+02
1.687500e+02
1.750000e+02
1.812500e+02
1.875000e+02
1.937500e+02
2.000000e+02
0.000000e+00
6.250000e+00
1.250000e+01
1.875000e+01
2.500000e+01
3.125000e+01
3.750000e+01
4.375000e+01
5.000000e+01
5.625000e+01
6.250000e+01
6.875000e+01
7.500000e+01
8.125000e+01
8.750000e+01
9.375000e+01
1.000000e+02
1.062500e+02
1.125000e+02
1.187500e+02
1.250000e+02
1.312500e+02
1.375000e+02
1.437500e+02
1.500000e+02
1.562500e+02
1.625000e+02
1.687500e+02
1.750000e+02
1.812500e+02
1.875000e+02
1.937500e+02
2.000000e+02
0.000000e+00
6.250000e+00
1.250000e+01
1.875000e+01
2.500000e+01
3.125000e+01
3.750000e+01
4.375000e+01
5.000000e+01
5.625000e+01
6.250000e+01
6.875000e+01
7.500000e+01
8.125000e+01
8.750000e+01
9.375000e+01
1.000000e+02
1.062500e+02
1.125000e+02
1.187500e+02
1.250000e+02
1.312500e+02
1.375000e+02
1.437500e+02
1.500000e+02
1.562500e+02
1.625000e+02
1.687500e+02
1.750000e+02
1.812500e+02
1.875000e+02
1.937500e+02
2.000000e+02
0.000000e+00
6.250000e+00
1.250000e+01
1.875000e+01
2.500000e+01
3.125000e+01
3.750000e+01
4.375000e+01
5.000000e+01
5.625000e+01
6.250000e+01
6.875000e+01
7.500000e+01
8.125000e+01
8.750000e+01
9.375000e+01
1.000000e+02
1.062500e+02
1.125000e+02
1.187500e+02
1.250000e+02
1.312500e+02
1.375000e+02
1.437500e+02
1.500000e+02
1.562500e+02
1.625000e+02
1.687500e+02
1.750000e+02
1.812500e+02
1.875000e+02
1.937500e+02
2.000000e+02
0.000000e+00
6.250000e+00
1.250000e+01
1.875000e+01
2.500000e+01
3.125000e+01
3.750000e+01
4.375000e+01
5.000000e+01
5.625000e+01
6.250000e+01
6.875000e+01
7.500000e+01
8.125000e+01
8.750000e+01
9.375000e+01
1.000000e+02
1.062500e+02
1.125000e+02
1.187500e+02
1.250000e+02
1.312500e+02
1.375000e+02
1.437500e+02
1.500000e+02
1.562500e+02
1.625000e+02
1.687500e+02
1.750000e+02
1.812500e+02
1.875000e+02
1.937500e+02
2.000000e+02
0.000000e+00
6.250000e+00
1.250000e+01
1.875000e+01
2.500000e+01
3.125000e+01
3.750000e+01
4.375000e+01
5.000000e+01
5.625000e+01
6.250000e+01
6.875000e+01
7.500000e+01
8.125000e+01
8.750000e+01
9.375000e+01
1.000000e+02
1.062500e+02
1.125000e+02
1.187500e+02
1.250000e+02
1.312500e+02
1.375000e+02
1.437500e+02
1.500000e+02
1.562500e+02
1.625000e+02
1.687500e+02
1.750000e+02
1.812500e+02
1.875000e+02
1.937500e+02
2.000000e+02
0.000000e+00
6.250000e+00
1.250000e+01
1.875000e+01
2.500000e+01
3.125000e+01
3.750000e+01
4.375000e+01
5.000000e+01
5.625000e+01
6.250000e+01
6.875000e+01
7.500000e+01
8.125000e+01
8.750000e+01
9.375000e+01
1.000000e+02
1.062500e+02
1.125000e+02
1.187500e+02
1.250000e+02
1.312500e+02
1.375000e+02
1.437500e+02
1.500000e+02
1.562500e+02
1.625000e+02
1.687500e+02
1.750000e+02
1.812500e+02
1.875000e+02
1.937500e+02
2.000000e+02
0.000000e+00
6.250000e+00
1.250000e+01
1.875000e+01
2.500000e+01
3.125000e+01
3.750000e+01
4.375000e+01
5.000000e+01
5.625000e+01
6.250000e+01
6.875000e+01
7.500000e+01
8.125000e+01
8.750000e+01
9.375000e+01
1.000000e+02
1.062500e+02
1.125000e+02
1.187500e+02
1.250000e+02
1.312500e+02
1.375000e+02
1.437500e+02
1.500000e+02
1.562500e+02
1.625000e+02
1.687500e+02
1.750000e+02
1.812500e+02
1.875000e+02
1.937500e+02
2.000000e+02
0.000000e+00
6.250000e+00
1.250000e+01
1.875000e+01
2.500000e+01
3.125000e+01
3.750000e+01
4.375000e+01
5.000000e+01
5.625000e+01
6.250000e+01
6.875000e+01
7.500000e+01
8.125000e+01
8.750000e+01
9.375000e+01
1.000000e+02
1.062500e+02
1.125000e+02
1.187500e+02
1.250000e+02
1.312500e+02
1.375000e+02
1.437500e+02
1.500000e+02
1.562500e+02
1.625000e+02
1.687500e+02
1.750000e+02
1.812500e+02
1.875000e+02
1.937500e+02
2.000000e+02
0.000000e+00
6.250000e+00
1.250000e+01
1.875000e+01
2.500000e+01
3.125000e+01
3.750000e+01
4.375000e+01
5.000000e+01
5.625000e+01
6.250000e+01
6.875000e+01
7.500000e+01
8.125000e+01
8.750000e+01
9.375000e+01
1.000000e+02
1.062500e+02
1.125000e+02
1.187500e+02
1.250000e+02
1.312500e+02
1.375000e+02
1.437500e+02
1.500000e+02
1.562500e+02
1.625000e+02
1.687500e+02
1.750000e+02
1.812500e+02
1.875000e+02
1.937500e+02
2.000000e+02
0.000000e+00
6.250000e+00
1.250000e+01
1.875000e+01
2.500000e+01
3.125000e+01
3.750000e+01
4.375000e+01
5.000000e+01
5.625000e+01
6.250000e+01
6.875000e+01
7.500000e+01
8.125000e+01
8.750000e+01
9.375000e+01
1.000000e+02
1.062500e+02
1.125000e+02
1.187500e+02
1.250000e+02
1.312500e+02
1.375000e+02
1.437500e+02
1.500000e+02
1.562500e+02
1.625000e+02
1.687500e+02
1.750000e+02
1.812500e+02
1.875000e+02
1.937500e+02
2.000000e+02
0.000000e+00
6.250000e+00
1.250000e+01
1.875000e+01
2.500000e+01
3.125000e+01
3.750000e+01
4.375000e+01
5.000000e+01
5.625000e+01
6.250000e+01
6.875000e+01
7.500000e+01
8.125000e+01
8.750000e+01
9.375000e+01
1.000000e+02
1.062500e+02
1.125000e+02
1.187500e+02
1.250000e+02
1.312500e+02
1.375000e+02
1.437500e+02
1.500000e+02
1.562500e+02
1.625000e+02
1.687500e+02
1.750000e+02
1.812500e+02
1.875000e+02
1.937500e+02
2.000000e+02
0.000000e+00
6.250000e+00
1.250000e+01
1.875000e+01
2.500000e+01
3.125000e+01
3.750000e+01
4.375000e+01
5.000000e+01
5.625000e+01
6.250000e+01
6.875000e+01
7.500000e+01
8.125000e+01
8.750000e+01
9.375000e+01
1.000000e+02
1.062500e+02
1.125000e+02
1.187500e+02
1.250000e+02
1.312500e+02
1.375000e+02
1.437500e+02
1.500000e+02
1.562500e+02
1.625000e+02
1.687500e+02
1.750000e+02
1.812500e+02
1.875000e+02
1.937500e+02
2.000000e+02
0.000000e+00
0.000000e+00
0.000000e+00
0.000000e+00
0.000000e+00
0.000000e+00
0.000000e+00
0.000000e+00
0.000000e+00
0.000000e+00
0.000000e+00
0.000000e+00
0.000000e+00
0.000000e+00
0.000000e+00
0.000000e+00
0.000000e+00
0.000000e+00
0.000000e+00
0.000000e+00
0.000000e+00
0.000000e+00
0.000000e+00
0.000000e+00
0.000000e+00
0.000000e+00
0.000000e+00
0.000000e+00
0.000000e+00
0.000000e+00
0.000000e+00
0.000000e+00
0.000000e+00
6.250000e+00
6.250000e+00
6.250000e+00
6.250000e+00
6.250000e+00
6.250000e+00
6.250000e+00
6.250000e+00
6.250000e+00
6.250000e+00
6.250000e+00
6.250000e+00
6.250000e+00
6.250000e+00
6.250000e+00
6.250000e+00
6.250000e+00
6.250000e+00
6.250000e+00
6.250000e+00
6.250000e+00
6.250000e+00
6.250000e+00
6.250000e+00
6.250000e+00
6.250000e+00
6.250000e+00
6.250000e+00
6.250000e+00
6.250000e+00
6.250000e+00
6.250000e+00
6.250000e+00
1.250000e+01
1.250000e+01
1.250000e+01
1.250000e+01
1.250000e+01
1.250000e+01
1.250000e+01
1.250000e+01
1.250000e+01
1.250000e+01
1.250000e+01
1.250000e+01
1.250000e+01
1.250000e+01
1.250000e+01
1.250000e+01
1.250000e+01
1.250000e+01
1.250000e+01
1.250000e+01
1.250000e+01
1.250000e+01
1.250000e+01
1.250000e+01
1.250000e+01
1.250000e+01
1.250000e+01
1.250000e+01
1.250000e+01
1.250000e+01
1.250000e+01
1.250000e+01
1.250000e+01
1.875000e+01
1.875000e+01
1.875000e+01
1.875000e+01
1.875000e+01
1.875000e+01
1.875000e+01
1.875000e+01
1.875000e+01
1.875000e+01
1.875000e+01
1.875000e+01
1.875000e+01
1.875000e+01
1.875000e+01
1.875000e+01
1.875000e+01
1.875000e+01
1.875000e+01
1.875000e+01
1.875000e+01
1.875000e+01
1.875000e+01
1.875000e+01
1.875000e+01
1.875000e+01
1.875000e+01
1.875000e+01
1.875000e+01
1.875000e+01
1.875000e+01
1.875000e+01
1.875000e+01
2.500000e+01
2.500000e+01
2.500000e+01
2.500000e+01
2.500000e+01
2.500000e+01
2.500000e+01
2.500000e+01
2.500000e+01
2.500000e+01
2.500000e+01
2.500000e+01
2.500000e+01
2.500000e+01
2.500000e+01
2.500000e+01
2.500000e+01
2.500000e+01
2.500000e+01
2.500000e+01
2.500000e+01
2.500000e+01
2.500000e+01
2.500000e+01
2.500000e+01
2.500000e+01
2.500000e+01
2.500000e+01
2.500000e+01
2.500000e+01
2.500000e+01
2.500000e+01
2.500000e+01
3.125000e+01
3.125000e+01
3.125000e+01
3.125000e+01
3.125000e+01
3.125000e+01
3.125000e+01
3.125000e+01
3.125000e+01
3.125000e+01
3.125000e+01
3.125000e+01
3.125000e+01
3.125000e+01
3.125000e+01
3.125000e+01
3.125000e+01
3.125000e+01
3.125000e+01
3.125000e+01
3.125000e+01
3.125000e+01
3.125000e+01
3.125000e+01
3.125000e+01
3.125000e+01
3.125000e+01
3.125000e+01
3.125000e+01
3.125000e+01
3.125000e+01
3.125000e+01
3.125000e+01
3.750000e+01
3.750000e+01
3.750000e+01
3.750000e+01
3.750000e+01
3.750000e+01
3.750000e+01
3.750000e+01
3.750000e+01
3.750000e+01
3.750000e+01
3.750000e+01
3.750000e+01
3.750000e+01
3.750000e+01
3.750000e+01
3.750000e+01
3.750000e+01
3.750000e+01
3.750000e+01
3.750000e+01
3.750000e+01
3.750000e+01
3.750000e+01
3.750000e+01
3.750000e+01
3.750000e+01
3.750000e+01
3.750000e+01
3.750000e+01
3.750000e+01
3.750000e+01
3.750000e+01
4.375000e+01
4.375000e+01
4.375000e+01
4.375000e+01
4.375000e+01
4.375000e+01
4.375000e+01
4.375000e+01
4.375000e+01
4.375000e+01
4.375000e+01
4.375000e+01
4.375000e+01
4.375000e+01
4.375000e+01
4.375000e+01
4.375000e+01
4.375000e+01
4.375000e+01
4.375000e+01
4.375000e+01
4.375000e+01
4.375000e+01
4.375000e+01
4.375000e+01
4.375000e+01
4.375000e+01
4.375000e+01
4.375000e+01
4.375000e+01
4.375000e+01
4.375000e+01
4.375000e+01
5.000000e+01
5.000000e+01
5.000000e+01
5.000000e+01
5.000000e+01
5.000000e+01
5.000000e+01
5.000000e+01
5.000000e+01
5.000000e+01
5.000000e+01
5.000000e+01
5.000000e+01
5.000000e+01
5.000000e+01
5.000000e+01
5.000000e+01
5.000000e+01
5.000000e+01
5.000000e+01
5.000000e+01
5.000000e+01
5.000000e+01
5.000000e+01
5.000000e+01
5.000000e+01
5.000000e+01
5.000000e+01
5.000000e+01
5.000000e+01
5.000000e+01
5.000000e+01
5.000000e+01
5.625000e+01
5.625000e+01
5.625000e+01
5.625000e+01
5.625000e+01
5.625000e+01
5.625000e+01
5.625000e+01
5.625000e+01
5.625000e+01
5.625000e+01
5.625000e+01
5.625000e+01
5.625000e+01
5.625000e+01
5.625000e+01
5.625000e+01
5.625000e+01
5.625000e+01
5.625000e+01
5.625000e+01
5.625000e+01
5.625000e+01
5.625000e+01
5.625000e+01
5.625000e+01
5.625000e+01
5.625000e+01
5.625000e+01
5.625000e+01
5.625000e+01
5.625000e+01
5.625000e+01
6.250000e+01
6.250000e+01
6.250000e+01
6.250000e+01
6.250000e+01
6.250000e+01
6.250000e+01
6.250000e+01
6.250000e+01
6.250000e+01
6.250000e+01
6.250000e+01
6.250000e+01
6.250000e+01
6.250000e+01
6.250000e+01
6.250000e+01
6.250000e+01
6.250000e+01
6.250000e+01
6.250000e+01
6.250000e+01
6.250000e+01
6.250000e+01
6.250000e+01
6.250000e+01
6.250000e+01
6.250000e+01
6.250000e+01
6.250000e+01
6.250000e+01
6.250000e+01
6.250000e+01
6.875000e+01
6.875000e+01
6.875000e+01
6.875000e+01
6.875000e+01
6.875000e+01
6.875000e+01
6.875000e+01
6.875000e+01
6.875000e+01
6.875000e+01
6.875000e+01
6.875000e+01
6.875000e+01
6.875000e+01
6.875000e+01
6.875000e+01
6.875000e+01
6.875000e+01
6.875000e+01
6.875000e+01
6.875000e+01
6.875000e+01
6.875000e+01
6.875000e+01
6.875000e+01
6.875000e+01
6.875000e+01
6.875000e+01
6.875000e+01
6.875000e+01
6.875000e+01
6.875000e+01
7.500000e+01
7.500000e+01
7.500000e+01
7.500000e+01
7.500000e+01
7.500000e+01
7.500000e+01
7.500000e+01
7.500000e+01
7.500000e+01
7.500000e+01
7.500000e+01
7.500000e+01
7.500000e+01
7.500000e+01
7.500000e+01
7.500000e+01
7.500000e+01
7.500000e+01
7.500000e+01
7.500000e+01
7.500000e+01
7.500000e+01
7.500000e+01
7.500000e+01
7.500000e+01
7.500000e+01
7.500000e+01
7.500000e+01
7.500000e+01
7.500000e+01
7.500000e+01
7.500000e+01
8.125000e+01
8.125000e+01
8.125000e+01
8.125000e+01
8.125000e+01
8.125000e+01
8.125000e+01
8.125000e+01
8.125000e+01
8.125000e+01
8.125000e+01
8.125000e+01
8.125000e+01
8.125000e+01
8.125000e+01
8.125000e+01
8.125000e+01
8.125000e+01
8.125000e+01
8.125000e+01
8.125000e+01
8.125000e+01
8.125000e+01
8.125000e+01
8.125000e+01
8.125000e+01
8.125000e+01
8.125000e+01
8.125000e+01
8.125000e+01
8.125000e+01
8.125000e+01
8.125000e+01
8.750000e+01
8.750000e+01
8.750000e+01
8.750000e+01
8.750000e+01
8.750000e+01
8.750000e+01
8.750000e+01
8.750000e+01
8.750000e+01
8.750000e+01
8.750000e+01
8.750000e+01
8.750000e+01
8.750000e+01
8.750000e+01
8.750000e+01
8.750000e+01
8.750000e+01
8.750000e+01
8.750000e+01
8.750000e+01
8.750000e+01
8.750000e+01
8.750000e+01
8.750000e+01
8.750000e+01
8.750000e+01
8.750000e+01
8.750000e+01
8.750000e+01
8.750000e+01
8.750000e+01
9.375000e+01
9.375000e+01
9.375000e+01
9.375000e+01
9.375000e+01
9.375000e+01
9.375000e+01
9.375000e+01
9.375000e+01
9.375000e+01
9.375000e+01
9.375000e+01
9.375000e+01
9.375000e+01
9.375000e+01
9.375000e+01
9.375000e+01
9.375000e+01
9.375000e+01
9.375000e+01
9.375000e+01
9.375000e+01
9.375000e+01
9.375000e+01
9.375000e+01
9.375000e+01
9.375000e+01
9.375000e+01
9.375000e+01
9.375000e+01
9.375000e+01
9.375000e+01
9.375000e+01
1.000000e+02
1.000000e+02
1.000000e+02
1.000000e+02
1.000000e+02
1.000000e+02
1.000000e+02
1.000000e+02
1.000000e+02
1.000000e+02
1.000000e+02
1.000000e+02
1.000000e+02
1.000000e+02
1.000000e+02
1.000000e+02
1.000000e+02
1.000000e+02
1.000000e+02
1.000000e+02
1.000000e+02
1.000000e+02
1.000000e+02
1.000000e+02
1.000000e+02
1.000000e+02
1.000000e+02
1.000000e+02
1.000000e+02
1.000000e+02
1.000000e+02
1.000000e+02
1.000000e+02
0.000000e+00
-8.093132e-02
-1.468389e-01
-2.078933e-01
-2.664894e-01
-3.230736e-01
-3.777593e-01
-4.305415e-01
-4.813869e-01
-5.302585e-01
-5.771255e-01
-6.219668e-01
-6.647713e-01
-7.055382e-01
-7.442769e-01
-7.810078e-01
-8.157638e-01
-8.485926e-01
-8.795602e-01
-9.087557e-01
-9.362978e-01
-9.623434e-01
-9.871001e-01
-1.010843e+00
-1.033941e+00
-1.056895e+00
-1.080402e+00
-1.105454e+00
-1.133506e+00
-1.166703e+00
-1.207824e+00
-1.256827e+00
-1.286733e+00
0.000000e+00
-5.426192e-02
-1.128976e-01
-1.681837e-01
-2.207320e-01
-2.710425e-01
-3.193809e-01
-3.658634e-01
-4.105362e-01
-4.534143e-01
-4.945004e-01
-5.337946e-01
-5.712986e-01
-6.070186e-01
-6.409662e-01
-6.731604e-01
-7.036285e-01
-7.324082e-01
-7.595492e-01
-7.851164e-01
-8.091923e-01
-8.318811e-01
-8.533120e-01
-8.736431e-01
-8.930634e-01
-9.117902e-01
-9.300531e-01
-9.480410e-01
-9.657525e-01
-9.826114e-01
-9.966594e-01
-1.004872e+00
-1.016306e+00
0.000000e+00
-4.304048e-02
-8.860917e-02
-1.350058e-01
-1.800896e-01
-2.235127e-01
-2.652471e-01
-3.053322e-01
-3.438034e-01
-3.806850e-01
-4.159924e-01
-4.497367e-01
-4.819271e-01
-5.125731e-01
-5.416861e-01
-5.692801e-01
-5.953730e-01
-6.199873e-01
-6.431507e-01
-6.648962e-01
-6.852617e-01
-7.042885e-01
-7.220172e-01
-7.384791e-01
-7.536807e-01
-7.675734e-01
-7.799981e-01
-7.905893e-01
-7.986305e-01
-8.029605e-01
-8.025810e-01
-8.001498e-01
-8.135014e-01
0.000000e+00
-3.414879e-02
-7.018359e-02
-1.072052e-01
-1.441405e-01
-1.801816e-01
-2.150199e-01
-2.485445e-01
-2.807254e-01
-3.115612e-01
-3.410598e-01
-3.692311e-01
-3.960845e-01
-4.216283e-01
-4.458702e-01
-4.688169e-01
-4.904747e-01
-5.108491e-01
-5.299444e-01
-5.477615e-01
-5.642959e-01
-5.795325e-01
-5.934375e-01
-6.059461e-01
-6.169429e-01
-6.262337e-01
-6.335110e-01
-6.383303e-01
-6.401705e-01
-6.388046e-01
-6.354872e-01
-6.352891e-01
-6.480099e-01
0.000000e+00
-2.650431e-02
-5.427182e-02
-8.292656e-02
-1.118144e-01
-1.403483e-01
-1.681345e-01
-1.949736e-01
-2.207750e-01
-2.455038e-01
-2.691507e-01
-2.917170e-01
-3.132070e-01
-3.336241e-01
-3.529697e-01
-3.712421e-01
-3.884355e-01
-4.045395e-01
-4.195376e-01
-4.334045e-01
-4.461030e-01
-4.575789e-01
-4.677535e-01
-4.765152e-01
-4.837091e-01
-4.891317e-01
-4.925439e-01
-4.937410e-01
-4.927590e-01
-4.903563e-01
-4.887975e-01
-4.923972e-01
-5.032487e-01
0.000000e+00
-1.947919e-02
-3.979297e-02
-6.075949e-02
-8.201655e-02
-1.031674e-01
-1.238970e-01
-1.440005e-01
-1.633657e-01
-1.819377e-01
-1.996934e-01
-2.166248e-01
-2.327289e-01
-2.480028e-01
-2.624407e-01
-2.760324e-01
-2.887616e-01
-3.006050e-01
-3.115308e-01
-3.214960e-01
-3.304446e-01
-3.383040e-01
-3.449823e-01
-3.503676e-01
-3.543320e-01
-3.567510e-01
-3.575535e-01
-3.568333e-01
-3.550583e-01
-3.533694e-01
-3.537806e-01
-3.583695e-01
-3.673485e-01
0.000000e+00
-1.281968e-02
-2.614646e-02
-3.989607e-02
-5.387248e-02
-6.784047e-02
-8.158938e-02
-9.496568e-02
-1.078732e-01
-1.202590e-01
-1.320963e-01
-1.433714e-01
-1.540758e-01
-1.642006e-01
-1.737334e-01
-1.826569e-01
-1.909471e-01
-1.985719e-01
-2.054905e-01
-2.116519e-01
-2.169943e-01
-2.214451e-01
-2.249235e-01
-2.273474e-01
-2.286499e-01
-2.288114e-01
-2.279210e-01
-2.262732e-01
-2.244950e-01
-2.236331e-01
-2.249778e-01
-2.294456e-01
-2.366937e-01
0.000000e+00
-6.367542e-03
-1.297583e-02
-1.979091e-02
-2.672673e-02
-3.367374e-02
-4.052790e-02
-4.720777e-02
-5.365835e-02
-5.984601e-02
-6.575083e-02
-7.135964e-02
-7.666094e-02
-8.164159e-02
-8.628459e-02
-9.056765e-02
-9.446203e-02
-9.793177e-02
-1.009332e-01
-1.034153e-01
-1.053207e-01
-1.065889e-01
-1.071635e-01
-1.070037e-01
-1.061064e-01
-1.045402e-01
-1.024945e-01
-1.003390e-01
-9.866571e-02
-9.824651e-02
-9.982423e-02
-1.037218e-01
-1.094730e-01
0.000000e+00
-1.027617e-05
-2.228133e-05
-3.535049e-05
-4.879624e-05
-6.169178e-05
-7.264038e-05
-7.951952e-05
-7.918190e-05
-6.709555e-05
-3.690928e-05
2.006403e-05
1.154456e-04
2.644572e-04
4.866238e-04
8.064521e-04
1.253979e-03
1.865019e-03
2.680850e-03
3.746911e-03
5.109921e-03
6.812521e-03
8.884247e-03
1.132735e-02
1.409606e-02
1.706909e-02
2.001884e-02
2.258876e-02
2.430431e-02
2.465223e-02
2.325145e-02
2.007910e-02
1.563603e-02
0.000000e+00
6.348186e-03
1.293377e-02
1.972405e-02
2.663424e-02
3.355647e-02
4.038929e-02
4.705524e-02
5.350517e-02
5.971394e-02
6.567353e-02
7.138707e-02
7.686491e-02
8.212256e-02
8.717990e-02
9.206094e-02
9.679386e-02
1.014108e-01
1.059470e-01
1.104386e-01
1.149193e-01
1.194136e-01
1.239281e-01
1.284376e-01
1.328688e-01
1.370820e-01
1.408565e-01
1.438924e-01
1.458430e-01
1.463952e-01
1.453951e-01
1.429852e-01
1.396876e-01
0.000000e+00
1.280387e-02
2.611186e-02
3.984068e-02
5.379525e-02
6.774164e-02
8.147121e-02
9.483356e-02
1.077372e-01
1.201360e-01
1.320127e-01
1.433669e-01
1.542080e-01
1.645504e-01
1.744123e-01
1.838147e-01
1.927811e-01
2.013372e-01
2.095093e-01
2.173229e-01
2.247983e-01
2.319447e-01
2.387527e-01
2.451827e-01
2.511542e-01
2.565346e-01
2.611367e-01
2.647312e-01
2.670838e-01
2.680245e-01
2.675408e-01
2.658733e-01
2.635718e-01
0.000000e+00
1.946910e-02
3.977049e-02
6.072289e-02
8.196459e-02
1.030995e-01
1.238140e-01
1.439050e-01
1.632631e-01
1.818379e-01
1.996124e-01
2.165869e-01
2.327702e-01
2.481747e-01
2.628149e-01
2.767065e-01
2.898657e-01
3.023092e-01
3.140530e-01
3.251105e-01
3.354896e-01
3.451879e-01
3.541865e-01
3.624431e-01
3.698845e-01
3.764027e-01
3.818573e-01
3.860906e-01
3.889614e-01
3.903999e-01
3.904809e-01
3.895027e-01
3.880481e-01
0.000000e+00
2.650180e-02
5.426555e-02
8.291533e-02
1.117971e-01
1.403238e-01
1.681023e-01
1.949336e-01
2.207280e-01
2.454519e-01
2.690979e-01
2.916701e-01
3.131767e-01
3.336265e-01
3.530282e-01
3.713897e-01
3.887177e-01
4.050182e-01
4.202948e-01
4.345484e-01
4.477746e-01
4.599614e-01
4.710851e-01
4.811074e-01
4.899720e-01
4.976045e-01
5.039174e-01
5.088238e-01
5.122623e-01
5.142378e-01
5.148786e-01
5.145113e-01
5.137450e-01
0.000000e+00
3.415513e-02
7.019648e-02
1.072243e-01
1.441654e-01
1.802116e-01
2.150539e-01
2.485808e-01
2.807612e-01
3.115921e-01
3.410792e-01
3.692291e-01
3.960471e-01
4.215361e-01
4.456964e-01
4.685263e-01
4.900213e-01
5.101744e-01
5.289756e-01
5.464115e-01
5.624646e-01
5.771126e-01
5.903274e-01
6.020759e-01
6.123204e-01
6.210228e-01
6.281502e-01
6.336867e-01
6.376491e-01
6.401116e-01
6.412443e-01
6.413793e-01
6.411251e-01
0.000000e+00
4.305596e-02
8.864222e-02
1.350575e-01
1.801611e-01
2.236047e-01
2.653598e-01
3.054643e-01
3.439512e-01
3.808408e-01
4.161429e-01
4.498603e-01
4.819906e-01
5.125278e-01
5.414623e-01
5.687808e-01
5.944666e-01
6.184987e-01
6.408516e-01
6.614956e-01
6.803967e-01
6.975183e-01
7.128230e-01
7.262765e-01
7.378535e-01
7.475449e-01
7.553684e-01
7.613791e-01
7.656809e-01
7.684361e-01
7.698783e-01
7.703480e-01
7.704040e-01
0.000000e+00
5.428517e-02
1.129484e-01
1.682654e-01
2.208486e-01
2.711980e-01
3.195787e-01
3.661054e-01
4.108215e-01
4.537371e-01
4.948474e-01
5.341410e-01
5.716032e-01
6.072166e-01
6.409610e-01
6.728123e-01
7.027415e-01
7.307134e-01
7.566859e-01
7.806099e-01
8.024304e-01
8.220884e-01
8.395261e-01
8.546933e-01
8.675586e-01
8.781227e-01
8.864355e-01
8.926140e-01
8.968583e-01
8.994589e-01
9.007876e-01
9.012693e-01
9.013873e-01
0.000000e+00
8.095677e-02
1.468982e-01
2.079951e-01
2.666417e-01
3.232847e-01
3.780378e-01
4.308957e-01
4.818232e-01
5.307795e-01
5.777268e-01
6.226325e-01
6.654675e-01
7.062046e-01
7.448153e-01
7.812672e-01
8.155215e-01
8.475306e-01
8.772359e-01
9.045669e-01
9.294415e-01
9.517679e-01
9.714505e-01
9.883990e-01
1.002543e+00
1.013855e+00
1.022374e+00
1.028243e+00
1.031741e+00
1.033317e+00
1.033604e+00
1.033366e+00
1.033233e+00
0.000000e+00
-5.001405e-02
-8.728593e-02
-1.279591e-01
-1.732513e-01
-2.244135e-01
-2.818010e-01
-3.455139e-01
-4.154885e-01
-4.915750e-01
-5.735718e-01
-6.612468e-01
-7.543500e-01
-8.526207e-01
-9.557933e-01
-1.063600e+00
-1.175775e+00
-1.292057e+00
-1.412193e+00
-1.535946e+00
-1.663099e+00
-1.793472e+00
-1.926936e+00
-2.063438e+00
-2.203047e+00
-2.346022e+00
-2.492930e+00
-2.644882e+00
-2.803997e+00
-2.974476e+00
-3.165383e+00
-3.398097e+00
-3.719598e+00
0.000000e+00
-3.108188e-02
-7.009570e-02
-1.110430e-01
-1.569663e-01
-2.086840e-01
-2.666291e-01
-3.308994e-01
-4.014371e-01
-4.780923e-01
-5.606621e-01
-6.489127e-01
-7.425918e-01
-8.414367e-01
-9.451792e-01
-1.053549e+00
-1.166277e+00
-1.283097e+00
-1.403753e+00
-1.528000e+00
-1.655615e+00
-1.786409e+00
-1.920239e+00
-2.057040e+00
-2.196860e+00
-2.339935e+00
-2.486803e+00
-2.638540e+00
-2.797221e+00
-2.966977e+00
-3.156409e+00
-3.383943e+00
-3.684308e+00
0.000000e+00
-2.283149e-02
-5.651101e-02
-9.689963e-02
-1.429029e-01
-1.950016e-01
-2.534038e-01
-3.181639e-01
-3.892039e-01
-4.663668e-01
-5.494464e-01
-6.382069e-01
-7.323950e-01
-8.317470e-01
-9.359938e-01
-1.044864e+00
-1.158087e+00
-1.275396e+00
-1.396531e+00
-1.521248e+00
-1.649320e+00
-1.780557e+00
-1.914816e+00
-2.052033e+00
-2.192263e+00
-2.335755e+00
-2.483071e+00
-2.635312e+00
-2.794532e+00
-2.964448e+00
-3.151415e+00
-3.362942e+00
-3.597587e+00
0.000000e+00
-1.828264e-02
-4.785363e-02
-8.608847e-02
-1.315004e-01
-1.835828e-01
-2.422347e-01
-3.073574e-01
-3.788108e-01
-4.564088e-01
-5.399322e-01
-6.291394e-01
-7.237748e-01
-8.235743e-01
-9.282690e-01
-1.037588e+00
-1.151262e+00
-1.269025e+00
-1.390619e+00
-1.515801e+00
-1.644348e+00
-1.776073e+00
-1.910841e+00
-2.048599e+00
-2.189415e+00
-2.333550e+00
-2.481560e+00
-2.634461e+00
-2.793932e+00
-2.962423e+00
-3.142280e+00
-3.331973e+00
-3.508557e+00
0.000000e+00
-1.547031e-02
-4.219208e-02
-7.841134e-02
-1.227880e-01
-1.745288e-01
-2.332027e-01
-2.985369e-01
-3.702955e-01
-4.482439e-01
-5.321384e-01
-6.217262e-01
-7.167473e-01
-8.169366e-01
-9.220262e-01
-1.031747e+00
-1.145833e+00
-1.264021e+00
-1.386056e+00
-1.511698e+00
-1.640732e+00
-1.772975e+00
-1.908297e+00
-2.046650e+00
-2.188096e+00
-2.332864e+00
-2.481408e+00
-2.634458e+00
-2.792981e+00
-2.957754e+00
-3.127990e+00
-3.297441e+00
-3.451227e+00
0.000000e+00
-1.368081e-02
-3.847742e-02
-7.312831e-02
-1.165060e-01
-1.677621e-01
-2.263083e-01
-2.917261e-01
-3.636856e-01
-4.418965e-01
-5.260851e-01
-6.159835e-01
-7.113255e-01
-8.118446e-01
-9.172744e-01
-1.027349e+00
-1.141804e+00
-1.260382e+00
-1.382831e+00
-1.508916e+00
-1.638424e+00
-1.771173e+00
-1.907031e+00
-2.045932e+00
-2.187901e+00
-2.333074e+00
-2.481707e+00
-2.634121e+00
-2.790493e+00
-2.950296e+00
-3.111094e+00
-3.267142e+00
-3.409769e+00
0.000000e+00
-1.256865e-02
-3.612884e-02
-6.969424e-02
-1.122976e-01
-1.631119e-01
-2.214842e-01
-2.869101e-01
-3.589883e-01
-4.373810e-01
-5.217864e-01
-6.119221e-01
-7.075159e-01
-8.083001e-01
-9.140096e-01
-1.024382e+00
-1.139156e+00
-1.258077e+00
-1.380899e+00
-1.507385e+00
-1.637321e+00
-1.770520e+00
-1.906829e+00
-2.046146e+00
-2.188424e+00
-2.333664e+00
-2.481881e+00
-2.632988e+00
-2.786551e+00
-2.941318e+00
-3.094612e+00
-3.242014e+00
-3.378108e+00
0.000000e+00
-1.195750e-02
-3.482567e-02
-6.775908e-02
-1.098844e-01
-1.604032e-01
-2.186416e-01
-2.840531e-01
-3.561954e-01
-4.347005e-01
-5.192479e-01
-6.095455e-01
-7.053171e-01
-8.062952e-01
-9.122167e-01
-1.022821e+00
-1.137853e+00
-1.257057e+00
-1.380188e+00
-1.507009e+00
-1.637297e+00
-1.770847e+00
-1.907478e+00
-2.047031e+00
-2.189367e+00
-2.334340e+00
-2.481735e+00
-2.631152e+00
-2.781792e+00
-2.932174e+00
-3.079882e+00
-3.221593e+00
-3.353610e+00
0.000000e+00
-1.176059e-02
-3.440523e-02
-6.713187e-02
-1.090979e-01
-1.595167e-01
-2.177104e-01
-2.831209e-01
-3.552936e-01
-4.338512e-01
-5.184679e-01
-6.088495e-01
-7.047204e-01
-8.058145e-01
-9.118715e-01
-1.022634e+00
-1.137847e+00
-1.257258e+00
-1.380619e+00
-1.507687e+00
-1.638226e+00
-1.772006e+00
-1.908805e+00
-2.048404e+00
-2.190565e+00
-2.335007e+00
-2.481336e+00
-2.628950e+00
-2.776896e+00
-2.923715e+00
-3.067364e+00
-3.205306e+00
-3.334835e+00
0.000000e+00
-1.195180e-02
-3.481776e-02
-6.775227e-02
-1.098823e-01
-1.604104e-01
-2.186641e-01
-2.840987e-01
-3.562747e-01
-4.348272e-01
-5.194396e-01
-6.098245e-01
-7.057109e-01
-8.068369e-01
-9.129449e-01
-1.023780e+00
-1.139088e+00
-1.258617e+00
-1.382113e+00
-1.509324e+00
-1.639997e+00
-1.773875e+00
-1.910691e+00
-2.050163e+00
-2.191966e+00
-2.335708e+00
-2.480873e+00
-2.626755e+00
-2.772370e+00
-2.916393e+00
-3.057138e+00
-3.192644e+00
-3.320842e+00
0.000000e+00
-1.255772e-02
-3.611368e-02
-6.968112e-02
-1.122935e-01
-1.631255e-01
-2.215269e-01
-2.869971e-01
-3.591398e-01
-4.376233e-01
-5.221534e-01
-6.124566e-01
-7.082706e-01
-8.093387e-01
-9.154068e-01
-1.026222e+00
-1.141529e+00
-1.261075e+00
-1.384600e+00
-1.511842e+00
-1.642527e+00
-1.776371e+00
-1.913066e+00
-2.052271e+00
-2.193591e+00
-2.336551e+00
-2.480560e+00
-2.624872e+00
-2.768544e+00
-2.910414e+00
-3.049119e+00
-3.183146e+00
-3.310909e+00
0.000000e+00
-1.366561e-02
-3.845634e-02
-7.310998e-02
-1.165001e-01
-1.677806e-01
-2.263674e-01
-2.918469e-01
-3.638965e-01
-4.422343e-01
-5.265973e-01
-6.167301e-01
-7.123804e-01
-8.132972e-01
-9.192294e-01
-1.029925e+00
-1.145129e+00
-1.264584e+00
-1.388026e+00
-1.515180e+00
-1.645756e+00
-1.779443e+00
-1.915897e+00
-2.054730e+00
-2.195492e+00
-2.337653e+00
-2.480580e+00
-2.623524e+00
-2.765606e+00
-2.905835e+00
-3.043132e+00
-3.176372e+00
-3.304398e+00
0.000000e+00
-1.545241e-02
-4.216726e-02
-7.838974e-02
-1.227812e-01
-1.745513e-01
-2.332739e-01
-2.986827e-01
-3.705501e-01
-4.486519e-01
-5.327574e-01
-6.226288e-01
-7.180231e-01
-8.186938e-01
-9.243919e-01
-1.034866e+00
-1.149859e+00
-1.269112e+00
-1.392354e+00
-1.519301e+00
-1.649648e+00
-1.783064e+00
-1.919175e+00
-2.057559e+00
-2.197727e+00
-2.339113e+00
-2.481064e+00
-2.622843e+00
-2.763643e+00
-2.902621e+00
-3.038953e+00
-3.171873e+00
-3.300671e+00
0.000000e+00
-1.826424e-02
-4.782815e-02
-8.606652e-02
-1.314945e-01
-1.836092e-01
-2.423150e-01
-3.075202e-01
-3.790939e-01
-4.568617e-01
-5.406184e-01
-6.301389e-01
-7.251865e-01
-8.255175e-01
-9.308835e-01
-1.041033e+00
-1.155708e+00
-1.274645e+00
-1.397569e+00
-1.524190e+00
-1.654192e+00
-1.787227e+00
-1.922903e+00
-2.060776e+00
-2.200332e+00
-2.340984e+00
-2.482074e+00
-2.622880e+00
-2.762653e+00
-2.900672e+00
-3.036325e+00
-3.169188e+00
-3.299047e+00
0.000000e+00
-2.281546e-02
-5.648869e-02
-9.688109e-02
-1.429011e-01
-1.950337e-01
-2.534925e-01
-3.183390e-01
-3.895048e-01
-4.668446e-01
-5.501668e-01
-6.392524e-01
-7.338673e-01
-8.337684e-01
-9.387070e-01
-1.048430e+00
-1.162680e+00
-1.281189e+00
-1.403680e+00
-1.529856e+00
-1.659395e+00
-1.791942e+00
-1.927094e+00
-2.064393e+00
-2.203316e+00
-2.343269e+00
-2.483595e+00
-2.623588e+00
-2.762542e+00
-2.899819e+00
-3.034963e+00
-3.167838e+00
-3.298763e+00
0.000000e+00
-3.107157e-02
-7.008052e-02
-1.110321e-01
-1.569730e-01
-2.087259e-01
-2.667289e-01
-3.310873e-01
-4.017523e-01
-4.785855e-01
-5.613980e-01
-6.499722e-01
-7.440739e-01
-8.434599e-01
-9.478807e-01
-1.057082e+00
-1.170803e+00
-1.288777e+00
-1.410721e+00
-1.536336e+00
-1.665297e+00
-1.797244e+00
-1.931770e+00
-2.068416e+00
-2.206658e+00
-2.345907e+00
-2.485516e+00
-2.624799e+00
-2.763082e+00
-2.899779e+00
-3.034519e+00
-3.167350e+00
-3.299005e+00
0.000000e+00
-5.001259e-02
-8.728087e-02
-1.279601e-01
-1.732717e-01
-2.244710e-01
-2.819184e-01
-3.457209e-01
-4.158237e-01
-4.920876e-01
-5.743241e-01
-6.623158e-01
-7.558291e-01
-8.546201e-01
-9.584387e-01
-1.067029e+00
-1.180129e+00
-1.297467e+00
-1.418759e+00
-1.543704e+00
-1.671971e+00
-1.803199e+00
-1.936982e+00