TITLE = "Solution"
VARIABLES = x, y, u, v, psiu, psiv, t, stress
ZONE T="structure" N=561 E=512 F=FEBLOCK ET=QUADRILATERAL VARLOCATION=([7,8]=cellcentered)
0.000000e+00
6.250000e+00
1.250000e+01
1.875000e+01
2.500000e+01
3.125000e+01
3.750000e+01
4.375000e+01
5.000000e+01
5.625000e+01
6.250000e+01
6.875000e+01
7.500000e+01
8.125000e+01
8.750000e+01
9.375000e+01
1.000000e+02
1.062500e+02
1.125000e+02
1.187500e+02
1.250000e+02
1.312500e+02
1.375000e+02
1.437500e+02
1.500000e+02
1.562500e+02
1.625000e+02
1.687500e+02
1.750000e+02
1.812500e+02
1.875000e+02
1.937500e+02
2.000000e+02
0.000000e+00
6.250000e+00
1.250000e+01
1.875000e+01
2.500000e+01
3.125000e+01
3.750000e+01
4.375000e+01
5.000000e+01
5.625000e+01
6.250000e+01
6.875000e+01
7.500000e+01
8.125000e+01
8.750000e+01
9.375000e+01
1.000000e+02
1.062500e+02
1.125000e+02
1.187500e+02
1.250000e+02
1.312500e+02
1.375000e+02
1.437500e+02
1.500000e+02
1.562500e+02
1.625000e+02
1.687500e+02
1.750000e+02
1.812500e+02
1.875000e+02
1.937500e+02
2.000000e+02
0.000000e+00
6.250000e+00
1.250000e+01
1.875000e+01
2.500000e+01
3.125000e+01
3.750000e+01
4.375000e+01
5.000000e+01
5.625000e+01
6.250000e+01
6.875000e+01
7.500000e+01
8.125000e+01
8.750000e+01
9.375000e+01
1.000000e+02
1.062500e+02
1.125000e+02
1.187500e+02
1.250000e+02
1.312500e+02
1.375000e+02
1.437500e+02
1.500000e+02
1.562500e+02
1.625000e+02
1.687500e+02
1.750000e+02
1.812500e+02
1.875000e+02
1.937500e+02
2.000000e+02
0.000000e+00
6.250000e+00
1.250000e+01
1.875000e+01
2.500000e+01
3.125000e+01
3.750000e+01
4.375000e+01
5.000000e+01
5.625000e+01
6.250000e+01
6.875000e+01
7.500000e+01
8.125000e+01
8.750000e+01
9.375000e+01
1.000000e+02
1.062500e+02
1.125000e+02
1.187500e+02
1.250000e+02
1.312500e+02
1.375000e+02
1.437500e+02
1.500000e+02
1.562500e+02
1.625000e+02
1.687500e+02
1.750000e+02
1.812500e+02
1.875000e+02
1.937500e+02
2.000000e+02
0.000000e+00
6.250000e+00
1.250000e+01
1.875000e+01
2.500000e+01
3.125000e+01
3.750000e+01
4.375000e+01
5.000000e+01
5.625000e+01
6.250000e+01
6.875000e+01
7.500000e+01
8.125000e+01
8.750000e+01
9.375000e+01
1.000000e+02
1.062500e+02
1.125000e+02
1.187500e+02
1.250000e+02
1.312500e+02
1.375000e+02
1.437500e+02
1.500000e+02
1.562500e+02
1.625000e+02
1.687500e+02
1.750000e+02
1.812500e+02
1.875000e+02
1.937500e+02
2.000000e+02
0.000000e+00
6.250000e+00
1.250000e+01
1.875000e+01
2.500000e+01
3.125000e+01
3.750000e+01
4.375000e+01
5.000000e+01
5.625000e+01
6.250000e+01
6.875000e+01
7.500000e+01
8.125000e+01
8.750000e+01
9.375000e+01
1.000000e+02
1.062500e+02
1.125000e+02
1.187500e+02
1.250000e+02
1.312500e+02
1.375000e+02
1.437500e+02
1.500000e+02
1.562500e+02
1.625000e+02
1.687500e+02
1.750000e+02
1.812500e+02
1.875000e+02
1.937500e+02
2.000000e+02
0.000000e+00
6.250000e+00
1.250000e+01
1.875000e+01
2.500000e+01
3.125000e+01
3.750000e+01
4.375000e+01
5.000000e+01
5.625000e+01
6.250000e+01
6.875000e+01
7.500000e+01
8.125000e+01
8.750000e+01
9.375000e+01
1.000000e+02
1.062500e+02
1.125000e+02
1.187500e+02
1.250000e+02
1.312500e+02
1.375000e+02
1.437500e+02
1.500000e+02
1.562500e+02
1.625000e+02
1.687500e+02
1.750000e+02
1.812500e+02
1.875000e+02
1.937500e+02
2.000000e+02
0.000000e+00
6.250000e+00
1.250000e+01
1.875000e+01
2.500000e+01
3.125000e+01
3.750000e+01
4.375000e+01
5.000000e+01
5.625000e+01
6.250000e+01
6.875000e+01
7.500000e+01
8.125000e+01
8.750000e+01
9.375000e+01
1.000000e+02
1.062500e+02
1.125000e+02
1.187500e+02
1.250000e+02
1.312500e+02
1.375000e+02
1.437500e+02
1.500000e+02
1.562500e+02
1.625000e+02
1.687500e+02
1.750000e+02
1.812500e+02
1.875000e+02
1.937500e+02
2.000000e+02
0.000000e+00
6.250000e+00
1.250000e+01
1.875000e+01
2.500000e+01
3.125000e+01
3.750000e+01
4.375000e+01
5.000000e+01
5.625000e+01
6.250000e+01
6.875000e+01
7.500000e+01
8.125000e+01
8.750000e+01
9.375000e+01
1.000000e+02
1.062500e+02
1.125000e+02
1.187500e+02
1.250000e+02
1.312500e+02
1.375000e+02
1.437500e+02
1.500000e+02
1.562500e+02
1.625000e+02
1.687500e+02
1.750000e+02
1.812500e+02
1.875000e+02
1.937500e+02
2.000000e+02
0.000000e+00
6.250000e+00
1.250000e+01
1.875000e+01
2.500000e+01
3.125000e+01
3.750000e+01
4.375000e+01
5.000000e+01
5.625000e+01
6.250000e+01
6.875000e+01
7.500000e+01
8.125000e+01
8.750000e+01
9.375000e+01
1.000000e+02
1.062500e+02
1.125000e+02
1.187500e+02
1.250000e+02
1.312500e+02
1.375000e+02
1.437500e+02
1.500000e+02
1.562500e+02
1.625000e+02
1.687500e+02
1.750000e+02
1.812500e+02
1.875000e+02
1.937500e+02
2.000000e+02
0.000000e+00
6.250000e+00
1.250000e+01
1.875000e+01
2.500000e+01
3.125000e+01
3.750000e+01
4.375000e+01
5.000000e+01
5.625000e+01
6.250000e+01
6.875000e+01
7.500000e+01
8.125000e+01
8.750000e+01
9.375000e+01
1.000000e+02
1.062500e+02
1.125000e+02
1.187500e+02
1.250000e+02
1.312500e+02
1.375000e+02
1.437500e+02
1.500000e+02
1.562500e+02
1.625000e+02
1.687500e+02
1.750000e+02
1.812500e+02
1.875000e+02
1.937500e+02
2.000000e+02
0.000000e+00
6.250000e+00
1.250000e+01
1.875000e+01
2.500000e+01
3.125000e+01
3.750000e+01
4.375000e+01
5.000000e+01
5.625000e+01
6.250000e+01
6.875000e+01
7.500000e+01
8.125000e+01
8.750000e+01
9.375000e+01
1.000000e+02
1.062500e+02
1.125000e+02
1.187500e+02
1.250000e+02
1.312500e+02
1.375000e+02
1.437500e+02
1.500000e+02
1.562500e+02
1.625000e+02
1.687500e+02
1.750000e+02
1.812500e+02
1.875000e+02
1.937500e+02
2.000000e+02
0.000000e+00
6.250000e+00
1.250000e+01
1.875000e+01
2.500000e+01
3.125000e+01
3.750000e+01
4.375000e+01
5.000000e+01
5.625000e+01
6.250000e+01
6.875000e+01
7.500000e+01
8.125000e+01
8.750000e+01
9.375000e+01
1.000000e+02
1.062500e+02
1.125000e+02
1.187500e+02
1.250000e+02
1.312500e+02
1.375000e+02
1.437500e+02
1.500000e+02
1.562500e+02
1.625000e+02
1.687500e+02
1.750000e+02
1.812500e+02
1.875000e+02
1.937500e+02
2.000000e+02
0.000000e+00
6.250000e+00
1.250000e+01
1.875000e+01
2.500000e+01
3.125000e+01
3.750000e+01
4.375000e+01
5.000000e+01
5.625000e+01
6.250000e+01
6.875000e+01
7.500000e+01
8.125000e+01
8.750000e+01
9.375000e+01
1.000000e+02
1.062500e+02
1.125000e+02
1.187500e+02
1.250000e+02
1.312500e+02
1.375000e+02
1.437500e+02
1.500000e+02
1.562500e+02
1.625000e+02
1.687500e+02
1.750000e+02
1.812500e+02
1.875000e+02
1.937500e+02
2.000000e+02
0.000000e+00
6.250000e+00
1.250000e+01
1.875000e+01
2.500000e+01
3.125000e+01
3.750000e+01
4.375000e+01
5.000000e+01
5.625000e+01
6.250000e+01
6.875000e+01
7.500000e+01
8.125000e+01
8.750000e+01
9.375000e+01
1.000000e+02
1.062500e+02
1.125000e+02
1.187500e+02
1.250000e+02
1.312500e+02
1.375000e+02
1.437500e+02
1.500000e+02
1.562500e+02
1.625000e+02
1.687500e+02
1.750000e+02
1.812500e+02
1.875000e+02
1.937500e+02
2.000000e+02
0.000000e+00
6.250000e+00
1.250000e+01
1.875000e+01
2.500000e+01
3.125000e+01
3.750000e+01
4.375000e+01
5.000000e+01
5.625000e+01
6.250000e+01
6.875000e+01
7.500000e+01
8.125000e+01
8.750000e+01
9.375000e+01
1.000000e+02
1.062500e+02
1.125000e+02
1.187500e+02
1.250000e+02
1.312500e+02
1.375000e+02
1.437500e+02
1.500000e+02
1.562500e+02
1.625000e+02
1.687500e+02
1.750000e+02
1.812500e+02
1.875000e+02
1.937500e+02
2.000000e+02
0.000000e+00
6.250000e+00
1.250000e+01
1.875000e+01
2.500000e+01
3.125000e+01
3.750000e+01
4.375000e+01
5.000000e+01
5.625000e+01
6.250000e+01
6.875000e+01
7.500000e+01
8.125000e+01
8.750000e+01
9.375000e+01
1.000000e+02
1.062500e+02
1.125000e+02
1.187500e+02
1.250000e+02
1.312500e+02
1.375000e+02
1.437500e+02
1.500000e+02
1.562500e+02
1.625000e+02
1.687500e+02
1.750000e+02
1.812500e+02
1.875000e+02
1.937500e+02
2.000000e+02
0.000000e+00
0.000000e+00
0.000000e+00
0.000000e+00
0.000000e+00
0.000000e+00
0.000000e+00
0.000000e+00
0.000000e+00
0.000000e+00
0.000000e+00
0.000000e+00
0.000000e+00
0.000000e+00
0.000000e+00
0.000000e+00
0.000000e+00
0.000000e+00
0.000000e+00
0.000000e+00
0.000000e+00
0.000000e+00
0.000000e+00
0.000000e+00
0.000000e+00
0.000000e+00
0.000000e+00
0.000000e+00
0.000000e+00
0.000000e+00
0.000000e+00
0.000000e+00
0.000000e+00
6.250000e+00
6.250000e+00
6.250000e+00
6.250000e+00
6.250000e+00
6.250000e+00
6.250000e+00
6.250000e+00
6.250000e+00
6.250000e+00
6.250000e+00
6.250000e+00
6.250000e+00
6.250000e+00
6.250000e+00
6.250000e+00
6.250000e+00
6.250000e+00
6.250000e+00
6.250000e+00
6.250000e+00
6.250000e+00
6.250000e+00
6.250000e+00
6.250000e+00
6.250000e+00
6.250000e+00
6.250000e+00
6.250000e+00
6.250000e+00
6.250000e+00
6.250000e+00
6.250000e+00
1.250000e+01
1.250000e+01
1.250000e+01
1.250000e+01
1.250000e+01
1.250000e+01
1.250000e+01
1.250000e+01
1.250000e+01
1.250000e+01
1.250000e+01
1.250000e+01
1.250000e+01
1.250000e+01
1.250000e+01
1.250000e+01
1.250000e+01
1.250000e+01
1.250000e+01
1.250000e+01
1.250000e+01
1.250000e+01
1.250000e+01
1.250000e+01
1.250000e+01
1.250000e+01
1.250000e+01
1.250000e+01
1.250000e+01
1.250000e+01
1.250000e+01
1.250000e+01
1.250000e+01
1.875000e+01
1.875000e+01
1.875000e+01
1.875000e+01
1.875000e+01
1.875000e+01
1.875000e+01
1.875000e+01
1.875000e+01
1.875000e+01
1.875000e+01
1.875000e+01
1.875000e+01
1.875000e+01
1.875000e+01
1.875000e+01
1.875000e+01
1.875000e+01
1.875000e+01
1.875000e+01
1.875000e+01
1.875000e+01
1.875000e+01
1.875000e+01
1.875000e+01
1.875000e+01
1.875000e+01
1.875000e+01
1.875000e+01
1.875000e+01
1.875000e+01
1.875000e+01
1.875000e+01
2.500000e+01
2.500000e+01
2.500000e+01
2.500000e+01
2.500000e+01
2.500000e+01
2.500000e+01
2.500000e+01
2.500000e+01
2.500000e+01
2.500000e+01
2.500000e+01
2.500000e+01
2.500000e+01
2.500000e+01
2.500000e+01
2.500000e+01
2.500000e+01
2.500000e+01
2.500000e+01
2.500000e+01
2.500000e+01
2.500000e+01
2.500000e+01
2.500000e+01
2.500000e+01
2.500000e+01
2.500000e+01
2.500000e+01
2.500000e+01
2.500000e+01
2.500000e+01
2.500000e+01
3.125000e+01
3.125000e+01
3.125000e+01
3.125000e+01
3.125000e+01
3.125000e+01
3.125000e+01
3.125000e+01
3.125000e+01
3.125000e+01
3.125000e+01
3.125000e+01
3.125000e+01
3.125000e+01
3.125000e+01
3.125000e+01
3.125000e+01
3.125000e+01
3.125000e+01
3.125000e+01
3.125000e+01
3.125000e+01
3.125000e+01
3.125000e+01
3.125000e+01
3.125000e+01
3.125000e+01
3.125000e+01
3.125000e+01
3.125000e+01
3.125000e+01
3.125000e+01
3.125000e+01
3.750000e+01
3.750000e+01
3.750000e+01
3.750000e+01
3.750000e+01
3.750000e+01
3.750000e+01
3.750000e+01
3.750000e+01
3.750000e+01
3.750000e+01
3.750000e+01
3.750000e+01
3.750000e+01
3.750000e+01
3.750000e+01
3.750000e+01
3.750000e+01
3.750000e+01
3.750000e+01
3.750000e+01
3.750000e+01
3.750000e+01
3.750000e+01
3.750000e+01
3.750000e+01
3.750000e+01
3.750000e+01
3.750000e+01
3.750000e+01
3.750000e+01
3.750000e+01
3.750000e+01
4.375000e+01
4.375000e+01
4.375000e+01
4.375000e+01
4.375000e+01
4.375000e+01
4.375000e+01
4.375000e+01
4.375000e+01
4.375000e+01
4.375000e+01
4.375000e+01
4.375000e+01
4.375000e+01
4.375000e+01
4.375000e+01
4.375000e+01
4.375000e+01
4.375000e+01
4.375000e+01
4.375000e+01
4.375000e+01
4.375000e+01
4.375000e+01
4.375000e+01
4.375000e+01
4.375000e+01
4.375000e+01
4.375000e+01
4.375000e+01
4.375000e+01
4.375000e+01
4.375000e+01
5.000000e+01
5.000000e+01
5.000000e+01
5.000000e+01
5.000000e+01
5.000000e+01
5.000000e+01
5.000000e+01
5.000000e+01
5.000000e+01
5.000000e+01
5.000000e+01
5.000000e+01
5.000000e+01
5.000000e+01
5.000000e+01
5.000000e+01
5.000000e+01
5.000000e+01
5.000000e+01
5.000000e+01
5.000000e+01
5.000000e+01
5.000000e+01
5.000000e+01
5.000000e+01
5.000000e+01
5.000000e+01
5.000000e+01
5.000000e+01
5.000000e+01
5.000000e+01
5.000000e+01
5.625000e+01
5.625000e+01
5.625000e+01
5.625000e+01
5.625000e+01
5.625000e+01
5.625000e+01
5.625000e+01
5.625000e+01
5.625000e+01
5.625000e+01
5.625000e+01
5.625000e+01
5.625000e+01
5.625000e+01
5.625000e+01
5.625000e+01
5.625000e+01
5.625000e+01
5.625000e+01
5.625000e+01
5.625000e+01
5.625000e+01
5.625000e+01
5.625000e+01
5.625000e+01
5.625000e+01
5.625000e+01
5.625000e+01
5.625000e+01
5.625000e+01
5.625000e+01
5.625000e+01
6.250000e+01
6.250000e+01
6.250000e+01
6.250000e+01
6.250000e+01
6.250000e+01
6.250000e+01
6.250000e+01
6.250000e+01
6.250000e+01
6.250000e+01
6.250000e+01
6.250000e+01
6.250000e+01
6.250000e+01
6.250000e+01
6.250000e+01
6.250000e+01
6.250000e+01
6.250000e+01
6.250000e+01
6.250000e+01
6.250000e+01
6.250000e+01
6.250000e+01
6.250000e+01
6.250000e+01
6.250000e+01
6.250000e+01
6.250000e+01
6.250000e+01
6.250000e+01
6.250000e+01
6.875000e+01
6.875000e+01
6.875000e+01
6.875000e+01
6.875000e+01
6.875000e+01
6.875000e+01
6.875000e+01
6.875000e+01
6.875000e+01
6.875000e+01
6.875000e+01
6.875000e+01
6.875000e+01
6.875000e+01
6.875000e+01
6.875000e+01
6.875000e+01
6.875000e+01
6.875000e+01
6.875000e+01
6.875000e+01
6.875000e+01
6.875000e+01
6.875000e+01
6.875000e+01
6.875000e+01
6.875000e+01
6.875000e+01
6.875000e+01
6.875000e+01
6.875000e+01
6.875000e+01
7.500000e+01
7.500000e+01
7.500000e+01
7.500000e+01
7.500000e+01
7.500000e+01
7.500000e+01
7.500000e+01
7.500000e+01
7.500000e+01
7.500000e+01
7.500000e+01
7.500000e+01
7.500000e+01
7.500000e+01
7.500000e+01
7.500000e+01
7.500000e+01
7.500000e+01
7.500000e+01
7.500000e+01
7.500000e+01
7.500000e+01
7.500000e+01
7.500000e+01
7.500000e+01
7.500000e+01
7.500000e+01
7.500000e+01
7.500000e+01
7.500000e+01
7.500000e+01
7.500000e+01
8.125000e+01
8.125000e+01
8.125000e+01
8.125000e+01
8.125000e+01
8.125000e+01
8.125000e+01
8.125000e+01
8.125000e+01
8.125000e+01
8.125000e+01
8.125000e+01
8.125000e+01
8.125000e+01
8.125000e+01
8.125000e+01
8.125000e+01
8.125000e+01
8.125000e+01
8.125000e+01
8.125000e+01
8.125000e+01
8.125000e+01
8.125000e+01
8.125000e+01
8.125000e+01
8.125000e+01
8.125000e+01
8.125000e+01
8.125000e+01
8.125000e+01
8.125000e+01
8.125000e+01
8.750000e+01
8.750000e+01
8.750000e+01
8.750000e+01
8.750000e+01
8.750000e+01
8.750000e+01
8.750000e+01
8.750000e+01
8.750000e+01
8.750000e+01
8.750000e+01
8.750000e+01
8.750000e+01
8.750000e+01
8.750000e+01
8.750000e+01
8.750000e+01
8.750000e+01
8.750000e+01
8.750000e+01
8.750000e+01
8.750000e+01
8.750000e+01
8.750000e+01
8.750000e+01
8.750000e+01
8.750000e+01
8.750000e+01
8.750000e+01
8.750000e+01
8.750000e+01
8.750000e+01
9.375000e+01
9.375000e+01
9.375000e+01
9.375000e+01
9.375000e+01
9.375000e+01
9.375000e+01
9.375000e+01
9.375000e+01
9.375000e+01
9.375000e+01
9.375000e+01
9.375000e+01
9.375000e+01
9.375000e+01
9.375000e+01
9.375000e+01
9.375000e+01
9.375000e+01
9.375000e+01
9.375000e+01
9.375000e+01
9.375000e+01
9.375000e+01
9.375000e+01
9.375000e+01
9.375000e+01
9.375000e+01
9.375000e+01
9.375000e+01
9.375000e+01
9.375000e+01
9.375000e+01
1.000000e+02
1.000000e+02
1.000000e+02
1.000000e+02
1.000000e+02
1.000000e+02
1.000000e+02
1.000000e+02
1.000000e+02
1.000000e+02
1.000000e+02
1.000000e+02
1.000000e+02
1.000000e+02
1.000000e+02
1.000000e+02
1.000000e+02
1.000000e+02
1.000000e+02
1.000000e+02
1.000000e+02
1.000000e+02
1.000000e+02
1.000000e+02
1.000000e+02
1.000000e+02
1.000000e+02
1.000000e+02
1.000000e+02
1.000000e+02
1.000000e+02
1.000000e+02
1.000000e+02
0.000000e+00
-3.994952e-02
-7.248309e-02
-1.026208e-01
-1.315446e-01
-1.594749e-01
-1.864677e-01
-2.125208e-01
-2.376177e-01
-2.617401e-01
-2.848729e-01
-3.070058e-01
-3.281332e-01
-3.482548e-01
-3.673752e-01
-3.855046e-01
-4.026591e-01
-4.188624e-01
-4.341471e-01
-4.485570e-01
-4.621509e-01
-4.750062e-01
-4.872253e-01
-4.989440e-01
-5.103444e-01
-5.216739e-01
-5.332760e-01
-5.456407e-01
-5.594868e-01
-5.758719e-01
-5.961681e-01
-6.203556e-01
-6.351169e-01
0.000000e+00
-2.678508e-02
-5.572924e-02
-8.301976e-02
-1.089583e-01
-1.337920e-01
-1.576518e-01
-1.805954e-01
-2.026455e-01
-2.238096e-01
-2.440891e-01
-2.634840e-01
-2.819952e-01
-2.996257e-01
-3.163814e-01
-3.322715e-01
-3.473097e-01
-3.615145e-01
-3.749105e-01
-3.875296e-01
-3.994127e-01
-4.106112e-01
-4.211888e-01
-4.312235e-01
-4.408087e-01
-4.500517e-01
-4.590656e-01
-4.679439e-01
-4.766857e-01
-4.850068e-01
-4.919405e-01
-4.959943e-01
-5.016378e-01
0.000000e+00
-2.124599e-02
-4.373998e-02
-6.664244e-02
-8.889654e-02
-1.103305e-01
-1.309307e-01
-1.507166e-01
-1.697057e-01
-1.879100e-01
-2.053372e-01
-2.219928e-01
-2.378813e-01
-2.530075e-01
-2.673769e-01
-2.809965e-01
-2.938752e-01
-3.060241e-01
-3.174569e-01
-3.281897e-01
-3.382415e-01
-3.476325e-01
-3.563828e-01
-3.645079e-01
-3.720109e-01
-3.788678e-01
-3.850002e-01
-3.902277e-01
-3.941965e-01
-3.963336e-01
-3.961462e-01
-3.949462e-01
-4.015363e-01
0.000000e+00
-1.685681e-02
-3.464459e-02
-5.291930e-02
-7.115119e-02
-8.894147e-02
-1.061378e-01
-1.226855e-01
-1.385697e-01
-1.537900e-01
-1.683501e-01
-1.822549e-01
-1.955092e-01
-2.081170e-01
-2.200822e-01
-2.314081e-01
-2.420977e-01
-2.521540e-01
-2.615788e-01
-2.703728e-01
-2.785336e-01
-2.860539e-01
-2.929169e-01
-2.990908e-01
-3.045184e-01
-3.091040e-01
-3.126959e-01
-3.150745e-01
-3.159826e-01
-3.153084e-01
-3.136710e-01
-3.135732e-01
-3.198520e-01
0.000000e+00
-1.308324e-02
-2.679001e-02
-4.093464e-02
-5.519417e-02
-6.927882e-02
-8.299423e-02
-9.624202e-02
-1.089775e-01
-1.211833e-01
-1.328551e-01
-1.439935e-01
-1.546005e-01
-1.646779e-01
-1.742265e-01
-1.832452e-01
-1.917314e-01
-1.996799e-01
-2.070825e-01
-2.139268e-01
-2.201943e-01
-2.258584e-01
-2.308803e-01
-2.352048e-01
-2.387555e-01
-2.414318e-01
-2.431160e-01
-2.437068e-01
-2.432221e-01
-2.420362e-01
-2.412668e-01
-2.430435e-01
-2.483996e-01
0.000000e+00
-9.615418e-03
-1.964280e-02
-2.999232e-02
-4.048517e-02
-5.092547e-02
-6.115773e-02
-7.108087e-02
-8.063942e-02
-8.980640e-02
-9.857043e-02
-1.069275e-01
-1.148762e-01
-1.224150e-01
-1.295412e-01
-1.362497e-01
-1.425325e-01
-1.483781e-01
-1.537707e-01
-1.586893e-01
-1.631060e-01
-1.669851e-01
-1.702813e-01
-1.729393e-01
-1.748960e-01
-1.760899e-01
-1.764860e-01
-1.761305e-01
-1.752544e-01
-1.744209e-01
-1.746238e-01
-1.768888e-01
-1.813206e-01
0.000000e+00
-6.328101e-03
-1.290651e-02
-1.969360e-02
-2.659259e-02
-3.348736e-02
-4.027392e-02
-4.687649e-02
-5.324762e-02
-5.936116e-02
-6.520387e-02
-7.076911e-02
-7.605261e-02
-8.104997e-02
-8.575517e-02
-9.015959e-02
-9.425137e-02
-9.801476e-02
-1.014296e-01
-1.044707e-01
-1.071075e-01
-1.093043e-01
-1.110211e-01
-1.122175e-01
-1.128603e-01
-1.129400e-01
-1.125005e-01
-1.116872e-01
-1.108096e-01
-1.103842e-01
-1.110479e-01
-1.132531e-01
-1.168306e-01
0.000000e+00
-3.143166e-03
-6.405161e-03
-9.769221e-03
-1.319286e-02
-1.662199e-02
-2.000525e-02
-2.330245e-02
-2.648644e-02
-2.954062e-02
-3.245518e-02
-3.522361e-02
-3.784023e-02
-4.029858e-02
-4.259026e-02
-4.470427e-02
-4.662643e-02
-4.833900e-02
-4.982044e-02
-5.104553e-02
-5.198595e-02
-5.261192e-02
-5.289548e-02
-5.281661e-02
-5.237376e-02
-5.160072e-02
-5.059104e-02
-4.952717e-02
-4.870129e-02
-4.849441e-02
-4.927314e-02
-5.119688e-02
-5.403547e-02
0.000000e+00
-5.071183e-06
-1.099577e-05
-1.744555e-05
-2.408127e-05
-3.044548e-05
-3.584881e-05
-3.924364e-05
-3.907657e-05
-3.311074e-05
-1.821140e-05
9.909141e-06
5.698677e-05
1.305345e-04
2.401892e-04
3.980465e-04
6.189316e-04
9.205220e-04
1.323190e-03
1.849364e-03
2.522101e-03
3.362449e-03
4.384985e-03
5.590818e-03
6.957360e-03
8.424748e-03
9.880637e-03
1.114906e-02
1.199578e-02
1.216749e-02
1.147610e-02
9.910329e-03
7.717381e-03
0.000000e+00
3.133614e-03
6.384409e-03
9.736229e-03
1.314721e-02
1.656411e-02
1.993685e-02
2.322718e-02
2.641085e-02
2.947545e-02
3.241704e-02
3.523715e-02
3.794091e-02
4.053598e-02
4.303217e-02
4.544132e-02
4.777736e-02
5.005615e-02
5.229507e-02
5.451200e-02
5.672351e-02
5.894178e-02
6.116997e-02
6.339571e-02
6.558283e-02
6.766229e-02
6.952526e-02
7.102365e-02
7.198640e-02
7.225897e-02
7.176533e-02
7.057589e-02
6.894829e-02
0.000000e+00
6.320298e-03
1.288943e-02
1.966626e-02
2.655448e-02
3.343859e-02
4.021560e-02
4.681129e-02
5.318050e-02
5.930045e-02
6.516263e-02
7.076692e-02
7.611786e-02
8.122265e-02
8.609026e-02
9.073104e-02
9.515663e-02
9.937964e-02
1.034132e-01
1.072697e-01
1.109593e-01
1.144866e-01
1.178467e-01
1.210204e-01
1.239677e-01
1.266233e-01
1.288948e-01
1.306689e-01
1.318300e-01
1.322943e-01
1.320556e-01
1.312325e-01
1.300966e-01
0.000000e+00
9.610441e-03
1.963171e-02
2.997427e-02
4.045953e-02
5.089200e-02
6.111678e-02
7.103373e-02
8.058883e-02
8.975719e-02
9.853045e-02
1.069088e-01
1.148965e-01
1.224999e-01
1.297260e-01
1.365825e-01
1.430775e-01
1.492192e-01
1.550156e-01
1.604733e-01
1.655961e-01
1.703828e-01
1.748242e-01
1.788994e-01
1.825722e-01
1.857894e-01
1.884816e-01
1.905710e-01
1.919880e-01
1.926979e-01
1.927379e-01
1.922551e-01
1.915372e-01
0.000000e+00
1.308200e-02
2.678692e-02
4.092910e-02
5.518562e-02
6.926675e-02
8.297835e-02
9.622230e-02
1.089543e-01
1.211577e-01
1.328291e-01
1.439704e-01
1.545856e-01
1.646791e-01
1.742553e-01
1.833181e-01
1.918707e-01
1.999161e-01
2.074562e-01
2.144913e-01
2.210194e-01
2.270344e-01
2.325247e-01
2.374714e-01
2.418466e-01
2.456138e-01
2.487296e-01
2.511512e-01
2.528483e-01
2.538234e-01
2.541396e-01
2.539584e-01
2.535802e-01
0.000000e+00
1.685994e-02
3.465095e-02
5.292877e-02
7.116350e-02
8.895626e-02
1.061545e-01
1.227034e-01
1.385874e-01
1.538052e-01
1.683596e-01
1.822539e-01
1.954907e-01
2.080715e-01
2.199965e-01
2.312647e-01
2.418740e-01
2.518209e-01
2.611006e-01
2.697065e-01
2.776298e-01
2.848595e-01
2.913819e-01
2.971805e-01
3.022369e-01
3.065321e-01
3.100500e-01
3.127826e-01
3.147383e-01
3.159537e-01
3.165127e-01
3.165794e-01
3.164539e-01
0.000000e+00
2.125364e-02
4.375630e-02
6.666800e-02
8.893181e-02
1.103759e-01
1.309863e-01
1.507818e-01
1.697787e-01
1.879870e-01
2.054115e-01
2.220538e-01
2.379127e-01
2.529851e-01
2.672664e-01
2.807501e-01
2.934279e-01
3.052894e-01
3.163221e-01
3.265113e-01
3.358403e-01
3.442910e-01
3.518448e-01
3.584850e-01
3.641990e-01
3.689824e-01
3.728438e-01
3.758105e-01
3.779337e-01
3.792936e-01
3.800054e-01
3.802372e-01
3.802649e-01
0.000000e+00
2.679655e-02
5.575431e-02
8.306008e-02
1.090159e-01
1.338687e-01
1.577495e-01
1.807149e-01
2.027863e-01
2.239689e-01
2.442604e-01
2.636550e-01
2.821455e-01
2.997234e-01
3.163788e-01
3.320998e-01
3.468720e-01
3.606780e-01
3.734972e-01
3.853054e-01
3.960752e-01
4.057778e-01
4.143845e-01
4.218705e-01
4.282203e-01
4.334344e-01
4.375373e-01
4.405868e-01
4.426817e-01
4.439653e-01
4.446210e-01
4.448588e-01
4.449171e-01
0.000000e+00
3.996208e-02
7.251241e-02
1.026711e-01
1.316198e-01
1.595791e-01
1.866053e-01
2.126957e-01
2.378331e-01
2.619973e-01
2.851698e-01
3.073344e-01
3.284768e-01
3.485837e-01
3.676409e-01
3.856326e-01
4.025395e-01
4.183383e-01
4.329999e-01
4.464896e-01
4.587669e-01
4.697865e-01
4.795011e-01
4.878663e-01
4.948475e-01
5.004305e-01
5.046353e-01
5.075319e-01
5.092585e-01
5.100364e-01
5.101778e-01
5.100607e-01
5.099948e-01
0.000000e+00
-2.468804e-02
-4.308596e-02
-6.316251e-02
-8.551895e-02
-1.107728e-01
-1.390995e-01
-1.705484e-01
-2.050880e-01
-2.426444e-01
-2.831180e-01
-3.263944e-01
-3.723499e-01
-4.208561e-01
-4.717817e-01
-5.249947e-01
-5.803637e-01
-6.377596e-01
-6.970580e-01
-7.581412e-01
-8.209031e-01
-8.852541e-01
-9.511304e-01
-1.018507e+00
-1.087416e+00
-1.157987e+00
-1.230499e+00
-1.305501e+00
-1.384038e+00
-1.468184e+00
-1.562413e+00
-1.677278e+00
-1.835966e+00
0.000000e+00
-1.534268e-02
-3.460045e-02
-5.481243e-02
-7.748048e-02
-1.030087e-01
-1.316106e-01
-1.633347e-01
-1.981524e-01
-2.359895e-01
-2.767460e-01
-3.203065e-01
-3.665463e-01
-4.153359e-01
-4.665429e-01
-5.200337e-01
-5.756755e-01
-6.333373e-01
-6.928921e-01
-7.542195e-01
-8.172095e-01
-8.817680e-01
-9.478253e-01
-1.015349e+00
-1.084362e+00
-1.154983e+00
-1.227475e+00
-1.302370e+00
-1.380694e+00
-1.464483e+00
-1.557984e+00
-1.670291e+00
-1.818547e+00
0.000000e+00
-1.127008e-02
-2.789471e-02
-4.783098e-02
-7.053863e-02
-9.625494e-02
-1.250827e-01
-1.570485e-01
-1.921142e-01
-2.302019e-01
-2.712101e-01
-3.150223e-01
-3.615135e-01
-4.105534e-01
-4.620092e-01
-5.157470e-01
-5.716332e-01
-6.295360e-01
-6.893277e-01
-7.508868e-01
-8.141023e-01
-8.788795e-01
-9.451484e-01
-1.012877e+00
-1.082094e+00
-1.152919e+00
-1.225633e+00
-1.300778e+00
-1.379366e+00
-1.463234e+00
-1.555519e+00
-1.659925e+00
-1.775743e+00
0.000000e+00
-9.024601e-03
-2.362119e-02
-4.249436e-02
-6.491019e-02
-9.061851e-02
-1.195695e-01
-1.517145e-01
-1.869842e-01
-2.252868e-01
-2.665140e-01
-3.105467e-01
-3.572587e-01
-4.065195e-01
-4.581964e-01
-5.121559e-01
-5.682647e-01
-6.263917e-01
-6.864097e-01
-7.481983e-01
-8.116480e-01
-8.766663e-01
-9.431868e-01
-1.011183e+00
-1.080688e+00
-1.151831e+00
-1.224887e+00
-1.300357e+00
-1.379070e+00
-1.462235e+00
-1.551010e+00
-1.644639e+00
-1.731799e+00
0.000000e+00
-7.636297e-03
-2.082646e-02
-3.870473e-02
-6.060957e-02
-8.614933e-02
-1.151113e-01
-1.473607e-01
-1.827811e-01
-2.212566e-01
-2.626671e-01
-3.068877e-01
-3.537900e-01
-4.032433e-01
-4.551151e-01
-5.092731e-01
-5.655851e-01
-6.239217e-01
-6.841573e-01
-7.461735e-01
-8.098634e-01
-8.751372e-01
-9.419312e-01
-1.010221e+00
-1.080037e+00
-1.151493e+00
-1.224812e+00
-1.300356e+00
-1.378601e+00
-1.459930e+00
-1.543957e+00
-1.627595e+00
-1.703502e+00
0.000000e+00
-6.752906e-03
-1.899277e-02
-3.609687e-02
-5.750862e-02
-8.280915e-02
-1.117081e-01
-1.439988e-01
-1.795184e-01
-2.181236e-01
-2.596793e-01
-3.040532e-01
-3.511139e-01
-4.007300e-01
-4.527697e-01
-5.071020e-01
-5.635965e-01
-6.221256e-01
-6.825657e-01
-7.448005e-01
-8.087243e-01
-8.742481e-01
-9.413063e-01
-1.009866e+00
-1.079940e+00
-1.151596e+00
-1.224960e+00
-1.300190e+00
-1.377373e+00
-1.456249e+00
-1.535617e+00
-1.612640e+00
-1.683039e+00
0.000000e+00
-6.203889e-03
-1.783342e-02
-3.440170e-02
-5.543122e-02
-8.051372e-02
-1.093269e-01
-1.416216e-01
-1.771998e-01
-2.158947e-01
-2.575574e-01
-3.020485e-01
-3.492335e-01
-3.989804e-01
-4.511583e-01
-5.056375e-01
-5.622895e-01
-6.209883e-01
-6.816120e-01
-7.440447e-01
-8.081801e-01
-8.739255e-01
-9.412063e-01
-1.009972e+00
-1.080199e+00
-1.151888e+00
-1.225046e+00
-1.299630e+00
-1.375427e+00
-1.451818e+00
-1.527482e+00
-1.600238e+00
-1.667412e+00
0.000000e+00
-5.902196e-03
-1.719013e-02
-3.344644e-02
-5.424000e-02
-7.917665e-02
-1.079237e-01
-1.402113e-01
-1.758212e-01
-2.145717e-01
-2.563045e-01
-3.008754e-01
-3.481483e-01
-3.979908e-01
-4.502733e-01
-5.048674e-01
-5.616461e-01
-6.204846e-01
-6.812613e-01
-7.438592e-01
-8.081682e-01
-8.740872e-01
-9.415266e-01
-1.010409e+00
-1.080664e+00
-1.152221e+00
-1.224974e+00
-1.298724e+00
-1.373078e+00
-1.447305e+00
-1.520212e+00
-1.590159e+00
-1.655321e+00
0.000000e+00
-5.804991e-03
-1.698258e-02
-3.313683e-02
-5.385177e-02
-7.873905e-02
-1.074640e-01
-1.397512e-01
-1.753761e-01
-2.141524e-01
-2.559194e-01
-3.005319e-01
-3.478537e-01
-3.977536e-01
-4.501029e-01
-5.047748e-01
-5.616433e-01
-6.205839e-01
-6.814741e-01
-7.441938e-01
-8.086264e-01
-8.746589e-01
-9.421819e-01
-1.011086e+00
-1.081256e+00
-1.152550e+00
-1.224777e+00
-1.297637e+00
-1.370661e+00
-1.443130e+00
-1.514033e+00
-1.582120e+00
-1.646054e+00
0.000000e+00
-5.899384e-03
-1.718623e-02
-3.344308e-02
-5.423899e-02
-7.918022e-02
-1.079348e-01
-1.402338e-01
-1.758603e-01
-2.146342e-01
-2.563991e-01
-3.010131e-01
-3.483426e-01
-3.982582e-01
-4.506328e-01
-5.053405e-01
-5.622561e-01
-6.212546e-01
-6.822114e-01
-7.450018e-01
-8.095007e-01
-8.755814e-01
-9.431128e-01
-1.011954e+00
-1.081947e+00
-1.152896e+00
-1.224548e+00
-1.296554e+00
-1.368428e+00
-1.439516e+00
-1.508986e+00
-1.575871e+00
-1.639148e+00
0.000000e+00
-6.198493e-03
-1.782594e-02
-3.439522e-02
-5.542918e-02
-8.052042e-02
-1.093479e-01
-1.416645e-01
-1.772746e-01
-2.160143e-01
-2.577386e-01
-3.023123e-01
-3.496061e-01
-3.994930e-01
-4.518479e-01
-5.065456e-01
-5.634609e-01
-6.224678e-01
-6.834389e-01
-7.462442e-01
-8.107494e-01
-8.768136e-01
-9.442850e-01
-1.012995e+00
-1.082749e+00
-1.153312e+00
-1.224394e+00
-1.295625e+00
-1.366539e+00
-1.436565e+00
-1.505028e+00
-1.571183e+00
-1.634246e+00
0.000000e+00
-6.745407e-03
-1.898236e-02
-3.608782e-02
-5.750570e-02
-8.281832e-02
-1.117373e-01
-1.440584e-01
-1.796225e-01
-2.182903e-01
-2.599321e-01
-3.044217e-01
-3.516346e-01
-4.014469e-01
-4.537346e-01
-5.083734e-01
-5.652376e-01
-6.241999e-01
-6.851298e-01
-7.478918e-01
-8.123431e-01
-8.783297e-01
-9.456822e-01
-1.014209e+00
-1.083687e+00
-1.153856e+00
-1.224404e+00
-1.294959e+00
-1.365089e+00
-1.434305e+00
-1.502073e+00
-1.567839e+00
-1.631032e+00
0.000000e+00
-7.627463e-03
-2.081421e-02
-3.869407e-02
-6.060618e-02
-8.616043e-02
-1.151464e-01
-1.474326e-01
-1.829067e-01
-2.214581e-01
-2.629727e-01
-3.073332e-01
-3.544197e-01
-4.041105e-01
-4.562827e-01
-5.108120e-01
-5.675724e-01
-6.264349e-01
-6.872661e-01
-7.499260e-01
-8.142643e-01
-8.801169e-01
-9.473000e-01
-1.015605e+00
-1.084790e+00
-1.154577e+00
-1.224642e+00
-1.294623e+00
-1.364120e+00
-1.432718e+00
-1.500010e+00
-1.565619e+00
-1.629192e+00
0.000000e+00
-9.015522e-03
-2.360862e-02
-4.248352e-02
-6.490728e-02
-9.063154e-02
-1.196092e-01
-1.517948e-01
-1.871239e-01
-2.255103e-01
-2.668527e-01
-3.110401e-01
-3.579555e-01
-4.074786e-01
-4.594869e-01
-5.138559e-01
-5.704589e-01
-6.291655e-01
-6.898402e-01
-7.523391e-01
-8.165067e-01
-8.821715e-01
-9.491403e-01
-1.017193e+00
-1.086076e+00
-1.155501e+00
-1.225141e+00
-1.294641e+00
-1.363632e+00
-1.431757e+00
-1.498714e+00
-1.564293e+00
-1.628391e+00
0.000000e+00
-1.126217e-02
-2.788370e-02
-4.782183e-02
-7.053777e-02
-9.627081e-02
-1.251264e-01
-1.571350e-01
-1.922627e-01
-2.304378e-01
-2.715657e-01
-3.155384e-01
-3.622401e-01
-4.115510e-01
-4.633484e-01
-5.175073e-01
-5.739001e-01
-6.323956e-01
-6.928561e-01
-7.551356e-01
-8.190752e-01
-8.844990e-01
-9.512086e-01
-1.018978e+00
-1.087549e+00
-1.156628e+00
-1.225891e+00
-1.294991e+00
-1.363577e+00
-1.431335e+00
-1.498041e+00
-1.563627e+00
-1.628251e+00
0.000000e+00
-1.533759e-02
-3.459295e-02
-5.480705e-02
-7.748382e-02
-1.030293e-01
-1.316599e-01
-1.634275e-01
-1.983079e-01
-2.362329e-01
-2.771092e-01
-3.208294e-01
-3.672779e-01
-4.163345e-01
-4.678762e-01
-5.217774e-01
-5.779097e-01
-6.361406e-01
-6.963313e-01
-7.583340e-01
-8.219880e-01
-8.871156e-01
-9.535165e-01
-1.020964e+00
-1.089198e+00
-1.157930e+00
-1.226840e+00
-1.295589e+00
-1.363844e+00
-1.431316e+00
-1.497822e+00
-1.563386e+00
-1.628370e+00
0.000000e+00
-2.468732e-02
-4.308346e-02
-6.316299e-02
-8.552904e-02
-1.108012e-01
-1.391575e-01
-1.706505e-01
-2.052534e-01
-2.428974e-01
-2.834893e-01
-3.269220e-01
-3.730800e-01
-4.218430e-01
-4.730874e-01
-5.266870e-01
-5.825125e-01
-6.404298e-01
-7.002989e-01
-7.619704e-01
-8.252821e-01
-8.900551e-01
-9.560892e-01