TITLE = "Solution"
VARIABLES = x, y, u, v, psiu, psiv, t, stress
ZONE T="structure" N=561 E=512 F=FEBLOCK ET=QUADRILATERAL VARLOCATION=([7,8]=cellcentered)
0.000000e+00
6.250000e+00
1.250000e+01
1.875000e+01
2.500000e+01
3.125000e+01
3.750000e+01
4.375000e+01
5.000000e+01
5.625000e+01
6.250000e+01
6.875000e+01
7.500000e+01
8.125000e+01
8.750000e+01
9.375000e+01
1.000000e+02
1.062500e+02
1.125000e+02
1.187500e+02
1.250000e+02
1.312500e+02
1.375000e+02
1.437500e+02
1.500000e+02
1.562500e+02
1.625000e+02
1.687500e+02
1.750000e+02
1.812500e+02
1.875000e+02
1.937500e+02
2.000000e+02
0.000000e+00
6.250000e+00
1.250000e+01
1.875000e+01
2.500000e+01
3.125000e+01
3.750000e+01
4.375000e+01
5.000000e+01
5.625000e+01
6.250000e+01
6.875000e+01
7.500000e+01
8.125000e+01
8.750000e+01
9.375000e+01
1.000000e+02
1.062500e+02
1.125000e+02
1.187500e+02
1.250000e+02
1.312500e+02
1.375000e+02
1.437500e+02
1.500000e+02
1.562500e+02
1.625000e+02
1.687500e+02
1.750000e+02
1.812500e+02
1.875000e+02
1.937500e+02
2.000000e+02
0.000000e+00
6.250000e+00
1.250000e+01
1.875000e+01
2.500000e+01
3.125000e+01
3.750000e+01
4.375000e+01
5.000000e+01
5.625000e+01
6.250000e+01
6.875000e+01
7.500000e+01
8.125000e+01
8.750000e+01
9.375000e+01
1.000000e+02
1.062500e+02
1.125000e+02
1.187500e+02
1.250000e+02
1.312500e+02
1.375000e+02
1.437500e+02
1.500000e+02
1.562500e+02
1.625000e+02
1.687500e+02
1.750000e+02
1.812500e+02
1.875000e+02
1.937500e+02
2.000000e+02
0.000000e+00
6.250000e+00
1.250000e+01
1.875000e+01
2.500000e+01
3.125000e+01
3.750000e+01
4.375000e+01
5.000000e+01
5.625000e+01
6.250000e+01
6.875000e+01
7.500000e+01
8.125000e+01
8.750000e+01
9.375000e+01
1.000000e+02
1.062500e+02
1.125000e+02
1.187500e+02
1.250000e+02
1.312500e+02
1.375000e+02
1.437500e+02
1.500000e+02
1.562500e+02
1.625000e+02
1.687500e+02
1.750000e+02
1.812500e+02
1.875000e+02
1.937500e+02
2.000000e+02
0.000000e+00
6.250000e+00
1.250000e+01
1.875000e+01
2.500000e+01
3.125000e+01
3.750000e+01
4.375000e+01
5.000000e+01
5.625000e+01
6.250000e+01
6.875000e+01
7.500000e+01
8.125000e+01
8.750000e+01
9.375000e+01
1.000000e+02
1.062500e+02
1.125000e+02
1.187500e+02
1.250000e+02
1.312500e+02
1.375000e+02
1.437500e+02
1.500000e+02
1.562500e+02
1.625000e+02
1.687500e+02
1.750000e+02
1.812500e+02
1.875000e+02
1.937500e+02
2.000000e+02
0.000000e+00
6.250000e+00
1.250000e+01
1.875000e+01
2.500000e+01
3.125000e+01
3.750000e+01
4.375000e+01
5.000000e+01
5.625000e+01
6.250000e+01
6.875000e+01
7.500000e+01
8.125000e+01
8.750000e+01
9.375000e+01
1.000000e+02
1.062500e+02
1.125000e+02
1.187500e+02
1.250000e+02
1.312500e+02
1.375000e+02
1.437500e+02
1.500000e+02
1.562500e+02
1.625000e+02
1.687500e+02
1.750000e+02
1.812500e+02
1.875000e+02
1.937500e+02
2.000000e+02
0.000000e+00
6.250000e+00
1.250000e+01
1.875000e+01
2.500000e+01
3.125000e+01
3.750000e+01
4.375000e+01
5.000000e+01
5.625000e+01
6.250000e+01
6.875000e+01
7.500000e+01
8.125000e+01
8.750000e+01
9.375000e+01
1.000000e+02
1.062500e+02
1.125000e+02
1.187500e+02
1.250000e+02
1.312500e+02
1.375000e+02
1.437500e+02
1.500000e+02
1.562500e+02
1.625000e+02
1.687500e+02
1.750000e+02
1.812500e+02
1.875000e+02
1.937500e+02
2.000000e+02
0.000000e+00
6.250000e+00
1.250000e+01
1.875000e+01
2.500000e+01
3.125000e+01
3.750000e+01
4.375000e+01
5.000000e+01
5.625000e+01
6.250000e+01
6.875000e+01
7.500000e+01
8.125000e+01
8.750000e+01
9.375000e+01
1.000000e+02
1.062500e+02
1.125000e+02
1.187500e+02
1.250000e+02
1.312500e+02
1.375000e+02
1.437500e+02
1.500000e+02
1.562500e+02
1.625000e+02
1.687500e+02
1.750000e+02
1.812500e+02
1.875000e+02
1.937500e+02
2.000000e+02
0.000000e+00
6.250000e+00
1.250000e+01
1.875000e+01
2.500000e+01
3.125000e+01
3.750000e+01
4.375000e+01
5.000000e+01
5.625000e+01
6.250000e+01
6.875000e+01
7.500000e+01
8.125000e+01
8.750000e+01
9.375000e+01
1.000000e+02
1.062500e+02
1.125000e+02
1.187500e+02
1.250000e+02
1.312500e+02
1.375000e+02
1.437500e+02
1.500000e+02
1.562500e+02
1.625000e+02
1.687500e+02
1.750000e+02
1.812500e+02
1.875000e+02
1.937500e+02
2.000000e+02
0.000000e+00
6.250000e+00
1.250000e+01
1.875000e+01
2.500000e+01
3.125000e+01
3.750000e+01
4.375000e+01
5.000000e+01
5.625000e+01
6.250000e+01
6.875000e+01
7.500000e+01
8.125000e+01
8.750000e+01
9.375000e+01
1.000000e+02
1.062500e+02
1.125000e+02
1.187500e+02
1.250000e+02
1.312500e+02
1.375000e+02
1.437500e+02
1.500000e+02
1.562500e+02
1.625000e+02
1.687500e+02
1.750000e+02
1.812500e+02
1.875000e+02
1.937500e+02
2.000000e+02
0.000000e+00
6.250000e+00
1.250000e+01
1.875000e+01
2.500000e+01
3.125000e+01
3.750000e+01
4.375000e+01
5.000000e+01
5.625000e+01
6.250000e+01
6.875000e+01
7.500000e+01
8.125000e+01
8.750000e+01
9.375000e+01
1.000000e+02
1.062500e+02
1.125000e+02
1.187500e+02
1.250000e+02
1.312500e+02
1.375000e+02
1.437500e+02
1.500000e+02
1.562500e+02
1.625000e+02
1.687500e+02
1.750000e+02
1.812500e+02
1.875000e+02
1.937500e+02
2.000000e+02
0.000000e+00
6.250000e+00
1.250000e+01
1.875000e+01
2.500000e+01
3.125000e+01
3.750000e+01
4.375000e+01
5.000000e+01
5.625000e+01
6.250000e+01
6.875000e+01
7.500000e+01
8.125000e+01
8.750000e+01
9.375000e+01
1.000000e+02
1.062500e+02
1.125000e+02
1.187500e+02
1.250000e+02
1.312500e+02
1.375000e+02
1.437500e+02
1.500000e+02
1.562500e+02
1.625000e+02
1.687500e+02
1.750000e+02
1.812500e+02
1.875000e+02
1.937500e+02
2.000000e+02
0.000000e+00
6.250000e+00
1.250000e+01
1.875000e+01
2.500000e+01
3.125000e+01
3.750000e+01
4.375000e+01
5.000000e+01
5.625000e+01
6.250000e+01
6.875000e+01
7.500000e+01
8.125000e+01
8.750000e+01
9.375000e+01
1.000000e+02
1.062500e+02
1.125000e+02
1.187500e+02
1.250000e+02
1.312500e+02
1.375000e+02
1.437500e+02
1.500000e+02
1.562500e+02
1.625000e+02
1.687500e+02
1.750000e+02
1.812500e+02
1.875000e+02
1.937500e+02
2.000000e+02
0.000000e+00
6.250000e+00
1.250000e+01
1.875000e+01
2.500000e+01
3.125000e+01
3.750000e+01
4.375000e+01
5.000000e+01
5.625000e+01
6.250000e+01
6.875000e+01
7.500000e+01
8.125000e+01
8.750000e+01
9.375000e+01
1.000000e+02
1.062500e+02
1.125000e+02
1.187500e+02
1.250000e+02
1.312500e+02
1.375000e+02
1.437500e+02
1.500000e+02
1.562500e+02
1.625000e+02
1.687500e+02
1.750000e+02
1.812500e+02
1.875000e+02
1.937500e+02
2.000000e+02
0.000000e+00
6.250000e+00
1.250000e+01
1.875000e+01
2.500000e+01
3.125000e+01
3.750000e+01
4.375000e+01
5.000000e+01
5.625000e+01
6.250000e+01
6.875000e+01
7.500000e+01
8.125000e+01
8.750000e+01
9.375000e+01
1.000000e+02
1.062500e+02
1.125000e+02
1.187500e+02
1.250000e+02
1.312500e+02
1.375000e+02
1.437500e+02
1.500000e+02
1.562500e+02
1.625000e+02
1.687500e+02
1.750000e+02
1.812500e+02
1.875000e+02
1.937500e+02
2.000000e+02
0.000000e+00
6.250000e+00
1.250000e+01
1.875000e+01
2.500000e+01
3.125000e+01
3.750000e+01
4.375000e+01
5.000000e+01
5.625000e+01
6.250000e+01
6.875000e+01
7.500000e+01
8.125000e+01
8.750000e+01
9.375000e+01
1.000000e+02
1.062500e+02
1.125000e+02
1.187500e+02
1.250000e+02
1.312500e+02
1.375000e+02
1.437500e+02
1.500000e+02
1.562500e+02
1.625000e+02
1.687500e+02
1.750000e+02
1.812500e+02
1.875000e+02
1.937500e+02
2.000000e+02
0.000000e+00
6.250000e+00
1.250000e+01
1.875000e+01
2.500000e+01
3.125000e+01
3.750000e+01
4.375000e+01
5.000000e+01
5.625000e+01
6.250000e+01
6.875000e+01
7.500000e+01
8.125000e+01
8.750000e+01
9.375000e+01
1.000000e+02
1.062500e+02
1.125000e+02
1.187500e+02
1.250000e+02
1.312500e+02
1.375000e+02
1.437500e+02
1.500000e+02
1.562500e+02
1.625000e+02
1.687500e+02
1.750000e+02
1.812500e+02
1.875000e+02
1.937500e+02
2.000000e+02
0.000000e+00
0.000000e+00
0.000000e+00
0.000000e+00
0.000000e+00
0.000000e+00
0.000000e+00
0.000000e+00
0.000000e+00
0.000000e+00
0.000000e+00
0.000000e+00
0.000000e+00
0.000000e+00
0.000000e+00
0.000000e+00
0.000000e+00
0.000000e+00
0.000000e+00
0.000000e+00
0.000000e+00
0.000000e+00
0.000000e+00
0.000000e+00
0.000000e+00
0.000000e+00
0.000000e+00
0.000000e+00
0.000000e+00
0.000000e+00
0.000000e+00
0.000000e+00
0.000000e+00
6.250000e+00
6.250000e+00
6.250000e+00
6.250000e+00
6.250000e+00
6.250000e+00
6.250000e+00
6.250000e+00
6.250000e+00
6.250000e+00
6.250000e+00
6.250000e+00
6.250000e+00
6.250000e+00
6.250000e+00
6.250000e+00
6.250000e+00
6.250000e+00
6.250000e+00
6.250000e+00
6.250000e+00
6.250000e+00
6.250000e+00
6.250000e+00
6.250000e+00
6.250000e+00
6.250000e+00
6.250000e+00
6.250000e+00
6.250000e+00
6.250000e+00
6.250000e+00
6.250000e+00
1.250000e+01
1.250000e+01
1.250000e+01
1.250000e+01
1.250000e+01
1.250000e+01
1.250000e+01
1.250000e+01
1.250000e+01
1.250000e+01
1.250000e+01
1.250000e+01
1.250000e+01
1.250000e+01
1.250000e+01
1.250000e+01
1.250000e+01
1.250000e+01
1.250000e+01
1.250000e+01
1.250000e+01
1.250000e+01
1.250000e+01
1.250000e+01
1.250000e+01
1.250000e+01
1.250000e+01
1.250000e+01
1.250000e+01
1.250000e+01
1.250000e+01
1.250000e+01
1.250000e+01
1.875000e+01
1.875000e+01
1.875000e+01
1.875000e+01
1.875000e+01
1.875000e+01
1.875000e+01
1.875000e+01
1.875000e+01
1.875000e+01
1.875000e+01
1.875000e+01
1.875000e+01
1.875000e+01
1.875000e+01
1.875000e+01
1.875000e+01
1.875000e+01
1.875000e+01
1.875000e+01
1.875000e+01
1.875000e+01
1.875000e+01
1.875000e+01
1.875000e+01
1.875000e+01
1.875000e+01
1.875000e+01
1.875000e+01
1.875000e+01
1.875000e+01
1.875000e+01
1.875000e+01
2.500000e+01
2.500000e+01
2.500000e+01
2.500000e+01
2.500000e+01
2.500000e+01
2.500000e+01
2.500000e+01
2.500000e+01
2.500000e+01
2.500000e+01
2.500000e+01
2.500000e+01
2.500000e+01
2.500000e+01
2.500000e+01
2.500000e+01
2.500000e+01
2.500000e+01
2.500000e+01
2.500000e+01
2.500000e+01
2.500000e+01
2.500000e+01
2.500000e+01
2.500000e+01
2.500000e+01
2.500000e+01
2.500000e+01
2.500000e+01
2.500000e+01
2.500000e+01
2.500000e+01
3.125000e+01
3.125000e+01
3.125000e+01
3.125000e+01
3.125000e+01
3.125000e+01
3.125000e+01
3.125000e+01
3.125000e+01
3.125000e+01
3.125000e+01
3.125000e+01
3.125000e+01
3.125000e+01
3.125000e+01
3.125000e+01
3.125000e+01
3.125000e+01
3.125000e+01
3.125000e+01
3.125000e+01
3.125000e+01
3.125000e+01
3.125000e+01
3.125000e+01
3.125000e+01
3.125000e+01
3.125000e+01
3.125000e+01
3.125000e+01
3.125000e+01
3.125000e+01
3.125000e+01
3.750000e+01
3.750000e+01
3.750000e+01
3.750000e+01
3.750000e+01
3.750000e+01
3.750000e+01
3.750000e+01
3.750000e+01
3.750000e+01
3.750000e+01
3.750000e+01
3.750000e+01
3.750000e+01
3.750000e+01
3.750000e+01
3.750000e+01
3.750000e+01
3.750000e+01
3.750000e+01
3.750000e+01
3.750000e+01
3.750000e+01
3.750000e+01
3.750000e+01
3.750000e+01
3.750000e+01
3.750000e+01
3.750000e+01
3.750000e+01
3.750000e+01
3.750000e+01
3.750000e+01
4.375000e+01
4.375000e+01
4.375000e+01
4.375000e+01
4.375000e+01
4.375000e+01
4.375000e+01
4.375000e+01
4.375000e+01
4.375000e+01
4.375000e+01
4.375000e+01
4.375000e+01
4.375000e+01
4.375000e+01
4.375000e+01
4.375000e+01
4.375000e+01
4.375000e+01
4.375000e+01
4.375000e+01
4.375000e+01
4.375000e+01
4.375000e+01
4.375000e+01
4.375000e+01
4.375000e+01
4.375000e+01
4.375000e+01
4.375000e+01
4.375000e+01
4.375000e+01
4.375000e+01
5.000000e+01
5.000000e+01
5.000000e+01
5.000000e+01
5.000000e+01
5.000000e+01
5.000000e+01
5.000000e+01
5.000000e+01
5.000000e+01
5.000000e+01
5.000000e+01
5.000000e+01
5.000000e+01
5.000000e+01
5.000000e+01
5.000000e+01
5.000000e+01
5.000000e+01
5.000000e+01
5.000000e+01
5.000000e+01
5.000000e+01
5.000000e+01
5.000000e+01
5.000000e+01
5.000000e+01
5.000000e+01
5.000000e+01
5.000000e+01
5.000000e+01
5.000000e+01
5.000000e+01
5.625000e+01
5.625000e+01
5.625000e+01
5.625000e+01
5.625000e+01
5.625000e+01
5.625000e+01
5.625000e+01
5.625000e+01
5.625000e+01
5.625000e+01
5.625000e+01
5.625000e+01
5.625000e+01
5.625000e+01
5.625000e+01
5.625000e+01
5.625000e+01
5.625000e+01
5.625000e+01
5.625000e+01
5.625000e+01
5.625000e+01
5.625000e+01
5.625000e+01
5.625000e+01
5.625000e+01
5.625000e+01
5.625000e+01
5.625000e+01
5.625000e+01
5.625000e+01
5.625000e+01
6.250000e+01
6.250000e+01
6.250000e+01
6.250000e+01
6.250000e+01
6.250000e+01
6.250000e+01
6.250000e+01
6.250000e+01
6.250000e+01
6.250000e+01
6.250000e+01
6.250000e+01
6.250000e+01
6.250000e+01
6.250000e+01
6.250000e+01
6.250000e+01
6.250000e+01
6.250000e+01
6.250000e+01
6.250000e+01
6.250000e+01
6.250000e+01
6.250000e+01
6.250000e+01
6.250000e+01
6.250000e+01
6.250000e+01
6.250000e+01
6.250000e+01
6.250000e+01
6.250000e+01
6.875000e+01
6.875000e+01
6.875000e+01
6.875000e+01
6.875000e+01
6.875000e+01
6.875000e+01
6.875000e+01
6.875000e+01
6.875000e+01
6.875000e+01
6.875000e+01
6.875000e+01
6.875000e+01
6.875000e+01
6.875000e+01
6.875000e+01
6.875000e+01
6.875000e+01
6.875000e+01
6.875000e+01
6.875000e+01
6.875000e+01
6.875000e+01
6.875000e+01
6.875000e+01
6.875000e+01
6.875000e+01
6.875000e+01
6.875000e+01
6.875000e+01
6.875000e+01
6.875000e+01
7.500000e+01
7.500000e+01
7.500000e+01
7.500000e+01
7.500000e+01
7.500000e+01
7.500000e+01
7.500000e+01
7.500000e+01
7.500000e+01
7.500000e+01
7.500000e+01
7.500000e+01
7.500000e+01
7.500000e+01
7.500000e+01
7.500000e+01
7.500000e+01
7.500000e+01
7.500000e+01
7.500000e+01
7.500000e+01
7.500000e+01
7.500000e+01
7.500000e+01
7.500000e+01
7.500000e+01
7.500000e+01
7.500000e+01
7.500000e+01
7.500000e+01
7.500000e+01
7.500000e+01
8.125000e+01
8.125000e+01
8.125000e+01
8.125000e+01
8.125000e+01
8.125000e+01
8.125000e+01
8.125000e+01
8.125000e+01
8.125000e+01
8.125000e+01
8.125000e+01
8.125000e+01
8.125000e+01
8.125000e+01
8.125000e+01
8.125000e+01
8.125000e+01
8.125000e+01
8.125000e+01
8.125000e+01
8.125000e+01
8.125000e+01
8.125000e+01
8.125000e+01
8.125000e+01
8.125000e+01
8.125000e+01
8.125000e+01
8.125000e+01
8.125000e+01
8.125000e+01
8.125000e+01
8.750000e+01
8.750000e+01
8.750000e+01
8.750000e+01
8.750000e+01
8.750000e+01
8.750000e+01
8.750000e+01
8.750000e+01
8.750000e+01
8.750000e+01
8.750000e+01
8.750000e+01
8.750000e+01
8.750000e+01
8.750000e+01
8.750000e+01
8.750000e+01
8.750000e+01
8.750000e+01
8.750000e+01
8.750000e+01
8.750000e+01
8.750000e+01
8.750000e+01
8.750000e+01
8.750000e+01
8.750000e+01
8.750000e+01
8.750000e+01
8.750000e+01
8.750000e+01
8.750000e+01
9.375000e+01
9.375000e+01
9.375000e+01
9.375000e+01
9.375000e+01
9.375000e+01
9.375000e+01
9.375000e+01
9.375000e+01
9.375000e+01
9.375000e+01
9.375000e+01
9.375000e+01
9.375000e+01
9.375000e+01
9.375000e+01
9.375000e+01
9.375000e+01
9.375000e+01
9.375000e+01
9.375000e+01
9.375000e+01
9.375000e+01
9.375000e+01
9.375000e+01
9.375000e+01
9.375000e+01
9.375000e+01
9.375000e+01
9.375000e+01
9.375000e+01
9.375000e+01
9.375000e+01
1.000000e+02
1.000000e+02
1.000000e+02
1.000000e+02
1.000000e+02
1.000000e+02
1.000000e+02
1.000000e+02
1.000000e+02
1.000000e+02
1.000000e+02
1.000000e+02
1.000000e+02
1.000000e+02
1.000000e+02
1.000000e+02
1.000000e+02
1.000000e+02
1.000000e+02
1.000000e+02
1.000000e+02
1.000000e+02
1.000000e+02
1.000000e+02
1.000000e+02
1.000000e+02
1.000000e+02
1.000000e+02
1.000000e+02
1.000000e+02
1.000000e+02
1.000000e+02
1.000000e+02
0.000000e+00
-4.145784e-01
-7.246686e-01
-1.041078e+00
-1.351813e+00
-1.648987e+00
-1.955122e+00
-2.255493e+00
-2.552985e+00
-2.853814e+00
-3.152239e+00
-3.450142e+00
-3.748876e+00
-4.046606e+00
-4.344206e+00
-4.641914e+00
-4.939230e+00
-5.236505e+00
-5.533801e+00
-5.831065e+00
-6.128570e+00
-6.426492e+00
-6.725147e+00
-7.025574e+00
-7.328909e+00
-7.635674e+00
-7.947393e+00
-8.268609e+00
-8.606552e+00
-8.971752e+00
-9.373958e+00
-9.762117e+00
-9.968126e+00
0.000000e+00
-2.373749e-01
-4.873920e-01
-7.496574e-01
-1.016780e+00
-1.271527e+00
-1.536872e+00
-1.798764e+00
-2.058306e+00
-2.321247e+00
-2.582199e+00
-2.842747e+00
-3.104070e+00
-3.364510e+00
-3.624765e+00
-3.885017e+00
-4.144794e+00
-4.404329e+00
-4.663631e+00
-4.922584e+00
-5.181308e+00
-5.439769e+00
-5.697881e+00
-5.955937e+00
-6.213943e+00
-6.470838e+00
-6.725706e+00
-6.979184e+00
-7.231607e+00
-7.474295e+00
-7.665648e+00
-7.748858e+00
-7.850257e+00
0.000000e+00
-1.498856e-01
-3.181402e-01
-5.199496e-01
-7.332138e-01
-9.424260e-01
-1.164415e+00
-1.385920e+00
-1.607275e+00
-1.832084e+00
-2.055971e+00
-2.280085e+00
-2.505069e+00
-2.729580e+00
-2.954056e+00
-3.178511e+00
-3.402496e+00
-3.626055e+00
-3.849035e+00
-4.071152e+00
-4.292203e+00
-4.511744e+00
-4.729077e+00
-4.943376e+00
-5.153204e+00
-5.356056e+00
-5.548881e+00
-5.728083e+00
-5.886873e+00
-6.008605e+00
-6.058916e+00
-6.058825e+00
-6.149338e+00
0.000000e+00
-1.071361e-01
-2.201142e-01
-3.655240e-01
-5.192428e-01
-6.842017e-01
-8.617480e-01
-1.041864e+00
-1.225005e+00
-1.411686e+00
-1.598825e+00
-1.787004e+00
-1.976144e+00
-2.165217e+00
-2.354371e+00
-2.543360e+00
-2.731724e+00
-2.919265e+00
-3.105583e+00
-3.290141e+00
-3.472308e+00
-3.651144e+00
-3.825319e+00
-3.993074e+00
-4.151997e+00
-4.298812e+00
-4.429350e+00
-4.538152e+00
-4.617189e+00
-4.655240e+00
-4.651393e+00
-4.658388e+00
-4.738024e+00
0.000000e+00
-9.190365e-02
-1.835279e-01
-2.878454e-01
-4.024707e-01
-5.286857e-01
-6.634274e-01
-8.027639e-01
-9.468784e-01
-1.093526e+00
-1.241683e+00
-1.391222e+00
-1.541264e+00
-1.691497e+00
-1.841657e+00
-1.991293e+00
-2.140061e+00
-2.287518e+00
-2.433081e+00
-2.576026e+00
-2.715391e+00
-2.849894e+00
-2.977842e+00
-3.097074e+00
-3.204906e+00
-3.298042e+00
-3.372513e+00
-3.423878e+00
-3.448184e+00
-3.445248e+00
-3.431632e+00
-3.457325e+00
-3.535606e+00
0.000000e+00
-7.214472e-02
-1.442990e-01
-2.202687e-01
-3.042507e-01
-3.950849e-01
-4.920481e-01
-5.941074e-01
-6.994843e-01
-8.073633e-01
-9.168850e-01
-1.027305e+00
-1.138211e+00
-1.249164e+00
-1.359771e+00
-1.469660e+00
-1.578384e+00
-1.685409e+00
-1.790059e+00
-1.891457e+00
-1.988470e+00
-2.079657e+00
-2.163228e+00
-2.237036e+00
-2.298634e+00
-2.345331e+00
-2.374406e+00
-2.383940e+00
-2.374831e+00
-2.354290e+00
-2.347126e+00
-2.380395e+00
-2.456135e+00
0.000000e+00
-4.923301e-02
-9.842582e-02
-1.495938e-01
-2.044050e-01
-2.635259e-01
-3.265745e-01
-3.928996e-01
-4.617080e-01
-5.321998e-01
-6.037704e-01
-6.758951e-01
-7.481394e-01
-8.201441e-01
-8.915499e-01
-9.619788e-01
-1.030994e+00
-1.098051e+00
-1.162454e+00
-1.223310e+00
-1.279482e+00
-1.329569e+00
-1.371910e+00
-1.404646e+00
-1.425864e+00
-1.433832e+00
-1.427462e+00
-1.407361e+00
-1.377671e+00
-1.349508e+00
-1.344912e+00
-1.381651e+00
-1.455556e+00
0.000000e+00
-2.502620e-02
-5.006992e-02
-7.582133e-02
-1.030528e-01
-1.321152e-01
-1.629709e-01
-1.953124e-01
-2.287287e-01
-2.628080e-01
-2.971694e-01
-3.314827e-01
-3.654532e-01
-3.988022e-01
-4.312457e-01
-4.624660e-01
-4.920834e-01
-5.196226e-01
-5.444739e-01
-5.658561e-01
-5.827862e-01
-5.940728e-01
-5.983550e-01
-5.942169e-01
-5.804168e-01
-5.562705e-01
-5.223034e-01
-4.813338e-01
-4.398255e-01
-4.093833e-01
-4.076670e-01
-4.456165e-01
-5.174115e-01
0.000000e+00
-3.980460e-04
-6.873086e-04
-8.430444e-04
-8.274722e-04
-5.911129e-04
-7.436278e-05
7.919020e-04
2.086692e-03
3.900089e-03
6.334822e-03
9.508373e-03
1.355594e-02
1.863466e-02
2.493001e-02
3.266528e-02
4.211498e-02
5.362339e-02
6.762829e-02
8.468706e-02
1.054975e-01
1.308969e-01
1.618077e-01
1.990757e-01
2.431580e-01
2.936298e-01
3.484559e-01
4.030777e-01
4.498870e-01
4.782004e-01
4.762518e-01
4.388060e-01
3.731511e-01
0.000000e+00
2.423139e-02
4.868969e-02
7.411496e-02
1.013560e-01
1.308618e-01
1.627122e-01
1.967349e-01
2.326741e-01
2.702957e-01
3.094215e-01
3.499533e-01
3.918628e-01
4.351789e-01
4.799777e-01
5.263708e-01
5.745014e-01
6.245431e-01
6.767037e-01
7.312324e-01
7.884280e-01
8.486417e-01
9.122239e-01
9.793215e-01
1.049488e+00
1.121169e+00
1.191120e+00
1.253957e+00
1.302329e+00
1.327972e+00
1.324362e+00
1.291111e+00
1.237280e+00
0.000000e+00
4.843837e-02
9.702026e-02
1.478140e-01
2.025667e-01
2.620404e-01
3.259631e-01
3.938116e-01
4.649385e-01
5.387138e-01
6.147294e-01
6.926837e-01
7.723974e-01
8.537994e-01
9.368575e-01
1.021570e+00
1.107942e+00
1.195957e+00
1.285562e+00
1.376645e+00
1.469015e+00
1.562435e+00
1.656600e+00
1.750905e+00
1.843998e+00
1.933356e+00
2.015063e+00
2.083885e+00
2.133890e+00
2.159720e+00
2.158657e+00
2.133433e+00
2.094041e+00
0.000000e+00
7.133920e-02
1.428214e-01
2.183233e-01
3.021262e-01
3.931454e-01
4.907641e-01
5.940585e-01
7.013788e-01
8.120720e-01
9.254630e-01
1.041019e+00
1.158567e+00
1.277929e+00
1.398987e+00
1.521662e+00
1.645817e+00
1.771246e+00
1.897637e+00
2.024507e+00
2.151148e+00
2.276722e+00
2.400305e+00
2.520563e+00
2.635294e+00
2.741258e+00
2.834389e+00
2.910231e+00
2.964572e+00
2.994417e+00
2.999466e+00
2.984049e+00
2.958590e+00
0.000000e+00
9.104540e-02
1.819019e-01
2.856048e-01
3.998591e-01
5.260147e-01
6.610547e-01
8.011512e-01
9.465952e-01
1.095274e+00
1.246345e+00
1.399873e+00
1.555201e+00
1.712249e+00
1.870979e+00
2.031149e+00
2.192571e+00
2.354897e+00
2.517594e+00
2.679865e+00
2.840596e+00
2.998534e+00
3.152166e+00
3.299259e+00
3.436573e+00
3.560213e+00
3.666285e+00
3.751358e+00
3.812817e+00
3.849416e+00
3.862309e+00
3.856597e+00
3.843009e+00
0.000000e+00
1.061902e-01
2.183504e-01
3.630236e-01
5.161850e-01
6.807819e-01
8.581755e-01
1.038392e+00
1.221975e+00
1.409545e+00
1.598144e+00
1.788531e+00
1.980825e+00
2.174188e+00
2.368965e+00
2.565085e+00
2.762136e+00
2.959873e+00
3.157722e+00
3.354653e+00
3.549498e+00
3.741030e+00
3.927054e+00
4.103612e+00
4.265684e+00
4.408575e+00
4.528776e+00
4.624091e+00
4.693529e+00
4.737416e+00
4.757992e+00
4.760659e+00
4.756066e+00
0.000000e+00
1.492095e-01
3.168827e-01
5.181714e-01
7.309699e-01
9.397892e-01
1.161439e+00
1.382661e+00
1.603826e+00
1.828577e+00
2.052578e+00
2.277054e+00
2.502760e+00
2.728429e+00
2.954597e+00
3.181402e+00
3.408372e+00
3.635492e+00
3.862459e+00
4.088342e+00
4.312451e+00
4.534397e+00
4.751674e+00
4.957858e+00
5.144906e+00
5.306632e+00
5.439792e+00
5.543504e+00
5.618553e+00
5.667086e+00
5.692701e+00
5.701085e+00
5.702006e+00
0.000000e+00
2.372165e-01
4.871517e-01
7.493288e-01
1.016325e+00
1.270947e+00
1.536151e+00
1.797834e+00
2.057120e+00
2.319748e+00
2.580275e+00
2.840268e+00
3.100900e+00
3.360424e+00
3.619473e+00
3.878206e+00
4.135962e+00
4.392841e+00
4.648767e+00
4.903000e+00
5.155374e+00
5.406398e+00
5.653415e+00
5.887501e+00
6.097321e+00
6.274903e+00
6.416986e+00
6.523757e+00
6.597773e+00
6.643512e+00
6.667073e+00
6.675681e+00
6.677771e+00
0.000000e+00
4.151459e-01
7.257158e-01
1.042563e+00
1.353645e+00
1.651139e+00
1.957587e+00
2.258167e+00
2.555809e+00
2.856687e+00
3.154949e+00
3.452426e+00
3.750379e+00
4.046777e+00
4.342334e+00
4.637143e+00
4.930398e+00
5.222262e+00
5.512756e+00
5.801346e+00
6.088155e+00
6.373427e+00
6.652829e+00
6.914485e+00
7.144551e+00
7.333884e+00
7.478929e+00
7.580194e+00
7.641393e+00
7.669517e+00
7.675037e+00
7.671110e+00
7.668808e+00
0.000000e+00
-2.505071e-01
-4.961180e-01
-8.023954e-01
-1.145839e+00
-1.528837e+00
-1.953805e+00
-2.414153e+00
-2.912802e+00
-3.449389e+00
-4.022662e+00
-4.633978e+00
-5.283071e+00
-5.969771e+00
-6.694596e+00
-7.457531e+00
-8.258679e+00
-9.098332e+00
-9.976640e+00
-1.089383e+01
-1.185021e+01
-1.284606e+01
-1.388195e+01
-1.495882e+01
-1.607807e+01
-1.724205e+01
-1.845531e+01
-1.972540e+01
-2.106247e+01
-2.247982e+01
-2.401161e+01
-2.581357e+01
-2.832476e+01
0.000000e+00
-1.566240e-01
-4.155457e-01
-7.163163e-01
-1.062519e+00
-1.445230e+00
-1.869227e+00
-2.330740e+00
-2.829006e+00
-3.365381e+00
-3.939062e+00
-4.550242e+00
-5.199358e+00
-5.886226e+00
-6.611049e+00
-7.374058e+00
-8.175310e+00
-9.015018e+00
-9.893406e+00
-1.081067e+01
-1.176709e+01
-1.276299e+01
-1.379883e+01
-1.487549e+01
-1.599453e+01
-1.715834e+01
-1.837106e+01
-1.963977e+01
-2.097575e+01
-2.239641e+01
-2.394356e+01
-2.572106e+01
-2.797298e+01
0.000000e+00
-1.242243e-01
-3.564486e-01
-6.532496e-01
-9.960123e-01
-1.376626e+00
-1.799153e+00
-2.260044e+00
-2.757588e+00
-3.293626e+00
-3.867160e+00
-4.478149e+00
-5.127240e+00
-5.814137e+00
-6.539018e+00
-7.302165e+00
-8.103607e+00
-8.943563e+00
-9.822274e+00
-1.073994e+01
-1.169688e+01
-1.269347e+01
-1.373020e+01
-1.480802e+01
-1.592867e+01
-1.709466e+01
-1.831010e+01
-1.958262e+01
-2.092643e+01
-2.236791e+01
-2.393590e+01
-2.561003e+01
-2.736870e+01
0.000000e+00
-1.290733e-01
-3.361569e-01
-6.202438e-01
-9.524374e-01
-1.327314e+00
-1.746263e+00
-2.204146e+00
-2.700043e+00
-3.234990e+00
-3.807679e+00
-4.418246e+00
-5.067100e+00
-5.753931e+00
-6.478942e+00
-7.242358e+00
-8.044233e+00
-8.884806e+00
-9.764330e+00
-1.068306e+01
-1.164137e+01
-1.263973e+01
-1.367874e+01
-1.475948e+01
-1.588372e+01
-1.705406e+01
-1.827476e+01
-1.955400e+01
-2.090734e+01
-2.236055e+01
-2.391154e+01
-2.545391e+01
-2.687042e+01
0.000000e+00
-1.453379e-01
-3.458262e-01
-6.144726e-01
-9.339863e-01
-1.300204e+00
-1.712286e+00
-2.165012e+00
-2.657976e+00
-3.190619e+00
-3.761824e+00
-4.371661e+00
-5.020043e+00
-5.706813e+00
-6.432095e+00
-7.196006e+00
-7.998683e+00
-8.840360e+00
-9.721320e+00
-1.064189e+01
-1.160252e+01
-1.260373e+01
-1.364623e+01
-1.473109e+01
-1.585997e+01
-1.703532e+01
-1.826109e+01
-1.954436e+01
-2.089798e+01
-2.233694e+01
-2.383262e+01
-2.524988e+01
-2.649988e+01
0.000000e+00
-1.527229e-01
-3.559602e-01
-6.148957e-01
-9.260543e-01
-1.285148e+00
-1.690353e+00
-2.138632e+00
-2.628317e+00
-3.158603e+00
-3.728466e+00
-4.337527e+00
-4.985597e+00
-5.672485e+00
-6.398226e+00
-7.162924e+00
-7.966740e+00
-8.809938e+00
-9.692849e+00
-1.061587e+01
-1.157949e+01
-1.258426e+01
-1.363087e+01
-1.472020e+01
-1.585356e+01
-1.703282e+01
-1.826072e+01
-1.954126e+01
-2.088094e+01
-2.228386e+01
-2.370006e+01
-2.502159e+01
-2.616994e+01
0.000000e+00
-1.561471e-01
-3.608813e-01
-6.164498e-01
-9.223747e-01
-1.276679e+00
-1.677201e+00
-2.121919e+00
-2.609141e+00
-3.137627e+00
-3.706477e+00
-4.315080e+00
-4.963085e+00
-5.650308e+00
-6.376717e+00
-7.142407e+00
-7.947576e+00
-8.792525e+00
-9.677637e+00
-1.060337e+01
-1.157022e+01
-1.257871e+01
-1.362934e+01
-1.472266e+01
-1.585930e+01
-1.704007e+01
-1.826573e+01
-1.953618e+01
-2.085089e+01
-2.220389e+01
-2.354483e+01
-2.478925e+01
-2.586528e+01
0.000000e+00
-1.577242e-01
-3.631363e-01
-6.175597e-01
-9.210861e-01
-1.272661e+00
-1.670665e+00
-2.113348e+00
-2.599129e+00
-3.126714e+00
-3.695128e+00
-4.303693e+00
-4.951981e+00
-5.639774e+00
-6.367023e+00
-7.133827e+00
-7.940412e+00
-8.787120e+00
-9.674382e+00
-1.060269e+01
-1.157253e+01
-1.258431e+01
-1.363829e+01
-1.473447e+01
-1.587255e+01
-1.705190e+01
-1.827091e+01
-1.952561e+01
-2.080923e+01
-2.210886e+01
-2.338007e+01
-2.455723e+01
-2.557419e+01
0.000000e+00
-1.582671e-01
-3.639926e-01
-6.182576e-01
-9.212453e-01
-1.272166e+00
-1.669592e+00
-2.111892e+00
-2.597521e+00
-3.125184e+00
-3.693889e+00
-4.302932e+00
-4.951869e+00
-5.640470e+00
-6.368690e+00
-7.136635e+00
-7.944555e+00
-8.792817e+00
-9.681886e+00
-1.061226e+01
-1.158441e+01
-1.259860e+01
-1.365476e+01
-1.475228e+01
-1.588978e+01
-1.706493e+01
-1.827374e+01
-1.950904e+01
-2.075964e+01
-2.200781e+01
-2.321635e+01
-2.433319e+01
-2.530258e+01
0.000000e+00
-1.580147e-01
-3.637614e-01
-6.185945e-01
-9.226307e-01
-1.274832e+00
-1.673590e+00
-2.117160e+00
-2.603969e+00
-3.132727e+00
-3.702466e+00
-4.312514e+00
-4.962451e+00
-5.652067e+00
-6.381330e+00
-7.150357e+00
-7.959401e+00
-8.808839e+00
-9.699137e+00
-1.063079e+01
-1.160421e+01
-1.261954e+01
-1.367645e+01
-1.477371e+01
-1.590878e+01
-1.707759e+01
-1.827386e+01
-1.948800e+01
-2.070626e+01
-2.190903e+01
-2.306548e+01
-2.413486e+01
-2.507366e+01
0.000000e+00
-1.567030e-01
-3.620792e-01
-6.184434e-01
-9.253651e-01
-1.280897e+00
-1.682895e+00
-2.129351e+00
-2.618585e+00
-3.149369e+00
-3.720811e+00
-4.332314e+00
-4.983536e+00
-5.674310e+00
-6.404621e+00
-7.174592e+00
-7.984461e+00
-8.834579e+00
-9.725384e+00
-1.065732e+01
-1.163075e+01
-1.264579e+01
-1.370197e+01
-1.479755e+01
-1.592886e+01
-1.709004e+01
-1.827281e+01
-1.946595e+01
-2.065481e+01
-2.182044e+01
-2.293763e+01
-2.397561e+01
-2.490161e+01
0.000000e+00
-1.534883e-01
-3.576148e-01
-6.176922e-01
-9.302878e-01
-1.291156e+00
-1.698503e+00
-2.149293e+00
-2.641884e+00
-3.175490e+00
-3.749098e+00
-4.362343e+00
-5.015046e+00
-5.707024e+00
-6.438318e+00
-7.209049e+00
-8.019400e+00
-8.869670e+00
-9.760236e+00
-1.069145e+01
-1.166359e+01
-1.267693e+01
-1.373114e+01
-1.482409e+01
-1.595095e+01
-1.710414e+01
-1.827374e+01
-1.944766e+01
-2.061150e+01
-2.174830e+01
-2.283808e+01
-2.385842e+01
-2.478593e+01
0.000000e+00
-1.462156e-01
-3.477350e-01
-6.178326e-01
-9.391491e-01
-1.307599e+00
-1.722397e+00
-2.178282e+00
-2.674901e+00
-3.211734e+00
-3.787656e+00
-4.402760e+00
-5.056974e+00
-5.750113e+00
-6.482278e+00
-7.253578e+00
-8.064109e+00
-8.914083e+00
-9.803811e+00
-1.073348e+01
-1.170329e+01
-1.271387e+01
-1.376533e+01
-1.485523e+01
-1.597745e+01
-1.712284e+01
-1.828032e+01
-1.943754e+01
-2.058092e+01
-2.169586e+01
-2.276709e+01
-2.377953e+01
-2.471879e+01
0.000000e+00
-1.298855e-01
-3.380699e-01
-6.238177e-01
-9.580921e-01
-1.335522e+00
-1.757593e+00
-2.219091e+00
-2.719168e+00
-3.258935e+00
-3.837049e+00
-4.453683e+00
-5.109267e+00
-5.803418e+00
-6.536285e+00
-7.308039e+00
-8.118593e+00
-8.968073e+00
-9.856722e+00
-1.078453e+01
-1.175163e+01
-1.275909e+01
-1.380751e+01
-1.489404e+01
-1.601132e+01
-1.714899e+01
-1.829539e+01
-1.943833e+01
-2.056520e+01
-2.166350e+01
-2.272197e+01
-2.373212e+01
-2.468902e+01
0.000000e+00
-1.248398e-01
-3.582115e-01
-6.567351e-01
-1.001712e+00
-1.385008e+00
-1.810809e+00
-2.275514e+00
-2.777462e+00
-3.318605e+00
-3.897907e+00
-4.515368e+00
-5.171670e+00
-5.866418e+00
-6.599716e+00
-7.371747e+00
-8.182309e+00
-9.031411e+00
-9.919182e+00
-1.084550e+01
-1.181052e+01
-1.281542e+01
-1.386082e+01
-1.494331e+01
-1.605467e+01
-1.718404e+01
-1.831989e+01
-1.945043e+01
-2.056390e+01
-2.164935e+01
-2.269847e+01
-2.370818e+01
-2.468333e+01
0.000000e+00
-1.571120e-01
-4.172156e-01
-7.197163e-01
-1.068165e+00
-1.453604e+00
-1.880900e+00
-2.346273e+00
-2.849004e+00
-3.390544e+00
-3.970080e+00
-4.587840e+00
-5.244285e+00
-5.939140e+00
-6.672522e+00
-7.444524e+00
-8.254941e+00
-9.103723e+00
-9.990858e+00
-1.091624e+01
-1.188018e+01
-1.288363e+01
-1.392626e+01
-1.500370e+01
-1.610747e+01
-1.722723e+01
-1.835222e+01
-1.947136e+01
-2.057361e+01
-2.164899e+01
-2.269085e+01
-2.369949e+01
-2.468730e+01
0.000000e+00
-2.510701e-01
-4.978380e-01
-8.058380e-01
-1.151517e+00
-1.537252e+00
-1.965507e+00
-2.429702e+00
-2.932810e+00
-3.474535e+00
-4.053625e+00
-4.671475e+00
-5.327820e+00
-6.022397e+00
-6.755641e+00
-7.527372e+00
-8.337416e+00
-9.185824e+00
-1.007243e+01
-1.099715e+01
-1.196057e+01
-1.296315e+01
-1.400285e+01