TITLE = "Solution"
VARIABLES = x, y, u, v, psiu, psiv, t, stress
ZONE T="structure" N=561 E=512 F=FEBLOCK ET=QUADRILATERAL VARLOCATION=([7,8]=cellcentered)
0.000000e+00
6.250000e+00
1.250000e+01
1.875000e+01
2.500000e+01
3.125000e+01
3.750000e+01
4.375000e+01
5.000000e+01
5.625000e+01
6.250000e+01
6.875000e+01
7.500000e+01
8.125000e+01
8.750000e+01
9.375000e+01
1.000000e+02
1.062500e+02
1.125000e+02
1.187500e+02
1.250000e+02
1.312500e+02
1.375000e+02
1.437500e+02
1.500000e+02
1.562500e+02
1.625000e+02
1.687500e+02
1.750000e+02
1.812500e+02
1.875000e+02
1.937500e+02
2.000000e+02
0.000000e+00
6.250000e+00
1.250000e+01
1.875000e+01
2.500000e+01
3.125000e+01
3.750000e+01
4.375000e+01
5.000000e+01
5.625000e+01
6.250000e+01
6.875000e+01
7.500000e+01
8.125000e+01
8.750000e+01
9.375000e+01
1.000000e+02
1.062500e+02
1.125000e+02
1.187500e+02
1.250000e+02
1.312500e+02
1.375000e+02
1.437500e+02
1.500000e+02
1.562500e+02
1.625000e+02
1.687500e+02
1.750000e+02
1.812500e+02
1.875000e+02
1.937500e+02
2.000000e+02
0.000000e+00
6.250000e+00
1.250000e+01
1.875000e+01
2.500000e+01
3.125000e+01
3.750000e+01
4.375000e+01
5.000000e+01
5.625000e+01
6.250000e+01
6.875000e+01
7.500000e+01
8.125000e+01
8.750000e+01
9.375000e+01
1.000000e+02
1.062500e+02
1.125000e+02
1.187500e+02
1.250000e+02
1.312500e+02
1.375000e+02
1.437500e+02
1.500000e+02
1.562500e+02
1.625000e+02
1.687500e+02
1.750000e+02
1.812500e+02
1.875000e+02
1.937500e+02
2.000000e+02
0.000000e+00
6.250000e+00
1.250000e+01
1.875000e+01
2.500000e+01
3.125000e+01
3.750000e+01
4.375000e+01
5.000000e+01
5.625000e+01
6.250000e+01
6.875000e+01
7.500000e+01
8.125000e+01
8.750000e+01
9.375000e+01
1.000000e+02
1.062500e+02
1.125000e+02
1.187500e+02
1.250000e+02
1.312500e+02
1.375000e+02
1.437500e+02
1.500000e+02
1.562500e+02
1.625000e+02
1.687500e+02
1.750000e+02
1.812500e+02
1.875000e+02
1.937500e+02
2.000000e+02
0.000000e+00
6.250000e+00
1.250000e+01
1.875000e+01
2.500000e+01
3.125000e+01
3.750000e+01
4.375000e+01
5.000000e+01
5.625000e+01
6.250000e+01
6.875000e+01
7.500000e+01
8.125000e+01
8.750000e+01
9.375000e+01
1.000000e+02
1.062500e+02
1.125000e+02
1.187500e+02
1.250000e+02
1.312500e+02
1.375000e+02
1.437500e+02
1.500000e+02
1.562500e+02
1.625000e+02
1.687500e+02
1.750000e+02
1.812500e+02
1.875000e+02
1.937500e+02
2.000000e+02
0.000000e+00
6.250000e+00
1.250000e+01
1.875000e+01
2.500000e+01
3.125000e+01
3.750000e+01
4.375000e+01
5.000000e+01
5.625000e+01
6.250000e+01
6.875000e+01
7.500000e+01
8.125000e+01
8.750000e+01
9.375000e+01
1.000000e+02
1.062500e+02
1.125000e+02
1.187500e+02
1.250000e+02
1.312500e+02
1.375000e+02
1.437500e+02
1.500000e+02
1.562500e+02
1.625000e+02
1.687500e+02
1.750000e+02
1.812500e+02
1.875000e+02
1.937500e+02
2.000000e+02
0.000000e+00
6.250000e+00
1.250000e+01
1.875000e+01
2.500000e+01
3.125000e+01
3.750000e+01
4.375000e+01
5.000000e+01
5.625000e+01
6.250000e+01
6.875000e+01
7.500000e+01
8.125000e+01
8.750000e+01
9.375000e+01
1.000000e+02
1.062500e+02
1.125000e+02
1.187500e+02
1.250000e+02
1.312500e+02
1.375000e+02
1.437500e+02
1.500000e+02
1.562500e+02
1.625000e+02
1.687500e+02
1.750000e+02
1.812500e+02
1.875000e+02
1.937500e+02
2.000000e+02
0.000000e+00
6.250000e+00
1.250000e+01
1.875000e+01
2.500000e+01
3.125000e+01
3.750000e+01
4.375000e+01
5.000000e+01
5.625000e+01
6.250000e+01
6.875000e+01
7.500000e+01
8.125000e+01
8.750000e+01
9.375000e+01
1.000000e+02
1.062500e+02
1.125000e+02
1.187500e+02
1.250000e+02
1.312500e+02
1.375000e+02
1.437500e+02
1.500000e+02
1.562500e+02
1.625000e+02
1.687500e+02
1.750000e+02
1.812500e+02
1.875000e+02
1.937500e+02
2.000000e+02
0.000000e+00
6.250000e+00
1.250000e+01
1.875000e+01
2.500000e+01
3.125000e+01
3.750000e+01
4.375000e+01
5.000000e+01
5.625000e+01
6.250000e+01
6.875000e+01
7.500000e+01
8.125000e+01
8.750000e+01
9.375000e+01
1.000000e+02
1.062500e+02
1.125000e+02
1.187500e+02
1.250000e+02
1.312500e+02
1.375000e+02
1.437500e+02
1.500000e+02
1.562500e+02
1.625000e+02
1.687500e+02
1.750000e+02
1.812500e+02
1.875000e+02
1.937500e+02
2.000000e+02
0.000000e+00
6.250000e+00
1.250000e+01
1.875000e+01
2.500000e+01
3.125000e+01
3.750000e+01
4.375000e+01
5.000000e+01
5.625000e+01
6.250000e+01
6.875000e+01
7.500000e+01
8.125000e+01
8.750000e+01
9.375000e+01
1.000000e+02
1.062500e+02
1.125000e+02
1.187500e+02
1.250000e+02
1.312500e+02
1.375000e+02
1.437500e+02
1.500000e+02
1.562500e+02
1.625000e+02
1.687500e+02
1.750000e+02
1.812500e+02
1.875000e+02
1.937500e+02
2.000000e+02
0.000000e+00
6.250000e+00
1.250000e+01
1.875000e+01
2.500000e+01
3.125000e+01
3.750000e+01
4.375000e+01
5.000000e+01
5.625000e+01
6.250000e+01
6.875000e+01
7.500000e+01
8.125000e+01
8.750000e+01
9.375000e+01
1.000000e+02
1.062500e+02
1.125000e+02
1.187500e+02
1.250000e+02
1.312500e+02
1.375000e+02
1.437500e+02
1.500000e+02
1.562500e+02
1.625000e+02
1.687500e+02
1.750000e+02
1.812500e+02
1.875000e+02
1.937500e+02
2.000000e+02
0.000000e+00
6.250000e+00
1.250000e+01
1.875000e+01
2.500000e+01
3.125000e+01
3.750000e+01
4.375000e+01
5.000000e+01
5.625000e+01
6.250000e+01
6.875000e+01
7.500000e+01
8.125000e+01
8.750000e+01
9.375000e+01
1.000000e+02
1.062500e+02
1.125000e+02
1.187500e+02
1.250000e+02
1.312500e+02
1.375000e+02
1.437500e+02
1.500000e+02
1.562500e+02
1.625000e+02
1.687500e+02
1.750000e+02
1.812500e+02
1.875000e+02
1.937500e+02
2.000000e+02
0.000000e+00
6.250000e+00
1.250000e+01
1.875000e+01
2.500000e+01
3.125000e+01
3.750000e+01
4.375000e+01
5.000000e+01
5.625000e+01
6.250000e+01
6.875000e+01
7.500000e+01
8.125000e+01
8.750000e+01
9.375000e+01
1.000000e+02
1.062500e+02
1.125000e+02
1.187500e+02
1.250000e+02
1.312500e+02
1.375000e+02
1.437500e+02
1.500000e+02
1.562500e+02
1.625000e+02
1.687500e+02
1.750000e+02
1.812500e+02
1.875000e+02
1.937500e+02
2.000000e+02
0.000000e+00
6.250000e+00
1.250000e+01
1.875000e+01
2.500000e+01
3.125000e+01
3.750000e+01
4.375000e+01
5.000000e+01
5.625000e+01
6.250000e+01
6.875000e+01
7.500000e+01
8.125000e+01
8.750000e+01
9.375000e+01
1.000000e+02
1.062500e+02
1.125000e+02
1.187500e+02
1.250000e+02
1.312500e+02
1.375000e+02
1.437500e+02
1.500000e+02
1.562500e+02
1.625000e+02
1.687500e+02
1.750000e+02
1.812500e+02
1.875000e+02
1.937500e+02
2.000000e+02
0.000000e+00
6.250000e+00
1.250000e+01
1.875000e+01
2.500000e+01
3.125000e+01
3.750000e+01
4.375000e+01
5.000000e+01
5.625000e+01
6.250000e+01
6.875000e+01
7.500000e+01
8.125000e+01
8.750000e+01
9.375000e+01
1.000000e+02
1.062500e+02
1.125000e+02
1.187500e+02
1.250000e+02
1.312500e+02
1.375000e+02
1.437500e+02
1.500000e+02
1.562500e+02
1.625000e+02
1.687500e+02
1.750000e+02
1.812500e+02
1.875000e+02
1.937500e+02
2.000000e+02
0.000000e+00
6.250000e+00
1.250000e+01
1.875000e+01
2.500000e+01
3.125000e+01
3.750000e+01
4.375000e+01
5.000000e+01
5.625000e+01
6.250000e+01
6.875000e+01
7.500000e+01
8.125000e+01
8.750000e+01
9.375000e+01
1.000000e+02
1.062500e+02
1.125000e+02
1.187500e+02
1.250000e+02
1.312500e+02
1.375000e+02
1.437500e+02
1.500000e+02
1.562500e+02
1.625000e+02
1.687500e+02
1.750000e+02
1.812500e+02
1.875000e+02
1.937500e+02
2.000000e+02
0.000000e+00
6.250000e+00
1.250000e+01
1.875000e+01
2.500000e+01
3.125000e+01
3.750000e+01
4.375000e+01
5.000000e+01
5.625000e+01
6.250000e+01
6.875000e+01
7.500000e+01
8.125000e+01
8.750000e+01
9.375000e+01
1.000000e+02
1.062500e+02
1.125000e+02
1.187500e+02
1.250000e+02
1.312500e+02
1.375000e+02
1.437500e+02
1.500000e+02
1.562500e+02
1.625000e+02
1.687500e+02
1.750000e+02
1.812500e+02
1.875000e+02
1.937500e+02
2.000000e+02
0.000000e+00
0.000000e+00
0.000000e+00
0.000000e+00
0.000000e+00
0.000000e+00
0.000000e+00
0.000000e+00
0.000000e+00
0.000000e+00
0.000000e+00
0.000000e+00
0.000000e+00
0.000000e+00
0.000000e+00
0.000000e+00
0.000000e+00
0.000000e+00
0.000000e+00
0.000000e+00
0.000000e+00
0.000000e+00
0.000000e+00
0.000000e+00
0.000000e+00
0.000000e+00
0.000000e+00
0.000000e+00
0.000000e+00
0.000000e+00
0.000000e+00
0.000000e+00
0.000000e+00
6.250000e+00
6.250000e+00
6.250000e+00
6.250000e+00
6.250000e+00
6.250000e+00
6.250000e+00
6.250000e+00
6.250000e+00
6.250000e+00
6.250000e+00
6.250000e+00
6.250000e+00
6.250000e+00
6.250000e+00
6.250000e+00
6.250000e+00
6.250000e+00
6.250000e+00
6.250000e+00
6.250000e+00
6.250000e+00
6.250000e+00
6.250000e+00
6.250000e+00
6.250000e+00
6.250000e+00
6.250000e+00
6.250000e+00
6.250000e+00
6.250000e+00
6.250000e+00
6.250000e+00
1.250000e+01
1.250000e+01
1.250000e+01
1.250000e+01
1.250000e+01
1.250000e+01
1.250000e+01
1.250000e+01
1.250000e+01
1.250000e+01
1.250000e+01
1.250000e+01
1.250000e+01
1.250000e+01
1.250000e+01
1.250000e+01
1.250000e+01
1.250000e+01
1.250000e+01
1.250000e+01
1.250000e+01
1.250000e+01
1.250000e+01
1.250000e+01
1.250000e+01
1.250000e+01
1.250000e+01
1.250000e+01
1.250000e+01
1.250000e+01
1.250000e+01
1.250000e+01
1.250000e+01
1.875000e+01
1.875000e+01
1.875000e+01
1.875000e+01
1.875000e+01
1.875000e+01
1.875000e+01
1.875000e+01
1.875000e+01
1.875000e+01
1.875000e+01
1.875000e+01
1.875000e+01
1.875000e+01
1.875000e+01
1.875000e+01
1.875000e+01
1.875000e+01
1.875000e+01
1.875000e+01
1.875000e+01
1.875000e+01
1.875000e+01
1.875000e+01
1.875000e+01
1.875000e+01
1.875000e+01
1.875000e+01
1.875000e+01
1.875000e+01
1.875000e+01
1.875000e+01
1.875000e+01
2.500000e+01
2.500000e+01
2.500000e+01
2.500000e+01
2.500000e+01
2.500000e+01
2.500000e+01
2.500000e+01
2.500000e+01
2.500000e+01
2.500000e+01
2.500000e+01
2.500000e+01
2.500000e+01
2.500000e+01
2.500000e+01
2.500000e+01
2.500000e+01
2.500000e+01
2.500000e+01
2.500000e+01
2.500000e+01
2.500000e+01
2.500000e+01
2.500000e+01
2.500000e+01
2.500000e+01
2.500000e+01
2.500000e+01
2.500000e+01
2.500000e+01
2.500000e+01
2.500000e+01
3.125000e+01
3.125000e+01
3.125000e+01
3.125000e+01
3.125000e+01
3.125000e+01
3.125000e+01
3.125000e+01
3.125000e+01
3.125000e+01
3.125000e+01
3.125000e+01
3.125000e+01
3.125000e+01
3.125000e+01
3.125000e+01
3.125000e+01
3.125000e+01
3.125000e+01
3.125000e+01
3.125000e+01
3.125000e+01
3.125000e+01
3.125000e+01
3.125000e+01
3.125000e+01
3.125000e+01
3.125000e+01
3.125000e+01
3.125000e+01
3.125000e+01
3.125000e+01
3.125000e+01
3.750000e+01
3.750000e+01
3.750000e+01
3.750000e+01
3.750000e+01
3.750000e+01
3.750000e+01
3.750000e+01
3.750000e+01
3.750000e+01
3.750000e+01
3.750000e+01
3.750000e+01
3.750000e+01
3.750000e+01
3.750000e+01
3.750000e+01
3.750000e+01
3.750000e+01
3.750000e+01
3.750000e+01
3.750000e+01
3.750000e+01
3.750000e+01
3.750000e+01
3.750000e+01
3.750000e+01
3.750000e+01
3.750000e+01
3.750000e+01
3.750000e+01
3.750000e+01
3.750000e+01
4.375000e+01
4.375000e+01
4.375000e+01
4.375000e+01
4.375000e+01
4.375000e+01
4.375000e+01
4.375000e+01
4.375000e+01
4.375000e+01
4.375000e+01
4.375000e+01
4.375000e+01
4.375000e+01
4.375000e+01
4.375000e+01
4.375000e+01
4.375000e+01
4.375000e+01
4.375000e+01
4.375000e+01
4.375000e+01
4.375000e+01
4.375000e+01
4.375000e+01
4.375000e+01
4.375000e+01
4.375000e+01
4.375000e+01
4.375000e+01
4.375000e+01
4.375000e+01
4.375000e+01
5.000000e+01
5.000000e+01
5.000000e+01
5.000000e+01
5.000000e+01
5.000000e+01
5.000000e+01
5.000000e+01
5.000000e+01
5.000000e+01
5.000000e+01
5.000000e+01
5.000000e+01
5.000000e+01
5.000000e+01
5.000000e+01
5.000000e+01
5.000000e+01
5.000000e+01
5.000000e+01
5.000000e+01
5.000000e+01
5.000000e+01
5.000000e+01
5.000000e+01
5.000000e+01
5.000000e+01
5.000000e+01
5.000000e+01
5.000000e+01
5.000000e+01
5.000000e+01
5.000000e+01
5.625000e+01
5.625000e+01
5.625000e+01
5.625000e+01
5.625000e+01
5.625000e+01
5.625000e+01
5.625000e+01
5.625000e+01
5.625000e+01
5.625000e+01
5.625000e+01
5.625000e+01
5.625000e+01
5.625000e+01
5.625000e+01
5.625000e+01
5.625000e+01
5.625000e+01
5.625000e+01
5.625000e+01
5.625000e+01
5.625000e+01
5.625000e+01
5.625000e+01
5.625000e+01
5.625000e+01
5.625000e+01
5.625000e+01
5.625000e+01
5.625000e+01
5.625000e+01
5.625000e+01
6.250000e+01
6.250000e+01
6.250000e+01
6.250000e+01
6.250000e+01
6.250000e+01
6.250000e+01
6.250000e+01
6.250000e+01
6.250000e+01
6.250000e+01
6.250000e+01
6.250000e+01
6.250000e+01
6.250000e+01
6.250000e+01
6.250000e+01
6.250000e+01
6.250000e+01
6.250000e+01
6.250000e+01
6.250000e+01
6.250000e+01
6.250000e+01
6.250000e+01
6.250000e+01
6.250000e+01
6.250000e+01
6.250000e+01
6.250000e+01
6.250000e+01
6.250000e+01
6.250000e+01
6.875000e+01
6.875000e+01
6.875000e+01
6.875000e+01
6.875000e+01
6.875000e+01
6.875000e+01
6.875000e+01
6.875000e+01
6.875000e+01
6.875000e+01
6.875000e+01
6.875000e+01
6.875000e+01
6.875000e+01
6.875000e+01
6.875000e+01
6.875000e+01
6.875000e+01
6.875000e+01
6.875000e+01
6.875000e+01
6.875000e+01
6.875000e+01
6.875000e+01
6.875000e+01
6.875000e+01
6.875000e+01
6.875000e+01
6.875000e+01
6.875000e+01
6.875000e+01
6.875000e+01
7.500000e+01
7.500000e+01
7.500000e+01
7.500000e+01
7.500000e+01
7.500000e+01
7.500000e+01
7.500000e+01
7.500000e+01
7.500000e+01
7.500000e+01
7.500000e+01
7.500000e+01
7.500000e+01
7.500000e+01
7.500000e+01
7.500000e+01
7.500000e+01
7.500000e+01
7.500000e+01
7.500000e+01
7.500000e+01
7.500000e+01
7.500000e+01
7.500000e+01
7.500000e+01
7.500000e+01
7.500000e+01
7.500000e+01
7.500000e+01
7.500000e+01
7.500000e+01
7.500000e+01
8.125000e+01
8.125000e+01
8.125000e+01
8.125000e+01
8.125000e+01
8.125000e+01
8.125000e+01
8.125000e+01
8.125000e+01
8.125000e+01
8.125000e+01
8.125000e+01
8.125000e+01
8.125000e+01
8.125000e+01
8.125000e+01
8.125000e+01
8.125000e+01
8.125000e+01
8.125000e+01
8.125000e+01
8.125000e+01
8.125000e+01
8.125000e+01
8.125000e+01
8.125000e+01
8.125000e+01
8.125000e+01
8.125000e+01
8.125000e+01
8.125000e+01
8.125000e+01
8.125000e+01
8.750000e+01
8.750000e+01
8.750000e+01
8.750000e+01
8.750000e+01
8.750000e+01
8.750000e+01
8.750000e+01
8.750000e+01
8.750000e+01
8.750000e+01
8.750000e+01
8.750000e+01
8.750000e+01
8.750000e+01
8.750000e+01
8.750000e+01
8.750000e+01
8.750000e+01
8.750000e+01
8.750000e+01
8.750000e+01
8.750000e+01
8.750000e+01
8.750000e+01
8.750000e+01
8.750000e+01
8.750000e+01
8.750000e+01
8.750000e+01
8.750000e+01
8.750000e+01
8.750000e+01
9.375000e+01
9.375000e+01
9.375000e+01
9.375000e+01
9.375000e+01
9.375000e+01
9.375000e+01
9.375000e+01
9.375000e+01
9.375000e+01
9.375000e+01
9.375000e+01
9.375000e+01
9.375000e+01
9.375000e+01
9.375000e+01
9.375000e+01
9.375000e+01
9.375000e+01
9.375000e+01
9.375000e+01
9.375000e+01
9.375000e+01
9.375000e+01
9.375000e+01
9.375000e+01
9.375000e+01
9.375000e+01
9.375000e+01
9.375000e+01
9.375000e+01
9.375000e+01
9.375000e+01
1.000000e+02
1.000000e+02
1.000000e+02
1.000000e+02
1.000000e+02
1.000000e+02
1.000000e+02
1.000000e+02
1.000000e+02
1.000000e+02
1.000000e+02
1.000000e+02
1.000000e+02
1.000000e+02
1.000000e+02
1.000000e+02
1.000000e+02
1.000000e+02
1.000000e+02
1.000000e+02
1.000000e+02
1.000000e+02
1.000000e+02
1.000000e+02
1.000000e+02
1.000000e+02
1.000000e+02
1.000000e+02
1.000000e+02
1.000000e+02
1.000000e+02
1.000000e+02
1.000000e+02
0.000000e+00
-5.280045e-02
-9.579938e-02
-1.356318e-01
-1.738598e-01
-2.107747e-01
-2.464507e-01
-2.808847e-01
-3.140548e-01
-3.459370e-01
-3.765113e-01
-4.057639e-01
-4.336878e-01
-4.602822e-01
-4.855534e-01
-5.095147e-01
-5.321877e-01
-5.536034e-01
-5.738049e-01
-5.928504e-01
-6.108173e-01
-6.278079e-01
-6.439577e-01
-6.594463e-01
-6.745141e-01
-6.894881e-01
-7.048225e-01
-7.211647e-01
-7.394649e-01
-7.611208e-01
-7.879460e-01
-8.199143e-01
-8.394242e-01
0.000000e+00
-3.540127e-02
-7.365613e-02
-1.097254e-01
-1.440080e-01
-1.768301e-01
-2.083652e-01
-2.386894e-01
-2.678327e-01
-2.958049e-01
-3.226080e-01
-3.482419e-01
-3.727079e-01
-3.960100e-01
-4.181557e-01
-4.391575e-01
-4.590333e-01
-4.778076e-01
-4.955129e-01
-5.121915e-01
-5.278972e-01
-5.426981e-01
-5.566783e-01
-5.699411e-01
-5.826098e-01
-5.948261e-01
-6.067397e-01
-6.184740e-01
-6.300280e-01
-6.410258e-01
-6.501900e-01
-6.555478e-01
-6.630068e-01
0.000000e+00
-2.808036e-02
-5.781018e-02
-8.807988e-02
-1.174927e-01
-1.458216e-01
-1.730485e-01
-1.991992e-01
-2.242968e-01
-2.483571e-01
-2.713904e-01
-2.934038e-01
-3.144034e-01
-3.343955e-01
-3.533873e-01
-3.713882e-01
-3.884098e-01
-4.044669e-01
-4.195774e-01
-4.337629e-01
-4.470482e-01
-4.594602e-01
-4.710253e-01
-4.817641e-01
-4.916807e-01
-5.007435e-01
-5.088487e-01
-5.157577e-01
-5.210033e-01
-5.238278e-01
-5.235802e-01
-5.219941e-01
-5.307042e-01
0.000000e+00
-2.227928e-02
-4.578900e-02
-6.994231e-02
-9.403903e-02
-1.175521e-01
-1.402801e-01
-1.621509e-01
-1.831449e-01
-2.032613e-01
-2.225051e-01
-2.408829e-01
-2.584009e-01
-2.750645e-01
-2.908787e-01
-3.058480e-01
-3.199764e-01
-3.332676e-01
-3.457243e-01
-3.573472e-01
-3.681333e-01
-3.780727e-01
-3.871435e-01
-3.953034e-01
-4.024770e-01
-4.085378e-01
-4.132851e-01
-4.164289e-01
-4.176292e-01
-4.167381e-01
-4.145739e-01
-4.144447e-01
-4.227433e-01
0.000000e+00
-1.729183e-02
-3.540778e-02
-5.410244e-02
-7.294898e-02
-9.156438e-02
-1.096918e-01
-1.272012e-01
-1.440334e-01
-1.601657e-01
-1.755921e-01
-1.903135e-01
-2.043327e-01
-2.176519e-01
-2.302720e-01
-2.421920e-01
-2.534081e-01
-2.639135e-01
-2.736974e-01
-2.827434e-01
-2.910272e-01
-2.985134e-01
-3.051507e-01
-3.108663e-01
-3.155592e-01
-3.190965e-01
-3.213224e-01
-3.221033e-01
-3.214627e-01
-3.198953e-01
-3.188784e-01
-3.212267e-01
-3.283057e-01
0.000000e+00
-1.270849e-02
-2.596147e-02
-3.964022e-02
-5.350841e-02
-6.730715e-02
-8.083094e-02
-9.394618e-02
-1.065796e-01
-1.186954e-01
-1.302787e-01
-1.413241e-01
-1.518297e-01
-1.617937e-01
-1.712124e-01
-1.800789e-01
-1.883827e-01
-1.961088e-01
-2.032362e-01
-2.097369e-01
-2.155745e-01
-2.207015e-01
-2.250580e-01
-2.285711e-01
-2.311572e-01
-2.327352e-01
-2.332587e-01
-2.327889e-01
-2.316309e-01
-2.305292e-01
-2.307974e-01
-2.337911e-01
-2.396485e-01
0.000000e+00
-8.363717e-03
-1.705826e-02
-2.602862e-02
-3.514688e-02
-4.425956e-02
-5.322923e-02
-6.195573e-02
-7.037635e-02
-7.845651e-02
-8.617873e-02
-9.353422e-02
-1.005173e-01
-1.071223e-01
-1.133411e-01
-1.191624e-01
-1.245704e-01
-1.295444e-01
-1.340577e-01
-1.380771e-01
-1.415622e-01
-1.444656e-01
-1.467347e-01
-1.483160e-01
-1.491656e-01
-1.492710e-01
-1.486901e-01
-1.476152e-01
-1.464552e-01
-1.458930e-01
-1.467702e-01
-1.496848e-01
-1.544130e-01
0.000000e+00
-4.154256e-03
-8.465568e-03
-1.291178e-02
-1.743673e-02
-2.196894e-02
-2.644054e-02
-3.079839e-02
-3.500661e-02
-3.904328e-02
-4.289540e-02
-4.655439e-02
-5.001275e-02
-5.326191e-02
-5.629079e-02
-5.908485e-02
-6.162534e-02
-6.388882e-02
-6.584683e-02
-6.746601e-02
-6.870895e-02
-6.953629e-02
-6.991107e-02
-6.980683e-02
-6.922151e-02
-6.819979e-02
-6.686531e-02
-6.545921e-02
-6.436766e-02
-6.409423e-02
-6.512346e-02
-6.766605e-02
-7.141777e-02
0.000000e+00
-6.702580e-06
-1.453309e-05
-2.305775e-05
-3.182814e-05
-4.023969e-05
-4.738124e-05
-5.186818e-05
-5.164740e-05
-4.376247e-05
-2.407023e-05
1.309632e-05
7.531821e-05
1.725253e-04
3.174545e-04
5.260926e-04
8.180336e-04
1.216642e-03
1.748843e-03
2.444280e-03
3.333430e-03
4.444107e-03
5.795580e-03
7.389315e-03
9.195456e-03
1.113489e-02
1.305912e-02
1.473557e-02
1.585468e-02
1.608163e-02
1.516783e-02
1.309836e-02
1.019997e-02
0.000000e+00
4.141632e-03
8.438139e-03
1.286817e-02
1.737640e-02
2.189245e-02
2.635013e-02
3.069890e-02
3.490670e-02
3.895714e-02
4.284499e-02
4.657230e-02
5.014582e-02
5.357568e-02
5.687485e-02
6.005900e-02
6.314652e-02
6.615837e-02
6.911751e-02
7.204760e-02
7.497053e-02
7.790239e-02
8.084736e-02
8.378910e-02
8.667978e-02
8.942818e-02
9.189044e-02
9.387084e-02
9.514331e-02
9.550356e-02
9.485111e-02
9.327905e-02
9.112787e-02
0.000000e+00
8.353404e-03
1.703569e-02
2.599249e-02
3.509650e-02
4.419510e-02
5.315216e-02
6.186955e-02
7.028764e-02
7.837627e-02
8.612422e-02
9.353133e-02
1.006036e-01
1.073505e-01
1.137840e-01
1.199176e-01
1.257669e-01
1.313484e-01
1.366794e-01
1.417766e-01
1.466531e-01
1.513150e-01
1.557561e-01
1.599507e-01
1.638461e-01
1.673560e-01
1.703581e-01
1.727029e-01
1.742376e-01
1.748513e-01
1.745358e-01
1.734480e-01
1.719466e-01
0.000000e+00
1.270191e-02
2.594681e-02
3.961635e-02
5.347452e-02
6.726292e-02
8.077681e-02
9.388388e-02
1.065127e-01
1.186304e-01
1.302258e-01
1.412994e-01
1.518567e-01
1.619059e-01
1.714565e-01
1.805187e-01
1.891030e-01
1.972205e-01
2.048815e-01
2.120948e-01
2.188656e-01
2.251922e-01
2.310623e-01
2.364484e-01
2.413028e-01
2.455548e-01
2.491131e-01
2.518746e-01
2.537474e-01
2.546858e-01
2.547386e-01
2.541005e-01
2.531516e-01
0.000000e+00
1.729020e-02
3.540369e-02
5.409512e-02
7.293767e-02
9.154844e-02
1.096708e-01
1.271751e-01
1.440027e-01
1.601319e-01
1.755577e-01
1.902830e-01
2.043129e-01
2.176535e-01
2.303102e-01
2.422883e-01
2.535922e-01
2.642257e-01
2.741914e-01
2.834896e-01
2.921177e-01
3.000676e-01
3.073241e-01
3.138620e-01
3.196448e-01
3.246237e-01
3.287419e-01
3.319425e-01
3.341856e-01
3.354743e-01
3.358923e-01
3.356527e-01
3.351528e-01
0.000000e+00
2.228342e-02
4.579741e-02
6.995482e-02
9.405530e-02
1.175716e-01
1.403023e-01
1.621746e-01
1.831683e-01
2.032815e-01
2.225178e-01
2.408817e-01
2.583766e-01
2.750044e-01
2.907654e-01
3.056585e-01
3.196807e-01
3.328274e-01
3.450923e-01
3.564665e-01
3.669386e-01
3.764941e-01
3.851147e-01
3.927787e-01
3.994616e-01
4.051385e-01
4.097880e-01
4.133997e-01
4.159845e-01
4.175909e-01
4.183298e-01
4.184179e-01
4.182520e-01
0.000000e+00
2.809047e-02
5.783175e-02
8.811365e-02
1.175393e-01
1.458816e-01
1.731220e-01
1.992854e-01
2.243932e-01
2.484588e-01
2.714886e-01
2.934845e-01
3.144449e-01
3.343659e-01
3.532413e-01
3.710625e-01
3.878186e-01
4.034958e-01
4.180776e-01
4.315446e-01
4.438746e-01
4.550437e-01
4.650275e-01
4.738038e-01
4.813559e-01
4.876781e-01
4.927816e-01
4.967027e-01
4.995089e-01
5.013062e-01
5.022470e-01
5.025534e-01
5.025900e-01
0.000000e+00
3.541643e-02
7.368927e-02
1.097787e-01
1.440840e-01
1.769316e-01
2.084943e-01
2.388473e-01
2.680188e-01
2.960155e-01
3.228344e-01
3.484680e-01
3.729066e-01
3.961391e-01
4.181523e-01
4.389305e-01
4.584547e-01
4.767020e-01
4.936450e-01
5.092517e-01
5.234861e-01
5.363099e-01
5.476852e-01
5.575794e-01
5.659719e-01
5.728633e-01
5.782860e-01
5.823165e-01
5.850852e-01
5.867818e-01
5.876485e-01
5.879628e-01
5.880397e-01
0.000000e+00
5.281705e-02
9.583812e-02
1.356982e-01
1.739591e-01
2.109125e-01
2.466325e-01
2.811157e-01
3.143394e-01
3.462769e-01
3.769036e-01
4.061983e-01
4.341420e-01
4.607169e-01
4.859046e-01
5.096840e-01
5.320297e-01
5.529106e-01
5.722887e-01
5.901179e-01
6.063446e-01
6.209091e-01
6.337488e-01
6.448050e-01
6.540319e-01
6.614109e-01
6.669683e-01
6.707968e-01
6.730787e-01
6.741069e-01
6.742938e-01
6.741390e-01
6.740519e-01
0.000000e+00
-3.262967e-02
-5.694584e-02
-8.348065e-02
-1.130288e-01
-1.464063e-01
-1.838452e-01
-2.254106e-01
-2.710610e-01
-3.206987e-01
-3.741920e-01
-4.313895e-01
-4.921282e-01
-5.562380e-01
-6.235455e-01
-6.938762e-01
-7.670565e-01
-8.429158e-01
-9.212894e-01
-1.002022e+00
-1.084974e+00
-1.170025e+00
-1.257093e+00
-1.346143e+00
-1.437220e+00
-1.530492e+00
-1.626330e+00
-1.725458e+00
-1.829260e+00
-1.940475e+00
-2.065016e+00
-2.216830e+00
-2.426567e+00
0.000000e+00
-2.027810e-02
-4.573072e-02
-7.244452e-02
-1.024045e-01
-1.361446e-01
-1.739473e-01
-2.158765e-01
-2.618943e-01
-3.119030e-01
-3.657702e-01
-4.233433e-01
-4.844577e-01
-5.489421e-01
-6.166214e-01
-6.873194e-01
-7.608602e-01
-8.370709e-01
-9.157835e-01
-9.968389e-01
-1.080092e+00
-1.165418e+00
-1.252725e+00
-1.341969e+00
-1.433184e+00
-1.526521e+00
-1.622333e+00
-1.721321e+00
-1.824840e+00
-1.935583e+00
-2.059162e+00
-2.207597e+00
-2.403544e+00
0.000000e+00
-1.489543e-02
-3.686789e-02
-6.321728e-02
-9.322955e-02
-1.272183e-01
-1.653194e-01
-2.075681e-01
-2.539137e-01
-3.042537e-01
-3.584534e-01
-4.163593e-01
-4.778058e-01
-5.426210e-01
-6.106293e-01
-6.816537e-01
-7.555175e-01
-8.320468e-01
-9.110724e-01
-9.924341e-01
-1.075985e+00
-1.161600e+00
-1.249187e+00
-1.338703e+00
-1.430185e+00
-1.523794e+00
-1.619899e+00
-1.719216e+00
-1.823086e+00
-1.933933e+00
-2.055904e+00
-2.193896e+00
-2.346971e+00
0.000000e+00
-1.192764e-02
-3.121967e-02
-5.616397e-02
-8.579055e-02
-1.197687e-01
-1.580328e-01
-2.005182e-01
-2.471335e-01
-2.977574e-01
-3.522467e-01
-4.104440e-01
-4.721823e-01
-5.372895e-01
-6.055900e-01
-6.769073e-01
-7.510654e-01
-8.278910e-01
-9.072158e-01
-9.888808e-01
-1.072741e+00
-1.158675e+00
-1.246594e+00
-1.336463e+00
-1.428327e+00
-1.522356e+00
-1.618913e+00
-1.718661e+00
-1.822694e+00
-1.932612e+00
-2.049944e+00
-2.173693e+00
-2.288891e+00
0.000000e+00
-1.009275e-02
-2.752594e-02
-5.115530e-02
-8.010651e-02
-1.138619e-01
-1.521404e-01
-1.947638e-01
-2.415783e-01
-2.924308e-01
-3.471623e-01
-4.056079e-01
-4.675979e-01
-5.329593e-01
-6.015175e-01
-6.730971e-01
-7.475239e-01
-8.246264e-01
-9.042388e-01
-9.862046e-01
-1.070383e+00
-1.156654e+00
-1.244934e+00
-1.335191e+00
-1.427467e+00
-1.521909e+00
-1.618814e+00
-1.718659e+00
-1.822074e+00
-1.929566e+00
-2.040622e+00
-2.151166e+00
-2.251491e+00
0.000000e+00
-8.925194e-03
-2.510239e-02
-4.770854e-02
-7.600805e-02
-1.094473e-01
-1.476425e-01
-1.903205e-01
-2.372661e-01
-2.882899e-01
-3.432133e-01
-4.018615e-01
-4.640609e-01
-5.296376e-01
-5.984176e-01
-6.702277e-01
-7.448956e-01
-8.222525e-01
-9.021352e-01
-9.843899e-01
-1.068877e+00
-1.155479e+00
-1.244108e+00
-1.334723e+00
-1.427339e+00
-1.522045e+00
-1.619009e+00
-1.718439e+00
-1.820451e+00
-1.924701e+00
-2.029600e+00
-2.131400e+00
-2.224446e+00
0.000000e+00
-8.199572e-03
-2.357011e-02
-4.546808e-02
-7.326239e-02
-1.064135e-01
-1.444952e-01
-1.871786e-01
-2.342017e-01
-2.853441e-01
-3.404089e-01
-3.992120e-01
-4.615756e-01
-5.273252e-01
-5.962878e-01
-6.682920e-01
-7.431680e-01
-8.207493e-01
-9.008746e-01
-9.833910e-01
-1.068158e+00
-1.155052e+00
-1.243976e+00
-1.334863e+00
-1.427681e+00
-1.522431e+00
-1.619123e+00
-1.717700e+00
-1.817879e+00
-1.918844e+00
-2.018848e+00
-2.115008e+00
-2.203792e+00
0.000000e+00
-7.800832e-03
-2.271988e-02
-4.420554e-02
-7.168799e-02
-1.046463e-01
-1.426407e-01
-1.853146e-01
-2.323796e-01
-2.835954e-01
-3.387529e-01
-3.976615e-01
-4.601412e-01
-5.260173e-01
-5.951182e-01
-6.672742e-01
-7.423177e-01
-8.200836e-01
-9.004112e-01
-9.831458e-01
-1.068142e+00
-1.155266e+00
-1.244400e+00
-1.335440e+00
-1.428296e+00
-1.522871e+00
-1.619027e+00
-1.716502e+00
-1.814774e+00
-1.912879e+00
-2.009239e+00
-2.101687e+00
-2.187811e+00
0.000000e+00
-7.672359e-03
-2.244557e-02
-4.379633e-02
-7.117487e-02
-1.040679e-01
-1.420332e-01
-1.847065e-01
-2.317912e-01
-2.830413e-01
-3.382440e-01
-3.972075e-01
-4.597519e-01
-5.257037e-01
-5.948930e-01
-6.671518e-01
-7.423140e-01
-8.202149e-01
-9.006924e-01
-9.835881e-01
-1.068748e+00
-1.156022e+00
-1.245266e+00
-1.336335e+00
-1.429077e+00
-1.523306e+00
-1.618767e+00
-1.715066e+00
-1.811581e+00
-1.907360e+00
-2.001073e+00
-2.091062e+00
-2.175563e+00
0.000000e+00
-7.797115e-03
-2.271472e-02
-4.420110e-02
-7.168664e-02
-1.046510e-01
-1.426553e-01
-1.853444e-01
-2.324313e-01
-2.836780e-01
-3.388779e-01
-3.978436e-01
-4.603981e-01
-5.263706e-01
-5.955933e-01
-6.678996e-01
-7.431239e-01
-8.211013e-01
-9.016669e-01
-9.846560e-01
-1.069903e+00
-1.157241e+00
-1.246496e+00
-1.337483e+00
-1.429991e+00
-1.523764e+00
-1.618465e+00
-1.713634e+00
-1.808628e+00
-1.902584e+00
-1.994402e+00
-2.082802e+00
-2.166435e+00
0.000000e+00
-8.192441e-03
-2.356021e-02
-4.545952e-02
-7.325970e-02
-1.064223e-01
-1.445231e-01
-1.872353e-01
-2.343005e-01
-2.855021e-01
-3.406483e-01
-3.995607e-01
-4.620680e-01
-5.280028e-01
-5.971993e-01
-6.694923e-01
-7.447163e-01
-8.227048e-01
-9.032893e-01
-9.862981e-01
-1.071554e+00
-1.158869e+00
-1.248045e+00
-1.338858e+00
-1.431051e+00
-1.524314e+00
-1.618261e+00
-1.712406e+00
-1.806132e+00
-1.898684e+00
-1.989171e+00
-2.076606e+00
-2.159955e+00
0.000000e+00
-8.915282e-03
-2.508864e-02
-4.769659e-02
-7.600418e-02
-1.094594e-01
-1.476810e-01
-1.903993e-01
-2.374037e-01
-2.885103e-01
-3.435475e-01
-4.023485e-01
-4.647490e-01
-5.305851e-01
-5.996930e-01
-6.719081e-01
-7.470646e-01
-8.249941e-01
-9.055241e-01
-9.884757e-01
-1.073660e+00
-1.160873e+00
-1.249892e+00
-1.340463e+00
-1.432291e+00
-1.525033e+00
-1.618274e+00
-1.711526e+00
-1.804216e+00
-1.895697e+00
-1.985265e+00
-2.072187e+00
-2.155708e+00
0.000000e+00
-1.008107e-02
-2.750975e-02
-5.114121e-02
-8.010203e-02
-1.138766e-01
-1.521868e-01
-1.948589e-01
-2.417444e-01
-2.926970e-01
-3.475661e-01
-4.061967e-01
-4.684301e-01
-5.341056e-01
-6.030607e-01
-6.751312e-01
-7.501504e-01
-8.279480e-01
-9.083477e-01
-9.911642e-01
-1.076199e+00
-1.163235e+00
-1.252030e+00
-1.342308e+00
-1.433749e+00
-1.525985e+00
-1.618589e+00
-1.711082e+00
-1.802935e+00
-1.893600e+00
-1.982539e+00
-2.069253e+00
-2.153277e+00
0.000000e+00
-1.191564e-02
-3.120305e-02
-5.614965e-02
-8.578670e-02
-1.197860e-01
-1.580851e-01
-2.006244e-01
-2.473182e-01
-2.980528e-01
-3.526943e-01
-4.110960e-01
-4.731032e-01
-5.385571e-01
-6.072956e-01
-6.791542e-01
-7.539655e-01
-8.315571e-01
-9.117498e-01
-9.943536e-01
-1.079163e+00
-1.165951e+00
-1.254463e+00
-1.344406e+00
-1.435448e+00
-1.527206e+00
-1.619249e+00
-1.711106e+00
-1.802289e+00
-1.892329e+00
-1.980825e+00
-2.067501e+00
-2.152217e+00
0.000000e+00
-1.488497e-02
-3.685333e-02
-6.320518e-02
-9.322840e-02
-1.272393e-01
-1.653772e-01
-2.076823e-01
-2.541100e-01
-3.045654e-01
-3.589234e-01
-4.170413e-01
-4.787662e-01
-5.439396e-01
-6.123993e-01
-6.839802e-01
-7.585137e-01
-8.358262e-01
-9.157359e-01
-9.980496e-01
-1.082558e+00
-1.169027e+00
-1.257196e+00
-1.346766e+00
-1.437395e+00
-1.528696e+00
-1.620240e+00
-1.711568e+00
-1.802217e+00
-1.891772e+00
-1.979936e+00
-2.066620e+00
-2.152032e+00
0.000000e+00
-2.027138e-02
-4.572081e-02
-7.243740e-02
-1.024089e-01
-1.361719e-01
-1.740125e-01
-2.159990e-01
-2.620999e-01
-3.122247e-01
-3.662502e-01
-4.240344e-01
-4.854246e-01
-5.502619e-01
-6.183837e-01
-6.896240e-01
-7.638132e-01
-8.407759e-01
-9.203290e-01
-1.002277e+00
-1.086408e+00
-1.172486e+00
-1.260247e+00
-1.349390e+00
-1.439575e+00
-1.530417e+00
-1.621493e+00
-1.712358e+00
-1.802570e+00
-1.891746e+00
-1.979647e+00
-2.066302e+00
-2.152190e+00
0.000000e+00
-3.262871e-02
-5.694254e-02
-8.348128e-02
-1.130421e-01
-1.464438e-01
-1.839218e-01
-2.255456e-01
-2.712797e-01
-3.210330e-01
-3.746827e-01
-4.320869e-01
-4.930931e-01
-5.575423e-01
-6.252712e-01
-6.961130e-01
-7.698965e-01
-8.464450e-01
-9.255730e-01
-1.007083e+00
-1.090761e+00
-1.176371e+00
-1.263647e+00