TITLE = "Solution"
VARIABLES = x, y, u, v, psiu, psiv, t, stress
ZONE T="structure" N=561 E=512 F=FEBLOCK ET=QUADRILATERAL VARLOCATION=([7,8]=cellcentered)
0.000000e+00
6.250000e+00
1.250000e+01
1.875000e+01
2.500000e+01
3.125000e+01
3.750000e+01
4.375000e+01
5.000000e+01
5.625000e+01
6.250000e+01
6.875000e+01
7.500000e+01
8.125000e+01
8.750000e+01
9.375000e+01
1.000000e+02
1.062500e+02
1.125000e+02
1.187500e+02
1.250000e+02
1.312500e+02
1.375000e+02
1.437500e+02
1.500000e+02
1.562500e+02
1.625000e+02
1.687500e+02
1.750000e+02
1.812500e+02
1.875000e+02
1.937500e+02
2.000000e+02
0.000000e+00
6.250000e+00
1.250000e+01
1.875000e+01
2.500000e+01
3.125000e+01
3.750000e+01
4.375000e+01
5.000000e+01
5.625000e+01
6.250000e+01
6.875000e+01
7.500000e+01
8.125000e+01
8.750000e+01
9.375000e+01
1.000000e+02
1.062500e+02
1.125000e+02
1.187500e+02
1.250000e+02
1.312500e+02
1.375000e+02
1.437500e+02
1.500000e+02
1.562500e+02
1.625000e+02
1.687500e+02
1.750000e+02
1.812500e+02
1.875000e+02
1.937500e+02
2.000000e+02
0.000000e+00
6.250000e+00
1.250000e+01
1.875000e+01
2.500000e+01
3.125000e+01
3.750000e+01
4.375000e+01
5.000000e+01
5.625000e+01
6.250000e+01
6.875000e+01
7.500000e+01
8.125000e+01
8.750000e+01
9.375000e+01
1.000000e+02
1.062500e+02
1.125000e+02
1.187500e+02
1.250000e+02
1.312500e+02
1.375000e+02
1.437500e+02
1.500000e+02
1.562500e+02
1.625000e+02
1.687500e+02
1.750000e+02
1.812500e+02
1.875000e+02
1.937500e+02
2.000000e+02
0.000000e+00
6.250000e+00
1.250000e+01
1.875000e+01
2.500000e+01
3.125000e+01
3.750000e+01
4.375000e+01
5.000000e+01
5.625000e+01
6.250000e+01
6.875000e+01
7.500000e+01
8.125000e+01
8.750000e+01
9.375000e+01
1.000000e+02
1.062500e+02
1.125000e+02
1.187500e+02
1.250000e+02
1.312500e+02
1.375000e+02
1.437500e+02
1.500000e+02
1.562500e+02
1.625000e+02
1.687500e+02
1.750000e+02
1.812500e+02
1.875000e+02
1.937500e+02
2.000000e+02
0.000000e+00
6.250000e+00
1.250000e+01
1.875000e+01
2.500000e+01
3.125000e+01
3.750000e+01
4.375000e+01
5.000000e+01
5.625000e+01
6.250000e+01
6.875000e+01
7.500000e+01
8.125000e+01
8.750000e+01
9.375000e+01
1.000000e+02
1.062500e+02
1.125000e+02
1.187500e+02
1.250000e+02
1.312500e+02
1.375000e+02
1.437500e+02
1.500000e+02
1.562500e+02
1.625000e+02
1.687500e+02
1.750000e+02
1.812500e+02
1.875000e+02
1.937500e+02
2.000000e+02
0.000000e+00
6.250000e+00
1.250000e+01
1.875000e+01
2.500000e+01
3.125000e+01
3.750000e+01
4.375000e+01
5.000000e+01
5.625000e+01
6.250000e+01
6.875000e+01
7.500000e+01
8.125000e+01
8.750000e+01
9.375000e+01
1.000000e+02
1.062500e+02
1.125000e+02
1.187500e+02
1.250000e+02
1.312500e+02
1.375000e+02
1.437500e+02
1.500000e+02
1.562500e+02
1.625000e+02
1.687500e+02
1.750000e+02
1.812500e+02
1.875000e+02
1.937500e+02
2.000000e+02
0.000000e+00
6.250000e+00
1.250000e+01
1.875000e+01
2.500000e+01
3.125000e+01
3.750000e+01
4.375000e+01
5.000000e+01
5.625000e+01
6.250000e+01
6.875000e+01
7.500000e+01
8.125000e+01
8.750000e+01
9.375000e+01
1.000000e+02
1.062500e+02
1.125000e+02
1.187500e+02
1.250000e+02
1.312500e+02
1.375000e+02
1.437500e+02
1.500000e+02
1.562500e+02
1.625000e+02
1.687500e+02
1.750000e+02
1.812500e+02
1.875000e+02
1.937500e+02
2.000000e+02
0.000000e+00
6.250000e+00
1.250000e+01
1.875000e+01
2.500000e+01
3.125000e+01
3.750000e+01
4.375000e+01
5.000000e+01
5.625000e+01
6.250000e+01
6.875000e+01
7.500000e+01
8.125000e+01
8.750000e+01
9.375000e+01
1.000000e+02
1.062500e+02
1.125000e+02
1.187500e+02
1.250000e+02
1.312500e+02
1.375000e+02
1.437500e+02
1.500000e+02
1.562500e+02
1.625000e+02
1.687500e+02
1.750000e+02
1.812500e+02
1.875000e+02
1.937500e+02
2.000000e+02
0.000000e+00
6.250000e+00
1.250000e+01
1.875000e+01
2.500000e+01
3.125000e+01
3.750000e+01
4.375000e+01
5.000000e+01
5.625000e+01
6.250000e+01
6.875000e+01
7.500000e+01
8.125000e+01
8.750000e+01
9.375000e+01
1.000000e+02
1.062500e+02
1.125000e+02
1.187500e+02
1.250000e+02
1.312500e+02
1.375000e+02
1.437500e+02
1.500000e+02
1.562500e+02
1.625000e+02
1.687500e+02
1.750000e+02
1.812500e+02
1.875000e+02
1.937500e+02
2.000000e+02
0.000000e+00
6.250000e+00
1.250000e+01
1.875000e+01
2.500000e+01
3.125000e+01
3.750000e+01
4.375000e+01
5.000000e+01
5.625000e+01
6.250000e+01
6.875000e+01
7.500000e+01
8.125000e+01
8.750000e+01
9.375000e+01
1.000000e+02
1.062500e+02
1.125000e+02
1.187500e+02
1.250000e+02
1.312500e+02
1.375000e+02
1.437500e+02
1.500000e+02
1.562500e+02
1.625000e+02
1.687500e+02
1.750000e+02
1.812500e+02
1.875000e+02
1.937500e+02
2.000000e+02
0.000000e+00
6.250000e+00
1.250000e+01
1.875000e+01
2.500000e+01
3.125000e+01
3.750000e+01
4.375000e+01
5.000000e+01
5.625000e+01
6.250000e+01
6.875000e+01
7.500000e+01
8.125000e+01
8.750000e+01
9.375000e+01
1.000000e+02
1.062500e+02
1.125000e+02
1.187500e+02
1.250000e+02
1.312500e+02
1.375000e+02
1.437500e+02
1.500000e+02
1.562500e+02
1.625000e+02
1.687500e+02
1.750000e+02
1.812500e+02
1.875000e+02
1.937500e+02
2.000000e+02
0.000000e+00
6.250000e+00
1.250000e+01
1.875000e+01
2.500000e+01
3.125000e+01
3.750000e+01
4.375000e+01
5.000000e+01
5.625000e+01
6.250000e+01
6.875000e+01
7.500000e+01
8.125000e+01
8.750000e+01
9.375000e+01
1.000000e+02
1.062500e+02
1.125000e+02
1.187500e+02
1.250000e+02
1.312500e+02
1.375000e+02
1.437500e+02
1.500000e+02
1.562500e+02
1.625000e+02
1.687500e+02
1.750000e+02
1.812500e+02
1.875000e+02
1.937500e+02
2.000000e+02
0.000000e+00
6.250000e+00
1.250000e+01
1.875000e+01
2.500000e+01
3.125000e+01
3.750000e+01
4.375000e+01
5.000000e+01
5.625000e+01
6.250000e+01
6.875000e+01
7.500000e+01
8.125000e+01
8.750000e+01
9.375000e+01
1.000000e+02
1.062500e+02
1.125000e+02
1.187500e+02
1.250000e+02
1.312500e+02
1.375000e+02
1.437500e+02
1.500000e+02
1.562500e+02
1.625000e+02
1.687500e+02
1.750000e+02
1.812500e+02
1.875000e+02
1.937500e+02
2.000000e+02
0.000000e+00
6.250000e+00
1.250000e+01
1.875000e+01
2.500000e+01
3.125000e+01
3.750000e+01
4.375000e+01
5.000000e+01
5.625000e+01
6.250000e+01
6.875000e+01
7.500000e+01
8.125000e+01
8.750000e+01
9.375000e+01
1.000000e+02
1.062500e+02
1.125000e+02
1.187500e+02
1.250000e+02
1.312500e+02
1.375000e+02
1.437500e+02
1.500000e+02
1.562500e+02
1.625000e+02
1.687500e+02
1.750000e+02
1.812500e+02
1.875000e+02
1.937500e+02
2.000000e+02
0.000000e+00
6.250000e+00
1.250000e+01
1.875000e+01
2.500000e+01
3.125000e+01
3.750000e+01
4.375000e+01
5.000000e+01
5.625000e+01
6.250000e+01
6.875000e+01
7.500000e+01
8.125000e+01
8.750000e+01
9.375000e+01
1.000000e+02
1.062500e+02
1.125000e+02
1.187500e+02
1.250000e+02
1.312500e+02
1.375000e+02
1.437500e+02
1.500000e+02
1.562500e+02
1.625000e+02
1.687500e+02
1.750000e+02
1.812500e+02
1.875000e+02
1.937500e+02
2.000000e+02
0.000000e+00
6.250000e+00
1.250000e+01
1.875000e+01
2.500000e+01
3.125000e+01
3.750000e+01
4.375000e+01
5.000000e+01
5.625000e+01
6.250000e+01
6.875000e+01
7.500000e+01
8.125000e+01
8.750000e+01
9.375000e+01
1.000000e+02
1.062500e+02
1.125000e+02
1.187500e+02
1.250000e+02
1.312500e+02
1.375000e+02
1.437500e+02
1.500000e+02
1.562500e+02
1.625000e+02
1.687500e+02
1.750000e+02
1.812500e+02
1.875000e+02
1.937500e+02
2.000000e+02
0.000000e+00
6.250000e+00
1.250000e+01
1.875000e+01
2.500000e+01
3.125000e+01
3.750000e+01
4.375000e+01
5.000000e+01
5.625000e+01
6.250000e+01
6.875000e+01
7.500000e+01
8.125000e+01
8.750000e+01
9.375000e+01
1.000000e+02
1.062500e+02
1.125000e+02
1.187500e+02
1.250000e+02
1.312500e+02
1.375000e+02
1.437500e+02
1.500000e+02
1.562500e+02
1.625000e+02
1.687500e+02
1.750000e+02
1.812500e+02
1.875000e+02
1.937500e+02
2.000000e+02
0.000000e+00
0.000000e+00
0.000000e+00
0.000000e+00
0.000000e+00
0.000000e+00
0.000000e+00
0.000000e+00
0.000000e+00
0.000000e+00
0.000000e+00
0.000000e+00
0.000000e+00
0.000000e+00
0.000000e+00
0.000000e+00
0.000000e+00
0.000000e+00
0.000000e+00
0.000000e+00
0.000000e+00
0.000000e+00
0.000000e+00
0.000000e+00
0.000000e+00
0.000000e+00
0.000000e+00
0.000000e+00
0.000000e+00
0.000000e+00
0.000000e+00
0.000000e+00
0.000000e+00
6.250000e+00
6.250000e+00
6.250000e+00
6.250000e+00
6.250000e+00
6.250000e+00
6.250000e+00
6.250000e+00
6.250000e+00
6.250000e+00
6.250000e+00
6.250000e+00
6.250000e+00
6.250000e+00
6.250000e+00
6.250000e+00
6.250000e+00
6.250000e+00
6.250000e+00
6.250000e+00
6.250000e+00
6.250000e+00
6.250000e+00
6.250000e+00
6.250000e+00
6.250000e+00
6.250000e+00
6.250000e+00
6.250000e+00
6.250000e+00
6.250000e+00
6.250000e+00
6.250000e+00
1.250000e+01
1.250000e+01
1.250000e+01
1.250000e+01
1.250000e+01
1.250000e+01
1.250000e+01
1.250000e+01
1.250000e+01
1.250000e+01
1.250000e+01
1.250000e+01
1.250000e+01
1.250000e+01
1.250000e+01
1.250000e+01
1.250000e+01
1.250000e+01
1.250000e+01
1.250000e+01
1.250000e+01
1.250000e+01
1.250000e+01
1.250000e+01
1.250000e+01
1.250000e+01
1.250000e+01
1.250000e+01
1.250000e+01
1.250000e+01
1.250000e+01
1.250000e+01
1.250000e+01
1.875000e+01
1.875000e+01
1.875000e+01
1.875000e+01
1.875000e+01
1.875000e+01
1.875000e+01
1.875000e+01
1.875000e+01
1.875000e+01
1.875000e+01
1.875000e+01
1.875000e+01
1.875000e+01
1.875000e+01
1.875000e+01
1.875000e+01
1.875000e+01
1.875000e+01
1.875000e+01
1.875000e+01
1.875000e+01
1.875000e+01
1.875000e+01
1.875000e+01
1.875000e+01
1.875000e+01
1.875000e+01
1.875000e+01
1.875000e+01
1.875000e+01
1.875000e+01
1.875000e+01
2.500000e+01
2.500000e+01
2.500000e+01
2.500000e+01
2.500000e+01
2.500000e+01
2.500000e+01
2.500000e+01
2.500000e+01
2.500000e+01
2.500000e+01
2.500000e+01
2.500000e+01
2.500000e+01
2.500000e+01
2.500000e+01
2.500000e+01
2.500000e+01
2.500000e+01
2.500000e+01
2.500000e+01
2.500000e+01
2.500000e+01
2.500000e+01
2.500000e+01
2.500000e+01
2.500000e+01
2.500000e+01
2.500000e+01
2.500000e+01
2.500000e+01
2.500000e+01
2.500000e+01
3.125000e+01
3.125000e+01
3.125000e+01
3.125000e+01
3.125000e+01
3.125000e+01
3.125000e+01
3.125000e+01
3.125000e+01
3.125000e+01
3.125000e+01
3.125000e+01
3.125000e+01
3.125000e+01
3.125000e+01
3.125000e+01
3.125000e+01
3.125000e+01
3.125000e+01
3.125000e+01
3.125000e+01
3.125000e+01
3.125000e+01
3.125000e+01
3.125000e+01
3.125000e+01
3.125000e+01
3.125000e+01
3.125000e+01
3.125000e+01
3.125000e+01
3.125000e+01
3.125000e+01
3.750000e+01
3.750000e+01
3.750000e+01
3.750000e+01
3.750000e+01
3.750000e+01
3.750000e+01
3.750000e+01
3.750000e+01
3.750000e+01
3.750000e+01
3.750000e+01
3.750000e+01
3.750000e+01
3.750000e+01
3.750000e+01
3.750000e+01
3.750000e+01
3.750000e+01
3.750000e+01
3.750000e+01
3.750000e+01
3.750000e+01
3.750000e+01
3.750000e+01
3.750000e+01
3.750000e+01
3.750000e+01
3.750000e+01
3.750000e+01
3.750000e+01
3.750000e+01
3.750000e+01
4.375000e+01
4.375000e+01
4.375000e+01
4.375000e+01
4.375000e+01
4.375000e+01
4.375000e+01
4.375000e+01
4.375000e+01
4.375000e+01
4.375000e+01
4.375000e+01
4.375000e+01
4.375000e+01
4.375000e+01
4.375000e+01
4.375000e+01
4.375000e+01
4.375000e+01
4.375000e+01
4.375000e+01
4.375000e+01
4.375000e+01
4.375000e+01
4.375000e+01
4.375000e+01
4.375000e+01
4.375000e+01
4.375000e+01
4.375000e+01
4.375000e+01
4.375000e+01
4.375000e+01
5.000000e+01
5.000000e+01
5.000000e+01
5.000000e+01
5.000000e+01
5.000000e+01
5.000000e+01
5.000000e+01
5.000000e+01
5.000000e+01
5.000000e+01
5.000000e+01
5.000000e+01
5.000000e+01
5.000000e+01
5.000000e+01
5.000000e+01
5.000000e+01
5.000000e+01
5.000000e+01
5.000000e+01
5.000000e+01
5.000000e+01
5.000000e+01
5.000000e+01
5.000000e+01
5.000000e+01
5.000000e+01
5.000000e+01
5.000000e+01
5.000000e+01
5.000000e+01
5.000000e+01
5.625000e+01
5.625000e+01
5.625000e+01
5.625000e+01
5.625000e+01
5.625000e+01
5.625000e+01
5.625000e+01
5.625000e+01
5.625000e+01
5.625000e+01
5.625000e+01
5.625000e+01
5.625000e+01
5.625000e+01
5.625000e+01
5.625000e+01
5.625000e+01
5.625000e+01
5.625000e+01
5.625000e+01
5.625000e+01
5.625000e+01
5.625000e+01
5.625000e+01
5.625000e+01
5.625000e+01
5.625000e+01
5.625000e+01
5.625000e+01
5.625000e+01
5.625000e+01
5.625000e+01
6.250000e+01
6.250000e+01
6.250000e+01
6.250000e+01
6.250000e+01
6.250000e+01
6.250000e+01
6.250000e+01
6.250000e+01
6.250000e+01
6.250000e+01
6.250000e+01
6.250000e+01
6.250000e+01
6.250000e+01
6.250000e+01
6.250000e+01
6.250000e+01
6.250000e+01
6.250000e+01
6.250000e+01
6.250000e+01
6.250000e+01
6.250000e+01
6.250000e+01
6.250000e+01
6.250000e+01
6.250000e+01
6.250000e+01
6.250000e+01
6.250000e+01
6.250000e+01
6.250000e+01
6.875000e+01
6.875000e+01
6.875000e+01
6.875000e+01
6.875000e+01
6.875000e+01
6.875000e+01
6.875000e+01
6.875000e+01
6.875000e+01
6.875000e+01
6.875000e+01
6.875000e+01
6.875000e+01
6.875000e+01
6.875000e+01
6.875000e+01
6.875000e+01
6.875000e+01
6.875000e+01
6.875000e+01
6.875000e+01
6.875000e+01
6.875000e+01
6.875000e+01
6.875000e+01
6.875000e+01
6.875000e+01
6.875000e+01
6.875000e+01
6.875000e+01
6.875000e+01
6.875000e+01
7.500000e+01
7.500000e+01
7.500000e+01
7.500000e+01
7.500000e+01
7.500000e+01
7.500000e+01
7.500000e+01
7.500000e+01
7.500000e+01
7.500000e+01
7.500000e+01
7.500000e+01
7.500000e+01
7.500000e+01
7.500000e+01
7.500000e+01
7.500000e+01
7.500000e+01
7.500000e+01
7.500000e+01
7.500000e+01
7.500000e+01
7.500000e+01
7.500000e+01
7.500000e+01
7.500000e+01
7.500000e+01
7.500000e+01
7.500000e+01
7.500000e+01
7.500000e+01
7.500000e+01
8.125000e+01
8.125000e+01
8.125000e+01
8.125000e+01
8.125000e+01
8.125000e+01
8.125000e+01
8.125000e+01
8.125000e+01
8.125000e+01
8.125000e+01
8.125000e+01
8.125000e+01
8.125000e+01
8.125000e+01
8.125000e+01
8.125000e+01
8.125000e+01
8.125000e+01
8.125000e+01
8.125000e+01
8.125000e+01
8.125000e+01
8.125000e+01
8.125000e+01
8.125000e+01
8.125000e+01
8.125000e+01
8.125000e+01
8.125000e+01
8.125000e+01
8.125000e+01
8.125000e+01
8.750000e+01
8.750000e+01
8.750000e+01
8.750000e+01
8.750000e+01
8.750000e+01
8.750000e+01
8.750000e+01
8.750000e+01
8.750000e+01
8.750000e+01
8.750000e+01
8.750000e+01
8.750000e+01
8.750000e+01
8.750000e+01
8.750000e+01
8.750000e+01
8.750000e+01
8.750000e+01
8.750000e+01
8.750000e+01
8.750000e+01
8.750000e+01
8.750000e+01
8.750000e+01
8.750000e+01
8.750000e+01
8.750000e+01
8.750000e+01
8.750000e+01
8.750000e+01
8.750000e+01
9.375000e+01
9.375000e+01
9.375000e+01
9.375000e+01
9.375000e+01
9.375000e+01
9.375000e+01
9.375000e+01
9.375000e+01
9.375000e+01
9.375000e+01
9.375000e+01
9.375000e+01
9.375000e+01
9.375000e+01
9.375000e+01
9.375000e+01
9.375000e+01
9.375000e+01
9.375000e+01
9.375000e+01
9.375000e+01
9.375000e+01
9.375000e+01
9.375000e+01
9.375000e+01
9.375000e+01
9.375000e+01
9.375000e+01
9.375000e+01
9.375000e+01
9.375000e+01
9.375000e+01
1.000000e+02
1.000000e+02
1.000000e+02
1.000000e+02
1.000000e+02
1.000000e+02
1.000000e+02
1.000000e+02
1.000000e+02
1.000000e+02
1.000000e+02
1.000000e+02
1.000000e+02
1.000000e+02
1.000000e+02
1.000000e+02
1.000000e+02
1.000000e+02
1.000000e+02
1.000000e+02
1.000000e+02
1.000000e+02
1.000000e+02
1.000000e+02
1.000000e+02
1.000000e+02
1.000000e+02
1.000000e+02
1.000000e+02
1.000000e+02
1.000000e+02
1.000000e+02
1.000000e+02
0.000000e+00
-3.977762e-02
-7.217120e-02
-1.021793e-01
-1.309786e-01
-1.587887e-01
-1.856654e-01
-2.116064e-01
-2.365952e-01
-2.606138e-01
-2.836471e-01
-3.056847e-01
-3.267212e-01
-3.467562e-01
-3.657944e-01
-3.838457e-01
-4.009265e-01
-4.170601e-01
-4.322789e-01
-4.466269e-01
-4.601623e-01
-4.729623e-01
-4.851287e-01
-4.967971e-01
-5.081484e-01
-5.194292e-01
-5.309814e-01
-5.432929e-01
-5.570793e-01
-5.733939e-01
-5.936028e-01
-6.176862e-01
-6.323840e-01
0.000000e+00
-2.666982e-02
-5.548943e-02
-8.266252e-02
-1.084895e-01
-1.332162e-01
-1.569734e-01
-1.798183e-01
-2.017735e-01
-2.228466e-01
-2.430388e-01
-2.623502e-01
-2.807817e-01
-2.983364e-01
-3.150200e-01
-3.308418e-01
-3.458153e-01
-3.599589e-01
-3.732972e-01
-3.858621e-01
-3.976941e-01
-4.088443e-01
-4.193764e-01
-4.293680e-01
-4.389119e-01
-4.481151e-01
-4.570903e-01
-4.659303e-01
-4.746345e-01
-4.829198e-01
-4.898237e-01
-4.938600e-01
-4.994793e-01
0.000000e+00
-2.115457e-02
-4.355177e-02
-6.635568e-02
-8.851402e-02
-1.098558e-01
-1.303673e-01
-1.500681e-01
-1.689755e-01
-1.871014e-01
-2.044537e-01
-2.210376e-01
-2.368577e-01
-2.519188e-01
-2.662264e-01
-2.797874e-01
-2.926107e-01
-3.047073e-01
-3.160909e-01
-3.267775e-01
-3.367861e-01
-3.461367e-01
-3.548493e-01
-3.629394e-01
-3.704101e-01
-3.772376e-01
-3.833436e-01
-3.885485e-01
-3.925003e-01
-3.946282e-01
-3.944416e-01
-3.932467e-01
-3.998085e-01
0.000000e+00
-1.678427e-02
-3.449551e-02
-5.269159e-02
-7.084503e-02
-8.855875e-02
-1.056811e-01
-1.221575e-01
-1.379735e-01
-1.531282e-01
-1.676256e-01
-1.814707e-01
-1.946679e-01
-2.072215e-01
-2.191352e-01
-2.304123e-01
-2.410560e-01
-2.510690e-01
-2.604532e-01
-2.692094e-01
-2.773351e-01
-2.848230e-01
-2.916565e-01
-2.978038e-01
-3.032081e-01
-3.077740e-01
-3.113503e-01
-3.137187e-01
-3.146230e-01
-3.139517e-01
-3.123213e-01
-3.122239e-01
-3.184757e-01
0.000000e+00
-1.302694e-02
-2.667473e-02
-4.075850e-02
-5.495667e-02
-6.898071e-02
-8.263711e-02
-9.582789e-02
-1.085085e-01
-1.206619e-01
-1.322835e-01
-1.433739e-01
-1.539353e-01
-1.639693e-01
-1.734768e-01
-1.824567e-01
-1.909064e-01
-1.988207e-01
-2.061914e-01
-2.130062e-01
-2.192469e-01
-2.248866e-01
-2.298868e-01
-2.341927e-01
-2.377281e-01
-2.403929e-01
-2.420699e-01
-2.426581e-01
-2.421755e-01
-2.409947e-01
-2.402286e-01
-2.419977e-01
-2.473307e-01
0.000000e+00
-9.574043e-03
-1.955827e-02
-2.986327e-02
-4.031096e-02
-5.070634e-02
-6.089457e-02
-7.077501e-02
-8.029243e-02
-8.941996e-02
-9.814628e-02
-1.064674e-01
-1.143819e-01
-1.218883e-01
-1.289838e-01
-1.356634e-01
-1.419192e-01
-1.477396e-01
-1.531090e-01
-1.580064e-01
-1.624042e-01
-1.662666e-01
-1.695486e-01
-1.721952e-01
-1.741434e-01
-1.753322e-01
-1.757266e-01
-1.753727e-01
-1.745003e-01
-1.736703e-01
-1.738724e-01
-1.761277e-01
-1.805404e-01
0.000000e+00
-6.300871e-03
-1.285097e-02
-1.960886e-02
-2.647816e-02
-3.334326e-02
-4.010062e-02
-4.667478e-02
-5.301850e-02
-5.910573e-02
-6.492330e-02
-7.046459e-02
-7.572535e-02
-8.070121e-02
-8.538616e-02
-8.977163e-02
-9.384580e-02
-9.759300e-02
-1.009931e-01
-1.040211e-01
-1.066466e-01
-1.088339e-01
-1.105434e-01
-1.117346e-01
-1.123747e-01
-1.124541e-01
-1.120164e-01
-1.112066e-01
-1.103328e-01
-1.099092e-01
-1.105701e-01
-1.127658e-01
-1.163278e-01
0.000000e+00
-3.129641e-03
-6.377600e-03
-9.727184e-03
-1.313609e-02
-1.655046e-02
-1.991917e-02
-2.320218e-02
-2.637247e-02
-2.941351e-02
-3.231553e-02
-3.507204e-02
-3.767741e-02
-4.012517e-02
-4.240699e-02
-4.451191e-02
-4.642580e-02
-4.813100e-02
-4.960606e-02
-5.082588e-02
-5.176225e-02
-5.238553e-02
-5.266787e-02
-5.258934e-02
-5.214839e-02
-5.137868e-02
-5.037334e-02
-4.931405e-02
-4.849173e-02
-4.828574e-02
-4.906112e-02
-5.097658e-02
-5.380296e-02
0.000000e+00
-5.049361e-06
-1.094846e-05
-1.737048e-05
-2.397765e-05
-3.031447e-05
-3.569455e-05
-3.907478e-05
-3.890842e-05
-3.296827e-05
-1.813304e-05
9.866503e-06
5.674155e-05
1.299728e-04
2.391556e-04
3.963337e-04
6.162683e-04
9.165610e-04
1.317496e-03
1.841406e-03
2.511249e-03
3.347981e-03
4.366117e-03
5.566761e-03
6.927422e-03
8.388496e-03
9.838121e-03
1.110108e-02
1.194416e-02
1.211513e-02
1.142672e-02
9.867685e-03
7.684174e-03
0.000000e+00
3.120130e-03
6.356937e-03
9.694334e-03
1.309064e-02
1.649284e-02
1.985106e-02
2.312723e-02
2.629720e-02
2.934862e-02
3.227755e-02
3.508553e-02
3.777766e-02
4.036156e-02
4.284700e-02
4.524579e-02
4.757178e-02
4.984076e-02
5.207004e-02
5.427743e-02
5.647943e-02
5.868816e-02
6.090676e-02
6.312292e-02
6.530063e-02
6.737114e-02
6.922609e-02
7.071803e-02
7.167665e-02
7.194804e-02
7.145652e-02
7.027220e-02
6.865160e-02
0.000000e+00
6.293102e-03
1.283397e-02
1.958164e-02
2.644021e-02
3.329470e-02
4.004256e-02
4.660986e-02
5.295167e-02
5.904528e-02
6.488223e-02
7.046241e-02
7.579032e-02
8.087315e-02
8.571981e-02
9.034063e-02
9.474717e-02
9.895201e-02
1.029682e-01
1.068081e-01
1.104819e-01
1.139939e-01
1.173397e-01
1.204997e-01
1.234343e-01
1.260784e-01
1.283401e-01
1.301066e-01
1.312628e-01
1.317250e-01
1.314873e-01
1.306678e-01
1.295368e-01
0.000000e+00
9.569087e-03
1.954723e-02
2.984529e-02
4.028543e-02
5.067302e-02
6.085379e-02
7.072808e-02
8.024205e-02
8.937096e-02
9.810648e-02
1.064488e-01
1.144021e-01
1.219728e-01
1.291677e-01
1.359947e-01
1.424618e-01
1.485771e-01
1.543486e-01
1.597827e-01
1.648835e-01
1.696497e-01
1.740720e-01
1.781296e-01
1.817866e-01
1.849899e-01
1.876706e-01
1.897510e-01
1.911618e-01
1.918688e-01
1.919085e-01
1.914278e-01
1.907130e-01
0.000000e+00
1.302571e-02
2.667165e-02
4.075298e-02
5.494816e-02
6.896870e-02
8.262130e-02
9.580825e-02
1.084854e-01
1.206364e-01
1.322575e-01
1.433509e-01
1.539204e-01
1.639705e-01
1.735055e-01
1.825293e-01
1.910451e-01
1.990559e-01
2.065635e-01
2.135684e-01
2.200684e-01
2.260574e-01
2.315241e-01
2.364495e-01
2.408060e-01
2.445569e-01
2.476593e-01
2.500705e-01
2.517603e-01
2.527312e-01
2.530461e-01
2.528656e-01
2.524890e-01
0.000000e+00
1.678739e-02
3.450185e-02
5.270102e-02
7.085729e-02
8.857348e-02
1.056978e-01
1.221754e-01
1.379911e-01
1.531434e-01
1.676352e-01
1.814697e-01
1.946495e-01
2.071762e-01
2.190498e-01
2.302695e-01
2.408332e-01
2.507374e-01
2.599771e-01
2.685459e-01
2.764351e-01
2.836337e-01
2.901281e-01
2.959018e-01
3.009364e-01
3.052131e-01
3.087158e-01
3.114367e-01
3.133840e-01
3.145941e-01
3.151508e-01
3.152171e-01
3.150922e-01
0.000000e+00
2.116218e-02
4.356802e-02
6.638112e-02
8.854914e-02
1.099010e-01
1.304227e-01
1.501330e-01
1.690481e-01
1.871780e-01
2.045277e-01
2.210983e-01
2.368889e-01
2.518965e-01
2.661164e-01
2.795420e-01
2.921653e-01
3.039757e-01
3.149610e-01
3.251064e-01
3.343952e-01
3.428095e-01
3.503308e-01
3.569425e-01
3.626319e-01
3.673947e-01
3.712395e-01
3.741934e-01
3.763075e-01
3.776615e-01
3.783702e-01
3.786010e-01
3.786286e-01
0.000000e+00
2.668125e-02
5.551440e-02
8.270268e-02
1.085468e-01
1.332927e-01
1.570707e-01
1.799372e-01
2.019137e-01
2.230052e-01
2.432093e-01
2.625205e-01
2.809314e-01
2.984337e-01
3.150174e-01
3.306707e-01
3.453794e-01
3.591260e-01
3.718901e-01
3.836474e-01
3.943709e-01
4.040318e-01
4.126014e-01
4.200552e-01
4.263777e-01
4.315694e-01
4.356546e-01
4.386910e-01
4.407768e-01
4.420549e-01
4.427078e-01
4.429446e-01
4.430026e-01
0.000000e+00
3.979013e-02
7.220039e-02
1.022293e-01
1.310534e-01
1.588924e-01
1.858023e-01
2.117804e-01
2.368097e-01
2.608699e-01
2.839427e-01
3.060119e-01
3.270634e-01
3.470837e-01
3.660590e-01
3.839732e-01
4.008074e-01
4.165382e-01
4.311367e-01
4.445684e-01
4.567928e-01
4.677650e-01
4.774379e-01
4.857670e-01
4.927181e-01
4.982771e-01
5.024638e-01
5.053480e-01
5.070671e-01
5.078417e-01
5.079825e-01
5.078659e-01
5.078003e-01
0.000000e+00
-2.458181e-02
-4.290056e-02
-6.289073e-02
-8.515097e-02
-1.102961e-01
-1.385010e-01
-1.698145e-01
-2.042055e-01
-2.416003e-01
-2.818998e-01
-3.249899e-01
-3.707477e-01
-4.190452e-01
-4.697516e-01
-5.227356e-01
-5.778664e-01
-6.350154e-01
-6.940585e-01
-7.548789e-01
-8.173707e-01
-8.814449e-01
-9.470377e-01
-1.014124e+00
-1.082737e+00
-1.153004e+00
-1.225204e+00
-1.299883e+00
-1.378082e+00
-1.461867e+00
-1.555690e+00
-1.670060e+00
-1.828066e+00
0.000000e+00
-1.527666e-02
-3.445156e-02
-5.457658e-02
-7.714709e-02
-1.025654e-01
-1.310443e-01
-1.626319e-01
-1.972997e-01
-2.349740e-01
-2.755552e-01
-3.189282e-01
-3.649691e-01
-4.135488e-01
-4.645353e-01
-5.177960e-01
-5.731984e-01
-6.306121e-01
-6.899106e-01
-7.509741e-01
-8.136930e-01
-8.779737e-01
-9.437468e-01
-1.010980e+00
-1.079696e+00
-1.150013e+00
-1.222193e+00
-1.296766e+00
-1.374752e+00
-1.458181e+00
-1.551280e+00
-1.663104e+00
-1.810722e+00
0.000000e+00
-1.122159e-02
-2.777468e-02
-4.762517e-02
-7.023511e-02
-9.584076e-02
-1.245444e-01
-1.563728e-01
-1.912875e-01
-2.292114e-01
-2.700431e-01
-3.136668e-01
-3.599579e-01
-4.087868e-01
-4.600212e-01
-5.135277e-01
-5.691734e-01
-6.268272e-01
-6.863615e-01
-7.476557e-01
-8.105992e-01
-8.750977e-01
-9.410815e-01
-1.008519e+00
-1.077437e+00
-1.147958e+00
-1.220359e+00
-1.295180e+00
-1.373431e+00
-1.456938e+00
-1.548825e+00
-1.652783e+00
-1.768102e+00
0.000000e+00
-8.985769e-03
-2.351955e-02
-4.231151e-02
-6.463088e-02
-9.022858e-02
-1.190550e-01
-1.510617e-01
-1.861796e-01
-2.243174e-01
-2.653672e-01
-3.092105e-01
-3.557214e-01
-4.047702e-01
-4.562248e-01
-5.099521e-01
-5.658195e-01
-6.236964e-01
-6.834561e-01
-7.449788e-01
-8.081555e-01
-8.728941e-01
-9.391283e-01
-1.006832e+00
-1.076038e+00
-1.146875e+00
-1.219617e+00
-1.294762e+00
-1.373136e+00
-1.455943e+00
-1.544336e+00
-1.637563e+00
-1.724347e+00
0.000000e+00
-7.603438e-03
-2.073685e-02
-3.853818e-02
-6.034877e-02
-8.577863e-02
-1.146159e-01
-1.467266e-01
-1.819946e-01
-2.203046e-01
-2.615369e-01
-3.055672e-01
-3.522677e-01
-4.015081e-01
-4.531568e-01
-5.070817e-01
-5.631514e-01
-6.212370e-01
-6.812134e-01
-7.429627e-01
-8.063786e-01
-8.713715e-01
-9.378781e-01
-1.005874e+00
-1.075389e+00
-1.146538e+00
-1.219542e+00
-1.294760e+00
-1.372669e+00
-1.453648e+00
-1.537313e+00
-1.620592e+00
-1.696172e+00
0.000000e+00
-6.723848e-03
-1.891105e-02
-3.594154e-02
-5.726116e-02
-8.245282e-02
-1.112274e-01
-1.433792e-01
-1.787459e-01
-2.171850e-01
-2.585619e-01
-3.027449e-01
-3.496031e-01
-3.990056e-01
-4.508215e-01
-5.049199e-01
-5.611714e-01
-6.194486e-01
-6.796286e-01
-7.415956e-01
-8.052444e-01
-8.704862e-01
-9.372558e-01
-1.005521e+00
-1.075293e+00
-1.146641e+00
-1.219689e+00
-1.294595e+00
-1.371446e+00
-1.449983e+00
-1.529009e+00
-1.605701e+00
-1.675797e+00
0.000000e+00
-6.177193e-03
-1.775669e-02
-3.425367e-02
-5.519270e-02
-8.016727e-02
-1.088564e-01
-1.410122e-01
-1.764373e-01
-2.149658e-01
-2.564492e-01
-3.007488e-01
-3.477308e-01
-3.972636e-01
-4.492170e-01
-5.034617e-01
-5.598699e-01
-6.183162e-01
-6.786790e-01
-7.408431e-01
-8.047025e-01
-8.701650e-01
-9.371563e-01
-1.005626e+00
-1.075551e+00
-1.146931e+00
-1.219774e+00
-1.294038e+00
-1.369508e+00
-1.445571e+00
-1.520909e+00
-1.593352e+00
-1.660238e+00
0.000000e+00
-5.876799e-03
-1.711616e-02
-3.330252e-02
-5.400661e-02
-7.883596e-02
-1.074593e-01
-1.396080e-01
-1.750646e-01
-2.136484e-01
-2.552016e-01
-2.995808e-01
-3.466502e-01
-3.962783e-01
-4.483358e-01
-5.026949e-01
-5.592293e-01
-6.178147e-01
-6.783298e-01
-7.406584e-01
-8.046906e-01
-8.703260e-01
-9.374753e-01
-1.006061e+00
-1.076014e+00
-1.147263e+00
-1.219703e+00
-1.293136e+00
-1.367170e+00
-1.441077e+00
-1.513670e+00
-1.583316e+00
-1.648198e+00
0.000000e+00
-5.780012e-03
-1.690951e-02
-3.299424e-02
-5.362005e-02
-7.840024e-02
-1.070016e-01
-1.391498e-01
-1.746214e-01
-2.132309e-01
-2.548182e-01
-2.992387e-01
-3.463569e-01
-3.960420e-01
-4.481661e-01
-5.026027e-01
-5.592265e-01
-6.179135e-01
-6.785417e-01
-7.409916e-01
-8.051468e-01
-8.708952e-01
-9.381277e-01
-1.006735e+00
-1.076603e+00
-1.147591e+00
-1.219506e+00
-1.292054e+00
-1.364764e+00
-1.436920e+00
-1.507518e+00
-1.575312e+00
-1.638971e+00
0.000000e+00
-5.873999e-03
-1.711227e-02
-3.329918e-02
-5.400560e-02
-7.883951e-02
-1.074703e-01
-1.396304e-01
-1.751036e-01
-2.137106e-01
-2.552958e-01
-2.997179e-01
-3.468437e-01
-3.965445e-01
-4.486937e-01
-5.031660e-01
-5.598367e-01
-6.185814e-01
-6.792759e-01
-7.417961e-01
-8.060175e-01
-8.718138e-01
-9.390546e-01
-1.007600e+00
-1.077291e+00
-1.147936e+00
-1.219279e+00
-1.290975e+00
-1.362539e+00
-1.433321e+00
-1.502493e+00
-1.569090e+00
-1.632095e+00
0.000000e+00
-6.171821e-03
-1.774923e-02
-3.424722e-02
-5.519067e-02
-8.017394e-02
-1.088774e-01
-1.410549e-01
-1.765118e-01
-2.150848e-01
-2.566296e-01
-3.010115e-01
-3.481017e-01
-3.977740e-01
-4.499036e-01
-5.043659e-01
-5.610363e-01
-6.197893e-01
-6.804981e-01
-7.430331e-01
-8.072608e-01
-8.730407e-01
-9.402217e-01
-1.008636e+00
-1.078090e+00
-1.148350e+00
-1.219125e+00
-1.290050e+00
-1.360659e+00
-1.430383e+00
-1.498552e+00
-1.564422e+00
-1.627213e+00
0.000000e+00
-6.716381e-03
-1.890068e-02
-3.593253e-02
-5.725825e-02
-8.246195e-02
-1.112564e-01
-1.434386e-01
-1.788496e-01
-2.173510e-01
-2.588136e-01
-3.031117e-01
-3.501215e-01
-3.997195e-01
-4.517822e-01
-5.061859e-01
-5.628054e-01
-6.215140e-01
-6.821817e-01
-7.446736e-01
-8.088476e-01
-8.745503e-01
-9.416130e-01
-1.009845e+00
-1.079024e+00
-1.148891e+00
-1.219135e+00
-1.289387e+00
-1.359215e+00
-1.428133e+00
-1.495610e+00
-1.561093e+00
-1.624013e+00
0.000000e+00
-7.594642e-03
-2.072465e-02
-3.852757e-02
-6.034539e-02
-8.578969e-02
-1.146509e-01
-1.467982e-01
-1.821197e-01
-2.205051e-01
-2.618411e-01
-3.060107e-01
-3.528946e-01
-4.023717e-01
-4.543194e-01
-5.086140e-01
-5.651301e-01
-6.237393e-01
-6.843088e-01
-7.466991e-01
-8.107606e-01
-8.763297e-01
-9.432238e-01
-1.011235e+00
-1.080122e+00
-1.149609e+00
-1.219373e+00
-1.289052e+00
-1.358251e+00
-1.426554e+00
-1.493556e+00
-1.558882e+00
-1.622182e+00
0.000000e+00
-8.976728e-03
-2.350703e-02
-4.230072e-02
-6.462798e-02
-9.024155e-02
-1.190945e-01
-1.511417e-01
-1.863187e-01
-2.245400e-01
-2.657045e-01
-3.097017e-01
-3.564152e-01
-4.057252e-01
-4.575097e-01
-5.116448e-01
-5.680042e-01
-6.264582e-01
-6.868718e-01
-7.491018e-01
-8.129933e-01
-8.783755e-01
-9.450561e-01
-1.012816e+00
-1.081403e+00
-1.150529e+00
-1.219869e+00
-1.289071e+00
-1.357764e+00
-1.425596e+00
-1.492265e+00
-1.557562e+00
-1.621384e+00
0.000000e+00
-1.121371e-02
-2.776371e-02
-4.761606e-02
-7.023424e-02
-9.585655e-02
-1.245880e-01
-1.564588e-01
-1.914353e-01
-2.294462e-01
-2.703972e-01
-3.141806e-01
-3.606814e-01
-4.097801e-01
-4.613546e-01
-5.152804e-01
-5.714307e-01
-6.296744e-01
-6.898747e-01
-7.518862e-01
-8.155507e-01
-8.806930e-01
-9.471155e-01
-1.014593e+00
-1.082869e+00
-1.151651e+00
-1.220616e+00
-1.289418e+00
-1.357709e+00
-1.425176e+00
-1.491595e+00
-1.556899e+00
-1.621244e+00
0.000000e+00
-1.527159e-02
-3.444410e-02
-5.457122e-02
-7.715040e-02
-1.025860e-01
-1.310934e-01
-1.627243e-01
-1.974546e-01
-2.352164e-01
-2.759168e-01
-3.194489e-01
-3.656975e-01
-4.145431e-01
-4.658630e-01
-5.195322e-01
-5.754230e-01
-6.334033e-01
-6.933350e-01
-7.550709e-01
-8.184510e-01
-8.832984e-01
-9.494136e-01
-1.016570e+00
-1.084512e+00
-1.152948e+00
-1.221561e+00
-1.290014e+00
-1.357975e+00
-1.425157e+00
-1.491377e+00
-1.556659e+00
-1.621363e+00
0.000000e+00
-2.458109e-02
-4.289807e-02
-6.289120e-02
-8.516101e-02
-1.103244e-01
-1.385587e-01
-1.699162e-01
-2.043702e-01
-2.418522e-01
-2.822695e-01
-3.255153e-01
-3.714746e-01
-4.200278e-01
-4.710517e-01
-5.244207e-01
-5.800059e-01
-6.376741e-01
-6.972855e-01
-7.586916e-01
-8.217309e-01
-8.862252e-01
-9.519752e-01