TITLE = "Solution"
VARIABLES = x, y, u, v, psiu, psiv, t, stress
ZONE T="structure" N=561 E=512 F=FEBLOCK ET=QUADRILATERAL VARLOCATION=([7,8]=cellcentered)
0.000000e+00
6.250000e+00
1.250000e+01
1.875000e+01
2.500000e+01
3.125000e+01
3.750000e+01
4.375000e+01
5.000000e+01
5.625000e+01
6.250000e+01
6.875000e+01
7.500000e+01
8.125000e+01
8.750000e+01
9.375000e+01
1.000000e+02
1.062500e+02
1.125000e+02
1.187500e+02
1.250000e+02
1.312500e+02
1.375000e+02
1.437500e+02
1.500000e+02
1.562500e+02
1.625000e+02
1.687500e+02
1.750000e+02
1.812500e+02
1.875000e+02
1.937500e+02
2.000000e+02
0.000000e+00
6.250000e+00
1.250000e+01
1.875000e+01
2.500000e+01
3.125000e+01
3.750000e+01
4.375000e+01
5.000000e+01
5.625000e+01
6.250000e+01
6.875000e+01
7.500000e+01
8.125000e+01
8.750000e+01
9.375000e+01
1.000000e+02
1.062500e+02
1.125000e+02
1.187500e+02
1.250000e+02
1.312500e+02
1.375000e+02
1.437500e+02
1.500000e+02
1.562500e+02
1.625000e+02
1.687500e+02
1.750000e+02
1.812500e+02
1.875000e+02
1.937500e+02
2.000000e+02
0.000000e+00
6.250000e+00
1.250000e+01
1.875000e+01
2.500000e+01
3.125000e+01
3.750000e+01
4.375000e+01
5.000000e+01
5.625000e+01
6.250000e+01
6.875000e+01
7.500000e+01
8.125000e+01
8.750000e+01
9.375000e+01
1.000000e+02
1.062500e+02
1.125000e+02
1.187500e+02
1.250000e+02
1.312500e+02
1.375000e+02
1.437500e+02
1.500000e+02
1.562500e+02
1.625000e+02
1.687500e+02
1.750000e+02
1.812500e+02
1.875000e+02
1.937500e+02
2.000000e+02
0.000000e+00
6.250000e+00
1.250000e+01
1.875000e+01
2.500000e+01
3.125000e+01
3.750000e+01
4.375000e+01
5.000000e+01
5.625000e+01
6.250000e+01
6.875000e+01
7.500000e+01
8.125000e+01
8.750000e+01
9.375000e+01
1.000000e+02
1.062500e+02
1.125000e+02
1.187500e+02
1.250000e+02
1.312500e+02
1.375000e+02
1.437500e+02
1.500000e+02
1.562500e+02
1.625000e+02
1.687500e+02
1.750000e+02
1.812500e+02
1.875000e+02
1.937500e+02
2.000000e+02
0.000000e+00
6.250000e+00
1.250000e+01
1.875000e+01
2.500000e+01
3.125000e+01
3.750000e+01
4.375000e+01
5.000000e+01
5.625000e+01
6.250000e+01
6.875000e+01
7.500000e+01
8.125000e+01
8.750000e+01
9.375000e+01
1.000000e+02
1.062500e+02
1.125000e+02
1.187500e+02
1.250000e+02
1.312500e+02
1.375000e+02
1.437500e+02
1.500000e+02
1.562500e+02
1.625000e+02
1.687500e+02
1.750000e+02
1.812500e+02
1.875000e+02
1.937500e+02
2.000000e+02
0.000000e+00
6.250000e+00
1.250000e+01
1.875000e+01
2.500000e+01
3.125000e+01
3.750000e+01
4.375000e+01
5.000000e+01
5.625000e+01
6.250000e+01
6.875000e+01
7.500000e+01
8.125000e+01
8.750000e+01
9.375000e+01
1.000000e+02
1.062500e+02
1.125000e+02
1.187500e+02
1.250000e+02
1.312500e+02
1.375000e+02
1.437500e+02
1.500000e+02
1.562500e+02
1.625000e+02
1.687500e+02
1.750000e+02
1.812500e+02
1.875000e+02
1.937500e+02
2.000000e+02
0.000000e+00
6.250000e+00
1.250000e+01
1.875000e+01
2.500000e+01
3.125000e+01
3.750000e+01
4.375000e+01
5.000000e+01
5.625000e+01
6.250000e+01
6.875000e+01
7.500000e+01
8.125000e+01
8.750000e+01
9.375000e+01
1.000000e+02
1.062500e+02
1.125000e+02
1.187500e+02
1.250000e+02
1.312500e+02
1.375000e+02
1.437500e+02
1.500000e+02
1.562500e+02
1.625000e+02
1.687500e+02
1.750000e+02
1.812500e+02
1.875000e+02
1.937500e+02
2.000000e+02
0.000000e+00
6.250000e+00
1.250000e+01
1.875000e+01
2.500000e+01
3.125000e+01
3.750000e+01
4.375000e+01
5.000000e+01
5.625000e+01
6.250000e+01
6.875000e+01
7.500000e+01
8.125000e+01
8.750000e+01
9.375000e+01
1.000000e+02
1.062500e+02
1.125000e+02
1.187500e+02
1.250000e+02
1.312500e+02
1.375000e+02
1.437500e+02
1.500000e+02
1.562500e+02
1.625000e+02
1.687500e+02
1.750000e+02
1.812500e+02
1.875000e+02
1.937500e+02
2.000000e+02
0.000000e+00
6.250000e+00
1.250000e+01
1.875000e+01
2.500000e+01
3.125000e+01
3.750000e+01
4.375000e+01
5.000000e+01
5.625000e+01
6.250000e+01
6.875000e+01
7.500000e+01
8.125000e+01
8.750000e+01
9.375000e+01
1.000000e+02
1.062500e+02
1.125000e+02
1.187500e+02
1.250000e+02
1.312500e+02
1.375000e+02
1.437500e+02
1.500000e+02
1.562500e+02
1.625000e+02
1.687500e+02
1.750000e+02
1.812500e+02
1.875000e+02
1.937500e+02
2.000000e+02
0.000000e+00
6.250000e+00
1.250000e+01
1.875000e+01
2.500000e+01
3.125000e+01
3.750000e+01
4.375000e+01
5.000000e+01
5.625000e+01
6.250000e+01
6.875000e+01
7.500000e+01
8.125000e+01
8.750000e+01
9.375000e+01
1.000000e+02
1.062500e+02
1.125000e+02
1.187500e+02
1.250000e+02
1.312500e+02
1.375000e+02
1.437500e+02
1.500000e+02
1.562500e+02
1.625000e+02
1.687500e+02
1.750000e+02
1.812500e+02
1.875000e+02
1.937500e+02
2.000000e+02
0.000000e+00
6.250000e+00
1.250000e+01
1.875000e+01
2.500000e+01
3.125000e+01
3.750000e+01
4.375000e+01
5.000000e+01
5.625000e+01
6.250000e+01
6.875000e+01
7.500000e+01
8.125000e+01
8.750000e+01
9.375000e+01
1.000000e+02
1.062500e+02
1.125000e+02
1.187500e+02
1.250000e+02
1.312500e+02
1.375000e+02
1.437500e+02
1.500000e+02
1.562500e+02
1.625000e+02
1.687500e+02
1.750000e+02
1.812500e+02
1.875000e+02
1.937500e+02
2.000000e+02
0.000000e+00
6.250000e+00
1.250000e+01
1.875000e+01
2.500000e+01
3.125000e+01
3.750000e+01
4.375000e+01
5.000000e+01
5.625000e+01
6.250000e+01
6.875000e+01
7.500000e+01
8.125000e+01
8.750000e+01
9.375000e+01
1.000000e+02
1.062500e+02
1.125000e+02
1.187500e+02
1.250000e+02
1.312500e+02
1.375000e+02
1.437500e+02
1.500000e+02
1.562500e+02
1.625000e+02
1.687500e+02
1.750000e+02
1.812500e+02
1.875000e+02
1.937500e+02
2.000000e+02
0.000000e+00
6.250000e+00
1.250000e+01
1.875000e+01
2.500000e+01
3.125000e+01
3.750000e+01
4.375000e+01
5.000000e+01
5.625000e+01
6.250000e+01
6.875000e+01
7.500000e+01
8.125000e+01
8.750000e+01
9.375000e+01
1.000000e+02
1.062500e+02
1.125000e+02
1.187500e+02
1.250000e+02
1.312500e+02
1.375000e+02
1.437500e+02
1.500000e+02
1.562500e+02
1.625000e+02
1.687500e+02
1.750000e+02
1.812500e+02
1.875000e+02
1.937500e+02
2.000000e+02
0.000000e+00
6.250000e+00
1.250000e+01
1.875000e+01
2.500000e+01
3.125000e+01
3.750000e+01
4.375000e+01
5.000000e+01
5.625000e+01
6.250000e+01
6.875000e+01
7.500000e+01
8.125000e+01
8.750000e+01
9.375000e+01
1.000000e+02
1.062500e+02
1.125000e+02
1.187500e+02
1.250000e+02
1.312500e+02
1.375000e+02
1.437500e+02
1.500000e+02
1.562500e+02
1.625000e+02
1.687500e+02
1.750000e+02
1.812500e+02
1.875000e+02
1.937500e+02
2.000000e+02
0.000000e+00
6.250000e+00
1.250000e+01
1.875000e+01
2.500000e+01
3.125000e+01
3.750000e+01
4.375000e+01
5.000000e+01
5.625000e+01
6.250000e+01
6.875000e+01
7.500000e+01
8.125000e+01
8.750000e+01
9.375000e+01
1.000000e+02
1.062500e+02
1.125000e+02
1.187500e+02
1.250000e+02
1.312500e+02
1.375000e+02
1.437500e+02
1.500000e+02
1.562500e+02
1.625000e+02
1.687500e+02
1.750000e+02
1.812500e+02
1.875000e+02
1.937500e+02
2.000000e+02
0.000000e+00
6.250000e+00
1.250000e+01
1.875000e+01
2.500000e+01
3.125000e+01
3.750000e+01
4.375000e+01
5.000000e+01
5.625000e+01
6.250000e+01
6.875000e+01
7.500000e+01
8.125000e+01
8.750000e+01
9.375000e+01
1.000000e+02
1.062500e+02
1.125000e+02
1.187500e+02
1.250000e+02
1.312500e+02
1.375000e+02
1.437500e+02
1.500000e+02
1.562500e+02
1.625000e+02
1.687500e+02
1.750000e+02
1.812500e+02
1.875000e+02
1.937500e+02
2.000000e+02
0.000000e+00
6.250000e+00
1.250000e+01
1.875000e+01
2.500000e+01
3.125000e+01
3.750000e+01
4.375000e+01
5.000000e+01
5.625000e+01
6.250000e+01
6.875000e+01
7.500000e+01
8.125000e+01
8.750000e+01
9.375000e+01
1.000000e+02
1.062500e+02
1.125000e+02
1.187500e+02
1.250000e+02
1.312500e+02
1.375000e+02
1.437500e+02
1.500000e+02
1.562500e+02
1.625000e+02
1.687500e+02
1.750000e+02
1.812500e+02
1.875000e+02
1.937500e+02
2.000000e+02
0.000000e+00
0.000000e+00
0.000000e+00
0.000000e+00
0.000000e+00
0.000000e+00
0.000000e+00
0.000000e+00
0.000000e+00
0.000000e+00
0.000000e+00
0.000000e+00
0.000000e+00
0.000000e+00
0.000000e+00
0.000000e+00
0.000000e+00
0.000000e+00
0.000000e+00
0.000000e+00
0.000000e+00
0.000000e+00
0.000000e+00
0.000000e+00
0.000000e+00
0.000000e+00
0.000000e+00
0.000000e+00
0.000000e+00
0.000000e+00
0.000000e+00
0.000000e+00
0.000000e+00
6.250000e+00
6.250000e+00
6.250000e+00
6.250000e+00
6.250000e+00
6.250000e+00
6.250000e+00
6.250000e+00
6.250000e+00
6.250000e+00
6.250000e+00
6.250000e+00
6.250000e+00
6.250000e+00
6.250000e+00
6.250000e+00
6.250000e+00
6.250000e+00
6.250000e+00
6.250000e+00
6.250000e+00
6.250000e+00
6.250000e+00
6.250000e+00
6.250000e+00
6.250000e+00
6.250000e+00
6.250000e+00
6.250000e+00
6.250000e+00
6.250000e+00
6.250000e+00
6.250000e+00
1.250000e+01
1.250000e+01
1.250000e+01
1.250000e+01
1.250000e+01
1.250000e+01
1.250000e+01
1.250000e+01
1.250000e+01
1.250000e+01
1.250000e+01
1.250000e+01
1.250000e+01
1.250000e+01
1.250000e+01
1.250000e+01
1.250000e+01
1.250000e+01
1.250000e+01
1.250000e+01
1.250000e+01
1.250000e+01
1.250000e+01
1.250000e+01
1.250000e+01
1.250000e+01
1.250000e+01
1.250000e+01
1.250000e+01
1.250000e+01
1.250000e+01
1.250000e+01
1.250000e+01
1.875000e+01
1.875000e+01
1.875000e+01
1.875000e+01
1.875000e+01
1.875000e+01
1.875000e+01
1.875000e+01
1.875000e+01
1.875000e+01
1.875000e+01
1.875000e+01
1.875000e+01
1.875000e+01
1.875000e+01
1.875000e+01
1.875000e+01
1.875000e+01
1.875000e+01
1.875000e+01
1.875000e+01
1.875000e+01
1.875000e+01
1.875000e+01
1.875000e+01
1.875000e+01
1.875000e+01
1.875000e+01
1.875000e+01
1.875000e+01
1.875000e+01
1.875000e+01
1.875000e+01
2.500000e+01
2.500000e+01
2.500000e+01
2.500000e+01
2.500000e+01
2.500000e+01
2.500000e+01
2.500000e+01
2.500000e+01
2.500000e+01
2.500000e+01
2.500000e+01
2.500000e+01
2.500000e+01
2.500000e+01
2.500000e+01
2.500000e+01
2.500000e+01
2.500000e+01
2.500000e+01
2.500000e+01
2.500000e+01
2.500000e+01
2.500000e+01
2.500000e+01
2.500000e+01
2.500000e+01
2.500000e+01
2.500000e+01
2.500000e+01
2.500000e+01
2.500000e+01
2.500000e+01
3.125000e+01
3.125000e+01
3.125000e+01
3.125000e+01
3.125000e+01
3.125000e+01
3.125000e+01
3.125000e+01
3.125000e+01
3.125000e+01
3.125000e+01
3.125000e+01
3.125000e+01
3.125000e+01
3.125000e+01
3.125000e+01
3.125000e+01
3.125000e+01
3.125000e+01
3.125000e+01
3.125000e+01
3.125000e+01
3.125000e+01
3.125000e+01
3.125000e+01
3.125000e+01
3.125000e+01
3.125000e+01
3.125000e+01
3.125000e+01
3.125000e+01
3.125000e+01
3.125000e+01
3.750000e+01
3.750000e+01
3.750000e+01
3.750000e+01
3.750000e+01
3.750000e+01
3.750000e+01
3.750000e+01
3.750000e+01
3.750000e+01
3.750000e+01
3.750000e+01
3.750000e+01
3.750000e+01
3.750000e+01
3.750000e+01
3.750000e+01
3.750000e+01
3.750000e+01
3.750000e+01
3.750000e+01
3.750000e+01
3.750000e+01
3.750000e+01
3.750000e+01
3.750000e+01
3.750000e+01
3.750000e+01
3.750000e+01
3.750000e+01
3.750000e+01
3.750000e+01
3.750000e+01
4.375000e+01
4.375000e+01
4.375000e+01
4.375000e+01
4.375000e+01
4.375000e+01
4.375000e+01
4.375000e+01
4.375000e+01
4.375000e+01
4.375000e+01
4.375000e+01
4.375000e+01
4.375000e+01
4.375000e+01
4.375000e+01
4.375000e+01
4.375000e+01
4.375000e+01
4.375000e+01
4.375000e+01
4.375000e+01
4.375000e+01
4.375000e+01
4.375000e+01
4.375000e+01
4.375000e+01
4.375000e+01
4.375000e+01
4.375000e+01
4.375000e+01
4.375000e+01
4.375000e+01
5.000000e+01
5.000000e+01
5.000000e+01
5.000000e+01
5.000000e+01
5.000000e+01
5.000000e+01
5.000000e+01
5.000000e+01
5.000000e+01
5.000000e+01
5.000000e+01
5.000000e+01
5.000000e+01
5.000000e+01
5.000000e+01
5.000000e+01
5.000000e+01
5.000000e+01
5.000000e+01
5.000000e+01
5.000000e+01
5.000000e+01
5.000000e+01
5.000000e+01
5.000000e+01
5.000000e+01
5.000000e+01
5.000000e+01
5.000000e+01
5.000000e+01
5.000000e+01
5.000000e+01
5.625000e+01
5.625000e+01
5.625000e+01
5.625000e+01
5.625000e+01
5.625000e+01
5.625000e+01
5.625000e+01
5.625000e+01
5.625000e+01
5.625000e+01
5.625000e+01
5.625000e+01
5.625000e+01
5.625000e+01
5.625000e+01
5.625000e+01
5.625000e+01
5.625000e+01
5.625000e+01
5.625000e+01
5.625000e+01
5.625000e+01
5.625000e+01
5.625000e+01
5.625000e+01
5.625000e+01
5.625000e+01
5.625000e+01
5.625000e+01
5.625000e+01
5.625000e+01
5.625000e+01
6.250000e+01
6.250000e+01
6.250000e+01
6.250000e+01
6.250000e+01
6.250000e+01
6.250000e+01
6.250000e+01
6.250000e+01
6.250000e+01
6.250000e+01
6.250000e+01
6.250000e+01
6.250000e+01
6.250000e+01
6.250000e+01
6.250000e+01
6.250000e+01
6.250000e+01
6.250000e+01
6.250000e+01
6.250000e+01
6.250000e+01
6.250000e+01
6.250000e+01
6.250000e+01
6.250000e+01
6.250000e+01
6.250000e+01
6.250000e+01
6.250000e+01
6.250000e+01
6.250000e+01
6.875000e+01
6.875000e+01
6.875000e+01
6.875000e+01
6.875000e+01
6.875000e+01
6.875000e+01
6.875000e+01
6.875000e+01
6.875000e+01
6.875000e+01
6.875000e+01
6.875000e+01
6.875000e+01
6.875000e+01
6.875000e+01
6.875000e+01
6.875000e+01
6.875000e+01
6.875000e+01
6.875000e+01
6.875000e+01
6.875000e+01
6.875000e+01
6.875000e+01
6.875000e+01
6.875000e+01
6.875000e+01
6.875000e+01
6.875000e+01
6.875000e+01
6.875000e+01
6.875000e+01
7.500000e+01
7.500000e+01
7.500000e+01
7.500000e+01
7.500000e+01
7.500000e+01
7.500000e+01
7.500000e+01
7.500000e+01
7.500000e+01
7.500000e+01
7.500000e+01
7.500000e+01
7.500000e+01
7.500000e+01
7.500000e+01
7.500000e+01
7.500000e+01
7.500000e+01
7.500000e+01
7.500000e+01
7.500000e+01
7.500000e+01
7.500000e+01
7.500000e+01
7.500000e+01
7.500000e+01
7.500000e+01
7.500000e+01
7.500000e+01
7.500000e+01
7.500000e+01
7.500000e+01
8.125000e+01
8.125000e+01
8.125000e+01
8.125000e+01
8.125000e+01
8.125000e+01
8.125000e+01
8.125000e+01
8.125000e+01
8.125000e+01
8.125000e+01
8.125000e+01
8.125000e+01
8.125000e+01
8.125000e+01
8.125000e+01
8.125000e+01
8.125000e+01
8.125000e+01
8.125000e+01
8.125000e+01
8.125000e+01
8.125000e+01
8.125000e+01
8.125000e+01
8.125000e+01
8.125000e+01
8.125000e+01
8.125000e+01
8.125000e+01
8.125000e+01
8.125000e+01
8.125000e+01
8.750000e+01
8.750000e+01
8.750000e+01
8.750000e+01
8.750000e+01
8.750000e+01
8.750000e+01
8.750000e+01
8.750000e+01
8.750000e+01
8.750000e+01
8.750000e+01
8.750000e+01
8.750000e+01
8.750000e+01
8.750000e+01
8.750000e+01
8.750000e+01
8.750000e+01
8.750000e+01
8.750000e+01
8.750000e+01
8.750000e+01
8.750000e+01
8.750000e+01
8.750000e+01
8.750000e+01
8.750000e+01
8.750000e+01
8.750000e+01
8.750000e+01
8.750000e+01
8.750000e+01
9.375000e+01
9.375000e+01
9.375000e+01
9.375000e+01
9.375000e+01
9.375000e+01
9.375000e+01
9.375000e+01
9.375000e+01
9.375000e+01
9.375000e+01
9.375000e+01
9.375000e+01
9.375000e+01
9.375000e+01
9.375000e+01
9.375000e+01
9.375000e+01
9.375000e+01
9.375000e+01
9.375000e+01
9.375000e+01
9.375000e+01
9.375000e+01
9.375000e+01
9.375000e+01
9.375000e+01
9.375000e+01
9.375000e+01
9.375000e+01
9.375000e+01
9.375000e+01
9.375000e+01
1.000000e+02
1.000000e+02
1.000000e+02
1.000000e+02
1.000000e+02
1.000000e+02
1.000000e+02
1.000000e+02
1.000000e+02
1.000000e+02
1.000000e+02
1.000000e+02
1.000000e+02
1.000000e+02
1.000000e+02
1.000000e+02
1.000000e+02
1.000000e+02
1.000000e+02
1.000000e+02
1.000000e+02
1.000000e+02
1.000000e+02
1.000000e+02
1.000000e+02
1.000000e+02
1.000000e+02
1.000000e+02
1.000000e+02
1.000000e+02
1.000000e+02
1.000000e+02
1.000000e+02
0.000000e+00
-4.552507e-02
-8.259919e-02
-1.169431e-01
-1.499036e-01
-1.817320e-01
-2.124922e-01
-2.421814e-01
-2.707809e-01
-2.982700e-01
-3.246314e-01
-3.498532e-01
-3.739293e-01
-3.968592e-01
-4.186482e-01
-4.393078e-01
-4.588566e-01
-4.773213e-01
-4.947392e-01
-5.111603e-01
-5.266515e-01
-5.413009e-01
-5.552253e-01
-5.685796e-01
-5.815712e-01
-5.944819e-01
-6.077033e-01
-6.217937e-01
-6.375722e-01
-6.562440e-01
-6.793729e-01
-7.069362e-01
-7.237577e-01
0.000000e+00
-3.052334e-02
-6.350708e-02
-9.460640e-02
-1.241651e-01
-1.524646e-01
-1.796545e-01
-2.058002e-01
-2.309278e-01
-2.550457e-01
-2.781555e-01
-3.002573e-01
-3.213520e-01
-3.414431e-01
-3.605374e-01
-3.786453e-01
-3.957823e-01
-4.119696e-01
-4.272352e-01
-4.416155e-01
-4.551571e-01
-4.679185e-01
-4.799724e-01
-4.914076e-01
-5.023306e-01
-5.128636e-01
-5.231356e-01
-5.332529e-01
-5.432149e-01
-5.526973e-01
-5.605987e-01
-5.652182e-01
-5.716494e-01
0.000000e+00
-2.421118e-02
-4.984455e-02
-7.594338e-02
-1.013034e-01
-1.257288e-01
-1.492041e-01
-1.717514e-01
-1.933908e-01
-2.141358e-01
-2.339952e-01
-2.529753e-01
-2.710814e-01
-2.883186e-01
-3.046935e-01
-3.202140e-01
-3.348902e-01
-3.487346e-01
-3.617630e-01
-3.739938e-01
-3.854485e-01
-3.961502e-01
-4.061217e-01
-4.153807e-01
-4.239309e-01
-4.317449e-01
-4.387332e-01
-4.446902e-01
-4.492130e-01
-4.516483e-01
-4.514348e-01
-4.500673e-01
-4.575772e-01
0.000000e+00
-1.920943e-02
-3.947975e-02
-6.030498e-02
-8.108141e-02
-1.013546e-01
-1.209509e-01
-1.398081e-01
-1.579093e-01
-1.752537e-01
-1.918459e-01
-2.076914e-01
-2.227955e-01
-2.371630e-01
-2.507981e-01
-2.637047e-01
-2.758863e-01
-2.873460e-01
-2.980862e-01
-3.081076e-01
-3.174074e-01
-3.259773e-01
-3.337982e-01
-3.408337e-01
-3.470188e-01
-3.522444e-01
-3.563376e-01
-3.590482e-01
-3.600831e-01
-3.593148e-01
-3.574488e-01
-3.573374e-01
-3.644925e-01
0.000000e+00
-1.490920e-02
-3.052895e-02
-4.664768e-02
-6.289735e-02
-7.894772e-02
-9.457733e-02
-1.096741e-01
-1.241869e-01
-1.380963e-01
-1.513971e-01
-1.640900e-01
-1.761774e-01
-1.876613e-01
-1.985425e-01
-2.088200e-01
-2.184905e-01
-2.275484e-01
-2.359841e-01
-2.437836e-01
-2.509260e-01
-2.573806e-01
-2.631033e-01
-2.680314e-01
-2.720776e-01
-2.751275e-01
-2.770467e-01
-2.777199e-01
-2.771676e-01
-2.758162e-01
-2.749394e-01
-2.769641e-01
-2.830677e-01
0.000000e+00
-1.095739e-02
-2.238424e-02
-3.417820e-02
-4.613549e-02
-5.803289e-02
-6.969322e-02
-8.100129e-02
-9.189389e-02
-1.023403e-01
-1.123275e-01
-1.218509e-01
-1.309089e-01
-1.395000e-01
-1.476208e-01
-1.552655e-01
-1.624252e-01
-1.690866e-01
-1.752319e-01
-1.808369e-01
-1.858700e-01
-1.902906e-01
-1.940468e-01
-1.970758e-01
-1.993055e-01
-2.006661e-01
-2.011175e-01
-2.007124e-01
-1.997140e-01
-1.987641e-01
-1.989954e-01
-2.015765e-01
-2.066268e-01
0.000000e+00
-7.211282e-03
-1.470780e-02
-2.244214e-02
-3.030399e-02
-3.816103e-02
-4.589476e-02
-5.341882e-02
-6.067914e-02
-6.764592e-02
-7.430408e-02
-8.064603e-02
-8.666693e-02
-9.236176e-02
-9.772365e-02
-1.027428e-01
-1.074056e-01
-1.116943e-01
-1.155857e-01
-1.190512e-01
-1.220561e-01
-1.245594e-01
-1.265159e-01
-1.278792e-01
-1.286117e-01
-1.287026e-01
-1.282018e-01
-1.272750e-01
-1.262749e-01
-1.257901e-01
-1.265464e-01
-1.290594e-01
-1.331361e-01
0.000000e+00
-3.581842e-03
-7.299098e-03
-1.113266e-02
-1.503412e-02
-1.894184e-02
-2.279729e-02
-2.655466e-02
-3.018303e-02
-3.366347e-02
-3.698480e-02
-4.013961e-02
-4.312143e-02
-4.592287e-02
-4.853440e-02
-5.094345e-02
-5.313388e-02
-5.508547e-02
-5.677367e-02
-5.816974e-02
-5.924141e-02
-5.995475e-02
-6.027789e-02
-6.018801e-02
-5.968335e-02
-5.880241e-02
-5.765182e-02
-5.643947e-02
-5.549833e-02
-5.526257e-02
-5.614998e-02
-5.834222e-02
-6.157698e-02
0.000000e+00
-5.778964e-06
-1.253044e-05
-1.988041e-05
-2.744226e-05
-3.469471e-05
-4.085217e-05
-4.472082e-05
-4.453044e-05
-3.773198e-05
-2.075320e-05
1.129203e-05
6.494012e-05
1.487526e-04
2.737115e-04
4.536004e-04
7.053138e-04
1.048996e-03
1.507863e-03
2.107473e-03
2.874103e-03
3.831735e-03
4.996983e-03
6.371111e-03
7.928376e-03
9.600563e-03
1.125965e-02
1.270509e-02
1.366999e-02
1.386567e-02
1.307778e-02
1.129348e-02
8.794472e-03
0.000000e+00
3.570957e-03
7.275449e-03
1.109507e-02
1.498210e-02
1.887588e-02
2.271934e-02
2.646888e-02
3.009689e-02
3.358920e-02
3.694134e-02
4.015505e-02
4.323616e-02
4.619341e-02
4.903798e-02
5.178337e-02
5.444545e-02
5.704228e-02
5.959367e-02
6.212001e-02
6.464018e-02
6.716805e-02
6.970722e-02
7.224360e-02
7.473596e-02
7.710565e-02
7.922863e-02
8.093614e-02
8.203326e-02
8.234387e-02
8.178133e-02
8.042589e-02
7.857113e-02
0.000000e+00
7.202390e-03
1.468835e-02
2.241099e-02
3.026055e-02
3.810545e-02
4.582830e-02
5.334452e-02
6.060266e-02
6.757674e-02
7.425708e-02
8.064354e-02
8.674129e-02
9.255854e-02
9.810550e-02
1.033940e-01
1.084372e-01
1.132496e-01
1.178461e-01
1.222409e-01
1.264454e-01
1.304650e-01
1.342941e-01
1.379108e-01
1.412694e-01
1.442956e-01
1.468841e-01
1.489058e-01
1.502290e-01
1.507581e-01
1.504861e-01
1.495481e-01
1.482536e-01
0.000000e+00
1.095172e-02
2.237161e-02
3.415762e-02
4.610627e-02
5.799475e-02
6.964655e-02
8.094757e-02
9.183623e-02
1.022842e-01
1.122819e-01
1.218296e-01
1.309321e-01
1.395966e-01
1.478312e-01
1.556447e-01
1.630462e-01
1.700451e-01
1.766505e-01
1.828699e-01
1.887076e-01
1.941625e-01
1.992238e-01
2.038677e-01
2.080531e-01
2.117193e-01
2.147872e-01
2.171682e-01
2.187829e-01
2.195920e-01
2.196376e-01
2.190874e-01
2.182692e-01
0.000000e+00
1.490779e-02
3.052543e-02
4.664137e-02
6.288760e-02
7.893397e-02
9.455924e-02
1.096516e-01
1.241605e-01
1.380672e-01
1.513674e-01
1.640637e-01
1.761604e-01
1.876627e-01
1.985754e-01
2.089030e-01
2.186493e-01
2.278176e-01
2.364100e-01
2.444270e-01
2.518662e-01
2.587206e-01
2.649772e-01
2.706143e-01
2.756002e-01
2.798931e-01
2.834438e-01
2.862034e-01
2.881374e-01
2.892485e-01
2.896089e-01
2.894023e-01
2.889713e-01
0.000000e+00
1.921300e-02
3.948701e-02
6.031577e-02
8.109543e-02
1.013714e-01
1.209700e-01
1.398285e-01
1.579294e-01
1.752711e-01
1.918568e-01
2.076903e-01
2.227745e-01
2.371111e-01
2.507004e-01
2.635413e-01
2.756313e-01
2.869665e-01
2.975414e-01
3.073483e-01
3.163774e-01
3.246162e-01
3.320489e-01
3.386568e-01
3.444189e-01
3.493136e-01
3.533224e-01
3.564364e-01
3.586650e-01
3.600501e-01
3.606871e-01
3.607631e-01
3.606201e-01
0.000000e+00
2.421990e-02
4.986314e-02
7.597251e-02
1.013436e-01
1.257806e-01
1.492675e-01
1.718257e-01
1.934739e-01
2.142234e-01
2.340799e-01
2.530449e-01
2.711171e-01
2.882932e-01
3.045676e-01
3.199332e-01
3.343804e-01
3.478974e-01
3.604699e-01
3.720812e-01
3.827122e-01
3.923422e-01
4.009504e-01
4.085174e-01
4.150288e-01
4.204798e-01
4.248801e-01
4.282608e-01
4.306804e-01
4.322301e-01
4.330412e-01
4.333054e-01
4.333369e-01
0.000000e+00
3.053641e-02
6.353565e-02
9.465236e-02
1.242307e-01
1.525521e-01
1.797658e-01
2.059364e-01
2.310883e-01
2.552273e-01
2.783507e-01
3.004521e-01
3.215233e-01
3.415545e-01
3.605344e-01
3.784495e-01
3.952834e-01
4.110164e-01
4.256247e-01
4.390809e-01
4.513539e-01
4.624106e-01
4.722184e-01
4.807492e-01
4.879853e-01
4.939271e-01
4.986027e-01
5.020778e-01
5.044650e-01
5.059277e-01
5.066750e-01
5.069460e-01
5.070124e-01
0.000000e+00
4.553939e-02
8.263260e-02
1.170004e-01
1.499893e-01
1.818508e-01
2.126489e-01
2.423806e-01
2.710263e-01
2.985630e-01
3.249696e-01
3.502277e-01
3.743209e-01
3.972340e-01
4.189510e-01
4.394537e-01
4.587203e-01
4.767240e-01
4.934319e-01
5.088043e-01
5.227951e-01
5.353527e-01
5.464232e-01
5.559559e-01
5.639113e-01
5.702736e-01
5.750652e-01
5.783661e-01
5.803336e-01
5.812202e-01
5.813813e-01
5.812478e-01
5.811727e-01
0.000000e+00
-2.813363e-02
-4.909925e-02
-7.197781e-02
-9.745444e-02
-1.262328e-01
-1.585130e-01
-1.943510e-01
-2.337112e-01
-2.765092e-01
-3.226316e-01
-3.719478e-01
-4.243172e-01
-4.795932e-01
-5.376262e-01
-5.982659e-01
-6.613625e-01
-7.267690e-01
-7.943434e-01
-8.639518e-01
-9.354730e-01
-1.008805e+00
-1.083876e+00
-1.160655e+00
-1.239182e+00
-1.319602e+00
-1.402235e+00
-1.487704e+00
-1.577202e+00
-1.673093e+00
-1.780473e+00
-1.911368e+00
-2.092204e+00
0.000000e+00
-1.748398e-02
-3.942946e-02
-6.246235e-02
-8.829407e-02
-1.173851e-01
-1.499789e-01
-1.861306e-01
-2.258076e-01
-2.689255e-01
-3.153702e-01
-3.650102e-01
-4.177036e-01
-4.733026e-01
-5.316562e-01
-5.926126e-01
-6.560201e-01
-7.217295e-01
-7.895961e-01
-8.594827e-01
-9.312639e-01
-1.004833e+00
-1.080109e+00
-1.157057e+00
-1.235702e+00
-1.316179e+00
-1.398789e+00
-1.484137e+00
-1.573391e+00
-1.668875e+00
-1.775425e+00
-1.903407e+00
-2.072355e+00
0.000000e+00
-1.284299e-02
-3.178785e-02
-5.450653e-02
-8.038338e-02
-1.096888e-01
-1.425399e-01
-1.789671e-01
-2.189267e-01
-2.623302e-01
-3.090617e-01
-3.589886e-01
-4.119683e-01
-4.678525e-01
-5.264898e-01
-5.877276e-01
-6.514136e-01
-7.173977e-01
-7.855342e-01
-8.556849e-01
-9.277231e-01
-1.001541e+00
-1.077059e+00
-1.154240e+00
-1.233117e+00
-1.313828e+00
-1.396689e+00
-1.482322e+00
-1.571879e+00
-1.667452e+00
-1.772616e+00
-1.891595e+00
-2.023577e+00
0.000000e+00
-1.028412e-02
-2.691789e-02
-4.842510e-02
-7.396940e-02
-1.032657e-01
-1.362573e-01
-1.728886e-01
-2.130807e-01
-2.567291e-01
-3.037102e-01
-3.538884e-01
-4.071197e-01
-4.632556e-01
-5.221449e-01
-5.836353e-01
-6.475750e-01
-7.138145e-01
-7.822090e-01
-8.526212e-01
-9.249263e-01
-9.990190e-01
-1.074823e+00
-1.152309e+00
-1.231515e+00
-1.312588e+00
-1.395840e+00
-1.481843e+00
-1.571541e+00
-1.666313e+00
-1.767478e+00
-1.874175e+00
-1.973499e+00
0.000000e+00
-8.702060e-03
-2.373312e-02
-4.410657e-02
-6.906857e-02
-9.817280e-02
-1.311768e-01
-1.679271e-01
-2.082910e-01
-2.521364e-01
-2.993264e-01
-3.497187e-01
-4.031670e-01
-4.595221e-01
-5.186336e-01
-5.803501e-01
-6.445214e-01
-7.109998e-01
-7.796422e-01
-8.503138e-01
-9.228926e-01
-9.972764e-01
-1.073393e+00
-1.151213e+00
-1.230773e+00
-1.312202e+00
-1.395754e+00
-1.481841e+00
-1.571006e+00
-1.663687e+00
-1.759441e+00
-1.854752e+00
-1.941253e+00
0.000000e+00
-7.695379e-03
-2.164351e-02
-4.113474e-02
-6.553484e-02
-9.436644e-02
-1.272987e-01
-1.640960e-01
-2.045730e-01
-2.485661e-01
-2.959216e-01
-3.464886e-01
-4.001173e-01
-4.566581e-01
-5.159608e-01
-5.778760e-01
-6.422552e-01
-7.089530e-01
-7.778285e-01
-8.487491e-01
-9.215946e-01
-9.962633e-01
-1.072680e+00
-1.150809e+00
-1.230663e+00
-1.312320e+00
-1.395922e+00
-1.481652e+00
-1.569607e+00
-1.659492e+00
-1.749937e+00
-1.837710e+00
-1.917934e+00
0.000000e+00
-7.069739e-03
-2.032236e-02
-3.920299e-02
-6.316750e-02
-9.175065e-02
-1.245851e-01
-1.613871e-01
-2.019308e-01
-2.460262e-01
-2.935036e-01
-3.442041e-01
-3.979745e-01
-4.546643e-01
-5.141245e-01
-5.762071e-01
-6.407658e-01
-7.076570e-01
-7.767416e-01
-8.478878e-01
-9.209744e-01
-9.958956e-01
-1.072567e+00
-1.150930e+00
-1.230958e+00
-1.312652e+00
-1.396020e+00
-1.481014e+00
-1.567390e+00
-1.654442e+00
-1.740667e+00
-1.823577e+00
-1.900126e+00
0.000000e+00
-6.725940e-03
-1.958928e-02
-3.811441e-02
-6.181003e-02
-9.022698e-02
-1.229861e-01
-1.597800e-01
-2.003598e-01
-2.445184e-01
-2.920757e-01
-3.428673e-01
-3.967378e-01
-4.535367e-01
-5.131160e-01
-5.753295e-01
-6.400326e-01
-7.070830e-01
-7.763420e-01
-8.476765e-01
-9.209608e-01
-9.960799e-01
-1.072932e+00
-1.151427e+00
-1.231488e+00
-1.313032e+00
-1.395938e+00
-1.479982e+00
-1.564713e+00
-1.649299e+00
-1.732382e+00
-1.812091e+00
-1.886348e+00
0.000000e+00
-6.615170e-03
-1.935277e-02
-3.776159e-02
-6.136762e-02
-8.972830e-02
-1.224623e-01
-1.592556e-01
-1.998525e-01
-2.440407e-01
-2.916370e-01
-3.424758e-01
-3.964021e-01
-4.532663e-01
-5.129218e-01
-5.752240e-01
-6.400294e-01
-7.071961e-01
-7.765845e-01
-8.480578e-01
-9.214829e-01
-9.967313e-01
-1.073678e+00
-1.152199e+00
-1.232162e+00
-1.313407e+00
-1.395714e+00
-1.478743e+00
-1.561959e+00
-1.644541e+00
-1.725340e+00
-1.802930e+00
-1.875788e+00
0.000000e+00
-6.722736e-03
-1.958483e-02
-3.811058e-02
-6.180887e-02
-9.023104e-02
-1.229987e-01
-1.598056e-01
-2.004044e-01
-2.445897e-01
-2.921836e-01
-3.430242e-01
-3.969593e-01
-4.538413e-01
-5.135256e-01
-5.758687e-01
-6.407277e-01
-7.079605e-01
-7.774247e-01
-8.489785e-01
-9.224793e-01
-9.977827e-01
-1.074739e+00
-1.153189e+00
-1.232950e+00
-1.313801e+00
-1.395454e+00
-1.477508e+00
-1.559414e+00
-1.640423e+00
-1.719589e+00
-1.795808e+00
-1.867917e+00
0.000000e+00
-7.063590e-03
-2.031382e-02
-3.919561e-02
-6.316518e-02
-9.175829e-02
-1.246091e-01
-1.614360e-01
-2.020160e-01
-2.461625e-01
-2.937100e-01
-3.445047e-01
-3.983990e-01
-4.552485e-01
-5.149103e-01
-5.772419e-01
-6.421007e-01
-7.093430e-01
-7.788236e-01
-8.503944e-01
-9.239023e-01
-9.991868e-01
-1.076075e+00
-1.154375e+00
-1.233864e+00
-1.314275e+00
-1.395277e+00
-1.476450e+00
-1.557261e+00
-1.637060e+00
-1.715079e+00
-1.790466e+00
-1.862331e+00
0.000000e+00
-7.686833e-03
-2.163165e-02
-4.112443e-02
-6.553150e-02
-9.437689e-02
-1.273319e-01
-1.641640e-01
-2.046916e-01
-2.487561e-01
-2.962097e-01
-3.469084e-01
-4.007107e-01
-4.574751e-01
-5.170604e-01
-5.793249e-01
-6.441254e-01
-7.113168e-01
-7.807505e-01
-8.522719e-01
-9.257184e-01
-1.000915e+00
-1.077667e+00
-1.155758e+00
-1.234933e+00
-1.314895e+00
-1.395289e+00
-1.475691e+00
-1.555609e+00
-1.634485e+00
-1.711711e+00
-1.786656e+00
-1.858668e+00
0.000000e+00
-8.691993e-03
-2.371916e-02
-4.409442e-02
-6.906470e-02
-9.818545e-02
-1.312169e-01
-1.680091e-01
-2.084342e-01
-2.523660e-01
-2.996746e-01
-3.502263e-01
-4.038845e-01
-4.605105e-01
-5.199641e-01
-5.821039e-01
-6.467860e-01
-7.138637e-01
-7.831849e-01
-8.545900e-01
-9.279078e-01
-1.002951e+00
-1.079511e+00
-1.157349e+00
-1.236190e+00
-1.315716e+00
-1.395561e+00
-1.475308e+00
-1.554505e+00
-1.632677e+00
-1.709361e+00
-1.784126e+00
-1.856572e+00
0.000000e+00
-1.027378e-02
-2.690356e-02
-4.841275e-02
-7.396608e-02
-1.032806e-01
-1.363025e-01
-1.729801e-01
-2.132400e-01
-2.569838e-01
-3.040962e-01
-3.544505e-01
-4.079137e-01
-4.643486e-01
-5.236155e-01
-5.855725e-01
-6.500754e-01
-7.169755e-01
-7.861182e-01
-8.573399e-01
-9.304631e-01
-1.005292e+00
-1.081608e+00
-1.159158e+00
-1.237655e+00
-1.316769e+00
-1.396129e+00
-1.475329e+00
-1.553948e+00
-1.631581e+00
-1.707883e+00
-1.782615e+00
-1.855659e+00
0.000000e+00
-1.283397e-02
-3.177529e-02
-5.449610e-02
-8.038239e-02
-1.097069e-01
-1.425897e-01
-1.790656e-01
-2.190959e-01
-2.625990e-01
-3.094669e-01
-3.595767e-01
-4.127964e-01
-4.689894e-01
-5.280159e-01
-5.897335e-01
-6.539969e-01
-7.206563e-01
-7.895551e-01
-8.605266e-01
-9.333900e-01
-1.007945e+00
-1.083965e+00
-1.161192e+00
-1.239334e+00
-1.318054e+00
-1.396984e+00
-1.475727e+00
-1.553886e+00
-1.631101e+00
-1.707117e+00
-1.781856e+00
-1.855499e+00
0.000000e+00
-1.747818e-02
-3.942092e-02
-6.245621e-02
-8.829787e-02
-1.174087e-01
-1.500351e-01
-1.862363e-01
-2.259849e-01
-2.692029e-01
-3.157841e-01
-3.656062e-01
-4.185373e-01
-4.744405e-01
-5.331757e-01
-5.945997e-01
-6.585661e-01
-7.249240e-01
-7.935153e-01
-8.641714e-01
-9.367095e-01
-1.010927e+00
-1.086595e+00
-1.163455e+00
-1.241213e+00
-1.319538e+00
-1.398065e+00
-1.476408e+00
-1.554190e+00
-1.631079e+00
-1.706867e+00
-1.781582e+00
-1.855635e+00
0.000000e+00
-2.813280e-02
-4.909641e-02
-7.197835e-02
-9.746593e-02
-1.262652e-01
-1.585790e-01
-1.944675e-01
-2.338997e-01
-2.767975e-01
-3.230547e-01
-3.725491e-01
-4.251491e-01
-4.807177e-01
-5.391142e-01
-6.001945e-01
-6.638112e-01
-7.298119e-01
-7.980367e-01
-8.683153e-01
-9.404632e-01
-1.014276e+00
-1.089527e+00