TITLE = "Solution"
VARIABLES = x, y, u, v, psiu, psiv, t, stress
ZONE T="structure" N=561 E=512 F=FEBLOCK ET=QUADRILATERAL VARLOCATION=([7,8]=cellcentered)
0.000000e+00
6.250000e+00
1.250000e+01
1.875000e+01
2.500000e+01
3.125000e+01
3.750000e+01
4.375000e+01
5.000000e+01
5.625000e+01
6.250000e+01
6.875000e+01
7.500000e+01
8.125000e+01
8.750000e+01
9.375000e+01
1.000000e+02
1.062500e+02
1.125000e+02
1.187500e+02
1.250000e+02
1.312500e+02
1.375000e+02
1.437500e+02
1.500000e+02
1.562500e+02
1.625000e+02
1.687500e+02
1.750000e+02
1.812500e+02
1.875000e+02
1.937500e+02
2.000000e+02
0.000000e+00
6.250000e+00
1.250000e+01
1.875000e+01
2.500000e+01
3.125000e+01
3.750000e+01
4.375000e+01
5.000000e+01
5.625000e+01
6.250000e+01
6.875000e+01
7.500000e+01
8.125000e+01
8.750000e+01
9.375000e+01
1.000000e+02
1.062500e+02
1.125000e+02
1.187500e+02
1.250000e+02
1.312500e+02
1.375000e+02
1.437500e+02
1.500000e+02
1.562500e+02
1.625000e+02
1.687500e+02
1.750000e+02
1.812500e+02
1.875000e+02
1.937500e+02
2.000000e+02
0.000000e+00
6.250000e+00
1.250000e+01
1.875000e+01
2.500000e+01
3.125000e+01
3.750000e+01
4.375000e+01
5.000000e+01
5.625000e+01
6.250000e+01
6.875000e+01
7.500000e+01
8.125000e+01
8.750000e+01
9.375000e+01
1.000000e+02
1.062500e+02
1.125000e+02
1.187500e+02
1.250000e+02
1.312500e+02
1.375000e+02
1.437500e+02
1.500000e+02
1.562500e+02
1.625000e+02
1.687500e+02
1.750000e+02
1.812500e+02
1.875000e+02
1.937500e+02
2.000000e+02
0.000000e+00
6.250000e+00
1.250000e+01
1.875000e+01
2.500000e+01
3.125000e+01
3.750000e+01
4.375000e+01
5.000000e+01
5.625000e+01
6.250000e+01
6.875000e+01
7.500000e+01
8.125000e+01
8.750000e+01
9.375000e+01
1.000000e+02
1.062500e+02
1.125000e+02
1.187500e+02
1.250000e+02
1.312500e+02
1.375000e+02
1.437500e+02
1.500000e+02
1.562500e+02
1.625000e+02
1.687500e+02
1.750000e+02
1.812500e+02
1.875000e+02
1.937500e+02
2.000000e+02
0.000000e+00
6.250000e+00
1.250000e+01
1.875000e+01
2.500000e+01
3.125000e+01
3.750000e+01
4.375000e+01
5.000000e+01
5.625000e+01
6.250000e+01
6.875000e+01
7.500000e+01
8.125000e+01
8.750000e+01
9.375000e+01
1.000000e+02
1.062500e+02
1.125000e+02
1.187500e+02
1.250000e+02
1.312500e+02
1.375000e+02
1.437500e+02
1.500000e+02
1.562500e+02
1.625000e+02
1.687500e+02
1.750000e+02
1.812500e+02
1.875000e+02
1.937500e+02
2.000000e+02
0.000000e+00
6.250000e+00
1.250000e+01
1.875000e+01
2.500000e+01
3.125000e+01
3.750000e+01
4.375000e+01
5.000000e+01
5.625000e+01
6.250000e+01
6.875000e+01
7.500000e+01
8.125000e+01
8.750000e+01
9.375000e+01
1.000000e+02
1.062500e+02
1.125000e+02
1.187500e+02
1.250000e+02
1.312500e+02
1.375000e+02
1.437500e+02
1.500000e+02
1.562500e+02
1.625000e+02
1.687500e+02
1.750000e+02
1.812500e+02
1.875000e+02
1.937500e+02
2.000000e+02
0.000000e+00
6.250000e+00
1.250000e+01
1.875000e+01
2.500000e+01
3.125000e+01
3.750000e+01
4.375000e+01
5.000000e+01
5.625000e+01
6.250000e+01
6.875000e+01
7.500000e+01
8.125000e+01
8.750000e+01
9.375000e+01
1.000000e+02
1.062500e+02
1.125000e+02
1.187500e+02
1.250000e+02
1.312500e+02
1.375000e+02
1.437500e+02
1.500000e+02
1.562500e+02
1.625000e+02
1.687500e+02
1.750000e+02
1.812500e+02
1.875000e+02
1.937500e+02
2.000000e+02
0.000000e+00
6.250000e+00
1.250000e+01
1.875000e+01
2.500000e+01
3.125000e+01
3.750000e+01
4.375000e+01
5.000000e+01
5.625000e+01
6.250000e+01
6.875000e+01
7.500000e+01
8.125000e+01
8.750000e+01
9.375000e+01
1.000000e+02
1.062500e+02
1.125000e+02
1.187500e+02
1.250000e+02
1.312500e+02
1.375000e+02
1.437500e+02
1.500000e+02
1.562500e+02
1.625000e+02
1.687500e+02
1.750000e+02
1.812500e+02
1.875000e+02
1.937500e+02
2.000000e+02
0.000000e+00
6.250000e+00
1.250000e+01
1.875000e+01
2.500000e+01
3.125000e+01
3.750000e+01
4.375000e+01
5.000000e+01
5.625000e+01
6.250000e+01
6.875000e+01
7.500000e+01
8.125000e+01
8.750000e+01
9.375000e+01
1.000000e+02
1.062500e+02
1.125000e+02
1.187500e+02
1.250000e+02
1.312500e+02
1.375000e+02
1.437500e+02
1.500000e+02
1.562500e+02
1.625000e+02
1.687500e+02
1.750000e+02
1.812500e+02
1.875000e+02
1.937500e+02
2.000000e+02
0.000000e+00
6.250000e+00
1.250000e+01
1.875000e+01
2.500000e+01
3.125000e+01
3.750000e+01
4.375000e+01
5.000000e+01
5.625000e+01
6.250000e+01
6.875000e+01
7.500000e+01
8.125000e+01
8.750000e+01
9.375000e+01
1.000000e+02
1.062500e+02
1.125000e+02
1.187500e+02
1.250000e+02
1.312500e+02
1.375000e+02
1.437500e+02
1.500000e+02
1.562500e+02
1.625000e+02
1.687500e+02
1.750000e+02
1.812500e+02
1.875000e+02
1.937500e+02
2.000000e+02
0.000000e+00
6.250000e+00
1.250000e+01
1.875000e+01
2.500000e+01
3.125000e+01
3.750000e+01
4.375000e+01
5.000000e+01
5.625000e+01
6.250000e+01
6.875000e+01
7.500000e+01
8.125000e+01
8.750000e+01
9.375000e+01
1.000000e+02
1.062500e+02
1.125000e+02
1.187500e+02
1.250000e+02
1.312500e+02
1.375000e+02
1.437500e+02
1.500000e+02
1.562500e+02
1.625000e+02
1.687500e+02
1.750000e+02
1.812500e+02
1.875000e+02
1.937500e+02
2.000000e+02
0.000000e+00
6.250000e+00
1.250000e+01
1.875000e+01
2.500000e+01
3.125000e+01
3.750000e+01
4.375000e+01
5.000000e+01
5.625000e+01
6.250000e+01
6.875000e+01
7.500000e+01
8.125000e+01
8.750000e+01
9.375000e+01
1.000000e+02
1.062500e+02
1.125000e+02
1.187500e+02
1.250000e+02
1.312500e+02
1.375000e+02
1.437500e+02
1.500000e+02
1.562500e+02
1.625000e+02
1.687500e+02
1.750000e+02
1.812500e+02
1.875000e+02
1.937500e+02
2.000000e+02
0.000000e+00
6.250000e+00
1.250000e+01
1.875000e+01
2.500000e+01
3.125000e+01
3.750000e+01
4.375000e+01
5.000000e+01
5.625000e+01
6.250000e+01
6.875000e+01
7.500000e+01
8.125000e+01
8.750000e+01
9.375000e+01
1.000000e+02
1.062500e+02
1.125000e+02
1.187500e+02
1.250000e+02
1.312500e+02
1.375000e+02
1.437500e+02
1.500000e+02
1.562500e+02
1.625000e+02
1.687500e+02
1.750000e+02
1.812500e+02
1.875000e+02
1.937500e+02
2.000000e+02
0.000000e+00
6.250000e+00
1.250000e+01
1.875000e+01
2.500000e+01
3.125000e+01
3.750000e+01
4.375000e+01
5.000000e+01
5.625000e+01
6.250000e+01
6.875000e+01
7.500000e+01
8.125000e+01
8.750000e+01
9.375000e+01
1.000000e+02
1.062500e+02
1.125000e+02
1.187500e+02
1.250000e+02
1.312500e+02
1.375000e+02
1.437500e+02
1.500000e+02
1.562500e+02
1.625000e+02
1.687500e+02
1.750000e+02
1.812500e+02
1.875000e+02
1.937500e+02
2.000000e+02
0.000000e+00
6.250000e+00
1.250000e+01
1.875000e+01
2.500000e+01
3.125000e+01
3.750000e+01
4.375000e+01
5.000000e+01
5.625000e+01
6.250000e+01
6.875000e+01
7.500000e+01
8.125000e+01
8.750000e+01
9.375000e+01
1.000000e+02
1.062500e+02
1.125000e+02
1.187500e+02
1.250000e+02
1.312500e+02
1.375000e+02
1.437500e+02
1.500000e+02
1.562500e+02
1.625000e+02
1.687500e+02
1.750000e+02
1.812500e+02
1.875000e+02
1.937500e+02
2.000000e+02
0.000000e+00
6.250000e+00
1.250000e+01
1.875000e+01
2.500000e+01
3.125000e+01
3.750000e+01
4.375000e+01
5.000000e+01
5.625000e+01
6.250000e+01
6.875000e+01
7.500000e+01
8.125000e+01
8.750000e+01
9.375000e+01
1.000000e+02
1.062500e+02
1.125000e+02
1.187500e+02
1.250000e+02
1.312500e+02
1.375000e+02
1.437500e+02
1.500000e+02
1.562500e+02
1.625000e+02
1.687500e+02
1.750000e+02
1.812500e+02
1.875000e+02
1.937500e+02
2.000000e+02
0.000000e+00
6.250000e+00
1.250000e+01
1.875000e+01
2.500000e+01
3.125000e+01
3.750000e+01
4.375000e+01
5.000000e+01
5.625000e+01
6.250000e+01
6.875000e+01
7.500000e+01
8.125000e+01
8.750000e+01
9.375000e+01
1.000000e+02
1.062500e+02
1.125000e+02
1.187500e+02
1.250000e+02
1.312500e+02
1.375000e+02
1.437500e+02
1.500000e+02
1.562500e+02
1.625000e+02
1.687500e+02
1.750000e+02
1.812500e+02
1.875000e+02
1.937500e+02
2.000000e+02
0.000000e+00
0.000000e+00
0.000000e+00
0.000000e+00
0.000000e+00
0.000000e+00
0.000000e+00
0.000000e+00
0.000000e+00
0.000000e+00
0.000000e+00
0.000000e+00
0.000000e+00
0.000000e+00
0.000000e+00
0.000000e+00
0.000000e+00
0.000000e+00
0.000000e+00
0.000000e+00
0.000000e+00
0.000000e+00
0.000000e+00
0.000000e+00
0.000000e+00
0.000000e+00
0.000000e+00
0.000000e+00
0.000000e+00
0.000000e+00
0.000000e+00
0.000000e+00
0.000000e+00
6.250000e+00
6.250000e+00
6.250000e+00
6.250000e+00
6.250000e+00
6.250000e+00
6.250000e+00
6.250000e+00
6.250000e+00
6.250000e+00
6.250000e+00
6.250000e+00
6.250000e+00
6.250000e+00
6.250000e+00
6.250000e+00
6.250000e+00
6.250000e+00
6.250000e+00
6.250000e+00
6.250000e+00
6.250000e+00
6.250000e+00
6.250000e+00
6.250000e+00
6.250000e+00
6.250000e+00
6.250000e+00
6.250000e+00
6.250000e+00
6.250000e+00
6.250000e+00
6.250000e+00
1.250000e+01
1.250000e+01
1.250000e+01
1.250000e+01
1.250000e+01
1.250000e+01
1.250000e+01
1.250000e+01
1.250000e+01
1.250000e+01
1.250000e+01
1.250000e+01
1.250000e+01
1.250000e+01
1.250000e+01
1.250000e+01
1.250000e+01
1.250000e+01
1.250000e+01
1.250000e+01
1.250000e+01
1.250000e+01
1.250000e+01
1.250000e+01
1.250000e+01
1.250000e+01
1.250000e+01
1.250000e+01
1.250000e+01
1.250000e+01
1.250000e+01
1.250000e+01
1.250000e+01
1.875000e+01
1.875000e+01
1.875000e+01
1.875000e+01
1.875000e+01
1.875000e+01
1.875000e+01
1.875000e+01
1.875000e+01
1.875000e+01
1.875000e+01
1.875000e+01
1.875000e+01
1.875000e+01
1.875000e+01
1.875000e+01
1.875000e+01
1.875000e+01
1.875000e+01
1.875000e+01
1.875000e+01
1.875000e+01
1.875000e+01
1.875000e+01
1.875000e+01
1.875000e+01
1.875000e+01
1.875000e+01
1.875000e+01
1.875000e+01
1.875000e+01
1.875000e+01
1.875000e+01
2.500000e+01
2.500000e+01
2.500000e+01
2.500000e+01
2.500000e+01
2.500000e+01
2.500000e+01
2.500000e+01
2.500000e+01
2.500000e+01
2.500000e+01
2.500000e+01
2.500000e+01
2.500000e+01
2.500000e+01
2.500000e+01
2.500000e+01
2.500000e+01
2.500000e+01
2.500000e+01
2.500000e+01
2.500000e+01
2.500000e+01
2.500000e+01
2.500000e+01
2.500000e+01
2.500000e+01
2.500000e+01
2.500000e+01
2.500000e+01
2.500000e+01
2.500000e+01
2.500000e+01
3.125000e+01
3.125000e+01
3.125000e+01
3.125000e+01
3.125000e+01
3.125000e+01
3.125000e+01
3.125000e+01
3.125000e+01
3.125000e+01
3.125000e+01
3.125000e+01
3.125000e+01
3.125000e+01
3.125000e+01
3.125000e+01
3.125000e+01
3.125000e+01
3.125000e+01
3.125000e+01
3.125000e+01
3.125000e+01
3.125000e+01
3.125000e+01
3.125000e+01
3.125000e+01
3.125000e+01
3.125000e+01
3.125000e+01
3.125000e+01
3.125000e+01
3.125000e+01
3.125000e+01
3.750000e+01
3.750000e+01
3.750000e+01
3.750000e+01
3.750000e+01
3.750000e+01
3.750000e+01
3.750000e+01
3.750000e+01
3.750000e+01
3.750000e+01
3.750000e+01
3.750000e+01
3.750000e+01
3.750000e+01
3.750000e+01
3.750000e+01
3.750000e+01
3.750000e+01
3.750000e+01
3.750000e+01
3.750000e+01
3.750000e+01
3.750000e+01
3.750000e+01
3.750000e+01
3.750000e+01
3.750000e+01
3.750000e+01
3.750000e+01
3.750000e+01
3.750000e+01
3.750000e+01
4.375000e+01
4.375000e+01
4.375000e+01
4.375000e+01
4.375000e+01
4.375000e+01
4.375000e+01
4.375000e+01
4.375000e+01
4.375000e+01
4.375000e+01
4.375000e+01
4.375000e+01
4.375000e+01
4.375000e+01
4.375000e+01
4.375000e+01
4.375000e+01
4.375000e+01
4.375000e+01
4.375000e+01
4.375000e+01
4.375000e+01
4.375000e+01
4.375000e+01
4.375000e+01
4.375000e+01
4.375000e+01
4.375000e+01
4.375000e+01
4.375000e+01
4.375000e+01
4.375000e+01
5.000000e+01
5.000000e+01
5.000000e+01
5.000000e+01
5.000000e+01
5.000000e+01
5.000000e+01
5.000000e+01
5.000000e+01
5.000000e+01
5.000000e+01
5.000000e+01
5.000000e+01
5.000000e+01
5.000000e+01
5.000000e+01
5.000000e+01
5.000000e+01
5.000000e+01
5.000000e+01
5.000000e+01
5.000000e+01
5.000000e+01
5.000000e+01
5.000000e+01
5.000000e+01
5.000000e+01
5.000000e+01
5.000000e+01
5.000000e+01
5.000000e+01
5.000000e+01
5.000000e+01
5.625000e+01
5.625000e+01
5.625000e+01
5.625000e+01
5.625000e+01
5.625000e+01
5.625000e+01
5.625000e+01
5.625000e+01
5.625000e+01
5.625000e+01
5.625000e+01
5.625000e+01
5.625000e+01
5.625000e+01
5.625000e+01
5.625000e+01
5.625000e+01
5.625000e+01
5.625000e+01
5.625000e+01
5.625000e+01
5.625000e+01
5.625000e+01
5.625000e+01
5.625000e+01
5.625000e+01
5.625000e+01
5.625000e+01
5.625000e+01
5.625000e+01
5.625000e+01
5.625000e+01
6.250000e+01
6.250000e+01
6.250000e+01
6.250000e+01
6.250000e+01
6.250000e+01
6.250000e+01
6.250000e+01
6.250000e+01
6.250000e+01
6.250000e+01
6.250000e+01
6.250000e+01
6.250000e+01
6.250000e+01
6.250000e+01
6.250000e+01
6.250000e+01
6.250000e+01
6.250000e+01
6.250000e+01
6.250000e+01
6.250000e+01
6.250000e+01
6.250000e+01
6.250000e+01
6.250000e+01
6.250000e+01
6.250000e+01
6.250000e+01
6.250000e+01
6.250000e+01
6.250000e+01
6.875000e+01
6.875000e+01
6.875000e+01
6.875000e+01
6.875000e+01
6.875000e+01
6.875000e+01
6.875000e+01
6.875000e+01
6.875000e+01
6.875000e+01
6.875000e+01
6.875000e+01
6.875000e+01
6.875000e+01
6.875000e+01
6.875000e+01
6.875000e+01
6.875000e+01
6.875000e+01
6.875000e+01
6.875000e+01
6.875000e+01
6.875000e+01
6.875000e+01
6.875000e+01
6.875000e+01
6.875000e+01
6.875000e+01
6.875000e+01
6.875000e+01
6.875000e+01
6.875000e+01
7.500000e+01
7.500000e+01
7.500000e+01
7.500000e+01
7.500000e+01
7.500000e+01
7.500000e+01
7.500000e+01
7.500000e+01
7.500000e+01
7.500000e+01
7.500000e+01
7.500000e+01
7.500000e+01
7.500000e+01
7.500000e+01
7.500000e+01
7.500000e+01
7.500000e+01
7.500000e+01
7.500000e+01
7.500000e+01
7.500000e+01
7.500000e+01
7.500000e+01
7.500000e+01
7.500000e+01
7.500000e+01
7.500000e+01
7.500000e+01
7.500000e+01
7.500000e+01
7.500000e+01
8.125000e+01
8.125000e+01
8.125000e+01
8.125000e+01
8.125000e+01
8.125000e+01
8.125000e+01
8.125000e+01
8.125000e+01
8.125000e+01
8.125000e+01
8.125000e+01
8.125000e+01
8.125000e+01
8.125000e+01
8.125000e+01
8.125000e+01
8.125000e+01
8.125000e+01
8.125000e+01
8.125000e+01
8.125000e+01
8.125000e+01
8.125000e+01
8.125000e+01
8.125000e+01
8.125000e+01
8.125000e+01
8.125000e+01
8.125000e+01
8.125000e+01
8.125000e+01
8.125000e+01
8.750000e+01
8.750000e+01
8.750000e+01
8.750000e+01
8.750000e+01
8.750000e+01
8.750000e+01
8.750000e+01
8.750000e+01
8.750000e+01
8.750000e+01
8.750000e+01
8.750000e+01
8.750000e+01
8.750000e+01
8.750000e+01
8.750000e+01
8.750000e+01
8.750000e+01
8.750000e+01
8.750000e+01
8.750000e+01
8.750000e+01
8.750000e+01
8.750000e+01
8.750000e+01
8.750000e+01
8.750000e+01
8.750000e+01
8.750000e+01
8.750000e+01
8.750000e+01
8.750000e+01
9.375000e+01
9.375000e+01
9.375000e+01
9.375000e+01
9.375000e+01
9.375000e+01
9.375000e+01
9.375000e+01
9.375000e+01
9.375000e+01
9.375000e+01
9.375000e+01
9.375000e+01
9.375000e+01
9.375000e+01
9.375000e+01
9.375000e+01
9.375000e+01
9.375000e+01
9.375000e+01
9.375000e+01
9.375000e+01
9.375000e+01
9.375000e+01
9.375000e+01
9.375000e+01
9.375000e+01
9.375000e+01
9.375000e+01
9.375000e+01
9.375000e+01
9.375000e+01
9.375000e+01
1.000000e+02
1.000000e+02
1.000000e+02
1.000000e+02
1.000000e+02
1.000000e+02
1.000000e+02
1.000000e+02
1.000000e+02
1.000000e+02
1.000000e+02
1.000000e+02
1.000000e+02
1.000000e+02
1.000000e+02
1.000000e+02
1.000000e+02
1.000000e+02
1.000000e+02
1.000000e+02
1.000000e+02
1.000000e+02
1.000000e+02
1.000000e+02
1.000000e+02
1.000000e+02
1.000000e+02
1.000000e+02
1.000000e+02
1.000000e+02
1.000000e+02
1.000000e+02
1.000000e+02
0.000000e+00
-3.959167e-02
-7.183382e-02
-1.017016e-01
-1.303663e-01
-1.580464e-01
-1.847974e-01
-2.106172e-01
-2.354892e-01
-2.593955e-01
-2.823212e-01
-3.042557e-01
-3.251939e-01
-3.451352e-01
-3.640844e-01
-3.820514e-01
-3.990523e-01
-4.151104e-01
-4.302582e-01
-4.445391e-01
-4.580112e-01
-4.707513e-01
-4.828609e-01
-4.944747e-01
-5.057730e-01
-5.170010e-01
-5.284992e-01
-5.407531e-01
-5.544751e-01
-5.707134e-01
-5.908279e-01
-6.147987e-01
-6.294278e-01
0.000000e+00
-2.654515e-02
-5.523004e-02
-8.227610e-02
-1.079823e-01
-1.325935e-01
-1.562396e-01
-1.789777e-01
-2.008303e-01
-2.218048e-01
-2.419026e-01
-2.611238e-01
-2.794692e-01
-2.969418e-01
-3.135474e-01
-3.292952e-01
-3.441987e-01
-3.582762e-01
-3.715522e-01
-3.840583e-01
-3.958350e-01
-4.069331e-01
-4.174159e-01
-4.273608e-01
-4.368601e-01
-4.460203e-01
-4.549535e-01
-4.637522e-01
-4.724158e-01
-4.806623e-01
-4.875339e-01
-4.915514e-01
-4.971443e-01
0.000000e+00
-2.105568e-02
-4.334818e-02
-6.604548e-02
-8.810024e-02
-1.093422e-01
-1.297579e-01
-1.493666e-01
-1.681856e-01
-1.862268e-01
-2.034979e-01
-2.200043e-01
-2.357505e-01
-2.507411e-01
-2.649818e-01
-2.784795e-01
-2.912428e-01
-3.032829e-01
-3.146132e-01
-3.252500e-01
-3.352117e-01
-3.445186e-01
-3.531905e-01
-3.612427e-01
-3.686785e-01
-3.754741e-01
-3.815516e-01
-3.867322e-01
-3.906655e-01
-3.927834e-01
-3.925977e-01
-3.914084e-01
-3.979395e-01
0.000000e+00
-1.670581e-02
-3.433425e-02
-5.244527e-02
-7.051385e-02
-8.814477e-02
-1.051870e-01
-1.215865e-01
-1.373285e-01
-1.524124e-01
-1.668420e-01
-1.806223e-01
-1.937579e-01
-2.062528e-01
-2.181108e-01
-2.293352e-01
-2.399291e-01
-2.498953e-01
-2.592357e-01
-2.679509e-01
-2.760386e-01
-2.834915e-01
-2.902931e-01
-2.964116e-01
-3.017907e-01
-3.063352e-01
-3.098949e-01
-3.122522e-01
-3.131522e-01
-3.124840e-01
-3.108613e-01
-3.107644e-01
-3.169869e-01
0.000000e+00
-1.296604e-02
-2.655004e-02
-4.056796e-02
-5.469977e-02
-6.865824e-02
-8.225080e-02
-9.537992e-02
-1.080013e-01
-1.200978e-01
-1.316651e-01
-1.427037e-01
-1.532157e-01
-1.632028e-01
-1.726658e-01
-1.816038e-01
-1.900139e-01
-1.978912e-01
-2.052275e-01
-2.120105e-01
-2.182219e-01
-2.238353e-01
-2.288122e-01
-2.330979e-01
-2.366168e-01
-2.392692e-01
-2.409382e-01
-2.415237e-01
-2.410434e-01
-2.398681e-01
-2.391056e-01
-2.408664e-01
-2.461745e-01
0.000000e+00
-9.529287e-03
-1.946685e-02
-2.972367e-02
-4.012252e-02
-5.046930e-02
-6.060990e-02
-7.044416e-02
-7.991709e-02
-8.900195e-02
-9.768748e-02
-1.059697e-01
-1.138472e-01
-1.213185e-01
-1.283809e-01
-1.350293e-01
-1.412558e-01
-1.470490e-01
-1.523933e-01
-1.572678e-01
-1.616450e-01
-1.654893e-01
-1.687560e-01
-1.713902e-01
-1.733294e-01
-1.745126e-01
-1.749051e-01
-1.745528e-01
-1.736846e-01
-1.728585e-01
-1.730596e-01
-1.753043e-01
-1.796964e-01
0.000000e+00
-6.271416e-03
-1.279090e-02
-1.951719e-02
-2.635439e-02
-3.318739e-02
-3.991316e-02
-4.645659e-02
-5.277065e-02
-5.882943e-02
-6.461980e-02
-7.013519e-02
-7.537136e-02
-8.032396e-02
-8.498701e-02
-8.935198e-02
-9.340710e-02
-9.713678e-02
-1.005210e-01
-1.035349e-01
-1.061481e-01
-1.083252e-01
-1.100266e-01
-1.112123e-01
-1.118493e-01
-1.119284e-01
-1.114928e-01
-1.106868e-01
-1.098170e-01
-1.093954e-01
-1.100532e-01
-1.122387e-01
-1.157840e-01
0.000000e+00
-3.115010e-03
-6.347787e-03
-9.681713e-03
-1.307468e-02
-1.647310e-02
-1.982605e-02
-2.309372e-02
-2.624918e-02
-2.927601e-02
-3.216446e-02
-3.490809e-02
-3.750128e-02
-3.993760e-02
-4.220875e-02
-4.430383e-02
-4.620877e-02
-4.790600e-02
-4.937417e-02
-5.058828e-02
-5.152028e-02
-5.214064e-02
-5.242167e-02
-5.234350e-02
-5.190462e-02
-5.113850e-02
-5.013786e-02
-4.908353e-02
-4.826505e-02
-4.806002e-02
-4.883177e-02
-5.073828e-02
-5.355144e-02
0.000000e+00
-5.025757e-06
-1.089727e-05
-1.728928e-05
-2.386556e-05
-3.017276e-05
-3.552769e-05
-3.889211e-05
-3.872654e-05
-3.281415e-05
-1.804827e-05
9.820380e-06
5.647630e-05
1.293652e-04
2.380376e-04
3.944810e-04
6.133875e-04
9.122763e-04
1.311338e-03
1.832798e-03
2.499509e-03
3.332330e-03
4.345706e-03
5.540738e-03
6.895038e-03
8.349283e-03
9.792130e-03
1.104919e-02
1.188833e-02
1.205850e-02
1.137330e-02
9.821556e-03
7.648252e-03
0.000000e+00
3.105545e-03
6.327220e-03
9.649016e-03
1.302944e-02
1.641574e-02
1.975826e-02
2.301912e-02
2.617427e-02
2.921142e-02
3.212666e-02
3.492152e-02
3.760106e-02
4.017288e-02
4.264670e-02
4.503428e-02
4.734939e-02
4.960777e-02
5.182663e-02
5.402370e-02
5.621540e-02
5.841381e-02
6.062204e-02
6.282784e-02
6.499536e-02
6.705620e-02
6.890248e-02
7.038745e-02
7.134158e-02
7.161170e-02
7.112248e-02
6.994370e-02
6.833068e-02
0.000000e+00
6.263683e-03
1.277398e-02
1.949010e-02
2.631661e-02
3.313906e-02
3.985537e-02
4.639197e-02
5.270414e-02
5.876926e-02
6.457893e-02
7.013302e-02
7.543603e-02
8.049509e-02
8.531910e-02
8.991831e-02
9.430425e-02
9.848944e-02
1.024868e-01
1.063088e-01
1.099654e-01
1.134610e-01
1.167911e-01
1.199364e-01
1.228573e-01
1.254891e-01
1.277402e-01
1.294984e-01
1.306491e-01
1.311093e-01
1.308727e-01
1.300570e-01
1.289312e-01
0.000000e+00
9.524354e-03
1.945585e-02
2.970577e-02
4.009711e-02
5.043613e-02
6.056932e-02
7.039744e-02
7.986695e-02
8.895318e-02
9.764786e-02
1.059512e-01
1.138673e-01
1.214026e-01
1.285639e-01
1.353590e-01
1.417958e-01
1.478826e-01
1.536270e-01
1.590358e-01
1.641127e-01
1.688566e-01
1.732582e-01
1.772969e-01
1.809368e-01
1.841252e-01
1.867932e-01
1.888640e-01
1.902682e-01
1.909718e-01
1.910114e-01
1.905329e-01
1.898214e-01
0.000000e+00
1.296482e-02
2.654697e-02
4.056247e-02
5.469129e-02
6.864629e-02
8.223507e-02
9.536038e-02
1.079783e-01
1.200725e-01
1.316393e-01
1.426807e-01
1.532008e-01
1.632040e-01
1.726944e-01
1.816760e-01
1.901520e-01
1.981254e-01
2.055979e-01
2.125700e-01
2.190396e-01
2.250007e-01
2.304418e-01
2.353442e-01
2.396803e-01
2.434137e-01
2.465016e-01
2.489015e-01
2.505834e-01
2.515497e-01
2.518632e-01
2.516835e-01
2.513087e-01
0.000000e+00
1.670892e-02
3.434056e-02
5.245466e-02
7.052605e-02
8.815942e-02
1.052036e-01
1.216042e-01
1.373460e-01
1.524275e-01
1.668515e-01
1.806214e-01
1.937396e-01
2.062077e-01
2.180258e-01
2.291931e-01
2.397074e-01
2.495652e-01
2.587618e-01
2.672905e-01
2.751429e-01
2.823078e-01
2.887718e-01
2.945185e-01
2.995296e-01
3.037863e-01
3.072727e-01
3.099808e-01
3.119190e-01
3.131235e-01
3.136775e-01
3.137436e-01
3.136192e-01
0.000000e+00
2.106325e-02
4.336435e-02
6.607081e-02
8.813520e-02
1.093872e-01
1.298130e-01
1.494312e-01
1.682579e-01
1.863030e-01
2.035715e-01
2.200648e-01
2.357816e-01
2.507190e-01
2.648724e-01
2.782353e-01
2.907995e-01
3.025548e-01
3.134886e-01
3.235866e-01
3.328320e-01
3.412069e-01
3.486932e-01
3.552739e-01
3.609367e-01
3.656772e-01
3.695040e-01
3.724441e-01
3.745483e-01
3.758960e-01
3.766014e-01
3.768312e-01
3.768586e-01
0.000000e+00
2.655652e-02
5.525489e-02
8.231607e-02
1.080394e-01
1.326696e-01
1.563364e-01
1.790961e-01
2.009699e-01
2.219627e-01
2.420724e-01
2.612933e-01
2.796182e-01
2.970386e-01
3.135448e-01
3.291249e-01
3.437648e-01
3.574472e-01
3.701516e-01
3.818540e-01
3.925274e-01
4.021430e-01
4.106726e-01
4.180915e-01
4.243845e-01
4.295519e-01
4.336180e-01
4.366402e-01
4.387163e-01
4.399884e-01
4.406383e-01
4.408740e-01
4.409317e-01
0.000000e+00
3.960412e-02
7.186287e-02
1.017514e-01
1.304408e-01
1.581497e-01
1.849337e-01
2.107904e-01
2.357026e-01
2.596504e-01
2.826153e-01
3.045814e-01
3.255345e-01
3.454612e-01
3.643478e-01
3.821783e-01
3.989338e-01
4.145910e-01
4.291212e-01
4.424901e-01
4.546574e-01
4.655783e-01
4.752060e-01
4.834962e-01
4.904148e-01
4.959478e-01
5.001149e-01
5.029857e-01
5.046967e-01
5.054677e-01
5.056078e-01
5.054918e-01
5.054265e-01
0.000000e+00
-2.446690e-02
-4.270001e-02
-6.259673e-02
-8.475291e-02
-1.097805e-01
-1.378535e-01
-1.690207e-01
-2.032509e-01
-2.404709e-01
-2.805820e-01
-3.234707e-01
-3.690146e-01
-4.170862e-01
-4.675557e-01
-5.202920e-01
-5.751650e-01
-6.320469e-01
-6.908140e-01
-7.513501e-01
-8.135498e-01
-8.773244e-01
-9.426106e-01
-1.009383e+00
-1.077676e+00
-1.147614e+00
-1.219477e+00
-1.293806e+00
-1.371640e+00
-1.455033e+00
-1.548418e+00
-1.662253e+00
-1.819520e+00
0.000000e+00
-1.520524e-02
-3.429051e-02
-5.432145e-02
-7.678645e-02
-1.020860e-01
-1.304317e-01
-1.618717e-01
-1.963774e-01
-2.338756e-01
-2.742671e-01
-3.174373e-01
-3.632630e-01
-4.116155e-01
-4.623638e-01
-5.153755e-01
-5.705188e-01
-6.276641e-01
-6.866855e-01
-7.474635e-01
-8.098892e-01
-8.738695e-01
-9.393350e-01
-1.006253e+00
-1.074649e+00
-1.144637e+00
-1.216480e+00
-1.290704e+00
-1.368326e+00
-1.451365e+00
-1.544028e+00
-1.655330e+00
-1.802258e+00
0.000000e+00
-1.116913e-02
-2.764484e-02
-4.740253e-02
-6.990678e-02
-9.539273e-02
-1.239622e-01
-1.556418e-01
-1.903933e-01
-2.281399e-01
-2.687807e-01
-3.122005e-01
-3.582752e-01
-4.068758e-01
-4.578707e-01
-5.111271e-01
-5.665127e-01
-6.238969e-01
-6.831530e-01
-7.441606e-01
-8.068099e-01
-8.710069e-01
-9.366822e-01
-1.003804e+00
-1.072401e+00
-1.142592e+00
-1.214654e+00
-1.289126e+00
-1.367010e+00
-1.450127e+00
-1.541585e+00
-1.645057e+00
-1.759837e+00
0.000000e+00
-8.943763e-03
-2.340961e-02
-4.211371e-02
-6.432875e-02
-8.980678e-02
-1.184985e-01
-1.503555e-01
-1.853093e-01
-2.232688e-01
-2.641267e-01
-3.077650e-01
-3.540585e-01
-4.028781e-01
-4.540921e-01
-5.075682e-01
-5.631744e-01
-6.207808e-01
-6.802611e-01
-7.414963e-01
-8.043776e-01
-8.688135e-01
-9.347381e-01
-1.002125e+00
-1.071008e+00
-1.141514e+00
-1.213915e+00
-1.288709e+00
-1.366717e+00
-1.449137e+00
-1.537116e+00
-1.629907e+00
-1.716286e+00
0.000000e+00
-7.567894e-03
-2.063991e-02
-3.835803e-02
-6.006665e-02
-8.537764e-02
-1.140801e-01
-1.460407e-01
-1.811438e-01
-2.192747e-01
-2.603143e-01
-3.041388e-01
-3.506209e-01
-3.996312e-01
-4.510384e-01
-5.047112e-01
-5.605189e-01
-6.183329e-01
-6.780289e-01
-7.394896e-01
-8.026090e-01
-8.672981e-01
-9.334938e-01
-1.001171e+00
-1.070362e+00
-1.141178e+00
-1.213841e+00
-1.288708e+00
-1.366252e+00
-1.446853e+00
-1.530127e+00
-1.613016e+00
-1.688243e+00
0.000000e+00
-6.692416e-03
-1.882264e-02
-3.577353e-02
-5.699348e-02
-8.206738e-02
-1.107075e-01
-1.427089e-01
-1.779103e-01
-2.161698e-01
-2.573532e-01
-3.013296e-01
-3.479688e-01
-3.971404e-01
-4.487140e-01
-5.025596e-01
-5.585480e-01
-6.165528e-01
-6.764516e-01
-7.381289e-01
-8.014801e-01
-8.664170e-01
-9.328744e-01
-1.000820e+00
-1.070267e+00
-1.141281e+00
-1.213987e+00
-1.288543e+00
-1.365035e+00
-1.443205e+00
-1.521862e+00
-1.598195e+00
-1.667963e+00
0.000000e+00
-6.148317e-03
-1.767368e-02
-3.409354e-02
-5.493469e-02
-7.979251e-02
-1.083476e-01
-1.403530e-01
-1.756125e-01
-2.139609e-01
-2.552504e-01
-2.993429e-01
-3.461053e-01
-3.954065e-01
-4.471170e-01
-5.011082e-01
-5.572527e-01
-6.154257e-01
-6.755064e-01
-7.373798e-01
-8.009408e-01
-8.660972e-01
-9.327754e-01
-1.000925e+00
-1.070523e+00
-1.141570e+00
-1.214072e+00
-1.287989e+00
-1.363106e+00
-1.438813e+00
-1.513800e+00
-1.585904e+00
-1.652476e+00
0.000000e+00
-5.849326e-03
-1.703614e-02
-3.314684e-02
-5.375414e-02
-7.846742e-02
-1.069570e-01
-1.389553e-01
-1.742463e-01
-2.126496e-01
-2.540086e-01
-2.981803e-01
-3.450297e-01
-3.944258e-01
-4.462400e-01
-5.003450e-01
-5.566151e-01
-6.149266e-01
-6.751588e-01
-7.371960e-01
-8.009289e-01
-8.662575e-01
-9.330928e-01
-1.001358e+00
-1.070984e+00
-1.141900e+00
-1.214001e+00
-1.287091e+00
-1.360779e+00
-1.434340e+00
-1.506594e+00
-1.575915e+00
-1.640493e+00
0.000000e+00
-5.752993e-03
-1.683046e-02
-3.284000e-02
-5.336939e-02
-7.803374e-02
-1.065014e-01
-1.384993e-01
-1.738051e-01
-2.122341e-01
-2.536270e-01
-2.978399e-01
-3.447378e-01
-3.941906e-01
-4.460711e-01
-5.002532e-01
-5.566123e-01
-6.150250e-01
-6.753697e-01
-7.375276e-01
-8.013830e-01
-8.668241e-01
-9.337422e-01
-1.002029e+00
-1.071570e+00
-1.142226e+00
-1.213806e+00
-1.286014e+00
-1.358384e+00
-1.430203e+00
-1.500471e+00
-1.567948e+00
-1.631310e+00
0.000000e+00
-5.846540e-03
-1.703228e-02
-3.314351e-02
-5.375314e-02
-7.847096e-02
-1.069679e-01
-1.389777e-01
-1.742851e-01
-2.127116e-01
-2.541024e-01
-2.983168e-01
-3.452223e-01
-3.946908e-01
-4.465962e-01
-5.008139e-01
-5.572196e-01
-6.156897e-01
-6.761004e-01
-7.383284e-01
-8.022496e-01
-8.677383e-01
-9.346648e-01
-1.002890e+00
-1.072255e+00
-1.142569e+00
-1.213579e+00
-1.284940e+00
-1.356170e+00
-1.426621e+00
-1.495469e+00
-1.561755e+00
-1.624465e+00
0.000000e+00
-6.142970e-03
-1.766626e-02
-3.408713e-02
-5.493267e-02
-7.979915e-02
-1.083684e-01
-1.403956e-01
-1.756866e-01
-2.140794e-01
-2.554299e-01
-2.996044e-01
-3.464744e-01
-3.959146e-01
-4.478004e-01
-5.020081e-01
-5.584136e-01
-6.168920e-01
-6.773170e-01
-7.395597e-01
-8.034871e-01
-8.689594e-01
-9.358265e-01
-1.003921e+00
-1.073050e+00
-1.142981e+00
-1.213426e+00
-1.284019e+00
-1.354298e+00
-1.423696e+00
-1.491547e+00
-1.557109e+00
-1.619607e+00
0.000000e+00
-6.684984e-03
-1.881233e-02
-3.576456e-02
-5.699058e-02
-8.207647e-02
-1.107364e-01
-1.427680e-01
-1.780135e-01
-2.163350e-01
-2.576037e-01
-3.016948e-01
-3.484848e-01
-3.978509e-01
-4.496703e-01
-5.038196e-01
-5.601745e-01
-6.186086e-01
-6.789927e-01
-7.411925e-01
-8.050664e-01
-8.704620e-01
-9.372112e-01
-1.005124e+00
-1.073980e+00
-1.143521e+00
-1.213436e+00
-1.283359e+00
-1.352861e+00
-1.421457e+00
-1.488618e+00
-1.553795e+00
-1.616421e+00
0.000000e+00
-7.559139e-03
-2.062777e-02
-3.834746e-02
-6.006329e-02
-8.538865e-02
-1.141150e-01
-1.461120e-01
-1.812683e-01
-2.194743e-01
-2.606171e-01
-3.045802e-01
-3.512450e-01
-4.004907e-01
-4.521955e-01
-5.062364e-01
-5.624883e-01
-6.208235e-01
-6.811099e-01
-7.432085e-01
-8.069705e-01
-8.722332e-01
-9.388145e-01
-1.006507e+00
-1.075073e+00
-1.144235e+00
-1.213673e+00
-1.283026e+00
-1.351901e+00
-1.419885e+00
-1.486574e+00
-1.551595e+00
-1.614599e+00
0.000000e+00
-8.934765e-03
-2.339714e-02
-4.210297e-02
-6.432586e-02
-8.981970e-02
-1.185377e-01
-1.504351e-01
-1.854478e-01
-2.234903e-01
-2.644624e-01
-3.082539e-01
-3.547490e-01
-4.038286e-01
-4.553710e-01
-5.092530e-01
-5.653489e-01
-6.235297e-01
-6.836609e-01
-7.455999e-01
-8.091928e-01
-8.742694e-01
-9.406383e-01
-1.008081e+00
-1.076347e+00
-1.145150e+00
-1.214167e+00
-1.283045e+00
-1.351417e+00
-1.418931e+00
-1.485289e+00
-1.550281e+00
-1.613804e+00
0.000000e+00
-1.116128e-02
-2.763393e-02
-4.739346e-02
-6.990592e-02
-9.540845e-02
-1.240056e-01
-1.557274e-01
-1.905404e-01
-2.283736e-01
-2.691331e-01
-3.127119e-01
-3.589953e-01
-4.078645e-01
-4.591979e-01
-5.128717e-01
-5.687594e-01
-6.267308e-01
-6.866498e-01
-7.483714e-01
-8.117382e-01
-8.765760e-01
-9.426880e-01
-1.009850e+00
-1.077807e+00
-1.146268e+00
-1.214910e+00
-1.283391e+00
-1.351362e+00
-1.418514e+00
-1.484622e+00
-1.549621e+00
-1.613665e+00
0.000000e+00
-1.520020e-02
-3.428308e-02
-5.431611e-02
-7.678975e-02
-1.021065e-01
-1.304806e-01
-1.619636e-01
-1.965316e-01
-2.341168e-01
-2.746270e-01
-3.179556e-01
-3.639880e-01
-4.126052e-01
-4.636852e-01
-5.171036e-01
-5.727331e-01
-6.304423e-01
-6.900938e-01
-7.515411e-01
-8.146250e-01
-8.791692e-01
-9.449753e-01
-1.011818e+00
-1.079442e+00
-1.147558e+00
-1.215850e+00
-1.283983e+00
-1.351627e+00
-1.418495e+00
-1.484405e+00
-1.549382e+00
-1.613784e+00
0.000000e+00
-2.446618e-02
-4.269754e-02
-6.259720e-02
-8.476290e-02
-1.098087e-01
-1.379109e-01
-1.691219e-01
-2.034148e-01
-2.407216e-01
-2.809500e-01
-3.239936e-01
-3.697381e-01
-4.180643e-01
-4.688497e-01
-5.219692e-01
-5.772946e-01
-6.346931e-01
-6.940259e-01
-7.551449e-01
-8.178895e-01
-8.820824e-01
-9.475250e-01