TITLE = "Solution"
VARIABLES = x, y, u, v, psiu, psiv, t, stress
ZONE T="structure" N=561 E=512 F=FEBLOCK ET=QUADRILATERAL VARLOCATION=([7,8]=cellcentered)
0.000000e+00
6.250000e+00
1.250000e+01
1.875000e+01
2.500000e+01
3.125000e+01
3.750000e+01
4.375000e+01
5.000000e+01
5.625000e+01
6.250000e+01
6.875000e+01
7.500000e+01
8.125000e+01
8.750000e+01
9.375000e+01
1.000000e+02
1.062500e+02
1.125000e+02
1.187500e+02
1.250000e+02
1.312500e+02
1.375000e+02
1.437500e+02
1.500000e+02
1.562500e+02
1.625000e+02
1.687500e+02
1.750000e+02
1.812500e+02
1.875000e+02
1.937500e+02
2.000000e+02
0.000000e+00
6.250000e+00
1.250000e+01
1.875000e+01
2.500000e+01
3.125000e+01
3.750000e+01
4.375000e+01
5.000000e+01
5.625000e+01
6.250000e+01
6.875000e+01
7.500000e+01
8.125000e+01
8.750000e+01
9.375000e+01
1.000000e+02
1.062500e+02
1.125000e+02
1.187500e+02
1.250000e+02
1.312500e+02
1.375000e+02
1.437500e+02
1.500000e+02
1.562500e+02
1.625000e+02
1.687500e+02
1.750000e+02
1.812500e+02
1.875000e+02
1.937500e+02
2.000000e+02
0.000000e+00
6.250000e+00
1.250000e+01
1.875000e+01
2.500000e+01
3.125000e+01
3.750000e+01
4.375000e+01
5.000000e+01
5.625000e+01
6.250000e+01
6.875000e+01
7.500000e+01
8.125000e+01
8.750000e+01
9.375000e+01
1.000000e+02
1.062500e+02
1.125000e+02
1.187500e+02
1.250000e+02
1.312500e+02
1.375000e+02
1.437500e+02
1.500000e+02
1.562500e+02
1.625000e+02
1.687500e+02
1.750000e+02
1.812500e+02
1.875000e+02
1.937500e+02
2.000000e+02
0.000000e+00
6.250000e+00
1.250000e+01
1.875000e+01
2.500000e+01
3.125000e+01
3.750000e+01
4.375000e+01
5.000000e+01
5.625000e+01
6.250000e+01
6.875000e+01
7.500000e+01
8.125000e+01
8.750000e+01
9.375000e+01
1.000000e+02
1.062500e+02
1.125000e+02
1.187500e+02
1.250000e+02
1.312500e+02
1.375000e+02
1.437500e+02
1.500000e+02
1.562500e+02
1.625000e+02
1.687500e+02
1.750000e+02
1.812500e+02
1.875000e+02
1.937500e+02
2.000000e+02
0.000000e+00
6.250000e+00
1.250000e+01
1.875000e+01
2.500000e+01
3.125000e+01
3.750000e+01
4.375000e+01
5.000000e+01
5.625000e+01
6.250000e+01
6.875000e+01
7.500000e+01
8.125000e+01
8.750000e+01
9.375000e+01
1.000000e+02
1.062500e+02
1.125000e+02
1.187500e+02
1.250000e+02
1.312500e+02
1.375000e+02
1.437500e+02
1.500000e+02
1.562500e+02
1.625000e+02
1.687500e+02
1.750000e+02
1.812500e+02
1.875000e+02
1.937500e+02
2.000000e+02
0.000000e+00
6.250000e+00
1.250000e+01
1.875000e+01
2.500000e+01
3.125000e+01
3.750000e+01
4.375000e+01
5.000000e+01
5.625000e+01
6.250000e+01
6.875000e+01
7.500000e+01
8.125000e+01
8.750000e+01
9.375000e+01
1.000000e+02
1.062500e+02
1.125000e+02
1.187500e+02
1.250000e+02
1.312500e+02
1.375000e+02
1.437500e+02
1.500000e+02
1.562500e+02
1.625000e+02
1.687500e+02
1.750000e+02
1.812500e+02
1.875000e+02
1.937500e+02
2.000000e+02
0.000000e+00
6.250000e+00
1.250000e+01
1.875000e+01
2.500000e+01
3.125000e+01
3.750000e+01
4.375000e+01
5.000000e+01
5.625000e+01
6.250000e+01
6.875000e+01
7.500000e+01
8.125000e+01
8.750000e+01
9.375000e+01
1.000000e+02
1.062500e+02
1.125000e+02
1.187500e+02
1.250000e+02
1.312500e+02
1.375000e+02
1.437500e+02
1.500000e+02
1.562500e+02
1.625000e+02
1.687500e+02
1.750000e+02
1.812500e+02
1.875000e+02
1.937500e+02
2.000000e+02
0.000000e+00
6.250000e+00
1.250000e+01
1.875000e+01
2.500000e+01
3.125000e+01
3.750000e+01
4.375000e+01
5.000000e+01
5.625000e+01
6.250000e+01
6.875000e+01
7.500000e+01
8.125000e+01
8.750000e+01
9.375000e+01
1.000000e+02
1.062500e+02
1.125000e+02
1.187500e+02
1.250000e+02
1.312500e+02
1.375000e+02
1.437500e+02
1.500000e+02
1.562500e+02
1.625000e+02
1.687500e+02
1.750000e+02
1.812500e+02
1.875000e+02
1.937500e+02
2.000000e+02
0.000000e+00
6.250000e+00
1.250000e+01
1.875000e+01
2.500000e+01
3.125000e+01
3.750000e+01
4.375000e+01
5.000000e+01
5.625000e+01
6.250000e+01
6.875000e+01
7.500000e+01
8.125000e+01
8.750000e+01
9.375000e+01
1.000000e+02
1.062500e+02
1.125000e+02
1.187500e+02
1.250000e+02
1.312500e+02
1.375000e+02
1.437500e+02
1.500000e+02
1.562500e+02
1.625000e+02
1.687500e+02
1.750000e+02
1.812500e+02
1.875000e+02
1.937500e+02
2.000000e+02
0.000000e+00
6.250000e+00
1.250000e+01
1.875000e+01
2.500000e+01
3.125000e+01
3.750000e+01
4.375000e+01
5.000000e+01
5.625000e+01
6.250000e+01
6.875000e+01
7.500000e+01
8.125000e+01
8.750000e+01
9.375000e+01
1.000000e+02
1.062500e+02
1.125000e+02
1.187500e+02
1.250000e+02
1.312500e+02
1.375000e+02
1.437500e+02
1.500000e+02
1.562500e+02
1.625000e+02
1.687500e+02
1.750000e+02
1.812500e+02
1.875000e+02
1.937500e+02
2.000000e+02
0.000000e+00
6.250000e+00
1.250000e+01
1.875000e+01
2.500000e+01
3.125000e+01
3.750000e+01
4.375000e+01
5.000000e+01
5.625000e+01
6.250000e+01
6.875000e+01
7.500000e+01
8.125000e+01
8.750000e+01
9.375000e+01
1.000000e+02
1.062500e+02
1.125000e+02
1.187500e+02
1.250000e+02
1.312500e+02
1.375000e+02
1.437500e+02
1.500000e+02
1.562500e+02
1.625000e+02
1.687500e+02
1.750000e+02
1.812500e+02
1.875000e+02
1.937500e+02
2.000000e+02
0.000000e+00
6.250000e+00
1.250000e+01
1.875000e+01
2.500000e+01
3.125000e+01
3.750000e+01
4.375000e+01
5.000000e+01
5.625000e+01
6.250000e+01
6.875000e+01
7.500000e+01
8.125000e+01
8.750000e+01
9.375000e+01
1.000000e+02
1.062500e+02
1.125000e+02
1.187500e+02
1.250000e+02
1.312500e+02
1.375000e+02
1.437500e+02
1.500000e+02
1.562500e+02
1.625000e+02
1.687500e+02
1.750000e+02
1.812500e+02
1.875000e+02
1.937500e+02
2.000000e+02
0.000000e+00
6.250000e+00
1.250000e+01
1.875000e+01
2.500000e+01
3.125000e+01
3.750000e+01
4.375000e+01
5.000000e+01
5.625000e+01
6.250000e+01
6.875000e+01
7.500000e+01
8.125000e+01
8.750000e+01
9.375000e+01
1.000000e+02
1.062500e+02
1.125000e+02
1.187500e+02
1.250000e+02
1.312500e+02
1.375000e+02
1.437500e+02
1.500000e+02
1.562500e+02
1.625000e+02
1.687500e+02
1.750000e+02
1.812500e+02
1.875000e+02
1.937500e+02
2.000000e+02
0.000000e+00
6.250000e+00
1.250000e+01
1.875000e+01
2.500000e+01
3.125000e+01
3.750000e+01
4.375000e+01
5.000000e+01
5.625000e+01
6.250000e+01
6.875000e+01
7.500000e+01
8.125000e+01
8.750000e+01
9.375000e+01
1.000000e+02
1.062500e+02
1.125000e+02
1.187500e+02
1.250000e+02
1.312500e+02
1.375000e+02
1.437500e+02
1.500000e+02
1.562500e+02
1.625000e+02
1.687500e+02
1.750000e+02
1.812500e+02
1.875000e+02
1.937500e+02
2.000000e+02
0.000000e+00
6.250000e+00
1.250000e+01
1.875000e+01
2.500000e+01
3.125000e+01
3.750000e+01
4.375000e+01
5.000000e+01
5.625000e+01
6.250000e+01
6.875000e+01
7.500000e+01
8.125000e+01
8.750000e+01
9.375000e+01
1.000000e+02
1.062500e+02
1.125000e+02
1.187500e+02
1.250000e+02
1.312500e+02
1.375000e+02
1.437500e+02
1.500000e+02
1.562500e+02
1.625000e+02
1.687500e+02
1.750000e+02
1.812500e+02
1.875000e+02
1.937500e+02
2.000000e+02
0.000000e+00
6.250000e+00
1.250000e+01
1.875000e+01
2.500000e+01
3.125000e+01
3.750000e+01
4.375000e+01
5.000000e+01
5.625000e+01
6.250000e+01
6.875000e+01
7.500000e+01
8.125000e+01
8.750000e+01
9.375000e+01
1.000000e+02
1.062500e+02
1.125000e+02
1.187500e+02
1.250000e+02
1.312500e+02
1.375000e+02
1.437500e+02
1.500000e+02
1.562500e+02
1.625000e+02
1.687500e+02
1.750000e+02
1.812500e+02
1.875000e+02
1.937500e+02
2.000000e+02
0.000000e+00
6.250000e+00
1.250000e+01
1.875000e+01
2.500000e+01
3.125000e+01
3.750000e+01
4.375000e+01
5.000000e+01
5.625000e+01
6.250000e+01
6.875000e+01
7.500000e+01
8.125000e+01
8.750000e+01
9.375000e+01
1.000000e+02
1.062500e+02
1.125000e+02
1.187500e+02
1.250000e+02
1.312500e+02
1.375000e+02
1.437500e+02
1.500000e+02
1.562500e+02
1.625000e+02
1.687500e+02
1.750000e+02
1.812500e+02
1.875000e+02
1.937500e+02
2.000000e+02
0.000000e+00
0.000000e+00
0.000000e+00
0.000000e+00
0.000000e+00
0.000000e+00
0.000000e+00
0.000000e+00
0.000000e+00
0.000000e+00
0.000000e+00
0.000000e+00
0.000000e+00
0.000000e+00
0.000000e+00
0.000000e+00
0.000000e+00
0.000000e+00
0.000000e+00
0.000000e+00
0.000000e+00
0.000000e+00
0.000000e+00
0.000000e+00
0.000000e+00
0.000000e+00
0.000000e+00
0.000000e+00
0.000000e+00
0.000000e+00
0.000000e+00
0.000000e+00
0.000000e+00
6.250000e+00
6.250000e+00
6.250000e+00
6.250000e+00
6.250000e+00
6.250000e+00
6.250000e+00
6.250000e+00
6.250000e+00
6.250000e+00
6.250000e+00
6.250000e+00
6.250000e+00
6.250000e+00
6.250000e+00
6.250000e+00
6.250000e+00
6.250000e+00
6.250000e+00
6.250000e+00
6.250000e+00
6.250000e+00
6.250000e+00
6.250000e+00
6.250000e+00
6.250000e+00
6.250000e+00
6.250000e+00
6.250000e+00
6.250000e+00
6.250000e+00
6.250000e+00
6.250000e+00
1.250000e+01
1.250000e+01
1.250000e+01
1.250000e+01
1.250000e+01
1.250000e+01
1.250000e+01
1.250000e+01
1.250000e+01
1.250000e+01
1.250000e+01
1.250000e+01
1.250000e+01
1.250000e+01
1.250000e+01
1.250000e+01
1.250000e+01
1.250000e+01
1.250000e+01
1.250000e+01
1.250000e+01
1.250000e+01
1.250000e+01
1.250000e+01
1.250000e+01
1.250000e+01
1.250000e+01
1.250000e+01
1.250000e+01
1.250000e+01
1.250000e+01
1.250000e+01
1.250000e+01
1.875000e+01
1.875000e+01
1.875000e+01
1.875000e+01
1.875000e+01
1.875000e+01
1.875000e+01
1.875000e+01
1.875000e+01
1.875000e+01
1.875000e+01
1.875000e+01
1.875000e+01
1.875000e+01
1.875000e+01
1.875000e+01
1.875000e+01
1.875000e+01
1.875000e+01
1.875000e+01
1.875000e+01
1.875000e+01
1.875000e+01
1.875000e+01
1.875000e+01
1.875000e+01
1.875000e+01
1.875000e+01
1.875000e+01
1.875000e+01
1.875000e+01
1.875000e+01
1.875000e+01
2.500000e+01
2.500000e+01
2.500000e+01
2.500000e+01
2.500000e+01
2.500000e+01
2.500000e+01
2.500000e+01
2.500000e+01
2.500000e+01
2.500000e+01
2.500000e+01
2.500000e+01
2.500000e+01
2.500000e+01
2.500000e+01
2.500000e+01
2.500000e+01
2.500000e+01
2.500000e+01
2.500000e+01
2.500000e+01
2.500000e+01
2.500000e+01
2.500000e+01
2.500000e+01
2.500000e+01
2.500000e+01
2.500000e+01
2.500000e+01
2.500000e+01
2.500000e+01
2.500000e+01
3.125000e+01
3.125000e+01
3.125000e+01
3.125000e+01
3.125000e+01
3.125000e+01
3.125000e+01
3.125000e+01
3.125000e+01
3.125000e+01
3.125000e+01
3.125000e+01
3.125000e+01
3.125000e+01
3.125000e+01
3.125000e+01
3.125000e+01
3.125000e+01
3.125000e+01
3.125000e+01
3.125000e+01
3.125000e+01
3.125000e+01
3.125000e+01
3.125000e+01
3.125000e+01
3.125000e+01
3.125000e+01
3.125000e+01
3.125000e+01
3.125000e+01
3.125000e+01
3.125000e+01
3.750000e+01
3.750000e+01
3.750000e+01
3.750000e+01
3.750000e+01
3.750000e+01
3.750000e+01
3.750000e+01
3.750000e+01
3.750000e+01
3.750000e+01
3.750000e+01
3.750000e+01
3.750000e+01
3.750000e+01
3.750000e+01
3.750000e+01
3.750000e+01
3.750000e+01
3.750000e+01
3.750000e+01
3.750000e+01
3.750000e+01
3.750000e+01
3.750000e+01
3.750000e+01
3.750000e+01
3.750000e+01
3.750000e+01
3.750000e+01
3.750000e+01
3.750000e+01
3.750000e+01
4.375000e+01
4.375000e+01
4.375000e+01
4.375000e+01
4.375000e+01
4.375000e+01
4.375000e+01
4.375000e+01
4.375000e+01
4.375000e+01
4.375000e+01
4.375000e+01
4.375000e+01
4.375000e+01
4.375000e+01
4.375000e+01
4.375000e+01
4.375000e+01
4.375000e+01
4.375000e+01
4.375000e+01
4.375000e+01
4.375000e+01
4.375000e+01
4.375000e+01
4.375000e+01
4.375000e+01
4.375000e+01
4.375000e+01
4.375000e+01
4.375000e+01
4.375000e+01
4.375000e+01
5.000000e+01
5.000000e+01
5.000000e+01
5.000000e+01
5.000000e+01
5.000000e+01
5.000000e+01
5.000000e+01
5.000000e+01
5.000000e+01
5.000000e+01
5.000000e+01
5.000000e+01
5.000000e+01
5.000000e+01
5.000000e+01
5.000000e+01
5.000000e+01
5.000000e+01
5.000000e+01
5.000000e+01
5.000000e+01
5.000000e+01
5.000000e+01
5.000000e+01
5.000000e+01
5.000000e+01
5.000000e+01
5.000000e+01
5.000000e+01
5.000000e+01
5.000000e+01
5.000000e+01
5.625000e+01
5.625000e+01
5.625000e+01
5.625000e+01
5.625000e+01
5.625000e+01
5.625000e+01
5.625000e+01
5.625000e+01
5.625000e+01
5.625000e+01
5.625000e+01
5.625000e+01
5.625000e+01
5.625000e+01
5.625000e+01
5.625000e+01
5.625000e+01
5.625000e+01
5.625000e+01
5.625000e+01
5.625000e+01
5.625000e+01
5.625000e+01
5.625000e+01
5.625000e+01
5.625000e+01
5.625000e+01
5.625000e+01
5.625000e+01
5.625000e+01
5.625000e+01
5.625000e+01
6.250000e+01
6.250000e+01
6.250000e+01
6.250000e+01
6.250000e+01
6.250000e+01
6.250000e+01
6.250000e+01
6.250000e+01
6.250000e+01
6.250000e+01
6.250000e+01
6.250000e+01
6.250000e+01
6.250000e+01
6.250000e+01
6.250000e+01
6.250000e+01
6.250000e+01
6.250000e+01
6.250000e+01
6.250000e+01
6.250000e+01
6.250000e+01
6.250000e+01
6.250000e+01
6.250000e+01
6.250000e+01
6.250000e+01
6.250000e+01
6.250000e+01
6.250000e+01
6.250000e+01
6.875000e+01
6.875000e+01
6.875000e+01
6.875000e+01
6.875000e+01
6.875000e+01
6.875000e+01
6.875000e+01
6.875000e+01
6.875000e+01
6.875000e+01
6.875000e+01
6.875000e+01
6.875000e+01
6.875000e+01
6.875000e+01
6.875000e+01
6.875000e+01
6.875000e+01
6.875000e+01
6.875000e+01
6.875000e+01
6.875000e+01
6.875000e+01
6.875000e+01
6.875000e+01
6.875000e+01
6.875000e+01
6.875000e+01
6.875000e+01
6.875000e+01
6.875000e+01
6.875000e+01
7.500000e+01
7.500000e+01
7.500000e+01
7.500000e+01
7.500000e+01
7.500000e+01
7.500000e+01
7.500000e+01
7.500000e+01
7.500000e+01
7.500000e+01
7.500000e+01
7.500000e+01
7.500000e+01
7.500000e+01
7.500000e+01
7.500000e+01
7.500000e+01
7.500000e+01
7.500000e+01
7.500000e+01
7.500000e+01
7.500000e+01
7.500000e+01
7.500000e+01
7.500000e+01
7.500000e+01
7.500000e+01
7.500000e+01
7.500000e+01
7.500000e+01
7.500000e+01
7.500000e+01
8.125000e+01
8.125000e+01
8.125000e+01
8.125000e+01
8.125000e+01
8.125000e+01
8.125000e+01
8.125000e+01
8.125000e+01
8.125000e+01
8.125000e+01
8.125000e+01
8.125000e+01
8.125000e+01
8.125000e+01
8.125000e+01
8.125000e+01
8.125000e+01
8.125000e+01
8.125000e+01
8.125000e+01
8.125000e+01
8.125000e+01
8.125000e+01
8.125000e+01
8.125000e+01
8.125000e+01
8.125000e+01
8.125000e+01
8.125000e+01
8.125000e+01
8.125000e+01
8.125000e+01
8.750000e+01
8.750000e+01
8.750000e+01
8.750000e+01
8.750000e+01
8.750000e+01
8.750000e+01
8.750000e+01
8.750000e+01
8.750000e+01
8.750000e+01
8.750000e+01
8.750000e+01
8.750000e+01
8.750000e+01
8.750000e+01
8.750000e+01
8.750000e+01
8.750000e+01
8.750000e+01
8.750000e+01
8.750000e+01
8.750000e+01
8.750000e+01
8.750000e+01
8.750000e+01
8.750000e+01
8.750000e+01
8.750000e+01
8.750000e+01
8.750000e+01
8.750000e+01
8.750000e+01
9.375000e+01
9.375000e+01
9.375000e+01
9.375000e+01
9.375000e+01
9.375000e+01
9.375000e+01
9.375000e+01
9.375000e+01
9.375000e+01
9.375000e+01
9.375000e+01
9.375000e+01
9.375000e+01
9.375000e+01
9.375000e+01
9.375000e+01
9.375000e+01
9.375000e+01
9.375000e+01
9.375000e+01
9.375000e+01
9.375000e+01
9.375000e+01
9.375000e+01
9.375000e+01
9.375000e+01
9.375000e+01
9.375000e+01
9.375000e+01
9.375000e+01
9.375000e+01
9.375000e+01
1.000000e+02
1.000000e+02
1.000000e+02
1.000000e+02
1.000000e+02
1.000000e+02
1.000000e+02
1.000000e+02
1.000000e+02
1.000000e+02
1.000000e+02
1.000000e+02
1.000000e+02
1.000000e+02
1.000000e+02
1.000000e+02
1.000000e+02
1.000000e+02
1.000000e+02
1.000000e+02
1.000000e+02
1.000000e+02
1.000000e+02
1.000000e+02
1.000000e+02
1.000000e+02
1.000000e+02
1.000000e+02
1.000000e+02
1.000000e+02
1.000000e+02
1.000000e+02
1.000000e+02
0.000000e+00
-4.001191e-01
-7.094635e-01
-1.018226e+00
-1.327938e+00
-1.623522e+00
-1.925146e+00
-2.225112e+00
-2.521140e+00
-2.819133e+00
-3.116595e+00
-3.412747e+00
-3.709207e+00
-4.005388e+00
-4.300958e+00
-4.596321e+00
-4.891400e+00
-5.186063e+00
-5.480390e+00
-5.774456e+00
-6.068333e+00
-6.362122e+00
-6.656095e+00
-6.950750e+00
-7.246449e+00
-7.543226e+00
-7.841520e+00
-8.143567e+00
-8.455138e+00
-8.787790e+00
-9.150152e+00
-9.512725e+00
-9.712870e+00
0.000000e+00
-2.386439e-01
-4.911770e-01
-7.517519e-01
-1.018650e+00
-1.274358e+00
-1.536718e+00
-1.798814e+00
-2.057685e+00
-2.318361e+00
-2.578729e+00
-2.837920e+00
-3.097305e+00
-3.356418e+00
-3.614903e+00
-3.873078e+00
-4.130868e+00
-4.388118e+00
-4.644836e+00
-4.901016e+00
-5.156582e+00
-5.411369e+00
-5.665180e+00
-5.917773e+00
-6.168449e+00
-6.415745e+00
-6.657883e+00
-6.893579e+00
-7.121624e+00
-7.334183e+00
-7.496910e+00
-7.572577e+00
-7.668316e+00
0.000000e+00
-1.606689e-01
-3.361330e-01
-5.405944e-01
-7.569322e-01
-9.699118e-01
-1.191376e+00
-1.414266e+00
-1.636036e+00
-1.859817e+00
-2.083729e+00
-2.307084e+00
-2.530701e+00
-2.754121e+00
-2.977030e+00
-3.199542e+00
-3.421487e+00
-3.642625e+00
-3.862778e+00
-4.081684e+00
-4.298924e+00
-4.513854e+00
-4.725566e+00
-4.932809e+00
-5.133718e+00
-5.325596e+00
-5.505006e+00
-5.667623e+00
-5.806556e+00
-5.907043e+00
-5.944020e+00
-5.942601e+00
-6.030912e+00
0.000000e+00
-1.159243e-01
-2.406599e-01
-3.916652e-01
-5.555317e-01
-7.260824e-01
-9.060584e-01
-1.089045e+00
-1.273484e+00
-1.460277e+00
-1.647706e+00
-1.835293e+00
-2.023213e+00
-2.210948e+00
-2.398211e+00
-2.584871e+00
-2.770608e+00
-2.955056e+00
-3.137799e+00
-3.318256e+00
-3.495631e+00
-3.668811e+00
-3.836288e+00
-3.996088e+00
-4.145643e+00
-4.281667e+00
-4.400061e+00
-4.495605e+00
-4.561228e+00
-4.588189e+00
-4.580090e+00
-4.585580e+00
-4.663453e+00
0.000000e+00
-9.690555e-02
-1.952492e-01
-3.068309e-01
-4.279668e-01
-5.591725e-01
-6.973884e-01
-8.396563e-01
-9.852861e-01
-1.132981e+00
-1.281758e+00
-1.431241e+00
-1.580951e+00
-1.730480e+00
-1.879530e+00
-2.027747e+00
-2.174723e+00
-2.319976e+00
-2.462880e+00
-2.602617e+00
-2.738111e+00
-2.867952e+00
-2.990335e+00
-3.103018e+00
-3.203306e+00
-3.288028e+00
-3.353566e+00
-3.396087e+00
-3.412466e+00
-3.404016e+00
-3.390009e+00
-3.414887e+00
-3.492136e+00
0.000000e+00
-7.486542e-02
-1.509830e-01
-2.313750e-01
-3.194091e-01
-4.139759e-01
-5.139952e-01
-6.182581e-01
-7.254261e-01
-8.345561e-01
-9.449187e-01
-1.055916e+00
-1.167091e+00
-1.278051e+00
-1.388418e+00
-1.497790e+00
-1.605697e+00
-1.711558e+00
-1.814631e+00
-1.913963e+00
-2.008344e+00
-2.096264e+00
-2.175898e+00
-2.245119e+00
-2.301567e+00
-2.342773e+00
-2.366455e+00
-2.371308e+00
-2.358836e+00
-2.337432e+00
-2.331115e+00
-2.364916e+00
-2.441829e+00
0.000000e+00
-5.066347e-02
-1.018868e-01
-1.554748e-01
-2.127807e-01
-2.742486e-01
-3.393502e-01
-4.073858e-01
-4.775806e-01
-5.492097e-01
-6.217030e-01
-6.945882e-01
-7.674619e-01
-8.399682e-01
-9.117504e-01
-9.824118e-01
-1.051479e+00
-1.118359e+00
-1.182295e+00
-1.242332e+00
-1.297287e+00
-1.345743e+00
-1.386079e+00
-1.416548e+00
-1.435432e+00
-1.441304e+00
-1.433532e+00
-1.413258e+00
-1.385162e+00
-1.360651e+00
-1.359793e+00
-1.398196e+00
-1.472852e+00
0.000000e+00
-2.553154e-02
-5.135843e-02
-7.811912e-02
-1.064648e-01
-1.366385e-01
-1.685331e-01
-2.018138e-01
-2.360840e-01
-2.709576e-01
-3.060899e-01
-3.411795e-01
-3.759526e-01
-4.101427e-01
-4.434653e-01
-4.755902e-01
-5.061111e-01
-5.345120e-01
-5.601341e-01
-5.821489e-01
-5.995482e-01
-6.111659e-01
-6.157484e-01
-6.120948e-01
-5.992861e-01
-5.770424e-01
-5.462875e-01
-5.100249e-01
-4.745852e-01
-4.510361e-01
-4.543514e-01
-4.935649e-01
-5.632643e-01
0.000000e+00
-1.745004e-04
-2.634819e-04
-2.520738e-04
-1.137716e-04
1.870343e-04
6.934005e-04
1.455566e-03
2.532017e-03
3.991359e-03
5.914743e-03
8.398898e-03
1.156022e-02
1.554042e-02
2.051466e-02
2.670291e-02
3.438567e-02
4.392405e-02
5.578213e-02
7.054552e-02
8.892282e-02
1.117078e-01
1.396750e-01
1.733892e-01
2.129214e-01
2.574680e-01
3.048545e-01
3.509391e-01
3.890666e-01
4.099508e-01
4.039133e-01
3.671154e-01
3.065118e-01
0.000000e+00
2.517330e-02
5.080567e-02
7.756648e-02
1.061607e-01
1.369021e-01
1.697678e-01
2.045212e-01
2.408801e-01
2.785934e-01
3.174757e-01
3.574157e-01
3.983674e-01
4.403391e-01
4.833835e-01
5.275886e-01
5.730754e-01
6.199991e-01
6.685568e-01
7.189991e-01
7.716347e-01
8.267931e-01
8.847012e-01
9.452543e-01
1.007717e+00
1.070392e+00
1.130307e+00
1.182965e+00
1.222377e+00
1.241772e+00
1.235891e+00
1.204834e+00
1.156805e+00
0.000000e+00
5.027533e-02
1.012525e-01
1.547708e-01
2.122409e-01
2.741740e-01
3.401198e-01
4.094697e-01
4.815554e-01
5.557792e-01
6.317226e-01
7.090926e-01
7.876975e-01
8.674320e-01
9.482376e-01
1.030074e+00
1.112901e+00
1.196656e+00
1.281236e+00
1.366501e+00
1.452291e+00
1.538412e+00
1.624507e+00
1.709806e+00
1.792865e+00
1.871368e+00
1.942038e+00
2.000690e+00
2.042590e+00
2.063402e+00
2.061045e+00
2.038145e+00
2.003550e+00
0.000000e+00
7.442258e-02
1.501993e-01
2.304046e-01
3.184629e-01
4.133220e-01
5.139673e-01
6.192678e-01
7.279770e-01
8.392665e-01
9.525445e-01
1.067374e+00
1.183483e+00
1.300692e+00
1.418862e+00
1.537856e+00
1.657503e+00
1.777555e+00
1.897639e+00
2.017228e+00
2.135682e+00
2.252257e+00
2.365957e+00
2.475312e+00
2.578237e+00
2.672049e+00
2.753576e+00
2.819359e+00
2.866050e+00
2.891251e+00
2.894912e+00
2.881036e+00
2.858822e+00
0.000000e+00
9.636638e-02
1.942523e-01
3.054870e-01
4.264663e-01
5.577321e-01
6.962614e-01
8.391600e-01
9.858091e-01
1.135004e+00
1.285882e+00
1.438199e+00
1.591627e+00
1.745925e+00
1.900964e+00
2.056557e+00
2.212454e+00
2.368304e+00
2.523552e+00
2.677402e+00
2.828831e+00
2.976510e+00
3.118618e+00
3.252767e+00
3.376163e+00
3.485906e+00
3.579210e+00
3.653554e+00
3.706939e+00
3.738452e+00
3.749281e+00
3.744068e+00
3.732234e+00
0.000000e+00
1.152902e-01
2.394602e-01
3.900237e-01
5.535652e-01
7.239367e-01
9.038798e-01
1.087005e+00
1.271806e+00
1.459253e+00
1.647707e+00
1.836786e+00
2.026774e+00
2.217272e+00
2.408091e+00
2.599181e+00
2.790278e+00
2.980985e+00
3.170713e+00
3.358657e+00
3.543689e+00
3.723859e+00
3.896078e+00
4.056520e+00
4.201436e+00
4.327757e+00
4.433271e+00
4.516561e+00
4.577004e+00
4.615024e+00
4.632711e+00
4.634897e+00
4.630892e+00
0.000000e+00
1.601712e-01
3.352069e-01
5.393194e-01
7.553807e-01
9.681190e-01
1.189382e+00
1.412110e+00
1.633759e+00
1.857492e+00
2.081463e+00
2.305001e+00
2.528969e+00
2.752957e+00
2.976657e+00
3.200175e+00
3.423336e+00
3.645751e+00
3.866920e+00
4.086354e+00
4.303286e+00
4.515376e+00
4.717914e+00
4.904964e+00
5.071325e+00
5.213581e+00
5.330080e+00
5.420560e+00
5.485892e+00
5.528039e+00
5.550215e+00
5.557440e+00
5.558231e+00
0.000000e+00
2.385367e-01
4.909946e-01
7.515075e-01
1.018330e+00
1.273936e+00
1.536186e+00
1.798132e+00
2.056787e+00
2.317185e+00
2.577195e+00
2.835892e+00
3.094617e+00
3.352872e+00
3.610200e+00
3.866800e+00
4.122526e+00
4.376968e+00
4.629684e+00
4.880480e+00
5.128987e+00
5.372552e+00
5.604820e+00
5.817575e+00
6.003949e+00
6.159941e+00
6.284198e+00
6.377400e+00
6.441925e+00
6.481743e+00
6.502222e+00
6.509691e+00
6.511504e+00
0.000000e+00
4.005852e-01
7.102507e-01
1.019332e+00
1.329264e+00
1.625027e+00
1.926838e+00
2.226938e+00
2.523031e+00
2.821016e+00
3.118346e+00
3.414161e+00
3.710012e+00
4.005237e+00
4.299344e+00
4.592575e+00
4.884733e+00
5.175395e+00
5.464169e+00
5.750875e+00
6.034820e+00
6.312229e+00
6.574867e+00
6.812627e+00
7.017315e+00
7.184185e+00
7.311578e+00
7.400387e+00
7.454000e+00
7.478617e+00
7.483457e+00
7.480046e+00
7.478045e+00
0.000000e+00
-2.430235e-01
-4.708690e-01
-7.518353e-01
-1.068540e+00
-1.422054e+00
-1.815683e+00
-2.244798e+00
-2.710920e+00
-3.214908e+00
-3.755766e+00
-4.334112e+00
-4.950328e+00
-5.604226e+00
-6.296005e+00
-7.025859e+00
-7.793806e+00
-8.599920e+00
-9.444292e+00
-1.032697e+01
-1.124800e+01
-1.220745e+01
-1.320563e+01
-1.424313e+01
-1.532109e+01
-1.644170e+01
-1.760909e+01
-1.883033e+01
-2.011584e+01
-2.148119e+01
-2.296732e+01
-2.471995e+01
-2.714004e+01
0.000000e+00
-1.511221e-01
-3.904633e-01
-6.666778e-01
-9.851178e-01
-1.339088e+00
-1.731568e+00
-2.161415e+00
-2.627639e+00
-3.131308e+00
-3.672434e+00
-4.250896e+00
-4.867095e+00
-5.521145e+00
-6.213065e+00
-6.943024e+00
-7.711124e+00
-8.517413e+00
-9.361959e+00
-1.024482e+01
-1.116606e+01
-1.212575e+01
-1.312415e+01
-1.416190e+01
-1.524026e+01
-1.636150e+01
-1.752962e+01
-1.875135e+01
-2.003756e+01
-2.140697e+01
-2.290321e+01
-2.462829e+01
-2.681745e+01
0.000000e+00
-1.167901e-01
-3.306994e-01
-6.022233e-01
-9.178464e-01
-1.270004e+00
-1.661079e+00
-2.090367e+00
-2.556147e+00
-3.059490e+00
-3.600549e+00
-4.178999e+00
-4.795230e+00
-5.449409e+00
-6.141520e+00
-6.871718e+00
-7.640131e+00
-8.446816e+00
-9.291849e+00
-1.017532e+01
-1.109733e+01
-1.205802e+01
-1.305770e+01
-1.409709e+01
-1.517761e+01
-1.630165e+01
-1.747330e+01
-1.869987e+01
-1.999467e+01
-2.138210e+01
-2.288996e+01
-2.451389e+01
-2.623070e+01
0.000000e+00
-1.139144e-01
-3.054837e-01
-5.637917e-01
-8.710633e-01
-1.218133e+00
-1.606065e+00
-2.033060e+00
-2.497482e+00
-3.000013e+00
-3.540553e+00
-4.118794e+00
-4.735023e+00
-5.389353e+00
-6.081783e+00
-6.812456e+00
-7.581504e+00
-8.389019e+00
-9.235113e+00
-1.011993e+01
-1.104364e+01
-1.200647e+01
-1.300883e+01
-1.405151e+01
-1.513592e+01
-1.626451e+01
-1.744146e+01
-1.867450e+01
-1.997785e+01
-2.137355e+01
-2.285826e+01
-2.435493e+01
-2.573652e+01
0.000000e+00
-1.245887e-01
-3.062029e-01
-5.507356e-01
-8.457022e-01
-1.185322e+00
-1.567743e+00
-1.990651e+00
-2.452712e+00
-2.953693e+00
-3.493236e+00
-4.071074e+00
-4.687250e+00
-5.341796e+00
-6.034734e+00
-6.766177e+00
-7.536259e+00
-8.345120e+00
-9.192923e+00
-1.007987e+01
-1.100621e+01
-1.197222e+01
-1.297835e+01
-1.402534e+01
-1.511444e+01
-1.624782e+01
-1.742921e+01
-1.866535e+01
-1.996768e+01
-2.134752e+01
-2.277719e+01
-2.415148e+01
-2.537171e+01
0.000000e+00
-1.295983e-01
-3.106641e-01
-5.460535e-01
-8.324107e-01
-1.165116e+00
-1.542027e+00
-1.960935e+00
-2.420374e+00
-2.919649e+00
-3.458170e+00
-4.035583e+00
-4.651765e+00
-5.306659e+00
-6.000286e+00
-6.732749e+00
-7.504197e+00
-8.314819e+00
-9.164836e+00
-1.005450e+01
-1.098410e+01
-1.195391e+01
-1.296430e+01
-1.401579e+01
-1.510921e+01
-1.624601e+01
-1.742862e+01
-1.866107e+01
-1.994905e+01
-2.129272e+01
-2.264741e+01
-2.392374e+01
-2.503969e+01
0.000000e+00
-1.317497e-01
-3.128265e-01
-5.443564e-01
-8.252404e-01
-1.153163e+00
-1.525905e+00
-1.941651e+00
-2.398964e+00
-2.896839e+00
-3.434582e+00
-4.011739e+00
-4.628060e+00
-5.283444e+00
-5.977900e+00
-6.711535e+00
-7.484528e+00
-8.297119e+00
-9.149582e+00
-1.004221e+01
-1.097526e+01
-1.194896e+01
-1.296345e+01
-1.401884e+01
-1.511527e+01
-1.625301e+01
-1.743249e+01
-1.865410e+01
-1.991716e+01
-2.121246e+01
-2.249437e+01
-2.368987e+01
-2.472960e+01
0.000000e+00
-1.327316e-01
-3.137700e-01
-5.436728e-01
-8.219134e-01
-1.147067e+00
-1.517408e+00
-1.931288e+00
-2.387321e+00
-2.884429e+00
-3.421835e+00
-3.999021e+00
-4.615683e+00
-5.271690e+00
-5.967052e+00
-6.701894e+00
-7.476431e+00
-8.290951e+00
-9.145771e+00
-1.004120e+01
-1.097745e+01
-1.195461e+01
-1.297248e+01
-1.403061e+01
-1.512819e+01
-1.626402e+01
-1.743623e+01
-1.864157e+01
-1.987380e+01
-2.111782e+01
-2.233313e+01
-2.346116e+01
-2.444299e+01
0.000000e+00
-1.330879e-01
-3.141906e-01
-5.437271e-01
-8.212859e-01
-1.145699e+00
-1.515417e+00
-1.928879e+00
-2.384716e+00
-2.881844e+00
-3.419466e+00
-3.997046e+00
-4.614272e+00
-5.271013e+00
-5.967292e+00
-6.703258e+00
-7.479162e+00
-8.295329e+00
-9.152112e+00
-1.004982e+01
-1.098862e+01
-1.196840e+01
-1.298859e+01
-1.404802e+01
-1.514481e+01
-1.627613e+01
-1.743789e+01
-1.862377e+01
-1.982365e+01
-2.101933e+01
-2.217659e+01
-2.324935e+01
-2.418994e+01
0.000000e+00
-1.329726e-01
-3.142627e-01
-5.444607e-01
-8.230639e-01
-1.148662e+00
-1.519540e+00
-1.934057e+00
-2.390837e+00
-2.888814e+00
-3.427224e+00
-4.005568e+00
-4.623563e+00
-5.281108e+00
-5.978247e+00
-6.715153e+00
-7.492102e+00
-8.309445e+00
-9.167556e+00
-1.006675e+01
-1.100715e+01
-1.198847e+01
-1.300975e+01
-1.406907e+01
-1.516337e+01
-1.628826e+01
-1.743767e+01
-1.860306e+01
-1.977210e+01
-2.092615e+01
-2.203688e+01
-2.306884e+01
-2.398543e+01
0.000000e+00
-1.322060e-01
-3.137615e-01
-5.458626e-01
-8.274546e-01
-1.156247e+00
-1.530038e+00
-1.947029e+00
-2.405800e+00
-2.905368e+00
-3.445068e+00
-4.024477e+00
-4.643388e+00
-5.301747e+00
-5.999630e+00
-6.737223e+00
-7.514810e+00
-8.332746e+00
-9.191410e+00
-1.009113e+01
-1.103203e+01
-1.201374e+01
-1.303494e+01
-1.409297e+01
-1.518358e+01
-1.630092e+01
-1.743734e+01
-1.858294e+01
-1.972470e+01
-2.084522e+01
-2.192163e+01
-2.292729e+01
-2.383487e+01
0.000000e+00
-1.302140e-01
-3.119350e-01
-5.481383e-01
-8.355155e-01
-1.169475e+00
-1.547900e+00
-1.968598e+00
-2.430129e+00
-2.931835e+00
-3.473161e+00
-4.053798e+00
-4.673672e+00
-5.332792e+00
-6.031253e+00
-6.769253e+00
-7.547064e+00
-8.365016e+00
-9.223455e+00
-1.012272e+01
-1.106303e+01
-1.204407e+01
-1.306424e+01
-1.412012e+01
-1.520633e+01
-1.631574e+01
-1.743957e+01
-1.856727e+01
-1.968609e+01
-2.078073e+01
-2.183327e+01
-2.282437e+01
-2.373455e+01
0.000000e+00
-1.252730e-01
-3.076409e-01
-5.531928e-01
-8.494460e-01
-1.190637e+00
-1.574960e+00
-2.000108e+00
-2.464780e+00
-2.968794e+00
-3.511836e+00
-4.093685e+00
-4.714441e+00
-5.374201e+00
-6.073057e+00
-6.811205e+00
-7.588903e+00
-8.406426e+00
-9.264035e+00
-1.016206e+01
-1.110091e+01
-1.208043e+01
-1.309883e+01
-1.415194e+01
-1.523333e+01
-1.633485e+01
-1.744704e+01
-1.855921e+01
-1.965935e+01
-2.073439e+01
-2.177076e+01
-2.275548e+01
-2.367654e+01
0.000000e+00
-1.145246e-01
-3.068870e-01
-5.663693e-01
-8.751281e-01
-1.223993e+00
-1.614098e+00
-2.043647e+00
-2.511035e+00
-3.017021e+00
-3.561547e+00
-4.144348e+00
-4.765775e+00
-5.425999e+00
-6.125069e+00
-6.863188e+00
-7.640591e+00
-8.457478e+00
-9.313996e+00
-1.021043e+01
-1.114734e+01
-1.212479e+01
-1.314075e+01
-1.419037e+01
-1.526641e+01
-1.636009e+01
-1.746169e+01
-1.856064e+01
-1.964578e+01
-2.070595e+01
-2.173119e+01
-2.271416e+01
-2.365088e+01
0.000000e+00
-1.172184e-01
-3.319675e-01
-6.047336e-01
-9.219502e-01
-1.276006e+00
-1.669370e+00
-2.101354e+00
-2.570265e+00
-3.077263e+00
-3.622546e+00
-4.205832e+00
-4.827579e+00
-5.488002e+00
-6.187116e+00
-6.925114e+00
-7.702193e+00
-8.518476e+00
-9.374030e+00
-1.026908e+01
-1.120417e+01
-1.217925e+01
-1.319199e+01
-1.423703e+01
-1.530675e+01
-1.639228e+01
-1.748399e+01
-1.857164e+01
-1.964474e+01
-2.069352e+01
-2.171060e+01
-2.269332e+01
-2.364601e+01
0.000000e+00
-1.514482e-01
-3.916620e-01
-6.691351e-01
-9.891955e-01
-1.345097e+00
-1.739891e+00
-2.172466e+00
-2.641861e+00
-3.149231e+00
-3.694638e+00
-4.277999e+00
-4.899784e+00
-5.560145e+00
-6.259124e+00
-6.996914e+00
-7.773652e+00
-8.589400e+00
-9.444230e+00
-1.033836e+01
-1.127208e+01
-1.224472e+01
-1.325333e+01
-1.429231e+01
-1.535425e+01
-1.643075e+01
-1.751262e+01
-1.859008e+01
-1.965324e+01
-2.069316e+01
-2.170392e+01
-2.268576e+01
-2.364949e+01
0.000000e+00
-2.434114e-01
-4.720998e-01
-7.543266e-01
-1.072636e+00
-1.428086e+00
-1.824028e+00
-2.255858e+00
-2.725141e+00
-3.232814e+00
-3.777923e+00
-4.361124e+00
-4.982867e+00
-5.642992e+00
-6.341703e+00
-7.079226e+00
-7.855591e+00
-8.670820e+00
-9.525035e+00
-1.041849e+01
-1.135104e+01
-1.232094e+01
-1.332428e+01