TITLE = "Solution"
VARIABLES = x, y, u, v, psiu, psiv, t, stress
ZONE T="structure" N=561 E=512 F=FEBLOCK ET=QUADRILATERAL VARLOCATION=([7,8]=cellcentered)
0.000000e+00
6.250000e+00
1.250000e+01
1.875000e+01
2.500000e+01
3.125000e+01
3.750000e+01
4.375000e+01
5.000000e+01
5.625000e+01
6.250000e+01
6.875000e+01
7.500000e+01
8.125000e+01
8.750000e+01
9.375000e+01
1.000000e+02
1.062500e+02
1.125000e+02
1.187500e+02
1.250000e+02
1.312500e+02
1.375000e+02
1.437500e+02
1.500000e+02
1.562500e+02
1.625000e+02
1.687500e+02
1.750000e+02
1.812500e+02
1.875000e+02
1.937500e+02
2.000000e+02
0.000000e+00
6.250000e+00
1.250000e+01
1.875000e+01
2.500000e+01
3.125000e+01
3.750000e+01
4.375000e+01
5.000000e+01
5.625000e+01
6.250000e+01
6.875000e+01
7.500000e+01
8.125000e+01
8.750000e+01
9.375000e+01
1.000000e+02
1.062500e+02
1.125000e+02
1.187500e+02
1.250000e+02
1.312500e+02
1.375000e+02
1.437500e+02
1.500000e+02
1.562500e+02
1.625000e+02
1.687500e+02
1.750000e+02
1.812500e+02
1.875000e+02
1.937500e+02
2.000000e+02
0.000000e+00
6.250000e+00
1.250000e+01
1.875000e+01
2.500000e+01
3.125000e+01
3.750000e+01
4.375000e+01
5.000000e+01
5.625000e+01
6.250000e+01
6.875000e+01
7.500000e+01
8.125000e+01
8.750000e+01
9.375000e+01
1.000000e+02
1.062500e+02
1.125000e+02
1.187500e+02
1.250000e+02
1.312500e+02
1.375000e+02
1.437500e+02
1.500000e+02
1.562500e+02
1.625000e+02
1.687500e+02
1.750000e+02
1.812500e+02
1.875000e+02
1.937500e+02
2.000000e+02
0.000000e+00
6.250000e+00
1.250000e+01
1.875000e+01
2.500000e+01
3.125000e+01
3.750000e+01
4.375000e+01
5.000000e+01
5.625000e+01
6.250000e+01
6.875000e+01
7.500000e+01
8.125000e+01
8.750000e+01
9.375000e+01
1.000000e+02
1.062500e+02
1.125000e+02
1.187500e+02
1.250000e+02
1.312500e+02
1.375000e+02
1.437500e+02
1.500000e+02
1.562500e+02
1.625000e+02
1.687500e+02
1.750000e+02
1.812500e+02
1.875000e+02
1.937500e+02
2.000000e+02
0.000000e+00
6.250000e+00
1.250000e+01
1.875000e+01
2.500000e+01
3.125000e+01
3.750000e+01
4.375000e+01
5.000000e+01
5.625000e+01
6.250000e+01
6.875000e+01
7.500000e+01
8.125000e+01
8.750000e+01
9.375000e+01
1.000000e+02
1.062500e+02
1.125000e+02
1.187500e+02
1.250000e+02
1.312500e+02
1.375000e+02
1.437500e+02
1.500000e+02
1.562500e+02
1.625000e+02
1.687500e+02
1.750000e+02
1.812500e+02
1.875000e+02
1.937500e+02
2.000000e+02
0.000000e+00
6.250000e+00
1.250000e+01
1.875000e+01
2.500000e+01
3.125000e+01
3.750000e+01
4.375000e+01
5.000000e+01
5.625000e+01
6.250000e+01
6.875000e+01
7.500000e+01
8.125000e+01
8.750000e+01
9.375000e+01
1.000000e+02
1.062500e+02
1.125000e+02
1.187500e+02
1.250000e+02
1.312500e+02
1.375000e+02
1.437500e+02
1.500000e+02
1.562500e+02
1.625000e+02
1.687500e+02
1.750000e+02
1.812500e+02
1.875000e+02
1.937500e+02
2.000000e+02
0.000000e+00
6.250000e+00
1.250000e+01
1.875000e+01
2.500000e+01
3.125000e+01
3.750000e+01
4.375000e+01
5.000000e+01
5.625000e+01
6.250000e+01
6.875000e+01
7.500000e+01
8.125000e+01
8.750000e+01
9.375000e+01
1.000000e+02
1.062500e+02
1.125000e+02
1.187500e+02
1.250000e+02
1.312500e+02
1.375000e+02
1.437500e+02
1.500000e+02
1.562500e+02
1.625000e+02
1.687500e+02
1.750000e+02
1.812500e+02
1.875000e+02
1.937500e+02
2.000000e+02
0.000000e+00
6.250000e+00
1.250000e+01
1.875000e+01
2.500000e+01
3.125000e+01
3.750000e+01
4.375000e+01
5.000000e+01
5.625000e+01
6.250000e+01
6.875000e+01
7.500000e+01
8.125000e+01
8.750000e+01
9.375000e+01
1.000000e+02
1.062500e+02
1.125000e+02
1.187500e+02
1.250000e+02
1.312500e+02
1.375000e+02
1.437500e+02
1.500000e+02
1.562500e+02
1.625000e+02
1.687500e+02
1.750000e+02
1.812500e+02
1.875000e+02
1.937500e+02
2.000000e+02
0.000000e+00
6.250000e+00
1.250000e+01
1.875000e+01
2.500000e+01
3.125000e+01
3.750000e+01
4.375000e+01
5.000000e+01
5.625000e+01
6.250000e+01
6.875000e+01
7.500000e+01
8.125000e+01
8.750000e+01
9.375000e+01
1.000000e+02
1.062500e+02
1.125000e+02
1.187500e+02
1.250000e+02
1.312500e+02
1.375000e+02
1.437500e+02
1.500000e+02
1.562500e+02
1.625000e+02
1.687500e+02
1.750000e+02
1.812500e+02
1.875000e+02
1.937500e+02
2.000000e+02
0.000000e+00
6.250000e+00
1.250000e+01
1.875000e+01
2.500000e+01
3.125000e+01
3.750000e+01
4.375000e+01
5.000000e+01
5.625000e+01
6.250000e+01
6.875000e+01
7.500000e+01
8.125000e+01
8.750000e+01
9.375000e+01
1.000000e+02
1.062500e+02
1.125000e+02
1.187500e+02
1.250000e+02
1.312500e+02
1.375000e+02
1.437500e+02
1.500000e+02
1.562500e+02
1.625000e+02
1.687500e+02
1.750000e+02
1.812500e+02
1.875000e+02
1.937500e+02
2.000000e+02
0.000000e+00
6.250000e+00
1.250000e+01
1.875000e+01
2.500000e+01
3.125000e+01
3.750000e+01
4.375000e+01
5.000000e+01
5.625000e+01
6.250000e+01
6.875000e+01
7.500000e+01
8.125000e+01
8.750000e+01
9.375000e+01
1.000000e+02
1.062500e+02
1.125000e+02
1.187500e+02
1.250000e+02
1.312500e+02
1.375000e+02
1.437500e+02
1.500000e+02
1.562500e+02
1.625000e+02
1.687500e+02
1.750000e+02
1.812500e+02
1.875000e+02
1.937500e+02
2.000000e+02
0.000000e+00
6.250000e+00
1.250000e+01
1.875000e+01
2.500000e+01
3.125000e+01
3.750000e+01
4.375000e+01
5.000000e+01
5.625000e+01
6.250000e+01
6.875000e+01
7.500000e+01
8.125000e+01
8.750000e+01
9.375000e+01
1.000000e+02
1.062500e+02
1.125000e+02
1.187500e+02
1.250000e+02
1.312500e+02
1.375000e+02
1.437500e+02
1.500000e+02
1.562500e+02
1.625000e+02
1.687500e+02
1.750000e+02
1.812500e+02
1.875000e+02
1.937500e+02
2.000000e+02
0.000000e+00
6.250000e+00
1.250000e+01
1.875000e+01
2.500000e+01
3.125000e+01
3.750000e+01
4.375000e+01
5.000000e+01
5.625000e+01
6.250000e+01
6.875000e+01
7.500000e+01
8.125000e+01
8.750000e+01
9.375000e+01
1.000000e+02
1.062500e+02
1.125000e+02
1.187500e+02
1.250000e+02
1.312500e+02
1.375000e+02
1.437500e+02
1.500000e+02
1.562500e+02
1.625000e+02
1.687500e+02
1.750000e+02
1.812500e+02
1.875000e+02
1.937500e+02
2.000000e+02
0.000000e+00
6.250000e+00
1.250000e+01
1.875000e+01
2.500000e+01
3.125000e+01
3.750000e+01
4.375000e+01
5.000000e+01
5.625000e+01
6.250000e+01
6.875000e+01
7.500000e+01
8.125000e+01
8.750000e+01
9.375000e+01
1.000000e+02
1.062500e+02
1.125000e+02
1.187500e+02
1.250000e+02
1.312500e+02
1.375000e+02
1.437500e+02
1.500000e+02
1.562500e+02
1.625000e+02
1.687500e+02
1.750000e+02
1.812500e+02
1.875000e+02
1.937500e+02
2.000000e+02
0.000000e+00
6.250000e+00
1.250000e+01
1.875000e+01
2.500000e+01
3.125000e+01
3.750000e+01
4.375000e+01
5.000000e+01
5.625000e+01
6.250000e+01
6.875000e+01
7.500000e+01
8.125000e+01
8.750000e+01
9.375000e+01
1.000000e+02
1.062500e+02
1.125000e+02
1.187500e+02
1.250000e+02
1.312500e+02
1.375000e+02
1.437500e+02
1.500000e+02
1.562500e+02
1.625000e+02
1.687500e+02
1.750000e+02
1.812500e+02
1.875000e+02
1.937500e+02
2.000000e+02
0.000000e+00
6.250000e+00
1.250000e+01
1.875000e+01
2.500000e+01
3.125000e+01
3.750000e+01
4.375000e+01
5.000000e+01
5.625000e+01
6.250000e+01
6.875000e+01
7.500000e+01
8.125000e+01
8.750000e+01
9.375000e+01
1.000000e+02
1.062500e+02
1.125000e+02
1.187500e+02
1.250000e+02
1.312500e+02
1.375000e+02
1.437500e+02
1.500000e+02
1.562500e+02
1.625000e+02
1.687500e+02
1.750000e+02
1.812500e+02
1.875000e+02
1.937500e+02
2.000000e+02
0.000000e+00
6.250000e+00
1.250000e+01
1.875000e+01
2.500000e+01
3.125000e+01
3.750000e+01
4.375000e+01
5.000000e+01
5.625000e+01
6.250000e+01
6.875000e+01
7.500000e+01
8.125000e+01
8.750000e+01
9.375000e+01
1.000000e+02
1.062500e+02
1.125000e+02
1.187500e+02
1.250000e+02
1.312500e+02
1.375000e+02
1.437500e+02
1.500000e+02
1.562500e+02
1.625000e+02
1.687500e+02
1.750000e+02
1.812500e+02
1.875000e+02
1.937500e+02
2.000000e+02
0.000000e+00
0.000000e+00
0.000000e+00
0.000000e+00
0.000000e+00
0.000000e+00
0.000000e+00
0.000000e+00
0.000000e+00
0.000000e+00
0.000000e+00
0.000000e+00
0.000000e+00
0.000000e+00
0.000000e+00
0.000000e+00
0.000000e+00
0.000000e+00
0.000000e+00
0.000000e+00
0.000000e+00
0.000000e+00
0.000000e+00
0.000000e+00
0.000000e+00
0.000000e+00
0.000000e+00
0.000000e+00
0.000000e+00
0.000000e+00
0.000000e+00
0.000000e+00
0.000000e+00
6.250000e+00
6.250000e+00
6.250000e+00
6.250000e+00
6.250000e+00
6.250000e+00
6.250000e+00
6.250000e+00
6.250000e+00
6.250000e+00
6.250000e+00
6.250000e+00
6.250000e+00
6.250000e+00
6.250000e+00
6.250000e+00
6.250000e+00
6.250000e+00
6.250000e+00
6.250000e+00
6.250000e+00
6.250000e+00
6.250000e+00
6.250000e+00
6.250000e+00
6.250000e+00
6.250000e+00
6.250000e+00
6.250000e+00
6.250000e+00
6.250000e+00
6.250000e+00
6.250000e+00
1.250000e+01
1.250000e+01
1.250000e+01
1.250000e+01
1.250000e+01
1.250000e+01
1.250000e+01
1.250000e+01
1.250000e+01
1.250000e+01
1.250000e+01
1.250000e+01
1.250000e+01
1.250000e+01
1.250000e+01
1.250000e+01
1.250000e+01
1.250000e+01
1.250000e+01
1.250000e+01
1.250000e+01
1.250000e+01
1.250000e+01
1.250000e+01
1.250000e+01
1.250000e+01
1.250000e+01
1.250000e+01
1.250000e+01
1.250000e+01
1.250000e+01
1.250000e+01
1.250000e+01
1.875000e+01
1.875000e+01
1.875000e+01
1.875000e+01
1.875000e+01
1.875000e+01
1.875000e+01
1.875000e+01
1.875000e+01
1.875000e+01
1.875000e+01
1.875000e+01
1.875000e+01
1.875000e+01
1.875000e+01
1.875000e+01
1.875000e+01
1.875000e+01
1.875000e+01
1.875000e+01
1.875000e+01
1.875000e+01
1.875000e+01
1.875000e+01
1.875000e+01
1.875000e+01
1.875000e+01
1.875000e+01
1.875000e+01
1.875000e+01
1.875000e+01
1.875000e+01
1.875000e+01
2.500000e+01
2.500000e+01
2.500000e+01
2.500000e+01
2.500000e+01
2.500000e+01
2.500000e+01
2.500000e+01
2.500000e+01
2.500000e+01
2.500000e+01
2.500000e+01
2.500000e+01
2.500000e+01
2.500000e+01
2.500000e+01
2.500000e+01
2.500000e+01
2.500000e+01
2.500000e+01
2.500000e+01
2.500000e+01
2.500000e+01
2.500000e+01
2.500000e+01
2.500000e+01
2.500000e+01
2.500000e+01
2.500000e+01
2.500000e+01
2.500000e+01
2.500000e+01
2.500000e+01
3.125000e+01
3.125000e+01
3.125000e+01
3.125000e+01
3.125000e+01
3.125000e+01
3.125000e+01
3.125000e+01
3.125000e+01
3.125000e+01
3.125000e+01
3.125000e+01
3.125000e+01
3.125000e+01
3.125000e+01
3.125000e+01
3.125000e+01
3.125000e+01
3.125000e+01
3.125000e+01
3.125000e+01
3.125000e+01
3.125000e+01
3.125000e+01
3.125000e+01
3.125000e+01
3.125000e+01
3.125000e+01
3.125000e+01
3.125000e+01
3.125000e+01
3.125000e+01
3.125000e+01
3.750000e+01
3.750000e+01
3.750000e+01
3.750000e+01
3.750000e+01
3.750000e+01
3.750000e+01
3.750000e+01
3.750000e+01
3.750000e+01
3.750000e+01
3.750000e+01
3.750000e+01
3.750000e+01
3.750000e+01
3.750000e+01
3.750000e+01
3.750000e+01
3.750000e+01
3.750000e+01
3.750000e+01
3.750000e+01
3.750000e+01
3.750000e+01
3.750000e+01
3.750000e+01
3.750000e+01
3.750000e+01
3.750000e+01
3.750000e+01
3.750000e+01
3.750000e+01
3.750000e+01
4.375000e+01
4.375000e+01
4.375000e+01
4.375000e+01
4.375000e+01
4.375000e+01
4.375000e+01
4.375000e+01
4.375000e+01
4.375000e+01
4.375000e+01
4.375000e+01
4.375000e+01
4.375000e+01
4.375000e+01
4.375000e+01
4.375000e+01
4.375000e+01
4.375000e+01
4.375000e+01
4.375000e+01
4.375000e+01
4.375000e+01
4.375000e+01
4.375000e+01
4.375000e+01
4.375000e+01
4.375000e+01
4.375000e+01
4.375000e+01
4.375000e+01
4.375000e+01
4.375000e+01
5.000000e+01
5.000000e+01
5.000000e+01
5.000000e+01
5.000000e+01
5.000000e+01
5.000000e+01
5.000000e+01
5.000000e+01
5.000000e+01
5.000000e+01
5.000000e+01
5.000000e+01
5.000000e+01
5.000000e+01
5.000000e+01
5.000000e+01
5.000000e+01
5.000000e+01
5.000000e+01
5.000000e+01
5.000000e+01
5.000000e+01
5.000000e+01
5.000000e+01
5.000000e+01
5.000000e+01
5.000000e+01
5.000000e+01
5.000000e+01
5.000000e+01
5.000000e+01
5.000000e+01
5.625000e+01
5.625000e+01
5.625000e+01
5.625000e+01
5.625000e+01
5.625000e+01
5.625000e+01
5.625000e+01
5.625000e+01
5.625000e+01
5.625000e+01
5.625000e+01
5.625000e+01
5.625000e+01
5.625000e+01
5.625000e+01
5.625000e+01
5.625000e+01
5.625000e+01
5.625000e+01
5.625000e+01
5.625000e+01
5.625000e+01
5.625000e+01
5.625000e+01
5.625000e+01
5.625000e+01
5.625000e+01
5.625000e+01
5.625000e+01
5.625000e+01
5.625000e+01
5.625000e+01
6.250000e+01
6.250000e+01
6.250000e+01
6.250000e+01
6.250000e+01
6.250000e+01
6.250000e+01
6.250000e+01
6.250000e+01
6.250000e+01
6.250000e+01
6.250000e+01
6.250000e+01
6.250000e+01
6.250000e+01
6.250000e+01
6.250000e+01
6.250000e+01
6.250000e+01
6.250000e+01
6.250000e+01
6.250000e+01
6.250000e+01
6.250000e+01
6.250000e+01
6.250000e+01
6.250000e+01
6.250000e+01
6.250000e+01
6.250000e+01
6.250000e+01
6.250000e+01
6.250000e+01
6.875000e+01
6.875000e+01
6.875000e+01
6.875000e+01
6.875000e+01
6.875000e+01
6.875000e+01
6.875000e+01
6.875000e+01
6.875000e+01
6.875000e+01
6.875000e+01
6.875000e+01
6.875000e+01
6.875000e+01
6.875000e+01
6.875000e+01
6.875000e+01
6.875000e+01
6.875000e+01
6.875000e+01
6.875000e+01
6.875000e+01
6.875000e+01
6.875000e+01
6.875000e+01
6.875000e+01
6.875000e+01
6.875000e+01
6.875000e+01
6.875000e+01
6.875000e+01
6.875000e+01
7.500000e+01
7.500000e+01
7.500000e+01
7.500000e+01
7.500000e+01
7.500000e+01
7.500000e+01
7.500000e+01
7.500000e+01
7.500000e+01
7.500000e+01
7.500000e+01
7.500000e+01
7.500000e+01
7.500000e+01
7.500000e+01
7.500000e+01
7.500000e+01
7.500000e+01
7.500000e+01
7.500000e+01
7.500000e+01
7.500000e+01
7.500000e+01
7.500000e+01
7.500000e+01
7.500000e+01
7.500000e+01
7.500000e+01
7.500000e+01
7.500000e+01
7.500000e+01
7.500000e+01
8.125000e+01
8.125000e+01
8.125000e+01
8.125000e+01
8.125000e+01
8.125000e+01
8.125000e+01
8.125000e+01
8.125000e+01
8.125000e+01
8.125000e+01
8.125000e+01
8.125000e+01
8.125000e+01
8.125000e+01
8.125000e+01
8.125000e+01
8.125000e+01
8.125000e+01
8.125000e+01
8.125000e+01
8.125000e+01
8.125000e+01
8.125000e+01
8.125000e+01
8.125000e+01
8.125000e+01
8.125000e+01
8.125000e+01
8.125000e+01
8.125000e+01
8.125000e+01
8.125000e+01
8.750000e+01
8.750000e+01
8.750000e+01
8.750000e+01
8.750000e+01
8.750000e+01
8.750000e+01
8.750000e+01
8.750000e+01
8.750000e+01
8.750000e+01
8.750000e+01
8.750000e+01
8.750000e+01
8.750000e+01
8.750000e+01
8.750000e+01
8.750000e+01
8.750000e+01
8.750000e+01
8.750000e+01
8.750000e+01
8.750000e+01
8.750000e+01
8.750000e+01
8.750000e+01
8.750000e+01
8.750000e+01
8.750000e+01
8.750000e+01
8.750000e+01
8.750000e+01
8.750000e+01
9.375000e+01
9.375000e+01
9.375000e+01
9.375000e+01
9.375000e+01
9.375000e+01
9.375000e+01
9.375000e+01
9.375000e+01
9.375000e+01
9.375000e+01
9.375000e+01
9.375000e+01
9.375000e+01
9.375000e+01
9.375000e+01
9.375000e+01
9.375000e+01
9.375000e+01
9.375000e+01
9.375000e+01
9.375000e+01
9.375000e+01
9.375000e+01
9.375000e+01
9.375000e+01
9.375000e+01
9.375000e+01
9.375000e+01
9.375000e+01
9.375000e+01
9.375000e+01
9.375000e+01
1.000000e+02
1.000000e+02
1.000000e+02
1.000000e+02
1.000000e+02
1.000000e+02
1.000000e+02
1.000000e+02
1.000000e+02
1.000000e+02
1.000000e+02
1.000000e+02
1.000000e+02
1.000000e+02
1.000000e+02
1.000000e+02
1.000000e+02
1.000000e+02
1.000000e+02
1.000000e+02
1.000000e+02
1.000000e+02
1.000000e+02
1.000000e+02
1.000000e+02
1.000000e+02
1.000000e+02
1.000000e+02
1.000000e+02
1.000000e+02
1.000000e+02
1.000000e+02
1.000000e+02
0.000000e+00
-4.237615e-02
-7.688588e-02
-1.088543e-01
-1.395349e-01
-1.691618e-01
-1.977942e-01
-2.254299e-01
-2.520512e-01
-2.776388e-01
-3.021768e-01
-3.256541e-01
-3.480648e-01
-3.694086e-01
-3.896905e-01
-4.089211e-01
-4.271177e-01
-4.443052e-01
-4.605183e-01
-4.758036e-01
-4.902232e-01
-5.038593e-01
-5.168206e-01
-5.292512e-01
-5.413441e-01
-5.533618e-01
-5.656687e-01
-5.787844e-01
-5.934715e-01
-6.108519e-01
-6.323809e-01
-6.580377e-01
-6.736957e-01
0.000000e+00
-2.841207e-02
-5.911436e-02
-8.806257e-02
-1.155767e-01
-1.419188e-01
-1.672280e-01
-1.915652e-01
-2.149547e-01
-2.374044e-01
-2.589157e-01
-2.794886e-01
-2.991243e-01
-3.178257e-01
-3.355992e-01
-3.524546e-01
-3.684062e-01
-3.834738e-01
-3.976835e-01
-4.110692e-01
-4.236741e-01
-4.355528e-01
-4.467729e-01
-4.574172e-01
-4.675846e-01
-4.773890e-01
-4.869505e-01
-4.963680e-01
-5.056409e-01
-5.144674e-01
-5.218223e-01
-5.261223e-01
-5.321086e-01
0.000000e+00
-2.253652e-02
-4.639685e-02
-7.069045e-02
-9.429632e-02
-1.170323e-01
-1.388838e-01
-1.598715e-01
-1.800141e-01
-1.993241e-01
-2.178099e-01
-2.354772e-01
-2.523308e-01
-2.683758e-01
-2.836180e-01
-2.980650e-01
-3.117260e-01
-3.246128e-01
-3.367400e-01
-3.481249e-01
-3.587872e-01
-3.687487e-01
-3.780304e-01
-3.866490e-01
-3.946078e-01
-4.018813e-01
-4.083862e-01
-4.139311e-01
-4.181411e-01
-4.204080e-01
-4.202092e-01
-4.189363e-01
-4.259267e-01
0.000000e+00
-1.788073e-02
-3.674898e-02
-5.613375e-02
-7.547309e-02
-9.434398e-02
-1.125848e-01
-1.301377e-01
-1.469868e-01
-1.631316e-01
-1.785761e-01
-1.933255e-01
-2.073849e-01
-2.207586e-01
-2.334505e-01
-2.454644e-01
-2.568034e-01
-2.674705e-01
-2.774678e-01
-2.867959e-01
-2.954525e-01
-3.034296e-01
-3.107095e-01
-3.172583e-01
-3.230157e-01
-3.278798e-01
-3.316898e-01
-3.342129e-01
-3.351763e-01
-3.344611e-01
-3.327242e-01
-3.326205e-01
-3.392807e-01
0.000000e+00
-1.387794e-02
-2.841730e-02
-4.342110e-02
-5.854680e-02
-7.348698e-02
-8.803550e-02
-1.020880e-01
-1.155970e-01
-1.285443e-01
-1.409251e-01
-1.527400e-01
-1.639913e-01
-1.746809e-01
-1.848094e-01
-1.943760e-01
-2.033777e-01
-2.118090e-01
-2.196612e-01
-2.269212e-01
-2.335695e-01
-2.395777e-01
-2.449046e-01
-2.494918e-01
-2.532581e-01
-2.560970e-01
-2.578835e-01
-2.585102e-01
-2.579960e-01
-2.567381e-01
-2.559220e-01
-2.578066e-01
-2.634880e-01
0.000000e+00
-1.019948e-02
-2.083595e-02
-3.181413e-02
-4.294434e-02
-5.401881e-02
-6.487260e-02
-7.539850e-02
-8.553766e-02
-9.526146e-02
-1.045578e-01
-1.134225e-01
-1.218540e-01
-1.298508e-01
-1.374099e-01
-1.445259e-01
-1.511903e-01
-1.573910e-01
-1.631112e-01
-1.683285e-01
-1.730135e-01
-1.771282e-01
-1.806247e-01
-1.834441e-01
-1.855196e-01
-1.867861e-01
-1.872062e-01
-1.868292e-01
-1.858998e-01
-1.850157e-01
-1.852309e-01
-1.876335e-01
-1.923345e-01
0.000000e+00
-6.712484e-03
-1.369048e-02
-2.088983e-02
-2.820789e-02
-3.552146e-02
-4.272026e-02
-4.972388e-02
-5.648201e-02
-6.296690e-02
-6.916452e-02
-7.506780e-02
-8.067223e-02
-8.597315e-02
-9.096416e-02
-9.563612e-02
-9.997644e-02
-1.039684e-01
-1.075907e-01
-1.108165e-01
-1.136135e-01
-1.159437e-01
-1.177648e-01
-1.190339e-01
-1.197157e-01
-1.198003e-01
-1.193341e-01
-1.184714e-01
-1.175405e-01
-1.170892e-01
-1.177933e-01
-1.201324e-01
-1.239272e-01
0.000000e+00
-3.334089e-03
-6.794226e-03
-1.036263e-02
-1.399422e-02
-1.763165e-02
-2.122042e-02
-2.471790e-02
-2.809529e-02
-3.133499e-02
-3.442659e-02
-3.736318e-02
-4.013874e-02
-4.274641e-02
-4.517730e-02
-4.741972e-02
-4.945864e-02
-5.127523e-02
-5.284666e-02
-5.414617e-02
-5.514371e-02
-5.580771e-02
-5.610849e-02
-5.602483e-02
-5.555508e-02
-5.473508e-02
-5.366407e-02
-5.253558e-02
-5.165954e-02
-5.144009e-02
-5.226612e-02
-5.430672e-02
-5.731773e-02
0.000000e+00
-5.379225e-06
-1.166369e-05
-1.850526e-05
-2.554405e-05
-3.229484e-05
-3.802639e-05
-4.162743e-05
-4.145022e-05
-3.512201e-05
-1.931764e-05
1.051102e-05
6.044828e-05
1.384635e-04
2.547789e-04
4.222250e-04
6.565273e-04
9.764371e-04
1.403565e-03
1.961699e-03
2.675301e-03
3.566694e-03
4.651342e-03
5.930421e-03
7.379970e-03
8.936492e-03
1.048082e-02
1.182628e-02
1.272444e-02
1.290658e-02
1.217319e-02
1.051231e-02
8.186158e-03
0.000000e+00
3.323957e-03
6.772213e-03
1.032763e-02
1.394580e-02
1.757025e-02
2.114786e-02
2.463805e-02
2.801511e-02
3.126586e-02
3.438613e-02
3.737755e-02
4.024554e-02
4.299824e-02
4.564605e-02
4.820154e-02
5.067948e-02
5.309670e-02
5.547161e-02
5.782320e-02
6.016905e-02
6.252206e-02
6.488560e-02
6.724654e-02
6.956650e-02
7.177228e-02
7.374841e-02
7.533781e-02
7.635905e-02
7.664817e-02
7.612455e-02
7.486286e-02
7.313639e-02
0.000000e+00
6.704208e-03
1.367237e-02
2.086084e-02
2.816746e-02
3.546973e-02
4.265840e-02
4.965472e-02
5.641082e-02
6.290250e-02
6.912077e-02
7.506548e-02
8.074145e-02
8.615632e-02
9.131960e-02
9.624228e-02
1.009367e-01
1.054162e-01
1.096948e-01
1.137856e-01
1.176993e-01
1.214408e-01
1.250051e-01
1.283715e-01
1.314978e-01
1.343147e-01
1.367242e-01
1.386060e-01
1.398377e-01
1.403302e-01
1.400770e-01
1.392040e-01
1.379990e-01
0.000000e+00
1.019420e-02
2.082418e-02
3.179497e-02
4.291714e-02
5.398330e-02
6.482916e-02
7.534850e-02
8.548399e-02
9.520926e-02
1.045154e-01
1.134027e-01
1.218756e-01
1.299408e-01
1.376058e-01
1.448788e-01
1.517684e-01
1.582832e-01
1.644316e-01
1.702208e-01
1.756548e-01
1.807323e-01
1.854435e-01
1.897662e-01
1.936622e-01
1.970747e-01
1.999305e-01
2.021468e-01
2.036498e-01
2.044029e-01
2.044453e-01
2.039332e-01
2.031716e-01
0.000000e+00
1.387663e-02
2.841402e-02
4.341523e-02
5.853772e-02
7.347418e-02
8.801866e-02
1.020671e-01
1.155724e-01
1.285172e-01
1.408975e-01
1.527155e-01
1.639755e-01
1.746822e-01
1.848401e-01
1.944533e-01
2.035255e-01
2.120596e-01
2.200577e-01
2.275201e-01
2.344447e-01
2.408250e-01
2.466489e-01
2.518960e-01
2.565370e-01
2.605330e-01
2.638381e-01
2.664068e-01
2.682070e-01
2.692413e-01
2.695768e-01
2.693845e-01
2.689833e-01
0.000000e+00
1.788405e-02
3.675573e-02
5.614379e-02
7.548614e-02
9.435967e-02
1.126026e-01
1.301567e-01
1.470055e-01
1.631478e-01
1.785862e-01
1.933245e-01
2.073653e-01
2.207103e-01
2.333596e-01
2.453123e-01
2.565660e-01
2.671172e-01
2.769606e-01
2.860891e-01
2.944937e-01
3.021626e-01
3.090812e-01
3.152321e-01
3.205956e-01
3.251517e-01
3.288832e-01
3.317818e-01
3.338563e-01
3.351455e-01
3.357386e-01
3.358093e-01
3.356762e-01
0.000000e+00
2.254463e-02
4.641416e-02
7.071756e-02
9.433374e-02
1.170804e-01
1.389428e-01
1.599407e-01
1.800915e-01
1.994057e-01
2.178888e-01
2.355419e-01
2.523641e-01
2.683521e-01
2.835009e-01
2.978036e-01
3.112515e-01
3.238335e-01
3.355364e-01
3.463445e-01
3.562401e-01
3.652041e-01
3.732168e-01
3.802604e-01
3.863215e-01
3.913954e-01
3.954913e-01
3.986382e-01
4.008904e-01
4.023329e-01
4.030879e-01
4.033338e-01
4.033632e-01
0.000000e+00
2.842424e-02
5.914096e-02
8.810535e-02
1.156378e-01
1.420002e-01
1.673315e-01
1.916919e-01
2.151041e-01
2.375734e-01
2.590974e-01
2.796700e-01
2.992837e-01
3.179294e-01
3.355965e-01
3.522724e-01
3.679419e-01
3.825866e-01
3.961844e-01
4.087098e-01
4.201339e-01
4.304258e-01
4.395553e-01
4.474960e-01
4.542316e-01
4.597624e-01
4.641145e-01
4.673492e-01
4.695713e-01
4.709329e-01
4.716285e-01
4.718807e-01
4.719425e-01
0.000000e+00
4.238947e-02
7.691698e-02
1.089076e-01
1.396147e-01
1.692723e-01
1.979401e-01
2.256153e-01
2.522796e-01
2.779116e-01
3.024917e-01
3.260026e-01
3.484294e-01
3.697576e-01
3.899724e-01
4.090569e-01
4.269908e-01
4.437492e-01
4.593014e-01
4.736106e-01
4.866336e-01
4.983225e-01
5.086273e-01
5.175006e-01
5.249058e-01
5.308280e-01
5.352881e-01
5.383608e-01
5.401922e-01
5.410174e-01
5.411673e-01
5.410431e-01
5.409732e-01
0.000000e+00
-2.618765e-02
-4.570310e-02
-6.699916e-02
-9.071359e-02
-1.175014e-01
-1.475488e-01
-1.809079e-01
-2.175456e-01
-2.573832e-01
-3.003154e-01
-3.462204e-01
-3.949674e-01
-4.464200e-01
-5.004389e-01
-5.568842e-01
-6.156164e-01
-6.764988e-01
-7.393991e-01
-8.041927e-01
-8.707669e-01
-9.390268e-01
-1.008905e+00
-1.080373e+00
-1.153469e+00
-1.228326e+00
-1.305243e+00
-1.384800e+00
-1.468108e+00
-1.557366e+00
-1.657318e+00
-1.779160e+00
-1.947488e+00
0.000000e+00
-1.627463e-02
-3.670216e-02
-5.814188e-02
-8.218684e-02
-1.092657e-01
-1.396050e-01
-1.732561e-01
-2.101887e-01
-2.503241e-01
-2.935563e-01
-3.397627e-01
-3.888113e-01
-4.405645e-01
-4.948819e-01
-5.516219e-01
-6.106435e-01
-6.718079e-01
-7.349802e-01
-8.000327e-01
-8.668489e-01
-9.353289e-01
-1.005399e+00
-1.077023e+00
-1.150229e+00
-1.225139e+00
-1.302035e+00
-1.381480e+00
-1.464561e+00
-1.553439e+00
-1.652620e+00
-1.771749e+00
-1.929011e+00
0.000000e+00
-1.195465e-02
-2.958911e-02
-5.073635e-02
-7.482332e-02
-1.021017e-01
-1.326805e-01
-1.665881e-01
-2.037837e-01
-2.441850e-01
-2.876841e-01
-3.341576e-01
-3.834727e-01
-4.354914e-01
-4.900728e-01
-5.470748e-01
-6.063556e-01
-6.677757e-01
-7.311992e-01
-7.964976e-01
-8.635530e-01
-9.322649e-01
-1.002559e+00
-1.074402e+00
-1.147823e+00
-1.222951e+00
-1.300081e+00
-1.379790e+00
-1.463153e+00
-1.552115e+00
-1.650005e+00
-1.760754e+00
-1.883607e+00
0.000000e+00
-9.572778e-03
-2.505600e-02
-4.507557e-02
-6.885299e-02
-9.612290e-02
-1.268325e-01
-1.609300e-01
-1.983421e-01
-2.389713e-01
-2.827028e-01
-3.294101e-01
-3.789595e-01
-4.312125e-01
-4.860284e-01
-5.432655e-01
-6.027826e-01
-6.644404e-01
-7.281040e-01
-7.936458e-01
-8.609496e-01
-9.299173e-01
-1.000478e+00
-1.072605e+00
-1.146332e+00
-1.221797e+00
-1.299290e+00
-1.379344e+00
-1.462838e+00
-1.551055e+00
-1.645222e+00
-1.744539e+00
-1.836993e+00
0.000000e+00
-8.100145e-03
-2.209152e-02
-4.105575e-02
-6.429114e-02
-9.138226e-02
-1.221034e-01
-1.563117e-01
-1.938837e-01
-2.346963e-01
-2.786222e-01
-3.255289e-01
-3.752801e-01
-4.277373e-01
-4.827600e-01
-5.402076e-01
-5.999402e-01
-6.618203e-01
-7.257148e-01
-7.914980e-01
-8.590566e-01
-9.282953e-01
-9.991466e-01
-1.071584e+00
-1.145641e+00
-1.221437e+00
-1.299210e+00
-1.379343e+00
-1.462340e+00
-1.548610e+00
-1.637741e+00
-1.726460e+00
-1.806977e+00
0.000000e+00
-7.163095e-03
-2.014644e-02
-3.828948e-02
-6.100184e-02
-8.783918e-02
-1.184935e-01
-1.527456e-01
-1.904228e-01
-2.313730e-01
-2.754529e-01
-3.225222e-01
-3.724415e-01
-4.250713e-01
-4.802721e-01
-5.379046e-01
-5.978308e-01
-6.599151e-01
-7.240265e-01
-7.900416e-01
-8.578484e-01
-9.273522e-01
-9.984836e-01
-1.071208e+00
-1.145539e+00
-1.221547e+00
-1.299367e+00
-1.379167e+00
-1.461038e+00
-1.544706e+00
-1.628895e+00
-1.710596e+00
-1.785272e+00
0.000000e+00
-6.580729e-03
-1.891667e-02
-3.649135e-02
-5.879825e-02
-8.540433e-02
-1.159676e-01
-1.502240e-01
-1.879634e-01
-2.290087e-01
-2.732021e-01
-3.203957e-01
-3.704469e-01
-4.232155e-01
-4.785628e-01
-5.363512e-01
-5.964444e-01
-6.587087e-01
-7.230148e-01
-7.892399e-01
-8.572711e-01
-9.270100e-01
-9.983776e-01
-1.071320e+00
-1.145813e+00
-1.221856e+00
-1.299458e+00
-1.378573e+00
-1.458974e+00
-1.540005e+00
-1.620266e+00
-1.697441e+00
-1.768695e+00
0.000000e+00
-6.260710e-03
-1.823430e-02
-3.547806e-02
-5.753468e-02
-8.398604e-02
-1.144792e-01
-1.487281e-01
-1.865010e-01
-2.276053e-01
-2.718730e-01
-3.191514e-01
-3.692957e-01
-4.221658e-01
-4.776241e-01
-5.355343e-01
-5.957619e-01
-6.581744e-01
-7.226429e-01
-7.890431e-01
-8.572584e-01
-9.271816e-01
-9.987174e-01
-1.071784e+00
-1.146307e+00
-1.222210e+00
-1.299382e+00
-1.377612e+00
-1.456482e+00
-1.535218e+00
-1.612554e+00
-1.686749e+00
-1.755870e+00
0.000000e+00
-6.157602e-03
-1.801415e-02
-3.514965e-02
-5.712286e-02
-8.352186e-02
-1.139917e-01
-1.482400e-01
-1.860288e-01
-2.271606e-01
-2.714646e-01
-3.187870e-01
-3.689832e-01
-4.219141e-01
-4.774433e-01
-5.354361e-01
-5.957589e-01
-6.582798e-01
-7.228686e-01
-7.893981e-01
-8.577444e-01
-9.277879e-01
-9.994124e-01
-1.072502e+00
-1.146934e+00
-1.222559e+00
-1.299173e+00
-1.376459e+00
-1.453919e+00
-1.530789e+00
-1.605999e+00
-1.678222e+00
-1.746040e+00
0.000000e+00
-6.257728e-03
-1.823016e-02
-3.547450e-02
-5.753360e-02
-8.398982e-02
-1.144910e-01
-1.487520e-01
-1.865425e-01
-2.276716e-01
-2.719734e-01
-3.192974e-01
-3.695018e-01
-4.224494e-01
-4.780054e-01
-5.360362e-01
-5.964090e-01
-6.589912e-01
-7.236507e-01
-7.902551e-01
-8.586719e-01
-9.287665e-01
-1.000400e+00
-1.073423e+00
-1.147667e+00
-1.222926e+00
-1.298931e+00
-1.375310e+00
-1.451550e+00
-1.526956e+00
-1.600646e+00
-1.671593e+00
-1.738714e+00
0.000000e+00
-6.575006e-03
-1.890873e-02
-3.648448e-02
-5.879609e-02
-8.541143e-02
-1.159900e-01
-1.502696e-01
-1.880427e-01
-2.291356e-01
-2.733943e-01
-3.206756e-01
-3.708420e-01
-4.237593e-01
-4.792943e-01
-5.373144e-01
-5.976869e-01
-6.602781e-01
-7.249528e-01
-7.915730e-01
-8.599964e-01
-9.300735e-01
-1.001643e+00
-1.074527e+00
-1.148518e+00
-1.223368e+00
-1.298767e+00
-1.374324e+00
-1.449546e+00
-1.523825e+00
-1.596447e+00
-1.666621e+00
-1.733514e+00
0.000000e+00
-7.155140e-03
-2.013540e-02
-3.827988e-02
-6.099873e-02
-8.784891e-02
-1.185245e-01
-1.528089e-01
-1.905332e-01
-2.315498e-01
-2.757210e-01
-3.229130e-01
-3.729938e-01
-4.258318e-01
-4.812956e-01
-5.392533e-01
-5.995716e-01
-6.621154e-01
-7.267464e-01
-7.933207e-01
-8.616869e-01
-9.316818e-01
-1.003125e+00
-1.075814e+00
-1.149513e+00
-1.223945e+00
-1.298777e+00
-1.373618e+00
-1.448008e+00
-1.521428e+00
-1.593313e+00
-1.663074e+00
-1.730105e+00
0.000000e+00
-8.090774e-03
-2.207852e-02
-4.104444e-02
-6.428755e-02
-9.139403e-02
-1.221407e-01
-1.563881e-01
-1.940169e-01
-2.349100e-01
-2.789463e-01
-3.260014e-01
-3.759481e-01
-4.286572e-01
-4.839985e-01
-5.418401e-01
-6.020482e-01
-6.644861e-01
-7.290124e-01
-7.954784e-01
-8.637249e-01
-9.335775e-01
-1.004842e+00
-1.077295e+00
-1.150683e+00
-1.224709e+00
-1.299030e+00
-1.373262e+00
-1.446981e+00
-1.519746e+00
-1.591125e+00
-1.660719e+00
-1.728154e+00
0.000000e+00
-9.563147e-03
-2.504266e-02
-4.506408e-02
-6.884990e-02
-9.613672e-02
-1.268745e-01
-1.610152e-01
-1.984903e-01
-2.392084e-01
-2.830620e-01
-3.299334e-01
-3.796986e-01
-4.322299e-01
-4.873973e-01
-5.450688e-01
-6.051100e-01
-6.673827e-01
-7.317429e-01
-7.980381e-01
-8.661035e-01
-9.357569e-01
-1.006794e+00
-1.078980e+00
-1.152047e+00
-1.225689e+00
-1.299559e+00
-1.373281e+00
-1.446462e+00
-1.518725e+00
-1.589749e+00
-1.659313e+00
-1.727304e+00
0.000000e+00
-1.194626e-02
-2.957742e-02
-5.072665e-02
-7.482240e-02
-1.021185e-01
-1.327269e-01
-1.666797e-01
-2.039412e-01
-2.444352e-01
-2.880613e-01
-3.347050e-01
-3.842435e-01
-4.365497e-01
-4.914933e-01
-5.489420e-01
-6.087603e-01
-6.708089e-01
-7.349420e-01
-8.010045e-01
-8.688279e-01
-9.382257e-01
-1.008987e+00
-1.080873e+00
-1.153609e+00
-1.226885e+00
-1.300355e+00
-1.373652e+00
-1.446404e+00
-1.518278e+00
-1.589036e+00
-1.658606e+00
-1.727155e+00
0.000000e+00
-1.626923e-02
-3.669421e-02
-5.813617e-02
-8.219037e-02
-1.092876e-01
-1.396573e-01
-1.733545e-01
-2.103537e-01
-2.505823e-01
-2.939416e-01
-3.403174e-01
-3.895873e-01
-4.416238e-01
-4.962962e-01
-5.534715e-01
-6.130135e-01
-6.747814e-01
-7.386283e-01
-8.043971e-01
-8.719177e-01
-9.410013e-01
-1.011436e+00
-1.082980e+00
-1.155359e+00
-1.228266e+00
-1.301361e+00
-1.374286e+00
-1.446687e+00
-1.518258e+00
-1.588804e+00
-1.658351e+00
-1.727281e+00
0.000000e+00
-2.618688e-02
-4.570045e-02
-6.699967e-02
-9.072428e-02
-1.175315e-01
-1.476102e-01
-1.810163e-01
-2.177210e-01
-2.576516e-01
-3.007092e-01
-3.467801e-01
-3.957418e-01
-4.474668e-01
-5.018239e-01
-5.586794e-01
-6.178958e-01
-6.793312e-01
-7.428369e-01
-8.082544e-01
-8.754119e-01
-9.441194e-01
-1.014165e+00