TITLE = "Solution"
VARIABLES = x, y, u, v, psiu, psiv, t, stress
ZONE T="structure" N=561 E=512 F=FEBLOCK ET=QUADRILATERAL VARLOCATION=([7,8]=cellcentered)
0.000000e+00
6.250000e+00
1.250000e+01
1.875000e+01
2.500000e+01
3.125000e+01
3.750000e+01
4.375000e+01
5.000000e+01
5.625000e+01
6.250000e+01
6.875000e+01
7.500000e+01
8.125000e+01
8.750000e+01
9.375000e+01
1.000000e+02
1.062500e+02
1.125000e+02
1.187500e+02
1.250000e+02
1.312500e+02
1.375000e+02
1.437500e+02
1.500000e+02
1.562500e+02
1.625000e+02
1.687500e+02
1.750000e+02
1.812500e+02
1.875000e+02
1.937500e+02
2.000000e+02
0.000000e+00
6.250000e+00
1.250000e+01
1.875000e+01
2.500000e+01
3.125000e+01
3.750000e+01
4.375000e+01
5.000000e+01
5.625000e+01
6.250000e+01
6.875000e+01
7.500000e+01
8.125000e+01
8.750000e+01
9.375000e+01
1.000000e+02
1.062500e+02
1.125000e+02
1.187500e+02
1.250000e+02
1.312500e+02
1.375000e+02
1.437500e+02
1.500000e+02
1.562500e+02
1.625000e+02
1.687500e+02
1.750000e+02
1.812500e+02
1.875000e+02
1.937500e+02
2.000000e+02
0.000000e+00
6.250000e+00
1.250000e+01
1.875000e+01
2.500000e+01
3.125000e+01
3.750000e+01
4.375000e+01
5.000000e+01
5.625000e+01
6.250000e+01
6.875000e+01
7.500000e+01
8.125000e+01
8.750000e+01
9.375000e+01
1.000000e+02
1.062500e+02
1.125000e+02
1.187500e+02
1.250000e+02
1.312500e+02
1.375000e+02
1.437500e+02
1.500000e+02
1.562500e+02
1.625000e+02
1.687500e+02
1.750000e+02
1.812500e+02
1.875000e+02
1.937500e+02
2.000000e+02
0.000000e+00
6.250000e+00
1.250000e+01
1.875000e+01
2.500000e+01
3.125000e+01
3.750000e+01
4.375000e+01
5.000000e+01
5.625000e+01
6.250000e+01
6.875000e+01
7.500000e+01
8.125000e+01
8.750000e+01
9.375000e+01
1.000000e+02
1.062500e+02
1.125000e+02
1.187500e+02
1.250000e+02
1.312500e+02
1.375000e+02
1.437500e+02
1.500000e+02
1.562500e+02
1.625000e+02
1.687500e+02
1.750000e+02
1.812500e+02
1.875000e+02
1.937500e+02
2.000000e+02
0.000000e+00
6.250000e+00
1.250000e+01
1.875000e+01
2.500000e+01
3.125000e+01
3.750000e+01
4.375000e+01
5.000000e+01
5.625000e+01
6.250000e+01
6.875000e+01
7.500000e+01
8.125000e+01
8.750000e+01
9.375000e+01
1.000000e+02
1.062500e+02
1.125000e+02
1.187500e+02
1.250000e+02
1.312500e+02
1.375000e+02
1.437500e+02
1.500000e+02
1.562500e+02
1.625000e+02
1.687500e+02
1.750000e+02
1.812500e+02
1.875000e+02
1.937500e+02
2.000000e+02
0.000000e+00
6.250000e+00
1.250000e+01
1.875000e+01
2.500000e+01
3.125000e+01
3.750000e+01
4.375000e+01
5.000000e+01
5.625000e+01
6.250000e+01
6.875000e+01
7.500000e+01
8.125000e+01
8.750000e+01
9.375000e+01
1.000000e+02
1.062500e+02
1.125000e+02
1.187500e+02
1.250000e+02
1.312500e+02
1.375000e+02
1.437500e+02
1.500000e+02
1.562500e+02
1.625000e+02
1.687500e+02
1.750000e+02
1.812500e+02
1.875000e+02
1.937500e+02
2.000000e+02
0.000000e+00
6.250000e+00
1.250000e+01
1.875000e+01
2.500000e+01
3.125000e+01
3.750000e+01
4.375000e+01
5.000000e+01
5.625000e+01
6.250000e+01
6.875000e+01
7.500000e+01
8.125000e+01
8.750000e+01
9.375000e+01
1.000000e+02
1.062500e+02
1.125000e+02
1.187500e+02
1.250000e+02
1.312500e+02
1.375000e+02
1.437500e+02
1.500000e+02
1.562500e+02
1.625000e+02
1.687500e+02
1.750000e+02
1.812500e+02
1.875000e+02
1.937500e+02
2.000000e+02
0.000000e+00
6.250000e+00
1.250000e+01
1.875000e+01
2.500000e+01
3.125000e+01
3.750000e+01
4.375000e+01
5.000000e+01
5.625000e+01
6.250000e+01
6.875000e+01
7.500000e+01
8.125000e+01
8.750000e+01
9.375000e+01
1.000000e+02
1.062500e+02
1.125000e+02
1.187500e+02
1.250000e+02
1.312500e+02
1.375000e+02
1.437500e+02
1.500000e+02
1.562500e+02
1.625000e+02
1.687500e+02
1.750000e+02
1.812500e+02
1.875000e+02
1.937500e+02
2.000000e+02
0.000000e+00
6.250000e+00
1.250000e+01
1.875000e+01
2.500000e+01
3.125000e+01
3.750000e+01
4.375000e+01
5.000000e+01
5.625000e+01
6.250000e+01
6.875000e+01
7.500000e+01
8.125000e+01
8.750000e+01
9.375000e+01
1.000000e+02
1.062500e+02
1.125000e+02
1.187500e+02
1.250000e+02
1.312500e+02
1.375000e+02
1.437500e+02
1.500000e+02
1.562500e+02
1.625000e+02
1.687500e+02
1.750000e+02
1.812500e+02
1.875000e+02
1.937500e+02
2.000000e+02
0.000000e+00
6.250000e+00
1.250000e+01
1.875000e+01
2.500000e+01
3.125000e+01
3.750000e+01
4.375000e+01
5.000000e+01
5.625000e+01
6.250000e+01
6.875000e+01
7.500000e+01
8.125000e+01
8.750000e+01
9.375000e+01
1.000000e+02
1.062500e+02
1.125000e+02
1.187500e+02
1.250000e+02
1.312500e+02
1.375000e+02
1.437500e+02
1.500000e+02
1.562500e+02
1.625000e+02
1.687500e+02
1.750000e+02
1.812500e+02
1.875000e+02
1.937500e+02
2.000000e+02
0.000000e+00
6.250000e+00
1.250000e+01
1.875000e+01
2.500000e+01
3.125000e+01
3.750000e+01
4.375000e+01
5.000000e+01
5.625000e+01
6.250000e+01
6.875000e+01
7.500000e+01
8.125000e+01
8.750000e+01
9.375000e+01
1.000000e+02
1.062500e+02
1.125000e+02
1.187500e+02
1.250000e+02
1.312500e+02
1.375000e+02
1.437500e+02
1.500000e+02
1.562500e+02
1.625000e+02
1.687500e+02
1.750000e+02
1.812500e+02
1.875000e+02
1.937500e+02
2.000000e+02
0.000000e+00
6.250000e+00
1.250000e+01
1.875000e+01
2.500000e+01
3.125000e+01
3.750000e+01
4.375000e+01
5.000000e+01
5.625000e+01
6.250000e+01
6.875000e+01
7.500000e+01
8.125000e+01
8.750000e+01
9.375000e+01
1.000000e+02
1.062500e+02
1.125000e+02
1.187500e+02
1.250000e+02
1.312500e+02
1.375000e+02
1.437500e+02
1.500000e+02
1.562500e+02
1.625000e+02
1.687500e+02
1.750000e+02
1.812500e+02
1.875000e+02
1.937500e+02
2.000000e+02
0.000000e+00
6.250000e+00
1.250000e+01
1.875000e+01
2.500000e+01
3.125000e+01
3.750000e+01
4.375000e+01
5.000000e+01
5.625000e+01
6.250000e+01
6.875000e+01
7.500000e+01
8.125000e+01
8.750000e+01
9.375000e+01
1.000000e+02
1.062500e+02
1.125000e+02
1.187500e+02
1.250000e+02
1.312500e+02
1.375000e+02
1.437500e+02
1.500000e+02
1.562500e+02
1.625000e+02
1.687500e+02
1.750000e+02
1.812500e+02
1.875000e+02
1.937500e+02
2.000000e+02
0.000000e+00
6.250000e+00
1.250000e+01
1.875000e+01
2.500000e+01
3.125000e+01
3.750000e+01
4.375000e+01
5.000000e+01
5.625000e+01
6.250000e+01
6.875000e+01
7.500000e+01
8.125000e+01
8.750000e+01
9.375000e+01
1.000000e+02
1.062500e+02
1.125000e+02
1.187500e+02
1.250000e+02
1.312500e+02
1.375000e+02
1.437500e+02
1.500000e+02
1.562500e+02
1.625000e+02
1.687500e+02
1.750000e+02
1.812500e+02
1.875000e+02
1.937500e+02
2.000000e+02
0.000000e+00
6.250000e+00
1.250000e+01
1.875000e+01
2.500000e+01
3.125000e+01
3.750000e+01
4.375000e+01
5.000000e+01
5.625000e+01
6.250000e+01
6.875000e+01
7.500000e+01
8.125000e+01
8.750000e+01
9.375000e+01
1.000000e+02
1.062500e+02
1.125000e+02
1.187500e+02
1.250000e+02
1.312500e+02
1.375000e+02
1.437500e+02
1.500000e+02
1.562500e+02
1.625000e+02
1.687500e+02
1.750000e+02
1.812500e+02
1.875000e+02
1.937500e+02
2.000000e+02
0.000000e+00
6.250000e+00
1.250000e+01
1.875000e+01
2.500000e+01
3.125000e+01
3.750000e+01
4.375000e+01
5.000000e+01
5.625000e+01
6.250000e+01
6.875000e+01
7.500000e+01
8.125000e+01
8.750000e+01
9.375000e+01
1.000000e+02
1.062500e+02
1.125000e+02
1.187500e+02
1.250000e+02
1.312500e+02
1.375000e+02
1.437500e+02
1.500000e+02
1.562500e+02
1.625000e+02
1.687500e+02
1.750000e+02
1.812500e+02
1.875000e+02
1.937500e+02
2.000000e+02
0.000000e+00
6.250000e+00
1.250000e+01
1.875000e+01
2.500000e+01
3.125000e+01
3.750000e+01
4.375000e+01
5.000000e+01
5.625000e+01
6.250000e+01
6.875000e+01
7.500000e+01
8.125000e+01
8.750000e+01
9.375000e+01
1.000000e+02
1.062500e+02
1.125000e+02
1.187500e+02
1.250000e+02
1.312500e+02
1.375000e+02
1.437500e+02
1.500000e+02
1.562500e+02
1.625000e+02
1.687500e+02
1.750000e+02
1.812500e+02
1.875000e+02
1.937500e+02
2.000000e+02
0.000000e+00
0.000000e+00
0.000000e+00
0.000000e+00
0.000000e+00
0.000000e+00
0.000000e+00
0.000000e+00
0.000000e+00
0.000000e+00
0.000000e+00
0.000000e+00
0.000000e+00
0.000000e+00
0.000000e+00
0.000000e+00
0.000000e+00
0.000000e+00
0.000000e+00
0.000000e+00
0.000000e+00
0.000000e+00
0.000000e+00
0.000000e+00
0.000000e+00
0.000000e+00
0.000000e+00
0.000000e+00
0.000000e+00
0.000000e+00
0.000000e+00
0.000000e+00
0.000000e+00
6.250000e+00
6.250000e+00
6.250000e+00
6.250000e+00
6.250000e+00
6.250000e+00
6.250000e+00
6.250000e+00
6.250000e+00
6.250000e+00
6.250000e+00
6.250000e+00
6.250000e+00
6.250000e+00
6.250000e+00
6.250000e+00
6.250000e+00
6.250000e+00
6.250000e+00
6.250000e+00
6.250000e+00
6.250000e+00
6.250000e+00
6.250000e+00
6.250000e+00
6.250000e+00
6.250000e+00
6.250000e+00
6.250000e+00
6.250000e+00
6.250000e+00
6.250000e+00
6.250000e+00
1.250000e+01
1.250000e+01
1.250000e+01
1.250000e+01
1.250000e+01
1.250000e+01
1.250000e+01
1.250000e+01
1.250000e+01
1.250000e+01
1.250000e+01
1.250000e+01
1.250000e+01
1.250000e+01
1.250000e+01
1.250000e+01
1.250000e+01
1.250000e+01
1.250000e+01
1.250000e+01
1.250000e+01
1.250000e+01
1.250000e+01
1.250000e+01
1.250000e+01
1.250000e+01
1.250000e+01
1.250000e+01
1.250000e+01
1.250000e+01
1.250000e+01
1.250000e+01
1.250000e+01
1.875000e+01
1.875000e+01
1.875000e+01
1.875000e+01
1.875000e+01
1.875000e+01
1.875000e+01
1.875000e+01
1.875000e+01
1.875000e+01
1.875000e+01
1.875000e+01
1.875000e+01
1.875000e+01
1.875000e+01
1.875000e+01
1.875000e+01
1.875000e+01
1.875000e+01
1.875000e+01
1.875000e+01
1.875000e+01
1.875000e+01
1.875000e+01
1.875000e+01
1.875000e+01
1.875000e+01
1.875000e+01
1.875000e+01
1.875000e+01
1.875000e+01
1.875000e+01
1.875000e+01
2.500000e+01
2.500000e+01
2.500000e+01
2.500000e+01
2.500000e+01
2.500000e+01
2.500000e+01
2.500000e+01
2.500000e+01
2.500000e+01
2.500000e+01
2.500000e+01
2.500000e+01
2.500000e+01
2.500000e+01
2.500000e+01
2.500000e+01
2.500000e+01
2.500000e+01
2.500000e+01
2.500000e+01
2.500000e+01
2.500000e+01
2.500000e+01
2.500000e+01
2.500000e+01
2.500000e+01
2.500000e+01
2.500000e+01
2.500000e+01
2.500000e+01
2.500000e+01
2.500000e+01
3.125000e+01
3.125000e+01
3.125000e+01
3.125000e+01
3.125000e+01
3.125000e+01
3.125000e+01
3.125000e+01
3.125000e+01
3.125000e+01
3.125000e+01
3.125000e+01
3.125000e+01
3.125000e+01
3.125000e+01
3.125000e+01
3.125000e+01
3.125000e+01
3.125000e+01
3.125000e+01
3.125000e+01
3.125000e+01
3.125000e+01
3.125000e+01
3.125000e+01
3.125000e+01
3.125000e+01
3.125000e+01
3.125000e+01
3.125000e+01
3.125000e+01
3.125000e+01
3.125000e+01
3.750000e+01
3.750000e+01
3.750000e+01
3.750000e+01
3.750000e+01
3.750000e+01
3.750000e+01
3.750000e+01
3.750000e+01
3.750000e+01
3.750000e+01
3.750000e+01
3.750000e+01
3.750000e+01
3.750000e+01
3.750000e+01
3.750000e+01
3.750000e+01
3.750000e+01
3.750000e+01
3.750000e+01
3.750000e+01
3.750000e+01
3.750000e+01
3.750000e+01
3.750000e+01
3.750000e+01
3.750000e+01
3.750000e+01
3.750000e+01
3.750000e+01
3.750000e+01
3.750000e+01
4.375000e+01
4.375000e+01
4.375000e+01
4.375000e+01
4.375000e+01
4.375000e+01
4.375000e+01
4.375000e+01
4.375000e+01
4.375000e+01
4.375000e+01
4.375000e+01
4.375000e+01
4.375000e+01
4.375000e+01
4.375000e+01
4.375000e+01
4.375000e+01
4.375000e+01
4.375000e+01
4.375000e+01
4.375000e+01
4.375000e+01
4.375000e+01
4.375000e+01
4.375000e+01
4.375000e+01
4.375000e+01
4.375000e+01
4.375000e+01
4.375000e+01
4.375000e+01
4.375000e+01
5.000000e+01
5.000000e+01
5.000000e+01
5.000000e+01
5.000000e+01
5.000000e+01
5.000000e+01
5.000000e+01
5.000000e+01
5.000000e+01
5.000000e+01
5.000000e+01
5.000000e+01
5.000000e+01
5.000000e+01
5.000000e+01
5.000000e+01
5.000000e+01
5.000000e+01
5.000000e+01
5.000000e+01
5.000000e+01
5.000000e+01
5.000000e+01
5.000000e+01
5.000000e+01
5.000000e+01
5.000000e+01
5.000000e+01
5.000000e+01
5.000000e+01
5.000000e+01
5.000000e+01
5.625000e+01
5.625000e+01
5.625000e+01
5.625000e+01
5.625000e+01
5.625000e+01
5.625000e+01
5.625000e+01
5.625000e+01
5.625000e+01
5.625000e+01
5.625000e+01
5.625000e+01
5.625000e+01
5.625000e+01
5.625000e+01
5.625000e+01
5.625000e+01
5.625000e+01
5.625000e+01
5.625000e+01
5.625000e+01
5.625000e+01
5.625000e+01
5.625000e+01
5.625000e+01
5.625000e+01
5.625000e+01
5.625000e+01
5.625000e+01
5.625000e+01
5.625000e+01
5.625000e+01
6.250000e+01
6.250000e+01
6.250000e+01
6.250000e+01
6.250000e+01
6.250000e+01
6.250000e+01
6.250000e+01
6.250000e+01
6.250000e+01
6.250000e+01
6.250000e+01
6.250000e+01
6.250000e+01
6.250000e+01
6.250000e+01
6.250000e+01
6.250000e+01
6.250000e+01
6.250000e+01
6.250000e+01
6.250000e+01
6.250000e+01
6.250000e+01
6.250000e+01
6.250000e+01
6.250000e+01
6.250000e+01
6.250000e+01
6.250000e+01
6.250000e+01
6.250000e+01
6.250000e+01
6.875000e+01
6.875000e+01
6.875000e+01
6.875000e+01
6.875000e+01
6.875000e+01
6.875000e+01
6.875000e+01
6.875000e+01
6.875000e+01
6.875000e+01
6.875000e+01
6.875000e+01
6.875000e+01
6.875000e+01
6.875000e+01
6.875000e+01
6.875000e+01
6.875000e+01
6.875000e+01
6.875000e+01
6.875000e+01
6.875000e+01
6.875000e+01
6.875000e+01
6.875000e+01
6.875000e+01
6.875000e+01
6.875000e+01
6.875000e+01
6.875000e+01
6.875000e+01
6.875000e+01
7.500000e+01
7.500000e+01
7.500000e+01
7.500000e+01
7.500000e+01
7.500000e+01
7.500000e+01
7.500000e+01
7.500000e+01
7.500000e+01
7.500000e+01
7.500000e+01
7.500000e+01
7.500000e+01
7.500000e+01
7.500000e+01
7.500000e+01
7.500000e+01
7.500000e+01
7.500000e+01
7.500000e+01
7.500000e+01
7.500000e+01
7.500000e+01
7.500000e+01
7.500000e+01
7.500000e+01
7.500000e+01
7.500000e+01
7.500000e+01
7.500000e+01
7.500000e+01
7.500000e+01
8.125000e+01
8.125000e+01
8.125000e+01
8.125000e+01
8.125000e+01
8.125000e+01
8.125000e+01
8.125000e+01
8.125000e+01
8.125000e+01
8.125000e+01
8.125000e+01
8.125000e+01
8.125000e+01
8.125000e+01
8.125000e+01
8.125000e+01
8.125000e+01
8.125000e+01
8.125000e+01
8.125000e+01
8.125000e+01
8.125000e+01
8.125000e+01
8.125000e+01
8.125000e+01
8.125000e+01
8.125000e+01
8.125000e+01
8.125000e+01
8.125000e+01
8.125000e+01
8.125000e+01
8.750000e+01
8.750000e+01
8.750000e+01
8.750000e+01
8.750000e+01
8.750000e+01
8.750000e+01
8.750000e+01
8.750000e+01
8.750000e+01
8.750000e+01
8.750000e+01
8.750000e+01
8.750000e+01
8.750000e+01
8.750000e+01
8.750000e+01
8.750000e+01
8.750000e+01
8.750000e+01
8.750000e+01
8.750000e+01
8.750000e+01
8.750000e+01
8.750000e+01
8.750000e+01
8.750000e+01
8.750000e+01
8.750000e+01
8.750000e+01
8.750000e+01
8.750000e+01
8.750000e+01
9.375000e+01
9.375000e+01
9.375000e+01
9.375000e+01
9.375000e+01
9.375000e+01
9.375000e+01
9.375000e+01
9.375000e+01
9.375000e+01
9.375000e+01
9.375000e+01
9.375000e+01
9.375000e+01
9.375000e+01
9.375000e+01
9.375000e+01
9.375000e+01
9.375000e+01
9.375000e+01
9.375000e+01
9.375000e+01
9.375000e+01
9.375000e+01
9.375000e+01
9.375000e+01
9.375000e+01
9.375000e+01
9.375000e+01
9.375000e+01
9.375000e+01
9.375000e+01
9.375000e+01
1.000000e+02
1.000000e+02
1.000000e+02
1.000000e+02
1.000000e+02
1.000000e+02
1.000000e+02
1.000000e+02
1.000000e+02
1.000000e+02
1.000000e+02
1.000000e+02
1.000000e+02
1.000000e+02
1.000000e+02
1.000000e+02
1.000000e+02
1.000000e+02
1.000000e+02
1.000000e+02
1.000000e+02
1.000000e+02
1.000000e+02
1.000000e+02
1.000000e+02
1.000000e+02
1.000000e+02
1.000000e+02
1.000000e+02
1.000000e+02
1.000000e+02
1.000000e+02
1.000000e+02
0.000000e+00
-3.744173e-01
-6.778621e-01
-9.636337e-01
-1.246312e+00
-1.525477e+00
-1.800030e+00
-2.069479e+00
-2.333331e+00
-2.590945e+00
-2.841621e+00
-3.084661e+00
-3.319402e+00
-3.545246e+00
-3.761690e+00
-3.968352e+00
-4.164994e+00
-4.351533e+00
-4.528064e+00
-4.694875e+00
-4.852471e+00
-5.001617e+00
-5.143387e+00
-5.279254e+00
-5.411207e+00
-5.541942e+00
-5.675168e+00
-5.816096e+00
-5.972256e+00
-6.154258e+00
-6.373790e+00
-6.627248e+00
-6.779529e+00
0.000000e+00
-2.476554e-01
-5.148546e-01
-7.712081e-01
-1.023052e+00
-1.270245e+00
-1.512239e+00
-1.749056e+00
-1.980576e+00
-2.206418e+00
-2.426075e+00
-2.639001e+00
-2.844656e+00
-3.042543e+00
-3.232232e+00
-3.413390e+00
-3.585794e+00
-3.749349e+00
-3.904088e+00
-4.050187e+00
-4.187970e+00
-4.317918e+00
-4.440679e+00
-4.557083e+00
-4.668142e+00
-4.775024e+00
-4.878968e+00
-4.980994e+00
-5.081045e+00
-5.175523e+00
-5.252505e+00
-5.296292e+00
-5.356150e+00
0.000000e+00
-1.944343e-01
-4.010286e-01
-6.156819e-01
-8.306386e-01
-1.042719e+00
-1.250680e+00
-1.454231e+00
-1.653134e+00
-1.847040e+00
-2.035530e+00
-2.218161e+00
-2.394492e+00
-2.564109e+00
-2.726645e+00
-2.881800e+00
-3.029351e+00
-3.169158e+00
-3.301164e+00
-3.425391e+00
-3.541927e+00
-3.650917e+00
-3.752527e+00
-3.846894e+00
-3.934040e+00
-4.013706e+00
-4.085056e+00
-4.146152e+00
-4.193096e+00
-4.219319e+00
-4.219221e+00
-4.207785e+00
-4.277071e+00
0.000000e+00
-1.542616e-01
-3.178481e-01
-4.891828e-01
-6.645419e-01
-8.395009e-01
-1.012177e+00
-1.181703e+00
-1.347523e+00
-1.509183e+00
-1.666270e+00
-1.818392e+00
-1.965177e+00
-2.106276e+00
-2.241371e+00
-2.370182e+00
-2.492476e+00
-2.608059e+00
-2.716774e+00
-2.818487e+00
-2.913066e+00
-3.000351e+00
-3.080103e+00
-3.151933e+00
-3.215194e+00
-3.268827e+00
-3.311168e+00
-3.339796e+00
-3.351795e+00
-3.345730e+00
-3.328597e+00
-3.328056e+00
-3.394615e+00
0.000000e+00
-1.206554e-01
-2.475142e-01
-3.803830e-01
-5.170712e-01
-6.548985e-01
-7.919475e-01
-9.270647e-01
-1.059484e+00
-1.188660e+00
-1.314168e+00
-1.435648e+00
-1.552775e+00
-1.665248e+00
-1.772785e+00
-1.875123e+00
-1.972013e+00
-2.063215e+00
-2.148486e+00
-2.227570e+00
-2.300167e+00
-2.365910e+00
-2.424315e+00
-2.474732e+00
-2.516289e+00
-2.547851e+00
-2.568089e+00
-2.575825e+00
-2.571140e+00
-2.558088e+00
-2.549351e+00
-2.568598e+00
-2.626952e+00
0.000000e+00
-8.933725e-02
-1.827806e-01
-2.802845e-01
-3.807809e-01
-4.826674e-01
-5.845579e-01
-6.853909e-01
-7.844126e-01
-8.810865e-01
-9.750129e-01
-1.065871e+00
-1.153381e+00
-1.237284e+00
-1.317332e+00
-1.393275e+00
-1.464857e+00
-1.531809e+00
-1.593837e+00
-1.650609e+00
-1.701739e+00
-1.746766e+00
-1.785137e+00
-1.816198e+00
-1.839215e+00
-1.853471e+00
-1.858530e+00
-1.854841e+00
-1.844905e+00
-1.835049e+00
-1.836715e+00
-1.861716e+00
-1.911377e+00
0.000000e+00
-5.909556e-02
-1.207140e-01
-1.848668e-01
-2.509942e-01
-3.182225e-01
-3.856700e-01
-4.525899e-01
-5.184070e-01
-5.826972e-01
-6.451417e-01
-7.054847e-01
-7.635031e-01
-8.189849e-01
-8.717158e-01
-9.214694e-01
-9.679992e-01
-1.011031e+00
-1.050256e+00
-1.085324e+00
-1.115834e+00
-1.141339e+00
-1.161354e+00
-1.175393e+00
-1.183055e+00
-1.184200e+00
-1.179282e+00
-1.169891e+00
-1.159499e+00
-1.154042e+00
-1.161017e+00
-1.185856e+00
-1.226742e+00
0.000000e+00
-2.944835e-02
-6.011047e-02
-9.199594e-02
-1.248584e-01
-1.583033e-01
-1.919057e-01
-2.252822e-01
-2.581215e-01
-2.901822e-01
-3.212732e-01
-3.512326e-01
-3.799089e-01
-4.071470e-01
-4.327779e-01
-4.566108e-01
-4.784268e-01
-4.979740e-01
-5.149651e-01
-5.290768e-01
-5.399571e-01
-5.472423e-01
-5.505928e-01
-5.497609e-01
-5.447075e-01
-5.357920e-01
-5.240496e-01
-5.115356e-01
-5.015972e-01
-4.986928e-01
-5.072234e-01
-5.291998e-01
-5.619838e-01
0.000000e+00
-8.155311e-05
-1.717994e-04
-2.666012e-04
-3.615912e-04
-4.511862e-04
-5.273532e-04
-5.781340e-04
-5.859055e-04
-5.252869e-04
-3.606051e-04
-4.287837e-05
4.936746e-04
1.335516e-03
2.593860e-03
4.408574e-03
6.951318e-03
1.042695e-02
1.507170e-02
2.114586e-02
2.891754e-02
3.863270e-02
5.046465e-02
6.443479e-02
8.029636e-02
9.737855e-02
1.144079e-01
1.293675e-01
1.395339e-01
1.419032e-01
1.341793e-01
1.161460e-01
9.069610e-02
0.000000e+00
2.929132e-02
5.977947e-02
9.148204e-02
1.241608e-01
1.574315e-01
1.908843e-01
2.241581e-01
2.569746e-01
2.891398e-01
3.205298e-01
3.510745e-01
3.807461e-01
4.095522e-01
4.375335e-01
4.647634e-01
4.913480e-01
5.174244e-01
5.431558e-01
5.687189e-01
5.942822e-01
6.199707e-01
6.458117e-01
6.716595e-01
6.970994e-01
7.213410e-01
7.431320e-01
7.607547e-01
7.721998e-01
7.756167e-01
7.700540e-01
7.562954e-01
7.373678e-01
0.000000e+00
5.895661e-02
1.204206e-01
1.844105e-01
2.503731e-01
3.174426e-01
3.847495e-01
4.515648e-01
5.173400e-01
5.816896e-01
6.443488e-01
7.051369e-01
7.639312e-01
8.206533e-01
8.752612e-01
9.277473e-01
9.781358e-01
1.026480e+00
1.072855e+00
1.117343e+00
1.160015e+00
1.200887e+00
1.239882e+00
1.276762e+00
1.311057e+00
1.342008e+00
1.368541e+00
1.389331e+00
1.403011e+00
1.408565e+00
1.405887e+00
1.396346e+00
1.383125e+00
0.000000e+00
8.922802e-02
1.825491e-01
2.799234e-01
3.802865e-01
4.820412e-01
5.838091e-01
6.845403e-01
7.834984e-01
8.801718e-01
9.741960e-01
1.065298e+00
1.153266e+00
1.237927e+00
1.319146e+00
1.396821e+00
1.470880e+00
1.541279e+00
1.607995e+00
1.671013e+00
1.730308e+00
1.785814e+00
1.837386e+00
1.884759e+00
1.927500e+00
1.964980e+00
1.996387e+00
2.020805e+00
2.037403e+00
2.045756e+00
2.046275e+00
2.040674e+00
2.032315e+00
0.000000e+00
1.205868e-01
2.473677e-01
3.801529e-01
5.167529e-01
6.544893e-01
7.914479e-01
9.264802e-01
1.058827e+00
1.187951e+00
1.313441e+00
1.434953e+00
1.552186e+00
1.664870e+00
1.772763e+00
1.875654e+00
1.973363e+00
2.065738e+00
2.152649e+00
2.233983e+00
2.309622e+00
2.379429e+00
2.443222e+00
2.500750e+00
2.551670e+00
2.595545e+00
2.631864e+00
2.660115e+00
2.679934e+00
2.691334e+00
2.695044e+00
2.692943e+00
2.688540e+00
0.000000e+00
1.542425e-01
3.178057e-01
4.891141e-01
6.644442e-01
8.393706e-01
1.012011e+00
1.181495e+00
1.347265e+00
1.508861e+00
1.665859e+00
1.817853e+00
1.964448e+00
2.105265e+00
2.239945e+00
2.368156e+00
2.489598e+00
2.604001e+00
2.711124e+00
2.810741e+00
2.902643e+00
2.986620e+00
3.062454e+00
3.129920e+00
3.188779e+00
3.238797e+00
3.279781e+00
3.311629e+00
3.334431e+00
3.348607e+00
3.355130e+00
3.355910e+00
3.354450e+00
0.000000e+00
1.944688e-01
4.010995e-01
6.157907e-01
8.307906e-01
1.042918e+00
1.250925e+00
1.454518e+00
1.653448e+00
1.847348e+00
2.035772e+00
2.218234e+00
2.394231e+00
2.563262e+00
2.724839e+00
2.878505e+00
3.023832e+00
3.160427e+00
3.287923e+00
3.405977e+00
3.514265e+00
3.612483e+00
3.700351e+00
3.777632e+00
3.844154e+00
3.899855e+00
3.944826e+00
3.979383e+00
4.004119e+00
4.019963e+00
4.028256e+00
4.030957e+00
4.031280e+00
0.000000e+00
2.477367e-01
5.150250e-01
7.714811e-01
1.023451e+00
1.270789e+00
1.512944e+00
1.749933e+00
1.981624e+00
2.207616e+00
2.427363e+00
2.640261e+00
2.845682e+00
3.042996e+00
3.231592e+00
3.410887e+00
3.580331e+00
3.739403e+00
3.887609e+00
4.024469e+00
4.149516e+00
4.262307e+00
4.362435e+00
4.449565e+00
4.523489e+00
4.584198e+00
4.631972e+00
4.667482e+00
4.691876e+00
4.706825e+00
4.714462e+00
4.717230e+00
4.717909e+00
0.000000e+00
3.745019e-01
6.780762e-01
9.640186e-01
1.246913e+00
1.526335e+00
1.801189e+00
2.070981e+00
2.335217e+00
2.593240e+00
2.844318e+00
3.087695e+00
3.322610e+00
3.548318e+00
3.764100e+00
3.969269e+00
4.163169e+00
4.345168e+00
4.514639e+00
4.670954e+00
4.813472e+00
4.941545e+00
5.054540e+00
5.151884e+00
5.233144e+00
5.298138e+00
5.347092e+00
5.380818e+00
5.400921e+00
5.409980e+00
5.411626e+00
5.410261e+00
5.409494e+00
0.000000e+00
-2.318835e-01
-4.106141e-01
-6.105315e-01
-8.352371e-01
-1.089360e+00
-1.374929e+00
-1.692924e+00
-2.043396e+00
-2.425939e+00
-2.839879e+00
-3.284347e+00
-3.758329e+00
-4.260692e+00
-4.790212e+00
-5.345603e+00
-5.925533e+00
-6.528656e+00
-7.153636e+00
-7.799191e+00
-8.464145e+00
-9.147496e+00
-9.848519e+00
-1.056692e+01
-1.130307e+01
-1.205836e+01
-1.283590e+01
-1.364159e+01
-1.448656e+01
-1.539231e+01
-1.640518e+01
-1.763392e+01
-1.931931e+01
0.000000e+00
-1.444992e-01
-3.312678e-01
-5.305058e-01
-7.560412e-01
-1.011275e+00
-1.298278e+00
-1.617823e+00
-1.969990e+00
-2.354408e+00
-2.770412e+00
-3.217132e+00
-3.693540e+00
-4.198483e+00
-4.730711e+00
-5.288900e+00
-5.871681e+00
-6.477663e+00
-7.105466e+00
-7.753757e+00
-8.421303e+00
-9.107039e+00
-9.810167e+00
-1.053031e+01
-1.126772e+01
-1.202368e+01
-1.280113e+01
-1.360584e+01
-1.444878e+01
-1.535155e+01
-1.635840e+01
-1.756133e+01
-1.913503e+01
0.000000e+00
-1.067437e-01
-2.686736e-01
-4.641373e-01
-6.883852e-01
-9.439739e-01
-1.231948e+00
-1.552766e+00
-1.906401e+00
-2.292464e+00
-2.710284e+00
-3.158983e+00
-3.637520e+00
-4.144727e+00
-4.679336e+00
-5.239999e+00
-5.825323e+00
-6.433889e+00
-7.064290e+00
-7.715169e+00
-8.385268e+00
-9.073503e+00
-9.779066e+00
-1.050158e+01
-1.124132e+01
-1.199963e+01
-1.277958e+01
-1.358712e+01
-1.443329e+01
-1.533793e+01
-1.633335e+01
-1.745397e+01
-1.868891e+01
0.000000e+00
-8.686073e-02
-2.293526e-01
-4.139628e-01
-6.343326e-01
-8.886182e-01
-1.176621e+00
-1.498145e+00
-1.852878e+00
-2.240296e+00
-2.659665e+00
-3.110074e+00
-3.590463e+00
-4.099649e+00
-4.636353e+00
-5.199219e+00
-5.786841e+00
-6.397793e+00
-7.030663e+00
-7.684091e+00
-8.356824e+00
-9.047794e+00
-9.756220e+00
-1.048177e+01
-1.122478e+01
-1.198666e+01
-1.277043e+01
-1.358164e+01
-1.442955e+01
-1.532752e+01
-1.628674e+01
-1.729509e+01
-1.823183e+01
0.000000e+00
-7.525513e-02
-2.043439e-01
-3.790367e-01
-5.937742e-01
-8.454733e-01
-1.132566e+00
-1.454172e+00
-1.809569e+00
-2.198009e+00
-2.618638e+00
-3.070482e+00
-3.552449e+00
-4.063343e+00
-4.601879e+00
-5.166700e+00
-5.756406e+00
-6.369575e+00
-7.004805e+00
-7.660748e+00
-8.336169e+00
-9.030020e+00
-9.741542e+00
-1.047041e+01
-1.121693e+01
-1.198232e+01
-1.276906e+01
-1.358122e+01
-1.442429e+01
-1.530274e+01
-1.621123e+01
-1.711359e+01
-1.792909e+01
0.000000e+00
-6.792127e-02
-1.882203e-01
-3.554205e-01
-5.650140e-01
-8.137358e-01
-1.099446e+00
-1.420702e+00
-1.776401e+00
-2.165548e+00
-2.587149e+00
-3.040150e+00
-3.523424e+00
-4.035759e+00
-4.575868e+00
-5.142404e+00
-5.733977e+00
-6.349180e+00
-6.986625e+00
-7.644978e+00
-8.323012e+00
-9.019676e+00
-9.734182e+00
-1.046611e+01
-1.121555e+01
-1.198322e+01
-1.277052e+01
-1.357929e+01
-1.441072e+01
-1.526206e+01
-1.611916e+01
-1.694891e+01
-1.770237e+01
0.000000e+00
-6.332311e-02
-1.780917e-01
-3.402298e-01
-5.459645e-01
-7.921899e-01
-1.076563e+00
-1.397332e+00
-1.753117e+00
-2.142725e+00
-2.565037e+00
-3.018928e+00
-3.503237e+00
-4.016742e+00
-4.558160e+00
-5.126155e+00
-5.719352e+00
-6.336361e+00
-6.975801e+00
-7.636343e+00
-8.316744e+00
-9.015906e+00
-9.732934e+00
-1.046720e+01
-1.121838e+01
-1.198646e+01
-1.277151e+01
-1.357310e+01
-1.438896e+01
-1.521215e+01
-1.602723e+01
-1.680851e+01
-1.752465e+01
0.000000e+00
-6.078295e-02
-1.724797e-01
-3.317086e-01
-5.351117e-01
-7.797395e-01
-1.063201e+00
-1.383602e+00
-1.739409e+00
-2.129312e+00
-2.552108e+00
-3.006633e+00
-3.491703e+00
-4.006096e+00
-4.548537e+00
-5.117704e+00
-5.712236e+00
-6.330754e+00
-6.971880e+00
-7.634264e+00
-8.316620e+00
-9.017750e+00
-9.736585e+00
-1.047219e+01
-1.122372e+01
-1.199034e+01
-1.277083e+01
-1.356299e+01
-1.436240e+01
-1.516069e+01
-1.594387e+01
-1.669255e+01
-1.738520e+01
0.000000e+00
-5.996125e-02
-1.706673e-01
-3.289503e-01
-5.315864e-01
-7.756864e-01
-1.058855e+00
-1.379162e+00
-1.735031e+00
-2.125115e+00
-2.548196e+00
-3.003099e+00
-3.488644e+00
-4.003620e+00
-4.546767e+00
-5.116775e+00
-5.712298e+00
-6.331958e+00
-6.974364e+00
-7.638134e+00
-8.321901e+00
-9.024335e+00
-9.744136e+00
-1.048001e+01
-1.123059e+01
-1.199425e+01
-1.276877e+01
-1.355076e+01
-1.433484e+01
-1.511270e+01
-1.587247e+01
-1.659937e+01
-1.727766e+01
0.000000e+00
-6.075263e-02
-1.724385e-01
-3.316759e-01
-5.351088e-01
-7.797923e-01
-1.063343e+00
-1.383876e+00
-1.739874e+00
-2.130043e+00
-2.553204e+00
-3.008218e+00
-3.493933e+00
-4.009157e+00
-4.552651e+00
-5.123122e+00
-5.719228e+00
-6.339588e+00
-6.982791e+00
-7.647401e+00
-8.331957e+00
-9.034969e+00
-9.754893e+00
-1.049008e+01
-1.123866e+01
-1.199839e+01
-1.276633e+01
-1.353847e+01
-1.430922e+01
-1.507096e+01
-1.581392e+01
-1.652670e+01
-1.719732e+01
0.000000e+00
-6.326398e-02
-1.780114e-01
-3.401655e-01
-5.459571e-01
-7.922888e-01
-1.076832e+00
-1.397855e+00
-1.754005e+00
-2.144123e+00
-2.567134e+00
-3.021964e+00
-3.507509e+00
-4.022611e+00
-4.566052e+00
-5.136552e+00
-5.732775e+00
-6.353331e+00
-6.996780e+00
-7.661626e+00
-8.346307e+00
-9.049174e+00
-9.768447e+00
-1.050215e+01
-1.124802e+01
-1.200332e+01
-1.276470e+01
-1.352789e+01
-1.428747e+01
-1.503678e+01
-1.576792e+01
-1.647213e+01
-1.714024e+01
0.000000e+00
-6.783682e-02
-1.881060e-01
-3.553281e-01
-5.650002e-01
-8.138695e-01
-1.099816e+00
-1.421426e+00
-1.777634e+00
-2.167495e+00
-2.590072e+00
-3.044386e+00
-3.529390e+00
-4.043962e+00
-4.586906e+00
-5.156955e+00
-5.752776e+00
-6.372968e+00
-7.016061e+00
-7.680502e+00
-8.364635e+00
-9.066667e+00
-9.784615e+00
-1.051624e+01
-1.125896e+01
-1.200973e+01
-1.276494e+01
-1.352029e+01
-1.427073e+01
-1.501056e+01
-1.573355e+01
-1.643318e+01
-1.710281e+01
0.000000e+00
-7.515172e-02
-2.042047e-01
-3.789232e-01
-5.937540e-01
-8.456298e-01
-1.133008e+00
-1.455041e+00
-1.811054e+00
-2.200356e+00
-2.622166e+00
-3.075598e+00
-3.559658e+00
-4.073261e+00
-4.615229e+00
-5.184307e+00
-5.779163e+00
-6.398388e+00
-7.040486e+00
-7.703858e+00
-8.386771e+00
-9.087315e+00
-9.803355e+00
-1.053245e+01
-1.127181e+01
-1.201817e+01
-1.276780e+01
-1.351647e+01
-1.425953e+01
-1.499214e+01
-1.570954e+01
-1.640732e+01
-1.708139e+01
0.000000e+00
-8.674888e-02
-2.292028e-01
-4.138400e-01
-6.343107e-01
-8.887904e-01
-1.177108e+00
-1.499105e+00
-1.854519e+00
-2.242892e+00
-2.663568e+00
-3.115732e+00
-3.598434e+00
-4.110611e+00
-4.651103e+00
-5.218664e+00
-5.811965e+00
-6.429591e+00
-7.070031e+00
-7.731653e+00
-8.412672e+00
-9.111102e+00
-9.824701e+00
-1.055091e+01
-1.128678e+01
-1.202896e+01
-1.277366e+01
-1.351673e+01
-1.425388e+01
-1.498097e+01
-1.569445e+01
-1.639189e+01
-1.707205e+01
0.000000e+00
-1.066393e-01
-2.685321e-01
-4.640219e-01
-6.883734e-01
-9.441649e-01
-1.232469e+00
-1.553782e+00
-1.908130e+00
-2.295189e+00
-2.714370e+00
-3.164893e+00
-3.645827e+00
-4.156127e+00
-4.694642e+00
-5.260135e+00
-5.851283e+00
-6.466672e+00
-7.104783e+00
-7.763970e+00
-8.442418e+00
-9.138103e+00
-9.848728e+00
-1.057167e+01
-1.130393e+01
-1.204210e+01
-1.278242e+01
-1.352082e+01
-1.425326e+01
-1.497607e+01
-1.568662e+01
-1.638413e+01
-1.707042e+01
0.000000e+00
-1.444198e-01
-3.311519e-01
-5.304163e-01
-7.560590e-01
-1.011501e+00
-1.298842e+00
-1.618892e+00
-1.971782e+00
-2.357204e+00
-2.774573e+00
-3.223114e+00
-3.701902e+00
-4.209898e+00
-4.745960e+00
-5.308860e+00
-5.897281e+00
-6.509816e+00
-7.144947e+00
-7.801023e+00
-8.476222e+00
-9.168507e+00
-9.875568e+00
-1.059478e+01
-1.132314e+01
-1.205727e+01
-1.279347e+01
-1.352780e+01
-1.425638e+01
-1.497585e+01
-1.568407e+01
-1.638132e+01
-1.707181e+01
0.000000e+00
-2.318384e-01
-4.105367e-01
-6.104887e-01
-8.353112e-01
-1.089652e+00
-1.375569e+00
-1.694078e+00
-2.045280e+00
-2.428828e+00
-2.844121e+00
-3.290379e+00
-3.766678e+00
-4.271984e+00
-4.805163e+00
-5.364998e+00
-5.950180e+00
-6.559307e+00
-7.190863e+00
-7.843196e+00
-8.514483e+00
-9.202684e+00
-9.905499e+00