TITLE = "Solution"
VARIABLES = x, y, u, v, psiu, psiv, t, stress
ZONE T="structure" N=153 E=128 F=FEBLOCK ET=QUADRILATERAL VARLOCATION=([7,8]=cellcentered)
0.000000e+00
1.250000e+01
2.500000e+01
3.750000e+01
5.000000e+01
6.250000e+01
7.500000e+01
8.750000e+01
1.000000e+02
1.125000e+02
1.250000e+02
1.375000e+02
1.500000e+02
1.625000e+02
1.750000e+02
1.875000e+02
2.000000e+02
0.000000e+00
1.250000e+01
2.500000e+01
3.750000e+01
5.000000e+01
6.250000e+01
7.500000e+01
8.750000e+01
1.000000e+02
1.125000e+02
1.250000e+02
1.375000e+02
1.500000e+02
1.625000e+02
1.750000e+02
1.875000e+02
2.000000e+02
0.000000e+00
1.250000e+01
2.500000e+01
3.750000e+01
5.000000e+01
6.250000e+01
7.500000e+01
8.750000e+01
1.000000e+02
1.125000e+02
1.250000e+02
1.375000e+02
1.500000e+02
1.625000e+02
1.750000e+02
1.875000e+02
2.000000e+02
0.000000e+00
1.250000e+01
2.500000e+01
3.750000e+01
5.000000e+01
6.250000e+01
7.500000e+01
8.750000e+01
1.000000e+02
1.125000e+02
1.250000e+02
1.375000e+02
1.500000e+02
1.625000e+02
1.750000e+02
1.875000e+02
2.000000e+02
0.000000e+00
1.250000e+01
2.500000e+01
3.750000e+01
5.000000e+01
6.250000e+01
7.500000e+01
8.750000e+01
1.000000e+02
1.125000e+02
1.250000e+02
1.375000e+02
1.500000e+02
1.625000e+02
1.750000e+02
1.875000e+02
2.000000e+02
0.000000e+00
1.250000e+01
2.500000e+01
3.750000e+01
5.000000e+01
6.250000e+01
7.500000e+01
8.750000e+01
1.000000e+02
1.125000e+02
1.250000e+02
1.375000e+02
1.500000e+02
1.625000e+02
1.750000e+02
1.875000e+02
2.000000e+02
0.000000e+00
1.250000e+01
2.500000e+01
3.750000e+01
5.000000e+01
6.250000e+01
7.500000e+01
8.750000e+01
1.000000e+02
1.125000e+02
1.250000e+02
1.375000e+02
1.500000e+02
1.625000e+02
1.750000e+02
1.875000e+02
2.000000e+02
0.000000e+00
1.250000e+01
2.500000e+01
3.750000e+01
5.000000e+01
6.250000e+01
7.500000e+01
8.750000e+01
1.000000e+02
1.125000e+02
1.250000e+02
1.375000e+02
1.500000e+02
1.625000e+02
1.750000e+02
1.875000e+02
2.000000e+02
0.000000e+00
1.250000e+01
2.500000e+01
3.750000e+01
5.000000e+01
6.250000e+01
7.500000e+01
8.750000e+01
1.000000e+02
1.125000e+02
1.250000e+02
1.375000e+02
1.500000e+02
1.625000e+02
1.750000e+02
1.875000e+02
2.000000e+02
0.000000e+00
0.000000e+00
0.000000e+00
0.000000e+00
0.000000e+00
0.000000e+00
0.000000e+00
0.000000e+00
0.000000e+00
0.000000e+00
0.000000e+00
0.000000e+00
0.000000e+00
0.000000e+00
0.000000e+00
0.000000e+00
0.000000e+00
1.250000e+01
1.250000e+01
1.250000e+01
1.250000e+01
1.250000e+01
1.250000e+01
1.250000e+01
1.250000e+01
1.250000e+01
1.250000e+01
1.250000e+01
1.250000e+01
1.250000e+01
1.250000e+01
1.250000e+01
1.250000e+01
1.250000e+01
2.500000e+01
2.500000e+01
2.500000e+01
2.500000e+01
2.500000e+01
2.500000e+01
2.500000e+01
2.500000e+01
2.500000e+01
2.500000e+01
2.500000e+01
2.500000e+01
2.500000e+01
2.500000e+01
2.500000e+01
2.500000e+01
2.500000e+01
3.750000e+01
3.750000e+01
3.750000e+01
3.750000e+01
3.750000e+01
3.750000e+01
3.750000e+01
3.750000e+01
3.750000e+01
3.750000e+01
3.750000e+01
3.750000e+01
3.750000e+01
3.750000e+01
3.750000e+01
3.750000e+01
3.750000e+01
5.000000e+01
5.000000e+01
5.000000e+01
5.000000e+01
5.000000e+01
5.000000e+01
5.000000e+01
5.000000e+01
5.000000e+01
5.000000e+01
5.000000e+01
5.000000e+01
5.000000e+01
5.000000e+01
5.000000e+01
5.000000e+01
5.000000e+01
6.250000e+01
6.250000e+01
6.250000e+01
6.250000e+01
6.250000e+01
6.250000e+01
6.250000e+01
6.250000e+01
6.250000e+01
6.250000e+01
6.250000e+01
6.250000e+01
6.250000e+01
6.250000e+01
6.250000e+01
6.250000e+01
6.250000e+01
7.500000e+01
7.500000e+01
7.500000e+01
7.500000e+01
7.500000e+01
7.500000e+01
7.500000e+01
7.500000e+01
7.500000e+01
7.500000e+01
7.500000e+01
7.500000e+01
7.500000e+01
7.500000e+01
7.500000e+01
7.500000e+01
7.500000e+01
8.750000e+01
8.750000e+01
8.750000e+01
8.750000e+01
8.750000e+01
8.750000e+01
8.750000e+01
8.750000e+01
8.750000e+01
8.750000e+01
8.750000e+01
8.750000e+01
8.750000e+01
8.750000e+01
8.750000e+01
8.750000e+01
8.750000e+01
1.000000e+02
1.000000e+02
1.000000e+02
1.000000e+02
1.000000e+02
1.000000e+02
1.000000e+02
1.000000e+02
1.000000e+02
1.000000e+02
1.000000e+02
1.000000e+02
1.000000e+02
1.000000e+02
1.000000e+02
1.000000e+02
1.000000e+02
0.000000e+00
-9.103279e-02
-1.676202e-01
-2.380906e-01
-3.037182e-01
-3.643647e-01
-4.198998e-01
-4.702805e-01
-5.155800e-01
-5.560072e-01
-5.919626e-01
-6.241492e-01
-6.537757e-01
-6.829307e-01
-7.152160e-01
-7.548665e-01
-7.846199e-01
0.000000e+00
-5.436317e-02
-1.129289e-01
-1.670106e-01
-2.168365e-01
-2.625960e-01
-3.043841e-01
-3.422566e-01
-3.762819e-01
-4.065647e-01
-4.332588e-01
-4.565566e-01
-4.766068e-01
-4.932029e-01
-5.049091e-01
-5.074749e-01
-5.166739e-01
0.000000e+00
-3.399718e-02
-6.990670e-02
-1.057318e-01
-1.391734e-01
-1.698774e-01
-1.978190e-01
-2.230298e-01
-2.455160e-01
-2.652400e-01
-2.820958e-01
-2.958478e-01
-3.060059e-01
-3.116763e-01
-3.118338e-01
-3.095685e-01
-3.189508e-01
0.000000e+00
-1.640914e-02
-3.378041e-02
-5.126139e-02
-6.797637e-02
-8.337190e-02
-9.732644e-02
-1.097993e-01
-1.207192e-01
-1.299439e-01
-1.372378e-01
-1.422564e-01
-1.445892e-01
-1.440442e-01
-1.418051e-01
-1.424174e-01
-1.494035e-01
0.000000e+00
-1.511594e-05
-3.436328e-05
-5.354741e-05
-6.372878e-05
-4.497261e-05
4.228915e-05
2.690564e-04
7.518143e-04
1.664074e-03
3.232204e-03
5.683612e-03
9.079745e-03
1.291755e-02
1.556858e-02
1.484148e-02
1.021609e-02
0.000000e+00
1.638588e-02
3.372642e-02
5.117502e-02
6.786894e-02
8.328452e-02
9.736033e-02
1.101652e-01
1.218102e-01
1.324303e-01
1.421644e-01
1.510845e-01
1.590356e-01
1.654115e-01
1.691621e-01
1.694596e-01
1.671119e-01
0.000000e+00
3.399336e-02
6.989507e-02
1.057086e-01
1.391372e-01
1.698324e-01
1.977817e-01
2.230419e-01
2.456654e-01
2.656923e-01
2.831402e-01
2.979663e-01
3.100002e-01
3.188973e-01
3.242376e-01
3.259715e-01
3.254241e-01
0.000000e+00
5.438547e-02
1.129774e-01
1.670880e-01
2.169402e-01
2.627070e-01
3.044464e-01
3.421427e-01
3.757387e-01
4.051373e-01
4.301991e-01
4.507508e-01
4.666279e-01
4.777781e-01
4.844293e-01
4.872657e-01
4.877867e-01
0.000000e+00
9.107009e-02
1.677186e-01
2.382749e-01
3.040126e-01
3.647787e-01
4.203937e-01
4.706958e-01
5.155168e-01
5.546239e-01
5.876778e-01
6.142379e-01
6.338681e-01
6.464139e-01
6.524812e-01
6.539787e-01
6.539499e-01
0.000000e+00
-5.510466e-02
-1.081769e-01
-1.769461e-01
-2.613460e-01
-3.612189e-01
-4.754708e-01
-6.028232e-01
-7.419219e-01
-8.914306e-01
-1.050115e+00
-1.216993e+00
-1.391661e+00
-1.575053e+00
-1.771927e+00
-1.997186e+00
-2.320843e+00
0.000000e+00
-3.392344e-02
-8.928645e-02
-1.589084e-01
-2.446878e-01
-3.459236e-01
-4.615596e-01
-5.902860e-01
-7.307329e-01
-8.815398e-01
-1.041438e+00
-1.209401e+00
-1.384963e+00
-1.569033e+00
-1.765829e+00
-1.989722e+00
-2.264013e+00
0.000000e+00
-2.559824e-02
-7.619067e-02
-1.460696e-01
-2.326600e-01
-3.349378e-01
-4.516368e-01
-5.814343e-01
-7.229697e-01
-8.749022e-01
-1.035988e+00
-1.205234e+00
-1.382220e+00
-1.567706e+00
-1.764671e+00
-1.976817e+00
-2.182129e+00
0.000000e+00
-2.205874e-02
-6.967952e-02
-1.385336e-01
-2.254370e-01
-3.283444e-01
-4.457709e-01
-5.763437e-01
-7.187278e-01
-8.716186e-01
-1.033799e+00
-1.204258e+00
-1.382374e+00
-1.568064e+00
-1.761089e+00
-1.956021e+00
-2.135599e+00
0.000000e+00
-2.103908e-02
-6.770894e-02
-1.361295e-01
-2.230566e-01
-3.262201e-01
-4.439842e-01
-5.749774e-01
-7.178900e-01
-8.714387e-01
-1.034379e+00
-1.205540e+00
-1.383815e+00
-1.567889e+00
-1.755008e+00
-1.938771e+00
-2.108062e+00
0.000000e+00
-2.204565e-02
-6.967020e-02
-1.385502e-01
-2.255185e-01
-3.285589e-01
-4.462299e-01
-5.772130e-01
-7.202266e-01
-8.739810e-01
-1.037151e+00
-1.208320e+00
-1.385832e+00
-1.567428e+00
-1.749619e+00
-1.927080e+00
-2.092758e+00
0.000000e+00
-2.557688e-02
-7.617523e-02
-1.460973e-01
-2.327972e-01
-3.353008e-01
-4.524150e-01
-5.829104e-01
-7.255181e-01
-8.789264e-01
-1.041721e+00
-1.212267e+00
-1.388509e+00
-1.567726e+00
-1.746385e+00
-1.920441e+00
-2.086008e+00
0.000000e+00
-3.390342e-02
-8.927300e-02
-1.589452e-01
-2.448526e-01
-3.463505e-01
-4.624655e-01
-5.919922e-01
-7.336603e-01
-8.861340e-01
-1.047941e+00
-1.217330e+00
-1.392071e+00
-1.569292e+00
-1.745574e+00
-1.917695e+00
-2.084424e+00
0.000000e+00
-5.509639e-02
-1.081780e-01
-1.770029e-01
-2.615371e-01
-3.616751e-01
-4.763978e-01
-6.045145e-01
-7.447416e-01
-8.957197e-01
-1.055942e+00
-1.223616e+00
-1.396499e+00
-1.571781e+00
-1.746263e+00
-1.917193e+00
-2.084449e+00


0.000000e+00
1.386240e-09
2.866609e-09
4.177165e-09
5.283116e-09
6.180905e-09
6.887218e-09
7.428568e-09
7.833086e-09
8.127795e-09
8.337475e-09
8.484427e-09
8.589032e-09
8.670210e-09
8.745755e-09
8.839098e-09
8.951232e-09
0.000000e+00
9.433071e-10
2.222259e-09
3.263438e-09
4.097699e-09
4.756334e-09
5.264315e-09
5.646983e-09
5.927768e-09
6.127532e-09
6.264362e-09
6.353236e-09
6.405458e-09
6.431137e-09
6.457181e-09
6.533507e-09
6.648962e-09
0.000000e+00
7.022352e-10
1.543262e-09
2.245585e-09
2.809440e-09
3.244418e-09
3.571571e-09
3.811839e-09
3.983058e-09
4.099969e-09
4.174652e-09
4.216993e-09
4.235824e-09
4.243108e-09
4.261476e-09
4.321363e-09
4.414852e-09
0.000000e+00
3.757587e-10
7.695225e-10
1.120825e-09
1.408011e-09
1.627387e-09
1.789273e-09
1.905408e-09
1.985521e-09
2.037359e-09
2.067406e-09
2.081795e-09
2.087638e-09
2.094061e-09
2.110248e-09
2.146639e-09
2.204157e-09
0.000000e+00
-4.102650e-13
-9.630791e-13
-1.730821e-12
-2.835571e-12
-4.441988e-12
-6.764085e-12
-1.004794e-11
-1.450534e-11
-2.014834e-11
-2.648034e-11
-3.204322e-11
-3.420546e-11
-3.038268e-11
-2.042667e-11
-2.888641e-12
2.707530e-11
0.000000e+00
-3.764633e-10
-7.711520e-10
-1.123744e-09
-1.412734e-09
-1.634654e-09
-1.800117e-09
-1.921217e-09
-2.008036e-09
-2.068517e-09
-2.108816e-09
-2.133569e-09
-2.146317e-09
-2.150536e-09
-2.150315e-09
-2.145982e-09
-2.133182e-09
0.000000e+00
-7.025981e-10
-1.544259e-09
-2.247431e-09
-2.812379e-09
-3.248713e-09
-3.577489e-09
-3.819651e-09
-3.993093e-09
-4.112798e-09
-4.191429e-09
-4.239866e-09
-4.267491e-09
-4.282290e-09
-4.290242e-09
-4.292961e-09
-4.289359e-09
0.000000e+00
-9.434355e-10
-2.222891e-09
-3.264559e-09
-4.099260e-09
-4.758173e-09
-5.266025e-09
-5.647836e-09
-5.926713e-09
-6.123394e-09
-6.256352e-09
-6.341912e-09
-6.394130e-09
-6.424453e-09
-6.441156e-09
-6.448761e-09
-6.449823e-09
0.000000e+00
-1.386847e-09
-2.867604e-09
-4.178277e-09
-5.284015e-09
-6.181005e-09
-6.885587e-09
-7.423839e-09
-7.823443e-09
-8.110997e-09
-8.310805e-09
-8.444258e-09
-8.529315e-09
-8.580138e-09
-8.606965e-09
-8.617233e-09
-8.619008e-09
0.000000e+00
1.259687e-09
2.263301e-09
3.316037e-09
4.579558e-09
6.066679e-09
7.747181e-09
9.581729e-09
1.153262e-08
1.356874e-08
1.566626e-08
1.780884e-08
1.998984e-08
2.222347e-08
2.456967e-08
2.705939e-08
2.958100e-08
0.000000e+00
6.772545e-10
1.658184e-09
2.782273e-09
4.142032e-09
5.721762e-09
7.483570e-09
9.385412e-09
1.139051e-08
1.346910e-08
1.559888e-08
1.776497e-08
1.996124e-08
2.219438e-08
2.449310e-08
2.691364e-08
2.939449e-08
0.000000e+00
3.340525e-10
1.183358e-09
2.365433e-09
3.803949e-09
5.459937e-09
7.286412e-09
9.240859e-09
1.128786e-08
1.339930e-08
1.555428e-08
1.773896e-08
1.994603e-08
2.217156e-08
2.441821e-08
2.675884e-08
2.917327e-08
0.000000e+00
1.903295e-10
9.594313e-10
2.147004e-09
3.626519e-09
5.324446e-09
7.186090e-09
9.168587e-09
1.123777e-08
1.336668e-08
1.553510e-08
1.772887e-08
1.993821e-08
2.215332e-08
2.437175e-08
2.664885e-08
2.897973e-08
0.000000e+00
1.538811e-10
8.984131e-10
2.080873e-09
3.571958e-09
5.283181e-09
7.156116e-09
9.147689e-09
1.122423e-08
1.335912e-08
1.553197e-08
1.772772e-08
1.993491e-08
2.214346e-08
2.434993e-08
2.658603e-08
2.884202e-08
0.000000e+00
1.905861e-10
9.597868e-10
2.147485e-09
3.627201e-09
5.325531e-09
7.187934e-09
9.171698e-09
1.124268e-08
1.337366e-08
1.554345e-08
1.773598e-08
1.993902e-08
2.214325e-08
2.434497e-08
2.655572e-08
2.876277e-08
0.000000e+00
3.344582e-10
1.184000e-09
2.366384e-09
3.805354e-09
5.462192e-09
7.290177e-09
9.247065e-09
1.129750e-08
1.341295e-08
1.557102e-08
1.775450e-08
1.995043e-08
2.214945e-08
2.434656e-08
2.654231e-08
2.872576e-08
0.000000e+00
6.778239e-10
1.659248e-09
2.783850e-09
4.144311e-09
5.725201e-09
7.488905e-09
9.393654e-09
1.140274e-08
1.348598e-08
1.561953e-08
1.778492e-08
1.996808e-08
2.215873e-08
2.434998e-08
2.653721e-08
2.871341e-08
0.000000e+00
1.260597e-09
2.264866e-09
3.318231e-09
4.582549e-09
6.070813e-09
7.753036e-09
9.590065e-09
1.154423e-08
1.358405e-08
1.568427e-08
1.782507e-08
1.999106e-08
2.217053e-08
2.435481e-08
2.653686e-08
2.871152e-08


2.659900e-01
2.659900e-01
2.659900e-01
2.659902e-01
2.659903e-01
2.659904e-01
2.659905e-01
2.659906e-01
2.659906e-01
2.659907e-01
2.659907e-01
2.659907e-01
2.659907e-01
2.659907e-01
2.659907e-01
2.659907e-01
2.659901e-01
2.659901e-01
2.659902e-01
2.659903e-01
2.659904e-01
2.659905e-01
2.659906e-01
2.659906e-01
2.659907e-01
2.659907e-01
2.659907e-01
2.659907e-01
2.659907e-01
2.659907e-01
2.659907e-01
2.659907e-01
2.659904e-01
2.659904e-01
2.659904e-01
2.659905e-01
2.659905e-01
2.659906e-01
2.659906e-01
2.659907e-01
2.659907e-01
2.659907e-01
2.659907e-01
2.659907e-01
2.659907e-01
2.659907e-01
2.659907e-01
2.659907e-01
2.659906e-01
2.659906e-01
2.659906e-01
2.659906e-01
2.659906e-01
2.659907e-01
2.659907e-01
2.659907e-01
2.659907e-01
2.659907e-01
2.659907e-01
2.659907e-01
2.659907e-01
2.659907e-01
2.659907e-01
2.659907e-01
2.659906e-01
2.659906e-01
2.659906e-01
2.659906e-01
2.659906e-01
2.659907e-01
2.659907e-01
2.659907e-01
2.659907e-01
2.659907e-01
2.659907e-01
2.659907e-01
2.659907e-01
2.659907e-01
2.659907e-01
2.659907e-01
2.659904e-01
2.659904e-01
2.659904e-01
2.659905e-01
2.659905e-01
2.659906e-01
2.659906e-01
2.659907e-01
2.659907e-01
2.659907e-01
2.659907e-01
2.659907e-01
2.659907e-01
2.659907e-01
2.659907e-01
2.659907e-01
2.659901e-01
2.659901e-01
2.659902e-01
2.659903e-01
2.659904e-01
2.659905e-01
2.659906e-01
2.659906e-01
2.659907e-01
2.659907e-01
2.659907e-01
2.659907e-01
2.659907e-01
2.659907e-01
2.659907e-01
2.659907e-01
2.659900e-01
2.659900e-01
2.659900e-01
2.659902e-01
2.659903e-01
2.659904e-01
2.659905e-01
2.659906e-01
2.659906e-01
2.659907e-01
2.659907e-01
2.659907e-01
2.659907e-01
2.659907e-01
2.659907e-01
2.659907e-01


9.813557e-01
9.839996e-01
9.864454e-01
9.883282e-01
9.900758e-01
9.916873e-01
9.931554e-01
9.944630e-01
9.955963e-01
9.965442e-01
9.972979e-01
9.978501e-01
9.981933e-01
9.983157e-01
9.984041e-01
9.929554e-01
9.929465e-01
9.917349e-01
9.925144e-01
9.935318e-01
9.944803e-01
9.953424e-01
9.961228e-01
9.968297e-01
9.974697e-01
9.980494e-01
9.985754e-01
9.990517e-01
9.994673e-01
9.997394e-01
9.990513e-01
9.897242e-01
9.975492e-01
9.968533e-01
9.966655e-01
9.969298e-01
9.972774e-01
9.976141e-01
9.979267e-01
9.982221e-01
9.985082e-01
9.987872e-01
9.990478e-01
9.992495e-01
9.992916e-01
9.989283e-01
9.976104e-01
9.952401e-01
9.995012e-01
9.989937e-01
9.986802e-01
9.986006e-01
9.986324e-01
9.986857e-01
9.987389e-01
9.987909e-01
9.988419e-01
9.988847e-01
9.988966e-01
9.988330e-01
9.986315e-01
9.982699e-01
9.979631e-01
9.978855e-01
9.995031e-01
9.989963e-01
9.986825e-01
9.986002e-01
9.986245e-01
9.986629e-01
9.986896e-01
9.986986e-01
9.986863e-01
9.986471e-01
9.985739e-01
9.984684e-01
9.983680e-01
9.983880e-01
9.986718e-01
9.991632e-01
9.975527e-01
9.968587e-01
9.966706e-01
9.969298e-01
9.972639e-01
9.975724e-01
9.978335e-01
9.980433e-01
9.982004e-01
9.983063e-01
9.983732e-01
9.984386e-01
9.985760e-01
9.988641e-01
9.992968e-01
9.997443e-01
9.929458e-01
9.917344e-01
9.925134e-01
9.935289e-01
9.944729e-01
9.953255e-01
9.960877e-01
9.967626e-01
9.973507e-01
9.978534e-01
9.982789e-01
9.986506e-01
9.990085e-01
9.993837e-01
9.997346e-01
9.999556e-01
9.813430e-01
9.839797e-01
9.864210e-01
9.883008e-01
9.900512e-01
9.916783e-01
9.931857e-01
9.945699e-01
9.958310e-01
9.969668e-01
9.979636e-01
9.987905e-01
9.994057e-01
9.997853e-01
9.999579e-01
9.999991e-01
1 2 19 18
2 3 20 19
3 4 21 20
4 5 22 21
5 6 23 22
6 7 24 23
7 8 25 24
8 9 26 25
9 10 27 26
10 11 28 27
11 12 29 28
12 13 30 29
13 14 31 30
14 15 32 31
15 16 33 32
16 17 34 33
18 19 36 35
19 20 37 36
20 21 38 37
21 22 39 38
22 23 40 39
23 24 41 40
24 25 42 41
25 26 43 42
26 27 44 43
27 28 45 44
28 29 46 45
29 30 47 46
30 31 48 47
31 32 49 48
32 33 50 49
33 34 51 50
35 36 53 52
36 37 54 53
37 38 55 54
38 39 56 55
39 40 57 56
40 41 58 57
41 42 59 58
42 43 60 59
43 44 61 60
44 45 62 61
45 46 63 62
46 47 64 63
47 48 65 64
48 49 66 65
49 50 67 66
50 51 68 67
52 53 70 69
53 54 71 70
54 55 72 71
55 56 73 72
56 57 74 73
57 58 75 74
58 59 76 75
59 60 77 76
60 61 78 77
61 62 79 78
62 63 80 79
63 64 81 80
64 65 82 81
65 66 83 82
66 67 84 83
67 68 85 84
69 70 87 86
70 71 88 87
71 72 89 88
72 73 90 89
73 74 91 90
74 75 92 91
75 76 93 92
76 77 94 93
77 78 95 94
78 79 96 95
79 80 97 96
80 81 98 97
81 82 99 98
82 83 100 99
83 84 101 100
84 85 102 101
86 87 104 103
87 88 105 104
88 89 106 105
89 90 107 106
90 91 108 107
91 92 109 108
92 93 110 109
93 94 111 110
94 95 112 111
95 96 113 112
96 97 114 113
97 98 115 114
98 99 116 115
99 100 117 116
100 101 118 117
101 102 119 118
103 104 121 120
104 105 122 121
105 106 123 122
106 107 124 123
107 108 125 124
108 109 126 125
109 110 127 126
110 111 128 127
111 112 129 128
112 113 130 129
113 114 131 130
114 115 132 131
115 116 133 132
116 117 134 133
117 118 135 134
118 119 136 135
120 121 138 137
121 122 139 138
122 123 140 139
123 124 141 140
124 125 142 141
125 126 143 142
126 127 144 143
127 128 145 144
128 129 146 145
129 130 147 146
130 131 148 147
131 132 149 148
132 133 150 149
133 134 151 150
134 135 152 151
135 136 153 152
