TITLE = "Solution"
VARIABLES = x, y, u, v, psiu, psiv, t, stress
ZONE T="structure" N=561 E=512 F=FEBLOCK ET=QUADRILATERAL VARLOCATION=([7,8]=cellcentered)
0.000000e+00
6.250000e+00
1.250000e+01
1.875000e+01
2.500000e+01
3.125000e+01
3.750000e+01
4.375000e+01
5.000000e+01
5.625000e+01
6.250000e+01
6.875000e+01
7.500000e+01
8.125000e+01
8.750000e+01
9.375000e+01
1.000000e+02
1.062500e+02
1.125000e+02
1.187500e+02
1.250000e+02
1.312500e+02
1.375000e+02
1.437500e+02
1.500000e+02
1.562500e+02
1.625000e+02
1.687500e+02
1.750000e+02
1.812500e+02
1.875000e+02
1.937500e+02
2.000000e+02
0.000000e+00
6.250000e+00
1.250000e+01
1.875000e+01
2.500000e+01
3.125000e+01
3.750000e+01
4.375000e+01
5.000000e+01
5.625000e+01
6.250000e+01
6.875000e+01
7.500000e+01
8.125000e+01
8.750000e+01
9.375000e+01
1.000000e+02
1.062500e+02
1.125000e+02
1.187500e+02
1.250000e+02
1.312500e+02
1.375000e+02
1.437500e+02
1.500000e+02
1.562500e+02
1.625000e+02
1.687500e+02
1.750000e+02
1.812500e+02
1.875000e+02
1.937500e+02
2.000000e+02
0.000000e+00
6.250000e+00
1.250000e+01
1.875000e+01
2.500000e+01
3.125000e+01
3.750000e+01
4.375000e+01
5.000000e+01
5.625000e+01
6.250000e+01
6.875000e+01
7.500000e+01
8.125000e+01
8.750000e+01
9.375000e+01
1.000000e+02
1.062500e+02
1.125000e+02
1.187500e+02
1.250000e+02
1.312500e+02
1.375000e+02
1.437500e+02
1.500000e+02
1.562500e+02
1.625000e+02
1.687500e+02
1.750000e+02
1.812500e+02
1.875000e+02
1.937500e+02
2.000000e+02
0.000000e+00
6.250000e+00
1.250000e+01
1.875000e+01
2.500000e+01
3.125000e+01
3.750000e+01
4.375000e+01
5.000000e+01
5.625000e+01
6.250000e+01
6.875000e+01
7.500000e+01
8.125000e+01
8.750000e+01
9.375000e+01
1.000000e+02
1.062500e+02
1.125000e+02
1.187500e+02
1.250000e+02
1.312500e+02
1.375000e+02
1.437500e+02
1.500000e+02
1.562500e+02
1.625000e+02
1.687500e+02
1.750000e+02
1.812500e+02
1.875000e+02
1.937500e+02
2.000000e+02
0.000000e+00
6.250000e+00
1.250000e+01
1.875000e+01
2.500000e+01
3.125000e+01
3.750000e+01
4.375000e+01
5.000000e+01
5.625000e+01
6.250000e+01
6.875000e+01
7.500000e+01
8.125000e+01
8.750000e+01
9.375000e+01
1.000000e+02
1.062500e+02
1.125000e+02
1.187500e+02
1.250000e+02
1.312500e+02
1.375000e+02
1.437500e+02
1.500000e+02
1.562500e+02
1.625000e+02
1.687500e+02
1.750000e+02
1.812500e+02
1.875000e+02
1.937500e+02
2.000000e+02
0.000000e+00
6.250000e+00
1.250000e+01
1.875000e+01
2.500000e+01
3.125000e+01
3.750000e+01
4.375000e+01
5.000000e+01
5.625000e+01
6.250000e+01
6.875000e+01
7.500000e+01
8.125000e+01
8.750000e+01
9.375000e+01
1.000000e+02
1.062500e+02
1.125000e+02
1.187500e+02
1.250000e+02
1.312500e+02
1.375000e+02
1.437500e+02
1.500000e+02
1.562500e+02
1.625000e+02
1.687500e+02
1.750000e+02
1.812500e+02
1.875000e+02
1.937500e+02
2.000000e+02
0.000000e+00
6.250000e+00
1.250000e+01
1.875000e+01
2.500000e+01
3.125000e+01
3.750000e+01
4.375000e+01
5.000000e+01
5.625000e+01
6.250000e+01
6.875000e+01
7.500000e+01
8.125000e+01
8.750000e+01
9.375000e+01
1.000000e+02
1.062500e+02
1.125000e+02
1.187500e+02
1.250000e+02
1.312500e+02
1.375000e+02
1.437500e+02
1.500000e+02
1.562500e+02
1.625000e+02
1.687500e+02
1.750000e+02
1.812500e+02
1.875000e+02
1.937500e+02
2.000000e+02
0.000000e+00
6.250000e+00
1.250000e+01
1.875000e+01
2.500000e+01
3.125000e+01
3.750000e+01
4.375000e+01
5.000000e+01
5.625000e+01
6.250000e+01
6.875000e+01
7.500000e+01
8.125000e+01
8.750000e+01
9.375000e+01
1.000000e+02
1.062500e+02
1.125000e+02
1.187500e+02
1.250000e+02
1.312500e+02
1.375000e+02
1.437500e+02
1.500000e+02
1.562500e+02
1.625000e+02
1.687500e+02
1.750000e+02
1.812500e+02
1.875000e+02
1.937500e+02
2.000000e+02
0.000000e+00
6.250000e+00
1.250000e+01
1.875000e+01
2.500000e+01
3.125000e+01
3.750000e+01
4.375000e+01
5.000000e+01
5.625000e+01
6.250000e+01
6.875000e+01
7.500000e+01
8.125000e+01
8.750000e+01
9.375000e+01
1.000000e+02
1.062500e+02
1.125000e+02
1.187500e+02
1.250000e+02
1.312500e+02
1.375000e+02
1.437500e+02
1.500000e+02
1.562500e+02
1.625000e+02
1.687500e+02
1.750000e+02
1.812500e+02
1.875000e+02
1.937500e+02
2.000000e+02
0.000000e+00
6.250000e+00
1.250000e+01
1.875000e+01
2.500000e+01
3.125000e+01
3.750000e+01
4.375000e+01
5.000000e+01
5.625000e+01
6.250000e+01
6.875000e+01
7.500000e+01
8.125000e+01
8.750000e+01
9.375000e+01
1.000000e+02
1.062500e+02
1.125000e+02
1.187500e+02
1.250000e+02
1.312500e+02
1.375000e+02
1.437500e+02
1.500000e+02
1.562500e+02
1.625000e+02
1.687500e+02
1.750000e+02
1.812500e+02
1.875000e+02
1.937500e+02
2.000000e+02
0.000000e+00
6.250000e+00
1.250000e+01
1.875000e+01
2.500000e+01
3.125000e+01
3.750000e+01
4.375000e+01
5.000000e+01
5.625000e+01
6.250000e+01
6.875000e+01
7.500000e+01
8.125000e+01
8.750000e+01
9.375000e+01
1.000000e+02
1.062500e+02
1.125000e+02
1.187500e+02
1.250000e+02
1.312500e+02
1.375000e+02
1.437500e+02
1.500000e+02
1.562500e+02
1.625000e+02
1.687500e+02
1.750000e+02
1.812500e+02
1.875000e+02
1.937500e+02
2.000000e+02
0.000000e+00
6.250000e+00
1.250000e+01
1.875000e+01
2.500000e+01
3.125000e+01
3.750000e+01
4.375000e+01
5.000000e+01
5.625000e+01
6.250000e+01
6.875000e+01
7.500000e+01
8.125000e+01
8.750000e+01
9.375000e+01
1.000000e+02
1.062500e+02
1.125000e+02
1.187500e+02
1.250000e+02
1.312500e+02
1.375000e+02
1.437500e+02
1.500000e+02
1.562500e+02
1.625000e+02
1.687500e+02
1.750000e+02
1.812500e+02
1.875000e+02
1.937500e+02
2.000000e+02
0.000000e+00
6.250000e+00
1.250000e+01
1.875000e+01
2.500000e+01
3.125000e+01
3.750000e+01
4.375000e+01
5.000000e+01
5.625000e+01
6.250000e+01
6.875000e+01
7.500000e+01
8.125000e+01
8.750000e+01
9.375000e+01
1.000000e+02
1.062500e+02
1.125000e+02
1.187500e+02
1.250000e+02
1.312500e+02
1.375000e+02
1.437500e+02
1.500000e+02
1.562500e+02
1.625000e+02
1.687500e+02
1.750000e+02
1.812500e+02
1.875000e+02
1.937500e+02
2.000000e+02
0.000000e+00
6.250000e+00
1.250000e+01
1.875000e+01
2.500000e+01
3.125000e+01
3.750000e+01
4.375000e+01
5.000000e+01
5.625000e+01
6.250000e+01
6.875000e+01
7.500000e+01
8.125000e+01
8.750000e+01
9.375000e+01
1.000000e+02
1.062500e+02
1.125000e+02
1.187500e+02
1.250000e+02
1.312500e+02
1.375000e+02
1.437500e+02
1.500000e+02
1.562500e+02
1.625000e+02
1.687500e+02
1.750000e+02
1.812500e+02
1.875000e+02
1.937500e+02
2.000000e+02
0.000000e+00
6.250000e+00
1.250000e+01
1.875000e+01
2.500000e+01
3.125000e+01
3.750000e+01
4.375000e+01
5.000000e+01
5.625000e+01
6.250000e+01
6.875000e+01
7.500000e+01
8.125000e+01
8.750000e+01
9.375000e+01
1.000000e+02
1.062500e+02
1.125000e+02
1.187500e+02
1.250000e+02
1.312500e+02
1.375000e+02
1.437500e+02
1.500000e+02
1.562500e+02
1.625000e+02
1.687500e+02
1.750000e+02
1.812500e+02
1.875000e+02
1.937500e+02
2.000000e+02
0.000000e+00
6.250000e+00
1.250000e+01
1.875000e+01
2.500000e+01
3.125000e+01
3.750000e+01
4.375000e+01
5.000000e+01
5.625000e+01
6.250000e+01
6.875000e+01
7.500000e+01
8.125000e+01
8.750000e+01
9.375000e+01
1.000000e+02
1.062500e+02
1.125000e+02
1.187500e+02
1.250000e+02
1.312500e+02
1.375000e+02
1.437500e+02
1.500000e+02
1.562500e+02
1.625000e+02
1.687500e+02
1.750000e+02
1.812500e+02
1.875000e+02
1.937500e+02
2.000000e+02
0.000000e+00
6.250000e+00
1.250000e+01
1.875000e+01
2.500000e+01
3.125000e+01
3.750000e+01
4.375000e+01
5.000000e+01
5.625000e+01
6.250000e+01
6.875000e+01
7.500000e+01
8.125000e+01
8.750000e+01
9.375000e+01
1.000000e+02
1.062500e+02
1.125000e+02
1.187500e+02
1.250000e+02
1.312500e+02
1.375000e+02
1.437500e+02
1.500000e+02
1.562500e+02
1.625000e+02
1.687500e+02
1.750000e+02
1.812500e+02
1.875000e+02
1.937500e+02
2.000000e+02
0.000000e+00
0.000000e+00
0.000000e+00
0.000000e+00
0.000000e+00
0.000000e+00
0.000000e+00
0.000000e+00
0.000000e+00
0.000000e+00
0.000000e+00
0.000000e+00
0.000000e+00
0.000000e+00
0.000000e+00
0.000000e+00
0.000000e+00
0.000000e+00
0.000000e+00
0.000000e+00
0.000000e+00
0.000000e+00
0.000000e+00
0.000000e+00
0.000000e+00
0.000000e+00
0.000000e+00
0.000000e+00
0.000000e+00
0.000000e+00
0.000000e+00
0.000000e+00
0.000000e+00
6.250000e+00
6.250000e+00
6.250000e+00
6.250000e+00
6.250000e+00
6.250000e+00
6.250000e+00
6.250000e+00
6.250000e+00
6.250000e+00
6.250000e+00
6.250000e+00
6.250000e+00
6.250000e+00
6.250000e+00
6.250000e+00
6.250000e+00
6.250000e+00
6.250000e+00
6.250000e+00
6.250000e+00
6.250000e+00
6.250000e+00
6.250000e+00
6.250000e+00
6.250000e+00
6.250000e+00
6.250000e+00
6.250000e+00
6.250000e+00
6.250000e+00
6.250000e+00
6.250000e+00
1.250000e+01
1.250000e+01
1.250000e+01
1.250000e+01
1.250000e+01
1.250000e+01
1.250000e+01
1.250000e+01
1.250000e+01
1.250000e+01
1.250000e+01
1.250000e+01
1.250000e+01
1.250000e+01
1.250000e+01
1.250000e+01
1.250000e+01
1.250000e+01
1.250000e+01
1.250000e+01
1.250000e+01
1.250000e+01
1.250000e+01
1.250000e+01
1.250000e+01
1.250000e+01
1.250000e+01
1.250000e+01
1.250000e+01
1.250000e+01
1.250000e+01
1.250000e+01
1.250000e+01
1.875000e+01
1.875000e+01
1.875000e+01
1.875000e+01
1.875000e+01
1.875000e+01
1.875000e+01
1.875000e+01
1.875000e+01
1.875000e+01
1.875000e+01
1.875000e+01
1.875000e+01
1.875000e+01
1.875000e+01
1.875000e+01
1.875000e+01
1.875000e+01
1.875000e+01
1.875000e+01
1.875000e+01
1.875000e+01
1.875000e+01
1.875000e+01
1.875000e+01
1.875000e+01
1.875000e+01
1.875000e+01
1.875000e+01
1.875000e+01
1.875000e+01
1.875000e+01
1.875000e+01
2.500000e+01
2.500000e+01
2.500000e+01
2.500000e+01
2.500000e+01
2.500000e+01
2.500000e+01
2.500000e+01
2.500000e+01
2.500000e+01
2.500000e+01
2.500000e+01
2.500000e+01
2.500000e+01
2.500000e+01
2.500000e+01
2.500000e+01
2.500000e+01
2.500000e+01
2.500000e+01
2.500000e+01
2.500000e+01
2.500000e+01
2.500000e+01
2.500000e+01
2.500000e+01
2.500000e+01
2.500000e+01
2.500000e+01
2.500000e+01
2.500000e+01
2.500000e+01
2.500000e+01
3.125000e+01
3.125000e+01
3.125000e+01
3.125000e+01
3.125000e+01
3.125000e+01
3.125000e+01
3.125000e+01
3.125000e+01
3.125000e+01
3.125000e+01
3.125000e+01
3.125000e+01
3.125000e+01
3.125000e+01
3.125000e+01
3.125000e+01
3.125000e+01
3.125000e+01
3.125000e+01
3.125000e+01
3.125000e+01
3.125000e+01
3.125000e+01
3.125000e+01
3.125000e+01
3.125000e+01
3.125000e+01
3.125000e+01
3.125000e+01
3.125000e+01
3.125000e+01
3.125000e+01
3.750000e+01
3.750000e+01
3.750000e+01
3.750000e+01
3.750000e+01
3.750000e+01
3.750000e+01
3.750000e+01
3.750000e+01
3.750000e+01
3.750000e+01
3.750000e+01
3.750000e+01
3.750000e+01
3.750000e+01
3.750000e+01
3.750000e+01
3.750000e+01
3.750000e+01
3.750000e+01
3.750000e+01
3.750000e+01
3.750000e+01
3.750000e+01
3.750000e+01
3.750000e+01
3.750000e+01
3.750000e+01
3.750000e+01
3.750000e+01
3.750000e+01
3.750000e+01
3.750000e+01
4.375000e+01
4.375000e+01
4.375000e+01
4.375000e+01
4.375000e+01
4.375000e+01
4.375000e+01
4.375000e+01
4.375000e+01
4.375000e+01
4.375000e+01
4.375000e+01
4.375000e+01
4.375000e+01
4.375000e+01
4.375000e+01
4.375000e+01
4.375000e+01
4.375000e+01
4.375000e+01
4.375000e+01
4.375000e+01
4.375000e+01
4.375000e+01
4.375000e+01
4.375000e+01
4.375000e+01
4.375000e+01
4.375000e+01
4.375000e+01
4.375000e+01
4.375000e+01
4.375000e+01
5.000000e+01
5.000000e+01
5.000000e+01
5.000000e+01
5.000000e+01
5.000000e+01
5.000000e+01
5.000000e+01
5.000000e+01
5.000000e+01
5.000000e+01
5.000000e+01
5.000000e+01
5.000000e+01
5.000000e+01
5.000000e+01
5.000000e+01
5.000000e+01
5.000000e+01
5.000000e+01
5.000000e+01
5.000000e+01
5.000000e+01
5.000000e+01
5.000000e+01
5.000000e+01
5.000000e+01
5.000000e+01
5.000000e+01
5.000000e+01
5.000000e+01
5.000000e+01
5.000000e+01
5.625000e+01
5.625000e+01
5.625000e+01
5.625000e+01
5.625000e+01
5.625000e+01
5.625000e+01
5.625000e+01
5.625000e+01
5.625000e+01
5.625000e+01
5.625000e+01
5.625000e+01
5.625000e+01
5.625000e+01
5.625000e+01
5.625000e+01
5.625000e+01
5.625000e+01
5.625000e+01
5.625000e+01
5.625000e+01
5.625000e+01
5.625000e+01
5.625000e+01
5.625000e+01
5.625000e+01
5.625000e+01
5.625000e+01
5.625000e+01
5.625000e+01
5.625000e+01
5.625000e+01
6.250000e+01
6.250000e+01
6.250000e+01
6.250000e+01
6.250000e+01
6.250000e+01
6.250000e+01
6.250000e+01
6.250000e+01
6.250000e+01
6.250000e+01
6.250000e+01
6.250000e+01
6.250000e+01
6.250000e+01
6.250000e+01
6.250000e+01
6.250000e+01
6.250000e+01
6.250000e+01
6.250000e+01
6.250000e+01
6.250000e+01
6.250000e+01
6.250000e+01
6.250000e+01
6.250000e+01
6.250000e+01
6.250000e+01
6.250000e+01
6.250000e+01
6.250000e+01
6.250000e+01
6.875000e+01
6.875000e+01
6.875000e+01
6.875000e+01
6.875000e+01
6.875000e+01
6.875000e+01
6.875000e+01
6.875000e+01
6.875000e+01
6.875000e+01
6.875000e+01
6.875000e+01
6.875000e+01
6.875000e+01
6.875000e+01
6.875000e+01
6.875000e+01
6.875000e+01
6.875000e+01
6.875000e+01
6.875000e+01
6.875000e+01
6.875000e+01
6.875000e+01
6.875000e+01
6.875000e+01
6.875000e+01
6.875000e+01
6.875000e+01
6.875000e+01
6.875000e+01
6.875000e+01
7.500000e+01
7.500000e+01
7.500000e+01
7.500000e+01
7.500000e+01
7.500000e+01
7.500000e+01
7.500000e+01
7.500000e+01
7.500000e+01
7.500000e+01
7.500000e+01
7.500000e+01
7.500000e+01
7.500000e+01
7.500000e+01
7.500000e+01
7.500000e+01
7.500000e+01
7.500000e+01
7.500000e+01
7.500000e+01
7.500000e+01
7.500000e+01
7.500000e+01
7.500000e+01
7.500000e+01
7.500000e+01
7.500000e+01
7.500000e+01
7.500000e+01
7.500000e+01
7.500000e+01
8.125000e+01
8.125000e+01
8.125000e+01
8.125000e+01
8.125000e+01
8.125000e+01
8.125000e+01
8.125000e+01
8.125000e+01
8.125000e+01
8.125000e+01
8.125000e+01
8.125000e+01
8.125000e+01
8.125000e+01
8.125000e+01
8.125000e+01
8.125000e+01
8.125000e+01
8.125000e+01
8.125000e+01
8.125000e+01
8.125000e+01
8.125000e+01
8.125000e+01
8.125000e+01
8.125000e+01
8.125000e+01
8.125000e+01
8.125000e+01
8.125000e+01
8.125000e+01
8.125000e+01
8.750000e+01
8.750000e+01
8.750000e+01
8.750000e+01
8.750000e+01
8.750000e+01
8.750000e+01
8.750000e+01
8.750000e+01
8.750000e+01
8.750000e+01
8.750000e+01
8.750000e+01
8.750000e+01
8.750000e+01
8.750000e+01
8.750000e+01
8.750000e+01
8.750000e+01
8.750000e+01
8.750000e+01
8.750000e+01
8.750000e+01
8.750000e+01
8.750000e+01
8.750000e+01
8.750000e+01
8.750000e+01
8.750000e+01
8.750000e+01
8.750000e+01
8.750000e+01
8.750000e+01
9.375000e+01
9.375000e+01
9.375000e+01
9.375000e+01
9.375000e+01
9.375000e+01
9.375000e+01
9.375000e+01
9.375000e+01
9.375000e+01
9.375000e+01
9.375000e+01
9.375000e+01
9.375000e+01
9.375000e+01
9.375000e+01
9.375000e+01
9.375000e+01
9.375000e+01
9.375000e+01
9.375000e+01
9.375000e+01
9.375000e+01
9.375000e+01
9.375000e+01
9.375000e+01
9.375000e+01
9.375000e+01
9.375000e+01
9.375000e+01
9.375000e+01
9.375000e+01
9.375000e+01
1.000000e+02
1.000000e+02
1.000000e+02
1.000000e+02
1.000000e+02
1.000000e+02
1.000000e+02
1.000000e+02
1.000000e+02
1.000000e+02
1.000000e+02
1.000000e+02
1.000000e+02
1.000000e+02
1.000000e+02
1.000000e+02
1.000000e+02
1.000000e+02
1.000000e+02
1.000000e+02
1.000000e+02
1.000000e+02
1.000000e+02
1.000000e+02
1.000000e+02
1.000000e+02
1.000000e+02
1.000000e+02
1.000000e+02
1.000000e+02
1.000000e+02
1.000000e+02
1.000000e+02
0.000000e+00
-3.630676e-01
-6.505965e-01
-9.253189e-01
-1.205991e+00
-1.483169e+00
-1.756379e+00
-2.028352e+00
-2.299645e+00
-2.570149e+00
-2.840368e+00
-3.110728e+00
-3.380960e+00
-3.650212e+00
-3.917202e+00
-4.180386e+00
-4.438586e+00
-4.691724e+00
-4.940639e+00
-5.185968e+00
-5.427376e+00
-5.664010e+00
-5.895451e+00
-6.121972e+00
-6.344324e+00
-6.563932e+00
-6.783470e+00
-7.007402e+00
-7.242828e+00
-7.499770e+00
-7.779725e+00
-8.065378e+00
-8.228545e+00
0.000000e+00
-2.300779e-01
-4.735070e-01
-7.115946e-01
-9.559864e-01
-1.198155e+00
-1.436874e+00
-1.674588e+00
-1.911808e+00
-2.148338e+00
-2.384612e+00
-2.621066e+00
-2.857485e+00
-3.093072e+00
-3.326638e+00
-3.556774e+00
-3.782397e+00
-4.003416e+00
-4.220580e+00
-4.434455e+00
-4.644669e+00
-4.850266e+00
-5.050506e+00
-5.244986e+00
-5.433340e+00
-5.615339e+00
-5.791237e+00
-5.961639e+00
-6.126143e+00
-6.277534e+00
-6.390086e+00
-6.446193e+00
-6.519310e+00
0.000000e+00
-1.688387e-01
-3.479567e-01
-5.412446e-01
-7.440783e-01
-9.478381e-01
-1.150981e+00
-1.354404e+00
-1.557953e+00
-1.761302e+00
-1.964660e+00
-2.168205e+00
-2.371574e+00
-2.573942e+00
-2.774248e+00
-2.971387e+00
-3.164562e+00
-3.353642e+00
-3.538988e+00
-3.720738e+00
-3.898322e+00
-4.070702e+00
-4.236809e+00
-4.395501e+00
-4.545349e+00
-4.684734e+00
-4.811891e+00
-4.924187e+00
-5.016206e+00
-5.076437e+00
-5.092177e+00
-5.087209e+00
-5.163653e+00
0.000000e+00
-1.268191e-01
-2.619537e-01
-4.106696e-01
-5.707467e-01
-7.351927e-01
-9.022190e-01
-1.071118e+00
-1.240994e+00
-1.411283e+00
-1.581846e+00
-1.752493e+00
-1.922670e+00
-2.091557e+00
-2.258305e+00
-2.422183e+00
-2.582672e+00
-2.739524e+00
-2.892609e+00
-3.041572e+00
-3.185632e+00
-3.323694e+00
-3.454437e+00
-3.576189e+00
-3.686866e+00
-3.784116e+00
-3.865265e+00
-3.926757e+00
-3.963632e+00
-3.971227e+00
-3.957873e+00
-3.961011e+00
-4.032065e+00
0.000000e+00
-9.821679e-02
-2.008463e-01
-3.126956e-01
-4.331870e-01
-5.599715e-01
-6.910737e-01
-8.250235e-01
-9.606287e-01
-1.097111e+00
-1.233980e+00
-1.370764e+00
-1.506848e+00
-1.641543e+00
-1.774243e+00
-1.904480e+00
-2.031855e+00
-2.155938e+00
-2.276203e+00
-2.391956e+00
-2.502295e+00
-2.606091e+00
-2.701898e+00
-2.787863e+00
-2.861798e+00
-2.921392e+00
-2.964272e+00
-2.988045e+00
-2.991289e+00
-2.977751e+00
-2.966107e+00
-2.988465e+00
-3.056833e+00
0.000000e+00
-7.267564e-02
-1.479105e-01
-2.283189e-01
-3.149398e-01
-4.070136e-01
-5.033784e-01
-6.027286e-01
-7.039406e-01
-8.061608e-01
-9.087480e-01
-1.011153e+00
-1.112835e+00
-1.213276e+00
-1.312039e+00
-1.408753e+00
-1.503004e+00
-1.594230e+00
-1.681719e+00
-1.764643e+00
-1.842063e+00
-1.912860e+00
-1.975638e+00
-2.028709e+00
-2.070256e+00
-2.098592e+00
-2.112422e+00
-2.111415e+00
-2.097901e+00
-2.080479e+00
-2.077741e+00
-2.108253e+00
-2.174721e+00
0.000000e+00
-4.802475e-02
-9.748710e-02
-1.499230e-01
-2.061579e-01
-2.661735e-01
-3.293862e-01
-3.949655e-01
-4.620701e-01
-5.299839e-01
-5.981377e-01
-6.660713e-01
-7.333839e-01
-7.997111e-01
-8.647180e-01
-9.280580e-01
-9.892925e-01
-1.047836e+00
-1.102970e+00
-1.153892e+00
-1.199711e+00
-1.239411e+00
-1.271810e+00
-1.295636e+00
-1.309722e+00
-1.313293e+00
-1.306354e+00
-1.290468e+00
-1.270250e+00
-1.255282e+00
-1.259413e+00
-1.293070e+00
-1.354531e+00
0.000000e+00
-2.394556e-02
-4.856763e-02
-7.455465e-02
-1.023383e-01
-1.319947e-01
-1.633034e-01
-1.958608e-01
-2.292137e-01
-2.629459e-01
-2.967121e-01
-3.302302e-01
-3.632536e-01
-3.955437e-01
-4.268463e-01
-4.568595e-01
-4.851943e-01
-5.113531e-01
-5.347388e-01
-5.546747e-01
-5.704093e-01
-5.811198e-01
-5.859610e-01
-5.841924e-01
-5.753818e-01
-5.596735e-01
-5.381860e-01
-5.136791e-01
-4.914452e-01
-4.796866e-01
-4.876545e-01
-5.203570e-01
-5.737690e-01
0.000000e+00
-2.127668e-04
-4.209436e-04
-6.134089e-04
-7.762836e-04
-8.918721e-04
-9.390714e-04
-8.932409e-04
-7.243030e-04
-3.925600e-04
1.562740e-04
9.949669e-04
2.218339e-03
3.949181e-03
6.346902e-03
9.616181e-03
1.401436e-02
1.986052e-02
2.754787e-02
3.755119e-02
5.041123e-02
6.667673e-02
8.679672e-02
1.109714e-01
1.389744e-01
1.699305e-01
2.019935e-01
2.319277e-01
2.548406e-01
2.646184e-01
2.558248e-01
2.270318e-01
1.833510e-01
0.000000e+00
2.354226e-02
4.776860e-02
7.338524e-02
1.008487e-01
1.302694e-01
1.614700e-01
1.940982e-01
2.277628e-01
2.621267e-01
2.969500e-01
3.320896e-01
3.674813e-01
4.031251e-01
4.390726e-01
4.754025e-01
5.121961e-01
5.495444e-01
5.875900e-01
6.265553e-01
6.667058e-01
7.082511e-01
7.512178e-01
7.953253e-01
8.398574e-01
8.834903e-01
9.240672e-01
9.584323e-01
9.825875e-01
9.924559e-01
9.854221e-01
9.623424e-01
9.288329e-01
0.000000e+00
4.767385e-02
9.679088e-02
1.488963e-01
2.048322e-01
2.646102e-01
3.276884e-01
3.932885e-01
4.606323e-01
5.290807e-01
5.981568e-01
6.675165e-01
7.369188e-01
8.062187e-01
8.753510e-01
9.442704e-01
1.012889e+00
1.081081e+00
1.148747e+00
1.215839e+00
1.282291e+00
1.347909e+00
1.412283e+00
1.474730e+00
1.534221e+00
1.589254e+00
1.637710e+00
1.676868e+00
1.703760e+00
1.715954e+00
1.712701e+00
1.696210e+00
1.672416e+00
0.000000e+00
7.237819e-02
1.473220e-01
2.274510e-01
3.138092e-01
4.056571e-01
5.018654e-01
6.011740e-01
7.025195e-01
8.051178e-01
9.083948e-01
1.011874e+00
1.115133e+00
1.217838e+00
1.319766e+00
1.420734e+00
1.520513e+00
1.618841e+00
1.715457e+00
1.810068e+00
1.902237e+00
1.991308e+00
2.076414e+00
2.156515e+00
2.230386e+00
2.296521e+00
2.353069e+00
2.397923e+00
2.429100e+00
2.445374e+00
2.447130e+00
2.437318e+00
2.422151e+00
0.000000e+00
9.796227e-02
2.003454e-01
3.119635e-01
4.322315e-01
5.588062e-01
6.897288e-01
8.235600e-01
9.591611e-01
1.095815e+00
1.233070e+00
1.370471e+00
1.507462e+00
1.643476e+00
1.778029e+00
1.910710e+00
2.041157e+00
2.169079e+00
2.294193e+00
2.416025e+00
2.533741e+00
2.646171e+00
2.751961e+00
2.849703e+00
2.937983e+00
3.015359e+00
3.080359e+00
3.131583e+00
3.167960e+00
3.189176e+00
3.196302e+00
3.192634e+00
3.184597e+00
0.000000e+00
1.266280e-01
2.615746e-01
4.101164e-01
5.700181e-01
7.342767e-01
9.011014e-01
1.069796e+00
1.239508e+00
1.409722e+00
1.580322e+00
1.751102e+00
1.921504e+00
2.090719e+00
2.257875e+00
2.422168e+00
2.583046e+00
2.740282e+00
2.893708e+00
3.042727e+00
3.186082e+00
3.322050e+00
3.448745e+00
3.564321e+00
3.667094e+00
3.755662e+00
3.828989e+00
3.886442e+00
3.927870e+00
3.953791e+00
3.965794e+00
3.967260e+00
3.964564e+00
0.000000e+00
1.687724e-01
3.478184e-01
5.410320e-01
7.437789e-01
9.474209e-01
1.150395e+00
1.353592e+00
1.556878e+00
1.759961e+00
1.963062e+00
2.166346e+00
2.369410e+00
2.571308e+00
2.770757e+00
2.966461e+00
3.157590e+00
3.343980e+00
3.525611e+00
3.701780e+00
3.870791e+00
4.030334e+00
4.177950e+00
4.311251e+00
4.428160e+00
4.527229e+00
4.607824e+00
4.670096e+00
4.714885e+00
4.743697e+00
4.758827e+00
4.763756e+00
4.764321e+00
0.000000e+00
2.301743e-01
4.736852e-01
7.118352e-01
9.562784e-01
1.198464e+00
1.437138e+00
1.674727e+00
1.911746e+00
2.148015e+00
2.383975e+00
2.620063e+00
2.856011e+00
3.090795e+00
3.322835e+00
3.550430e+00
3.772489e+00
3.988836e+00
4.199488e+00
4.403537e+00
4.598786e+00
4.782301e+00
4.950981e+00
5.101803e+00
5.232163e+00
5.340412e+00
5.426154e+00
5.490196e+00
5.534400e+00
5.561614e+00
5.575577e+00
5.580656e+00
5.581895e+00
0.000000e+00
3.633045e-01
6.510638e-01
9.260116e-01
1.206910e+00
1.484295e+00
1.757671e+00
2.029759e+00
2.301118e+00
2.571650e+00
2.841877e+00
3.112239e+00
3.382402e+00
3.651231e+00
3.916991e+00
4.177832e+00
4.432571e+00
4.680950e+00
4.922754e+00
5.156617e+00
5.379729e+00
5.588486e+00
5.779065e+00
5.947669e+00
6.090993e+00
6.206907e+00
6.294849e+00
6.355834e+00
6.392468e+00
6.409163e+00
6.412332e+00
6.409922e+00
6.408535e+00
0.000000e+00
-2.221825e-01
-4.099437e-01
-6.332226e-01
-8.883047e-01
-1.174849e+00
-1.494950e+00
-1.849404e+00
-2.238044e+00
-2.661019e+00
-3.118626e+00
-3.610904e+00
-4.137650e+00
-4.698545e+00
-5.293172e+00
-5.921040e+00
-6.581719e+00
-7.274895e+00
-8.000182e+00
-8.756915e+00
-9.544230e+00
-1.036134e+01
-1.120772e+01
-1.208316e+01
-1.298817e+01
-1.392462e+01
-1.489637e+01
-1.591000e+01
-1.697602e+01
-1.811247e+01
-1.936414e+01
-2.084934e+01
-2.285300e+01
0.000000e+00
-1.380748e-01
-3.355898e-01
-5.561873e-01
-8.105164e-01
-1.097888e+00
-1.418581e+00
-1.773191e+00
-2.161985e+00
-2.585088e+00
-3.042693e+00
-3.534952e+00
-4.061848e+00
-4.623207e+00
-5.218716e+00
-5.847877e+00
-6.510040e+00
-7.204585e+00
-7.931021e+00
-8.688875e+00
-9.477525e+00
-1.029622e+01
-1.114431e+01
-1.202147e+01
-1.292811e+01
-1.386590e+01
-1.483846e+01
-1.585222e+01
-1.691808e+01
-1.805668e+01
-1.931171e+01
-2.077127e+01
-2.262197e+01
0.000000e+00
-1.032627e-01
-2.785001e-01
-4.948182e-01
-7.463890e-01
-1.032922e+00
-1.353337e+00
-1.707731e+00
-2.096412e+00
-2.519470e+00
-2.977039e+00
-3.469335e+00
-3.996465e+00
-4.558353e+00
-5.154741e+00
-5.785101e+00
-6.448635e+00
-7.144540e+00
-7.872273e+00
-8.631489e+00
-9.421737e+00
-1.024236e+01
-1.109270e+01
-1.197245e+01
-1.288199e+01
-1.382295e+01
-1.479900e+01
-1.581707e+01
-1.688978e+01
-1.803922e+01
-1.929245e+01
-2.066300e+01
-2.213263e+01
0.000000e+00
-9.035045e-02
-2.471726e-01
-4.521764e-01
-6.983291e-01
-9.815945e-01
-1.300164e+00
-1.653508e+00
-2.041584e+00
-2.464320e+00
-2.921796e+00
-3.414236e+00
-3.941776e+00
-4.504346e+00
-5.101662e+00
-5.733163e+00
-6.398024e+00
-7.095415e+00
-7.824792e+00
-8.585845e+00
-9.378208e+00
-1.020134e+01
-1.105470e+01
-1.193801e+01
-1.285162e+01
-1.379710e+01
-1.477816e+01
-1.580186e+01
-1.688044e+01
-1.803078e+01
-1.925296e+01
-2.050792e+01
-2.167212e+01
0.000000e+00
-8.854202e-02
-2.335790e-01
-4.279296e-01
-6.662324e-01
-9.442952e-01
-1.259548e+00
-1.610909e+00
-1.997822e+00
-2.419964e+00
-2.877302e+00
-3.369982e+00
-3.898075e+00
-4.461435e+00
-5.059708e+00
-5.692332e+00
-6.358560e+00
-7.057644e+00
-7.789040e+00
-8.552401e+00
-9.347382e+00
-1.017355e+01
-1.103048e+01
-1.191789e+01
-1.283594e+01
-1.378593e+01
-1.477105e+01
-1.579721e+01
-1.687300e+01
-1.800503e+01
-1.917413e+01
-2.031742e+01
-2.134150e+01
0.000000e+00
-8.896590e-02
-2.282527e-01
-4.151027e-01
-6.464512e-01
-9.190240e-01
-1.230526e+00
-1.579488e+00
-1.964969e+00
-2.386407e+00
-2.843602e+00
-3.336561e+00
-3.865239e+00
-4.429399e+00
-5.028635e+00
-5.662416e+00
-6.330113e+00
-7.031071e+00
-7.764742e+00
-8.530711e+00
-9.328619e+00
-1.015809e+01
-1.101872e+01
-1.191006e+01
-1.283192e+01
-1.378493e+01
-1.477112e+01
-1.579387e+01
-1.685628e+01
-1.795483e+01
-1.906062e+01
-2.011671e+01
-2.105297e+01
0.000000e+00
-8.961603e-02
-2.261687e-01
-4.085243e-01
-6.349196e-01
-9.031970e-01
-1.211483e+00
-1.558286e+00
-1.942472e+00
-2.363298e+00
-2.820403e+00
-3.313647e+00
-3.842878e+00
-4.407797e+00
-5.007989e+00
-5.642972e+00
-6.312207e+00
-7.015105e+00
-7.751103e+00
-8.519728e+00
-9.320585e+00
-1.015327e+01
-1.101723e+01
-1.191170e+01
-1.283593e+01
-1.378959e+01
-1.477300e+01
-1.578642e+01
-1.682760e+01
-1.788595e+01
-1.893171e+01
-1.991843e+01
-2.079281e+01
0.000000e+00
-9.013825e-02
-2.254299e-01
-4.054289e-01
-6.290100e-01
-8.946716e-01
-1.200900e+00
-1.546287e+00
-1.929643e+00
-2.350128e+00
-2.807271e+00
-3.300829e+00
-3.830583e+00
-4.396217e+00
-4.997334e+00
-5.633500e+00
-6.304225e+00
-7.008948e+00
-7.747095e+00
-8.518157e+00
-9.321680e+00
-1.015712e+01
-1.102366e+01
-1.192005e+01
-1.284485e+01
-1.379659e+01
-1.477375e+01
-1.577361e+01
-1.678989e+01
-1.780873e+01
-1.880321e+01
-1.973648e+01
-2.056842e+01
0.000000e+00
-9.033867e-02
-2.252781e-01
-4.045749e-01
-6.272927e-01
-8.921425e-01
-1.197743e+00
-1.542735e+00
-1.925929e+00
-2.346460e+00
-2.803828e+00
-3.297764e+00
-3.828034e+00
-4.394333e+00
-4.996298e+00
-5.633524e+00
-6.305538e+00
-7.011782e+00
-7.751685e+00
-8.524728e+00
-9.330378e+00
-1.016788e+01
-1.103601e+01
-1.193299e+01
-1.285658e+01
-1.380422e+01
-1.477268e+01
-1.575691e+01
-1.674825e+01
-1.773208e+01
-1.868553e+01
-1.957984e+01
-2.038468e+01
0.000000e+00
-9.014795e-02
-2.254951e-01
-4.055913e-01
-6.293119e-01
-8.951604e-01
-1.201632e+00
-1.547330e+00
-1.931083e+00
-2.352078e+00
-2.809873e+00
-3.304250e+00
-3.835015e+00
-4.401903e+00
-5.004579e+00
-5.642644e+00
-6.315611e+00
-7.022920e+00
-7.764027e+00
-8.538428e+00
-9.345498e+00
-1.018421e+01
-1.105291e+01
-1.194922e+01
-1.287017e+01
-1.381218e+01
-1.477064e+01
-1.573897e+01
-1.670749e+01
-1.766234e+01
-1.858473e+01
-1.945247e+01
-2.024242e+01
0.000000e+00
-8.963902e-02
-2.262933e-01
-4.088316e-01
-6.354928e-01
-9.041301e-01
-1.212887e+00
-1.560291e+00
-1.945243e+00
-2.367052e+00
-2.825412e+00
-3.320231e+00
-3.851411e+00
-4.418749e+00
-5.021936e+00
-5.660552e+00
-6.334059e+00
-7.041891e+00
-7.783564e+00
-8.558616e+00
-9.366325e+00
-1.020538e+01
-1.107367e+01
-1.196829e+01
-1.288559e+01
-1.382112e+01
-1.476927e+01
-1.572261e+01
-1.667144e+01
-1.760341e+01
-1.850345e+01
-1.935464e+01
-2.013943e+01
0.000000e+00
-8.899643e-02
-2.284166e-01
-4.155176e-01
-6.472380e-01
-9.203192e-01
-1.232488e+00
-1.582303e+00
-1.968867e+00
-2.391688e+00
-2.850643e+00
-3.345810e+00
-3.877230e+00
-4.444797e+00
-5.048233e+00
-5.687064e+00
-6.360669e+00
-7.068474e+00
-7.810080e+00
-8.585079e+00
-9.392643e+00
-1.023118e+01
-1.109821e+01
-1.199037e+01
-1.290342e+01
-1.383221e+01
-1.477044e+01
-1.571039e+01
-1.664288e+01
-1.755730e+01
-1.844186e+01
-1.928408e+01
-2.007127e+01
0.000000e+00
-8.855745e-02
-2.337468e-01
-4.283988e-01
-6.671551e-01
-9.458412e-01
-1.261914e+00
-1.614324e+00
-2.002565e+00
-2.426394e+00
-2.885864e+00
-3.381214e+00
-3.912640e+00
-4.480153e+00
-5.083515e+00
-5.722187e+00
-6.395456e+00
-7.102739e+00
-7.843720e+00
-8.618029e+00
-9.424718e+00
-1.026195e+01
-1.112696e+01
-1.201604e+01
-1.292450e+01
-1.384665e+01
-1.477577e+01
-1.570419e+01
-1.662343e+01
-1.752455e+01
-1.839856e+01
-1.923700e+01
-2.003203e+01
0.000000e+00
-9.032802e-02
-2.473150e-01
-4.526522e-01
-6.993092e-01
-9.832704e-01
-1.302757e+00
-1.657278e+00
-2.046847e+00
-2.471466e+00
-2.931303e+00
-3.426692e+00
-3.957929e+00
-4.525114e+00
-5.128045e+00
-5.766150e+00
-6.438665e+00
-7.145020e+00
-7.884939e+00
-8.658020e+00
-9.463169e+00
-1.029835e+01
-1.116061e+01
-1.204602e+01
-1.294959e+01
-1.386529e+01
-1.478623e+01
-1.570493e+01
-1.661358e+01
-1.750457e+01
-1.837123e+01
-1.920881e+01
-2.001479e+01
0.000000e+00
-1.032143e-01
-2.786249e-01
-4.952869e-01
-7.473789e-01
-1.034635e+00
-1.356005e+00
-1.711632e+00
-2.101882e+00
-2.526918e+00
-2.986954e+00
-3.482325e+00
-4.013306e+00
-4.579983e+00
-5.182155e+00
-5.819277e+00
-6.490647e+00
-7.195748e+00
-7.934271e+00
-8.705676e+00
-9.508673e+00
-1.034107e+01
-1.119980e+01
-1.208084e+01
-1.297906e+01
-1.388835e+01
-1.480188e+01
-1.571240e+01
-1.661261e+01
-1.749581e+01
-1.835703e+01
-1.919460e+01
-2.001166e+01
0.000000e+00
-1.380431e-01
-3.357287e-01
-5.566654e-01
-8.115147e-01
-1.099607e+00
-1.421255e+00
-1.777101e+00
-2.167479e+00
-2.592581e+00
-3.052680e+00
-3.548045e+00
-4.078805e+00
-4.644906e+00
-5.246084e+00
-5.881867e+00
-6.551738e+00
-7.255298e+00
-7.992144e+00
-8.761463e+00
-9.561712e+00
-1.039055e+01
-1.124487e+01
-1.212061e+01
-1.301273e+01
-1.391529e+01
-1.482170e+01
-1.572501e+01
-1.661831e+01
-1.749545e+01
-1.835240e+01
-1.918945e+01
-2.001412e+01
0.000000e+00
-2.222138e-01
-4.101305e-01
-6.337463e-01
-8.893449e-01
-1.176601e+00
-1.497642e+00
-1.853318e+00
-2.243530e+00
-2.668497e+00
-3.128597e+00
-3.623978e+00
-4.154541e+00
-4.720028e+00
-5.320060e+00
-5.954250e+00
-6.622342e+00
-7.324107e+00
-8.058988e+00
-8.825789e+00
-9.622640e+00
-1.044707e+01
-1.129591e+01