TITLE = "Solution"
VARIABLES = x, y, u, v, psiu, psiv, t, stress
ZONE T="structure" N=153 E=128 F=FEBLOCK ET=QUADRILATERAL VARLOCATION=([7,8]=cellcentered)
0.000000e+00
1.250000e+01
2.500000e+01
3.750000e+01
5.000000e+01
6.250000e+01
7.500000e+01
8.750000e+01
1.000000e+02
1.125000e+02
1.250000e+02
1.375000e+02
1.500000e+02
1.625000e+02
1.750000e+02
1.875000e+02
2.000000e+02
0.000000e+00
1.250000e+01
2.500000e+01
3.750000e+01
5.000000e+01
6.250000e+01
7.500000e+01
8.750000e+01
1.000000e+02
1.125000e+02
1.250000e+02
1.375000e+02
1.500000e+02
1.625000e+02
1.750000e+02
1.875000e+02
2.000000e+02
0.000000e+00
1.250000e+01
2.500000e+01
3.750000e+01
5.000000e+01
6.250000e+01
7.500000e+01
8.750000e+01
1.000000e+02
1.125000e+02
1.250000e+02
1.375000e+02
1.500000e+02
1.625000e+02
1.750000e+02
1.875000e+02
2.000000e+02
0.000000e+00
1.250000e+01
2.500000e+01
3.750000e+01
5.000000e+01
6.250000e+01
7.500000e+01
8.750000e+01
1.000000e+02
1.125000e+02
1.250000e+02
1.375000e+02
1.500000e+02
1.625000e+02
1.750000e+02
1.875000e+02
2.000000e+02
0.000000e+00
1.250000e+01
2.500000e+01
3.750000e+01
5.000000e+01
6.250000e+01
7.500000e+01
8.750000e+01
1.000000e+02
1.125000e+02
1.250000e+02
1.375000e+02
1.500000e+02
1.625000e+02
1.750000e+02
1.875000e+02
2.000000e+02
0.000000e+00
1.250000e+01
2.500000e+01
3.750000e+01
5.000000e+01
6.250000e+01
7.500000e+01
8.750000e+01
1.000000e+02
1.125000e+02
1.250000e+02
1.375000e+02
1.500000e+02
1.625000e+02
1.750000e+02
1.875000e+02
2.000000e+02
0.000000e+00
1.250000e+01
2.500000e+01
3.750000e+01
5.000000e+01
6.250000e+01
7.500000e+01
8.750000e+01
1.000000e+02
1.125000e+02
1.250000e+02
1.375000e+02
1.500000e+02
1.625000e+02
1.750000e+02
1.875000e+02
2.000000e+02
0.000000e+00
1.250000e+01
2.500000e+01
3.750000e+01
5.000000e+01
6.250000e+01
7.500000e+01
8.750000e+01
1.000000e+02
1.125000e+02
1.250000e+02
1.375000e+02
1.500000e+02
1.625000e+02
1.750000e+02
1.875000e+02
2.000000e+02
0.000000e+00
1.250000e+01
2.500000e+01
3.750000e+01
5.000000e+01
6.250000e+01
7.500000e+01
8.750000e+01
1.000000e+02
1.125000e+02
1.250000e+02
1.375000e+02
1.500000e+02
1.625000e+02
1.750000e+02
1.875000e+02
2.000000e+02
0.000000e+00
0.000000e+00
0.000000e+00
0.000000e+00
0.000000e+00
0.000000e+00
0.000000e+00
0.000000e+00
0.000000e+00
0.000000e+00
0.000000e+00
0.000000e+00
0.000000e+00
0.000000e+00
0.000000e+00
0.000000e+00
0.000000e+00
1.250000e+01
1.250000e+01
1.250000e+01
1.250000e+01
1.250000e+01
1.250000e+01
1.250000e+01
1.250000e+01
1.250000e+01
1.250000e+01
1.250000e+01
1.250000e+01
1.250000e+01
1.250000e+01
1.250000e+01
1.250000e+01
1.250000e+01
2.500000e+01
2.500000e+01
2.500000e+01
2.500000e+01
2.500000e+01
2.500000e+01
2.500000e+01
2.500000e+01
2.500000e+01
2.500000e+01
2.500000e+01
2.500000e+01
2.500000e+01
2.500000e+01
2.500000e+01
2.500000e+01
2.500000e+01
3.750000e+01
3.750000e+01
3.750000e+01
3.750000e+01
3.750000e+01
3.750000e+01
3.750000e+01
3.750000e+01
3.750000e+01
3.750000e+01
3.750000e+01
3.750000e+01
3.750000e+01
3.750000e+01
3.750000e+01
3.750000e+01
3.750000e+01
5.000000e+01
5.000000e+01
5.000000e+01
5.000000e+01
5.000000e+01
5.000000e+01
5.000000e+01
5.000000e+01
5.000000e+01
5.000000e+01
5.000000e+01
5.000000e+01
5.000000e+01
5.000000e+01
5.000000e+01
5.000000e+01
5.000000e+01
6.250000e+01
6.250000e+01
6.250000e+01
6.250000e+01
6.250000e+01
6.250000e+01
6.250000e+01
6.250000e+01
6.250000e+01
6.250000e+01
6.250000e+01
6.250000e+01
6.250000e+01
6.250000e+01
6.250000e+01
6.250000e+01
6.250000e+01
7.500000e+01
7.500000e+01
7.500000e+01
7.500000e+01
7.500000e+01
7.500000e+01
7.500000e+01
7.500000e+01
7.500000e+01
7.500000e+01
7.500000e+01
7.500000e+01
7.500000e+01
7.500000e+01
7.500000e+01
7.500000e+01
7.500000e+01
8.750000e+01
8.750000e+01
8.750000e+01
8.750000e+01
8.750000e+01
8.750000e+01
8.750000e+01
8.750000e+01
8.750000e+01
8.750000e+01
8.750000e+01
8.750000e+01
8.750000e+01
8.750000e+01
8.750000e+01
8.750000e+01
8.750000e+01
1.000000e+02
1.000000e+02
1.000000e+02
1.000000e+02
1.000000e+02
1.000000e+02
1.000000e+02
1.000000e+02
1.000000e+02
1.000000e+02
1.000000e+02
1.000000e+02
1.000000e+02
1.000000e+02
1.000000e+02
1.000000e+02
1.000000e+02
0.000000e+00
-7.091721e-02
-1.305811e-01
-1.854795e-01
-2.366054e-01
-2.838507e-01
-3.271143e-01
-3.663623e-01
-4.016521e-01
-4.331461e-01
-4.611565e-01
-4.862308e-01
-5.093108e-01
-5.320235e-01
-5.571748e-01
-5.880638e-01
-6.112426e-01
0.000000e+00
-4.235049e-02
-8.797489e-02
-1.301061e-01
-1.689220e-01
-2.045700e-01
-2.371241e-01
-2.666279e-01
-2.931347e-01
-3.167259e-01
-3.375215e-01
-3.556712e-01
-3.712910e-01
-3.842199e-01
-3.933394e-01
-3.953382e-01
-4.025045e-01
0.000000e+00
-2.648478e-02
-5.445933e-02
-8.236809e-02
-1.084201e-01
-1.323394e-01
-1.541068e-01
-1.737467e-01
-1.912642e-01
-2.066298e-01
-2.197610e-01
-2.304743e-01
-2.383877e-01
-2.428052e-01
-2.429278e-01
-2.411631e-01
-2.484722e-01
0.000000e+00
-1.278319e-02
-2.631591e-02
-3.993410e-02
-5.295555e-02
-6.494913e-02
-7.582013e-02
-8.553689e-02
-9.404380e-02
-1.012302e-01
-1.069123e-01
-1.108220e-01
-1.126392e-01
-1.122147e-01
-1.104704e-01
-1.109474e-01
-1.163898e-01
0.000000e+00
-1.177588e-05
-2.677026e-05
-4.171541e-05
-4.964716e-05
-3.503566e-05
3.294383e-05
2.096025e-04
5.856860e-04
1.296365e-03
2.517988e-03
4.427713e-03
7.073409e-03
1.006318e-02
1.212842e-02
1.156199e-02
7.958668e-03
0.000000e+00
1.276507e-02
2.627384e-02
3.986681e-02
5.287186e-02
6.488106e-02
7.584654e-02
8.582193e-02
9.489372e-02
1.031671e-01
1.107503e-01
1.176993e-01
1.238935e-01
1.288605e-01
1.317824e-01
1.320141e-01
1.301852e-01
0.000000e+00
2.648181e-02
5.445027e-02
8.235006e-02
1.083919e-01
1.323044e-01
1.540777e-01
1.737562e-01
1.913806e-01
2.069822e-01
2.205746e-01
2.321246e-01
2.414994e-01
2.484306e-01
2.525908e-01
2.539416e-01
2.535151e-01
0.000000e+00
4.236786e-02
8.801267e-02
1.301664e-01
1.690027e-01
2.046565e-01
2.371726e-01
2.665392e-01
2.927115e-01
3.156140e-01
3.351379e-01
3.511483e-01
3.635171e-01
3.722034e-01
3.773849e-01
3.795946e-01
3.800004e-01
0.000000e+00
7.094626e-02
1.306577e-01
1.856231e-01
2.368347e-01
2.841733e-01
3.274990e-01
3.666859e-01
4.016029e-01
4.320684e-01
4.578185e-01
4.785097e-01
4.938022e-01
5.035757e-01
5.083024e-01
5.094690e-01
5.094465e-01
0.000000e+00
-4.292814e-02
-8.427295e-02
-1.378462e-01
-2.035963e-01
-2.814002e-01
-3.704058e-01
-4.696171e-01
-5.779791e-01
-6.944509e-01
-8.180708e-01
-9.480735e-01
-1.084146e+00
-1.227014e+00
-1.380384e+00
-1.555867e+00
-1.808006e+00
0.000000e+00
-2.642735e-02
-6.955678e-02
-1.237943e-01
-1.906190e-01
-2.694847e-01
-3.595686e-01
-4.598503e-01
-5.692625e-01
-6.867456e-01
-8.113114e-01
-9.421593e-01
-1.078927e+00
-1.222323e+00
-1.375634e+00
-1.550053e+00
-1.763734e+00
0.000000e+00
-1.994179e-02
-5.935479e-02
-1.137925e-01
-1.812490e-01
-2.609264e-01
-3.518384e-01
-4.529545e-01
-5.632148e-01
-6.815747e-01
-8.070651e-01
-9.389131e-01
-1.076791e+00
-1.221289e+00
-1.374732e+00
-1.540000e+00
-1.699944e+00
0.000000e+00
-1.718442e-02
-5.428242e-02
-1.079218e-01
-1.756221e-01
-2.557899e-01
-3.472687e-01
-4.489887e-01
-5.599102e-01
-6.790167e-01
-8.053601e-01
-9.381524e-01
-1.076910e+00
-1.221569e+00
-1.371941e+00
-1.523799e+00
-1.663695e+00
0.000000e+00
-1.639008e-02
-5.274728e-02
-1.060489e-01
-1.737677e-01
-2.541351e-01
-3.458768e-01
-4.479244e-01
-5.592575e-01
-6.788765e-01
-8.058121e-01
-9.391517e-01
-1.078033e+00
-1.221433e+00
-1.367203e+00
-1.510360e+00
-1.642243e+00
0.000000e+00
-1.717422e-02
-5.427516e-02
-1.079347e-01
-1.756855e-01
-2.559571e-01
-3.476263e-01
-4.496660e-01
-5.610778e-01
-6.808571e-01
-8.079717e-01
-9.413175e-01
-1.079605e+00
-1.221073e+00
-1.363005e+00
-1.501253e+00
-1.630321e+00
0.000000e+00
-1.992515e-02
-5.934276e-02
-1.138141e-01
-1.813559e-01
-2.612092e-01
-3.524446e-01
-4.541044e-01
-5.652001e-01
-6.847097e-01
-8.115317e-01
-9.443921e-01
-1.081690e+00
-1.221305e+00
-1.360486e+00
-1.496080e+00
-1.625063e+00
0.000000e+00
-2.641176e-02
-6.954630e-02
-1.238230e-01
-1.907474e-01
-2.698172e-01
-3.602743e-01
-4.611794e-01
-5.715431e-01
-6.903247e-01
-8.163774e-01
-9.483365e-01
-1.084465e+00
-1.222525e+00
-1.359855e+00
-1.493942e+00
-1.623828e+00
0.000000e+00
-4.292170e-02
-8.427385e-02
-1.378905e-01
-2.037451e-01
-2.817556e-01
-3.711279e-01
-4.709347e-01
-5.801757e-01
-6.977922e-01
-8.226099e-01
-9.532335e-01
-1.087914e+00
-1.224464e+00
-1.360391e+00
-1.493550e+00
-1.623848e+00


0.000000e+00
9.826812e-08
1.968988e-07
2.884989e-07
3.744037e-07
4.541282e-07
5.273378e-07
5.940123e-07
6.542856e-07
7.084108e-07
7.567464e-07
7.996920e-07
8.374810e-07
8.698165e-07
8.962827e-07
9.188991e-07
9.390231e-07
0.000000e+00
5.526450e-08
1.344798e-07
2.057104e-07
2.710227e-07
3.312286e-07
3.862736e-07
4.361582e-07
4.809222e-07
5.205979e-07
5.551732e-07
5.845463e-07
6.085681e-07
6.277330e-07
6.452381e-07
6.660152e-07
6.874002e-07
0.000000e+00
3.482078e-08
8.498496e-08
1.320530e-07
1.759326e-07
2.162915e-07
2.529711e-07
2.859271e-07
3.151096e-07
3.404202e-07
3.617142e-07
3.788883e-07
3.922117e-07
4.030518e-07
4.144857e-07
4.299347e-07
4.477849e-07
0.000000e+00
1.700990e-08
4.074076e-08
6.379212e-08
8.573378e-08
1.058918e-07
1.240483e-07
1.401203e-07
1.540134e-07
1.656068e-07
1.747999e-07
1.816470e-07
1.866110e-07
1.908615e-07
1.963380e-07
2.053425e-07
2.177350e-07
0.000000e+00
1.780367e-11
2.204478e-11
-9.404676e-12
-1.067838e-10
-3.183374e-10
-7.148033e-10
-1.390320e-09
-2.454116e-09
-4.003355e-09
-6.063583e-09
-8.489209e-09
-1.084698e-08
-1.234266e-08
-1.175304e-08
-7.514735e-09
6.261078e-10
0.000000e+00
-1.697663e-08
-4.069610e-08
-6.379386e-08
-8.588933e-08
-1.063894e-07
-1.251967e-07
-1.423916e-07
-1.580734e-07
-1.723040e-07
-1.850550e-07
-1.961526e-07
-2.052418e-07
-2.117924e-07
-2.151493e-07
-2.145092e-07
-2.100500e-07
0.000000e+00
-3.479982e-08
-8.495400e-08
-1.320346e-07
-1.759692e-07
-2.164640e-07
-2.534197e-07
-2.868777e-07
-3.168962e-07
-3.434935e-07
-3.666047e-07
-3.860471e-07
-4.015121e-07
-4.126378e-07
-4.192399e-07
-4.214385e-07
-4.201218e-07
0.000000e+00
-5.528552e-08
-1.345217e-07
-2.057483e-07
-2.710158e-07
-3.311072e-07
-3.859229e-07
-4.354009e-07
-4.795020e-07
-5.181703e-07
-5.513174e-07
-5.788124e-07
-6.004845e-07
-6.161896e-07
-6.260662e-07
-6.309221e-07
-6.320953e-07
0.000000e+00
-9.838426e-08
-1.971046e-07
-2.887534e-07
-3.746213e-07
-4.541301e-07
-5.267857e-07
-5.923211e-07
-6.505219e-07
-7.011920e-07
-7.441773e-07
-7.794090e-07
-8.069473e-07
-8.270186e-07
-8.400922e-07
-8.468504e-07
-8.490213e-07
0.000000e+00
8.896045e-08
1.735547e-07
2.684820e-07
3.816999e-07
5.143766e-07
6.656429e-07
8.341016e-07
1.018142e-06
1.216202e-06
1.426940e-06
1.649531e-06
1.884426e-06
2.135001e-06
2.407443e-06
2.696839e-06
2.983961e-06
0.000000e+00
5.381692e-08
1.360352e-07
2.317037e-07
3.471221e-07
4.824623e-07
6.365893e-07
8.079234e-07
9.948128e-07
1.195672e-06
1.409137e-06
1.634319e-06
1.871239e-06
2.121383e-06
2.387194e-06
2.669251e-06
2.952593e-06
0.000000e+00
3.428481e-08
1.059568e-07
2.015174e-07
3.185959e-07
4.562450e-07
6.128616e-07
7.867424e-07
9.762072e-07
1.179663e-06
1.395699e-06
1.623206e-06
1.861423e-06
2.109650e-06
2.367476e-06
2.639233e-06
2.913443e-06
0.000000e+00
2.515837e-08
9.013192e-08
1.839143e-07
3.017581e-07
4.408382e-07
5.990760e-07
7.746597e-07
9.658861e-07
1.171134e-06
1.388874e-06
1.617654e-06
1.855939e-06
2.101810e-06
2.353728e-06
2.615004e-06
2.875555e-06
0.000000e+00
2.253539e-08
8.533340e-08
1.782515e-07
2.963019e-07
4.359553e-07
5.948927e-07
7.712540e-07
9.633142e-07
1.169391e-06
1.387798e-06
1.616758e-06
1.854224e-06
2.097655e-06
2.344551e-06
2.596450e-06
2.843566e-06
0.000000e+00
2.517869e-08
9.020815e-08
1.841028e-07
3.021329e-07
4.414997e-07
6.001495e-07
7.762776e-07
9.681407e-07
1.173980e-06
1.391958e-06
1.620059e-06
1.855940e-06
2.096708e-06
2.339240e-06
2.583309e-06
2.820625e-06
0.000000e+00
3.431759e-08
1.060896e-07
2.018478e-07
3.192531e-07
4.574065e-07
6.147488e-07
7.895894e-07
9.801781e-07
1.184681e-06
1.401134e-06
1.627357e-06
1.860845e-06
2.098578e-06
2.337224e-06
2.575435e-06
2.806648e-06
0.000000e+00
5.385853e-08
1.362037e-07
2.321106e-07
3.479240e-07
4.838724e-07
6.388711e-07
8.113494e-07
9.995601e-07
1.201609e-06
1.415431e-06
1.638730e-06
1.868910e-06
2.103006e-06
2.337948e-06
2.571895e-06
2.799976e-06
0.000000e+00
8.902941e-08
1.737517e-07
2.689209e-07
3.825349e-07
5.158112e-07
6.679178e-07
8.374444e-07
1.022650e-06
1.221609e-06
1.432205e-06
1.652084e-06
1.878624e-06
2.108982e-06
2.340451e-06
2.571318e-06
2.798030e-06


2.072138e-01
2.072137e-01
2.072138e-01
2.072141e-01
2.072143e-01
2.072145e-01
2.072146e-01
2.072148e-01
2.072149e-01
2.072150e-01
2.072151e-01
2.072152e-01
2.072152e-01
2.072152e-01
2.072151e-01
2.072150e-01
2.072141e-01
2.072141e-01
2.072141e-01
2.072143e-01
2.072145e-01
2.072146e-01
2.072147e-01
2.072149e-01
2.072150e-01
2.072151e-01
2.072152e-01
2.072152e-01
2.072152e-01
2.072152e-01
2.072151e-01
2.072150e-01
2.072147e-01
2.072146e-01
2.072146e-01
2.072147e-01
2.072148e-01
2.072149e-01
2.072150e-01
2.072150e-01
2.072151e-01
2.072152e-01
2.072152e-01
2.072152e-01
2.072152e-01
2.072152e-01
2.072151e-01
2.072150e-01
2.072151e-01
2.072150e-01
2.072150e-01
2.072150e-01
2.072151e-01
2.072151e-01
2.072151e-01
2.072152e-01
2.072152e-01
2.072152e-01
2.072152e-01
2.072152e-01
2.072152e-01
2.072152e-01
2.072152e-01
2.072151e-01
2.072151e-01
2.072150e-01
2.072150e-01
2.072150e-01
2.072151e-01
2.072151e-01
2.072151e-01
2.072152e-01
2.072152e-01
2.072152e-01
2.072152e-01
2.072152e-01
2.072152e-01
2.072152e-01
2.072152e-01
2.072152e-01
2.072147e-01
2.072146e-01
2.072146e-01
2.072147e-01
2.072148e-01
2.072149e-01
2.072150e-01
2.072150e-01
2.072151e-01
2.072151e-01
2.072152e-01
2.072152e-01
2.072152e-01
2.072153e-01
2.072153e-01
2.072153e-01
2.072141e-01
2.072141e-01
2.072141e-01
2.072143e-01
2.072145e-01
2.072146e-01
2.072147e-01
2.072149e-01
2.072150e-01
2.072151e-01
2.072151e-01
2.072152e-01
2.072153e-01
2.072153e-01
2.072154e-01
2.072154e-01
2.072138e-01
2.072137e-01
2.072138e-01
2.072141e-01
2.072143e-01
2.072145e-01
2.072146e-01
2.072148e-01
2.072149e-01
2.072150e-01
2.072151e-01
2.072152e-01
2.072153e-01
2.072154e-01
2.072154e-01
2.072154e-01


9.886850e-01
9.902896e-01
9.917739e-01
9.929165e-01
9.939771e-01
9.949551e-01
9.958461e-01
9.966397e-01
9.973275e-01
9.979027e-01
9.983601e-01
9.986952e-01
9.989035e-01
9.989778e-01
9.990315e-01
9.957247e-01
9.957193e-01
9.949840e-01
9.954571e-01
9.960745e-01
9.966502e-01
9.971734e-01
9.976470e-01
9.980760e-01
9.984644e-01
9.988162e-01
9.991354e-01
9.994245e-01
9.996767e-01
9.998418e-01
9.994242e-01
9.937637e-01
9.985127e-01
9.980903e-01
9.979763e-01
9.981367e-01
9.983477e-01
9.985520e-01
9.987417e-01
9.989210e-01
9.990947e-01
9.992640e-01
9.994221e-01
9.995445e-01
9.995701e-01
9.993496e-01
9.985498e-01
9.971113e-01
9.996973e-01
9.993893e-01
9.991990e-01
9.991507e-01
9.991700e-01
9.992024e-01
9.992347e-01
9.992662e-01
9.992972e-01
9.993231e-01
9.993303e-01
9.992918e-01
9.991695e-01
9.989500e-01
9.987639e-01
9.987167e-01
9.996984e-01
9.993909e-01
9.992005e-01
9.991504e-01
9.991652e-01
9.991886e-01
9.992047e-01
9.992102e-01
9.992028e-01
9.991789e-01
9.991345e-01
9.990705e-01
9.990096e-01
9.990217e-01
9.991939e-01
9.994921e-01
9.985148e-01
9.980936e-01
9.979794e-01
9.981367e-01
9.983395e-01
9.985267e-01
9.986852e-01
9.988125e-01
9.989079e-01
9.989721e-01
9.990127e-01
9.990524e-01
9.991358e-01
9.993106e-01
9.995733e-01
9.998448e-01
9.957189e-01
9.949837e-01
9.954565e-01
9.960728e-01
9.966457e-01
9.971631e-01
9.976257e-01
9.980353e-01
9.983922e-01
9.986972e-01
9.989555e-01
9.991810e-01
9.993982e-01
9.996260e-01
9.998389e-01
9.999730e-01
9.886773e-01
9.902775e-01
9.917591e-01
9.928999e-01
9.939622e-01
9.949497e-01
9.958645e-01
9.967045e-01
9.974699e-01
9.981592e-01
9.987641e-01
9.992660e-01
9.996393e-01
9.998697e-01
9.999745e-01
9.999995e-01
1 2 19 18
2 3 20 19
3 4 21 20
4 5 22 21
5 6 23 22
6 7 24 23
7 8 25 24
8 9 26 25
9 10 27 26
10 11 28 27
11 12 29 28
12 13 30 29
13 14 31 30
14 15 32 31
15 16 33 32
16 17 34 33
18 19 36 35
19 20 37 36
20 21 38 37
21 22 39 38
22 23 40 39
23 24 41 40
24 25 42 41
25 26 43 42
26 27 44 43
27 28 45 44
28 29 46 45
29 30 47 46
30 31 48 47
31 32 49 48
32 33 50 49
33 34 51 50
35 36 53 52
36 37 54 53
37 38 55 54
38 39 56 55
39 40 57 56
40 41 58 57
41 42 59 58
42 43 60 59
43 44 61 60
44 45 62 61
45 46 63 62
46 47 64 63
47 48 65 64
48 49 66 65
49 50 67 66
50 51 68 67
52 53 70 69
53 54 71 70
54 55 72 71
55 56 73 72
56 57 74 73
57 58 75 74
58 59 76 75
59 60 77 76
60 61 78 77
61 62 79 78
62 63 80 79
63 64 81 80
64 65 82 81
65 66 83 82
66 67 84 83
67 68 85 84
69 70 87 86
70 71 88 87
71 72 89 88
72 73 90 89
73 74 91 90
74 75 92 91
75 76 93 92
76 77 94 93
77 78 95 94
78 79 96 95
79 80 97 96
80 81 98 97
81 82 99 98
82 83 100 99
83 84 101 100
84 85 102 101
86 87 104 103
87 88 105 104
88 89 106 105
89 90 107 106
90 91 108 107
91 92 109 108
92 93 110 109
93 94 111 110
94 95 112 111
95 96 113 112
96 97 114 113
97 98 115 114
98 99 116 115
99 100 117 116
100 101 118 117
101 102 119 118
103 104 121 120
104 105 122 121
105 106 123 122
106 107 124 123
107 108 125 124
108 109 126 125
109 110 127 126
110 111 128 127
111 112 129 128
112 113 130 129
113 114 131 130
114 115 132 131
115 116 133 132
116 117 134 133
117 118 135 134
118 119 136 135
120 121 138 137
121 122 139 138
122 123 140 139
123 124 141 140
124 125 142 141
125 126 143 142
126 127 144 143
127 128 145 144
128 129 146 145
129 130 147 146
130 131 148 147
131 132 149 148
132 133 150 149
133 134 151 150
134 135 152 151
135 136 153 152
