TITLE = "Solution"
VARIABLES = x, y, u, v, psiu, psiv, t, stress
ZONE T="structure" N=153 E=128 F=FEBLOCK ET=QUADRILATERAL VARLOCATION=([7,8]=cellcentered)
0.000000e+00
1.250000e+01
2.500000e+01
3.750000e+01
5.000000e+01
6.250000e+01
7.500000e+01
8.750000e+01
1.000000e+02
1.125000e+02
1.250000e+02
1.375000e+02
1.500000e+02
1.625000e+02
1.750000e+02
1.875000e+02
2.000000e+02
0.000000e+00
1.250000e+01
2.500000e+01
3.750000e+01
5.000000e+01
6.250000e+01
7.500000e+01
8.750000e+01
1.000000e+02
1.125000e+02
1.250000e+02
1.375000e+02
1.500000e+02
1.625000e+02
1.750000e+02
1.875000e+02
2.000000e+02
0.000000e+00
1.250000e+01
2.500000e+01
3.750000e+01
5.000000e+01
6.250000e+01
7.500000e+01
8.750000e+01
1.000000e+02
1.125000e+02
1.250000e+02
1.375000e+02
1.500000e+02
1.625000e+02
1.750000e+02
1.875000e+02
2.000000e+02
0.000000e+00
1.250000e+01
2.500000e+01
3.750000e+01
5.000000e+01
6.250000e+01
7.500000e+01
8.750000e+01
1.000000e+02
1.125000e+02
1.250000e+02
1.375000e+02
1.500000e+02
1.625000e+02
1.750000e+02
1.875000e+02
2.000000e+02
0.000000e+00
1.250000e+01
2.500000e+01
3.750000e+01
5.000000e+01
6.250000e+01
7.500000e+01
8.750000e+01
1.000000e+02
1.125000e+02
1.250000e+02
1.375000e+02
1.500000e+02
1.625000e+02
1.750000e+02
1.875000e+02
2.000000e+02
0.000000e+00
1.250000e+01
2.500000e+01
3.750000e+01
5.000000e+01
6.250000e+01
7.500000e+01
8.750000e+01
1.000000e+02
1.125000e+02
1.250000e+02
1.375000e+02
1.500000e+02
1.625000e+02
1.750000e+02
1.875000e+02
2.000000e+02
0.000000e+00
1.250000e+01
2.500000e+01
3.750000e+01
5.000000e+01
6.250000e+01
7.500000e+01
8.750000e+01
1.000000e+02
1.125000e+02
1.250000e+02
1.375000e+02
1.500000e+02
1.625000e+02
1.750000e+02
1.875000e+02
2.000000e+02
0.000000e+00
1.250000e+01
2.500000e+01
3.750000e+01
5.000000e+01
6.250000e+01
7.500000e+01
8.750000e+01
1.000000e+02
1.125000e+02
1.250000e+02
1.375000e+02
1.500000e+02
1.625000e+02
1.750000e+02
1.875000e+02
2.000000e+02
0.000000e+00
1.250000e+01
2.500000e+01
3.750000e+01
5.000000e+01
6.250000e+01
7.500000e+01
8.750000e+01
1.000000e+02
1.125000e+02
1.250000e+02
1.375000e+02
1.500000e+02
1.625000e+02
1.750000e+02
1.875000e+02
2.000000e+02
0.000000e+00
0.000000e+00
0.000000e+00
0.000000e+00
0.000000e+00
0.000000e+00
0.000000e+00
0.000000e+00
0.000000e+00
0.000000e+00
0.000000e+00
0.000000e+00
0.000000e+00
0.000000e+00
0.000000e+00
0.000000e+00
0.000000e+00
1.250000e+01
1.250000e+01
1.250000e+01
1.250000e+01
1.250000e+01
1.250000e+01
1.250000e+01
1.250000e+01
1.250000e+01
1.250000e+01
1.250000e+01
1.250000e+01
1.250000e+01
1.250000e+01
1.250000e+01
1.250000e+01
1.250000e+01
2.500000e+01
2.500000e+01
2.500000e+01
2.500000e+01
2.500000e+01
2.500000e+01
2.500000e+01
2.500000e+01
2.500000e+01
2.500000e+01
2.500000e+01
2.500000e+01
2.500000e+01
2.500000e+01
2.500000e+01
2.500000e+01
2.500000e+01
3.750000e+01
3.750000e+01
3.750000e+01
3.750000e+01
3.750000e+01
3.750000e+01
3.750000e+01
3.750000e+01
3.750000e+01
3.750000e+01
3.750000e+01
3.750000e+01
3.750000e+01
3.750000e+01
3.750000e+01
3.750000e+01
3.750000e+01
5.000000e+01
5.000000e+01
5.000000e+01
5.000000e+01
5.000000e+01
5.000000e+01
5.000000e+01
5.000000e+01
5.000000e+01
5.000000e+01
5.000000e+01
5.000000e+01
5.000000e+01
5.000000e+01
5.000000e+01
5.000000e+01
5.000000e+01
6.250000e+01
6.250000e+01
6.250000e+01
6.250000e+01
6.250000e+01
6.250000e+01
6.250000e+01
6.250000e+01
6.250000e+01
6.250000e+01
6.250000e+01
6.250000e+01
6.250000e+01
6.250000e+01
6.250000e+01
6.250000e+01
6.250000e+01
7.500000e+01
7.500000e+01
7.500000e+01
7.500000e+01
7.500000e+01
7.500000e+01
7.500000e+01
7.500000e+01
7.500000e+01
7.500000e+01
7.500000e+01
7.500000e+01
7.500000e+01
7.500000e+01
7.500000e+01
7.500000e+01
7.500000e+01
8.750000e+01
8.750000e+01
8.750000e+01
8.750000e+01
8.750000e+01
8.750000e+01
8.750000e+01
8.750000e+01
8.750000e+01
8.750000e+01
8.750000e+01
8.750000e+01
8.750000e+01
8.750000e+01
8.750000e+01
8.750000e+01
8.750000e+01
1.000000e+02
1.000000e+02
1.000000e+02
1.000000e+02
1.000000e+02
1.000000e+02
1.000000e+02
1.000000e+02
1.000000e+02
1.000000e+02
1.000000e+02
1.000000e+02
1.000000e+02
1.000000e+02
1.000000e+02
1.000000e+02
1.000000e+02
0.000000e+00
-9.247947e-01
-1.612106e+00
-2.317839e+00
-3.003865e+00
-3.661324e+00
-4.338006e+00
-5.004713e+00
-5.664483e+00
-6.329623e+00
-6.992125e+00
-7.670955e+00
-8.390171e+00
-9.138699e+00
-9.898579e+00
-1.059644e+01
-1.104525e+01
0.000000e+00
-4.514876e-01
-9.338903e-01
-1.437158e+00
-1.953866e+00
-2.445303e+00
-2.951428e+00
-3.454038e+00
-3.949490e+00
-4.447633e+00
-4.940753e+00
-5.434832e+00
-5.935943e+00
-6.410785e+00
-6.757325e+00
-6.845405e+00
-7.013000e+00
0.000000e+00
-1.995482e-01
-4.442489e-01
-7.527289e-01
-1.092062e+00
-1.422959e+00
-1.767412e+00
-2.110374e+00
-2.448913e+00
-2.785453e+00
-3.110501e+00
-3.415421e+00
-3.682299e+00
-3.871059e+00
-3.926910e+00
-3.905459e+00
-4.058081e+00
0.000000e+00
-8.850389e-02
-1.897119e-01
-3.330437e-01
-4.859843e-01
-6.543219e-01
-8.261303e-01
-9.959053e-01
-1.163033e+00
-1.321819e+00
-1.463765e+00
-1.574322e+00
-1.632979e+00
-1.622129e+00
-1.558159e+00
-1.554773e+00
-1.684308e+00
0.000000e+00
-1.628604e-03
-3.286427e-03
-4.665475e-03
-5.339630e-03
-4.522619e-03
-1.106126e-03
6.725795e-03
2.167842e-02
4.704724e-02
8.823182e-02
1.534297e-01
2.485205e-01
3.664060e-01
4.651619e-01
4.757793e-01
3.722010e-01
0.000000e+00
8.572384e-02
1.842456e-01
3.249422e-01
4.763907e-01
6.455363e-01
8.223195e-01
1.004716e+00
1.196282e+00
1.397371e+00
1.609011e+00
1.827062e+00
2.039815e+00
2.225432e+00
2.347431e+00
2.371085e+00
2.310478e+00
0.000000e+00
1.983123e-01
4.416829e-01
7.486516e-01
1.086678e+00
1.416861e+00
1.762394e+00
2.110517e+00
2.458558e+00
2.812323e+00
3.170080e+00
3.521512e+00
3.838362e+00
4.088482e+00
4.246230e+00
4.300112e+00
4.285091e+00
0.000000e+00
4.516323e-01
9.338552e-01
1.436640e+00
1.952926e+00
2.442734e+00
2.945955e+00
3.446234e+00
3.933774e+00
4.417096e+00
4.898368e+00
5.366425e+00
5.778377e+00
6.088476e+00
6.280040e+00
6.363087e+00
6.378396e+00
0.000000e+00
9.259483e-01
1.614380e+00
2.321363e+00
3.009030e+00
3.666776e+00
4.341137e+00
5.004544e+00
5.650577e+00
6.286927e+00
6.915336e+00
7.515461e+00
8.020991e+00
8.367090e+00
8.540627e+00
8.584291e+00
8.583423e+00
0.000000e+00
-5.748249e-01
-1.234451e+00
-2.112492e+00
-3.159240e+00
-4.373660e+00
-5.768062e+00
-7.331951e+00
-9.068539e+00
-1.098050e+01
-1.306547e+01
-1.533266e+01
-1.779437e+01
-2.045627e+01
-2.335404e+01
-2.669065e+01
-3.162321e+01
0.000000e+00
-3.751635e-01
-1.066644e+00
-1.931154e+00
-2.985406e+00
-4.199241e+00
-5.591856e+00
-7.158615e+00
-8.895621e+00
-1.080851e+01
-1.289453e+01
-1.515843e+01
-1.761771e+01
-2.029426e+01
-2.323398e+01
-2.659319e+01
-3.064210e+01
0.000000e+00
-3.323074e-01
-9.623901e-01
-1.818908e+00
-2.863787e+00
-4.075897e+00
-5.468279e+00
-7.035657e+00
-8.775416e+00
-1.069287e+01
-1.278636e+01
-1.506154e+01
-1.753735e+01
-2.024590e+01
-2.322629e+01
-2.642156e+01
-2.941468e+01
0.000000e+00
-3.593812e-01
-9.410089e-01
-1.773242e+00
-2.797273e+00
-4.006808e+00
-5.398837e+00
-6.967319e+00
-8.712766e+00
-1.063865e+01
-1.274717e+01
-1.504440e+01
-1.754093e+01
-2.025342e+01
-2.317292e+01
-2.609613e+01
-2.864107e+01
0.000000e+00
-3.690345e-01
-9.467406e-01
-1.760950e+00
-2.781083e+00
-3.988595e+00
-5.382694e+00
-6.955677e+00
-8.707765e+00
-1.064255e+01
-1.276543e+01
-1.508032e+01
-1.758228e+01
-2.025746e+01
-2.304171e+01
-2.574234e+01
-2.804293e+01
0.000000e+00
-3.592228e-01
-9.417986e-01
-1.775956e+00
-2.803471e+00
-4.018160e+00
-5.417213e+00
-6.996423e+00
-8.754859e+00
-1.069431e+01
-1.282257e+01
-1.514190e+01
-1.763272e+01
-2.025077e+01
-2.290785e+01
-2.544450e+01
-2.763804e+01
0.000000e+00
-3.321968e-01
-9.637806e-01
-1.823328e+00
-2.873835e+00
-4.094415e+00
-5.498553e+00
-7.083599e+00
-8.844877e+00
-1.078517e+01
-1.291066e+01
-1.522357e+01
-1.769467e+01
-2.025880e+01
-2.282099e+01
-2.525784e+01
-2.744566e+01
0.000000e+00
-3.751327e-01
-1.068131e+00
-1.935972e+00
-2.996371e+00
-4.219623e+00
-5.625810e+00
-7.211967e+00
-8.972689e+00
-1.091204e+01
-1.303333e+01
-1.533503e+01
-1.778211e+01
-2.030117e+01
-2.279832e+01
-2.517788e+01
-2.739947e+01
0.000000e+00
-5.750428e-01
-1.236113e+00
-2.117603e+00
-3.170425e+00
-4.393952e+00
-5.801991e+00
-7.384384e+00
-9.142022e+00
-1.107940e+01
-1.319716e+01
-1.548455e+01
-1.789887e+01
-2.037104e+01
-2.281836e+01
-2.516308e+01
-2.740022e+01


0.000000e+00
1.415331e-05
2.449009e-05
3.630595e-05
5.101020e-05
6.426563e-05
7.747905e-05
9.137460e-05
1.046618e-04
1.175824e-04
1.307941e-04
1.441775e-04
1.551470e-04
1.620700e-04
1.663085e-04
1.699176e-04
1.743574e-04
0.000000e+00
1.042744e-05
1.958038e-05
2.824248e-05
4.016837e-05
5.056232e-05
6.008249e-05
7.065352e-05
8.067866e-05
8.985543e-05
9.932774e-05
1.085195e-04
1.147996e-04
1.164887e-04
1.162788e-04
1.192753e-04
1.241443e-04
0.000000e+00
8.417022e-06
1.484061e-05
2.066157e-05
2.895017e-05
3.582998e-05
4.201247e-05
4.890370e-05
5.517762e-05
6.064325e-05
6.580918e-05
7.010395e-05
7.221743e-05
7.175124e-05
7.142944e-05
7.413950e-05
7.883887e-05
0.000000e+00
4.434631e-06
7.041879e-06
1.067442e-05
1.443873e-05
1.752617e-05
2.084238e-05
2.394957e-05
2.663163e-05
2.890658e-05
3.032145e-05
3.077429e-05
3.034280e-05
3.007479e-05
3.093592e-05
3.395800e-05
3.851594e-05
0.000000e+00
-4.186674e-08
-9.772724e-08
-1.663830e-07
-2.497414e-07
-3.519928e-07
-4.722358e-07
-6.323770e-07
-8.900865e-07
-1.337645e-06
-2.214706e-06
-3.505843e-06
-5.017800e-06
-5.860404e-06
-5.016205e-06
-3.017587e-06
-2.918901e-07
0.000000e+00
-4.504322e-06
-7.199730e-06
-1.095005e-05
-1.487207e-05
-1.811609e-05
-2.161245e-05
-2.497158e-05
-2.785749e-05
-3.049161e-05
-3.273001e-05
-3.452556e-05
-3.623376e-05
-3.760675e-05
-3.852194e-05
-3.879864e-05
-3.814838e-05
0.000000e+00
-8.434635e-06
-1.489455e-05
-2.080934e-05
-2.920232e-05
-3.616821e-05
-4.253252e-05
-4.951654e-05
-5.562140e-05
-6.106526e-05
-6.591168e-05
-6.890803e-05
-7.059086e-05
-7.214363e-05
-7.357101e-05
-7.463231e-05
-7.491012e-05
0.000000e+00
-1.040993e-05
-1.955065e-05
-2.823953e-05
-4.018757e-05
-5.055474e-05
-6.018212e-05
-7.078735e-05
-8.052621e-05
-8.992234e-05
-9.920801e-05
-1.058509e-04
-1.091095e-04
-1.109847e-04
-1.120957e-04
-1.126240e-04
-1.127987e-04
0.000000e+00
-1.414881e-05
-2.444084e-05
-3.619446e-05
-5.082248e-05
-6.391964e-05
-7.700702e-05
-9.081144e-05
-1.037749e-04
-1.168914e-04
-1.305638e-04
-1.415490e-04
-1.483320e-04
-1.514071e-04
-1.521215e-04
-1.519412e-04
-1.517997e-04
0.000000e+00
1.187707e-05
1.947391e-05
3.080440e-05
4.555946e-05
6.181671e-05
8.223095e-05
1.067505e-04
1.341277e-04
1.651740e-04
2.003319e-04
2.387962e-04
2.793848e-04
3.231327e-04
3.743223e-04
4.326628e-04
4.916753e-04
0.000000e+00
6.844630e-06
1.521591e-05
2.496913e-05
3.924155e-05
5.612463e-05
7.634148e-05
1.007349e-04
1.284810e-04
1.596406e-04
1.947129e-04
2.337637e-04
2.762655e-04
3.217050e-04
3.711304e-04
4.268512e-04
4.838928e-04
0.000000e+00
3.455480e-06
1.119089e-05
2.048090e-05
3.415069e-05
5.159610e-05
7.203713e-05
9.631613e-05
1.244646e-04
1.559527e-04
1.911463e-04
2.307273e-04
2.745152e-04
3.211806e-04
3.673307e-04
4.191674e-04
4.739680e-04
0.000000e+00
2.201411e-06
9.066709e-06
1.855302e-05
3.211286e-05
4.963480e-05
7.030289e-05
9.471215e-05
1.230009e-04
1.548289e-04
1.902983e-04
2.296401e-04
2.737716e-04
3.204275e-04
3.644162e-04
4.112121e-04
4.617328e-04
0.000000e+00
1.835224e-06
8.441281e-06
1.798588e-05
3.161026e-05
4.901925e-05
6.976840e-05
9.429409e-05
1.226176e-04
1.546594e-04
1.903865e-04
2.295446e-04
2.734909e-04
3.204677e-04
3.634862e-04
4.058836e-04
4.509273e-04
0.000000e+00
2.239181e-06
9.110108e-06
1.859188e-05
3.214007e-05
4.959581e-05
7.020479e-05
9.462798e-05
1.228708e-04
1.548812e-04
1.909818e-04
2.305883e-04
2.745026e-04
3.207128e-04
3.640730e-04
4.045846e-04
4.448214e-04
0.000000e+00
3.512368e-06
1.125977e-05
2.055407e-05
3.420656e-05
5.152595e-05
7.188003e-05
9.613897e-05
1.241123e-04
1.559747e-04
1.924220e-04
2.327299e-04
2.762792e-04
3.212079e-04
3.640254e-04
4.041768e-04
4.428972e-04
0.000000e+00
6.900001e-06
1.530567e-05
2.507425e-05
3.931836e-05
5.609111e-05
7.619992e-05
1.004745e-04
1.280410e-04
1.596100e-04
1.958735e-04
2.356460e-04
2.778914e-04
3.215735e-04
3.637692e-04
4.039572e-04
4.428497e-04
0.000000e+00
1.192776e-05
1.956715e-05
3.092666e-05
4.564300e-05
6.180512e-05
8.214758e-05
1.064630e-04
1.336844e-04
1.652948e-04
2.010910e-04
2.390327e-04
2.795177e-04
3.219295e-04
3.637203e-04
4.038450e-04
4.429789e-04


3.203693e+00
3.089228e+00
3.140600e+00
3.022292e+00
2.986357e+00
3.224326e+00
3.427400e+00
3.730761e+00
4.166644e+00
4.691222e+00
5.505265e+00
6.547458e+00
7.348842e+00
7.385178e+00
6.387604e+00
5.343382e+00
5.087787e+00
4.972468e+00
4.933203e+00
4.826476e+00
4.757341e+00
4.903197e+00
5.028329e+00
5.213964e+00
5.496236e+00
5.834172e+00
6.349849e+00
7.012013e+00
7.490657e+00
7.223739e+00
5.937844e+00
4.596032e+00
7.125469e+00
7.059900e+00
7.023200e+00
6.922111e+00
6.877517e+00
6.924989e+00
6.948314e+00
6.998611e+00
7.083835e+00
7.167437e+00
7.288394e+00
7.453309e+00
7.536857e+00
7.118962e+00
5.899420e+00
4.760619e+00
8.016960e+00
7.991003e+00
7.970499e+00
7.913210e+00
7.892079e+00
7.889070e+00
7.867101e+00
7.841251e+00
7.802010e+00
7.718483e+00
7.576149e+00
7.415298e+00
7.309702e+00
7.082886e+00
6.521558e+00
5.999289e+00
8.015955e+00
7.988780e+00
7.966386e+00
7.906486e+00
7.881795e+00
7.873149e+00
7.842794e+00
7.798603e+00
7.723879e+00
7.595875e+00
7.398013e+00
7.182055e+00
7.112950e+00
7.181064e+00
7.213282e+00
7.174424e+00
7.121286e+00
7.051653e+00
7.007372e+00
6.897134e+00
6.839246e+00
6.869779e+00
6.871771e+00
6.871180e+00
6.884056e+00
6.933689e+00
7.015697e+00
7.089270e+00
7.233147e+00
7.488027e+00
7.727845e+00
7.850857e+00
5.081855e+00
4.960352e+00
4.911663e+00
4.793920e+00
4.707638e+00
4.837723e+00
4.949766e+00
5.090735e+00
5.365944e+00
5.847193e+00
6.500398e+00
7.091199e+00
7.510857e+00
7.828452e+00
8.048640e+00
8.151649e+00
3.199131e+00
3.080153e+00
3.124916e+00
3.001746e+00
2.955836e+00
3.189610e+00
3.406084e+00
3.706052e+00
4.223600e+00
5.072207e+00
6.169182e+00
7.111849e+00
7.693884e+00
8.016273e+00
8.186348e+00
8.257185e+00


-6.632765e-01
-2.149221e-01
-2.802063e-01
-2.687625e-01
-1.615984e-01
-2.299638e-01
-2.049725e-01
-1.791060e-01
-1.970826e-01
-1.835150e-01
-2.183692e-01
-3.109081e-01
-3.005738e-01
-4.771554e-02
4.522041e-01
-7.605854e-01
5.692508e-01
4.250029e-01
3.181354e-01
2.505498e-01
2.979908e-01
2.429610e-01
2.372462e-01
2.416443e-01
2.252870e-01
2.407760e-01
2.697355e-01
3.300566e-01
4.947921e-01
7.485095e-01
7.332807e-01
-1.168751e+00
7.991972e-01
6.235384e-01
4.322247e-01
3.738772e-01
3.617059e-01
3.245072e-01
3.229133e-01
3.259320e-01
3.289226e-01
3.558736e-01
4.018749e-01
4.597710e-01
4.860038e-01
3.625900e-01
1.224726e-01
-2.899502e-01
8.339612e-01
6.873342e-01
4.876043e-01
3.904532e-01
3.364249e-01
3.113788e-01
3.107974e-01
3.172001e-01
3.247452e-01
3.269218e-01
3.092980e-01
2.481582e-01
9.478093e-02
-1.444321e-01
-1.493080e-01
5.056804e-03
8.351530e-01
6.887993e-01
4.892416e-01
3.897132e-01
3.310411e-01
2.976879e-01
2.822424e-01
2.682289e-01
2.480119e-01
2.039583e-01
1.240972e-01
1.237848e-02
-1.200738e-01
-1.777794e-01
1.870834e-02
4.118989e-01
8.019355e-01
6.271719e-01
4.366951e-01
3.746690e-01
3.542189e-01
3.013529e-01
2.693151e-01
2.302771e-01
1.695578e-01
8.460754e-02
-1.500195e-02
-7.557635e-02
-5.218585e-02
1.061080e-01
4.229471e-01
7.909335e-01
5.709606e-01
4.271715e-01
3.205266e-01
2.509599e-01
2.960531e-01
2.335814e-01
2.083227e-01
1.945433e-01
1.412439e-01
6.470346e-02
-7.115492e-04
4.602273e-02
2.283716e-01
4.924864e-01
7.738472e-01
9.620006e-01
-6.659580e-01
-2.168593e-01
-2.819813e-01
-2.716571e-01
-1.597074e-01
-2.214270e-01
-1.972813e-01
-1.429727e-01
-1.249510e-01
-1.199186e-01
-6.028884e-02
1.844964e-01
5.419876e-01
8.228118e-01
9.639794e-01
9.992312e-01
1 2 19 18
2 3 20 19
3 4 21 20
4 5 22 21
5 6 23 22
6 7 24 23
7 8 25 24
8 9 26 25
9 10 27 26
10 11 28 27
11 12 29 28
12 13 30 29
13 14 31 30
14 15 32 31
15 16 33 32
16 17 34 33
18 19 36 35
19 20 37 36
20 21 38 37
21 22 39 38
22 23 40 39
23 24 41 40
24 25 42 41
25 26 43 42
26 27 44 43
27 28 45 44
28 29 46 45
29 30 47 46
30 31 48 47
31 32 49 48
32 33 50 49
33 34 51 50
35 36 53 52
36 37 54 53
37 38 55 54
38 39 56 55
39 40 57 56
40 41 58 57
41 42 59 58
42 43 60 59
43 44 61 60
44 45 62 61
45 46 63 62
46 47 64 63
47 48 65 64
48 49 66 65
49 50 67 66
50 51 68 67
52 53 70 69
53 54 71 70
54 55 72 71
55 56 73 72
56 57 74 73
57 58 75 74
58 59 76 75
59 60 77 76
60 61 78 77
61 62 79 78
62 63 80 79
63 64 81 80
64 65 82 81
65 66 83 82
66 67 84 83
67 68 85 84
69 70 87 86
70 71 88 87
71 72 89 88
72 73 90 89
73 74 91 90
74 75 92 91
75 76 93 92
76 77 94 93
77 78 95 94
78 79 96 95
79 80 97 96
80 81 98 97
81 82 99 98
82 83 100 99
83 84 101 100
84 85 102 101
86 87 104 103
87 88 105 104
88 89 106 105
89 90 107 106
90 91 108 107
91 92 109 108
92 93 110 109
93 94 111 110
94 95 112 111
95 96 113 112
96 97 114 113
97 98 115 114
98 99 116 115
99 100 117 116
100 101 118 117
101 102 119 118
103 104 121 120
104 105 122 121
105 106 123 122
106 107 124 123
107 108 125 124
108 109 126 125
109 110 127 126
110 111 128 127
111 112 129 128
112 113 130 129
113 114 131 130
114 115 132 131
115 116 133 132
116 117 134 133
117 118 135 134
118 119 136 135
120 121 138 137
121 122 139 138
122 123 140 139
123 124 141 140
124 125 142 141
125 126 143 142
126 127 144 143
127 128 145 144
128 129 146 145
129 130 147 146
130 131 148 147
131 132 149 148
132 133 150 149
133 134 151 150
134 135 152 151
135 136 153 152
