TITLE = "Solution"
VARIABLES = x, y, u, v, psiu, psiv, t, stress
ZONE T="structure" N=153 E=128 F=FEBLOCK ET=QUADRILATERAL VARLOCATION=([7,8]=cellcentered)
0.000000e+00
1.250000e+01
2.500000e+01
3.750000e+01
5.000000e+01
6.250000e+01
7.500000e+01
8.750000e+01
1.000000e+02
1.125000e+02
1.250000e+02
1.375000e+02
1.500000e+02
1.625000e+02
1.750000e+02
1.875000e+02
2.000000e+02
0.000000e+00
1.250000e+01
2.500000e+01
3.750000e+01
5.000000e+01
6.250000e+01
7.500000e+01
8.750000e+01
1.000000e+02
1.125000e+02
1.250000e+02
1.375000e+02
1.500000e+02
1.625000e+02
1.750000e+02
1.875000e+02
2.000000e+02
0.000000e+00
1.250000e+01
2.500000e+01
3.750000e+01
5.000000e+01
6.250000e+01
7.500000e+01
8.750000e+01
1.000000e+02
1.125000e+02
1.250000e+02
1.375000e+02
1.500000e+02
1.625000e+02
1.750000e+02
1.875000e+02
2.000000e+02
0.000000e+00
1.250000e+01
2.500000e+01
3.750000e+01
5.000000e+01
6.250000e+01
7.500000e+01
8.750000e+01
1.000000e+02
1.125000e+02
1.250000e+02
1.375000e+02
1.500000e+02
1.625000e+02
1.750000e+02
1.875000e+02
2.000000e+02
0.000000e+00
1.250000e+01
2.500000e+01
3.750000e+01
5.000000e+01
6.250000e+01
7.500000e+01
8.750000e+01
1.000000e+02
1.125000e+02
1.250000e+02
1.375000e+02
1.500000e+02
1.625000e+02
1.750000e+02
1.875000e+02
2.000000e+02
0.000000e+00
1.250000e+01
2.500000e+01
3.750000e+01
5.000000e+01
6.250000e+01
7.500000e+01
8.750000e+01
1.000000e+02
1.125000e+02
1.250000e+02
1.375000e+02
1.500000e+02
1.625000e+02
1.750000e+02
1.875000e+02
2.000000e+02
0.000000e+00
1.250000e+01
2.500000e+01
3.750000e+01
5.000000e+01
6.250000e+01
7.500000e+01
8.750000e+01
1.000000e+02
1.125000e+02
1.250000e+02
1.375000e+02
1.500000e+02
1.625000e+02
1.750000e+02
1.875000e+02
2.000000e+02
0.000000e+00
1.250000e+01
2.500000e+01
3.750000e+01
5.000000e+01
6.250000e+01
7.500000e+01
8.750000e+01
1.000000e+02
1.125000e+02
1.250000e+02
1.375000e+02
1.500000e+02
1.625000e+02
1.750000e+02
1.875000e+02
2.000000e+02
0.000000e+00
1.250000e+01
2.500000e+01
3.750000e+01
5.000000e+01
6.250000e+01
7.500000e+01
8.750000e+01
1.000000e+02
1.125000e+02
1.250000e+02
1.375000e+02
1.500000e+02
1.625000e+02
1.750000e+02
1.875000e+02
2.000000e+02
0.000000e+00
0.000000e+00
0.000000e+00
0.000000e+00
0.000000e+00
0.000000e+00
0.000000e+00
0.000000e+00
0.000000e+00
0.000000e+00
0.000000e+00
0.000000e+00
0.000000e+00
0.000000e+00
0.000000e+00
0.000000e+00
0.000000e+00
1.250000e+01
1.250000e+01
1.250000e+01
1.250000e+01
1.250000e+01
1.250000e+01
1.250000e+01
1.250000e+01
1.250000e+01
1.250000e+01
1.250000e+01
1.250000e+01
1.250000e+01
1.250000e+01
1.250000e+01
1.250000e+01
1.250000e+01
2.500000e+01
2.500000e+01
2.500000e+01
2.500000e+01
2.500000e+01
2.500000e+01
2.500000e+01
2.500000e+01
2.500000e+01
2.500000e+01
2.500000e+01
2.500000e+01
2.500000e+01
2.500000e+01
2.500000e+01
2.500000e+01
2.500000e+01
3.750000e+01
3.750000e+01
3.750000e+01
3.750000e+01
3.750000e+01
3.750000e+01
3.750000e+01
3.750000e+01
3.750000e+01
3.750000e+01
3.750000e+01
3.750000e+01
3.750000e+01
3.750000e+01
3.750000e+01
3.750000e+01
3.750000e+01
5.000000e+01
5.000000e+01
5.000000e+01
5.000000e+01
5.000000e+01
5.000000e+01
5.000000e+01
5.000000e+01
5.000000e+01
5.000000e+01
5.000000e+01
5.000000e+01
5.000000e+01
5.000000e+01
5.000000e+01
5.000000e+01
5.000000e+01
6.250000e+01
6.250000e+01
6.250000e+01
6.250000e+01
6.250000e+01
6.250000e+01
6.250000e+01
6.250000e+01
6.250000e+01
6.250000e+01
6.250000e+01
6.250000e+01
6.250000e+01
6.250000e+01
6.250000e+01
6.250000e+01
6.250000e+01
7.500000e+01
7.500000e+01
7.500000e+01
7.500000e+01
7.500000e+01
7.500000e+01
7.500000e+01
7.500000e+01
7.500000e+01
7.500000e+01
7.500000e+01
7.500000e+01
7.500000e+01
7.500000e+01
7.500000e+01
7.500000e+01
7.500000e+01
8.750000e+01
8.750000e+01
8.750000e+01
8.750000e+01
8.750000e+01
8.750000e+01
8.750000e+01
8.750000e+01
8.750000e+01
8.750000e+01
8.750000e+01
8.750000e+01
8.750000e+01
8.750000e+01
8.750000e+01
8.750000e+01
8.750000e+01
1.000000e+02
1.000000e+02
1.000000e+02
1.000000e+02
1.000000e+02
1.000000e+02
1.000000e+02
1.000000e+02
1.000000e+02
1.000000e+02
1.000000e+02
1.000000e+02
1.000000e+02
1.000000e+02
1.000000e+02
1.000000e+02
1.000000e+02
0.000000e+00
-8.832754e-01
-1.567986e+00
-2.250837e+00
-2.938162e+00
-3.598758e+00
-4.264722e+00
-4.933113e+00
-5.592796e+00
-6.251826e+00
-6.919426e+00
-7.595356e+00
-8.270238e+00
-8.938263e+00
-9.602092e+00
-1.025741e+01
-1.069323e+01
0.000000e+00
-4.570371e-01
-9.476460e-01
-1.446666e+00
-1.961676e+00
-2.456249e+00
-2.954030e+00
-3.454412e+00
-3.947329e+00
-4.436975e+00
-4.927775e+00
-5.414630e+00
-5.879784e+00
-6.289584e+00
-6.571594e+00
-6.638958e+00
-6.793586e+00
0.000000e+00
-2.298506e-01
-4.952721e-01
-8.109554e-01
-1.148599e+00
-1.480886e+00
-1.818216e+00
-2.155939e+00
-2.487845e+00
-2.813036e+00
-3.126580e+00
-3.415187e+00
-3.654977e+00
-3.810031e+00
-3.841784e+00
-3.813478e+00
-3.966533e+00
0.000000e+00
-9.841627e-02
-2.132421e-01
-3.600587e-01
-5.198000e-01
-6.872688e-01
-8.574205e-01
-1.025539e+00
-1.188462e+00
-1.341187e+00
-1.474789e+00
-1.575549e+00
-1.626216e+00
-1.613404e+00
-1.557886e+00
-1.560477e+00
-1.689360e+00
0.000000e+00
-9.570225e-04
-1.895709e-03
-2.602551e-03
-2.735169e-03
-1.726698e-03
1.423072e-03
8.302396e-03
2.125226e-02
4.401682e-02
8.238844e-02
1.432173e-01
2.302229e-01
3.336876e-01
4.133330e-01
4.125869e-01
3.146487e-01
0.000000e+00
9.676799e-02
2.099763e-01
3.554269e-01
5.146426e-01
6.833877e-01
8.582831e-01
1.037125e+00
1.220685e+00
1.410296e+00
1.605929e+00
1.804292e+00
1.995828e+00
2.159730e+00
2.263344e+00
2.279867e+00
2.225966e+00
0.000000e+00
2.289749e-01
4.934723e-01
8.081697e-01
1.144861e+00
1.476914e+00
1.815450e+00
2.156266e+00
2.495149e+00
2.835181e+00
3.173469e+00
3.495461e+00
3.778893e+00
3.999752e+00
4.136960e+00
4.183395e+00
4.170977e+00
0.000000e+00
4.570535e-01
9.476368e-01
1.446454e+00
1.960710e+00
2.454285e+00
2.950553e+00
3.446794e+00
3.932708e+00
4.414152e+00
4.888367e+00
5.328970e+00
5.698722e+00
5.970505e+00
6.136252e+00
6.207537e+00
6.220811e+00
0.000000e+00
8.840187e-01
1.569738e+00
2.253741e+00
2.941830e+00
3.602896e+00
4.268517e+00
4.932520e+00
5.582613e+00
6.226547e+00
6.855997e+00
7.427259e+00
7.882890e+00
8.185172e+00
8.332982e+00
8.368639e+00
8.367383e+00
0.000000e+00
-5.467758e-01
-1.152246e+00
-1.956484e+00
-2.929361e+00
-4.069108e+00
-5.386384e+00
-6.877403e+00
-8.540633e+00
-1.037980e+01
-1.239723e+01
-1.459264e+01
-1.696508e+01
-1.952042e+01
-2.231058e+01
-2.554600e+01
-3.029818e+01
0.000000e+00
-3.509046e-01
-9.846103e-01
-1.777840e+00
-2.753931e+00
-3.895956e+00
-5.211815e+00
-6.704135e+00
-8.369471e+00
-1.020892e+01
-1.222631e+01
-1.442458e+01
-1.680564e+01
-1.938169e+01
-2.220098e+01
-2.544279e+01
-2.939238e+01
0.000000e+00
-2.984884e-01
-8.769913e-01
-1.661903e+00
-2.631932e+00
-3.773047e+00
-5.089252e+00
-6.583141e+00
-8.251682e+00
-1.009606e+01
-1.212134e+01
-1.433246e+01
-1.673454e+01
-1.934394e+01
-2.218952e+01
-2.525958e+01
-2.815591e+01
0.000000e+00
-3.071982e-01
-8.438219e-01
-1.606437e+00
-2.564005e+00
-3.702112e+00
-5.019524e+00
-6.515914e+00
-8.189942e+00
-1.004421e+01
-1.208428e+01
-1.431429e+01
-1.673593e+01
-1.935099e+01
-2.213362e+01
-2.492306e+01
-2.737243e+01
0.000000e+00
-3.144203e-01
-8.413524e-01
-1.592468e+00
-2.544789e+00
-3.682110e+00
-5.002018e+00
-6.502370e+00
-8.182803e+00
-1.004739e+01
-1.210173e+01
-1.434621e+01
-1.677120e+01
-1.935115e+01
-2.201084e+01
-2.458323e+01
-2.680585e+01
0.000000e+00
-3.071130e-01
-8.443730e-01
-1.608462e+00
-2.568481e+00
-3.710448e+00
-5.033975e+00
-6.538839e+00
-8.223970e+00
-1.009444e+01
-1.215660e+01
-1.440583e+01
-1.681797e+01
-1.934249e+01
-2.188847e+01
-2.431641e+01
-2.644756e+01
0.000000e+00
-2.983338e-01
-8.778424e-01
-1.665081e+00
-2.639072e+00
-3.786488e+00
-5.112682e+00
-6.620560e+00
-8.307638e+00
-1.017920e+01
-1.224205e+01
-1.448697e+01
-1.687762e+01
-1.934914e+01
-2.181001e+01
-2.415431e+01
-2.628324e+01
0.000000e+00
-3.507615e-01
-9.855301e-01
-1.781270e+00
-2.761804e+00
-3.910947e+00
-5.237871e+00
-6.745819e+00
-8.432430e+00
-1.030285e+01
-1.236154e+01
-1.459446e+01
-1.695906e+01
-1.938631e+01
-2.178934e+01
-2.408569e+01
-2.624536e+01
0.000000e+00
-5.468263e-01
-1.153359e+00
-1.960077e+00
-2.937375e+00
-4.084306e+00
-5.412262e+00
-6.918070e+00
-8.602182e+00
-1.047089e+01
-1.252196e+01
-1.473400e+01
-1.706353e+01
-1.944672e+01
-2.180588e+01
-2.407288e+01
-2.624652e+01


0.000000e+00
1.296456e-05
2.351911e-05
3.465085e-05
4.792668e-05
6.050499e-05
7.242281e-05
8.438051e-05
9.588710e-05
1.067456e-04
1.167119e-04
1.247064e-04
1.301792e-04
1.339765e-04
1.369756e-04
1.401871e-04
1.438739e-04
0.000000e+00
9.556985e-06
1.894513e-05
2.720837e-05
3.768375e-05
4.747696e-05
5.626058e-05
6.519198e-05
7.384657e-05
8.185865e-05
8.898392e-05
9.419101e-05
9.679442e-05
9.728431e-05
9.740246e-05
1.000387e-04
1.043558e-04
0.000000e+00
7.472646e-06
1.400234e-05
1.967000e-05
2.676613e-05
3.321431e-05
3.900583e-05
4.482568e-05
5.029379e-05
5.512991e-05
5.911341e-05
6.168727e-05
6.259873e-05
6.238436e-05
6.251413e-05
6.506458e-05
6.936684e-05
0.000000e+00
3.820842e-06
6.614820e-06
1.004797e-05
1.337070e-05
1.639321e-05
1.938239e-05
2.219035e-05
2.466486e-05
2.673724e-05
2.825892e-05
2.912256e-05
2.948282e-05
2.977748e-05
3.054325e-05
3.260319e-05
3.580807e-05
0.000000e+00
-2.065723e-08
-4.441984e-08
-6.902141e-08
-9.395060e-08
-1.186374e-07
-1.471120e-07
-1.892895e-07
-2.736270e-07
-4.654576e-07
-8.076744e-07
-1.190572e-06
-1.390661e-06
-1.146068e-06
-4.570409e-07
5.307566e-07
2.084018e-06
0.000000e+00
-3.857443e-06
-6.690131e-06
-1.016970e-05
-1.353385e-05
-1.659862e-05
-1.962901e-05
-2.246011e-05
-2.499444e-05
-2.727022e-05
-2.914955e-05
-3.052368e-05
-3.130018e-05
-3.151905e-05
-3.154129e-05
-3.151979e-05
-3.106176e-05
0.000000e+00
-7.490568e-06
-1.404630e-05
-1.974399e-05
-2.687975e-05
-3.338041e-05
-3.918688e-05
-4.497434e-05
-5.044807e-05
-5.516242e-05
-5.868848e-05
-6.082809e-05
-6.196582e-05
-6.259036e-05
-6.301081e-05
-6.328580e-05
-6.324610e-05
0.000000e+00
-9.555177e-06
-1.894782e-05
-2.721148e-05
-3.769885e-05
-4.753136e-05
-5.630097e-05
-6.517310e-05
-7.391344e-05
-8.177960e-05
-8.781654e-05
-9.145501e-05
-9.336000e-05
-9.442943e-05
-9.507853e-05
-9.541108e-05
-9.547532e-05
0.000000e+00
-1.295776e-05
-2.349148e-05
-3.458920e-05
-4.782077e-05
-6.036807e-05
-7.221559e-05
-8.406529e-05
-9.561101e-05
-1.063721e-04
-1.152375e-04
-1.213161e-04
-1.249249e-04
-1.268705e-04
-1.277827e-04
-1.280769e-04
-1.281127e-04
0.000000e+00
1.104341e-05
1.843244e-05
2.860665e-05
4.212083e-05
5.753503e-05
7.616544e-05
9.831233e-05
1.232458e-04
1.508276e-04
1.806392e-04
2.118590e-04
2.444603e-04
2.795093e-04
3.200841e-04
3.671646e-04
4.147454e-04
0.000000e+00
6.090508e-06
1.406165e-05
2.324493e-05
3.623801e-05
5.210134e-05
7.091086e-05
9.308083e-05
1.182800e-04
1.462552e-04
1.767902e-04
2.092482e-04
2.431009e-04
2.786949e-04
3.173268e-04
3.618521e-04
4.081399e-04
0.000000e+00
2.871675e-06
1.016410e-05
1.923868e-05
3.179405e-05
4.800469e-05
6.714706e-05
8.940417e-05
1.148560e-04
1.432566e-04
1.743890e-04
2.077192e-04
2.424959e-04
2.780480e-04
3.138194e-04
3.547366e-04
3.989313e-04
0.000000e+00
1.720800e-06
8.181328e-06
1.743390e-05
3.002259e-05
4.625559e-05
6.555555e-05
8.797757e-05
1.136091e-04
1.422570e-04
1.736301e-04
2.071656e-04
2.420910e-04
2.772633e-04
3.112091e-04
3.485267e-04
3.895839e-04
0.000000e+00
1.439949e-06
7.584875e-06
1.683770e-05
2.955253e-05
4.571212e-05
6.505072e-05
8.757259e-05
1.133114e-04
1.421215e-04
1.736048e-04
2.071012e-04
2.418208e-04
2.767046e-04
3.103634e-04
3.453555e-04
3.826933e-04
0.000000e+00
1.728009e-06
8.185041e-06
1.742315e-05
2.998530e-05
4.619532e-05
6.548114e-05
8.789779e-05
1.136340e-04
1.425731e-04
1.741870e-04
2.076341e-04
2.420686e-04
2.765780e-04
3.105302e-04
3.445893e-04
3.789671e-04
0.000000e+00
2.883120e-06
1.017201e-05
1.922524e-05
3.173915e-05
4.791234e-05
6.702358e-05
8.925778e-05
1.148985e-04
1.438182e-04
1.754193e-04
2.086823e-04
2.427072e-04
2.768497e-04
3.106969e-04
3.443196e-04
3.774167e-04
0.000000e+00
6.105657e-06
1.407582e-05
2.324106e-05
3.619897e-05
5.201223e-05
7.076616e-05
9.292837e-05
1.183327e-04
1.467614e-04
1.776575e-04
2.101057e-04
2.434544e-04
2.771791e-04
3.108217e-04
3.441611e-04
3.769948e-04
0.000000e+00
1.105989e-05
1.844841e-05
2.860779e-05
4.209854e-05
5.746047e-05
7.600805e-05
9.817688e-05
1.233329e-04
1.510828e-04
1.807662e-04
2.118926e-04
2.443275e-04
2.775656e-04
3.109657e-04
3.441370e-04
3.769515e-04


2.536668e+00
2.420371e+00
2.516489e+00
2.616789e+00
2.704656e+00
2.977490e+00
3.280796e+00
3.618540e+00
4.097445e+00
4.733436e+00
5.440069e+00
6.051191e+00
6.381277e+00
6.133317e+00
5.225080e+00
4.421331e+00
3.884558e+00
3.770778e+00
3.796442e+00
3.836561e+00
3.872292e+00
4.053649e+00
4.259848e+00
4.489786e+00
4.826512e+00
5.283334e+00
5.797114e+00
6.241045e+00
6.441349e+00
6.060488e+00
5.046816e+00
4.144094e+00
5.601736e+00
5.535033e+00
5.522809e+00
5.501820e+00
5.492414e+00
5.561415e+00
5.635083e+00
5.717393e+00
5.849697e+00
6.041041e+00
6.266604e+00
6.464157e+00
6.516016e+00
6.130243e+00
5.244374e+00
4.517311e+00
6.525477e+00
6.494008e+00
6.473913e+00
6.433261e+00
6.415780e+00
6.421328e+00
6.420084e+00
6.414825e+00
6.418300e+00
6.438332e+00
6.476512e+00
6.522051e+00
6.524910e+00
6.313521e+00
5.847386e+00
5.468294e+00
6.525187e+00
6.493378e+00
6.472647e+00
6.430858e+00
6.411767e+00
6.414461e+00
6.406367e+00
6.389730e+00
6.381998e+00
6.392657e+00
6.421440e+00
6.467204e+00
6.515261e+00
6.491696e+00
6.366293e+00
6.254487e+00
5.600563e+00
5.532986e+00
5.518767e+00
5.494447e+00
5.481329e+00
5.544021e+00
5.601670e+00
5.664661e+00
5.793975e+00
5.991830e+00
6.206646e+00
6.393150e+00
6.540018e+00
6.633915e+00
6.667471e+00
6.671585e+00
3.882627e+00
3.767986e+00
3.791413e+00
3.827785e+00
3.861372e+00
4.039867e+00
4.235803e+00
4.471192e+00
4.864049e+00
5.392029e+00
5.914951e+00
6.316207e+00
6.577211e+00
6.732242e+00
6.814008e+00
6.846842e+00
2.534647e+00
2.418125e+00
2.512902e+00
2.610885e+00
2.700185e+00
2.977349e+00
3.283463e+00
3.657027e+00
4.248332e+00
5.011360e+00
5.741960e+00
6.279893e+00
6.606280e+00
6.783428e+00
6.871271e+00
6.906976e+00


-5.803245e-01
-2.226815e-01
-2.246586e-01
-2.672219e-01
-1.735689e-01
-1.916409e-01
-2.032608e-01
-1.728159e-01
-1.666954e-01
-1.865761e-01
-1.924242e-01
-1.388582e-01
-5.403401e-03
2.305999e-01
5.347355e-01
-6.084951e-01
5.408772e-01
4.080330e-01
3.351102e-01
2.766335e-01
3.108048e-01
2.891845e-01
2.728277e-01
2.818022e-01
2.864057e-01
2.957647e-01
3.424099e-01
4.574401e-01
6.426429e-01
8.377495e-01
7.468286e-01
-1.253654e+00
8.231053e-01
6.900930e-01
5.639231e-01
5.109253e-01
5.006507e-01
4.789620e-01
4.672896e-01
4.679817e-01
4.732446e-01
4.890443e-01
5.252847e-01
5.774062e-01
5.971193e-01
4.882045e-01
1.940710e-01
-3.290655e-01
8.854548e-01
7.685617e-01
6.367900e-01
5.640412e-01
5.315084e-01
5.145974e-01
5.069442e-01
5.042196e-01
4.976660e-01
4.788064e-01
4.410804e-01
3.705099e-01
2.396780e-01
7.251751e-02
4.549766e-02
1.115873e-01
8.861759e-01
7.693260e-01
6.371527e-01
5.627205e-01
5.265806e-01
5.028630e-01
4.843835e-01
4.646241e-01
4.296145e-01
3.668970e-01
2.742049e-01
1.604934e-01
5.579157e-02
5.054931e-02
2.368069e-01
5.391955e-01
8.248469e-01
6.920109e-01
5.652554e-01
5.094816e-01
4.925263e-01
4.577626e-01
4.248421e-01
3.902160e-01
3.333298e-01
2.536401e-01
1.718981e-01
1.214355e-01
1.475531e-01
2.989923e-01
5.640526e-01
8.448293e-01
5.422401e-01
4.094465e-01
3.364204e-01
2.775292e-01
3.084123e-01
2.801789e-01
2.551971e-01
2.454297e-01
2.080695e-01
1.602880e-01
1.599784e-01
2.419789e-01
4.004497e-01
6.152010e-01
8.333665e-01
9.727568e-01
-5.817347e-01
-2.246890e-01
-2.266558e-01
-2.675249e-01
-1.731862e-01
-1.893333e-01
-1.890874e-01
-1.460680e-01
-1.329464e-01
-1.020044e-01
5.394141e-02
3.421590e-01
6.489984e-01
8.685932e-01
9.742027e-01
9.994965e-01
1 2 19 18
2 3 20 19
3 4 21 20
4 5 22 21
5 6 23 22
6 7 24 23
7 8 25 24
8 9 26 25
9 10 27 26
10 11 28 27
11 12 29 28
12 13 30 29
13 14 31 30
14 15 32 31
15 16 33 32
16 17 34 33
18 19 36 35
19 20 37 36
20 21 38 37
21 22 39 38
22 23 40 39
23 24 41 40
24 25 42 41
25 26 43 42
26 27 44 43
27 28 45 44
28 29 46 45
29 30 47 46
30 31 48 47
31 32 49 48
32 33 50 49
33 34 51 50
35 36 53 52
36 37 54 53
37 38 55 54
38 39 56 55
39 40 57 56
40 41 58 57
41 42 59 58
42 43 60 59
43 44 61 60
44 45 62 61
45 46 63 62
46 47 64 63
47 48 65 64
48 49 66 65
49 50 67 66
50 51 68 67
52 53 70 69
53 54 71 70
54 55 72 71
55 56 73 72
56 57 74 73
57 58 75 74
58 59 76 75
59 60 77 76
60 61 78 77
61 62 79 78
62 63 80 79
63 64 81 80
64 65 82 81
65 66 83 82
66 67 84 83
67 68 85 84
69 70 87 86
70 71 88 87
71 72 89 88
72 73 90 89
73 74 91 90
74 75 92 91
75 76 93 92
76 77 94 93
77 78 95 94
78 79 96 95
79 80 97 96
80 81 98 97
81 82 99 98
82 83 100 99
83 84 101 100
84 85 102 101
86 87 104 103
87 88 105 104
88 89 106 105
89 90 107 106
90 91 108 107
91 92 109 108
92 93 110 109
93 94 111 110
94 95 112 111
95 96 113 112
96 97 114 113
97 98 115 114
98 99 116 115
99 100 117 116
100 101 118 117
101 102 119 118
103 104 121 120
104 105 122 121
105 106 123 122
106 107 124 123
107 108 125 124
108 109 126 125
109 110 127 126
110 111 128 127
111 112 129 128
112 113 130 129
113 114 131 130
114 115 132 131
115 116 133 132
116 117 134 133
117 118 135 134
118 119 136 135
120 121 138 137
121 122 139 138
122 123 140 139
123 124 141 140
124 125 142 141
125 126 143 142
126 127 144 143
127 128 145 144
128 129 146 145
129 130 147 146
130 131 148 147
131 132 149 148
132 133 150 149
133 134 151 150
134 135 152 151
135 136 153 152
