TITLE = "Solution"
VARIABLES = x, y, u, v, psiu, psiv, t, stress
ZONE T="structure" N=153 E=128 F=FEBLOCK ET=QUADRILATERAL VARLOCATION=([7,8]=cellcentered)
0.000000e+00
1.250000e+01
2.500000e+01
3.750000e+01
5.000000e+01
6.250000e+01
7.500000e+01
8.750000e+01
1.000000e+02
1.125000e+02
1.250000e+02
1.375000e+02
1.500000e+02
1.625000e+02
1.750000e+02
1.875000e+02
2.000000e+02
0.000000e+00
1.250000e+01
2.500000e+01
3.750000e+01
5.000000e+01
6.250000e+01
7.500000e+01
8.750000e+01
1.000000e+02
1.125000e+02
1.250000e+02
1.375000e+02
1.500000e+02
1.625000e+02
1.750000e+02
1.875000e+02
2.000000e+02
0.000000e+00
1.250000e+01
2.500000e+01
3.750000e+01
5.000000e+01
6.250000e+01
7.500000e+01
8.750000e+01
1.000000e+02
1.125000e+02
1.250000e+02
1.375000e+02
1.500000e+02
1.625000e+02
1.750000e+02
1.875000e+02
2.000000e+02
0.000000e+00
1.250000e+01
2.500000e+01
3.750000e+01
5.000000e+01
6.250000e+01
7.500000e+01
8.750000e+01
1.000000e+02
1.125000e+02
1.250000e+02
1.375000e+02
1.500000e+02
1.625000e+02
1.750000e+02
1.875000e+02
2.000000e+02
0.000000e+00
1.250000e+01
2.500000e+01
3.750000e+01
5.000000e+01
6.250000e+01
7.500000e+01
8.750000e+01
1.000000e+02
1.125000e+02
1.250000e+02
1.375000e+02
1.500000e+02
1.625000e+02
1.750000e+02
1.875000e+02
2.000000e+02
0.000000e+00
1.250000e+01
2.500000e+01
3.750000e+01
5.000000e+01
6.250000e+01
7.500000e+01
8.750000e+01
1.000000e+02
1.125000e+02
1.250000e+02
1.375000e+02
1.500000e+02
1.625000e+02
1.750000e+02
1.875000e+02
2.000000e+02
0.000000e+00
1.250000e+01
2.500000e+01
3.750000e+01
5.000000e+01
6.250000e+01
7.500000e+01
8.750000e+01
1.000000e+02
1.125000e+02
1.250000e+02
1.375000e+02
1.500000e+02
1.625000e+02
1.750000e+02
1.875000e+02
2.000000e+02
0.000000e+00
1.250000e+01
2.500000e+01
3.750000e+01
5.000000e+01
6.250000e+01
7.500000e+01
8.750000e+01
1.000000e+02
1.125000e+02
1.250000e+02
1.375000e+02
1.500000e+02
1.625000e+02
1.750000e+02
1.875000e+02
2.000000e+02
0.000000e+00
1.250000e+01
2.500000e+01
3.750000e+01
5.000000e+01
6.250000e+01
7.500000e+01
8.750000e+01
1.000000e+02
1.125000e+02
1.250000e+02
1.375000e+02
1.500000e+02
1.625000e+02
1.750000e+02
1.875000e+02
2.000000e+02
0.000000e+00
0.000000e+00
0.000000e+00
0.000000e+00
0.000000e+00
0.000000e+00
0.000000e+00
0.000000e+00
0.000000e+00
0.000000e+00
0.000000e+00
0.000000e+00
0.000000e+00
0.000000e+00
0.000000e+00
0.000000e+00
0.000000e+00
1.250000e+01
1.250000e+01
1.250000e+01
1.250000e+01
1.250000e+01
1.250000e+01
1.250000e+01
1.250000e+01
1.250000e+01
1.250000e+01
1.250000e+01
1.250000e+01
1.250000e+01
1.250000e+01
1.250000e+01
1.250000e+01
1.250000e+01
2.500000e+01
2.500000e+01
2.500000e+01
2.500000e+01
2.500000e+01
2.500000e+01
2.500000e+01
2.500000e+01
2.500000e+01
2.500000e+01
2.500000e+01
2.500000e+01
2.500000e+01
2.500000e+01
2.500000e+01
2.500000e+01
2.500000e+01
3.750000e+01
3.750000e+01
3.750000e+01
3.750000e+01
3.750000e+01
3.750000e+01
3.750000e+01
3.750000e+01
3.750000e+01
3.750000e+01
3.750000e+01
3.750000e+01
3.750000e+01
3.750000e+01
3.750000e+01
3.750000e+01
3.750000e+01
5.000000e+01
5.000000e+01
5.000000e+01
5.000000e+01
5.000000e+01
5.000000e+01
5.000000e+01
5.000000e+01
5.000000e+01
5.000000e+01
5.000000e+01
5.000000e+01
5.000000e+01
5.000000e+01
5.000000e+01
5.000000e+01
5.000000e+01
6.250000e+01
6.250000e+01
6.250000e+01
6.250000e+01
6.250000e+01
6.250000e+01
6.250000e+01
6.250000e+01
6.250000e+01
6.250000e+01
6.250000e+01
6.250000e+01
6.250000e+01
6.250000e+01
6.250000e+01
6.250000e+01
6.250000e+01
7.500000e+01
7.500000e+01
7.500000e+01
7.500000e+01
7.500000e+01
7.500000e+01
7.500000e+01
7.500000e+01
7.500000e+01
7.500000e+01
7.500000e+01
7.500000e+01
7.500000e+01
7.500000e+01
7.500000e+01
7.500000e+01
7.500000e+01
8.750000e+01
8.750000e+01
8.750000e+01
8.750000e+01
8.750000e+01
8.750000e+01
8.750000e+01
8.750000e+01
8.750000e+01
8.750000e+01
8.750000e+01
8.750000e+01
8.750000e+01
8.750000e+01
8.750000e+01
8.750000e+01
8.750000e+01
1.000000e+02
1.000000e+02
1.000000e+02
1.000000e+02
1.000000e+02
1.000000e+02
1.000000e+02
1.000000e+02
1.000000e+02
1.000000e+02
1.000000e+02
1.000000e+02
1.000000e+02
1.000000e+02
1.000000e+02
1.000000e+02
1.000000e+02
0.000000e+00
-8.663661e-01
-1.549408e+00
-2.223702e+00
-2.907724e+00
-3.569086e+00
-4.230214e+00
-4.893290e+00
-5.550309e+00
-6.205973e+00
-6.863376e+00
-7.514728e+00
-8.150563e+00
-8.774008e+00
-9.397735e+00
-1.003635e+01
-1.046780e+01
0.000000e+00
-4.586082e-01
-9.519522e-01
-1.448610e+00
-1.960676e+00
-2.455941e+00
-2.950127e+00
-3.445814e+00
-3.936082e+00
-4.422858e+00
-4.906297e+00
-5.375802e+00
-5.812743e+00
-6.189347e+00
-6.445774e+00
-6.505201e+00
-6.654301e+00
0.000000e+00
-2.406192e-01
-5.135010e-01
-8.310690e-01
-1.167772e+00
-1.500283e+00
-1.834865e+00
-2.169167e+00
-2.497984e+00
-2.818866e+00
-3.125082e+00
-3.401603e+00
-3.625387e+00
-3.764851e+00
-3.788141e+00
-3.757818e+00
-3.909828e+00
0.000000e+00
-1.035961e-01
-2.241616e-01
-3.732274e-01
-5.352829e-01
-7.028475e-01
-8.721840e-01
-1.039306e+00
-1.200572e+00
-1.350724e+00
-1.480784e+00
-1.577549e+00
-1.625345e+00
-1.613175e+00
-1.562404e+00
-1.567095e+00
-1.692950e+00
0.000000e+00
-7.871173e-04
-1.576432e-03
-2.204342e-03
-2.383309e-03
-1.603777e-03
1.022224e-03
6.916735e-03
1.836884e-02
3.911179e-02
7.457987e-02
1.308202e-01
2.106766e-01
3.043725e-01
3.747351e-01
3.705310e-01
2.774666e-01
0.000000e+00
1.022465e-01
2.214395e-01
3.693043e-01
5.308027e-01
6.993096e-01
8.724992e-01
1.048704e+00
1.228098e+00
1.411408e+00
1.598031e+00
1.784490e+00
1.961946e+00
2.111708e+00
2.204867e+00
2.218227e+00
2.167990e+00
0.000000e+00
2.399073e-01
5.119862e-01
8.286459e-01
1.164516e+00
1.496731e+00
1.831912e+00
2.168529e+00
2.503522e+00
2.836909e+00
3.162983e+00
3.467325e+00
3.730941e+00
3.934068e+00
4.059280e+00
4.101310e+00
4.089752e+00
0.000000e+00
4.586748e-01
9.519969e-01
1.448405e+00
1.959945e+00
2.454462e+00
2.946821e+00
3.438658e+00
3.923581e+00
4.401804e+00
4.863632e+00
5.282193e+00
5.626891e+00
5.877603e+00
6.029719e+00
6.095002e+00
6.107137e+00
0.000000e+00
8.670178e-01
1.550930e+00
2.226153e+00
2.911057e+00
3.573197e+00
4.233813e+00
4.893581e+00
5.544241e+00
6.185098e+00
6.798405e+00
7.340964e+00
7.765858e+00
8.045140e+00
8.181198e+00
8.214063e+00
8.212966e+00
0.000000e+00
-5.351648e-01
-1.118737e+00
-1.893517e+00
-2.836575e+00
-3.946426e+00
-5.231785e+00
-6.690880e+00
-8.322261e+00
-1.012777e+01
-1.210632e+01
-1.425300e+01
-1.656471e+01
-1.904952e+01
-2.176574e+01
-2.492653e+01
-2.957475e+01
0.000000e+00
-3.411092e-01
-9.512306e-01
-1.716323e+00
-2.661141e+00
-3.773739e+00
-5.058680e+00
-6.518752e+00
-8.151915e+00
-9.958537e+00
-1.193971e+01
-1.409315e+01
-1.641636e+01
-1.892126e+01
-2.166029e+01
-2.482137e+01
-2.869735e+01
0.000000e+00
-2.851745e-01
-8.422661e-01
-1.599328e+00
-2.539026e+00
-3.651117e+00
-4.936832e+00
-6.398739e+00
-8.035290e+00
-9.847462e+00
-1.183777e+01
-1.400573e+01
-1.635122e+01
-1.888783e+01
-2.164691e+01
-2.463404e+01
-2.746095e+01
0.000000e+00
-2.871416e-01
-8.045579e-01
-1.540498e+00
-2.470283e+00
-3.579692e+00
-4.866795e+00
-6.331809e+00
-7.974345e+00
-9.796661e+00
-1.180154e+01
-1.398798e+01
-1.635265e+01
-1.889433e+01
-2.158962e+01
-2.429667e+01
-2.668473e+01
0.000000e+00
-2.926217e-01
-7.991642e-01
-1.525103e+00
-2.449990e+00
-3.558888e+00
-4.848312e+00
-6.317329e+00
-7.966555e+00
-9.799292e+00
-1.181781e+01
-1.401756e+01
-1.638492e+01
-1.889292e+01
-2.147164e+01
-2.396918e+01
-2.614424e+01
0.000000e+00
-2.870205e-01
-8.049218e-01
-1.542012e+00
-2.473849e+00
-3.586703e+00
-4.879134e+00
-6.351796e+00
-8.005563e+00
-9.844589e+00
-1.187078e+01
-1.407435e+01
-1.642844e+01
-1.888389e+01
-2.135674e+01
-2.372014e+01
-2.581190e+01
0.000000e+00
-2.849497e-01
-8.428050e-01
-1.601687e+00
-2.544697e+00
-3.662386e+00
-4.956850e+00
-6.431466e+00
-8.086808e+00
-9.927170e+00
-1.195393e+01
-1.415227e+01
-1.648463e+01
-1.888985e+01
-2.128401e+01
-2.357089e+01
-2.566078e+01
0.000000e+00
-3.408867e-01
-9.518001e-01
-1.718881e+00
-2.667424e+00
-3.786276e+00
-5.080973e+00
-6.555491e+00
-8.210214e+00
-1.004866e+01
-1.206981e+01
-1.425470e+01
-1.656091e+01
-1.892421e+01
-2.126497e+01
-2.350798e+01
-2.562591e+01
0.000000e+00
-5.351162e-01
-1.119457e+00
-1.896229e+00
-2.843057e+00
-3.959119e+00
-5.253891e+00
-6.727113e+00
-8.379689e+00
-1.021441e+01
-1.222448e+01
-1.438628e+01
-1.665798e+01
-1.897990e+01
-2.128020e+01
-2.349626e+01
-2.562692e+01


0.000000e+00
1.227521e-05
2.276756e-05
3.345463e-05
4.581737e-05
5.777151e-05
6.891882e-05
7.976118e-05
9.014213e-05
9.958390e-05
1.074480e-04
1.132052e-04
1.170699e-04
1.199140e-04
1.223550e-04
1.252839e-04
1.287623e-04
0.000000e+00
9.049936e-06
1.836978e-05
2.633955e-05
3.598197e-05
4.524630e-05
5.351139e-05
6.156234e-05
6.934498e-05
7.628109e-05
8.175975e-05
8.532038e-05
8.703631e-05
8.734888e-05
8.750841e-05
8.989571e-05
9.388348e-05
0.000000e+00
6.984084e-06
1.340009e-05
1.889241e-05
2.539885e-05
3.147304e-05
3.691494e-05
4.214620e-05
4.702405e-05
5.117694e-05
5.426758e-05
5.607190e-05
5.667357e-05
5.654038e-05
5.674020e-05
5.899465e-05
6.282808e-05
0.000000e+00
3.534675e-06
6.309564e-06
9.575553e-06
1.268054e-05
1.555253e-05
1.831232e-05
2.085795e-05
2.306894e-05
2.486867e-05
2.614832e-05
2.686802e-05
2.717799e-05
2.744559e-05
2.810164e-05
2.973857e-05
3.229753e-05
0.000000e+00
-1.470808e-08
-3.081032e-08
-4.662287e-08
-6.160692e-08
-7.698425e-08
-9.456967e-08
-1.242445e-07
-1.947455e-07
-3.462312e-07
-5.766742e-07
-8.028007e-07
-8.746992e-07
-6.261975e-07
-1.196356e-07
5.567081e-07
1.710954e-06
0.000000e+00
-3.561249e-06
-6.362787e-06
-9.657068e-06
-1.278985e-05
-1.568707e-05
-1.846550e-05
-2.102879e-05
-2.330574e-05
-2.526306e-05
-2.680375e-05
-2.784629e-05
-2.836902e-05
-2.848333e-05
-2.847982e-05
-2.846195e-05
-2.811589e-05
0.000000e+00
-6.998716e-06
-1.343061e-05
-1.894530e-05
-2.548473e-05
-3.158320e-05
-3.702577e-05
-4.226232e-05
-4.712547e-05
-5.110948e-05
-5.388134e-05
-5.550887e-05
-5.635770e-05
-5.679932e-05
-5.708995e-05
-5.727283e-05
-5.722039e-05
0.000000e+00
-9.051126e-06
-1.837093e-05
-2.634555e-05
-3.600953e-05
-4.528564e-05
-5.353202e-05
-6.160345e-05
-6.940334e-05
-7.599552e-05
-8.060223e-05
-8.327948e-05
-8.472873e-05
-8.555403e-05
-8.604986e-05
-8.630216e-05
-8.634755e-05
0.000000e+00
-1.227261e-05
-2.274824e-05
-3.341327e-05
-4.575773e-05
-5.768249e-05
-6.877401e-05
-7.959190e-05
-8.996632e-05
-9.906281e-05
-1.059704e-04
-1.105084e-04
-1.132137e-04
-1.147210e-04
-1.154675e-04
-1.157293e-04
-1.157671e-04
0.000000e+00
1.053373e-05
1.772086e-05
2.726666e-05
4.000750e-05
5.476225e-05
7.232301e-05
9.302625e-05
1.163039e-04
1.416350e-04
1.685386e-04
1.966550e-04
2.260387e-04
2.573528e-04
2.932539e-04
3.350356e-04
3.774475e-04
0.000000e+00
5.697206e-06
1.336948e-05
2.220075e-05
3.447007e-05
4.958496e-05
6.745759e-05
8.829012e-05
1.118773e-04
1.378349e-04
1.656849e-04
1.948744e-04
2.251088e-04
2.567127e-04
2.907696e-04
3.300498e-04
3.712697e-04
0.000000e+00
2.613829e-06
9.597673e-06
1.844600e-05
3.038005e-05
4.576877e-05
6.399317e-05
8.500339e-05
1.088714e-04
1.353349e-04
1.638714e-04
1.938293e-04
2.247203e-04
2.561523e-04
2.877642e-04
3.237057e-04
3.628326e-04
0.000000e+00
1.535931e-06
7.722581e-06
1.671509e-05
2.873743e-05
4.415531e-05
6.251752e-05
8.371432e-05
1.077672e-04
1.344344e-04
1.631958e-04
1.933910e-04
2.244092e-04
2.555224e-04
2.857235e-04
3.186894e-04
3.549639e-04
0.000000e+00
1.292979e-06
7.163707e-06
1.613185e-05
2.829182e-05
4.366684e-05
6.205625e-05
8.335513e-05
1.075185e-04
1.342869e-04
1.631106e-04
1.932968e-04
2.241793e-04
2.550387e-04
2.851477e-04
3.164151e-04
3.495338e-04
0.000000e+00
1.539740e-06
7.721378e-06
1.669979e-05
2.870616e-05
4.410954e-05
6.245718e-05
8.367524e-05
1.078527e-04
1.347142e-04
1.635798e-04
1.936654e-04
2.243111e-04
2.549386e-04
2.852586e-04
3.158331e-04
3.466501e-04
0.000000e+00
2.620188e-06
9.596779e-06
1.842423e-05
3.033370e-05
4.569777e-05
6.389305e-05
8.493785e-05
1.090250e-04
1.358371e-04
1.645887e-04
1.944258e-04
2.247429e-04
2.551397e-04
2.854047e-04
3.156049e-04
3.454284e-04
0.000000e+00
5.705552e-06
1.337306e-05
2.218783e-05
3.443274e-05
4.951202e-05
6.735379e-05
8.823496e-05
1.120279e-04
1.382737e-04
1.663035e-04
1.954639e-04
2.252890e-04
2.554005e-04
2.855189e-04
3.154789e-04
3.450725e-04
0.000000e+00
1.054296e-05
1.772588e-05
2.726216e-05
3.998317e-05
5.469259e-05
7.222429e-05
9.299840e-05
1.164092e-04
1.417764e-04
1.686349e-04
1.967758e-04
2.259521e-04
2.557141e-04
2.856448e-04
3.154637e-04
3.450292e-04


2.372067e+00
2.273524e+00
2.393200e+00
2.551509e+00
2.674257e+00
2.942620e+00
3.264449e+00
3.629208e+00
4.112941e+00
4.696229e+00
5.264750e+00
5.699229e+00
5.894630e+00
5.619754e+00
4.836191e+00
4.172927e+00
3.498042e+00
3.401341e+00
3.454028e+00
3.542845e+00
3.611926e+00
3.796912e+00
4.024076e+00
4.283392e+00
4.635994e+00
5.069648e+00
5.497006e+00
5.821183e+00
5.934973e+00
5.581953e+00
4.750137e+00
4.044871e+00
5.012328e+00
4.951583e+00
4.954716e+00
4.964385e+00
4.973489e+00
5.049213e+00
5.141033e+00
5.247032e+00
5.402569e+00
5.605124e+00
5.811582e+00
5.968068e+00
5.993925e+00
5.669552e+00
4.972754e+00
4.419970e+00
5.876312e+00
5.844963e+00
5.828722e+00
5.800682e+00
5.789501e+00
5.800457e+00
5.810953e+00
5.822580e+00
5.850464e+00
5.898960e+00
5.957598e+00
6.009318e+00
6.013761e+00
5.842553e+00
5.477418e+00
5.188344e+00
5.876222e+00
5.844681e+00
5.827986e+00
5.799218e+00
5.786894e+00
5.795185e+00
5.800317e+00
5.804992e+00
5.826329e+00
5.868069e+00
5.920338e+00
5.974605e+00
6.016377e+00
5.991940e+00
5.885092e+00
5.793872e+00
5.011815e+00
4.950512e+00
4.952258e+00
4.960073e+00
4.966700e+00
5.036376e+00
5.117638e+00
5.216379e+00
5.372904e+00
5.573629e+00
5.767148e+00
5.921129e+00
6.032967e+00
6.096856e+00
6.112704e+00
6.109632e+00
3.496846e+00
3.399439e+00
3.450400e+00
3.537475e+00
3.605294e+00
3.786409e+00
4.010766e+00
4.286815e+00
4.679418e+00
5.142481e+00
5.559756e+00
5.861689e+00
6.052536e+00
6.163283e+00
6.219816e+00
6.241762e+00
2.370398e+00
2.271364e+00
2.389614e+00
2.547128e+00
2.671076e+00
2.940384e+00
3.270533e+00
3.676505e+00
4.235512e+00
4.875553e+00
5.437889e+00
5.832128e+00
6.068214e+00
6.196942e+00
6.261046e+00
6.287186e+00


-5.453259e-01
-2.232063e-01
-2.023110e-01
-2.540464e-01
-1.760406e-01
-1.744828e-01
-1.828038e-01
-1.617706e-01
-1.534091e-01
-1.496320e-01
-1.063773e-01
-6.742918e-03
1.355642e-01
3.320759e-01
5.651662e-01
-5.542375e-01
5.311722e-01
4.032662e-01
3.439062e-01
2.904048e-01
3.165938e-01
3.064332e-01
2.935109e-01
2.992877e-01
3.075279e-01
3.306831e-01
4.001900e-01
5.301015e-01
7.051202e-01
8.677759e-01
7.529698e-01
-1.277238e+00
8.282036e-01
7.095186e-01
6.014736e-01
5.524210e-01
5.417299e-01
5.252565e-01
5.142750e-01
5.135608e-01
5.194377e-01
5.386763e-01
5.806069e-01
6.354843e-01
6.544710e-01
5.486818e-01
2.377234e-01
-3.109018e-01
9.029110e-01
7.991082e-01
6.899331e-01
6.282922e-01
6.018325e-01
5.881830e-01
5.801497e-01
5.738970e-01
5.629424e-01
5.426505e-01
5.096049e-01
4.509171e-01
3.408558e-01
1.955010e-01
1.518345e-01
1.901667e-01
9.035379e-01
7.997915e-01
6.903404e-01
6.273654e-01
5.978778e-01
5.787063e-01
5.614068e-01
5.394566e-01
5.023971e-01
4.431699e-01
3.628592e-01
2.695737e-01
1.877607e-01
1.896074e-01
3.483524e-01
6.036673e-01
8.297062e-01
7.112259e-01
6.028215e-01
5.514950e-01
5.352373e-01
5.083363e-01
4.789134e-01
4.453188e-01
3.955106e-01
3.321388e-01
2.724786e-01
2.409577e-01
2.729729e-01
4.073154e-01
6.329844e-01
8.691063e-01
5.323041e-01
4.046028e-01
3.453662e-01
2.911965e-01
3.147213e-01
3.003829e-01
2.792351e-01
2.653808e-01
2.396330e-01
2.222874e-01
2.532956e-01
3.457745e-01
4.908022e-01
6.758371e-01
8.600931e-01
9.770822e-01
-5.466114e-01
-2.249087e-01
-2.037190e-01
-2.549986e-01
-1.766102e-01
-1.710059e-01
-1.712266e-01
-1.442805e-01
-1.187305e-01
-4.397458e-02
1.478627e-01
4.288474e-01
7.010958e-01
8.890786e-01
9.782833e-01
9.995725e-01
1 2 19 18
2 3 20 19
3 4 21 20
4 5 22 21
5 6 23 22
6 7 24 23
7 8 25 24
8 9 26 25
9 10 27 26
10 11 28 27
11 12 29 28
12 13 30 29
13 14 31 30
14 15 32 31
15 16 33 32
16 17 34 33
18 19 36 35
19 20 37 36
20 21 38 37
21 22 39 38
22 23 40 39
23 24 41 40
24 25 42 41
25 26 43 42
26 27 44 43
27 28 45 44
28 29 46 45
29 30 47 46
30 31 48 47
31 32 49 48
32 33 50 49
33 34 51 50
35 36 53 52
36 37 54 53
37 38 55 54
38 39 56 55
39 40 57 56
40 41 58 57
41 42 59 58
42 43 60 59
43 44 61 60
44 45 62 61
45 46 63 62
46 47 64 63
47 48 65 64
48 49 66 65
49 50 67 66
50 51 68 67
52 53 70 69
53 54 71 70
54 55 72 71
55 56 73 72
56 57 74 73
57 58 75 74
58 59 76 75
59 60 77 76
60 61 78 77
61 62 79 78
62 63 80 79
63 64 81 80
64 65 82 81
65 66 83 82
66 67 84 83
67 68 85 84
69 70 87 86
70 71 88 87
71 72 89 88
72 73 90 89
73 74 91 90
74 75 92 91
75 76 93 92
76 77 94 93
77 78 95 94
78 79 96 95
79 80 97 96
80 81 98 97
81 82 99 98
82 83 100 99
83 84 101 100
84 85 102 101
86 87 104 103
87 88 105 104
88 89 106 105
89 90 107 106
90 91 108 107
91 92 109 108
92 93 110 109
93 94 111 110
94 95 112 111
95 96 113 112
96 97 114 113
97 98 115 114
98 99 116 115
99 100 117 116
100 101 118 117
101 102 119 118
103 104 121 120
104 105 122 121
105 106 123 122
106 107 124 123
107 108 125 124
108 109 126 125
109 110 127 126
110 111 128 127
111 112 129 128
112 113 130 129
113 114 131 130
114 115 132 131
115 116 133 132
116 117 134 133
117 118 135 134
118 119 136 135
120 121 138 137
121 122 139 138
122 123 140 139
123 124 141 140
124 125 142 141
125 126 143 142
126 127 144 143
127 128 145 144
128 129 146 145
129 130 147 146
130 131 148 147
131 132 149 148
132 133 150 149
133 134 151 150
134 135 152 151
135 136 153 152
