TITLE = "Solution"
VARIABLES = x, y, u, v, psiu, psiv, t, stress
ZONE T="structure" N=153 E=128 F=FEBLOCK ET=QUADRILATERAL VARLOCATION=([7,8]=cellcentered)
0.000000e+00
1.250000e+01
2.500000e+01
3.750000e+01
5.000000e+01
6.250000e+01
7.500000e+01
8.750000e+01
1.000000e+02
1.125000e+02
1.250000e+02
1.375000e+02
1.500000e+02
1.625000e+02
1.750000e+02
1.875000e+02
2.000000e+02
0.000000e+00
1.250000e+01
2.500000e+01
3.750000e+01
5.000000e+01
6.250000e+01
7.500000e+01
8.750000e+01
1.000000e+02
1.125000e+02
1.250000e+02
1.375000e+02
1.500000e+02
1.625000e+02
1.750000e+02
1.875000e+02
2.000000e+02
0.000000e+00
1.250000e+01
2.500000e+01
3.750000e+01
5.000000e+01
6.250000e+01
7.500000e+01
8.750000e+01
1.000000e+02
1.125000e+02
1.250000e+02
1.375000e+02
1.500000e+02
1.625000e+02
1.750000e+02
1.875000e+02
2.000000e+02
0.000000e+00
1.250000e+01
2.500000e+01
3.750000e+01
5.000000e+01
6.250000e+01
7.500000e+01
8.750000e+01
1.000000e+02
1.125000e+02
1.250000e+02
1.375000e+02
1.500000e+02
1.625000e+02
1.750000e+02
1.875000e+02
2.000000e+02
0.000000e+00
1.250000e+01
2.500000e+01
3.750000e+01
5.000000e+01
6.250000e+01
7.500000e+01
8.750000e+01
1.000000e+02
1.125000e+02
1.250000e+02
1.375000e+02
1.500000e+02
1.625000e+02
1.750000e+02
1.875000e+02
2.000000e+02
0.000000e+00
1.250000e+01
2.500000e+01
3.750000e+01
5.000000e+01
6.250000e+01
7.500000e+01
8.750000e+01
1.000000e+02
1.125000e+02
1.250000e+02
1.375000e+02
1.500000e+02
1.625000e+02
1.750000e+02
1.875000e+02
2.000000e+02
0.000000e+00
1.250000e+01
2.500000e+01
3.750000e+01
5.000000e+01
6.250000e+01
7.500000e+01
8.750000e+01
1.000000e+02
1.125000e+02
1.250000e+02
1.375000e+02
1.500000e+02
1.625000e+02
1.750000e+02
1.875000e+02
2.000000e+02
0.000000e+00
1.250000e+01
2.500000e+01
3.750000e+01
5.000000e+01
6.250000e+01
7.500000e+01
8.750000e+01
1.000000e+02
1.125000e+02
1.250000e+02
1.375000e+02
1.500000e+02
1.625000e+02
1.750000e+02
1.875000e+02
2.000000e+02
0.000000e+00
1.250000e+01
2.500000e+01
3.750000e+01
5.000000e+01
6.250000e+01
7.500000e+01
8.750000e+01
1.000000e+02
1.125000e+02
1.250000e+02
1.375000e+02
1.500000e+02
1.625000e+02
1.750000e+02
1.875000e+02
2.000000e+02
0.000000e+00
0.000000e+00
0.000000e+00
0.000000e+00
0.000000e+00
0.000000e+00
0.000000e+00
0.000000e+00
0.000000e+00
0.000000e+00
0.000000e+00
0.000000e+00
0.000000e+00
0.000000e+00
0.000000e+00
0.000000e+00
0.000000e+00
1.250000e+01
1.250000e+01
1.250000e+01
1.250000e+01
1.250000e+01
1.250000e+01
1.250000e+01
1.250000e+01
1.250000e+01
1.250000e+01
1.250000e+01
1.250000e+01
1.250000e+01
1.250000e+01
1.250000e+01
1.250000e+01
1.250000e+01
2.500000e+01
2.500000e+01
2.500000e+01
2.500000e+01
2.500000e+01
2.500000e+01
2.500000e+01
2.500000e+01
2.500000e+01
2.500000e+01
2.500000e+01
2.500000e+01
2.500000e+01
2.500000e+01
2.500000e+01
2.500000e+01
2.500000e+01
3.750000e+01
3.750000e+01
3.750000e+01
3.750000e+01
3.750000e+01
3.750000e+01
3.750000e+01
3.750000e+01
3.750000e+01
3.750000e+01
3.750000e+01
3.750000e+01
3.750000e+01
3.750000e+01
3.750000e+01
3.750000e+01
3.750000e+01
5.000000e+01
5.000000e+01
5.000000e+01
5.000000e+01
5.000000e+01
5.000000e+01
5.000000e+01
5.000000e+01
5.000000e+01
5.000000e+01
5.000000e+01
5.000000e+01
5.000000e+01
5.000000e+01
5.000000e+01
5.000000e+01
5.000000e+01
6.250000e+01
6.250000e+01
6.250000e+01
6.250000e+01
6.250000e+01
6.250000e+01
6.250000e+01
6.250000e+01
6.250000e+01
6.250000e+01
6.250000e+01
6.250000e+01
6.250000e+01
6.250000e+01
6.250000e+01
6.250000e+01
6.250000e+01
7.500000e+01
7.500000e+01
7.500000e+01
7.500000e+01
7.500000e+01
7.500000e+01
7.500000e+01
7.500000e+01
7.500000e+01
7.500000e+01
7.500000e+01
7.500000e+01
7.500000e+01
7.500000e+01
7.500000e+01
7.500000e+01
7.500000e+01
8.750000e+01
8.750000e+01
8.750000e+01
8.750000e+01
8.750000e+01
8.750000e+01
8.750000e+01
8.750000e+01
8.750000e+01
8.750000e+01
8.750000e+01
8.750000e+01
8.750000e+01
8.750000e+01
8.750000e+01
8.750000e+01
8.750000e+01
1.000000e+02
1.000000e+02
1.000000e+02
1.000000e+02
1.000000e+02
1.000000e+02
1.000000e+02
1.000000e+02
1.000000e+02
1.000000e+02
1.000000e+02
1.000000e+02
1.000000e+02
1.000000e+02
1.000000e+02
1.000000e+02
1.000000e+02
0.000000e+00
-7.689793e-01
-1.411586e+00
-2.025310e+00
-2.636859e+00
-3.234706e+00
-3.809859e+00
-4.355381e+00
-4.864337e+00
-5.331433e+00
-5.755085e+00
-6.139106e+00
-6.494785e+00
-6.844394e+00
-7.226768e+00
-7.687635e+00
-8.029468e+00
0.000000e+00
-4.443605e-01
-9.267564e-01
-1.391571e+00
-1.852011e+00
-2.301036e+00
-2.732503e+00
-3.141660e+00
-3.523316e+00
-3.872806e+00
-4.187118e+00
-4.465087e+00
-4.706234e+00
-4.906394e+00
-5.046668e+00
-5.077479e+00
-5.184275e+00
0.000000e+00
-2.682569e-01
-5.583245e-01
-8.656502e-01
-1.173637e+00
-1.473973e+00
-1.762007e+00
-2.033975e+00
-2.285710e+00
-2.512835e+00
-2.710882e+00
-2.874719e+00
-2.996954e+00
-3.065872e+00
-3.068736e+00
-3.042684e+00
-3.152173e+00
0.000000e+00
-1.264743e-01
-2.653260e-01
-4.153572e-01
-5.691527e-01
-7.195173e-01
-8.632049e-01
-9.975023e-01
-1.119351e+00
-1.225100e+00
-1.310329e+00
-1.369720e+00
-1.397526e+00
-1.390928e+00
-1.363969e+00
-1.370880e+00
-1.453289e+00
0.000000e+00
-2.922374e-04
-6.331241e-04
-9.685416e-04
-1.191245e-03
-1.065025e-03
-1.178244e-04
2.505529e-03
8.219000e-03
1.913786e-02
3.802740e-02
6.767587e-02
1.088763e-01
1.555897e-01
1.881201e-01
1.799885e-01
1.248631e-01
0.000000e+00
1.259878e-01
2.642584e-01
4.136907e-01
5.670260e-01
7.174325e-01
8.623897e-01
1.000507e+00
1.130936e+00
1.253392e+00
1.368012e+00
1.474539e+00
1.570355e+00
1.647653e+00
1.693395e+00
1.697363e+00
1.669218e+00
0.000000e+00
2.680339e-01
5.578035e-01
8.647650e-01
1.172365e+00
1.472392e+00
1.760384e+00
2.032896e+00
2.286300e+00
2.517121e+00
2.722335e+00
2.899077e+00
3.043749e+00
3.151254e+00
3.215982e+00
3.237088e+00
3.230538e+00
0.000000e+00
4.444684e-01
9.269490e-01
1.391833e+00
1.852310e+00
2.301209e+00
2.732034e+00
3.139212e+00
3.515992e+00
3.855154e+00
4.150010e+00
4.394884e+00
4.585511e+00
4.719959e+00
4.800332e+00
4.834638e+00
4.840950e+00
0.000000e+00
7.692477e-01
1.412341e+00
2.026769e+00
2.639298e+00
3.238319e+00
3.814377e+00
4.359186e+00
4.862847e+00
5.314571e+00
5.703667e+00
6.020096e+00
6.255599e+00
6.406642e+00
6.479761e+00
6.497761e+00
6.497383e+00
0.000000e+00
-4.694493e-01
-9.434220e-01
-1.568167e+00
-2.342503e+00
-3.267859e+00
-4.340623e+00
-5.553836e+00
-6.897560e+00
-8.360246e+00
-9.930058e+00
-1.159699e+01
-1.335696e+01
-1.522064e+01
-1.724263e+01
-1.959450e+01
-2.308132e+01
0.000000e+00
-2.914460e-01
-7.840089e-01
-1.406944e+00
-2.183605e+00
-3.113828e+00
-4.193636e+00
-5.415757e+00
-6.770197e+00
-8.244898e+00
-9.827168e+00
-1.150600e+01
-1.327631e+01
-1.514859e+01
-1.717122e+01
-1.950866e+01
-2.242533e+01
0.000000e+00
-2.258901e-01
-6.747869e-01
-1.294095e+00
-2.070930e+00
-3.004708e+00
-4.090009e+00
-5.319325e+00
-6.682694e+00
-8.168108e+00
-9.762879e+00
-1.145612e+01
-1.324306e+01
-1.513248e+01
-1.715802e+01
-1.935952e+01
-2.147784e+01
0.000000e+00
-2.036570e-01
-6.232489e-01
-1.229281e+00
-2.004765e+00
-2.940558e+00
-4.029938e+00
-5.264976e+00
-6.635866e+00
-8.130906e+00
-9.737594e+00
-1.144465e+01
-1.324480e+01
-1.513672e+01
-1.711612e+01
-1.911649e+01
-2.093324e+01
0.000000e+00
-1.987127e-01
-6.085807e-01
-1.209167e+00
-1.983406e+00
-2.920397e+00
-4.012213e+00
-5.251038e+00
-6.627321e+00
-8.129578e+00
-9.744948e+00
-1.146018e+01
-1.326211e+01
-1.513465e+01
-1.704384e+01
-1.891205e+01
-2.060603e+01
0.000000e+00
-2.034866e-01
-6.231420e-01
-1.229509e+00
-2.005777e+00
-2.943139e+00
-4.035391e+00
-5.275278e+00
-6.653662e+00
-8.159048e+00
-9.777651e+00
-1.149330e+01
-1.328625e+01
-1.512905e+01
-1.697917e+01
-1.877198e+01
-2.042237e+01
0.000000e+00
-2.256078e-01
-6.745990e-01
-1.294448e+00
-2.072582e+00
-3.008991e+00
-4.099136e+00
-5.336667e+00
-6.712781e+00
-8.215865e+00
-9.831202e+00
-1.154014e+01
-1.331823e+01
-1.513253e+01
-1.694013e+01
-1.869195e+01
-2.034104e+01
0.000000e+00
-2.911616e-01
-7.838082e-01
-1.407352e+00
-2.185511e+00
-3.118773e+00
-4.204154e+00
-5.435674e+00
-6.804603e+00
-8.299230e+00
-9.904425e+00
-1.160043e+01
-1.336091e+01
-1.515133e+01
-1.693029e+01
-1.865877e+01
-2.032199e+01
0.000000e+00
-4.692564e-01
-9.433250e-01
-1.568729e+00
-2.344637e+00
-3.273092e+00
-4.351375e+00
-5.573600e+00
-6.930712e+00
-8.410921e+00
-9.999121e+00
-1.167556e+01
-1.341413e+01
-1.518131e+01
-1.693857e+01
-1.865269e+01
-2.032232e+01


0.000000e+00
6.128465e-06
1.242009e-05
1.802388e-05
2.305880e-05
2.742392e-05
3.099370e-05
3.375734e-05
3.579751e-05
3.724314e-05
3.823372e-05
3.890020e-05
3.936023e-05
3.972047e-05
4.007655e-05
4.056683e-05
4.120084e-05
0.000000e+00
4.457357e-06
9.946842e-06
1.424978e-05
1.799788e-05
2.122244e-05
2.381922e-05
2.577990e-05
2.718494e-05
2.814587e-05
2.877294e-05
2.915923e-05
2.937060e-05
2.945369e-05
2.954376e-05
2.993986e-05
3.058953e-05
0.000000e+00
3.285243e-06
6.832236e-06
9.731491e-06
1.226960e-05
1.439598e-05
1.608525e-05
1.734719e-05
1.823482e-05
1.881936e-05
1.917325e-05
1.935938e-05
1.942933e-05
1.944416e-05
1.951983e-05
1.983542e-05
2.035364e-05
0.000000e+00
1.640325e-06
3.193519e-06
4.717862e-06
6.031797e-06
7.108188e-06
7.957503e-06
8.594501e-06
9.040105e-06
9.324764e-06
9.484623e-06
9.557656e-06
9.585701e-06
9.618627e-06
9.700689e-06
9.885058e-06
1.018511e-05
0.000000e+00
-3.104275e-09
-6.635255e-09
-1.061023e-08
-1.548286e-08
-2.202883e-08
-3.145442e-08
-4.511496e-08
-6.404802e-08
-8.813699e-08
-1.146843e-07
-1.362850e-07
-1.397229e-07
-1.128462e-07
-6.085689e-08
1.841245e-08
1.592227e-07
0.000000e+00
-1.646133e-06
-3.205413e-06
-4.737166e-06
-6.059910e-06
-7.147450e-06
-8.011581e-06
-8.668722e-06
-9.141416e-06
-9.460919e-06
-9.661787e-06
-9.775034e-06
-9.825539e-06
-9.836310e-06
-9.833236e-06
-9.819035e-06
-9.764237e-06
0.000000e+00
-3.289070e-06
-6.841226e-06
-9.747126e-06
-1.229386e-05
-1.442944e-05
-1.612676e-05
-1.739419e-05
-1.828505e-05
-1.887311e-05
-1.923580e-05
-1.944334e-05
-1.955339e-05
-1.961040e-05
-1.964397e-05
-1.965879e-05
-1.964444e-05
0.000000e+00
-4.459228e-06
-9.952932e-06
-1.426154e-05
-1.801792e-05
-2.125031e-05
-2.384955e-05
-2.580279e-05
-2.718902e-05
-2.812249e-05
-2.872003e-05
-2.908517e-05
-2.930026e-05
-2.942458e-05
-2.949532e-05
-2.952907e-05
-2.953410e-05
0.000000e+00
-6.132100e-06
-1.242597e-05
-1.803299e-05
-2.307252e-05
-2.744056e-05
-3.100607e-05
-3.375316e-05
-3.576238e-05
-3.716407e-05
-3.810045e-05
-3.870180e-05
-3.907362e-05
-3.929257e-05
-3.940835e-05
-3.945297e-05
-3.946068e-05
0.000000e+00
5.447425e-06
9.440733e-06
1.389208e-05
1.950003e-05
2.613746e-05
3.363999e-05
4.186474e-05
5.066359e-05
5.989501e-05
6.943938e-05
7.920917e-05
8.916256e-05
9.936462e-05
1.101666e-04
1.218170e-04
1.336925e-04
0.000000e+00
2.775258e-06
6.833517e-06
1.151970e-05
1.739562e-05
2.436969e-05
3.225417e-05
4.083908e-05
4.994176e-05
5.940973e-05
6.912710e-05
7.901658e-05
8.904498e-05
9.924502e-05
1.097701e-04
1.209984e-04
1.326231e-04
0.000000e+00
1.226196e-06
4.822895e-06
9.771696e-06
1.586777e-05
2.309798e-05
3.125459e-05
4.009942e-05
4.942501e-05
5.907051e-05
6.892105e-05
7.890514e-05
8.898850e-05
9.915025e-05
1.093809e-04
1.201398e-04
1.313791e-04
0.000000e+00
7.139806e-07
3.945151e-06
8.904030e-06
1.513863e-05
2.249689e-05
3.077224e-05
3.973258e-05
4.916547e-05
5.890296e-05
6.882575e-05
7.885842e-05
8.895423e-05
9.906269e-05
1.091544e-04
1.195678e-04
1.303418e-04
0.000000e+00
6.149144e-07
3.714651e-06
8.626257e-06
1.491344e-05
2.231437e-05
3.062540e-05
3.962073e-05
4.908880e-05
5.885820e-05
6.880538e-05
7.884889e-05
8.893361e-05
9.901172e-05
1.090665e-04
1.192834e-04
1.296507e-04
0.000000e+00
7.147292e-07
3.945535e-06
8.903648e-06
1.513796e-05
2.249781e-05
3.077757e-05
3.974527e-05
4.918766e-05
5.893462e-05
6.886207e-05
7.888542e-05
8.894745e-05
9.900818e-05
1.090588e-04
1.191649e-04
1.292748e-04
0.000000e+00
1.227373e-06
4.823784e-06
9.771767e-06
1.586788e-05
2.310152e-05
3.126654e-05
4.012507e-05
4.946840e-05
5.913224e-05
6.899432e-05
7.896819e-05
8.899458e-05
9.903492e-05
1.090728e-04
1.191140e-04
1.291055e-04
0.000000e+00
2.777684e-06
6.837026e-06
1.152360e-05
1.740096e-05
2.437934e-05
3.227270e-05
4.087176e-05
4.999332e-05
5.948198e-05
6.921463e-05
7.909862e-05
8.906690e-05
9.907343e-05
1.090893e-04
1.190932e-04
1.290502e-04
0.000000e+00
5.452391e-06
9.447923e-06
1.390160e-05
1.951248e-05
2.615352e-05
3.366137e-05
4.189452e-05
5.070587e-05
5.995261e-05
6.950897e-05
7.927228e-05
8.916295e-05
9.912265e-05
1.091101e-04
1.190917e-04
1.290419e-04


2.093821e+00
2.089501e+00
2.199246e+00
2.380788e+00
2.542344e+00
2.692483e+00
2.833210e+00
2.954475e+00
3.049602e+00
3.118333e+00
3.164249e+00
3.191490e+00
3.198852e+00
3.170876e+00
3.111550e+00
3.066283e+00
2.344771e+00
2.336949e+00
2.416726e+00
2.556619e+00
2.682891e+00
2.801334e+00
2.913186e+00
3.009824e+00
3.085770e+00
3.140658e+00
3.177161e+00
3.198307e+00
3.201928e+00
3.172091e+00
3.113990e+00
3.070360e+00
2.746423e+00
2.736011e+00
2.774898e+00
2.847583e+00
2.914915e+00
2.981134e+00
3.044463e+00
3.099555e+00
3.143140e+00
3.174711e+00
3.195500e+00
3.206973e+00
3.206776e+00
3.182032e+00
3.136207e+00
3.103051e+00
3.020235e+00
3.011205e+00
3.021485e+00
3.046204e+00
3.074296e+00
3.104167e+00
3.133288e+00
3.158987e+00
3.179639e+00
3.194708e+00
3.204562e+00
3.209910e+00
3.209504e+00
3.196291e+00
3.171687e+00
3.154034e+00
3.020148e+00
3.011076e+00
3.021271e+00
3.045852e+00
3.073751e+00
3.103364e+00
3.132136e+00
3.157376e+00
3.177504e+00
3.192123e+00
3.201865e+00
3.207924e+00
3.210647e+00
3.207771e+00
3.199777e+00
3.193848e+00
2.746041e+00
2.735492e+00
2.774137e+00
2.846512e+00
2.913511e+00
2.979398e+00
3.042312e+00
3.096776e+00
3.139500e+00
3.170211e+00
3.190722e+00
3.203787e+00
3.211786e+00
3.215592e+00
3.216222e+00
3.215971e+00
2.343954e+00
2.335907e+00
2.415353e+00
2.554966e+00
2.681182e+00
2.799914e+00
2.912270e+00
3.009303e+00
3.085263e+00
3.139812e+00
3.176161e+00
3.198952e+00
3.212616e+00
3.220353e+00
3.224305e+00
3.225906e+00
2.092705e+00
2.088114e+00
2.197517e+00
2.378880e+00
2.540696e+00
2.691736e+00
2.833855e+00
2.956551e+00
3.052677e+00
3.121791e+00
3.167838e+00
3.196507e+00
3.213338e+00
3.222687e+00
3.227456e+00
3.229454e+00


-2.983620e-01
-1.120077e-01
-1.855936e-02
-7.221194e-03
3.850348e-02
1.099435e-01
1.985015e-01
3.016833e-01
4.125018e-01
5.203944e-01
6.152676e-01
6.895868e-01
7.391257e-01
7.624781e-01
7.835573e-01
6.640243e-02
5.348024e-01
4.334534e-01
4.366086e-01
4.399368e-01
4.619908e-01
4.976627e-01
5.431047e-01
5.983224e-01
6.614141e-01
7.287591e-01
7.967190e-01
8.623630e-01
9.219857e-01
9.623454e-01
8.711259e-01
-3.731519e-01
8.391066e-01
7.735342e-01
7.312439e-01
7.198311e-01
7.230754e-01
7.333846e-01
7.491198e-01
7.707055e-01
7.981809e-01
8.303108e-01
8.637903e-01
8.913201e-01
8.973405e-01
8.471078e-01
6.682913e-01
3.482158e-01
9.572090e-01
9.095326e-01
8.732246e-01
8.551491e-01
8.476110e-01
8.434882e-01
8.410291e-01
8.402634e-01
8.413074e-01
8.430906e-01
8.421126e-01
8.314838e-01
8.018164e-01
7.506937e-01
7.100493e-01
7.015155e-01
9.574892e-01
9.099041e-01
8.735851e-01
8.551982e-01
8.467672e-01
8.407356e-01
8.346987e-01
8.279013e-01
8.198192e-01
8.095333e-01
7.958087e-01
7.785223e-01
7.628486e-01
7.657223e-01
8.077085e-01
8.793808e-01
8.397281e-01
7.743854e-01
7.321249e-01
7.201701e-01
7.217556e-01
7.283975e-01
7.371225e-01
7.466777e-01
7.555656e-01
7.623125e-01
7.670354e-01
7.738208e-01
7.925179e-01
8.341707e-01
8.974140e-01
9.627887e-01
5.351744e-01
4.339915e-01
4.371581e-01
4.402650e-01
4.616080e-01
4.957498e-01
5.384071e-01
5.889446e-01
6.445872e-01
7.008959e-01
7.543627e-01
8.047203e-01
8.554960e-01
9.099359e-01
9.612111e-01
9.935248e-01
-2.989125e-01
-1.130724e-01
-1.997497e-02
-9.123709e-03
3.645226e-02
1.090191e-01
2.018286e-01
3.149701e-01
4.439733e-01
5.796165e-01
7.107495e-01
8.256854e-01
9.136713e-01
9.686973e-01
9.938658e-01
9.998711e-01
1 2 19 18
2 3 20 19
3 4 21 20
4 5 22 21
5 6 23 22
6 7 24 23
7 8 25 24
8 9 26 25
9 10 27 26
10 11 28 27
11 12 29 28
12 13 30 29
13 14 31 30
14 15 32 31
15 16 33 32
16 17 34 33
18 19 36 35
19 20 37 36
20 21 38 37
21 22 39 38
22 23 40 39
23 24 41 40
24 25 42 41
25 26 43 42
26 27 44 43
27 28 45 44
28 29 46 45
29 30 47 46
30 31 48 47
31 32 49 48
32 33 50 49
33 34 51 50
35 36 53 52
36 37 54 53
37 38 55 54
38 39 56 55
39 40 57 56
40 41 58 57
41 42 59 58
42 43 60 59
43 44 61 60
44 45 62 61
45 46 63 62
46 47 64 63
47 48 65 64
48 49 66 65
49 50 67 66
50 51 68 67
52 53 70 69
53 54 71 70
54 55 72 71
55 56 73 72
56 57 74 73
57 58 75 74
58 59 76 75
59 60 77 76
60 61 78 77
61 62 79 78
62 63 80 79
63 64 81 80
64 65 82 81
65 66 83 82
66 67 84 83
67 68 85 84
69 70 87 86
70 71 88 87
71 72 89 88
72 73 90 89
73 74 91 90
74 75 92 91
75 76 93 92
76 77 94 93
77 78 95 94
78 79 96 95
79 80 97 96
80 81 98 97
81 82 99 98
82 83 100 99
83 84 101 100
84 85 102 101
86 87 104 103
87 88 105 104
88 89 106 105
89 90 107 106
90 91 108 107
91 92 109 108
92 93 110 109
93 94 111 110
94 95 112 111
95 96 113 112
96 97 114 113
97 98 115 114
98 99 116 115
99 100 117 116
100 101 118 117
101 102 119 118
103 104 121 120
104 105 122 121
105 106 123 122
106 107 124 123
107 108 125 124
108 109 126 125
109 110 127 126
110 111 128 127
111 112 129 128
112 113 130 129
113 114 131 130
114 115 132 131
115 116 133 132
116 117 134 133
117 118 135 134
118 119 136 135
120 121 138 137
121 122 139 138
122 123 140 139
123 124 141 140
124 125 142 141
125 126 143 142
126 127 144 143
127 128 145 144
128 129 146 145
129 130 147 146
130 131 148 147
131 132 149 148
132 133 150 149
133 134 151 150
134 135 152 151
135 136 153 152
