TITLE = "Solution"
VARIABLES = x, y, u, v, psiu, psiv, t, stress
ZONE T="structure" N=153 E=128 F=FEBLOCK ET=QUADRILATERAL VARLOCATION=([7,8]=cellcentered)
0.000000e+00
1.250000e+01
2.500000e+01
3.750000e+01
5.000000e+01
6.250000e+01
7.500000e+01
8.750000e+01
1.000000e+02
1.125000e+02
1.250000e+02
1.375000e+02
1.500000e+02
1.625000e+02
1.750000e+02
1.875000e+02
2.000000e+02
0.000000e+00
1.250000e+01
2.500000e+01
3.750000e+01
5.000000e+01
6.250000e+01
7.500000e+01
8.750000e+01
1.000000e+02
1.125000e+02
1.250000e+02
1.375000e+02
1.500000e+02
1.625000e+02
1.750000e+02
1.875000e+02
2.000000e+02
0.000000e+00
1.250000e+01
2.500000e+01
3.750000e+01
5.000000e+01
6.250000e+01
7.500000e+01
8.750000e+01
1.000000e+02
1.125000e+02
1.250000e+02
1.375000e+02
1.500000e+02
1.625000e+02
1.750000e+02
1.875000e+02
2.000000e+02
0.000000e+00
1.250000e+01
2.500000e+01
3.750000e+01
5.000000e+01
6.250000e+01
7.500000e+01
8.750000e+01
1.000000e+02
1.125000e+02
1.250000e+02
1.375000e+02
1.500000e+02
1.625000e+02
1.750000e+02
1.875000e+02
2.000000e+02
0.000000e+00
1.250000e+01
2.500000e+01
3.750000e+01
5.000000e+01
6.250000e+01
7.500000e+01
8.750000e+01
1.000000e+02
1.125000e+02
1.250000e+02
1.375000e+02
1.500000e+02
1.625000e+02
1.750000e+02
1.875000e+02
2.000000e+02
0.000000e+00
1.250000e+01
2.500000e+01
3.750000e+01
5.000000e+01
6.250000e+01
7.500000e+01
8.750000e+01
1.000000e+02
1.125000e+02
1.250000e+02
1.375000e+02
1.500000e+02
1.625000e+02
1.750000e+02
1.875000e+02
2.000000e+02
0.000000e+00
1.250000e+01
2.500000e+01
3.750000e+01
5.000000e+01
6.250000e+01
7.500000e+01
8.750000e+01
1.000000e+02
1.125000e+02
1.250000e+02
1.375000e+02
1.500000e+02
1.625000e+02
1.750000e+02
1.875000e+02
2.000000e+02
0.000000e+00
1.250000e+01
2.500000e+01
3.750000e+01
5.000000e+01
6.250000e+01
7.500000e+01
8.750000e+01
1.000000e+02
1.125000e+02
1.250000e+02
1.375000e+02
1.500000e+02
1.625000e+02
1.750000e+02
1.875000e+02
2.000000e+02
0.000000e+00
1.250000e+01
2.500000e+01
3.750000e+01
5.000000e+01
6.250000e+01
7.500000e+01
8.750000e+01
1.000000e+02
1.125000e+02
1.250000e+02
1.375000e+02
1.500000e+02
1.625000e+02
1.750000e+02
1.875000e+02
2.000000e+02
0.000000e+00
0.000000e+00
0.000000e+00
0.000000e+00
0.000000e+00
0.000000e+00
0.000000e+00
0.000000e+00
0.000000e+00
0.000000e+00
0.000000e+00
0.000000e+00
0.000000e+00
0.000000e+00
0.000000e+00
0.000000e+00
0.000000e+00
1.250000e+01
1.250000e+01
1.250000e+01
1.250000e+01
1.250000e+01
1.250000e+01
1.250000e+01
1.250000e+01
1.250000e+01
1.250000e+01
1.250000e+01
1.250000e+01
1.250000e+01
1.250000e+01
1.250000e+01
1.250000e+01
1.250000e+01
2.500000e+01
2.500000e+01
2.500000e+01
2.500000e+01
2.500000e+01
2.500000e+01
2.500000e+01
2.500000e+01
2.500000e+01
2.500000e+01
2.500000e+01
2.500000e+01
2.500000e+01
2.500000e+01
2.500000e+01
2.500000e+01
2.500000e+01
3.750000e+01
3.750000e+01
3.750000e+01
3.750000e+01
3.750000e+01
3.750000e+01
3.750000e+01
3.750000e+01
3.750000e+01
3.750000e+01
3.750000e+01
3.750000e+01
3.750000e+01
3.750000e+01
3.750000e+01
3.750000e+01
3.750000e+01
5.000000e+01
5.000000e+01
5.000000e+01
5.000000e+01
5.000000e+01
5.000000e+01
5.000000e+01
5.000000e+01
5.000000e+01
5.000000e+01
5.000000e+01
5.000000e+01
5.000000e+01
5.000000e+01
5.000000e+01
5.000000e+01
5.000000e+01
6.250000e+01
6.250000e+01
6.250000e+01
6.250000e+01
6.250000e+01
6.250000e+01
6.250000e+01
6.250000e+01
6.250000e+01
6.250000e+01
6.250000e+01
6.250000e+01
6.250000e+01
6.250000e+01
6.250000e+01
6.250000e+01
6.250000e+01
7.500000e+01
7.500000e+01
7.500000e+01
7.500000e+01
7.500000e+01
7.500000e+01
7.500000e+01
7.500000e+01
7.500000e+01
7.500000e+01
7.500000e+01
7.500000e+01
7.500000e+01
7.500000e+01
7.500000e+01
7.500000e+01
7.500000e+01
8.750000e+01
8.750000e+01
8.750000e+01
8.750000e+01
8.750000e+01
8.750000e+01
8.750000e+01
8.750000e+01
8.750000e+01
8.750000e+01
8.750000e+01
8.750000e+01
8.750000e+01
8.750000e+01
8.750000e+01
8.750000e+01
8.750000e+01
1.000000e+02
1.000000e+02
1.000000e+02
1.000000e+02
1.000000e+02
1.000000e+02
1.000000e+02
1.000000e+02
1.000000e+02
1.000000e+02
1.000000e+02
1.000000e+02
1.000000e+02
1.000000e+02
1.000000e+02
1.000000e+02
1.000000e+02
0.000000e+00
-7.211218e-02
-1.327814e-01
-1.886049e-01
-2.405923e-01
-2.886338e-01
-3.326264e-01
-3.725359e-01
-4.084205e-01
-4.404453e-01
-4.689278e-01
-4.944248e-01
-5.178938e-01
-5.409893e-01
-5.665645e-01
-5.979742e-01
-6.215436e-01
0.000000e+00
-4.306409e-02
-8.945725e-02
-1.322984e-01
-1.717683e-01
-2.080171e-01
-2.411198e-01
-2.711209e-01
-2.980744e-01
-3.220632e-01
-3.432093e-01
-3.616650e-01
-3.775480e-01
-3.906948e-01
-3.999680e-01
-4.020005e-01
-4.092876e-01
0.000000e+00
-2.693103e-02
-5.537694e-02
-8.375597e-02
-1.102469e-01
-1.345694e-01
-1.567036e-01
-1.766745e-01
-1.944872e-01
-2.101118e-01
-2.234643e-01
-2.343582e-01
-2.424050e-01
-2.468969e-01
-2.470216e-01
-2.452272e-01
-2.526595e-01
0.000000e+00
-1.299857e-02
-2.675931e-02
-4.060696e-02
-5.384784e-02
-6.604353e-02
-7.709774e-02
-8.697826e-02
-9.562854e-02
-1.029360e-01
-1.087139e-01
-1.126895e-01
-1.145374e-01
-1.141057e-01
-1.123320e-01
-1.128171e-01
-1.183511e-01
0.000000e+00
-1.197448e-05
-2.722172e-05
-4.241892e-05
-5.048452e-05
-3.562693e-05
3.349817e-05
2.131343e-04
5.955566e-04
1.318214e-03
2.560428e-03
4.502343e-03
7.192635e-03
1.023280e-02
1.233286e-02
1.175688e-02
8.092821e-03
0.000000e+00
1.298015e-02
2.671654e-02
4.053854e-02
5.376274e-02
6.597431e-02
7.712459e-02
8.726809e-02
9.649279e-02
1.049056e-01
1.126166e-01
1.196828e-01
1.259814e-01
1.310321e-01
1.340032e-01
1.342389e-01
1.323791e-01
0.000000e+00
2.692801e-02
5.536772e-02
8.373763e-02
1.102183e-01
1.345337e-01
1.566740e-01
1.766841e-01
1.946056e-01
2.104701e-01
2.242916e-01
2.360364e-01
2.455692e-01
2.526171e-01
2.568475e-01
2.582211e-01
2.577874e-01
0.000000e+00
4.308175e-02
8.949566e-02
1.323597e-01
1.718505e-01
2.081050e-01
2.411692e-01
2.710307e-01
2.976441e-01
3.209326e-01
3.407855e-01
3.570658e-01
3.696431e-01
3.784758e-01
3.837447e-01
3.859915e-01
3.864042e-01
0.000000e+00
7.214172e-02
1.328593e-01
1.887509e-01
2.408255e-01
2.889618e-01
3.330177e-01
3.728650e-01
4.083704e-01
4.393495e-01
4.655335e-01
4.865735e-01
5.021237e-01
5.120621e-01
5.168683e-01
5.180547e-01
5.180318e-01
0.000000e+00
-4.365150e-02
-8.569300e-02
-1.401690e-01
-2.070271e-01
-2.861420e-01
-3.766476e-01
-4.775307e-01
-5.877188e-01
-7.061533e-01
-8.318565e-01
-9.640501e-01
-1.102415e+00
-1.247691e+00
-1.403646e+00
-1.582087e+00
-1.838475e+00
0.000000e+00
-2.687267e-02
-7.072886e-02
-1.258804e-01
-1.938311e-01
-2.740257e-01
-3.656277e-01
-4.675993e-01
-5.788553e-01
-6.983182e-01
-8.249831e-01
-9.580362e-01
-1.097109e+00
-1.242922e+00
-1.398816e+00
-1.576174e+00
-1.793457e+00
0.000000e+00
-2.027783e-02
-6.035497e-02
-1.157100e-01
-1.843032e-01
-2.653233e-01
-3.577672e-01
-4.605872e-01
-5.727057e-01
-6.930602e-01
-8.206653e-01
-9.547352e-01
-1.094937e+00
-1.241870e+00
-1.397898e+00
-1.565952e+00
-1.728592e+00
0.000000e+00
-1.747401e-02
-5.519713e-02
-1.097403e-01
-1.785815e-01
-2.601002e-01
-3.531205e-01
-4.565547e-01
-5.693454e-01
-6.904591e-01
-8.189316e-01
-9.539617e-01
-1.095058e+00
-1.242154e+00
-1.395061e+00
-1.549478e+00
-1.691732e+00
0.000000e+00
-1.666629e-02
-5.363613e-02
-1.078360e-01
-1.766958e-01
-2.584175e-01
-3.517052e-01
-4.554724e-01
-5.686817e-01
-6.903165e-01
-8.193912e-01
-9.549779e-01
-1.096200e+00
-1.242016e+00
-1.390243e+00
-1.535813e+00
-1.669918e+00
0.000000e+00
-1.746363e-02
-5.518975e-02
-1.097535e-01
-1.786460e-01
-2.602702e-01
-3.534841e-01
-4.572434e-01
-5.705327e-01
-6.923305e-01
-8.215872e-01
-9.571802e-01
-1.097798e+00
-1.241650e+00
-1.385974e+00
-1.526552e+00
-1.657795e+00
0.000000e+00
-2.026091e-02
-6.034274e-02
-1.157320e-01
-1.844119e-01
-2.656109e-01
-3.583837e-01
-4.617566e-01
-5.747244e-01
-6.962480e-01
-8.252072e-01
-9.603066e-01
-1.099919e+00
-1.241886e+00
-1.383412e+00
-1.521292e+00
-1.652448e+00
0.000000e+00
-2.685681e-02
-7.071821e-02
-1.259095e-01
-1.939617e-01
-2.743639e-01
-3.663453e-01
-4.689508e-01
-5.811743e-01
-7.019576e-01
-8.301346e-01
-9.643175e-01
-1.102740e+00
-1.243127e+00
-1.382771e+00
-1.519117e+00
-1.651193e+00
0.000000e+00
-4.364494e-02
-8.569392e-02
-1.402141e-01
-2.071784e-01
-2.865034e-01
-3.773819e-01
-4.788705e-01
-5.899524e-01
-7.095510e-01
-8.364721e-01
-9.692970e-01
-1.106247e+00
-1.245099e+00
-1.383316e+00
-1.518720e+00
-1.651213e+00


0.000000e+00
8.851924e-08
1.773750e-07
2.598899e-07
3.372608e-07
4.090510e-07
4.749616e-07
5.349773e-07
5.892216e-07
6.379252e-07
6.814132e-07
7.200472e-07
7.540397e-07
7.831255e-07
8.069329e-07
8.272806e-07
8.453891e-07
0.000000e+00
4.980011e-08
1.211747e-07
1.853429e-07
2.441662e-07
2.983783e-07
3.479327e-07
3.928328e-07
4.331170e-07
4.688166e-07
4.999228e-07
5.263457e-07
5.479525e-07
5.651888e-07
5.809328e-07
5.996245e-07
6.188673e-07
0.000000e+00
3.138985e-08
7.659229e-08
1.189952e-07
1.585156e-07
1.948558e-07
2.278754e-07
2.575371e-07
2.837978e-07
3.065707e-07
3.257271e-07
3.411752e-07
3.531579e-07
3.629065e-07
3.731901e-07
3.870888e-07
4.031507e-07
0.000000e+00
1.533757e-08
3.672076e-08
5.748822e-08
7.725067e-08
9.540169e-08
1.117465e-07
1.262117e-07
1.387137e-07
1.491445e-07
1.574145e-07
1.635732e-07
1.680376e-07
1.718605e-07
1.767869e-07
1.848880e-07
1.960381e-07
0.000000e+00
1.596414e-11
1.971670e-11
-8.648725e-12
-9.633734e-11
-2.867506e-10
-6.435214e-10
-1.251329e-09
-2.208418e-09
-3.602162e-09
-5.455475e-09
-7.637278e-09
-9.757680e-09
-1.110220e-08
-1.057088e-08
-6.757744e-09
5.660386e-10
0.000000e+00
-1.530772e-08
-3.668078e-08
-5.749010e-08
-7.739106e-08
-9.584992e-08
-1.127804e-07
-1.282559e-07
-1.423671e-07
-1.551703e-07
-1.666408e-07
-1.766228e-07
-1.847974e-07
-1.906883e-07
-1.937069e-07
-1.931308e-07
-1.891196e-07
0.000000e+00
-3.137105e-08
-7.656457e-08
-1.189788e-07
-1.585489e-07
-1.950113e-07
-2.282795e-07
-2.583927e-07
-2.854054e-07
-3.093357e-07
-3.301267e-07
-3.476150e-07
-3.615247e-07
-3.715308e-07
-3.774684e-07
-3.794457e-07
-3.782613e-07
0.000000e+00
-4.981903e-08
-1.212124e-07
-1.853771e-07
-2.441602e-07
-2.982692e-07
-3.476175e-07
-3.921519e-07
-4.318398e-07
-4.666332e-07
-4.964547e-07
-5.211884e-07
-5.406823e-07
-5.548080e-07
-5.636912e-07
-5.680585e-07
-5.691136e-07
0.000000e+00
-8.862375e-08
-1.775602e-07
-2.601189e-07
-3.374565e-07
-4.090527e-07
-4.744650e-07
-5.334561e-07
-5.858362e-07
-6.314321e-07
-6.701077e-07
-7.018038e-07
-7.265764e-07
-7.446306e-07
-7.563897e-07
-7.624680e-07
-7.644202e-07
0.000000e+00
8.013550e-08
1.563163e-07
2.417944e-07
3.437433e-07
4.632149e-07
5.994243e-07
7.511106e-07
9.168217e-07
1.095148e-06
1.284882e-06
1.485280e-06
1.696746e-06
1.922318e-06
2.167566e-06
2.428075e-06
2.686543e-06
0.000000e+00
4.846879e-08
1.225106e-07
2.086630e-07
3.126013e-07
4.344783e-07
5.732691e-07
7.275486e-07
8.958274e-07
1.076676e-06
1.268866e-06
1.471596e-06
1.684885e-06
1.910069e-06
2.149349e-06
2.403251e-06
2.658315e-06
0.000000e+00
3.086685e-08
9.541046e-08
1.814723e-07
2.869122e-07
4.108739e-07
5.519107e-07
7.084861e-07
8.790853e-07
1.062273e-06
1.256777e-06
1.461601e-06
1.676057e-06
1.899516e-06
2.131610e-06
2.376241e-06
2.623086e-06
0.000000e+00
2.264413e-08
8.115543e-08
1.656189e-07
2.717515e-07
3.970047e-07
5.395031e-07
6.976130e-07
8.697988e-07
1.054599e-06
1.250638e-06
1.456607e-06
1.671125e-06
1.892464e-06
2.119242e-06
2.354441e-06
2.588995e-06
0.000000e+00
2.028142e-08
7.683369e-08
1.605194e-07
2.668391e-07
3.926093e-07
5.357381e-07
6.945482e-07
8.674845e-07
1.053031e-06
1.249670e-06
1.455801e-06
1.669582e-06
1.888727e-06
2.110987e-06
2.337750e-06
2.560214e-06
0.000000e+00
2.266243e-08
8.122402e-08
1.657885e-07
2.720886e-07
3.975996e-07
5.404686e-07
6.990682e-07
8.718267e-07
1.057160e-06
1.253412e-06
1.458770e-06
1.671125e-06
1.887876e-06
2.106211e-06
2.325930e-06
2.539576e-06
0.000000e+00
3.089637e-08
9.552996e-08
1.817695e-07
2.875033e-07
4.119186e-07
5.536081e-07
7.110469e-07
8.826571e-07
1.066787e-06
1.261666e-06
1.465335e-06
1.675537e-06
1.889558e-06
2.104399e-06
2.318848e-06
2.527004e-06
0.000000e+00
4.850627e-08
1.226622e-07
2.090291e-07
3.133227e-07
4.357467e-07
5.753216e-07
7.306303e-07
9.000976e-07
1.082017e-06
1.274528e-06
1.475565e-06
1.682792e-06
1.893541e-06
2.105050e-06
2.315664e-06
2.521003e-06
0.000000e+00
8.019761e-08
1.564937e-07
2.421893e-07
3.444945e-07
4.645054e-07
6.014706e-07
7.541174e-07
9.208761e-07
1.100013e-06
1.289619e-06
1.487578e-06
1.691530e-06
1.898915e-06
2.107302e-06
2.315146e-06
2.519253e-06


2.107051e-01
2.107050e-01
2.107052e-01
2.107057e-01
2.107061e-01
2.107064e-01
2.107068e-01
2.107071e-01
2.107073e-01
2.107076e-01
2.107077e-01
2.107079e-01
2.107080e-01
2.107079e-01
2.107077e-01
2.107075e-01
2.107058e-01
2.107057e-01
2.107058e-01
2.107062e-01
2.107065e-01
2.107068e-01
2.107070e-01
2.107073e-01
2.107075e-01
2.107077e-01
2.107078e-01
2.107079e-01
2.107080e-01
2.107079e-01
2.107076e-01
2.107075e-01
2.107069e-01
2.107068e-01
2.107068e-01
2.107070e-01
2.107072e-01
2.107073e-01
2.107075e-01
2.107076e-01
2.107077e-01
2.107078e-01
2.107079e-01
2.107080e-01
2.107080e-01
2.107079e-01
2.107077e-01
2.107076e-01
2.107077e-01
2.107076e-01
2.107075e-01
2.107076e-01
2.107076e-01
2.107077e-01
2.107078e-01
2.107078e-01
2.107079e-01
2.107079e-01
2.107080e-01
2.107080e-01
2.107080e-01
2.107079e-01
2.107078e-01
2.107078e-01
2.107077e-01
2.107076e-01
2.107075e-01
2.107076e-01
2.107076e-01
2.107077e-01
2.107078e-01
2.107078e-01
2.107079e-01
2.107079e-01
2.107079e-01
2.107080e-01
2.107080e-01
2.107080e-01
2.107080e-01
2.107080e-01
2.107069e-01
2.107068e-01
2.107068e-01
2.107070e-01
2.107072e-01
2.107073e-01
2.107075e-01
2.107076e-01
2.107077e-01
2.107078e-01
2.107079e-01
2.107079e-01
2.107080e-01
2.107081e-01
2.107081e-01
2.107082e-01
2.107058e-01
2.107057e-01
2.107058e-01
2.107062e-01
2.107065e-01
2.107068e-01
2.107070e-01
2.107073e-01
2.107075e-01
2.107076e-01
2.107078e-01
2.107079e-01
2.107081e-01
2.107082e-01
2.107082e-01
2.107083e-01
2.107051e-01
2.107050e-01
2.107052e-01
2.107057e-01
2.107061e-01
2.107064e-01
2.107068e-01
2.107071e-01
2.107073e-01
2.107076e-01
2.107078e-01
2.107080e-01
2.107081e-01
2.107082e-01
2.107083e-01
2.107083e-01


9.883005e-01
9.899596e-01
9.914943e-01
9.926758e-01
9.937724e-01
9.947836e-01
9.957049e-01
9.965254e-01
9.972366e-01
9.978314e-01
9.983044e-01
9.986509e-01
9.988662e-01
9.989431e-01
9.989985e-01
9.955794e-01
9.955739e-01
9.948136e-01
9.953027e-01
9.959411e-01
9.965363e-01
9.970773e-01
9.975670e-01
9.980106e-01
9.984122e-01
9.987760e-01
9.991061e-01
9.994049e-01
9.996657e-01
9.998365e-01
9.994047e-01
9.935517e-01
9.984621e-01
9.980254e-01
9.979076e-01
9.980734e-01
9.982915e-01
9.985028e-01
9.986990e-01
9.988843e-01
9.990639e-01
9.992390e-01
9.994025e-01
9.995290e-01
9.995555e-01
9.993275e-01
9.985005e-01
9.970131e-01
9.996870e-01
9.993685e-01
9.991718e-01
9.991219e-01
9.991418e-01
9.991753e-01
9.992086e-01
9.992413e-01
9.992733e-01
9.993001e-01
9.993076e-01
9.992677e-01
9.991413e-01
9.989143e-01
9.987218e-01
9.986731e-01
9.996882e-01
9.993702e-01
9.991733e-01
9.991216e-01
9.991368e-01
9.991610e-01
9.991777e-01
9.991833e-01
9.991757e-01
9.991510e-01
9.991051e-01
9.990389e-01
9.989759e-01
9.989884e-01
9.991665e-01
9.994749e-01
9.984643e-01
9.980288e-01
9.979108e-01
9.980734e-01
9.982830e-01
9.984767e-01
9.986405e-01
9.987721e-01
9.988707e-01
9.989372e-01
9.989791e-01
9.990202e-01
9.991064e-01
9.992872e-01
9.995588e-01
9.998395e-01
9.955734e-01
9.948133e-01
9.953021e-01
9.959393e-01
9.965317e-01
9.970667e-01
9.975450e-01
9.979685e-01
9.983375e-01
9.986529e-01
9.989200e-01
9.991532e-01
9.993778e-01
9.996133e-01
9.998334e-01
9.999721e-01
9.882925e-01
9.899471e-01
9.914790e-01
9.926586e-01
9.937570e-01
9.947780e-01
9.957239e-01
9.965925e-01
9.973839e-01
9.980966e-01
9.987221e-01
9.992410e-01
9.996271e-01
9.998652e-01
9.999736e-01
9.999994e-01
1 2 19 18
2 3 20 19
3 4 21 20
4 5 22 21
5 6 23 22
6 7 24 23
7 8 25 24
8 9 26 25
9 10 27 26
10 11 28 27
11 12 29 28
12 13 30 29
13 14 31 30
14 15 32 31
15 16 33 32
16 17 34 33
18 19 36 35
19 20 37 36
20 21 38 37
21 22 39 38
22 23 40 39
23 24 41 40
24 25 42 41
25 26 43 42
26 27 44 43
27 28 45 44
28 29 46 45
29 30 47 46
30 31 48 47
31 32 49 48
32 33 50 49
33 34 51 50
35 36 53 52
36 37 54 53
37 38 55 54
38 39 56 55
39 40 57 56
40 41 58 57
41 42 59 58
42 43 60 59
43 44 61 60
44 45 62 61
45 46 63 62
46 47 64 63
47 48 65 64
48 49 66 65
49 50 67 66
50 51 68 67
52 53 70 69
53 54 71 70
54 55 72 71
55 56 73 72
56 57 74 73
57 58 75 74
58 59 76 75
59 60 77 76
60 61 78 77
61 62 79 78
62 63 80 79
63 64 81 80
64 65 82 81
65 66 83 82
66 67 84 83
67 68 85 84
69 70 87 86
70 71 88 87
71 72 89 88
72 73 90 89
73 74 91 90
74 75 92 91
75 76 93 92
76 77 94 93
77 78 95 94
78 79 96 95
79 80 97 96
80 81 98 97
81 82 99 98
82 83 100 99
83 84 101 100
84 85 102 101
86 87 104 103
87 88 105 104
88 89 106 105
89 90 107 106
90 91 108 107
91 92 109 108
92 93 110 109
93 94 111 110
94 95 112 111
95 96 113 112
96 97 114 113
97 98 115 114
98 99 116 115
99 100 117 116
100 101 118 117
101 102 119 118
103 104 121 120
104 105 122 121
105 106 123 122
106 107 124 123
107 108 125 124
108 109 126 125
109 110 127 126
110 111 128 127
111 112 129 128
112 113 130 129
113 114 131 130
114 115 132 131
115 116 133 132
116 117 134 133
117 118 135 134
118 119 136 135
120 121 138 137
121 122 139 138
122 123 140 139
123 124 141 140
124 125 142 141
125 126 143 142
126 127 144 143
127 128 145 144
128 129 146 145
129 130 147 146
130 131 148 147
131 132 149 148
132 133 150 149
133 134 151 150
134 135 152 151
135 136 153 152
