TITLE = "Solution"
VARIABLES = x, y, u, v, psiu, psiv, t, stress
ZONE T="structure" N=153 E=128 F=FEBLOCK ET=QUADRILATERAL VARLOCATION=([7,8]=cellcentered)
0.000000e+00
1.250000e+01
2.500000e+01
3.750000e+01
5.000000e+01
6.250000e+01
7.500000e+01
8.750000e+01
1.000000e+02
1.125000e+02
1.250000e+02
1.375000e+02
1.500000e+02
1.625000e+02
1.750000e+02
1.875000e+02
2.000000e+02
0.000000e+00
1.250000e+01
2.500000e+01
3.750000e+01
5.000000e+01
6.250000e+01
7.500000e+01
8.750000e+01
1.000000e+02
1.125000e+02
1.250000e+02
1.375000e+02
1.500000e+02
1.625000e+02
1.750000e+02
1.875000e+02
2.000000e+02
0.000000e+00
1.250000e+01
2.500000e+01
3.750000e+01
5.000000e+01
6.250000e+01
7.500000e+01
8.750000e+01
1.000000e+02
1.125000e+02
1.250000e+02
1.375000e+02
1.500000e+02
1.625000e+02
1.750000e+02
1.875000e+02
2.000000e+02
0.000000e+00
1.250000e+01
2.500000e+01
3.750000e+01
5.000000e+01
6.250000e+01
7.500000e+01
8.750000e+01
1.000000e+02
1.125000e+02
1.250000e+02
1.375000e+02
1.500000e+02
1.625000e+02
1.750000e+02
1.875000e+02
2.000000e+02
0.000000e+00
1.250000e+01
2.500000e+01
3.750000e+01
5.000000e+01
6.250000e+01
7.500000e+01
8.750000e+01
1.000000e+02
1.125000e+02
1.250000e+02
1.375000e+02
1.500000e+02
1.625000e+02
1.750000e+02
1.875000e+02
2.000000e+02
0.000000e+00
1.250000e+01
2.500000e+01
3.750000e+01
5.000000e+01
6.250000e+01
7.500000e+01
8.750000e+01
1.000000e+02
1.125000e+02
1.250000e+02
1.375000e+02
1.500000e+02
1.625000e+02
1.750000e+02
1.875000e+02
2.000000e+02
0.000000e+00
1.250000e+01
2.500000e+01
3.750000e+01
5.000000e+01
6.250000e+01
7.500000e+01
8.750000e+01
1.000000e+02
1.125000e+02
1.250000e+02
1.375000e+02
1.500000e+02
1.625000e+02
1.750000e+02
1.875000e+02
2.000000e+02
0.000000e+00
1.250000e+01
2.500000e+01
3.750000e+01
5.000000e+01
6.250000e+01
7.500000e+01
8.750000e+01
1.000000e+02
1.125000e+02
1.250000e+02
1.375000e+02
1.500000e+02
1.625000e+02
1.750000e+02
1.875000e+02
2.000000e+02
0.000000e+00
1.250000e+01
2.500000e+01
3.750000e+01
5.000000e+01
6.250000e+01
7.500000e+01
8.750000e+01
1.000000e+02
1.125000e+02
1.250000e+02
1.375000e+02
1.500000e+02
1.625000e+02
1.750000e+02
1.875000e+02
2.000000e+02
0.000000e+00
0.000000e+00
0.000000e+00
0.000000e+00
0.000000e+00
0.000000e+00
0.000000e+00
0.000000e+00
0.000000e+00
0.000000e+00
0.000000e+00
0.000000e+00
0.000000e+00
0.000000e+00
0.000000e+00
0.000000e+00
0.000000e+00
1.250000e+01
1.250000e+01
1.250000e+01
1.250000e+01
1.250000e+01
1.250000e+01
1.250000e+01
1.250000e+01
1.250000e+01
1.250000e+01
1.250000e+01
1.250000e+01
1.250000e+01
1.250000e+01
1.250000e+01
1.250000e+01
1.250000e+01
2.500000e+01
2.500000e+01
2.500000e+01
2.500000e+01
2.500000e+01
2.500000e+01
2.500000e+01
2.500000e+01
2.500000e+01
2.500000e+01
2.500000e+01
2.500000e+01
2.500000e+01
2.500000e+01
2.500000e+01
2.500000e+01
2.500000e+01
3.750000e+01
3.750000e+01
3.750000e+01
3.750000e+01
3.750000e+01
3.750000e+01
3.750000e+01
3.750000e+01
3.750000e+01
3.750000e+01
3.750000e+01
3.750000e+01
3.750000e+01
3.750000e+01
3.750000e+01
3.750000e+01
3.750000e+01
5.000000e+01
5.000000e+01
5.000000e+01
5.000000e+01
5.000000e+01
5.000000e+01
5.000000e+01
5.000000e+01
5.000000e+01
5.000000e+01
5.000000e+01
5.000000e+01
5.000000e+01
5.000000e+01
5.000000e+01
5.000000e+01
5.000000e+01
6.250000e+01
6.250000e+01
6.250000e+01
6.250000e+01
6.250000e+01
6.250000e+01
6.250000e+01
6.250000e+01
6.250000e+01
6.250000e+01
6.250000e+01
6.250000e+01
6.250000e+01
6.250000e+01
6.250000e+01
6.250000e+01
6.250000e+01
7.500000e+01
7.500000e+01
7.500000e+01
7.500000e+01
7.500000e+01
7.500000e+01
7.500000e+01
7.500000e+01
7.500000e+01
7.500000e+01
7.500000e+01
7.500000e+01
7.500000e+01
7.500000e+01
7.500000e+01
7.500000e+01
7.500000e+01
8.750000e+01
8.750000e+01
8.750000e+01
8.750000e+01
8.750000e+01
8.750000e+01
8.750000e+01
8.750000e+01
8.750000e+01
8.750000e+01
8.750000e+01
8.750000e+01
8.750000e+01
8.750000e+01
8.750000e+01
8.750000e+01
8.750000e+01
1.000000e+02
1.000000e+02
1.000000e+02
1.000000e+02
1.000000e+02
1.000000e+02
1.000000e+02
1.000000e+02
1.000000e+02
1.000000e+02
1.000000e+02
1.000000e+02
1.000000e+02
1.000000e+02
1.000000e+02
1.000000e+02
1.000000e+02
0.000000e+00
-1.335631e-01
-2.459318e-01
-3.493261e-01
-4.456160e-01
-5.345983e-01
-6.160817e-01
-6.900028e-01
-7.564691e-01
-8.157865e-01
-8.685429e-01
-9.157694e-01
-9.592397e-01
-1.002018e+00
-1.049390e+00
-1.107568e+00
-1.151224e+00
0.000000e+00
-7.976115e-02
-1.656883e-01
-2.450370e-01
-3.181423e-01
-3.852820e-01
-4.465951e-01
-5.021636e-01
-5.520875e-01
-5.965204e-01
-6.356880e-01
-6.698723e-01
-6.992915e-01
-7.236427e-01
-7.408189e-01
-7.445836e-01
-7.580811e-01
0.000000e+00
-4.988012e-02
-1.025661e-01
-1.551286e-01
-2.041946e-01
-2.492445e-01
-2.902415e-01
-3.272320e-01
-3.602251e-01
-3.891655e-01
-4.138975e-01
-4.340755e-01
-4.489803e-01
-4.573004e-01
-4.575314e-01
-4.542077e-01
-4.679740e-01
0.000000e+00
-2.407516e-02
-4.956203e-02
-7.521010e-02
-9.973455e-02
-1.223233e-01
-1.427980e-01
-1.610988e-01
-1.771211e-01
-1.906562e-01
-2.013582e-01
-2.087220e-01
-2.121448e-01
-2.113451e-01
-2.080598e-01
-2.089582e-01
-2.192087e-01
0.000000e+00
-2.218124e-05
-5.042453e-05
-7.857521e-05
-9.351657e-05
-6.599884e-05
6.203529e-05
3.947627e-04
1.103100e-03
2.441636e-03
4.742520e-03
8.339424e-03
1.332251e-02
1.895365e-02
2.284348e-02
2.177665e-02
1.498993e-02
0.000000e+00
2.404103e-02
4.948280e-02
7.508336e-02
9.957691e-02
1.221951e-01
1.428477e-01
1.616356e-01
1.787218e-01
1.943044e-01
2.085870e-01
2.216752e-01
2.333417e-01
2.426969e-01
2.482002e-01
2.486367e-01
2.451920e-01
0.000000e+00
4.987452e-02
1.025491e-01
1.550946e-01
2.041415e-01
2.491784e-01
2.901868e-01
3.272498e-01
3.604443e-01
3.898292e-01
4.154299e-01
4.371839e-01
4.548411e-01
4.678956e-01
4.757312e-01
4.782755e-01
4.774722e-01
0.000000e+00
7.979387e-02
1.657595e-01
2.451504e-01
3.182944e-01
3.854448e-01
4.466865e-01
5.019965e-01
5.512905e-01
5.944261e-01
6.311986e-01
6.613535e-01
6.846497e-01
7.010100e-01
7.107693e-01
7.149311e-01
7.156955e-01
0.000000e+00
1.336178e-01
2.460762e-01
3.495965e-01
4.460479e-01
5.352058e-01
6.168064e-01
6.906122e-01
7.563764e-01
8.137568e-01
8.622558e-01
9.012269e-01
9.300297e-01
9.484379e-01
9.573404e-01
9.595378e-01
9.594954e-01
0.000000e+00
-8.084951e-02
-1.587175e-01
-2.596165e-01
-3.834493e-01
-5.299844e-01
-6.976170e-01
-8.844712e-01
-1.088560e+00
-1.307923e+00
-1.540750e+00
-1.785598e+00
-2.041878e+00
-2.310957e+00
-2.599817e+00
-2.930327e+00
-3.405213e+00
0.000000e+00
-4.977250e-02
-1.310016e-01
-2.331515e-01
-3.590080e-01
-5.075425e-01
-6.772058e-01
-8.660759e-01
-1.072143e+00
-1.293411e+00
-1.528019e+00
-1.774459e+00
-2.032050e+00
-2.302124e+00
-2.590871e+00
-2.919375e+00
-3.321828e+00
0.000000e+00
-3.755791e-02
-1.117875e-01
-2.143144e-01
-3.413606e-01
-4.914239e-01
-6.626466e-01
-8.530881e-01
-1.060752e+00
-1.283672e+00
-1.520021e+00
-1.768345e+00
-2.028026e+00
-2.300176e+00
-2.589172e+00
-2.900441e+00
-3.201683e+00
0.000000e+00
-3.236496e-02
-1.022345e-01
-2.032575e-01
-3.307629e-01
-4.817498e-01
-6.540399e-01
-8.456190e-01
-1.054528e+00
-1.278854e+00
-1.516810e+00
-1.766912e+00
-2.028251e+00
-2.300702e+00
-2.583916e+00
-2.869928e+00
-3.133410e+00
0.000000e+00
-3.086902e-02
-9.934330e-02
-1.997303e-01
-3.272704e-01
-4.786330e-01
-6.514185e-01
-8.436143e-01
-1.053299e+00
-1.278590e+00
-1.517661e+00
-1.768794e+00
-2.030366e+00
-2.300446e+00
-2.574993e+00
-2.844616e+00
-3.093006e+00
0.000000e+00
-3.234575e-02
-1.022208e-01
-2.032819e-01
-3.308824e-01
-4.820647e-01
-6.547134e-01
-8.468946e-01
-1.056728e+00
-1.282320e+00
-1.521729e+00
-1.772874e+00
-2.033325e+00
-2.299769e+00
-2.567086e+00
-2.827464e+00
-3.070551e+00
0.000000e+00
-3.752657e-02
-1.117649e-01
-2.143550e-01
-3.415620e-01
-4.919566e-01
-6.637884e-01
-8.552540e-01
-1.064492e+00
-1.289576e+00
-1.528434e+00
-1.778664e+00
-2.037253e+00
-2.300205e+00
-2.562340e+00
-2.817721e+00
-3.060647e+00
0.000000e+00
-4.974312e-02
-1.309818e-01
-2.332055e-01
-3.592498e-01
-5.081689e-01
-6.785350e-01
-8.685793e-01
-1.076438e+00
-1.300152e+00
-1.537561e+00
-1.786094e+00
-2.042479e+00
-2.302504e+00
-2.561152e+00
-2.813693e+00
-3.058322e+00
0.000000e+00
-8.083737e-02
-1.587192e-01
-2.597000e-01
-3.837296e-01
-5.306538e-01
-6.989771e-01
-8.869527e-01
-1.092697e+00
-1.314217e+00
-1.549299e+00
-1.795317e+00
-2.048976e+00
-2.306156e+00
-2.562162e+00
-2.812956e+00
-3.058359e+00


0.000000e+00
1.055895e-08
2.151696e-08
3.142871e-08
4.022022e-08
4.785470e-08
5.438503e-08
5.991904e-08
6.457838e-08
6.848562e-08
7.175924e-08
7.450944e-08
7.683011e-08
7.878247e-08
8.041709e-08
8.192978e-08
8.339278e-08
0.000000e+00
6.604764e-09
1.577123e-08
2.356739e-08
3.022352e-08
3.590935e-08
4.072503e-08
4.477444e-08
4.815510e-08
5.095336e-08
5.324189e-08
5.507602e-08
5.649384e-08
5.756080e-08
5.854581e-08
5.989757e-08
6.143732e-08
0.000000e+00
4.598740e-09
1.052840e-08
1.573743e-08
2.022290e-08
2.400803e-08
2.717124e-08
2.979589e-08
3.195213e-08
3.369485e-08
3.506572e-08
3.609944e-08
3.684512e-08
3.741956e-08
3.806844e-08
3.908615e-08
4.035976e-08
0.000000e+00
2.378074e-09
5.165532e-09
7.746391e-09
1.001087e-08
1.191045e-08
1.347643e-08
1.475253e-08
1.577361e-08
1.656511e-08
1.714820e-08
1.755036e-08
1.782350e-08
1.806312e-08
1.840361e-08
1.900272e-08
1.985713e-08
0.000000e+00
-7.658847e-13
-2.779405e-12
-7.452104e-12
-1.678751e-11
-3.388037e-11
-6.314382e-11
-1.103036e-10
-1.816995e-10
-2.822697e-10
-4.112972e-10
-5.556117e-10
-6.828520e-10
-7.426963e-10
-6.730493e-10
-3.894648e-10
1.403236e-10
0.000000e+00
-2.379244e-09
-5.169866e-09
-7.758251e-09
-1.003772e-08
-1.196474e-08
-1.357782e-08
-1.493033e-08
-1.606830e-08
-1.702711e-08
-1.783029e-08
-1.848781e-08
-1.899612e-08
-1.934251e-08
-1.951047e-08
-1.946091e-08
-1.918523e-08
0.000000e+00
-4.599166e-09
-1.053090e-08
-1.574400e-08
-2.023665e-08
-2.403407e-08
-2.721771e-08
-2.987520e-08
-3.208239e-08
-3.390101e-08
-3.537910e-08
-3.655134e-08
-3.744003e-08
-3.805901e-08
-3.842302e-08
-3.854454e-08
-3.846385e-08
0.000000e+00
-6.606336e-09
-1.577592e-08
-2.357388e-08
-3.022958e-08
-3.591078e-08
-4.071443e-08
-4.473992e-08
-4.807953e-08
-5.081467e-08
-5.301576e-08
-5.474209e-08
-5.604171e-08
-5.695334e-08
-5.751719e-08
-5.779197e-08
-5.785526e-08
0.000000e+00
-1.056725e-08
-2.153134e-08
-3.144608e-08
-4.023489e-08
-4.785535e-08
-5.435085e-08
-5.981510e-08
-6.435041e-08
-6.805507e-08
-7.101988e-08
-7.332783e-08
-7.505440e-08
-7.626796e-08
-7.703326e-08
-7.741444e-08
-7.753077e-08
0.000000e+00
9.577606e-09
1.789300e-08
2.692457e-08
3.772860e-08
5.041561e-08
6.481909e-08
8.070913e-08
9.785203e-08
1.160434e-07
1.351196e-07
1.549731e-07
1.755998e-07
1.972267e-07
2.204057e-07
2.450146e-07
2.696375e-07
0.000000e+00
5.448838e-09
1.355468e-08
2.291526e-08
3.422176e-08
4.741881e-08
6.229552e-08
7.860224e-08
9.610713e-08
1.146104e-07
1.339535e-07
1.540319e-07
1.748218e-07
1.964249e-07
2.190796e-07
2.430410e-07
2.673099e-07
0.000000e+00
3.075685e-09
1.011940e-08
1.971139e-08
3.142166e-08
4.504420e-08
6.030791e-08
7.695525e-08
9.475868e-08
1.135248e-07
1.330986e-07
1.533685e-07
1.742670e-07
1.957431e-07
2.177869e-07
2.409090e-07
2.644514e-07
0.000000e+00
2.035443e-09
8.417893e-09
1.794316e-08
2.985833e-08
4.372281e-08
5.921037e-08
7.605668e-08
9.403814e-08
1.129648e-07
1.326783e-07
1.530487e-07
1.739598e-07
1.952755e-07
2.169087e-07
2.392484e-07
2.617680e-07
0.000000e+00
1.756396e-09
7.929980e-09
1.739100e-08
2.936348e-08
4.331065e-08
5.887913e-08
7.580121e-08
9.385431e-08
1.128467e-07
1.326116e-07
1.529991e-07
1.738603e-07
1.950270e-07
2.163595e-07
2.380629e-07
2.596058e-07
0.000000e+00
2.037488e-09
8.423138e-09
1.795455e-08
2.987989e-08
4.376042e-08
5.927177e-08
7.615056e-08
9.417130e-08
1.131360e-07
1.328669e-07
1.531982e-07
1.739630e-07
1.949785e-07
2.160725e-07
2.372803e-07
2.581336e-07
0.000000e+00
3.078956e-09
1.012863e-08
1.973178e-08
3.146033e-08
4.511164e-08
6.041796e-08
7.712338e-08
9.499717e-08
1.138321e-07
1.334391e-07
1.536397e-07
1.742555e-07
1.950974e-07
2.159775e-07
2.368304e-07
2.572820e-07
0.000000e+00
5.453215e-09
1.356743e-08
2.294204e-08
3.427125e-08
4.750354e-08
6.243173e-08
7.880768e-08
9.639506e-08
1.149768e-07
1.343530e-07
1.543337e-07
1.747320e-07
1.953573e-07
2.160276e-07
2.366319e-07
2.568967e-07
0.000000e+00
9.584769e-09
1.790921e-08
2.695548e-08
3.778261e-08
5.050438e-08
6.495705e-08
8.091076e-08
9.812541e-08
1.163768e-07
1.354566e-07
1.551665e-07
1.753128e-07
1.957052e-07
2.161729e-07
2.366014e-07
2.567913e-07


3.902549e-01
3.902545e-01
3.902572e-01
3.902622e-01
3.902668e-01
3.902706e-01
3.902738e-01
3.902764e-01
3.902784e-01
3.902801e-01
3.902813e-01
3.902822e-01
3.902826e-01
3.902820e-01
3.902805e-01
3.902794e-01
3.902611e-01
3.902606e-01
3.902625e-01
3.902664e-01
3.902701e-01
3.902731e-01
3.902757e-01
3.902778e-01
3.902794e-01
3.902808e-01
3.902818e-01
3.902825e-01
3.902827e-01
3.902820e-01
3.902805e-01
3.902793e-01
3.902712e-01
3.902707e-01
3.902715e-01
3.902736e-01
3.902757e-01
3.902774e-01
3.902789e-01
3.902802e-01
3.902811e-01
3.902819e-01
3.902825e-01
3.902828e-01
3.902829e-01
3.902821e-01
3.902808e-01
3.902800e-01
3.902784e-01
3.902779e-01
3.902780e-01
3.902787e-01
3.902796e-01
3.902805e-01
3.902812e-01
3.902817e-01
3.902822e-01
3.902825e-01
3.902828e-01
3.902829e-01
3.902828e-01
3.902824e-01
3.902817e-01
3.902813e-01
3.902784e-01
3.902779e-01
3.902780e-01
3.902787e-01
3.902796e-01
3.902804e-01
3.902811e-01
3.902817e-01
3.902821e-01
3.902824e-01
3.902826e-01
3.902827e-01
3.902828e-01
3.902828e-01
3.902827e-01
3.902826e-01
3.902712e-01
3.902707e-01
3.902715e-01
3.902736e-01
3.902756e-01
3.902774e-01
3.902788e-01
3.902800e-01
3.902809e-01
3.902816e-01
3.902821e-01
3.902825e-01
3.902829e-01
3.902832e-01
3.902834e-01
3.902836e-01
3.902611e-01
3.902606e-01
3.902624e-01
3.902664e-01
3.902700e-01
3.902731e-01
3.902756e-01
3.902777e-01
3.902794e-01
3.902807e-01
3.902817e-01
3.902825e-01
3.902831e-01
3.902836e-01
3.902840e-01
3.902842e-01
3.902549e-01
3.902545e-01
3.902572e-01
3.902622e-01
3.902668e-01
3.902706e-01
3.902738e-01
3.902764e-01
3.902785e-01
3.902802e-01
3.902815e-01
3.902825e-01
3.902833e-01
3.902839e-01
3.902843e-01
3.902845e-01


9.598652e-01
9.655566e-01
9.708213e-01
9.748738e-01
9.786355e-01
9.821043e-01
9.852647e-01
9.880796e-01
9.905195e-01
9.925601e-01
9.941827e-01
9.953714e-01
9.961103e-01
9.963739e-01
9.965642e-01
9.848338e-01
9.848163e-01
9.822082e-01
9.838860e-01
9.860758e-01
9.881175e-01
9.899732e-01
9.916531e-01
9.931748e-01
9.945526e-01
9.958006e-01
9.969331e-01
9.979585e-01
9.988531e-01
9.994389e-01
9.979575e-01
9.778774e-01
9.947243e-01
9.932263e-01
9.928218e-01
9.933906e-01
9.941388e-01
9.948636e-01
9.955365e-01
9.961724e-01
9.967884e-01
9.973890e-01
9.979499e-01
9.983842e-01
9.984749e-01
9.976928e-01
9.948555e-01
9.897525e-01
9.989263e-01
9.978337e-01
9.971587e-01
9.969875e-01
9.970558e-01
9.971705e-01
9.972850e-01
9.973970e-01
9.975068e-01
9.975988e-01
9.976244e-01
9.974876e-01
9.970538e-01
9.962752e-01
9.956149e-01
9.954477e-01
9.989303e-01
9.978394e-01
9.971638e-01
9.969864e-01
9.970388e-01
9.971215e-01
9.971789e-01
9.971982e-01
9.971718e-01
9.970873e-01
9.969297e-01
9.967027e-01
9.964865e-01
9.965295e-01
9.971406e-01
9.981984e-01
9.947319e-01
9.932377e-01
9.928328e-01
9.933907e-01
9.941097e-01
9.947739e-01
9.953358e-01
9.957875e-01
9.961258e-01
9.963536e-01
9.964976e-01
9.966384e-01
9.969343e-01
9.975545e-01
9.984862e-01
9.994494e-01
9.848149e-01
9.822071e-01
9.838837e-01
9.860695e-01
9.881015e-01
9.899367e-01
9.915775e-01
9.930303e-01
9.942963e-01
9.953785e-01
9.962947e-01
9.970948e-01
9.978653e-01
9.986731e-01
9.994286e-01
9.999044e-01
9.598378e-01
9.655138e-01
9.707688e-01
9.748148e-01
9.785826e-01
9.820851e-01
9.853300e-01
9.883097e-01
9.910247e-01
9.934698e-01
9.956158e-01
9.973961e-01
9.987205e-01
9.995377e-01
9.999094e-01
9.999981e-01
1 2 19 18
2 3 20 19
3 4 21 20
4 5 22 21
5 6 23 22
6 7 24 23
7 8 25 24
8 9 26 25
9 10 27 26
10 11 28 27
11 12 29 28
12 13 30 29
13 14 31 30
14 15 32 31
15 16 33 32
16 17 34 33
18 19 36 35
19 20 37 36
20 21 38 37
21 22 39 38
22 23 40 39
23 24 41 40
24 25 42 41
25 26 43 42
26 27 44 43
27 28 45 44
28 29 46 45
29 30 47 46
30 31 48 47
31 32 49 48
32 33 50 49
33 34 51 50
35 36 53 52
36 37 54 53
37 38 55 54
38 39 56 55
39 40 57 56
40 41 58 57
41 42 59 58
42 43 60 59
43 44 61 60
44 45 62 61
45 46 63 62
46 47 64 63
47 48 65 64
48 49 66 65
49 50 67 66
50 51 68 67
52 53 70 69
53 54 71 70
54 55 72 71
55 56 73 72
56 57 74 73
57 58 75 74
58 59 76 75
59 60 77 76
60 61 78 77
61 62 79 78
62 63 80 79
63 64 81 80
64 65 82 81
65 66 83 82
66 67 84 83
67 68 85 84
69 70 87 86
70 71 88 87
71 72 89 88
72 73 90 89
73 74 91 90
74 75 92 91
75 76 93 92
76 77 94 93
77 78 95 94
78 79 96 95
79 80 97 96
80 81 98 97
81 82 99 98
82 83 100 99
83 84 101 100
84 85 102 101
86 87 104 103
87 88 105 104
88 89 106 105
89 90 107 106
90 91 108 107
91 92 109 108
92 93 110 109
93 94 111 110
94 95 112 111
95 96 113 112
96 97 114 113
97 98 115 114
98 99 116 115
99 100 117 116
100 101 118 117
101 102 119 118
103 104 121 120
104 105 122 121
105 106 123 122
106 107 124 123
107 108 125 124
108 109 126 125
109 110 127 126
110 111 128 127
111 112 129 128
112 113 130 129
113 114 131 130
114 115 132 131
115 116 133 132
116 117 134 133
117 118 135 134
118 119 136 135
120 121 138 137
121 122 139 138
122 123 140 139
123 124 141 140
124 125 142 141
125 126 143 142
126 127 144 143
127 128 145 144
128 129 146 145
129 130 147 146
130 131 148 147
131 132 149 148
132 133 150 149
133 134 151 150
134 135 152 151
135 136 153 152
