TITLE = "Solution"
VARIABLES = x, y, u, v, psiu, psiv, t, stress
ZONE T="structure" N=153 E=128 F=FEBLOCK ET=QUADRILATERAL VARLOCATION=([7,8]=cellcentered)
0.000000e+00
1.250000e+01
2.500000e+01
3.750000e+01
5.000000e+01
6.250000e+01
7.500000e+01
8.750000e+01
1.000000e+02
1.125000e+02
1.250000e+02
1.375000e+02
1.500000e+02
1.625000e+02
1.750000e+02
1.875000e+02
2.000000e+02
0.000000e+00
1.250000e+01
2.500000e+01
3.750000e+01
5.000000e+01
6.250000e+01
7.500000e+01
8.750000e+01
1.000000e+02
1.125000e+02
1.250000e+02
1.375000e+02
1.500000e+02
1.625000e+02
1.750000e+02
1.875000e+02
2.000000e+02
0.000000e+00
1.250000e+01
2.500000e+01
3.750000e+01
5.000000e+01
6.250000e+01
7.500000e+01
8.750000e+01
1.000000e+02
1.125000e+02
1.250000e+02
1.375000e+02
1.500000e+02
1.625000e+02
1.750000e+02
1.875000e+02
2.000000e+02
0.000000e+00
1.250000e+01
2.500000e+01
3.750000e+01
5.000000e+01
6.250000e+01
7.500000e+01
8.750000e+01
1.000000e+02
1.125000e+02
1.250000e+02
1.375000e+02
1.500000e+02
1.625000e+02
1.750000e+02
1.875000e+02
2.000000e+02
0.000000e+00
1.250000e+01
2.500000e+01
3.750000e+01
5.000000e+01
6.250000e+01
7.500000e+01
8.750000e+01
1.000000e+02
1.125000e+02
1.250000e+02
1.375000e+02
1.500000e+02
1.625000e+02
1.750000e+02
1.875000e+02
2.000000e+02
0.000000e+00
1.250000e+01
2.500000e+01
3.750000e+01
5.000000e+01
6.250000e+01
7.500000e+01
8.750000e+01
1.000000e+02
1.125000e+02
1.250000e+02
1.375000e+02
1.500000e+02
1.625000e+02
1.750000e+02
1.875000e+02
2.000000e+02
0.000000e+00
1.250000e+01
2.500000e+01
3.750000e+01
5.000000e+01
6.250000e+01
7.500000e+01
8.750000e+01
1.000000e+02
1.125000e+02
1.250000e+02
1.375000e+02
1.500000e+02
1.625000e+02
1.750000e+02
1.875000e+02
2.000000e+02
0.000000e+00
1.250000e+01
2.500000e+01
3.750000e+01
5.000000e+01
6.250000e+01
7.500000e+01
8.750000e+01
1.000000e+02
1.125000e+02
1.250000e+02
1.375000e+02
1.500000e+02
1.625000e+02
1.750000e+02
1.875000e+02
2.000000e+02
0.000000e+00
1.250000e+01
2.500000e+01
3.750000e+01
5.000000e+01
6.250000e+01
7.500000e+01
8.750000e+01
1.000000e+02
1.125000e+02
1.250000e+02
1.375000e+02
1.500000e+02
1.625000e+02
1.750000e+02
1.875000e+02
2.000000e+02
0.000000e+00
0.000000e+00
0.000000e+00
0.000000e+00
0.000000e+00
0.000000e+00
0.000000e+00
0.000000e+00
0.000000e+00
0.000000e+00
0.000000e+00
0.000000e+00
0.000000e+00
0.000000e+00
0.000000e+00
0.000000e+00
0.000000e+00
1.250000e+01
1.250000e+01
1.250000e+01
1.250000e+01
1.250000e+01
1.250000e+01
1.250000e+01
1.250000e+01
1.250000e+01
1.250000e+01
1.250000e+01
1.250000e+01
1.250000e+01
1.250000e+01
1.250000e+01
1.250000e+01
1.250000e+01
2.500000e+01
2.500000e+01
2.500000e+01
2.500000e+01
2.500000e+01
2.500000e+01
2.500000e+01
2.500000e+01
2.500000e+01
2.500000e+01
2.500000e+01
2.500000e+01
2.500000e+01
2.500000e+01
2.500000e+01
2.500000e+01
2.500000e+01
3.750000e+01
3.750000e+01
3.750000e+01
3.750000e+01
3.750000e+01
3.750000e+01
3.750000e+01
3.750000e+01
3.750000e+01
3.750000e+01
3.750000e+01
3.750000e+01
3.750000e+01
3.750000e+01
3.750000e+01
3.750000e+01
3.750000e+01
5.000000e+01
5.000000e+01
5.000000e+01
5.000000e+01
5.000000e+01
5.000000e+01
5.000000e+01
5.000000e+01
5.000000e+01
5.000000e+01
5.000000e+01
5.000000e+01
5.000000e+01
5.000000e+01
5.000000e+01
5.000000e+01
5.000000e+01
6.250000e+01
6.250000e+01
6.250000e+01
6.250000e+01
6.250000e+01
6.250000e+01
6.250000e+01
6.250000e+01
6.250000e+01
6.250000e+01
6.250000e+01
6.250000e+01
6.250000e+01
6.250000e+01
6.250000e+01
6.250000e+01
6.250000e+01
7.500000e+01
7.500000e+01
7.500000e+01
7.500000e+01
7.500000e+01
7.500000e+01
7.500000e+01
7.500000e+01
7.500000e+01
7.500000e+01
7.500000e+01
7.500000e+01
7.500000e+01
7.500000e+01
7.500000e+01
7.500000e+01
7.500000e+01
8.750000e+01
8.750000e+01
8.750000e+01
8.750000e+01
8.750000e+01
8.750000e+01
8.750000e+01
8.750000e+01
8.750000e+01
8.750000e+01
8.750000e+01
8.750000e+01
8.750000e+01
8.750000e+01
8.750000e+01
8.750000e+01
8.750000e+01
1.000000e+02
1.000000e+02
1.000000e+02
1.000000e+02
1.000000e+02
1.000000e+02
1.000000e+02
1.000000e+02
1.000000e+02
1.000000e+02
1.000000e+02
1.000000e+02
1.000000e+02
1.000000e+02
1.000000e+02
1.000000e+02
1.000000e+02
0.000000e+00
-9.966720e-01
-1.680005e+00
-2.432987e+00
-3.119969e+00
-3.753349e+00
-4.461604e+00
-5.090450e+00
-5.765604e+00
-6.407940e+00
-7.056663e+00
-7.725025e+00
-8.379284e+00
-9.148115e+00
-1.006984e+01
-1.083175e+01
-1.128616e+01
0.000000e+00
-4.460479e-01
-9.062756e-01
-1.418745e+00
-1.930263e+00
-2.409757e+00
-2.923504e+00
-3.421194e+00
-3.916680e+00
-4.419208e+00
-4.911561e+00
-5.414786e+00
-5.900223e+00
-6.419734e+00
-6.897901e+00
-7.025315e+00
-7.204725e+00
0.000000e+00
-1.454757e-01
-3.475147e-01
-6.374278e-01
-9.746022e-01
-1.298831e+00
-1.651469e+00
-2.008284e+00
-2.351542e+00
-2.713634e+00
-3.052215e+00
-3.386865e+00
-3.681068e+00
-3.919328e+00
-4.033434e+00
-4.034519e+00
-4.181218e+00
0.000000e+00
-7.812773e-02
-1.603704e-01
-3.067169e-01
-4.508487e-01
-6.231326e-01
-8.084893e-01
-9.731900e-01
-1.160061e+00
-1.321473e+00
-1.481529e+00
-1.619583e+00
-1.716310e+00
-1.726286e+00
-1.651457e+00
-1.630128e+00
-1.746533e+00
0.000000e+00
-2.581033e-03
-5.854249e-03
-8.674445e-03
-1.169756e-02
-1.343489e-02
-1.138484e-02
-6.652905e-03
3.009580e-03
1.986225e-02
4.267957e-02
8.319822e-02
1.605304e-01
2.667352e-01
3.818369e-01
4.283712e-01
3.294905e-01
0.000000e+00
7.364197e-02
1.514853e-01
2.911657e-01
4.293184e-01
5.999133e-01
7.840350e-01
9.606011e-01
1.170018e+00
1.361096e+00
1.571151e+00
1.782387e+00
2.007445e+00
2.212802e+00
2.340398e+00
2.369347e+00
2.302534e+00
0.000000e+00
1.439453e-01
3.445073e-01
6.296068e-01
9.614522e-01
1.282097e+00
1.631626e+00
1.992126e+00
2.356295e+00
2.766873e+00
3.149475e+00
3.508114e+00
3.838784e+00
4.119608e+00
4.294784e+00
4.347205e+00
4.322204e+00
0.000000e+00
4.448545e-01
9.089433e-01
1.419677e+00
1.929111e+00
2.410657e+00
2.918352e+00
3.413093e+00
3.901295e+00
4.391595e+00
4.875355e+00
5.349416e+00
5.767427e+00
6.118620e+00
6.336258e+00
6.433297e+00
6.451306e+00
0.000000e+00
9.945260e-01
1.685905e+00
2.441965e+00
3.130107e+00
3.776865e+00
4.481849e+00
5.108186e+00
5.756715e+00
6.332313e+00
6.903170e+00
7.504035e+00
8.022207e+00
8.437375e+00
8.639627e+00
8.694042e+00
8.695189e+00
0.000000e+00
-6.190421e-01
-1.362905e+00
-2.366027e+00
-3.542870e+00
-4.890116e+00
-6.426687e+00
-8.118673e+00
-9.985374e+00
-1.201483e+01
-1.420433e+01
-1.655919e+01
-1.907660e+01
-2.181188e+01
-2.477953e+01
-2.813117e+01
-3.315865e+01
0.000000e+00
-4.161394e-01
-1.194519e+00
-2.179654e+00
-3.373759e+00
-4.715956e+00
-6.249111e+00
-7.950269e+00
-9.809232e+00
-1.184749e+01
-1.403230e+01
-1.639142e+01
-1.890344e+01
-2.161874e+01
-2.463958e+01
-2.805029e+01
-3.208883e+01
0.000000e+00
-3.906866e-01
-1.092741e+00
-2.076283e+00
-3.254591e+00
-4.589719e+00
-6.129282e+00
-7.820536e+00
-9.690798e+00
-1.172663e+01
-1.392218e+01
-1.629280e+01
-1.881519e+01
-2.155226e+01
-2.462884e+01
-2.790655e+01
-3.092936e+01
0.000000e+00
-4.497111e-01
-1.089142e+00
-2.049988e+00
-3.191511e+00
-4.518763e+00
-6.066473e+00
-7.744082e+00
-9.634954e+00
-1.167039e+01
-1.388788e+01
-1.627436e+01
-1.882755e+01
-2.156049e+01
-2.455347e+01
-2.760634e+01
-3.023135e+01
0.000000e+00
-4.562546e-01
-1.111501e+00
-2.034277e+00
-3.175901e+00
-4.507898e+00
-6.042712e+00
-7.743085e+00
-9.627579e+00
-1.168482e+01
-1.391881e+01
-1.630666e+01
-1.887030e+01
-2.156545e+01
-2.439063e+01
-2.722746e+01
-2.961981e+01
0.000000e+00
-4.469134e-01
-1.088376e+00
-2.051666e+00
-3.194881e+00
-4.534750e+00
-6.091153e+00
-7.783657e+00
-9.692655e+00
-1.175264e+01
-1.399220e+01
-1.636065e+01
-1.889713e+01
-2.155928e+01
-2.425531e+01
-2.688994e+01
-2.916653e+01
0.000000e+00
-3.867707e-01
-1.091001e+00
-2.078049e+00
-3.262036e+00
-4.615264e+00
-6.174573e+00
-7.897138e+00
-9.802247e+00
-1.187204e+01
-1.407936e+01
-1.643088e+01
-1.893217e+01
-2.155801e+01
-2.417720e+01
-2.668327e+01
-2.893056e+01
0.000000e+00
-4.124767e-01
-1.191998e+00
-2.180909e+00
-3.382528e+00
-4.742359e+00
-6.301644e+00
-8.039561e+00
-9.942555e+00
-1.201159e+01
-1.419419e+01
-1.653117e+01
-1.900692e+01
-2.159589e+01
-2.415763e+01
-2.659678e+01
-2.886641e+01
0.000000e+00
-6.166102e-01
-1.361472e+00
-2.367202e+00
-3.553095e+00
-4.917850e+00
-6.479493e+00
-8.207834e+00
-1.011397e+01
-1.216675e+01
-1.434918e+01
-1.667854e+01
-1.912922e+01
-2.167650e+01
-2.418336e+01
-2.658250e+01
-2.886446e+01


0.000000e+00
1.533610e-05
2.483319e-05
3.689786e-05
5.244644e-05
6.537935e-05
8.092291e-05
9.489635e-05
1.102332e-04
1.247575e-04
1.407128e-04
1.553318e-04
1.718936e-04
1.877414e-04
1.974980e-04
2.032010e-04
2.104438e-04
0.000000e+00
1.149025e-05
1.983353e-05
2.863961e-05
4.138521e-05
5.235234e-05
6.279383e-05
7.424570e-05
8.445258e-05
9.551514e-05
1.057415e-04
1.156428e-04
1.261794e-04
1.357146e-04
1.374642e-04
1.412768e-04
1.472259e-04
0.000000e+00
9.748287e-06
1.558622e-05
2.139872e-05
3.090823e-05
3.843035e-05
4.480744e-05
5.258509e-05
5.832299e-05
6.490839e-05
7.015901e-05
7.478599e-05
7.863765e-05
8.070026e-05
8.014005e-05
8.269529e-05
8.696771e-05
0.000000e+00
5.448595e-06
7.505649e-06
1.113711e-05
1.588839e-05
1.817720e-05
2.254269e-05
2.475241e-05
2.765774e-05
2.892007e-05
3.085584e-05
2.983077e-05
2.831056e-05
2.644863e-05
2.661708e-05
3.008491e-05
3.572016e-05
0.000000e+00
-9.282906e-08
-2.340311e-07
-4.326191e-07
-6.775691e-07
-9.733036e-07
-1.355691e-06
-1.759804e-06
-2.681422e-06
-4.167146e-06
-7.492620e-06
-1.180294e-05
-1.466082e-05
-1.552987e-05
-1.512702e-05
-1.281850e-05
-8.657600e-06
0.000000e+00
-5.576578e-06
-7.860498e-06
-1.178798e-05
-1.702730e-05
-1.992061e-05
-2.466940e-05
-2.791406e-05
-3.098716e-05
-3.321545e-05
-3.706915e-05
-4.233164e-05
-4.648973e-05
-4.758796e-05
-4.814143e-05
-4.863361e-05
-4.700568e-05
0.000000e+00
-9.759927e-06
-1.560016e-05
-2.154201e-05
-3.150630e-05
-3.921398e-05
-4.615580e-05
-5.423743e-05
-5.940668e-05
-6.415303e-05
-6.860935e-05
-7.325479e-05
-7.720259e-05
-8.004686e-05
-8.224120e-05
-8.419546e-05
-8.491434e-05
0.000000e+00
-1.145542e-05
-1.975944e-05
-2.850945e-05
-4.140816e-05
-5.227647e-05
-6.286669e-05
-7.455401e-05
-8.455515e-05
-9.509849e-05
-1.054653e-04
-1.127809e-04
-1.175933e-04
-1.223961e-04
-1.257046e-04
-1.269369e-04
-1.270724e-04
0.000000e+00
-1.538959e-05
-2.487557e-05
-3.673222e-05
-5.207954e-05
-6.476848e-05
-7.962439e-05
-9.373178e-05
-1.085327e-04
-1.244956e-04
-1.426281e-04
-1.573242e-04
-1.654422e-04
-1.703883e-04
-1.725822e-04
-1.726944e-04
-1.724848e-04
0.000000e+00
1.264061e-05
1.992355e-05
3.199279e-05
4.737086e-05
6.365118e-05
8.506393e-05
1.099004e-04
1.391742e-04
1.730573e-04
2.121314e-04
2.562423e-04
3.070280e-04
3.621643e-04
4.239896e-04
4.947597e-04
5.681623e-04
0.000000e+00
7.725574e-06
1.603485e-05
2.590991e-05
4.097119e-05
5.777517e-05
7.861651e-05
1.038871e-04
1.328001e-04
1.669237e-04
2.058472e-04
2.502277e-04
3.005278e-04
3.572251e-04
4.186338e-04
4.870729e-04
5.573222e-04
0.000000e+00
4.277007e-06
1.205835e-05
2.108613e-05
3.509031e-05
5.282798e-05
7.356590e-05
9.901980e-05
1.280667e-04
1.622207e-04
2.014889e-04
2.461539e-04
2.971491e-04
3.551287e-04
4.145196e-04
4.796745e-04
5.474378e-04
0.000000e+00
2.946165e-06
9.977231e-06
1.893520e-05
3.291162e-05
5.055435e-05
7.187996e-05
9.714258e-05
1.266389e-04
1.600882e-04
1.996031e-04
2.454201e-04
2.972958e-04
3.542824e-04
4.118421e-04
4.718970e-04
5.335530e-04
0.000000e+00
2.440901e-06
9.419220e-06
1.847541e-05
3.237313e-05
5.002332e-05
7.124172e-05
9.679079e-05
1.262125e-04
1.589927e-04
1.984180e-04
2.463687e-04
2.985020e-04
3.547129e-04
4.107383e-04
4.650929e-04
5.171843e-04
0.000000e+00
3.059464e-06
1.015365e-05
1.909464e-05
3.304853e-05
5.057600e-05
7.155605e-05
9.684468e-05
1.260539e-04
1.584218e-04
1.991999e-04
2.490376e-04
3.011116e-04
3.548087e-04
4.106219e-04
4.624839e-04
5.059031e-04
0.000000e+00
4.427620e-06
1.233090e-05
2.137198e-05
3.539911e-05
5.273451e-05
7.306511e-05
9.792665e-05
1.262455e-04
1.596226e-04
2.017706e-04
2.525955e-04
3.044546e-04
3.563203e-04
4.096660e-04
4.598801e-04
5.025672e-04
0.000000e+00
7.846618e-06
1.632493e-05
2.631113e-05
4.131375e-05
5.783038e-05
7.813684e-05
1.026004e-04
1.303158e-04
1.642286e-04
2.061943e-04
2.556722e-04
3.072502e-04
3.582272e-04
4.095933e-04
4.580513e-04
5.030165e-04
0.000000e+00
1.276773e-05
2.019950e-05
3.240251e-05
4.773226e-05
6.370744e-05
8.467284e-05
1.087236e-04
1.366263e-04
1.710118e-04
2.126794e-04
2.593347e-04
3.090009e-04
3.595613e-04
4.097669e-04
4.575953e-04
5.032958e-04


5.684789e+00
6.143708e+00
6.869009e+00
5.942648e+00
5.763285e+00
6.616383e+00
6.439888e+00
6.404142e+00
5.952150e+00
5.910418e+00
6.308941e+00
7.171934e+00
8.853908e+00
9.830478e+00
9.160375e+00
8.004420e+00
8.088327e+00
8.463792e+00
8.663198e+00
8.359088e+00
8.250610e+00
8.531835e+00
8.679472e+00
8.415779e+00
8.392135e+00
8.276189e+00
8.428289e+00
8.854969e+00
9.509588e+00
9.844611e+00
8.464632e+00
6.426631e+00
9.844406e+00
9.824333e+00
1.000000e+01
9.838430e+00
9.836724e+00
9.973794e+00
9.836446e+00
9.946015e+00
9.850147e+00
9.881073e+00
9.900741e+00
9.877782e+00
9.914056e+00
9.725014e+00
8.507439e+00
6.563627e+00
1.000000e+01
1.000000e+01
1.000000e+01
1.000000e+01
1.000000e+01
1.000000e+01
1.000000e+01
1.000000e+01
1.000000e+01
1.000000e+01
9.999999e+00
9.560408e+00
8.974191e+00
8.880898e+00
8.897516e+00
8.597195e+00
1.000000e+01
1.000000e+01
1.000000e+01
1.000000e+01
1.000000e+01
1.000000e+01
1.000000e+01
1.000000e+01
1.000000e+01
9.980836e+00
9.379251e+00
8.738783e+00
7.871790e+00
8.051778e+00
9.113494e+00
9.619838e+00
9.835766e+00
9.824544e+00
1.000000e+01
9.837087e+00
9.838684e+00
9.911140e+00
9.836829e+00
9.985607e+00
9.769153e+00
9.210476e+00
8.520630e+00
8.016980e+00
8.357426e+00
8.778036e+00
9.477061e+00
9.998248e+00
8.036301e+00
8.439419e+00
8.658657e+00
8.358730e+00
8.006480e+00
8.158307e+00
8.589534e+00
8.616879e+00
8.516067e+00
8.017400e+00
7.776337e+00
8.550210e+00
9.367607e+00
9.867347e+00
9.999663e+00
1.000000e+01
5.556199e+00
6.091862e+00
6.853715e+00
5.852802e+00
5.266317e+00
5.742126e+00
6.250595e+00
6.958211e+00
6.742358e+00
6.985229e+00
8.139586e+00
9.073974e+00
9.999978e+00
1.000000e+01
1.000000e+01
1.000000e+01


-8.208535e-01
-1.673373e-01
-3.989369e-01
-2.601939e-01
-9.237078e-02
-3.077160e-01
-1.223692e-01
-2.074684e-01
-1.622438e-01
-1.552998e-01
-2.164365e-01
-1.533607e-01
-4.591202e-01
-6.698241e-01
3.069009e-01
-8.864471e-01
6.113458e-01
4.826766e-01
2.962843e-01
2.260291e-01
2.917537e-01
1.666339e-01
1.726268e-01
1.701412e-01
1.055859e-01
1.470279e-01
1.262281e-01
2.430608e-01
3.088804e-01
5.013657e-01
7.003936e-01
-8.744092e-01
7.230001e-01
4.716883e-01
5.589791e-02
-2.429319e-02
-3.945860e-02
-1.982694e-01
-9.290877e-02
-1.503452e-01
-8.693245e-02
-2.122307e-02
3.631767e-02
1.754008e-01
2.821941e-01
1.317605e-01
-4.030846e-02
-1.080673e-01
7.279007e-01
5.547827e-01
1.896473e-01
5.778835e-02
-2.778760e-02
-1.137400e-01
-2.880227e-02
-7.306527e-02
7.267885e-03
9.575256e-03
6.246623e-02
8.132789e-02
5.228725e-02
-2.953877e-01
-5.016059e-01
-1.303275e-01
7.312908e-01
5.572709e-01
1.950121e-01
6.271492e-02
-3.597867e-02
-1.261805e-01
-5.941345e-02
-1.107770e-01
-4.821812e-02
-5.226450e-02
3.420481e-02
-1.218144e-02
-2.629304e-02
-7.984357e-02
-1.499124e-01
2.523152e-01
7.308511e-01
4.780901e-01
7.249520e-02
-6.005569e-03
-5.565429e-02
-2.212179e-01
-1.717055e-01
-2.850582e-01
-2.425866e-01
-1.403685e-01
-5.514013e-02
-1.066677e-01
-1.240815e-01
9.848109e-02
3.598679e-01
7.277697e-01
6.170901e-01
4.814448e-01
3.086003e-01
2.397182e-01
2.901691e-01
1.696346e-01
1.393894e-01
8.351598e-02
-7.343282e-02
-6.961678e-02
-8.003634e-02
-3.939554e-02
2.525251e-02
3.695233e-01
7.118028e-01
9.460261e-01
-8.112290e-01
-1.906796e-01
-4.014049e-01
-2.586618e-01
-1.218767e-01
-2.904152e-01
-1.157853e-01
-1.508911e-01
-3.352574e-02
-2.715913e-02
-8.912223e-02
1.370820e-01
3.732934e-01
7.721902e-01
9.519697e-01
9.985871e-01
1 2 19 18
2 3 20 19
3 4 21 20
4 5 22 21
5 6 23 22
6 7 24 23
7 8 25 24
8 9 26 25
9 10 27 26
10 11 28 27
11 12 29 28
12 13 30 29
13 14 31 30
14 15 32 31
15 16 33 32
16 17 34 33
18 19 36 35
19 20 37 36
20 21 38 37
21 22 39 38
22 23 40 39
23 24 41 40
24 25 42 41
25 26 43 42
26 27 44 43
27 28 45 44
28 29 46 45
29 30 47 46
30 31 48 47
31 32 49 48
32 33 50 49
33 34 51 50
35 36 53 52
36 37 54 53
37 38 55 54
38 39 56 55
39 40 57 56
40 41 58 57
41 42 59 58
42 43 60 59
43 44 61 60
44 45 62 61
45 46 63 62
46 47 64 63
47 48 65 64
48 49 66 65
49 50 67 66
50 51 68 67
52 53 70 69
53 54 71 70
54 55 72 71
55 56 73 72
56 57 74 73
57 58 75 74
58 59 76 75
59 60 77 76
60 61 78 77
61 62 79 78
62 63 80 79
63 64 81 80
64 65 82 81
65 66 83 82
66 67 84 83
67 68 85 84
69 70 87 86
70 71 88 87
71 72 89 88
72 73 90 89
73 74 91 90
74 75 92 91
75 76 93 92
76 77 94 93
77 78 95 94
78 79 96 95
79 80 97 96
80 81 98 97
81 82 99 98
82 83 100 99
83 84 101 100
84 85 102 101
86 87 104 103
87 88 105 104
88 89 106 105
89 90 107 106
90 91 108 107
91 92 109 108
92 93 110 109
93 94 111 110
94 95 112 111
95 96 113 112
96 97 114 113
97 98 115 114
98 99 116 115
99 100 117 116
100 101 118 117
101 102 119 118
103 104 121 120
104 105 122 121
105 106 123 122
106 107 124 123
107 108 125 124
108 109 126 125
109 110 127 126
110 111 128 127
111 112 129 128
112 113 130 129
113 114 131 130
114 115 132 131
115 116 133 132
116 117 134 133
117 118 135 134
118 119 136 135
120 121 138 137
121 122 139 138
122 123 140 139
123 124 141 140
124 125 142 141
125 126 143 142
126 127 144 143
127 128 145 144
128 129 146 145
129 130 147 146
130 131 148 147
131 132 149 148
132 133 150 149
133 134 151 150
134 135 152 151
135 136 153 152
