TITLE = "Solution"
VARIABLES = x, y, u, v, psiu, psiv, t, stress
ZONE T="structure" N=153 E=128 F=FEBLOCK ET=QUADRILATERAL VARLOCATION=([7,8]=cellcentered)
0.000000e+00
1.250000e+01
2.500000e+01
3.750000e+01
5.000000e+01
6.250000e+01
7.500000e+01
8.750000e+01
1.000000e+02
1.125000e+02
1.250000e+02
1.375000e+02
1.500000e+02
1.625000e+02
1.750000e+02
1.875000e+02
2.000000e+02
0.000000e+00
1.250000e+01
2.500000e+01
3.750000e+01
5.000000e+01
6.250000e+01
7.500000e+01
8.750000e+01
1.000000e+02
1.125000e+02
1.250000e+02
1.375000e+02
1.500000e+02
1.625000e+02
1.750000e+02
1.875000e+02
2.000000e+02
0.000000e+00
1.250000e+01
2.500000e+01
3.750000e+01
5.000000e+01
6.250000e+01
7.500000e+01
8.750000e+01
1.000000e+02
1.125000e+02
1.250000e+02
1.375000e+02
1.500000e+02
1.625000e+02
1.750000e+02
1.875000e+02
2.000000e+02
0.000000e+00
1.250000e+01
2.500000e+01
3.750000e+01
5.000000e+01
6.250000e+01
7.500000e+01
8.750000e+01
1.000000e+02
1.125000e+02
1.250000e+02
1.375000e+02
1.500000e+02
1.625000e+02
1.750000e+02
1.875000e+02
2.000000e+02
0.000000e+00
1.250000e+01
2.500000e+01
3.750000e+01
5.000000e+01
6.250000e+01
7.500000e+01
8.750000e+01
1.000000e+02
1.125000e+02
1.250000e+02
1.375000e+02
1.500000e+02
1.625000e+02
1.750000e+02
1.875000e+02
2.000000e+02
0.000000e+00
1.250000e+01
2.500000e+01
3.750000e+01
5.000000e+01
6.250000e+01
7.500000e+01
8.750000e+01
1.000000e+02
1.125000e+02
1.250000e+02
1.375000e+02
1.500000e+02
1.625000e+02
1.750000e+02
1.875000e+02
2.000000e+02
0.000000e+00
1.250000e+01
2.500000e+01
3.750000e+01
5.000000e+01
6.250000e+01
7.500000e+01
8.750000e+01
1.000000e+02
1.125000e+02
1.250000e+02
1.375000e+02
1.500000e+02
1.625000e+02
1.750000e+02
1.875000e+02
2.000000e+02
0.000000e+00
1.250000e+01
2.500000e+01
3.750000e+01
5.000000e+01
6.250000e+01
7.500000e+01
8.750000e+01
1.000000e+02
1.125000e+02
1.250000e+02
1.375000e+02
1.500000e+02
1.625000e+02
1.750000e+02
1.875000e+02
2.000000e+02
0.000000e+00
1.250000e+01
2.500000e+01
3.750000e+01
5.000000e+01
6.250000e+01
7.500000e+01
8.750000e+01
1.000000e+02
1.125000e+02
1.250000e+02
1.375000e+02
1.500000e+02
1.625000e+02
1.750000e+02
1.875000e+02
2.000000e+02
0.000000e+00
0.000000e+00
0.000000e+00
0.000000e+00
0.000000e+00
0.000000e+00
0.000000e+00
0.000000e+00
0.000000e+00
0.000000e+00
0.000000e+00
0.000000e+00
0.000000e+00
0.000000e+00
0.000000e+00
0.000000e+00
0.000000e+00
1.250000e+01
1.250000e+01
1.250000e+01
1.250000e+01
1.250000e+01
1.250000e+01
1.250000e+01
1.250000e+01
1.250000e+01
1.250000e+01
1.250000e+01
1.250000e+01
1.250000e+01
1.250000e+01
1.250000e+01
1.250000e+01
1.250000e+01
2.500000e+01
2.500000e+01
2.500000e+01
2.500000e+01
2.500000e+01
2.500000e+01
2.500000e+01
2.500000e+01
2.500000e+01
2.500000e+01
2.500000e+01
2.500000e+01
2.500000e+01
2.500000e+01
2.500000e+01
2.500000e+01
2.500000e+01
3.750000e+01
3.750000e+01
3.750000e+01
3.750000e+01
3.750000e+01
3.750000e+01
3.750000e+01
3.750000e+01
3.750000e+01
3.750000e+01
3.750000e+01
3.750000e+01
3.750000e+01
3.750000e+01
3.750000e+01
3.750000e+01
3.750000e+01
5.000000e+01
5.000000e+01
5.000000e+01
5.000000e+01
5.000000e+01
5.000000e+01
5.000000e+01
5.000000e+01
5.000000e+01
5.000000e+01
5.000000e+01
5.000000e+01
5.000000e+01
5.000000e+01
5.000000e+01
5.000000e+01
5.000000e+01
6.250000e+01
6.250000e+01
6.250000e+01
6.250000e+01
6.250000e+01
6.250000e+01
6.250000e+01
6.250000e+01
6.250000e+01
6.250000e+01
6.250000e+01
6.250000e+01
6.250000e+01
6.250000e+01
6.250000e+01
6.250000e+01
6.250000e+01
7.500000e+01
7.500000e+01
7.500000e+01
7.500000e+01
7.500000e+01
7.500000e+01
7.500000e+01
7.500000e+01
7.500000e+01
7.500000e+01
7.500000e+01
7.500000e+01
7.500000e+01
7.500000e+01
7.500000e+01
7.500000e+01
7.500000e+01
8.750000e+01
8.750000e+01
8.750000e+01
8.750000e+01
8.750000e+01
8.750000e+01
8.750000e+01
8.750000e+01
8.750000e+01
8.750000e+01
8.750000e+01
8.750000e+01
8.750000e+01
8.750000e+01
8.750000e+01
8.750000e+01
8.750000e+01
1.000000e+02
1.000000e+02
1.000000e+02
1.000000e+02
1.000000e+02
1.000000e+02
1.000000e+02
1.000000e+02
1.000000e+02
1.000000e+02
1.000000e+02
1.000000e+02
1.000000e+02
1.000000e+02
1.000000e+02
1.000000e+02
1.000000e+02
0.000000e+00
-8.918396e-01
-1.577162e+00
-2.264385e+00
-2.952454e+00
-3.612433e+00
-4.280511e+00
-4.950280e+00
-5.610861e+00
-6.270896e+00
-6.939814e+00
-7.622261e+00
-8.312209e+00
-9.000109e+00
-9.683865e+00
-1.034782e+01
-1.078646e+01
0.000000e+00
-4.560454e-01
-9.450774e-01
-1.445080e+00
-1.961060e+00
-2.455088e+00
-2.954476e+00
-3.456381e+00
-3.950365e+00
-4.441198e+00
-4.933363e+00
-5.425041e+00
-5.901285e+00
-6.326458e+00
-6.621595e+00
-6.693147e+00
-6.850661e+00
0.000000e+00
-2.240123e-01
-4.854341e-01
-7.999136e-01
-1.137938e+00
-1.469995e+00
-1.808618e+00
-2.147667e+00
-2.480915e+00
-2.807953e+00
-3.123971e+00
-3.416950e+00
-3.663566e+00
-3.826173e+00
-3.862569e+00
-3.835473e+00
-3.988665e+00
0.000000e+00
-9.604549e-02
-2.079795e-01
-3.537628e-01
-5.121609e-01
-6.795901e-01
-8.500154e-01
-1.018405e+00
-1.181955e+00
-1.335663e+00
-1.470637e+00
-1.573054e+00
-1.625046e+00
-1.612099e+00
-1.554387e+00
-1.555847e+00
-1.685567e+00
0.000000e+00
-1.060444e-03
-2.097317e-03
-2.874438e-03
-3.016231e-03
-1.925429e-03
1.434586e-03
8.748163e-03
2.240075e-02
4.608301e-02
8.567955e-02
1.484229e-01
2.385315e-01
3.465052e-01
4.307678e-01
4.320587e-01
3.321993e-01
0.000000e+00
9.422020e-02
2.043805e-01
3.486641e-01
5.065056e-01
6.753087e-01
8.508398e-01
1.030707e+00
1.216070e+00
1.408370e+00
1.607814e+00
1.811280e+00
2.009026e+00
2.179411e+00
2.288032e+00
2.306231e+00
2.250684e+00
0.000000e+00
2.230589e-01
4.834757e-01
7.969311e-01
1.133958e+00
1.465732e+00
1.805817e+00
2.148497e+00
2.489099e+00
2.831819e+00
3.174899e+00
3.504285e+00
3.796480e+00
4.025429e+00
4.168238e+00
4.216756e+00
4.203917e+00
0.000000e+00
4.560721e-01
9.450200e-01
1.444862e+00
1.960080e+00
2.452846e+00
2.950803e+00
3.448838e+00
3.934948e+00
4.416890e+00
4.894831e+00
5.344013e+00
5.724748e+00
6.006195e+00
6.178309e+00
6.252423e+00
6.266229e+00
0.000000e+00
8.926800e-01
1.578996e+00
2.267503e+00
2.956436e+00
3.616565e+00
4.284301e+00
4.949685e+00
5.598845e+00
6.242276e+00
6.875930e+00
7.458083e+00
7.927163e+00
8.240051e+00
8.393436e+00
8.430474e+00
8.429162e+00
0.000000e+00
-5.526240e-01
-1.169224e+00
-1.988474e+00
-2.976424e+00
-4.131253e+00
-5.464350e+00
-6.970862e+00
-8.649562e+00
-1.050437e+01
-1.253828e+01
-1.475364e+01
-1.715145e+01
-1.973656e+01
-2.255724e+01
-2.582238e+01
-3.062102e+01
0.000000e+00
-3.559051e-01
-1.001570e+00
-1.809194e+00
-2.801156e+00
-3.957907e+00
-5.289249e+00
-6.797237e+00
-8.478055e+00
-1.033315e+01
-1.236640e+01
-1.458278e+01
-1.698727e+01
-1.959277e+01
-2.244558e+01
-2.572027e+01
-2.969910e+01
0.000000e+00
-3.053707e-01
-8.946686e-01
-1.693896e+00
-2.679240e+00
-3.834914e+00
-5.166425e+00
-6.675829e+00
-8.359802e+00
-1.021967e+01
-1.226039e+01
-1.448889e+01
-1.691353e+01
-1.955284e+01
-2.243521e+01
-2.553949e+01
-2.846367e+01
0.000000e+00
-3.176671e-01
-8.638874e-01
-1.640284e+00
-2.611705e+00
-3.764307e+00
-5.096884e+00
-6.608535e+00
-8.297844e+00
-1.016735e+01
-1.222290e+01
-1.447059e+01
-1.691499e+01
-1.956021e+01
-2.238035e+01
-2.520481e+01
-2.767975e+01
0.000000e+00
-3.256162e-01
-8.629851e-01
-1.626927e+00
-2.593095e+00
-3.744720e+00
-5.079842e+00
-6.595533e+00
-8.291149e+00
-1.017074e+01
-1.224071e+01
-1.450347e+01
-1.695166e+01
-1.956133e+01
-2.225571e+01
-2.486059e+01
-2.710304e+01
0.000000e+00
-3.176034e-01
-8.645215e-01
-1.642546e+00
-2.616667e+00
-3.773311e+00
-5.112332e+00
-6.633000e+00
-8.333450e+00
-1.021862e+01
-1.229623e+01
-1.456408e+01
-1.699980e+01
-1.955302e+01
-2.213014e+01
-2.458585e+01
-2.673292e+01
0.000000e+00
-3.052665e-01
-8.956724e-01
-1.697463e+00
-2.687165e+00
-3.849473e+00
-5.191503e+00
-6.715738e+00
-8.418298e+00
-1.030437e+01
-1.238245e+01
-1.464625e+01
-1.706080e+01
-1.956000e+01
-2.204917e+01
-2.441775e+01
-2.656233e+01
0.000000e+00
-3.558202e-01
-1.002665e+00
-1.813046e+00
-2.809858e+00
-3.974151e+00
-5.317173e+00
-6.841573e+00
-8.543637e+00
-1.042873e+01
-1.250314e+01
-1.475561e+01
-1.714438e+01
-1.959846e+01
-2.202778e+01
-2.434643e+01
-2.652298e+01
0.000000e+00
-5.527345e-01
-1.170525e+00
-1.992523e+00
-2.985231e+00
-4.147683e+00
-5.492176e+00
-7.014004e+00
-8.713262e+00
-1.059719e+01
-1.266544e+01
-1.489836e+01
-1.725214e+01
-1.966108e+01
-2.204497e+01
-2.433310e+01
-2.652419e+01


0.000000e+00
1.326066e-05
2.379936e-05
3.511220e-05
4.877738e-05
6.156870e-05
7.380182e-05
8.627113e-05
9.823052e-05
1.096017e-04
1.204912e-04
1.297159e-04
1.361699e-04
1.405154e-04
1.437981e-04
1.471156e-04
1.508966e-04
0.000000e+00
9.773959e-06
1.914613e-05
2.752630e-05
3.837355e-05
4.834707e-05
5.732896e-05
6.668347e-05
7.568386e-05
8.404536e-05
9.189661e-05
9.804470e-05
1.012523e-04
1.018802e-04
1.019625e-04
1.046927e-04
1.091265e-04
0.000000e+00
7.694271e-06
1.423799e-05
1.996670e-05
2.733970e-05
3.391994e-05
3.983713e-05
4.593290e-05
5.163163e-05
5.670203e-05
6.108620e-05
6.409169e-05
6.520913e-05
6.494692e-05
6.502312e-05
6.767288e-05
7.212787e-05
0.000000e+00
3.956912e-06
6.737184e-06
1.023272e-05
1.365668e-05
1.672615e-05
1.980541e-05
2.271762e-05
2.529114e-05
2.746621e-05
2.907115e-05
2.997187e-05
3.031700e-05
3.060113e-05
3.140575e-05
3.366844e-05
3.718802e-05
0.000000e+00
-2.415968e-08
-5.276238e-08
-8.332977e-08
-1.161469e-07
-1.491839e-07
-1.871686e-07
-2.428431e-07
-3.429559e-07
-5.618335e-07
-9.767099e-07
-1.477300e-06
-1.794474e-06
-1.597434e-06
-8.166333e-07
3.587880e-07
2.135231e-06
0.000000e+00
-3.999164e-06
-6.825003e-06
-1.037986e-05
-1.385716e-05
-1.698089e-05
-2.012224e-05
-2.307409e-05
-2.570966e-05
-2.811682e-05
-3.014676e-05
-3.168626e-05
-3.262687e-05
-3.294105e-05
-3.300531e-05
-3.298998e-05
-3.246958e-05
0.000000e+00
-7.711590e-06
-1.428748e-05
-2.005514e-05
-2.746927e-05
-3.411647e-05
-4.007366e-05
-4.611974e-05
-5.181318e-05
-5.680847e-05
-6.070353e-05
-6.311554e-05
-6.441205e-05
-6.516145e-05
-6.568009e-05
-6.602525e-05
-6.600407e-05
0.000000e+00
-9.767663e-06
-1.914672e-05
-2.753058e-05
-3.837917e-05
-4.839907e-05
-5.739297e-05
-6.664607e-05
-7.571352e-05
-8.407113e-05
-9.084727e-05
-9.505783e-05
-9.722447e-05
-9.843388e-05
-9.917235e-05
-9.955063e-05
-9.962752e-05
0.000000e+00
-1.325079e-05
-2.376561e-05
-3.504147e-05
-4.864584e-05
-6.139454e-05
-7.356371e-05
-8.588268e-05
-9.784943e-05
-1.092787e-04
-1.191540e-04
-1.261225e-04
-1.302617e-04
-1.324438e-04
-1.334206e-04
-1.337106e-04
-1.337388e-04
0.000000e+00
1.125621e-05
1.871526e-05
2.917095e-05
4.300637e-05
5.866048e-05
7.774945e-05
1.005136e-04
1.260842e-04
1.545793e-04
1.857327e-04
2.184857e-04
2.526315e-04
2.894501e-04
3.322532e-04
3.817822e-04
4.317877e-04
0.000000e+00
6.268770e-06
1.435457e-05
2.368270e-05
3.699204e-05
5.314434e-05
7.232628e-05
9.506820e-05
1.209298e-04
1.497141e-04
1.813974e-04
2.153777e-04
2.509913e-04
2.885313e-04
3.293917e-04
3.763787e-04
4.250079e-04
0.000000e+00
2.999247e-06
1.041250e-05
1.956123e-05
3.239196e-05
4.893542e-05
6.842923e-05
9.121294e-05
1.173420e-04
1.465152e-04
1.787059e-04
2.135583e-04
2.502294e-04
2.878613e-04
3.257004e-04
3.690144e-04
4.155761e-04
0.000000e+00
1.817696e-06
8.387376e-06
1.772633e-05
3.055876e-05
4.712895e-05
6.679532e-05
8.972776e-05
1.160260e-04
1.454731e-04
1.779190e-04
2.129460e-04
2.497749e-04
2.870053e-04
3.228409e-04
3.622736e-04
4.055564e-04
0.000000e+00
1.517280e-06
7.777303e-06
1.713030e-05
3.007765e-05
4.656076e-05
6.627764e-05
8.930698e-05
1.156965e-04
1.453343e-04
1.779297e-04
2.129073e-04
2.494961e-04
2.864459e-04
3.218513e-04
3.585994e-04
3.978943e-04
0.000000e+00
1.827795e-06
8.394532e-06
1.772164e-05
3.052385e-05
4.706198e-05
6.671668e-05
8.963625e-05
1.160093e-04
1.457766e-04
1.785550e-04
2.135367e-04
2.498359e-04
2.863253e-04
3.220614e-04
3.577230e-04
3.937078e-04
0.000000e+00
3.014801e-06
1.042641e-05
1.955838e-05
3.234100e-05
4.883291e-05
6.829987e-05
9.103877e-05
1.173036e-04
1.470513e-04
1.798820e-04
2.147561e-04
2.506177e-04
2.866441e-04
3.222300e-04
3.574294e-04
3.919958e-04
0.000000e+00
6.288643e-06
1.437727e-05
2.368992e-05
3.695943e-05
5.305201e-05
7.217086e-05
9.487211e-05
1.209010e-04
1.502076e-04
1.823958e-04
2.164156e-04
2.514910e-04
2.870083e-04
3.223481e-04
3.572528e-04
3.915586e-04
0.000000e+00
1.127699e-05
1.874130e-05
2.918207e-05
4.298885e-05
5.859182e-05
7.758117e-05
1.003164e-04
1.261194e-04
1.548910e-04
1.859325e-04
2.184871e-04
2.524868e-04
2.874264e-04
3.224929e-04
3.572215e-04
3.915218e-04


2.641678e+00
2.518758e+00
2.601434e+00
2.666335e+00
2.734634e+00
3.005063e+00
3.294191e+00
3.621648e+00
4.090504e+00
4.726198e+00
5.484559e+00
6.190856e+00
6.605696e+00
6.393308e+00
5.443988e+00
4.581220e+00
4.102351e+00
3.982047e+00
3.992557e+00
4.005280e+00
4.022944e+00
4.199326e+00
4.391982e+00
4.609940e+00
4.933373e+00
5.380949e+00
5.920839e+00
6.424787e+00
6.679141e+00
6.300963e+00
5.210036e+00
4.211516e+00
5.908239e+00
5.839685e+00
5.819900e+00
5.782820e+00
5.765103e+00
5.829758e+00
5.893408e+00
5.966518e+00
6.085824e+00
6.260247e+00
6.482258e+00
6.694224e+00
6.760811e+00
6.352346e+00
5.376740e+00
4.559781e+00
6.847196e+00
6.816219e+00
6.794869e+00
6.748955e+00
6.729564e+00
6.732703e+00
6.726145e+00
6.714575e+00
6.706383e+00
6.706971e+00
6.725106e+00
6.758240e+00
6.756717e+00
6.528288e+00
6.014995e+00
5.591010e+00
6.846790e+00
6.815320e+00
6.793195e+00
6.745921e+00
6.724505e+00
6.724589e+00
6.710774e+00
6.685472e+00
6.662243e+00
6.650663e+00
6.656823e+00
6.687877e+00
6.734757e+00
6.714822e+00
6.586906e+00
6.468735e+00
5.906681e+00
5.836804e+00
5.814548e+00
5.773230e+00
5.750379e+00
5.808384e+00
5.854253e+00
5.900051e+00
6.009268e+00
6.192705e+00
6.406539e+00
6.602427e+00
6.765504e+00
6.878637e+00
6.927476e+00
6.939413e+00
4.100119e+00
3.978375e+00
3.986242e+00
3.993941e+00
4.007651e+00
4.181780e+00
4.361848e+00
4.574947e+00
4.955591e+00
5.498799e+00
6.066943e+00
6.518991e+00
6.818256e+00
6.999306e+00
7.097433e+00
7.137875e+00
2.639831e+00
2.516246e+00
2.597604e+00
2.659365e+00
2.727736e+00
3.004680e+00
3.296014e+00
3.650817e+00
4.243729e+00
5.051487e+00
5.864334e+00
6.481517e+00
6.858902e+00
7.063326e+00
7.164761e+00
7.206038e+00


-5.976859e-01
-2.215107e-01
-2.356163e-01
-2.709099e-01
-1.714105e-01
-1.991765e-01
-2.092752e-01
-1.769278e-01
-1.713351e-01
-1.926874e-01
-2.168028e-01
-1.928522e-01
-7.309438e-02
1.768782e-01
5.185261e-01
-6.408308e-01
5.462914e-01
4.109467e-01
3.311824e-01
2.704247e-01
3.081730e-01
2.806450e-01
2.640282e-01
2.734856e-01
2.764965e-01
2.836086e-01
3.211156e-01
4.248934e-01
6.105865e-01
8.209431e-01
7.443452e-01
-1.237401e+00
8.195397e-01
6.786060e-01
5.418902e-01
4.872933e-01
4.771351e-01
4.528683e-01
4.418323e-01
4.431652e-01
4.485489e-01
4.647332e-01
4.995487e-01
5.499297e-01
5.694932e-01
4.591230e-01
1.770608e-01
-3.274047e-01
8.758016e-01
7.524162e-01
6.082345e-01
5.299730e-01
4.938267e-01
4.752355e-01
4.681068e-01
4.670417e-01
4.631081e-01
4.467229e-01
4.089270e-01
3.341436e-01
1.936640e-01
1.472155e-02
-2.532298e-03
8.003029e-02
8.765800e-01
7.532601e-01
6.086475e-01
5.285004e-01
4.885300e-01
4.625244e-01
4.436497e-01
4.249501e-01
3.918488e-01
3.296522e-01
2.334906e-01
1.115045e-01
-4.606536e-03
-1.551387e-02
1.826566e-01
5.082191e-01
8.214106e-01
6.807205e-01
5.433564e-01
4.856830e-01
4.684966e-01
4.298433e-01
3.957424e-01
3.608921e-01
3.019493e-01
2.167854e-01
1.258018e-01
6.621734e-02
8.841567e-02
2.465363e-01
5.298637e-01
8.326785e-01
5.477202e-01
4.125135e-01
3.323972e-01
2.711937e-01
3.058753e-01
2.703452e-01
2.438146e-01
2.360283e-01
1.950214e-01
1.355404e-01
1.192335e-01
1.933845e-01
3.567810e-01
5.852946e-01
8.199582e-01
9.705579e-01
-5.993548e-01
-2.233866e-01
-2.380000e-01
-2.714214e-01
-1.699387e-01
-1.971788e-01
-1.957364e-01
-1.450007e-01
-1.336890e-01
-1.189256e-01
1.627383e-02
3.021450e-01
6.236372e-01
8.583822e-01
9.721301e-01
9.994562e-01
1 2 19 18
2 3 20 19
3 4 21 20
4 5 22 21
5 6 23 22
6 7 24 23
7 8 25 24
8 9 26 25
9 10 27 26
10 11 28 27
11 12 29 28
12 13 30 29
13 14 31 30
14 15 32 31
15 16 33 32
16 17 34 33
18 19 36 35
19 20 37 36
20 21 38 37
21 22 39 38
22 23 40 39
23 24 41 40
24 25 42 41
25 26 43 42
26 27 44 43
27 28 45 44
28 29 46 45
29 30 47 46
30 31 48 47
31 32 49 48
32 33 50 49
33 34 51 50
35 36 53 52
36 37 54 53
37 38 55 54
38 39 56 55
39 40 57 56
40 41 58 57
41 42 59 58
42 43 60 59
43 44 61 60
44 45 62 61
45 46 63 62
46 47 64 63
47 48 65 64
48 49 66 65
49 50 67 66
50 51 68 67
52 53 70 69
53 54 71 70
54 55 72 71
55 56 73 72
56 57 74 73
57 58 75 74
58 59 76 75
59 60 77 76
60 61 78 77
61 62 79 78
62 63 80 79
63 64 81 80
64 65 82 81
65 66 83 82
66 67 84 83
67 68 85 84
69 70 87 86
70 71 88 87
71 72 89 88
72 73 90 89
73 74 91 90
74 75 92 91
75 76 93 92
76 77 94 93
77 78 95 94
78 79 96 95
79 80 97 96
80 81 98 97
81 82 99 98
82 83 100 99
83 84 101 100
84 85 102 101
86 87 104 103
87 88 105 104
88 89 106 105
89 90 107 106
90 91 108 107
91 92 109 108
92 93 110 109
93 94 111 110
94 95 112 111
95 96 113 112
96 97 114 113
97 98 115 114
98 99 116 115
99 100 117 116
100 101 118 117
101 102 119 118
103 104 121 120
104 105 122 121
105 106 123 122
106 107 124 123
107 108 125 124
108 109 126 125
109 110 127 126
110 111 128 127
111 112 129 128
112 113 130 129
113 114 131 130
114 115 132 131
115 116 133 132
116 117 134 133
117 118 135 134
118 119 136 135
120 121 138 137
121 122 139 138
122 123 140 139
123 124 141 140
124 125 142 141
125 126 143 142
126 127 144 143
127 128 145 144
128 129 146 145
129 130 147 146
130 131 148 147
131 132 149 148
132 133 150 149
133 134 151 150
134 135 152 151
135 136 153 152
