TITLE = "Solution"
VARIABLES = x, y, u, v, psiu, psiv, t, stress
ZONE T="structure" N=153 E=128 F=FEBLOCK ET=QUADRILATERAL VARLOCATION=([7,8]=cellcentered)
0.000000e+00
1.250000e+01
2.500000e+01
3.750000e+01
5.000000e+01
6.250000e+01
7.500000e+01
8.750000e+01
1.000000e+02
1.125000e+02
1.250000e+02
1.375000e+02
1.500000e+02
1.625000e+02
1.750000e+02
1.875000e+02
2.000000e+02
0.000000e+00
1.250000e+01
2.500000e+01
3.750000e+01
5.000000e+01
6.250000e+01
7.500000e+01
8.750000e+01
1.000000e+02
1.125000e+02
1.250000e+02
1.375000e+02
1.500000e+02
1.625000e+02
1.750000e+02
1.875000e+02
2.000000e+02
0.000000e+00
1.250000e+01
2.500000e+01
3.750000e+01
5.000000e+01
6.250000e+01
7.500000e+01
8.750000e+01
1.000000e+02
1.125000e+02
1.250000e+02
1.375000e+02
1.500000e+02
1.625000e+02
1.750000e+02
1.875000e+02
2.000000e+02
0.000000e+00
1.250000e+01
2.500000e+01
3.750000e+01
5.000000e+01
6.250000e+01
7.500000e+01
8.750000e+01
1.000000e+02
1.125000e+02
1.250000e+02
1.375000e+02
1.500000e+02
1.625000e+02
1.750000e+02
1.875000e+02
2.000000e+02
0.000000e+00
1.250000e+01
2.500000e+01
3.750000e+01
5.000000e+01
6.250000e+01
7.500000e+01
8.750000e+01
1.000000e+02
1.125000e+02
1.250000e+02
1.375000e+02
1.500000e+02
1.625000e+02
1.750000e+02
1.875000e+02
2.000000e+02
0.000000e+00
1.250000e+01
2.500000e+01
3.750000e+01
5.000000e+01
6.250000e+01
7.500000e+01
8.750000e+01
1.000000e+02
1.125000e+02
1.250000e+02
1.375000e+02
1.500000e+02
1.625000e+02
1.750000e+02
1.875000e+02
2.000000e+02
0.000000e+00
1.250000e+01
2.500000e+01
3.750000e+01
5.000000e+01
6.250000e+01
7.500000e+01
8.750000e+01
1.000000e+02
1.125000e+02
1.250000e+02
1.375000e+02
1.500000e+02
1.625000e+02
1.750000e+02
1.875000e+02
2.000000e+02
0.000000e+00
1.250000e+01
2.500000e+01
3.750000e+01
5.000000e+01
6.250000e+01
7.500000e+01
8.750000e+01
1.000000e+02
1.125000e+02
1.250000e+02
1.375000e+02
1.500000e+02
1.625000e+02
1.750000e+02
1.875000e+02
2.000000e+02
0.000000e+00
1.250000e+01
2.500000e+01
3.750000e+01
5.000000e+01
6.250000e+01
7.500000e+01
8.750000e+01
1.000000e+02
1.125000e+02
1.250000e+02
1.375000e+02
1.500000e+02
1.625000e+02
1.750000e+02
1.875000e+02
2.000000e+02
0.000000e+00
0.000000e+00
0.000000e+00
0.000000e+00
0.000000e+00
0.000000e+00
0.000000e+00
0.000000e+00
0.000000e+00
0.000000e+00
0.000000e+00
0.000000e+00
0.000000e+00
0.000000e+00
0.000000e+00
0.000000e+00
0.000000e+00
1.250000e+01
1.250000e+01
1.250000e+01
1.250000e+01
1.250000e+01
1.250000e+01
1.250000e+01
1.250000e+01
1.250000e+01
1.250000e+01
1.250000e+01
1.250000e+01
1.250000e+01
1.250000e+01
1.250000e+01
1.250000e+01
1.250000e+01
2.500000e+01
2.500000e+01
2.500000e+01
2.500000e+01
2.500000e+01
2.500000e+01
2.500000e+01
2.500000e+01
2.500000e+01
2.500000e+01
2.500000e+01
2.500000e+01
2.500000e+01
2.500000e+01
2.500000e+01
2.500000e+01
2.500000e+01
3.750000e+01
3.750000e+01
3.750000e+01
3.750000e+01
3.750000e+01
3.750000e+01
3.750000e+01
3.750000e+01
3.750000e+01
3.750000e+01
3.750000e+01
3.750000e+01
3.750000e+01
3.750000e+01
3.750000e+01
3.750000e+01
3.750000e+01
5.000000e+01
5.000000e+01
5.000000e+01
5.000000e+01
5.000000e+01
5.000000e+01
5.000000e+01
5.000000e+01
5.000000e+01
5.000000e+01
5.000000e+01
5.000000e+01
5.000000e+01
5.000000e+01
5.000000e+01
5.000000e+01
5.000000e+01
6.250000e+01
6.250000e+01
6.250000e+01
6.250000e+01
6.250000e+01
6.250000e+01
6.250000e+01
6.250000e+01
6.250000e+01
6.250000e+01
6.250000e+01
6.250000e+01
6.250000e+01
6.250000e+01
6.250000e+01
6.250000e+01
6.250000e+01
7.500000e+01
7.500000e+01
7.500000e+01
7.500000e+01
7.500000e+01
7.500000e+01
7.500000e+01
7.500000e+01
7.500000e+01
7.500000e+01
7.500000e+01
7.500000e+01
7.500000e+01
7.500000e+01
7.500000e+01
7.500000e+01
7.500000e+01
8.750000e+01
8.750000e+01
8.750000e+01
8.750000e+01
8.750000e+01
8.750000e+01
8.750000e+01
8.750000e+01
8.750000e+01
8.750000e+01
8.750000e+01
8.750000e+01
8.750000e+01
8.750000e+01
8.750000e+01
8.750000e+01
8.750000e+01
1.000000e+02
1.000000e+02
1.000000e+02
1.000000e+02
1.000000e+02
1.000000e+02
1.000000e+02
1.000000e+02
1.000000e+02
1.000000e+02
1.000000e+02
1.000000e+02
1.000000e+02
1.000000e+02
1.000000e+02
1.000000e+02
1.000000e+02
0.000000e+00
-7.720861e-02
-1.421655e-01
-2.019343e-01
-2.575958e-01
-3.090327e-01
-3.561346e-01
-3.988648e-01
-4.372855e-01
-4.715738e-01
-5.020694e-01
-5.293684e-01
-5.544962e-01
-5.792240e-01
-6.066069e-01
-6.402365e-01
-6.654718e-01
0.000000e+00
-4.610757e-02
-9.577949e-02
-1.416484e-01
-1.839078e-01
-2.227185e-01
-2.581607e-01
-2.902822e-01
-3.191407e-01
-3.448250e-01
-3.674657e-01
-3.872257e-01
-4.042313e-01
-4.183074e-01
-4.282360e-01
-4.304121e-01
-4.382143e-01
0.000000e+00
-2.883432e-02
-5.929059e-02
-8.967526e-02
-1.180385e-01
-1.440799e-01
-1.677785e-01
-1.891609e-01
-2.082325e-01
-2.249614e-01
-2.392576e-01
-2.509215e-01
-2.595370e-01
-2.643464e-01
-2.644800e-01
-2.625587e-01
-2.705163e-01
0.000000e+00
-1.391722e-02
-2.865046e-02
-4.347678e-02
-5.765345e-02
-7.071107e-02
-8.254654e-02
-9.312538e-02
-1.023870e-01
-1.102110e-01
-1.163973e-01
-1.206539e-01
-1.226324e-01
-1.221701e-01
-1.202711e-01
-1.207904e-01
-1.267156e-01
0.000000e+00
-1.282093e-05
-2.914596e-05
-4.541741e-05
-5.405323e-05
-3.814571e-05
3.586484e-05
2.281972e-04
6.376483e-04
1.411382e-03
2.741395e-03
4.820562e-03
7.701001e-03
1.095604e-02
1.320453e-02
1.258785e-02
8.664817e-03
0.000000e+00
1.389749e-02
2.860466e-02
4.340352e-02
5.756233e-02
7.063696e-02
8.257529e-02
9.343570e-02
1.033124e-01
1.123198e-01
1.205758e-01
1.281414e-01
1.348851e-01
1.402929e-01
1.434740e-01
1.437263e-01
1.417351e-01
0.000000e+00
2.883109e-02
5.928072e-02
8.965563e-02
1.180078e-01
1.440417e-01
1.677468e-01
1.891712e-01
2.083592e-01
2.253451e-01
2.401435e-01
2.527183e-01
2.629249e-01
2.704709e-01
2.750003e-01
2.764710e-01
2.760066e-01
0.000000e+00
4.612648e-02
9.582062e-02
1.417140e-01
1.839958e-01
2.228126e-01
2.582136e-01
2.901856e-01
3.186800e-01
3.436144e-01
3.648706e-01
3.823015e-01
3.957677e-01
4.052247e-01
4.108660e-01
4.132717e-01
4.137135e-01
0.000000e+00
7.724024e-02
1.422489e-01
2.020906e-01
2.578455e-01
3.093839e-01
3.565535e-01
3.992170e-01
4.372319e-01
4.704005e-01
4.984352e-01
5.209622e-01
5.376115e-01
5.482523e-01
5.533982e-01
5.546684e-01
5.546439e-01
0.000000e+00
-4.673652e-02
-9.174928e-02
-1.500753e-01
-2.216586e-01
-3.063650e-01
-4.032669e-01
-5.112800e-01
-6.292557e-01
-7.560606e-01
-8.906479e-01
-1.032184e+00
-1.180329e+00
-1.335872e+00
-1.502849e+00
-1.693902e+00
-1.968410e+00
0.000000e+00
-2.877187e-02
-7.572757e-02
-1.347769e-01
-2.075300e-01
-2.933923e-01
-3.914682e-01
-5.006466e-01
-6.197657e-01
-7.476717e-01
-8.832887e-01
-1.025745e+00
-1.174647e+00
-1.330765e+00
-1.497677e+00
-1.687571e+00
-1.920210e+00
0.000000e+00
-2.171095e-02
-6.462052e-02
-1.238878e-01
-1.973287e-01
-2.840748e-01
-3.830522e-01
-4.931390e-01
-6.131814e-01
-7.420420e-01
-8.786657e-01
-1.022211e+00
-1.172321e+00
-1.329640e+00
-1.496695e+00
-1.676626e+00
-1.850761e+00
0.000000e+00
-1.870898e-02
-5.909817e-02
-1.174962e-01
-1.912026e-01
-2.784826e-01
-3.780771e-01
-4.888215e-01
-6.095837e-01
-7.392571e-01
-8.768094e-01
-1.021383e+00
-1.172451e+00
-1.329944e+00
-1.493657e+00
-1.658988e+00
-1.811296e+00
0.000000e+00
-1.784418e-02
-5.742685e-02
-1.154572e-01
-1.891837e-01
-2.766809e-01
-3.765617e-01
-4.876627e-01
-6.088730e-01
-7.391045e-01
-8.773016e-01
-1.022471e+00
-1.173674e+00
-1.329795e+00
-1.488499e+00
-1.644357e+00
-1.787940e+00
0.000000e+00
-1.869788e-02
-5.909026e-02
-1.175102e-01
-1.912717e-01
-2.786646e-01
-3.784664e-01
-4.895588e-01
-6.108549e-01
-7.412607e-01
-8.796528e-01
-1.024829e+00
-1.175385e+00
-1.329404e+00
-1.483928e+00
-1.634442e+00
-1.774960e+00
0.000000e+00
-2.169283e-02
-6.460743e-02
-1.239112e-01
-1.974451e-01
-2.843827e-01
-3.837122e-01
-4.943910e-01
-6.153429e-01
-7.454552e-01
-8.835286e-01
-1.028176e+00
-1.177655e+00
-1.329657e+00
-1.481185e+00
-1.628810e+00
-1.769235e+00
0.000000e+00
-2.875488e-02
-7.571616e-02
-1.348081e-01
-2.076698e-01
-2.937544e-01
-3.922366e-01
-5.020937e-01
-6.222486e-01
-7.515683e-01
-8.888043e-01
-1.032471e+00
-1.180676e+00
-1.330985e+00
-1.480498e+00
-1.626481e+00
-1.767891e+00
0.000000e+00
-4.672950e-02
-9.175026e-02
-1.501236e-01
-2.218206e-01
-3.067519e-01
-4.040531e-01
-5.127145e-01
-6.316472e-01
-7.596984e-01
-8.955897e-01
-1.037802e+00
-1.184431e+00
-1.333096e+00
-1.481082e+00
-1.626055e+00
-1.767912e+00


0.000000e+00
3.770000e-08
7.558693e-08
1.107389e-07
1.436395e-07
1.741042e-07
2.020161e-07
2.273817e-07
2.502665e-07
2.707801e-07
2.890707e-07
3.053004e-07
3.195681e-07
3.317723e-07
3.417662e-07
3.503219e-07
3.579503e-07
0.000000e+00
2.128968e-08
5.176689e-08
7.911386e-08
1.041242e-07
1.271201e-07
1.480942e-07
1.670602e-07
1.840459e-07
1.990743e-07
2.121508e-07
2.232451e-07
2.323071e-07
2.395283e-07
2.461255e-07
2.539803e-07
2.620847e-07
0.000000e+00
1.347203e-08
3.278890e-08
5.086706e-08
6.767190e-08
8.308361e-08
9.705370e-08
1.095768e-07
1.206437e-07
1.302253e-07
1.382735e-07
1.447550e-07
1.497757e-07
1.538563e-07
1.581661e-07
1.640083e-07
1.707716e-07
0.000000e+00
6.598682e-09
1.573464e-08
2.459228e-08
3.299822e-08
4.069700e-08
4.761219e-08
5.371889e-08
5.898681e-08
6.337467e-08
6.684810e-08
6.943088e-08
7.130080e-08
7.290276e-08
7.497101e-08
7.837693e-08
8.306840e-08
0.000000e+00
6.481145e-12
7.782469e-12
-4.452424e-12
-4.166420e-11
-1.220861e-10
-2.724287e-10
-5.282399e-10
-9.306997e-10
-1.516360e-09
-2.294573e-09
-3.209777e-09
-4.097649e-09
-4.658083e-09
-4.430994e-09
-2.827639e-09
2.500558e-10
0.000000e+00
-6.586544e-09
-1.571870e-08
-2.459448e-08
-3.305922e-08
-4.088797e-08
-4.804987e-08
-5.458151e-08
-6.052574e-08
-6.591001e-08
-7.072702e-08
-7.491384e-08
-7.833890e-08
-8.080467e-08
-8.206698e-08
-8.182391e-08
-8.014005e-08
0.000000e+00
-1.346433e-08
-3.277777e-08
-5.086109e-08
-6.768723e-08
-8.315072e-08
-9.722557e-08
-1.099385e-07
-1.213209e-07
-1.313879e-07
-1.401217e-07
-1.474595e-07
-1.532903e-07
-1.574824e-07
-1.599695e-07
-1.607978e-07
-1.603007e-07
0.000000e+00
-2.129766e-08
-5.178296e-08
-7.912870e-08
-1.041225e-07
-1.270753e-07
-1.479631e-07
-1.667759e-07
-1.835112e-07
-1.981591e-07
-2.106964e-07
-2.210825e-07
-2.292609e-07
-2.351835e-07
-2.389068e-07
-2.407370e-07
-2.411788e-07
0.000000e+00
-3.774399e-08
-7.566484e-08
-1.108352e-07
-1.437218e-07
-1.741049e-07
-2.018076e-07
-2.267432e-07
-2.488458e-07
-2.680562e-07
-2.843293e-07
-2.976508e-07
-3.080530e-07
-3.156286e-07
-3.205596e-07
-3.231067e-07
-3.239241e-07
0.000000e+00
3.413173e-08
6.648420e-08
1.027492e-07
1.460059e-07
1.967007e-07
2.544905e-07
3.188287e-07
3.890894e-07
4.646679e-07
5.450475e-07
6.299091e-07
7.194183e-07
8.148528e-07
9.185715e-07
1.028743e-06
1.138077e-06
0.000000e+00
2.060262e-08
5.204932e-08
8.863117e-08
1.327671e-07
1.845132e-07
2.434225e-07
3.088781e-07
3.802393e-07
4.568935e-07
5.383160e-07
6.241646e-07
7.144438e-07
8.097157e-07
9.109153e-07
1.018290e-06
1.126180e-06
0.000000e+00
1.307291e-08
4.048270e-08
7.705503e-08
1.218574e-07
1.745128e-07
2.343931e-07
3.008348e-07
3.731870e-07
4.508355e-07
5.332384e-07
6.199713e-07
7.107440e-07
8.052909e-07
9.034595e-07
1.006918e-06
1.111338e-06
0.000000e+00
9.563512e-09
3.441113e-08
7.031766e-08
1.154299e-07
1.686460e-07
2.291547e-07
2.962519e-07
3.692785e-07
4.476103e-07
5.306615e-07
6.178780e-07
7.086774e-07
8.023328e-07
8.982641e-07
9.977465e-07
1.096985e-06
0.000000e+00
8.557496e-09
3.257375e-08
6.815252e-08
1.133487e-07
1.667874e-07
2.275654e-07
2.949599e-07
3.683040e-07
4.469507e-07
5.302550e-07
6.175404e-07
7.080308e-07
8.007651e-07
8.948013e-07
9.907351e-07
1.084881e-06
0.000000e+00
9.571293e-09
3.443999e-08
7.038881e-08
1.155712e-07
1.688953e-07
2.295594e-07
2.968620e-07
3.701290e-07
4.486845e-07
5.318256e-07
6.187862e-07
7.086782e-07
8.004089e-07
8.928013e-07
9.857768e-07
1.076210e-06
0.000000e+00
1.308545e-08
4.053298e-08
7.717978e-08
1.221053e-07
1.749508e-07
2.351048e-07
3.019088e-07
3.746855e-07
4.527301e-07
5.352912e-07
6.215410e-07
7.105290e-07
8.011155e-07
8.920441e-07
9.828082e-07
1.070934e-06
0.000000e+00
2.061858e-08
5.211325e-08
8.878503e-08
1.330699e-07
1.850454e-07
2.442834e-07
3.101710e-07
3.820311e-07
4.591355e-07
5.406942e-07
6.258342e-07
7.135715e-07
8.027857e-07
8.923180e-07
9.814742e-07
1.068418e-06
0.000000e+00
3.415814e-08
6.655911e-08
1.029154e-07
1.463215e-07
1.972425e-07
2.553492e-07
3.200902e-07
3.907906e-07
4.667097e-07
5.470373e-07
6.308778e-07
7.172372e-07
8.050393e-07
8.932621e-07
9.812572e-07
1.067686e-06


2.255962e-01
2.255960e-01
2.255964e-01
2.255970e-01
2.255977e-01
2.255982e-01
2.255987e-01
2.255992e-01
2.255996e-01
2.255999e-01
2.256002e-01
2.256004e-01
2.256006e-01
2.256004e-01
2.256001e-01
2.255998e-01
2.255972e-01
2.255971e-01
2.255973e-01
2.255978e-01
2.255983e-01
2.255987e-01
2.255991e-01
2.255995e-01
2.255998e-01
2.256001e-01
2.256003e-01
2.256005e-01
2.256006e-01
2.256004e-01
2.256000e-01
2.255998e-01
2.255989e-01
2.255988e-01
2.255988e-01
2.255990e-01
2.255993e-01
2.255996e-01
2.255998e-01
2.256000e-01
2.256002e-01
2.256004e-01
2.256005e-01
2.256006e-01
2.256006e-01
2.256004e-01
2.256001e-01
2.255999e-01
2.256001e-01
2.256000e-01
2.255999e-01
2.255999e-01
2.256000e-01
2.256002e-01
2.256003e-01
2.256004e-01
2.256004e-01
2.256005e-01
2.256006e-01
2.256006e-01
2.256006e-01
2.256005e-01
2.256003e-01
2.256002e-01
2.256001e-01
2.256000e-01
2.255999e-01
2.255999e-01
2.256000e-01
2.256002e-01
2.256003e-01
2.256003e-01
2.256004e-01
2.256005e-01
2.256005e-01
2.256005e-01
2.256006e-01
2.256006e-01
2.256006e-01
2.256006e-01
2.255989e-01
2.255988e-01
2.255988e-01
2.255990e-01
2.255993e-01
2.255995e-01
2.255998e-01
2.256000e-01
2.256001e-01
2.256003e-01
2.256004e-01
2.256005e-01
2.256006e-01
2.256007e-01
2.256008e-01
2.256008e-01
2.255972e-01
2.255971e-01
2.255973e-01
2.255978e-01
2.255983e-01
2.255987e-01
2.255991e-01
2.255995e-01
2.255998e-01
2.256000e-01
2.256003e-01
2.256005e-01
2.256007e-01
2.256008e-01
2.256009e-01
2.256010e-01
2.255962e-01
2.255960e-01
2.255964e-01
2.255970e-01
2.255977e-01
2.255982e-01
2.255987e-01
2.255992e-01
2.255996e-01
2.256000e-01
2.256003e-01
2.256005e-01
2.256007e-01
2.256009e-01
2.256010e-01
2.256011e-01


9.865884e-01
9.884903e-01
9.902496e-01
9.916039e-01
9.928610e-01
9.940202e-01
9.950763e-01
9.960169e-01
9.968322e-01
9.975141e-01
9.980562e-01
9.984534e-01
9.987003e-01
9.987884e-01
9.988520e-01
9.949324e-01
9.949261e-01
9.940546e-01
9.946153e-01
9.953471e-01
9.960294e-01
9.966496e-01
9.972110e-01
9.977194e-01
9.981798e-01
9.985968e-01
9.989752e-01
9.993179e-01
9.996168e-01
9.998125e-01
9.993175e-01
9.926080e-01
9.982371e-01
9.977365e-01
9.976013e-01
9.977914e-01
9.980415e-01
9.982837e-01
9.985086e-01
9.987211e-01
9.989269e-01
9.991276e-01
9.993150e-01
9.994601e-01
9.994904e-01
9.992291e-01
9.982810e-01
9.965759e-01
9.996412e-01
9.992761e-01
9.990506e-01
9.989934e-01
9.990162e-01
9.990546e-01
9.990928e-01
9.991302e-01
9.991669e-01
9.991977e-01
9.992062e-01
9.991605e-01
9.990156e-01
9.987554e-01
9.985348e-01
9.984789e-01
9.996425e-01
9.992780e-01
9.990523e-01
9.989930e-01
9.990105e-01
9.990382e-01
9.990574e-01
9.990638e-01
9.990550e-01
9.990267e-01
9.989741e-01
9.988982e-01
9.988260e-01
9.988404e-01
9.990446e-01
9.993980e-01
9.982396e-01
9.977403e-01
9.976050e-01
9.977915e-01
9.980318e-01
9.982537e-01
9.984415e-01
9.985924e-01
9.987055e-01
9.987816e-01
9.988297e-01
9.988768e-01
9.989756e-01
9.991829e-01
9.994942e-01
9.998160e-01
9.949257e-01
9.940542e-01
9.946145e-01
9.953450e-01
9.960241e-01
9.966374e-01
9.971857e-01
9.976712e-01
9.980942e-01
9.984558e-01
9.987619e-01
9.990293e-01
9.992867e-01
9.995567e-01
9.998091e-01
9.999680e-01
9.865792e-01
9.884759e-01
9.902320e-01
9.915842e-01
9.928433e-01
9.940138e-01
9.950981e-01
9.960938e-01
9.970010e-01
9.978180e-01
9.985351e-01
9.991300e-01
9.995725e-01
9.998455e-01
9.999697e-01
9.999994e-01
1 2 19 18
2 3 20 19
3 4 21 20
4 5 22 21
5 6 23 22
6 7 24 23
7 8 25 24
8 9 26 25
9 10 27 26
10 11 28 27
11 12 29 28
12 13 30 29
13 14 31 30
14 15 32 31
15 16 33 32
16 17 34 33
18 19 36 35
19 20 37 36
20 21 38 37
21 22 39 38
22 23 40 39
23 24 41 40
24 25 42 41
25 26 43 42
26 27 44 43
27 28 45 44
28 29 46 45
29 30 47 46
30 31 48 47
31 32 49 48
32 33 50 49
33 34 51 50
35 36 53 52
36 37 54 53
37 38 55 54
38 39 56 55
39 40 57 56
40 41 58 57
41 42 59 58
42 43 60 59
43 44 61 60
44 45 62 61
45 46 63 62
46 47 64 63
47 48 65 64
48 49 66 65
49 50 67 66
50 51 68 67
52 53 70 69
53 54 71 70
54 55 72 71
55 56 73 72
56 57 74 73
57 58 75 74
58 59 76 75
59 60 77 76
60 61 78 77
61 62 79 78
62 63 80 79
63 64 81 80
64 65 82 81
65 66 83 82
66 67 84 83
67 68 85 84
69 70 87 86
70 71 88 87
71 72 89 88
72 73 90 89
73 74 91 90
74 75 92 91
75 76 93 92
76 77 94 93
77 78 95 94
78 79 96 95
79 80 97 96
80 81 98 97
81 82 99 98
82 83 100 99
83 84 101 100
84 85 102 101
86 87 104 103
87 88 105 104
88 89 106 105
89 90 107 106
90 91 108 107
91 92 109 108
92 93 110 109
93 94 111 110
94 95 112 111
95 96 113 112
96 97 114 113
97 98 115 114
98 99 116 115
99 100 117 116
100 101 118 117
101 102 119 118
103 104 121 120
104 105 122 121
105 106 123 122
106 107 124 123
107 108 125 124
108 109 126 125
109 110 127 126
110 111 128 127
111 112 129 128
112 113 130 129
113 114 131 130
114 115 132 131
115 116 133 132
116 117 134 133
117 118 135 134
118 119 136 135
120 121 138 137
121 122 139 138
122 123 140 139
123 124 141 140
124 125 142 141
125 126 143 142
126 127 144 143
127 128 145 144
128 129 146 145
129 130 147 146
130 131 148 147
131 132 149 148
132 133 150 149
133 134 151 150
134 135 152 151
135 136 153 152
