TITLE = "Solution"
VARIABLES = x, y, u, v, psiu, psiv, t, stress
ZONE T="structure" N=153 E=128 F=FEBLOCK ET=QUADRILATERAL VARLOCATION=([7,8]=cellcentered)
0.000000e+00
1.250000e+01
2.500000e+01
3.750000e+01
5.000000e+01
6.250000e+01
7.500000e+01
8.750000e+01
1.000000e+02
1.125000e+02
1.250000e+02
1.375000e+02
1.500000e+02
1.625000e+02
1.750000e+02
1.875000e+02
2.000000e+02
0.000000e+00
1.250000e+01
2.500000e+01
3.750000e+01
5.000000e+01
6.250000e+01
7.500000e+01
8.750000e+01
1.000000e+02
1.125000e+02
1.250000e+02
1.375000e+02
1.500000e+02
1.625000e+02
1.750000e+02
1.875000e+02
2.000000e+02
0.000000e+00
1.250000e+01
2.500000e+01
3.750000e+01
5.000000e+01
6.250000e+01
7.500000e+01
8.750000e+01
1.000000e+02
1.125000e+02
1.250000e+02
1.375000e+02
1.500000e+02
1.625000e+02
1.750000e+02
1.875000e+02
2.000000e+02
0.000000e+00
1.250000e+01
2.500000e+01
3.750000e+01
5.000000e+01
6.250000e+01
7.500000e+01
8.750000e+01
1.000000e+02
1.125000e+02
1.250000e+02
1.375000e+02
1.500000e+02
1.625000e+02
1.750000e+02
1.875000e+02
2.000000e+02
0.000000e+00
1.250000e+01
2.500000e+01
3.750000e+01
5.000000e+01
6.250000e+01
7.500000e+01
8.750000e+01
1.000000e+02
1.125000e+02
1.250000e+02
1.375000e+02
1.500000e+02
1.625000e+02
1.750000e+02
1.875000e+02
2.000000e+02
0.000000e+00
1.250000e+01
2.500000e+01
3.750000e+01
5.000000e+01
6.250000e+01
7.500000e+01
8.750000e+01
1.000000e+02
1.125000e+02
1.250000e+02
1.375000e+02
1.500000e+02
1.625000e+02
1.750000e+02
1.875000e+02
2.000000e+02
0.000000e+00
1.250000e+01
2.500000e+01
3.750000e+01
5.000000e+01
6.250000e+01
7.500000e+01
8.750000e+01
1.000000e+02
1.125000e+02
1.250000e+02
1.375000e+02
1.500000e+02
1.625000e+02
1.750000e+02
1.875000e+02
2.000000e+02
0.000000e+00
1.250000e+01
2.500000e+01
3.750000e+01
5.000000e+01
6.250000e+01
7.500000e+01
8.750000e+01
1.000000e+02
1.125000e+02
1.250000e+02
1.375000e+02
1.500000e+02
1.625000e+02
1.750000e+02
1.875000e+02
2.000000e+02
0.000000e+00
1.250000e+01
2.500000e+01
3.750000e+01
5.000000e+01
6.250000e+01
7.500000e+01
8.750000e+01
1.000000e+02
1.125000e+02
1.250000e+02
1.375000e+02
1.500000e+02
1.625000e+02
1.750000e+02
1.875000e+02
2.000000e+02
0.000000e+00
0.000000e+00
0.000000e+00
0.000000e+00
0.000000e+00
0.000000e+00
0.000000e+00
0.000000e+00
0.000000e+00
0.000000e+00
0.000000e+00
0.000000e+00
0.000000e+00
0.000000e+00
0.000000e+00
0.000000e+00
0.000000e+00
1.250000e+01
1.250000e+01
1.250000e+01
1.250000e+01
1.250000e+01
1.250000e+01
1.250000e+01
1.250000e+01
1.250000e+01
1.250000e+01
1.250000e+01
1.250000e+01
1.250000e+01
1.250000e+01
1.250000e+01
1.250000e+01
1.250000e+01
2.500000e+01
2.500000e+01
2.500000e+01
2.500000e+01
2.500000e+01
2.500000e+01
2.500000e+01
2.500000e+01
2.500000e+01
2.500000e+01
2.500000e+01
2.500000e+01
2.500000e+01
2.500000e+01
2.500000e+01
2.500000e+01
2.500000e+01
3.750000e+01
3.750000e+01
3.750000e+01
3.750000e+01
3.750000e+01
3.750000e+01
3.750000e+01
3.750000e+01
3.750000e+01
3.750000e+01
3.750000e+01
3.750000e+01
3.750000e+01
3.750000e+01
3.750000e+01
3.750000e+01
3.750000e+01
5.000000e+01
5.000000e+01
5.000000e+01
5.000000e+01
5.000000e+01
5.000000e+01
5.000000e+01
5.000000e+01
5.000000e+01
5.000000e+01
5.000000e+01
5.000000e+01
5.000000e+01
5.000000e+01
5.000000e+01
5.000000e+01
5.000000e+01
6.250000e+01
6.250000e+01
6.250000e+01
6.250000e+01
6.250000e+01
6.250000e+01
6.250000e+01
6.250000e+01
6.250000e+01
6.250000e+01
6.250000e+01
6.250000e+01
6.250000e+01
6.250000e+01
6.250000e+01
6.250000e+01
6.250000e+01
7.500000e+01
7.500000e+01
7.500000e+01
7.500000e+01
7.500000e+01
7.500000e+01
7.500000e+01
7.500000e+01
7.500000e+01
7.500000e+01
7.500000e+01
7.500000e+01
7.500000e+01
7.500000e+01
7.500000e+01
7.500000e+01
7.500000e+01
8.750000e+01
8.750000e+01
8.750000e+01
8.750000e+01
8.750000e+01
8.750000e+01
8.750000e+01
8.750000e+01
8.750000e+01
8.750000e+01
8.750000e+01
8.750000e+01
8.750000e+01
8.750000e+01
8.750000e+01
8.750000e+01
8.750000e+01
1.000000e+02
1.000000e+02
1.000000e+02
1.000000e+02
1.000000e+02
1.000000e+02
1.000000e+02
1.000000e+02
1.000000e+02
1.000000e+02
1.000000e+02
1.000000e+02
1.000000e+02
1.000000e+02
1.000000e+02
1.000000e+02
1.000000e+02
0.000000e+00
-1.962799e-01
-3.614124e-01
-5.133606e-01
-6.548760e-01
-7.856582e-01
-9.054238e-01
-1.014078e+00
-1.111777e+00
-1.198969e+00
-1.276518e+00
-1.345939e+00
-1.409839e+00
-1.472722e+00
-1.542355e+00
-1.627873e+00
-1.692044e+00
0.000000e+00
-1.172118e-01
-2.434853e-01
-3.600949e-01
-4.675356e-01
-5.662142e-01
-6.563331e-01
-7.380111e-01
-8.113943e-01
-8.767075e-01
-9.342816e-01
-9.845312e-01
-1.027776e+00
-1.063572e+00
-1.088820e+00
-1.094354e+00
-1.114195e+00
0.000000e+00
-7.329896e-02
-1.507223e-01
-2.279673e-01
-3.000780e-01
-3.662898e-01
-4.265477e-01
-4.809186e-01
-5.294150e-01
-5.719552e-01
-6.083099e-01
-6.379708e-01
-6.598803e-01
-6.721107e-01
-6.724504e-01
-6.675648e-01
-6.878005e-01
0.000000e+00
-3.537801e-02
-7.283133e-02
-1.105234e-01
-1.465662e-01
-1.797658e-01
-2.098596e-01
-2.367592e-01
-2.603102e-01
-2.802058e-01
-2.959372e-01
-3.067616e-01
-3.117929e-01
-3.106174e-01
-3.057882e-01
-3.071087e-01
-3.221763e-01
0.000000e+00
-3.261871e-05
-7.414878e-05
-1.155429e-04
-1.375205e-04
-9.708584e-05
9.110361e-05
5.801856e-04
1.621404e-03
3.589001e-03
6.971230e-03
1.225858e-02
1.958361e-02
2.786128e-02
3.357929e-02
3.201117e-02
2.203498e-02
0.000000e+00
3.532782e-02
7.271481e-02
1.103370e-01
1.463344e-01
1.795772e-01
2.099325e-01
2.375482e-01
2.626631e-01
2.855683e-01
3.065630e-01
3.258021e-01
3.429516e-01
3.567035e-01
3.647932e-01
3.654349e-01
3.603713e-01
0.000000e+00
7.329070e-02
1.506971e-01
2.279173e-01
2.999999e-01
3.661926e-01
4.264671e-01
4.809446e-01
5.297371e-01
5.729307e-01
6.105623e-01
6.425399e-01
6.684953e-01
6.876851e-01
6.992033e-01
7.029433e-01
7.017625e-01
0.000000e+00
1.172598e-01
2.435898e-01
3.602616e-01
4.677592e-01
5.664535e-01
6.564673e-01
7.377654e-01
8.102227e-01
8.736288e-01
9.276823e-01
9.720088e-01
1.006253e+00
1.030303e+00
1.044648e+00
1.050766e+00
1.051890e+00
0.000000e+00
1.963603e-01
3.616245e-01
5.137579e-01
6.555108e-01
7.865511e-01
9.064889e-01
1.014973e+00
1.111640e+00
1.195985e+00
1.267276e+00
1.324562e+00
1.366901e+00
1.393961e+00
1.407047e+00
1.410277e+00
1.410215e+00
0.000000e+00
-1.188144e-01
-2.332511e-01
-3.815368e-01
-5.635286e-01
-7.788867e-01
-1.025254e+00
-1.299873e+00
-1.599826e+00
-1.922231e+00
-2.264426e+00
-2.624292e+00
-3.000962e+00
-3.396447e+00
-3.821008e+00
-4.306791e+00
-5.004796e+00
0.000000e+00
-7.314481e-02
-1.925207e-01
-3.426431e-01
-5.276069e-01
-7.459021e-01
-9.952526e-01
-1.272835e+00
-1.575694e+00
-1.900899e+00
-2.245711e+00
-2.607918e+00
-2.986515e+00
-3.383461e+00
-3.807857e+00
-4.290693e+00
-4.882227e+00
0.000000e+00
-5.519545e-02
-1.642846e-01
-3.149597e-01
-5.016705e-01
-7.222114e-01
-9.738530e-01
-1.253744e+00
-1.558951e+00
-1.886583e+00
-2.233955e+00
-2.598930e+00
-2.980599e+00
-3.380599e+00
-3.805360e+00
-4.262861e+00
-4.705623e+00
0.000000e+00
-4.756537e-02
-1.502463e-01
-2.987105e-01
-4.860955e-01
-7.079930e-01
-9.612030e-01
-1.242766e+00
-1.549803e+00
-1.879501e+00
-2.229235e+00
-2.596824e+00
-2.980930e+00
-3.381372e+00
-3.797634e+00
-4.218009e+00
-4.605266e+00
0.000000e+00
-4.536762e-02
-1.459978e-01
-2.935270e-01
-4.809626e-01
-7.034123e-01
-9.573501e-01
-1.239819e+00
-1.547996e+00
-1.879113e+00
-2.230487e+00
-2.599591e+00
-2.984039e+00
-3.380995e+00
-3.784517e+00
-4.180802e+00
-4.545873e+00
0.000000e+00
-4.753713e-02
-1.502262e-01
-2.987463e-01
-4.862712e-01
-7.084559e-01
-9.621930e-01
-1.244641e+00
-1.553035e+00
-1.884596e+00
-2.236466e+00
-2.605587e+00
-2.988389e+00
-3.380000e+00
-3.772894e+00
-4.155588e+00
-4.512866e+00
0.000000e+00
-5.514938e-02
-1.642513e-01
-3.150194e-01
-5.019666e-01
-7.229944e-01
-9.755315e-01
-1.256928e+00
-1.564448e+00
-1.895262e+00
-2.246322e+00
-2.614099e+00
-2.994163e+00
-3.380642e+00
-3.765918e+00
-4.141267e+00
-4.498307e+00
0.000000e+00
-7.310162e-02
-1.924917e-01
-3.427224e-01
-5.279623e-01
-7.468228e-01
-9.972065e-01
-1.276514e+00
-1.582008e+00
-1.910807e+00
-2.259737e+00
-2.625020e+00
-3.001845e+00
-3.384020e+00
-3.764171e+00
-4.135345e+00
-4.494889e+00
0.000000e+00
-1.187965e-01
-2.332536e-01
-3.816595e-01
-5.639406e-01
-7.798706e-01
-1.027253e+00
-1.303521e+00
-1.605908e+00
-1.931482e+00
-2.276992e+00
-2.638578e+00
-3.011395e+00
-3.389388e+00
-3.765655e+00
-4.134262e+00
-4.494943e+00


0.000000e+00
2.594846e-08
5.335404e-08
7.776469e-08
9.870717e-08
1.161277e-07
1.302905e-07
1.416185e-07
1.505605e-07
1.575479e-07
1.629784e-07
1.672109e-07
1.705646e-07
1.733101e-07
1.756945e-07
1.781650e-07
1.808009e-07
0.000000e+00
1.714635e-08
4.055028e-08
5.986133e-08
7.566778e-08
8.851272e-08
9.879747e-08
1.069243e-07
1.132617e-07
1.181340e-07
1.218182e-07
1.245372e-07
1.264547e-07
1.277456e-07
1.289639e-07
1.310920e-07
1.338372e-07
0.000000e+00
1.246241e-08
2.774739e-08
4.072102e-08
5.139167e-08
5.990346e-08
6.658495e-08
7.176397e-08
7.571660e-08
7.866612e-08
8.079098e-08
8.223646e-08
8.314840e-08
8.377053e-08
8.458709e-08
8.621649e-08
8.846411e-08
0.000000e+00
6.579143e-09
1.373464e-08
2.020140e-08
2.562164e-08
2.991076e-08
3.322188e-08
3.573523e-08
3.759810e-08
3.892484e-08
3.981015e-08
4.034966e-08
4.067226e-08
4.097001e-08
4.147197e-08
4.244341e-08
4.389197e-08
0.000000e+00
-5.526333e-12
-1.378834e-11
-2.694342e-11
-4.821602e-11
-8.237287e-11
-1.359479e-10
-2.170731e-10
-3.340705e-10
-4.917176e-10
-6.837635e-10
-8.815576e-10
-1.025226e-09
-1.038566e-09
-8.616506e-10
-3.988531e-10
4.348226e-10
0.000000e+00
-6.588517e-09
-1.375775e-08
-2.024639e-08
-2.570127e-08
-3.004494e-08
-3.344060e-08
-3.608144e-08
-3.812927e-08
-3.970992e-08
-4.091668e-08
-4.181198e-08
-4.243267e-08
-4.280583e-08
-4.296169e-08
-4.286695e-08
-4.246449e-08
0.000000e+00
-1.246727e-08
-2.776180e-08
-4.074928e-08
-5.143942e-08
-5.997831e-08
-6.669741e-08
-7.192855e-08
-7.595386e-08
-7.900577e-08
-8.127535e-08
-8.291904e-08
-8.406371e-08
-8.481173e-08
-8.524357e-08
-8.538865e-08
-8.527251e-08
0.000000e+00
-1.714953e-08
-4.056272e-08
-5.988155e-08
-7.569318e-08
-8.853731e-08
-9.880947e-08
-1.069040e-07
-1.131810e-07
-1.179590e-07
-1.215171e-07
-1.240972e-07
-1.259035e-07
-1.271004e-07
-1.278182e-07
-1.281622e-07
-1.282338e-07
0.000000e+00
-2.596348e-08
-5.337964e-08
-7.779508e-08
-9.873311e-08
-1.161319e-07
-1.302426e-07
-1.414702e-07
-1.502400e-07
-1.569560e-07
-1.619850e-07
-1.656498e-07
-1.682254e-07
-1.699358e-07
-1.709564e-07
-1.714305e-07
-1.715601e-07
0.000000e+00
2.355788e-08
4.291575e-08
6.348872e-08
8.814894e-08
1.171473e-07
1.499738e-07
1.859551e-07
2.244362e-07
2.648685e-07
3.068257e-07
3.500213e-07
3.943754e-07
4.402600e-07
4.888670e-07
5.404316e-07
5.923694e-07
0.000000e+00
1.292971e-08
3.184836e-08
5.358275e-08
7.984739e-08
1.104040e-07
1.446142e-07
1.817584e-07
2.211969e-07
2.624030e-07
3.049745e-07
3.486452e-07
3.933235e-07
4.391801e-07
4.867604e-07
5.369381e-07
5.880842e-07
0.000000e+00
6.729452e-09
2.314516e-08
4.578718e-08
7.335368e-08
1.051955e-07
1.405144e-07
1.785803e-07
2.187756e-07
2.605998e-07
3.036714e-07
3.477304e-07
3.926317e-07
4.382831e-07
4.847042e-07
5.331945e-07
5.829111e-07
0.000000e+00
4.102023e-09
1.897524e-08
4.162250e-08
6.985833e-08
1.024127e-07
1.383465e-07
1.769202e-07
2.175348e-07
2.597073e-07
3.030614e-07
3.473168e-07
3.922549e-07
4.376385e-07
4.833575e-07
5.303993e-07
5.782158e-07
0.000000e+00
3.424341e-09
1.781820e-08
4.034524e-08
6.876905e-08
1.015548e-07
1.376948e-07
1.764437e-07
2.172093e-07
2.595113e-07
3.029636e-07
3.472571e-07
3.921241e-07
4.372939e-07
4.825968e-07
5.285813e-07
5.746392e-07
0.000000e+00
4.106777e-09
1.898406e-08
4.163846e-08
6.988613e-08
1.024602e-07
1.384250e-07
1.770436e-07
2.177153e-07
2.599467e-07
3.033324e-07
3.475367e-07
3.922664e-07
4.372455e-07
4.822715e-07
5.275064e-07
5.723670e-07
0.000000e+00
6.737042e-09
2.316092e-08
4.581683e-08
7.340567e-08
1.052842e-07
1.406602e-07
1.788083e-07
2.191084e-07
2.610420e-07
3.041791e-07
3.481588e-07
3.926687e-07
4.374265e-07
4.821996e-07
5.269330e-07
5.711511e-07
0.000000e+00
1.294031e-08
3.187242e-08
5.362571e-08
7.991965e-08
1.105224e-07
1.448024e-07
1.820444e-07
2.216052e-07
2.629369e-07
3.055813e-07
3.491516e-07
3.933141e-07
4.377746e-07
4.822850e-07
5.266889e-07
5.706500e-07
0.000000e+00
2.357530e-08
4.294910e-08
6.354295e-08
8.823376e-08
1.172776e-07
1.501697e-07
1.862386e-07
2.248238e-07
2.653535e-07
3.073439e-07
3.503838e-07
3.941174e-07
4.382341e-07
4.824759e-07
5.266563e-07
5.705293e-07


5.734719e-01
5.734702e-01
5.734953e-01
5.735406e-01
5.735821e-01
5.736157e-01
5.736422e-01
5.736625e-01
5.736776e-01
5.736885e-01
5.736962e-01
5.737011e-01
5.737029e-01
5.736984e-01
5.736885e-01
5.736809e-01
5.735210e-01
5.735187e-01
5.735374e-01
5.735735e-01
5.736070e-01
5.736342e-01
5.736555e-01
5.736718e-01
5.736839e-01
5.736927e-01
5.736988e-01
5.737026e-01
5.737035e-01
5.736984e-01
5.736883e-01
5.736809e-01
5.736031e-01
5.736002e-01
5.736099e-01
5.736302e-01
5.736494e-01
5.736653e-01
5.736778e-01
5.736872e-01
5.736942e-01
5.736992e-01
5.737026e-01
5.737045e-01
5.737044e-01
5.736997e-01
5.736914e-01
5.736857e-01
5.736614e-01
5.736589e-01
5.736621e-01
5.736704e-01
5.736793e-01
5.736870e-01
5.736931e-01
5.736976e-01
5.737008e-01
5.737030e-01
5.737044e-01
5.737051e-01
5.737046e-01
5.737018e-01
5.736973e-01
5.736944e-01
5.736614e-01
5.736589e-01
5.736620e-01
5.736703e-01
5.736792e-01
5.736868e-01
5.736928e-01
5.736971e-01
5.737002e-01
5.737023e-01
5.737036e-01
5.737044e-01
5.737046e-01
5.737040e-01
5.737027e-01
5.737020e-01
5.736030e-01
5.736001e-01
5.736098e-01
5.736300e-01
5.736491e-01
5.736649e-01
5.736772e-01
5.736864e-01
5.736931e-01
5.736979e-01
5.737011e-01
5.737034e-01
5.737050e-01
5.737060e-01
5.737066e-01
5.737071e-01
5.735209e-01
5.735185e-01
5.735372e-01
5.735733e-01
5.736068e-01
5.736339e-01
5.736552e-01
5.736714e-01
5.736835e-01
5.736922e-01
5.736984e-01
5.737027e-01
5.737057e-01
5.737077e-01
5.737091e-01
5.737099e-01
5.734716e-01
5.734700e-01
5.734951e-01
5.735404e-01
5.735820e-01
5.736157e-01
5.736423e-01
5.736627e-01
5.736780e-01
5.736892e-01
5.736971e-01
5.737026e-01
5.737063e-01
5.737088e-01
5.737103e-01
5.737111e-01


9.133252e-01
9.256166e-01
9.369825e-01
9.457286e-01
9.538490e-01
9.613390e-01
9.681645e-01
9.742448e-01
9.795155e-01
9.839243e-01
9.874302e-01
9.899986e-01
9.915952e-01
9.921649e-01
9.925762e-01
9.672308e-01
9.672106e-01
9.615773e-01
9.651984e-01
9.699243e-01
9.743316e-01
9.783384e-01
9.819665e-01
9.852533e-01
9.882298e-01
9.909262e-01
9.933730e-01
9.955887e-01
9.975218e-01
9.987877e-01
9.955868e-01
9.522001e-01
9.886072e-01
9.853713e-01
9.844965e-01
9.857234e-01
9.873384e-01
9.889032e-01
9.903565e-01
9.917300e-01
9.930606e-01
9.943583e-01
9.955702e-01
9.965086e-01
9.967045e-01
9.950146e-01
9.888841e-01
9.778581e-01
9.976809e-01
9.953208e-01
9.938627e-01
9.934923e-01
9.936395e-01
9.938869e-01
9.941340e-01
9.943757e-01
9.946130e-01
9.948116e-01
9.948668e-01
9.945713e-01
9.936339e-01
9.919514e-01
9.905247e-01
9.901636e-01
9.976896e-01
9.953332e-01
9.938737e-01
9.934900e-01
9.936027e-01
9.937810e-01
9.939047e-01
9.939463e-01
9.938891e-01
9.937062e-01
9.933657e-01
9.928751e-01
9.924080e-01
9.925009e-01
9.938213e-01
9.961070e-01
9.886235e-01
9.853960e-01
9.845202e-01
9.857236e-01
9.872756e-01
9.887094e-01
9.899228e-01
9.908983e-01
9.916289e-01
9.921210e-01
9.924321e-01
9.927363e-01
9.933756e-01
9.947157e-01
9.967289e-01
9.988104e-01
9.672075e-01
9.615750e-01
9.651934e-01
9.699108e-01
9.742970e-01
9.782595e-01
9.818031e-01
9.849412e-01
9.876761e-01
9.900141e-01
9.919936e-01
9.937224e-01
9.953873e-01
9.971329e-01
9.987652e-01
9.997933e-01
9.132661e-01
9.255240e-01
9.368690e-01
9.456013e-01
9.537346e-01
9.612974e-01
9.683056e-01
9.747419e-01
9.806072e-01
9.858899e-01
9.905268e-01
9.943736e-01
9.972353e-01
9.990010e-01
9.998042e-01
9.999958e-01
1 2 19 18
2 3 20 19
3 4 21 20
4 5 22 21
5 6 23 22
6 7 24 23
7 8 25 24
8 9 26 25
9 10 27 26
10 11 28 27
11 12 29 28
12 13 30 29
13 14 31 30
14 15 32 31
15 16 33 32
16 17 34 33
18 19 36 35
19 20 37 36
20 21 38 37
21 22 39 38
22 23 40 39
23 24 41 40
24 25 42 41
25 26 43 42
26 27 44 43
27 28 45 44
28 29 46 45
29 30 47 46
30 31 48 47
31 32 49 48
32 33 50 49
33 34 51 50
35 36 53 52
36 37 54 53
37 38 55 54
38 39 56 55
39 40 57 56
40 41 58 57
41 42 59 58
42 43 60 59
43 44 61 60
44 45 62 61
45 46 63 62
46 47 64 63
47 48 65 64
48 49 66 65
49 50 67 66
50 51 68 67
52 53 70 69
53 54 71 70
54 55 72 71
55 56 73 72
56 57 74 73
57 58 75 74
58 59 76 75
59 60 77 76
60 61 78 77
61 62 79 78
62 63 80 79
63 64 81 80
64 65 82 81
65 66 83 82
66 67 84 83
67 68 85 84
69 70 87 86
70 71 88 87
71 72 89 88
72 73 90 89
73 74 91 90
74 75 92 91
75 76 93 92
76 77 94 93
77 78 95 94
78 79 96 95
79 80 97 96
80 81 98 97
81 82 99 98
82 83 100 99
83 84 101 100
84 85 102 101
86 87 104 103
87 88 105 104
88 89 106 105
89 90 107 106
90 91 108 107
91 92 109 108
92 93 110 109
93 94 111 110
94 95 112 111
95 96 113 112
96 97 114 113
97 98 115 114
98 99 116 115
99 100 117 116
100 101 118 117
101 102 119 118
103 104 121 120
104 105 122 121
105 106 123 122
106 107 124 123
107 108 125 124
108 109 126 125
109 110 127 126
110 111 128 127
111 112 129 128
112 113 130 129
113 114 131 130
114 115 132 131
115 116 133 132
116 117 134 133
117 118 135 134
118 119 136 135
120 121 138 137
121 122 139 138
122 123 140 139
123 124 141 140
124 125 142 141
125 126 143 142
126 127 144 143
127 128 145 144
128 129 146 145
129 130 147 146
130 131 148 147
131 132 149 148
132 133 150 149
133 134 151 150
134 135 152 151
135 136 153 152
