TITLE = "Solution"
VARIABLES = x, y, u, v, psiu, psiv, t, stress
ZONE T="structure" N=153 E=128 F=FEBLOCK ET=QUADRILATERAL VARLOCATION=([7,8]=cellcentered)
0.000000e+00
1.250000e+01
2.500000e+01
3.750000e+01
5.000000e+01
6.250000e+01
7.500000e+01
8.750000e+01
1.000000e+02
1.125000e+02
1.250000e+02
1.375000e+02
1.500000e+02
1.625000e+02
1.750000e+02
1.875000e+02
2.000000e+02
0.000000e+00
1.250000e+01
2.500000e+01
3.750000e+01
5.000000e+01
6.250000e+01
7.500000e+01
8.750000e+01
1.000000e+02
1.125000e+02
1.250000e+02
1.375000e+02
1.500000e+02
1.625000e+02
1.750000e+02
1.875000e+02
2.000000e+02
0.000000e+00
1.250000e+01
2.500000e+01
3.750000e+01
5.000000e+01
6.250000e+01
7.500000e+01
8.750000e+01
1.000000e+02
1.125000e+02
1.250000e+02
1.375000e+02
1.500000e+02
1.625000e+02
1.750000e+02
1.875000e+02
2.000000e+02
0.000000e+00
1.250000e+01
2.500000e+01
3.750000e+01
5.000000e+01
6.250000e+01
7.500000e+01
8.750000e+01
1.000000e+02
1.125000e+02
1.250000e+02
1.375000e+02
1.500000e+02
1.625000e+02
1.750000e+02
1.875000e+02
2.000000e+02
0.000000e+00
1.250000e+01
2.500000e+01
3.750000e+01
5.000000e+01
6.250000e+01
7.500000e+01
8.750000e+01
1.000000e+02
1.125000e+02
1.250000e+02
1.375000e+02
1.500000e+02
1.625000e+02
1.750000e+02
1.875000e+02
2.000000e+02
0.000000e+00
1.250000e+01
2.500000e+01
3.750000e+01
5.000000e+01
6.250000e+01
7.500000e+01
8.750000e+01
1.000000e+02
1.125000e+02
1.250000e+02
1.375000e+02
1.500000e+02
1.625000e+02
1.750000e+02
1.875000e+02
2.000000e+02
0.000000e+00
1.250000e+01
2.500000e+01
3.750000e+01
5.000000e+01
6.250000e+01
7.500000e+01
8.750000e+01
1.000000e+02
1.125000e+02
1.250000e+02
1.375000e+02
1.500000e+02
1.625000e+02
1.750000e+02
1.875000e+02
2.000000e+02
0.000000e+00
1.250000e+01
2.500000e+01
3.750000e+01
5.000000e+01
6.250000e+01
7.500000e+01
8.750000e+01
1.000000e+02
1.125000e+02
1.250000e+02
1.375000e+02
1.500000e+02
1.625000e+02
1.750000e+02
1.875000e+02
2.000000e+02
0.000000e+00
1.250000e+01
2.500000e+01
3.750000e+01
5.000000e+01
6.250000e+01
7.500000e+01
8.750000e+01
1.000000e+02
1.125000e+02
1.250000e+02
1.375000e+02
1.500000e+02
1.625000e+02
1.750000e+02
1.875000e+02
2.000000e+02
0.000000e+00
0.000000e+00
0.000000e+00
0.000000e+00
0.000000e+00
0.000000e+00
0.000000e+00
0.000000e+00
0.000000e+00
0.000000e+00
0.000000e+00
0.000000e+00
0.000000e+00
0.000000e+00
0.000000e+00
0.000000e+00
0.000000e+00
1.250000e+01
1.250000e+01
1.250000e+01
1.250000e+01
1.250000e+01
1.250000e+01
1.250000e+01
1.250000e+01
1.250000e+01
1.250000e+01
1.250000e+01
1.250000e+01
1.250000e+01
1.250000e+01
1.250000e+01
1.250000e+01
1.250000e+01
2.500000e+01
2.500000e+01
2.500000e+01
2.500000e+01
2.500000e+01
2.500000e+01
2.500000e+01
2.500000e+01
2.500000e+01
2.500000e+01
2.500000e+01
2.500000e+01
2.500000e+01
2.500000e+01
2.500000e+01
2.500000e+01
2.500000e+01
3.750000e+01
3.750000e+01
3.750000e+01
3.750000e+01
3.750000e+01
3.750000e+01
3.750000e+01
3.750000e+01
3.750000e+01
3.750000e+01
3.750000e+01
3.750000e+01
3.750000e+01
3.750000e+01
3.750000e+01
3.750000e+01
3.750000e+01
5.000000e+01
5.000000e+01
5.000000e+01
5.000000e+01
5.000000e+01
5.000000e+01
5.000000e+01
5.000000e+01
5.000000e+01
5.000000e+01
5.000000e+01
5.000000e+01
5.000000e+01
5.000000e+01
5.000000e+01
5.000000e+01
5.000000e+01
6.250000e+01
6.250000e+01
6.250000e+01
6.250000e+01
6.250000e+01
6.250000e+01
6.250000e+01
6.250000e+01
6.250000e+01
6.250000e+01
6.250000e+01
6.250000e+01
6.250000e+01
6.250000e+01
6.250000e+01
6.250000e+01
6.250000e+01
7.500000e+01
7.500000e+01
7.500000e+01
7.500000e+01
7.500000e+01
7.500000e+01
7.500000e+01
7.500000e+01
7.500000e+01
7.500000e+01
7.500000e+01
7.500000e+01
7.500000e+01
7.500000e+01
7.500000e+01
7.500000e+01
7.500000e+01
8.750000e+01
8.750000e+01
8.750000e+01
8.750000e+01
8.750000e+01
8.750000e+01
8.750000e+01
8.750000e+01
8.750000e+01
8.750000e+01
8.750000e+01
8.750000e+01
8.750000e+01
8.750000e+01
8.750000e+01
8.750000e+01
8.750000e+01
1.000000e+02
1.000000e+02
1.000000e+02
1.000000e+02
1.000000e+02
1.000000e+02
1.000000e+02
1.000000e+02
1.000000e+02
1.000000e+02
1.000000e+02
1.000000e+02
1.000000e+02
1.000000e+02
1.000000e+02
1.000000e+02
1.000000e+02
0.000000e+00
-8.747113e-01
-1.558688e+00
-2.237214e+00
-2.923166e+00
-3.584284e+00
-4.247951e+00
-4.914019e+00
-5.572535e+00
-6.230323e+00
-6.894248e+00
-7.559720e+00
-8.216328e+00
-8.862660e+00
-9.506335e+00
-1.015318e+01
-1.058657e+01
0.000000e+00
-4.579026e-01
-9.499795e-01
-1.447882e+00
-1.961568e+00
-2.456595e+00
-2.952659e+00
-3.450905e+00
-3.942591e+00
-4.431039e+00
-4.919075e+00
-5.398506e+00
-5.850399e+00
-6.243833e+00
-6.512822e+00
-6.576094e+00
-6.727880e+00
0.000000e+00
-2.354335e-01
-5.047085e-01
-8.214302e-01
-1.158640e+00
-1.491100e+00
-1.827098e+00
-2.163228e+00
-2.493684e+00
-2.816904e+00
-3.127247e+00
-3.410357e+00
-3.642462e+00
-3.789714e+00
-3.817046e+00
-3.787649e+00
-3.940335e+00
0.000000e+00
-1.009589e-01
-2.186917e-01
-3.666281e-01
-5.276116e-01
-6.951458e-01
-8.649490e-01
-1.032666e+00
-1.194857e+00
-1.346426e+00
-1.478416e+00
-1.577305e+00
-1.626576e+00
-1.614036e+00
-1.560864e+00
-1.564550e+00
-1.692142e+00
0.000000e+00
-8.667014e-04
-1.724253e-03
-2.384642e-03
-2.535233e-03
-1.637130e-03
1.257638e-03
7.646749e-03
1.984222e-02
4.160475e-02
7.857124e-02
1.371890e-01
2.207128e-01
3.193386e-01
3.942917e-01
3.916945e-01
2.960458e-01
0.000000e+00
9.946833e-02
2.157154e-01
3.623794e-01
5.228291e-01
6.914843e-01
8.655933e-01
1.043209e+00
1.224778e+00
1.411380e+00
1.602710e+00
1.795342e+00
1.980018e+00
2.136939e+00
2.235323e+00
2.250210e+00
2.198097e+00
0.000000e+00
2.346406e-01
5.030571e-01
8.188264e-01
1.155141e+00
1.487360e+00
1.824250e+00
2.163026e+00
2.500079e+00
2.837053e+00
3.169658e+00
3.483224e+00
3.757014e+00
3.969148e+00
4.100409e+00
4.144649e+00
4.132658e+00
0.000000e+00
4.579383e-01
9.500047e-01
1.447664e+00
1.960691e+00
2.454897e+00
2.949275e+00
3.443398e+00
3.928994e+00
4.409327e+00
4.878175e+00
5.308453e+00
5.666053e+00
5.927472e+00
6.086475e+00
6.154783e+00
6.167492e+00
0.000000e+00
8.753975e-01
1.560334e+00
2.239878e+00
2.926621e+00
3.588430e+00
4.251647e+00
4.913717e+00
5.564437e+00
6.207679e+00
6.830317e+00
7.388199e+00
7.828927e+00
8.119889e+00
8.261873e+00
8.296135e+00
8.294954e+00
0.000000e+00
-5.409069e-01
-1.135280e+00
-1.924580e+00
-2.882389e+00
-4.007058e+00
-5.308320e+00
-6.783414e+00
-8.430805e+00
-1.025353e+01
-1.225248e+01
-1.442484e+01
-1.676836e+01
-1.929001e+01
-2.204511e+01
-2.524559e+01
-2.994730e+01
0.000000e+00
-3.459273e-01
-9.676875e-01
-1.746638e+00
-2.706898e+00
-3.834113e+00
-5.134426e+00
-6.610658e+00
-8.259999e+00
-1.008326e+01
-1.208330e+01
-1.426050e+01
-1.661426e+01
-1.915650e+01
-2.193759e+01
-2.514134e+01
-2.905655e+01
0.000000e+00
-2.916937e-01
-8.593711e-01
-1.630129e+00
-2.584825e+00
-3.711321e+00
-5.012187e+00
-6.490124e+00
-8.142738e+00
-9.971188e+00
-1.197967e+01
-1.417056e+01
-1.654606e+01
-1.912093e+01
-2.192511e+01
-2.495587e+01
-2.781958e+01
0.000000e+00
-2.969340e-01
-8.238702e-01
-1.572906e+00
-2.516485e+00
-3.640108e+00
-4.942276e+00
-6.423003e+00
-8.081337e+00
-9.919841e+00
-1.194303e+01
-1.415258e+01
-1.654746e+01
-1.912769e+01
-2.186836e+01
-2.461837e+01
-2.703859e+01
0.000000e+00
-3.033241e-01
-8.198920e-01
-1.558241e+00
-2.496702e+00
-3.619693e+00
-4.924269e+00
-6.408948e+00
-8.073833e+00
-9.922774e+00
-1.195997e+01
-1.418338e+01
-1.658123e+01
-1.912698e+01
-2.174779e+01
-2.428415e+01
-2.648421e+01
0.000000e+00
-2.968295e-01
-8.243295e-01
-1.574673e+00
-2.520486e+00
-3.647773e+00
-4.955667e+00
-6.444401e+00
-8.113896e+00
-9.968975e+00
-1.201399e+01
-1.424171e+01
-1.662643e+01
-1.911808e+01
-2.162900e+01
-2.402599e+01
-2.613865e+01
0.000000e+00
-2.914993e-01
-8.600651e-01
-1.632890e+00
-2.591197e+00
-3.723654e+00
-5.033894e+00
-6.525098e+00
-8.196361e+00
-1.005270e+01
-1.209842e+01
-1.432140e+01
-1.668445e+01
-1.912437e+01
-2.155333e+01
-2.387024e+01
-2.598088e+01
0.000000e+00
-3.457389e-01
-9.684283e-01
-1.749622e+00
-2.713946e+00
-3.847850e+00
-5.158565e+00
-6.649761e+00
-8.320527e+00
-1.017540e+01
-1.221631e+01
-1.442656e+01
-1.676342e+01
-1.916016e+01
-2.153345e+01
-2.380444e+01
-2.594451e+01
0.000000e+00
-5.409045e-01
-1.136193e+00
-1.927714e+00
-2.889614e+00
-4.020986e+00
-5.332246e+00
-6.821749e+00
-8.490271e+00
-1.034257e+01
-1.237416e+01
-1.456232e+01
-1.686429e+01
-1.921824e+01
-2.154934e+01
-2.379217e+01
-2.594559e+01


0.000000e+00
1.263461e-05
2.317629e-05
3.409843e-05
4.693652e-05
5.923778e-05
7.079192e-05
8.220141e-05
9.318549e-05
1.034013e-04
1.123333e-04
1.191495e-04
1.237535e-04
1.270475e-04
1.297625e-04
1.328452e-04
1.364360e-04
0.000000e+00
9.314814e-06
1.868756e-05
2.681289e-05
3.688344e-05
4.644173e-05
5.498457e-05
6.347637e-05
7.172958e-05
7.926460e-05
8.557570e-05
8.990056e-05
9.200743e-05
9.239384e-05
9.253688e-05
9.505904e-05
9.923045e-05
0.000000e+00
7.234565e-06
1.372231e-05
1.931072e-05
2.611619e-05
3.239584e-05
3.802757e-05
4.355646e-05
4.875153e-05
5.327749e-05
5.681714e-05
5.898152e-05
5.972109e-05
5.955006e-05
5.972101e-05
6.213860e-05
6.623346e-05
0.000000e+00
3.679056e-06
6.471565e-06
9.827704e-06
1.304358e-05
1.600001e-05
1.888188e-05
2.156608e-05
2.391761e-05
2.586259e-05
2.727104e-05
2.807059e-05
2.841393e-05
2.870020e-05
2.941575e-05
3.126431e-05
3.414388e-05
0.000000e+00
-1.751347e-08
-3.713890e-08
-5.687135e-08
-7.595939e-08
-9.510261e-08
-1.170157e-07
-1.509367e-07
-2.264175e-07
-3.968717e-07
-6.778973e-07
-9.711382e-07
-1.093424e-06
-8.366471e-07
-2.423122e-07
5.764861e-07
1.919454e-06
0.000000e+00
-3.710460e-06
-6.535373e-06
-9.927511e-06
-1.317693e-05
-1.616608e-05
-1.907494e-05
-2.177632e-05
-2.419070e-05
-2.631386e-05
-2.802706e-05
-2.923185e-05
-2.986945e-05
-3.002566e-05
-3.002929e-05
-3.000873e-05
-2.961016e-05
0.000000e+00
-7.251549e-06
-1.375951e-05
-1.937297e-05
-2.621590e-05
-3.253260e-05
-3.816679e-05
-4.368512e-05
-4.888012e-05
-5.325042e-05
-5.639450e-05
-5.826790e-05
-5.925409e-05
-5.977774e-05
-6.012493e-05
-6.034777e-05
-6.029881e-05
0.000000e+00
-9.315560e-06
-1.868987e-05
-2.681673e-05
-3.690703e-05
-4.649062e-05
-5.500947e-05
-6.348886e-05
-7.180581e-05
-7.907306e-05
-8.437487e-05
-8.749859e-05
-8.916266e-05
-9.010379e-05
-9.067186e-05
-9.096206e-05
-9.101596e-05
0.000000e+00
-1.263046e-05
-2.315332e-05
-3.404665e-05
-4.685599e-05
-5.912870e-05
-7.061473e-05
-8.196346e-05
-9.297839e-05
-1.029505e-04
-1.108150e-04
-1.160786e-04
-1.192078e-04
-1.209258e-04
-1.217573e-04
-1.220394e-04
-1.220775e-04
0.000000e+00
1.080185e-05
1.810042e-05
2.796928e-05
4.111761e-05
5.623240e-05
7.434996e-05
9.580801e-05
1.199786e-04
1.464965e-04
1.748727e-04
2.045411e-04
2.355541e-04
2.687587e-04
3.070193e-04
3.515046e-04
3.965445e-04
0.000000e+00
5.898675e-06
1.373191e-05
2.274943e-05
3.539399e-05
5.091107e-05
6.928321e-05
9.081357e-05
1.152538e-04
1.422850e-04
1.715312e-04
2.023792e-04
2.344315e-04
2.680376e-04
3.043873e-04
3.463259e-04
3.901324e-04
0.000000e+00
2.742029e-06
9.891276e-06
1.886620e-05
3.112106e-05
4.694591e-05
6.566464e-05
8.732715e-05
1.120244e-04
1.395227e-04
1.694292e-04
2.011119e-04
2.339497e-04
2.674287e-04
3.011130e-04
3.395512e-04
3.812497e-04
0.000000e+00
1.626106e-06
7.958818e-06
1.709609e-05
2.941369e-05
4.526160e-05
6.412606e-05
8.596733e-05
1.108493e-04
1.385701e-04
1.687067e-04
2.006158e-04
2.335928e-04
2.667226e-04
2.987851e-04
3.339285e-04
3.726267e-04
0.000000e+00
1.364734e-06
7.379580e-06
1.650414e-05
2.895584e-05
4.474513e-05
6.364010e-05
8.558398e-05
1.105798e-04
1.384306e-04
1.686473e-04
2.005316e-04
2.333398e-04
2.661930e-04
2.980845e-04
3.312349e-04
3.664889e-04
0.000000e+00
1.631397e-06
7.959813e-06
1.708184e-05
2.937836e-05
4.520896e-05
6.405749e-05
8.590624e-05
1.109103e-04
1.388761e-04
1.691753e-04
2.009767e-04
2.335199e-04
2.660764e-04
2.982192e-04
3.305680e-04
3.632016e-04
0.000000e+00
2.750696e-06
9.894298e-06
1.884658e-05
3.106887e-05
4.686482e-05
6.555045e-05
8.721940e-05
1.121334e-04
1.400690e-04
1.702992e-04
2.018717e-04
2.340436e-04
2.663093e-04
2.983773e-04
3.303196e-04
3.618189e-04
0.000000e+00
5.910119e-06
1.373987e-05
2.273923e-05
3.535430e-05
5.082901e-05
6.915637e-05
9.071082e-05
1.153673e-04
1.427678e-04
1.722671e-04
2.030879e-04
2.346823e-04
2.666036e-04
2.984991e-04
3.301780e-04
3.614271e-04
0.000000e+00
1.081447e-05
1.810950e-05
2.796609e-05
4.109372e-05
5.615722e-05
7.421807e-05
9.573274e-05
1.200860e-04
1.466887e-04
1.749696e-04
2.046205e-04
2.354441e-04
2.669539e-04
2.986356e-04
3.301589e-04
3.613825e-04


2.446484e+00
2.338639e+00
2.447438e+00
2.579033e+00
2.685188e+00
2.957129e+00
3.271102e+00
3.622041e+00
4.107092e+00
4.725187e+00
5.366667e+00
5.885684e+00
6.141940e+00
5.873083e+00
5.020727e+00
4.284074e+00
3.681718e+00
3.576095e+00
3.616079e+00
3.681816e+00
3.734842e+00
3.919006e+00
4.136624e+00
4.380939e+00
4.728409e+00
5.180570e+00
5.655505e+00
6.038147e+00
6.190975e+00
5.818851e+00
4.892695e+00
4.088786e+00
5.300415e+00
5.236398e+00
5.231984e+00
5.226730e+00
5.226404e+00
5.299138e+00
5.382206e+00
5.475785e+00
5.620869e+00
5.821928e+00
6.041749e+00
6.219880e+00
6.257697e+00
5.900585e+00
5.109120e+00
4.471126e+00
6.198625e+00
6.167031e+00
6.148673e+00
6.114064e+00
6.099358e+00
6.107553e+00
6.112030e+00
6.114627e+00
6.130526e+00
6.166882e+00
6.218346e+00
6.269394e+00
6.273839e+00
6.082103e+00
5.666562e+00
5.333319e+00
6.198441e+00
6.166603e+00
6.147709e+00
6.112180e+00
6.096161e+00
6.101593e+00
6.099865e+00
6.093447e+00
6.100931e+00
6.129524e+00
6.173287e+00
6.225971e+00
6.271824e+00
6.247132e+00
6.129709e+00
6.027549e+00
5.299595e+00
5.234931e+00
5.228846e+00
5.221085e+00
5.217908e+00
5.284388e+00
5.353966e+00
5.435165e+00
5.580597e+00
5.783899e+00
5.991143e+00
6.162771e+00
6.292030e+00
6.369676e+00
6.392804e+00
6.392326e+00
3.680147e+00
3.573839e+00
3.611830e+00
3.674972e+00
3.726672e+00
3.907202e+00
4.118092e+00
4.375315e+00
4.772314e+00
5.272557e+00
5.744006e+00
6.094414e+00
6.318811e+00
6.450350e+00
6.518434e+00
6.545251e+00
2.444551e+00
2.336446e+00
2.443790e+00
2.573941e+00
2.681814e+00
2.955936e+00
3.275135e+00
3.666779e+00
4.246715e+00
4.952358e+00
5.598163e+00
6.061120e+00
6.340001e+00
6.491725e+00
6.567098e+00
6.597770e+00


-5.627307e-01
-2.233549e-01
-2.135173e-01
-2.615123e-01
-1.753160e-01
-1.834753e-01
-1.941166e-01
-1.678273e-01
-1.614600e-01
-1.727841e-01
-1.551430e-01
-7.576767e-02
6.500404e-02
2.827224e-01
5.503671e-01
-5.792563e-01
5.357882e-01
4.054322e-01
3.393795e-01
2.833491e-01
3.135387e-01
2.977507e-01
2.827904e-01
2.903507e-01
2.963761e-01
3.111925e-01
3.690146e-01
4.930309e-01
6.745482e-01
8.534815e-01
7.496337e-01
-1.267795e+00
8.259980e-01
7.004452e-01
5.838327e-01
5.327031e-01
5.222024e-01
5.031148e-01
4.915234e-01
4.914716e-01
4.967922e-01
5.136702e-01
5.524940e-01
6.062769e-01
6.258266e-01
5.183409e-01
2.142692e-01
-3.239385e-01
8.945632e-01
7.842640e-01
6.642345e-01
5.970989e-01
5.677945e-01
5.525597e-01
5.446572e-01
5.401694e-01
5.311865e-01
5.110196e-01
4.750159e-01
4.100427e-01
2.895685e-01
1.336098e-01
9.755238e-02
1.487585e-01
8.952345e-01
7.849782e-01
6.646079e-01
5.959730e-01
5.633325e-01
5.419489e-01
5.240553e-01
5.031701e-01
4.667848e-01
4.051130e-01
3.179216e-01
2.141074e-01
1.211006e-01
1.200189e-01
2.927743e-01
5.714214e-01
8.276171e-01
7.022365e-01
5.851543e-01
5.315101e-01
5.148328e-01
4.840561e-01
4.527494e-01
4.184462e-01
3.646027e-01
2.923996e-01
2.214236e-01
1.806133e-01
2.101183e-01
3.534310e-01
5.988954e-01
8.571194e-01
5.370438e-01
4.067824e-01
3.407989e-01
2.842294e-01
3.112955e-01
2.902839e-01
2.671557e-01
2.550552e-01
2.226886e-01
1.893723e-01
2.052634e-01
2.935000e-01
4.457780e-01
6.458040e-01
8.469114e-01
9.749540e-01
-5.640397e-01
-2.252747e-01
-2.151394e-01
-2.620380e-01
-1.756441e-01
-1.804919e-01
-1.806876e-01
-1.462379e-01
-1.285304e-01
-7.686333e-02
9.852593e-02
3.850015e-01
6.751571e-01
8.789489e-01
9.762744e-01
9.995354e-01
1 2 19 18
2 3 20 19
3 4 21 20
4 5 22 21
5 6 23 22
6 7 24 23
7 8 25 24
8 9 26 25
9 10 27 26
10 11 28 27
11 12 29 28
12 13 30 29
13 14 31 30
14 15 32 31
15 16 33 32
16 17 34 33
18 19 36 35
19 20 37 36
20 21 38 37
21 22 39 38
22 23 40 39
23 24 41 40
24 25 42 41
25 26 43 42
26 27 44 43
27 28 45 44
28 29 46 45
29 30 47 46
30 31 48 47
31 32 49 48
32 33 50 49
33 34 51 50
35 36 53 52
36 37 54 53
37 38 55 54
38 39 56 55
39 40 57 56
40 41 58 57
41 42 59 58
42 43 60 59
43 44 61 60
44 45 62 61
45 46 63 62
46 47 64 63
47 48 65 64
48 49 66 65
49 50 67 66
50 51 68 67
52 53 70 69
53 54 71 70
54 55 72 71
55 56 73 72
56 57 74 73
57 58 75 74
58 59 76 75
59 60 77 76
60 61 78 77
61 62 79 78
62 63 80 79
63 64 81 80
64 65 82 81
65 66 83 82
66 67 84 83
67 68 85 84
69 70 87 86
70 71 88 87
71 72 89 88
72 73 90 89
73 74 91 90
74 75 92 91
75 76 93 92
76 77 94 93
77 78 95 94
78 79 96 95
79 80 97 96
80 81 98 97
81 82 99 98
82 83 100 99
83 84 101 100
84 85 102 101
86 87 104 103
87 88 105 104
88 89 106 105
89 90 107 106
90 91 108 107
91 92 109 108
92 93 110 109
93 94 111 110
94 95 112 111
95 96 113 112
96 97 114 113
97 98 115 114
98 99 116 115
99 100 117 116
100 101 118 117
101 102 119 118
103 104 121 120
104 105 122 121
105 106 123 122
106 107 124 123
107 108 125 124
108 109 126 125
109 110 127 126
110 111 128 127
111 112 129 128
112 113 130 129
113 114 131 130
114 115 132 131
115 116 133 132
116 117 134 133
117 118 135 134
118 119 136 135
120 121 138 137
121 122 139 138
122 123 140 139
123 124 141 140
124 125 142 141
125 126 143 142
126 127 144 143
127 128 145 144
128 129 146 145
129 130 147 146
130 131 148 147
131 132 149 148
132 133 150 149
133 134 151 150
134 135 152 151
135 136 153 152
