TITLE = "Solution"
VARIABLES = x, y, u, v, psiu, psiv, t, stress
ZONE T="structure" N=153 E=128 F=FEBLOCK ET=QUADRILATERAL VARLOCATION=([7,8]=cellcentered)
0.000000e+00
1.250000e+01
2.500000e+01
3.750000e+01
5.000000e+01
6.250000e+01
7.500000e+01
8.750000e+01
1.000000e+02
1.125000e+02
1.250000e+02
1.375000e+02
1.500000e+02
1.625000e+02
1.750000e+02
1.875000e+02
2.000000e+02
0.000000e+00
1.250000e+01
2.500000e+01
3.750000e+01
5.000000e+01
6.250000e+01
7.500000e+01
8.750000e+01
1.000000e+02
1.125000e+02
1.250000e+02
1.375000e+02
1.500000e+02
1.625000e+02
1.750000e+02
1.875000e+02
2.000000e+02
0.000000e+00
1.250000e+01
2.500000e+01
3.750000e+01
5.000000e+01
6.250000e+01
7.500000e+01
8.750000e+01
1.000000e+02
1.125000e+02
1.250000e+02
1.375000e+02
1.500000e+02
1.625000e+02
1.750000e+02
1.875000e+02
2.000000e+02
0.000000e+00
1.250000e+01
2.500000e+01
3.750000e+01
5.000000e+01
6.250000e+01
7.500000e+01
8.750000e+01
1.000000e+02
1.125000e+02
1.250000e+02
1.375000e+02
1.500000e+02
1.625000e+02
1.750000e+02
1.875000e+02
2.000000e+02
0.000000e+00
1.250000e+01
2.500000e+01
3.750000e+01
5.000000e+01
6.250000e+01
7.500000e+01
8.750000e+01
1.000000e+02
1.125000e+02
1.250000e+02
1.375000e+02
1.500000e+02
1.625000e+02
1.750000e+02
1.875000e+02
2.000000e+02
0.000000e+00
1.250000e+01
2.500000e+01
3.750000e+01
5.000000e+01
6.250000e+01
7.500000e+01
8.750000e+01
1.000000e+02
1.125000e+02
1.250000e+02
1.375000e+02
1.500000e+02
1.625000e+02
1.750000e+02
1.875000e+02
2.000000e+02
0.000000e+00
1.250000e+01
2.500000e+01
3.750000e+01
5.000000e+01
6.250000e+01
7.500000e+01
8.750000e+01
1.000000e+02
1.125000e+02
1.250000e+02
1.375000e+02
1.500000e+02
1.625000e+02
1.750000e+02
1.875000e+02
2.000000e+02
0.000000e+00
1.250000e+01
2.500000e+01
3.750000e+01
5.000000e+01
6.250000e+01
7.500000e+01
8.750000e+01
1.000000e+02
1.125000e+02
1.250000e+02
1.375000e+02
1.500000e+02
1.625000e+02
1.750000e+02
1.875000e+02
2.000000e+02
0.000000e+00
1.250000e+01
2.500000e+01
3.750000e+01
5.000000e+01
6.250000e+01
7.500000e+01
8.750000e+01
1.000000e+02
1.125000e+02
1.250000e+02
1.375000e+02
1.500000e+02
1.625000e+02
1.750000e+02
1.875000e+02
2.000000e+02
0.000000e+00
0.000000e+00
0.000000e+00
0.000000e+00
0.000000e+00
0.000000e+00
0.000000e+00
0.000000e+00
0.000000e+00
0.000000e+00
0.000000e+00
0.000000e+00
0.000000e+00
0.000000e+00
0.000000e+00
0.000000e+00
0.000000e+00
1.250000e+01
1.250000e+01
1.250000e+01
1.250000e+01
1.250000e+01
1.250000e+01
1.250000e+01
1.250000e+01
1.250000e+01
1.250000e+01
1.250000e+01
1.250000e+01
1.250000e+01
1.250000e+01
1.250000e+01
1.250000e+01
1.250000e+01
2.500000e+01
2.500000e+01
2.500000e+01
2.500000e+01
2.500000e+01
2.500000e+01
2.500000e+01
2.500000e+01
2.500000e+01
2.500000e+01
2.500000e+01
2.500000e+01
2.500000e+01
2.500000e+01
2.500000e+01
2.500000e+01
2.500000e+01
3.750000e+01
3.750000e+01
3.750000e+01
3.750000e+01
3.750000e+01
3.750000e+01
3.750000e+01
3.750000e+01
3.750000e+01
3.750000e+01
3.750000e+01
3.750000e+01
3.750000e+01
3.750000e+01
3.750000e+01
3.750000e+01
3.750000e+01
5.000000e+01
5.000000e+01
5.000000e+01
5.000000e+01
5.000000e+01
5.000000e+01
5.000000e+01
5.000000e+01
5.000000e+01
5.000000e+01
5.000000e+01
5.000000e+01
5.000000e+01
5.000000e+01
5.000000e+01
5.000000e+01
5.000000e+01
6.250000e+01
6.250000e+01
6.250000e+01
6.250000e+01
6.250000e+01
6.250000e+01
6.250000e+01
6.250000e+01
6.250000e+01
6.250000e+01
6.250000e+01
6.250000e+01
6.250000e+01
6.250000e+01
6.250000e+01
6.250000e+01
6.250000e+01
7.500000e+01
7.500000e+01
7.500000e+01
7.500000e+01
7.500000e+01
7.500000e+01
7.500000e+01
7.500000e+01
7.500000e+01
7.500000e+01
7.500000e+01
7.500000e+01
7.500000e+01
7.500000e+01
7.500000e+01
7.500000e+01
7.500000e+01
8.750000e+01
8.750000e+01
8.750000e+01
8.750000e+01
8.750000e+01
8.750000e+01
8.750000e+01
8.750000e+01
8.750000e+01
8.750000e+01
8.750000e+01
8.750000e+01
8.750000e+01
8.750000e+01
8.750000e+01
8.750000e+01
8.750000e+01
1.000000e+02
1.000000e+02
1.000000e+02
1.000000e+02
1.000000e+02
1.000000e+02
1.000000e+02
1.000000e+02
1.000000e+02
1.000000e+02
1.000000e+02
1.000000e+02
1.000000e+02
1.000000e+02
1.000000e+02
1.000000e+02
1.000000e+02
0.000000e+00
-1.174913e-01
-2.163386e-01
-3.072911e-01
-3.919938e-01
-4.702680e-01
-5.419454e-01
-6.069704e-01
-6.654376e-01
-7.176162e-01
-7.640234e-01
-8.055661e-01
-8.438047e-01
-8.814347e-01
-9.231050e-01
-9.742812e-01
-1.012683e+00
0.000000e+00
-7.016353e-02
-1.457511e-01
-2.155516e-01
-2.798596e-01
-3.389197e-01
-3.928542e-01
-4.417353e-01
-4.856510e-01
-5.247364e-01
-5.591902e-01
-5.892603e-01
-6.151389e-01
-6.365593e-01
-6.516684e-01
-6.549800e-01
-6.668530e-01
0.000000e+00
-4.387815e-02
-9.022450e-02
-1.364620e-01
-1.796236e-01
-2.192522e-01
-2.553155e-01
-2.878544e-01
-3.168768e-01
-3.423343e-01
-3.640898e-01
-3.818393e-01
-3.949503e-01
-4.022691e-01
-4.024722e-01
-3.995485e-01
-4.116581e-01
0.000000e+00
-2.117827e-02
-4.359835e-02
-6.616013e-02
-8.773341e-02
-1.076038e-01
-1.256145e-01
-1.417129e-01
-1.558070e-01
-1.677132e-01
-1.771272e-01
-1.836047e-01
-1.866155e-01
-1.859121e-01
-1.830222e-01
-1.838125e-01
-1.928293e-01
0.000000e+00
-1.951102e-05
-4.435447e-05
-6.911643e-05
-8.225878e-05
-5.805197e-05
5.457399e-05
3.472581e-04
9.703463e-04
2.147788e-03
4.171756e-03
7.335764e-03
1.171912e-02
1.667254e-02
2.009421e-02
1.915577e-02
1.318584e-02
0.000000e+00
2.114825e-02
4.352866e-02
6.604865e-02
8.759474e-02
1.074910e-01
1.256582e-01
1.421852e-01
1.572151e-01
1.709223e-01
1.834860e-01
1.949990e-01
2.052614e-01
2.134907e-01
2.183316e-01
2.187156e-01
2.156854e-01
0.000000e+00
4.387322e-02
9.020949e-02
1.364322e-01
1.795769e-01
2.191941e-01
2.552674e-01
2.878700e-01
3.170697e-01
3.429181e-01
3.654378e-01
3.845737e-01
4.001057e-01
4.115891e-01
4.184817e-01
4.207197e-01
4.200131e-01
0.000000e+00
7.019231e-02
1.458137e-01
2.156514e-01
2.799935e-01
3.390630e-01
3.929346e-01
4.415883e-01
4.849499e-01
5.228942e-01
5.552411e-01
5.817668e-01
6.022592e-01
6.166506e-01
6.252353e-01
6.288962e-01
6.295686e-01
0.000000e+00
1.175394e-01
2.164656e-01
3.075290e-01
3.923738e-01
4.708024e-01
5.425829e-01
6.075065e-01
6.653560e-01
7.158307e-01
7.584929e-01
7.927738e-01
8.181102e-01
8.343029e-01
8.421339e-01
8.440668e-01
8.440295e-01
0.000000e+00
-7.112075e-02
-1.396186e-01
-2.283759e-01
-3.373072e-01
-4.662087e-01
-6.136689e-01
-7.780375e-01
-9.575667e-01
-1.150532e+00
-1.355340e+00
-1.570723e+00
-1.796162e+00
-2.032860e+00
-2.286958e+00
-2.577693e+00
-2.995429e+00
0.000000e+00
-4.378327e-02
-1.152377e-01
-2.050956e-01
-3.158071e-01
-4.464676e-01
-5.957141e-01
-7.618561e-01
-9.431253e-01
-1.137766e+00
-1.344141e+00
-1.560925e+00
-1.787517e+00
-2.025089e+00
-2.279088e+00
-2.568059e+00
-2.922080e+00
0.000000e+00
-3.303844e-02
-9.833572e-02
-1.885252e-01
-3.002833e-01
-4.322887e-01
-5.829070e-01
-7.504313e-01
-9.331055e-01
-1.129199e+00
-1.337106e+00
-1.555546e+00
-1.783977e+00
-2.023376e+00
-2.277594e+00
-2.551404e+00
-2.816394e+00
0.000000e+00
-2.847029e-02
-8.993217e-02
-1.787988e-01
-2.909609e-01
-4.237788e-01
-5.753361e-01
-7.438610e-01
-9.276306e-01
-1.124961e+00
-1.334281e+00
-1.554286e+00
-1.784175e+00
-2.023839e+00
-2.272971e+00
-2.524563e+00
-2.756337e+00
0.000000e+00
-2.715432e-02
-8.738887e-02
-1.756960e-01
-2.878886e-01
-4.210370e-01
-5.730301e-01
-7.420976e-01
-9.265492e-01
-1.124729e+00
-1.335030e+00
-1.555942e+00
-1.786035e+00
-2.023614e+00
-2.265121e+00
-2.502298e+00
-2.720796e+00
0.000000e+00
-2.845339e-02
-8.992014e-02
-1.788202e-01
-2.910660e-01
-4.240557e-01
-5.759285e-01
-7.449831e-01
-9.295651e-01
-1.128010e+00
-1.338608e+00
-1.559530e+00
-1.788638e+00
-2.023018e+00
-2.258166e+00
-2.487209e+00
-2.701044e+00
0.000000e+00
-3.301087e-02
-9.831579e-02
-1.885609e-01
-3.004604e-01
-4.327572e-01
-5.839114e-01
-7.523365e-01
-9.363947e-01
-1.134393e+00
-1.344506e+00
-1.564624e+00
-1.792094e+00
-2.023402e+00
-2.253991e+00
-2.478639e+00
-2.692332e+00
0.000000e+00
-4.375743e-02
-1.152204e-01
-2.051430e-01
-3.160198e-01
-4.470186e-01
-5.968834e-01
-7.640582e-01
-9.469037e-01
-1.143696e+00
-1.352535e+00
-1.571159e+00
-1.796691e+00
-2.025424e+00
-2.252946e+00
-2.475096e+00
-2.690286e+00
0.000000e+00
-7.111007e-02
-1.396201e-01
-2.284493e-01
-3.375537e-01
-4.667976e-01
-6.148653e-01
-7.802204e-01
-9.612060e-01
-1.156068e+00
-1.362860e+00
-1.579272e+00
-1.802406e+00
-2.028636e+00
-2.253834e+00
-2.474447e+00
-2.690319e+00


0.000000e+00
9.195316e-09
1.865611e-08
2.727333e-08
3.503222e-08
4.189673e-08
4.789208e-08
5.308669e-08
5.756179e-08
6.140228e-08
6.469307e-08
6.751483e-08
6.993376e-08
7.198205e-08
7.368215e-08
7.520962e-08
7.664416e-08
0.000000e+00
5.598825e-09
1.343194e-08
2.019003e-08
2.607140e-08
3.120448e-08
3.565185e-08
3.947997e-08
4.275235e-08
4.552522e-08
4.784498e-08
4.974475e-08
5.124543e-08
5.240128e-08
5.346376e-08
5.484256e-08
5.635738e-08
0.000000e+00
3.808642e-09
8.849633e-09
1.335235e-08
1.731245e-08
2.073643e-08
2.367051e-08
2.616699e-08
2.826961e-08
3.001121e-08
3.141502e-08
3.250086e-08
3.330694e-08
3.394197e-08
3.463949e-08
3.567283e-08
3.692978e-08
0.000000e+00
1.945343e-09
4.318986e-09
6.543295e-09
8.537276e-09
1.025314e-08
1.170552e-08
1.292042e-08
1.391787e-08
1.471122e-08
1.531162e-08
1.573809e-08
1.603539e-08
1.629365e-08
1.664688e-08
1.725301e-08
1.810646e-08
0.000000e+00
-5.311768e-14
-1.242529e-12
-5.018417e-12
-1.341118e-11
-2.959453e-11
-5.814044e-11
-1.050406e-10
-1.770487e-10
-2.797215e-10
-4.132212e-10
-5.654980e-10
-7.051087e-10
-7.802124e-10
-7.209060e-10
-4.345703e-10
1.057882e-10
0.000000e+00
-1.945274e-09
-4.320667e-09
-6.550951e-09
-8.558347e-09
-1.030023e-08
-1.179888e-08
-1.309046e-08
-1.420695e-08
-1.517257e-08
-1.600175e-08
-1.669665e-08
-1.724631e-08
-1.762958e-08
-1.781982e-08
-1.777222e-08
-1.748559e-08
0.000000e+00
-3.808394e-09
-8.850462e-09
-1.335609e-08
-1.732216e-08
-2.075737e-08
-2.371135e-08
-2.624125e-08
-2.839714e-08
-3.021910e-08
-3.173642e-08
-3.296696e-08
-3.391755e-08
-3.458827e-08
-3.498415e-08
-3.511617e-08
-3.503199e-08
0.000000e+00
-5.600343e-09
-1.343596e-08
-2.019509e-08
-2.607507e-08
-3.120236e-08
-3.563637e-08
-3.943915e-08
-4.266889e-08
-4.537647e-08
-4.760499e-08
-4.938941e-08
-5.075651e-08
-5.172774e-08
-5.233241e-08
-5.262813e-08
-5.269757e-08
0.000000e+00
-9.203491e-09
-1.867038e-08
-2.729069e-08
-3.504693e-08
-4.189712e-08
-4.785648e-08
-5.297831e-08
-5.732286e-08
-6.094838e-08
-6.390944e-08
-6.625774e-08
-6.804336e-08
-6.931586e-08
-7.012848e-08
-7.053924e-08
-7.066724e-08
0.000000e+00
8.336549e-09
1.575620e-08
2.389013e-08
3.361202e-08
4.502155e-08
5.799053e-08
7.233698e-08
8.787123e-08
1.044235e-07
1.218557e-07
1.400785e-07
1.591001e-07
1.791495e-07
2.007335e-07
2.236532e-07
2.465264e-07
0.000000e+00
4.821824e-09
1.204806e-08
2.041093e-08
3.050919e-08
4.231160e-08
5.565485e-08
7.033975e-08
8.617672e-08
1.029984e-07
1.206692e-07
1.391002e-07
1.582765e-07
1.783000e-07
1.993841e-07
2.217072e-07
2.442599e-07
0.000000e+00
2.817844e-09
9.102492e-09
1.761093e-08
2.800908e-08
4.014144e-08
5.379451e-08
6.876091e-08
8.485310e-08
1.019076e-07
1.197899e-07
1.384011e-07
1.576792e-07
1.775740e-07
1.980692e-07
2.195997e-07
2.414612e-07
0.000000e+00
1.925265e-09
7.620547e-09
1.604239e-08
2.659091e-08
3.891383e-08
5.275055e-08
6.788667e-08
8.413657e-08
1.013382e-07
1.193522e-07
1.380594e-07
1.573472e-07
1.770811e-07
1.971673e-07
2.179375e-07
2.388060e-07
0.000000e+00
1.681475e-09
7.189158e-09
1.554853e-08
2.613894e-08
3.852907e-08
5.243495e-08
6.763886e-08
8.395527e-08
1.012195e-07
1.192830e-07
1.380055e-07
1.572412e-07
1.768194e-07
1.965892e-07
2.167202e-07
2.366309e-07
0.000000e+00
1.927081e-09
7.625791e-09
1.605434e-08
2.661396e-08
3.895423e-08
5.281635e-08
6.798669e-08
8.427746e-08
1.015181e-07
1.195491e-07
1.382145e-07
1.573493e-07
1.767650e-07
1.962745e-07
2.158947e-07
2.351215e-07
0.000000e+00
2.820753e-09
9.111687e-09
1.763215e-08
2.805005e-08
4.021328e-08
5.391153e-08
6.893882e-08
8.510380e-08
1.022282e-07
1.201421e-07
1.386773e-07
1.576577e-07
1.768874e-07
1.961640e-07
2.154124e-07
2.342312e-07
0.000000e+00
4.825658e-09
1.206039e-08
2.043812e-08
3.056066e-08
4.240065e-08
5.579838e-08
7.055585e-08
8.647826e-08
1.033796e-07
1.210805e-07
1.394025e-07
1.581618e-07
1.771631e-07
1.962139e-07
2.151979e-07
2.338199e-07
0.000000e+00
8.342838e-09
1.577145e-08
2.392076e-08
3.366722e-08
4.511380e-08
5.813500e-08
7.254858e-08
8.815753e-08
1.047705e-07
1.222016e-07
1.402656e-07
1.587735e-07
1.775333e-07
1.963688e-07
2.151643e-07
2.337044e-07


3.432968e-01
3.432966e-01
3.432979e-01
3.433004e-01
3.433027e-01
3.433047e-01
3.433063e-01
3.433077e-01
3.433089e-01
3.433098e-01
3.433105e-01
3.433111e-01
3.433114e-01
3.433110e-01
3.433101e-01
3.433094e-01
3.433001e-01
3.432998e-01
3.433007e-01
3.433027e-01
3.433045e-01
3.433061e-01
3.433074e-01
3.433086e-01
3.433095e-01
3.433102e-01
3.433108e-01
3.433113e-01
3.433114e-01
3.433110e-01
3.433101e-01
3.433094e-01
3.433055e-01
3.433052e-01
3.433055e-01
3.433066e-01
3.433076e-01
3.433085e-01
3.433093e-01
3.433099e-01
3.433105e-01
3.433109e-01
3.433112e-01
3.433115e-01
3.433115e-01
3.433110e-01
3.433103e-01
3.433098e-01
3.433093e-01
3.433090e-01
3.433090e-01
3.433093e-01
3.433098e-01
3.433102e-01
3.433106e-01
3.433109e-01
3.433111e-01
3.433113e-01
3.433114e-01
3.433115e-01
3.433115e-01
3.433112e-01
3.433108e-01
3.433106e-01
3.433093e-01
3.433090e-01
3.433090e-01
3.433093e-01
3.433098e-01
3.433102e-01
3.433105e-01
3.433108e-01
3.433110e-01
3.433112e-01
3.433113e-01
3.433114e-01
3.433114e-01
3.433114e-01
3.433114e-01
3.433114e-01
3.433055e-01
3.433052e-01
3.433055e-01
3.433065e-01
3.433076e-01
3.433085e-01
3.433092e-01
3.433098e-01
3.433103e-01
3.433107e-01
3.433110e-01
3.433113e-01
3.433115e-01
3.433117e-01
3.433119e-01
3.433120e-01
3.433001e-01
3.432998e-01
3.433007e-01
3.433026e-01
3.433045e-01
3.433061e-01
3.433074e-01
3.433085e-01
3.433094e-01
3.433102e-01
3.433108e-01
3.433112e-01
3.433116e-01
3.433120e-01
3.433122e-01
3.433124e-01
3.432968e-01
3.432965e-01
3.432979e-01
3.433004e-01
3.433027e-01
3.433047e-01
3.433064e-01
3.433078e-01
3.433089e-01
3.433099e-01
3.433107e-01
3.433113e-01
3.433118e-01
3.433121e-01
3.433124e-01
3.433125e-01


9.689429e-01
9.733471e-01
9.774211e-01
9.805571e-01
9.834681e-01
9.861524e-01
9.885980e-01
9.907762e-01
9.926641e-01
9.942431e-01
9.954987e-01
9.964185e-01
9.969902e-01
9.971942e-01
9.973414e-01
9.882646e-01
9.882505e-01
9.862323e-01
9.875307e-01
9.892253e-01
9.908053e-01
9.922413e-01
9.935413e-01
9.947187e-01
9.957849e-01
9.967506e-01
9.976269e-01
9.984203e-01
9.991126e-01
9.995659e-01
9.984195e-01
9.828819e-01
9.959176e-01
9.947584e-01
9.944454e-01
9.948856e-01
9.954646e-01
9.960255e-01
9.965462e-01
9.970383e-01
9.975149e-01
9.979797e-01
9.984137e-01
9.987498e-01
9.988199e-01
9.982147e-01
9.960193e-01
9.920707e-01
9.991691e-01
9.983237e-01
9.978014e-01
9.976689e-01
9.977218e-01
9.978106e-01
9.978992e-01
9.979858e-01
9.980708e-01
9.981420e-01
9.981618e-01
9.980560e-01
9.977203e-01
9.971178e-01
9.966069e-01
9.964775e-01
9.991722e-01
9.983281e-01
9.978054e-01
9.976681e-01
9.977086e-01
9.977727e-01
9.978171e-01
9.978320e-01
9.978116e-01
9.977462e-01
9.976243e-01
9.974486e-01
9.972813e-01
9.973146e-01
9.977874e-01
9.986059e-01
9.959234e-01
9.947672e-01
9.944539e-01
9.948857e-01
9.954421e-01
9.959561e-01
9.963909e-01
9.967404e-01
9.970022e-01
9.971785e-01
9.972899e-01
9.973989e-01
9.976278e-01
9.981077e-01
9.988286e-01
9.995740e-01
9.882494e-01
9.862315e-01
9.875290e-01
9.892205e-01
9.907929e-01
9.922130e-01
9.934827e-01
9.946070e-01
9.955866e-01
9.964240e-01
9.971329e-01
9.977520e-01
9.983482e-01
9.989733e-01
9.995578e-01
9.999260e-01
9.689217e-01
9.733139e-01
9.773804e-01
9.805115e-01
9.834272e-01
9.861375e-01
9.886485e-01
9.909542e-01
9.930550e-01
9.949470e-01
9.966076e-01
9.979852e-01
9.990100e-01
9.996423e-01
9.999299e-01
9.999985e-01
1 2 19 18
2 3 20 19
3 4 21 20
4 5 22 21
5 6 23 22
6 7 24 23
7 8 25 24
8 9 26 25
9 10 27 26
10 11 28 27
11 12 29 28
12 13 30 29
13 14 31 30
14 15 32 31
15 16 33 32
16 17 34 33
18 19 36 35
19 20 37 36
20 21 38 37
21 22 39 38
22 23 40 39
23 24 41 40
24 25 42 41
25 26 43 42
26 27 44 43
27 28 45 44
28 29 46 45
29 30 47 46
30 31 48 47
31 32 49 48
32 33 50 49
33 34 51 50
35 36 53 52
36 37 54 53
37 38 55 54
38 39 56 55
39 40 57 56
40 41 58 57
41 42 59 58
42 43 60 59
43 44 61 60
44 45 62 61
45 46 63 62
46 47 64 63
47 48 65 64
48 49 66 65
49 50 67 66
50 51 68 67
52 53 70 69
53 54 71 70
54 55 72 71
55 56 73 72
56 57 74 73
57 58 75 74
58 59 76 75
59 60 77 76
60 61 78 77
61 62 79 78
62 63 80 79
63 64 81 80
64 65 82 81
65 66 83 82
66 67 84 83
67 68 85 84
69 70 87 86
70 71 88 87
71 72 89 88
72 73 90 89
73 74 91 90
74 75 92 91
75 76 93 92
76 77 94 93
77 78 95 94
78 79 96 95
79 80 97 96
80 81 98 97
81 82 99 98
82 83 100 99
83 84 101 100
84 85 102 101
86 87 104 103
87 88 105 104
88 89 106 105
89 90 107 106
90 91 108 107
91 92 109 108
92 93 110 109
93 94 111 110
94 95 112 111
95 96 113 112
96 97 114 113
97 98 115 114
98 99 116 115
99 100 117 116
100 101 118 117
101 102 119 118
103 104 121 120
104 105 122 121
105 106 123 122
106 107 124 123
107 108 125 124
108 109 126 125
109 110 127 126
110 111 128 127
111 112 129 128
112 113 130 129
113 114 131 130
114 115 132 131
115 116 133 132
116 117 134 133
117 118 135 134
118 119 136 135
120 121 138 137
121 122 139 138
122 123 140 139
123 124 141 140
124 125 142 141
125 126 143 142
126 127 144 143
127 128 145 144
128 129 146 145
129 130 147 146
130 131 148 147
131 132 149 148
132 133 150 149
133 134 151 150
134 135 152 151
135 136 153 152
