TITLE = "Solution"
VARIABLES = x, y, u, v, psiu, psiv, t, stress
ZONE T="structure" N=153 E=128 F=FEBLOCK ET=QUADRILATERAL VARLOCATION=([7,8]=cellcentered)
0.000000e+00
1.250000e+01
2.500000e+01
3.750000e+01
5.000000e+01
6.250000e+01
7.500000e+01
8.750000e+01
1.000000e+02
1.125000e+02
1.250000e+02
1.375000e+02
1.500000e+02
1.625000e+02
1.750000e+02
1.875000e+02
2.000000e+02
0.000000e+00
1.250000e+01
2.500000e+01
3.750000e+01
5.000000e+01
6.250000e+01
7.500000e+01
8.750000e+01
1.000000e+02
1.125000e+02
1.250000e+02
1.375000e+02
1.500000e+02
1.625000e+02
1.750000e+02
1.875000e+02
2.000000e+02
0.000000e+00
1.250000e+01
2.500000e+01
3.750000e+01
5.000000e+01
6.250000e+01
7.500000e+01
8.750000e+01
1.000000e+02
1.125000e+02
1.250000e+02
1.375000e+02
1.500000e+02
1.625000e+02
1.750000e+02
1.875000e+02
2.000000e+02
0.000000e+00
1.250000e+01
2.500000e+01
3.750000e+01
5.000000e+01
6.250000e+01
7.500000e+01
8.750000e+01
1.000000e+02
1.125000e+02
1.250000e+02
1.375000e+02
1.500000e+02
1.625000e+02
1.750000e+02
1.875000e+02
2.000000e+02
0.000000e+00
1.250000e+01
2.500000e+01
3.750000e+01
5.000000e+01
6.250000e+01
7.500000e+01
8.750000e+01
1.000000e+02
1.125000e+02
1.250000e+02
1.375000e+02
1.500000e+02
1.625000e+02
1.750000e+02
1.875000e+02
2.000000e+02
0.000000e+00
1.250000e+01
2.500000e+01
3.750000e+01
5.000000e+01
6.250000e+01
7.500000e+01
8.750000e+01
1.000000e+02
1.125000e+02
1.250000e+02
1.375000e+02
1.500000e+02
1.625000e+02
1.750000e+02
1.875000e+02
2.000000e+02
0.000000e+00
1.250000e+01
2.500000e+01
3.750000e+01
5.000000e+01
6.250000e+01
7.500000e+01
8.750000e+01
1.000000e+02
1.125000e+02
1.250000e+02
1.375000e+02
1.500000e+02
1.625000e+02
1.750000e+02
1.875000e+02
2.000000e+02
0.000000e+00
1.250000e+01
2.500000e+01
3.750000e+01
5.000000e+01
6.250000e+01
7.500000e+01
8.750000e+01
1.000000e+02
1.125000e+02
1.250000e+02
1.375000e+02
1.500000e+02
1.625000e+02
1.750000e+02
1.875000e+02
2.000000e+02
0.000000e+00
1.250000e+01
2.500000e+01
3.750000e+01
5.000000e+01
6.250000e+01
7.500000e+01
8.750000e+01
1.000000e+02
1.125000e+02
1.250000e+02
1.375000e+02
1.500000e+02
1.625000e+02
1.750000e+02
1.875000e+02
2.000000e+02
0.000000e+00
0.000000e+00
0.000000e+00
0.000000e+00
0.000000e+00
0.000000e+00
0.000000e+00
0.000000e+00
0.000000e+00
0.000000e+00
0.000000e+00
0.000000e+00
0.000000e+00
0.000000e+00
0.000000e+00
0.000000e+00
0.000000e+00
1.250000e+01
1.250000e+01
1.250000e+01
1.250000e+01
1.250000e+01
1.250000e+01
1.250000e+01
1.250000e+01
1.250000e+01
1.250000e+01
1.250000e+01
1.250000e+01
1.250000e+01
1.250000e+01
1.250000e+01
1.250000e+01
1.250000e+01
2.500000e+01
2.500000e+01
2.500000e+01
2.500000e+01
2.500000e+01
2.500000e+01
2.500000e+01
2.500000e+01
2.500000e+01
2.500000e+01
2.500000e+01
2.500000e+01
2.500000e+01
2.500000e+01
2.500000e+01
2.500000e+01
2.500000e+01
3.750000e+01
3.750000e+01
3.750000e+01
3.750000e+01
3.750000e+01
3.750000e+01
3.750000e+01
3.750000e+01
3.750000e+01
3.750000e+01
3.750000e+01
3.750000e+01
3.750000e+01
3.750000e+01
3.750000e+01
3.750000e+01
3.750000e+01
5.000000e+01
5.000000e+01
5.000000e+01
5.000000e+01
5.000000e+01
5.000000e+01
5.000000e+01
5.000000e+01
5.000000e+01
5.000000e+01
5.000000e+01
5.000000e+01
5.000000e+01
5.000000e+01
5.000000e+01
5.000000e+01
5.000000e+01
6.250000e+01
6.250000e+01
6.250000e+01
6.250000e+01
6.250000e+01
6.250000e+01
6.250000e+01
6.250000e+01
6.250000e+01
6.250000e+01
6.250000e+01
6.250000e+01
6.250000e+01
6.250000e+01
6.250000e+01
6.250000e+01
6.250000e+01
7.500000e+01
7.500000e+01
7.500000e+01
7.500000e+01
7.500000e+01
7.500000e+01
7.500000e+01
7.500000e+01
7.500000e+01
7.500000e+01
7.500000e+01
7.500000e+01
7.500000e+01
7.500000e+01
7.500000e+01
7.500000e+01
7.500000e+01
8.750000e+01
8.750000e+01
8.750000e+01
8.750000e+01
8.750000e+01
8.750000e+01
8.750000e+01
8.750000e+01
8.750000e+01
8.750000e+01
8.750000e+01
8.750000e+01
8.750000e+01
8.750000e+01
8.750000e+01
8.750000e+01
8.750000e+01
1.000000e+02
1.000000e+02
1.000000e+02
1.000000e+02
1.000000e+02
1.000000e+02
1.000000e+02
1.000000e+02
1.000000e+02
1.000000e+02
1.000000e+02
1.000000e+02
1.000000e+02
1.000000e+02
1.000000e+02
1.000000e+02
1.000000e+02
0.000000e+00
-7.255744e-02
-1.336012e-01
-1.897694e-01
-2.420778e-01
-2.904160e-01
-3.346803e-01
-3.748363e-01
-4.109424e-01
-4.431650e-01
-4.718234e-01
-4.974778e-01
-5.210918e-01
-5.443299e-01
-5.700631e-01
-6.016667e-01
-6.253817e-01
0.000000e+00
-4.332998e-02
-9.000960e-02
-1.331153e-01
-1.728289e-01
-2.093015e-01
-2.426086e-01
-2.727950e-01
-2.999149e-01
-3.240519e-01
-3.453286e-01
-3.638982e-01
-3.798793e-01
-3.931073e-01
-4.024378e-01
-4.044829e-01
-4.118150e-01
0.000000e+00
-2.709731e-02
-5.571885e-02
-8.427311e-02
-1.109277e-01
-1.354003e-01
-1.576712e-01
-1.777654e-01
-1.956881e-01
-2.114092e-01
-2.248442e-01
-2.358053e-01
-2.439018e-01
-2.484215e-01
-2.485470e-01
-2.467415e-01
-2.542196e-01
0.000000e+00
-1.307883e-02
-2.692453e-02
-4.085768e-02
-5.418032e-02
-6.645132e-02
-7.757379e-02
-8.751532e-02
-9.621902e-02
-1.035716e-01
-1.093852e-01
-1.133854e-01
-1.152447e-01
-1.148103e-01
-1.130257e-01
-1.135137e-01
-1.190820e-01
0.000000e+00
-1.204846e-05
-2.738990e-05
-4.268100e-05
-5.079645e-05
-3.584715e-05
3.370479e-05
2.144503e-04
5.992343e-04
1.326355e-03
2.576241e-03
4.530149e-03
7.237056e-03
1.029600e-02
1.240902e-02
1.182949e-02
8.142803e-03
0.000000e+00
1.306029e-02
2.688149e-02
4.078884e-02
5.409469e-02
6.638167e-02
7.760080e-02
8.780694e-02
9.708860e-02
1.055534e-01
1.133120e-01
1.204218e-01
1.267593e-01
1.318412e-01
1.348307e-01
1.350678e-01
1.331966e-01
0.000000e+00
2.709427e-02
5.570958e-02
8.425466e-02
1.108988e-01
1.353644e-01
1.576414e-01
1.777751e-01
1.958072e-01
2.117697e-01
2.256766e-01
2.374939e-01
2.470856e-01
2.541770e-01
2.584335e-01
2.598156e-01
2.593792e-01
0.000000e+00
4.334775e-02
9.004825e-02
1.331769e-01
1.729116e-01
2.093900e-01
2.426583e-01
2.727042e-01
2.994820e-01
3.229143e-01
3.428898e-01
3.592706e-01
3.719256e-01
3.808128e-01
3.861143e-01
3.883750e-01
3.887903e-01
0.000000e+00
7.258716e-02
1.336796e-01
1.899163e-01
2.423124e-01
2.907460e-01
3.350740e-01
3.751673e-01
4.108920e-01
4.420624e-01
4.684082e-01
4.895780e-01
5.052243e-01
5.152240e-01
5.200600e-01
5.212537e-01
5.212306e-01
0.000000e+00
-4.392103e-02
-8.622212e-02
-1.410345e-01
-2.083054e-01
-2.879089e-01
-3.789733e-01
-4.804794e-01
-5.913478e-01
-7.105137e-01
-8.369931e-01
-9.700029e-01
-1.109223e+00
-1.255395e+00
-1.412313e+00
-1.591856e+00
-1.849828e+00
0.000000e+00
-2.703860e-02
-7.116559e-02
-1.266576e-01
-1.950279e-01
-2.757178e-01
-3.678853e-01
-4.704866e-01
-5.824296e-01
-7.026302e-01
-8.300773e-01
-9.639519e-01
-1.103884e+00
-1.250597e+00
-1.407453e+00
-1.585907e+00
-1.804531e+00
0.000000e+00
-2.040303e-02
-6.072765e-02
-1.164245e-01
-1.854412e-01
-2.669616e-01
-3.599763e-01
-4.634312e-01
-5.762420e-01
-6.973397e-01
-8.257328e-01
-9.606306e-01
-1.101698e+00
-1.249539e+00
-1.406530e+00
-1.575621e+00
-1.739266e+00
0.000000e+00
-1.758191e-02
-5.553796e-02
-1.104180e-01
-1.796841e-01
-2.617063e-01
-3.553009e-01
-4.593738e-01
-5.728610e-01
-6.947225e-01
-8.239883e-01
-9.598523e-01
-1.101820e+00
-1.249824e+00
-1.403675e+00
-1.559046e+00
-1.702178e+00
0.000000e+00
-1.676920e-02
-5.396732e-02
-1.085018e-01
-1.777868e-01
-2.600131e-01
-3.538769e-01
-4.582848e-01
-5.721932e-01
-6.945791e-01
-8.244508e-01
-9.608747e-01
-1.102969e+00
-1.249685e+00
-1.398828e+00
-1.545296e+00
-1.680230e+00
0.000000e+00
-1.757147e-02
-5.553054e-02
-1.104312e-01
-1.797491e-01
-2.618773e-01
-3.556668e-01
-4.600667e-01
-5.740556e-01
-6.966054e-01
-8.266604e-01
-9.630907e-01
-1.104576e+00
-1.249317e+00
-1.394533e+00
-1.535979e+00
-1.668032e+00
0.000000e+00
-2.038601e-02
-6.071534e-02
-1.164466e-01
-1.855506e-01
-2.672509e-01
-3.605966e-01
-4.646078e-01
-5.782732e-01
-7.005472e-01
-8.303027e-01
-9.662364e-01
-1.106710e+00
-1.249555e+00
-1.391955e+00
-1.530686e+00
-1.662652e+00
0.000000e+00
-2.702264e-02
-7.115487e-02
-1.266870e-01
-1.951593e-01
-2.760580e-01
-3.686074e-01
-4.718465e-01
-5.847629e-01
-7.062920e-01
-8.352606e-01
-9.702720e-01
-1.109549e+00
-1.250803e+00
-1.391309e+00
-1.528498e+00
-1.661389e+00
0.000000e+00
-4.391443e-02
-8.622305e-02
-1.410798e-01
-2.084576e-01
-2.882725e-01
-3.797121e-01
-4.818274e-01
-5.935953e-01
-7.139324e-01
-8.416372e-01
-9.752823e-01
-1.113078e+00
-1.252787e+00
-1.391858e+00
-1.528098e+00
-1.661409e+00


0.000000e+00
8.298122e-08
1.662832e-07
2.436368e-07
3.161610e-07
3.834464e-07
4.452143e-07
5.014515e-07
5.522758e-07
5.979046e-07
6.386439e-07
6.748337e-07
7.066741e-07
7.339180e-07
7.562183e-07
7.752795e-07
7.922450e-07
0.000000e+00
4.669417e-08
1.136130e-07
1.737688e-07
2.289069e-07
2.797160e-07
3.261543e-07
3.682263e-07
4.059695e-07
4.394143e-07
4.685537e-07
4.933042e-07
5.135422e-07
5.296856e-07
5.444315e-07
5.619410e-07
5.799688e-07
0.000000e+00
2.943853e-08
7.182091e-08
1.115733e-07
1.486179e-07
1.826767e-07
2.136192e-07
2.414119e-07
2.660154e-07
2.873494e-07
3.052939e-07
3.197637e-07
3.309867e-07
3.401167e-07
3.497485e-07
3.627683e-07
3.778159e-07
0.000000e+00
1.438607e-08
3.443498e-08
5.390473e-08
7.242949e-08
8.944110e-08
1.047577e-07
1.183115e-07
1.300244e-07
1.397960e-07
1.475427e-07
1.533113e-07
1.574925e-07
1.610731e-07
1.656876e-07
1.732765e-07
1.837221e-07
0.000000e+00
1.492631e-11
1.840796e-11
-8.201996e-12
-9.038857e-11
-2.688074e-10
-6.030641e-10
-1.172476e-09
-2.069062e-09
-3.374649e-09
-5.110667e-09
-7.154271e-09
-9.140170e-09
-1.039909e-08
-9.900914e-09
-6.328840e-09
5.317167e-10
0.000000e+00
-1.435817e-08
-3.439764e-08
-5.390667e-08
-7.256125e-08
-8.986130e-08
-1.057267e-07
-1.202268e-07
-1.334472e-07
-1.454411e-07
-1.561857e-07
-1.655353e-07
-1.731917e-07
-1.787088e-07
-1.815357e-07
-1.809959e-07
-1.772386e-07
0.000000e+00
-2.942094e-08
-7.179500e-08
-1.115580e-07
-1.486493e-07
-1.828226e-07
-2.139980e-07
-2.422137e-07
-2.675216e-07
-2.899396e-07
-3.094151e-07
-3.257960e-07
-3.388241e-07
-3.481958e-07
-3.537569e-07
-3.556088e-07
-3.544994e-07
0.000000e+00
-4.671189e-08
-1.136483e-07
-1.738009e-07
-2.289013e-07
-2.796140e-07
-3.258592e-07
-3.675888e-07
-4.047734e-07
-4.373693e-07
-4.653053e-07
-4.884736e-07
-5.067329e-07
-5.199636e-07
-5.282837e-07
-5.323742e-07
-5.333623e-07
0.000000e+00
-8.307912e-08
-1.664567e-07
-2.438514e-07
-3.163443e-07
-3.834481e-07
-4.447490e-07
-5.000266e-07
-5.491048e-07
-5.918228e-07
-6.280546e-07
-6.577462e-07
-6.809510e-07
-6.978619e-07
-7.088759e-07
-7.145689e-07
-7.163973e-07
0.000000e+00
7.512227e-08
1.465258e-07
2.266391e-07
3.221901e-07
4.341644e-07
5.618254e-07
7.039897e-07
8.592953e-07
1.026420e-06
1.204232e-06
1.392034e-06
1.590203e-06
1.801585e-06
2.031401e-06
2.275518e-06
2.517725e-06
0.000000e+00
4.543158e-08
1.148305e-07
1.955796e-07
2.929994e-07
4.072319e-07
5.373152e-07
6.819121e-07
8.396255e-07
1.009115e-06
1.189229e-06
1.379216e-06
1.579093e-06
1.790112e-06
2.014336e-06
2.252261e-06
2.491278e-06
0.000000e+00
2.892685e-08
8.942283e-08
1.700906e-07
2.689212e-07
3.851107e-07
5.173011e-07
6.640513e-07
8.239403e-07
9.956224e-07
1.177905e-06
1.369853e-06
1.570824e-06
1.780228e-06
1.997719e-06
2.226957e-06
2.458272e-06
0.000000e+00
2.121768e-08
7.605959e-08
1.552308e-07
2.547126e-07
3.721140e-07
5.056754e-07
6.538642e-07
8.152404e-07
9.884341e-07
1.172155e-06
1.365176e-06
1.566205e-06
1.773623e-06
1.986133e-06
2.206535e-06
2.426335e-06
0.000000e+00
1.900281e-08
7.200862e-08
1.504511e-07
2.501088e-07
3.679952e-07
5.021477e-07
6.509928e-07
8.130723e-07
9.869651e-07
1.171248e-06
1.364422e-06
1.564760e-06
1.770122e-06
1.978402e-06
2.190900e-06
2.399373e-06
0.000000e+00
2.123483e-08
7.612385e-08
1.553896e-07
2.550283e-07
3.726712e-07
5.065797e-07
6.552272e-07
8.171399e-07
9.908323e-07
1.174753e-06
1.367203e-06
1.566206e-06
1.769325e-06
1.973929e-06
2.179828e-06
2.380040e-06
0.000000e+00
2.895452e-08
8.953479e-08
1.703690e-07
2.694749e-07
3.860891e-07
5.188910e-07
6.664498e-07
8.272859e-07
9.998507e-07
1.182485e-06
1.373352e-06
1.570338e-06
1.770901e-06
1.972231e-06
2.173195e-06
2.368264e-06
0.000000e+00
4.546672e-08
1.149726e-07
1.959226e-07
2.936751e-07
4.084200e-07
5.392377e-07
6.847986e-07
8.436253e-07
1.014118e-06
1.194533e-06
1.382934e-06
1.577133e-06
1.774631e-06
1.972841e-06
2.170213e-06
2.362643e-06
0.000000e+00
7.518049e-08
1.466919e-07
2.270091e-07
3.228938e-07
4.353733e-07
5.637421e-07
7.068061e-07
8.630929e-07
1.030977e-06
1.208670e-06
1.394186e-06
1.585318e-06
1.779665e-06
1.974950e-06
2.169728e-06
2.361004e-06


2.120060e-01
2.120059e-01
2.120062e-01
2.120067e-01
2.120071e-01
2.120076e-01
2.120079e-01
2.120083e-01
2.120086e-01
2.120088e-01
2.120090e-01
2.120092e-01
2.120093e-01
2.120092e-01
2.120089e-01
2.120087e-01
2.120068e-01
2.120067e-01
2.120068e-01
2.120072e-01
2.120076e-01
2.120079e-01
2.120082e-01
2.120085e-01
2.120087e-01
2.120089e-01
2.120091e-01
2.120092e-01
2.120093e-01
2.120092e-01
2.120089e-01
2.120087e-01
2.120081e-01
2.120080e-01
2.120080e-01
2.120082e-01
2.120084e-01
2.120085e-01
2.120087e-01
2.120089e-01
2.120090e-01
2.120091e-01
2.120092e-01
2.120093e-01
2.120093e-01
2.120092e-01
2.120090e-01
2.120088e-01
2.120090e-01
2.120089e-01
2.120088e-01
2.120088e-01
2.120089e-01
2.120090e-01
2.120091e-01
2.120091e-01
2.120092e-01
2.120093e-01
2.120093e-01
2.120093e-01
2.120093e-01
2.120092e-01
2.120091e-01
2.120091e-01
2.120090e-01
2.120089e-01
2.120088e-01
2.120088e-01
2.120089e-01
2.120090e-01
2.120091e-01
2.120091e-01
2.120092e-01
2.120092e-01
2.120093e-01
2.120093e-01
2.120093e-01
2.120093e-01
2.120093e-01
2.120093e-01
2.120081e-01
2.120080e-01
2.120080e-01
2.120082e-01
2.120084e-01
2.120085e-01
2.120087e-01
2.120088e-01
2.120090e-01
2.120091e-01
2.120092e-01
2.120093e-01
2.120093e-01
2.120094e-01
2.120095e-01
2.120095e-01
2.120068e-01
2.120067e-01
2.120068e-01
2.120072e-01
2.120076e-01
2.120079e-01
2.120082e-01
2.120085e-01
2.120087e-01
2.120089e-01
2.120091e-01
2.120092e-01
2.120094e-01
2.120095e-01
2.120096e-01
2.120096e-01
2.120060e-01
2.120059e-01
2.120062e-01
2.120067e-01
2.120071e-01
2.120076e-01
2.120079e-01
2.120083e-01
2.120086e-01
2.120088e-01
2.120091e-01
2.120093e-01
2.120094e-01
2.120096e-01
2.120096e-01
2.120097e-01


9.881556e-01
9.898352e-01
9.913890e-01
9.925850e-01
9.936953e-01
9.947190e-01
9.956517e-01
9.964824e-01
9.972024e-01
9.978046e-01
9.982834e-01
9.986342e-01
9.988522e-01
9.989300e-01
9.989861e-01
9.955246e-01
9.955190e-01
9.947493e-01
9.952445e-01
9.958909e-01
9.964934e-01
9.970411e-01
9.975369e-01
9.979859e-01
9.983925e-01
9.987608e-01
9.990950e-01
9.993976e-01
9.996616e-01
9.998344e-01
9.993973e-01
9.934718e-01
9.984431e-01
9.980010e-01
9.978816e-01
9.980495e-01
9.982703e-01
9.984843e-01
9.986828e-01
9.988705e-01
9.990523e-01
9.992295e-01
9.993951e-01
9.995232e-01
9.995500e-01
9.993192e-01
9.984819e-01
9.969761e-01
9.996831e-01
9.993607e-01
9.991615e-01
9.991110e-01
9.991312e-01
9.991650e-01
9.991988e-01
9.992319e-01
9.992643e-01
9.992914e-01
9.992990e-01
9.992586e-01
9.991306e-01
9.989008e-01
9.987060e-01
9.986567e-01
9.996843e-01
9.993624e-01
9.991630e-01
9.991107e-01
9.991262e-01
9.991506e-01
9.991675e-01
9.991732e-01
9.991654e-01
9.991405e-01
9.990940e-01
9.990270e-01
9.989632e-01
9.989759e-01
9.991562e-01
9.994684e-01
9.984453e-01
9.980044e-01
9.978849e-01
9.980495e-01
9.982618e-01
9.984578e-01
9.986236e-01
9.987569e-01
9.988568e-01
9.989240e-01
9.989665e-01
9.990080e-01
9.990953e-01
9.992784e-01
9.995533e-01
9.998375e-01
9.955186e-01
9.947490e-01
9.952439e-01
9.958890e-01
9.964887e-01
9.970303e-01
9.975145e-01
9.979433e-01
9.983169e-01
9.986362e-01
9.989066e-01
9.991427e-01
9.993701e-01
9.996085e-01
9.998314e-01
9.999718e-01
9.881475e-01
9.898226e-01
9.913735e-01
9.925677e-01
9.936796e-01
9.947133e-01
9.956710e-01
9.965503e-01
9.973515e-01
9.980730e-01
9.987063e-01
9.992316e-01
9.996224e-01
9.998636e-01
9.999733e-01
9.999994e-01
1 2 19 18
2 3 20 19
3 4 21 20
4 5 22 21
5 6 23 22
6 7 24 23
7 8 25 24
8 9 26 25
9 10 27 26
10 11 28 27
11 12 29 28
12 13 30 29
13 14 31 30
14 15 32 31
15 16 33 32
16 17 34 33
18 19 36 35
19 20 37 36
20 21 38 37
21 22 39 38
22 23 40 39
23 24 41 40
24 25 42 41
25 26 43 42
26 27 44 43
27 28 45 44
28 29 46 45
29 30 47 46
30 31 48 47
31 32 49 48
32 33 50 49
33 34 51 50
35 36 53 52
36 37 54 53
37 38 55 54
38 39 56 55
39 40 57 56
40 41 58 57
41 42 59 58
42 43 60 59
43 44 61 60
44 45 62 61
45 46 63 62
46 47 64 63
47 48 65 64
48 49 66 65
49 50 67 66
50 51 68 67
52 53 70 69
53 54 71 70
54 55 72 71
55 56 73 72
56 57 74 73
57 58 75 74
58 59 76 75
59 60 77 76
60 61 78 77
61 62 79 78
62 63 80 79
63 64 81 80
64 65 82 81
65 66 83 82
66 67 84 83
67 68 85 84
69 70 87 86
70 71 88 87
71 72 89 88
72 73 90 89
73 74 91 90
74 75 92 91
75 76 93 92
76 77 94 93
77 78 95 94
78 79 96 95
79 80 97 96
80 81 98 97
81 82 99 98
82 83 100 99
83 84 101 100
84 85 102 101
86 87 104 103
87 88 105 104
88 89 106 105
89 90 107 106
90 91 108 107
91 92 109 108
92 93 110 109
93 94 111 110
94 95 112 111
95 96 113 112
96 97 114 113
97 98 115 114
98 99 116 115
99 100 117 116
100 101 118 117
101 102 119 118
103 104 121 120
104 105 122 121
105 106 123 122
106 107 124 123
107 108 125 124
108 109 126 125
109 110 127 126
110 111 128 127
111 112 129 128
112 113 130 129
113 114 131 130
114 115 132 131
115 116 133 132
116 117 134 133
117 118 135 134
118 119 136 135
120 121 138 137
121 122 139 138
122 123 140 139
123 124 141 140
124 125 142 141
125 126 143 142
126 127 144 143
127 128 145 144
128 129 146 145
129 130 147 146
130 131 148 147
131 132 149 148
132 133 150 149
133 134 151 150
134 135 152 151
135 136 153 152
