TITLE = "Solution"
VARIABLES = x, y, u, v, psiu, psiv, t, stress
ZONE T="structure" N=153 E=128 F=FEBLOCK ET=QUADRILATERAL VARLOCATION=([7,8]=cellcentered)
0.000000e+00
1.250000e+01
2.500000e+01
3.750000e+01
5.000000e+01
6.250000e+01
7.500000e+01
8.750000e+01
1.000000e+02
1.125000e+02
1.250000e+02
1.375000e+02
1.500000e+02
1.625000e+02
1.750000e+02
1.875000e+02
2.000000e+02
0.000000e+00
1.250000e+01
2.500000e+01
3.750000e+01
5.000000e+01
6.250000e+01
7.500000e+01
8.750000e+01
1.000000e+02
1.125000e+02
1.250000e+02
1.375000e+02
1.500000e+02
1.625000e+02
1.750000e+02
1.875000e+02
2.000000e+02
0.000000e+00
1.250000e+01
2.500000e+01
3.750000e+01
5.000000e+01
6.250000e+01
7.500000e+01
8.750000e+01
1.000000e+02
1.125000e+02
1.250000e+02
1.375000e+02
1.500000e+02
1.625000e+02
1.750000e+02
1.875000e+02
2.000000e+02
0.000000e+00
1.250000e+01
2.500000e+01
3.750000e+01
5.000000e+01
6.250000e+01
7.500000e+01
8.750000e+01
1.000000e+02
1.125000e+02
1.250000e+02
1.375000e+02
1.500000e+02
1.625000e+02
1.750000e+02
1.875000e+02
2.000000e+02
0.000000e+00
1.250000e+01
2.500000e+01
3.750000e+01
5.000000e+01
6.250000e+01
7.500000e+01
8.750000e+01
1.000000e+02
1.125000e+02
1.250000e+02
1.375000e+02
1.500000e+02
1.625000e+02
1.750000e+02
1.875000e+02
2.000000e+02
0.000000e+00
1.250000e+01
2.500000e+01
3.750000e+01
5.000000e+01
6.250000e+01
7.500000e+01
8.750000e+01
1.000000e+02
1.125000e+02
1.250000e+02
1.375000e+02
1.500000e+02
1.625000e+02
1.750000e+02
1.875000e+02
2.000000e+02
0.000000e+00
1.250000e+01
2.500000e+01
3.750000e+01
5.000000e+01
6.250000e+01
7.500000e+01
8.750000e+01
1.000000e+02
1.125000e+02
1.250000e+02
1.375000e+02
1.500000e+02
1.625000e+02
1.750000e+02
1.875000e+02
2.000000e+02
0.000000e+00
1.250000e+01
2.500000e+01
3.750000e+01
5.000000e+01
6.250000e+01
7.500000e+01
8.750000e+01
1.000000e+02
1.125000e+02
1.250000e+02
1.375000e+02
1.500000e+02
1.625000e+02
1.750000e+02
1.875000e+02
2.000000e+02
0.000000e+00
1.250000e+01
2.500000e+01
3.750000e+01
5.000000e+01
6.250000e+01
7.500000e+01
8.750000e+01
1.000000e+02
1.125000e+02
1.250000e+02
1.375000e+02
1.500000e+02
1.625000e+02
1.750000e+02
1.875000e+02
2.000000e+02
0.000000e+00
0.000000e+00
0.000000e+00
0.000000e+00
0.000000e+00
0.000000e+00
0.000000e+00
0.000000e+00
0.000000e+00
0.000000e+00
0.000000e+00
0.000000e+00
0.000000e+00
0.000000e+00
0.000000e+00
0.000000e+00
0.000000e+00
1.250000e+01
1.250000e+01
1.250000e+01
1.250000e+01
1.250000e+01
1.250000e+01
1.250000e+01
1.250000e+01
1.250000e+01
1.250000e+01
1.250000e+01
1.250000e+01
1.250000e+01
1.250000e+01
1.250000e+01
1.250000e+01
1.250000e+01
2.500000e+01
2.500000e+01
2.500000e+01
2.500000e+01
2.500000e+01
2.500000e+01
2.500000e+01
2.500000e+01
2.500000e+01
2.500000e+01
2.500000e+01
2.500000e+01
2.500000e+01
2.500000e+01
2.500000e+01
2.500000e+01
2.500000e+01
3.750000e+01
3.750000e+01
3.750000e+01
3.750000e+01
3.750000e+01
3.750000e+01
3.750000e+01
3.750000e+01
3.750000e+01
3.750000e+01
3.750000e+01
3.750000e+01
3.750000e+01
3.750000e+01
3.750000e+01
3.750000e+01
3.750000e+01
5.000000e+01
5.000000e+01
5.000000e+01
5.000000e+01
5.000000e+01
5.000000e+01
5.000000e+01
5.000000e+01
5.000000e+01
5.000000e+01
5.000000e+01
5.000000e+01
5.000000e+01
5.000000e+01
5.000000e+01
5.000000e+01
5.000000e+01
6.250000e+01
6.250000e+01
6.250000e+01
6.250000e+01
6.250000e+01
6.250000e+01
6.250000e+01
6.250000e+01
6.250000e+01
6.250000e+01
6.250000e+01
6.250000e+01
6.250000e+01
6.250000e+01
6.250000e+01
6.250000e+01
6.250000e+01
7.500000e+01
7.500000e+01
7.500000e+01
7.500000e+01
7.500000e+01
7.500000e+01
7.500000e+01
7.500000e+01
7.500000e+01
7.500000e+01
7.500000e+01
7.500000e+01
7.500000e+01
7.500000e+01
7.500000e+01
7.500000e+01
7.500000e+01
8.750000e+01
8.750000e+01
8.750000e+01
8.750000e+01
8.750000e+01
8.750000e+01
8.750000e+01
8.750000e+01
8.750000e+01
8.750000e+01
8.750000e+01
8.750000e+01
8.750000e+01
8.750000e+01
8.750000e+01
8.750000e+01
8.750000e+01
1.000000e+02
1.000000e+02
1.000000e+02
1.000000e+02
1.000000e+02
1.000000e+02
1.000000e+02
1.000000e+02
1.000000e+02
1.000000e+02
1.000000e+02
1.000000e+02
1.000000e+02
1.000000e+02
1.000000e+02
1.000000e+02
1.000000e+02
0.000000e+00
-8.505988e-01
-1.530973e+00
-2.197150e+00
-2.875804e+00
-3.536150e+00
-4.191587e+00
-4.847556e+00
-5.499333e+00
-6.145442e+00
-6.780915e+00
-7.395694e+00
-7.985496e+00
-8.561651e+00
-9.146661e+00
-9.768832e+00
-1.019718e+01
0.000000e+00
-4.594301e-01
-9.545361e-01
-1.448408e+00
-1.956420e+00
-2.451033e+00
-2.941021e+00
-3.430974e+00
-3.917026e+00
-4.396997e+00
-4.865136e+00
-5.308875e+00
-5.712936e+00
-6.056015e+00
-6.289247e+00
-6.341985e+00
-6.486184e+00
0.000000e+00
-2.496126e-01
-5.288260e-01
-8.475167e-01
-1.182843e+00
-1.514803e+00
-1.846218e+00
-2.176249e+00
-2.500673e+00
-2.814830e+00
-3.109767e+00
-3.370476e+00
-3.576601e+00
-3.701172e+00
-3.717719e+00
-3.686122e+00
-3.835655e+00
0.000000e+00
-1.089099e-01
-2.347257e-01
-3.858605e-01
-5.494059e-01
-7.167291e-01
-8.846778e-01
-1.049895e+00
-1.208491e+00
-1.354817e+00
-1.479988e+00
-1.571780e+00
-1.616433e+00
-1.605171e+00
-1.559082e+00
-1.565372e+00
-1.686610e+00
0.000000e+00
-6.575284e-04
-1.341295e-03
-1.924270e-03
-2.161529e-03
-1.608697e-03
5.102762e-04
5.509788e-03
1.561470e-02
3.438769e-02
6.678426e-02
1.181073e-01
1.905432e-01
2.746299e-01
3.364534e-01
3.298075e-01
2.424850e-01
0.000000e+00
1.077913e-01
2.324165e-01
3.824589e-01
5.453918e-01
7.133047e-01
8.842816e-01
1.057123e+00
1.231538e+00
1.407452e+00
1.583743e+00
1.757104e+00
1.919792e+00
2.055409e+00
2.138597e+00
2.149311e+00
2.102918e+00
0.000000e+00
2.490355e-01
5.275507e-01
8.454465e-01
1.180026e+00
1.511532e+00
1.843156e+00
2.175051e+00
2.504633e+00
2.828717e+00
3.139437e+00
3.423774e+00
3.666415e+00
3.851530e+00
3.964883e+00
4.002648e+00
3.991957e+00
0.000000e+00
4.595339e-01
9.546074e-01
1.448311e+00
1.955995e+00
2.449843e+00
2.938044e+00
3.424970e+00
3.906323e+00
4.376082e+00
4.819264e+00
5.211539e+00
5.529441e+00
5.758643e+00
5.897118e+00
5.956448e+00
5.967453e+00
0.000000e+00
8.511705e-01
1.532265e+00
2.199323e+00
2.878987e+00
3.540079e+00
4.195263e+00
4.849471e+00
5.496282e+00
6.125848e+00
6.713810e+00
7.221873e+00
7.613867e+00
7.869651e+00
7.993958e+00
8.024085e+00
8.023156e+00
0.000000e+00
-5.242705e-01
-1.087551e+00
-1.835060e+00
-2.749935e+00
-3.831188e+00
-5.085620e+00
-6.512971e+00
-8.111474e+00
-9.879505e+00
-1.181181e+01
-1.390055e+01
-1.614184e+01
-1.854566e+01
-2.117473e+01
-2.424359e+01
-2.877548e+01
0.000000e+00
-3.321462e-01
-9.203826e-01
-1.659466e+00
-2.575049e+00
-3.659278e+00
-4.914272e+00
-6.342461e+00
-7.942909e+00
-9.714122e+00
-1.165256e+01
-1.375127e+01
-1.600552e+01
-1.842764e+01
-2.107343e+01
-2.413728e+01
-2.792028e+01
0.000000e+00
-2.732385e-01
-8.103218e-01
-1.541795e+00
-2.453031e+00
-3.537197e+00
-4.793415e+00
-6.223774e+00
-7.828090e+00
-9.605893e+00
-1.155497e+01
-1.366962e+01
-1.594659e+01
-1.839815e+01
-2.105874e+01
-2.394794e+01
-2.669086e+01
0.000000e+00
-2.693432e-01
-7.686846e-01
-1.480266e+00
-2.383595e+00
-3.465602e+00
-4.723460e+00
-6.157562e+00
-7.768336e+00
-9.556305e+00
-1.151968e+01
-1.365249e+01
-1.594818e+01
-1.840425e+01
-2.100140e+01
-2.361456e+01
-2.593109e+01
0.000000e+00
-2.728703e-01
-7.607876e-01
-1.463453e+00
-2.362463e+00
-3.444171e+00
-4.704260e+00
-6.142540e+00
-7.760121e+00
-9.558162e+00
-1.153432e+01
-1.367948e+01
-1.597752e+01
-1.840195e+01
-2.088953e+01
-2.330308e+01
-2.542171e+01
0.000000e+00
-2.691865e-01
-7.688676e-01
-1.481354e+00
-2.386427e+00
-3.471405e+00
-4.733915e+00
-6.175199e+00
-7.797149e+00
-9.601443e+00
-1.158469e+01
-1.373269e+01
-1.601756e+01
-1.839304e+01
-2.078294e+01
-2.307286e+01
-2.511612e+01
0.000000e+00
-2.729586e-01
-8.105757e-01
-1.543478e+00
-2.457526e+00
-3.546537e+00
-4.810437e+00
-6.252778e+00
-7.875865e+00
-9.681336e+00
-1.166449e+01
-1.380632e+01
-1.606978e+01
-1.839844e+01
-2.071628e+01
-2.293656e+01
-2.497812e+01
0.000000e+00
-3.318645e-01
-9.206491e-01
-1.661305e+00
-2.580029e+00
-3.669672e+00
-4.933348e+00
-6.375257e+00
-7.997136e+00
-9.799428e+00
-1.177529e+01
-1.390252e+01
-1.614036e+01
-1.842994e+01
-2.069897e+01
-2.287933e+01
-2.494618e+01
0.000000e+00
-5.241385e-01
-1.087948e+00
-1.837070e+00
-2.755110e+00
-3.841701e+00
-5.104682e+00
-6.545645e+00
-8.164817e+00
-9.960589e+00
-1.192213e+01
-1.402500e+01
-1.622964e+01
-1.848086e+01
-2.071289e+01
-2.286871e+01
-2.494702e+01


0.000000e+00
1.147556e-05
2.174081e-05
3.188372e-05
4.320332e-05
5.426362e-05
6.448553e-05
7.412819e-05
8.305292e-05
9.069208e-05
9.655885e-05
1.006274e-04
1.033608e-04
1.054576e-04
1.073907e-04
1.099349e-04
1.130961e-04
0.000000e+00
8.455720e-06
1.754747e-05
2.515291e-05
3.388510e-05
4.240256e-05
5.001982e-05
5.716160e-05
6.378778e-05
6.930712e-05
7.327298e-05
7.569354e-05
7.686863e-05
7.709550e-05
7.727272e-05
7.933465e-05
8.283441e-05
0.000000e+00
6.452439e-06
1.263757e-05
1.788617e-05
2.377396e-05
2.934172e-05
3.432894e-05
3.893596e-05
4.306403e-05
4.637531e-05
4.865002e-05
4.989903e-05
5.030579e-05
5.023362e-05
5.045954e-05
5.232546e-05
5.551268e-05
0.000000e+00
3.242254e-06
5.934201e-06
8.986833e-06
1.185524e-05
1.450951e-05
1.699074e-05
1.922785e-05
2.112302e-05
2.260525e-05
2.361483e-05
2.416085e-05
2.439173e-05
2.460942e-05
2.513144e-05
2.636784e-05
2.832952e-05
0.000000e+00
-1.024164e-08
-2.108920e-08
-3.161129e-08
-4.185614e-08
-5.272861e-08
-6.650292e-08
-9.410181e-08
-1.574214e-07
-2.740042e-07
-4.300480e-07
-5.689807e-07
-5.897280e-07
-3.852974e-07
-2.325752e-08
4.439878e-07
1.290099e-06
0.000000e+00
-3.260728e-06
-5.970531e-06
-9.042193e-06
-1.192998e-05
-1.460045e-05
-1.709544e-05
-1.935784e-05
-2.131916e-05
-2.292838e-05
-2.412888e-05
-2.488757e-05
-2.523916e-05
-2.530447e-05
-2.529849e-05
-2.528314e-05
-2.502018e-05
0.000000e+00
-6.461619e-06
-1.265828e-05
-1.792485e-05
-2.383393e-05
-2.941417e-05
-3.441122e-05
-3.902972e-05
-4.311813e-05
-4.628783e-05
-4.838894e-05
-4.959783e-05
-5.021959e-05
-5.053724e-05
-5.074506e-05
-5.087045e-05
-5.082005e-05
0.000000e+00
-8.455327e-06
-1.754832e-05
-2.516277e-05
-3.390895e-05
-4.242832e-05
-5.005357e-05
-5.722397e-05
-6.377561e-05
-6.894285e-05
-7.234909e-05
-7.431772e-05
-7.541184e-05
-7.604091e-05
-7.641597e-05
-7.660526e-05
-7.663765e-05
0.000000e+00
-1.147422e-05
-2.172874e-05
-3.186119e-05
-4.316975e-05
-5.420601e-05
-6.440685e-05
-7.404588e-05
-8.287447e-05
-9.012726e-05
-9.533229e-05
-9.867898e-05
-1.006900e-04
-1.018354e-04
-1.024204e-04
-1.026345e-04
-1.026677e-04
0.000000e+00
9.921334e-06
1.681988e-05
2.567323e-05
3.748500e-05
5.134855e-05
6.766709e-05
8.665572e-05
1.078070e-04
1.305343e-04
1.544820e-04
1.794831e-04
2.055112e-04
2.329937e-04
2.641466e-04
3.003203e-04
3.372708e-04
0.000000e+00
5.272414e-06
1.255436e-05
2.094802e-05
3.239322e-05
4.654657e-05
6.324420e-05
8.250913e-05
1.041185e-04
1.276053e-04
1.524574e-04
1.782681e-04
2.048611e-04
2.324852e-04
2.620193e-04
2.959083e-04
3.317356e-04
0.000000e+00
2.365951e-06
8.955604e-06
1.746542e-05
2.869498e-05
4.307151e-05
6.011566e-05
7.965234e-05
1.016212e-04
1.256529e-04
1.511443e-04
1.775531e-04
2.045939e-04
2.320343e-04
2.596052e-04
2.906289e-04
3.245132e-04
0.000000e+00
1.370689e-06
7.212832e-06
1.582715e-05
2.718337e-05
4.161406e-05
5.878828e-05
7.850801e-05
1.006553e-04
1.248753e-04
1.505881e-04
1.772251e-04
2.043644e-04
2.315399e-04
2.580958e-04
2.867919e-04
3.181835e-04
0.000000e+00
1.160415e-06
6.702271e-06
1.527258e-05
2.676228e-05
4.118354e-05
5.838703e-05
7.819410e-05
1.004288e-04
1.247165e-04
1.504827e-04
1.771358e-04
2.041870e-04
2.311666e-04
2.576956e-04
2.851649e-04
3.140067e-04
0.000000e+00
1.372291e-06
7.209477e-06
1.581441e-05
2.716064e-05
4.157991e-05
5.874990e-05
7.850754e-05
1.007540e-04
1.250838e-04
1.508373e-04
1.773863e-04
2.042621e-04
2.311011e-04
2.577712e-04
2.847113e-04
3.118161e-04
0.000000e+00
2.368551e-06
8.950817e-06
1.744685e-05
2.866089e-05
4.301803e-05
6.005400e-05
7.965671e-05
1.018001e-04
1.260327e-04
1.516191e-04
1.779289e-04
2.045596e-04
2.312525e-04
2.578891e-04
2.845214e-04
3.108790e-04
0.000000e+00
5.276306e-06
1.255369e-05
2.093582e-05
3.236396e-05
4.649548e-05
6.319044e-05
8.252331e-05
1.042856e-04
1.279412e-04
1.528965e-04
1.786841e-04
2.049596e-04
2.314540e-04
2.579829e-04
2.844232e-04
3.105958e-04
0.000000e+00
9.926186e-06
1.682227e-05
2.566901e-05
3.746366e-05
5.130418e-05
6.763069e-05
8.667659e-05
1.078850e-04
1.306289e-04
1.546059e-04
1.796447e-04
2.054589e-04
2.316992e-04
2.580850e-04
2.844132e-04
3.105586e-04


2.265289e+00
2.185726e+00
2.320638e+00
2.518301e+00
2.668406e+00
2.926727e+00
3.257192e+00
3.638362e+00
4.090812e+00
4.571613e+00
4.992442e+00
5.287347e+00
5.397239e+00
5.146236e+00
4.524049e+00
4.014995e+00
3.189559e+00
3.110972e+00
3.183389e+00
3.309108e+00
3.405617e+00
3.589539e+00
3.830502e+00
4.111330e+00
4.451004e+00
4.817830e+00
5.141449e+00
5.365346e+00
5.425424e+00
5.132678e+00
4.495672e+00
3.976630e+00
4.489540e+00
4.436388e+00
4.452861e+00
4.488613e+00
4.516102e+00
4.596632e+00
4.703830e+00
4.831892e+00
4.995604e+00
5.180169e+00
5.346777e+00
5.460726e+00
5.470389e+00
5.217303e+00
4.700083e+00
4.300500e+00
5.266835e+00
5.237000e+00
5.225731e+00
5.211294e+00
5.208540e+00
5.225355e+00
5.248297e+00
5.278427e+00
5.324769e+00
5.384543e+00
5.443854e+00
5.488729e+00
5.491337e+00
5.360548e+00
5.089667e+00
4.880071e+00
5.266863e+00
5.236886e+00
5.225314e+00
5.210383e+00
5.206612e+00
5.221191e+00
5.240561e+00
5.266548e+00
5.308386e+00
5.362933e+00
5.418144e+00
5.466362e+00
5.497857e+00
5.476113e+00
5.392935e+00
5.324028e+00
4.489383e+00
4.435776e+00
4.451365e+00
4.485920e+00
4.511069e+00
4.586890e+00
4.688736e+00
4.814464e+00
4.977126e+00
5.155477e+00
5.311822e+00
5.428729e+00
5.509133e+00
5.551615e+00
5.558771e+00
5.553942e+00
3.188815e+00
3.109527e+00
3.180807e+00
3.305427e+00
3.400167e+00
3.581617e+00
3.825548e+00
4.122034e+00
4.482715e+00
4.856908e+00
5.168840e+00
5.385507e+00
5.519942e+00
5.596849e+00
5.635379e+00
5.650060e+00
2.264008e+00
2.183718e+00
2.317586e+00
2.514728e+00
2.664579e+00
2.924180e+00
3.266875e+00
3.680641e+00
4.173944e+00
4.675233e+00
5.085435e+00
5.363524e+00
5.528823e+00
5.619323e+00
5.664592e+00
5.683134e+00


-5.114277e-01
-2.197655e-01
-1.800285e-01
-2.343817e-01
-1.721563e-01
-1.544049e-01
-1.567698e-01
-1.422755e-01
-1.197624e-01
-7.477573e-02
1.433276e-02
1.370267e-01
2.701981e-01
4.213938e-01
5.929758e-01
-5.126110e-01
5.236642e-01
4.004099e-01
3.534226e-01
3.054972e-01
3.247485e-01
3.242085e-01
3.161129e-01
3.205987e-01
3.379164e-01
3.821419e-01
4.711435e-01
6.035285e-01
7.599821e-01
8.919817e-01
7.619643e-01
-1.271167e+00
8.308929e-01
7.241564e-01
6.307094e-01
5.863719e-01
5.758030e-01
5.642485e-01
5.554328e-01
5.546787e-01
5.637889e-01
5.898380e-01
6.372922e-01
6.919675e-01
7.089068e-01
6.079315e-01
2.932447e-01
-2.608032e-01
9.171653e-01
8.256093e-01
7.352793e-01
6.838420e-01
6.621262e-01
6.510250e-01
6.426807e-01
6.335792e-01
6.207721e-01
6.030978e-01
5.778240e-01
5.317959e-01
4.412492e-01
3.152591e-01
2.609665e-01
2.794441e-01
9.177201e-01
8.262556e-01
7.357539e-01
6.832808e-01
6.591548e-01
6.435523e-01
6.271390e-01
6.039196e-01
5.679743e-01
5.166878e-01
4.518805e-01
3.789888e-01
3.166661e-01
3.216321e-01
4.531056e-01
6.650479e-01
8.321994e-01
7.257428e-01
6.320950e-01
5.859821e-01
5.710630e-01
5.509855e-01
5.258984e-01
4.957676e-01
4.565666e-01
4.122326e-01
3.739666e-01
3.581632e-01
3.924492e-01
5.080109e-01
6.959830e-01
8.912378e-01
5.245980e-01
4.016911e-01
3.547588e-01
3.062230e-01
3.238448e-01
3.199986e-01
3.035317e-01
2.908904e-01
2.829284e-01
2.970508e-01
3.518280e-01
4.469351e-01
5.755214e-01
7.315248e-01
8.843339e-01
9.809875e-01
-5.125920e-01
-2.211243e-01
-1.814671e-01
-2.359178e-01
-1.725125e-01
-1.513979e-01
-1.497200e-01
-1.283951e-01
-7.815158e-02
4.110490e-02
2.532470e-01
5.145866e-01
7.499554e-01
9.078534e-01
9.819775e-01
9.996406e-01
1 2 19 18
2 3 20 19
3 4 21 20
4 5 22 21
5 6 23 22
6 7 24 23
7 8 25 24
8 9 26 25
9 10 27 26
10 11 28 27
11 12 29 28
12 13 30 29
13 14 31 30
14 15 32 31
15 16 33 32
16 17 34 33
18 19 36 35
19 20 37 36
20 21 38 37
21 22 39 38
22 23 40 39
23 24 41 40
24 25 42 41
25 26 43 42
26 27 44 43
27 28 45 44
28 29 46 45
29 30 47 46
30 31 48 47
31 32 49 48
32 33 50 49
33 34 51 50
35 36 53 52
36 37 54 53
37 38 55 54
38 39 56 55
39 40 57 56
40 41 58 57
41 42 59 58
42 43 60 59
43 44 61 60
44 45 62 61
45 46 63 62
46 47 64 63
47 48 65 64
48 49 66 65
49 50 67 66
50 51 68 67
52 53 70 69
53 54 71 70
54 55 72 71
55 56 73 72
56 57 74 73
57 58 75 74
58 59 76 75
59 60 77 76
60 61 78 77
61 62 79 78
62 63 80 79
63 64 81 80
64 65 82 81
65 66 83 82
66 67 84 83
67 68 85 84
69 70 87 86
70 71 88 87
71 72 89 88
72 73 90 89
73 74 91 90
74 75 92 91
75 76 93 92
76 77 94 93
77 78 95 94
78 79 96 95
79 80 97 96
80 81 98 97
81 82 99 98
82 83 100 99
83 84 101 100
84 85 102 101
86 87 104 103
87 88 105 104
88 89 106 105
89 90 107 106
90 91 108 107
91 92 109 108
92 93 110 109
93 94 111 110
94 95 112 111
95 96 113 112
96 97 114 113
97 98 115 114
98 99 116 115
99 100 117 116
100 101 118 117
101 102 119 118
103 104 121 120
104 105 122 121
105 106 123 122
106 107 124 123
107 108 125 124
108 109 126 125
109 110 127 126
110 111 128 127
111 112 129 128
112 113 130 129
113 114 131 130
114 115 132 131
115 116 133 132
116 117 134 133
117 118 135 134
118 119 136 135
120 121 138 137
121 122 139 138
122 123 140 139
123 124 141 140
124 125 142 141
125 126 143 142
126 127 144 143
127 128 145 144
128 129 146 145
129 130 147 146
130 131 148 147
131 132 149 148
132 133 150 149
133 134 151 150
134 135 152 151
135 136 153 152
