TITLE = "Solution"
VARIABLES = x, y, u, v, psiu, psiv, t, stress
ZONE T="structure" N=153 E=128 F=FEBLOCK ET=QUADRILATERAL VARLOCATION=([7,8]=cellcentered)
0.000000e+00
1.250000e+01
2.500000e+01
3.750000e+01
5.000000e+01
6.250000e+01
7.500000e+01
8.750000e+01
1.000000e+02
1.125000e+02
1.250000e+02
1.375000e+02
1.500000e+02
1.625000e+02
1.750000e+02
1.875000e+02
2.000000e+02
0.000000e+00
1.250000e+01
2.500000e+01
3.750000e+01
5.000000e+01
6.250000e+01
7.500000e+01
8.750000e+01
1.000000e+02
1.125000e+02
1.250000e+02
1.375000e+02
1.500000e+02
1.625000e+02
1.750000e+02
1.875000e+02
2.000000e+02
0.000000e+00
1.250000e+01
2.500000e+01
3.750000e+01
5.000000e+01
6.250000e+01
7.500000e+01
8.750000e+01
1.000000e+02
1.125000e+02
1.250000e+02
1.375000e+02
1.500000e+02
1.625000e+02
1.750000e+02
1.875000e+02
2.000000e+02
0.000000e+00
1.250000e+01
2.500000e+01
3.750000e+01
5.000000e+01
6.250000e+01
7.500000e+01
8.750000e+01
1.000000e+02
1.125000e+02
1.250000e+02
1.375000e+02
1.500000e+02
1.625000e+02
1.750000e+02
1.875000e+02
2.000000e+02
0.000000e+00
1.250000e+01
2.500000e+01
3.750000e+01
5.000000e+01
6.250000e+01
7.500000e+01
8.750000e+01
1.000000e+02
1.125000e+02
1.250000e+02
1.375000e+02
1.500000e+02
1.625000e+02
1.750000e+02
1.875000e+02
2.000000e+02
0.000000e+00
1.250000e+01
2.500000e+01
3.750000e+01
5.000000e+01
6.250000e+01
7.500000e+01
8.750000e+01
1.000000e+02
1.125000e+02
1.250000e+02
1.375000e+02
1.500000e+02
1.625000e+02
1.750000e+02
1.875000e+02
2.000000e+02
0.000000e+00
1.250000e+01
2.500000e+01
3.750000e+01
5.000000e+01
6.250000e+01
7.500000e+01
8.750000e+01
1.000000e+02
1.125000e+02
1.250000e+02
1.375000e+02
1.500000e+02
1.625000e+02
1.750000e+02
1.875000e+02
2.000000e+02
0.000000e+00
1.250000e+01
2.500000e+01
3.750000e+01
5.000000e+01
6.250000e+01
7.500000e+01
8.750000e+01
1.000000e+02
1.125000e+02
1.250000e+02
1.375000e+02
1.500000e+02
1.625000e+02
1.750000e+02
1.875000e+02
2.000000e+02
0.000000e+00
1.250000e+01
2.500000e+01
3.750000e+01
5.000000e+01
6.250000e+01
7.500000e+01
8.750000e+01
1.000000e+02
1.125000e+02
1.250000e+02
1.375000e+02
1.500000e+02
1.625000e+02
1.750000e+02
1.875000e+02
2.000000e+02
0.000000e+00
0.000000e+00
0.000000e+00
0.000000e+00
0.000000e+00
0.000000e+00
0.000000e+00
0.000000e+00
0.000000e+00
0.000000e+00
0.000000e+00
0.000000e+00
0.000000e+00
0.000000e+00
0.000000e+00
0.000000e+00
0.000000e+00
1.250000e+01
1.250000e+01
1.250000e+01
1.250000e+01
1.250000e+01
1.250000e+01
1.250000e+01
1.250000e+01
1.250000e+01
1.250000e+01
1.250000e+01
1.250000e+01
1.250000e+01
1.250000e+01
1.250000e+01
1.250000e+01
1.250000e+01
2.500000e+01
2.500000e+01
2.500000e+01
2.500000e+01
2.500000e+01
2.500000e+01
2.500000e+01
2.500000e+01
2.500000e+01
2.500000e+01
2.500000e+01
2.500000e+01
2.500000e+01
2.500000e+01
2.500000e+01
2.500000e+01
2.500000e+01
3.750000e+01
3.750000e+01
3.750000e+01
3.750000e+01
3.750000e+01
3.750000e+01
3.750000e+01
3.750000e+01
3.750000e+01
3.750000e+01
3.750000e+01
3.750000e+01
3.750000e+01
3.750000e+01
3.750000e+01
3.750000e+01
3.750000e+01
5.000000e+01
5.000000e+01
5.000000e+01
5.000000e+01
5.000000e+01
5.000000e+01
5.000000e+01
5.000000e+01
5.000000e+01
5.000000e+01
5.000000e+01
5.000000e+01
5.000000e+01
5.000000e+01
5.000000e+01
5.000000e+01
5.000000e+01
6.250000e+01
6.250000e+01
6.250000e+01
6.250000e+01
6.250000e+01
6.250000e+01
6.250000e+01
6.250000e+01
6.250000e+01
6.250000e+01
6.250000e+01
6.250000e+01
6.250000e+01
6.250000e+01
6.250000e+01
6.250000e+01
6.250000e+01
7.500000e+01
7.500000e+01
7.500000e+01
7.500000e+01
7.500000e+01
7.500000e+01
7.500000e+01
7.500000e+01
7.500000e+01
7.500000e+01
7.500000e+01
7.500000e+01
7.500000e+01
7.500000e+01
7.500000e+01
7.500000e+01
7.500000e+01
8.750000e+01
8.750000e+01
8.750000e+01
8.750000e+01
8.750000e+01
8.750000e+01
8.750000e+01
8.750000e+01
8.750000e+01
8.750000e+01
8.750000e+01
8.750000e+01
8.750000e+01
8.750000e+01
8.750000e+01
8.750000e+01
8.750000e+01
1.000000e+02
1.000000e+02
1.000000e+02
1.000000e+02
1.000000e+02
1.000000e+02
1.000000e+02
1.000000e+02
1.000000e+02
1.000000e+02
1.000000e+02
1.000000e+02
1.000000e+02
1.000000e+02
1.000000e+02
1.000000e+02
1.000000e+02
0.000000e+00
-9.966908e-01
-1.680002e+00
-2.433000e+00
-3.119994e+00
-3.753326e+00
-4.461700e+00
-5.090356e+00
-5.765827e+00
-6.407680e+00
-7.056795e+00
-7.724847e+00
-8.379135e+00
-9.148751e+00
-1.007131e+01
-1.083318e+01
-1.128750e+01
0.000000e+00
-4.460545e-01
-9.062638e-01
-1.418758e+00
-1.930244e+00
-2.409777e+00
-2.923466e+00
-3.421201e+00
-3.916673e+00
-4.419115e+00
-4.911498e+00
-5.414705e+00
-5.899959e+00
-6.419852e+00
-6.898156e+00
-7.025560e+00
-7.204935e+00
0.000000e+00
-1.454715e-01
-3.475018e-01
-6.374248e-01
-9.745708e-01
-1.298823e+00
-1.651393e+00
-2.008266e+00
-2.351436e+00
-2.713579e+00
-3.052054e+00
-3.386727e+00
-3.680720e+00
-3.918848e+00
-4.032756e+00
-4.033723e+00
-4.180491e+00
0.000000e+00
-7.812339e-02
-1.603603e-01
-3.067041e-01
-4.508333e-01
-6.230861e-01
-8.084704e-01
-9.730813e-01
-1.160029e+00
-1.321279e+00
-1.481399e+00
-1.619365e+00
-1.715988e+00
-1.725680e+00
-1.650532e+00
-1.629025e+00
-1.745672e+00
0.000000e+00
-2.575668e-03
-5.839314e-03
-8.673414e-03
-1.168417e-02
-1.340853e-02
-1.136686e-02
-6.561190e-03
3.089290e-03
2.006070e-02
4.306418e-02
8.378985e-02
1.611430e-01
2.671922e-01
3.823112e-01
4.288522e-01
3.297722e-01
0.000000e+00
7.365103e-02
1.514749e-01
2.911737e-01
4.293451e-01
5.998226e-01
7.841105e-01
9.604635e-01
1.170258e+00
1.361195e+00
1.571255e+00
1.782345e+00
2.007456e+00
2.212782e+00
2.340322e+00
2.369209e+00
2.302224e+00
0.000000e+00
1.439503e-01
3.444649e-01
6.296209e-01
9.614292e-01
1.282066e+00
1.631409e+00
1.992034e+00
2.355835e+00
2.766892e+00
3.149361e+00
3.507603e+00
3.837861e+00
4.118861e+00
4.294134e+00
4.346593e+00
4.321597e+00
0.000000e+00
4.449555e-01
9.088575e-01
1.419703e+00
1.929138e+00
2.410608e+00
2.918222e+00
3.413105e+00
3.901180e+00
4.391426e+00
4.875459e+00
5.349343e+00
5.766474e+00
6.117718e+00
6.335523e+00
6.432631e+00
6.450635e+00
0.000000e+00
9.947036e-01
1.685798e+00
2.441930e+00
3.130261e+00
3.776586e+00
4.482082e+00
5.108133e+00
5.757150e+00
6.332014e+00
6.903159e+00
7.504165e+00
8.021215e+00
8.436616e+00
8.638963e+00
8.693413e+00
8.694567e+00
0.000000e+00
-6.190507e-01
-1.362922e+00
-2.366055e+00
-3.542913e+00
-4.890164e+00
-6.426771e+00
-8.118779e+00
-9.985552e+00
-1.201498e+01
-1.420458e+01
-1.655935e+01
-1.907671e+01
-2.181232e+01
-2.478068e+01
-2.813366e+01
-3.316201e+01
0.000000e+00
-4.161523e-01
-1.194534e+00
-2.179685e+00
-3.373796e+00
-4.716016e+00
-6.249182e+00
-7.950391e+00
-9.809396e+00
-1.184771e+01
-1.403249e+01
-1.639169e+01
-1.890346e+01
-2.161899e+01
-2.464064e+01
-2.805274e+01
-3.209268e+01
0.000000e+00
-3.907029e-01
-1.092753e+00
-2.076320e+00
-3.254627e+00
-4.589776e+00
-6.129371e+00
-7.820623e+00
-9.691017e+00
-1.172680e+01
-1.392246e+01
-1.629310e+01
-1.881530e+01
-2.155237e+01
-2.462981e+01
-2.790891e+01
-3.093290e+01
0.000000e+00
-4.497314e-01
-1.089161e+00
-2.050018e+00
-3.191580e+00
-4.518778e+00
-6.066628e+00
-7.744082e+00
-9.635248e+00
-1.167050e+01
-1.388830e+01
-1.627478e+01
-1.882779e+01
-2.156042e+01
-2.455420e+01
-2.760837e+01
-3.023373e+01
0.000000e+00
-4.562877e-01
-1.111519e+00
-2.034309e+00
-3.175973e+00
-4.507934e+00
-6.042825e+00
-7.743148e+00
-9.627758e+00
-1.168509e+01
-1.391931e+01
-1.630719e+01
-1.887051e+01
-2.156526e+01
-2.439097e+01
-2.722879e+01
-2.962098e+01
0.000000e+00
-4.469905e-01
-1.088377e+00
-2.051657e+00
-3.195062e+00
-4.534611e+00
-6.091451e+00
-7.783544e+00
-9.692931e+00
-1.175294e+01
-1.399294e+01
-1.636115e+01
-1.889720e+01
-2.155908e+01
-2.425541e+01
-2.689067e+01
-2.916698e+01
0.000000e+00
-3.868647e-01
-1.091002e+00
-2.078065e+00
-3.262119e+00
-4.615237e+00
-6.174623e+00
-7.897224e+00
-9.802469e+00
-1.187254e+01
-1.408000e+01
-1.643137e+01
-1.893200e+01
-2.155791e+01
-2.417722e+01
-2.668365e+01
-2.893090e+01
0.000000e+00
-4.125603e-01
-1.192028e+00
-2.180923e+00
-3.382575e+00
-4.742352e+00
-6.301594e+00
-8.039709e+00
-9.942807e+00
-1.201216e+01
-1.419469e+01
-1.653160e+01
-1.900670e+01
-2.159580e+01
-2.415775e+01
-2.659706e+01
-2.886675e+01
0.000000e+00
-6.166534e-01
-1.361482e+00
-2.367242e+00
-3.553128e+00
-4.917785e+00
-6.479520e+00
-8.207934e+00
-1.011429e+01
-1.216720e+01
-1.434974e+01
-1.667884e+01
-1.912889e+01
-2.167647e+01
-2.418351e+01
-2.658276e+01
-2.886479e+01


0.000000e+00
1.533601e-05
2.483138e-05
3.689572e-05
5.244606e-05
6.537023e-05
8.090984e-05
9.490888e-05
1.101895e-04
1.248199e-04
1.406328e-04
1.554133e-04
1.719628e-04
1.877290e-04
1.974742e-04
2.031761e-04
2.104108e-04
0.000000e+00
1.149091e-05
1.983173e-05
2.864114e-05
4.139351e-05
5.234323e-05
6.281436e-05
7.423493e-05
8.447051e-05
9.552150e-05
1.057205e-04
1.156567e-04
1.262729e-04
1.356521e-04
1.374035e-04
1.412228e-04
1.471705e-04
0.000000e+00
9.749630e-06
1.558642e-05
2.140253e-05
3.092313e-05
3.843042e-05
4.483928e-05
5.258399e-05
5.834795e-05
6.490784e-05
7.015550e-05
7.476947e-05
7.867999e-05
8.062619e-05
8.007578e-05
8.262886e-05
8.690466e-05
0.000000e+00
5.449358e-06
7.507953e-06
1.113946e-05
1.589722e-05
1.819228e-05
2.253988e-05
2.479289e-05
2.761160e-05
2.898021e-05
3.079125e-05
2.985457e-05
2.826734e-05
2.641763e-05
2.656562e-05
3.003427e-05
3.568107e-05
0.000000e+00
-9.274668e-08
-2.342360e-07
-4.329163e-07
-6.801441e-07
-9.791979e-07
-1.359588e-06
-1.779879e-06
-2.678617e-06
-4.189354e-06
-7.493871e-06
-1.183144e-05
-1.467515e-05
-1.554687e-05
-1.514276e-05
-1.282880e-05
-8.661198e-06
0.000000e+00
-5.577030e-06
-7.860562e-06
-1.179371e-05
-1.703486e-05
-1.992723e-05
-2.470202e-05
-2.791276e-05
-3.102336e-05
-3.321681e-05
-3.708689e-05
-4.233507e-05
-4.649031e-05
-4.757926e-05
-4.812644e-05
-4.861664e-05
-4.698769e-05
0.000000e+00
-9.757370e-06
-1.560087e-05
-2.154797e-05
-3.150419e-05
-3.923030e-05
-4.616366e-05
-5.424534e-05
-5.942181e-05
-6.417980e-05
-6.861001e-05
-7.326393e-05
-7.719281e-05
-8.002690e-05
-8.221878e-05
-8.417363e-05
-8.489473e-05
0.000000e+00
-1.145346e-05
-1.975840e-05
-2.851242e-05
-4.140248e-05
-5.228585e-05
-6.286574e-05
-7.454711e-05
-8.456788e-05
-9.511322e-05
-1.054595e-04
-1.128000e-04
-1.176019e-04
-1.223946e-04
-1.256996e-04
-1.269299e-04
-1.270647e-04
0.000000e+00
-1.538886e-05
-2.487222e-05
-3.673147e-05
-5.207492e-05
-6.475841e-05
-7.962855e-05
-9.369778e-05
-1.085549e-04
-1.244783e-04
-1.426160e-04
-1.573374e-04
-1.654478e-04
-1.703994e-04
-1.725928e-04
-1.727026e-04
-1.724923e-04
0.000000e+00
1.264023e-05
1.992251e-05
3.199356e-05
4.736443e-05
6.363732e-05
8.504145e-05
1.098605e-04
1.391158e-04
1.730151e-04
2.120191e-04
2.562408e-04
3.069988e-04
3.620676e-04
4.239681e-04
4.947713e-04
5.681954e-04
0.000000e+00
7.725873e-06
1.603388e-05
2.590857e-05
4.096762e-05
5.776113e-05
7.859399e-05
1.038458e-04
1.327430e-04
1.668737e-04
2.057624e-04
2.501640e-04
3.005333e-04
3.571601e-04
4.186186e-04
4.870901e-04
5.573642e-04
0.000000e+00
4.277701e-06
1.205674e-05
2.108095e-05
3.509222e-05
5.280741e-05
7.355468e-05
9.896590e-05
1.280154e-04
1.621719e-04
2.014077e-04
2.460854e-04
2.971362e-04
3.551053e-04
4.144992e-04
4.796872e-04
5.474762e-04
0.000000e+00
2.945577e-06
9.974859e-06
1.892932e-05
3.290768e-05
5.055010e-05
7.185323e-05
9.711254e-05
1.265617e-04
1.600553e-04
1.995223e-04
2.453676e-04
2.972627e-04
3.542537e-04
4.118163e-04
4.718946e-04
5.335627e-04
0.000000e+00
2.439640e-06
9.415905e-06
1.847028e-05
3.236802e-05
5.001872e-05
7.122455e-05
9.675281e-05
1.261523e-04
1.589390e-04
1.983609e-04
2.463148e-04
2.984599e-04
3.546646e-04
4.107076e-04
4.650739e-04
5.171609e-04
0.000000e+00
3.058496e-06
1.014997e-05
1.909247e-05
3.304304e-05
5.056686e-05
7.154704e-05
9.679916e-05
1.260055e-04
1.583609e-04
1.991461e-04
2.489846e-04
3.010542e-04
3.547523e-04
4.105851e-04
4.624616e-04
5.058704e-04
0.000000e+00
4.426892e-06
1.232824e-05
2.137308e-05
3.538855e-05
5.273109e-05
7.304434e-05
9.788806e-05
1.261975e-04
1.595666e-04
2.017095e-04
2.525381e-04
3.043889e-04
3.562620e-04
4.096235e-04
4.598531e-04
5.025438e-04
0.000000e+00
7.846446e-06
1.632396e-05
2.630952e-05
4.130908e-05
5.782140e-05
7.811625e-05
1.025605e-04
1.302787e-04
1.641758e-04
2.061191e-04
2.556184e-04
3.071801e-04
3.581659e-04
4.095498e-04
4.580217e-04
5.029991e-04
0.000000e+00
1.276673e-05
2.019914e-05
3.239997e-05
4.772744e-05
6.369903e-05
8.464855e-05
1.086825e-04
1.366044e-04
1.709425e-04
2.126103e-04
2.592856e-04
3.089311e-04
3.594993e-04
4.097218e-04
4.575650e-04
5.032795e-04


5.685515e+00
6.144007e+00
6.869111e+00
5.946629e+00
5.786984e+00
6.665033e+00
6.494055e+00
6.464321e+00
5.985360e+00
5.919165e+00
6.303549e+00
7.169817e+00
8.857185e+00
9.832448e+00
9.160460e+00
8.004305e+00
8.088621e+00
8.463929e+00
8.663241e+00
8.359060e+00
8.262199e+00
8.549337e+00
8.706062e+00
8.437818e+00
8.409241e+00
8.276735e+00
8.426816e+00
8.853174e+00
9.511532e+00
9.845423e+00
8.465104e+00
6.427497e+00
9.844455e+00
9.824331e+00
1.000000e+01
9.838441e+00
9.836699e+00
9.976716e+00
9.836381e+00
9.949835e+00
9.849884e+00
9.881928e+00
9.899834e+00
9.877946e+00
9.912874e+00
9.725592e+00
8.508680e+00
6.565939e+00
1.000000e+01
1.000000e+01
1.000000e+01
1.000000e+01
1.000000e+01
1.000000e+01
1.000000e+01
1.000000e+01
1.000000e+01
1.000000e+01
1.000000e+01
9.555939e+00
8.967397e+00
8.879083e+00
8.901799e+00
8.600331e+00
1.000000e+01
1.000000e+01
1.000000e+01
1.000000e+01
1.000000e+01
1.000000e+01
1.000000e+01
1.000000e+01
1.000000e+01
9.986018e+00
9.381088e+00
8.736979e+00
7.863243e+00
8.049802e+00
9.118152e+00
9.623301e+00
9.836185e+00
9.824532e+00
1.000000e+01
9.837156e+00
9.838536e+00
9.914728e+00
9.836668e+00
9.999997e+00
9.789130e+00
9.243768e+00
8.542456e+00
8.019750e+00
8.356899e+00
8.777333e+00
9.480660e+00
1.000000e+01
8.038814e+00
8.440589e+00
8.658885e+00
8.358556e+00
8.020204e+00
8.178989e+00
8.660491e+00
8.708011e+00
8.619329e+00
8.095227e+00
7.820398e+00
8.557037e+00
9.369566e+00
9.867817e+00
1.000000e+01
1.000000e+01
5.562413e+00
6.094352e+00
6.854399e+00
5.857526e+00
5.293965e+00
5.813586e+00
6.395523e+00
7.181974e+00
6.918186e+00
7.104722e+00
8.195674e+00
9.077033e+00
1.000000e+01
1.000000e+01
1.000000e+01
1.000000e+01


-8.209167e-01
-1.672585e-01
-3.990243e-01
-2.601548e-01
-9.235409e-02
-3.078315e-01
-1.221096e-01
-2.080423e-01
-1.611586e-01
-1.560915e-01
-2.157651e-01
-1.530087e-01
-4.616846e-01
-6.721317e-01
3.069821e-01
-8.854477e-01
6.113362e-01
4.827129e-01
2.962278e-01
2.261249e-01
2.916711e-01
1.668277e-01
1.724840e-01
1.702582e-01
1.056779e-01
1.471207e-01
1.262975e-01
2.439449e-01
3.088123e-01
5.013388e-01
6.998551e-01
-8.757598e-01
7.229810e-01
4.716974e-01
5.585936e-02
-2.431647e-02
-3.938948e-02
-1.984631e-01
-9.266374e-02
-1.508229e-01
-8.649337e-02
-2.153422e-02
3.639925e-02
1.760520e-01
2.827742e-01
1.302698e-01
-4.321700e-02
-1.112806e-01
7.278682e-01
5.548030e-01
1.896079e-01
5.768235e-02
-2.769002e-02
-1.140621e-01
-2.852390e-02
-7.357394e-02
7.508712e-03
9.245982e-03
6.319949e-02
8.270752e-02
5.329539e-02
-2.983167e-01
-5.072831e-01
-1.344876e-01
7.312220e-01
5.573310e-01
1.949850e-01
6.245473e-02
-3.563120e-02
-1.269762e-01
-5.900936e-02
-1.116305e-01
-4.830051e-02
-5.368598e-02
3.330283e-02
-1.278927e-02
-2.669500e-02
-8.220959e-02
-1.539583e-01
2.501026e-01
7.307446e-01
4.782346e-01
7.240897e-02
-6.322137e-03
-5.505323e-02
-2.220882e-01
-1.714627e-01
-2.865663e-01
-2.442424e-01
-1.412722e-01
-5.494262e-02
-1.066766e-01
-1.259442e-01
9.653390e-02
3.577409e-01
7.272409e-01
6.169550e-01
4.817926e-01
3.083611e-01
2.397596e-01
2.903765e-01
1.700509e-01
1.390077e-01
8.430158e-02
-7.441869e-02
-6.982803e-02
-7.845252e-02
-3.619030e-02
2.464204e-02
3.688580e-01
7.113480e-01
9.459700e-01
-8.119005e-01
-1.897425e-01
-4.018026e-01
-2.590339e-01
-1.209051e-01
-2.912621e-01
-1.155299e-01
-1.515382e-01
-3.214471e-02
-2.818705e-02
-8.887791e-02
1.408014e-01
3.728087e-01
7.719393e-01
9.519067e-01
9.985855e-01
1 2 19 18
2 3 20 19
3 4 21 20
4 5 22 21
5 6 23 22
6 7 24 23
7 8 25 24
8 9 26 25
9 10 27 26
10 11 28 27
11 12 29 28
12 13 30 29
13 14 31 30
14 15 32 31
15 16 33 32
16 17 34 33
18 19 36 35
19 20 37 36
20 21 38 37
21 22 39 38
22 23 40 39
23 24 41 40
24 25 42 41
25 26 43 42
26 27 44 43
27 28 45 44
28 29 46 45
29 30 47 46
30 31 48 47
31 32 49 48
32 33 50 49
33 34 51 50
35 36 53 52
36 37 54 53
37 38 55 54
38 39 56 55
39 40 57 56
40 41 58 57
41 42 59 58
42 43 60 59
43 44 61 60
44 45 62 61
45 46 63 62
46 47 64 63
47 48 65 64
48 49 66 65
49 50 67 66
50 51 68 67
52 53 70 69
53 54 71 70
54 55 72 71
55 56 73 72
56 57 74 73
57 58 75 74
58 59 76 75
59 60 77 76
60 61 78 77
61 62 79 78
62 63 80 79
63 64 81 80
64 65 82 81
65 66 83 82
66 67 84 83
67 68 85 84
69 70 87 86
70 71 88 87
71 72 89 88
72 73 90 89
73 74 91 90
74 75 92 91
75 76 93 92
76 77 94 93
77 78 95 94
78 79 96 95
79 80 97 96
80 81 98 97
81 82 99 98
82 83 100 99
83 84 101 100
84 85 102 101
86 87 104 103
87 88 105 104
88 89 106 105
89 90 107 106
90 91 108 107
91 92 109 108
92 93 110 109
93 94 111 110
94 95 112 111
95 96 113 112
96 97 114 113
97 98 115 114
98 99 116 115
99 100 117 116
100 101 118 117
101 102 119 118
103 104 121 120
104 105 122 121
105 106 123 122
106 107 124 123
107 108 125 124
108 109 126 125
109 110 127 126
110 111 128 127
111 112 129 128
112 113 130 129
113 114 131 130
114 115 132 131
115 116 133 132
116 117 134 133
117 118 135 134
118 119 136 135
120 121 138 137
121 122 139 138
122 123 140 139
123 124 141 140
124 125 142 141
125 126 143 142
126 127 144 143
127 128 145 144
128 129 146 145
129 130 147 146
130 131 148 147
131 132 149 148
132 133 150 149
133 134 151 150
134 135 152 151
135 136 153 152
