TITLE = "Solution"
VARIABLES = x, y, u, v, psiu, psiv, t, stress
ZONE T="structure" N=153 E=128 F=FEBLOCK ET=QUADRILATERAL VARLOCATION=([7,8]=cellcentered)
0.000000e+00
1.250000e+01
2.500000e+01
3.750000e+01
5.000000e+01
6.250000e+01
7.500000e+01
8.750000e+01
1.000000e+02
1.125000e+02
1.250000e+02
1.375000e+02
1.500000e+02
1.625000e+02
1.750000e+02
1.875000e+02
2.000000e+02
0.000000e+00
1.250000e+01
2.500000e+01
3.750000e+01
5.000000e+01
6.250000e+01
7.500000e+01
8.750000e+01
1.000000e+02
1.125000e+02
1.250000e+02
1.375000e+02
1.500000e+02
1.625000e+02
1.750000e+02
1.875000e+02
2.000000e+02
0.000000e+00
1.250000e+01
2.500000e+01
3.750000e+01
5.000000e+01
6.250000e+01
7.500000e+01
8.750000e+01
1.000000e+02
1.125000e+02
1.250000e+02
1.375000e+02
1.500000e+02
1.625000e+02
1.750000e+02
1.875000e+02
2.000000e+02
0.000000e+00
1.250000e+01
2.500000e+01
3.750000e+01
5.000000e+01
6.250000e+01
7.500000e+01
8.750000e+01
1.000000e+02
1.125000e+02
1.250000e+02
1.375000e+02
1.500000e+02
1.625000e+02
1.750000e+02
1.875000e+02
2.000000e+02
0.000000e+00
1.250000e+01
2.500000e+01
3.750000e+01
5.000000e+01
6.250000e+01
7.500000e+01
8.750000e+01
1.000000e+02
1.125000e+02
1.250000e+02
1.375000e+02
1.500000e+02
1.625000e+02
1.750000e+02
1.875000e+02
2.000000e+02
0.000000e+00
1.250000e+01
2.500000e+01
3.750000e+01
5.000000e+01
6.250000e+01
7.500000e+01
8.750000e+01
1.000000e+02
1.125000e+02
1.250000e+02
1.375000e+02
1.500000e+02
1.625000e+02
1.750000e+02
1.875000e+02
2.000000e+02
0.000000e+00
1.250000e+01
2.500000e+01
3.750000e+01
5.000000e+01
6.250000e+01
7.500000e+01
8.750000e+01
1.000000e+02
1.125000e+02
1.250000e+02
1.375000e+02
1.500000e+02
1.625000e+02
1.750000e+02
1.875000e+02
2.000000e+02
0.000000e+00
1.250000e+01
2.500000e+01
3.750000e+01
5.000000e+01
6.250000e+01
7.500000e+01
8.750000e+01
1.000000e+02
1.125000e+02
1.250000e+02
1.375000e+02
1.500000e+02
1.625000e+02
1.750000e+02
1.875000e+02
2.000000e+02
0.000000e+00
1.250000e+01
2.500000e+01
3.750000e+01
5.000000e+01
6.250000e+01
7.500000e+01
8.750000e+01
1.000000e+02
1.125000e+02
1.250000e+02
1.375000e+02
1.500000e+02
1.625000e+02
1.750000e+02
1.875000e+02
2.000000e+02
0.000000e+00
0.000000e+00
0.000000e+00
0.000000e+00
0.000000e+00
0.000000e+00
0.000000e+00
0.000000e+00
0.000000e+00
0.000000e+00
0.000000e+00
0.000000e+00
0.000000e+00
0.000000e+00
0.000000e+00
0.000000e+00
0.000000e+00
1.250000e+01
1.250000e+01
1.250000e+01
1.250000e+01
1.250000e+01
1.250000e+01
1.250000e+01
1.250000e+01
1.250000e+01
1.250000e+01
1.250000e+01
1.250000e+01
1.250000e+01
1.250000e+01
1.250000e+01
1.250000e+01
1.250000e+01
2.500000e+01
2.500000e+01
2.500000e+01
2.500000e+01
2.500000e+01
2.500000e+01
2.500000e+01
2.500000e+01
2.500000e+01
2.500000e+01
2.500000e+01
2.500000e+01
2.500000e+01
2.500000e+01
2.500000e+01
2.500000e+01
2.500000e+01
3.750000e+01
3.750000e+01
3.750000e+01
3.750000e+01
3.750000e+01
3.750000e+01
3.750000e+01
3.750000e+01
3.750000e+01
3.750000e+01
3.750000e+01
3.750000e+01
3.750000e+01
3.750000e+01
3.750000e+01
3.750000e+01
3.750000e+01
5.000000e+01
5.000000e+01
5.000000e+01
5.000000e+01
5.000000e+01
5.000000e+01
5.000000e+01
5.000000e+01
5.000000e+01
5.000000e+01
5.000000e+01
5.000000e+01
5.000000e+01
5.000000e+01
5.000000e+01
5.000000e+01
5.000000e+01
6.250000e+01
6.250000e+01
6.250000e+01
6.250000e+01
6.250000e+01
6.250000e+01
6.250000e+01
6.250000e+01
6.250000e+01
6.250000e+01
6.250000e+01
6.250000e+01
6.250000e+01
6.250000e+01
6.250000e+01
6.250000e+01
6.250000e+01
7.500000e+01
7.500000e+01
7.500000e+01
7.500000e+01
7.500000e+01
7.500000e+01
7.500000e+01
7.500000e+01
7.500000e+01
7.500000e+01
7.500000e+01
7.500000e+01
7.500000e+01
7.500000e+01
7.500000e+01
7.500000e+01
7.500000e+01
8.750000e+01
8.750000e+01
8.750000e+01
8.750000e+01
8.750000e+01
8.750000e+01
8.750000e+01
8.750000e+01
8.750000e+01
8.750000e+01
8.750000e+01
8.750000e+01
8.750000e+01
8.750000e+01
8.750000e+01
8.750000e+01
8.750000e+01
1.000000e+02
1.000000e+02
1.000000e+02
1.000000e+02
1.000000e+02
1.000000e+02
1.000000e+02
1.000000e+02
1.000000e+02
1.000000e+02
1.000000e+02
1.000000e+02
1.000000e+02
1.000000e+02
1.000000e+02
1.000000e+02
1.000000e+02
0.000000e+00
-1.058540e-01
-1.949107e-01
-2.768546e-01
-3.531674e-01
-4.236883e-01
-4.882659e-01
-5.468499e-01
-5.995255e-01
-6.465355e-01
-6.883457e-01
-7.257733e-01
-7.602241e-01
-7.941266e-01
-8.316691e-01
-8.777761e-01
-9.123742e-01
0.000000e+00
-6.321403e-02
-1.313148e-01
-1.942017e-01
-2.521400e-01
-3.053501e-01
-3.539422e-01
-3.979814e-01
-4.375470e-01
-4.727608e-01
-5.038016e-01
-5.308932e-01
-5.542082e-01
-5.735068e-01
-5.871192e-01
-5.901028e-01
-6.007997e-01
0.000000e+00
-3.953218e-02
-8.128807e-02
-1.229459e-01
-1.618323e-01
-1.975356e-01
-2.300267e-01
-2.593425e-01
-2.854900e-01
-3.084258e-01
-3.280262e-01
-3.440176e-01
-3.558298e-01
-3.624236e-01
-3.626067e-01
-3.599726e-01
-3.708826e-01
0.000000e+00
-1.908065e-02
-3.928010e-02
-5.960718e-02
-7.904362e-02
-9.694584e-02
-1.131725e-01
-1.276763e-01
-1.403742e-01
-1.511011e-01
-1.595826e-01
-1.654185e-01
-1.681310e-01
-1.674973e-01
-1.648937e-01
-1.656057e-01
-1.737293e-01
0.000000e+00
-1.757803e-05
-3.996025e-05
-6.226904e-05
-7.410921e-05
-5.229988e-05
4.917005e-05
3.128620e-04
8.742291e-04
1.935036e-03
3.758515e-03
6.609104e-03
1.055826e-02
1.502100e-02
1.810373e-02
1.725824e-02
1.187968e-02
0.000000e+00
1.905360e-02
3.921731e-02
5.950674e-02
7.891869e-02
9.684423e-02
1.132119e-01
1.281018e-01
1.416429e-01
1.539923e-01
1.653115e-01
1.756840e-01
1.849299e-01
1.923440e-01
1.967054e-01
1.970513e-01
1.943213e-01
0.000000e+00
3.952774e-02
8.127455e-02
1.229190e-01
1.617902e-01
1.974832e-01
2.299833e-01
2.593566e-01
2.856638e-01
3.089518e-01
3.292407e-01
3.464811e-01
3.604745e-01
3.708204e-01
3.770302e-01
3.790466e-01
3.784100e-01
0.000000e+00
6.323996e-02
1.313712e-01
1.942916e-01
2.522606e-01
3.054792e-01
3.540147e-01
3.978490e-01
4.369154e-01
4.711010e-01
5.002437e-01
5.241419e-01
5.426044e-01
5.555702e-01
5.633045e-01
5.666028e-01
5.672086e-01
0.000000e+00
1.058974e-01
1.950251e-01
2.770688e-01
3.535097e-01
4.241698e-01
4.888402e-01
5.473328e-01
5.994521e-01
6.449269e-01
6.833631e-01
7.142482e-01
7.370748e-01
7.516636e-01
7.587188e-01
7.604603e-01
7.604267e-01
0.000000e+00
-6.407638e-02
-1.257895e-01
-2.057554e-01
-3.038971e-01
-4.200309e-01
-5.528851e-01
-7.009728e-01
-8.627194e-01
-1.036571e+00
-1.221093e+00
-1.415142e+00
-1.618250e+00
-1.831503e+00
-2.060431e+00
-2.322368e+00
-2.698725e+00
0.000000e+00
-3.944661e-02
-1.038236e-01
-1.847810e-01
-2.845266e-01
-4.022452e-01
-5.367088e-01
-6.863942e-01
-8.497085e-01
-1.025070e+00
-1.211003e+00
-1.406314e+00
-1.610461e+00
-1.824502e+00
-2.053341e+00
-2.313689e+00
-2.632642e+00
0.000000e+00
-2.976602e-02
-8.859566e-02
-1.698519e-01
-2.705405e-01
-3.894707e-01
-5.251703e-01
-6.761011e-01
-8.406813e-01
-1.017351e+00
-1.204665e+00
-1.401468e+00
-1.607272e+00
-1.822958e+00
-2.051995e+00
-2.298683e+00
-2.537425e+00
0.000000e+00
-2.565031e-02
-8.102445e-02
-1.610889e-01
-2.621415e-01
-3.818038e-01
-5.183493e-01
-6.701817e-01
-8.357487e-01
-1.013533e+00
-1.202120e+00
-1.400333e+00
-1.607450e+00
-1.823375e+00
-2.047830e+00
-2.274501e+00
-2.483318e+00
0.000000e+00
-2.446466e-02
-7.873305e-02
-1.582935e-01
-2.593735e-01
-3.793336e-01
-5.162717e-01
-6.685929e-01
-8.347744e-01
-1.013324e+00
-1.202795e+00
-1.401824e+00
-1.609126e+00
-1.823172e+00
-2.040757e+00
-2.254441e+00
-2.451297e+00
0.000000e+00
-2.563508e-02
-8.101361e-02
-1.611082e-01
-2.622362e-01
-3.820533e-01
-5.188830e-01
-6.711926e-01
-8.374915e-01
-1.016280e+00
-1.206018e+00
-1.405057e+00
-1.611472e+00
-1.822635e+00
-2.034491e+00
-2.240848e+00
-2.433501e+00
0.000000e+00
-2.974118e-02
-8.857770e-02
-1.698841e-01
-2.707001e-01
-3.898929e-01
-5.260752e-01
-6.778176e-01
-8.436447e-01
-1.022031e+00
-1.211332e+00
-1.409647e+00
-1.614585e+00
-1.822982e+00
-2.030730e+00
-2.233126e+00
-2.425652e+00
0.000000e+00
-3.942333e-02
-1.038079e-01
-1.848238e-01
-2.847183e-01
-4.027416e-01
-5.377622e-01
-6.883782e-01
-8.531126e-01
-1.030412e+00
-1.218565e+00
-1.415534e+00
-1.618727e+00
-1.824803e+00
-2.029788e+00
-2.229934e+00
-2.423809e+00
0.000000e+00
-6.406676e-02
-1.257909e-01
-2.058216e-01
-3.041192e-01
-4.205614e-01
-5.539630e-01
-7.029395e-01
-8.659982e-01
-1.041559e+00
-1.227868e+00
-1.422844e+00
-1.623875e+00
-1.827697e+00
-2.030589e+00
-2.229350e+00
-2.423838e+00


0.000000e+00
9.182044e-09
1.855963e-08
2.715123e-08
3.498415e-08
4.201932e-08
4.826470e-08
5.376729e-08
5.858745e-08
6.279150e-08
6.644878e-08
6.962688e-08
7.237860e-08
7.471812e-08
7.664949e-08
7.835213e-08
7.991986e-08
0.000000e+00
5.461829e-09
1.315712e-08
1.987814e-08
2.582125e-08
3.109871e-08
3.575242e-08
3.982866e-08
4.337280e-08
4.642495e-08
4.901719e-08
5.116977e-08
5.289312e-08
5.423905e-08
5.547313e-08
5.702021e-08
5.867945e-08
0.000000e+00
3.637437e-09
8.566952e-09
1.303404e-08
1.703299e-08
2.055887e-08
2.363932e-08
2.630952e-08
2.859855e-08
3.052654e-08
3.210564e-08
3.334679e-08
3.428425e-08
3.503243e-08
3.584096e-08
3.699699e-08
3.837674e-08
0.000000e+00
1.836201e-09
4.160578e-09
6.361663e-09
8.370874e-09
1.013585e-08
1.166065e-08
1.296101e-08
1.404825e-08
1.492828e-08
1.560604e-08
1.609637e-08
1.644352e-08
1.674336e-08
1.714401e-08
1.782049e-08
1.876499e-08
0.000000e+00
4.650842e-13
-2.454033e-13
-3.766096e-12
-1.236547e-11
-2.961662e-11
-6.070072e-11
-1.124499e-10
-1.926507e-10
-3.079150e-10
-4.590737e-10
-6.336129e-10
-7.973906e-10
-8.918697e-10
-8.338509e-10
-5.147054e-10
9.156255e-11
0.000000e+00
-1.835215e-09
-4.160491e-09
-6.367051e-09
-8.389953e-09
-1.018272e-08
-1.175813e-08
-1.314361e-08
-1.436428e-08
-1.543876e-08
-1.637634e-08
-1.717363e-08
-1.781299e-08
-1.826478e-08
-1.849198e-08
-1.844073e-08
-1.811519e-08
0.000000e+00
-3.636670e-09
-8.566652e-09
-1.303613e-08
-1.704079e-08
-2.057832e-08
-2.368043e-08
-2.638809e-08
-2.873782e-08
-3.075811e-08
-3.246757e-08
-3.387354e-08
-3.497215e-08
-3.575331e-08
-3.621535e-08
-3.636935e-08
-3.627354e-08
0.000000e+00
-5.463477e-09
-1.316109e-08
-1.988272e-08
-2.582360e-08
-3.109379e-08
-3.573172e-08
-3.977884e-08
-4.327456e-08
-4.625280e-08
-4.874117e-08
-5.076040e-08
-5.232442e-08
-5.344419e-08
-5.414411e-08
-5.448713e-08
-5.456860e-08
0.000000e+00
-9.191013e-09
-1.857537e-08
-2.717050e-08
-3.500051e-08
-4.201962e-08
-4.822429e-08
-5.364403e-08
-5.831475e-08
-6.227155e-08
-6.554816e-08
-6.817876e-08
-7.020002e-08
-7.165298e-08
-7.258800e-08
-7.306484e-08
-7.321524e-08
0.000000e+00
8.320909e-09
1.587967e-08
2.422793e-08
3.419918e-08
4.589588e-08
5.920412e-08
7.395766e-08
8.997879e-08
1.071050e-07
1.252022e-07
1.441848e-07
1.640712e-07
1.851161e-07
2.078477e-07
2.319890e-07
2.560340e-07
0.000000e+00
4.879433e-09
1.223615e-08
2.076473e-08
3.106033e-08
4.310605e-08
5.675600e-08
7.182671e-08
8.813936e-08
1.055325e-07
1.238730e-07
1.430739e-07
1.631252e-07
1.841400e-07
2.063360e-07
2.298542e-07
2.535690e-07
0.000000e+00
2.931375e-09
9.334063e-09
1.796098e-08
2.851244e-08
4.085335e-08
5.478959e-08
7.012848e-08
8.669179e-08
1.043205e-07
1.228811e-07
1.422733e-07
1.624321e-07
1.833032e-07
2.048633e-07
2.275384e-07
2.505136e-07
0.000000e+00
2.051557e-09
7.854407e-09
1.637081e-08
2.704871e-08
3.956287e-08
5.367291e-08
6.917819e-08
8.590118e-08
1.036831e-07
1.223836e-07
1.418785e-07
1.620461e-07
1.827385e-07
2.038470e-07
2.256962e-07
2.475939e-07
0.000000e+00
1.807557e-09
7.418264e-09
1.586676e-08
2.657971e-08
3.915689e-08
5.333489e-08
6.890937e-08
8.570225e-08
1.035512e-07
1.223050e-07
1.418157e-07
1.619239e-07
1.824390e-07
2.031852e-07
2.243244e-07
2.451754e-07
0.000000e+00
2.053397e-09
7.860213e-09
1.638446e-08
2.707535e-08
3.960968e-08
5.374903e-08
6.929352e-08
8.606295e-08
1.038887e-07
1.226078e-07
1.420545e-07
1.620477e-07
1.823744e-07
2.028161e-07
2.233785e-07
2.434763e-07
0.000000e+00
2.934329e-09
9.344219e-09
1.798508e-08
2.855953e-08
4.093617e-08
5.492436e-08
7.033275e-08
8.697850e-08
1.046855e-07
1.232799e-07
1.425829e-07
1.624009e-07
1.825124e-07
2.026823e-07
2.228203e-07
2.424615e-07
0.000000e+00
4.883280e-09
1.224949e-08
2.079516e-08
3.111883e-08
4.320788e-08
5.692038e-08
7.207393e-08
8.848339e-08
1.059656e-07
1.243372e-07
1.434091e-07
1.629797e-07
1.828294e-07
2.027376e-07
2.225710e-07
2.419867e-07
0.000000e+00
8.327235e-09
1.589585e-08
2.426166e-08
3.426120e-08
4.600063e-08
5.936897e-08
7.419940e-08
9.030544e-08
1.074994e-07
1.255918e-07
1.443872e-07
1.636800e-07
1.832560e-07
2.029161e-07
2.225313e-07
2.418514e-07


3.092947e-01
3.092945e-01
3.092953e-01
3.092968e-01
3.092982e-01
3.092994e-01
3.093004e-01
3.093013e-01
3.093021e-01
3.093027e-01
3.093032e-01
3.093036e-01
3.093038e-01
3.093035e-01
3.093029e-01
3.093024e-01
3.092968e-01
3.092966e-01
3.092971e-01
3.092982e-01
3.092994e-01
3.093003e-01
3.093012e-01
3.093019e-01
3.093025e-01
3.093030e-01
3.093034e-01
3.093037e-01
3.093038e-01
3.093035e-01
3.093029e-01
3.093024e-01
3.093002e-01
3.093000e-01
3.093001e-01
3.093007e-01
3.093013e-01
3.093019e-01
3.093024e-01
3.093028e-01
3.093032e-01
3.093034e-01
3.093037e-01
3.093038e-01
3.093038e-01
3.093035e-01
3.093030e-01
3.093026e-01
3.093026e-01
3.093024e-01
3.093023e-01
3.093025e-01
3.093028e-01
3.093030e-01
3.093032e-01
3.093034e-01
3.093036e-01
3.093037e-01
3.093038e-01
3.093039e-01
3.093038e-01
3.093036e-01
3.093034e-01
3.093032e-01
3.093026e-01
3.093024e-01
3.093023e-01
3.093025e-01
3.093028e-01
3.093030e-01
3.093032e-01
3.093034e-01
3.093035e-01
3.093036e-01
3.093037e-01
3.093038e-01
3.093038e-01
3.093038e-01
3.093038e-01
3.093038e-01
3.093002e-01
3.093000e-01
3.093001e-01
3.093007e-01
3.093013e-01
3.093019e-01
3.093023e-01
3.093027e-01
3.093030e-01
3.093033e-01
3.093035e-01
3.093037e-01
3.093039e-01
3.093040e-01
3.093041e-01
3.093042e-01
3.092968e-01
3.092966e-01
3.092971e-01
3.092982e-01
3.092993e-01
3.093003e-01
3.093011e-01
3.093018e-01
3.093024e-01
3.093029e-01
3.093033e-01
3.093037e-01
3.093040e-01
3.093042e-01
3.093044e-01
3.093045e-01
3.092947e-01
3.092945e-01
3.092953e-01
3.092968e-01
3.092982e-01
3.092994e-01
3.093004e-01
3.093013e-01
3.093021e-01
3.093027e-01
3.093033e-01
3.093037e-01
3.093041e-01
3.093043e-01
3.093045e-01
3.093046e-01


9.747905e-01
9.783654e-01
9.816724e-01
9.842180e-01
9.865810e-01
9.887598e-01
9.907449e-01
9.925130e-01
9.940455e-01
9.953272e-01
9.963463e-01
9.970929e-01
9.975570e-01
9.977226e-01
9.978420e-01
9.904744e-01
9.904628e-01
9.888246e-01
9.898785e-01
9.912541e-01
9.925366e-01
9.937022e-01
9.947574e-01
9.957132e-01
9.965786e-01
9.973625e-01
9.980737e-01
9.987178e-01
9.992797e-01
9.996476e-01
9.987171e-01
9.861052e-01
9.966862e-01
9.957453e-01
9.954913e-01
9.958486e-01
9.963186e-01
9.967739e-01
9.971965e-01
9.975960e-01
9.979828e-01
9.983601e-01
9.987124e-01
9.989852e-01
9.990421e-01
9.985509e-01
9.967689e-01
9.935638e-01
9.993256e-01
9.986393e-01
9.982154e-01
9.981078e-01
9.981508e-01
9.982228e-01
9.982948e-01
9.983651e-01
9.984341e-01
9.984919e-01
9.985079e-01
9.984220e-01
9.981496e-01
9.976605e-01
9.972458e-01
9.971408e-01
9.993281e-01
9.986429e-01
9.982186e-01
9.981072e-01
9.981401e-01
9.981921e-01
9.982281e-01
9.982403e-01
9.982237e-01
9.981706e-01
9.980716e-01
9.979290e-01
9.977933e-01
9.978203e-01
9.982041e-01
9.988684e-01
9.966910e-01
9.957525e-01
9.954982e-01
9.958486e-01
9.963003e-01
9.967175e-01
9.970705e-01
9.973542e-01
9.975667e-01
9.977098e-01
9.978002e-01
9.978887e-01
9.980745e-01
9.984640e-01
9.990492e-01
9.996542e-01
9.904619e-01
9.888239e-01
9.898771e-01
9.912502e-01
9.925265e-01
9.936793e-01
9.947099e-01
9.956225e-01
9.964176e-01
9.970973e-01
9.976728e-01
9.981753e-01
9.986593e-01
9.991666e-01
9.996411e-01
9.999399e-01
9.747733e-01
9.783385e-01
9.816394e-01
9.841810e-01
9.865477e-01
9.887478e-01
9.907860e-01
9.926575e-01
9.943628e-01
9.958985e-01
9.972464e-01
9.983646e-01
9.991964e-01
9.997096e-01
9.999431e-01
9.999988e-01
1 2 19 18
2 3 20 19
3 4 21 20
4 5 22 21
5 6 23 22
6 7 24 23
7 8 25 24
8 9 26 25
9 10 27 26
10 11 28 27
11 12 29 28
12 13 30 29
13 14 31 30
14 15 32 31
15 16 33 32
16 17 34 33
18 19 36 35
19 20 37 36
20 21 38 37
21 22 39 38
22 23 40 39
23 24 41 40
24 25 42 41
25 26 43 42
26 27 44 43
27 28 45 44
28 29 46 45
29 30 47 46
30 31 48 47
31 32 49 48
32 33 50 49
33 34 51 50
35 36 53 52
36 37 54 53
37 38 55 54
38 39 56 55
39 40 57 56
40 41 58 57
41 42 59 58
42 43 60 59
43 44 61 60
44 45 62 61
45 46 63 62
46 47 64 63
47 48 65 64
48 49 66 65
49 50 67 66
50 51 68 67
52 53 70 69
53 54 71 70
54 55 72 71
55 56 73 72
56 57 74 73
57 58 75 74
58 59 76 75
59 60 77 76
60 61 78 77
61 62 79 78
62 63 80 79
63 64 81 80
64 65 82 81
65 66 83 82
66 67 84 83
67 68 85 84
69 70 87 86
70 71 88 87
71 72 89 88
72 73 90 89
73 74 91 90
74 75 92 91
75 76 93 92
76 77 94 93
77 78 95 94
78 79 96 95
79 80 97 96
80 81 98 97
81 82 99 98
82 83 100 99
83 84 101 100
84 85 102 101
86 87 104 103
87 88 105 104
88 89 106 105
89 90 107 106
90 91 108 107
91 92 109 108
92 93 110 109
93 94 111 110
94 95 112 111
95 96 113 112
96 97 114 113
97 98 115 114
98 99 116 115
99 100 117 116
100 101 118 117
101 102 119 118
103 104 121 120
104 105 122 121
105 106 123 122
106 107 124 123
107 108 125 124
108 109 126 125
109 110 127 126
110 111 128 127
111 112 129 128
112 113 130 129
113 114 131 130
114 115 132 131
115 116 133 132
116 117 134 133
117 118 135 134
118 119 136 135
120 121 138 137
121 122 139 138
122 123 140 139
123 124 141 140
124 125 142 141
125 126 143 142
126 127 144 143
127 128 145 144
128 129 146 145
129 130 147 146
130 131 148 147
131 132 149 148
132 133 150 149
133 134 151 150
134 135 152 151
135 136 153 152
