TITLE = "Solution"
VARIABLES = x, y, u, v, psiu, psiv, t, stress
ZONE T="structure" N=153 E=128 F=FEBLOCK ET=QUADRILATERAL VARLOCATION=([7,8]=cellcentered)
0.000000e+00
1.250000e+01
2.500000e+01
3.750000e+01
5.000000e+01
6.250000e+01
7.500000e+01
8.750000e+01
1.000000e+02
1.125000e+02
1.250000e+02
1.375000e+02
1.500000e+02
1.625000e+02
1.750000e+02
1.875000e+02
2.000000e+02
0.000000e+00
1.250000e+01
2.500000e+01
3.750000e+01
5.000000e+01
6.250000e+01
7.500000e+01
8.750000e+01
1.000000e+02
1.125000e+02
1.250000e+02
1.375000e+02
1.500000e+02
1.625000e+02
1.750000e+02
1.875000e+02
2.000000e+02
0.000000e+00
1.250000e+01
2.500000e+01
3.750000e+01
5.000000e+01
6.250000e+01
7.500000e+01
8.750000e+01
1.000000e+02
1.125000e+02
1.250000e+02
1.375000e+02
1.500000e+02
1.625000e+02
1.750000e+02
1.875000e+02
2.000000e+02
0.000000e+00
1.250000e+01
2.500000e+01
3.750000e+01
5.000000e+01
6.250000e+01
7.500000e+01
8.750000e+01
1.000000e+02
1.125000e+02
1.250000e+02
1.375000e+02
1.500000e+02
1.625000e+02
1.750000e+02
1.875000e+02
2.000000e+02
0.000000e+00
1.250000e+01
2.500000e+01
3.750000e+01
5.000000e+01
6.250000e+01
7.500000e+01
8.750000e+01
1.000000e+02
1.125000e+02
1.250000e+02
1.375000e+02
1.500000e+02
1.625000e+02
1.750000e+02
1.875000e+02
2.000000e+02
0.000000e+00
1.250000e+01
2.500000e+01
3.750000e+01
5.000000e+01
6.250000e+01
7.500000e+01
8.750000e+01
1.000000e+02
1.125000e+02
1.250000e+02
1.375000e+02
1.500000e+02
1.625000e+02
1.750000e+02
1.875000e+02
2.000000e+02
0.000000e+00
1.250000e+01
2.500000e+01
3.750000e+01
5.000000e+01
6.250000e+01
7.500000e+01
8.750000e+01
1.000000e+02
1.125000e+02
1.250000e+02
1.375000e+02
1.500000e+02
1.625000e+02
1.750000e+02
1.875000e+02
2.000000e+02
0.000000e+00
1.250000e+01
2.500000e+01
3.750000e+01
5.000000e+01
6.250000e+01
7.500000e+01
8.750000e+01
1.000000e+02
1.125000e+02
1.250000e+02
1.375000e+02
1.500000e+02
1.625000e+02
1.750000e+02
1.875000e+02
2.000000e+02
0.000000e+00
1.250000e+01
2.500000e+01
3.750000e+01
5.000000e+01
6.250000e+01
7.500000e+01
8.750000e+01
1.000000e+02
1.125000e+02
1.250000e+02
1.375000e+02
1.500000e+02
1.625000e+02
1.750000e+02
1.875000e+02
2.000000e+02
0.000000e+00
0.000000e+00
0.000000e+00
0.000000e+00
0.000000e+00
0.000000e+00
0.000000e+00
0.000000e+00
0.000000e+00
0.000000e+00
0.000000e+00
0.000000e+00
0.000000e+00
0.000000e+00
0.000000e+00
0.000000e+00
0.000000e+00
1.250000e+01
1.250000e+01
1.250000e+01
1.250000e+01
1.250000e+01
1.250000e+01
1.250000e+01
1.250000e+01
1.250000e+01
1.250000e+01
1.250000e+01
1.250000e+01
1.250000e+01
1.250000e+01
1.250000e+01
1.250000e+01
1.250000e+01
2.500000e+01
2.500000e+01
2.500000e+01
2.500000e+01
2.500000e+01
2.500000e+01
2.500000e+01
2.500000e+01
2.500000e+01
2.500000e+01
2.500000e+01
2.500000e+01
2.500000e+01
2.500000e+01
2.500000e+01
2.500000e+01
2.500000e+01
3.750000e+01
3.750000e+01
3.750000e+01
3.750000e+01
3.750000e+01
3.750000e+01
3.750000e+01
3.750000e+01
3.750000e+01
3.750000e+01
3.750000e+01
3.750000e+01
3.750000e+01
3.750000e+01
3.750000e+01
3.750000e+01
3.750000e+01
5.000000e+01
5.000000e+01
5.000000e+01
5.000000e+01
5.000000e+01
5.000000e+01
5.000000e+01
5.000000e+01
5.000000e+01
5.000000e+01
5.000000e+01
5.000000e+01
5.000000e+01
5.000000e+01
5.000000e+01
5.000000e+01
5.000000e+01
6.250000e+01
6.250000e+01
6.250000e+01
6.250000e+01
6.250000e+01
6.250000e+01
6.250000e+01
6.250000e+01
6.250000e+01
6.250000e+01
6.250000e+01
6.250000e+01
6.250000e+01
6.250000e+01
6.250000e+01
6.250000e+01
6.250000e+01
7.500000e+01
7.500000e+01
7.500000e+01
7.500000e+01
7.500000e+01
7.500000e+01
7.500000e+01
7.500000e+01
7.500000e+01
7.500000e+01
7.500000e+01
7.500000e+01
7.500000e+01
7.500000e+01
7.500000e+01
7.500000e+01
7.500000e+01
8.750000e+01
8.750000e+01
8.750000e+01
8.750000e+01
8.750000e+01
8.750000e+01
8.750000e+01
8.750000e+01
8.750000e+01
8.750000e+01
8.750000e+01
8.750000e+01
8.750000e+01
8.750000e+01
8.750000e+01
8.750000e+01
8.750000e+01
1.000000e+02
1.000000e+02
1.000000e+02
1.000000e+02
1.000000e+02
1.000000e+02
1.000000e+02
1.000000e+02
1.000000e+02
1.000000e+02
1.000000e+02
1.000000e+02
1.000000e+02
1.000000e+02
1.000000e+02
1.000000e+02
1.000000e+02
0.000000e+00
-8.486934e-02
-1.562713e-01
-2.219704e-01
-2.831548e-01
-3.396953e-01
-3.914706e-01
-4.384405e-01
-4.806733e-01
-5.183637e-01
-5.518851e-01
-5.818927e-01
-6.095136e-01
-6.366949e-01
-6.667947e-01
-7.037610e-01
-7.315002e-01
0.000000e+00
-5.068242e-02
-1.052829e-01
-1.557029e-01
-2.021554e-01
-2.448168e-01
-2.837757e-01
-3.190843e-01
-3.508061e-01
-3.790388e-01
-4.039259e-01
-4.256465e-01
-4.443394e-01
-4.598120e-01
-4.707258e-01
-4.731179e-01
-4.816941e-01
0.000000e+00
-3.169531e-02
-6.517348e-02
-9.857296e-02
-1.297504e-01
-1.583757e-01
-1.844256e-01
-2.079296e-01
-2.288935e-01
-2.472823e-01
-2.629970e-01
-2.758181e-01
-2.852885e-01
-2.905751e-01
-2.907218e-01
-2.886099e-01
-2.973571e-01
0.000000e+00
-1.529810e-02
-3.149320e-02
-4.779060e-02
-6.337390e-02
-7.772711e-02
-9.073690e-02
-1.023654e-01
-1.125460e-01
-1.211462e-01
-1.279463e-01
-1.326252e-01
-1.348000e-01
-1.342919e-01
-1.322045e-01
-1.327753e-01
-1.392884e-01
0.000000e+00
-1.409301e-05
-3.203778e-05
-4.992365e-05
-5.941628e-05
-4.193037e-05
3.942353e-05
2.508391e-04
7.009159e-04
1.551419e-03
3.013395e-03
5.298856e-03
8.465090e-03
1.204310e-02
1.451467e-02
1.383681e-02
9.524534e-03
0.000000e+00
1.527642e-02
3.144286e-02
4.771008e-02
6.327374e-02
7.764564e-02
9.076849e-02
1.027065e-01
1.135631e-01
1.234643e-01
1.325394e-01
1.408556e-01
1.482685e-01
1.542128e-01
1.577095e-01
1.579869e-01
1.557981e-01
0.000000e+00
3.169175e-02
6.516264e-02
9.855138e-02
1.297167e-01
1.583337e-01
1.843908e-01
2.079409e-01
2.290328e-01
2.477040e-01
2.639707e-01
2.777931e-01
2.890124e-01
2.973072e-01
3.022860e-01
3.039026e-01
3.033921e-01
0.000000e+00
5.070321e-02
1.053281e-01
1.557750e-01
2.022520e-01
2.449203e-01
2.838338e-01
3.189781e-01
3.502997e-01
3.777081e-01
4.010733e-01
4.202337e-01
4.350360e-01
4.454313e-01
4.516323e-01
4.542767e-01
4.547624e-01
0.000000e+00
8.490411e-02
1.563631e-01
2.221422e-01
2.834292e-01
3.400813e-01
3.919311e-01
4.388277e-01
4.806144e-01
5.170740e-01
5.478903e-01
5.726524e-01
5.909537e-01
6.026502e-01
6.083067e-01
6.097030e-01
6.096760e-01
0.000000e+00
-5.137377e-02
-1.008527e-01
-1.649660e-01
-2.436517e-01
-3.367628e-01
-4.432794e-01
-5.620097e-01
-6.916909e-01
-8.310775e-01
-9.790186e-01
-1.134598e+00
-1.297442e+00
-1.468418e+00
-1.651962e+00
-1.861971e+00
-2.163717e+00
0.000000e+00
-3.162664e-02
-8.324133e-02
-1.481496e-01
-2.281213e-01
-3.225030e-01
-4.303101e-01
-5.503212e-01
-6.812594e-01
-8.218563e-01
-9.709293e-01
-1.127521e+00
-1.291197e+00
-1.462805e+00
-1.646278e+00
-1.855013e+00
-2.110734e+00
0.000000e+00
-2.386513e-02
-7.103223e-02
-1.361800e-01
-2.169078e-01
-3.122610e-01
-4.210590e-01
-5.420687e-01
-6.740218e-01
-8.156680e-01
-9.658476e-01
-1.123636e+00
-1.288640e+00
-1.461567e+00
-1.645198e+00
-1.842982e+00
-2.034394e+00
0.000000e+00
-2.056530e-02
-6.496194e-02
-1.291543e-01
-2.101739e-01
-3.061139e-01
-4.155902e-01
-5.373228e-01
-6.700671e-01
-8.126068e-01
-9.638071e-01
-1.122725e+00
-1.288783e+00
-1.461902e+00
-1.641859e+00
-1.823594e+00
-1.991013e+00
0.000000e+00
-1.961470e-02
-6.312479e-02
-1.269130e-01
-2.079546e-01
-3.041335e-01
-4.139245e-01
-5.360490e-01
-6.692859e-01
-8.124390e-01
-9.643481e-01
-1.123921e+00
-1.290127e+00
-1.461739e+00
-1.636189e+00
-1.807511e+00
-1.965341e+00
0.000000e+00
-2.055310e-02
-6.495325e-02
-1.291697e-01
-2.102498e-01
-3.063140e-01
-4.160182e-01
-5.381333e-01
-6.714644e-01
-8.148092e-01
-9.669326e-01
-1.126513e+00
-1.292007e+00
-1.461309e+00
-1.631165e+00
-1.796612e+00
-1.951073e+00
0.000000e+00
-2.384522e-02
-7.101784e-02
-1.362058e-01
-2.170358e-01
-3.125995e-01
-4.217845e-01
-5.434449e-01
-6.763977e-01
-8.194198e-01
-9.711930e-01
-1.130193e+00
-1.294503e+00
-1.461586e+00
-1.628149e+00
-1.790422e+00
-1.944780e+00
0.000000e+00
-3.160797e-02
-8.322880e-02
-1.481839e-01
-2.282749e-01
-3.229010e-01
-4.311546e-01
-5.519119e-01
-6.839887e-01
-8.261395e-01
-9.769921e-01
-1.134913e+00
-1.297824e+00
-1.463046e+00
-1.627394e+00
-1.787862e+00
-1.943303e+00
0.000000e+00
-5.136605e-02
-1.008538e-01
-1.650190e-01
-2.438298e-01
-3.371881e-01
-4.441436e-01
-5.635864e-01
-6.943197e-01
-8.350763e-01
-9.844508e-01
-1.140774e+00
-1.301952e+00
-1.465367e+00
-1.628036e+00
-1.787394e+00
-1.943326e+00


0.000000e+00
1.692505e-08
3.398692e-08
4.977899e-08
6.448645e-08
7.802841e-08
9.036513e-08
1.015154e-07
1.115243e-07
1.204550e-07
1.283856e-07
1.353990e-07
1.415496e-07
1.468056e-07
1.511152e-07
1.548220e-07
1.581446e-07
0.000000e+00
9.655109e-09
2.343355e-08
3.573232e-08
4.690872e-08
5.711914e-08
6.637563e-08
7.469940e-08
8.211644e-08
8.864933e-08
9.431125e-08
9.909839e-08
1.029963e-07
1.060927e-07
1.089231e-07
1.123205e-07
1.158482e-07
0.000000e+00
6.173589e-09
1.492500e-08
2.306382e-08
3.057542e-08
3.741449e-08
4.357311e-08
4.906171e-08
5.388712e-08
5.804590e-08
6.152490e-08
6.431583e-08
6.646926e-08
6.821461e-08
7.006448e-08
7.259330e-08
7.553550e-08
0.000000e+00
3.043154e-09
7.179731e-09
1.117182e-08
1.493231e-08
1.834997e-08
2.139845e-08
2.407425e-08
2.637034e-08
2.827382e-08
2.977394e-08
3.088458e-08
3.168590e-08
3.237325e-08
3.326546e-08
3.474063e-08
3.677708e-08
0.000000e+00
2.517611e-12
2.739760e-12
-2.944085e-12
-1.948772e-11
-5.477134e-11
-1.203199e-10
-2.314494e-10
-4.058567e-10
-6.591442e-10
-9.949991e-10
-1.388834e-09
-1.768944e-09
-2.005726e-09
-1.902800e-09
-1.208109e-09
1.231274e-10
0.000000e+00
-3.038398e-09
-7.173913e-09
-1.117451e-08
-1.496118e-08
-1.843583e-08
-2.159174e-08
-2.445184e-08
-2.704054e-08
-2.937436e-08
-3.145392e-08
-3.325519e-08
-3.472418e-08
-3.577872e-08
-3.631714e-08
-3.621081e-08
-3.548464e-08
0.000000e+00
-6.170522e-09
-1.492085e-08
-2.306238e-08
-3.058372e-08
-3.744571e-08
-4.365001e-08
-4.922071e-08
-5.418211e-08
-5.854966e-08
-6.232354e-08
-6.548349e-08
-6.798790e-08
-6.978535e-08
-7.085128e-08
-7.120630e-08
-7.099202e-08
0.000000e+00
-9.658583e-09
-2.344078e-08
-3.573931e-08
-4.690889e-08
-5.710115e-08
-6.632073e-08
-7.457856e-08
-8.188764e-08
-8.825631e-08
-9.368584e-08
-9.816887e-08
-1.016897e-07
-1.042349e-07
-1.058335e-07
-1.066190e-07
-1.068081e-07
0.000000e+00
-1.694418e-08
-3.402076e-08
-4.982073e-08
-6.452207e-08
-7.802877e-08
-9.027514e-08
-1.012401e-07
-1.109124e-07
-1.192827e-07
-1.263466e-07
-1.321110e-07
-1.366005e-07
-1.398634e-07
-1.419834e-07
-1.430763e-07
-1.434261e-07
0.000000e+00
1.532593e-08
2.973748e-08
4.584803e-08
6.506941e-08
8.759976e-08
1.132744e-07
1.418362e-07
1.729954e-07
2.064751e-07
2.420403e-07
2.795451e-07
3.190560e-07
3.611267e-07
4.068002e-07
4.553138e-07
5.034893e-07
0.000000e+00
9.200654e-09
2.321200e-08
3.950102e-08
5.915583e-08
8.219089e-08
1.083924e-07
1.374719e-07
1.691334e-07
2.030978e-07
2.391275e-07
2.770676e-07
3.169163e-07
3.589174e-07
4.034873e-07
4.507655e-07
4.983004e-07
0.000000e+00
5.780037e-09
1.798924e-08
3.430937e-08
5.429630e-08
7.776553e-08
1.044206e-07
1.339526e-07
1.660624e-07
2.004709e-07
2.369342e-07
2.752629e-07
3.153286e-07
3.570158e-07
4.002609e-07
4.458197e-07
4.918339e-07
0.000000e+00
4.195621e-09
1.526306e-08
3.130246e-08
5.144644e-08
7.518030e-08
1.021248e-07
1.319535e-07
1.643645e-07
1.990751e-07
2.358231e-07
2.743636e-07
3.144422e-07
3.557427e-07
3.980162e-07
4.418403e-07
4.855931e-07
0.000000e+00
3.744307e-09
1.444215e-08
3.033861e-08
5.052540e-08
7.436236e-08
1.014286e-07
1.313896e-07
1.639405e-07
1.987891e-07
2.356478e-07
2.742189e-07
3.141643e-07
3.550679e-07
3.965256e-07
4.388109e-07
4.803453e-07
0.000000e+00
4.199096e-09
1.527558e-08
3.133310e-08
5.150713e-08
7.528733e-08
1.022986e-07
1.322157e-07
1.647303e-07
1.995376e-07
2.363248e-07
2.747554e-07
3.144430e-07
3.549158e-07
3.956693e-07
4.366771e-07
4.765982e-07
0.000000e+00
5.785633e-09
1.801108e-08
3.436316e-08
5.440291e-08
7.795375e-08
1.047265e-07
1.344145e-07
1.667075e-07
2.012875e-07
2.378202e-07
2.759419e-07
3.152395e-07
3.552210e-07
3.953472e-07
4.354025e-07
4.743248e-07
0.000000e+00
9.207802e-09
2.323991e-08
3.956761e-08
5.928639e-08
8.242000e-08
1.087630e-07
1.380284e-07
1.699053e-07
2.040646e-07
2.401547e-07
2.777921e-07
3.165483e-07
3.559392e-07
3.954661e-07
4.348302e-07
4.732439e-07
0.000000e+00
1.533775e-08
2.977038e-08
4.592027e-08
6.520587e-08
8.783338e-08
1.136443e-07
1.423795e-07
1.737283e-07
2.073555e-07
2.429002e-07
2.799682e-07
3.181262e-07
3.569078e-07
3.958719e-07
4.347374e-07
4.729301e-07


2.479802e-01
2.479800e-01
2.479803e-01
2.479810e-01
2.479817e-01
2.479822e-01
2.479827e-01
2.479832e-01
2.479835e-01
2.479839e-01
2.479842e-01
2.479844e-01
2.479845e-01
2.479844e-01
2.479840e-01
2.479837e-01
2.479812e-01
2.479811e-01
2.479812e-01
2.479818e-01
2.479823e-01
2.479827e-01
2.479831e-01
2.479835e-01
2.479838e-01
2.479841e-01
2.479843e-01
2.479845e-01
2.479845e-01
2.479843e-01
2.479840e-01
2.479837e-01
2.479829e-01
2.479827e-01
2.479828e-01
2.479830e-01
2.479833e-01
2.479835e-01
2.479838e-01
2.479840e-01
2.479842e-01
2.479843e-01
2.479845e-01
2.479846e-01
2.479846e-01
2.479844e-01
2.479840e-01
2.479838e-01
2.479841e-01
2.479839e-01
2.479839e-01
2.479839e-01
2.479840e-01
2.479841e-01
2.479843e-01
2.479843e-01
2.479844e-01
2.479845e-01
2.479845e-01
2.479846e-01
2.479845e-01
2.479844e-01
2.479843e-01
2.479842e-01
2.479841e-01
2.479839e-01
2.479839e-01
2.479839e-01
2.479840e-01
2.479841e-01
2.479842e-01
2.479843e-01
2.479844e-01
2.479844e-01
2.479845e-01
2.479845e-01
2.479845e-01
2.479845e-01
2.479845e-01
2.479845e-01
2.479829e-01
2.479827e-01
2.479828e-01
2.479830e-01
2.479833e-01
2.479835e-01
2.479837e-01
2.479839e-01
2.479841e-01
2.479842e-01
2.479844e-01
2.479845e-01
2.479846e-01
2.479846e-01
2.479847e-01
2.479848e-01
2.479812e-01
2.479811e-01
2.479812e-01
2.479817e-01
2.479822e-01
2.479827e-01
2.479831e-01
2.479834e-01
2.479838e-01
2.479840e-01
2.479843e-01
2.479845e-01
2.479846e-01
2.479848e-01
2.479849e-01
2.479850e-01
2.479802e-01
2.479800e-01
2.479803e-01
2.479810e-01
2.479817e-01
2.479822e-01
2.479827e-01
2.479832e-01
2.479836e-01
2.479839e-01
2.479842e-01
2.479845e-01
2.479847e-01
2.479849e-01
2.479850e-01
2.479850e-01


9.837949e-01
9.860929e-01
9.882187e-01
9.898551e-01
9.913741e-01
9.927747e-01
9.940508e-01
9.951873e-01
9.961724e-01
9.969963e-01
9.976514e-01
9.981313e-01
9.984296e-01
9.985360e-01
9.986129e-01
9.938769e-01
9.938693e-01
9.928162e-01
9.934938e-01
9.943780e-01
9.952024e-01
9.959517e-01
9.966300e-01
9.972444e-01
9.978007e-01
9.983046e-01
9.987618e-01
9.991758e-01
9.995370e-01
9.997735e-01
9.991754e-01
9.910684e-01
9.978699e-01
9.972650e-01
9.971017e-01
9.973314e-01
9.976335e-01
9.979262e-01
9.981979e-01
9.984547e-01
9.987034e-01
9.989459e-01
9.991723e-01
9.993477e-01
9.993843e-01
9.990685e-01
9.979230e-01
9.958628e-01
9.995665e-01
9.991253e-01
9.988528e-01
9.987837e-01
9.988113e-01
9.988576e-01
9.989039e-01
9.989491e-01
9.989934e-01
9.990306e-01
9.990409e-01
9.989857e-01
9.988105e-01
9.984962e-01
9.982296e-01
9.981621e-01
9.995681e-01
9.991276e-01
9.988549e-01
9.987833e-01
9.988044e-01
9.988378e-01
9.988610e-01
9.988688e-01
9.988582e-01
9.988240e-01
9.987604e-01
9.986688e-01
9.985815e-01
9.985989e-01
9.988456e-01
9.992726e-01
9.978729e-01
9.972696e-01
9.971062e-01
9.973315e-01
9.976218e-01
9.978900e-01
9.981169e-01
9.982993e-01
9.984358e-01
9.985278e-01
9.985860e-01
9.986428e-01
9.987623e-01
9.990127e-01
9.993888e-01
9.997777e-01
9.938687e-01
9.928158e-01
9.934928e-01
9.943755e-01
9.951960e-01
9.959370e-01
9.965995e-01
9.971861e-01
9.976972e-01
9.981342e-01
9.985040e-01
9.988271e-01
9.991382e-01
9.994643e-01
9.997693e-01
9.999614e-01
9.837839e-01
9.860756e-01
9.881975e-01
9.898313e-01
9.913527e-01
9.927670e-01
9.940771e-01
9.952802e-01
9.963764e-01
9.973635e-01
9.982300e-01
9.989487e-01
9.994834e-01
9.998133e-01
9.999634e-01
9.999992e-01
1 2 19 18
2 3 20 19
3 4 21 20
4 5 22 21
5 6 23 22
6 7 24 23
7 8 25 24
8 9 26 25
9 10 27 26
10 11 28 27
11 12 29 28
12 13 30 29
13 14 31 30
14 15 32 31
15 16 33 32
16 17 34 33
18 19 36 35
19 20 37 36
20 21 38 37
21 22 39 38
22 23 40 39
23 24 41 40
24 25 42 41
25 26 43 42
26 27 44 43
27 28 45 44
28 29 46 45
29 30 47 46
30 31 48 47
31 32 49 48
32 33 50 49
33 34 51 50
35 36 53 52
36 37 54 53
37 38 55 54
38 39 56 55
39 40 57 56
40 41 58 57
41 42 59 58
42 43 60 59
43 44 61 60
44 45 62 61
45 46 63 62
46 47 64 63
47 48 65 64
48 49 66 65
49 50 67 66
50 51 68 67
52 53 70 69
53 54 71 70
54 55 72 71
55 56 73 72
56 57 74 73
57 58 75 74
58 59 76 75
59 60 77 76
60 61 78 77
61 62 79 78
62 63 80 79
63 64 81 80
64 65 82 81
65 66 83 82
66 67 84 83
67 68 85 84
69 70 87 86
70 71 88 87
71 72 89 88
72 73 90 89
73 74 91 90
74 75 92 91
75 76 93 92
76 77 94 93
77 78 95 94
78 79 96 95
79 80 97 96
80 81 98 97
81 82 99 98
82 83 100 99
83 84 101 100
84 85 102 101
86 87 104 103
87 88 105 104
88 89 106 105
89 90 107 106
90 91 108 107
91 92 109 108
92 93 110 109
93 94 111 110
94 95 112 111
95 96 113 112
96 97 114 113
97 98 115 114
98 99 116 115
99 100 117 116
100 101 118 117
101 102 119 118
103 104 121 120
104 105 122 121
105 106 123 122
106 107 124 123
107 108 125 124
108 109 126 125
109 110 127 126
110 111 128 127
111 112 129 128
112 113 130 129
113 114 131 130
114 115 132 131
115 116 133 132
116 117 134 133
117 118 135 134
118 119 136 135
120 121 138 137
121 122 139 138
122 123 140 139
123 124 141 140
124 125 142 141
125 126 143 142
126 127 144 143
127 128 145 144
128 129 146 145
129 130 147 146
130 131 148 147
131 132 149 148
132 133 150 149
133 134 151 150
134 135 152 151
135 136 153 152
