TITLE = "Solution"
VARIABLES = x, y, u, v, psiu, psiv, t, stress
ZONE T="structure" N=153 E=128 F=FEBLOCK ET=QUADRILATERAL VARLOCATION=([7,8]=cellcentered)
0.000000e+00
1.250000e+01
2.500000e+01
3.750000e+01
5.000000e+01
6.250000e+01
7.500000e+01
8.750000e+01
1.000000e+02
1.125000e+02
1.250000e+02
1.375000e+02
1.500000e+02
1.625000e+02
1.750000e+02
1.875000e+02
2.000000e+02
0.000000e+00
1.250000e+01
2.500000e+01
3.750000e+01
5.000000e+01
6.250000e+01
7.500000e+01
8.750000e+01
1.000000e+02
1.125000e+02
1.250000e+02
1.375000e+02
1.500000e+02
1.625000e+02
1.750000e+02
1.875000e+02
2.000000e+02
0.000000e+00
1.250000e+01
2.500000e+01
3.750000e+01
5.000000e+01
6.250000e+01
7.500000e+01
8.750000e+01
1.000000e+02
1.125000e+02
1.250000e+02
1.375000e+02
1.500000e+02
1.625000e+02
1.750000e+02
1.875000e+02
2.000000e+02
0.000000e+00
1.250000e+01
2.500000e+01
3.750000e+01
5.000000e+01
6.250000e+01
7.500000e+01
8.750000e+01
1.000000e+02
1.125000e+02
1.250000e+02
1.375000e+02
1.500000e+02
1.625000e+02
1.750000e+02
1.875000e+02
2.000000e+02
0.000000e+00
1.250000e+01
2.500000e+01
3.750000e+01
5.000000e+01
6.250000e+01
7.500000e+01
8.750000e+01
1.000000e+02
1.125000e+02
1.250000e+02
1.375000e+02
1.500000e+02
1.625000e+02
1.750000e+02
1.875000e+02
2.000000e+02
0.000000e+00
1.250000e+01
2.500000e+01
3.750000e+01
5.000000e+01
6.250000e+01
7.500000e+01
8.750000e+01
1.000000e+02
1.125000e+02
1.250000e+02
1.375000e+02
1.500000e+02
1.625000e+02
1.750000e+02
1.875000e+02
2.000000e+02
0.000000e+00
1.250000e+01
2.500000e+01
3.750000e+01
5.000000e+01
6.250000e+01
7.500000e+01
8.750000e+01
1.000000e+02
1.125000e+02
1.250000e+02
1.375000e+02
1.500000e+02
1.625000e+02
1.750000e+02
1.875000e+02
2.000000e+02
0.000000e+00
1.250000e+01
2.500000e+01
3.750000e+01
5.000000e+01
6.250000e+01
7.500000e+01
8.750000e+01
1.000000e+02
1.125000e+02
1.250000e+02
1.375000e+02
1.500000e+02
1.625000e+02
1.750000e+02
1.875000e+02
2.000000e+02
0.000000e+00
1.250000e+01
2.500000e+01
3.750000e+01
5.000000e+01
6.250000e+01
7.500000e+01
8.750000e+01
1.000000e+02
1.125000e+02
1.250000e+02
1.375000e+02
1.500000e+02
1.625000e+02
1.750000e+02
1.875000e+02
2.000000e+02
0.000000e+00
0.000000e+00
0.000000e+00
0.000000e+00
0.000000e+00
0.000000e+00
0.000000e+00
0.000000e+00
0.000000e+00
0.000000e+00
0.000000e+00
0.000000e+00
0.000000e+00
0.000000e+00
0.000000e+00
0.000000e+00
0.000000e+00
1.250000e+01
1.250000e+01
1.250000e+01
1.250000e+01
1.250000e+01
1.250000e+01
1.250000e+01
1.250000e+01
1.250000e+01
1.250000e+01
1.250000e+01
1.250000e+01
1.250000e+01
1.250000e+01
1.250000e+01
1.250000e+01
1.250000e+01
2.500000e+01
2.500000e+01
2.500000e+01
2.500000e+01
2.500000e+01
2.500000e+01
2.500000e+01
2.500000e+01
2.500000e+01
2.500000e+01
2.500000e+01
2.500000e+01
2.500000e+01
2.500000e+01
2.500000e+01
2.500000e+01
2.500000e+01
3.750000e+01
3.750000e+01
3.750000e+01
3.750000e+01
3.750000e+01
3.750000e+01
3.750000e+01
3.750000e+01
3.750000e+01
3.750000e+01
3.750000e+01
3.750000e+01
3.750000e+01
3.750000e+01
3.750000e+01
3.750000e+01
3.750000e+01
5.000000e+01
5.000000e+01
5.000000e+01
5.000000e+01
5.000000e+01
5.000000e+01
5.000000e+01
5.000000e+01
5.000000e+01
5.000000e+01
5.000000e+01
5.000000e+01
5.000000e+01
5.000000e+01
5.000000e+01
5.000000e+01
5.000000e+01
6.250000e+01
6.250000e+01
6.250000e+01
6.250000e+01
6.250000e+01
6.250000e+01
6.250000e+01
6.250000e+01
6.250000e+01
6.250000e+01
6.250000e+01
6.250000e+01
6.250000e+01
6.250000e+01
6.250000e+01
6.250000e+01
6.250000e+01
7.500000e+01
7.500000e+01
7.500000e+01
7.500000e+01
7.500000e+01
7.500000e+01
7.500000e+01
7.500000e+01
7.500000e+01
7.500000e+01
7.500000e+01
7.500000e+01
7.500000e+01
7.500000e+01
7.500000e+01
7.500000e+01
7.500000e+01
8.750000e+01
8.750000e+01
8.750000e+01
8.750000e+01
8.750000e+01
8.750000e+01
8.750000e+01
8.750000e+01
8.750000e+01
8.750000e+01
8.750000e+01
8.750000e+01
8.750000e+01
8.750000e+01
8.750000e+01
8.750000e+01
8.750000e+01
1.000000e+02
1.000000e+02
1.000000e+02
1.000000e+02
1.000000e+02
1.000000e+02
1.000000e+02
1.000000e+02
1.000000e+02
1.000000e+02
1.000000e+02
1.000000e+02
1.000000e+02
1.000000e+02
1.000000e+02
1.000000e+02
1.000000e+02
0.000000e+00
-8.283926e-01
-1.502587e+00
-2.156740e+00
-2.823244e+00
-3.477189e+00
-4.122351e+00
-4.763360e+00
-5.394956e+00
-6.007698e+00
-6.591294e+00
-7.139324e+00
-7.656012e+00
-8.161005e+00
-8.688702e+00
-9.280673e+00
-9.700755e+00
0.000000e+00
-4.588567e-01
-9.546032e-01
-1.443382e+00
-1.942752e+00
-2.432727e+00
-2.915187e+00
-3.393978e+00
-3.865368e+00
-4.321645e+00
-4.752932e+00
-5.149141e+00
-5.501564e+00
-5.796956e+00
-5.999466e+00
-6.044331e+00
-6.181033e+00
0.000000e+00
-2.598416e-01
-5.463682e-01
-8.652404e-01
-1.196839e+00
-1.525612e+00
-1.850885e+00
-2.171956e+00
-2.484426e+00
-2.781126e+00
-3.052111e+00
-3.284911e+00
-3.464072e+00
-3.568755e+00
-3.578306e+00
-3.546363e+00
-3.688762e+00
0.000000e+00
-1.163576e-01
-2.487402e-01
-4.020238e-01
-5.659583e-01
-7.316146e-01
-8.959863e-01
-1.056134e+00
-1.207973e+00
-1.345629e+00
-1.460973e+00
-1.543856e+00
-1.583476e+00
-1.573708e+00
-1.534062e+00
-1.541647e+00
-1.653541e+00
0.000000e+00
-5.245146e-04
-1.100799e-03
-1.633082e-03
-1.934063e-03
-1.647924e-03
-1.132284e-04
3.862737e-03
1.231446e-02
2.838761e-02
5.629486e-02
1.003954e-01
1.622089e-01
2.331447e-01
2.840061e-01
2.753931e-01
1.974624e-01
0.000000e+00
1.154743e-01
2.468618e-01
3.991717e-01
5.624284e-01
7.282730e-01
8.947563e-01
1.060844e+00
1.225645e+00
1.388209e+00
1.547180e+00
1.700054e+00
1.840953e+00
1.956691e+00
2.026527e+00
2.034235e+00
1.993584e+00
0.000000e+00
2.594010e-01
5.453714e-01
8.635867e-01
1.194480e+00
1.522682e+00
1.847935e+00
2.170285e+00
2.486276e+00
2.789806e+00
3.072488e+00
3.324616e+00
3.535871e+00
3.695152e+00
3.791937e+00
3.823883e+00
3.814481e+00
0.000000e+00
4.589625e-01
9.547315e-01
1.443455e+00
1.942574e+00
2.431875e+00
2.913057e+00
3.389524e+00
3.855808e+00
4.299964e+00
4.705364e+00
5.054089e+00
5.331539e+00
5.529584e+00
5.648660e+00
5.699590e+00
5.709006e+00
0.000000e+00
8.288181e-01
1.503655e+00
2.158658e+00
2.826122e+00
3.480905e+00
4.126600e+00
4.766995e+00
5.393340e+00
5.987554e+00
6.524197e+00
6.975294e+00
7.317599e+00
7.539190e+00
7.646657e+00
7.672861e+00
7.672158e+00
0.000000e+00
-5.089856e-01
-1.044710e+00
-1.754887e+00
-2.629715e+00
-3.669569e+00
-4.878645e+00
-6.256550e+00
-7.799077e+00
-9.499304e+00
-1.134753e+01
-1.333388e+01
-1.545414e+01
-1.772001e+01
-2.019682e+01
-2.309633e+01
-2.741275e+01
0.000000e+00
-3.200242e-01
-8.785274e-01
-1.582131e+00
-2.456933e+00
-3.499656e+00
-4.710532e+00
-6.090440e+00
-7.637150e+00
-9.344640e+00
-1.120333e+01
-1.320234e+01
-1.533585e+01
-1.761656e+01
-2.010239e+01
-2.299088e+01
-2.659058e+01
0.000000e+00
-2.576997e-01
-7.674055e-01
-1.464270e+00
-2.335773e+00
-3.379081e+00
-4.591977e+00
-5.975098e+00
-7.527154e+00
-9.243191e+00
-1.111440e+01
-1.313032e+01
-1.528577e+01
-1.759202e+01
-2.008684e+01
-2.280443e+01
-2.539652e+01
0.000000e+00
-2.465509e-01
-7.210889e-01
-1.399923e+00
-2.265842e+00
-3.308090e+00
-4.523242e+00
-5.910863e+00
-7.469855e+00
-9.196040e+00
-1.108120e+01
-1.311458e+01
-1.528760e+01
-1.759766e+01
-2.003187e+01
-2.248673e+01
-2.467923e+01
0.000000e+00
-2.471095e-01
-7.102058e-01
-1.381316e+00
-2.243903e+00
-3.286278e+00
-4.503716e+00
-5.895599e+00
-7.461137e+00
-9.196558e+00
-1.109325e+01
-1.313772e+01
-1.531292e+01
-1.759497e+01
-1.993083e+01
-2.220384e+01
-2.422147e+01
0.000000e+00
-2.463471e-01
-7.210814e-01
-1.400577e+00
-2.267836e+00
-3.312456e+00
-4.531605e+00
-5.925847e+00
-7.495271e+00
-9.236231e+00
-1.113876e+01
-1.318495e+01
-1.534785e+01
-1.758685e+01
-1.983724e+01
-2.200187e+01
-2.395498e+01
0.000000e+00
-2.573536e-01
-7.673628e-01
-1.465270e+00
-2.338946e+00
-3.386155e+00
-4.605698e+00
-5.999925e+00
-7.569605e+00
-9.310791e+00
-1.121188e+01
-1.325096e+01
-1.539382e+01
-1.759160e+01
-1.977960e+01
-2.188413e+01
-2.383564e+01
0.000000e+00
-3.196753e-01
-8.784792e-01
-1.583224e+00
-2.460455e+00
-3.507598e+00
-4.726077e+00
-6.118697e+00
-7.685423e+00
-9.421143e+00
-1.131285e+01
-1.333664e+01
-1.545565e+01
-1.761898e+01
-1.976482e+01
-2.183496e+01
-2.380788e+01
0.000000e+00
-5.087654e-01
-1.044790e+00
-1.756140e+00
-2.633410e+00
-3.677701e+00
-4.894406e+00
-6.284797e+00
-7.846104e+00
-9.571108e+00
-1.144532e+01
-1.344465e+01
-1.553333e+01
-1.766303e+01
-1.977690e+01
-2.182588e+01
-2.380851e+01


0.000000e+00
1.010338e-05
1.968796e-05
2.881249e-05
3.839974e-05
4.774058e-05
5.625565e-05
6.381607e-05
7.021892e-05
7.521305e-05
7.878384e-05
8.118876e-05
8.282206e-05
8.410834e-05
8.538066e-05
8.720040e-05
8.958963e-05
0.000000e+00
7.428204e-06
1.587251e-05
2.276923e-05
3.005815e-05
3.718293e-05
4.355209e-05
4.911115e-05
5.374598e-05
5.723066e-05
5.955953e-05
6.095514e-05
6.165885e-05
6.182985e-05
6.200687e-05
6.347933e-05
6.600193e-05
0.000000e+00
5.594102e-06
1.123601e-05
1.597908e-05
2.090121e-05
2.554503e-05
2.966540e-05
3.321762e-05
3.611722e-05
3.824432e-05
3.960515e-05
4.032334e-05
4.056086e-05
4.054828e-05
4.075432e-05
4.199951e-05
4.411789e-05
0.000000e+00
2.794603e-06
5.259769e-06
7.925770e-06
1.038974e-05
1.262592e-05
1.463112e-05
1.635930e-05
1.774600e-05
1.875759e-05
1.939667e-05
1.971824e-05
1.985001e-05
1.999036e-05
2.032011e-05
2.106654e-05
2.228323e-05
0.000000e+00
-6.504054e-09
-1.349454e-08
-2.067044e-08
-2.825219e-08
-3.726559e-08
-5.135857e-08
-7.845836e-08
-1.280306e-07
-2.031439e-07
-2.932655e-07
-3.670955e-07
-3.682828e-07
-2.418338e-07
-3.072374e-08
2.462612e-07
7.647107e-07
0.000000e+00
-2.806216e-06
-5.283008e-06
-7.962129e-06
-1.043964e-05
-1.268965e-05
-1.471317e-05
-1.647410e-05
-1.791935e-05
-1.902296e-05
-1.978346e-05
-2.023061e-05
-2.042568e-05
-2.045871e-05
-2.045374e-05
-2.043551e-05
-2.026122e-05
0.000000e+00
-5.599653e-06
-1.125006e-05
-1.600458e-05
-2.093996e-05
-2.559808e-05
-2.973372e-05
-3.328817e-05
-3.615591e-05
-3.822263e-05
-3.953825e-05
-4.028356e-05
-4.066505e-05
-4.085955e-05
-4.098488e-05
-4.105488e-05
-4.101556e-05
0.000000e+00
-7.428066e-06
-1.587592e-05
-2.277893e-05
-3.007633e-05
-3.721383e-05
-4.360176e-05
-4.915197e-05
-5.368759e-05
-5.696895e-05
-5.906353e-05
-6.029546e-05
-6.099869e-05
-6.140542e-05
-6.164508e-05
-6.176437e-05
-6.178366e-05
0.000000e+00
-1.010485e-05
-1.968591e-05
-2.880640e-05
-3.838870e-05
-4.772632e-05
-5.624121e-05
-6.377218e-05
-7.004991e-05
-7.479786e-05
-7.805309e-05
-8.012978e-05
-8.139364e-05
-8.212821e-05
-8.251278e-05
-8.265827e-05
-8.268216e-05
0.000000e+00
8.829625e-06
1.512296e-05
2.282731e-05
3.302202e-05
4.515895e-05
5.922955e-05
7.519090e-05
9.267370e-05
1.112929e-04
1.308158e-04
1.510840e-04
1.720064e-04
1.938341e-04
2.180586e-04
2.457574e-04
2.742385e-04
0.000000e+00
4.593540e-06
1.113035e-05
1.869216e-05
2.872875e-05
4.110852e-05
5.562668e-05
7.208888e-05
9.018404e-05
1.094912e-04
1.296403e-04
1.503822e-04
1.716138e-04
1.934788e-04
2.165649e-04
2.425688e-04
2.701317e-04
0.000000e+00
2.016679e-06
7.880493e-06
1.565826e-05
2.565371e-05
3.823269e-05
5.309613e-05
6.994170e-05
8.847047e-05
1.082591e-04
1.288619e-04
1.499695e-04
1.714450e-04
1.931781e-04
2.150098e-04
2.390567e-04
2.651532e-04
0.000000e+00
1.155924e-06
6.367682e-06
1.419757e-05
2.435135e-05
3.702900e-05
5.201687e-05
6.902313e-05
8.772415e-05
1.076987e-04
1.284975e-04
1.497745e-04
1.713077e-04
1.928532e-04
2.141164e-04
2.367132e-04
2.610193e-04
0.000000e+00
9.857549e-07
5.939622e-06
1.370755e-05
2.397531e-05
3.668370e-05
5.170344e-05
6.876401e-05
8.752480e-05
1.075579e-04
1.284128e-04
1.497175e-04
1.712031e-04
1.926316e-04
2.138626e-04
2.357197e-04
2.583647e-04
0.000000e+00
1.156688e-06
6.365786e-06
1.419081e-05
2.433823e-05
3.701164e-05
5.200781e-05
6.904586e-05
8.779665e-05
1.078163e-04
1.286294e-04
1.498580e-04
1.712431e-04
1.926031e-04
2.138966e-04
2.353975e-04
2.569783e-04
0.000000e+00
2.017645e-06
7.877660e-06
1.564838e-05
2.563398e-05
3.820651e-05
5.308509e-05
6.998709e-05
8.860554e-05
1.084796e-04
1.291222e-04
1.501764e-04
1.714165e-04
1.927000e-04
2.139705e-04
2.352589e-04
2.563775e-04
0.000000e+00
4.595642e-06
1.113056e-05
1.868652e-05
2.871479e-05
4.109106e-05
5.562636e-05
7.214034e-05
9.031541e-05
1.097057e-04
1.299124e-04
1.506386e-04
1.716648e-04
1.928309e-04
2.140329e-04
2.351937e-04
2.561896e-04
0.000000e+00
8.833649e-06
1.512665e-05
2.282763e-05
3.301712e-05
4.515547e-05
5.924153e-05
7.522655e-05
9.273366e-05
1.113870e-04
1.309567e-04
1.512344e-04
1.719837e-04
1.929922e-04
2.141017e-04
2.351882e-04
2.561633e-04


2.177389e+00
2.125105e+00
2.267526e+00
2.492730e+00
2.672698e+00
2.918167e+00
3.233468e+00
3.580322e+00
3.927746e+00
4.238210e+00
4.478336e+00
4.633103e+00
4.678021e+00
4.509150e+00
4.133898e+00
3.837761e+00
2.844727e+00
2.791911e+00
2.880632e+00
3.038144e+00
3.166152e+00
3.348484e+00
3.587427e+00
3.852916e+00
4.122032e+00
4.364946e+00
4.553376e+00
4.672642e+00
4.694614e+00
4.511495e+00
4.139823e+00
3.849513e+00
3.834084e+00
3.794113e+00
3.825267e+00
3.888671e+00
3.940821e+00
4.028678e+00
4.147209e+00
4.282396e+00
4.424106e+00
4.555397e+00
4.658288e+00
4.721824e+00
4.721998e+00
4.571070e+00
4.277533e+00
4.057227e+00
4.458318e+00
4.433258e+00
4.430288e+00
4.434414e+00
4.445611e+00
4.472400e+00
4.510822e+00
4.558133e+00
4.612007e+00
4.665140e+00
4.708732e+00
4.737198e+00
4.737248e+00
4.659786e+00
4.505384e+00
4.389219e+00
4.458346e+00
4.433203e+00
4.430042e+00
4.433763e+00
4.444162e+00
4.469632e+00
4.506288e+00
4.551392e+00
4.602472e+00
4.652592e+00
4.694513e+00
4.725876e+00
4.743192e+00
4.728151e+00
4.678708e+00
4.639247e+00
3.833915e+00
3.793676e+00
3.824267e+00
3.886623e+00
3.936980e+00
4.022633e+00
4.139415e+00
4.273131e+00
4.411829e+00
4.537729e+00
4.636046e+00
4.704719e+00
4.749379e+00
4.771171e+00
4.773265e+00
4.769659e+00
2.843934e+00
2.790677e+00
2.878610e+00
3.034921e+00
3.161538e+00
3.344002e+00
3.586946e+00
3.859564e+00
4.133785e+00
4.375320e+00
4.558230e+00
4.679872e+00
4.754107e+00
4.796065e+00
4.816844e+00
4.824732e+00
2.176027e+00
2.123230e+00
2.264842e+00
2.489049e+00
2.668544e+00
2.916867e+00
3.241730e+00
3.603636e+00
3.963974e+00
4.277948e+00
4.513196e+00
4.667097e+00
4.758107e+00
4.808185e+00
4.833367e+00
4.843748e+00


-4.601712e-01
-2.062948e-01
-1.451963e-01
-1.915796e-01
-1.492893e-01
-1.184847e-01
-1.043001e-01
-7.256807e-02
-8.098786e-03
9.204212e-02
2.164980e-01
3.409302e-01
4.469977e-01
5.378958e-01
6.371797e-01
-4.331932e-01
5.172598e-01
4.000051e-01
3.694551e-01
3.327424e-01
3.447763e-01
3.535318e-01
3.566564e-01
3.725941e-01
4.126464e-01
4.832232e-01
5.831445e-01
7.023172e-01
8.259125e-01
9.198478e-01
7.838171e-01
-1.162046e+00
8.324541e-01
7.401672e-01
6.644580e-01
6.286574e-01
6.196605e-01
6.141380e-01
6.108279e-01
6.153737e-01
6.332294e-01
6.683349e-01
7.181784e-01
7.672737e-01
7.803119e-01
6.910161e-01
3.950718e-01
-1.278688e-01
9.334524e-01
8.579360e-01
7.896753e-01
7.512849e-01
7.348647e-01
7.257138e-01
7.171035e-01
7.072930e-01
6.969789e-01
6.867864e-01
6.729591e-01
6.427539e-01
5.765839e-01
4.762068e-01
4.163819e-01
4.168475e-01
9.339297e-01
8.585344e-01
7.902065e-01
7.511446e-01
7.330125e-01
7.203948e-01
7.052297e-01
6.838806e-01
6.550916e-01
6.189908e-01
5.760414e-01
5.280435e-01
4.871565e-01
4.927781e-01
5.885503e-01
7.455429e-01
8.335517e-01
7.415894e-01
6.658531e-01
6.289482e-01
6.168645e-01
6.046668e-01
5.881924e-01
5.692199e-01
5.491812e-01
5.301868e-01
5.158683e-01
5.150264e-01
5.474045e-01
6.359611e-01
7.751962e-01
9.191484e-01
5.180202e-01
4.010699e-01
3.705803e-01
3.336764e-01
3.446938e-01
3.503911e-01
3.466754e-01
3.510087e-01
3.745986e-01
4.230465e-01
4.942947e-01
5.819511e-01
6.843869e-01
8.017786e-01
9.146735e-01
9.858894e-01
-4.610025e-01
-2.075878e-01
-1.467449e-01
-1.930671e-01
-1.499056e-01
-1.178591e-01
-1.005899e-01
-5.708617e-02
3.964033e-02
2.009662e-01
4.115917e-01
6.305694e-01
8.130741e-01
9.316305e-01
9.866250e-01
9.997276e-01
1 2 19 18
2 3 20 19
3 4 21 20
4 5 22 21
5 6 23 22
6 7 24 23
7 8 25 24
8 9 26 25
9 10 27 26
10 11 28 27
11 12 29 28
12 13 30 29
13 14 31 30
14 15 32 31
15 16 33 32
16 17 34 33
18 19 36 35
19 20 37 36
20 21 38 37
21 22 39 38
22 23 40 39
23 24 41 40
24 25 42 41
25 26 43 42
26 27 44 43
27 28 45 44
28 29 46 45
29 30 47 46
30 31 48 47
31 32 49 48
32 33 50 49
33 34 51 50
35 36 53 52
36 37 54 53
37 38 55 54
38 39 56 55
39 40 57 56
40 41 58 57
41 42 59 58
42 43 60 59
43 44 61 60
44 45 62 61
45 46 63 62
46 47 64 63
47 48 65 64
48 49 66 65
49 50 67 66
50 51 68 67
52 53 70 69
53 54 71 70
54 55 72 71
55 56 73 72
56 57 74 73
57 58 75 74
58 59 76 75
59 60 77 76
60 61 78 77
61 62 79 78
62 63 80 79
63 64 81 80
64 65 82 81
65 66 83 82
66 67 84 83
67 68 85 84
69 70 87 86
70 71 88 87
71 72 89 88
72 73 90 89
73 74 91 90
74 75 92 91
75 76 93 92
76 77 94 93
77 78 95 94
78 79 96 95
79 80 97 96
80 81 98 97
81 82 99 98
82 83 100 99
83 84 101 100
84 85 102 101
86 87 104 103
87 88 105 104
88 89 106 105
89 90 107 106
90 91 108 107
91 92 109 108
92 93 110 109
93 94 111 110
94 95 112 111
95 96 113 112
96 97 114 113
97 98 115 114
98 99 116 115
99 100 117 116
100 101 118 117
101 102 119 118
103 104 121 120
104 105 122 121
105 106 123 122
106 107 124 123
107 108 125 124
108 109 126 125
109 110 127 126
110 111 128 127
111 112 129 128
112 113 130 129
113 114 131 130
114 115 132 131
115 116 133 132
116 117 134 133
117 118 135 134
118 119 136 135
120 121 138 137
121 122 139 138
122 123 140 139
123 124 141 140
124 125 142 141
125 126 143 142
126 127 144 143
127 128 145 144
128 129 146 145
129 130 147 146
130 131 148 147
131 132 149 148
132 133 150 149
133 134 151 150
134 135 152 151
135 136 153 152
