TITLE = "Solution"
VARIABLES = x, y, u, v, psiu, psiv, t, stress
ZONE T="structure" N=153 E=128 F=FEBLOCK ET=QUADRILATERAL VARLOCATION=([7,8]=cellcentered)
0.000000e+00
1.250000e+01
2.500000e+01
3.750000e+01
5.000000e+01
6.250000e+01
7.500000e+01
8.750000e+01
1.000000e+02
1.125000e+02
1.250000e+02
1.375000e+02
1.500000e+02
1.625000e+02
1.750000e+02
1.875000e+02
2.000000e+02
0.000000e+00
1.250000e+01
2.500000e+01
3.750000e+01
5.000000e+01
6.250000e+01
7.500000e+01
8.750000e+01
1.000000e+02
1.125000e+02
1.250000e+02
1.375000e+02
1.500000e+02
1.625000e+02
1.750000e+02
1.875000e+02
2.000000e+02
0.000000e+00
1.250000e+01
2.500000e+01
3.750000e+01
5.000000e+01
6.250000e+01
7.500000e+01
8.750000e+01
1.000000e+02
1.125000e+02
1.250000e+02
1.375000e+02
1.500000e+02
1.625000e+02
1.750000e+02
1.875000e+02
2.000000e+02
0.000000e+00
1.250000e+01
2.500000e+01
3.750000e+01
5.000000e+01
6.250000e+01
7.500000e+01
8.750000e+01
1.000000e+02
1.125000e+02
1.250000e+02
1.375000e+02
1.500000e+02
1.625000e+02
1.750000e+02
1.875000e+02
2.000000e+02
0.000000e+00
1.250000e+01
2.500000e+01
3.750000e+01
5.000000e+01
6.250000e+01
7.500000e+01
8.750000e+01
1.000000e+02
1.125000e+02
1.250000e+02
1.375000e+02
1.500000e+02
1.625000e+02
1.750000e+02
1.875000e+02
2.000000e+02
0.000000e+00
1.250000e+01
2.500000e+01
3.750000e+01
5.000000e+01
6.250000e+01
7.500000e+01
8.750000e+01
1.000000e+02
1.125000e+02
1.250000e+02
1.375000e+02
1.500000e+02
1.625000e+02
1.750000e+02
1.875000e+02
2.000000e+02
0.000000e+00
1.250000e+01
2.500000e+01
3.750000e+01
5.000000e+01
6.250000e+01
7.500000e+01
8.750000e+01
1.000000e+02
1.125000e+02
1.250000e+02
1.375000e+02
1.500000e+02
1.625000e+02
1.750000e+02
1.875000e+02
2.000000e+02
0.000000e+00
1.250000e+01
2.500000e+01
3.750000e+01
5.000000e+01
6.250000e+01
7.500000e+01
8.750000e+01
1.000000e+02
1.125000e+02
1.250000e+02
1.375000e+02
1.500000e+02
1.625000e+02
1.750000e+02
1.875000e+02
2.000000e+02
0.000000e+00
1.250000e+01
2.500000e+01
3.750000e+01
5.000000e+01
6.250000e+01
7.500000e+01
8.750000e+01
1.000000e+02
1.125000e+02
1.250000e+02
1.375000e+02
1.500000e+02
1.625000e+02
1.750000e+02
1.875000e+02
2.000000e+02
0.000000e+00
0.000000e+00
0.000000e+00
0.000000e+00
0.000000e+00
0.000000e+00
0.000000e+00
0.000000e+00
0.000000e+00
0.000000e+00
0.000000e+00
0.000000e+00
0.000000e+00
0.000000e+00
0.000000e+00
0.000000e+00
0.000000e+00
1.250000e+01
1.250000e+01
1.250000e+01
1.250000e+01
1.250000e+01
1.250000e+01
1.250000e+01
1.250000e+01
1.250000e+01
1.250000e+01
1.250000e+01
1.250000e+01
1.250000e+01
1.250000e+01
1.250000e+01
1.250000e+01
1.250000e+01
2.500000e+01
2.500000e+01
2.500000e+01
2.500000e+01
2.500000e+01
2.500000e+01
2.500000e+01
2.500000e+01
2.500000e+01
2.500000e+01
2.500000e+01
2.500000e+01
2.500000e+01
2.500000e+01
2.500000e+01
2.500000e+01
2.500000e+01
3.750000e+01
3.750000e+01
3.750000e+01
3.750000e+01
3.750000e+01
3.750000e+01
3.750000e+01
3.750000e+01
3.750000e+01
3.750000e+01
3.750000e+01
3.750000e+01
3.750000e+01
3.750000e+01
3.750000e+01
3.750000e+01
3.750000e+01
5.000000e+01
5.000000e+01
5.000000e+01
5.000000e+01
5.000000e+01
5.000000e+01
5.000000e+01
5.000000e+01
5.000000e+01
5.000000e+01
5.000000e+01
5.000000e+01
5.000000e+01
5.000000e+01
5.000000e+01
5.000000e+01
5.000000e+01
6.250000e+01
6.250000e+01
6.250000e+01
6.250000e+01
6.250000e+01
6.250000e+01
6.250000e+01
6.250000e+01
6.250000e+01
6.250000e+01
6.250000e+01
6.250000e+01
6.250000e+01
6.250000e+01
6.250000e+01
6.250000e+01
6.250000e+01
7.500000e+01
7.500000e+01
7.500000e+01
7.500000e+01
7.500000e+01
7.500000e+01
7.500000e+01
7.500000e+01
7.500000e+01
7.500000e+01
7.500000e+01
7.500000e+01
7.500000e+01
7.500000e+01
7.500000e+01
7.500000e+01
7.500000e+01
8.750000e+01
8.750000e+01
8.750000e+01
8.750000e+01
8.750000e+01
8.750000e+01
8.750000e+01
8.750000e+01
8.750000e+01
8.750000e+01
8.750000e+01
8.750000e+01
8.750000e+01
8.750000e+01
8.750000e+01
8.750000e+01
8.750000e+01
1.000000e+02
1.000000e+02
1.000000e+02
1.000000e+02
1.000000e+02
1.000000e+02
1.000000e+02
1.000000e+02
1.000000e+02
1.000000e+02
1.000000e+02
1.000000e+02
1.000000e+02
1.000000e+02
1.000000e+02
1.000000e+02
1.000000e+02
0.000000e+00
-9.122584e-01
-1.598896e+00
-2.297215e+00
-2.984685e+00
-3.643185e+00
-4.316425e+00
-4.985503e+00
-5.646553e+00
-6.309747e+00
-6.975965e+00
-7.660355e+00
-8.373412e+00
-9.101725e+00
-9.832645e+00
-1.051775e+01
-1.096330e+01
0.000000e+00
-4.532825e-01
-9.383194e-01
-1.440389e+00
-1.957272e+00
-2.449846e+00
-2.953265e+00
-3.456314e+00
-3.951820e+00
-4.446803e+00
-4.939690e+00
-5.434821e+00
-5.929326e+00
-6.386998e+00
-6.713813e+00
-6.795542e+00
-6.959650e+00
0.000000e+00
-2.091478e-01
-4.604542e-01
-7.714613e-01
-1.110299e+00
-1.441728e+00
-1.783755e+00
-2.125290e+00
-2.461740e+00
-2.794055e+00
-3.115194e+00
-3.415794e+00
-3.675776e+00
-3.855148e+00
-3.903314e+00
-3.879511e+00
-4.032497e+00
0.000000e+00
-9.108685e-02
-1.962705e-01
-3.402024e-01
-4.952255e-01
-6.629776e-01
-8.341317e-01
-1.003207e+00
-1.168601e+00
-1.324961e+00
-1.463504e+00
-1.570178e+00
-1.625720e+00
-1.613427e+00
-1.551383e+00
-1.550005e+00
-1.680172e+00
0.000000e+00
-1.387244e-03
-2.767402e-03
-3.864972e-03
-4.243583e-03
-3.200506e-03
3.334722e-04
8.201427e-03
2.297317e-02
4.811497e-02
8.940626e-02
1.548029e-01
2.496789e-01
3.657050e-01
4.598570e-01
4.666348e-01
3.637539e-01
0.000000e+00
8.871418e-02
1.916055e-01
3.334402e-01
4.874931e-01
6.564388e-01
8.329224e-01
1.014564e+00
1.203791e+00
1.401639e+00
1.608731e+00
1.821906e+00
2.030855e+00
2.213102e+00
2.331566e+00
2.353502e+00
2.294617e+00
0.000000e+00
2.080264e-01
4.580987e-01
7.678525e-01
1.105569e+00
1.436431e+00
1.779938e+00
2.126307e+00
2.471255e+00
2.820327e+00
3.172606e+00
3.516200e+00
3.825272e+00
4.069630e+00
4.223325e+00
4.275865e+00
4.261870e+00
0.000000e+00
4.534232e-01
9.381928e-01
1.440000e+00
1.956392e+00
2.447173e+00
2.948529e+00
3.448910e+00
3.935716e+00
4.418318e+00
4.899941e+00
5.362956e+00
5.764857e+00
6.065765e+00
6.250991e+00
6.331049e+00
6.345916e+00
0.000000e+00
9.133900e-01
1.600925e+00
2.300593e+00
2.989538e+00
3.647751e+00
4.319689e+00
4.985320e+00
5.632260e+00
6.271927e+00
6.906049e+00
7.503605e+00
7.998105e+00
8.332980e+00
8.498893e+00
8.539591e+00
8.538368e+00
0.000000e+00
-5.664638e-01
-1.209774e+00
-2.065299e+00
-3.089514e+00
-4.280945e+00
-5.651784e+00
-7.194053e+00
-8.908845e+00
-1.079940e+01
-1.286664e+01
-1.511828e+01
-1.756199e+01
-2.020191e+01
-2.307778e+01
-2.639475e+01
-3.128595e+01
0.000000e+00
-3.678584e-01
-1.042050e+00
-1.884703e+00
-2.914999e+00
-4.106990e+00
-5.475884e+00
-7.020319e+00
-8.736419e+00
-1.062768e+01
-1.269476e+01
-1.494414e+01
-1.738901e+01
-2.004664e+01
-2.296107e+01
-2.629544e+01
-3.032543e+01
0.000000e+00
-3.220228e-01
-9.368452e-01
-1.771193e+00
-2.793267e+00
-3.983806e+00
-5.352577e+00
-6.897973e+00
-8.617035e+00
-1.051293e+01
-1.258719e+01
-1.484768e+01
-1.731043e+01
-2.000156e+01
-2.295291e+01
-2.612049e+01
-2.909385e+01
0.000000e+00
-3.433318e-01
-9.118976e-01
-1.722353e+00
-2.726474e+00
-3.914114e+00
-5.283242e+00
-6.830265e+00
-8.554752e+00
-1.045956e+01
-1.254862e+01
-1.482961e+01
-1.731268e+01
-2.000939e+01
-2.289993e+01
-2.579165e+01
-2.831464e+01
0.000000e+00
-3.525590e-01
-9.149918e-01
-1.709927e+00
-2.709375e+00
-3.895440e+00
-5.266938e+00
-6.818322e+00
-8.549224e+00
-1.046336e+01
-1.256684e+01
-1.486434e+01
-1.735234e+01
-2.001266e+01
-2.277149e+01
-2.544061e+01
-2.772163e+01
0.000000e+00
-3.432695e-01
-9.126682e-01
-1.724974e+00
-2.732390e+00
-3.924638e+00
-5.300645e+00
-6.857949e+00
-8.594389e+00
-1.051339e+01
-1.262341e+01
-1.492607e+01
-1.740257e+01
-2.000537e+01
-2.263996e+01
-2.515014e+01
-2.732778e+01
0.000000e+00
-3.219982e-01
-9.381486e-01
-1.775405e+00
-2.802769e+00
-4.000931e+00
-5.381046e+00
-6.943274e+00
-8.682209e+00
-1.060182e+01
-1.271081e+01
-1.500882e+01
-1.746510e+01
-2.001305e+01
-2.255447e+01
-2.496960e+01
-2.714336e+01
0.000000e+00
-3.678848e-01
-1.043472e+00
-1.889286e+00
-2.925355e+00
-4.125983e+00
-5.507743e+00
-7.070577e+00
-8.808918e+00
-1.072758e+01
-1.283304e+01
-1.512048e+01
-1.755202e+01
-2.005412e+01
-2.253190e+01
-2.489258e+01
-2.710017e+01
0.000000e+00
-5.666942e-01
-1.211374e+00
-2.070177e+00
-3.099986e+00
-4.299930e+00
-5.683696e+00
-7.243133e+00
-8.978238e+00
-1.089574e+01
-1.299725e+01
-1.526846e+01
-1.766608e+01
-2.012142e+01
-2.255071e+01
-2.487822e+01
-2.710128e+01


0.000000e+00
1.385606e-05
2.428815e-05
3.594296e-05
5.033745e-05
6.346911e-05
7.632879e-05
8.980058e-05
1.026626e-04
1.149982e-04
1.275297e-04
1.395665e-04
1.487315e-04
1.545735e-04
1.584781e-04
1.619862e-04
1.660921e-04
0.000000e+00
1.021012e-05
1.946622e-05
2.804804e-05
3.963631e-05
4.990539e-05
5.923886e-05
6.944757e-05
7.914604e-05
8.803245e-05
9.710072e-05
1.053639e-04
1.103885e-04
1.115350e-04
1.114668e-04
1.143714e-04
1.190578e-04
0.000000e+00
8.166383e-06
1.466088e-05
2.046921e-05
2.844299e-05
3.523734e-05
4.134370e-05
4.799345e-05
5.410892e-05
5.948203e-05
6.450694e-05
6.843991e-05
7.015265e-05
6.975331e-05
6.962544e-05
7.237531e-05
7.703219e-05
0.000000e+00
4.261460e-06
6.955011e-06
1.055150e-05
1.419447e-05
1.730537e-05
2.054317e-05
2.361378e-05
2.630530e-05
2.859728e-05
3.018624e-05
3.094995e-05
3.097456e-05
3.104184e-05
3.189076e-05
3.461198e-05
3.880731e-05
0.000000e+00
-3.451579e-08
-7.860968e-08
-1.300672e-07
-1.911574e-07
-2.613474e-07
-3.414649e-07
-4.547150e-07
-6.366781e-07
-9.733561e-07
-1.638950e-06
-2.582058e-06
-3.480694e-06
-3.723806e-06
-2.826382e-06
-1.158083e-06
1.187388e-06
0.000000e+00
-4.320030e-06
-7.081898e-06
-1.077395e-05
-1.452631e-05
-1.774110e-05
-2.111394e-05
-2.433013e-05
-2.714450e-05
-2.974854e-05
-3.200163e-05
-3.381306e-05
-3.523601e-05
-3.605250e-05
-3.647231e-05
-3.657080e-05
-3.593360e-05
0.000000e+00
-8.181505e-06
-1.471509e-05
-2.059818e-05
-2.863699e-05
-3.551565e-05
-4.175497e-05
-4.839926e-05
-5.441590e-05
-5.979727e-05
-6.439486e-05
-6.731469e-05
-6.893252e-05
-7.012871e-05
-7.109377e-05
-7.177374e-05
-7.188294e-05
0.000000e+00
-1.019330e-05
-1.944905e-05
-2.805425e-05
-3.963991e-05
-4.992197e-05
-5.934820e-05
-6.947782e-05
-7.904076e-05
-8.816695e-05
-9.659886e-05
-1.023179e-04
-1.051618e-04
-1.067670e-04
-1.077477e-04
-1.082351e-04
-1.083608e-04
0.000000e+00
-1.384484e-05
-2.423968e-05
-3.584876e-05
-5.016416e-05
-6.318260e-05
-7.597273e-05
-8.928900e-05
-1.019524e-04
-1.145512e-04
-1.268325e-04
-1.362219e-04
-1.418869e-04
-1.446378e-04
-1.455794e-04
-1.456878e-04
-1.456454e-04
0.000000e+00
1.167385e-05
1.923836e-05
3.027507e-05
4.473442e-05
6.080214e-05
8.078528e-05
1.047605e-04
1.315334e-04
1.617330e-04
1.956098e-04
2.319956e-04
2.699862e-04
3.110206e-04
3.590393e-04
4.141089e-04
4.697164e-04
0.000000e+00
6.645621e-06
1.493359e-05
2.454606e-05
3.849749e-05
5.516286e-05
7.504221e-05
9.890556e-05
1.260495e-04
1.563993e-04
1.903453e-04
2.276396e-04
2.674995e-04
3.098128e-04
3.559742e-04
4.084998e-04
4.624163e-04
0.000000e+00
3.290202e-06
1.092628e-05
2.018139e-05
3.357410e-05
5.074209e-05
7.087461e-05
9.467322e-05
1.221665e-04
1.528559e-04
1.870567e-04
2.250614e-04
2.661997e-04
3.091815e-04
3.520974e-04
4.008392e-04
4.526510e-04
0.000000e+00
2.054877e-06
8.828375e-06
1.828657e-05
3.160700e-05
4.882800e-05
6.917119e-05
9.309529e-05
1.207276e-04
1.517426e-04
1.862208e-04
2.242303e-04
2.655884e-04
3.082911e-04
3.489910e-04
3.931871e-04
4.412073e-04
0.000000e+00
1.711370e-06
8.201538e-06
1.770487e-05
3.110943e-05
4.821937e-05
6.864026e-05
9.266817e-05
1.203444e-04
1.515783e-04
1.862947e-04
2.242073e-04
2.653093e-04
3.079594e-04
3.478754e-04
3.884069e-04
4.316405e-04
0.000000e+00
2.079369e-06
8.852564e-06
1.830603e-05
3.160345e-05
4.876598e-05
6.908324e-05
9.300624e-05
1.206272e-04
1.519200e-04
1.869451e-04
2.250897e-04
2.660057e-04
3.079931e-04
3.482694e-04
3.872546e-04
4.262868e-04
0.000000e+00
3.327090e-06
1.096657e-05
2.022121e-05
3.357534e-05
5.064344e-05
7.073362e-05
9.448907e-05
1.219250e-04
1.531420e-04
1.883997e-04
2.268246e-04
2.673158e-04
3.084440e-04
3.483620e-04
3.868842e-04
4.243350e-04
0.000000e+00
6.684544e-06
1.499157e-05
2.460525e-05
3.851898e-05
5.509384e-05
7.489089e-05
9.865691e-05
1.257746e-04
1.566550e-04
1.915388e-04
2.291962e-04
2.685986e-04
3.088534e-04
3.483440e-04
3.866655e-04
4.240298e-04
0.000000e+00
1.171001e-05
1.930224e-05
3.034443e-05
4.476293e-05
6.076484e-05
8.065867e-05
1.044756e-04
1.313121e-04
1.620299e-04
1.961380e-04
2.320587e-04
2.699514e-04
3.092851e-04
3.484177e-04
3.865969e-04
4.240612e-04


2.958208e+00
2.832338e+00
2.888198e+00
2.849365e+00
2.861465e+00
3.114980e+00
3.354639e+00
3.667595e+00
4.113527e+00
4.691413e+00
5.509403e+00
6.436786e+00
7.086375e+00
7.010487e+00
6.013695e+00
5.032934e+00
4.685107e+00
4.560608e+00
4.536638e+00
4.477454e+00
4.446378e+00
4.604844e+00
4.756840e+00
4.954610e+00
5.249379e+00
5.634941e+00
6.180285e+00
6.802349e+00
7.198899e+00
6.872075e+00
5.640899e+00
4.425615e+00
6.657225e+00
6.588533e+00
6.554819e+00
6.478204e+00
6.443327e+00
6.496989e+00
6.535005e+00
6.592945e+00
6.687636e+00
6.805018e+00
6.978161e+00
7.185270e+00
7.275605e+00
6.844712e+00
5.693222e+00
4.669438e+00
7.587516e+00
7.559127e+00
7.537195e+00
7.482365e+00
7.461193e+00
7.459933e+00
7.442551e+00
7.420743e+00
7.390321e+00
7.337347e+00
7.272161e+00
7.222429e+00
7.181240e+00
6.935898e+00
6.355535e+00
5.849782e+00
7.586762e+00
7.557384e+00
7.534032e+00
7.477182e+00
7.452875e+00
7.447170e+00
7.421957e+00
7.382396e+00
7.324334e+00
7.243621e+00
7.148978e+00
7.078417e+00
7.086213e+00
7.099499e+00
7.023345e+00
6.926846e+00
6.654323e+00
6.582474e+00
6.543690e+00
6.460234e+00
6.415205e+00
6.457598e+00
6.475823e+00
6.488820e+00
6.539601e+00
6.651454e+00
6.810824e+00
6.974717e+00
7.151106e+00
7.333639e+00
7.465041e+00
7.525725e+00
4.681471e+00
4.552440e+00
4.522585e+00
4.455126e+00
4.412410e+00
4.564048e+00
4.702770e+00
4.868216e+00
5.192630e+00
5.717194e+00
6.355484e+00
6.910891e+00
7.295952e+00
7.553603e+00
7.713304e+00
7.785480e+00
2.956227e+00
2.826759e+00
2.878964e+00
2.836011e+00
2.841945e+00
3.100219e+00
3.348361e+00
3.665393e+00
4.226220e+00
5.082311e+00
6.075543e+00
6.892968e+00
7.399542e+00
7.676103e+00
7.817640e+00
7.876333e+00


-6.383758e-01
-2.178617e-01
-2.625417e-01
-2.719001e-01
-1.658219e-01
-2.176486e-01
-2.105102e-01
-1.814186e-01
-1.864508e-01
-1.899082e-01
-2.305813e-01
-2.819767e-01
-2.208314e-01
4.133044e-02
4.778039e-01
-7.199184e-01
5.602879e-01
4.190340e-01
3.227561e-01
2.575158e-01
3.017030e-01
2.583672e-01
2.468134e-01
2.537418e-01
2.475886e-01
2.586936e-01
2.863382e-01
3.608522e-01
5.364625e-01
7.771881e-01
7.381250e-01
-1.196368e+00
8.081776e-01
6.464032e-01
4.789349e-01
4.216349e-01
4.107389e-01
3.793494e-01
3.730518e-01
3.754131e-01
3.800733e-01
4.020820e-01
4.406565e-01
4.913103e-01
5.120895e-01
3.957374e-01
1.432669e-01
-3.071136e-01
8.506654e-01
7.124218e-01
5.353966e-01
4.448697e-01
3.983502e-01
3.757595e-01
3.717724e-01
3.748266e-01
3.775232e-01
3.713402e-01
3.420563e-01
2.681363e-01
1.126991e-01
-9.955171e-02
-1.000284e-01
2.602756e-02
8.516559e-01
7.136127e-01
5.363937e-01
4.435477e-01
3.927888e-01
3.619377e-01
3.440235e-01
3.278976e-01
3.014801e-01
2.475239e-01
1.550350e-01
2.807312e-02
-1.068537e-01
-1.407323e-01
6.961237e-02
4.430755e-01
8.104878e-01
6.493668e-01
4.817936e-01
4.207535e-01
4.023187e-01
3.548951e-01
3.206090e-01
2.841428e-01
2.233095e-01
1.346541e-01
3.252976e-02
-3.799635e-02
-2.148015e-02
1.429480e-01
4.569521e-01
8.055345e-01
5.617954e-01
4.211518e-01
3.243773e-01
2.577394e-01
2.999816e-01
2.475660e-01
2.201070e-01
2.117400e-01
1.638263e-01
8.931677e-02
4.025982e-02
9.447381e-02
2.673405e-01
5.219494e-01
7.899831e-01
9.653164e-01
-6.410012e-01
-2.191851e-01
-2.649450e-01
-2.742650e-01
-1.625104e-01
-2.127720e-01
-2.015902e-01
-1.428331e-01
-1.291229e-01
-1.300525e-01
-4.302249e-02
2.222299e-01
5.693560e-01
8.354795e-01
9.671653e-01
9.993388e-01
1 2 19 18
2 3 20 19
3 4 21 20
4 5 22 21
5 6 23 22
6 7 24 23
7 8 25 24
8 9 26 25
9 10 27 26
10 11 28 27
11 12 29 28
12 13 30 29
13 14 31 30
14 15 32 31
15 16 33 32
16 17 34 33
18 19 36 35
19 20 37 36
20 21 38 37
21 22 39 38
22 23 40 39
23 24 41 40
24 25 42 41
25 26 43 42
26 27 44 43
27 28 45 44
28 29 46 45
29 30 47 46
30 31 48 47
31 32 49 48
32 33 50 49
33 34 51 50
35 36 53 52
36 37 54 53
37 38 55 54
38 39 56 55
39 40 57 56
40 41 58 57
41 42 59 58
42 43 60 59
43 44 61 60
44 45 62 61
45 46 63 62
46 47 64 63
47 48 65 64
48 49 66 65
49 50 67 66
50 51 68 67
52 53 70 69
53 54 71 70
54 55 72 71
55 56 73 72
56 57 74 73
57 58 75 74
58 59 76 75
59 60 77 76
60 61 78 77
61 62 79 78
62 63 80 79
63 64 81 80
64 65 82 81
65 66 83 82
66 67 84 83
67 68 85 84
69 70 87 86
70 71 88 87
71 72 89 88
72 73 90 89
73 74 91 90
74 75 92 91
75 76 93 92
76 77 94 93
77 78 95 94
78 79 96 95
79 80 97 96
80 81 98 97
81 82 99 98
82 83 100 99
83 84 101 100
84 85 102 101
86 87 104 103
87 88 105 104
88 89 106 105
89 90 107 106
90 91 108 107
91 92 109 108
92 93 110 109
93 94 111 110
94 95 112 111
95 96 113 112
96 97 114 113
97 98 115 114
98 99 116 115
99 100 117 116
100 101 118 117
101 102 119 118
103 104 121 120
104 105 122 121
105 106 123 122
106 107 124 123
107 108 125 124
108 109 126 125
109 110 127 126
110 111 128 127
111 112 129 128
112 113 130 129
113 114 131 130
114 115 132 131
115 116 133 132
116 117 134 133
117 118 135 134
118 119 136 135
120 121 138 137
121 122 139 138
122 123 140 139
123 124 141 140
124 125 142 141
125 126 143 142
126 127 144 143
127 128 145 144
128 129 146 145
129 130 147 146
130 131 148 147
131 132 149 148
132 133 150 149
133 134 151 150
134 135 152 151
135 136 153 152
