TITLE = "Solution"
VARIABLES = x, y, u, v, psiu, psiv, t, stress
ZONE T="structure" N=153 E=128 F=FEBLOCK ET=QUADRILATERAL VARLOCATION=([7,8]=cellcentered)
0.000000e+00
1.250000e+01
2.500000e+01
3.750000e+01
5.000000e+01
6.250000e+01
7.500000e+01
8.750000e+01
1.000000e+02
1.125000e+02
1.250000e+02
1.375000e+02
1.500000e+02
1.625000e+02
1.750000e+02
1.875000e+02
2.000000e+02
0.000000e+00
1.250000e+01
2.500000e+01
3.750000e+01
5.000000e+01
6.250000e+01
7.500000e+01
8.750000e+01
1.000000e+02
1.125000e+02
1.250000e+02
1.375000e+02
1.500000e+02
1.625000e+02
1.750000e+02
1.875000e+02
2.000000e+02
0.000000e+00
1.250000e+01
2.500000e+01
3.750000e+01
5.000000e+01
6.250000e+01
7.500000e+01
8.750000e+01
1.000000e+02
1.125000e+02
1.250000e+02
1.375000e+02
1.500000e+02
1.625000e+02
1.750000e+02
1.875000e+02
2.000000e+02
0.000000e+00
1.250000e+01
2.500000e+01
3.750000e+01
5.000000e+01
6.250000e+01
7.500000e+01
8.750000e+01
1.000000e+02
1.125000e+02
1.250000e+02
1.375000e+02
1.500000e+02
1.625000e+02
1.750000e+02
1.875000e+02
2.000000e+02
0.000000e+00
1.250000e+01
2.500000e+01
3.750000e+01
5.000000e+01
6.250000e+01
7.500000e+01
8.750000e+01
1.000000e+02
1.125000e+02
1.250000e+02
1.375000e+02
1.500000e+02
1.625000e+02
1.750000e+02
1.875000e+02
2.000000e+02
0.000000e+00
1.250000e+01
2.500000e+01
3.750000e+01
5.000000e+01
6.250000e+01
7.500000e+01
8.750000e+01
1.000000e+02
1.125000e+02
1.250000e+02
1.375000e+02
1.500000e+02
1.625000e+02
1.750000e+02
1.875000e+02
2.000000e+02
0.000000e+00
1.250000e+01
2.500000e+01
3.750000e+01
5.000000e+01
6.250000e+01
7.500000e+01
8.750000e+01
1.000000e+02
1.125000e+02
1.250000e+02
1.375000e+02
1.500000e+02
1.625000e+02
1.750000e+02
1.875000e+02
2.000000e+02
0.000000e+00
1.250000e+01
2.500000e+01
3.750000e+01
5.000000e+01
6.250000e+01
7.500000e+01
8.750000e+01
1.000000e+02
1.125000e+02
1.250000e+02
1.375000e+02
1.500000e+02
1.625000e+02
1.750000e+02
1.875000e+02
2.000000e+02
0.000000e+00
1.250000e+01
2.500000e+01
3.750000e+01
5.000000e+01
6.250000e+01
7.500000e+01
8.750000e+01
1.000000e+02
1.125000e+02
1.250000e+02
1.375000e+02
1.500000e+02
1.625000e+02
1.750000e+02
1.875000e+02
2.000000e+02
0.000000e+00
0.000000e+00
0.000000e+00
0.000000e+00
0.000000e+00
0.000000e+00
0.000000e+00
0.000000e+00
0.000000e+00
0.000000e+00
0.000000e+00
0.000000e+00
0.000000e+00
0.000000e+00
0.000000e+00
0.000000e+00
0.000000e+00
1.250000e+01
1.250000e+01
1.250000e+01
1.250000e+01
1.250000e+01
1.250000e+01
1.250000e+01
1.250000e+01
1.250000e+01
1.250000e+01
1.250000e+01
1.250000e+01
1.250000e+01
1.250000e+01
1.250000e+01
1.250000e+01
1.250000e+01
2.500000e+01
2.500000e+01
2.500000e+01
2.500000e+01
2.500000e+01
2.500000e+01
2.500000e+01
2.500000e+01
2.500000e+01
2.500000e+01
2.500000e+01
2.500000e+01
2.500000e+01
2.500000e+01
2.500000e+01
2.500000e+01
2.500000e+01
3.750000e+01
3.750000e+01
3.750000e+01
3.750000e+01
3.750000e+01
3.750000e+01
3.750000e+01
3.750000e+01
3.750000e+01
3.750000e+01
3.750000e+01
3.750000e+01
3.750000e+01
3.750000e+01
3.750000e+01
3.750000e+01
3.750000e+01
5.000000e+01
5.000000e+01
5.000000e+01
5.000000e+01
5.000000e+01
5.000000e+01
5.000000e+01
5.000000e+01
5.000000e+01
5.000000e+01
5.000000e+01
5.000000e+01
5.000000e+01
5.000000e+01
5.000000e+01
5.000000e+01
5.000000e+01
6.250000e+01
6.250000e+01
6.250000e+01
6.250000e+01
6.250000e+01
6.250000e+01
6.250000e+01
6.250000e+01
6.250000e+01
6.250000e+01
6.250000e+01
6.250000e+01
6.250000e+01
6.250000e+01
6.250000e+01
6.250000e+01
6.250000e+01
7.500000e+01
7.500000e+01
7.500000e+01
7.500000e+01
7.500000e+01
7.500000e+01
7.500000e+01
7.500000e+01
7.500000e+01
7.500000e+01
7.500000e+01
7.500000e+01
7.500000e+01
7.500000e+01
7.500000e+01
7.500000e+01
7.500000e+01
8.750000e+01
8.750000e+01
8.750000e+01
8.750000e+01
8.750000e+01
8.750000e+01
8.750000e+01
8.750000e+01
8.750000e+01
8.750000e+01
8.750000e+01
8.750000e+01
8.750000e+01
8.750000e+01
8.750000e+01
8.750000e+01
8.750000e+01
1.000000e+02
1.000000e+02
1.000000e+02
1.000000e+02
1.000000e+02
1.000000e+02
1.000000e+02
1.000000e+02
1.000000e+02
1.000000e+02
1.000000e+02
1.000000e+02
1.000000e+02
1.000000e+02
1.000000e+02
1.000000e+02
1.000000e+02
0.000000e+00
-9.950689e-01
-1.679940e+00
-2.432653e+00
-3.118122e+00
-3.754791e+00
-4.466094e+00
-5.095180e+00
-5.778666e+00
-6.439610e+00
-7.006597e+00
-7.617455e+00
-8.211772e+00
-8.920039e+00
-9.830510e+00
-1.059423e+01
-1.104766e+01
0.000000e+00
-4.453995e-01
-9.068290e-01
-1.419367e+00
-1.929989e+00
-2.411272e+00
-2.929140e+00
-3.419527e+00
-3.928298e+00
-4.432306e+00
-4.876737e+00
-5.322034e+00
-5.767876e+00
-6.242157e+00
-6.712292e+00
-6.840694e+00
-7.019915e+00
0.000000e+00
-1.457924e-01
-3.483869e-01
-6.384155e-01
-9.751645e-01
-1.299416e+00
-1.652608e+00
-2.002438e+00
-2.345832e+00
-2.692582e+00
-3.003437e+00
-3.301532e+00
-3.579289e+00
-3.798951e+00
-3.906559e+00
-3.905094e+00
-4.051941e+00
0.000000e+00
-7.846137e-02
-1.609722e-01
-3.070399e-01
-4.503922e-01
-6.212418e-01
-8.031649e-01
-9.635645e-01
-1.139741e+00
-1.296062e+00
-1.438855e+00
-1.570689e+00
-1.653530e+00
-1.659298e+00
-1.580534e+00
-1.556768e+00
-1.671315e+00
0.000000e+00
-2.863977e-03
-6.103206e-03
-8.869734e-03
-1.065525e-02
-1.003852e-02
-5.107583e-03
4.490822e-03
1.985662e-02
4.029748e-02
6.129770e-02
1.029944e-01
1.827571e-01
2.956869e-01
4.138606e-01
4.608508e-01
3.657481e-01
0.000000e+00
7.336856e-02
1.508901e-01
2.909850e-01
4.301166e-01
6.014850e-01
7.892077e-01
9.681385e-01
1.179551e+00
1.372907e+00
1.585287e+00
1.793989e+00
2.010771e+00
2.213652e+00
2.344603e+00
2.376393e+00
2.313475e+00
0.000000e+00
1.436880e-01
3.435302e-01
6.289322e-01
9.611680e-01
1.281377e+00
1.632231e+00
1.994577e+00
2.361459e+00
2.771665e+00
3.156359e+00
3.515321e+00
3.836915e+00
4.105599e+00
4.277439e+00
4.329090e+00
4.305438e+00
0.000000e+00
4.460028e-01
9.080715e-01
1.419560e+00
1.929741e+00
2.408529e+00
2.916890e+00
3.409368e+00
3.895155e+00
4.384470e+00
4.861388e+00
5.331645e+00
5.747247e+00
6.085984e+00
6.296160e+00
6.389713e+00
6.407300e+00
0.000000e+00
9.970312e-01
1.685629e+00
2.442585e+00
3.132877e+00
3.774290e+00
4.479830e+00
5.100910e+00
5.740358e+00
6.313911e+00
6.868440e+00
7.454611e+00
7.968672e+00
8.372750e+00
8.569197e+00
8.620882e+00
8.621540e+00
0.000000e+00
-6.184296e-01
-1.361944e+00
-2.363671e+00
-3.538859e+00
-4.885767e+00
-6.419613e+00
-8.111273e+00
-9.983968e+00
-1.201240e+01
-1.417607e+01
-1.650312e+01
-1.898560e+01
-2.167524e+01
-2.460614e+01
-2.791172e+01
-3.288253e+01
0.000000e+00
-4.153632e-01
-1.193325e+00
-2.177653e+00
-3.369653e+00
-4.710268e+00
-6.243407e+00
-7.940762e+00
-9.804598e+00
-1.185185e+01
-1.402508e+01
-1.634798e+01
-1.882890e+01
-2.149118e+01
-2.446582e+01
-2.783014e+01
-3.182035e+01
0.000000e+00
-3.898389e-01
-1.091700e+00
-2.074559e+00
-3.250647e+00
-4.584062e+00
-6.125500e+00
-7.811430e+00
-9.685642e+00
-1.173881e+01
-1.391932e+01
-1.625924e+01
-1.874411e+01
-2.143098e+01
-2.445645e+01
-2.768507e+01
-3.065979e+01
0.000000e+00
-4.491041e-01
-1.088680e+00
-2.049087e+00
-3.188962e+00
-4.516275e+00
-6.063673e+00
-7.742792e+00
-9.630995e+00
-1.168469e+01
-1.387908e+01
-1.624554e+01
-1.875136e+01
-2.144434e+01
-2.438379e+01
-2.738200e+01
-2.996036e+01
0.000000e+00
-4.563823e-01
-1.111572e+00
-2.034424e+00
-3.176241e+00
-4.508128e+00
-6.043758e+00
-7.745209e+00
-9.630246e+00
-1.168804e+01
-1.391028e+01
-1.627246e+01
-1.879250e+01
-2.144743e+01
-2.422779e+01
-2.700914e+01
-2.936096e+01
0.000000e+00
-4.479186e-01
-1.088921e+00
-2.052715e+00
-3.198579e+00
-4.536832e+00
-6.095905e+00
-7.788725e+00
-9.696393e+00
-1.175051e+01
-1.397721e+01
-1.632276e+01
-1.881781e+01
-2.143816e+01
-2.409669e+01
-2.668554e+01
-2.892790e+01
0.000000e+00
-3.881002e-01
-1.092119e+00
-2.080102e+00
-3.266962e+00
-4.619800e+00
-6.181566e+00
-7.903756e+00
-9.805499e+00
-1.186725e+01
-1.406031e+01
-1.638840e+01
-1.885315e+01
-2.143479e+01
-2.401948e+01
-2.648601e+01
-2.870081e+01
0.000000e+00
-4.136912e-01
-1.193447e+00
-2.183272e+00
-3.387241e+00
-4.747994e+00
-6.308756e+00
-8.046649e+00
-9.944697e+00
-1.200573e+01
-1.417311e+01
-1.648422e+01
-1.892624e+01
-2.147187e+01
-2.399820e+01
-2.640202e+01
-2.864021e+01
0.000000e+00
-6.174854e-01
-1.362656e+00
-2.370078e+00
-3.557363e+00
-4.922990e+00
-6.486304e+00
-8.213390e+00
-1.011477e+01
-1.215937e+01
-1.432413e+01
-1.662860e+01
-1.904612e+01
-2.155090e+01
-2.402217e+01
-2.638790e+01
-2.863880e+01


0.000000e+00
1.530079e-05
2.476744e-05
3.674833e-05
5.223663e-05
6.514355e-05
8.068948e-05
9.485265e-05
1.104732e-04
1.247757e-04
1.388957e-04
1.513249e-04
1.634343e-04
1.796401e-04
1.923951e-04
1.987825e-04
2.059352e-04
0.000000e+00
1.151561e-05
1.987578e-05
2.869654e-05
4.152196e-05
5.252678e-05
6.297167e-05
7.461235e-05
8.486299e-05
9.499765e-05
1.042468e-04
1.116882e-04
1.189549e-04
1.290608e-04
1.343951e-04
1.383325e-04
1.441022e-04
0.000000e+00
9.836723e-06
1.574559e-05
2.166530e-05
3.132054e-05
3.888988e-05
4.520798e-05
5.307338e-05
5.859917e-05
6.410405e-05
6.876371e-05
7.190250e-05
7.421295e-05
7.693955e-05
7.807555e-05
8.069804e-05
8.499699e-05
0.000000e+00
5.529945e-06
7.708388e-06
1.151649e-05
1.656137e-05
1.915099e-05
2.372487e-05
2.590493e-05
2.848160e-05
2.881393e-05
2.994458e-05
2.875979e-05
2.672436e-05
2.546151e-05
2.559485e-05
2.920447e-05
3.478990e-05
0.000000e+00
-6.599872e-08
-1.682530e-07
-2.535034e-07
-3.635533e-07
-3.488588e-07
-4.603628e-07
-1.031412e-06
-2.404311e-06
-4.710471e-06
-7.936992e-06
-1.154914e-05
-1.423063e-05
-1.554728e-05
-1.517412e-05
-1.295783e-05
-8.876578e-06
0.000000e+00
-5.616795e-06
-7.974740e-06
-1.218231e-05
-1.764682e-05
-2.068693e-05
-2.566454e-05
-2.830933e-05
-3.224147e-05
-3.459502e-05
-3.822729e-05
-4.212184e-05
-4.597933e-05
-4.757475e-05
-4.846635e-05
-4.898653e-05
-4.748949e-05
0.000000e+00
-9.771009e-06
-1.576368e-05
-2.195293e-05
-3.209804e-05
-4.026674e-05
-4.705041e-05
-5.478998e-05
-5.995236e-05
-6.501352e-05
-6.923991e-05
-7.372032e-05
-7.733996e-05
-8.038647e-05
-8.258894e-05
-8.451392e-05
-8.514535e-05
0.000000e+00
-1.142982e-05
-1.978338e-05
-2.861230e-05
-4.143810e-05
-5.253892e-05
-6.293809e-05
-7.442747e-05
-8.443787e-05
-9.467527e-05
-1.045739e-04
-1.126082e-04
-1.173276e-04
-1.219029e-04
-1.250571e-04
-1.262659e-04
-1.264357e-04
0.000000e+00
-1.536435e-05
-2.478269e-05
-3.655007e-05
-5.164597e-05
-6.413903e-05
-7.915102e-05
-9.299708e-05
-1.084892e-04
-1.232698e-04
-1.404711e-04
-1.552919e-04
-1.639701e-04
-1.688123e-04
-1.707818e-04
-1.708787e-04
-1.706795e-04
0.000000e+00
1.263413e-05
1.984328e-05
3.176381e-05
4.686581e-05
6.266907e-05
8.347122e-05
1.077072e-04
1.361865e-04
1.693847e-04
2.074668e-04
2.497384e-04
2.982641e-04
3.541750e-04
4.155230e-04
4.839642e-04
5.558360e-04
0.000000e+00
7.715661e-06
1.595915e-05
2.568293e-05
4.046491e-05
5.680900e-05
7.700523e-05
1.016192e-04
1.299324e-04
1.636900e-04
2.021576e-04
2.452265e-04
2.930889e-04
3.482438e-04
4.093946e-04
4.763321e-04
5.453220e-04
0.000000e+00
4.245180e-06
1.195926e-05
2.083851e-05
3.461836e-05
5.195456e-05
7.195308e-05
9.668133e-05
1.253365e-04
1.591726e-04
1.985012e-04
2.420311e-04
2.903126e-04
3.460376e-04
4.047094e-04
4.689522e-04
5.355965e-04
0.000000e+00
2.862279e-06
9.815665e-06
1.865493e-05
3.262026e-05
4.992279e-05
7.041485e-05
9.456798e-05
1.235162e-04
1.571723e-04
1.968263e-04
2.411445e-04
2.905891e-04
3.458391e-04
4.020841e-04
4.610097e-04
5.217855e-04
0.000000e+00
2.331640e-06
9.191860e-06
1.817448e-05
3.223255e-05
4.953314e-05
6.980023e-05
9.378351e-05
1.224464e-04
1.563603e-04
1.959025e-04
2.415508e-04
2.918009e-04
3.469183e-04
4.012588e-04
4.541314e-04
5.056955e-04
0.000000e+00
2.980125e-06
9.969425e-06
1.886947e-05
3.288612e-05
4.996725e-05
6.996801e-05
9.346079e-05
1.223672e-04
1.560934e-04
1.965523e-04
2.435982e-04
2.943731e-04
3.474670e-04
4.014645e-04
4.516338e-04
4.948229e-04
0.000000e+00
4.411070e-06
1.227659e-05
2.128975e-05
3.503044e-05
5.193191e-05
7.114367e-05
9.496000e-05
1.232497e-04
1.574392e-04
1.984886e-04
2.468013e-04
2.976079e-04
3.490389e-04
4.007662e-04
4.493392e-04
4.914028e-04
0.000000e+00
7.870325e-06
1.634042e-05
2.625080e-05
4.095193e-05
5.685549e-05
7.618595e-05
9.988624e-05
1.276649e-04
1.616944e-04
2.024154e-04
2.501753e-04
3.003288e-04
3.507787e-04
4.006418e-04
4.477771e-04
4.916645e-04
0.000000e+00
1.278634e-05
2.022504e-05
3.231098e-05
4.733723e-05
6.270653e-05
8.269990e-05
1.060451e-04
1.340756e-04
1.677922e-04
2.088189e-04
2.541076e-04
3.023232e-04
3.518401e-04
4.008341e-04
4.473713e-04
4.919150e-04


5.640385e+00
6.126007e+00
6.864446e+00
5.931901e+00
5.714849e+00
6.456808e+00
5.995072e+00
5.746052e+00
5.718218e+00
6.308908e+00
7.413072e+00
7.649473e+00
8.786073e+00
9.755190e+00
9.125087e+00
7.978751e+00
8.070330e+00
8.455346e+00
8.662134e+00
8.358084e+00
8.226043e+00
8.496876e+00
8.447552e+00
8.186373e+00
8.183400e+00
8.555195e+00
8.828722e+00
9.128636e+00
9.408603e+00
9.810288e+00
8.413269e+00
6.410742e+00
9.841398e+00
9.824380e+00
9.999923e+00
9.837833e+00
9.836656e+00
9.967360e+00
9.836800e+00
9.893485e+00
9.871292e+00
9.845753e+00
9.998773e+00
9.858140e+00
9.914962e+00
9.589432e+00
8.284295e+00
6.356000e+00
9.999981e+00
9.999966e+00
9.999925e+00
9.999856e+00
9.999802e+00
9.999864e+00
9.999901e+00
9.999921e+00
9.999963e+00
9.999683e+00
1.000000e+01
9.578552e+00
8.991402e+00
8.710005e+00
8.499821e+00
8.245101e+00
9.999979e+00
9.999961e+00
9.999921e+00
9.999879e+00
9.999874e+00
9.999923e+00
9.999957e+00
9.999973e+00
9.999987e+00
9.939954e+00
9.328283e+00
8.684996e+00
7.894391e+00
7.968782e+00
8.893981e+00
9.391520e+00
9.840480e+00
9.824383e+00
9.999956e+00
9.837688e+00
9.837538e+00
9.929340e+00
9.836798e+00
9.940229e+00
9.611577e+00
8.959765e+00
8.314111e+00
7.896340e+00
8.299624e+00
8.789140e+00
9.440575e+00
9.988891e+00
8.064767e+00
8.452707e+00
8.660775e+00
8.358343e+00
8.075297e+00
8.265124e+00
8.480659e+00
8.310070e+00
8.002365e+00
7.464182e+00
7.458414e+00
8.461839e+00
9.315739e+00
9.865956e+00
9.999997e+00
9.999793e+00
5.626662e+00
6.120027e+00
6.861340e+00
5.878533e+00
5.405149e+00
5.946526e+00
6.029144e+00
6.284830e+00
5.965038e+00
6.246390e+00
7.778551e+00
9.066501e+00
9.999910e+00
9.999950e+00
9.999988e+00
9.999999e+00


-8.153772e-01
-1.727497e-01
-3.983731e-01
-2.552232e-01
-1.021838e-01
-3.217944e-01
-1.084841e-01
-2.518878e-01
-1.963800e-01
9.026092e-02
1.303142e-02
3.819209e-02
-2.324740e-01
-6.242569e-01
3.048259e-01
-8.740764e-01
6.119304e-01
4.804532e-01
2.965402e-01
2.295072e-01
2.910414e-01
1.625127e-01
2.026847e-01
1.589363e-01
1.424874e-01
2.931665e-01
2.974126e-01
3.330284e-01
3.950436e-01
5.051012e-01
6.886898e-01
-8.912058e-01
7.235823e-01
4.714444e-01
5.827931e-02
-1.686262e-02
-3.176739e-02
-1.861701e-01
-6.583609e-02
-1.197389e-01
-8.857795e-02
5.380858e-02
7.703446e-02
2.041358e-01
2.889508e-01
1.276375e-01
-5.069432e-02
-1.242142e-01
7.281421e-01
5.549328e-01
1.906165e-01
6.098816e-02
-2.394327e-02
-1.091371e-01
-2.647751e-02
-6.838803e-02
-2.436540e-02
2.098242e-02
5.528078e-02
1.077769e-01
5.263268e-02
-2.668804e-01
-4.487204e-01
-9.482513e-02
7.306583e-01
5.575381e-01
1.939327e-01
5.834746e-02
-3.759409e-02
-1.371237e-01
-7.014592e-02
-1.271880e-01
-6.261981e-02
-3.589669e-02
7.843794e-02
5.948900e-02
1.334864e-02
-4.955479e-02
-7.889813e-02
3.107497e-01
7.297164e-01
4.789479e-01
6.944971e-02
-1.530414e-02
-5.819592e-02
-2.412732e-01
-1.878273e-01
-2.956504e-01
-2.404783e-01
-1.283699e-01
-1.393663e-02
-1.417084e-02
-3.514971e-02
1.377839e-01
3.988419e-01
7.452613e-01
6.157780e-01
4.851069e-01
3.064972e-01
2.363030e-01
2.935535e-01
1.624078e-01
1.351764e-01
7.733768e-02
-7.606396e-02
-6.459017e-02
-7.063424e-02
6.636791e-04
9.993417e-02
4.012480e-01
7.296147e-01
9.500711e-01
-8.201079e-01
-1.811748e-01
-4.051194e-01
-2.644556e-01
-1.066564e-01
-2.930956e-01
-1.017628e-01
-1.293088e-01
-2.842761e-02
1.459690e-02
-5.501467e-02
1.495564e-01
4.120249e-01
7.845291e-01
9.553348e-01
9.987527e-01
1 2 19 18
2 3 20 19
3 4 21 20
4 5 22 21
5 6 23 22
6 7 24 23
7 8 25 24
8 9 26 25
9 10 27 26
10 11 28 27
11 12 29 28
12 13 30 29
13 14 31 30
14 15 32 31
15 16 33 32
16 17 34 33
18 19 36 35
19 20 37 36
20 21 38 37
21 22 39 38
22 23 40 39
23 24 41 40
24 25 42 41
25 26 43 42
26 27 44 43
27 28 45 44
28 29 46 45
29 30 47 46
30 31 48 47
31 32 49 48
32 33 50 49
33 34 51 50
35 36 53 52
36 37 54 53
37 38 55 54
38 39 56 55
39 40 57 56
40 41 58 57
41 42 59 58
42 43 60 59
43 44 61 60
44 45 62 61
45 46 63 62
46 47 64 63
47 48 65 64
48 49 66 65
49 50 67 66
50 51 68 67
52 53 70 69
53 54 71 70
54 55 72 71
55 56 73 72
56 57 74 73
57 58 75 74
58 59 76 75
59 60 77 76
60 61 78 77
61 62 79 78
62 63 80 79
63 64 81 80
64 65 82 81
65 66 83 82
66 67 84 83
67 68 85 84
69 70 87 86
70 71 88 87
71 72 89 88
72 73 90 89
73 74 91 90
74 75 92 91
75 76 93 92
76 77 94 93
77 78 95 94
78 79 96 95
79 80 97 96
80 81 98 97
81 82 99 98
82 83 100 99
83 84 101 100
84 85 102 101
86 87 104 103
87 88 105 104
88 89 106 105
89 90 107 106
90 91 108 107
91 92 109 108
92 93 110 109
93 94 111 110
94 95 112 111
95 96 113 112
96 97 114 113
97 98 115 114
98 99 116 115
99 100 117 116
100 101 118 117
101 102 119 118
103 104 121 120
104 105 122 121
105 106 123 122
106 107 124 123
107 108 125 124
108 109 126 125
109 110 127 126
110 111 128 127
111 112 129 128
112 113 130 129
113 114 131 130
114 115 132 131
115 116 133 132
116 117 134 133
117 118 135 134
118 119 136 135
120 121 138 137
121 122 139 138
122 123 140 139
123 124 141 140
124 125 142 141
125 126 143 142
126 127 144 143
127 128 145 144
128 129 146 145
129 130 147 146
130 131 148 147
131 132 149 148
132 133 150 149
133 134 151 150
134 135 152 151
135 136 153 152
