TITLE = "Solution"
VARIABLES = x, y, u, v, psiu, psiv, t, stress
ZONE T="structure" N=153 E=128 F=FEBLOCK ET=QUADRILATERAL VARLOCATION=([7,8]=cellcentered)
0.000000e+00
1.250000e+01
2.500000e+01
3.750000e+01
5.000000e+01
6.250000e+01
7.500000e+01
8.750000e+01
1.000000e+02
1.125000e+02
1.250000e+02
1.375000e+02
1.500000e+02
1.625000e+02
1.750000e+02
1.875000e+02
2.000000e+02
0.000000e+00
1.250000e+01
2.500000e+01
3.750000e+01
5.000000e+01
6.250000e+01
7.500000e+01
8.750000e+01
1.000000e+02
1.125000e+02
1.250000e+02
1.375000e+02
1.500000e+02
1.625000e+02
1.750000e+02
1.875000e+02
2.000000e+02
0.000000e+00
1.250000e+01
2.500000e+01
3.750000e+01
5.000000e+01
6.250000e+01
7.500000e+01
8.750000e+01
1.000000e+02
1.125000e+02
1.250000e+02
1.375000e+02
1.500000e+02
1.625000e+02
1.750000e+02
1.875000e+02
2.000000e+02
0.000000e+00
1.250000e+01
2.500000e+01
3.750000e+01
5.000000e+01
6.250000e+01
7.500000e+01
8.750000e+01
1.000000e+02
1.125000e+02
1.250000e+02
1.375000e+02
1.500000e+02
1.625000e+02
1.750000e+02
1.875000e+02
2.000000e+02
0.000000e+00
1.250000e+01
2.500000e+01
3.750000e+01
5.000000e+01
6.250000e+01
7.500000e+01
8.750000e+01
1.000000e+02
1.125000e+02
1.250000e+02
1.375000e+02
1.500000e+02
1.625000e+02
1.750000e+02
1.875000e+02
2.000000e+02
0.000000e+00
1.250000e+01
2.500000e+01
3.750000e+01
5.000000e+01
6.250000e+01
7.500000e+01
8.750000e+01
1.000000e+02
1.125000e+02
1.250000e+02
1.375000e+02
1.500000e+02
1.625000e+02
1.750000e+02
1.875000e+02
2.000000e+02
0.000000e+00
1.250000e+01
2.500000e+01
3.750000e+01
5.000000e+01
6.250000e+01
7.500000e+01
8.750000e+01
1.000000e+02
1.125000e+02
1.250000e+02
1.375000e+02
1.500000e+02
1.625000e+02
1.750000e+02
1.875000e+02
2.000000e+02
0.000000e+00
1.250000e+01
2.500000e+01
3.750000e+01
5.000000e+01
6.250000e+01
7.500000e+01
8.750000e+01
1.000000e+02
1.125000e+02
1.250000e+02
1.375000e+02
1.500000e+02
1.625000e+02
1.750000e+02
1.875000e+02
2.000000e+02
0.000000e+00
1.250000e+01
2.500000e+01
3.750000e+01
5.000000e+01
6.250000e+01
7.500000e+01
8.750000e+01
1.000000e+02
1.125000e+02
1.250000e+02
1.375000e+02
1.500000e+02
1.625000e+02
1.750000e+02
1.875000e+02
2.000000e+02
0.000000e+00
0.000000e+00
0.000000e+00
0.000000e+00
0.000000e+00
0.000000e+00
0.000000e+00
0.000000e+00
0.000000e+00
0.000000e+00
0.000000e+00
0.000000e+00
0.000000e+00
0.000000e+00
0.000000e+00
0.000000e+00
0.000000e+00
1.250000e+01
1.250000e+01
1.250000e+01
1.250000e+01
1.250000e+01
1.250000e+01
1.250000e+01
1.250000e+01
1.250000e+01
1.250000e+01
1.250000e+01
1.250000e+01
1.250000e+01
1.250000e+01
1.250000e+01
1.250000e+01
1.250000e+01
2.500000e+01
2.500000e+01
2.500000e+01
2.500000e+01
2.500000e+01
2.500000e+01
2.500000e+01
2.500000e+01
2.500000e+01
2.500000e+01
2.500000e+01
2.500000e+01
2.500000e+01
2.500000e+01
2.500000e+01
2.500000e+01
2.500000e+01
3.750000e+01
3.750000e+01
3.750000e+01
3.750000e+01
3.750000e+01
3.750000e+01
3.750000e+01
3.750000e+01
3.750000e+01
3.750000e+01
3.750000e+01
3.750000e+01
3.750000e+01
3.750000e+01
3.750000e+01
3.750000e+01
3.750000e+01
5.000000e+01
5.000000e+01
5.000000e+01
5.000000e+01
5.000000e+01
5.000000e+01
5.000000e+01
5.000000e+01
5.000000e+01
5.000000e+01
5.000000e+01
5.000000e+01
5.000000e+01
5.000000e+01
5.000000e+01
5.000000e+01
5.000000e+01
6.250000e+01
6.250000e+01
6.250000e+01
6.250000e+01
6.250000e+01
6.250000e+01
6.250000e+01
6.250000e+01
6.250000e+01
6.250000e+01
6.250000e+01
6.250000e+01
6.250000e+01
6.250000e+01
6.250000e+01
6.250000e+01
6.250000e+01
7.500000e+01
7.500000e+01
7.500000e+01
7.500000e+01
7.500000e+01
7.500000e+01
7.500000e+01
7.500000e+01
7.500000e+01
7.500000e+01
7.500000e+01
7.500000e+01
7.500000e+01
7.500000e+01
7.500000e+01
7.500000e+01
7.500000e+01
8.750000e+01
8.750000e+01
8.750000e+01
8.750000e+01
8.750000e+01
8.750000e+01
8.750000e+01
8.750000e+01
8.750000e+01
8.750000e+01
8.750000e+01
8.750000e+01
8.750000e+01
8.750000e+01
8.750000e+01
8.750000e+01
8.750000e+01
1.000000e+02
1.000000e+02
1.000000e+02
1.000000e+02
1.000000e+02
1.000000e+02
1.000000e+02
1.000000e+02
1.000000e+02
1.000000e+02
1.000000e+02
1.000000e+02
1.000000e+02
1.000000e+02
1.000000e+02
1.000000e+02
1.000000e+02
0.000000e+00
-9.775745e-01
-1.668647e+00
-2.409067e+00
-3.089205e+00
-3.741075e+00
-4.428845e+00
-5.078218e+00
-5.738724e+00
-6.389051e+00
-7.049118e+00
-7.703529e+00
-8.382068e+00
-9.165501e+00
-1.005308e+01
-1.079568e+01
-1.124716e+01
0.000000e+00
-4.443314e-01
-9.143872e-01
-1.421607e+00
-1.934608e+00
-2.420157e+00
-2.932056e+00
-3.432349e+00
-3.926352e+00
-4.427611e+00
-4.926439e+00
-5.419326e+00
-5.911159e+00
-6.432062e+00
-6.872060e+00
-6.987907e+00
-7.165048e+00
0.000000e+00
-1.565987e-01
-3.694841e-01
-6.625811e-01
-1.002227e+00
-1.328907e+00
-1.682733e+00
-2.033854e+00
-2.379886e+00
-2.733753e+00
-3.074047e+00
-3.398806e+00
-3.687827e+00
-3.915801e+00
-4.009716e+00
-4.001716e+00
-4.151635e+00
0.000000e+00
-7.996556e-02
-1.663122e-01
-3.112107e-01
-4.560296e-01
-6.303373e-01
-8.074260e-01
-9.795221e-01
-1.157882e+00
-1.323017e+00
-1.481496e+00
-1.614079e+00
-1.696247e+00
-1.697087e+00
-1.625419e+00
-1.610564e+00
-1.732996e+00
0.000000e+00
-2.650572e-03
-5.722367e-03
-8.621322e-03
-1.108851e-02
-1.211937e-02
-1.042216e-02
-4.891866e-03
5.779030e-03
2.480352e-02
5.405830e-02
1.041239e-01
1.881025e-01
3.035509e-01
4.188354e-01
4.513922e-01
3.519724e-01
0.000000e+00
7.543214e-02
1.570936e-01
2.962097e-01
4.363995e-01
6.080852e-01
7.877896e-01
9.699599e-01
1.170140e+00
1.369993e+00
1.585166e+00
1.809402e+00
2.030264e+00
2.225364e+00
2.357211e+00
2.388395e+00
2.323846e+00
0.000000e+00
1.548861e-01
3.656992e-01
6.557645e-01
9.913676e-01
1.315900e+00
1.669517e+00
2.026759e+00
2.393785e+00
2.779774e+00
3.153335e+00
3.522868e+00
3.859447e+00
4.125737e+00
4.294461e+00
4.349446e+00
4.329171e+00
0.000000e+00
4.445997e-01
9.151621e-01
1.422222e+00
1.933479e+00
2.418629e+00
2.927956e+00
3.421670e+00
3.912258e+00
4.403745e+00
4.880191e+00
5.354823e+00
5.792621e+00
6.132694e+00
6.344441e+00
6.437019e+00
6.453641e+00
0.000000e+00
9.786684e-01
1.672588e+00
2.416215e+00
3.099050e+00
3.754863e+00
4.443785e+00
5.080814e+00
5.720424e+00
6.327065e+00
6.915056e+00
7.512163e+00
8.050084e+00
8.442226e+00
8.642052e+00
8.695961e+00
8.696735e+00
0.000000e+00
-6.090773e-01
-1.336697e+00
-2.312453e+00
-3.460922e+00
-4.780304e+00
-6.282504e+00
-7.945295e+00
-9.778911e+00
-1.177994e+01
-1.394440e+01
-1.627096e+01
-1.877602e+01
-2.149724e+01
-2.444950e+01
-2.781360e+01
-3.282611e+01
0.000000e+00
-4.056000e-01
-1.168105e+00
-2.128009e+00
-3.290272e+00
-4.604861e+00
-6.106083e+00
-7.774387e+00
-9.605535e+00
-1.160917e+01
-1.377376e+01
-1.610329e+01
-1.859823e+01
-2.131016e+01
-2.431495e+01
-2.772636e+01
-3.178732e+01
0.000000e+00
-3.761282e-01
-1.066840e+00
-2.022622e+00
-3.169351e+00
-4.481006e+00
-5.982370e+00
-7.648489e+00
-9.484574e+00
-1.148963e+01
-1.366423e+01
-1.600445e+01
-1.851214e+01
-2.124949e+01
-2.430741e+01
-2.756967e+01
-3.059805e+01
0.000000e+00
-4.290002e-01
-1.059782e+00
-1.993003e+00
-3.103565e+00
-4.413817e+00
-5.913871e+00
-7.576567e+00
-9.423932e+00
-1.143420e+01
-1.362534e+01
-1.598826e+01
-1.852116e+01
-2.125693e+01
-2.424462e+01
-2.725699e+01
-2.986019e+01
0.000000e+00
-4.377081e-01
-1.078274e+00
-1.977776e+00
-3.091502e+00
-4.397163e+00
-5.896858e+00
-7.568731e+00
-9.419507e+00
-1.144475e+01
-1.364506e+01
-1.602432e+01
-1.856413e+01
-2.125943e+01
-2.409707e+01
-2.689496e+01
-2.925946e+01
0.000000e+00
-4.278249e-01
-1.059649e+00
-1.995344e+00
-3.110406e+00
-4.427624e+00
-5.939023e+00
-7.612688e+00
-9.477835e+00
-1.150762e+01
-1.370697e+01
-1.607821e+01
-1.860428e+01
-2.125101e+01
-2.395948e+01
-2.657994e+01
-2.883157e+01
0.000000e+00
-3.746109e-01
-1.066740e+00
-2.026699e+00
-3.180605e+00
-4.505460e+00
-6.026603e+00
-7.715403e+00
-9.580874e+00
-1.161331e+01
-1.379558e+01
-1.614754e+01
-1.865254e+01
-2.125582e+01
-2.387340e+01
-2.637619e+01
-2.861145e+01
0.000000e+00
-4.042312e-01
-1.167948e+00
-2.132111e+00
-3.302600e+00
-4.631998e+00
-6.156088e+00
-7.852775e+00
-9.716274e+00
-1.174598e+01
-1.391543e+01
-1.625011e+01
-1.873394e+01
-2.129960e+01
-2.385252e+01
-2.628809e+01
-2.855361e+01
0.000000e+00
-6.082237e-01
-1.337126e+00
-2.316869e+00
-3.473934e+00
-4.808307e+00
-6.332179e+00
-8.022386e+00
-9.886264e+00
-1.190636e+01
-1.407290e+01
-1.640054e+01
-1.885770e+01
-2.137890e+01
-2.387719e+01
-2.627261e+01
-2.855259e+01


0.000000e+00
1.514529e-05
2.494517e-05
3.703734e-05
5.254451e-05
6.582505e-05
8.053001e-05
9.535966e-05
1.093057e-04
1.245295e-04
1.394458e-04
1.537564e-04
1.712143e-04
1.847257e-04
1.918230e-04
1.966303e-04
2.031500e-04
0.000000e+00
1.126718e-05
1.978758e-05
2.850391e-05
4.127146e-05
5.187108e-05
6.226834e-05
7.357014e-05
8.372895e-05
9.470771e-05
1.047764e-04
1.143724e-04
1.256958e-04
1.329933e-04
1.326630e-04
1.361677e-04
1.419138e-04
0.000000e+00
9.434582e-06
1.529780e-05
2.095586e-05
3.030269e-05
3.727281e-05
4.376616e-05
5.124167e-05
5.728411e-05
6.370849e-05
6.912192e-05
7.348535e-05
7.778194e-05
7.871198e-05
7.742732e-05
7.981747e-05
8.417518e-05
0.000000e+00
5.154682e-06
7.265989e-06
1.075874e-05
1.514308e-05
1.763946e-05
2.127567e-05
2.433031e-05
2.644010e-05
2.874141e-05
3.006501e-05
2.970530e-05
2.836417e-05
2.654058e-05
2.663865e-05
2.978947e-05
3.530272e-05
0.000000e+00
-8.141408e-08
-2.079165e-07
-3.813429e-07
-6.194700e-07
-9.287563e-07
-1.303368e-06
-1.856410e-06
-2.620281e-06
-4.081599e-06
-6.595809e-06
-1.024911e-05
-1.315582e-05
-1.451558e-05
-1.404356e-05
-1.170148e-05
-7.960900e-06
0.000000e+00
-5.269888e-06
-7.564417e-06
-1.136631e-05
-1.614545e-05
-1.913429e-05
-2.346220e-05
-2.703032e-05
-3.027954e-05
-3.310041e-05
-3.654022e-05
-4.117112e-05
-4.510332e-05
-4.635649e-05
-4.698201e-05
-4.749823e-05
-4.614293e-05
0.000000e+00
-9.408988e-06
-1.531924e-05
-2.113819e-05
-3.071398e-05
-3.805666e-05
-4.478885e-05
-5.269864e-05
-5.851679e-05
-6.362359e-05
-6.832266e-05
-7.279978e-05
-7.671023e-05
-7.955632e-05
-8.146714e-05
-8.323889e-05
-8.392600e-05
0.000000e+00
-1.120702e-05
-1.970426e-05
-2.841875e-05
-4.119387e-05
-5.189588e-05
-6.220783e-05
-7.375240e-05
-8.389817e-05
-9.425624e-05
-1.043813e-04
-1.119466e-04
-1.171564e-04
-1.216304e-04
-1.245566e-04
-1.255825e-04
-1.256992e-04
0.000000e+00
-1.517721e-05
-2.492675e-05
-3.688322e-05
-5.218631e-05
-6.521305e-05
-7.956134e-05
-9.391023e-05
-1.080738e-04
-1.235196e-04
-1.407003e-04
-1.550048e-04
-1.639910e-04
-1.686766e-04
-1.705812e-04
-1.706275e-04
-1.704164e-04
0.000000e+00
1.251846e-05
1.997114e-05
3.211263e-05
4.767377e-05
6.439335e-05
8.619750e-05
1.118527e-04
1.411131e-04
1.755385e-04
2.138377e-04
2.575123e-04
3.077654e-04
3.602423e-04
4.205103e-04
4.898315e-04
5.610008e-04
0.000000e+00
7.548236e-06
1.599487e-05
2.604376e-05
4.125587e-05
5.855809e-05
7.984072e-05
1.057449e-04
1.350179e-04
1.692446e-04
2.079734e-04
2.512751e-04
3.014157e-04
3.566318e-04
4.161592e-04
4.827186e-04
5.508304e-04
0.000000e+00
4.123595e-06
1.203201e-05
2.121392e-05
3.563852e-05
5.358829e-05
7.503941e-05
1.008644e-04
1.304360e-04
1.648377e-04
2.037169e-04
2.474254e-04
2.979612e-04
3.550469e-04
4.126037e-04
4.753249e-04
5.408808e-04
0.000000e+00
2.847911e-06
9.951881e-06
1.915723e-05
3.336413e-05
5.149810e-05
7.313813e-05
9.916727e-05
1.289442e-04
1.630765e-04
2.021559e-04
2.466386e-04
2.976267e-04
3.538635e-04
4.101372e-04
4.675986e-04
5.267051e-04
0.000000e+00
2.397908e-06
9.387804e-06
1.871521e-05
3.282375e-05
5.093800e-05
7.260409e-05
9.870471e-05
1.286876e-04
1.624054e-04
2.012172e-04
2.473425e-04
2.983204e-04
3.539932e-04
4.090611e-04
4.613653e-04
5.115801e-04
0.000000e+00
2.950820e-06
1.009589e-05
1.934028e-05
3.351602e-05
5.155676e-05
7.307131e-05
9.890091e-05
1.287931e-04
1.622717e-04
2.017061e-04
2.493856e-04
3.008047e-04
3.542473e-04
4.090426e-04
4.591461e-04
5.018258e-04
0.000000e+00
4.258977e-06
1.226241e-05
2.153075e-05
3.588401e-05
5.371470e-05
7.477703e-05
1.002570e-04
1.294743e-04
1.633236e-04
2.039053e-04
2.526233e-04
3.042348e-04
3.559236e-04
4.080968e-04
4.569261e-04
4.990581e-04
0.000000e+00
7.666281e-06
1.625812e-05
2.641749e-05
4.160928e-05
5.872764e-05
7.967676e-05
1.050037e-04
1.335154e-04
1.674433e-04
2.082894e-04
2.560287e-04
3.071441e-04
3.577369e-04
4.079017e-04
4.553176e-04
4.995677e-04
0.000000e+00
1.263018e-05
2.023111e-05
3.248953e-05
4.805235e-05
6.458243e-05
8.608314e-05
1.111929e-04
1.396441e-04
1.739654e-04
2.146325e-04
2.599905e-04
3.092214e-04
3.588695e-04
4.080296e-04
4.548910e-04
4.998466e-04


4.829150e+00
5.090725e+00
5.507818e+00
4.788568e+00
4.252541e+00
4.366456e+00
4.480942e+00
4.709793e+00
4.951163e+00
5.332822e+00
5.772661e+00
6.770836e+00
8.307003e+00
9.104191e+00
8.327468e+00
7.151458e+00
7.276040e+00
7.460038e+00
7.539558e+00
7.257653e+00
6.885481e+00
6.968843e+00
7.060193e+00
7.115838e+00
7.291727e+00
7.440463e+00
7.653176e+00
8.156386e+00
8.878409e+00
9.048296e+00
7.634073e+00
5.807541e+00
9.234076e+00
9.214535e+00
9.289838e+00
9.115842e+00
9.073210e+00
9.099160e+00
9.084991e+00
9.118496e+00
9.116199e+00
9.152250e+00
9.141454e+00
9.151175e+00
9.169582e+00
8.703733e+00
7.206184e+00
5.543852e+00
9.634415e+00
9.628369e+00
9.625384e+00
9.599466e+00
9.589666e+00
9.587338e+00
9.577094e+00
9.565064e+00
9.534073e+00
9.455160e+00
9.253927e+00
8.743491e+00
8.232346e+00
7.841320e+00
7.309499e+00
6.907418e+00
9.633650e+00
9.626555e+00
9.622245e+00
9.592728e+00
9.579165e+00
9.573154e+00
9.554601e+00
9.530830e+00
9.451394e+00
9.194786e+00
8.597717e+00
7.764495e+00
7.131180e+00
7.269106e+00
7.907325e+00
8.272426e+00
9.229056e+00
9.206603e+00
9.270456e+00
9.075612e+00
9.010641e+00
9.012130e+00
8.965167e+00
8.935606e+00
8.640042e+00
8.103521e+00
7.640961e+00
7.274038e+00
7.404534e+00
8.019345e+00
8.784652e+00
9.259912e+00
7.266016e+00
7.445679e+00
7.509424e+00
7.193360e+00
6.793111e+00
6.839484e+00
6.884072e+00
6.826805e+00
6.637701e+00
6.475185e+00
6.883269e+00
7.780392e+00
8.499053e+00
9.095715e+00
9.452751e+00
9.585126e+00
4.816368e+00
5.080552e+00
5.487787e+00
4.745623e+00
4.197465e+00
4.295911e+00
4.383757e+00
4.592152e+00
4.711140e+00
5.342770e+00
6.879386e+00
8.339710e+00
9.214244e+00
9.500149e+00
9.616530e+00
9.662818e+00


-7.707259e-01
-2.013379e-01
-3.607387e-01
-2.498000e-01
-1.388228e-01
-2.634028e-01
-1.661770e-01
-1.766746e-01
-1.752431e-01
-1.903801e-01
-1.680896e-01
-2.138997e-01
-4.896380e-01
-5.019185e-01
3.511448e-01
-8.417416e-01
6.068880e-01
4.596438e-01
3.066869e-01
2.281533e-01
2.845819e-01
1.815980e-01
1.881456e-01
1.852528e-01
1.398061e-01
1.504142e-01
1.825866e-01
2.590076e-01
3.340568e-01
5.825240e-01
7.067645e-01
-1.002523e+00
7.445586e-01
5.027671e-01
1.528848e-01
8.799420e-02
5.126524e-02
-2.902593e-02
7.795930e-03
-5.141334e-04
3.295428e-02
7.368536e-02
1.469951e-01
2.678313e-01
3.393307e-01
1.926629e-01
1.253555e-02
-2.067880e-01
7.532826e-01
5.795818e-01
2.566780e-01
1.387442e-01
4.226761e-02
3.560060e-03
3.256726e-02
3.612582e-02
8.420922e-02
1.056950e-01
1.347778e-01
1.592569e-01
6.388944e-02
-2.751332e-01
-3.430221e-01
-4.689232e-02
7.557189e-01
5.826127e-01
2.615687e-01
1.409683e-01
3.974360e-02
-1.083212e-02
1.052242e-02
-4.208353e-03
2.767523e-02
4.381949e-02
4.373300e-02
2.740090e-02
-4.254333e-02
-1.714632e-01
-9.733047e-02
3.397058e-01
7.500747e-01
5.107456e-01
1.663475e-01
9.968929e-02
5.020036e-02
-5.387369e-02
-4.386406e-02
-1.020327e-01
-9.648595e-02
-6.785859e-02
-1.062330e-01
-1.185841e-01
-7.012925e-02
6.014582e-02
3.410591e-01
7.441419e-01
6.101767e-01
4.632536e-01
3.125323e-01
2.367054e-01
2.835687e-01
1.713441e-01
1.581025e-01
9.686044e-02
6.377388e-04
-1.585297e-02
-1.033368e-01
-8.887225e-02
1.064684e-01
4.008948e-01
7.222594e-01
9.501186e-01
-7.728732e-01
-2.079760e-01
-3.671216e-01
-2.520144e-01
-1.465141e-01
-2.623720e-01
-1.339875e-01
-1.390946e-01
-9.002314e-02
-4.157111e-02
-8.058988e-02
7.028167e-02
4.329103e-01
7.789653e-01
9.531380e-01
9.987586e-01
1 2 19 18
2 3 20 19
3 4 21 20
4 5 22 21
5 6 23 22
6 7 24 23
7 8 25 24
8 9 26 25
9 10 27 26
10 11 28 27
11 12 29 28
12 13 30 29
13 14 31 30
14 15 32 31
15 16 33 32
16 17 34 33
18 19 36 35
19 20 37 36
20 21 38 37
21 22 39 38
22 23 40 39
23 24 41 40
24 25 42 41
25 26 43 42
26 27 44 43
27 28 45 44
28 29 46 45
29 30 47 46
30 31 48 47
31 32 49 48
32 33 50 49
33 34 51 50
35 36 53 52
36 37 54 53
37 38 55 54
38 39 56 55
39 40 57 56
40 41 58 57
41 42 59 58
42 43 60 59
43 44 61 60
44 45 62 61
45 46 63 62
46 47 64 63
47 48 65 64
48 49 66 65
49 50 67 66
50 51 68 67
52 53 70 69
53 54 71 70
54 55 72 71
55 56 73 72
56 57 74 73
57 58 75 74
58 59 76 75
59 60 77 76
60 61 78 77
61 62 79 78
62 63 80 79
63 64 81 80
64 65 82 81
65 66 83 82
66 67 84 83
67 68 85 84
69 70 87 86
70 71 88 87
71 72 89 88
72 73 90 89
73 74 91 90
74 75 92 91
75 76 93 92
76 77 94 93
77 78 95 94
78 79 96 95
79 80 97 96
80 81 98 97
81 82 99 98
82 83 100 99
83 84 101 100
84 85 102 101
86 87 104 103
87 88 105 104
88 89 106 105
89 90 107 106
90 91 108 107
91 92 109 108
92 93 110 109
93 94 111 110
94 95 112 111
95 96 113 112
96 97 114 113
97 98 115 114
98 99 116 115
99 100 117 116
100 101 118 117
101 102 119 118
103 104 121 120
104 105 122 121
105 106 123 122
106 107 124 123
107 108 125 124
108 109 126 125
109 110 127 126
110 111 128 127
111 112 129 128
112 113 130 129
113 114 131 130
114 115 132 131
115 116 133 132
116 117 134 133
117 118 135 134
118 119 136 135
120 121 138 137
121 122 139 138
122 123 140 139
123 124 141 140
124 125 142 141
125 126 143 142
126 127 144 143
127 128 145 144
128 129 146 145
129 130 147 146
130 131 148 147
131 132 149 148
132 133 150 149
133 134 151 150
134 135 152 151
135 136 153 152
