TITLE = "Solution"
VARIABLES = x, y, u, v, psiu, psiv, t, stress
ZONE T="structure" N=153 E=128 F=FEBLOCK ET=QUADRILATERAL VARLOCATION=([7,8]=cellcentered)
0.000000e+00
1.250000e+01
2.500000e+01
3.750000e+01
5.000000e+01
6.250000e+01
7.500000e+01
8.750000e+01
1.000000e+02
1.125000e+02
1.250000e+02
1.375000e+02
1.500000e+02
1.625000e+02
1.750000e+02
1.875000e+02
2.000000e+02
0.000000e+00
1.250000e+01
2.500000e+01
3.750000e+01
5.000000e+01
6.250000e+01
7.500000e+01
8.750000e+01
1.000000e+02
1.125000e+02
1.250000e+02
1.375000e+02
1.500000e+02
1.625000e+02
1.750000e+02
1.875000e+02
2.000000e+02
0.000000e+00
1.250000e+01
2.500000e+01
3.750000e+01
5.000000e+01
6.250000e+01
7.500000e+01
8.750000e+01
1.000000e+02
1.125000e+02
1.250000e+02
1.375000e+02
1.500000e+02
1.625000e+02
1.750000e+02
1.875000e+02
2.000000e+02
0.000000e+00
1.250000e+01
2.500000e+01
3.750000e+01
5.000000e+01
6.250000e+01
7.500000e+01
8.750000e+01
1.000000e+02
1.125000e+02
1.250000e+02
1.375000e+02
1.500000e+02
1.625000e+02
1.750000e+02
1.875000e+02
2.000000e+02
0.000000e+00
1.250000e+01
2.500000e+01
3.750000e+01
5.000000e+01
6.250000e+01
7.500000e+01
8.750000e+01
1.000000e+02
1.125000e+02
1.250000e+02
1.375000e+02
1.500000e+02
1.625000e+02
1.750000e+02
1.875000e+02
2.000000e+02
0.000000e+00
1.250000e+01
2.500000e+01
3.750000e+01
5.000000e+01
6.250000e+01
7.500000e+01
8.750000e+01
1.000000e+02
1.125000e+02
1.250000e+02
1.375000e+02
1.500000e+02
1.625000e+02
1.750000e+02
1.875000e+02
2.000000e+02
0.000000e+00
1.250000e+01
2.500000e+01
3.750000e+01
5.000000e+01
6.250000e+01
7.500000e+01
8.750000e+01
1.000000e+02
1.125000e+02
1.250000e+02
1.375000e+02
1.500000e+02
1.625000e+02
1.750000e+02
1.875000e+02
2.000000e+02
0.000000e+00
1.250000e+01
2.500000e+01
3.750000e+01
5.000000e+01
6.250000e+01
7.500000e+01
8.750000e+01
1.000000e+02
1.125000e+02
1.250000e+02
1.375000e+02
1.500000e+02
1.625000e+02
1.750000e+02
1.875000e+02
2.000000e+02
0.000000e+00
1.250000e+01
2.500000e+01
3.750000e+01
5.000000e+01
6.250000e+01
7.500000e+01
8.750000e+01
1.000000e+02
1.125000e+02
1.250000e+02
1.375000e+02
1.500000e+02
1.625000e+02
1.750000e+02
1.875000e+02
2.000000e+02
0.000000e+00
0.000000e+00
0.000000e+00
0.000000e+00
0.000000e+00
0.000000e+00
0.000000e+00
0.000000e+00
0.000000e+00
0.000000e+00
0.000000e+00
0.000000e+00
0.000000e+00
0.000000e+00
0.000000e+00
0.000000e+00
0.000000e+00
1.250000e+01
1.250000e+01
1.250000e+01
1.250000e+01
1.250000e+01
1.250000e+01
1.250000e+01
1.250000e+01
1.250000e+01
1.250000e+01
1.250000e+01
1.250000e+01
1.250000e+01
1.250000e+01
1.250000e+01
1.250000e+01
1.250000e+01
2.500000e+01
2.500000e+01
2.500000e+01
2.500000e+01
2.500000e+01
2.500000e+01
2.500000e+01
2.500000e+01
2.500000e+01
2.500000e+01
2.500000e+01
2.500000e+01
2.500000e+01
2.500000e+01
2.500000e+01
2.500000e+01
2.500000e+01
3.750000e+01
3.750000e+01
3.750000e+01
3.750000e+01
3.750000e+01
3.750000e+01
3.750000e+01
3.750000e+01
3.750000e+01
3.750000e+01
3.750000e+01
3.750000e+01
3.750000e+01
3.750000e+01
3.750000e+01
3.750000e+01
3.750000e+01
5.000000e+01
5.000000e+01
5.000000e+01
5.000000e+01
5.000000e+01
5.000000e+01
5.000000e+01
5.000000e+01
5.000000e+01
5.000000e+01
5.000000e+01
5.000000e+01
5.000000e+01
5.000000e+01
5.000000e+01
5.000000e+01
5.000000e+01
6.250000e+01
6.250000e+01
6.250000e+01
6.250000e+01
6.250000e+01
6.250000e+01
6.250000e+01
6.250000e+01
6.250000e+01
6.250000e+01
6.250000e+01
6.250000e+01
6.250000e+01
6.250000e+01
6.250000e+01
6.250000e+01
6.250000e+01
7.500000e+01
7.500000e+01
7.500000e+01
7.500000e+01
7.500000e+01
7.500000e+01
7.500000e+01
7.500000e+01
7.500000e+01
7.500000e+01
7.500000e+01
7.500000e+01
7.500000e+01
7.500000e+01
7.500000e+01
7.500000e+01
7.500000e+01
8.750000e+01
8.750000e+01
8.750000e+01
8.750000e+01
8.750000e+01
8.750000e+01
8.750000e+01
8.750000e+01
8.750000e+01
8.750000e+01
8.750000e+01
8.750000e+01
8.750000e+01
8.750000e+01
8.750000e+01
8.750000e+01
8.750000e+01
1.000000e+02
1.000000e+02
1.000000e+02
1.000000e+02
1.000000e+02
1.000000e+02
1.000000e+02
1.000000e+02
1.000000e+02
1.000000e+02
1.000000e+02
1.000000e+02
1.000000e+02
1.000000e+02
1.000000e+02
1.000000e+02
1.000000e+02
0.000000e+00
-8.131649e-01
-1.481216e+00
-2.126166e+00
-2.781224e+00
-3.426605e+00
-4.060902e+00
-4.684561e+00
-5.290240e+00
-5.867153e+00
-6.406377e+00
-6.905386e+00
-7.372292e+00
-7.829552e+00
-8.316296e+00
-8.879015e+00
-9.285723e+00
0.000000e+00
-4.569892e-01
-9.514990e-01
-1.435564e+00
-1.926871e+00
-2.410587e+00
-2.885194e+00
-3.351457e+00
-3.804142e+00
-4.234524e+00
-4.633706e+00
-4.994708e+00
-5.312391e+00
-5.577426e+00
-5.760628e+00
-5.801006e+00
-5.931050e+00
0.000000e+00
-2.647559e-01
-5.546427e-01
-8.722737e-01
-1.199644e+00
-1.523988e+00
-1.842856e+00
-2.154351e+00
-2.453495e+00
-2.732936e+00
-2.983837e+00
-3.196150e+00
-3.357426e+00
-3.450200e+00
-3.456707e+00
-3.425651e+00
-3.560468e+00
0.000000e+00
-1.206812e-01
-2.564675e-01
-4.102512e-01
-5.730207e-01
-7.362010e-01
-8.966390e-01
-1.051371e+00
-1.196334e+00
-1.325979e+00
-1.433145e+00
-1.509259e+00
-1.545333e+00
-1.536568e+00
-1.500963e+00
-1.508771e+00
-1.612807e+00
0.000000e+00
-4.524553e-04
-9.623522e-04
-1.449240e-03
-1.757650e-03
-1.575624e-03
-2.997538e-04
3.170664e-03
1.069357e-02
2.509683e-02
5.011947e-02
8.958039e-02
1.446990e-01
2.076181e-01
2.521709e-01
2.431446e-01
1.719339e-01
0.000000e+00
1.199231e-01
2.548333e-01
4.077339e-01
5.698387e-01
7.330693e-01
8.952255e-01
1.055072e+00
1.211446e+00
1.363257e+00
1.509426e+00
1.648189e+00
1.774851e+00
1.878123e+00
1.939929e+00
1.946150e+00
1.909342e+00
0.000000e+00
2.643885e-01
5.537994e-01
8.708487e-01
1.197572e+00
1.521380e+00
1.840172e+00
2.152602e+00
2.454426e+00
2.739332e+00
3.000150e+00
3.229603e+00
3.420056e+00
3.562800e+00
3.649208e+00
3.677588e+00
3.669054e+00
0.000000e+00
4.570999e-01
9.516587e-01
1.435697e+00
1.926810e+00
2.410030e+00
2.883637e+00
3.347678e+00
3.794980e+00
4.213100e+00
4.587686e+00
4.905325e+00
5.155779e+00
5.333673e+00
5.440383e+00
5.485985e+00
5.494400e+00
0.000000e+00
8.135282e-01
1.482176e+00
2.127914e+00
2.783911e+00
3.430295e+00
4.065430e+00
4.688536e+00
5.288575e+00
5.847067e+00
6.342265e+00
6.752921e+00
7.062052e+00
7.261405e+00
7.358013e+00
7.381660e+00
7.381081e+00
0.000000e+00
-4.986236e-01
-1.016595e+00
-1.702442e+00
-2.550111e+00
-3.560944e+00
-4.736992e+00
-6.076142e+00
-7.571952e+00
-9.215034e+00
-1.099416e+01
-1.289893e+01
-1.492507e+01
-1.708462e+01
-1.944188e+01
-2.220172e+01
-2.632412e+01
0.000000e+00
-3.121506e-01
-8.515731e-01
-1.532139e+00
-2.379765e+00
-3.393399e+00
-4.572413e+00
-5.915497e+00
-7.417875e+00
-9.070619e+00
-1.086186e+01
-1.277981e+01
-1.481863e+01
-1.699076e+01
-1.935319e+01
-2.209948e+01
-2.553518e+01
0.000000e+00
-2.481556e-01
-7.402321e-01
-1.414806e+00
-2.259890e+00
-3.274662e+00
-4.456501e+00
-5.803951e+00
-7.313004e+00
-8.975479e+00
-1.077988e+01
-1.271456e+01
-1.477407e+01
-1.696907e+01
-1.933779e+01
-2.191990e+01
-2.439016e+01
0.000000e+00
-2.329334e-01
-6.915022e-01
-1.349360e+00
-2.190219e+00
-3.204825e+00
-4.389422e+00
-5.741771e+00
-7.258025e+00
-8.930659e+00
-1.074867e+01
-1.270000e+01
-1.477598e+01
-1.697436e+01
-1.928587e+01
-2.161961e+01
-2.371467e+01
0.000000e+00
-2.315961e-01
-6.790442e-01
-1.329867e+00
-2.168086e+00
-3.183170e+00
-4.370107e+00
-5.726611e+00
-7.249089e+00
-8.930373e+00
-1.075909e+01
-1.272070e+01
-1.479877e+01
-1.697177e+01
-1.919306e+01
-2.135874e+01
-2.329461e+01
0.000000e+00
-2.327226e-01
-6.914300e-01
-1.349822e+00
-2.191806e+00
-3.208490e+00
-4.396742e+00
-5.755241e+00
-7.281121e+00
-8.967224e+00
-1.080090e+01
-1.276368e+01
-1.483035e+01
-1.696438e+01
-1.910835e+01
-2.117575e+01
-2.305382e+01
0.000000e+00
-2.478031e-01
-7.400902e-01
-1.415510e+00
-2.262426e+00
-3.280640e+00
-4.468584e+00
-5.826386e+00
-7.351749e+00
-9.037189e+00
-1.086860e+01
-1.282405e+01
-1.487204e+01
-1.696875e+01
-1.905661e+01
-2.106995e+01
-2.294648e+01
0.000000e+00
-3.117957e-01
-8.514167e-01
-1.532908e+00
-2.382600e+00
-3.400167e+00
-4.586185e+00
-5.941103e+00
-7.461994e+00
-9.140554e+00
-1.096175e+01
-1.290215e+01
-1.492796e+01
-1.699345e+01
-1.904343e+01
-2.102590e+01
-2.292143e+01
0.000000e+00
-4.983867e-01
-1.016557e+00
-1.703361e+00
-2.553133e+00
-3.567959e+00
-4.751025e+00
-6.101674e+00
-7.614688e+00
-9.280400e+00
-1.108329e+01
-1.300015e+01
-1.499799e+01
-1.703305e+01
-1.905433e+01
-2.101778e+01
-2.292195e+01


0.000000e+00
9.040049e-06
1.790130e-05
2.616441e-05
3.447971e-05
4.243241e-05
4.951939e-05
5.551362e-05
6.029832e-05
6.386150e-05
6.634932e-05
6.801827e-05
6.915922e-05
7.006071e-05
7.096841e-05
7.228318e-05
7.403182e-05
0.000000e+00
6.630317e-06
1.440820e-05
2.068663e-05
2.696110e-05
3.298438e-05
3.826804e-05
4.263458e-05
4.603259e-05
4.846621e-05
5.006424e-05
5.102830e-05
5.152820e-05
5.167364e-05
5.183260e-05
5.289570e-05
5.470831e-05
0.000000e+00
4.958278e-06
1.009572e-05
1.439045e-05
1.862928e-05
2.255316e-05
2.595681e-05
2.874710e-05
3.089025e-05
3.238959e-05
3.332234e-05
3.380979e-05
3.397624e-05
3.398296e-05
3.414986e-05
3.502193e-05
3.649363e-05
0.000000e+00
2.473565e-06
4.720879e-06
7.079826e-06
9.228573e-06
1.113482e-05
1.278957e-05
1.416155e-05
1.521576e-05
1.594825e-05
1.638903e-05
1.660168e-05
1.668690e-05
1.678266e-05
1.700908e-05
1.751573e-05
1.834855e-05
0.000000e+00
-5.223524e-09
-1.100977e-08
-1.718599e-08
-2.409360e-08
-3.301098e-08
-4.714585e-08
-7.151672e-08
-1.108157e-07
-1.657411e-07
-2.289831e-07
-2.797697e-07
-2.807349e-07
-1.969710e-07
-5.435113e-08
1.405870e-07
5.026608e-07
0.000000e+00
-2.482932e-06
-4.739956e-06
-7.110147e-06
-9.271204e-06
-1.119194e-05
-1.286703e-05
-1.427123e-05
-1.537580e-05
-1.618035e-05
-1.671133e-05
-1.701470e-05
-1.714552e-05
-1.716817e-05
-1.716330e-05
-1.714355e-05
-1.701523e-05
0.000000e+00
-4.963105e-06
-1.010763e-05
-1.441173e-05
-1.866310e-05
-2.260202e-05
-2.601911e-05
-2.881178e-05
-3.094015e-05
-3.241610e-05
-3.333967e-05
-3.386133e-05
-3.412989e-05
-3.426730e-05
-3.435390e-05
-3.439923e-05
-3.436844e-05
0.000000e+00
-6.631023e-06
-1.441247e-05
-2.069629e-05
-2.698104e-05
-3.301995e-05
-3.831548e-05
-4.266467e-05
-4.599244e-05
-4.830990e-05
-4.978383e-05
-5.066294e-05
-5.117095e-05
-5.146497e-05
-5.163651e-05
-5.172090e-05
-5.173413e-05
0.000000e+00
-9.043001e-06
-1.790303e-05
-2.616466e-05
-3.448083e-05
-4.243755e-05
-4.952244e-05
-5.548229e-05
-6.017329e-05
-6.358454e-05
-6.588862e-05
-6.735990e-05
-6.826117e-05
-6.878876e-05
-6.906706e-05
-6.917353e-05
-6.919141e-05
0.000000e+00
7.952775e-06
1.369914e-05
2.053284e-05
2.947968e-05
4.015794e-05
5.240795e-05
6.609919e-05
8.096887e-05
9.674655e-05
1.132274e-04
1.302541e-04
1.477417e-04
1.658643e-04
1.856548e-04
2.078912e-04
2.307513e-04
0.000000e+00
4.093855e-06
1.000480e-05
1.685740e-05
2.579847e-05
3.674747e-05
4.948011e-05
6.372703e-05
7.917742e-05
9.549973e-05
1.124240e-04
1.297702e-04
1.474626e-04
1.655957e-04
1.845851e-04
2.056025e-04
2.277686e-04
0.000000e+00
1.785563e-06
7.059376e-06
1.416376e-05
2.316948e-05
3.433848e-05
4.741946e-05
6.206546e-05
7.792413e-05
9.463537e-05
1.118896e-04
1.294868e-04
1.473376e-04
1.653752e-04
1.835093e-04
2.031627e-04
2.242584e-04
0.000000e+00
1.022433e-06
5.721968e-06
1.285490e-05
2.202426e-05
3.331219e-05
4.651751e-05
6.131399e-05
7.733817e-05
9.421977e-05
1.116344e-04
1.293560e-04
1.472445e-04
1.651450e-04
1.829027e-04
2.015712e-04
2.213798e-04
0.000000e+00
8.750123e-07
5.353029e-06
1.242191e-05
2.168721e-05
3.301793e-05
4.625524e-05
6.109464e-05
7.717144e-05
9.410879e-05
1.115738e-04
1.293198e-04
1.471771e-04
1.649982e-04
1.827122e-04
2.008680e-04
2.195276e-04
0.000000e+00
1.023407e-06
5.721382e-06
1.285095e-05
2.201634e-05
3.330391e-05
4.651846e-05
6.133661e-05
7.739030e-05
9.429880e-05
1.117233e-04
1.294147e-04
1.472061e-04
1.649831e-04
1.827246e-04
2.006175e-04
2.185534e-04
0.000000e+00
1.786863e-06
7.058578e-06
1.415819e-05
2.315800e-05
3.432739e-05
4.742539e-05
6.211054e-05
7.802328e-05
9.478630e-05
1.120678e-04
1.296320e-04
1.473255e-04
1.650517e-04
1.827732e-04
2.005099e-04
2.181267e-04
0.000000e+00
4.096253e-06
1.000673e-05
1.685617e-05
2.579389e-05
3.674578e-05
4.949584e-05
6.377916e-05
7.928098e-05
9.565826e-05
1.126223e-04
1.299563e-04
1.475015e-04
1.651456e-04
1.828172e-04
2.004621e-04
2.179910e-04
0.000000e+00
7.957416e-06
1.370450e-05
2.053788e-05
2.948567e-05
4.016951e-05
5.243065e-05
6.613715e-05
8.102872e-05
9.683930e-05
1.133547e-04
1.303791e-04
1.477309e-04
1.652626e-04
1.828673e-04
2.004584e-04
2.179714e-04


2.145857e+00
2.110072e+00
2.248730e+00
2.476123e+00
2.668588e+00
2.900261e+00
3.177802e+00
3.463392e+00
3.723839e+00
3.936704e+00
4.091427e+00
4.187475e+00
4.212717e+00
4.102424e+00
3.865675e+00
3.681859e+00
2.666412e+00
2.629108e+00
2.720947e+00
2.886439e+00
3.029053e+00
3.205265e+00
3.419759e+00
3.642259e+00
3.846846e+00
4.015120e+00
4.137433e+00
4.211815e+00
4.223579e+00
4.106288e+00
3.874147e+00
3.696168e+00
3.460322e+00
3.429622e+00
3.466682e+00
3.541144e+00
3.606807e+00
3.696742e+00
3.809059e+00
3.928026e+00
4.040032e+00
4.133786e+00
4.202139e+00
4.242353e+00
4.241372e+00
4.145664e+00
3.963569e+00
3.828874e+00
3.975749e+00
3.955096e+00
3.957289e+00
3.971417e+00
3.991633e+00
4.024194e+00
4.066685e+00
4.114167e+00
4.161445e+00
4.202682e+00
4.233534e+00
4.252240e+00
4.251638e+00
4.202158e+00
4.105837e+00
4.034545e+00
3.975732e+00
3.955013e+00
3.957037e+00
3.970818e+00
3.990451e+00
4.022168e+00
4.063538e+00
4.109538e+00
4.154961e+00
4.194374e+00
4.224439e+00
4.245295e+00
4.255848e+00
4.245609e+00
4.214332e+00
4.189950e+00
3.460048e+00
3.429128e+00
3.465682e+00
3.539251e+00
3.603695e+00
3.692408e+00
3.803656e+00
3.921192e+00
4.030615e+00
4.120883e+00
4.187075e+00
4.231626e+00
4.259817e+00
4.273184e+00
4.274351e+00
4.272194e+00
2.665535e+00
2.627858e+00
2.718958e+00
2.883412e+00
3.025244e+00
3.202070e+00
3.419126e+00
3.644875e+00
3.850952e+00
4.017755e+00
4.137633e+00
4.215493e+00
4.262625e+00
4.289176e+00
4.302364e+00
4.307438e+00
2.144473e+00
2.108240e+00
2.246104e+00
2.472587e+00
2.664992e+00
2.899210e+00
3.182746e+00
3.475996e+00
3.742112e+00
3.956232e+00
4.109127e+00
4.207197e+00
4.265019e+00
4.296919e+00
4.313019e+00
4.319687e+00


-4.220796e-01
-1.899386e-01
-1.171833e-01
-1.520869e-01
-1.193626e-01
-8.126043e-02
-4.571609e-02
1.297643e-02
1.054228e-01
2.240686e-01
3.503318e-01
4.631876e-01
5.496924e-01
6.104657e-01
6.744744e-01
-3.337201e-01
5.166691e-01
4.033851e-01
3.833242e-01
3.561929e-01
3.659188e-01
3.804491e-01
3.961128e-01
4.270507e-01
4.816025e-01
5.597781e-01
6.554380e-01
7.594638e-01
8.613152e-01
9.349697e-01
8.056530e-01
-9.960123e-01
8.331186e-01
7.492504e-01
6.841243e-01
6.549257e-01
6.479743e-01
6.464751e-01
6.488120e-01
6.596642e-01
6.833198e-01
7.209627e-01
7.681029e-01
8.111692e-01
8.217001e-01
7.431566e-01
4.747822e-01
-1.559347e-03
9.419960e-01
8.759131e-01
8.194262e-01
7.883500e-01
7.746249e-01
7.662863e-01
7.584989e-01
7.507107e-01
7.441816e-01
7.390748e-01
7.310866e-01
7.088470e-01
6.560349e-01
5.717043e-01
5.142591e-01
5.085167e-01
9.424209e-01
8.764610e-01
8.199466e-01
7.883617e-01
7.732414e-01
7.619659e-01
7.485739e-01
7.310023e-01
7.090803e-01
6.828537e-01
6.517254e-01
6.161869e-01
5.854953e-01
5.903960e-01
6.662485e-01
7.924209e-01
8.340821e-01
7.505344e-01
6.854499e-01
6.554225e-01
6.459254e-01
6.387518e-01
6.299401e-01
6.210608e-01
6.132811e-01
6.067249e-01
6.024058e-01
6.066510e-01
6.355149e-01
7.076674e-01
8.193929e-01
9.348249e-01
5.173121e-01
4.043025e-01
3.843441e-01
3.571007e-01
3.658798e-01
3.777387e-01
3.880615e-01
4.102800e-01
4.519182e-01
5.116702e-01
5.830267e-01
6.607634e-01
7.459906e-01
8.409855e-01
9.315445e-01
9.886364e-01
-4.227928e-01
-1.911799e-01
-1.186377e-01
-1.536014e-01
-1.205923e-01
-8.165388e-02
-4.218689e-02
2.945471e-02
1.511695e-01
3.193837e-01
5.125014e-01
6.990566e-01
8.490605e-01
9.449887e-01
9.892312e-01
9.997779e-01
1 2 19 18
2 3 20 19
3 4 21 20
4 5 22 21
5 6 23 22
6 7 24 23
7 8 25 24
8 9 26 25
9 10 27 26
10 11 28 27
11 12 29 28
12 13 30 29
13 14 31 30
14 15 32 31
15 16 33 32
16 17 34 33
18 19 36 35
19 20 37 36
20 21 38 37
21 22 39 38
22 23 40 39
23 24 41 40
24 25 42 41
25 26 43 42
26 27 44 43
27 28 45 44
28 29 46 45
29 30 47 46
30 31 48 47
31 32 49 48
32 33 50 49
33 34 51 50
35 36 53 52
36 37 54 53
37 38 55 54
38 39 56 55
39 40 57 56
40 41 58 57
41 42 59 58
42 43 60 59
43 44 61 60
44 45 62 61
45 46 63 62
46 47 64 63
47 48 65 64
48 49 66 65
49 50 67 66
50 51 68 67
52 53 70 69
53 54 71 70
54 55 72 71
55 56 73 72
56 57 74 73
57 58 75 74
58 59 76 75
59 60 77 76
60 61 78 77
61 62 79 78
62 63 80 79
63 64 81 80
64 65 82 81
65 66 83 82
66 67 84 83
67 68 85 84
69 70 87 86
70 71 88 87
71 72 89 88
72 73 90 89
73 74 91 90
74 75 92 91
75 76 93 92
76 77 94 93
77 78 95 94
78 79 96 95
79 80 97 96
80 81 98 97
81 82 99 98
82 83 100 99
83 84 101 100
84 85 102 101
86 87 104 103
87 88 105 104
88 89 106 105
89 90 107 106
90 91 108 107
91 92 109 108
92 93 110 109
93 94 111 110
94 95 112 111
95 96 113 112
96 97 114 113
97 98 115 114
98 99 116 115
99 100 117 116
100 101 118 117
101 102 119 118
103 104 121 120
104 105 122 121
105 106 123 122
106 107 124 123
107 108 125 124
108 109 126 125
109 110 127 126
110 111 128 127
111 112 129 128
112 113 130 129
113 114 131 130
114 115 132 131
115 116 133 132
116 117 134 133
117 118 135 134
118 119 136 135
120 121 138 137
121 122 139 138
122 123 140 139
123 124 141 140
124 125 142 141
125 126 143 142
126 127 144 143
127 128 145 144
128 129 146 145
129 130 147 146
130 131 148 147
131 132 149 148
132 133 150 149
133 134 151 150
134 135 152 151
135 136 153 152
