TITLE = "Solution"
VARIABLES = x, y, u, v, psiu, psiv, t, stress
ZONE T="structure" N=153 E=128 F=FEBLOCK ET=QUADRILATERAL VARLOCATION=([7,8]=cellcentered)
0.000000e+00
1.250000e+01
2.500000e+01
3.750000e+01
5.000000e+01
6.250000e+01
7.500000e+01
8.750000e+01
1.000000e+02
1.125000e+02
1.250000e+02
1.375000e+02
1.500000e+02
1.625000e+02
1.750000e+02
1.875000e+02
2.000000e+02
0.000000e+00
1.250000e+01
2.500000e+01
3.750000e+01
5.000000e+01
6.250000e+01
7.500000e+01
8.750000e+01
1.000000e+02
1.125000e+02
1.250000e+02
1.375000e+02
1.500000e+02
1.625000e+02
1.750000e+02
1.875000e+02
2.000000e+02
0.000000e+00
1.250000e+01
2.500000e+01
3.750000e+01
5.000000e+01
6.250000e+01
7.500000e+01
8.750000e+01
1.000000e+02
1.125000e+02
1.250000e+02
1.375000e+02
1.500000e+02
1.625000e+02
1.750000e+02
1.875000e+02
2.000000e+02
0.000000e+00
1.250000e+01
2.500000e+01
3.750000e+01
5.000000e+01
6.250000e+01
7.500000e+01
8.750000e+01
1.000000e+02
1.125000e+02
1.250000e+02
1.375000e+02
1.500000e+02
1.625000e+02
1.750000e+02
1.875000e+02
2.000000e+02
0.000000e+00
1.250000e+01
2.500000e+01
3.750000e+01
5.000000e+01
6.250000e+01
7.500000e+01
8.750000e+01
1.000000e+02
1.125000e+02
1.250000e+02
1.375000e+02
1.500000e+02
1.625000e+02
1.750000e+02
1.875000e+02
2.000000e+02
0.000000e+00
1.250000e+01
2.500000e+01
3.750000e+01
5.000000e+01
6.250000e+01
7.500000e+01
8.750000e+01
1.000000e+02
1.125000e+02
1.250000e+02
1.375000e+02
1.500000e+02
1.625000e+02
1.750000e+02
1.875000e+02
2.000000e+02
0.000000e+00
1.250000e+01
2.500000e+01
3.750000e+01
5.000000e+01
6.250000e+01
7.500000e+01
8.750000e+01
1.000000e+02
1.125000e+02
1.250000e+02
1.375000e+02
1.500000e+02
1.625000e+02
1.750000e+02
1.875000e+02
2.000000e+02
0.000000e+00
1.250000e+01
2.500000e+01
3.750000e+01
5.000000e+01
6.250000e+01
7.500000e+01
8.750000e+01
1.000000e+02
1.125000e+02
1.250000e+02
1.375000e+02
1.500000e+02
1.625000e+02
1.750000e+02
1.875000e+02
2.000000e+02
0.000000e+00
1.250000e+01
2.500000e+01
3.750000e+01
5.000000e+01
6.250000e+01
7.500000e+01
8.750000e+01
1.000000e+02
1.125000e+02
1.250000e+02
1.375000e+02
1.500000e+02
1.625000e+02
1.750000e+02
1.875000e+02
2.000000e+02
0.000000e+00
0.000000e+00
0.000000e+00
0.000000e+00
0.000000e+00
0.000000e+00
0.000000e+00
0.000000e+00
0.000000e+00
0.000000e+00
0.000000e+00
0.000000e+00
0.000000e+00
0.000000e+00
0.000000e+00
0.000000e+00
0.000000e+00
1.250000e+01
1.250000e+01
1.250000e+01
1.250000e+01
1.250000e+01
1.250000e+01
1.250000e+01
1.250000e+01
1.250000e+01
1.250000e+01
1.250000e+01
1.250000e+01
1.250000e+01
1.250000e+01
1.250000e+01
1.250000e+01
1.250000e+01
2.500000e+01
2.500000e+01
2.500000e+01
2.500000e+01
2.500000e+01
2.500000e+01
2.500000e+01
2.500000e+01
2.500000e+01
2.500000e+01
2.500000e+01
2.500000e+01
2.500000e+01
2.500000e+01
2.500000e+01
2.500000e+01
2.500000e+01
3.750000e+01
3.750000e+01
3.750000e+01
3.750000e+01
3.750000e+01
3.750000e+01
3.750000e+01
3.750000e+01
3.750000e+01
3.750000e+01
3.750000e+01
3.750000e+01
3.750000e+01
3.750000e+01
3.750000e+01
3.750000e+01
3.750000e+01
5.000000e+01
5.000000e+01
5.000000e+01
5.000000e+01
5.000000e+01
5.000000e+01
5.000000e+01
5.000000e+01
5.000000e+01
5.000000e+01
5.000000e+01
5.000000e+01
5.000000e+01
5.000000e+01
5.000000e+01
5.000000e+01
5.000000e+01
6.250000e+01
6.250000e+01
6.250000e+01
6.250000e+01
6.250000e+01
6.250000e+01
6.250000e+01
6.250000e+01
6.250000e+01
6.250000e+01
6.250000e+01
6.250000e+01
6.250000e+01
6.250000e+01
6.250000e+01
6.250000e+01
6.250000e+01
7.500000e+01
7.500000e+01
7.500000e+01
7.500000e+01
7.500000e+01
7.500000e+01
7.500000e+01
7.500000e+01
7.500000e+01
7.500000e+01
7.500000e+01
7.500000e+01
7.500000e+01
7.500000e+01
7.500000e+01
7.500000e+01
7.500000e+01
8.750000e+01
8.750000e+01
8.750000e+01
8.750000e+01
8.750000e+01
8.750000e+01
8.750000e+01
8.750000e+01
8.750000e+01
8.750000e+01
8.750000e+01
8.750000e+01
8.750000e+01
8.750000e+01
8.750000e+01
8.750000e+01
8.750000e+01
1.000000e+02
1.000000e+02
1.000000e+02
1.000000e+02
1.000000e+02
1.000000e+02
1.000000e+02
1.000000e+02
1.000000e+02
1.000000e+02
1.000000e+02
1.000000e+02
1.000000e+02
1.000000e+02
1.000000e+02
1.000000e+02
1.000000e+02
0.000000e+00
-7.134744e-02
-1.313732e-01
-1.866048e-01
-2.380408e-01
-2.855728e-01
-3.290988e-01
-3.685851e-01
-4.040890e-01
-4.357741e-01
-4.639545e-01
-4.891810e-01
-5.124010e-01
-5.352515e-01
-5.605555e-01
-5.916319e-01
-6.149514e-01
0.000000e+00
-4.260741e-02
-8.850859e-02
-1.308954e-01
-1.699467e-01
-2.058111e-01
-2.385627e-01
-2.682456e-01
-2.949131e-01
-3.186476e-01
-3.395693e-01
-3.578292e-01
-3.735437e-01
-3.865511e-01
-3.957259e-01
-3.977369e-01
-4.049467e-01
0.000000e+00
-2.664544e-02
-5.478970e-02
-8.286777e-02
-1.090778e-01
-1.331423e-01
-1.550417e-01
-1.748008e-01
-1.924246e-01
-2.078834e-01
-2.210943e-01
-2.318726e-01
-2.398341e-01
-2.442784e-01
-2.444017e-01
-2.426263e-01
-2.499798e-01
0.000000e+00
-1.286073e-02
-2.647555e-02
-4.017635e-02
-5.327681e-02
-6.534315e-02
-7.628011e-02
-8.605584e-02
-9.461436e-02
-1.018443e-01
-1.075609e-01
-1.114944e-01
-1.133227e-01
-1.128955e-01
-1.111407e-01
-1.116205e-01
-1.170959e-01
0.000000e+00
-1.184739e-05
-2.693282e-05
-4.196872e-05
-4.994866e-05
-3.524857e-05
3.314338e-05
2.108741e-04
5.892398e-04
1.304231e-03
2.533268e-03
4.454583e-03
7.116336e-03
1.012425e-02
1.220203e-02
1.163216e-02
8.006969e-03
0.000000e+00
1.284250e-02
2.643323e-02
4.010866e-02
5.319261e-02
6.527467e-02
7.630668e-02
8.634260e-02
9.546944e-02
1.037931e-01
1.114222e-01
1.184134e-01
1.246452e-01
1.296424e-01
1.325819e-01
1.328151e-01
1.309751e-01
0.000000e+00
2.664245e-02
5.478058e-02
8.284963e-02
1.090495e-01
1.331070e-01
1.550125e-01
1.748104e-01
1.925417e-01
2.082380e-01
2.219129e-01
2.335330e-01
2.429647e-01
2.499379e-01
2.541233e-01
2.554824e-01
2.550533e-01
0.000000e+00
4.262489e-02
8.854660e-02
1.309560e-01
1.700280e-01
2.058981e-01
2.386115e-01
2.681563e-01
2.944874e-01
3.175289e-01
3.371713e-01
3.532788e-01
3.657227e-01
3.744617e-01
3.796747e-01
3.818977e-01
3.823060e-01
0.000000e+00
7.137667e-02
1.314503e-01
1.867492e-01
2.382715e-01
2.858973e-01
3.294859e-01
3.689106e-01
4.040394e-01
4.346899e-01
4.605962e-01
4.814129e-01
4.967982e-01
5.066311e-01
5.113864e-01
5.125602e-01
5.125375e-01
0.000000e+00
-4.318858e-02
-8.478422e-02
-1.386825e-01
-2.048315e-01
-2.831074e-01
-3.726531e-01
-4.724663e-01
-5.814857e-01
-6.986642e-01
-8.230341e-01
-9.538256e-01
-1.090723e+00
-1.234458e+00
-1.388759e+00
-1.565307e+00
-1.818976e+00
0.000000e+00
-2.658768e-02
-6.997877e-02
-1.245454e-01
-1.917755e-01
-2.711196e-01
-3.617501e-01
-4.626402e-01
-5.727163e-01
-6.909122e-01
-8.162337e-01
-9.478756e-01
-1.085474e+00
-1.229740e+00
-1.383980e+00
-1.559457e+00
-1.774435e+00
0.000000e+00
-2.006277e-02
-5.971489e-02
-1.144829e-01
-1.823486e-01
-2.625094e-01
-3.539729e-01
-4.557025e-01
-5.666318e-01
-6.857099e-01
-8.119617e-01
-9.446096e-01
-1.083324e+00
-1.228699e+00
-1.383073e+00
-1.549343e+00
-1.710258e+00
0.000000e+00
-1.728868e-02
-5.461175e-02
-1.085765e-01
-1.766875e-01
-2.573418e-01
-3.493755e-01
-4.517128e-01
-5.633072e-01
-6.831364e-01
-8.102463e-01
-9.438443e-01
-1.083444e+00
-1.228980e+00
-1.380265e+00
-1.533045e+00
-1.673789e+00
0.000000e+00
-1.648953e-02
-5.306730e-02
-1.066923e-01
-1.748219e-01
-2.556769e-01
-3.479752e-01
-4.506419e-01
-5.626505e-01
-6.829953e-01
-8.107011e-01
-9.448497e-01
-1.084574e+00
-1.228843e+00
-1.375498e+00
-1.519524e+00
-1.652207e+00
0.000000e+00
-1.727842e-02
-5.460444e-02
-1.085895e-01
-1.767514e-01
-2.575100e-01
-3.497353e-01
-4.523941e-01
-5.644819e-01
-6.849879e-01
-8.128738e-01
-9.470287e-01
-1.086155e+00
-1.228482e+00
-1.371275e+00
-1.510362e+00
-1.640213e+00
0.000000e+00
-2.004603e-02
-5.970279e-02
-1.145046e-01
-1.824562e-01
-2.627940e-01
-3.545829e-01
-4.568595e-01
-5.686292e-01
-6.888639e-01
-8.164554e-01
-9.501219e-01
-1.088253e+00
-1.228715e+00
-1.368740e+00
-1.505158e+00
-1.634922e+00
0.000000e+00
-2.657199e-02
-6.996823e-02
-1.245742e-01
-1.919046e-01
-2.714542e-01
-3.624601e-01
-4.639774e-01
-5.750107e-01
-6.945129e-01
-8.213305e-01
-9.540902e-01
-1.091044e+00
-1.229943e+00
-1.368105e+00
-1.503006e+00
-1.633681e+00
0.000000e+00
-4.318209e-02
-8.478513e-02
-1.387271e-01
-2.049812e-01
-2.834650e-01
-3.733796e-01
-4.737918e-01
-5.836957e-01
-7.020258e-01
-8.276008e-01
-9.590170e-01
-1.094515e+00
-1.231893e+00
-1.368645e+00
-1.502612e+00
-1.633700e+00


0.000000e+00
9.592042e-08
1.921976e-07
2.816099e-07
3.654591e-07
4.432717e-07
5.147220e-07
5.797908e-07
6.386100e-07
6.914271e-07
7.385930e-07
7.804979e-07
8.173705e-07
8.489215e-07
8.747458e-07
8.968147e-07
9.164525e-07
0.000000e+00
5.394942e-08
1.312774e-07
2.008074e-07
2.645566e-07
3.233182e-07
3.770396e-07
4.257221e-07
4.694055e-07
5.081219e-07
5.418600e-07
5.705210e-07
5.939597e-07
6.126589e-07
6.297388e-07
6.500126e-07
6.708807e-07
0.000000e+00
3.399564e-08
8.296564e-08
1.289104e-07
1.717400e-07
2.111305e-07
2.469276e-07
2.790892e-07
3.075669e-07
3.322651e-07
3.530432e-07
3.698006e-07
3.828003e-07
3.933768e-07
4.045329e-07
4.196078e-07
4.370265e-07
0.000000e+00
1.660788e-08
3.977368e-08
6.227518e-08
8.369193e-08
1.033663e-07
1.210860e-07
1.367705e-07
1.503280e-07
1.616409e-07
1.706111e-07
1.772921e-07
1.821354e-07
1.862827e-07
1.916264e-07
2.004129e-07
2.125056e-07
0.000000e+00
1.735732e-11
2.147765e-11
-9.230773e-12
-1.042749e-10
-3.107306e-10
-6.976205e-10
-1.356800e-09
-2.394845e-09
-3.906556e-09
-5.916839e-09
-8.283603e-09
-1.058405e-08
-1.204320e-08
-1.146761e-08
-7.331912e-09
6.117352e-10
0.000000e+00
-1.657544e-08
-3.973016e-08
-6.227696e-08
-8.384384e-08
-1.038520e-07
-1.222069e-07
-1.389871e-07
-1.542900e-07
-1.681761e-07
-1.806180e-07
-1.914463e-07
-2.003146e-07
-2.067059e-07
-2.099811e-07
-2.093564e-07
-2.050054e-07
0.000000e+00
-3.397521e-08
-8.293547e-08
-1.288925e-07
-1.717758e-07
-2.112988e-07
-2.473656e-07
-2.800169e-07
-3.093103e-07
-3.352640e-07
-3.578152e-07
-3.767858e-07
-3.918754e-07
-4.027307e-07
-4.091723e-07
-4.113175e-07
-4.100327e-07
0.000000e+00
-5.396994e-08
-1.313183e-07
-2.008445e-07
-2.645500e-07
-3.231997e-07
-3.766974e-07
-4.249833e-07
-4.680199e-07
-5.057532e-07
-5.380978e-07
-5.649263e-07
-5.860726e-07
-6.013963e-07
-6.110331e-07
-6.157710e-07
-6.169156e-07
0.000000e+00
-9.603376e-08
-1.923984e-07
-2.818583e-07
-3.656714e-07
-4.432736e-07
-5.141833e-07
-5.781407e-07
-6.349376e-07
-6.843836e-07
-7.263289e-07
-7.607074e-07
-7.875781e-07
-8.071625e-07
-8.199186e-07
-8.265127e-07
-8.286308e-07
0.000000e+00
8.683527e-08
1.694024e-07
2.620528e-07
3.725551e-07
5.020499e-07
6.496879e-07
8.141048e-07
9.937281e-07
1.187032e-06
1.392707e-06
1.609949e-06
1.839196e-06
2.083743e-06
2.349629e-06
2.632060e-06
2.912273e-06
0.000000e+00
5.252857e-08
1.327769e-07
2.261526e-07
3.388050e-07
4.709014e-07
6.213330e-07
7.885575e-07
9.709619e-07
1.166998e-06
1.375335e-06
1.595105e-06
1.826329e-06
2.070455e-06
2.329870e-06
2.605138e-06
2.881663e-06
0.000000e+00
3.346093e-08
1.034154e-07
1.966877e-07
3.109623e-07
4.453138e-07
5.981766e-07
7.678875e-07
9.528059e-07
1.151377e-06
1.362223e-06
1.584262e-06
1.816751e-06
2.059007e-06
2.310629e-06
2.575846e-06
2.843459e-06
0.000000e+00
2.455205e-08
8.796862e-08
1.795061e-07
2.945287e-07
4.302778e-07
5.847233e-07
7.560965e-07
9.427344e-07
1.143054e-06
1.355564e-06
1.578845e-06
1.811401e-06
2.051357e-06
2.297214e-06
2.552204e-06
2.806488e-06
0.000000e+00
2.199174e-08
8.328494e-08
1.739791e-07
2.892036e-07
4.255124e-07
5.806409e-07
7.527731e-07
9.402247e-07
1.141353e-06
1.354514e-06
1.577971e-06
1.809728e-06
2.047304e-06
2.288260e-06
2.534100e-06
2.775273e-06
0.000000e+00
2.457188e-08
8.804300e-08
1.796901e-07
2.948944e-07
4.309232e-07
5.857707e-07
7.576751e-07
9.449343e-07
1.145832e-06
1.358572e-06
1.581192e-06
1.811401e-06
2.046380e-06
2.283079e-06
2.521278e-06
2.752887e-06
0.000000e+00
3.349293e-08
1.035450e-07
1.970101e-07
3.116036e-07
4.464471e-07
6.000180e-07
7.706653e-07
9.566804e-07
1.156274e-06
1.367526e-06
1.588313e-06
1.816187e-06
2.048205e-06
2.281112e-06
2.513594e-06
2.739250e-06
0.000000e+00
5.256919e-08
1.329414e-07
2.265497e-07
3.395875e-07
4.722773e-07
6.235595e-07
7.919004e-07
9.755940e-07
1.172792e-06
1.381477e-06
1.599410e-06
1.824057e-06
2.052525e-06
2.281818e-06
2.510140e-06
2.732739e-06
0.000000e+00
8.690258e-08
1.695947e-07
2.624810e-07
3.733699e-07
5.034497e-07
6.519077e-07
8.173664e-07
9.981261e-07
1.192308e-06
1.397845e-06
1.612440e-06
1.833536e-06
2.058355e-06
2.284261e-06
2.509578e-06
2.730841e-06


2.084708e-01
2.084707e-01
2.084708e-01
2.084712e-01
2.084714e-01
2.084717e-01
2.084719e-01
2.084721e-01
2.084723e-01
2.084725e-01
2.084726e-01
2.084727e-01
2.084728e-01
2.084727e-01
2.084726e-01
2.084724e-01
2.084712e-01
2.084712e-01
2.084713e-01
2.084715e-01
2.084717e-01
2.084719e-01
2.084721e-01
2.084723e-01
2.084724e-01
2.084726e-01
2.084727e-01
2.084728e-01
2.084728e-01
2.084727e-01
2.084725e-01
2.084724e-01
2.084720e-01
2.084720e-01
2.084720e-01
2.084721e-01
2.084722e-01
2.084723e-01
2.084724e-01
2.084725e-01
2.084726e-01
2.084727e-01
2.084727e-01
2.084728e-01
2.084728e-01
2.084727e-01
2.084726e-01
2.084725e-01
2.084726e-01
2.084725e-01
2.084725e-01
2.084725e-01
2.084725e-01
2.084726e-01
2.084726e-01
2.084727e-01
2.084727e-01
2.084728e-01
2.084728e-01
2.084728e-01
2.084728e-01
2.084727e-01
2.084727e-01
2.084726e-01
2.084726e-01
2.084725e-01
2.084725e-01
2.084725e-01
2.084725e-01
2.084726e-01
2.084726e-01
2.084727e-01
2.084727e-01
2.084727e-01
2.084728e-01
2.084728e-01
2.084728e-01
2.084728e-01
2.084728e-01
2.084728e-01
2.084720e-01
2.084720e-01
2.084720e-01
2.084721e-01
2.084722e-01
2.084723e-01
2.084724e-01
2.084725e-01
2.084726e-01
2.084726e-01
2.084727e-01
2.084728e-01
2.084728e-01
2.084728e-01
2.084729e-01
2.084729e-01
2.084712e-01
2.084712e-01
2.084713e-01
2.084715e-01
2.084717e-01
2.084719e-01
2.084721e-01
2.084723e-01
2.084724e-01
2.084725e-01
2.084727e-01
2.084727e-01
2.084728e-01
2.084729e-01
2.084730e-01
2.084730e-01
2.084708e-01
2.084707e-01
2.084708e-01
2.084712e-01
2.084714e-01
2.084717e-01
2.084719e-01
2.084721e-01
2.084723e-01
2.084725e-01
2.084726e-01
2.084728e-01
2.084729e-01
2.084729e-01
2.084730e-01
2.084730e-01


9.885473e-01
9.901714e-01
9.916738e-01
9.928303e-01
9.939038e-01
9.948937e-01
9.957955e-01
9.965987e-01
9.972949e-01
9.978772e-01
9.983402e-01
9.986793e-01
9.988902e-01
9.989654e-01
9.990197e-01
9.956726e-01
9.956672e-01
9.949230e-01
9.954018e-01
9.960268e-01
9.966094e-01
9.971390e-01
9.976184e-01
9.980526e-01
9.984457e-01
9.988018e-01
9.991249e-01
9.994175e-01
9.996728e-01
9.998399e-01
9.994172e-01
9.936878e-01
9.984946e-01
9.980671e-01
9.979517e-01
9.981140e-01
9.983276e-01
9.985344e-01
9.987264e-01
9.989079e-01
9.990836e-01
9.992550e-01
9.994151e-01
9.995390e-01
9.995648e-01
9.993417e-01
9.985321e-01
9.970761e-01
9.996936e-01
9.993819e-01
9.991893e-01
9.991404e-01
9.991599e-01
9.991927e-01
9.992253e-01
9.992573e-01
9.992886e-01
9.993149e-01
9.993222e-01
9.992832e-01
9.991594e-01
9.989372e-01
9.987488e-01
9.987011e-01
9.996948e-01
9.993835e-01
9.991907e-01
9.991401e-01
9.991551e-01
9.991787e-01
9.991951e-01
9.992006e-01
9.991930e-01
9.991689e-01
9.991240e-01
9.990592e-01
9.989975e-01
9.990098e-01
9.991841e-01
9.994859e-01
9.984967e-01
9.980704e-01
9.979548e-01
9.981141e-01
9.983193e-01
9.985088e-01
9.986692e-01
9.987980e-01
9.988946e-01
9.989596e-01
9.990007e-01
9.990409e-01
9.991253e-01
9.993022e-01
9.995681e-01
9.998429e-01
9.956668e-01
9.949227e-01
9.954012e-01
9.960250e-01
9.966049e-01
9.971286e-01
9.975968e-01
9.980113e-01
9.983726e-01
9.986814e-01
9.989428e-01
9.991711e-01
9.993909e-01
9.996214e-01
9.998370e-01
9.999727e-01
9.885395e-01
9.901592e-01
9.916588e-01
9.928135e-01
9.938887e-01
9.948882e-01
9.958142e-01
9.966644e-01
9.974391e-01
9.981368e-01
9.987491e-01
9.992570e-01
9.996349e-01
9.998681e-01
9.999741e-01
9.999995e-01
1 2 19 18
2 3 20 19
3 4 21 20
4 5 22 21
5 6 23 22
6 7 24 23
7 8 25 24
8 9 26 25
9 10 27 26
10 11 28 27
11 12 29 28
12 13 30 29
13 14 31 30
14 15 32 31
15 16 33 32
16 17 34 33
18 19 36 35
19 20 37 36
20 21 38 37
21 22 39 38
22 23 40 39
23 24 41 40
24 25 42 41
25 26 43 42
26 27 44 43
27 28 45 44
28 29 46 45
29 30 47 46
30 31 48 47
31 32 49 48
32 33 50 49
33 34 51 50
35 36 53 52
36 37 54 53
37 38 55 54
38 39 56 55
39 40 57 56
40 41 58 57
41 42 59 58
42 43 60 59
43 44 61 60
44 45 62 61
45 46 63 62
46 47 64 63
47 48 65 64
48 49 66 65
49 50 67 66
50 51 68 67
52 53 70 69
53 54 71 70
54 55 72 71
55 56 73 72
56 57 74 73
57 58 75 74
58 59 76 75
59 60 77 76
60 61 78 77
61 62 79 78
62 63 80 79
63 64 81 80
64 65 82 81
65 66 83 82
66 67 84 83
67 68 85 84
69 70 87 86
70 71 88 87
71 72 89 88
72 73 90 89
73 74 91 90
74 75 92 91
75 76 93 92
76 77 94 93
77 78 95 94
78 79 96 95
79 80 97 96
80 81 98 97
81 82 99 98
82 83 100 99
83 84 101 100
84 85 102 101
86 87 104 103
87 88 105 104
88 89 106 105
89 90 107 106
90 91 108 107
91 92 109 108
92 93 110 109
93 94 111 110
94 95 112 111
95 96 113 112
96 97 114 113
97 98 115 114
98 99 116 115
99 100 117 116
100 101 118 117
101 102 119 118
103 104 121 120
104 105 122 121
105 106 123 122
106 107 124 123
107 108 125 124
108 109 126 125
109 110 127 126
110 111 128 127
111 112 129 128
112 113 130 129
113 114 131 130
114 115 132 131
115 116 133 132
116 117 134 133
117 118 135 134
118 119 136 135
120 121 138 137
121 122 139 138
122 123 140 139
123 124 141 140
124 125 142 141
125 126 143 142
126 127 144 143
127 128 145 144
128 129 146 145
129 130 147 146
130 131 148 147
131 132 149 148
132 133 150 149
133 134 151 150
134 135 152 151
135 136 153 152
