TITLE = "Solution"
VARIABLES = x, y, u, v, psiu, psiv, t, stress
ZONE T="structure" N=153 E=128 F=FEBLOCK ET=QUADRILATERAL VARLOCATION=([7,8]=cellcentered)
0.000000e+00
1.250000e+01
2.500000e+01
3.750000e+01
5.000000e+01
6.250000e+01
7.500000e+01
8.750000e+01
1.000000e+02
1.125000e+02
1.250000e+02
1.375000e+02
1.500000e+02
1.625000e+02
1.750000e+02
1.875000e+02
2.000000e+02
0.000000e+00
1.250000e+01
2.500000e+01
3.750000e+01
5.000000e+01
6.250000e+01
7.500000e+01
8.750000e+01
1.000000e+02
1.125000e+02
1.250000e+02
1.375000e+02
1.500000e+02
1.625000e+02
1.750000e+02
1.875000e+02
2.000000e+02
0.000000e+00
1.250000e+01
2.500000e+01
3.750000e+01
5.000000e+01
6.250000e+01
7.500000e+01
8.750000e+01
1.000000e+02
1.125000e+02
1.250000e+02
1.375000e+02
1.500000e+02
1.625000e+02
1.750000e+02
1.875000e+02
2.000000e+02
0.000000e+00
1.250000e+01
2.500000e+01
3.750000e+01
5.000000e+01
6.250000e+01
7.500000e+01
8.750000e+01
1.000000e+02
1.125000e+02
1.250000e+02
1.375000e+02
1.500000e+02
1.625000e+02
1.750000e+02
1.875000e+02
2.000000e+02
0.000000e+00
1.250000e+01
2.500000e+01
3.750000e+01
5.000000e+01
6.250000e+01
7.500000e+01
8.750000e+01
1.000000e+02
1.125000e+02
1.250000e+02
1.375000e+02
1.500000e+02
1.625000e+02
1.750000e+02
1.875000e+02
2.000000e+02
0.000000e+00
1.250000e+01
2.500000e+01
3.750000e+01
5.000000e+01
6.250000e+01
7.500000e+01
8.750000e+01
1.000000e+02
1.125000e+02
1.250000e+02
1.375000e+02
1.500000e+02
1.625000e+02
1.750000e+02
1.875000e+02
2.000000e+02
0.000000e+00
1.250000e+01
2.500000e+01
3.750000e+01
5.000000e+01
6.250000e+01
7.500000e+01
8.750000e+01
1.000000e+02
1.125000e+02
1.250000e+02
1.375000e+02
1.500000e+02
1.625000e+02
1.750000e+02
1.875000e+02
2.000000e+02
0.000000e+00
1.250000e+01
2.500000e+01
3.750000e+01
5.000000e+01
6.250000e+01
7.500000e+01
8.750000e+01
1.000000e+02
1.125000e+02
1.250000e+02
1.375000e+02
1.500000e+02
1.625000e+02
1.750000e+02
1.875000e+02
2.000000e+02
0.000000e+00
1.250000e+01
2.500000e+01
3.750000e+01
5.000000e+01
6.250000e+01
7.500000e+01
8.750000e+01
1.000000e+02
1.125000e+02
1.250000e+02
1.375000e+02
1.500000e+02
1.625000e+02
1.750000e+02
1.875000e+02
2.000000e+02
0.000000e+00
0.000000e+00
0.000000e+00
0.000000e+00
0.000000e+00
0.000000e+00
0.000000e+00
0.000000e+00
0.000000e+00
0.000000e+00
0.000000e+00
0.000000e+00
0.000000e+00
0.000000e+00
0.000000e+00
0.000000e+00
0.000000e+00
1.250000e+01
1.250000e+01
1.250000e+01
1.250000e+01
1.250000e+01
1.250000e+01
1.250000e+01
1.250000e+01
1.250000e+01
1.250000e+01
1.250000e+01
1.250000e+01
1.250000e+01
1.250000e+01
1.250000e+01
1.250000e+01
1.250000e+01
2.500000e+01
2.500000e+01
2.500000e+01
2.500000e+01
2.500000e+01
2.500000e+01
2.500000e+01
2.500000e+01
2.500000e+01
2.500000e+01
2.500000e+01
2.500000e+01
2.500000e+01
2.500000e+01
2.500000e+01
2.500000e+01
2.500000e+01
3.750000e+01
3.750000e+01
3.750000e+01
3.750000e+01
3.750000e+01
3.750000e+01
3.750000e+01
3.750000e+01
3.750000e+01
3.750000e+01
3.750000e+01
3.750000e+01
3.750000e+01
3.750000e+01
3.750000e+01
3.750000e+01
3.750000e+01
5.000000e+01
5.000000e+01
5.000000e+01
5.000000e+01
5.000000e+01
5.000000e+01
5.000000e+01
5.000000e+01
5.000000e+01
5.000000e+01
5.000000e+01
5.000000e+01
5.000000e+01
5.000000e+01
5.000000e+01
5.000000e+01
5.000000e+01
6.250000e+01
6.250000e+01
6.250000e+01
6.250000e+01
6.250000e+01
6.250000e+01
6.250000e+01
6.250000e+01
6.250000e+01
6.250000e+01
6.250000e+01
6.250000e+01
6.250000e+01
6.250000e+01
6.250000e+01
6.250000e+01
6.250000e+01
7.500000e+01
7.500000e+01
7.500000e+01
7.500000e+01
7.500000e+01
7.500000e+01
7.500000e+01
7.500000e+01
7.500000e+01
7.500000e+01
7.500000e+01
7.500000e+01
7.500000e+01
7.500000e+01
7.500000e+01
7.500000e+01
7.500000e+01
8.750000e+01
8.750000e+01
8.750000e+01
8.750000e+01
8.750000e+01
8.750000e+01
8.750000e+01
8.750000e+01
8.750000e+01
8.750000e+01
8.750000e+01
8.750000e+01
8.750000e+01
8.750000e+01
8.750000e+01
8.750000e+01
8.750000e+01
1.000000e+02
1.000000e+02
1.000000e+02
1.000000e+02
1.000000e+02
1.000000e+02
1.000000e+02
1.000000e+02
1.000000e+02
1.000000e+02
1.000000e+02
1.000000e+02
1.000000e+02
1.000000e+02
1.000000e+02
1.000000e+02
1.000000e+02
0.000000e+00
-7.336949e-02
-1.350965e-01
-1.918933e-01
-2.447871e-01
-2.936664e-01
-3.384261e-01
-3.790315e-01
-4.155418e-01
-4.481251e-01
-4.771043e-01
-5.030459e-01
-5.269241e-01
-5.504224e-01
-5.764436e-01
-6.084010e-01
-6.323815e-01
0.000000e+00
-4.381492e-02
-9.101696e-02
-1.346051e-01
-1.747632e-01
-2.116440e-01
-2.453239e-01
-2.758482e-01
-3.032716e-01
-3.276788e-01
-3.491937e-01
-3.679711e-01
-3.841311e-01
-3.975072e-01
-4.069421e-01
-4.090101e-01
-4.164243e-01
0.000000e+00
-2.740057e-02
-5.634243e-02
-8.521627e-02
-1.121691e-01
-1.369157e-01
-1.594358e-01
-1.797550e-01
-1.978783e-01
-2.137754e-01
-2.273607e-01
-2.384445e-01
-2.466317e-01
-2.512020e-01
-2.513288e-01
-2.495031e-01
-2.570650e-01
0.000000e+00
-1.322520e-02
-2.722585e-02
-4.131495e-02
-5.478670e-02
-6.719504e-02
-7.844199e-02
-8.849480e-02
-9.729592e-02
-1.047308e-01
-1.106095e-01
-1.146544e-01
-1.165345e-01
-1.160953e-01
-1.142907e-01
-1.147842e-01
-1.204148e-01
0.000000e+00
-1.218337e-05
-2.769658e-05
-4.315888e-05
-5.136523e-05
-3.624866e-05
3.408175e-05
2.168504e-04
6.059415e-04
1.341201e-03
2.605078e-03
4.580858e-03
7.318066e-03
1.041125e-02
1.254793e-02
1.196191e-02
8.233954e-03
0.000000e+00
1.320645e-02
2.718233e-02
4.124534e-02
5.470011e-02
6.712461e-02
7.846931e-02
8.878969e-02
9.817524e-02
1.067348e-01
1.145803e-01
1.217696e-01
1.281780e-01
1.333169e-01
1.363398e-01
1.365795e-01
1.346874e-01
0.000000e+00
2.739750e-02
5.633306e-02
8.519761e-02
1.121400e-01
1.368794e-01
1.594058e-01
1.797648e-01
1.979987e-01
2.141399e-01
2.282025e-01
2.401520e-01
2.498511e-01
2.570219e-01
2.613260e-01
2.627236e-01
2.622823e-01
0.000000e+00
4.383289e-02
9.105604e-02
1.346674e-01
1.748468e-01
2.117335e-01
2.453741e-01
2.757564e-01
3.028339e-01
3.265284e-01
3.467276e-01
3.632918e-01
3.760884e-01
3.850751e-01
3.904359e-01
3.927220e-01
3.931418e-01
0.000000e+00
7.339955e-02
1.351758e-01
1.920418e-01
2.450244e-01
2.940001e-01
3.388242e-01
3.793663e-01
4.154909e-01
4.470101e-01
4.736508e-01
4.950576e-01
5.108791e-01
5.209907e-01
5.258808e-01
5.270878e-01
5.270645e-01
0.000000e+00
-4.441259e-02
-8.718713e-02
-1.426130e-01
-2.106368e-01
-2.911312e-01
-3.832148e-01
-4.858570e-01
-5.979664e-01
-7.184660e-01
-8.463610e-01
-9.808596e-01
-1.121638e+00
-1.269446e+00
-1.428121e+00
-1.609673e+00
-1.870532e+00
0.000000e+00
-2.734121e-02
-7.196208e-02
-1.280752e-01
-1.972107e-01
-2.788036e-01
-3.720028e-01
-4.757524e-01
-5.889483e-01
-7.104943e-01
-8.393678e-01
-9.747409e-01
-1.116239e+00
-1.264594e+00
-1.423206e+00
-1.603657e+00
-1.824729e+00
0.000000e+00
-2.063139e-02
-6.140732e-02
-1.177276e-01
-1.875167e-01
-2.699494e-01
-3.640052e-01
-4.686181e-01
-5.826914e-01
-7.051445e-01
-8.349747e-01
-9.713823e-01
-1.114028e+00
-1.263524e+00
-1.422273e+00
-1.593257e+00
-1.758732e+00
0.000000e+00
-1.777869e-02
-5.615956e-02
-1.116538e-01
-1.816952e-01
-2.646353e-01
-3.592775e-01
-4.645152e-01
-5.792726e-01
-7.024980e-01
-8.332107e-01
-9.705953e-01
-1.114152e+00
-1.263813e+00
-1.419386e+00
-1.576496e+00
-1.721230e+00
0.000000e+00
-1.695689e-02
-5.457134e-02
-1.097162e-01
-1.797767e-01
-2.629232e-01
-3.578375e-01
-4.634140e-01
-5.785973e-01
-7.023530e-01
-8.336784e-01
-9.716292e-01
-1.115314e+00
-1.263672e+00
-1.414484e+00
-1.562592e+00
-1.699036e+00
0.000000e+00
-1.776814e-02
-5.615205e-02
-1.116671e-01
-1.817608e-01
-2.648083e-01
-3.596474e-01
-4.652159e-01
-5.804806e-01
-7.044021e-01
-8.359127e-01
-9.738700e-01
-1.116939e+00
-1.263300e+00
-1.410141e+00
-1.553170e+00
-1.686701e+00
0.000000e+00
-2.061417e-02
-6.139487e-02
-1.177499e-01
-1.876273e-01
-2.702420e-01
-3.646325e-01
-4.698078e-01
-5.847454e-01
-7.083879e-01
-8.395958e-01
-9.770509e-01
-1.119097e+00
-1.263540e+00
-1.407534e+00
-1.547818e+00
-1.681261e+00
0.000000e+00
-2.732507e-02
-7.195124e-02
-1.281048e-01
-1.973436e-01
-2.791477e-01
-3.727329e-01
-4.771275e-01
-5.913078e-01
-7.141971e-01
-8.446091e-01
-9.811316e-01
-1.121968e+00
-1.264803e+00
-1.406881e+00
-1.545606e+00
-1.679984e+00
0.000000e+00
-4.440592e-02
-8.718806e-02
-1.426588e-01
-2.107907e-01
-2.914989e-01
-3.839619e-01
-4.872201e-01
-6.002390e-01
-7.219229e-01
-8.510571e-01
-9.861981e-01
-1.125536e+00
-1.266809e+00
-1.407436e+00
-1.545201e+00
-1.680004e+00


0.000000e+00
7.239671e-08
1.450834e-07
2.125726e-07
2.758343e-07
3.345119e-07
3.883643e-07
4.373834e-07
4.816746e-07
5.214303e-07
5.569198e-07
5.884416e-07
6.161721e-07
6.398986e-07
6.593208e-07
6.759252e-07
6.907073e-07
0.000000e+00
4.075672e-08
9.915818e-08
1.516452e-07
1.997405e-07
2.440474e-07
2.845322e-07
3.212016e-07
3.540909e-07
3.832291e-07
4.086120e-07
4.301686e-07
4.477928e-07
4.618494e-07
4.746893e-07
4.899410e-07
5.056483e-07
0.000000e+00
2.570747e-08
6.269901e-08
9.738529e-08
1.296986e-07
1.593980e-07
1.863723e-07
2.105946e-07
2.320327e-07
2.506184e-07
2.662485e-07
2.788499e-07
2.886223e-07
2.965712e-07
3.049582e-07
3.162995e-07
3.294099e-07
0.000000e+00
1.256649e-08
3.006483e-08
4.705417e-08
6.321355e-08
7.804799e-08
9.140031e-08
1.032128e-07
1.134186e-07
1.219312e-07
1.286785e-07
1.337019e-07
1.373425e-07
1.404603e-07
1.444793e-07
1.510900e-07
1.601899e-07
0.000000e+00
1.295635e-11
1.592696e-11
-7.318765e-12
-7.898813e-11
-2.344928e-10
-5.257330e-10
-1.021811e-09
-1.802833e-09
-2.940046e-09
-4.452074e-09
-6.231759e-09
-7.960858e-09
-9.056395e-09
-8.621597e-09
-5.509920e-09
4.659861e-10
0.000000e+00
-1.254228e-08
-3.003249e-08
-4.705616e-08
-6.332875e-08
-7.841454e-08
-9.224498e-08
-1.048819e-07
-1.164008e-07
-1.268489e-07
-1.362073e-07
-1.443494e-07
-1.510161e-07
-1.558195e-07
-1.582805e-07
-1.578101e-07
-1.545377e-07
0.000000e+00
-2.569219e-08
-6.267655e-08
-9.737220e-08
-1.297262e-07
-1.595255e-07
-1.867027e-07
-2.112934e-07
-2.333450e-07
-2.528746e-07
-2.698380e-07
-2.841039e-07
-2.954487e-07
-3.036089e-07
-3.084510e-07
-3.100635e-07
-3.090972e-07
0.000000e+00
-4.077217e-08
-9.918901e-08
-1.516732e-07
-1.997359e-07
-2.439588e-07
-2.842754e-07
-3.206466e-07
-3.530494e-07
-3.814482e-07
-4.057831e-07
-4.259620e-07
-4.418635e-07
-4.533849e-07
-4.606299e-07
-4.641917e-07
-4.650521e-07
0.000000e+00
-7.248199e-08
-1.452345e-07
-2.127594e-07
-2.759940e-07
-3.345133e-07
-3.879591e-07
-4.361423e-07
-4.789128e-07
-5.161338e-07
-5.476982e-07
-5.735614e-07
-5.937719e-07
-6.084995e-07
-6.180908e-07
-6.230480e-07
-6.246399e-07
0.000000e+00
6.554072e-08
1.278150e-07
1.976774e-07
2.810028e-07
3.786512e-07
4.899776e-07
6.139475e-07
7.493707e-07
8.950929e-07
1.050126e-06
1.213860e-06
1.386624e-06
1.570897e-06
1.771230e-06
1.984030e-06
2.195170e-06
0.000000e+00
3.962733e-08
1.001540e-07
1.705778e-07
2.555411e-07
3.551659e-07
4.686102e-07
5.947054e-07
7.322309e-07
8.800166e-07
1.037057e-06
1.202697e-06
1.376950e-06
1.560906e-06
1.756366e-06
1.963767e-06
2.172126e-06
0.000000e+00
2.522015e-08
7.798135e-08
1.483409e-07
2.345414e-07
3.358784e-07
4.511645e-07
5.791402e-07
7.185645e-07
8.682625e-07
1.027194e-06
1.194543e-06
1.369749e-06
1.552299e-06
1.741891e-06
1.941720e-06
2.143367e-06
0.000000e+00
1.849258e-08
6.632252e-08
1.353799e-07
2.221519e-07
3.245487e-07
4.410323e-07
5.702636e-07
7.109850e-07
8.620009e-07
1.022186e-06
1.190470e-06
1.365727e-06
1.546546e-06
1.731800e-06
1.923929e-06
2.115541e-06
0.000000e+00
1.656028e-08
6.278900e-08
1.312114e-07
2.181379e-07
3.209584e-07
4.379578e-07
5.677615e-07
7.090960e-07
8.607212e-07
1.021396e-06
1.189813e-06
1.364469e-06
1.543498e-06
1.725067e-06
1.910311e-06
2.092054e-06
0.000000e+00
1.850754e-08
6.637849e-08
1.355182e-07
2.224268e-07
3.250339e-07
4.418197e-07
5.714505e-07
7.126391e-07
8.640895e-07
1.024448e-06
1.192235e-06
1.365728e-06
1.542804e-06
1.721172e-06
1.900670e-06
2.075215e-06
0.000000e+00
2.524427e-08
7.807887e-08
1.485834e-07
2.350235e-07
3.367304e-07
4.525490e-07
5.812289e-07
7.214780e-07
8.719449e-07
1.031183e-06
1.197590e-06
1.369327e-06
1.544176e-06
1.719695e-06
1.894893e-06
2.064959e-06
0.000000e+00
3.965798e-08
1.002778e-07
1.708765e-07
2.561296e-07
3.562005e-07
4.702844e-07
5.972191e-07
7.357142e-07
8.843737e-07
1.041677e-06
1.205936e-06
1.375244e-06
1.547425e-06
1.720226e-06
1.892297e-06
2.060064e-06
0.000000e+00
6.559149e-08
1.279598e-07
1.979997e-07
2.816158e-07
3.797040e-07
4.916468e-07
6.164002e-07
7.526779e-07
8.990612e-07
1.053991e-06
1.215736e-06
1.382371e-06
1.551809e-06
1.722062e-06
1.891874e-06
2.058637e-06


2.143787e-01
2.143786e-01
2.143789e-01
2.143794e-01
2.143800e-01
2.143805e-01
2.143809e-01
2.143813e-01
2.143816e-01
2.143819e-01
2.143822e-01
2.143824e-01
2.143825e-01
2.143824e-01
2.143821e-01
2.143818e-01
2.143796e-01
2.143795e-01
2.143796e-01
2.143801e-01
2.143805e-01
2.143809e-01
2.143812e-01
2.143815e-01
2.143818e-01
2.143821e-01
2.143823e-01
2.143824e-01
2.143825e-01
2.143824e-01
2.143820e-01
2.143818e-01
2.143811e-01
2.143809e-01
2.143810e-01
2.143812e-01
2.143814e-01
2.143816e-01
2.143818e-01
2.143820e-01
2.143822e-01
2.143823e-01
2.143824e-01
2.143825e-01
2.143825e-01
2.143824e-01
2.143821e-01
2.143819e-01
2.143821e-01
2.143820e-01
2.143819e-01
2.143820e-01
2.143820e-01
2.143821e-01
2.143822e-01
2.143823e-01
2.143824e-01
2.143824e-01
2.143825e-01
2.143825e-01
2.143825e-01
2.143824e-01
2.143823e-01
2.143822e-01
2.143821e-01
2.143820e-01
2.143819e-01
2.143819e-01
2.143820e-01
2.143821e-01
2.143822e-01
2.143823e-01
2.143823e-01
2.143824e-01
2.143824e-01
2.143825e-01
2.143825e-01
2.143825e-01
2.143825e-01
2.143825e-01
2.143811e-01
2.143809e-01
2.143810e-01
2.143812e-01
2.143814e-01
2.143816e-01
2.143818e-01
2.143820e-01
2.143821e-01
2.143822e-01
2.143823e-01
2.143824e-01
2.143825e-01
2.143826e-01
2.143827e-01
2.143827e-01
2.143796e-01
2.143795e-01
2.143796e-01
2.143801e-01
2.143805e-01
2.143809e-01
2.143812e-01
2.143815e-01
2.143818e-01
2.143820e-01
2.143822e-01
2.143824e-01
2.143826e-01
2.143827e-01
2.143828e-01
2.143829e-01
2.143787e-01
2.143786e-01
2.143789e-01
2.143794e-01
2.143800e-01
2.143805e-01
2.143809e-01
2.143813e-01
2.143816e-01
2.143820e-01
2.143822e-01
2.143824e-01
2.143826e-01
2.143828e-01
2.143829e-01
2.143829e-01


9.878890e-01
9.896064e-01
9.911952e-01
9.924181e-01
9.935533e-01
9.946001e-01
9.955538e-01
9.964032e-01
9.971394e-01
9.977551e-01
9.982447e-01
9.986034e-01
9.988264e-01
9.989059e-01
9.989633e-01
9.954238e-01
9.954182e-01
9.946311e-01
9.951375e-01
9.957984e-01
9.964145e-01
9.969745e-01
9.974814e-01
9.979406e-01
9.983563e-01
9.987329e-01
9.990746e-01
9.993840e-01
9.996539e-01
9.998307e-01
9.993837e-01
9.933249e-01
9.984080e-01
9.979560e-01
9.978340e-01
9.980056e-01
9.982314e-01
9.984501e-01
9.986532e-01
9.988451e-01
9.990309e-01
9.992122e-01
9.993814e-01
9.995125e-01
9.995398e-01
9.993038e-01
9.984477e-01
9.969080e-01
9.996760e-01
9.993463e-01
9.991427e-01
9.990910e-01
9.991116e-01
9.991462e-01
9.991808e-01
9.992146e-01
9.992477e-01
9.992755e-01
9.992832e-01
9.992419e-01
9.991110e-01
9.988761e-01
9.986769e-01
9.986264e-01
9.996772e-01
9.993480e-01
9.991442e-01
9.990907e-01
9.991065e-01
9.991315e-01
9.991488e-01
9.991546e-01
9.991467e-01
9.991211e-01
9.990736e-01
9.990051e-01
9.989399e-01
9.989528e-01
9.991372e-01
9.994564e-01
9.984103e-01
9.979594e-01
9.978373e-01
9.980056e-01
9.982226e-01
9.984231e-01
9.985926e-01
9.987289e-01
9.988310e-01
9.988998e-01
9.989432e-01
9.989857e-01
9.990750e-01
9.992621e-01
9.995432e-01
9.998339e-01
9.954177e-01
9.946308e-01
9.951368e-01
9.957965e-01
9.964097e-01
9.969635e-01
9.974586e-01
9.978970e-01
9.982790e-01
9.986055e-01
9.988820e-01
9.991234e-01
9.993559e-01
9.995996e-01
9.998276e-01
9.999711e-01
9.878807e-01
9.895935e-01
9.911793e-01
9.924004e-01
9.935374e-01
9.945943e-01
9.955735e-01
9.964726e-01
9.972918e-01
9.980296e-01
9.986772e-01
9.992143e-01
9.996139e-01
9.998605e-01
9.999727e-01
9.999994e-01
1 2 19 18
2 3 20 19
3 4 21 20
4 5 22 21
5 6 23 22
6 7 24 23
7 8 25 24
8 9 26 25
9 10 27 26
10 11 28 27
11 12 29 28
12 13 30 29
13 14 31 30
14 15 32 31
15 16 33 32
16 17 34 33
18 19 36 35
19 20 37 36
20 21 38 37
21 22 39 38
22 23 40 39
23 24 41 40
24 25 42 41
25 26 43 42
26 27 44 43
27 28 45 44
28 29 46 45
29 30 47 46
30 31 48 47
31 32 49 48
32 33 50 49
33 34 51 50
35 36 53 52
36 37 54 53
37 38 55 54
38 39 56 55
39 40 57 56
40 41 58 57
41 42 59 58
42 43 60 59
43 44 61 60
44 45 62 61
45 46 63 62
46 47 64 63
47 48 65 64
48 49 66 65
49 50 67 66
50 51 68 67
52 53 70 69
53 54 71 70
54 55 72 71
55 56 73 72
56 57 74 73
57 58 75 74
58 59 76 75
59 60 77 76
60 61 78 77
61 62 79 78
62 63 80 79
63 64 81 80
64 65 82 81
65 66 83 82
66 67 84 83
67 68 85 84
69 70 87 86
70 71 88 87
71 72 89 88
72 73 90 89
73 74 91 90
74 75 92 91
75 76 93 92
76 77 94 93
77 78 95 94
78 79 96 95
79 80 97 96
80 81 98 97
81 82 99 98
82 83 100 99
83 84 101 100
84 85 102 101
86 87 104 103
87 88 105 104
88 89 106 105
89 90 107 106
90 91 108 107
91 92 109 108
92 93 110 109
93 94 111 110
94 95 112 111
95 96 113 112
96 97 114 113
97 98 115 114
98 99 116 115
99 100 117 116
100 101 118 117
101 102 119 118
103 104 121 120
104 105 122 121
105 106 123 122
106 107 124 123
107 108 125 124
108 109 126 125
109 110 127 126
110 111 128 127
111 112 129 128
112 113 130 129
113 114 131 130
114 115 132 131
115 116 133 132
116 117 134 133
117 118 135 134
118 119 136 135
120 121 138 137
121 122 139 138
122 123 140 139
123 124 141 140
124 125 142 141
125 126 143 142
126 127 144 143
127 128 145 144
128 129 146 145
129 130 147 146
130 131 148 147
131 132 149 148
132 133 150 149
133 134 151 150
134 135 152 151
135 136 153 152
