TITLE = "Solution"
VARIABLES = x, y, u, v, psiu, psiv, t, stress
ZONE T="structure" N=153 E=128 F=FEBLOCK ET=QUADRILATERAL VARLOCATION=([7,8]=cellcentered)
0.000000e+00
1.250000e+01
2.500000e+01
3.750000e+01
5.000000e+01
6.250000e+01
7.500000e+01
8.750000e+01
1.000000e+02
1.125000e+02
1.250000e+02
1.375000e+02
1.500000e+02
1.625000e+02
1.750000e+02
1.875000e+02
2.000000e+02
0.000000e+00
1.250000e+01
2.500000e+01
3.750000e+01
5.000000e+01
6.250000e+01
7.500000e+01
8.750000e+01
1.000000e+02
1.125000e+02
1.250000e+02
1.375000e+02
1.500000e+02
1.625000e+02
1.750000e+02
1.875000e+02
2.000000e+02
0.000000e+00
1.250000e+01
2.500000e+01
3.750000e+01
5.000000e+01
6.250000e+01
7.500000e+01
8.750000e+01
1.000000e+02
1.125000e+02
1.250000e+02
1.375000e+02
1.500000e+02
1.625000e+02
1.750000e+02
1.875000e+02
2.000000e+02
0.000000e+00
1.250000e+01
2.500000e+01
3.750000e+01
5.000000e+01
6.250000e+01
7.500000e+01
8.750000e+01
1.000000e+02
1.125000e+02
1.250000e+02
1.375000e+02
1.500000e+02
1.625000e+02
1.750000e+02
1.875000e+02
2.000000e+02
0.000000e+00
1.250000e+01
2.500000e+01
3.750000e+01
5.000000e+01
6.250000e+01
7.500000e+01
8.750000e+01
1.000000e+02
1.125000e+02
1.250000e+02
1.375000e+02
1.500000e+02
1.625000e+02
1.750000e+02
1.875000e+02
2.000000e+02
0.000000e+00
1.250000e+01
2.500000e+01
3.750000e+01
5.000000e+01
6.250000e+01
7.500000e+01
8.750000e+01
1.000000e+02
1.125000e+02
1.250000e+02
1.375000e+02
1.500000e+02
1.625000e+02
1.750000e+02
1.875000e+02
2.000000e+02
0.000000e+00
1.250000e+01
2.500000e+01
3.750000e+01
5.000000e+01
6.250000e+01
7.500000e+01
8.750000e+01
1.000000e+02
1.125000e+02
1.250000e+02
1.375000e+02
1.500000e+02
1.625000e+02
1.750000e+02
1.875000e+02
2.000000e+02
0.000000e+00
1.250000e+01
2.500000e+01
3.750000e+01
5.000000e+01
6.250000e+01
7.500000e+01
8.750000e+01
1.000000e+02
1.125000e+02
1.250000e+02
1.375000e+02
1.500000e+02
1.625000e+02
1.750000e+02
1.875000e+02
2.000000e+02
0.000000e+00
1.250000e+01
2.500000e+01
3.750000e+01
5.000000e+01
6.250000e+01
7.500000e+01
8.750000e+01
1.000000e+02
1.125000e+02
1.250000e+02
1.375000e+02
1.500000e+02
1.625000e+02
1.750000e+02
1.875000e+02
2.000000e+02
0.000000e+00
0.000000e+00
0.000000e+00
0.000000e+00
0.000000e+00
0.000000e+00
0.000000e+00
0.000000e+00
0.000000e+00
0.000000e+00
0.000000e+00
0.000000e+00
0.000000e+00
0.000000e+00
0.000000e+00
0.000000e+00
0.000000e+00
1.250000e+01
1.250000e+01
1.250000e+01
1.250000e+01
1.250000e+01
1.250000e+01
1.250000e+01
1.250000e+01
1.250000e+01
1.250000e+01
1.250000e+01
1.250000e+01
1.250000e+01
1.250000e+01
1.250000e+01
1.250000e+01
1.250000e+01
2.500000e+01
2.500000e+01
2.500000e+01
2.500000e+01
2.500000e+01
2.500000e+01
2.500000e+01
2.500000e+01
2.500000e+01
2.500000e+01
2.500000e+01
2.500000e+01
2.500000e+01
2.500000e+01
2.500000e+01
2.500000e+01
2.500000e+01
3.750000e+01
3.750000e+01
3.750000e+01
3.750000e+01
3.750000e+01
3.750000e+01
3.750000e+01
3.750000e+01
3.750000e+01
3.750000e+01
3.750000e+01
3.750000e+01
3.750000e+01
3.750000e+01
3.750000e+01
3.750000e+01
3.750000e+01
5.000000e+01
5.000000e+01
5.000000e+01
5.000000e+01
5.000000e+01
5.000000e+01
5.000000e+01
5.000000e+01
5.000000e+01
5.000000e+01
5.000000e+01
5.000000e+01
5.000000e+01
5.000000e+01
5.000000e+01
5.000000e+01
5.000000e+01
6.250000e+01
6.250000e+01
6.250000e+01
6.250000e+01
6.250000e+01
6.250000e+01
6.250000e+01
6.250000e+01
6.250000e+01
6.250000e+01
6.250000e+01
6.250000e+01
6.250000e+01
6.250000e+01
6.250000e+01
6.250000e+01
6.250000e+01
7.500000e+01
7.500000e+01
7.500000e+01
7.500000e+01
7.500000e+01
7.500000e+01
7.500000e+01
7.500000e+01
7.500000e+01
7.500000e+01
7.500000e+01
7.500000e+01
7.500000e+01
7.500000e+01
7.500000e+01
7.500000e+01
7.500000e+01
8.750000e+01
8.750000e+01
8.750000e+01
8.750000e+01
8.750000e+01
8.750000e+01
8.750000e+01
8.750000e+01
8.750000e+01
8.750000e+01
8.750000e+01
8.750000e+01
8.750000e+01
8.750000e+01
8.750000e+01
8.750000e+01
8.750000e+01
1.000000e+02
1.000000e+02
1.000000e+02
1.000000e+02
1.000000e+02
1.000000e+02
1.000000e+02
1.000000e+02
1.000000e+02
1.000000e+02
1.000000e+02
1.000000e+02
1.000000e+02
1.000000e+02
1.000000e+02
1.000000e+02
1.000000e+02
0.000000e+00
-7.167899e-02
-1.319837e-01
-1.874719e-01
-2.391470e-01
-2.868999e-01
-3.306282e-01
-3.702980e-01
-4.059669e-01
-4.377993e-01
-4.661107e-01
-4.914544e-01
-5.147824e-01
-5.377391e-01
-5.631607e-01
-5.943816e-01
-6.178095e-01
0.000000e+00
-4.280540e-02
-8.891988e-02
-1.315037e-01
-1.707365e-01
-2.067675e-01
-2.396713e-01
-2.694922e-01
-2.962837e-01
-3.201284e-01
-3.411474e-01
-3.594922e-01
-3.752798e-01
-3.883476e-01
-3.975651e-01
-3.995854e-01
-4.068287e-01
0.000000e+00
-2.676926e-02
-5.504429e-02
-8.325285e-02
-1.095847e-01
-1.337610e-01
-1.557622e-01
-1.756132e-01
-1.933188e-01
-2.088495e-01
-2.221218e-01
-2.329502e-01
-2.409487e-01
-2.454136e-01
-2.455376e-01
-2.437539e-01
-2.511416e-01
0.000000e+00
-1.292049e-02
-2.659857e-02
-4.036304e-02
-5.352438e-02
-6.564680e-02
-7.663459e-02
-8.645575e-02
-9.505406e-02
-1.023176e-01
-1.080608e-01
-1.120125e-01
-1.138493e-01
-1.134202e-01
-1.116572e-01
-1.121393e-01
-1.176401e-01
0.000000e+00
-1.190249e-05
-2.705808e-05
-4.216392e-05
-5.018100e-05
-3.541262e-05
3.329718e-05
2.118540e-04
5.919785e-04
1.310294e-03
2.545044e-03
4.475290e-03
7.149416e-03
1.017131e-02
1.225875e-02
1.168624e-02
8.044191e-03
0.000000e+00
1.290218e-02
2.655605e-02
4.029503e-02
5.343979e-02
6.557800e-02
7.666128e-02
8.674385e-02
9.591311e-02
1.042754e-01
1.119401e-01
1.189637e-01
1.252245e-01
1.302449e-01
1.331981e-01
1.334324e-01
1.315838e-01
0.000000e+00
2.676625e-02
5.503513e-02
8.323462e-02
1.095562e-01
1.337256e-01
1.557329e-01
1.756227e-01
1.934365e-01
2.092057e-01
2.229442e-01
2.346183e-01
2.440939e-01
2.510995e-01
2.553044e-01
2.566697e-01
2.562386e-01
0.000000e+00
4.282296e-02
8.895806e-02
1.315646e-01
1.708181e-01
2.068549e-01
2.397204e-01
2.694025e-01
2.958560e-01
3.190045e-01
3.387382e-01
3.549207e-01
3.674224e-01
3.762020e-01
3.814392e-01
3.836726e-01
3.840828e-01
0.000000e+00
7.170836e-02
1.320612e-01
1.876170e-01
2.393788e-01
2.872259e-01
3.310171e-01
3.706250e-01
4.059171e-01
4.367101e-01
4.627368e-01
4.836503e-01
4.991071e-01
5.089857e-01
5.137631e-01
5.149423e-01
5.149196e-01
0.000000e+00
-4.338928e-02
-8.517822e-02
-1.393270e-01
-2.057834e-01
-2.844231e-01
-3.743849e-01
-4.746620e-01
-5.841881e-01
-7.019111e-01
-8.268591e-01
-9.582585e-01
-1.095792e+00
-1.240195e+00
-1.395213e+00
-1.572582e+00
-1.827430e+00
0.000000e+00
-2.671124e-02
-7.030397e-02
-1.251242e-01
-1.926667e-01
-2.723796e-01
-3.634312e-01
-4.647902e-01
-5.753779e-01
-6.941231e-01
-8.200270e-01
-9.522807e-01
-1.090518e+00
-1.235455e+00
-1.390412e+00
-1.566705e+00
-1.782682e+00
0.000000e+00
-2.015601e-02
-5.999240e-02
-1.150149e-01
-1.831960e-01
-2.637294e-01
-3.556179e-01
-4.578203e-01
-5.692652e-01
-6.888966e-01
-8.157352e-01
-9.489996e-01
-1.088359e+00
-1.234410e+00
-1.389500e+00
-1.556544e+00
-1.718207e+00
0.000000e+00
-1.736903e-02
-5.486554e-02
-1.090811e-01
-1.775087e-01
-2.585377e-01
-3.509992e-01
-4.538120e-01
-5.659251e-01
-6.863111e-01
-8.140118e-01
-9.482307e-01
-1.088479e+00
-1.234692e+00
-1.386680e+00
-1.540169e+00
-1.681568e+00
0.000000e+00
-1.656616e-02
-5.331392e-02
-1.071882e-01
-1.756343e-01
-2.568651e-01
-3.495924e-01
-4.527362e-01
-5.652654e-01
-6.861694e-01
-8.144687e-01
-9.492408e-01
-1.089614e+00
-1.234554e+00
-1.381891e+00
-1.526586e+00
-1.659886e+00
0.000000e+00
-1.735872e-02
-5.485821e-02
-1.090942e-01
-1.775728e-01
-2.587067e-01
-3.513606e-01
-4.544965e-01
-5.671052e-01
-6.881713e-01
-8.166515e-01
-9.514299e-01
-1.091203e+00
-1.234191e+00
-1.377648e+00
-1.517381e+00
-1.647836e+00
0.000000e+00
-2.013919e-02
-5.998024e-02
-1.150367e-01
-1.833041e-01
-2.640152e-01
-3.562307e-01
-4.589826e-01
-5.712718e-01
-6.920653e-01
-8.202497e-01
-9.545375e-01
-1.093311e+00
-1.234425e+00
-1.375101e+00
-1.512153e+00
-1.642521e+00
0.000000e+00
-2.669547e-02
-7.029338e-02
-1.251531e-01
-1.927965e-01
-2.727157e-01
-3.641445e-01
-4.661336e-01
-5.776829e-01
-6.977406e-01
-8.251475e-01
-9.585242e-01
-1.096115e+00
-1.235659e+00
-1.374463e+00
-1.509991e+00
-1.641273e+00
0.000000e+00
-4.338276e-02
-8.517913e-02
-1.393718e-01
-2.059338e-01
-2.847823e-01
-3.751148e-01
-4.759937e-01
-5.864083e-01
-7.052884e-01
-8.314469e-01
-9.634739e-01
-1.099601e+00
-1.237618e+00
-1.375005e+00
-1.509596e+00
-1.641293e+00


0.000000e+00
9.316020e-08
1.866698e-07
2.735098e-07
3.549428e-07
4.305089e-07
4.998925e-07
5.630760e-07
6.201881e-07
6.714702e-07
7.172635e-07
7.579476e-07
7.937452e-07
8.243761e-07
8.494476e-07
8.708741e-07
8.899412e-07
0.000000e+00
5.240230e-08
1.275104e-07
1.950408e-07
2.569527e-07
3.140172e-07
3.661840e-07
4.134553e-07
4.558703e-07
4.934608e-07
5.262167e-07
5.540423e-07
5.767972e-07
5.949504e-07
6.115316e-07
6.312149e-07
6.514765e-07
0.000000e+00
3.302426e-08
8.058945e-08
1.252134e-07
1.668087e-07
2.050614e-07
2.398223e-07
2.710511e-07
2.987014e-07
3.226812e-07
3.428540e-07
3.591227e-07
3.717427e-07
3.820102e-07
3.928406e-07
4.074765e-07
4.243889e-07
0.000000e+00
1.613440e-08
3.863551e-08
6.049037e-08
8.129012e-08
1.003962e-07
1.176030e-07
1.328325e-07
1.459961e-07
1.569798e-07
1.656888e-07
1.721748e-07
1.768766e-07
1.809028e-07
1.860907e-07
1.946215e-07
2.063624e-07
0.000000e+00
1.683640e-11
2.081834e-11
-9.016940e-12
-1.013174e-10
-3.017873e-10
-6.774380e-10
-1.317446e-09
-2.325278e-09
-3.792961e-09
-5.744657e-09
-8.042382e-09
-1.027562e-08
-1.169197e-08
-1.113289e-08
-7.117570e-09
5.947301e-10
0.000000e+00
-1.610293e-08
-3.859332e-08
-6.049220e-08
-8.143774e-08
-1.008680e-07
-1.186914e-07
-1.349848e-07
-1.498430e-07
-1.633249e-07
-1.754043e-07
-1.859167e-07
-1.945261e-07
-2.007306e-07
-2.039099e-07
-2.033034e-07
-1.990792e-07
0.000000e+00
-3.300444e-08
-8.056020e-08
-1.251961e-07
-1.668436e-07
-2.052249e-07
-2.402476e-07
-2.719519e-07
-3.003942e-07
-3.255927e-07
-3.474870e-07
-3.659044e-07
-3.805534e-07
-3.910918e-07
-3.973453e-07
-3.994278e-07
-3.981805e-07
0.000000e+00
-5.242222e-08
-1.275500e-07
-1.950768e-07
-2.569463e-07
-3.139023e-07
-3.658519e-07
-4.127381e-07
-4.545251e-07
-4.911613e-07
-5.225642e-07
-5.486109e-07
-5.691404e-07
-5.840170e-07
-5.933724e-07
-5.979720e-07
-5.990832e-07
0.000000e+00
-9.327024e-08
-1.868648e-07
-2.737509e-07
-3.551489e-07
-4.305107e-07
-4.993695e-07
-5.614740e-07
-6.166228e-07
-6.646321e-07
-7.053572e-07
-7.387345e-07
-7.648222e-07
-7.838354e-07
-7.962194e-07
-8.026209e-07
-8.046771e-07
0.000000e+00
8.433664e-08
1.645217e-07
2.544966e-07
3.618083e-07
4.875642e-07
6.309391e-07
7.906071e-07
9.650407e-07
1.152757e-06
1.352485e-06
1.563444e-06
1.786057e-06
2.023525e-06
2.281711e-06
2.555963e-06
2.828063e-06
0.000000e+00
5.101433e-08
1.289476e-07
2.196290e-07
3.290310e-07
4.573154e-07
6.034049e-07
7.658006e-07
9.429356e-07
1.133306e-06
1.335620e-06
1.549033e-06
1.773566e-06
2.010625e-06
2.262528e-06
2.529824e-06
2.798343e-06
0.000000e+00
3.249318e-08
1.004294e-07
1.910123e-07
3.019916e-07
4.324677e-07
5.809193e-07
7.457304e-07
9.253073e-07
1.118140e-06
1.322890e-06
1.538506e-06
1.764267e-06
1.999510e-06
2.243847e-06
2.501384e-06
2.761248e-06
0.000000e+00
2.384016e-08
8.542705e-08
1.743261e-07
2.860328e-07
4.178670e-07
5.678562e-07
7.342819e-07
9.155287e-07
1.110059e-06
1.316424e-06
1.533247e-06
1.759073e-06
1.992084e-06
2.230823e-06
2.478429e-06
2.725352e-06
0.000000e+00
2.135355e-08
8.087836e-08
1.689585e-07
2.808617e-07
4.132396e-07
5.638922e-07
7.310550e-07
9.130919e-07
1.108408e-06
1.315405e-06
1.532398e-06
1.757449e-06
1.988149e-06
2.222130e-06
2.460852e-06
2.695045e-06
0.000000e+00
2.385943e-08
8.549927e-08
1.745047e-07
2.863878e-07
4.184935e-07
5.688730e-07
7.358145e-07
9.176644e-07
1.112756e-06
1.319345e-06
1.535525e-06
1.759074e-06
1.987252e-06
2.217100e-06
2.448404e-06
2.673312e-06
0.000000e+00
3.252425e-08
1.005552e-07
1.913253e-07
3.026141e-07
4.335679e-07
5.827069e-07
7.484272e-07
9.290688e-07
1.122894e-06
1.328038e-06
1.542439e-06
1.763720e-06
1.989023e-06
2.215190e-06
2.440945e-06
2.660072e-06
0.000000e+00
5.105378e-08
1.291073e-07
2.200145e-07
3.297907e-07
4.586512e-07
6.055664e-07
7.690460e-07
9.474326e-07
1.138931e-06
1.341582e-06
1.553212e-06
1.771360e-06
1.993218e-06
2.215876e-06
2.437592e-06
2.653752e-06
0.000000e+00
8.440202e-08
1.647084e-07
2.549124e-07
3.625994e-07
4.889233e-07
6.330941e-07
7.937736e-07
9.693104e-07
1.157880e-06
1.357474e-06
1.565862e-06
1.780562e-06
1.998878e-06
2.218247e-06
2.437046e-06
2.651909e-06


2.094395e-01
2.094394e-01
2.094396e-01
2.094399e-01
2.094403e-01
2.094406e-01
2.094409e-01
2.094411e-01
2.094413e-01
2.094415e-01
2.094417e-01
2.094418e-01
2.094419e-01
2.094418e-01
2.094416e-01
2.094415e-01
2.094400e-01
2.094400e-01
2.094401e-01
2.094403e-01
2.094406e-01
2.094408e-01
2.094411e-01
2.094413e-01
2.094414e-01
2.094416e-01
2.094417e-01
2.094418e-01
2.094419e-01
2.094418e-01
2.094416e-01
2.094414e-01
2.094410e-01
2.094409e-01
2.094409e-01
2.094410e-01
2.094412e-01
2.094413e-01
2.094414e-01
2.094416e-01
2.094417e-01
2.094418e-01
2.094418e-01
2.094419e-01
2.094419e-01
2.094418e-01
2.094416e-01
2.094415e-01
2.094416e-01
2.094415e-01
2.094415e-01
2.094415e-01
2.094416e-01
2.094416e-01
2.094417e-01
2.094418e-01
2.094418e-01
2.094418e-01
2.094419e-01
2.094419e-01
2.094419e-01
2.094418e-01
2.094417e-01
2.094417e-01
2.094416e-01
2.094415e-01
2.094415e-01
2.094415e-01
2.094416e-01
2.094416e-01
2.094417e-01
2.094417e-01
2.094418e-01
2.094418e-01
2.094418e-01
2.094419e-01
2.094419e-01
2.094419e-01
2.094419e-01
2.094419e-01
2.094410e-01
2.094409e-01
2.094409e-01
2.094410e-01
2.094412e-01
2.094413e-01
2.094414e-01
2.094415e-01
2.094416e-01
2.094417e-01
2.094418e-01
2.094418e-01
2.094419e-01
2.094419e-01
2.094420e-01
2.094420e-01
2.094400e-01
2.094399e-01
2.094401e-01
2.094403e-01
2.094406e-01
2.094408e-01
2.094411e-01
2.094413e-01
2.094414e-01
2.094416e-01
2.094417e-01
2.094418e-01
2.094419e-01
2.094420e-01
2.094421e-01
2.094421e-01
2.094394e-01
2.094394e-01
2.094396e-01
2.094399e-01
2.094403e-01
2.094406e-01
2.094409e-01
2.094411e-01
2.094413e-01
2.094415e-01
2.094417e-01
2.094418e-01
2.094420e-01
2.094421e-01
2.094421e-01
2.094422e-01


9.884406e-01
9.900798e-01
9.915962e-01
9.927635e-01
9.938470e-01
9.948461e-01
9.957563e-01
9.965671e-01
9.972697e-01
9.978574e-01
9.983247e-01
9.986670e-01
9.988798e-01
9.989557e-01
9.990105e-01
9.956323e-01
9.956269e-01
9.948757e-01
9.953590e-01
9.959898e-01
9.965778e-01
9.971123e-01
9.975962e-01
9.980344e-01
9.984312e-01
9.987906e-01
9.991168e-01
9.994121e-01
9.996697e-01
9.998384e-01
9.994118e-01
9.936290e-01
9.984805e-01
9.980491e-01
9.979326e-01
9.980965e-01
9.983120e-01
9.985207e-01
9.987146e-01
9.988977e-01
9.990751e-01
9.992481e-01
9.994096e-01
9.995347e-01
9.995608e-01
9.993356e-01
9.985185e-01
9.970489e-01
9.996908e-01
9.993761e-01
9.991817e-01
9.991324e-01
9.991521e-01
9.991851e-01
9.992181e-01
9.992504e-01
9.992820e-01
9.993085e-01
9.993159e-01
9.992765e-01
9.991515e-01
9.989273e-01
9.987371e-01
9.986890e-01
9.996919e-01
9.993777e-01
9.991832e-01
9.991321e-01
9.991472e-01
9.991710e-01
9.991876e-01
9.991931e-01
9.991855e-01
9.991612e-01
9.991158e-01
9.990504e-01
9.989882e-01
9.990005e-01
9.991765e-01
9.994812e-01
9.984827e-01
9.980524e-01
9.979358e-01
9.980965e-01
9.983036e-01
9.984949e-01
9.986568e-01
9.987868e-01
9.988843e-01
9.989499e-01
9.989914e-01
9.990319e-01
9.991171e-01
9.992957e-01
9.995640e-01
9.998415e-01
9.956265e-01
9.948754e-01
9.953583e-01
9.959879e-01
9.965732e-01
9.971018e-01
9.975744e-01
9.979928e-01
9.983574e-01
9.986691e-01
9.989329e-01
9.991633e-01
9.993852e-01
9.996179e-01
9.998354e-01
9.999725e-01
9.884328e-01
9.900675e-01
9.915811e-01
9.927465e-01
9.938318e-01
9.948406e-01
9.957752e-01
9.966333e-01
9.974152e-01
9.981194e-01
9.987374e-01
9.992501e-01
9.996315e-01
9.998669e-01
9.999739e-01
9.999994e-01
1 2 19 18
2 3 20 19
3 4 21 20
4 5 22 21
5 6 23 22
6 7 24 23
7 8 25 24
8 9 26 25
9 10 27 26
10 11 28 27
11 12 29 28
12 13 30 29
13 14 31 30
14 15 32 31
15 16 33 32
16 17 34 33
18 19 36 35
19 20 37 36
20 21 38 37
21 22 39 38
22 23 40 39
23 24 41 40
24 25 42 41
25 26 43 42
26 27 44 43
27 28 45 44
28 29 46 45
29 30 47 46
30 31 48 47
31 32 49 48
32 33 50 49
33 34 51 50
35 36 53 52
36 37 54 53
37 38 55 54
38 39 56 55
39 40 57 56
40 41 58 57
41 42 59 58
42 43 60 59
43 44 61 60
44 45 62 61
45 46 63 62
46 47 64 63
47 48 65 64
48 49 66 65
49 50 67 66
50 51 68 67
52 53 70 69
53 54 71 70
54 55 72 71
55 56 73 72
56 57 74 73
57 58 75 74
58 59 76 75
59 60 77 76
60 61 78 77
61 62 79 78
62 63 80 79
63 64 81 80
64 65 82 81
65 66 83 82
66 67 84 83
67 68 85 84
69 70 87 86
70 71 88 87
71 72 89 88
72 73 90 89
73 74 91 90
74 75 92 91
75 76 93 92
76 77 94 93
77 78 95 94
78 79 96 95
79 80 97 96
80 81 98 97
81 82 99 98
82 83 100 99
83 84 101 100
84 85 102 101
86 87 104 103
87 88 105 104
88 89 106 105
89 90 107 106
90 91 108 107
91 92 109 108
92 93 110 109
93 94 111 110
94 95 112 111
95 96 113 112
96 97 114 113
97 98 115 114
98 99 116 115
99 100 117 116
100 101 118 117
101 102 119 118
103 104 121 120
104 105 122 121
105 106 123 122
106 107 124 123
107 108 125 124
108 109 126 125
109 110 127 126
110 111 128 127
111 112 129 128
112 113 130 129
113 114 131 130
114 115 132 131
115 116 133 132
116 117 134 133
117 118 135 134
118 119 136 135
120 121 138 137
121 122 139 138
122 123 140 139
123 124 141 140
124 125 142 141
125 126 143 142
126 127 144 143
127 128 145 144
128 129 146 145
129 130 147 146
130 131 148 147
131 132 149 148
132 133 150 149
133 134 151 150
134 135 152 151
135 136 153 152
