TITLE = "Solution"
VARIABLES = x, y, u, v, psiu, psiv, t, stress
ZONE T="structure" N=153 E=128 F=FEBLOCK ET=QUADRILATERAL VARLOCATION=([7,8]=cellcentered)
0.000000e+00
1.250000e+01
2.500000e+01
3.750000e+01
5.000000e+01
6.250000e+01
7.500000e+01
8.750000e+01
1.000000e+02
1.125000e+02
1.250000e+02
1.375000e+02
1.500000e+02
1.625000e+02
1.750000e+02
1.875000e+02
2.000000e+02
0.000000e+00
1.250000e+01
2.500000e+01
3.750000e+01
5.000000e+01
6.250000e+01
7.500000e+01
8.750000e+01
1.000000e+02
1.125000e+02
1.250000e+02
1.375000e+02
1.500000e+02
1.625000e+02
1.750000e+02
1.875000e+02
2.000000e+02
0.000000e+00
1.250000e+01
2.500000e+01
3.750000e+01
5.000000e+01
6.250000e+01
7.500000e+01
8.750000e+01
1.000000e+02
1.125000e+02
1.250000e+02
1.375000e+02
1.500000e+02
1.625000e+02
1.750000e+02
1.875000e+02
2.000000e+02
0.000000e+00
1.250000e+01
2.500000e+01
3.750000e+01
5.000000e+01
6.250000e+01
7.500000e+01
8.750000e+01
1.000000e+02
1.125000e+02
1.250000e+02
1.375000e+02
1.500000e+02
1.625000e+02
1.750000e+02
1.875000e+02
2.000000e+02
0.000000e+00
1.250000e+01
2.500000e+01
3.750000e+01
5.000000e+01
6.250000e+01
7.500000e+01
8.750000e+01
1.000000e+02
1.125000e+02
1.250000e+02
1.375000e+02
1.500000e+02
1.625000e+02
1.750000e+02
1.875000e+02
2.000000e+02
0.000000e+00
1.250000e+01
2.500000e+01
3.750000e+01
5.000000e+01
6.250000e+01
7.500000e+01
8.750000e+01
1.000000e+02
1.125000e+02
1.250000e+02
1.375000e+02
1.500000e+02
1.625000e+02
1.750000e+02
1.875000e+02
2.000000e+02
0.000000e+00
1.250000e+01
2.500000e+01
3.750000e+01
5.000000e+01
6.250000e+01
7.500000e+01
8.750000e+01
1.000000e+02
1.125000e+02
1.250000e+02
1.375000e+02
1.500000e+02
1.625000e+02
1.750000e+02
1.875000e+02
2.000000e+02
0.000000e+00
1.250000e+01
2.500000e+01
3.750000e+01
5.000000e+01
6.250000e+01
7.500000e+01
8.750000e+01
1.000000e+02
1.125000e+02
1.250000e+02
1.375000e+02
1.500000e+02
1.625000e+02
1.750000e+02
1.875000e+02
2.000000e+02
0.000000e+00
1.250000e+01
2.500000e+01
3.750000e+01
5.000000e+01
6.250000e+01
7.500000e+01
8.750000e+01
1.000000e+02
1.125000e+02
1.250000e+02
1.375000e+02
1.500000e+02
1.625000e+02
1.750000e+02
1.875000e+02
2.000000e+02
0.000000e+00
0.000000e+00
0.000000e+00
0.000000e+00
0.000000e+00
0.000000e+00
0.000000e+00
0.000000e+00
0.000000e+00
0.000000e+00
0.000000e+00
0.000000e+00
0.000000e+00
0.000000e+00
0.000000e+00
0.000000e+00
0.000000e+00
1.250000e+01
1.250000e+01
1.250000e+01
1.250000e+01
1.250000e+01
1.250000e+01
1.250000e+01
1.250000e+01
1.250000e+01
1.250000e+01
1.250000e+01
1.250000e+01
1.250000e+01
1.250000e+01
1.250000e+01
1.250000e+01
1.250000e+01
2.500000e+01
2.500000e+01
2.500000e+01
2.500000e+01
2.500000e+01
2.500000e+01
2.500000e+01
2.500000e+01
2.500000e+01
2.500000e+01
2.500000e+01
2.500000e+01
2.500000e+01
2.500000e+01
2.500000e+01
2.500000e+01
2.500000e+01
3.750000e+01
3.750000e+01
3.750000e+01
3.750000e+01
3.750000e+01
3.750000e+01
3.750000e+01
3.750000e+01
3.750000e+01
3.750000e+01
3.750000e+01
3.750000e+01
3.750000e+01
3.750000e+01
3.750000e+01
3.750000e+01
3.750000e+01
5.000000e+01
5.000000e+01
5.000000e+01
5.000000e+01
5.000000e+01
5.000000e+01
5.000000e+01
5.000000e+01
5.000000e+01
5.000000e+01
5.000000e+01
5.000000e+01
5.000000e+01
5.000000e+01
5.000000e+01
5.000000e+01
5.000000e+01
6.250000e+01
6.250000e+01
6.250000e+01
6.250000e+01
6.250000e+01
6.250000e+01
6.250000e+01
6.250000e+01
6.250000e+01
6.250000e+01
6.250000e+01
6.250000e+01
6.250000e+01
6.250000e+01
6.250000e+01
6.250000e+01
6.250000e+01
7.500000e+01
7.500000e+01
7.500000e+01
7.500000e+01
7.500000e+01
7.500000e+01
7.500000e+01
7.500000e+01
7.500000e+01
7.500000e+01
7.500000e+01
7.500000e+01
7.500000e+01
7.500000e+01
7.500000e+01
7.500000e+01
7.500000e+01
8.750000e+01
8.750000e+01
8.750000e+01
8.750000e+01
8.750000e+01
8.750000e+01
8.750000e+01
8.750000e+01
8.750000e+01
8.750000e+01
8.750000e+01
8.750000e+01
8.750000e+01
8.750000e+01
8.750000e+01
8.750000e+01
8.750000e+01
1.000000e+02
1.000000e+02
1.000000e+02
1.000000e+02
1.000000e+02
1.000000e+02
1.000000e+02
1.000000e+02
1.000000e+02
1.000000e+02
1.000000e+02
1.000000e+02
1.000000e+02
1.000000e+02
1.000000e+02
1.000000e+02
1.000000e+02
0.000000e+00
-7.145291e-02
-1.315675e-01
-1.868806e-01
-2.383927e-01
-2.859950e-01
-3.295854e-01
-3.691300e-01
-4.046864e-01
-4.364183e-01
-4.646404e-01
-4.899042e-01
-5.131586e-01
-5.360429e-01
-5.613843e-01
-5.925066e-01
-6.158606e-01
0.000000e+00
-4.267039e-02
-8.863943e-02
-1.310889e-01
-1.701980e-01
-2.061153e-01
-2.389154e-01
-2.686421e-01
-2.953491e-01
-3.191187e-01
-3.400714e-01
-3.583582e-01
-3.740960e-01
-3.871226e-01
-3.963110e-01
-3.983249e-01
-4.055454e-01
0.000000e+00
-2.668483e-02
-5.487069e-02
-8.299027e-02
-1.092391e-01
-1.333391e-01
-1.552709e-01
-1.750593e-01
-1.927090e-01
-2.081908e-01
-2.214212e-01
-2.322154e-01
-2.401887e-01
-2.446395e-01
-2.447631e-01
-2.429850e-01
-2.503494e-01
0.000000e+00
-1.287974e-02
-2.651468e-02
-4.023574e-02
-5.335557e-02
-6.543975e-02
-7.639288e-02
-8.618306e-02
-9.475424e-02
-1.019949e-01
-1.077200e-01
-1.116592e-01
-1.134902e-01
-1.130624e-01
-1.113050e-01
-1.117856e-01
-1.172691e-01
0.000000e+00
-1.186492e-05
-2.697267e-05
-4.203082e-05
-5.002258e-05
-3.530076e-05
3.319231e-05
2.111858e-04
5.901110e-04
1.306160e-03
2.537014e-03
4.461171e-03
7.126860e-03
1.013922e-02
1.222007e-02
1.164936e-02
8.018811e-03
0.000000e+00
1.286149e-02
2.647230e-02
4.016795e-02
5.327124e-02
6.537116e-02
7.641949e-02
8.647024e-02
9.561058e-02
1.039465e-01
1.115870e-01
1.185885e-01
1.248295e-01
1.298340e-01
1.327780e-01
1.330115e-01
1.311687e-01
0.000000e+00
2.668184e-02
5.486156e-02
8.297211e-02
1.092107e-01
1.333038e-01
1.552417e-01
1.750688e-01
1.928263e-01
2.085458e-01
2.222410e-01
2.338783e-01
2.433239e-01
2.503074e-01
2.544991e-01
2.558601e-01
2.554304e-01
0.000000e+00
4.268790e-02
8.867749e-02
1.311496e-01
1.702794e-01
2.062024e-01
2.389643e-01
2.685528e-01
2.949228e-01
3.179983e-01
3.376698e-01
3.538011e-01
3.662634e-01
3.750153e-01
3.802360e-01
3.824624e-01
3.828713e-01
0.000000e+00
7.148218e-02
1.316447e-01
1.870253e-01
2.386238e-01
2.863200e-01
3.299730e-01
3.694560e-01
4.046368e-01
4.353325e-01
4.612772e-01
4.821247e-01
4.975328e-01
5.073802e-01
5.121425e-01
5.133180e-01
5.132953e-01
0.000000e+00
-4.325242e-02
-8.490956e-02
-1.388875e-01
-2.051343e-01
-2.835259e-01
-3.732040e-01
-4.731648e-01
-5.823454e-01
-6.996971e-01
-8.242509e-01
-9.552358e-01
-1.092336e+00
-1.236283e+00
-1.390812e+00
-1.567622e+00
-1.821665e+00
0.000000e+00
-2.662699e-02
-7.008222e-02
-1.247295e-01
-1.920590e-01
-2.715204e-01
-3.622849e-01
-4.633242e-01
-5.735630e-01
-6.919337e-01
-8.174404e-01
-9.492770e-01
-1.087078e+00
-1.231558e+00
-1.386026e+00
-1.561763e+00
-1.777059e+00
0.000000e+00
-2.009243e-02
-5.980317e-02
-1.146522e-01
-1.826182e-01
-2.628975e-01
-3.544963e-01
-4.563762e-01
-5.674696e-01
-6.867237e-01
-8.131621e-01
-9.460062e-01
-1.084926e+00
-1.230516e+00
-1.385117e+00
-1.551634e+00
-1.712787e+00
0.000000e+00
-1.731424e-02
-5.469248e-02
-1.087370e-01
-1.769488e-01
-2.577222e-01
-3.498920e-01
-4.523806e-01
-5.641400e-01
-6.841463e-01
-8.114442e-01
-9.452397e-01
-1.085046e+00
-1.230797e+00
-1.382306e+00
-1.535311e+00
-1.676264e+00
0.000000e+00
-1.651390e-02
-5.314575e-02
-1.068501e-01
-1.750804e-01
-2.560549e-01
-3.484897e-01
-4.513081e-01
-5.634824e-01
-6.840051e-01
-8.118997e-01
-9.462466e-01
-1.086177e+00
-1.230660e+00
-1.377532e+00
-1.521771e+00
-1.654650e+00
0.000000e+00
-1.730397e-02
-5.468517e-02
-1.087501e-01
-1.770127e-01
-2.578907e-01
-3.502523e-01
-4.530629e-01
-5.653165e-01
-6.860006e-01
-8.140756e-01
-9.484288e-01
-1.087761e+00
-1.230298e+00
-1.373302e+00
-1.512595e+00
-1.642638e+00
0.000000e+00
-2.007567e-02
-5.979105e-02
-1.146739e-01
-1.827259e-01
-2.631825e-01
-3.551071e-01
-4.575349e-01
-5.694699e-01
-6.898823e-01
-8.176625e-01
-9.515266e-01
-1.089862e+00
-1.230532e+00
-1.370764e+00
-1.507383e+00
-1.637340e+00
0.000000e+00
-2.661127e-02
-7.007167e-02
-1.247584e-01
-1.921883e-01
-2.718555e-01
-3.629959e-01
-4.646634e-01
-5.758608e-01
-6.955397e-01
-8.225448e-01
-9.555008e-01
-1.092657e+00
-1.231761e+00
-1.370128e+00
-1.505228e+00
-1.636096e+00
0.000000e+00
-4.324593e-02
-8.491047e-02
-1.389322e-01
-2.052842e-01
-2.838840e-01
-3.739316e-01
-4.744923e-01
-5.845586e-01
-7.030637e-01
-8.288243e-01
-9.604348e-01
-1.096133e+00
-1.233715e+00
-1.370668e+00
-1.504834e+00
-1.636115e+00


0.000000e+00
9.512858e-08
1.906118e-07
2.792862e-07
3.624422e-07
4.396103e-07
5.104676e-07
5.749954e-07
6.333247e-07
6.857013e-07
7.324732e-07
7.740277e-07
8.105917e-07
8.418786e-07
8.674869e-07
8.893714e-07
9.088454e-07
0.000000e+00
5.350566e-08
1.301969e-07
1.991533e-07
2.623754e-07
3.206500e-07
3.739253e-07
4.222029e-07
4.655223e-07
5.039155e-07
5.373717e-07
5.657929e-07
5.890354e-07
6.075778e-07
6.245146e-07
6.446189e-07
6.653129e-07
0.000000e+00
3.371706e-08
8.228411e-08
1.278500e-07
1.703255e-07
2.093895e-07
2.448893e-07
2.767832e-07
3.050234e-07
3.295155e-07
3.501198e-07
3.667369e-07
3.796276e-07
3.901154e-07
4.011781e-07
4.161269e-07
4.334004e-07
0.000000e+00
1.647211e-08
3.944725e-08
6.176325e-08
8.300299e-08
1.025143e-07
1.200868e-07
1.356408e-07
1.490852e-07
1.603036e-07
1.691989e-07
1.758239e-07
1.806266e-07
1.847391e-07
1.900381e-07
1.987512e-07
2.107429e-07
0.000000e+00
1.720762e-11
2.128802e-11
-9.170057e-12
-1.034270e-10
-3.081650e-10
-6.918294e-10
-1.345506e-09
-2.374880e-09
-3.873955e-09
-5.867422e-09
-8.214368e-09
-1.049552e-08
-1.194238e-08
-1.137153e-08
-7.270382e-09
6.068641e-10
0.000000e+00
-1.643994e-08
-3.940411e-08
-6.176505e-08
-8.315367e-08
-1.029960e-07
-1.211984e-07
-1.378389e-07
-1.530141e-07
-1.667843e-07
-1.791221e-07
-1.898597e-07
-1.986537e-07
-2.049914e-07
-2.082391e-07
-2.076196e-07
-2.033050e-07
0.000000e+00
-3.369680e-08
-8.225420e-08
-1.278322e-07
-1.703610e-07
-2.095565e-07
-2.453236e-07
-2.777032e-07
-3.067523e-07
-3.324893e-07
-3.548519e-07
-3.736637e-07
-3.886268e-07
-3.993912e-07
-4.057788e-07
-4.079060e-07
-4.066320e-07
0.000000e+00
-5.352600e-08
-1.302374e-07
-1.991900e-07
-2.623688e-07
-3.205325e-07
-3.735861e-07
-4.214703e-07
-4.641483e-07
-5.015667e-07
-5.336410e-07
-5.602451e-07
-5.812143e-07
-5.964098e-07
-6.059657e-07
-6.106640e-07
-6.117990e-07
0.000000e+00
-9.524097e-08
-1.908110e-07
-2.795325e-07
-3.626527e-07
-4.396121e-07
-5.099334e-07
-5.733591e-07
-6.296830e-07
-6.787167e-07
-7.203118e-07
-7.544029e-07
-7.810489e-07
-8.004693e-07
-8.131187e-07
-8.196575e-07
-8.217578e-07
0.000000e+00
8.611848e-08
1.680022e-07
2.598849e-07
3.694718e-07
4.978938e-07
6.443087e-07
8.073630e-07
9.854973e-07
1.177198e-06
1.381167e-06
1.596605e-06
1.823949e-06
2.066465e-06
2.330141e-06
2.610225e-06
2.888111e-06
0.000000e+00
5.209414e-08
1.316783e-07
2.242810e-07
3.360008e-07
4.670035e-07
6.161893e-07
7.820283e-07
9.629208e-07
1.157332e-06
1.363940e-06
1.581886e-06
1.811190e-06
2.053288e-06
2.310548e-06
2.583529e-06
2.857756e-06
0.000000e+00
3.318325e-08
1.025587e-07
1.950594e-07
3.083886e-07
4.416282e-07
5.932254e-07
7.615304e-07
9.449163e-07
1.141841e-06
1.350938e-06
1.571134e-06
1.801693e-06
2.041936e-06
2.291468e-06
2.554481e-06
2.819870e-06
0.000000e+00
2.434776e-08
8.723938e-08
1.780199e-07
2.920912e-07
4.267171e-07
5.798840e-07
7.498378e-07
9.349289e-07
1.133587e-06
1.344334e-06
1.565762e-06
1.796387e-06
2.034350e-06
2.278165e-06
2.531035e-06
2.783207e-06
0.000000e+00
2.180860e-08
8.259443e-08
1.725386e-07
2.868103e-07
4.219913e-07
5.758357e-07
7.465420e-07
9.324401e-07
1.131901e-06
1.343293e-06
1.564895e-06
1.794728e-06
2.030331e-06
2.269286e-06
2.513083e-06
2.752253e-06
0.000000e+00
2.436743e-08
8.731315e-08
1.782024e-07
2.924538e-07
4.273571e-07
5.809227e-07
7.514032e-07
9.371103e-07
1.136342e-06
1.347318e-06
1.568089e-06
1.796387e-06
2.029415e-06
2.264147e-06
2.500368e-06
2.730055e-06
0.000000e+00
3.321498e-08
1.026872e-07
1.953791e-07
3.090245e-07
4.427520e-07
5.950514e-07
7.642851e-07
9.487584e-07
1.146696e-06
1.356196e-06
1.575151e-06
1.801133e-06
2.031224e-06
2.262197e-06
2.492749e-06
2.716531e-06
0.000000e+00
5.213443e-08
1.318414e-07
2.246747e-07
3.367767e-07
4.683679e-07
6.183972e-07
7.853432e-07
9.675142e-07
1.163077e-06
1.370031e-06
1.586155e-06
1.808937e-06
2.035508e-06
2.262897e-06
2.489324e-06
2.710076e-06
0.000000e+00
8.618523e-08
1.681929e-07
2.603096e-07
3.702798e-07
4.992820e-07
6.465099e-07
8.105974e-07
9.898585e-07
1.182430e-06
1.386262e-06
1.599076e-06
1.818336e-06
2.041290e-06
2.265320e-06
2.488767e-06
2.708193e-06


2.087789e-01
2.087789e-01
2.087790e-01
2.087793e-01
2.087797e-01
2.087799e-01
2.087802e-01
2.087804e-01
2.087806e-01
2.087808e-01
2.087809e-01
2.087810e-01
2.087811e-01
2.087810e-01
2.087808e-01
2.087807e-01
2.087794e-01
2.087794e-01
2.087795e-01
2.087797e-01
2.087799e-01
2.087802e-01
2.087804e-01
2.087805e-01
2.087807e-01
2.087808e-01
2.087810e-01
2.087810e-01
2.087811e-01
2.087810e-01
2.087808e-01
2.087807e-01
2.087803e-01
2.087802e-01
2.087802e-01
2.087803e-01
2.087805e-01
2.087806e-01
2.087807e-01
2.087808e-01
2.087809e-01
2.087810e-01
2.087810e-01
2.087811e-01
2.087811e-01
2.087810e-01
2.087809e-01
2.087808e-01
2.087808e-01
2.087808e-01
2.087807e-01
2.087808e-01
2.087808e-01
2.087809e-01
2.087809e-01
2.087810e-01
2.087810e-01
2.087810e-01
2.087811e-01
2.087811e-01
2.087811e-01
2.087810e-01
2.087810e-01
2.087809e-01
2.087808e-01
2.087808e-01
2.087807e-01
2.087808e-01
2.087808e-01
2.087809e-01
2.087809e-01
2.087810e-01
2.087810e-01
2.087810e-01
2.087810e-01
2.087811e-01
2.087811e-01
2.087811e-01
2.087811e-01
2.087811e-01
2.087803e-01
2.087802e-01
2.087802e-01
2.087803e-01
2.087805e-01
2.087806e-01
2.087807e-01
2.087808e-01
2.087809e-01
2.087809e-01
2.087810e-01
2.087810e-01
2.087811e-01
2.087811e-01
2.087812e-01
2.087812e-01
2.087794e-01
2.087794e-01
2.087795e-01
2.087797e-01
2.087799e-01
2.087802e-01
2.087804e-01
2.087805e-01
2.087807e-01
2.087808e-01
2.087809e-01
2.087810e-01
2.087811e-01
2.087812e-01
2.087813e-01
2.087813e-01
2.087789e-01
2.087789e-01
2.087790e-01
2.087793e-01
2.087797e-01
2.087799e-01
2.087802e-01
2.087804e-01
2.087806e-01
2.087808e-01
2.087809e-01
2.087811e-01
2.087812e-01
2.087812e-01
2.087813e-01
2.087813e-01


9.885134e-01
9.901423e-01
9.916491e-01
9.928091e-01
9.938858e-01
9.948786e-01
9.957831e-01
9.965887e-01
9.972869e-01
9.978709e-01
9.983353e-01
9.986754e-01
9.988869e-01
9.989623e-01
9.990168e-01
9.956598e-01
9.956544e-01
9.949080e-01
9.953882e-01
9.960150e-01
9.965994e-01
9.971305e-01
9.976113e-01
9.980468e-01
9.984411e-01
9.987983e-01
9.991223e-01
9.994158e-01
9.996718e-01
9.998394e-01
9.994155e-01
9.936691e-01
9.984901e-01
9.980614e-01
9.979456e-01
9.981084e-01
9.983226e-01
9.985301e-01
9.987227e-01
9.989046e-01
9.990809e-01
9.992528e-01
9.994133e-01
9.995376e-01
9.995636e-01
9.993397e-01
9.985278e-01
9.970675e-01
9.996927e-01
9.993800e-01
9.991869e-01
9.991379e-01
9.991574e-01
9.991903e-01
9.992230e-01
9.992551e-01
9.992865e-01
9.993128e-01
9.993202e-01
9.992810e-01
9.991569e-01
9.989341e-01
9.987451e-01
9.986973e-01
9.996939e-01
9.993817e-01
9.991883e-01
9.991376e-01
9.991526e-01
9.991762e-01
9.991927e-01
9.991982e-01
9.991907e-01
9.991665e-01
9.991214e-01
9.990564e-01
9.989946e-01
9.990068e-01
9.991817e-01
9.994844e-01
9.984923e-01
9.980647e-01
9.979488e-01
9.981085e-01
9.983143e-01
9.985044e-01
9.986652e-01
9.987945e-01
9.988913e-01
9.989565e-01
9.989977e-01
9.990380e-01
9.991227e-01
9.993002e-01
9.995668e-01
9.998424e-01
9.956540e-01
9.949077e-01
9.953876e-01
9.960132e-01
9.965948e-01
9.971201e-01
9.975897e-01
9.980055e-01
9.983678e-01
9.986775e-01
9.989396e-01
9.991686e-01
9.993891e-01
9.996203e-01
9.998365e-01
9.999726e-01
9.885056e-01
9.901301e-01
9.916341e-01
9.927922e-01
9.938706e-01
9.948731e-01
9.958018e-01
9.966545e-01
9.974315e-01
9.981312e-01
9.987454e-01
9.992549e-01
9.996339e-01
9.998677e-01
9.999741e-01
9.999995e-01
1 2 19 18
2 3 20 19
3 4 21 20
4 5 22 21
5 6 23 22
6 7 24 23
7 8 25 24
8 9 26 25
9 10 27 26
10 11 28 27
11 12 29 28
12 13 30 29
13 14 31 30
14 15 32 31
15 16 33 32
16 17 34 33
18 19 36 35
19 20 37 36
20 21 38 37
21 22 39 38
22 23 40 39
23 24 41 40
24 25 42 41
25 26 43 42
26 27 44 43
27 28 45 44
28 29 46 45
29 30 47 46
30 31 48 47
31 32 49 48
32 33 50 49
33 34 51 50
35 36 53 52
36 37 54 53
37 38 55 54
38 39 56 55
39 40 57 56
40 41 58 57
41 42 59 58
42 43 60 59
43 44 61 60
44 45 62 61
45 46 63 62
46 47 64 63
47 48 65 64
48 49 66 65
49 50 67 66
50 51 68 67
52 53 70 69
53 54 71 70
54 55 72 71
55 56 73 72
56 57 74 73
57 58 75 74
58 59 76 75
59 60 77 76
60 61 78 77
61 62 79 78
62 63 80 79
63 64 81 80
64 65 82 81
65 66 83 82
66 67 84 83
67 68 85 84
69 70 87 86
70 71 88 87
71 72 89 88
72 73 90 89
73 74 91 90
74 75 92 91
75 76 93 92
76 77 94 93
77 78 95 94
78 79 96 95
79 80 97 96
80 81 98 97
81 82 99 98
82 83 100 99
83 84 101 100
84 85 102 101
86 87 104 103
87 88 105 104
88 89 106 105
89 90 107 106
90 91 108 107
91 92 109 108
92 93 110 109
93 94 111 110
94 95 112 111
95 96 113 112
96 97 114 113
97 98 115 114
98 99 116 115
99 100 117 116
100 101 118 117
101 102 119 118
103 104 121 120
104 105 122 121
105 106 123 122
106 107 124 123
107 108 125 124
108 109 126 125
109 110 127 126
110 111 128 127
111 112 129 128
112 113 130 129
113 114 131 130
114 115 132 131
115 116 133 132
116 117 134 133
117 118 135 134
118 119 136 135
120 121 138 137
121 122 139 138
122 123 140 139
123 124 141 140
124 125 142 141
125 126 143 142
126 127 144 143
127 128 145 144
128 129 146 145
129 130 147 146
130 131 148 147
131 132 149 148
132 133 150 149
133 134 151 150
134 135 152 151
135 136 153 152
