TITLE = "Solution"
VARIABLES = x, y, u, v, psiu, psiv, t, stress
ZONE T="structure" N=153 E=128 F=FEBLOCK ET=QUADRILATERAL VARLOCATION=([7,8]=cellcentered)
0.000000e+00
1.250000e+01
2.500000e+01
3.750000e+01
5.000000e+01
6.250000e+01
7.500000e+01
8.750000e+01
1.000000e+02
1.125000e+02
1.250000e+02
1.375000e+02
1.500000e+02
1.625000e+02
1.750000e+02
1.875000e+02
2.000000e+02
0.000000e+00
1.250000e+01
2.500000e+01
3.750000e+01
5.000000e+01
6.250000e+01
7.500000e+01
8.750000e+01
1.000000e+02
1.125000e+02
1.250000e+02
1.375000e+02
1.500000e+02
1.625000e+02
1.750000e+02
1.875000e+02
2.000000e+02
0.000000e+00
1.250000e+01
2.500000e+01
3.750000e+01
5.000000e+01
6.250000e+01
7.500000e+01
8.750000e+01
1.000000e+02
1.125000e+02
1.250000e+02
1.375000e+02
1.500000e+02
1.625000e+02
1.750000e+02
1.875000e+02
2.000000e+02
0.000000e+00
1.250000e+01
2.500000e+01
3.750000e+01
5.000000e+01
6.250000e+01
7.500000e+01
8.750000e+01
1.000000e+02
1.125000e+02
1.250000e+02
1.375000e+02
1.500000e+02
1.625000e+02
1.750000e+02
1.875000e+02
2.000000e+02
0.000000e+00
1.250000e+01
2.500000e+01
3.750000e+01
5.000000e+01
6.250000e+01
7.500000e+01
8.750000e+01
1.000000e+02
1.125000e+02
1.250000e+02
1.375000e+02
1.500000e+02
1.625000e+02
1.750000e+02
1.875000e+02
2.000000e+02
0.000000e+00
1.250000e+01
2.500000e+01
3.750000e+01
5.000000e+01
6.250000e+01
7.500000e+01
8.750000e+01
1.000000e+02
1.125000e+02
1.250000e+02
1.375000e+02
1.500000e+02
1.625000e+02
1.750000e+02
1.875000e+02
2.000000e+02
0.000000e+00
1.250000e+01
2.500000e+01
3.750000e+01
5.000000e+01
6.250000e+01
7.500000e+01
8.750000e+01
1.000000e+02
1.125000e+02
1.250000e+02
1.375000e+02
1.500000e+02
1.625000e+02
1.750000e+02
1.875000e+02
2.000000e+02
0.000000e+00
1.250000e+01
2.500000e+01
3.750000e+01
5.000000e+01
6.250000e+01
7.500000e+01
8.750000e+01
1.000000e+02
1.125000e+02
1.250000e+02
1.375000e+02
1.500000e+02
1.625000e+02
1.750000e+02
1.875000e+02
2.000000e+02
0.000000e+00
1.250000e+01
2.500000e+01
3.750000e+01
5.000000e+01
6.250000e+01
7.500000e+01
8.750000e+01
1.000000e+02
1.125000e+02
1.250000e+02
1.375000e+02
1.500000e+02
1.625000e+02
1.750000e+02
1.875000e+02
2.000000e+02
0.000000e+00
0.000000e+00
0.000000e+00
0.000000e+00
0.000000e+00
0.000000e+00
0.000000e+00
0.000000e+00
0.000000e+00
0.000000e+00
0.000000e+00
0.000000e+00
0.000000e+00
0.000000e+00
0.000000e+00
0.000000e+00
0.000000e+00
1.250000e+01
1.250000e+01
1.250000e+01
1.250000e+01
1.250000e+01
1.250000e+01
1.250000e+01
1.250000e+01
1.250000e+01
1.250000e+01
1.250000e+01
1.250000e+01
1.250000e+01
1.250000e+01
1.250000e+01
1.250000e+01
1.250000e+01
2.500000e+01
2.500000e+01
2.500000e+01
2.500000e+01
2.500000e+01
2.500000e+01
2.500000e+01
2.500000e+01
2.500000e+01
2.500000e+01
2.500000e+01
2.500000e+01
2.500000e+01
2.500000e+01
2.500000e+01
2.500000e+01
2.500000e+01
3.750000e+01
3.750000e+01
3.750000e+01
3.750000e+01
3.750000e+01
3.750000e+01
3.750000e+01
3.750000e+01
3.750000e+01
3.750000e+01
3.750000e+01
3.750000e+01
3.750000e+01
3.750000e+01
3.750000e+01
3.750000e+01
3.750000e+01
5.000000e+01
5.000000e+01
5.000000e+01
5.000000e+01
5.000000e+01
5.000000e+01
5.000000e+01
5.000000e+01
5.000000e+01
5.000000e+01
5.000000e+01
5.000000e+01
5.000000e+01
5.000000e+01
5.000000e+01
5.000000e+01
5.000000e+01
6.250000e+01
6.250000e+01
6.250000e+01
6.250000e+01
6.250000e+01
6.250000e+01
6.250000e+01
6.250000e+01
6.250000e+01
6.250000e+01
6.250000e+01
6.250000e+01
6.250000e+01
6.250000e+01
6.250000e+01
6.250000e+01
6.250000e+01
7.500000e+01
7.500000e+01
7.500000e+01
7.500000e+01
7.500000e+01
7.500000e+01
7.500000e+01
7.500000e+01
7.500000e+01
7.500000e+01
7.500000e+01
7.500000e+01
7.500000e+01
7.500000e+01
7.500000e+01
7.500000e+01
7.500000e+01
8.750000e+01
8.750000e+01
8.750000e+01
8.750000e+01
8.750000e+01
8.750000e+01
8.750000e+01
8.750000e+01
8.750000e+01
8.750000e+01
8.750000e+01
8.750000e+01
8.750000e+01
8.750000e+01
8.750000e+01
8.750000e+01
8.750000e+01
1.000000e+02
1.000000e+02
1.000000e+02
1.000000e+02
1.000000e+02
1.000000e+02
1.000000e+02
1.000000e+02
1.000000e+02
1.000000e+02
1.000000e+02
1.000000e+02
1.000000e+02
1.000000e+02
1.000000e+02
1.000000e+02
1.000000e+02
0.000000e+00
-7.079255e-02
-1.303515e-01
-1.851535e-01
-2.361895e-01
-2.833518e-01
-3.265392e-01
-3.657183e-01
-4.009460e-01
-4.323846e-01
-4.603458e-01
-4.853760e-01
-5.084154e-01
-5.310882e-01
-5.561953e-01
-5.870299e-01
-6.101680e-01
0.000000e+00
-4.227605e-02
-8.782026e-02
-1.298774e-01
-1.686250e-01
-2.042104e-01
-2.367073e-01
-2.661592e-01
-2.926194e-01
-3.161691e-01
-3.369281e-01
-3.550460e-01
-3.706382e-01
-3.835444e-01
-3.926478e-01
-3.946432e-01
-4.017969e-01
0.000000e+00
-2.643823e-02
-5.436360e-02
-8.222331e-02
-1.082295e-01
-1.321068e-01
-1.538359e-01
-1.734413e-01
-1.909279e-01
-2.062665e-01
-2.193746e-01
-2.300691e-01
-2.379686e-01
-2.423783e-01
-2.425007e-01
-2.407391e-01
-2.480354e-01
0.000000e+00
-1.276072e-02
-2.626965e-02
-3.986390e-02
-5.286247e-02
-6.483496e-02
-7.568685e-02
-8.538653e-02
-9.387848e-02
-1.010522e-01
-1.067243e-01
-1.106272e-01
-1.124412e-01
-1.120174e-01
-1.102762e-01
-1.107524e-01
-1.161852e-01
0.000000e+00
-1.175516e-05
-2.672316e-05
-4.164201e-05
-4.955979e-05
-3.497396e-05
3.288601e-05
2.092341e-04
5.846563e-04
1.294085e-03
2.513560e-03
4.419927e-03
7.060971e-03
1.004548e-02
1.210709e-02
1.154166e-02
7.944672e-03
0.000000e+00
1.274263e-02
2.622766e-02
3.979674e-02
5.277893e-02
6.476701e-02
7.571321e-02
8.567106e-02
9.472691e-02
1.029858e-01
1.105556e-01
1.174924e-01
1.236757e-01
1.286340e-01
1.315507e-01
1.317820e-01
1.299563e-01
0.000000e+00
2.643526e-02
5.435456e-02
8.220531e-02
1.082014e-01
1.320718e-01
1.538069e-01
1.734507e-01
1.910441e-01
2.066183e-01
2.201868e-01
2.317166e-01
2.410749e-01
2.479938e-01
2.521467e-01
2.534952e-01
2.530694e-01
0.000000e+00
4.229339e-02
8.785796e-02
1.299376e-01
1.687057e-01
2.042967e-01
2.367557e-01
2.660707e-01
2.921970e-01
3.150592e-01
3.345487e-01
3.505310e-01
3.628780e-01
3.715490e-01
3.767215e-01
3.789272e-01
3.793324e-01
0.000000e+00
7.082155e-02
1.304280e-01
1.852968e-01
2.364184e-01
2.836738e-01
3.269233e-01
3.660413e-01
4.008969e-01
4.313089e-01
4.570136e-01
4.776685e-01
4.929341e-01
5.026904e-01
5.074087e-01
5.085734e-01
5.085509e-01
0.000000e+00
-4.285268e-02
-8.412481e-02
-1.376039e-01
-2.032384e-01
-2.809055e-01
-3.697547e-01
-4.687916e-01
-5.769631e-01
-6.932301e-01
-8.166326e-01
-9.464068e-01
-1.082240e+00
-1.224856e+00
-1.377957e+00
-1.553132e+00
-1.804828e+00
0.000000e+00
-2.638090e-02
-6.943450e-02
-1.235767e-01
-1.902839e-01
-2.690109e-01
-3.589365e-01
-4.590419e-01
-5.682618e-01
-6.855384e-01
-8.098851e-01
-9.405030e-01
-1.077031e+00
-1.220175e+00
-1.373215e+00
-1.547328e+00
-1.760633e+00
0.000000e+00
-1.990673e-02
-5.925045e-02
-1.135925e-01
-1.809304e-01
-2.604677e-01
-3.512199e-01
-4.521582e-01
-5.622247e-01
-6.803766e-01
-8.056463e-01
-9.372625e-01
-1.074898e+00
-1.219142e+00
-1.372315e+00
-1.537292e+00
-1.696956e+00
0.000000e+00
-1.715421e-02
-5.418699e-02
-1.077320e-01
-1.753133e-01
-2.553403e-01
-3.466582e-01
-4.481995e-01
-5.589259e-01
-6.778230e-01
-8.039443e-01
-9.365031e-01
-1.075017e+00
-1.219421e+00
-1.369529e+00
-1.521120e+00
-1.660770e+00
0.000000e+00
-1.636127e-02
-5.265455e-02
-1.058625e-01
-1.734622e-01
-2.536883e-01
-3.452688e-01
-4.471369e-01
-5.582744e-01
-6.776831e-01
-8.043956e-01
-9.375007e-01
-1.076138e+00
-1.219285e+00
-1.364800e+00
-1.507705e+00
-1.639356e+00
0.000000e+00
-1.714403e-02
-5.417974e-02
-1.077449e-01
-1.753767e-01
-2.555072e-01
-3.470152e-01
-4.488755e-01
-5.600915e-01
-6.796602e-01
-8.065513e-01
-9.396627e-01
-1.077707e+00
-1.218926e+00
-1.360609e+00
-1.498614e+00
-1.627455e+00
0.000000e+00
-1.989012e-02
-5.923844e-02
-1.136140e-01
-1.810371e-01
-2.607501e-01
-3.518251e-01
-4.533061e-01
-5.642065e-01
-6.835060e-01
-8.101051e-01
-9.427319e-01
-1.079789e+00
-1.219158e+00
-1.358094e+00
-1.493450e+00
-1.622206e+00
0.000000e+00
-2.636533e-02
-6.942405e-02
-1.236053e-01
-1.904121e-01
-2.693429e-01
-3.596410e-01
-4.603687e-01
-5.705384e-01
-6.891111e-01
-8.149423e-01
-9.466693e-01
-1.082558e+00
-1.220376e+00
-1.357464e+00
-1.491315e+00
-1.620974e+00
0.000000e+00
-4.284625e-02
-8.412571e-02
-1.376481e-01
-2.033869e-01
-2.812603e-01
-3.704755e-01
-4.701068e-01
-5.791558e-01
-6.965655e-01
-8.211637e-01
-9.515578e-01
-1.086002e+00
-1.222312e+00
-1.357999e+00
-1.490925e+00
-1.620993e+00


0.000000e+00
9.868758e-08
1.977386e-07
2.897296e-07
3.760019e-07
4.560682e-07
5.295927e-07
5.965545e-07
6.570883e-07
7.114478e-07
7.599932e-07
8.031253e-07
8.410787e-07
8.735549e-07
9.001361e-07
9.228507e-07
9.430618e-07
0.000000e+00
5.549922e-08
1.350515e-07
2.065859e-07
2.721776e-07
3.326419e-07
3.879237e-07
4.380234e-07
4.829810e-07
5.228286e-07
5.575541e-07
5.870549e-07
6.111812e-07
6.304296e-07
6.480111e-07
6.688784e-07
6.903560e-07
0.000000e+00
3.496790e-08
8.534525e-08
1.326139e-07
1.766812e-07
2.172134e-07
2.540508e-07
2.871492e-07
3.164579e-07
3.418783e-07
3.632647e-07
3.805136e-07
3.938950e-07
4.047825e-07
4.162662e-07
4.317822e-07
4.497098e-07
0.000000e+00
1.708154e-08
4.091326e-08
6.406284e-08
8.609831e-08
1.063428e-07
1.245775e-07
1.407188e-07
1.546721e-07
1.663158e-07
1.755488e-07
1.824258e-07
1.874114e-07
1.916805e-07
1.971807e-07
2.062243e-07
2.186706e-07
0.000000e+00
1.788435e-11
2.214789e-11
-9.433497e-12
-1.072302e-10
-3.196966e-10
-7.178780e-10
-1.396322e-09
-2.464734e-09
-4.020702e-09
-6.089885e-09
-8.526068e-09
-1.089412e-08
-1.239636e-08
-1.180424e-08
-7.547545e-09
6.286501e-10
0.000000e+00
-1.704811e-08
-4.086840e-08
-6.406456e-08
-8.625450e-08
-1.068425e-07
-1.257309e-07
-1.430000e-07
-1.587497e-07
-1.730420e-07
-1.858485e-07
-1.969944e-07
-2.061232e-07
-2.127024e-07
-2.160739e-07
-2.154311e-07
-2.109525e-07
0.000000e+00
-3.494685e-08
-8.531416e-08
-1.325954e-07
-1.767180e-07
-2.173865e-07
-2.545014e-07
-2.881038e-07
-3.182522e-07
-3.449649e-07
-3.681765e-07
-3.877035e-07
-4.032359e-07
-4.144101e-07
-4.210410e-07
-4.232491e-07
-4.219267e-07
0.000000e+00
-5.552034e-08
-1.350936e-07
-2.066240e-07
-2.721707e-07
-3.325199e-07
-3.875714e-07
-4.372629e-07
-4.815547e-07
-5.203905e-07
-5.536815e-07
-5.812960e-07
-6.030624e-07
-6.188359e-07
-6.287556e-07
-6.336326e-07
-6.348109e-07
0.000000e+00
-9.880423e-08
-1.979453e-07
-2.899852e-07
-3.762204e-07
-4.560701e-07
-5.290382e-07
-5.948561e-07
-6.533082e-07
-7.041977e-07
-7.473693e-07
-7.827540e-07
-8.104120e-07
-8.305707e-07
-8.437011e-07
-8.504888e-07
-8.526691e-07
0.000000e+00
8.934014e-08
1.742968e-07
2.696314e-07
3.833349e-07
5.165807e-07
6.684959e-07
8.376775e-07
1.022508e-06
1.221419e-06
1.433062e-06
1.656611e-06
1.892516e-06
2.144170e-06
2.417786e-06
2.708429e-06
2.996787e-06
0.000000e+00
5.404722e-08
1.366178e-07
2.326962e-07
3.486092e-07
4.845294e-07
6.393172e-07
8.113863e-07
9.990780e-07
1.200800e-06
1.415182e-06
1.641333e-06
1.879272e-06
2.130493e-06
2.397449e-06
2.680721e-06
2.965283e-06
0.000000e+00
3.443223e-08
1.064113e-07
2.023810e-07
3.199607e-07
4.581994e-07
6.154873e-07
7.901139e-07
9.803918e-07
1.184722e-06
1.401686e-06
1.630171e-06
1.869413e-06
2.118708e-06
2.377645e-06
2.650573e-06
2.925964e-06
0.000000e+00
2.526694e-08
9.051889e-08
1.847025e-07
3.030507e-07
4.427263e-07
6.016421e-07
7.779789e-07
9.700260e-07
1.176155e-06
1.394831e-06
1.624595e-06
1.863905e-06
2.110834e-06
2.363837e-06
2.626239e-06
2.887912e-06
0.000000e+00
2.263275e-08
8.569983e-08
1.790155e-07
2.975710e-07
4.378224e-07
5.974408e-07
7.745585e-07
9.674429e-07
1.174405e-06
1.393750e-06
1.623695e-06
1.862183e-06
2.106662e-06
2.354621e-06
2.607604e-06
2.855784e-06
0.000000e+00
2.528735e-08
9.059545e-08
1.848919e-07
3.034270e-07
4.433907e-07
6.027203e-07
7.796038e-07
9.722904e-07
1.179014e-06
1.397928e-06
1.627011e-06
1.863906e-06
2.105711e-06
2.349287e-06
2.594406e-06
2.832743e-06
0.000000e+00
3.446515e-08
1.065447e-07
2.027128e-07
3.206208e-07
4.593660e-07
6.173827e-07
7.929733e-07
9.843800e-07
1.189762e-06
1.407144e-06
1.634341e-06
1.868833e-06
2.107589e-06
2.347262e-06
2.586498e-06
2.818706e-06
0.000000e+00
5.408902e-08
1.367870e-07
2.331049e-07
3.494146e-07
4.859457e-07
6.416090e-07
8.148273e-07
1.003846e-06
1.206763e-06
1.421504e-06
1.645763e-06
1.876933e-06
2.112036e-06
2.347989e-06
2.582942e-06
2.812004e-06
0.000000e+00
8.940940e-08
1.744947e-07
2.700722e-07
3.841736e-07
5.180216e-07
6.707807e-07
8.410348e-07
1.027035e-06
1.226850e-06
1.438351e-06
1.659174e-06
1.886690e-06
2.118038e-06
2.350503e-06
2.582363e-06
2.810050e-06


2.068496e-01
2.068495e-01
2.068496e-01
2.068498e-01
2.068500e-01
2.068502e-01
2.068503e-01
2.068504e-01
2.068506e-01
2.068507e-01
2.068507e-01
2.068508e-01
2.068509e-01
2.068508e-01
2.068507e-01
2.068506e-01
2.068499e-01
2.068498e-01
2.068499e-01
2.068500e-01
2.068502e-01
2.068503e-01
2.068504e-01
2.068505e-01
2.068506e-01
2.068507e-01
2.068508e-01
2.068508e-01
2.068509e-01
2.068508e-01
2.068507e-01
2.068506e-01
2.068504e-01
2.068503e-01
2.068503e-01
2.068504e-01
2.068505e-01
2.068506e-01
2.068506e-01
2.068507e-01
2.068507e-01
2.068508e-01
2.068508e-01
2.068509e-01
2.068509e-01
2.068508e-01
2.068507e-01
2.068507e-01
2.068507e-01
2.068507e-01
2.068507e-01
2.068507e-01
2.068507e-01
2.068507e-01
2.068508e-01
2.068508e-01
2.068508e-01
2.068508e-01
2.068509e-01
2.068509e-01
2.068509e-01
2.068508e-01
2.068508e-01
2.068508e-01
2.068507e-01
2.068507e-01
2.068507e-01
2.068507e-01
2.068507e-01
2.068507e-01
2.068508e-01
2.068508e-01
2.068508e-01
2.068508e-01
2.068508e-01
2.068509e-01
2.068509e-01
2.068509e-01
2.068509e-01
2.068509e-01
2.068504e-01
2.068503e-01
2.068503e-01
2.068504e-01
2.068505e-01
2.068506e-01
2.068506e-01
2.068507e-01
2.068507e-01
2.068508e-01
2.068508e-01
2.068508e-01
2.068509e-01
2.068509e-01
2.068509e-01
2.068509e-01
2.068499e-01
2.068498e-01
2.068499e-01
2.068500e-01
2.068502e-01
2.068503e-01
2.068504e-01
2.068505e-01
2.068506e-01
2.068507e-01
2.068508e-01
2.068508e-01
2.068509e-01
2.068509e-01
2.068510e-01
2.068510e-01
2.068496e-01
2.068495e-01
2.068496e-01
2.068498e-01
2.068500e-01
2.068502e-01
2.068503e-01
2.068504e-01
2.068506e-01
2.068507e-01
2.068508e-01
2.068508e-01
2.068509e-01
2.068510e-01
2.068510e-01
2.068510e-01


9.887248e-01
9.903237e-01
9.918028e-01
9.929414e-01
9.939983e-01
9.949728e-01
9.958607e-01
9.966515e-01
9.973368e-01
9.979101e-01
9.983659e-01
9.986998e-01
9.989074e-01
9.989814e-01
9.990349e-01
9.957397e-01
9.957344e-01
9.950017e-01
9.954731e-01
9.960883e-01
9.966620e-01
9.971833e-01
9.976553e-01
9.980827e-01
9.984698e-01
9.988204e-01
9.991385e-01
9.994265e-01
9.996778e-01
9.998424e-01
9.994262e-01
9.937856e-01
9.985179e-01
9.980970e-01
9.979834e-01
9.981433e-01
9.983535e-01
9.985571e-01
9.987462e-01
9.989248e-01
9.990978e-01
9.992666e-01
9.994241e-01
9.995461e-01
9.995716e-01
9.993519e-01
9.985549e-01
9.971214e-01
9.996984e-01
9.993914e-01
9.992018e-01
9.991537e-01
9.991729e-01
9.992052e-01
9.992373e-01
9.992688e-01
9.992997e-01
9.993255e-01
9.993327e-01
9.992943e-01
9.991724e-01
9.989537e-01
9.987682e-01
9.987212e-01
9.996995e-01
9.993930e-01
9.992033e-01
9.991534e-01
9.991682e-01
9.991914e-01
9.992075e-01
9.992130e-01
9.992056e-01
9.991818e-01
9.991375e-01
9.990738e-01
9.990131e-01
9.990251e-01
9.991968e-01
9.994939e-01
9.985200e-01
9.981003e-01
9.979865e-01
9.981433e-01
9.983453e-01
9.985319e-01
9.986898e-01
9.988167e-01
9.989117e-01
9.989757e-01
9.990162e-01
9.990557e-01
9.991388e-01
9.993131e-01
9.995748e-01
9.998453e-01
9.957340e-01
9.950014e-01
9.954724e-01
9.960866e-01
9.966575e-01
9.971730e-01
9.976340e-01
9.980422e-01
9.983978e-01
9.987018e-01
9.989592e-01
9.991839e-01
9.994004e-01
9.996273e-01
9.998395e-01
9.999731e-01
9.887171e-01
9.903117e-01
9.917880e-01
9.929248e-01
9.939834e-01
9.949674e-01
9.958790e-01
9.967161e-01
9.974788e-01
9.981656e-01
9.987685e-01
9.992686e-01
9.996406e-01
9.998701e-01
9.999745e-01
9.999995e-01
1 2 19 18
2 3 20 19
3 4 21 20
4 5 22 21
5 6 23 22
6 7 24 23
7 8 25 24
8 9 26 25
9 10 27 26
10 11 28 27
11 12 29 28
12 13 30 29
13 14 31 30
14 15 32 31
15 16 33 32
16 17 34 33
18 19 36 35
19 20 37 36
20 21 38 37
21 22 39 38
22 23 40 39
23 24 41 40
24 25 42 41
25 26 43 42
26 27 44 43
27 28 45 44
28 29 46 45
29 30 47 46
30 31 48 47
31 32 49 48
32 33 50 49
33 34 51 50
35 36 53 52
36 37 54 53
37 38 55 54
38 39 56 55
39 40 57 56
40 41 58 57
41 42 59 58
42 43 60 59
43 44 61 60
44 45 62 61
45 46 63 62
46 47 64 63
47 48 65 64
48 49 66 65
49 50 67 66
50 51 68 67
52 53 70 69
53 54 71 70
54 55 72 71
55 56 73 72
56 57 74 73
57 58 75 74
58 59 76 75
59 60 77 76
60 61 78 77
61 62 79 78
62 63 80 79
63 64 81 80
64 65 82 81
65 66 83 82
66 67 84 83
67 68 85 84
69 70 87 86
70 71 88 87
71 72 89 88
72 73 90 89
73 74 91 90
74 75 92 91
75 76 93 92
76 77 94 93
77 78 95 94
78 79 96 95
79 80 97 96
80 81 98 97
81 82 99 98
82 83 100 99
83 84 101 100
84 85 102 101
86 87 104 103
87 88 105 104
88 89 106 105
89 90 107 106
90 91 108 107
91 92 109 108
92 93 110 109
93 94 111 110
94 95 112 111
95 96 113 112
96 97 114 113
97 98 115 114
98 99 116 115
99 100 117 116
100 101 118 117
101 102 119 118
103 104 121 120
104 105 122 121
105 106 123 122
106 107 124 123
107 108 125 124
108 109 126 125
109 110 127 126
110 111 128 127
111 112 129 128
112 113 130 129
113 114 131 130
114 115 132 131
115 116 133 132
116 117 134 133
117 118 135 134
118 119 136 135
120 121 138 137
121 122 139 138
122 123 140 139
123 124 141 140
124 125 142 141
125 126 143 142
126 127 144 143
127 128 145 144
128 129 146 145
129 130 147 146
130 131 148 147
131 132 149 148
132 133 150 149
133 134 151 150
134 135 152 151
135 136 153 152
