TITLE = "Solution"
VARIABLES = x, y, u, v, psiu, psiv, t, stress
ZONE T="structure" N=153 E=128 F=FEBLOCK ET=QUADRILATERAL VARLOCATION=([7,8]=cellcentered)
0.000000e+00
1.250000e+01
2.500000e+01
3.750000e+01
5.000000e+01
6.250000e+01
7.500000e+01
8.750000e+01
1.000000e+02
1.125000e+02
1.250000e+02
1.375000e+02
1.500000e+02
1.625000e+02
1.750000e+02
1.875000e+02
2.000000e+02
0.000000e+00
1.250000e+01
2.500000e+01
3.750000e+01
5.000000e+01
6.250000e+01
7.500000e+01
8.750000e+01
1.000000e+02
1.125000e+02
1.250000e+02
1.375000e+02
1.500000e+02
1.625000e+02
1.750000e+02
1.875000e+02
2.000000e+02
0.000000e+00
1.250000e+01
2.500000e+01
3.750000e+01
5.000000e+01
6.250000e+01
7.500000e+01
8.750000e+01
1.000000e+02
1.125000e+02
1.250000e+02
1.375000e+02
1.500000e+02
1.625000e+02
1.750000e+02
1.875000e+02
2.000000e+02
0.000000e+00
1.250000e+01
2.500000e+01
3.750000e+01
5.000000e+01
6.250000e+01
7.500000e+01
8.750000e+01
1.000000e+02
1.125000e+02
1.250000e+02
1.375000e+02
1.500000e+02
1.625000e+02
1.750000e+02
1.875000e+02
2.000000e+02
0.000000e+00
1.250000e+01
2.500000e+01
3.750000e+01
5.000000e+01
6.250000e+01
7.500000e+01
8.750000e+01
1.000000e+02
1.125000e+02
1.250000e+02
1.375000e+02
1.500000e+02
1.625000e+02
1.750000e+02
1.875000e+02
2.000000e+02
0.000000e+00
1.250000e+01
2.500000e+01
3.750000e+01
5.000000e+01
6.250000e+01
7.500000e+01
8.750000e+01
1.000000e+02
1.125000e+02
1.250000e+02
1.375000e+02
1.500000e+02
1.625000e+02
1.750000e+02
1.875000e+02
2.000000e+02
0.000000e+00
1.250000e+01
2.500000e+01
3.750000e+01
5.000000e+01
6.250000e+01
7.500000e+01
8.750000e+01
1.000000e+02
1.125000e+02
1.250000e+02
1.375000e+02
1.500000e+02
1.625000e+02
1.750000e+02
1.875000e+02
2.000000e+02
0.000000e+00
1.250000e+01
2.500000e+01
3.750000e+01
5.000000e+01
6.250000e+01
7.500000e+01
8.750000e+01
1.000000e+02
1.125000e+02
1.250000e+02
1.375000e+02
1.500000e+02
1.625000e+02
1.750000e+02
1.875000e+02
2.000000e+02
0.000000e+00
1.250000e+01
2.500000e+01
3.750000e+01
5.000000e+01
6.250000e+01
7.500000e+01
8.750000e+01
1.000000e+02
1.125000e+02
1.250000e+02
1.375000e+02
1.500000e+02
1.625000e+02
1.750000e+02
1.875000e+02
2.000000e+02
0.000000e+00
0.000000e+00
0.000000e+00
0.000000e+00
0.000000e+00
0.000000e+00
0.000000e+00
0.000000e+00
0.000000e+00
0.000000e+00
0.000000e+00
0.000000e+00
0.000000e+00
0.000000e+00
0.000000e+00
0.000000e+00
0.000000e+00
1.250000e+01
1.250000e+01
1.250000e+01
1.250000e+01
1.250000e+01
1.250000e+01
1.250000e+01
1.250000e+01
1.250000e+01
1.250000e+01
1.250000e+01
1.250000e+01
1.250000e+01
1.250000e+01
1.250000e+01
1.250000e+01
1.250000e+01
2.500000e+01
2.500000e+01
2.500000e+01
2.500000e+01
2.500000e+01
2.500000e+01
2.500000e+01
2.500000e+01
2.500000e+01
2.500000e+01
2.500000e+01
2.500000e+01
2.500000e+01
2.500000e+01
2.500000e+01
2.500000e+01
2.500000e+01
3.750000e+01
3.750000e+01
3.750000e+01
3.750000e+01
3.750000e+01
3.750000e+01
3.750000e+01
3.750000e+01
3.750000e+01
3.750000e+01
3.750000e+01
3.750000e+01
3.750000e+01
3.750000e+01
3.750000e+01
3.750000e+01
3.750000e+01
5.000000e+01
5.000000e+01
5.000000e+01
5.000000e+01
5.000000e+01
5.000000e+01
5.000000e+01
5.000000e+01
5.000000e+01
5.000000e+01
5.000000e+01
5.000000e+01
5.000000e+01
5.000000e+01
5.000000e+01
5.000000e+01
5.000000e+01
6.250000e+01
6.250000e+01
6.250000e+01
6.250000e+01
6.250000e+01
6.250000e+01
6.250000e+01
6.250000e+01
6.250000e+01
6.250000e+01
6.250000e+01
6.250000e+01
6.250000e+01
6.250000e+01
6.250000e+01
6.250000e+01
6.250000e+01
7.500000e+01
7.500000e+01
7.500000e+01
7.500000e+01
7.500000e+01
7.500000e+01
7.500000e+01
7.500000e+01
7.500000e+01
7.500000e+01
7.500000e+01
7.500000e+01
7.500000e+01
7.500000e+01
7.500000e+01
7.500000e+01
7.500000e+01
8.750000e+01
8.750000e+01
8.750000e+01
8.750000e+01
8.750000e+01
8.750000e+01
8.750000e+01
8.750000e+01
8.750000e+01
8.750000e+01
8.750000e+01
8.750000e+01
8.750000e+01
8.750000e+01
8.750000e+01
8.750000e+01
8.750000e+01
1.000000e+02
1.000000e+02
1.000000e+02
1.000000e+02
1.000000e+02
1.000000e+02
1.000000e+02
1.000000e+02
1.000000e+02
1.000000e+02
1.000000e+02
1.000000e+02
1.000000e+02
1.000000e+02
1.000000e+02
1.000000e+02
1.000000e+02
0.000000e+00
-7.124363e-02
-1.311821e-01
-1.863333e-01
-2.376944e-01
-2.851573e-01
-3.286200e-01
-3.680487e-01
-4.035010e-01
-4.351400e-01
-4.632794e-01
-4.884691e-01
-5.116554e-01
-5.344726e-01
-5.597397e-01
-5.907710e-01
-6.140565e-01
0.000000e+00
-4.254541e-02
-8.837982e-02
-1.307050e-01
-1.696995e-01
-2.055116e-01
-2.382156e-01
-2.678552e-01
-2.944840e-01
-3.181839e-01
-3.390752e-01
-3.573085e-01
-3.730002e-01
-3.859886e-01
-3.951501e-01
-3.971581e-01
-4.043574e-01
0.000000e+00
-2.660668e-02
-5.470998e-02
-8.274721e-02
-1.089191e-01
-1.329486e-01
-1.548161e-01
-1.745465e-01
-1.921446e-01
-2.075809e-01
-2.207726e-01
-2.315352e-01
-2.394851e-01
-2.439229e-01
-2.440461e-01
-2.422733e-01
-2.496160e-01
0.000000e+00
-1.284202e-02
-2.643703e-02
-4.011790e-02
-5.319929e-02
-6.524808e-02
-7.616912e-02
-8.593062e-02
-9.447669e-02
-1.016961e-01
-1.074044e-01
-1.113321e-01
-1.131578e-01
-1.127312e-01
-1.109789e-01
-1.114581e-01
-1.169255e-01
0.000000e+00
-1.183013e-05
-2.689359e-05
-4.190760e-05
-4.987591e-05
-3.519720e-05
3.309523e-05
2.105673e-04
5.883823e-04
1.302333e-03
2.529581e-03
4.448100e-03
7.105978e-03
1.010951e-02
1.218427e-02
1.161523e-02
7.995315e-03
0.000000e+00
1.282382e-02
2.639477e-02
4.005030e-02
5.311521e-02
6.517969e-02
7.619565e-02
8.621696e-02
9.533053e-02
1.036420e-01
1.112601e-01
1.182411e-01
1.244638e-01
1.294537e-01
1.323890e-01
1.326218e-01
1.307845e-01
0.000000e+00
2.660369e-02
5.470088e-02
8.272909e-02
1.088908e-01
1.329134e-01
1.547869e-01
1.745560e-01
1.922615e-01
2.079350e-01
2.215900e-01
2.331932e-01
2.426111e-01
2.495742e-01
2.537535e-01
2.551106e-01
2.546821e-01
0.000000e+00
4.256287e-02
8.841776e-02
1.307655e-01
1.697806e-01
2.055985e-01
2.382643e-01
2.677661e-01
2.940589e-01
3.170668e-01
3.366806e-01
3.527647e-01
3.651905e-01
3.739168e-01
3.791222e-01
3.813420e-01
3.817497e-01
0.000000e+00
7.127281e-02
1.312591e-01
1.864775e-01
2.379248e-01
2.854813e-01
3.290065e-01
3.683738e-01
4.034515e-01
4.340574e-01
4.599260e-01
4.807124e-01
4.960753e-01
5.058939e-01
5.106423e-01
5.118143e-01
5.117917e-01
0.000000e+00
-4.312574e-02
-8.466085e-02
-1.384807e-01
-2.045334e-01
-2.826955e-01
-3.721108e-01
-4.717788e-01
-5.806396e-01
-6.976476e-01
-8.218365e-01
-9.524377e-01
-1.089136e+00
-1.232662e+00
-1.386738e+00
-1.563030e+00
-1.816329e+00
0.000000e+00
-2.654900e-02
-6.987694e-02
-1.243642e-01
-1.914964e-01
-2.707251e-01
-3.612237e-01
-4.619670e-01
-5.718829e-01
-6.899069e-01
-8.150460e-01
-9.464963e-01
-1.083894e+00
-1.227950e+00
-1.381966e+00
-1.557188e+00
-1.771853e+00
0.000000e+00
-2.003358e-02
-5.962800e-02
-1.143163e-01
-1.820833e-01
-2.621275e-01
-3.534579e-01
-4.550394e-01
-5.658073e-01
-6.847121e-01
-8.107802e-01
-9.432351e-01
-1.081748e+00
-1.226911e+00
-1.381060e+00
-1.547089e+00
-1.707770e+00
0.000000e+00
-1.726353e-02
-5.453228e-02
-1.084185e-01
-1.764305e-01
-2.569673e-01
-3.488672e-01
-4.510555e-01
-5.624876e-01
-6.821423e-01
-8.090673e-01
-9.424709e-01
-1.081868e+00
-1.227192e+00
-1.378257e+00
-1.530814e+00
-1.671354e+00
0.000000e+00
-1.646553e-02
-5.299008e-02
-1.065371e-01
-1.745675e-01
-2.553049e-01
-3.474689e-01
-4.499862e-01
-5.618318e-01
-6.820015e-01
-8.095214e-01
-9.434748e-01
-1.082996e+00
-1.227055e+00
-1.373497e+00
-1.517313e+00
-1.649803e+00
0.000000e+00
-1.725328e-02
-5.452499e-02
-1.084315e-01
-1.764942e-01
-2.571353e-01
-3.492264e-01
-4.517359e-01
-5.636606e-01
-6.839912e-01
-8.116910e-01
-9.456506e-01
-1.084574e+00
-1.226694e+00
-1.369280e+00
-1.508164e+00
-1.637826e+00
0.000000e+00
-2.001687e-02
-5.961592e-02
-1.143380e-01
-1.821907e-01
-2.624116e-01
-3.540669e-01
-4.561947e-01
-5.678018e-01
-6.878615e-01
-8.152673e-01
-9.487394e-01
-1.086670e+00
-1.226927e+00
-1.366748e+00
-1.502967e+00
-1.632543e+00
0.000000e+00
-2.653333e-02
-6.986642e-02
-1.243929e-01
-1.916254e-01
-2.710592e-01
-3.619327e-01
-4.633023e-01
-5.741740e-01
-6.935024e-01
-8.201354e-01
-9.527019e-01
-1.089457e+00
-1.228153e+00
-1.366114e+00
-1.500819e+00
-1.631303e+00
0.000000e+00
-4.311926e-02
-8.466176e-02
-1.385252e-01
-2.046829e-01
-2.830525e-01
-3.728363e-01
-4.731024e-01
-5.828464e-01
-7.010043e-01
-8.263965e-01
-9.576215e-01
-1.092922e+00
-1.230101e+00
-1.366653e+00
-1.500426e+00
-1.631323e+00


0.000000e+00
9.661720e-08
1.935930e-07
2.836546e-07
3.681138e-07
4.464937e-07
5.184659e-07
5.840109e-07
6.432613e-07
6.964664e-07
7.439791e-07
7.861925e-07
8.233368e-07
8.551203e-07
8.811349e-07
9.033662e-07
9.231481e-07
0.000000e+00
5.433985e-08
1.322281e-07
2.022629e-07
2.664759e-07
3.256660e-07
3.797801e-07
4.288191e-07
4.728230e-07
5.118238e-07
5.458101e-07
5.746822e-07
5.982938e-07
6.171310e-07
6.343369e-07
6.547599e-07
6.757813e-07
0.000000e+00
3.424070e-08
8.356523e-08
1.298434e-07
1.729846e-07
2.126624e-07
2.487213e-07
2.811185e-07
3.098052e-07
3.346850e-07
3.556160e-07
3.724969e-07
3.855925e-07
3.962472e-07
4.074857e-07
4.226714e-07
4.402181e-07
0.000000e+00
1.672730e-08
4.006085e-08
6.272557e-08
8.429810e-08
1.041160e-07
1.219652e-07
1.377646e-07
1.514217e-07
1.628177e-07
1.718540e-07
1.785843e-07
1.834633e-07
1.876412e-07
1.930243e-07
2.018754e-07
2.140570e-07
0.000000e+00
1.748930e-11
2.164501e-11
-9.283591e-12
-1.050206e-10
-3.129882e-10
-7.027178e-10
-1.366741e-09
-2.412421e-09
-3.935258e-09
-5.960348e-09
-8.344559e-09
-1.066200e-08
-1.213197e-08
-1.155221e-08
-7.386095e-09
6.160147e-10
0.000000e+00
-1.669461e-08
-4.001699e-08
-6.272734e-08
-8.445109e-08
-1.046052e-07
-1.230943e-07
-1.399974e-07
-1.554127e-07
-1.694009e-07
-1.819345e-07
-1.928426e-07
-2.017764e-07
-2.082149e-07
-2.115143e-07
-2.108851e-07
-2.065020e-07
0.000000e+00
-3.422011e-08
-8.353482e-08
-1.298253e-07
-1.730207e-07
-2.128320e-07
-2.491624e-07
-2.820530e-07
-3.115614e-07
-3.377059e-07
-3.604232e-07
-3.795336e-07
-3.947344e-07
-4.056699e-07
-4.121591e-07
-4.143201e-07
-4.130259e-07
0.000000e+00
-5.436052e-08
-1.322693e-07
-2.023002e-07
-2.664692e-07
-3.255467e-07
-3.794354e-07
-4.280748e-07
-4.714271e-07
-5.094376e-07
-5.420202e-07
-5.690463e-07
-5.903484e-07
-6.057852e-07
-6.154930e-07
-6.202659e-07
-6.214190e-07
0.000000e+00
-9.673137e-08
-1.937952e-07
-2.839048e-07
-3.683277e-07
-4.464956e-07
-5.179232e-07
-5.823487e-07
-6.395619e-07
-6.893709e-07
-7.316246e-07
-7.662560e-07
-7.933246e-07
-8.130534e-07
-8.259036e-07
-8.325463e-07
-8.346800e-07
0.000000e+00
8.746601e-08
1.706347e-07
2.639606e-07
3.752686e-07
5.057075e-07
6.544220e-07
8.200381e-07
1.000972e-06
1.195686e-06
1.402864e-06
1.621692e-06
1.852615e-06
2.098950e-06
2.366780e-06
2.651278e-06
2.933540e-06
0.000000e+00
5.291088e-08
1.337438e-07
2.277998e-07
3.412729e-07
4.743318e-07
6.258599e-07
7.943036e-07
9.780387e-07
1.175506e-06
1.385364e-06
1.606740e-06
1.839653e-06
2.085564e-06
2.346877e-06
2.624159e-06
2.902706e-06
0.000000e+00
3.370534e-08
1.041695e-07
1.981208e-07
3.132274e-07
4.485574e-07
6.025340e-07
7.734821e-07
9.597494e-07
1.159770e-06
1.372155e-06
1.595817e-06
1.830005e-06
2.074032e-06
2.327494e-06
2.594651e-06
2.864221e-06
0.000000e+00
2.473188e-08
8.861044e-08
1.808141e-07
2.966739e-07
4.334114e-07
5.889821e-07
7.616047e-07
9.496039e-07
1.151386e-06
1.365447e-06
1.590360e-06
1.824615e-06
2.066326e-06
2.313981e-06
2.570835e-06
2.826978e-06
0.000000e+00
2.215297e-08
8.389268e-08
1.752468e-07
2.913099e-07
4.286111e-07
5.848699e-07
7.582568e-07
9.470757e-07
1.149672e-06
1.364389e-06
1.589479e-06
1.822929e-06
2.062242e-06
2.304960e-06
2.552597e-06
2.795533e-06
0.000000e+00
2.475186e-08
8.868537e-08
1.809994e-07
2.970423e-07
4.340615e-07
5.900373e-07
7.631949e-07
9.518200e-07
1.154183e-06
1.368478e-06
1.592724e-06
1.824615e-06
2.061312e-06
2.299740e-06
2.539681e-06
2.772983e-06
0.000000e+00
3.373757e-08
1.043000e-07
1.984455e-07
3.138734e-07
4.496990e-07
6.043890e-07
7.762805e-07
9.636525e-07
1.164702e-06
1.377497e-06
1.599897e-06
1.829437e-06
2.063150e-06
2.297759e-06
2.531941e-06
2.759245e-06
0.000000e+00
5.295180e-08
1.339094e-07
2.281997e-07
3.420612e-07
4.757178e-07
6.281028e-07
7.976712e-07
9.827050e-07
1.181342e-06
1.391551e-06
1.611076e-06
1.837364e-06
2.067502e-06
2.298470e-06
2.528461e-06
2.752687e-06
0.000000e+00
8.753382e-08
1.708283e-07
2.643920e-07
3.760894e-07
5.071176e-07
6.566581e-07
8.233238e-07
1.005402e-06
1.201002e-06
1.408039e-06
1.624202e-06
1.846913e-06
2.073375e-06
2.300931e-06
2.527895e-06
2.750774e-06


2.081675e-01
2.081674e-01
2.081675e-01
2.081678e-01
2.081681e-01
2.081683e-01
2.081686e-01
2.081687e-01
2.081689e-01
2.081691e-01
2.081692e-01
2.081693e-01
2.081693e-01
2.081693e-01
2.081691e-01
2.081690e-01
2.081679e-01
2.081678e-01
2.081679e-01
2.081681e-01
2.081684e-01
2.081685e-01
2.081687e-01
2.081689e-01
2.081690e-01
2.081691e-01
2.081692e-01
2.081693e-01
2.081694e-01
2.081693e-01
2.081691e-01
2.081690e-01
2.081686e-01
2.081686e-01
2.081686e-01
2.081687e-01
2.081688e-01
2.081689e-01
2.081690e-01
2.081691e-01
2.081692e-01
2.081693e-01
2.081693e-01
2.081694e-01
2.081694e-01
2.081693e-01
2.081692e-01
2.081691e-01
2.081691e-01
2.081691e-01
2.081691e-01
2.081691e-01
2.081691e-01
2.081692e-01
2.081692e-01
2.081693e-01
2.081693e-01
2.081693e-01
2.081694e-01
2.081694e-01
2.081694e-01
2.081693e-01
2.081692e-01
2.081692e-01
2.081691e-01
2.081691e-01
2.081691e-01
2.081691e-01
2.081691e-01
2.081692e-01
2.081692e-01
2.081693e-01
2.081693e-01
2.081693e-01
2.081693e-01
2.081693e-01
2.081694e-01
2.081694e-01
2.081694e-01
2.081694e-01
2.081686e-01
2.081686e-01
2.081686e-01
2.081687e-01
2.081688e-01
2.081689e-01
2.081690e-01
2.081691e-01
2.081692e-01
2.081692e-01
2.081693e-01
2.081693e-01
2.081694e-01
2.081694e-01
2.081694e-01
2.081695e-01
2.081679e-01
2.081678e-01
2.081679e-01
2.081681e-01
2.081684e-01
2.081685e-01
2.081687e-01
2.081689e-01
2.081690e-01
2.081691e-01
2.081692e-01
2.081693e-01
2.081694e-01
2.081695e-01
2.081695e-01
2.081695e-01
2.081675e-01
2.081674e-01
2.081675e-01
2.081678e-01
2.081681e-01
2.081683e-01
2.081686e-01
2.081688e-01
2.081689e-01
2.081691e-01
2.081692e-01
2.081693e-01
2.081694e-01
2.081695e-01
2.081696e-01
2.081696e-01


9.885806e-01
9.902000e-01
9.916980e-01
9.928512e-01
9.939215e-01
9.949085e-01
9.958077e-01
9.966086e-01
9.973028e-01
9.978834e-01
9.983450e-01
9.986832e-01
9.988934e-01
9.989684e-01
9.990225e-01
9.956852e-01
9.956798e-01
9.949378e-01
9.954152e-01
9.960383e-01
9.966193e-01
9.971473e-01
9.976253e-01
9.980582e-01
9.984502e-01
9.988053e-01
9.991275e-01
9.994192e-01
9.996737e-01
9.998404e-01
9.994189e-01
9.937061e-01
9.984989e-01
9.980727e-01
9.979577e-01
9.981195e-01
9.983324e-01
9.985387e-01
9.987301e-01
9.989111e-01
9.990863e-01
9.992572e-01
9.994168e-01
9.995403e-01
9.995661e-01
9.993436e-01
9.985364e-01
9.970846e-01
9.996945e-01
9.993836e-01
9.991916e-01
9.991429e-01
9.991624e-01
9.991950e-01
9.992276e-01
9.992594e-01
9.992907e-01
9.993169e-01
9.993242e-01
9.992852e-01
9.991618e-01
9.989403e-01
9.987524e-01
9.987049e-01
9.996956e-01
9.993853e-01
9.991931e-01
9.991426e-01
9.991575e-01
9.991811e-01
9.991974e-01
9.992029e-01
9.991954e-01
9.991713e-01
9.991265e-01
9.990619e-01
9.990004e-01
9.990127e-01
9.991865e-01
9.994874e-01
9.985011e-01
9.980760e-01
9.979608e-01
9.981195e-01
9.983242e-01
9.985131e-01
9.986730e-01
9.988015e-01
9.988978e-01
9.989626e-01
9.990036e-01
9.990437e-01
9.991278e-01
9.993043e-01
9.995693e-01
9.998434e-01
9.956794e-01
9.949375e-01
9.954145e-01
9.960365e-01
9.966147e-01
9.971369e-01
9.976038e-01
9.980171e-01
9.983773e-01
9.986852e-01
9.989458e-01
9.991735e-01
9.993927e-01
9.996225e-01
9.998374e-01
9.999728e-01
9.885728e-01
9.901878e-01
9.916830e-01
9.928344e-01
9.939065e-01
9.949031e-01
9.958263e-01
9.966741e-01
9.974465e-01
9.981422e-01
9.987527e-01
9.992592e-01
9.996360e-01
9.998685e-01
9.999742e-01
9.999995e-01
1 2 19 18
2 3 20 19
3 4 21 20
4 5 22 21
5 6 23 22
6 7 24 23
7 8 25 24
8 9 26 25
9 10 27 26
10 11 28 27
11 12 29 28
12 13 30 29
13 14 31 30
14 15 32 31
15 16 33 32
16 17 34 33
18 19 36 35
19 20 37 36
20 21 38 37
21 22 39 38
22 23 40 39
23 24 41 40
24 25 42 41
25 26 43 42
26 27 44 43
27 28 45 44
28 29 46 45
29 30 47 46
30 31 48 47
31 32 49 48
32 33 50 49
33 34 51 50
35 36 53 52
36 37 54 53
37 38 55 54
38 39 56 55
39 40 57 56
40 41 58 57
41 42 59 58
42 43 60 59
43 44 61 60
44 45 62 61
45 46 63 62
46 47 64 63
47 48 65 64
48 49 66 65
49 50 67 66
50 51 68 67
52 53 70 69
53 54 71 70
54 55 72 71
55 56 73 72
56 57 74 73
57 58 75 74
58 59 76 75
59 60 77 76
60 61 78 77
61 62 79 78
62 63 80 79
63 64 81 80
64 65 82 81
65 66 83 82
66 67 84 83
67 68 85 84
69 70 87 86
70 71 88 87
71 72 89 88
72 73 90 89
73 74 91 90
74 75 92 91
75 76 93 92
76 77 94 93
77 78 95 94
78 79 96 95
79 80 97 96
80 81 98 97
81 82 99 98
82 83 100 99
83 84 101 100
84 85 102 101
86 87 104 103
87 88 105 104
88 89 106 105
89 90 107 106
90 91 108 107
91 92 109 108
92 93 110 109
93 94 111 110
94 95 112 111
95 96 113 112
96 97 114 113
97 98 115 114
98 99 116 115
99 100 117 116
100 101 118 117
101 102 119 118
103 104 121 120
104 105 122 121
105 106 123 122
106 107 124 123
107 108 125 124
108 109 126 125
109 110 127 126
110 111 128 127
111 112 129 128
112 113 130 129
113 114 131 130
114 115 132 131
115 116 133 132
116 117 134 133
117 118 135 134
118 119 136 135
120 121 138 137
121 122 139 138
122 123 140 139
123 124 141 140
124 125 142 141
125 126 143 142
126 127 144 143
127 128 145 144
128 129 146 145
129 130 147 146
130 131 148 147
131 132 149 148
132 133 150 149
133 134 151 150
134 135 152 151
135 136 153 152
