TITLE = "Solution"
VARIABLES = x, y, u, v, psiu, psiv, t, stress
ZONE T="structure" N=153 E=128 F=FEBLOCK ET=QUADRILATERAL VARLOCATION=([7,8]=cellcentered)
0.000000e+00
1.250000e+01
2.500000e+01
3.750000e+01
5.000000e+01
6.250000e+01
7.500000e+01
8.750000e+01
1.000000e+02
1.125000e+02
1.250000e+02
1.375000e+02
1.500000e+02
1.625000e+02
1.750000e+02
1.875000e+02
2.000000e+02
0.000000e+00
1.250000e+01
2.500000e+01
3.750000e+01
5.000000e+01
6.250000e+01
7.500000e+01
8.750000e+01
1.000000e+02
1.125000e+02
1.250000e+02
1.375000e+02
1.500000e+02
1.625000e+02
1.750000e+02
1.875000e+02
2.000000e+02
0.000000e+00
1.250000e+01
2.500000e+01
3.750000e+01
5.000000e+01
6.250000e+01
7.500000e+01
8.750000e+01
1.000000e+02
1.125000e+02
1.250000e+02
1.375000e+02
1.500000e+02
1.625000e+02
1.750000e+02
1.875000e+02
2.000000e+02
0.000000e+00
1.250000e+01
2.500000e+01
3.750000e+01
5.000000e+01
6.250000e+01
7.500000e+01
8.750000e+01
1.000000e+02
1.125000e+02
1.250000e+02
1.375000e+02
1.500000e+02
1.625000e+02
1.750000e+02
1.875000e+02
2.000000e+02
0.000000e+00
1.250000e+01
2.500000e+01
3.750000e+01
5.000000e+01
6.250000e+01
7.500000e+01
8.750000e+01
1.000000e+02
1.125000e+02
1.250000e+02
1.375000e+02
1.500000e+02
1.625000e+02
1.750000e+02
1.875000e+02
2.000000e+02
0.000000e+00
1.250000e+01
2.500000e+01
3.750000e+01
5.000000e+01
6.250000e+01
7.500000e+01
8.750000e+01
1.000000e+02
1.125000e+02
1.250000e+02
1.375000e+02
1.500000e+02
1.625000e+02
1.750000e+02
1.875000e+02
2.000000e+02
0.000000e+00
1.250000e+01
2.500000e+01
3.750000e+01
5.000000e+01
6.250000e+01
7.500000e+01
8.750000e+01
1.000000e+02
1.125000e+02
1.250000e+02
1.375000e+02
1.500000e+02
1.625000e+02
1.750000e+02
1.875000e+02
2.000000e+02
0.000000e+00
1.250000e+01
2.500000e+01
3.750000e+01
5.000000e+01
6.250000e+01
7.500000e+01
8.750000e+01
1.000000e+02
1.125000e+02
1.250000e+02
1.375000e+02
1.500000e+02
1.625000e+02
1.750000e+02
1.875000e+02
2.000000e+02
0.000000e+00
1.250000e+01
2.500000e+01
3.750000e+01
5.000000e+01
6.250000e+01
7.500000e+01
8.750000e+01
1.000000e+02
1.125000e+02
1.250000e+02
1.375000e+02
1.500000e+02
1.625000e+02
1.750000e+02
1.875000e+02
2.000000e+02
0.000000e+00
0.000000e+00
0.000000e+00
0.000000e+00
0.000000e+00
0.000000e+00
0.000000e+00
0.000000e+00
0.000000e+00
0.000000e+00
0.000000e+00
0.000000e+00
0.000000e+00
0.000000e+00
0.000000e+00
0.000000e+00
0.000000e+00
1.250000e+01
1.250000e+01
1.250000e+01
1.250000e+01
1.250000e+01
1.250000e+01
1.250000e+01
1.250000e+01
1.250000e+01
1.250000e+01
1.250000e+01
1.250000e+01
1.250000e+01
1.250000e+01
1.250000e+01
1.250000e+01
1.250000e+01
2.500000e+01
2.500000e+01
2.500000e+01
2.500000e+01
2.500000e+01
2.500000e+01
2.500000e+01
2.500000e+01
2.500000e+01
2.500000e+01
2.500000e+01
2.500000e+01
2.500000e+01
2.500000e+01
2.500000e+01
2.500000e+01
2.500000e+01
3.750000e+01
3.750000e+01
3.750000e+01
3.750000e+01
3.750000e+01
3.750000e+01
3.750000e+01
3.750000e+01
3.750000e+01
3.750000e+01
3.750000e+01
3.750000e+01
3.750000e+01
3.750000e+01
3.750000e+01
3.750000e+01
3.750000e+01
5.000000e+01
5.000000e+01
5.000000e+01
5.000000e+01
5.000000e+01
5.000000e+01
5.000000e+01
5.000000e+01
5.000000e+01
5.000000e+01
5.000000e+01
5.000000e+01
5.000000e+01
5.000000e+01
5.000000e+01
5.000000e+01
5.000000e+01
6.250000e+01
6.250000e+01
6.250000e+01
6.250000e+01
6.250000e+01
6.250000e+01
6.250000e+01
6.250000e+01
6.250000e+01
6.250000e+01
6.250000e+01
6.250000e+01
6.250000e+01
6.250000e+01
6.250000e+01
6.250000e+01
6.250000e+01
7.500000e+01
7.500000e+01
7.500000e+01
7.500000e+01
7.500000e+01
7.500000e+01
7.500000e+01
7.500000e+01
7.500000e+01
7.500000e+01
7.500000e+01
7.500000e+01
7.500000e+01
7.500000e+01
7.500000e+01
7.500000e+01
7.500000e+01
8.750000e+01
8.750000e+01
8.750000e+01
8.750000e+01
8.750000e+01
8.750000e+01
8.750000e+01
8.750000e+01
8.750000e+01
8.750000e+01
8.750000e+01
8.750000e+01
8.750000e+01
8.750000e+01
8.750000e+01
8.750000e+01
8.750000e+01
1.000000e+02
1.000000e+02
1.000000e+02
1.000000e+02
1.000000e+02
1.000000e+02
1.000000e+02
1.000000e+02
1.000000e+02
1.000000e+02
1.000000e+02
1.000000e+02
1.000000e+02
1.000000e+02
1.000000e+02
1.000000e+02
1.000000e+02
0.000000e+00
-8.209270e-01
-1.492317e+00
-2.142077e+00
-2.803254e+00
-3.453489e+00
-4.093924e+00
-4.727331e+00
-5.347384e+00
-5.943529e+00
-6.505791e+00
-7.029687e+00
-7.521593e+00
-8.002819e+00
-8.510506e+00
-9.089084e+00
-9.503592e+00
0.000000e+00
-4.581023e-01
-9.534399e-01
-1.440049e+00
-1.935667e+00
-2.422928e+00
-2.901966e+00
-3.375259e+00
-3.838335e+00
-4.282663e+00
-4.698566e+00
-5.077465e+00
-5.412552e+00
-5.692680e+00
-5.885511e+00
-5.928096e+00
-6.061732e+00
0.000000e+00
-2.624866e-01
-5.508633e-01
-8.692858e-01
-1.198991e+00
-1.525855e+00
-1.848287e+00
-2.165070e+00
-2.471496e+00
-2.760141e+00
-3.021470e+00
-3.244196e+00
-3.414414e+00
-3.513040e+00
-3.520934e+00
-3.489318e+00
-3.628244e+00
0.000000e+00
-1.185989e-01
-2.527907e-01
-4.064387e-01
-5.699540e-01
-7.345486e-01
-8.971566e-01
-1.054844e+00
-1.203514e+00
-1.337401e+00
-1.448820e+00
-1.528399e+00
-1.566268e+00
-1.557002e+00
-1.519391e+00
-1.527145e+00
-1.635281e+00
0.000000e+00
-4.881430e-04
-1.031979e-03
-1.543685e-03
-1.852712e-03
-1.626467e-03
-2.330635e-04
3.476120e-03
1.145088e-02
2.667995e-02
5.313695e-02
9.490403e-02
1.533395e-01
2.202079e-01
2.678347e-01
2.589368e-01
1.843137e-01
0.000000e+00
1.177791e-01
2.510344e-01
4.037507e-01
5.665873e-01
7.312876e-01
8.957907e-01
1.058980e+00
1.219807e+00
1.377202e+00
1.529909e+00
1.675784e+00
1.809551e+00
1.918998e+00
1.984752e+00
1.991673e+00
1.952936e+00
0.000000e+00
2.620834e-01
5.499447e-01
8.677473e-01
1.196771e+00
1.523072e+00
1.845450e+00
2.163329e+00
2.472821e+00
2.767550e+00
3.039619e+00
3.280541e+00
3.481405e+00
3.632374e+00
3.723924e+00
3.754063e+00
3.745092e+00
0.000000e+00
4.582100e-01
9.535856e-01
1.440156e+00
1.935545e+00
2.422216e+00
2.900128e+00
3.371166e+00
3.828962e+00
4.260987e+00
4.651512e+00
4.984901e+00
5.248883e+00
5.436821e+00
5.549678e+00
5.597927e+00
5.606838e+00
0.000000e+00
8.213178e-01
1.493329e+00
2.143910e+00
2.806030e+00
3.457185e+00
4.098336e+00
4.731199e+00
5.345774e+00
5.923304e+00
6.439897e+00
6.871022e+00
7.196779e+00
7.407229e+00
7.509249e+00
7.534174e+00
7.533535e+00
0.000000e+00
-5.038908e-01
-1.030774e+00
-1.728857e+00
-2.590301e+00
-3.615998e+00
-4.809136e+00
-6.168588e+00
-7.689033e+00
-9.362186e+00
-1.117746e+01
-1.312466e+01
-1.519953e+01
-1.741403e+01
-1.983324e+01
-2.266610e+01
-2.689210e+01
0.000000e+00
-3.161155e-01
-8.651040e-01
-1.557252e+00
-2.418610e+00
-3.447107e+00
-4.642566e+00
-6.004887e+00
-7.530668e+00
-9.212358e+00
-1.103905e+01
-1.299928e+01
-1.508718e+01
-1.731535e+01
-1.974152e+01
-2.256194e+01
-2.608474e+01
0.000000e+00
-2.528970e-01
-7.538139e-01
-1.439579e+00
-2.297999e+00
-3.327331e+00
-4.525174e+00
-5.891243e+00
-7.423019e+00
-9.113883e+00
-1.095349e+01
-1.293062e+01
-1.503989e+01
-1.729227e+01
-1.972598e+01
-2.237837e+01
-2.491212e+01
0.000000e+00
-2.396484e-01
-7.062224e-01
-1.374599e+00
-2.228124e+00
-3.256830e+00
-4.457173e+00
-5.827945e+00
-7.366791e+00
-9.067812e+00
-1.092122e+01
-1.291545e+01
-1.504177e+01
-1.729774e+01
-1.967239e+01
-2.206864e+01
-2.421426e+01
0.000000e+00
-2.392479e-01
-6.945141e-01
-1.355513e+00
-2.206050e+00
-3.235056e+00
-4.437714e+00
-5.812707e+00
-7.357945e+00
-9.067909e+00
-1.093244e+01
-1.293735e+01
-1.506582e+01
-1.729509e+01
-1.957537e+01
-2.179644e+01
-2.377496e+01
0.000000e+00
-2.394384e-01
-7.061772e-01
-1.375150e+00
-2.229900e+00
-3.260824e+00
-4.464991e+00
-5.842161e+00
-7.391057e+00
-9.106216e+00
-1.097614e+01
-1.298248e+01
-1.509907e+01
-1.728731e+01
-1.948619e+01
-2.160392e+01
-2.352131e+01
0.000000e+00
-2.525435e-01
-7.537130e-01
-1.440417e+00
-2.300832e+00
-3.333822e+00
-4.538038e+00
-5.914858e+00
-7.463640e+00
-9.178590e+00
-1.104665e+01
-1.304573e+01
-1.514292e+01
-1.729188e+01
-1.943151e+01
-2.149217e+01
-2.340799e+01
0.000000e+00
-3.157594e-01
-8.649925e-01
-1.558168e+00
-2.421763e+00
-3.454424e+00
-4.657185e+00
-6.031803e+00
-7.576888e+00
-9.285634e+00
-1.114383e+01
-1.312767e+01
-1.520180e+01
-1.731791e+01
-1.941753e+01
-2.144558e+01
-2.338159e+01
0.000000e+00
-5.036581e-01
-1.030786e+00
-1.729926e+00
-2.593631e+00
-3.623535e+00
-4.824003e+00
-6.195465e+00
-7.733920e+00
-9.430792e+00
-1.127096e+01
-1.323072e+01
-1.527566e+01
-1.735973e+01
-1.942902e+01
-2.143699e+01
-2.338216e+01


0.000000e+00
9.591267e-06
1.884544e-05
2.756175e-05
3.652863e-05
4.520267e-05
5.303462e-05
5.982335e-05
6.539818e-05
6.963873e-05
7.262975e-05
7.463864e-05
7.600772e-05
7.708870e-05
7.817056e-05
7.973427e-05
8.180627e-05
0.000000e+00
7.043997e-06
1.518196e-05
2.178710e-05
2.857731e-05
3.517161e-05
4.102431e-05
4.599472e-05
4.999141e-05
5.291719e-05
5.485164e-05
5.601394e-05
5.660830e-05
5.676646e-05
5.693613e-05
5.820113e-05
6.036574e-05
0.000000e+00
5.285392e-06
1.069118e-05
1.522294e-05
1.980986e-05
2.410560e-05
2.788117e-05
3.105511e-05
3.356548e-05
3.536130e-05
3.649274e-05
3.708626e-05
3.728541e-05
3.728427e-05
3.747233e-05
3.852402e-05
4.030680e-05
0.000000e+00
2.637906e-06
5.001456e-06
7.519765e-06
9.831630e-06
1.190808e-05
1.374148e-05
1.529261e-05
1.651118e-05
1.737865e-05
1.791310e-05
1.817617e-05
1.828283e-05
1.839988e-05
1.867507e-05
1.929334e-05
2.030675e-05
0.000000e+00
-5.797636e-09
-1.212838e-08
-1.876389e-08
-2.597609e-08
-3.495428e-08
-4.923751e-08
-7.524876e-08
-1.196889e-07
-1.840997e-07
-2.596393e-07
-3.207260e-07
-3.212904e-07
-2.174638e-07
-4.322113e-08
1.896501e-07
6.248623e-07
0.000000e+00
-2.648271e-06
-5.022395e-06
-7.552798e-06
-9.877488e-06
-1.196814e-05
-1.382124e-05
-1.540538e-05
-1.667872e-05
-1.762798e-05
-1.826729e-05
-1.863714e-05
-1.879716e-05
-1.882437e-05
-1.881948e-05
-1.880023e-05
-1.864992e-05
0.000000e+00
-5.290532e-06
-1.070404e-05
-1.524598e-05
-1.984570e-05
-2.415647e-05
-2.794656e-05
-3.112220e-05
-3.360942e-05
-3.536584e-05
-3.647364e-05
-3.709985e-05
-3.742106e-05
-3.758509e-05
-3.768976e-05
-3.774644e-05
-3.771137e-05
0.000000e+00
-7.044335e-06
-1.518588e-05
-2.179658e-05
-2.859612e-05
-3.520546e-05
-4.107371e-05
-4.602892e-05
-4.993948e-05
-5.270963e-05
-5.447306e-05
-5.551770e-05
-5.611792e-05
-5.646527e-05
-5.666898e-05
-5.676981e-05
-5.678586e-05
0.000000e+00
-9.593624e-06
-1.884555e-05
-2.755904e-05
-3.652399e-05
-4.519938e-05
-5.303066e-05
-5.978545e-05
-6.524901e-05
-6.929399e-05
-7.204367e-05
-7.379823e-05
-7.486980e-05
-7.549516e-05
-7.582404e-05
-7.594925e-05
-7.597007e-05
0.000000e+00
8.410276e-06
1.444718e-05
2.173038e-05
3.132284e-05
4.276586e-05
5.596121e-05
7.081183e-05
8.700472e-05
1.042190e-04
1.222370e-04
1.408975e-04
1.601095e-04
1.800834e-04
2.020741e-04
2.270136e-04
2.526676e-04
0.000000e+00
4.350754e-06
1.059034e-05
1.781658e-05
2.732601e-05
3.902037e-05
5.268421e-05
6.807658e-05
8.487916e-05
1.027138e-04
1.212626e-04
1.403134e-04
1.597778e-04
1.797727e-04
2.007968e-04
2.242787e-04
2.491210e-04
0.000000e+00
1.902329e-06
7.484243e-06
1.494714e-05
2.446932e-05
3.637042e-05
5.038217e-05
6.617318e-05
8.340424e-05
1.016767e-04
1.206153e-04
1.399705e-04
1.596321e-04
1.795140e-04
1.994931e-04
2.213229e-04
2.448956e-04
0.000000e+00
1.089274e-06
6.056398e-06
1.355843e-05
2.324321e-05
3.525433e-05
4.938999e-05
6.533606e-05
8.273712e-05
1.011899e-04
1.203081e-04
1.398100e-04
1.595185e-04
1.792384e-04
1.987540e-04
2.193799e-04
2.414165e-04
0.000000e+00
9.307225e-07
5.657401e-06
1.309547e-05
2.288575e-05
3.493510e-05
4.910251e-05
6.509584e-05
8.255249e-05
1.010630e-04
1.202354e-04
1.397639e-04
1.594337e-04
1.790570e-04
1.985338e-04
2.185412e-04
2.391839e-04
0.000000e+00
1.090142e-06
6.055231e-06
1.355320e-05
2.323280e-05
3.524189e-05
4.938689e-05
6.535958e-05
8.279897e-05
1.012863e-04
1.204162e-04
1.398795e-04
1.594676e-04
1.790362e-04
1.985562e-04
2.182557e-04
2.380149e-04
0.000000e+00
1.903443e-06
7.482528e-06
1.493958e-05
2.445386e-05
3.635241e-05
5.038126e-05
6.621995e-05
8.352070e-05
1.018592e-04
1.208305e-04
1.401436e-04
1.596120e-04
1.791182e-04
1.986169e-04
2.181329e-04
2.375056e-04
0.000000e+00
4.352977e-06
1.059145e-05
1.781324e-05
2.731702e-05
3.901170e-05
5.269359e-05
6.812973e-05
8.499633e-05
1.028985e-04
1.214953e-04
1.405322e-04
1.598218e-04
1.792297e-04
1.986697e-04
2.180768e-04
2.373450e-04
0.000000e+00
8.414615e-06
1.445169e-05
2.173307e-05
3.132388e-05
4.277125e-05
5.597989e-05
7.084890e-05
8.706465e-05
1.043138e-04
1.223730e-04
1.410360e-04
1.600934e-04
1.793678e-04
1.987288e-04
2.180723e-04
2.373221e-04


2.159836e+00
2.116011e+00
2.257326e+00
2.485058e+00
2.672362e+00
2.912205e+00
3.211540e+00
3.530740e+00
3.835139e+00
4.094545e+00
4.288673e+00
4.411281e+00
4.444805e+00
4.306031e+00
4.003873e+00
3.767523e+00
2.751759e+00
2.706897e+00
2.797878e+00
2.960592e+00
3.096810e+00
3.277179e+00
3.506385e+00
3.753038e+00
3.990620e+00
4.194740e+00
4.347710e+00
4.442464e+00
4.458374e+00
4.309701e+00
4.012245e+00
3.782252e+00
3.642301e+00
3.606964e+00
3.641462e+00
3.711108e+00
3.770483e+00
3.860018e+00
3.977024e+00
4.105966e+00
4.233732e+00
4.345902e+00
4.430513e+00
4.481429e+00
4.480722e+00
4.359033e+00
4.125159e+00
3.950967e+00
4.212593e+00
4.189652e+00
4.189348e+00
4.198748e+00
4.214587e+00
4.244544e+00
4.285822e+00
4.334357e+00
4.385827e+00
4.433368e+00
4.470512e+00
4.493841e+00
4.493459e+00
4.430836e+00
4.307500e+00
4.215476e+00
4.212599e+00
4.189586e+00
4.189103e+00
4.198123e+00
4.213269e+00
4.242166e+00
4.282036e+00
4.328752e+00
4.377918e+00
4.423085e+00
4.459067e+00
4.484935e+00
4.498573e+00
4.485965e+00
4.446139e+00
4.414726e+00
3.642078e+00
3.606505e+00
3.640470e+00
3.709128e+00
3.766999e+00
3.854894e+00
3.970570e+00
4.098025e+00
4.222888e+00
4.330628e+00
4.412038e+00
4.467814e+00
4.503559e+00
4.520701e+00
4.522189e+00
4.519307e+00
2.750915e+00
2.705658e+00
2.795871e+00
2.957431e+00
3.092573e+00
3.273425e+00
3.505946e+00
3.757507e+00
3.997935e+00
4.200430e+00
4.349629e+00
4.447638e+00
4.507192e+00
4.540777e+00
4.557413e+00
4.563760e+00
2.158448e+00
2.114153e+00
2.254658e+00
2.481389e+00
2.668434e+00
2.911089e+00
3.218161e+00
3.548214e+00
3.861170e+00
4.122587e+00
4.313578e+00
4.437255e+00
4.510280e+00
4.550513e+00
4.570779e+00
4.579151e+00


-4.418125e-01
-1.990699e-01
-1.319472e-01
-1.731237e-01
-1.362499e-01
-1.021920e-01
-7.840281e-02
-3.402224e-02
4.528851e-02
1.567572e-01
2.839394e-01
4.034422e-01
4.996529e-01
5.743868e-01
6.547394e-01
-3.900193e-01
5.165378e-01
4.012100e-01
3.759134e-01
3.437772e-01
3.542909e-01
3.657205e-01
3.745976e-01
3.976593e-01
4.454444e-01
5.209321e-01
6.196885e-01
7.317011e-01
8.443136e-01
9.276561e-01
7.939443e-01
-1.089633e+00
8.327563e-01
7.447375e-01
6.743771e-01
6.417875e-01
6.336791e-01
6.300849e-01
6.294058e-01
6.369606e-01
6.578805e-01
6.946711e-01
7.435473e-01
7.897936e-01
8.015524e-01
7.173623e-01
4.337860e-01
-6.838016e-02
9.378993e-01
8.671983e-01
8.050591e-01
7.704546e-01
7.554328e-01
7.466675e-01
7.383266e-01
7.293193e-01
7.207900e-01
7.132243e-01
7.025282e-01
6.765473e-01
6.173037e-01
5.250017e-01
4.658185e-01
4.626898e-01
9.383514e-01
8.677742e-01
8.055908e-01
7.704041e-01
7.538397e-01
7.418812e-01
7.274630e-01
7.077931e-01
6.823358e-01
6.512944e-01
6.145622e-01
5.731718e-01
5.377156e-01
5.430343e-01
6.284791e-01
7.695597e-01
8.337885e-01
7.460954e-01
6.757488e-01
6.422102e-01
6.313047e-01
6.215461e-01
6.087196e-01
5.946675e-01
5.809583e-01
5.686803e-01
5.599140e-01
5.620264e-01
5.928096e-01
6.729943e-01
7.980290e-01
9.272345e-01
5.172413e-01
4.022006e-01
3.769902e-01
3.447254e-01
3.542647e-01
3.628013e-01
3.655925e-01
3.786011e-01
4.118457e-01
4.671044e-01
5.393144e-01
6.223764e-01
7.161519e-01
8.220398e-01
9.233948e-01
9.873069e-01
-4.425740e-01
-2.003455e-01
-1.334536e-01
-1.745999e-01
-1.371640e-01
-1.021641e-01
-7.488097e-02
-1.786009e-02
9.259275e-02
2.594275e-01
4.626114e-01
6.656252e-01
8.316007e-01
9.385238e-01
9.879698e-01
9.997534e-01
1 2 19 18
2 3 20 19
3 4 21 20
4 5 22 21
5 6 23 22
6 7 24 23
7 8 25 24
8 9 26 25
9 10 27 26
10 11 28 27
11 12 29 28
12 13 30 29
13 14 31 30
14 15 32 31
15 16 33 32
16 17 34 33
18 19 36 35
19 20 37 36
20 21 38 37
21 22 39 38
22 23 40 39
23 24 41 40
24 25 42 41
25 26 43 42
26 27 44 43
27 28 45 44
28 29 46 45
29 30 47 46
30 31 48 47
31 32 49 48
32 33 50 49
33 34 51 50
35 36 53 52
36 37 54 53
37 38 55 54
38 39 56 55
39 40 57 56
40 41 58 57
41 42 59 58
42 43 60 59
43 44 61 60
44 45 62 61
45 46 63 62
46 47 64 63
47 48 65 64
48 49 66 65
49 50 67 66
50 51 68 67
52 53 70 69
53 54 71 70
54 55 72 71
55 56 73 72
56 57 74 73
57 58 75 74
58 59 76 75
59 60 77 76
60 61 78 77
61 62 79 78
62 63 80 79
63 64 81 80
64 65 82 81
65 66 83 82
66 67 84 83
67 68 85 84
69 70 87 86
70 71 88 87
71 72 89 88
72 73 90 89
73 74 91 90
74 75 92 91
75 76 93 92
76 77 94 93
77 78 95 94
78 79 96 95
79 80 97 96
80 81 98 97
81 82 99 98
82 83 100 99
83 84 101 100
84 85 102 101
86 87 104 103
87 88 105 104
88 89 106 105
89 90 107 106
90 91 108 107
91 92 109 108
92 93 110 109
93 94 111 110
94 95 112 111
95 96 113 112
96 97 114 113
97 98 115 114
98 99 116 115
99 100 117 116
100 101 118 117
101 102 119 118
103 104 121 120
104 105 122 121
105 106 123 122
106 107 124 123
107 108 125 124
108 109 126 125
109 110 127 126
110 111 128 127
111 112 129 128
112 113 130 129
113 114 131 130
114 115 132 131
115 116 133 132
116 117 134 133
117 118 135 134
118 119 136 135
120 121 138 137
121 122 139 138
122 123 140 139
123 124 141 140
124 125 142 141
125 126 143 142
126 127 144 143
127 128 145 144
128 129 146 145
129 130 147 146
130 131 148 147
131 132 149 148
132 133 150 149
133 134 151 150
134 135 152 151
135 136 153 152
