TITLE = "Solution"
VARIABLES = x, y, u, v, psiu, psiv, t, stress
ZONE T="structure" N=153 E=128 F=FEBLOCK ET=QUADRILATERAL VARLOCATION=([7,8]=cellcentered)
0.000000e+00
1.250000e+01
2.500000e+01
3.750000e+01
5.000000e+01
6.250000e+01
7.500000e+01
8.750000e+01
1.000000e+02
1.125000e+02
1.250000e+02
1.375000e+02
1.500000e+02
1.625000e+02
1.750000e+02
1.875000e+02
2.000000e+02
0.000000e+00
1.250000e+01
2.500000e+01
3.750000e+01
5.000000e+01
6.250000e+01
7.500000e+01
8.750000e+01
1.000000e+02
1.125000e+02
1.250000e+02
1.375000e+02
1.500000e+02
1.625000e+02
1.750000e+02
1.875000e+02
2.000000e+02
0.000000e+00
1.250000e+01
2.500000e+01
3.750000e+01
5.000000e+01
6.250000e+01
7.500000e+01
8.750000e+01
1.000000e+02
1.125000e+02
1.250000e+02
1.375000e+02
1.500000e+02
1.625000e+02
1.750000e+02
1.875000e+02
2.000000e+02
0.000000e+00
1.250000e+01
2.500000e+01
3.750000e+01
5.000000e+01
6.250000e+01
7.500000e+01
8.750000e+01
1.000000e+02
1.125000e+02
1.250000e+02
1.375000e+02
1.500000e+02
1.625000e+02
1.750000e+02
1.875000e+02
2.000000e+02
0.000000e+00
1.250000e+01
2.500000e+01
3.750000e+01
5.000000e+01
6.250000e+01
7.500000e+01
8.750000e+01
1.000000e+02
1.125000e+02
1.250000e+02
1.375000e+02
1.500000e+02
1.625000e+02
1.750000e+02
1.875000e+02
2.000000e+02
0.000000e+00
1.250000e+01
2.500000e+01
3.750000e+01
5.000000e+01
6.250000e+01
7.500000e+01
8.750000e+01
1.000000e+02
1.125000e+02
1.250000e+02
1.375000e+02
1.500000e+02
1.625000e+02
1.750000e+02
1.875000e+02
2.000000e+02
0.000000e+00
1.250000e+01
2.500000e+01
3.750000e+01
5.000000e+01
6.250000e+01
7.500000e+01
8.750000e+01
1.000000e+02
1.125000e+02
1.250000e+02
1.375000e+02
1.500000e+02
1.625000e+02
1.750000e+02
1.875000e+02
2.000000e+02
0.000000e+00
1.250000e+01
2.500000e+01
3.750000e+01
5.000000e+01
6.250000e+01
7.500000e+01
8.750000e+01
1.000000e+02
1.125000e+02
1.250000e+02
1.375000e+02
1.500000e+02
1.625000e+02
1.750000e+02
1.875000e+02
2.000000e+02
0.000000e+00
1.250000e+01
2.500000e+01
3.750000e+01
5.000000e+01
6.250000e+01
7.500000e+01
8.750000e+01
1.000000e+02
1.125000e+02
1.250000e+02
1.375000e+02
1.500000e+02
1.625000e+02
1.750000e+02
1.875000e+02
2.000000e+02
0.000000e+00
0.000000e+00
0.000000e+00
0.000000e+00
0.000000e+00
0.000000e+00
0.000000e+00
0.000000e+00
0.000000e+00
0.000000e+00
0.000000e+00
0.000000e+00
0.000000e+00
0.000000e+00
0.000000e+00
0.000000e+00
0.000000e+00
1.250000e+01
1.250000e+01
1.250000e+01
1.250000e+01
1.250000e+01
1.250000e+01
1.250000e+01
1.250000e+01
1.250000e+01
1.250000e+01
1.250000e+01
1.250000e+01
1.250000e+01
1.250000e+01
1.250000e+01
1.250000e+01
1.250000e+01
2.500000e+01
2.500000e+01
2.500000e+01
2.500000e+01
2.500000e+01
2.500000e+01
2.500000e+01
2.500000e+01
2.500000e+01
2.500000e+01
2.500000e+01
2.500000e+01
2.500000e+01
2.500000e+01
2.500000e+01
2.500000e+01
2.500000e+01
3.750000e+01
3.750000e+01
3.750000e+01
3.750000e+01
3.750000e+01
3.750000e+01
3.750000e+01
3.750000e+01
3.750000e+01
3.750000e+01
3.750000e+01
3.750000e+01
3.750000e+01
3.750000e+01
3.750000e+01
3.750000e+01
3.750000e+01
5.000000e+01
5.000000e+01
5.000000e+01
5.000000e+01
5.000000e+01
5.000000e+01
5.000000e+01
5.000000e+01
5.000000e+01
5.000000e+01
5.000000e+01
5.000000e+01
5.000000e+01
5.000000e+01
5.000000e+01
5.000000e+01
5.000000e+01
6.250000e+01
6.250000e+01
6.250000e+01
6.250000e+01
6.250000e+01
6.250000e+01
6.250000e+01
6.250000e+01
6.250000e+01
6.250000e+01
6.250000e+01
6.250000e+01
6.250000e+01
6.250000e+01
6.250000e+01
6.250000e+01
6.250000e+01
7.500000e+01
7.500000e+01
7.500000e+01
7.500000e+01
7.500000e+01
7.500000e+01
7.500000e+01
7.500000e+01
7.500000e+01
7.500000e+01
7.500000e+01
7.500000e+01
7.500000e+01
7.500000e+01
7.500000e+01
7.500000e+01
7.500000e+01
8.750000e+01
8.750000e+01
8.750000e+01
8.750000e+01
8.750000e+01
8.750000e+01
8.750000e+01
8.750000e+01
8.750000e+01
8.750000e+01
8.750000e+01
8.750000e+01
8.750000e+01
8.750000e+01
8.750000e+01
8.750000e+01
8.750000e+01
1.000000e+02
1.000000e+02
1.000000e+02
1.000000e+02
1.000000e+02
1.000000e+02
1.000000e+02
1.000000e+02
1.000000e+02
1.000000e+02
1.000000e+02
1.000000e+02
1.000000e+02
1.000000e+02
1.000000e+02
1.000000e+02
1.000000e+02
0.000000e+00
-7.860602e-01
-1.439507e+00
-2.065848e+00
-2.695447e+00
-3.314837e+00
-3.916239e+00
-4.493755e+00
-5.039327e+00
-5.545321e+00
-6.007874e+00
-6.429329e+00
-6.820659e+00
-7.204989e+00
-7.622696e+00
-8.121369e+00
-8.489053e+00
0.000000e+00
-4.504581e-01
-9.388604e-01
-1.411876e+00
-1.885186e+00
-2.349961e+00
-2.800688e+00
-3.233400e+00
-3.642136e+00
-4.020458e+00
-4.363466e+00
-4.668505e+00
-4.934048e+00
-5.154712e+00
-5.308845e+00
-5.342724e+00
-5.458201e+00
0.000000e+00
-2.687102e-01
-5.602986e-01
-8.725872e-01
-1.188990e+00
-1.500059e+00
-1.801365e+00
-2.089241e+00
-2.358839e+00
-2.604555e+00
-2.820508e+00
-3.000189e+00
-3.134831e+00
-3.211098e+00
-3.214775e+00
-3.186731e+00
-3.305448e+00
0.000000e+00
-1.254643e-01
-2.642713e-01
-4.165261e-01
-5.744770e-01
-7.304281e-01
-8.810283e-01
-1.023332e+00
-1.153796e+00
-1.268047e+00
-1.360784e+00
-1.425732e+00
-1.456232e+00
-1.448950e+00
-1.419251e+00
-1.426613e+00
-1.516474e+00
0.000000e+00
-3.436162e-04
-7.404457e-04
-1.128946e-03
-1.389177e-03
-1.262026e-03
-2.315060e-04
2.640584e-03
8.913485e-03
2.092801e-02
4.175018e-02
7.447874e-02
1.200182e-01
1.717320e-01
2.078839e-01
1.992558e-01
1.388316e-01
0.000000e+00
1.248914e-01
2.630199e-01
4.145767e-01
5.719850e-01
7.279525e-01
8.799267e-01
1.026416e+00
1.166314e+00
1.298965e+00
1.424105e+00
1.541065e+00
1.646661e+00
1.732070e+00
1.782749e+00
1.787315e+00
1.756376e+00
0.000000e+00
2.684441e-01
5.596758e-01
8.715224e-01
1.187445e+00
1.498123e+00
1.799358e+00
2.087854e+00
2.359354e+00
2.609219e+00
2.833124e+00
3.027024e+00
3.186300e+00
3.304909e+00
3.376417e+00
3.399776e+00
3.392582e+00
0.000000e+00
4.505724e-01
9.390462e-01
1.412090e+00
1.885358e+00
2.349907e+00
2.799895e+00
3.230510e+00
3.634062e+00
4.001228e+00
4.322960e+00
4.591561e+00
4.801325e+00
4.949529e+00
5.038203e+00
5.076064e+00
5.083035e+00
0.000000e+00
7.863604e-01
1.440323e+00
2.067381e+00
2.697948e+00
3.318499e+00
3.920838e+00
4.497669e+00
5.037667e+00
5.527049e+00
5.951782e+00
6.298894e+00
6.557969e+00
6.724360e+00
6.804932e+00
6.824741e+00
6.824308e+00
0.000000e+00
-4.805297e-01
-9.700396e-01
-1.616501e+00
-2.417809e+00
-3.375728e+00
-4.488392e+00
-5.750240e+00
-7.152103e+00
-8.682694e+00
-1.033003e+01
-1.208375e+01
-1.393965e+01
-1.590912e+01
-1.805078e+01
-2.054938e+01
-2.427124e+01
0.000000e+00
-2.990866e-01
-8.081406e-01
-1.451513e+00
-2.253887e+00
-3.215574e+00
-4.333879e+00
-5.603250e+00
-7.014929e+00
-8.557289e+00
-1.021740e+01
-1.198371e+01
-1.385081e+01
-1.582998e+01
-1.797321e+01
-2.045701e+01
-2.356396e+01
0.000000e+00
-2.336013e-01
-6.976576e-01
-1.336503e+00
-2.137955e+00
-3.102213e+00
-4.225086e+00
-5.500851e+00
-6.920984e+00
-8.474058e+00
-1.014718e+01
-1.192888e+01
-1.381405e+01
-1.581217e+01
-1.795907e+01
-2.029610e+01
-2.254106e+01
0.000000e+00
-2.132603e-01
-6.465211e-01
-1.270893e+00
-2.070091e+00
-3.035649e+00
-4.162152e+00
-5.443399e+00
-6.871041e+00
-8.434054e+00
-1.011980e+01
-1.191637e+01
-1.381589e+01
-1.581678e+01
-1.791357e+01
-2.003237e+01
-2.194962e+01
0.000000e+00
-2.093440e-01
-6.323315e-01
-1.250732e+00
-2.048278e+00
-3.014824e+00
-4.143727e+00
-5.428881e+00
-6.862205e+00
-8.432934e+00
-1.012806e+01
-1.193353e+01
-1.383495e+01
-1.581452e+01
-1.783444e+01
-1.980891e+01
-2.159148e+01
0.000000e+00
-2.130723e-01
-6.464154e-01
-1.271176e+00
-2.071250e+00
-3.038531e+00
-4.168165e+00
-5.454703e+00
-6.890551e+00
-8.464928e+00
-1.016379e+01
-1.196986e+01
-1.386148e+01
-1.580835e+01
-1.776333e+01
-1.965499e+01
-2.138948e+01
0.000000e+00
-2.332895e-01
-6.974686e-01
-1.336935e+00
-2.139832e+00
-3.106968e+00
-4.235108e+00
-5.519822e+00
-6.953898e+00
-8.526376e+00
-1.022214e+01
-1.202115e+01
-1.389660e+01
-1.581212e+01
-1.772027e+01
-1.956678e+01
-2.129988e+01
0.000000e+00
-2.987728e-01
-8.079354e-01
-1.451998e+00
-2.256028e+00
-3.221030e+00
-4.345390e+00
-5.624995e+00
-7.052516e+00
-8.616738e+00
-1.030206e+01
-1.208725e+01
-1.394353e+01
-1.583281e+01
-1.770939e+01
-1.953018e+01
-2.127891e+01
0.000000e+00
-4.803161e-01
-9.699399e-01
-1.617135e+00
-2.420168e+00
-3.381471e+00
-4.500152e+00
-5.771838e+00
-7.188349e+00
-8.738146e+00
-1.040565e+01
-1.216978e+01
-1.400211e+01
-1.586585e+01
-1.771851e+01
-1.952346e+01
-2.127929e+01


0.000000e+00
7.137246e-06
1.442214e-05
2.102046e-05
2.717786e-05
3.271998e-05
3.738899e-05
4.108719e-05
4.386192e-05
4.584554e-05
4.720785e-05
4.812251e-05
4.875208e-05
4.924697e-05
4.974139e-05
5.043706e-05
5.134904e-05
0.000000e+00
5.205464e-06
1.156843e-05
1.662533e-05
2.122715e-05
2.535900e-05
2.878885e-05
3.143516e-05
3.336040e-05
3.468609e-05
3.555018e-05
3.607882e-05
3.636363e-05
3.646733e-05
3.658090e-05
3.714268e-05
3.807811e-05
0.000000e+00
3.859397e-06
7.996082e-06
1.141569e-05
1.452532e-05
1.723386e-05
1.945399e-05
2.115501e-05
2.237572e-05
2.318941e-05
2.368365e-05
2.394204e-05
2.403603e-05
2.405139e-05
2.415284e-05
2.460305e-05
2.534946e-05
0.000000e+00
1.928110e-06
3.739230e-06
5.553338e-06
7.153074e-06
8.503028e-06
9.604422e-06
1.045778e-05
1.107122e-05
1.147132e-05
1.169932e-05
1.180455e-05
1.184531e-05
1.189287e-05
1.200940e-05
1.227051e-05
1.269778e-05
0.000000e+00
-3.779668e-09
-8.046097e-09
-1.279874e-08
-1.850867e-08
-2.621021e-08
-3.767572e-08
-5.501341e-08
-7.986576e-08
-1.121382e-07
-1.480022e-07
-1.769173e-07
-1.800435e-07
-1.401325e-07
-6.648127e-08
4.211066e-08
2.376653e-07
0.000000e+00
-1.934995e-06
-3.753455e-06
-5.576303e-06
-7.186369e-06
-8.549376e-06
-9.668510e-06
-1.054686e-05
-1.119497e-05
-1.164067e-05
-1.192304e-05
-1.208176e-05
-1.215127e-05
-1.216490e-05
-1.216092e-05
-1.214383e-05
-1.206967e-05
0.000000e+00
-3.863374e-06
-8.005862e-06
-1.143327e-05
-1.455335e-05
-1.727357e-05
-1.950365e-05
-2.121004e-05
-2.243153e-05
-2.324550e-05
-2.374763e-05
-2.403289e-05
-2.418242e-05
-2.425948e-05
-2.430586e-05
-2.432750e-05
-2.430851e-05
0.000000e+00
-5.206662e-06
-1.157372e-05
-1.663675e-05
-2.124861e-05
-2.539152e-05
-2.882566e-05
-3.146075e-05
-3.335579e-05
-3.463710e-05
-3.545428e-05
-3.595006e-05
-3.624050e-05
-3.640842e-05
-3.650470e-05
-3.655110e-05
-3.655810e-05
0.000000e+00
-7.140494e-06
-1.442689e-05
-2.102769e-05
-2.719001e-05
-3.273656e-05
-3.740113e-05
-4.107646e-05
-4.380519e-05
-4.572244e-05
-4.700428e-05
-4.782548e-05
-4.833183e-05
-4.862961e-05
-4.878712e-05
-4.884778e-05
-4.885818e-05
0.000000e+00
6.336230e-06
1.098991e-05
1.628139e-05
2.303421e-05
3.105832e-05
4.015730e-05
5.017824e-05
6.094900e-05
7.229414e-05
8.406207e-05
9.613905e-05
1.084691e-04
1.211439e-04
1.346759e-04
1.494414e-04
1.645376e-04
0.000000e+00
3.228856e-06
7.956196e-06
1.343949e-05
2.040287e-05
2.876476e-05
3.830864e-05
4.878196e-05
5.995368e-05
7.162184e-05
8.363040e-05
9.587483e-05
1.083104e-04
1.209839e-04
1.341134e-04
1.482623e-04
1.629944e-04
0.000000e+00
1.411279e-06
5.600177e-06
1.135274e-05
1.851005e-05
2.713131e-05
3.698809e-05
4.778299e-05
5.924411e-05
7.115168e-05
8.334439e-05
9.572151e-05
1.082356e-04
1.208561e-04
1.335593e-04
1.470254e-04
1.612014e-04
0.000000e+00
8.125146e-07
4.565443e-06
1.032804e-05
1.763606e-05
2.638901e-05
3.637109e-05
4.729808e-05
5.889120e-05
7.091869e-05
8.320979e-05
9.565513e-05
1.081875e-04
1.207334e-04
1.332416e-04
1.462114e-04
1.597194e-04
0.000000e+00
6.975124e-07
4.290805e-06
9.997740e-06
1.737026e-05
2.616858e-05
3.618616e-05
4.715127e-05
5.878686e-05
7.085553e-05
8.317955e-05
9.563988e-05
1.081565e-04
1.206603e-04
1.331252e-04
1.458209e-04
1.587449e-04
0.000000e+00
8.134231e-07
4.565645e-06
1.032679e-05
1.763377e-05
2.638836e-05
3.637652e-05
4.731419e-05
5.892103e-05
7.096184e-05
8.325903e-05
9.569049e-05
1.081745e-04
1.206546e-04
1.331199e-04
1.456650e-04
1.582211e-04
0.000000e+00
1.412626e-06
5.600719e-06
1.135145e-05
1.850765e-05
2.713258e-05
3.700084e-05
4.781548e-05
5.930213e-05
7.123549e-05
8.344375e-05
9.580569e-05
1.082392e-04
1.206917e-04
1.331417e-04
1.455981e-04
1.579873e-04
0.000000e+00
3.231366e-06
7.959505e-06
1.344254e-05
2.040671e-05
2.877358e-05
3.832928e-05
4.882230e-05
6.002050e-05
7.171754e-05
8.374733e-05
9.598439e-05
1.083376e-04
1.207443e-04
1.331650e-04
1.455703e-04
1.579115e-04
0.000000e+00
6.341187e-06
1.099707e-05
1.629082e-05
2.304700e-05
3.107587e-05
4.018162e-05
5.021298e-05
6.099982e-05
7.236578e-05
8.415106e-05
9.622098e-05
1.084677e-04
1.208109e-04
1.331933e-04
1.455683e-04
1.579002e-04


2.113610e+00
2.099443e+00
2.221477e+00
2.427388e+00
2.611138e+00
2.795503e+00
2.982855e+00
3.153812e+00
3.293543e+00
3.397549e+00
3.468388e+00
3.510804e+00
3.521896e+00
3.475920e+00
3.378701e+00
3.304288e+00
2.442747e+00
2.425804e+00
2.512306e+00
2.668715e+00
2.810521e+00
2.954634e+00
3.102547e+00
3.238114e+00
3.349317e+00
3.432241e+00
3.488526e+00
3.521455e+00
3.526742e+00
3.477951e+00
3.382872e+00
3.311181e+00
2.962775e+00
2.945759e+00
2.985870e+00
3.064312e+00
3.137399e+00
3.216114e+00
3.298268e+00
3.374421e+00
3.437613e+00
3.485049e+00
3.517043e+00
3.534945e+00
3.534480e+00
3.494351e+00
3.419604e+00
3.365221e+00
3.312552e+00
3.299520e+00
3.307899e+00
3.331710e+00
3.360305e+00
3.394027e+00
3.430100e+00
3.464383e+00
3.493622e+00
3.515956e+00
3.531054e+00
3.539469e+00
3.538913e+00
3.517714e+00
3.477752e+00
3.448824e+00
3.312479e+00
3.299392e+00
3.307651e+00
3.331257e+00
3.359558e+00
3.392887e+00
3.428430e+00
3.462008e+00
3.490420e+00
3.512024e+00
3.526907e+00
3.536403e+00
3.540780e+00
3.536187e+00
3.523151e+00
3.513337e+00
2.962404e+00
2.945205e+00
2.984963e+00
3.062914e+00
3.135459e+00
3.213662e+00
3.295229e+00
3.370481e+00
3.432351e+00
3.478374e+00
3.509808e+00
3.530080e+00
3.542563e+00
3.548445e+00
3.549218e+00
3.548609e+00
2.441882e+00
2.424633e+00
2.510627e+00
2.666527e+00
2.808143e+00
2.952683e+00
3.101505e+00
3.237885e+00
3.349215e+00
3.431535e+00
3.487366e+00
3.522645e+00
3.543819e+00
3.555764e+00
3.561799e+00
3.564201e+00
2.112386e+00
2.097846e+00
2.219335e+00
2.424846e+00
2.608842e+00
2.794567e+00
2.984256e+00
3.157721e+00
3.299179e+00
3.403715e+00
3.474497e+00
3.518854e+00
3.544901e+00
3.559327e+00
3.566656e+00
3.569714e+00


-3.482425e-01
-1.463009e-01
-5.865764e-02
-6.631794e-02
-3.150088e-02
2.733068e-02
1.022564e-01
1.980432e-01
3.108890e-01
4.284402e-01
5.365861e-01
6.239264e-01
6.840846e-01
7.157852e-01
7.460959e-01
-8.235058e-02
5.244616e-01
4.186852e-01
4.144106e-01
4.060613e-01
4.208875e-01
4.489348e-01
4.866664e-01
5.377765e-01
6.023882e-01
6.765278e-01
7.549296e-01
8.328396e-01
9.048787e-01
9.544026e-01
8.486855e-01
-5.987914e-01
8.358269e-01
7.642657e-01
7.146141e-01
6.969062e-01
6.958824e-01
7.021452e-01
7.142224e-01
7.337532e-01
7.617321e-01
7.970657e-01
8.356322e-01
8.681808e-01
8.754811e-01
8.159830e-01
6.061653e-01
2.314081e-01
9.526793e-01
8.993896e-01
8.573588e-01
8.354740e-01
8.257153e-01
8.197567e-01
8.152639e-01
8.123404e-01
8.115068e-01
8.118845e-01
8.094611e-01
7.958720e-01
7.596600e-01
6.984062e-01
6.513087e-01
6.424918e-01
9.530089e-01
8.998239e-01
8.577835e-01
8.355389e-01
8.247429e-01
8.165575e-01
8.078503e-01
7.977352e-01
7.858949e-01
7.715777e-01
7.534976e-01
7.315294e-01
7.119277e-01
7.154146e-01
7.668379e-01
8.540454e-01
8.365616e-01
7.652694e-01
7.156679e-01
6.973498e-01
6.944049e-01
6.963776e-01
7.001666e-01
7.053206e-01
7.108730e-01
7.153427e-01
7.187169e-01
7.256023e-01
7.476608e-01
7.981544e-01
8.751773e-01
9.547792e-01
5.249146e-01
4.193580e-01
4.151476e-01
4.066094e-01
4.206205e-01
4.467831e-01
4.810477e-01
5.264171e-01
5.820273e-01
6.428886e-01
7.038059e-01
7.631653e-01
8.242322e-01
8.903315e-01
9.527724e-01
9.921266e-01
-3.488571e-01
-1.474096e-01
-6.004110e-02
-6.810618e-02
-3.343162e-02
2.642793e-02
1.058158e-01
2.129934e-01
3.476270e-01
4.991197e-01
6.518589e-01
7.889328e-01
8.951375e-01
9.619273e-01
9.925407e-01
9.998439e-01
1 2 19 18
2 3 20 19
3 4 21 20
4 5 22 21
5 6 23 22
6 7 24 23
7 8 25 24
8 9 26 25
9 10 27 26
10 11 28 27
11 12 29 28
12 13 30 29
13 14 31 30
14 15 32 31
15 16 33 32
16 17 34 33
18 19 36 35
19 20 37 36
20 21 38 37
21 22 39 38
22 23 40 39
23 24 41 40
24 25 42 41
25 26 43 42
26 27 44 43
27 28 45 44
28 29 46 45
29 30 47 46
30 31 48 47
31 32 49 48
32 33 50 49
33 34 51 50
35 36 53 52
36 37 54 53
37 38 55 54
38 39 56 55
39 40 57 56
40 41 58 57
41 42 59 58
42 43 60 59
43 44 61 60
44 45 62 61
45 46 63 62
46 47 64 63
47 48 65 64
48 49 66 65
49 50 67 66
50 51 68 67
52 53 70 69
53 54 71 70
54 55 72 71
55 56 73 72
56 57 74 73
57 58 75 74
58 59 76 75
59 60 77 76
60 61 78 77
61 62 79 78
62 63 80 79
63 64 81 80
64 65 82 81
65 66 83 82
66 67 84 83
67 68 85 84
69 70 87 86
70 71 88 87
71 72 89 88
72 73 90 89
73 74 91 90
74 75 92 91
75 76 93 92
76 77 94 93
77 78 95 94
78 79 96 95
79 80 97 96
80 81 98 97
81 82 99 98
82 83 100 99
83 84 101 100
84 85 102 101
86 87 104 103
87 88 105 104
88 89 106 105
89 90 107 106
90 91 108 107
91 92 109 108
92 93 110 109
93 94 111 110
94 95 112 111
95 96 113 112
96 97 114 113
97 98 115 114
98 99 116 115
99 100 117 116
100 101 118 117
101 102 119 118
103 104 121 120
104 105 122 121
105 106 123 122
106 107 124 123
107 108 125 124
108 109 126 125
109 110 127 126
110 111 128 127
111 112 129 128
112 113 130 129
113 114 131 130
114 115 132 131
115 116 133 132
116 117 134 133
117 118 135 134
118 119 136 135
120 121 138 137
121 122 139 138
122 123 140 139
123 124 141 140
124 125 142 141
125 126 143 142
126 127 144 143
127 128 145 144
128 129 146 145
129 130 147 146
130 131 148 147
131 132 149 148
132 133 150 149
133 134 151 150
134 135 152 151
135 136 153 152
