TITLE = "Solution"
VARIABLES = x, y, u, v, psiu, psiv, t, stress
ZONE T="structure" N=153 E=128 F=FEBLOCK ET=QUADRILATERAL VARLOCATION=([7,8]=cellcentered)
0.000000e+00
1.250000e+01
2.500000e+01
3.750000e+01
5.000000e+01
6.250000e+01
7.500000e+01
8.750000e+01
1.000000e+02
1.125000e+02
1.250000e+02
1.375000e+02
1.500000e+02
1.625000e+02
1.750000e+02
1.875000e+02
2.000000e+02
0.000000e+00
1.250000e+01
2.500000e+01
3.750000e+01
5.000000e+01
6.250000e+01
7.500000e+01
8.750000e+01
1.000000e+02
1.125000e+02
1.250000e+02
1.375000e+02
1.500000e+02
1.625000e+02
1.750000e+02
1.875000e+02
2.000000e+02
0.000000e+00
1.250000e+01
2.500000e+01
3.750000e+01
5.000000e+01
6.250000e+01
7.500000e+01
8.750000e+01
1.000000e+02
1.125000e+02
1.250000e+02
1.375000e+02
1.500000e+02
1.625000e+02
1.750000e+02
1.875000e+02
2.000000e+02
0.000000e+00
1.250000e+01
2.500000e+01
3.750000e+01
5.000000e+01
6.250000e+01
7.500000e+01
8.750000e+01
1.000000e+02
1.125000e+02
1.250000e+02
1.375000e+02
1.500000e+02
1.625000e+02
1.750000e+02
1.875000e+02
2.000000e+02
0.000000e+00
1.250000e+01
2.500000e+01
3.750000e+01
5.000000e+01
6.250000e+01
7.500000e+01
8.750000e+01
1.000000e+02
1.125000e+02
1.250000e+02
1.375000e+02
1.500000e+02
1.625000e+02
1.750000e+02
1.875000e+02
2.000000e+02
0.000000e+00
1.250000e+01
2.500000e+01
3.750000e+01
5.000000e+01
6.250000e+01
7.500000e+01
8.750000e+01
1.000000e+02
1.125000e+02
1.250000e+02
1.375000e+02
1.500000e+02
1.625000e+02
1.750000e+02
1.875000e+02
2.000000e+02
0.000000e+00
1.250000e+01
2.500000e+01
3.750000e+01
5.000000e+01
6.250000e+01
7.500000e+01
8.750000e+01
1.000000e+02
1.125000e+02
1.250000e+02
1.375000e+02
1.500000e+02
1.625000e+02
1.750000e+02
1.875000e+02
2.000000e+02
0.000000e+00
1.250000e+01
2.500000e+01
3.750000e+01
5.000000e+01
6.250000e+01
7.500000e+01
8.750000e+01
1.000000e+02
1.125000e+02
1.250000e+02
1.375000e+02
1.500000e+02
1.625000e+02
1.750000e+02
1.875000e+02
2.000000e+02
0.000000e+00
1.250000e+01
2.500000e+01
3.750000e+01
5.000000e+01
6.250000e+01
7.500000e+01
8.750000e+01
1.000000e+02
1.125000e+02
1.250000e+02
1.375000e+02
1.500000e+02
1.625000e+02
1.750000e+02
1.875000e+02
2.000000e+02
0.000000e+00
0.000000e+00
0.000000e+00
0.000000e+00
0.000000e+00
0.000000e+00
0.000000e+00
0.000000e+00
0.000000e+00
0.000000e+00
0.000000e+00
0.000000e+00
0.000000e+00
0.000000e+00
0.000000e+00
0.000000e+00
0.000000e+00
1.250000e+01
1.250000e+01
1.250000e+01
1.250000e+01
1.250000e+01
1.250000e+01
1.250000e+01
1.250000e+01
1.250000e+01
1.250000e+01
1.250000e+01
1.250000e+01
1.250000e+01
1.250000e+01
1.250000e+01
1.250000e+01
1.250000e+01
2.500000e+01
2.500000e+01
2.500000e+01
2.500000e+01
2.500000e+01
2.500000e+01
2.500000e+01
2.500000e+01
2.500000e+01
2.500000e+01
2.500000e+01
2.500000e+01
2.500000e+01
2.500000e+01
2.500000e+01
2.500000e+01
2.500000e+01
3.750000e+01
3.750000e+01
3.750000e+01
3.750000e+01
3.750000e+01
3.750000e+01
3.750000e+01
3.750000e+01
3.750000e+01
3.750000e+01
3.750000e+01
3.750000e+01
3.750000e+01
3.750000e+01
3.750000e+01
3.750000e+01
3.750000e+01
5.000000e+01
5.000000e+01
5.000000e+01
5.000000e+01
5.000000e+01
5.000000e+01
5.000000e+01
5.000000e+01
5.000000e+01
5.000000e+01
5.000000e+01
5.000000e+01
5.000000e+01
5.000000e+01
5.000000e+01
5.000000e+01
5.000000e+01
6.250000e+01
6.250000e+01
6.250000e+01
6.250000e+01
6.250000e+01
6.250000e+01
6.250000e+01
6.250000e+01
6.250000e+01
6.250000e+01
6.250000e+01
6.250000e+01
6.250000e+01
6.250000e+01
6.250000e+01
6.250000e+01
6.250000e+01
7.500000e+01
7.500000e+01
7.500000e+01
7.500000e+01
7.500000e+01
7.500000e+01
7.500000e+01
7.500000e+01
7.500000e+01
7.500000e+01
7.500000e+01
7.500000e+01
7.500000e+01
7.500000e+01
7.500000e+01
7.500000e+01
7.500000e+01
8.750000e+01
8.750000e+01
8.750000e+01
8.750000e+01
8.750000e+01
8.750000e+01
8.750000e+01
8.750000e+01
8.750000e+01
8.750000e+01
8.750000e+01
8.750000e+01
8.750000e+01
8.750000e+01
8.750000e+01
8.750000e+01
8.750000e+01
1.000000e+02
1.000000e+02
1.000000e+02
1.000000e+02
1.000000e+02
1.000000e+02
1.000000e+02
1.000000e+02
1.000000e+02
1.000000e+02
1.000000e+02
1.000000e+02
1.000000e+02
1.000000e+02
1.000000e+02
1.000000e+02
1.000000e+02
0.000000e+00
-9.966785e-01
-1.680008e+00
-2.433004e+00
-3.119984e+00
-3.753341e+00
-4.461707e+00
-5.090344e+00
-5.765866e+00
-6.407648e+00
-7.056798e+00
-7.724857e+00
-8.379123e+00
-9.148733e+00
-1.007128e+01
-1.083315e+01
-1.128747e+01
0.000000e+00
-4.460477e-01
-9.062691e-01
-1.418761e+00
-1.930237e+00
-2.409790e+00
-2.923468e+00
-3.421203e+00
-3.916689e+00
-4.419107e+00
-4.911488e+00
-5.414719e+00
-5.899953e+00
-6.419848e+00
-6.898154e+00
-7.025559e+00
-7.204935e+00
0.000000e+00
-1.454717e-01
-3.475053e-01
-6.374273e-01
-9.745693e-01
-1.298830e+00
-1.651396e+00
-2.008270e+00
-2.351440e+00
-2.713582e+00
-3.052047e+00
-3.386739e+00
-3.680723e+00
-3.918862e+00
-4.032775e+00
-4.033745e+00
-4.180513e+00
0.000000e+00
-7.812352e-02
-1.603620e-01
-3.067050e-01
-4.508337e-01
-6.230902e-01
-8.084732e-01
-9.730807e-01
-1.160039e+00
-1.321276e+00
-1.481410e+00
-1.619365e+00
-1.715997e+00
-1.725695e+00
-1.650556e+00
-1.629055e+00
-1.745695e+00
0.000000e+00
-2.575958e-03
-5.839789e-03
-8.673999e-03
-1.168516e-02
-1.340896e-02
-1.136768e-02
-6.564848e-03
3.088711e-03
2.005079e-02
4.305277e-02
8.376752e-02
1.611226e-01
2.671787e-01
3.822992e-01
4.288404e-01
3.297657e-01
0.000000e+00
7.365056e-02
1.514757e-01
2.911732e-01
4.293436e-01
5.998282e-01
7.841064e-01
9.604717e-01
1.170248e+00
1.361193e+00
1.571252e+00
1.782350e+00
2.007456e+00
2.212783e+00
2.340326e+00
2.369216e+00
2.302236e+00
0.000000e+00
1.439501e-01
3.444677e-01
6.296203e-01
9.614303e-01
1.282068e+00
1.631420e+00
1.992038e+00
2.355857e+00
2.766891e+00
3.149367e+00
3.507625e+00
3.837899e+00
4.118889e+00
4.294159e+00
4.346616e+00
4.321620e+00
0.000000e+00
4.449493e-01
9.088630e-01
1.419702e+00
1.929136e+00
2.410612e+00
2.918229e+00
3.413105e+00
3.901187e+00
4.391433e+00
4.875456e+00
5.349345e+00
5.766513e+00
6.117755e+00
6.335554e+00
6.432659e+00
6.450664e+00
0.000000e+00
9.946925e-01
1.685805e+00
2.441933e+00
3.130252e+00
3.776604e+00
4.482070e+00
5.108138e+00
5.757131e+00
6.332027e+00
6.903161e+00
7.504159e+00
8.021256e+00
8.436649e+00
8.638994e+00
8.693443e+00
8.694597e+00
0.000000e+00
-6.190472e-01
-1.362921e+00
-2.366050e+00
-3.542909e+00
-4.890164e+00
-6.426766e+00
-8.118774e+00
-9.985553e+00
-1.201496e+01
-1.420457e+01
-1.655935e+01
-1.907670e+01
-2.181230e+01
-2.478065e+01
-2.813360e+01
-3.316193e+01
0.000000e+00
-4.161464e-01
-1.194531e+00
-2.179684e+00
-3.373789e+00
-4.716013e+00
-6.249180e+00
-7.950383e+00
-9.809396e+00
-1.184770e+01
-1.403247e+01
-1.639169e+01
-1.890344e+01
-2.161898e+01
-2.464061e+01
-2.805268e+01
-3.209258e+01
0.000000e+00
-3.906963e-01
-1.092750e+00
-2.076320e+00
-3.254616e+00
-4.589776e+00
-6.129369e+00
-7.820611e+00
-9.691024e+00
-1.172679e+01
-1.392245e+01
-1.629310e+01
-1.881529e+01
-2.155236e+01
-2.462978e+01
-2.790885e+01
-3.093281e+01
0.000000e+00
-4.497254e-01
-1.089159e+00
-2.050017e+00
-3.191570e+00
-4.518777e+00
-6.066629e+00
-7.744066e+00
-9.635261e+00
-1.167048e+01
-1.388829e+01
-1.627476e+01
-1.882778e+01
-2.156042e+01
-2.455419e+01
-2.760831e+01
-3.023367e+01
0.000000e+00
-4.562837e-01
-1.111516e+00
-2.034307e+00
-3.175966e+00
-4.507932e+00
-6.042821e+00
-7.743145e+00
-9.627756e+00
-1.168508e+01
-1.391929e+01
-1.630717e+01
-1.887050e+01
-2.156526e+01
-2.439096e+01
-2.722876e+01
-2.962095e+01
0.000000e+00
-4.469849e-01
-1.088376e+00
-2.051657e+00
-3.195051e+00
-4.534619e+00
-6.091436e+00
-7.783552e+00
-9.692921e+00
-1.175293e+01
-1.399291e+01
-1.636113e+01
-1.889719e+01
-2.155909e+01
-2.425541e+01
-2.689065e+01
-2.916697e+01
0.000000e+00
-3.868584e-01
-1.091001e+00
-2.078064e+00
-3.262113e+00
-4.615239e+00
-6.174621e+00
-7.897221e+00
-9.802461e+00
-1.187252e+01
-1.407997e+01
-1.643135e+01
-1.893201e+01
-2.155791e+01
-2.417722e+01
-2.668365e+01
-2.893090e+01
0.000000e+00
-4.125548e-01
-1.192026e+00
-2.180921e+00
-3.382571e+00
-4.742353e+00
-6.301597e+00
-8.039703e+00
-9.942799e+00
-1.201213e+01
-1.419467e+01
-1.653159e+01
-1.900671e+01
-2.159580e+01
-2.415774e+01
-2.659705e+01
-2.886674e+01
0.000000e+00
-6.166504e-01
-1.361480e+00
-2.367239e+00
-3.553126e+00
-4.917789e+00
-6.479519e+00
-8.207932e+00
-1.011428e+01
-1.216718e+01
-1.434972e+01
-1.667883e+01
-1.912890e+01
-2.167647e+01
-2.418350e+01
-2.658276e+01
-2.886478e+01


0.000000e+00
1.533489e-05
2.482959e-05
3.689273e-05
5.244231e-05
6.536584e-05
8.090358e-05
9.490334e-05
1.101813e-04
1.248139e-04
1.406231e-04
1.554060e-04
1.719540e-04
1.877177e-04
1.974620e-04
2.031640e-04
2.103987e-04
0.000000e+00
1.149020e-05
1.983016e-05
2.863867e-05
4.139086e-05
5.233936e-05
6.281036e-05
7.422977e-05
8.446548e-05
9.551567e-05
1.057144e-04
1.156500e-04
1.262677e-04
1.356436e-04
1.373952e-04
1.412146e-04
1.471623e-04
0.000000e+00
9.749125e-06
1.558516e-05
2.140065e-05
3.092146e-05
3.842761e-05
4.483681e-05
5.258051e-05
5.834474e-05
6.490382e-05
7.015199e-05
7.476462e-05
7.867695e-05
8.062106e-05
8.007121e-05
8.262426e-05
8.689996e-05
0.000000e+00
5.448941e-06
7.507491e-06
1.113845e-05
1.589631e-05
1.819153e-05
2.253789e-05
2.479292e-05
2.760825e-05
2.898045e-05
3.078802e-05
2.985328e-05
2.826452e-05
2.641549e-05
2.656384e-05
3.003255e-05
3.567905e-05
0.000000e+00
-9.276682e-08
-2.342717e-07
-4.329496e-07
-6.801976e-07
-9.791745e-07
-1.359480e-06
-1.779609e-06
-2.678064e-06
-4.189034e-06
-7.493483e-06
-1.183154e-05
-1.467484e-05
-1.554641e-05
-1.514228e-05
-1.282842e-05
-8.660966e-06
0.000000e+00
-5.576655e-06
-7.860160e-06
-1.179283e-05
-1.703395e-05
-1.992654e-05
-2.469980e-05
-2.791225e-05
-3.101958e-05
-3.321430e-05
-3.708405e-05
-4.233314e-05
-4.648741e-05
-4.757587e-05
-4.812339e-05
-4.861381e-05
-4.698501e-05
0.000000e+00
-9.756881e-06
-1.559971e-05
-2.154620e-05
-3.150269e-05
-3.922748e-05
-4.616126e-05
-5.424251e-05
-5.941754e-05
-6.417386e-05
-6.860555e-05
-7.325882e-05
-7.718791e-05
-8.002132e-05
-8.221326e-05
-8.416817e-05
-8.488929e-05
0.000000e+00
-1.145275e-05
-1.975689e-05
-2.851001e-05
-4.139999e-05
-5.228188e-05
-6.286202e-05
-7.454328e-05
-8.456230e-05
-9.510676e-05
-1.054538e-04
-1.127919e-04
-1.175940e-04
-1.223865e-04
-1.256912e-04
-1.269214e-04
-1.270563e-04
0.000000e+00
-1.538773e-05
-2.487042e-05
-3.672848e-05
-5.207117e-05
-6.475405e-05
-7.962226e-05
-9.369342e-05
-1.085468e-04
-1.244730e-04
-1.426096e-04
-1.573277e-04
-1.654369e-04
-1.703880e-04
-1.725813e-04
-1.726910e-04
-1.724807e-04
0.000000e+00
1.263932e-05
1.992094e-05
3.199125e-05
4.736119e-05
6.363271e-05
8.503519e-05
1.098527e-04
1.391055e-04
1.730039e-04
2.120043e-04
2.562258e-04
3.069810e-04
3.620453e-04
4.239430e-04
4.947421e-04
5.681621e-04
0.000000e+00
7.725321e-06
1.603269e-05
2.590661e-05
4.096468e-05
5.775693e-05
7.858817e-05
1.038381e-04
1.327332e-04
1.668623e-04
2.057485e-04
2.501480e-04
3.005165e-04
3.571385e-04
4.185935e-04
4.870608e-04
5.573309e-04
0.000000e+00
4.277478e-06
1.205594e-05
2.107911e-05
3.508982e-05
5.280325e-05
7.354950e-05
9.895819e-05
1.280059e-04
1.621605e-04
2.013938e-04
2.460697e-04
2.971191e-04
3.550848e-04
4.144741e-04
4.796580e-04
5.474431e-04
0.000000e+00
2.945396e-06
9.974224e-06
1.892762e-05
3.290513e-05
5.054659e-05
7.184751e-05
9.710574e-05
1.265514e-04
1.600441e-04
1.995083e-04
2.453525e-04
2.972454e-04
3.542337e-04
4.117916e-04
4.718656e-04
5.335304e-04
0.000000e+00
2.439476e-06
9.415223e-06
1.846869e-05
3.236536e-05
5.001517e-05
7.121902e-05
9.674579e-05
1.261427e-04
1.589267e-04
1.983477e-04
2.463002e-04
2.984430e-04
3.546445e-04
4.106832e-04
4.650453e-04
5.171295e-04
0.000000e+00
3.058297e-06
1.014929e-05
1.909073e-05
3.304038e-05
5.056311e-05
7.154113e-05
9.679243e-05
1.259954e-04
1.583487e-04
1.991333e-04
2.489710e-04
3.010372e-04
3.547317e-04
4.105609e-04
4.624333e-04
5.058394e-04
0.000000e+00
4.426633e-06
1.232741e-05
2.137110e-05
3.538610e-05
5.272652e-05
7.303871e-05
9.788054e-05
1.261874e-04
1.595544e-04
2.016977e-04
2.525248e-04
3.043718e-04
3.562407e-04
4.095993e-04
4.598251e-04
5.025129e-04
0.000000e+00
7.845881e-06
1.632273e-05
2.630746e-05
4.130595e-05
5.781688e-05
7.811016e-05
1.025527e-04
1.302678e-04
1.641638e-04
2.061078e-04
2.556042e-04
3.071630e-04
3.581445e-04
4.095254e-04
4.579940e-04
5.029682e-04
0.000000e+00
1.276582e-05
2.019754e-05
3.239758e-05
4.772395e-05
6.369412e-05
8.464234e-05
1.086746e-04
1.365923e-04
1.709316e-04
2.125978e-04
2.592705e-04
3.089135e-04
3.594781e-04
4.096972e-04
4.575373e-04
5.032486e-04


5.685039e+00
6.143816e+00
6.869060e+00
5.946597e+00
5.786950e+00
6.665560e+00
6.497735e+00
6.471186e+00
5.989347e+00
5.920355e+00
6.303379e+00
7.169544e+00
8.857152e+00
9.832456e+00
9.160466e+00
8.004308e+00
8.088428e+00
8.463839e+00
8.663229e+00
8.359052e+00
8.262181e+00
8.549291e+00
8.707875e+00
8.440529e+00
8.411258e+00
8.276895e+00
8.426824e+00
8.852978e+00
9.511554e+00
9.845424e+00
8.465092e+00
6.427472e+00
9.844423e+00
9.824332e+00
1.000000e+01
9.838438e+00
9.836703e+00
9.976709e+00
9.836376e+00
9.950302e+00
9.849853e+00
9.882012e+00
9.899777e+00
9.877952e+00
9.912924e+00
9.725575e+00
8.508646e+00
6.565858e+00
1.000000e+01
1.000000e+01
1.000000e+01
1.000000e+01
1.000000e+01
1.000000e+01
1.000000e+01
1.000000e+01
1.000000e+01
1.000000e+01
1.000000e+01
9.556093e+00
8.967645e+00
8.879198e+00
8.901711e+00
8.600252e+00
1.000000e+01
1.000000e+01
1.000000e+01
1.000000e+01
1.000000e+01
1.000000e+01
1.000000e+01
1.000000e+01
1.000000e+01
9.985792e+00
9.381005e+00
8.737013e+00
7.863548e+00
8.049957e+00
9.118111e+00
9.623252e+00
9.836159e+00
9.824533e+00
1.000000e+01
9.837152e+00
9.838545e+00
9.914517e+00
9.836677e+00
9.999245e+00
9.788259e+00
9.242308e+00
8.541509e+00
8.019609e+00
8.356893e+00
8.777408e+00
9.480608e+00
9.999996e+00
8.038657e+00
8.440516e+00
8.658871e+00
8.358566e+00
8.019395e+00
8.177766e+00
8.656686e+00
8.703280e+00
8.614309e+00
8.091797e+00
7.818449e+00
8.556745e+00
9.369481e+00
9.867803e+00
1.000000e+01
1.000000e+01
5.562026e+00
6.094197e+00
6.854356e+00
5.857246e+00
5.292333e+00
5.809497e+00
6.387746e+00
7.170262e+00
6.909460e+00
7.099267e+00
8.193178e+00
9.076887e+00
1.000000e+01
1.000000e+01
1.000000e+01
1.000000e+01


-8.208705e-01
-1.673195e-01
-3.990133e-01
-2.601069e-01
-9.243874e-02
-3.077926e-01
-1.220743e-01
-2.081696e-01
-1.609717e-01
-1.561564e-01
-2.158306e-01
-1.529257e-01
-4.616781e-01
-6.721132e-01
3.069807e-01
-8.854713e-01
6.113448e-01
4.826906e-01
2.962318e-01
2.261496e-01
2.916254e-01
1.668539e-01
1.724879e-01
1.702308e-01
1.057321e-01
1.471395e-01
1.262164e-01
2.439879e-01
3.087789e-01
5.013322e-01
6.998686e-01
-8.757280e-01
7.229884e-01
4.716891e-01
5.586131e-02
-2.428944e-02
-3.942248e-02
-1.984528e-01
-9.262912e-02
-1.508911e-01
-8.642227e-02
-2.156104e-02
3.638695e-02
1.760550e-01
2.827424e-01
1.303081e-01
-4.314379e-02
-1.112035e-01
7.278744e-01
5.547983e-01
1.896100e-01
5.769844e-02
-2.770492e-02
-1.140541e-01
-2.850748e-02
-7.360683e-02
7.557733e-03
9.220748e-03
6.318921e-02
8.264714e-02
5.325040e-02
-2.982487e-01
-5.071334e-01
-1.343843e-01
7.312281e-01
5.573264e-01
1.949869e-01
6.247309e-02
-3.565794e-02
-1.269364e-01
-5.903113e-02
-1.116007e-01
-4.829040e-02
-5.362852e-02
3.333498e-02
-1.275761e-02
-2.668657e-02
-8.215214e-02
-1.538461e-01
2.501626e-01
7.307520e-01
4.782261e-01
7.241444e-02
-6.302439e-03
-5.509285e-02
-2.220407e-01
-1.714824e-01
-2.865002e-01
-2.441720e-01
-1.412370e-01
-5.495331e-02
-1.066705e-01
-1.258653e-01
9.659253e-02
3.578059e-01
7.272564e-01
6.169634e-01
4.817711e-01
3.083753e-01
2.397594e-01
2.903612e-01
1.700329e-01
1.390266e-01
8.426215e-02
-7.436923e-02
-6.982441e-02
-7.851216e-02
-3.631867e-02
2.467256e-02
3.688800e-01
7.113629e-01
9.459720e-01
-8.118587e-01
-1.898011e-01
-4.017792e-01
-2.590094e-01
-1.209676e-01
-2.912092e-01
-1.155491e-01
-1.515067e-01
-3.219997e-02
-2.814877e-02
-8.887926e-02
1.406472e-01
3.728265e-01
7.719468e-01
9.519087e-01
9.985855e-01
1 2 19 18
2 3 20 19
3 4 21 20
4 5 22 21
5 6 23 22
6 7 24 23
7 8 25 24
8 9 26 25
9 10 27 26
10 11 28 27
11 12 29 28
12 13 30 29
13 14 31 30
14 15 32 31
15 16 33 32
16 17 34 33
18 19 36 35
19 20 37 36
20 21 38 37
21 22 39 38
22 23 40 39
23 24 41 40
24 25 42 41
25 26 43 42
26 27 44 43
27 28 45 44
28 29 46 45
29 30 47 46
30 31 48 47
31 32 49 48
32 33 50 49
33 34 51 50
35 36 53 52
36 37 54 53
37 38 55 54
38 39 56 55
39 40 57 56
40 41 58 57
41 42 59 58
42 43 60 59
43 44 61 60
44 45 62 61
45 46 63 62
46 47 64 63
47 48 65 64
48 49 66 65
49 50 67 66
50 51 68 67
52 53 70 69
53 54 71 70
54 55 72 71
55 56 73 72
56 57 74 73
57 58 75 74
58 59 76 75
59 60 77 76
60 61 78 77
61 62 79 78
62 63 80 79
63 64 81 80
64 65 82 81
65 66 83 82
66 67 84 83
67 68 85 84
69 70 87 86
70 71 88 87
71 72 89 88
72 73 90 89
73 74 91 90
74 75 92 91
75 76 93 92
76 77 94 93
77 78 95 94
78 79 96 95
79 80 97 96
80 81 98 97
81 82 99 98
82 83 100 99
83 84 101 100
84 85 102 101
86 87 104 103
87 88 105 104
88 89 106 105
89 90 107 106
90 91 108 107
91 92 109 108
92 93 110 109
93 94 111 110
94 95 112 111
95 96 113 112
96 97 114 113
97 98 115 114
98 99 116 115
99 100 117 116
100 101 118 117
101 102 119 118
103 104 121 120
104 105 122 121
105 106 123 122
106 107 124 123
107 108 125 124
108 109 126 125
109 110 127 126
110 111 128 127
111 112 129 128
112 113 130 129
113 114 131 130
114 115 132 131
115 116 133 132
116 117 134 133
117 118 135 134
118 119 136 135
120 121 138 137
121 122 139 138
122 123 140 139
123 124 141 140
124 125 142 141
125 126 143 142
126 127 144 143
127 128 145 144
128 129 146 145
129 130 147 146
130 131 148 147
131 132 149 148
132 133 150 149
133 134 151 150
134 135 152 151
135 136 153 152
