TITLE = "Solution"
VARIABLES = x, y, u, v, psiu, psiv, t, stress
ZONE T="structure" N=153 E=128 F=FEBLOCK ET=QUADRILATERAL VARLOCATION=([7,8]=cellcentered)
0.000000e+00
1.250000e+01
2.500000e+01
3.750000e+01
5.000000e+01
6.250000e+01
7.500000e+01
8.750000e+01
1.000000e+02
1.125000e+02
1.250000e+02
1.375000e+02
1.500000e+02
1.625000e+02
1.750000e+02
1.875000e+02
2.000000e+02
0.000000e+00
1.250000e+01
2.500000e+01
3.750000e+01
5.000000e+01
6.250000e+01
7.500000e+01
8.750000e+01
1.000000e+02
1.125000e+02
1.250000e+02
1.375000e+02
1.500000e+02
1.625000e+02
1.750000e+02
1.875000e+02
2.000000e+02
0.000000e+00
1.250000e+01
2.500000e+01
3.750000e+01
5.000000e+01
6.250000e+01
7.500000e+01
8.750000e+01
1.000000e+02
1.125000e+02
1.250000e+02
1.375000e+02
1.500000e+02
1.625000e+02
1.750000e+02
1.875000e+02
2.000000e+02
0.000000e+00
1.250000e+01
2.500000e+01
3.750000e+01
5.000000e+01
6.250000e+01
7.500000e+01
8.750000e+01
1.000000e+02
1.125000e+02
1.250000e+02
1.375000e+02
1.500000e+02
1.625000e+02
1.750000e+02
1.875000e+02
2.000000e+02
0.000000e+00
1.250000e+01
2.500000e+01
3.750000e+01
5.000000e+01
6.250000e+01
7.500000e+01
8.750000e+01
1.000000e+02
1.125000e+02
1.250000e+02
1.375000e+02
1.500000e+02
1.625000e+02
1.750000e+02
1.875000e+02
2.000000e+02
0.000000e+00
1.250000e+01
2.500000e+01
3.750000e+01
5.000000e+01
6.250000e+01
7.500000e+01
8.750000e+01
1.000000e+02
1.125000e+02
1.250000e+02
1.375000e+02
1.500000e+02
1.625000e+02
1.750000e+02
1.875000e+02
2.000000e+02
0.000000e+00
1.250000e+01
2.500000e+01
3.750000e+01
5.000000e+01
6.250000e+01
7.500000e+01
8.750000e+01
1.000000e+02
1.125000e+02
1.250000e+02
1.375000e+02
1.500000e+02
1.625000e+02
1.750000e+02
1.875000e+02
2.000000e+02
0.000000e+00
1.250000e+01
2.500000e+01
3.750000e+01
5.000000e+01
6.250000e+01
7.500000e+01
8.750000e+01
1.000000e+02
1.125000e+02
1.250000e+02
1.375000e+02
1.500000e+02
1.625000e+02
1.750000e+02
1.875000e+02
2.000000e+02
0.000000e+00
1.250000e+01
2.500000e+01
3.750000e+01
5.000000e+01
6.250000e+01
7.500000e+01
8.750000e+01
1.000000e+02
1.125000e+02
1.250000e+02
1.375000e+02
1.500000e+02
1.625000e+02
1.750000e+02
1.875000e+02
2.000000e+02
0.000000e+00
0.000000e+00
0.000000e+00
0.000000e+00
0.000000e+00
0.000000e+00
0.000000e+00
0.000000e+00
0.000000e+00
0.000000e+00
0.000000e+00
0.000000e+00
0.000000e+00
0.000000e+00
0.000000e+00
0.000000e+00
0.000000e+00
1.250000e+01
1.250000e+01
1.250000e+01
1.250000e+01
1.250000e+01
1.250000e+01
1.250000e+01
1.250000e+01
1.250000e+01
1.250000e+01
1.250000e+01
1.250000e+01
1.250000e+01
1.250000e+01
1.250000e+01
1.250000e+01
1.250000e+01
2.500000e+01
2.500000e+01
2.500000e+01
2.500000e+01
2.500000e+01
2.500000e+01
2.500000e+01
2.500000e+01
2.500000e+01
2.500000e+01
2.500000e+01
2.500000e+01
2.500000e+01
2.500000e+01
2.500000e+01
2.500000e+01
2.500000e+01
3.750000e+01
3.750000e+01
3.750000e+01
3.750000e+01
3.750000e+01
3.750000e+01
3.750000e+01
3.750000e+01
3.750000e+01
3.750000e+01
3.750000e+01
3.750000e+01
3.750000e+01
3.750000e+01
3.750000e+01
3.750000e+01
3.750000e+01
5.000000e+01
5.000000e+01
5.000000e+01
5.000000e+01
5.000000e+01
5.000000e+01
5.000000e+01
5.000000e+01
5.000000e+01
5.000000e+01
5.000000e+01
5.000000e+01
5.000000e+01
5.000000e+01
5.000000e+01
5.000000e+01
5.000000e+01
6.250000e+01
6.250000e+01
6.250000e+01
6.250000e+01
6.250000e+01
6.250000e+01
6.250000e+01
6.250000e+01
6.250000e+01
6.250000e+01
6.250000e+01
6.250000e+01
6.250000e+01
6.250000e+01
6.250000e+01
6.250000e+01
6.250000e+01
7.500000e+01
7.500000e+01
7.500000e+01
7.500000e+01
7.500000e+01
7.500000e+01
7.500000e+01
7.500000e+01
7.500000e+01
7.500000e+01
7.500000e+01
7.500000e+01
7.500000e+01
7.500000e+01
7.500000e+01
7.500000e+01
7.500000e+01
8.750000e+01
8.750000e+01
8.750000e+01
8.750000e+01
8.750000e+01
8.750000e+01
8.750000e+01
8.750000e+01
8.750000e+01
8.750000e+01
8.750000e+01
8.750000e+01
8.750000e+01
8.750000e+01
8.750000e+01
8.750000e+01
8.750000e+01
1.000000e+02
1.000000e+02
1.000000e+02
1.000000e+02
1.000000e+02
1.000000e+02
1.000000e+02
1.000000e+02
1.000000e+02
1.000000e+02
1.000000e+02
1.000000e+02
1.000000e+02
1.000000e+02
1.000000e+02
1.000000e+02
1.000000e+02
0.000000e+00
-1.572491e-01
-2.895451e-01
-4.112758e-01
-5.246436e-01
-6.294088e-01
-7.253460e-01
-8.123801e-01
-8.906373e-01
-9.604777e-01
-1.022593e+00
-1.078198e+00
-1.129381e+00
-1.179749e+00
-1.235524e+00
-1.304023e+00
-1.355424e+00
0.000000e+00
-9.390549e-02
-1.950705e-01
-2.884911e-01
-3.745621e-01
-4.536105e-01
-5.257994e-01
-5.912253e-01
-6.500056e-01
-7.023210e-01
-7.484371e-01
-7.886860e-01
-8.233245e-01
-8.519959e-01
-8.722193e-01
-8.766520e-01
-8.925439e-01
0.000000e+00
-5.872527e-02
-1.207542e-01
-1.826382e-01
-2.404064e-01
-2.934467e-01
-3.417159e-01
-3.852682e-01
-4.241141e-01
-4.581886e-01
-4.873082e-01
-5.110660e-01
-5.286150e-01
-5.384113e-01
-5.386833e-01
-5.347699e-01
-5.509785e-01
0.000000e+00
-2.834427e-02
-5.835073e-02
-8.854730e-02
-1.174213e-01
-1.440166e-01
-1.681231e-01
-1.896703e-01
-2.085349e-01
-2.244712e-01
-2.370718e-01
-2.457420e-01
-2.497719e-01
-2.488304e-01
-2.449623e-01
-2.460201e-01
-2.580890e-01
0.000000e+00
-2.611871e-05
-5.937503e-05
-9.252237e-05
-1.101171e-04
-7.772033e-05
7.302525e-05
4.647788e-04
1.298779e-03
2.874784e-03
5.583870e-03
9.818907e-03
1.568605e-02
2.231623e-02
2.689618e-02
2.564010e-02
1.764935e-02
0.000000e+00
2.830408e-02
5.825744e-02
8.839806e-02
1.172357e-01
1.438656e-01
1.681816e-01
1.903024e-01
2.104196e-01
2.287666e-01
2.455830e-01
2.609931e-01
2.747294e-01
2.857444e-01
2.922240e-01
2.927379e-01
2.886821e-01
0.000000e+00
5.871867e-02
1.207341e-01
1.825982e-01
2.403439e-01
2.933689e-01
3.416514e-01
3.852891e-01
4.243722e-01
4.589700e-01
4.891125e-01
5.147259e-01
5.355155e-01
5.508861e-01
5.601118e-01
5.631075e-01
5.621617e-01
0.000000e+00
9.394402e-02
1.951543e-01
2.886247e-01
3.747412e-01
4.538022e-01
5.259070e-01
5.910285e-01
6.490672e-01
6.998552e-01
7.431512e-01
7.786559e-01
8.060851e-01
8.253479e-01
8.368386e-01
8.417388e-01
8.426388e-01
0.000000e+00
1.573135e-01
2.897150e-01
4.115941e-01
5.251521e-01
6.301241e-01
7.261992e-01
8.130976e-01
8.905281e-01
9.580879e-01
1.015191e+00
1.061076e+00
1.094989e+00
1.116663e+00
1.127144e+00
1.129732e+00
1.129682e+00
0.000000e+00
-9.518744e-02
-1.868653e-01
-3.056591e-01
-4.514543e-01
-6.239784e-01
-8.213423e-01
-1.041337e+00
-1.281625e+00
-1.539896e+00
-1.814019e+00
-2.102296e+00
-2.404033e+00
-2.720841e+00
-3.060938e+00
-3.450074e+00
-4.009198e+00
0.000000e+00
-5.859927e-02
-1.542342e-01
-2.745005e-01
-4.226779e-01
-5.975559e-01
-7.973104e-01
-1.019679e+00
-1.262295e+00
-1.522809e+00
-1.799029e+00
-2.089181e+00
-2.392461e+00
-2.710440e+00
-3.050404e+00
-3.437179e+00
-3.911021e+00
0.000000e+00
-4.421870e-02
-1.316128e-01
-2.523226e-01
-4.019005e-01
-5.785782e-01
-7.801686e-01
-1.004387e+00
-1.248884e+00
-1.511342e+00
-1.789613e+00
-2.081982e+00
-2.387723e+00
-2.708147e+00
-3.048404e+00
-3.414886e+00
-3.769561e+00
0.000000e+00
-3.810507e-02
-1.203657e-01
-2.393049e-01
-3.894233e-01
-5.671882e-01
-7.700353e-01
-9.955931e-01
-1.241556e+00
-1.505669e+00
-1.785832e+00
-2.080295e+00
-2.387988e+00
-2.708766e+00
-3.042216e+00
-3.378959e+00
-3.689176e+00
0.000000e+00
-3.634395e-02
-1.169619e-01
-2.351522e-01
-3.853113e-01
-5.635186e-01
-7.669489e-01
-9.932328e-01
-1.240108e+00
-1.505359e+00
-1.786834e+00
-2.082511e+00
-2.390478e+00
-2.708464e+00
-3.031709e+00
-3.349157e+00
-3.641604e+00
0.000000e+00
-3.808245e-02
-1.203496e-01
-2.393336e-01
-3.895640e-01
-5.675589e-01
-7.708283e-01
-9.970950e-01
-1.244145e+00
-1.509751e+00
-1.791623e+00
-2.087314e+00
-2.393963e+00
-2.707667e+00
-3.022399e+00
-3.328961e+00
-3.615166e+00
0.000000e+00
-4.418180e-02
-1.315862e-01
-2.523704e-01
-4.021376e-01
-5.792054e-01
-7.815130e-01
-1.006937e+00
-1.253286e+00
-1.518294e+00
-1.799518e+00
-2.094132e+00
-2.398588e+00
-2.708181e+00
-3.016812e+00
-3.317490e+00
-3.603505e+00
0.000000e+00
-5.856468e-02
-1.542110e-01
-2.745640e-01
-4.229626e-01
-5.982934e-01
-7.988755e-01
-1.022626e+00
-1.267352e+00
-1.530746e+00
-1.810264e+00
-2.102879e+00
-2.404741e+00
-2.710887e+00
-3.015412e+00
-3.312747e+00
-3.600767e+00
0.000000e+00
-9.517314e-02
-1.868673e-01
-3.057573e-01
-4.517843e-01
-6.247665e-01
-8.229436e-01
-1.044259e+00
-1.286496e+00
-1.547306e+00
-1.824085e+00
-2.113739e+00
-2.412390e+00
-2.715187e+00
-3.016602e+00
-3.311880e+00
-3.600810e+00


0.000000e+00
1.450658e-08
2.969902e-08
4.333685e-08
5.523470e-08
6.535045e-08
7.379327e-08
8.075534e-08
8.644598e-08
9.107070e-08
9.482294e-08
9.787966e-08
1.003957e-07
1.024904e-07
1.042690e-07
1.059914e-07
1.077288e-07
0.000000e+00
9.333924e-09
2.217936e-08
3.293903e-08
4.193418e-08
4.943211e-08
5.561329e-08
6.066161e-08
6.474757e-08
6.802189e-08
7.061269e-08
7.262124e-08
7.412031e-08
7.520415e-08
7.621243e-08
7.772855e-08
7.954870e-08
0.000000e+00
6.649790e-09
1.500239e-08
2.221246e-08
2.827961e-08
3.325968e-08
3.729839e-08
4.054494e-08
4.312515e-08
4.513975e-08
4.666789e-08
4.777466e-08
4.853498e-08
4.909730e-08
4.976554e-08
5.091489e-08
5.241377e-08
0.000000e+00
3.478533e-09
7.397531e-09
1.098096e-08
1.405309e-08
1.655689e-08
1.855686e-08
2.013366e-08
2.135275e-08
2.226386e-08
2.290840e-08
2.333230e-08
2.360744e-08
2.385308e-08
2.422507e-08
2.490528e-08
2.589370e-08
0.000000e+00
-2.091615e-12
-5.808520e-12
-1.271610e-11
-2.508279e-11
-4.635025e-11
-8.134958e-11
-1.362482e-10
-2.176764e-10
-3.303037e-10
-4.718358e-10
-6.251951e-10
-7.514800e-10
-7.951151e-10
-6.974287e-10
-3.745387e-10
2.196494e-10
0.000000e+00
-3.481987e-09
-7.407033e-09
-1.100177e-08
-1.409390e-08
-1.663174e-08
-1.868754e-08
-2.035214e-08
-2.170262e-08
-2.279868e-08
-2.368285e-08
-2.437979e-08
-2.489781e-08
-2.523631e-08
-2.539313e-08
-2.533263e-08
-2.503254e-08
0.000000e+00
-6.651438e-09
-1.500813e-08
-2.222488e-08
-2.830241e-08
-3.329847e-08
-3.736165e-08
-4.064515e-08
-4.328034e-08
-4.537513e-08
-4.701658e-08
-4.827299e-08
-4.919596e-08
-4.982446e-08
-5.019169e-08
-5.031453e-08
-5.022717e-08
0.000000e+00
-9.335856e-09
-2.218599e-08
-3.294904e-08
-4.194534e-08
-4.943991e-08
-5.560942e-08
-6.063250e-08
-6.467368e-08
-6.787867e-08
-7.037480e-08
-7.227143e-08
-7.365965e-08
-7.461302e-08
-7.519608e-08
-7.547851e-08
-7.554134e-08
0.000000e+00
-1.451641e-08
-2.971590e-08
-4.335704e-08
-5.525175e-08
-6.535182e-08
-7.375636e-08
-8.064290e-08
-8.620118e-08
-9.061255e-08
-9.404303e-08
-9.664107e-08
-9.853647e-08
-9.983958e-08
-1.006445e-07
-1.010354e-07
-1.011503e-07
0.000000e+00
1.316494e-08
2.428515e-08
3.623501e-08
5.054415e-08
6.735859e-08
8.642101e-08
1.073846e-07
1.299050e-07
1.536879e-07
1.785011e-07
2.041903e-07
2.307297e-07
2.583781e-07
2.878485e-07
3.191275e-07
3.505241e-07
0.000000e+00
7.355479e-09
1.820762e-08
3.070836e-08
4.581226e-08
6.341432e-08
8.319047e-08
1.047671e-07
1.278053e-07
1.520198e-07
1.771886e-07
2.031652e-07
2.299072e-07
2.575317e-07
2.863556e-07
3.168019e-07
3.477334e-07
0.000000e+00
3.989420e-09
1.341155e-08
2.632578e-08
4.207233e-08
6.032753e-08
8.068095e-08
1.027505e-07
1.262063e-07
1.507747e-07
1.762420e-07
2.024587e-07
2.293377e-07
2.568182e-07
2.848995e-07
3.142982e-07
3.443321e-07
0.000000e+00
2.538692e-09
1.107549e-08
2.394631e-08
4.002178e-08
5.864329e-08
7.932310e-08
1.016718e-07
1.253673e-07
1.501434e-07
1.757856e-07
2.021261e-07
2.290241e-07
2.563203e-07
2.839249e-07
3.123831e-07
3.411856e-07
0.000000e+00
2.157060e-09
1.041657e-08
2.321004e-08
3.937777e-08
5.812099e-08
7.891412e-08
1.013638e-07
1.251507e-07
1.500080e-07
1.757129e-07
2.020758e-07
2.289200e-07
2.560551e-07
2.833391e-07
3.110673e-07
3.387101e-07
0.000000e+00
2.541435e-09
1.108154e-08
2.395852e-08
4.004419e-08
5.868206e-08
7.938668e-08
1.017700e-07
1.255082e-07
1.503266e-07
1.759896e-07
2.022894e-07
2.290297e-07
2.560089e-07
2.830539e-07
3.102350e-07
3.370719e-07
0.000000e+00
3.993799e-09
1.342226e-08
2.634794e-08
4.211312e-08
6.039808e-08
8.079641e-08
1.029284e-07
1.264614e-07
1.511073e-07
1.766158e-07
2.027634e-07
2.293409e-07
2.561405e-07
2.829699e-07
3.097696e-07
3.361529e-07
0.000000e+00
7.361451e-09
1.822306e-08
3.073861e-08
4.586610e-08
6.350499e-08
8.333561e-08
1.049866e-07
1.281151e-07
1.524183e-07
1.776303e-07
2.035130e-07
2.298450e-07
2.564143e-07
2.830280e-07
3.095668e-07
3.357514e-07
0.000000e+00
1.317471e-08
2.430555e-08
3.627123e-08
5.060461e-08
6.745537e-08
8.656949e-08
1.076008e-07
1.301992e-07
1.540503e-07
1.788757e-07
2.044243e-07
2.304642e-07
2.567790e-07
2.831800e-07
3.095371e-07
3.356463e-07


4.594564e-01
4.594558e-01
4.594626e-01
4.594751e-01
4.594865e-01
4.594959e-01
4.595035e-01
4.595095e-01
4.595142e-01
4.595178e-01
4.595204e-01
4.595222e-01
4.595230e-01
4.595217e-01
4.595186e-01
4.595162e-01
4.594709e-01
4.594700e-01
4.594750e-01
4.594848e-01
4.594940e-01
4.595016e-01
4.595077e-01
4.595126e-01
4.595163e-01
4.595192e-01
4.595213e-01
4.595227e-01
4.595232e-01
4.595216e-01
4.595184e-01
4.595160e-01
4.594949e-01
4.594938e-01
4.594962e-01
4.595016e-01
4.595068e-01
4.595112e-01
4.595148e-01
4.595176e-01
4.595198e-01
4.595215e-01
4.595227e-01
4.595234e-01
4.595234e-01
4.595220e-01
4.595193e-01
4.595175e-01
4.595119e-01
4.595109e-01
4.595115e-01
4.595135e-01
4.595159e-01
4.595180e-01
4.595197e-01
4.595210e-01
4.595220e-01
4.595228e-01
4.595233e-01
4.595235e-01
4.595234e-01
4.595226e-01
4.595212e-01
4.595203e-01
4.595119e-01
4.595109e-01
4.595114e-01
4.595135e-01
4.595158e-01
4.595179e-01
4.595196e-01
4.595209e-01
4.595218e-01
4.595225e-01
4.595229e-01
4.595232e-01
4.595234e-01
4.595233e-01
4.595230e-01
4.595229e-01
4.594949e-01
4.594938e-01
4.594962e-01
4.595016e-01
4.595067e-01
4.595111e-01
4.595146e-01
4.595173e-01
4.595194e-01
4.595209e-01
4.595220e-01
4.595229e-01
4.595236e-01
4.595241e-01
4.595245e-01
4.595247e-01
4.594709e-01
4.594700e-01
4.594749e-01
4.594848e-01
4.594939e-01
4.595015e-01
4.595076e-01
4.595124e-01
4.595162e-01
4.595190e-01
4.595211e-01
4.595227e-01
4.595239e-01
4.595248e-01
4.595255e-01
4.595258e-01
4.594564e-01
4.594557e-01
4.594626e-01
4.594750e-01
4.594865e-01
4.594959e-01
4.595035e-01
4.595096e-01
4.595144e-01
4.595180e-01
4.595207e-01
4.595228e-01
4.595242e-01
4.595253e-01
4.595260e-01
4.595263e-01


9.443682e-01
9.522573e-01
9.595542e-01
9.651707e-01
9.703845e-01
9.751925e-01
9.795732e-01
9.834752e-01
9.868574e-01
9.896862e-01
9.919356e-01
9.935834e-01
9.946077e-01
9.949732e-01
9.952370e-01
9.789754e-01
9.789537e-01
9.753384e-01
9.776637e-01
9.806986e-01
9.835284e-01
9.861005e-01
9.884292e-01
9.905384e-01
9.924484e-01
9.941785e-01
9.957483e-01
9.971699e-01
9.984101e-01
9.992222e-01
9.971685e-01
9.693319e-01
9.926874e-01
9.906108e-01
9.900499e-01
9.908381e-01
9.918751e-01
9.928797e-01
9.938125e-01
9.946939e-01
9.955478e-01
9.963804e-01
9.971580e-01
9.977601e-01
9.978857e-01
9.968015e-01
9.928683e-01
9.857941e-01
9.985116e-01
9.969971e-01
9.960615e-01
9.958240e-01
9.959187e-01
9.960776e-01
9.962363e-01
9.963915e-01
9.965438e-01
9.966713e-01
9.967067e-01
9.965171e-01
9.959157e-01
9.948363e-01
9.939209e-01
9.936892e-01
9.985172e-01
9.970050e-01
9.960685e-01
9.958226e-01
9.958951e-01
9.960097e-01
9.960892e-01
9.961160e-01
9.960794e-01
9.959621e-01
9.957437e-01
9.954289e-01
9.951293e-01
9.951888e-01
9.960360e-01
9.975024e-01
9.926978e-01
9.906266e-01
9.900651e-01
9.908382e-01
9.918348e-01
9.927553e-01
9.935342e-01
9.941603e-01
9.946292e-01
9.949450e-01
9.951447e-01
9.953399e-01
9.957500e-01
9.966098e-01
9.979014e-01
9.992368e-01
9.789517e-01
9.753369e-01
9.776605e-01
9.806899e-01
9.835062e-01
9.860499e-01
9.883243e-01
9.903382e-01
9.920931e-01
9.935933e-01
9.948633e-01
9.959725e-01
9.970407e-01
9.981606e-01
9.992078e-01
9.998674e-01
9.443302e-01
9.521979e-01
9.594814e-01
9.650890e-01
9.703111e-01
9.751659e-01
9.796638e-01
9.837941e-01
9.875578e-01
9.909473e-01
9.939223e-01
9.963903e-01
9.982263e-01
9.993591e-01
9.998744e-01
9.999973e-01
1 2 19 18
2 3 20 19
3 4 21 20
4 5 22 21
5 6 23 22
6 7 24 23
7 8 25 24
8 9 26 25
9 10 27 26
10 11 28 27
11 12 29 28
12 13 30 29
13 14 31 30
14 15 32 31
15 16 33 32
16 17 34 33
18 19 36 35
19 20 37 36
20 21 38 37
21 22 39 38
22 23 40 39
23 24 41 40
24 25 42 41
25 26 43 42
26 27 44 43
27 28 45 44
28 29 46 45
29 30 47 46
30 31 48 47
31 32 49 48
32 33 50 49
33 34 51 50
35 36 53 52
36 37 54 53
37 38 55 54
38 39 56 55
39 40 57 56
40 41 58 57
41 42 59 58
42 43 60 59
43 44 61 60
44 45 62 61
45 46 63 62
46 47 64 63
47 48 65 64
48 49 66 65
49 50 67 66
50 51 68 67
52 53 70 69
53 54 71 70
54 55 72 71
55 56 73 72
56 57 74 73
57 58 75 74
58 59 76 75
59 60 77 76
60 61 78 77
61 62 79 78
62 63 80 79
63 64 81 80
64 65 82 81
65 66 83 82
66 67 84 83
67 68 85 84
69 70 87 86
70 71 88 87
71 72 89 88
72 73 90 89
73 74 91 90
74 75 92 91
75 76 93 92
76 77 94 93
77 78 95 94
78 79 96 95
79 80 97 96
80 81 98 97
81 82 99 98
82 83 100 99
83 84 101 100
84 85 102 101
86 87 104 103
87 88 105 104
88 89 106 105
89 90 107 106
90 91 108 107
91 92 109 108
92 93 110 109
93 94 111 110
94 95 112 111
95 96 113 112
96 97 114 113
97 98 115 114
98 99 116 115
99 100 117 116
100 101 118 117
101 102 119 118
103 104 121 120
104 105 122 121
105 106 123 122
106 107 124 123
107 108 125 124
108 109 126 125
109 110 127 126
110 111 128 127
111 112 129 128
112 113 130 129
113 114 131 130
114 115 132 131
115 116 133 132
116 117 134 133
117 118 135 134
118 119 136 135
120 121 138 137
121 122 139 138
122 123 140 139
123 124 141 140
124 125 142 141
125 126 143 142
126 127 144 143
127 128 145 144
128 129 146 145
129 130 147 146
130 131 148 147
131 132 149 148
132 133 150 149
133 134 151 150
134 135 152 151
135 136 153 152
