TITLE = "Solution"
VARIABLES = x, y, u, v, psiu, psiv, t, stress
ZONE T="structure" N=153 E=128 F=FEBLOCK ET=QUADRILATERAL VARLOCATION=([7,8]=cellcentered)
0.000000e+00
1.250000e+01
2.500000e+01
3.750000e+01
5.000000e+01
6.250000e+01
7.500000e+01
8.750000e+01
1.000000e+02
1.125000e+02
1.250000e+02
1.375000e+02
1.500000e+02
1.625000e+02
1.750000e+02
1.875000e+02
2.000000e+02
0.000000e+00
1.250000e+01
2.500000e+01
3.750000e+01
5.000000e+01
6.250000e+01
7.500000e+01
8.750000e+01
1.000000e+02
1.125000e+02
1.250000e+02
1.375000e+02
1.500000e+02
1.625000e+02
1.750000e+02
1.875000e+02
2.000000e+02
0.000000e+00
1.250000e+01
2.500000e+01
3.750000e+01
5.000000e+01
6.250000e+01
7.500000e+01
8.750000e+01
1.000000e+02
1.125000e+02
1.250000e+02
1.375000e+02
1.500000e+02
1.625000e+02
1.750000e+02
1.875000e+02
2.000000e+02
0.000000e+00
1.250000e+01
2.500000e+01
3.750000e+01
5.000000e+01
6.250000e+01
7.500000e+01
8.750000e+01
1.000000e+02
1.125000e+02
1.250000e+02
1.375000e+02
1.500000e+02
1.625000e+02
1.750000e+02
1.875000e+02
2.000000e+02
0.000000e+00
1.250000e+01
2.500000e+01
3.750000e+01
5.000000e+01
6.250000e+01
7.500000e+01
8.750000e+01
1.000000e+02
1.125000e+02
1.250000e+02
1.375000e+02
1.500000e+02
1.625000e+02
1.750000e+02
1.875000e+02
2.000000e+02
0.000000e+00
1.250000e+01
2.500000e+01
3.750000e+01
5.000000e+01
6.250000e+01
7.500000e+01
8.750000e+01
1.000000e+02
1.125000e+02
1.250000e+02
1.375000e+02
1.500000e+02
1.625000e+02
1.750000e+02
1.875000e+02
2.000000e+02
0.000000e+00
1.250000e+01
2.500000e+01
3.750000e+01
5.000000e+01
6.250000e+01
7.500000e+01
8.750000e+01
1.000000e+02
1.125000e+02
1.250000e+02
1.375000e+02
1.500000e+02
1.625000e+02
1.750000e+02
1.875000e+02
2.000000e+02
0.000000e+00
1.250000e+01
2.500000e+01
3.750000e+01
5.000000e+01
6.250000e+01
7.500000e+01
8.750000e+01
1.000000e+02
1.125000e+02
1.250000e+02
1.375000e+02
1.500000e+02
1.625000e+02
1.750000e+02
1.875000e+02
2.000000e+02
0.000000e+00
1.250000e+01
2.500000e+01
3.750000e+01
5.000000e+01
6.250000e+01
7.500000e+01
8.750000e+01
1.000000e+02
1.125000e+02
1.250000e+02
1.375000e+02
1.500000e+02
1.625000e+02
1.750000e+02
1.875000e+02
2.000000e+02
0.000000e+00
0.000000e+00
0.000000e+00
0.000000e+00
0.000000e+00
0.000000e+00
0.000000e+00
0.000000e+00
0.000000e+00
0.000000e+00
0.000000e+00
0.000000e+00
0.000000e+00
0.000000e+00
0.000000e+00
0.000000e+00
0.000000e+00
1.250000e+01
1.250000e+01
1.250000e+01
1.250000e+01
1.250000e+01
1.250000e+01
1.250000e+01
1.250000e+01
1.250000e+01
1.250000e+01
1.250000e+01
1.250000e+01
1.250000e+01
1.250000e+01
1.250000e+01
1.250000e+01
1.250000e+01
2.500000e+01
2.500000e+01
2.500000e+01
2.500000e+01
2.500000e+01
2.500000e+01
2.500000e+01
2.500000e+01
2.500000e+01
2.500000e+01
2.500000e+01
2.500000e+01
2.500000e+01
2.500000e+01
2.500000e+01
2.500000e+01
2.500000e+01
3.750000e+01
3.750000e+01
3.750000e+01
3.750000e+01
3.750000e+01
3.750000e+01
3.750000e+01
3.750000e+01
3.750000e+01
3.750000e+01
3.750000e+01
3.750000e+01
3.750000e+01
3.750000e+01
3.750000e+01
3.750000e+01
3.750000e+01
5.000000e+01
5.000000e+01
5.000000e+01
5.000000e+01
5.000000e+01
5.000000e+01
5.000000e+01
5.000000e+01
5.000000e+01
5.000000e+01
5.000000e+01
5.000000e+01
5.000000e+01
5.000000e+01
5.000000e+01
5.000000e+01
5.000000e+01
6.250000e+01
6.250000e+01
6.250000e+01
6.250000e+01
6.250000e+01
6.250000e+01
6.250000e+01
6.250000e+01
6.250000e+01
6.250000e+01
6.250000e+01
6.250000e+01
6.250000e+01
6.250000e+01
6.250000e+01
6.250000e+01
6.250000e+01
7.500000e+01
7.500000e+01
7.500000e+01
7.500000e+01
7.500000e+01
7.500000e+01
7.500000e+01
7.500000e+01
7.500000e+01
7.500000e+01
7.500000e+01
7.500000e+01
7.500000e+01
7.500000e+01
7.500000e+01
7.500000e+01
7.500000e+01
8.750000e+01
8.750000e+01
8.750000e+01
8.750000e+01
8.750000e+01
8.750000e+01
8.750000e+01
8.750000e+01
8.750000e+01
8.750000e+01
8.750000e+01
8.750000e+01
8.750000e+01
8.750000e+01
8.750000e+01
8.750000e+01
8.750000e+01
1.000000e+02
1.000000e+02
1.000000e+02
1.000000e+02
1.000000e+02
1.000000e+02
1.000000e+02
1.000000e+02
1.000000e+02
1.000000e+02
1.000000e+02
1.000000e+02
1.000000e+02
1.000000e+02
1.000000e+02
1.000000e+02
1.000000e+02
0.000000e+00
-6.657931e-01
-1.225922e+00
-1.746228e+00
-2.239063e+00
-2.701570e+00
-3.130394e+00
-3.523202e+00
-3.878984e+00
-4.198190e+00
-4.483141e+00
-4.738838e+00
-4.974495e+00
-5.206385e+00
-5.462660e+00
-5.776438e+00
-6.011454e+00
0.000000e+00
-3.949334e-01
-8.214993e-01
-1.219551e+00
-1.592959e+00
-1.941564e+00
-2.264062e+00
-2.559262e+00
-2.826450e+00
-3.065531e+00
-3.277069e+00
-3.462155e+00
-3.621688e+00
-3.753817e+00
-3.846920e+00
-3.867337e+00
-3.940124e+00
0.000000e+00
-2.453588e-01
-5.059249e-01
-7.694876e-01
-1.019909e+00
-1.253579e+00
-1.469045e+00
-1.665438e+00
-1.841935e+00
-1.997595e+00
-2.131124e+00
-2.240351e+00
-2.321183e+00
-2.366387e+00
-2.367749e+00
-2.349858e+00
-2.424150e+00
0.000000e+00
-1.179175e-01
-2.437112e-01
-3.723471e-01
-4.975147e-01
-6.146084e-01
-7.221349e-01
-8.192284e-01
-9.048758e-01
-9.776168e-01
-1.035343e+00
-1.075158e+00
-1.093689e+00
-1.089347e+00
-1.071527e+00
-1.076349e+00
-1.131760e+00
0.000000e+00
-1.358561e-04
-3.046076e-04
-4.726100e-04
-5.693196e-04
-4.366727e-04
2.402145e-04
2.027254e-03
5.853487e-03
1.310317e-02
2.558266e-02
4.510792e-02
7.217429e-02
1.027795e-01
1.239510e-01
1.182365e-01
8.148793e-02
0.000000e+00
1.177032e-01
2.432224e-01
3.715707e-01
4.965403e-01
6.137622e-01
7.222221e-01
8.219270e-01
9.133186e-01
9.971468e-01
1.074290e+00
1.145172e+00
1.208463e+00
1.259274e+00
1.289197e+00
1.291611e+00
1.272939e+00
0.000000e+00
2.453016e-01
5.057760e-01
7.692167e-01
1.019506e+00
1.253080e+00
1.468586e+00
1.665359e+00
1.842940e+00
2.001005e+00
2.139243e+00
2.257010e+00
2.352754e+00
2.423612e+00
2.466169e+00
2.479999e+00
2.475647e+00
0.000000e+00
3.950827e-01
8.218214e-01
1.220065e+00
1.593653e+00
1.942297e+00
2.264404e+00
2.558213e+00
2.822006e+00
3.054073e+00
3.252632e+00
3.415853e+00
3.542139e+00
3.630905e+00
3.683880e+00
3.706476e+00
3.710628e+00
0.000000e+00
6.660557e-01
1.226631e+00
1.747576e+00
2.241250e+00
2.704689e+00
3.134148e+00
3.526355e+00
3.878371e+00
4.187116e+00
4.449009e+00
4.659940e+00
4.816055e+00
4.915905e+00
4.964207e+00
4.976126e+00
4.975892e+00
0.000000e+00
-4.037831e-01
-7.969781e-01
-1.308772e+00
-1.938717e+00
-2.686277e+00
-3.544321e+00
-4.504047e+00
-5.555688e+00
-6.689293e+00
-7.895470e+00
-9.166650e+00
-1.049974e+01
-1.190211e+01
-1.341133e+01
-1.514517e+01
-1.765673e+01
0.000000e+00
-2.489463e-01
-6.585469e-01
-1.174695e+00
-1.812775e+00
-2.568967e+00
-3.436414e+00
-4.405956e+00
-5.467584e+00
-6.611055e+00
-7.826619e+00
-9.106287e+00
-1.044643e+01
-1.185424e+01
-1.336302e+01
-1.508620e+01
-1.720749e+01
0.000000e+00
-1.888181e-01
-5.628109e-01
-1.079589e+00
-1.722217e+00
-2.485014e+00
-3.359667e+00
-4.336858e+00
-5.406567e+00
-6.558623e+00
-7.783408e+00
-9.073160e+00
-1.042458e+01
-1.184366e+01
-1.335389e+01
-1.498418e+01
-1.655998e+01
0.000000e+00
-1.642408e-01
-5.156608e-01
-1.023975e+00
-1.668101e+00
-2.434891e+00
-3.314516e+00
-4.297291e+00
-5.373358e+00
-6.532783e+00
-7.766120e+00
-9.065424e+00
-1.042579e+01
-1.184650e+01
-1.332552e+01
-1.481948e+01
-1.619138e+01
0.000000e+00
-1.574347e-01
-5.015428e-01
-1.006314e+00
-1.650341e+00
-2.418830e+00
-3.300856e+00
-4.286765e+00
-5.366892e+00
-6.531456e+00
-7.770783e+00
-9.075643e+00
-1.043725e+01
-1.184512e+01
-1.327722e+01
-1.468255e+01
-1.597271e+01
0.000000e+00
-1.641339e-01
-5.155850e-01
-1.024107e+00
-1.668748e+00
-2.436592e+00
-3.318155e+00
-4.304188e+00
-5.385256e+00
-6.551548e+00
-7.792762e+00
-9.097725e+00
-1.045328e+01
-1.184144e+01
-1.323435e+01
-1.458959e+01
-1.585097e+01
0.000000e+00
-1.886435e-01
-5.626842e-01
-1.079805e+00
-1.723300e+00
-2.487882e+00
-3.365822e+00
-4.348548e+00
-5.426774e+00
-6.590563e+00
-7.828948e+00
-9.129049e+00
-1.047456e+01
-1.184379e+01
-1.320860e+01
-1.453673e+01
-1.579724e+01
0.000000e+00
-2.487796e-01
-6.584307e-01
-1.174976e+00
-1.814067e+00
-2.572329e+00
-3.443565e+00
-4.419449e+00
-5.490773e+00
-6.647492e+00
-7.878240e+00
-9.169257e+00
-1.050288e+01
-1.185625e+01
-1.320214e+01
-1.451486e+01
-1.578463e+01
0.000000e+00
-4.037013e-01
-7.969678e-01
-1.309202e+00
-1.940209e+00
-2.689866e+00
-3.551637e+00
-4.517422e+00
-5.578020e+00
-6.723299e+00
-7.941697e+00
-9.219212e+00
-1.053810e+01
-1.187606e+01
-1.320762e+01
-1.451086e+01
-1.578483e+01


0.000000e+00
1.791403e-06
3.698883e-06
5.357910e-06
6.729899e-06
7.824527e-06
8.671875e-06
9.310909e-06
9.780776e-06
1.011787e-05
1.035443e-05
1.051839e-05
1.063435e-05
1.072453e-05
1.080938e-05
1.091630e-05
1.104664e-05
0.000000e+00
1.255187e-06
2.909723e-06
4.214289e-06
5.236442e-06
6.030169e-06
6.633164e-06
7.080070e-06
7.402466e-06
7.628176e-06
7.780662e-06
7.878638e-06
7.935657e-06
7.963026e-06
7.991096e-06
8.078357e-06
8.212370e-06
0.000000e+00
9.297005e-07
2.003683e-06
2.879181e-06
3.572057e-06
4.099093e-06
4.489890e-06
4.772167e-06
4.969697e-06
5.102173e-06
5.185433e-06
5.231932e-06
5.252160e-06
5.259643e-06
5.279960e-06
5.348564e-06
5.456619e-06
0.000000e+00
4.841181e-07
9.731993e-07
1.414179e-06
1.772498e-06
2.043605e-06
2.241175e-06
2.380729e-06
2.475335e-06
2.535482e-06
2.569785e-06
2.585984e-06
2.592525e-06
2.599881e-06
2.618298e-06
2.659594e-06
2.725213e-06
0.000000e+00
-6.265644e-10
-1.392019e-09
-2.372586e-09
-3.703446e-09
-5.566286e-09
-8.197802e-09
-1.187151e-08
-1.681898e-08
-2.304486e-08
-2.998213e-08
-3.599285e-08
-3.811856e-08
-3.348814e-08
-2.217357e-08
-2.715158e-09
3.079798e-08
0.000000e+00
-4.852516e-07
-9.756740e-07
-1.418392e-06
-1.778983e-06
-2.053124e-06
-2.254801e-06
-2.399918e-06
-2.501932e-06
-2.571545e-06
-2.617010e-06
-2.644410e-06
-2.658219e-06
-2.662604e-06
-2.662355e-06
-2.657816e-06
-2.643714e-06
0.000000e+00
-9.304388e-07
-2.005557e-06
-2.882448e-06
-3.576962e-06
-4.105825e-06
-4.498584e-06
-4.782926e-06
-4.982705e-06
-5.117943e-06
-5.205223e-06
-5.258218e-06
-5.288185e-06
-5.304289e-06
-5.313153e-06
-5.316360e-06
-5.312443e-06
0.000000e+00
-1.255604e-06
-2.911264e-06
-4.216954e-06
-5.240144e-06
-6.034566e-06
-6.637553e-06
-7.083337e-06
-7.403179e-06
-7.624897e-06
-7.772572e-06
-7.866585e-06
-7.923709e-06
-7.957003e-06
-7.975545e-06
-7.984101e-06
-7.985346e-06
0.000000e+00
-1.792395e-06
-3.700782e-06
-5.360486e-06
-6.732723e-06
-7.826802e-06
-8.672317e-06
-9.307724e-06
-9.771715e-06
-1.010033e-05
-1.032548e-05
-1.047418e-05
-1.056832e-05
-1.062450e-05
-1.065430e-05
-1.066584e-05
-1.066790e-05
0.000000e+00
1.618732e-06
2.861883e-06
4.164373e-06
5.740543e-06
7.600264e-06
9.699589e-06
1.198636e-05
1.441280e-05
1.694038e-05
1.953986e-05
2.219131e-05
2.488628e-05
2.764036e-05
3.052342e-05
3.357455e-05
3.666476e-05
0.000000e+00
8.484056e-07
2.081296e-06
3.491996e-06
5.200361e-06
7.181677e-06
9.385157e-06
1.175632e-05
1.424919e-05
1.682751e-05
1.946456e-05
2.214281e-05
2.485494e-05
2.760839e-05
3.043597e-05
3.340545e-05
3.644738e-05
0.000000e+00
4.009965e-07
1.478659e-06
2.976978e-06
4.789431e-06
6.867863e-06
9.152047e-06
1.158801e-05
1.413160e-05
1.674880e-05
1.941499e-05
2.211429e-05
2.483854e-05
2.758325e-05
3.035043e-05
3.322648e-05
3.619086e-05
0.000000e+00
2.300707e-07
1.206231e-06
2.711293e-06
4.575351e-06
6.705644e-06
9.032997e-06
1.150322e-05
1.407364e-05
1.671162e-05
1.939345e-05
2.210314e-05
2.482989e-05
2.756267e-05
3.029801e-05
3.310104e-05
3.596880e-05
0.000000e+00
1.906944e-07
1.134191e-06
2.629837e-06
4.508338e-06
6.655189e-06
8.996611e-06
1.147808e-05
1.405754e-05
1.670272e-05
1.938977e-05
2.210172e-05
2.482596e-05
2.755137e-05
3.027412e-05
3.303118e-05
3.581288e-05
0.000000e+00
2.303082e-07
1.206526e-06
2.711694e-06
4.575969e-06
6.706743e-06
9.035014e-06
1.150673e-05
1.407922e-05
1.671949e-05
1.940274e-05
2.211081e-05
2.483024e-05
2.755092e-05
3.026913e-05
3.299822e-05
3.572404e-05
0.000000e+00
4.013818e-07
1.479235e-06
2.977852e-06
4.790805e-06
6.870237e-06
9.156224e-06
1.159504e-05
1.414255e-05
1.676417e-05
1.943358e-05
2.213119e-05
2.484260e-05
2.755765e-05
3.027108e-05
3.298361e-05
3.568268e-05
0.000000e+00
8.490966e-07
2.082540e-06
3.493773e-06
5.202901e-06
7.185514e-06
9.391157e-06
1.176562e-05
1.426295e-05
1.684634e-05
1.948738e-05
2.216453e-05
2.486181e-05
2.756778e-05
3.027489e-05
3.297795e-05
3.566880e-05
0.000000e+00
1.620080e-06
2.864042e-06
4.167222e-06
5.744207e-06
7.605102e-06
9.706229e-06
1.199566e-05
1.442564e-05
1.695718e-05
1.955948e-05
2.220878e-05
2.488703e-05
2.758078e-05
3.028025e-05
3.297754e-05
3.566662e-05


1.912941e+00
1.914745e+00
1.938751e+00
1.978433e+00
2.014685e+00
2.044068e+00
2.067059e+00
2.084456e+00
2.097131e+00
2.105994e+00
2.111889e+00
2.115449e+00
2.116580e+00
2.113595e+00
2.107077e+00
2.102143e+00
1.952686e+00
1.953467e+00
1.972255e+00
2.004673e+00
2.034486e+00
2.058574e+00
2.077352e+00
2.091480e+00
2.101724e+00
2.108857e+00
2.113569e+00
2.116343e+00
2.116965e+00
2.113685e+00
2.107240e+00
2.102457e+00
2.021669e+00
2.021026e+00
2.031639e+00
2.050802e+00
2.068640e+00
2.083274e+00
2.094621e+00
2.103064e+00
2.109120e+00
2.113289e+00
2.115990e+00
2.117492e+00
2.117540e+00
2.114712e+00
2.109545e+00
2.105879e+00
2.072709e+00
2.071577e+00
2.075776e+00
2.084414e+00
2.093244e+00
2.100776e+00
2.106623e+00
2.110904e+00
2.113912e+00
2.115934e+00
2.117203e+00
2.117877e+00
2.117824e+00
2.116259e+00
2.113447e+00
2.111494e+00
2.072682e+00
2.071543e+00
2.075731e+00
2.084353e+00
2.093158e+00
2.100652e+00
2.106446e+00
2.110660e+00
2.113596e+00
2.115558e+00
2.116813e+00
2.117583e+00
2.117934e+00
2.117618e+00
2.116744e+00
2.116132e+00
2.021574e+00
2.020915e+00
2.031504e+00
2.050639e+00
2.068437e+00
2.083012e+00
2.094276e+00
2.102609e+00
2.108538e+00
2.112596e+00
2.115274e+00
2.117003e+00
2.118093e+00
2.118661e+00
2.118845e+00
2.118896e+00
1.952518e+00
1.953279e+00
1.972045e+00
2.004455e+00
2.034270e+00
2.058366e+00
2.077154e+00
2.091277e+00
2.101498e+00
2.108601e+00
2.113335e+00
2.116369e+00
2.118250e+00
2.119360e+00
2.119963e+00
2.120225e+00
1.912733e+00
1.914514e+00
1.938506e+00
1.978201e+00
2.014499e+00
2.043960e+00
2.067058e+00
2.084569e+00
2.097346e+00
2.106287e+00
2.112265e+00
2.116076e+00
2.118390e+00
2.119720e+00
2.120421e+00
2.120722e+00


7.679097e-03
1.466584e-01
2.627442e-01
3.427827e-01
4.232322e-01
5.045224e-01
5.839723e-01
6.584721e-01
7.254693e-01
7.829563e-01
8.294621e-01
8.639336e-01
8.856255e-01
8.937821e-01
8.999918e-01
5.601840e-01
6.286414e-01
5.606292e-01
5.929541e-01
6.356963e-01
6.789686e-01
7.220851e-01
7.640780e-01
8.042720e-01
8.421530e-01
8.774373e-01
9.100500e-01
9.399293e-01
9.661941e-01
9.834972e-01
9.405375e-01
3.576484e-01
8.711815e-01
8.312984e-01
8.163470e-01
8.254002e-01
8.405382e-01
8.568547e-01
8.733065e-01
8.898961e-01
9.067434e-01
9.236982e-01
9.398397e-01
9.524722e-01
9.551257e-01
9.322912e-01
8.497141e-01
7.013203e-01
9.724012e-01
9.435416e-01
9.246704e-01
9.184531e-01
9.185865e-01
9.202841e-01
9.223866e-01
9.247899e-01
9.274228e-01
9.297471e-01
9.302758e-01
9.261343e-01
9.133289e-01
8.905134e-01
8.713712e-01
8.666635e-01
9.725216e-01
9.437095e-01
9.248243e-01
9.184388e-01
9.181232e-01
9.189020e-01
9.193454e-01
9.190366e-01
9.176613e-01
9.147736e-01
9.098789e-01
9.030339e-01
8.965798e-01
8.978378e-01
9.158807e-01
9.470409e-01
8.714210e-01
8.316478e-01
8.166881e-01
8.254429e-01
8.397564e-01
8.543288e-01
8.675535e-01
8.787502e-01
8.874310e-01
8.933885e-01
8.972041e-01
9.011174e-01
9.097148e-01
9.279494e-01
9.554012e-01
9.837873e-01
6.286656e-01
5.606772e-01
5.929665e-01
6.355850e-01
6.785608e-01
7.210647e-01
7.619022e-01
8.000744e-01
8.346721e-01
8.650812e-01
8.913285e-01
9.145615e-01
9.371301e-01
9.608981e-01
9.831586e-01
9.971823e-01
7.055402e-03
1.456294e-01
2.614402e-01
3.412493e-01
4.217964e-01
5.039781e-01
5.858126e-01
6.650833e-01
7.401507e-01
8.095689e-01
8.715448e-01
9.234848e-01
9.623408e-01
9.863810e-01
9.973307e-01
9.999435e-01
1 2 19 18
2 3 20 19
3 4 21 20
4 5 22 21
5 6 23 22
6 7 24 23
7 8 25 24
8 9 26 25
9 10 27 26
10 11 28 27
11 12 29 28
12 13 30 29
13 14 31 30
14 15 32 31
15 16 33 32
16 17 34 33
18 19 36 35
19 20 37 36
20 21 38 37
21 22 39 38
22 23 40 39
23 24 41 40
24 25 42 41
25 26 43 42
26 27 44 43
27 28 45 44
28 29 46 45
29 30 47 46
30 31 48 47
31 32 49 48
32 33 50 49
33 34 51 50
35 36 53 52
36 37 54 53
37 38 55 54
38 39 56 55
39 40 57 56
40 41 58 57
41 42 59 58
42 43 60 59
43 44 61 60
44 45 62 61
45 46 63 62
46 47 64 63
47 48 65 64
48 49 66 65
49 50 67 66
50 51 68 67
52 53 70 69
53 54 71 70
54 55 72 71
55 56 73 72
56 57 74 73
57 58 75 74
58 59 76 75
59 60 77 76
60 61 78 77
61 62 79 78
62 63 80 79
63 64 81 80
64 65 82 81
65 66 83 82
66 67 84 83
67 68 85 84
69 70 87 86
70 71 88 87
71 72 89 88
72 73 90 89
73 74 91 90
74 75 92 91
75 76 93 92
76 77 94 93
77 78 95 94
78 79 96 95
79 80 97 96
80 81 98 97
81 82 99 98
82 83 100 99
83 84 101 100
84 85 102 101
86 87 104 103
87 88 105 104
88 89 106 105
89 90 107 106
90 91 108 107
91 92 109 108
92 93 110 109
93 94 111 110
94 95 112 111
95 96 113 112
96 97 114 113
97 98 115 114
98 99 116 115
99 100 117 116
100 101 118 117
101 102 119 118
103 104 121 120
104 105 122 121
105 106 123 122
106 107 124 123
107 108 125 124
108 109 126 125
109 110 127 126
110 111 128 127
111 112 129 128
112 113 130 129
113 114 131 130
114 115 132 131
115 116 133 132
116 117 134 133
117 118 135 134
118 119 136 135
120 121 138 137
121 122 139 138
122 123 140 139
123 124 141 140
124 125 142 141
125 126 143 142
126 127 144 143
127 128 145 144
128 129 146 145
129 130 147 146
130 131 148 147
131 132 149 148
132 133 150 149
133 134 151 150
134 135 152 151
135 136 153 152
