TITLE = "Solution"
VARIABLES = x, y, u, v, psiu, psiv, t, stress
ZONE T="structure" N=153 E=128 F=FEBLOCK ET=QUADRILATERAL VARLOCATION=([7,8]=cellcentered)
0.000000e+00
1.250000e+01
2.500000e+01
3.750000e+01
5.000000e+01
6.250000e+01
7.500000e+01
8.750000e+01
1.000000e+02
1.125000e+02
1.250000e+02
1.375000e+02
1.500000e+02
1.625000e+02
1.750000e+02
1.875000e+02
2.000000e+02
0.000000e+00
1.250000e+01
2.500000e+01
3.750000e+01
5.000000e+01
6.250000e+01
7.500000e+01
8.750000e+01
1.000000e+02
1.125000e+02
1.250000e+02
1.375000e+02
1.500000e+02
1.625000e+02
1.750000e+02
1.875000e+02
2.000000e+02
0.000000e+00
1.250000e+01
2.500000e+01
3.750000e+01
5.000000e+01
6.250000e+01
7.500000e+01
8.750000e+01
1.000000e+02
1.125000e+02
1.250000e+02
1.375000e+02
1.500000e+02
1.625000e+02
1.750000e+02
1.875000e+02
2.000000e+02
0.000000e+00
1.250000e+01
2.500000e+01
3.750000e+01
5.000000e+01
6.250000e+01
7.500000e+01
8.750000e+01
1.000000e+02
1.125000e+02
1.250000e+02
1.375000e+02
1.500000e+02
1.625000e+02
1.750000e+02
1.875000e+02
2.000000e+02
0.000000e+00
1.250000e+01
2.500000e+01
3.750000e+01
5.000000e+01
6.250000e+01
7.500000e+01
8.750000e+01
1.000000e+02
1.125000e+02
1.250000e+02
1.375000e+02
1.500000e+02
1.625000e+02
1.750000e+02
1.875000e+02
2.000000e+02
0.000000e+00
1.250000e+01
2.500000e+01
3.750000e+01
5.000000e+01
6.250000e+01
7.500000e+01
8.750000e+01
1.000000e+02
1.125000e+02
1.250000e+02
1.375000e+02
1.500000e+02
1.625000e+02
1.750000e+02
1.875000e+02
2.000000e+02
0.000000e+00
1.250000e+01
2.500000e+01
3.750000e+01
5.000000e+01
6.250000e+01
7.500000e+01
8.750000e+01
1.000000e+02
1.125000e+02
1.250000e+02
1.375000e+02
1.500000e+02
1.625000e+02
1.750000e+02
1.875000e+02
2.000000e+02
0.000000e+00
1.250000e+01
2.500000e+01
3.750000e+01
5.000000e+01
6.250000e+01
7.500000e+01
8.750000e+01
1.000000e+02
1.125000e+02
1.250000e+02
1.375000e+02
1.500000e+02
1.625000e+02
1.750000e+02
1.875000e+02
2.000000e+02
0.000000e+00
1.250000e+01
2.500000e+01
3.750000e+01
5.000000e+01
6.250000e+01
7.500000e+01
8.750000e+01
1.000000e+02
1.125000e+02
1.250000e+02
1.375000e+02
1.500000e+02
1.625000e+02
1.750000e+02
1.875000e+02
2.000000e+02
0.000000e+00
0.000000e+00
0.000000e+00
0.000000e+00
0.000000e+00
0.000000e+00
0.000000e+00
0.000000e+00
0.000000e+00
0.000000e+00
0.000000e+00
0.000000e+00
0.000000e+00
0.000000e+00
0.000000e+00
0.000000e+00
0.000000e+00
1.250000e+01
1.250000e+01
1.250000e+01
1.250000e+01
1.250000e+01
1.250000e+01
1.250000e+01
1.250000e+01
1.250000e+01
1.250000e+01
1.250000e+01
1.250000e+01
1.250000e+01
1.250000e+01
1.250000e+01
1.250000e+01
1.250000e+01
2.500000e+01
2.500000e+01
2.500000e+01
2.500000e+01
2.500000e+01
2.500000e+01
2.500000e+01
2.500000e+01
2.500000e+01
2.500000e+01
2.500000e+01
2.500000e+01
2.500000e+01
2.500000e+01
2.500000e+01
2.500000e+01
2.500000e+01
3.750000e+01
3.750000e+01
3.750000e+01
3.750000e+01
3.750000e+01
3.750000e+01
3.750000e+01
3.750000e+01
3.750000e+01
3.750000e+01
3.750000e+01
3.750000e+01
3.750000e+01
3.750000e+01
3.750000e+01
3.750000e+01
3.750000e+01
5.000000e+01
5.000000e+01
5.000000e+01
5.000000e+01
5.000000e+01
5.000000e+01
5.000000e+01
5.000000e+01
5.000000e+01
5.000000e+01
5.000000e+01
5.000000e+01
5.000000e+01
5.000000e+01
5.000000e+01
5.000000e+01
5.000000e+01
6.250000e+01
6.250000e+01
6.250000e+01
6.250000e+01
6.250000e+01
6.250000e+01
6.250000e+01
6.250000e+01
6.250000e+01
6.250000e+01
6.250000e+01
6.250000e+01
6.250000e+01
6.250000e+01
6.250000e+01
6.250000e+01
6.250000e+01
7.500000e+01
7.500000e+01
7.500000e+01
7.500000e+01
7.500000e+01
7.500000e+01
7.500000e+01
7.500000e+01
7.500000e+01
7.500000e+01
7.500000e+01
7.500000e+01
7.500000e+01
7.500000e+01
7.500000e+01
7.500000e+01
7.500000e+01
8.750000e+01
8.750000e+01
8.750000e+01
8.750000e+01
8.750000e+01
8.750000e+01
8.750000e+01
8.750000e+01
8.750000e+01
8.750000e+01
8.750000e+01
8.750000e+01
8.750000e+01
8.750000e+01
8.750000e+01
8.750000e+01
8.750000e+01
1.000000e+02
1.000000e+02
1.000000e+02
1.000000e+02
1.000000e+02
1.000000e+02
1.000000e+02
1.000000e+02
1.000000e+02
1.000000e+02
1.000000e+02
1.000000e+02
1.000000e+02
1.000000e+02
1.000000e+02
1.000000e+02
1.000000e+02
0.000000e+00
-7.411983e-02
-1.364781e-01
-1.938558e-01
-2.472905e-01
-2.966696e-01
-3.418871e-01
-3.829079e-01
-4.197915e-01
-4.527081e-01
-4.819837e-01
-5.081906e-01
-5.323131e-01
-5.560517e-01
-5.823391e-01
-6.146232e-01
-6.388490e-01
0.000000e+00
-4.426300e-02
-9.194777e-02
-1.359816e-01
-1.765504e-01
-2.138084e-01
-2.478328e-01
-2.786692e-01
-3.063732e-01
-3.310300e-01
-3.527649e-01
-3.717344e-01
-3.880597e-01
-4.015726e-01
-4.111040e-01
-4.131931e-01
-4.206831e-01
0.000000e+00
-2.768079e-02
-5.691863e-02
-8.608775e-02
-1.133163e-01
-1.383159e-01
-1.610664e-01
-1.815933e-01
-1.999020e-01
-2.159616e-01
-2.296859e-01
-2.408831e-01
-2.491540e-01
-2.537710e-01
-2.538992e-01
-2.520548e-01
-2.596940e-01
0.000000e+00
-1.336045e-02
-2.750428e-02
-4.173746e-02
-5.534698e-02
-6.788223e-02
-7.924421e-02
-8.939983e-02
-9.829096e-02
-1.058019e-01
-1.117407e-01
-1.158270e-01
-1.177263e-01
-1.172826e-01
-1.154595e-01
-1.159581e-01
-1.216463e-01
0.000000e+00
-1.230800e-05
-2.797990e-05
-4.360038e-05
-5.189069e-05
-3.661954e-05
3.443015e-05
2.190680e-04
6.121386e-04
1.354918e-03
2.631722e-03
4.627710e-03
7.392914e-03
1.051773e-02
1.267627e-02
1.208425e-02
8.318170e-03
0.000000e+00
1.334151e-02
2.746032e-02
4.166714e-02
5.525951e-02
6.781108e-02
7.927180e-02
8.969774e-02
9.917928e-02
1.078264e-01
1.157521e-01
1.230150e-01
1.294889e-01
1.346803e-01
1.377342e-01
1.379764e-01
1.360648e-01
0.000000e+00
2.767768e-02
5.690916e-02
8.606890e-02
1.132868e-01
1.382793e-01
1.610360e-01
1.816032e-01
2.000236e-01
2.163300e-01
2.305363e-01
2.426081e-01
2.524063e-01
2.596505e-01
2.639986e-01
2.654105e-01
2.649647e-01
0.000000e+00
4.428116e-02
9.198725e-02
1.360446e-01
1.766349e-01
2.138988e-01
2.478836e-01
2.785765e-01
3.059309e-01
3.298678e-01
3.502736e-01
3.670072e-01
3.799347e-01
3.890133e-01
3.944289e-01
3.967384e-01
3.971626e-01
0.000000e+00
7.415019e-02
1.365582e-01
1.940058e-01
2.475302e-01
2.970068e-01
3.422893e-01
3.832460e-01
4.197401e-01
4.515817e-01
4.784949e-01
5.001207e-01
5.161039e-01
5.263190e-01
5.312591e-01
5.324784e-01
5.324549e-01
0.000000e+00
-4.486679e-02
-8.807878e-02
-1.440715e-01
-2.127909e-01
-2.941086e-01
-3.871339e-01
-4.908258e-01
-6.040818e-01
-7.258138e-01
-8.550168e-01
-9.908909e-01
-1.133109e+00
-1.282429e+00
-1.442726e+00
-1.626136e+00
-1.889662e+00
0.000000e+00
-2.762083e-02
-7.269803e-02
-1.293850e-01
-1.992276e-01
-2.816549e-01
-3.758072e-01
-4.806179e-01
-5.949715e-01
-7.177605e-01
-8.479520e-01
-9.847096e-01
-1.127655e+00
-1.277527e+00
-1.437762e+00
-1.620058e+00
-1.843390e+00
0.000000e+00
-2.084238e-02
-6.203533e-02
-1.189315e-01
-1.894344e-01
-2.727102e-01
-3.677279e-01
-4.734106e-01
-5.886506e-01
-7.123560e-01
-8.435140e-01
-9.813167e-01
-1.125422e+00
-1.276446e+00
-1.436819e+00
-1.609551e+00
-1.776719e+00
0.000000e+00
-1.796051e-02
-5.673390e-02
-1.127956e-01
-1.835534e-01
-2.673417e-01
-3.629518e-01
-4.692658e-01
-5.851968e-01
-7.096825e-01
-8.417319e-01
-9.805216e-01
-1.125546e+00
-1.276738e+00
-1.433902e+00
-1.592619e+00
-1.738833e+00
0.000000e+00
-1.713031e-02
-5.512944e-02
-1.108382e-01
-1.816152e-01
-2.656121e-01
-3.614971e-01
-4.681533e-01
-5.845146e-01
-7.095360e-01
-8.422044e-01
-9.815661e-01
-1.126720e+00
-1.276596e+00
-1.428950e+00
-1.578573e+00
-1.716412e+00
0.000000e+00
-1.794985e-02
-5.672631e-02
-1.128091e-01
-1.836197e-01
-2.675164e-01
-3.633255e-01
-4.699736e-01
-5.864171e-01
-7.116060e-01
-8.444616e-01
-9.838298e-01
-1.128362e+00
-1.276220e+00
-1.424563e+00
-1.569054e+00
-1.703952e+00
0.000000e+00
-2.082499e-02
-6.202275e-02
-1.189541e-01
-1.895462e-01
-2.730058e-01
-3.683615e-01
-4.746125e-01
-5.907256e-01
-7.156326e-01
-8.481823e-01
-9.870432e-01
-1.130542e+00
-1.276463e+00
-1.421929e+00
-1.563648e+00
-1.698456e+00
0.000000e+00
-2.760452e-02
-7.268708e-02
-1.294150e-01
-1.993618e-01
-2.820025e-01
-3.765448e-01
-4.820071e-01
-5.973551e-01
-7.215012e-01
-8.532469e-01
-9.911657e-01
-1.133442e+00
-1.277738e+00
-1.421270e+00
-1.561413e+00
-1.697165e+00
0.000000e+00
-4.486005e-02
-8.807972e-02
-1.441178e-01
-2.129465e-01
-2.944801e-01
-3.878887e-01
-4.922029e-01
-6.063776e-01
-7.293060e-01
-8.597609e-01
-9.962840e-01
-1.137047e+00
-1.279764e+00
-1.421830e+00
-1.561004e+00
-1.697186e+00


0.000000e+00
6.327469e-08
1.268124e-07
1.857999e-07
2.410794e-07
2.923394e-07
3.393717e-07
3.821718e-07
4.208347e-07
4.555311e-07
4.864985e-07
5.139995e-07
5.381902e-07
5.588871e-07
5.758302e-07
5.903184e-07
6.032196e-07
0.000000e+00
3.563883e-08
8.669895e-08
1.325765e-07
1.746026e-07
2.133065e-07
2.486616e-07
2.806764e-07
3.093843e-07
3.348126e-07
3.569597e-07
3.757655e-07
3.911383e-07
4.033976e-07
4.145961e-07
4.279029e-07
4.416112e-07
0.000000e+00
2.249087e-08
5.483574e-08
8.515566e-08
1.133917e-07
1.393346e-07
1.628899e-07
1.840362e-07
2.027475e-07
2.189657e-07
2.326023e-07
2.435946e-07
2.521175e-07
2.590493e-07
2.663642e-07
2.762596e-07
2.877012e-07
0.000000e+00
1.099764e-08
2.629750e-08
4.114899e-08
5.526992e-08
6.822830e-08
7.988817e-08
9.020045e-08
9.910796e-08
1.065361e-07
1.124225e-07
1.168043e-07
1.199793e-07
1.226985e-07
1.262046e-07
1.319726e-07
1.399134e-07
0.000000e+00
1.125341e-11
1.378461e-11
-6.566613e-12
-6.917668e-11
-2.049405e-10
-4.591351e-10
-8.920397e-10
-1.573527e-09
-2.565719e-09
-3.884801e-09
-5.437184e-09
-6.945091e-09
-7.899922e-09
-7.519730e-09
-4.804637e-09
4.092360e-10
0.000000e+00
-1.097660e-08
-2.626948e-08
-4.115103e-08
-5.537087e-08
-6.854869e-08
-8.062584e-08
-9.165750e-08
-1.017107e-07
-1.108274e-07
-1.189917e-07
-1.260938e-07
-1.319082e-07
-1.360969e-07
-1.382427e-07
-1.378320e-07
-1.349773e-07
0.000000e+00
-2.247758e-08
-5.481625e-08
-8.514445e-08
-1.134161e-07
-1.394462e-07
-1.631786e-07
-1.846464e-07
-2.038928e-07
-2.209344e-07
-2.357339e-07
-2.481782e-07
-2.580731e-07
-2.651899e-07
-2.694128e-07
-2.708191e-07
-2.699762e-07
0.000000e+00
-3.565231e-08
-8.672589e-08
-1.326011e-07
-1.745987e-07
-2.132294e-07
-2.484379e-07
-2.801925e-07
-3.084760e-07
-3.332593e-07
-3.544922e-07
-3.720963e-07
-3.859671e-07
-3.960164e-07
-4.023354e-07
-4.054419e-07
-4.061922e-07
0.000000e+00
-6.334911e-08
-1.269442e-07
-1.859629e-07
-2.412187e-07
-2.923406e-07
-3.390181e-07
-3.810891e-07
-4.184255e-07
-4.509110e-07
-4.784549e-07
-5.010205e-07
-5.186521e-07
-5.314992e-07
-5.398651e-07
-5.441886e-07
-5.455768e-07
0.000000e+00
5.728307e-08
1.116906e-07
1.727197e-07
2.455105e-07
3.308142e-07
4.280650e-07
5.363568e-07
6.546478e-07
7.819281e-07
9.173334e-07
1.060331e-06
1.211206e-06
1.372121e-06
1.547052e-06
1.732869e-06
1.917242e-06
0.000000e+00
3.462553e-08
8.750669e-08
1.490330e-07
2.232623e-07
3.102991e-07
4.094055e-07
5.195577e-07
6.396876e-07
7.687717e-07
9.059308e-07
1.050592e-06
1.202767e-06
1.363406e-06
1.534083e-06
1.715185e-06
1.897129e-06
0.000000e+00
2.202641e-08
6.812240e-08
1.295989e-07
2.049154e-07
2.934534e-07
3.941726e-07
5.059701e-07
6.277602e-07
7.585153e-07
8.973262e-07
1.043480e-06
1.196487e-06
1.355899e-06
1.521454e-06
1.695945e-06
1.872029e-06
0.000000e+00
1.614491e-08
5.793250e-08
1.182741e-07
1.940934e-07
2.835600e-07
3.853271e-07
4.982225e-07
6.211460e-07
7.530521e-07
8.929571e-07
1.039927e-06
1.192979e-06
1.350881e-06
1.512650e-06
1.680421e-06
1.847746e-06
0.000000e+00
1.445614e-08
5.484491e-08
1.146324e-07
1.905875e-07
2.804250e-07
3.826431e-07
4.960385e-07
6.194974e-07
7.519354e-07
8.922681e-07
1.039354e-06
1.191882e-06
1.348222e-06
1.506777e-06
1.668540e-06
1.827252e-06
0.000000e+00
1.615799e-08
5.798134e-08
1.183948e-07
1.943331e-07
2.839831e-07
3.860139e-07
4.992577e-07
6.225888e-07
7.548739e-07
8.949309e-07
1.041467e-06
1.192979e-06
1.347617e-06
1.503380e-06
1.660130e-06
1.812560e-06
0.000000e+00
2.204750e-08
6.820751e-08
1.298104e-07
2.053359e-07
2.941965e-07
3.953802e-07
5.077921e-07
6.303017e-07
7.617276e-07
9.008057e-07
1.046139e-06
1.196119e-06
1.348814e-06
1.502092e-06
1.655091e-06
1.803614e-06
0.000000e+00
3.465231e-08
8.761474e-08
1.492936e-07
2.237756e-07
3.112016e-07
4.108659e-07
5.217504e-07
6.427262e-07
7.725727e-07
9.099612e-07
1.053418e-06
1.201280e-06
1.351648e-06
1.502556e-06
1.652827e-06
1.799345e-06
0.000000e+00
5.732743e-08
1.118170e-07
1.730009e-07
2.460452e-07
3.317326e-07
4.295211e-07
5.384963e-07
6.575328e-07
7.853899e-07
9.207052e-07
1.061968e-06
1.207498e-06
1.355471e-06
1.504158e-06
1.652458e-06
1.798100e-06


2.165711e-01
2.165709e-01
2.165712e-01
2.165719e-01
2.165724e-01
2.165730e-01
2.165734e-01
2.165738e-01
2.165742e-01
2.165745e-01
2.165748e-01
2.165750e-01
2.165751e-01
2.165750e-01
2.165747e-01
2.165745e-01
2.165720e-01
2.165719e-01
2.165721e-01
2.165726e-01
2.165730e-01
2.165734e-01
2.165738e-01
2.165741e-01
2.165744e-01
2.165747e-01
2.165749e-01
2.165751e-01
2.165752e-01
2.165750e-01
2.165747e-01
2.165744e-01
2.165736e-01
2.165735e-01
2.165735e-01
2.165737e-01
2.165740e-01
2.165742e-01
2.165744e-01
2.165746e-01
2.165748e-01
2.165750e-01
2.165751e-01
2.165752e-01
2.165752e-01
2.165750e-01
2.165747e-01
2.165746e-01
2.165747e-01
2.165746e-01
2.165745e-01
2.165746e-01
2.165747e-01
2.165748e-01
2.165749e-01
2.165750e-01
2.165750e-01
2.165751e-01
2.165751e-01
2.165752e-01
2.165752e-01
2.165751e-01
2.165749e-01
2.165749e-01
2.165747e-01
2.165746e-01
2.165745e-01
2.165746e-01
2.165747e-01
2.165748e-01
2.165749e-01
2.165749e-01
2.165750e-01
2.165751e-01
2.165751e-01
2.165751e-01
2.165752e-01
2.165752e-01
2.165751e-01
2.165752e-01
2.165736e-01
2.165735e-01
2.165735e-01
2.165737e-01
2.165740e-01
2.165742e-01
2.165744e-01
2.165746e-01
2.165747e-01
2.165749e-01
2.165750e-01
2.165751e-01
2.165752e-01
2.165753e-01
2.165753e-01
2.165754e-01
2.165720e-01
2.165719e-01
2.165721e-01
2.165725e-01
2.165730e-01
2.165734e-01
2.165738e-01
2.165741e-01
2.165744e-01
2.165747e-01
2.165749e-01
2.165751e-01
2.165752e-01
2.165754e-01
2.165755e-01
2.165756e-01
2.165710e-01
2.165709e-01
2.165712e-01
2.165719e-01
2.165724e-01
2.165730e-01
2.165734e-01
2.165739e-01
2.165742e-01
2.165746e-01
2.165749e-01
2.165751e-01
2.165753e-01
2.165755e-01
2.165756e-01
2.165756e-01


9.876400e-01
9.893927e-01
9.910141e-01
9.922623e-01
9.934208e-01
9.944891e-01
9.954624e-01
9.963292e-01
9.970806e-01
9.977090e-01
9.982087e-01
9.985747e-01
9.988022e-01
9.988834e-01
9.989420e-01
9.953298e-01
9.953240e-01
9.945208e-01
9.950375e-01
9.957120e-01
9.963408e-01
9.969123e-01
9.974296e-01
9.978982e-01
9.983225e-01
9.987069e-01
9.990556e-01
9.993713e-01
9.996468e-01
9.998272e-01
9.993710e-01
9.931876e-01
9.983753e-01
9.979140e-01
9.977894e-01
9.979646e-01
9.981950e-01
9.984183e-01
9.986255e-01
9.988213e-01
9.990110e-01
9.991960e-01
9.993687e-01
9.995025e-01
9.995304e-01
9.992895e-01
9.984158e-01
9.968444e-01
9.996693e-01
9.993329e-01
9.991250e-01
9.990723e-01
9.990933e-01
9.991287e-01
9.991640e-01
9.991984e-01
9.992323e-01
9.992606e-01
9.992685e-01
9.992264e-01
9.990928e-01
9.988530e-01
9.986497e-01
9.985982e-01
9.996706e-01
9.993346e-01
9.991266e-01
9.990720e-01
9.990881e-01
9.991136e-01
9.991313e-01
9.991372e-01
9.991291e-01
9.991031e-01
9.990545e-01
9.989846e-01
9.989181e-01
9.989313e-01
9.991195e-01
9.994452e-01
9.983776e-01
9.979175e-01
9.977928e-01
9.979646e-01
9.981861e-01
9.983906e-01
9.985637e-01
9.987028e-01
9.988070e-01
9.988771e-01
9.989215e-01
9.989649e-01
9.990560e-01
9.992469e-01
9.995338e-01
9.998305e-01
9.953235e-01
9.945204e-01
9.950368e-01
9.957100e-01
9.963359e-01
9.969010e-01
9.974063e-01
9.978538e-01
9.982436e-01
9.985769e-01
9.988590e-01
9.991054e-01
9.993427e-01
9.995914e-01
9.998240e-01
9.999705e-01
9.876316e-01
9.893795e-01
9.909980e-01
9.922441e-01
9.934045e-01
9.944832e-01
9.954825e-01
9.964001e-01
9.972362e-01
9.979891e-01
9.986500e-01
9.991982e-01
9.996060e-01
9.998576e-01
9.999721e-01
9.999994e-01
1 2 19 18
2 3 20 19
3 4 21 20
4 5 22 21
5 6 23 22
6 7 24 23
7 8 25 24
8 9 26 25
9 10 27 26
10 11 28 27
11 12 29 28
12 13 30 29
13 14 31 30
14 15 32 31
15 16 33 32
16 17 34 33
18 19 36 35
19 20 37 36
20 21 38 37
21 22 39 38
22 23 40 39
23 24 41 40
24 25 42 41
25 26 43 42
26 27 44 43
27 28 45 44
28 29 46 45
29 30 47 46
30 31 48 47
31 32 49 48
32 33 50 49
33 34 51 50
35 36 53 52
36 37 54 53
37 38 55 54
38 39 56 55
39 40 57 56
40 41 58 57
41 42 59 58
42 43 60 59
43 44 61 60
44 45 62 61
45 46 63 62
46 47 64 63
47 48 65 64
48 49 66 65
49 50 67 66
50 51 68 67
52 53 70 69
53 54 71 70
54 55 72 71
55 56 73 72
56 57 74 73
57 58 75 74
58 59 76 75
59 60 77 76
60 61 78 77
61 62 79 78
62 63 80 79
63 64 81 80
64 65 82 81
65 66 83 82
66 67 84 83
67 68 85 84
69 70 87 86
70 71 88 87
71 72 89 88
72 73 90 89
73 74 91 90
74 75 92 91
75 76 93 92
76 77 94 93
77 78 95 94
78 79 96 95
79 80 97 96
80 81 98 97
81 82 99 98
82 83 100 99
83 84 101 100
84 85 102 101
86 87 104 103
87 88 105 104
88 89 106 105
89 90 107 106
90 91 108 107
91 92 109 108
92 93 110 109
93 94 111 110
94 95 112 111
95 96 113 112
96 97 114 113
97 98 115 114
98 99 116 115
99 100 117 116
100 101 118 117
101 102 119 118
103 104 121 120
104 105 122 121
105 106 123 122
106 107 124 123
107 108 125 124
108 109 126 125
109 110 127 126
110 111 128 127
111 112 129 128
112 113 130 129
113 114 131 130
114 115 132 131
115 116 133 132
116 117 134 133
117 118 135 134
118 119 136 135
120 121 138 137
121 122 139 138
122 123 140 139
123 124 141 140
124 125 142 141
125 126 143 142
126 127 144 143
127 128 145 144
128 129 146 145
129 130 147 146
130 131 148 147
131 132 149 148
132 133 150 149
133 134 151 150
134 135 152 151
135 136 153 152
