TITLE = "Solution"
VARIABLES = x, y, u, v, psiu, psiv, t, stress
ZONE T="structure" N=153 E=128 F=FEBLOCK ET=QUADRILATERAL VARLOCATION=([7,8]=cellcentered)
0.000000e+00
1.250000e+01
2.500000e+01
3.750000e+01
5.000000e+01
6.250000e+01
7.500000e+01
8.750000e+01
1.000000e+02
1.125000e+02
1.250000e+02
1.375000e+02
1.500000e+02
1.625000e+02
1.750000e+02
1.875000e+02
2.000000e+02
0.000000e+00
1.250000e+01
2.500000e+01
3.750000e+01
5.000000e+01
6.250000e+01
7.500000e+01
8.750000e+01
1.000000e+02
1.125000e+02
1.250000e+02
1.375000e+02
1.500000e+02
1.625000e+02
1.750000e+02
1.875000e+02
2.000000e+02
0.000000e+00
1.250000e+01
2.500000e+01
3.750000e+01
5.000000e+01
6.250000e+01
7.500000e+01
8.750000e+01
1.000000e+02
1.125000e+02
1.250000e+02
1.375000e+02
1.500000e+02
1.625000e+02
1.750000e+02
1.875000e+02
2.000000e+02
0.000000e+00
1.250000e+01
2.500000e+01
3.750000e+01
5.000000e+01
6.250000e+01
7.500000e+01
8.750000e+01
1.000000e+02
1.125000e+02
1.250000e+02
1.375000e+02
1.500000e+02
1.625000e+02
1.750000e+02
1.875000e+02
2.000000e+02
0.000000e+00
1.250000e+01
2.500000e+01
3.750000e+01
5.000000e+01
6.250000e+01
7.500000e+01
8.750000e+01
1.000000e+02
1.125000e+02
1.250000e+02
1.375000e+02
1.500000e+02
1.625000e+02
1.750000e+02
1.875000e+02
2.000000e+02
0.000000e+00
1.250000e+01
2.500000e+01
3.750000e+01
5.000000e+01
6.250000e+01
7.500000e+01
8.750000e+01
1.000000e+02
1.125000e+02
1.250000e+02
1.375000e+02
1.500000e+02
1.625000e+02
1.750000e+02
1.875000e+02
2.000000e+02
0.000000e+00
1.250000e+01
2.500000e+01
3.750000e+01
5.000000e+01
6.250000e+01
7.500000e+01
8.750000e+01
1.000000e+02
1.125000e+02
1.250000e+02
1.375000e+02
1.500000e+02
1.625000e+02
1.750000e+02
1.875000e+02
2.000000e+02
0.000000e+00
1.250000e+01
2.500000e+01
3.750000e+01
5.000000e+01
6.250000e+01
7.500000e+01
8.750000e+01
1.000000e+02
1.125000e+02
1.250000e+02
1.375000e+02
1.500000e+02
1.625000e+02
1.750000e+02
1.875000e+02
2.000000e+02
0.000000e+00
1.250000e+01
2.500000e+01
3.750000e+01
5.000000e+01
6.250000e+01
7.500000e+01
8.750000e+01
1.000000e+02
1.125000e+02
1.250000e+02
1.375000e+02
1.500000e+02
1.625000e+02
1.750000e+02
1.875000e+02
2.000000e+02
0.000000e+00
0.000000e+00
0.000000e+00
0.000000e+00
0.000000e+00
0.000000e+00
0.000000e+00
0.000000e+00
0.000000e+00
0.000000e+00
0.000000e+00
0.000000e+00
0.000000e+00
0.000000e+00
0.000000e+00
0.000000e+00
0.000000e+00
1.250000e+01
1.250000e+01
1.250000e+01
1.250000e+01
1.250000e+01
1.250000e+01
1.250000e+01
1.250000e+01
1.250000e+01
1.250000e+01
1.250000e+01
1.250000e+01
1.250000e+01
1.250000e+01
1.250000e+01
1.250000e+01
1.250000e+01
2.500000e+01
2.500000e+01
2.500000e+01
2.500000e+01
2.500000e+01
2.500000e+01
2.500000e+01
2.500000e+01
2.500000e+01
2.500000e+01
2.500000e+01
2.500000e+01
2.500000e+01
2.500000e+01
2.500000e+01
2.500000e+01
2.500000e+01
3.750000e+01
3.750000e+01
3.750000e+01
3.750000e+01
3.750000e+01
3.750000e+01
3.750000e+01
3.750000e+01
3.750000e+01
3.750000e+01
3.750000e+01
3.750000e+01
3.750000e+01
3.750000e+01
3.750000e+01
3.750000e+01
3.750000e+01
5.000000e+01
5.000000e+01
5.000000e+01
5.000000e+01
5.000000e+01
5.000000e+01
5.000000e+01
5.000000e+01
5.000000e+01
5.000000e+01
5.000000e+01
5.000000e+01
5.000000e+01
5.000000e+01
5.000000e+01
5.000000e+01
5.000000e+01
6.250000e+01
6.250000e+01
6.250000e+01
6.250000e+01
6.250000e+01
6.250000e+01
6.250000e+01
6.250000e+01
6.250000e+01
6.250000e+01
6.250000e+01
6.250000e+01
6.250000e+01
6.250000e+01
6.250000e+01
6.250000e+01
6.250000e+01
7.500000e+01
7.500000e+01
7.500000e+01
7.500000e+01
7.500000e+01
7.500000e+01
7.500000e+01
7.500000e+01
7.500000e+01
7.500000e+01
7.500000e+01
7.500000e+01
7.500000e+01
7.500000e+01
7.500000e+01
7.500000e+01
7.500000e+01
8.750000e+01
8.750000e+01
8.750000e+01
8.750000e+01
8.750000e+01
8.750000e+01
8.750000e+01
8.750000e+01
8.750000e+01
8.750000e+01
8.750000e+01
8.750000e+01
8.750000e+01
8.750000e+01
8.750000e+01
8.750000e+01
8.750000e+01
1.000000e+02
1.000000e+02
1.000000e+02
1.000000e+02
1.000000e+02
1.000000e+02
1.000000e+02
1.000000e+02
1.000000e+02
1.000000e+02
1.000000e+02
1.000000e+02
1.000000e+02
1.000000e+02
1.000000e+02
1.000000e+02
1.000000e+02
0.000000e+00
-7.288958e-02
-1.342128e-01
-1.906381e-01
-2.431860e-01
-2.917455e-01
-3.362124e-01
-3.765522e-01
-4.128237e-01
-4.451938e-01
-4.739834e-01
-4.997553e-01
-5.234774e-01
-5.468219e-01
-5.726729e-01
-6.044212e-01
-6.282448e-01
0.000000e+00
-4.352833e-02
-9.042163e-02
-1.337246e-01
-1.736201e-01
-2.102596e-01
-2.437192e-01
-2.740438e-01
-3.012879e-01
-3.255354e-01
-3.469095e-01
-3.655641e-01
-3.816184e-01
-3.949070e-01
-4.042802e-01
-4.063346e-01
-4.137003e-01
0.000000e+00
-2.722135e-02
-5.597391e-02
-8.465888e-02
-1.114354e-01
-1.360201e-01
-1.583930e-01
-1.785792e-01
-1.965839e-01
-2.123770e-01
-2.258735e-01
-2.368848e-01
-2.450184e-01
-2.495588e-01
-2.496848e-01
-2.478710e-01
-2.553835e-01
0.000000e+00
-1.313870e-02
-2.704777e-02
-4.104471e-02
-5.442834e-02
-6.675551e-02
-7.792890e-02
-8.791595e-02
-9.665949e-02
-1.040458e-01
-1.098860e-01
-1.139044e-01
-1.157723e-01
-1.153359e-01
-1.135431e-01
-1.140333e-01
-1.196271e-01
0.000000e+00
-1.210364e-05
-2.751535e-05
-4.287647e-05
-5.102911e-05
-3.601139e-05
3.385896e-05
2.154320e-04
6.019777e-04
1.332427e-03
2.588036e-03
4.550890e-03
7.270192e-03
1.034314e-02
1.246584e-02
1.188365e-02
8.180087e-03
0.000000e+00
1.312007e-02
2.700454e-02
4.097556e-02
5.434232e-02
6.668555e-02
7.795604e-02
8.820891e-02
9.753306e-02
1.060366e-01
1.138308e-01
1.209731e-01
1.273396e-01
1.324448e-01
1.354479e-01
1.356861e-01
1.338063e-01
0.000000e+00
2.721829e-02
5.596459e-02
8.464034e-02
1.114065e-01
1.359841e-01
1.583631e-01
1.785889e-01
1.967036e-01
2.127392e-01
2.267097e-01
2.385811e-01
2.482167e-01
2.553406e-01
2.596166e-01
2.610050e-01
2.605666e-01
0.000000e+00
4.354619e-02
9.046045e-02
1.337865e-01
1.737031e-01
2.103485e-01
2.437691e-01
2.739526e-01
3.008530e-01
3.243925e-01
3.444596e-01
3.609154e-01
3.736283e-01
3.825562e-01
3.878819e-01
3.901530e-01
3.905702e-01
0.000000e+00
7.291944e-02
1.342916e-01
1.907857e-01
2.434217e-01
2.920770e-01
3.366079e-01
3.768848e-01
4.127730e-01
4.440861e-01
4.705525e-01
4.918193e-01
5.075373e-01
5.175827e-01
5.224408e-01
5.236400e-01
5.236168e-01
0.000000e+00
-4.412208e-02
-8.661683e-02
-1.416801e-01
-2.092590e-01
-2.892269e-01
-3.807081e-01
-4.826789e-01
-5.940550e-01
-7.137664e-01
-8.408248e-01
-9.744435e-01
-1.114301e+00
-1.261142e+00
-1.418779e+00
-1.599144e+00
-1.858296e+00
0.000000e+00
-2.716237e-02
-7.149137e-02
-1.272375e-01
-1.959207e-01
-2.769799e-01
-3.695695e-01
-4.726404e-01
-5.850959e-01
-7.058468e-01
-8.338773e-01
-9.683648e-01
-1.108937e+00
-1.256322e+00
-1.413897e+00
-1.593167e+00
-1.812792e+00
0.000000e+00
-2.049644e-02
-6.100565e-02
-1.169575e-01
-1.862901e-01
-2.681837e-01
-3.616242e-01
-4.655528e-01
-5.788799e-01
-7.005320e-01
-8.295129e-01
-9.650283e-01
-1.106741e+00
-1.255259e+00
-1.412969e+00
-1.582835e+00
-1.747228e+00
0.000000e+00
-1.766240e-02
-5.579221e-02
-1.109234e-01
-1.805067e-01
-2.629043e-01
-3.569274e-01
-4.614767e-01
-5.754834e-01
-6.979029e-01
-8.277605e-01
-9.642464e-01
-1.106864e+00
-1.255546e+00
-1.410101e+00
-1.566183e+00
-1.709971e+00
0.000000e+00
-1.684597e-02
-5.421438e-02
-1.089985e-01
-1.786007e-01
-2.612034e-01
-3.554968e-01
-4.603827e-01
-5.748126e-01
-6.977588e-01
-8.282251e-01
-9.652735e-01
-1.108018e+00
-1.255406e+00
-1.405232e+00
-1.552371e+00
-1.687922e+00
0.000000e+00
-1.765191e-02
-5.578475e-02
-1.109367e-01
-1.805719e-01
-2.630761e-01
-3.572949e-01
-4.621728e-01
-5.766836e-01
-6.997944e-01
-8.304448e-01
-9.674996e-01
-1.109633e+00
-1.255037e+00
-1.400917e+00
-1.543010e+00
-1.675668e+00
0.000000e+00
-2.047933e-02
-6.099328e-02
-1.169796e-01
-1.864000e-01
-2.684744e-01
-3.622473e-01
-4.667347e-01
-5.809205e-01
-7.037542e-01
-8.341038e-01
-9.706597e-01
-1.111777e+00
-1.255275e+00
-1.398327e+00
-1.537694e+00
-1.670263e+00
0.000000e+00
-2.714634e-02
-7.148060e-02
-1.272669e-01
-1.960527e-01
-2.773218e-01
-3.702948e-01
-4.740065e-01
-5.874399e-01
-7.095254e-01
-8.390843e-01
-9.747138e-01
-1.114629e+00
-1.256529e+00
-1.397679e+00
-1.535495e+00
-1.668995e+00
0.000000e+00
-4.411546e-02
-8.661776e-02
-1.417257e-01
-2.094119e-01
-2.895922e-01
-3.814504e-01
-4.840331e-01
-5.963127e-01
-7.172007e-01
-8.454901e-01
-9.797471e-01
-1.118174e+00
-1.258522e+00
-1.398230e+00
-1.535093e+00
-1.669015e+00


0.000000e+00
7.864058e-08
1.575894e-07
2.308977e-07
2.996232e-07
3.633784e-07
4.218998e-07
4.751765e-07
5.233212e-07
5.665410e-07
6.051269e-07
6.394019e-07
6.695565e-07
6.953576e-07
7.164772e-07
7.345307e-07
7.506006e-07
0.000000e+00
4.425941e-08
1.076855e-07
1.646964e-07
2.169461e-07
2.650886e-07
3.090851e-07
3.489412e-07
3.846935e-07
4.163718e-07
4.439703e-07
4.674107e-07
4.865765e-07
5.018639e-07
5.158280e-07
5.324113e-07
5.494873e-07
0.000000e+00
2.790865e-08
6.808040e-08
1.057552e-07
1.408595e-07
1.731304e-07
2.024454e-07
2.287737e-07
2.520788e-07
2.722855e-07
2.892807e-07
3.029840e-07
3.136120e-07
3.222575e-07
3.313787e-07
3.437100e-07
3.579630e-07
0.000000e+00
1.364001e-08
3.264299e-08
5.109556e-08
6.865026e-08
8.476896e-08
9.927995e-08
1.121195e-07
1.232142e-07
1.324694e-07
1.398062e-07
1.452691e-07
1.492285e-07
1.526193e-07
1.569895e-07
1.641772e-07
1.740708e-07
0.000000e+00
1.411430e-11
1.738495e-11
-7.848384e-12
-8.572311e-11
-2.547439e-10
-5.713613e-10
-1.110692e-09
-1.959880e-09
-3.196406e-09
-4.840538e-09
-6.775886e-09
-8.656431e-09
-9.848316e-09
-9.376119e-09
-5.992895e-09
5.047754e-10
0.000000e+00
-1.361361e-08
-3.260771e-08
-5.109753e-08
-6.877525e-08
-8.516719e-08
-1.001979e-07
-1.139339e-07
-1.264563e-07
-1.378162e-07
-1.479921e-07
-1.568465e-07
-1.640969e-07
-1.693212e-07
-1.719980e-07
-1.714867e-07
-1.679283e-07
0.000000e+00
-2.789201e-08
-6.805591e-08
-1.057409e-07
-1.408894e-07
-1.732688e-07
-2.028044e-07
-2.295332e-07
-2.535055e-07
-2.747387e-07
-2.931838e-07
-3.086971e-07
-3.210347e-07
-3.299094e-07
-3.351756e-07
-3.369293e-07
-3.358786e-07
0.000000e+00
-4.427620e-08
-1.077190e-07
-1.647268e-07
-2.169410e-07
-2.649921e-07
-3.088057e-07
-3.483375e-07
-3.835608e-07
-4.144352e-07
-4.408940e-07
-4.628362e-07
-4.801283e-07
-4.926578e-07
-5.005369e-07
-5.044106e-07
-5.053462e-07
0.000000e+00
-7.873332e-08
-1.577537e-07
-2.311008e-07
-2.997969e-07
-3.633799e-07
-4.214592e-07
-4.738271e-07
-5.203181e-07
-5.607813e-07
-5.950987e-07
-6.232200e-07
-6.451965e-07
-6.612119e-07
-6.716423e-07
-6.770334e-07
-6.787648e-07
0.000000e+00
7.119295e-08
1.388525e-07
2.147617e-07
3.052987e-07
4.113977e-07
5.323594e-07
6.670617e-07
8.142130e-07
9.725601e-07
1.141030e-06
1.318960e-06
1.506710e-06
1.706973e-06
1.924697e-06
2.155969e-06
2.385434e-06
0.000000e+00
4.305124e-08
1.088115e-07
1.853261e-07
2.776373e-07
3.858789e-07
5.091382e-07
6.461471e-07
7.955809e-07
9.561691e-07
1.126820e-06
1.306821e-06
1.496189e-06
1.696108e-06
1.908535e-06
2.133940e-06
2.360383e-06
0.000000e+00
2.740664e-08
8.473049e-08
1.611708e-07
2.548216e-07
3.649199e-07
4.901775e-07
6.292279e-07
7.807238e-07
9.433895e-07
1.116095e-06
1.297954e-06
1.488358e-06
1.686748e-06
1.892796e-06
2.109972e-06
2.329120e-06
0.000000e+00
2.010000e-08
7.206622e-08
1.470897e-07
2.413591e-07
3.526069e-07
4.791644e-07
6.195783e-07
7.724835e-07
9.365814e-07
1.110649e-06
1.293525e-06
1.483984e-06
1.680492e-06
1.881824e-06
2.090630e-06
2.298868e-06
0.000000e+00
1.800102e-08
6.822747e-08
1.425607e-07
2.369972e-07
3.487048e-07
4.758226e-07
6.168584e-07
7.704299e-07
9.351900e-07
1.109790e-06
1.292811e-06
1.482616e-06
1.677178e-06
1.874502e-06
2.075822e-06
2.273332e-06
0.000000e+00
2.011626e-08
7.212708e-08
1.472401e-07
2.416581e-07
3.531346e-07
4.800208e-07
6.208691e-07
7.742823e-07
9.388526e-07
1.113110e-06
1.295444e-06
1.483985e-06
1.676423e-06
1.870266e-06
2.065337e-06
2.255022e-06
0.000000e+00
2.743286e-08
8.483653e-08
1.614344e-07
2.553460e-07
3.658465e-07
4.916832e-07
6.314993e-07
7.838922e-07
9.473939e-07
1.120432e-06
1.301268e-06
1.487898e-06
1.677915e-06
1.868659e-06
2.059055e-06
2.243870e-06
0.000000e+00
4.308454e-08
1.089461e-07
1.856509e-07
2.782772e-07
3.870041e-07
5.109589e-07
6.488807e-07
7.993689e-07
9.609072e-07
1.131843e-06
1.310343e-06
1.494333e-06
1.681448e-06
1.869236e-06
2.056231e-06
2.238547e-06
0.000000e+00
7.124813e-08
1.390099e-07
2.151121e-07
3.059652e-07
4.125425e-07
5.341746e-07
6.697290e-07
8.178095e-07
9.768753e-07
1.145232e-06
1.320999e-06
1.502084e-06
1.686215e-06
1.871234e-06
2.055772e-06
2.236995e-06


2.129765e-01
2.129764e-01
2.129767e-01
2.129772e-01
2.129777e-01
2.129781e-01
2.129785e-01
2.129789e-01
2.129792e-01
2.129795e-01
2.129797e-01
2.129799e-01
2.129800e-01
2.129799e-01
2.129796e-01
2.129794e-01
2.129773e-01
2.129772e-01
2.129774e-01
2.129778e-01
2.129782e-01
2.129785e-01
2.129788e-01
2.129791e-01
2.129794e-01
2.129796e-01
2.129798e-01
2.129799e-01
2.129800e-01
2.129799e-01
2.129796e-01
2.129794e-01
2.129787e-01
2.129786e-01
2.129786e-01
2.129788e-01
2.129790e-01
2.129792e-01
2.129794e-01
2.129796e-01
2.129797e-01
2.129798e-01
2.129799e-01
2.129800e-01
2.129800e-01
2.129799e-01
2.129797e-01
2.129795e-01
2.129796e-01
2.129795e-01
2.129795e-01
2.129795e-01
2.129796e-01
2.129797e-01
2.129798e-01
2.129798e-01
2.129799e-01
2.129800e-01
2.129800e-01
2.129800e-01
2.129800e-01
2.129799e-01
2.129798e-01
2.129797e-01
2.129796e-01
2.129795e-01
2.129795e-01
2.129795e-01
2.129796e-01
2.129797e-01
2.129797e-01
2.129798e-01
2.129799e-01
2.129799e-01
2.129800e-01
2.129800e-01
2.129800e-01
2.129800e-01
2.129800e-01
2.129800e-01
2.129787e-01
2.129786e-01
2.129786e-01
2.129788e-01
2.129790e-01
2.129792e-01
2.129794e-01
2.129795e-01
2.129796e-01
2.129798e-01
2.129799e-01
2.129799e-01
2.129800e-01
2.129801e-01
2.129802e-01
2.129802e-01
2.129773e-01
2.129772e-01
2.129774e-01
2.129778e-01
2.129782e-01
2.129785e-01
2.129788e-01
2.129791e-01
2.129794e-01
2.129796e-01
2.129798e-01
2.129799e-01
2.129801e-01
2.129802e-01
2.129803e-01
2.129804e-01
2.129765e-01
2.129764e-01
2.129766e-01
2.129772e-01
2.129777e-01
2.129781e-01
2.129785e-01
2.129789e-01
2.129792e-01
2.129795e-01
2.129798e-01
2.129800e-01
2.129801e-01
2.129803e-01
2.129804e-01
2.129804e-01


9.880469e-01
9.897419e-01
9.913100e-01
9.925170e-01
9.936374e-01
9.946705e-01
9.956118e-01
9.964501e-01
9.971767e-01
9.977844e-01
9.982676e-01
9.986216e-01
9.988417e-01
9.989202e-01
9.989768e-01
9.954835e-01
9.954779e-01
9.947012e-01
9.952009e-01
9.958531e-01
9.964613e-01
9.970139e-01
9.975143e-01
9.979674e-01
9.983778e-01
9.987494e-01
9.990867e-01
9.993920e-01
9.996585e-01
9.998329e-01
9.993917e-01
9.934119e-01
9.984288e-01
9.979826e-01
9.978622e-01
9.980316e-01
9.982545e-01
9.984703e-01
9.986708e-01
9.988601e-01
9.990436e-01
9.992225e-01
9.993895e-01
9.995188e-01
9.995458e-01
9.993129e-01
9.984680e-01
9.969483e-01
9.996802e-01
9.993548e-01
9.991538e-01
9.991028e-01
9.991232e-01
9.991574e-01
9.991915e-01
9.992248e-01
9.992575e-01
9.992849e-01
9.992926e-01
9.992518e-01
9.991226e-01
9.988908e-01
9.986941e-01
9.986443e-01
9.996814e-01
9.993565e-01
9.991554e-01
9.991025e-01
9.991181e-01
9.991428e-01
9.991599e-01
9.991656e-01
9.991578e-01
9.991326e-01
9.990857e-01
9.990181e-01
9.989537e-01
9.989665e-01
9.991485e-01
9.994635e-01
9.984310e-01
9.979860e-01
9.978655e-01
9.980316e-01
9.982458e-01
9.984436e-01
9.986110e-01
9.987455e-01
9.988463e-01
9.989141e-01
9.989570e-01
9.989989e-01
9.990870e-01
9.992717e-01
9.995492e-01
9.998360e-01
9.954775e-01
9.947008e-01
9.952002e-01
9.958513e-01
9.964565e-01
9.970031e-01
9.974917e-01
9.979244e-01
9.983015e-01
9.986237e-01
9.988966e-01
9.991348e-01
9.993643e-01
9.996049e-01
9.998298e-01
9.999715e-01
9.880387e-01
9.897292e-01
9.912943e-01
9.924995e-01
9.936216e-01
9.946648e-01
9.956312e-01
9.965186e-01
9.973272e-01
9.980553e-01
9.986944e-01
9.992246e-01
9.996190e-01
9.998623e-01
9.999730e-01
9.999994e-01
1 2 19 18
2 3 20 19
3 4 21 20
4 5 22 21
5 6 23 22
6 7 24 23
7 8 25 24
8 9 26 25
9 10 27 26
10 11 28 27
11 12 29 28
12 13 30 29
13 14 31 30
14 15 32 31
15 16 33 32
16 17 34 33
18 19 36 35
19 20 37 36
20 21 38 37
21 22 39 38
22 23 40 39
23 24 41 40
24 25 42 41
25 26 43 42
26 27 44 43
27 28 45 44
28 29 46 45
29 30 47 46
30 31 48 47
31 32 49 48
32 33 50 49
33 34 51 50
35 36 53 52
36 37 54 53
37 38 55 54
38 39 56 55
39 40 57 56
40 41 58 57
41 42 59 58
42 43 60 59
43 44 61 60
44 45 62 61
45 46 63 62
46 47 64 63
47 48 65 64
48 49 66 65
49 50 67 66
50 51 68 67
52 53 70 69
53 54 71 70
54 55 72 71
55 56 73 72
56 57 74 73
57 58 75 74
58 59 76 75
59 60 77 76
60 61 78 77
61 62 79 78
62 63 80 79
63 64 81 80
64 65 82 81
65 66 83 82
66 67 84 83
67 68 85 84
69 70 87 86
70 71 88 87
71 72 89 88
72 73 90 89
73 74 91 90
74 75 92 91
75 76 93 92
76 77 94 93
77 78 95 94
78 79 96 95
79 80 97 96
80 81 98 97
81 82 99 98
82 83 100 99
83 84 101 100
84 85 102 101
86 87 104 103
87 88 105 104
88 89 106 105
89 90 107 106
90 91 108 107
91 92 109 108
92 93 110 109
93 94 111 110
94 95 112 111
95 96 113 112
96 97 114 113
97 98 115 114
98 99 116 115
99 100 117 116
100 101 118 117
101 102 119 118
103 104 121 120
104 105 122 121
105 106 123 122
106 107 124 123
107 108 125 124
108 109 126 125
109 110 127 126
110 111 128 127
111 112 129 128
112 113 130 129
113 114 131 130
114 115 132 131
115 116 133 132
116 117 134 133
117 118 135 134
118 119 136 135
120 121 138 137
121 122 139 138
122 123 140 139
123 124 141 140
124 125 142 141
125 126 143 142
126 127 144 143
127 128 145 144
128 129 146 145
129 130 147 146
130 131 148 147
131 132 149 148
132 133 150 149
133 134 151 150
134 135 152 151
135 136 153 152
