TITLE = "Solution"
VARIABLES = x, y, u, v, psiu, psiv, t, stress
ZONE T="structure" N=153 E=128 F=FEBLOCK ET=QUADRILATERAL VARLOCATION=([7,8]=cellcentered)
0.000000e+00
1.250000e+01
2.500000e+01
3.750000e+01
5.000000e+01
6.250000e+01
7.500000e+01
8.750000e+01
1.000000e+02
1.125000e+02
1.250000e+02
1.375000e+02
1.500000e+02
1.625000e+02
1.750000e+02
1.875000e+02
2.000000e+02
0.000000e+00
1.250000e+01
2.500000e+01
3.750000e+01
5.000000e+01
6.250000e+01
7.500000e+01
8.750000e+01
1.000000e+02
1.125000e+02
1.250000e+02
1.375000e+02
1.500000e+02
1.625000e+02
1.750000e+02
1.875000e+02
2.000000e+02
0.000000e+00
1.250000e+01
2.500000e+01
3.750000e+01
5.000000e+01
6.250000e+01
7.500000e+01
8.750000e+01
1.000000e+02
1.125000e+02
1.250000e+02
1.375000e+02
1.500000e+02
1.625000e+02
1.750000e+02
1.875000e+02
2.000000e+02
0.000000e+00
1.250000e+01
2.500000e+01
3.750000e+01
5.000000e+01
6.250000e+01
7.500000e+01
8.750000e+01
1.000000e+02
1.125000e+02
1.250000e+02
1.375000e+02
1.500000e+02
1.625000e+02
1.750000e+02
1.875000e+02
2.000000e+02
0.000000e+00
1.250000e+01
2.500000e+01
3.750000e+01
5.000000e+01
6.250000e+01
7.500000e+01
8.750000e+01
1.000000e+02
1.125000e+02
1.250000e+02
1.375000e+02
1.500000e+02
1.625000e+02
1.750000e+02
1.875000e+02
2.000000e+02
0.000000e+00
1.250000e+01
2.500000e+01
3.750000e+01
5.000000e+01
6.250000e+01
7.500000e+01
8.750000e+01
1.000000e+02
1.125000e+02
1.250000e+02
1.375000e+02
1.500000e+02
1.625000e+02
1.750000e+02
1.875000e+02
2.000000e+02
0.000000e+00
1.250000e+01
2.500000e+01
3.750000e+01
5.000000e+01
6.250000e+01
7.500000e+01
8.750000e+01
1.000000e+02
1.125000e+02
1.250000e+02
1.375000e+02
1.500000e+02
1.625000e+02
1.750000e+02
1.875000e+02
2.000000e+02
0.000000e+00
1.250000e+01
2.500000e+01
3.750000e+01
5.000000e+01
6.250000e+01
7.500000e+01
8.750000e+01
1.000000e+02
1.125000e+02
1.250000e+02
1.375000e+02
1.500000e+02
1.625000e+02
1.750000e+02
1.875000e+02
2.000000e+02
0.000000e+00
1.250000e+01
2.500000e+01
3.750000e+01
5.000000e+01
6.250000e+01
7.500000e+01
8.750000e+01
1.000000e+02
1.125000e+02
1.250000e+02
1.375000e+02
1.500000e+02
1.625000e+02
1.750000e+02
1.875000e+02
2.000000e+02
0.000000e+00
0.000000e+00
0.000000e+00
0.000000e+00
0.000000e+00
0.000000e+00
0.000000e+00
0.000000e+00
0.000000e+00
0.000000e+00
0.000000e+00
0.000000e+00
0.000000e+00
0.000000e+00
0.000000e+00
0.000000e+00
0.000000e+00
1.250000e+01
1.250000e+01
1.250000e+01
1.250000e+01
1.250000e+01
1.250000e+01
1.250000e+01
1.250000e+01
1.250000e+01
1.250000e+01
1.250000e+01
1.250000e+01
1.250000e+01
1.250000e+01
1.250000e+01
1.250000e+01
1.250000e+01
2.500000e+01
2.500000e+01
2.500000e+01
2.500000e+01
2.500000e+01
2.500000e+01
2.500000e+01
2.500000e+01
2.500000e+01
2.500000e+01
2.500000e+01
2.500000e+01
2.500000e+01
2.500000e+01
2.500000e+01
2.500000e+01
2.500000e+01
3.750000e+01
3.750000e+01
3.750000e+01
3.750000e+01
3.750000e+01
3.750000e+01
3.750000e+01
3.750000e+01
3.750000e+01
3.750000e+01
3.750000e+01
3.750000e+01
3.750000e+01
3.750000e+01
3.750000e+01
3.750000e+01
3.750000e+01
5.000000e+01
5.000000e+01
5.000000e+01
5.000000e+01
5.000000e+01
5.000000e+01
5.000000e+01
5.000000e+01
5.000000e+01
5.000000e+01
5.000000e+01
5.000000e+01
5.000000e+01
5.000000e+01
5.000000e+01
5.000000e+01
5.000000e+01
6.250000e+01
6.250000e+01
6.250000e+01
6.250000e+01
6.250000e+01
6.250000e+01
6.250000e+01
6.250000e+01
6.250000e+01
6.250000e+01
6.250000e+01
6.250000e+01
6.250000e+01
6.250000e+01
6.250000e+01
6.250000e+01
6.250000e+01
7.500000e+01
7.500000e+01
7.500000e+01
7.500000e+01
7.500000e+01
7.500000e+01
7.500000e+01
7.500000e+01
7.500000e+01
7.500000e+01
7.500000e+01
7.500000e+01
7.500000e+01
7.500000e+01
7.500000e+01
7.500000e+01
7.500000e+01
8.750000e+01
8.750000e+01
8.750000e+01
8.750000e+01
8.750000e+01
8.750000e+01
8.750000e+01
8.750000e+01
8.750000e+01
8.750000e+01
8.750000e+01
8.750000e+01
8.750000e+01
8.750000e+01
8.750000e+01
8.750000e+01
8.750000e+01
1.000000e+02
1.000000e+02
1.000000e+02
1.000000e+02
1.000000e+02
1.000000e+02
1.000000e+02
1.000000e+02
1.000000e+02
1.000000e+02
1.000000e+02
1.000000e+02
1.000000e+02
1.000000e+02
1.000000e+02
1.000000e+02
1.000000e+02
0.000000e+00
-7.960497e-01
-1.455357e+00
-2.088889e+00
-2.728584e+00
-3.359175e+00
-3.974636e+00
-4.570760e+00
-5.139237e+00
-5.670938e+00
-6.160211e+00
-6.608005e+00
-7.024697e+00
-7.433605e+00
-7.875444e+00
-8.398263e+00
-8.781624e+00
0.000000e+00
-4.533262e-01
-9.445372e-01
-1.422009e+00
-1.902475e+00
-2.375416e+00
-2.836388e+00
-3.282696e+00
-3.708266e+00
-4.105550e+00
-4.468206e+00
-4.792274e+00
-5.075243e+00
-5.310634e+00
-5.474559e+00
-5.510613e+00
-5.631605e+00
0.000000e+00
-2.679539e-01
-5.595568e-01
-8.742676e-01
-1.195198e+00
-1.511929e+00
-1.820534e+00
-2.117775e+00
-2.398560e+00
-2.656510e+00
-2.884694e+00
-3.075489e+00
-3.219011e+00
-3.300654e+00
-3.305086e+00
-3.275828e+00
-3.400528e+00
0.000000e+00
-1.241709e-01
-2.623255e-01
-4.154925e-01
-5.755754e-01
-7.345545e-01
-8.891058e-01
-1.036227e+00
-1.172122e+00
-1.291953e+00
-1.389774e+00
-1.458572e+00
-1.490965e+00
-1.483191e+00
-1.451529e+00
-1.459129e+00
-1.554021e+00
0.000000e+00
-3.804923e-04
-8.167755e-04
-1.241483e-03
-1.524206e-03
-1.389067e-03
-2.900212e-04
2.768094e-03
9.446893e-03
2.224975e-02
4.446286e-02
7.941588e-02
1.281048e-01
1.834743e-01
2.223192e-01
2.134440e-01
1.493255e-01
0.000000e+00
1.235356e-01
2.609430e-01
4.133444e-01
5.728330e-01
7.318223e-01
8.878387e-01
1.039426e+00
1.185385e+00
1.324845e+00
1.457244e+00
1.581570e+00
1.694177e+00
1.785466e+00
1.839764e+00
1.844819e+00
1.811902e+00
0.000000e+00
2.676546e-01
5.588598e-01
8.730774e-01
1.193464e+00
1.509749e+00
1.818271e+00
2.116209e+00
2.399104e+00
2.661576e+00
2.898311e+00
3.104277e+00
3.273976e+00
3.400581e+00
3.476998e+00
3.502000e+00
3.494353e+00
0.000000e+00
4.534407e-01
9.447154e-01
1.422192e+00
1.902561e+00
2.375191e+00
2.835350e+00
3.279502e+00
3.699743e+00
4.085375e+00
4.425533e+00
4.710801e+00
4.934195e+00
5.092271e+00
5.186921e+00
5.227344e+00
5.234792e+00
0.000000e+00
7.963694e-01
1.456219e+00
2.090485e+00
2.731136e+00
3.362854e+00
3.979251e+00
4.574729e+00
5.137521e+00
5.651848e+00
6.101077e+00
6.469762e+00
6.745615e+00
6.922991e+00
7.008902e+00
7.029997e+00
7.029520e+00
0.000000e+00
-4.871402e-01
-9.866445e-01
-1.647003e+00
-2.465060e+00
-3.442621e+00
-4.579161e+00
-5.870259e+00
-7.307510e+00
-8.880044e+00
-1.057596e+01
-1.238478e+01
-1.430224e+01
-1.634011e+01
-1.855939e+01
-2.115288e+01
-2.502422e+01
0.000000e+00
-3.037659e-01
-8.234468e-01
-1.479916e+00
-2.298461e+00
-3.279267e+00
-4.420461e+00
-5.717907e+00
-7.164041e+00
-8.747873e+00
-1.045656e+01
-1.227832e+01
-1.420754e+01
-1.625599e+01
-1.847777e+01
-2.105654e+01
-2.428513e+01
0.000000e+00
-2.386181e-01
-7.124621e-01
-1.363852e+00
-2.180836e+00
-3.163633e+00
-4.308754e+00
-5.611928e+00
-7.066008e+00
-8.660363e+00
-1.038226e+01
-1.221998e+01
-1.416823e+01
-1.623692e+01
-1.846308e+01
-2.088832e+01
-2.321499e+01
0.000000e+00
-2.198462e-01
-6.619351e-01
-1.298057e+00
-2.112131e+00
-3.095725e+00
-4.244168e+00
-5.552631e+00
-7.014145e+00
-8.618569e+00
-1.035349e+01
-1.220676e+01
-1.417012e+01
-1.624177e+01
-1.841522e+01
-2.061108e+01
-2.259277e+01
0.000000e+00
-2.167441e-01
-6.482299e-01
-1.278016e+00
-2.090121e+00
-3.074541e+00
-4.225363e+00
-5.537818e+00
-7.005203e+00
-8.617670e+00
-1.036244e+01
-1.222508e+01
-1.419042e+01
-1.623939e+01
-1.833136e+01
-2.037458e+01
-2.221325e+01
0.000000e+00
-2.196475e-01
-6.618344e-01
-1.298388e+00
-2.113412e+00
-3.098842e+00
-4.250597e+00
-5.564653e+00
-7.034866e+00
-8.651370e+00
-1.040027e+01
-1.226367e+01
-1.421864e+01
-1.623281e+01
-1.825567e+01
-2.021085e+01
-2.199823e+01
0.000000e+00
-2.382880e-01
-7.122790e-01
-1.364356e+00
-2.182901e+00
-3.168756e+00
-4.319434e+00
-5.632055e+00
-7.100904e+00
-8.715878e+00
-1.046188e+01
-1.231806e+01
-1.425598e+01
-1.623679e+01
-1.820973e+01
-2.011679e+01
-2.190272e+01
0.000000e+00
-3.034337e-01
-8.232464e-01
-1.480475e+00
-2.300799e+00
-3.285119e+00
-4.432696e+00
-5.740942e+00
-7.203850e+00
-8.810898e+00
-1.054640e+01
-1.238825e+01
-1.430593e+01
-1.625882e+01
-1.819810e+01
-2.007772e+01
-2.188038e+01
0.000000e+00
-4.869141e-01
-9.865530e-01
-1.647708e+00
-2.467606e+00
-3.448752e+00
-4.591655e+00
-5.893164e+00
-7.345937e+00
-8.938850e+00
-1.065617e+01
-1.247600e+01
-1.436834e+01
-1.629404e+01
-1.820781e+01
-2.007055e+01
-2.188080e+01


0.000000e+00
7.819813e-06
1.570398e-05
2.291727e-05
2.983307e-05
3.621086e-05
4.169652e-05
4.612883e-05
4.951007e-05
5.195201e-05
5.363518e-05
5.476436e-05
5.554003e-05
5.615131e-05
5.676555e-05
5.764173e-05
5.879954e-05
0.000000e+00
5.715530e-06
1.261202e-05
1.812401e-05
2.330923e-05
2.809327e-05
3.214770e-05
3.533909e-05
3.770111e-05
3.934256e-05
4.041336e-05
4.106535e-05
4.141238e-05
4.153066e-05
4.166082e-05
4.236849e-05
4.355832e-05
0.000000e+00
4.248871e-06
8.755201e-06
1.249759e-05
1.600016e-05
1.912606e-05
2.174293e-05
2.379029e-05
2.528792e-05
2.629925e-05
2.691700e-05
2.723930e-05
2.735393e-05
2.736828e-05
2.749060e-05
2.806097e-05
2.901280e-05
0.000000e+00
2.120796e-06
4.093108e-06
6.100971e-06
7.893969e-06
9.436007e-06
1.072286e-05
1.174358e-05
1.249340e-05
1.299178e-05
1.328008e-05
1.341473e-05
1.346742e-05
1.352839e-05
1.367579e-05
1.400551e-05
1.454670e-05
0.000000e+00
-4.249276e-09
-9.034921e-09
-1.429777e-08
-2.049344e-08
-2.880436e-08
-4.148417e-08
-6.139283e-08
-9.084734e-08
-1.298574e-07
-1.736035e-07
-2.087195e-07
-2.112692e-07
-1.593096e-07
-6.637457e-08
6.720916e-08
3.104015e-07
0.000000e+00
-2.128486e-06
-4.108944e-06
-6.126436e-06
-7.930594e-06
-9.486595e-06
-1.079272e-05
-1.184149e-05
-1.263146e-05
-1.318382e-05
-1.353732e-05
-1.373643e-05
-1.382284e-05
-1.383893e-05
-1.383447e-05
-1.381582e-05
-1.372550e-05
0.000000e+00
-4.253125e-06
-8.765625e-06
-1.251635e-05
-1.603039e-05
-1.916949e-05
-2.179753e-05
-2.384955e-05
-2.534450e-05
-2.635138e-05
-2.697435e-05
-2.732707e-05
-2.751065e-05
-2.760498e-05
-2.766268e-05
-2.769070e-05
-2.766801e-05
0.000000e+00
-5.716603e-06
-1.261693e-05
-1.813482e-05
-2.333079e-05
-2.812801e-05
-3.218858e-05
-3.536584e-05
-3.768661e-05
-3.926618e-05
-4.027191e-05
-4.087887e-05
-4.123296e-05
-4.143776e-05
-4.155588e-05
-4.161322e-05
-4.162197e-05
0.000000e+00
-7.823117e-06
-1.570790e-05
-2.292252e-05
-2.984267e-05
-3.622557e-05
-4.170707e-05
-4.611175e-05
-4.943321e-05
-5.178684e-05
-5.336377e-05
-5.437272e-05
-5.499362e-05
-5.535839e-05
-5.555131e-05
-5.562550e-05
-5.563816e-05
0.000000e+00
6.921967e-06
1.198203e-05
1.782607e-05
2.535588e-05
3.432121e-05
4.451884e-05
5.579526e-05
6.795657e-05
8.080111e-05
9.415641e-05
1.078910e-04
1.219384e-04
1.364138e-04
1.519764e-04
1.691194e-04
1.866848e-04
0.000000e+00
3.536280e-06
8.695517e-06
1.468276e-05
2.235815e-05
3.164448e-05
4.231508e-05
5.409765e-05
6.672863e-05
7.996602e-05
9.362030e-05
1.075646e-04
1.217448e-04
1.362207e-04
1.512672e-04
1.676190e-04
1.847208e-04
0.000000e+00
1.541951e-06
6.122641e-06
1.237787e-05
2.021077e-05
2.974748e-05
4.075055e-05
5.289134e-05
6.585755e-05
7.938277e-05
9.326424e-05
1.073746e-04
1.216550e-04
1.360654e-04
1.505658e-04
1.660415e-04
1.824361e-04
0.000000e+00
8.853959e-07
4.981252e-06
1.125063e-05
1.924081e-05
2.890734e-05
4.003656e-05
5.231761e-05
6.543046e-05
7.909485e-05
9.309515e-05
1.072905e-04
1.215944e-04
1.359117e-04
1.501672e-04
1.650103e-04
1.805571e-04
0.000000e+00
7.594942e-07
4.674535e-06
1.088419e-05
1.894932e-05
2.866159e-05
3.982505e-05
5.214549e-05
6.530497e-05
7.901658e-05
9.305610e-05
1.072697e-04
1.215536e-04
1.358185e-04
1.500280e-04
1.645292e-04
1.793324e-04
0.000000e+00
8.863954e-07
4.981314e-06
1.124864e-05
1.923697e-05
2.890488e-05
4.004141e-05
5.233616e-05
6.546672e-05
7.914795e-05
9.315549e-05
1.073326e-04
1.215748e-04
1.358106e-04
1.500266e-04
1.643436e-04
1.786795e-04
0.000000e+00
1.543385e-06
6.122924e-06
1.237540e-05
2.020589e-05
2.974590e-05
4.076268e-05
5.292861e-05
6.592766e-05
7.948547e-05
9.338591e-05
1.074764e-04
1.216550e-04
1.358567e-04
1.500557e-04
1.642640e-04
1.783899e-04
0.000000e+00
3.538843e-06
8.698560e-06
1.468475e-05
2.236001e-05
3.165131e-05
4.233585e-05
5.414289e-05
6.680713e-05
8.008064e-05
9.376140e-05
1.076968e-04
1.217758e-04
1.359213e-04
1.500849e-04
1.642302e-04
1.782966e-04
0.000000e+00
6.926926e-06
1.198880e-05
1.783463e-05
2.536770e-05
3.433843e-05
4.454400e-05
5.583226e-05
6.801207e-05
8.088173e-05
9.425929e-05
1.079872e-04
1.219348e-04
1.360027e-04
1.501197e-04
1.642278e-04
1.782828e-04


2.124078e+00
2.103093e+00
2.232253e+00
2.449390e+00
2.641186e+00
2.845491e+00
3.065734e+00
3.275193e+00
3.452151e+00
3.587397e+00
3.681199e+00
3.737902e+00
3.752526e+00
3.689071e+00
3.554721e+00
3.451518e+00
2.513667e+00
2.490296e+00
2.580004e+00
2.742888e+00
2.889221e+00
3.047649e+00
3.220471e+00
3.385767e+00
3.526117e+00
3.633726e+00
3.708178e+00
3.752183e+00
3.759030e+00
3.691811e+00
3.560454e+00
3.460980e+00
3.122487e+00
3.100960e+00
3.140905e+00
3.220105e+00
3.293236e+00
3.378063e+00
3.472435e+00
3.564015e+00
3.642978e+00
3.704133e+00
3.746300e+00
3.770221e+00
3.769514e+00
3.714489e+00
3.611409e+00
3.536046e+00
3.527514e+00
3.511841e+00
3.518442e+00
3.539962e+00
3.566910e+00
3.601603e+00
3.641355e+00
3.681247e+00
3.716915e+00
3.745237e+00
3.764953e+00
3.776213e+00
3.775569e+00
3.746730e+00
3.691817e+00
3.651785e+00
3.527456e+00
3.511723e+00
3.518183e+00
3.539448e+00
3.566016e+00
3.600192e+00
3.639250e+00
3.678216e+00
3.712773e+00
3.740083e+00
3.759462e+00
3.772125e+00
3.778112e+00
3.771922e+00
3.754001e+00
3.740352e+00
3.122135e+00
3.100409e+00
3.139936e+00
3.218504e+00
3.290901e+00
3.375039e+00
3.468683e+00
3.559157e+00
3.636394e+00
3.695589e+00
3.736853e+00
3.763790e+00
3.780494e+00
3.788346e+00
3.789216e+00
3.788212e+00
2.512779e+00
2.489069e+00
2.578169e+00
2.740359e+00
2.886353e+00
3.045307e+00
3.219462e+00
3.386078e+00
3.526757e+00
3.633500e+00
3.707096e+00
3.753963e+00
3.782152e+00
3.798033e+00
3.806001e+00
3.809134e+00
2.122780e+00
2.101384e+00
2.229885e+00
2.446440e+00
2.638426e+00
2.844482e+00
3.068009e+00
3.281151e+00
3.460661e+00
3.596574e+00
3.689997e+00
3.748932e+00
3.783574e+00
3.802732e+00
3.812442e+00
3.816482e+00


-3.762787e-01
-1.643157e-01
-8.144499e-02
-1.000007e-01
-6.888190e-02
-1.838063e-02
4.388742e-02
1.296943e-01
2.394004e-01
3.606799e-01
4.768412e-01
5.732780e-01
6.417035e-01
6.811908e-01
7.203989e-01
-1.788767e-01
5.202964e-01
4.116911e-01
4.020515e-01
3.865949e-01
3.982221e-01
4.210854e-01
4.517573e-01
4.974336e-01
5.606571e-01
6.379487e-01
7.231158e-01
8.099033e-01
8.914407e-01
9.482870e-01
8.332475e-01
-7.481666e-01
8.344962e-01
7.587767e-01
7.039218e-01
6.820967e-01
6.786121e-01
6.820525e-01
6.909717e-01
7.080818e-01
7.353944e-01
7.722580e-01
8.141306e-01
8.502791e-01
8.585818e-01
7.924916e-01
5.614465e-01
1.495534e-01
9.493197e-01
8.919052e-01
8.454103e-01
8.206416e-01
8.094709e-01
8.024790e-01
7.966578e-01
7.920447e-01
7.894910e-01
7.884011e-01
7.845215e-01
7.684256e-01
7.270789e-01
6.582820e-01
6.070462e-01
5.985919e-01
9.496832e-01
8.923817e-01
8.458755e-01
8.207059e-01
8.083882e-01
7.989384e-01
7.884417e-01
7.757829e-01
7.608034e-01
7.429880e-01
7.211466e-01
6.952348e-01
6.723825e-01
6.763379e-01
7.352464e-01
8.345751e-01
8.353109e-01
7.598830e-01
7.050854e-01
6.825931e-01
6.769925e-01
6.756902e-01
6.753851e-01
6.763747e-01
6.783572e-01
6.801309e-01
6.817565e-01
6.882717e-01
7.127090e-01
7.700283e-01
8.578271e-01
9.485512e-01
5.208133e-01
4.124526e-01
4.029029e-01
3.872900e-01
3.980453e-01
4.187580e-01
4.454034e-01
4.844742e-01
5.374962e-01
5.998323e-01
6.652706e-01
7.310128e-01
7.998614e-01
8.750077e-01
9.461787e-01
9.910382e-01
-3.769237e-01
-1.654654e-01
-8.283182e-02
-1.016898e-01
-7.063814e-02
-1.920186e-02
4.750314e-02
1.455244e-01
2.796387e-01
4.397283e-01
6.071788e-01
7.606052e-01
8.807381e-01
9.566513e-01
9.915090e-01
9.998231e-01
1 2 19 18
2 3 20 19
3 4 21 20
4 5 22 21
5 6 23 22
6 7 24 23
7 8 25 24
8 9 26 25
9 10 27 26
10 11 28 27
11 12 29 28
12 13 30 29
13 14 31 30
14 15 32 31
15 16 33 32
16 17 34 33
18 19 36 35
19 20 37 36
20 21 38 37
21 22 39 38
22 23 40 39
23 24 41 40
24 25 42 41
25 26 43 42
26 27 44 43
27 28 45 44
28 29 46 45
29 30 47 46
30 31 48 47
31 32 49 48
32 33 50 49
33 34 51 50
35 36 53 52
36 37 54 53
37 38 55 54
38 39 56 55
39 40 57 56
40 41 58 57
41 42 59 58
42 43 60 59
43 44 61 60
44 45 62 61
45 46 63 62
46 47 64 63
47 48 65 64
48 49 66 65
49 50 67 66
50 51 68 67
52 53 70 69
53 54 71 70
54 55 72 71
55 56 73 72
56 57 74 73
57 58 75 74
58 59 76 75
59 60 77 76
60 61 78 77
61 62 79 78
62 63 80 79
63 64 81 80
64 65 82 81
65 66 83 82
66 67 84 83
67 68 85 84
69 70 87 86
70 71 88 87
71 72 89 88
72 73 90 89
73 74 91 90
74 75 92 91
75 76 93 92
76 77 94 93
77 78 95 94
78 79 96 95
79 80 97 96
80 81 98 97
81 82 99 98
82 83 100 99
83 84 101 100
84 85 102 101
86 87 104 103
87 88 105 104
88 89 106 105
89 90 107 106
90 91 108 107
91 92 109 108
92 93 110 109
93 94 111 110
94 95 112 111
95 96 113 112
96 97 114 113
97 98 115 114
98 99 116 115
99 100 117 116
100 101 118 117
101 102 119 118
103 104 121 120
104 105 122 121
105 106 123 122
106 107 124 123
107 108 125 124
108 109 126 125
109 110 127 126
110 111 128 127
111 112 129 128
112 113 130 129
113 114 131 130
114 115 132 131
115 116 133 132
116 117 134 133
117 118 135 134
118 119 136 135
120 121 138 137
121 122 139 138
122 123 140 139
123 124 141 140
124 125 142 141
125 126 143 142
126 127 144 143
127 128 145 144
128 129 146 145
129 130 147 146
130 131 148 147
131 132 149 148
132 133 150 149
133 134 151 150
134 135 152 151
135 136 153 152
