TITLE = "Solution"
VARIABLES = x, y, u, v, psiu, psiv, t, stress
ZONE T="structure" N=153 E=128 F=FEBLOCK ET=QUADRILATERAL VARLOCATION=([7,8]=cellcentered)
0.000000e+00
1.250000e+01
2.500000e+01
3.750000e+01
5.000000e+01
6.250000e+01
7.500000e+01
8.750000e+01
1.000000e+02
1.125000e+02
1.250000e+02
1.375000e+02
1.500000e+02
1.625000e+02
1.750000e+02
1.875000e+02
2.000000e+02
0.000000e+00
1.250000e+01
2.500000e+01
3.750000e+01
5.000000e+01
6.250000e+01
7.500000e+01
8.750000e+01
1.000000e+02
1.125000e+02
1.250000e+02
1.375000e+02
1.500000e+02
1.625000e+02
1.750000e+02
1.875000e+02
2.000000e+02
0.000000e+00
1.250000e+01
2.500000e+01
3.750000e+01
5.000000e+01
6.250000e+01
7.500000e+01
8.750000e+01
1.000000e+02
1.125000e+02
1.250000e+02
1.375000e+02
1.500000e+02
1.625000e+02
1.750000e+02
1.875000e+02
2.000000e+02
0.000000e+00
1.250000e+01
2.500000e+01
3.750000e+01
5.000000e+01
6.250000e+01
7.500000e+01
8.750000e+01
1.000000e+02
1.125000e+02
1.250000e+02
1.375000e+02
1.500000e+02
1.625000e+02
1.750000e+02
1.875000e+02
2.000000e+02
0.000000e+00
1.250000e+01
2.500000e+01
3.750000e+01
5.000000e+01
6.250000e+01
7.500000e+01
8.750000e+01
1.000000e+02
1.125000e+02
1.250000e+02
1.375000e+02
1.500000e+02
1.625000e+02
1.750000e+02
1.875000e+02
2.000000e+02
0.000000e+00
1.250000e+01
2.500000e+01
3.750000e+01
5.000000e+01
6.250000e+01
7.500000e+01
8.750000e+01
1.000000e+02
1.125000e+02
1.250000e+02
1.375000e+02
1.500000e+02
1.625000e+02
1.750000e+02
1.875000e+02
2.000000e+02
0.000000e+00
1.250000e+01
2.500000e+01
3.750000e+01
5.000000e+01
6.250000e+01
7.500000e+01
8.750000e+01
1.000000e+02
1.125000e+02
1.250000e+02
1.375000e+02
1.500000e+02
1.625000e+02
1.750000e+02
1.875000e+02
2.000000e+02
0.000000e+00
1.250000e+01
2.500000e+01
3.750000e+01
5.000000e+01
6.250000e+01
7.500000e+01
8.750000e+01
1.000000e+02
1.125000e+02
1.250000e+02
1.375000e+02
1.500000e+02
1.625000e+02
1.750000e+02
1.875000e+02
2.000000e+02
0.000000e+00
1.250000e+01
2.500000e+01
3.750000e+01
5.000000e+01
6.250000e+01
7.500000e+01
8.750000e+01
1.000000e+02
1.125000e+02
1.250000e+02
1.375000e+02
1.500000e+02
1.625000e+02
1.750000e+02
1.875000e+02
2.000000e+02
0.000000e+00
0.000000e+00
0.000000e+00
0.000000e+00
0.000000e+00
0.000000e+00
0.000000e+00
0.000000e+00
0.000000e+00
0.000000e+00
0.000000e+00
0.000000e+00
0.000000e+00
0.000000e+00
0.000000e+00
0.000000e+00
0.000000e+00
1.250000e+01
1.250000e+01
1.250000e+01
1.250000e+01
1.250000e+01
1.250000e+01
1.250000e+01
1.250000e+01
1.250000e+01
1.250000e+01
1.250000e+01
1.250000e+01
1.250000e+01
1.250000e+01
1.250000e+01
1.250000e+01
1.250000e+01
2.500000e+01
2.500000e+01
2.500000e+01
2.500000e+01
2.500000e+01
2.500000e+01
2.500000e+01
2.500000e+01
2.500000e+01
2.500000e+01
2.500000e+01
2.500000e+01
2.500000e+01
2.500000e+01
2.500000e+01
2.500000e+01
2.500000e+01
3.750000e+01
3.750000e+01
3.750000e+01
3.750000e+01
3.750000e+01
3.750000e+01
3.750000e+01
3.750000e+01
3.750000e+01
3.750000e+01
3.750000e+01
3.750000e+01
3.750000e+01
3.750000e+01
3.750000e+01
3.750000e+01
3.750000e+01
5.000000e+01
5.000000e+01
5.000000e+01
5.000000e+01
5.000000e+01
5.000000e+01
5.000000e+01
5.000000e+01
5.000000e+01
5.000000e+01
5.000000e+01
5.000000e+01
5.000000e+01
5.000000e+01
5.000000e+01
5.000000e+01
5.000000e+01
6.250000e+01
6.250000e+01
6.250000e+01
6.250000e+01
6.250000e+01
6.250000e+01
6.250000e+01
6.250000e+01
6.250000e+01
6.250000e+01
6.250000e+01
6.250000e+01
6.250000e+01
6.250000e+01
6.250000e+01
6.250000e+01
6.250000e+01
7.500000e+01
7.500000e+01
7.500000e+01
7.500000e+01
7.500000e+01
7.500000e+01
7.500000e+01
7.500000e+01
7.500000e+01
7.500000e+01
7.500000e+01
7.500000e+01
7.500000e+01
7.500000e+01
7.500000e+01
7.500000e+01
7.500000e+01
8.750000e+01
8.750000e+01
8.750000e+01
8.750000e+01
8.750000e+01
8.750000e+01
8.750000e+01
8.750000e+01
8.750000e+01
8.750000e+01
8.750000e+01
8.750000e+01
8.750000e+01
8.750000e+01
8.750000e+01
8.750000e+01
8.750000e+01
1.000000e+02
1.000000e+02
1.000000e+02
1.000000e+02
1.000000e+02
1.000000e+02
1.000000e+02
1.000000e+02
1.000000e+02
1.000000e+02
1.000000e+02
1.000000e+02
1.000000e+02
1.000000e+02
1.000000e+02
1.000000e+02
1.000000e+02
0.000000e+00
-8.049636e-01
-1.469052e+00
-2.108671e+00
-2.756681e+00
-3.395704e+00
-4.021904e+00
-4.633281e+00
-5.221781e+00
-5.777152e+00
-6.291990e+00
-6.765606e+00
-7.207436e+00
-7.640593e+00
-8.105399e+00
-8.649553e+00
-9.045917e+00
0.000000e+00
-4.554444e-01
-9.486277e-01
-1.429701e+00
-1.916040e+00
-2.395122e+00
-2.863880e+00
-3.321266e+00
-3.761469e+00
-4.176129e+00
-4.557519e+00
-4.900223e+00
-5.200533e+00
-5.450668e+00
-5.624250e+00
-5.662459e+00
-5.788300e+00
0.000000e+00
-2.666044e-01
-5.575996e-01
-8.740341e-01
-1.198538e+00
-1.519591e+00
-1.833948e+00
-2.138997e+00
-2.429612e+00
-2.698807e+00
-2.938641e+00
-3.140301e+00
-3.292680e+00
-3.379803e+00
-3.385167e+00
-3.354901e+00
-3.484970e+00
0.000000e+00
-1.225569e-01
-2.596828e-01
-4.133298e-01
-5.749831e-01
-7.363283e-01
-8.941177e-01
-1.045354e+00
-1.186069e+00
-1.311028e+00
-1.413657e+00
-1.486174e+00
-1.520422e+00
-1.512155e+00
-1.478532e+00
-1.486284e+00
-1.585899e+00
0.000000e+00
-4.166984e-04
-8.907263e-04
-1.348440e-03
-1.647688e-03
-1.495186e-03
-3.159212e-04
2.939494e-03
1.003242e-02
2.362852e-02
4.723770e-02
8.442852e-02
1.363005e-01
1.953912e-01
2.370227e-01
2.280091e-01
1.603016e-01
0.000000e+00
1.218600e-01
2.581728e-01
4.109922e-01
5.720097e-01
7.333748e-01
8.927415e-01
1.048750e+00
1.200183e+00
1.346019e+00
1.485418e+00
1.616998e+00
1.736610e+00
1.833834e+00
1.891827e+00
1.897428e+00
1.862561e+00
0.000000e+00
2.662715e-01
5.568296e-01
8.727243e-01
1.196629e+00
1.517185e+00
1.831456e+00
2.137307e+00
2.430287e+00
2.704434e+00
2.953466e+00
3.171264e+00
3.351331e+00
3.485959e+00
3.567327e+00
3.593996e+00
3.585904e+00
0.000000e+00
4.555576e-01
9.487977e-01
1.429858e+00
1.916048e+00
2.394729e+00
2.862587e+00
3.317780e+00
3.752584e+00
4.155212e+00
4.512986e+00
4.814578e+00
5.051506e+00
5.219451e+00
5.320095e+00
5.363090e+00
5.371018e+00
0.000000e+00
8.053040e-01
1.469961e+00
2.110339e+00
2.759294e+00
3.399391e+00
4.026497e+00
4.637278e+00
5.220068e+00
5.757449e+00
6.230161e+00
6.619996e+00
6.912496e+00
7.100829e+00
7.192070e+00
7.214440e+00
7.213915e+00
0.000000e+00
-4.930950e-01
-1.001998e+00
-1.675355e+00
-2.508686e+00
-3.503652e+00
-4.661053e+00
-5.977643e+00
-7.445936e+00
-9.055686e+00
-1.079524e+01
-1.265410e+01
-1.462798e+01
-1.672886e+01
-1.901967e+01
-2.169991e+01
-2.570440e+01
0.000000e+00
-3.080698e-01
-8.377833e-01
-1.506534e+00
-2.339998e+00
-3.337896e+00
-4.499046e+00
-5.820758e+00
-7.296830e+00
-8.917172e+00
-1.066928e+01
-1.254129e+01
-1.452742e+01
-1.663985e+01
-1.893435e+01
-2.160028e+01
-2.493812e+01
0.000000e+00
-2.434255e-01
-7.265303e-01
-1.389720e+00
-2.221093e+00
-3.220508e+00
-4.384997e+00
-5.711748e+00
-7.195159e+00
-8.825693e+00
-1.059107e+01
-1.247948e+01
-1.448552e+01
-1.661949e+01
-1.891924e+01
-2.142582e+01
-2.382726e+01
0.000000e+00
-2.263601e-01
-6.768136e-01
-1.323990e+00
-2.151799e+00
-3.151523e+00
-4.319044e+00
-5.650889e+00
-7.141627e+00
-8.782296e+00
-1.056102e+01
-1.246557e+01
-1.448743e+01
-1.662458e+01
-1.886923e+01
-2.113639e+01
-2.317702e+01
0.000000e+00
-2.241192e-01
-6.636874e-01
-1.304175e+00
-2.129685e+00
-3.130064e+00
-4.299946e+00
-5.635866e+00
-7.132654e+00
-8.781675e+00
-1.057069e+01
-1.248507e+01
-1.450898e+01
-1.662208e+01
-1.878082e+01
-2.088743e+01
-2.277689e+01
0.000000e+00
-2.261535e-01
-6.767235e-01
-1.324381e+00
-2.153222e+00
-3.154899e+00
-4.325905e+00
-5.663629e+00
-7.163540e+00
-8.816991e+00
-1.061054e+01
-1.252587e+01
-1.453887e+01
-1.661509e+01
-1.870061e+01
-2.071403e+01
-2.254898e+01
0.000000e+00
-2.430813e-01
-7.263620e-01
-1.390313e+00
-2.223375e+00
-3.226034e+00
-4.396358e+00
-5.733024e+00
-7.231995e+00
-8.884334e+00
-1.067527e+01
-1.258329e+01
-1.457840e+01
-1.661927e+01
-1.865178e+01
-2.061413e+01
-2.244757e+01
0.000000e+00
-3.077234e-01
-8.375983e-01
-1.507186e+00
-2.342565e+00
-3.344181e+00
-4.512028e+00
-5.845074e+00
-7.338811e+00
-8.983687e+00
-1.076419e+01
-1.265748e+01
-1.463134e+01
-1.664264e+01
-1.863938e+01
-2.057259e+01
-2.242387e+01
0.000000e+00
-4.928607e-01
-1.001926e+00
-1.676154e+00
-2.511451e+00
-3.510203e+00
-4.674298e+00
-6.001853e+00
-7.486519e+00
-9.117788e+00
-1.087994e+01
-1.275037e+01
-1.469755e+01
-1.668004e+01
-1.864969e+01
-2.056494e+01
-2.242434e+01


0.000000e+00
8.454270e-06
1.686364e-05
2.463078e-05
3.226661e-05
3.945383e-05
4.575431e-05
5.095825e-05
5.501059e-05
5.797674e-05
6.003213e-05
6.141051e-05
6.235523e-05
6.310105e-05
6.385270e-05
6.493595e-05
6.637484e-05
0.000000e+00
6.190877e-06
1.355893e-05
1.947698e-05
2.522003e-05
3.063955e-05
3.531947e-05
3.908897e-05
4.194183e-05
4.395004e-05
4.526309e-05
4.605879e-05
4.647694e-05
4.660916e-05
4.675470e-05
4.763005e-05
4.911368e-05
0.000000e+00
4.615346e-06
9.455409e-06
1.348932e-05
1.736877e-05
2.090259e-05
2.391791e-05
2.633087e-05
2.813626e-05
2.937518e-05
3.013797e-05
3.053588e-05
3.067443e-05
3.068609e-05
3.083054e-05
3.154139e-05
3.273471e-05
0.000000e+00
2.302557e-06
4.420443e-06
6.610191e-06
8.586681e-06
1.031501e-05
1.178741e-05
1.298210e-05
1.387959e-05
1.448891e-05
1.484787e-05
1.501801e-05
1.508537e-05
1.516237e-05
1.534622e-05
1.575713e-05
1.643276e-05
0.000000e+00
-4.720783e-09
-1.000534e-08
-1.573614e-08
-2.232175e-08
-3.103431e-08
-4.462581e-08
-6.691973e-08
-1.012040e-07
-1.477210e-07
-2.004969e-07
-2.427904e-07
-2.445522e-07
-1.780612e-07
-6.234345e-08
9.978875e-08
3.981339e-07
0.000000e+00
-2.311056e-06
-4.437864e-06
-6.638058e-06
-8.626344e-06
-1.036911e-05
-1.186169e-05
-1.308691e-05
-1.402982e-05
-1.470194e-05
-1.513799e-05
-1.538490e-05
-1.549149e-05
-1.551052e-05
-1.550576e-05
-1.548620e-05
-1.537786e-05
0.000000e+00
-4.619880e-06
-9.466515e-06
-1.350923e-05
-1.740084e-05
-2.094904e-05
-2.397668e-05
-2.639319e-05
-2.819074e-05
-2.941763e-05
-3.018035e-05
-3.061135e-05
-3.083432e-05
-3.094862e-05
-3.101962e-05
-3.105546e-05
-3.102882e-05
0.000000e+00
-6.191806e-06
-1.356350e-05
-1.948713e-05
-2.524100e-05
-3.067537e-05
-3.536393e-05
-3.911691e-05
-4.191499e-05
-4.383791e-05
-4.506104e-05
-4.579504e-05
-4.622130e-05
-4.646795e-05
-4.661103e-05
-4.668096e-05
-4.669177e-05
0.000000e+00
-8.457508e-06
-1.686659e-05
-2.463368e-05
-3.227251e-05
-3.946482e-05
-4.576194e-05
-5.093404e-05
-5.491046e-05
-5.776020e-05
-5.967582e-05
-6.090011e-05
-6.165192e-05
-6.209293e-05
-6.232597e-05
-6.241541e-05
-6.243056e-05
0.000000e+00
7.460848e-06
1.288470e-05
1.924248e-05
2.750534e-05
3.735959e-05
4.861191e-05
6.111477e-05
7.464499e-05
8.897045e-05
1.039008e-04
1.192893e-04
1.350594e-04
1.513537e-04
1.690050e-04
1.886417e-04
2.088010e-04
0.000000e+00
3.824543e-06
9.378296e-06
1.582160e-05
2.415612e-05
3.430671e-05
4.604445e-05
5.909011e-05
7.315226e-05
8.794533e-05
1.032420e-04
1.188903e-04
1.348260e-04
1.511244e-04
1.681264e-04
1.867697e-04
2.063539e-04
0.000000e+00
1.666533e-06
6.609058e-06
1.331457e-05
2.176263e-05
3.214919e-05
4.423097e-05
5.766177e-05
7.210007e-05
8.723141e-05
1.028038e-04
1.186575e-04
1.347195e-04
1.509383e-04
1.672517e-04
1.847917e-04
2.034959e-04
0.000000e+00
9.551914e-07
5.366615e-06
1.209243e-05
2.070229e-05
3.121438e-05
4.342159e-05
5.699844e-05
7.159465e-05
8.688241e-05
1.025946e-04
1.185520e-04
1.346440e-04
1.507489e-04
1.667578e-04
1.835031e-04
2.011522e-04
0.000000e+00
8.185290e-07
5.028348e-06
1.169159e-05
2.038709e-05
3.094426e-05
4.318436e-05
5.680185e-05
7.144797e-05
8.678794e-05
1.025454e-04
1.185242e-04
1.345912e-04
1.506313e-04
1.665940e-04
1.829185e-04
1.996361e-04
0.000000e+00
9.562150e-07
5.366430e-06
1.208955e-05
2.069656e-05
3.120941e-05
4.342506e-05
5.701924e-05
7.163828e-05
8.694726e-05
1.026680e-04
1.186018e-04
1.346161e-04
1.506204e-04
1.665984e-04
1.827013e-04
1.988337e-04
0.000000e+00
1.667952e-06
6.608914e-06
1.331068e-05
2.175471e-05
3.214354e-05
4.424101e-05
5.770341e-05
7.218381e-05
8.735617e-05
1.029514e-04
1.187793e-04
1.347143e-04
1.506770e-04
1.666364e-04
1.826081e-04
1.984801e-04
0.000000e+00
3.827066e-06
9.380881e-06
1.582216e-05
2.415517e-05
3.431011e-05
4.606376e-05
5.913941e-05
7.324297e-05
8.808076e-05
1.034100e-04
1.190479e-04
1.348608e-04
1.507553e-04
1.666725e-04
1.825678e-04
1.983668e-04
0.000000e+00
7.465699e-06
1.289083e-05
1.924954e-05
2.751493e-05
3.737495e-05
4.863662e-05
6.115280e-05
7.470352e-05
8.905834e-05
1.040167e-04
1.194000e-04
1.350527e-04
1.508534e-04
1.667145e-04
1.825647e-04
1.983503e-04


2.134375e+00
2.106196e+00
2.240809e+00
2.464842e+00
2.659202e+00
2.879235e+00
3.130020e+00
3.378316e+00
3.595810e+00
3.767233e+00
3.888698e+00
3.962988e+00
3.982122e+00
3.897176e+00
3.716525e+00
3.577110e+00
2.587539e+00
2.557402e+00
2.648837e+00
2.814541e+00
2.960861e+00
3.129944e+00
3.325347e+00
3.520148e+00
3.691904e+00
3.827914e+00
3.924160e+00
3.981765e+00
3.990629e+00
3.900612e+00
3.723855e+00
3.589272e+00
3.287470e+00
3.261399e+00
3.300313e+00
3.378072e+00
3.448545e+00
3.537058e+00
3.641696e+00
3.747877e+00
3.843325e+00
3.919949e+00
3.974152e+00
4.005405e+00
4.004461e+00
3.930985e+00
3.792396e+00
3.690517e+00
3.747687e+00
3.729489e+00
3.734032e+00
3.752277e+00
3.776329e+00
3.810578e+00
3.852545e+00
3.897003e+00
3.938837e+00
3.973537e+00
3.998512e+00
4.013171e+00
4.012478e+00
3.974241e+00
3.900665e+00
3.846630e+00
3.747648e+00
3.729387e+00
3.733773e+00
3.751715e+00
3.775289e+00
3.808874e+00
3.849953e+00
3.893228e+00
3.933608e+00
3.966938e+00
3.991395e+00
4.007818e+00
4.015816e+00
4.007711e+00
3.983715e+00
3.965230e+00
3.287152e+00
3.260870e+00
3.299315e+00
3.376304e+00
3.445818e+00
3.533415e+00
3.637172e+00
3.742061e+00
3.835350e+00
3.909326e+00
3.962115e+00
3.997061e+00
4.018916e+00
4.029193e+00
4.030151e+00
4.028613e+00
2.586648e+00
2.556153e+00
2.646899e+00
2.811726e+00
2.957513e+00
3.127201e+00
3.324488e+00
3.521385e+00
3.693872e+00
3.828709e+00
3.923467e+00
3.984353e+00
4.021067e+00
4.041730e+00
4.052029e+00
4.056028e+00
2.133023e+00
2.104410e+00
2.238280e+00
2.461552e+00
2.656002e+00
2.878199e+00
3.133481e+00
3.387115e+00
3.608392e+00
3.780689e+00
3.901213e+00
3.977822e+00
4.022904e+00
4.047795e+00
4.060378e+00
4.065601e+00


-4.005237e-01
-1.785733e-01
-1.005939e-01
-1.280679e-01
-9.749584e-02
-5.398819e-02
-5.268782e-03
6.774870e-02
1.705586e-01
2.923687e-01
4.147611e-01
5.198056e-01
5.970194e-01
6.460977e-01
6.964316e-01
-2.631604e-01
5.178223e-01
4.067531e-01
3.918942e-01
3.702605e-01
3.802523e-01
3.985631e-01
4.216675e-01
4.604036e-01
5.202211e-01
5.989432e-01
6.899652e-01
7.855109e-01
8.769839e-01
9.418323e-01
8.188295e-01
-8.814957e-01
8.336505e-01
7.538595e-01
6.938792e-01
6.682502e-01
6.628088e-01
6.636456e-01
6.692437e-01
6.833775e-01
7.092186e-01
7.468762e-01
7.916446e-01
8.313198e-01
8.406995e-01
7.682327e-01
5.175288e-01
7.152922e-02
9.457837e-01
8.841212e-01
8.328324e-01
8.050220e-01
7.925546e-01
7.847822e-01
7.778428e-01
7.715636e-01
7.670747e-01
7.641486e-01
7.584289e-01
7.394724e-01
6.926171e-01
6.161340e-01
5.613976e-01
5.539216e-01
9.461790e-01
8.846357e-01
8.333300e-01
8.050703e-01
7.913379e-01
7.808723e-01
7.687950e-01
7.536059e-01
7.352280e-01
7.134356e-01
6.872665e-01
6.568670e-01
6.303534e-01
6.347912e-01
7.018129e-01
8.140851e-01
8.345415e-01
7.550595e-01
6.951347e-01
6.687680e-01
6.610051e-01
6.566397e-01
6.520624e-01
6.482928e-01
6.458008e-01
6.439250e-01
6.430352e-01
6.487133e-01
6.754410e-01
7.399704e-01
8.392990e-01
9.419224e-01
5.184026e-01
4.075954e-01
3.928401e-01
3.710799e-01
3.801567e-01
3.960505e-01
4.145047e-01
4.456563e-01
4.939834e-01
5.560355e-01
6.250452e-01
6.969582e-01
7.738630e-01
8.586176e-01
9.391288e-01
9.898789e-01
-4.012005e-01
-1.797695e-01
-1.020049e-01
-1.296592e-01
-9.901407e-02
-5.465109e-02
-1.678363e-03
8.410840e-02
2.138671e-01
3.796976e-01
5.607482e-01
7.307090e-01
8.654248e-01
9.510243e-01
9.904097e-01
9.998011e-01
1 2 19 18
2 3 20 19
3 4 21 20
4 5 22 21
5 6 23 22
6 7 24 23
7 8 25 24
8 9 26 25
9 10 27 26
10 11 28 27
11 12 29 28
12 13 30 29
13 14 31 30
14 15 32 31
15 16 33 32
16 17 34 33
18 19 36 35
19 20 37 36
20 21 38 37
21 22 39 38
22 23 40 39
23 24 41 40
24 25 42 41
25 26 43 42
26 27 44 43
27 28 45 44
28 29 46 45
29 30 47 46
30 31 48 47
31 32 49 48
32 33 50 49
33 34 51 50
35 36 53 52
36 37 54 53
37 38 55 54
38 39 56 55
39 40 57 56
40 41 58 57
41 42 59 58
42 43 60 59
43 44 61 60
44 45 62 61
45 46 63 62
46 47 64 63
47 48 65 64
48 49 66 65
49 50 67 66
50 51 68 67
52 53 70 69
53 54 71 70
54 55 72 71
55 56 73 72
56 57 74 73
57 58 75 74
58 59 76 75
59 60 77 76
60 61 78 77
61 62 79 78
62 63 80 79
63 64 81 80
64 65 82 81
65 66 83 82
66 67 84 83
67 68 85 84
69 70 87 86
70 71 88 87
71 72 89 88
72 73 90 89
73 74 91 90
74 75 92 91
75 76 93 92
76 77 94 93
77 78 95 94
78 79 96 95
79 80 97 96
80 81 98 97
81 82 99 98
82 83 100 99
83 84 101 100
84 85 102 101
86 87 104 103
87 88 105 104
88 89 106 105
89 90 107 106
90 91 108 107
91 92 109 108
92 93 110 109
93 94 111 110
94 95 112 111
95 96 113 112
96 97 114 113
97 98 115 114
98 99 116 115
99 100 117 116
100 101 118 117
101 102 119 118
103 104 121 120
104 105 122 121
105 106 123 122
106 107 124 123
107 108 125 124
108 109 126 125
109 110 127 126
110 111 128 127
111 112 129 128
112 113 130 129
113 114 131 130
114 115 132 131
115 116 133 132
116 117 134 133
117 118 135 134
118 119 136 135
120 121 138 137
121 122 139 138
122 123 140 139
123 124 141 140
124 125 142 141
125 126 143 142
126 127 144 143
127 128 145 144
128 129 146 145
129 130 147 146
130 131 148 147
131 132 149 148
132 133 150 149
133 134 151 150
134 135 152 151
135 136 153 152
