TITLE = "Solution"
VARIABLES = x, y, u, v, psiu, psiv, t, stress
ZONE T="structure" N=153 E=128 F=FEBLOCK ET=QUADRILATERAL VARLOCATION=([7,8]=cellcentered)
0.000000e+00
1.250000e+01
2.500000e+01
3.750000e+01
5.000000e+01
6.250000e+01
7.500000e+01
8.750000e+01
1.000000e+02
1.125000e+02
1.250000e+02
1.375000e+02
1.500000e+02
1.625000e+02
1.750000e+02
1.875000e+02
2.000000e+02
0.000000e+00
1.250000e+01
2.500000e+01
3.750000e+01
5.000000e+01
6.250000e+01
7.500000e+01
8.750000e+01
1.000000e+02
1.125000e+02
1.250000e+02
1.375000e+02
1.500000e+02
1.625000e+02
1.750000e+02
1.875000e+02
2.000000e+02
0.000000e+00
1.250000e+01
2.500000e+01
3.750000e+01
5.000000e+01
6.250000e+01
7.500000e+01
8.750000e+01
1.000000e+02
1.125000e+02
1.250000e+02
1.375000e+02
1.500000e+02
1.625000e+02
1.750000e+02
1.875000e+02
2.000000e+02
0.000000e+00
1.250000e+01
2.500000e+01
3.750000e+01
5.000000e+01
6.250000e+01
7.500000e+01
8.750000e+01
1.000000e+02
1.125000e+02
1.250000e+02
1.375000e+02
1.500000e+02
1.625000e+02
1.750000e+02
1.875000e+02
2.000000e+02
0.000000e+00
1.250000e+01
2.500000e+01
3.750000e+01
5.000000e+01
6.250000e+01
7.500000e+01
8.750000e+01
1.000000e+02
1.125000e+02
1.250000e+02
1.375000e+02
1.500000e+02
1.625000e+02
1.750000e+02
1.875000e+02
2.000000e+02
0.000000e+00
1.250000e+01
2.500000e+01
3.750000e+01
5.000000e+01
6.250000e+01
7.500000e+01
8.750000e+01
1.000000e+02
1.125000e+02
1.250000e+02
1.375000e+02
1.500000e+02
1.625000e+02
1.750000e+02
1.875000e+02
2.000000e+02
0.000000e+00
1.250000e+01
2.500000e+01
3.750000e+01
5.000000e+01
6.250000e+01
7.500000e+01
8.750000e+01
1.000000e+02
1.125000e+02
1.250000e+02
1.375000e+02
1.500000e+02
1.625000e+02
1.750000e+02
1.875000e+02
2.000000e+02
0.000000e+00
1.250000e+01
2.500000e+01
3.750000e+01
5.000000e+01
6.250000e+01
7.500000e+01
8.750000e+01
1.000000e+02
1.125000e+02
1.250000e+02
1.375000e+02
1.500000e+02
1.625000e+02
1.750000e+02
1.875000e+02
2.000000e+02
0.000000e+00
1.250000e+01
2.500000e+01
3.750000e+01
5.000000e+01
6.250000e+01
7.500000e+01
8.750000e+01
1.000000e+02
1.125000e+02
1.250000e+02
1.375000e+02
1.500000e+02
1.625000e+02
1.750000e+02
1.875000e+02
2.000000e+02
0.000000e+00
0.000000e+00
0.000000e+00
0.000000e+00
0.000000e+00
0.000000e+00
0.000000e+00
0.000000e+00
0.000000e+00
0.000000e+00
0.000000e+00
0.000000e+00
0.000000e+00
0.000000e+00
0.000000e+00
0.000000e+00
0.000000e+00
1.250000e+01
1.250000e+01
1.250000e+01
1.250000e+01
1.250000e+01
1.250000e+01
1.250000e+01
1.250000e+01
1.250000e+01
1.250000e+01
1.250000e+01
1.250000e+01
1.250000e+01
1.250000e+01
1.250000e+01
1.250000e+01
1.250000e+01
2.500000e+01
2.500000e+01
2.500000e+01
2.500000e+01
2.500000e+01
2.500000e+01
2.500000e+01
2.500000e+01
2.500000e+01
2.500000e+01
2.500000e+01
2.500000e+01
2.500000e+01
2.500000e+01
2.500000e+01
2.500000e+01
2.500000e+01
3.750000e+01
3.750000e+01
3.750000e+01
3.750000e+01
3.750000e+01
3.750000e+01
3.750000e+01
3.750000e+01
3.750000e+01
3.750000e+01
3.750000e+01
3.750000e+01
3.750000e+01
3.750000e+01
3.750000e+01
3.750000e+01
3.750000e+01
5.000000e+01
5.000000e+01
5.000000e+01
5.000000e+01
5.000000e+01
5.000000e+01
5.000000e+01
5.000000e+01
5.000000e+01
5.000000e+01
5.000000e+01
5.000000e+01
5.000000e+01
5.000000e+01
5.000000e+01
5.000000e+01
5.000000e+01
6.250000e+01
6.250000e+01
6.250000e+01
6.250000e+01
6.250000e+01
6.250000e+01
6.250000e+01
6.250000e+01
6.250000e+01
6.250000e+01
6.250000e+01
6.250000e+01
6.250000e+01
6.250000e+01
6.250000e+01
6.250000e+01
6.250000e+01
7.500000e+01
7.500000e+01
7.500000e+01
7.500000e+01
7.500000e+01
7.500000e+01
7.500000e+01
7.500000e+01
7.500000e+01
7.500000e+01
7.500000e+01
7.500000e+01
7.500000e+01
7.500000e+01
7.500000e+01
7.500000e+01
7.500000e+01
8.750000e+01
8.750000e+01
8.750000e+01
8.750000e+01
8.750000e+01
8.750000e+01
8.750000e+01
8.750000e+01
8.750000e+01
8.750000e+01
8.750000e+01
8.750000e+01
8.750000e+01
8.750000e+01
8.750000e+01
8.750000e+01
8.750000e+01
1.000000e+02
1.000000e+02
1.000000e+02
1.000000e+02
1.000000e+02
1.000000e+02
1.000000e+02
1.000000e+02
1.000000e+02
1.000000e+02
1.000000e+02
1.000000e+02
1.000000e+02
1.000000e+02
1.000000e+02
1.000000e+02
1.000000e+02
0.000000e+00
-7.230927e-02
-1.331443e-01
-1.891204e-01
-2.412498e-01
-2.894227e-01
-3.335356e-01
-3.735542e-01
-4.095368e-01
-4.416492e-01
-4.702096e-01
-4.957762e-01
-5.193094e-01
-5.424680e-01
-5.681132e-01
-5.996087e-01
-6.232426e-01
0.000000e+00
-4.318178e-02
-8.970175e-02
-1.326600e-01
-1.722378e-01
-2.085856e-01
-2.417788e-01
-2.718619e-01
-2.988891e-01
-3.229435e-01
-3.441474e-01
-3.626535e-01
-3.785800e-01
-3.917627e-01
-4.010613e-01
-4.030994e-01
-4.104064e-01
0.000000e+00
-2.700463e-02
-5.552829e-02
-8.398488e-02
-1.105483e-01
-1.349372e-01
-1.571319e-01
-1.771574e-01
-1.950188e-01
-2.106861e-01
-2.240751e-01
-2.349987e-01
-2.430676e-01
-2.475718e-01
-2.476968e-01
-2.458975e-01
-2.533501e-01
0.000000e+00
-1.303410e-02
-2.683244e-02
-4.071795e-02
-5.399502e-02
-6.622404e-02
-7.730846e-02
-8.721599e-02
-9.588992e-02
-1.032174e-01
-1.090111e-01
-1.129975e-01
-1.148505e-01
-1.144176e-01
-1.126391e-01
-1.131254e-01
-1.186746e-01
0.000000e+00
-1.200723e-05
-2.729617e-05
-4.253494e-05
-5.062260e-05
-3.572441e-05
3.358963e-05
2.137168e-04
5.971846e-04
1.321818e-03
2.567428e-03
4.514652e-03
7.212299e-03
1.026078e-02
1.236657e-02
1.178902e-02
8.114947e-03
0.000000e+00
1.301562e-02
2.678955e-02
4.064934e-02
5.390968e-02
6.615463e-02
7.733539e-02
8.750662e-02
9.675653e-02
1.051924e-01
1.129244e-01
1.200099e-01
1.263257e-01
1.313903e-01
1.343695e-01
1.346058e-01
1.327410e-01
0.000000e+00
2.700160e-02
5.551905e-02
8.396649e-02
1.105196e-01
1.349014e-01
1.571023e-01
1.771671e-01
1.951375e-01
2.110454e-01
2.249047e-01
2.366815e-01
2.462404e-01
2.533076e-01
2.575495e-01
2.589269e-01
2.584920e-01
0.000000e+00
4.319950e-02
8.974027e-02
1.327214e-01
1.723202e-01
2.086738e-01
2.418283e-01
2.717715e-01
2.984577e-01
3.218098e-01
3.417170e-01
3.580418e-01
3.706534e-01
3.795103e-01
3.847936e-01
3.870466e-01
3.874604e-01
0.000000e+00
7.233890e-02
1.332224e-01
1.892668e-01
2.414837e-01
2.897516e-01
3.339279e-01
3.738841e-01
4.094866e-01
4.405504e-01
4.668060e-01
4.879035e-01
5.034962e-01
5.134617e-01
5.182811e-01
5.194707e-01
5.194478e-01
0.000000e+00
-4.377081e-02
-8.592722e-02
-1.405521e-01
-2.075929e-01
-2.869241e-01
-3.776770e-01
-4.788360e-01
-5.893252e-01
-7.080835e-01
-8.341302e-01
-9.666851e-01
-1.105429e+00
-1.251101e+00
-1.407482e+00
-1.586411e+00
-1.843500e+00
0.000000e+00
-2.694612e-02
-7.092218e-02
-1.262244e-01
-1.943609e-01
-2.747747e-01
-3.666270e-01
-4.688774e-01
-5.804375e-01
-7.002270e-01
-8.272381e-01
-9.606548e-01
-1.100108e+00
-1.246319e+00
-1.402639e+00
-1.580483e+00
-1.798359e+00
0.000000e+00
-2.033325e-02
-6.051994e-02
-1.160263e-01
-1.848069e-01
-2.660485e-01
-3.587451e-01
-4.618462e-01
-5.742710e-01
-6.949545e-01
-8.229085e-01
-9.573448e-01
-1.097929e+00
-1.245265e+00
-1.401719e+00
-1.570232e+00
-1.733317e+00
0.000000e+00
-1.752177e-02
-5.534800e-02
-1.100403e-01
-1.790696e-01
-2.608112e-01
-3.540857e-01
-4.578026e-01
-5.709016e-01
-6.923463e-01
-8.211700e-01
-9.565692e-01
-1.098051e+00
-1.245549e+00
-1.398874e+00
-1.553713e+00
-1.696356e+00
0.000000e+00
-1.671184e-02
-5.378274e-02
-1.081307e-01
-1.771788e-01
-2.591238e-01
-3.526665e-01
-4.567173e-01
-5.702361e-01
-6.922034e-01
-8.216309e-01
-9.575881e-01
-1.099196e+00
-1.245411e+00
-1.394043e+00
-1.540011e+00
-1.674483e+00
0.000000e+00
-1.751137e-02
-5.534060e-02
-1.100535e-01
-1.791343e-01
-2.609816e-01
-3.544503e-01
-4.584931e-01
-5.720921e-01
-6.942228e-01
-8.238329e-01
-9.597965e-01
-1.100798e+00
-1.245044e+00
-1.389763e+00
-1.530725e+00
-1.662327e+00
0.000000e+00
-2.031628e-02
-6.050767e-02
-1.160483e-01
-1.849160e-01
-2.663368e-01
-3.593632e-01
-4.630187e-01
-5.762953e-01
-6.981511e-01
-8.274628e-01
-9.629315e-01
-1.102925e+00
-1.245281e+00
-1.387194e+00
-1.525451e+00
-1.656965e+00
0.000000e+00
-2.693021e-02
-7.091150e-02
-1.262536e-01
-1.944918e-01
-2.751138e-01
-3.673466e-01
-4.702326e-01
-5.827628e-01
-7.038763e-01
-8.324037e-01
-9.669533e-01
-1.105754e+00
-1.246525e+00
-1.386550e+00
-1.523270e+00
-1.655706e+00
0.000000e+00
-4.376423e-02
-8.592814e-02
-1.405973e-01
-2.077446e-01
-2.872865e-01
-3.784133e-01
-4.801794e-01
-5.915650e-01
-7.114904e-01
-8.387584e-01
-9.719465e-01
-1.109271e+00
-1.248502e+00
-1.387097e+00
-1.522871e+00
-1.655726e+00


0.000000e+00
8.613252e-08
1.725948e-07
2.528853e-07
3.281674e-07
3.980161e-07
4.621411e-07
5.205282e-07
5.732984e-07
6.206766e-07
6.629798e-07
7.005602e-07
7.336250e-07
7.619169e-07
7.850746e-07
8.048678e-07
8.224835e-07
0.000000e+00
4.846161e-08
1.179160e-07
1.803550e-07
2.375900e-07
2.903354e-07
3.385468e-07
3.822279e-07
4.214168e-07
4.561445e-07
4.864029e-07
5.121049e-07
5.331217e-07
5.498869e-07
5.652006e-07
5.833827e-07
6.021018e-07
0.000000e+00
3.054899e-08
7.453613e-08
1.157968e-07
1.542502e-07
1.896071e-07
2.217314e-07
2.505875e-07
2.761339e-07
2.982866e-07
3.169206e-07
3.319469e-07
3.436022e-07
3.530841e-07
3.630867e-07
3.766066e-07
3.922313e-07
0.000000e+00
1.492757e-08
3.573575e-08
5.594394e-08
7.517298e-08
9.283291e-08
1.087346e-07
1.228069e-07
1.349688e-07
1.451155e-07
1.531599e-07
1.591504e-07
1.634927e-07
1.672111e-07
1.720031e-07
1.798834e-07
1.907298e-07
0.000000e+00
1.551656e-11
1.915209e-11
-8.456935e-12
-9.377421e-11
-2.790176e-10
-6.260839e-10
-1.217341e-09
-2.148350e-09
-3.504094e-09
-5.306846e-09
-7.429075e-09
-9.491496e-09
-1.079911e-08
-1.028208e-08
-6.572851e-09
5.512554e-10
0.000000e+00
-1.489856e-08
-3.569691e-08
-5.594585e-08
-7.530965e-08
-9.326907e-08
-1.097405e-07
-1.247956e-07
-1.385228e-07
-1.509771e-07
-1.621347e-07
-1.718441e-07
-1.797953e-07
-1.855251e-07
-1.884611e-07
-1.879006e-07
-1.839989e-07
0.000000e+00
-3.053071e-08
-7.450918e-08
-1.157809e-07
-1.542826e-07
-1.897584e-07
-2.221246e-07
-2.514199e-07
-2.776978e-07
-3.009762e-07
-3.212002e-07
-3.382111e-07
-3.517407e-07
-3.614734e-07
-3.672487e-07
-3.691720e-07
-3.680199e-07
0.000000e+00
-4.848002e-08
-1.179527e-07
-1.803883e-07
-2.375842e-07
-2.902294e-07
-3.382402e-07
-3.815657e-07
-4.201746e-07
-4.540208e-07
-4.830295e-07
-5.070885e-07
-5.260501e-07
-5.397901e-07
-5.484305e-07
-5.526785e-07
-5.537047e-07
0.000000e+00
-8.623418e-08
-1.727749e-07
-2.531081e-07
-3.283578e-07
-3.980178e-07
-4.616581e-07
-5.190485e-07
-5.700054e-07
-6.143608e-07
-6.519831e-07
-6.828151e-07
-7.069119e-07
-7.244733e-07
-7.359111e-07
-7.418234e-07
-7.437222e-07
0.000000e+00
7.797494e-08
1.520968e-07
2.352627e-07
3.344541e-07
4.506944e-07
5.832195e-07
7.308019e-07
8.920282e-07
1.065527e-06
1.250123e-06
1.445091e-06
1.650826e-06
1.870282e-06
2.108879e-06
2.362322e-06
2.613781e-06
0.000000e+00
4.715980e-08
1.192006e-07
2.030242e-07
3.041531e-07
4.227354e-07
5.577734e-07
7.078797e-07
8.716048e-07
1.047558e-06
1.234543e-06
1.431781e-06
1.639289e-06
1.858368e-06
2.091158e-06
2.338174e-06
2.586322e-06
0.000000e+00
3.003069e-08
9.282982e-08
1.765669e-07
2.791583e-07
3.997703e-07
5.369943e-07
6.893352e-07
8.553183e-07
1.033547e-06
1.222784e-06
1.422058e-06
1.630702e-06
1.848103e-06
2.073903e-06
2.311899e-06
2.552051e-06
0.000000e+00
2.202929e-08
7.895913e-08
1.611417e-07
2.644079e-07
3.862771e-07
5.249238e-07
6.787577e-07
8.462846e-07
1.026083e-06
1.216812e-06
1.417201e-06
1.625904e-06
1.841243e-06
2.061872e-06
2.290693e-06
2.518888e-06
0.000000e+00
1.973030e-08
7.475408e-08
1.561801e-07
2.596286e-07
3.820009e-07
5.212610e-07
6.757763e-07
8.440334e-07
1.024557e-06
1.215871e-06
1.416417e-06
1.624404e-06
1.837609e-06
2.053843e-06
2.274457e-06
2.490891e-06
0.000000e+00
2.204710e-08
7.902585e-08
1.613067e-07
2.647358e-07
3.868558e-07
5.258629e-07
6.801732e-07
8.482572e-07
1.028573e-06
1.219510e-06
1.419305e-06
1.625905e-06
1.836780e-06
2.049197e-06
2.262960e-06
2.470816e-06
0.000000e+00
3.005942e-08
9.294607e-08
1.768560e-07
2.797333e-07
4.007864e-07
5.386454e-07
6.918260e-07
8.587926e-07
1.037938e-06
1.227539e-06
1.425691e-06
1.630197e-06
1.838417e-06
2.047435e-06
2.256071e-06
2.458587e-06
0.000000e+00
4.719627e-08
1.193481e-07
2.033803e-07
3.048548e-07
4.239692e-07
5.597698e-07
7.108773e-07
8.757584e-07
1.052753e-06
1.240051e-06
1.435642e-06
1.637253e-06
1.842291e-06
2.048068e-06
2.252975e-06
2.452749e-06
0.000000e+00
7.803538e-08
1.522693e-07
2.356469e-07
3.351848e-07
4.519498e-07
5.852100e-07
7.337266e-07
8.959719e-07
1.070258e-06
1.254730e-06
1.447326e-06
1.645752e-06
1.847519e-06
2.050258e-06
2.252470e-06
2.451047e-06


2.112810e-01
2.112809e-01
2.112811e-01
2.112816e-01
2.112820e-01
2.112824e-01
2.112827e-01
2.112830e-01
2.112833e-01
2.112836e-01
2.112838e-01
2.112839e-01
2.112840e-01
2.112839e-01
2.112837e-01
2.112835e-01
2.112817e-01
2.112816e-01
2.112817e-01
2.112821e-01
2.112824e-01
2.112827e-01
2.112830e-01
2.112833e-01
2.112835e-01
2.112837e-01
2.112839e-01
2.112840e-01
2.112840e-01
2.112839e-01
2.112837e-01
2.112835e-01
2.112829e-01
2.112828e-01
2.112828e-01
2.112830e-01
2.112831e-01
2.112833e-01
2.112835e-01
2.112836e-01
2.112838e-01
2.112839e-01
2.112840e-01
2.112840e-01
2.112841e-01
2.112839e-01
2.112837e-01
2.112836e-01
2.112837e-01
2.112836e-01
2.112836e-01
2.112836e-01
2.112837e-01
2.112837e-01
2.112838e-01
2.112839e-01
2.112839e-01
2.112840e-01
2.112840e-01
2.112840e-01
2.112840e-01
2.112840e-01
2.112839e-01
2.112838e-01
2.112837e-01
2.112836e-01
2.112836e-01
2.112836e-01
2.112837e-01
2.112837e-01
2.112838e-01
2.112839e-01
2.112839e-01
2.112840e-01
2.112840e-01
2.112840e-01
2.112840e-01
2.112840e-01
2.112840e-01
2.112840e-01
2.112829e-01
2.112828e-01
2.112828e-01
2.112830e-01
2.112831e-01
2.112833e-01
2.112835e-01
2.112836e-01
2.112837e-01
2.112838e-01
2.112839e-01
2.112840e-01
2.112841e-01
2.112841e-01
2.112842e-01
2.112842e-01
2.112817e-01
2.112816e-01
2.112817e-01
2.112821e-01
2.112824e-01
2.112827e-01
2.112830e-01
2.112833e-01
2.112835e-01
2.112837e-01
2.112838e-01
2.112840e-01
2.112841e-01
2.112842e-01
2.112843e-01
2.112843e-01
2.112810e-01
2.112809e-01
2.112811e-01
2.112816e-01
2.112820e-01
2.112824e-01
2.112827e-01
2.112831e-01
2.112833e-01
2.112836e-01
2.112838e-01
2.112840e-01
2.112841e-01
2.112843e-01
2.112843e-01
2.112844e-01


9.882365e-01
9.899046e-01
9.914478e-01
9.926357e-01
9.937383e-01
9.947551e-01
9.956814e-01
9.965064e-01
9.972215e-01
9.978196e-01
9.982951e-01
9.986435e-01
9.988600e-01
9.989373e-01
9.989931e-01
9.955552e-01
9.955496e-01
9.947852e-01
9.952770e-01
9.959189e-01
9.965174e-01
9.970613e-01
9.975537e-01
9.979997e-01
9.984035e-01
9.987693e-01
9.991012e-01
9.994017e-01
9.996639e-01
9.998356e-01
9.994014e-01
9.935164e-01
9.984537e-01
9.980146e-01
9.978961e-01
9.980628e-01
9.982822e-01
9.984946e-01
9.986918e-01
9.988782e-01
9.990588e-01
9.992348e-01
9.993992e-01
9.995265e-01
9.995530e-01
9.993238e-01
9.984923e-01
9.969967e-01
9.996853e-01
9.993651e-01
9.991673e-01
9.991171e-01
9.991371e-01
9.991707e-01
9.992043e-01
9.992371e-01
9.992693e-01
9.992963e-01
9.993038e-01
9.992637e-01
9.991366e-01
9.989084e-01
9.987148e-01
9.986658e-01
9.996865e-01
9.993667e-01
9.991687e-01
9.991168e-01
9.991321e-01
9.991564e-01
9.991732e-01
9.991789e-01
9.991711e-01
9.991464e-01
9.991002e-01
9.990336e-01
9.989703e-01
9.989829e-01
9.991620e-01
9.994720e-01
9.984559e-01
9.980180e-01
9.978993e-01
9.980629e-01
9.982736e-01
9.984683e-01
9.986330e-01
9.987654e-01
9.988646e-01
9.989313e-01
9.989735e-01
9.990148e-01
9.991015e-01
9.992833e-01
9.995563e-01
9.998386e-01
9.955492e-01
9.947849e-01
9.952763e-01
9.959171e-01
9.965127e-01
9.970506e-01
9.975315e-01
9.979573e-01
9.983284e-01
9.986456e-01
9.989141e-01
9.991486e-01
9.993744e-01
9.996111e-01
9.998325e-01
9.999720e-01
9.882284e-01
9.898921e-01
9.914324e-01
9.926184e-01
9.937228e-01
9.947494e-01
9.957005e-01
9.965738e-01
9.973696e-01
9.980862e-01
9.987151e-01
9.992369e-01
9.996250e-01
9.998645e-01
9.999734e-01
9.999994e-01
1 2 19 18
2 3 20 19
3 4 21 20
4 5 22 21
5 6 23 22
6 7 24 23
7 8 25 24
8 9 26 25
9 10 27 26
10 11 28 27
11 12 29 28
12 13 30 29
13 14 31 30
14 15 32 31
15 16 33 32
16 17 34 33
18 19 36 35
19 20 37 36
20 21 38 37
21 22 39 38
22 23 40 39
23 24 41 40
24 25 42 41
25 26 43 42
26 27 44 43
27 28 45 44
28 29 46 45
29 30 47 46
30 31 48 47
31 32 49 48
32 33 50 49
33 34 51 50
35 36 53 52
36 37 54 53
37 38 55 54
38 39 56 55
39 40 57 56
40 41 58 57
41 42 59 58
42 43 60 59
43 44 61 60
44 45 62 61
45 46 63 62
46 47 64 63
47 48 65 64
48 49 66 65
49 50 67 66
50 51 68 67
52 53 70 69
53 54 71 70
54 55 72 71
55 56 73 72
56 57 74 73
57 58 75 74
58 59 76 75
59 60 77 76
60 61 78 77
61 62 79 78
62 63 80 79
63 64 81 80
64 65 82 81
65 66 83 82
66 67 84 83
67 68 85 84
69 70 87 86
70 71 88 87
71 72 89 88
72 73 90 89
73 74 91 90
74 75 92 91
75 76 93 92
76 77 94 93
77 78 95 94
78 79 96 95
79 80 97 96
80 81 98 97
81 82 99 98
82 83 100 99
83 84 101 100
84 85 102 101
86 87 104 103
87 88 105 104
88 89 106 105
89 90 107 106
90 91 108 107
91 92 109 108
92 93 110 109
93 94 111 110
94 95 112 111
95 96 113 112
96 97 114 113
97 98 115 114
98 99 116 115
99 100 117 116
100 101 118 117
101 102 119 118
103 104 121 120
104 105 122 121
105 106 123 122
106 107 124 123
107 108 125 124
108 109 126 125
109 110 127 126
110 111 128 127
111 112 129 128
112 113 130 129
113 114 131 130
114 115 132 131
115 116 133 132
116 117 134 133
117 118 135 134
118 119 136 135
120 121 138 137
121 122 139 138
122 123 140 139
123 124 141 140
124 125 142 141
125 126 143 142
126 127 144 143
127 128 145 144
128 129 146 145
129 130 147 146
130 131 148 147
131 132 149 148
132 133 150 149
133 134 151 150
134 135 152 151
135 136 153 152
