TITLE = "Solution"
VARIABLES = x, y, u, v, psiu, psiv, t, stress
ZONE T="structure" N=153 E=128 F=FEBLOCK ET=QUADRILATERAL VARLOCATION=([7,8]=cellcentered)
0.000000e+00
1.250000e+01
2.500000e+01
3.750000e+01
5.000000e+01
6.250000e+01
7.500000e+01
8.750000e+01
1.000000e+02
1.125000e+02
1.250000e+02
1.375000e+02
1.500000e+02
1.625000e+02
1.750000e+02
1.875000e+02
2.000000e+02
0.000000e+00
1.250000e+01
2.500000e+01
3.750000e+01
5.000000e+01
6.250000e+01
7.500000e+01
8.750000e+01
1.000000e+02
1.125000e+02
1.250000e+02
1.375000e+02
1.500000e+02
1.625000e+02
1.750000e+02
1.875000e+02
2.000000e+02
0.000000e+00
1.250000e+01
2.500000e+01
3.750000e+01
5.000000e+01
6.250000e+01
7.500000e+01
8.750000e+01
1.000000e+02
1.125000e+02
1.250000e+02
1.375000e+02
1.500000e+02
1.625000e+02
1.750000e+02
1.875000e+02
2.000000e+02
0.000000e+00
1.250000e+01
2.500000e+01
3.750000e+01
5.000000e+01
6.250000e+01
7.500000e+01
8.750000e+01
1.000000e+02
1.125000e+02
1.250000e+02
1.375000e+02
1.500000e+02
1.625000e+02
1.750000e+02
1.875000e+02
2.000000e+02
0.000000e+00
1.250000e+01
2.500000e+01
3.750000e+01
5.000000e+01
6.250000e+01
7.500000e+01
8.750000e+01
1.000000e+02
1.125000e+02
1.250000e+02
1.375000e+02
1.500000e+02
1.625000e+02
1.750000e+02
1.875000e+02
2.000000e+02
0.000000e+00
1.250000e+01
2.500000e+01
3.750000e+01
5.000000e+01
6.250000e+01
7.500000e+01
8.750000e+01
1.000000e+02
1.125000e+02
1.250000e+02
1.375000e+02
1.500000e+02
1.625000e+02
1.750000e+02
1.875000e+02
2.000000e+02
0.000000e+00
1.250000e+01
2.500000e+01
3.750000e+01
5.000000e+01
6.250000e+01
7.500000e+01
8.750000e+01
1.000000e+02
1.125000e+02
1.250000e+02
1.375000e+02
1.500000e+02
1.625000e+02
1.750000e+02
1.875000e+02
2.000000e+02
0.000000e+00
1.250000e+01
2.500000e+01
3.750000e+01
5.000000e+01
6.250000e+01
7.500000e+01
8.750000e+01
1.000000e+02
1.125000e+02
1.250000e+02
1.375000e+02
1.500000e+02
1.625000e+02
1.750000e+02
1.875000e+02
2.000000e+02
0.000000e+00
1.250000e+01
2.500000e+01
3.750000e+01
5.000000e+01
6.250000e+01
7.500000e+01
8.750000e+01
1.000000e+02
1.125000e+02
1.250000e+02
1.375000e+02
1.500000e+02
1.625000e+02
1.750000e+02
1.875000e+02
2.000000e+02
0.000000e+00
0.000000e+00
0.000000e+00
0.000000e+00
0.000000e+00
0.000000e+00
0.000000e+00
0.000000e+00
0.000000e+00
0.000000e+00
0.000000e+00
0.000000e+00
0.000000e+00
0.000000e+00
0.000000e+00
0.000000e+00
0.000000e+00
1.250000e+01
1.250000e+01
1.250000e+01
1.250000e+01
1.250000e+01
1.250000e+01
1.250000e+01
1.250000e+01
1.250000e+01
1.250000e+01
1.250000e+01
1.250000e+01
1.250000e+01
1.250000e+01
1.250000e+01
1.250000e+01
1.250000e+01
2.500000e+01
2.500000e+01
2.500000e+01
2.500000e+01
2.500000e+01
2.500000e+01
2.500000e+01
2.500000e+01
2.500000e+01
2.500000e+01
2.500000e+01
2.500000e+01
2.500000e+01
2.500000e+01
2.500000e+01
2.500000e+01
2.500000e+01
3.750000e+01
3.750000e+01
3.750000e+01
3.750000e+01
3.750000e+01
3.750000e+01
3.750000e+01
3.750000e+01
3.750000e+01
3.750000e+01
3.750000e+01
3.750000e+01
3.750000e+01
3.750000e+01
3.750000e+01
3.750000e+01
3.750000e+01
5.000000e+01
5.000000e+01
5.000000e+01
5.000000e+01
5.000000e+01
5.000000e+01
5.000000e+01
5.000000e+01
5.000000e+01
5.000000e+01
5.000000e+01
5.000000e+01
5.000000e+01
5.000000e+01
5.000000e+01
5.000000e+01
5.000000e+01
6.250000e+01
6.250000e+01
6.250000e+01
6.250000e+01
6.250000e+01
6.250000e+01
6.250000e+01
6.250000e+01
6.250000e+01
6.250000e+01
6.250000e+01
6.250000e+01
6.250000e+01
6.250000e+01
6.250000e+01
6.250000e+01
6.250000e+01
7.500000e+01
7.500000e+01
7.500000e+01
7.500000e+01
7.500000e+01
7.500000e+01
7.500000e+01
7.500000e+01
7.500000e+01
7.500000e+01
7.500000e+01
7.500000e+01
7.500000e+01
7.500000e+01
7.500000e+01
7.500000e+01
7.500000e+01
8.750000e+01
8.750000e+01
8.750000e+01
8.750000e+01
8.750000e+01
8.750000e+01
8.750000e+01
8.750000e+01
8.750000e+01
8.750000e+01
8.750000e+01
8.750000e+01
8.750000e+01
8.750000e+01
8.750000e+01
8.750000e+01
8.750000e+01
1.000000e+02
1.000000e+02
1.000000e+02
1.000000e+02
1.000000e+02
1.000000e+02
1.000000e+02
1.000000e+02
1.000000e+02
1.000000e+02
1.000000e+02
1.000000e+02
1.000000e+02
1.000000e+02
1.000000e+02
1.000000e+02
1.000000e+02
0.000000e+00
-8.357468e-01
-1.512332e+00
-2.170608e+00
-2.841769e+00
-3.498562e+00
-4.147573e+00
-4.794573e+00
-5.435110e+00
-6.061745e+00
-6.664827e+00
-7.236193e+00
-7.777507e+00
-8.306209e+00
-8.853277e+00
-9.456658e+00
-9.880576e+00
0.000000e+00
-4.593131e-01
-9.551298e-01
-1.445795e+00
-1.948454e+00
-2.440509e+00
-2.925773e+00
-3.408942e+00
-3.886772e+00
-4.352972e+00
-4.798209e+00
-5.211101e+00
-5.580834e+00
-5.891772e+00
-6.104152e+00
-6.151428e+00
-6.290818e+00
0.000000e+00
-2.568251e-01
-5.411979e-01
-8.602390e-01
-1.193372e+00
-1.523584e+00
-1.851201e+00
-2.175786e+00
-2.493184e+00
-2.796811e+00
-3.076657e+00
-3.319186e+00
-3.507323e+00
-3.618326e+00
-3.629845e+00
-3.597800e+00
-3.743093e+00
0.000000e+00
-1.139795e-01
-2.443556e-01
-3.970821e-01
-5.611487e-01
-7.275839e-01
-8.933973e-01
-1.055585e+00
-1.210108e+00
-1.351083e+00
-1.470032e+00
-1.556059e+00
-1.597395e+00
-1.587124e+00
-1.545397e+00
-1.552688e+00
-1.668013e+00
0.000000e+00
-5.633345e-04
-1.172131e-03
-1.721860e-03
-2.006950e-03
-1.645115e-03
5.753755e-05
4.334656e-03
1.329629e-02
3.023901e-02
5.961971e-02
1.060916e-01
1.713626e-01
2.465139e-01
3.008034e-01
2.926480e-01
2.114995e-01
0.000000e+00
1.130280e-01
2.423495e-01
3.940639e-01
5.574669e-01
7.242006e-01
8.923862e-01
1.061011e+00
1.229370e+00
1.396728e+00
1.561715e+00
1.721506e+00
1.869598e+00
1.991782e+00
2.065870e+00
2.074466e+00
2.031905e+00
0.000000e+00
2.563445e-01
5.401171e-01
8.584619e-01
1.190876e+00
1.520531e+00
1.848178e+00
2.174237e+00
2.495674e+00
2.807018e+00
3.099693e+00
3.362801e+00
3.584479e+00
3.752208e+00
3.854360e+00
3.888173e+00
3.878342e+00
0.000000e+00
4.594190e-01
9.552382e-01
1.445824e+00
1.948215e+00
2.439533e+00
2.923343e+00
3.404054e+00
3.876981e+00
4.331486e+00
4.750679e+00
5.114357e+00
5.405280e+00
5.613556e+00
5.738961e+00
5.792625e+00
5.802557e+00
0.000000e+00
8.362157e-01
1.513462e+00
2.172609e+00
2.844756e+00
3.502321e+00
4.151624e+00
4.797811e+00
5.433329e+00
6.041831e+00
6.597143e+00
7.067757e+00
7.426613e+00
7.659456e+00
7.772440e+00
7.799932e+00
7.799159e+00
0.000000e+00
-5.140276e-01
-1.058686e+00
-1.781027e+00
-2.669111e+00
-3.722792e+00
-4.947167e+00
-6.342256e+00
-7.904877e+00
-9.629710e+00
-1.150822e+01
-1.353101e+01
-1.569393e+01
-1.800826e+01
-2.053899e+01
-2.349968e+01
-2.789581e+01
0.000000e+00
-3.239596e-01
-8.920954e-01
-1.607238e+00
-2.495444e+00
-3.552073e+00
-4.777816e+00
-6.174280e+00
-7.740089e+00
-9.470817e+00
-1.135858e+01
-1.339341e+01
-1.556967e+01
-1.790001e+01
-2.044211e+01
-2.339350e+01
-2.706141e+01
0.000000e+00
-2.626474e-01
-7.812413e-01
-1.489321e+00
-2.373880e+00
-3.430873e+00
-4.658334e+00
-6.057569e+00
-7.628137e+00
-9.366751e+00
-1.126651e+01
-1.331810e+01
-1.551672e+01
-1.787394e+01
-2.042670e+01
-2.320519e+01
-2.585127e+01
0.000000e+00
-2.537438e-01
-7.363369e-01
-1.425760e+00
-2.304017e+00
-3.359546e+00
-4.589033e+00
-5.992546e+00
-7.569912e+00
-9.318669e+00
-1.123250e+01
-1.330184e+01
-1.551848e+01
-1.787972e+01
-2.037063e+01
-2.288091e+01
-2.511728e+01
0.000000e+00
-2.552813e-01
-7.263594e-01
-1.407696e+00
-2.282284e+00
-3.337777e+00
-4.569521e+00
-5.977306e+00
-7.561347e+00
-9.319632e+00
-1.124540e+01
-1.332623e+01
-1.554510e+01
-1.787708e+01
-2.026578e+01
-2.258792e+01
-2.464171e+01
0.000000e+00
-2.535519e-01
-7.363798e-01
-1.426536e+00
-2.306260e+00
-3.364336e+00
-4.598007e+00
-6.008341e+00
-7.596463e+00
-9.360589e+00
-1.129263e+01
-1.337552e+01
-1.558172e+01
-1.786863e+01
-2.016781e+01
-2.237653e+01
-2.436232e+01
0.000000e+00
-2.623173e-01
-7.812767e-01
-1.490513e+00
-2.377443e+00
-3.438614e+00
-4.673015e+00
-6.083671e+00
-7.672381e+00
-9.437123e+00
-1.136818e+01
-1.344419e+01
-1.562979e+01
-1.787358e+01
-2.010719e+01
-2.225272e+01
-2.423688e+01
0.000000e+00
-3.236266e-01
-8.921311e-01
-1.608541e+00
-2.499392e+00
-3.560731e+00
-4.794393e+00
-6.203938e+00
-7.790374e+00
-9.550422e+00
-1.147270e+01
-1.353350e+01
-1.569455e+01
-1.790232e+01
-2.009158e+01
-2.220092e+01
-2.420774e+01
0.000000e+00
-5.138289e-01
-1.058852e+00
-1.782498e+00
-2.673235e+00
-3.731608e+00
-4.963905e+00
-6.371912e+00
-7.954033e+00
-9.704675e+00
-1.161026e+01
-1.364641e+01
-1.577608e+01
-1.794862e+01
-2.010427e+01
-2.219134e+01
-2.420844e+01


0.000000e+00
1.058702e-05
2.044880e-05
2.994570e-05
4.013208e-05
5.009294e-05
5.923147e-05
6.753052e-05
7.478526e-05
8.060843e-05
8.484754e-05
8.771763e-05
8.965948e-05
9.118096e-05
9.265943e-05
9.473342e-05
9.741732e-05
0.000000e+00
7.790841e-06
1.649529e-05
2.365500e-05
3.143401e-05
3.905563e-05
4.588891e-05
5.201143e-05
5.731246e-05
6.142420e-05
6.421707e-05
6.589097e-05
6.672336e-05
6.690861e-05
6.708932e-05
6.876763e-05
7.163992e-05
0.000000e+00
5.890627e-06
1.174098e-05
1.667370e-05
2.192389e-05
2.689571e-05
3.133315e-05
3.525373e-05
3.855993e-05
4.105381e-05
4.267941e-05
4.354496e-05
4.382817e-05
4.380005e-05
4.401923e-05
4.546796e-05
4.793908e-05
0.000000e+00
2.946905e-06
5.500884e-06
8.305113e-06
1.091227e-05
1.329867e-05
1.546956e-05
1.737215e-05
1.892947e-05
2.009320e-05
2.084756e-05
2.123618e-05
2.139706e-05
2.156231e-05
2.195210e-05
2.284444e-05
2.428748e-05
0.000000e+00
-7.420805e-09
-1.529246e-08
-2.319282e-08
-3.131406e-08
-4.051227e-08
-5.424382e-08
-8.185888e-08
-1.364240e-07
-2.237172e-07
-3.314715e-07
-4.215201e-07
-4.252765e-07
-2.739286e-07
-1.980514e-08
3.093189e-07
9.227360e-07
0.000000e+00
-2.960170e-06
-5.527180e-06
-8.345880e-06
-1.096774e-05
-1.336786e-05
-1.555522e-05
-1.748918e-05
-1.910820e-05
-2.037481e-05
-2.126987e-05
-2.180678e-05
-2.204424e-05
-2.208492e-05
-2.207970e-05
-2.206271e-05
-2.186207e-05
0.000000e+00
-5.896830e-06
-1.175658e-05
-1.670255e-05
-2.196717e-05
-2.695205e-05
-3.140467e-05
-3.532965e-05
-3.859674e-05
-4.100466e-05
-4.255419e-05
-4.343515e-05
-4.388585e-05
-4.411540e-05
-4.426439e-05
-4.435000e-05
-4.430655e-05
0.000000e+00
-7.790247e-06
-1.649794e-05
-2.366511e-05
-3.145264e-05
-3.908312e-05
-4.593624e-05
-5.206083e-05
-5.725684e-05
-6.111174e-05
-6.358631e-05
-6.503134e-05
-6.584998e-05
-6.632289e-05
-6.660274e-05
-6.674273e-05
-6.676576e-05
0.000000e+00
-1.058742e-05
-2.044391e-05
-2.993546e-05
-4.011415e-05
-5.006536e-05
-5.920162e-05
-6.747966e-05
-7.460392e-05
-8.012659e-05
-8.395595e-05
-8.640056e-05
-8.788238e-05
-8.873905e-05
-8.918478e-05
-8.935198e-05
-8.937903e-05
0.000000e+00
9.220049e-06
1.574157e-05
2.384700e-05
3.461136e-05
4.738116e-05
6.226359e-05
7.929091e-05
9.803816e-05
1.180454e-04
1.390558e-04
1.609179e-04
1.835493e-04
2.072480e-04
2.337497e-04
2.642572e-04
2.955821e-04
0.000000e+00
4.827311e-06
1.163617e-05
1.950313e-05
3.003656e-05
4.305363e-05
5.836061e-05
7.582537e-05
9.515864e-05
1.159059e-04
1.376425e-04
1.600761e-04
1.830854e-04
2.068454e-04
2.320378e-04
2.606266e-04
2.909446e-04
0.000000e+00
2.131427e-06
8.256574e-06
1.631270e-05
2.674893e-05
3.996530e-05
5.561555e-05
7.343532e-05
9.319127e-05
1.144550e-04
1.367115e-04
1.595805e-04
1.828899e-04
2.064985e-04
2.302105e-04
2.565304e-04
2.851983e-04
0.000000e+00
1.224403e-06
6.662960e-06
1.478668e-05
2.537381e-05
3.867524e-05
5.445131e-05
7.243886e-05
9.236853e-05
1.138200e-04
1.362852e-04
1.593462e-04
1.827256e-04
2.061206e-04
2.291379e-04
2.537358e-04
2.803634e-04
0.000000e+00
1.041828e-06
6.206512e-06
1.427233e-05
2.498097e-05
3.830243e-05
5.411031e-05
7.216196e-05
9.215782e-05
1.136685e-04
1.361900e-04
1.592776e-04
1.825987e-04
2.058531e-04
2.288448e-04
2.525635e-04
2.772443e-04
0.000000e+00
1.225172e-06
6.660293e-06
1.477811e-05
2.535778e-05
3.865242e-05
5.443421e-05
7.245809e-05
9.245190e-05
1.139634e-04
1.364474e-04
1.594479e-04
1.826468e-04
2.058147e-04
2.288916e-04
2.522021e-04
2.756166e-04
0.000000e+00
2.132455e-06
8.252600e-06
1.630013e-05
2.672472e-05
3.993009e-05
5.559073e-05
7.347450e-05
9.334502e-05
1.147210e-04
1.370279e-04
1.598300e-04
1.828544e-04
2.059280e-04
2.289798e-04
2.520470e-04
2.749143e-04
0.000000e+00
4.829505e-06
1.163559e-05
1.949510e-05
3.001735e-05
4.302577e-05
5.834662e-05
7.587105e-05
9.530432e-05
1.161551e-04
1.379607e-04
1.603765e-04
1.831465e-04
2.060803e-04
2.290522e-04
2.519719e-04
2.746969e-04
0.000000e+00
9.223881e-06
1.574455e-05
2.384522e-05
3.460012e-05
4.736600e-05
6.226506e-05
7.932443e-05
9.809992e-05
1.181373e-04
1.391968e-04
1.610775e-04
1.835186e-04
2.062670e-04
2.291316e-04
2.519651e-04
2.746669e-04


2.199805e+00
2.138685e+00
2.280506e+00
2.500141e+00
2.671320e+00
2.921084e+00
3.246509e+00
3.613500e+00
4.001306e+00
4.366738e+00
4.660000e+00
4.853508e+00
4.914012e+00
4.715008e+00
4.260571e+00
3.898212e+00
2.947287e+00
2.886158e+00
2.971111e+00
3.120903e+00
3.239455e+00
3.422526e+00
3.666306e+00
3.944145e+00
4.241878e+00
4.525832e+00
4.754742e+00
4.903291e+00
4.933976e+00
4.714367e+00
4.260432e+00
3.901588e+00
4.037905e+00
3.993382e+00
4.020422e+00
4.076154e+00
4.120496e+00
4.206002e+00
4.323096e+00
4.460270e+00
4.613209e+00
4.763665e+00
4.886683e+00
4.964899e+00
4.966832e+00
4.783787e+00
4.422819e+00
4.149592e+00
4.714976e+00
4.688038e+00
4.682318e+00
4.680686e+00
4.687175e+00
4.710568e+00
4.744743e+00
4.788460e+00
4.842500e+00
4.899983e+00
4.949810e+00
4.983773e+00
4.984467e+00
4.890546e+00
4.701042e+00
4.557223e+00
4.715019e+00
4.687982e+00
4.682050e+00
4.679995e+00
4.685592e+00
4.707371e+00
4.739318e+00
4.780355e+00
4.831084e+00
4.884845e+00
4.932343e+00
4.969491e+00
4.991052e+00
4.973579e+00
4.913542e+00
4.865053e+00
4.037779e+00
3.992937e+00
4.019362e+00
4.074015e+00
4.116305e+00
4.198879e+00
4.313516e+00
4.449237e+00
4.599396e+00
4.743655e+00
4.860394e+00
4.943633e+00
4.998653e+00
5.026086e+00
5.029178e+00
5.024910e+00
2.946550e+00
2.884904e+00
2.969025e+00
3.117640e+00
3.234526e+00
3.417094e+00
3.665265e+00
3.952981e+00
4.259371e+00
4.543034e+00
4.764317e+00
4.913417e+00
5.004829e+00
5.056646e+00
5.082347e+00
5.092083e+00
2.198495e+00
2.136787e+00
2.277785e+00
2.496533e+00
2.667091e+00
2.919439e+00
3.256061e+00
3.643344e+00
4.050490e+00
4.422299e+00
4.708586e+00
4.897905e+00
5.010014e+00
5.071602e+00
5.102517e+00
5.115232e+00


-4.776850e-01
-2.120111e-01
-1.573913e-01
-2.078442e-01
-1.593839e-01
-1.318704e-01
-1.250170e-01
-1.029866e-01
-5.385243e-02
3.094895e-02
1.484312e-01
2.755283e-01
3.913573e-01
5.005689e-01
6.213742e-01
-4.659509e-01
5.187186e-01
3.995545e-01
3.636838e-01
3.227967e-01
3.368491e-01
3.429627e-01
3.414416e-01
3.516482e-01
3.835970e-01
4.471022e-01
5.459423e-01
6.711616e-01
8.058693e-01
9.114079e-01
7.751934e-01
-1.214982e+00
8.321094e-01
7.353410e-01
6.540723e-01
6.152312e-01
6.055413e-01
5.981263e-01
5.926033e-01
5.946599e-01
6.093558e-01
6.420046e-01
6.919620e-01
7.434872e-01
7.578424e-01
6.640301e-01
3.587018e-01
-1.798496e-01
9.285710e-01
8.479943e-01
7.730550e-01
7.306006e-01
7.126212e-01
7.030150e-01
6.943673e-01
6.842509e-01
6.725270e-01
6.596597e-01
6.423018e-01
6.073496e-01
5.336897e-01
4.250687e-01
3.657969e-01
3.709637e-01
9.290726e-01
8.486108e-01
7.735751e-01
7.303427e-01
7.104533e-01
6.970801e-01
6.813902e-01
6.588631e-01
6.271076e-01
5.858248e-01
5.360617e-01
4.806279e-01
4.335290e-01
4.392683e-01
5.461581e-01
7.201993e-01
8.332714e-01
7.368205e-01
6.554730e-01
6.153337e-01
6.022124e-01
5.875770e-01
5.678573e-01
5.444460e-01
5.178880e-01
4.912253e-01
4.701576e-01
4.654182e-01
4.989857e-01
5.962604e-01
7.506865e-01
9.104934e-01
5.195325e-01
4.006961e-01
3.648626e-01
3.236690e-01
3.366132e-01
3.395693e-01
3.305123e-01
3.273505e-01
3.404853e-01
3.797407e-01
4.479314e-01
5.392770e-01
6.504576e-01
7.800257e-01
9.052999e-01
9.843711e-01
-4.786133e-01
-2.133078e-01
-1.589489e-01
-2.093812e-01
-1.597767e-01
-1.304812e-01
-1.207496e-01
-8.835828e-02
-6.955952e-03
1.445401e-01
3.594869e-01
5.937291e-01
7.933467e-01
9.242506e-01
9.851847e-01
9.997004e-01
1 2 19 18
2 3 20 19
3 4 21 20
4 5 22 21
5 6 23 22
6 7 24 23
7 8 25 24
8 9 26 25
9 10 27 26
10 11 28 27
11 12 29 28
12 13 30 29
13 14 31 30
14 15 32 31
15 16 33 32
16 17 34 33
18 19 36 35
19 20 37 36
20 21 38 37
21 22 39 38
22 23 40 39
23 24 41 40
24 25 42 41
25 26 43 42
26 27 44 43
27 28 45 44
28 29 46 45
29 30 47 46
30 31 48 47
31 32 49 48
32 33 50 49
33 34 51 50
35 36 53 52
36 37 54 53
37 38 55 54
38 39 56 55
39 40 57 56
40 41 58 57
41 42 59 58
42 43 60 59
43 44 61 60
44 45 62 61
45 46 63 62
46 47 64 63
47 48 65 64
48 49 66 65
49 50 67 66
50 51 68 67
52 53 70 69
53 54 71 70
54 55 72 71
55 56 73 72
56 57 74 73
57 58 75 74
58 59 76 75
59 60 77 76
60 61 78 77
61 62 79 78
62 63 80 79
63 64 81 80
64 65 82 81
65 66 83 82
66 67 84 83
67 68 85 84
69 70 87 86
70 71 88 87
71 72 89 88
72 73 90 89
73 74 91 90
74 75 92 91
75 76 93 92
76 77 94 93
77 78 95 94
78 79 96 95
79 80 97 96
80 81 98 97
81 82 99 98
82 83 100 99
83 84 101 100
84 85 102 101
86 87 104 103
87 88 105 104
88 89 106 105
89 90 107 106
90 91 108 107
91 92 109 108
92 93 110 109
93 94 111 110
94 95 112 111
95 96 113 112
96 97 114 113
97 98 115 114
98 99 116 115
99 100 117 116
100 101 118 117
101 102 119 118
103 104 121 120
104 105 122 121
105 106 123 122
106 107 124 123
107 108 125 124
108 109 126 125
109 110 127 126
110 111 128 127
111 112 129 128
112 113 130 129
113 114 131 130
114 115 132 131
115 116 133 132
116 117 134 133
117 118 135 134
118 119 136 135
120 121 138 137
121 122 139 138
122 123 140 139
123 124 141 140
124 125 142 141
125 126 143 142
126 127 144 143
127 128 145 144
128 129 146 145
129 130 147 146
130 131 148 147
131 132 149 148
132 133 150 149
133 134 151 150
134 135 152 151
135 136 153 152
