TITLE = "Solution"
VARIABLES = x, y, u, v, psiu, psiv, t, stress
ZONE T="structure" N=153 E=128 F=FEBLOCK ET=QUADRILATERAL VARLOCATION=([7,8]=cellcentered)
0.000000e+00
1.250000e+01
2.500000e+01
3.750000e+01
5.000000e+01
6.250000e+01
7.500000e+01
8.750000e+01
1.000000e+02
1.125000e+02
1.250000e+02
1.375000e+02
1.500000e+02
1.625000e+02
1.750000e+02
1.875000e+02
2.000000e+02
0.000000e+00
1.250000e+01
2.500000e+01
3.750000e+01
5.000000e+01
6.250000e+01
7.500000e+01
8.750000e+01
1.000000e+02
1.125000e+02
1.250000e+02
1.375000e+02
1.500000e+02
1.625000e+02
1.750000e+02
1.875000e+02
2.000000e+02
0.000000e+00
1.250000e+01
2.500000e+01
3.750000e+01
5.000000e+01
6.250000e+01
7.500000e+01
8.750000e+01
1.000000e+02
1.125000e+02
1.250000e+02
1.375000e+02
1.500000e+02
1.625000e+02
1.750000e+02
1.875000e+02
2.000000e+02
0.000000e+00
1.250000e+01
2.500000e+01
3.750000e+01
5.000000e+01
6.250000e+01
7.500000e+01
8.750000e+01
1.000000e+02
1.125000e+02
1.250000e+02
1.375000e+02
1.500000e+02
1.625000e+02
1.750000e+02
1.875000e+02
2.000000e+02
0.000000e+00
1.250000e+01
2.500000e+01
3.750000e+01
5.000000e+01
6.250000e+01
7.500000e+01
8.750000e+01
1.000000e+02
1.125000e+02
1.250000e+02
1.375000e+02
1.500000e+02
1.625000e+02
1.750000e+02
1.875000e+02
2.000000e+02
0.000000e+00
1.250000e+01
2.500000e+01
3.750000e+01
5.000000e+01
6.250000e+01
7.500000e+01
8.750000e+01
1.000000e+02
1.125000e+02
1.250000e+02
1.375000e+02
1.500000e+02
1.625000e+02
1.750000e+02
1.875000e+02
2.000000e+02
0.000000e+00
1.250000e+01
2.500000e+01
3.750000e+01
5.000000e+01
6.250000e+01
7.500000e+01
8.750000e+01
1.000000e+02
1.125000e+02
1.250000e+02
1.375000e+02
1.500000e+02
1.625000e+02
1.750000e+02
1.875000e+02
2.000000e+02
0.000000e+00
1.250000e+01
2.500000e+01
3.750000e+01
5.000000e+01
6.250000e+01
7.500000e+01
8.750000e+01
1.000000e+02
1.125000e+02
1.250000e+02
1.375000e+02
1.500000e+02
1.625000e+02
1.750000e+02
1.875000e+02
2.000000e+02
0.000000e+00
1.250000e+01
2.500000e+01
3.750000e+01
5.000000e+01
6.250000e+01
7.500000e+01
8.750000e+01
1.000000e+02
1.125000e+02
1.250000e+02
1.375000e+02
1.500000e+02
1.625000e+02
1.750000e+02
1.875000e+02
2.000000e+02
0.000000e+00
0.000000e+00
0.000000e+00
0.000000e+00
0.000000e+00
0.000000e+00
0.000000e+00
0.000000e+00
0.000000e+00
0.000000e+00
0.000000e+00
0.000000e+00
0.000000e+00
0.000000e+00
0.000000e+00
0.000000e+00
0.000000e+00
1.250000e+01
1.250000e+01
1.250000e+01
1.250000e+01
1.250000e+01
1.250000e+01
1.250000e+01
1.250000e+01
1.250000e+01
1.250000e+01
1.250000e+01
1.250000e+01
1.250000e+01
1.250000e+01
1.250000e+01
1.250000e+01
1.250000e+01
2.500000e+01
2.500000e+01
2.500000e+01
2.500000e+01
2.500000e+01
2.500000e+01
2.500000e+01
2.500000e+01
2.500000e+01
2.500000e+01
2.500000e+01
2.500000e+01
2.500000e+01
2.500000e+01
2.500000e+01
2.500000e+01
2.500000e+01
3.750000e+01
3.750000e+01
3.750000e+01
3.750000e+01
3.750000e+01
3.750000e+01
3.750000e+01
3.750000e+01
3.750000e+01
3.750000e+01
3.750000e+01
3.750000e+01
3.750000e+01
3.750000e+01
3.750000e+01
3.750000e+01
3.750000e+01
5.000000e+01
5.000000e+01
5.000000e+01
5.000000e+01
5.000000e+01
5.000000e+01
5.000000e+01
5.000000e+01
5.000000e+01
5.000000e+01
5.000000e+01
5.000000e+01
5.000000e+01
5.000000e+01
5.000000e+01
5.000000e+01
5.000000e+01
6.250000e+01
6.250000e+01
6.250000e+01
6.250000e+01
6.250000e+01
6.250000e+01
6.250000e+01
6.250000e+01
6.250000e+01
6.250000e+01
6.250000e+01
6.250000e+01
6.250000e+01
6.250000e+01
6.250000e+01
6.250000e+01
6.250000e+01
7.500000e+01
7.500000e+01
7.500000e+01
7.500000e+01
7.500000e+01
7.500000e+01
7.500000e+01
7.500000e+01
7.500000e+01
7.500000e+01
7.500000e+01
7.500000e+01
7.500000e+01
7.500000e+01
7.500000e+01
7.500000e+01
7.500000e+01
8.750000e+01
8.750000e+01
8.750000e+01
8.750000e+01
8.750000e+01
8.750000e+01
8.750000e+01
8.750000e+01
8.750000e+01
8.750000e+01
8.750000e+01
8.750000e+01
8.750000e+01
8.750000e+01
8.750000e+01
8.750000e+01
8.750000e+01
1.000000e+02
1.000000e+02
1.000000e+02
1.000000e+02
1.000000e+02
1.000000e+02
1.000000e+02
1.000000e+02
1.000000e+02
1.000000e+02
1.000000e+02
1.000000e+02
1.000000e+02
1.000000e+02
1.000000e+02
1.000000e+02
1.000000e+02
0.000000e+00
-9.024295e-02
-1.661658e-01
-2.360248e-01
-3.010831e-01
-3.612036e-01
-4.162571e-01
-4.662010e-01
-5.111079e-01
-5.511847e-01
-5.868286e-01
-6.187363e-01
-6.481061e-01
-6.770085e-01
-7.090141e-01
-7.483210e-01
-7.778165e-01
0.000000e+00
-5.389143e-02
-1.119490e-01
-1.655614e-01
-2.149551e-01
-2.603177e-01
-3.017434e-01
-3.392876e-01
-3.730179e-01
-4.030383e-01
-4.295011e-01
-4.525971e-01
-4.724735e-01
-4.889259e-01
-5.005306e-01
-5.030742e-01
-5.121935e-01
0.000000e+00
-3.370212e-02
-6.930000e-02
-1.048142e-01
-1.379657e-01
-1.684035e-01
-1.961028e-01
-2.210950e-01
-2.433862e-01
-2.629393e-01
-2.796491e-01
-2.932820e-01
-3.033520e-01
-3.089733e-01
-3.091294e-01
-3.068838e-01
-3.161848e-01
0.000000e+00
-1.626672e-02
-3.348722e-02
-5.081652e-02
-6.738649e-02
-8.264850e-02
-9.648203e-02
-1.088468e-01
-1.196720e-01
-1.288168e-01
-1.360474e-01
-1.410226e-01
-1.433351e-01
-1.427949e-01
-1.405752e-01
-1.411822e-01
-1.481077e-01
0.000000e+00
-1.498537e-05
-3.406638e-05
-5.308478e-05
-6.317848e-05
-4.458544e-05
4.191956e-05
2.667214e-04
7.452959e-04
1.649651e-03
3.204196e-03
5.634367e-03
9.001080e-03
1.280564e-02
1.543371e-02
1.471292e-02
1.012761e-02
0.000000e+00
1.624366e-02
3.343369e-02
5.073089e-02
6.727999e-02
8.256187e-02
9.651563e-02
1.092095e-01
1.207535e-01
1.312816e-01
1.409314e-01
1.497742e-01
1.576564e-01
1.639771e-01
1.676952e-01
1.679901e-01
1.656628e-01
0.000000e+00
3.369834e-02
6.928847e-02
1.047913e-01
1.379299e-01
1.683588e-01
1.960658e-01
2.211070e-01
2.435344e-01
2.633878e-01
2.806844e-01
2.953821e-01
3.073118e-01
3.161318e-01
3.214257e-01
3.231447e-01
3.226020e-01
0.000000e+00
5.391354e-02
1.119970e-01
1.656381e-01
2.150579e-01
2.604278e-01
3.018051e-01
3.391747e-01
3.724795e-01
4.016233e-01
4.264679e-01
4.468415e-01
4.625811e-01
4.736346e-01
4.802283e-01
4.830401e-01
4.835565e-01
0.000000e+00
9.027992e-02
1.662634e-01
2.362075e-01
3.013749e-01
3.616140e-01
4.167467e-01
4.666128e-01
5.110453e-01
5.498134e-01
5.825809e-01
6.089109e-01
6.283710e-01
6.408081e-01
6.468228e-01
6.483074e-01
6.482788e-01
0.000000e+00
-5.462656e-02
-1.072384e-01
-1.754110e-01
-2.590789e-01
-3.580854e-01
-4.713463e-01
-5.975942e-01
-7.354864e-01
-8.836985e-01
-1.041007e+00
-1.206437e+00
-1.379591e+00
-1.561393e+00
-1.756559e+00
-1.979866e+00
-2.300717e+00
0.000000e+00
-3.362912e-02
-8.851187e-02
-1.575299e-01
-2.425651e-01
-3.429227e-01
-4.575558e-01
-5.851657e-01
-7.243944e-01
-8.738935e-01
-1.032405e+00
-1.198911e+00
-1.372951e+00
-1.555425e+00
-1.750515e+00
-1.972466e+00
-2.244379e+00
0.000000e+00
-2.537618e-02
-7.552973e-02
-1.448025e-01
-2.306416e-01
-3.320322e-01
-4.477189e-01
-5.763906e-01
-7.166985e-01
-8.673133e-01
-1.027002e+00
-1.194780e+00
-1.370232e+00
-1.554109e+00
-1.749367e+00
-1.959673e+00
-2.163205e+00
0.000000e+00
-2.186743e-02
-6.907510e-02
-1.373318e-01
-2.234813e-01
-3.254960e-01
-4.419039e-01
-5.713442e-01
-7.124934e-01
-8.640582e-01
-1.024832e+00
-1.193812e+00
-1.370384e+00
-1.554464e+00
-1.745816e+00
-1.939058e+00
-2.117078e+00
0.000000e+00
-2.085663e-02
-6.712162e-02
-1.349486e-01
-2.211216e-01
-3.233901e-01
-4.401328e-01
-5.699897e-01
-7.116628e-01
-8.638799e-01
-1.025407e+00
-1.195084e+00
-1.371813e+00
-1.554291e+00
-1.739787e+00
-1.921957e+00
-2.089780e+00
0.000000e+00
-2.185445e-02
-6.906586e-02
-1.373483e-01
-2.235621e-01
-3.257087e-01
-4.423590e-01
-5.722060e-01
-7.139792e-01
-8.664002e-01
-1.028156e+00
-1.197840e+00
-1.373813e+00
-1.553834e+00
-1.734445e+00
-1.910368e+00
-2.074609e+00
0.000000e+00
-2.535501e-02
-7.551443e-02
-1.448299e-01
-2.307777e-01
-3.323921e-01
-4.484904e-01
-5.778540e-01
-7.192249e-01
-8.713027e-01
-1.032686e+00
-1.201753e+00
-1.376467e+00
-1.554129e+00
-1.731239e+00
-1.903785e+00
-2.067917e+00
0.000000e+00
-3.360927e-02
-8.849854e-02
-1.575663e-01
-2.427285e-01
-3.433459e-01
-4.584538e-01
-5.868570e-01
-7.272965e-01
-8.784478e-01
-1.038852e+00
-1.206772e+00
-1.379997e+00
-1.555682e+00
-1.730436e+00
-1.901064e+00
-2.066346e+00
0.000000e+00
-5.461835e-02
-1.072395e-01
-1.754674e-01
-2.592682e-01
-3.585377e-01
-4.722653e-01
-5.992708e-01
-7.382816e-01
-8.879505e-01
-1.046783e+00
-1.213004e+00
-1.384387e+00
-1.558149e+00
-1.731118e+00
-1.900566e+00
-2.066371e+00


0.000000e+00
1.261578e-08
2.537101e-08
3.714991e-08
4.806797e-08
5.806631e-08
6.712436e-08
7.526744e-08
8.254017e-08
8.899951e-08
9.471207e-08
9.974654e-08
1.041507e-07
1.079106e-07
1.109976e-07
1.136655e-07
1.160698e-07
0.000000e+00
7.265793e-09
1.760409e-08
2.678669e-08
3.508067e-08
4.261098e-08
4.939746e-08
5.546663e-08
6.084747e-08
6.556542e-08
6.963798e-08
7.306921e-08
7.585398e-08
7.805901e-08
8.007579e-08
8.251693e-08
8.506801e-08
0.000000e+00
4.690596e-09
1.126994e-08
1.735261e-08
2.292837e-08
2.796948e-08
3.247985e-08
3.647634e-08
3.997186e-08
4.297063e-08
4.546880e-08
4.746496e-08
4.899891e-08
5.023858e-08
5.155729e-08
5.337569e-08
5.550210e-08
0.000000e+00
2.325500e-09
5.433672e-09
8.420301e-09
1.121388e-08
1.373397e-08
1.596656e-08
1.791449e-08
1.957716e-08
2.094895e-08
2.202517e-08
2.281842e-08
2.338870e-08
2.387851e-08
2.451785e-08
2.557926e-08
2.704781e-08
0.000000e+00
1.598912e-12
1.508141e-12
-2.863691e-12
-1.507992e-11
-4.079800e-11
-8.827823e-11
-1.684816e-10
-2.940396e-10
-4.760105e-10
-7.167815e-10
-9.982778e-10
-1.268517e-09
-1.434524e-09
-1.357121e-09
-8.570982e-10
9.945100e-11
0.000000e+00
-2.322446e-09
-5.430281e-09
-8.423519e-09
-1.123646e-08
-1.379806e-08
-1.610836e-08
-1.818908e-08
-2.006206e-08
-2.174260e-08
-2.323391e-08
-2.452107e-08
-2.556743e-08
-2.631636e-08
-2.669767e-08
-2.662039e-08
-2.610021e-08
0.000000e+00
-4.688585e-09
-1.126744e-08
-1.735242e-08
-2.293557e-08
-2.799352e-08
-3.253698e-08
-3.659248e-08
-4.018534e-08
-4.333326e-08
-4.604210e-08
-4.830242e-08
-5.008897e-08
-5.136893e-08
-5.212760e-08
-5.238033e-08
-5.222691e-08
0.000000e+00
-7.268309e-09
-1.760949e-08
-2.679214e-08
-3.508149e-08
-4.259905e-08
-4.935934e-08
-5.538140e-08
-6.068490e-08
-6.528512e-08
-6.919132e-08
-7.240563e-08
-7.492332e-08
-7.673997e-08
-7.787995e-08
-7.843979e-08
-7.857423e-08
0.000000e+00
-1.262961e-08
-2.539542e-08
-3.717998e-08
-4.809360e-08
-5.806660e-08
-6.705986e-08
-7.507025e-08
-8.210229e-08
-8.816146e-08
-9.325559e-08
-9.739922e-08
-1.006179e-07
-1.029522e-07
-1.044661e-07
-1.052450e-07
-1.054935e-07
0.000000e+00
1.142581e-08
2.208810e-08
3.397610e-08
4.816296e-08
6.479485e-08
8.374143e-08
1.048028e-07
1.277567e-07
1.523928e-07
1.785340e-07
2.060695e-07
2.350434e-07
2.658545e-07
2.992684e-07
3.347591e-07
3.700246e-07
0.000000e+00
6.823579e-09
1.719215e-08
2.923886e-08
4.377627e-08
6.080754e-08
8.016411e-08
1.016226e-07
1.249568e-07
1.499554e-07
1.764402e-07
2.042947e-07
2.335148e-07
2.642763e-07
2.968871e-07
3.314713e-07
3.662647e-07
0.000000e+00
4.245399e-09
1.327792e-08
2.537289e-08
4.018118e-08
5.755447e-08
7.726150e-08
9.906431e-08
1.227350e-07
1.480631e-07
1.748664e-07
2.030045e-07
2.323832e-07
2.629189e-07
2.945678e-07
3.278980e-07
3.615841e-07
0.000000e+00
3.058106e-09
1.124559e-08
2.314419e-08
3.808225e-08
5.566196e-08
7.558994e-08
9.761558e-08
1.215096e-07
1.470596e-07
1.740707e-07
2.023630e-07
2.317518e-07
2.620088e-07
2.929567e-07
3.250294e-07
3.570759e-07
0.000000e+00
2.721944e-09
1.063652e-08
2.243154e-08
3.740516e-08
5.506390e-08
7.508320e-08
9.720668e-08
1.212031e-07
1.468536e-07
1.739451e-07
2.022599e-07
2.315535e-07
2.615264e-07
2.918909e-07
3.228550e-07
3.532963e-07
0.000000e+00
3.060683e-09
1.125462e-08
2.316611e-08
3.812555e-08
5.573826e-08
7.571387e-08
9.780271e-08
1.217710e-07
1.473904e-07
1.744298e-07
2.026437e-07
2.317527e-07
2.614185e-07
2.912821e-07
3.213298e-07
3.506061e-07
0.000000e+00
4.249545e-09
1.329368e-08
2.541142e-08
4.025733e-08
5.768882e-08
7.747991e-08
9.939436e-08
1.231963e-07
1.486477e-07
1.755015e-07
2.034926e-07
2.323221e-07
2.616375e-07
2.910546e-07
3.204208e-07
3.489789e-07
0.000000e+00
6.828898e-09
1.721241e-08
2.928674e-08
4.386978e-08
6.097139e-08
8.042902e-08
1.020205e-07
1.255091e-07
1.506479e-07
1.771772e-07
2.048169e-07
2.332572e-07
2.621505e-07
2.911404e-07
3.200131e-07
3.482076e-07
0.000000e+00
1.143459e-08
2.211211e-08
3.402826e-08
4.826097e-08
6.496221e-08
8.400609e-08
1.051914e-07
1.282811e-07
1.530234e-07
1.791512e-07
2.063765e-07
2.343853e-07
2.628420e-07
2.914300e-07
3.199473e-07
3.479845e-07


2.636812e-01
2.636811e-01
2.636815e-01
2.636823e-01
2.636830e-01
2.636837e-01
2.636843e-01
2.636848e-01
2.636852e-01
2.636856e-01
2.636859e-01
2.636862e-01
2.636863e-01
2.636862e-01
2.636858e-01
2.636854e-01
2.636824e-01
2.636823e-01
2.636825e-01
2.636831e-01
2.636837e-01
2.636842e-01
2.636847e-01
2.636851e-01
2.636855e-01
2.636858e-01
2.636861e-01
2.636863e-01
2.636863e-01
2.636861e-01
2.636857e-01
2.636854e-01
2.636844e-01
2.636842e-01
2.636843e-01
2.636846e-01
2.636849e-01
2.636852e-01
2.636855e-01
2.636857e-01
2.636859e-01
2.636861e-01
2.636863e-01
2.636864e-01
2.636864e-01
2.636862e-01
2.636858e-01
2.636856e-01
2.636858e-01
2.636856e-01
2.636855e-01
2.636856e-01
2.636858e-01
2.636859e-01
2.636860e-01
2.636861e-01
2.636862e-01
2.636863e-01
2.636863e-01
2.636864e-01
2.636864e-01
2.636862e-01
2.636860e-01
2.636859e-01
2.636858e-01
2.636856e-01
2.636855e-01
2.636856e-01
2.636857e-01
2.636859e-01
2.636860e-01
2.636861e-01
2.636862e-01
2.636862e-01
2.636863e-01
2.636863e-01
2.636863e-01
2.636863e-01
2.636863e-01
2.636863e-01
2.636844e-01
2.636842e-01
2.636843e-01
2.636846e-01
2.636849e-01
2.636852e-01
2.636854e-01
2.636857e-01
2.636859e-01
2.636860e-01
2.636862e-01
2.636863e-01
2.636864e-01
2.636865e-01
2.636865e-01
2.636866e-01
2.636824e-01
2.636823e-01
2.636825e-01
2.636831e-01
2.636837e-01
2.636842e-01
2.636847e-01
2.636851e-01
2.636855e-01
2.636858e-01
2.636860e-01
2.636863e-01
2.636864e-01
2.636866e-01
2.636867e-01
2.636868e-01
2.636812e-01
2.636811e-01
2.636815e-01
2.636823e-01
2.636830e-01
2.636837e-01
2.636843e-01
2.636848e-01
2.636853e-01
2.636857e-01
2.636860e-01
2.636863e-01
2.636865e-01
2.636867e-01
2.636868e-01
2.636869e-01


9.816779e-01
9.842761e-01
9.866796e-01
9.885298e-01
9.902472e-01
9.918308e-01
9.932735e-01
9.945586e-01
9.956723e-01
9.966038e-01
9.973446e-01
9.978872e-01
9.982245e-01
9.983448e-01
9.984316e-01
9.930769e-01
9.930684e-01
9.918777e-01
9.926438e-01
9.936435e-01
9.945757e-01
9.954229e-01
9.961898e-01
9.968844e-01
9.975134e-01
9.980831e-01
9.986000e-01
9.990681e-01
9.994765e-01
9.997439e-01
9.990676e-01
9.899015e-01
9.975916e-01
9.969077e-01
9.967231e-01
9.969828e-01
9.973244e-01
9.976553e-01
9.979625e-01
9.982528e-01
9.985340e-01
9.988082e-01
9.990642e-01
9.992624e-01
9.993038e-01
9.989468e-01
9.976517e-01
9.953223e-01
9.995098e-01
9.990111e-01
9.987030e-01
9.986248e-01
9.986560e-01
9.987084e-01
9.987607e-01
9.988118e-01
9.988619e-01
9.989039e-01
9.989156e-01
9.988532e-01
9.986551e-01
9.982997e-01
9.979983e-01
9.979220e-01
9.995117e-01
9.990137e-01
9.987053e-01
9.986243e-01
9.986482e-01
9.986860e-01
9.987122e-01
9.987210e-01
9.987090e-01
9.986704e-01
9.985985e-01
9.984949e-01
9.983962e-01
9.984158e-01
9.986947e-01
9.991776e-01
9.975950e-01
9.969129e-01
9.967281e-01
9.969828e-01
9.973111e-01
9.976143e-01
9.978709e-01
9.980771e-01
9.982315e-01
9.983355e-01
9.984012e-01
9.984655e-01
9.986006e-01
9.988837e-01
9.993090e-01
9.997487e-01
9.930677e-01
9.918773e-01
9.926427e-01
9.936407e-01
9.945684e-01
9.954062e-01
9.961552e-01
9.968185e-01
9.973964e-01
9.978904e-01
9.983086e-01
9.986738e-01
9.990256e-01
9.993943e-01
9.997392e-01
9.999563e-01
9.816654e-01
9.842565e-01
9.866556e-01
9.885029e-01
9.902230e-01
9.918220e-01
9.933034e-01
9.946636e-01
9.959030e-01
9.970191e-01
9.979987e-01
9.988114e-01
9.994160e-01
9.997890e-01
9.999586e-01
9.999991e-01
1 2 19 18
2 3 20 19
3 4 21 20
4 5 22 21
5 6 23 22
6 7 24 23
7 8 25 24
8 9 26 25
9 10 27 26
10 11 28 27
11 12 29 28
12 13 30 29
13 14 31 30
14 15 32 31
15 16 33 32
16 17 34 33
18 19 36 35
19 20 37 36
20 21 38 37
21 22 39 38
22 23 40 39
23 24 41 40
24 25 42 41
25 26 43 42
26 27 44 43
27 28 45 44
28 29 46 45
29 30 47 46
30 31 48 47
31 32 49 48
32 33 50 49
33 34 51 50
35 36 53 52
36 37 54 53
37 38 55 54
38 39 56 55
39 40 57 56
40 41 58 57
41 42 59 58
42 43 60 59
43 44 61 60
44 45 62 61
45 46 63 62
46 47 64 63
47 48 65 64
48 49 66 65
49 50 67 66
50 51 68 67
52 53 70 69
53 54 71 70
54 55 72 71
55 56 73 72
56 57 74 73
57 58 75 74
58 59 76 75
59 60 77 76
60 61 78 77
61 62 79 78
62 63 80 79
63 64 81 80
64 65 82 81
65 66 83 82
66 67 84 83
67 68 85 84
69 70 87 86
70 71 88 87
71 72 89 88
72 73 90 89
73 74 91 90
74 75 92 91
75 76 93 92
76 77 94 93
77 78 95 94
78 79 96 95
79 80 97 96
80 81 98 97
81 82 99 98
82 83 100 99
83 84 101 100
84 85 102 101
86 87 104 103
87 88 105 104
88 89 106 105
89 90 107 106
90 91 108 107
91 92 109 108
92 93 110 109
93 94 111 110
94 95 112 111
95 96 113 112
96 97 114 113
97 98 115 114
98 99 116 115
99 100 117 116
100 101 118 117
101 102 119 118
103 104 121 120
104 105 122 121
105 106 123 122
106 107 124 123
107 108 125 124
108 109 126 125
109 110 127 126
110 111 128 127
111 112 129 128
112 113 130 129
113 114 131 130
114 115 132 131
115 116 133 132
116 117 134 133
117 118 135 134
118 119 136 135
120 121 138 137
121 122 139 138
122 123 140 139
123 124 141 140
124 125 142 141
125 126 143 142
126 127 144 143
127 128 145 144
128 129 146 145
129 130 147 146
130 131 148 147
131 132 149 148
132 133 150 149
133 134 151 150
134 135 152 151
135 136 153 152
