TITLE = "Solution"
VARIABLES = x, y, u, v, psiu, psiv, t, stress
ZONE T="structure" N=153 E=128 F=FEBLOCK ET=QUADRILATERAL VARLOCATION=([7,8]=cellcentered)
0.000000e+00
1.250000e+01
2.500000e+01
3.750000e+01
5.000000e+01
6.250000e+01
7.500000e+01
8.750000e+01
1.000000e+02
1.125000e+02
1.250000e+02
1.375000e+02
1.500000e+02
1.625000e+02
1.750000e+02
1.875000e+02
2.000000e+02
0.000000e+00
1.250000e+01
2.500000e+01
3.750000e+01
5.000000e+01
6.250000e+01
7.500000e+01
8.750000e+01
1.000000e+02
1.125000e+02
1.250000e+02
1.375000e+02
1.500000e+02
1.625000e+02
1.750000e+02
1.875000e+02
2.000000e+02
0.000000e+00
1.250000e+01
2.500000e+01
3.750000e+01
5.000000e+01
6.250000e+01
7.500000e+01
8.750000e+01
1.000000e+02
1.125000e+02
1.250000e+02
1.375000e+02
1.500000e+02
1.625000e+02
1.750000e+02
1.875000e+02
2.000000e+02
0.000000e+00
1.250000e+01
2.500000e+01
3.750000e+01
5.000000e+01
6.250000e+01
7.500000e+01
8.750000e+01
1.000000e+02
1.125000e+02
1.250000e+02
1.375000e+02
1.500000e+02
1.625000e+02
1.750000e+02
1.875000e+02
2.000000e+02
0.000000e+00
1.250000e+01
2.500000e+01
3.750000e+01
5.000000e+01
6.250000e+01
7.500000e+01
8.750000e+01
1.000000e+02
1.125000e+02
1.250000e+02
1.375000e+02
1.500000e+02
1.625000e+02
1.750000e+02
1.875000e+02
2.000000e+02
0.000000e+00
1.250000e+01
2.500000e+01
3.750000e+01
5.000000e+01
6.250000e+01
7.500000e+01
8.750000e+01
1.000000e+02
1.125000e+02
1.250000e+02
1.375000e+02
1.500000e+02
1.625000e+02
1.750000e+02
1.875000e+02
2.000000e+02
0.000000e+00
1.250000e+01
2.500000e+01
3.750000e+01
5.000000e+01
6.250000e+01
7.500000e+01
8.750000e+01
1.000000e+02
1.125000e+02
1.250000e+02
1.375000e+02
1.500000e+02
1.625000e+02
1.750000e+02
1.875000e+02
2.000000e+02
0.000000e+00
1.250000e+01
2.500000e+01
3.750000e+01
5.000000e+01
6.250000e+01
7.500000e+01
8.750000e+01
1.000000e+02
1.125000e+02
1.250000e+02
1.375000e+02
1.500000e+02
1.625000e+02
1.750000e+02
1.875000e+02
2.000000e+02
0.000000e+00
1.250000e+01
2.500000e+01
3.750000e+01
5.000000e+01
6.250000e+01
7.500000e+01
8.750000e+01
1.000000e+02
1.125000e+02
1.250000e+02
1.375000e+02
1.500000e+02
1.625000e+02
1.750000e+02
1.875000e+02
2.000000e+02
0.000000e+00
0.000000e+00
0.000000e+00
0.000000e+00
0.000000e+00
0.000000e+00
0.000000e+00
0.000000e+00
0.000000e+00
0.000000e+00
0.000000e+00
0.000000e+00
0.000000e+00
0.000000e+00
0.000000e+00
0.000000e+00
0.000000e+00
1.250000e+01
1.250000e+01
1.250000e+01
1.250000e+01
1.250000e+01
1.250000e+01
1.250000e+01
1.250000e+01
1.250000e+01
1.250000e+01
1.250000e+01
1.250000e+01
1.250000e+01
1.250000e+01
1.250000e+01
1.250000e+01
1.250000e+01
2.500000e+01
2.500000e+01
2.500000e+01
2.500000e+01
2.500000e+01
2.500000e+01
2.500000e+01
2.500000e+01
2.500000e+01
2.500000e+01
2.500000e+01
2.500000e+01
2.500000e+01
2.500000e+01
2.500000e+01
2.500000e+01
2.500000e+01
3.750000e+01
3.750000e+01
3.750000e+01
3.750000e+01
3.750000e+01
3.750000e+01
3.750000e+01
3.750000e+01
3.750000e+01
3.750000e+01
3.750000e+01
3.750000e+01
3.750000e+01
3.750000e+01
3.750000e+01
3.750000e+01
3.750000e+01
5.000000e+01
5.000000e+01
5.000000e+01
5.000000e+01
5.000000e+01
5.000000e+01
5.000000e+01
5.000000e+01
5.000000e+01
5.000000e+01
5.000000e+01
5.000000e+01
5.000000e+01
5.000000e+01
5.000000e+01
5.000000e+01
5.000000e+01
6.250000e+01
6.250000e+01
6.250000e+01
6.250000e+01
6.250000e+01
6.250000e+01
6.250000e+01
6.250000e+01
6.250000e+01
6.250000e+01
6.250000e+01
6.250000e+01
6.250000e+01
6.250000e+01
6.250000e+01
6.250000e+01
6.250000e+01
7.500000e+01
7.500000e+01
7.500000e+01
7.500000e+01
7.500000e+01
7.500000e+01
7.500000e+01
7.500000e+01
7.500000e+01
7.500000e+01
7.500000e+01
7.500000e+01
7.500000e+01
7.500000e+01
7.500000e+01
7.500000e+01
7.500000e+01
8.750000e+01
8.750000e+01
8.750000e+01
8.750000e+01
8.750000e+01
8.750000e+01
8.750000e+01
8.750000e+01
8.750000e+01
8.750000e+01
8.750000e+01
8.750000e+01
8.750000e+01
8.750000e+01
8.750000e+01
8.750000e+01
8.750000e+01
1.000000e+02
1.000000e+02
1.000000e+02
1.000000e+02
1.000000e+02
1.000000e+02
1.000000e+02
1.000000e+02
1.000000e+02
1.000000e+02
1.000000e+02
1.000000e+02
1.000000e+02
1.000000e+02
1.000000e+02
1.000000e+02
1.000000e+02
0.000000e+00
-8.583335e-01
-1.540183e+00
-2.210365e+00
-2.891954e+00
-3.553101e+00
-4.211469e+00
-4.871148e+00
-5.526064e+00
-6.178030e+00
-6.825914e+00
-7.460130e+00
-8.073476e+00
-8.673397e+00
-9.277577e+00
-9.908067e+00
-1.033794e+01
0.000000e+00
-4.591267e-01
-9.534855e-01
-1.448795e+00
-1.958976e+00
-2.454134e+00
-2.946284e+00
-3.439183e+00
-3.927673e+00
-4.411776e+00
-4.888586e+00
-5.346043e+00
-5.766884e+00
-6.126613e+00
-6.371112e+00
-6.427024e+00
-6.573612e+00
0.000000e+00
-2.453478e-01
-5.215447e-01
-8.397674e-01
-1.175859e+00
-1.508224e+00
-1.841284e+00
-2.173557e+00
-2.500419e+00
-2.818350e+00
-3.119431e+00
-3.388424e+00
-3.603485e+00
-3.735355e+00
-3.755047e+00
-3.723988e+00
-3.874961e+00
0.000000e+00
-1.062629e-01
-2.295322e-01
-3.796780e-01
-5.425945e-01
-7.101030e-01
-8.788281e-01
-1.045125e+00
-1.205210e+00
-1.353628e+00
-1.481415e+00
-1.575807e+00
-1.622058e+00
-1.610324e+00
-1.561929e+00
-1.567494e+00
-1.691216e+00
0.000000e+00
-7.174087e-04
-1.449178e-03
-2.052229e-03
-2.261009e-03
-1.597885e-03
7.660057e-04
6.192944e-03
1.694520e-02
3.668723e-02
7.062119e-02
1.244107e-01
2.005450e-01
2.893681e-01
3.553396e-01
3.497886e-01
2.595219e-01
0.000000e+00
1.050376e-01
2.270322e-01
3.760359e-01
5.383684e-01
7.066384e-01
8.787856e-01
1.053403e+00
1.230423e+00
1.410173e+00
1.591767e+00
1.771767e+00
1.941852e+00
2.084475e+00
2.172549e+00
2.184516e+00
2.136196e+00
0.000000e+00
2.447087e-01
5.201554e-01
8.375250e-01
1.172835e+00
1.504826e+00
1.838256e+00
2.172597e+00
2.505154e+00
2.834285e+00
3.153045e+00
3.447591e+00
3.700767e+00
3.894841e+00
4.014057e+00
4.053920e+00
4.042796e+00
0.000000e+00
4.592181e-01
9.535431e-01
1.448634e+00
1.958407e+00
2.452820e+00
2.943107e+00
3.432563e+00
3.916173e+00
4.390954e+00
4.844192e+00
5.249995e+00
5.581384e+00
5.821305e+00
5.966548e+00
6.028826e+00
6.040390e+00
0.000000e+00
8.589504e-01
1.541583e+00
2.212654e+00
2.895211e+00
3.557132e+00
4.215055e+00
4.872230e+00
5.521724e+00
6.158111e+00
6.759781e+00
7.285599e+00
7.694154e+00
7.961655e+00
8.091797e+00
8.123281e+00
8.122269e+00
0.000000e+00
-5.296182e-01
-1.102816e+00
-1.863662e+00
-2.792414e+00
-3.887800e+00
-5.157542e+00
-6.600734e+00
-8.215896e+00
-1.000325e+01
-1.195960e+01
-1.407833e+01
-1.635587e+01
-1.880129e+01
-2.147538e+01
-2.459222e+01
-2.918406e+01
0.000000e+00
-3.365142e-01
-9.354505e-01
-1.687250e+00
-2.617175e+00
-3.715454e+00
-4.985294e+00
-6.429341e+00
-8.046249e+00
-9.835625e+00
-1.179633e+01
-1.392356e+01
-1.621349e+01
-1.867821e+01
-2.137200e+01
-2.448636e+01
-2.831834e+01
0.000000e+00
-2.790194e-01
-8.259022e-01
-1.569865e+00
-2.495072e+00
-3.593066e+00
-4.863904e+00
-6.309933e+00
-7.930419e+00
-9.725818e+00
-1.169640e+01
-1.383893e+01
-1.615146e+01
-1.864682e+01
-2.135789e+01
-2.429769e+01
-2.708423e+01
0.000000e+00
-2.779412e-01
-7.861449e-01
-1.509598e+00
-2.425957e+00
-3.521508e+00
-4.793842e+00
-6.243303e+00
-7.870027e+00
-9.675599e+00
-1.166062e+01
-1.382146e+01
-1.615297e+01
-1.865310e+01
-2.130040e+01
-2.396169e+01
-2.631509e+01
0.000000e+00
-2.824592e-01
-7.794441e-01
-1.493479e+00
-2.405215e+00
-3.500360e+00
-4.774953e+00
-6.228503e+00
-7.862008e+00
-9.677868e+00
-1.167610e+01
-1.384976e+01
-1.618375e+01
-1.865116e+01
-2.118534e+01
-2.364184e+01
-2.578972e+01
0.000000e+00
-2.778031e-01
-7.864151e-01
-1.510884e+00
-2.429135e+00
-3.527895e+00
-4.805193e+00
-6.262038e+00
-7.900010e+00
-9.722194e+00
-1.172785e+01
-1.390482e+01
-1.622553e+01
-1.864214e+01
-2.107453e+01
-2.340217e+01
-2.547078e+01
0.000000e+00
-2.787673e-01
-8.262926e-01
-1.571862e+00
-2.500120e+00
-3.603334e+00
-4.882345e+00
-6.340672e+00
-7.980011e+00
-9.803507e+00
-1.180945e+01
-1.398070e+01
-1.627977e+01
-1.864780e+01
-2.100482e+01
-2.325943e+01
-2.532628e+01
0.000000e+00
-3.362619e-01
-9.358610e-01
-1.689424e+00
-2.622771e+00
-3.726872e+00
-5.005887e+00
-6.463983e+00
-8.102469e+00
-9.923468e+00
-1.192296e+01
-1.408012e+01
-1.635324e+01
-1.868072e+01
-2.098665e+01
-2.319939e+01
-2.529289e+01
0.000000e+00
-5.295269e-01
-1.103363e+00
-1.866000e+00
-2.798212e+00
-3.899346e+00
-5.178023e+00
-6.635095e+00
-8.271292e+00
-1.008722e+01
-1.207393e+01
-1.420725e+01
-1.644642e+01
-1.873402e+01
-2.100122e+01
-2.318822e+01
-2.529381e+01


0.000000e+00
1.188931e-05
2.229123e-05
3.271959e-05
4.457579e-05
5.611460e-05
6.681806e-05
7.707542e-05
8.676793e-05
9.533509e-05
1.021638e-04
1.070070e-04
1.102545e-04
1.127011e-04
1.148816e-04
1.176307e-04
1.209687e-04
0.000000e+00
8.763943e-06
1.799109e-05
2.578875e-05
3.498471e-05
4.389979e-05
5.185646e-05
5.946234e-05
6.670017e-05
7.294913e-05
7.763484e-05
8.056522e-05
8.197766e-05
8.223927e-05
8.240961e-05
8.464274e-05
8.840617e-05
0.000000e+00
6.723554e-06
1.303874e-05
1.841852e-05
2.461939e-05
3.045483e-05
3.568155e-05
4.060761e-05
4.512710e-05
4.886691e-05
5.153111e-05
5.303211e-05
5.352485e-05
5.342437e-05
5.364195e-05
5.570971e-05
5.923613e-05
0.000000e+00
3.389253e-06
6.130554e-06
9.295156e-06
1.228494e-05
1.505575e-05
1.768144e-05
2.007734e-05
2.213515e-05
2.377872e-05
2.492357e-05
2.555656e-05
2.582711e-05
2.607086e-05
2.666124e-05
2.809259e-05
3.034429e-05
0.000000e+00
-1.226633e-08
-2.543467e-08
-3.819874e-08
-5.036131e-08
-6.307028e-08
-7.807058e-08
-1.060419e-07
-1.729579e-07
-3.064897e-07
-4.957720e-07
-6.719402e-07
-7.120462e-07
-4.828629e-07
-5.367516e-08
5.069164e-07
1.496211e-06
0.000000e+00
-3.411450e-06
-6.174472e-06
-9.361913e-06
-1.237484e-05
-1.516538e-05
-1.780576e-05
-2.022280e-05
-2.234759e-05
-2.413218e-05
-2.550040e-05
-2.639349e-05
-2.682207e-05
-2.690758e-05
-2.690188e-05
-2.688593e-05
-2.658472e-05
0.000000e+00
-6.735292e-06
-1.306364e-05
-1.846368e-05
-2.469158e-05
-3.054313e-05
-3.577452e-05
-4.071247e-05
-4.520219e-05
-4.877982e-05
-5.120226e-05
-5.260842e-05
-5.333599e-05
-5.371004e-05
-5.395533e-05
-5.410656e-05
-5.405413e-05
0.000000e+00
-8.764386e-06
-1.799162e-05
-2.579706e-05
-3.501162e-05
-4.393037e-05
-5.188163e-05
-5.952033e-05
-6.672440e-05
-7.260460e-05
-7.657713e-05
-7.887251e-05
-8.013276e-05
-8.085438e-05
-8.128620e-05
-8.150502e-05
-8.154335e-05
0.000000e+00
-1.188743e-05
-2.227540e-05
-3.268827e-05
-4.453135e-05
-5.604169e-05
-6.670709e-05
-7.695840e-05
-8.659646e-05
-9.477358e-05
-1.007911e-04
-1.046929e-04
-1.070274e-04
-1.083440e-04
-1.090074e-04
-1.092458e-04
-1.092816e-04
0.000000e+00
1.024075e-05
1.729530e-05
2.650318e-05
3.879817e-05
5.313561e-05
7.009913e-05
8.998109e-05
1.122466e-04
1.363049e-04
1.617309e-04
1.882953e-04
2.160159e-04
2.454185e-04
2.789455e-04
3.179489e-04
3.576627e-04
0.000000e+00
5.488524e-06
1.297745e-05
2.160179e-05
3.347200e-05
4.813208e-05
6.544702e-05
8.552656e-05
1.081701e-04
1.329407e-04
1.593193e-04
1.868272e-04
2.152408e-04
2.448485e-04
2.766304e-04
3.132199e-04
3.517746e-04
0.000000e+00
2.488578e-06
9.285942e-06
1.798023e-05
2.957404e-05
4.447976e-05
6.214517e-05
8.244926e-05
1.054108e-04
1.307150e-04
1.577706e-04
1.859643e-04
2.149216e-04
2.443421e-04
2.739159e-04
3.073814e-04
3.438979e-04
0.000000e+00
1.450975e-06
7.474246e-06
1.629308e-05
2.799638e-05
4.294211e-05
6.074063e-05
8.123224e-05
1.043758e-04
1.298727e-04
1.571515e-04
1.855826e-04
2.146533e-04
2.437829e-04
2.721507e-04
3.029658e-04
3.367976e-04
0.000000e+00
1.225028e-06
6.938412e-06
1.572246e-05
2.756283e-05
4.248232e-05
6.030830e-05
8.089672e-05
1.041405e-04
1.297178e-04
1.570512e-04
1.854875e-04
2.144493e-04
2.433531e-04
2.716739e-04
3.010447e-04
3.320204e-04
0.000000e+00
1.453536e-06
7.471543e-06
1.627855e-05
2.796958e-05
4.290232e-05
6.069069e-05
8.121435e-05
1.044732e-04
1.301179e-04
1.574617e-04
1.857916e-04
2.145475e-04
2.432709e-04
2.717659e-04
3.005330e-04
3.295015e-04
0.000000e+00
2.492855e-06
9.282385e-06
1.795923e-05
2.953409e-05
4.441763e-05
6.206328e-05
8.242254e-05
1.055863e-04
1.311581e-04
1.583552e-04
1.864351e-04
2.149052e-04
2.434452e-04
2.718984e-04
3.003243e-04
3.284286e-04
0.000000e+00
5.494308e-06
1.297820e-05
2.158851e-05
3.343835e-05
4.806958e-05
6.536854e-05
8.551112e-05
1.083366e-04
1.333278e-04
1.598394e-04
1.873208e-04
2.153726e-04
2.436751e-04
2.720028e-04
3.002128e-04
3.281096e-04
0.000000e+00
1.024732e-05
1.729833e-05
2.649855e-05
3.877445e-05
5.307690e-05
7.003387e-05
8.998443e-05
1.123391e-04
1.364145e-04
1.618399e-04
1.884436e-04
2.159486e-04
2.439534e-04
2.721169e-04
3.002004e-04
3.280690e-04


2.312365e+00
2.223344e+00
2.351731e+00
2.532037e+00
2.669411e+00
2.932814e+00
3.260213e+00
3.636095e+00
4.109034e+00
4.644851e+00
5.138323e+00
5.497955e+00
5.645104e+00
5.377147e+00
4.671668e+00
4.085257e+00
3.334396e+00
3.246805e+00
3.310311e+00
3.419206e+00
3.502789e+00
3.687405e+00
3.922444e+00
4.194781e+00
4.544957e+00
4.948924e+00
5.324541e+00
5.595471e+00
5.678676e+00
5.352964e+00
4.618654e+00
4.009066e+00
4.741634e+00
4.684554e+00
4.694703e+00
4.718134e+00
4.736601e+00
4.814804e+00
4.914738e+00
5.032779e+00
5.194803e+00
5.391311e+00
5.579223e+00
5.713886e+00
5.730377e+00
5.441154e+00
4.836399e+00
4.363357e+00
5.564692e+00
5.533945e+00
5.520106e+00
5.498888e+00
5.491766e+00
5.505580e+00
5.522289e+00
5.543388e+00
5.581687e+00
5.637871e+00
5.698693e+00
5.747924e+00
5.751575e+00
5.600831e+00
5.284167e+00
5.036438e+00
5.564675e+00
5.533763e+00
5.519551e+00
5.497749e+00
5.489564e+00
5.500886e+00
5.513151e+00
5.528919e+00
5.561887e+00
5.612101e+00
5.667741e+00
5.720065e+00
5.756831e+00
5.733448e+00
5.638254e+00
5.558267e+00
4.741347e+00
4.683756e+00
4.692788e+00
4.714797e+00
4.730887e+00
4.803577e+00
4.895792e+00
5.009801e+00
5.172017e+00
5.363821e+00
5.539737e+00
5.675084e+00
5.770496e+00
5.822746e+00
5.833454e+00
5.829063e+00
3.333492e+00
3.245166e+00
3.307254e+00
3.414885e+00
3.496941e+00
3.678150e+00
3.913798e+00
4.203442e+00
4.583588e+00
5.003585e+00
5.366970e+00
5.624113e+00
5.784954e+00
5.877541e+00
5.924298e+00
5.942247e+00
2.310950e+00
2.221253e+00
2.348388e+00
2.528190e+00
2.665965e+00
2.930134e+00
3.268421e+00
3.682338e+00
4.211948e+00
4.782665e+00
5.265833e+00
5.598409e+00
5.796684e+00
5.905015e+00
5.959084e+00
5.981179e+00


-5.282576e-01
-2.220343e-01
-1.911478e-01
-2.450104e-01
-1.751305e-01
-1.647341e-01
-1.702457e-01
-1.537366e-01
-1.401585e-01
-1.167465e-01
-4.889888e-02
6.502644e-02
2.043480e-01
3.782473e-01
5.792483e-01
-5.326896e-01
5.271136e-01
4.015896e-01
3.485987e-01
2.977552e-01
3.202489e-01
3.152513e-01
3.046367e-01
3.091162e-01
3.210485e-01
3.544225e-01
4.346658e-01
5.672644e-01
7.336850e-01
8.805707e-01
7.570228e-01
-1.279240e+00
8.297963e-01
7.173685e-01
6.169969e-01
5.702052e-01
5.594746e-01
5.455437e-01
5.355163e-01
5.344863e-01
5.416159e-01
5.640760e-01
6.090325e-01
6.642184e-01
6.823002e-01
5.786502e-01
2.641550e-01
-2.897912e-01
9.104338e-01
8.129009e-01
7.136165e-01
6.572241e-01
6.332768e-01
6.210286e-01
6.128618e-01
6.050132e-01
5.927513e-01
5.733681e-01
5.440404e-01
4.917884e-01
3.917790e-01
2.564067e-01
2.066878e-01
2.341694e-01
9.110218e-01
8.135633e-01
7.140597e-01
6.564864e-01
6.298281e-01
6.126099e-01
5.958076e-01
5.730260e-01
5.361044e-01
4.804428e-01
4.077652e-01
3.249363e-01
2.534067e-01
2.572007e-01
4.020677e-01
6.350496e-01
8.311934e-01
7.190114e-01
6.183679e-01
5.695470e-01
5.538814e-01
5.305751e-01
5.032229e-01
4.709668e-01
4.260940e-01
3.722056e-01
3.236275e-01
3.005245e-01
3.341126e-01
4.591017e-01
6.654806e-01
8.805216e-01
5.281340e-01
4.029113e-01
3.500190e-01
2.984791e-01
3.188626e-01
3.102928e-01
2.912908e-01
2.770767e-01
2.595562e-01
2.583817e-01
3.025162e-01
3.972323e-01
5.342695e-01
7.045345e-01
8.726131e-01
9.790996e-01
-5.295068e-01
-2.235249e-01
-1.925200e-01
-2.463408e-01
-1.756321e-01
-1.612509e-01
-1.609969e-01
-1.387992e-01
-1.022141e-01
-4.293457e-03
1.999399e-01
4.723268e-01
7.261476e-01
8.987512e-01
9.801905e-01
9.996077e-01
1 2 19 18
2 3 20 19
3 4 21 20
4 5 22 21
5 6 23 22
6 7 24 23
7 8 25 24
8 9 26 25
9 10 27 26
10 11 28 27
11 12 29 28
12 13 30 29
13 14 31 30
14 15 32 31
15 16 33 32
16 17 34 33
18 19 36 35
19 20 37 36
20 21 38 37
21 22 39 38
22 23 40 39
23 24 41 40
24 25 42 41
25 26 43 42
26 27 44 43
27 28 45 44
28 29 46 45
29 30 47 46
30 31 48 47
31 32 49 48
32 33 50 49
33 34 51 50
35 36 53 52
36 37 54 53
37 38 55 54
38 39 56 55
39 40 57 56
40 41 58 57
41 42 59 58
42 43 60 59
43 44 61 60
44 45 62 61
45 46 63 62
46 47 64 63
47 48 65 64
48 49 66 65
49 50 67 66
50 51 68 67
52 53 70 69
53 54 71 70
54 55 72 71
55 56 73 72
56 57 74 73
57 58 75 74
58 59 76 75
59 60 77 76
60 61 78 77
61 62 79 78
62 63 80 79
63 64 81 80
64 65 82 81
65 66 83 82
66 67 84 83
67 68 85 84
69 70 87 86
70 71 88 87
71 72 89 88
72 73 90 89
73 74 91 90
74 75 92 91
75 76 93 92
76 77 94 93
77 78 95 94
78 79 96 95
79 80 97 96
80 81 98 97
81 82 99 98
82 83 100 99
83 84 101 100
84 85 102 101
86 87 104 103
87 88 105 104
88 89 106 105
89 90 107 106
90 91 108 107
91 92 109 108
92 93 110 109
93 94 111 110
94 95 112 111
95 96 113 112
96 97 114 113
97 98 115 114
98 99 116 115
99 100 117 116
100 101 118 117
101 102 119 118
103 104 121 120
104 105 122 121
105 106 123 122
106 107 124 123
107 108 125 124
108 109 126 125
109 110 127 126
110 111 128 127
111 112 129 128
112 113 130 129
113 114 131 130
114 115 132 131
115 116 133 132
116 117 134 133
117 118 135 134
118 119 136 135
120 121 138 137
121 122 139 138
122 123 140 139
123 124 141 140
124 125 142 141
125 126 143 142
126 127 144 143
127 128 145 144
128 129 146 145
129 130 147 146
130 131 148 147
131 132 149 148
132 133 150 149
133 134 151 150
134 135 152 151
135 136 153 152
