TITLE = "Solution"
VARIABLES = x, y, u, v, psiu, psiv, t, stress
ZONE T="structure" N=153 E=128 F=FEBLOCK ET=QUADRILATERAL VARLOCATION=([7,8]=cellcentered)
0.000000e+00
1.250000e+01
2.500000e+01
3.750000e+01
5.000000e+01
6.250000e+01
7.500000e+01
8.750000e+01
1.000000e+02
1.125000e+02
1.250000e+02
1.375000e+02
1.500000e+02
1.625000e+02
1.750000e+02
1.875000e+02
2.000000e+02
0.000000e+00
1.250000e+01
2.500000e+01
3.750000e+01
5.000000e+01
6.250000e+01
7.500000e+01
8.750000e+01
1.000000e+02
1.125000e+02
1.250000e+02
1.375000e+02
1.500000e+02
1.625000e+02
1.750000e+02
1.875000e+02
2.000000e+02
0.000000e+00
1.250000e+01
2.500000e+01
3.750000e+01
5.000000e+01
6.250000e+01
7.500000e+01
8.750000e+01
1.000000e+02
1.125000e+02
1.250000e+02
1.375000e+02
1.500000e+02
1.625000e+02
1.750000e+02
1.875000e+02
2.000000e+02
0.000000e+00
1.250000e+01
2.500000e+01
3.750000e+01
5.000000e+01
6.250000e+01
7.500000e+01
8.750000e+01
1.000000e+02
1.125000e+02
1.250000e+02
1.375000e+02
1.500000e+02
1.625000e+02
1.750000e+02
1.875000e+02
2.000000e+02
0.000000e+00
1.250000e+01
2.500000e+01
3.750000e+01
5.000000e+01
6.250000e+01
7.500000e+01
8.750000e+01
1.000000e+02
1.125000e+02
1.250000e+02
1.375000e+02
1.500000e+02
1.625000e+02
1.750000e+02
1.875000e+02
2.000000e+02
0.000000e+00
1.250000e+01
2.500000e+01
3.750000e+01
5.000000e+01
6.250000e+01
7.500000e+01
8.750000e+01
1.000000e+02
1.125000e+02
1.250000e+02
1.375000e+02
1.500000e+02
1.625000e+02
1.750000e+02
1.875000e+02
2.000000e+02
0.000000e+00
1.250000e+01
2.500000e+01
3.750000e+01
5.000000e+01
6.250000e+01
7.500000e+01
8.750000e+01
1.000000e+02
1.125000e+02
1.250000e+02
1.375000e+02
1.500000e+02
1.625000e+02
1.750000e+02
1.875000e+02
2.000000e+02
0.000000e+00
1.250000e+01
2.500000e+01
3.750000e+01
5.000000e+01
6.250000e+01
7.500000e+01
8.750000e+01
1.000000e+02
1.125000e+02
1.250000e+02
1.375000e+02
1.500000e+02
1.625000e+02
1.750000e+02
1.875000e+02
2.000000e+02
0.000000e+00
1.250000e+01
2.500000e+01
3.750000e+01
5.000000e+01
6.250000e+01
7.500000e+01
8.750000e+01
1.000000e+02
1.125000e+02
1.250000e+02
1.375000e+02
1.500000e+02
1.625000e+02
1.750000e+02
1.875000e+02
2.000000e+02
0.000000e+00
0.000000e+00
0.000000e+00
0.000000e+00
0.000000e+00
0.000000e+00
0.000000e+00
0.000000e+00
0.000000e+00
0.000000e+00
0.000000e+00
0.000000e+00
0.000000e+00
0.000000e+00
0.000000e+00
0.000000e+00
0.000000e+00
1.250000e+01
1.250000e+01
1.250000e+01
1.250000e+01
1.250000e+01
1.250000e+01
1.250000e+01
1.250000e+01
1.250000e+01
1.250000e+01
1.250000e+01
1.250000e+01
1.250000e+01
1.250000e+01
1.250000e+01
1.250000e+01
1.250000e+01
2.500000e+01
2.500000e+01
2.500000e+01
2.500000e+01
2.500000e+01
2.500000e+01
2.500000e+01
2.500000e+01
2.500000e+01
2.500000e+01
2.500000e+01
2.500000e+01
2.500000e+01
2.500000e+01
2.500000e+01
2.500000e+01
2.500000e+01
3.750000e+01
3.750000e+01
3.750000e+01
3.750000e+01
3.750000e+01
3.750000e+01
3.750000e+01
3.750000e+01
3.750000e+01
3.750000e+01
3.750000e+01
3.750000e+01
3.750000e+01
3.750000e+01
3.750000e+01
3.750000e+01
3.750000e+01
5.000000e+01
5.000000e+01
5.000000e+01
5.000000e+01
5.000000e+01
5.000000e+01
5.000000e+01
5.000000e+01
5.000000e+01
5.000000e+01
5.000000e+01
5.000000e+01
5.000000e+01
5.000000e+01
5.000000e+01
5.000000e+01
5.000000e+01
6.250000e+01
6.250000e+01
6.250000e+01
6.250000e+01
6.250000e+01
6.250000e+01
6.250000e+01
6.250000e+01
6.250000e+01
6.250000e+01
6.250000e+01
6.250000e+01
6.250000e+01
6.250000e+01
6.250000e+01
6.250000e+01
6.250000e+01
7.500000e+01
7.500000e+01
7.500000e+01
7.500000e+01
7.500000e+01
7.500000e+01
7.500000e+01
7.500000e+01
7.500000e+01
7.500000e+01
7.500000e+01
7.500000e+01
7.500000e+01
7.500000e+01
7.500000e+01
7.500000e+01
7.500000e+01
8.750000e+01
8.750000e+01
8.750000e+01
8.750000e+01
8.750000e+01
8.750000e+01
8.750000e+01
8.750000e+01
8.750000e+01
8.750000e+01
8.750000e+01
8.750000e+01
8.750000e+01
8.750000e+01
8.750000e+01
8.750000e+01
8.750000e+01
1.000000e+02
1.000000e+02
1.000000e+02
1.000000e+02
1.000000e+02
1.000000e+02
1.000000e+02
1.000000e+02
1.000000e+02
1.000000e+02
1.000000e+02
1.000000e+02
1.000000e+02
1.000000e+02
1.000000e+02
1.000000e+02
1.000000e+02
0.000000e+00
-7.103134e-02
-1.307912e-01
-1.857780e-01
-2.369862e-01
-2.843076e-01
-3.276407e-01
-3.669520e-01
-4.022985e-01
-4.338433e-01
-4.618988e-01
-4.870134e-01
-5.101306e-01
-5.328798e-01
-5.580716e-01
-5.890103e-01
-6.122265e-01
0.000000e+00
-4.241864e-02
-8.811647e-02
-1.303155e-01
-1.691938e-01
-2.048992e-01
-2.375057e-01
-2.670571e-01
-2.936065e-01
-3.172357e-01
-3.380647e-01
-3.562437e-01
-3.718886e-01
-3.848383e-01
-3.939725e-01
-3.959745e-01
-4.031524e-01
0.000000e+00
-2.652740e-02
-5.454697e-02
-8.250065e-02
-1.085946e-01
-1.325524e-01
-1.543548e-01
-1.740264e-01
-1.915720e-01
-2.069624e-01
-2.201147e-01
-2.308452e-01
-2.387714e-01
-2.431960e-01
-2.433188e-01
-2.415513e-01
-2.488721e-01
0.000000e+00
-1.280376e-02
-2.635826e-02
-3.999836e-02
-5.304078e-02
-6.505366e-02
-7.594216e-02
-8.567456e-02
-9.419516e-02
-1.013931e-01
-1.070844e-01
-1.110004e-01
-1.128205e-01
-1.123953e-01
-1.106482e-01
-1.111260e-01
-1.165771e-01
0.000000e+00
-1.179485e-05
-2.681338e-05
-4.178261e-05
-4.972714e-05
-3.509214e-05
3.299676e-05
2.099399e-04
5.866287e-04
1.298452e-03
2.522042e-03
4.434841e-03
7.084797e-03
1.007938e-02
1.214795e-02
1.158061e-02
7.971481e-03
0.000000e+00
1.278561e-02
2.631613e-02
3.993097e-02
5.295695e-02
6.498548e-02
7.596860e-02
8.596005e-02
9.504645e-02
1.033332e-01
1.109286e-01
1.178887e-01
1.240929e-01
1.290679e-01
1.319945e-01
1.322266e-01
1.303947e-01
0.000000e+00
2.652442e-02
5.453789e-02
8.248259e-02
1.085664e-01
1.325173e-01
1.543257e-01
1.740358e-01
1.916886e-01
2.073153e-01
2.209296e-01
2.324982e-01
2.418881e-01
2.488304e-01
2.529973e-01
2.543503e-01
2.539232e-01
0.000000e+00
4.243604e-02
8.815431e-02
1.303759e-01
1.692747e-01
2.049858e-01
2.375543e-01
2.669682e-01
2.931827e-01
3.161220e-01
3.356773e-01
3.517135e-01
3.641022e-01
3.728025e-01
3.779924e-01
3.802056e-01
3.806121e-01
0.000000e+00
7.106044e-02
1.308680e-01
1.859218e-01
2.372159e-01
2.846307e-01
3.280261e-01
3.672761e-01
4.022492e-01
4.327639e-01
4.585554e-01
4.792799e-01
4.945970e-01
5.043863e-01
5.091205e-01
5.102891e-01
5.102665e-01
0.000000e+00
-4.299723e-02
-8.440858e-02
-1.380680e-01
-2.039239e-01
-2.818531e-01
-3.710020e-01
-4.703729e-01
-5.789094e-01
-6.955686e-01
-8.193875e-01
-9.495994e-01
-1.085891e+00
-1.228988e+00
-1.382606e+00
-1.558372e+00
-1.810916e+00
0.000000e+00
-2.646989e-02
-6.966872e-02
-1.239936e-01
-1.909258e-01
-2.699184e-01
-3.601473e-01
-4.605904e-01
-5.701787e-01
-6.878510e-01
-8.126172e-01
-9.436757e-01
-1.080664e+00
-1.224291e+00
-1.377848e+00
-1.552548e+00
-1.766573e+00
0.000000e+00
-1.997388e-02
-5.945032e-02
-1.139757e-01
-1.815407e-01
-2.613464e-01
-3.524046e-01
-4.536835e-01
-5.641213e-01
-6.826717e-01
-8.083641e-01
-9.404243e-01
-1.078524e+00
-1.223255e+00
-1.376944e+00
-1.542478e+00
-1.702680e+00
0.000000e+00
-1.721208e-02
-5.436978e-02
-1.080955e-01
-1.759047e-01
-2.562016e-01
-3.478276e-01
-4.497114e-01
-5.608114e-01
-6.801096e-01
-8.066563e-01
-9.396623e-01
-1.078644e+00
-1.223535e+00
-1.374149e+00
-1.526252e+00
-1.666373e+00
0.000000e+00
-1.641646e-02
-5.283217e-02
-1.062196e-01
-1.740473e-01
-2.545441e-01
-3.464335e-01
-4.486453e-01
-5.601576e-01
-6.799692e-01
-8.071091e-01
-9.406633e-01
-1.079768e+00
-1.223398e+00
-1.369404e+00
-1.512791e+00
-1.644886e+00
0.000000e+00
-1.720186e-02
-5.436251e-02
-1.081084e-01
-1.759683e-01
-2.563691e-01
-3.481857e-01
-4.503897e-01
-5.619809e-01
-6.819529e-01
-8.092722e-01
-9.428326e-01
-1.081342e+00
-1.223038e+00
-1.365199e+00
-1.503670e+00
-1.632945e+00
0.000000e+00
-1.995722e-02
-5.943827e-02
-1.139973e-01
-1.816478e-01
-2.616296e-01
-3.530119e-01
-4.548353e-01
-5.661098e-01
-6.858117e-01
-8.128379e-01
-9.459121e-01
-1.083431e+00
-1.223271e+00
-1.362675e+00
-1.498488e+00
-1.627678e+00
0.000000e+00
-2.645426e-02
-6.965823e-02
-1.240223e-01
-1.910544e-01
-2.702515e-01
-3.608541e-01
-4.619217e-01
-5.724630e-01
-6.914357e-01
-8.176914e-01
-9.498628e-01
-1.086210e+00
-1.224493e+00
-1.362043e+00
-1.496346e+00
-1.626442e+00
0.000000e+00
-4.299078e-02
-8.440948e-02
-1.381124e-01
-2.040730e-01
-2.822090e-01
-3.717253e-01
-4.716926e-01
-5.811095e-01
-6.989153e-01
-8.239338e-01
-9.547678e-01
-1.089665e+00
-1.226435e+00
-1.362580e+00
-1.495954e+00
-1.626461e+00


0.000000e+00
9.778338e-08
1.959282e-07
2.870766e-07
3.725569e-07
4.518864e-07
5.247325e-07
5.910751e-07
6.510479e-07
7.049026e-07
7.529964e-07
7.957267e-07
8.333262e-07
8.654994e-07
8.918328e-07
9.143360e-07
9.343595e-07
0.000000e+00
5.499309e-08
1.338189e-07
2.046984e-07
2.696878e-07
3.295954e-07
3.843669e-07
4.340030e-07
4.785436e-07
5.180209e-07
5.524232e-07
5.816490e-07
6.055502e-07
6.246187e-07
6.420359e-07
6.627089e-07
6.839869e-07
0.000000e+00
3.465057e-08
8.456829e-08
1.314044e-07
1.750672e-07
2.152261e-07
2.517233e-07
2.845151e-07
3.135519e-07
3.387359e-07
3.599231e-07
3.770110e-07
3.902674e-07
4.010531e-07
4.124295e-07
4.278011e-07
4.455621e-07
0.000000e+00
1.692700e-08
4.054123e-08
6.347908e-08
8.531235e-08
1.053705e-07
1.234367e-07
1.394286e-07
1.532523e-07
1.647877e-07
1.739347e-07
1.807475e-07
1.856864e-07
1.899157e-07
1.953647e-07
2.043241e-07
2.166546e-07
0.000000e+00
1.771100e-11
2.192670e-11
-9.370004e-12
-1.062668e-10
-3.167668e-10
-7.112529e-10
-1.383391e-09
-2.441862e-09
-3.983341e-09
-6.033238e-09
-8.446689e-09
-1.079260e-08
-1.228071e-08
-1.169399e-08
-7.476907e-09
6.231543e-10
0.000000e+00
-1.689390e-08
-4.049681e-08
-6.348083e-08
-8.546714e-08
-1.058656e-07
-1.245794e-07
-1.416886e-07
-1.572921e-07
-1.714514e-07
-1.841385e-07
-1.951804e-07
-2.042239e-07
-2.107415e-07
-2.140815e-07
-2.134446e-07
-2.090078e-07
0.000000e+00
-3.462973e-08
-8.453750e-08
-1.313861e-07
-1.751037e-07
-2.153977e-07
-2.521697e-07
-2.854609e-07
-3.153295e-07
-3.417937e-07
-3.647892e-07
-3.841339e-07
-3.995213e-07
-4.105911e-07
-4.171600e-07
-4.193475e-07
-4.180374e-07
0.000000e+00
-5.501402e-08
-1.338605e-07
-2.047361e-07
-2.696810e-07
-3.294746e-07
-3.840179e-07
-4.332495e-07
-4.771306e-07
-5.156055e-07
-5.485867e-07
-5.759439e-07
-5.975072e-07
-6.131334e-07
-6.229604e-07
-6.277919e-07
-6.289591e-07
0.000000e+00
-9.789894e-08
-1.961330e-07
-2.873298e-07
-3.727734e-07
-4.518883e-07
-5.241832e-07
-5.893925e-07
-6.473031e-07
-6.977201e-07
-7.404903e-07
-7.755456e-07
-8.029458e-07
-8.229165e-07
-8.359243e-07
-8.426486e-07
-8.448085e-07
0.000000e+00
8.852165e-08
1.726972e-07
2.671542e-07
3.798111e-07
5.118305e-07
6.623473e-07
8.299710e-07
1.013099e-06
1.210176e-06
1.419868e-06
1.641354e-06
1.875082e-06
2.124411e-06
2.395498e-06
2.683455e-06
2.969149e-06
0.000000e+00
5.355084e-08
1.353623e-07
2.305572e-07
3.454042e-07
4.800744e-07
6.334381e-07
8.039232e-07
9.898861e-07
1.189749e-06
1.402154e-06
1.626218e-06
1.861961e-06
2.110861e-06
2.375351e-06
2.656005e-06
2.937938e-06
0.000000e+00
3.411458e-08
1.054318e-07
2.005198e-07
3.170192e-07
4.539872e-07
6.098284e-07
7.828479e-07
9.713735e-07
1.173820e-06
1.388784e-06
1.615161e-06
1.852194e-06
2.099187e-06
2.355732e-06
2.626137e-06
2.898984e-06
0.000000e+00
2.503305e-08
8.968501e-08
1.830038e-07
3.002649e-07
4.386571e-07
5.961115e-07
7.708255e-07
9.611040e-07
1.165333e-06
1.381993e-06
1.609637e-06
1.846738e-06
2.091387e-06
2.342052e-06
2.602029e-06
2.861286e-06
0.000000e+00
2.242301e-08
8.491020e-08
1.773690e-07
2.948358e-07
4.337984e-07
5.919491e-07
7.674368e-07
9.585449e-07
1.163599e-06
1.380922e-06
1.608746e-06
1.845032e-06
2.087253e-06
2.332922e-06
2.583569e-06
2.829456e-06
0.000000e+00
2.505327e-08
8.976086e-08
1.831914e-07
3.006378e-07
4.393152e-07
5.971796e-07
7.724353e-07
9.633473e-07
1.168166e-06
1.385061e-06
1.612030e-06
1.846739e-06
2.086311e-06
2.327637e-06
2.570494e-06
2.806630e-06
0.000000e+00
3.414720e-08
1.055640e-07
2.008485e-07
3.176731e-07
4.551428e-07
6.117062e-07
7.856806e-07
9.753245e-07
1.178813e-06
1.394191e-06
1.619292e-06
1.851619e-06
2.088172e-06
2.325632e-06
2.562659e-06
2.792724e-06
0.000000e+00
5.359225e-08
1.355299e-07
2.309620e-07
3.462022e-07
4.814775e-07
6.357085e-07
8.073321e-07
9.946096e-07
1.195657e-06
1.408417e-06
1.630607e-06
1.859644e-06
2.092577e-06
2.326352e-06
2.559137e-06
2.786085e-06
0.000000e+00
8.859027e-08
1.728932e-07
2.675909e-07
3.806419e-07
5.132579e-07
6.646108e-07
8.332970e-07
1.017584e-06
1.215556e-06
1.425107e-06
1.643894e-06
1.869310e-06
2.098523e-06
2.328843e-06
2.558563e-06
2.784149e-06


2.075472e-01
2.075472e-01
2.075473e-01
2.075475e-01
2.075478e-01
2.075480e-01
2.075482e-01
2.075483e-01
2.075485e-01
2.075486e-01
2.075487e-01
2.075488e-01
2.075488e-01
2.075488e-01
2.075487e-01
2.075486e-01
2.075476e-01
2.075476e-01
2.075476e-01
2.075478e-01
2.075480e-01
2.075482e-01
2.075483e-01
2.075484e-01
2.075486e-01
2.075487e-01
2.075487e-01
2.075488e-01
2.075488e-01
2.075488e-01
2.075487e-01
2.075486e-01
2.075482e-01
2.075482e-01
2.075482e-01
2.075483e-01
2.075484e-01
2.075485e-01
2.075486e-01
2.075486e-01
2.075487e-01
2.075488e-01
2.075488e-01
2.075489e-01
2.075489e-01
2.075488e-01
2.075487e-01
2.075486e-01
2.075487e-01
2.075486e-01
2.075486e-01
2.075486e-01
2.075487e-01
2.075487e-01
2.075487e-01
2.075488e-01
2.075488e-01
2.075488e-01
2.075488e-01
2.075489e-01
2.075488e-01
2.075488e-01
2.075488e-01
2.075487e-01
2.075487e-01
2.075486e-01
2.075486e-01
2.075486e-01
2.075486e-01
2.075487e-01
2.075487e-01
2.075488e-01
2.075488e-01
2.075488e-01
2.075488e-01
2.075488e-01
2.075488e-01
2.075488e-01
2.075488e-01
2.075488e-01
2.075482e-01
2.075482e-01
2.075482e-01
2.075483e-01
2.075484e-01
2.075485e-01
2.075485e-01
2.075486e-01
2.075487e-01
2.075487e-01
2.075488e-01
2.075488e-01
2.075489e-01
2.075489e-01
2.075489e-01
2.075489e-01
2.075476e-01
2.075476e-01
2.075476e-01
2.075478e-01
2.075480e-01
2.075482e-01
2.075483e-01
2.075484e-01
2.075485e-01
2.075487e-01
2.075487e-01
2.075488e-01
2.075489e-01
2.075489e-01
2.075490e-01
2.075490e-01
2.075472e-01
2.075472e-01
2.075473e-01
2.075475e-01
2.075478e-01
2.075480e-01
2.075482e-01
2.075483e-01
2.075485e-01
2.075486e-01
2.075487e-01
2.075488e-01
2.075489e-01
2.075490e-01
2.075490e-01
2.075490e-01


9.886486e-01
9.902583e-01
9.917474e-01
9.928937e-01
9.939577e-01
9.949388e-01
9.958327e-01
9.966288e-01
9.973188e-01
9.978960e-01
9.983549e-01
9.986910e-01
9.989000e-01
9.989745e-01
9.990283e-01
9.957109e-01
9.957055e-01
9.949679e-01
9.954425e-01
9.960619e-01
9.966394e-01
9.971643e-01
9.976394e-01
9.980698e-01
9.984594e-01
9.988124e-01
9.991327e-01
9.994227e-01
9.996757e-01
9.998413e-01
9.994224e-01
9.937436e-01
9.985079e-01
9.980842e-01
9.979698e-01
9.981307e-01
9.983423e-01
9.985474e-01
9.987377e-01
9.989175e-01
9.990917e-01
9.992616e-01
9.994202e-01
9.995431e-01
9.995687e-01
9.993475e-01
9.985451e-01
9.971020e-01
9.996963e-01
9.993873e-01
9.991964e-01
9.991480e-01
9.991673e-01
9.991998e-01
9.992322e-01
9.992639e-01
9.992949e-01
9.993209e-01
9.993282e-01
9.992895e-01
9.991668e-01
9.989466e-01
9.987599e-01
9.987126e-01
9.996975e-01
9.993889e-01
9.991979e-01
9.991477e-01
9.991625e-01
9.991859e-01
9.992022e-01
9.992076e-01
9.992002e-01
9.991763e-01
9.991317e-01
9.990675e-01
9.990064e-01
9.990185e-01
9.991913e-01
9.994905e-01
9.985100e-01
9.980874e-01
9.979729e-01
9.981307e-01
9.983341e-01
9.985220e-01
9.986809e-01
9.988087e-01
9.989044e-01
9.989688e-01
9.990095e-01
9.990493e-01
9.991330e-01
9.993084e-01
9.995719e-01
9.998443e-01
9.957051e-01
9.949676e-01
9.954418e-01
9.960601e-01
9.966349e-01
9.971539e-01
9.976180e-01
9.980289e-01
9.983870e-01
9.986930e-01
9.989521e-01
9.991784e-01
9.993963e-01
9.996248e-01
9.998384e-01
9.999730e-01
9.886408e-01
9.902462e-01
9.917325e-01
9.928770e-01
9.939427e-01
9.949334e-01
9.958512e-01
9.966939e-01
9.974617e-01
9.981532e-01
9.987601e-01
9.992636e-01
9.996382e-01
9.998693e-01
9.999744e-01
9.999995e-01
1 2 19 18
2 3 20 19
3 4 21 20
4 5 22 21
5 6 23 22
6 7 24 23
7 8 25 24
8 9 26 25
9 10 27 26
10 11 28 27
11 12 29 28
12 13 30 29
13 14 31 30
14 15 32 31
15 16 33 32
16 17 34 33
18 19 36 35
19 20 37 36
20 21 38 37
21 22 39 38
22 23 40 39
23 24 41 40
24 25 42 41
25 26 43 42
26 27 44 43
27 28 45 44
28 29 46 45
29 30 47 46
30 31 48 47
31 32 49 48
32 33 50 49
33 34 51 50
35 36 53 52
36 37 54 53
37 38 55 54
38 39 56 55
39 40 57 56
40 41 58 57
41 42 59 58
42 43 60 59
43 44 61 60
44 45 62 61
45 46 63 62
46 47 64 63
47 48 65 64
48 49 66 65
49 50 67 66
50 51 68 67
52 53 70 69
53 54 71 70
54 55 72 71
55 56 73 72
56 57 74 73
57 58 75 74
58 59 76 75
59 60 77 76
60 61 78 77
61 62 79 78
62 63 80 79
63 64 81 80
64 65 82 81
65 66 83 82
66 67 84 83
67 68 85 84
69 70 87 86
70 71 88 87
71 72 89 88
72 73 90 89
73 74 91 90
74 75 92 91
75 76 93 92
76 77 94 93
77 78 95 94
78 79 96 95
79 80 97 96
80 81 98 97
81 82 99 98
82 83 100 99
83 84 101 100
84 85 102 101
86 87 104 103
87 88 105 104
88 89 106 105
89 90 107 106
90 91 108 107
91 92 109 108
92 93 110 109
93 94 111 110
94 95 112 111
95 96 113 112
96 97 114 113
97 98 115 114
98 99 116 115
99 100 117 116
100 101 118 117
101 102 119 118
103 104 121 120
104 105 122 121
105 106 123 122
106 107 124 123
107 108 125 124
108 109 126 125
109 110 127 126
110 111 128 127
111 112 129 128
112 113 130 129
113 114 131 130
114 115 132 131
115 116 133 132
116 117 134 133
117 118 135 134
118 119 136 135
120 121 138 137
121 122 139 138
122 123 140 139
123 124 141 140
124 125 142 141
125 126 143 142
126 127 144 143
127 128 145 144
128 129 146 145
129 130 147 146
130 131 148 147
131 132 149 148
132 133 150 149
133 134 151 150
134 135 152 151
135 136 153 152
