TITLE = "Solution"
VARIABLES = x, y, u, v, psiu, psiv, t, stress
ZONE T="structure" N=153 E=128 F=FEBLOCK ET=QUADRILATERAL VARLOCATION=([7,8]=cellcentered)
0.000000e+00
1.250000e+01
2.500000e+01
3.750000e+01
5.000000e+01
6.250000e+01
7.500000e+01
8.750000e+01
1.000000e+02
1.125000e+02
1.250000e+02
1.375000e+02
1.500000e+02
1.625000e+02
1.750000e+02
1.875000e+02
2.000000e+02
0.000000e+00
1.250000e+01
2.500000e+01
3.750000e+01
5.000000e+01
6.250000e+01
7.500000e+01
8.750000e+01
1.000000e+02
1.125000e+02
1.250000e+02
1.375000e+02
1.500000e+02
1.625000e+02
1.750000e+02
1.875000e+02
2.000000e+02
0.000000e+00
1.250000e+01
2.500000e+01
3.750000e+01
5.000000e+01
6.250000e+01
7.500000e+01
8.750000e+01
1.000000e+02
1.125000e+02
1.250000e+02
1.375000e+02
1.500000e+02
1.625000e+02
1.750000e+02
1.875000e+02
2.000000e+02
0.000000e+00
1.250000e+01
2.500000e+01
3.750000e+01
5.000000e+01
6.250000e+01
7.500000e+01
8.750000e+01
1.000000e+02
1.125000e+02
1.250000e+02
1.375000e+02
1.500000e+02
1.625000e+02
1.750000e+02
1.875000e+02
2.000000e+02
0.000000e+00
1.250000e+01
2.500000e+01
3.750000e+01
5.000000e+01
6.250000e+01
7.500000e+01
8.750000e+01
1.000000e+02
1.125000e+02
1.250000e+02
1.375000e+02
1.500000e+02
1.625000e+02
1.750000e+02
1.875000e+02
2.000000e+02
0.000000e+00
1.250000e+01
2.500000e+01
3.750000e+01
5.000000e+01
6.250000e+01
7.500000e+01
8.750000e+01
1.000000e+02
1.125000e+02
1.250000e+02
1.375000e+02
1.500000e+02
1.625000e+02
1.750000e+02
1.875000e+02
2.000000e+02
0.000000e+00
1.250000e+01
2.500000e+01
3.750000e+01
5.000000e+01
6.250000e+01
7.500000e+01
8.750000e+01
1.000000e+02
1.125000e+02
1.250000e+02
1.375000e+02
1.500000e+02
1.625000e+02
1.750000e+02
1.875000e+02
2.000000e+02
0.000000e+00
1.250000e+01
2.500000e+01
3.750000e+01
5.000000e+01
6.250000e+01
7.500000e+01
8.750000e+01
1.000000e+02
1.125000e+02
1.250000e+02
1.375000e+02
1.500000e+02
1.625000e+02
1.750000e+02
1.875000e+02
2.000000e+02
0.000000e+00
1.250000e+01
2.500000e+01
3.750000e+01
5.000000e+01
6.250000e+01
7.500000e+01
8.750000e+01
1.000000e+02
1.125000e+02
1.250000e+02
1.375000e+02
1.500000e+02
1.625000e+02
1.750000e+02
1.875000e+02
2.000000e+02
0.000000e+00
0.000000e+00
0.000000e+00
0.000000e+00
0.000000e+00
0.000000e+00
0.000000e+00
0.000000e+00
0.000000e+00
0.000000e+00
0.000000e+00
0.000000e+00
0.000000e+00
0.000000e+00
0.000000e+00
0.000000e+00
0.000000e+00
1.250000e+01
1.250000e+01
1.250000e+01
1.250000e+01
1.250000e+01
1.250000e+01
1.250000e+01
1.250000e+01
1.250000e+01
1.250000e+01
1.250000e+01
1.250000e+01
1.250000e+01
1.250000e+01
1.250000e+01
1.250000e+01
1.250000e+01
2.500000e+01
2.500000e+01
2.500000e+01
2.500000e+01
2.500000e+01
2.500000e+01
2.500000e+01
2.500000e+01
2.500000e+01
2.500000e+01
2.500000e+01
2.500000e+01
2.500000e+01
2.500000e+01
2.500000e+01
2.500000e+01
2.500000e+01
3.750000e+01
3.750000e+01
3.750000e+01
3.750000e+01
3.750000e+01
3.750000e+01
3.750000e+01
3.750000e+01
3.750000e+01
3.750000e+01
3.750000e+01
3.750000e+01
3.750000e+01
3.750000e+01
3.750000e+01
3.750000e+01
3.750000e+01
5.000000e+01
5.000000e+01
5.000000e+01
5.000000e+01
5.000000e+01
5.000000e+01
5.000000e+01
5.000000e+01
5.000000e+01
5.000000e+01
5.000000e+01
5.000000e+01
5.000000e+01
5.000000e+01
5.000000e+01
5.000000e+01
5.000000e+01
6.250000e+01
6.250000e+01
6.250000e+01
6.250000e+01
6.250000e+01
6.250000e+01
6.250000e+01
6.250000e+01
6.250000e+01
6.250000e+01
6.250000e+01
6.250000e+01
6.250000e+01
6.250000e+01
6.250000e+01
6.250000e+01
6.250000e+01
7.500000e+01
7.500000e+01
7.500000e+01
7.500000e+01
7.500000e+01
7.500000e+01
7.500000e+01
7.500000e+01
7.500000e+01
7.500000e+01
7.500000e+01
7.500000e+01
7.500000e+01
7.500000e+01
7.500000e+01
7.500000e+01
7.500000e+01
8.750000e+01
8.750000e+01
8.750000e+01
8.750000e+01
8.750000e+01
8.750000e+01
8.750000e+01
8.750000e+01
8.750000e+01
8.750000e+01
8.750000e+01
8.750000e+01
8.750000e+01
8.750000e+01
8.750000e+01
8.750000e+01
8.750000e+01
1.000000e+02
1.000000e+02
1.000000e+02
1.000000e+02
1.000000e+02
1.000000e+02
1.000000e+02
1.000000e+02
1.000000e+02
1.000000e+02
1.000000e+02
1.000000e+02
1.000000e+02
1.000000e+02
1.000000e+02
1.000000e+02
1.000000e+02
0.000000e+00
-9.966174e-01
-1.679991e+00
-2.432830e+00
-3.119799e+00
-3.753405e+00
-4.460683e+00
-5.091368e+00
-5.763035e+00
-6.410443e+00
-7.053602e+00
-7.728759e+00
-8.384877e+00
-9.147439e+00
-1.006679e+01
-1.082850e+01
-1.128257e+01
0.000000e+00
-4.460283e-01
-9.063177e-01
-1.418588e+00
-1.930483e+00
-2.409471e+00
-2.923951e+00
-3.421026e+00
-3.916846e+00
-4.419883e+00
-4.911313e+00
-5.416048e+00
-5.904153e+00
-6.418805e+00
-6.894973e+00
-7.022193e+00
-7.201501e+00
0.000000e+00
-1.454963e-01
-3.475818e-01
-6.374251e-01
-9.749051e-01
-1.298846e+00
-1.652194e+00
-2.008309e+00
-2.352481e+00
-2.713706e+00
-3.053179e+00
-3.386744e+00
-3.682113e+00
-3.918350e+00
-4.031461e+00
-4.031952e+00
-4.178813e+00
0.000000e+00
-7.815995e-02
-1.604493e-01
-3.068377e-01
-4.509716e-01
-6.234915e-01
-8.085125e-01
-9.740375e-01
-1.159798e+00
-1.322776e+00
-1.481457e+00
-1.620527e+00
-1.715664e+00
-1.725713e+00
-1.650604e+00
-1.629191e+00
-1.745805e+00
0.000000e+00
-2.621117e-03
-5.923591e-03
-8.808206e-03
-1.181763e-02
-1.353906e-02
-1.160980e-02
-6.987213e-03
2.571811e-03
1.925110e-02
4.114122e-02
8.153530e-02
1.588848e-01
2.666534e-01
3.826449e-01
4.287638e-01
3.300570e-01
0.000000e+00
7.360644e-02
1.513849e-01
2.910814e-01
4.292776e-01
5.999082e-01
7.841774e-01
9.610484e-01
1.169172e+00
1.360419e+00
1.571014e+00
1.783419e+00
2.007448e+00
2.212286e+00
2.341051e+00
2.370546e+00
2.304120e+00
0.000000e+00
1.439280e-01
3.443938e-01
6.294931e-01
9.615397e-01
1.282001e+00
1.632304e+00
1.993162e+00
2.358984e+00
2.767671e+00
3.149809e+00
3.510806e+00
3.842579e+00
4.121609e+00
4.296602e+00
4.348985e+00
4.324280e+00
0.000000e+00
4.450389e-01
9.088182e-01
1.419575e+00
1.929325e+00
2.410207e+00
2.918641e+00
3.412920e+00
3.901358e+00
4.392637e+00
4.874408e+00
5.349205e+00
5.772249e+00
6.122830e+00
6.340052e+00
6.436703e+00
6.454640e+00
0.000000e+00
9.948709e-01
1.685784e+00
2.441908e+00
3.130410e+00
3.776448e+00
4.481094e+00
5.107196e+00
5.753238e+00
6.332425e+00
6.902068e+00
7.502639e+00
8.027603e+00
8.442447e+00
8.644738e+00
8.698954e+00
8.700021e+00
0.000000e+00
-6.190465e-01
-1.362863e+00
-2.365951e+00
-3.542632e+00
-4.889773e+00
-6.425950e+00
-8.117644e+00
-9.983428e+00
-1.201271e+01
-1.420051e+01
-1.655665e+01
-1.907499e+01
-2.180901e+01
-2.477770e+01
-2.813028e+01
-3.315641e+01
0.000000e+00
-4.161288e-01
-1.194516e+00
-2.179524e+00
-3.373605e+00
-4.715508e+00
-6.248512e+00
-7.949063e+00
-9.807506e+00
-1.184495e+01
-1.402909e+01
-1.638718e+01
-1.890247e+01
-2.161693e+01
-2.463781e+01
-2.804919e+01
-3.208854e+01
0.000000e+00
-3.906701e-01
-1.092779e+00
-2.076098e+00
-3.254502e+00
-4.589270e+00
-6.128565e+00
-7.819665e+00
-9.688538e+00
-1.172480e+01
-1.391836e+01
-1.628888e+01
-1.881347e+01
-2.155075e+01
-2.462732e+01
-2.790496e+01
-3.092821e+01
0.000000e+00
-4.497129e-01
-1.089156e+00
-2.049934e+00
-3.191189e+00
-4.518784e+00
-6.065113e+00
-7.744229e+00
-9.631909e+00
-1.166951e+01
-1.388329e+01
-1.627170e+01
-1.882373e+01
-2.155890e+01
-2.455254e+01
-2.760375e+01
-3.022794e+01
0.000000e+00
-4.562998e-01
-1.111514e+00
-2.034236e+00
-3.175825e+00
-4.507630e+00
-6.042034e+00
-7.742529e+00
-9.626047e+00
-1.168261e+01
-1.391468e+01
-1.630361e+01
-1.886588e+01
-2.156286e+01
-2.439066e+01
-2.722538e+01
-2.961671e+01
0.000000e+00
-4.470432e-01
-1.088392e+00
-2.051653e+00
-3.195053e+00
-4.534649e+00
-6.090436e+00
-7.783557e+00
-9.691316e+00
-1.175023e+01
-1.398678e+01
-1.635698e+01
-1.889323e+01
-2.155579e+01
-2.425529e+01
-2.688967e+01
-2.916584e+01
0.000000e+00
-3.869299e-01
-1.091083e+00
-2.078074e+00
-3.262466e+00
-4.615271e+00
-6.174685e+00
-7.896803e+00
-9.800780e+00
-1.186864e+01
-1.407389e+01
-1.642624e+01
-1.892942e+01
-2.155447e+01
-2.417660e+01
-2.668343e+01
-2.893124e+01
0.000000e+00
-4.126234e-01
-1.192107e+00
-2.181006e+00
-3.382892e+00
-4.742627e+00
-6.302026e+00
-8.039308e+00
-9.940659e+00
-1.200766e+01
-1.418920e+01
-1.652609e+01
-1.900482e+01
-2.159299e+01
-2.415650e+01
-2.659687e+01
-2.886768e+01
0.000000e+00
-6.167026e-01
-1.361515e+00
-2.367409e+00
-3.553350e+00
-4.918145e+00
-6.479791e+00
-8.207436e+00
-1.011192e+01
-1.216322e+01
-1.434393e+01
-1.667415e+01
-1.912793e+01
-2.167389e+01
-2.418197e+01
-2.658251e+01
-2.886584e+01


0.000000e+00
1.533694e-05
2.483478e-05
3.689532e-05
5.243690e-05
6.536180e-05
8.087907e-05
9.491504e-05
1.101529e-04
1.248957e-04
1.405540e-04
1.555769e-04
1.720452e-04
1.876442e-04
1.974992e-04
2.032451e-04
2.104222e-04
0.000000e+00
1.149247e-05
1.983895e-05
2.864657e-05
4.140509e-05
5.235357e-05
6.283646e-05
7.424460e-05
8.451451e-05
9.553616e-05
1.057241e-04
1.157664e-04
1.263779e-04
1.355834e-04
1.374181e-04
1.412287e-04
1.471456e-04
0.000000e+00
9.752597e-06
1.559656e-05
2.141734e-05
3.095123e-05
3.846874e-05
4.489384e-05
5.261605e-05
5.840604e-05
6.491043e-05
7.017427e-05
7.481551e-05
7.875937e-05
8.067339e-05
8.011389e-05
8.260936e-05
8.686595e-05
0.000000e+00
5.450641e-06
7.511886e-06
1.115236e-05
1.591646e-05
1.822554e-05
2.257402e-05
2.481754e-05
2.761585e-05
2.898812e-05
3.074760e-05
2.982699e-05
2.814961e-05
2.630189e-05
2.642492e-05
2.989300e-05
3.557772e-05
0.000000e+00
-9.470287e-08
-2.384177e-07
-4.414040e-07
-6.954424e-07
-1.003068e-06
-1.403979e-06
-1.809871e-06
-2.738381e-06
-4.217883e-06
-7.542984e-06
-1.194324e-05
-1.487001e-05
-1.586351e-05
-1.550783e-05
-1.317375e-05
-8.986412e-06
0.000000e+00
-5.581533e-06
-7.871713e-06
-1.181019e-05
-1.707379e-05
-2.000206e-05
-2.472575e-05
-2.808722e-05
-3.100729e-05
-3.331336e-05
-3.712523e-05
-4.244544e-05
-4.660691e-05
-4.771593e-05
-4.833421e-05
-4.888712e-05
-4.724431e-05
0.000000e+00
-9.761120e-06
-1.560357e-05
-2.156409e-05
-3.156115e-05
-3.922238e-05
-4.626721e-05
-5.437079e-05
-5.947447e-05
-6.415764e-05
-6.868884e-05
-7.328610e-05
-7.720922e-05
-7.998815e-05
-8.217741e-05
-8.418065e-05
-8.494523e-05
0.000000e+00
-1.145542e-05
-1.975418e-05
-2.852146e-05
-4.144022e-05
-5.224045e-05
-6.294431e-05
-7.465852e-05
-8.454272e-05
-9.508718e-05
-1.055149e-04
-1.127075e-04
-1.175461e-04
-1.223393e-04
-1.256450e-04
-1.268686e-04
-1.270007e-04
0.000000e+00
-1.539042e-05
-2.486913e-05
-3.673109e-05
-5.208292e-05
-6.473626e-05
-7.959719e-05
-9.380939e-05
-1.083598e-04
-1.245168e-04
-1.426344e-04
-1.572250e-04
-1.653837e-04
-1.703264e-04
-1.725162e-04
-1.725995e-04
-1.723792e-04
0.000000e+00
1.264287e-05
1.992521e-05
3.199172e-05
4.735334e-05
6.360779e-05
8.496798e-05
1.097555e-04
1.389568e-04
1.728386e-04
2.117811e-04
2.561121e-04
3.067404e-04
3.616637e-04
4.235286e-04
4.943164e-04
5.677573e-04
0.000000e+00
7.726751e-06
1.603595e-05
2.590755e-05
4.095738e-05
5.773226e-05
7.852224e-05
1.037316e-04
1.325842e-04
1.666932e-04
2.055313e-04
2.499650e-04
3.003573e-04
3.567968e-04
4.181708e-04
4.866910e-04
5.570263e-04
0.000000e+00
4.275909e-06
1.205725e-05
2.107616e-05
3.508530e-05
5.277644e-05
7.349608e-05
9.882613e-05
1.278737e-04
1.619775e-04
2.011805e-04
2.458650e-04
2.969805e-04
3.547799e-04
4.140153e-04
4.792535e-04
5.471929e-04
0.000000e+00
2.942013e-06
9.969103e-06
1.892027e-05
3.289719e-05
5.053478e-05
7.179959e-05
9.698538e-05
1.264038e-04
1.598855e-04
1.992931e-04
2.451683e-04
2.970665e-04
3.539774e-04
4.113441e-04
4.713976e-04
5.332320e-04
0.000000e+00
2.436092e-06
9.408116e-06
1.845865e-05
3.235742e-05
5.001238e-05
7.116695e-05
9.665300e-05
1.260085e-04
1.587663e-04
1.981609e-04
2.461395e-04
2.982212e-04
3.543758e-04
4.103367e-04
4.646030e-04
5.167604e-04
0.000000e+00
3.057994e-06
1.014471e-05
1.908048e-05
3.304295e-05
5.055574e-05
7.146717e-05
9.675943e-05
1.258530e-04
1.582061e-04
1.989405e-04
2.488021e-04
3.007797e-04
3.544079e-04
4.102827e-04
4.620852e-04
5.053935e-04
0.000000e+00
4.430117e-06
1.232601e-05
2.136034e-05
3.541513e-05
5.267206e-05
7.301187e-05
9.784532e-05
1.260607e-04
1.593822e-04
2.015140e-04
2.523166e-04
3.040887e-04
3.558847e-04
4.093096e-04
4.595138e-04
5.020548e-04
0.000000e+00
7.848786e-06
1.632427e-05
2.631216e-05
4.131022e-05
5.779126e-05
7.809736e-05
1.025253e-04
1.300787e-04
1.639703e-04
2.059739e-04
2.553284e-04
3.069022e-04
3.578039e-04
4.092281e-04
4.576636e-04
5.025604e-04
0.000000e+00
1.276720e-05
2.020034e-05
3.241249e-05
4.771534e-05
6.367170e-05
8.466810e-05
1.086342e-04
1.363298e-04
1.708311e-04
2.124280e-04
2.589661e-04
3.086489e-04
3.591631e-04
4.093836e-04
4.571973e-04
5.028533e-04


5.682058e+00
6.142548e+00
6.868528e+00
5.912500e+00
5.582587e+00
6.243717e+00
6.016569e+00
5.927672e+00
5.694296e+00
5.883143e+00
6.456712e+00
7.231159e+00
8.810700e+00
9.801106e+00
9.153836e+00
8.003059e+00
8.087222e+00
8.463276e+00
8.662922e+00
8.359428e+00
8.162119e+00
8.398794e+00
8.470537e+00
8.243390e+00
8.251313e+00
8.296884e+00
8.479762e+00
8.893128e+00
9.481084e+00
9.831515e+00
8.454371e+00
6.429149e+00
9.844223e+00
9.824338e+00
1.000000e+01
9.838356e+00
9.836922e+00
9.951454e+00
9.837120e+00
9.915117e+00
9.853579e+00
9.871534e+00
9.917037e+00
9.875223e+00
9.911657e+00
9.686062e+00
8.443879e+00
6.516687e+00
1.000000e+01
1.000000e+01
1.000000e+01
1.000000e+01
1.000000e+01
1.000000e+01
1.000000e+01
1.000000e+01
1.000000e+01
9.999999e+00
1.000000e+01
9.558795e+00
8.972746e+00
8.814612e+00
8.767259e+00
8.497939e+00
1.000000e+01
1.000000e+01
1.000000e+01
1.000000e+01
1.000000e+01
1.000000e+01
9.999992e+00
9.999997e+00
1.000000e+01
9.952774e+00
9.367700e+00
8.718375e+00
7.865945e+00
8.006434e+00
9.017108e+00
9.536452e+00
9.836447e+00
9.824525e+00
1.000000e+01
9.837159e+00
9.838611e+00
9.908962e+00
9.837132e+00
9.947391e+00
9.660704e+00
9.041048e+00
8.412310e+00
7.990596e+00
8.340486e+00
8.768909e+00
9.448588e+00
9.978157e+00
8.040385e+00
8.441323e+00
8.658871e+00
8.358876e+00
7.997712e+00
8.146270e+00
8.430279e+00
8.363732e+00
8.148036e+00
7.647409e+00
7.579684e+00
8.523532e+00
9.355754e+00
9.868498e+00
9.995719e+00
9.999994e+00
5.566299e+00
6.095858e+00
6.854733e+00
5.850310e+00
5.248595e+00
5.659698e+00
5.926296e+00
6.376476e+00
6.182049e+00
6.516643e+00
7.905955e+00
9.072426e+00
9.999912e+00
9.999974e+00
9.999998e+00
1.000000e+01


-8.206909e-01
-1.675230e-01
-3.982220e-01
-2.609196e-01
-9.182812e-02
-3.072887e-01
-1.245416e-01
-2.014839e-01
-1.727437e-01
-1.429482e-01
-2.329236e-01
-1.622490e-01
-4.343356e-01
-6.594683e-01
3.077398e-01
-8.827697e-01
6.113398e-01
4.825028e-01
2.967158e-01
2.249326e-01
2.929420e-01
1.644737e-01
1.746812e-01
1.689233e-01
1.062764e-01
1.483895e-01
1.264243e-01
2.373394e-01
3.193176e-01
5.037877e-01
6.991253e-01
-8.794452e-01
7.229797e-01
4.715698e-01
5.608809e-02
-2.428664e-02
-3.954425e-02
-1.961941e-01
-9.465029e-02
-1.442600e-01
-9.053557e-02
-1.464906e-02
3.433505e-02
1.752952e-01
2.819431e-01
1.293910e-01
-4.182940e-02
-1.153318e-01
7.278549e-01
5.547871e-01
1.897517e-01
5.815059e-02
-2.771957e-02
-1.112752e-01
-3.069385e-02
-6.771580e-02
4.993749e-03
1.553947e-02
5.585606e-02
8.094785e-02
4.369238e-02
-3.013032e-01
-4.957887e-01
-1.282548e-01
7.311928e-01
5.573861e-01
1.951376e-01
6.266302e-02
-3.521142e-02
-1.242636e-01
-5.900644e-02
-1.070659e-01
-4.662930e-02
-4.404657e-02
3.560605e-02
-4.550251e-03
-2.806883e-02
-8.933077e-02
-1.448708e-01
2.597801e-01
7.307144e-01
4.783415e-01
7.253277e-02
-6.776603e-03
-5.476743e-02
-2.210485e-01
-1.713059e-01
-2.772825e-01
-2.310523e-01
-1.322440e-01
-5.872050e-02
-1.024279e-01
-1.142181e-01
9.479601e-02
3.608685e-01
7.295317e-01
6.168866e-01
4.820302e-01
3.085807e-01
2.387460e-01
2.913523e-01
1.668233e-01
1.391140e-01
8.033526e-02
-7.056707e-02
-6.446760e-02
-8.853451e-02
-5.329513e-02
3.239033e-02
3.694450e-01
7.128196e-01
9.464354e-01
-8.125026e-01
-1.891258e-01
-4.016201e-01
-2.600034e-01
-1.192812e-01
-2.913490e-01
-1.144971e-01
-1.468134e-01
-4.180567e-02
-2.119611e-02
-9.085055e-02
1.157387e-01
3.757299e-01
7.721608e-01
9.521579e-01
9.986102e-01
1 2 19 18
2 3 20 19
3 4 21 20
4 5 22 21
5 6 23 22
6 7 24 23
7 8 25 24
8 9 26 25
9 10 27 26
10 11 28 27
11 12 29 28
12 13 30 29
13 14 31 30
14 15 32 31
15 16 33 32
16 17 34 33
18 19 36 35
19 20 37 36
20 21 38 37
21 22 39 38
22 23 40 39
23 24 41 40
24 25 42 41
25 26 43 42
26 27 44 43
27 28 45 44
28 29 46 45
29 30 47 46
30 31 48 47
31 32 49 48
32 33 50 49
33 34 51 50
35 36 53 52
36 37 54 53
37 38 55 54
38 39 56 55
39 40 57 56
40 41 58 57
41 42 59 58
42 43 60 59
43 44 61 60
44 45 62 61
45 46 63 62
46 47 64 63
47 48 65 64
48 49 66 65
49 50 67 66
50 51 68 67
52 53 70 69
53 54 71 70
54 55 72 71
55 56 73 72
56 57 74 73
57 58 75 74
58 59 76 75
59 60 77 76
60 61 78 77
61 62 79 78
62 63 80 79
63 64 81 80
64 65 82 81
65 66 83 82
66 67 84 83
67 68 85 84
69 70 87 86
70 71 88 87
71 72 89 88
72 73 90 89
73 74 91 90
74 75 92 91
75 76 93 92
76 77 94 93
77 78 95 94
78 79 96 95
79 80 97 96
80 81 98 97
81 82 99 98
82 83 100 99
83 84 101 100
84 85 102 101
86 87 104 103
87 88 105 104
88 89 106 105
89 90 107 106
90 91 108 107
91 92 109 108
92 93 110 109
93 94 111 110
94 95 112 111
95 96 113 112
96 97 114 113
97 98 115 114
98 99 116 115
99 100 117 116
100 101 118 117
101 102 119 118
103 104 121 120
104 105 122 121
105 106 123 122
106 107 124 123
107 108 125 124
108 109 126 125
109 110 127 126
110 111 128 127
111 112 129 128
112 113 130 129
113 114 131 130
114 115 132 131
115 116 133 132
116 117 134 133
117 118 135 134
118 119 136 135
120 121 138 137
121 122 139 138
122 123 140 139
123 124 141 140
124 125 142 141
125 126 143 142
126 127 144 143
127 128 145 144
128 129 146 145
129 130 147 146
130 131 148 147
131 132 149 148
132 133 150 149
133 134 151 150
134 135 152 151
135 136 153 152
