TITLE = "Solution"
VARIABLES = x, y, u, v, psiu, psiv, t, stress
ZONE T="structure" N=153 E=128 F=FEBLOCK ET=QUADRILATERAL VARLOCATION=([7,8]=cellcentered)
0.000000e+00
1.250000e+01
2.500000e+01
3.750000e+01
5.000000e+01
6.250000e+01
7.500000e+01
8.750000e+01
1.000000e+02
1.125000e+02
1.250000e+02
1.375000e+02
1.500000e+02
1.625000e+02
1.750000e+02
1.875000e+02
2.000000e+02
0.000000e+00
1.250000e+01
2.500000e+01
3.750000e+01
5.000000e+01
6.250000e+01
7.500000e+01
8.750000e+01
1.000000e+02
1.125000e+02
1.250000e+02
1.375000e+02
1.500000e+02
1.625000e+02
1.750000e+02
1.875000e+02
2.000000e+02
0.000000e+00
1.250000e+01
2.500000e+01
3.750000e+01
5.000000e+01
6.250000e+01
7.500000e+01
8.750000e+01
1.000000e+02
1.125000e+02
1.250000e+02
1.375000e+02
1.500000e+02
1.625000e+02
1.750000e+02
1.875000e+02
2.000000e+02
0.000000e+00
1.250000e+01
2.500000e+01
3.750000e+01
5.000000e+01
6.250000e+01
7.500000e+01
8.750000e+01
1.000000e+02
1.125000e+02
1.250000e+02
1.375000e+02
1.500000e+02
1.625000e+02
1.750000e+02
1.875000e+02
2.000000e+02
0.000000e+00
1.250000e+01
2.500000e+01
3.750000e+01
5.000000e+01
6.250000e+01
7.500000e+01
8.750000e+01
1.000000e+02
1.125000e+02
1.250000e+02
1.375000e+02
1.500000e+02
1.625000e+02
1.750000e+02
1.875000e+02
2.000000e+02
0.000000e+00
1.250000e+01
2.500000e+01
3.750000e+01
5.000000e+01
6.250000e+01
7.500000e+01
8.750000e+01
1.000000e+02
1.125000e+02
1.250000e+02
1.375000e+02
1.500000e+02
1.625000e+02
1.750000e+02
1.875000e+02
2.000000e+02
0.000000e+00
1.250000e+01
2.500000e+01
3.750000e+01
5.000000e+01
6.250000e+01
7.500000e+01
8.750000e+01
1.000000e+02
1.125000e+02
1.250000e+02
1.375000e+02
1.500000e+02
1.625000e+02
1.750000e+02
1.875000e+02
2.000000e+02
0.000000e+00
1.250000e+01
2.500000e+01
3.750000e+01
5.000000e+01
6.250000e+01
7.500000e+01
8.750000e+01
1.000000e+02
1.125000e+02
1.250000e+02
1.375000e+02
1.500000e+02
1.625000e+02
1.750000e+02
1.875000e+02
2.000000e+02
0.000000e+00
1.250000e+01
2.500000e+01
3.750000e+01
5.000000e+01
6.250000e+01
7.500000e+01
8.750000e+01
1.000000e+02
1.125000e+02
1.250000e+02
1.375000e+02
1.500000e+02
1.625000e+02
1.750000e+02
1.875000e+02
2.000000e+02
0.000000e+00
0.000000e+00
0.000000e+00
0.000000e+00
0.000000e+00
0.000000e+00
0.000000e+00
0.000000e+00
0.000000e+00
0.000000e+00
0.000000e+00
0.000000e+00
0.000000e+00
0.000000e+00
0.000000e+00
0.000000e+00
0.000000e+00
1.250000e+01
1.250000e+01
1.250000e+01
1.250000e+01
1.250000e+01
1.250000e+01
1.250000e+01
1.250000e+01
1.250000e+01
1.250000e+01
1.250000e+01
1.250000e+01
1.250000e+01
1.250000e+01
1.250000e+01
1.250000e+01
1.250000e+01
2.500000e+01
2.500000e+01
2.500000e+01
2.500000e+01
2.500000e+01
2.500000e+01
2.500000e+01
2.500000e+01
2.500000e+01
2.500000e+01
2.500000e+01
2.500000e+01
2.500000e+01
2.500000e+01
2.500000e+01
2.500000e+01
2.500000e+01
3.750000e+01
3.750000e+01
3.750000e+01
3.750000e+01
3.750000e+01
3.750000e+01
3.750000e+01
3.750000e+01
3.750000e+01
3.750000e+01
3.750000e+01
3.750000e+01
3.750000e+01
3.750000e+01
3.750000e+01
3.750000e+01
3.750000e+01
5.000000e+01
5.000000e+01
5.000000e+01
5.000000e+01
5.000000e+01
5.000000e+01
5.000000e+01
5.000000e+01
5.000000e+01
5.000000e+01
5.000000e+01
5.000000e+01
5.000000e+01
5.000000e+01
5.000000e+01
5.000000e+01
5.000000e+01
6.250000e+01
6.250000e+01
6.250000e+01
6.250000e+01
6.250000e+01
6.250000e+01
6.250000e+01
6.250000e+01
6.250000e+01
6.250000e+01
6.250000e+01
6.250000e+01
6.250000e+01
6.250000e+01
6.250000e+01
6.250000e+01
6.250000e+01
7.500000e+01
7.500000e+01
7.500000e+01
7.500000e+01
7.500000e+01
7.500000e+01
7.500000e+01
7.500000e+01
7.500000e+01
7.500000e+01
7.500000e+01
7.500000e+01
7.500000e+01
7.500000e+01
7.500000e+01
7.500000e+01
7.500000e+01
8.750000e+01
8.750000e+01
8.750000e+01
8.750000e+01
8.750000e+01
8.750000e+01
8.750000e+01
8.750000e+01
8.750000e+01
8.750000e+01
8.750000e+01
8.750000e+01
8.750000e+01
8.750000e+01
8.750000e+01
8.750000e+01
8.750000e+01
1.000000e+02
1.000000e+02
1.000000e+02
1.000000e+02
1.000000e+02
1.000000e+02
1.000000e+02
1.000000e+02
1.000000e+02
1.000000e+02
1.000000e+02
1.000000e+02
1.000000e+02
1.000000e+02
1.000000e+02
1.000000e+02
1.000000e+02
0.000000e+00
-9.978292e-01
-1.679306e+00
-2.432270e+00
-3.120323e+00
-3.751167e+00
-4.459751e+00
-5.090945e+00
-5.759153e+00
-6.412016e+00
-7.037863e+00
-7.722624e+00
-8.368863e+00
-9.109557e+00
-1.002174e+01
-1.078486e+01
-1.123943e+01
0.000000e+00
-4.466233e-01
-9.056820e-01
-1.418272e+00
-1.930803e+00
-2.408114e+00
-2.923945e+00
-3.419738e+00
-3.916860e+00
-4.418720e+00
-4.903506e+00
-5.407956e+00
-5.893590e+00
-6.392876e+00
-6.866790e+00
-6.994334e+00
-7.173758e+00
0.000000e+00
-1.454527e-01
-3.472281e-01
-6.373207e-01
-9.751760e-01
-1.298496e+00
-1.652388e+00
-2.007726e+00
-2.352254e+00
-2.710723e+00
-3.048563e+00
-3.378594e+00
-3.673600e+00
-3.904686e+00
-4.018226e+00
-4.018910e+00
-4.165135e+00
0.000000e+00
-7.824863e-02
-1.605309e-01
-3.072640e-01
-4.517205e-01
-6.239905e-01
-8.094025e-01
-9.747017e-01
-1.158776e+00
-1.322905e+00
-1.477793e+00
-1.618206e+00
-1.711913e+00
-1.723239e+00
-1.648224e+00
-1.626983e+00
-1.742271e+00
0.000000e+00
-2.737546e-03
-6.227217e-03
-9.516559e-03
-1.285610e-02
-1.500898e-02
-1.351121e-02
-8.653800e-03
3.626609e-04
1.745985e-02
3.905715e-02
8.021182e-02
1.565654e-01
2.629284e-01
3.772364e-01
4.239941e-01
3.262992e-01
0.000000e+00
7.356352e-02
1.509209e-01
2.905066e-01
4.284667e-01
5.972784e-01
7.823398e-01
9.563641e-01
1.165410e+00
1.353632e+00
1.562026e+00
1.772573e+00
1.998484e+00
2.203547e+00
2.330795e+00
2.359979e+00
2.294188e+00
0.000000e+00
1.439666e-01
3.438246e-01
6.293463e-01
9.609369e-01
1.280693e+00
1.628959e+00
1.989074e+00
2.349736e+00
2.758937e+00
3.138284e+00
3.495988e+00
3.826797e+00
4.106849e+00
4.280994e+00
4.333426e+00
4.308564e+00
0.000000e+00
4.462486e-01
9.079204e-01
1.419853e+00
1.929959e+00
2.409600e+00
2.917910e+00
3.410437e+00
3.892525e+00
4.380400e+00
4.862171e+00
5.335573e+00
5.752391e+00
6.101575e+00
6.317407e+00
6.413744e+00
6.431689e+00
0.000000e+00
9.969308e-01
1.684657e+00
2.441742e+00
3.132751e+00
3.774246e+00
4.483335e+00
5.103215e+00
5.744179e+00
6.315716e+00
6.886029e+00
7.485684e+00
8.002211e+00
8.413320e+00
8.613776e+00
8.667677e+00
8.668755e+00
0.000000e+00
-6.195273e-01
-1.363263e+00
-2.366782e+00
-3.543304e+00
-4.889818e+00
-6.425693e+00
-8.116766e+00
-9.981170e+00
-1.200859e+01
-1.419044e+01
-1.654585e+01
-1.905797e+01
-2.177990e+01
-2.473880e+01
-2.807555e+01
-3.308772e+01
0.000000e+00
-4.168705e-01
-1.195156e+00
-2.180098e+00
-3.374612e+00
-4.715686e+00
-6.248308e+00
-7.948073e+00
-9.805511e+00
-1.184165e+01
-1.402140e+01
-1.637506e+01
-1.888983e+01
-2.159098e+01
-2.459914e+01
-2.799483e+01
-3.201745e+01
0.000000e+00
-3.915127e-01
-1.093303e+00
-2.076580e+00
-3.255913e+00
-4.589156e+00
-6.128879e+00
-7.818793e+00
-9.686311e+00
-1.172319e+01
-1.390997e+01
-1.627843e+01
-1.880062e+01
-2.152589e+01
-2.458910e+01
-2.785167e+01
-3.085971e+01
0.000000e+00
-4.504904e-01
-1.089562e+00
-2.050399e+00
-3.192696e+00
-4.518988e+00
-6.065568e+00
-7.744963e+00
-9.628969e+00
-1.166936e+01
-1.387383e+01
-1.626215e+01
-1.880922e+01
-2.153500e+01
-2.451433e+01
-2.755274e+01
-3.016598e+01
0.000000e+00
-4.568677e-01
-1.111844e+00
-2.034733e+00
-3.176989e+00
-4.508262e+00
-6.043283e+00
-7.743194e+00
-9.625188e+00
-1.168014e+01
-1.390770e+01
-1.629118e+01
-1.885173e+01
-2.153942e+01
-2.435244e+01
-2.717671e+01
-2.956046e+01
0.000000e+00
-4.479078e-01
-1.088386e+00
-2.051543e+00
-3.197153e+00
-4.533651e+00
-6.093805e+00
-7.783476e+00
-9.691559e+00
-1.174673e+01
-1.398041e+01
-1.634423e+01
-1.887793e+01
-2.153300e+01
-2.421779e+01
-2.684213e+01
-2.911211e+01
0.000000e+00
-3.878992e-01
-1.090987e+00
-2.078033e+00
-3.263543e+00
-4.615180e+00
-6.176406e+00
-7.898584e+00
-9.800097e+00
-1.186501e+01
-1.406645e+01
-1.641429e+01
-1.891259e+01
-2.153109e+01
-2.414020e+01
-2.663735e+01
-2.887786e+01
0.000000e+00
-4.134742e-01
-1.192284e+00
-2.180942e+00
-3.383480e+00
-4.742948e+00
-6.302627e+00
-8.040879e+00
-9.938966e+00
-1.200346e+01
-1.418073e+01
-1.651464e+01
-1.898638e+01
-2.156824e+01
-2.412056e+01
-2.655162e+01
-2.881419e+01
0.000000e+00
-6.171086e-01
-1.361439e+00
-2.367748e+00
-3.553773e+00
-4.918027e+00
-6.480585e+00
-8.207001e+00
-1.010907e+01
-1.215758e+01
-1.433575e+01
-1.666150e+01
-1.910789e+01
-2.164777e+01
-2.414619e+01
-2.653741e+01
-2.881230e+01


0.000000e+00
1.533565e-05
2.481712e-05
3.688704e-05
5.238750e-05
6.526268e-05
8.085595e-05
9.475250e-05
1.101955e-04
1.246434e-04
1.402546e-04
1.554560e-04
1.712022e-04
1.876863e-04
1.991368e-04
2.053591e-04
2.125132e-04
0.000000e+00
1.148304e-05
1.984197e-05
2.867699e-05
4.139408e-05
5.240362e-05
6.284661e-05
7.428376e-05
8.452347e-05
9.531497e-05
1.055842e-04
1.157685e-04
1.260088e-04
1.361164e-04
1.393852e-04
1.432152e-04
1.490435e-04
0.000000e+00
9.743009e-06
1.562006e-05
2.148675e-05
3.099690e-05
3.862635e-05
4.500025e-05
5.273974e-05
5.845551e-05
6.480726e-05
7.017220e-05
7.502826e-05
7.906764e-05
8.178990e-05
8.181832e-05
8.422189e-05
8.840741e-05
0.000000e+00
5.459462e-06
7.528229e-06
1.122148e-05
1.600549e-05
1.832148e-05
2.274508e-05
2.474940e-05
2.776564e-05
2.884464e-05
3.078156e-05
2.991834e-05
2.825558e-05
2.671059e-05
2.699045e-05
3.064583e-05
3.640643e-05
0.000000e+00
-9.308906e-08
-2.343486e-07
-4.329903e-07
-6.940246e-07
-1.024972e-06
-1.456993e-06
-1.988574e-06
-2.885170e-06
-4.422398e-06
-7.677529e-06
-1.199646e-05
-1.491626e-05
-1.611622e-05
-1.585438e-05
-1.342420e-05
-9.118088e-06
0.000000e+00
-5.588256e-06
-7.869580e-06
-1.187165e-05
-1.711594e-05
-1.998080e-05
-2.498287e-05
-2.782596e-05
-3.140140e-05
-3.327233e-05
-3.726018e-05
-4.217161e-05
-4.622985e-05
-4.749506e-05
-4.839107e-05
-4.909230e-05
-4.737756e-05
0.000000e+00
-9.734919e-06
-1.562707e-05
-2.163598e-05
-3.148682e-05
-3.937364e-05
-4.612055e-05
-5.404846e-05
-5.927488e-05
-6.413382e-05
-6.838309e-05
-7.319966e-05
-7.673003e-05
-7.934070e-05
-8.164149e-05
-8.383552e-05
-8.471084e-05
0.000000e+00
-1.143740e-05
-1.976364e-05
-2.856891e-05
-4.136335e-05
-5.240187e-05
-6.283518e-05
-7.429765e-05
-8.434727e-05
-9.474749e-05
-1.047767e-04
-1.126059e-04
-1.174000e-04
-1.219551e-04
-1.251681e-04
-1.263944e-04
-1.265352e-04
0.000000e+00
-1.538575e-05
-2.484274e-05
-3.673900e-05
-5.204342e-05
-6.468489e-05
-7.972340e-05
-9.330655e-05
-1.084954e-04
-1.237875e-04
-1.416431e-04
-1.565679e-04
-1.648483e-04
-1.699204e-04
-1.720779e-04
-1.720676e-04
-1.718187e-04
0.000000e+00
1.264787e-05
1.993958e-05
3.199300e-05
4.731751e-05
6.350586e-05
8.474303e-05
1.093750e-04
1.385034e-04
1.722119e-04
2.112938e-04
2.555457e-04
3.056681e-04
3.609193e-04
4.224534e-04
4.928681e-04
5.664345e-04
0.000000e+00
7.735096e-06
1.604576e-05
2.591379e-05
4.093224e-05
5.763254e-05
7.829597e-05
1.033565e-04
1.321399e-04
1.661614e-04
2.049594e-04
2.494661e-04
2.993489e-04
3.554412e-04
4.166631e-04
4.852707e-04
5.559068e-04
0.000000e+00
4.276325e-06
1.205266e-05
2.109156e-05
3.504027e-05
5.272359e-05
7.324724e-05
9.843127e-05
1.274709e-04
1.614175e-04
2.006319e-04
2.452556e-04
2.960131e-04
3.531824e-04
4.121422e-04
4.777397e-04
5.462703e-04
0.000000e+00
2.934222e-06
9.945048e-06
1.891312e-05
3.288453e-05
5.049919e-05
7.162518e-05
9.647800e-05
1.259659e-04
1.593809e-04
1.987539e-04
2.444453e-04
2.961346e-04
3.526496e-04
4.093894e-04
4.697128e-04
5.323882e-04
0.000000e+00
2.420334e-06
9.374077e-06
1.843228e-05
3.235901e-05
4.998794e-05
7.102349e-05
9.613623e-05
1.254781e-04
1.583868e-04
1.977308e-04
2.453470e-04
2.972225e-04
3.532161e-04
4.086314e-04
4.628477e-04
5.156958e-04
0.000000e+00
3.040165e-06
1.010047e-05
1.907223e-05
3.300191e-05
5.048573e-05
7.140845e-05
9.619194e-05
1.254930e-04
1.578739e-04
1.986144e-04
2.479113e-04
2.995980e-04
3.531829e-04
4.088061e-04
4.604732e-04
5.038504e-04
0.000000e+00
4.411073e-06
1.228839e-05
2.137026e-05
3.525432e-05
5.266266e-05
7.279721e-05
9.748272e-05
1.258307e-04
1.591763e-04
2.010207e-04
2.513914e-04
3.027035e-04
3.544966e-04
4.079082e-04
4.580311e-04
5.003503e-04
0.000000e+00
7.841275e-06
1.630477e-05
2.627178e-05
4.121933e-05
5.766984e-05
7.784633e-05
1.021524e-04
1.299664e-04
1.637078e-04
2.052383e-04
2.545480e-04
3.054638e-04
3.562869e-04
4.078356e-04
4.561969e-04
5.009371e-04
0.000000e+00
1.275508e-05
2.018970e-05
3.235323e-05
4.763364e-05
6.355146e-05
8.430942e-05
1.081811e-04
1.363402e-04
1.701791e-04
2.117344e-04
2.583505e-04
3.072857e-04
3.576229e-04
4.079398e-04
4.557195e-04
5.012591e-04


5.730587e+00
6.162045e+00
6.873875e+00
5.930504e+00
5.674734e+00
6.390765e+00
5.960638e+00
5.682766e+00
5.642401e+00
6.390884e+00
7.554769e+00
7.809072e+00
8.910830e+00
9.818473e+00
9.161006e+00
8.004434e+00
8.106863e+00
8.472500e+00
8.664257e+00
8.359983e+00
8.207246e+00
8.469148e+00
8.438547e+00
8.149898e+00
8.161894e+00
8.577876e+00
8.904863e+00
9.191811e+00
9.470777e+00
9.845515e+00
8.463583e+00
6.420450e+00
9.847478e+00
9.824264e+00
9.999999e+00
9.838760e+00
9.836436e+00
9.963043e+00
9.837438e+00
9.894971e+00
9.860574e+00
9.858578e+00
9.999995e+00
9.867740e+00
9.918572e+00
9.723172e+00
8.494044e+00
6.534537e+00
1.000000e+01
1.000000e+01
9.999999e+00
9.999997e+00
9.999996e+00
9.999995e+00
9.999995e+00
9.999997e+00
9.999995e+00
1.000000e+01
9.999995e+00
9.578073e+00
8.983510e+00
8.887667e+00
8.874231e+00
8.551478e+00
1.000000e+01
1.000000e+01
9.999999e+00
9.999997e+00
9.999996e+00
9.999997e+00
9.999998e+00
9.999999e+00
9.999931e+00
9.966029e+00
9.385760e+00
8.722750e+00
7.846783e+00
8.020292e+00
9.100889e+00
9.595521e+00
9.841568e+00
9.824387e+00
9.999999e+00
9.837944e+00
9.837163e+00
9.955742e+00
9.835918e+00
9.999733e+00
9.710231e+00
9.131148e+00
8.453153e+00
7.971322e+00
8.257479e+00
8.721541e+00
9.461892e+00
9.995810e+00
8.071163e+00
8.455700e+00
8.661477e+00
8.357891e+00
8.179124e+00
8.421165e+00
8.819989e+00
8.684418e+00
8.518038e+00
7.906647e+00
7.723208e+00
8.490124e+00
9.304187e+00
9.820959e+00
9.999998e+00
9.999975e+00
5.642398e+00
6.126404e+00
6.863235e+00
5.914259e+00
5.616547e+00
6.416534e+00
6.720209e+00
7.239190e+00
6.851866e+00
7.021763e+00
8.134617e+00
9.084790e+00
9.982968e+00
9.999992e+00
9.999999e+00
1.000000e+01


-8.251661e-01
-1.613636e-01
-3.992481e-01
-2.642840e-01
-8.351286e-02
-3.126607e-01
-1.229598e-01
-1.974251e-01
-1.799455e-01
-9.687195e-02
-2.506119e-01
-1.374387e-01
-3.531191e-01
-6.371678e-01
3.055608e-01
-8.875204e-01
6.104260e-01
4.845452e-01
2.957316e-01
2.228656e-01
2.966309e-01
1.611907e-01
1.783216e-01
1.677137e-01
1.139480e-01
1.659509e-01
1.340604e-01
2.418454e-01
3.505131e-01
5.050000e-01
7.000328e-01
-8.689771e-01
7.219221e-01
4.718471e-01
5.457583e-02
-2.821088e-02
-3.707391e-02
-1.996393e-01
-9.469691e-02
-1.375690e-01
-9.567474e-02
3.167101e-03
3.095227e-02
1.731052e-01
2.890980e-01
1.359532e-01
-3.300355e-02
-9.710575e-02
7.269489e-01
5.550728e-01
1.887592e-01
5.525362e-02
-2.705462e-02
-1.151725e-01
-3.269089e-02
-6.617688e-02
-2.646296e-03
2.413374e-02
5.117541e-02
7.766007e-02
5.180924e-02
-2.797115e-01
-4.820171e-01
-1.117878e-01
7.303489e-01
5.583000e-01
1.951307e-01
5.976805e-02
-3.118812e-02
-1.323386e-01
-5.706908e-02
-1.115725e-01
-4.727058e-02
-4.864561e-02
3.057230e-02
-1.913371e-02
-2.126911e-02
-6.314965e-02
-1.315588e-01
2.658087e-01
7.296933e-01
4.804241e-01
7.272027e-02
-9.182740e-03
-4.612250e-02
-2.276237e-01
-1.653106e-01
-2.770291e-01
-2.291800e-01
-1.246606e-01
-4.907585e-02
-1.070321e-01
-1.137742e-01
1.143978e-01
3.708534e-01
7.319888e-01
6.154137e-01
4.861928e-01
3.065751e-01
2.389720e-01
2.955119e-01
1.707383e-01
1.448910e-01
1.016730e-01
-6.401053e-02
-5.693874e-02
-7.511274e-02
-3.584251e-02
3.538387e-02
3.802590e-01
7.159999e-01
9.468221e-01
-8.203337e-01
-1.786078e-01
-4.062304e-01
-2.656335e-01
-1.083288e-01
-2.997572e-01
-9.893704e-02
-1.236745e-01
-2.141728e-02
-2.234188e-02
-8.633926e-02
1.413827e-01
3.824114e-01
7.761245e-01
9.527365e-01
9.986139e-01
1 2 19 18
2 3 20 19
3 4 21 20
4 5 22 21
5 6 23 22
6 7 24 23
7 8 25 24
8 9 26 25
9 10 27 26
10 11 28 27
11 12 29 28
12 13 30 29
13 14 31 30
14 15 32 31
15 16 33 32
16 17 34 33
18 19 36 35
19 20 37 36
20 21 38 37
21 22 39 38
22 23 40 39
23 24 41 40
24 25 42 41
25 26 43 42
26 27 44 43
27 28 45 44
28 29 46 45
29 30 47 46
30 31 48 47
31 32 49 48
32 33 50 49
33 34 51 50
35 36 53 52
36 37 54 53
37 38 55 54
38 39 56 55
39 40 57 56
40 41 58 57
41 42 59 58
42 43 60 59
43 44 61 60
44 45 62 61
45 46 63 62
46 47 64 63
47 48 65 64
48 49 66 65
49 50 67 66
50 51 68 67
52 53 70 69
53 54 71 70
54 55 72 71
55 56 73 72
56 57 74 73
57 58 75 74
58 59 76 75
59 60 77 76
60 61 78 77
61 62 79 78
62 63 80 79
63 64 81 80
64 65 82 81
65 66 83 82
66 67 84 83
67 68 85 84
69 70 87 86
70 71 88 87
71 72 89 88
72 73 90 89
73 74 91 90
74 75 92 91
75 76 93 92
76 77 94 93
77 78 95 94
78 79 96 95
79 80 97 96
80 81 98 97
81 82 99 98
82 83 100 99
83 84 101 100
84 85 102 101
86 87 104 103
87 88 105 104
88 89 106 105
89 90 107 106
90 91 108 107
91 92 109 108
92 93 110 109
93 94 111 110
94 95 112 111
95 96 113 112
96 97 114 113
97 98 115 114
98 99 116 115
99 100 117 116
100 101 118 117
101 102 119 118
103 104 121 120
104 105 122 121
105 106 123 122
106 107 124 123
107 108 125 124
108 109 126 125
109 110 127 126
110 111 128 127
111 112 129 128
112 113 130 129
113 114 131 130
114 115 132 131
115 116 133 132
116 117 134 133
117 118 135 134
118 119 136 135
120 121 138 137
121 122 139 138
122 123 140 139
123 124 141 140
124 125 142 141
125 126 143 142
126 127 144 143
127 128 145 144
128 129 146 145
129 130 147 146
130 131 148 147
131 132 149 148
132 133 150 149
133 134 151 150
134 135 152 151
135 136 153 152
