TITLE = "Solution"
VARIABLES = x, y, u, v, psiu, psiv, t, stress
ZONE T="structure" N=153 E=128 F=FEBLOCK ET=QUADRILATERAL VARLOCATION=([7,8]=cellcentered)
0.000000e+00
1.250000e+01
2.500000e+01
3.750000e+01
5.000000e+01
6.250000e+01
7.500000e+01
8.750000e+01
1.000000e+02
1.125000e+02
1.250000e+02
1.375000e+02
1.500000e+02
1.625000e+02
1.750000e+02
1.875000e+02
2.000000e+02
0.000000e+00
1.250000e+01
2.500000e+01
3.750000e+01
5.000000e+01
6.250000e+01
7.500000e+01
8.750000e+01
1.000000e+02
1.125000e+02
1.250000e+02
1.375000e+02
1.500000e+02
1.625000e+02
1.750000e+02
1.875000e+02
2.000000e+02
0.000000e+00
1.250000e+01
2.500000e+01
3.750000e+01
5.000000e+01
6.250000e+01
7.500000e+01
8.750000e+01
1.000000e+02
1.125000e+02
1.250000e+02
1.375000e+02
1.500000e+02
1.625000e+02
1.750000e+02
1.875000e+02
2.000000e+02
0.000000e+00
1.250000e+01
2.500000e+01
3.750000e+01
5.000000e+01
6.250000e+01
7.500000e+01
8.750000e+01
1.000000e+02
1.125000e+02
1.250000e+02
1.375000e+02
1.500000e+02
1.625000e+02
1.750000e+02
1.875000e+02
2.000000e+02
0.000000e+00
1.250000e+01
2.500000e+01
3.750000e+01
5.000000e+01
6.250000e+01
7.500000e+01
8.750000e+01
1.000000e+02
1.125000e+02
1.250000e+02
1.375000e+02
1.500000e+02
1.625000e+02
1.750000e+02
1.875000e+02
2.000000e+02
0.000000e+00
1.250000e+01
2.500000e+01
3.750000e+01
5.000000e+01
6.250000e+01
7.500000e+01
8.750000e+01
1.000000e+02
1.125000e+02
1.250000e+02
1.375000e+02
1.500000e+02
1.625000e+02
1.750000e+02
1.875000e+02
2.000000e+02
0.000000e+00
1.250000e+01
2.500000e+01
3.750000e+01
5.000000e+01
6.250000e+01
7.500000e+01
8.750000e+01
1.000000e+02
1.125000e+02
1.250000e+02
1.375000e+02
1.500000e+02
1.625000e+02
1.750000e+02
1.875000e+02
2.000000e+02
0.000000e+00
1.250000e+01
2.500000e+01
3.750000e+01
5.000000e+01
6.250000e+01
7.500000e+01
8.750000e+01
1.000000e+02
1.125000e+02
1.250000e+02
1.375000e+02
1.500000e+02
1.625000e+02
1.750000e+02
1.875000e+02
2.000000e+02
0.000000e+00
1.250000e+01
2.500000e+01
3.750000e+01
5.000000e+01
6.250000e+01
7.500000e+01
8.750000e+01
1.000000e+02
1.125000e+02
1.250000e+02
1.375000e+02
1.500000e+02
1.625000e+02
1.750000e+02
1.875000e+02
2.000000e+02
0.000000e+00
0.000000e+00
0.000000e+00
0.000000e+00
0.000000e+00
0.000000e+00
0.000000e+00
0.000000e+00
0.000000e+00
0.000000e+00
0.000000e+00
0.000000e+00
0.000000e+00
0.000000e+00
0.000000e+00
0.000000e+00
0.000000e+00
1.250000e+01
1.250000e+01
1.250000e+01
1.250000e+01
1.250000e+01
1.250000e+01
1.250000e+01
1.250000e+01
1.250000e+01
1.250000e+01
1.250000e+01
1.250000e+01
1.250000e+01
1.250000e+01
1.250000e+01
1.250000e+01
1.250000e+01
2.500000e+01
2.500000e+01
2.500000e+01
2.500000e+01
2.500000e+01
2.500000e+01
2.500000e+01
2.500000e+01
2.500000e+01
2.500000e+01
2.500000e+01
2.500000e+01
2.500000e+01
2.500000e+01
2.500000e+01
2.500000e+01
2.500000e+01
3.750000e+01
3.750000e+01
3.750000e+01
3.750000e+01
3.750000e+01
3.750000e+01
3.750000e+01
3.750000e+01
3.750000e+01
3.750000e+01
3.750000e+01
3.750000e+01
3.750000e+01
3.750000e+01
3.750000e+01
3.750000e+01
3.750000e+01
5.000000e+01
5.000000e+01
5.000000e+01
5.000000e+01
5.000000e+01
5.000000e+01
5.000000e+01
5.000000e+01
5.000000e+01
5.000000e+01
5.000000e+01
5.000000e+01
5.000000e+01
5.000000e+01
5.000000e+01
5.000000e+01
5.000000e+01
6.250000e+01
6.250000e+01
6.250000e+01
6.250000e+01
6.250000e+01
6.250000e+01
6.250000e+01
6.250000e+01
6.250000e+01
6.250000e+01
6.250000e+01
6.250000e+01
6.250000e+01
6.250000e+01
6.250000e+01
6.250000e+01
6.250000e+01
7.500000e+01
7.500000e+01
7.500000e+01
7.500000e+01
7.500000e+01
7.500000e+01
7.500000e+01
7.500000e+01
7.500000e+01
7.500000e+01
7.500000e+01
7.500000e+01
7.500000e+01
7.500000e+01
7.500000e+01
7.500000e+01
7.500000e+01
8.750000e+01
8.750000e+01
8.750000e+01
8.750000e+01
8.750000e+01
8.750000e+01
8.750000e+01
8.750000e+01
8.750000e+01
8.750000e+01
8.750000e+01
8.750000e+01
8.750000e+01
8.750000e+01
8.750000e+01
8.750000e+01
8.750000e+01
1.000000e+02
1.000000e+02
1.000000e+02
1.000000e+02
1.000000e+02
1.000000e+02
1.000000e+02
1.000000e+02
1.000000e+02
1.000000e+02
1.000000e+02
1.000000e+02
1.000000e+02
1.000000e+02
1.000000e+02
1.000000e+02
1.000000e+02
0.000000e+00
-9.014030e-01
-1.587349e+00
-2.279616e+00
-2.967780e+00
-3.627068e+00
-4.297488e+00
-4.967587e+00
-5.628755e+00
-6.290130e+00
-6.958564e+00
-7.644057e+00
-8.347026e+00
-9.055053e+00
-9.760917e+00
-1.043473e+01
-1.087672e+01
0.000000e+00
-4.548070e-01
-9.420007e-01
-1.442998e+00
-1.959634e+00
-2.453014e+00
-2.954217e+00
-3.457053e+00
-3.951972e+00
-4.444493e+00
-4.937220e+00
-5.431666e+00
-5.917801e+00
-6.358927e+00
-6.668839e+00
-6.745133e+00
-6.905831e+00
0.000000e+00
-2.172035e-01
-4.739902e-01
-7.869449e-01
-1.125358e+00
-1.457135e+00
-1.797264e+00
-2.137548e+00
-2.472262e+00
-2.801528e+00
-3.119891e+00
-3.416739e+00
-3.670050e+00
-3.840742e+00
-3.882538e+00
-3.856910e+00
-4.010074e+00
0.000000e+00
-9.360449e-02
-2.023449e-01
-3.471346e-01
-5.039628e-01
-6.714469e-01
-8.421683e-01
-1.010823e+00
-1.175107e+00
-1.329904e+00
-1.466358e+00
-1.570579e+00
-1.624078e+00
-1.611207e+00
-1.551275e+00
-1.551441e+00
-1.681623e+00
0.000000e+00
-1.198494e-03
-2.374842e-03
-3.272774e-03
-3.481071e-03
-2.359646e-03
1.149018e-03
8.825306e-03
2.312909e-02
4.766039e-02
8.831950e-02
1.527214e-01
2.456547e-01
3.580414e-01
4.472380e-01
4.509979e-01
3.494318e-01
0.000000e+00
9.154693e-02
1.982979e-01
3.413628e-01
4.975135e-01
6.663710e-01
8.424393e-01
1.023240e+00
1.210456e+00
1.405455e+00
1.608654e+00
1.817070e+00
2.020804e+00
2.197571e+00
2.311316e+00
2.331362e+00
2.274148e+00
0.000000e+00
2.161700e-01
4.718445e-01
7.836992e-01
1.121071e+00
1.452450e+00
1.794170e+00
2.138712e+00
2.481259e+00
2.826843e+00
3.174463e+00
3.510983e+00
3.811824e+00
4.048829e+00
4.197303e+00
4.247932e+00
4.234601e+00
0.000000e+00
4.548817e-01
9.418907e-01
1.442725e+00
1.958701e+00
2.450503e+00
2.950136e+00
3.449648e+00
3.936016e+00
4.418244e+00
4.898691e+00
5.355426e+00
5.746965e+00
6.038244e+00
6.216928e+00
6.293991e+00
6.308340e+00
0.000000e+00
9.023886e-01
1.589262e+00
2.282896e+00
2.972186e+00
3.631286e+00
4.301091e+00
4.967178e+00
5.615240e+00
6.257238e+00
6.892720e+00
7.483963e+00
7.966196e+00
8.290015e+00
8.449368e+00
8.488002e+00
8.486674e+00
0.000000e+00
-5.591304e-01
-1.188219e+00
-2.024366e+00
-3.029221e+00
-4.201043e+00
-5.551744e+00
-7.075150e+00
-8.770856e+00
-1.064259e+01
-1.269300e+01
-1.492728e+01
-1.734925e+01
-1.996303e+01
-2.281272e+01
-2.610541e+01
-3.095101e+01
0.000000e+00
-3.615059e-01
-1.020544e+00
-1.844441e+00
-2.854244e+00
-4.027445e+00
-5.376202e+00
-6.901340e+00
-8.598928e+00
-1.047111e+01
-1.252079e+01
-1.475432e+01
-1.718050e+01
-1.981377e+01
-2.269874e+01
-2.600459e+01
-3.001063e+01
0.000000e+00
-3.131401e-01
-9.144494e-01
-1.729937e+00
-2.732419e+00
-3.904370e+00
-5.253139e+00
-6.779497e+00
-8.480169e+00
-1.035704e+01
-1.241393e+01
-1.465893e+01
-1.710421e+01
-1.977143e+01
-2.268955e+01
-2.582660e+01
-2.877672e+01
0.000000e+00
-3.295822e-01
-8.863864e-01
-1.678501e+00
-2.665274e+00
-3.834177e+00
-5.183755e+00
-6.712090e+00
-8.418065e+00
-1.030424e+01
-1.237592e+01
-1.464059e+01
-1.710588e+01
-1.977911e+01
-2.263581e+01
-2.549457e+01
-2.799417e+01
0.000000e+00
-3.382136e-01
-8.873093e-01
-1.665687e+00
-2.647371e+00
-3.815040e+00
-5.167138e+00
-6.699658e+00
-8.411931e+00
-1.030785e+01
-1.239399e+01
-1.467438e+01
-1.714400e+01
-1.978131e+01
-2.250939e+01
-2.514663e+01
-2.740848e+01
0.000000e+00
-3.295354e-01
-8.870983e-01
-1.680973e+00
-2.670744e+00
-3.843915e+00
-5.200200e+00
-6.738186e+00
-8.455542e+00
-1.035667e+01
-1.245007e+01
-1.473574e+01
-1.719336e+01
-1.977346e+01
-2.238069e+01
-2.486392e+01
-2.702635e+01
0.000000e+00
-3.130918e-01
-9.156110e-01
-1.733865e+00
-2.741168e+00
-3.920168e+00
-5.279912e+00
-6.822087e+00
-8.541723e+00
-1.044356e+01
-1.253691e+01
-1.481853e+01
-1.725542e+01
-1.978079e+01
-2.229729e+01
-2.468960e+01
-2.684909e+01
0.000000e+00
-3.614890e-01
-1.021818e+00
-1.848696e+00
-2.863809e+00
-4.045044e+00
-5.406081e+00
-6.948579e+00
-8.667660e+00
-1.056858e+01
-1.265851e+01
-1.492937e+01
-1.734092e+01
-1.982056e+01
-2.227522e+01
-2.461547e+01
-2.680804e+01
0.000000e+00
-5.593084e-01
-1.189692e+00
-2.028868e+00
-3.038874e+00
-4.218752e+00
-5.581621e+00
-7.121124e+00
-8.837112e+00
-1.073709e+01
-1.282215e+01
-1.507501e+01
-1.745193e+01
-1.988548e+01
-2.229314e+01
-2.460162e+01
-2.680927e+01


0.000000e+00
1.355396e-05
2.404905e-05
3.553305e-05
4.957264e-05
6.254457e-05
7.508395e-05
8.806521e-05
1.004728e-04
1.123154e-04
1.240682e-04
1.346614e-04
1.423317e-04
1.473442e-04
1.509331e-04
1.543491e-04
1.582562e-04
0.000000e+00
9.988835e-06
1.931430e-05
2.779952e-05
3.901924e-05
4.914686e-05
5.830719e-05
6.809549e-05
7.744112e-05
8.608041e-05
9.459548e-05
1.017908e-04
1.057968e-04
1.066291e-04
1.066544e-04
1.094729e-04
1.140224e-04
0.000000e+00
7.922969e-06
1.445403e-05
2.022948e-05
2.789402e-05
3.458749e-05
4.060826e-05
4.698511e-05
5.290114e-05
5.815117e-05
6.290002e-05
6.637693e-05
6.776164e-05
6.744008e-05
6.743812e-05
7.016044e-05
7.473357e-05
0.000000e+00
4.101924e-06
6.849973e-06
1.039932e-05
1.392919e-05
1.702964e-05
2.019092e-05
2.319371e-05
2.584464e-05
2.809996e-05
2.974337e-05
3.063387e-05
3.089567e-05
3.112593e-05
3.195972e-05
3.443794e-05
3.828802e-05
0.000000e+00
-2.865714e-08
-6.378436e-08
-1.028125e-07
-1.471914e-07
-1.943341e-07
-2.479923e-07
-3.260948e-07
-4.558846e-07
-7.182528e-07
-1.233401e-06
-1.909896e-06
-2.430741e-06
-2.360701e-06
-1.497463e-06
-9.798737e-08
1.938081e-06
0.000000e+00
-4.151353e-06
-6.954132e-06
-1.057928e-05
-1.418346e-05
-1.735652e-05
-2.061082e-05
-2.368965e-05
-2.641902e-05
-2.894149e-05
-3.110943e-05
-3.281211e-05
-3.396771e-05
-3.445313e-05
-3.461945e-05
-3.463163e-05
-3.404535e-05
0.000000e+00
-7.938849e-06
-1.450728e-05
-2.033680e-05
-2.804817e-05
-3.482010e-05
-4.092120e-05
-4.724996e-05
-5.312596e-05
-5.835188e-05
-6.261915e-05
-6.531578e-05
-6.678548e-05
-6.771450e-05
-6.839270e-05
-6.885357e-05
-6.887230e-05
0.000000e+00
-9.976828e-06
-1.930852e-05
-2.780605e-05
-3.901902e-05
-4.918624e-05
-5.839848e-05
-6.806878e-05
-7.740817e-05
-8.618797e-05
-9.376832e-05
-9.867166e-05
-1.011506e-04
-1.025340e-04
-1.033833e-04
-1.038151e-04
-1.039105e-04
0.000000e+00
-1.354179e-05
-2.400755e-05
-3.545209e-05
-4.941739e-05
-6.231963e-05
-7.480160e-05
-8.760996e-05
-9.994428e-05
-1.119833e-04
-1.229879e-04
-1.310394e-04
-1.358408e-04
-1.382919e-04
-1.393003e-04
-1.395478e-04
-1.395561e-04
0.000000e+00
1.146307e-05
1.897894e-05
2.972012e-05
4.386761e-05
5.973338e-05
7.927021e-05
1.026436e-04
1.288141e-04
1.581704e-04
1.906833e-04
2.251394e-04
2.610217e-04
2.997761e-04
3.450081e-04
3.971519e-04
4.497813e-04
0.000000e+00
6.451863e-06
1.464135e-05
2.410960e-05
3.773539e-05
5.415156e-05
7.368384e-05
9.698734e-05
1.234917e-04
1.530531e-04
1.858637e-04
2.214434e-04
2.590141e-04
2.987283e-04
3.420463e-04
3.916630e-04
4.427905e-04
0.000000e+00
3.137685e-06
1.066329e-05
1.986927e-05
3.297686e-05
4.983633e-05
6.965258e-05
9.294630e-05
1.197513e-04
1.496718e-04
1.828723e-04
2.192756e-04
2.580313e-04
2.980553e-04
3.382176e-04
3.841138e-04
4.331852e-04
0.000000e+00
1.927611e-06
8.599826e-06
1.800514e-05
3.107858e-05
4.797461e-05
6.798169e-05
9.140876e-05
1.183670e-04
1.485886e-04
1.820593e-04
2.185852e-04
2.575144e-04
2.971471e-04
3.351594e-04
3.768751e-04
4.224736e-04
0.000000e+00
1.606137e-06
7.979082e-06
1.741390e-05
3.058784e-05
4.738337e-05
6.745540e-05
9.097947e-05
1.180052e-04
1.484378e-04
1.821050e-04
2.185705e-04
2.572355e-04
2.966406e-04
3.340499e-04
3.726501e-04
4.139356e-04
0.000000e+00
1.942956e-06
8.612828e-06
1.801009e-05
3.105362e-05
4.790478e-05
6.789880e-05
9.131380e-05
1.183057e-04
1.488480e-04
1.827588e-04
2.193159e-04
2.577153e-04
2.965609e-04
3.343277e-04
3.716429e-04
4.092137e-04
0.000000e+00
3.160887e-06
1.068663e-05
1.988345e-05
3.294214e-05
4.972864e-05
6.951792e-05
9.275825e-05
1.196158e-04
1.501233e-04
1.841674e-04
2.207537e-04
2.587045e-04
2.969424e-04
3.344817e-04
3.713159e-04
4.073496e-04
0.000000e+00
6.479092e-06
1.467754e-05
2.413634e-05
3.772045e-05
5.406340e-05
7.352531e-05
9.675678e-05
1.233534e-04
1.534742e-04
1.869859e-04
2.227173e-04
2.597466e-04
2.973401e-04
3.345681e-04
3.711175e-04
4.069317e-04
0.000000e+00
1.148984e-05
1.902033e-05
2.975208e-05
4.386387e-05
5.967631e-05
7.911051e-05
1.023904e-04
1.287503e-04
1.585108e-04
1.910178e-04
2.251413e-04
2.608960e-04
2.977813e-04
3.346981e-04
3.710737e-04
4.069137e-04


2.777828e+00
2.650766e+00
2.719070e+00
2.739000e+00
2.783244e+00
3.047384e+00
3.315862e+00
3.635443e+00
4.092494e+00
4.708985e+00
5.506459e+00
6.319073e+00
6.839643e+00
6.683047e+00
5.703616e+00
4.782610e+00
4.364092e+00
4.239356e+00
4.232847e+00
4.212906e+00
4.209072e+00
4.377785e+00
4.552587e+00
4.760094e+00
5.068845e+00
5.492496e+00
6.044715e+00
6.610266e+00
6.930514e+00
6.568772e+00
5.404192e+00
4.302187e+00
6.256326e+00
6.186849e+00
6.159443e+00
6.103942e+00
6.077787e+00
6.137225e+00
6.188983e+00
6.254106e+00
6.360410e+00
6.509765e+00
6.715975e+00
6.934543e+00
7.015987e+00
6.590743e+00
5.523958e+00
4.607507e+00
7.199352e+00
7.169304e+00
7.147163e+00
7.096334e+00
7.075684e+00
7.076505e+00
7.064508e+00
7.047488e+00
7.027819e+00
7.004096e+00
6.990409e+00
6.997272e+00
6.984692e+00
6.742722e+00
6.186284e+00
5.717028e+00
7.198800e+00
7.168034e+00
7.144871e+00
7.092411e+00
7.069202e+00
7.066483e+00
7.046961e+00
7.013932e+00
6.973758e+00
6.932439e+00
6.901513e+00
6.901219e+00
6.939275e+00
6.928825e+00
6.810612e+00
6.693298e+00
6.254247e+00
6.182670e+00
6.151881e+00
6.091043e+00
6.057595e+00
6.109042e+00
6.141883e+00
6.170686e+00
6.253823e+00
6.409995e+00
6.609310e+00
6.803945e+00
6.980440e+00
7.120535e+00
7.196657e+00
7.224146e+00
4.361442e+00
4.234039e+00
4.223870e+00
4.197456e+00
4.186525e+00
4.352294e+00
4.513567e+00
4.703054e+00
5.061577e+00
5.605502e+00
6.214127e+00
6.720025e+00
7.062186e+00
7.276089e+00
7.397715e+00
7.449857e+00
2.776241e+00
2.647344e+00
2.713776e+00
2.729955e+00
2.771653e+00
3.043256e+00
3.315841e+00
3.651332e+00
4.235244e+00
5.075885e+00
5.976123e+00
6.686054e+00
7.123656e+00
7.360745e+00
7.479295e+00
7.527834e+00


-6.168367e-01
-2.199000e-01
-2.479624e-01
-2.726347e-01
-1.688768e-01
-2.075496e-01
-2.119854e-01
-1.801927e-01
-1.776148e-01
-1.934670e-01
-2.300737e-01
-2.415594e-01
-1.449020e-01
1.147836e-01
4.997494e-01
-6.786698e-01
5.526837e-01
4.145241e-01
3.271023e-01
2.640718e-01
3.051728e-01
2.706805e-01
2.554755e-01
2.642696e-01
2.641874e-01
2.719948e-01
3.027067e-01
3.925301e-01
5.751621e-01
8.009866e-01
7.416034e-01
-1.218413e+00
8.147238e-01
6.643628e-01
5.143719e-01
4.583293e-01
4.480383e-01
4.207144e-01
4.113554e-01
4.132349e-01
4.185713e-01
4.367891e-01
4.719575e-01
5.211692e-01
5.406216e-01
4.280892e-01
1.606011e-01
-3.198150e-01
8.643855e-01
7.339104e-01
5.749687e-01
4.907760e-01
4.500811e-01
4.296154e-01
4.235750e-01
4.243185e-01
4.233874e-01
4.110665e-01
3.755516e-01
2.986335e-01
1.490515e-01
-4.428503e-02
-5.130975e-02
5.116450e-02
8.652459e-01
7.348893e-01
5.755623e-01
4.892537e-01
4.445392e-01
4.161311e-01
3.972780e-01
3.796995e-01
3.492870e-01
2.896495e-01
1.927139e-01
6.479486e-02
-6.255985e-02
-8.220431e-02
1.257510e-01
4.757088e-01
8.167672e-01
6.668088e-01
5.162658e-01
4.567858e-01
4.392222e-01
3.963944e-01
3.616757e-01
3.263620e-01
2.660985e-01
1.775912e-01
7.903987e-02
1.132095e-02
2.938660e-02
1.925891e-01
4.934701e-01
8.194959e-01
5.541444e-01
4.163546e-01
3.283622e-01
2.645639e-01
3.031625e-01
2.596185e-01
2.320393e-01
2.251455e-01
1.809181e-01
1.122193e-01
7.934192e-02
1.436415e-01
3.113893e-01
5.536182e-01
8.054055e-01
9.681063e-01
-6.189624e-01
-2.214498e-01
-2.505618e-01
-2.739030e-01
-1.661673e-01
-2.048905e-01
-2.004239e-01
-1.437437e-01
-1.321738e-01
-1.288806e-01
-1.688740e-02
2.616463e-01
5.967964e-01
8.473086e-01
9.698153e-01
9.994071e-01
1 2 19 18
2 3 20 19
3 4 21 20
4 5 22 21
5 6 23 22
6 7 24 23
7 8 25 24
8 9 26 25
9 10 27 26
10 11 28 27
11 12 29 28
12 13 30 29
13 14 31 30
14 15 32 31
15 16 33 32
16 17 34 33
18 19 36 35
19 20 37 36
20 21 38 37
21 22 39 38
22 23 40 39
23 24 41 40
24 25 42 41
25 26 43 42
26 27 44 43
27 28 45 44
28 29 46 45
29 30 47 46
30 31 48 47
31 32 49 48
32 33 50 49
33 34 51 50
35 36 53 52
36 37 54 53
37 38 55 54
38 39 56 55
39 40 57 56
40 41 58 57
41 42 59 58
42 43 60 59
43 44 61 60
44 45 62 61
45 46 63 62
46 47 64 63
47 48 65 64
48 49 66 65
49 50 67 66
50 51 68 67
52 53 70 69
53 54 71 70
54 55 72 71
55 56 73 72
56 57 74 73
57 58 75 74
58 59 76 75
59 60 77 76
60 61 78 77
61 62 79 78
62 63 80 79
63 64 81 80
64 65 82 81
65 66 83 82
66 67 84 83
67 68 85 84
69 70 87 86
70 71 88 87
71 72 89 88
72 73 90 89
73 74 91 90
74 75 92 91
75 76 93 92
76 77 94 93
77 78 95 94
78 79 96 95
79 80 97 96
80 81 98 97
81 82 99 98
82 83 100 99
83 84 101 100
84 85 102 101
86 87 104 103
87 88 105 104
88 89 106 105
89 90 107 106
90 91 108 107
91 92 109 108
92 93 110 109
93 94 111 110
94 95 112 111
95 96 113 112
96 97 114 113
97 98 115 114
98 99 116 115
99 100 117 116
100 101 118 117
101 102 119 118
103 104 121 120
104 105 122 121
105 106 123 122
106 107 124 123
107 108 125 124
108 109 126 125
109 110 127 126
110 111 128 127
111 112 129 128
112 113 130 129
113 114 131 130
114 115 132 131
115 116 133 132
116 117 134 133
117 118 135 134
118 119 136 135
120 121 138 137
121 122 139 138
122 123 140 139
123 124 141 140
124 125 142 141
125 126 143 142
126 127 144 143
127 128 145 144
128 129 146 145
129 130 147 146
130 131 148 147
131 132 149 148
132 133 150 149
133 134 151 150
134 135 152 151
135 136 153 152
