TITLE = "Solution"
VARIABLES = x, y, u, v, psiu, psiv, t, stress
ZONE T="structure" N=153 E=128 F=FEBLOCK ET=QUADRILATERAL VARLOCATION=([7,8]=cellcentered)
0.000000e+00
1.250000e+01
2.500000e+01
3.750000e+01
5.000000e+01
6.250000e+01
7.500000e+01
8.750000e+01
1.000000e+02
1.125000e+02
1.250000e+02
1.375000e+02
1.500000e+02
1.625000e+02
1.750000e+02
1.875000e+02
2.000000e+02
0.000000e+00
1.250000e+01
2.500000e+01
3.750000e+01
5.000000e+01
6.250000e+01
7.500000e+01
8.750000e+01
1.000000e+02
1.125000e+02
1.250000e+02
1.375000e+02
1.500000e+02
1.625000e+02
1.750000e+02
1.875000e+02
2.000000e+02
0.000000e+00
1.250000e+01
2.500000e+01
3.750000e+01
5.000000e+01
6.250000e+01
7.500000e+01
8.750000e+01
1.000000e+02
1.125000e+02
1.250000e+02
1.375000e+02
1.500000e+02
1.625000e+02
1.750000e+02
1.875000e+02
2.000000e+02
0.000000e+00
1.250000e+01
2.500000e+01
3.750000e+01
5.000000e+01
6.250000e+01
7.500000e+01
8.750000e+01
1.000000e+02
1.125000e+02
1.250000e+02
1.375000e+02
1.500000e+02
1.625000e+02
1.750000e+02
1.875000e+02
2.000000e+02
0.000000e+00
1.250000e+01
2.500000e+01
3.750000e+01
5.000000e+01
6.250000e+01
7.500000e+01
8.750000e+01
1.000000e+02
1.125000e+02
1.250000e+02
1.375000e+02
1.500000e+02
1.625000e+02
1.750000e+02
1.875000e+02
2.000000e+02
0.000000e+00
1.250000e+01
2.500000e+01
3.750000e+01
5.000000e+01
6.250000e+01
7.500000e+01
8.750000e+01
1.000000e+02
1.125000e+02
1.250000e+02
1.375000e+02
1.500000e+02
1.625000e+02
1.750000e+02
1.875000e+02
2.000000e+02
0.000000e+00
1.250000e+01
2.500000e+01
3.750000e+01
5.000000e+01
6.250000e+01
7.500000e+01
8.750000e+01
1.000000e+02
1.125000e+02
1.250000e+02
1.375000e+02
1.500000e+02
1.625000e+02
1.750000e+02
1.875000e+02
2.000000e+02
0.000000e+00
1.250000e+01
2.500000e+01
3.750000e+01
5.000000e+01
6.250000e+01
7.500000e+01
8.750000e+01
1.000000e+02
1.125000e+02
1.250000e+02
1.375000e+02
1.500000e+02
1.625000e+02
1.750000e+02
1.875000e+02
2.000000e+02
0.000000e+00
1.250000e+01
2.500000e+01
3.750000e+01
5.000000e+01
6.250000e+01
7.500000e+01
8.750000e+01
1.000000e+02
1.125000e+02
1.250000e+02
1.375000e+02
1.500000e+02
1.625000e+02
1.750000e+02
1.875000e+02
2.000000e+02
0.000000e+00
0.000000e+00
0.000000e+00
0.000000e+00
0.000000e+00
0.000000e+00
0.000000e+00
0.000000e+00
0.000000e+00
0.000000e+00
0.000000e+00
0.000000e+00
0.000000e+00
0.000000e+00
0.000000e+00
0.000000e+00
0.000000e+00
1.250000e+01
1.250000e+01
1.250000e+01
1.250000e+01
1.250000e+01
1.250000e+01
1.250000e+01
1.250000e+01
1.250000e+01
1.250000e+01
1.250000e+01
1.250000e+01
1.250000e+01
1.250000e+01
1.250000e+01
1.250000e+01
1.250000e+01
2.500000e+01
2.500000e+01
2.500000e+01
2.500000e+01
2.500000e+01
2.500000e+01
2.500000e+01
2.500000e+01
2.500000e+01
2.500000e+01
2.500000e+01
2.500000e+01
2.500000e+01
2.500000e+01
2.500000e+01
2.500000e+01
2.500000e+01
3.750000e+01
3.750000e+01
3.750000e+01
3.750000e+01
3.750000e+01
3.750000e+01
3.750000e+01
3.750000e+01
3.750000e+01
3.750000e+01
3.750000e+01
3.750000e+01
3.750000e+01
3.750000e+01
3.750000e+01
3.750000e+01
3.750000e+01
5.000000e+01
5.000000e+01
5.000000e+01
5.000000e+01
5.000000e+01
5.000000e+01
5.000000e+01
5.000000e+01
5.000000e+01
5.000000e+01
5.000000e+01
5.000000e+01
5.000000e+01
5.000000e+01
5.000000e+01
5.000000e+01
5.000000e+01
6.250000e+01
6.250000e+01
6.250000e+01
6.250000e+01
6.250000e+01
6.250000e+01
6.250000e+01
6.250000e+01
6.250000e+01
6.250000e+01
6.250000e+01
6.250000e+01
6.250000e+01
6.250000e+01
6.250000e+01
6.250000e+01
6.250000e+01
7.500000e+01
7.500000e+01
7.500000e+01
7.500000e+01
7.500000e+01
7.500000e+01
7.500000e+01
7.500000e+01
7.500000e+01
7.500000e+01
7.500000e+01
7.500000e+01
7.500000e+01
7.500000e+01
7.500000e+01
7.500000e+01
7.500000e+01
8.750000e+01
8.750000e+01
8.750000e+01
8.750000e+01
8.750000e+01
8.750000e+01
8.750000e+01
8.750000e+01
8.750000e+01
8.750000e+01
8.750000e+01
8.750000e+01
8.750000e+01
8.750000e+01
8.750000e+01
8.750000e+01
8.750000e+01
1.000000e+02
1.000000e+02
1.000000e+02
1.000000e+02
1.000000e+02
1.000000e+02
1.000000e+02
1.000000e+02
1.000000e+02
1.000000e+02
1.000000e+02
1.000000e+02
1.000000e+02
1.000000e+02
1.000000e+02
1.000000e+02
1.000000e+02
0.000000e+00
-7.156250e-02
-1.317692e-01
-1.871672e-01
-2.387583e-01
-2.864336e-01
-3.300908e-01
-3.696961e-01
-4.053071e-01
-4.370877e-01
-4.653531e-01
-4.906556e-01
-5.139457e-01
-5.368651e-01
-5.622453e-01
-5.934155e-01
-6.168052e-01
0.000000e+00
-4.273583e-02
-8.877537e-02
-1.312900e-01
-1.704590e-01
-2.064314e-01
-2.392818e-01
-2.690542e-01
-2.958021e-01
-3.196081e-01
-3.405930e-01
-3.589079e-01
-3.746698e-01
-3.877164e-01
-3.969189e-01
-3.989359e-01
-4.061674e-01
0.000000e+00
-2.672575e-02
-5.495484e-02
-8.311755e-02
-1.094066e-01
-1.335436e-01
-1.555091e-01
-1.753278e-01
-1.930046e-01
-2.085101e-01
-2.217608e-01
-2.325716e-01
-2.405571e-01
-2.450148e-01
-2.451385e-01
-2.433577e-01
-2.507334e-01
0.000000e+00
-1.289950e-02
-2.655534e-02
-4.029745e-02
-5.343739e-02
-6.554011e-02
-7.651004e-02
-8.631524e-02
-9.489956e-02
-1.021513e-01
-1.078852e-01
-1.118305e-01
-1.136643e-01
-1.132358e-01
-1.114757e-01
-1.119570e-01
-1.174489e-01
0.000000e+00
-1.188313e-05
-2.701407e-05
-4.209534e-05
-5.009937e-05
-3.535498e-05
3.324314e-05
2.115097e-04
5.910162e-04
1.308164e-03
2.540906e-03
4.468015e-03
7.137793e-03
1.015478e-02
1.223882e-02
1.166724e-02
8.031113e-03
0.000000e+00
1.288121e-02
2.651290e-02
4.022955e-02
5.335294e-02
6.547142e-02
7.653669e-02
8.660286e-02
9.575722e-02
1.041059e-01
1.117581e-01
1.187704e-01
1.250210e-01
1.300332e-01
1.329816e-01
1.332155e-01
1.313699e-01
0.000000e+00
2.672275e-02
5.494569e-02
8.309935e-02
1.093782e-01
1.335082e-01
1.554797e-01
1.753373e-01
1.931221e-01
2.088657e-01
2.225818e-01
2.342370e-01
2.436971e-01
2.506913e-01
2.548894e-01
2.562525e-01
2.558222e-01
0.000000e+00
4.275336e-02
8.881349e-02
1.313508e-01
1.705405e-01
2.065187e-01
2.393308e-01
2.689646e-01
2.953752e-01
3.184860e-01
3.381877e-01
3.543438e-01
3.668252e-01
3.755905e-01
3.808192e-01
3.830490e-01
3.834585e-01
0.000000e+00
7.159181e-02
1.318466e-01
1.873121e-01
2.389897e-01
2.867591e-01
3.304791e-01
3.700226e-01
4.052574e-01
4.360002e-01
4.619847e-01
4.828642e-01
4.982959e-01
5.081584e-01
5.129281e-01
5.141053e-01
5.140826e-01
0.000000e+00
-4.331876e-02
-8.503978e-02
-1.391005e-01
-2.054489e-01
-2.839608e-01
-3.737764e-01
-4.738905e-01
-5.832386e-01
-7.007703e-01
-8.255152e-01
-9.567009e-01
-1.094011e+00
-1.238180e+00
-1.392945e+00
-1.570026e+00
-1.824460e+00
0.000000e+00
-2.666783e-02
-7.018971e-02
-1.249208e-01
-1.923536e-01
-2.719369e-01
-3.628405e-01
-4.640348e-01
-5.744427e-01
-6.929949e-01
-8.186942e-01
-9.507329e-01
-1.088746e+00
-1.233447e+00
-1.388152e+00
-1.564159e+00
-1.779784e+00
0.000000e+00
-2.012325e-02
-5.989489e-02
-1.148280e-01
-1.828983e-01
-2.633007e-01
-3.550400e-01
-4.570762e-01
-5.683399e-01
-6.877769e-01
-8.144093e-01
-9.474571e-01
-1.086590e+00
-1.232403e+00
-1.387242e+00
-1.554014e+00
-1.715414e+00
0.000000e+00
-1.734080e-02
-5.477637e-02
-1.089038e-01
-1.772201e-01
-2.581175e-01
-3.504287e-01
-4.530744e-01
-5.650053e-01
-6.851956e-01
-8.126888e-01
-9.466895e-01
-1.086710e+00
-1.232685e+00
-1.384426e+00
-1.537666e+00
-1.678835e+00
0.000000e+00
-1.653923e-02
-5.322727e-02
-1.070139e-01
-1.753489e-01
-2.564476e-01
-3.490242e-01
-4.520003e-01
-5.643466e-01
-6.850542e-01
-8.131449e-01
-9.476979e-01
-1.087843e+00
-1.232548e+00
-1.379645e+00
-1.524105e+00
-1.657188e+00
0.000000e+00
-1.733051e-02
-5.476904e-02
-1.089168e-01
-1.772842e-01
-2.582862e-01
-3.507895e-01
-4.537578e-01
-5.661835e-01
-6.870528e-01
-8.153242e-01
-9.498835e-01
-1.089429e+00
-1.232185e+00
-1.375409e+00
-1.514915e+00
-1.645157e+00
0.000000e+00
-2.010646e-02
-5.988275e-02
-1.148498e-01
-1.830062e-01
-2.635861e-01
-3.556517e-01
-4.582366e-01
-5.703433e-01
-6.909405e-01
-8.189166e-01
-9.529861e-01
-1.091534e+00
-1.232419e+00
-1.372866e+00
-1.509695e+00
-1.639851e+00
0.000000e+00
-2.665208e-02
-7.017914e-02
-1.249497e-01
-1.924831e-01
-2.722725e-01
-3.635527e-01
-4.653760e-01
-5.767440e-01
-6.966065e-01
-8.238064e-01
-9.569663e-01
-1.094333e+00
-1.233650e+00
-1.372229e+00
-1.507537e+00
-1.638605e+00
0.000000e+00
-4.331225e-02
-8.504070e-02
-1.391452e-01
-2.055991e-01
-2.843194e-01
-3.745051e-01
-4.752200e-01
-5.854552e-01
-7.041420e-01
-8.300955e-01
-9.619079e-01
-1.097814e+00
-1.235607e+00
-1.372771e+00
-1.507142e+00
-1.638625e+00


0.000000e+00
9.421911e-08
1.887905e-07
2.766173e-07
3.589772e-07
4.354050e-07
5.055814e-07
5.694880e-07
6.272548e-07
6.791256e-07
7.254452e-07
7.665975e-07
8.028073e-07
8.337910e-07
8.591512e-07
8.808241e-07
9.001100e-07
0.000000e+00
5.299590e-08
1.289557e-07
1.972532e-07
2.598700e-07
3.175854e-07
3.703485e-07
4.181610e-07
4.610625e-07
4.990848e-07
5.322173e-07
5.603633e-07
5.833804e-07
6.017429e-07
6.185154e-07
6.384252e-07
6.589193e-07
0.000000e+00
3.339700e-08
8.150118e-08
1.266319e-07
1.687007e-07
2.073898e-07
2.425481e-07
2.741347e-07
3.021023e-07
3.263576e-07
3.467625e-07
3.632186e-07
3.759842e-07
3.863702e-07
3.973255e-07
4.121298e-07
4.292363e-07
0.000000e+00
1.631610e-08
3.907223e-08
6.117517e-08
8.221162e-08
1.015357e-07
1.189392e-07
1.343432e-07
1.476579e-07
1.587678e-07
1.675770e-07
1.741378e-07
1.788938e-07
1.829665e-07
1.882141e-07
1.968429e-07
2.087188e-07
0.000000e+00
1.703597e-11
2.107075e-11
-9.099637e-12
-1.024525e-10
-3.052182e-10
-6.851793e-10
-1.332539e-09
-2.351958e-09
-3.836525e-09
-5.810688e-09
-8.134886e-09
-1.039390e-08
-1.182665e-08
-1.126124e-08
-7.199756e-09
6.012614e-10
0.000000e+00
-1.628426e-08
-3.902953e-08
-6.117699e-08
-8.236089e-08
-1.020128e-07
-1.200401e-07
-1.365202e-07
-1.515489e-07
-1.651858e-07
-1.774042e-07
-1.880378e-07
-1.967464e-07
-2.030226e-07
-2.062387e-07
-2.056252e-07
-2.013523e-07
0.000000e+00
-3.337695e-08
-8.147158e-08
-1.266143e-07
-1.687359e-07
-2.075552e-07
-2.429783e-07
-2.750458e-07
-3.038145e-07
-3.293027e-07
-3.514488e-07
-3.700784e-07
-3.848963e-07
-3.955562e-07
-4.018819e-07
-4.039884e-07
-4.027267e-07
0.000000e+00
-5.301605e-08
-1.289958e-07
-1.972896e-07
-2.598635e-07
-3.174691e-07
-3.700125e-07
-4.174356e-07
-4.597018e-07
-4.967588e-07
-5.285228e-07
-5.548693e-07
-5.756353e-07
-5.906833e-07
-6.001466e-07
-6.047993e-07
-6.059233e-07
0.000000e+00
-9.433042e-08
-1.889877e-07
-2.768612e-07
-3.591857e-07
-4.354069e-07
-5.050523e-07
-5.678675e-07
-6.236484e-07
-6.722087e-07
-7.134017e-07
-7.471630e-07
-7.735509e-07
-7.927832e-07
-8.053099e-07
-8.117853e-07
-8.138651e-07
0.000000e+00
8.529520e-08
1.663940e-07
2.573952e-07
3.659308e-07
4.931209e-07
6.381311e-07
7.996207e-07
9.760450e-07
1.165904e-06
1.367914e-06
1.581282e-06
1.806440e-06
2.046623e-06
2.307762e-06
2.585152e-06
2.860364e-06
0.000000e+00
5.159521e-08
1.304166e-07
2.221315e-07
3.327803e-07
4.625270e-07
6.102821e-07
7.745300e-07
9.536863e-07
1.146230e-06
1.350854e-06
1.566706e-06
1.793805e-06
2.033575e-06
2.288359e-06
2.558713e-06
2.830302e-06
0.000000e+00
3.286438e-08
1.015748e-07
1.931894e-07
3.054328e-07
4.373955e-07
5.875392e-07
7.542298e-07
9.358556e-07
1.130889e-06
1.337978e-06
1.556057e-06
1.784399e-06
2.022332e-06
2.269463e-06
2.529946e-06
2.792782e-06
0.000000e+00
2.411320e-08
8.640195e-08
1.763131e-07
2.892919e-07
4.226278e-07
5.743264e-07
7.426500e-07
9.259647e-07
1.122716e-06
1.331438e-06
1.550738e-06
1.779145e-06
2.014820e-06
2.256289e-06
2.506727e-06
2.756473e-06
0.000000e+00
2.159831e-08
8.180148e-08
1.708844e-07
2.840617e-07
4.179475e-07
5.703171e-07
7.393861e-07
9.235000e-07
1.121046e-06
1.330407e-06
1.549879e-06
1.777502e-06
2.010839e-06
2.247496e-06
2.488948e-06
2.725818e-06
0.000000e+00
2.413268e-08
8.647500e-08
1.764938e-07
2.896510e-07
4.232616e-07
5.753550e-07
7.442002e-07
9.281251e-07
1.125443e-06
1.334392e-06
1.553042e-06
1.779146e-06
2.009932e-06
2.242408e-06
2.476357e-06
2.703835e-06
0.000000e+00
3.289580e-08
1.017021e-07
1.935060e-07
3.060625e-07
4.385084e-07
5.893475e-07
7.569577e-07
9.396605e-07
1.135698e-06
1.343185e-06
1.560036e-06
1.783846e-06
2.011724e-06
2.240477e-06
2.468812e-06
2.690443e-06
0.000000e+00
5.163511e-08
1.305781e-07
2.225214e-07
3.335488e-07
4.638782e-07
6.124686e-07
7.778128e-07
9.582352e-07
1.151920e-06
1.356886e-06
1.570933e-06
1.791573e-06
2.015967e-06
2.241170e-06
2.465420e-06
2.684050e-06
0.000000e+00
8.536132e-08
1.665829e-07
2.578158e-07
3.667310e-07
4.944956e-07
6.403109e-07
8.028237e-07
9.803639e-07
1.171086e-06
1.372960e-06
1.583729e-06
1.800882e-06
2.021692e-06
2.243569e-06
2.464868e-06
2.682185e-06


2.090991e-01
2.090990e-01
2.090992e-01
2.090995e-01
2.090999e-01
2.091002e-01
2.091004e-01
2.091006e-01
2.091009e-01
2.091010e-01
2.091012e-01
2.091013e-01
2.091014e-01
2.091013e-01
2.091011e-01
2.091010e-01
2.090996e-01
2.090996e-01
2.090997e-01
2.090999e-01
2.091002e-01
2.091004e-01
2.091006e-01
2.091008e-01
2.091010e-01
2.091011e-01
2.091012e-01
2.091013e-01
2.091014e-01
2.091013e-01
2.091011e-01
2.091010e-01
2.091005e-01
2.091004e-01
2.091005e-01
2.091006e-01
2.091007e-01
2.091009e-01
2.091010e-01
2.091011e-01
2.091012e-01
2.091013e-01
2.091013e-01
2.091014e-01
2.091014e-01
2.091013e-01
2.091011e-01
2.091010e-01
2.091011e-01
2.091011e-01
2.091010e-01
2.091011e-01
2.091011e-01
2.091012e-01
2.091012e-01
2.091013e-01
2.091013e-01
2.091013e-01
2.091014e-01
2.091014e-01
2.091014e-01
2.091013e-01
2.091013e-01
2.091012e-01
2.091011e-01
2.091011e-01
2.091010e-01
2.091011e-01
2.091011e-01
2.091012e-01
2.091012e-01
2.091013e-01
2.091013e-01
2.091013e-01
2.091013e-01
2.091014e-01
2.091014e-01
2.091014e-01
2.091014e-01
2.091014e-01
2.091005e-01
2.091004e-01
2.091005e-01
2.091006e-01
2.091007e-01
2.091008e-01
2.091010e-01
2.091011e-01
2.091011e-01
2.091012e-01
2.091013e-01
2.091013e-01
2.091014e-01
2.091014e-01
2.091015e-01
2.091015e-01
2.090996e-01
2.090996e-01
2.090997e-01
2.090999e-01
2.091002e-01
2.091004e-01
2.091006e-01
2.091008e-01
2.091010e-01
2.091011e-01
2.091012e-01
2.091013e-01
2.091014e-01
2.091015e-01
2.091016e-01
2.091016e-01
2.090991e-01
2.090990e-01
2.090992e-01
2.090995e-01
2.090999e-01
2.091002e-01
2.091004e-01
2.091007e-01
2.091009e-01
2.091011e-01
2.091012e-01
2.091014e-01
2.091015e-01
2.091016e-01
2.091016e-01
2.091017e-01


9.884782e-01
9.901121e-01
9.916235e-01
9.927870e-01
9.938670e-01
9.948629e-01
9.957701e-01
9.965782e-01
9.972786e-01
9.978644e-01
9.983302e-01
9.986714e-01
9.988835e-01
9.989591e-01
9.990137e-01
9.956465e-01
9.956411e-01
9.948923e-01
9.953741e-01
9.960028e-01
9.965889e-01
9.971217e-01
9.976040e-01
9.980408e-01
9.984363e-01
9.987946e-01
9.991196e-01
9.994140e-01
9.996708e-01
9.998389e-01
9.994137e-01
9.936497e-01
9.984855e-01
9.980554e-01
9.979393e-01
9.981026e-01
9.983175e-01
9.985255e-01
9.987187e-01
9.989013e-01
9.990781e-01
9.992505e-01
9.994115e-01
9.995362e-01
9.995622e-01
9.993377e-01
9.985233e-01
9.970585e-01
9.996918e-01
9.993781e-01
9.991844e-01
9.991352e-01
9.991548e-01
9.991878e-01
9.992207e-01
9.992528e-01
9.992843e-01
9.993107e-01
9.993181e-01
9.992788e-01
9.991543e-01
9.989308e-01
9.987412e-01
9.986933e-01
9.996929e-01
9.993798e-01
9.991858e-01
9.991349e-01
9.991500e-01
9.991737e-01
9.991902e-01
9.991957e-01
9.991882e-01
9.991639e-01
9.991187e-01
9.990535e-01
9.989915e-01
9.990038e-01
9.991792e-01
9.994828e-01
9.984876e-01
9.980587e-01
9.979425e-01
9.981027e-01
9.983091e-01
9.984998e-01
9.986611e-01
9.987908e-01
9.988879e-01
9.989533e-01
9.989946e-01
9.990351e-01
9.991200e-01
9.992980e-01
9.995655e-01
9.998420e-01
9.956407e-01
9.948920e-01
9.953734e-01
9.960010e-01
9.965844e-01
9.971112e-01
9.975823e-01
9.979993e-01
9.983628e-01
9.986734e-01
9.989364e-01
9.991661e-01
9.993872e-01
9.996191e-01
9.998360e-01
9.999725e-01
9.884703e-01
9.900998e-01
9.916084e-01
9.927701e-01
9.938518e-01
9.948573e-01
9.957889e-01
9.966442e-01
9.974236e-01
9.981255e-01
9.987415e-01
9.992526e-01
9.996327e-01
9.998673e-01
9.999740e-01
9.999994e-01
1 2 19 18
2 3 20 19
3 4 21 20
4 5 22 21
5 6 23 22
6 7 24 23
7 8 25 24
8 9 26 25
9 10 27 26
10 11 28 27
11 12 29 28
12 13 30 29
13 14 31 30
14 15 32 31
15 16 33 32
16 17 34 33
18 19 36 35
19 20 37 36
20 21 38 37
21 22 39 38
22 23 40 39
23 24 41 40
24 25 42 41
25 26 43 42
26 27 44 43
27 28 45 44
28 29 46 45
29 30 47 46
30 31 48 47
31 32 49 48
32 33 50 49
33 34 51 50
35 36 53 52
36 37 54 53
37 38 55 54
38 39 56 55
39 40 57 56
40 41 58 57
41 42 59 58
42 43 60 59
43 44 61 60
44 45 62 61
45 46 63 62
46 47 64 63
47 48 65 64
48 49 66 65
49 50 67 66
50 51 68 67
52 53 70 69
53 54 71 70
54 55 72 71
55 56 73 72
56 57 74 73
57 58 75 74
58 59 76 75
59 60 77 76
60 61 78 77
61 62 79 78
62 63 80 79
63 64 81 80
64 65 82 81
65 66 83 82
66 67 84 83
67 68 85 84
69 70 87 86
70 71 88 87
71 72 89 88
72 73 90 89
73 74 91 90
74 75 92 91
75 76 93 92
76 77 94 93
77 78 95 94
78 79 96 95
79 80 97 96
80 81 98 97
81 82 99 98
82 83 100 99
83 84 101 100
84 85 102 101
86 87 104 103
87 88 105 104
88 89 106 105
89 90 107 106
90 91 108 107
91 92 109 108
92 93 110 109
93 94 111 110
94 95 112 111
95 96 113 112
96 97 114 113
97 98 115 114
98 99 116 115
99 100 117 116
100 101 118 117
101 102 119 118
103 104 121 120
104 105 122 121
105 106 123 122
106 107 124 123
107 108 125 124
108 109 126 125
109 110 127 126
110 111 128 127
111 112 129 128
112 113 130 129
113 114 131 130
114 115 132 131
115 116 133 132
116 117 134 133
117 118 135 134
118 119 136 135
120 121 138 137
121 122 139 138
122 123 140 139
123 124 141 140
124 125 142 141
125 126 143 142
126 127 144 143
127 128 145 144
128 129 146 145
129 130 147 146
130 131 148 147
131 132 149 148
132 133 150 149
133 134 151 150
134 135 152 151
135 136 153 152
