TITLE = "Solution"
VARIABLES = x, y, u, v, psiu, psiv, t, stress
ZONE T="structure" N=153 E=128 F=FEBLOCK ET=QUADRILATERAL VARLOCATION=([7,8]=cellcentered)
0.000000e+00
1.250000e+01
2.500000e+01
3.750000e+01
5.000000e+01
6.250000e+01
7.500000e+01
8.750000e+01
1.000000e+02
1.125000e+02
1.250000e+02
1.375000e+02
1.500000e+02
1.625000e+02
1.750000e+02
1.875000e+02
2.000000e+02
0.000000e+00
1.250000e+01
2.500000e+01
3.750000e+01
5.000000e+01
6.250000e+01
7.500000e+01
8.750000e+01
1.000000e+02
1.125000e+02
1.250000e+02
1.375000e+02
1.500000e+02
1.625000e+02
1.750000e+02
1.875000e+02
2.000000e+02
0.000000e+00
1.250000e+01
2.500000e+01
3.750000e+01
5.000000e+01
6.250000e+01
7.500000e+01
8.750000e+01
1.000000e+02
1.125000e+02
1.250000e+02
1.375000e+02
1.500000e+02
1.625000e+02
1.750000e+02
1.875000e+02
2.000000e+02
0.000000e+00
1.250000e+01
2.500000e+01
3.750000e+01
5.000000e+01
6.250000e+01
7.500000e+01
8.750000e+01
1.000000e+02
1.125000e+02
1.250000e+02
1.375000e+02
1.500000e+02
1.625000e+02
1.750000e+02
1.875000e+02
2.000000e+02
0.000000e+00
1.250000e+01
2.500000e+01
3.750000e+01
5.000000e+01
6.250000e+01
7.500000e+01
8.750000e+01
1.000000e+02
1.125000e+02
1.250000e+02
1.375000e+02
1.500000e+02
1.625000e+02
1.750000e+02
1.875000e+02
2.000000e+02
0.000000e+00
1.250000e+01
2.500000e+01
3.750000e+01
5.000000e+01
6.250000e+01
7.500000e+01
8.750000e+01
1.000000e+02
1.125000e+02
1.250000e+02
1.375000e+02
1.500000e+02
1.625000e+02
1.750000e+02
1.875000e+02
2.000000e+02
0.000000e+00
1.250000e+01
2.500000e+01
3.750000e+01
5.000000e+01
6.250000e+01
7.500000e+01
8.750000e+01
1.000000e+02
1.125000e+02
1.250000e+02
1.375000e+02
1.500000e+02
1.625000e+02
1.750000e+02
1.875000e+02
2.000000e+02
0.000000e+00
1.250000e+01
2.500000e+01
3.750000e+01
5.000000e+01
6.250000e+01
7.500000e+01
8.750000e+01
1.000000e+02
1.125000e+02
1.250000e+02
1.375000e+02
1.500000e+02
1.625000e+02
1.750000e+02
1.875000e+02
2.000000e+02
0.000000e+00
1.250000e+01
2.500000e+01
3.750000e+01
5.000000e+01
6.250000e+01
7.500000e+01
8.750000e+01
1.000000e+02
1.125000e+02
1.250000e+02
1.375000e+02
1.500000e+02
1.625000e+02
1.750000e+02
1.875000e+02
2.000000e+02
0.000000e+00
0.000000e+00
0.000000e+00
0.000000e+00
0.000000e+00
0.000000e+00
0.000000e+00
0.000000e+00
0.000000e+00
0.000000e+00
0.000000e+00
0.000000e+00
0.000000e+00
0.000000e+00
0.000000e+00
0.000000e+00
0.000000e+00
1.250000e+01
1.250000e+01
1.250000e+01
1.250000e+01
1.250000e+01
1.250000e+01
1.250000e+01
1.250000e+01
1.250000e+01
1.250000e+01
1.250000e+01
1.250000e+01
1.250000e+01
1.250000e+01
1.250000e+01
1.250000e+01
1.250000e+01
2.500000e+01
2.500000e+01
2.500000e+01
2.500000e+01
2.500000e+01
2.500000e+01
2.500000e+01
2.500000e+01
2.500000e+01
2.500000e+01
2.500000e+01
2.500000e+01
2.500000e+01
2.500000e+01
2.500000e+01
2.500000e+01
2.500000e+01
3.750000e+01
3.750000e+01
3.750000e+01
3.750000e+01
3.750000e+01
3.750000e+01
3.750000e+01
3.750000e+01
3.750000e+01
3.750000e+01
3.750000e+01
3.750000e+01
3.750000e+01
3.750000e+01
3.750000e+01
3.750000e+01
3.750000e+01
5.000000e+01
5.000000e+01
5.000000e+01
5.000000e+01
5.000000e+01
5.000000e+01
5.000000e+01
5.000000e+01
5.000000e+01
5.000000e+01
5.000000e+01
5.000000e+01
5.000000e+01
5.000000e+01
5.000000e+01
5.000000e+01
5.000000e+01
6.250000e+01
6.250000e+01
6.250000e+01
6.250000e+01
6.250000e+01
6.250000e+01
6.250000e+01
6.250000e+01
6.250000e+01
6.250000e+01
6.250000e+01
6.250000e+01
6.250000e+01
6.250000e+01
6.250000e+01
6.250000e+01
6.250000e+01
7.500000e+01
7.500000e+01
7.500000e+01
7.500000e+01
7.500000e+01
7.500000e+01
7.500000e+01
7.500000e+01
7.500000e+01
7.500000e+01
7.500000e+01
7.500000e+01
7.500000e+01
7.500000e+01
7.500000e+01
7.500000e+01
7.500000e+01
8.750000e+01
8.750000e+01
8.750000e+01
8.750000e+01
8.750000e+01
8.750000e+01
8.750000e+01
8.750000e+01
8.750000e+01
8.750000e+01
8.750000e+01
8.750000e+01
8.750000e+01
8.750000e+01
8.750000e+01
8.750000e+01
8.750000e+01
1.000000e+02
1.000000e+02
1.000000e+02
1.000000e+02
1.000000e+02
1.000000e+02
1.000000e+02
1.000000e+02
1.000000e+02
1.000000e+02
1.000000e+02
1.000000e+02
1.000000e+02
1.000000e+02
1.000000e+02
1.000000e+02
1.000000e+02
0.000000e+00
-7.532555e-02
-1.386982e-01
-1.970093e-01
-2.513133e-01
-3.014957e-01
-3.474487e-01
-3.891368e-01
-4.266205e-01
-4.600725e-01
-4.898243e-01
-5.164576e-01
-5.409725e-01
-5.650972e-01
-5.918123e-01
-6.246217e-01
-6.492415e-01
0.000000e+00
-4.498304e-02
-9.344350e-02
-1.381937e-01
-1.794224e-01
-2.172865e-01
-2.518644e-01
-2.832025e-01
-3.113571e-01
-3.364150e-01
-3.585035e-01
-3.777816e-01
-3.943725e-01
-4.081052e-01
-4.177917e-01
-4.199148e-01
-4.275266e-01
0.000000e+00
-2.813107e-02
-5.784453e-02
-8.748815e-02
-1.151596e-01
-1.405659e-01
-1.636865e-01
-1.845474e-01
-2.031539e-01
-2.194748e-01
-2.334223e-01
-2.448017e-01
-2.532072e-01
-2.578993e-01
-2.580295e-01
-2.561551e-01
-2.639186e-01
0.000000e+00
-1.357778e-02
-2.795170e-02
-4.241641e-02
-5.624733e-02
-6.898648e-02
-8.053330e-02
-9.085413e-02
-9.988990e-02
-1.075230e-01
-1.135584e-01
-1.177112e-01
-1.196414e-01
-1.191905e-01
-1.173378e-01
-1.178444e-01
-1.236251e-01
0.000000e+00
-1.250824e-05
-2.843511e-05
-4.430972e-05
-5.273492e-05
-3.721536e-05
3.499013e-05
2.226317e-04
6.220967e-04
1.376960e-03
2.674534e-03
4.702993e-03
7.513181e-03
1.068884e-02
1.288248e-02
1.228084e-02
8.453490e-03
0.000000e+00
1.355854e-02
2.790702e-02
4.234494e-02
5.615843e-02
6.891418e-02
8.056134e-02
9.115688e-02
1.007927e-01
1.095804e-01
1.176351e-01
1.250161e-01
1.315954e-01
1.368712e-01
1.399747e-01
1.402209e-01
1.382783e-01
0.000000e+00
2.812792e-02
5.783491e-02
8.746900e-02
1.151297e-01
1.405287e-01
1.636556e-01
1.845574e-01
2.032775e-01
2.198491e-01
2.342866e-01
2.465547e-01
2.565123e-01
2.638744e-01
2.682932e-01
2.697281e-01
2.692750e-01
0.000000e+00
4.500149e-02
9.348362e-02
1.382577e-01
1.795082e-01
2.173784e-01
2.519160e-01
2.831082e-01
3.109076e-01
3.352339e-01
3.559717e-01
3.729775e-01
3.861153e-01
3.953416e-01
4.008453e-01
4.031923e-01
4.036234e-01
0.000000e+00
7.535641e-02
1.387796e-01
1.971618e-01
2.515569e-01
3.018383e-01
3.478574e-01
3.894804e-01
4.265682e-01
4.589278e-01
4.862788e-01
5.082564e-01
5.244996e-01
5.348808e-01
5.399013e-01
5.411405e-01
5.411166e-01
0.000000e+00
-4.559665e-02
-8.951158e-02
-1.464151e-01
-2.162525e-01
-2.988930e-01
-3.934316e-01
-4.988103e-01
-6.139086e-01
-7.376209e-01
-8.689257e-01
-1.007010e+00
-1.151541e+00
-1.303291e+00
-1.466196e+00
-1.652589e+00
-1.920402e+00
0.000000e+00
-2.807014e-02
-7.388063e-02
-1.314898e-01
-2.024685e-01
-2.862367e-01
-3.819206e-01
-4.884363e-01
-6.046501e-01
-7.294366e-01
-8.617460e-01
-1.000728e+00
-1.145999e+00
-1.298309e+00
-1.461150e+00
-1.646412e+00
-1.873378e+00
0.000000e+00
-2.118143e-02
-6.304448e-02
-1.208662e-01
-1.925160e-01
-2.771465e-01
-3.737098e-01
-4.811118e-01
-5.982264e-01
-7.239442e-01
-8.572358e-01
-9.972802e-01
-1.143729e+00
-1.297211e+00
-1.460192e+00
-1.635734e+00
-1.805622e+00
0.000000e+00
-1.825269e-02
-5.765681e-02
-1.146305e-01
-1.865393e-01
-2.716907e-01
-3.688561e-01
-4.768995e-01
-5.947164e-01
-7.212272e-01
-8.554247e-01
-9.964722e-01
-1.143856e+00
-1.297507e+00
-1.457228e+00
-1.618527e+00
-1.767120e+00
0.000000e+00
-1.740898e-02
-5.602625e-02
-1.126413e-01
-1.845696e-01
-2.699329e-01
-3.673777e-01
-4.757690e-01
-5.940231e-01
-7.210783e-01
-8.559049e-01
-9.975336e-01
-1.145049e+00
-1.297363e+00
-1.452196e+00
-1.604252e+00
-1.744334e+00
0.000000e+00
-1.824185e-02
-5.764910e-02
-1.146443e-01
-1.866067e-01
-2.718682e-01
-3.692359e-01
-4.776189e-01
-5.959566e-01
-7.231820e-01
-8.581988e-01
-9.998342e-01
-1.146718e+00
-1.296981e+00
-1.447737e+00
-1.594579e+00
-1.731671e+00
0.000000e+00
-2.116376e-02
-6.303170e-02
-1.208891e-01
-1.926296e-01
-2.774469e-01
-3.743538e-01
-4.823332e-01
-6.003351e-01
-7.272741e-01
-8.619801e-01
-1.003100e+00
-1.148933e+00
-1.297227e+00
-1.445060e+00
-1.589085e+00
-1.726085e+00
0.000000e+00
-2.805357e-02
-7.386950e-02
-1.315202e-01
-2.026049e-01
-2.865900e-01
-3.826702e-01
-4.898481e-01
-6.070725e-01
-7.332382e-01
-8.671271e-01
-1.007289e+00
-1.151880e+00
-1.298523e+00
-1.444390e+00
-1.586813e+00
-1.724774e+00
0.000000e+00
-4.558980e-02
-8.951254e-02
-1.464622e-01
-2.164105e-01
-2.992705e-01
-3.941986e-01
-5.002098e-01
-6.162418e-01
-7.411700e-01
-8.737470e-01
-1.012491e+00
-1.155544e+00
-1.300583e+00
-1.444960e+00
-1.586397e+00
-1.724795e+00


0.000000e+00
5.107017e-08
1.023669e-07
1.499798e-07
1.945801e-07
2.359168e-07
2.738252e-07
3.083062e-07
3.394404e-07
3.673695e-07
3.922883e-07
4.144114e-07
4.338675e-07
4.505123e-07
4.641397e-07
4.757972e-07
4.861826e-07
0.000000e+00
2.879095e-08
7.002839e-08
1.070629e-07
1.409691e-07
1.721773e-07
2.006702e-07
2.264586e-07
2.495731e-07
2.700392e-07
2.878584e-07
3.029847e-07
3.153465e-07
3.252020e-07
3.342051e-07
3.449106e-07
3.559450e-07
0.000000e+00
1.818659e-08
4.431412e-08
6.879208e-08
9.157314e-08
1.124907e-07
1.314722e-07
1.485039e-07
1.635676e-07
1.766192e-07
1.875894e-07
1.964294e-07
2.032814e-07
2.088528e-07
2.147340e-07
2.226954e-07
2.319047e-07
0.000000e+00
8.898161e-09
2.125643e-08
3.324755e-08
4.464128e-08
5.508984e-08
6.448568e-08
7.279123e-08
7.996210e-08
8.593957e-08
9.067470e-08
9.419810e-08
9.675042e-08
9.893657e-08
1.017566e-07
1.063976e-07
1.127880e-07
0.000000e+00
8.977259e-12
1.092267e-11
-5.554793e-12
-5.604508e-11
-1.654018e-10
-3.700433e-10
-7.184488e-10
-1.266801e-09
-2.065022e-09
-3.126038e-09
-4.374405e-09
-5.586482e-09
-6.353148e-09
-6.046020e-09
-3.861381e-09
3.332425e-10
0.000000e+00
-8.881369e-09
-2.123418e-08
-3.324967e-08
-4.472316e-08
-5.534847e-08
-6.508020e-08
-7.396464e-08
-8.205723e-08
-8.939304e-08
-9.596022e-08
-1.016714e-07
-1.063458e-07
-1.097124e-07
-1.114367e-07
-1.111060e-07
-1.088100e-07
0.000000e+00
-1.817597e-08
-4.429862e-08
-6.878336e-08
-9.159318e-08
-1.125811e-07
-1.317052e-07
-1.489955e-07
-1.644896e-07
-1.782032e-07
-1.901086e-07
-2.001164e-07
-2.080723e-07
-2.137936e-07
-2.171884e-07
-2.183189e-07
-2.176410e-07
0.000000e+00
-2.880181e-08
-7.005014e-08
-1.070828e-07
-1.409662e-07
-1.721157e-07
-2.004906e-07
-2.260699e-07
-2.488431e-07
-2.687903e-07
-2.858742e-07
-3.000344e-07
-3.111892e-07
-3.192695e-07
-3.243500e-07
-3.268476e-07
-3.274507e-07
0.000000e+00
-5.113007e-08
-1.024730e-07
-1.501110e-07
-1.946922e-07
-2.359178e-07
-2.735409e-07
-3.074354e-07
-3.375029e-07
-3.636542e-07
-3.858203e-07
-4.039752e-07
-4.181574e-07
-4.284893e-07
-4.352163e-07
-4.386923e-07
-4.398081e-07
0.000000e+00
4.623499e-08
9.011794e-08
1.393299e-07
1.980273e-07
2.668160e-07
3.452365e-07
4.325542e-07
5.279258e-07
6.305349e-07
7.396830e-07
8.549392e-07
9.765318e-07
1.106202e-06
1.247152e-06
1.396873e-06
1.545440e-06
0.000000e+00
2.793380e-08
7.058654e-08
1.202095e-07
1.800784e-07
2.502748e-07
3.301994e-07
4.190229e-07
5.158810e-07
6.199465e-07
7.305092e-07
8.471063e-07
9.697459e-07
1.099194e-06
1.236718e-06
1.382639e-06
1.529247e-06
0.000000e+00
1.775398e-08
5.493301e-08
1.045253e-07
1.652805e-07
2.366955e-07
3.179266e-07
4.080808e-07
5.062798e-07
6.116933e-07
7.235874e-07
8.413867e-07
9.646971e-07
1.093157e-06
1.226557e-06
1.367154e-06
1.509042e-06
0.000000e+00
1.300450e-08
4.670842e-08
9.538960e-08
1.565555e-07
2.287234e-07
3.108023e-07
4.018433e-07
5.009566e-07
6.072979e-07
7.200734e-07
8.385305e-07
9.618767e-07
1.089122e-06
1.219475e-06
1.354661e-06
1.489497e-06
0.000000e+00
1.164154e-08
4.421743e-08
9.245249e-08
1.537294e-07
2.261975e-07
3.086407e-07
4.000849e-07
4.996297e-07
6.063994e-07
7.195192e-07
8.380698e-07
9.609945e-07
1.086984e-06
1.214752e-06
1.345103e-06
1.473005e-06
0.000000e+00
1.301505e-08
4.674773e-08
9.548665e-08
1.567483e-07
2.290637e-07
3.113545e-07
4.026757e-07
5.021169e-07
6.087631e-07
7.216609e-07
8.397689e-07
9.618775e-07
1.086497e-06
1.212022e-06
1.338340e-06
1.461187e-06
0.000000e+00
1.777099e-08
5.500150e-08
1.046954e-07
1.656187e-07
2.372931e-07
3.188976e-07
4.095459e-07
5.083237e-07
6.142769e-07
7.263862e-07
8.435259e-07
9.644020e-07
1.087461e-06
1.210987e-06
1.334289e-06
1.453992e-06
0.000000e+00
2.795541e-08
7.067353e-08
1.204192e-07
1.804913e-07
2.510006e-07
3.313738e-07
4.207863e-07
5.183248e-07
6.230036e-07
7.337513e-07
8.493807e-07
9.685523e-07
1.089739e-06
1.211360e-06
1.332469e-06
1.450559e-06
0.000000e+00
4.627079e-08
9.021979e-08
1.395562e-07
1.984575e-07
2.675547e-07
3.464075e-07
4.342748e-07
5.302460e-07
6.333192e-07
7.423954e-07
8.562573e-07
9.735523e-07
1.092814e-06
1.212648e-06
1.332172e-06
1.449559e-06


2.200940e-01
2.200939e-01
2.200942e-01
2.200949e-01
2.200955e-01
2.200961e-01
2.200966e-01
2.200970e-01
2.200974e-01
2.200977e-01
2.200980e-01
2.200982e-01
2.200984e-01
2.200983e-01
2.200979e-01
2.200977e-01
2.200951e-01
2.200949e-01
2.200951e-01
2.200956e-01
2.200961e-01
2.200965e-01
2.200969e-01
2.200973e-01
2.200976e-01
2.200979e-01
2.200981e-01
2.200983e-01
2.200984e-01
2.200982e-01
2.200979e-01
2.200976e-01
2.200968e-01
2.200966e-01
2.200966e-01
2.200969e-01
2.200971e-01
2.200974e-01
2.200976e-01
2.200978e-01
2.200980e-01
2.200982e-01
2.200983e-01
2.200984e-01
2.200984e-01
2.200982e-01
2.200979e-01
2.200978e-01
2.200979e-01
2.200978e-01
2.200977e-01
2.200978e-01
2.200979e-01
2.200980e-01
2.200981e-01
2.200982e-01
2.200983e-01
2.200983e-01
2.200984e-01
2.200984e-01
2.200984e-01
2.200983e-01
2.200982e-01
2.200981e-01
2.200979e-01
2.200978e-01
2.200977e-01
2.200978e-01
2.200979e-01
2.200980e-01
2.200981e-01
2.200982e-01
2.200982e-01
2.200983e-01
2.200983e-01
2.200984e-01
2.200984e-01
2.200984e-01
2.200984e-01
2.200984e-01
2.200968e-01
2.200966e-01
2.200966e-01
2.200969e-01
2.200971e-01
2.200974e-01
2.200976e-01
2.200978e-01
2.200979e-01
2.200981e-01
2.200982e-01
2.200983e-01
2.200984e-01
2.200985e-01
2.200986e-01
2.200986e-01
2.200951e-01
2.200949e-01
2.200951e-01
2.200956e-01
2.200961e-01
2.200965e-01
2.200969e-01
2.200973e-01
2.200976e-01
2.200979e-01
2.200981e-01
2.200983e-01
2.200985e-01
2.200986e-01
2.200987e-01
2.200988e-01
2.200940e-01
2.200939e-01
2.200942e-01
2.200949e-01
2.200955e-01
2.200961e-01
2.200966e-01
2.200970e-01
2.200974e-01
2.200978e-01
2.200981e-01
2.200983e-01
2.200985e-01
2.200987e-01
2.200988e-01
2.200989e-01


9.872346e-01
9.890448e-01
9.907194e-01
9.920085e-01
9.932050e-01
9.943083e-01
9.953135e-01
9.962088e-01
9.969848e-01
9.976338e-01
9.981499e-01
9.985279e-01
9.987629e-01
9.988468e-01
9.989073e-01
9.951766e-01
9.951706e-01
9.943411e-01
9.948748e-01
9.955713e-01
9.962208e-01
9.968110e-01
9.973453e-01
9.978293e-01
9.982675e-01
9.986644e-01
9.990246e-01
9.993507e-01
9.996352e-01
9.998216e-01
9.993504e-01
9.929642e-01
9.983220e-01
9.978455e-01
9.977169e-01
9.978978e-01
9.981358e-01
9.983664e-01
9.985804e-01
9.987827e-01
9.989786e-01
9.991696e-01
9.993480e-01
9.994861e-01
9.995150e-01
9.992662e-01
9.983639e-01
9.967409e-01
9.996585e-01
9.993110e-01
9.990963e-01
9.990419e-01
9.990636e-01
9.991001e-01
9.991365e-01
9.991721e-01
9.992071e-01
9.992363e-01
9.992445e-01
9.992010e-01
9.990630e-01
9.988154e-01
9.986054e-01
9.985522e-01
9.996598e-01
9.993128e-01
9.990980e-01
9.990415e-01
9.990582e-01
9.990845e-01
9.991028e-01
9.991089e-01
9.991005e-01
9.990736e-01
9.990235e-01
9.989513e-01
9.988826e-01
9.988963e-01
9.990906e-01
9.994270e-01
9.983244e-01
9.978492e-01
9.977204e-01
9.978979e-01
9.981266e-01
9.983379e-01
9.985166e-01
9.986603e-01
9.987679e-01
9.988403e-01
9.988861e-01
9.989309e-01
9.990250e-01
9.992222e-01
9.995185e-01
9.998249e-01
9.951702e-01
9.943407e-01
9.948740e-01
9.955693e-01
9.962157e-01
9.967994e-01
9.973213e-01
9.977834e-01
9.981860e-01
9.985302e-01
9.988216e-01
9.990760e-01
9.993211e-01
9.995780e-01
9.998183e-01
9.999696e-01
9.872259e-01
9.890312e-01
9.907027e-01
9.919897e-01
9.931882e-01
9.943022e-01
9.953343e-01
9.962820e-01
9.971455e-01
9.979232e-01
9.986057e-01
9.991719e-01
9.995931e-01
9.998530e-01
9.999712e-01
9.999994e-01
1 2 19 18
2 3 20 19
3 4 21 20
4 5 22 21
5 6 23 22
6 7 24 23
7 8 25 24
8 9 26 25
9 10 27 26
10 11 28 27
11 12 29 28
12 13 30 29
13 14 31 30
14 15 32 31
15 16 33 32
16 17 34 33
18 19 36 35
19 20 37 36
20 21 38 37
21 22 39 38
22 23 40 39
23 24 41 40
24 25 42 41
25 26 43 42
26 27 44 43
27 28 45 44
28 29 46 45
29 30 47 46
30 31 48 47
31 32 49 48
32 33 50 49
33 34 51 50
35 36 53 52
36 37 54 53
37 38 55 54
38 39 56 55
39 40 57 56
40 41 58 57
41 42 59 58
42 43 60 59
43 44 61 60
44 45 62 61
45 46 63 62
46 47 64 63
47 48 65 64
48 49 66 65
49 50 67 66
50 51 68 67
52 53 70 69
53 54 71 70
54 55 72 71
55 56 73 72
56 57 74 73
57 58 75 74
58 59 76 75
59 60 77 76
60 61 78 77
61 62 79 78
62 63 80 79
63 64 81 80
64 65 82 81
65 66 83 82
66 67 84 83
67 68 85 84
69 70 87 86
70 71 88 87
71 72 89 88
72 73 90 89
73 74 91 90
74 75 92 91
75 76 93 92
76 77 94 93
77 78 95 94
78 79 96 95
79 80 97 96
80 81 98 97
81 82 99 98
82 83 100 99
83 84 101 100
84 85 102 101
86 87 104 103
87 88 105 104
88 89 106 105
89 90 107 106
90 91 108 107
91 92 109 108
92 93 110 109
93 94 111 110
94 95 112 111
95 96 113 112
96 97 114 113
97 98 115 114
98 99 116 115
99 100 117 116
100 101 118 117
101 102 119 118
103 104 121 120
104 105 122 121
105 106 123 122
106 107 124 123
107 108 125 124
108 109 126 125
109 110 127 126
110 111 128 127
111 112 129 128
112 113 130 129
113 114 131 130
114 115 132 131
115 116 133 132
116 117 134 133
117 118 135 134
118 119 136 135
120 121 138 137
121 122 139 138
122 123 140 139
123 124 141 140
124 125 142 141
125 126 143 142
126 127 144 143
127 128 145 144
128 129 146 145
129 130 147 146
130 131 148 147
131 132 149 148
132 133 150 149
133 134 151 150
134 135 152 151
135 136 153 152
