TITLE = "Solution"
VARIABLES = x, y, u, v, psiu, psiv, t, stress
ZONE T="structure" N=153 E=128 F=FEBLOCK ET=QUADRILATERAL VARLOCATION=([7,8]=cellcentered)
0.000000e+00
1.250000e+01
2.500000e+01
3.750000e+01
5.000000e+01
6.250000e+01
7.500000e+01
8.750000e+01
1.000000e+02
1.125000e+02
1.250000e+02
1.375000e+02
1.500000e+02
1.625000e+02
1.750000e+02
1.875000e+02
2.000000e+02
0.000000e+00
1.250000e+01
2.500000e+01
3.750000e+01
5.000000e+01
6.250000e+01
7.500000e+01
8.750000e+01
1.000000e+02
1.125000e+02
1.250000e+02
1.375000e+02
1.500000e+02
1.625000e+02
1.750000e+02
1.875000e+02
2.000000e+02
0.000000e+00
1.250000e+01
2.500000e+01
3.750000e+01
5.000000e+01
6.250000e+01
7.500000e+01
8.750000e+01
1.000000e+02
1.125000e+02
1.250000e+02
1.375000e+02
1.500000e+02
1.625000e+02
1.750000e+02
1.875000e+02
2.000000e+02
0.000000e+00
1.250000e+01
2.500000e+01
3.750000e+01
5.000000e+01
6.250000e+01
7.500000e+01
8.750000e+01
1.000000e+02
1.125000e+02
1.250000e+02
1.375000e+02
1.500000e+02
1.625000e+02
1.750000e+02
1.875000e+02
2.000000e+02
0.000000e+00
1.250000e+01
2.500000e+01
3.750000e+01
5.000000e+01
6.250000e+01
7.500000e+01
8.750000e+01
1.000000e+02
1.125000e+02
1.250000e+02
1.375000e+02
1.500000e+02
1.625000e+02
1.750000e+02
1.875000e+02
2.000000e+02
0.000000e+00
1.250000e+01
2.500000e+01
3.750000e+01
5.000000e+01
6.250000e+01
7.500000e+01
8.750000e+01
1.000000e+02
1.125000e+02
1.250000e+02
1.375000e+02
1.500000e+02
1.625000e+02
1.750000e+02
1.875000e+02
2.000000e+02
0.000000e+00
1.250000e+01
2.500000e+01
3.750000e+01
5.000000e+01
6.250000e+01
7.500000e+01
8.750000e+01
1.000000e+02
1.125000e+02
1.250000e+02
1.375000e+02
1.500000e+02
1.625000e+02
1.750000e+02
1.875000e+02
2.000000e+02
0.000000e+00
1.250000e+01
2.500000e+01
3.750000e+01
5.000000e+01
6.250000e+01
7.500000e+01
8.750000e+01
1.000000e+02
1.125000e+02
1.250000e+02
1.375000e+02
1.500000e+02
1.625000e+02
1.750000e+02
1.875000e+02
2.000000e+02
0.000000e+00
1.250000e+01
2.500000e+01
3.750000e+01
5.000000e+01
6.250000e+01
7.500000e+01
8.750000e+01
1.000000e+02
1.125000e+02
1.250000e+02
1.375000e+02
1.500000e+02
1.625000e+02
1.750000e+02
1.875000e+02
2.000000e+02
0.000000e+00
0.000000e+00
0.000000e+00
0.000000e+00
0.000000e+00
0.000000e+00
0.000000e+00
0.000000e+00
0.000000e+00
0.000000e+00
0.000000e+00
0.000000e+00
0.000000e+00
0.000000e+00
0.000000e+00
0.000000e+00
0.000000e+00
1.250000e+01
1.250000e+01
1.250000e+01
1.250000e+01
1.250000e+01
1.250000e+01
1.250000e+01
1.250000e+01
1.250000e+01
1.250000e+01
1.250000e+01
1.250000e+01
1.250000e+01
1.250000e+01
1.250000e+01
1.250000e+01
1.250000e+01
2.500000e+01
2.500000e+01
2.500000e+01
2.500000e+01
2.500000e+01
2.500000e+01
2.500000e+01
2.500000e+01
2.500000e+01
2.500000e+01
2.500000e+01
2.500000e+01
2.500000e+01
2.500000e+01
2.500000e+01
2.500000e+01
2.500000e+01
3.750000e+01
3.750000e+01
3.750000e+01
3.750000e+01
3.750000e+01
3.750000e+01
3.750000e+01
3.750000e+01
3.750000e+01
3.750000e+01
3.750000e+01
3.750000e+01
3.750000e+01
3.750000e+01
3.750000e+01
3.750000e+01
3.750000e+01
5.000000e+01
5.000000e+01
5.000000e+01
5.000000e+01
5.000000e+01
5.000000e+01
5.000000e+01
5.000000e+01
5.000000e+01
5.000000e+01
5.000000e+01
5.000000e+01
5.000000e+01
5.000000e+01
5.000000e+01
5.000000e+01
5.000000e+01
6.250000e+01
6.250000e+01
6.250000e+01
6.250000e+01
6.250000e+01
6.250000e+01
6.250000e+01
6.250000e+01
6.250000e+01
6.250000e+01
6.250000e+01
6.250000e+01
6.250000e+01
6.250000e+01
6.250000e+01
6.250000e+01
6.250000e+01
7.500000e+01
7.500000e+01
7.500000e+01
7.500000e+01
7.500000e+01
7.500000e+01
7.500000e+01
7.500000e+01
7.500000e+01
7.500000e+01
7.500000e+01
7.500000e+01
7.500000e+01
7.500000e+01
7.500000e+01
7.500000e+01
7.500000e+01
8.750000e+01
8.750000e+01
8.750000e+01
8.750000e+01
8.750000e+01
8.750000e+01
8.750000e+01
8.750000e+01
8.750000e+01
8.750000e+01
8.750000e+01
8.750000e+01
8.750000e+01
8.750000e+01
8.750000e+01
8.750000e+01
8.750000e+01
1.000000e+02
1.000000e+02
1.000000e+02
1.000000e+02
1.000000e+02
1.000000e+02
1.000000e+02
1.000000e+02
1.000000e+02
1.000000e+02
1.000000e+02
1.000000e+02
1.000000e+02
1.000000e+02
1.000000e+02
1.000000e+02
1.000000e+02
0.000000e+00
-7.113911e-02
-1.309897e-01
-1.860599e-01
-2.373457e-01
-2.847390e-01
-3.281379e-01
-3.675088e-01
-4.029090e-01
-4.345016e-01
-4.625997e-01
-4.877525e-01
-5.109047e-01
-5.336885e-01
-5.589185e-01
-5.899042e-01
-6.131555e-01
0.000000e+00
-4.248300e-02
-8.825017e-02
-1.305132e-01
-1.694505e-01
-2.052101e-01
-2.378661e-01
-2.674623e-01
-2.940520e-01
-3.177171e-01
-3.385777e-01
-3.567843e-01
-3.724529e-01
-3.854223e-01
-3.945703e-01
-3.965754e-01
-4.037641e-01
0.000000e+00
-2.656765e-02
-5.462973e-02
-8.262582e-02
-1.087593e-01
-1.327536e-01
-1.545890e-01
-1.742904e-01
-1.918627e-01
-2.072764e-01
-2.204487e-01
-2.311955e-01
-2.391337e-01
-2.435650e-01
-2.436880e-01
-2.419178e-01
-2.492498e-01
0.000000e+00
-1.282318e-02
-2.639825e-02
-4.005905e-02
-5.312125e-02
-6.515236e-02
-7.605738e-02
-8.580456e-02
-9.433808e-02
-1.015469e-01
-1.072468e-01
-1.111688e-01
-1.129917e-01
-1.125658e-01
-1.108161e-01
-1.112946e-01
-1.167540e-01
0.000000e+00
-1.181276e-05
-2.685411e-05
-4.184607e-05
-4.980267e-05
-3.514548e-05
3.304675e-05
2.102584e-04
5.875190e-04
1.300422e-03
2.525869e-03
4.441572e-03
7.095551e-03
1.009468e-02
1.216639e-02
1.159819e-02
7.983581e-03
0.000000e+00
1.280501e-02
2.635605e-02
3.999155e-02
5.303730e-02
6.508408e-02
7.608387e-02
8.609048e-02
9.519067e-02
1.034900e-01
1.110969e-01
1.180676e-01
1.242812e-01
1.292638e-01
1.321948e-01
1.324273e-01
1.305926e-01
0.000000e+00
2.656466e-02
5.462064e-02
8.260773e-02
1.087311e-01
1.327184e-01
1.545599e-01
1.742999e-01
1.919795e-01
2.076299e-01
2.212649e-01
2.328510e-01
2.422552e-01
2.492080e-01
2.533812e-01
2.547363e-01
2.543085e-01
0.000000e+00
4.250043e-02
8.828806e-02
1.305737e-01
1.695316e-01
2.052969e-01
2.379148e-01
2.673733e-01
2.936275e-01
3.166017e-01
3.361867e-01
3.522472e-01
3.646547e-01
3.733682e-01
3.785659e-01
3.807825e-01
3.811896e-01
0.000000e+00
7.116826e-02
1.310665e-01
1.862039e-01
2.375758e-01
2.850625e-01
3.285238e-01
3.678334e-01
4.028596e-01
4.334205e-01
4.592512e-01
4.800071e-01
4.953475e-01
5.051517e-01
5.098931e-01
5.110634e-01
5.110408e-01
0.000000e+00
-4.306247e-02
-8.453665e-02
-1.382775e-01
-2.042334e-01
-2.822807e-01
-3.715649e-01
-4.710867e-01
-5.797878e-01
-6.966240e-01
-8.206308e-01
-9.510404e-01
-1.087538e+00
-1.230853e+00
-1.384704e+00
-1.560736e+00
-1.813664e+00
0.000000e+00
-2.651005e-02
-6.977443e-02
-1.241817e-01
-1.912155e-01
-2.703279e-01
-3.606938e-01
-4.612893e-01
-5.710439e-01
-6.888947e-01
-8.138502e-01
-9.451077e-01
-1.082304e+00
-1.226149e+00
-1.379939e+00
-1.554904e+00
-1.769254e+00
0.000000e+00
-2.000419e-02
-5.954052e-02
-1.141486e-01
-1.818161e-01
-2.617429e-01
-3.529393e-01
-4.543719e-01
-5.649773e-01
-6.837076e-01
-8.095907e-01
-9.418513e-01
-1.080161e+00
-1.225111e+00
-1.379034e+00
-1.544819e+00
-1.705264e+00
0.000000e+00
-1.723820e-02
-5.445228e-02
-1.082595e-01
-1.761716e-01
-2.565904e-01
-3.483554e-01
-4.503938e-01
-5.616623e-01
-6.811416e-01
-8.078803e-01
-9.410882e-01
-1.080280e+00
-1.225391e+00
-1.376235e+00
-1.528568e+00
-1.668902e+00
0.000000e+00
-1.644137e-02
-5.291234e-02
-1.063808e-01
-1.743114e-01
-2.549303e-01
-3.469591e-01
-4.493260e-01
-5.610076e-01
-6.810010e-01
-8.083338e-01
-9.420906e-01
-1.081407e+00
-1.225255e+00
-1.371482e+00
-1.515087e+00
-1.647382e+00
0.000000e+00
-1.722797e-02
-5.444500e-02
-1.082724e-01
-1.762353e-01
-2.567581e-01
-3.487141e-01
-4.510731e-01
-5.628336e-01
-6.829877e-01
-8.105001e-01
-9.442633e-01
-1.082983e+00
-1.224894e+00
-1.367271e+00
-1.505951e+00
-1.635423e+00
0.000000e+00
-1.998750e-02
-5.952846e-02
-1.141702e-01
-1.819234e-01
-2.620266e-01
-3.535475e-01
-4.555254e-01
-5.669688e-01
-6.868524e-01
-8.140713e-01
-9.473475e-01
-1.085075e+00
-1.225127e+00
-1.364743e+00
-1.500762e+00
-1.630148e+00
0.000000e+00
-2.649440e-02
-6.976392e-02
-1.242105e-01
-1.913443e-01
-2.706616e-01
-3.614017e-01
-4.626226e-01
-5.733316e-01
-6.924849e-01
-8.189322e-01
-9.513042e-01
-1.087858e+00
-1.226351e+00
-1.364110e+00
-1.498617e+00
-1.628910e+00
0.000000e+00
-4.305600e-02
-8.453756e-02
-1.383220e-01
-2.043826e-01
-2.826372e-01
-3.722893e-01
-4.724083e-01
-5.819913e-01
-6.999758e-01
-8.251841e-01
-9.562165e-01
-1.091319e+00
-1.228296e+00
-1.364648e+00
-1.498224e+00
-1.628929e+00


0.000000e+00
9.723475e-08
1.948296e-07
2.854667e-07
3.704667e-07
4.493494e-07
5.217843e-07
5.877516e-07
6.473844e-07
7.009333e-07
7.487536e-07
7.912407e-07
8.286259e-07
8.606157e-07
8.867990e-07
9.091742e-07
9.290840e-07
0.000000e+00
5.468582e-08
1.330706e-07
2.035527e-07
2.681769e-07
3.277468e-07
3.822090e-07
4.315641e-07
4.758521e-07
5.151052e-07
5.493117e-07
5.783710e-07
6.021359e-07
6.210955e-07
6.384133e-07
6.589686e-07
6.801259e-07
0.000000e+00
3.445780e-08
8.409649e-08
1.306702e-07
1.740875e-07
2.140200e-07
2.503110e-07
2.829171e-07
3.117891e-07
3.368300e-07
3.578966e-07
3.748871e-07
3.880678e-07
3.987918e-07
4.101033e-07
4.253874e-07
4.430476e-07
0.000000e+00
1.683309e-08
4.031529e-08
6.312465e-08
8.483524e-08
1.047803e-07
1.227444e-07
1.386458e-07
1.523910e-07
1.638608e-07
1.729558e-07
1.797297e-07
1.846404e-07
1.888455e-07
1.942635e-07
2.031719e-07
2.154323e-07
0.000000e+00
1.760654e-11
2.179387e-11
-9.329745e-12
-1.056809e-10
-3.149891e-10
-7.072368e-10
-1.375556e-09
-2.428007e-09
-3.960712e-09
-5.998933e-09
-8.398621e-09
-1.073113e-08
-1.221070e-08
-1.162725e-08
-7.434159e-09
6.198000e-10
0.000000e+00
-1.680018e-08
-4.027113e-08
-6.312641e-08
-8.498919e-08
-1.052727e-07
-1.238808e-07
-1.408930e-07
-1.564079e-07
-1.704867e-07
-1.831015e-07
-1.940804e-07
-2.030723e-07
-2.095527e-07
-2.128736e-07
-2.122402e-07
-2.078287e-07
0.000000e+00
-3.443708e-08
-8.406588e-08
-1.306519e-07
-1.741238e-07
-2.141907e-07
-2.507549e-07
-2.838576e-07
-3.135567e-07
-3.398704e-07
-3.627349e-07
-3.819694e-07
-3.972690e-07
-4.082755e-07
-4.148069e-07
-4.169820e-07
-4.156793e-07
0.000000e+00
-5.470662e-08
-1.331120e-07
-2.035902e-07
-2.681701e-07
-3.276267e-07
-3.818620e-07
-4.308150e-07
-4.744472e-07
-5.127036e-07
-5.454971e-07
-5.726984e-07
-5.941388e-07
-6.096759e-07
-6.194468e-07
-6.242507e-07
-6.254113e-07
0.000000e+00
-9.734966e-08
-1.950332e-07
-2.857185e-07
-3.706819e-07
-4.493513e-07
-5.212381e-07
-5.860785e-07
-6.436609e-07
-6.937918e-07
-7.363189e-07
-7.711747e-07
-7.984189e-07
-8.182756e-07
-8.312093e-07
-8.378952e-07
-8.400428e-07
0.000000e+00
8.802503e-08
1.717268e-07
2.656516e-07
3.776739e-07
5.089496e-07
6.586184e-07
8.252975e-07
1.007393e-06
1.203359e-06
1.411867e-06
1.632103e-06
1.864510e-06
2.112431e-06
2.381986e-06
2.668315e-06
2.952394e-06
0.000000e+00
5.324975e-08
1.346008e-07
2.292598e-07
3.434605e-07
4.773725e-07
6.298725e-07
7.993972e-07
9.843119e-07
1.183047e-06
1.394254e-06
1.617053e-06
1.851465e-06
2.098959e-06
2.361953e-06
2.641020e-06
2.921360e-06
0.000000e+00
3.392202e-08
1.048379e-07
1.993911e-07
3.152352e-07
4.514325e-07
6.063964e-07
7.784413e-07
9.659044e-07
1.167209e-06
1.380960e-06
1.606059e-06
1.841754e-06
2.087351e-06
2.342445e-06
2.611322e-06
2.882627e-06
0.000000e+00
2.489132e-08
8.917940e-08
1.819735e-07
2.985754e-07
4.361890e-07
5.927572e-07
7.664871e-07
9.556932e-07
1.158771e-06
1.374208e-06
1.600567e-06
1.836329e-06
2.079595e-06
2.328844e-06
2.587351e-06
2.845143e-06
0.000000e+00
2.229593e-08
8.443143e-08
1.763705e-07
2.931769e-07
4.313579e-07
5.886184e-07
7.631177e-07
9.531487e-07
1.157047e-06
1.373143e-06
1.599680e-06
1.834632e-06
2.075485e-06
2.319765e-06
2.568996e-06
2.813494e-06
0.000000e+00
2.491143e-08
8.925482e-08
1.821601e-07
2.989461e-07
4.368434e-07
5.938192e-07
7.680877e-07
9.579237e-07
1.161587e-06
1.377259e-06
1.602946e-06
1.836329e-06
2.074548e-06
2.314511e-06
2.555995e-06
2.790798e-06
0.000000e+00
3.395445e-08
1.049693e-07
1.997179e-07
3.158853e-07
4.525816e-07
6.082635e-07
7.812579e-07
9.698328e-07
1.172174e-06
1.386337e-06
1.610166e-06
1.841182e-06
2.076398e-06
2.312517e-06
2.548205e-06
2.776971e-06
0.000000e+00
5.329093e-08
1.347675e-07
2.296624e-07
3.442538e-07
4.787676e-07
6.321300e-07
8.027866e-07
9.890084e-07
1.188921e-06
1.400481e-06
1.621417e-06
1.849161e-06
2.080779e-06
2.313233e-06
2.544703e-06
2.770370e-06
0.000000e+00
8.809327e-08
1.719218e-07
2.660859e-07
3.785000e-07
5.103689e-07
6.608691e-07
8.286046e-07
1.011852e-06
1.208708e-06
1.417076e-06
1.634628e-06
1.858771e-06
2.086690e-06
2.315710e-06
2.544133e-06
2.768445e-06


2.078621e-01
2.078621e-01
2.078622e-01
2.078625e-01
2.078627e-01
2.078629e-01
2.078631e-01
2.078633e-01
2.078635e-01
2.078636e-01
2.078637e-01
2.078638e-01
2.078639e-01
2.078638e-01
2.078637e-01
2.078636e-01
2.078625e-01
2.078625e-01
2.078625e-01
2.078627e-01
2.078629e-01
2.078631e-01
2.078633e-01
2.078634e-01
2.078636e-01
2.078637e-01
2.078638e-01
2.078638e-01
2.078639e-01
2.078638e-01
2.078637e-01
2.078635e-01
2.078632e-01
2.078631e-01
2.078632e-01
2.078633e-01
2.078634e-01
2.078635e-01
2.078636e-01
2.078636e-01
2.078637e-01
2.078638e-01
2.078638e-01
2.078639e-01
2.078639e-01
2.078638e-01
2.078637e-01
2.078636e-01
2.078637e-01
2.078636e-01
2.078636e-01
2.078636e-01
2.078637e-01
2.078637e-01
2.078637e-01
2.078638e-01
2.078638e-01
2.078638e-01
2.078639e-01
2.078639e-01
2.078639e-01
2.078638e-01
2.078638e-01
2.078637e-01
2.078637e-01
2.078636e-01
2.078636e-01
2.078636e-01
2.078637e-01
2.078637e-01
2.078637e-01
2.078638e-01
2.078638e-01
2.078638e-01
2.078638e-01
2.078639e-01
2.078639e-01
2.078639e-01
2.078639e-01
2.078639e-01
2.078632e-01
2.078631e-01
2.078632e-01
2.078633e-01
2.078634e-01
2.078635e-01
2.078635e-01
2.078636e-01
2.078637e-01
2.078637e-01
2.078638e-01
2.078638e-01
2.078639e-01
2.078639e-01
2.078639e-01
2.078640e-01
2.078625e-01
2.078625e-01
2.078625e-01
2.078627e-01
2.078629e-01
2.078631e-01
2.078633e-01
2.078634e-01
2.078635e-01
2.078637e-01
2.078638e-01
2.078638e-01
2.078639e-01
2.078640e-01
2.078640e-01
2.078640e-01
2.078621e-01
2.078621e-01
2.078622e-01
2.078624e-01
2.078627e-01
2.078629e-01
2.078631e-01
2.078633e-01
2.078635e-01
2.078636e-01
2.078637e-01
2.078638e-01
2.078639e-01
2.078640e-01
2.078640e-01
2.078641e-01


9.886141e-01
9.902287e-01
9.917223e-01
9.928721e-01
9.939394e-01
9.949235e-01
9.958200e-01
9.966186e-01
9.973107e-01
9.978896e-01
9.983499e-01
9.986871e-01
9.988966e-01
9.989714e-01
9.990254e-01
9.956979e-01
9.956925e-01
9.949526e-01
9.954286e-01
9.960499e-01
9.966292e-01
9.971557e-01
9.976322e-01
9.980639e-01
9.984548e-01
9.988088e-01
9.991300e-01
9.994209e-01
9.996747e-01
9.998408e-01
9.994206e-01
9.937246e-01
9.985033e-01
9.980784e-01
9.979636e-01
9.981250e-01
9.983373e-01
9.985429e-01
9.987338e-01
9.989142e-01
9.990890e-01
9.992594e-01
9.994185e-01
9.995417e-01
9.995674e-01
9.993455e-01
9.985407e-01
9.970932e-01
9.996954e-01
9.993855e-01
9.991940e-01
9.991454e-01
9.991648e-01
9.991974e-01
9.992299e-01
9.992616e-01
9.992928e-01
9.993189e-01
9.993261e-01
9.992873e-01
9.991643e-01
9.989434e-01
9.987561e-01
9.987087e-01
9.996965e-01
9.993871e-01
9.991954e-01
9.991451e-01
9.991600e-01
9.991835e-01
9.991998e-01
9.992052e-01
9.991978e-01
9.991738e-01
9.991291e-01
9.990647e-01
9.990034e-01
9.990156e-01
9.991889e-01
9.994889e-01
9.985055e-01
9.980816e-01
9.979668e-01
9.981251e-01
9.983291e-01
9.985175e-01
9.986769e-01
9.988051e-01
9.989010e-01
9.989656e-01
9.990065e-01
9.990465e-01
9.991304e-01
9.993063e-01
9.995706e-01
9.998438e-01
9.956921e-01
9.949523e-01
9.954280e-01
9.960482e-01
9.966247e-01
9.971453e-01
9.976108e-01
9.980229e-01
9.983821e-01
9.986891e-01
9.989489e-01
9.991759e-01
9.993945e-01
9.996236e-01
9.998379e-01
9.999729e-01
9.886063e-01
9.902166e-01
9.917074e-01
9.928554e-01
9.939243e-01
9.949180e-01
9.958386e-01
9.966838e-01
9.974540e-01
9.981476e-01
9.987564e-01
9.992614e-01
9.996371e-01
9.998689e-01
9.999743e-01
9.999995e-01
1 2 19 18
2 3 20 19
3 4 21 20
4 5 22 21
5 6 23 22
6 7 24 23
7 8 25 24
8 9 26 25
9 10 27 26
10 11 28 27
11 12 29 28
12 13 30 29
13 14 31 30
14 15 32 31
15 16 33 32
16 17 34 33
18 19 36 35
19 20 37 36
20 21 38 37
21 22 39 38
22 23 40 39
23 24 41 40
24 25 42 41
25 26 43 42
26 27 44 43
27 28 45 44
28 29 46 45
29 30 47 46
30 31 48 47
31 32 49 48
32 33 50 49
33 34 51 50
35 36 53 52
36 37 54 53
37 38 55 54
38 39 56 55
39 40 57 56
40 41 58 57
41 42 59 58
42 43 60 59
43 44 61 60
44 45 62 61
45 46 63 62
46 47 64 63
47 48 65 64
48 49 66 65
49 50 67 66
50 51 68 67
52 53 70 69
53 54 71 70
54 55 72 71
55 56 73 72
56 57 74 73
57 58 75 74
58 59 76 75
59 60 77 76
60 61 78 77
61 62 79 78
62 63 80 79
63 64 81 80
64 65 82 81
65 66 83 82
66 67 84 83
67 68 85 84
69 70 87 86
70 71 88 87
71 72 89 88
72 73 90 89
73 74 91 90
74 75 92 91
75 76 93 92
76 77 94 93
77 78 95 94
78 79 96 95
79 80 97 96
80 81 98 97
81 82 99 98
82 83 100 99
83 84 101 100
84 85 102 101
86 87 104 103
87 88 105 104
88 89 106 105
89 90 107 106
90 91 108 107
91 92 109 108
92 93 110 109
93 94 111 110
94 95 112 111
95 96 113 112
96 97 114 113
97 98 115 114
98 99 116 115
99 100 117 116
100 101 118 117
101 102 119 118
103 104 121 120
104 105 122 121
105 106 123 122
106 107 124 123
107 108 125 124
108 109 126 125
109 110 127 126
110 111 128 127
111 112 129 128
112 113 130 129
113 114 131 130
114 115 132 131
115 116 133 132
116 117 134 133
117 118 135 134
118 119 136 135
120 121 138 137
121 122 139 138
122 123 140 139
123 124 141 140
124 125 142 141
125 126 143 142
126 127 144 143
127 128 145 144
128 129 146 145
129 130 147 146
130 131 148 147
131 132 149 148
132 133 150 149
133 134 151 150
134 135 152 151
135 136 153 152
