TITLE = "Solution"
VARIABLES = x, y, u, v, psiu, psiv, t, stress
ZONE T="structure" N=153 E=128 F=FEBLOCK ET=QUADRILATERAL VARLOCATION=([7,8]=cellcentered)
0.000000e+00
1.250000e+01
2.500000e+01
3.750000e+01
5.000000e+01
6.250000e+01
7.500000e+01
8.750000e+01
1.000000e+02
1.125000e+02
1.250000e+02
1.375000e+02
1.500000e+02
1.625000e+02
1.750000e+02
1.875000e+02
2.000000e+02
0.000000e+00
1.250000e+01
2.500000e+01
3.750000e+01
5.000000e+01
6.250000e+01
7.500000e+01
8.750000e+01
1.000000e+02
1.125000e+02
1.250000e+02
1.375000e+02
1.500000e+02
1.625000e+02
1.750000e+02
1.875000e+02
2.000000e+02
0.000000e+00
1.250000e+01
2.500000e+01
3.750000e+01
5.000000e+01
6.250000e+01
7.500000e+01
8.750000e+01
1.000000e+02
1.125000e+02
1.250000e+02
1.375000e+02
1.500000e+02
1.625000e+02
1.750000e+02
1.875000e+02
2.000000e+02
0.000000e+00
1.250000e+01
2.500000e+01
3.750000e+01
5.000000e+01
6.250000e+01
7.500000e+01
8.750000e+01
1.000000e+02
1.125000e+02
1.250000e+02
1.375000e+02
1.500000e+02
1.625000e+02
1.750000e+02
1.875000e+02
2.000000e+02
0.000000e+00
1.250000e+01
2.500000e+01
3.750000e+01
5.000000e+01
6.250000e+01
7.500000e+01
8.750000e+01
1.000000e+02
1.125000e+02
1.250000e+02
1.375000e+02
1.500000e+02
1.625000e+02
1.750000e+02
1.875000e+02
2.000000e+02
0.000000e+00
1.250000e+01
2.500000e+01
3.750000e+01
5.000000e+01
6.250000e+01
7.500000e+01
8.750000e+01
1.000000e+02
1.125000e+02
1.250000e+02
1.375000e+02
1.500000e+02
1.625000e+02
1.750000e+02
1.875000e+02
2.000000e+02
0.000000e+00
1.250000e+01
2.500000e+01
3.750000e+01
5.000000e+01
6.250000e+01
7.500000e+01
8.750000e+01
1.000000e+02
1.125000e+02
1.250000e+02
1.375000e+02
1.500000e+02
1.625000e+02
1.750000e+02
1.875000e+02
2.000000e+02
0.000000e+00
1.250000e+01
2.500000e+01
3.750000e+01
5.000000e+01
6.250000e+01
7.500000e+01
8.750000e+01
1.000000e+02
1.125000e+02
1.250000e+02
1.375000e+02
1.500000e+02
1.625000e+02
1.750000e+02
1.875000e+02
2.000000e+02
0.000000e+00
1.250000e+01
2.500000e+01
3.750000e+01
5.000000e+01
6.250000e+01
7.500000e+01
8.750000e+01
1.000000e+02
1.125000e+02
1.250000e+02
1.375000e+02
1.500000e+02
1.625000e+02
1.750000e+02
1.875000e+02
2.000000e+02
0.000000e+00
0.000000e+00
0.000000e+00
0.000000e+00
0.000000e+00
0.000000e+00
0.000000e+00
0.000000e+00
0.000000e+00
0.000000e+00
0.000000e+00
0.000000e+00
0.000000e+00
0.000000e+00
0.000000e+00
0.000000e+00
0.000000e+00
1.250000e+01
1.250000e+01
1.250000e+01
1.250000e+01
1.250000e+01
1.250000e+01
1.250000e+01
1.250000e+01
1.250000e+01
1.250000e+01
1.250000e+01
1.250000e+01
1.250000e+01
1.250000e+01
1.250000e+01
1.250000e+01
1.250000e+01
2.500000e+01
2.500000e+01
2.500000e+01
2.500000e+01
2.500000e+01
2.500000e+01
2.500000e+01
2.500000e+01
2.500000e+01
2.500000e+01
2.500000e+01
2.500000e+01
2.500000e+01
2.500000e+01
2.500000e+01
2.500000e+01
2.500000e+01
3.750000e+01
3.750000e+01
3.750000e+01
3.750000e+01
3.750000e+01
3.750000e+01
3.750000e+01
3.750000e+01
3.750000e+01
3.750000e+01
3.750000e+01
3.750000e+01
3.750000e+01
3.750000e+01
3.750000e+01
3.750000e+01
3.750000e+01
5.000000e+01
5.000000e+01
5.000000e+01
5.000000e+01
5.000000e+01
5.000000e+01
5.000000e+01
5.000000e+01
5.000000e+01
5.000000e+01
5.000000e+01
5.000000e+01
5.000000e+01
5.000000e+01
5.000000e+01
5.000000e+01
5.000000e+01
6.250000e+01
6.250000e+01
6.250000e+01
6.250000e+01
6.250000e+01
6.250000e+01
6.250000e+01
6.250000e+01
6.250000e+01
6.250000e+01
6.250000e+01
6.250000e+01
6.250000e+01
6.250000e+01
6.250000e+01
6.250000e+01
6.250000e+01
7.500000e+01
7.500000e+01
7.500000e+01
7.500000e+01
7.500000e+01
7.500000e+01
7.500000e+01
7.500000e+01
7.500000e+01
7.500000e+01
7.500000e+01
7.500000e+01
7.500000e+01
7.500000e+01
7.500000e+01
7.500000e+01
7.500000e+01
8.750000e+01
8.750000e+01
8.750000e+01
8.750000e+01
8.750000e+01
8.750000e+01
8.750000e+01
8.750000e+01
8.750000e+01
8.750000e+01
8.750000e+01
8.750000e+01
8.750000e+01
8.750000e+01
8.750000e+01
8.750000e+01
8.750000e+01
1.000000e+02
1.000000e+02
1.000000e+02
1.000000e+02
1.000000e+02
1.000000e+02
1.000000e+02
1.000000e+02
1.000000e+02
1.000000e+02
1.000000e+02
1.000000e+02
1.000000e+02
1.000000e+02
1.000000e+02
1.000000e+02
1.000000e+02
0.000000e+00
-9.395976e-01
-1.627450e+00
-2.342321e+00
-3.026505e+00
-3.682395e+00
-4.362816e+00
-5.026408e+00
-5.683575e+00
-6.349836e+00
-7.009095e+00
-7.678943e+00
-8.398333e+00
-9.165267e+00
-9.958084e+00
-1.066975e+01
-1.112100e+01
0.000000e+00
-4.494992e-01
-9.285247e-01
-1.433073e+00
-1.949335e+00
-2.438994e+00
-2.948069e+00
-3.450059e+00
-3.944541e+00
-4.445848e+00
-4.940097e+00
-5.432050e+00
-5.936674e+00
-6.428480e+00
-6.798043e+00
-6.893399e+00
-7.064343e+00
0.000000e+00
-1.880000e-01
-4.245186e-01
-7.295683e-01
-1.069494e+00
-1.399415e+00
-1.746821e+00
-2.091572e+00
-2.432327e+00
-2.773883e+00
-3.103899e+00
-3.413679e+00
-3.687307e+00
-3.886101e+00
-3.951146e+00
-3.932639e+00
-4.084608e+00
0.000000e+00
-8.582307e-02
-1.825477e-01
-3.256599e-01
-4.761382e-01
-6.454654e-01
-8.180966e-01
-9.887188e-01
-1.157984e+00
-1.319573e+00
-1.465918e+00
-1.581672e+00
-1.644436e+00
-1.635501e+00
-1.569264e+00
-1.563154e+00
-1.691440e+00
0.000000e+00
-1.904741e-03
-3.902182e-03
-5.600932e-03
-6.650963e-03
-6.174651e-03
-2.924236e-03
4.743779e-03
1.960140e-02
4.486975e-02
8.517164e-02
1.489098e-01
2.425749e-01
3.608076e-01
4.644835e-01
4.803134e-01
3.766429e-01
0.000000e+00
8.256191e-02
1.761491e-01
3.159683e-01
4.642477e-01
6.338835e-01
8.110137e-01
9.940643e-01
1.188318e+00
1.392721e+00
1.609433e+00
1.832759e+00
2.048182e+00
2.235333e+00
2.360004e+00
2.385399e+00
2.322928e+00
0.000000e+00
1.865910e-01
4.217549e-01
7.249604e-01
1.063139e+00
1.392396e+00
1.740416e+00
2.090332e+00
2.442422e+00
2.802475e+00
3.166455e+00
3.526957e+00
3.851836e+00
4.106528e+00
4.267418e+00
4.322043e+00
4.305566e+00
0.000000e+00
4.494579e-01
9.287563e-01
1.432608e+00
1.948035e+00
2.436941e+00
2.942349e+00
3.441173e+00
3.929839e+00
4.414696e+00
4.893788e+00
5.365536e+00
5.788160e+00
6.107815e+00
6.306016e+00
6.392186e+00
6.407873e+00
0.000000e+00
9.404837e-01
1.630226e+00
2.346379e+00
3.031788e+00
3.689579e+00
4.367066e+00
5.025595e+00
5.671039e+00
6.303422e+00
6.921202e+00
7.520207e+00
8.036694e+00
8.395170e+00
8.577724e+00
8.625222e+00
8.624931e+00
0.000000e+00
-5.844949e-01
-1.263002e+00
-2.167638e+00
-3.241232e+00
-4.483126e+00
-5.905800e+00
-7.495420e+00
-9.257454e+00
-1.119443e+01
-1.330004e+01
-1.558296e+01
-1.806053e+01
-2.074243e+01
-2.365990e+01
-2.701233e+01
-3.198117e+01
0.000000e+00
-3.837051e-01
-1.095092e+00
-1.985402e+00
-3.068324e+00
-4.308228e+00
-5.729295e+00
-7.322764e+00
-9.084242e+00
-1.102209e+01
-1.313018e+01
-1.540980e+01
-1.788111e+01
-2.057299e+01
-2.353594e+01
-2.691731e+01
-3.097986e+01
0.000000e+00
-3.444121e-01
-9.918283e-01
-1.874784e+00
-2.946894e+00
-4.184696e+00
-5.605426e+00
-7.199154e+00
-8.963146e+00
-1.090538e+01
-1.302147e+01
-1.531290e+01
-1.779938e+01
-2.052063e+01
-2.352836e+01
-2.674977e+01
-2.975954e+01
0.000000e+00
-3.783965e-01
-9.745311e-01
-1.833152e+00
-2.880579e+00
-4.116361e+00
-5.535831e+00
-7.129941e+00
-8.900128e+00
-1.085026e+01
-1.298172e+01
-1.529726e+01
-1.780501e+01
-2.052729e+01
-2.347337e+01
-2.642845e+01
-2.899417e+01
0.000000e+00
-3.881888e-01
-9.835547e-01
-1.820647e+00
-2.865468e+00
-4.098615e+00
-5.519842e+00
-7.118538e+00
-8.895683e+00
-1.085454e+01
-1.299995e+01
-1.533453e+01
-1.784805e+01
-2.053148e+01
-2.333798e+01
-2.607191e+01
-2.839250e+01
0.000000e+00
-3.780071e-01
-9.752814e-01
-1.836010e+00
-2.886881e+00
-4.128626e+00
-5.555620e+00
-7.160436e+00
-8.945227e+00
-1.090887e+01
-1.305788e+01
-1.539530e+01
-1.789776e+01
-2.052517e+01
-2.320184e+01
-2.576637e+01
-2.797671e+01
0.000000e+00
-3.440101e-01
-9.932015e-01
-1.879484e+00
-2.957287e+00
-4.204826e+00
-5.638343e+00
-7.250153e+00
-9.038099e+00
-1.100336e+01
-1.314704e+01
-1.547464e+01
-1.795779e+01
-2.053342e+01
-2.311413e+01
-2.557308e+01
-2.777539e+01
0.000000e+00
-3.834206e-01
-1.096517e+00
-1.990464e+00
-3.079792e+00
-4.330233e+00
-5.766203e+00
-7.379991e+00
-9.167412e+00
-1.113181e+01
-1.327004e+01
-1.558472e+01
-1.804480e+01
-2.057719e+01
-2.309177e+01
-2.548992e+01
-2.772543e+01
0.000000e+00
-5.845719e-01
-1.264693e+00
-2.172879e+00
-3.253098e+00
-4.505173e+00
-5.942375e+00
-7.552007e+00
-9.337026e+00
-1.129787e+01
-1.343243e+01
-1.573510e+01
-1.816414e+01
-2.065003e+01
-2.311339e+01
-2.547472e+01
-2.772562e+01


0.000000e+00
1.445319e-05
2.465793e-05
3.662567e-05
5.159945e-05
6.491979e-05
7.856394e-05
9.280485e-05
1.063996e-04
1.200791e-04
1.338456e-04
1.480815e-04
1.612970e-04
1.698850e-04
1.746510e-04
1.784651e-04
1.834591e-04
0.000000e+00
1.064871e-05
1.965649e-05
2.838895e-05
4.060997e-05
5.109956e-05
6.087064e-05
7.171820e-05
8.196155e-05
9.161972e-05
1.013263e-04
1.110607e-04
1.189894e-04
1.218786e-04
1.215346e-04
1.246548e-04
1.297733e-04
0.000000e+00
8.681943e-06
1.499008e-05
2.080774e-05
2.941403e-05
3.635639e-05
4.264024e-05
4.973352e-05
5.608938e-05
6.174450e-05
6.696129e-05
7.147323e-05
7.420257e-05
7.391715e-05
7.337518e-05
7.599995e-05
8.066639e-05
0.000000e+00
4.627860e-06
7.109772e-06
1.075958e-05
1.467120e-05
1.767685e-05
2.109488e-05
2.421800e-05
2.683367e-05
2.910082e-05
3.034616e-05
3.043469e-05
2.954806e-05
2.886464e-05
2.973121e-05
3.304134e-05
3.795169e-05
0.000000e+00
-5.105737e-08
-1.222898e-07
-2.132561e-07
-3.258317e-07
-4.657184e-07
-6.412961e-07
-8.601518e-07
-1.214378e-06
-1.820917e-06
-2.959735e-06
-4.651061e-06
-6.830980e-06
-8.309461e-06
-7.554137e-06
-5.205942e-06
-2.061291e-06
0.000000e+00
-4.711087e-06
-7.307713e-06
-1.110561e-05
-1.522361e-05
-1.847363e-05
-2.211233e-05
-2.560506e-05
-2.856246e-05
-3.122148e-05
-3.348177e-05
-3.538091e-05
-3.747180e-05
-3.937661e-05
-4.075805e-05
-4.120634e-05
-4.050763e-05
0.000000e+00
-8.706333e-06
-1.504967e-05
-2.096384e-05
-2.973556e-05
-3.678411e-05
-4.325877e-05
-5.058340e-05
-5.672305e-05
-6.215024e-05
-6.718633e-05
-7.031482e-05
-7.217703e-05
-7.413388e-05
-7.602644e-05
-7.750115e-05
-7.796155e-05
0.000000e+00
-1.063528e-05
-1.962270e-05
-2.835977e-05
-4.064201e-05
-5.109064e-05
-6.091186e-05
-7.195606e-05
-8.184966e-05
-9.146367e-05
-1.014562e-04
-1.090192e-04
-1.128244e-04
-1.151086e-04
-1.164289e-04
-1.170151e-04
-1.172367e-04
0.000000e+00
-1.446107e-05
-2.461924e-05
-3.649200e-05
-5.137935e-05
-6.453079e-05
-7.792878e-05
-9.213930e-05
-1.054231e-04
-1.190705e-04
-1.340490e-04
-1.466392e-04
-1.546578e-04
-1.581370e-04
-1.586921e-04
-1.582465e-04
-1.580046e-04
0.000000e+00
1.207624e-05
1.968707e-05
3.131292e-05
4.634648e-05
6.279399e-05
8.365372e-05
1.086256e-04
1.366303e-04
1.686391e-04
2.048835e-04
2.453353e-04
2.890274e-04
3.356923e-04
3.900798e-04
4.518941e-04
5.146966e-04
0.000000e+00
7.053548e-06
1.549056e-05
2.538329e-05
3.997785e-05
5.704732e-05
7.761580e-05
1.025177e-04
1.308114e-04
1.628744e-04
1.990737e-04
2.397015e-04
2.849716e-04
3.338283e-04
3.866626e-04
4.457540e-04
5.062032e-04
0.000000e+00
3.640400e-06
1.145917e-05
2.077412e-05
3.471838e-05
5.239542e-05
7.316690e-05
9.792339e-05
1.266440e-04
1.590165e-04
1.952598e-04
2.362438e-04
2.826283e-04
3.333112e-04
3.829999e-04
4.381478e-04
4.961929e-04
0.000000e+00
2.374962e-06
9.321761e-06
1.880584e-05
3.260508e-05
5.039106e-05
7.138877e-05
9.629082e-05
1.251744e-04
1.578369e-04
1.943487e-04
2.349106e-04
2.818323e-04
3.326720e-04
3.803529e-04
4.300156e-04
4.831988e-04
0.000000e+00
1.984038e-06
8.707425e-06
1.825887e-05
3.209114e-05
4.978124e-05
7.084455e-05
9.586660e-05
1.248071e-04
1.576289e-04
1.943492e-04
2.347846e-04
2.816620e-04
3.331284e-04
3.796015e-04
4.241096e-04
4.710113e-04
0.000000e+00
2.428324e-06
9.393402e-06
1.886989e-05
3.265929e-05
5.038666e-05
7.127051e-05
9.617816e-05
1.250236e-04
1.577048e-04
1.948508e-04
2.360364e-04
2.830917e-04
3.336073e-04
3.803596e-04
4.226035e-04
4.639780e-04
0.000000e+00
3.719692e-06
1.157193e-05
2.088665e-05
3.482826e-05
5.236948e-05
7.296453e-05
9.769896e-05
1.261716e-04
1.586618e-04
1.963057e-04
2.386474e-04
2.854140e-04
3.342157e-04
3.801265e-04
4.220702e-04
4.620293e-04
0.000000e+00
7.128862e-06
1.562185e-05
2.554358e-05
4.011608e-05
5.705492e-05
7.745943e-05
1.021967e-04
1.301587e-04
1.624112e-04
2.000797e-04
2.421402e-04
2.874183e-04
3.346091e-04
3.796170e-04
4.217921e-04
4.622515e-04
0.000000e+00
1.214822e-05
1.981511e-05
3.149218e-05
4.650119e-05
6.280730e-05
8.357299e-05
1.083259e-04
1.359016e-04
1.683614e-04
2.058704e-04
2.460481e-04
2.893546e-04
3.349139e-04
3.794587e-04
4.216210e-04
4.624836e-04


3.549219e+00
3.466915e+00
3.535201e+00
3.304314e+00
3.188266e+00
3.402331e+00
3.564900e+00
3.845986e+00
4.267125e+00
4.736372e+00
5.504075e+00
6.630523e+00
7.607552e+00
7.807075e+00
6.838764e+00
5.731511e+00
5.607679e+00
5.519860e+00
5.473598e+00
5.310215e+00
5.182435e+00
5.312448e+00
5.409527e+00
5.571961e+00
5.838750e+00
6.126202e+00
6.582852e+00
7.248719e+00
7.812009e+00
7.640882e+00
6.315920e+00
4.830860e+00
7.683169e+00
7.624418e+00
7.592810e+00
7.464067e+00
7.408594e+00
7.448890e+00
7.458553e+00
7.497876e+00
7.571961e+00
7.628249e+00
7.687468e+00
7.784561e+00
7.844355e+00
7.456682e+00
6.175785e+00
4.900865e+00
8.494727e+00
8.472484e+00
8.455222e+00
8.398716e+00
8.378367e+00
8.374181e+00
8.350400e+00
8.322361e+00
8.277330e+00
8.171924e+00
7.947654e+00
7.631050e+00
7.423528e+00
7.231799e+00
6.723391e+00
6.192096e+00
8.493472e+00
8.469937e+00
8.450514e+00
8.390534e+00
8.366474e+00
8.355878e+00
8.322603e+00
8.276904e+00
8.188639e+00
8.012252e+00
7.686008e+00
7.252610e+00
7.052552e+00
7.211255e+00
7.417965e+00
7.463237e+00
7.677179e+00
7.614461e+00
7.572616e+00
7.430751e+00
7.359178e+00
7.375909e+00
7.359970e+00
7.346148e+00
7.309665e+00
7.274096e+00
7.246533e+00
7.172621e+00
7.256598e+00
7.620563e+00
8.019746e+00
8.222920e+00
5.597286e+00
5.504186e+00
5.445111e+00
5.265142e+00
5.115033e+00
5.215935e+00
5.296383e+00
5.406995e+00
5.606888e+00
6.009100e+00
6.663157e+00
7.288105e+00
7.741630e+00
8.136032e+00
8.426858e+00
8.560399e+00
3.537797e+00
3.454875e+00
3.515039e+00
3.275652e+00
3.147092e+00
3.343046e+00
3.518747e+00
3.800743e+00
4.246351e+00
5.056386e+00
6.274687e+00
7.370965e+00
8.037092e+00
8.404522e+00
8.596936e+00
8.675481e+00


-6.931480e-01
-2.103234e-01
-3.016969e-01
-2.642445e-01
-1.550232e-01
-2.433956e-01
-1.974962e-01
-1.722627e-01
-2.061921e-01
-1.797965e-01
-1.968991e-01
-3.207577e-01
-3.789236e-01
-1.550120e-01
4.234975e-01
-7.968343e-01
5.797070e-01
4.333436e-01
3.135827e-01
2.427025e-01
2.946566e-01
2.244198e-01
2.253226e-01
2.284029e-01
1.986021e-01
2.164617e-01
2.513224e-01
3.021523e-01
4.501595e-01
7.123817e-01
7.267568e-01
-1.130733e+00
7.867461e-01
5.941173e-01
3.691389e-01
3.096762e-01
2.951900e-01
2.497699e-01
2.546930e-01
2.596134e-01
2.613740e-01
2.932207e-01
3.499387e-01
4.218969e-01
4.583317e-01
3.231091e-01
9.559139e-02
-2.668020e-01
8.132621e-01
6.577959e-01
4.287075e-01
3.247174e-01
2.608600e-01
2.329880e-01
2.371508e-01
2.480043e-01
2.621880e-01
2.735196e-01
2.709102e-01
2.324456e-01
8.940181e-02
-1.879036e-01
-2.070686e-01
-1.407048e-02
8.147440e-01
6.595392e-01
4.310518e-01
3.249101e-01
2.555899e-01
2.192617e-01
2.084857e-01
1.969880e-01
1.858106e-01
1.559235e-01
9.530166e-02
1.356145e-02
-1.055542e-01
-1.985148e-01
-3.297747e-02
3.800056e-01
7.901365e-01
5.984233e-01
3.755665e-01
3.133557e-01
2.884855e-01
2.279323e-01
2.015383e-01
1.581506e-01
9.961943e-02
2.444611e-02
-6.820176e-02
-1.057092e-01
-6.544605e-02
7.898107e-02
3.886965e-01
7.749285e-01
5.819758e-01
4.349877e-01
3.169014e-01
2.446015e-01
2.911496e-01
2.163827e-01
1.964725e-01
1.719236e-01
1.104057e-01
3.800747e-02
-4.619508e-02
-7.268143e-03
1.907635e-01
4.627430e-01
7.560432e-01
9.580601e-01
-6.947229e-01
-2.147051e-01
-3.030737e-01
-2.655202e-01
-1.579810e-01
-2.320275e-01
-1.850114e-01
-1.445869e-01
-1.212736e-01
-9.698058e-02
-6.857460e-02
1.446618e-01
5.122651e-01
8.084410e-01
9.601318e-01
9.990791e-01
1 2 19 18
2 3 20 19
3 4 21 20
4 5 22 21
5 6 23 22
6 7 24 23
7 8 25 24
8 9 26 25
9 10 27 26
10 11 28 27
11 12 29 28
12 13 30 29
13 14 31 30
14 15 32 31
15 16 33 32
16 17 34 33
18 19 36 35
19 20 37 36
20 21 38 37
21 22 39 38
22 23 40 39
23 24 41 40
24 25 42 41
25 26 43 42
26 27 44 43
27 28 45 44
28 29 46 45
29 30 47 46
30 31 48 47
31 32 49 48
32 33 50 49
33 34 51 50
35 36 53 52
36 37 54 53
37 38 55 54
38 39 56 55
39 40 57 56
40 41 58 57
41 42 59 58
42 43 60 59
43 44 61 60
44 45 62 61
45 46 63 62
46 47 64 63
47 48 65 64
48 49 66 65
49 50 67 66
50 51 68 67
52 53 70 69
53 54 71 70
54 55 72 71
55 56 73 72
56 57 74 73
57 58 75 74
58 59 76 75
59 60 77 76
60 61 78 77
61 62 79 78
62 63 80 79
63 64 81 80
64 65 82 81
65 66 83 82
66 67 84 83
67 68 85 84
69 70 87 86
70 71 88 87
71 72 89 88
72 73 90 89
73 74 91 90
74 75 92 91
75 76 93 92
76 77 94 93
77 78 95 94
78 79 96 95
79 80 97 96
80 81 98 97
81 82 99 98
82 83 100 99
83 84 101 100
84 85 102 101
86 87 104 103
87 88 105 104
88 89 106 105
89 90 107 106
90 91 108 107
91 92 109 108
92 93 110 109
93 94 111 110
94 95 112 111
95 96 113 112
96 97 114 113
97 98 115 114
98 99 116 115
99 100 117 116
100 101 118 117
101 102 119 118
103 104 121 120
104 105 122 121
105 106 123 122
106 107 124 123
107 108 125 124
108 109 126 125
109 110 127 126
110 111 128 127
111 112 129 128
112 113 130 129
113 114 131 130
114 115 132 131
115 116 133 132
116 117 134 133
117 118 135 134
118 119 136 135
120 121 138 137
121 122 139 138
122 123 140 139
123 124 141 140
124 125 142 141
125 126 143 142
126 127 144 143
127 128 145 144
128 129 146 145
129 130 147 146
130 131 148 147
131 132 149 148
132 133 150 149
133 134 151 150
134 135 152 151
135 136 153 152
