TITLE = "Solution"
VARIABLES = x, y, u, v, psiu, psiv, t, stress
ZONE T="structure" N=153 E=128 F=FEBLOCK ET=QUADRILATERAL VARLOCATION=([7,8]=cellcentered)
0.000000e+00
1.250000e+01
2.500000e+01
3.750000e+01
5.000000e+01
6.250000e+01
7.500000e+01
8.750000e+01
1.000000e+02
1.125000e+02
1.250000e+02
1.375000e+02
1.500000e+02
1.625000e+02
1.750000e+02
1.875000e+02
2.000000e+02
0.000000e+00
1.250000e+01
2.500000e+01
3.750000e+01
5.000000e+01
6.250000e+01
7.500000e+01
8.750000e+01
1.000000e+02
1.125000e+02
1.250000e+02
1.375000e+02
1.500000e+02
1.625000e+02
1.750000e+02
1.875000e+02
2.000000e+02
0.000000e+00
1.250000e+01
2.500000e+01
3.750000e+01
5.000000e+01
6.250000e+01
7.500000e+01
8.750000e+01
1.000000e+02
1.125000e+02
1.250000e+02
1.375000e+02
1.500000e+02
1.625000e+02
1.750000e+02
1.875000e+02
2.000000e+02
0.000000e+00
1.250000e+01
2.500000e+01
3.750000e+01
5.000000e+01
6.250000e+01
7.500000e+01
8.750000e+01
1.000000e+02
1.125000e+02
1.250000e+02
1.375000e+02
1.500000e+02
1.625000e+02
1.750000e+02
1.875000e+02
2.000000e+02
0.000000e+00
1.250000e+01
2.500000e+01
3.750000e+01
5.000000e+01
6.250000e+01
7.500000e+01
8.750000e+01
1.000000e+02
1.125000e+02
1.250000e+02
1.375000e+02
1.500000e+02
1.625000e+02
1.750000e+02
1.875000e+02
2.000000e+02
0.000000e+00
1.250000e+01
2.500000e+01
3.750000e+01
5.000000e+01
6.250000e+01
7.500000e+01
8.750000e+01
1.000000e+02
1.125000e+02
1.250000e+02
1.375000e+02
1.500000e+02
1.625000e+02
1.750000e+02
1.875000e+02
2.000000e+02
0.000000e+00
1.250000e+01
2.500000e+01
3.750000e+01
5.000000e+01
6.250000e+01
7.500000e+01
8.750000e+01
1.000000e+02
1.125000e+02
1.250000e+02
1.375000e+02
1.500000e+02
1.625000e+02
1.750000e+02
1.875000e+02
2.000000e+02
0.000000e+00
1.250000e+01
2.500000e+01
3.750000e+01
5.000000e+01
6.250000e+01
7.500000e+01
8.750000e+01
1.000000e+02
1.125000e+02
1.250000e+02
1.375000e+02
1.500000e+02
1.625000e+02
1.750000e+02
1.875000e+02
2.000000e+02
0.000000e+00
1.250000e+01
2.500000e+01
3.750000e+01
5.000000e+01
6.250000e+01
7.500000e+01
8.750000e+01
1.000000e+02
1.125000e+02
1.250000e+02
1.375000e+02
1.500000e+02
1.625000e+02
1.750000e+02
1.875000e+02
2.000000e+02
0.000000e+00
0.000000e+00
0.000000e+00
0.000000e+00
0.000000e+00
0.000000e+00
0.000000e+00
0.000000e+00
0.000000e+00
0.000000e+00
0.000000e+00
0.000000e+00
0.000000e+00
0.000000e+00
0.000000e+00
0.000000e+00
0.000000e+00
1.250000e+01
1.250000e+01
1.250000e+01
1.250000e+01
1.250000e+01
1.250000e+01
1.250000e+01
1.250000e+01
1.250000e+01
1.250000e+01
1.250000e+01
1.250000e+01
1.250000e+01
1.250000e+01
1.250000e+01
1.250000e+01
1.250000e+01
2.500000e+01
2.500000e+01
2.500000e+01
2.500000e+01
2.500000e+01
2.500000e+01
2.500000e+01
2.500000e+01
2.500000e+01
2.500000e+01
2.500000e+01
2.500000e+01
2.500000e+01
2.500000e+01
2.500000e+01
2.500000e+01
2.500000e+01
3.750000e+01
3.750000e+01
3.750000e+01
3.750000e+01
3.750000e+01
3.750000e+01
3.750000e+01
3.750000e+01
3.750000e+01
3.750000e+01
3.750000e+01
3.750000e+01
3.750000e+01
3.750000e+01
3.750000e+01
3.750000e+01
3.750000e+01
5.000000e+01
5.000000e+01
5.000000e+01
5.000000e+01
5.000000e+01
5.000000e+01
5.000000e+01
5.000000e+01
5.000000e+01
5.000000e+01
5.000000e+01
5.000000e+01
5.000000e+01
5.000000e+01
5.000000e+01
5.000000e+01
5.000000e+01
6.250000e+01
6.250000e+01
6.250000e+01
6.250000e+01
6.250000e+01
6.250000e+01
6.250000e+01
6.250000e+01
6.250000e+01
6.250000e+01
6.250000e+01
6.250000e+01
6.250000e+01
6.250000e+01
6.250000e+01
6.250000e+01
6.250000e+01
7.500000e+01
7.500000e+01
7.500000e+01
7.500000e+01
7.500000e+01
7.500000e+01
7.500000e+01
7.500000e+01
7.500000e+01
7.500000e+01
7.500000e+01
7.500000e+01
7.500000e+01
7.500000e+01
7.500000e+01
7.500000e+01
7.500000e+01
8.750000e+01
8.750000e+01
8.750000e+01
8.750000e+01
8.750000e+01
8.750000e+01
8.750000e+01
8.750000e+01
8.750000e+01
8.750000e+01
8.750000e+01
8.750000e+01
8.750000e+01
8.750000e+01
8.750000e+01
8.750000e+01
8.750000e+01
1.000000e+02
1.000000e+02
1.000000e+02
1.000000e+02
1.000000e+02
1.000000e+02
1.000000e+02
1.000000e+02
1.000000e+02
1.000000e+02
1.000000e+02
1.000000e+02
1.000000e+02
1.000000e+02
1.000000e+02
1.000000e+02
1.000000e+02
0.000000e+00
-8.829825e-01
-1.567841e+00
-2.250539e+00
-2.937923e+00
-3.598688e+00
-4.264588e+00
-4.932927e+00
-5.592680e+00
-6.251732e+00
-6.919136e+00
-7.594539e+00
-8.268651e+00
-8.935883e+00
-9.598929e+00
-1.025396e+01
-1.068975e+01
0.000000e+00
-4.571518e-01
-9.479266e-01
-1.446933e+00
-1.961942e+00
-2.456637e+00
-2.954366e+00
-3.454678e+00
-3.947624e+00
-4.437274e+00
-4.927924e+00
-5.414402e+00
-5.879009e+00
-6.288212e+00
-6.569705e+00
-6.636892e+00
-6.791424e+00
0.000000e+00
-2.301287e-01
-4.957442e-01
-8.114865e-01
-1.149129e+00
-1.481471e+00
-1.818754e+00
-2.156427e+00
-2.488315e+00
-2.813448e+00
-3.126849e+00
-3.415220e+00
-3.654727e+00
-3.809513e+00
-3.841101e+00
-3.812763e+00
-3.965825e+00
0.000000e+00
-9.845968e-02
-2.133851e-01
-3.602342e-01
-5.200546e-01
-6.875434e-01
-8.577045e-01
-1.025839e+00
-1.188762e+00
-1.341462e+00
-1.475013e+00
-1.575713e+00
-1.626344e+00
-1.613555e+00
-1.558150e+00
-1.560800e+00
-1.689613e+00
0.000000e+00
-9.537372e-04
-1.889768e-03
-2.596239e-03
-2.731900e-03
-1.731274e-03
1.403163e-03
8.256332e-03
2.117116e-02
4.389497e-02
8.221384e-02
1.429639e-01
2.298530e-01
3.331613e-01
4.126512e-01
4.118456e-01
3.140160e-01
0.000000e+00
9.681741e-02
2.101298e-01
3.556157e-01
5.149077e-01
6.836624e-01
8.585438e-01
1.037363e+00
1.220868e+00
1.410377e+00
1.605855e+00
1.804013e+00
1.995318e+00
2.159001e+00
2.262462e+00
2.278948e+00
2.225119e+00
0.000000e+00
2.292563e-01
4.939496e-01
8.087081e-01
1.145403e+00
1.477510e+00
1.815985e+00
2.156740e+00
2.495592e+00
2.835511e+00
3.173542e+00
3.495174e+00
3.778239e+00
3.998802e+00
4.135826e+00
4.182200e+00
4.169798e+00
0.000000e+00
4.571707e-01
9.479190e-01
1.446721e+00
1.960984e+00
2.454686e+00
2.950892e+00
3.447078e+00
3.933066e+00
4.414489e+00
4.888407e+00
5.328500e+00
5.697742e+00
5.969153e+00
6.134684e+00
6.205881e+00
6.219139e+00
0.000000e+00
8.837267e-01
1.569590e+00
2.253434e+00
2.941586e+00
3.602828e+00
4.268377e+00
4.932361e+00
5.582602e+00
6.226534e+00
6.855592e+00
7.426194e+00
7.881212e+00
8.183100e+00
8.330731e+00
8.366349e+00
8.365096e+00
0.000000e+00
-5.465861e-01
-1.151639e+00
-1.955307e+00
-2.927670e+00
-4.066933e+00
-5.383686e+00
-6.874226e+00
-8.537020e+00
-1.037572e+01
-1.239258e+01
-1.458723e+01
-1.695872e+01
-1.951291e+01
-2.230185e+01
-2.553609e+01
-3.028668e+01
0.000000e+00
-3.507206e-01
-9.839770e-01
-1.776681e+00
-2.752203e+00
-3.893769e+00
-5.209139e+00
-6.700959e+00
-8.365846e+00
-1.020486e+01
-1.222175e+01
-1.441933e+01
-1.679948e+01
-1.937439e+01
-2.219233e+01
-2.543281e+01
-2.938139e+01
0.000000e+00
-2.982026e-01
-8.763180e-01
-1.660705e+00
-2.630192e+00
-3.770855e+00
-5.086581e+00
-6.579973e+00
-8.248067e+00
-1.009203e+01
-1.211682e+01
-1.432729e+01
-1.672848e+01
-1.933673e+01
-2.218085e+01
-2.524946e+01
-2.814463e+01
0.000000e+00
-3.067632e-01
-8.430491e-01
-1.605155e+00
-2.562254e+00
-3.699902e+00
-5.016836e+00
-6.512749e+00
-8.186340e+00
-1.004019e+01
-1.207977e+01
-1.430911e+01
-1.672986e+01
-1.934377e+01
-2.212493e+01
-2.491291e+01
-2.736129e+01
0.000000e+00
-3.139836e-01
-8.405204e-01
-1.591169e+00
-2.543016e+00
-3.679883e+00
-4.999306e+00
-6.499187e+00
-8.179195e+00
-1.004336e+01
-1.209720e+01
-1.434098e+01
-1.676505e+01
-1.934387e+01
-2.200226e+01
-2.457340e+01
-2.679532e+01
0.000000e+00
-3.066774e-01
-8.435962e-01
-1.607170e+00
-2.566713e+00
-3.708213e+00
-5.031246e+00
-6.535620e+00
-8.220329e+00
-1.009040e+01
-1.215204e+01
-1.440055e+01
-1.681174e+01
-1.933518e+01
-2.188001e+01
-2.430696e+01
-2.643753e+01
0.000000e+00
-2.980465e-01
-8.771624e-01
-1.663866e+00
-2.637303e+00
-3.784254e+00
-5.109943e+00
-6.617303e+00
-8.303959e+00
-1.017514e+01
-1.223747e+01
-1.448163e+01
-1.687133e+01
-1.934179e+01
-2.180165e+01
-2.414508e+01
-2.627342e+01
0.000000e+00
-3.505757e-01
-9.848895e-01
-1.780093e+00
-2.760044e+00
-3.908712e+00
-5.235121e+00
-6.742552e+00
-8.428738e+00
-1.029875e+01
-1.235689e+01
-1.458902e+01
-1.695267e+01
-1.937890e+01
-2.178099e+01
-2.407654e+01
-2.623559e+01
0.000000e+00
-5.466347e-01
-1.152745e+00
-1.958883e+00
-2.935655e+00
-4.082083e+00
-5.409491e+00
-6.914817e+00
-8.598512e+00
-1.046675e+01
-1.251718e+01
-1.472839e+01
-1.705700e+01
-1.943924e+01
-2.179752e+01
-2.406375e+01
-2.623675e+01


0.000000e+00
1.293829e-05
2.349005e-05
3.460525e-05
4.784774e-05
6.040296e-05
7.229258e-05
8.421193e-05
9.568039e-05
1.064893e-04
1.163984e-04
1.243427e-04
1.297826e-04
1.335609e-04
1.365480e-04
1.397528e-04
1.434362e-04
0.000000e+00
9.536610e-06
1.892108e-05
2.717295e-05
3.761686e-05
4.738957e-05
5.615341e-05
6.505476e-05
7.367817e-05
8.165220e-05
8.873249e-05
9.390563e-05
9.649453e-05
9.698573e-05
9.710810e-05
9.973813e-05
1.040449e-04
0.000000e+00
7.453323e-06
1.397763e-05
1.963741e-05
2.671042e-05
3.314378e-05
3.892173e-05
4.472114e-05
5.016876e-05
5.498215e-05
5.894165e-05
6.150022e-05
6.240759e-05
6.219766e-05
6.233054e-05
6.487082e-05
6.915576e-05
0.000000e+00
3.809616e-06
6.601377e-06
1.002720e-05
1.334088e-05
1.635712e-05
1.933725e-05
2.213533e-05
2.460135e-05
2.666412e-05
2.817888e-05
2.903834e-05
2.939738e-05
2.969138e-05
3.045348e-05
3.250113e-05
3.568882e-05
0.000000e+00
-2.070198e-08
-4.448625e-08
-6.909450e-08
-9.402275e-08
-1.187924e-07
-1.474508e-07
-1.899403e-07
-2.749719e-07
-4.667044e-07
-8.074761e-07
-1.187880e-06
-1.385942e-06
-1.142249e-06
-4.578756e-07
5.235364e-07
2.068161e-06
0.000000e+00
-3.846438e-06
-6.676970e-06
-1.014917e-05
-1.350443e-05
-1.656290e-05
-1.958421e-05
-2.240675e-05
-2.493339e-05
-2.720098e-05
-2.907306e-05
-3.044110e-05
-3.121367e-05
-3.143142e-05
-3.145330e-05
-3.143110e-05
-3.097441e-05
0.000000e+00
-7.471751e-06
-1.402227e-05
-1.971225e-05
-2.682502e-05
-3.331018e-05
-3.910356e-05
-4.487142e-05
-5.032401e-05
-5.501631e-05
-5.852429e-05
-6.065551e-05
-6.179064e-05
-6.241357e-05
-6.283193e-05
-6.310466e-05
-6.306424e-05
0.000000e+00
-9.535469e-06
-1.892477e-05
-2.717755e-05
-3.763392e-05
-4.744525e-05
-5.619622e-05
-6.503967e-05
-7.374587e-05
-8.157110e-05
-8.757004e-05
-9.118909e-05
-9.308890e-05
-9.415656e-05
-9.480405e-05
-9.513550e-05
-9.519939e-05
0.000000e+00
-1.293221e-05
-2.346358e-05
-3.454542e-05
-4.774465e-05
-6.026915e-05
-7.208984e-05
-8.390377e-05
-9.540825e-05
-1.061164e-04
-1.149275e-04
-1.209693e-04
-1.245605e-04
-1.264998e-04
-1.274106e-04
-1.277050e-04
-1.277409e-04
0.000000e+00
1.102400e-05
1.840724e-05
2.856048e-05
4.204903e-05
5.744251e-05
7.603867e-05
9.813916e-05
1.230188e-04
1.505303e-04
1.802607e-04
2.113963e-04
2.439081e-04
2.788541e-04
3.192997e-04
3.662273e-04
4.136623e-04
0.000000e+00
6.076197e-06
1.403793e-05
2.321046e-05
3.617976e-05
5.201918e-05
7.079846e-05
9.292515e-05
1.180725e-04
1.459825e-04
1.764362e-04
2.088025e-04
2.425561e-04
2.780414e-04
3.165491e-04
3.609258e-04
4.070687e-04
0.000000e+00
2.862547e-06
1.014536e-05
1.921379e-05
3.174913e-05
4.793301e-05
6.704507e-05
8.926184e-05
1.146624e-04
1.429990e-04
1.740496e-04
2.072829e-04
2.419536e-04
2.773963e-04
3.130578e-04
3.538388e-04
3.978908e-04
0.000000e+00
1.714609e-06
8.166660e-06
1.741176e-05
2.998220e-05
4.618841e-05
6.545737e-05
8.783896e-05
1.134189e-04
1.420016e-04
1.732931e-04
2.067322e-04
2.415507e-04
2.766140e-04
3.104625e-04
3.476633e-04
3.885847e-04
0.000000e+00
1.435458e-06
7.571770e-06
1.681607e-05
2.951304e-05
4.564683e-05
6.495407e-05
8.743538e-05
1.131221e-04
1.418657e-04
1.732670e-04
2.066683e-04
2.412822e-04
2.760571e-04
3.096189e-04
3.445094e-04
3.817280e-04
0.000000e+00
1.721760e-06
8.170365e-06
1.740107e-05
2.994534e-05
4.612877e-05
6.538379e-05
8.776119e-05
1.134458e-04
1.423175e-04
1.738473e-04
2.071981e-04
2.415280e-04
2.759309e-04
3.097824e-04
3.437434e-04
3.780190e-04
0.000000e+00
2.873969e-06
1.015329e-05
1.920049e-05
3.169494e-05
4.784154e-05
6.692323e-05
8.911904e-05
1.147087e-04
1.435606e-04
1.750754e-04
2.082405e-04
2.421627e-04
2.762015e-04
3.099482e-04
3.434731e-04
3.764739e-04
0.000000e+00
6.091479e-06
1.405231e-05
2.320687e-05
3.614135e-05
5.193119e-05
7.065604e-05
9.277675e-05
1.181289e-04
1.464895e-04
1.773011e-04
2.096564e-04
2.429071e-04
2.765306e-04
3.100732e-04
3.433148e-04
3.760526e-04
0.000000e+00
1.104086e-05
1.842360e-05
2.856220e-05
4.202738e-05
5.736916e-05
7.588436e-05
9.800754e-05
1.231075e-04
1.507861e-04
1.803899e-04
2.114337e-04
2.437773e-04
2.769168e-04
3.102173e-04
3.432908e-04
3.760092e-04


2.531006e+00
2.415006e+00
2.511800e+00
2.614359e+00
2.703466e+00
2.976091e+00
3.280221e+00
3.619026e+00
4.097896e+00
4.732316e+00
5.435927e+00
6.044120e+00
6.372471e+00
6.123459e+00
5.216346e+00
4.414881e+00
3.874037e+00
3.760452e+00
3.786825e+00
3.828599e+00
3.865442e+00
4.046862e+00
4.253923e+00
4.485031e+00
4.822198e+00
5.278412e+00
5.790666e+00
6.233048e+00
6.432424e+00
6.051340e+00
5.039979e+00
4.141175e+00
5.589543e+00
5.522720e+00
5.510675e+00
5.490502e+00
5.481499e+00
5.550595e+00
5.624857e+00
5.707975e+00
5.840896e+00
6.032517e+00
6.257992e+00
6.455372e+00
6.507043e+00
6.121356e+00
5.237858e+00
4.514101e+00
6.515161e+00
6.483465e+00
6.463135e+00
6.422512e+00
6.404933e+00
6.410426e+00
6.409326e+00
6.404344e+00
6.408204e+00
6.428656e+00
6.467221e+00
6.513074e+00
6.516030e+00
6.304569e+00
5.839233e+00
5.461538e+00
6.514883e+00
6.482851e+00
6.461891e+00
6.420132e+00
6.400926e+00
6.403534e+00
6.395566e+00
6.379194e+00
6.371812e+00
6.382856e+00
6.412026e+00
6.458179e+00
6.506478e+00
6.482899e+00
6.357482e+00
6.245968e+00
5.588405e+00
5.520719e+00
5.506704e+00
5.483218e+00
5.470473e+00
5.533209e+00
5.591504e+00
5.655373e+00
5.785157e+00
5.982963e+00
6.197585e+00
6.384138e+00
6.531275e+00
6.625392e+00
6.659072e+00
6.663284e+00
3.872146e+00
3.757706e+00
3.781867e+00
3.819940e+00
3.854607e+00
4.033126e+00
4.230122e+00
4.466841e+00
4.859581e+00
5.385985e+00
5.907096e+00
6.307469e+00
6.568555e+00
6.723984e+00
6.806082e+00
6.839087e+00
2.529013e+00
2.412771e+00
2.508232e+00
2.608513e+00
2.699022e+00
2.975918e+00
3.283090e+00
3.657837e+00
4.248112e+00
5.007953e+00
5.735244e+00
6.271491e+00
6.597756e+00
6.775354e+00
6.863597e+00
6.899504e+00


-5.799429e-01
-2.232858e-01
-2.243270e-01
-2.673441e-01
-1.741432e-01
-1.914031e-01
-2.030116e-01
-1.730043e-01
-1.667211e-01
-1.858338e-01
-1.905367e-01
-1.361972e-01
-2.775668e-03
2.326763e-01
5.353059e-01
-6.077666e-01
5.405302e-01
4.077604e-01
3.352533e-01
2.768448e-01
3.107318e-01
2.895496e-01
2.732412e-01
2.820151e-01
2.867507e-01
2.965288e-01
3.436634e-01
4.588714e-01
6.438067e-01
8.383662e-01
7.469116e-01
-1.255181e+00
8.232873e-01
6.906077e-01
5.649176e-01
5.119241e-01
5.015747e-01
4.800213e-01
4.682999e-01
4.688739e-01
4.741332e-01
4.900282e-01
5.263798e-01
5.785025e-01
5.981396e-01
4.893685e-01
1.949790e-01
-3.287659e-01
8.858201e-01
7.690859e-01
6.377356e-01
5.651239e-01
5.326940e-01
5.158532e-01
5.081829e-01
5.053561e-01
4.987125e-01
4.798802e-01
4.423135e-01
3.719817e-01
2.414969e-01
7.492369e-02
4.787571e-02
1.134922e-01
8.865391e-01
7.698495e-01
6.381019e-01
5.638173e-01
5.277966e-01
5.041840e-01
4.857227e-01
4.658864e-01
4.308315e-01
3.682383e-01
2.758483e-01
1.625101e-01
5.815415e-02
5.308246e-02
2.390005e-01
5.405196e-01
8.250241e-01
6.925224e-01
5.662512e-01
5.104943e-01
4.934969e-01
4.589353e-01
4.260200e-01
3.913194e-01
3.345736e-01
2.552573e-01
1.739377e-01
1.237118e-01
1.497673e-01
3.008264e-01
5.652236e-01
8.452405e-01
5.418878e-01
4.091757e-01
3.365668e-01
2.777304e-01
3.083520e-01
2.806129e-01
2.556593e-01
2.456653e-01
2.086638e-01
1.617194e-01
1.620582e-01
2.440500e-01
4.020450e-01
6.161833e-01
8.337810e-01
9.728219e-01
-5.813596e-01
-2.252829e-01
-2.263103e-01
-2.676711e-01
-1.737793e-01
-1.890579e-01
-1.889302e-01
-1.464891e-01
-1.328600e-01
-1.005914e-01
5.615016e-02
3.439514e-01
6.499296e-01
8.689202e-01
9.742636e-01
9.994976e-01
1 2 19 18
2 3 20 19
3 4 21 20
4 5 22 21
5 6 23 22
6 7 24 23
7 8 25 24
8 9 26 25
9 10 27 26
10 11 28 27
11 12 29 28
12 13 30 29
13 14 31 30
14 15 32 31
15 16 33 32
16 17 34 33
18 19 36 35
19 20 37 36
20 21 38 37
21 22 39 38
22 23 40 39
23 24 41 40
24 25 42 41
25 26 43 42
26 27 44 43
27 28 45 44
28 29 46 45
29 30 47 46
30 31 48 47
31 32 49 48
32 33 50 49
33 34 51 50
35 36 53 52
36 37 54 53
37 38 55 54
38 39 56 55
39 40 57 56
40 41 58 57
41 42 59 58
42 43 60 59
43 44 61 60
44 45 62 61
45 46 63 62
46 47 64 63
47 48 65 64
48 49 66 65
49 50 67 66
50 51 68 67
52 53 70 69
53 54 71 70
54 55 72 71
55 56 73 72
56 57 74 73
57 58 75 74
58 59 76 75
59 60 77 76
60 61 78 77
61 62 79 78
62 63 80 79
63 64 81 80
64 65 82 81
65 66 83 82
66 67 84 83
67 68 85 84
69 70 87 86
70 71 88 87
71 72 89 88
72 73 90 89
73 74 91 90
74 75 92 91
75 76 93 92
76 77 94 93
77 78 95 94
78 79 96 95
79 80 97 96
80 81 98 97
81 82 99 98
82 83 100 99
83 84 101 100
84 85 102 101
86 87 104 103
87 88 105 104
88 89 106 105
89 90 107 106
90 91 108 107
91 92 109 108
92 93 110 109
93 94 111 110
94 95 112 111
95 96 113 112
96 97 114 113
97 98 115 114
98 99 116 115
99 100 117 116
100 101 118 117
101 102 119 118
103 104 121 120
104 105 122 121
105 106 123 122
106 107 124 123
107 108 125 124
108 109 126 125
109 110 127 126
110 111 128 127
111 112 129 128
112 113 130 129
113 114 131 130
114 115 132 131
115 116 133 132
116 117 134 133
117 118 135 134
118 119 136 135
120 121 138 137
121 122 139 138
122 123 140 139
123 124 141 140
124 125 142 141
125 126 143 142
126 127 144 143
127 128 145 144
128 129 146 145
129 130 147 146
130 131 148 147
131 132 149 148
132 133 150 149
133 134 151 150
134 135 152 151
135 136 153 152
