TITLE = "Solution"
VARIABLES = x, y, u, v, psiu, psiv, t, stress
ZONE T="structure" N=153 E=128 F=FEBLOCK ET=QUADRILATERAL VARLOCATION=([7,8]=cellcentered)
0.000000e+00
1.250000e+01
2.500000e+01
3.750000e+01
5.000000e+01
6.250000e+01
7.500000e+01
8.750000e+01
1.000000e+02
1.125000e+02
1.250000e+02
1.375000e+02
1.500000e+02
1.625000e+02
1.750000e+02
1.875000e+02
2.000000e+02
0.000000e+00
1.250000e+01
2.500000e+01
3.750000e+01
5.000000e+01
6.250000e+01
7.500000e+01
8.750000e+01
1.000000e+02
1.125000e+02
1.250000e+02
1.375000e+02
1.500000e+02
1.625000e+02
1.750000e+02
1.875000e+02
2.000000e+02
0.000000e+00
1.250000e+01
2.500000e+01
3.750000e+01
5.000000e+01
6.250000e+01
7.500000e+01
8.750000e+01
1.000000e+02
1.125000e+02
1.250000e+02
1.375000e+02
1.500000e+02
1.625000e+02
1.750000e+02
1.875000e+02
2.000000e+02
0.000000e+00
1.250000e+01
2.500000e+01
3.750000e+01
5.000000e+01
6.250000e+01
7.500000e+01
8.750000e+01
1.000000e+02
1.125000e+02
1.250000e+02
1.375000e+02
1.500000e+02
1.625000e+02
1.750000e+02
1.875000e+02
2.000000e+02
0.000000e+00
1.250000e+01
2.500000e+01
3.750000e+01
5.000000e+01
6.250000e+01
7.500000e+01
8.750000e+01
1.000000e+02
1.125000e+02
1.250000e+02
1.375000e+02
1.500000e+02
1.625000e+02
1.750000e+02
1.875000e+02
2.000000e+02
0.000000e+00
1.250000e+01
2.500000e+01
3.750000e+01
5.000000e+01
6.250000e+01
7.500000e+01
8.750000e+01
1.000000e+02
1.125000e+02
1.250000e+02
1.375000e+02
1.500000e+02
1.625000e+02
1.750000e+02
1.875000e+02
2.000000e+02
0.000000e+00
1.250000e+01
2.500000e+01
3.750000e+01
5.000000e+01
6.250000e+01
7.500000e+01
8.750000e+01
1.000000e+02
1.125000e+02
1.250000e+02
1.375000e+02
1.500000e+02
1.625000e+02
1.750000e+02
1.875000e+02
2.000000e+02
0.000000e+00
1.250000e+01
2.500000e+01
3.750000e+01
5.000000e+01
6.250000e+01
7.500000e+01
8.750000e+01
1.000000e+02
1.125000e+02
1.250000e+02
1.375000e+02
1.500000e+02
1.625000e+02
1.750000e+02
1.875000e+02
2.000000e+02
0.000000e+00
1.250000e+01
2.500000e+01
3.750000e+01
5.000000e+01
6.250000e+01
7.500000e+01
8.750000e+01
1.000000e+02
1.125000e+02
1.250000e+02
1.375000e+02
1.500000e+02
1.625000e+02
1.750000e+02
1.875000e+02
2.000000e+02
0.000000e+00
0.000000e+00
0.000000e+00
0.000000e+00
0.000000e+00
0.000000e+00
0.000000e+00
0.000000e+00
0.000000e+00
0.000000e+00
0.000000e+00
0.000000e+00
0.000000e+00
0.000000e+00
0.000000e+00
0.000000e+00
0.000000e+00
1.250000e+01
1.250000e+01
1.250000e+01
1.250000e+01
1.250000e+01
1.250000e+01
1.250000e+01
1.250000e+01
1.250000e+01
1.250000e+01
1.250000e+01
1.250000e+01
1.250000e+01
1.250000e+01
1.250000e+01
1.250000e+01
1.250000e+01
2.500000e+01
2.500000e+01
2.500000e+01
2.500000e+01
2.500000e+01
2.500000e+01
2.500000e+01
2.500000e+01
2.500000e+01
2.500000e+01
2.500000e+01
2.500000e+01
2.500000e+01
2.500000e+01
2.500000e+01
2.500000e+01
2.500000e+01
3.750000e+01
3.750000e+01
3.750000e+01
3.750000e+01
3.750000e+01
3.750000e+01
3.750000e+01
3.750000e+01
3.750000e+01
3.750000e+01
3.750000e+01
3.750000e+01
3.750000e+01
3.750000e+01
3.750000e+01
3.750000e+01
3.750000e+01
5.000000e+01
5.000000e+01
5.000000e+01
5.000000e+01
5.000000e+01
5.000000e+01
5.000000e+01
5.000000e+01
5.000000e+01
5.000000e+01
5.000000e+01
5.000000e+01
5.000000e+01
5.000000e+01
5.000000e+01
5.000000e+01
5.000000e+01
6.250000e+01
6.250000e+01
6.250000e+01
6.250000e+01
6.250000e+01
6.250000e+01
6.250000e+01
6.250000e+01
6.250000e+01
6.250000e+01
6.250000e+01
6.250000e+01
6.250000e+01
6.250000e+01
6.250000e+01
6.250000e+01
6.250000e+01
7.500000e+01
7.500000e+01
7.500000e+01
7.500000e+01
7.500000e+01
7.500000e+01
7.500000e+01
7.500000e+01
7.500000e+01
7.500000e+01
7.500000e+01
7.500000e+01
7.500000e+01
7.500000e+01
7.500000e+01
7.500000e+01
7.500000e+01
8.750000e+01
8.750000e+01
8.750000e+01
8.750000e+01
8.750000e+01
8.750000e+01
8.750000e+01
8.750000e+01
8.750000e+01
8.750000e+01
8.750000e+01
8.750000e+01
8.750000e+01
8.750000e+01
8.750000e+01
8.750000e+01
8.750000e+01
1.000000e+02
1.000000e+02
1.000000e+02
1.000000e+02
1.000000e+02
1.000000e+02
1.000000e+02
1.000000e+02
1.000000e+02
1.000000e+02
1.000000e+02
1.000000e+02
1.000000e+02
1.000000e+02
1.000000e+02
1.000000e+02
1.000000e+02
0.000000e+00
-8.505115e-01
-1.531077e+00
-2.197248e+00
-2.875910e+00
-3.536373e+00
-4.191818e+00
-4.847710e+00
-5.499362e+00
-6.145189e+00
-6.780182e+00
-7.394374e+00
-7.983585e+00
-8.559180e+00
-9.143676e+00
-9.765567e+00
-1.019385e+01
0.000000e+00
-4.595510e-01
-9.548229e-01
-1.448728e+00
-1.956723e+00
-2.451414e+00
-2.941403e+00
-3.431291e+00
-3.917243e+00
-4.397008e+00
-4.864804e+00
-5.308130e+00
-5.711785e+00
-6.054496e+00
-6.287452e+00
-6.340104e+00
-6.484236e+00
0.000000e+00
-2.497880e-01
-5.291382e-01
-8.478721e-01
-1.183202e+00
-1.515201e+00
-1.846598e+00
-2.176572e+00
-2.500906e+00
-2.814915e+00
-3.109646e+00
-3.370133e+00
-3.576062e+00
-3.700490e+00
-3.716982e+00
-3.685393e+00
-3.834875e+00
0.000000e+00
-1.089547e-01
-2.348366e-01
-3.860042e-01
-5.495964e-01
-7.169381e-01
-8.848814e-01
-1.050077e+00
-1.208633e+00
-1.354898e+00
-1.480000e+00
-1.571732e+00
-1.616356e+00
-1.605115e+00
-1.559095e+00
-1.565409e+00
-1.686557e+00
0.000000e+00
-6.571280e-04
-1.341158e-03
-1.925457e-03
-2.165783e-03
-1.618663e-03
4.909412e-04
5.476966e-03
1.556372e-02
3.431143e-02
6.667063e-02
1.179385e-01
1.902979e-01
2.742907e-01
3.360328e-01
3.293745e-01
2.421419e-01
0.000000e+00
1.078374e-01
2.325287e-01
3.826023e-01
5.455777e-01
7.135008e-01
8.844583e-01
1.057257e+00
1.231599e+00
1.407407e+00
1.583562e+00
1.756770e+00
1.919303e+00
2.054784e+00
2.137885e+00
2.148586e+00
2.102243e+00
0.000000e+00
2.492125e-01
5.278655e-01
8.458049e-01
1.180387e+00
1.511929e+00
1.843531e+00
2.175361e+00
2.504835e+00
2.828733e+00
3.139199e+00
3.423265e+00
3.665666e+00
3.850596e+00
3.963837e+00
4.001567e+00
3.990888e+00
0.000000e+00
4.596552e-01
9.548954e-01
1.448634e+00
1.956302e+00
2.450229e+00
2.938437e+00
3.425304e+00
3.906548e+00
4.376065e+00
4.818870e+00
5.210745e+00
5.528315e+00
5.757284e+00
5.895623e+00
5.954896e+00
5.965890e+00
0.000000e+00
8.510813e-01
1.532367e+00
2.199420e+00
2.879095e+00
3.540306e+00
4.195508e+00
4.849652e+00
5.496325e+00
6.125562e+00
6.713014e+00
7.220554e+00
7.612140e+00
7.867666e+00
7.991852e+00
8.021949e+00
8.021021e+00
0.000000e+00
-5.241995e-01
-1.087274e+00
-1.834506e+00
-2.749149e+00
-3.830214e+00
-5.084440e+00
-6.511578e+00
-8.109835e+00
-9.877523e+00
-1.180935e+01
-1.389747e+01
-1.613801e+01
-1.854091e+01
-2.116891e+01
-2.423656e+01
-2.876685e+01
0.000000e+00
-3.320586e-01
-9.200662e-01
-1.658915e+00
-2.574244e+00
-3.658287e+00
-4.913101e+00
-6.341093e+00
-7.941320e+00
-9.712235e+00
-1.165023e+01
-1.374834e+01
-1.600183e+01
-1.842301e+01
-2.106768e+01
-2.413024e+01
-2.791195e+01
0.000000e+00
-2.730819e-01
-8.099700e-01
-1.541215e+00
-2.452212e+00
-3.536198e+00
-4.792248e+00
-6.222425e+00
-7.826535e+00
-9.604058e+00
-1.155271e+01
-1.366676e+01
-1.594296e+01
-1.839357e+01
-2.105299e+01
-2.394091e+01
-2.668272e+01
0.000000e+00
-2.691037e-01
-7.682740e-01
-1.479635e+00
-2.382761e+00
-3.464595e+00
-4.722289e+00
-6.156220e+00
-7.766795e+00
-9.554479e+00
-1.151743e+01
-1.364964e+01
-1.594455e+01
-1.839967e+01
-2.099569e+01
-2.360767e+01
-2.592335e+01
0.000000e+00
-2.726236e-01
-7.603467e-01
-1.462802e+00
-2.361615e+00
-3.443155e+00
-4.703080e+00
-6.141193e+00
-7.758574e+00
-9.556325e+00
-1.153205e+01
-1.367659e+01
-1.597385e+01
-1.839736e+01
-2.088392e+01
-2.329650e+01
-2.541450e+01
0.000000e+00
-2.689455e-01
-7.684535e-01
-1.480717e+00
-2.385582e+00
-3.470383e+00
-4.732727e+00
-6.173838e+00
-7.795589e+00
-9.599589e+00
-1.158238e+01
-1.372975e+01
-1.601385e+01
-1.838845e+01
-2.077743e+01
-2.306654e+01
-2.510925e+01
0.000000e+00
-2.727999e-01
-8.102184e-01
-1.542889e+00
-2.456692e+00
-3.545514e+00
-4.809241e+00
-6.251399e+00
-7.874280e+00
-9.679452e+00
-1.166214e+01
-1.380332e+01
-1.606601e+01
-1.839383e+01
-2.071084e+01
-2.293038e+01
-2.497139e+01
0.000000e+00
-3.317750e-01
-9.203268e-01
-1.660743e+00
-2.579207e+00
-3.668656e+00
-4.932147e+00
-6.373857e+00
-7.995511e+00
-9.797482e+00
-1.177286e+01
-1.389943e+01
-1.613652e+01
-1.842529e+01
-2.069354e+01
-2.287321e+01
-2.493948e+01
0.000000e+00
-5.240655e-01
-1.087666e+00
-1.836506e+00
-2.754307e+00
-3.840704e+00
-5.103475e+00
-6.544222e+00
-8.163136e+00
-9.958536e+00
-1.191956e+01
-1.402179e+01
-1.622571e+01
-1.847616e+01
-2.070746e+01
-2.286260e+01
-2.494032e+01


0.000000e+00
1.146476e-05
2.173443e-05
3.187235e-05
4.317143e-05
5.421299e-05
6.441638e-05
7.403275e-05
8.292574e-05
9.053544e-05
9.637942e-05
1.004344e-04
1.031610e-04
1.052519e-04
1.071774e-04
1.097098e-04
1.128565e-04
0.000000e+00
8.446743e-06
1.754078e-05
2.514329e-05
3.385609e-05
4.235706e-05
4.996120e-05
5.708241e-05
6.368285e-05
6.917961e-05
7.313021e-05
7.554356e-05
7.671821e-05
7.694862e-05
7.712788e-05
7.917986e-05
8.266164e-05
0.000000e+00
6.443425e-06
1.262719e-05
1.787297e-05
2.374788e-05
2.930481e-05
3.428286e-05
3.887662e-05
4.298947e-05
4.628801e-05
4.855440e-05
4.979969e-05
5.020678e-05
5.013685e-05
5.036293e-05
5.221837e-05
5.538709e-05
0.000000e+00
3.237168e-06
5.928013e-06
8.976839e-06
1.184099e-05
1.449085e-05
1.696647e-05
1.919749e-05
2.108661e-05
2.256344e-05
2.356874e-05
2.411219e-05
2.434163e-05
2.455778e-05
2.507676e-05
2.630610e-05
2.825701e-05
0.000000e+00
-1.013939e-08
-2.088617e-08
-3.133690e-08
-4.157045e-08
-5.252803e-08
-6.655632e-08
-9.458277e-08
-1.583400e-07
-2.752784e-07
-4.315577e-07
-5.709380e-07
-5.927693e-07
-3.904380e-07
-3.050146e-08
4.352961e-07
1.278187e-06
0.000000e+00
-3.255429e-06
-5.963952e-06
-9.031649e-06
-1.191507e-05
-1.458121e-05
-1.707096e-05
-1.932786e-05
-2.128406e-05
-2.288871e-05
-2.408587e-05
-2.484300e-05
-2.519472e-05
-2.526100e-05
-2.525532e-05
-2.523927e-05
-2.497652e-05
0.000000e+00
-6.452423e-06
-1.264758e-05
-1.791112e-05
-2.380710e-05
-2.937647e-05
-3.436420e-05
-3.896929e-05
-4.304287e-05
-4.620145e-05
-4.829689e-05
-4.950435e-05
-5.012658e-05
-5.044473e-05
-5.065234e-05
-5.077711e-05
-5.072661e-05
0.000000e+00
-8.446241e-06
-1.754147e-05
-2.515288e-05
-3.387949e-05
-4.238240e-05
-4.999417e-05
-5.714310e-05
-6.366845e-05
-6.881471e-05
-7.221018e-05
-7.417614e-05
-7.527061e-05
-7.589993e-05
-7.627467e-05
-7.646355e-05
-7.649584e-05
0.000000e+00
-1.146338e-05
-2.172239e-05
-3.184992e-05
-4.313798e-05
-5.415569e-05
-6.433787e-05
-7.394970e-05
-8.274592e-05
-8.997006e-05
-9.515645e-05
-9.849456e-05
-1.005024e-04
-1.016465e-04
-1.022306e-04
-1.024442e-04
-1.024773e-04
0.000000e+00
9.914049e-06
1.681282e-05
2.565700e-05
3.745506e-05
5.130818e-05
6.760954e-05
8.657032e-05
1.076883e-04
1.303798e-04
1.542891e-04
1.792493e-04
2.052336e-04
2.326656e-04
2.637478e-04
2.998214e-04
3.366706e-04
0.000000e+00
5.266131e-06
1.254584e-05
2.093776e-05
3.237325e-05
4.651454e-05
6.319654e-05
8.243754e-05
1.040147e-04
1.274630e-04
1.522723e-04
1.780377e-04
2.045840e-04
2.321573e-04
2.616307e-04
2.954322e-04
3.311625e-04
0.000000e+00
2.361851e-06
8.948586e-06
1.745955e-05
2.868289e-05
4.304628e-05
6.007462e-05
7.958937e-05
1.015265e-04
1.255178e-04
1.509636e-04
1.773243e-04
2.043161e-04
2.317078e-04
2.592308e-04
2.901839e-04
3.239801e-04
0.000000e+00
1.368211e-06
7.207970e-06
1.582203e-05
2.717285e-05
4.159123e-05
5.874921e-05
7.844660e-05
1.005622e-04
1.247419e-04
1.504088e-04
1.769972e-04
2.040874e-04
2.312153e-04
2.577297e-04
2.863695e-04
3.176843e-04
0.000000e+00
1.158920e-06
6.698476e-06
1.526768e-05
2.675179e-05
4.116164e-05
5.834882e-05
7.813293e-05
1.003358e-04
1.245832e-04
1.503036e-04
1.769086e-04
2.039115e-04
2.308442e-04
2.573290e-04
2.847477e-04
3.135264e-04
0.000000e+00
1.369796e-06
7.204635e-06
1.580941e-05
2.715036e-05
4.155755e-05
5.871158e-05
7.844680e-05
1.006611e-04
1.249498e-04
1.506573e-04
1.771588e-04
2.039872e-04
2.307795e-04
2.574025e-04
2.842926e-04
3.113438e-04
0.000000e+00
2.364403e-06
8.943807e-06
1.744113e-05
2.864914e-05
4.299357e-05
6.001419e-05
7.959495e-05
1.017057e-04
1.258966e-04
1.514372e-04
1.777004e-04
2.042847e-04
2.309307e-04
2.575193e-04
2.841019e-04
3.104094e-04
0.000000e+00
5.269936e-06
1.254513e-05
2.092566e-05
3.234431e-05
4.646424e-05
6.314401e-05
8.245290e-05
1.041823e-04
1.277988e-04
1.527114e-04
1.784547e-04
2.046847e-04
2.311322e-04
2.576127e-04
2.840037e-04
3.101271e-04
0.000000e+00
9.918791e-06
1.681514e-05
2.565281e-05
3.743402e-05
5.126456e-05
6.757407e-05
8.659191e-05
1.077670e-04
1.304757e-04
1.544155e-04
1.794138e-04
2.051839e-04
2.313772e-04
2.577147e-04
2.839936e-04
3.100900e-04


2.263434e+00
2.184327e+00
2.319504e+00
2.518048e+00
2.668848e+00
2.926862e+00
3.257157e+00
3.638016e+00
4.089247e+00
4.568327e+00
4.987813e+00
5.282058e+00
5.391664e+00
5.140764e+00
4.520101e+00
4.012929e+00
3.184144e+00
3.106005e+00
3.178908e+00
3.305569e+00
3.402856e+00
3.586816e+00
3.827937e+00
4.108828e+00
4.447902e+00
4.813748e+00
5.136590e+00
5.360087e+00
5.419960e+00
5.127441e+00
4.492076e+00
3.975256e+00
4.481928e+00
4.428964e+00
4.445850e+00
4.482350e+00
4.510405e+00
4.591179e+00
4.698762e+00
4.827174e+00
4.990910e+00
5.175290e+00
5.341710e+00
5.455503e+00
5.464952e+00
5.211861e+00
4.695755e+00
4.297617e+00
5.259711e+00
5.229921e+00
5.218829e+00
5.204790e+00
5.202285e+00
5.219309e+00
5.242564e+00
5.273002e+00
5.319537e+00
5.379391e+00
5.438693e+00
5.483460e+00
5.485840e+00
5.354785e+00
5.084025e+00
4.874888e+00
5.259736e+00
5.229802e+00
5.218404e+00
5.203869e+00
5.200346e+00
5.215130e+00
5.234801e+00
5.261078e+00
5.303076e+00
5.357665e+00
5.412845e+00
5.460973e+00
5.492312e+00
5.470336e+00
5.386976e+00
5.318078e+00
4.481764e+00
4.428340e+00
4.444337e+00
4.479639e+00
4.505355e+00
4.581424e+00
4.683647e+00
4.809667e+00
4.972230e+00
5.150277e+00
5.306403e+00
5.423228e+00
5.503600e+00
5.546017e+00
5.553091e+00
5.548230e+00
3.183391e+00
3.104550e+00
3.176316e+00
3.301877e+00
3.397401e+00
3.578910e+00
3.822991e+00
4.119399e+00
4.479218e+00
4.852258e+00
5.163471e+00
5.379947e+00
5.514431e+00
5.591409e+00
5.629969e+00
5.644659e+00
2.262148e+00
2.182315e+00
2.316451e+00
2.514470e+00
2.665014e+00
2.924328e+00
3.266821e+00
3.680048e+00
4.171749e+00
4.671135e+00
5.080179e+00
5.357951e+00
5.523324e+00
5.613953e+00
5.659299e+00
5.677872e+00


-5.115207e-01
-2.204686e-01
-1.800837e-01
-2.343631e-01
-1.725376e-01
-1.544138e-01
-1.564757e-01
-1.418086e-01
-1.187759e-01
-7.316561e-02
1.620030e-02
1.387650e-01
2.716765e-01
4.224980e-01
5.934062e-01
-5.119416e-01
5.233739e-01
4.001363e-01
3.534408e-01
3.056423e-01
3.246897e-01
3.243528e-01
3.164324e-01
3.210288e-01
3.386077e-01
3.830996e-01
4.721392e-01
6.043361e-01
7.605140e-01
8.922366e-01
7.621700e-01
-1.270608e+00
8.309282e-01
7.243414e-01
6.310952e-01
5.867772e-01
5.761571e-01
5.646714e-01
5.558993e-01
5.551758e-01
5.643656e-01
5.904907e-01
6.379459e-01
6.925558e-01
7.094619e-01
6.086558e-01
2.942571e-01
-2.594989e-01
9.173355e-01
8.258560e-01
7.356908e-01
6.843180e-01
6.626247e-01
6.515264e-01
6.431668e-01
6.340535e-01
6.212825e-01
6.037015e-01
5.785498e-01
5.326634e-01
4.423299e-01
3.166764e-01
2.625352e-01
2.809160e-01
9.178906e-01
8.265042e-01
7.361704e-01
6.837674e-01
6.596723e-01
6.440841e-01
6.276696e-01
6.044594e-01
5.685893e-01
5.174596e-01
4.528536e-01
3.801652e-01
3.180171e-01
3.230491e-01
4.543239e-01
6.658062e-01
8.322344e-01
7.259307e-01
6.324889e-01
5.864053e-01
5.714494e-01
5.514604e-01
5.264475e-01
4.964006e-01
4.573767e-01
4.132638e-01
3.751623e-01
3.594225e-01
3.936522e-01
5.090051e-01
6.966161e-01
8.914649e-01
5.243063e-01
4.014173e-01
3.547777e-01
3.063742e-01
3.237987e-01
3.201575e-01
3.038824e-01
2.914158e-01
2.838234e-01
2.983007e-01
3.531407e-01
4.480617e-01
5.763653e-01
7.320531e-01
8.845618e-01
9.810246e-01
-5.126813e-01
-2.218286e-01
-1.815275e-01
-2.359049e-01
-1.729005e-01
-1.514359e-01
-1.494618e-01
-1.278822e-01
-7.701166e-02
4.276220e-02
2.547815e-01
5.155951e-01
7.504579e-01
9.080341e-01
9.820125e-01
9.996413e-01
1 2 19 18
2 3 20 19
3 4 21 20
4 5 22 21
5 6 23 22
6 7 24 23
7 8 25 24
8 9 26 25
9 10 27 26
10 11 28 27
11 12 29 28
12 13 30 29
13 14 31 30
14 15 32 31
15 16 33 32
16 17 34 33
18 19 36 35
19 20 37 36
20 21 38 37
21 22 39 38
22 23 40 39
23 24 41 40
24 25 42 41
25 26 43 42
26 27 44 43
27 28 45 44
28 29 46 45
29 30 47 46
30 31 48 47
31 32 49 48
32 33 50 49
33 34 51 50
35 36 53 52
36 37 54 53
37 38 55 54
38 39 56 55
39 40 57 56
40 41 58 57
41 42 59 58
42 43 60 59
43 44 61 60
44 45 62 61
45 46 63 62
46 47 64 63
47 48 65 64
48 49 66 65
49 50 67 66
50 51 68 67
52 53 70 69
53 54 71 70
54 55 72 71
55 56 73 72
56 57 74 73
57 58 75 74
58 59 76 75
59 60 77 76
60 61 78 77
61 62 79 78
62 63 80 79
63 64 81 80
64 65 82 81
65 66 83 82
66 67 84 83
67 68 85 84
69 70 87 86
70 71 88 87
71 72 89 88
72 73 90 89
73 74 91 90
74 75 92 91
75 76 93 92
76 77 94 93
77 78 95 94
78 79 96 95
79 80 97 96
80 81 98 97
81 82 99 98
82 83 100 99
83 84 101 100
84 85 102 101
86 87 104 103
87 88 105 104
88 89 106 105
89 90 107 106
90 91 108 107
91 92 109 108
92 93 110 109
93 94 111 110
94 95 112 111
95 96 113 112
96 97 114 113
97 98 115 114
98 99 116 115
99 100 117 116
100 101 118 117
101 102 119 118
103 104 121 120
104 105 122 121
105 106 123 122
106 107 124 123
107 108 125 124
108 109 126 125
109 110 127 126
110 111 128 127
111 112 129 128
112 113 130 129
113 114 131 130
114 115 132 131
115 116 133 132
116 117 134 133
117 118 135 134
118 119 136 135
120 121 138 137
121 122 139 138
122 123 140 139
123 124 141 140
124 125 142 141
125 126 143 142
126 127 144 143
127 128 145 144
128 129 146 145
129 130 147 146
130 131 148 147
131 132 149 148
132 133 150 149
133 134 151 150
134 135 152 151
135 136 153 152
