TITLE = "Solution"
VARIABLES = x, y, u, v, psiu, psiv, t, stress
ZONE T="structure" N=153 E=128 F=FEBLOCK ET=QUADRILATERAL VARLOCATION=([7,8]=cellcentered)
0.000000e+00
1.250000e+01
2.500000e+01
3.750000e+01
5.000000e+01
6.250000e+01
7.500000e+01
8.750000e+01
1.000000e+02
1.125000e+02
1.250000e+02
1.375000e+02
1.500000e+02
1.625000e+02
1.750000e+02
1.875000e+02
2.000000e+02
0.000000e+00
1.250000e+01
2.500000e+01
3.750000e+01
5.000000e+01
6.250000e+01
7.500000e+01
8.750000e+01
1.000000e+02
1.125000e+02
1.250000e+02
1.375000e+02
1.500000e+02
1.625000e+02
1.750000e+02
1.875000e+02
2.000000e+02
0.000000e+00
1.250000e+01
2.500000e+01
3.750000e+01
5.000000e+01
6.250000e+01
7.500000e+01
8.750000e+01
1.000000e+02
1.125000e+02
1.250000e+02
1.375000e+02
1.500000e+02
1.625000e+02
1.750000e+02
1.875000e+02
2.000000e+02
0.000000e+00
1.250000e+01
2.500000e+01
3.750000e+01
5.000000e+01
6.250000e+01
7.500000e+01
8.750000e+01
1.000000e+02
1.125000e+02
1.250000e+02
1.375000e+02
1.500000e+02
1.625000e+02
1.750000e+02
1.875000e+02
2.000000e+02
0.000000e+00
1.250000e+01
2.500000e+01
3.750000e+01
5.000000e+01
6.250000e+01
7.500000e+01
8.750000e+01
1.000000e+02
1.125000e+02
1.250000e+02
1.375000e+02
1.500000e+02
1.625000e+02
1.750000e+02
1.875000e+02
2.000000e+02
0.000000e+00
1.250000e+01
2.500000e+01
3.750000e+01
5.000000e+01
6.250000e+01
7.500000e+01
8.750000e+01
1.000000e+02
1.125000e+02
1.250000e+02
1.375000e+02
1.500000e+02
1.625000e+02
1.750000e+02
1.875000e+02
2.000000e+02
0.000000e+00
1.250000e+01
2.500000e+01
3.750000e+01
5.000000e+01
6.250000e+01
7.500000e+01
8.750000e+01
1.000000e+02
1.125000e+02
1.250000e+02
1.375000e+02
1.500000e+02
1.625000e+02
1.750000e+02
1.875000e+02
2.000000e+02
0.000000e+00
1.250000e+01
2.500000e+01
3.750000e+01
5.000000e+01
6.250000e+01
7.500000e+01
8.750000e+01
1.000000e+02
1.125000e+02
1.250000e+02
1.375000e+02
1.500000e+02
1.625000e+02
1.750000e+02
1.875000e+02
2.000000e+02
0.000000e+00
1.250000e+01
2.500000e+01
3.750000e+01
5.000000e+01
6.250000e+01
7.500000e+01
8.750000e+01
1.000000e+02
1.125000e+02
1.250000e+02
1.375000e+02
1.500000e+02
1.625000e+02
1.750000e+02
1.875000e+02
2.000000e+02
0.000000e+00
0.000000e+00
0.000000e+00
0.000000e+00
0.000000e+00
0.000000e+00
0.000000e+00
0.000000e+00
0.000000e+00
0.000000e+00
0.000000e+00
0.000000e+00
0.000000e+00
0.000000e+00
0.000000e+00
0.000000e+00
0.000000e+00
1.250000e+01
1.250000e+01
1.250000e+01
1.250000e+01
1.250000e+01
1.250000e+01
1.250000e+01
1.250000e+01
1.250000e+01
1.250000e+01
1.250000e+01
1.250000e+01
1.250000e+01
1.250000e+01
1.250000e+01
1.250000e+01
1.250000e+01
2.500000e+01
2.500000e+01
2.500000e+01
2.500000e+01
2.500000e+01
2.500000e+01
2.500000e+01
2.500000e+01
2.500000e+01
2.500000e+01
2.500000e+01
2.500000e+01
2.500000e+01
2.500000e+01
2.500000e+01
2.500000e+01
2.500000e+01
3.750000e+01
3.750000e+01
3.750000e+01
3.750000e+01
3.750000e+01
3.750000e+01
3.750000e+01
3.750000e+01
3.750000e+01
3.750000e+01
3.750000e+01
3.750000e+01
3.750000e+01
3.750000e+01
3.750000e+01
3.750000e+01
3.750000e+01
5.000000e+01
5.000000e+01
5.000000e+01
5.000000e+01
5.000000e+01
5.000000e+01
5.000000e+01
5.000000e+01
5.000000e+01
5.000000e+01
5.000000e+01
5.000000e+01
5.000000e+01
5.000000e+01
5.000000e+01
5.000000e+01
5.000000e+01
6.250000e+01
6.250000e+01
6.250000e+01
6.250000e+01
6.250000e+01
6.250000e+01
6.250000e+01
6.250000e+01
6.250000e+01
6.250000e+01
6.250000e+01
6.250000e+01
6.250000e+01
6.250000e+01
6.250000e+01
6.250000e+01
6.250000e+01
7.500000e+01
7.500000e+01
7.500000e+01
7.500000e+01
7.500000e+01
7.500000e+01
7.500000e+01
7.500000e+01
7.500000e+01
7.500000e+01
7.500000e+01
7.500000e+01
7.500000e+01
7.500000e+01
7.500000e+01
7.500000e+01
7.500000e+01
8.750000e+01
8.750000e+01
8.750000e+01
8.750000e+01
8.750000e+01
8.750000e+01
8.750000e+01
8.750000e+01
8.750000e+01
8.750000e+01
8.750000e+01
8.750000e+01
8.750000e+01
8.750000e+01
8.750000e+01
8.750000e+01
8.750000e+01
1.000000e+02
1.000000e+02
1.000000e+02
1.000000e+02
1.000000e+02
1.000000e+02
1.000000e+02
1.000000e+02
1.000000e+02
1.000000e+02
1.000000e+02
1.000000e+02
1.000000e+02
1.000000e+02
1.000000e+02
1.000000e+02
1.000000e+02
0.000000e+00
-9.951587e-01
-1.679300e+00
-2.431211e+00
-3.116542e+00
-3.751407e+00
-4.457758e+00
-5.087565e+00
-5.763290e+00
-6.405583e+00
-7.055923e+00
-7.723513e+00
-8.376650e+00
-9.146994e+00
-1.007759e+01
-1.083392e+01
-1.128405e+01
0.000000e+00
-4.456141e-01
-9.068366e-01
-1.419037e+00
-1.930502e+00
-2.411124e+00
-2.925047e+00
-3.423147e+00
-3.919348e+00
-4.421514e+00
-4.914286e+00
-5.417048e+00
-5.901942e+00
-6.421759e+00
-6.897705e+00
-7.023919e+00
-7.202795e+00
0.000000e+00
-1.461596e-01
-3.491491e-01
-6.397121e-01
-9.777029e-01
-1.302895e+00
-1.656197e+00
-2.012930e+00
-2.356833e+00
-2.718615e+00
-3.057630e+00
-3.391811e+00
-3.687460e+00
-3.927366e+00
-4.036465e+00
-4.034435e+00
-4.182882e+00
0.000000e+00
-7.896349e-02
-1.621861e-01
-3.096174e-01
-4.547721e-01
-6.283727e-01
-8.135722e-01
-9.792026e-01
-1.166586e+00
-1.328643e+00
-1.489650e+00
-1.628682e+00
-1.722040e+00
-1.730183e+00
-1.656594e+00
-1.635721e+00
-1.752833e+00
0.000000e+00
-3.299286e-03
-7.186471e-03
-1.121839e-02
-1.556373e-02
-1.891462e-02
-1.969864e-02
-1.686112e-02
-8.005115e-03
8.848680e-03
3.326812e-02
7.812679e-02
1.605948e-01
2.755065e-01
3.952667e-01
4.360358e-01
3.378544e-01
0.000000e+00
7.319848e-02
1.505577e-01
2.906535e-01
4.290861e-01
5.960323e-01
7.746718e-01
9.438402e-01
1.149640e+00
1.344978e+00
1.562568e+00
1.782898e+00
2.009336e+00
2.216657e+00
2.352430e+00
2.385319e+00
2.319654e+00
0.000000e+00
1.438224e-01
3.439171e-01
6.307355e-01
9.657505e-01
1.291006e+00
1.643296e+00
1.999635e+00
2.359998e+00
2.765023e+00
3.144182e+00
3.511138e+00
3.844041e+00
4.119604e+00
4.296299e+00
4.350935e+00
4.328295e+00
0.000000e+00
4.462895e-01
9.076111e-01
1.419549e+00
1.930288e+00
2.409486e+00
2.920352e+00
3.415638e+00
3.903598e+00
4.396733e+00
4.875134e+00
5.350237e+00
5.778431e+00
6.126092e+00
6.343167e+00
6.438965e+00
6.456667e+00
0.000000e+00
9.973512e-01
1.684384e+00
2.440026e+00
3.127320e+00
3.763087e+00
4.468499e+00
5.096422e+00
5.747255e+00
6.331640e+00
6.905180e+00
7.506016e+00
8.036370e+00
8.448380e+00
8.649687e+00
8.702456e+00
8.702991e+00
0.000000e+00
-6.185197e-01
-1.361587e+00
-2.362674e+00
-3.536734e+00
-4.880431e+00
-6.411566e+00
-8.097698e+00
-9.958108e+00
-1.198147e+01
-1.416633e+01
-1.651698e+01
-1.903066e+01
-2.176183e+01
-2.472599e+01
-2.808558e+01
-3.310134e+01
0.000000e+00
-4.155239e-01
-1.193155e+00
-2.176591e+00
-3.367576e+00
-4.706150e+00
-6.234189e+00
-7.928924e+00
-9.781944e+00
-1.181383e+01
-1.399406e+01
-1.634932e+01
-1.885770e+01
-2.156920e+01
-2.458587e+01
-2.800180e+01
-3.205185e+01
0.000000e+00
-3.899061e-01
-1.091423e+00
-2.073193e+00
-3.248296e+00
-4.580377e+00
-6.114247e+00
-7.799253e+00
-9.662881e+00
-1.169206e+01
-1.388343e+01
-1.625002e+01
-1.876866e+01
-2.150695e+01
-2.457592e+01
-2.784986e+01
-3.088241e+01
0.000000e+00
-4.488842e-01
-1.087787e+00
-2.047079e+00
-3.185657e+00
-4.511027e+00
-6.052214e+00
-7.722849e+00
-9.605141e+00
-1.163359e+01
-1.384647e+01
-1.623297e+01
-1.877713e+01
-2.151724e+01
-2.450633e+01
-2.754012e+01
-3.016581e+01
0.000000e+00
-4.559224e-01
-1.110109e+00
-2.031387e+00
-3.171598e+00
-4.500933e+00
-6.030964e+00
-7.720820e+00
-9.595249e+00
-1.164574e+01
-1.387300e+01
-1.626678e+01
-1.881837e+01
-2.151837e+01
-2.435577e+01
-2.717361e+01
-2.956138e+01
0.000000e+00
-4.475918e-01
-1.087454e+00
-2.049163e+00
-3.192572e+00
-4.528239e+00
-6.079632e+00
-7.759695e+00
-9.657272e+00
-1.171157e+01
-1.394314e+01
-1.631895e+01
-1.884935e+01
-2.150837e+01
-2.422082e+01
-2.685395e+01
-2.912319e+01
0.000000e+00
-3.881814e-01
-1.091395e+00
-2.077931e+00
-3.261968e+00
-4.609546e+00
-6.160022e+00
-7.868836e+00
-9.762635e+00
-1.182765e+01
-1.402964e+01
-1.638615e+01
-1.888866e+01
-2.150829e+01
-2.413837e+01
-2.664679e+01
-2.888961e+01
0.000000e+00
-4.139286e-01
-1.193203e+00
-2.182162e+00
-3.383600e+00
-4.737209e+00
-6.285356e+00
-8.009858e+00
-9.901285e+00
-1.196479e+01
-1.414483e+01
-1.648466e+01
-1.896587e+01
-2.154986e+01
-2.411782e+01
-2.655922e+01
-2.882914e+01
0.000000e+00
-6.175246e-01
-1.362269e+00
-2.368926e+00
-3.553174e+00
-4.911419e+00
-6.463413e+00
-8.178331e+00
-1.007373e+01
-1.212039e+01
-1.429995e+01
-1.663294e+01
-1.908954e+01
-2.163188e+01
-2.414244e+01
-2.654432e+01
-2.882800e+01


0.000000e+00
1.541863e-05
2.509495e-05
3.749410e-05
5.358753e-05
6.719606e-05
8.315414e-05
9.717601e-05
1.118299e-04
1.257543e-04
1.408786e-04
1.551985e-04
1.717911e-04
1.875586e-04
1.975443e-04
2.032580e-04
2.101889e-04
0.000000e+00
1.146105e-05
1.974126e-05
2.840341e-05
4.099820e-05
5.171121e-05
6.183116e-05
7.295168e-05
8.314185e-05
9.454340e-05
1.052198e-04
1.155745e-04
1.264792e-04
1.358066e-04
1.373395e-04
1.410838e-04
1.469086e-04
0.000000e+00
9.534184e-06
1.502348e-05
2.019483e-05
2.884612e-05
3.551562e-05
4.124774e-05
4.859624e-05
5.456733e-05
6.191889e-05
6.834976e-05
7.400131e-05
7.873189e-05
8.090045e-05
8.013552e-05
8.251725e-05
8.675530e-05
0.000000e+00
5.184452e-06
6.845209e-06
9.614678e-06
1.305730e-05
1.352674e-05
1.584768e-05
1.728963e-05
2.083323e-05
2.430007e-05
2.806094e-05
2.908554e-05
2.850917e-05
2.706568e-05
2.684315e-05
2.990298e-05
3.557573e-05
0.000000e+00
-1.743634e-07
-4.340074e-07
-8.535105e-07
-1.715957e-06
-2.869276e-06
-4.965228e-06
-7.197366e-06
-7.788835e-06
-7.794126e-06
-8.744896e-06
-1.191672e-05
-1.466669e-05
-1.603956e-05
-1.571573e-05
-1.354857e-05
-9.557435e-06
0.000000e+00
-5.447639e-06
-7.433043e-06
-1.073783e-05
-1.464872e-05
-1.606953e-05
-2.046669e-05
-2.430573e-05
-3.015973e-05
-3.325972e-05
-3.735627e-05
-4.215785e-05
-4.723985e-05
-4.895736e-05
-4.950730e-05
-4.999457e-05
-4.827863e-05
0.000000e+00
-9.535280e-06
-1.509060e-05
-2.036295e-05
-2.895461e-05
-3.530652e-05
-4.072091e-05
-4.871558e-05
-5.588415e-05
-6.348999e-05
-6.876900e-05
-7.380232e-05
-7.797415e-05
-8.145247e-05
-8.337121e-05
-8.529160e-05
-8.604144e-05
0.000000e+00
-1.139172e-05
-1.965417e-05
-2.829883e-05
-4.078074e-05
-5.164596e-05
-6.159665e-05
-7.279410e-05
-8.317729e-05
-9.455348e-05
-1.052283e-04
-1.135092e-04
-1.183148e-04
-1.233100e-04
-1.268837e-04
-1.281728e-04
-1.282695e-04
0.000000e+00
-1.542917e-05
-2.503632e-05
-3.734015e-05
-5.337847e-05
-6.702475e-05
-8.284367e-05
-9.592815e-05
-1.099274e-04
-1.234039e-04
-1.410688e-04
-1.568107e-04
-1.664659e-04
-1.716575e-04
-1.738726e-04
-1.740832e-04
-1.738996e-04
0.000000e+00
1.260037e-05
2.000157e-05
3.244186e-05
4.875852e-05
6.688591e-05
9.132659e-05
1.201986e-04
1.534849e-04
1.902775e-04
2.304456e-04
2.744621e-04
3.244406e-04
3.785329e-04
4.400118e-04
5.108121e-04
5.841492e-04
0.000000e+00
7.679686e-06
1.611242e-05
2.634142e-05
4.229164e-05
6.092944e-05
8.487002e-05
1.143174e-04
1.472619e-04
1.841413e-04
2.241211e-04
2.682452e-04
3.178584e-04
3.736195e-04
4.347803e-04
5.034311e-04
5.737892e-04
0.000000e+00
4.326500e-06
1.229984e-05
2.172556e-05
3.648063e-05
5.570087e-05
7.945763e-05
1.097972e-04
1.431113e-04
1.796638e-04
2.195154e-04
2.637161e-04
3.140678e-04
3.712496e-04
4.306488e-04
4.959521e-04
5.640945e-04
0.000000e+00
3.200648e-06
1.059916e-05
2.008809e-05
3.452117e-05
5.205496e-05
7.643238e-05
1.087923e-04
1.436603e-04
1.782565e-04
2.174199e-04
2.621068e-04
3.133268e-04
3.698465e-04
4.279175e-04
4.881121e-04
5.499289e-04
0.000000e+00
2.812850e-06
1.027328e-05
2.004698e-05
3.424898e-05
5.077082e-05
7.530252e-05
1.097922e-04
1.449474e-04
1.781209e-04
2.156136e-04
2.620741e-04
3.136136e-04
3.699589e-04
4.267738e-04
4.817200e-04
5.338105e-04
0.000000e+00
3.342668e-06
1.078865e-05
2.045933e-05
3.485860e-05
5.186499e-05
7.715567e-05
1.107063e-04
1.455507e-04
1.779097e-04
2.159776e-04
2.636383e-04
3.159894e-04
3.702384e-04
4.266721e-04
4.794016e-04
5.228118e-04
0.000000e+00
4.479131e-06
1.252687e-05
2.206479e-05
3.675859e-05
5.577141e-05
8.040684e-05
1.117712e-04
1.448340e-04
1.789640e-04
2.183094e-04
2.668987e-04
3.194833e-04
3.722881e-04
4.257450e-04
4.766708e-04
5.193672e-04
0.000000e+00
7.803179e-06
1.634705e-05
2.663905e-05
4.254385e-05
6.132643e-05
8.582253e-05
1.159633e-04
1.482368e-04
1.832797e-04
2.229979e-04
2.706215e-04
3.225121e-04
3.744732e-04
4.258657e-04
4.746591e-04
5.198416e-04
0.000000e+00
1.271284e-05
2.023597e-05
3.273039e-05
4.908988e-05
6.741009e-05
9.235352e-05
1.216358e-04
1.543805e-04
1.895377e-04
2.302127e-04
2.749463e-04
3.247385e-04
3.756666e-04
4.261653e-04
4.741753e-04
5.201094e-04


5.643968e+00
6.119879e+00
6.851101e+00
5.899532e+00
5.568856e+00
6.256393e+00
6.210547e+00
6.304188e+00
5.911486e+00
5.890094e+00
6.274661e+00
7.144172e+00
8.841247e+00
9.822044e+00
9.142604e+00
7.993589e+00
8.067715e+00
8.448018e+00
8.651439e+00
8.348750e+00
8.149836e+00
8.381999e+00
8.560167e+00
8.379848e+00
8.366792e+00
8.262013e+00
8.408614e+00
8.836539e+00
9.500819e+00
9.834616e+00
8.387508e+00
6.467199e+00
9.836807e+00
9.819048e+00
9.993715e+00
9.831903e+00
9.830291e+00
9.942575e+00
9.827951e+00
9.932960e+00
9.841608e+00
9.874133e+00
9.891298e+00
9.869947e+00
9.888180e+00
9.389375e+00
7.991120e+00
6.183230e+00
9.996904e+00
9.996846e+00
9.996819e+00
9.996512e+00
9.996085e+00
9.995225e+00
9.994245e+00
9.994230e+00
9.994780e+00
9.994662e+00
9.992251e+00
9.476125e+00
8.826543e+00
8.366479e+00
7.981088e+00
7.904751e+00
9.996888e+00
9.996810e+00
9.996751e+00
9.996340e+00
9.995628e+00
9.994065e+00
9.929241e+00
9.960717e+00
9.990667e+00
9.911491e+00
9.351339e+00
8.583840e+00
7.702184e+00
7.740038e+00
8.640581e+00
9.155349e+00
9.836960e+00
9.818877e+00
9.993389e+00
9.830915e+00
9.827718e+00
9.685361e+00
9.318764e+00
9.511140e+00
9.381208e+00
8.855032e+00
8.302991e+00
7.890082e+00
8.191708e+00
8.746203e+00
9.439429e+00
9.989102e+00
8.068916e+00
8.448343e+00
8.650324e+00
8.345944e+00
8.064083e+00
7.934628e+00
7.763788e+00
7.723269e+00
7.808235e+00
7.319191e+00
7.470294e+00
8.483461e+00
9.283554e+00
9.841149e+00
9.993652e+00
9.996171e+00
5.647208e+00
6.120636e+00
6.849577e+00
5.889861e+00
5.530502e+00
5.898256e+00
5.750589e+00
6.225067e+00
6.127518e+00
6.458046e+00
7.846040e+00
9.105088e+00
9.978791e+00
9.995058e+00
9.996574e+00
9.997101e+00


-8.162275e-01
-1.708796e-01
-3.960045e-01
-2.567431e-01
-9.715450e-02
-3.039788e-01
-1.246655e-01
-2.097110e-01
-1.611367e-01
-1.591285e-01
-2.139720e-01
-1.502805e-01
-4.625352e-01
-6.841491e-01
3.161523e-01
-8.469448e-01
6.112137e-01
4.801099e-01
2.959871e-01
2.256537e-01
2.896544e-01
1.681743e-01
1.758503e-01
1.723000e-01
1.108618e-01
1.475884e-01
1.288389e-01
2.416052e-01
3.024070e-01
5.100980e-01
6.955084e-01
-9.352566e-01
7.232980e-01
4.713870e-01
5.742965e-02
-2.036246e-02
-3.766390e-02
-1.854250e-01
-8.028554e-02
-1.367381e-01
-7.603150e-02
-1.848197e-02
3.274759e-02
1.863476e-01
2.787383e-01
1.483381e-01
-2.497689e-02
-1.684338e-01
7.284979e-01
5.563213e-01
1.933733e-01
6.296672e-02
-2.316076e-02
-1.043132e-01
-1.699739e-02
-6.080426e-02
1.385105e-02
1.789104e-02
5.951837e-02
1.179592e-01
5.864648e-02
-2.626555e-01
-3.834091e-01
-7.773202e-02
7.314055e-01
5.602409e-01
2.012968e-01
7.103154e-02
-1.962656e-02
-1.103958e-01
-3.733114e-02
-1.014049e-01
-5.120666e-02
-4.174222e-02
2.138570e-02
1.475094e-02
-3.770624e-02
-1.304646e-01
-1.023600e-01
3.110454e-01
7.301057e-01
4.815307e-01
7.544496e-02
-2.493814e-03
-2.622224e-02
-1.608244e-01
-7.691463e-02
-1.898861e-01
-1.819088e-01
-1.086835e-01
-7.803953e-02
-9.787250e-02
-1.108788e-01
4.535161e-02
3.341606e-01
7.247757e-01
6.153062e-01
4.858398e-01
3.035156e-01
2.307991e-01
2.860330e-01
1.618244e-01
1.527283e-01
1.008784e-01
-5.619004e-02
-4.073041e-02
-9.678088e-02
-5.779508e-02
5.763510e-02
3.651916e-01
7.128668e-01
9.479022e-01
-8.216051e-01
-1.766681e-01
-4.035107e-01
-2.598239e-01
-9.700541e-02
-2.981360e-01
-1.203105e-01
-1.560008e-01
-5.590642e-02
-2.222357e-02
-9.244757e-02
9.895146e-02
3.880377e-01
7.720628e-01
9.528777e-01
9.987351e-01
1 2 19 18
2 3 20 19
3 4 21 20
4 5 22 21
5 6 23 22
6 7 24 23
7 8 25 24
8 9 26 25
9 10 27 26
10 11 28 27
11 12 29 28
12 13 30 29
13 14 31 30
14 15 32 31
15 16 33 32
16 17 34 33
18 19 36 35
19 20 37 36
20 21 38 37
21 22 39 38
22 23 40 39
23 24 41 40
24 25 42 41
25 26 43 42
26 27 44 43
27 28 45 44
28 29 46 45
29 30 47 46
30 31 48 47
31 32 49 48
32 33 50 49
33 34 51 50
35 36 53 52
36 37 54 53
37 38 55 54
38 39 56 55
39 40 57 56
40 41 58 57
41 42 59 58
42 43 60 59
43 44 61 60
44 45 62 61
45 46 63 62
46 47 64 63
47 48 65 64
48 49 66 65
49 50 67 66
50 51 68 67
52 53 70 69
53 54 71 70
54 55 72 71
55 56 73 72
56 57 74 73
57 58 75 74
58 59 76 75
59 60 77 76
60 61 78 77
61 62 79 78
62 63 80 79
63 64 81 80
64 65 82 81
65 66 83 82
66 67 84 83
67 68 85 84
69 70 87 86
70 71 88 87
71 72 89 88
72 73 90 89
73 74 91 90
74 75 92 91
75 76 93 92
76 77 94 93
77 78 95 94
78 79 96 95
79 80 97 96
80 81 98 97
81 82 99 98
82 83 100 99
83 84 101 100
84 85 102 101
86 87 104 103
87 88 105 104
88 89 106 105
89 90 107 106
90 91 108 107
91 92 109 108
92 93 110 109
93 94 111 110
94 95 112 111
95 96 113 112
96 97 114 113
97 98 115 114
98 99 116 115
99 100 117 116
100 101 118 117
101 102 119 118
103 104 121 120
104 105 122 121
105 106 123 122
106 107 124 123
107 108 125 124
108 109 126 125
109 110 127 126
110 111 128 127
111 112 129 128
112 113 130 129
113 114 131 130
114 115 132 131
115 116 133 132
116 117 134 133
117 118 135 134
118 119 136 135
120 121 138 137
121 122 139 138
122 123 140 139
123 124 141 140
124 125 142 141
125 126 143 142
126 127 144 143
127 128 145 144
128 129 146 145
129 130 147 146
130 131 148 147
131 132 149 148
132 133 150 149
133 134 151 150
134 135 152 151
135 136 153 152
