TITLE = "Solution"
VARIABLES = x, y, u, v, psiu, psiv, t, stress
ZONE T="structure" N=153 E=128 F=FEBLOCK ET=QUADRILATERAL VARLOCATION=([7,8]=cellcentered)
0.000000e+00
1.250000e+01
2.500000e+01
3.750000e+01
5.000000e+01
6.250000e+01
7.500000e+01
8.750000e+01
1.000000e+02
1.125000e+02
1.250000e+02
1.375000e+02
1.500000e+02
1.625000e+02
1.750000e+02
1.875000e+02
2.000000e+02
0.000000e+00
1.250000e+01
2.500000e+01
3.750000e+01
5.000000e+01
6.250000e+01
7.500000e+01
8.750000e+01
1.000000e+02
1.125000e+02
1.250000e+02
1.375000e+02
1.500000e+02
1.625000e+02
1.750000e+02
1.875000e+02
2.000000e+02
0.000000e+00
1.250000e+01
2.500000e+01
3.750000e+01
5.000000e+01
6.250000e+01
7.500000e+01
8.750000e+01
1.000000e+02
1.125000e+02
1.250000e+02
1.375000e+02
1.500000e+02
1.625000e+02
1.750000e+02
1.875000e+02
2.000000e+02
0.000000e+00
1.250000e+01
2.500000e+01
3.750000e+01
5.000000e+01
6.250000e+01
7.500000e+01
8.750000e+01
1.000000e+02
1.125000e+02
1.250000e+02
1.375000e+02
1.500000e+02
1.625000e+02
1.750000e+02
1.875000e+02
2.000000e+02
0.000000e+00
1.250000e+01
2.500000e+01
3.750000e+01
5.000000e+01
6.250000e+01
7.500000e+01
8.750000e+01
1.000000e+02
1.125000e+02
1.250000e+02
1.375000e+02
1.500000e+02
1.625000e+02
1.750000e+02
1.875000e+02
2.000000e+02
0.000000e+00
1.250000e+01
2.500000e+01
3.750000e+01
5.000000e+01
6.250000e+01
7.500000e+01
8.750000e+01
1.000000e+02
1.125000e+02
1.250000e+02
1.375000e+02
1.500000e+02
1.625000e+02
1.750000e+02
1.875000e+02
2.000000e+02
0.000000e+00
1.250000e+01
2.500000e+01
3.750000e+01
5.000000e+01
6.250000e+01
7.500000e+01
8.750000e+01
1.000000e+02
1.125000e+02
1.250000e+02
1.375000e+02
1.500000e+02
1.625000e+02
1.750000e+02
1.875000e+02
2.000000e+02
0.000000e+00
1.250000e+01
2.500000e+01
3.750000e+01
5.000000e+01
6.250000e+01
7.500000e+01
8.750000e+01
1.000000e+02
1.125000e+02
1.250000e+02
1.375000e+02
1.500000e+02
1.625000e+02
1.750000e+02
1.875000e+02
2.000000e+02
0.000000e+00
1.250000e+01
2.500000e+01
3.750000e+01
5.000000e+01
6.250000e+01
7.500000e+01
8.750000e+01
1.000000e+02
1.125000e+02
1.250000e+02
1.375000e+02
1.500000e+02
1.625000e+02
1.750000e+02
1.875000e+02
2.000000e+02
0.000000e+00
0.000000e+00
0.000000e+00
0.000000e+00
0.000000e+00
0.000000e+00
0.000000e+00
0.000000e+00
0.000000e+00
0.000000e+00
0.000000e+00
0.000000e+00
0.000000e+00
0.000000e+00
0.000000e+00
0.000000e+00
0.000000e+00
1.250000e+01
1.250000e+01
1.250000e+01
1.250000e+01
1.250000e+01
1.250000e+01
1.250000e+01
1.250000e+01
1.250000e+01
1.250000e+01
1.250000e+01
1.250000e+01
1.250000e+01
1.250000e+01
1.250000e+01
1.250000e+01
1.250000e+01
2.500000e+01
2.500000e+01
2.500000e+01
2.500000e+01
2.500000e+01
2.500000e+01
2.500000e+01
2.500000e+01
2.500000e+01
2.500000e+01
2.500000e+01
2.500000e+01
2.500000e+01
2.500000e+01
2.500000e+01
2.500000e+01
2.500000e+01
3.750000e+01
3.750000e+01
3.750000e+01
3.750000e+01
3.750000e+01
3.750000e+01
3.750000e+01
3.750000e+01
3.750000e+01
3.750000e+01
3.750000e+01
3.750000e+01
3.750000e+01
3.750000e+01
3.750000e+01
3.750000e+01
3.750000e+01
5.000000e+01
5.000000e+01
5.000000e+01
5.000000e+01
5.000000e+01
5.000000e+01
5.000000e+01
5.000000e+01
5.000000e+01
5.000000e+01
5.000000e+01
5.000000e+01
5.000000e+01
5.000000e+01
5.000000e+01
5.000000e+01
5.000000e+01
6.250000e+01
6.250000e+01
6.250000e+01
6.250000e+01
6.250000e+01
6.250000e+01
6.250000e+01
6.250000e+01
6.250000e+01
6.250000e+01
6.250000e+01
6.250000e+01
6.250000e+01
6.250000e+01
6.250000e+01
6.250000e+01
6.250000e+01
7.500000e+01
7.500000e+01
7.500000e+01
7.500000e+01
7.500000e+01
7.500000e+01
7.500000e+01
7.500000e+01
7.500000e+01
7.500000e+01
7.500000e+01
7.500000e+01
7.500000e+01
7.500000e+01
7.500000e+01
7.500000e+01
7.500000e+01
8.750000e+01
8.750000e+01
8.750000e+01
8.750000e+01
8.750000e+01
8.750000e+01
8.750000e+01
8.750000e+01
8.750000e+01
8.750000e+01
8.750000e+01
8.750000e+01
8.750000e+01
8.750000e+01
8.750000e+01
8.750000e+01
8.750000e+01
1.000000e+02
1.000000e+02
1.000000e+02
1.000000e+02
1.000000e+02
1.000000e+02
1.000000e+02
1.000000e+02
1.000000e+02
1.000000e+02
1.000000e+02
1.000000e+02
1.000000e+02
1.000000e+02
1.000000e+02
1.000000e+02
1.000000e+02
0.000000e+00
-9.872221e-01
-1.679106e+00
-2.427088e+00
-3.107426e+00
-3.755606e+00
-4.450395e+00
-5.087935e+00
-5.760502e+00
-6.400935e+00
-7.058968e+00
-7.716783e+00
-8.377281e+00
-9.155965e+00
-1.007291e+01
-1.082461e+01
-1.127544e+01
0.000000e+00
-4.432280e-01
-9.104535e-01
-1.419545e+00
-1.930117e+00
-2.415420e+00
-2.927112e+00
-3.425365e+00
-3.922217e+00
-4.422564e+00
-4.918982e+00
-5.417498e+00
-5.903220e+00
-6.427079e+00
-6.891724e+00
-7.014436e+00
-7.192904e+00
0.000000e+00
-1.485571e-01
-3.548205e-01
-6.447998e-01
-9.826809e-01
-1.309057e+00
-1.662897e+00
-2.016475e+00
-2.362574e+00
-2.721044e+00
-3.061073e+00
-3.393087e+00
-3.686232e+00
-3.924138e+00
-4.028946e+00
-4.025402e+00
-4.174554e+00
0.000000e+00
-7.863410e-02
-1.626218e-01
-3.083220e-01
-4.523244e-01
-6.273897e-01
-8.078129e-01
-9.771526e-01
-1.160469e+00
-1.323127e+00
-1.484528e+00
-1.621220e+00
-1.712500e+00
-1.719126e+00
-1.647364e+00
-1.629412e+00
-1.748568e+00
0.000000e+00
-2.715992e-03
-5.943881e-03
-9.257094e-03
-1.205945e-02
-1.342640e-02
-1.230156e-02
-7.229658e-03
2.360031e-03
1.950575e-02
4.429640e-02
8.830590e-02
1.694247e-01
2.829834e-01
4.003825e-01
4.383556e-01
3.398369e-01
0.000000e+00
7.400330e-02
1.528518e-01
2.922448e-01
4.309704e-01
6.022958e-01
7.846351e-01
9.635241e-01
1.167447e+00
1.361111e+00
1.573771e+00
1.793107e+00
2.015655e+00
2.217560e+00
2.351502e+00
2.383914e+00
2.318862e+00
0.000000e+00
1.469330e-01
3.504770e-01
6.368337e-01
9.701788e-01
1.292282e+00
1.644755e+00
2.004742e+00
2.372865e+00
2.771873e+00
3.149226e+00
3.516099e+00
3.850038e+00
4.121541e+00
4.294898e+00
4.349789e+00
4.327831e+00
0.000000e+00
4.445348e-01
9.109465e-01
1.420243e+00
1.930289e+00
2.412830e+00
2.921961e+00
3.415479e+00
3.905236e+00
4.397387e+00
4.875915e+00
5.351012e+00
5.783081e+00
6.128656e+00
6.343800e+00
6.438511e+00
6.455836e+00
0.000000e+00
9.897253e-01
1.682598e+00
2.434938e+00
3.120824e+00
3.771026e+00
4.468918e+00
5.097672e+00
5.739805e+00
6.329779e+00
6.906876e+00
7.505782e+00
8.039591e+00
8.445772e+00
8.647822e+00
8.701539e+00
8.702227e+00
0.000000e+00
-6.152363e-01
-1.355382e+00
-2.349705e+00
-3.518500e+00
-4.859223e+00
-6.384025e+00
-8.067242e+00
-9.923892e+00
-1.194312e+01
-1.412573e+01
-1.646948e+01
-1.898144e+01
-2.171149e+01
-2.467150e+01
-2.803247e+01
-3.304906e+01
0.000000e+00
-4.112879e-01
-1.186341e+00
-2.164766e+00
-3.348311e+00
-4.683862e+00
-6.207755e+00
-7.897142e+00
-9.749050e+00
-1.177465e+01
-1.395365e+01
-1.630296e+01
-1.880628e+01
-2.152011e+01
-2.453337e+01
-2.794773e+01
-3.200123e+01
0.000000e+00
-3.844799e-01
-1.085260e+00
-2.061024e+00
-3.227618e+00
-4.559415e+00
-6.085608e+00
-7.769228e+00
-9.629641e+00
-1.165363e+01
-1.384398e+01
-1.620341e+01
-1.871849e+01
-2.145814e+01
-2.452445e+01
-2.779444e+01
-3.082485e+01
0.000000e+00
-4.421645e-01
-1.080898e+00
-2.034197e+00
-3.162951e+00
-4.491088e+00
-6.019628e+00
-7.695431e+00
-9.571935e+00
-1.159711e+01
-1.380732e+01
-1.618576e+01
-1.872812e+01
-2.146724e+01
-2.445703e+01
-2.748362e+01
-3.010114e+01
0.000000e+00
-4.503388e-01
-1.101900e+00
-2.017966e+00
-3.150873e+00
-4.476283e+00
-5.999917e+00
-7.691978e+00
-9.565651e+00
-1.161090e+01
-1.383106e+01
-1.622086e+01
-1.877004e+01
-2.146885e+01
-2.430610e+01
-2.711815e+01
-2.949829e+01
0.000000e+00
-4.411119e-01
-1.080138e+00
-2.035681e+00
-3.170281e+00
-4.504911e+00
-6.046048e+00
-7.734730e+00
-9.628427e+00
-1.167701e+01
-1.389809e+01
-1.627363e+01
-1.880378e+01
-2.145881e+01
-2.416943e+01
-2.679963e+01
-2.906420e+01
0.000000e+00
-3.830057e-01
-1.084214e+00
-2.063679e+00
-3.239212e+00
-4.584621e+00
-6.132535e+00
-7.844198e+00
-9.735308e+00
-1.178990e+01
-1.398566e+01
-1.634107e+01
-1.884551e+01
-2.145965e+01
-2.408539e+01
-2.659366e+01
-2.883529e+01
0.000000e+00
-4.098897e-01
-1.185231e+00
-2.167392e+00
-3.360411e+00
-4.711797e+00
-6.261126e+00
-7.985058e+00
-9.873243e+00
-1.192596e+01
-1.410296e+01
-1.644071e+01
-1.892342e+01
-2.150145e+01
-2.406457e+01
-2.650565e+01
-2.877538e+01
0.000000e+00
-6.141296e-01
-1.354671e+00
-2.353206e+00
-3.531155e+00
-4.887759e+00
-6.438031e+00
-8.153571e+00
-1.004389e+01
-1.208332e+01
-1.425881e+01
-1.658975e+01
-1.904708e+01
-2.158247e+01
-2.408944e+01
-2.649047e+01
-2.877423e+01


0.000000e+00
1.531116e-05
2.498193e-05
3.704615e-05
5.270990e-05
6.594565e-05
8.099178e-05
9.573357e-05
1.099214e-04
1.250262e-04
1.403498e-04
1.547209e-04
1.721509e-04
1.869155e-04
1.952564e-04
2.004832e-04
2.073124e-04
0.000000e+00
1.145890e-05
1.982785e-05
2.849841e-05
4.136472e-05
5.201413e-05
6.246468e-05
7.387860e-05
8.394756e-05
9.504279e-05
1.054084e-04
1.150545e-04
1.264509e-04
1.349282e-04
1.352130e-04
1.388541e-04
1.446973e-04
0.000000e+00
9.673153e-06
1.539758e-05
2.096792e-05
3.045286e-05
3.743428e-05
4.385373e-05
5.148831e-05
5.735308e-05
6.395064e-05
6.958946e-05
7.401111e-05
7.850468e-05
7.991935e-05
7.867793e-05
8.106771e-05
8.536278e-05
0.000000e+00
5.312746e-06
7.329526e-06
1.069919e-05
1.517055e-05
1.734972e-05
2.096588e-05
2.386674e-05
2.601024e-05
2.833048e-05
2.991593e-05
2.962072e-05
2.830248e-05
2.641555e-05
2.634565e-05
2.946475e-05
3.509574e-05
0.000000e+00
-9.394079e-08
-2.421887e-07
-4.497192e-07
-7.643111e-07
-1.183933e-06
-1.702535e-06
-2.485393e-06
-3.332171e-06
-4.936458e-06
-7.577881e-06
-1.154182e-05
-1.446757e-05
-1.571490e-05
-1.531099e-05
-1.305045e-05
-9.133595e-06
0.000000e+00
-5.439320e-06
-7.648451e-06
-1.140553e-05
-1.630973e-05
-1.904076e-05
-2.367708e-05
-2.706737e-05
-3.083351e-05
-3.359683e-05
-3.733501e-05
-4.223657e-05
-4.665170e-05
-4.794639e-05
-4.846624e-05
-4.897632e-05
-4.740971e-05
0.000000e+00
-9.602136e-06
-1.539259e-05
-2.115793e-05
-3.078783e-05
-3.822703e-05
-4.484652e-05
-5.289822e-05
-5.871758e-05
-6.411020e-05
-6.869553e-05
-7.334742e-05
-7.742579e-05
-8.050827e-05
-8.243546e-05
-8.430624e-05
-8.504001e-05
0.000000e+00
-1.136609e-05
-1.972159e-05
-2.841890e-05
-4.121176e-05
-5.204704e-05
-6.238365e-05
-7.396355e-05
-8.414932e-05
-9.476584e-05
-1.049646e-04
-1.125544e-04
-1.175569e-04
-1.224184e-04
-1.257577e-04
-1.269404e-04
-1.270435e-04
0.000000e+00
-1.534431e-05
-2.495391e-05
-3.691457e-05
-5.234498e-05
-6.530751e-05
-8.009997e-05
-9.412377e-05
-1.086917e-04
-1.238969e-04
-1.415640e-04
-1.563366e-04
-1.652885e-04
-1.702089e-04
-1.723603e-04
-1.725118e-04
-1.723131e-04
0.000000e+00
1.262472e-05
1.997003e-05
3.216342e-05
4.782222e-05
6.456247e-05
8.664968e-05
1.125185e-04
1.421534e-04
1.770056e-04
2.158768e-04
2.598592e-04
3.107164e-04
3.643952e-04
4.255924e-04
4.960973e-04
5.687543e-04
0.000000e+00
7.673795e-06
1.606745e-05
2.607459e-05
4.138704e-05
5.871217e-05
8.022398e-05
1.064457e-04
1.360212e-04
1.706760e-04
2.098620e-04
2.536404e-04
3.041249e-04
3.601519e-04
4.208176e-04
4.887739e-04
5.583436e-04
0.000000e+00
4.256503e-06
1.214695e-05
2.122635e-05
3.565738e-05
5.366758e-05
7.527985e-05
1.015619e-04
1.313995e-04
1.661478e-04
2.054761e-04
2.496501e-04
3.005383e-04
3.582333e-04
4.170419e-04
4.813401e-04
5.484870e-04
0.000000e+00
2.977865e-06
1.012875e-05
1.918503e-05
3.336277e-05
5.143534e-05
7.330233e-05
9.986252e-05
1.300350e-04
1.643315e-04
2.037880e-04
2.488547e-04
3.003025e-04
3.570167e-04
4.144852e-04
4.735703e-04
5.342547e-04
0.000000e+00
2.512410e-06
9.587616e-06
1.880610e-05
3.282591e-05
5.082766e-05
7.275816e-05
9.944511e-05
1.298445e-04
1.637060e-04
2.026566e-04
2.496082e-04
3.010806e-04
3.571443e-04
4.133508e-04
4.672223e-04
5.184280e-04
0.000000e+00
3.089873e-06
1.027149e-05
1.941213e-05
3.353955e-05
5.146526e-05
7.333950e-05
9.960676e-05
1.300011e-04
1.635351e-04
2.032198e-04
2.517058e-04
3.036205e-04
3.573147e-04
4.132035e-04
4.649005e-04
5.078741e-04
0.000000e+00
4.390399e-06
1.237662e-05
2.159857e-05
3.589096e-05
5.382218e-05
7.505742e-05
1.009771e-04
1.304900e-04
1.646414e-04
2.054967e-04
2.549657e-04
3.070774e-04
3.591194e-04
4.121910e-04
4.623234e-04
5.047182e-04
0.000000e+00
7.786174e-06
1.633921e-05
2.647490e-05
4.175596e-05
5.891335e-05
8.010795e-05
1.057407e-04
1.345948e-04
1.688533e-04
2.098830e-04
2.582829e-04
3.100113e-04
3.611701e-04
4.121521e-04
4.604339e-04
5.052326e-04
0.000000e+00
1.272373e-05
2.024566e-05
3.255707e-05
4.820838e-05
6.480272e-05
8.657589e-05
1.118608e-04
1.408536e-04
1.753265e-04
2.164632e-04
2.621937e-04
3.120389e-04
3.624159e-04
4.123725e-04
4.599625e-04
5.055114e-04


5.287324e+00
5.757896e+00
6.415778e+00
5.493359e+00
4.831833e+00
5.028675e+00
5.234004e+00
5.576478e+00
5.557495e+00
5.763589e+00
6.074926e+00
6.981282e+00
8.651339e+00
9.587581e+00
8.885358e+00
7.727164e+00
7.794623e+00
8.134924e+00
8.314659e+00
8.021529e+00
7.604843e+00
7.700889e+00
7.887388e+00
7.916836e+00
8.018202e+00
8.025881e+00
8.167730e+00
8.593204e+00
9.306197e+00
9.584874e+00
8.151784e+00
6.248245e+00
9.661324e+00
9.652118e+00
9.794856e+00
9.627183e+00
9.613973e+00
9.653337e+00
9.612877e+00
9.682684e+00
9.627037e+00
9.671708e+00
9.660222e+00
9.656895e+00
9.675731e+00
9.186235e+00
7.726816e+00
5.942034e+00
9.900352e+00
9.898864e+00
9.898521e+00
9.890353e+00
9.886749e+00
9.885214e+00
9.881093e+00
9.877696e+00
9.868331e+00
9.843501e+00
9.767629e+00
9.257731e+00
8.635481e+00
8.183613e+00
7.710298e+00
7.491172e+00
9.900096e+00
9.898203e+00
9.897399e+00
9.887792e+00
9.882324e+00
9.879016e+00
9.870315e+00
9.862419e+00
9.833945e+00
9.696583e+00
9.102537e+00
8.249075e+00
7.416214e+00
7.477852e+00
8.314813e+00
8.793263e+00
9.661762e+00
9.649094e+00
9.787358e+00
9.610640e+00
9.585138e+00
9.611884e+00
9.547021e+00
9.570910e+00
9.231914e+00
8.610955e+00
8.054049e+00
7.567819e+00
7.746105e+00
8.377308e+00
9.168308e+00
9.726147e+00
7.804408e+00
8.135366e+00
8.302981e+00
7.992393e+00
7.569131e+00
7.647330e+00
7.763930e+00
7.655325e+00
7.385755e+00
7.010705e+00
7.217005e+00
8.162294e+00
8.928397e+00
9.536743e+00
9.821983e+00
9.879822e+00
5.315795e+00
5.766455e+00
6.409626e+00
5.476017e+00
4.820289e+00
5.016253e+00
5.132063e+00
5.398276e+00
5.354181e+00
5.880761e+00
7.431661e+00
8.823074e+00
9.717803e+00
9.850363e+00
9.891389e+00
9.906757e+00


-7.912677e-01
-1.979679e-01
-3.807995e-01
-2.453381e-01
-1.313524e-01
-2.765713e-01
-1.397157e-01
-2.053506e-01
-1.542453e-01
-1.813238e-01
-1.860433e-01
-1.661569e-01
-4.887897e-01
-6.253651e-01
3.278256e-01
-8.484996e-01
6.131316e-01
4.681618e-01
3.030126e-01
2.294933e-01
2.800526e-01
1.730996e-01
1.802967e-01
1.689200e-01
1.226048e-01
1.430819e-01
1.464723e-01
2.501914e-01
3.043003e-01
5.340129e-01
7.006156e-01
-9.561118e-01
7.314532e-01
4.770946e-01
8.488983e-02
1.627851e-02
-2.639971e-02
-1.346962e-01
-6.474105e-02
-1.038363e-01
-4.147746e-02
3.020745e-03
7.158451e-02
2.121997e-01
2.961175e-01
1.616799e-01
-1.221809e-02
-1.808493e-01
7.365868e-01
5.601910e-01
2.089162e-01
8.599097e-02
-1.474221e-02
-7.018120e-02
-1.510372e-02
-3.630295e-02
3.544269e-02
4.323202e-02
8.451552e-02
1.249653e-01
5.601000e-02
-2.725267e-01
-3.753859e-01
-6.794580e-02
7.390179e-01
5.638381e-01
2.145271e-01
8.741299e-02
-1.623546e-02
-8.621096e-02
-3.867478e-02
-7.358621e-02
-2.140828e-02
-1.102854e-02
2.786260e-02
1.723761e-02
-3.887753e-02
-1.427380e-01
-1.034834e-01
3.208151e-01
7.369986e-01
4.871989e-01
1.001569e-01
2.580456e-02
-2.595544e-02
-1.659402e-01
-1.296839e-01
-2.111762e-01
-1.717803e-01
-1.002307e-01
-8.833522e-02
-1.038175e-01
-9.133272e-02
5.570817e-02
3.367485e-01
7.317684e-01
6.156797e-01
4.754444e-01
3.103931e-01
2.377658e-01
2.870471e-01
1.650582e-01
1.447959e-01
8.117325e-02
-4.258011e-02
-3.966198e-02
-1.020916e-01
-7.271816e-02
7.420385e-02
3.790201e-01
7.149556e-01
9.483157e-01
-7.989232e-01
-1.980877e-01
-3.903990e-01
-2.555139e-01
-1.305587e-01
-2.795426e-01
-1.180774e-01
-1.423545e-01
-6.235323e-02
-2.786493e-02
-8.811621e-02
8.530617e-02
4.006999e-01
7.732310e-01
9.525337e-01
9.987236e-01
1 2 19 18
2 3 20 19
3 4 21 20
4 5 22 21
5 6 23 22
6 7 24 23
7 8 25 24
8 9 26 25
9 10 27 26
10 11 28 27
11 12 29 28
12 13 30 29
13 14 31 30
14 15 32 31
15 16 33 32
16 17 34 33
18 19 36 35
19 20 37 36
20 21 38 37
21 22 39 38
22 23 40 39
23 24 41 40
24 25 42 41
25 26 43 42
26 27 44 43
27 28 45 44
28 29 46 45
29 30 47 46
30 31 48 47
31 32 49 48
32 33 50 49
33 34 51 50
35 36 53 52
36 37 54 53
37 38 55 54
38 39 56 55
39 40 57 56
40 41 58 57
41 42 59 58
42 43 60 59
43 44 61 60
44 45 62 61
45 46 63 62
46 47 64 63
47 48 65 64
48 49 66 65
49 50 67 66
50 51 68 67
52 53 70 69
53 54 71 70
54 55 72 71
55 56 73 72
56 57 74 73
57 58 75 74
58 59 76 75
59 60 77 76
60 61 78 77
61 62 79 78
62 63 80 79
63 64 81 80
64 65 82 81
65 66 83 82
66 67 84 83
67 68 85 84
69 70 87 86
70 71 88 87
71 72 89 88
72 73 90 89
73 74 91 90
74 75 92 91
75 76 93 92
76 77 94 93
77 78 95 94
78 79 96 95
79 80 97 96
80 81 98 97
81 82 99 98
82 83 100 99
83 84 101 100
84 85 102 101
86 87 104 103
87 88 105 104
88 89 106 105
89 90 107 106
90 91 108 107
91 92 109 108
92 93 110 109
93 94 111 110
94 95 112 111
95 96 113 112
96 97 114 113
97 98 115 114
98 99 116 115
99 100 117 116
100 101 118 117
101 102 119 118
103 104 121 120
104 105 122 121
105 106 123 122
106 107 124 123
107 108 125 124
108 109 126 125
109 110 127 126
110 111 128 127
111 112 129 128
112 113 130 129
113 114 131 130
114 115 132 131
115 116 133 132
116 117 134 133
117 118 135 134
118 119 136 135
120 121 138 137
121 122 139 138
122 123 140 139
123 124 141 140
124 125 142 141
125 126 143 142
126 127 144 143
127 128 145 144
128 129 146 145
129 130 147 146
130 131 148 147
131 132 149 148
132 133 150 149
133 134 151 150
134 135 152 151
135 136 153 152
