TITLE = "Solution"
VARIABLES = x, y, u, v, psiu, psiv, t, stress
ZONE T="structure" N=153 E=128 F=FEBLOCK ET=QUADRILATERAL VARLOCATION=([7,8]=cellcentered)
0.000000e+00
1.250000e+01
2.500000e+01
3.750000e+01
5.000000e+01
6.250000e+01
7.500000e+01
8.750000e+01
1.000000e+02
1.125000e+02
1.250000e+02
1.375000e+02
1.500000e+02
1.625000e+02
1.750000e+02
1.875000e+02
2.000000e+02
0.000000e+00
1.250000e+01
2.500000e+01
3.750000e+01
5.000000e+01
6.250000e+01
7.500000e+01
8.750000e+01
1.000000e+02
1.125000e+02
1.250000e+02
1.375000e+02
1.500000e+02
1.625000e+02
1.750000e+02
1.875000e+02
2.000000e+02
0.000000e+00
1.250000e+01
2.500000e+01
3.750000e+01
5.000000e+01
6.250000e+01
7.500000e+01
8.750000e+01
1.000000e+02
1.125000e+02
1.250000e+02
1.375000e+02
1.500000e+02
1.625000e+02
1.750000e+02
1.875000e+02
2.000000e+02
0.000000e+00
1.250000e+01
2.500000e+01
3.750000e+01
5.000000e+01
6.250000e+01
7.500000e+01
8.750000e+01
1.000000e+02
1.125000e+02
1.250000e+02
1.375000e+02
1.500000e+02
1.625000e+02
1.750000e+02
1.875000e+02
2.000000e+02
0.000000e+00
1.250000e+01
2.500000e+01
3.750000e+01
5.000000e+01
6.250000e+01
7.500000e+01
8.750000e+01
1.000000e+02
1.125000e+02
1.250000e+02
1.375000e+02
1.500000e+02
1.625000e+02
1.750000e+02
1.875000e+02
2.000000e+02
0.000000e+00
1.250000e+01
2.500000e+01
3.750000e+01
5.000000e+01
6.250000e+01
7.500000e+01
8.750000e+01
1.000000e+02
1.125000e+02
1.250000e+02
1.375000e+02
1.500000e+02
1.625000e+02
1.750000e+02
1.875000e+02
2.000000e+02
0.000000e+00
1.250000e+01
2.500000e+01
3.750000e+01
5.000000e+01
6.250000e+01
7.500000e+01
8.750000e+01
1.000000e+02
1.125000e+02
1.250000e+02
1.375000e+02
1.500000e+02
1.625000e+02
1.750000e+02
1.875000e+02
2.000000e+02
0.000000e+00
1.250000e+01
2.500000e+01
3.750000e+01
5.000000e+01
6.250000e+01
7.500000e+01
8.750000e+01
1.000000e+02
1.125000e+02
1.250000e+02
1.375000e+02
1.500000e+02
1.625000e+02
1.750000e+02
1.875000e+02
2.000000e+02
0.000000e+00
1.250000e+01
2.500000e+01
3.750000e+01
5.000000e+01
6.250000e+01
7.500000e+01
8.750000e+01
1.000000e+02
1.125000e+02
1.250000e+02
1.375000e+02
1.500000e+02
1.625000e+02
1.750000e+02
1.875000e+02
2.000000e+02
0.000000e+00
0.000000e+00
0.000000e+00
0.000000e+00
0.000000e+00
0.000000e+00
0.000000e+00
0.000000e+00
0.000000e+00
0.000000e+00
0.000000e+00
0.000000e+00
0.000000e+00
0.000000e+00
0.000000e+00
0.000000e+00
0.000000e+00
1.250000e+01
1.250000e+01
1.250000e+01
1.250000e+01
1.250000e+01
1.250000e+01
1.250000e+01
1.250000e+01
1.250000e+01
1.250000e+01
1.250000e+01
1.250000e+01
1.250000e+01
1.250000e+01
1.250000e+01
1.250000e+01
1.250000e+01
2.500000e+01
2.500000e+01
2.500000e+01
2.500000e+01
2.500000e+01
2.500000e+01
2.500000e+01
2.500000e+01
2.500000e+01
2.500000e+01
2.500000e+01
2.500000e+01
2.500000e+01
2.500000e+01
2.500000e+01
2.500000e+01
2.500000e+01
3.750000e+01
3.750000e+01
3.750000e+01
3.750000e+01
3.750000e+01
3.750000e+01
3.750000e+01
3.750000e+01
3.750000e+01
3.750000e+01
3.750000e+01
3.750000e+01
3.750000e+01
3.750000e+01
3.750000e+01
3.750000e+01
3.750000e+01
5.000000e+01
5.000000e+01
5.000000e+01
5.000000e+01
5.000000e+01
5.000000e+01
5.000000e+01
5.000000e+01
5.000000e+01
5.000000e+01
5.000000e+01
5.000000e+01
5.000000e+01
5.000000e+01
5.000000e+01
5.000000e+01
5.000000e+01
6.250000e+01
6.250000e+01
6.250000e+01
6.250000e+01
6.250000e+01
6.250000e+01
6.250000e+01
6.250000e+01
6.250000e+01
6.250000e+01
6.250000e+01
6.250000e+01
6.250000e+01
6.250000e+01
6.250000e+01
6.250000e+01
6.250000e+01
7.500000e+01
7.500000e+01
7.500000e+01
7.500000e+01
7.500000e+01
7.500000e+01
7.500000e+01
7.500000e+01
7.500000e+01
7.500000e+01
7.500000e+01
7.500000e+01
7.500000e+01
7.500000e+01
7.500000e+01
7.500000e+01
7.500000e+01
8.750000e+01
8.750000e+01
8.750000e+01
8.750000e+01
8.750000e+01
8.750000e+01
8.750000e+01
8.750000e+01
8.750000e+01
8.750000e+01
8.750000e+01
8.750000e+01
8.750000e+01
8.750000e+01
8.750000e+01
8.750000e+01
8.750000e+01
1.000000e+02
1.000000e+02
1.000000e+02
1.000000e+02
1.000000e+02
1.000000e+02
1.000000e+02
1.000000e+02
1.000000e+02
1.000000e+02
1.000000e+02
1.000000e+02
1.000000e+02
1.000000e+02
1.000000e+02
1.000000e+02
1.000000e+02
0.000000e+00
-9.911768e-01
-1.294452e+00
-1.463747e+00
-1.730643e+00
-2.359360e+00
-3.123485e+00
-3.758912e+00
-4.340771e+00
-4.875898e+00
-5.359564e+00
-5.797745e+00
-6.204670e+00
-6.604597e+00
-7.038437e+00
-7.554437e+00
-7.934054e+00
0.000000e+00
-5.793738e-01
-7.804425e-01
-8.982923e-01
-1.062175e+00
-1.550892e+00
-2.104228e+00
-2.574373e+00
-3.004368e+00
-3.402682e+00
-3.762172e+00
-4.080631e+00
-4.357862e+00
-4.588355e+00
-4.749071e+00
-4.784403e+00
-4.904011e+00
0.000000e+00
-2.234763e-01
-3.257345e-01
-4.252118e-01
-5.902520e-01
-9.550213e-01
-1.246494e+00
-1.528097e+00
-1.798375e+00
-2.050472e+00
-2.274568e+00
-2.461956e+00
-2.602913e+00
-2.683098e+00
-2.687461e+00
-2.658682e+00
-2.781744e+00
0.000000e+00
-1.923753e-02
-6.194441e-02
-1.250550e-01
-2.452657e-01
-3.360985e-01
-4.475189e-01
-5.603081e-01
-6.757024e-01
-7.845650e-01
-8.767866e-01
-9.430259e-01
-9.746572e-01
-9.672836e-01
-9.365414e-01
-9.442978e-01
-1.037777e+00
0.000000e+00
7.516157e-02
1.340572e-01
1.809029e-01
2.423334e-01
2.953254e-01
3.442411e-01
3.798678e-01
4.079615e-01
4.329050e-01
4.608542e-01
4.976267e-01
5.459877e-01
6.001102e-01
6.378219e-01
6.287911e-01
5.656584e-01
0.000000e+00
1.923087e-01
3.745976e-01
5.696559e-01
7.653621e-01
9.697832e-01
1.158934e+00
1.334687e+00
1.495777e+00
1.643442e+00
1.778904e+00
1.903135e+00
2.014133e+00
2.103491e+00
2.156408e+00
2.161112e+00
2.128646e+00
0.000000e+00
3.335108e-01
6.692317e-01
9.990953e-01
1.341304e+00
1.687029e+00
2.024896e+00
2.338136e+00
2.627394e+00
2.891092e+00
3.126006e+00
3.328751e+00
3.495142e+00
3.619061e+00
3.693782e+00
3.718160e+00
3.710547e+00
0.000000e+00
5.248807e-01
1.038596e+00
1.514156e+00
1.992337e+00
2.478257e+00
2.966339e+00
3.422279e+00
3.841649e+00
4.222246e+00
4.556119e+00
4.835349e+00
5.054083e+00
5.209061e+00
5.301957e+00
5.341666e+00
5.348966e+00
0.000000e+00
8.955046e-01
1.519201e+00
2.144300e+00
2.743488e+00
3.378587e+00
4.014534e+00
4.618604e+00
5.177346e+00
5.684773e+00
6.126647e+00
6.488848e+00
6.760231e+00
6.935111e+00
7.020040e+00
7.041045e+00
7.040642e+00
0.000000e+00
-4.931504e-01
-9.390514e-01
-1.496865e+00
-2.187311e+00
-3.147809e+00
-4.210852e+00
-5.405370e+00
-6.756622e+00
-8.242049e+00
-9.845859e+00
-1.155750e+01
-1.337346e+01
-1.530611e+01
-1.741652e+01
-1.989599e+01
-2.364007e+01
0.000000e+00
-3.669786e-01
-8.904187e-01
-1.449131e+00
-2.088965e+00
-2.973134e+00
-4.031973e+00
-5.250696e+00
-6.612869e+00
-8.111057e+00
-9.728707e+00
-1.145348e+01
-1.328094e+01
-1.522374e+01
-1.733615e+01
-1.980063e+01
-2.290847e+01
0.000000e+00
-3.310329e-01
-8.486144e-01
-1.397904e+00
-2.022074e+00
-2.884178e+00
-3.931675e+00
-5.152648e+00
-6.521019e+00
-8.027482e+00
-9.657007e+00
-1.139691e+01
-1.324274e+01
-1.520518e+01
-1.732162e+01
-1.963426e+01
-2.185074e+01
0.000000e+00
-3.073894e-01
-7.999007e-01
-1.325911e+00
-1.999322e+00
-2.852314e+00
-3.902671e+00
-5.114644e+00
-6.482789e+00
-7.993700e+00
-9.632426e+00
-1.138564e+01
-1.324531e+01
-1.521017e+01
-1.727445e+01
-1.936090e+01
-2.123740e+01
0.000000e+00
-2.893063e-01
-7.371867e-01
-1.299691e+00
-2.002652e+00
-2.873571e+00
-3.916846e+00
-5.126080e+00
-6.491639e+00
-8.003630e+00
-9.647113e+00
-1.140649e+01
-1.326644e+01
-1.520820e+01
-1.719208e+01
-1.912828e+01
-2.086407e+01
0.000000e+00
-2.771935e-01
-7.283120e-01
-1.319197e+00
-2.042183e+00
-2.923387e+00
-3.967533e+00
-5.174491e+00
-6.537702e+00
-8.047878e+00
-9.690727e+00
-1.144764e+01
-1.329551e+01
-1.520218e+01
-1.711783e+01
-1.896740e+01
-2.065251e+01
0.000000e+00
-2.881305e-01
-7.739418e-01
-1.383969e+00
-2.121792e+00
-3.007469e+00
-4.051570e+00
-5.255967e+00
-6.614623e+00
-8.119511e+00
-9.756187e+00
-1.150357e+01
-1.333322e+01
-1.520641e+01
-1.707277e+01
-1.887496e+01
-2.055831e+01
0.000000e+00
-3.558918e-01
-8.838334e-01
-1.497704e+00
-2.245568e+00
-3.131236e+00
-4.174163e+00
-5.371605e+00
-6.721927e+00
-8.216822e+00
-9.841489e+00
-1.157362e+01
-1.338270e+01
-1.522818e+01
-1.706137e+01
-1.883652e+01
-2.053612e+01
0.000000e+00
-5.487359e-01
-1.040760e+00
-1.660719e+00
-2.409123e+00
-3.300708e+00
-4.339050e+00
-5.525877e+00
-6.863594e+00
-8.343584e+00
-9.949761e+00
-1.166001e+01
-1.344415e+01
-1.526289e+01
-1.707098e+01
-1.882948e+01
-2.053647e+01


0.000000e+00
-2.843284e-05
-4.647585e-05
-5.600536e-05
-6.464156e-05
-7.446162e-05
-7.305585e-05
-6.769159e-05
-6.378587e-05
-6.121621e-05
-5.952839e-05
-5.845155e-05
-5.771700e-05
-5.712538e-05
-5.653439e-05
-5.572600e-05
-5.470191e-05
0.000000e+00
-2.370979e-05
-3.911252e-05
-4.799384e-05
-5.498123e-05
-6.145139e-05
-5.778613e-05
-5.139996e-05
-4.835668e-05
-4.679932e-05
-4.581656e-05
-4.525084e-05
-4.494817e-05
-4.484610e-05
-4.473291e-05
-4.409857e-05
-4.302041e-05
0.000000e+00
-1.669809e-05
-2.943797e-05
-3.780924e-05
-4.240341e-05
-4.335793e-05
-4.018439e-05
-3.631265e-05
-3.436892e-05
-3.320286e-05
-3.254728e-05
-3.224051e-05
-3.213653e-05
-3.213091e-05
-3.202623e-05
-3.149151e-05
-3.058456e-05
0.000000e+00
-6.694536e-06
-1.551093e-05
-2.011999e-05
-2.284109e-05
-2.361364e-05
-2.261521e-05
-2.171138e-05
-2.062915e-05
-1.986348e-05
-1.944215e-05
-1.924596e-05
-1.917091e-05
-1.910616e-05
-1.896091e-05
-1.863595e-05
-1.811524e-05
0.000000e+00
-1.609867e-06
-3.739192e-06
-5.647277e-06
-6.443933e-06
-6.364191e-06
-6.378372e-06
-6.322356e-06
-6.242822e-06
-6.131262e-06
-6.064148e-06
-6.034754e-06
-6.005287e-06
-5.940365e-06
-5.844751e-06
-5.715948e-06
-5.485049e-06
0.000000e+00
1.892249e-06
6.487065e-06
8.095595e-06
1.017220e-05
1.054499e-05
9.997797e-06
9.122858e-06
8.330259e-06
7.774818e-06
7.457072e-06
7.293045e-06
7.230706e-06
7.227037e-06
7.236687e-06
7.255186e-06
7.338807e-06
0.000000e+00
3.952132e-06
1.688045e-05
2.771815e-05
2.994908e-05
2.961305e-05
2.698240e-05
2.437396e-05
2.261450e-05
2.153029e-05
2.089591e-05
2.056427e-05
2.039599e-05
2.031088e-05
2.025843e-05
2.023236e-05
2.025323e-05
0.000000e+00
2.728020e-06
2.513036e-05
4.509345e-05
4.979866e-05
4.886485e-05
4.437943e-05
3.992607e-05
3.712395e-05
3.545838e-05
3.444087e-05
3.385819e-05
3.352181e-05
3.332736e-05
3.321606e-05
3.316240e-05
3.315414e-05
0.000000e+00
5.779078e-06
3.209313e-05
5.430378e-05
6.374896e-05
6.500312e-05
6.102080e-05
5.604805e-05
5.232025e-05
4.980078e-05
4.818097e-05
4.718987e-05
4.659648e-05
4.625389e-05
4.607539e-05
4.600758e-05
4.599618e-05
0.000000e+00
-1.949132e-05
-2.929969e-05
-3.990207e-05
-5.269180e-05
-6.714912e-05
-7.738701e-05
-9.125544e-05
-1.067712e-04
-1.212370e-04
-1.348991e-04
-1.481270e-04
-1.609980e-04
-1.734402e-04
-1.848559e-04
-1.947877e-04
-2.043566e-04
0.000000e+00
-1.053046e-05
-2.394465e-05
-3.610604e-05
-4.895342e-05
-6.516008e-05
-8.008637e-05
-9.383561e-05
-1.082465e-04
-1.220809e-04
-1.354193e-04
-1.484299e-04
-1.611791e-04
-1.736204e-04
-1.855014e-04
-1.961456e-04
-2.061135e-04
0.000000e+00
-4.255416e-06
-1.805398e-05
-3.219350e-05
-4.660669e-05
-6.478821e-05
-8.177458e-05
-9.596395e-05
-1.093853e-04
-1.227313e-04
-1.357901e-04
-1.486168e-04
-1.612651e-04
-1.737716e-04
-1.861707e-04
-1.976465e-04
-2.082710e-04
0.000000e+00
-1.578428e-06
-1.355582e-05
-2.918821e-05
-4.601383e-05
-6.470577e-05
-8.194410e-05
-9.668462e-05
-1.101010e-04
-1.231832e-04
-1.360396e-04
-1.487392e-04
-1.613415e-04
-1.739232e-04
-1.865700e-04
-1.986563e-04
-2.100629e-04
0.000000e+00
-5.860944e-07
-1.045217e-05
-2.693587e-05
-4.553754e-05
-6.446979e-05
-8.169423e-05
-9.674874e-05
-1.104122e-04
-1.234220e-04
-1.361792e-04
-1.488176e-04
-1.614104e-04
-1.740302e-04
-1.867074e-04
-1.991118e-04
-2.112177e-04
0.000000e+00
3.295187e-07
-8.522011e-06
-2.586444e-05
-4.580485e-05
-6.462856e-05
-8.163987e-05
-9.661048e-05
-1.102952e-04
-1.233672e-04
-1.361491e-04
-1.488035e-04
-1.614200e-04
-1.740550e-04
-1.867155e-04
-1.992830e-04
-2.118291e-04
0.000000e+00
2.893418e-07
-8.712850e-06
-2.696061e-05
-4.649507e-05
-6.462155e-05
-8.122549e-05
-9.602413e-05
-1.097882e-04
-1.230336e-04
-1.359503e-04
-1.486922e-04
-1.613638e-04
-1.740229e-04
-1.866924e-04
-1.993569e-04
-2.120985e-04
0.000000e+00
-3.342592e-06
-1.561601e-05
-3.196753e-05
-4.727297e-05
-6.374062e-05
-7.948291e-05
-9.448649e-05
-1.087825e-04
-1.224209e-04
-1.355885e-04
-1.484947e-04
-1.612587e-04
-1.739672e-04
-1.866667e-04
-1.993882e-04
-2.121845e-04
0.000000e+00
-1.050168e-05
-2.740421e-05
-3.890722e-05
-4.907941e-05
-6.252990e-05
-7.703282e-05
-9.237235e-05
-1.074325e-04
-1.215902e-04
-1.350975e-04
-1.482200e-04
-1.611108e-04
-1.738918e-04
-1.866348e-04
-1.993906e-04
-2.121969e-04


7.902307e+00
5.973178e+00
4.398487e+00
5.020166e+00
4.449501e+00
3.395429e+00
3.114011e+00
3.275241e+00
3.445152e+00
3.546059e+00
3.614659e+00
3.665172e+00
3.680804e+00
3.625372e+00
3.506872e+00
3.416395e+00
6.507524e+00
4.836770e+00
4.177635e+00
4.390349e+00
4.243928e+00
3.367501e+00
3.184034e+00
3.295749e+00
3.458711e+00
3.564359e+00
3.631712e+00
3.676085e+00
3.685578e+00
3.626059e+00
3.508975e+00
3.420455e+00
5.068761e+00
4.465455e+00
4.115675e+00
4.405576e+00
4.007297e+00
3.599158e+00
3.389511e+00
3.430787e+00
3.536423e+00
3.613190e+00
3.662073e+00
3.690872e+00
3.693473e+00
3.644198e+00
3.550874e+00
3.482948e+00
4.292438e+00
4.203509e+00
4.232021e+00
4.187240e+00
3.937665e+00
3.724903e+00
3.603914e+00
3.586078e+00
3.620938e+00
3.655624e+00
3.680747e+00
3.696029e+00
3.697878e+00
3.671951e+00
3.621579e+00
3.584926e+00
3.906677e+00
3.948682e+00
3.955043e+00
3.875094e+00
3.779621e+00
3.698388e+00
3.633717e+00
3.619937e+00
3.637718e+00
3.660161e+00
3.679346e+00
3.693155e+00
3.699898e+00
3.694485e+00
3.677920e+00
3.665377e+00
3.929139e+00
3.821335e+00
3.820373e+00
3.549768e+00
3.593201e+00
3.528798e+00
3.510243e+00
3.535237e+00
3.584035e+00
3.627578e+00
3.661023e+00
3.685821e+00
3.701788e+00
3.709331e+00
3.710470e+00
3.709841e+00
3.619846e+00
3.880213e+00
3.775147e+00
3.591247e+00
3.225998e+00
3.338489e+00
3.356689e+00
3.421465e+00
3.509487e+00
3.582368e+00
3.635707e+00
3.675734e+00
3.702487e+00
3.718064e+00
3.726279e+00
3.729712e+00
3.514520e+00
3.806257e+00
4.451822e+00
3.661163e+00
3.188197e+00
3.202597e+00
3.281428e+00
3.365191e+00
3.473136e+00
3.559690e+00
3.622492e+00
3.670577e+00
3.703194e+00
3.722351e+00
3.732506e+00
3.736902e+00


-1.117851e+00
7.726915e-01
9.264332e-01
8.317447e-01
-1.165964e-01
-5.258559e-01
-8.251059e-02
9.575820e-02
2.311524e-01
3.734497e-01
4.972006e-01
5.920348e-01
6.570040e-01
6.927702e-01
7.277886e-01
-1.553529e-01
4.213615e-01
9.007199e-01
9.433413e-01
8.636519e-01
2.118913e-01
2.309174e-01
4.039867e-01
4.894666e-01
5.590207e-01
6.432702e-01
7.315324e-01
8.170749e-01
8.959398e-01
9.505439e-01
8.384259e-01
-7.076314e-01
8.783656e-01
8.658065e-01
8.671085e-01
7.634872e-01
6.097566e-01
6.861282e-01
6.984964e-01
7.136057e-01
7.375710e-01
7.748584e-01
8.180845e-01
8.548515e-01
8.639858e-01
8.007386e-01
5.763838e-01
1.741487e-01
8.994754e-01
8.308769e-01
8.603700e-01
8.655353e-01
8.567522e-01
8.216821e-01
8.106125e-01
7.983149e-01
7.922797e-01
7.915019e-01
7.896607e-01
7.760790e-01
7.376463e-01
6.719146e-01
6.218109e-01
6.120446e-01
8.619919e-01
8.374300e-01
8.453870e-01
8.417124e-01
8.220390e-01
8.089048e-01
7.954614e-01
7.829093e-01
7.677297e-01
7.510841e-01
7.311241e-01
7.070929e-01
6.855643e-01
6.892597e-01
7.453923e-01
8.402677e-01
7.012580e-01
6.806670e-01
6.796914e-01
6.710184e-01
6.498873e-01
6.573420e-01
6.743455e-01
6.857446e-01
6.918322e-01
6.949809e-01
6.965905e-01
7.020365e-01
7.245910e-01
7.789881e-01
8.630425e-01
9.502193e-01
3.113707e-01
3.122720e-01
3.956349e-01
3.768630e-01
3.562633e-01
3.576405e-01
4.276399e-01
4.945014e-01
5.556747e-01
6.187761e-01
6.816574e-01
7.431810e-01
8.079562e-01
8.795828e-01
9.479661e-01
9.912849e-01
-7.860522e-01
-1.417509e-01
-5.692800e-02
-1.762687e-02
-9.942703e-02
-1.061884e-01
1.317915e-02
1.562523e-01
3.002976e-01
4.599662e-01
6.226119e-01
7.695012e-01
8.847532e-01
9.579741e-01
9.917312e-01
9.998245e-01
1 2 19 18
2 3 20 19
3 4 21 20
4 5 22 21
5 6 23 22
6 7 24 23
7 8 25 24
8 9 26 25
9 10 27 26
10 11 28 27
11 12 29 28
12 13 30 29
13 14 31 30
14 15 32 31
15 16 33 32
16 17 34 33
18 19 36 35
19 20 37 36
20 21 38 37
21 22 39 38
22 23 40 39
23 24 41 40
24 25 42 41
25 26 43 42
26 27 44 43
27 28 45 44
28 29 46 45
29 30 47 46
30 31 48 47
31 32 49 48
32 33 50 49
33 34 51 50
35 36 53 52
36 37 54 53
37 38 55 54
38 39 56 55
39 40 57 56
40 41 58 57
41 42 59 58
42 43 60 59
43 44 61 60
44 45 62 61
45 46 63 62
46 47 64 63
47 48 65 64
48 49 66 65
49 50 67 66
50 51 68 67
52 53 70 69
53 54 71 70
54 55 72 71
55 56 73 72
56 57 74 73
57 58 75 74
58 59 76 75
59 60 77 76
60 61 78 77
61 62 79 78
62 63 80 79
63 64 81 80
64 65 82 81
65 66 83 82
66 67 84 83
67 68 85 84
69 70 87 86
70 71 88 87
71 72 89 88
72 73 90 89
73 74 91 90
74 75 92 91
75 76 93 92
76 77 94 93
77 78 95 94
78 79 96 95
79 80 97 96
80 81 98 97
81 82 99 98
82 83 100 99
83 84 101 100
84 85 102 101
86 87 104 103
87 88 105 104
88 89 106 105
89 90 107 106
90 91 108 107
91 92 109 108
92 93 110 109
93 94 111 110
94 95 112 111
95 96 113 112
96 97 114 113
97 98 115 114
98 99 116 115
99 100 117 116
100 101 118 117
101 102 119 118
103 104 121 120
104 105 122 121
105 106 123 122
106 107 124 123
107 108 125 124
108 109 126 125
109 110 127 126
110 111 128 127
111 112 129 128
112 113 130 129
113 114 131 130
114 115 132 131
115 116 133 132
116 117 134 133
117 118 135 134
118 119 136 135
120 121 138 137
121 122 139 138
122 123 140 139
123 124 141 140
124 125 142 141
125 126 143 142
126 127 144 143
127 128 145 144
128 129 146 145
129 130 147 146
130 131 148 147
131 132 149 148
132 133 150 149
133 134 151 150
134 135 152 151
135 136 153 152
