TITLE = "Solution"
VARIABLES = x, y, u, v, psiu, psiv, t, stress
ZONE T="structure" N=153 E=128 F=FEBLOCK ET=QUADRILATERAL VARLOCATION=([7,8]=cellcentered)
0.000000e+00
1.250000e+01
2.500000e+01
3.750000e+01
5.000000e+01
6.250000e+01
7.500000e+01
8.750000e+01
1.000000e+02
1.125000e+02
1.250000e+02
1.375000e+02
1.500000e+02
1.625000e+02
1.750000e+02
1.875000e+02
2.000000e+02
0.000000e+00
1.250000e+01
2.500000e+01
3.750000e+01
5.000000e+01
6.250000e+01
7.500000e+01
8.750000e+01
1.000000e+02
1.125000e+02
1.250000e+02
1.375000e+02
1.500000e+02
1.625000e+02
1.750000e+02
1.875000e+02
2.000000e+02
0.000000e+00
1.250000e+01
2.500000e+01
3.750000e+01
5.000000e+01
6.250000e+01
7.500000e+01
8.750000e+01
1.000000e+02
1.125000e+02
1.250000e+02
1.375000e+02
1.500000e+02
1.625000e+02
1.750000e+02
1.875000e+02
2.000000e+02
0.000000e+00
1.250000e+01
2.500000e+01
3.750000e+01
5.000000e+01
6.250000e+01
7.500000e+01
8.750000e+01
1.000000e+02
1.125000e+02
1.250000e+02
1.375000e+02
1.500000e+02
1.625000e+02
1.750000e+02
1.875000e+02
2.000000e+02
0.000000e+00
1.250000e+01
2.500000e+01
3.750000e+01
5.000000e+01
6.250000e+01
7.500000e+01
8.750000e+01
1.000000e+02
1.125000e+02
1.250000e+02
1.375000e+02
1.500000e+02
1.625000e+02
1.750000e+02
1.875000e+02
2.000000e+02
0.000000e+00
1.250000e+01
2.500000e+01
3.750000e+01
5.000000e+01
6.250000e+01
7.500000e+01
8.750000e+01
1.000000e+02
1.125000e+02
1.250000e+02
1.375000e+02
1.500000e+02
1.625000e+02
1.750000e+02
1.875000e+02
2.000000e+02
0.000000e+00
1.250000e+01
2.500000e+01
3.750000e+01
5.000000e+01
6.250000e+01
7.500000e+01
8.750000e+01
1.000000e+02
1.125000e+02
1.250000e+02
1.375000e+02
1.500000e+02
1.625000e+02
1.750000e+02
1.875000e+02
2.000000e+02
0.000000e+00
1.250000e+01
2.500000e+01
3.750000e+01
5.000000e+01
6.250000e+01
7.500000e+01
8.750000e+01
1.000000e+02
1.125000e+02
1.250000e+02
1.375000e+02
1.500000e+02
1.625000e+02
1.750000e+02
1.875000e+02
2.000000e+02
0.000000e+00
1.250000e+01
2.500000e+01
3.750000e+01
5.000000e+01
6.250000e+01
7.500000e+01
8.750000e+01
1.000000e+02
1.125000e+02
1.250000e+02
1.375000e+02
1.500000e+02
1.625000e+02
1.750000e+02
1.875000e+02
2.000000e+02
0.000000e+00
0.000000e+00
0.000000e+00
0.000000e+00
0.000000e+00
0.000000e+00
0.000000e+00
0.000000e+00
0.000000e+00
0.000000e+00
0.000000e+00
0.000000e+00
0.000000e+00
0.000000e+00
0.000000e+00
0.000000e+00
0.000000e+00
1.250000e+01
1.250000e+01
1.250000e+01
1.250000e+01
1.250000e+01
1.250000e+01
1.250000e+01
1.250000e+01
1.250000e+01
1.250000e+01
1.250000e+01
1.250000e+01
1.250000e+01
1.250000e+01
1.250000e+01
1.250000e+01
1.250000e+01
2.500000e+01
2.500000e+01
2.500000e+01
2.500000e+01
2.500000e+01
2.500000e+01
2.500000e+01
2.500000e+01
2.500000e+01
2.500000e+01
2.500000e+01
2.500000e+01
2.500000e+01
2.500000e+01
2.500000e+01
2.500000e+01
2.500000e+01
3.750000e+01
3.750000e+01
3.750000e+01
3.750000e+01
3.750000e+01
3.750000e+01
3.750000e+01
3.750000e+01
3.750000e+01
3.750000e+01
3.750000e+01
3.750000e+01
3.750000e+01
3.750000e+01
3.750000e+01
3.750000e+01
3.750000e+01
5.000000e+01
5.000000e+01
5.000000e+01
5.000000e+01
5.000000e+01
5.000000e+01
5.000000e+01
5.000000e+01
5.000000e+01
5.000000e+01
5.000000e+01
5.000000e+01
5.000000e+01
5.000000e+01
5.000000e+01
5.000000e+01
5.000000e+01
6.250000e+01
6.250000e+01
6.250000e+01
6.250000e+01
6.250000e+01
6.250000e+01
6.250000e+01
6.250000e+01
6.250000e+01
6.250000e+01
6.250000e+01
6.250000e+01
6.250000e+01
6.250000e+01
6.250000e+01
6.250000e+01
6.250000e+01
7.500000e+01
7.500000e+01
7.500000e+01
7.500000e+01
7.500000e+01
7.500000e+01
7.500000e+01
7.500000e+01
7.500000e+01
7.500000e+01
7.500000e+01
7.500000e+01
7.500000e+01
7.500000e+01
7.500000e+01
7.500000e+01
7.500000e+01
8.750000e+01
8.750000e+01
8.750000e+01
8.750000e+01
8.750000e+01
8.750000e+01
8.750000e+01
8.750000e+01
8.750000e+01
8.750000e+01
8.750000e+01
8.750000e+01
8.750000e+01
8.750000e+01
8.750000e+01
8.750000e+01
8.750000e+01
1.000000e+02
1.000000e+02
1.000000e+02
1.000000e+02
1.000000e+02
1.000000e+02
1.000000e+02
1.000000e+02
1.000000e+02
1.000000e+02
1.000000e+02
1.000000e+02
1.000000e+02
1.000000e+02
1.000000e+02
1.000000e+02
1.000000e+02
0.000000e+00
-8.351924e-01
-1.511650e+00
-2.169525e+00
-2.840273e+00
-3.496891e+00
-4.145569e+00
-4.791940e+00
-5.431510e+00
-6.056685e+00
-6.657843e+00
-7.227085e+00
-7.766348e+00
-8.293213e+00
-8.838804e+00
-9.441306e+00
-9.864931e+00
0.000000e+00
-4.593570e-01
-9.552348e-01
-1.445719e+00
-1.948075e+00
-2.439992e+00
-2.925010e+00
-3.407713e+00
-3.884834e+00
-4.349975e+00
-4.793813e+00
-5.205166e+00
-5.573444e+00
-5.883170e+00
-6.094798e+00
-6.141896e+00
-6.281079e+00
0.000000e+00
-2.571513e-01
-5.417492e-01
-8.607687e-01
-1.193749e+00
-1.523836e+00
-1.851219e+00
-2.175428e+00
-2.492297e+00
-2.795204e+00
-3.074181e+00
-3.315825e+00
-3.503208e+00
-3.613716e+00
-3.625089e+00
-3.593059e+00
-3.738117e+00
0.000000e+00
-1.141899e-01
-2.447463e-01
-3.975127e-01
-5.615636e-01
-7.279193e-01
-8.935857e-01
-1.055565e+00
-1.209815e+00
-1.350461e+00
-1.469067e+00
-1.554809e+00
-1.595993e+00
-1.585754e+00
-1.544184e+00
-1.551488e+00
-1.666524e+00
0.000000e+00
-5.597839e-04
-1.166066e-03
-1.715384e-03
-2.004208e-03
-1.652899e-03
2.977443e-05
4.274865e-03
1.318703e-02
3.005078e-02
5.930389e-02
1.055795e-01
1.705781e-01
2.454126e-01
2.994580e-01
2.912876e-01
2.103997e-01
0.000000e+00
1.132450e-01
2.427522e-01
3.945094e-01
5.578934e-01
7.245337e-01
8.925432e-01
1.060909e+00
1.228911e+00
1.395804e+00
1.560234e+00
1.719421e+00
1.866921e+00
1.988606e+00
2.062383e+00
2.070925e+00
2.028510e+00
0.000000e+00
2.566751e-01
5.406780e-01
8.590068e-01
1.191272e+00
1.520802e+00
1.848212e+00
2.173878e+00
2.494733e+00
2.805266e+00
3.096958e+00
3.359060e+00
3.579850e+00
3.746904e+00
3.848650e+00
3.882327e+00
3.872525e+00
0.000000e+00
4.594637e-01
9.553480e-01
1.445758e+00
1.947850e+00
2.439040e+00
2.922626e+00
3.402884e+00
3.875069e+00
4.328448e+00
4.746228e+00
5.108496e+00
5.398253e+00
5.605710e+00
5.730638e+00
5.784105e+00
5.793999e+00
0.000000e+00
8.356584e-01
1.512778e+00
2.171525e+00
2.843261e+00
3.500662e+00
4.149661e+00
4.795236e+00
5.429738e+00
6.036697e+00
6.590118e+00
7.058920e+00
7.416378e+00
7.648352e+00
7.760944e+00
7.788355e+00
7.787589e+00
0.000000e+00
-5.136652e-01
-1.057575e+00
-1.778856e+00
-2.665797e+00
-3.718294e+00
-4.941332e+00
-6.334885e+00
-7.895671e+00
-9.618227e+00
-1.149395e+01
-1.351343e+01
-1.567257e+01
-1.798268e+01
-2.050876e+01
-2.346423e+01
-2.785372e+01
0.000000e+00
-3.236705e-01
-8.910143e-01
-1.605168e+00
-2.492200e+00
-3.547636e+00
-4.772103e+00
-6.167110e+00
-7.731190e+00
-9.459766e+00
-1.134482e+01
-1.337636e+01
-1.554879e+01
-1.787480e+01
-2.041207e+01
-2.335811e+01
-2.702026e+01
0.000000e+00
-2.622531e-01
-7.801372e-01
-1.487263e+00
-2.370679e+00
-3.426498e+00
-4.652716e+00
-6.050544e+00
-7.619443e+00
-9.355960e+00
-1.125304e+01
-1.330133e+01
-1.549607e+01
-1.784884e+01
-2.039664e+01
-2.316994e+01
-2.581139e+01
0.000000e+00
-2.531531e-01
-7.351143e-01
-1.423640e+00
-2.300829e+00
-3.355217e+00
-4.583478e+00
-5.985604e+00
-7.561311e+00
-9.307967e+00
-1.121910e+01
-1.328510e+01
-1.549782e+01
-1.785460e+01
-2.034066e+01
-2.284622e+01
-2.507880e+01
0.000000e+00
-2.546189e-01
-7.250626e-01
-1.405535e+00
-2.279086e+00
-3.333454e+00
-4.563971e+00
-5.970369e+00
-7.552741e+00
-9.308898e+00
-1.123193e+01
-1.330939e+01
-1.552431e+01
-1.785193e+01
-2.023611e+01
-2.255406e+01
-2.460467e+01
0.000000e+00
-2.529594e-01
-7.351515e-01
-1.424404e+00
-2.303049e+00
-3.359971e+00
-4.592402e+00
-6.001339e+00
-7.587780e+00
-9.349751e+00
-1.127901e+01
-1.335849e+01
-1.556078e+01
-1.784349e+01
-2.013847e+01
-2.234341e+01
-2.432627e+01
0.000000e+00
-2.619205e-01
-7.801642e-01
-1.488436e+00
-2.374207e+00
-3.434181e+00
-4.667320e+00
-6.076552e+00
-7.663554e+00
-9.426107e+00
-1.135435e+01
-1.342692e+01
-1.560865e+01
-1.784840e+01
-2.007807e+01
-2.222004e+01
-2.420126e+01
0.000000e+00
-3.233353e-01
-8.910416e-01
-1.606452e+00
-2.496110e+00
-3.556234e+00
-4.788599e+00
-6.196665e+00
-7.781323e+00
-9.539109e+00
-1.145851e+01
-1.351589e+01
-1.567316e+01
-1.787702e+01
-2.006251e+01
-2.216843e+01
-2.417222e+01
0.000000e+00
-5.134643e-01
-1.057733e+00
-1.780308e+00
-2.669884e+00
-3.727056e+00
-4.957996e+00
-6.364436e+00
-7.944656e+00
-9.692914e+00
-1.159558e+01
-1.362837e+01
-1.575437e+01
-1.792315e+01
-2.007516e+01
-2.215888e+01
-2.417291e+01


0.000000e+00
1.044474e-05
2.019899e-05
2.958230e-05
3.962481e-05
4.944422e-05
5.844873e-05
6.660889e-05
7.372575e-05
7.943127e-05
8.358655e-05
8.640592e-05
8.831906e-05
8.982068e-05
9.128100e-05
9.332992e-05
9.598258e-05
0.000000e+00
7.682801e-06
1.628897e-05
2.336557e-05
3.103020e-05
3.854058e-05
4.527390e-05
5.129193e-05
5.648804e-05
6.051407e-05
6.325170e-05
6.489765e-05
6.572004e-05
6.590621e-05
6.608783e-05
6.774560e-05
7.058187e-05
0.000000e+00
5.806926e-06
1.158736e-05
1.646129e-05
2.163425e-05
2.653318e-05
3.090444e-05
3.475814e-05
3.800053e-05
4.044387e-05
4.203718e-05
4.288703e-05
4.316634e-05
4.314025e-05
4.335841e-05
4.478737e-05
4.722394e-05
0.000000e+00
2.905435e-06
5.429371e-06
8.195579e-06
1.076676e-05
1.311898e-05
1.525617e-05
1.712675e-05
1.865578e-05
1.979649e-05
2.053466e-05
2.091419e-05
2.107098e-05
2.123314e-05
2.161705e-05
2.249600e-05
2.391803e-05
0.000000e+00
-7.581540e-09
-1.563784e-08
-2.374761e-08
-3.212178e-08
-4.167256e-08
-5.589875e-08
-8.395339e-08
-1.384986e-07
-2.250731e-07
-3.316930e-07
-4.209548e-07
-4.253647e-07
-2.771249e-07
-2.725318e-08
2.975189e-07
9.028815e-07
0.000000e+00
-2.919084e-06
-5.456436e-06
-8.237552e-06
-1.082392e-05
-1.319055e-05
-1.534514e-05
-1.724809e-05
-1.883939e-05
-2.008285e-05
-2.096099e-05
-2.148807e-05
-2.172179e-05
-2.176242e-05
-2.175752e-05
-2.174021e-05
-2.154156e-05
0.000000e+00
-5.813669e-06
-1.160398e-05
-1.649152e-05
-2.167948e-05
-2.659213e-05
-3.097884e-05
-3.483708e-05
-3.804199e-05
-4.040333e-05
-4.192513e-05
-4.279265e-05
-4.323786e-05
-4.346516e-05
-4.361248e-05
-4.369677e-05
-4.365362e-05
0.000000e+00
-7.682793e-06
-1.629282e-05
-2.337736e-05
-3.105137e-05
-3.857158e-05
-4.532456e-05
-5.134351e-05
-5.643601e-05
-6.021251e-05
-6.264230e-05
-6.406652e-05
-6.487575e-05
-6.534361e-05
-6.562026e-05
-6.575852e-05
-6.578121e-05
0.000000e+00
-1.044576e-05
-2.019542e-05
-2.957417e-05
-3.961023e-05
-4.942137e-05
-5.842393e-05
-6.656229e-05
-7.354992e-05
-7.896205e-05
-8.271880e-05
-8.512260e-05
-8.658306e-05
-8.742872e-05
-8.786908e-05
-8.803431e-05
-8.806103e-05
0.000000e+00
9.100884e-06
1.555010e-05
2.355164e-05
3.417357e-05
4.678126e-05
6.146674e-05
7.825538e-05
9.673441e-05
1.164554e-04
1.371649e-04
1.587115e-04
1.810137e-04
2.043669e-04
2.304836e-04
2.605520e-04
2.914321e-04
0.000000e+00
4.762239e-06
1.148939e-05
1.926496e-05
2.966525e-05
4.251653e-05
5.762520e-05
7.485338e-05
9.391373e-05
1.143607e-04
1.357792e-04
1.578835e-04
1.805555e-04
2.039678e-04
2.287931e-04
2.569671e-04
2.868506e-04
0.000000e+00
2.101728e-06
8.150569e-06
1.611586e-05
2.642573e-05
3.947372e-05
5.492240e-05
7.250507e-05
9.198445e-05
1.129387e-04
1.348659e-04
1.573961e-04
1.803617e-04
2.036244e-04
2.269918e-04
2.529284e-04
2.811809e-04
0.000000e+00
1.206865e-06
6.578081e-06
1.460785e-05
2.506777e-05
3.820124e-05
5.377416e-05
7.152239e-05
9.117410e-05
1.123146e-04
1.344478e-04
1.571664e-04
1.802001e-04
2.032513e-04
2.259351e-04
2.501758e-04
2.764130e-04
0.000000e+00
1.027153e-06
6.128403e-06
1.410002e-05
2.467937e-05
3.783389e-05
5.343821e-05
7.124899e-05
9.096598e-05
1.121655e-04
1.343545e-04
1.570996e-04
1.800757e-04
2.029880e-04
2.256444e-04
2.490181e-04
2.733359e-04
0.000000e+00
1.207695e-06
6.575643e-06
1.459968e-05
2.505238e-05
3.817954e-05
5.375851e-05
7.154236e-05
9.125637e-05
1.124552e-04
1.346069e-04
1.572668e-04
1.801232e-04
2.029507e-04
2.256893e-04
2.486586e-04
2.717289e-04
0.000000e+00
2.102913e-06
8.147049e-06
1.610399e-05
2.640262e-05
3.944042e-05
5.490007e-05
7.254556e-05
9.213629e-05
1.131998e-04
1.351767e-04
1.576422e-04
1.803279e-04
2.030627e-04
2.257762e-04
2.485046e-04
2.710352e-04
0.000000e+00
4.764806e-06
1.148952e-05
1.925794e-05
2.964760e-05
4.249099e-05
5.761382e-05
7.490051e-05
9.405832e-05
1.146066e-04
1.360933e-04
1.581806e-04
1.806165e-04
2.032135e-04
2.258479e-04
2.484302e-04
2.708203e-04
0.000000e+00
9.105413e-06
1.555411e-05
2.355130e-05
3.416449e-05
4.676877e-05
6.147051e-05
7.829014e-05
9.679701e-05
1.165488e-04
1.373072e-04
1.588713e-04
1.809842e-04
2.033983e-04
2.259263e-04
2.484236e-04
2.707907e-04


2.197654e+00
2.137122e+00
2.278778e+00
2.499272e+00
2.671578e+00
2.920663e+00
3.244670e+00
3.609302e+00
3.992958e+00
4.353489e+00
4.643003e+00
4.834762e+00
4.895397e+00
4.699136e+00
4.250627e+00
3.893378e+00
2.938311e+00
2.877390e+00
2.962137e+00
3.112634e+00
3.232216e+00
3.415061e+00
3.658158e+00
3.934654e+00
4.229644e+00
4.510193e+00
4.736493e+00
4.883932e+00
4.915057e+00
4.698496e+00
4.250673e+00
3.897255e+00
4.021440e+00
3.976513e+00
4.002994e+00
4.059017e+00
4.103956e+00
4.189596e+00
4.306817e+00
4.443858e+00
4.595894e+00
4.744991e+00
4.866957e+00
4.944848e+00
4.947356e+00
4.766824e+00
4.410856e+00
4.141810e+00
4.695472e+00
4.667825e+00
4.661267e+00
4.659484e+00
4.666067e+00
4.689654e+00
4.724231e+00
4.768328e+00
4.822426e+00
4.879696e+00
4.929321e+00
4.963319e+00
4.964474e+00
4.872076e+00
4.685402e+00
4.543974e+00
4.695520e+00
4.667777e+00
4.661006e+00
4.658793e+00
4.664473e+00
4.686442e+00
4.718785e+00
4.760169e+00
4.810899e+00
4.864403e+00
4.911686e+00
4.948866e+00
4.970815e+00
4.954305e+00
4.895804e+00
4.848539e+00
4.021326e+00
3.976087e+00
4.001954e+00
4.056886e+00
4.099760e+00
4.182477e+00
4.297209e+00
4.432629e+00
4.581646e+00
4.724431e+00
4.840175e+00
4.923192e+00
4.978599e+00
5.006842e+00
5.010940e+00
5.007376e+00
2.937581e+00
2.876154e+00
2.960075e+00
3.109383e+00
3.227308e+00
3.409683e+00
3.657065e+00
3.943032e+00
4.246199e+00
4.526326e+00
4.745293e+00
4.893650e+00
4.985347e+00
5.037866e+00
5.064288e+00
5.074455e+00
2.196343e+00
2.135234e+00
2.276072e+00
2.495669e+00
2.667372e+00
2.919081e+00
3.254104e+00
3.638437e+00
4.040786e+00
4.407599e+00
4.690643e+00
4.878812e+00
4.991056e+00
5.053222e+00
5.084674e+00
5.097685e+00


-4.765665e-01
-2.118160e-01
-1.562143e-01
-2.063759e-01
-1.587305e-01
-1.306925e-01
-1.228160e-01
-9.964656e-02
-4.896641e-02
3.710747e-02
1.547745e-01
2.811131e-01
3.957762e-01
5.034670e-01
6.225970e-01
-4.634296e-01
5.183977e-01
3.994448e-01
3.642392e-01
3.237524e-01
3.375187e-01
3.439929e-01
3.430770e-01
3.539321e-01
3.866763e-01
4.507288e-01
5.494129e-01
6.738379e-01
8.074736e-01
9.120615e-01
7.758619e-01
-1.210810e+00
8.321021e-01
7.357522e-01
6.550741e-01
6.165304e-01
6.068757e-01
5.996549e-01
5.943698e-01
5.966801e-01
6.116719e-01
6.444991e-01
6.943460e-01
7.455445e-01
7.596925e-01
6.661960e-01
3.616396e-01
-1.754926e-01
9.289806e-01
8.488210e-01
7.745081e-01
7.324256e-01
7.145587e-01
7.049608e-01
6.963043e-01
6.862335e-01
6.746794e-01
6.620875e-01
6.450315e-01
6.104148e-01
5.372550e-01
4.292045e-01
3.698788e-01
3.747421e-01
9.294803e-01
8.494371e-01
7.750323e-01
7.321854e-01
7.124310e-01
6.990971e-01
6.834451e-01
6.610460e-01
6.296067e-01
5.888257e-01
5.396387e-01
4.847323e-01
4.379747e-01
4.435449e-01
5.494807e-01
7.221830e-01
8.332582e-01
7.372270e-01
6.564760e-01
6.166559e-01
6.036070e-01
5.892205e-01
5.698399e-01
5.468748e-01
5.209388e-01
4.949309e-01
4.743226e-01
4.697060e-01
5.029526e-01
5.993675e-01
7.525434e-01
9.111365e-01
5.192054e-01
4.005757e-01
3.654069e-01
3.246236e-01
3.372892e-01
3.406118e-01
3.322338e-01
3.299180e-01
3.440996e-01
3.840933e-01
4.522694e-01
5.429756e-01
6.532023e-01
7.816906e-01
9.059877e-01
9.844786e-01
-4.774896e-01
-2.131218e-01
-1.577835e-01
-2.079226e-01
-1.591621e-01
-1.293995e-01
-1.186015e-01
-8.486477e-02
-1.865586e-03
1.503530e-01
3.644364e-01
5.969315e-01
7.949268e-01
9.248032e-01
9.852866e-01
9.997021e-01
1 2 19 18
2 3 20 19
3 4 21 20
4 5 22 21
5 6 23 22
6 7 24 23
7 8 25 24
8 9 26 25
9 10 27 26
10 11 28 27
11 12 29 28
12 13 30 29
13 14 31 30
14 15 32 31
15 16 33 32
16 17 34 33
18 19 36 35
19 20 37 36
20 21 38 37
21 22 39 38
22 23 40 39
23 24 41 40
24 25 42 41
25 26 43 42
26 27 44 43
27 28 45 44
28 29 46 45
29 30 47 46
30 31 48 47
31 32 49 48
32 33 50 49
33 34 51 50
35 36 53 52
36 37 54 53
37 38 55 54
38 39 56 55
39 40 57 56
40 41 58 57
41 42 59 58
42 43 60 59
43 44 61 60
44 45 62 61
45 46 63 62
46 47 64 63
47 48 65 64
48 49 66 65
49 50 67 66
50 51 68 67
52 53 70 69
53 54 71 70
54 55 72 71
55 56 73 72
56 57 74 73
57 58 75 74
58 59 76 75
59 60 77 76
60 61 78 77
61 62 79 78
62 63 80 79
63 64 81 80
64 65 82 81
65 66 83 82
66 67 84 83
67 68 85 84
69 70 87 86
70 71 88 87
71 72 89 88
72 73 90 89
73 74 91 90
74 75 92 91
75 76 93 92
76 77 94 93
77 78 95 94
78 79 96 95
79 80 97 96
80 81 98 97
81 82 99 98
82 83 100 99
83 84 101 100
84 85 102 101
86 87 104 103
87 88 105 104
88 89 106 105
89 90 107 106
90 91 108 107
91 92 109 108
92 93 110 109
93 94 111 110
94 95 112 111
95 96 113 112
96 97 114 113
97 98 115 114
98 99 116 115
99 100 117 116
100 101 118 117
101 102 119 118
103 104 121 120
104 105 122 121
105 106 123 122
106 107 124 123
107 108 125 124
108 109 126 125
109 110 127 126
110 111 128 127
111 112 129 128
112 113 130 129
113 114 131 130
114 115 132 131
115 116 133 132
116 117 134 133
117 118 135 134
118 119 136 135
120 121 138 137
121 122 139 138
122 123 140 139
123 124 141 140
124 125 142 141
125 126 143 142
126 127 144 143
127 128 145 144
128 129 146 145
129 130 147 146
130 131 148 147
131 132 149 148
132 133 150 149
133 134 151 150
134 135 152 151
135 136 153 152
