TITLE = "Solution"
VARIABLES = x, y, u, v, psiu, psiv, t, stress
ZONE T="structure" N=153 E=128 F=FEBLOCK ET=QUADRILATERAL VARLOCATION=([7,8]=cellcentered)
0.000000e+00
1.250000e+01
2.500000e+01
3.750000e+01
5.000000e+01
6.250000e+01
7.500000e+01
8.750000e+01
1.000000e+02
1.125000e+02
1.250000e+02
1.375000e+02
1.500000e+02
1.625000e+02
1.750000e+02
1.875000e+02
2.000000e+02
0.000000e+00
1.250000e+01
2.500000e+01
3.750000e+01
5.000000e+01
6.250000e+01
7.500000e+01
8.750000e+01
1.000000e+02
1.125000e+02
1.250000e+02
1.375000e+02
1.500000e+02
1.625000e+02
1.750000e+02
1.875000e+02
2.000000e+02
0.000000e+00
1.250000e+01
2.500000e+01
3.750000e+01
5.000000e+01
6.250000e+01
7.500000e+01
8.750000e+01
1.000000e+02
1.125000e+02
1.250000e+02
1.375000e+02
1.500000e+02
1.625000e+02
1.750000e+02
1.875000e+02
2.000000e+02
0.000000e+00
1.250000e+01
2.500000e+01
3.750000e+01
5.000000e+01
6.250000e+01
7.500000e+01
8.750000e+01
1.000000e+02
1.125000e+02
1.250000e+02
1.375000e+02
1.500000e+02
1.625000e+02
1.750000e+02
1.875000e+02
2.000000e+02
0.000000e+00
1.250000e+01
2.500000e+01
3.750000e+01
5.000000e+01
6.250000e+01
7.500000e+01
8.750000e+01
1.000000e+02
1.125000e+02
1.250000e+02
1.375000e+02
1.500000e+02
1.625000e+02
1.750000e+02
1.875000e+02
2.000000e+02
0.000000e+00
1.250000e+01
2.500000e+01
3.750000e+01
5.000000e+01
6.250000e+01
7.500000e+01
8.750000e+01
1.000000e+02
1.125000e+02
1.250000e+02
1.375000e+02
1.500000e+02
1.625000e+02
1.750000e+02
1.875000e+02
2.000000e+02
0.000000e+00
1.250000e+01
2.500000e+01
3.750000e+01
5.000000e+01
6.250000e+01
7.500000e+01
8.750000e+01
1.000000e+02
1.125000e+02
1.250000e+02
1.375000e+02
1.500000e+02
1.625000e+02
1.750000e+02
1.875000e+02
2.000000e+02
0.000000e+00
1.250000e+01
2.500000e+01
3.750000e+01
5.000000e+01
6.250000e+01
7.500000e+01
8.750000e+01
1.000000e+02
1.125000e+02
1.250000e+02
1.375000e+02
1.500000e+02
1.625000e+02
1.750000e+02
1.875000e+02
2.000000e+02
0.000000e+00
1.250000e+01
2.500000e+01
3.750000e+01
5.000000e+01
6.250000e+01
7.500000e+01
8.750000e+01
1.000000e+02
1.125000e+02
1.250000e+02
1.375000e+02
1.500000e+02
1.625000e+02
1.750000e+02
1.875000e+02
2.000000e+02
0.000000e+00
0.000000e+00
0.000000e+00
0.000000e+00
0.000000e+00
0.000000e+00
0.000000e+00
0.000000e+00
0.000000e+00
0.000000e+00
0.000000e+00
0.000000e+00
0.000000e+00
0.000000e+00
0.000000e+00
0.000000e+00
0.000000e+00
1.250000e+01
1.250000e+01
1.250000e+01
1.250000e+01
1.250000e+01
1.250000e+01
1.250000e+01
1.250000e+01
1.250000e+01
1.250000e+01
1.250000e+01
1.250000e+01
1.250000e+01
1.250000e+01
1.250000e+01
1.250000e+01
1.250000e+01
2.500000e+01
2.500000e+01
2.500000e+01
2.500000e+01
2.500000e+01
2.500000e+01
2.500000e+01
2.500000e+01
2.500000e+01
2.500000e+01
2.500000e+01
2.500000e+01
2.500000e+01
2.500000e+01
2.500000e+01
2.500000e+01
2.500000e+01
3.750000e+01
3.750000e+01
3.750000e+01
3.750000e+01
3.750000e+01
3.750000e+01
3.750000e+01
3.750000e+01
3.750000e+01
3.750000e+01
3.750000e+01
3.750000e+01
3.750000e+01
3.750000e+01
3.750000e+01
3.750000e+01
3.750000e+01
5.000000e+01
5.000000e+01
5.000000e+01
5.000000e+01
5.000000e+01
5.000000e+01
5.000000e+01
5.000000e+01
5.000000e+01
5.000000e+01
5.000000e+01
5.000000e+01
5.000000e+01
5.000000e+01
5.000000e+01
5.000000e+01
5.000000e+01
6.250000e+01
6.250000e+01
6.250000e+01
6.250000e+01
6.250000e+01
6.250000e+01
6.250000e+01
6.250000e+01
6.250000e+01
6.250000e+01
6.250000e+01
6.250000e+01
6.250000e+01
6.250000e+01
6.250000e+01
6.250000e+01
6.250000e+01
7.500000e+01
7.500000e+01
7.500000e+01
7.500000e+01
7.500000e+01
7.500000e+01
7.500000e+01
7.500000e+01
7.500000e+01
7.500000e+01
7.500000e+01
7.500000e+01
7.500000e+01
7.500000e+01
7.500000e+01
7.500000e+01
7.500000e+01
8.750000e+01
8.750000e+01
8.750000e+01
8.750000e+01
8.750000e+01
8.750000e+01
8.750000e+01
8.750000e+01
8.750000e+01
8.750000e+01
8.750000e+01
8.750000e+01
8.750000e+01
8.750000e+01
8.750000e+01
8.750000e+01
8.750000e+01
1.000000e+02
1.000000e+02
1.000000e+02
1.000000e+02
1.000000e+02
1.000000e+02
1.000000e+02
1.000000e+02
1.000000e+02
1.000000e+02
1.000000e+02
1.000000e+02
1.000000e+02
1.000000e+02
1.000000e+02
1.000000e+02
1.000000e+02
0.000000e+00
-9.287543e-01
-1.616330e+00
-2.324436e+00
-3.010055e+00
-3.667193e+00
-4.344941e+00
-5.010886e+00
-5.670080e+00
-6.335718e+00
-6.997196e+00
-7.673779e+00
-8.393792e+00
-9.147942e+00
-9.916785e+00
-1.061845e+01
-1.106804e+01
0.000000e+00
-4.509751e-01
-9.325573e-01
-1.436194e+00
-1.952838e+00
-2.443898e+00
-2.950860e+00
-3.453330e+00
-3.948634e+00
-4.447730e+00
-4.941060e+00
-5.434606e+00
-5.937131e+00
-6.416937e+00
-6.769642e+00
-6.859671e+00
-7.028232e+00
0.000000e+00
-1.965091e-01
-4.390872e-01
-7.467180e-01
-1.086210e+00
-1.416907e+00
-1.762141e+00
-2.105581e+00
-2.444760e+00
-2.782669e+00
-3.109038e+00
-3.415302e+00
-3.684179e+00
-3.875772e+00
-3.934063e+00
-3.913385e+00
-4.065875e+00
0.000000e+00
-8.769240e-02
-1.876564e-01
-3.308464e-01
-4.831384e-01
-6.517001e-01
-8.237412e-01
-9.937749e-01
-1.161504e+00
-1.321107e+00
-1.464246e+00
-1.576180e+00
-1.635931e+00
-1.625610e+00
-1.561077e+00
-1.557020e+00
-1.686270e+00
0.000000e+00
-1.703657e-03
-3.452003e-03
-4.920252e-03
-5.696259e-03
-4.969665e-03
-1.605220e-03
6.180413e-03
2.112566e-02
4.649019e-02
8.751007e-02
1.524445e-01
2.473282e-01
3.654948e-01
4.655923e-01
4.775157e-01
3.738570e-01
0.000000e+00
8.478354e-02
1.819391e-01
3.223197e-01
4.729344e-01
6.421710e-01
8.190454e-01
1.001657e+00
1.193962e+00
1.396029e+00
1.609092e+00
1.828629e+00
2.042309e+00
2.228605e+00
2.351484e+00
2.375641e+00
2.314526e+00
0.000000e+00
1.952278e-01
4.364639e-01
7.424968e-01
1.080591e+00
1.410571e+00
1.756757e+00
2.105392e+00
2.454483e+00
2.809853e+00
3.169310e+00
3.523160e+00
3.842258e+00
4.093838e+00
4.252608e+00
4.306791e+00
4.291405e+00
0.000000e+00
4.510845e-01
9.325819e-01
1.435671e+00
1.951834e+00
2.441435e+00
2.945253e+00
3.445307e+00
3.933146e+00
4.416828e+00
4.897704e+00
5.366910e+00
5.781749e+00
6.094514e+00
6.287948e+00
6.371887e+00
6.387316e+00
0.000000e+00
9.298608e-01
1.618726e+00
2.328073e+00
3.015273e+00
3.673043e+00
4.348211e+00
5.010604e+00
5.656459e+00
6.291798e+00
6.917770e+00
7.517898e+00
8.026455e+00
8.375933e+00
8.551908e+00
8.596587e+00
8.595861e+00
0.000000e+00
-5.774545e-01
-1.242181e+00
-2.127325e+00
-3.181240e+00
-4.402994e+00
-5.804931e+00
-7.375717e+00
-9.119188e+00
-1.103792e+01
-1.312846e+01
-1.540011e+01
-1.786663e+01
-2.053446e+01
-2.343808e+01
-2.677975e+01
-3.172331e+01
0.000000e+00
-3.774646e-01
-1.074334e+00
-1.945748e+00
-3.007621e+00
-4.228428e+00
-5.628631e+00
-7.202536e+00
-8.946151e+00
-1.086583e+01
-1.295783e+01
-1.522606e+01
-1.768904e+01
-2.037040e+01
-2.331698e+01
-2.668288e+01
-3.073650e+01
0.000000e+00
-3.355377e-01
-9.703563e-01
-1.833913e+00
-2.886048e+00
-4.105029e+00
-5.504970e+00
-7.079391e+00
-8.825689e+00
-1.074991e+01
-1.284949e+01
-1.512911e+01
-1.760824e+01
-2.032100e+01
-2.330934e+01
-2.651227e+01
-2.951061e+01
0.000000e+00
-3.644404e-01
-9.500836e-01
-1.789287e+00
-2.819616e+00
-4.036135e+00
-5.435485e+00
-7.010827e+00
-8.762920e+00
-1.069542e+01
-1.281012e+01
-1.511232e+01
-1.761231e+01
-2.032835e+01
-2.325564e+01
-2.618786e+01
-2.873897e+01
0.000000e+00
-3.741968e-01
-9.566761e-01
-1.776998e+00
-2.803714e+00
-4.018062e+00
-5.419386e+00
-6.999253e+00
-8.758075e+00
-1.069939e+01
-1.282838e+01
-1.514860e+01
-1.765414e+01
-2.033249e+01
-2.312343e+01
-2.583333e+01
-2.813972e+01
0.000000e+00
-3.642302e-01
-9.508700e-01
-1.792037e+00
-2.825864e+00
-4.047745e+00
-5.454205e+00
-7.040330e+00
-8.805804e+00
-1.075178e+01
-1.288572e+01
-1.521004e+01
-1.770449e+01
-2.032592e+01
-2.298894e+01
-2.553341e+01
-2.773176e+01
0.000000e+00
-3.353646e-01
-9.717553e-01
-1.838406e+00
-2.896220e+00
-4.123986e+00
-5.535885e+00
-7.128140e+00
-8.896557e+00
-1.084352e+01
-1.297408e+01
-1.529122e+01
-1.776604e+01
-2.033401e+01
-2.290177e+01
-2.534494e+01
-2.753690e+01
0.000000e+00
-3.773812e-01
-1.075819e+00
-1.950639e+00
-3.018747e+00
-4.249250e+00
-5.663314e+00
-7.256876e+00
-9.024752e+00
-1.097079e+01
-1.309685e+01
-1.540242e+01
-1.785347e+01
-2.037676e+01
-2.287914e+01
-2.526409e+01
-2.748970e+01
0.000000e+00
-5.776457e-01
-1.243857e+00
-2.132488e+00
-3.192627e+00
-4.423734e+00
-5.839527e+00
-7.429221e+00
-9.194140e+00
-1.113784e+01
-1.326039e+01
-1.555224e+01
-1.797097e+01
-2.044742e+01
-2.289959e+01
-2.524917e+01
-2.749031e+01


0.000000e+00
1.422498e-05
2.452430e-05
3.637626e-05
5.114817e-05
6.442222e-05
7.773737e-05
9.172477e-05
1.051028e-04
1.182008e-04
1.315659e-04
1.452420e-04
1.567742e-04
1.640816e-04
1.684386e-04
1.720914e-04
1.766620e-04
0.000000e+00
1.047877e-05
1.959130e-05
2.826775e-05
4.026984e-05
5.068815e-05
6.026285e-05
7.090973e-05
8.100159e-05
9.027631e-05
9.982111e-05
1.092063e-04
1.158927e-04
1.178274e-04
1.175814e-04
1.206107e-04
1.255424e-04
0.000000e+00
8.480618e-06
1.487290e-05
2.068934e-05
2.905732e-05
3.595230e-05
4.215357e-05
4.909734e-05
5.539793e-05
6.089424e-05
6.607612e-05
7.044576e-05
7.269992e-05
7.224853e-05
7.186985e-05
7.456042e-05
7.925803e-05
0.000000e+00
4.481438e-06
7.055043e-06
1.069110e-05
1.448784e-05
1.755686e-05
2.089396e-05
2.400296e-05
2.667015e-05
2.893569e-05
3.029510e-05
3.064725e-05
3.008033e-05
2.970265e-05
3.056471e-05
3.366715e-05
3.832176e-05
0.000000e+00
-4.496664e-08
-1.055088e-07
-1.806233e-07
-2.722301e-07
-3.852632e-07
-5.201276e-07
-6.963889e-07
-9.802416e-07
-1.467692e-06
-2.413465e-06
-3.812311e-06
-5.510671e-06
-6.536075e-06
-5.717639e-06
-3.625152e-06
-7.877812e-07
0.000000e+00
-4.556442e-06
-7.226281e-06
-1.098941e-05
-1.495914e-05
-1.820655e-05
-2.173726e-05
-2.513286e-05
-2.803695e-05
-3.067633e-05
-3.291227e-05
-3.471603e-05
-3.651922e-05
-3.805364e-05
-3.911232e-05
-3.944115e-05
-3.878324e-05
0.000000e+00
-8.501625e-06
-1.493178e-05
-2.084645e-05
-2.933435e-05
-3.631940e-05
-4.271282e-05
-4.978482e-05
-5.590039e-05
-6.134420e-05
-6.624526e-05
-6.926494e-05
-7.098064e-05
-7.264455e-05
-7.420854e-05
-7.538565e-05
-7.571471e-05
0.000000e+00
-1.046360e-05
-1.956348e-05
-2.826519e-05
-4.029934e-05
-5.068419e-05
-6.036192e-05
-7.108437e-05
-8.085940e-05
-9.031279e-05
-9.980542e-05
-1.067035e-04
-1.100995e-04
-1.120728e-04
-1.132327e-04
-1.137750e-04
-1.139637e-04
0.000000e+00
-1.422517e-05
-2.448041e-05
-3.626442e-05
-5.095945e-05
-6.406926e-05
-7.723422e-05
-9.115088e-05
-1.041896e-04
-1.174391e-04
-1.314743e-04
-1.429039e-04
-1.500222e-04
-1.532021e-04
-1.538583e-04
-1.535957e-04
-1.534249e-04
0.000000e+00
1.192428e-05
1.952447e-05
3.093061e-05
4.575829e-05
6.206312e-05
8.258876e-05
1.072327e-04
1.347688e-04
1.660489e-04
2.015147e-04
2.405319e-04
2.819063e-04
3.264285e-04
3.784934e-04
4.377532e-04
4.977496e-04
0.000000e+00
6.896444e-06
1.528428e-05
2.507267e-05
3.942753e-05
5.635957e-05
7.666387e-05
1.011889e-04
1.290808e-04
1.604629e-04
1.958288e-04
2.353250e-04
2.785672e-04
3.249083e-04
3.752501e-04
4.318623e-04
4.897929e-04
0.000000e+00
3.501927e-06
1.125909e-05
2.055423e-05
3.429399e-05
5.180229e-05
7.232408e-05
9.672423e-05
1.250293e-04
1.567357e-04
1.921932e-04
2.321664e-04
2.766688e-04
3.244025e-04
3.714856e-04
4.241919e-04
4.798365e-04
0.000000e+00
2.245192e-06
9.131183e-06
1.861754e-05
3.223756e-05
4.983014e-05
7.058100e-05
9.511445e-05
1.235633e-04
1.556046e-04
1.913354e-04
2.310063e-04
2.758978e-04
3.236885e-04
3.686459e-04
4.161807e-04
4.673909e-04
0.000000e+00
1.872955e-06
8.508521e-06
1.805589e-05
3.173367e-05
4.921555e-05
7.004538e-05
9.469795e-05
1.231834e-04
1.554298e-04
1.914142e-04
2.308945e-04
2.756320e-04
3.238438e-04
3.677737e-04
4.107002e-04
4.562199e-04
0.000000e+00
2.287086e-06
9.181812e-06
1.866362e-05
3.227398e-05
4.980029e-05
7.047946e-05
9.502860e-05
1.234276e-04
1.556141e-04
1.919882e-04
2.319897e-04
2.767477e-04
3.241546e-04
3.684132e-04
4.093506e-04
4.498773e-04
0.000000e+00
3.565034e-06
1.133938e-05
2.063934e-05
3.436712e-05
5.174405e-05
7.216019e-05
9.654433e-05
1.246473e-04
1.566690e-04
1.934265e-04
2.342549e-04
2.786686e-04
3.246722e-04
3.683187e-04
4.089193e-04
4.479566e-04
0.000000e+00
6.958007e-06
1.538646e-05
2.519454e-05
3.952322e-05
5.633950e-05
7.652469e-05
1.009218e-04
1.285910e-04
1.603332e-04
1.969629e-04
2.373295e-04
2.803846e-04
3.250350e-04
3.679905e-04
4.086916e-04
4.479871e-04
0.000000e+00
1.198214e-05
1.962969e-05
3.107137e-05
4.586260e-05
6.206218e-05
8.251602e-05
1.069477e-04
1.342572e-04
1.660912e-04
2.023417e-04
2.408632e-04
2.820953e-04
3.253725e-04
3.679070e-04
4.085647e-04
4.481458e-04


3.287065e+00
3.178251e+00
3.230813e+00
3.085787e+00
3.032096e+00
3.264737e+00
3.456886e+00
3.755862e+00
4.188868e+00
4.697411e+00
5.503510e+00
6.575143e+00
7.424887e+00
7.500487e+00
6.505446e+00
5.441940e+00
5.219469e+00
5.108767e+00
5.065965e+00
4.944275e+00
4.861527e+00
5.003477e+00
5.120895e+00
5.301787e+00
5.580630e+00
5.904534e+00
6.407176e+00
7.076221e+00
7.579722e+00
7.334625e+00
6.034102e+00
4.653398e+00
7.274393e+00
7.210000e+00
7.173160e+00
7.064390e+00
7.016563e+00
7.062172e+00
7.081556e+00
7.129234e+00
7.211787e+00
7.286616e+00
7.390773e+00
7.539335e+00
7.618187e+00
7.205680e+00
5.967210e+00
4.793011e+00
8.151062e+00
8.125806e+00
8.105687e+00
8.047810e+00
8.026531e+00
8.023002e+00
8.000037e+00
7.973090e+00
7.931455e+00
7.839856e+00
7.673311e+00
7.472258e+00
7.341296e+00
7.121872e+00
6.571710e+00
6.047077e+00
8.149986e+00
8.123505e+00
8.101369e+00
8.040636e+00
8.015716e+00
8.006192e+00
7.974496e+00
7.929156e+00
7.849580e+00
7.706939e+00
7.474129e+00
7.203689e+00
7.103402e+00
7.192997e+00
7.267934e+00
7.251293e+00
7.269782e+00
7.201311e+00
7.156117e+00
7.037249e+00
6.975294e+00
7.001943e+00
6.998896e+00
6.994425e+00
6.994642e+00
7.022561e+00
7.076657e+00
7.114898e+00
7.245022e+00
7.527403e+00
7.808042e+00
7.953187e+00
5.212525e+00
5.095702e+00
5.042437e+00
4.908540e+00
4.807158e+00
4.929763e+00
5.033376e+00
5.166909e+00
5.424471e+00
5.887823e+00
6.543024e+00
7.144003e+00
7.574442e+00
7.913275e+00
8.154107e+00
8.266912e+00
3.281028e+00
3.168275e+00
3.213529e+00
3.063038e+00
2.998552e+00
3.223294e+00
3.429425e+00
3.724881e+00
4.226150e+00
5.067450e+00
6.196391e+00
7.180168e+00
7.786781e+00
8.123848e+00
8.302412e+00
8.376610e+00


-6.713176e-01
-2.141123e-01
-2.858574e-01
-2.678553e-01
-1.602371e-01
-2.337881e-01
-2.031768e-01
-1.777561e-01
-2.001249e-01
-1.820391e-01
-2.130372e-01
-3.161795e-01
-3.236747e-01
-7.620192e-02
4.444019e-01
-7.713209e-01
5.719998e-01
4.269987e-01
3.168012e-01
2.483986e-01
2.969195e-01
2.380676e-01
2.341534e-01
2.380057e-01
2.181324e-01
2.346408e-01
2.648177e-01
3.216313e-01
4.822410e-01
7.391886e-01
7.316068e-01
-1.159822e+00
7.961309e-01
6.160240e-01
4.164978e-01
3.578234e-01
3.451490e-01
3.059003e-01
3.058635e-01
3.092242e-01
3.116785e-01
3.400501e-01
3.887709e-01
4.498195e-01
4.783705e-01
3.523491e-01
1.156016e-01
-2.843814e-01
8.285116e-01
6.792913e-01
4.719536e-01
3.727663e-01
3.162121e-01
2.903572e-01
2.909618e-01
2.985474e-01
3.077828e-01
3.126352e-01
2.991254e-01
2.433708e-01
9.200386e-02
-1.564305e-01
-1.642037e-01
-3.315802e-04
8.297760e-01
6.808356e-01
4.737936e-01
3.722708e-01
3.108927e-01
2.767421e-01
2.623435e-01
2.490638e-01
2.311088e-01
1.906951e-01
1.157494e-01
1.091108e-02
-1.189940e-01
-1.852588e-01
4.486034e-03
4.030761e-01
7.990301e-01
6.198413e-01
4.214869e-01
3.593016e-01
3.379219e-01
2.832236e-01
2.522995e-01
2.122369e-01
1.517871e-01
6.880117e-02
-2.924341e-02
-8.486109e-02
-5.796260e-02
9.724686e-02
4.132105e-01
7.864952e-01
5.738374e-01
4.290673e-01
3.194421e-01
2.490690e-01
2.946819e-01
2.291116e-01
2.049766e-01
1.887875e-01
1.335210e-01
5.741752e-02
-1.283413e-02
3.170037e-02
2.175175e-01
4.839701e-01
7.688887e-01
9.609254e-01
-6.737988e-01
-2.165761e-01
-2.874837e-01
-2.705236e-01
-1.593453e-01
-2.242487e-01
-1.949106e-01
-1.433642e-01
-1.239681e-01
-1.149175e-01
-6.336985e-02
1.737034e-01
5.338147e-01
8.188681e-01
9.629386e-01
9.991923e-01
1 2 19 18
2 3 20 19
3 4 21 20
4 5 22 21
5 6 23 22
6 7 24 23
7 8 25 24
8 9 26 25
9 10 27 26
10 11 28 27
11 12 29 28
12 13 30 29
13 14 31 30
14 15 32 31
15 16 33 32
16 17 34 33
18 19 36 35
19 20 37 36
20 21 38 37
21 22 39 38
22 23 40 39
23 24 41 40
24 25 42 41
25 26 43 42
26 27 44 43
27 28 45 44
28 29 46 45
29 30 47 46
30 31 48 47
31 32 49 48
32 33 50 49
33 34 51 50
35 36 53 52
36 37 54 53
37 38 55 54
38 39 56 55
39 40 57 56
40 41 58 57
41 42 59 58
42 43 60 59
43 44 61 60
44 45 62 61
45 46 63 62
46 47 64 63
47 48 65 64
48 49 66 65
49 50 67 66
50 51 68 67
52 53 70 69
53 54 71 70
54 55 72 71
55 56 73 72
56 57 74 73
57 58 75 74
58 59 76 75
59 60 77 76
60 61 78 77
61 62 79 78
62 63 80 79
63 64 81 80
64 65 82 81
65 66 83 82
66 67 84 83
67 68 85 84
69 70 87 86
70 71 88 87
71 72 89 88
72 73 90 89
73 74 91 90
74 75 92 91
75 76 93 92
76 77 94 93
77 78 95 94
78 79 96 95
79 80 97 96
80 81 98 97
81 82 99 98
82 83 100 99
83 84 101 100
84 85 102 101
86 87 104 103
87 88 105 104
88 89 106 105
89 90 107 106
90 91 108 107
91 92 109 108
92 93 110 109
93 94 111 110
94 95 112 111
95 96 113 112
96 97 114 113
97 98 115 114
98 99 116 115
99 100 117 116
100 101 118 117
101 102 119 118
103 104 121 120
104 105 122 121
105 106 123 122
106 107 124 123
107 108 125 124
108 109 126 125
109 110 127 126
110 111 128 127
111 112 129 128
112 113 130 129
113 114 131 130
114 115 132 131
115 116 133 132
116 117 134 133
117 118 135 134
118 119 136 135
120 121 138 137
121 122 139 138
122 123 140 139
123 124 141 140
124 125 142 141
125 126 143 142
126 127 144 143
127 128 145 144
128 129 146 145
129 130 147 146
130 131 148 147
131 132 149 148
132 133 150 149
133 134 151 150
134 135 152 151
135 136 153 152
