TITLE = "Solution"
VARIABLES = x, y, u, v, psiu, psiv, t, stress
ZONE T="structure" N=153 E=128 F=FEBLOCK ET=QUADRILATERAL VARLOCATION=([7,8]=cellcentered)
0.000000e+00
1.250000e+01
2.500000e+01
3.750000e+01
5.000000e+01
6.250000e+01
7.500000e+01
8.750000e+01
1.000000e+02
1.125000e+02
1.250000e+02
1.375000e+02
1.500000e+02
1.625000e+02
1.750000e+02
1.875000e+02
2.000000e+02
0.000000e+00
1.250000e+01
2.500000e+01
3.750000e+01
5.000000e+01
6.250000e+01
7.500000e+01
8.750000e+01
1.000000e+02
1.125000e+02
1.250000e+02
1.375000e+02
1.500000e+02
1.625000e+02
1.750000e+02
1.875000e+02
2.000000e+02
0.000000e+00
1.250000e+01
2.500000e+01
3.750000e+01
5.000000e+01
6.250000e+01
7.500000e+01
8.750000e+01
1.000000e+02
1.125000e+02
1.250000e+02
1.375000e+02
1.500000e+02
1.625000e+02
1.750000e+02
1.875000e+02
2.000000e+02
0.000000e+00
1.250000e+01
2.500000e+01
3.750000e+01
5.000000e+01
6.250000e+01
7.500000e+01
8.750000e+01
1.000000e+02
1.125000e+02
1.250000e+02
1.375000e+02
1.500000e+02
1.625000e+02
1.750000e+02
1.875000e+02
2.000000e+02
0.000000e+00
1.250000e+01
2.500000e+01
3.750000e+01
5.000000e+01
6.250000e+01
7.500000e+01
8.750000e+01
1.000000e+02
1.125000e+02
1.250000e+02
1.375000e+02
1.500000e+02
1.625000e+02
1.750000e+02
1.875000e+02
2.000000e+02
0.000000e+00
1.250000e+01
2.500000e+01
3.750000e+01
5.000000e+01
6.250000e+01
7.500000e+01
8.750000e+01
1.000000e+02
1.125000e+02
1.250000e+02
1.375000e+02
1.500000e+02
1.625000e+02
1.750000e+02
1.875000e+02
2.000000e+02
0.000000e+00
1.250000e+01
2.500000e+01
3.750000e+01
5.000000e+01
6.250000e+01
7.500000e+01
8.750000e+01
1.000000e+02
1.125000e+02
1.250000e+02
1.375000e+02
1.500000e+02
1.625000e+02
1.750000e+02
1.875000e+02
2.000000e+02
0.000000e+00
1.250000e+01
2.500000e+01
3.750000e+01
5.000000e+01
6.250000e+01
7.500000e+01
8.750000e+01
1.000000e+02
1.125000e+02
1.250000e+02
1.375000e+02
1.500000e+02
1.625000e+02
1.750000e+02
1.875000e+02
2.000000e+02
0.000000e+00
1.250000e+01
2.500000e+01
3.750000e+01
5.000000e+01
6.250000e+01
7.500000e+01
8.750000e+01
1.000000e+02
1.125000e+02
1.250000e+02
1.375000e+02
1.500000e+02
1.625000e+02
1.750000e+02
1.875000e+02
2.000000e+02
0.000000e+00
0.000000e+00
0.000000e+00
0.000000e+00
0.000000e+00
0.000000e+00
0.000000e+00
0.000000e+00
0.000000e+00
0.000000e+00
0.000000e+00
0.000000e+00
0.000000e+00
0.000000e+00
0.000000e+00
0.000000e+00
0.000000e+00
1.250000e+01
1.250000e+01
1.250000e+01
1.250000e+01
1.250000e+01
1.250000e+01
1.250000e+01
1.250000e+01
1.250000e+01
1.250000e+01
1.250000e+01
1.250000e+01
1.250000e+01
1.250000e+01
1.250000e+01
1.250000e+01
1.250000e+01
2.500000e+01
2.500000e+01
2.500000e+01
2.500000e+01
2.500000e+01
2.500000e+01
2.500000e+01
2.500000e+01
2.500000e+01
2.500000e+01
2.500000e+01
2.500000e+01
2.500000e+01
2.500000e+01
2.500000e+01
2.500000e+01
2.500000e+01
3.750000e+01
3.750000e+01
3.750000e+01
3.750000e+01
3.750000e+01
3.750000e+01
3.750000e+01
3.750000e+01
3.750000e+01
3.750000e+01
3.750000e+01
3.750000e+01
3.750000e+01
3.750000e+01
3.750000e+01
3.750000e+01
3.750000e+01
5.000000e+01
5.000000e+01
5.000000e+01
5.000000e+01
5.000000e+01
5.000000e+01
5.000000e+01
5.000000e+01
5.000000e+01
5.000000e+01
5.000000e+01
5.000000e+01
5.000000e+01
5.000000e+01
5.000000e+01
5.000000e+01
5.000000e+01
6.250000e+01
6.250000e+01
6.250000e+01
6.250000e+01
6.250000e+01
6.250000e+01
6.250000e+01
6.250000e+01
6.250000e+01
6.250000e+01
6.250000e+01
6.250000e+01
6.250000e+01
6.250000e+01
6.250000e+01
6.250000e+01
6.250000e+01
7.500000e+01
7.500000e+01
7.500000e+01
7.500000e+01
7.500000e+01
7.500000e+01
7.500000e+01
7.500000e+01
7.500000e+01
7.500000e+01
7.500000e+01
7.500000e+01
7.500000e+01
7.500000e+01
7.500000e+01
7.500000e+01
7.500000e+01
8.750000e+01
8.750000e+01
8.750000e+01
8.750000e+01
8.750000e+01
8.750000e+01
8.750000e+01
8.750000e+01
8.750000e+01
8.750000e+01
8.750000e+01
8.750000e+01
8.750000e+01
8.750000e+01
8.750000e+01
8.750000e+01
8.750000e+01
1.000000e+02
1.000000e+02
1.000000e+02
1.000000e+02
1.000000e+02
1.000000e+02
1.000000e+02
1.000000e+02
1.000000e+02
1.000000e+02
1.000000e+02
1.000000e+02
1.000000e+02
1.000000e+02
1.000000e+02
1.000000e+02
1.000000e+02
0.000000e+00
-8.014520e-01
-1.463197e+00
-2.099695e+00
-2.743503e+00
-3.378879e+00
-4.000786e+00
-4.605706e+00
-5.185418e+00
-5.730310e+00
-6.233813e+00
-6.695985e+00
-7.126689e+00
-7.549139e+00
-8.003854e+00
-8.538728e+00
-8.929489e+00
0.000000e+00
-4.548581e-01
-9.470692e-01
-1.426075e+00
-1.909362e+00
-2.385732e+00
-2.851396e+00
-3.304121e+00
-3.737918e+00
-4.144892e+00
-4.517980e+00
-4.852426e+00
-5.145057e+00
-5.388668e+00
-5.557988e+00
-5.595246e+00
-5.718981e+00
0.000000e+00
-2.673460e-01
-5.585140e-01
-8.738247e-01
-1.196482e+00
-1.515641e+00
-1.827636e+00
-2.129353e+00
-2.415668e+00
-2.679904e+00
-2.914586e+00
-3.111437e+00
-3.259895e+00
-3.344589e+00
-3.349532e+00
-3.319702e+00
-3.447430e+00
0.000000e+00
-1.232080e-01
-2.606463e-01
-4.139245e-01
-5.747783e-01
-7.350859e-01
-8.914750e-01
-1.040921e+00
-1.179529e+00
-1.302237e+00
-1.402749e+00
-1.473626e+00
-1.507057e+00
-1.499009e+00
-1.466254e+00
-1.473944e+00
-1.571485e+00
0.000000e+00
-2.744060e-04
-6.242337e-04
-9.833232e-04
-1.211801e-03
-1.008188e-03
1.742359e-04
3.359422e-03
1.026982e-02
2.350879e-02
4.649297e-02
8.268754e-02
1.331468e-01
1.905878e-01
2.309828e-01
2.220259e-01
1.559016e-01
0.000000e+00
1.227356e-01
2.596487e-01
4.123694e-01
5.727954e-01
7.331902e-01
8.911389e-01
1.045231e+00
1.194261e+00
1.337278e+00
1.473576e+00
1.601940e+00
1.718448e+00
1.813044e+00
1.869402e+00
1.874760e+00
1.840753e+00
0.000000e+00
2.670593e-01
5.580567e-01
8.733111e-01
1.195741e+00
1.514512e+00
1.826330e+00
2.128736e+00
2.417276e+00
2.686256e+00
2.929834e+00
3.142385e+00
3.317858e+00
3.448935e+00
3.528114e+00
3.554046e+00
3.546150e+00
0.000000e+00
4.548118e-01
9.473789e-01
1.426965e+00
1.910658e+00
2.386801e+00
2.851387e+00
3.301774e+00
3.730161e+00
4.125259e+00
4.475213e+00
4.769562e+00
5.000493e+00
5.164073e+00
5.262067e+00
5.303927e+00
5.311642e+00
0.000000e+00
8.015534e-01
1.464292e+00
2.102064e+00
2.747431e+00
3.384002e+00
4.006547e+00
4.610664e+00
5.184644e+00
5.711813e+00
6.174106e+00
6.554563e+00
6.839692e+00
7.023182e+00
7.112070e+00
7.133879e+00
7.133375e+00
0.000000e+00
-4.906214e-01
-9.952213e-01
-1.662669e+00
-2.489192e+00
-3.476575e+00
-4.624913e+00
-5.930355e+00
-7.385042e+00
-8.978467e+00
-1.069885e+01
-1.253571e+01
-1.448477e+01
-1.655792e+01
-1.881728e+01
-2.145944e+01
-2.540578e+01
0.000000e+00
-3.062931e-01
-8.315557e-01
-1.494756e+00
-2.321498e+00
-3.311806e+00
-4.464266e+00
-5.775426e+00
-7.238421e+00
-8.842761e+00
-1.057580e+01
-1.242571e+01
-1.438680e+01
-1.647107e+01
-1.873357e+01
-2.136122e+01
-2.465126e+01
0.000000e+00
-2.413779e-01
-7.204765e-01
-1.378361e+00
-2.203191e+00
-3.195177e+00
-4.351208e+00
-5.667722e+00
-7.138342e+00
-8.753033e+00
-1.049932e+01
-1.236544e+01
-1.434605e+01
-1.645128e+01
-1.871864e+01
-2.118946e+01
-2.355805e+01
0.000000e+00
-2.235380e-01
-6.703836e-01
-1.312609e+00
-2.134173e+00
-3.126700e+00
-4.285871e+00
-5.607544e+00
-7.085534e+00
-8.710335e+00
-1.046983e+01
-1.235183e+01
-1.434795e+01
-1.645626e+01
-1.866957e+01
-2.090536e+01
-2.292007e+01
0.000000e+00
-2.209103e-01
-6.569595e-01
-1.292663e+00
-2.112138e+00
-3.105421e+00
-4.266946e+00
-5.592630e+00
-7.076576e+00
-8.709588e+00
-1.047918e+01
-1.237081e+01
-1.436894e+01
-1.645382e+01
-1.858316e+01
-2.066188e+01
-2.252902e+01
0.000000e+00
-2.233118e-01
-6.702154e-01
-1.312934e+00
-2.135603e+00
-3.130080e+00
-4.292636e+00
-5.620015e+00
-7.106938e+00
-8.744196e+00
-1.051813e+01
-1.241062e+01
-1.439809e+01
-1.644700e+01
-1.850494e+01
-2.049275e+01
-2.230680e+01
0.000000e+00
-2.410061e-01
-7.202134e-01
-1.378902e+00
-2.205500e+00
-3.200723e+00
-4.362421e+00
-5.688564e+00
-7.174346e+00
-8.810295e+00
-1.058149e+01
-1.246671e+01
-1.443664e+01
-1.645109e+01
-1.845739e+01
-2.039543e+01
-2.220800e+01
0.000000e+00
-3.059022e-01
-8.313570e-01
-1.495470e+00
-2.324154e+00
-3.318126e+00
-4.477068e+00
-5.799244e+00
-7.279465e+00
-8.907735e+00
-1.066846e+01
-1.253912e+01
-1.448826e+01
-1.647386e+01
-1.844533e+01
-2.035498e+01
-2.218490e+01
0.000000e+00
-4.903588e-01
-9.952765e-01
-1.663695e+00
-2.492159e+00
-3.483143e+00
-4.637915e+00
-5.954029e+00
-7.424692e+00
-9.039110e+00
-1.078156e+01
-1.262973e+01
-1.455279e+01
-1.651030e+01
-1.845537e+01
-2.034755e+01
-2.218535e+01


0.000000e+00
8.112222e-06
1.627160e-05
2.383226e-05
3.114599e-05
3.792626e-05
4.382533e-05
4.866199e-05
5.239792e-05
5.511786e-05
5.699973e-05
5.826293e-05
5.912988e-05
5.981353e-05
6.050131e-05
6.148773e-05
6.279504e-05
0.000000e+00
5.928185e-06
1.307595e-05
1.885421e-05
2.435200e-05
2.944243e-05
3.381102e-05
3.730940e-05
3.993308e-05
4.176960e-05
4.297003e-05
4.369962e-05
4.408537e-05
4.421162e-05
4.435037e-05
4.514723e-05
4.649301e-05
0.000000e+00
4.423775e-06
9.109163e-06
1.302951e-05
1.673859e-05
2.006718e-05
2.288999e-05
2.513287e-05
2.679488e-05
2.792764e-05
2.862300e-05
2.898591e-05
2.911345e-05
2.912637e-05
2.926049e-05
2.990531e-05
3.098501e-05
0.000000e+00
2.217109e-06
4.265425e-06
6.371894e-06
8.262084e-06
9.906579e-06
1.129505e-05
1.240898e-05
1.323788e-05
1.379568e-05
1.412172e-05
1.427520e-05
1.433553e-05
1.440483e-05
1.457149e-05
1.494439e-05
1.555716e-05
0.000000e+00
-5.773699e-10
-3.412819e-09
-8.995285e-09
-1.258146e-08
-1.655177e-08
-2.574823e-08
-4.453967e-08
-7.530520e-08
-1.175545e-07
-1.657195e-07
-2.045513e-07
-2.067172e-07
-1.470758e-07
-4.190128e-08
1.072561e-07
3.801830e-07
0.000000e+00
-2.218243e-06
-4.271764e-06
-6.381223e-06
-8.278502e-06
-9.928929e-06
-1.133004e-05
-1.246974e-05
-1.333937e-05
-1.395451e-05
-1.435151e-05
-1.457594e-05
-1.467308e-05
-1.469069e-05
-1.468591e-05
-1.466651e-05
-1.456635e-05
0.000000e+00
-4.436132e-06
-9.116795e-06
-1.301554e-05
-1.672150e-05
-2.007110e-05
-2.290716e-05
-2.515026e-05
-2.680478e-05
-2.792862e-05
-2.862653e-05
-2.902151e-05
-2.922640e-05
-2.933143e-05
-2.939616e-05
-2.942825e-05
-2.940339e-05
0.000000e+00
-5.954963e-06
-1.309323e-05
-1.881750e-05
-2.429770e-05
-2.942358e-05
-3.381215e-05
-3.729192e-05
-3.986469e-05
-4.162726e-05
-4.275025e-05
-4.342634e-05
-4.381971e-05
-4.404712e-05
-4.417858e-05
-4.424259e-05
-4.425241e-05
0.000000e+00
-8.142948e-06
-1.629492e-05
-2.379234e-05
-3.108098e-05
-3.788259e-05
-4.378975e-05
-4.859670e-05
-5.226293e-05
-5.487962e-05
-5.663778e-05
-5.776279e-05
-5.845446e-05
-5.886036e-05
-5.907476e-05
-5.915702e-05
-5.917093e-05
0.000000e+00
7.182313e-06
1.244790e-05
1.857436e-05
2.646899e-05
3.588437e-05
4.663936e-05
5.856132e-05
7.143651e-05
8.505359e-05
9.923210e-05
1.138321e-04
1.287816e-04
1.442108e-04
1.608708e-04
1.793257e-04
1.982565e-04
0.000000e+00
3.674212e-06
9.028138e-06
1.526140e-05
2.328787e-05
3.302155e-05
4.424793e-05
5.669032e-05
7.006789e-05
8.411737e-05
9.863026e-05
1.134665e-04
1.285664e-04
1.439981e-04
1.600715e-04
1.776282e-04
1.960359e-04
0.000000e+00
1.597844e-06
6.345880e-06
1.283845e-05
2.100941e-05
3.099412e-05
4.255413e-05
5.536510e-05
6.909972e-05
8.346413e-05
9.823005e-05
1.132533e-04
1.284674e-04
1.438262e-04
1.592782e-04
1.758387e-04
1.934475e-04
0.000000e+00
9.139004e-07
5.158019e-06
1.166467e-05
1.998902e-05
3.010048e-05
4.178829e-05
5.474284e-05
6.862993e-05
8.314303e-05
9.803931e-05
1.131577e-04
1.283989e-04
1.436534e-04
1.588288e-04
1.746707e-04
1.913214e-04
0.000000e+00
7.831146e-07
4.842931e-06
1.128634e-05
1.968284e-05
2.983682e-05
4.156059e-05
5.455659e-05
6.849217e-05
8.305540e-05
9.799445e-05
1.131330e-04
1.283517e-04
1.435473e-04
1.586759e-04
1.741334e-04
1.899407e-04
0.000000e+00
9.169704e-07
5.170163e-06
1.167174e-05
1.998146e-05
3.008898e-05
4.178747e-05
5.475995e-05
6.866805e-05
8.320080e-05
9.810567e-05
1.132036e-04
1.283750e-04
1.435379e-04
1.586773e-04
1.739302e-04
1.892075e-04
0.000000e+00
1.602951e-06
6.365210e-06
1.284881e-05
2.099702e-05
3.097774e-05
4.255746e-05
5.540012e-05
6.917327e-05
8.357580e-05
9.836405e-05
1.133654e-04
1.284649e-04
1.435896e-04
1.587111e-04
1.738432e-04
1.888835e-04
0.000000e+00
3.681314e-06
9.040783e-06
1.526155e-05
2.327742e-05
3.301822e-05
4.426090e-05
5.673086e-05
7.014766e-05
8.423987e-05
9.878417e-05
1.136118e-04
1.285996e-04
1.436617e-04
1.587440e-04
1.738059e-04
1.887796e-04
0.000000e+00
7.195244e-06
1.244204e-05
1.855207e-05
2.646493e-05
3.590061e-05
4.665928e-05
5.859005e-05
7.148739e-05
8.513493e-05
9.934057e-05
1.139356e-04
1.287764e-04
1.437521e-04
1.587827e-04
1.738032e-04
1.887644e-04


2.131243e+00
2.103857e+00
2.234501e+00
2.455466e+00
2.651688e+00
2.866535e+00
3.103067e+00
3.333134e+00
3.532257e+00
3.687538e+00
3.796756e+00
3.863342e+00
3.880600e+00
3.805394e+00
3.645691e+00
3.522720e+00
2.554341e+00
2.525211e+00
2.613743e+00
2.779488e+00
2.928655e+00
3.094839e+00
3.279764e+00
3.460824e+00
3.618460e+00
3.741867e+00
3.828495e+00
3.880156e+00
3.888228e+00
3.808514e+00
3.652285e+00
3.533653e+00
3.213298e+00
3.187425e+00
3.225741e+00
3.304974e+00
3.378943e+00
3.466839e+00
3.566828e+00
3.666372e+00
3.754549e+00
3.824381e+00
3.873298e+00
3.901352e+00
3.900561e+00
3.835379e+00
3.712812e+00
3.622957e+00
3.649349e+00
3.631628e+00
3.636535e+00
3.656626e+00
3.682734e+00
3.717651e+00
3.758793e+00
3.801343e+00
3.840551e+00
3.872483e+00
3.895154e+00
3.908325e+00
3.907668e+00
3.873640e+00
3.808464e+00
3.760773e+00
3.649302e+00
3.631901e+00
3.636968e+00
3.656508e+00
3.681730e+00
3.715883e+00
3.756306e+00
3.797845e+00
3.835743e+00
3.866451e+00
3.888688e+00
3.903480e+00
3.910627e+00
3.903422e+00
3.882197e+00
3.865928e+00
3.212924e+00
3.188543e+00
3.227378e+00
3.305290e+00
3.376457e+00
3.462772e+00
3.562213e+00
3.660818e+00
3.747036e+00
3.814491e+00
3.862239e+00
3.893737e+00
3.913420e+00
3.922722e+00
3.923727e+00
3.922481e+00
2.553391e+00
2.525900e+00
2.615848e+00
2.779765e+00
2.926069e+00
3.091096e+00
3.278030e+00
3.461372e+00
3.619638e+00
3.741982e+00
3.827442e+00
3.882278e+00
3.915388e+00
3.934070e+00
3.943427e+00
3.947086e+00
2.129017e+00
2.103641e+00
2.234975e+00
2.455447e+00
2.649175e+00
2.864135e+00
3.104998e+00
3.340331e+00
3.542819e+00
3.698874e+00
3.807459e+00
3.876422e+00
3.917075e+00
3.939574e+00
3.950970e+00
3.955706e+00


-3.914661e-01
-1.715850e-01
-9.033581e-02
-1.137117e-01
-8.496949e-02
-3.968728e-02
1.565358e-02
9.517157e-02
2.013954e-01
3.230789e-01
4.427035e-01
5.438667e-01
6.170892e-01
6.617602e-01
7.069906e-01
-2.264129e-01
5.183282e-01
4.093089e-01
3.976707e-01
3.785849e-01
3.881807e-01
4.077918e-01
4.345650e-01
4.768038e-01
5.383260e-01
6.164734e-01
7.048877e-01
7.964977e-01
8.834967e-01
9.447301e-01
8.251847e-01
-8.231523e-01
8.340031e-01
7.563331e-01
6.989454e-01
6.748483e-01
6.698129e-01
6.715864e-01
6.787546e-01
6.943493e-01
7.209281e-01
7.582727e-01
8.017600e-01
8.398528e-01
8.487382e-01
7.790940e-01
5.370475e-01
1.060603e-01
9.473981e-01
8.876408e-01
8.385671e-01
8.121358e-01
8.001469e-01
7.926449e-01
7.861803e-01
7.806715e-01
7.770909e-01
7.750265e-01
7.701573e-01
7.524947e-01
7.081108e-01
6.350578e-01
5.818419e-01
5.738974e-01
9.476794e-01
8.880260e-01
8.389597e-01
8.121473e-01
7.990122e-01
7.889337e-01
7.775354e-01
7.634923e-01
7.466725e-01
7.267010e-01
7.025007e-01
6.741280e-01
6.492588e-01
6.534706e-01
7.168336e-01
8.232850e-01
8.346857e-01
7.570473e-01
6.995172e-01
6.749217e-01
6.680778e-01
6.650668e-01
6.624281e-01
6.608387e-01
6.604056e-01
6.602070e-01
6.604639e-01
6.665171e-01
6.922063e-01
7.534852e-01
8.476257e-01
9.448995e-01
5.190048e-01
4.092958e-01
3.970579e-01
3.781155e-01
3.878144e-01
4.058823e-01
4.281281e-01
4.629659e-01
5.135108e-01
5.757503e-01
6.431644e-01
7.122889e-01
7.855568e-01
8.659842e-01
9.422953e-01
9.903991e-01
-3.913218e-01
-1.742355e-01
-9.390456e-02
-1.175596e-01
-8.702627e-02
-3.947616e-02
1.989475e-02
1.114362e-01
2.433602e-01
4.067143e-01
5.816609e-01
7.441653e-01
8.723099e-01
9.535519e-01
9.909030e-01
9.998109e-01
1 2 19 18
2 3 20 19
3 4 21 20
4 5 22 21
5 6 23 22
6 7 24 23
7 8 25 24
8 9 26 25
9 10 27 26
10 11 28 27
11 12 29 28
12 13 30 29
13 14 31 30
14 15 32 31
15 16 33 32
16 17 34 33
18 19 36 35
19 20 37 36
20 21 38 37
21 22 39 38
22 23 40 39
23 24 41 40
24 25 42 41
25 26 43 42
26 27 44 43
27 28 45 44
28 29 46 45
29 30 47 46
30 31 48 47
31 32 49 48
32 33 50 49
33 34 51 50
35 36 53 52
36 37 54 53
37 38 55 54
38 39 56 55
39 40 57 56
40 41 58 57
41 42 59 58
42 43 60 59
43 44 61 60
44 45 62 61
45 46 63 62
46 47 64 63
47 48 65 64
48 49 66 65
49 50 67 66
50 51 68 67
52 53 70 69
53 54 71 70
54 55 72 71
55 56 73 72
56 57 74 73
57 58 75 74
58 59 76 75
59 60 77 76
60 61 78 77
61 62 79 78
62 63 80 79
63 64 81 80
64 65 82 81
65 66 83 82
66 67 84 83
67 68 85 84
69 70 87 86
70 71 88 87
71 72 89 88
72 73 90 89
73 74 91 90
74 75 92 91
75 76 93 92
76 77 94 93
77 78 95 94
78 79 96 95
79 80 97 96
80 81 98 97
81 82 99 98
82 83 100 99
83 84 101 100
84 85 102 101
86 87 104 103
87 88 105 104
88 89 106 105
89 90 107 106
90 91 108 107
91 92 109 108
92 93 110 109
93 94 111 110
94 95 112 111
95 96 113 112
96 97 114 113
97 98 115 114
98 99 116 115
99 100 117 116
100 101 118 117
101 102 119 118
103 104 121 120
104 105 122 121
105 106 123 122
106 107 124 123
107 108 125 124
108 109 126 125
109 110 127 126
110 111 128 127
111 112 129 128
112 113 130 129
113 114 131 130
114 115 132 131
115 116 133 132
116 117 134 133
117 118 135 134
118 119 136 135
120 121 138 137
121 122 139 138
122 123 140 139
123 124 141 140
124 125 142 141
125 126 143 142
126 127 144 143
127 128 145 144
128 129 146 145
129 130 147 146
130 131 148 147
131 132 149 148
132 133 150 149
133 134 151 150
134 135 152 151
135 136 153 152
