TITLE = "Solution"
VARIABLES = x, y, u, v, psiu, psiv, t, stress
ZONE T="structure" N=153 E=128 F=FEBLOCK ET=QUADRILATERAL VARLOCATION=([7,8]=cellcentered)
0.000000e+00
1.250000e+01
2.500000e+01
3.750000e+01
5.000000e+01
6.250000e+01
7.500000e+01
8.750000e+01
1.000000e+02
1.125000e+02
1.250000e+02
1.375000e+02
1.500000e+02
1.625000e+02
1.750000e+02
1.875000e+02
2.000000e+02
0.000000e+00
1.250000e+01
2.500000e+01
3.750000e+01
5.000000e+01
6.250000e+01
7.500000e+01
8.750000e+01
1.000000e+02
1.125000e+02
1.250000e+02
1.375000e+02
1.500000e+02
1.625000e+02
1.750000e+02
1.875000e+02
2.000000e+02
0.000000e+00
1.250000e+01
2.500000e+01
3.750000e+01
5.000000e+01
6.250000e+01
7.500000e+01
8.750000e+01
1.000000e+02
1.125000e+02
1.250000e+02
1.375000e+02
1.500000e+02
1.625000e+02
1.750000e+02
1.875000e+02
2.000000e+02
0.000000e+00
1.250000e+01
2.500000e+01
3.750000e+01
5.000000e+01
6.250000e+01
7.500000e+01
8.750000e+01
1.000000e+02
1.125000e+02
1.250000e+02
1.375000e+02
1.500000e+02
1.625000e+02
1.750000e+02
1.875000e+02
2.000000e+02
0.000000e+00
1.250000e+01
2.500000e+01
3.750000e+01
5.000000e+01
6.250000e+01
7.500000e+01
8.750000e+01
1.000000e+02
1.125000e+02
1.250000e+02
1.375000e+02
1.500000e+02
1.625000e+02
1.750000e+02
1.875000e+02
2.000000e+02
0.000000e+00
1.250000e+01
2.500000e+01
3.750000e+01
5.000000e+01
6.250000e+01
7.500000e+01
8.750000e+01
1.000000e+02
1.125000e+02
1.250000e+02
1.375000e+02
1.500000e+02
1.625000e+02
1.750000e+02
1.875000e+02
2.000000e+02
0.000000e+00
1.250000e+01
2.500000e+01
3.750000e+01
5.000000e+01
6.250000e+01
7.500000e+01
8.750000e+01
1.000000e+02
1.125000e+02
1.250000e+02
1.375000e+02
1.500000e+02
1.625000e+02
1.750000e+02
1.875000e+02
2.000000e+02
0.000000e+00
1.250000e+01
2.500000e+01
3.750000e+01
5.000000e+01
6.250000e+01
7.500000e+01
8.750000e+01
1.000000e+02
1.125000e+02
1.250000e+02
1.375000e+02
1.500000e+02
1.625000e+02
1.750000e+02
1.875000e+02
2.000000e+02
0.000000e+00
1.250000e+01
2.500000e+01
3.750000e+01
5.000000e+01
6.250000e+01
7.500000e+01
8.750000e+01
1.000000e+02
1.125000e+02
1.250000e+02
1.375000e+02
1.500000e+02
1.625000e+02
1.750000e+02
1.875000e+02
2.000000e+02
0.000000e+00
0.000000e+00
0.000000e+00
0.000000e+00
0.000000e+00
0.000000e+00
0.000000e+00
0.000000e+00
0.000000e+00
0.000000e+00
0.000000e+00
0.000000e+00
0.000000e+00
0.000000e+00
0.000000e+00
0.000000e+00
0.000000e+00
1.250000e+01
1.250000e+01
1.250000e+01
1.250000e+01
1.250000e+01
1.250000e+01
1.250000e+01
1.250000e+01
1.250000e+01
1.250000e+01
1.250000e+01
1.250000e+01
1.250000e+01
1.250000e+01
1.250000e+01
1.250000e+01
1.250000e+01
2.500000e+01
2.500000e+01
2.500000e+01
2.500000e+01
2.500000e+01
2.500000e+01
2.500000e+01
2.500000e+01
2.500000e+01
2.500000e+01
2.500000e+01
2.500000e+01
2.500000e+01
2.500000e+01
2.500000e+01
2.500000e+01
2.500000e+01
3.750000e+01
3.750000e+01
3.750000e+01
3.750000e+01
3.750000e+01
3.750000e+01
3.750000e+01
3.750000e+01
3.750000e+01
3.750000e+01
3.750000e+01
3.750000e+01
3.750000e+01
3.750000e+01
3.750000e+01
3.750000e+01
3.750000e+01
5.000000e+01
5.000000e+01
5.000000e+01
5.000000e+01
5.000000e+01
5.000000e+01
5.000000e+01
5.000000e+01
5.000000e+01
5.000000e+01
5.000000e+01
5.000000e+01
5.000000e+01
5.000000e+01
5.000000e+01
5.000000e+01
5.000000e+01
6.250000e+01
6.250000e+01
6.250000e+01
6.250000e+01
6.250000e+01
6.250000e+01
6.250000e+01
6.250000e+01
6.250000e+01
6.250000e+01
6.250000e+01
6.250000e+01
6.250000e+01
6.250000e+01
6.250000e+01
6.250000e+01
6.250000e+01
7.500000e+01
7.500000e+01
7.500000e+01
7.500000e+01
7.500000e+01
7.500000e+01
7.500000e+01
7.500000e+01
7.500000e+01
7.500000e+01
7.500000e+01
7.500000e+01
7.500000e+01
7.500000e+01
7.500000e+01
7.500000e+01
7.500000e+01
8.750000e+01
8.750000e+01
8.750000e+01
8.750000e+01
8.750000e+01
8.750000e+01
8.750000e+01
8.750000e+01
8.750000e+01
8.750000e+01
8.750000e+01
8.750000e+01
8.750000e+01
8.750000e+01
8.750000e+01
8.750000e+01
8.750000e+01
1.000000e+02
1.000000e+02
1.000000e+02
1.000000e+02
1.000000e+02
1.000000e+02
1.000000e+02
1.000000e+02
1.000000e+02
1.000000e+02
1.000000e+02
1.000000e+02
1.000000e+02
1.000000e+02
1.000000e+02
1.000000e+02
1.000000e+02
0.000000e+00
-8.782828e-01
-1.541613e+00
-2.088842e+00
-2.717499e+00
-3.395137e+00
-4.017807e+00
-4.598062e+00
-5.154142e+00
-5.677403e+00
-6.158468e+00
-6.597833e+00
-7.006280e+00
-7.407202e+00
-7.841261e+00
-8.356392e+00
-8.734816e+00
0.000000e+00
-5.040665e-01
-9.926654e-01
-1.425629e+00
-1.900149e+00
-2.411761e+00
-2.875348e+00
-3.307334e+00
-3.721748e+00
-4.111883e+00
-4.468221e+00
-4.786140e+00
-5.063462e+00
-5.294104e+00
-5.454897e+00
-5.490271e+00
-5.609518e+00
0.000000e+00
-2.810118e-01
-5.723356e-01
-8.873257e-01
-1.218576e+00
-1.548698e+00
-1.850750e+00
-2.137363e+00
-2.409947e+00
-2.661950e+00
-2.885226e+00
-3.071916e+00
-3.212318e+00
-3.292124e+00
-3.296284e+00
-3.267405e+00
-3.390180e+00
0.000000e+00
-1.262568e-01
-2.739364e-01
-4.361709e-01
-6.052122e-01
-7.596800e-01
-9.076679e-01
-1.048315e+00
-1.178907e+00
-1.294471e+00
-1.389042e+00
-1.455654e+00
-1.486943e+00
-1.479100e+00
-1.447977e+00
-1.455456e+00
-1.548703e+00
0.000000e+00
-2.933800e-03
-7.803030e-03
-1.292354e-02
-1.293278e-02
-1.052257e-02
-5.727613e-03
5.832122e-04
1.006877e-02
2.496181e-02
4.835899e-02
8.359052e-02
1.318003e-01
1.862484e-01
2.243403e-01
2.155978e-01
1.526946e-01
0.000000e+00
1.258221e-01
2.638074e-01
4.166496e-01
5.772108e-01
7.387291e-01
8.965862e-01
1.049338e+00
1.195559e+00
1.334463e+00
1.465610e+00
1.588197e+00
1.698868e+00
1.788408e+00
1.841603e+00
1.846529e+00
1.814259e+00
0.000000e+00
2.763862e-01
5.739293e-01
8.903565e-01
1.212066e+00
1.530417e+00
1.840867e+00
2.138643e+00
2.419351e+00
2.678352e+00
2.911123e+00
3.113197e+00
3.279483e+00
3.403462e+00
3.478271e+00
3.502734e+00
3.495228e+00
0.000000e+00
4.667482e-01
9.696004e-01
1.452916e+00
1.934035e+00
2.407691e+00
2.869692e+00
3.312691e+00
3.728287e+00
4.107412e+00
4.440824e+00
4.720079e+00
4.938685e+00
5.093382e+00
5.186030e+00
5.225607e+00
5.232895e+00
0.000000e+00
8.167618e-01
1.490075e+00
2.133978e+00
2.774053e+00
3.406007e+00
4.022632e+00
4.614719e+00
5.169915e+00
5.674753e+00
6.114711e+00
6.475544e+00
6.745548e+00
6.919245e+00
7.003440e+00
7.024150e+00
7.023698e+00
0.000000e+00
-5.170446e-01
-1.025371e+00
-1.690279e+00
-2.520437e+00
-3.506555e+00
-4.640255e+00
-5.932333e+00
-7.372724e+00
-8.946819e+00
-1.064168e+01
-1.244699e+01
-1.435860e+01
-1.638818e+01
-1.859607e+01
-2.117257e+01
-2.500963e+01
0.000000e+00
-3.226919e-01
-8.720357e-01
-1.536217e+00
-2.347443e+00
-3.336094e+00
-4.483741e+00
-5.784299e+00
-7.232232e+00
-8.816979e+00
-1.052452e+01
-1.234266e+01
-1.426582e+01
-1.630569e+01
-1.851574e+01
-2.107748e+01
-2.428058e+01
0.000000e+00
-2.550229e-01
-7.574385e-01
-1.416773e+00
-2.229053e+00
-3.219251e+00
-4.374011e+00
-5.681465e+00
-7.137053e+00
-8.731722e+00
-1.045204e+01
-1.228575e+01
-1.422750e+01
-1.628710e+01
-1.850127e+01
-2.091160e+01
-2.322548e+01
0.000000e+00
-2.340076e-01
-6.959448e-01
-1.340271e+00
-2.161365e+00
-3.153505e+00
-4.311103e+00
-5.624209e+00
-7.087614e+00
-8.692010e+00
-1.042473e+01
-1.227338e+01
-1.422973e+01
-1.629206e+01
-1.845425e+01
-2.063876e+01
-2.261319e+01
0.000000e+00
-2.276692e-01
-6.724921e-01
-1.314485e+00
-2.137969e+00
-3.133425e+00
-4.292766e+00
-5.610677e+00
-7.080490e+00
-8.692743e+00
-1.043474e+01
-1.229216e+01
-1.425013e+01
-1.628999e+01
-1.837207e+01
-2.040654e+01
-2.224063e+01
0.000000e+00
-2.283000e-01
-6.828390e-01
-1.332572e+00
-2.160002e+00
-3.156849e+00
-4.317798e+00
-5.638130e+00
-7.111252e+00
-8.727400e+00
-1.047307e+01
-1.233081e+01
-1.427827e+01
-1.628381e+01
-1.829800e+01
-2.024606e+01
-2.202982e+01
0.000000e+00
-2.471599e-01
-7.330458e-01
-1.398142e+00
-2.229168e+00
-3.226199e+00
-4.386291e+00
-5.705605e+00
-7.177502e+00
-8.791941e+00
-1.053441e+01
-1.238473e+01
-1.431521e+01
-1.628790e+01
-1.825309e+01
-2.015394e+01
-2.193620e+01
0.000000e+00
-3.140500e-01
-8.452482e-01
-1.514762e+00
-2.347400e+00
-3.342533e+00
-4.499433e+00
-5.813975e+00
-7.279560e+00
-8.885809e+00
-1.061767e+01
-1.245375e+01
-1.436428e+01
-1.630956e+01
-1.824174e+01
-2.011568e+01
-2.191427e+01
0.000000e+00
-5.015910e-01
-1.011341e+00
-1.683166e+00
-2.514141e+00
-3.506408e+00
-4.658182e+00
-5.964939e+00
-7.419560e+00
-9.011416e+00
-1.072525e+01
-1.253969e+01
-1.442541e+01
-1.634407e+01
-1.825127e+01
-2.010865e+01
-2.191467e+01


0.000000e+00
1.034565e-05
1.650464e-05
1.928125e-05
2.239424e-05
2.762595e-05
3.361319e-05
3.819220e-05
4.135642e-05
4.359279e-05
4.514425e-05
4.618559e-05
4.690056e-05
4.746454e-05
4.803326e-05
4.884489e-05
4.991634e-05
0.000000e+00
7.960415e-06
1.327805e-05
1.454968e-05
1.638530e-05
2.060228e-05
2.539577e-05
2.887158e-05
3.095688e-05
3.242363e-05
3.341839e-05
3.402978e-05
3.435465e-05
3.446634e-05
3.458949e-05
3.524530e-05
3.634567e-05
0.000000e+00
4.940061e-06
8.326322e-06
9.599728e-06
1.126835e-05
1.387585e-05
1.662964e-05
1.869556e-05
1.999891e-05
2.090723e-05
2.146967e-05
2.176804e-05
2.187638e-05
2.189198e-05
2.200756e-05
2.253598e-05
2.341580e-05
0.000000e+00
1.766632e-06
3.035010e-06
4.390727e-06
5.464362e-06
6.388428e-06
7.312473e-06
8.075560e-06
8.722890e-06
9.150331e-06
9.397455e-06
9.514454e-06
9.562143e-06
9.619681e-06
9.757600e-06
1.006418e-05
1.056616e-05
0.000000e+00
-4.314973e-07
-7.186346e-07
-9.322146e-07
-1.210868e-06
-1.597843e-06
-1.979875e-06
-2.226929e-06
-2.367635e-06
-2.449330e-06
-2.510632e-06
-2.551171e-06
-2.555065e-06
-2.506109e-06
-2.418381e-06
-2.292296e-06
-2.064735e-06
0.000000e+00
-2.296353e-06
-4.399592e-06
-6.459017e-06
-8.337982e-06
-1.002384e-05
-1.147908e-05
-1.262342e-05
-1.344589e-05
-1.399719e-05
-1.433832e-05
-1.452647e-05
-1.460663e-05
-1.462051e-05
-1.461489e-05
-1.459576e-05
-1.451021e-05
0.000000e+00
-4.104084e-06
-8.574451e-06
-1.241384e-05
-1.591595e-05
-1.889447e-05
-2.134746e-05
-2.329325e-05
-2.470826e-05
-2.565027e-05
-2.622867e-05
-2.655529e-05
-2.672543e-05
-2.681284e-05
-2.686601e-05
-2.689135e-05
-2.686949e-05
0.000000e+00
-5.246007e-06
-1.195198e-05
-1.761419e-05
-2.274772e-05
-2.710081e-05
-3.065677e-05
-3.350582e-05
-3.561843e-05
-3.705867e-05
-3.798032e-05
-3.854212e-05
-3.887315e-05
-3.906589e-05
-3.917723e-05
-3.923118e-05
-3.923932e-05
0.000000e+00
-7.166940e-06
-1.466725e-05
-2.179973e-05
-2.844103e-05
-3.418919e-05
-3.900411e-05
-4.292546e-05
-4.592707e-05
-4.807588e-05
-4.953089e-05
-5.047199e-05
-5.105645e-05
-5.140193e-05
-5.158516e-05
-5.165566e-05
-5.166765e-05
0.000000e+00
7.494579e-06
1.052990e-05
1.468558e-05
2.167023e-05
3.068170e-05
4.012019e-05
4.985803e-05
6.046258e-05
7.190211e-05
8.379548e-05
9.600048e-05
1.084782e-04
1.213458e-04
1.352162e-04
1.505443e-04
1.662636e-04
0.000000e+00
3.977222e-06
8.988138e-06
1.376558e-05
1.998456e-05
2.807014e-05
3.767161e-05
4.819292e-05
5.936977e-05
7.115172e-05
8.330107e-05
9.569834e-05
1.082984e-04
1.211652e-04
1.345589e-04
1.491568e-04
1.644472e-04
0.000000e+00
1.974780e-06
7.318377e-06
1.284493e-05
1.872397e-05
2.636740e-05
3.602906e-05
4.701142e-05
5.862275e-05
7.064023e-05
8.298150e-05
9.552483e-05
1.082150e-04
1.210197e-04
1.339092e-04
1.476988e-04
1.623347e-04
0.000000e+00
1.346358e-06
6.008928e-06
1.172158e-05
1.806604e-05
2.590108e-05
3.555668e-05
4.654693e-05
5.826665e-05
7.041082e-05
8.284618e-05
9.545582e-05
1.081615e-04
1.208771e-04
1.335383e-04
1.467426e-04
1.605929e-04
0.000000e+00
1.190981e-06
5.248400e-06
1.094124e-05
1.782142e-05
2.602076e-05
3.568076e-05
4.655037e-05
5.822073e-05
7.038437e-05
8.283673e-05
9.544909e-05
1.081283e-04
1.207916e-04
1.334061e-04
1.462912e-04
1.594525e-04
0.000000e+00
1.209379e-06
5.185602e-06
1.095644e-05
1.805971e-05
2.647888e-05
3.614751e-05
4.690020e-05
5.846423e-05
7.055383e-05
8.295353e-05
9.551874e-05
1.081522e-04
1.207851e-04
1.334025e-04
1.461141e-04
1.588414e-04
0.000000e+00
1.757097e-06
6.085573e-06
1.186771e-05
1.896357e-05
2.738527e-05
3.696977e-05
4.756724e-05
5.896302e-05
7.090367e-05
8.318401e-05
9.565935e-05
1.082294e-04
1.208285e-04
1.334284e-04
1.460376e-04
1.585690e-04
0.000000e+00
3.612476e-06
8.564735e-06
1.413691e-05
2.103815e-05
2.917069e-05
3.844700e-05
4.873059e-05
5.980732e-05
7.146995e-05
8.353892e-05
9.586721e-05
1.083433e-04
1.208892e-04
1.334554e-04
1.460054e-04
1.584808e-04
0.000000e+00
6.815320e-06
1.186854e-05
1.734190e-05
2.393389e-05
3.161054e-05
4.043367e-05
5.027491e-05
6.091755e-05
7.220961e-05
8.400095e-05
9.613869e-05
1.084930e-04
1.209661e-04
1.334883e-04
1.460030e-04
1.584677e-04


2.407498e+00
2.380303e+00
2.434005e+00
2.831210e+00
2.909155e+00
2.836588e+00
2.949019e+00
3.180261e+00
3.380897e+00
3.517118e+00
3.606400e+00
3.660842e+00
3.676309e+00
3.619853e+00
3.498405e+00
3.405010e+00
2.714553e+00
2.700074e+00
2.921313e+00
3.100148e+00
3.116930e+00
3.015815e+00
3.109227e+00
3.293877e+00
3.452934e+00
3.560636e+00
3.631351e+00
3.673852e+00
3.682025e+00
3.622042e+00
3.503297e+00
3.413320e+00
3.143409e+00
3.246735e+00
3.363931e+00
3.468926e+00
3.373014e+00
3.321123e+00
3.375506e+00
3.478583e+00
3.566409e+00
3.626797e+00
3.666960e+00
3.690492e+00
3.691304e+00
3.642174e+00
3.549088e+00
3.481027e+00
3.490095e+00
3.513033e+00
3.571772e+00
3.577430e+00
3.548625e+00
3.536495e+00
3.560607e+00
3.601371e+00
3.638215e+00
3.665792e+00
3.684844e+00
3.696196e+00
3.696601e+00
3.671151e+00
3.621896e+00
3.586006e+00
3.461974e+00
3.454769e+00
3.468554e+00
3.496306e+00
3.517341e+00
3.541150e+00
3.571422e+00
3.605076e+00
3.636753e+00
3.662275e+00
3.680553e+00
3.692750e+00
3.698971e+00
3.694168e+00
3.678700e+00
3.666872e+00
3.085137e+00
3.045657e+00
3.079463e+00
3.165522e+00
3.258740e+00
3.342045e+00
3.425236e+00
3.502607e+00
3.570063e+00
3.623102e+00
3.660626e+00
3.685564e+00
3.701534e+00
3.709620e+00
3.711328e+00
3.711001e+00
2.532607e+00
2.498207e+00
2.563160e+00
2.731574e+00
2.890407e+00
3.055932e+00
3.211011e+00
3.353025e+00
3.473988e+00
3.568036e+00
3.634145e+00
3.677085e+00
3.703605e+00
3.719075e+00
3.727202e+00
3.730546e+00
2.196630e+00
2.166425e+00
2.283587e+00
2.473384e+00
2.676099e+00
2.882187e+00
3.082315e+00
3.263010e+00
3.416396e+00
3.535432e+00
3.619035e+00
3.672894e+00
3.705343e+00
3.723799e+00
3.733423e+00
3.737515e+00


-6.720907e-01
-1.638413e-01
1.526163e-01
-6.850544e-02
-2.378180e-01
-3.767911e-02
9.726333e-02
1.699546e-01
2.645052e-01
3.821669e-01
4.963552e-01
5.900501e-01
6.557341e-01
6.925480e-01
7.287082e-01
-1.479962e-01
4.415105e-01
4.188704e-01
4.583577e-01
3.726255e-01
3.152387e-01
4.237592e-01
4.849122e-01
5.221755e-01
5.762381e-01
6.504192e-01
7.334147e-01
8.173686e-01
8.957997e-01
9.502423e-01
8.382260e-01
-6.999482e-01
8.195846e-01
7.373493e-01
6.838375e-01
6.579704e-01
6.675078e-01
6.944678e-01
7.083799e-01
7.217683e-01
7.454844e-01
7.804900e-01
8.209698e-01
8.559101e-01
8.639567e-01
8.001479e-01
5.761410e-01
1.764390e-01
9.419334e-01
8.769971e-01
8.379087e-01
8.222278e-01
8.185703e-01
8.109791e-01
8.058021e-01
8.008293e-01
7.977040e-01
7.963741e-01
7.926992e-01
7.774238e-01
7.378876e-01
6.716984e-01
6.218366e-01
6.132021e-01
9.460674e-01
8.890841e-01
8.468610e-01
8.239662e-01
8.120149e-01
8.040961e-01
7.951009e-01
7.839247e-01
7.700090e-01
7.532025e-01
7.324865e-01
7.078078e-01
6.859619e-01
6.896410e-01
7.459051e-01
8.410778e-01
8.253376e-01
7.529092e-01
7.031398e-01
6.822492e-01
6.759506e-01
6.770923e-01
6.810477e-01
6.859006e-01
6.903463e-01
6.933332e-01
6.953966e-01
7.017104e-01
7.249831e-01
7.796979e-01
8.636928e-01
9.506217e-01
4.899304e-01
3.857160e-01
3.913798e-01
3.847822e-01
3.948026e-01
4.156197e-01
4.503763e-01
4.973826e-01
5.540937e-01
6.163737e-01
6.798139e-01
7.427745e-01
8.084893e-01
8.802782e-01
9.483932e-01
9.913944e-01
-4.542317e-01
-2.166506e-01
-1.128355e-01
-1.023872e-01
-7.296300e-02
-2.266277e-02
5.631644e-02
1.670845e-01
3.053500e-01
4.624771e-01
6.238159e-01
7.707860e-01
8.857436e-01
9.584325e-01
9.918471e-01
9.998294e-01
1 2 19 18
2 3 20 19
3 4 21 20
4 5 22 21
5 6 23 22
6 7 24 23
7 8 25 24
8 9 26 25
9 10 27 26
10 11 28 27
11 12 29 28
12 13 30 29
13 14 31 30
14 15 32 31
15 16 33 32
16 17 34 33
18 19 36 35
19 20 37 36
20 21 38 37
21 22 39 38
22 23 40 39
23 24 41 40
24 25 42 41
25 26 43 42
26 27 44 43
27 28 45 44
28 29 46 45
29 30 47 46
30 31 48 47
31 32 49 48
32 33 50 49
33 34 51 50
35 36 53 52
36 37 54 53
37 38 55 54
38 39 56 55
39 40 57 56
40 41 58 57
41 42 59 58
42 43 60 59
43 44 61 60
44 45 62 61
45 46 63 62
46 47 64 63
47 48 65 64
48 49 66 65
49 50 67 66
50 51 68 67
52 53 70 69
53 54 71 70
54 55 72 71
55 56 73 72
56 57 74 73
57 58 75 74
58 59 76 75
59 60 77 76
60 61 78 77
61 62 79 78
62 63 80 79
63 64 81 80
64 65 82 81
65 66 83 82
66 67 84 83
67 68 85 84
69 70 87 86
70 71 88 87
71 72 89 88
72 73 90 89
73 74 91 90
74 75 92 91
75 76 93 92
76 77 94 93
77 78 95 94
78 79 96 95
79 80 97 96
80 81 98 97
81 82 99 98
82 83 100 99
83 84 101 100
84 85 102 101
86 87 104 103
87 88 105 104
88 89 106 105
89 90 107 106
90 91 108 107
91 92 109 108
92 93 110 109
93 94 111 110
94 95 112 111
95 96 113 112
96 97 114 113
97 98 115 114
98 99 116 115
99 100 117 116
100 101 118 117
101 102 119 118
103 104 121 120
104 105 122 121
105 106 123 122
106 107 124 123
107 108 125 124
108 109 126 125
109 110 127 126
110 111 128 127
111 112 129 128
112 113 130 129
113 114 131 130
114 115 132 131
115 116 133 132
116 117 134 133
117 118 135 134
118 119 136 135
120 121 138 137
121 122 139 138
122 123 140 139
123 124 141 140
124 125 142 141
125 126 143 142
126 127 144 143
127 128 145 144
128 129 146 145
129 130 147 146
130 131 148 147
131 132 149 148
132 133 150 149
133 134 151 150
134 135 152 151
135 136 153 152
