TITLE = "Solution"
VARIABLES = x, y, u, v, psiu, psiv, t, stress
ZONE T="structure" N=153 E=128 F=FEBLOCK ET=QUADRILATERAL VARLOCATION=([7,8]=cellcentered)
0.000000e+00
1.250000e+01
2.500000e+01
3.750000e+01
5.000000e+01
6.250000e+01
7.500000e+01
8.750000e+01
1.000000e+02
1.125000e+02
1.250000e+02
1.375000e+02
1.500000e+02
1.625000e+02
1.750000e+02
1.875000e+02
2.000000e+02
0.000000e+00
1.250000e+01
2.500000e+01
3.750000e+01
5.000000e+01
6.250000e+01
7.500000e+01
8.750000e+01
1.000000e+02
1.125000e+02
1.250000e+02
1.375000e+02
1.500000e+02
1.625000e+02
1.750000e+02
1.875000e+02
2.000000e+02
0.000000e+00
1.250000e+01
2.500000e+01
3.750000e+01
5.000000e+01
6.250000e+01
7.500000e+01
8.750000e+01
1.000000e+02
1.125000e+02
1.250000e+02
1.375000e+02
1.500000e+02
1.625000e+02
1.750000e+02
1.875000e+02
2.000000e+02
0.000000e+00
1.250000e+01
2.500000e+01
3.750000e+01
5.000000e+01
6.250000e+01
7.500000e+01
8.750000e+01
1.000000e+02
1.125000e+02
1.250000e+02
1.375000e+02
1.500000e+02
1.625000e+02
1.750000e+02
1.875000e+02
2.000000e+02
0.000000e+00
1.250000e+01
2.500000e+01
3.750000e+01
5.000000e+01
6.250000e+01
7.500000e+01
8.750000e+01
1.000000e+02
1.125000e+02
1.250000e+02
1.375000e+02
1.500000e+02
1.625000e+02
1.750000e+02
1.875000e+02
2.000000e+02
0.000000e+00
1.250000e+01
2.500000e+01
3.750000e+01
5.000000e+01
6.250000e+01
7.500000e+01
8.750000e+01
1.000000e+02
1.125000e+02
1.250000e+02
1.375000e+02
1.500000e+02
1.625000e+02
1.750000e+02
1.875000e+02
2.000000e+02
0.000000e+00
1.250000e+01
2.500000e+01
3.750000e+01
5.000000e+01
6.250000e+01
7.500000e+01
8.750000e+01
1.000000e+02
1.125000e+02
1.250000e+02
1.375000e+02
1.500000e+02
1.625000e+02
1.750000e+02
1.875000e+02
2.000000e+02
0.000000e+00
1.250000e+01
2.500000e+01
3.750000e+01
5.000000e+01
6.250000e+01
7.500000e+01
8.750000e+01
1.000000e+02
1.125000e+02
1.250000e+02
1.375000e+02
1.500000e+02
1.625000e+02
1.750000e+02
1.875000e+02
2.000000e+02
0.000000e+00
1.250000e+01
2.500000e+01
3.750000e+01
5.000000e+01
6.250000e+01
7.500000e+01
8.750000e+01
1.000000e+02
1.125000e+02
1.250000e+02
1.375000e+02
1.500000e+02
1.625000e+02
1.750000e+02
1.875000e+02
2.000000e+02
0.000000e+00
0.000000e+00
0.000000e+00
0.000000e+00
0.000000e+00
0.000000e+00
0.000000e+00
0.000000e+00
0.000000e+00
0.000000e+00
0.000000e+00
0.000000e+00
0.000000e+00
0.000000e+00
0.000000e+00
0.000000e+00
0.000000e+00
1.250000e+01
1.250000e+01
1.250000e+01
1.250000e+01
1.250000e+01
1.250000e+01
1.250000e+01
1.250000e+01
1.250000e+01
1.250000e+01
1.250000e+01
1.250000e+01
1.250000e+01
1.250000e+01
1.250000e+01
1.250000e+01
1.250000e+01
2.500000e+01
2.500000e+01
2.500000e+01
2.500000e+01
2.500000e+01
2.500000e+01
2.500000e+01
2.500000e+01
2.500000e+01
2.500000e+01
2.500000e+01
2.500000e+01
2.500000e+01
2.500000e+01
2.500000e+01
2.500000e+01
2.500000e+01
3.750000e+01
3.750000e+01
3.750000e+01
3.750000e+01
3.750000e+01
3.750000e+01
3.750000e+01
3.750000e+01
3.750000e+01
3.750000e+01
3.750000e+01
3.750000e+01
3.750000e+01
3.750000e+01
3.750000e+01
3.750000e+01
3.750000e+01
5.000000e+01
5.000000e+01
5.000000e+01
5.000000e+01
5.000000e+01
5.000000e+01
5.000000e+01
5.000000e+01
5.000000e+01
5.000000e+01
5.000000e+01
5.000000e+01
5.000000e+01
5.000000e+01
5.000000e+01
5.000000e+01
5.000000e+01
6.250000e+01
6.250000e+01
6.250000e+01
6.250000e+01
6.250000e+01
6.250000e+01
6.250000e+01
6.250000e+01
6.250000e+01
6.250000e+01
6.250000e+01
6.250000e+01
6.250000e+01
6.250000e+01
6.250000e+01
6.250000e+01
6.250000e+01
7.500000e+01
7.500000e+01
7.500000e+01
7.500000e+01
7.500000e+01
7.500000e+01
7.500000e+01
7.500000e+01
7.500000e+01
7.500000e+01
7.500000e+01
7.500000e+01
7.500000e+01
7.500000e+01
7.500000e+01
7.500000e+01
7.500000e+01
8.750000e+01
8.750000e+01
8.750000e+01
8.750000e+01
8.750000e+01
8.750000e+01
8.750000e+01
8.750000e+01
8.750000e+01
8.750000e+01
8.750000e+01
8.750000e+01
8.750000e+01
8.750000e+01
8.750000e+01
8.750000e+01
8.750000e+01
1.000000e+02
1.000000e+02
1.000000e+02
1.000000e+02
1.000000e+02
1.000000e+02
1.000000e+02
1.000000e+02
1.000000e+02
1.000000e+02
1.000000e+02
1.000000e+02
1.000000e+02
1.000000e+02
1.000000e+02
1.000000e+02
1.000000e+02
0.000000e+00
-8.660562e-01
-1.549229e+00
-2.223373e+00
-2.907397e+00
-3.568911e+00
-4.229964e+00
-4.892933e+00
-5.549949e+00
-6.205466e+00
-6.862354e+00
-7.512841e+00
-8.147662e+00
-8.770130e+00
-9.392996e+00
-1.003127e+01
-1.046268e+01
0.000000e+00
-4.587316e-01
-9.522447e-01
-1.448884e+00
-1.960917e+00
-2.456285e+00
-2.950407e+00
-3.445987e+00
-3.936234e+00
-4.422899e+00
-4.905973e+00
-5.374868e+00
-5.811092e+00
-6.186994e+00
-6.442888e+00
-6.502143e+00
-6.651138e+00
0.000000e+00
-2.409150e-01
-5.140072e-01
-8.316307e-01
-1.168326e+00
-1.500878e+00
-1.835400e+00
-2.169624e+00
-2.498378e+00
-2.819127e+00
-3.125087e+00
-3.401259e+00
-3.624677e+00
-3.763834e+00
-3.786972e+00
-3.756626e+00
-3.908606e+00
0.000000e+00
-1.036875e-01
-2.243775e-01
-3.734920e-01
-5.356178e-01
-7.031997e-01
-8.725293e-01
-1.039641e+00
-1.200876e+00
-1.350963e+00
-1.480932e+00
-1.577605e+00
-1.625346e+00
-1.613204e+00
-1.562554e+00
-1.567296e+00
-1.693042e+00
0.000000e+00
-7.852805e-04
-1.573924e-03
-2.203581e-03
-2.387951e-03
-1.619260e-03
9.871370e-04
6.851456e-03
1.826388e-02
3.895626e-02
7.435304e-02
1.304869e-01
2.101908e-01
3.036938e-01
3.738824e-01
3.696292e-01
2.767020e-01
0.000000e+00
1.023419e-01
2.216612e-01
3.695735e-01
5.311357e-01
6.996435e-01
8.727964e-01
1.048944e+00
1.228239e+00
1.411390e+00
1.597789e+00
1.783969e+00
1.961123e+00
2.110607e+00
2.203578e+00
2.216896e+00
2.166744e+00
0.000000e+00
2.402068e-01
5.124980e-01
8.292152e-01
1.165079e+00
1.497327e+00
1.832436e+00
2.168961e+00
2.503863e+00
2.837039e+00
3.162735e+00
3.466605e+00
3.729762e+00
3.932520e+00
4.057504e+00
4.099457e+00
4.087917e+00
0.000000e+00
4.588007e-01
9.522909e-01
1.448683e+00
1.960198e+00
2.454814e+00
2.947107e+00
3.438865e+00
3.923782e+00
4.401827e+00
4.863156e+00
5.281045e+00
5.625123e+00
5.875384e+00
6.027233e+00
6.092405e+00
6.104519e+00
0.000000e+00
8.667069e-01
1.550746e+00
2.225819e+00
2.910734e+00
3.573022e+00
4.233567e+00
4.893278e+00
5.543970e+00
6.184592e+00
6.797223e+00
7.338906e+00
7.763052e+00
8.041853e+00
8.177688e+00
8.210506e+00
8.209413e+00
0.000000e+00
-5.349573e-01
-1.118063e+00
-1.892212e+00
-2.834680e+00
-3.943975e+00
-5.228734e+00
-6.687258e+00
-8.318084e+00
-1.012293e+01
-1.210063e+01
-1.424621e+01
-1.655657e+01
-1.903978e+01
-2.175427e+01
-2.491329e+01
-2.955928e+01
0.000000e+00
-3.409136e-01
-9.505310e-01
-1.715040e+00
-2.659220e+00
-3.771278e+00
-5.055658e+00
-6.515145e+00
-8.147753e+00
-9.953785e+00
-1.193420e+01
-1.408660e+01
-1.640847e+01
-1.891175e+01
-2.164892e+01
-2.480808e+01
-2.868237e+01
0.000000e+00
-2.848728e-01
-8.415234e-01
-1.598010e+00
-2.537094e+00
-3.648655e+00
-4.933820e+00
-6.395149e+00
-8.031157e+00
-9.842764e+00
-1.183234e+01
-1.399930e+01
-1.634346e+01
-1.887842e+01
-2.163552e+01
-2.462065e+01
-2.744589e+01
0.000000e+00
-2.866824e-01
-8.037095e-01
-1.539097e+00
-2.468336e+00
-3.577216e+00
-4.863771e+00
-6.328229e+00
-7.970233e+00
-9.791980e+00
-1.179612e+01
-1.398154e+01
-1.634488e+01
-1.888490e+01
-2.157823e+01
-2.428335e+01
-2.667001e+01
0.000000e+00
-2.921416e-01
-7.982540e-01
-1.523674e+00
-2.448021e+00
-3.556394e+00
-4.845265e+00
-6.313736e+00
-7.962437e+00
-9.794596e+00
-1.181235e+01
-1.401106e+01
-1.637707e+01
-1.888345e+01
-2.146040e+01
-2.395626e+01
-2.613028e+01
0.000000e+00
-2.865591e-01
-8.040667e-01
-1.540598e+00
-2.471882e+00
-3.584196e+00
-4.876064e+00
-6.348164e+00
-8.001411e+00
-9.839866e+00
-1.186528e+01
-1.406777e+01
-1.642050e+01
-1.887441e+01
-2.134566e+01
-2.370766e+01
-2.579854e+01
0.000000e+00
-2.846452e-01
-8.420518e-01
-1.600346e+00
-2.542733e+00
-3.659874e+00
-4.953762e+00
-6.427792e+00
-8.082610e+00
-9.922407e+00
-1.194837e+01
-1.414560e+01
-1.647659e+01
-1.888034e+01
-2.127305e+01
-2.355868e+01
-2.564768e+01
0.000000e+00
-3.406884e-01
-9.510897e-01
-1.717575e+00
-2.665467e+00
-3.783759e+00
-5.077870e+00
-6.551795e+00
-8.205980e+00
-1.004383e+01
-1.206414e+01
-1.424789e+01
-1.655274e+01
-1.891462e+01
-2.125404e+01
-2.349588e+01
-2.561286e+01
0.000000e+00
-5.349055e-01
-1.118772e+00
-1.894902e+00
-2.841127e+00
-3.956611e+00
-5.250765e+00
-6.723415e+00
-8.375436e+00
-1.020946e+01
-1.221860e+01
-1.437925e+01
-1.664964e+01
-1.897022e+01
-2.126924e+01
-2.348418e+01
-2.561386e+01


0.000000e+00
1.223525e-05
2.271469e-05
3.337644e-05
4.569328e-05
5.760983e-05
6.872035e-05
7.951591e-05
8.984118e-05
9.922130e-05
1.070268e-04
1.127392e-04
1.165772e-04
1.194040e-04
1.218317e-04
1.247489e-04
1.282183e-04
0.000000e+00
9.019109e-06
1.832560e-05
2.627816e-05
3.587962e-05
4.511188e-05
5.335168e-05
6.136686e-05
6.910447e-05
7.599230e-05
8.142772e-05
8.496025e-05
8.666606e-05
8.698143e-05
8.714443e-05
8.952192e-05
9.349283e-05
0.000000e+00
6.957350e-06
1.336087e-05
1.884103e-05
2.531911e-05
3.137145e-05
3.679566e-05
4.200281e-05
4.685252e-05
5.097742e-05
5.404493e-05
5.583574e-05
5.643435e-05
5.630504e-05
5.650666e-05
5.874729e-05
6.255682e-05
0.000000e+00
3.520433e-06
6.290147e-06
9.545604e-06
1.263965e-05
1.550220e-05
1.825052e-05
2.078443e-05
2.298397e-05
2.477266e-05
2.604356e-05
2.675758e-05
2.706491e-05
2.733044e-05
2.798166e-05
2.960543e-05
3.214575e-05
0.000000e+00
-1.453118e-08
-3.041631e-08
-4.601342e-08
-6.082572e-08
-7.609435e-08
-9.374764e-08
-1.237587e-07
-1.947064e-07
-3.459643e-07
-5.754162e-07
-8.003560e-07
-8.722856e-07
-6.264895e-07
-1.245052e-07
5.469029e-07
1.693388e-06
0.000000e+00
-3.546742e-06
-6.342747e-06
-9.626110e-06
-1.274754e-05
-1.563494e-05
-1.840185e-05
-2.095412e-05
-2.322022e-05
-2.516723e-05
-2.669872e-05
-2.773488e-05
-2.825484e-05
-2.836941e-05
-2.836636e-05
-2.834788e-05
-2.800303e-05
0.000000e+00
-6.971957e-06
-1.339130e-05
-1.889355e-05
-2.540394e-05
-3.147990e-05
-3.690479e-05
-4.211659e-05
-4.695061e-05
-5.090821e-05
-5.366241e-05
-5.528156e-05
-5.612779e-05
-5.656848e-05
-5.685792e-05
-5.703933e-05
-5.698668e-05
0.000000e+00
-9.020514e-06
-1.832721e-05
-2.628470e-05
-3.590721e-05
-4.515070e-05
-5.337227e-05
-6.140660e-05
-6.915767e-05
-7.570147e-05
-8.027426e-05
-8.293602e-05
-8.438070e-05
-8.520410e-05
-8.569827e-05
-8.594943e-05
-8.599455e-05
0.000000e+00
-1.223296e-05
-2.269610e-05
-3.333625e-05
-4.563495e-05
-5.752220e-05
-6.857772e-05
-7.934828e-05
-8.966288e-05
-9.869663e-05
-1.055526e-04
-1.100597e-04
-1.127503e-04
-1.142512e-04
-1.149949e-04
-1.152559e-04
-1.152935e-04
0.000000e+00
1.050300e-05
1.767776e-05
2.719385e-05
3.989519e-05
5.461386e-05
7.212470e-05
9.275895e-05
1.159542e-04
1.411912e-04
1.679923e-04
1.960016e-04
2.252715e-04
2.564583e-04
2.922021e-04
3.337932e-04
3.760205e-04
0.000000e+00
5.676918e-06
1.333161e-05
2.214402e-05
3.437779e-05
4.945240e-05
6.727702e-05
8.804622e-05
1.115551e-04
1.374190e-04
1.651617e-04
1.942348e-04
2.243470e-04
2.558198e-04
2.897285e-04
3.288274e-04
3.698642e-04
0.000000e+00
2.602292e-06
9.568346e-06
1.840171e-05
3.030497e-05
4.565013e-05
6.382540e-05
8.477576e-05
1.085673e-04
1.349362e-04
1.633615e-04
1.931970e-04
2.239596e-04
2.552619e-04
2.867437e-04
3.225230e-04
3.614731e-04
0.000000e+00
1.528388e-06
7.699406e-06
1.667486e-05
2.866770e-05
4.404273e-05
6.235484e-05
8.349098e-05
1.074670e-04
1.340392e-04
1.626891e-04
1.927613e-04
2.236505e-04
2.546353e-04
2.847196e-04
3.175458e-04
3.536542e-04
0.000000e+00
1.287136e-06
7.142812e-06
1.609286e-05
2.822305e-05
4.355665e-05
6.189585e-05
8.313311e-05
1.072188e-04
1.338915e-04
1.626037e-04
1.926677e-04
2.234225e-04
2.541551e-04
2.841457e-04
3.152864e-04
3.482587e-04
0.000000e+00
1.532057e-06
7.698117e-06
1.665973e-05
2.863685e-05
4.399761e-05
6.229576e-05
8.345379e-05
1.075534e-04
1.343174e-04
1.630700e-04
1.930337e-04
2.235537e-04
2.540562e-04
2.842538e-04
3.147041e-04
3.453918e-04
0.000000e+00
2.608444e-06
9.567316e-06
1.838014e-05
3.025919e-05
4.558007e-05
6.372744e-05
8.471339e-05
1.087224e-04
1.354358e-04
1.640734e-04
1.937893e-04
2.239830e-04
2.542564e-04
2.843985e-04
3.144752e-04
3.441762e-04
0.000000e+00
5.685115e-06
1.333506e-05
2.213114e-05
3.434078e-05
4.938048e-05
6.717548e-05
8.799391e-05
1.117069e-04
1.378561e-04
1.657770e-04
1.948215e-04
2.245271e-04
2.545167e-04
2.845122e-04
3.143496e-04
3.438219e-04
0.000000e+00
1.051221e-05
1.768275e-05
2.718931e-05
3.987091e-05
5.454520e-05
7.202815e-05
9.273257e-05
1.160591e-04
1.413325e-04
1.680910e-04
1.961257e-04
2.251877e-04
2.548295e-04
2.846378e-04
3.143344e-04
3.437788e-04


2.367835e+00
2.269761e+00
2.390010e+00
2.550178e+00
2.674031e+00
2.941962e+00
3.264341e+00
3.629887e+00
4.112611e+00
4.693007e+00
5.258117e+00
5.690089e+00
5.884207e+00
5.609251e+00
4.828310e+00
4.168298e+00
3.488280e+00
3.391889e+00
3.445165e+00
3.535489e+00
3.605649e+00
3.790647e+00
4.018610e+00
4.278972e+00
4.631343e+00
5.063412e+00
5.488744e+00
5.811393e+00
5.924466e+00
5.572073e+00
4.743734e+00
4.042873e+00
4.999068e+00
4.938197e+00
4.941473e+00
4.951979e+00
4.961666e+00
5.037620e+00
5.130207e+00
5.237166e+00
5.393144e+00
5.595531e+00
5.801516e+00
5.957574e+00
5.983218e+00
5.659541e+00
4.965866e+00
4.416535e+00
5.863504e+00
5.831851e+00
5.815348e+00
5.787479e+00
5.776409e+00
5.787524e+00
5.798456e+00
5.810671e+00
5.839080e+00
5.887934e+00
5.946738e+00
5.998486e+00
6.002886e+00
5.831938e+00
5.468092e+00
5.180600e+00
5.863415e+00
5.831566e+00
5.814610e+00
5.786012e+00
5.773783e+00
5.782213e+00
5.787779e+00
5.793035e+00
5.814857e+00
5.856892e+00
5.909308e+00
5.963635e+00
6.005424e+00
5.981061e+00
5.874536e+00
5.783787e+00
4.998557e+00
4.937122e+00
4.939017e+00
4.947677e+00
4.954852e+00
5.024743e+00
5.106830e+00
5.206523e+00
5.363237e+00
5.563475e+00
5.756449e+00
5.910188e+00
6.022056e+00
6.086100e+00
6.102162e+00
6.099273e+00
3.487091e+00
3.389983e+00
3.441551e+00
3.530146e+00
3.599001e+00
3.780151e+00
4.005458e+00
4.282430e+00
4.674100e+00
5.134842e+00
5.550065e+00
5.851050e+00
6.041799e+00
6.152777e+00
6.209566e+00
6.231661e+00
2.366180e+00
2.267598e+00
2.386435e+00
2.545820e+00
2.670809e+00
2.939717e+00
3.270578e+00
3.677061e+00
4.233936e+00
4.870036e+00
5.429086e+00
5.821801e+00
6.057648e+00
6.186614e+00
6.250976e+00
6.277254e+00


-5.449283e-01
-2.237770e-01
-2.019737e-01
-2.539828e-01
-1.765352e-01
-1.741949e-01
-1.823672e-01
-1.617018e-01
-1.528583e-01
-1.478262e-01
-1.034415e-01
-3.470296e-03
1.384857e-01
3.341543e-01
5.657868e-01
-5.534785e-01
5.307890e-01
4.029828e-01
3.440721e-01
2.906847e-01
3.165837e-01
3.068362e-01
2.940256e-01
2.996583e-01
3.081802e-01
3.319479e-01
4.018972e-01
5.317586e-01
7.063242e-01
8.683459e-01
7.531316e-01
-1.278036e+00
8.283132e-01
7.099604e-01
6.023621e-01
5.533637e-01
5.426072e-01
5.262670e-01
5.152793e-01
5.144871e-01
5.204325e-01
5.398480e-01
5.818964e-01
6.367326e-01
6.556339e-01
5.499940e-01
2.389757e-01
-3.098879e-01
9.032762e-01
7.996947e-01
6.909619e-01
6.295053e-01
6.031313e-01
5.895310e-01
5.814619e-01
5.751029e-01
5.641015e-01
5.439113e-01
5.110897e-01
4.526928e-01
3.430343e-01
1.982145e-01
1.544986e-01
1.924374e-01
9.039028e-01
8.003808e-01
6.913782e-01
6.285986e-01
5.992178e-01
5.801278e-01
5.628243e-01
5.408027e-01
5.037641e-01
4.447622e-01
3.648445e-01
2.720017e-01
1.905642e-01
1.924942e-01
3.507375e-01
6.051012e-01
8.298134e-01
7.116719e-01
6.037227e-01
5.524675e-01
5.361852e-01
5.094752e-01
4.800998e-01
4.465100e-01
3.969599e-01
3.340722e-01
2.748775e-01
2.436017e-01
2.755397e-01
4.094182e-01
6.342959e-01
8.695648e-01
5.319149e-01
4.043228e-01
3.455315e-01
2.914757e-01
3.147490e-01
3.008469e-01
2.797888e-01
2.658630e-01
2.406732e-01
2.242566e-01
2.557831e-01
3.481185e-01
4.926116e-01
6.769628e-01
8.605684e-01
9.771570e-01
-5.462160e-01
-2.254680e-01
-2.033874e-01
-2.549641e-01
-1.770878e-01
-1.707227e-01
-1.709389e-01
-1.443001e-01
-1.178603e-01
-4.165937e-02
1.506202e-01
4.308790e-01
7.021445e-01
8.894531e-01
9.783537e-01
9.995738e-01
1 2 19 18
2 3 20 19
3 4 21 20
4 5 22 21
5 6 23 22
6 7 24 23
7 8 25 24
8 9 26 25
9 10 27 26
10 11 28 27
11 12 29 28
12 13 30 29
13 14 31 30
14 15 32 31
15 16 33 32
16 17 34 33
18 19 36 35
19 20 37 36
20 21 38 37
21 22 39 38
22 23 40 39
23 24 41 40
24 25 42 41
25 26 43 42
26 27 44 43
27 28 45 44
28 29 46 45
29 30 47 46
30 31 48 47
31 32 49 48
32 33 50 49
33 34 51 50
35 36 53 52
36 37 54 53
37 38 55 54
38 39 56 55
39 40 57 56
40 41 58 57
41 42 59 58
42 43 60 59
43 44 61 60
44 45 62 61
45 46 63 62
46 47 64 63
47 48 65 64
48 49 66 65
49 50 67 66
50 51 68 67
52 53 70 69
53 54 71 70
54 55 72 71
55 56 73 72
56 57 74 73
57 58 75 74
58 59 76 75
59 60 77 76
60 61 78 77
61 62 79 78
62 63 80 79
63 64 81 80
64 65 82 81
65 66 83 82
66 67 84 83
67 68 85 84
69 70 87 86
70 71 88 87
71 72 89 88
72 73 90 89
73 74 91 90
74 75 92 91
75 76 93 92
76 77 94 93
77 78 95 94
78 79 96 95
79 80 97 96
80 81 98 97
81 82 99 98
82 83 100 99
83 84 101 100
84 85 102 101
86 87 104 103
87 88 105 104
88 89 106 105
89 90 107 106
90 91 108 107
91 92 109 108
92 93 110 109
93 94 111 110
94 95 112 111
95 96 113 112
96 97 114 113
97 98 115 114
98 99 116 115
99 100 117 116
100 101 118 117
101 102 119 118
103 104 121 120
104 105 122 121
105 106 123 122
106 107 124 123
107 108 125 124
108 109 126 125
109 110 127 126
110 111 128 127
111 112 129 128
112 113 130 129
113 114 131 130
114 115 132 131
115 116 133 132
116 117 134 133
117 118 135 134
118 119 136 135
120 121 138 137
121 122 139 138
122 123 140 139
123 124 141 140
124 125 142 141
125 126 143 142
126 127 144 143
127 128 145 144
128 129 146 145
129 130 147 146
130 131 148 147
131 132 149 148
132 133 150 149
133 134 151 150
134 135 152 151
135 136 153 152
