TITLE = "Solution"
VARIABLES = x, y, u, v, psiu, psiv, t, stress
ZONE T="structure" N=153 E=128 F=FEBLOCK ET=QUADRILATERAL VARLOCATION=([7,8]=cellcentered)
0.000000e+00
1.250000e+01
2.500000e+01
3.750000e+01
5.000000e+01
6.250000e+01
7.500000e+01
8.750000e+01
1.000000e+02
1.125000e+02
1.250000e+02
1.375000e+02
1.500000e+02
1.625000e+02
1.750000e+02
1.875000e+02
2.000000e+02
0.000000e+00
1.250000e+01
2.500000e+01
3.750000e+01
5.000000e+01
6.250000e+01
7.500000e+01
8.750000e+01
1.000000e+02
1.125000e+02
1.250000e+02
1.375000e+02
1.500000e+02
1.625000e+02
1.750000e+02
1.875000e+02
2.000000e+02
0.000000e+00
1.250000e+01
2.500000e+01
3.750000e+01
5.000000e+01
6.250000e+01
7.500000e+01
8.750000e+01
1.000000e+02
1.125000e+02
1.250000e+02
1.375000e+02
1.500000e+02
1.625000e+02
1.750000e+02
1.875000e+02
2.000000e+02
0.000000e+00
1.250000e+01
2.500000e+01
3.750000e+01
5.000000e+01
6.250000e+01
7.500000e+01
8.750000e+01
1.000000e+02
1.125000e+02
1.250000e+02
1.375000e+02
1.500000e+02
1.625000e+02
1.750000e+02
1.875000e+02
2.000000e+02
0.000000e+00
1.250000e+01
2.500000e+01
3.750000e+01
5.000000e+01
6.250000e+01
7.500000e+01
8.750000e+01
1.000000e+02
1.125000e+02
1.250000e+02
1.375000e+02
1.500000e+02
1.625000e+02
1.750000e+02
1.875000e+02
2.000000e+02
0.000000e+00
1.250000e+01
2.500000e+01
3.750000e+01
5.000000e+01
6.250000e+01
7.500000e+01
8.750000e+01
1.000000e+02
1.125000e+02
1.250000e+02
1.375000e+02
1.500000e+02
1.625000e+02
1.750000e+02
1.875000e+02
2.000000e+02
0.000000e+00
1.250000e+01
2.500000e+01
3.750000e+01
5.000000e+01
6.250000e+01
7.500000e+01
8.750000e+01
1.000000e+02
1.125000e+02
1.250000e+02
1.375000e+02
1.500000e+02
1.625000e+02
1.750000e+02
1.875000e+02
2.000000e+02
0.000000e+00
1.250000e+01
2.500000e+01
3.750000e+01
5.000000e+01
6.250000e+01
7.500000e+01
8.750000e+01
1.000000e+02
1.125000e+02
1.250000e+02
1.375000e+02
1.500000e+02
1.625000e+02
1.750000e+02
1.875000e+02
2.000000e+02
0.000000e+00
1.250000e+01
2.500000e+01
3.750000e+01
5.000000e+01
6.250000e+01
7.500000e+01
8.750000e+01
1.000000e+02
1.125000e+02
1.250000e+02
1.375000e+02
1.500000e+02
1.625000e+02
1.750000e+02
1.875000e+02
2.000000e+02
0.000000e+00
0.000000e+00
0.000000e+00
0.000000e+00
0.000000e+00
0.000000e+00
0.000000e+00
0.000000e+00
0.000000e+00
0.000000e+00
0.000000e+00
0.000000e+00
0.000000e+00
0.000000e+00
0.000000e+00
0.000000e+00
0.000000e+00
1.250000e+01
1.250000e+01
1.250000e+01
1.250000e+01
1.250000e+01
1.250000e+01
1.250000e+01
1.250000e+01
1.250000e+01
1.250000e+01
1.250000e+01
1.250000e+01
1.250000e+01
1.250000e+01
1.250000e+01
1.250000e+01
1.250000e+01
2.500000e+01
2.500000e+01
2.500000e+01
2.500000e+01
2.500000e+01
2.500000e+01
2.500000e+01
2.500000e+01
2.500000e+01
2.500000e+01
2.500000e+01
2.500000e+01
2.500000e+01
2.500000e+01
2.500000e+01
2.500000e+01
2.500000e+01
3.750000e+01
3.750000e+01
3.750000e+01
3.750000e+01
3.750000e+01
3.750000e+01
3.750000e+01
3.750000e+01
3.750000e+01
3.750000e+01
3.750000e+01
3.750000e+01
3.750000e+01
3.750000e+01
3.750000e+01
3.750000e+01
3.750000e+01
5.000000e+01
5.000000e+01
5.000000e+01
5.000000e+01
5.000000e+01
5.000000e+01
5.000000e+01
5.000000e+01
5.000000e+01
5.000000e+01
5.000000e+01
5.000000e+01
5.000000e+01
5.000000e+01
5.000000e+01
5.000000e+01
5.000000e+01
6.250000e+01
6.250000e+01
6.250000e+01
6.250000e+01
6.250000e+01
6.250000e+01
6.250000e+01
6.250000e+01
6.250000e+01
6.250000e+01
6.250000e+01
6.250000e+01
6.250000e+01
6.250000e+01
6.250000e+01
6.250000e+01
6.250000e+01
7.500000e+01
7.500000e+01
7.500000e+01
7.500000e+01
7.500000e+01
7.500000e+01
7.500000e+01
7.500000e+01
7.500000e+01
7.500000e+01
7.500000e+01
7.500000e+01
7.500000e+01
7.500000e+01
7.500000e+01
7.500000e+01
7.500000e+01
8.750000e+01
8.750000e+01
8.750000e+01
8.750000e+01
8.750000e+01
8.750000e+01
8.750000e+01
8.750000e+01
8.750000e+01
8.750000e+01
8.750000e+01
8.750000e+01
8.750000e+01
8.750000e+01
8.750000e+01
8.750000e+01
8.750000e+01
1.000000e+02
1.000000e+02
1.000000e+02
1.000000e+02
1.000000e+02
1.000000e+02
1.000000e+02
1.000000e+02
1.000000e+02
1.000000e+02
1.000000e+02
1.000000e+02
1.000000e+02
1.000000e+02
1.000000e+02
1.000000e+02
1.000000e+02
0.000000e+00
-9.958229e-01
-1.679044e+00
-2.431201e+00
-3.117153e+00
-3.750614e+00
-4.458172e+00
-5.087274e+00
-5.763235e+00
-6.405597e+00
-7.055583e+00
-7.723577e+00
-8.376486e+00
-9.146509e+00
-1.007749e+01
-1.083398e+01
-1.128410e+01
0.000000e+00
-4.459302e-01
-9.065256e-01
-1.419027e+00
-1.930642e+00
-2.410756e+00
-2.924852e+00
-3.423037e+00
-3.919041e+00
-4.421456e+00
-4.913976e+00
-5.416939e+00
-5.901806e+00
-6.421444e+00
-6.897734e+00
-7.024058e+00
-7.202947e+00
0.000000e+00
-1.461001e-01
-3.488794e-01
-6.395711e-01
-9.775635e-01
-1.302611e+00
-1.655767e+00
-2.012857e+00
-2.356449e+00
-2.718583e+00
-3.057432e+00
-3.391735e+00
-3.687431e+00
-3.927369e+00
-4.036602e+00
-4.034623e+00
-4.183044e+00
0.000000e+00
-7.898398e-02
-1.621285e-01
-3.096489e-01
-4.548799e-01
-6.282069e-01
-8.138795e-01
-9.790938e-01
-1.166838e+00
-1.328793e+00
-1.489834e+00
-1.628897e+00
-1.722301e+00
-1.730480e+00
-1.656829e+00
-1.635873e+00
-1.752919e+00
0.000000e+00
-3.319213e-03
-7.225596e-03
-1.128672e-02
-1.567254e-02
-1.909651e-02
-1.996863e-02
-1.721687e-02
-8.435460e-03
8.412183e-03
3.280882e-02
7.774486e-02
1.602697e-01
2.752143e-01
3.950315e-01
4.359034e-01
3.377256e-01
0.000000e+00
7.317868e-02
1.504260e-01
2.905851e-01
4.290566e-01
5.956184e-01
7.744664e-01
9.428220e-01
1.148831e+00
1.344084e+00
1.562048e+00
1.782351e+00
2.008960e+00
2.216469e+00
2.352277e+00
2.385176e+00
2.319497e+00
0.000000e+00
1.437369e-01
3.435909e-01
6.305439e-01
9.656060e-01
1.290864e+00
1.643128e+00
1.999646e+00
2.359208e+00
2.764674e+00
3.143777e+00
3.510776e+00
3.843618e+00
4.119330e+00
4.296118e+00
4.350751e+00
4.328087e+00
0.000000e+00
4.466331e-01
9.072715e-01
1.419532e+00
1.930439e+00
2.409113e+00
2.920140e+00
3.415639e+00
3.903328e+00
4.396697e+00
4.874985e+00
5.350113e+00
5.778087e+00
6.125786e+00
6.342887e+00
6.438711e+00
6.456424e+00
0.000000e+00
9.980931e-01
1.684140e+00
2.440049e+00
3.127945e+00
3.762015e+00
4.468575e+00
5.095830e+00
5.747503e+00
6.331639e+00
6.905076e+00
7.505942e+00
8.036046e+00
8.448166e+00
8.649418e+00
8.702152e+00
8.702682e+00
0.000000e+00
-6.187319e-01
-1.361796e+00
-2.363169e+00
-3.537342e+00
-4.880908e+00
-6.412359e+00
-8.098502e+00
-9.958974e+00
-1.198245e+01
-1.416725e+01
-1.651809e+01
-1.903176e+01
-2.176290e+01
-2.472715e+01
-2.808662e+01
-3.310231e+01
0.000000e+00
-4.158625e-01
-1.193448e+00
-2.176967e+00
-3.368276e+00
-4.706757e+00
-6.234839e+00
-7.929881e+00
-9.782689e+00
-1.181488e+01
-1.399496e+01
-1.635038e+01
-1.885888e+01
-2.157025e+01
-2.458696e+01
-2.800287e+01
-3.205273e+01
0.000000e+00
-3.903067e-01
-1.091640e+00
-2.073563e+00
-3.249143e+00
-4.580835e+00
-6.115096e+00
-7.800066e+00
-9.663691e+00
-1.169305e+01
-1.388430e+01
-1.625109e+01
-1.876980e+01
-2.150799e+01
-2.457698e+01
-2.785099e+01
-3.088352e+01
0.000000e+00
-4.492953e-01
-1.088017e+00
-2.047437e+00
-3.186690e+00
-4.511275e+00
-6.053426e+00
-7.723411e+00
-9.606056e+00
-1.163441e+01
-1.384736e+01
-1.623403e+01
-1.877826e+01
-2.151833e+01
-2.450732e+01
-2.754131e+01
-3.016719e+01
0.000000e+00
-4.562391e-01
-1.110410e+00
-2.031845e+00
-3.172383e+00
-4.501562e+00
-6.031916e+00
-7.721661e+00
-9.595862e+00
-1.164652e+01
-1.387395e+01
-1.626781e+01
-1.881950e+01
-2.151947e+01
-2.435674e+01
-2.717474e+01
-2.956268e+01
0.000000e+00
-4.480246e-01
-1.087696e+00
-2.049534e+00
-3.193659e+00
-4.528504e+00
-6.080996e+00
-7.760190e+00
-9.657923e+00
-1.171218e+01
-1.394428e+01
-1.631997e+01
-1.885041e+01
-2.150950e+01
-2.422184e+01
-2.685499e+01
-2.912432e+01
0.000000e+00
-3.886131e-01
-1.091650e+00
-2.078382e+00
-3.262947e+00
-4.610143e+00
-6.160895e+00
-7.869426e+00
-9.762995e+00
-1.182846e+01
-1.403070e+01
-1.638722e+01
-1.888963e+01
-2.150939e+01
-2.413945e+01
-2.664780e+01
-2.889060e+01
0.000000e+00
-4.142955e-01
-1.193549e+00
-2.182651e+00
-3.384499e+00
-4.737984e+00
-6.285957e+00
-8.010473e+00
-9.901579e+00
-1.196573e+01
-1.414576e+01
-1.648574e+01
-1.896681e+01
-2.155095e+01
-2.411893e+01
-2.656025e+01
-2.883011e+01
0.000000e+00
-6.177580e-01
-1.362527e+00
-2.369546e+00
-3.553968e+00
-4.912009e+00
-6.464166e+00
-8.178802e+00
-1.007425e+01
-1.212120e+01
-1.430089e+01
-1.663397e+01
-1.909047e+01
-2.163297e+01
-2.414354e+01
-2.654537e+01
-2.882897e+01


0.000000e+00
1.541832e-05
2.508426e-05
3.749348e-05
5.358501e-05
6.717270e-05
8.318027e-05
9.714255e-05
1.118623e-04
1.257477e-04
1.408868e-04
1.552294e-04
1.717896e-04
1.876033e-04
1.976744e-04
2.034145e-04
2.103476e-04
0.000000e+00
1.145822e-05
1.973721e-05
2.841314e-05
4.099283e-05
5.172137e-05
6.184730e-05
7.296073e-05
8.316164e-05
9.457240e-05
1.052303e-04
1.156188e-04
1.264855e-04
1.358382e-04
1.374350e-04
1.411876e-04
1.470107e-04
0.000000e+00
9.529685e-06
1.502519e-05
2.020971e-05
2.884502e-05
3.554321e-05
4.127366e-05
4.862155e-05
5.459231e-05
6.196030e-05
6.836779e-05
7.404043e-05
7.875676e-05
8.093958e-05
8.018777e-05
8.256473e-05
8.679717e-05
0.000000e+00
5.186520e-06
6.844330e-06
9.622186e-06
1.306183e-05
1.351968e-05
1.586576e-05
1.725605e-05
2.087488e-05
2.430756e-05
2.806275e-05
2.912135e-05
2.854069e-05
2.711182e-05
2.684132e-05
2.987863e-05
3.554971e-05
0.000000e+00
-1.756909e-07
-4.376836e-07
-8.611402e-07
-1.732956e-06
-2.895087e-06
-5.010804e-06
-7.257826e-06
-7.837605e-06
-7.877382e-06
-8.813417e-06
-1.195310e-05
-1.469846e-05
-1.612441e-05
-1.580019e-05
-1.364606e-05
-9.655960e-06
0.000000e+00
-5.451586e-06
-7.435856e-06
-1.075538e-05
-1.466584e-05
-1.608618e-05
-2.054167e-05
-2.432222e-05
-3.026436e-05
-3.340995e-05
-3.754668e-05
-4.222379e-05
-4.735634e-05
-4.913786e-05
-4.968077e-05
-5.014994e-05
-4.841646e-05
0.000000e+00
-9.529254e-06
-1.509211e-05
-2.037846e-05
-2.894833e-05
-3.533596e-05
-4.074335e-05
-4.873613e-05
-5.591381e-05
-6.361369e-05
-6.888962e-05
-7.389928e-05
-7.805085e-05
-8.162616e-05
-8.352965e-05
-8.544686e-05
-8.619338e-05
0.000000e+00
-1.138733e-05
-1.964917e-05
-2.830749e-05
-4.076885e-05
-5.166251e-05
-6.160426e-05
-7.279709e-05
-8.318612e-05
-9.457677e-05
-1.052211e-04
-1.135895e-04
-1.183800e-04
-1.234124e-04
-1.270235e-04
-1.283281e-04
-1.284237e-04
0.000000e+00
-1.542874e-05
-2.502501e-05
-3.733957e-05
-5.337429e-05
-6.699935e-05
-8.287225e-05
-9.587503e-05
-1.099894e-04
-1.233106e-04
-1.409723e-04
-1.567977e-04
-1.665933e-04
-1.718143e-04
-1.740200e-04
-1.742408e-04
-1.740610e-04
0.000000e+00
1.259706e-05
1.999764e-05
3.243472e-05
4.874034e-05
6.686111e-05
9.129370e-05
1.201288e-04
1.534285e-04
1.901747e-04
2.303382e-04
2.743460e-04
3.242766e-04
3.784012e-04
4.399311e-04
5.107788e-04
5.841736e-04
0.000000e+00
7.679752e-06
1.610769e-05
2.633353e-05
4.227789e-05
6.090154e-05
8.483424e-05
1.142570e-04
1.471885e-04
1.840539e-04
2.240023e-04
2.681347e-04
3.177032e-04
3.734607e-04
4.346796e-04
5.033981e-04
5.738200e-04
0.000000e+00
4.325602e-06
1.229151e-05
2.172279e-05
3.645827e-05
5.567802e-05
7.941276e-05
1.097463e-04
1.430315e-04
1.795683e-04
2.194118e-04
2.635962e-04
3.139171e-04
3.710689e-04
4.305335e-04
4.959202e-04
5.641367e-04
0.000000e+00
3.198988e-06
1.059053e-05
2.008343e-05
3.450983e-05
5.201048e-05
7.640409e-05
1.087459e-04
1.435791e-04
1.781394e-04
2.173624e-04
2.619568e-04
3.131596e-04
3.696557e-04
4.277971e-04
4.880862e-04
5.499794e-04
0.000000e+00
2.810710e-06
1.026702e-05
2.004274e-05
3.424174e-05
5.072044e-05
7.528276e-05
1.097804e-04
1.448023e-04
1.780507e-04
2.155682e-04
2.618945e-04
3.133878e-04
3.697934e-04
4.266547e-04
4.817028e-04
5.338535e-04
0.000000e+00
3.342519e-06
1.078172e-05
2.046007e-05
3.485140e-05
5.181617e-05
7.716260e-05
1.106779e-04
1.454170e-04
1.778737e-04
2.159482e-04
2.633695e-04
3.157350e-04
3.701169e-04
4.265603e-04
4.793823e-04
5.228255e-04
0.000000e+00
4.479582e-06
1.252083e-05
2.206869e-05
3.673916e-05
5.576011e-05
8.038919e-05
1.117493e-04
1.447486e-04
1.789656e-04
2.182228e-04
2.665874e-04
3.192288e-04
3.722158e-04
4.256514e-04
4.766345e-04
5.193495e-04
0.000000e+00
7.804511e-06
1.634502e-05
2.663605e-05
4.253745e-05
6.131304e-05
8.580364e-05
1.159277e-04
1.482023e-04
1.832644e-04
2.228603e-04
2.703526e-04
3.222737e-04
3.744179e-04
4.257974e-04
4.746131e-04
5.198108e-04
0.000000e+00
1.271061e-05
2.023506e-05
3.272731e-05
4.908130e-05
6.739983e-05
9.233633e-05
1.215883e-04
1.543861e-04
1.894473e-04
2.301177e-04
2.747102e-04
3.245641e-04
3.755812e-04
4.261150e-04
4.741295e-04
5.200750e-04


5.672572e+00
6.137506e+00
6.865332e+00
5.932292e+00
5.713633e+00
6.526813e+00
6.399429e+00
6.411844e+00
5.957987e+00
5.902230e+00
6.283961e+00
7.150876e+00
8.847863e+00
9.829575e+00
9.150435e+00
8.001416e+00
8.082654e+00
8.460045e+00
8.660991e+00
8.357236e+00
8.225308e+00
8.493766e+00
8.658610e+00
8.420332e+00
8.395108e+00
8.270078e+00
8.417056e+00
8.844356e+00
9.506708e+00
9.842222e+00
8.394634e+00
6.473674e+00
9.842716e+00
9.823398e+00
9.998876e+00
9.837228e+00
9.835629e+00
9.966347e+00
9.834910e+00
9.945701e+00
9.848309e+00
9.880175e+00
9.897961e+00
9.875799e+00
9.894130e+00
9.395437e+00
7.999940e+00
6.191262e+00
9.999447e+00
9.999436e+00
9.999432e+00
9.999377e+00
9.999301e+00
9.999148e+00
9.998975e+00
9.998972e+00
9.999070e+00
9.999053e+00
9.998641e+00
9.482743e+00
8.832094e+00
8.373132e+00
7.991663e+00
7.920001e+00
9.999444e+00
9.999430e+00
9.999420e+00
9.999346e+00
9.999219e+00
9.998940e+00
9.934176e+00
9.963116e+00
9.998234e+00
9.918212e+00
9.359172e+00
8.594765e+00
7.711492e+00
7.749123e+00
8.653478e+00
9.168907e+00
9.843094e+00
9.823341e+00
9.998817e+00
9.836961e+00
9.835008e+00
9.708427e+00
9.308139e+00
9.518558e+00
9.386609e+00
8.871092e+00
8.311301e+00
7.900979e+00
8.205493e+00
8.757870e+00
9.448655e+00
9.998035e+00
8.084886e+00
8.460986e+00
8.660337e+00
8.355577e+00
8.142491e+00
8.041998e+00
7.876887e+00
7.793983e+00
7.884498e+00
7.343594e+00
7.484815e+00
8.493697e+00
9.294432e+00
9.849809e+00
9.998854e+00
9.999314e+00
5.678177e+00
6.139281e+00
6.864265e+00
5.923809e+00
5.679882e+00
6.185075e+00
6.002814e+00
6.470810e+00
6.271862e+00
6.520398e+00
7.868084e+00
9.115239e+00
9.986572e+00
9.999108e+00
9.999386e+00
9.999482e+00


-8.186072e-01
-1.678301e-01
-3.971989e-01
-2.582505e-01
-9.355843e-02
-3.067532e-01
-1.235081e-01
-2.097320e-01
-1.617720e-01
-1.579288e-01
-2.151936e-01
-1.497865e-01
-4.614699e-01
-6.859012e-01
3.157692e-01
-8.469643e-01
6.108183e-01
4.812906e-01
2.953314e-01
2.252922e-01
2.908248e-01
1.680020e-01
1.752136e-01
1.731185e-01
1.097430e-01
1.482247e-01
1.280600e-01
2.413746e-01
3.024724e-01
5.093495e-01
6.953578e-01
-9.345023e-01
7.227793e-01
4.715844e-01
5.653802e-02
-2.218337e-02
-3.641545e-02
-1.883518e-01
-8.023290e-02
-1.379253e-01
-7.729723e-02
-1.895189e-02
3.147690e-02
1.855473e-01
2.782527e-01
1.479640e-01
-2.537097e-02
-1.679065e-01
7.280279e-01
5.564148e-01
1.928764e-01
6.169330e-02
-2.236475e-02
-1.065428e-01
-1.649411e-02
-6.190510e-02
1.322067e-02
1.690033e-02
5.869087e-02
1.175069e-01
5.864932e-02
-2.623780e-01
-3.839474e-01
-7.819294e-02
7.309334e-01
5.603546e-01
2.008687e-01
6.987615e-02
-1.847757e-02
-1.124930e-01
-3.661513e-02
-1.026456e-01
-5.234767e-02
-4.338306e-02
2.110976e-02
1.423459e-02
-3.782454e-02
-1.299340e-01
-1.025361e-01
3.105508e-01
7.295937e-01
4.817860e-01
7.460184e-02
-4.220100e-03
-2.443255e-02
-1.622186e-01
-7.376490e-02
-1.879612e-01
-1.820570e-01
-1.091533e-01
-7.760503e-02
-9.773745e-02
-1.115504e-01
4.531503e-02
3.341672e-01
7.245768e-01
6.149093e-01
4.871292e-01
3.028026e-01
2.302863e-01
2.869556e-01
1.614588e-01
1.523924e-01
1.030491e-01
-5.739464e-02
-4.022927e-02
-9.656364e-02
-5.691565e-02
5.723218e-02
3.649979e-01
7.128568e-01
9.478983e-01
-8.242373e-01
-1.733735e-01
-4.048059e-01
-2.613462e-01
-9.284303e-02
-3.007756e-01
-1.194896e-01
-1.570500e-01
-5.601821e-02
-2.181591e-02
-9.258280e-02
9.983280e-02
3.877793e-01
7.721068e-01
9.528985e-01
9.987355e-01
1 2 19 18
2 3 20 19
3 4 21 20
4 5 22 21
5 6 23 22
6 7 24 23
7 8 25 24
8 9 26 25
9 10 27 26
10 11 28 27
11 12 29 28
12 13 30 29
13 14 31 30
14 15 32 31
15 16 33 32
16 17 34 33
18 19 36 35
19 20 37 36
20 21 38 37
21 22 39 38
22 23 40 39
23 24 41 40
24 25 42 41
25 26 43 42
26 27 44 43
27 28 45 44
28 29 46 45
29 30 47 46
30 31 48 47
31 32 49 48
32 33 50 49
33 34 51 50
35 36 53 52
36 37 54 53
37 38 55 54
38 39 56 55
39 40 57 56
40 41 58 57
41 42 59 58
42 43 60 59
43 44 61 60
44 45 62 61
45 46 63 62
46 47 64 63
47 48 65 64
48 49 66 65
49 50 67 66
50 51 68 67
52 53 70 69
53 54 71 70
54 55 72 71
55 56 73 72
56 57 74 73
57 58 75 74
58 59 76 75
59 60 77 76
60 61 78 77
61 62 79 78
62 63 80 79
63 64 81 80
64 65 82 81
65 66 83 82
66 67 84 83
67 68 85 84
69 70 87 86
70 71 88 87
71 72 89 88
72 73 90 89
73 74 91 90
74 75 92 91
75 76 93 92
76 77 94 93
77 78 95 94
78 79 96 95
79 80 97 96
80 81 98 97
81 82 99 98
82 83 100 99
83 84 101 100
84 85 102 101
86 87 104 103
87 88 105 104
88 89 106 105
89 90 107 106
90 91 108 107
91 92 109 108
92 93 110 109
93 94 111 110
94 95 112 111
95 96 113 112
96 97 114 113
97 98 115 114
98 99 116 115
99 100 117 116
100 101 118 117
101 102 119 118
103 104 121 120
104 105 122 121
105 106 123 122
106 107 124 123
107 108 125 124
108 109 126 125
109 110 127 126
110 111 128 127
111 112 129 128
112 113 130 129
113 114 131 130
114 115 132 131
115 116 133 132
116 117 134 133
117 118 135 134
118 119 136 135
120 121 138 137
121 122 139 138
122 123 140 139
123 124 141 140
124 125 142 141
125 126 143 142
126 127 144 143
127 128 145 144
128 129 146 145
129 130 147 146
130 131 148 147
131 132 149 148
132 133 150 149
133 134 151 150
134 135 152 151
135 136 153 152
