TITLE = "Solution"
VARIABLES = x, y, u, v, psiu, psiv, t, stress
ZONE T="structure" N=153 E=128 F=FEBLOCK ET=QUADRILATERAL VARLOCATION=([7,8]=cellcentered)
0.000000e+00
1.250000e+01
2.500000e+01
3.750000e+01
5.000000e+01
6.250000e+01
7.500000e+01
8.750000e+01
1.000000e+02
1.125000e+02
1.250000e+02
1.375000e+02
1.500000e+02
1.625000e+02
1.750000e+02
1.875000e+02
2.000000e+02
0.000000e+00
1.250000e+01
2.500000e+01
3.750000e+01
5.000000e+01
6.250000e+01
7.500000e+01
8.750000e+01
1.000000e+02
1.125000e+02
1.250000e+02
1.375000e+02
1.500000e+02
1.625000e+02
1.750000e+02
1.875000e+02
2.000000e+02
0.000000e+00
1.250000e+01
2.500000e+01
3.750000e+01
5.000000e+01
6.250000e+01
7.500000e+01
8.750000e+01
1.000000e+02
1.125000e+02
1.250000e+02
1.375000e+02
1.500000e+02
1.625000e+02
1.750000e+02
1.875000e+02
2.000000e+02
0.000000e+00
1.250000e+01
2.500000e+01
3.750000e+01
5.000000e+01
6.250000e+01
7.500000e+01
8.750000e+01
1.000000e+02
1.125000e+02
1.250000e+02
1.375000e+02
1.500000e+02
1.625000e+02
1.750000e+02
1.875000e+02
2.000000e+02
0.000000e+00
1.250000e+01
2.500000e+01
3.750000e+01
5.000000e+01
6.250000e+01
7.500000e+01
8.750000e+01
1.000000e+02
1.125000e+02
1.250000e+02
1.375000e+02
1.500000e+02
1.625000e+02
1.750000e+02
1.875000e+02
2.000000e+02
0.000000e+00
1.250000e+01
2.500000e+01
3.750000e+01
5.000000e+01
6.250000e+01
7.500000e+01
8.750000e+01
1.000000e+02
1.125000e+02
1.250000e+02
1.375000e+02
1.500000e+02
1.625000e+02
1.750000e+02
1.875000e+02
2.000000e+02
0.000000e+00
1.250000e+01
2.500000e+01
3.750000e+01
5.000000e+01
6.250000e+01
7.500000e+01
8.750000e+01
1.000000e+02
1.125000e+02
1.250000e+02
1.375000e+02
1.500000e+02
1.625000e+02
1.750000e+02
1.875000e+02
2.000000e+02
0.000000e+00
1.250000e+01
2.500000e+01
3.750000e+01
5.000000e+01
6.250000e+01
7.500000e+01
8.750000e+01
1.000000e+02
1.125000e+02
1.250000e+02
1.375000e+02
1.500000e+02
1.625000e+02
1.750000e+02
1.875000e+02
2.000000e+02
0.000000e+00
1.250000e+01
2.500000e+01
3.750000e+01
5.000000e+01
6.250000e+01
7.500000e+01
8.750000e+01
1.000000e+02
1.125000e+02
1.250000e+02
1.375000e+02
1.500000e+02
1.625000e+02
1.750000e+02
1.875000e+02
2.000000e+02
0.000000e+00
0.000000e+00
0.000000e+00
0.000000e+00
0.000000e+00
0.000000e+00
0.000000e+00
0.000000e+00
0.000000e+00
0.000000e+00
0.000000e+00
0.000000e+00
0.000000e+00
0.000000e+00
0.000000e+00
0.000000e+00
0.000000e+00
1.250000e+01
1.250000e+01
1.250000e+01
1.250000e+01
1.250000e+01
1.250000e+01
1.250000e+01
1.250000e+01
1.250000e+01
1.250000e+01
1.250000e+01
1.250000e+01
1.250000e+01
1.250000e+01
1.250000e+01
1.250000e+01
1.250000e+01
2.500000e+01
2.500000e+01
2.500000e+01
2.500000e+01
2.500000e+01
2.500000e+01
2.500000e+01
2.500000e+01
2.500000e+01
2.500000e+01
2.500000e+01
2.500000e+01
2.500000e+01
2.500000e+01
2.500000e+01
2.500000e+01
2.500000e+01
3.750000e+01
3.750000e+01
3.750000e+01
3.750000e+01
3.750000e+01
3.750000e+01
3.750000e+01
3.750000e+01
3.750000e+01
3.750000e+01
3.750000e+01
3.750000e+01
3.750000e+01
3.750000e+01
3.750000e+01
3.750000e+01
3.750000e+01
5.000000e+01
5.000000e+01
5.000000e+01
5.000000e+01
5.000000e+01
5.000000e+01
5.000000e+01
5.000000e+01
5.000000e+01
5.000000e+01
5.000000e+01
5.000000e+01
5.000000e+01
5.000000e+01
5.000000e+01
5.000000e+01
5.000000e+01
6.250000e+01
6.250000e+01
6.250000e+01
6.250000e+01
6.250000e+01
6.250000e+01
6.250000e+01
6.250000e+01
6.250000e+01
6.250000e+01
6.250000e+01
6.250000e+01
6.250000e+01
6.250000e+01
6.250000e+01
6.250000e+01
6.250000e+01
7.500000e+01
7.500000e+01
7.500000e+01
7.500000e+01
7.500000e+01
7.500000e+01
7.500000e+01
7.500000e+01
7.500000e+01
7.500000e+01
7.500000e+01
7.500000e+01
7.500000e+01
7.500000e+01
7.500000e+01
7.500000e+01
7.500000e+01
8.750000e+01
8.750000e+01
8.750000e+01
8.750000e+01
8.750000e+01
8.750000e+01
8.750000e+01
8.750000e+01
8.750000e+01
8.750000e+01
8.750000e+01
8.750000e+01
8.750000e+01
8.750000e+01
8.750000e+01
8.750000e+01
8.750000e+01
1.000000e+02
1.000000e+02
1.000000e+02
1.000000e+02
1.000000e+02
1.000000e+02
1.000000e+02
1.000000e+02
1.000000e+02
1.000000e+02
1.000000e+02
1.000000e+02
1.000000e+02
1.000000e+02
1.000000e+02
1.000000e+02
1.000000e+02
0.000000e+00
-9.642866e-01
-1.653504e+00
-2.384330e+00
-3.065897e+00
-3.719183e+00
-4.403392e+00
-5.061365e+00
-5.715527e+00
-6.375736e+00
-7.035375e+00
-7.691376e+00
-8.391958e+00
-9.174054e+00
-1.002201e+01
-1.075334e+01
-1.120571e+01
0.000000e+00
-4.463418e-01
-9.194786e-01
-1.425592e+00
-1.940683e+00
-2.426963e+00
-2.938757e+00
-3.440388e+00
-3.932929e+00
-4.435495e+00
-4.933684e+00
-5.423627e+00
-5.923123e+00
-6.435337e+00
-6.845146e+00
-6.952628e+00
-7.127755e+00
0.000000e+00
-1.680760e-01
-3.898162e-01
-6.876387e-01
-1.028163e+00
-1.355754e+00
-1.707807e+00
-2.056293e+00
-2.400483e+00
-2.749510e+00
-3.087170e+00
-3.404959e+00
-3.687745e+00
-3.903246e+00
-3.984766e+00
-3.972050e+00
-4.122710e+00
0.000000e+00
-8.189882e-02
-1.716935e-01
-3.155900e-01
-4.621683e-01
-6.343749e-01
-8.089920e-01
-9.812633e-01
-1.154970e+00
-1.320029e+00
-1.473728e+00
-1.599098e+00
-1.671325e+00
-1.666774e+00
-1.596796e+00
-1.585677e+00
-1.711072e+00
0.000000e+00
-2.389775e-03
-5.056643e-03
-7.429358e-03
-9.318063e-03
-9.753241e-03
-7.314449e-03
-6.940632e-04
1.216109e-02
3.465990e-02
6.978192e-02
1.269264e-01
2.153792e-01
3.324124e-01
4.438144e-01
4.697122e-01
3.680574e-01
0.000000e+00
7.780864e-02
1.635793e-01
3.027367e-01
4.456839e-01
6.165642e-01
7.947131e-01
9.778928e-01
1.175574e+00
1.380700e+00
1.600089e+00
1.827414e+00
2.045159e+00
2.234358e+00
2.363044e+00
2.391955e+00
2.327687e+00
0.000000e+00
1.664221e-01
3.866148e-01
6.820911e-01
1.019504e+00
1.346327e+00
1.698674e+00
2.052401e+00
2.413013e+00
2.786347e+00
3.158124e+00
3.528907e+00
3.863144e+00
4.123175e+00
4.287841e+00
4.342716e+00
4.323896e+00
0.000000e+00
4.461189e-01
9.201565e-01
1.425855e+00
1.938924e+00
2.425785e+00
2.934592e+00
3.429780e+00
3.919900e+00
4.409127e+00
4.884791e+00
5.358694e+00
5.794240e+00
6.126424e+00
6.333570e+00
6.423880e+00
6.440028e+00
0.000000e+00
9.648178e-01
1.657146e+00
2.390125e+00
3.072649e+00
3.729951e+00
4.413688e+00
5.060187e+00
5.702314e+00
6.325112e+00
6.923311e+00
7.517246e+00
8.048183e+00
8.425544e+00
8.620870e+00
8.673620e+00
8.674193e+00
0.000000e+00
-6.003809e-01
-1.310190e+00
-2.260046e+00
-3.380575e+00
-4.670696e+00
-6.142981e+00
-7.778218e+00
-9.583945e+00
-1.156187e+01
-1.370400e+01
-1.601271e+01
-1.850941e+01
-2.121749e+01
-2.415861e+01
-2.752267e+01
-3.252613e+01
0.000000e+00
-3.978486e-01
-1.142020e+00
-2.076275e+00
-3.209225e+00
-4.495400e+00
-5.966279e+00
-7.606665e+00
-9.411041e+00
-1.138960e+01
-1.353446e+01
-1.584303e+01
-1.832952e+01
-2.103705e+01
-2.402838e+01
-2.743233e+01
-3.149909e+01
0.000000e+00
-3.647347e-01
-1.040152e+00
-1.968770e+00
-3.088190e+00
-4.371703e+00
-5.842038e+00
-7.482052e+00
-9.289284e+00
-1.127127e+01
-1.342519e+01
-1.574552e+01
-1.824570e+01
-2.097884e+01
-2.402113e+01
-2.727173e+01
-3.029598e+01
0.000000e+00
-4.106815e-01
-1.029420e+00
-1.934724e+00
-3.021974e+00
-4.304503e+00
-5.772465e+00
-7.411359e+00
-9.226650e+00
-1.121584e+01
-1.338539e+01
-1.573104e+01
-1.825429e+01
-2.098494e+01
-2.396210e+01
-2.695662e+01
-2.954593e+01
0.000000e+00
-4.199768e-01
-1.044395e+00
-1.920880e+00
-3.008843e+00
-4.287117e+00
-5.756579e+00
-7.400882e+00
-9.222742e+00
-1.122274e+01
-1.340375e+01
-1.576924e+01
-1.829855e+01
-2.098819e+01
-2.381861e+01
-2.659658e+01
-2.894375e+01
0.000000e+00
-4.097571e-01
-1.029806e+00
-1.937575e+00
-3.028448e+00
-4.317651e+00
-5.795524e+00
-7.444401e+00
-9.276786e+00
-1.128200e+01
-1.346338e+01
-1.582694e+01
-1.834431e+01
-2.098080e+01
-2.368012e+01
-2.628290e+01
-2.851796e+01
0.000000e+00
-3.636274e-01
-1.040935e+00
-1.973647e+00
-3.098955e+00
-4.394267e+00
-5.881344e+00
-7.540332e+00
-9.375140e+00
-1.138294e+01
-1.355367e+01
-1.590060e+01
-1.839849e+01
-2.098779e+01
-2.359231e+01
-2.608154e+01
-2.830493e+01
0.000000e+00
-3.969126e-01
-1.142815e+00
-2.081306e+00
-3.221284e+00
-4.520300e+00
-6.010268e+00
-7.673819e+00
-9.507612e+00
-1.151396e+01
-1.367619e+01
-1.600646e+01
-1.848268e+01
-2.103239e+01
-2.357074e+01
-2.599429e+01
-2.824965e+01
0.000000e+00
-5.999761e-01
-1.311531e+00
-2.265112e+00
-3.393271e+00
-4.696301e+00
-6.186233e+00
-7.844509e+00
-9.677658e+00
-1.167735e+01
-1.383530e+01
-1.615686e+01
-1.860496e+01
-2.110948e+01
-2.359463e+01
-2.597869e+01
-2.824896e+01


0.000000e+00
1.490045e-05
2.485715e-05
3.696673e-05
5.229589e-05
6.560339e-05
7.995541e-05
9.464917e-05
1.084028e-04
1.233231e-04
1.377826e-04
1.520481e-04
1.686756e-04
1.807800e-04
1.870107e-04
1.914451e-04
1.974766e-04
0.000000e+00
1.101881e-05
1.973242e-05
2.850562e-05
4.109269e-05
5.164063e-05
6.187570e-05
7.301122e-05
8.323437e-05
9.389246e-05
1.037775e-04
1.133956e-04
1.239753e-04
1.299457e-04
1.295859e-04
1.329382e-04
1.384852e-04
0.000000e+00
9.129989e-06
1.517365e-05
2.092693e-05
3.000293e-05
3.695571e-05
4.342483e-05
5.074051e-05
5.695660e-05
6.315009e-05
6.845185e-05
7.288312e-05
7.679771e-05
7.738338e-05
7.640651e-05
7.885638e-05
8.332308e-05
0.000000e+00
4.951135e-06
7.192846e-06
1.077872e-05
1.497157e-05
1.769100e-05
2.125192e-05
2.435829e-05
2.665853e-05
2.897478e-05
3.020470e-05
3.000085e-05
2.876508e-05
2.733535e-05
2.776402e-05
3.105102e-05
3.638241e-05
0.000000e+00
-6.963215e-08
-1.754194e-07
-3.173194e-07
-5.065318e-07
-7.436242e-07
-1.051765e-06
-1.464158e-06
-2.078172e-06
-3.192324e-06
-5.074196e-06
-7.894783e-06
-1.073097e-05
-1.243668e-05
-1.186207e-05
-9.396509e-06
-5.812729e-06
0.000000e+00
-5.056613e-06
-7.460464e-06
-1.129105e-05
-1.579081e-05
-1.894619e-05
-2.295510e-05
-2.657362e-05
-2.970022e-05
-3.258242e-05
-3.548602e-05
-3.893270e-05
-4.220706e-05
-4.387208e-05
-4.490068e-05
-4.539658e-05
-4.431265e-05
0.000000e+00
-9.139333e-06
-1.522968e-05
-2.109274e-05
-3.040416e-05
-3.761867e-05
-4.427025e-05
-5.198953e-05
-5.802295e-05
-6.327160e-05
-6.824519e-05
-7.225749e-05
-7.543275e-05
-7.801059e-05
-7.995705e-05
-8.166632e-05
-8.228466e-05
0.000000e+00
-1.098827e-05
-1.968376e-05
-2.842513e-05
-4.106890e-05
-5.166889e-05
-6.180960e-05
-7.323427e-05
-8.332836e-05
-9.335801e-05
-1.035296e-04
-1.114885e-04
-1.164906e-04
-1.201673e-04
-1.224384e-04
-1.232758e-04
-1.234467e-04
0.000000e+00
-1.492680e-05
-2.483899e-05
-3.680756e-05
-5.197119e-05
-6.509882e-05
-7.905837e-05
-9.349762e-05
-1.073196e-04
-1.221127e-04
-1.385224e-04
-1.525305e-04
-1.617608e-04
-1.661128e-04
-1.674396e-04
-1.672408e-04
-1.669979e-04
0.000000e+00
1.235960e-05
1.991348e-05
3.192137e-05
4.731484e-05
6.399473e-05
8.551922e-05
1.109797e-04
1.398665e-04
1.735737e-04
2.111109e-04
2.538371e-04
3.023305e-04
3.530966e-04
4.116610e-04
4.787423e-04
5.474293e-04
0.000000e+00
7.369649e-06
1.584278e-05
2.588519e-05
4.091721e-05
5.818075e-05
7.925947e-05
1.048652e-04
1.338413e-04
1.674082e-04
2.053158e-04
2.477079e-04
2.965394e-04
3.500628e-04
4.076690e-04
4.719533e-04
5.377541e-04
0.000000e+00
3.943607e-06
1.183707e-05
2.111967e-05
3.543104e-05
5.331760e-05
7.459129e-05
1.000650e-04
1.293992e-04
1.631983e-04
2.012182e-04
2.439520e-04
2.933347e-04
3.488823e-04
4.041439e-04
4.645303e-04
5.277551e-04
0.000000e+00
2.672936e-06
9.722043e-06
1.909131e-05
3.320909e-05
5.127143e-05
7.272754e-05
9.838507e-05
1.279122e-04
1.616859e-04
1.999272e-04
2.428207e-04
2.927853e-04
3.479330e-04
4.016915e-04
4.566453e-04
5.138843e-04
0.000000e+00
2.245418e-06
9.142626e-06
1.860487e-05
3.267734e-05
5.070330e-05
7.218831e-05
9.792733e-05
1.276023e-04
1.612540e-04
1.993239e-04
2.431039e-04
2.931362e-04
3.483461e-04
4.007933e-04
4.504016e-04
4.997012e-04
0.000000e+00
2.758560e-06
9.850003e-06
1.923320e-05
3.332224e-05
5.133557e-05
7.263654e-05
9.817797e-05
1.277682e-04
1.611873e-04
1.996953e-04
2.447729e-04
2.953359e-04
3.488412e-04
4.011630e-04
4.483870e-04
4.908962e-04
0.000000e+00
4.062598e-06
1.204269e-05
2.135821e-05
3.563736e-05
5.341612e-05
7.435613e-05
9.962583e-05
1.286786e-04
1.621293e-04
2.015422e-04
2.479075e-04
2.985241e-04
3.501686e-04
4.004735e-04
4.468477e-04
4.884858e-04
0.000000e+00
7.480843e-06
1.606799e-05
2.618467e-05
4.120049e-05
5.830810e-05
7.910520e-05
1.043107e-04
1.327062e-04
1.660678e-04
2.058117e-04
2.516636e-04
3.012513e-04
3.513980e-04
4.000537e-04
4.458013e-04
4.889163e-04
0.000000e+00
1.247033e-05
2.012988e-05
3.222770e-05
4.763234e-05
6.412847e-05
8.541527e-05
1.105235e-04
1.386780e-04
1.723602e-04
2.120468e-04
2.558324e-04
3.034802e-04
3.521401e-04
4.000421e-04
4.454689e-04
4.891950e-04


4.292854e+00
4.357096e+00
4.563364e+00
4.070700e+00
3.729930e+00
3.876596e+00
3.992953e+00
4.215617e+00
4.568511e+00
4.990875e+00
5.571373e+00
6.660432e+00
7.958628e+00
8.532489e+00
7.682589e+00
6.514166e+00
6.614467e+00
6.647774e+00
6.642851e+00
6.395084e+00
6.124499e+00
6.223224e+00
6.295436e+00
6.392412e+00
6.612632e+00
6.827399e+00
7.135004e+00
7.703655e+00
8.383229e+00
8.420462e+00
7.055753e+00
5.348785e+00
8.654586e+00
8.617406e+00
8.630742e+00
8.465426e+00
8.404610e+00
8.432239e+00
8.429369e+00
8.452510e+00
8.489639e+00
8.528104e+00
8.520907e+00
8.536925e+00
8.551019e+00
8.152528e+00
6.732568e+00
5.223791e+00
9.242266e+00
9.229359e+00
9.220799e+00
9.177576e+00
9.161820e+00
9.157721e+00
9.140156e+00
9.117868e+00
9.073084e+00
8.966812e+00
8.704038e+00
8.212744e+00
7.818563e+00
7.556594e+00
7.060384e+00
6.546074e+00
9.240988e+00
9.226709e+00
9.216141e+00
9.168211e+00
9.148065e+00
9.138395e+00
9.109580e+00
9.070509e+00
8.970391e+00
8.719297e+00
8.208774e+00
7.463646e+00
7.009896e+00
7.230842e+00
7.703975e+00
7.918550e+00
8.646847e+00
8.606448e+00
8.606292e+00
8.418097e+00
8.334471e+00
8.333321e+00
8.291649e+00
8.250715e+00
8.074377e+00
7.789013e+00
7.513728e+00
7.212009e+00
7.261726e+00
7.816159e+00
8.475663e+00
8.827737e+00
6.598152e+00
6.629536e+00
6.608357e+00
6.325914e+00
6.025694e+00
6.080925e+00
6.112523e+00
6.131436e+00
6.119304e+00
6.249580e+00
6.810184e+00
7.540473e+00
8.124833e+00
8.670119e+00
9.044593e+00
9.204258e+00
4.270725e+00
4.344642e+00
4.544232e+00
4.028117e+00
3.673464e+00
3.796683e+00
3.900359e+00
4.128210e+00
4.396432e+00
5.091064e+00
6.491860e+00
7.847484e+00
8.663003e+00
9.062751e+00
9.244824e+00
9.316798e+00


-7.438531e-01
-2.028974e-01
-3.382104e-01
-2.567690e-01
-1.430934e-01
-2.563982e-01
-1.854922e-01
-1.621327e-01
-1.972636e-01
-1.885621e-01
-1.656932e-01
-2.733621e-01
-4.628472e-01
-3.497802e-01
3.792756e-01
-8.325452e-01
5.970413e-01
4.498109e-01
3.089610e-01
2.307884e-01
2.900744e-01
1.956777e-01
2.012855e-01
2.048219e-01
1.601767e-01
1.713635e-01
2.161250e-01
2.730353e-01
3.799036e-01
6.406361e-01
7.150656e-01
-1.054648e+00
7.613388e-01
5.382608e-01
2.404564e-01
1.779398e-01
1.532656e-01
9.062170e-02
1.083032e-01
1.149961e-01
1.263100e-01
1.633116e-01
2.362880e-01
3.377217e-01
3.956395e-01
2.453149e-01
4.591152e-02
-2.292787e-01
7.758109e-01
6.078666e-01
3.218205e-01
2.083762e-01
1.244688e-01
9.233589e-02
1.061980e-01
1.209638e-01
1.506644e-01
1.719932e-01
1.896054e-01
1.928405e-01
7.633896e-02
-2.547464e-01
-3.005561e-01
-3.561021e-02
7.779108e-01
6.102924e-01
3.256561e-01
2.103824e-01
1.209142e-01
7.835355e-02
8.176460e-02
7.354914e-02
8.435371e-02
8.420375e-02
5.736862e-02
2.789340e-02
-6.055517e-02
-1.981615e-01
-9.125030e-02
3.472663e-01
7.660826e-01
5.443306e-01
2.509467e-01
1.880486e-01
1.503230e-01
6.907364e-02
6.106540e-02
1.211487e-02
-2.324954e-02
-5.297352e-02
-1.221600e-01
-1.235480e-01
-5.962916e-02
6.178995e-02
3.498242e-01
7.544077e-01
6.002469e-01
4.513183e-01
3.131597e-01
2.374258e-01
2.848430e-01
1.858531e-01
1.752009e-01
1.281203e-01
4.787761e-02
6.918349e-04
-9.954948e-02
-7.455064e-02
1.425489e-01
4.230786e-01
7.320429e-01
9.525348e-01
-7.438847e-01
-2.109710e-01
-3.418914e-01
-2.550817e-01
-1.528911e-01
-2.511897e-01
-1.547033e-01
-1.421773e-01
-1.137294e-01
-5.638326e-02
-6.892471e-02
9.117446e-02
4.678450e-01
7.877684e-01
9.547691e-01
9.988426e-01
1 2 19 18
2 3 20 19
3 4 21 20
4 5 22 21
5 6 23 22
6 7 24 23
7 8 25 24
8 9 26 25
9 10 27 26
10 11 28 27
11 12 29 28
12 13 30 29
13 14 31 30
14 15 32 31
15 16 33 32
16 17 34 33
18 19 36 35
19 20 37 36
20 21 38 37
21 22 39 38
22 23 40 39
23 24 41 40
24 25 42 41
25 26 43 42
26 27 44 43
27 28 45 44
28 29 46 45
29 30 47 46
30 31 48 47
31 32 49 48
32 33 50 49
33 34 51 50
35 36 53 52
36 37 54 53
37 38 55 54
38 39 56 55
39 40 57 56
40 41 58 57
41 42 59 58
42 43 60 59
43 44 61 60
44 45 62 61
45 46 63 62
46 47 64 63
47 48 65 64
48 49 66 65
49 50 67 66
50 51 68 67
52 53 70 69
53 54 71 70
54 55 72 71
55 56 73 72
56 57 74 73
57 58 75 74
58 59 76 75
59 60 77 76
60 61 78 77
61 62 79 78
62 63 80 79
63 64 81 80
64 65 82 81
65 66 83 82
66 67 84 83
67 68 85 84
69 70 87 86
70 71 88 87
71 72 89 88
72 73 90 89
73 74 91 90
74 75 92 91
75 76 93 92
76 77 94 93
77 78 95 94
78 79 96 95
79 80 97 96
80 81 98 97
81 82 99 98
82 83 100 99
83 84 101 100
84 85 102 101
86 87 104 103
87 88 105 104
88 89 106 105
89 90 107 106
90 91 108 107
91 92 109 108
92 93 110 109
93 94 111 110
94 95 112 111
95 96 113 112
96 97 114 113
97 98 115 114
98 99 116 115
99 100 117 116
100 101 118 117
101 102 119 118
103 104 121 120
104 105 122 121
105 106 123 122
106 107 124 123
107 108 125 124
108 109 126 125
109 110 127 126
110 111 128 127
111 112 129 128
112 113 130 129
113 114 131 130
114 115 132 131
115 116 133 132
116 117 134 133
117 118 135 134
118 119 136 135
120 121 138 137
121 122 139 138
122 123 140 139
123 124 141 140
124 125 142 141
125 126 143 142
126 127 144 143
127 128 145 144
128 129 146 145
129 130 147 146
130 131 148 147
131 132 149 148
132 133 150 149
133 134 151 150
134 135 152 151
135 136 153 152
