TITLE = "Solution"
VARIABLES = x, y, u, v, psiu, psiv, t, stress
ZONE T="structure" N=153 E=128 F=FEBLOCK ET=QUADRILATERAL VARLOCATION=([7,8]=cellcentered)
0.000000e+00
1.250000e+01
2.500000e+01
3.750000e+01
5.000000e+01
6.250000e+01
7.500000e+01
8.750000e+01
1.000000e+02
1.125000e+02
1.250000e+02
1.375000e+02
1.500000e+02
1.625000e+02
1.750000e+02
1.875000e+02
2.000000e+02
0.000000e+00
1.250000e+01
2.500000e+01
3.750000e+01
5.000000e+01
6.250000e+01
7.500000e+01
8.750000e+01
1.000000e+02
1.125000e+02
1.250000e+02
1.375000e+02
1.500000e+02
1.625000e+02
1.750000e+02
1.875000e+02
2.000000e+02
0.000000e+00
1.250000e+01
2.500000e+01
3.750000e+01
5.000000e+01
6.250000e+01
7.500000e+01
8.750000e+01
1.000000e+02
1.125000e+02
1.250000e+02
1.375000e+02
1.500000e+02
1.625000e+02
1.750000e+02
1.875000e+02
2.000000e+02
0.000000e+00
1.250000e+01
2.500000e+01
3.750000e+01
5.000000e+01
6.250000e+01
7.500000e+01
8.750000e+01
1.000000e+02
1.125000e+02
1.250000e+02
1.375000e+02
1.500000e+02
1.625000e+02
1.750000e+02
1.875000e+02
2.000000e+02
0.000000e+00
1.250000e+01
2.500000e+01
3.750000e+01
5.000000e+01
6.250000e+01
7.500000e+01
8.750000e+01
1.000000e+02
1.125000e+02
1.250000e+02
1.375000e+02
1.500000e+02
1.625000e+02
1.750000e+02
1.875000e+02
2.000000e+02
0.000000e+00
1.250000e+01
2.500000e+01
3.750000e+01
5.000000e+01
6.250000e+01
7.500000e+01
8.750000e+01
1.000000e+02
1.125000e+02
1.250000e+02
1.375000e+02
1.500000e+02
1.625000e+02
1.750000e+02
1.875000e+02
2.000000e+02
0.000000e+00
1.250000e+01
2.500000e+01
3.750000e+01
5.000000e+01
6.250000e+01
7.500000e+01
8.750000e+01
1.000000e+02
1.125000e+02
1.250000e+02
1.375000e+02
1.500000e+02
1.625000e+02
1.750000e+02
1.875000e+02
2.000000e+02
0.000000e+00
1.250000e+01
2.500000e+01
3.750000e+01
5.000000e+01
6.250000e+01
7.500000e+01
8.750000e+01
1.000000e+02
1.125000e+02
1.250000e+02
1.375000e+02
1.500000e+02
1.625000e+02
1.750000e+02
1.875000e+02
2.000000e+02
0.000000e+00
1.250000e+01
2.500000e+01
3.750000e+01
5.000000e+01
6.250000e+01
7.500000e+01
8.750000e+01
1.000000e+02
1.125000e+02
1.250000e+02
1.375000e+02
1.500000e+02
1.625000e+02
1.750000e+02
1.875000e+02
2.000000e+02
0.000000e+00
0.000000e+00
0.000000e+00
0.000000e+00
0.000000e+00
0.000000e+00
0.000000e+00
0.000000e+00
0.000000e+00
0.000000e+00
0.000000e+00
0.000000e+00
0.000000e+00
0.000000e+00
0.000000e+00
0.000000e+00
0.000000e+00
1.250000e+01
1.250000e+01
1.250000e+01
1.250000e+01
1.250000e+01
1.250000e+01
1.250000e+01
1.250000e+01
1.250000e+01
1.250000e+01
1.250000e+01
1.250000e+01
1.250000e+01
1.250000e+01
1.250000e+01
1.250000e+01
1.250000e+01
2.500000e+01
2.500000e+01
2.500000e+01
2.500000e+01
2.500000e+01
2.500000e+01
2.500000e+01
2.500000e+01
2.500000e+01
2.500000e+01
2.500000e+01
2.500000e+01
2.500000e+01
2.500000e+01
2.500000e+01
2.500000e+01
2.500000e+01
3.750000e+01
3.750000e+01
3.750000e+01
3.750000e+01
3.750000e+01
3.750000e+01
3.750000e+01
3.750000e+01
3.750000e+01
3.750000e+01
3.750000e+01
3.750000e+01
3.750000e+01
3.750000e+01
3.750000e+01
3.750000e+01
3.750000e+01
5.000000e+01
5.000000e+01
5.000000e+01
5.000000e+01
5.000000e+01
5.000000e+01
5.000000e+01
5.000000e+01
5.000000e+01
5.000000e+01
5.000000e+01
5.000000e+01
5.000000e+01
5.000000e+01
5.000000e+01
5.000000e+01
5.000000e+01
6.250000e+01
6.250000e+01
6.250000e+01
6.250000e+01
6.250000e+01
6.250000e+01
6.250000e+01
6.250000e+01
6.250000e+01
6.250000e+01
6.250000e+01
6.250000e+01
6.250000e+01
6.250000e+01
6.250000e+01
6.250000e+01
6.250000e+01
7.500000e+01
7.500000e+01
7.500000e+01
7.500000e+01
7.500000e+01
7.500000e+01
7.500000e+01
7.500000e+01
7.500000e+01
7.500000e+01
7.500000e+01
7.500000e+01
7.500000e+01
7.500000e+01
7.500000e+01
7.500000e+01
7.500000e+01
8.750000e+01
8.750000e+01
8.750000e+01
8.750000e+01
8.750000e+01
8.750000e+01
8.750000e+01
8.750000e+01
8.750000e+01
8.750000e+01
8.750000e+01
8.750000e+01
8.750000e+01
8.750000e+01
8.750000e+01
8.750000e+01
8.750000e+01
1.000000e+02
1.000000e+02
1.000000e+02
1.000000e+02
1.000000e+02
1.000000e+02
1.000000e+02
1.000000e+02
1.000000e+02
1.000000e+02
1.000000e+02
1.000000e+02
1.000000e+02
1.000000e+02
1.000000e+02
1.000000e+02
1.000000e+02
0.000000e+00
-9.891588e-01
-1.679803e+00
-2.428893e+00
-3.109929e+00
-3.755416e+00
-4.452412e+00
-5.088021e+00
-5.761777e+00
-6.402152e+00
-7.058831e+00
-7.718476e+00
-8.376400e+00
-9.153466e+00
-1.007536e+01
-1.082829e+01
-1.127877e+01
0.000000e+00
-4.435367e-01
-9.095813e-01
-1.419326e+00
-1.929909e+00
-2.414381e+00
-2.926503e+00
-3.424655e+00
-3.921529e+00
-4.422115e+00
-4.917824e+00
-5.417321e+00
-5.902438e+00
-6.425858e+00
-6.894184e+00
-7.017929e+00
-7.196530e+00
0.000000e+00
-1.476397e-01
-3.529464e-01
-6.428920e-01
-9.808460e-01
-1.307187e+00
-1.661110e+00
-2.015317e+00
-2.360905e+00
-2.720078e+00
-3.059982e+00
-3.392798e+00
-3.686759e+00
-3.925758e+00
-4.031896e+00
-4.028743e+00
-4.177741e+00
0.000000e+00
-7.866941e-02
-1.624709e-01
-3.086709e-01
-4.529913e-01
-6.280254e-01
-8.094783e-01
-9.779444e-01
-1.162031e+00
-1.324401e+00
-1.486107e+00
-1.623810e+00
-1.715877e+00
-1.722926e+00
-1.650760e+00
-1.632114e+00
-1.750733e+00
0.000000e+00
-2.850258e-03
-6.240357e-03
-9.735846e-03
-1.285026e-02
-1.462929e-02
-1.393116e-02
-9.388414e-03
-1.089774e-04
1.679351e-02
4.120769e-02
8.507231e-02
1.662807e-01
2.802491e-01
3.984571e-01
4.371240e-01
3.387538e-01
0.000000e+00
7.378946e-02
1.522634e-01
2.918857e-01
4.305700e-01
6.013693e-01
7.834338e-01
9.604738e-01
1.164138e+00
1.356732e+00
1.569736e+00
1.789798e+00
2.013483e+00
2.216384e+00
2.351036e+00
2.383876e+00
2.318740e+00
0.000000e+00
1.458823e-01
3.484127e-01
6.346412e-01
9.682734e-01
1.290806e+00
1.643522e+00
2.003681e+00
2.371009e+00
2.770724e+00
3.147335e+00
3.514425e+00
3.848582e+00
4.120621e+00
4.294612e+00
4.349584e+00
4.327521e+00
0.000000e+00
4.447546e-01
9.101491e-01
1.419968e+00
1.930021e+00
2.411893e+00
2.921353e+00
3.415122e+00
3.904753e+00
4.397370e+00
4.875744e+00
5.350819e+00
5.782498e+00
6.128318e+00
6.343807e+00
6.438692e+00
6.456069e+00
0.000000e+00
9.916243e-01
1.683601e+00
2.436959e+00
3.123095e+00
3.770626e+00
4.469901e+00
5.097245e+00
5.740406e+00
6.329186e+00
6.906316e+00
7.505867e+00
8.039535e+00
8.446733e+00
8.648831e+00
8.702425e+00
8.703078e+00
0.000000e+00
-6.161899e-01
-1.357650e+00
-2.354301e+00
-3.525184e+00
-4.867488e+00
-6.394294e+00
-8.078637e+00
-9.936646e+00
-1.195717e+01
-1.414085e+01
-1.648643e+01
-1.899874e+01
-2.172920e+01
-2.469019e+01
-2.805093e+01
-3.306705e+01
0.000000e+00
-4.123680e-01
-1.188678e+00
-2.169144e+00
-3.355231e+00
-4.692345e+00
-6.217859e+00
-7.908805e+00
-9.761496e+00
-1.178891e+01
-1.396864e+01
-1.631981e+01
-1.882414e+01
-2.153728e+01
-2.455145e+01
-2.796640e+01
-3.201921e+01
0.000000e+00
-3.859334e-01
-1.087480e+00
-2.065535e+00
-3.234764e+00
-4.567652e+00
-6.096221e+00
-7.780533e+00
-9.642244e+00
-1.166763e+01
-1.385872e+01
-1.622023e+01
-1.873599e+01
-2.147525e+01
-2.454232e+01
-2.781323e+01
-3.084457e+01
0.000000e+00
-4.441333e-01
-1.083376e+00
-2.038959e+00
-3.170457e+00
-4.499145e+00
-6.031150e+00
-7.706365e+00
-9.584796e+00
-1.161063e+01
-1.382179e+01
-1.620264e+01
-1.874536e+01
-2.148461e+01
-2.447446e+01
-2.750249e+01
-3.012225e+01
0.000000e+00
-4.520490e-01
-1.104738e+00
-2.022728e+00
-3.158057e+00
-4.485256e+00
-6.011002e+00
-7.703593e+00
-9.578024e+00
-1.162433e+01
-1.384557e+01
-1.623741e+01
-1.878715e+01
-2.148583e+01
-2.432365e+01
-2.713726e+01
-2.951933e+01
0.000000e+00
-4.430100e-01
-1.082652e+00
-2.040536e+00
-3.177815e+00
-4.513557e+00
-6.057745e+00
-7.745685e+00
-9.641115e+00
-1.169039e+01
-1.391291e+01
-1.628970e+01
-1.882041e+01
-2.147553e+01
-2.418708e+01
-2.681891e+01
-2.908469e+01
0.000000e+00
-3.843733e-01
-1.086561e+00
-2.068496e+00
-3.246805e+00
-4.593700e+00
-6.143458e+00
-7.855552e+00
-9.747657e+00
-1.180364e+01
-1.400011e+01
-1.635668e+01
-1.886155e+01
-2.147619e+01
-2.410319e+01
-2.661245e+01
-2.885468e+01
0.000000e+00
-4.108966e-01
-1.187708e+00
-2.172203e+00
-3.368020e+00
-4.721087e+00
-6.271667e+00
-7.996732e+00
-9.885571e+00
-1.193976e+01
-1.411699e+01
-1.645585e+01
-1.893906e+01
-2.151808e+01
-2.408252e+01
-2.652439e+01
-2.879473e+01
0.000000e+00
-6.150696e-01
-1.357114e+00
-2.358212e+00
-3.538521e+00
-4.896766e+00
-6.448737e+00
-8.165050e+00
-1.005651e+01
-1.209679e+01
-1.427284e+01
-1.660470e+01
-1.906264e+01
-2.159935e+01
-2.410741e+01
-2.650922e+01
-2.879360e+01


0.000000e+00
1.536368e-05
2.507286e-05
3.728170e-05
5.315973e-05
6.661517e-05
8.192835e-05
9.647487e-05
1.106439e-04
1.253372e-04
1.405361e-04
1.548249e-04
1.720551e-04
1.871214e-04
1.959127e-04
2.012762e-04
2.081321e-04
0.000000e+00
1.146184e-05
1.979022e-05
2.842226e-05
4.119952e-05
5.182002e-05
6.212355e-05
7.342641e-05
8.352784e-05
9.477566e-05
1.053190e-04
1.151817e-04
1.264992e-04
1.352362e-04
1.358161e-04
1.394814e-04
1.453197e-04
0.000000e+00
9.605617e-06
1.519188e-05
2.052965e-05
2.966038e-05
3.642363e-05
4.257223e-05
5.009110e-05
5.604164e-05
6.298045e-05
6.904495e-05
7.391183e-05
7.857170e-05
8.022287e-05
7.908961e-05
8.146942e-05
8.574605e-05
0.000000e+00
5.232938e-06
7.075474e-06
1.011449e-05
1.408487e-05
1.548720e-05
1.847000e-05
2.093814e-05
2.363103e-05
2.665879e-05
2.908051e-05
2.933306e-05
2.831737e-05
2.658368e-05
2.647387e-05
2.956836e-05
3.521736e-05
0.000000e+00
-1.296205e-07
-3.281856e-07
-6.368178e-07
-1.215250e-06
-1.977056e-06
-3.244346e-06
-4.650962e-06
-5.271940e-06
-6.155168e-06
-8.097908e-06
-1.175406e-05
-1.458857e-05
-1.585362e-05
-1.546445e-05
-1.322882e-05
-9.294635e-06
0.000000e+00
-5.418829e-06
-7.508692e-06
-1.099975e-05
-1.540265e-05
-1.756461e-05
-2.214045e-05
-2.596804e-05
-3.057700e-05
-3.350699e-05
-3.736140e-05
-4.225470e-05
-4.687813e-05
-4.827615e-05
-4.878797e-05
-4.929294e-05
-4.767836e-05
0.000000e+00
-9.561879e-06
-1.521514e-05
-2.069460e-05
-2.983166e-05
-3.668334e-05
-4.282138e-05
-5.099574e-05
-5.752351e-05
-6.382300e-05
-6.869977e-05
-7.346948e-05
-7.760706e-05
-8.080347e-05
-8.270541e-05
-8.458573e-05
-8.532673e-05
0.000000e+00
-1.137836e-05
-1.969448e-05
-2.833362e-05
-4.099864e-05
-5.179679e-05
-6.193933e-05
-7.337449e-05
-8.368147e-05
-9.463687e-05
-1.050426e-04
-1.127991e-04
-1.177585e-04
-1.226755e-04
-1.260969e-04
-1.273114e-04
-1.274087e-04
0.000000e+00
-1.538607e-05
-2.503024e-05
-3.715349e-05
-5.289578e-05
-6.623035e-05
-8.135413e-05
-9.497753e-05
-1.091104e-04
-1.237066e-04
-1.413446e-04
-1.563997e-04
-1.656096e-04
-1.706289e-04
-1.728263e-04
-1.730080e-04
-1.728155e-04
0.000000e+00
1.261933e-05
2.000326e-05
3.234524e-05
4.837813e-05
6.584544e-05
8.912389e-05
1.164957e-04
1.477064e-04
1.834755e-04
2.228262e-04
2.667839e-04
3.173646e-04
3.710775e-04
4.323038e-04
5.029042e-04
5.757625e-04
0.000000e+00
7.673815e-06
1.610669e-05
2.624935e-05
4.191727e-05
5.995444e-05
8.269424e-05
1.104993e-04
1.415767e-04
1.771757e-04
2.167098e-04
2.605438e-04
3.107425e-04
3.666408e-04
4.274066e-04
4.955687e-04
5.653723e-04
0.000000e+00
4.292749e-06
1.224796e-05
2.149207e-05
3.616058e-05
5.478812e-05
7.757400e-05
1.058317e-04
1.371634e-04
1.726507e-04
2.121852e-04
2.563491e-04
3.070498e-04
3.645660e-04
4.235323e-04
4.881166e-04
5.555664e-04
0.000000e+00
3.094523e-06
1.038670e-05
1.964033e-05
3.394863e-05
5.185801e-05
7.516188e-05
1.046194e-04
1.366380e-04
1.709103e-04
2.102852e-04
2.552442e-04
3.066088e-04
3.632439e-04
4.209155e-04
4.803271e-04
5.413345e-04
0.000000e+00
2.671449e-06
9.947023e-06
1.942744e-05
3.349614e-05
5.087985e-05
7.441037e-05
1.049377e-04
1.371124e-04
1.703749e-04
2.088622e-04
2.557059e-04
3.071979e-04
3.633174e-04
4.197550e-04
4.739822e-04
5.254240e-04
0.000000e+00
3.217170e-06
1.054703e-05
1.993859e-05
3.418912e-05
5.177249e-05
7.555320e-05
1.054271e-04
1.374335e-04
1.702253e-04
2.093456e-04
2.576057e-04
3.096740e-04
3.634927e-04
4.195926e-04
4.716655e-04
5.147430e-04
0.000000e+00
4.428520e-06
1.246746e-05
2.184457e-05
3.639669e-05
5.491240e-05
7.796663e-05
1.064865e-04
1.374278e-04
1.714145e-04
2.117036e-04
2.608566e-04
3.131364e-04
3.653695e-04
4.185834e-04
4.690212e-04
5.115044e-04
0.000000e+00
7.784788e-06
1.634971e-05
2.658298e-05
4.221500e-05
6.026753e-05
8.316117e-05
1.109551e-04
1.412355e-04
1.757506e-04
2.162434e-04
2.642958e-04
3.160956e-04
3.674720e-04
4.185954e-04
4.670732e-04
5.120133e-04
0.000000e+00
1.271724e-05
2.024838e-05
3.266832e-05
4.872107e-05
6.624035e-05
8.962832e-05
1.168589e-04
1.474176e-04
1.821966e-04
2.230360e-04
2.683348e-04
3.181831e-04
3.687127e-04
4.188453e-04
4.665936e-04
5.122889e-04


5.376727e+00
5.868203e+00
6.561178e+00
5.612860e+00
4.959740e+00
5.202699e+00
5.399236e+00
5.739337e+00
5.649517e+00
5.804081e+00
6.122186e+00
7.023049e+00
8.711406e+00
9.663677e+00
8.969700e+00
7.816157e+00
7.876211e+00
8.237388e+00
8.432152e+00
8.139601e+00
7.733169e+00
7.833944e+00
8.025914e+00
8.037293e+00
8.117628e+00
8.100657e+00
8.240912e+00
8.666577e+00
9.371850e+00
9.666662e+00
8.228403e+00
6.322518e+00
9.720416e+00
9.710894e+00
9.865591e+00
9.701062e+00
9.690512e+00
9.730423e+00
9.673703e+00
9.751208e+00
9.691649e+00
9.738546e+00
9.734806e+00
9.729141e+00
9.746956e+00
9.249022e+00
7.799740e+00
6.013229e+00
9.933999e+00
9.932901e+00
9.932436e+00
9.926367e+00
9.920979e+00
9.913980e+00
9.906370e+00
9.905751e+00
9.905007e+00
9.892319e+00
9.839020e+00
9.325883e+00
8.690164e+00
8.231771e+00
7.770483e+00
7.596237e+00
9.933752e+00
9.932317e+00
9.931384e+00
9.923816e+00
9.915305e+00
9.903016e+00
9.883215e+00
9.881882e+00
9.872033e+00
9.756479e+00
9.180603e+00
8.321207e+00
7.460817e+00
7.522876e+00
8.392144e+00
8.883197e+00
9.720860e+00
9.708444e+00
9.859889e+00
9.686696e+00
9.656950e+00
9.646939e+00
9.530649e+00
9.567420e+00
9.245958e+00
8.648165e+00
8.110556e+00
7.623236e+00
7.801057e+00
8.443787e+00
9.238829e+00
9.799772e+00
7.885082e+00
8.238504e+00
8.423384e+00
8.114439e+00
7.683617e+00
7.712852e+00
7.776348e+00
7.654084e+00
7.419141e+00
7.042179e+00
7.268892e+00
8.226759e+00
8.991281e+00
9.601559e+00
9.875598e+00
9.919729e+00
5.402242e+00
5.876259e+00
6.557205e+00
5.599040e+00
4.941665e+00
5.135084e+00
5.204018e+00
5.486265e+00
5.439583e+00
5.979328e+00
7.531643e+00
8.907828e+00
9.786323e+00
9.898806e+00
9.927754e+00
9.938301e+00


-7.966869e-01
-1.932215e-01
-3.845956e-01
-2.466888e-01
-1.246114e-01
-2.817576e-01
-1.358120e-01
-2.075767e-01
-1.545293e-01
-1.772439e-01
-1.916011e-01
-1.599537e-01
-4.846176e-01
-6.455192e-01
3.245202e-01
-8.469895e-01
6.132119e-01
4.706529e-01
3.014145e-01
2.285714e-01
2.810970e-01
1.714111e-01
1.792744e-01
1.691543e-01
1.202042e-01
1.434357e-01
1.414886e-01
2.480963e-01
3.016702e-01
5.265074e-01
6.991428e-01
-9.517535e-01
7.291612e-01
4.742596e-01
7.526266e-02
4.792007e-03
-3.377731e-02
-1.494531e-01
-7.069011e-02
-1.138244e-01
-5.032490e-02
-4.496509e-03
5.936078e-02
2.042987e-01
2.906975e-01
1.576911e-01
-1.501856e-02
-1.791052e-01
7.341788e-01
5.584011e-01
2.034988e-01
7.943807e-02
-1.859033e-02
-7.836822e-02
-1.658300e-02
-4.282572e-02
3.054363e-02
3.706897e-02
7.654123e-02
1.234655e-01
5.760880e-02
-2.704017e-01
-3.753711e-01
-6.857059e-02
7.367355e-01
5.621710e-01
2.096637e-01
8.205576e-02
-1.874619e-02
-9.173541e-02
-3.828380e-02
-7.867201e-02
-2.624566e-02
-1.731774e-02
2.254362e-02
1.647089e-02
-3.649780e-02
-1.414805e-01
-1.041232e-01
3.198206e-01
7.350159e-01
4.845331e-01
9.131810e-02
1.588409e-02
-3.119910e-02
-1.723664e-01
-1.254975e-01
-2.093704e-01
-1.684423e-01
-9.629001e-02
-8.756563e-02
-1.033835e-01
-9.208091e-02
5.300620e-02
3.339883e-01
7.297317e-01
6.160615e-01
4.777449e-01
3.090766e-01
2.363804e-01
2.868142e-01
1.632663e-01
1.440954e-01
8.262098e-02
-4.455940e-02
-3.678571e-02
-1.013253e-01
-7.097472e-02
7.341142e-02
3.769088e-01
7.142099e-01
9.482302e-01
-8.040151e-01
-1.943620e-01
-3.937551e-01
-2.560358e-01
-1.242091e-01
-2.829834e-01
-1.160124e-01
-1.442164e-01
-6.151278e-02
-2.805518e-02
-8.993381e-02
8.611233e-02
3.989045e-01
7.728931e-01
9.525489e-01
9.987270e-01
1 2 19 18
2 3 20 19
3 4 21 20
4 5 22 21
5 6 23 22
6 7 24 23
7 8 25 24
8 9 26 25
9 10 27 26
10 11 28 27
11 12 29 28
12 13 30 29
13 14 31 30
14 15 32 31
15 16 33 32
16 17 34 33
18 19 36 35
19 20 37 36
20 21 38 37
21 22 39 38
22 23 40 39
23 24 41 40
24 25 42 41
25 26 43 42
26 27 44 43
27 28 45 44
28 29 46 45
29 30 47 46
30 31 48 47
31 32 49 48
32 33 50 49
33 34 51 50
35 36 53 52
36 37 54 53
37 38 55 54
38 39 56 55
39 40 57 56
40 41 58 57
41 42 59 58
42 43 60 59
43 44 61 60
44 45 62 61
45 46 63 62
46 47 64 63
47 48 65 64
48 49 66 65
49 50 67 66
50 51 68 67
52 53 70 69
53 54 71 70
54 55 72 71
55 56 73 72
56 57 74 73
57 58 75 74
58 59 76 75
59 60 77 76
60 61 78 77
61 62 79 78
62 63 80 79
63 64 81 80
64 65 82 81
65 66 83 82
66 67 84 83
67 68 85 84
69 70 87 86
70 71 88 87
71 72 89 88
72 73 90 89
73 74 91 90
74 75 92 91
75 76 93 92
76 77 94 93
77 78 95 94
78 79 96 95
79 80 97 96
80 81 98 97
81 82 99 98
82 83 100 99
83 84 101 100
84 85 102 101
86 87 104 103
87 88 105 104
88 89 106 105
89 90 107 106
90 91 108 107
91 92 109 108
92 93 110 109
93 94 111 110
94 95 112 111
95 96 113 112
96 97 114 113
97 98 115 114
98 99 116 115
99 100 117 116
100 101 118 117
101 102 119 118
103 104 121 120
104 105 122 121
105 106 123 122
106 107 124 123
107 108 125 124
108 109 126 125
109 110 127 126
110 111 128 127
111 112 129 128
112 113 130 129
113 114 131 130
114 115 132 131
115 116 133 132
116 117 134 133
117 118 135 134
118 119 136 135
120 121 138 137
121 122 139 138
122 123 140 139
123 124 141 140
124 125 142 141
125 126 143 142
126 127 144 143
127 128 145 144
128 129 146 145
129 130 147 146
130 131 148 147
131 132 149 148
132 133 150 149
133 134 151 150
134 135 152 151
135 136 153 152
