TITLE = "Solution"
VARIABLES = x, y, u, v, psiu, psiv, t, stress
ZONE T="structure" N=153 E=128 F=FEBLOCK ET=QUADRILATERAL VARLOCATION=([7,8]=cellcentered)
0.000000e+00
1.250000e+01
2.500000e+01
3.750000e+01
5.000000e+01
6.250000e+01
7.500000e+01
8.750000e+01
1.000000e+02
1.125000e+02
1.250000e+02
1.375000e+02
1.500000e+02
1.625000e+02
1.750000e+02
1.875000e+02
2.000000e+02
0.000000e+00
1.250000e+01
2.500000e+01
3.750000e+01
5.000000e+01
6.250000e+01
7.500000e+01
8.750000e+01
1.000000e+02
1.125000e+02
1.250000e+02
1.375000e+02
1.500000e+02
1.625000e+02
1.750000e+02
1.875000e+02
2.000000e+02
0.000000e+00
1.250000e+01
2.500000e+01
3.750000e+01
5.000000e+01
6.250000e+01
7.500000e+01
8.750000e+01
1.000000e+02
1.125000e+02
1.250000e+02
1.375000e+02
1.500000e+02
1.625000e+02
1.750000e+02
1.875000e+02
2.000000e+02
0.000000e+00
1.250000e+01
2.500000e+01
3.750000e+01
5.000000e+01
6.250000e+01
7.500000e+01
8.750000e+01
1.000000e+02
1.125000e+02
1.250000e+02
1.375000e+02
1.500000e+02
1.625000e+02
1.750000e+02
1.875000e+02
2.000000e+02
0.000000e+00
1.250000e+01
2.500000e+01
3.750000e+01
5.000000e+01
6.250000e+01
7.500000e+01
8.750000e+01
1.000000e+02
1.125000e+02
1.250000e+02
1.375000e+02
1.500000e+02
1.625000e+02
1.750000e+02
1.875000e+02
2.000000e+02
0.000000e+00
1.250000e+01
2.500000e+01
3.750000e+01
5.000000e+01
6.250000e+01
7.500000e+01
8.750000e+01
1.000000e+02
1.125000e+02
1.250000e+02
1.375000e+02
1.500000e+02
1.625000e+02
1.750000e+02
1.875000e+02
2.000000e+02
0.000000e+00
1.250000e+01
2.500000e+01
3.750000e+01
5.000000e+01
6.250000e+01
7.500000e+01
8.750000e+01
1.000000e+02
1.125000e+02
1.250000e+02
1.375000e+02
1.500000e+02
1.625000e+02
1.750000e+02
1.875000e+02
2.000000e+02
0.000000e+00
1.250000e+01
2.500000e+01
3.750000e+01
5.000000e+01
6.250000e+01
7.500000e+01
8.750000e+01
1.000000e+02
1.125000e+02
1.250000e+02
1.375000e+02
1.500000e+02
1.625000e+02
1.750000e+02
1.875000e+02
2.000000e+02
0.000000e+00
1.250000e+01
2.500000e+01
3.750000e+01
5.000000e+01
6.250000e+01
7.500000e+01
8.750000e+01
1.000000e+02
1.125000e+02
1.250000e+02
1.375000e+02
1.500000e+02
1.625000e+02
1.750000e+02
1.875000e+02
2.000000e+02
0.000000e+00
0.000000e+00
0.000000e+00
0.000000e+00
0.000000e+00
0.000000e+00
0.000000e+00
0.000000e+00
0.000000e+00
0.000000e+00
0.000000e+00
0.000000e+00
0.000000e+00
0.000000e+00
0.000000e+00
0.000000e+00
0.000000e+00
1.250000e+01
1.250000e+01
1.250000e+01
1.250000e+01
1.250000e+01
1.250000e+01
1.250000e+01
1.250000e+01
1.250000e+01
1.250000e+01
1.250000e+01
1.250000e+01
1.250000e+01
1.250000e+01
1.250000e+01
1.250000e+01
1.250000e+01
2.500000e+01
2.500000e+01
2.500000e+01
2.500000e+01
2.500000e+01
2.500000e+01
2.500000e+01
2.500000e+01
2.500000e+01
2.500000e+01
2.500000e+01
2.500000e+01
2.500000e+01
2.500000e+01
2.500000e+01
2.500000e+01
2.500000e+01
3.750000e+01
3.750000e+01
3.750000e+01
3.750000e+01
3.750000e+01
3.750000e+01
3.750000e+01
3.750000e+01
3.750000e+01
3.750000e+01
3.750000e+01
3.750000e+01
3.750000e+01
3.750000e+01
3.750000e+01
3.750000e+01
3.750000e+01
5.000000e+01
5.000000e+01
5.000000e+01
5.000000e+01
5.000000e+01
5.000000e+01
5.000000e+01
5.000000e+01
5.000000e+01
5.000000e+01
5.000000e+01
5.000000e+01
5.000000e+01
5.000000e+01
5.000000e+01
5.000000e+01
5.000000e+01
6.250000e+01
6.250000e+01
6.250000e+01
6.250000e+01
6.250000e+01
6.250000e+01
6.250000e+01
6.250000e+01
6.250000e+01
6.250000e+01
6.250000e+01
6.250000e+01
6.250000e+01
6.250000e+01
6.250000e+01
6.250000e+01
6.250000e+01
7.500000e+01
7.500000e+01
7.500000e+01
7.500000e+01
7.500000e+01
7.500000e+01
7.500000e+01
7.500000e+01
7.500000e+01
7.500000e+01
7.500000e+01
7.500000e+01
7.500000e+01
7.500000e+01
7.500000e+01
7.500000e+01
7.500000e+01
8.750000e+01
8.750000e+01
8.750000e+01
8.750000e+01
8.750000e+01
8.750000e+01
8.750000e+01
8.750000e+01
8.750000e+01
8.750000e+01
8.750000e+01
8.750000e+01
8.750000e+01
8.750000e+01
8.750000e+01
8.750000e+01
8.750000e+01
1.000000e+02
1.000000e+02
1.000000e+02
1.000000e+02
1.000000e+02
1.000000e+02
1.000000e+02
1.000000e+02
1.000000e+02
1.000000e+02
1.000000e+02
1.000000e+02
1.000000e+02
1.000000e+02
1.000000e+02
1.000000e+02
1.000000e+02
0.000000e+00
-8.075875e-01
-1.473076e+00
-2.114381e+00
-2.764560e+00
-3.405625e+00
-4.034367e+00
-4.649470e+00
-5.243106e+00
-5.804869e+00
-6.326915e+00
-6.808031e+00
-7.257273e+00
-7.697563e+00
-8.168884e+00
-8.718607e+00
-9.118108e+00
0.000000e+00
-4.560739e-01
-9.498264e-01
-1.431873e+00
-1.919734e+00
-2.400296e+00
-2.870886e+00
-3.330964e+00
-3.774897e+00
-4.194221e+00
-4.580871e+00
-4.928981e+00
-5.234424e+00
-5.488961e+00
-5.665385e+00
-5.704233e+00
-5.831337e+00
0.000000e+00
-2.661843e-01
-5.569601e-01
-8.738094e-01
-1.199204e+00
-1.521296e+00
-1.837041e+00
-2.144034e+00
-2.437196e+00
-2.709434e+00
-2.952545e+00
-3.157356e+00
-3.312365e+00
-3.401155e+00
-3.406850e+00
-3.376346e+00
-3.507839e+00
0.000000e+00
-1.220463e-01
-2.588216e-01
-4.125418e-01
-5.745613e-01
-7.364801e-01
-8.950761e-01
-1.047365e+00
-1.189351e+00
-1.315706e+00
-1.419683e+00
-1.493267e+00
-1.528057e+00
-1.519644e+00
-1.485438e+00
-1.493211e+00
-1.594141e+00
0.000000e+00
-4.252514e-04
-9.081324e-04
-1.373096e-03
-1.674033e-03
-1.512401e-03
-3.048966e-04
3.013122e-03
1.023190e-02
2.406538e-02
4.809148e-02
8.595304e-02
1.387848e-01
1.990065e-01
2.414987e-01
2.324780e-01
1.637345e-01
0.000000e+00
1.213348e-01
2.572820e-01
4.101620e-01
5.715402e-01
7.334901e-01
8.937054e-01
1.050866e+00
1.203772e+00
1.351381e+00
1.492786e+00
1.626492e+00
1.748190e+00
1.847203e+00
1.906324e+00
1.912108e+00
1.876667e+00
0.000000e+00
2.658426e-01
5.561740e-01
8.724776e-01
1.197265e+00
1.518852e+00
1.834518e+00
2.142351e+00
2.437966e+00
2.715301e+00
2.967816e+00
3.189058e+00
3.372197e+00
3.509225e+00
3.592085e+00
3.619261e+00
3.611038e+00
0.000000e+00
4.561832e-01
9.499952e-01
1.432036e+00
1.919744e+00
2.399882e+00
2.869546e+00
3.327422e+00
3.765953e+00
4.173167e+00
4.535902e+00
4.842230e+00
5.083154e+00
5.254042e+00
5.356481e+00
5.400249e+00
5.408320e+00
0.000000e+00
8.079285e-01
1.474000e+00
2.116087e+00
2.767220e+00
3.409342e+00
4.038974e+00
4.653493e+00
5.241430e+00
5.785061e+00
6.264411e+00
6.660392e+00
6.957807e+00
7.149400e+00
7.242229e+00
7.264978e+00
7.264436e+00
0.000000e+00
-4.948401e-01
-1.006478e+00
-1.683587e+00
-2.521265e+00
-3.521090e+00
-4.684202e+00
-6.007691e+00
-7.484370e+00
-9.104236e+00
-1.085575e+01
-1.272846e+01
-1.471806e+01
-1.683657e+01
-1.914732e+01
-2.185145e+01
-2.589140e+01
0.000000e+00
-3.093318e-01
-8.419779e-01
-1.514304e+00
-2.352055e+00
-3.354764e+00
-4.521403e+00
-5.849673e+00
-7.333782e+00
-8.963974e+00
-1.072793e+01
-1.261379e+01
-1.461577e+01
-1.674612e+01
-1.906099e+01
-2.175102e+01
-2.511828e+01
0.000000e+00
-2.448400e-01
-7.306667e-01
-1.397310e+00
-2.232839e+00
-3.236951e+00
-4.406780e+00
-5.739895e+00
-7.231153e+00
-8.871405e+00
-1.064859e+01
-1.255096e+01
-1.457308e+01
-1.672538e+01
-1.904580e+01
-2.157502e+01
-2.399711e+01
0.000000e+00
-2.282940e-01
-6.812160e-01
-1.331636e+00
-2.163416e+00
-3.167701e+00
-4.340480e+00
-5.678631e+00
-7.177181e+00
-8.827578e+00
-1.061819e+01
-1.253686e+01
-1.457500e+01
-1.673052e+01
-1.899522e+01
-2.128233e+01
-2.333933e+01
0.000000e+00
-2.263195e-01
-6.682767e-01
-1.311905e+00
-2.141289e+00
-3.146180e+00
-4.321313e+00
-5.663563e+00
-7.168214e+00
-8.827052e+00
-1.062808e+01
-1.255671e+01
-1.459691e+01
-1.672800e+01
-1.890551e+01
-2.102985e+01
-2.293331e+01
0.000000e+00
-2.280854e-01
-6.811290e-01
-1.332046e+00
-2.164886e+00
-3.171162e+00
-4.347477e+00
-5.691589e+00
-7.199446e+00
-8.862827e+00
-1.066852e+01
-1.259815e+01
-1.462730e+01
-1.672089e+01
-1.882396e+01
-2.085362e+01
-2.270159e+01
0.000000e+00
-2.444924e-01
-7.305028e-01
-1.397932e+00
-2.235195e+00
-3.242610e+00
-4.418356e+00
-5.761518e+00
-7.268557e+00
-8.930956e+00
-1.073413e+01
-1.265645e+01
-1.466746e+01
-1.672512e+01
-1.877427e+01
-2.075198e+01
-2.259843e+01
0.000000e+00
-3.089820e-01
-8.417987e-01
-1.514989e+00
-2.354701e+00
-3.361192e+00
-4.534621e+00
-5.874375e+00
-7.376399e+00
-9.031501e+00
-1.082431e+01
-1.273179e+01
-1.472128e+01
-1.674888e+01
-1.876165e+01
-2.070969e+01
-2.257433e+01
0.000000e+00
-4.946039e-01
-1.006416e+00
-1.684423e+00
-2.524108e+00
-3.527780e+00
-4.697684e+00
-6.032294e+00
-7.525590e+00
-9.167301e+00
-1.094177e+01
-1.282619e+01
-1.478863e+01
-1.678694e+01
-1.877212e+01
-2.070191e+01
-2.257481e+01


0.000000e+00
8.598154e-06
1.712057e-05
2.501319e-05
3.282123e-05
4.020672e-05
4.671599e-05
5.213232e-05
5.638304e-05
5.951285e-05
6.168868e-05
6.314921e-05
6.414975e-05
6.493935e-05
6.573424e-05
6.688091e-05
6.840459e-05
0.000000e+00
6.297830e-06
1.376778e-05
1.977712e-05
2.565441e-05
3.123018e-05
3.607122e-05
4.000211e-05
4.300323e-05
4.512869e-05
4.652184e-05
4.736578e-05
4.780777e-05
4.794448e-05
4.809425e-05
4.902102e-05
5.059429e-05
0.000000e+00
4.699093e-06
9.613239e-06
1.371327e-05
1.768404e-05
2.131944e-05
2.443868e-05
2.695387e-05
2.885141e-05
3.016217e-05
3.097250e-05
3.139577e-05
3.154241e-05
3.155286e-05
3.170356e-05
3.245819e-05
3.372694e-05
0.000000e+00
2.344707e-06
4.494786e-06
6.727127e-06
8.747876e-06
1.052290e-05
1.204382e-05
1.328621e-05
1.422626e-05
1.486915e-05
1.525039e-05
1.543203e-05
1.550408e-05
1.558599e-05
1.578134e-05
1.621842e-05
1.693712e-05
0.000000e+00
-4.962193e-09
-1.050718e-08
-1.652304e-08
-2.333895e-08
-3.228919e-08
-4.625431e-08
-6.937968e-08
-1.053107e-07
-1.544208e-07
-2.103812e-07
-2.553247e-07
-2.571383e-07
-1.860801e-07
-6.288983e-08
1.086843e-07
4.249633e-07
0.000000e+00
-2.353610e-06
-4.513111e-06
-6.756329e-06
-8.789380e-06
-1.057918e-05
-1.212074e-05
-1.339458e-05
-1.438187e-05
-1.509061e-05
-1.555309e-05
-1.581590e-05
-1.592943e-05
-1.594955e-05
-1.594463e-05
-1.592470e-05
-1.581056e-05
0.000000e+00
-4.703901e-06
-9.624898e-06
-1.373401e-05
-1.771741e-05
-2.136787e-05
-2.450001e-05
-2.701866e-05
-2.890686e-05
-3.020301e-05
-3.101124e-05
-3.146825e-05
-3.170439e-05
-3.182526e-05
-3.190055e-05
-3.193891e-05
-3.191103e-05
0.000000e+00
-6.298861e-06
-1.377252e-05
-1.978734e-05
-2.567574e-05
-3.126726e-05
-3.611800e-05
-4.003217e-05
-4.297462e-05
-4.500695e-05
-4.630131e-05
-4.707730e-05
-4.752729e-05
-4.778750e-05
-4.793856e-05
-4.801248e-05
-4.802393e-05
0.000000e+00
-8.601402e-06
-1.712341e-05
-2.501546e-05
-3.282642e-05
-4.021733e-05
-4.672379e-05
-5.210761e-05
-5.627781e-05
-5.928202e-05
-6.130646e-05
-6.260098e-05
-6.339559e-05
-6.386132e-05
-6.410710e-05
-6.420123e-05
-6.421708e-05
0.000000e+00
7.581712e-06
1.308767e-05
1.956654e-05
2.800402e-05
3.807180e-05
4.958416e-05
6.239703e-05
7.627782e-05
9.098495e-05
1.063239e-04
1.221450e-04
1.383695e-04
1.551491e-04
1.733706e-04
1.937024e-04
2.145846e-04
0.000000e+00
3.890720e-06
9.534214e-06
1.608164e-05
2.457026e-05
3.492535e-05
4.692037e-05
6.027863e-05
7.470383e-05
8.989865e-05
1.056245e-04
1.217217e-04
1.381229e-04
1.549085e-04
1.724398e-04
1.917170e-04
2.119914e-04
0.000000e+00
1.695461e-06
6.720715e-06
1.352709e-05
2.211622e-05
3.270163e-05
4.504031e-05
5.878678e-05
7.359647e-05
8.914299e-05
1.051592e-04
1.214744e-04
1.380109e-04
1.547127e-04
1.715104e-04
1.896140e-04
2.089565e-04
0.000000e+00
9.712184e-07
5.454261e-06
1.228232e-05
2.103324e-05
3.174223e-05
4.420569e-05
5.809905e-05
7.306866e-05
8.877553e-05
1.049373e-04
1.213620e-04
1.379306e-04
1.545121e-04
1.709855e-04
1.882427e-04
2.064667e-04
0.000000e+00
8.320009e-07
5.108336e-06
1.187312e-05
2.071206e-05
3.146563e-05
4.396174e-05
5.789621e-05
7.291644e-05
8.867658e-05
1.048851e-04
1.213321e-04
1.378740e-04
1.543866e-04
1.708136e-04
1.876243e-04
2.048574e-04
0.000000e+00
9.722879e-07
5.454100e-06
1.227923e-05
2.102695e-05
3.173645e-05
4.420863e-05
5.812046e-05
7.311467e-05
8.884436e-05
1.050152e-04
1.214147e-04
1.379003e-04
1.543747e-04
1.708199e-04
1.873970e-04
2.040069e-04
0.000000e+00
1.696968e-06
6.720622e-06
1.352291e-05
2.210742e-05
3.269471e-05
4.504956e-05
5.882961e-05
7.368457e-05
8.927516e-05
1.053158e-04
1.216035e-04
1.380047e-04
1.544347e-04
1.708608e-04
1.872995e-04
2.036327e-04
0.000000e+00
3.893368e-06
9.536904e-06
1.608198e-05
2.456865e-05
3.492783e-05
4.693917e-05
6.032911e-05
7.479843e-05
9.004094e-05
1.058016e-04
1.218882e-04
1.381598e-04
1.545176e-04
1.708991e-04
1.872571e-04
2.035133e-04
0.000000e+00
7.586741e-06
1.309390e-05
1.957343e-05
2.801332e-05
3.808688e-05
4.960890e-05
6.243556e-05
7.633737e-05
9.107505e-05
1.064440e-04
1.222606e-04
1.383625e-04
1.546211e-04
1.709434e-04
1.872539e-04
2.034959e-04


2.137938e+00
2.107568e+00
2.243231e+00
2.468463e+00
2.662649e+00
2.886090e+00
3.144599e+00
3.403761e+00
3.633772e+00
3.817298e+00
3.948551e+00
4.029304e+00
4.050262e+00
3.957860e+00
3.760865e+00
3.608623e+00
2.609764e+00
2.577539e+00
2.669084e+00
2.835037e+00
2.980712e+00
3.152043e+00
3.353139e+00
3.556191e+00
3.737658e+00
3.883187e+00
3.987159e+00
4.049769e+00
4.059504e+00
3.961461e+00
3.768564e+00
3.621461e+00
3.336772e+00
3.309269e+00
3.347655e+00
3.424751e+00
3.494185e+00
3.583379e+00
3.690548e+00
3.800771e+00
3.901299e+00
3.983099e+00
4.041562e+00
4.075507e+00
4.074536e+00
3.994466e+00
3.843139e+00
3.731742e+00
3.813681e+00
3.794638e+00
3.798441e+00
3.815644e+00
3.838784e+00
3.872774e+00
3.915178e+00
3.960810e+00
4.004468e+00
4.041245e+00
4.068041e+00
4.083923e+00
4.083221e+00
4.041584e+00
3.961260e+00
3.902167e+00
3.813642e+00
3.794542e+00
3.798189e+00
3.815077e+00
3.837705e+00
3.870973e+00
3.912413e+00
3.956760e+00
3.998836e+00
4.034105e+00
4.060308e+00
4.078079e+00
4.086817e+00
4.078022e+00
4.051819e+00
4.031580e+00
3.336452e+00
3.308750e+00
3.346673e+00
3.422964e+00
3.491358e+00
3.579539e+00
3.685752e+00
3.794607e+00
3.892820e+00
3.971719e+00
4.028565e+00
4.066424e+00
4.090186e+00
4.101369e+00
4.102367e+00
4.100637e+00
2.608860e+00
2.576303e+00
2.667169e+00
2.832197e+00
2.977254e+00
3.149187e+00
3.352341e+00
3.557777e+00
3.740163e+00
3.884435e+00
3.986677e+00
4.052674e+00
4.092541e+00
4.114979e+00
4.126139e+00
4.130457e+00
2.136566e+00
2.105800e+00
2.240740e+00
2.465152e+00
2.659364e+00
2.885072e+00
3.148490e+00
3.413617e+00
3.647932e+00
3.832462e+00
3.962566e+00
4.045611e+00
4.094547e+00
4.121561e+00
4.135203e+00
4.140858e+00


-4.077104e-01
-1.827400e-01
-1.058743e-01
-1.354207e-01
-1.044671e-01
-6.249442e-02
-1.744702e-02
5.154615e-02
1.514924e-01
2.725064e-01
3.960803e-01
5.034023e-01
5.832981e-01
6.357085e-01
6.899358e-01
-2.843043e-01
5.171190e-01
4.053941e-01
3.891850e-01
3.660080e-01
3.758003e-01
3.930295e-01
4.140433e-01
4.505762e-01
5.089334e-01
5.875568e-01
6.799548e-01
7.779702e-01
8.724546e-01
9.398438e-01
8.149289e-01
-9.157345e-01
8.334165e-01
7.524449e-01
6.910125e-01
6.643459e-01
6.584231e-01
6.585775e-01
6.632376e-01
6.764312e-01
7.016612e-01
7.393400e-01
7.848125e-01
8.254765e-01
8.351865e-01
7.609336e-01
5.049952e-01
4.998471e-02
9.446934e-01
8.817255e-01
8.289451e-01
8.001929e-01
7.873466e-01
7.793879e-01
7.721855e-01
7.654628e-01
7.603902e-01
7.568477e-01
7.504845e-01
7.305841e-01
6.820060e-01
6.032473e-01
5.477066e-01
5.407161e-01
9.450962e-01
8.822488e-01
8.294484e-01
8.002304e-01
7.860828e-01
7.753615e-01
7.628860e-01
7.469995e-01
7.276006e-01
7.045375e-01
6.769450e-01
6.450661e-01
6.173510e-01
6.219327e-01
6.915171e-01
8.078127e-01
8.343259e-01
7.536648e-01
6.922812e-01
6.648524e-01
6.565471e-01
6.513653e-01
6.455709e-01
6.403342e-01
6.363326e-01
6.331231e-01
6.312521e-01
6.365196e-01
6.638699e-01
7.306127e-01
8.335348e-01
9.398668e-01
5.177192e-01
4.062453e-01
3.901281e-01
3.668333e-01
3.757116e-01
3.904536e-01
4.066253e-01
4.352598e-01
4.817228e-01
5.431623e-01
6.128706e-01
6.864705e-01
7.657850e-01
8.535076e-01
9.369308e-01
9.895186e-01
-4.083791e-01
-1.839720e-01
-1.073490e-01
-1.370281e-01
-1.059198e-01
-6.309179e-02
-1.387137e-02
6.797514e-02
1.955605e-01
3.621878e-01
5.467680e-01
7.215375e-01
8.606815e-01
9.492745e-01
9.900679e-01
9.997944e-01
1 2 19 18
2 3 20 19
3 4 21 20
4 5 22 21
5 6 23 22
6 7 24 23
7 8 25 24
8 9 26 25
9 10 27 26
10 11 28 27
11 12 29 28
12 13 30 29
13 14 31 30
14 15 32 31
15 16 33 32
16 17 34 33
18 19 36 35
19 20 37 36
20 21 38 37
21 22 39 38
22 23 40 39
23 24 41 40
24 25 42 41
25 26 43 42
26 27 44 43
27 28 45 44
28 29 46 45
29 30 47 46
30 31 48 47
31 32 49 48
32 33 50 49
33 34 51 50
35 36 53 52
36 37 54 53
37 38 55 54
38 39 56 55
39 40 57 56
40 41 58 57
41 42 59 58
42 43 60 59
43 44 61 60
44 45 62 61
45 46 63 62
46 47 64 63
47 48 65 64
48 49 66 65
49 50 67 66
50 51 68 67
52 53 70 69
53 54 71 70
54 55 72 71
55 56 73 72
56 57 74 73
57 58 75 74
58 59 76 75
59 60 77 76
60 61 78 77
61 62 79 78
62 63 80 79
63 64 81 80
64 65 82 81
65 66 83 82
66 67 84 83
67 68 85 84
69 70 87 86
70 71 88 87
71 72 89 88
72 73 90 89
73 74 91 90
74 75 92 91
75 76 93 92
76 77 94 93
77 78 95 94
78 79 96 95
79 80 97 96
80 81 98 97
81 82 99 98
82 83 100 99
83 84 101 100
84 85 102 101
86 87 104 103
87 88 105 104
88 89 106 105
89 90 107 106
90 91 108 107
91 92 109 108
92 93 110 109
93 94 111 110
94 95 112 111
95 96 113 112
96 97 114 113
97 98 115 114
98 99 116 115
99 100 117 116
100 101 118 117
101 102 119 118
103 104 121 120
104 105 122 121
105 106 123 122
106 107 124 123
107 108 125 124
108 109 126 125
109 110 127 126
110 111 128 127
111 112 129 128
112 113 130 129
113 114 131 130
114 115 132 131
115 116 133 132
116 117 134 133
117 118 135 134
118 119 136 135
120 121 138 137
121 122 139 138
122 123 140 139
123 124 141 140
124 125 142 141
125 126 143 142
126 127 144 143
127 128 145 144
128 129 146 145
129 130 147 146
130 131 148 147
131 132 149 148
132 133 150 149
133 134 151 150
134 135 152 151
135 136 153 152
