TITLE = "Solution"
VARIABLES = x, y, u, v, psiu, psiv, t, stress
ZONE T="structure" N=153 E=128 F=FEBLOCK ET=QUADRILATERAL VARLOCATION=([7,8]=cellcentered)
0.000000e+00
1.250000e+01
2.500000e+01
3.750000e+01
5.000000e+01
6.250000e+01
7.500000e+01
8.750000e+01
1.000000e+02
1.125000e+02
1.250000e+02
1.375000e+02
1.500000e+02
1.625000e+02
1.750000e+02
1.875000e+02
2.000000e+02
0.000000e+00
1.250000e+01
2.500000e+01
3.750000e+01
5.000000e+01
6.250000e+01
7.500000e+01
8.750000e+01
1.000000e+02
1.125000e+02
1.250000e+02
1.375000e+02
1.500000e+02
1.625000e+02
1.750000e+02
1.875000e+02
2.000000e+02
0.000000e+00
1.250000e+01
2.500000e+01
3.750000e+01
5.000000e+01
6.250000e+01
7.500000e+01
8.750000e+01
1.000000e+02
1.125000e+02
1.250000e+02
1.375000e+02
1.500000e+02
1.625000e+02
1.750000e+02
1.875000e+02
2.000000e+02
0.000000e+00
1.250000e+01
2.500000e+01
3.750000e+01
5.000000e+01
6.250000e+01
7.500000e+01
8.750000e+01
1.000000e+02
1.125000e+02
1.250000e+02
1.375000e+02
1.500000e+02
1.625000e+02
1.750000e+02
1.875000e+02
2.000000e+02
0.000000e+00
1.250000e+01
2.500000e+01
3.750000e+01
5.000000e+01
6.250000e+01
7.500000e+01
8.750000e+01
1.000000e+02
1.125000e+02
1.250000e+02
1.375000e+02
1.500000e+02
1.625000e+02
1.750000e+02
1.875000e+02
2.000000e+02
0.000000e+00
1.250000e+01
2.500000e+01
3.750000e+01
5.000000e+01
6.250000e+01
7.500000e+01
8.750000e+01
1.000000e+02
1.125000e+02
1.250000e+02
1.375000e+02
1.500000e+02
1.625000e+02
1.750000e+02
1.875000e+02
2.000000e+02
0.000000e+00
1.250000e+01
2.500000e+01
3.750000e+01
5.000000e+01
6.250000e+01
7.500000e+01
8.750000e+01
1.000000e+02
1.125000e+02
1.250000e+02
1.375000e+02
1.500000e+02
1.625000e+02
1.750000e+02
1.875000e+02
2.000000e+02
0.000000e+00
1.250000e+01
2.500000e+01
3.750000e+01
5.000000e+01
6.250000e+01
7.500000e+01
8.750000e+01
1.000000e+02
1.125000e+02
1.250000e+02
1.375000e+02
1.500000e+02
1.625000e+02
1.750000e+02
1.875000e+02
2.000000e+02
0.000000e+00
1.250000e+01
2.500000e+01
3.750000e+01
5.000000e+01
6.250000e+01
7.500000e+01
8.750000e+01
1.000000e+02
1.125000e+02
1.250000e+02
1.375000e+02
1.500000e+02
1.625000e+02
1.750000e+02
1.875000e+02
2.000000e+02
0.000000e+00
0.000000e+00
0.000000e+00
0.000000e+00
0.000000e+00
0.000000e+00
0.000000e+00
0.000000e+00
0.000000e+00
0.000000e+00
0.000000e+00
0.000000e+00
0.000000e+00
0.000000e+00
0.000000e+00
0.000000e+00
0.000000e+00
1.250000e+01
1.250000e+01
1.250000e+01
1.250000e+01
1.250000e+01
1.250000e+01
1.250000e+01
1.250000e+01
1.250000e+01
1.250000e+01
1.250000e+01
1.250000e+01
1.250000e+01
1.250000e+01
1.250000e+01
1.250000e+01
1.250000e+01
2.500000e+01
2.500000e+01
2.500000e+01
2.500000e+01
2.500000e+01
2.500000e+01
2.500000e+01
2.500000e+01
2.500000e+01
2.500000e+01
2.500000e+01
2.500000e+01
2.500000e+01
2.500000e+01
2.500000e+01
2.500000e+01
2.500000e+01
3.750000e+01
3.750000e+01
3.750000e+01
3.750000e+01
3.750000e+01
3.750000e+01
3.750000e+01
3.750000e+01
3.750000e+01
3.750000e+01
3.750000e+01
3.750000e+01
3.750000e+01
3.750000e+01
3.750000e+01
3.750000e+01
3.750000e+01
5.000000e+01
5.000000e+01
5.000000e+01
5.000000e+01
5.000000e+01
5.000000e+01
5.000000e+01
5.000000e+01
5.000000e+01
5.000000e+01
5.000000e+01
5.000000e+01
5.000000e+01
5.000000e+01
5.000000e+01
5.000000e+01
5.000000e+01
6.250000e+01
6.250000e+01
6.250000e+01
6.250000e+01
6.250000e+01
6.250000e+01
6.250000e+01
6.250000e+01
6.250000e+01
6.250000e+01
6.250000e+01
6.250000e+01
6.250000e+01
6.250000e+01
6.250000e+01
6.250000e+01
6.250000e+01
7.500000e+01
7.500000e+01
7.500000e+01
7.500000e+01
7.500000e+01
7.500000e+01
7.500000e+01
7.500000e+01
7.500000e+01
7.500000e+01
7.500000e+01
7.500000e+01
7.500000e+01
7.500000e+01
7.500000e+01
7.500000e+01
7.500000e+01
8.750000e+01
8.750000e+01
8.750000e+01
8.750000e+01
8.750000e+01
8.750000e+01
8.750000e+01
8.750000e+01
8.750000e+01
8.750000e+01
8.750000e+01
8.750000e+01
8.750000e+01
8.750000e+01
8.750000e+01
8.750000e+01
8.750000e+01
1.000000e+02
1.000000e+02
1.000000e+02
1.000000e+02
1.000000e+02
1.000000e+02
1.000000e+02
1.000000e+02
1.000000e+02
1.000000e+02
1.000000e+02
1.000000e+02
1.000000e+02
1.000000e+02
1.000000e+02
1.000000e+02
1.000000e+02
0.000000e+00
-9.955263e-01
-1.679165e+00
-2.431214e+00
-3.116885e+00
-3.750982e+00
-4.457992e+00
-5.087418e+00
-5.763261e+00
-6.405610e+00
-7.055731e+00
-7.723577e+00
-8.376578e+00
-9.146719e+00
-1.007755e+01
-1.083399e+01
-1.128411e+01
0.000000e+00
-4.457862e-01
-9.066648e-01
-1.419030e+00
-1.930578e+00
-2.410920e+00
-2.924941e+00
-3.423084e+00
-3.919181e+00
-4.421483e+00
-4.914113e+00
-5.416994e+00
-5.901876e+00
-6.421576e+00
-6.897737e+00
-7.024020e+00
-7.202904e+00
0.000000e+00
-1.461231e-01
-3.489947e-01
-6.396263e-01
-9.776184e-01
-1.302729e+00
-1.655954e+00
-2.012880e+00
-2.356619e+00
-2.718591e+00
-3.057519e+00
-3.391764e+00
-3.687446e+00
-3.927370e+00
-4.036551e+00
-4.034554e+00
-4.182984e+00
0.000000e+00
-7.897535e-02
-1.621550e-01
-3.096366e-01
-4.548328e-01
-6.282855e-01
-8.137435e-01
-9.791488e-01
-1.166730e+00
-1.328741e+00
-1.489759e+00
-1.628813e+00
-1.722198e+00
-1.730367e+00
-1.656737e+00
-1.635805e+00
-1.752875e+00
0.000000e+00
-3.311681e-03
-7.210858e-03
-1.125962e-02
-1.562970e-02
-1.902353e-02
-1.985819e-02
-1.707222e-02
-8.254493e-03
8.590442e-03
3.298361e-02
7.787724e-02
1.603860e-01
2.753368e-01
3.951435e-01
4.359778e-01
3.378011e-01
0.000000e+00
7.318522e-02
1.504814e-01
2.906113e-01
4.290629e-01
5.957984e-01
7.745325e-01
9.432526e-01
1.149152e+00
1.344476e+00
1.562303e+00
1.782626e+00
2.009146e+00
2.216591e+00
2.352396e+00
2.385289e+00
2.319616e+00
0.000000e+00
1.437695e-01
3.437291e-01
6.306175e-01
9.656635e-01
1.290927e+00
1.643217e+00
1.999636e+00
2.359566e+00
2.764819e+00
3.143986e+00
3.510995e+00
3.843872e+00
4.119522e+00
4.296283e+00
4.350908e+00
4.328253e+00
0.000000e+00
4.464740e-01
9.074250e-01
1.419537e+00
1.930369e+00
2.409279e+00
2.920242e+00
3.415637e+00
3.903453e+00
4.396715e+00
4.875032e+00
5.350159e+00
5.778294e+00
6.125990e+00
6.343089e+00
6.438906e+00
6.456616e+00
0.000000e+00
9.977592e-01
1.684261e+00
2.440051e+00
3.127665e+00
3.762504e+00
4.468521e+00
5.096101e+00
5.747380e+00
6.331666e+00
6.905090e+00
7.505941e+00
8.036252e+00
8.448361e+00
8.649635e+00
8.702379e+00
8.702910e+00
0.000000e+00
-6.186387e-01
-1.361710e+00
-2.362962e+00
-3.537093e+00
-4.880727e+00
-6.412043e+00
-8.098189e+00
-9.958638e+00
-1.198207e+01
-1.416690e+01
-1.651767e+01
-1.903135e+01
-2.176252e+01
-2.472675e+01
-2.808628e+01
-3.310201e+01
0.000000e+00
-4.157117e-01
-1.193324e+00
-2.176814e+00
-3.367986e+00
-4.706516e+00
-6.234588e+00
-7.929497e+00
-9.782408e+00
-1.181446e+01
-1.399462e+01
-1.634997e+01
-1.885844e+01
-2.156987e+01
-2.458659e+01
-2.800252e+01
-3.205246e+01
0.000000e+00
-3.901292e-01
-1.091551e+00
-2.073413e+00
-3.248787e+00
-4.580662e+00
-6.114756e+00
-7.799748e+00
-9.663379e+00
-1.169266e+01
-1.388396e+01
-1.625068e+01
-1.876937e+01
-2.150761e+01
-2.457662e+01
-2.785062e+01
-3.088317e+01
0.000000e+00
-4.491161e-01
-1.087924e+00
-2.047296e+00
-3.186250e+00
-4.511202e+00
-6.052922e+00
-7.723209e+00
-9.605689e+00
-1.163410e+01
-1.384702e+01
-1.623362e+01
-1.877782e+01
-2.151794e+01
-2.450698e+01
-2.754092e+01
-3.016674e+01
0.000000e+00
-4.561022e-01
-1.110287e+00
-2.031659e+00
-3.172058e+00
-4.501320e+00
-6.031536e+00
-7.721332e+00
-9.595630e+00
-1.164622e+01
-1.387359e+01
-1.626740e+01
-1.881904e+01
-2.151908e+01
-2.435642e+01
-2.717437e+01
-2.956227e+01
0.000000e+00
-4.478347e-01
-1.087599e+00
-2.049391e+00
-3.193195e+00
-4.528437e+00
-6.080425e+00
-7.760026e+00
-9.657666e+00
-1.171196e+01
-1.394383e+01
-1.631957e+01
-1.884998e+01
-2.150908e+01
-2.422153e+01
-2.685465e+01
-2.912398e+01
0.000000e+00
-3.884205e-01
-1.091548e+00
-2.078203e+00
-3.262541e+00
-4.609923e+00
-6.160552e+00
-7.869204e+00
-9.762875e+00
-1.182815e+01
-1.403028e+01
-1.638679e+01
-1.888924e+01
-2.150899e+01
-2.413911e+01
-2.664748e+01
-2.889031e+01
0.000000e+00
-4.141310e-01
-1.193405e+00
-2.182456e+00
-3.384133e+00
-4.737684e+00
-6.285737e+00
-8.010234e+00
-9.901491e+00
-1.196536e+01
-1.414540e+01
-1.648529e+01
-1.896645e+01
-2.155055e+01
-2.411857e+01
-2.655993e+01
-2.882983e+01
0.000000e+00
-6.176556e-01
-1.362423e+00
-2.369292e+00
-3.553648e+00
-4.911793e+00
-6.463874e+00
-8.178632e+00
-1.007406e+01
-1.212089e+01
-1.430051e+01
-1.663355e+01
-1.909014e+01
-2.163259e+01
-2.414318e+01
-2.654504e+01
-2.882868e+01


0.000000e+00
1.541847e-05
2.508894e-05
3.749339e-05
5.358583e-05
6.718345e-05
8.316946e-05
9.715892e-05
1.118506e-04
1.257526e-04
1.408850e-04
1.552179e-04
1.717915e-04
1.875861e-04
1.976223e-04
2.033518e-04
2.102841e-04
0.000000e+00
1.145963e-05
1.973912e-05
2.840865e-05
4.099516e-05
5.171717e-05
6.183984e-05
7.295645e-05
8.315287e-05
9.455931e-05
1.052262e-04
1.156010e-04
1.264839e-04
1.358263e-04
1.373968e-04
1.411460e-04
1.469698e-04
0.000000e+00
9.531954e-06
1.502467e-05
2.020313e-05
2.884553e-05
3.553076e-05
4.126082e-05
4.860863e-05
5.457933e-05
6.193996e-05
6.835855e-05
7.402336e-05
7.874683e-05
8.092433e-05
8.016690e-05
8.254580e-05
8.678039e-05
0.000000e+00
5.185733e-06
6.844886e-06
9.618946e-06
1.305975e-05
1.352175e-05
1.585484e-05
1.726556e-05
2.085038e-05
2.429821e-05
2.805847e-05
2.910538e-05
2.852791e-05
2.709327e-05
2.684218e-05
2.988838e-05
3.556005e-05
0.000000e+00
-1.751684e-07
-4.362068e-07
-8.580201e-07
-1.725849e-06
-2.884725e-06
-4.992424e-06
-7.234977e-06
-7.822460e-06
-7.846499e-06
-8.785714e-06
-1.193722e-05
-1.468514e-05
-1.608976e-05
-1.576616e-05
-1.360701e-05
-9.616461e-06
0.000000e+00
-5.450105e-06
-7.435079e-06
-1.074815e-05
-1.465902e-05
-1.607869e-05
-2.050634e-05
-2.431294e-05
-3.021701e-05
-3.334673e-05
-3.746546e-05
-4.219595e-05
-4.730922e-05
-4.906525e-05
-4.961125e-05
-5.008792e-05
-4.836151e-05
0.000000e+00
-9.532361e-06
-1.509188e-05
-2.037188e-05
-2.895185e-05
-3.532304e-05
-4.073183e-05
-4.872445e-05
-5.589886e-05
-6.355987e-05
-6.884032e-05
-7.385981e-05
-7.802107e-05
-8.155678e-05
-8.346669e-05
-8.538518e-05
-8.613308e-05
0.000000e+00
-1.138954e-05
-1.965167e-05
-2.830366e-05
-4.077457e-05
-5.165550e-05
-6.160108e-05
-7.279634e-05
-8.318188e-05
-9.456642e-05
-1.052264e-04
-1.135576e-04
-1.183546e-04
-1.233723e-04
-1.269683e-04
-1.282666e-04
-1.283627e-04
0.000000e+00
-1.542905e-05
-2.503019e-05
-3.733965e-05
-5.337608e-05
-6.701143e-05
-8.286064e-05
-9.590173e-05
-1.099635e-04
-1.233504e-04
-1.410134e-04
-1.568045e-04
-1.665436e-04
-1.717526e-04
-1.739622e-04
-1.741788e-04
-1.739973e-04
0.000000e+00
1.259857e-05
1.999918e-05
3.243733e-05
4.874763e-05
6.687093e-05
9.130690e-05
1.201601e-04
1.534570e-04
1.902266e-04
2.303947e-04
2.744066e-04
3.243570e-04
3.784680e-04
4.399771e-04
5.108060e-04
5.841777e-04
0.000000e+00
7.679746e-06
1.610968e-05
2.633656e-05
4.228309e-05
6.091267e-05
8.484867e-05
1.142838e-04
1.472245e-04
1.840993e-04
2.240635e-04
2.681927e-04
3.177798e-04
3.735385e-04
4.347337e-04
5.034251e-04
5.738215e-04
0.000000e+00
4.326008e-06
1.229519e-05
2.172368e-05
3.646749e-05
5.568708e-05
7.943072e-05
1.097678e-04
1.430708e-04
1.796180e-04
2.194665e-04
2.636576e-04
3.139911e-04
3.711553e-04
4.305935e-04
4.959469e-04
5.641338e-04
0.000000e+00
3.199706e-06
1.059441e-05
2.008550e-05
3.451499e-05
5.203002e-05
7.641286e-05
1.087632e-04
1.436202e-04
1.782016e-04
2.173979e-04
2.620296e-04
3.132393e-04
3.697458e-04
4.278591e-04
4.881106e-04
5.499736e-04
0.000000e+00
2.811643e-06
1.026988e-05
2.004483e-05
3.424580e-05
5.074346e-05
7.528668e-05
1.097816e-04
1.448727e-04
1.780962e-04
2.155979e-04
2.619782e-04
3.134911e-04
3.698729e-04
4.267165e-04
4.817235e-04
5.338505e-04
0.000000e+00
3.342620e-06
1.078497e-05
2.045986e-05
3.485516e-05
5.183839e-05
7.715558e-05
1.106885e-04
1.454836e-04
1.779047e-04
2.159700e-04
2.634898e-04
3.158502e-04
3.701783e-04
4.266194e-04
4.794039e-04
5.228343e-04
0.000000e+00
4.479482e-06
1.252370e-05
2.206682e-05
3.674770e-05
5.576463e-05
8.039532e-05
1.117603e-04
1.447939e-04
1.789774e-04
2.182682e-04
2.667254e-04
3.193448e-04
3.722574e-04
4.257033e-04
4.766632e-04
5.193710e-04
0.000000e+00
7.804060e-06
1.634604e-05
2.663729e-05
4.253991e-05
6.131822e-05
8.581141e-05
1.159459e-04
1.482246e-04
1.832812e-04
2.229287e-04
2.704732e-04
3.223838e-04
3.744530e-04
4.258389e-04
4.746457e-04
5.198376e-04
0.000000e+00
1.271181e-05
2.023552e-05
3.272858e-05
4.908484e-05
6.740374e-05
9.234379e-05
1.216122e-04
1.543899e-04
1.894964e-04
2.301690e-04
2.748179e-04
3.246478e-04
3.756290e-04
4.261490e-04
4.741621e-04
5.201032e-04


5.659838e+00
6.130021e+00
6.859646e+00
5.917183e+00
5.643514e+00
6.395446e+00
6.307765e+00
6.359677e+00
5.935463e+00
5.896582e+00
6.280457e+00
7.148361e+00
8.845280e+00
9.826648e+00
9.147409e+00
7.998391e+00
8.076207e+00
8.455086e+00
8.657255e+00
8.353959e+00
8.189226e+00
8.440057e+00
8.611458e+00
8.401440e+00
8.381910e+00
8.266929e+00
8.413800e+00
8.841414e+00
9.504405e+00
9.839281e+00
8.391893e+00
6.471142e+00
9.840326e+00
9.821726e+00
9.996889e+00
9.835163e+00
9.833598e+00
9.955424e+00
9.832252e+00
9.940234e+00
9.845751e+00
9.877815e+00
9.895430e+00
9.873547e+00
9.891875e+00
9.393168e+00
7.996681e+00
6.188249e+00
9.998468e+00
9.998440e+00
9.998426e+00
9.998275e+00
9.998064e+00
9.997640e+00
9.997156e+00
9.997148e+00
9.997420e+00
9.997370e+00
9.996208e+00
9.480229e+00
8.830421e+00
8.370634e+00
7.987717e+00
7.914300e+00
9.998460e+00
9.998422e+00
9.998393e+00
9.998190e+00
9.997837e+00
9.997063e+00
9.932245e+00
9.962322e+00
9.995216e+00
9.915524e+00
9.355824e+00
8.591406e+00
7.709719e+00
7.746919e+00
8.648448e+00
9.163753e+00
9.840594e+00
9.821626e+00
9.996727e+00
9.834612e+00
9.832225e+00
9.697367e+00
9.312600e+00
9.513896e+00
9.383999e+00
8.863629e+00
8.307843e+00
7.898051e+00
8.203409e+00
8.755288e+00
9.445320e+00
9.994580e+00
8.077900e+00
8.455722e+00
8.656412e+00
8.351853e+00
8.104120e+00
7.988250e+00
7.817323e+00
7.754890e+00
7.844335e+00
7.330496e+00
7.477250e+00
8.490862e+00
9.292025e+00
9.847862e+00
9.996841e+00
9.998103e+00
5.664184e+00
6.131263e+00
6.858364e+00
5.907842e+00
5.605706e+00
6.040977e+00
5.872606e+00
6.342337e+00
6.195504e+00
6.486337e+00
7.856238e+00
9.111061e+00
9.984041e+00
9.997540e+00
9.998302e+00
9.998565e+00


-8.175375e-01
-1.692111e-01
-3.966659e-01
-2.575686e-01
-9.518227e-02
-3.055011e-01
-1.240345e-01
-2.097085e-01
-1.615164e-01
-1.584147e-01
-2.147262e-01
-1.499930e-01
-4.618544e-01
-6.852324e-01
3.159099e-01
-8.469624e-01
6.110007e-01
4.807590e-01
2.956286e-01
2.254526e-01
2.903014e-01
1.680698e-01
1.755112e-01
1.727357e-01
1.102524e-01
1.479393e-01
1.283990e-01
2.414533e-01
3.024518e-01
5.096242e-01
6.954078e-01
-9.347571e-01
7.230059e-01
4.714785e-01
5.690114e-02
-2.140056e-02
-3.702618e-02
-1.870763e-01
-8.030284e-02
-1.374242e-01
-7.679874e-02
-1.876497e-02
3.199260e-02
1.858634e-01
2.783931e-01
1.480735e-01
-2.525203e-02
-1.680942e-01
7.282313e-01
5.563607e-01
1.930751e-01
6.224242e-02
-2.276723e-02
-1.055705e-01
-1.675937e-02
-6.141397e-02
1.346019e-02
1.729660e-02
5.899333e-02
1.176780e-01
5.854540e-02
-2.625115e-01
-3.837212e-01
-7.804168e-02
7.311390e-01
5.602906e-01
2.010381e-01
7.038452e-02
-1.904129e-02
-1.115578e-01
-3.699178e-02
-1.021008e-01
-5.189386e-02
-4.261375e-02
2.139417e-02
1.463064e-02
-3.779704e-02
-1.301543e-01
-1.023493e-01
3.107615e-01
7.298209e-01
4.816508e-01
7.494536e-02
-3.468690e-03
-2.528524e-02
-1.615246e-01
-7.510191e-02
-1.887102e-01
-1.819825e-01
-1.090332e-01
-7.777807e-02
-9.769908e-02
-1.112845e-01
4.526764e-02
3.342476e-01
7.246653e-01
6.150977e-01
4.865416e-01
3.031305e-01
2.305024e-01
2.865209e-01
1.615843e-01
1.525921e-01
1.020557e-01
-5.682940e-02
-4.052271e-02
-9.677955e-02
-5.749634e-02
5.730978e-02
3.649662e-01
7.128650e-01
9.478997e-01
-8.230416e-01
-1.748889e-01
-4.042169e-01
-2.606409e-01
-9.472800e-02
-2.995518e-01
-1.198892e-01
-1.565633e-01
-5.603212e-02
-2.185621e-02
-9.254119e-02
9.915502e-02
3.878177e-01
7.720719e-01
9.528921e-01
9.987354e-01
1 2 19 18
2 3 20 19
3 4 21 20
4 5 22 21
5 6 23 22
6 7 24 23
7 8 25 24
8 9 26 25
9 10 27 26
10 11 28 27
11 12 29 28
12 13 30 29
13 14 31 30
14 15 32 31
15 16 33 32
16 17 34 33
18 19 36 35
19 20 37 36
20 21 38 37
21 22 39 38
22 23 40 39
23 24 41 40
24 25 42 41
25 26 43 42
26 27 44 43
27 28 45 44
28 29 46 45
29 30 47 46
30 31 48 47
31 32 49 48
32 33 50 49
33 34 51 50
35 36 53 52
36 37 54 53
37 38 55 54
38 39 56 55
39 40 57 56
40 41 58 57
41 42 59 58
42 43 60 59
43 44 61 60
44 45 62 61
45 46 63 62
46 47 64 63
47 48 65 64
48 49 66 65
49 50 67 66
50 51 68 67
52 53 70 69
53 54 71 70
54 55 72 71
55 56 73 72
56 57 74 73
57 58 75 74
58 59 76 75
59 60 77 76
60 61 78 77
61 62 79 78
62 63 80 79
63 64 81 80
64 65 82 81
65 66 83 82
66 67 84 83
67 68 85 84
69 70 87 86
70 71 88 87
71 72 89 88
72 73 90 89
73 74 91 90
74 75 92 91
75 76 93 92
76 77 94 93
77 78 95 94
78 79 96 95
79 80 97 96
80 81 98 97
81 82 99 98
82 83 100 99
83 84 101 100
84 85 102 101
86 87 104 103
87 88 105 104
88 89 106 105
89 90 107 106
90 91 108 107
91 92 109 108
92 93 110 109
93 94 111 110
94 95 112 111
95 96 113 112
96 97 114 113
97 98 115 114
98 99 116 115
99 100 117 116
100 101 118 117
101 102 119 118
103 104 121 120
104 105 122 121
105 106 123 122
106 107 124 123
107 108 125 124
108 109 126 125
109 110 127 126
110 111 128 127
111 112 129 128
112 113 130 129
113 114 131 130
114 115 132 131
115 116 133 132
116 117 134 133
117 118 135 134
118 119 136 135
120 121 138 137
121 122 139 138
122 123 140 139
123 124 141 140
124 125 142 141
125 126 143 142
126 127 144 143
127 128 145 144
128 129 146 145
129 130 147 146
130 131 148 147
131 132 149 148
132 133 150 149
133 134 151 150
134 135 152 151
135 136 153 152
