TITLE = "Solution"
VARIABLES = x, y, u, v, psiu, psiv, t, stress
ZONE T="structure" N=153 E=128 F=FEBLOCK ET=QUADRILATERAL VARLOCATION=([7,8]=cellcentered)
0.000000e+00
1.250000e+01
2.500000e+01
3.750000e+01
5.000000e+01
6.250000e+01
7.500000e+01
8.750000e+01
1.000000e+02
1.125000e+02
1.250000e+02
1.375000e+02
1.500000e+02
1.625000e+02
1.750000e+02
1.875000e+02
2.000000e+02
0.000000e+00
1.250000e+01
2.500000e+01
3.750000e+01
5.000000e+01
6.250000e+01
7.500000e+01
8.750000e+01
1.000000e+02
1.125000e+02
1.250000e+02
1.375000e+02
1.500000e+02
1.625000e+02
1.750000e+02
1.875000e+02
2.000000e+02
0.000000e+00
1.250000e+01
2.500000e+01
3.750000e+01
5.000000e+01
6.250000e+01
7.500000e+01
8.750000e+01
1.000000e+02
1.125000e+02
1.250000e+02
1.375000e+02
1.500000e+02
1.625000e+02
1.750000e+02
1.875000e+02
2.000000e+02
0.000000e+00
1.250000e+01
2.500000e+01
3.750000e+01
5.000000e+01
6.250000e+01
7.500000e+01
8.750000e+01
1.000000e+02
1.125000e+02
1.250000e+02
1.375000e+02
1.500000e+02
1.625000e+02
1.750000e+02
1.875000e+02
2.000000e+02
0.000000e+00
1.250000e+01
2.500000e+01
3.750000e+01
5.000000e+01
6.250000e+01
7.500000e+01
8.750000e+01
1.000000e+02
1.125000e+02
1.250000e+02
1.375000e+02
1.500000e+02
1.625000e+02
1.750000e+02
1.875000e+02
2.000000e+02
0.000000e+00
1.250000e+01
2.500000e+01
3.750000e+01
5.000000e+01
6.250000e+01
7.500000e+01
8.750000e+01
1.000000e+02
1.125000e+02
1.250000e+02
1.375000e+02
1.500000e+02
1.625000e+02
1.750000e+02
1.875000e+02
2.000000e+02
0.000000e+00
1.250000e+01
2.500000e+01
3.750000e+01
5.000000e+01
6.250000e+01
7.500000e+01
8.750000e+01
1.000000e+02
1.125000e+02
1.250000e+02
1.375000e+02
1.500000e+02
1.625000e+02
1.750000e+02
1.875000e+02
2.000000e+02
0.000000e+00
1.250000e+01
2.500000e+01
3.750000e+01
5.000000e+01
6.250000e+01
7.500000e+01
8.750000e+01
1.000000e+02
1.125000e+02
1.250000e+02
1.375000e+02
1.500000e+02
1.625000e+02
1.750000e+02
1.875000e+02
2.000000e+02
0.000000e+00
1.250000e+01
2.500000e+01
3.750000e+01
5.000000e+01
6.250000e+01
7.500000e+01
8.750000e+01
1.000000e+02
1.125000e+02
1.250000e+02
1.375000e+02
1.500000e+02
1.625000e+02
1.750000e+02
1.875000e+02
2.000000e+02
0.000000e+00
0.000000e+00
0.000000e+00
0.000000e+00
0.000000e+00
0.000000e+00
0.000000e+00
0.000000e+00
0.000000e+00
0.000000e+00
0.000000e+00
0.000000e+00
0.000000e+00
0.000000e+00
0.000000e+00
0.000000e+00
0.000000e+00
1.250000e+01
1.250000e+01
1.250000e+01
1.250000e+01
1.250000e+01
1.250000e+01
1.250000e+01
1.250000e+01
1.250000e+01
1.250000e+01
1.250000e+01
1.250000e+01
1.250000e+01
1.250000e+01
1.250000e+01
1.250000e+01
1.250000e+01
2.500000e+01
2.500000e+01
2.500000e+01
2.500000e+01
2.500000e+01
2.500000e+01
2.500000e+01
2.500000e+01
2.500000e+01
2.500000e+01
2.500000e+01
2.500000e+01
2.500000e+01
2.500000e+01
2.500000e+01
2.500000e+01
2.500000e+01
3.750000e+01
3.750000e+01
3.750000e+01
3.750000e+01
3.750000e+01
3.750000e+01
3.750000e+01
3.750000e+01
3.750000e+01
3.750000e+01
3.750000e+01
3.750000e+01
3.750000e+01
3.750000e+01
3.750000e+01
3.750000e+01
3.750000e+01
5.000000e+01
5.000000e+01
5.000000e+01
5.000000e+01
5.000000e+01
5.000000e+01
5.000000e+01
5.000000e+01
5.000000e+01
5.000000e+01
5.000000e+01
5.000000e+01
5.000000e+01
5.000000e+01
5.000000e+01
5.000000e+01
5.000000e+01
6.250000e+01
6.250000e+01
6.250000e+01
6.250000e+01
6.250000e+01
6.250000e+01
6.250000e+01
6.250000e+01
6.250000e+01
6.250000e+01
6.250000e+01
6.250000e+01
6.250000e+01
6.250000e+01
6.250000e+01
6.250000e+01
6.250000e+01
7.500000e+01
7.500000e+01
7.500000e+01
7.500000e+01
7.500000e+01
7.500000e+01
7.500000e+01
7.500000e+01
7.500000e+01
7.500000e+01
7.500000e+01
7.500000e+01
7.500000e+01
7.500000e+01
7.500000e+01
7.500000e+01
7.500000e+01
8.750000e+01
8.750000e+01
8.750000e+01
8.750000e+01
8.750000e+01
8.750000e+01
8.750000e+01
8.750000e+01
8.750000e+01
8.750000e+01
8.750000e+01
8.750000e+01
8.750000e+01
8.750000e+01
8.750000e+01
8.750000e+01
8.750000e+01
1.000000e+02
1.000000e+02
1.000000e+02
1.000000e+02
1.000000e+02
1.000000e+02
1.000000e+02
1.000000e+02
1.000000e+02
1.000000e+02
1.000000e+02
1.000000e+02
1.000000e+02
1.000000e+02
1.000000e+02
1.000000e+02
1.000000e+02
0.000000e+00
-9.880305e-01
-1.679379e+00
-2.427801e+00
-3.108443e+00
-3.755472e+00
-4.451005e+00
-5.088062e+00
-5.760649e+00
-6.401142e+00
-7.058944e+00
-7.716791e+00
-8.376232e+00
-9.154823e+00
-1.007417e+01
-1.082622e+01
-1.127681e+01
0.000000e+00
-4.433647e-01
-9.100921e-01
-1.419429e+00
-1.930073e+00
-2.414943e+00
-2.926817e+00
-3.425150e+00
-3.921780e+00
-4.422223e+00
-4.918577e+00
-5.417142e+00
-5.902532e+00
-6.426613e+00
-6.892767e+00
-7.015849e+00
-7.194362e+00
0.000000e+00
-1.481837e-01
-3.540534e-01
-6.440126e-01
-9.819778e-01
-1.308309e+00
-1.662227e+00
-2.016059e+00
-2.361889e+00
-2.720599e+00
-3.060712e+00
-3.392969e+00
-3.686507e+00
-3.924984e+00
-4.030239e+00
-4.026758e+00
-4.175874e+00
0.000000e+00
-7.865294e-02
-1.625699e-01
-3.084864e-01
-4.526246e-01
-6.276964e-01
-8.084829e-01
-9.775265e-01
-1.161051e+00
-1.323636e+00
-1.485268e+00
-1.622543e+00
-1.714082e+00
-1.720754e+00
-1.648814e+00
-1.630619e+00
-1.749625e+00
0.000000e+00
-2.772024e-03
-6.068656e-03
-9.447646e-03
-1.236867e-02
-1.389568e-02
-1.292189e-02
-8.069604e-03
1.351163e-03
1.840779e-02
4.310320e-02
8.718535e-02
1.683169e-01
2.820766e-01
3.998483e-01
4.379431e-01
3.395035e-01
0.000000e+00
7.391764e-02
1.526264e-01
2.921229e-01
4.308421e-01
6.020101e-01
7.842730e-01
9.624913e-01
1.166243e+00
1.359277e+00
1.571908e+00
1.791799e+00
2.014960e+00
2.217033e+00
2.351341e+00
2.384024e+00
2.318938e+00
0.000000e+00
1.465021e-01
3.496471e-01
6.359445e-01
9.694164e-01
1.291705e+00
1.644317e+00
2.004491e+00
2.372483e+00
2.771644e+00
3.148212e+00
3.515212e+00
3.849376e+00
4.120940e+00
4.294446e+00
4.349464e+00
4.327544e+00
0.000000e+00
4.445929e-01
9.106405e-01
1.420118e+00
1.930145e+00
2.412462e+00
2.921703e+00
3.415331e+00
3.905072e+00
4.397472e+00
4.875939e+00
5.350976e+00
5.782931e+00
6.128418e+00
6.343684e+00
6.438421e+00
6.455735e+00
0.000000e+00
9.904487e-01
1.683031e+00
2.435754e+00
3.121679e+00
3.770919e+00
4.469241e+00
5.097289e+00
5.739662e+00
6.329065e+00
6.906818e+00
7.505999e+00
8.039738e+00
8.445921e+00
8.648074e+00
8.701801e+00
8.702481e+00
0.000000e+00
-6.156279e-01
-1.356299e+00
-2.351578e+00
-3.521210e+00
-4.862521e+00
-6.388093e+00
-8.071707e+00
-9.928695e+00
-1.194839e+01
-1.413137e+01
-1.647547e+01
-1.898734e+01
-2.171740e+01
-2.467756e+01
-2.803860e+01
-3.305477e+01
0.000000e+00
-4.117330e-01
-1.187295e+00
-2.166536e+00
-3.351130e+00
-4.687267e+00
-6.211734e+00
-7.901723e+00
-9.753796e+00
-1.177993e+01
-1.395928e+01
-1.630903e+01
-1.881234e+01
-2.152573e+01
-2.453919e+01
-2.795388e+01
-3.200739e+01
0.000000e+00
-3.850772e-01
-1.086167e+00
-2.062835e+00
-3.230536e+00
-4.562733e+00
-6.089758e+00
-7.773727e+00
-9.634424e+00
-1.165879e+01
-1.384951e+01
-1.620946e+01
-1.872445e+01
-2.146375e+01
-2.453024e+01
-2.780042e+01
-3.083145e+01
0.000000e+00
-4.429690e-01
-1.081900e+00
-2.036120e+00
-3.165979e+00
-4.494365e+00
-6.024116e+00
-7.699813e+00
-9.576815e+00
-1.160210e+01
-1.381258e+01
-1.619190e+01
-1.873402e+01
-2.147291e+01
-2.446280e+01
-2.748948e+01
-3.010769e+01
0.000000e+00
-4.510280e-01
-1.103049e+00
-2.019893e+00
-3.153776e+00
-4.479893e+00
-6.004289e+00
-7.696550e+00
-9.570432e+00
-1.161594e+01
-1.383603e+01
-1.622692e+01
-1.877592e+01
-2.147426e+01
-2.431208e+01
-2.712447e+01
-2.950504e+01
0.000000e+00
-4.418660e-01
-1.081163e+00
-2.037666e+00
-3.173309e+00
-4.508418e+00
-6.050660e+00
-7.739021e+00
-9.633395e+00
-1.168202e+01
-1.390303e+01
-1.627935e+01
-1.880966e+01
-2.146408e+01
-2.417531e+01
-2.680641e+01
-2.907110e+01
0.000000e+00
-3.835403e-01
-1.085174e+00
-2.065648e+00
-3.242276e+00
-4.588309e+00
-6.136916e+00
-7.848704e+00
-9.740080e+00
-1.179485e+01
-1.399042e+01
-1.634649e+01
-1.885123e+01
-2.146501e+01
-2.409117e+01
-2.660016e+01
-2.884193e+01
0.000000e+00
-4.102796e-01
-1.186238e+00
-2.169354e+00
-3.363488e+00
-4.715571e+00
-6.265415e+00
-7.989734e+00
-9.877955e+00
-1.193079e+01
-1.410757e+01
-1.644593e+01
-1.892895e+01
-2.150696e+01
-2.407049e+01
-2.651202e+01
-2.878207e+01
0.000000e+00
-6.145028e-01
-1.355669e+00
-2.355234e+00
-3.534140e+00
-4.891430e+00
-6.442372e+00
-8.158148e+00
-1.004869e+01
-1.208801e+01
-1.426356e+01
-1.659488e+01
-1.905252e+01
-2.158807e+01
-2.409541e+01
-2.649682e+01
-2.878093e+01


0.000000e+00
1.533472e-05
2.502455e-05
3.715390e-05
5.291204e-05
6.624875e-05
8.141140e-05
9.607081e-05
1.102486e-04
1.251732e-04
1.404400e-04
1.547651e-04
1.721284e-04
1.870155e-04
1.955296e-04
2.008086e-04
2.076426e-04
0.000000e+00
1.145972e-05
1.981269e-05
2.846612e-05
4.129207e-05
5.193011e-05
6.231471e-05
7.367736e-05
8.376187e-05
9.492795e-05
1.053646e-04
1.151093e-04
1.264876e-04
1.350676e-04
1.354518e-04
1.390996e-04
1.449390e-04
0.000000e+00
9.642101e-06
1.530643e-05
2.077342e-05
3.009956e-05
3.698370e-05
4.328144e-05
5.086013e-05
5.676522e-05
6.351582e-05
6.933550e-05
7.396047e-05
7.853532e-05
8.004507e-05
7.883574e-05
8.121531e-05
8.550170e-05
0.000000e+00
5.276467e-06
7.215709e-06
1.043912e-05
1.468561e-05
1.651935e-05
1.985257e-05
2.255494e-05
2.493901e-05
2.756769e-05
2.952958e-05
2.948134e-05
2.830032e-05
2.647520e-05
2.638210e-05
2.948403e-05
3.512488e-05
0.000000e+00
-1.098026e-07
-2.804345e-07
-5.333982e-07
-9.641313e-07
-1.538178e-06
-2.390146e-06
-3.451799e-06
-4.214820e-06
-5.502199e-06
-7.834641e-06
-1.166226e-05
-1.454457e-05
-1.580113e-05
-1.540562e-05
-1.315612e-05
-9.236918e-06
0.000000e+00
-5.429515e-06
-7.586151e-06
-1.122301e-05
-1.590508e-05
-1.838428e-05
-2.298411e-05
-2.658214e-05
-3.071363e-05
-3.357596e-05
-3.735496e-05
-4.227077e-05
-4.678122e-05
-4.811048e-05
-4.862111e-05
-4.913208e-05
-4.754436e-05
0.000000e+00
-9.584991e-06
-1.531387e-05
-2.095067e-05
-3.036403e-05
-3.753482e-05
-4.394096e-05
-5.204417e-05
-5.818082e-05
-6.397420e-05
-6.869134e-05
-7.339380e-05
-7.751514e-05
-8.064555e-05
-8.255372e-05
-8.442760e-05
-8.516670e-05
0.000000e+00
-1.137247e-05
-1.971116e-05
-2.838156e-05
-4.112108e-05
-5.193341e-05
-6.218750e-05
-7.370284e-05
-8.393880e-05
-9.470679e-05
-1.049955e-04
-1.126399e-04
-1.176404e-04
-1.225326e-04
-1.259111e-04
-1.271063e-04
-1.272049e-04
0.000000e+00
-1.536359e-05
-2.499082e-05
-3.702327e-05
-5.259379e-05
-6.572517e-05
-8.065946e-05
-9.452173e-05
-1.088751e-04
-1.238224e-04
-1.414721e-04
-1.563498e-04
-1.654210e-04
-1.703884e-04
-1.725697e-04
-1.727386e-04
-1.725431e-04
0.000000e+00
1.262270e-05
1.998657e-05
3.224633e-05
4.807277e-05
6.513929e-05
8.775607e-05
1.142986e-04
1.446425e-04
1.799104e-04
2.189986e-04
2.629765e-04
3.137204e-04
3.673955e-04
4.285998e-04
4.991526e-04
5.718968e-04
0.000000e+00
7.673541e-06
1.608595e-05
2.615463e-05
4.162584e-05
5.927039e-05
8.132922e-05
1.082587e-04
1.385111e-04
1.735944e-04
2.129413e-04
2.567460e-04
3.071095e-04
3.630777e-04
4.237811e-04
4.918301e-04
5.615030e-04
0.000000e+00
4.271986e-06
1.219263e-05
2.134693e-05
3.588489e-05
5.417180e-05
7.630923e-05
1.034673e-04
1.339817e-04
1.690718e-04
2.084962e-04
2.526648e-04
3.034745e-04
3.610903e-04
4.199696e-04
4.843868e-04
5.516692e-04
0.000000e+00
3.029485e-06
1.024385e-05
1.939005e-05
3.362593e-05
5.163619e-05
7.413932e-05
1.019771e-04
1.329870e-04
1.672984e-04
2.067154e-04
2.517382e-04
3.031450e-04
3.598177e-04
4.173903e-04
4.766119e-04
5.374241e-04
0.000000e+00
2.583234e-06
9.748279e-06
1.908413e-05
3.312627e-05
5.086947e-05
7.350254e-05
1.018801e-04
1.330966e-04
1.667237e-04
2.054533e-04
2.523663e-04
3.038373e-04
3.599085e-04
4.162434e-04
4.702800e-04
5.215675e-04
0.000000e+00
3.146442e-06
1.039537e-05
1.964747e-05
3.383115e-05
5.162122e-05
7.432976e-05
1.021953e-04
1.333317e-04
1.665711e-04
2.059800e-04
2.543709e-04
3.063498e-04
3.600764e-04
4.160832e-04
4.679675e-04
5.109666e-04
0.000000e+00
4.407401e-06
1.241845e-05
2.170893e-05
3.612171e-05
5.431487e-05
7.636110e-05
1.034377e-04
1.336075e-04
1.677065e-04
2.082965e-04
2.576240e-04
3.098135e-04
3.619198e-04
4.150644e-04
4.653543e-04
5.077800e-04
0.000000e+00
7.785655e-06
1.634506e-05
2.652509e-05
4.196381e-05
5.952166e-05
8.147646e-05
1.080773e-04
1.375784e-04
1.719616e-04
2.127533e-04
2.609910e-04
3.127647e-04
3.640017e-04
4.150500e-04
4.634301e-04
5.082970e-04
0.000000e+00
1.272171e-05
2.024825e-05
3.260916e-05
4.844016e-05
6.544789e-05
8.794462e-05
1.141042e-04
1.437964e-04
1.784268e-04
2.194207e-04
2.649555e-04
3.148211e-04
3.652514e-04
4.152848e-04
4.629532e-04
5.085747e-04


5.323911e+00
5.802690e+00
6.474856e+00
5.541564e+00
4.878701e+00
5.086610e+00
5.281983e+00
5.617565e+00
5.583913e+00
5.779215e+00
6.090442e+00
6.997618e+00
8.677400e+00
9.619451e+00
8.919829e+00
7.763953e+00
7.828000e+00
8.176748e+00
8.362844e+00
8.070508e+00
7.654888e+00
7.750291e+00
7.932939e+00
7.954279e+00
8.052327e+00
8.055575e+00
8.195725e+00
8.621694e+00
9.333875e+00
9.618089e+00
8.182319e+00
6.280372e+00
9.685433e+00
9.676137e+00
9.823936e+00
9.657794e+00
9.645358e+00
9.683149e+00
9.635931e+00
9.706984e+00
9.651970e+00
9.698492e+00
9.689392e+00
9.685825e+00
9.703107e+00
9.207679e+00
7.748212e+00
5.968589e+00
9.914027e+00
9.912680e+00
9.912248e+00
9.904848e+00
9.900182e+00
9.895891e+00
9.889958e+00
9.887703e+00
9.882211e+00
9.862529e+00
9.793519e+00
9.279975e+00
8.651806e+00
8.194288e+00
7.719769e+00
7.520352e+00
9.913761e+00
9.912026e+00
9.911103e+00
9.902164e+00
9.894940e+00
9.887312e+00
9.874483e+00
9.868781e+00
9.847754e+00
9.713968e+00
9.129598e+00
8.264682e+00
7.419689e+00
7.483184e+00
8.331788e+00
8.815919e+00
9.685687e+00
9.673280e+00
9.817033e+00
9.641538e+00
9.613131e+00
9.625836e+00
9.542641e+00
9.570614e+00
9.231761e+00
8.614774e+00
8.063013e+00
7.575765e+00
7.745774e+00
8.389634e+00
9.190249e+00
9.748715e+00
7.836561e+00
8.177031e+00
8.352119e+00
8.042155e+00
7.613302e+00
7.672706e+00
7.772037e+00
7.656241e+00
7.396835e+00
7.013291e+00
7.229926e+00
8.173625e+00
8.939049e+00
9.552886e+00
9.841081e+00
9.895785e+00
5.349201e+00
5.810260e+00
6.469369e+00
5.525469e+00
4.865213e+00
5.058987e+00
5.160069e+00
5.434266e+00
5.390497e+00
5.927942e+00
7.468741e+00
8.852968e+00
9.737516e+00
9.869312e+00
9.906034e+00
9.919556e+00


-7.935455e-01
-1.959364e-01
-3.822783e-01
-2.460642e-01
-1.283078e-01
-2.784001e-01
-1.389204e-01
-2.048743e-01
-1.545301e-01
-1.807315e-01
-1.861794e-01
-1.634404e-01
-4.892370e-01
-6.344609e-01
3.267315e-01
-8.470011e-01
6.131537e-01
4.692080e-01
3.024065e-01
2.289137e-01
2.806627e-01
1.723587e-01
1.796611e-01
1.695778e-01
1.217679e-01
1.425873e-01
1.452450e-01
2.494261e-01
3.024539e-01
5.310975e-01
7.000283e-01
-9.558912e-01
7.305130e-01
4.759383e-01
8.096305e-02
1.151697e-02
-2.938971e-02
-1.402517e-01
-6.735649e-02
-1.070729e-01
-4.467708e-02
-2.497435e-04
6.669672e-02
2.093379e-01
2.943532e-01
1.602818e-01
-1.266779e-02
-1.816423e-01
7.356117e-01
5.594764e-01
2.067627e-01
8.343287e-02
-1.617921e-02
-7.297797e-02
-1.571252e-02
-3.841313e-02
3.375653e-02
4.168380e-02
8.185126e-02
1.262499e-01
5.826628e-02
-2.713814e-01
-3.731718e-01
-6.657927e-02
7.381076e-01
5.631587e-01
2.125849e-01
8.534693e-02
-1.716631e-02
-8.797828e-02
-3.817453e-02
-7.506227e-02
-2.270729e-02
-1.250776e-02
2.443715e-02
1.724423e-02
-3.680671e-02
-1.436492e-01
-1.037031e-01
3.217837e-01
7.362147e-01
4.860574e-01
9.652480e-02
2.179998e-02
-2.829497e-02
-1.685614e-01
-1.282137e-01
-2.101178e-01
-1.687110e-01
-9.638393e-02
-8.907594e-02
-1.045522e-01
-9.041675e-02
5.385018e-02
3.342376e-01
7.309594e-01
6.158748e-01
4.762810e-01
3.099025e-01
2.372138e-01
2.868314e-01
1.642681e-01
1.442248e-01
8.134844e-02
-4.292504e-02
-3.700173e-02
-1.015582e-01
-7.207155e-02
7.544579e-02
3.787490e-01
7.145276e-01
9.482937e-01
-8.008012e-01
-1.968195e-01
-3.916270e-01
-2.555589e-01
-1.283034e-01
-2.806324e-01
-1.170140e-01
-1.428581e-01
-6.196092e-02
-2.910063e-02
-8.881006e-02
8.562917e-02
4.010329e-01
7.730554e-01
9.524973e-01
9.987251e-01
1 2 19 18
2 3 20 19
3 4 21 20
4 5 22 21
5 6 23 22
6 7 24 23
7 8 25 24
8 9 26 25
9 10 27 26
10 11 28 27
11 12 29 28
12 13 30 29
13 14 31 30
14 15 32 31
15 16 33 32
16 17 34 33
18 19 36 35
19 20 37 36
20 21 38 37
21 22 39 38
22 23 40 39
23 24 41 40
24 25 42 41
25 26 43 42
26 27 44 43
27 28 45 44
28 29 46 45
29 30 47 46
30 31 48 47
31 32 49 48
32 33 50 49
33 34 51 50
35 36 53 52
36 37 54 53
37 38 55 54
38 39 56 55
39 40 57 56
40 41 58 57
41 42 59 58
42 43 60 59
43 44 61 60
44 45 62 61
45 46 63 62
46 47 64 63
47 48 65 64
48 49 66 65
49 50 67 66
50 51 68 67
52 53 70 69
53 54 71 70
54 55 72 71
55 56 73 72
56 57 74 73
57 58 75 74
58 59 76 75
59 60 77 76
60 61 78 77
61 62 79 78
62 63 80 79
63 64 81 80
64 65 82 81
65 66 83 82
66 67 84 83
67 68 85 84
69 70 87 86
70 71 88 87
71 72 89 88
72 73 90 89
73 74 91 90
74 75 92 91
75 76 93 92
76 77 94 93
77 78 95 94
78 79 96 95
79 80 97 96
80 81 98 97
81 82 99 98
82 83 100 99
83 84 101 100
84 85 102 101
86 87 104 103
87 88 105 104
88 89 106 105
89 90 107 106
90 91 108 107
91 92 109 108
92 93 110 109
93 94 111 110
94 95 112 111
95 96 113 112
96 97 114 113
97 98 115 114
98 99 116 115
99 100 117 116
100 101 118 117
101 102 119 118
103 104 121 120
104 105 122 121
105 106 123 122
106 107 124 123
107 108 125 124
108 109 126 125
109 110 127 126
110 111 128 127
111 112 129 128
112 113 130 129
113 114 131 130
114 115 132 131
115 116 133 132
116 117 134 133
117 118 135 134
118 119 136 135
120 121 138 137
121 122 139 138
122 123 140 139
123 124 141 140
124 125 142 141
125 126 143 142
126 127 144 143
127 128 145 144
128 129 146 145
129 130 147 146
130 131 148 147
131 132 149 148
132 133 150 149
133 134 151 150
134 135 152 151
135 136 153 152
