TITLE = "Solution"
VARIABLES = x, y, u, v, psiu, psiv, t, stress
ZONE T="structure" N=153 E=128 F=FEBLOCK ET=QUADRILATERAL VARLOCATION=([7,8]=cellcentered)
0.000000e+00
1.250000e+01
2.500000e+01
3.750000e+01
5.000000e+01
6.250000e+01
7.500000e+01
8.750000e+01
1.000000e+02
1.125000e+02
1.250000e+02
1.375000e+02
1.500000e+02
1.625000e+02
1.750000e+02
1.875000e+02
2.000000e+02
0.000000e+00
1.250000e+01
2.500000e+01
3.750000e+01
5.000000e+01
6.250000e+01
7.500000e+01
8.750000e+01
1.000000e+02
1.125000e+02
1.250000e+02
1.375000e+02
1.500000e+02
1.625000e+02
1.750000e+02
1.875000e+02
2.000000e+02
0.000000e+00
1.250000e+01
2.500000e+01
3.750000e+01
5.000000e+01
6.250000e+01
7.500000e+01
8.750000e+01
1.000000e+02
1.125000e+02
1.250000e+02
1.375000e+02
1.500000e+02
1.625000e+02
1.750000e+02
1.875000e+02
2.000000e+02
0.000000e+00
1.250000e+01
2.500000e+01
3.750000e+01
5.000000e+01
6.250000e+01
7.500000e+01
8.750000e+01
1.000000e+02
1.125000e+02
1.250000e+02
1.375000e+02
1.500000e+02
1.625000e+02
1.750000e+02
1.875000e+02
2.000000e+02
0.000000e+00
1.250000e+01
2.500000e+01
3.750000e+01
5.000000e+01
6.250000e+01
7.500000e+01
8.750000e+01
1.000000e+02
1.125000e+02
1.250000e+02
1.375000e+02
1.500000e+02
1.625000e+02
1.750000e+02
1.875000e+02
2.000000e+02
0.000000e+00
1.250000e+01
2.500000e+01
3.750000e+01
5.000000e+01
6.250000e+01
7.500000e+01
8.750000e+01
1.000000e+02
1.125000e+02
1.250000e+02
1.375000e+02
1.500000e+02
1.625000e+02
1.750000e+02
1.875000e+02
2.000000e+02
0.000000e+00
1.250000e+01
2.500000e+01
3.750000e+01
5.000000e+01
6.250000e+01
7.500000e+01
8.750000e+01
1.000000e+02
1.125000e+02
1.250000e+02
1.375000e+02
1.500000e+02
1.625000e+02
1.750000e+02
1.875000e+02
2.000000e+02
0.000000e+00
1.250000e+01
2.500000e+01
3.750000e+01
5.000000e+01
6.250000e+01
7.500000e+01
8.750000e+01
1.000000e+02
1.125000e+02
1.250000e+02
1.375000e+02
1.500000e+02
1.625000e+02
1.750000e+02
1.875000e+02
2.000000e+02
0.000000e+00
1.250000e+01
2.500000e+01
3.750000e+01
5.000000e+01
6.250000e+01
7.500000e+01
8.750000e+01
1.000000e+02
1.125000e+02
1.250000e+02
1.375000e+02
1.500000e+02
1.625000e+02
1.750000e+02
1.875000e+02
2.000000e+02
0.000000e+00
0.000000e+00
0.000000e+00
0.000000e+00
0.000000e+00
0.000000e+00
0.000000e+00
0.000000e+00
0.000000e+00
0.000000e+00
0.000000e+00
0.000000e+00
0.000000e+00
0.000000e+00
0.000000e+00
0.000000e+00
0.000000e+00
1.250000e+01
1.250000e+01
1.250000e+01
1.250000e+01
1.250000e+01
1.250000e+01
1.250000e+01
1.250000e+01
1.250000e+01
1.250000e+01
1.250000e+01
1.250000e+01
1.250000e+01
1.250000e+01
1.250000e+01
1.250000e+01
1.250000e+01
2.500000e+01
2.500000e+01
2.500000e+01
2.500000e+01
2.500000e+01
2.500000e+01
2.500000e+01
2.500000e+01
2.500000e+01
2.500000e+01
2.500000e+01
2.500000e+01
2.500000e+01
2.500000e+01
2.500000e+01
2.500000e+01
2.500000e+01
3.750000e+01
3.750000e+01
3.750000e+01
3.750000e+01
3.750000e+01
3.750000e+01
3.750000e+01
3.750000e+01
3.750000e+01
3.750000e+01
3.750000e+01
3.750000e+01
3.750000e+01
3.750000e+01
3.750000e+01
3.750000e+01
3.750000e+01
5.000000e+01
5.000000e+01
5.000000e+01
5.000000e+01
5.000000e+01
5.000000e+01
5.000000e+01
5.000000e+01
5.000000e+01
5.000000e+01
5.000000e+01
5.000000e+01
5.000000e+01
5.000000e+01
5.000000e+01
5.000000e+01
5.000000e+01
6.250000e+01
6.250000e+01
6.250000e+01
6.250000e+01
6.250000e+01
6.250000e+01
6.250000e+01
6.250000e+01
6.250000e+01
6.250000e+01
6.250000e+01
6.250000e+01
6.250000e+01
6.250000e+01
6.250000e+01
6.250000e+01
6.250000e+01
7.500000e+01
7.500000e+01
7.500000e+01
7.500000e+01
7.500000e+01
7.500000e+01
7.500000e+01
7.500000e+01
7.500000e+01
7.500000e+01
7.500000e+01
7.500000e+01
7.500000e+01
7.500000e+01
7.500000e+01
7.500000e+01
7.500000e+01
8.750000e+01
8.750000e+01
8.750000e+01
8.750000e+01
8.750000e+01
8.750000e+01
8.750000e+01
8.750000e+01
8.750000e+01
8.750000e+01
8.750000e+01
8.750000e+01
8.750000e+01
8.750000e+01
8.750000e+01
8.750000e+01
8.750000e+01
1.000000e+02
1.000000e+02
1.000000e+02
1.000000e+02
1.000000e+02
1.000000e+02
1.000000e+02
1.000000e+02
1.000000e+02
1.000000e+02
1.000000e+02
1.000000e+02
1.000000e+02
1.000000e+02
1.000000e+02
1.000000e+02
1.000000e+02
0.000000e+00
-9.005650e-01
-1.586607e+00
-2.278420e+00
-2.966703e+00
-3.626163e+00
-4.296406e+00
-4.966567e+00
-5.627756e+00
-6.289102e+00
-6.957699e+00
-7.642952e+00
-8.344733e+00
-9.051018e+00
-9.754898e+00
-1.042785e+01
-1.086956e+01
0.000000e+00
-4.549826e-01
-9.424338e-01
-1.443372e+00
-1.960008e+00
-2.453527e+00
-2.954588e+00
-3.457386e+00
-3.952268e+00
-4.444691e+00
-4.937433e+00
-5.431636e+00
-5.916866e+00
-6.356596e+00
-6.665158e+00
-6.741001e+00
-6.901420e+00
0.000000e+00
-2.178710e-01
-4.751146e-01
-7.882301e-01
-1.126616e+00
-1.458456e+00
-1.798453e+00
-2.138643e+00
-2.473248e+00
-2.802337e+00
-3.120510e+00
-3.417009e+00
-3.669733e+00
-3.839728e+00
-3.881026e+00
-3.855265e+00
-4.008457e+00
0.000000e+00
-9.375230e-02
-2.027571e-01
-3.476094e-01
-5.046045e-01
-6.720891e-01
-8.428059e-01
-1.011469e+00
-1.175714e+00
-1.330440e+00
-1.466772e+00
-1.570833e+00
-1.624202e+00
-1.611321e+00
-1.551597e+00
-1.551895e+00
-1.682037e+00
0.000000e+00
-1.186251e-03
-2.350254e-03
-3.237811e-03
-3.441668e-03
-2.325381e-03
1.167376e-03
8.806893e-03
2.304945e-02
4.751155e-02
8.809405e-02
1.523770e-01
2.451053e-01
3.571594e-01
4.459522e-01
4.494934e-01
3.480818e-01
0.000000e+00
9.171533e-02
1.987503e-01
3.418984e-01
4.982257e-01
6.670827e-01
8.431220e-01
1.023870e+00
1.210949e+00
1.405736e+00
1.608627e+00
1.816639e+00
2.019906e+00
2.196193e+00
2.309553e+00
2.329465e+00
2.272397e+00
0.000000e+00
2.168442e-01
4.729857e-01
7.850073e-01
1.122357e+00
1.453815e+00
1.795389e+00
2.139782e+00
2.482193e+00
2.827536e+00
3.174738e+00
3.510605e+00
3.810707e+00
4.047071e+00
4.195110e+00
4.245587e+00
4.232302e+00
0.000000e+00
4.550518e-01
9.423320e-01
1.443104e+00
1.959068e+00
2.451049e+00
2.950546e+00
3.449962e+00
3.936387e+00
4.418640e+00
4.898847e+00
5.354845e+00
5.745403e+00
6.035856e+00
6.214016e+00
6.290849e+00
6.305158e+00
0.000000e+00
9.015359e-01
1.588519e+00
2.281687e+00
2.971065e+00
3.630383e+00
4.300024e+00
4.966125e+00
5.614405e+00
6.256614e+00
6.891932e+00
7.482305e+00
7.963361e+00
8.286266e+00
8.445135e+00
8.483636e+00
8.482306e+00
0.000000e+00
-5.585778e-01
-1.186559e+00
-2.021194e+00
-3.024585e+00
-4.194958e+00
-5.544163e+00
-7.066177e+00
-8.760504e+00
-1.063090e+01
-1.268004e+01
-1.491285e+01
-1.733292e+01
-1.994444e+01
-2.279182e+01
-2.608240e+01
-3.092421e+01
0.000000e+00
-3.610098e-01
-1.018862e+00
-1.841316e+00
-2.849550e+00
-4.021367e+00
-5.368648e+00
-6.892364e+00
-8.588596e+00
-1.045942e+01
-1.250784e+01
-1.474007e+01
-1.716457e+01
-1.979567e+01
-2.267806e+01
-2.598144e+01
-2.998550e+01
0.000000e+00
-3.124206e-01
-9.126857e-01
-1.726725e+00
-2.727711e+00
-3.898291e+00
-5.245600e+00
-6.770556e+00
-8.469873e+00
-1.034539e+01
-1.240104e+01
-1.464479e+01
-1.708848e+01
-1.975356e+01
-2.266878e+01
-2.580314e+01
-2.875121e+01
0.000000e+00
-3.284745e-01
-8.843732e-01
-1.675078e+00
-2.660543e+00
-3.828055e+00
-5.176199e+00
-6.703158e+00
-8.407779e+00
-1.029264e+01
-1.236307e+01
-1.462642e+01
-1.709010e+01
-1.976121e+01
-2.261496e+01
-2.547086e+01
-2.796848e+01
0.000000e+00
-3.370818e-01
-8.851307e-01
-1.662234e+00
-2.642575e+00
-3.808881e+00
-5.159547e+00
-6.690677e+00
-8.401607e+00
-1.029624e+01
-1.238112e+01
-1.466011e+01
-1.712808e+01
-1.976329e+01
-2.248871e+01
-2.512330e+01
-2.738363e+01
0.000000e+00
-3.284255e-01
-8.850793e-01
-1.677532e+00
-2.665967e+00
-3.837734e+00
-5.192561e+00
-6.729112e+00
-8.445111e+00
-1.034500e+01
-1.243717e+01
-1.472142e+01
-1.717732e+01
-1.975536e+01
-2.236027e+01
-2.484130e+01
-2.700255e+01
0.000000e+00
-3.123656e-01
-9.138342e-01
-1.730622e+00
-2.736387e+00
-3.913985e+00
-5.272229e+00
-6.812907e+00
-8.531177e+00
-1.043180e+01
-1.252397e+01
-1.480417e+01
-1.723930e+01
-1.976265e+01
-2.227704e+01
-2.466751e+01
-2.682584e+01
0.000000e+00
-3.609851e-01
-1.020121e+00
-1.845538e+00
-2.859039e+00
-4.038852e+00
-5.398360e+00
-6.939349e+00
-8.657071e+00
-1.055677e+01
-1.264550e+01
-1.491489e+01
-1.732463e+01
-1.980230e+01
-2.225501e+01
-2.459360e+01
-2.678493e+01
0.000000e+00
-5.587494e-01
-1.188018e+00
-2.025656e+00
-3.034166e+00
-4.212560e+00
-5.573861e+00
-7.111908e+00
-8.826564e+00
-1.072528e+01
-1.280901e+01
-1.506027e+01
-1.743537e+01
-1.986702e+01
-2.227287e+01
-2.457978e+01
-2.678615e+01


0.000000e+00
1.351926e-05
2.401961e-05
3.548459e-05
4.948105e-05
6.243279e-05
7.493704e-05
8.786054e-05
1.002214e-04
1.120114e-04
1.236644e-04
1.341337e-04
1.416993e-04
1.466529e-04
1.502135e-04
1.536199e-04
1.575142e-04
0.000000e+00
9.962187e-06
1.929268e-05
2.776572e-05
3.894153e-05
4.905105e-05
5.818991e-05
6.792801e-05
7.723896e-05
8.584409e-05
9.428331e-05
1.013841e-04
1.053299e-04
1.061475e-04
1.061809e-04
1.089908e-04
1.135275e-04
0.000000e+00
7.895138e-06
1.442692e-05
2.019574e-05
2.782501e-05
3.450464e-05
4.051248e-05
4.685603e-05
5.275014e-05
5.797957e-05
6.268887e-05
6.612481e-05
6.749354e-05
6.718148e-05
6.719005e-05
6.990510e-05
7.446432e-05
0.000000e+00
4.084517e-06
6.834659e-06
1.037679e-05
1.389294e-05
1.698909e-05
2.014006e-05
2.313152e-05
2.577345e-05
2.802143e-05
2.965972e-05
3.055514e-05
3.082732e-05
3.106636e-05
3.189830e-05
3.435400e-05
3.816994e-05
0.000000e+00
-2.858008e-08
-6.345508e-08
-1.020104e-07
-1.455129e-07
-1.916074e-07
-2.440832e-07
-3.204614e-07
-4.479932e-07
-7.070548e-07
-1.212058e-06
-1.872228e-06
-2.371870e-06
-2.287475e-06
-1.431902e-06
-5.482454e-08
1.955622e-06
0.000000e+00
-4.134232e-06
-6.938893e-06
-1.055573e-05
-1.414489e-05
-1.731225e-05
-2.055340e-05
-2.361808e-05
-2.633871e-05
-2.884952e-05
-3.100733e-05
-3.269761e-05
-3.383544e-05
-3.430430e-05
-3.445907e-05
-3.446706e-05
-3.388568e-05
0.000000e+00
-7.912644e-06
-1.448191e-05
-2.030374e-05
-2.798020e-05
-3.473702e-05
-4.082091e-05
-4.711815e-05
-5.297350e-05
-5.817416e-05
-6.240628e-05
-6.508308e-05
-6.654202e-05
-6.745642e-05
-6.811898e-05
-6.856712e-05
-6.858062e-05
0.000000e+00
-9.952251e-06
-1.928967e-05
-2.777456e-05
-3.894553e-05
-4.909504e-05
-5.828173e-05
-6.790644e-05
-7.721419e-05
-8.594464e-05
-9.344335e-05
-9.828551e-05
-1.007404e-04
-1.021113e-04
-1.029523e-04
-1.033802e-04
-1.034738e-04
0.000000e+00
-1.350869e-05
-2.398079e-05
-3.540685e-05
-4.933143e-05
-6.221627e-05
-7.466266e-05
-8.741772e-05
-9.971195e-05
-1.116805e-04
-1.225700e-04
-1.305172e-04
-1.352579e-04
-1.376879e-04
-1.386979e-04
-1.389521e-04
-1.389629e-04
0.000000e+00
1.143890e-05
1.895036e-05
2.966103e-05
4.377578e-05
5.962158e-05
7.911147e-05
1.024222e-04
1.285328e-04
1.577972e-04
1.901706e-04
2.244675e-04
2.601805e-04
2.987385e-04
3.437266e-04
3.956047e-04
4.479673e-04
0.000000e+00
6.431019e-06
1.461043e-05
2.406522e-05
3.765784e-05
5.404794e-05
7.354461e-05
9.678927e-05
1.232288e-04
1.527098e-04
1.854010e-04
2.208215e-04
2.582028e-04
2.977009e-04
3.407745e-04
3.901257e-04
4.409996e-04
0.000000e+00
3.122090e-06
1.063668e-05
1.983884e-05
3.291778e-05
4.974517e-05
6.952896e-05
9.276841e-05
1.195047e-04
1.493482e-04
1.824403e-04
2.186848e-04
2.572369e-04
2.970260e-04
3.369601e-04
3.825987e-04
4.314165e-04
0.000000e+00
1.915602e-06
8.577701e-06
1.797813e-05
3.102692e-05
4.788949e-05
6.786189e-05
9.123668e-05
1.181260e-04
1.482674e-04
1.816294e-04
2.180042e-04
2.567260e-04
2.961204e-04
3.339201e-04
3.754121e-04
4.207777e-04
0.000000e+00
1.596842e-06
7.958470e-06
1.738636e-05
3.053746e-05
4.730087e-05
6.733641e-05
9.080849e-05
1.177673e-04
1.481162e-04
1.816720e-04
2.179900e-04
2.564488e-04
2.956063e-04
3.328180e-04
3.712397e-04
4.123274e-04
0.000000e+00
1.930484e-06
8.590382e-06
1.798220e-05
3.100121e-05
4.782030e-05
6.777943e-05
9.114272e-05
1.180703e-04
1.485304e-04
1.823244e-04
2.187257e-04
2.569158e-04
2.955221e-04
3.330863e-04
3.702412e-04
4.076556e-04
0.000000e+00
3.144784e-06
1.065958e-05
1.985157e-05
3.288193e-05
4.963856e-05
6.939467e-05
9.258368e-05
1.193803e-04
1.498078e-04
1.837270e-04
2.201432e-04
2.578854e-04
2.958990e-04
3.332421e-04
3.699151e-04
4.058022e-04
0.000000e+00
6.458148e-06
1.464609e-05
2.409065e-05
3.764184e-05
5.395991e-05
7.338690e-05
9.656387e-05
1.231025e-04
1.531383e-04
1.865165e-04
2.220791e-04
2.589127e-04
2.962956e-04
3.333332e-04
3.697178e-04
4.053798e-04
0.000000e+00
1.146622e-05
1.899125e-05
2.969197e-05
4.377170e-05
5.956381e-05
7.895222e-05
1.021764e-04
1.284784e-04
1.581361e-04
1.904999e-04
2.244709e-04
2.600492e-04
2.967368e-04
3.334659e-04
3.696753e-04
4.053593e-04


2.762395e+00
2.635421e+00
2.705055e+00
2.730264e+00
2.777367e+00
3.042303e+00
3.313063e+00
3.633642e+00
4.092236e+00
4.710548e+00
5.503766e+00
6.306745e+00
6.818959e+00
6.657092e+00
5.678620e+00
4.761792e+00
4.337266e+00
4.212558e+00
4.207655e+00
4.191259e+00
4.189857e+00
4.359447e+00
4.536182e+00
4.745044e+00
5.055679e+00
5.481730e+00
6.032658e+00
6.593236e+00
6.908675e+00
6.544868e+00
5.385279e+00
4.292330e+00
6.224877e+00
6.155191e+00
6.128240e+00
6.074513e+00
6.049067e+00
6.108975e+00
6.161901e+00
6.227899e+00
6.335671e+00
6.487399e+00
6.695108e+00
6.913792e+00
6.994648e+00
6.569799e+00
5.509542e+00
4.601806e+00
7.171093e+00
7.140739e+00
7.118340e+00
7.067639e+00
7.046824e+00
7.047671e+00
7.035968e+00
7.019205e+00
7.000386e+00
6.978583e+00
6.967747e+00
6.977586e+00
6.966529e+00
6.724776e+00
6.170566e+00
5.704757e+00
7.170560e+00
7.139517e+00
7.116116e+00
7.063802e+00
7.040456e+00
7.037758e+00
7.018496e+00
6.985843e+00
6.946802e+00
6.907812e+00
6.880356e+00
6.883823e+00
6.923596e+00
6.912076e+00
6.791978e+00
6.674127e+00
6.222861e+00
6.151168e+00
6.120928e+00
6.061969e+00
6.029385e+00
6.081313e+00
6.115388e+00
6.145756e+00
6.231181e+00
6.389757e+00
6.590862e+00
6.786973e+00
6.963716e+00
7.102034e+00
7.175731e+00
7.201819e+00
4.334650e+00
4.207422e+00
4.198970e+00
4.176274e+00
4.168058e+00
4.334652e+00
4.498055e+00
4.690198e+00
5.050930e+00
5.594774e+00
6.200112e+00
6.702494e+00
7.042609e+00
7.254863e+00
7.375092e+00
7.426516e+00
2.760739e+00
2.632075e+00
2.699900e+00
2.721474e+00
2.766306e+00
3.038521e+00
3.313413e+00
3.651219e+00
4.236078e+00
5.073374e+00
5.965526e+00
6.668181e+00
7.102261e+00
7.337983e+00
7.455919e+00
7.504224e+00


-6.153366e-01
-2.205422e-01
-2.469278e-01
-2.728682e-01
-1.694868e-01
-2.069138e-01
-2.120195e-01
-1.801412e-01
-1.773365e-01
-1.937600e-01
-2.289505e-01
-2.370784e-01
-1.385509e-01
1.204937e-01
5.014449e-01
-6.753920e-01
5.519899e-01
4.140498e-01
3.274330e-01
2.645933e-01
3.053204e-01
2.716102e-01
2.562260e-01
2.650706e-01
2.652623e-01
2.729913e-01
3.044357e-01
3.954969e-01
5.782985e-01
8.028245e-01
7.418142e-01
-1.221016e+00
8.152648e-01
6.658122e-01
5.171958e-01
4.612112e-01
4.508977e-01
4.238639e-01
4.142611e-01
4.160401e-01
4.213238e-01
4.393247e-01
4.744718e-01
5.237082e-01
5.430324e-01
4.307782e-01
1.620694e-01
-3.206835e-01
8.654298e-01
7.354704e-01
5.778325e-01
4.940646e-01
4.537776e-01
4.334649e-01
4.273046e-01
4.278816e-01
4.266610e-01
4.139977e-01
3.783162e-01
3.015166e-01
1.525736e-01
-3.927266e-02
-4.681357e-02
5.392235e-02
8.662830e-01
7.364364e-01
5.784111e-01
4.925536e-01
4.482625e-01
4.200655e-01
4.011979e-01
3.835019e-01
3.528143e-01
2.929529e-01
1.960806e-01
6.852330e-02
-5.806886e-02
-7.681782e-02
1.306669e-01
4.785952e-01
8.172939e-01
6.682248e-01
5.190486e-01
4.596646e-01
4.420932e-01
3.996817e-01
3.649346e-01
3.295709e-01
2.693782e-01
1.811592e-01
8.321703e-02
1.594722e-02
3.408465e-02
1.968597e-01
4.964291e-01
8.205850e-01
5.534507e-01
4.158492e-01
3.286954e-01
2.651112e-01
3.032557e-01
2.606355e-01
2.330896e-01
2.260132e-01
1.821624e-01
1.144610e-01
8.313914e-02
1.480705e-01
3.151347e-01
5.561423e-01
8.065644e-01
9.683042e-01
-6.174145e-01
-2.221470e-01
-2.494888e-01
-2.740527e-01
-1.669439e-01
-2.042732e-01
-2.002376e-01
-1.442538e-01
-1.325704e-01
-1.279452e-01
-1.367095e-02
2.653280e-01
5.990615e-01
8.482047e-01
9.700019e-01
9.994113e-01
1 2 19 18
2 3 20 19
3 4 21 20
4 5 22 21
5 6 23 22
6 7 24 23
7 8 25 24
8 9 26 25
9 10 27 26
10 11 28 27
11 12 29 28
12 13 30 29
13 14 31 30
14 15 32 31
15 16 33 32
16 17 34 33
18 19 36 35
19 20 37 36
20 21 38 37
21 22 39 38
22 23 40 39
23 24 41 40
24 25 42 41
25 26 43 42
26 27 44 43
27 28 45 44
28 29 46 45
29 30 47 46
30 31 48 47
31 32 49 48
32 33 50 49
33 34 51 50
35 36 53 52
36 37 54 53
37 38 55 54
38 39 56 55
39 40 57 56
40 41 58 57
41 42 59 58
42 43 60 59
43 44 61 60
44 45 62 61
45 46 63 62
46 47 64 63
47 48 65 64
48 49 66 65
49 50 67 66
50 51 68 67
52 53 70 69
53 54 71 70
54 55 72 71
55 56 73 72
56 57 74 73
57 58 75 74
58 59 76 75
59 60 77 76
60 61 78 77
61 62 79 78
62 63 80 79
63 64 81 80
64 65 82 81
65 66 83 82
66 67 84 83
67 68 85 84
69 70 87 86
70 71 88 87
71 72 89 88
72 73 90 89
73 74 91 90
74 75 92 91
75 76 93 92
76 77 94 93
77 78 95 94
78 79 96 95
79 80 97 96
80 81 98 97
81 82 99 98
82 83 100 99
83 84 101 100
84 85 102 101
86 87 104 103
87 88 105 104
88 89 106 105
89 90 107 106
90 91 108 107
91 92 109 108
92 93 110 109
93 94 111 110
94 95 112 111
95 96 113 112
96 97 114 113
97 98 115 114
98 99 116 115
99 100 117 116
100 101 118 117
101 102 119 118
103 104 121 120
104 105 122 121
105 106 123 122
106 107 124 123
107 108 125 124
108 109 126 125
109 110 127 126
110 111 128 127
111 112 129 128
112 113 130 129
113 114 131 130
114 115 132 131
115 116 133 132
116 117 134 133
117 118 135 134
118 119 136 135
120 121 138 137
121 122 139 138
122 123 140 139
123 124 141 140
124 125 142 141
125 126 143 142
126 127 144 143
127 128 145 144
128 129 146 145
129 130 147 146
130 131 148 147
131 132 149 148
132 133 150 149
133 134 151 150
134 135 152 151
135 136 153 152
