TITLE = "Solution"
VARIABLES = x, y, u, v, psiu, psiv, t, stress
ZONE T="structure" N=153 E=128 F=FEBLOCK ET=QUADRILATERAL VARLOCATION=([7,8]=cellcentered)
0.000000e+00
1.250000e+01
2.500000e+01
3.750000e+01
5.000000e+01
6.250000e+01
7.500000e+01
8.750000e+01
1.000000e+02
1.125000e+02
1.250000e+02
1.375000e+02
1.500000e+02
1.625000e+02
1.750000e+02
1.875000e+02
2.000000e+02
0.000000e+00
1.250000e+01
2.500000e+01
3.750000e+01
5.000000e+01
6.250000e+01
7.500000e+01
8.750000e+01
1.000000e+02
1.125000e+02
1.250000e+02
1.375000e+02
1.500000e+02
1.625000e+02
1.750000e+02
1.875000e+02
2.000000e+02
0.000000e+00
1.250000e+01
2.500000e+01
3.750000e+01
5.000000e+01
6.250000e+01
7.500000e+01
8.750000e+01
1.000000e+02
1.125000e+02
1.250000e+02
1.375000e+02
1.500000e+02
1.625000e+02
1.750000e+02
1.875000e+02
2.000000e+02
0.000000e+00
1.250000e+01
2.500000e+01
3.750000e+01
5.000000e+01
6.250000e+01
7.500000e+01
8.750000e+01
1.000000e+02
1.125000e+02
1.250000e+02
1.375000e+02
1.500000e+02
1.625000e+02
1.750000e+02
1.875000e+02
2.000000e+02
0.000000e+00
1.250000e+01
2.500000e+01
3.750000e+01
5.000000e+01
6.250000e+01
7.500000e+01
8.750000e+01
1.000000e+02
1.125000e+02
1.250000e+02
1.375000e+02
1.500000e+02
1.625000e+02
1.750000e+02
1.875000e+02
2.000000e+02
0.000000e+00
1.250000e+01
2.500000e+01
3.750000e+01
5.000000e+01
6.250000e+01
7.500000e+01
8.750000e+01
1.000000e+02
1.125000e+02
1.250000e+02
1.375000e+02
1.500000e+02
1.625000e+02
1.750000e+02
1.875000e+02
2.000000e+02
0.000000e+00
1.250000e+01
2.500000e+01
3.750000e+01
5.000000e+01
6.250000e+01
7.500000e+01
8.750000e+01
1.000000e+02
1.125000e+02
1.250000e+02
1.375000e+02
1.500000e+02
1.625000e+02
1.750000e+02
1.875000e+02
2.000000e+02
0.000000e+00
1.250000e+01
2.500000e+01
3.750000e+01
5.000000e+01
6.250000e+01
7.500000e+01
8.750000e+01
1.000000e+02
1.125000e+02
1.250000e+02
1.375000e+02
1.500000e+02
1.625000e+02
1.750000e+02
1.875000e+02
2.000000e+02
0.000000e+00
1.250000e+01
2.500000e+01
3.750000e+01
5.000000e+01
6.250000e+01
7.500000e+01
8.750000e+01
1.000000e+02
1.125000e+02
1.250000e+02
1.375000e+02
1.500000e+02
1.625000e+02
1.750000e+02
1.875000e+02
2.000000e+02
0.000000e+00
0.000000e+00
0.000000e+00
0.000000e+00
0.000000e+00
0.000000e+00
0.000000e+00
0.000000e+00
0.000000e+00
0.000000e+00
0.000000e+00
0.000000e+00
0.000000e+00
0.000000e+00
0.000000e+00
0.000000e+00
0.000000e+00
1.250000e+01
1.250000e+01
1.250000e+01
1.250000e+01
1.250000e+01
1.250000e+01
1.250000e+01
1.250000e+01
1.250000e+01
1.250000e+01
1.250000e+01
1.250000e+01
1.250000e+01
1.250000e+01
1.250000e+01
1.250000e+01
1.250000e+01
2.500000e+01
2.500000e+01
2.500000e+01
2.500000e+01
2.500000e+01
2.500000e+01
2.500000e+01
2.500000e+01
2.500000e+01
2.500000e+01
2.500000e+01
2.500000e+01
2.500000e+01
2.500000e+01
2.500000e+01
2.500000e+01
2.500000e+01
3.750000e+01
3.750000e+01
3.750000e+01
3.750000e+01
3.750000e+01
3.750000e+01
3.750000e+01
3.750000e+01
3.750000e+01
3.750000e+01
3.750000e+01
3.750000e+01
3.750000e+01
3.750000e+01
3.750000e+01
3.750000e+01
3.750000e+01
5.000000e+01
5.000000e+01
5.000000e+01
5.000000e+01
5.000000e+01
5.000000e+01
5.000000e+01
5.000000e+01
5.000000e+01
5.000000e+01
5.000000e+01
5.000000e+01
5.000000e+01
5.000000e+01
5.000000e+01
5.000000e+01
5.000000e+01
6.250000e+01
6.250000e+01
6.250000e+01
6.250000e+01
6.250000e+01
6.250000e+01
6.250000e+01
6.250000e+01
6.250000e+01
6.250000e+01
6.250000e+01
6.250000e+01
6.250000e+01
6.250000e+01
6.250000e+01
6.250000e+01
6.250000e+01
7.500000e+01
7.500000e+01
7.500000e+01
7.500000e+01
7.500000e+01
7.500000e+01
7.500000e+01
7.500000e+01
7.500000e+01
7.500000e+01
7.500000e+01
7.500000e+01
7.500000e+01
7.500000e+01
7.500000e+01
7.500000e+01
7.500000e+01
8.750000e+01
8.750000e+01
8.750000e+01
8.750000e+01
8.750000e+01
8.750000e+01
8.750000e+01
8.750000e+01
8.750000e+01
8.750000e+01
8.750000e+01
8.750000e+01
8.750000e+01
8.750000e+01
8.750000e+01
8.750000e+01
8.750000e+01
1.000000e+02
1.000000e+02
1.000000e+02
1.000000e+02
1.000000e+02
1.000000e+02
1.000000e+02
1.000000e+02
1.000000e+02
1.000000e+02
1.000000e+02
1.000000e+02
1.000000e+02
1.000000e+02
1.000000e+02
1.000000e+02
1.000000e+02
0.000000e+00
-9.932055e-01
-1.679795e+00
-2.430893e+00
-3.114558e+00
-3.753214e+00
-4.456300e+00
-5.087928e+00
-5.763260e+00
-6.404907e+00
-7.057026e+00
-7.722546e+00
-8.376767e+00
-9.148808e+00
-1.007731e+01
-1.083282e+01
-1.128306e+01
0.000000e+00
-4.447923e-01
-9.077364e-01
-1.419104e+00
-1.930163e+00
-2.412215e+00
-2.925560e+00
-3.423538e+00
-3.920170e+00
-4.421694e+00
-4.915313e+00
-5.417248e+00
-5.902137e+00
-6.422935e+00
-6.897095e+00
-7.022712e+00
-7.201533e+00
0.000000e+00
-1.464685e-01
-3.501369e-01
-6.404177e-01
-9.784003e-01
-1.304055e+00
-1.657670e+00
-2.013489e+00
-2.358071e+00
-2.718933e+00
-3.058261e+00
-3.392115e+00
-3.687342e+00
-3.927126e+00
-4.035582e+00
-4.033301e+00
-4.181886e+00
0.000000e+00
-7.888499e-02
-1.623255e-01
-3.094487e-01
-4.543821e-01
-6.286445e-01
-8.125676e-01
-9.792443e-01
-1.165592e+00
-1.327698e+00
-1.488865e+00
-1.627571e+00
-1.720642e+00
-1.728523e+00
-1.655343e+00
-1.635119e+00
-1.752607e+00
0.000000e+00
-3.194005e-03
-6.970453e-03
-1.089502e-02
-1.499042e-02
-1.797079e-02
-1.840868e-02
-1.516745e-02
-6.156772e-03
1.068253e-02
3.516361e-02
7.958318e-02
1.615844e-01
2.761932e-01
3.955661e-01
4.358893e-01
3.376647e-01
0.000000e+00
7.333527e-02
1.510354e-01
2.909845e-01
4.294125e-01
5.974853e-01
7.765007e-01
9.482456e-01
1.153470e+00
1.348059e+00
1.563764e+00
1.784140e+00
2.009945e+00
2.215922e+00
2.351389e+00
2.384369e+00
2.318902e+00
0.000000e+00
1.442786e-01
3.450966e-01
6.316611e-01
9.663888e-01
1.291144e+00
1.643347e+00
2.000131e+00
2.363137e+00
2.766631e+00
3.144842e+00
3.511803e+00
3.845269e+00
4.119693e+00
4.295508e+00
4.350272e+00
4.327775e+00
0.000000e+00
4.455875e-01
9.084737e-01
1.419656e+00
1.930045e+00
2.410363e+00
2.920805e+00
3.415500e+00
3.904106e+00
4.396996e+00
4.875461e+00
5.350683e+00
5.779941e+00
6.126961e+00
6.343438e+00
6.438925e+00
6.456524e+00
0.000000e+00
9.954355e-01
1.684563e+00
2.439472e+00
3.125786e+00
3.765802e+00
4.468905e+00
5.097574e+00
5.745484e+00
6.331007e+00
6.905675e+00
7.506336e+00
8.037728e+00
8.448165e+00
8.649731e+00
8.702778e+00
8.703351e+00
0.000000e+00
-6.178409e-01
-1.360696e+00
-2.360679e+00
-3.534098e+00
-4.877784e+00
-6.407736e+00
-8.093521e+00
-9.953478e+00
-1.197619e+01
-1.416103e+01
-1.651059e+01
-1.902408e+01
-2.175525e+01
-2.471869e+01
-2.807853e+01
-3.309447e+01
0.000000e+00
-4.145198e-01
-1.192044e+00
-2.174932e+00
-3.364671e+00
-4.703172e+00
-6.230728e+00
-7.924355e+00
-9.777628e+00
-1.180837e+01
-1.398875e+01
-1.634321e+01
-1.885072e+01
-2.156278e+01
-2.457892e+01
-2.799458e+01
-3.204526e+01
0.000000e+00
-3.886828e-01
-1.090508e+00
-2.071511e+00
-3.244968e+00
-4.577797e+00
-6.110227e+00
-7.795105e+00
-9.658481e+00
-1.168674e+01
-1.387830e+01
-1.624383e+01
-1.876191e+01
-2.150058e+01
-2.456920e+01
-2.784236e+01
-3.087454e+01
0.000000e+00
-4.475278e-01
-1.086778e+00
-2.045327e+00
-3.181787e+00
-4.508872e+00
-6.047176e+00
-7.719383e+00
-9.600741e+00
-1.162874e+01
-1.384132e+01
-1.622662e+01
-1.877072e+01
-2.151061e+01
-2.450004e+01
-2.753241e+01
-3.015659e+01
0.000000e+00
-4.548541e-01
-1.108829e+00
-2.029375e+00
-3.168377e+00
-4.497598e+00
-6.026401e+00
-7.716789e+00
-9.591855e+00
-1.164142e+01
-1.386703e+01
-1.626070e+01
-1.881224e+01
-2.151174e+01
-2.434919e+01
-2.716625e+01
-2.955256e+01
0.000000e+00
-4.462642e-01
-1.086334e+00
-2.047251e+00
-3.188753e+00
-4.525532e+00
-6.074115e+00
-7.756620e+00
-9.654107e+00
-1.170763e+01
-1.393627e+01
-1.631288e+01
-1.884392e+01
-2.150161e+01
-2.421362e+01
-2.684681e+01
-2.911532e+01
0.000000e+00
-3.869859e-01
-1.090250e+00
-2.075768e+00
-3.258161e+00
-4.606111e+00
-6.156070e+00
-7.865961e+00
-9.760073e+00
-1.182280e+01
-1.402298e+01
-1.637997e+01
-1.888371e+01
-2.150171e+01
-2.413077e+01
-2.663979e+01
-2.888272e+01
0.000000e+00
-4.129472e-01
-1.191835e+00
-2.179859e+00
-3.379789e+00
-4.733429e+00
-6.282290e+00
-8.007141e+00
-9.898656e+00
-1.195945e+01
-1.413878e+01
-1.647866e+01
-1.896086e+01
-2.154337e+01
-2.411024e+01
-2.655206e+01
-2.882240e+01
0.000000e+00
-6.168117e-01
-1.361074e+00
-2.366320e+00
-3.549645e+00
-4.908147e+00
-6.460018e+00
-8.175758e+00
-1.007048e+01
-1.211547e+01
-1.429416e+01
-1.662714e+01
-1.908443e+01
-2.162512e+01
-2.413498e+01
-2.653708e+01
-2.882126e+01


0.000000e+00
1.541522e-05
2.512179e-05
3.749261e-05
5.357297e-05
6.719637e-05
8.295230e-05
9.709938e-05
1.115457e-04
1.256434e-04
1.407708e-04
1.550735e-04
1.718388e-04
1.874370e-04
1.971094e-04
2.027297e-04
2.096445e-04
0.000000e+00
1.146281e-05
1.974820e-05
2.837828e-05
4.101765e-05
5.168580e-05
6.182152e-05
7.298571e-05
8.317364e-05
9.456993e-05
1.052485e-04
1.154623e-04
1.264813e-04
1.356667e-04
1.369449e-04
1.406658e-04
1.464954e-04
0.000000e+00
9.539222e-06
1.501597e-05
2.016668e-05
2.889117e-05
3.553812e-05
4.136032e-05
4.875924e-05
5.478480e-05
6.209186e-05
6.852009e-05
7.397259e-05
7.869178e-05
8.072683e-05
7.986671e-05
8.224989e-05
8.650055e-05
0.000000e+00
5.173555e-06
6.845048e-06
9.601865e-06
1.308399e-05
1.367181e-05
1.608527e-05
1.785786e-05
2.132073e-05
2.487176e-05
2.831269e-05
2.913082e-05
2.843431e-05
2.691334e-05
2.674608e-05
2.983205e-05
3.550248e-05
0.000000e+00
-1.699580e-07
-4.235289e-07
-8.344981e-07
-1.678428e-06
-2.774896e-06
-4.802494e-06
-6.855797e-06
-7.285513e-06
-7.385142e-06
-8.577667e-06
-1.189728e-05
-1.465767e-05
-1.597515e-05
-1.562758e-05
-1.343188e-05
-9.449113e-06
0.000000e+00
-5.428959e-06
-7.416184e-06
-1.069775e-05
-1.462840e-05
-1.617450e-05
-2.065410e-05
-2.468049e-05
-3.027193e-05
-3.330751e-05
-3.735769e-05
-4.219680e-05
-4.711175e-05
-4.871070e-05
-4.925289e-05
-4.975094e-05
-4.806689e-05
0.000000e+00
-9.535377e-06
-1.507903e-05
-2.033006e-05
-2.898566e-05
-3.534039e-05
-4.091611e-05
-4.904901e-05
-5.621593e-05
-6.356242e-05
-6.873974e-05
-7.368912e-05
-7.784378e-05
-8.120858e-05
-8.312742e-05
-8.504066e-05
-8.578962e-05
0.000000e+00
-1.139244e-05
-1.966200e-05
-2.827744e-05
-4.079716e-05
-5.162935e-05
-6.158226e-05
-7.282879e-05
-8.324348e-05
-9.456546e-05
-1.051874e-04
-1.132748e-04
-1.181248e-04
-1.230924e-04
-1.266157e-04
-1.278809e-04
-1.279786e-04
0.000000e+00
-1.542622e-05
-2.506373e-05
-3.734573e-05
-5.337135e-05
-6.701852e-05
-8.261984e-05
-9.578687e-05
-1.096862e-04
-1.234924e-04
-1.411469e-04
-1.566777e-04
-1.661764e-04
-1.713208e-04
-1.735391e-04
-1.737392e-04
-1.735514e-04
0.000000e+00
1.260637e-05
2.001457e-05
3.246962e-05
4.881364e-05
6.693912e-05
9.132315e-05
1.200858e-04
1.529970e-04
1.895802e-04
2.295067e-04
2.734677e-04
3.236009e-04
3.775934e-04
4.389881e-04
5.097212e-04
5.829245e-04
0.000000e+00
7.676598e-06
1.612510e-05
2.636925e-05
4.233759e-05
6.099654e-05
8.488379e-05
1.141862e-04
1.468082e-04
1.833815e-04
2.232286e-04
2.672390e-04
3.170020e-04
3.727999e-04
4.338428e-04
5.023486e-04
5.725510e-04
0.000000e+00
4.325450e-06
1.231707e-05
2.172663e-05
3.653035e-05
5.573969e-05
7.953634e-05
1.097209e-04
1.426050e-04
1.788510e-04
2.185929e-04
2.627862e-04
3.132307e-04
3.705131e-04
4.297785e-04
4.948744e-04
5.628228e-04
0.000000e+00
3.199584e-06
1.060696e-05
2.006454e-05
3.448218e-05
5.207329e-05
7.665412e-05
1.089028e-04
1.429980e-04
1.772228e-04
2.164783e-04
2.612986e-04
3.125741e-04
3.691379e-04
4.270778e-04
4.870402e-04
5.486345e-04
0.000000e+00
2.813143e-06
1.027027e-05
2.001274e-05
3.415176e-05
5.073880e-05
7.563115e-05
1.099504e-04
1.441359e-04
1.768339e-04
2.147360e-04
2.614036e-04
3.129576e-04
3.692313e-04
4.259251e-04
4.806490e-04
5.325598e-04
0.000000e+00
3.337970e-06
1.079141e-05
2.043053e-05
3.479467e-05
5.186154e-05
7.737925e-05
1.107393e-04
1.446185e-04
1.766480e-04
2.151458e-04
2.630862e-04
3.153616e-04
3.694582e-04
4.257985e-04
4.783271e-04
5.216405e-04
0.000000e+00
4.473212e-06
1.253854e-05
2.206055e-05
3.679131e-05
5.579141e-05
8.048020e-05
1.115451e-04
1.440237e-04
1.778813e-04
2.175473e-04
2.663499e-04
3.188323e-04
3.714299e-04
4.248370e-04
4.756208e-04
5.182562e-04
0.000000e+00
7.795993e-06
1.635409e-05
2.665847e-05
4.257938e-05
6.138577e-05
8.580859e-05
1.156951e-04
1.475089e-04
1.823322e-04
2.222215e-04
2.699711e-04
3.218235e-04
3.735804e-04
4.249160e-04
4.736274e-04
5.187442e-04
0.000000e+00
1.271433e-05
2.024354e-05
3.274827e-05
4.913343e-05
6.745116e-05
9.230288e-05
1.213824e-04
1.536563e-04
1.886911e-04
2.293102e-04
2.741957e-04
3.239892e-04
3.747958e-04
4.251967e-04
4.731438e-04
5.190159e-04


5.558622e+00
6.053790e+00
6.784405e+00
5.812639e+00
5.296455e+00
5.760868e+00
5.857199e+00
6.094540e+00
5.819635e+00
5.860514e+00
6.229478e+00
7.110056e+00
8.808779e+00
9.784360e+00
9.102702e+00
7.953317e+00
8.015418e+00
8.397266e+00
8.603449e+00
8.304356e+00
7.991501e+00
8.157076e+00
8.355109e+00
8.276862e+00
8.294075e+00
8.222849e+00
8.366952e+00
8.795264e+00
9.471257e+00
9.795855e+00
8.350962e+00
6.433866e+00
9.810027e+00
9.796004e+00
9.966501e+00
9.804248e+00
9.800881e+00
9.877541e+00
9.790938e+00
9.885502e+00
9.806669e+00
9.843797e+00
9.855976e+00
9.839254e+00
9.857427e+00
9.358206e+00
7.945983e+00
6.142077e+00
9.983452e+00
9.983149e+00
9.982995e+00
9.981323e+00
9.979013e+00
9.974753e+00
9.970375e+00
9.970833e+00
9.973270e+00
9.971834e+00
9.958391e+00
9.444211e+00
8.792652e+00
8.336176e+00
7.929277e+00
7.827985e+00
9.983369e+00
9.982961e+00
9.982645e+00
9.980428e+00
9.976645e+00
9.968898e+00
9.908172e+00
9.944938e+00
9.957836e+00
9.875375e+00
9.315961e+00
8.506877e+00
7.617971e+00
7.668371e+00
8.578951e+00
9.087876e+00
9.810205e+00
9.795228e+00
9.964816e+00
9.799650e+00
9.787647e+00
9.640719e+00
9.368922e+00
9.522303e+00
9.356543e+00
8.789021e+00
8.253554e+00
7.802376e+00
8.044953e+00
8.643503e+00
9.386082e+00
9.943879e+00
8.018430e+00
8.397764e+00
8.600461e+00
8.295506e+00
7.912892e+00
7.773577e+00
7.636598e+00
7.646663e+00
7.650809e+00
7.230868e+00
7.415343e+00
8.404557e+00
9.184751e+00
9.764368e+00
9.966898e+00
9.979648e+00
5.567254e+00
6.056348e+00
6.782419e+00
5.804280e+00
5.273916e+00
5.452537e+00
5.371372e+00
5.802054e+00
5.836933e+00
6.293675e+00
7.764890e+00
9.060188e+00
9.927678e+00
9.973973e+00
9.981772e+00
9.984533e+00


-8.095033e-01
-1.791045e-01
-3.924327e-01
-2.526992e-01
-1.070158e-01
-2.962752e-01
-1.278738e-01
-2.099230e-01
-1.586611e-01
-1.642644e-01
-2.081771e-01
-1.523642e-01
-4.682838e-01
-6.749302e-01
3.181681e-01
-8.471607e-01
6.121507e-01
4.768034e-01
2.977759e-01
2.267025e-01
2.863217e-01
1.689725e-01
1.773057e-01
1.705539e-01
1.140001e-01
1.460550e-01
1.318392e-01
2.431775e-01
3.018308e-01
5.138997e-01
6.964603e-01
-9.391601e-01
7.249933e-01
4.714699e-01
6.141143e-02
-1.378292e-02
-3.914935e-02
-1.754325e-01
-7.868094e-02
-1.316953e-01
-6.968223e-02
-1.570349e-02
3.884172e-02
1.902154e-01
2.814702e-01
1.504261e-01
-2.240290e-02
-1.708536e-01
7.300862e-01
5.565075e-01
1.956807e-01
6.745647e-02
-2.350736e-02
-9.661712e-02
-1.727462e-02
-5.680759e-02
1.761015e-02
2.271536e-02
6.286396e-02
1.179544e-01
5.783499e-02
-2.656294e-01
-3.825103e-01
-7.545686e-02
7.329213e-01
5.604220e-01
2.032833e-01
7.441927e-02
-2.094411e-02
-1.040032e-01
-3.781481e-02
-9.613643e-02
-4.492322e-02
-3.463780e-02
1.978637e-02
1.385319e-02
-3.681590e-02
-1.333797e-01
-1.042995e-01
3.129830e-01
7.315823e-01
4.816823e-01
7.912245e-02
2.751197e-03
-2.937948e-02
-1.609683e-01
-9.040157e-02
-1.977142e-01
-1.785675e-01
-1.027537e-01
-8.074354e-02
-9.992908e-02
-1.036838e-01
4.887834e-02
3.338816e-01
7.260870e-01
6.159450e-01
4.828120e-01
3.053164e-01
2.324259e-01
2.850722e-01
1.628790e-01
1.516213e-01
9.396035e-02
-5.265004e-02
-3.887173e-02
-9.809715e-02
-6.186206e-02
6.352162e-02
3.696469e-01
7.133010e-01
9.480098e-01
-8.152594e-01
-1.838767e-01
-4.002251e-01
-2.571605e-01
-1.070823e-01
-2.926260e-01
-1.204981e-01
-1.516613e-01
-5.708051e-02
-2.427466e-02
-9.252380e-02
9.484549e-02
3.916706e-01
7.724782e-01
9.527786e-01
9.987322e-01
1 2 19 18
2 3 20 19
3 4 21 20
4 5 22 21
5 6 23 22
6 7 24 23
7 8 25 24
8 9 26 25
9 10 27 26
10 11 28 27
11 12 29 28
12 13 30 29
13 14 31 30
14 15 32 31
15 16 33 32
16 17 34 33
18 19 36 35
19 20 37 36
20 21 38 37
21 22 39 38
22 23 40 39
23 24 41 40
24 25 42 41
25 26 43 42
26 27 44 43
27 28 45 44
28 29 46 45
29 30 47 46
30 31 48 47
31 32 49 48
32 33 50 49
33 34 51 50
35 36 53 52
36 37 54 53
37 38 55 54
38 39 56 55
39 40 57 56
40 41 58 57
41 42 59 58
42 43 60 59
43 44 61 60
44 45 62 61
45 46 63 62
46 47 64 63
47 48 65 64
48 49 66 65
49 50 67 66
50 51 68 67
52 53 70 69
53 54 71 70
54 55 72 71
55 56 73 72
56 57 74 73
57 58 75 74
58 59 76 75
59 60 77 76
60 61 78 77
61 62 79 78
62 63 80 79
63 64 81 80
64 65 82 81
65 66 83 82
66 67 84 83
67 68 85 84
69 70 87 86
70 71 88 87
71 72 89 88
72 73 90 89
73 74 91 90
74 75 92 91
75 76 93 92
76 77 94 93
77 78 95 94
78 79 96 95
79 80 97 96
80 81 98 97
81 82 99 98
82 83 100 99
83 84 101 100
84 85 102 101
86 87 104 103
87 88 105 104
88 89 106 105
89 90 107 106
90 91 108 107
91 92 109 108
92 93 110 109
93 94 111 110
94 95 112 111
95 96 113 112
96 97 114 113
97 98 115 114
98 99 116 115
99 100 117 116
100 101 118 117
101 102 119 118
103 104 121 120
104 105 122 121
105 106 123 122
106 107 124 123
107 108 125 124
108 109 126 125
109 110 127 126
110 111 128 127
111 112 129 128
112 113 130 129
113 114 131 130
114 115 132 131
115 116 133 132
116 117 134 133
117 118 135 134
118 119 136 135
120 121 138 137
121 122 139 138
122 123 140 139
123 124 141 140
124 125 142 141
125 126 143 142
126 127 144 143
127 128 145 144
128 129 146 145
129 130 147 146
130 131 148 147
131 132 149 148
132 133 150 149
133 134 151 150
134 135 152 151
135 136 153 152
