TITLE = "Solution"
VARIABLES = x, y, u, v, psiu, psiv, t, stress
ZONE T="structure" N=153 E=128 F=FEBLOCK ET=QUADRILATERAL VARLOCATION=([7,8]=cellcentered)
0.000000e+00
1.250000e+01
2.500000e+01
3.750000e+01
5.000000e+01
6.250000e+01
7.500000e+01
8.750000e+01
1.000000e+02
1.125000e+02
1.250000e+02
1.375000e+02
1.500000e+02
1.625000e+02
1.750000e+02
1.875000e+02
2.000000e+02
0.000000e+00
1.250000e+01
2.500000e+01
3.750000e+01
5.000000e+01
6.250000e+01
7.500000e+01
8.750000e+01
1.000000e+02
1.125000e+02
1.250000e+02
1.375000e+02
1.500000e+02
1.625000e+02
1.750000e+02
1.875000e+02
2.000000e+02
0.000000e+00
1.250000e+01
2.500000e+01
3.750000e+01
5.000000e+01
6.250000e+01
7.500000e+01
8.750000e+01
1.000000e+02
1.125000e+02
1.250000e+02
1.375000e+02
1.500000e+02
1.625000e+02
1.750000e+02
1.875000e+02
2.000000e+02
0.000000e+00
1.250000e+01
2.500000e+01
3.750000e+01
5.000000e+01
6.250000e+01
7.500000e+01
8.750000e+01
1.000000e+02
1.125000e+02
1.250000e+02
1.375000e+02
1.500000e+02
1.625000e+02
1.750000e+02
1.875000e+02
2.000000e+02
0.000000e+00
1.250000e+01
2.500000e+01
3.750000e+01
5.000000e+01
6.250000e+01
7.500000e+01
8.750000e+01
1.000000e+02
1.125000e+02
1.250000e+02
1.375000e+02
1.500000e+02
1.625000e+02
1.750000e+02
1.875000e+02
2.000000e+02
0.000000e+00
1.250000e+01
2.500000e+01
3.750000e+01
5.000000e+01
6.250000e+01
7.500000e+01
8.750000e+01
1.000000e+02
1.125000e+02
1.250000e+02
1.375000e+02
1.500000e+02
1.625000e+02
1.750000e+02
1.875000e+02
2.000000e+02
0.000000e+00
1.250000e+01
2.500000e+01
3.750000e+01
5.000000e+01
6.250000e+01
7.500000e+01
8.750000e+01
1.000000e+02
1.125000e+02
1.250000e+02
1.375000e+02
1.500000e+02
1.625000e+02
1.750000e+02
1.875000e+02
2.000000e+02
0.000000e+00
1.250000e+01
2.500000e+01
3.750000e+01
5.000000e+01
6.250000e+01
7.500000e+01
8.750000e+01
1.000000e+02
1.125000e+02
1.250000e+02
1.375000e+02
1.500000e+02
1.625000e+02
1.750000e+02
1.875000e+02
2.000000e+02
0.000000e+00
1.250000e+01
2.500000e+01
3.750000e+01
5.000000e+01
6.250000e+01
7.500000e+01
8.750000e+01
1.000000e+02
1.125000e+02
1.250000e+02
1.375000e+02
1.500000e+02
1.625000e+02
1.750000e+02
1.875000e+02
2.000000e+02
0.000000e+00
0.000000e+00
0.000000e+00
0.000000e+00
0.000000e+00
0.000000e+00
0.000000e+00
0.000000e+00
0.000000e+00
0.000000e+00
0.000000e+00
0.000000e+00
0.000000e+00
0.000000e+00
0.000000e+00
0.000000e+00
0.000000e+00
1.250000e+01
1.250000e+01
1.250000e+01
1.250000e+01
1.250000e+01
1.250000e+01
1.250000e+01
1.250000e+01
1.250000e+01
1.250000e+01
1.250000e+01
1.250000e+01
1.250000e+01
1.250000e+01
1.250000e+01
1.250000e+01
1.250000e+01
2.500000e+01
2.500000e+01
2.500000e+01
2.500000e+01
2.500000e+01
2.500000e+01
2.500000e+01
2.500000e+01
2.500000e+01
2.500000e+01
2.500000e+01
2.500000e+01
2.500000e+01
2.500000e+01
2.500000e+01
2.500000e+01
2.500000e+01
3.750000e+01
3.750000e+01
3.750000e+01
3.750000e+01
3.750000e+01
3.750000e+01
3.750000e+01
3.750000e+01
3.750000e+01
3.750000e+01
3.750000e+01
3.750000e+01
3.750000e+01
3.750000e+01
3.750000e+01
3.750000e+01
3.750000e+01
5.000000e+01
5.000000e+01
5.000000e+01
5.000000e+01
5.000000e+01
5.000000e+01
5.000000e+01
5.000000e+01
5.000000e+01
5.000000e+01
5.000000e+01
5.000000e+01
5.000000e+01
5.000000e+01
5.000000e+01
5.000000e+01
5.000000e+01
6.250000e+01
6.250000e+01
6.250000e+01
6.250000e+01
6.250000e+01
6.250000e+01
6.250000e+01
6.250000e+01
6.250000e+01
6.250000e+01
6.250000e+01
6.250000e+01
6.250000e+01
6.250000e+01
6.250000e+01
6.250000e+01
6.250000e+01
7.500000e+01
7.500000e+01
7.500000e+01
7.500000e+01
7.500000e+01
7.500000e+01
7.500000e+01
7.500000e+01
7.500000e+01
7.500000e+01
7.500000e+01
7.500000e+01
7.500000e+01
7.500000e+01
7.500000e+01
7.500000e+01
7.500000e+01
8.750000e+01
8.750000e+01
8.750000e+01
8.750000e+01
8.750000e+01
8.750000e+01
8.750000e+01
8.750000e+01
8.750000e+01
8.750000e+01
8.750000e+01
8.750000e+01
8.750000e+01
8.750000e+01
8.750000e+01
8.750000e+01
8.750000e+01
1.000000e+02
1.000000e+02
1.000000e+02
1.000000e+02
1.000000e+02
1.000000e+02
1.000000e+02
1.000000e+02
1.000000e+02
1.000000e+02
1.000000e+02
1.000000e+02
1.000000e+02
1.000000e+02
1.000000e+02
1.000000e+02
1.000000e+02
0.000000e+00
-8.003519e-01
-1.481599e+00
-2.127877e+00
-2.796199e+00
-3.446097e+00
-4.061351e+00
-4.655055e+00
-5.224878e+00
-5.759338e+00
-6.251600e+00
-6.702381e+00
-7.121970e+00
-7.533645e+00
-7.978055e+00
-8.503201e+00
-8.887955e+00
0.000000e+00
-4.539383e-01
-9.585839e-01
-1.454891e+00
-1.959180e+00
-2.448633e+00
-2.909010e+00
-3.352775e+00
-3.778842e+00
-4.177954e+00
-4.542698e+00
-4.868855e+00
-5.153790e+00
-5.390859e+00
-5.555879e+00
-5.592180e+00
-5.713703e+00
0.000000e+00
-2.707752e-01
-5.724553e-01
-9.059765e-01
-1.243378e+00
-1.568494e+00
-1.876791e+00
-2.173364e+00
-2.454696e+00
-2.713715e+00
-2.943098e+00
-3.135044e+00
-3.279527e+00
-3.361772e+00
-3.366307e+00
-3.336938e+00
-3.462220e+00
0.000000e+00
-1.306785e-01
-2.792059e-01
-4.426834e-01
-6.113869e-01
-7.733864e-01
-9.293644e-01
-1.077396e+00
-1.213973e+00
-1.334333e+00
-1.432591e+00
-1.501714e+00
-1.534247e+00
-1.526375e+00
-1.494469e+00
-1.502071e+00
-1.597472e+00
0.000000e+00
-6.950849e-03
-1.349124e-02
-1.904884e-02
-2.293286e-02
-2.569237e-02
-2.650461e-02
-2.453957e-02
-1.826674e-02
-5.463586e-03
1.696382e-02
5.225851e-02
1.013830e-01
1.572247e-01
1.964152e-01
1.875439e-01
1.230389e-01
0.000000e+00
1.194717e-01
2.535342e-01
4.036170e-01
5.613728e-01
7.189862e-01
8.740936e-01
1.025409e+00
1.171648e+00
1.311763e+00
1.445005e+00
1.570225e+00
1.683685e+00
1.775684e+00
1.830424e+00
1.835554e+00
1.802429e+00
0.000000e+00
2.662870e-01
5.564658e-01
8.702571e-01
1.190718e+00
1.507346e+00
1.816488e+00
2.115358e+00
2.399474e+00
2.663365e+00
2.901574e+00
3.108929e+00
3.279825e+00
3.407348e+00
3.484329e+00
3.509523e+00
3.501830e+00
0.000000e+00
4.551192e-01
9.479470e-01
1.426984e+00
1.909306e+00
2.384022e+00
2.846287e+00
3.292567e+00
3.714955e+00
4.102745e+00
4.444969e+00
4.732075e+00
4.956965e+00
5.116126e+00
5.211433e+00
5.252138e+00
5.259639e+00
0.000000e+00
8.017590e-01
1.466166e+00
2.104609e+00
2.749519e+00
3.385019e+00
4.004762e+00
4.603249e+00
5.168866e+00
5.685941e+00
6.137767e+00
6.508722e+00
6.786348e+00
6.964893e+00
7.051374e+00
7.072604e+00
7.072120e+00
0.000000e+00
-4.921553e-01
-1.004229e+00
-1.677495e+00
-2.508841e+00
-3.497151e+00
-4.643968e+00
-5.948700e+00
-7.401370e+00
-8.990097e+00
-1.070302e+01
-1.252970e+01
-1.446582e+01
-1.652309e+01
-1.876273e+01
-2.137821e+01
-2.527654e+01
0.000000e+00
-3.056560e-01
-8.357423e-01
-1.504465e+00
-2.335315e+00
-3.331401e+00
-4.485815e+00
-5.796538e+00
-7.257372e+00
-8.857196e+00
-1.058288e+01
-1.242252e+01
-1.437044e+01
-1.643842e+01
-1.868070e+01
-2.128152e+01
-2.453450e+01
0.000000e+00
-2.406033e-01
-7.203932e-01
-1.382804e+00
-2.214170e+00
-3.213754e+00
-4.373672e+00
-5.690410e+00
-7.159013e+00
-8.769247e+00
-1.050814e+01
-1.236380e+01
-1.433085e+01
-1.641922e+01
-1.866598e+01
-2.111263e+01
-2.345997e+01
0.000000e+00
-2.213928e-01
-6.679550e-01
-1.313998e+00
-2.143961e+00
-3.143989e+00
-4.307616e+00
-5.630331e+00
-7.106763e+00
-8.727211e+00
-1.047922e+01
-1.235052e+01
-1.433277e+01
-1.642413e+01
-1.861791e+01
-2.083409e+01
-2.283472e+01
0.000000e+00
-2.176638e-01
-6.537491e-01
-1.293677e+00
-2.120422e+00
-3.120723e+00
-4.286832e+00
-5.614393e+00
-7.097325e+00
-8.726168e+00
-1.048822e+01
-1.236901e+01
-1.435326e+01
-1.642178e+01
-1.853358e+01
-2.059624e+01
-2.245296e+01
0.000000e+00
-2.205437e-01
-6.679640e-01
-1.314267e+00
-2.142637e+00
-3.143109e+00
-4.310406e+00
-5.640205e+00
-7.126561e+00
-8.759831e+00
-1.052624e+01
-1.240787e+01
-1.438172e+01
-1.641519e+01
-1.845742e+01
-2.043147e+01
-2.223653e+01
0.000000e+00
-2.393992e-01
-7.189969e-01
-1.380508e+00
-2.211644e+00
-3.212078e+00
-4.378353e+00
-5.707092e+00
-7.192477e+00
-8.824504e+00
-1.058817e+01
-1.246264e+01
-1.441934e+01
-1.641923e+01
-1.841118e+01
-2.033678e+01
-2.214038e+01
0.000000e+00
-3.049908e-01
-8.305998e-01
-1.497098e+00
-2.329740e+00
-3.328456e+00
-4.491622e+00
-5.816125e+00
-7.295741e+00
-8.919967e+00
-1.067318e+01
-1.253328e+01
-1.446964e+01
-1.644142e+01
-1.839947e+01
-2.029744e+01
-2.211789e+01
0.000000e+00
-4.896963e-01
-9.948874e-01
-1.665282e+00
-2.497427e+00
-3.492847e+00
-4.651270e+00
-5.969020e+00
-7.438520e+00
-9.048619e+00
-1.078361e+01
-1.262159e+01
-1.453246e+01
-1.647688e+01
-1.840924e+01
-2.029021e+01
-2.211832e+01


0.000000e+00
8.853367e-06
1.597605e-05
2.103827e-05
2.664021e-05
3.328099e-05
3.913674e-05
4.369607e-05
4.713809e-05
4.963408e-05
5.135754e-05
5.251202e-05
5.330272e-05
5.392485e-05
5.455065e-05
5.544594e-05
5.663051e-05
0.000000e+00
6.617290e-06
1.280553e-05
1.615792e-05
2.025572e-05
2.543889e-05
2.997099e-05
3.320764e-05
3.558257e-05
3.726073e-05
3.836547e-05
3.903786e-05
3.939405e-05
3.951386e-05
3.964514e-05
4.036867e-05
4.158658e-05
0.000000e+00
4.527489e-06
8.498496e-06
1.105736e-05
1.398779e-05
1.719914e-05
1.996258e-05
2.197999e-05
2.346870e-05
2.448399e-05
2.511138e-05
2.544071e-05
2.555798e-05
2.557224e-05
2.569684e-05
2.628090e-05
2.725615e-05
0.000000e+00
1.939706e-06
3.598150e-06
5.364401e-06
6.865903e-06
8.208871e-06
9.318635e-06
1.026762e-05
1.097302e-05
1.144559e-05
1.172097e-05
1.185015e-05
1.190104e-05
1.196282e-05
1.211394e-05
1.245204e-05
1.300693e-05
0.000000e+00
-2.299036e-07
-3.795969e-07
-5.034238e-07
-6.691046e-07
-8.971722e-07
-1.092552e-06
-1.236153e-06
-1.336412e-06
-1.418223e-06
-1.486531e-06
-1.533944e-06
-1.540987e-06
-1.488739e-06
-1.393325e-06
-1.256273e-06
-1.006885e-06
0.000000e+00
-2.291513e-06
-4.389246e-06
-6.517623e-06
-8.454552e-06
-1.016189e-05
-1.161541e-05
-1.277380e-05
-1.363606e-05
-1.423210e-05
-1.461048e-05
-1.482210e-05
-1.491338e-05
-1.493027e-05
-1.492540e-05
-1.490611e-05
-1.481340e-05
0.000000e+00
-4.376001e-06
-9.000784e-06
-1.285946e-05
-1.649763e-05
-1.974620e-05
-2.246476e-05
-2.459086e-05
-2.613590e-05
-2.717341e-05
-2.781356e-05
-2.817503e-05
-2.836255e-05
-2.845854e-05
-2.851719e-05
-2.854567e-05
-2.852226e-05
0.000000e+00
-5.780823e-06
-1.276717e-05
-1.837094e-05
-2.367552e-05
-2.854962e-05
-3.266056e-05
-3.588490e-05
-3.824146e-05
-3.984489e-05
-4.086622e-05
-4.148339e-05
-4.184415e-05
-4.205335e-05
-4.217430e-05
-4.223308e-05
-4.224200e-05
0.000000e+00
-7.856858e-06
-1.573809e-05
-2.296090e-05
-2.992418e-05
-3.633972e-05
-4.185841e-05
-4.631245e-05
-4.968388e-05
-5.208014e-05
-5.369037e-05
-5.472373e-05
-5.536153e-05
-5.573712e-05
-5.593600e-05
-5.601248e-05
-5.602547e-05
0.000000e+00
7.255706e-06
1.146015e-05
1.664484e-05
2.442202e-05
3.366188e-05
4.356331e-05
5.446170e-05
6.639828e-05
7.904623e-05
9.219387e-05
1.057129e-04
1.195423e-04
1.338041e-04
1.491767e-04
1.661672e-04
1.835897e-04
0.000000e+00
3.814686e-06
9.031816e-06
1.450071e-05
2.170607e-05
3.077415e-05
4.124366e-05
5.275317e-05
6.516343e-05
7.819562e-05
9.164555e-05
1.053793e-04
1.193452e-04
1.336079e-04
1.484514e-04
1.646313e-04
1.815795e-04
0.000000e+00
1.816297e-06
6.869359e-06
1.277340e-05
1.978314e-05
2.879384e-05
3.960077e-05
5.156353e-05
6.430330e-05
7.761388e-05
9.128704e-05
1.051877e-04
1.192550e-04
1.334502e-04
1.477334e-04
1.630152e-04
1.792394e-04
0.000000e+00
1.155293e-06
5.584674e-06
1.162467e-05
1.894329e-05
2.808810e-05
3.895023e-05
5.102543e-05
6.390971e-05
7.734848e-05
9.113022e-05
1.051096e-04
1.191967e-04
1.332944e-04
1.473256e-04
1.619581e-04
1.773135e-04
0.000000e+00
9.886737e-07
5.032545e-06
1.107706e-05
1.873153e-05
2.802290e-05
3.886696e-05
5.092293e-05
6.383484e-05
7.730536e-05
9.111261e-05
1.051000e-04
1.191603e-04
1.332010e-04
1.471840e-04
1.614654e-04
1.760576e-04
0.000000e+00
1.046184e-06
5.183111e-06
1.132593e-05
1.904466e-05
2.838478e-05
3.919880e-05
5.119687e-05
6.405238e-05
7.747449e-05
9.123555e-05
1.051760e-04
1.191875e-04
1.331950e-04
1.471834e-04
1.612756e-04
1.753874e-04
0.000000e+00
1.664234e-06
6.265599e-06
1.241320e-05
2.003371e-05
2.929590e-05
4.000055e-05
5.185499e-05
6.456039e-05
7.784328e-05
9.148551e-05
1.053309e-04
1.192733e-04
1.332436e-04
1.472136e-04
1.611940e-04
1.750898e-04
0.000000e+00
3.677622e-06
8.869975e-06
1.476172e-05
2.224608e-05
3.126352e-05
4.163163e-05
5.311846e-05
6.547511e-05
7.846146e-05
9.187505e-05
1.055593e-04
1.193982e-04
1.333102e-04
1.472436e-04
1.611592e-04
1.749938e-04
0.000000e+00
7.113026e-06
1.221333e-05
1.798277e-05
2.532722e-05
3.400761e-05
4.388744e-05
5.484767e-05
6.670926e-05
7.928195e-05
9.238521e-05
1.058571e-04
1.195614e-04
1.333939e-04
1.472793e-04
1.611567e-04
1.749797e-04


2.131100e+00
2.196257e+00
2.368083e+00
2.635567e+00
2.737655e+00
2.839997e+00
3.050960e+00
3.280119e+00
3.466954e+00
3.606600e+00
3.703706e+00
3.762830e+00
3.778211e+00
3.712266e+00
3.572475e+00
3.465050e+00
2.567991e+00
2.613048e+00
2.791313e+00
2.928129e+00
2.982888e+00
3.045123e+00
3.213884e+00
3.395600e+00
3.543588e+00
3.654506e+00
3.731576e+00
3.777539e+00
3.784871e+00
3.715028e+00
3.578330e+00
3.474751e+00
3.167739e+00
3.219333e+00
3.299612e+00
3.362104e+00
3.348090e+00
3.387016e+00
3.481664e+00
3.582030e+00
3.664642e+00
3.727460e+00
3.771116e+00
3.796193e+00
3.795670e+00
3.738519e+00
3.631216e+00
3.552704e+00
3.559655e+00
3.565150e+00
3.590824e+00
3.601738e+00
3.602887e+00
3.623925e+00
3.663139e+00
3.704878e+00
3.741482e+00
3.770416e+00
3.790767e+00
3.802545e+00
3.801992e+00
3.772032e+00
3.714818e+00
3.673059e+00
3.546883e+00
3.536566e+00
3.550244e+00
3.572651e+00
3.595279e+00
3.626100e+00
3.663967e+00
3.702968e+00
3.738002e+00
3.765832e+00
3.785630e+00
3.798617e+00
3.804770e+00
3.798263e+00
3.779500e+00
3.765197e+00
3.130396e+00
3.110528e+00
3.154310e+00
3.236804e+00
3.310469e+00
3.395344e+00
3.489718e+00
3.581423e+00
3.660179e+00
3.720649e+00
3.762776e+00
3.790283e+00
3.807364e+00
3.815351e+00
3.816115e+00
3.814984e+00
2.513144e+00
2.489281e+00
2.581039e+00
2.746634e+00
2.895667e+00
3.057497e+00
3.234581e+00
3.404130e+00
3.547753e+00
3.656928e+00
3.732226e+00
3.780201e+00
3.809093e+00
3.825383e+00
3.833541e+00
3.836737e+00
2.120593e+00
2.097760e+00
2.227055e+00
2.447097e+00
2.642377e+00
2.852341e+00
3.079644e+00
3.296516e+00
3.479747e+00
3.618807e+00
3.714501e+00
3.774934e+00
3.810512e+00
3.830217e+00
3.840211e+00
3.844371e+00


-3.880242e-01
-2.362593e-01
-1.449253e-01
-2.044225e-01
-1.383984e-01
-1.722478e-02
5.275340e-02
1.264745e-01
2.318648e-01
3.530183e-01
4.699170e-01
5.673079e-01
6.367423e-01
6.773463e-01
7.178227e-01
-1.878006e-01
5.145051e-01
3.744389e-01
3.431640e-01
3.248328e-01
3.619421e-01
4.230688e-01
4.567700e-01
4.960123e-01
5.566523e-01
6.337665e-01
7.194967e-01
8.071978e-01
8.898218e-01
9.475573e-01
8.316860e-01
-7.622973e-01
8.265945e-01
7.370651e-01
6.717279e-01
6.553534e-01
6.677065e-01
6.823344e-01
6.916459e-01
7.067385e-01
7.330201e-01
7.696528e-01
8.117055e-01
8.481740e-01
8.565754e-01
7.898098e-01
5.567180e-01
1.412791e-01
9.458672e-01
8.860335e-01
8.383306e-01
8.138831e-01
8.059755e-01
8.004293e-01
7.952737e-01
7.904186e-01
7.873843e-01
7.858887e-01
7.816979e-01
7.652429e-01
7.232917e-01
6.536958e-01
6.021477e-01
5.938509e-01
9.519288e-01
8.936537e-01
8.446462e-01
8.171617e-01
8.047514e-01
7.962233e-01
7.861903e-01
7.734352e-01
7.580443e-01
7.397540e-01
7.174355e-01
6.910490e-01
6.678206e-01
6.718560e-01
7.316658e-01
8.323976e-01
8.389759e-01
7.617421e-01
7.040484e-01
6.794698e-01
6.733601e-01
6.721847e-01
6.719043e-01
6.727123e-01
6.744334e-01
6.759894e-01
6.774783e-01
6.839833e-01
7.087026e-01
7.668098e-01
8.558497e-01
9.478473e-01
5.205356e-01
4.106643e-01
3.995288e-01
3.821248e-01
3.923068e-01
4.129889e-01
4.396908e-01
4.788549e-01
5.320507e-01
5.947942e-01
6.608604e-01
7.273648e-01
7.970982e-01
8.732682e-01
9.454311e-01
9.909158e-01
-3.919116e-01
-1.780419e-01
-9.432029e-02
-1.142403e-01
-8.233419e-02
-2.977510e-02
3.792187e-02
1.367736e-01
2.717248e-01
4.330772e-01
6.022273e-01
7.574610e-01
8.791309e-01
9.560599e-01
9.913935e-01
9.998208e-01
1 2 19 18
2 3 20 19
3 4 21 20
4 5 22 21
5 6 23 22
6 7 24 23
7 8 25 24
8 9 26 25
9 10 27 26
10 11 28 27
11 12 29 28
12 13 30 29
13 14 31 30
14 15 32 31
15 16 33 32
16 17 34 33
18 19 36 35
19 20 37 36
20 21 38 37
21 22 39 38
22 23 40 39
23 24 41 40
24 25 42 41
25 26 43 42
26 27 44 43
27 28 45 44
28 29 46 45
29 30 47 46
30 31 48 47
31 32 49 48
32 33 50 49
33 34 51 50
35 36 53 52
36 37 54 53
37 38 55 54
38 39 56 55
39 40 57 56
40 41 58 57
41 42 59 58
42 43 60 59
43 44 61 60
44 45 62 61
45 46 63 62
46 47 64 63
47 48 65 64
48 49 66 65
49 50 67 66
50 51 68 67
52 53 70 69
53 54 71 70
54 55 72 71
55 56 73 72
56 57 74 73
57 58 75 74
58 59 76 75
59 60 77 76
60 61 78 77
61 62 79 78
62 63 80 79
63 64 81 80
64 65 82 81
65 66 83 82
66 67 84 83
67 68 85 84
69 70 87 86
70 71 88 87
71 72 89 88
72 73 90 89
73 74 91 90
74 75 92 91
75 76 93 92
76 77 94 93
77 78 95 94
78 79 96 95
79 80 97 96
80 81 98 97
81 82 99 98
82 83 100 99
83 84 101 100
84 85 102 101
86 87 104 103
87 88 105 104
88 89 106 105
89 90 107 106
90 91 108 107
91 92 109 108
92 93 110 109
93 94 111 110
94 95 112 111
95 96 113 112
96 97 114 113
97 98 115 114
98 99 116 115
99 100 117 116
100 101 118 117
101 102 119 118
103 104 121 120
104 105 122 121
105 106 123 122
106 107 124 123
107 108 125 124
108 109 126 125
109 110 127 126
110 111 128 127
111 112 129 128
112 113 130 129
113 114 131 130
114 115 132 131
115 116 133 132
116 117 134 133
117 118 135 134
118 119 136 135
120 121 138 137
121 122 139 138
122 123 140 139
123 124 141 140
124 125 142 141
125 126 143 142
126 127 144 143
127 128 145 144
128 129 146 145
129 130 147 146
130 131 148 147
131 132 149 148
132 133 150 149
133 134 151 150
134 135 152 151
135 136 153 152
