TITLE = "Solution"
VARIABLES = x, y, u, v, psiu, psiv, t, stress
ZONE T="structure" N=153 E=128 F=FEBLOCK ET=QUADRILATERAL VARLOCATION=([7,8]=cellcentered)
0.000000e+00
1.250000e+01
2.500000e+01
3.750000e+01
5.000000e+01
6.250000e+01
7.500000e+01
8.750000e+01
1.000000e+02
1.125000e+02
1.250000e+02
1.375000e+02
1.500000e+02
1.625000e+02
1.750000e+02
1.875000e+02
2.000000e+02
0.000000e+00
1.250000e+01
2.500000e+01
3.750000e+01
5.000000e+01
6.250000e+01
7.500000e+01
8.750000e+01
1.000000e+02
1.125000e+02
1.250000e+02
1.375000e+02
1.500000e+02
1.625000e+02
1.750000e+02
1.875000e+02
2.000000e+02
0.000000e+00
1.250000e+01
2.500000e+01
3.750000e+01
5.000000e+01
6.250000e+01
7.500000e+01
8.750000e+01
1.000000e+02
1.125000e+02
1.250000e+02
1.375000e+02
1.500000e+02
1.625000e+02
1.750000e+02
1.875000e+02
2.000000e+02
0.000000e+00
1.250000e+01
2.500000e+01
3.750000e+01
5.000000e+01
6.250000e+01
7.500000e+01
8.750000e+01
1.000000e+02
1.125000e+02
1.250000e+02
1.375000e+02
1.500000e+02
1.625000e+02
1.750000e+02
1.875000e+02
2.000000e+02
0.000000e+00
1.250000e+01
2.500000e+01
3.750000e+01
5.000000e+01
6.250000e+01
7.500000e+01
8.750000e+01
1.000000e+02
1.125000e+02
1.250000e+02
1.375000e+02
1.500000e+02
1.625000e+02
1.750000e+02
1.875000e+02
2.000000e+02
0.000000e+00
1.250000e+01
2.500000e+01
3.750000e+01
5.000000e+01
6.250000e+01
7.500000e+01
8.750000e+01
1.000000e+02
1.125000e+02
1.250000e+02
1.375000e+02
1.500000e+02
1.625000e+02
1.750000e+02
1.875000e+02
2.000000e+02
0.000000e+00
1.250000e+01
2.500000e+01
3.750000e+01
5.000000e+01
6.250000e+01
7.500000e+01
8.750000e+01
1.000000e+02
1.125000e+02
1.250000e+02
1.375000e+02
1.500000e+02
1.625000e+02
1.750000e+02
1.875000e+02
2.000000e+02
0.000000e+00
1.250000e+01
2.500000e+01
3.750000e+01
5.000000e+01
6.250000e+01
7.500000e+01
8.750000e+01
1.000000e+02
1.125000e+02
1.250000e+02
1.375000e+02
1.500000e+02
1.625000e+02
1.750000e+02
1.875000e+02
2.000000e+02
0.000000e+00
1.250000e+01
2.500000e+01
3.750000e+01
5.000000e+01
6.250000e+01
7.500000e+01
8.750000e+01
1.000000e+02
1.125000e+02
1.250000e+02
1.375000e+02
1.500000e+02
1.625000e+02
1.750000e+02
1.875000e+02
2.000000e+02
0.000000e+00
0.000000e+00
0.000000e+00
0.000000e+00
0.000000e+00
0.000000e+00
0.000000e+00
0.000000e+00
0.000000e+00
0.000000e+00
0.000000e+00
0.000000e+00
0.000000e+00
0.000000e+00
0.000000e+00
0.000000e+00
0.000000e+00
1.250000e+01
1.250000e+01
1.250000e+01
1.250000e+01
1.250000e+01
1.250000e+01
1.250000e+01
1.250000e+01
1.250000e+01
1.250000e+01
1.250000e+01
1.250000e+01
1.250000e+01
1.250000e+01
1.250000e+01
1.250000e+01
1.250000e+01
2.500000e+01
2.500000e+01
2.500000e+01
2.500000e+01
2.500000e+01
2.500000e+01
2.500000e+01
2.500000e+01
2.500000e+01
2.500000e+01
2.500000e+01
2.500000e+01
2.500000e+01
2.500000e+01
2.500000e+01
2.500000e+01
2.500000e+01
3.750000e+01
3.750000e+01
3.750000e+01
3.750000e+01
3.750000e+01
3.750000e+01
3.750000e+01
3.750000e+01
3.750000e+01
3.750000e+01
3.750000e+01
3.750000e+01
3.750000e+01
3.750000e+01
3.750000e+01
3.750000e+01
3.750000e+01
5.000000e+01
5.000000e+01
5.000000e+01
5.000000e+01
5.000000e+01
5.000000e+01
5.000000e+01
5.000000e+01
5.000000e+01
5.000000e+01
5.000000e+01
5.000000e+01
5.000000e+01
5.000000e+01
5.000000e+01
5.000000e+01
5.000000e+01
6.250000e+01
6.250000e+01
6.250000e+01
6.250000e+01
6.250000e+01
6.250000e+01
6.250000e+01
6.250000e+01
6.250000e+01
6.250000e+01
6.250000e+01
6.250000e+01
6.250000e+01
6.250000e+01
6.250000e+01
6.250000e+01
6.250000e+01
7.500000e+01
7.500000e+01
7.500000e+01
7.500000e+01
7.500000e+01
7.500000e+01
7.500000e+01
7.500000e+01
7.500000e+01
7.500000e+01
7.500000e+01
7.500000e+01
7.500000e+01
7.500000e+01
7.500000e+01
7.500000e+01
7.500000e+01
8.750000e+01
8.750000e+01
8.750000e+01
8.750000e+01
8.750000e+01
8.750000e+01
8.750000e+01
8.750000e+01
8.750000e+01
8.750000e+01
8.750000e+01
8.750000e+01
8.750000e+01
8.750000e+01
8.750000e+01
8.750000e+01
8.750000e+01
1.000000e+02
1.000000e+02
1.000000e+02
1.000000e+02
1.000000e+02
1.000000e+02
1.000000e+02
1.000000e+02
1.000000e+02
1.000000e+02
1.000000e+02
1.000000e+02
1.000000e+02
1.000000e+02
1.000000e+02
1.000000e+02
1.000000e+02
0.000000e+00
-9.907455e-01
-1.680013e+00
-2.429946e+00
-3.111827e+00
-3.754807e+00
-4.454057e+00
-5.087961e+00
-5.762661e+00
-6.403365e+00
-7.058269e+00
-7.720390e+00
-8.376601e+00
-9.151556e+00
-1.007645e+01
-1.083049e+01
-1.128085e+01
0.000000e+00
-4.439361e-01
-9.088584e-01
-1.419220e+00
-1.929896e+00
-2.413553e+00
-2.926127e+00
-3.424145e+00
-3.921085e+00
-4.421978e+00
-4.916824e+00
-5.417414e+00
-5.902344e+00
-6.424714e+00
-6.895648e+00
-7.020217e+00
-7.198918e+00
0.000000e+00
-1.470697e-01
-3.516839e-01
-6.417152e-01
-9.796868e-01
-1.305867e+00
-1.659737e+00
-2.014533e+00
-2.359759e+00
-2.719580e+00
-3.059249e+00
-3.392590e+00
-3.687092e+00
-3.926539e+00
-4.033712e+00
-4.030945e+00
-4.179775e+00
0.000000e+00
-7.874439e-02
-1.624085e-01
-3.090042e-01
-4.535945e-01
-6.284497e-01
-8.108767e-01
-9.786166e-01
-1.163556e+00
-1.325791e+00
-1.487385e+00
-1.625559e+00
-1.718111e+00
-1.725541e+00
-1.652979e+00
-1.633692e+00
-1.751817e+00
0.000000e+00
-2.989378e-03
-6.538139e-03
-1.021064e-02
-1.369704e-02
-1.595301e-02
-1.572833e-02
-1.173450e-02
-2.625763e-03
1.416089e-02
3.844767e-02
8.237377e-02
1.638708e-01
2.781724e-01
3.969414e-01
4.363396e-01
3.380508e-01
0.000000e+00
7.359727e-02
1.517557e-01
2.915224e-01
4.301252e-01
6.000699e-01
7.811302e-01
9.561005e-01
1.159918e+00
1.352837e+00
1.566834e+00
1.787179e+00
2.011711e+00
2.215837e+00
2.350909e+00
2.383887e+00
2.318655e+00
0.000000e+00
1.451489e-01
3.469426e-01
6.332151e-01
9.672518e-01
1.290558e+00
1.643333e+00
2.002567e+00
2.368337e+00
2.769074e+00
3.146128e+00
3.513316e+00
3.847361e+00
4.120227e+00
4.294925e+00
4.349821e+00
4.327580e+00
0.000000e+00
4.450158e-01
9.094952e-01
1.419803e+00
1.929951e+00
2.411244e+00
2.921082e+00
3.415169e+00
3.904528e+00
4.397312e+00
4.875630e+00
5.350741e+00
5.781753e+00
6.128021e+00
6.343849e+00
6.438949e+00
6.456412e+00
0.000000e+00
9.931462e-01
1.684179e+00
2.438224e+00
3.124415e+00
3.769203e+00
4.469705e+00
5.097089e+00
5.741964e+00
6.329811e+00
6.906061e+00
7.506027e+00
8.039167e+00
8.447648e+00
8.649559e+00
8.702936e+00
8.703553e+00
0.000000e+00
-6.168919e-01
-1.359105e+00
-2.357286e+00
-3.529424e+00
-4.872546e+00
-6.400712e+00
-8.085714e+00
-9.944638e+00
-1.196606e+01
-1.415032e+01
-1.649765e+01
-1.901048e+01
-2.174132e+01
-2.470340e+01
-2.806376e+01
-3.307978e+01
0.000000e+00
-4.132320e-01
-1.190229e+00
-2.171923e+00
-3.359670e+00
-4.697592e+00
-6.224096e+00
-7.916122e+00
-9.769187e+00
-1.179801e+01
-1.397805e+01
-1.633073e+01
-1.883641e+01
-2.154915e+01
-2.456420e+01
-2.797948e+01
-3.203137e+01
0.000000e+00
-3.870600e-01
-1.088909e+00
-2.068407e+00
-3.239462e+00
-4.572653e+00
-6.102919e+00
-7.787469e+00
-9.650006e+00
-1.167656e+01
-1.386789e+01
-1.623118e+01
-1.874794e+01
-2.148706e+01
-2.455483e+01
-2.782670e+01
-3.085841e+01
0.000000e+00
-4.455806e-01
-1.084981e+00
-2.042004e+00
-3.175564e+00
-4.504002e+00
-6.038668e+00
-7.712800e+00
-9.592518e+00
-1.161911e+01
-1.383090e+01
-1.621367e+01
-1.875706e+01
-2.149670e+01
-2.448645e+01
-2.751627e+01
-3.013795e+01
0.000000e+00
-4.532714e-01
-1.106630e+00
-2.025840e+00
-3.162814e+00
-4.491086e+00
-6.018243e+00
-7.710330e+00
-9.584969e+00
-1.163239e+01
-1.385530e+01
-1.624815e+01
-1.879874e+01
-2.149784e+01
-2.433560e+01
-2.715070e+01
-2.953462e+01
0.000000e+00
-4.443997e-01
-1.084349e+00
-2.043708e+00
-3.182824e+00
-4.519225e+00
-6.065395e+00
-7.751665e+00
-9.647821e+00
-1.169840e+01
-1.392325e+01
-1.630034e+01
-1.883139e+01
-2.148753e+01
-2.419940e+01
-2.683196e+01
-2.909901e+01
0.000000e+00
-3.854385e-01
-1.088220e+00
-2.071819e+00
-3.251997e+00
-4.599607e+00
-6.149879e+00
-7.861342e+00
-9.754068e+00
-1.181227e+01
-1.401024e+01
-1.636727e+01
-1.887201e+01
-2.148793e+01
-2.411591e+01
-2.662526e+01
-2.886793e+01
0.000000e+00
-4.117125e-01
-1.189518e+00
-2.175639e+00
-3.373357e+00
-4.727050e+00
-6.277432e+00
-8.002527e+00
-9.892146e+00
-1.194861e+01
-1.412671e+01
-1.646617e+01
-1.894933e+01
-2.152974e+01
-2.409528e+01
-2.653732e+01
-2.880786e+01
0.000000e+00
-6.157950e-01
-1.358876e+00
-2.361819e+00
-3.543618e+00
-4.902392e+00
-6.454695e+00
-8.170893e+00
-1.006344e+01
-1.210532e+01
-1.428237e+01
-1.661488e+01
-1.907292e+01
-2.161122e+01
-2.412011e+01
-2.652222e+01
-2.880673e+01


0.000000e+00
1.539408e-05
2.511775e-05
3.741825e-05
5.342284e-05
6.699830e-05
8.250582e-05
9.687907e-05
1.111036e-04
1.255057e-04
1.406427e-04
1.549131e-04
1.719487e-04
1.872507e-04
1.964206e-04
2.018956e-04
2.087778e-04
0.000000e+00
1.146193e-05
1.976524e-05
2.838144e-05
4.109294e-05
5.171337e-05
6.192129e-05
7.315189e-05
8.329166e-05
9.463156e-05
1.052718e-04
1.152912e-04
1.264967e-04
1.354343e-04
1.363028e-04
1.399909e-04
1.458258e-04
0.000000e+00
9.563315e-06
1.507197e-05
2.027813e-05
2.918111e-05
3.583992e-05
4.181688e-05
4.927004e-05
5.527869e-05
6.243165e-05
6.874215e-05
7.390022e-05
7.862118e-05
8.044877e-05
7.942973e-05
8.181076e-05
8.607597e-05
0.000000e+00
5.187793e-06
6.925410e-06
9.773941e-06
1.344324e-05
1.437001e-05
1.699522e-05
1.915925e-05
2.225783e-05
2.568292e-05
2.863440e-05
2.919976e-05
2.835688e-05
2.672879e-05
2.660005e-05
2.969123e-05
3.535037e-05
0.000000e+00
-1.525062e-07
-3.827454e-07
-7.528172e-07
-1.493738e-06
-2.454744e-06
-4.180147e-06
-5.952167e-06
-6.405541e-06
-6.826090e-06
-8.353437e-06
-1.183292e-05
-1.462046e-05
-1.590012e-05
-1.552484e-05
-1.330547e-05
-9.350496e-06
0.000000e+00
-5.412430e-06
-7.434274e-06
-1.077709e-05
-1.487912e-05
-1.669261e-05
-2.123533e-05
-2.527909e-05
-3.040892e-05
-3.339319e-05
-3.734933e-05
-4.222482e-05
-4.697489e-05
-4.845564e-05
-4.897770e-05
-4.947953e-05
-4.783447e-05
0.000000e+00
-9.539266e-06
-1.511593e-05
-2.043454e-05
-2.927641e-05
-3.579631e-05
-4.163908e-05
-4.986005e-05
-5.679576e-05
-6.365704e-05
-6.870375e-05
-7.355857e-05
-7.770835e-05
-8.097526e-05
-8.287927e-05
-8.477181e-05
-8.551601e-05
0.000000e+00
-1.138485e-05
-1.967593e-05
-2.828664e-05
-4.086955e-05
-5.166542e-05
-6.168987e-05
-7.302900e-05
-8.341272e-05
-9.457734e-05
-1.051046e-04
-1.129957e-04
-1.179075e-04
-1.228486e-04
-1.263159e-04
-1.275525e-04
-1.276494e-04
0.000000e+00
-1.540954e-05
-2.506594e-05
-3.728628e-05
-5.320977e-05
-6.675389e-05
-8.209815e-05
-9.545536e-05
-1.093801e-04
-1.235926e-04
-1.412270e-04
-1.564901e-04
-1.658416e-04
-1.709206e-04
-1.731332e-04
-1.733255e-04
-1.731355e-04
0.000000e+00
1.261332e-05
2.001771e-05
3.244184e-05
4.868880e-05
6.658350e-05
9.056389e-05
1.188119e-04
1.509820e-04
1.872474e-04
2.268838e-04
2.708218e-04
3.211900e-04
3.749921e-04
4.362676e-04
5.069196e-04
5.799220e-04
0.000000e+00
7.673489e-06
1.612492e-05
2.634241e-05
4.221453e-05
6.066585e-05
8.413249e-05
1.128679e-04
1.448384e-04
1.809806e-04
2.206913e-04
2.645783e-04
3.145681e-04
3.703983e-04
4.312640e-04
4.995681e-04
5.695387e-04
0.000000e+00
4.313232e-06
1.230129e-05
2.164588e-05
3.643426e-05
5.543037e-05
7.889449e-05
1.083410e-04
1.405482e-04
1.764448e-04
2.160843e-04
2.602510e-04
3.108228e-04
3.682227e-04
4.273067e-04
4.921055e-04
5.597673e-04
0.000000e+00
3.162158e-06
1.053400e-05
1.990831e-05
3.428952e-05
5.204545e-05
7.621994e-05
1.074353e-04
1.405522e-04
1.747223e-04
2.140462e-04
2.589454e-04
3.102642e-04
3.668611e-04
4.246485e-04
4.842954e-04
5.455530e-04
0.000000e+00
2.763652e-06
1.015597e-05
1.979575e-05
3.389423e-05
5.083015e-05
7.533196e-05
1.082257e-04
1.414155e-04
1.742117e-04
2.124409e-04
2.592253e-04
3.107464e-04
3.669286e-04
4.234830e-04
4.779304e-04
5.295721e-04
0.000000e+00
3.292425e-06
1.070639e-05
2.024989e-05
3.456954e-05
5.187603e-05
7.682595e-05
1.088893e-04
1.418118e-04
1.740498e-04
2.128835e-04
2.610196e-04
3.131847e-04
3.671173e-04
4.233285e-04
4.756102e-04
5.187895e-04
0.000000e+00
4.452470e-06
1.251767e-05
2.198660e-05
3.667751e-05
5.551776e-05
7.965023e-05
1.097236e-04
1.414770e-04
1.753082e-04
2.152907e-04
2.642751e-04
3.166473e-04
3.690309e-04
4.223350e-04
4.729352e-04
5.154878e-04
0.000000e+00
7.786047e-06
1.635422e-05
2.664123e-05
4.247250e-05
6.103822e-05
8.491893e-05
1.139859e-04
1.450998e-04
1.797474e-04
2.199178e-04
2.677958e-04
3.196171e-04
3.711545e-04
4.223751e-04
4.709641e-04
5.159881e-04
0.000000e+00
1.271341e-05
2.024808e-05
3.272845e-05
4.901103e-05
6.706352e-05
9.138862e-05
1.197544e-04
1.512533e-04
1.861734e-04
2.268516e-04
2.719174e-04
3.217377e-04
3.723860e-04
4.226394e-04
4.704821e-04
5.162618e-04


5.449010e+00
5.948903e+00
6.662666e+00
5.698665e+00
5.076556e+00
5.384851e+00
5.563157e+00
5.885746e+00
5.722739e+00
5.827960e+00
6.164122e+00
7.057515e+00
8.753235e+00
9.717008e+00
9.029290e+00
7.878125e+00
7.936068e+00
8.309262e+00
8.511606e+00
8.217155e+00
7.834114e+00
7.951700e+00
8.151417e+00
8.139498e+00
8.194581e+00
8.154268e+00
8.295633e+00
8.722452e+00
9.416569e+00
9.724593e+00
8.283431e+00
6.372767e+00
9.761276e+00
9.750573e+00
9.912835e+00
9.749660e+00
9.741994e+00
9.791096e+00
9.723167e+00
9.808094e+00
9.741836e+00
9.786127e+00
9.789342e+00
9.779645e+00
9.797838e+00
9.298144e+00
7.863622e+00
6.069207e+00
9.956953e+00
9.956192e+00
9.955807e+00
9.951571e+00
9.946568e+00
9.938591e+00
9.930665e+00
9.931409e+00
9.934323e+00
9.928150e+00
9.893063e+00
9.379914e+00
8.736087e+00
8.277875e+00
7.837110e+00
7.694644e+00
9.956761e+00
9.955750e+00
9.954991e+00
9.949525e+00
9.941476e+00
9.927218e+00
9.890968e+00
9.902381e+00
9.906060e+00
9.808682e+00
9.241397e+00
8.396530e+00
7.520725e+00
7.579751e+00
8.471178e+00
8.970292e+00
9.761689e+00
9.748770e+00
9.908788e+00
9.738862e+00
9.712706e+00
9.646134e+00
9.464152e+00
9.533724e+00
9.272003e+00
8.698271e+00
8.170738e+00
7.691839e+00
7.888867e+00
8.521417e+00
9.301444e+00
9.863109e+00
7.943210e+00
8.310478e+00
8.505308e+00
8.197935e+00
7.769866e+00
7.725381e+00
7.699348e+00
7.611456e+00
7.465750e+00
7.096547e+00
7.323856e+00
8.299045e+00
9.066209e+00
9.667364e+00
9.916856e+00
9.947430e+00
5.469352e+00
5.955436e+00
6.659890e+00
5.687235e+00
5.052834e+00
5.219226e+00
5.221907e+00
5.547121e+00
5.539860e+00
6.074091e+00
7.619871e+00
8.975550e+00
9.847609e+00
9.933329e+00
9.952789e+00
9.959795e+00


-8.014861e-01
-1.882988e-01
-3.877397e-01
-2.484943e-01
-1.182809e-01
-2.871038e-01
-1.322917e-01
-2.094514e-01
-1.556855e-01
-1.720767e-01
-1.987023e-01
-1.562781e-01
-4.778923e-01
-6.587316e-01
3.217602e-01
-8.469751e-01
6.129753e-01
4.729184e-01
2.999776e-01
2.278957e-01
2.826366e-01
1.702839e-01
1.786433e-01
1.693317e-01
1.179154e-01
1.445270e-01
1.371369e-01
2.460914e-01
3.013358e-01
5.208740e-01
6.979645e-01
-9.464263e-01
7.274128e-01
4.726714e-01
6.881162e-02
-3.365581e-03
-3.746393e-02
-1.606779e-01
-7.436900e-02
-1.216061e-01
-5.813911e-02
-9.555359e-03
5.024781e-02
1.980051e-01
2.863377e-01
1.544025e-01
-1.814911e-02
-1.757180e-01
7.324176e-01
5.573682e-01
1.998756e-01
7.443307e-02
-2.109909e-02
-8.563192e-02
-1.713772e-02
-4.834670e-02
2.558548e-02
3.097402e-02
7.005357e-02
1.204383e-01
5.708953e-02
-2.688183e-01
-3.782798e-01
-7.128471e-02
7.350893e-01
5.612165e-01
2.066062e-01
7.863201e-02
-2.000572e-02
-9.629639e-02
-3.793112e-02
-8.442412e-02
-3.290289e-02
-2.434087e-02
2.068747e-02
1.541849e-02
-3.644079e-02
-1.384007e-01
-1.043338e-01
3.171679e-01
7.335663e-01
4.829866e-01
8.558028e-02
9.655951e-03
-3.222513e-02
-1.705350e-01
-1.136684e-01
-2.038234e-01
-1.695313e-01
-9.764788e-02
-8.517370e-02
-1.018778e-01
-9.557264e-02
5.161924e-02
3.339178e-01
7.282181e-01
6.161768e-01
4.796716e-01
3.077370e-01
2.348656e-01
2.861197e-01
1.624142e-01
1.461344e-01
8.652894e-02
-4.675669e-02
-3.701191e-02
-1.004038e-01
-6.832287e-02
7.012595e-02
3.742538e-01
7.138797e-01
9.481576e-01
-8.083211e-01
-1.907301e-01
-3.963575e-01
-2.563677e-01
-1.179261e-01
-2.862038e-01
-1.167812e-01
-1.471057e-01
-6.053388e-02
-2.664371e-02
-9.102978e-02
8.826754e-02
3.961421e-01
7.727591e-01
9.526464e-01
9.987299e-01
1 2 19 18
2 3 20 19
3 4 21 20
4 5 22 21
5 6 23 22
6 7 24 23
7 8 25 24
8 9 26 25
9 10 27 26
10 11 28 27
11 12 29 28
12 13 30 29
13 14 31 30
14 15 32 31
15 16 33 32
16 17 34 33
18 19 36 35
19 20 37 36
20 21 38 37
21 22 39 38
22 23 40 39
23 24 41 40
24 25 42 41
25 26 43 42
26 27 44 43
27 28 45 44
28 29 46 45
29 30 47 46
30 31 48 47
31 32 49 48
32 33 50 49
33 34 51 50
35 36 53 52
36 37 54 53
37 38 55 54
38 39 56 55
39 40 57 56
40 41 58 57
41 42 59 58
42 43 60 59
43 44 61 60
44 45 62 61
45 46 63 62
46 47 64 63
47 48 65 64
48 49 66 65
49 50 67 66
50 51 68 67
52 53 70 69
53 54 71 70
54 55 72 71
55 56 73 72
56 57 74 73
57 58 75 74
58 59 76 75
59 60 77 76
60 61 78 77
61 62 79 78
62 63 80 79
63 64 81 80
64 65 82 81
65 66 83 82
66 67 84 83
67 68 85 84
69 70 87 86
70 71 88 87
71 72 89 88
72 73 90 89
73 74 91 90
74 75 92 91
75 76 93 92
76 77 94 93
77 78 95 94
78 79 96 95
79 80 97 96
80 81 98 97
81 82 99 98
82 83 100 99
83 84 101 100
84 85 102 101
86 87 104 103
87 88 105 104
88 89 106 105
89 90 107 106
90 91 108 107
91 92 109 108
92 93 110 109
93 94 111 110
94 95 112 111
95 96 113 112
96 97 114 113
97 98 115 114
98 99 116 115
99 100 117 116
100 101 118 117
101 102 119 118
103 104 121 120
104 105 122 121
105 106 123 122
106 107 124 123
107 108 125 124
108 109 126 125
109 110 127 126
110 111 128 127
111 112 129 128
112 113 130 129
113 114 131 130
114 115 132 131
115 116 133 132
116 117 134 133
117 118 135 134
118 119 136 135
120 121 138 137
121 122 139 138
122 123 140 139
123 124 141 140
124 125 142 141
125 126 143 142
126 127 144 143
127 128 145 144
128 129 146 145
129 130 147 146
130 131 148 147
131 132 149 148
132 133 150 149
133 134 151 150
134 135 152 151
135 136 153 152
