TITLE = "Solution"
VARIABLES = x, y, u, v, psiu, psiv, t, stress
ZONE T="structure" N=153 E=128 F=FEBLOCK ET=QUADRILATERAL VARLOCATION=([7,8]=cellcentered)
0.000000e+00
1.250000e+01
2.500000e+01
3.750000e+01
5.000000e+01
6.250000e+01
7.500000e+01
8.750000e+01
1.000000e+02
1.125000e+02
1.250000e+02
1.375000e+02
1.500000e+02
1.625000e+02
1.750000e+02
1.875000e+02
2.000000e+02
0.000000e+00
1.250000e+01
2.500000e+01
3.750000e+01
5.000000e+01
6.250000e+01
7.500000e+01
8.750000e+01
1.000000e+02
1.125000e+02
1.250000e+02
1.375000e+02
1.500000e+02
1.625000e+02
1.750000e+02
1.875000e+02
2.000000e+02
0.000000e+00
1.250000e+01
2.500000e+01
3.750000e+01
5.000000e+01
6.250000e+01
7.500000e+01
8.750000e+01
1.000000e+02
1.125000e+02
1.250000e+02
1.375000e+02
1.500000e+02
1.625000e+02
1.750000e+02
1.875000e+02
2.000000e+02
0.000000e+00
1.250000e+01
2.500000e+01
3.750000e+01
5.000000e+01
6.250000e+01
7.500000e+01
8.750000e+01
1.000000e+02
1.125000e+02
1.250000e+02
1.375000e+02
1.500000e+02
1.625000e+02
1.750000e+02
1.875000e+02
2.000000e+02
0.000000e+00
1.250000e+01
2.500000e+01
3.750000e+01
5.000000e+01
6.250000e+01
7.500000e+01
8.750000e+01
1.000000e+02
1.125000e+02
1.250000e+02
1.375000e+02
1.500000e+02
1.625000e+02
1.750000e+02
1.875000e+02
2.000000e+02
0.000000e+00
1.250000e+01
2.500000e+01
3.750000e+01
5.000000e+01
6.250000e+01
7.500000e+01
8.750000e+01
1.000000e+02
1.125000e+02
1.250000e+02
1.375000e+02
1.500000e+02
1.625000e+02
1.750000e+02
1.875000e+02
2.000000e+02
0.000000e+00
1.250000e+01
2.500000e+01
3.750000e+01
5.000000e+01
6.250000e+01
7.500000e+01
8.750000e+01
1.000000e+02
1.125000e+02
1.250000e+02
1.375000e+02
1.500000e+02
1.625000e+02
1.750000e+02
1.875000e+02
2.000000e+02
0.000000e+00
1.250000e+01
2.500000e+01
3.750000e+01
5.000000e+01
6.250000e+01
7.500000e+01
8.750000e+01
1.000000e+02
1.125000e+02
1.250000e+02
1.375000e+02
1.500000e+02
1.625000e+02
1.750000e+02
1.875000e+02
2.000000e+02
0.000000e+00
1.250000e+01
2.500000e+01
3.750000e+01
5.000000e+01
6.250000e+01
7.500000e+01
8.750000e+01
1.000000e+02
1.125000e+02
1.250000e+02
1.375000e+02
1.500000e+02
1.625000e+02
1.750000e+02
1.875000e+02
2.000000e+02
0.000000e+00
0.000000e+00
0.000000e+00
0.000000e+00
0.000000e+00
0.000000e+00
0.000000e+00
0.000000e+00
0.000000e+00
0.000000e+00
0.000000e+00
0.000000e+00
0.000000e+00
0.000000e+00
0.000000e+00
0.000000e+00
0.000000e+00
1.250000e+01
1.250000e+01
1.250000e+01
1.250000e+01
1.250000e+01
1.250000e+01
1.250000e+01
1.250000e+01
1.250000e+01
1.250000e+01
1.250000e+01
1.250000e+01
1.250000e+01
1.250000e+01
1.250000e+01
1.250000e+01
1.250000e+01
2.500000e+01
2.500000e+01
2.500000e+01
2.500000e+01
2.500000e+01
2.500000e+01
2.500000e+01
2.500000e+01
2.500000e+01
2.500000e+01
2.500000e+01
2.500000e+01
2.500000e+01
2.500000e+01
2.500000e+01
2.500000e+01
2.500000e+01
3.750000e+01
3.750000e+01
3.750000e+01
3.750000e+01
3.750000e+01
3.750000e+01
3.750000e+01
3.750000e+01
3.750000e+01
3.750000e+01
3.750000e+01
3.750000e+01
3.750000e+01
3.750000e+01
3.750000e+01
3.750000e+01
3.750000e+01
5.000000e+01
5.000000e+01
5.000000e+01
5.000000e+01
5.000000e+01
5.000000e+01
5.000000e+01
5.000000e+01
5.000000e+01
5.000000e+01
5.000000e+01
5.000000e+01
5.000000e+01
5.000000e+01
5.000000e+01
5.000000e+01
5.000000e+01
6.250000e+01
6.250000e+01
6.250000e+01
6.250000e+01
6.250000e+01
6.250000e+01
6.250000e+01
6.250000e+01
6.250000e+01
6.250000e+01
6.250000e+01
6.250000e+01
6.250000e+01
6.250000e+01
6.250000e+01
6.250000e+01
6.250000e+01
7.500000e+01
7.500000e+01
7.500000e+01
7.500000e+01
7.500000e+01
7.500000e+01
7.500000e+01
7.500000e+01
7.500000e+01
7.500000e+01
7.500000e+01
7.500000e+01
7.500000e+01
7.500000e+01
7.500000e+01
7.500000e+01
7.500000e+01
8.750000e+01
8.750000e+01
8.750000e+01
8.750000e+01
8.750000e+01
8.750000e+01
8.750000e+01
8.750000e+01
8.750000e+01
8.750000e+01
8.750000e+01
8.750000e+01
8.750000e+01
8.750000e+01
8.750000e+01
8.750000e+01
8.750000e+01
1.000000e+02
1.000000e+02
1.000000e+02
1.000000e+02
1.000000e+02
1.000000e+02
1.000000e+02
1.000000e+02
1.000000e+02
1.000000e+02
1.000000e+02
1.000000e+02
1.000000e+02
1.000000e+02
1.000000e+02
1.000000e+02
1.000000e+02
0.000000e+00
-9.451404e-01
-1.633571e+00
-2.352252e+00
-3.035721e+00
-3.690855e+00
-4.372512e+00
-5.035105e+00
-5.690960e+00
-6.356793e+00
-7.015882e+00
-7.682223e+00
-8.399133e+00
-9.171105e+00
-9.976378e+00
-1.069301e+01
-1.114482e+01
0.000000e+00
-4.486294e-01
-9.264870e-01
-1.431648e+00
-1.947643e+00
-2.436423e+00
-2.946483e+00
-3.448439e+00
-3.942268e+00
-4.444326e+00
-4.939567e+00
-5.430790e+00
-5.935141e+00
-6.432296e+00
-6.810778e+00
-6.908895e+00
-7.080938e+00
0.000000e+00
-1.834206e-01
-4.166921e-01
-7.203169e-01
-1.060380e+00
-1.389780e+00
-1.738330e+00
-2.083872e+00
-2.425386e+00
-2.768773e+00
-3.100753e+00
-3.412258e+00
-3.687979e+00
-3.890429e+00
-3.959098e+00
-3.941795e+00
-4.093465e+00
0.000000e+00
-8.482964e-02
-1.798706e-01
-3.229621e-01
-4.724595e-01
-6.422442e-01
-8.152031e-01
-9.861650e-01
-1.156287e+00
-1.318850e+00
-1.466872e+00
-1.584697e+00
-1.649230e+00
-1.641076e+00
-1.573888e+00
-1.566622e+00
-1.694316e+00
0.000000e+00
-2.014646e-03
-4.131448e-03
-5.933264e-03
-7.114083e-03
-6.759369e-03
-3.557548e-03
4.017670e-03
1.870692e-02
4.376621e-02
8.343138e-02
1.462033e-01
2.389422e-01
3.570172e-01
4.626337e-01
4.807375e-01
3.772603e-01
0.000000e+00
8.135275e-02
1.730603e-01
3.126234e-01
4.596982e-01
6.296363e-01
8.069863e-01
9.902892e-01
1.185549e+00
1.390936e+00
1.609245e+00
1.834300e+00
2.050419e+00
2.237864e+00
2.363417e+00
2.389529e+00
2.326416e+00
0.000000e+00
1.819436e-01
4.137427e-01
7.152695e-01
1.053403e+00
1.382246e+00
1.731283e+00
2.081996e+00
2.435911e+00
2.798694e+00
3.164934e+00
3.528693e+00
3.856389e+00
4.112522e+00
4.274393e+00
4.329139e+00
4.312061e+00
0.000000e+00
4.486316e-01
9.268071e-01
1.431011e+00
1.945989e+00
2.434558e+00
2.940719e+00
3.438768e+00
3.927920e+00
4.413572e+00
4.891618e+00
5.364219e+00
5.790655e+00
6.113807e+00
6.314484e+00
6.401796e+00
6.417606e+00
0.000000e+00
9.461040e-01
1.636558e+00
2.356383e+00
3.040996e+00
3.698883e+00
4.377504e+00
5.033665e+00
5.678738e+00
6.309398e+00
6.922452e+00
7.520280e+00
8.040674e+00
8.403946e+00
8.589988e+00
8.638970e+00
8.638915e+00
0.000000e+00
-5.881746e-01
-1.274081e+00
-2.189204e+00
-3.273469e+00
-4.526334e+00
-5.960372e+00
-7.560365e+00
-9.332358e+00
-1.127905e+01
-1.339303e+01
-1.568187e+01
-1.816456e+01
-2.085333e+01
-2.377743e+01
-2.713438e+01
-3.211417e+01
0.000000e+00
-3.869405e-01
-1.106047e+00
-2.006602e+00
-3.100959e+00
-4.351305e+00
-5.783738e+00
-7.387991e+00
-9.159197e+00
-1.110657e+01
-1.322339e+01
-1.550940e+01
-1.798463e+01
-2.068121e+01
-2.365200e+01
-2.704038e+01
-3.110613e+01
0.000000e+00
-3.490526e-01
-1.003131e+00
-1.896653e+00
-2.979633e+00
-4.227711e+00
-5.659754e+00
-7.264163e+00
-9.037831e+00
-1.098948e+01
-1.311453e+01
-1.541250e+01
-1.790246e+01
-2.062729e+01
-2.364446e+01
-2.687450e+01
-2.988913e+01
0.000000e+00
-3.857914e-01
-9.874501e-01
-1.856683e+00
-2.913361e+00
-4.159677e+00
-5.590139e+00
-7.194607e+00
-8.974748e+00
-1.093420e+01
-1.307468e+01
-1.539737e+01
-1.790884e+01
-2.063355e+01
-2.358862e+01
-2.655483e+01
-2.912727e+01
0.000000e+00
-3.956068e-01
-9.978346e-01
-1.843996e+00
-2.898675e+00
-4.142102e+00
-5.574254e+00
-7.183325e+00
-8.970532e+00
-1.093887e+01
-1.309292e+01
-1.543503e+01
-1.795234e+01
-2.063756e+01
-2.345134e+01
-2.619736e+01
-2.852486e+01
0.000000e+00
-3.853472e-01
-9.881939e-01
-1.859572e+00
-2.919676e+00
-4.172324e+00
-5.610665e+00
-7.225682e+00
-9.021105e+00
-1.099434e+01
-1.315118e+01
-1.549527e+01
-1.800143e+01
-2.063121e+01
-2.331439e+01
-2.588913e+01
-2.810552e+01
0.000000e+00
-3.485704e-01
-1.004515e+00
-1.901428e+00
-2.990113e+00
-4.248574e+00
-5.694067e+00
-7.316577e+00
-9.115199e+00
-1.109036e+01
-1.324077e+01
-1.557343e+01
-1.806037e+01
-2.063942e+01
-2.322647e+01
-2.569342e+01
-2.790096e+01
0.000000e+00
-3.865801e-01
-1.107444e+00
-2.011702e+00
-3.112602e+00
-4.374091e+00
-5.822181e+00
-7.447099e+00
-9.245172e+00
-1.121943e+01
-1.336383e+01
-1.568270e+01
-1.814697e+01
-2.068365e+01
-2.320429e+01
-2.560907e+01
-2.784956e+01
0.000000e+00
-5.882120e-01
-1.275728e+00
-2.194416e+00
-3.285627e+00
-4.549277e+00
-5.998286e+00
-7.618901e+00
-9.414915e+00
-1.138493e+01
-1.352547e+01
-1.583323e+01
-1.826720e+01
-2.075764e+01
-2.322654e+01
-2.559373e+01
-2.784952e+01


0.000000e+00
1.451870e-05
2.469703e-05
3.677768e-05
5.180705e-05
6.509675e-05
7.894139e-05
9.332000e-05
1.069444e-04
1.209223e-04
1.348753e-04
1.491869e-04
1.633117e-04
1.727195e-04
1.777714e-04
1.817052e-04
1.869495e-04
0.000000e+00
1.068014e-05
1.966352e-05
2.848819e-05
4.076651e-05
5.122163e-05
6.114263e-05
7.209830e-05
8.233522e-05
9.221633e-05
1.019818e-04
1.117495e-04
1.203662e-04
1.239594e-04
1.235904e-04
1.267634e-04
1.319877e-04
0.000000e+00
8.743344e-06
1.502826e-05
2.088982e-05
2.957908e-05
3.649364e-05
4.285478e-05
5.002381e-05
5.635361e-05
6.211858e-05
6.735570e-05
7.188661e-05
7.491178e-05
7.482427e-05
7.420342e-05
7.679565e-05
8.142974e-05
0.000000e+00
4.694188e-06
7.121478e-06
1.078860e-05
1.474860e-05
1.770681e-05
2.116377e-05
2.429149e-05
2.685621e-05
2.913362e-05
3.035642e-05
3.033748e-05
2.935304e-05
2.851785e-05
2.936306e-05
3.273583e-05
3.775591e-05
0.000000e+00
-5.389582e-08
-1.337941e-07
-2.376939e-07
-3.552490e-07
-5.104034e-07
-7.149902e-07
-9.629619e-07
-1.359454e-06
-2.051223e-06
-3.316158e-06
-5.188698e-06
-7.572297e-06
-9.199652e-06
-8.471811e-06
-6.027505e-06
-2.746108e-06
0.000000e+00
-4.788629e-06
-7.344454e-06
-1.115167e-05
-1.534818e-05
-1.858807e-05
-2.228353e-05
-2.581815e-05
-2.880454e-05
-3.149350e-05
-3.382863e-05
-3.591721e-05
-3.822057e-05
-4.021387e-05
-4.164639e-05
-4.212186e-05
-4.136837e-05
0.000000e+00
-8.806331e-06
-1.509422e-05
-2.100195e-05
-2.991938e-05
-3.699049e-05
-4.347762e-05
-5.091553e-05
-5.706623e-05
-6.245400e-05
-6.751307e-05
-7.077749e-05
-7.284071e-05
-7.495871e-05
-7.695538e-05
-7.853716e-05
-7.904477e-05
0.000000e+00
-1.071692e-05
-1.963867e-05
-2.838815e-05
-4.079267e-05
-5.126167e-05
-6.111421e-05
-7.229092e-05
-8.226849e-05
-9.194371e-05
-1.020514e-04
-1.098570e-04
-1.139377e-04
-1.164682e-04
-1.179350e-04
-1.185629e-04
-1.187909e-04
0.000000e+00
-1.457148e-05
-2.467812e-05
-3.658947e-05
-5.156916e-05
-6.472348e-05
-7.820585e-05
-9.252839e-05
-1.059628e-04
-1.198216e-04
-1.351620e-04
-1.482188e-04
-1.566445e-04
-1.603089e-04
-1.609176e-04
-1.604508e-04
-1.601903e-04
0.000000e+00
1.212441e-05
1.977286e-05
3.151082e-05
4.659275e-05
6.311487e-05
8.418462e-05
1.092870e-04
1.374940e-04
1.699110e-04
2.064955e-04
2.475548e-04
2.924659e-04
3.401699e-04
3.956057e-04
4.586811e-04
5.229005e-04
0.000000e+00
7.109422e-06
1.557268e-05
2.554063e-05
4.024024e-05
5.735309e-05
7.807208e-05
1.031670e-04
1.316304e-04
1.640483e-04
2.006677e-04
2.417599e-04
2.879741e-04
3.380546e-04
3.920679e-04
4.523867e-04
5.141073e-04
0.000000e+00
3.689165e-06
1.152087e-05
2.088090e-05
3.494128e-05
5.266044e-05
7.355615e-05
9.851407e-05
1.274087e-04
1.601187e-04
1.967741e-04
2.381921e-04
2.853963e-04
3.374472e-04
3.884475e-04
4.448228e-04
5.040854e-04
0.000000e+00
2.427976e-06
9.385856e-06
1.889133e-05
3.279652e-05
5.064957e-05
7.176006e-05
9.686303e-05
1.259363e-04
1.588876e-04
1.958043e-04
2.368248e-04
2.846350e-04
3.367974e-04
3.858721e-04
4.366858e-04
4.908598e-04
0.000000e+00
2.033490e-06
8.792860e-06
1.834954e-05
3.226588e-05
5.005051e-05
7.122025e-05
9.642411e-05
1.255740e-04
1.586479e-04
1.957126e-04
2.367364e-04
2.845655e-04
3.373509e-04
3.851331e-04
4.306060e-04
4.781809e-04
0.000000e+00
2.497317e-06
9.492733e-06
1.896005e-05
3.284310e-05
5.067024e-05
7.164715e-05
9.671640e-05
1.257763e-04
1.586833e-04
1.961778e-04
2.380799e-04
2.861778e-04
3.378946e-04
3.858930e-04
4.289897e-04
4.707559e-04
0.000000e+00
3.795856e-06
1.168070e-05
2.099827e-05
3.504950e-05
5.267377e-05
7.334455e-05
9.822765e-05
1.268841e-04
1.596166e-04
1.976821e-04
2.408554e-04
2.887107e-04
3.386106e-04
3.855829e-04
4.283291e-04
4.687308e-04
0.000000e+00
7.209323e-06
1.572874e-05
2.570654e-05
4.040263e-05
5.739574e-05
7.789346e-05
1.027834e-04
1.308931e-04
1.634024e-04
2.015701e-04
2.445116e-04
2.908788e-04
3.390980e-04
3.850308e-04
4.279672e-04
4.690126e-04
0.000000e+00
1.222281e-05
1.989445e-05
3.168906e-05
4.680638e-05
6.314887e-05
8.404835e-05
1.089597e-04
1.366837e-04
1.694204e-04
2.075042e-04
2.485600e-04
2.929217e-04
3.394360e-04
3.848693e-04
4.277693e-04
4.692676e-04


3.697605e+00
3.637283e+00
3.721205e+00
3.439825e+00
3.284552e+00
3.487411e+00
3.636251e+00
3.903757e+00
4.316922e+00
4.771796e+00
5.505268e+00
6.641348e+00
7.689170e+00
7.966392e+00
7.018673e+00
5.889996e+00
5.823480e+00
5.753685e+00
5.708687e+00
5.522716e+00
5.367669e+00
5.491510e+00
5.579438e+00
5.728731e+00
5.988394e+00
6.258665e+00
6.683796e+00
7.336338e+00
7.931861e+00
7.807288e+00
6.472470e+00
4.932815e+00
7.905059e+00
7.850251e+00
7.822827e+00
7.683071e+00
7.624169e+00
7.661890e+00
7.667545e+00
7.701997e+00
7.770201e+00
7.818867e+00
7.855603e+00
7.927808e+00
7.978312e+00
7.602136e+00
6.295642e+00
4.965463e+00
8.676866e+00
8.656207e+00
8.639860e+00
8.584565e+00
8.565229e+00
8.561156e+00
8.537756e+00
8.509742e+00
8.462999e+00
8.351942e+00
8.103860e+00
7.731133e+00
7.482486e+00
7.298350e+00
6.807906e+00
6.272669e+00
8.675603e+00
8.653458e+00
8.635245e+00
8.576755e+00
8.553752e+00
8.543179e+00
8.509688e+00
8.463866e+00
8.370594e+00
8.174894e+00
7.800427e+00
7.282620e+00
7.026347e+00
7.220073e+00
7.496975e+00
7.575831e+00
7.898159e+00
7.838965e+00
7.801595e+00
7.649206e+00
7.573954e+00
7.585962e+00
7.563464e+00
7.543113e+00
7.481899e+00
7.403770e+00
7.327955e+00
7.195067e+00
7.260155e+00
7.670669e+00
8.134284e+00
8.367790e+00
5.811465e+00
5.735435e+00
5.677761e+00
5.475718e+00
5.297776e+00
5.387541e+00
5.455992e+00
5.551011e+00
5.713176e+00
6.072182e+00
6.718561e+00
7.361243e+00
7.834153e+00
8.261139e+00
8.575198e+00
8.717095e+00
3.684345e+00
3.623109e+00
3.698877e+00
3.409663e+00
3.242265e+00
3.421894e+00
3.581862e+00
3.854792e+00
4.266580e+00
5.054836e+00
6.318063e+00
7.476503e+00
8.177573e+00
8.559480e+00
8.755142e+00
8.833881e+00


-7.041092e-01
-2.095600e-01
-3.108894e-01
-2.622922e-01
-1.517944e-01
-2.478757e-01
-1.954060e-01
-1.683893e-01
-2.070430e-01
-1.815456e-01
-1.885891e-01
-3.155984e-01
-4.027094e-01
-1.973601e-01
4.128690e-01
-8.075529e-01
5.839089e-01
4.365245e-01
3.117527e-01
2.399649e-01
2.938311e-01
2.173162e-01
2.200304e-01
2.236963e-01
1.890602e-01
2.059246e-01
2.443169e-01
2.946709e-01
4.342798e-01
6.972911e-01
7.240023e-01
-1.114493e+00
7.814407e-01
5.818165e-01
3.420725e-01
2.822988e-01
2.664460e-01
2.174016e-01
2.248730e-01
2.310001e-01
2.331987e-01
2.664192e-01
3.275537e-01
4.059598e-01
4.467227e-01
3.062140e-01
8.421886e-02
-2.573306e-01
8.048917e-01
6.461138e-01
4.047103e-01
2.981976e-01
2.301532e-01
2.012142e-01
2.072739e-01
2.199377e-01
2.371674e-01
2.515746e-01
2.544729e-01
2.258758e-01
8.808470e-02
-2.049353e-01
-2.304330e-01
-2.023567e-02
8.064633e-01
6.479158e-01
4.072067e-01
2.985835e-01
2.247187e-01
1.871904e-01
1.787846e-01
1.684501e-01
1.615172e-01
1.380339e-01
8.544386e-02
1.693865e-02
-9.548599e-02
-2.027931e-01
-5.144069e-02
3.691581e-01
7.850828e-01
5.864686e-01
3.492288e-01
2.867443e-01
2.593379e-01
1.951448e-01
1.717019e-01
1.267278e-01
7.060178e-02
1.853418e-03
-8.692744e-02
-1.141826e-01
-6.664486e-02
7.137083e-02
3.765924e-01
7.690974e-01
5.862941e-01
4.383689e-01
3.159482e-01
2.425146e-01
2.892412e-01
2.095197e-01
1.917390e-01
1.621050e-01
9.703051e-02
2.814606e-02
-6.241762e-02
-2.699187e-02
1.772322e-01
4.517307e-01
7.493497e-01
9.565558e-01
-7.059191e-01
-2.142742e-01
-3.113965e-01
-2.630611e-01
-1.574740e-01
-2.357686e-01
-1.789039e-01
-1.450596e-01
-1.199307e-01
-8.659613e-02
-6.928385e-02
1.300938e-01
5.008404e-01
8.028619e-01
9.586413e-01
9.990164e-01
1 2 19 18
2 3 20 19
3 4 21 20
4 5 22 21
5 6 23 22
6 7 24 23
7 8 25 24
8 9 26 25
9 10 27 26
10 11 28 27
11 12 29 28
12 13 30 29
13 14 31 30
14 15 32 31
15 16 33 32
16 17 34 33
18 19 36 35
19 20 37 36
20 21 38 37
21 22 39 38
22 23 40 39
23 24 41 40
24 25 42 41
25 26 43 42
26 27 44 43
27 28 45 44
28 29 46 45
29 30 47 46
30 31 48 47
31 32 49 48
32 33 50 49
33 34 51 50
35 36 53 52
36 37 54 53
37 38 55 54
38 39 56 55
39 40 57 56
40 41 58 57
41 42 59 58
42 43 60 59
43 44 61 60
44 45 62 61
45 46 63 62
46 47 64 63
47 48 65 64
48 49 66 65
49 50 67 66
50 51 68 67
52 53 70 69
53 54 71 70
54 55 72 71
55 56 73 72
56 57 74 73
57 58 75 74
58 59 76 75
59 60 77 76
60 61 78 77
61 62 79 78
62 63 80 79
63 64 81 80
64 65 82 81
65 66 83 82
66 67 84 83
67 68 85 84
69 70 87 86
70 71 88 87
71 72 89 88
72 73 90 89
73 74 91 90
74 75 92 91
75 76 93 92
76 77 94 93
77 78 95 94
78 79 96 95
79 80 97 96
80 81 98 97
81 82 99 98
82 83 100 99
83 84 101 100
84 85 102 101
86 87 104 103
87 88 105 104
88 89 106 105
89 90 107 106
90 91 108 107
91 92 109 108
92 93 110 109
93 94 111 110
94 95 112 111
95 96 113 112
96 97 114 113
97 98 115 114
98 99 116 115
99 100 117 116
100 101 118 117
101 102 119 118
103 104 121 120
104 105 122 121
105 106 123 122
106 107 124 123
107 108 125 124
108 109 126 125
109 110 127 126
110 111 128 127
111 112 129 128
112 113 130 129
113 114 131 130
114 115 132 131
115 116 133 132
116 117 134 133
117 118 135 134
118 119 136 135
120 121 138 137
121 122 139 138
122 123 140 139
123 124 141 140
124 125 142 141
125 126 143 142
126 127 144 143
127 128 145 144
128 129 146 145
129 130 147 146
130 131 148 147
131 132 149 148
132 133 150 149
133 134 151 150
134 135 152 151
135 136 153 152
