TITLE = "Solution"
VARIABLES = x, y, u, v, psiu, psiv, t, stress
ZONE T="structure" N=153 E=128 F=FEBLOCK ET=QUADRILATERAL VARLOCATION=([7,8]=cellcentered)
0.000000e+00
1.250000e+01
2.500000e+01
3.750000e+01
5.000000e+01
6.250000e+01
7.500000e+01
8.750000e+01
1.000000e+02
1.125000e+02
1.250000e+02
1.375000e+02
1.500000e+02
1.625000e+02
1.750000e+02
1.875000e+02
2.000000e+02
0.000000e+00
1.250000e+01
2.500000e+01
3.750000e+01
5.000000e+01
6.250000e+01
7.500000e+01
8.750000e+01
1.000000e+02
1.125000e+02
1.250000e+02
1.375000e+02
1.500000e+02
1.625000e+02
1.750000e+02
1.875000e+02
2.000000e+02
0.000000e+00
1.250000e+01
2.500000e+01
3.750000e+01
5.000000e+01
6.250000e+01
7.500000e+01
8.750000e+01
1.000000e+02
1.125000e+02
1.250000e+02
1.375000e+02
1.500000e+02
1.625000e+02
1.750000e+02
1.875000e+02
2.000000e+02
0.000000e+00
1.250000e+01
2.500000e+01
3.750000e+01
5.000000e+01
6.250000e+01
7.500000e+01
8.750000e+01
1.000000e+02
1.125000e+02
1.250000e+02
1.375000e+02
1.500000e+02
1.625000e+02
1.750000e+02
1.875000e+02
2.000000e+02
0.000000e+00
1.250000e+01
2.500000e+01
3.750000e+01
5.000000e+01
6.250000e+01
7.500000e+01
8.750000e+01
1.000000e+02
1.125000e+02
1.250000e+02
1.375000e+02
1.500000e+02
1.625000e+02
1.750000e+02
1.875000e+02
2.000000e+02
0.000000e+00
1.250000e+01
2.500000e+01
3.750000e+01
5.000000e+01
6.250000e+01
7.500000e+01
8.750000e+01
1.000000e+02
1.125000e+02
1.250000e+02
1.375000e+02
1.500000e+02
1.625000e+02
1.750000e+02
1.875000e+02
2.000000e+02
0.000000e+00
1.250000e+01
2.500000e+01
3.750000e+01
5.000000e+01
6.250000e+01
7.500000e+01
8.750000e+01
1.000000e+02
1.125000e+02
1.250000e+02
1.375000e+02
1.500000e+02
1.625000e+02
1.750000e+02
1.875000e+02
2.000000e+02
0.000000e+00
1.250000e+01
2.500000e+01
3.750000e+01
5.000000e+01
6.250000e+01
7.500000e+01
8.750000e+01
1.000000e+02
1.125000e+02
1.250000e+02
1.375000e+02
1.500000e+02
1.625000e+02
1.750000e+02
1.875000e+02
2.000000e+02
0.000000e+00
1.250000e+01
2.500000e+01
3.750000e+01
5.000000e+01
6.250000e+01
7.500000e+01
8.750000e+01
1.000000e+02
1.125000e+02
1.250000e+02
1.375000e+02
1.500000e+02
1.625000e+02
1.750000e+02
1.875000e+02
2.000000e+02
0.000000e+00
0.000000e+00
0.000000e+00
0.000000e+00
0.000000e+00
0.000000e+00
0.000000e+00
0.000000e+00
0.000000e+00
0.000000e+00
0.000000e+00
0.000000e+00
0.000000e+00
0.000000e+00
0.000000e+00
0.000000e+00
0.000000e+00
1.250000e+01
1.250000e+01
1.250000e+01
1.250000e+01
1.250000e+01
1.250000e+01
1.250000e+01
1.250000e+01
1.250000e+01
1.250000e+01
1.250000e+01
1.250000e+01
1.250000e+01
1.250000e+01
1.250000e+01
1.250000e+01
1.250000e+01
2.500000e+01
2.500000e+01
2.500000e+01
2.500000e+01
2.500000e+01
2.500000e+01
2.500000e+01
2.500000e+01
2.500000e+01
2.500000e+01
2.500000e+01
2.500000e+01
2.500000e+01
2.500000e+01
2.500000e+01
2.500000e+01
2.500000e+01
3.750000e+01
3.750000e+01
3.750000e+01
3.750000e+01
3.750000e+01
3.750000e+01
3.750000e+01
3.750000e+01
3.750000e+01
3.750000e+01
3.750000e+01
3.750000e+01
3.750000e+01
3.750000e+01
3.750000e+01
3.750000e+01
3.750000e+01
5.000000e+01
5.000000e+01
5.000000e+01
5.000000e+01
5.000000e+01
5.000000e+01
5.000000e+01
5.000000e+01
5.000000e+01
5.000000e+01
5.000000e+01
5.000000e+01
5.000000e+01
5.000000e+01
5.000000e+01
5.000000e+01
5.000000e+01
6.250000e+01
6.250000e+01
6.250000e+01
6.250000e+01
6.250000e+01
6.250000e+01
6.250000e+01
6.250000e+01
6.250000e+01
6.250000e+01
6.250000e+01
6.250000e+01
6.250000e+01
6.250000e+01
6.250000e+01
6.250000e+01
6.250000e+01
7.500000e+01
7.500000e+01
7.500000e+01
7.500000e+01
7.500000e+01
7.500000e+01
7.500000e+01
7.500000e+01
7.500000e+01
7.500000e+01
7.500000e+01
7.500000e+01
7.500000e+01
7.500000e+01
7.500000e+01
7.500000e+01
7.500000e+01
8.750000e+01
8.750000e+01
8.750000e+01
8.750000e+01
8.750000e+01
8.750000e+01
8.750000e+01
8.750000e+01
8.750000e+01
8.750000e+01
8.750000e+01
8.750000e+01
8.750000e+01
8.750000e+01
8.750000e+01
8.750000e+01
8.750000e+01
1.000000e+02
1.000000e+02
1.000000e+02
1.000000e+02
1.000000e+02
1.000000e+02
1.000000e+02
1.000000e+02
1.000000e+02
1.000000e+02
1.000000e+02
1.000000e+02
1.000000e+02
1.000000e+02
1.000000e+02
1.000000e+02
1.000000e+02
0.000000e+00
-8.201267e-01
-1.491377e+00
-2.140708e+00
-2.801255e+00
-3.451083e+00
-4.090933e+00
-4.723267e+00
-5.341664e+00
-5.935532e+00
-6.495014e+00
-7.015862e+00
-7.504663e+00
-7.982858e+00
-8.487832e+00
-9.064310e+00
-9.477766e+00
0.000000e+00
-4.581375e-01
-9.535824e-01
-1.440007e+00
-1.935171e+00
-2.422124e+00
-2.900730e+00
-3.373240e+00
-3.835112e+00
-4.277789e+00
-4.691679e+00
-5.068397e+00
-5.401335e+00
-5.679567e+00
-5.871159e+00
-5.913452e+00
-6.046615e+00
0.000000e+00
-2.629096e-01
-5.516052e-01
-8.700130e-01
-1.199489e+00
-1.526120e+00
-1.848175e+00
-2.164355e+00
-2.469933e+00
-2.757490e+00
-3.017570e+00
-3.239036e+00
-3.408161e+00
-3.506063e+00
-3.513787e+00
-3.482252e+00
-3.620649e+00
0.000000e+00
-1.189057e-01
-2.533510e-01
-4.070591e-01
-5.705304e-01
-7.349903e-01
-8.973615e-01
-1.054714e+00
-1.202956e+00
-1.336348e+00
-1.447265e+00
-1.526433e+00
-1.564091e+00
-1.554898e+00
-1.517553e+00
-1.525322e+00
-1.632930e+00
0.000000e+00
-4.844408e-04
-1.025049e-03
-1.534901e-03
-1.845591e-03
-1.627157e-03
-2.513076e-04
3.424875e-03
1.134021e-02
2.646406e-02
5.274133e-02
9.422120e-02
1.522432e-01
2.186160e-01
2.658515e-01
2.569344e-01
1.827501e-01
0.000000e+00
1.180929e-01
2.516080e-01
4.043882e-01
5.671796e-01
7.317344e-01
8.959736e-01
1.058772e+00
1.219071e+00
1.375797e+00
1.527713e+00
1.672719e+00
1.805613e+00
1.914296e+00
1.979557e+00
1.986391e+00
1.947901e+00
0.000000e+00
2.625117e-01
5.506967e-01
8.684881e-01
1.197285e+00
1.523354e+00
1.845350e+00
2.162600e+00
2.471186e+00
2.764737e+00
3.035444e+00
3.274967e+00
3.474554e+00
3.624507e+00
3.715417e+00
3.745336e+00
3.736423e+00
0.000000e+00
4.582466e-01
9.537314e-01
1.440119e+00
1.935058e+00
2.421434e+00
2.898930e+00
3.369184e+00
3.825752e+00
4.256114e+00
4.644708e+00
4.976174e+00
5.238493e+00
5.425185e+00
5.537273e+00
5.585188e+00
5.594037e+00
0.000000e+00
8.205136e-01
1.492383e+00
2.142531e+00
2.804023e+00
3.454785e+00
4.095367e+00
4.727152e+00
5.340038e+00
5.915298e+00
6.429300e+00
6.857923e+00
7.181627e+00
7.390688e+00
7.492019e+00
7.516777e+00
7.516144e+00
0.000000e+00
-5.033234e-01
-1.029128e+00
-1.725729e+00
-2.585561e+00
-3.609586e+00
-4.800824e+00
-6.158031e+00
-7.675746e+00
-9.345535e+00
-1.115671e+01
-1.309905e+01
-1.516826e+01
-1.737630e+01
-1.978813e+01
-2.261216e+01
-2.682525e+01
0.000000e+00
-3.156544e-01
-8.634756e-01
-1.554248e+00
-2.413995e+00
-3.440814e+00
-4.634461e+00
-5.994674e+00
-7.517881e+00
-9.196351e+00
-1.101905e+01
-1.297444e+01
-1.505665e+01
-1.727824e+01
-1.969682e+01
-2.250826e+01
-2.602034e+01
0.000000e+00
-2.522904e-01
-7.521372e-01
-1.436579e+00
-2.293443e+00
-3.321135e+00
-4.517223e+00
-5.881263e+00
-7.410550e+00
-9.098267e+00
-1.093391e+01
-1.290620e+01
-1.500970e+01
-1.725535e+01
-1.968130e+01
-2.232521e+01
-2.485132e+01
0.000000e+00
-2.387588e-01
-7.043701e-01
-1.371505e+00
-2.223568e+00
-3.250696e+00
-4.449314e+00
-5.818081e+00
-7.354456e+00
-9.052332e+00
-1.090176e+01
-1.289109e+01
-1.501159e+01
-1.726080e+01
-1.962794e+01
-2.201671e+01
-2.415637e+01
0.000000e+00
-2.382392e-01
-6.925550e-01
-1.352354e+00
-2.201476e+00
-3.228928e+00
-4.429864e+00
-5.802844e+00
-7.345590e+00
-9.052374e+00
-1.091287e+01
-1.291284e+01
-1.503547e+01
-1.725816e+01
-1.953147e+01
-2.174599e+01
-2.371957e+01
0.000000e+00
-2.385476e-01
-7.043198e-01
-1.372042e+00
-2.225318e+00
-3.254645e+00
-4.457067e+00
-5.832203e+00
-7.378576e+00
-9.090507e+00
-1.095635e+01
-1.295771e+01
-1.506852e+01
-1.725044e+01
-1.944287e+01
-2.155469e+01
-2.346758e+01
0.000000e+00
-2.519359e-01
-7.520284e-01
-1.437396e+00
-2.296233e+00
-3.327556e+00
-4.529984e+00
-5.904728e+00
-7.450936e+00
-9.162601e+00
-1.102651e+01
-1.302060e+01
-1.511211e+01
-1.725498e+01
-1.938856e+01
-2.144371e+01
-2.335502e+01
0.000000e+00
-3.152975e-01
-8.633554e-01
-1.555140e+00
-2.417101e+00
-3.448055e+00
-4.648969e+00
-6.021423e+00
-7.563836e+00
-9.269208e+00
-1.112321e+01
-1.310208e+01
-1.517063e+01
-1.728085e+01
-1.937468e+01
-2.139744e+01
-2.332879e+01
0.000000e+00
-5.030892e-01
-1.029131e+00
-1.726774e+00
-2.588847e+00
-3.617052e+00
-4.815581e+00
-6.184734e+00
-7.720358e+00
-9.413730e+00
-1.124967e+01
-1.320451e+01
-1.524401e+01
-1.732239e+01
-1.938610e+01
-2.138890e+01
-2.332936e+01


0.000000e+00
9.524742e-06
1.874040e-05
2.740724e-05
3.629317e-05
4.487790e-05
5.261999e-05
5.931302e-05
6.479210e-05
6.895095e-05
7.188234e-05
7.385168e-05
7.519392e-05
7.625205e-05
7.730969e-05
7.883667e-05
8.086028e-05
0.000000e+00
6.993217e-06
1.509426e-05
2.166465e-05
2.838942e-05
3.491209e-05
4.069660e-05
4.559490e-05
4.951929e-05
5.238605e-05
5.428122e-05
5.542121e-05
5.600553e-05
5.616368e-05
5.633268e-05
5.756793e-05
5.967970e-05
0.000000e+00
5.244476e-06
1.062078e-05
1.512673e-05
1.967018e-05
2.392015e-05
2.765155e-05
3.078003e-05
3.324661e-05
3.500730e-05
3.611563e-05
3.669719e-05
3.689317e-05
3.689361e-05
3.707871e-05
3.810370e-05
3.983990e-05
0.000000e+00
2.617509e-06
4.968301e-06
7.467623e-06
9.760260e-06
1.181660e-05
1.362871e-05
1.515850e-05
1.635758e-05
1.720899e-05
1.773220e-05
1.798913e-05
1.809299e-05
1.820684e-05
1.847489e-05
1.907712e-05
2.006454e-05
0.000000e+00
-5.662584e-09
-1.185410e-08
-1.836422e-08
-2.548692e-08
-3.444343e-08
-4.874925e-08
-7.465045e-08
-1.185833e-07
-1.819921e-07
-2.562575e-07
-3.164211e-07
-3.175243e-07
-2.168353e-07
-4.690767e-08
1.812951e-07
6.067976e-07
0.000000e+00
-2.627654e-06
-4.988783e-06
-7.499946e-06
-9.805199e-06
-1.187568e-05
-1.370754e-05
-1.527032e-05
-1.652378e-05
-1.745607e-05
-1.808275e-05
-1.844505e-05
-1.860201e-05
-1.862898e-05
-1.862396e-05
-1.860415e-05
-1.845645e-05
0.000000e+00
-5.249570e-06
-1.063343e-05
-1.514932e-05
-1.970534e-05
-2.397009e-05
-2.771554e-05
-3.084552e-05
-3.328997e-05
-3.501360e-05
-3.610056e-05
-3.671533e-05
-3.703087e-05
-3.719185e-05
-3.729412e-05
-3.734910e-05
-3.731449e-05
0.000000e+00
-6.993688e-06
-1.509832e-05
-2.167417e-05
-2.840821e-05
-3.494567e-05
-4.074470e-05
-4.562683e-05
-4.946680e-05
-5.218326e-05
-5.391390e-05
-5.494059e-05
-5.553082e-05
-5.587205e-05
-5.607175e-05
-5.617041e-05
-5.618606e-05
0.000000e+00
-9.527271e-06
-1.874088e-05
-2.740507e-05
-3.628933e-05
-4.487546e-05
-5.261612e-05
-5.927439e-05
-6.464394e-05
-6.861289e-05
-7.131065e-05
-7.303308e-05
-7.408539e-05
-7.469936e-05
-7.502198e-05
-7.514471e-05
-7.516507e-05
0.000000e+00
8.356375e-06
1.436288e-05
2.159318e-05
3.110816e-05
4.246278e-05
5.554865e-05
7.026274e-05
8.629909e-05
1.033438e-04
1.211806e-04
1.396481e-04
1.586559e-04
1.784087e-04
2.001277e-04
2.247190e-04
2.500106e-04
0.000000e+00
4.319163e-06
1.052180e-05
1.770748e-05
2.715097e-05
3.875835e-05
5.231357e-05
6.757133e-05
8.421406e-05
1.018696e-04
1.202262e-04
1.390754e-04
1.583300e-04
1.781032e-04
1.988808e-04
2.220511e-04
2.465489e-04
0.000000e+00
1.887359e-06
7.433491e-06
1.485852e-05
2.432264e-05
3.613782e-05
5.004011e-05
6.569650e-05
8.276541e-05
1.008529e-04
1.195919e-04
1.387391e-04
1.581863e-04
1.778496e-04
1.976108e-04
2.191729e-04
2.424310e-04
0.000000e+00
1.080422e-06
6.016529e-06
1.347841e-05
2.310531e-05
3.503193e-05
4.905813e-05
6.486884e-05
8.210729e-05
1.003741e-04
1.192907e-04
1.385820e-04
1.580753e-04
1.775804e-04
1.968905e-04
2.172808e-04
2.390397e-04
0.000000e+00
9.234167e-07
5.621373e-06
1.301880e-05
2.274974e-05
3.471551e-05
4.877359e-05
6.463089e-05
8.192451e-05
1.002490e-04
1.192195e-04
1.385374e-04
1.579932e-04
1.774039e-04
1.966733e-04
2.164595e-04
2.368603e-04
0.000000e+00
1.081267e-06
6.015416e-06
1.347337e-05
2.309529e-05
3.502016e-05
4.905571e-05
6.489234e-05
8.216789e-05
1.004683e-04
1.193966e-04
1.386509e-04
1.580271e-04
1.773841e-04
1.966935e-04
2.161773e-04
2.357175e-04
0.000000e+00
1.888440e-06
7.431844e-06
1.485121e-05
2.430775e-05
3.612088e-05
5.004033e-05
6.574322e-05
8.287968e-05
1.010315e-04
1.198030e-04
1.389098e-04
1.581688e-04
1.774645e-04
1.967522e-04
2.160560e-04
2.352192e-04
0.000000e+00
4.321354e-06
1.052293e-05
1.770433e-05
2.714251e-05
3.875062e-05
5.232384e-05
6.762440e-05
8.432955e-05
1.020513e-04
1.204553e-04
1.392914e-04
1.583749e-04
1.775739e-04
1.968037e-04
2.160009e-04
2.350619e-04
0.000000e+00
8.360730e-06
1.436741e-05
2.159603e-05
3.110968e-05
4.246876e-05
5.556756e-05
7.029964e-05
8.635901e-05
1.034389e-04
1.213166e-04
1.397862e-04
1.586418e-04
1.777094e-04
1.968617e-04
2.159965e-04
2.350395e-04


2.158120e+00
2.115571e+00
2.256557e+00
2.484478e+00
2.672809e+00
2.911592e+00
3.208134e+00
3.523195e+00
3.822115e+00
4.075616e+00
4.264650e+00
4.383667e+00
4.415709e+00
4.279945e+00
3.985716e+00
3.756025e+00
2.739303e+00
2.695652e+00
2.786951e+00
2.950450e+00
3.087981e+00
3.268032e+00
3.495618e+00
3.739576e+00
3.973279e+00
4.172999e+00
4.322066e+00
4.414045e+00
4.429026e+00
4.283752e+00
3.994200e+00
3.770806e+00
3.616636e+00
3.582018e+00
3.617126e+00
3.687888e+00
3.748562e+00
3.838525e+00
3.955398e+00
4.083613e+00
4.209835e+00
4.319940e+00
4.402558e+00
4.451991e+00
4.450905e+00
4.331947e+00
4.104143e+00
3.934768e+00
4.180416e+00
4.157817e+00
4.158032e+00
4.168422e+00
4.185179e+00
4.215840e+00
4.257726e+00
4.306621e+00
4.357990e+00
4.405012e+00
4.441465e+00
4.464143e+00
4.463470e+00
4.401980e+00
4.281431e+00
4.191660e+00
4.180408e+00
4.157733e+00
4.157769e+00
4.167784e+00
4.183867e+00
4.213495e+00
4.254010e+00
4.301126e+00
4.350245e+00
4.394979e+00
4.430350e+00
4.455558e+00
4.468580e+00
4.455792e+00
4.416425e+00
4.385494e+00
3.616381e+00
3.581521e+00
3.616093e+00
3.685886e+00
3.745102e+00
3.833484e+00
3.949054e+00
4.075773e+00
4.199119e+00
4.304938e+00
4.384556e+00
4.438868e+00
4.473413e+00
4.489631e+00
4.490558e+00
4.487433e+00
2.738437e+00
2.694386e+00
2.784919e+00
2.947284e+00
3.083785e+00
3.264333e+00
3.495118e+00
3.743730e+00
3.980067e+00
4.178188e+00
4.323709e+00
4.419054e+00
4.476750e+00
4.509039e+00
4.524837e+00
4.530790e+00
2.156728e+00
2.113711e+00
2.253887e+00
2.480823e+00
2.668915e+00
2.910463e+00
3.214482e+00
3.539924e+00
3.846975e+00
4.102377e+00
4.288480e+00
4.408746e+00
4.479549e+00
4.518362e+00
4.537789e+00
4.545775e+00


-4.401173e-01
-1.989095e-01
-1.306984e-01
-1.709265e-01
-1.347948e-01
-1.001560e-01
-7.475588e-02
-2.853017e-02
5.251207e-02
1.650215e-01
2.922284e-01
4.110161e-01
5.061106e-01
5.791395e-01
6.573831e-01
-3.824114e-01
5.161851e-01
4.010606e-01
3.765773e-01
3.451628e-01
3.554652e-01
3.673206e-01
3.771049e-01
4.011607e-01
4.498171e-01
5.257002e-01
6.241337e-01
7.351980e-01
8.464906e-01
9.286131e-01
7.955143e-01
-1.077209e+00
8.327346e-01
7.452600e-01
6.756115e-01
6.434484e-01
6.354414e-01
6.321072e-01
6.317978e-01
6.397434e-01
6.609983e-01
6.979121e-01
7.465997e-01
7.924767e-01
8.041141e-01
7.207083e-01
4.392154e-01
-5.954091e-02
9.384550e-01
8.683295e-01
8.069260e-01
7.727664e-01
7.578915e-01
7.491551e-01
7.408559e-01
7.319746e-01
7.236799e-01
7.164244e-01
7.060859e-01
6.806065e-01
6.222294e-01
5.310452e-01
4.722038e-01
4.687567e-01
9.389049e-01
8.689041e-01
8.074601e-01
7.727287e-01
7.563310e-01
7.444343e-01
7.301173e-01
7.106822e-01
6.856487e-01
6.552087e-01
6.191954e-01
5.785753e-01
5.437799e-01
5.491312e-01
6.334149e-01
7.725663e-01
8.337595e-01
7.466128e-01
6.769851e-01
6.438905e-01
6.331202e-01
6.236861e-01
6.113586e-01
5.979353e-01
5.849593e-01
5.734067e-01
5.652201e-01
5.676355e-01
5.982263e-01
6.774448e-01
8.008043e-01
9.282276e-01
5.168796e-01
4.020436e-01
3.776513e-01
3.461112e-01
3.554434e-01
3.644381e-01
3.682405e-01
3.824272e-01
4.167575e-01
4.726300e-01
5.447777e-01
6.272094e-01
7.199432e-01
8.244744e-01
9.244540e-01
9.874813e-01
-4.408740e-01
-2.001836e-01
-1.321995e-01
-1.724125e-01
-1.357544e-01
-1.001815e-01
-7.121568e-02
-1.227827e-02
9.969509e-02
2.668287e-01
4.688402e-01
6.698405e-01
8.338276e-01
9.393591e-01
9.881350e-01
9.997567e-01
1 2 19 18
2 3 20 19
3 4 21 20
4 5 22 21
5 6 23 22
6 7 24 23
7 8 25 24
8 9 26 25
9 10 27 26
10 11 28 27
11 12 29 28
12 13 30 29
13 14 31 30
14 15 32 31
15 16 33 32
16 17 34 33
18 19 36 35
19 20 37 36
20 21 38 37
21 22 39 38
22 23 40 39
23 24 41 40
24 25 42 41
25 26 43 42
26 27 44 43
27 28 45 44
28 29 46 45
29 30 47 46
30 31 48 47
31 32 49 48
32 33 50 49
33 34 51 50
35 36 53 52
36 37 54 53
37 38 55 54
38 39 56 55
39 40 57 56
40 41 58 57
41 42 59 58
42 43 60 59
43 44 61 60
44 45 62 61
45 46 63 62
46 47 64 63
47 48 65 64
48 49 66 65
49 50 67 66
50 51 68 67
52 53 70 69
53 54 71 70
54 55 72 71
55 56 73 72
56 57 74 73
57 58 75 74
58 59 76 75
59 60 77 76
60 61 78 77
61 62 79 78
62 63 80 79
63 64 81 80
64 65 82 81
65 66 83 82
66 67 84 83
67 68 85 84
69 70 87 86
70 71 88 87
71 72 89 88
72 73 90 89
73 74 91 90
74 75 92 91
75 76 93 92
76 77 94 93
77 78 95 94
78 79 96 95
79 80 97 96
80 81 98 97
81 82 99 98
82 83 100 99
83 84 101 100
84 85 102 101
86 87 104 103
87 88 105 104
88 89 106 105
89 90 107 106
90 91 108 107
91 92 109 108
92 93 110 109
93 94 111 110
94 95 112 111
95 96 113 112
96 97 114 113
97 98 115 114
98 99 116 115
99 100 117 116
100 101 118 117
101 102 119 118
103 104 121 120
104 105 122 121
105 106 123 122
106 107 124 123
107 108 125 124
108 109 126 125
109 110 127 126
110 111 128 127
111 112 129 128
112 113 130 129
113 114 131 130
114 115 132 131
115 116 133 132
116 117 134 133
117 118 135 134
118 119 136 135
120 121 138 137
121 122 139 138
122 123 140 139
123 124 141 140
124 125 142 141
125 126 143 142
126 127 144 143
127 128 145 144
128 129 146 145
129 130 147 146
130 131 148 147
131 132 149 148
132 133 150 149
133 134 151 150
134 135 152 151
135 136 153 152
