TITLE = "Solution"
VARIABLES = x, y, u, v, psiu, psiv, t, stress
ZONE T="structure" N=153 E=128 F=FEBLOCK ET=QUADRILATERAL VARLOCATION=([7,8]=cellcentered)
0.000000e+00
1.250000e+01
2.500000e+01
3.750000e+01
5.000000e+01
6.250000e+01
7.500000e+01
8.750000e+01
1.000000e+02
1.125000e+02
1.250000e+02
1.375000e+02
1.500000e+02
1.625000e+02
1.750000e+02
1.875000e+02
2.000000e+02
0.000000e+00
1.250000e+01
2.500000e+01
3.750000e+01
5.000000e+01
6.250000e+01
7.500000e+01
8.750000e+01
1.000000e+02
1.125000e+02
1.250000e+02
1.375000e+02
1.500000e+02
1.625000e+02
1.750000e+02
1.875000e+02
2.000000e+02
0.000000e+00
1.250000e+01
2.500000e+01
3.750000e+01
5.000000e+01
6.250000e+01
7.500000e+01
8.750000e+01
1.000000e+02
1.125000e+02
1.250000e+02
1.375000e+02
1.500000e+02
1.625000e+02
1.750000e+02
1.875000e+02
2.000000e+02
0.000000e+00
1.250000e+01
2.500000e+01
3.750000e+01
5.000000e+01
6.250000e+01
7.500000e+01
8.750000e+01
1.000000e+02
1.125000e+02
1.250000e+02
1.375000e+02
1.500000e+02
1.625000e+02
1.750000e+02
1.875000e+02
2.000000e+02
0.000000e+00
1.250000e+01
2.500000e+01
3.750000e+01
5.000000e+01
6.250000e+01
7.500000e+01
8.750000e+01
1.000000e+02
1.125000e+02
1.250000e+02
1.375000e+02
1.500000e+02
1.625000e+02
1.750000e+02
1.875000e+02
2.000000e+02
0.000000e+00
1.250000e+01
2.500000e+01
3.750000e+01
5.000000e+01
6.250000e+01
7.500000e+01
8.750000e+01
1.000000e+02
1.125000e+02
1.250000e+02
1.375000e+02
1.500000e+02
1.625000e+02
1.750000e+02
1.875000e+02
2.000000e+02
0.000000e+00
1.250000e+01
2.500000e+01
3.750000e+01
5.000000e+01
6.250000e+01
7.500000e+01
8.750000e+01
1.000000e+02
1.125000e+02
1.250000e+02
1.375000e+02
1.500000e+02
1.625000e+02
1.750000e+02
1.875000e+02
2.000000e+02
0.000000e+00
1.250000e+01
2.500000e+01
3.750000e+01
5.000000e+01
6.250000e+01
7.500000e+01
8.750000e+01
1.000000e+02
1.125000e+02
1.250000e+02
1.375000e+02
1.500000e+02
1.625000e+02
1.750000e+02
1.875000e+02
2.000000e+02
0.000000e+00
1.250000e+01
2.500000e+01
3.750000e+01
5.000000e+01
6.250000e+01
7.500000e+01
8.750000e+01
1.000000e+02
1.125000e+02
1.250000e+02
1.375000e+02
1.500000e+02
1.625000e+02
1.750000e+02
1.875000e+02
2.000000e+02
0.000000e+00
0.000000e+00
0.000000e+00
0.000000e+00
0.000000e+00
0.000000e+00
0.000000e+00
0.000000e+00
0.000000e+00
0.000000e+00
0.000000e+00
0.000000e+00
0.000000e+00
0.000000e+00
0.000000e+00
0.000000e+00
0.000000e+00
1.250000e+01
1.250000e+01
1.250000e+01
1.250000e+01
1.250000e+01
1.250000e+01
1.250000e+01
1.250000e+01
1.250000e+01
1.250000e+01
1.250000e+01
1.250000e+01
1.250000e+01
1.250000e+01
1.250000e+01
1.250000e+01
1.250000e+01
2.500000e+01
2.500000e+01
2.500000e+01
2.500000e+01
2.500000e+01
2.500000e+01
2.500000e+01
2.500000e+01
2.500000e+01
2.500000e+01
2.500000e+01
2.500000e+01
2.500000e+01
2.500000e+01
2.500000e+01
2.500000e+01
2.500000e+01
3.750000e+01
3.750000e+01
3.750000e+01
3.750000e+01
3.750000e+01
3.750000e+01
3.750000e+01
3.750000e+01
3.750000e+01
3.750000e+01
3.750000e+01
3.750000e+01
3.750000e+01
3.750000e+01
3.750000e+01
3.750000e+01
3.750000e+01
5.000000e+01
5.000000e+01
5.000000e+01
5.000000e+01
5.000000e+01
5.000000e+01
5.000000e+01
5.000000e+01
5.000000e+01
5.000000e+01
5.000000e+01
5.000000e+01
5.000000e+01
5.000000e+01
5.000000e+01
5.000000e+01
5.000000e+01
6.250000e+01
6.250000e+01
6.250000e+01
6.250000e+01
6.250000e+01
6.250000e+01
6.250000e+01
6.250000e+01
6.250000e+01
6.250000e+01
6.250000e+01
6.250000e+01
6.250000e+01
6.250000e+01
6.250000e+01
6.250000e+01
6.250000e+01
7.500000e+01
7.500000e+01
7.500000e+01
7.500000e+01
7.500000e+01
7.500000e+01
7.500000e+01
7.500000e+01
7.500000e+01
7.500000e+01
7.500000e+01
7.500000e+01
7.500000e+01
7.500000e+01
7.500000e+01
7.500000e+01
7.500000e+01
8.750000e+01
8.750000e+01
8.750000e+01
8.750000e+01
8.750000e+01
8.750000e+01
8.750000e+01
8.750000e+01
8.750000e+01
8.750000e+01
8.750000e+01
8.750000e+01
8.750000e+01
8.750000e+01
8.750000e+01
8.750000e+01
8.750000e+01
1.000000e+02
1.000000e+02
1.000000e+02
1.000000e+02
1.000000e+02
1.000000e+02
1.000000e+02
1.000000e+02
1.000000e+02
1.000000e+02
1.000000e+02
1.000000e+02
1.000000e+02
1.000000e+02
1.000000e+02
1.000000e+02
1.000000e+02
0.000000e+00
-9.941511e-01
-1.679591e+00
-2.431095e+00
-3.115541e+00
-3.752406e+00
-4.457040e+00
-5.087806e+00
-5.763306e+00
-6.405310e+00
-7.056492e+00
-7.723113e+00
-8.376745e+00
-9.147869e+00
-1.007751e+01
-1.083345e+01
-1.128362e+01
0.000000e+00
-4.451744e-01
-9.073021e-01
-1.419067e+00
-1.930317e+00
-2.411688e+00
-2.925321e+00
-3.423341e+00
-3.919784e+00
-4.421604e+00
-4.914799e+00
-5.417163e+00
-5.902058e+00
-6.422331e+00
-6.897448e+00
-7.023380e+00
-7.202231e+00
0.000000e+00
-1.463003e-01
-3.496322e-01
-6.400385e-01
-9.780259e-01
-1.303455e+00
-1.656936e+00
-2.013185e+00
-2.357466e+00
-2.718757e+00
-3.057945e+00
-3.391958e+00
-3.687422e+00
-3.927289e+00
-4.036088e+00
-4.033935e+00
-4.182453e+00
0.000000e+00
-7.892835e-02
-1.622688e-01
-3.095545e-01
-4.545984e-01
-6.285621e-01
-8.130902e-01
-9.792989e-01
-1.166157e+00
-1.328238e+00
-1.489299e+00
-1.628181e+00
-1.721388e+00
-1.729408e+00
-1.656031e+00
-1.635487e+00
-1.752777e+00
0.000000e+00
-3.253592e-03
-7.093133e-03
-1.108455e-02
-1.533295e-02
-1.851558e-02
-1.914772e-02
-1.612752e-02
-7.175538e-03
9.665745e-03
3.413619e-02
7.875131e-02
1.609838e-01
2.757849e-01
3.953840e-01
4.359407e-01
3.377421e-01
0.000000e+00
7.325864e-02
1.507870e-01
2.908065e-01
4.292164e-01
5.966738e-01
7.753369e-01
9.458564e-01
1.151434e+00
1.346489e+00
1.563032e+00
1.783437e+00
2.009575e+00
2.216210e+00
2.351868e+00
2.384837e+00
2.319286e+00
0.000000e+00
1.440286e-01
3.444849e-01
6.311752e-01
9.660825e-01
1.291168e+00
1.643330e+00
1.999686e+00
2.361538e+00
2.765838e+00
3.144487e+00
3.511499e+00
3.844742e+00
4.119673e+00
4.295907e+00
4.350616e+00
4.328051e+00
0.000000e+00
4.459079e-01
9.080531e-01
1.419602e+00
1.930151e+00
2.409943e+00
2.920626e+00
3.415575e+00
3.903871e+00
4.396890e+00
4.875284e+00
5.350516e+00
5.779366e+00
6.126668e+00
6.343407e+00
6.439033e+00
6.456680e+00
0.000000e+00
9.963711e-01
1.684525e+00
2.439787e+00
3.126476e+00
3.764444e+00
4.468664e+00
5.097231e+00
5.746373e+00
6.331354e+00
6.905399e+00
7.506208e+00
8.037252e+00
8.448427e+00
8.649867e+00
8.702775e+00
8.703327e+00
0.000000e+00
-6.181781e-01
-1.361169e+00
-2.361722e+00
-3.535491e+00
-4.879231e+00
-6.409782e+00
-8.095768e+00
-9.955978e+00
-1.197904e+01
-1.416393e+01
-1.651410e+01
-1.902772e+01
-2.175891e+01
-2.472274e+01
-2.808246e+01
-3.309828e+01
0.000000e+00
-4.150082e-01
-1.192619e+00
-2.175814e+00
-3.366194e+00
-4.704772e+00
-6.232602e+00
-7.926784e+00
-9.779979e+00
-1.181131e+01
-1.399166e+01
-1.634657e+01
-1.885457e+01
-2.156636e+01
-2.458277e+01
-2.799859e+01
-3.204896e+01
0.000000e+00
-3.892829e-01
-1.090991e+00
-2.072411e+00
-3.246695e+00
-4.579210e+00
-6.112367e+00
-7.797327e+00
-9.660862e+00
-1.168961e+01
-1.388111e+01
-1.624722e+01
-1.876564e+01
-2.150414e+01
-2.457294e+01
-2.784650e+01
-3.087890e+01
0.000000e+00
-4.482081e-01
-1.087315e+00
-2.046278e+00
-3.183781e+00
-4.510109e+00
-6.049795e+00
-7.721255e+00
-9.603094e+00
-1.163140e+01
-1.384413e+01
-1.623010e+01
-1.877427e+01
-2.151431e+01
-2.450358e+01
-2.753664e+01
-3.016162e+01
0.000000e+00
-4.553969e-01
-1.109505e+00
-2.030442e+00
-3.170080e+00
-4.499425e+00
-6.028824e+00
-7.718826e+00
-9.593734e+00
-1.164383e+01
-1.387025e+01
-1.626405e+01
-1.881566e+01
-2.151543e+01
-2.435288e+01
-2.717034e+01
-2.955741e+01
0.000000e+00
-4.469335e-01
-1.086931e+00
-2.048281e+00
-3.190714e+00
-4.527127e+00
-6.076924e+00
-7.758170e+00
-9.655841e+00
-1.170994e+01
-1.393989e+01
-1.631622e+01
-1.884702e+01
-2.150533e+01
-2.421760e+01
-2.685082e+01
-2.911973e+01
0.000000e+00
-3.875793e-01
-1.090864e+00
-2.076934e+00
-3.260148e+00
-4.607980e+00
-6.158071e+00
-7.867413e+00
-9.761565e+00
-1.182554e+01
-1.402650e+01
-1.638334e+01
-1.888659e+01
-2.150534e+01
-2.413493e+01
-2.664372e+01
-2.888663e+01
0.000000e+00
-4.134320e-01
-1.192561e+00
-2.181108e+00
-3.381804e+00
-4.735406e+00
-6.283841e+00
-8.008548e+00
-9.900217e+00
-1.196237e+01
-1.414203e+01
-1.648193e+01
-1.896376e+01
-2.154697e+01
-2.411439e+01
-2.655607e+01
-2.882626e+01
0.000000e+00
-6.171742e-01
-1.361722e+00
-2.367710e+00
-3.551511e+00
-4.909877e+00
-6.461739e+00
-8.177139e+00
-1.007231e+01
-1.211818e+01
-1.429728e+01
-1.663034e+01
-1.908738e+01
-2.162885e+01
-2.413907e+01
-2.654112e+01
-2.882512e+01


0.000000e+00
1.541758e-05
2.510979e-05
3.749470e-05
5.358436e-05
6.720660e-05
8.306666e-05
9.715806e-05
1.117063e-04
1.257123e-04
1.408334e-04
1.551397e-04
1.718133e-04
1.875003e-04
1.973371e-04
2.030064e-04
2.099292e-04
0.000000e+00
1.146290e-05
1.974550e-05
2.838994e-05
4.100773e-05
5.169757e-05
6.182167e-05
7.296265e-05
8.314918e-05
9.454605e-05
1.052300e-04
1.155181e-04
1.264810e-04
1.357432e-04
1.371537e-04
1.408864e-04
1.467133e-04
0.000000e+00
9.537765e-06
1.501944e-05
2.017720e-05
2.886248e-05
3.551297e-05
4.128174e-05
4.865189e-05
5.464724e-05
6.197695e-05
6.841513e-05
7.397843e-05
7.871114e-05
8.082058e-05
8.001097e-05
8.239342e-05
8.663762e-05
0.000000e+00
5.179237e-06
6.844753e-06
9.605093e-06
1.306329e-05
1.358254e-05
1.593230e-05
1.752613e-05
2.101756e-05
2.453085e-05
2.815728e-05
2.909571e-05
2.847145e-05
2.699375e-05
2.680099e-05
2.987435e-05
3.554657e-05
0.000000e+00
-1.722108e-07
-4.287713e-07
-8.436426e-07
-1.696286e-06
-2.824050e-06
-4.888182e-06
-7.046278e-06
-7.576328e-06
-7.619937e-06
-8.670502e-06
-1.190462e-05
-1.465906e-05
-1.600254e-05
-1.566795e-05
-1.348694e-05
-9.499838e-06
0.000000e+00
-5.438731e-06
-7.424607e-06
-1.071506e-05
-1.463232e-05
-1.610265e-05
-2.051963e-05
-2.444888e-05
-3.018611e-05
-3.326327e-05
-3.733005e-05
-4.216260e-05
-4.716932e-05
-4.882845e-05
-4.937579e-05
-4.987032e-05
-4.817045e-05
0.000000e+00
-9.536657e-06
-1.508488e-05
-2.034399e-05
-2.896597e-05
-3.530998e-05
-4.078524e-05
-4.883513e-05
-5.601142e-05
-6.350046e-05
-6.873937e-05
-7.373924e-05
-7.790967e-05
-8.132871e-05
-8.324697e-05
-8.516400e-05
-8.591388e-05
0.000000e+00
-1.139310e-05
-1.965871e-05
-2.828752e-05
-4.078965e-05
-5.163592e-05
-6.158513e-05
-7.280306e-05
-8.319946e-05
-9.455145e-05
-1.052103e-04
-1.133986e-04
-1.182263e-04
-1.232052e-04
-1.267527e-04
-1.280292e-04
-1.281261e-04
0.000000e+00
-1.542824e-05
-2.505099e-05
-3.734345e-05
-5.337775e-05
-6.703201e-05
-8.274917e-05
-9.588909e-05
-1.098202e-04
-1.234529e-04
-1.411106e-04
-1.567520e-04
-1.663279e-04
-1.714936e-04
-1.737122e-04
-1.739180e-04
-1.737323e-04
0.000000e+00
1.260388e-05
2.000807e-05
3.245579e-05
4.878851e-05
6.691975e-05
9.134362e-05
1.201866e-04
1.533181e-04
1.900403e-04
2.301114e-04
2.741057e-04
3.241585e-04
3.781989e-04
4.396321e-04
5.103975e-04
5.836686e-04
0.000000e+00
7.678377e-06
1.611907e-05
2.635553e-05
4.231624e-05
6.096978e-05
8.489510e-05
1.142950e-04
1.471143e-04
1.838739e-04
2.238092e-04
2.678823e-04
3.175668e-04
3.733417e-04
4.344416e-04
5.030208e-04
5.733029e-04
0.000000e+00
4.326424e-06
1.230974e-05
2.172734e-05
3.650913e-05
5.572744e-05
7.951202e-05
1.097956e-04
1.429432e-04
1.793768e-04
2.191881e-04
2.633870e-04
3.137819e-04
3.710095e-04
4.303416e-04
4.955434e-04
5.635924e-04
0.000000e+00
3.201082e-06
1.060590e-05
2.008102e-05
3.450976e-05
5.207700e-05
7.654160e-05
1.088676e-04
1.434262e-04
1.778843e-04
2.170801e-04
2.618322e-04
3.130768e-04
3.696171e-04
4.276239e-04
4.877052e-04
5.494149e-04
0.000000e+00
2.814174e-06
1.027514e-05
2.003609e-05
3.421269e-05
5.077281e-05
7.545557e-05
1.098778e-04
1.446621e-04
1.776420e-04
2.153000e-04
2.618597e-04
3.134106e-04
3.697165e-04
4.264746e-04
4.813139e-04
5.333175e-04
0.000000e+00
3.341293e-06
1.079272e-05
2.044922e-05
3.483616e-05
5.188024e-05
7.726018e-05
1.107417e-04
1.452163e-04
1.774425e-04
2.156798e-04
2.634821e-04
3.158032e-04
3.699677e-04
4.263595e-04
4.789949e-04
5.223582e-04
0.000000e+00
4.476767e-06
1.253387e-05
2.206355e-05
3.677895e-05
5.578871e-05
8.045249e-05
1.117011e-04
1.445471e-04
1.785646e-04
2.180476e-04
2.667485e-04
3.192882e-04
3.719785e-04
4.254146e-04
4.762758e-04
5.189440e-04
0.000000e+00
7.799989e-06
1.635093e-05
2.664895e-05
4.256248e-05
6.135950e-05
8.583049e-05
1.158814e-04
1.479786e-04
1.829346e-04
2.227383e-04
2.704245e-04
3.222986e-04
3.741477e-04
4.255148e-04
4.742721e-04
5.194261e-04
0.000000e+00
1.271421e-05
2.023980e-05
3.273951e-05
4.911293e-05
6.743489e-05
9.234570e-05
1.215638e-04
1.541147e-04
1.892446e-04
2.298951e-04
2.747046e-04
3.244915e-04
3.753539e-04
4.258049e-04
4.737881e-04
5.196960e-04


5.600110e+00
6.087890e+00
6.820373e+00
5.854063e+00
5.410092e+00
5.964956e+00
6.005140e+00
6.185245e+00
5.859824e+00
5.874126e+00
6.253028e+00
7.128108e+00
8.826234e+00
9.804776e+00
9.124413e+00
7.975338e+00
8.041997e+00
8.424137e+00
8.629669e+00
8.328790e+00
8.060999e+00
8.253990e+00
8.445225e+00
8.325973e+00
8.328883e+00
8.243891e+00
8.389275e+00
8.817622e+00
9.487362e+00
9.816954e+00
8.370814e+00
6.452244e+00
9.824415e+00
9.808711e+00
9.981498e+00
9.819475e+00
9.817238e+00
9.908928e+00
9.811289e+00
9.910141e+00
9.825717e+00
9.860356e+00
9.875325e+00
9.856147e+00
9.874354e+00
9.374779e+00
7.969707e+00
6.163968e+00
9.990872e+00
9.990703e+00
9.990620e+00
9.989707e+00
9.988437e+00
9.985971e+00
9.983269e+00
9.983348e+00
9.984860e+00
9.984325e+00
9.977047e+00
9.461988e+00
8.810462e+00
8.352460e+00
7.956013e+00
7.868398e+00
9.990826e+00
9.990598e+00
9.990424e+00
9.989206e+00
9.987111e+00
9.982631e+00
9.918099e+00
9.955683e+00
9.974544e+00
9.894613e+00
9.335925e+00
8.544606e+00
7.657362e+00
7.702939e+00
8.611869e+00
9.123649e+00
9.824609e+00
9.808263e+00
9.980552e+00
9.816871e+00
9.809919e+00
9.656988e+00
9.344536e+00
9.517798e+00
9.372823e+00
8.818813e+00
8.278507e+00
7.843770e+00
8.111600e+00
8.692396e+00
9.413960e+00
9.968422e+00
8.044203e+00
8.424625e+00
8.627725e+00
8.323285e+00
7.980647e+00
7.836114e+00
7.671723e+00
7.671185e+00
7.715906e+00
7.270259e+00
7.442052e+00
8.442949e+00
9.231016e+00
9.801171e+00
9.981513e+00
9.988743e+00
5.606254e+00
6.089651e+00
6.818697e+00
5.846135e+00
5.385728e+00
5.629490e+00
5.508982e+00
5.955313e+00
5.953344e+00
6.364693e+00
7.805589e+00
9.085074e+00
9.953777e+00
9.985546e+00
9.989924e+00
9.991462e+00


-8.127190e-01
-1.752241e-01
-3.941755e-01
-2.545922e-01
-1.023426e-01
-2.999488e-01
-1.263183e-01
-2.098157e-01
-1.599121e-01
-1.616062e-01
-2.112337e-01
-1.512424e-01
-4.651864e-01
-6.799099e-01
3.171132e-01
-8.469573e-01
6.117280e-01
4.783795e-01
2.969213e-01
2.262013e-01
2.879119e-01
1.685501e-01
1.766501e-01
1.713082e-01
1.124965e-01
1.467579e-01
1.302737e-01
2.422906e-01
3.020848e-01
5.118616e-01
6.959523e-01
-9.372515e-01
7.241435e-01
4.713283e-01
5.926537e-02
-1.716281e-02
-3.874907e-02
-1.804588e-01
-7.971374e-02
-1.344844e-01
-7.311480e-02
-1.725583e-02
3.552955e-02
1.881040e-01
2.799720e-01
1.493583e-01
-2.366623e-02
-1.697144e-01
7.292823e-01
5.563601e-01
1.944393e-01
6.513914e-02
-2.362266e-02
-1.004760e-01
-1.719540e-02
-5.910006e-02
1.547989e-02
2.025499e-02
6.087797e-02
1.177544e-01
5.807024e-02
-2.641754e-01
-3.827942e-01
-7.649775e-02
7.321559e-01
5.602876e-01
2.022485e-01
7.277318e-02
-2.057450e-02
-1.070899e-01
-3.765806e-02
-9.930171e-02
-4.835673e-02
-3.793202e-02
2.030187e-02
1.422482e-02
-3.721798e-02
-1.320835e-01
-1.033995e-01
3.120872e-01
7.308460e-01
4.815203e-01
7.717465e-02
1.799259e-04
-2.784916e-02
-1.597621e-01
-8.318193e-02
-1.943297e-01
-1.805615e-01
-1.050968e-01
-7.947870e-02
-9.890693e-02
-1.067823e-01
4.719879e-02
3.339477e-01
7.254090e-01
6.156777e-01
4.842492e-01
3.044082e-01
2.315659e-01
2.853444e-01
1.625403e-01
1.526334e-01
9.705809e-02
-5.451392e-02
-3.954168e-02
-9.770293e-02
-6.017536e-02
6.099842e-02
3.676156e-01
7.131143e-01
9.479683e-01
-8.183044e-01
-1.805015e-01
-4.018180e-01
-2.582369e-01
-1.022474e-01
-2.953594e-01
-1.208426e-01
-1.534451e-01
-5.654939e-02
-2.306804e-02
-9.278307e-02
9.633583e-02
3.900175e-01
7.723067e-01
9.528326e-01
9.987342e-01
1 2 19 18
2 3 20 19
3 4 21 20
4 5 22 21
5 6 23 22
6 7 24 23
7 8 25 24
8 9 26 25
9 10 27 26
10 11 28 27
11 12 29 28
12 13 30 29
13 14 31 30
14 15 32 31
15 16 33 32
16 17 34 33
18 19 36 35
19 20 37 36
20 21 38 37
21 22 39 38
22 23 40 39
23 24 41 40
24 25 42 41
25 26 43 42
26 27 44 43
27 28 45 44
28 29 46 45
29 30 47 46
30 31 48 47
31 32 49 48
32 33 50 49
33 34 51 50
35 36 53 52
36 37 54 53
37 38 55 54
38 39 56 55
39 40 57 56
40 41 58 57
41 42 59 58
42 43 60 59
43 44 61 60
44 45 62 61
45 46 63 62
46 47 64 63
47 48 65 64
48 49 66 65
49 50 67 66
50 51 68 67
52 53 70 69
53 54 71 70
54 55 72 71
55 56 73 72
56 57 74 73
57 58 75 74
58 59 76 75
59 60 77 76
60 61 78 77
61 62 79 78
62 63 80 79
63 64 81 80
64 65 82 81
65 66 83 82
66 67 84 83
67 68 85 84
69 70 87 86
70 71 88 87
71 72 89 88
72 73 90 89
73 74 91 90
74 75 92 91
75 76 93 92
76 77 94 93
77 78 95 94
78 79 96 95
79 80 97 96
80 81 98 97
81 82 99 98
82 83 100 99
83 84 101 100
84 85 102 101
86 87 104 103
87 88 105 104
88 89 106 105
89 90 107 106
90 91 108 107
91 92 109 108
92 93 110 109
93 94 111 110
94 95 112 111
95 96 113 112
96 97 114 113
97 98 115 114
98 99 116 115
99 100 117 116
100 101 118 117
101 102 119 118
103 104 121 120
104 105 122 121
105 106 123 122
106 107 124 123
107 108 125 124
108 109 126 125
109 110 127 126
110 111 128 127
111 112 129 128
112 113 130 129
113 114 131 130
114 115 132 131
115 116 133 132
116 117 134 133
117 118 135 134
118 119 136 135
120 121 138 137
121 122 139 138
122 123 140 139
123 124 141 140
124 125 142 141
125 126 143 142
126 127 144 143
127 128 145 144
128 129 146 145
129 130 147 146
130 131 148 147
131 132 149 148
132 133 150 149
133 134 151 150
134 135 152 151
135 136 153 152
