TITLE = "Solution"
VARIABLES = x, y, u, v, psiu, psiv, t, stress
ZONE T="structure" N=153 E=128 F=FEBLOCK ET=QUADRILATERAL VARLOCATION=([7,8]=cellcentered)
0.000000e+00
1.250000e+01
2.500000e+01
3.750000e+01
5.000000e+01
6.250000e+01
7.500000e+01
8.750000e+01
1.000000e+02
1.125000e+02
1.250000e+02
1.375000e+02
1.500000e+02
1.625000e+02
1.750000e+02
1.875000e+02
2.000000e+02
0.000000e+00
1.250000e+01
2.500000e+01
3.750000e+01
5.000000e+01
6.250000e+01
7.500000e+01
8.750000e+01
1.000000e+02
1.125000e+02
1.250000e+02
1.375000e+02
1.500000e+02
1.625000e+02
1.750000e+02
1.875000e+02
2.000000e+02
0.000000e+00
1.250000e+01
2.500000e+01
3.750000e+01
5.000000e+01
6.250000e+01
7.500000e+01
8.750000e+01
1.000000e+02
1.125000e+02
1.250000e+02
1.375000e+02
1.500000e+02
1.625000e+02
1.750000e+02
1.875000e+02
2.000000e+02
0.000000e+00
1.250000e+01
2.500000e+01
3.750000e+01
5.000000e+01
6.250000e+01
7.500000e+01
8.750000e+01
1.000000e+02
1.125000e+02
1.250000e+02
1.375000e+02
1.500000e+02
1.625000e+02
1.750000e+02
1.875000e+02
2.000000e+02
0.000000e+00
1.250000e+01
2.500000e+01
3.750000e+01
5.000000e+01
6.250000e+01
7.500000e+01
8.750000e+01
1.000000e+02
1.125000e+02
1.250000e+02
1.375000e+02
1.500000e+02
1.625000e+02
1.750000e+02
1.875000e+02
2.000000e+02
0.000000e+00
1.250000e+01
2.500000e+01
3.750000e+01
5.000000e+01
6.250000e+01
7.500000e+01
8.750000e+01
1.000000e+02
1.125000e+02
1.250000e+02
1.375000e+02
1.500000e+02
1.625000e+02
1.750000e+02
1.875000e+02
2.000000e+02
0.000000e+00
1.250000e+01
2.500000e+01
3.750000e+01
5.000000e+01
6.250000e+01
7.500000e+01
8.750000e+01
1.000000e+02
1.125000e+02
1.250000e+02
1.375000e+02
1.500000e+02
1.625000e+02
1.750000e+02
1.875000e+02
2.000000e+02
0.000000e+00
1.250000e+01
2.500000e+01
3.750000e+01
5.000000e+01
6.250000e+01
7.500000e+01
8.750000e+01
1.000000e+02
1.125000e+02
1.250000e+02
1.375000e+02
1.500000e+02
1.625000e+02
1.750000e+02
1.875000e+02
2.000000e+02
0.000000e+00
1.250000e+01
2.500000e+01
3.750000e+01
5.000000e+01
6.250000e+01
7.500000e+01
8.750000e+01
1.000000e+02
1.125000e+02
1.250000e+02
1.375000e+02
1.500000e+02
1.625000e+02
1.750000e+02
1.875000e+02
2.000000e+02
0.000000e+00
0.000000e+00
0.000000e+00
0.000000e+00
0.000000e+00
0.000000e+00
0.000000e+00
0.000000e+00
0.000000e+00
0.000000e+00
0.000000e+00
0.000000e+00
0.000000e+00
0.000000e+00
0.000000e+00
0.000000e+00
0.000000e+00
1.250000e+01
1.250000e+01
1.250000e+01
1.250000e+01
1.250000e+01
1.250000e+01
1.250000e+01
1.250000e+01
1.250000e+01
1.250000e+01
1.250000e+01
1.250000e+01
1.250000e+01
1.250000e+01
1.250000e+01
1.250000e+01
1.250000e+01
2.500000e+01
2.500000e+01
2.500000e+01
2.500000e+01
2.500000e+01
2.500000e+01
2.500000e+01
2.500000e+01
2.500000e+01
2.500000e+01
2.500000e+01
2.500000e+01
2.500000e+01
2.500000e+01
2.500000e+01
2.500000e+01
2.500000e+01
3.750000e+01
3.750000e+01
3.750000e+01
3.750000e+01
3.750000e+01
3.750000e+01
3.750000e+01
3.750000e+01
3.750000e+01
3.750000e+01
3.750000e+01
3.750000e+01
3.750000e+01
3.750000e+01
3.750000e+01
3.750000e+01
3.750000e+01
5.000000e+01
5.000000e+01
5.000000e+01
5.000000e+01
5.000000e+01
5.000000e+01
5.000000e+01
5.000000e+01
5.000000e+01
5.000000e+01
5.000000e+01
5.000000e+01
5.000000e+01
5.000000e+01
5.000000e+01
5.000000e+01
5.000000e+01
6.250000e+01
6.250000e+01
6.250000e+01
6.250000e+01
6.250000e+01
6.250000e+01
6.250000e+01
6.250000e+01
6.250000e+01
6.250000e+01
6.250000e+01
6.250000e+01
6.250000e+01
6.250000e+01
6.250000e+01
6.250000e+01
6.250000e+01
7.500000e+01
7.500000e+01
7.500000e+01
7.500000e+01
7.500000e+01
7.500000e+01
7.500000e+01
7.500000e+01
7.500000e+01
7.500000e+01
7.500000e+01
7.500000e+01
7.500000e+01
7.500000e+01
7.500000e+01
7.500000e+01
7.500000e+01
8.750000e+01
8.750000e+01
8.750000e+01
8.750000e+01
8.750000e+01
8.750000e+01
8.750000e+01
8.750000e+01
8.750000e+01
8.750000e+01
8.750000e+01
8.750000e+01
8.750000e+01
8.750000e+01
8.750000e+01
8.750000e+01
8.750000e+01
1.000000e+02
1.000000e+02
1.000000e+02
1.000000e+02
1.000000e+02
1.000000e+02
1.000000e+02
1.000000e+02
1.000000e+02
1.000000e+02
1.000000e+02
1.000000e+02
1.000000e+02
1.000000e+02
1.000000e+02
1.000000e+02
1.000000e+02
0.000000e+00
-9.157267e-01
-1.602692e+00
-2.302999e+00
-2.990222e+00
-3.648538e+00
-4.322723e+00
-4.991311e+00
-5.652149e+00
-6.315908e+00
-6.981183e+00
-7.664353e+00
-8.379525e+00
-9.113739e+00
-9.852697e+00
-1.054137e+01
-1.098788e+01
0.000000e+00
-4.528355e-01
-9.372338e-01
-1.439654e+00
-1.956573e+00
-2.448921e+00
-2.953083e+00
-3.456105e+00
-3.951702e+00
-4.447554e+00
-4.940527e+00
-5.435528e+00
-5.932114e+00
-6.394716e+00
-6.726940e+00
-6.810409e+00
-6.975517e+00
0.000000e+00
-2.065635e-01
-4.561025e-01
-7.664572e-01
-1.105435e+00
-1.436765e+00
-1.779445e+00
-2.121403e+00
-2.458465e+00
-2.791935e+00
-3.114164e+00
-3.416012e+00
-3.678002e+00
-3.860043e+00
-3.910296e+00
-3.887126e+00
-4.040047e+00
0.000000e+00
-9.027304e-02
-1.943205e-01
-3.380206e-01
-4.924925e-01
-6.603889e-01
-8.317439e-01
-1.001050e+00
-1.166947e+00
-1.324015e+00
-1.463507e+00
-1.571236e+00
-1.627631e+00
-1.615726e+00
-1.553156e+00
-1.551256e+00
-1.681290e+00
0.000000e+00
-1.452047e-03
-2.906174e-03
-4.082257e-03
-4.542191e-03
-3.560925e-03
-6.301368e-05
7.797619e-03
2.262837e-02
4.784827e-02
8.915897e-02
1.545908e-01
2.496638e-01
3.663606e-01
4.618301e-01
4.696215e-01
3.665118e-01
0.000000e+00
8.779284e-02
1.894413e-01
3.309016e-01
4.842657e-01
6.532441e-01
8.298323e-01
1.011729e+00
1.201632e+00
1.400439e+00
1.608835e+00
1.823421e+00
2.033585e+00
2.216981e+00
2.336568e+00
2.359021e+00
2.299655e+00
0.000000e+00
2.054124e-01
4.536824e-01
7.627211e-01
1.100544e+00
1.431255e+00
1.775312e+00
2.122219e+00
2.468019e+00
2.818358e+00
3.172194e+00
3.517973e+00
3.829277e+00
4.075410e+00
4.230373e+00
4.283361e+00
4.269101e+00
0.000000e+00
4.529932e-01
9.371184e-01
1.439218e+00
1.955694e+00
2.446248e+00
2.948128e+00
3.448635e+00
3.935661e+00
4.418443e+00
4.900150e+00
5.364706e+00
5.769421e+00
6.072955e+00
6.260018e+00
6.340950e+00
6.355954e+00
0.000000e+00
9.168939e-01
1.604774e+00
2.306394e+00
2.995178e+00
3.653288e+00
4.325894e+00
4.991167e+00
5.637861e+00
6.276659e+00
6.909563e+00
7.508114e+00
8.005752e+00
8.343800e+00
8.511848e+00
8.553353e+00
8.552217e+00
0.000000e+00
-5.688088e-01
-1.216649e+00
-2.078379e+00
-3.108837e+00
-4.306636e+00
-5.684003e+00
-7.232336e+00
-8.953256e+00
-1.084983e+01
-1.292217e+01
-1.517847e+01
-1.762768e+01
-2.027425e+01
-2.315676e+01
-2.647989e+01
-3.138343e+01
0.000000e+00
-3.698847e-01
-1.048887e+00
-1.897570e+00
-2.934471e+00
-4.132546e+00
-5.508001e+00
-7.058670e+00
-8.780678e+00
-1.067803e+01
-1.275050e+01
-1.500422e+01
-1.745359e+01
-2.011710e+01
-2.303913e+01
-2.638105e+01
-3.041713e+01
0.000000e+00
-3.248432e-01
-9.439474e-01
-1.784385e+00
-2.812766e+00
-4.009314e+00
-5.384609e+00
-6.936148e+00
-8.661060e+00
-1.056303e+01
-1.264274e+01
-1.490758e+01
-1.737445e+01
-2.007114e+01
-2.303113e+01
-2.620696e+01
-2.918642e+01
0.000000e+00
-3.477195e-01
-9.199873e-01
-1.736391e+00
-2.746074e+00
-3.939777e+00
-5.315247e+00
-6.868278e+00
-8.598662e+00
-1.050942e+01
-1.260400e+01
-1.488970e+01
-1.737700e+01
-2.007891e+01
-2.297812e+01
-2.587900e+01
-2.840855e+01
0.000000e+00
-3.571258e-01
-9.237950e-01
-1.724052e+00
-2.729227e+00
-3.921236e+00
-5.298997e+00
-6.856427e+00
-8.593281e+00
-1.051324e+01
-1.262224e+01
-1.492476e+01
-1.741713e+01
-2.008242e+01
-2.284897e+01
-2.552719e+01
-2.781398e+01
0.000000e+00
-3.476422e-01
-9.207686e-01
-1.739041e+00
-2.752091e+00
-3.950533e+00
-5.332914e+00
-6.896381e+00
-8.638971e+00
-1.056373e+01
-1.267897e+01
-1.498649e+01
-1.746747e+01
-2.007527e+01
-2.271676e+01
-2.523466e+01
-2.741698e+01
0.000000e+00
-3.248107e-01
-9.452852e-01
-1.788661e+00
-2.822447e+00
-4.026825e+00
-5.413559e+00
-6.982196e+00
-8.727387e+00
-1.065278e+01
-1.276657e+01
-1.506904e+01
-1.752992e+01
-2.008304e+01
-2.263081e+01
-2.505238e+01
-2.723031e+01
0.000000e+00
-3.699103e-01
-1.050340e+00
-1.902230e+00
-2.945019e+00
-4.151928e+00
-5.540422e+00
-7.109786e+00
-8.854395e+00
-1.077884e+01
-1.288894e+01
-1.518073e+01
-1.761705e+01
-2.012447e+01
-2.260818e+01
-2.497451e+01
-2.718629e+01
0.000000e+00
-5.690464e-01
-1.218274e+00
-2.083339e+00
-3.119524e+00
-4.325977e+00
-5.716471e+00
-7.282338e+00
-9.023709e+00
-1.094682e+01
-1.305313e+01
-1.532919e+01
-1.773190e+01
-2.019248e+01
-2.262732e+01
-2.496002e+01
-2.718732e+01


0.000000e+00
1.393689e-05
2.434656e-05
3.604628e-05
5.052834e-05
6.369859e-05
7.665104e-05
9.024475e-05
1.032301e-04
1.157195e-04
1.284504e-04
1.408871e-04
1.505403e-04
1.566646e-04
1.606547e-04
1.641847e-04
1.683684e-04
0.000000e+00
1.026827e-05
1.949928e-05
2.810345e-05
3.978524e-05
5.009010e-05
5.947163e-05
6.978332e-05
7.957583e-05
8.853432e-05
9.772431e-05
1.062646e-04
1.116243e-04
1.129000e-04
1.127949e-04
1.157225e-04
1.204554e-04
0.000000e+00
8.232848e-06
1.471034e-05
2.052200e-05
2.857937e-05
3.539754e-05
4.152330e-05
4.823938e-05
5.440078e-05
5.979574e-05
6.486425e-05
6.890426e-05
7.072144e-05
7.029814e-05
7.011917e-05
7.286153e-05
7.753596e-05
0.000000e+00
4.306751e-06
6.977861e-06
1.058405e-05
1.425725e-05
1.736406e-05
2.062059e-05
2.370148e-05
2.639157e-05
2.867690e-05
3.021703e-05
3.089470e-05
3.079284e-05
3.077013e-05
3.162374e-05
3.442975e-05
3.872611e-05
0.000000e+00
-3.687620e-08
-8.458097e-08
-1.410009e-07
-2.082739e-07
-2.874916e-07
-3.785022e-07
-5.051096e-07
-7.080435e-07
-1.075295e-06
-1.800458e-06
-2.841185e-06
-3.910881e-06
-4.320397e-06
-3.437371e-06
-1.679654e-06
7.694743e-07
0.000000e+00
-4.369512e-06
-7.114773e-06
-1.082319e-05
-1.461985e-05
-1.784390e-05
-2.124953e-05
-2.450471e-05
-2.733956e-05
-2.995364e-05
-3.220313e-05
-3.400944e-05
-3.551087e-05
-3.648597e-05
-3.704602e-05
-3.719462e-05
-3.655489e-05
0.000000e+00
-8.250220e-06
-1.476660e-05
-2.065919e-05
-2.879226e-05
-3.569577e-05
-4.196911e-05
-4.870401e-05
-5.474839e-05
-6.015091e-05
-6.481759e-05
-6.775890e-05
-6.939736e-05
-7.069572e-05
-7.179177e-05
-7.257696e-05
-7.273219e-05
0.000000e+00
-1.025291e-05
-1.948043e-05
-2.810994e-05
-3.979615e-05
-5.010345e-05
-5.958434e-05
-6.984413e-05
-7.945899e-05
-8.866339e-05
-9.733337e-05
-1.033074e-04
-1.062687e-04
-1.079498e-04
-1.089670e-04
-1.094663e-04
-1.096058e-04
0.000000e+00
-1.392909e-05
-2.429911e-05
-3.594915e-05
-5.035446e-05
-6.339791e-05
-7.626892e-05
-8.972333e-05
-1.024723e-04
-1.152171e-04
-1.278858e-04
-1.377178e-04
-1.436926e-04
-1.465346e-04
-1.474126e-04
-1.474402e-04
-1.473703e-04
0.000000e+00
1.172993e-05
1.930647e-05
3.042515e-05
4.496968e-05
6.109438e-05
8.119966e-05
1.053346e-04
1.322794e-04
1.627158e-04
1.969666e-04
2.339438e-04
2.726499e-04
3.144473e-04
3.633583e-04
4.193399e-04
4.758821e-04
0.000000e+00
6.699727e-06
1.501351e-05
2.466701e-05
3.870916e-05
5.544077e-05
7.541700e-05
9.943230e-05
1.267513e-04
1.573278e-04
1.915946e-04
2.293950e-04
2.699976e-04
3.131858e-04
3.602628e-04
4.136811e-04
4.684633e-04
0.000000e+00
3.334525e-06
1.100074e-05
2.026900e-05
3.374072e-05
5.099136e-05
7.121282e-05
9.514918e-05
1.228322e-04
1.537453e-04
1.882267e-04
2.266865e-04
2.685773e-04
3.125847e-04
3.564042e-04
4.060069e-04
4.586458e-04
0.000000e+00
2.093923e-06
8.895056e-06
1.836569e-05
3.175474e-05
4.906422e-05
6.950153e-05
9.356414e-05
1.213855e-04
1.526301e-04
1.873887e-04
2.257833e-04
2.679247e-04
3.117347e-04
3.533494e-04
3.982665e-04
4.469798e-04
0.000000e+00
1.744726e-06
8.268417e-06
1.778773e-05
3.125629e-05
4.845328e-05
6.897022e-05
9.314018e-05
1.210018e-04
1.524665e-04
1.874708e-04
2.257388e-04
2.676409e-04
3.115039e-04
3.522878e-04
3.933397e-04
4.370751e-04
0.000000e+00
2.122206e-06
8.924647e-06
1.839054e-05
3.175990e-05
4.900835e-05
6.941211e-05
9.347792e-05
1.212771e-04
1.527782e-04
1.881094e-04
2.266655e-04
2.684221e-04
3.115966e-04
3.527333e-04
3.921463e-04
4.315176e-04
0.000000e+00
3.377332e-06
1.104914e-05
2.031832e-05
3.375716e-05
5.090068e-05
7.106975e-05
9.496913e-05
1.225621e-04
1.539671e-04
1.895614e-04
2.285127e-04
2.698616e-04
3.120584e-04
3.527877e-04
3.917658e-04
4.295742e-04
0.000000e+00
6.744003e-06
1.508094e-05
2.473918e-05
3.874654e-05
5.538226e-05
7.527002e-05
9.918280e-05
1.264351e-04
1.575146e-04
1.927863e-04
2.310354e-04
2.712372e-04
3.124550e-04
3.527045e-04
3.915476e-04
4.293401e-04
0.000000e+00
1.177123e-05
1.937926e-05
3.050991e-05
4.501421e-05
6.106556e-05
8.108701e-05
1.050498e-04
1.320035e-04
1.629769e-04
1.975569e-04
2.340442e-04
2.726670e-04
3.128667e-04
3.527440e-04
3.914674e-04
4.293986e-04


3.019015e+00
2.894727e+00
2.947978e+00
2.889728e+00
2.890613e+00
3.140443e+00
3.370692e+00
3.681542e+00
4.124896e+00
4.688997e+00
5.508313e+00
6.469292e+00
7.161544e+00
7.114642e+00
6.114045e+00
5.113848e+00
4.790027e+00
4.666532e+00
4.637757e+00
4.566184e+00
4.525892e+00
4.681195e+00
4.826154e+00
5.021138e+00
5.312745e+00
5.685962e+00
6.225047e+00
6.860658e+00
7.281060e+00
6.968621e+00
5.719265e+00
4.468607e+00
6.786034e+00
6.717718e+00
6.682448e+00
6.599164e+00
6.561471e+00
6.613422e+00
6.647361e+00
6.703232e+00
6.795283e+00
6.903078e+00
7.062300e+00
7.259372e+00
7.349112e+00
6.919571e+00
5.746677e+00
4.691455e+00
7.711345e+00
7.683412e+00
7.661513e+00
7.605427e+00
7.583868e+00
7.581857e+00
7.562798e+00
7.539358e+00
7.505765e+00
7.443146e+00
7.356267e+00
7.278055e+00
7.221085e+00
6.978662e+00
6.400150e+00
5.889014e+00
7.710566e+00
7.681566e+00
7.658102e+00
7.599820e+00
7.574908e+00
7.568055e+00
7.540989e+00
7.499384e+00
7.435711e+00
7.340922e+00
7.218230e+00
7.111413e+00
7.101290e+00
7.127638e+00
7.077399e+00
6.995610e+00
6.782971e+00
6.711186e+00
6.670188e+00
6.579421e+00
6.530462e+00
6.569540e+00
6.583285e+00
6.592017e+00
6.632403e+00
6.727745e+00
6.867070e+00
7.009610e+00
7.179871e+00
7.381477e+00
7.540931e+00
7.618580e+00
4.786113e+00
4.657491e+00
4.621910e+00
4.541352e+00
4.487678e+00
4.633925e+00
4.765758e+00
4.924552e+00
5.236905e+00
5.751817e+00
6.395176e+00
6.961415e+00
7.358022e+00
7.633236e+00
7.810493e+00
7.892048e+00
3.016759e+00
2.888348e+00
2.937143e+00
2.874657e+00
2.868150e+00
3.120752e+00
3.361069e+00
3.673279e+00
4.224234e+00
5.080893e+00
6.102187e+00
6.953668e+00
7.482713e+00
7.774029e+00
7.925222e+00
7.988266e+00


-6.453938e-01
-2.175221e-01
-2.673442e-01
-2.715280e-01
-1.650401e-01
-2.210361e-01
-2.095084e-01
-1.812802e-01
-1.894273e-01
-1.883603e-01
-2.281946e-01
-2.913652e-01
-2.436289e-01
1.713394e-02
4.707406e-01
-7.315725e-01
5.626644e-01
4.204843e-01
3.214270e-01
2.555091e-01
3.005408e-01
2.542619e-01
2.440983e-01
2.503157e-01
2.416409e-01
2.538613e-01
2.815269e-01
3.518967e-01
5.247524e-01
7.695136e-01
7.368080e-01
-1.189692e+00
8.059302e-01
6.404340e-01
4.669351e-01
4.092390e-01
3.980223e-01
3.651447e-01
3.599087e-01
3.623623e-01
3.665478e-01
3.898133e-01
4.302415e-01
4.825566e-01
5.045466e-01
3.865680e-01
1.375895e-01
-3.029627e-01
8.461301e-01
7.053861e-01
5.222316e-01
4.296857e-01
3.811764e-01
3.578985e-01
3.547478e-01
3.587240e-01
3.627548e-01
3.588953e-01
3.327357e-01
2.618564e-01
1.064126e-01
-1.126303e-01
-1.135410e-01
1.996165e-02
8.471694e-01
7.066554e-01
5.234055e-01
4.285162e-01
3.756947e-01
3.441332e-01
3.267622e-01
3.112707e-01
2.864983e-01
2.351137e-01
1.458144e-01
2.222520e-02
-1.128217e-01
-1.526341e-01
5.511353e-02
4.342882e-01
8.083417e-01
6.435805e-01
4.702012e-01
4.087447e-01
3.898971e-01
3.410491e-01
3.070808e-01
2.699943e-01
2.090462e-01
1.209995e-01
1.929067e-02
-4.930529e-02
-3.166593e-02
1.314795e-01
4.470652e-01
8.013918e-01
5.642028e-01
4.226676e-01
3.232375e-01
2.556957e-01
2.988416e-01
2.438141e-01
2.166343e-01
2.071334e-01
1.578857e-01
8.230743e-02
2.885832e-02
8.097276e-02
2.559534e-01
5.133218e-01
7.853573e-01
9.643873e-01
-6.481406e-01
-2.188662e-01
-2.695668e-01
-2.741789e-01
-1.618824e-01
-2.151954e-01
-2.012311e-01
-1.429194e-01
-1.280336e-01
-1.283174e-01
-4.859133e-02
2.116633e-01
5.616153e-01
8.318884e-01
9.662759e-01
9.993103e-01
1 2 19 18
2 3 20 19
3 4 21 20
4 5 22 21
5 6 23 22
6 7 24 23
7 8 25 24
8 9 26 25
9 10 27 26
10 11 28 27
11 12 29 28
12 13 30 29
13 14 31 30
14 15 32 31
15 16 33 32
16 17 34 33
18 19 36 35
19 20 37 36
20 21 38 37
21 22 39 38
22 23 40 39
23 24 41 40
24 25 42 41
25 26 43 42
26 27 44 43
27 28 45 44
28 29 46 45
29 30 47 46
30 31 48 47
31 32 49 48
32 33 50 49
33 34 51 50
35 36 53 52
36 37 54 53
37 38 55 54
38 39 56 55
39 40 57 56
40 41 58 57
41 42 59 58
42 43 60 59
43 44 61 60
44 45 62 61
45 46 63 62
46 47 64 63
47 48 65 64
48 49 66 65
49 50 67 66
50 51 68 67
52 53 70 69
53 54 71 70
54 55 72 71
55 56 73 72
56 57 74 73
57 58 75 74
58 59 76 75
59 60 77 76
60 61 78 77
61 62 79 78
62 63 80 79
63 64 81 80
64 65 82 81
65 66 83 82
66 67 84 83
67 68 85 84
69 70 87 86
70 71 88 87
71 72 89 88
72 73 90 89
73 74 91 90
74 75 92 91
75 76 93 92
76 77 94 93
77 78 95 94
78 79 96 95
79 80 97 96
80 81 98 97
81 82 99 98
82 83 100 99
83 84 101 100
84 85 102 101
86 87 104 103
87 88 105 104
88 89 106 105
89 90 107 106
90 91 108 107
91 92 109 108
92 93 110 109
93 94 111 110
94 95 112 111
95 96 113 112
96 97 114 113
97 98 115 114
98 99 116 115
99 100 117 116
100 101 118 117
101 102 119 118
103 104 121 120
104 105 122 121
105 106 123 122
106 107 124 123
107 108 125 124
108 109 126 125
109 110 127 126
110 111 128 127
111 112 129 128
112 113 130 129
113 114 131 130
114 115 132 131
115 116 133 132
116 117 134 133
117 118 135 134
118 119 136 135
120 121 138 137
121 122 139 138
122 123 140 139
123 124 141 140
124 125 142 141
125 126 143 142
126 127 144 143
127 128 145 144
128 129 146 145
129 130 147 146
130 131 148 147
131 132 149 148
132 133 150 149
133 134 151 150
134 135 152 151
135 136 153 152
