TITLE = "Solution"
VARIABLES = x, y, u, v, psiu, psiv, t, stress
ZONE T="structure" N=153 E=128 F=FEBLOCK ET=QUADRILATERAL VARLOCATION=([7,8]=cellcentered)
0.000000e+00
1.250000e+01
2.500000e+01
3.750000e+01
5.000000e+01
6.250000e+01
7.500000e+01
8.750000e+01
1.000000e+02
1.125000e+02
1.250000e+02
1.375000e+02
1.500000e+02
1.625000e+02
1.750000e+02
1.875000e+02
2.000000e+02
0.000000e+00
1.250000e+01
2.500000e+01
3.750000e+01
5.000000e+01
6.250000e+01
7.500000e+01
8.750000e+01
1.000000e+02
1.125000e+02
1.250000e+02
1.375000e+02
1.500000e+02
1.625000e+02
1.750000e+02
1.875000e+02
2.000000e+02
0.000000e+00
1.250000e+01
2.500000e+01
3.750000e+01
5.000000e+01
6.250000e+01
7.500000e+01
8.750000e+01
1.000000e+02
1.125000e+02
1.250000e+02
1.375000e+02
1.500000e+02
1.625000e+02
1.750000e+02
1.875000e+02
2.000000e+02
0.000000e+00
1.250000e+01
2.500000e+01
3.750000e+01
5.000000e+01
6.250000e+01
7.500000e+01
8.750000e+01
1.000000e+02
1.125000e+02
1.250000e+02
1.375000e+02
1.500000e+02
1.625000e+02
1.750000e+02
1.875000e+02
2.000000e+02
0.000000e+00
1.250000e+01
2.500000e+01
3.750000e+01
5.000000e+01
6.250000e+01
7.500000e+01
8.750000e+01
1.000000e+02
1.125000e+02
1.250000e+02
1.375000e+02
1.500000e+02
1.625000e+02
1.750000e+02
1.875000e+02
2.000000e+02
0.000000e+00
1.250000e+01
2.500000e+01
3.750000e+01
5.000000e+01
6.250000e+01
7.500000e+01
8.750000e+01
1.000000e+02
1.125000e+02
1.250000e+02
1.375000e+02
1.500000e+02
1.625000e+02
1.750000e+02
1.875000e+02
2.000000e+02
0.000000e+00
1.250000e+01
2.500000e+01
3.750000e+01
5.000000e+01
6.250000e+01
7.500000e+01
8.750000e+01
1.000000e+02
1.125000e+02
1.250000e+02
1.375000e+02
1.500000e+02
1.625000e+02
1.750000e+02
1.875000e+02
2.000000e+02
0.000000e+00
1.250000e+01
2.500000e+01
3.750000e+01
5.000000e+01
6.250000e+01
7.500000e+01
8.750000e+01
1.000000e+02
1.125000e+02
1.250000e+02
1.375000e+02
1.500000e+02
1.625000e+02
1.750000e+02
1.875000e+02
2.000000e+02
0.000000e+00
1.250000e+01
2.500000e+01
3.750000e+01
5.000000e+01
6.250000e+01
7.500000e+01
8.750000e+01
1.000000e+02
1.125000e+02
1.250000e+02
1.375000e+02
1.500000e+02
1.625000e+02
1.750000e+02
1.875000e+02
2.000000e+02
0.000000e+00
0.000000e+00
0.000000e+00
0.000000e+00
0.000000e+00
0.000000e+00
0.000000e+00
0.000000e+00
0.000000e+00
0.000000e+00
0.000000e+00
0.000000e+00
0.000000e+00
0.000000e+00
0.000000e+00
0.000000e+00
0.000000e+00
1.250000e+01
1.250000e+01
1.250000e+01
1.250000e+01
1.250000e+01
1.250000e+01
1.250000e+01
1.250000e+01
1.250000e+01
1.250000e+01
1.250000e+01
1.250000e+01
1.250000e+01
1.250000e+01
1.250000e+01
1.250000e+01
1.250000e+01
2.500000e+01
2.500000e+01
2.500000e+01
2.500000e+01
2.500000e+01
2.500000e+01
2.500000e+01
2.500000e+01
2.500000e+01
2.500000e+01
2.500000e+01
2.500000e+01
2.500000e+01
2.500000e+01
2.500000e+01
2.500000e+01
2.500000e+01
3.750000e+01
3.750000e+01
3.750000e+01
3.750000e+01
3.750000e+01
3.750000e+01
3.750000e+01
3.750000e+01
3.750000e+01
3.750000e+01
3.750000e+01
3.750000e+01
3.750000e+01
3.750000e+01
3.750000e+01
3.750000e+01
3.750000e+01
5.000000e+01
5.000000e+01
5.000000e+01
5.000000e+01
5.000000e+01
5.000000e+01
5.000000e+01
5.000000e+01
5.000000e+01
5.000000e+01
5.000000e+01
5.000000e+01
5.000000e+01
5.000000e+01
5.000000e+01
5.000000e+01
5.000000e+01
6.250000e+01
6.250000e+01
6.250000e+01
6.250000e+01
6.250000e+01
6.250000e+01
6.250000e+01
6.250000e+01
6.250000e+01
6.250000e+01
6.250000e+01
6.250000e+01
6.250000e+01
6.250000e+01
6.250000e+01
6.250000e+01
6.250000e+01
7.500000e+01
7.500000e+01
7.500000e+01
7.500000e+01
7.500000e+01
7.500000e+01
7.500000e+01
7.500000e+01
7.500000e+01
7.500000e+01
7.500000e+01
7.500000e+01
7.500000e+01
7.500000e+01
7.500000e+01
7.500000e+01
7.500000e+01
8.750000e+01
8.750000e+01
8.750000e+01
8.750000e+01
8.750000e+01
8.750000e+01
8.750000e+01
8.750000e+01
8.750000e+01
8.750000e+01
8.750000e+01
8.750000e+01
8.750000e+01
8.750000e+01
8.750000e+01
8.750000e+01
8.750000e+01
1.000000e+02
1.000000e+02
1.000000e+02
1.000000e+02
1.000000e+02
1.000000e+02
1.000000e+02
1.000000e+02
1.000000e+02
1.000000e+02
1.000000e+02
1.000000e+02
1.000000e+02
1.000000e+02
1.000000e+02
1.000000e+02
1.000000e+02
0.000000e+00
-9.768629e-01
-1.667925e+00
-2.407780e+00
-3.088017e+00
-3.740151e+00
-4.427182e+00
-5.078066e+00
-5.736961e+00
-6.388195e+00
-7.048773e+00
-7.701447e+00
-8.382034e+00
-9.166041e+00
-1.005043e+01
-1.079208e+01
-1.124363e+01
0.000000e+00
-4.444231e-01
-9.147004e-01
-1.421752e+00
-1.935044e+00
-2.420459e+00
-2.932358e+00
-3.432994e+00
-3.926377e+00
-4.427700e+00
-4.926928e+00
-5.418801e+00
-5.911204e+00
-6.432103e+00
-6.869580e+00
-6.984736e+00
-7.161764e+00
0.000000e+00
-1.571870e-01
-3.705473e-01
-6.638334e-01
-1.003627e+00
-1.330208e+00
-1.684018e+00
-2.034888e+00
-2.380744e+00
-2.734153e+00
-3.074589e+00
-3.398648e+00
-3.687134e+00
-3.914404e+00
-4.007359e+00
-3.999004e+00
-4.149051e+00
0.000000e+00
-8.002716e-02
-1.665270e-01
-3.113299e-01
-4.561842e-01
-6.304326e-01
-8.071319e-01
-9.794214e-01
-1.157138e+00
-1.322422e+00
-1.480528e+00
-1.612306e+00
-1.693478e+00
-1.693909e+00
-1.622755e+00
-1.608490e+00
-1.731269e+00
0.000000e+00
-2.621938e-03
-5.653651e-03
-8.511662e-03
-1.093747e-02
-1.194701e-02
-1.023868e-02
-4.602886e-03
6.255659e-03
2.566208e-02
5.544829e-02
1.060443e-01
1.903616e-01
3.059843e-01
4.209010e-01
4.527280e-01
3.531084e-01
0.000000e+00
7.554694e-02
1.574234e-01
2.965405e-01
4.368613e-01
6.084870e-01
7.879110e-01
9.700615e-01
1.169773e+00
1.370481e+00
1.586511e+00
1.811347e+00
2.031171e+00
2.225101e+00
2.356842e+00
2.388036e+00
2.323569e+00
0.000000e+00
1.554905e-01
3.668275e-01
6.572063e-01
9.930041e-01
1.317649e+00
1.671270e+00
2.027977e+00
2.394139e+00
2.778662e+00
3.152943e+00
3.523734e+00
3.859867e+00
4.124548e+00
4.292661e+00
4.347745e+00
4.327631e+00
0.000000e+00
4.446661e-01
9.154395e-01
1.422396e+00
1.933833e+00
2.419020e+00
2.928464e+00
3.422205e+00
3.912698e+00
4.403964e+00
4.880056e+00
5.354719e+00
5.792428e+00
6.131106e+00
6.342321e+00
6.434653e+00
6.451217e+00
0.000000e+00
9.779357e-01
1.671790e+00
2.414793e+00
3.097556e+00
3.753480e+00
4.441972e+00
5.080172e+00
5.720101e+00
6.329184e+00
6.917138e+00
7.512189e+00
8.048790e+00
8.438895e+00
8.638834e+00
8.692839e+00
8.693603e+00
0.000000e+00
-6.086229e-01
-1.335322e+00
-2.309751e+00
-3.456783e+00
-4.774655e+00
-6.275338e+00
-7.936868e+00
-9.768906e+00
-1.176910e+01
-1.393276e+01
-1.625804e+01
-1.876290e+01
-2.148331e+01
-2.443439e+01
-2.779840e+01
-3.281033e+01
0.000000e+00
-4.051741e-01
-1.166764e+00
-2.125318e+00
-3.286107e+00
-4.599229e+00
-6.098863e+00
-7.765903e+00
-9.595734e+00
-1.159805e+01
-1.376234e+01
-1.609050e+01
-1.858479e+01
-2.129674e+01
-2.430022e+01
-2.771090e+01
-3.177234e+01
0.000000e+00
-3.755046e-01
-1.065494e+00
-2.019795e+00
-3.165196e+00
-4.475435e+00
-5.975001e+00
-7.640228e+00
-9.474578e+00
-1.147856e+01
-1.365286e+01
-1.599187e+01
-1.849909e+01
-2.123634e+01
-2.429279e+01
-2.755375e+01
-3.058173e+01
0.000000e+00
-4.280276e-01
-1.058239e+00
-1.989992e+00
-3.099290e+00
-4.408370e+00
-5.906298e+00
-7.568442e+00
-9.413572e+00
-1.142309e+01
-1.361386e+01
-1.597615e+01
-1.850846e+01
-2.124374e+01
-2.423048e+01
-2.724066e+01
-2.984238e+01
0.000000e+00
-4.367948e-01
-1.076543e+00
-1.974840e+00
-3.087214e+00
-4.391490e+00
-5.889555e+00
-7.560138e+00
-9.409208e+00
-1.143318e+01
-1.363338e+01
-1.601317e+01
-1.855193e+01
-2.124623e+01
-2.408320e+01
-2.687895e+01
-2.924163e+01
0.000000e+00
-4.268874e-01
-1.058139e+00
-1.992351e+00
-3.106094e+00
-4.421912e+00
-5.931320e+00
-7.604068e+00
-9.467012e+00
-1.149581e+01
-1.369525e+01
-1.606794e+01
-1.859293e+01
-2.123748e+01
-2.394515e+01
-2.656417e+01
-2.881408e+01
0.000000e+00
-3.740478e-01
-1.065454e+00
-2.023944e+00
-3.176328e+00
-4.499504e+00
-6.018698e+00
-7.705895e+00
-9.569657e+00
-1.160139e+01
-1.378457e+01
-1.613777e+01
-1.864181e+01
-2.124218e+01
-2.385855e+01
-2.636048e+01
-2.859457e+01
0.000000e+00
-4.038677e-01
-1.166691e+00
-2.129495e+00
-3.298334e+00
-4.625982e+00
-6.148068e+00
-7.842759e+00
-9.704789e+00
-1.173417e+01
-1.390510e+01
-1.624050e+01
-1.872325e+01
-2.128596e+01
-2.383744e+01
-2.627226e+01
-2.853695e+01
0.000000e+00
-6.078197e-01
-1.335837e+00
-2.314207e+00
-3.469686e+00
-4.802286e+00
-6.324135e+00
-8.012496e+00
-9.874839e+00
-1.189497e+01
-1.406256e+01
-1.639062e+01
-1.884666e+01
-2.136505e+01
-2.386208e+01
-2.625671e+01
-2.853597e+01


0.000000e+00
1.513033e-05
2.493839e-05
3.702931e-05
5.252561e-05
6.580803e-05
8.048180e-05
9.532734e-05
1.092149e-04
1.244632e-04
1.393416e-04
1.535852e-04
1.711194e-04
1.846963e-04
1.918182e-04
1.966262e-04
2.031210e-04
0.000000e+00
1.125284e-05
1.978343e-05
2.850069e-05
4.126059e-05
5.184821e-05
6.224560e-05
7.353359e-05
8.368270e-05
9.467662e-05
1.047314e-04
1.142764e-04
1.256402e-04
1.329759e-04
1.326728e-04
1.361684e-04
1.419031e-04
0.000000e+00
9.417781e-06
1.529042e-05
2.095187e-05
3.028518e-05
3.724503e-05
4.374621e-05
5.120543e-05
5.725983e-05
6.368995e-05
6.910004e-05
7.344674e-05
7.777824e-05
7.873372e-05
7.745880e-05
7.983775e-05
8.419349e-05
0.000000e+00
5.143488e-06
7.261549e-06
1.075789e-05
1.512820e-05
1.763507e-05
2.125541e-05
2.432648e-05
2.643602e-05
2.875777e-05
3.007092e-05
2.978208e-05
2.844779e-05
2.663319e-05
2.668876e-05
2.981410e-05
3.531946e-05
0.000000e+00
-8.027382e-08
-2.057434e-07
-3.781431e-07
-6.165607e-07
-9.256326e-07
-1.305527e-06
-1.858864e-06
-2.623127e-06
-4.058874e-06
-6.472512e-06
-1.007212e-05
-1.302973e-05
-1.449653e-05
-1.403030e-05
-1.170017e-05
-7.976968e-06
0.000000e+00
-5.256966e-06
-7.556600e-06
-1.136127e-05
-1.612118e-05
-1.912992e-05
-2.343374e-05
-2.704018e-05
-3.029170e-05
-3.322450e-05
-3.658920e-05
-4.113467e-05
-4.511271e-05
-4.641191e-05
-4.703160e-05
-4.753145e-05
-4.617197e-05
0.000000e+00
-9.392224e-06
-1.531241e-05
-2.112980e-05
-3.069396e-05
-3.802233e-05
-4.475997e-05
-5.266219e-05
-5.853998e-05
-6.370772e-05
-6.845438e-05
-7.290183e-05
-7.684204e-05
-7.971263e-05
-8.155549e-05
-8.330030e-05
-8.397929e-05
0.000000e+00
-1.119328e-05
-1.970125e-05
-2.841330e-05
-4.118338e-05
-5.187115e-05
-6.217897e-05
-7.370910e-05
-8.384630e-05
-9.419996e-05
-1.043060e-04
-1.119065e-04
-1.172011e-04
-1.216922e-04
-1.246219e-04
-1.256461e-04
-1.257588e-04
0.000000e+00
-1.516261e-05
-2.492076e-05
-3.687680e-05
-5.216910e-05
-6.520353e-05
-7.951575e-05
-9.388336e-05
-1.079786e-04
-1.233606e-04
-1.404478e-04
-1.547533e-04
-1.639619e-04
-1.686871e-04
-1.706110e-04
-1.706798e-04
-1.704745e-04
0.000000e+00
1.250828e-05
1.996494e-05
3.209674e-05
4.764457e-05
6.435934e-05
8.614524e-05
1.117865e-04
1.410127e-04
1.754162e-04
2.136174e-04
2.571818e-04
3.073980e-04
3.598228e-04
4.200539e-04
4.893544e-04
5.604956e-04
0.000000e+00
7.537236e-06
1.598418e-05
2.603033e-05
4.122929e-05
5.852632e-05
7.979318e-05
1.056816e-04
1.349263e-04
1.691153e-04
2.077812e-04
2.509550e-04
3.010205e-04
3.562003e-04
4.157143e-04
4.822615e-04
5.503545e-04
0.000000e+00
4.112696e-06
1.201995e-05
2.120372e-05
3.562361e-05
5.355877e-05
7.500274e-05
1.008046e-04
1.303517e-04
1.647227e-04
2.035410e-04
2.471143e-04
2.975515e-04
3.545893e-04
4.121651e-04
4.748723e-04
5.404096e-04
0.000000e+00
2.837922e-06
9.938631e-06
1.915157e-05
3.335131e-05
5.147565e-05
7.309867e-05
9.910702e-05
1.288623e-04
1.629916e-04
2.020009e-04
2.462768e-04
2.971864e-04
3.533911e-04
4.097055e-04
4.671643e-04
5.262380e-04
0.000000e+00
2.389945e-06
9.375022e-06
1.871036e-05
3.281405e-05
5.092053e-05
7.256800e-05
9.864220e-05
1.285933e-04
1.623948e-04
2.010367e-04
2.469100e-04
2.978264e-04
3.535475e-04
4.086337e-04
4.609653e-04
5.111599e-04
0.000000e+00
2.941090e-06
1.008429e-05
1.933809e-05
3.350804e-05
5.154819e-05
7.304360e-05
9.885136e-05
1.287154e-04
1.622758e-04
2.014530e-04
2.488358e-04
3.003123e-04
3.538568e-04
4.086203e-04
4.587494e-04
5.014345e-04
0.000000e+00
4.248726e-06
1.225383e-05
2.152411e-05
3.587995e-05
5.370382e-05
7.476681e-05
1.002282e-04
1.294312e-04
1.632855e-04
2.035974e-04
2.520531e-04
3.037733e-04
3.555709e-04
4.076788e-04
4.565209e-04
4.986647e-04
0.000000e+00
7.656702e-06
1.624982e-05
2.640865e-05
4.159340e-05
5.871399e-05
7.965728e-05
1.049819e-04
1.334825e-04
1.673596e-04
2.080053e-04
2.555345e-04
3.067342e-04
3.573896e-04
4.074869e-04
4.549047e-04
4.991618e-04
0.000000e+00
1.262175e-05
2.022689e-05
3.247844e-05
4.803450e-05
6.456612e-05
8.605708e-05
1.111720e-04
1.395969e-04
1.738425e-04
2.143509e-04
2.595378e-04
3.088956e-04
3.584943e-04
4.076299e-04
4.544772e-04
4.994360e-04


4.795976e+00
5.043449e+00
5.444562e+00
4.740610e+00
4.213110e+00
4.321476e+00
4.432630e+00
4.654002e+00
4.917330e+00
5.310070e+00
5.749536e+00
6.753730e+00
8.265367e+00
9.056273e+00
8.283425e+00
7.109896e+00
7.238561e+00
7.411829e+00
7.484836e+00
7.205142e+00
6.835964e+00
6.918900e+00
7.003696e+00
7.060875e+00
7.244225e+00
7.400661e+00
7.614108e+00
8.110383e+00
8.832528e+00
8.997070e+00
7.594223e+00
5.776888e+00
9.203470e+00
9.183093e+00
9.253851e+00
9.080097e+00
9.035831e+00
9.060498e+00
9.048177e+00
9.077645e+00
9.080120e+00
9.118257e+00
9.101323e+00
9.105925e+00
9.117794e+00
8.657613e+00
7.161995e+00
5.514830e+00
9.615642e+00
9.609240e+00
9.606003e+00
9.578898e+00
9.568730e+00
9.566191e+00
9.555522e+00
9.542756e+00
9.511479e+00
9.433809e+00
9.227462e+00
8.711342e+00
8.202970e+00
7.813320e+00
7.275155e+00
6.863676e+00
9.614830e+00
9.607328e+00
9.602691e+00
9.571798e+00
9.557738e+00
9.551343e+00
9.531775e+00
9.506698e+00
9.427648e+00
9.177997e+00
8.588285e+00
7.738101e+00
7.111449e+00
7.257615e+00
7.881906e+00
8.236305e+00
9.198222e+00
9.174761e+00
9.233656e+00
9.038243e+00
8.971006e+00
8.970604e+00
8.921737e+00
8.886872e+00
8.607235e+00
8.103726e+00
7.645460e+00
7.247930e+00
7.353960e+00
7.988565e+00
8.759801e+00
9.227873e+00
7.228302e+00
7.397359e+00
7.454136e+00
7.138642e+00
6.742134e+00
6.786395e+00
6.821609e+00
6.767029e+00
6.590280e+00
6.456736e+00
6.867424e+00
7.721862e+00
8.433028e+00
9.050251e+00
9.425628e+00
9.564432e+00
4.783477e+00
5.034012e+00
5.425363e+00
4.697226e+00
4.159164e+00
4.254063e+00
4.335703e+00
4.535648e+00
4.660425e+00
5.281704e+00
6.796642e+00
8.260669e+00
9.148008e+00
9.470475e+00
9.596780e+00
9.645697e+00


-7.692422e-01
-2.017077e-01
-3.591954e-01
-2.505841e-01
-1.390512e-01
-2.619874e-01
-1.697320e-01
-1.723733e-01
-1.771971e-01
-1.922566e-01
-1.627607e-01
-2.191253e-01
-4.905484e-01
-4.891279e-01
3.534419e-01
-8.412730e-01
6.064259e-01
4.590229e-01
3.070842e-01
2.278559e-01
2.853403e-01
1.823104e-01
1.884564e-01
1.873701e-01
1.410541e-01
1.498451e-01
1.862669e-01
2.599649e-01
3.362575e-01
5.877574e-01
7.077624e-01
-1.007534e+00
7.455329e-01
5.046573e-01
1.578907e-01
9.303409e-02
5.675031e-02
-2.129868e-02
1.232438e-02
7.428636e-03
3.787442e-02
7.721001e-02
1.532155e-01
2.733889e-01
3.440614e-01
1.977386e-01
1.625296e-02
-2.099535e-01
7.544812e-01
5.809785e-01
2.600836e-01
1.423393e-01
4.603928e-02
8.465145e-03
3.485664e-02
4.100588e-02
8.665349e-02
1.072987e-01
1.356504e-01
1.605319e-01
6.402401e-02
-2.743852e-01
-3.384074e-01
-4.533156e-02
7.568786e-01
5.839744e-01
2.649106e-01
1.445835e-01
4.375404e-02
-6.050778e-03
1.292716e-02
-5.293480e-04
2.862866e-02
4.286419e-02
4.074147e-02
2.847368e-02
-4.310292e-02
-1.762403e-01
-9.803394e-02
3.406369e-01
7.509485e-01
5.125145e-01
1.710977e-01
1.047623e-01
5.615927e-02
-4.584046e-02
-3.731255e-02
-9.402634e-02
-9.486300e-02
-7.424525e-02
-1.144275e-01
-1.168449e-01
-6.371315e-02
6.001211e-02
3.403653e-01
7.447364e-01
6.096611e-01
4.625087e-01
3.125501e-01
2.364408e-01
2.837585e-01
1.719441e-01
1.599665e-01
1.000964e-01
4.833542e-03
-1.724369e-02
-1.076607e-01
-8.781642e-02
1.140434e-01
4.032751e-01
7.226154e-01
9.502490e-01
-7.713180e-01
-2.082316e-01
-3.655937e-01
-2.522400e-01
-1.468070e-01
-2.617599e-01
-1.361810e-01
-1.393718e-01
-9.384996e-02
-4.059361e-02
-7.648607e-02
7.324212e-02
4.383064e-01
7.792280e-01
9.531071e-01
9.987627e-01
1 2 19 18
2 3 20 19
3 4 21 20
4 5 22 21
5 6 23 22
6 7 24 23
7 8 25 24
8 9 26 25
9 10 27 26
10 11 28 27
11 12 29 28
12 13 30 29
13 14 31 30
14 15 32 31
15 16 33 32
16 17 34 33
18 19 36 35
19 20 37 36
20 21 38 37
21 22 39 38
22 23 40 39
23 24 41 40
24 25 42 41
25 26 43 42
26 27 44 43
27 28 45 44
28 29 46 45
29 30 47 46
30 31 48 47
31 32 49 48
32 33 50 49
33 34 51 50
35 36 53 52
36 37 54 53
37 38 55 54
38 39 56 55
39 40 57 56
40 41 58 57
41 42 59 58
42 43 60 59
43 44 61 60
44 45 62 61
45 46 63 62
46 47 64 63
47 48 65 64
48 49 66 65
49 50 67 66
50 51 68 67
52 53 70 69
53 54 71 70
54 55 72 71
55 56 73 72
56 57 74 73
57 58 75 74
58 59 76 75
59 60 77 76
60 61 78 77
61 62 79 78
62 63 80 79
63 64 81 80
64 65 82 81
65 66 83 82
66 67 84 83
67 68 85 84
69 70 87 86
70 71 88 87
71 72 89 88
72 73 90 89
73 74 91 90
74 75 92 91
75 76 93 92
76 77 94 93
77 78 95 94
78 79 96 95
79 80 97 96
80 81 98 97
81 82 99 98
82 83 100 99
83 84 101 100
84 85 102 101
86 87 104 103
87 88 105 104
88 89 106 105
89 90 107 106
90 91 108 107
91 92 109 108
92 93 110 109
93 94 111 110
94 95 112 111
95 96 113 112
96 97 114 113
97 98 115 114
98 99 116 115
99 100 117 116
100 101 118 117
101 102 119 118
103 104 121 120
104 105 122 121
105 106 123 122
106 107 124 123
107 108 125 124
108 109 126 125
109 110 127 126
110 111 128 127
111 112 129 128
112 113 130 129
113 114 131 130
114 115 132 131
115 116 133 132
116 117 134 133
117 118 135 134
118 119 136 135
120 121 138 137
121 122 139 138
122 123 140 139
123 124 141 140
124 125 142 141
125 126 143 142
126 127 144 143
127 128 145 144
128 129 146 145
129 130 147 146
130 131 148 147
131 132 149 148
132 133 150 149
133 134 151 150
134 135 152 151
135 136 153 152
