TITLE = "Solution"
VARIABLES = x, y, u, v, psiu, psiv, t, stress
ZONE T="structure" N=153 E=128 F=FEBLOCK ET=QUADRILATERAL VARLOCATION=([7,8]=cellcentered)
0.000000e+00
1.250000e+01
2.500000e+01
3.750000e+01
5.000000e+01
6.250000e+01
7.500000e+01
8.750000e+01
1.000000e+02
1.125000e+02
1.250000e+02
1.375000e+02
1.500000e+02
1.625000e+02
1.750000e+02
1.875000e+02
2.000000e+02
0.000000e+00
1.250000e+01
2.500000e+01
3.750000e+01
5.000000e+01
6.250000e+01
7.500000e+01
8.750000e+01
1.000000e+02
1.125000e+02
1.250000e+02
1.375000e+02
1.500000e+02
1.625000e+02
1.750000e+02
1.875000e+02
2.000000e+02
0.000000e+00
1.250000e+01
2.500000e+01
3.750000e+01
5.000000e+01
6.250000e+01
7.500000e+01
8.750000e+01
1.000000e+02
1.125000e+02
1.250000e+02
1.375000e+02
1.500000e+02
1.625000e+02
1.750000e+02
1.875000e+02
2.000000e+02
0.000000e+00
1.250000e+01
2.500000e+01
3.750000e+01
5.000000e+01
6.250000e+01
7.500000e+01
8.750000e+01
1.000000e+02
1.125000e+02
1.250000e+02
1.375000e+02
1.500000e+02
1.625000e+02
1.750000e+02
1.875000e+02
2.000000e+02
0.000000e+00
1.250000e+01
2.500000e+01
3.750000e+01
5.000000e+01
6.250000e+01
7.500000e+01
8.750000e+01
1.000000e+02
1.125000e+02
1.250000e+02
1.375000e+02
1.500000e+02
1.625000e+02
1.750000e+02
1.875000e+02
2.000000e+02
0.000000e+00
1.250000e+01
2.500000e+01
3.750000e+01
5.000000e+01
6.250000e+01
7.500000e+01
8.750000e+01
1.000000e+02
1.125000e+02
1.250000e+02
1.375000e+02
1.500000e+02
1.625000e+02
1.750000e+02
1.875000e+02
2.000000e+02
0.000000e+00
1.250000e+01
2.500000e+01
3.750000e+01
5.000000e+01
6.250000e+01
7.500000e+01
8.750000e+01
1.000000e+02
1.125000e+02
1.250000e+02
1.375000e+02
1.500000e+02
1.625000e+02
1.750000e+02
1.875000e+02
2.000000e+02
0.000000e+00
1.250000e+01
2.500000e+01
3.750000e+01
5.000000e+01
6.250000e+01
7.500000e+01
8.750000e+01
1.000000e+02
1.125000e+02
1.250000e+02
1.375000e+02
1.500000e+02
1.625000e+02
1.750000e+02
1.875000e+02
2.000000e+02
0.000000e+00
1.250000e+01
2.500000e+01
3.750000e+01
5.000000e+01
6.250000e+01
7.500000e+01
8.750000e+01
1.000000e+02
1.125000e+02
1.250000e+02
1.375000e+02
1.500000e+02
1.625000e+02
1.750000e+02
1.875000e+02
2.000000e+02
0.000000e+00
0.000000e+00
0.000000e+00
0.000000e+00
0.000000e+00
0.000000e+00
0.000000e+00
0.000000e+00
0.000000e+00
0.000000e+00
0.000000e+00
0.000000e+00
0.000000e+00
0.000000e+00
0.000000e+00
0.000000e+00
0.000000e+00
1.250000e+01
1.250000e+01
1.250000e+01
1.250000e+01
1.250000e+01
1.250000e+01
1.250000e+01
1.250000e+01
1.250000e+01
1.250000e+01
1.250000e+01
1.250000e+01
1.250000e+01
1.250000e+01
1.250000e+01
1.250000e+01
1.250000e+01
2.500000e+01
2.500000e+01
2.500000e+01
2.500000e+01
2.500000e+01
2.500000e+01
2.500000e+01
2.500000e+01
2.500000e+01
2.500000e+01
2.500000e+01
2.500000e+01
2.500000e+01
2.500000e+01
2.500000e+01
2.500000e+01
2.500000e+01
3.750000e+01
3.750000e+01
3.750000e+01
3.750000e+01
3.750000e+01
3.750000e+01
3.750000e+01
3.750000e+01
3.750000e+01
3.750000e+01
3.750000e+01
3.750000e+01
3.750000e+01
3.750000e+01
3.750000e+01
3.750000e+01
3.750000e+01
5.000000e+01
5.000000e+01
5.000000e+01
5.000000e+01
5.000000e+01
5.000000e+01
5.000000e+01
5.000000e+01
5.000000e+01
5.000000e+01
5.000000e+01
5.000000e+01
5.000000e+01
5.000000e+01
5.000000e+01
5.000000e+01
5.000000e+01
6.250000e+01
6.250000e+01
6.250000e+01
6.250000e+01
6.250000e+01
6.250000e+01
6.250000e+01
6.250000e+01
6.250000e+01
6.250000e+01
6.250000e+01
6.250000e+01
6.250000e+01
6.250000e+01
6.250000e+01
6.250000e+01
6.250000e+01
7.500000e+01
7.500000e+01
7.500000e+01
7.500000e+01
7.500000e+01
7.500000e+01
7.500000e+01
7.500000e+01
7.500000e+01
7.500000e+01
7.500000e+01
7.500000e+01
7.500000e+01
7.500000e+01
7.500000e+01
7.500000e+01
7.500000e+01
8.750000e+01
8.750000e+01
8.750000e+01
8.750000e+01
8.750000e+01
8.750000e+01
8.750000e+01
8.750000e+01
8.750000e+01
8.750000e+01
8.750000e+01
8.750000e+01
8.750000e+01
8.750000e+01
8.750000e+01
8.750000e+01
8.750000e+01
1.000000e+02
1.000000e+02
1.000000e+02
1.000000e+02
1.000000e+02
1.000000e+02
1.000000e+02
1.000000e+02
1.000000e+02
1.000000e+02
1.000000e+02
1.000000e+02
1.000000e+02
1.000000e+02
1.000000e+02
1.000000e+02
1.000000e+02
0.000000e+00
-8.793883e-01
-1.541963e+00
-2.088344e+00
-2.724265e+00
-3.413492e+00
-4.044667e+00
-4.633977e+00
-5.202547e+00
-5.740799e+00
-6.237665e+00
-6.692598e+00
-7.115981e+00
-7.531261e+00
-7.979137e+00
-8.507624e+00
-8.894482e+00
0.000000e+00
-5.026070e-01
-9.882426e-01
-1.420194e+00
-1.899957e+00
-2.420966e+00
-2.890960e+00
-3.329459e+00
-3.752879e+00
-4.153970e+00
-4.521892e+00
-4.851061e+00
-5.138675e+00
-5.377991e+00
-5.544488e+00
-5.581126e+00
-5.703419e+00
0.000000e+00
-2.775021e-01
-5.654809e-01
-8.805814e-01
-1.216191e+00
-1.551913e+00
-1.858166e+00
-2.149535e+00
-2.428217e+00
-2.687229e+00
-2.917642e+00
-3.110864e+00
-3.256505e+00
-3.339503e+00
-3.344153e+00
-3.314619e+00
-3.440737e+00
0.000000e+00
-1.235027e-01
-2.698515e-01
-4.326366e-01
-6.039547e-01
-7.601802e-01
-9.103535e-01
-1.053629e+00
-1.187228e+00
-1.305917e+00
-1.403364e+00
-1.472170e+00
-1.504536e+00
-1.496388e+00
-1.464108e+00
-1.471707e+00
-1.567825e+00
0.000000e+00
-2.805249e-03
-7.934842e-03
-1.337757e-02
-1.331335e-02
-1.085780e-02
-5.975020e-03
4.704564e-04
1.029405e-02
2.579211e-02
5.013949e-02
8.678033e-02
1.369126e-01
1.935580e-01
2.332663e-01
2.244077e-01
1.593646e-01
0.000000e+00
1.241256e-01
2.608403e-01
4.134927e-01
5.749609e-01
7.382220e-01
8.985105e-01
1.054363e+00
1.204249e+00
1.347272e+00
1.482806e+00
1.609823e+00
1.724691e+00
1.817738e+00
1.873091e+00
1.878322e+00
1.844900e+00
0.000000e+00
2.745946e-01
5.711393e-01
8.878591e-01
1.210781e+00
1.531711e+00
1.846579e+00
2.150254e+00
2.437849e+00
2.704345e+00
2.944737e+00
3.153980e+00
3.326452e+00
3.455168e+00
3.532881e+00
3.558318e+00
3.550549e+00
0.000000e+00
4.658719e-01
9.699693e-01
1.455063e+00
1.937690e+00
2.414329e+00
2.882416e+00
3.334053e+00
3.759756e+00
4.149767e+00
4.494030e+00
4.783124e+00
5.009775e+00
5.170290e+00
5.266453e+00
5.307535e+00
5.315103e+00
0.000000e+00
8.177497e-01
1.495036e+00
2.142502e+00
2.785153e+00
3.421449e+00
4.046477e+00
4.650332e+00
5.219193e+00
5.738651e+00
6.192989e+00
6.566520e+00
6.846393e+00
7.026538e+00
7.113855e+00
7.135312e+00
7.134832e+00
0.000000e+00
-5.179475e-01
-1.029961e+00
-1.700984e+00
-2.540158e+00
-3.536351e+00
-4.681066e+00
-5.987511e+00
-7.446266e+00
-9.042681e+00
-1.076375e+01
-1.259911e+01
-1.454454e+01
-1.661189e+01
-1.886273e+01
-2.149172e+01
-2.541098e+01
0.000000e+00
-3.238120e-01
-8.771123e-01
-1.546406e+00
-2.364608e+00
-3.363253e+00
-4.522335e+00
-5.836727e+00
-7.302228e+00
-8.908876e+00
-1.064260e+01
-1.249099e+01
-1.444832e+01
-1.652650e+01
-1.878013e+01
-2.139450e+01
-2.466458e+01
0.000000e+00
-2.569587e-01
-7.629483e-01
-1.426371e+00
-2.245018e+00
-3.244711e+00
-4.410885e+00
-5.731948e+00
-7.204778e+00
-8.821167e+00
-1.056774e+01
-1.243202e+01
-1.440849e+01
-1.650718e+01
-1.876538e+01
-2.122463e+01
-2.358358e+01
0.000000e+00
-2.370366e-01
-7.018682e-01
-1.349708e+00
-2.177232e+00
-3.178168e+00
-4.346843e+00
-5.673549e+00
-7.154277e+00
-8.780494e+00
-1.053969e+01
-1.241928e+01
-1.441077e+01
-1.651230e+01
-1.871706e+01
-2.094422e+01
-2.295398e+01
0.000000e+00
-2.310598e-01
-6.784641e-01
-1.324470e+00
-2.154095e+00
-3.157962e+00
-4.328035e+00
-5.659701e+00
-7.147109e+00
-8.781441e+00
-1.055019e+01
-1.243881e+01
-1.443195e+01
-1.651020e+01
-1.863216e+01
-2.070452e+01
-2.256908e+01
0.000000e+00
-2.307019e-01
-6.883912e-01
-1.342882e+00
-2.176715e+00
-3.181711e+00
-4.353318e+00
-5.687615e+00
-7.178648e+00
-8.817169e+00
-1.058983e+01
-1.247886e+01
-1.446115e+01
-1.650381e+01
-1.855544e+01
-2.053833e+01
-2.235068e+01
0.000000e+00
-2.482871e-01
-7.378888e-01
-1.408661e+00
-2.246601e+00
-3.251909e+00
-4.422794e+00
-5.756368e+00
-7.246499e+00
-8.883561e+00
-1.065315e+01
-1.253465e+01
-1.449943e+01
-1.650805e+01
-1.850885e+01
-2.044278e+01
-2.225360e+01
0.000000e+00
-3.147169e-01
-8.499992e-01
-1.525628e+00
-2.365574e+00
-3.369468e+00
-4.537700e+00
-5.866970e+00
-7.351143e+00
-8.980198e+00
-1.073915e+01
-1.260610e+01
-1.455029e+01
-1.653051e+01
-1.849706e+01
-2.040308e+01
-2.223087e+01
0.000000e+00
-5.028123e-01
-1.016846e+00
-1.694697e+00
-2.533121e+00
-3.534967e+00
-4.699066e+00
-6.021243e+00
-7.494850e+00
-9.109651e+00
-1.085036e+01
-1.269513e+01
-1.461368e+01
-1.656631e+01
-1.850694e+01
-2.039578e+01
-2.223129e+01


0.000000e+00
1.152938e-05
1.824577e-05
2.115260e-05
2.441747e-05
3.007396e-05
3.664043e-05
4.174664e-05
4.531793e-05
4.785276e-05
4.961425e-05
5.079580e-05
5.160497e-05
5.224282e-05
5.288659e-05
5.381100e-05
5.503588e-05
0.000000e+00
8.957179e-06
1.480031e-05
1.605068e-05
1.792805e-05
2.249631e-05
2.777115e-05
3.165975e-05
3.402656e-05
3.568889e-05
3.681751e-05
3.751034e-05
3.787587e-05
3.799665e-05
3.812949e-05
3.887662e-05
4.013646e-05
0.000000e+00
5.576607e-06
9.315605e-06
1.063239e-05
1.241438e-05
1.526202e-05
1.830459e-05
2.061646e-05
2.208991e-05
2.311868e-05
2.375890e-05
2.409817e-05
2.421966e-05
2.423426e-05
2.436247e-05
2.496664e-05
2.597625e-05
0.000000e+00
2.002125e-06
3.406351e-06
4.941793e-06
6.150795e-06
7.183332e-06
8.212470e-06
9.066815e-06
9.794025e-06
1.027976e-05
1.056206e-05
1.069581e-05
1.075005e-05
1.081561e-05
1.097291e-05
1.132298e-05
1.189719e-05
0.000000e+00
-4.100868e-07
-6.630057e-07
-8.219924e-07
-1.060028e-06
-1.447591e-06
-1.852896e-06
-2.122351e-06
-2.278197e-06
-2.371134e-06
-2.442288e-06
-2.489919e-06
-2.495142e-06
-2.439235e-06
-2.339517e-06
-2.197800e-06
-1.940187e-06
0.000000e+00
-2.415064e-06
-4.580837e-06
-6.749521e-06
-8.739538e-06
-1.054433e-05
-1.214243e-05
-1.341386e-05
-1.433834e-05
-1.496585e-05
-1.535750e-05
-1.557424e-05
-1.566655e-05
-1.568256e-05
-1.567686e-05
-1.565695e-05
-1.556131e-05
0.000000e+00
-4.350830e-06
-8.988556e-06
-1.304959e-05
-1.690846e-05
-2.016495e-05
-2.284140e-05
-2.501805e-05
-2.662280e-05
-2.769522e-05
-2.835338e-05
-2.872375e-05
-2.891573e-05
-2.901413e-05
-2.907450e-05
-2.910394e-05
-2.907977e-05
0.000000e+00
-5.599446e-06
-1.253181e-05
-1.853251e-05
-2.426027e-05
-2.906098e-05
-3.293135e-05
-3.611554e-05
-3.851747e-05
-4.015444e-05
-4.119595e-05
-4.182733e-05
-4.219807e-05
-4.241389e-05
-4.253896e-05
-4.259980e-05
-4.260905e-05
0.000000e+00
-7.694228e-06
-1.546152e-05
-2.305731e-05
-3.040129e-05
-3.670789e-05
-4.197595e-05
-4.634052e-05
-4.972522e-05
-5.215614e-05
-5.380006e-05
-5.486075e-05
-5.551804e-05
-5.590606e-05
-5.611175e-05
-5.619084e-05
-5.620425e-05
0.000000e+00
8.327235e-06
1.152259e-05
1.592588e-05
2.345022e-05
3.322253e-05
4.346928e-05
5.405584e-05
6.559136e-05
7.805844e-05
9.104380e-05
1.043828e-04
1.180307e-04
1.321202e-04
1.473574e-04
1.642703e-04
1.816304e-04
0.000000e+00
4.408641e-06
9.872752e-06
1.498584e-05
2.165642e-05
3.036940e-05
4.075668e-05
5.217989e-05
6.434973e-05
7.720533e-05
9.048183e-05
1.040403e-04
1.178286e-04
1.319192e-04
1.466081e-04
1.626813e-04
1.795509e-04
0.000000e+00
2.167455e-06
8.053678e-06
1.402671e-05
2.030112e-05
2.850015e-05
3.893301e-05
5.085270e-05
6.350297e-05
7.662528e-05
9.011865e-05
1.038438e-04
1.177362e-04
1.317568e-04
1.458654e-04
1.610081e-04
1.771289e-04
0.000000e+00
1.482501e-06
6.598116e-06
1.277175e-05
1.956126e-05
2.797691e-05
3.840589e-05
5.033490e-05
6.310270e-05
7.636482e-05
8.996443e-05
1.037653e-04
1.176757e-04
1.315954e-04
1.454434e-04
1.599142e-04
1.751364e-04
0.000000e+00
1.334449e-06
5.735634e-06
1.185033e-05
1.924405e-05
2.808298e-05
3.853226e-05
5.033390e-05
6.304842e-05
7.633351e-05
8.995353e-05
1.037577e-04
1.176377e-04
1.314977e-04
1.452975e-04
1.594059e-04
1.738379e-04
0.000000e+00
1.368055e-06
5.642219e-06
1.179540e-05
1.943874e-05
2.855676e-05
3.903359e-05
5.071192e-05
6.331637e-05
7.652480e-05
9.008760e-05
1.038382e-04
1.176654e-04
1.314905e-04
1.452968e-04
1.592106e-04
1.731452e-04
0.000000e+00
1.952992e-06
6.582027e-06
1.271988e-05
2.037395e-05
2.952701e-05
3.992636e-05
5.144319e-05
6.387275e-05
7.692115e-05
9.035100e-05
1.039992e-04
1.177536e-04
1.315401e-04
1.453277e-04
1.591263e-04
1.728376e-04
0.000000e+00
3.897636e-06
9.177485e-06
1.514794e-05
2.265201e-05
3.147694e-05
4.154243e-05
5.274344e-05
6.482852e-05
7.756422e-05
9.075366e-05
1.042344e-04
1.178820e-04
1.316085e-04
1.453585e-04
1.590903e-04
1.727383e-04
0.000000e+00
7.253595e-06
1.261835e-05
1.863163e-05
2.586050e-05
3.414846e-05
4.373105e-05
5.448062e-05
6.609061e-05
7.840444e-05
9.127635e-05
1.045402e-04
1.180501e-04
1.316948e-04
1.453953e-04
1.590877e-04
1.727237e-04


2.401674e+00
2.389224e+00
2.475186e+00
2.904358e+00
2.962840e+00
2.867266e+00
2.987297e+00
3.245203e+00
3.471951e+00
3.628154e+00
3.731434e+00
3.794410e+00
3.811634e+00
3.743432e+00
3.597524e+00
3.485179e+00
2.736748e+00
2.733886e+00
2.996632e+00
3.193934e+00
3.194142e+00
3.072230e+00
3.171146e+00
3.376408e+00
3.555829e+00
3.679202e+00
3.760851e+00
3.809839e+00
3.818517e+00
3.746168e+00
3.603474e+00
3.495150e+00
3.213725e+00
3.333567e+00
3.474864e+00
3.593063e+00
3.481701e+00
3.418841e+00
3.475681e+00
3.589158e+00
3.687716e+00
3.756567e+00
3.802642e+00
3.829518e+00
3.829744e+00
3.770562e+00
3.658654e+00
3.576642e+00
3.605178e+00
3.633176e+00
3.703039e+00
3.710049e+00
3.677082e+00
3.661590e+00
3.686188e+00
3.730155e+00
3.770954e+00
3.802021e+00
3.823601e+00
3.836368e+00
3.836322e+00
3.805506e+00
3.746087e+00
3.702646e+00
3.582087e+00
3.575839e+00
3.590828e+00
3.618433e+00
3.640030e+00
3.665683e+00
3.697899e+00
3.734026e+00
3.769079e+00
3.797932e+00
3.818729e+00
3.832523e+00
3.839303e+00
3.832952e+00
3.813797e+00
3.799135e+00
3.168391e+00
3.128266e+00
3.161059e+00
3.248370e+00
3.346882e+00
3.439118e+00
3.530747e+00
3.615678e+00
3.691446e+00
3.752320e+00
3.795625e+00
3.824207e+00
3.842235e+00
3.850970e+00
3.852208e+00
3.851312e+00
2.558660e+00
2.525128e+00
2.591432e+00
2.760766e+00
2.929188e+00
3.112530e+00
3.285003e+00
3.442661e+00
3.579482e+00
3.687961e+00
3.764615e+00
3.814114e+00
3.844334e+00
3.861686e+00
3.870593e+00
3.874170e+00
2.186450e+00
2.164976e+00
2.283166e+00
2.471910e+00
2.685281e+00
2.913608e+00
3.136744e+00
3.338193e+00
3.512176e+00
3.649660e+00
3.746711e+00
3.808917e+00
3.846040e+00
3.866922e+00
3.877692e+00
3.882237e+00


-6.710550e-01
-1.566009e-01
1.554281e-01
-9.289336e-02
-2.816283e-01
-6.650973e-02
6.908033e-02
1.326542e-01
2.220476e-01
3.410448e-01
4.600084e-01
5.592890e-01
6.301670e-01
6.721222e-01
7.141201e-01
-2.012365e-01
4.476764e-01
4.261807e-01
4.578541e-01
3.563026e-01
2.897814e-01
4.066476e-01
4.676244e-01
5.000580e-01
5.515165e-01
6.270110e-01
7.140084e-01
8.033536e-01
8.875894e-01
9.465524e-01
8.294492e-01
-7.832657e-01
8.222721e-01
7.368387e-01
6.774774e-01
6.448300e-01
6.539048e-01
6.825996e-01
6.956475e-01
7.070748e-01
7.297731e-01
7.654164e-01
8.078189e-01
8.449501e-01
8.536712e-01
7.860990e-01
5.501044e-01
1.293906e-01
9.401439e-01
8.722914e-01
8.303508e-01
8.126876e-01
8.086840e-01
8.004268e-01
7.947012e-01
7.887306e-01
7.844358e-01
7.820899e-01
7.774728e-01
7.606847e-01
7.181038e-01
6.475302e-01
5.954802e-01
5.872197e-01
9.444222e-01
8.853705e-01
8.403749e-01
8.151968e-01
8.019590e-01
7.932175e-01
7.832014e-01
7.706159e-01
7.548120e-01
7.358341e-01
7.127962e-01
6.857240e-01
6.619457e-01
6.659898e-01
7.268706e-01
8.293809e-01
8.267161e-01
7.521201e-01
6.991537e-01
6.753995e-01
6.662173e-01
6.642367e-01
6.655017e-01
6.681809e-01
6.706669e-01
6.720052e-01
6.729597e-01
6.790353e-01
7.037678e-01
7.626534e-01
8.532010e-01
9.468634e-01
4.929584e-01
3.842587e-01
3.874384e-01
3.795304e-01
3.849475e-01
3.983030e-01
4.274105e-01
4.715508e-01
5.272681e-01
5.904075e-01
6.564838e-01
7.232822e-01
7.937183e-01
8.710004e-01
9.444076e-01
9.907382e-01
-4.545667e-01
-2.275060e-01
-1.233925e-01
-1.105849e-01
-8.745624e-02
-5.048469e-02
1.861545e-02
1.256678e-01
2.645828e-01
4.267576e-01
5.968089e-01
7.536380e-01
8.770316e-01
9.552447e-01
9.912251e-01
9.998169e-01
1 2 19 18
2 3 20 19
3 4 21 20
4 5 22 21
5 6 23 22
6 7 24 23
7 8 25 24
8 9 26 25
9 10 27 26
10 11 28 27
11 12 29 28
12 13 30 29
13 14 31 30
14 15 32 31
15 16 33 32
16 17 34 33
18 19 36 35
19 20 37 36
20 21 38 37
21 22 39 38
22 23 40 39
23 24 41 40
24 25 42 41
25 26 43 42
26 27 44 43
27 28 45 44
28 29 46 45
29 30 47 46
30 31 48 47
31 32 49 48
32 33 50 49
33 34 51 50
35 36 53 52
36 37 54 53
37 38 55 54
38 39 56 55
39 40 57 56
40 41 58 57
41 42 59 58
42 43 60 59
43 44 61 60
44 45 62 61
45 46 63 62
46 47 64 63
47 48 65 64
48 49 66 65
49 50 67 66
50 51 68 67
52 53 70 69
53 54 71 70
54 55 72 71
55 56 73 72
56 57 74 73
57 58 75 74
58 59 76 75
59 60 77 76
60 61 78 77
61 62 79 78
62 63 80 79
63 64 81 80
64 65 82 81
65 66 83 82
66 67 84 83
67 68 85 84
69 70 87 86
70 71 88 87
71 72 89 88
72 73 90 89
73 74 91 90
74 75 92 91
75 76 93 92
76 77 94 93
77 78 95 94
78 79 96 95
79 80 97 96
80 81 98 97
81 82 99 98
82 83 100 99
83 84 101 100
84 85 102 101
86 87 104 103
87 88 105 104
88 89 106 105
89 90 107 106
90 91 108 107
91 92 109 108
92 93 110 109
93 94 111 110
94 95 112 111
95 96 113 112
96 97 114 113
97 98 115 114
98 99 116 115
99 100 117 116
100 101 118 117
101 102 119 118
103 104 121 120
104 105 122 121
105 106 123 122
106 107 124 123
107 108 125 124
108 109 126 125
109 110 127 126
110 111 128 127
111 112 129 128
112 113 130 129
113 114 131 130
114 115 132 131
115 116 133 132
116 117 134 133
117 118 135 134
118 119 136 135
120 121 138 137
121 122 139 138
122 123 140 139
123 124 141 140
124 125 142 141
125 126 143 142
126 127 144 143
127 128 145 144
128 129 146 145
129 130 147 146
130 131 148 147
131 132 149 148
132 133 150 149
133 134 151 150
134 135 152 151
135 136 153 152
