TITLE = "Solution"
VARIABLES = x, y, u, v, psiu, psiv, t, stress
ZONE T="structure" N=153 E=128 F=FEBLOCK ET=QUADRILATERAL VARLOCATION=([7,8]=cellcentered)
0.000000e+00
1.250000e+01
2.500000e+01
3.750000e+01
5.000000e+01
6.250000e+01
7.500000e+01
8.750000e+01
1.000000e+02
1.125000e+02
1.250000e+02
1.375000e+02
1.500000e+02
1.625000e+02
1.750000e+02
1.875000e+02
2.000000e+02
0.000000e+00
1.250000e+01
2.500000e+01
3.750000e+01
5.000000e+01
6.250000e+01
7.500000e+01
8.750000e+01
1.000000e+02
1.125000e+02
1.250000e+02
1.375000e+02
1.500000e+02
1.625000e+02
1.750000e+02
1.875000e+02
2.000000e+02
0.000000e+00
1.250000e+01
2.500000e+01
3.750000e+01
5.000000e+01
6.250000e+01
7.500000e+01
8.750000e+01
1.000000e+02
1.125000e+02
1.250000e+02
1.375000e+02
1.500000e+02
1.625000e+02
1.750000e+02
1.875000e+02
2.000000e+02
0.000000e+00
1.250000e+01
2.500000e+01
3.750000e+01
5.000000e+01
6.250000e+01
7.500000e+01
8.750000e+01
1.000000e+02
1.125000e+02
1.250000e+02
1.375000e+02
1.500000e+02
1.625000e+02
1.750000e+02
1.875000e+02
2.000000e+02
0.000000e+00
1.250000e+01
2.500000e+01
3.750000e+01
5.000000e+01
6.250000e+01
7.500000e+01
8.750000e+01
1.000000e+02
1.125000e+02
1.250000e+02
1.375000e+02
1.500000e+02
1.625000e+02
1.750000e+02
1.875000e+02
2.000000e+02
0.000000e+00
1.250000e+01
2.500000e+01
3.750000e+01
5.000000e+01
6.250000e+01
7.500000e+01
8.750000e+01
1.000000e+02
1.125000e+02
1.250000e+02
1.375000e+02
1.500000e+02
1.625000e+02
1.750000e+02
1.875000e+02
2.000000e+02
0.000000e+00
1.250000e+01
2.500000e+01
3.750000e+01
5.000000e+01
6.250000e+01
7.500000e+01
8.750000e+01
1.000000e+02
1.125000e+02
1.250000e+02
1.375000e+02
1.500000e+02
1.625000e+02
1.750000e+02
1.875000e+02
2.000000e+02
0.000000e+00
1.250000e+01
2.500000e+01
3.750000e+01
5.000000e+01
6.250000e+01
7.500000e+01
8.750000e+01
1.000000e+02
1.125000e+02
1.250000e+02
1.375000e+02
1.500000e+02
1.625000e+02
1.750000e+02
1.875000e+02
2.000000e+02
0.000000e+00
1.250000e+01
2.500000e+01
3.750000e+01
5.000000e+01
6.250000e+01
7.500000e+01
8.750000e+01
1.000000e+02
1.125000e+02
1.250000e+02
1.375000e+02
1.500000e+02
1.625000e+02
1.750000e+02
1.875000e+02
2.000000e+02
0.000000e+00
0.000000e+00
0.000000e+00
0.000000e+00
0.000000e+00
0.000000e+00
0.000000e+00
0.000000e+00
0.000000e+00
0.000000e+00
0.000000e+00
0.000000e+00
0.000000e+00
0.000000e+00
0.000000e+00
0.000000e+00
0.000000e+00
1.250000e+01
1.250000e+01
1.250000e+01
1.250000e+01
1.250000e+01
1.250000e+01
1.250000e+01
1.250000e+01
1.250000e+01
1.250000e+01
1.250000e+01
1.250000e+01
1.250000e+01
1.250000e+01
1.250000e+01
1.250000e+01
1.250000e+01
2.500000e+01
2.500000e+01
2.500000e+01
2.500000e+01
2.500000e+01
2.500000e+01
2.500000e+01
2.500000e+01
2.500000e+01
2.500000e+01
2.500000e+01
2.500000e+01
2.500000e+01
2.500000e+01
2.500000e+01
2.500000e+01
2.500000e+01
3.750000e+01
3.750000e+01
3.750000e+01
3.750000e+01
3.750000e+01
3.750000e+01
3.750000e+01
3.750000e+01
3.750000e+01
3.750000e+01
3.750000e+01
3.750000e+01
3.750000e+01
3.750000e+01
3.750000e+01
3.750000e+01
3.750000e+01
5.000000e+01
5.000000e+01
5.000000e+01
5.000000e+01
5.000000e+01
5.000000e+01
5.000000e+01
5.000000e+01
5.000000e+01
5.000000e+01
5.000000e+01
5.000000e+01
5.000000e+01
5.000000e+01
5.000000e+01
5.000000e+01
5.000000e+01
6.250000e+01
6.250000e+01
6.250000e+01
6.250000e+01
6.250000e+01
6.250000e+01
6.250000e+01
6.250000e+01
6.250000e+01
6.250000e+01
6.250000e+01
6.250000e+01
6.250000e+01
6.250000e+01
6.250000e+01
6.250000e+01
6.250000e+01
7.500000e+01
7.500000e+01
7.500000e+01
7.500000e+01
7.500000e+01
7.500000e+01
7.500000e+01
7.500000e+01
7.500000e+01
7.500000e+01
7.500000e+01
7.500000e+01
7.500000e+01
7.500000e+01
7.500000e+01
7.500000e+01
7.500000e+01
8.750000e+01
8.750000e+01
8.750000e+01
8.750000e+01
8.750000e+01
8.750000e+01
8.750000e+01
8.750000e+01
8.750000e+01
8.750000e+01
8.750000e+01
8.750000e+01
8.750000e+01
8.750000e+01
8.750000e+01
8.750000e+01
8.750000e+01
1.000000e+02
1.000000e+02
1.000000e+02
1.000000e+02
1.000000e+02
1.000000e+02
1.000000e+02
1.000000e+02
1.000000e+02
1.000000e+02
1.000000e+02
1.000000e+02
1.000000e+02
1.000000e+02
1.000000e+02
1.000000e+02
1.000000e+02
0.000000e+00
-1.461949e-01
-2.691911e-01
-3.823642e-01
-4.877612e-01
-5.851594e-01
-6.743495e-01
-7.552620e-01
-8.280146e-01
-8.929421e-01
-9.506881e-01
-1.002381e+00
-1.049963e+00
-1.096787e+00
-1.148639e+00
-1.212319e+00
-1.260104e+00
0.000000e+00
-8.730464e-02
-1.813585e-01
-2.682118e-01
-3.482313e-01
-4.217211e-01
-4.888332e-01
-5.496573e-01
-6.043030e-01
-6.529383e-01
-6.958102e-01
-7.332275e-01
-7.654291e-01
-7.920832e-01
-8.108839e-01
-8.150047e-01
-8.297787e-01
0.000000e+00
-5.459761e-02
-1.122665e-01
-1.698003e-01
-2.235068e-01
-2.728175e-01
-3.176921e-01
-3.581811e-01
-3.942946e-01
-4.259722e-01
-4.530432e-01
-4.751296e-01
-4.914440e-01
-5.005510e-01
-5.008038e-01
-4.971657e-01
-5.122341e-01
0.000000e+00
-2.635211e-02
-5.424948e-02
-8.232330e-02
-1.091672e-01
-1.338924e-01
-1.563036e-01
-1.763353e-01
-1.938729e-01
-2.086882e-01
-2.204024e-01
-2.284626e-01
-2.322091e-01
-2.313338e-01
-2.277378e-01
-2.287212e-01
-2.399411e-01
0.000000e+00
-2.427878e-05
-5.519277e-05
-8.600530e-05
-1.023591e-04
-7.223771e-05
6.790662e-05
4.321029e-04
1.207432e-03
2.672561e-03
5.191050e-03
9.128126e-03
1.458248e-02
2.074618e-02
2.500388e-02
2.383614e-02
1.640756e-02
0.000000e+00
2.631476e-02
5.416275e-02
8.218458e-02
1.089947e-01
1.337521e-01
1.563580e-01
1.769229e-01
1.956251e-01
2.126814e-01
2.283148e-01
2.426408e-01
2.554107e-01
2.656507e-01
2.716743e-01
2.721521e-01
2.683816e-01
0.000000e+00
5.459148e-02
1.122478e-01
1.697631e-01
2.234488e-01
2.727452e-01
3.176321e-01
3.582006e-01
3.945346e-01
4.266986e-01
4.547206e-01
4.785320e-01
4.978590e-01
5.121482e-01
5.207248e-01
5.235097e-01
5.226304e-01
0.000000e+00
8.734046e-02
1.814364e-01
2.683360e-01
3.483978e-01
4.218993e-01
4.889332e-01
5.494744e-01
6.034307e-01
6.506460e-01
6.908962e-01
7.239031e-01
7.494025e-01
7.673101e-01
7.779923e-01
7.825477e-01
7.833844e-01
0.000000e+00
1.462548e-01
2.693491e-01
3.826602e-01
4.882339e-01
5.858244e-01
6.751427e-01
7.559291e-01
8.279131e-01
8.907205e-01
9.438064e-01
9.864632e-01
1.017990e+00
1.038139e+00
1.047884e+00
1.050289e+00
1.050242e+00
0.000000e+00
-8.849592e-02
-1.737284e-01
-2.841701e-01
-4.197146e-01
-5.801086e-01
-7.635955e-01
-9.681219e-01
-1.191513e+00
-1.431623e+00
-1.686470e+00
-1.954476e+00
-2.234994e+00
-2.529522e+00
-2.845701e+00
-3.207470e+00
-3.727269e+00
0.000000e+00
-5.447977e-02
-1.433911e-01
-2.552021e-01
-3.929616e-01
-5.555442e-01
-7.412538e-01
-9.479869e-01
-1.173543e+00
-1.415738e+00
-1.672535e+00
-1.942283e+00
-2.224236e+00
-2.519853e+00
-2.835909e+00
-3.195482e+00
-3.635998e+00
0.000000e+00
-4.110996e-02
-1.223599e-01
-2.345834e-01
-3.736451e-01
-5.379010e-01
-7.253176e-01
-9.337707e-01
-1.161075e+00
-1.405078e+00
-1.663781e+00
-1.935591e+00
-2.219831e+00
-2.517721e+00
-2.834049e+00
-3.174757e+00
-3.504490e+00
0.000000e+00
-3.542585e-02
-1.119033e-01
-2.224807e-01
-3.620451e-01
-5.273120e-01
-7.158969e-01
-9.255951e-01
-1.154263e+00
-1.399805e+00
-1.660266e+00
-1.934022e+00
-2.220077e+00
-2.518297e+00
-2.828296e+00
-3.141358e+00
-3.429760e+00
0.000000e+00
-3.378841e-02
-1.087387e-01
-2.186199e-01
-3.582223e-01
-5.239004e-01
-7.130275e-01
-9.234008e-01
-1.152917e+00
-1.399516e+00
-1.661198e+00
-1.936082e+00
-2.222392e+00
-2.518016e+00
-2.818529e+00
-3.113653e+00
-3.385534e+00
0.000000e+00
-3.540482e-02
-1.118883e-01
-2.225074e-01
-3.621760e-01
-5.276566e-01
-7.166341e-01
-9.269913e-01
-1.156670e+00
-1.403599e+00
-1.665650e+00
-1.940548e+00
-2.225632e+00
-2.517275e+00
-2.809874e+00
-3.094878e+00
-3.360956e+00
0.000000e+00
-4.107566e-02
-1.223351e-01
-2.346278e-01
-3.738656e-01
-5.384841e-01
-7.265674e-01
-9.361414e-01
-1.165168e+00
-1.411541e+00
-1.672989e+00
-1.946886e+00
-2.229932e+00
-2.517753e+00
-2.804680e+00
-3.084214e+00
-3.350115e+00
0.000000e+00
-5.444761e-02
-1.433695e-01
-2.552611e-01
-3.932263e-01
-5.562298e-01
-7.427087e-01
-9.507271e-01
-1.178245e+00
-1.423117e+00
-1.682979e+00
-1.955018e+00
-2.235652e+00
-2.520269e+00
-2.803379e+00
-3.079805e+00
-3.347571e+00
0.000000e+00
-8.848263e-02
-1.737302e-01
-2.842614e-01
-4.200214e-01
-5.808413e-01
-7.650842e-01
-9.708382e-01
-1.196042e+00
-1.438512e+00
-1.695828e+00
-1.965113e+00
-2.242763e+00
-2.524266e+00
-2.804484e+00
-3.078998e+00
-3.347611e+00


0.000000e+00
7.507574e-09
1.552427e-08
2.261285e-08
2.858433e-08
3.342315e-08
3.722342e-08
4.013146e-08
4.230129e-08
4.388003e-08
4.500197e-08
4.578750e-08
4.634627e-08
4.677987e-08
4.718367e-08
4.768323e-08
4.828386e-08
0.000000e+00
5.115054e-09
1.204294e-08
1.767318e-08
2.217530e-08
2.572252e-08
2.845332e-08
3.050710e-08
3.201185e-08
3.308103e-08
3.381255e-08
3.428722e-08
3.456587e-08
3.470261e-08
3.484145e-08
3.524984e-08
3.586820e-08
0.000000e+00
3.807664e-09
8.361292e-09
1.215822e-08
1.520106e-08
1.754374e-08
1.930234e-08
2.059163e-08
2.150895e-08
2.213445e-08
2.253352e-08
2.275949e-08
2.285976e-08
2.289838e-08
2.299641e-08
2.331688e-08
2.381748e-08
0.000000e+00
2.035568e-09
4.165644e-09
6.064963e-09
7.615483e-09
8.797854e-09
9.668769e-09
1.029245e-08
1.072199e-08
1.099953e-08
1.116019e-08
1.123701e-08
1.126815e-08
1.130246e-08
1.138903e-08
1.158369e-08
1.189147e-08
0.000000e+00
-2.238553e-12
-5.237595e-12
-9.383400e-12
-1.532615e-11
-2.394668e-11
-3.638416e-11
-5.395333e-11
-7.778104e-11
-1.079263e-10
-1.417300e-10
-1.713914e-10
-1.828428e-10
-1.622794e-10
-1.089815e-10
-1.525381e-11
1.449139e-10
0.000000e+00
-2.039424e-09
-4.174533e-09
-6.080836e-09
-7.641081e-09
-8.837119e-09
-9.727215e-09
-1.037747e-08
-1.084285e-08
-1.116656e-08
-1.138193e-08
-1.151403e-08
-1.158192e-08
-1.160427e-08
-1.160301e-08
-1.157989e-08
-1.151153e-08
0.000000e+00
-3.809683e-09
-8.366810e-09
-1.216839e-08
-1.521718e-08
-1.756720e-08
-1.933452e-08
-2.063395e-08
-2.156313e-08
-2.220350e-08
-2.262360e-08
-2.288207e-08
-2.302934e-08
-2.310818e-08
-2.315058e-08
-2.316512e-08
-2.314589e-08
0.000000e+00
-5.115802e-09
-1.204651e-08
-1.767948e-08
-2.218408e-08
-2.573287e-08
-2.846304e-08
-3.051223e-08
-3.200673e-08
-3.305934e-08
-3.377011e-08
-3.422706e-08
-3.450576e-08
-3.466756e-08
-3.475671e-08
-3.479732e-08
-3.480299e-08
0.000000e+00
-7.510904e-09
-1.552978e-08
-2.261910e-08
-2.858953e-08
-3.342416e-08
-3.721519e-08
-4.010666e-08
-4.225018e-08
-4.379063e-08
-4.485981e-08
-4.557324e-08
-4.602766e-08
-4.629907e-08
-4.644233e-08
-4.649716e-08
-4.650664e-08
0.000000e+00
6.821352e-09
1.224620e-08
1.793231e-08
2.475715e-08
3.278998e-08
4.186638e-08
5.177281e-08
6.230511e-08
7.329528e-08
8.461477e-08
9.617558e-08
1.079419e-07
1.199897e-07
1.326399e-07
1.460593e-07
1.596501e-07
0.000000e+00
3.664225e-09
8.969584e-09
1.504696e-08
2.239663e-08
3.093264e-08
4.044939e-08
5.071925e-08
6.154355e-08
7.276200e-08
8.425451e-08
9.594128e-08
1.077893e-07
1.198344e-07
1.322302e-07
1.452787e-07
1.586509e-07
0.000000e+00
1.804862e-09
6.400250e-09
1.279523e-08
2.057368e-08
2.952355e-08
3.939019e-08
4.994392e-08
6.099378e-08
7.238863e-08
8.401623e-08
9.580245e-08
1.077082e-07
1.197125e-07
1.318295e-07
1.444498e-07
1.574661e-07
0.000000e+00
1.028364e-09
5.190487e-09
1.161612e-08
1.961721e-08
2.879436e-08
3.885120e-08
4.955625e-08
6.072547e-08
7.221415e-08
8.391374e-08
9.574863e-08
1.076665e-07
1.196151e-07
1.315811e-07
1.438613e-07
1.564302e-07
0.000000e+00
8.319477e-10
4.861199e-09
1.125906e-08
1.932291e-08
2.857208e-08
3.869001e-08
4.944404e-08
6.065288e-08
7.217366e-08
8.389704e-08
9.574249e-08
1.076489e-07
1.195624e-07
1.314646e-07
1.435256e-07
1.556936e-07
0.000000e+00
1.029734e-09
5.192376e-09
1.161867e-08
1.962084e-08
2.880015e-08
3.886105e-08
4.957289e-08
6.075175e-08
7.225142e-08
8.395838e-08
9.578659e-08
1.076708e-07
1.195612e-07
1.314383e-07
1.433638e-07
1.552699e-07
0.000000e+00
1.807036e-09
6.403674e-09
1.280030e-08
2.058117e-08
2.953559e-08
3.941034e-08
4.997712e-08
6.104538e-08
7.246161e-08
8.410565e-08
9.588543e-08
1.077316e-07
1.195943e-07
1.314468e-07
1.432923e-07
1.550722e-07
0.000000e+00
3.667301e-09
8.975318e-09
1.505543e-08
2.240885e-08
3.095107e-08
4.047796e-08
5.076336e-08
6.160898e-08
7.285222e-08
8.436486e-08
9.604780e-08
1.078258e-07
1.196438e-07
1.314651e-07
1.432651e-07
1.550062e-07
0.000000e+00
6.826317e-09
1.225469e-08
1.794417e-08
2.477325e-08
3.281218e-08
4.189776e-08
5.181742e-08
6.236723e-08
7.337707e-08
8.471093e-08
9.626222e-08
1.079484e-07
1.197068e-07
1.314909e-07
1.432632e-07
1.549961e-07


4.271640e-01
4.271640e-01
4.271673e-01
4.271732e-01
4.271786e-01
4.271828e-01
4.271861e-01
4.271887e-01
4.271905e-01
4.271918e-01
4.271927e-01
4.271933e-01
4.271937e-01
4.271932e-01
4.271921e-01
4.271913e-01
4.271702e-01
4.271700e-01
4.271725e-01
4.271772e-01
4.271815e-01
4.271849e-01
4.271876e-01
4.271897e-01
4.271912e-01
4.271921e-01
4.271928e-01
4.271933e-01
4.271935e-01
4.271930e-01
4.271919e-01
4.271911e-01
4.271804e-01
4.271801e-01
4.271814e-01
4.271841e-01
4.271865e-01
4.271886e-01
4.271901e-01
4.271913e-01
4.271922e-01
4.271927e-01
4.271930e-01
4.271933e-01
4.271934e-01
4.271930e-01
4.271921e-01
4.271914e-01
4.271876e-01
4.271874e-01
4.271879e-01
4.271890e-01
4.271901e-01
4.271911e-01
4.271919e-01
4.271925e-01
4.271928e-01
4.271930e-01
4.271931e-01
4.271933e-01
4.271934e-01
4.271933e-01
4.271928e-01
4.271925e-01
4.271876e-01
4.271874e-01
4.271879e-01
4.271890e-01
4.271901e-01
4.271911e-01
4.271919e-01
4.271924e-01
4.271928e-01
4.271929e-01
4.271931e-01
4.271933e-01
4.271935e-01
4.271937e-01
4.271936e-01
4.271935e-01
4.271804e-01
4.271801e-01
4.271814e-01
4.271841e-01
4.271865e-01
4.271885e-01
4.271901e-01
4.271913e-01
4.271921e-01
4.271925e-01
4.271929e-01
4.271933e-01
4.271937e-01
4.271940e-01
4.271940e-01
4.271940e-01
4.271701e-01
4.271700e-01
4.271725e-01
4.271772e-01
4.271815e-01
4.271849e-01
4.271876e-01
4.271897e-01
4.271911e-01
4.271920e-01
4.271927e-01
4.271933e-01
4.271938e-01
4.271940e-01
4.271941e-01
4.271941e-01
4.271640e-01
4.271639e-01
4.271673e-01
4.271732e-01
4.271785e-01
4.271827e-01
4.271861e-01
4.271888e-01
4.271906e-01
4.271917e-01
4.271925e-01
4.271932e-01
4.271938e-01
4.271940e-01
4.271941e-01
4.271941e-01


9.519146e-01
9.587334e-01
9.650410e-01
9.698962e-01
9.744031e-01
9.785591e-01
9.823456e-01
9.857182e-01
9.886414e-01
9.910863e-01
9.930304e-01
9.944545e-01
9.953398e-01
9.956556e-01
9.958836e-01
9.818294e-01
9.818085e-01
9.786836e-01
9.806938e-01
9.833173e-01
9.857635e-01
9.879868e-01
9.899996e-01
9.918227e-01
9.934734e-01
9.949687e-01
9.963255e-01
9.975541e-01
9.986259e-01
9.993278e-01
9.975529e-01
9.734949e-01
9.936793e-01
9.918844e-01
9.913998e-01
9.920812e-01
9.929777e-01
9.938460e-01
9.946523e-01
9.954142e-01
9.961522e-01
9.968718e-01
9.975438e-01
9.980642e-01
9.981728e-01
9.972358e-01
9.938364e-01
9.877225e-01
9.987136e-01
9.974045e-01
9.965959e-01
9.963907e-01
9.964726e-01
9.966100e-01
9.967472e-01
9.968813e-01
9.970130e-01
9.971231e-01
9.971538e-01
9.969900e-01
9.964702e-01
9.955373e-01
9.947462e-01
9.945459e-01
9.987184e-01
9.974114e-01
9.966020e-01
9.963895e-01
9.964522e-01
9.965513e-01
9.966201e-01
9.966432e-01
9.966116e-01
9.965103e-01
9.963215e-01
9.960495e-01
9.957905e-01
9.958420e-01
9.965741e-01
9.978415e-01
9.936883e-01
9.918981e-01
9.914129e-01
9.920813e-01
9.929428e-01
9.937386e-01
9.944118e-01
9.949530e-01
9.953583e-01
9.956312e-01
9.958038e-01
9.959725e-01
9.963270e-01
9.970701e-01
9.981863e-01
9.993404e-01
9.818068e-01
9.786823e-01
9.806910e-01
9.833099e-01
9.857443e-01
9.879431e-01
9.899089e-01
9.916496e-01
9.931664e-01
9.944630e-01
9.955607e-01
9.965193e-01
9.974425e-01
9.984103e-01
9.993154e-01
9.998854e-01
9.518818e-01
9.586821e-01
9.649780e-01
9.698256e-01
9.743397e-01
9.785361e-01
9.824238e-01
9.859938e-01
9.892467e-01
9.921762e-01
9.947473e-01
9.968803e-01
9.984671e-01
9.994461e-01
9.998914e-01
9.999977e-01
1 2 19 18
2 3 20 19
3 4 21 20
4 5 22 21
5 6 23 22
6 7 24 23
7 8 25 24
8 9 26 25
9 10 27 26
10 11 28 27
11 12 29 28
12 13 30 29
13 14 31 30
14 15 32 31
15 16 33 32
16 17 34 33
18 19 36 35
19 20 37 36
20 21 38 37
21 22 39 38
22 23 40 39
23 24 41 40
24 25 42 41
25 26 43 42
26 27 44 43
27 28 45 44
28 29 46 45
29 30 47 46
30 31 48 47
31 32 49 48
32 33 50 49
33 34 51 50
35 36 53 52
36 37 54 53
37 38 55 54
38 39 56 55
39 40 57 56
40 41 58 57
41 42 59 58
42 43 60 59
43 44 61 60
44 45 62 61
45 46 63 62
46 47 64 63
47 48 65 64
48 49 66 65
49 50 67 66
50 51 68 67
52 53 70 69
53 54 71 70
54 55 72 71
55 56 73 72
56 57 74 73
57 58 75 74
58 59 76 75
59 60 77 76
60 61 78 77
61 62 79 78
62 63 80 79
63 64 81 80
64 65 82 81
65 66 83 82
66 67 84 83
67 68 85 84
69 70 87 86
70 71 88 87
71 72 89 88
72 73 90 89
73 74 91 90
74 75 92 91
75 76 93 92
76 77 94 93
77 78 95 94
78 79 96 95
79 80 97 96
80 81 98 97
81 82 99 98
82 83 100 99
83 84 101 100
84 85 102 101
86 87 104 103
87 88 105 104
88 89 106 105
89 90 107 106
90 91 108 107
91 92 109 108
92 93 110 109
93 94 111 110
94 95 112 111
95 96 113 112
96 97 114 113
97 98 115 114
98 99 116 115
99 100 117 116
100 101 118 117
101 102 119 118
103 104 121 120
104 105 122 121
105 106 123 122
106 107 124 123
107 108 125 124
108 109 126 125
109 110 127 126
110 111 128 127
111 112 129 128
112 113 130 129
113 114 131 130
114 115 132 131
115 116 133 132
116 117 134 133
117 118 135 134
118 119 136 135
120 121 138 137
121 122 139 138
122 123 140 139
123 124 141 140
124 125 142 141
125 126 143 142
126 127 144 143
127 128 145 144
128 129 146 145
129 130 147 146
130 131 148 147
131 132 149 148
132 133 150 149
133 134 151 150
134 135 152 151
135 136 153 152
