TITLE = "Solution"
VARIABLES = x, y, u, v, psiu, psiv, t, stress
ZONE T="structure" N=153 E=128 F=FEBLOCK ET=QUADRILATERAL VARLOCATION=([7,8]=cellcentered)
0.000000e+00
1.250000e+01
2.500000e+01
3.750000e+01
5.000000e+01
6.250000e+01
7.500000e+01
8.750000e+01
1.000000e+02
1.125000e+02
1.250000e+02
1.375000e+02
1.500000e+02
1.625000e+02
1.750000e+02
1.875000e+02
2.000000e+02
0.000000e+00
1.250000e+01
2.500000e+01
3.750000e+01
5.000000e+01
6.250000e+01
7.500000e+01
8.750000e+01
1.000000e+02
1.125000e+02
1.250000e+02
1.375000e+02
1.500000e+02
1.625000e+02
1.750000e+02
1.875000e+02
2.000000e+02
0.000000e+00
1.250000e+01
2.500000e+01
3.750000e+01
5.000000e+01
6.250000e+01
7.500000e+01
8.750000e+01
1.000000e+02
1.125000e+02
1.250000e+02
1.375000e+02
1.500000e+02
1.625000e+02
1.750000e+02
1.875000e+02
2.000000e+02
0.000000e+00
1.250000e+01
2.500000e+01
3.750000e+01
5.000000e+01
6.250000e+01
7.500000e+01
8.750000e+01
1.000000e+02
1.125000e+02
1.250000e+02
1.375000e+02
1.500000e+02
1.625000e+02
1.750000e+02
1.875000e+02
2.000000e+02
0.000000e+00
1.250000e+01
2.500000e+01
3.750000e+01
5.000000e+01
6.250000e+01
7.500000e+01
8.750000e+01
1.000000e+02
1.125000e+02
1.250000e+02
1.375000e+02
1.500000e+02
1.625000e+02
1.750000e+02
1.875000e+02
2.000000e+02
0.000000e+00
1.250000e+01
2.500000e+01
3.750000e+01
5.000000e+01
6.250000e+01
7.500000e+01
8.750000e+01
1.000000e+02
1.125000e+02
1.250000e+02
1.375000e+02
1.500000e+02
1.625000e+02
1.750000e+02
1.875000e+02
2.000000e+02
0.000000e+00
1.250000e+01
2.500000e+01
3.750000e+01
5.000000e+01
6.250000e+01
7.500000e+01
8.750000e+01
1.000000e+02
1.125000e+02
1.250000e+02
1.375000e+02
1.500000e+02
1.625000e+02
1.750000e+02
1.875000e+02
2.000000e+02
0.000000e+00
1.250000e+01
2.500000e+01
3.750000e+01
5.000000e+01
6.250000e+01
7.500000e+01
8.750000e+01
1.000000e+02
1.125000e+02
1.250000e+02
1.375000e+02
1.500000e+02
1.625000e+02
1.750000e+02
1.875000e+02
2.000000e+02
0.000000e+00
1.250000e+01
2.500000e+01
3.750000e+01
5.000000e+01
6.250000e+01
7.500000e+01
8.750000e+01
1.000000e+02
1.125000e+02
1.250000e+02
1.375000e+02
1.500000e+02
1.625000e+02
1.750000e+02
1.875000e+02
2.000000e+02
0.000000e+00
0.000000e+00
0.000000e+00
0.000000e+00
0.000000e+00
0.000000e+00
0.000000e+00
0.000000e+00
0.000000e+00
0.000000e+00
0.000000e+00
0.000000e+00
0.000000e+00
0.000000e+00
0.000000e+00
0.000000e+00
0.000000e+00
1.250000e+01
1.250000e+01
1.250000e+01
1.250000e+01
1.250000e+01
1.250000e+01
1.250000e+01
1.250000e+01
1.250000e+01
1.250000e+01
1.250000e+01
1.250000e+01
1.250000e+01
1.250000e+01
1.250000e+01
1.250000e+01
1.250000e+01
2.500000e+01
2.500000e+01
2.500000e+01
2.500000e+01
2.500000e+01
2.500000e+01
2.500000e+01
2.500000e+01
2.500000e+01
2.500000e+01
2.500000e+01
2.500000e+01
2.500000e+01
2.500000e+01
2.500000e+01
2.500000e+01
2.500000e+01
3.750000e+01
3.750000e+01
3.750000e+01
3.750000e+01
3.750000e+01
3.750000e+01
3.750000e+01
3.750000e+01
3.750000e+01
3.750000e+01
3.750000e+01
3.750000e+01
3.750000e+01
3.750000e+01
3.750000e+01
3.750000e+01
3.750000e+01
5.000000e+01
5.000000e+01
5.000000e+01
5.000000e+01
5.000000e+01
5.000000e+01
5.000000e+01
5.000000e+01
5.000000e+01
5.000000e+01
5.000000e+01
5.000000e+01
5.000000e+01
5.000000e+01
5.000000e+01
5.000000e+01
5.000000e+01
6.250000e+01
6.250000e+01
6.250000e+01
6.250000e+01
6.250000e+01
6.250000e+01
6.250000e+01
6.250000e+01
6.250000e+01
6.250000e+01
6.250000e+01
6.250000e+01
6.250000e+01
6.250000e+01
6.250000e+01
6.250000e+01
6.250000e+01
7.500000e+01
7.500000e+01
7.500000e+01
7.500000e+01
7.500000e+01
7.500000e+01
7.500000e+01
7.500000e+01
7.500000e+01
7.500000e+01
7.500000e+01
7.500000e+01
7.500000e+01
7.500000e+01
7.500000e+01
7.500000e+01
7.500000e+01
8.750000e+01
8.750000e+01
8.750000e+01
8.750000e+01
8.750000e+01
8.750000e+01
8.750000e+01
8.750000e+01
8.750000e+01
8.750000e+01
8.750000e+01
8.750000e+01
8.750000e+01
8.750000e+01
8.750000e+01
8.750000e+01
8.750000e+01
1.000000e+02
1.000000e+02
1.000000e+02
1.000000e+02
1.000000e+02
1.000000e+02
1.000000e+02
1.000000e+02
1.000000e+02
1.000000e+02
1.000000e+02
1.000000e+02
1.000000e+02
1.000000e+02
1.000000e+02
1.000000e+02
1.000000e+02
0.000000e+00
-2.236017e-01
-4.117205e-01
-5.848235e-01
-7.460479e-01
-8.950499e-01
-1.031504e+00
-1.155301e+00
-1.266618e+00
-1.365965e+00
-1.454325e+00
-1.533424e+00
-1.606233e+00
-1.677883e+00
-1.757225e+00
-1.854665e+00
-1.927782e+00
0.000000e+00
-1.335255e-01
-2.773748e-01
-4.102186e-01
-5.326221e-01
-6.450477e-01
-7.477241e-01
-8.407856e-01
-9.243976e-01
-9.988155e-01
-1.064416e+00
-1.121671e+00
-1.170945e+00
-1.211732e+00
-1.240500e+00
-1.246806e+00
-1.269413e+00
0.000000e+00
-8.349972e-02
-1.716989e-01
-2.596978e-01
-3.418509e-01
-4.172865e-01
-4.859408e-01
-5.478892e-01
-6.031455e-01
-6.516158e-01
-6.930385e-01
-7.268344e-01
-7.517986e-01
-7.657344e-01
-7.661217e-01
-7.605552e-01
-7.836117e-01
0.000000e+00
-4.030114e-02
-8.296715e-02
-1.259066e-01
-1.669689e-01
-2.047934e-01
-2.390803e-01
-2.697289e-01
-2.965626e-01
-3.192316e-01
-3.371559e-01
-3.494893e-01
-3.552220e-01
-3.538827e-01
-3.483801e-01
-3.498847e-01
-3.670528e-01
0.000000e+00
-3.717381e-05
-8.449464e-05
-1.316595e-04
-1.567028e-04
-1.106249e-04
1.038171e-04
6.611010e-04
1.847493e-03
4.089416e-03
7.943194e-03
1.396771e-02
2.231401e-02
3.174586e-02
3.826123e-02
3.647459e-02
2.510754e-02
0.000000e+00
4.024395e-02
8.283437e-02
1.256942e-01
1.667047e-01
2.045784e-01
2.391634e-01
2.706278e-01
2.992435e-01
3.253417e-01
3.492631e-01
3.711844e-01
3.907247e-01
4.063941e-01
4.156117e-01
4.163429e-01
4.105733e-01
0.000000e+00
8.349035e-02
1.716703e-01
2.596408e-01
3.417619e-01
4.171757e-01
4.858489e-01
5.479187e-01
6.035125e-01
6.527273e-01
6.956050e-01
7.320404e-01
7.616143e-01
7.834795e-01
7.966037e-01
8.008651e-01
7.995197e-01
0.000000e+00
1.335803e-01
2.774939e-01
4.104083e-01
5.328768e-01
6.453204e-01
7.478769e-01
8.405054e-01
9.230626e-01
9.953077e-01
1.056897e+00
1.107402e+00
1.146421e+00
1.173823e+00
1.190169e+00
1.197140e+00
1.198420e+00
0.000000e+00
2.236934e-01
4.119621e-01
5.852761e-01
7.467712e-01
8.960674e-01
1.032718e+00
1.156322e+00
1.266463e+00
1.362566e+00
1.443795e+00
1.509067e+00
1.557309e+00
1.588141e+00
1.603052e+00
1.606733e+00
1.606662e+00
0.000000e+00
-1.353538e-01
-2.657238e-01
-4.346574e-01
-6.419919e-01
-8.873405e-01
-1.168019e+00
-1.480887e+00
-1.822619e+00
-2.189932e+00
-2.579794e+00
-2.989791e+00
-3.418935e+00
-3.869517e+00
-4.353229e+00
-4.906697e+00
-5.701973e+00
0.000000e+00
-8.332711e-02
-2.193236e-01
-3.903480e-01
-6.010665e-01
-8.497602e-01
-1.133837e+00
-1.450079e+00
-1.795123e+00
-2.165626e+00
-2.558471e+00
-2.971134e+00
-3.402474e+00
-3.854721e+00
-4.338245e+00
-4.888355e+00
-5.562316e+00
0.000000e+00
-6.287976e-02
-1.871570e-01
-3.588101e-01
-5.715178e-01
-8.227690e-01
-1.109455e+00
-1.428328e+00
-1.776046e+00
-2.149314e+00
-2.545076e+00
-2.960894e+00
-3.395733e+00
-3.851459e+00
-4.335399e+00
-4.856643e+00
-5.361093e+00
0.000000e+00
-5.418850e-02
-1.711648e-01
-3.402986e-01
-5.537738e-01
-8.065700e-01
-1.095042e+00
-1.415820e+00
-1.765622e+00
-2.141245e+00
-2.539698e+00
-2.958494e+00
-3.396110e+00
-3.852340e+00
-4.326597e+00
-4.805539e+00
-5.246746e+00
0.000000e+00
-5.168525e-02
-1.663251e-01
-3.343935e-01
-5.479262e-01
-8.013512e-01
-1.090653e+00
-1.412463e+00
-1.763564e+00
-2.140803e+00
-2.541124e+00
-2.961646e+00
-3.399652e+00
-3.851911e+00
-4.311651e+00
-4.763145e+00
-5.179073e+00
0.000000e+00
-5.415633e-02
-1.711419e-01
-3.403394e-01
-5.539739e-01
-8.070974e-01
-1.096170e+00
-1.417956e+00
-1.769306e+00
-2.147051e+00
-2.547936e+00
-2.968479e+00
-3.404609e+00
-3.850777e+00
-4.298407e+00
-4.734416e+00
-5.141464e+00
0.000000e+00
-6.282730e-02
-1.871190e-01
-3.588781e-01
-5.718552e-01
-8.236613e-01
-1.111368e+00
-1.431956e+00
-1.782309e+00
-2.159204e+00
-2.559166e+00
-2.978178e+00
-3.411189e+00
-3.851508e+00
-4.290459e+00
-4.718097e+00
-5.124875e+00
0.000000e+00
-8.327794e-02
-2.192905e-01
-3.904383e-01
-6.014715e-01
-8.508093e-01
-1.136063e+00
-1.454272e+00
-1.802317e+00
-2.176916e+00
-2.574452e+00
-2.990621e+00
-3.419941e+00
-3.855358e+00
-4.288468e+00
-4.711350e+00
-5.120981e+00
0.000000e+00
-1.353335e-01
-2.657266e-01
-4.347972e-01
-6.424613e-01
-8.884616e-01
-1.170297e+00
-1.485043e+00
-1.829548e+00
-2.200473e+00
-2.594113e+00
-3.006069e+00
-3.430823e+00
-3.861474e+00
-4.290160e+00
-4.710116e+00
-5.121042e+00


0.000000e+00
3.309747e-08
6.843221e-08
9.959685e-08
1.257549e-07
1.468726e-07
1.633991e-07
1.760038e-07
1.853805e-07
1.921843e-07
1.970078e-07
2.003781e-07
2.027720e-07
2.046295e-07
2.063618e-07
2.085107e-07
2.110988e-07
0.000000e+00
2.260888e-08
5.316197e-08
7.790188e-08
9.760082e-08
1.130574e-07
1.249117e-07
1.337969e-07
1.402872e-07
1.448865e-07
1.480259e-07
1.500590e-07
1.512500e-07
1.518321e-07
1.524243e-07
1.541802e-07
1.568442e-07
0.000000e+00
1.682765e-08
3.689000e-08
5.356561e-08
6.687961e-08
7.708816e-08
8.472139e-08
9.029745e-08
9.425197e-08
9.694069e-08
9.865166e-08
9.961789e-08
1.000448e-07
1.002076e-07
1.006268e-07
1.020050e-07
1.041606e-07
0.000000e+00
8.978131e-09
1.834468e-08
2.668745e-08
3.347879e-08
3.863936e-08
4.242629e-08
4.512837e-08
4.698310e-08
4.817796e-08
4.886769e-08
4.919647e-08
4.932926e-08
4.947628e-08
4.984808e-08
5.068450e-08
5.200789e-08
0.000000e+00
-1.003079e-11
-2.330584e-11
-4.147908e-11
-6.731878e-11
-1.046096e-10
-1.582033e-10
-2.337247e-10
-3.359688e-10
-4.651386e-10
-6.097819e-10
-7.363786e-10
-7.845543e-10
-6.951737e-10
-4.657957e-10
-6.384841e-11
6.233358e-10
0.000000e+00
-8.995501e-09
-1.838448e-08
-2.675802e-08
-3.359187e-08
-3.881175e-08
-4.268147e-08
-4.549781e-08
-4.750636e-08
-4.889892e-08
-4.982268e-08
-5.038751e-08
-5.067655e-08
-5.077066e-08
-5.076456e-08
-5.066578e-08
-5.037302e-08
0.000000e+00
-1.683707e-08
-3.691542e-08
-5.361200e-08
-6.695253e-08
-7.719336e-08
-8.486455e-08
-9.048423e-08
-9.448937e-08
-9.724135e-08
-9.904178e-08
-1.001468e-07
-1.007751e-07
-1.011110e-07
-1.012920e-07
-1.013544e-07
-1.012721e-07
0.000000e+00
-2.261270e-08
-5.317910e-08
-7.793190e-08
-9.764265e-08
-1.131068e-07
-1.249588e-07
-1.338242e-07
-1.402700e-07
-1.447975e-07
-1.478473e-07
-1.498042e-07
-1.509962e-07
-1.516878e-07
-1.520691e-07
-1.522429e-07
-1.522673e-07
0.000000e+00
-3.311258e-08
-6.845760e-08
-9.962656e-08
-1.257810e-07
-1.468814e-07
-1.633683e-07
-1.759018e-07
-1.851652e-07
-1.918044e-07
-1.964016e-07
-1.994632e-07
-2.014105e-07
-2.025727e-07
-2.031861e-07
-2.034208e-07
-2.034614e-07
0.000000e+00
3.006370e-08
5.388098e-08
7.880721e-08
1.087288e-07
1.439493e-07
1.837363e-07
2.271438e-07
2.732724e-07
3.213854e-07
3.709216e-07
4.214977e-07
4.729567e-07
5.256237e-07
5.808827e-07
6.394597e-07
6.987807e-07
0.000000e+00
1.611927e-08
3.944175e-08
6.613751e-08
9.840542e-08
1.358584e-07
1.775861e-07
2.225863e-07
2.699877e-07
3.190915e-07
3.693754e-07
4.204941e-07
4.723040e-07
5.249593e-07
5.791213e-07
6.360971e-07
6.944739e-07
0.000000e+00
7.916333e-09
2.813591e-08
5.626466e-08
9.044289e-08
1.297274e-07
1.729943e-07
2.192361e-07
2.676193e-07
3.174872e-07
3.683541e-07
4.199005e-07
4.719586e-07
5.244382e-07
5.773987e-07
6.325277e-07
6.893697e-07
0.000000e+00
4.511188e-09
2.283065e-08
5.110213e-08
8.626710e-08
1.265546e-07
1.706572e-07
2.175608e-07
2.664632e-07
3.167375e-07
3.679149e-07
4.196707e-07
4.717805e-07
5.240201e-07
5.763322e-07
6.299972e-07
6.849118e-07
0.000000e+00
3.654678e-09
2.138996e-08
4.953806e-08
8.498044e-08
1.255855e-07
1.699569e-07
2.170748e-07
2.661498e-07
3.165631e-07
3.678432e-07
4.196443e-07
4.717046e-07
5.237938e-07
5.758338e-07
6.285578e-07
6.817470e-07
0.000000e+00
4.517054e-09
2.283865e-08
5.111292e-08
8.628245e-08
1.265793e-07
1.706995e-07
2.176322e-07
2.665761e-07
3.168975e-07
3.681063e-07
4.198329e-07
4.717977e-07
5.237885e-07
5.757224e-07
6.278663e-07
6.799293e-07
0.000000e+00
7.925715e-09
2.815052e-08
5.628627e-08
9.047487e-08
1.297790e-07
1.730808e-07
2.193788e-07
2.678410e-07
3.178005e-07
3.687374e-07
4.202555e-07
4.720574e-07
5.239298e-07
5.757597e-07
6.275608e-07
6.790815e-07
0.000000e+00
1.613277e-08
3.946675e-08
6.617424e-08
9.845823e-08
1.359378e-07
1.777092e-07
2.227760e-07
2.702689e-07
3.194787e-07
3.698485e-07
4.209501e-07
4.724596e-07
5.241412e-07
5.758380e-07
6.274443e-07
6.787987e-07
0.000000e+00
3.008595e-08
5.391860e-08
7.885931e-08
1.087990e-07
1.440455e-07
1.838716e-07
2.273357e-07
2.735391e-07
3.217361e-07
3.713335e-07
4.218685e-07
4.729842e-07
5.244106e-07
5.759485e-07
6.274363e-07
6.787554e-07


6.532725e-01
6.532728e-01
6.533203e-01
6.534044e-01
6.534810e-01
6.535407e-01
6.535875e-01
6.536238e-01
6.536483e-01
6.536639e-01
6.536766e-01
6.536881e-01
6.536943e-01
6.536879e-01
6.536708e-01
6.536576e-01
6.533594e-01
6.533577e-01
6.533933e-01
6.534596e-01
6.535212e-01
6.535695e-01
6.536074e-01
6.536367e-01
6.536560e-01
6.536679e-01
6.536774e-01
6.536864e-01
6.536906e-01
6.536827e-01
6.536649e-01
6.536514e-01
6.535031e-01
6.535001e-01
6.535187e-01
6.535556e-01
6.535907e-01
6.536190e-01
6.536415e-01
6.536585e-01
6.536691e-01
6.536746e-01
6.536790e-01
6.536839e-01
6.536864e-01
6.536799e-01
6.536654e-01
6.536546e-01
6.536045e-01
6.536022e-01
6.536091e-01
6.536243e-01
6.536406e-01
6.536544e-01
6.536655e-01
6.536737e-01
6.536779e-01
6.536789e-01
6.536797e-01
6.536825e-01
6.536859e-01
6.536847e-01
6.536778e-01
6.536719e-01
6.536045e-01
6.536020e-01
6.536089e-01
6.536243e-01
6.536406e-01
6.536541e-01
6.536653e-01
6.536737e-01
6.536779e-01
6.536787e-01
6.536796e-01
6.536834e-01
6.536892e-01
6.536930e-01
6.536922e-01
6.536899e-01
6.535031e-01
6.534995e-01
6.535182e-01
6.535558e-01
6.535907e-01
6.536183e-01
6.536410e-01
6.536589e-01
6.536696e-01
6.536744e-01
6.536785e-01
6.536851e-01
6.536929e-01
6.536984e-01
6.536996e-01
6.536986e-01
6.533596e-01
6.533569e-01
6.533926e-01
6.534600e-01
6.535213e-01
6.535685e-01
6.536068e-01
6.536376e-01
6.536573e-01
6.536681e-01
6.536764e-01
6.536857e-01
6.536943e-01
6.536993e-01
6.537001e-01
6.536993e-01
6.532728e-01
6.532719e-01
6.533194e-01
6.534048e-01
6.534810e-01
6.535394e-01
6.535867e-01
6.536247e-01
6.536498e-01
6.536642e-01
6.536749e-01
6.536856e-01
6.536942e-01
6.536984e-01
6.536987e-01
6.536978e-01


8.875170e-01
9.034677e-01
9.182142e-01
9.295593e-01
9.400944e-01
9.498138e-01
9.586722e-01
9.665644e-01
9.734064e-01
9.791298e-01
9.836812e-01
9.870153e-01
9.890881e-01
9.898279e-01
9.903620e-01
9.574574e-01
9.574482e-01
9.501366e-01
9.548335e-01
9.609637e-01
9.666815e-01
9.718809e-01
9.765895e-01
9.808557e-01
9.847195e-01
9.882200e-01
9.913964e-01
9.942729e-01
9.967825e-01
9.984260e-01
9.942706e-01
9.379445e-01
9.852153e-01
9.810151e-01
9.798785e-01
9.814696e-01
9.835646e-01
9.855951e-01
9.874810e-01
9.892638e-01
9.909911e-01
9.926757e-01
9.942491e-01
9.954673e-01
9.957216e-01
9.935277e-01
9.855690e-01
9.712548e-01
9.969901e-01
9.939269e-01
9.920340e-01
9.915529e-01
9.917435e-01
9.920644e-01
9.923850e-01
9.926985e-01
9.930064e-01
9.932642e-01
9.933359e-01
9.929522e-01
9.917351e-01
9.895508e-01
9.876986e-01
9.872298e-01
9.970014e-01
9.939429e-01
9.920483e-01
9.915500e-01
9.916958e-01
9.919270e-01
9.920873e-01
9.921410e-01
9.920666e-01
9.918292e-01
9.913871e-01
9.907501e-01
9.901436e-01
9.902640e-01
9.919783e-01
9.949458e-01
9.852365e-01
9.810472e-01
9.799093e-01
9.814699e-01
9.834831e-01
9.853435e-01
9.869180e-01
9.881840e-01
9.891323e-01
9.897711e-01
9.901750e-01
9.905698e-01
9.913996e-01
9.931394e-01
9.957531e-01
9.984555e-01
9.574442e-01
9.501337e-01
9.548271e-01
9.609461e-01
9.666366e-01
9.717785e-01
9.763773e-01
9.804505e-01
9.840007e-01
9.870359e-01
9.896057e-01
9.918500e-01
9.940115e-01
9.962777e-01
9.983969e-01
9.997317e-01
8.874401e-01
9.033477e-01
9.180671e-01
9.293939e-01
9.399458e-01
9.497601e-01
9.588555e-01
9.672096e-01
9.748236e-01
9.816817e-01
9.877014e-01
9.926954e-01
9.964107e-01
9.987030e-01
9.997458e-01
9.999946e-01
1 2 19 18
2 3 20 19
3 4 21 20
4 5 22 21
5 6 23 22
6 7 24 23
7 8 25 24
8 9 26 25
9 10 27 26
10 11 28 27
11 12 29 28
12 13 30 29
13 14 31 30
14 15 32 31
15 16 33 32
16 17 34 33
18 19 36 35
19 20 37 36
20 21 38 37
21 22 39 38
22 23 40 39
23 24 41 40
24 25 42 41
25 26 43 42
26 27 44 43
27 28 45 44
28 29 46 45
29 30 47 46
30 31 48 47
31 32 49 48
32 33 50 49
33 34 51 50
35 36 53 52
36 37 54 53
37 38 55 54
38 39 56 55
39 40 57 56
40 41 58 57
41 42 59 58
42 43 60 59
43 44 61 60
44 45 62 61
45 46 63 62
46 47 64 63
47 48 65 64
48 49 66 65
49 50 67 66
50 51 68 67
52 53 70 69
53 54 71 70
54 55 72 71
55 56 73 72
56 57 74 73
57 58 75 74
58 59 76 75
59 60 77 76
60 61 78 77
61 62 79 78
62 63 80 79
63 64 81 80
64 65 82 81
65 66 83 82
66 67 84 83
67 68 85 84
69 70 87 86
70 71 88 87
71 72 89 88
72 73 90 89
73 74 91 90
74 75 92 91
75 76 93 92
76 77 94 93
77 78 95 94
78 79 96 95
79 80 97 96
80 81 98 97
81 82 99 98
82 83 100 99
83 84 101 100
84 85 102 101
86 87 104 103
87 88 105 104
88 89 106 105
89 90 107 106
90 91 108 107
91 92 109 108
92 93 110 109
93 94 111 110
94 95 112 111
95 96 113 112
96 97 114 113
97 98 115 114
98 99 116 115
99 100 117 116
100 101 118 117
101 102 119 118
103 104 121 120
104 105 122 121
105 106 123 122
106 107 124 123
107 108 125 124
108 109 126 125
109 110 127 126
110 111 128 127
111 112 129 128
112 113 130 129
113 114 131 130
114 115 132 131
115 116 133 132
116 117 134 133
117 118 135 134
118 119 136 135
120 121 138 137
121 122 139 138
122 123 140 139
123 124 141 140
124 125 142 141
125 126 143 142
126 127 144 143
127 128 145 144
128 129 146 145
129 130 147 146
130 131 148 147
131 132 149 148
132 133 150 149
133 134 151 150
134 135 152 151
135 136 153 152
