TITLE = "Solution"
VARIABLES = x, y, u, v, psiu, psiv, t, stress
ZONE T="structure" N=153 E=128 F=FEBLOCK ET=QUADRILATERAL VARLOCATION=([7,8]=cellcentered)
0.000000e+00
1.250000e+01
2.500000e+01
3.750000e+01
5.000000e+01
6.250000e+01
7.500000e+01
8.750000e+01
1.000000e+02
1.125000e+02
1.250000e+02
1.375000e+02
1.500000e+02
1.625000e+02
1.750000e+02
1.875000e+02
2.000000e+02
0.000000e+00
1.250000e+01
2.500000e+01
3.750000e+01
5.000000e+01
6.250000e+01
7.500000e+01
8.750000e+01
1.000000e+02
1.125000e+02
1.250000e+02
1.375000e+02
1.500000e+02
1.625000e+02
1.750000e+02
1.875000e+02
2.000000e+02
0.000000e+00
1.250000e+01
2.500000e+01
3.750000e+01
5.000000e+01
6.250000e+01
7.500000e+01
8.750000e+01
1.000000e+02
1.125000e+02
1.250000e+02
1.375000e+02
1.500000e+02
1.625000e+02
1.750000e+02
1.875000e+02
2.000000e+02
0.000000e+00
1.250000e+01
2.500000e+01
3.750000e+01
5.000000e+01
6.250000e+01
7.500000e+01
8.750000e+01
1.000000e+02
1.125000e+02
1.250000e+02
1.375000e+02
1.500000e+02
1.625000e+02
1.750000e+02
1.875000e+02
2.000000e+02
0.000000e+00
1.250000e+01
2.500000e+01
3.750000e+01
5.000000e+01
6.250000e+01
7.500000e+01
8.750000e+01
1.000000e+02
1.125000e+02
1.250000e+02
1.375000e+02
1.500000e+02
1.625000e+02
1.750000e+02
1.875000e+02
2.000000e+02
0.000000e+00
1.250000e+01
2.500000e+01
3.750000e+01
5.000000e+01
6.250000e+01
7.500000e+01
8.750000e+01
1.000000e+02
1.125000e+02
1.250000e+02
1.375000e+02
1.500000e+02
1.625000e+02
1.750000e+02
1.875000e+02
2.000000e+02
0.000000e+00
1.250000e+01
2.500000e+01
3.750000e+01
5.000000e+01
6.250000e+01
7.500000e+01
8.750000e+01
1.000000e+02
1.125000e+02
1.250000e+02
1.375000e+02
1.500000e+02
1.625000e+02
1.750000e+02
1.875000e+02
2.000000e+02
0.000000e+00
1.250000e+01
2.500000e+01
3.750000e+01
5.000000e+01
6.250000e+01
7.500000e+01
8.750000e+01
1.000000e+02
1.125000e+02
1.250000e+02
1.375000e+02
1.500000e+02
1.625000e+02
1.750000e+02
1.875000e+02
2.000000e+02
0.000000e+00
1.250000e+01
2.500000e+01
3.750000e+01
5.000000e+01
6.250000e+01
7.500000e+01
8.750000e+01
1.000000e+02
1.125000e+02
1.250000e+02
1.375000e+02
1.500000e+02
1.625000e+02
1.750000e+02
1.875000e+02
2.000000e+02
0.000000e+00
0.000000e+00
0.000000e+00
0.000000e+00
0.000000e+00
0.000000e+00
0.000000e+00
0.000000e+00
0.000000e+00
0.000000e+00
0.000000e+00
0.000000e+00
0.000000e+00
0.000000e+00
0.000000e+00
0.000000e+00
0.000000e+00
1.250000e+01
1.250000e+01
1.250000e+01
1.250000e+01
1.250000e+01
1.250000e+01
1.250000e+01
1.250000e+01
1.250000e+01
1.250000e+01
1.250000e+01
1.250000e+01
1.250000e+01
1.250000e+01
1.250000e+01
1.250000e+01
1.250000e+01
2.500000e+01
2.500000e+01
2.500000e+01
2.500000e+01
2.500000e+01
2.500000e+01
2.500000e+01
2.500000e+01
2.500000e+01
2.500000e+01
2.500000e+01
2.500000e+01
2.500000e+01
2.500000e+01
2.500000e+01
2.500000e+01
2.500000e+01
3.750000e+01
3.750000e+01
3.750000e+01
3.750000e+01
3.750000e+01
3.750000e+01
3.750000e+01
3.750000e+01
3.750000e+01
3.750000e+01
3.750000e+01
3.750000e+01
3.750000e+01
3.750000e+01
3.750000e+01
3.750000e+01
3.750000e+01
5.000000e+01
5.000000e+01
5.000000e+01
5.000000e+01
5.000000e+01
5.000000e+01
5.000000e+01
5.000000e+01
5.000000e+01
5.000000e+01
5.000000e+01
5.000000e+01
5.000000e+01
5.000000e+01
5.000000e+01
5.000000e+01
5.000000e+01
6.250000e+01
6.250000e+01
6.250000e+01
6.250000e+01
6.250000e+01
6.250000e+01
6.250000e+01
6.250000e+01
6.250000e+01
6.250000e+01
6.250000e+01
6.250000e+01
6.250000e+01
6.250000e+01
6.250000e+01
6.250000e+01
6.250000e+01
7.500000e+01
7.500000e+01
7.500000e+01
7.500000e+01
7.500000e+01
7.500000e+01
7.500000e+01
7.500000e+01
7.500000e+01
7.500000e+01
7.500000e+01
7.500000e+01
7.500000e+01
7.500000e+01
7.500000e+01
7.500000e+01
7.500000e+01
8.750000e+01
8.750000e+01
8.750000e+01
8.750000e+01
8.750000e+01
8.750000e+01
8.750000e+01
8.750000e+01
8.750000e+01
8.750000e+01
8.750000e+01
8.750000e+01
8.750000e+01
8.750000e+01
8.750000e+01
8.750000e+01
8.750000e+01
1.000000e+02
1.000000e+02
1.000000e+02
1.000000e+02
1.000000e+02
1.000000e+02
1.000000e+02
1.000000e+02
1.000000e+02
1.000000e+02
1.000000e+02
1.000000e+02
1.000000e+02
1.000000e+02
1.000000e+02
1.000000e+02
1.000000e+02
0.000000e+00
-9.050030e-01
-1.591262e+00
-2.285453e+00
-2.973576e+00
-3.632697e+00
-4.304042e+00
-4.974010e+00
-5.635288e+00
-6.297325e+00
-6.965252e+00
-7.650762e+00
-8.357423e+00
-9.072424e+00
-9.786571e+00
-1.046413e+01
-1.090736e+01
0.000000e+00
-4.543791e-01
-9.409311e-01
-1.442300e+00
-1.959126e+00
-2.452318e+00
-2.954243e+00
-3.457260e+00
-3.952460e+00
-4.445786e+00
-4.938632e+00
-5.433468e+00
-5.922562e+00
-6.369311e+00
-6.684771e+00
-6.762834e+00
-6.924687e+00
0.000000e+00
-2.146393e-01
-4.696855e-01
-7.820479e-01
-1.120614e+00
-1.452307e+00
-1.793034e+00
-2.133746e+00
-2.469033e+00
-2.799253e+00
-3.118502e+00
-3.416599e+00
-3.672182e+00
-3.845808e+00
-3.889671e+00
-3.864626e+00
-4.017763e+00
0.000000e+00
-9.270009e-02
-2.002469e-01
-3.447028e-01
-5.009526e-01
-6.684996e-01
-8.393669e-01
-1.008172e+00
-1.172809e+00
-1.328103e+00
-1.465196e+00
-1.570167e+00
-1.624299e+00
-1.611561e+00
-1.550894e+00
-1.550571e+00
-1.680795e+00
0.000000e+00
-1.259280e-03
-2.500424e-03
-3.461000e-03
-3.720091e-03
-2.618022e-03
9.070911e-04
8.660575e-03
2.313885e-02
4.790815e-02
8.884690e-02
1.536934e-01
2.474474e-01
3.612500e-01
4.521977e-01
4.569399e-01
3.548821e-01
0.000000e+00
9.054193e-02
1.960029e-01
3.386189e-01
4.941048e-01
6.629769e-01
8.392073e-01
1.020324e+00
1.208223e+00
1.404191e+00
1.608706e+00
1.818782e+00
2.024452e+00
2.203307e+00
2.318807e+00
2.339538e+00
2.281749e+00
0.000000e+00
2.135767e-01
4.674707e-01
7.786888e-01
1.116191e+00
1.447434e+00
1.789736e+00
2.134916e+00
2.478254e+00
2.824947e+00
3.174090e+00
3.512964e+00
3.816671e+00
4.056354e+00
4.206750e+00
4.258100e+00
4.244566e+00
0.000000e+00
4.544748e-01
9.408120e-01
1.441992e+00
1.958211e+00
2.449744e+00
2.949961e+00
3.449871e+00
3.936435e+00
4.418806e+00
4.899748e+00
5.358650e+00
5.753721e+00
6.048356e+00
6.229348e+00
6.307468e+00
6.322006e+00
0.000000e+00
9.060383e-01
1.593211e+00
2.288768e+00
2.978130e+00
3.637006e+00
4.307533e+00
4.973665e+00
5.621440e+00
6.262793e+00
6.898124e+00
7.491722e+00
7.978214e+00
8.305860e+00
8.467442e+00
8.506738e+00
8.505427e+00
0.000000e+00
-5.615902e-01
-1.195357e+00
-2.037841e+00
-3.049056e+00
-4.227307e+00
-5.584626e+00
-7.114310e+00
-8.816381e+00
-1.069443e+01
-1.275067e+01
-1.499116e+01
-1.742100e+01
-2.004422e+01
-2.290339e+01
-2.620501e+01
-3.106675e+01
0.000000e+00
-3.636214e-01
-1.027658e+00
-1.857684e+00
-2.874190e+00
-4.053588e+00
-5.408946e+00
-6.940481e+00
-8.644274e+00
-1.052285e+01
-1.257850e+01
-1.481771e+01
-1.725076e+01
-1.989296e+01
-2.278853e+01
-2.610466e+01
-3.011961e+01
0.000000e+00
-3.160565e-01
-9.218536e-01
-1.743487e+00
-2.752395e+00
-3.930475e+00
-5.285799e+00
-6.818475e+00
-8.525311e+00
-1.040856e+01
-1.247137e+01
-1.472189e+01
-1.717362e+01
-1.984973e+01
-2.277973e+01
-2.592764e+01
-2.888620e+01
0.000000e+00
-3.340712e-01
-8.948097e-01
-1.692886e+00
-2.685394e+00
-3.860444e+00
-5.216446e+00
-6.750994e+00
-8.463157e+00
-1.035559e+01
-1.243317e+01
-1.470356e+01
-1.717540e+01
-1.985747e+01
-2.272633e+01
-2.559665e+01
-2.810456e+01
0.000000e+00
-3.429462e-01
-8.964372e-01
-1.680245e+00
-2.667759e+00
-3.841471e+00
-5.199953e+00
-6.738744e+00
-8.457243e+00
-1.035928e+01
-1.245130e+01
-1.473764e+01
-1.721402e+01
-1.986002e+01
-2.259926e+01
-2.524765e+01
-2.751622e+01
0.000000e+00
-3.340226e-01
-8.955448e-01
-1.695416e+00
-2.691025e+00
-3.870450e+00
-5.233226e+00
-6.777644e+00
-8.501364e+00
-1.040850e+01
-1.250756e+01
-1.479916e+01
-1.726371e+01
-1.985232e+01
-2.246953e+01
-2.496225e+01
-2.713000e+01
0.000000e+00
-3.160201e-01
-9.230670e-01
-1.747521e+00
-2.761411e+00
-3.946722e+00
-5.313154e+00
-6.861993e+00
-8.588066e+00
-1.049587e+01
-1.259460e+01
-1.488203e+01
-1.732600e+01
-1.985975e+01
-2.238532e+01
-2.478576e+01
-2.695029e+01
0.000000e+00
-3.636226e-01
-1.028988e+00
-1.862060e+00
-2.884035e+00
-4.071664e+00
-5.439503e+00
-6.988748e+00
-8.714250e+00
-1.062112e+01
-1.271644e+01
-1.499322e+01
-1.741205e+01
-1.989996e+01
-2.236304e+01
-2.471061e+01
-2.690855e+01
0.000000e+00
-5.617886e-01
-1.196879e+00
-2.042481e+00
-3.058995e+00
-4.245456e+00
-5.615204e+00
-7.161329e+00
-8.883670e+00
-1.078956e+01
-1.288034e+01
-1.513971e+01
-1.752413e+01
-1.996569e+01
-2.238125e+01
-2.469657e+01
-2.690975e+01


0.000000e+00
1.361971e-05
2.407383e-05
3.558910e-05
4.971811e-05
6.272113e-05
7.533877e-05
8.845755e-05
1.009946e-04
1.129736e-04
1.249610e-04
1.360256e-04
1.441735e-04
1.494497e-04
1.531441e-04
1.565909e-04
1.605553e-04
0.000000e+00
1.003577e-05
1.932013e-05
2.781914e-05
3.913596e-05
4.929234e-05
5.849061e-05
6.839728e-05
7.784509e-05
8.654828e-05
9.523487e-05
1.027845e-04
1.071226e-04
1.080528e-04
1.080539e-04
1.109013e-04
1.154921e-04
0.000000e+00
7.981443e-06
1.448810e-05
2.026229e-05
2.800854e-05
3.472297e-05
4.076051e-05
4.721325e-05
5.318796e-05
5.847294e-05
6.331220e-05
6.694412e-05
6.844038e-05
6.809851e-05
6.806306e-05
7.079938e-05
7.540073e-05
0.000000e+00
4.142665e-06
6.868489e-06
1.042526e-05
1.398253e-05
1.708198e-05
2.026141e-05
2.328179e-05
2.594425e-05
2.821295e-05
2.984394e-05
3.070734e-05
3.090856e-05
3.109986e-05
3.194021e-05
3.449341e-05
3.845399e-05
0.000000e+00
-3.052001e-08
-6.842382e-08
-1.112125e-07
-1.606242e-07
-2.146394e-07
-2.761212e-07
-3.650089e-07
-5.104824e-07
-7.952714e-07
-1.354730e-06
-2.112054e-06
-2.738501e-06
-2.749654e-06
-1.869372e-06
-3.863632e-07
1.746533e-06
0.000000e+00
-4.195069e-06
-6.979782e-06
-1.061853e-05
-1.426059e-05
-1.744162e-05
-2.072701e-05
-2.384369e-05
-2.659810e-05
-2.914701e-05
-3.134976e-05
-3.309785e-05
-3.434094e-05
-3.491884e-05
-3.515027e-05
-3.518297e-05
-3.457603e-05
0.000000e+00
-7.997172e-06
-1.454203e-05
-2.037688e-05
-2.817499e-05
-3.496992e-05
-4.110409e-05
-4.752043e-05
-5.343540e-05
-5.870923e-05
-6.308512e-05
-6.586859e-05
-6.739733e-05
-6.840965e-05
-6.916945e-05
-6.968993e-05
-6.973172e-05
0.000000e+00
-1.002217e-05
-1.931095e-05
-2.782612e-05
-3.913692e-05
-4.932534e-05
-5.858961e-05
-6.838866e-05
-7.778783e-05
-8.666805e-05
-9.451193e-05
-9.967403e-05
-1.022742e-04
-1.037310e-04
-1.046255e-04
-1.050775e-04
-1.051816e-04
0.000000e+00
-1.360755e-05
-2.402980e-05
-3.550408e-05
-4.955723e-05
-6.247739e-05
-7.503641e-05
-8.798672e-05
-1.004109e-04
-1.126116e-04
-1.240048e-04
-1.324668e-04
-1.375334e-04
-1.400848e-04
-1.410866e-04
-1.413013e-04
-1.412968e-04
0.000000e+00
1.150538e-05
1.902356e-05
2.983898e-05
4.406207e-05
5.996616e-05
7.961161e-05
1.031413e-04
1.294639e-04
1.590423e-04
1.919474e-04
2.269747e-04
2.634628e-04
3.028730e-04
3.489280e-04
4.019417e-04
4.554529e-04
0.000000e+00
6.499653e-06
1.470531e-05
2.420180e-05
3.790658e-05
5.437568e-05
7.398533e-05
9.742885e-05
1.240972e-04
1.538630e-04
1.869847e-04
2.230621e-04
2.613024e-04
3.017728e-04
3.459323e-04
3.964188e-04
4.483728e-04
0.000000e+00
3.179276e-06
1.072596e-05
1.993067e-05
3.310477e-05
5.003460e-05
6.991818e-05
9.333304e-05
1.203155e-04
1.504327e-04
1.838995e-04
2.207634e-04
2.602204e-04
3.011058e-04
3.420790e-04
3.888303e-04
4.387201e-04
0.000000e+00
1.963388e-06
8.655238e-06
1.806064e-05
3.118831e-05
4.815884e-05
6.823903e-05
9.178407e-05
1.189125e-04
1.493381e-04
1.830787e-04
2.200370e-04
2.596762e-04
3.001929e-04
3.389869e-04
3.814509e-04
4.277777e-04
0.000000e+00
1.635701e-06
8.033428e-06
1.747325e-05
3.069626e-05
4.756241e-05
6.771163e-05
9.135556e-05
1.185430e-04
1.491812e-04
1.831345e-04
2.200265e-04
2.593996e-04
2.997282e-04
3.378581e-04
3.770409e-04
4.189179e-04
0.000000e+00
1.981432e-06
8.671402e-06
1.806978e-05
3.116941e-05
4.809062e-05
6.815454e-05
9.169112e-05
1.188391e-04
1.495730e-04
1.837911e-04
2.208160e-04
2.599439e-04
2.996781e-04
3.381662e-04
3.759824e-04
4.139941e-04
0.000000e+00
3.206537e-06
1.075411e-05
1.995232e-05
3.308017e-05
4.992864e-05
6.978135e-05
9.314683e-05
1.201475e-04
1.508365e-04
1.852192e-04
2.223432e-04
2.610277e-04
3.000849e-04
3.383059e-04
3.756390e-04
4.120889e-04
0.000000e+00
6.530422e-06
1.474790e-05
2.423797e-05
3.790198e-05
5.429247e-05
7.382866e-05
9.719270e-05
1.239175e-04
1.542379e-04
1.881398e-04
2.244309e-04
2.621435e-04
3.004921e-04
3.383685e-04
3.754321e-04
4.116953e-04
0.000000e+00
1.153497e-05
1.907174e-05
2.988194e-05
4.406738e-05
5.991485e-05
7.946203e-05
1.028771e-04
1.293529e-04
1.593763e-04
1.923472e-04
2.269915e-04
2.633563e-04
3.009365e-04
3.384858e-04
3.753816e-04
4.116895e-04


2.832263e+00
2.704349e+00
2.767757e+00
2.770096e+00
2.804855e+00
3.066034e+00
3.325931e+00
3.643549e+00
4.097188e+00
4.702219e+00
5.507758e+00
6.358896e+00
6.922766e+00
6.791356e+00
5.803204e+00
4.861006e+00
4.465300e+00
4.339248e+00
4.326313e+00
4.293804e+00
4.281553e+00
4.447135e+00
4.614938e+00
4.819541e+00
5.124009e+00
5.536184e+00
6.087804e+00
6.674088e+00
7.020905e+00
6.668888e+00
5.479291e+00
4.339395e+00
6.388665e+00
6.318588e+00
6.288074e+00
6.225296e+00
6.195860e+00
6.253283e+00
6.300583e+00
6.363344e+00
6.465865e+00
6.605040e+00
6.801842e+00
7.019408e+00
7.105698e+00
6.676341e+00
5.578186e+00
4.625664e+00
7.332355e+00
7.302254e+00
7.279337e+00
7.226354e+00
7.204951e+00
7.204766e+00
7.190699e+00
7.171750e+00
7.148139e+00
7.114587e+00
7.085448e+00
7.077370e+00
7.057987e+00
6.812768e+00
6.244216e+00
5.760938e+00
7.331742e+00
7.300833e+00
7.276759e+00
7.222011e+00
7.197829e+00
7.193791e+00
7.172044e+00
7.136316e+00
7.089657e+00
7.035389e+00
6.985808e+00
6.967459e+00
6.999233e+00
6.995138e+00
6.886516e+00
6.773713e+00
6.386360e+00
6.313838e+00
6.279417e+00
6.210809e+00
6.173117e+00
6.221547e+00
6.249581e+00
6.272812e+00
6.345382e+00
6.487982e+00
6.676922e+00
6.866376e+00
7.046597e+00
7.200360e+00
7.292311e+00
7.329336e+00
4.462400e+00
4.333100e+00
4.315852e+00
4.276298e+00
4.255517e+00
4.417123e+00
4.571497e+00
4.753284e+00
5.101638e+00
5.640948e+00
6.261155e+00
6.786177e+00
7.145481e+00
7.374862e+00
7.508888e+00
7.567508e+00
2.830612e+00
2.700320e+00
2.761371e+00
2.759857e+00
2.790946e+00
3.059056e+00
3.324552e+00
3.654209e+00
4.231979e+00
5.079337e+00
6.010270e+00
6.756524e+00
7.219110e+00
7.470958e+00
7.597982e+00
7.650298e+00


-6.241826e-01
-2.195475e-01
-2.526716e-01
-2.730092e-01
-1.682158e-01
-2.108616e-01
-2.121365e-01
-1.810665e-01
-1.806276e-01
-1.928697e-01
-2.313627e-01
-2.560076e-01
-1.705715e-01
9.090756e-02
4.925515e-01
-6.926897e-01
5.550216e-01
4.158364e-01
3.256197e-01
2.617891e-01
3.039529e-01
2.668176e-01
2.525774e-01
2.608440e-01
2.590362e-01
2.677623e-01
2.971783e-01
3.817692e-01
5.621828e-01
7.932589e-01
7.404640e-01
-1.211983e+00
8.127410e-01
6.587635e-01
5.034767e-01
4.469666e-01
4.365371e-01
4.079679e-01
3.994131e-01
4.014106e-01
4.065278e-01
4.258361e-01
4.618417e-01
5.110991e-01
5.306142e-01
4.170347e-01
1.548259e-01
-3.160628e-01
8.599405e-01
7.267928e-01
5.620460e-01
4.756566e-01
4.331182e-01
4.119291e-01
4.064462e-01
4.079021e-01
4.081063e-01
3.976969e-01
3.639326e-01
2.873333e-01
1.350800e-01
-6.405681e-02
-6.790718e-02
4.232789e-02
8.608413e-01
7.278396e-01
5.627624e-01
4.741889e-01
4.275628e-01
3.983093e-01
3.796451e-01
3.625044e-01
3.332731e-01
2.752563e-01
1.792562e-01
5.059324e-02
-8.021756e-02
-1.040512e-01
1.060593e-01
4.644176e-01
8.148667e-01
6.613691e-01
5.056513e-01
4.456002e-01
4.278187e-01
3.835192e-01
3.487429e-01
3.130559e-01
2.524915e-01
1.636025e-01
6.332134e-02
-6.415689e-03
1.029308e-02
1.743353e-01
4.805481e-01
8.146709e-01
5.564960e-01
4.177614e-01
3.269724e-01
2.621826e-01
3.020362e-01
2.557556e-01
2.280084e-01
2.208220e-01
1.755312e-01
1.047081e-01
6.638170e-02
1.268713e-01
2.957930e-01
5.423788e-01
8.000383e-01
9.671627e-01
-6.264758e-01
-2.210109e-01
-2.552314e-01
-2.746319e-01
-1.652448e-01
-2.075690e-01
-2.014329e-01
-1.437111e-01
-1.314478e-01
-1.300517e-01
-2.616117e-02
2.481867e-01
5.873153e-01
8.432275e-01
9.689211e-01
9.993858e-01
1 2 19 18
2 3 20 19
3 4 21 20
4 5 22 21
5 6 23 22
6 7 24 23
7 8 25 24
8 9 26 25
9 10 27 26
10 11 28 27
11 12 29 28
12 13 30 29
13 14 31 30
14 15 32 31
15 16 33 32
16 17 34 33
18 19 36 35
19 20 37 36
20 21 38 37
21 22 39 38
22 23 40 39
23 24 41 40
24 25 42 41
25 26 43 42
26 27 44 43
27 28 45 44
28 29 46 45
29 30 47 46
30 31 48 47
31 32 49 48
32 33 50 49
33 34 51 50
35 36 53 52
36 37 54 53
37 38 55 54
38 39 56 55
39 40 57 56
40 41 58 57
41 42 59 58
42 43 60 59
43 44 61 60
44 45 62 61
45 46 63 62
46 47 64 63
47 48 65 64
48 49 66 65
49 50 67 66
50 51 68 67
52 53 70 69
53 54 71 70
54 55 72 71
55 56 73 72
56 57 74 73
57 58 75 74
58 59 76 75
59 60 77 76
60 61 78 77
61 62 79 78
62 63 80 79
63 64 81 80
64 65 82 81
65 66 83 82
66 67 84 83
67 68 85 84
69 70 87 86
70 71 88 87
71 72 89 88
72 73 90 89
73 74 91 90
74 75 92 91
75 76 93 92
76 77 94 93
77 78 95 94
78 79 96 95
79 80 97 96
80 81 98 97
81 82 99 98
82 83 100 99
83 84 101 100
84 85 102 101
86 87 104 103
87 88 105 104
88 89 106 105
89 90 107 106
90 91 108 107
91 92 109 108
92 93 110 109
93 94 111 110
94 95 112 111
95 96 113 112
96 97 114 113
97 98 115 114
98 99 116 115
99 100 117 116
100 101 118 117
101 102 119 118
103 104 121 120
104 105 122 121
105 106 123 122
106 107 124 123
107 108 125 124
108 109 126 125
109 110 127 126
110 111 128 127
111 112 129 128
112 113 130 129
113 114 131 130
114 115 132 131
115 116 133 132
116 117 134 133
117 118 135 134
118 119 136 135
120 121 138 137
121 122 139 138
122 123 140 139
123 124 141 140
124 125 142 141
125 126 143 142
126 127 144 143
127 128 145 144
128 129 146 145
129 130 147 146
130 131 148 147
131 132 149 148
132 133 150 149
133 134 151 150
134 135 152 151
135 136 153 152
