TITLE = "Solution"
VARIABLES = x, y, u, v, psiu, psiv, t, stress
ZONE T="structure" N=153 E=128 F=FEBLOCK ET=QUADRILATERAL VARLOCATION=([7,8]=cellcentered)
0.000000e+00
1.250000e+01
2.500000e+01
3.750000e+01
5.000000e+01
6.250000e+01
7.500000e+01
8.750000e+01
1.000000e+02
1.125000e+02
1.250000e+02
1.375000e+02
1.500000e+02
1.625000e+02
1.750000e+02
1.875000e+02
2.000000e+02
0.000000e+00
1.250000e+01
2.500000e+01
3.750000e+01
5.000000e+01
6.250000e+01
7.500000e+01
8.750000e+01
1.000000e+02
1.125000e+02
1.250000e+02
1.375000e+02
1.500000e+02
1.625000e+02
1.750000e+02
1.875000e+02
2.000000e+02
0.000000e+00
1.250000e+01
2.500000e+01
3.750000e+01
5.000000e+01
6.250000e+01
7.500000e+01
8.750000e+01
1.000000e+02
1.125000e+02
1.250000e+02
1.375000e+02
1.500000e+02
1.625000e+02
1.750000e+02
1.875000e+02
2.000000e+02
0.000000e+00
1.250000e+01
2.500000e+01
3.750000e+01
5.000000e+01
6.250000e+01
7.500000e+01
8.750000e+01
1.000000e+02
1.125000e+02
1.250000e+02
1.375000e+02
1.500000e+02
1.625000e+02
1.750000e+02
1.875000e+02
2.000000e+02
0.000000e+00
1.250000e+01
2.500000e+01
3.750000e+01
5.000000e+01
6.250000e+01
7.500000e+01
8.750000e+01
1.000000e+02
1.125000e+02
1.250000e+02
1.375000e+02
1.500000e+02
1.625000e+02
1.750000e+02
1.875000e+02
2.000000e+02
0.000000e+00
1.250000e+01
2.500000e+01
3.750000e+01
5.000000e+01
6.250000e+01
7.500000e+01
8.750000e+01
1.000000e+02
1.125000e+02
1.250000e+02
1.375000e+02
1.500000e+02
1.625000e+02
1.750000e+02
1.875000e+02
2.000000e+02
0.000000e+00
1.250000e+01
2.500000e+01
3.750000e+01
5.000000e+01
6.250000e+01
7.500000e+01
8.750000e+01
1.000000e+02
1.125000e+02
1.250000e+02
1.375000e+02
1.500000e+02
1.625000e+02
1.750000e+02
1.875000e+02
2.000000e+02
0.000000e+00
1.250000e+01
2.500000e+01
3.750000e+01
5.000000e+01
6.250000e+01
7.500000e+01
8.750000e+01
1.000000e+02
1.125000e+02
1.250000e+02
1.375000e+02
1.500000e+02
1.625000e+02
1.750000e+02
1.875000e+02
2.000000e+02
0.000000e+00
1.250000e+01
2.500000e+01
3.750000e+01
5.000000e+01
6.250000e+01
7.500000e+01
8.750000e+01
1.000000e+02
1.125000e+02
1.250000e+02
1.375000e+02
1.500000e+02
1.625000e+02
1.750000e+02
1.875000e+02
2.000000e+02
0.000000e+00
0.000000e+00
0.000000e+00
0.000000e+00
0.000000e+00
0.000000e+00
0.000000e+00
0.000000e+00
0.000000e+00
0.000000e+00
0.000000e+00
0.000000e+00
0.000000e+00
0.000000e+00
0.000000e+00
0.000000e+00
0.000000e+00
1.250000e+01
1.250000e+01
1.250000e+01
1.250000e+01
1.250000e+01
1.250000e+01
1.250000e+01
1.250000e+01
1.250000e+01
1.250000e+01
1.250000e+01
1.250000e+01
1.250000e+01
1.250000e+01
1.250000e+01
1.250000e+01
1.250000e+01
2.500000e+01
2.500000e+01
2.500000e+01
2.500000e+01
2.500000e+01
2.500000e+01
2.500000e+01
2.500000e+01
2.500000e+01
2.500000e+01
2.500000e+01
2.500000e+01
2.500000e+01
2.500000e+01
2.500000e+01
2.500000e+01
2.500000e+01
3.750000e+01
3.750000e+01
3.750000e+01
3.750000e+01
3.750000e+01
3.750000e+01
3.750000e+01
3.750000e+01
3.750000e+01
3.750000e+01
3.750000e+01
3.750000e+01
3.750000e+01
3.750000e+01
3.750000e+01
3.750000e+01
3.750000e+01
5.000000e+01
5.000000e+01
5.000000e+01
5.000000e+01
5.000000e+01
5.000000e+01
5.000000e+01
5.000000e+01
5.000000e+01
5.000000e+01
5.000000e+01
5.000000e+01
5.000000e+01
5.000000e+01
5.000000e+01
5.000000e+01
5.000000e+01
6.250000e+01
6.250000e+01
6.250000e+01
6.250000e+01
6.250000e+01
6.250000e+01
6.250000e+01
6.250000e+01
6.250000e+01
6.250000e+01
6.250000e+01
6.250000e+01
6.250000e+01
6.250000e+01
6.250000e+01
6.250000e+01
6.250000e+01
7.500000e+01
7.500000e+01
7.500000e+01
7.500000e+01
7.500000e+01
7.500000e+01
7.500000e+01
7.500000e+01
7.500000e+01
7.500000e+01
7.500000e+01
7.500000e+01
7.500000e+01
7.500000e+01
7.500000e+01
7.500000e+01
7.500000e+01
8.750000e+01
8.750000e+01
8.750000e+01
8.750000e+01
8.750000e+01
8.750000e+01
8.750000e+01
8.750000e+01
8.750000e+01
8.750000e+01
8.750000e+01
8.750000e+01
8.750000e+01
8.750000e+01
8.750000e+01
8.750000e+01
8.750000e+01
1.000000e+02
1.000000e+02
1.000000e+02
1.000000e+02
1.000000e+02
1.000000e+02
1.000000e+02
1.000000e+02
1.000000e+02
1.000000e+02
1.000000e+02
1.000000e+02
1.000000e+02
1.000000e+02
1.000000e+02
1.000000e+02
1.000000e+02
0.000000e+00
-1.276253e-01
-2.349986e-01
-3.337962e-01
-4.258048e-01
-5.108302e-01
-5.886899e-01
-6.593234e-01
-7.228333e-01
-7.795122e-01
-8.299218e-01
-8.750473e-01
-9.165838e-01
-9.574592e-01
-1.002723e+00
-1.058313e+00
-1.100028e+00
0.000000e+00
-7.621541e-02
-1.583227e-01
-2.341438e-01
-3.039987e-01
-3.681528e-01
-4.267392e-01
-4.798363e-01
-5.275397e-01
-5.699962e-01
-6.074214e-01
-6.400850e-01
-6.681955e-01
-6.914633e-01
-7.078754e-01
-7.114726e-01
-7.243696e-01
0.000000e+00
-4.766285e-02
-9.800681e-02
-1.482326e-01
-1.951170e-01
-2.381636e-01
-2.773375e-01
-3.126828e-01
-3.442084e-01
-3.718615e-01
-3.954933e-01
-4.147737e-01
-4.290154e-01
-4.369653e-01
-4.371860e-01
-4.340102e-01
-4.471641e-01
0.000000e+00
-2.300501e-02
-4.735895e-02
-7.186680e-02
-9.530084e-02
-1.168851e-01
-1.364493e-01
-1.539362e-01
-1.692458e-01
-1.821789e-01
-1.924048e-01
-1.994410e-01
-2.027115e-01
-2.019474e-01
-1.988083e-01
-1.996668e-01
-2.094612e-01
0.000000e+00
-2.119328e-05
-4.817881e-05
-7.507572e-05
-8.935078e-05
-6.305537e-05
5.928502e-05
3.772126e-04
1.054040e-03
2.333030e-03
4.531553e-03
7.968436e-03
1.272983e-02
1.811044e-02
2.182720e-02
2.080782e-02
1.432301e-02
0.000000e+00
2.297240e-02
4.728325e-02
7.174570e-02
9.515022e-02
1.167626e-01
1.364968e-01
1.544491e-01
1.707754e-01
1.856648e-01
1.993120e-01
2.118180e-01
2.229655e-01
2.319045e-01
2.371629e-01
2.375800e-01
2.342885e-01
0.000000e+00
4.765750e-02
9.799050e-02
1.482001e-01
1.950663e-01
2.381005e-01
2.772851e-01
3.126998e-01
3.444179e-01
3.724957e-01
3.969576e-01
4.177438e-01
4.346154e-01
4.470892e-01
4.545762e-01
4.570073e-01
4.562397e-01
0.000000e+00
7.624667e-02
1.583907e-01
2.342522e-01
3.041440e-01
3.683085e-01
4.268266e-01
4.796767e-01
5.267782e-01
5.679951e-01
6.031317e-01
6.319452e-01
6.542050e-01
6.698375e-01
6.791626e-01
6.831392e-01
6.838696e-01
0.000000e+00
1.276776e-01
2.351365e-01
3.340545e-01
4.262175e-01
5.114107e-01
5.893824e-01
6.599057e-01
7.227447e-01
7.775727e-01
8.239144e-01
8.611518e-01
8.886733e-01
9.062625e-01
9.147689e-01
9.168685e-01
9.168280e-01
0.000000e+00
-7.725513e-02
-1.516610e-01
-2.480739e-01
-3.664008e-01
-5.064204e-01
-6.665993e-01
-8.451450e-01
-1.040159e+00
-1.249768e+00
-1.472241e+00
-1.706201e+00
-1.951084e+00
-2.208197e+00
-2.484211e+00
-2.800022e+00
-3.253787e+00
0.000000e+00
-4.755970e-02
-1.251772e-01
-2.227855e-01
-3.430462e-01
-4.849765e-01
-6.470959e-01
-8.275679e-01
-1.024472e+00
-1.235901e+00
-1.460076e+00
-1.695557e+00
-1.941693e+00
-2.199757e+00
-2.475663e+00
-2.789558e+00
-3.174112e+00
0.000000e+00
-3.588806e-02
-1.068174e-01
-2.047858e-01
-3.261834e-01
-4.695746e-01
-6.331841e-01
-8.151578e-01
-1.013588e+00
-1.226595e+00
-1.452434e+00
-1.689715e+00
-1.937848e+00
-2.197896e+00
-2.474039e+00
-2.771465e+00
-3.059311e+00
0.000000e+00
-3.092586e-02
-9.768894e-02
-1.942205e-01
-3.160569e-01
-4.603307e-01
-6.249602e-01
-8.080208e-01
-1.007641e+00
-1.221991e+00
-1.449366e+00
-1.688346e+00
-1.938063e+00
-2.198398e+00
-2.469017e+00
-2.742310e+00
-2.994075e+00
0.000000e+00
-2.949636e-02
-9.492626e-02
-1.908501e-01
-3.127197e-01
-4.573525e-01
-6.224554e-01
-8.061053e-01
-1.006466e+00
-1.221739e+00
-1.450179e+00
-1.690145e+00
-1.940084e+00
-2.198153e+00
-2.460491e+00
-2.718124e+00
-2.955468e+00
0.000000e+00
-3.090750e-02
-9.767588e-02
-1.942438e-01
-3.161712e-01
-4.606316e-01
-6.256038e-01
-8.092397e-01
-1.009742e+00
-1.225303e+00
-1.454066e+00
-1.694042e+00
-1.942912e+00
-2.197506e+00
-2.452936e+00
-2.701734e+00
-2.934012e+00
0.000000e+00
-3.585812e-02
-1.067957e-01
-2.048246e-01
-3.263759e-01
-4.700836e-01
-6.342752e-01
-8.172273e-01
-1.017161e+00
-1.232237e+00
-1.460473e+00
-1.699576e+00
-1.946665e+00
-2.197924e+00
-2.448401e+00
-2.692425e+00
-2.924549e+00
0.000000e+00
-4.753162e-02
-1.251584e-01
-2.228371e-01
-3.432772e-01
-4.855750e-01
-6.483660e-01
-8.299600e-01
-1.028576e+00
-1.242342e+00
-1.469193e+00
-1.706674e+00
-1.951658e+00
-2.200120e+00
-2.447265e+00
-2.688576e+00
-2.922327e+00
0.000000e+00
-7.724353e-02
-1.516627e-01
-2.481536e-01
-3.666686e-01
-5.070600e-01
-6.678989e-01
-8.475162e-01
-1.044112e+00
-1.255781e+00
-1.480410e+00
-1.715487e+00
-1.957866e+00
-2.203609e+00
-2.448231e+00
-2.687872e+00
-2.922362e+00


0.000000e+00
4.671292e-09
9.659527e-09
1.407228e-08
1.779209e-08
2.080838e-08
2.317885e-08
2.499387e-08
2.634890e-08
2.733529e-08
2.803658e-08
2.852778e-08
2.887727e-08
2.914848e-08
2.940098e-08
2.971322e-08
3.008851e-08
0.000000e+00
3.181146e-09
7.491435e-09
1.099667e-08
1.380174e-08
1.601353e-08
1.771746e-08
1.899974e-08
1.993977e-08
2.060801e-08
2.106541e-08
2.136232e-08
2.153668e-08
2.162231e-08
2.170922e-08
2.196449e-08
2.235087e-08
0.000000e+00
2.368104e-09
5.201708e-09
7.565790e-09
9.461652e-09
1.092238e-08
1.201971e-08
1.282473e-08
1.339785e-08
1.378884e-08
1.403842e-08
1.417980e-08
1.424260e-08
1.426682e-08
1.432816e-08
1.452846e-08
1.484129e-08
0.000000e+00
1.266428e-09
2.592372e-09
3.774922e-09
4.740811e-09
5.477845e-09
6.021109e-09
6.410416e-09
6.678698e-09
6.852141e-09
6.952591e-09
7.000649e-09
7.020142e-09
7.041604e-09
7.095725e-09
7.217414e-09
7.409794e-09
0.000000e+00
-1.388889e-12
-3.253704e-12
-5.836116e-12
-9.543251e-12
-1.492575e-11
-2.269706e-11
-3.367949e-11
-4.857888e-11
-6.743342e-11
-8.858147e-11
-1.071466e-10
-1.143326e-10
-1.015048e-10
-6.819595e-11
-9.582558e-12
9.057178e-11
0.000000e+00
-1.268818e-09
-2.597888e-09
-3.784783e-09
-4.756733e-09
-5.502297e-09
-6.057542e-09
-6.463455e-09
-6.754153e-09
-6.956470e-09
-7.091155e-09
-7.173808e-09
-7.216321e-09
-7.230346e-09
-7.229576e-09
-7.215110e-09
-7.172347e-09
0.000000e+00
-2.369347e-09
-5.205114e-09
-7.572075e-09
-9.471632e-09
-1.093693e-08
-1.203970e-08
-1.285106e-08
-1.343160e-08
-1.383191e-08
-1.409465e-08
-1.425638e-08
-1.434856e-08
-1.439792e-08
-1.442446e-08
-1.443355e-08
-1.442152e-08
0.000000e+00
-3.181599e-09
-7.493621e-09
-1.100053e-08
-1.380712e-08
-1.601988e-08
-1.772340e-08
-1.900282e-08
-1.993644e-08
-2.059435e-08
-2.103878e-08
-2.132461e-08
-2.149899e-08
-2.160023e-08
-2.165601e-08
-2.168141e-08
-2.168496e-08
0.000000e+00
-4.673354e-09
-9.662925e-09
-1.407612e-08
-1.779524e-08
-2.080890e-08
-2.317358e-08
-2.497825e-08
-2.631683e-08
-2.727929e-08
-2.794759e-08
-2.839369e-08
-2.867790e-08
-2.884767e-08
-2.893729e-08
-2.897159e-08
-2.897752e-08
0.000000e+00
4.244520e-09
7.622410e-09
1.116398e-08
1.541475e-08
2.041784e-08
2.607114e-08
3.224189e-08
3.880305e-08
4.565001e-08
5.270260e-08
5.990599e-08
6.723785e-08
7.474568e-08
8.263006e-08
9.099491e-08
9.946675e-08
0.000000e+00
2.280784e-09
5.583526e-09
9.367407e-09
1.394387e-08
1.925967e-08
2.518696e-08
3.158408e-08
3.832731e-08
4.531670e-08
5.247735e-08
5.975943e-08
6.714234e-08
7.464852e-08
8.237396e-08
9.050716e-08
9.884248e-08
0.000000e+00
1.124023e-09
3.984331e-09
7.964985e-09
1.280771e-08
1.838082e-08
2.452589e-08
3.109989e-08
3.798379e-08
4.508329e-08
5.232832e-08
5.967257e-08
6.709162e-08
7.457230e-08
8.212350e-08
8.998919e-08
9.810217e-08
0.000000e+00
6.404305e-10
3.230897e-09
7.230415e-09
1.221154e-08
1.792602e-08
2.418950e-08
3.085780e-08
3.781614e-08
4.497421e-08
5.226422e-08
5.963888e-08
6.706550e-08
7.451134e-08
8.196818e-08
8.962133e-08
9.745471e-08
0.000000e+00
5.179849e-10
3.025732e-09
7.007991e-09
1.202814e-08
1.778744e-08
2.408894e-08
3.078775e-08
3.777080e-08
4.494891e-08
5.225378e-08
5.963505e-08
6.705448e-08
7.447839e-08
8.189530e-08
8.941138e-08
9.699422e-08
0.000000e+00
6.412877e-10
3.232081e-09
7.232016e-09
1.221381e-08
1.792965e-08
2.419567e-08
3.086820e-08
3.783257e-08
4.499752e-08
5.229214e-08
5.966264e-08
6.706819e-08
7.447768e-08
8.187879e-08
8.931018e-08
9.672930e-08
0.000000e+00
1.125381e-09
3.986474e-09
7.968157e-09
1.281240e-08
1.838835e-08
2.453848e-08
3.112064e-08
3.801604e-08
4.512892e-08
5.238424e-08
5.972448e-08
6.710627e-08
7.449838e-08
8.188412e-08
8.926542e-08
9.660563e-08
0.000000e+00
2.282700e-09
5.587101e-09
9.372693e-09
1.395150e-08
1.927118e-08
2.520481e-08
3.161165e-08
3.836821e-08
4.537311e-08
5.254636e-08
5.982607e-08
6.716519e-08
7.452934e-08
8.189555e-08
8.924838e-08
9.656436e-08
0.000000e+00
4.247601e-09
7.627690e-09
1.117137e-08
1.542479e-08
2.043170e-08
2.609074e-08
3.226978e-08
3.884190e-08
4.570115e-08
5.276275e-08
5.996019e-08
6.724192e-08
7.456876e-08
8.191169e-08
8.924721e-08
9.655804e-08


3.729081e-01
3.729081e-01
3.729095e-01
3.729118e-01
3.729139e-01
3.729157e-01
3.729170e-01
3.729180e-01
3.729187e-01
3.729192e-01
3.729196e-01
3.729198e-01
3.729198e-01
3.729196e-01
3.729193e-01
3.729190e-01
3.729106e-01
3.729105e-01
3.729115e-01
3.729134e-01
3.729151e-01
3.729165e-01
3.729176e-01
3.729184e-01
3.729190e-01
3.729194e-01
3.729197e-01
3.729198e-01
3.729198e-01
3.729196e-01
3.729193e-01
3.729190e-01
3.729147e-01
3.729146e-01
3.729151e-01
3.729162e-01
3.729172e-01
3.729180e-01
3.729186e-01
3.729191e-01
3.729194e-01
3.729197e-01
3.729198e-01
3.729199e-01
3.729199e-01
3.729197e-01
3.729194e-01
3.729192e-01
3.729176e-01
3.729175e-01
3.729177e-01
3.729181e-01
3.729186e-01
3.729190e-01
3.729193e-01
3.729195e-01
3.729197e-01
3.729198e-01
3.729199e-01
3.729199e-01
3.729199e-01
3.729198e-01
3.729196e-01
3.729195e-01
3.729176e-01
3.729175e-01
3.729177e-01
3.729181e-01
3.729186e-01
3.729190e-01
3.729193e-01
3.729195e-01
3.729197e-01
3.729198e-01
3.729199e-01
3.729199e-01
3.729199e-01
3.729199e-01
3.729198e-01
3.729198e-01
3.729147e-01
3.729146e-01
3.729151e-01
3.729162e-01
3.729172e-01
3.729180e-01
3.729186e-01
3.729191e-01
3.729194e-01
3.729196e-01
3.729198e-01
3.729199e-01
3.729199e-01
3.729199e-01
3.729200e-01
3.729200e-01
3.729106e-01
3.729105e-01
3.729115e-01
3.729134e-01
3.729151e-01
3.729165e-01
3.729176e-01
3.729184e-01
3.729190e-01
3.729194e-01
3.729196e-01
3.729198e-01
3.729199e-01
3.729200e-01
3.729200e-01
3.729200e-01
3.729081e-01
3.729081e-01
3.729094e-01
3.729118e-01
3.729139e-01
3.729156e-01
3.729170e-01
3.729180e-01
3.729187e-01
3.729192e-01
3.729196e-01
3.729198e-01
3.729199e-01
3.729200e-01
3.729200e-01
3.729201e-01


9.633543e-01
9.685509e-01
9.733580e-01
9.770585e-01
9.804933e-01
9.836606e-01
9.865463e-01
9.891165e-01
9.913441e-01
9.932073e-01
9.946888e-01
9.957741e-01
9.964487e-01
9.966894e-01
9.968631e-01
9.861530e-01
9.861362e-01
9.837549e-01
9.852869e-01
9.872865e-01
9.891508e-01
9.908452e-01
9.923791e-01
9.937684e-01
9.950264e-01
9.961659e-01
9.971999e-01
9.981361e-01
9.989529e-01
9.994877e-01
9.981352e-01
9.798017e-01
9.951830e-01
9.938152e-01
9.934459e-01
9.939653e-01
9.946485e-01
9.953103e-01
9.959247e-01
9.965054e-01
9.970678e-01
9.976162e-01
9.981283e-01
9.985248e-01
9.986075e-01
9.978935e-01
9.953030e-01
9.906439e-01
9.990196e-01
9.980221e-01
9.974058e-01
9.972495e-01
9.973119e-01
9.974166e-01
9.975212e-01
9.976234e-01
9.977237e-01
9.978077e-01
9.978311e-01
9.977062e-01
9.973101e-01
9.965992e-01
9.959963e-01
9.958437e-01
9.990233e-01
9.980273e-01
9.974105e-01
9.972485e-01
9.972963e-01
9.973719e-01
9.974243e-01
9.974419e-01
9.974179e-01
9.973406e-01
9.971968e-01
9.969895e-01
9.967922e-01
9.968314e-01
9.973893e-01
9.983551e-01
9.951899e-01
9.938256e-01
9.934559e-01
9.939654e-01
9.946219e-01
9.952284e-01
9.957415e-01
9.961539e-01
9.964628e-01
9.966708e-01
9.968023e-01
9.969309e-01
9.972010e-01
9.977673e-01
9.986179e-01
9.994973e-01
9.861349e-01
9.837539e-01
9.852848e-01
9.872808e-01
9.891361e-01
9.908118e-01
9.923100e-01
9.936366e-01
9.947925e-01
9.957805e-01
9.966170e-01
9.973475e-01
9.980510e-01
9.987886e-01
9.994783e-01
9.999127e-01
9.633293e-01
9.685118e-01
9.733101e-01
9.770046e-01
9.804450e-01
9.836431e-01
9.866059e-01
9.893265e-01
9.918054e-01
9.940379e-01
9.959972e-01
9.976227e-01
9.988319e-01
9.995779e-01
9.999173e-01
9.999982e-01
1 2 19 18
2 3 20 19
3 4 21 20
4 5 22 21
5 6 23 22
6 7 24 23
7 8 25 24
8 9 26 25
9 10 27 26
10 11 28 27
11 12 29 28
12 13 30 29
13 14 31 30
14 15 32 31
15 16 33 32
16 17 34 33
18 19 36 35
19 20 37 36
20 21 38 37
21 22 39 38
22 23 40 39
23 24 41 40
24 25 42 41
25 26 43 42
26 27 44 43
27 28 45 44
28 29 46 45
29 30 47 46
30 31 48 47
31 32 49 48
32 33 50 49
33 34 51 50
35 36 53 52
36 37 54 53
37 38 55 54
38 39 56 55
39 40 57 56
40 41 58 57
41 42 59 58
42 43 60 59
43 44 61 60
44 45 62 61
45 46 63 62
46 47 64 63
47 48 65 64
48 49 66 65
49 50 67 66
50 51 68 67
52 53 70 69
53 54 71 70
54 55 72 71
55 56 73 72
56 57 74 73
57 58 75 74
58 59 76 75
59 60 77 76
60 61 78 77
61 62 79 78
62 63 80 79
63 64 81 80
64 65 82 81
65 66 83 82
66 67 84 83
67 68 85 84
69 70 87 86
70 71 88 87
71 72 89 88
72 73 90 89
73 74 91 90
74 75 92 91
75 76 93 92
76 77 94 93
77 78 95 94
78 79 96 95
79 80 97 96
80 81 98 97
81 82 99 98
82 83 100 99
83 84 101 100
84 85 102 101
86 87 104 103
87 88 105 104
88 89 106 105
89 90 107 106
90 91 108 107
91 92 109 108
92 93 110 109
93 94 111 110
94 95 112 111
95 96 113 112
96 97 114 113
97 98 115 114
98 99 116 115
99 100 117 116
100 101 118 117
101 102 119 118
103 104 121 120
104 105 122 121
105 106 123 122
106 107 124 123
107 108 125 124
108 109 126 125
109 110 127 126
110 111 128 127
111 112 129 128
112 113 130 129
113 114 131 130
114 115 132 131
115 116 133 132
116 117 134 133
117 118 135 134
118 119 136 135
120 121 138 137
121 122 139 138
122 123 140 139
123 124 141 140
124 125 142 141
125 126 143 142
126 127 144 143
127 128 145 144
128 129 146 145
129 130 147 146
130 131 148 147
131 132 149 148
132 133 150 149
133 134 151 150
134 135 152 151
135 136 153 152
