TITLE = "Solution"
VARIABLES = x, y, u, v, psiu, psiv, t, stress
ZONE T="structure" N=153 E=128 F=FEBLOCK ET=QUADRILATERAL VARLOCATION=([7,8]=cellcentered)
0.000000e+00
1.250000e+01
2.500000e+01
3.750000e+01
5.000000e+01
6.250000e+01
7.500000e+01
8.750000e+01
1.000000e+02
1.125000e+02
1.250000e+02
1.375000e+02
1.500000e+02
1.625000e+02
1.750000e+02
1.875000e+02
2.000000e+02
0.000000e+00
1.250000e+01
2.500000e+01
3.750000e+01
5.000000e+01
6.250000e+01
7.500000e+01
8.750000e+01
1.000000e+02
1.125000e+02
1.250000e+02
1.375000e+02
1.500000e+02
1.625000e+02
1.750000e+02
1.875000e+02
2.000000e+02
0.000000e+00
1.250000e+01
2.500000e+01
3.750000e+01
5.000000e+01
6.250000e+01
7.500000e+01
8.750000e+01
1.000000e+02
1.125000e+02
1.250000e+02
1.375000e+02
1.500000e+02
1.625000e+02
1.750000e+02
1.875000e+02
2.000000e+02
0.000000e+00
1.250000e+01
2.500000e+01
3.750000e+01
5.000000e+01
6.250000e+01
7.500000e+01
8.750000e+01
1.000000e+02
1.125000e+02
1.250000e+02
1.375000e+02
1.500000e+02
1.625000e+02
1.750000e+02
1.875000e+02
2.000000e+02
0.000000e+00
1.250000e+01
2.500000e+01
3.750000e+01
5.000000e+01
6.250000e+01
7.500000e+01
8.750000e+01
1.000000e+02
1.125000e+02
1.250000e+02
1.375000e+02
1.500000e+02
1.625000e+02
1.750000e+02
1.875000e+02
2.000000e+02
0.000000e+00
1.250000e+01
2.500000e+01
3.750000e+01
5.000000e+01
6.250000e+01
7.500000e+01
8.750000e+01
1.000000e+02
1.125000e+02
1.250000e+02
1.375000e+02
1.500000e+02
1.625000e+02
1.750000e+02
1.875000e+02
2.000000e+02
0.000000e+00
1.250000e+01
2.500000e+01
3.750000e+01
5.000000e+01
6.250000e+01
7.500000e+01
8.750000e+01
1.000000e+02
1.125000e+02
1.250000e+02
1.375000e+02
1.500000e+02
1.625000e+02
1.750000e+02
1.875000e+02
2.000000e+02
0.000000e+00
1.250000e+01
2.500000e+01
3.750000e+01
5.000000e+01
6.250000e+01
7.500000e+01
8.750000e+01
1.000000e+02
1.125000e+02
1.250000e+02
1.375000e+02
1.500000e+02
1.625000e+02
1.750000e+02
1.875000e+02
2.000000e+02
0.000000e+00
1.250000e+01
2.500000e+01
3.750000e+01
5.000000e+01
6.250000e+01
7.500000e+01
8.750000e+01
1.000000e+02
1.125000e+02
1.250000e+02
1.375000e+02
1.500000e+02
1.625000e+02
1.750000e+02
1.875000e+02
2.000000e+02
0.000000e+00
0.000000e+00
0.000000e+00
0.000000e+00
0.000000e+00
0.000000e+00
0.000000e+00
0.000000e+00
0.000000e+00
0.000000e+00
0.000000e+00
0.000000e+00
0.000000e+00
0.000000e+00
0.000000e+00
0.000000e+00
0.000000e+00
1.250000e+01
1.250000e+01
1.250000e+01
1.250000e+01
1.250000e+01
1.250000e+01
1.250000e+01
1.250000e+01
1.250000e+01
1.250000e+01
1.250000e+01
1.250000e+01
1.250000e+01
1.250000e+01
1.250000e+01
1.250000e+01
1.250000e+01
2.500000e+01
2.500000e+01
2.500000e+01
2.500000e+01
2.500000e+01
2.500000e+01
2.500000e+01
2.500000e+01
2.500000e+01
2.500000e+01
2.500000e+01
2.500000e+01
2.500000e+01
2.500000e+01
2.500000e+01
2.500000e+01
2.500000e+01
3.750000e+01
3.750000e+01
3.750000e+01
3.750000e+01
3.750000e+01
3.750000e+01
3.750000e+01
3.750000e+01
3.750000e+01
3.750000e+01
3.750000e+01
3.750000e+01
3.750000e+01
3.750000e+01
3.750000e+01
3.750000e+01
3.750000e+01
5.000000e+01
5.000000e+01
5.000000e+01
5.000000e+01
5.000000e+01
5.000000e+01
5.000000e+01
5.000000e+01
5.000000e+01
5.000000e+01
5.000000e+01
5.000000e+01
5.000000e+01
5.000000e+01
5.000000e+01
5.000000e+01
5.000000e+01
6.250000e+01
6.250000e+01
6.250000e+01
6.250000e+01
6.250000e+01
6.250000e+01
6.250000e+01
6.250000e+01
6.250000e+01
6.250000e+01
6.250000e+01
6.250000e+01
6.250000e+01
6.250000e+01
6.250000e+01
6.250000e+01
6.250000e+01
7.500000e+01
7.500000e+01
7.500000e+01
7.500000e+01
7.500000e+01
7.500000e+01
7.500000e+01
7.500000e+01
7.500000e+01
7.500000e+01
7.500000e+01
7.500000e+01
7.500000e+01
7.500000e+01
7.500000e+01
7.500000e+01
7.500000e+01
8.750000e+01
8.750000e+01
8.750000e+01
8.750000e+01
8.750000e+01
8.750000e+01
8.750000e+01
8.750000e+01
8.750000e+01
8.750000e+01
8.750000e+01
8.750000e+01
8.750000e+01
8.750000e+01
8.750000e+01
8.750000e+01
8.750000e+01
1.000000e+02
1.000000e+02
1.000000e+02
1.000000e+02
1.000000e+02
1.000000e+02
1.000000e+02
1.000000e+02
1.000000e+02
1.000000e+02
1.000000e+02
1.000000e+02
1.000000e+02
1.000000e+02
1.000000e+02
1.000000e+02
1.000000e+02
0.000000e+00
-9.908197e-01
-1.680014e+00
-2.429984e+00
-3.111913e+00
-3.754770e+00
-4.454131e+00
-5.087963e+00
-5.762691e+00
-6.403419e+00
-7.058237e+00
-7.720468e+00
-8.376609e+00
-9.151469e+00
-1.007649e+01
-1.083058e+01
-1.128093e+01
0.000000e+00
-4.439585e-01
-9.088246e-01
-1.419216e+00
-1.929900e+00
-2.413513e+00
-2.926110e+00
-3.424125e+00
-3.921061e+00
-4.421970e+00
-4.916777e+00
-5.417413e+00
-5.902338e+00
-6.424658e+00
-6.895704e+00
-7.020308e+00
-7.199013e+00
0.000000e+00
-1.470475e-01
-3.516314e-01
-6.416685e-01
-9.796402e-01
-1.305808e+00
-1.659672e+00
-2.014497e+00
-2.359706e+00
-2.719558e+00
-3.059216e+00
-3.392577e+00
-3.687103e+00
-3.926565e+00
-4.033783e+00
-4.031032e+00
-4.179854e+00
0.000000e+00
-7.874871e-02
-1.624064e-01
-3.090198e-01
-4.536214e-01
-6.284629e-01
-8.109345e-01
-9.786432e-01
-1.163626e+00
-1.325856e+00
-1.487439e+00
-1.625631e+00
-1.718201e+00
-1.725647e+00
-1.653066e+00
-1.633749e+00
-1.751853e+00
0.000000e+00
-2.996211e-03
-6.552630e-03
-1.023375e-02
-1.374030e-02
-1.602025e-02
-1.581793e-02
-1.184972e-02
-2.745203e-03
1.404102e-02
3.833192e-02
8.226960e-02
1.637814e-01
2.780940e-01
3.968845e-01
4.363149e-01
3.380288e-01
0.000000e+00
7.358829e-02
1.517322e-01
2.915048e-01
4.301015e-01
5.999911e-01
7.809817e-01
9.558519e-01
1.159706e+00
1.352672e+00
1.566719e+00
1.787068e+00
2.011642e+00
2.215827e+00
2.350914e+00
2.383894e+00
2.318656e+00
0.000000e+00
1.451181e-01
3.468801e-01
6.331591e-01
9.672184e-01
1.290573e+00
1.643333e+00
2.002488e+00
2.368178e+00
2.768994e+00
3.146081e+00
3.513264e+00
3.847296e+00
4.120209e+00
4.294941e+00
4.349833e+00
4.327584e+00
0.000000e+00
4.450296e-01
9.094647e-01
1.419798e+00
1.929951e+00
2.411218e+00
2.921075e+00
3.415179e+00
3.904518e+00
4.397305e+00
4.875627e+00
5.350741e+00
5.781704e+00
6.127995e+00
6.343841e+00
6.438952e+00
6.456420e+00
0.000000e+00
9.932156e-01
1.684199e+00
2.438273e+00
3.124459e+00
3.769110e+00
4.469680e+00
5.097109e+00
5.742073e+00
6.329850e+00
6.906052e+00
7.506041e+00
8.039133e+00
8.447674e+00
8.649576e+00
8.702942e+00
8.703558e+00
0.000000e+00
-6.169224e-01
-1.359162e+00
-2.357405e+00
-3.529591e+00
-4.872741e+00
-6.400966e+00
-8.085996e+00
-9.944960e+00
-1.196642e+01
-1.415071e+01
-1.649812e+01
-1.901097e+01
-2.174183e+01
-2.470395e+01
-2.806430e+01
-3.308031e+01
0.000000e+00
-4.132715e-01
-1.190292e+00
-2.172032e+00
-3.359847e+00
-4.697796e+00
-6.224340e+00
-7.916416e+00
-9.769496e+00
-1.179838e+01
-1.397843e+01
-1.633118e+01
-1.883692e+01
-2.154964e+01
-2.456474e+01
-2.798003e+01
-3.203188e+01
0.000000e+00
-3.871107e-01
-1.088966e+00
-2.068520e+00
-3.239653e+00
-4.572845e+00
-6.103184e+00
-7.787745e+00
-9.650315e+00
-1.167692e+01
-1.386827e+01
-1.623164e+01
-1.874845e+01
-2.148755e+01
-2.455536e+01
-2.782726e+01
-3.085900e+01
0.000000e+00
-4.456438e-01
-1.085046e+00
-2.042125e+00
-3.175777e+00
-4.504188e+00
-6.038969e+00
-7.713045e+00
-9.592820e+00
-1.161946e+01
-1.383128e+01
-1.621414e+01
-1.875755e+01
-2.149720e+01
-2.448694e+01
-2.751685e+01
-3.013861e+01
0.000000e+00
-4.533239e-01
-1.106707e+00
-2.025965e+00
-3.163009e+00
-4.491322e+00
-6.018535e+00
-7.710572e+00
-9.585229e+00
-1.163272e+01
-1.385572e+01
-1.624860e+01
-1.879923e+01
-2.149834e+01
-2.433610e+01
-2.715126e+01
-2.953527e+01
0.000000e+00
-4.444603e-01
-1.084419e+00
-2.043836e+00
-3.183028e+00
-4.519458e+00
-6.065701e+00
-7.751862e+00
-9.648062e+00
-1.169873e+01
-1.392371e+01
-1.630079e+01
-1.883184e+01
-2.148804e+01
-2.419991e+01
-2.683250e+01
-2.909960e+01
0.000000e+00
-3.854867e-01
-1.088291e+00
-2.071958e+00
-3.252211e+00
-4.599843e+00
-6.150109e+00
-7.861526e+00
-9.754301e+00
-1.181265e+01
-1.401069e+01
-1.636773e+01
-1.887244e+01
-2.148842e+01
-2.411644e+01
-2.662579e+01
-2.886848e+01
0.000000e+00
-4.117503e-01
-1.189597e+00
-2.175786e+00
-3.373581e+00
-4.727281e+00
-6.277622e+00
-8.002712e+00
-9.892395e+00
-1.194899e+01
-1.412713e+01
-1.646662e+01
-1.894976e+01
-2.153024e+01
-2.409581e+01
-2.653786e+01
-2.880840e+01
0.000000e+00
-6.158277e-01
-1.358953e+00
-2.361974e+00
-3.543829e+00
-4.902605e+00
-6.454898e+00
-8.171087e+00
-1.006370e+01
-1.210568e+01
-1.428278e+01
-1.661532e+01
-1.907334e+01
-2.161172e+01
-2.412064e+01
-2.652276e+01
-2.880727e+01


0.000000e+00
1.539460e-05
2.511788e-05
3.742088e-05
5.342866e-05
6.700669e-05
8.252161e-05
9.688698e-05
1.111167e-04
1.255077e-04
1.406437e-04
1.549146e-04
1.719412e-04
1.872533e-04
1.964398e-04
2.019196e-04
2.088029e-04
0.000000e+00
1.146169e-05
1.976393e-05
2.837984e-05
4.108861e-05
5.170986e-05
6.191450e-05
7.314255e-05
8.328398e-05
9.462632e-05
1.052687e-04
1.152942e-04
1.264936e-04
1.354397e-04
1.363217e-04
1.400107e-04
1.458455e-04
0.000000e+00
9.561947e-06
1.506848e-05
2.027120e-05
2.916686e-05
3.582389e-05
4.179505e-05
4.924626e-05
5.525646e-05
6.241586e-05
6.873251e-05
7.390062e-05
7.862191e-05
8.045651e-05
7.944278e-05
8.182391e-05
8.608866e-05
0.000000e+00
5.186649e-06
6.921187e-06
9.764671e-06
1.342542e-05
1.433790e-05
1.695380e-05
1.910586e-05
2.221911e-05
2.565307e-05
2.862191e-05
2.919618e-05
2.835834e-05
2.673392e-05
2.660436e-05
2.969561e-05
3.535518e-05
0.000000e+00
-1.532344e-07
-3.844569e-07
-7.563332e-07
-1.501932e-06
-2.468554e-06
-4.207316e-06
-5.989928e-06
-6.438994e-06
-6.845705e-06
-8.361000e-06
-1.183534e-05
-1.462161e-05
-1.590202e-05
-1.552753e-05
-1.330880e-05
-9.352830e-06
0.000000e+00
-5.412554e-06
-7.432579e-06
-1.077163e-05
-1.486538e-05
-1.666819e-05
-2.120945e-05
-2.525666e-05
-3.040311e-05
-3.338861e-05
-3.734848e-05
-4.222316e-05
-4.697788e-05
-4.846192e-05
-4.898467e-05
-4.948648e-05
-4.784023e-05
0.000000e+00
-9.538667e-06
-1.511320e-05
-2.042770e-05
-2.926123e-05
-3.577255e-05
-4.160564e-05
-4.982564e-05
-5.677236e-05
-6.365153e-05
-6.870295e-05
-7.356074e-05
-7.771054e-05
-8.098002e-05
-8.288455e-05
-8.477780e-05
-8.552218e-05
0.000000e+00
-1.138486e-05
-1.967480e-05
-2.828483e-05
-4.086505e-05
-5.166149e-05
-6.168240e-05
-7.301799e-05
-8.340360e-05
-9.457456e-05
-1.051053e-04
-1.130016e-04
-1.179113e-04
-1.228532e-04
-1.263222e-04
-1.275596e-04
-1.276566e-04
0.000000e+00
-1.540986e-05
-2.506580e-05
-3.728850e-05
-5.321656e-05
-6.676569e-05
-8.211769e-05
-9.546668e-05
-1.093874e-04
-1.235868e-04
-1.412215e-04
-1.564925e-04
-1.658481e-04
-1.709292e-04
-1.731422e-04
-1.733347e-04
-1.731448e-04
0.000000e+00
1.261275e-05
2.001730e-05
3.244307e-05
4.869514e-05
6.660095e-05
9.059998e-05
1.188713e-04
1.510696e-04
1.873470e-04
2.269922e-04
2.709292e-04
3.212885e-04
3.750959e-04
4.363738e-04
5.070273e-04
5.800351e-04
0.000000e+00
7.673347e-06
1.612478e-05
2.634372e-05
4.222073e-05
6.068251e-05
8.416861e-05
1.129291e-04
1.449250e-04
1.810822e-04
2.207968e-04
2.646862e-04
3.146672e-04
3.704952e-04
4.313655e-04
4.996750e-04
5.696522e-04
0.000000e+00
4.313715e-06
1.230216e-05
2.164934e-05
3.643951e-05
5.544545e-05
7.892673e-05
1.084063e-04
1.406383e-04
1.765459e-04
2.161877e-04
2.603544e-04
3.109208e-04
3.683160e-04
4.274046e-04
4.922120e-04
5.598822e-04
0.000000e+00
3.163938e-06
1.053758e-05
1.991508e-05
3.429762e-05
5.204687e-05
7.624453e-05
1.075084e-04
1.406582e-04
1.748241e-04
2.141456e-04
2.590424e-04
3.103590e-04
3.669539e-04
4.247450e-04
4.844010e-04
5.456687e-04
0.000000e+00
2.766080e-06
1.016137e-05
1.980536e-05
3.390436e-05
5.082487e-05
7.535201e-05
1.083124e-04
1.415325e-04
1.743148e-04
2.125348e-04
2.593165e-04
3.108380e-04
3.670220e-04
4.235798e-04
4.780350e-04
5.296845e-04
0.000000e+00
3.294499e-06
1.071042e-05
2.025783e-05
3.457882e-05
5.187498e-05
7.685644e-05
1.089804e-04
1.419309e-04
1.741521e-04
2.129765e-04
2.611075e-04
3.132752e-04
3.672114e-04
4.234261e-04
4.757147e-04
5.188974e-04
0.000000e+00
4.453206e-06
1.251862e-05
2.198970e-05
3.668325e-05
5.553116e-05
7.969203e-05
1.098086e-04
1.415856e-04
1.754123e-04
2.153848e-04
2.643634e-04
3.167378e-04
3.691264e-04
4.224334e-04
4.730387e-04
5.155931e-04
0.000000e+00
7.786096e-06
1.635388e-05
2.664183e-05
4.247772e-05
6.105599e-05
8.496238e-05
1.140645e-04
1.452030e-04
1.798544e-04
2.200140e-04
2.678869e-04
3.197079e-04
3.712508e-04
4.224746e-04
4.710668e-04
5.160930e-04
0.000000e+00
1.271306e-05
2.024744e-05
3.272899e-05
4.901701e-05
6.708278e-05
9.143237e-05
1.198291e-04
1.513561e-04
1.862790e-04
2.269526e-04
2.720112e-04
3.218296e-04
3.724819e-04
4.227393e-04
4.705847e-04
5.163668e-04


5.452355e+00
5.952398e+00
6.666915e+00
5.702348e+00
5.082275e+00
5.394190e+00
5.571041e+00
5.892103e+00
5.725800e+00
5.828941e+00
6.166079e+00
7.059124e+00
8.755065e+00
9.719295e+00
9.031823e+00
7.880742e+00
7.938678e+00
8.312295e+00
8.514874e+00
8.220295e+00
7.838700e+00
7.957368e+00
8.157312e+00
8.143983e+00
8.197884e+00
8.156587e+00
8.298011e+00
8.724890e+00
9.418460e+00
9.727052e+00
8.285768e+00
6.374883e+00
9.762985e+00
9.752204e+00
9.914765e+00
9.751631e+00
9.744110e+00
9.793847e+00
9.725453e+00
9.810680e+00
9.744062e+00
9.788152e+00
9.791663e+00
9.781757e+00
9.799953e+00
9.300244e+00
7.866424e+00
6.071659e+00
9.957903e+00
9.957158e+00
9.956779e+00
9.952630e+00
9.947696e+00
9.939793e+00
9.931944e+00
9.932700e+00
9.935655e+00
9.929684e+00
9.895354e+00
9.382191e+00
8.738030e+00
8.279875e+00
7.840150e+00
7.699054e+00
9.957715e+00
9.956723e+00
9.955978e+00
9.950618e+00
9.942678e+00
9.928550e+00
9.891342e+00
9.903743e+00
9.907758e+00
9.810973e+00
9.244007e+00
8.400038e+00
7.523620e+00
7.582432e+00
8.474724e+00
8.974184e+00
9.763392e+00
9.750434e+00
9.910796e+00
9.741027e+00
9.715272e+00
9.645309e+00
9.460366e+00
9.532659e+00
9.274577e+00
8.701043e+00
8.173458e+00
7.695185e+00
7.893335e+00
8.525096e+00
9.304220e+00
9.865850e+00
7.945704e+00
8.313498e+00
8.508687e+00
8.201403e+00
7.773812e+00
7.725132e+00
7.694540e+00
7.610721e+00
7.470390e+00
7.100376e+00
7.326686e+00
8.302374e+00
9.069809e+00
9.670396e+00
9.918602e+00
9.948580e+00
5.472363e+00
5.958822e+00
6.664176e+00
5.691038e+00
5.058596e+00
5.223075e+00
5.222772e+00
5.551602e+00
5.547430e+00
6.080199e+00
7.624386e+00
8.978470e+00
9.850297e+00
9.934772e+00
9.953826e+00
9.960682e+00


-8.017198e-01
-1.880436e-01
-3.878849e-01
-2.486022e-01
-1.179625e-01
-2.873700e-01
-1.321449e-01
-2.094950e-01
-1.557603e-01
-1.718326e-01
-1.990143e-01
-1.561339e-01
-4.775826e-01
-6.592886e-01
3.216389e-01
-8.469822e-01
6.129570e-01
4.730304e-01
2.999111e-01
2.278626e-01
2.827323e-01
1.702392e-01
1.786094e-01
1.693534e-01
1.178002e-01
1.445717e-01
1.369528e-01
2.459965e-01
3.013378e-01
5.206332e-01
6.979139e-01
-9.461816e-01
7.273352e-01
4.726161e-01
6.854841e-02
-3.714196e-03
-3.757555e-02
-1.611629e-01
-7.452662e-02
-1.219564e-01
-5.851784e-02
-9.778055e-03
4.985364e-02
1.977318e-01
2.861608e-01
1.542617e-01
-1.829134e-02
-1.755558e-01
7.323412e-01
5.573309e-01
1.997268e-01
7.420568e-02
-2.120652e-02
-8.597947e-02
-1.715391e-02
-4.862754e-02
2.532204e-02
3.069287e-02
6.979127e-02
1.203264e-01
5.709385e-02
-2.687310e-01
-3.784284e-01
-7.141962e-02
7.350183e-01
5.611821e-01
2.064867e-01
7.849469e-02
-2.006182e-02
-9.652773e-02
-3.793116e-02
-8.479054e-02
-3.328875e-02
-2.467416e-02
2.062947e-02
1.535484e-02
-3.644711e-02
-1.382400e-01
-1.043448e-01
3.170330e-01
7.335030e-01
4.829297e-01
8.535036e-02
9.419842e-03
-3.218660e-02
-1.702386e-01
-1.129438e-01
-2.036240e-01
-1.697774e-01
-9.777462e-02
-8.503471e-02
-1.018168e-01
-9.579626e-02
5.154912e-02
3.339163e-01
7.281491e-01
6.161774e-01
4.797612e-01
3.076660e-01
2.347894e-01
2.860711e-01
1.624209e-01
1.463116e-01
8.674270e-02
-4.692301e-02
-3.705839e-02
-1.003353e-01
-6.813722e-02
6.993765e-02
3.741208e-01
7.138625e-01
9.481533e-01
-8.085224e-01
-1.905481e-01
-3.964746e-01
-2.563722e-01
-1.176175e-01
-2.863795e-01
-1.169006e-01
-1.472460e-01
-6.043003e-02
-2.657416e-02
-9.108273e-02
8.844816e-02
3.960051e-01
7.727523e-01
9.526508e-01
9.987300e-01
1 2 19 18
2 3 20 19
3 4 21 20
4 5 22 21
5 6 23 22
6 7 24 23
7 8 25 24
8 9 26 25
9 10 27 26
10 11 28 27
11 12 29 28
12 13 30 29
13 14 31 30
14 15 32 31
15 16 33 32
16 17 34 33
18 19 36 35
19 20 37 36
20 21 38 37
21 22 39 38
22 23 40 39
23 24 41 40
24 25 42 41
25 26 43 42
26 27 44 43
27 28 45 44
28 29 46 45
29 30 47 46
30 31 48 47
31 32 49 48
32 33 50 49
33 34 51 50
35 36 53 52
36 37 54 53
37 38 55 54
38 39 56 55
39 40 57 56
40 41 58 57
41 42 59 58
42 43 60 59
43 44 61 60
44 45 62 61
45 46 63 62
46 47 64 63
47 48 65 64
48 49 66 65
49 50 67 66
50 51 68 67
52 53 70 69
53 54 71 70
54 55 72 71
55 56 73 72
56 57 74 73
57 58 75 74
58 59 76 75
59 60 77 76
60 61 78 77
61 62 79 78
62 63 80 79
63 64 81 80
64 65 82 81
65 66 83 82
66 67 84 83
67 68 85 84
69 70 87 86
70 71 88 87
71 72 89 88
72 73 90 89
73 74 91 90
74 75 92 91
75 76 93 92
76 77 94 93
77 78 95 94
78 79 96 95
79 80 97 96
80 81 98 97
81 82 99 98
82 83 100 99
83 84 101 100
84 85 102 101
86 87 104 103
87 88 105 104
88 89 106 105
89 90 107 106
90 91 108 107
91 92 109 108
92 93 110 109
93 94 111 110
94 95 112 111
95 96 113 112
96 97 114 113
97 98 115 114
98 99 116 115
99 100 117 116
100 101 118 117
101 102 119 118
103 104 121 120
104 105 122 121
105 106 123 122
106 107 124 123
107 108 125 124
108 109 126 125
109 110 127 126
110 111 128 127
111 112 129 128
112 113 130 129
113 114 131 130
114 115 132 131
115 116 133 132
116 117 134 133
117 118 135 134
118 119 136 135
120 121 138 137
121 122 139 138
122 123 140 139
123 124 141 140
124 125 142 141
125 126 143 142
126 127 144 143
127 128 145 144
128 129 146 145
129 130 147 146
130 131 148 147
131 132 149 148
132 133 150 149
133 134 151 150
134 135 152 151
135 136 153 152
