TITLE = "Solution"
VARIABLES = x, y, u, v, psiu, psiv, t, stress
ZONE T="structure" N=153 E=128 F=FEBLOCK ET=QUADRILATERAL VARLOCATION=([7,8]=cellcentered)
0.000000e+00
1.250000e+01
2.500000e+01
3.750000e+01
5.000000e+01
6.250000e+01
7.500000e+01
8.750000e+01
1.000000e+02
1.125000e+02
1.250000e+02
1.375000e+02
1.500000e+02
1.625000e+02
1.750000e+02
1.875000e+02
2.000000e+02
0.000000e+00
1.250000e+01
2.500000e+01
3.750000e+01
5.000000e+01
6.250000e+01
7.500000e+01
8.750000e+01
1.000000e+02
1.125000e+02
1.250000e+02
1.375000e+02
1.500000e+02
1.625000e+02
1.750000e+02
1.875000e+02
2.000000e+02
0.000000e+00
1.250000e+01
2.500000e+01
3.750000e+01
5.000000e+01
6.250000e+01
7.500000e+01
8.750000e+01
1.000000e+02
1.125000e+02
1.250000e+02
1.375000e+02
1.500000e+02
1.625000e+02
1.750000e+02
1.875000e+02
2.000000e+02
0.000000e+00
1.250000e+01
2.500000e+01
3.750000e+01
5.000000e+01
6.250000e+01
7.500000e+01
8.750000e+01
1.000000e+02
1.125000e+02
1.250000e+02
1.375000e+02
1.500000e+02
1.625000e+02
1.750000e+02
1.875000e+02
2.000000e+02
0.000000e+00
1.250000e+01
2.500000e+01
3.750000e+01
5.000000e+01
6.250000e+01
7.500000e+01
8.750000e+01
1.000000e+02
1.125000e+02
1.250000e+02
1.375000e+02
1.500000e+02
1.625000e+02
1.750000e+02
1.875000e+02
2.000000e+02
0.000000e+00
1.250000e+01
2.500000e+01
3.750000e+01
5.000000e+01
6.250000e+01
7.500000e+01
8.750000e+01
1.000000e+02
1.125000e+02
1.250000e+02
1.375000e+02
1.500000e+02
1.625000e+02
1.750000e+02
1.875000e+02
2.000000e+02
0.000000e+00
1.250000e+01
2.500000e+01
3.750000e+01
5.000000e+01
6.250000e+01
7.500000e+01
8.750000e+01
1.000000e+02
1.125000e+02
1.250000e+02
1.375000e+02
1.500000e+02
1.625000e+02
1.750000e+02
1.875000e+02
2.000000e+02
0.000000e+00
1.250000e+01
2.500000e+01
3.750000e+01
5.000000e+01
6.250000e+01
7.500000e+01
8.750000e+01
1.000000e+02
1.125000e+02
1.250000e+02
1.375000e+02
1.500000e+02
1.625000e+02
1.750000e+02
1.875000e+02
2.000000e+02
0.000000e+00
1.250000e+01
2.500000e+01
3.750000e+01
5.000000e+01
6.250000e+01
7.500000e+01
8.750000e+01
1.000000e+02
1.125000e+02
1.250000e+02
1.375000e+02
1.500000e+02
1.625000e+02
1.750000e+02
1.875000e+02
2.000000e+02
0.000000e+00
0.000000e+00
0.000000e+00
0.000000e+00
0.000000e+00
0.000000e+00
0.000000e+00
0.000000e+00
0.000000e+00
0.000000e+00
0.000000e+00
0.000000e+00
0.000000e+00
0.000000e+00
0.000000e+00
0.000000e+00
0.000000e+00
1.250000e+01
1.250000e+01
1.250000e+01
1.250000e+01
1.250000e+01
1.250000e+01
1.250000e+01
1.250000e+01
1.250000e+01
1.250000e+01
1.250000e+01
1.250000e+01
1.250000e+01
1.250000e+01
1.250000e+01
1.250000e+01
1.250000e+01
2.500000e+01
2.500000e+01
2.500000e+01
2.500000e+01
2.500000e+01
2.500000e+01
2.500000e+01
2.500000e+01
2.500000e+01
2.500000e+01
2.500000e+01
2.500000e+01
2.500000e+01
2.500000e+01
2.500000e+01
2.500000e+01
2.500000e+01
3.750000e+01
3.750000e+01
3.750000e+01
3.750000e+01
3.750000e+01
3.750000e+01
3.750000e+01
3.750000e+01
3.750000e+01
3.750000e+01
3.750000e+01
3.750000e+01
3.750000e+01
3.750000e+01
3.750000e+01
3.750000e+01
3.750000e+01
5.000000e+01
5.000000e+01
5.000000e+01
5.000000e+01
5.000000e+01
5.000000e+01
5.000000e+01
5.000000e+01
5.000000e+01
5.000000e+01
5.000000e+01
5.000000e+01
5.000000e+01
5.000000e+01
5.000000e+01
5.000000e+01
5.000000e+01
6.250000e+01
6.250000e+01
6.250000e+01
6.250000e+01
6.250000e+01
6.250000e+01
6.250000e+01
6.250000e+01
6.250000e+01
6.250000e+01
6.250000e+01
6.250000e+01
6.250000e+01
6.250000e+01
6.250000e+01
6.250000e+01
6.250000e+01
7.500000e+01
7.500000e+01
7.500000e+01
7.500000e+01
7.500000e+01
7.500000e+01
7.500000e+01
7.500000e+01
7.500000e+01
7.500000e+01
7.500000e+01
7.500000e+01
7.500000e+01
7.500000e+01
7.500000e+01
7.500000e+01
7.500000e+01
8.750000e+01
8.750000e+01
8.750000e+01
8.750000e+01
8.750000e+01
8.750000e+01
8.750000e+01
8.750000e+01
8.750000e+01
8.750000e+01
8.750000e+01
8.750000e+01
8.750000e+01
8.750000e+01
8.750000e+01
8.750000e+01
8.750000e+01
1.000000e+02
1.000000e+02
1.000000e+02
1.000000e+02
1.000000e+02
1.000000e+02
1.000000e+02
1.000000e+02
1.000000e+02
1.000000e+02
1.000000e+02
1.000000e+02
1.000000e+02
1.000000e+02
1.000000e+02
1.000000e+02
1.000000e+02
0.000000e+00
-9.701998e-02
-1.786445e-01
-2.537497e-01
-3.236937e-01
-3.883288e-01
-4.475165e-01
-5.012108e-01
-5.494897e-01
-5.925758e-01
-6.308961e-01
-6.651996e-01
-6.967747e-01
-7.278472e-01
-7.622560e-01
-8.045144e-01
-8.362247e-01
0.000000e+00
-5.793860e-02
-1.203562e-01
-1.779948e-01
-2.310978e-01
-2.798669e-01
-3.244033e-01
-3.647668e-01
-4.010299e-01
-4.333045e-01
-4.617543e-01
-4.865844e-01
-5.079534e-01
-5.256410e-01
-5.381171e-01
-5.408517e-01
-5.506557e-01
0.000000e+00
-3.623315e-02
-7.450441e-02
-1.126857e-01
-1.483267e-01
-1.810502e-01
-2.108295e-01
-2.376984e-01
-2.616635e-01
-2.826848e-01
-3.006492e-01
-3.153058e-01
-3.261320e-01
-3.321754e-01
-3.323431e-01
-3.299289e-01
-3.399282e-01
0.000000e+00
-1.748835e-02
-3.600212e-02
-5.463282e-02
-7.244714e-02
-8.885524e-02
-1.037276e-01
-1.170208e-01
-1.286589e-01
-1.384903e-01
-1.462639e-01
-1.516127e-01
-1.540988e-01
-1.535180e-01
-1.511317e-01
-1.517842e-01
-1.592298e-01
0.000000e+00
-1.611018e-05
-3.662348e-05
-5.706943e-05
-6.792049e-05
-4.793076e-05
4.507023e-05
2.867522e-04
8.012615e-04
1.773521e-03
3.444789e-03
6.057429e-03
9.676930e-03
1.376715e-02
1.659254e-02
1.581763e-02
1.088802e-02
0.000000e+00
1.746357e-02
3.594458e-02
5.454077e-02
7.233264e-02
8.876211e-02
1.037637e-01
1.174108e-01
1.298216e-01
1.411403e-01
1.515146e-01
1.610213e-01
1.694954e-01
1.762906e-01
1.802879e-01
1.806050e-01
1.781029e-01
0.000000e+00
3.622908e-02
7.449201e-02
1.126610e-01
1.482882e-01
1.810022e-01
2.107898e-01
2.377113e-01
2.618228e-01
2.831669e-01
3.017623e-01
3.175636e-01
3.303890e-01
3.398713e-01
3.455627e-01
3.474108e-01
3.468273e-01
0.000000e+00
5.796237e-02
1.204079e-01
1.780772e-01
2.312083e-01
2.799852e-01
3.244697e-01
3.646454e-01
4.004510e-01
4.317833e-01
4.584934e-01
4.803968e-01
4.973181e-01
5.092016e-01
5.162903e-01
5.193133e-01
5.198685e-01
0.000000e+00
9.705972e-02
1.787494e-01
2.539461e-01
3.240074e-01
3.887701e-01
4.480429e-01
5.016534e-01
5.494224e-01
5.911015e-01
6.263294e-01
6.546365e-01
6.755577e-01
6.889287e-01
6.953950e-01
6.969911e-01
6.969603e-01
0.000000e+00
-5.872887e-02
-1.152916e-01
-1.885837e-01
-2.785347e-01
-3.849762e-01
-5.067425e-01
-6.424708e-01
-7.907180e-01
-9.500600e-01
-1.119181e+00
-1.297034e+00
-1.483191e+00
-1.678645e+00
-1.888466e+00
-2.128541e+00
-2.473485e+00
0.000000e+00
-3.615457e-02
-9.515879e-02
-1.693598e-01
-2.607808e-01
-3.686749e-01
-4.919163e-01
-6.291091e-01
-7.787931e-01
-9.395187e-01
-1.109934e+00
-1.288943e+00
-1.476052e+00
-1.672228e+00
-1.881968e+00
-2.120586e+00
-2.412918e+00
0.000000e+00
-2.728183e-02
-8.120171e-02
-1.556766e-01
-2.479620e-01
-3.569666e-01
-4.813408e-01
-6.196751e-01
-7.705194e-01
-9.324445e-01
-1.104125e+00
-1.284502e+00
-1.473129e+00
-1.670814e+00
-1.880734e+00
-2.106833e+00
-2.325648e+00
0.000000e+00
-2.350954e-02
-7.426232e-02
-1.476449e-01
-2.402639e-01
-3.499395e-01
-4.750891e-01
-6.142497e-01
-7.659985e-01
-9.289449e-01
-1.101792e+00
-1.283462e+00
-1.473293e+00
-1.671196e+00
-1.876916e+00
-2.084669e+00
-2.276057e+00
0.000000e+00
-2.242282e-02
-7.216214e-02
-1.450827e-01
-2.377270e-01
-3.476755e-01
-4.731850e-01
-6.127936e-01
-7.651055e-01
-9.287532e-01
-1.102410e+00
-1.284829e+00
-1.474829e+00
-1.671010e+00
-1.870435e+00
-2.066284e+00
-2.246709e+00
0.000000e+00
-2.349559e-02
-7.425239e-02
-1.476626e-01
-2.403507e-01
-3.501682e-01
-4.755783e-01
-6.151763e-01
-7.675959e-01
-9.314627e-01
-1.105365e+00
-1.287792e+00
-1.476979e+00
-1.670518e+00
-1.864691e+00
-2.053825e+00
-2.230399e+00
0.000000e+00
-2.725907e-02
-8.118525e-02
-1.557061e-01
-2.481082e-01
-3.573535e-01
-4.821702e-01
-6.212483e-01
-7.732354e-01
-9.367334e-01
-1.110235e+00
-1.291998e+00
-1.479832e+00
-1.670835e+00
-1.861244e+00
-2.046748e+00
-2.223205e+00
0.000000e+00
-3.613323e-02
-9.514446e-02
-1.693990e-01
-2.609565e-01
-3.691299e-01
-4.928818e-01
-6.309275e-01
-7.819131e-01
-9.444150e-01
-1.116864e+00
-1.297394e+00
-1.483628e+00
-1.672504e+00
-1.860381e+00
-2.043822e+00
-2.221517e+00
0.000000e+00
-5.872005e-02
-1.152928e-01
-1.886444e-01
-2.787383e-01
-3.854624e-01
-5.077304e-01
-6.442733e-01
-7.937232e-01
-9.546312e-01
-1.125391e+00
-1.304094e+00
-1.488347e+00
-1.675157e+00
-1.861115e+00
-2.043287e+00
-2.221543e+00


0.000000e+00
1.761734e-09
3.643080e-09
5.308432e-09
6.713558e-09
7.854019e-09
8.751104e-09
9.438566e-09
9.952195e-09
1.032635e-08
1.059253e-08
1.077905e-08
1.091182e-08
1.101486e-08
1.111075e-08
1.122924e-08
1.137160e-08
0.000000e+00
1.198961e-09
2.824377e-09
4.147396e-09
5.207284e-09
6.043890e-09
6.689022e-09
7.174933e-09
7.531424e-09
7.785018e-09
7.958701e-09
8.071502e-09
8.137777e-09
8.170360e-09
8.203410e-09
8.300300e-09
8.446876e-09
0.000000e+00
8.925506e-10
1.961363e-09
2.853780e-09
3.570130e-09
4.122644e-09
4.538124e-09
4.843210e-09
5.060588e-09
5.208997e-09
5.303790e-09
5.357527e-09
5.381420e-09
5.390659e-09
5.413971e-09
5.489993e-09
5.608680e-09
0.000000e+00
4.775537e-10
9.779241e-10
1.424313e-09
1.789185e-09
2.067858e-09
2.273465e-09
2.420943e-09
2.522659e-09
2.588469e-09
2.626609e-09
2.644871e-09
2.652284e-09
2.660437e-09
2.680985e-09
2.727179e-09
2.800195e-09
0.000000e+00
-5.217549e-13
-1.224421e-12
-2.199853e-12
-3.602958e-12
-5.642753e-12
-8.590779e-12
-1.275938e-11
-1.841725e-11
-2.557959e-11
-3.361594e-11
-4.067534e-11
-4.341754e-11
-3.856235e-11
-2.592325e-11
-3.662391e-12
3.437130e-11
0.000000e+00
-4.784501e-10
-9.799964e-10
-1.428025e-09
-1.795188e-09
-2.077091e-09
-2.287241e-09
-2.441020e-09
-2.551249e-09
-2.628028e-09
-2.679180e-09
-2.710594e-09
-2.726770e-09
-2.732121e-09
-2.731839e-09
-2.726340e-09
-2.710093e-09
0.000000e+00
-8.930129e-10
-1.962633e-09
-2.856130e-09
-3.573869e-09
-4.128108e-09
-4.545648e-09
-4.853138e-09
-5.073338e-09
-5.225292e-09
-5.325095e-09
-5.386566e-09
-5.421623e-09
-5.440401e-09
-5.450492e-09
-5.453944e-09
-5.449372e-09
0.000000e+00
-1.199125e-09
-2.825183e-09
-4.148825e-09
-5.209275e-09
-6.046236e-09
-6.691206e-09
-7.176029e-09
-7.530096e-09
-7.779775e-09
-7.948542e-09
-8.057136e-09
-8.123408e-09
-8.161891e-09
-8.183089e-09
-8.192741e-09
-8.194089e-09
0.000000e+00
-1.762507e-09
-3.644347e-09
-5.309850e-09
-6.714708e-09
-7.854156e-09
-8.749044e-09
-9.432575e-09
-9.939965e-09
-1.030504e-08
-1.055868e-08
-1.072808e-08
-1.083604e-08
-1.090054e-08
-1.093459e-08
-1.094762e-08
-1.094987e-08
0.000000e+00
1.600884e-09
2.876120e-09
4.213678e-09
5.819054e-09
7.708532e-09
9.843690e-09
1.217453e-08
1.465312e-08
1.723997e-08
1.990476e-08
2.262676e-08
2.539753e-08
2.823511e-08
3.121559e-08
3.437828e-08
3.758148e-08
0.000000e+00
8.606249e-10
2.107104e-09
3.535450e-09
5.263212e-09
7.270420e-09
9.508908e-09
1.192525e-08
1.447270e-08
1.711348e-08
1.981923e-08
2.257108e-08
2.536123e-08
2.819819e-08
3.111839e-08
3.419325e-08
3.734469e-08
0.000000e+00
4.244443e-10
1.503710e-09
3.005826e-09
4.833728e-09
6.937869e-09
9.258534e-09
1.174170e-08
1.434238e-08
1.702487e-08
1.976263e-08
2.253807e-08
2.534193e-08
2.816922e-08
3.102332e-08
3.399673e-08
3.706385e-08
0.000000e+00
2.418314e-10
1.219192e-09
2.728315e-09
4.608335e-09
6.765779e-09
9.131133e-09
1.164994e-08
1.427879e-08
1.698347e-08
1.973827e-08
2.252526e-08
2.533200e-08
2.814607e-08
3.096435e-08
3.385711e-08
3.681816e-08
0.000000e+00
1.955315e-10
1.141672e-09
2.644294e-09
4.539021e-09
6.713363e-09
9.093065e-09
1.162340e-08
1.426159e-08
1.697387e-08
1.973431e-08
2.252380e-08
2.532782e-08
2.813356e-08
3.093665e-08
3.377737e-08
3.664335e-08
0.000000e+00
2.421571e-10
1.219643e-09
2.728925e-09
4.609200e-09
6.767156e-09
9.133474e-09
1.165389e-08
1.428502e-08
1.699232e-08
1.974888e-08
2.253429e-08
2.533304e-08
2.813329e-08
3.093036e-08
3.373890e-08
3.654274e-08
0.000000e+00
4.249594e-10
1.504525e-09
3.007032e-09
4.835510e-09
6.940732e-09
9.263314e-09
1.174958e-08
1.435463e-08
1.704220e-08
1.978386e-08
2.255779e-08
2.534752e-08
2.814116e-08
3.093238e-08
3.372188e-08
3.649577e-08
0.000000e+00
8.613483e-10
2.108457e-09
3.537452e-09
5.266105e-09
7.274786e-09
9.515681e-09
1.193571e-08
1.448822e-08
1.713490e-08
1.984544e-08
2.259640e-08
2.536992e-08
2.815293e-08
3.093672e-08
3.371541e-08
3.648009e-08
0.000000e+00
1.602041e-09
2.878109e-09
4.216466e-09
5.822853e-09
7.713781e-09
9.851123e-09
1.218511e-08
1.466787e-08
1.725939e-08
1.992761e-08
2.264735e-08
2.539908e-08
2.816792e-08
3.094285e-08
3.371497e-08
3.647769e-08


2.834839e-01
2.834839e-01
2.834840e-01
2.834843e-01
2.834846e-01
2.834847e-01
2.834849e-01
2.834850e-01
2.834851e-01
2.834852e-01
2.834852e-01
2.834852e-01
2.834852e-01
2.834852e-01
2.834852e-01
2.834851e-01
2.834842e-01
2.834842e-01
2.834843e-01
2.834845e-01
2.834847e-01
2.834848e-01
2.834850e-01
2.834851e-01
2.834851e-01
2.834852e-01
2.834852e-01
2.834852e-01
2.834852e-01
2.834852e-01
2.834852e-01
2.834851e-01
2.834846e-01
2.834846e-01
2.834847e-01
2.834848e-01
2.834849e-01
2.834850e-01
2.834851e-01
2.834851e-01
2.834852e-01
2.834852e-01
2.834852e-01
2.834852e-01
2.834852e-01
2.834852e-01
2.834852e-01
2.834852e-01
2.834850e-01
2.834850e-01
2.834850e-01
2.834850e-01
2.834851e-01
2.834851e-01
2.834852e-01
2.834852e-01
2.834852e-01
2.834852e-01
2.834852e-01
2.834852e-01
2.834852e-01
2.834852e-01
2.834852e-01
2.834852e-01
2.834850e-01
2.834850e-01
2.834850e-01
2.834850e-01
2.834851e-01
2.834851e-01
2.834852e-01
2.834852e-01
2.834852e-01
2.834852e-01
2.834852e-01
2.834852e-01
2.834852e-01
2.834852e-01
2.834852e-01
2.834852e-01
2.834846e-01
2.834846e-01
2.834847e-01
2.834848e-01
2.834849e-01
2.834850e-01
2.834851e-01
2.834851e-01
2.834852e-01
2.834852e-01
2.834852e-01
2.834852e-01
2.834852e-01
2.834853e-01
2.834853e-01
2.834853e-01
2.834842e-01
2.834842e-01
2.834843e-01
2.834845e-01
2.834847e-01
2.834848e-01
2.834850e-01
2.834851e-01
2.834851e-01
2.834852e-01
2.834852e-01
2.834852e-01
2.834852e-01
2.834853e-01
2.834853e-01
2.834853e-01
2.834839e-01
2.834839e-01
2.834840e-01
2.834843e-01
2.834845e-01
2.834847e-01
2.834849e-01
2.834850e-01
2.834851e-01
2.834852e-01
2.834852e-01
2.834852e-01
2.834853e-01
2.834853e-01
2.834853e-01
2.834853e-01


9.788226e-01
9.818257e-01
9.846038e-01
9.867424e-01
9.887274e-01
9.905578e-01
9.922254e-01
9.937107e-01
9.949980e-01
9.960747e-01
9.969308e-01
9.975580e-01
9.979478e-01
9.980869e-01
9.981873e-01
9.919982e-01
9.919882e-01
9.906120e-01
9.914974e-01
9.926530e-01
9.937304e-01
9.947096e-01
9.955961e-01
9.963989e-01
9.971259e-01
9.977844e-01
9.983819e-01
9.989229e-01
9.993949e-01
9.997040e-01
9.989224e-01
9.883280e-01
9.972162e-01
9.964258e-01
9.962124e-01
9.965126e-01
9.969075e-01
9.972899e-01
9.976450e-01
9.979805e-01
9.983055e-01
9.986224e-01
9.989184e-01
9.991475e-01
9.991953e-01
9.987827e-01
9.972858e-01
9.945934e-01
9.994335e-01
9.988570e-01
9.985009e-01
9.984105e-01
9.984466e-01
9.985071e-01
9.985676e-01
9.986266e-01
9.986846e-01
9.987331e-01
9.987466e-01
9.986745e-01
9.984456e-01
9.980348e-01
9.976864e-01
9.975982e-01
9.994356e-01
9.988600e-01
9.985035e-01
9.984100e-01
9.984376e-01
9.984813e-01
9.985116e-01
9.985218e-01
9.985079e-01
9.984632e-01
9.983801e-01
9.982603e-01
9.981463e-01
9.981690e-01
9.984914e-01
9.990495e-01
9.972202e-01
9.964319e-01
9.962182e-01
9.965127e-01
9.968921e-01
9.972426e-01
9.975391e-01
9.977775e-01
9.979559e-01
9.980761e-01
9.981521e-01
9.982264e-01
9.983825e-01
9.987098e-01
9.992013e-01
9.997095e-01
9.919874e-01
9.906114e-01
9.914962e-01
9.926497e-01
9.937220e-01
9.946904e-01
9.955561e-01
9.963227e-01
9.969907e-01
9.975617e-01
9.980451e-01
9.984672e-01
9.988737e-01
9.993000e-01
9.996985e-01
9.999495e-01
9.788082e-01
9.818031e-01
9.845761e-01
9.867113e-01
9.886995e-01
9.905477e-01
9.922599e-01
9.938321e-01
9.952646e-01
9.965546e-01
9.976869e-01
9.986262e-01
9.993250e-01
9.997561e-01
9.999522e-01
9.999990e-01
1 2 19 18
2 3 20 19
3 4 21 20
4 5 22 21
5 6 23 22
6 7 24 23
7 8 25 24
8 9 26 25
9 10 27 26
10 11 28 27
11 12 29 28
12 13 30 29
13 14 31 30
14 15 32 31
15 16 33 32
16 17 34 33
18 19 36 35
19 20 37 36
20 21 38 37
21 22 39 38
22 23 40 39
23 24 41 40
24 25 42 41
25 26 43 42
26 27 44 43
27 28 45 44
28 29 46 45
29 30 47 46
30 31 48 47
31 32 49 48
32 33 50 49
33 34 51 50
35 36 53 52
36 37 54 53
37 38 55 54
38 39 56 55
39 40 57 56
40 41 58 57
41 42 59 58
42 43 60 59
43 44 61 60
44 45 62 61
45 46 63 62
46 47 64 63
47 48 65 64
48 49 66 65
49 50 67 66
50 51 68 67
52 53 70 69
53 54 71 70
54 55 72 71
55 56 73 72
56 57 74 73
57 58 75 74
58 59 76 75
59 60 77 76
60 61 78 77
61 62 79 78
62 63 80 79
63 64 81 80
64 65 82 81
65 66 83 82
66 67 84 83
67 68 85 84
69 70 87 86
70 71 88 87
71 72 89 88
72 73 90 89
73 74 91 90
74 75 92 91
75 76 93 92
76 77 94 93
77 78 95 94
78 79 96 95
79 80 97 96
80 81 98 97
81 82 99 98
82 83 100 99
83 84 101 100
84 85 102 101
86 87 104 103
87 88 105 104
88 89 106 105
89 90 107 106
90 91 108 107
91 92 109 108
92 93 110 109
93 94 111 110
94 95 112 111
95 96 113 112
96 97 114 113
97 98 115 114
98 99 116 115
99 100 117 116
100 101 118 117
101 102 119 118
103 104 121 120
104 105 122 121
105 106 123 122
106 107 124 123
107 108 125 124
108 109 126 125
109 110 127 126
110 111 128 127
111 112 129 128
112 113 130 129
113 114 131 130
114 115 132 131
115 116 133 132
116 117 134 133
117 118 135 134
118 119 136 135
120 121 138 137
121 122 139 138
122 123 140 139
123 124 141 140
124 125 142 141
125 126 143 142
126 127 144 143
127 128 145 144
128 129 146 145
129 130 147 146
130 131 148 147
131 132 149 148
132 133 150 149
133 134 151 150
134 135 152 151
135 136 153 152
