TITLE = "Solution"
VARIABLES = x, y, u, v, psiu, psiv, t, stress
ZONE T="structure" N=153 E=128 F=FEBLOCK ET=QUADRILATERAL VARLOCATION=([7,8]=cellcentered)
0.000000e+00
1.250000e+01
2.500000e+01
3.750000e+01
5.000000e+01
6.250000e+01
7.500000e+01
8.750000e+01
1.000000e+02
1.125000e+02
1.250000e+02
1.375000e+02
1.500000e+02
1.625000e+02
1.750000e+02
1.875000e+02
2.000000e+02
0.000000e+00
1.250000e+01
2.500000e+01
3.750000e+01
5.000000e+01
6.250000e+01
7.500000e+01
8.750000e+01
1.000000e+02
1.125000e+02
1.250000e+02
1.375000e+02
1.500000e+02
1.625000e+02
1.750000e+02
1.875000e+02
2.000000e+02
0.000000e+00
1.250000e+01
2.500000e+01
3.750000e+01
5.000000e+01
6.250000e+01
7.500000e+01
8.750000e+01
1.000000e+02
1.125000e+02
1.250000e+02
1.375000e+02
1.500000e+02
1.625000e+02
1.750000e+02
1.875000e+02
2.000000e+02
0.000000e+00
1.250000e+01
2.500000e+01
3.750000e+01
5.000000e+01
6.250000e+01
7.500000e+01
8.750000e+01
1.000000e+02
1.125000e+02
1.250000e+02
1.375000e+02
1.500000e+02
1.625000e+02
1.750000e+02
1.875000e+02
2.000000e+02
0.000000e+00
1.250000e+01
2.500000e+01
3.750000e+01
5.000000e+01
6.250000e+01
7.500000e+01
8.750000e+01
1.000000e+02
1.125000e+02
1.250000e+02
1.375000e+02
1.500000e+02
1.625000e+02
1.750000e+02
1.875000e+02
2.000000e+02
0.000000e+00
1.250000e+01
2.500000e+01
3.750000e+01
5.000000e+01
6.250000e+01
7.500000e+01
8.750000e+01
1.000000e+02
1.125000e+02
1.250000e+02
1.375000e+02
1.500000e+02
1.625000e+02
1.750000e+02
1.875000e+02
2.000000e+02
0.000000e+00
1.250000e+01
2.500000e+01
3.750000e+01
5.000000e+01
6.250000e+01
7.500000e+01
8.750000e+01
1.000000e+02
1.125000e+02
1.250000e+02
1.375000e+02
1.500000e+02
1.625000e+02
1.750000e+02
1.875000e+02
2.000000e+02
0.000000e+00
1.250000e+01
2.500000e+01
3.750000e+01
5.000000e+01
6.250000e+01
7.500000e+01
8.750000e+01
1.000000e+02
1.125000e+02
1.250000e+02
1.375000e+02
1.500000e+02
1.625000e+02
1.750000e+02
1.875000e+02
2.000000e+02
0.000000e+00
1.250000e+01
2.500000e+01
3.750000e+01
5.000000e+01
6.250000e+01
7.500000e+01
8.750000e+01
1.000000e+02
1.125000e+02
1.250000e+02
1.375000e+02
1.500000e+02
1.625000e+02
1.750000e+02
1.875000e+02
2.000000e+02
0.000000e+00
0.000000e+00
0.000000e+00
0.000000e+00
0.000000e+00
0.000000e+00
0.000000e+00
0.000000e+00
0.000000e+00
0.000000e+00
0.000000e+00
0.000000e+00
0.000000e+00
0.000000e+00
0.000000e+00
0.000000e+00
0.000000e+00
1.250000e+01
1.250000e+01
1.250000e+01
1.250000e+01
1.250000e+01
1.250000e+01
1.250000e+01
1.250000e+01
1.250000e+01
1.250000e+01
1.250000e+01
1.250000e+01
1.250000e+01
1.250000e+01
1.250000e+01
1.250000e+01
1.250000e+01
2.500000e+01
2.500000e+01
2.500000e+01
2.500000e+01
2.500000e+01
2.500000e+01
2.500000e+01
2.500000e+01
2.500000e+01
2.500000e+01
2.500000e+01
2.500000e+01
2.500000e+01
2.500000e+01
2.500000e+01
2.500000e+01
2.500000e+01
3.750000e+01
3.750000e+01
3.750000e+01
3.750000e+01
3.750000e+01
3.750000e+01
3.750000e+01
3.750000e+01
3.750000e+01
3.750000e+01
3.750000e+01
3.750000e+01
3.750000e+01
3.750000e+01
3.750000e+01
3.750000e+01
3.750000e+01
5.000000e+01
5.000000e+01
5.000000e+01
5.000000e+01
5.000000e+01
5.000000e+01
5.000000e+01
5.000000e+01
5.000000e+01
5.000000e+01
5.000000e+01
5.000000e+01
5.000000e+01
5.000000e+01
5.000000e+01
5.000000e+01
5.000000e+01
6.250000e+01
6.250000e+01
6.250000e+01
6.250000e+01
6.250000e+01
6.250000e+01
6.250000e+01
6.250000e+01
6.250000e+01
6.250000e+01
6.250000e+01
6.250000e+01
6.250000e+01
6.250000e+01
6.250000e+01
6.250000e+01
6.250000e+01
7.500000e+01
7.500000e+01
7.500000e+01
7.500000e+01
7.500000e+01
7.500000e+01
7.500000e+01
7.500000e+01
7.500000e+01
7.500000e+01
7.500000e+01
7.500000e+01
7.500000e+01
7.500000e+01
7.500000e+01
7.500000e+01
7.500000e+01
8.750000e+01
8.750000e+01
8.750000e+01
8.750000e+01
8.750000e+01
8.750000e+01
8.750000e+01
8.750000e+01
8.750000e+01
8.750000e+01
8.750000e+01
8.750000e+01
8.750000e+01
8.750000e+01
8.750000e+01
8.750000e+01
8.750000e+01
1.000000e+02
1.000000e+02
1.000000e+02
1.000000e+02
1.000000e+02
1.000000e+02
1.000000e+02
1.000000e+02
1.000000e+02
1.000000e+02
1.000000e+02
1.000000e+02
1.000000e+02
1.000000e+02
1.000000e+02
1.000000e+02
1.000000e+02
0.000000e+00
-9.191392e-01
-1.606283e+00
-2.308594e+00
-2.995427e+00
-3.653468e+00
-4.328594e+00
-4.996546e+00
-5.657059e+00
-6.321362e+00
-6.985611e+00
-7.667323e+00
-8.384314e+00
-9.124147e+00
-9.871036e+00
-1.056321e+01
-1.101063e+01
0.000000e+00
-4.523393e-01
-9.360209e-01
-1.438767e+00
-1.955642e+00
-2.447688e+00
-2.952589e+00
-3.455494e+00
-3.951095e+00
-4.447812e+00
-4.940831e+00
-5.435565e+00
-5.934035e+00
-6.401388e+00
-6.739005e+00
-6.824215e+00
-6.990290e+00
0.000000e+00
-2.039501e-01
-4.516975e-01
-7.613719e-01
-1.100480e+00
-1.431666e+00
-1.775000e+00
-2.117342e+00
-2.454977e+00
-2.789592e+00
-3.112872e+00
-3.415900e+00
-3.679799e+00
-3.864427e+00
-3.916778e+00
-3.894247e+00
-4.047069e+00
0.000000e+00
-8.956561e-02
-1.925261e-01
-3.360485e-01
-4.899449e-01
-6.579888e-01
-8.295168e-01
-9.990093e-01
-1.165375e+00
-1.323101e+00
-1.463510e+00
-1.572287e+00
-1.629525e+00
-1.618007e+00
-1.554906e+00
-1.552461e+00
-1.682333e+00
0.000000e+00
-1.518214e-03
-3.047656e-03
-4.299727e-03
-4.837969e-03
-3.915087e-03
-4.472196e-04
7.408358e-03
2.229642e-02
4.758729e-02
8.888570e-02
1.542896e-01
2.494578e-01
3.667025e-01
4.634447e-01
4.722755e-01
3.689601e-01
0.000000e+00
8.697359e-02
1.874274e-01
3.285648e-01
4.812171e-01
6.502432e-01
8.269147e-01
1.009021e+00
1.199561e+00
1.399261e+00
1.608907e+00
1.824843e+00
2.036091e+00
2.220459e+00
2.341043e+00
2.363974e+00
2.304133e+00
0.000000e+00
2.027682e-01
4.492181e-01
7.575066e-01
1.095413e+00
1.425939e+00
1.770549e+00
2.117940e+00
2.464572e+00
2.816175e+00
3.171514e+00
3.519443e+00
3.832903e+00
4.080658e+00
4.236762e+00
4.290133e+00
4.275596e+00
0.000000e+00
4.525015e-01
9.359271e-01
1.438294e+00
1.954753e+00
2.445034e+00
2.947427e+00
3.447932e+00
3.935144e+00
4.418114e+00
4.899771e+00
5.365752e+00
5.773242e+00
6.079316e+00
6.268130e+00
6.349887e+00
6.365014e+00
0.000000e+00
9.203172e-01
1.608429e+00
2.312028e+00
3.000479e+00
3.658443e+00
4.331709e+00
4.996417e+00
5.642841e+00
6.280748e+00
6.912189e+00
7.511533e+00
8.012232e+00
8.353368e+00
8.523500e+00
8.565809e+00
8.564766e+00
0.000000e+00
-5.710919e-01
-1.223386e+00
-2.091245e+00
-3.127831e+00
-4.331880e+00
-5.715654e+00
-7.269872e+00
-8.996733e+00
-1.089914e+01
-1.297632e+01
-1.523692e+01
-1.769116e+01
-2.034385e+01
-2.323247e+01
-2.656110e+01
-3.147619e+01
0.000000e+00
-3.718790e-01
-1.055603e+00
-1.910236e+00
-2.953647e+00
-4.157663e+00
-5.539567e+00
-7.096309e+00
-8.824017e+00
-1.072727e+01
-1.280491e+01
-1.506261e+01
-1.751603e+01
-2.018485e+01
-2.311393e+01
-2.646276e+01
-3.050417e+01
0.000000e+00
-3.276498e-01
-9.509268e-01
-1.797395e+00
-2.831975e+00
-4.034389e+00
-5.416102e+00
-6.973620e+00
-8.704175e+00
-1.061203e+01
-1.269698e+01
-1.496584e+01
-1.743638e+01
-2.013799e+01
-2.310606e+01
-2.628958e+01
-2.927458e+01
0.000000e+00
-3.520964e-01
-9.279431e-01
-1.750264e+00
-2.765364e+00
-3.965017e+00
-5.346714e+00
-6.905582e+00
-8.641677e+00
-1.055818e+01
-1.265806e+01
-1.494822e+01
-1.743929e+01
-2.014569e+01
-2.305296e+01
-2.596256e+01
-2.849821e+01
0.000000e+00
-3.616249e-01
-9.324668e-01
-1.737971e+00
-2.748766e+00
-3.946605e+00
-5.330512e+00
-6.893819e+00
-8.636441e+00
-1.056203e+01
-1.267631e+01
-1.498359e+01
-1.747988e+01
-2.014941e+01
-2.292306e+01
-2.560998e+01
-2.790218e+01
0.000000e+00
-3.519947e-01
-9.287307e-01
-1.752939e+00
-2.771465e+00
-3.976002e+00
-5.364647e+00
-6.934084e+00
-8.682652e+00
-1.061298e+01
-1.273320e+01
-1.504530e+01
-1.753030e+01
-2.014244e+01
-2.279021e+01
-2.531541e+01
-2.750211e+01
0.000000e+00
-3.275971e-01
-9.522898e-01
-1.801728e+00
-2.841815e+00
-4.052285e+00
-5.445544e+00
-7.020399e+00
-8.771661e+00
-1.070267e+01
-1.282098e+01
-1.512758e+01
-1.759261e+01
-2.015030e+01
-2.270387e+01
-2.513144e+01
-2.731325e+01
0.000000e+00
-3.718921e-01
-1.057076e+00
-1.914962e+00
-2.964371e+00
-4.177432e+00
-5.572560e+00
-7.148274e+00
-8.898965e+00
-1.082903e+01
-1.294348e+01
-1.523923e+01
-1.767991e+01
-2.019209e+01
-2.268120e+01
-2.505277e+01
-2.726842e+01
0.000000e+00
-5.713279e-01
-1.225028e+00
-2.096274e+00
-3.138720e+00
-4.351581e+00
-5.748678e+00
-7.320790e+00
-9.068276e+00
-1.099680e+01
-1.310759e+01
-1.538814e+01
-1.779551e+01
-2.026081e+01
-2.270068e+01
-2.503815e+01
-2.726935e+01


0.000000e+00
1.401520e-05
2.439623e-05
3.613762e-05
5.070380e-05
6.390788e-05
7.695507e-05
9.066599e-05
1.037687e-04
1.164150e-04
1.293376e-04
1.421523e-04
1.522929e-04
1.587048e-04
1.627843e-04
1.663409e-04
1.706127e-04
0.000000e+00
1.032555e-05
1.952615e-05
2.815048e-05
3.992459e-05
5.026342e-05
5.969457e-05
7.010688e-05
7.998948e-05
8.902464e-05
9.833100e-05
1.071336e-04
1.128302e-04
1.142445e-04
1.141005e-04
1.170534e-04
1.218357e-04
0.000000e+00
8.299827e-06
1.475683e-05
2.057089e-05
2.871380e-05
3.555526e-05
4.170115e-05
4.848403e-05
5.468961e-05
6.010895e-05
6.521934e-05
6.936177e-05
7.128508e-05
7.083983e-05
7.060836e-05
7.334130e-05
7.802933e-05
0.000000e+00
4.353219e-06
7.000735e-06
1.061636e-05
1.432190e-05
1.742292e-05
2.070023e-05
2.379163e-05
2.648020e-05
2.876093e-05
3.025440e-05
3.084829e-05
3.062272e-05
3.051015e-05
3.136756e-05
3.425680e-05
3.865361e-05
0.000000e+00
-3.883988e-08
-8.968906e-08
-1.507248e-07
-2.240322e-07
-3.119244e-07
-4.136152e-07
-5.529281e-07
-7.761282e-07
-1.172784e-06
-1.955185e-06
-3.089984e-06
-4.325883e-06
-4.897726e-06
-4.027850e-06
-2.179490e-06
3.736834e-07
0.000000e+00
-4.418897e-06
-7.145814e-06
-1.086977e-05
-1.471188e-05
-1.794396e-05
-2.138319e-05
-2.467736e-05
-2.753168e-05
-3.015471e-05
-3.240014e-05
-3.420146e-05
-3.577943e-05
-3.690645e-05
-3.760164e-05
-3.779866e-05
-3.715558e-05
0.000000e+00
-8.317543e-06
-1.481281e-05
-2.071338e-05
-2.894194e-05
-3.586941e-05
-4.217740e-05
-4.900426e-05
-5.507368e-05
-6.049605e-05
-6.523272e-05
-6.819483e-05
-6.985044e-05
-7.124546e-05
-7.246744e-05
-7.335606e-05
-7.355690e-05
0.000000e+00
-1.030961e-05
-1.950364e-05
-2.815478e-05
-3.993913e-05
-5.026962e-05
-5.980601e-05
-7.019501e-05
-7.985825e-05
-8.914001e-05
-9.804711e-05
-1.042734e-04
-1.073469e-04
-1.091000e-04
-1.101516e-04
-1.106619e-04
-1.108149e-04
0.000000e+00
-1.400889e-05
-2.434824e-05
-3.603587e-05
-5.052570e-05
-6.359015e-05
-7.654232e-05
-9.013023e-05
-1.029606e-04
-1.158501e-04
-1.289018e-04
-1.391698e-04
-1.454484e-04
-1.483781e-04
-1.491936e-04
-1.491425e-04
-1.490458e-04
0.000000e+00
1.178302e-05
1.936671e-05
3.056387e-05
4.518754e-05
6.136142e-05
8.158168e-05
1.058640e-04
1.329704e-04
1.636346e-04
1.982382e-04
2.357823e-04
2.751877e-04
3.177219e-04
3.674984e-04
4.243718e-04
4.818394e-04
0.000000e+00
6.752809e-06
1.508762e-05
2.477731e-05
3.890483e-05
5.569378e-05
7.575914e-05
9.991692e-05
1.273982e-04
1.581917e-04
1.927648e-04
2.310466e-04
2.723669e-04
3.164033e-04
3.643693e-04
4.186592e-04
4.742918e-04
0.000000e+00
3.379014e-06
1.107080e-05
2.034606e-05
3.389091e-05
5.121531e-05
7.151776e-05
9.558278e-05
1.234429e-04
1.545696e-04
1.893195e-04
2.282118e-04
2.708259e-04
3.158326e-04
3.605294e-04
4.109756e-04
4.644287e-04
0.000000e+00
2.133302e-06
8.958060e-06
1.843421e-05
3.188587e-05
4.927533e-05
6.979831e-05
9.399047e-05
1.219890e-04
1.534521e-04
1.884790e-04
2.272386e-04
2.701363e-04
3.150200e-04
3.575239e-04
4.031475e-04
4.525436e-04
0.000000e+00
1.777877e-06
8.331675e-06
1.786033e-05
3.138624e-05
4.866225e-05
6.926616e-05
9.356908e-05
1.216047e-04
1.532877e-04
1.885668e-04
2.271740e-04
2.698504e-04
3.148899e-04
3.565119e-04
3.980690e-04
4.423004e-04
0.000000e+00
2.165129e-06
8.992671e-06
1.846438e-05
3.189945e-05
4.922530e-05
6.970639e-05
9.390593e-05
1.218717e-04
1.535671e-04
1.891914e-04
2.281443e-04
2.707162e-04
3.150397e-04
3.570106e-04
3.968361e-04
4.365386e-04
0.000000e+00
3.427137e-06
1.112666e-05
2.040455e-05
3.392214e-05
5.113189e-05
7.137094e-05
9.540490e-05
1.231418e-04
1.547214e-04
1.906396e-04
2.301020e-04
2.722819e-04
3.155125e-04
3.570278e-04
3.964471e-04
4.346023e-04
0.000000e+00
6.801421e-06
1.516352e-05
2.486193e-05
3.895712e-05
5.564480e-05
7.561526e-05
9.966423e-05
1.270370e-04
1.583034e-04
1.939503e-04
2.327729e-04
2.737466e-04
3.158961e-04
3.568801e-04
3.962296e-04
4.344377e-04
0.000000e+00
1.182807e-05
1.944749e-05
3.066293e-05
4.524662e-05
6.133990e-05
8.148139e-05
1.055776e-04
1.326351e-04
1.638526e-04
1.988909e-04
2.359250e-04
2.752507e-04
3.162870e-04
3.568862e-04
3.961377e-04
4.345226e-04


3.084961e+00
2.963389e+00
3.014872e+00
2.935225e+00
2.923454e+00
3.169167e+00
3.389424e+00
3.697877e+00
4.138502e+00
4.688004e+00
5.507077e+00
6.500347e+00
7.234151e+00
7.217333e+00
6.215996e+00
5.198384e+00
4.899183e+00
4.777793e+00
4.744472e+00
4.659791e+00
4.609367e+00
4.761282e+00
4.898883e+00
5.090737e+00
5.378899e+00
5.739007e+00
6.270596e+00
6.918097e+00
7.361193e+00
7.064568e+00
5.799733e+00
4.514463e+00
6.913854e+00
6.846258e+00
6.809852e+00
6.719751e+00
6.679398e+00
6.729716e+00
6.759632e+00
6.813482e+00
6.902867e+00
7.001184e+00
7.146327e+00
7.332445e+00
7.420681e+00
6.994287e+00
5.802325e+00
4.715721e+00
7.829151e+00
7.801802e+00
7.780172e+00
7.723291e+00
7.701767e+00
7.699328e+00
7.679003e+00
7.654443e+00
7.618319e+00
7.547094e+00
7.439166e+00
7.331227e+00
7.257176e+00
7.019498e+00
6.445584e+00
5.929731e+00
7.828290e+00
7.799811e+00
7.776485e+00
7.717258e+00
7.692267e+00
7.684643e+00
7.656143e+00
7.613212e+00
7.544864e+00
7.437072e+00
7.286494e+00
7.140944e+00
7.110538e+00
7.151422e+00
7.129951e+00
7.063599e+00
6.910403e+00
6.839080e+00
6.796273e+00
6.698124e+00
6.645683e+00
6.681587e+00
6.690839e+00
6.695760e+00
6.725890e+00
6.804529e+00
6.923267e+00
7.042052e+00
7.203882e+00
7.424849e+00
7.613366e+00
7.707880e+00
4.894619e+00
4.767623e+00
4.726552e+00
4.632225e+00
4.566977e+00
4.707485e+00
4.831950e+00
4.984040e+00
5.283346e+00
5.787053e+00
6.434939e+00
7.011171e+00
7.417429e+00
7.708901e+00
7.902644e+00
7.992679e+00
3.082038e+00
2.956025e+00
3.002246e+00
2.918228e+00
2.898041e+00
3.144223e+00
3.375894e+00
3.683376e+00
4.223085e+00
5.078356e+00
6.128037e+00
7.013702e+00
7.563473e+00
7.867410e+00
8.026538e+00
8.092983e+00


-6.521527e-01
-2.167148e-01
-2.721211e-01
-2.706881e-01
-1.639221e-01
-2.244031e-01
-2.080277e-01
-1.807329e-01
-1.923580e-01
-1.865589e-01
-2.250300e-01
-2.997256e-01
-2.656919e-01
-7.137633e-03
4.637277e-01
-7.429324e-01
5.651134e-01
4.220848e-01
3.201536e-01
2.536124e-01
2.995210e-01
2.500882e-01
2.415110e-01
2.470086e-01
2.356007e-01
2.490610e-01
2.769808e-01
3.433356e-01
5.132856e-01
7.617240e-01
7.355074e-01
-1.182170e+00
8.035119e-01
6.342416e-01
4.543679e-01
3.964042e-01
3.848538e-01
3.504154e-01
3.464329e-01
3.490403e-01
3.527696e-01
3.773878e-01
4.197718e-01
4.739381e-01
4.973450e-01
3.775121e-01
1.319552e-01
-2.983182e-01
8.415930e-01
6.985472e-01
5.092622e-01
4.148972e-01
3.643460e-01
3.403827e-01
3.381393e-01
3.430155e-01
3.483566e-01
3.467825e-01
3.237515e-01
2.562020e-01
1.011730e-01
-1.251208e-01
-1.270706e-01
1.407760e-02
8.426864e-01
6.998912e-01
5.106081e-01
4.138762e-01
3.589122e-01
3.266516e-01
3.099193e-01
2.950022e-01
2.718849e-01
2.231466e-01
1.371788e-01
1.751190e-02
-1.170459e-01
-1.632341e-01
4.099975e-02
4.256498e-01
8.060384e-01
6.375735e-01
4.580673e-01
3.963362e-01
3.769715e-01
3.266467e-01
2.932461e-01
2.554975e-01
1.945319e-01
1.073744e-01
6.234375e-03
-5.988237e-02
-4.051839e-02
1.210810e-01
4.376417e-01
7.973721e-01
5.667017e-01
4.242944e-01
3.221698e-01
2.538294e-01
2.977840e-01
2.400023e-01
2.133834e-01
2.025133e-01
1.518065e-01
7.552711e-02
1.759912e-02
6.763445e-02
2.451265e-01
5.051635e-01
7.809196e-01
9.634813e-01
-6.549344e-01
-2.181973e-01
-2.741813e-01
-2.735226e-01
-1.610685e-01
-2.175679e-01
-2.001915e-01
-1.428880e-01
-1.269051e-01
-1.258311e-01
-5.357163e-02
2.012429e-01
5.540763e-01
8.284127e-01
9.654067e-01
9.992814e-01
1 2 19 18
2 3 20 19
3 4 21 20
4 5 22 21
5 6 23 22
6 7 24 23
7 8 25 24
8 9 26 25
9 10 27 26
10 11 28 27
11 12 29 28
12 13 30 29
13 14 31 30
14 15 32 31
15 16 33 32
16 17 34 33
18 19 36 35
19 20 37 36
20 21 38 37
21 22 39 38
22 23 40 39
23 24 41 40
24 25 42 41
25 26 43 42
26 27 44 43
27 28 45 44
28 29 46 45
29 30 47 46
30 31 48 47
31 32 49 48
32 33 50 49
33 34 51 50
35 36 53 52
36 37 54 53
37 38 55 54
38 39 56 55
39 40 57 56
40 41 58 57
41 42 59 58
42 43 60 59
43 44 61 60
44 45 62 61
45 46 63 62
46 47 64 63
47 48 65 64
48 49 66 65
49 50 67 66
50 51 68 67
52 53 70 69
53 54 71 70
54 55 72 71
55 56 73 72
56 57 74 73
57 58 75 74
58 59 76 75
59 60 77 76
60 61 78 77
61 62 79 78
62 63 80 79
63 64 81 80
64 65 82 81
65 66 83 82
66 67 84 83
67 68 85 84
69 70 87 86
70 71 88 87
71 72 89 88
72 73 90 89
73 74 91 90
74 75 92 91
75 76 93 92
76 77 94 93
77 78 95 94
78 79 96 95
79 80 97 96
80 81 98 97
81 82 99 98
82 83 100 99
83 84 101 100
84 85 102 101
86 87 104 103
87 88 105 104
88 89 106 105
89 90 107 106
90 91 108 107
91 92 109 108
92 93 110 109
93 94 111 110
94 95 112 111
95 96 113 112
96 97 114 113
97 98 115 114
98 99 116 115
99 100 117 116
100 101 118 117
101 102 119 118
103 104 121 120
104 105 122 121
105 106 123 122
106 107 124 123
107 108 125 124
108 109 126 125
109 110 127 126
110 111 128 127
111 112 129 128
112 113 130 129
113 114 131 130
114 115 132 131
115 116 133 132
116 117 134 133
117 118 135 134
118 119 136 135
120 121 138 137
121 122 139 138
122 123 140 139
123 124 141 140
124 125 142 141
125 126 143 142
126 127 144 143
127 128 145 144
128 129 146 145
129 130 147 146
130 131 148 147
131 132 149 148
132 133 150 149
133 134 151 150
134 135 152 151
135 136 153 152
