TITLE = "Solution"
VARIABLES = x, y, u, v, psiu, psiv, t, stress
ZONE T="structure" N=153 E=128 F=FEBLOCK ET=QUADRILATERAL VARLOCATION=([7,8]=cellcentered)
0.000000e+00
1.250000e+01
2.500000e+01
3.750000e+01
5.000000e+01
6.250000e+01
7.500000e+01
8.750000e+01
1.000000e+02
1.125000e+02
1.250000e+02
1.375000e+02
1.500000e+02
1.625000e+02
1.750000e+02
1.875000e+02
2.000000e+02
0.000000e+00
1.250000e+01
2.500000e+01
3.750000e+01
5.000000e+01
6.250000e+01
7.500000e+01
8.750000e+01
1.000000e+02
1.125000e+02
1.250000e+02
1.375000e+02
1.500000e+02
1.625000e+02
1.750000e+02
1.875000e+02
2.000000e+02
0.000000e+00
1.250000e+01
2.500000e+01
3.750000e+01
5.000000e+01
6.250000e+01
7.500000e+01
8.750000e+01
1.000000e+02
1.125000e+02
1.250000e+02
1.375000e+02
1.500000e+02
1.625000e+02
1.750000e+02
1.875000e+02
2.000000e+02
0.000000e+00
1.250000e+01
2.500000e+01
3.750000e+01
5.000000e+01
6.250000e+01
7.500000e+01
8.750000e+01
1.000000e+02
1.125000e+02
1.250000e+02
1.375000e+02
1.500000e+02
1.625000e+02
1.750000e+02
1.875000e+02
2.000000e+02
0.000000e+00
1.250000e+01
2.500000e+01
3.750000e+01
5.000000e+01
6.250000e+01
7.500000e+01
8.750000e+01
1.000000e+02
1.125000e+02
1.250000e+02
1.375000e+02
1.500000e+02
1.625000e+02
1.750000e+02
1.875000e+02
2.000000e+02
0.000000e+00
1.250000e+01
2.500000e+01
3.750000e+01
5.000000e+01
6.250000e+01
7.500000e+01
8.750000e+01
1.000000e+02
1.125000e+02
1.250000e+02
1.375000e+02
1.500000e+02
1.625000e+02
1.750000e+02
1.875000e+02
2.000000e+02
0.000000e+00
1.250000e+01
2.500000e+01
3.750000e+01
5.000000e+01
6.250000e+01
7.500000e+01
8.750000e+01
1.000000e+02
1.125000e+02
1.250000e+02
1.375000e+02
1.500000e+02
1.625000e+02
1.750000e+02
1.875000e+02
2.000000e+02
0.000000e+00
1.250000e+01
2.500000e+01
3.750000e+01
5.000000e+01
6.250000e+01
7.500000e+01
8.750000e+01
1.000000e+02
1.125000e+02
1.250000e+02
1.375000e+02
1.500000e+02
1.625000e+02
1.750000e+02
1.875000e+02
2.000000e+02
0.000000e+00
1.250000e+01
2.500000e+01
3.750000e+01
5.000000e+01
6.250000e+01
7.500000e+01
8.750000e+01
1.000000e+02
1.125000e+02
1.250000e+02
1.375000e+02
1.500000e+02
1.625000e+02
1.750000e+02
1.875000e+02
2.000000e+02
0.000000e+00
0.000000e+00
0.000000e+00
0.000000e+00
0.000000e+00
0.000000e+00
0.000000e+00
0.000000e+00
0.000000e+00
0.000000e+00
0.000000e+00
0.000000e+00
0.000000e+00
0.000000e+00
0.000000e+00
0.000000e+00
0.000000e+00
1.250000e+01
1.250000e+01
1.250000e+01
1.250000e+01
1.250000e+01
1.250000e+01
1.250000e+01
1.250000e+01
1.250000e+01
1.250000e+01
1.250000e+01
1.250000e+01
1.250000e+01
1.250000e+01
1.250000e+01
1.250000e+01
1.250000e+01
2.500000e+01
2.500000e+01
2.500000e+01
2.500000e+01
2.500000e+01
2.500000e+01
2.500000e+01
2.500000e+01
2.500000e+01
2.500000e+01
2.500000e+01
2.500000e+01
2.500000e+01
2.500000e+01
2.500000e+01
2.500000e+01
2.500000e+01
3.750000e+01
3.750000e+01
3.750000e+01
3.750000e+01
3.750000e+01
3.750000e+01
3.750000e+01
3.750000e+01
3.750000e+01
3.750000e+01
3.750000e+01
3.750000e+01
3.750000e+01
3.750000e+01
3.750000e+01
3.750000e+01
3.750000e+01
5.000000e+01
5.000000e+01
5.000000e+01
5.000000e+01
5.000000e+01
5.000000e+01
5.000000e+01
5.000000e+01
5.000000e+01
5.000000e+01
5.000000e+01
5.000000e+01
5.000000e+01
5.000000e+01
5.000000e+01
5.000000e+01
5.000000e+01
6.250000e+01
6.250000e+01
6.250000e+01
6.250000e+01
6.250000e+01
6.250000e+01
6.250000e+01
6.250000e+01
6.250000e+01
6.250000e+01
6.250000e+01
6.250000e+01
6.250000e+01
6.250000e+01
6.250000e+01
6.250000e+01
6.250000e+01
7.500000e+01
7.500000e+01
7.500000e+01
7.500000e+01
7.500000e+01
7.500000e+01
7.500000e+01
7.500000e+01
7.500000e+01
7.500000e+01
7.500000e+01
7.500000e+01
7.500000e+01
7.500000e+01
7.500000e+01
7.500000e+01
7.500000e+01
8.750000e+01
8.750000e+01
8.750000e+01
8.750000e+01
8.750000e+01
8.750000e+01
8.750000e+01
8.750000e+01
8.750000e+01
8.750000e+01
8.750000e+01
8.750000e+01
8.750000e+01
8.750000e+01
8.750000e+01
8.750000e+01
8.750000e+01
1.000000e+02
1.000000e+02
1.000000e+02
1.000000e+02
1.000000e+02
1.000000e+02
1.000000e+02
1.000000e+02
1.000000e+02
1.000000e+02
1.000000e+02
1.000000e+02
1.000000e+02
1.000000e+02
1.000000e+02
1.000000e+02
1.000000e+02
0.000000e+00
-9.958402e-01
-1.679036e+00
-2.431201e+00
-3.117169e+00
-3.750592e+00
-4.458183e+00
-5.087265e+00
-5.763233e+00
-6.405596e+00
-7.055574e+00
-7.723576e+00
-8.376481e+00
-9.146497e+00
-1.007749e+01
-1.083398e+01
-1.128410e+01
0.000000e+00
-4.459386e-01
-9.065175e-01
-1.419027e+00
-1.930646e+00
-2.410747e+00
-2.924847e+00
-3.423035e+00
-3.919032e+00
-4.421454e+00
-4.913968e+00
-5.416935e+00
-5.901801e+00
-6.421436e+00
-6.897734e+00
-7.024059e+00
-7.202949e+00
0.000000e+00
-1.460988e-01
-3.488727e-01
-6.395680e-01
-9.775605e-01
-1.302605e+00
-1.655757e+00
-2.012856e+00
-2.356439e+00
-2.718583e+00
-3.057427e+00
-3.391733e+00
-3.687430e+00
-3.927368e+00
-4.036605e+00
-4.034626e+00
-4.183047e+00
0.000000e+00
-7.898449e-02
-1.621270e-01
-3.096497e-01
-4.548827e-01
-6.282023e-01
-8.138875e-01
-9.790908e-01
-1.166844e+00
-1.328796e+00
-1.489839e+00
-1.628902e+00
-1.722307e+00
-1.730486e+00
-1.656834e+00
-1.635877e+00
-1.752922e+00
0.000000e+00
-3.319652e-03
-7.226455e-03
-1.128835e-02
-1.567512e-02
-1.910080e-02
-1.997514e-02
-1.722551e-02
-8.446224e-03
8.401241e-03
3.279795e-02
7.773567e-02
1.602610e-01
2.752055e-01
3.950235e-01
4.358975e-01
3.377196e-01
0.000000e+00
7.317832e-02
1.504227e-01
2.905836e-01
4.290562e-01
5.956077e-01
7.744623e-01
9.427974e-01
1.148812e+00
1.344061e+00
1.562030e+00
1.782332e+00
2.008946e+00
2.216458e+00
2.352266e+00
2.385166e+00
2.319488e+00
0.000000e+00
1.437351e-01
3.435829e-01
6.305397e-01
9.656028e-01
1.290860e+00
1.643122e+00
1.999647e+00
2.359188e+00
2.764666e+00
3.143764e+00
3.510763e+00
3.843605e+00
4.119318e+00
4.296106e+00
4.350740e+00
4.328076e+00
0.000000e+00
4.466426e-01
9.072624e-01
1.419532e+00
1.930444e+00
2.409103e+00
2.920134e+00
3.415640e+00
3.903321e+00
4.396697e+00
4.874982e+00
5.350111e+00
5.778079e+00
6.125776e+00
6.342876e+00
6.438700e+00
6.456413e+00
0.000000e+00
9.981128e-01
1.684132e+00
2.440049e+00
3.127961e+00
3.761986e+00
4.468578e+00
5.095815e+00
5.747508e+00
6.331637e+00
6.905076e+00
7.505942e+00
8.036038e+00
8.448156e+00
8.649406e+00
8.702141e+00
8.702670e+00
0.000000e+00
-6.187373e-01
-1.361800e+00
-2.363181e+00
-3.537356e+00
-4.880918e+00
-6.412377e+00
-8.098520e+00
-9.958993e+00
-1.198248e+01
-1.416727e+01
-1.651811e+01
-1.903179e+01
-2.176292e+01
-2.472717e+01
-2.808664e+01
-3.310232e+01
0.000000e+00
-4.158713e-01
-1.193455e+00
-2.176976e+00
-3.368293e+00
-4.706771e+00
-6.234853e+00
-7.929903e+00
-9.782705e+00
-1.181490e+01
-1.399498e+01
-1.635041e+01
-1.885890e+01
-2.157027e+01
-2.458698e+01
-2.800289e+01
-3.205275e+01
0.000000e+00
-3.903170e-01
-1.091645e+00
-2.073572e+00
-3.249163e+00
-4.580845e+00
-6.115115e+00
-7.800084e+00
-9.663709e+00
-1.169307e+01
-1.388431e+01
-1.625111e+01
-1.876983e+01
-2.150801e+01
-2.457700e+01
-2.785101e+01
-3.088354e+01
0.000000e+00
-4.493057e-01
-1.088022e+00
-2.047445e+00
-3.186715e+00
-4.511279e+00
-6.053454e+00
-7.723422e+00
-9.606077e+00
-1.163443e+01
-1.384738e+01
-1.623405e+01
-1.877828e+01
-2.151835e+01
-2.450734e+01
-2.754133e+01
-3.016721e+01
0.000000e+00
-4.562470e-01
-1.110417e+00
-2.031855e+00
-3.172402e+00
-4.501576e+00
-6.031938e+00
-7.721679e+00
-9.595875e+00
-1.164654e+01
-1.387397e+01
-1.626783e+01
-1.881953e+01
-2.151950e+01
-2.435676e+01
-2.717476e+01
-2.956270e+01
0.000000e+00
-4.480357e-01
-1.087701e+00
-2.049542e+00
-3.193686e+00
-4.528508e+00
-6.081028e+00
-7.760199e+00
-9.657938e+00
-1.171219e+01
-1.394430e+01
-1.631999e+01
-1.885043e+01
-2.150952e+01
-2.422186e+01
-2.685500e+01
-2.912434e+01
0.000000e+00
-3.886244e-01
-1.091656e+00
-2.078392e+00
-3.262970e+00
-4.610155e+00
-6.160914e+00
-7.869438e+00
-9.763002e+00
-1.182848e+01
-1.403072e+01
-1.638725e+01
-1.888966e+01
-2.150942e+01
-2.413947e+01
-2.664781e+01
-2.889061e+01
0.000000e+00
-4.143052e-01
-1.193558e+00
-2.182662e+00
-3.384520e+00
-4.738001e+00
-6.285970e+00
-8.010487e+00
-9.901584e+00
-1.196575e+01
-1.414578e+01
-1.648577e+01
-1.896683e+01
-2.155097e+01
-2.411894e+01
-2.656027e+01
-2.883013e+01
0.000000e+00
-6.177640e-01
-1.362533e+00
-2.369561e+00
-3.553986e+00
-4.912021e+00
-6.464183e+00
-8.178811e+00
-1.007426e+01
-1.212121e+01
-1.430091e+01
-1.663399e+01
-1.909049e+01
-2.163299e+01
-2.414356e+01
-2.654538e+01
-2.882899e+01


0.000000e+00
1.541831e-05
2.508398e-05
3.749349e-05
5.358496e-05
6.717207e-05
8.318087e-05
9.714151e-05
1.118630e-04
1.257474e-04
1.408870e-04
1.552301e-04
1.717896e-04
1.876044e-04
1.976775e-04
2.034182e-04
2.103514e-04
0.000000e+00
1.145813e-05
1.973709e-05
2.841341e-05
4.099271e-05
5.172168e-05
6.184784e-05
7.296112e-05
8.316235e-05
9.457339e-05
1.052307e-04
1.156200e-04
1.264857e-04
1.358389e-04
1.374373e-04
1.411901e-04
1.470131e-04
0.000000e+00
9.529546e-06
1.502522e-05
2.021011e-05
2.884504e-05
3.554409e-05
4.127464e-05
4.862260e-05
5.459345e-05
6.196188e-05
6.836864e-05
7.404162e-05
7.875748e-05
8.094053e-05
8.018899e-05
8.256581e-05
8.679810e-05
0.000000e+00
5.186564e-06
6.844299e-06
9.622388e-06
1.306200e-05
1.351966e-05
1.586668e-05
1.725592e-05
2.087696e-05
2.430873e-05
2.806327e-05
2.912255e-05
2.854158e-05
2.711306e-05
2.684126e-05
2.987796e-05
3.554899e-05
0.000000e+00
-1.757205e-07
-4.377698e-07
-8.613275e-07
-1.733393e-06
-2.895692e-06
-5.011906e-06
-7.259084e-06
-7.838241e-06
-7.879206e-06
-8.815190e-06
-1.195410e-05
-1.469927e-05
-1.612668e-05
-1.580238e-05
-1.364857e-05
-9.658528e-06
0.000000e+00
-5.451669e-06
-7.435897e-06
-1.075581e-05
-1.466627e-05
-1.608676e-05
-2.054414e-05
-2.432318e-05
-3.026764e-05
-3.341448e-05
-3.755232e-05
-4.222570e-05
-4.735941e-05
-4.914262e-05
-4.968530e-05
-5.015396e-05
-4.842002e-05
0.000000e+00
-9.529063e-06
-1.509212e-05
-2.037885e-05
-2.894813e-05
-3.533683e-05
-4.074422e-05
-4.873713e-05
-5.591511e-05
-6.361744e-05
-6.889306e-05
-7.390186e-05
-7.805276e-05
-8.163075e-05
-8.353377e-05
-8.545086e-05
-8.619728e-05
0.000000e+00
-1.138720e-05
-1.964902e-05
-2.830772e-05
-4.076850e-05
-5.166298e-05
-6.160445e-05
-7.279720e-05
-8.318646e-05
-9.457745e-05
-1.052207e-04
-1.135914e-04
-1.183815e-04
-1.234149e-04
-1.270270e-04
-1.283320e-04
-1.284276e-04
0.000000e+00
-1.542873e-05
-2.502471e-05
-3.733957e-05
-5.337418e-05
-6.699860e-05
-8.287284e-05
-9.587328e-05
-1.099910e-04
-1.233080e-04
-1.409695e-04
-1.567970e-04
-1.665964e-04
-1.718182e-04
-1.740236e-04
-1.742447e-04
-1.740650e-04
0.000000e+00
1.259697e-05
1.999756e-05
3.243458e-05
4.873994e-05
6.686057e-05
9.129289e-05
1.201267e-04
1.534263e-04
1.901708e-04
2.303338e-04
2.743413e-04
3.242706e-04
3.783960e-04
4.399271e-04
5.107760e-04
5.841721e-04
0.000000e+00
7.679750e-06
1.610758e-05
2.633337e-05
4.227760e-05
6.090091e-05
8.483336e-05
1.142552e-04
1.471859e-04
1.840504e-04
2.239976e-04
2.681301e-04
3.176974e-04
3.734548e-04
4.346752e-04
5.033953e-04
5.738187e-04
0.000000e+00
4.325575e-06
1.229129e-05
2.172273e-05
3.645771e-05
5.567748e-05
7.941169e-05
1.097449e-04
1.430286e-04
1.795644e-04
2.194075e-04
2.635914e-04
3.139115e-04
3.710625e-04
4.305287e-04
4.959174e-04
5.641357e-04
0.000000e+00
3.198942e-06
1.059029e-05
2.008328e-05
3.450946e-05
5.200921e-05
7.640376e-05
1.087450e-04
1.435759e-04
1.781345e-04
2.173595e-04
2.619513e-04
3.131537e-04
3.696490e-04
4.277922e-04
4.880836e-04
5.499787e-04
0.000000e+00
2.810652e-06
1.026683e-05
2.004258e-05
3.424139e-05
5.071889e-05
7.528285e-05
1.097806e-04
1.447970e-04
1.780469e-04
2.155658e-04
2.618884e-04
3.133803e-04
3.697875e-04
4.266498e-04
4.817006e-04
5.338526e-04
0.000000e+00
3.342510e-06
1.078152e-05
2.046007e-05
3.485110e-05
5.181472e-05
7.716333e-05
1.106773e-04
1.454118e-04
1.778710e-04
2.159464e-04
2.633609e-04
3.157267e-04
3.701122e-04
4.265556e-04
4.793799e-04
5.228239e-04
0.000000e+00
4.479585e-06
1.252066e-05
2.206881e-05
3.673864e-05
5.575985e-05
8.038892e-05
1.117485e-04
1.447451e-04
1.789643e-04
2.182194e-04
2.665775e-04
3.192205e-04
3.722124e-04
4.256472e-04
4.766317e-04
5.193472e-04
0.000000e+00
7.804536e-06
1.634496e-05
2.663599e-05
4.253733e-05
6.131278e-05
8.580316e-05
1.159264e-04
1.482005e-04
1.832628e-04
2.228553e-04
2.703439e-04
3.222657e-04
3.744149e-04
4.257938e-04
4.746100e-04
5.198081e-04
0.000000e+00
1.271054e-05
2.023503e-05
3.272725e-05
4.908112e-05
6.739964e-05
9.233585e-05
1.215867e-04
1.543854e-04
1.894436e-04
2.301137e-04
2.747022e-04
3.245579e-04
3.755773e-04
4.261119e-04
4.741264e-04
5.200722e-04


5.673319e+00
6.137941e+00
6.865658e+00
5.933215e+00
5.717992e+00
6.534977e+00
6.405086e+00
6.415007e+00
5.959343e+00
5.902566e+00
6.284157e+00
7.151017e+00
8.848011e+00
9.829742e+00
9.150607e+00
8.001589e+00
8.083030e+00
8.460332e+00
8.661205e+00
8.357423e+00
8.227540e+00
8.497096e+00
8.661507e+00
8.421460e+00
8.395895e+00
8.270257e+00
8.417240e+00
8.844522e+00
9.506840e+00
9.842390e+00
8.394789e+00
6.473820e+00
9.842853e+00
9.823493e+00
9.998989e+00
9.837346e+00
9.835744e+00
9.967014e+00
9.835060e+00
9.946021e+00
9.848454e+00
9.880310e+00
9.898104e+00
9.875927e+00
9.894261e+00
9.395562e+00
8.000117e+00
6.191429e+00
9.999502e+00
9.999493e+00
9.999489e+00
9.999440e+00
9.999371e+00
9.999234e+00
9.999078e+00
9.999076e+00
9.999164e+00
9.999149e+00
9.998778e+00
9.482895e+00
8.832177e+00
8.373280e+00
7.991876e+00
7.920315e+00
9.999500e+00
9.999487e+00
9.999478e+00
9.999412e+00
9.999297e+00
9.999046e+00
9.934282e+00
9.963170e+00
9.998409e+00
9.918354e+00
9.359373e+00
8.594872e+00
7.711466e+00
7.749161e+00
8.653765e+00
9.169195e+00
9.843238e+00
9.823439e+00
9.998936e+00
9.837095e+00
9.835166e+00
9.709093e+00
9.307902e+00
9.518874e+00
9.386775e+00
8.871478e+00
8.311455e+00
7.901019e+00
8.205341e+00
8.757872e+00
9.448821e+00
9.998232e+00
8.085298e+00
8.461292e+00
8.660561e+00
8.355790e+00
8.144866e+00
8.045345e+00
7.880478e+00
7.796277e+00
7.886798e+00
7.344267e+00
7.485215e+00
8.493765e+00
9.294416e+00
9.849812e+00
9.998969e+00
9.999383e+00
5.679009e+00
6.139751e+00
6.864605e+00
5.924787e+00
5.684504e+00
6.193987e+00
6.010613e+00
6.478200e+00
6.276196e+00
6.522268e+00
7.868715e+00
9.115491e+00
9.986680e+00
9.999198e+00
9.999448e+00
9.999534e+00


-8.186697e-01
-1.677494e-01
-3.972300e-01
-2.582904e-01
-9.346359e-02
-3.068263e-01
-1.234773e-01
-2.097334e-01
-1.617867e-01
-1.579014e-01
-2.152196e-01
-1.497746e-01
-4.614484e-01
-6.859382e-01
3.157617e-01
-8.469641e-01
6.108075e-01
4.813217e-01
2.953140e-01
2.252828e-01
2.908554e-01
1.679981e-01
1.751960e-01
1.731411e-01
1.097133e-01
1.482415e-01
1.280406e-01
2.413701e-01
3.024724e-01
5.093341e-01
6.953554e-01
-9.344903e-01
7.227661e-01
4.715907e-01
5.651709e-02
-2.222882e-02
-3.637930e-02
-1.884259e-01
-8.022870e-02
-1.379549e-01
-7.732539e-02
-1.896231e-02
3.144756e-02
1.855289e-01
2.782442e-01
1.479589e-01
-2.537516e-02
-1.678975e-01
7.280161e-01
5.564181e-01
1.928650e-01
6.166128e-02
-2.234073e-02
-1.065989e-01
-1.647816e-02
-6.193501e-02
1.320658e-02
1.687923e-02
5.866951e-02
1.174897e-01
5.864903e-02
-2.623753e-01
-3.839605e-01
-7.819978e-02
7.309213e-01
5.603585e-01
2.008591e-01
6.984652e-02
-1.844438e-02
-1.125464e-01
-3.659260e-02
-1.026780e-01
-5.237363e-02
-4.342186e-02
2.108616e-02
1.420606e-02
-3.782585e-02
-1.299255e-01
-1.025519e-01
3.105400e-01
7.295804e-01
4.817942e-01
7.458227e-02
-4.263909e-03
-2.438121e-02
-1.622573e-01
-7.368929e-02
-1.879203e-01
-1.820563e-01
-1.091465e-01
-7.759791e-02
-9.774219e-02
-1.115488e-01
4.532625e-02
3.341626e-01
7.245729e-01
6.148980e-01
4.871639e-01
3.027833e-01
2.302731e-01
2.869823e-01
1.614514e-01
1.523812e-01
1.031037e-01
-5.742690e-02
-4.020401e-02
-9.655535e-02
-5.689129e-02
5.724188e-02
3.650097e-01
7.128578e-01
9.478986e-01
-8.243081e-01
-1.732837e-01
-4.048405e-01
-2.613883e-01
-9.273151e-02
-3.008491e-01
-1.194668e-01
-1.570728e-01
-5.602271e-02
-2.181296e-02
-9.258680e-02
9.985919e-02
3.877844e-01
7.721104e-01
9.528989e-01
9.987356e-01
1 2 19 18
2 3 20 19
3 4 21 20
4 5 22 21
5 6 23 22
6 7 24 23
7 8 25 24
8 9 26 25
9 10 27 26
10 11 28 27
11 12 29 28
12 13 30 29
13 14 31 30
14 15 32 31
15 16 33 32
16 17 34 33
18 19 36 35
19 20 37 36
20 21 38 37
21 22 39 38
22 23 40 39
23 24 41 40
24 25 42 41
25 26 43 42
26 27 44 43
27 28 45 44
28 29 46 45
29 30 47 46
30 31 48 47
31 32 49 48
32 33 50 49
33 34 51 50
35 36 53 52
36 37 54 53
37 38 55 54
38 39 56 55
39 40 57 56
40 41 58 57
41 42 59 58
42 43 60 59
43 44 61 60
44 45 62 61
45 46 63 62
46 47 64 63
47 48 65 64
48 49 66 65
49 50 67 66
50 51 68 67
52 53 70 69
53 54 71 70
54 55 72 71
55 56 73 72
56 57 74 73
57 58 75 74
58 59 76 75
59 60 77 76
60 61 78 77
61 62 79 78
62 63 80 79
63 64 81 80
64 65 82 81
65 66 83 82
66 67 84 83
67 68 85 84
69 70 87 86
70 71 88 87
71 72 89 88
72 73 90 89
73 74 91 90
74 75 92 91
75 76 93 92
76 77 94 93
77 78 95 94
78 79 96 95
79 80 97 96
80 81 98 97
81 82 99 98
82 83 100 99
83 84 101 100
84 85 102 101
86 87 104 103
87 88 105 104
88 89 106 105
89 90 107 106
90 91 108 107
91 92 109 108
92 93 110 109
93 94 111 110
94 95 112 111
95 96 113 112
96 97 114 113
97 98 115 114
98 99 116 115
99 100 117 116
100 101 118 117
101 102 119 118
103 104 121 120
104 105 122 121
105 106 123 122
106 107 124 123
107 108 125 124
108 109 126 125
109 110 127 126
110 111 128 127
111 112 129 128
112 113 130 129
113 114 131 130
114 115 132 131
115 116 133 132
116 117 134 133
117 118 135 134
118 119 136 135
120 121 138 137
121 122 139 138
122 123 140 139
123 124 141 140
124 125 142 141
125 126 143 142
126 127 144 143
127 128 145 144
128 129 146 145
129 130 147 146
130 131 148 147
131 132 149 148
132 133 150 149
133 134 151 150
134 135 152 151
135 136 153 152
