TITLE = "Solution"
VARIABLES = x, y, u, v, psiu, psiv, t, stress
ZONE T="structure" N=153 E=128 F=FEBLOCK ET=QUADRILATERAL VARLOCATION=([7,8]=cellcentered)
0.000000e+00
1.250000e+01
2.500000e+01
3.750000e+01
5.000000e+01
6.250000e+01
7.500000e+01
8.750000e+01
1.000000e+02
1.125000e+02
1.250000e+02
1.375000e+02
1.500000e+02
1.625000e+02
1.750000e+02
1.875000e+02
2.000000e+02
0.000000e+00
1.250000e+01
2.500000e+01
3.750000e+01
5.000000e+01
6.250000e+01
7.500000e+01
8.750000e+01
1.000000e+02
1.125000e+02
1.250000e+02
1.375000e+02
1.500000e+02
1.625000e+02
1.750000e+02
1.875000e+02
2.000000e+02
0.000000e+00
1.250000e+01
2.500000e+01
3.750000e+01
5.000000e+01
6.250000e+01
7.500000e+01
8.750000e+01
1.000000e+02
1.125000e+02
1.250000e+02
1.375000e+02
1.500000e+02
1.625000e+02
1.750000e+02
1.875000e+02
2.000000e+02
0.000000e+00
1.250000e+01
2.500000e+01
3.750000e+01
5.000000e+01
6.250000e+01
7.500000e+01
8.750000e+01
1.000000e+02
1.125000e+02
1.250000e+02
1.375000e+02
1.500000e+02
1.625000e+02
1.750000e+02
1.875000e+02
2.000000e+02
0.000000e+00
1.250000e+01
2.500000e+01
3.750000e+01
5.000000e+01
6.250000e+01
7.500000e+01
8.750000e+01
1.000000e+02
1.125000e+02
1.250000e+02
1.375000e+02
1.500000e+02
1.625000e+02
1.750000e+02
1.875000e+02
2.000000e+02
0.000000e+00
1.250000e+01
2.500000e+01
3.750000e+01
5.000000e+01
6.250000e+01
7.500000e+01
8.750000e+01
1.000000e+02
1.125000e+02
1.250000e+02
1.375000e+02
1.500000e+02
1.625000e+02
1.750000e+02
1.875000e+02
2.000000e+02
0.000000e+00
1.250000e+01
2.500000e+01
3.750000e+01
5.000000e+01
6.250000e+01
7.500000e+01
8.750000e+01
1.000000e+02
1.125000e+02
1.250000e+02
1.375000e+02
1.500000e+02
1.625000e+02
1.750000e+02
1.875000e+02
2.000000e+02
0.000000e+00
1.250000e+01
2.500000e+01
3.750000e+01
5.000000e+01
6.250000e+01
7.500000e+01
8.750000e+01
1.000000e+02
1.125000e+02
1.250000e+02
1.375000e+02
1.500000e+02
1.625000e+02
1.750000e+02
1.875000e+02
2.000000e+02
0.000000e+00
1.250000e+01
2.500000e+01
3.750000e+01
5.000000e+01
6.250000e+01
7.500000e+01
8.750000e+01
1.000000e+02
1.125000e+02
1.250000e+02
1.375000e+02
1.500000e+02
1.625000e+02
1.750000e+02
1.875000e+02
2.000000e+02
0.000000e+00
0.000000e+00
0.000000e+00
0.000000e+00
0.000000e+00
0.000000e+00
0.000000e+00
0.000000e+00
0.000000e+00
0.000000e+00
0.000000e+00
0.000000e+00
0.000000e+00
0.000000e+00
0.000000e+00
0.000000e+00
0.000000e+00
1.250000e+01
1.250000e+01
1.250000e+01
1.250000e+01
1.250000e+01
1.250000e+01
1.250000e+01
1.250000e+01
1.250000e+01
1.250000e+01
1.250000e+01
1.250000e+01
1.250000e+01
1.250000e+01
1.250000e+01
1.250000e+01
1.250000e+01
2.500000e+01
2.500000e+01
2.500000e+01
2.500000e+01
2.500000e+01
2.500000e+01
2.500000e+01
2.500000e+01
2.500000e+01
2.500000e+01
2.500000e+01
2.500000e+01
2.500000e+01
2.500000e+01
2.500000e+01
2.500000e+01
2.500000e+01
3.750000e+01
3.750000e+01
3.750000e+01
3.750000e+01
3.750000e+01
3.750000e+01
3.750000e+01
3.750000e+01
3.750000e+01
3.750000e+01
3.750000e+01
3.750000e+01
3.750000e+01
3.750000e+01
3.750000e+01
3.750000e+01
3.750000e+01
5.000000e+01
5.000000e+01
5.000000e+01
5.000000e+01
5.000000e+01
5.000000e+01
5.000000e+01
5.000000e+01
5.000000e+01
5.000000e+01
5.000000e+01
5.000000e+01
5.000000e+01
5.000000e+01
5.000000e+01
5.000000e+01
5.000000e+01
6.250000e+01
6.250000e+01
6.250000e+01
6.250000e+01
6.250000e+01
6.250000e+01
6.250000e+01
6.250000e+01
6.250000e+01
6.250000e+01
6.250000e+01
6.250000e+01
6.250000e+01
6.250000e+01
6.250000e+01
6.250000e+01
6.250000e+01
7.500000e+01
7.500000e+01
7.500000e+01
7.500000e+01
7.500000e+01
7.500000e+01
7.500000e+01
7.500000e+01
7.500000e+01
7.500000e+01
7.500000e+01
7.500000e+01
7.500000e+01
7.500000e+01
7.500000e+01
7.500000e+01
7.500000e+01
8.750000e+01
8.750000e+01
8.750000e+01
8.750000e+01
8.750000e+01
8.750000e+01
8.750000e+01
8.750000e+01
8.750000e+01
8.750000e+01
8.750000e+01
8.750000e+01
8.750000e+01
8.750000e+01
8.750000e+01
8.750000e+01
8.750000e+01
1.000000e+02
1.000000e+02
1.000000e+02
1.000000e+02
1.000000e+02
1.000000e+02
1.000000e+02
1.000000e+02
1.000000e+02
1.000000e+02
1.000000e+02
1.000000e+02
1.000000e+02
1.000000e+02
1.000000e+02
1.000000e+02
1.000000e+02
0.000000e+00
-8.395748e-01
-1.517427e+00
-2.177783e+00
-2.851104e+00
-3.509162e+00
-4.159961e+00
-4.809477e+00
-5.453484e+00
-6.085864e+00
-6.697784e+00
-7.280436e+00
-7.834086e+00
-8.374792e+00
-8.931470e+00
-9.539930e+00
-9.965228e+00
0.000000e+00
-4.595529e-01
-9.554254e-01
-1.447011e+00
-1.951186e+00
-2.444154e+00
-2.930727e+00
-3.415762e+00
-3.896096e+00
-4.366366e+00
-4.817879e+00
-5.238812e+00
-5.617255e+00
-5.936208e+00
-6.153703e+00
-6.202269e+00
-6.342905e+00
0.000000e+00
-2.552302e-01
-5.384689e-01
-8.575281e-01
-1.191329e+00
-1.522150e+00
-1.850822e+00
-2.176917e+00
-2.496351e+00
-2.802955e+00
-3.086871e+00
-3.334124e+00
-3.526809e+00
-3.641144e+00
-3.653809e+00
-3.621815e+00
-3.768342e+00
0.000000e+00
-1.127295e-01
-2.420311e-01
-3.944196e-01
-5.584726e-01
-7.252230e-01
-8.916628e-01
-1.054727e+00
-1.210410e+00
-1.352867e+00
-1.473490e+00
-1.561031e+00
-1.603220e+00
-1.592697e+00
-1.549898e+00
-1.556987e+00
-1.673899e+00
0.000000e+00
-5.859328e-04
-1.213581e-03
-1.773633e-03
-2.051074e-03
-1.649052e-03
1.449404e-04
4.585210e-03
1.381616e-02
3.120713e-02
6.134087e-02
1.090292e-01
1.760917e-01
2.534576e-01
3.095857e-01
3.017507e-01
2.190200e-01
0.000000e+00
1.117387e-01
2.399517e-01
3.913058e-01
5.547021e-01
7.218114e-01
8.907667e-01
1.060539e+00
1.230523e+00
1.400134e+00
1.568041e+00
1.731286e+00
1.883053e+00
2.008591e+00
2.084930e+00
2.094033e+00
2.050505e+00
0.000000e+00
2.547275e-01
5.373416e-01
8.556809e-01
1.188756e+00
1.519036e+00
1.847770e+00
2.175436e+00
2.499179e+00
2.813998e+00
3.111388e+00
3.379906e+00
3.606861e+00
3.778943e+00
3.883892e+00
3.918689e+00
3.908640e+00
0.000000e+00
4.596593e-01
9.555236e-01
1.447010e+00
1.950908e+00
2.443122e+00
2.928153e+00
3.410623e+00
3.886133e+00
4.344996e+00
4.770540e+00
5.141513e+00
5.439223e+00
5.652745e+00
5.781427e+00
5.836512e+00
5.846713e+00
0.000000e+00
8.400682e-01
1.518591e+00
2.179824e+00
2.854144e+00
3.512958e+00
4.163916e+00
4.812450e+00
5.451503e+00
6.066034e+00
6.629981e+00
7.110141e+00
7.477343e+00
7.715952e+00
7.831785e+00
7.859944e+00
7.859132e+00
0.000000e+00
-5.166545e-01
-1.065942e+00
-1.794548e+00
-2.689417e+00
-3.750156e+00
-4.982249e+00
-6.385774e+00
-7.957981e+00
-9.694434e+00
-1.158732e+01
-1.362758e+01
-1.581111e+01
-1.814890e+01
-2.070555e+01
-2.369510e+01
-2.812780e+01
0.000000e+00
-3.260115e-01
-8.991432e-01
-1.620264e+00
-2.515354e+00
-3.579068e+00
-4.812349e+00
-6.217050e+00
-7.792051e+00
-9.533705e+00
-1.143512e+01
-1.348698e+01
-1.568381e+01
-1.803822e+01
-2.060751e+01
-2.358875e+01
-2.728796e+01
0.000000e+00
-2.652274e-01
-7.884401e-01
-1.502351e+00
-2.393625e+00
-3.457596e+00
-4.692468e+00
-6.099768e+00
-7.679275e+00
-9.428480e+00
-1.134157e+01
-1.341004e+01
-1.562937e+01
-1.801132e+01
-2.059224e+01
-2.339989e+01
-2.607164e+01
0.000000e+00
-2.575086e-01
-7.442939e-01
-1.439230e+00
-2.323834e+00
-3.386153e+00
-4.622944e+00
-6.034402e+00
-7.620632e+00
-9.379980e+00
-1.130720e+01
-1.339353e+01
-1.563108e+01
-1.801718e+01
-2.053576e+01
-2.307290e+01
-2.533038e+01
0.000000e+00
-2.595596e-01
-7.348060e-01
-1.421460e+00
-2.302228e+00
-3.364440e+00
-4.603475e+00
-6.019196e+00
-7.612154e+00
-9.381174e+00
-1.132054e+01
-1.341857e+01
-1.565836e+01
-1.801458e+01
-2.042907e+01
-2.277509e+01
-2.484613e+01
0.000000e+00
-2.573236e-01
-7.443661e-01
-1.440074e+00
-2.326212e+00
-3.391178e+00
-4.632260e+00
-6.050636e+00
-7.647763e+00
-9.422754e+00
-1.136861e+01
-1.346886e+01
-1.569583e+01
-1.800598e+01
-2.032889e+01
-2.255896e+01
-2.456016e+01
0.000000e+00
-2.649071e-01
-7.885212e-01
-1.503650e+00
-2.397401e+00
-3.465706e+00
-4.707688e+00
-6.126561e+00
-7.724427e+00
-9.500204e+00
-1.144530e+01
-1.353882e+01
-1.574495e+01
-1.801102e+01
-2.026674e+01
-2.243201e+01
-2.443157e+01
0.000000e+00
-3.256886e-01
-8.992273e-01
-1.621684e+00
-2.519537e+00
-3.588124e+00
-4.829502e+00
-6.247461e+00
-7.843351e+00
-9.614820e+00
-1.155148e+01
-1.362990e+01
-1.581118e+01
-1.804044e+01
-2.025070e+01
-2.237885e+01
-2.440173e+01
0.000000e+00
-5.164690e-01
-1.066156e+00
-1.796138e+00
-2.693779e+00
-3.759358e+00
-4.999528e+00
-6.416171e+00
-8.008212e+00
-9.770971e+00
-1.169145e+01
-1.374525e+01
-1.589466e+01
-1.808791e+01
-2.026370e+01
-2.236901e+01
-2.440246e+01


0.000000e+00
1.079115e-05
2.075350e-05
3.040177e-05
4.084865e-05
5.107062e-05
6.046871e-05
6.909029e-05
7.674636e-05
8.299314e-05
8.759723e-05
9.073203e-05
9.285170e-05
9.450597e-05
9.609281e-05
9.828550e-05
1.010950e-04
0.000000e+00
7.942862e-06
1.674261e-05
2.400722e-05
3.200263e-05
3.983524e-05
4.685822e-05
5.322631e-05
5.884510e-05
6.328348e-05
6.633628e-05
6.817302e-05
6.908264e-05
6.927911e-05
6.946152e-05
7.123576e-05
7.426684e-05
0.000000e+00
6.017626e-06
1.194841e-05
1.695593e-05
2.235063e-05
2.746281e-05
3.203331e-05
3.611830e-05
3.962009e-05
4.230375e-05
4.407491e-05
4.502513e-05
4.533607e-05
4.529933e-05
4.552260e-05
4.707223e-05
4.971735e-05
0.000000e+00
3.013213e-06
5.600472e-06
8.462305e-06
1.113026e-05
1.358070e-05
1.582491e-05
1.780677e-05
1.944439e-05
2.068288e-05
2.149628e-05
2.192049e-05
2.209675e-05
2.227412e-05
2.269508e-05
2.366652e-05
2.522980e-05
0.000000e+00
-7.818431e-09
-1.610790e-08
-2.437247e-08
-3.281456e-08
-4.227928e-08
-5.604633e-08
-8.404044e-08
-1.413894e-07
-2.359489e-07
-3.547234e-07
-4.556215e-07
-4.629350e-07
-2.994475e-07
-2.141687e-08
3.382360e-07
1.004742e-06
0.000000e+00
-3.027128e-06
-5.628015e-06
-8.504891e-06
-1.118821e-05
-1.365259e-05
-1.591255e-05
-1.792512e-05
-1.962650e-05
-2.097451e-05
-2.194090e-05
-2.252841e-05
-2.279154e-05
-2.283794e-05
-2.283272e-05
-2.281585e-05
-2.260042e-05
0.000000e+00
-6.023894e-06
-1.196410e-05
-1.698556e-05
-2.239553e-05
-2.752003e-05
-3.210493e-05
-3.619605e-05
-3.965708e-05
-4.224180e-05
-4.391833e-05
-4.487576e-05
-4.536690e-05
-4.561733e-05
-4.577998e-05
-4.587440e-05
-4.582888e-05
0.000000e+00
-7.941761e-06
-1.674392e-05
-2.401617e-05
-3.202048e-05
-3.985958e-05
-4.690097e-05
-5.327761e-05
-5.879351e-05
-6.294917e-05
-6.563379e-05
-6.719959e-05
-6.808412e-05
-6.859468e-05
-6.889713e-05
-6.904864e-05
-6.907378e-05
0.000000e+00
-1.079071e-05
-2.074626e-05
-3.038797e-05
-4.082585e-05
-5.103437e-05
-6.042712e-05
-6.903243e-05
-7.656073e-05
-8.248154e-05
-8.662150e-05
-8.927088e-05
-9.087516e-05
-9.179998e-05
-9.227911e-05
-9.245773e-05
-9.248631e-05
0.000000e+00
9.382023e-06
1.599506e-05
2.427422e-05
3.528391e-05
4.831672e-05
6.354236e-05
8.103674e-05
1.003544e-04
1.209994e-04
1.426962e-04
1.652961e-04
1.887264e-04
2.133122e-04
2.409065e-04
2.727570e-04
3.054241e-04
0.000000e+00
4.928498e-06
1.184998e-05
1.984284e-05
3.058911e-05
4.387551e-05
5.951402e-05
7.740721e-05
9.728324e-05
1.186800e-04
1.411485e-04
1.643725e-04
1.882204e-04
2.128837e-04
2.390910e-04
2.689271e-04
3.005548e-04
0.000000e+00
2.183421e-06
8.418500e-06
1.658536e-05
2.720751e-05
4.069582e-05
5.667650e-05
7.490556e-05
9.519068e-05
1.171136e-04
1.401321e-04
1.638285e-04
1.880084e-04
2.125117e-04
2.371245e-04
2.645435e-04
2.944421e-04
0.000000e+00
1.256430e-06
6.790252e-06
1.503232e-05
2.580026e-05
3.936613e-05
5.547307e-05
7.387335e-05
9.433274e-05
1.164430e-04
1.396744e-04
1.635726e-04
1.878292e-04
2.121062e-04
2.359524e-04
2.615079e-04
2.892509e-04
0.000000e+00
1.068207e-06
6.321385e-06
1.450800e-05
2.540034e-05
3.897994e-05
5.511821e-05
7.358803e-05
9.411797e-05
1.162884e-04
1.395753e-04
1.634988e-04
1.876908e-04
2.118140e-04
2.356351e-04
2.602333e-04
2.858850e-04
0.000000e+00
1.257327e-06
6.787302e-06
1.502280e-05
2.578279e-05
3.934071e-05
5.545147e-05
7.388956e-05
9.442116e-05
1.166011e-04
1.398550e-04
1.636869e-04
1.877447e-04
2.117699e-04
2.356875e-04
2.598487e-04
2.841259e-04
0.000000e+00
2.184646e-06
8.414061e-06
1.657134e-05
2.718112e-05
4.065634e-05
5.664392e-05
7.493943e-05
9.535299e-05
1.174056e-04
1.404826e-04
1.641053e-04
1.879727e-04
2.118923e-04
2.357827e-04
2.596844e-04
2.833684e-04
0.000000e+00
4.930745e-06
1.184892e-05
1.983350e-05
3.056730e-05
4.384230e-05
5.949198e-05
7.744818e-05
9.743598e-05
1.189492e-04
1.414942e-04
1.646999e-04
1.882902e-04
2.120566e-04
2.358604e-04
2.596037e-04
2.831352e-04
0.000000e+00
9.385521e-06
1.599731e-05
2.427126e-05
3.526957e-05
4.829490e-05
6.353685e-05
8.106893e-05
1.004192e-04
1.210915e-04
1.428367e-04
1.654606e-04
1.886925e-04
2.122575e-04
2.359453e-04
2.595962e-04
2.831034e-04


2.213117e+00
2.147529e+00
2.288283e+00
2.504137e+00
2.670796e+00
2.922338e+00
3.250292e+00
3.623586e+00
4.029452e+00
4.423477e+00
4.746850e+00
4.963747e+00
5.034938e+00
4.821212e+00
4.324562e+00
3.926483e+00
3.002238e+00
2.936822e+00
3.019256e+00
3.164428e+00
3.278191e+00
3.461402e+00
3.705681e+00
3.986709e+00
4.296918e+00
4.602043e+00
4.853788e+00
5.019969e+00
5.056909e+00
4.818161e+00
4.319271e+00
3.922603e+00
4.145356e+00
4.098459e+00
4.123059e+00
4.174546e+00
4.215012e+00
4.299317e+00
4.414721e+00
4.551177e+00
4.708413e+00
4.868374e+00
5.002481e+00
5.089370e+00
5.092813e+00
4.892046e+00
4.493319e+00
4.190399e+00
4.849901e+00
4.821929e+00
4.814620e+00
4.809908e+00
4.814058e+00
4.835778e+00
4.867442e+00
4.908477e+00
4.961599e+00
5.020612e+00
5.073422e+00
5.110343e+00
5.111466e+00
5.008270e+00
4.798921e+00
4.639515e+00
4.849943e+00
4.821859e+00
4.814316e+00
4.809164e+00
4.812373e+00
4.832309e+00
4.861433e+00
4.899460e+00
4.948943e+00
5.003800e+00
5.053848e+00
5.094075e+00
5.118178e+00
5.099592e+00
5.033824e+00
4.980430e+00
4.145231e+00
4.097974e+00
4.121903e+00
4.172287e+00
4.210586e+00
4.291512e+00
4.403885e+00
4.538745e+00
4.693373e+00
4.846778e+00
4.973586e+00
5.065298e+00
5.126703e+00
5.157923e+00
5.162080e+00
5.157732e+00
3.001510e+00
2.935524e+00
3.017071e+00
3.161094e+00
3.273100e+00
3.455370e+00
3.703961e+00
3.996281e+00
4.317485e+00
4.623415e+00
4.866477e+00
5.031944e+00
5.134019e+00
5.192207e+00
5.221241e+00
5.232290e+00
2.211828e+00
2.145603e+00
2.285504e+00
2.500563e+00
2.666607e+00
2.920478e+00
3.260199e+00
3.656661e+00
4.086083e+00
4.488895e+00
4.804407e+00
5.014945e+00
5.140145e+00
5.209088e+00
5.243752e+00
5.258014e+00


-4.868503e-01
-2.150656e-01
-1.634941e-01
-2.154084e-01
-1.638699e-01
-1.381071e-01
-1.338171e-01
-1.149408e-01
-7.304986e-02
2.634220e-03
1.145069e-01
2.415101e-01
3.619379e-01
4.812614e-01
6.139947e-01
-4.791562e-01
5.194965e-01
3.993251e-01
3.608890e-01
3.181241e-01
3.332298e-01
3.379969e-01
3.346991e-01
3.428571e-01
3.708942e-01
4.300414e-01
5.272000e-01
6.547354e-01
7.949784e-01
9.068322e-01
7.714540e-01
-1.234301e+00
8.318696e-01
7.327377e-01
6.485999e-01
6.082849e-01
5.982683e-01
5.898936e-01
5.834523e-01
5.845555e-01
5.977326e-01
6.288674e-01
6.784694e-01
7.309588e-01
7.459518e-01
6.501452e-01
3.414803e-01
-2.026330e-01
9.259124e-01
8.426254e-01
7.640540e-01
7.194144e-01
7.005484e-01
6.906314e-01
6.820297e-01
6.719953e-01
6.598064e-01
6.456686e-01
6.264128e-01
5.888367e-01
5.111160e-01
3.982675e-01
3.399072e-01
3.480188e-01
9.264278e-01
8.432526e-01
7.645699e-01
7.190950e-01
6.982082e-01
6.843592e-01
6.684646e-01
6.455844e-01
6.125820e-01
5.687413e-01
5.153410e-01
4.557743e-01
4.051222e-01
4.107863e-01
5.236526e-01
7.068260e-01
8.330675e-01
7.342494e-01
6.500076e-01
6.082866e-01
5.946394e-01
5.787500e-01
5.575936e-01
5.322473e-01
5.024498e-01
4.715778e-01
4.465463e-01
4.393154e-01
4.731847e-01
5.749499e-01
7.374953e-01
9.058427e-01
5.203385e-01
4.005082e-01
3.621062e-01
3.189606e-01
3.328718e-01
3.344476e-01
3.233308e-01
3.172003e-01
3.250479e-01
3.587179e-01
4.242702e-01
5.168492e-01
6.323382e-01
7.683131e-01
9.002358e-01
9.835517e-01
-4.878355e-01
-2.163637e-01
-1.650345e-01
-2.169703e-01
-1.642114e-01
-1.363125e-01
-1.290610e-01
-1.006348e-01
-2.699959e-02
1.177854e-01
3.331884e-01
5.744731e-01
7.828415e-01
9.202831e-01
9.844076e-01
9.996858e-01
1 2 19 18
2 3 20 19
3 4 21 20
4 5 22 21
5 6 23 22
6 7 24 23
7 8 25 24
8 9 26 25
9 10 27 26
10 11 28 27
11 12 29 28
12 13 30 29
13 14 31 30
14 15 32 31
15 16 33 32
16 17 34 33
18 19 36 35
19 20 37 36
20 21 38 37
21 22 39 38
22 23 40 39
23 24 41 40
24 25 42 41
25 26 43 42
26 27 44 43
27 28 45 44
28 29 46 45
29 30 47 46
30 31 48 47
31 32 49 48
32 33 50 49
33 34 51 50
35 36 53 52
36 37 54 53
37 38 55 54
38 39 56 55
39 40 57 56
40 41 58 57
41 42 59 58
42 43 60 59
43 44 61 60
44 45 62 61
45 46 63 62
46 47 64 63
47 48 65 64
48 49 66 65
49 50 67 66
50 51 68 67
52 53 70 69
53 54 71 70
54 55 72 71
55 56 73 72
56 57 74 73
57 58 75 74
58 59 76 75
59 60 77 76
60 61 78 77
61 62 79 78
62 63 80 79
63 64 81 80
64 65 82 81
65 66 83 82
66 67 84 83
67 68 85 84
69 70 87 86
70 71 88 87
71 72 89 88
72 73 90 89
73 74 91 90
74 75 92 91
75 76 93 92
76 77 94 93
77 78 95 94
78 79 96 95
79 80 97 96
80 81 98 97
81 82 99 98
82 83 100 99
83 84 101 100
84 85 102 101
86 87 104 103
87 88 105 104
88 89 106 105
89 90 107 106
90 91 108 107
91 92 109 108
92 93 110 109
93 94 111 110
94 95 112 111
95 96 113 112
96 97 114 113
97 98 115 114
98 99 116 115
99 100 117 116
100 101 118 117
101 102 119 118
103 104 121 120
104 105 122 121
105 106 123 122
106 107 124 123
107 108 125 124
108 109 126 125
109 110 127 126
110 111 128 127
111 112 129 128
112 113 130 129
113 114 131 130
114 115 132 131
115 116 133 132
116 117 134 133
117 118 135 134
118 119 136 135
120 121 138 137
121 122 139 138
122 123 140 139
123 124 141 140
124 125 142 141
125 126 143 142
126 127 144 143
127 128 145 144
128 129 146 145
129 130 147 146
130 131 148 147
131 132 149 148
132 133 150 149
133 134 151 150
134 135 152 151
135 136 153 152
