TITLE = "Solution"
VARIABLES = x, y, u, v, psiu, psiv, t, stress
ZONE T="structure" N=153 E=128 F=FEBLOCK ET=QUADRILATERAL VARLOCATION=([7,8]=cellcentered)
0.000000e+00
1.250000e+01
2.500000e+01
3.750000e+01
5.000000e+01
6.250000e+01
7.500000e+01
8.750000e+01
1.000000e+02
1.125000e+02
1.250000e+02
1.375000e+02
1.500000e+02
1.625000e+02
1.750000e+02
1.875000e+02
2.000000e+02
0.000000e+00
1.250000e+01
2.500000e+01
3.750000e+01
5.000000e+01
6.250000e+01
7.500000e+01
8.750000e+01
1.000000e+02
1.125000e+02
1.250000e+02
1.375000e+02
1.500000e+02
1.625000e+02
1.750000e+02
1.875000e+02
2.000000e+02
0.000000e+00
1.250000e+01
2.500000e+01
3.750000e+01
5.000000e+01
6.250000e+01
7.500000e+01
8.750000e+01
1.000000e+02
1.125000e+02
1.250000e+02
1.375000e+02
1.500000e+02
1.625000e+02
1.750000e+02
1.875000e+02
2.000000e+02
0.000000e+00
1.250000e+01
2.500000e+01
3.750000e+01
5.000000e+01
6.250000e+01
7.500000e+01
8.750000e+01
1.000000e+02
1.125000e+02
1.250000e+02
1.375000e+02
1.500000e+02
1.625000e+02
1.750000e+02
1.875000e+02
2.000000e+02
0.000000e+00
1.250000e+01
2.500000e+01
3.750000e+01
5.000000e+01
6.250000e+01
7.500000e+01
8.750000e+01
1.000000e+02
1.125000e+02
1.250000e+02
1.375000e+02
1.500000e+02
1.625000e+02
1.750000e+02
1.875000e+02
2.000000e+02
0.000000e+00
1.250000e+01
2.500000e+01
3.750000e+01
5.000000e+01
6.250000e+01
7.500000e+01
8.750000e+01
1.000000e+02
1.125000e+02
1.250000e+02
1.375000e+02
1.500000e+02
1.625000e+02
1.750000e+02
1.875000e+02
2.000000e+02
0.000000e+00
1.250000e+01
2.500000e+01
3.750000e+01
5.000000e+01
6.250000e+01
7.500000e+01
8.750000e+01
1.000000e+02
1.125000e+02
1.250000e+02
1.375000e+02
1.500000e+02
1.625000e+02
1.750000e+02
1.875000e+02
2.000000e+02
0.000000e+00
1.250000e+01
2.500000e+01
3.750000e+01
5.000000e+01
6.250000e+01
7.500000e+01
8.750000e+01
1.000000e+02
1.125000e+02
1.250000e+02
1.375000e+02
1.500000e+02
1.625000e+02
1.750000e+02
1.875000e+02
2.000000e+02
0.000000e+00
1.250000e+01
2.500000e+01
3.750000e+01
5.000000e+01
6.250000e+01
7.500000e+01
8.750000e+01
1.000000e+02
1.125000e+02
1.250000e+02
1.375000e+02
1.500000e+02
1.625000e+02
1.750000e+02
1.875000e+02
2.000000e+02
0.000000e+00
0.000000e+00
0.000000e+00
0.000000e+00
0.000000e+00
0.000000e+00
0.000000e+00
0.000000e+00
0.000000e+00
0.000000e+00
0.000000e+00
0.000000e+00
0.000000e+00
0.000000e+00
0.000000e+00
0.000000e+00
0.000000e+00
1.250000e+01
1.250000e+01
1.250000e+01
1.250000e+01
1.250000e+01
1.250000e+01
1.250000e+01
1.250000e+01
1.250000e+01
1.250000e+01
1.250000e+01
1.250000e+01
1.250000e+01
1.250000e+01
1.250000e+01
1.250000e+01
1.250000e+01
2.500000e+01
2.500000e+01
2.500000e+01
2.500000e+01
2.500000e+01
2.500000e+01
2.500000e+01
2.500000e+01
2.500000e+01
2.500000e+01
2.500000e+01
2.500000e+01
2.500000e+01
2.500000e+01
2.500000e+01
2.500000e+01
2.500000e+01
3.750000e+01
3.750000e+01
3.750000e+01
3.750000e+01
3.750000e+01
3.750000e+01
3.750000e+01
3.750000e+01
3.750000e+01
3.750000e+01
3.750000e+01
3.750000e+01
3.750000e+01
3.750000e+01
3.750000e+01
3.750000e+01
3.750000e+01
5.000000e+01
5.000000e+01
5.000000e+01
5.000000e+01
5.000000e+01
5.000000e+01
5.000000e+01
5.000000e+01
5.000000e+01
5.000000e+01
5.000000e+01
5.000000e+01
5.000000e+01
5.000000e+01
5.000000e+01
5.000000e+01
5.000000e+01
6.250000e+01
6.250000e+01
6.250000e+01
6.250000e+01
6.250000e+01
6.250000e+01
6.250000e+01
6.250000e+01
6.250000e+01
6.250000e+01
6.250000e+01
6.250000e+01
6.250000e+01
6.250000e+01
6.250000e+01
6.250000e+01
6.250000e+01
7.500000e+01
7.500000e+01
7.500000e+01
7.500000e+01
7.500000e+01
7.500000e+01
7.500000e+01
7.500000e+01
7.500000e+01
7.500000e+01
7.500000e+01
7.500000e+01
7.500000e+01
7.500000e+01
7.500000e+01
7.500000e+01
7.500000e+01
8.750000e+01
8.750000e+01
8.750000e+01
8.750000e+01
8.750000e+01
8.750000e+01
8.750000e+01
8.750000e+01
8.750000e+01
8.750000e+01
8.750000e+01
8.750000e+01
8.750000e+01
8.750000e+01
8.750000e+01
8.750000e+01
8.750000e+01
1.000000e+02
1.000000e+02
1.000000e+02
1.000000e+02
1.000000e+02
1.000000e+02
1.000000e+02
1.000000e+02
1.000000e+02
1.000000e+02
1.000000e+02
1.000000e+02
1.000000e+02
1.000000e+02
1.000000e+02
1.000000e+02
1.000000e+02
0.000000e+00
-8.006126e-01
-1.485540e+00
-2.137374e+00
-2.813654e+00
-3.469511e+00
-4.090165e+00
-4.692609e+00
-5.274481e+00
-5.822841e+00
-6.330028e+00
-6.796022e+00
-7.230580e+00
-7.656824e+00
-8.115144e+00
-8.653330e+00
-9.046089e+00
0.000000e+00
-4.515423e-01
-9.575254e-01
-1.458213e+00
-1.968351e+00
-2.462242e+00
-2.926399e+00
-3.376402e+00
-3.811257e+00
-4.220583e+00
-4.596253e+00
-4.933363e+00
-5.228596e+00
-5.474493e+00
-5.645336e+00
-5.682946e+00
-5.807432e+00
0.000000e+00
-2.689242e-01
-5.705486e-01
-9.066723e-01
-1.247182e+00
-1.574908e+00
-1.886023e+00
-2.187018e+00
-2.474172e+00
-2.739772e+00
-2.975957e+00
-3.174289e+00
-3.324016e+00
-3.409522e+00
-3.414601e+00
-3.384610e+00
-3.513151e+00
0.000000e+00
-1.303040e-01
-2.790116e-01
-4.431346e-01
-6.128826e-01
-7.759962e-01
-9.336995e-01
-1.084104e+00
-1.223496e+00
-1.346842e+00
-1.447910e+00
-1.519215e+00
-1.552836e+00
-1.544654e+00
-1.511559e+00
-1.519245e+00
-1.617496e+00
0.000000e+00
-7.581889e-03
-1.457231e-02
-2.034171e-02
-2.428598e-02
-2.710982e-02
-2.794112e-02
-2.589133e-02
-1.937727e-02
-6.106382e-03
1.714556e-02
5.376888e-02
1.047929e-01
1.628647e-01
2.037322e-01
1.947818e-01
1.281172e-01
0.000000e+00
1.181498e-01
2.512882e-01
4.013648e-01
5.597975e-01
7.185955e-01
8.755263e-01
1.029350e+00
1.178753e+00
1.322585e+00
1.459935e+00
1.589440e+00
1.707061e+00
1.802604e+00
1.859558e+00
1.865018e+00
1.830717e+00
0.000000e+00
2.653874e-01
5.550044e-01
8.694310e-01
1.191512e+00
1.510356e+00
1.822733e+00
2.126165e+00
2.416112e+00
2.686788e+00
2.932192e+00
3.146520e+00
3.323567e+00
3.455873e+00
3.535818e+00
3.562012e+00
3.554048e+00
0.000000e+00
4.564852e-01
9.504174e-01
1.431069e+00
1.916124e+00
2.394016e+00
2.860716e+00
3.313441e+00
3.744260e+00
4.141908e+00
4.494424e+00
4.791143e+00
5.024060e+00
5.189111e+00
5.288012e+00
5.330265e+00
5.338054e+00
0.000000e+00
8.071324e-01
1.474436e+00
2.115857e+00
2.764884e+00
3.404902e+00
4.030897e+00
4.638345e+00
5.215553e+00
5.746015e+00
6.211581e+00
6.595013e+00
6.882538e+00
7.067645e+00
7.157338e+00
7.179344e+00
7.178834e+00
0.000000e+00
-4.940349e-01
-1.012493e+00
-1.693947e+00
-2.534442e+00
-3.532682e+00
-4.691430e+00
-6.011165e+00
-7.482092e+00
-9.092571e+00
-1.083103e+01
-1.268707e+01
-1.465637e+01
-1.675082e+01
-1.903280e+01
-2.169992e+01
-2.567835e+01
0.000000e+00
-3.070998e-01
-8.430106e-01
-1.519253e+00
-2.359152e+00
-3.365577e+00
-4.531520e+00
-5.856340e+00
-7.334751e+00
-8.955963e+00
-1.070704e+01
-1.257612e+01
-1.455750e+01
-1.666320e+01
-1.894851e+01
-2.160120e+01
-2.491965e+01
0.000000e+00
-2.429445e-01
-7.274943e-01
-1.396918e+00
-2.237204e+00
-3.246956e+00
-4.418114e+00
-5.748492e+00
-7.234272e+00
-8.865688e+00
-1.063000e+01
-1.251535e+01
-1.451636e+01
-1.664322e+01
-1.893352e+01
-2.142850e+01
-2.382023e+01
0.000000e+00
-2.249184e-01
-6.759075e-01
-1.328398e+00
-2.166913e+00
-3.176612e+00
-4.351303e+00
-5.687570e+00
-7.181076e+00
-8.822715e+00
-1.060033e+01
-1.250167e+01
-1.451830e+01
-1.664826e+01
-1.888414e+01
-2.114255e+01
-2.317799e+01
0.000000e+00
-2.216230e-01
-6.622943e-01
-1.308593e+00
-2.143446e+00
-3.153167e+00
-4.330332e+00
-5.671546e+00
-7.171642e+00
-8.821838e+00
-1.060976e+01
-1.252085e+01
-1.453952e+01
-1.664583e+01
-1.879707e+01
-2.089719e+01
-2.278380e+01
0.000000e+00
-2.240482e-01
-6.763891e-01
-1.329303e+00
-2.165825e+00
-3.175761e+00
-4.354272e+00
-5.697893e+00
-7.201599e+00
-8.856449e+00
-1.064896e+01
-1.256102e+01
-1.456896e+01
-1.663898e+01
-1.871818e+01
-2.072659e+01
-2.255961e+01
0.000000e+00
-2.419590e-01
-7.270473e-01
-1.395590e+00
-2.235171e+00
-3.245343e+00
-4.423087e+00
-5.765915e+00
-7.268921e+00
-8.922780e+00
-1.071272e+01
-1.261757e+01
-1.460787e+01
-1.664313e+01
-1.867020e+01
-2.062838e+01
-2.245990e+01
0.000000e+00
-3.073055e-01
-8.388000e-01
-1.512543e+00
-2.353908e+00
-3.362683e+00
-4.537716e+00
-5.876771e+00
-7.374429e+00
-9.020767e+00
-1.080031e+01
-1.269057e+01
-1.465994e+01
-1.666611e+01
-1.865803e+01
-2.058755e+01
-2.243659e+01
0.000000e+00
-4.930365e-01
-1.003629e+00
-1.681551e+00
-2.522647e+00
-3.528408e+00
-4.699294e+00
-6.032313e+00
-7.520465e+00
-9.153000e+00
-1.091425e+01
-1.278192e+01
-1.472503e+01
-1.670288e+01
-1.866816e+01
-2.058005e+01
-2.243704e+01


0.000000e+00
9.185510e-06
1.648112e-05
2.165464e-05
2.758126e-05
3.478571e-05
4.106690e-05
4.598635e-05
4.977563e-05
5.256080e-05
5.449404e-05
5.579104e-05
5.667978e-05
5.738090e-05
5.808806e-05
5.910627e-05
6.045791e-05
0.000000e+00
6.888823e-06
1.324147e-05
1.660410e-05
2.096889e-05
2.661055e-05
3.148947e-05
3.496103e-05
3.759172e-05
3.947813e-05
4.072239e-05
4.147815e-05
4.187613e-05
4.200452e-05
4.214534e-05
4.296851e-05
4.436077e-05
0.000000e+00
4.739531e-06
8.828116e-06
1.141663e-05
1.452913e-05
1.800256e-05
2.097872e-05
2.314959e-05
2.479978e-05
2.593880e-05
2.664733e-05
2.701958e-05
2.715059e-05
2.716344e-05
2.730141e-05
2.796867e-05
2.908677e-05
0.000000e+00
2.024140e-06
3.731292e-06
5.581250e-06
7.149281e-06
8.586569e-06
9.770135e-06
1.080984e-05
1.158593e-05
1.211280e-05
1.242379e-05
1.257108e-05
1.262946e-05
1.270028e-05
1.287276e-05
1.325872e-05
1.389305e-05
0.000000e+00
-2.431627e-07
-3.960147e-07
-5.235981e-07
-6.987284e-07
-9.487317e-07
-1.155481e-06
-1.308476e-06
-1.416515e-06
-1.508047e-06
-1.585447e-06
-1.639259e-06
-1.646980e-06
-1.586776e-06
-1.478230e-06
-1.324394e-06
-1.042370e-06
0.000000e+00
-2.387605e-06
-4.559833e-06
-6.782351e-06
-8.824646e-06
-1.063778e-05
-1.220166e-05
-1.345993e-05
-1.440916e-05
-1.507431e-05
-1.550122e-05
-1.574143e-05
-1.584511e-05
-1.586415e-05
-1.585937e-05
-1.583960e-05
-1.573620e-05
0.000000e+00
-4.551190e-06
-9.333236e-06
-1.334949e-05
-1.720184e-05
-2.066963e-05
-2.359686e-05
-2.592319e-05
-2.763547e-05
-2.879569e-05
-2.951483e-05
-2.992133e-05
-3.013193e-05
-3.023983e-05
-3.030645e-05
-3.033959e-05
-3.031382e-05
0.000000e+00
-5.996771e-06
-1.319127e-05
-1.901212e-05
-2.463791e-05
-2.984767e-05
-3.427675e-05
-3.781168e-05
-4.043039e-05
-4.222316e-05
-4.336566e-05
-4.405477e-05
-4.445706e-05
-4.469064e-05
-4.482625e-05
-4.489247e-05
-4.490260e-05
0.000000e+00
-8.146772e-06
-1.625668e-05
-2.375856e-05
-3.112329e-05
-3.795787e-05
-4.389668e-05
-4.876016e-05
-5.248730e-05
-5.515543e-05
-5.695350e-05
-5.810810e-05
-5.882077e-05
-5.924063e-05
-5.946310e-05
-5.954863e-05
-5.956311e-05
0.000000e+00
7.533412e-06
1.184338e-05
1.722598e-05
2.542821e-05
3.514607e-05
4.550769e-05
5.699532e-05
6.964185e-05
8.304401e-05
9.698957e-05
1.113495e-04
1.260584e-04
1.412555e-04
1.577223e-04
1.760470e-04
1.948636e-04
0.000000e+00
3.979445e-06
9.381792e-06
1.500865e-05
2.250469e-05
3.201729e-05
4.301704e-05
5.513469e-05
6.826656e-05
8.208651e-05
9.637160e-05
1.109741e-04
1.258380e-04
1.410376e-04
1.568966e-04
1.742907e-04
1.925664e-04
0.000000e+00
1.900611e-06
7.162456e-06
1.322163e-05
2.045021e-05
2.987632e-05
4.124529e-05
5.384664e-05
6.731117e-05
8.143295e-05
9.596701e-05
1.107582e-04
1.257382e-04
1.408616e-04
1.560761e-04
1.724377e-04
1.898868e-04
0.000000e+00
1.209165e-06
5.809865e-06
1.202979e-05
1.958118e-05
2.912979e-05
4.054185e-05
5.326269e-05
6.688147e-05
8.113777e-05
9.578990e-05
1.106692e-04
1.256719e-04
1.406850e-04
1.556120e-04
1.712287e-04
1.876861e-04
0.000000e+00
1.029536e-06
5.214303e-06
1.145032e-05
1.937670e-05
2.906910e-05
4.044678e-05
5.314671e-05
6.680054e-05
8.109063e-05
9.576981e-05
1.106575e-04
1.256294e-04
1.405777e-04
1.554560e-04
1.706747e-04
1.862577e-04
0.000000e+00
1.085619e-06
5.363386e-06
1.170330e-05
1.970731e-05
2.945485e-05
4.079663e-05
5.343710e-05
6.703654e-05
8.127884e-05
9.590848e-05
1.107434e-04
1.256596e-04
1.405704e-04
1.554591e-04
1.704660e-04
1.854989e-04
0.000000e+00
1.727606e-06
6.487960e-06
1.283231e-05
2.074426e-05
3.042125e-05
4.165273e-05
5.414629e-05
6.759278e-05
8.168922e-05
9.618984e-05
1.109187e-04
1.257564e-04
1.406256e-04
1.554947e-04
1.703764e-04
1.851633e-04
0.000000e+00
3.815735e-06
9.187790e-06
1.529025e-05
2.309315e-05
3.252780e-05
4.341534e-05
5.553161e-05
6.860743e-05
8.238019e-05
9.662687e-05
1.111751e-04
1.258966e-04
1.407006e-04
1.555290e-04
1.703378e-04
1.850554e-04
0.000000e+00
7.362944e-06
1.263611e-05
1.866595e-05
2.636921e-05
3.546719e-05
4.586288e-05
5.743718e-05
6.998256e-05
8.329874e-05
9.719828e-05
1.115082e-04
1.260790e-04
1.407941e-04
1.555690e-04
1.703349e-04
1.850396e-04


2.123676e+00
2.204025e+00
2.392862e+00
2.666057e+00
2.753225e+00
2.854907e+00
3.088087e+00
3.342317e+00
3.551061e+00
3.711281e+00
3.825593e+00
3.896437e+00
3.915627e+00
3.837677e+00
3.670806e+00
3.542074e+00
2.621449e+00
2.672931e+00
2.860761e+00
2.990310e+00
3.029198e+00
3.088973e+00
3.275010e+00
3.475901e+00
3.640754e+00
3.767873e+00
3.858633e+00
3.913822e+00
3.923363e+00
3.840678e+00
3.677455e+00
3.553272e+00
3.279653e+00
3.334125e+00
3.413713e+00
3.467441e+00
3.440112e+00
3.477940e+00
3.581358e+00
3.691168e+00
3.782509e+00
3.854249e+00
3.905633e+00
3.935887e+00
3.935983e+00
3.868471e+00
3.740573e+00
3.646641e+00
3.695864e+00
3.700834e+00
3.724562e+00
3.730708e+00
3.726488e+00
3.746529e+00
3.787995e+00
3.832503e+00
3.872420e+00
3.905134e+00
3.928958e+00
3.943273e+00
3.943259e+00
3.908309e+00
3.840620e+00
3.790979e+00
3.680054e+00
3.667835e+00
3.679791e+00
3.699164e+00
3.719084e+00
3.749317e+00
3.788343e+00
3.829760e+00
3.868178e+00
3.899689e+00
3.922801e+00
3.938483e+00
3.946420e+00
3.939470e+00
3.917828e+00
3.901142e+00
3.229630e+00
3.206500e+00
3.248333e+00
3.329245e+00
3.401232e+00
3.488547e+00
3.588697e+00
3.688553e+00
3.776775e+00
3.846288e+00
3.895755e+00
3.928688e+00
3.949604e+00
3.959848e+00
3.961415e+00
3.960424e+00
2.557696e+00
2.528632e+00
2.619711e+00
2.785897e+00
2.935936e+00
3.105093e+00
3.295742e+00
3.482525e+00
3.644863e+00
3.771157e+00
3.859810e+00
3.917066e+00
3.951991e+00
3.971989e+00
3.982205e+00
3.986275e+00
2.126805e+00
2.098806e+00
2.228763e+00
2.452343e+00
2.650527e+00
2.871536e+00
3.117478e+00
3.357447e+00
3.565221e+00
3.726407e+00
3.839138e+00
3.911170e+00
3.953991e+00
3.977948e+00
3.990225e+00
3.995370e+00


-3.839275e-01
-2.472293e-01
-1.651662e-01
-2.328957e-01
-1.593733e-01
-3.491783e-02
2.504687e-02
8.944703e-02
1.915923e-01
3.133393e-01
4.335654e-01
5.356703e-01
6.100669e-01
6.562117e-01
7.032373e-01
-2.394469e-01
5.183723e-01
3.693537e-01
3.299999e-01
3.089298e-01
3.495342e-01
4.117949e-01
4.398728e-01
4.740537e-01
5.330400e-01
6.111205e-01
7.001183e-01
7.928089e-01
8.812281e-01
9.436874e-01
8.229098e-01
-8.436350e-01
8.262038e-01
7.323292e-01
6.627876e-01
6.453322e-01
6.584752e-01
6.724705e-01
6.792668e-01
6.922641e-01
7.177559e-01
7.548654e-01
7.985399e-01
8.369968e-01
8.459556e-01
7.752867e-01
5.302119e-01
9.411104e-02
9.437064e-01
8.815272e-01
8.311575e-01
8.048339e-01
7.964114e-01
7.903667e-01
7.843972e-01
7.784488e-01
7.742643e-01
7.716861e-01
7.663726e-01
7.481544e-01
7.028396e-01
6.285435e-01
5.747704e-01
5.670325e-01
9.502949e-01
8.895932e-01
8.376418e-01
8.081341e-01
7.949296e-01
7.858268e-01
7.747827e-01
7.604734e-01
7.430672e-01
7.224288e-01
6.975174e-01
6.683971e-01
6.428910e-01
6.471011e-01
7.116694e-01
8.201245e-01
8.390001e-01
7.594339e-01
6.988100e-01
6.719692e-01
6.644322e-01
6.612561e-01
6.583740e-01
6.563896e-01
6.554636e-01
6.548125e-01
6.547251e-01
6.606225e-01
6.865887e-01
7.488966e-01
8.447690e-01
9.438742e-01
5.192661e-01
4.082768e-01
3.948644e-01
3.742330e-01
3.827226e-01
3.999322e-01
4.217075e-01
4.563943e-01
5.068362e-01
5.692637e-01
6.372540e-01
7.072522e-01
7.816582e-01
8.634890e-01
9.412088e-01
9.902192e-01
-4.066217e-01
-1.864789e-01
-1.034701e-01
-1.278754e-01
-9.753199e-02
-5.038754e-02
9.167420e-03
1.012687e-01
2.336889e-01
3.981350e-01
5.749968e-01
7.397991e-01
8.700253e-01
9.526958e-01
9.907331e-01
9.998075e-01
1 2 19 18
2 3 20 19
3 4 21 20
4 5 22 21
5 6 23 22
6 7 24 23
7 8 25 24
8 9 26 25
9 10 27 26
10 11 28 27
11 12 29 28
12 13 30 29
13 14 31 30
14 15 32 31
15 16 33 32
16 17 34 33
18 19 36 35
19 20 37 36
20 21 38 37
21 22 39 38
22 23 40 39
23 24 41 40
24 25 42 41
25 26 43 42
26 27 44 43
27 28 45 44
28 29 46 45
29 30 47 46
30 31 48 47
31 32 49 48
32 33 50 49
33 34 51 50
35 36 53 52
36 37 54 53
37 38 55 54
38 39 56 55
39 40 57 56
40 41 58 57
41 42 59 58
42 43 60 59
43 44 61 60
44 45 62 61
45 46 63 62
46 47 64 63
47 48 65 64
48 49 66 65
49 50 67 66
50 51 68 67
52 53 70 69
53 54 71 70
54 55 72 71
55 56 73 72
56 57 74 73
57 58 75 74
58 59 76 75
59 60 77 76
60 61 78 77
61 62 79 78
62 63 80 79
63 64 81 80
64 65 82 81
65 66 83 82
66 67 84 83
67 68 85 84
69 70 87 86
70 71 88 87
71 72 89 88
72 73 90 89
73 74 91 90
74 75 92 91
75 76 93 92
76 77 94 93
77 78 95 94
78 79 96 95
79 80 97 96
80 81 98 97
81 82 99 98
82 83 100 99
83 84 101 100
84 85 102 101
86 87 104 103
87 88 105 104
88 89 106 105
89 90 107 106
90 91 108 107
91 92 109 108
92 93 110 109
93 94 111 110
94 95 112 111
95 96 113 112
96 97 114 113
97 98 115 114
98 99 116 115
99 100 117 116
100 101 118 117
101 102 119 118
103 104 121 120
104 105 122 121
105 106 123 122
106 107 124 123
107 108 125 124
108 109 126 125
109 110 127 126
110 111 128 127
111 112 129 128
112 113 130 129
113 114 131 130
114 115 132 131
115 116 133 132
116 117 134 133
117 118 135 134
118 119 136 135
120 121 138 137
121 122 139 138
122 123 140 139
123 124 141 140
124 125 142 141
125 126 143 142
126 127 144 143
127 128 145 144
128 129 146 145
129 130 147 146
130 131 148 147
131 132 149 148
132 133 150 149
133 134 151 150
134 135 152 151
135 136 153 152
