TITLE = "Solution"
VARIABLES = x, y, u, v, psiu, psiv, t, stress
ZONE T="structure" N=153 E=128 F=FEBLOCK ET=QUADRILATERAL VARLOCATION=([7,8]=cellcentered)
0.000000e+00
1.250000e+01
2.500000e+01
3.750000e+01
5.000000e+01
6.250000e+01
7.500000e+01
8.750000e+01
1.000000e+02
1.125000e+02
1.250000e+02
1.375000e+02
1.500000e+02
1.625000e+02
1.750000e+02
1.875000e+02
2.000000e+02
0.000000e+00
1.250000e+01
2.500000e+01
3.750000e+01
5.000000e+01
6.250000e+01
7.500000e+01
8.750000e+01
1.000000e+02
1.125000e+02
1.250000e+02
1.375000e+02
1.500000e+02
1.625000e+02
1.750000e+02
1.875000e+02
2.000000e+02
0.000000e+00
1.250000e+01
2.500000e+01
3.750000e+01
5.000000e+01
6.250000e+01
7.500000e+01
8.750000e+01
1.000000e+02
1.125000e+02
1.250000e+02
1.375000e+02
1.500000e+02
1.625000e+02
1.750000e+02
1.875000e+02
2.000000e+02
0.000000e+00
1.250000e+01
2.500000e+01
3.750000e+01
5.000000e+01
6.250000e+01
7.500000e+01
8.750000e+01
1.000000e+02
1.125000e+02
1.250000e+02
1.375000e+02
1.500000e+02
1.625000e+02
1.750000e+02
1.875000e+02
2.000000e+02
0.000000e+00
1.250000e+01
2.500000e+01
3.750000e+01
5.000000e+01
6.250000e+01
7.500000e+01
8.750000e+01
1.000000e+02
1.125000e+02
1.250000e+02
1.375000e+02
1.500000e+02
1.625000e+02
1.750000e+02
1.875000e+02
2.000000e+02
0.000000e+00
1.250000e+01
2.500000e+01
3.750000e+01
5.000000e+01
6.250000e+01
7.500000e+01
8.750000e+01
1.000000e+02
1.125000e+02
1.250000e+02
1.375000e+02
1.500000e+02
1.625000e+02
1.750000e+02
1.875000e+02
2.000000e+02
0.000000e+00
1.250000e+01
2.500000e+01
3.750000e+01
5.000000e+01
6.250000e+01
7.500000e+01
8.750000e+01
1.000000e+02
1.125000e+02
1.250000e+02
1.375000e+02
1.500000e+02
1.625000e+02
1.750000e+02
1.875000e+02
2.000000e+02
0.000000e+00
1.250000e+01
2.500000e+01
3.750000e+01
5.000000e+01
6.250000e+01
7.500000e+01
8.750000e+01
1.000000e+02
1.125000e+02
1.250000e+02
1.375000e+02
1.500000e+02
1.625000e+02
1.750000e+02
1.875000e+02
2.000000e+02
0.000000e+00
1.250000e+01
2.500000e+01
3.750000e+01
5.000000e+01
6.250000e+01
7.500000e+01
8.750000e+01
1.000000e+02
1.125000e+02
1.250000e+02
1.375000e+02
1.500000e+02
1.625000e+02
1.750000e+02
1.875000e+02
2.000000e+02
0.000000e+00
0.000000e+00
0.000000e+00
0.000000e+00
0.000000e+00
0.000000e+00
0.000000e+00
0.000000e+00
0.000000e+00
0.000000e+00
0.000000e+00
0.000000e+00
0.000000e+00
0.000000e+00
0.000000e+00
0.000000e+00
0.000000e+00
1.250000e+01
1.250000e+01
1.250000e+01
1.250000e+01
1.250000e+01
1.250000e+01
1.250000e+01
1.250000e+01
1.250000e+01
1.250000e+01
1.250000e+01
1.250000e+01
1.250000e+01
1.250000e+01
1.250000e+01
1.250000e+01
1.250000e+01
2.500000e+01
2.500000e+01
2.500000e+01
2.500000e+01
2.500000e+01
2.500000e+01
2.500000e+01
2.500000e+01
2.500000e+01
2.500000e+01
2.500000e+01
2.500000e+01
2.500000e+01
2.500000e+01
2.500000e+01
2.500000e+01
2.500000e+01
3.750000e+01
3.750000e+01
3.750000e+01
3.750000e+01
3.750000e+01
3.750000e+01
3.750000e+01
3.750000e+01
3.750000e+01
3.750000e+01
3.750000e+01
3.750000e+01
3.750000e+01
3.750000e+01
3.750000e+01
3.750000e+01
3.750000e+01
5.000000e+01
5.000000e+01
5.000000e+01
5.000000e+01
5.000000e+01
5.000000e+01
5.000000e+01
5.000000e+01
5.000000e+01
5.000000e+01
5.000000e+01
5.000000e+01
5.000000e+01
5.000000e+01
5.000000e+01
5.000000e+01
5.000000e+01
6.250000e+01
6.250000e+01
6.250000e+01
6.250000e+01
6.250000e+01
6.250000e+01
6.250000e+01
6.250000e+01
6.250000e+01
6.250000e+01
6.250000e+01
6.250000e+01
6.250000e+01
6.250000e+01
6.250000e+01
6.250000e+01
6.250000e+01
7.500000e+01
7.500000e+01
7.500000e+01
7.500000e+01
7.500000e+01
7.500000e+01
7.500000e+01
7.500000e+01
7.500000e+01
7.500000e+01
7.500000e+01
7.500000e+01
7.500000e+01
7.500000e+01
7.500000e+01
7.500000e+01
7.500000e+01
8.750000e+01
8.750000e+01
8.750000e+01
8.750000e+01
8.750000e+01
8.750000e+01
8.750000e+01
8.750000e+01
8.750000e+01
8.750000e+01
8.750000e+01
8.750000e+01
8.750000e+01
8.750000e+01
8.750000e+01
8.750000e+01
8.750000e+01
1.000000e+02
1.000000e+02
1.000000e+02
1.000000e+02
1.000000e+02
1.000000e+02
1.000000e+02
1.000000e+02
1.000000e+02
1.000000e+02
1.000000e+02
1.000000e+02
1.000000e+02
1.000000e+02
1.000000e+02
1.000000e+02
1.000000e+02
0.000000e+00
-7.351176e-02
-1.353585e-01
-1.922654e-01
-2.452617e-01
-2.942355e-01
-3.390817e-01
-3.797656e-01
-4.163463e-01
-4.489924e-01
-4.780275e-01
-5.040190e-01
-5.279433e-01
-5.514868e-01
-5.775581e-01
-6.095771e-01
-6.336038e-01
0.000000e+00
-4.389993e-02
-9.119356e-02
-1.348662e-01
-1.751021e-01
-2.120543e-01
-2.457993e-01
-2.763825e-01
-3.038589e-01
-3.283131e-01
-3.498694e-01
-3.686831e-01
-3.848742e-01
-3.982760e-01
-4.077291e-01
-4.098011e-01
-4.172295e-01
0.000000e+00
-2.745377e-02
-5.645181e-02
-8.538164e-02
-1.123867e-01
-1.371812e-01
-1.597449e-01
-1.801033e-01
-1.982615e-01
-2.141892e-01
-2.278008e-01
-2.389059e-01
-2.471089e-01
-2.516879e-01
-2.518150e-01
-2.499858e-01
-2.575622e-01
0.000000e+00
-1.325089e-02
-2.727872e-02
-4.139515e-02
-5.489299e-02
-6.732534e-02
-7.859404e-02
-8.866627e-02
-9.748437e-02
-1.049336e-01
-1.108236e-01
-1.148763e-01
-1.167601e-01
-1.163200e-01
-1.145119e-01
-1.150063e-01
-1.206478e-01
0.000000e+00
-1.220652e-05
-2.774926e-05
-4.324095e-05
-5.146266e-05
-3.631647e-05
3.414995e-05
2.172711e-04
6.071119e-04
1.343788e-03
2.610098e-03
4.589680e-03
7.332155e-03
1.043129e-02
1.257207e-02
1.198492e-02
8.249789e-03
0.000000e+00
1.323211e-02
2.723512e-02
4.132540e-02
5.480624e-02
6.725479e-02
7.862141e-02
8.896173e-02
9.836539e-02
1.069414e-01
1.148020e-01
1.220052e-01
1.284260e-01
1.335747e-01
1.366034e-01
1.368437e-01
1.349478e-01
0.000000e+00
2.745069e-02
5.644242e-02
8.536295e-02
1.123575e-01
1.371448e-01
1.597147e-01
1.801131e-01
1.983822e-01
2.145545e-01
2.286442e-01
2.406167e-01
2.503344e-01
2.575191e-01
2.618315e-01
2.632317e-01
2.627896e-01
0.000000e+00
4.391794e-02
9.123272e-02
1.349286e-01
1.751858e-01
2.121439e-01
2.458496e-01
2.762905e-01
3.034203e-01
3.271605e-01
3.473987e-01
3.639947e-01
3.768160e-01
3.858200e-01
3.911911e-01
3.934815e-01
3.939022e-01
0.000000e+00
7.354188e-02
1.354379e-01
1.924143e-01
2.454994e-01
2.945699e-01
3.394806e-01
3.801010e-01
4.162953e-01
4.478753e-01
4.745673e-01
4.960154e-01
5.118673e-01
5.219984e-01
5.268979e-01
5.281073e-01
5.280839e-01
0.000000e+00
-4.449870e-02
-8.735610e-02
-1.428893e-01
-2.110448e-01
-2.916952e-01
-3.839570e-01
-4.867979e-01
-5.991242e-01
-7.198570e-01
-8.479994e-01
-9.827581e-01
-1.123808e+00
-1.271903e+00
-1.430884e+00
-1.612787e+00
-1.874149e+00
0.000000e+00
-2.739421e-02
-7.210152e-02
-1.283234e-01
-1.975928e-01
-2.793437e-01
-3.727233e-01
-4.766738e-01
-5.900888e-01
-7.118699e-01
-8.409927e-01
-9.766275e-01
-1.118399e+00
-1.267041e+00
-1.425960e+00
-1.606760e+00
-1.828258e+00
0.000000e+00
-2.067136e-02
-6.152628e-02
-1.179556e-01
-1.878800e-01
-2.704724e-01
-3.647103e-01
-4.695257e-01
-5.838198e-01
-7.065098e-01
-8.365911e-01
-9.732625e-01
-1.116184e+00
-1.265969e+00
-1.425025e+00
-1.596339e+00
-1.762134e+00
0.000000e+00
-1.781310e-02
-5.626832e-02
-1.118701e-01
-1.820472e-01
-2.651480e-01
-3.599735e-01
-4.654149e-01
-5.803943e-01
-7.038582e-01
-8.348237e-01
-9.724740e-01
-1.116308e+00
-1.266259e+00
-1.422132e+00
-1.579546e+00
-1.724560e+00
0.000000e+00
-1.698969e-02
-5.467702e-02
-1.099287e-01
-1.801250e-01
-2.634326e-01
-3.585307e-01
-4.643116e-01
-5.797178e-01
-7.037129e-01
-8.352923e-01
-9.735099e-01
-1.117472e+00
-1.266117e+00
-1.417221e+00
-1.565615e+00
-1.702323e+00
0.000000e+00
-1.780253e-02
-5.626080e-02
-1.118835e-01
-1.821130e-01
-2.653213e-01
-3.603441e-01
-4.661169e-01
-5.816047e-01
-7.057659e-01
-8.375309e-01
-9.757550e-01
-1.119101e+00
-1.265745e+00
-1.412869e+00
-1.556175e+00
-1.689965e+00
0.000000e+00
-2.065411e-02
-6.151381e-02
-1.179780e-01
-1.879908e-01
-2.707656e-01
-3.653388e-01
-4.707177e-01
-5.858777e-01
-7.097595e-01
-8.412211e-01
-9.789420e-01
-1.121263e+00
-1.265985e+00
-1.410258e+00
-1.550813e+00
-1.684514e+00
0.000000e+00
-2.737804e-02
-7.209066e-02
-1.283531e-01
-1.977259e-01
-2.796885e-01
-3.734549e-01
-4.780515e-01
-5.924528e-01
-7.155798e-01
-8.462441e-01
-9.830306e-01
-1.124139e+00
-1.267250e+00
-1.409603e+00
-1.548596e+00
-1.683234e+00
0.000000e+00
-4.449201e-02
-8.735704e-02
-1.429352e-01
-2.111991e-01
-2.920636e-01
-3.847056e-01
-4.881636e-01
-6.014012e-01
-7.233206e-01
-8.527045e-01
-9.881068e-01
-1.127715e+00
-1.269260e+00
-1.410159e+00
-1.548190e+00
-1.683254e+00


0.000000e+00
2.751726e-10
5.690394e-10
8.293296e-10
1.049146e-09
1.227726e-09
1.368323e-09
1.476157e-09
1.556785e-09
1.615560e-09
1.657397e-09
1.686731e-09
1.707618e-09
1.723828e-09
1.738909e-09
1.757532e-09
1.779896e-09
0.000000e+00
1.871509e-10
4.410042e-10
6.478133e-10
8.136663e-10
9.447171e-10
1.045872e-09
1.122126e-09
1.178114e-09
1.217969e-09
1.245280e-09
1.263028e-09
1.273460e-09
1.278594e-09
1.283799e-09
1.299029e-09
1.322056e-09
0.000000e+00
1.393248e-10
3.062882e-10
4.458049e-10
5.579014e-10
6.444505e-10
7.095989e-10
7.574813e-10
7.916260e-10
8.149543e-10
8.298645e-10
8.383225e-10
8.420874e-10
8.435464e-10
8.472156e-10
8.591644e-10
8.778126e-10
0.000000e+00
7.458007e-11
1.527809e-10
2.225659e-10
2.796486e-10
3.232853e-10
3.555118e-10
3.786483e-10
3.946193e-10
4.049601e-10
4.109574e-10
4.138312e-10
4.149989e-10
4.162815e-10
4.195120e-10
4.267740e-10
4.382506e-10
0.000000e+00
-8.118380e-14
-1.908416e-13
-3.434344e-13
-5.633697e-13
-8.835041e-13
-1.346640e-12
-2.001903e-12
-2.891658e-12
-4.018398e-12
-5.283063e-12
-6.394701e-12
-6.828027e-12
-6.066999e-12
-4.080874e-12
-5.796676e-13
5.401674e-12
0.000000e+00
-7.471933e-11
-1.531034e-10
-2.231445e-10
-2.805859e-10
-3.247292e-10
-3.576689e-10
-3.817960e-10
-3.991057e-10
-4.111724e-10
-4.192174e-10
-4.241620e-10
-4.267108e-10
-4.275562e-10
-4.275133e-10
-4.266477e-10
-4.240915e-10
0.000000e+00
-1.393960e-10
-3.064844e-10
-4.461687e-10
-5.584817e-10
-6.453003e-10
-7.107717e-10
-7.590318e-10
-7.936207e-10
-8.175078e-10
-8.332073e-10
-8.428831e-10
-8.484041e-10
-8.513623e-10
-8.529513e-10
-8.534942e-10
-8.527747e-10
0.000000e+00
-1.871755e-10
-4.411274e-10
-6.480320e-10
-8.139711e-10
-9.450759e-10
-1.046204e-09
-1.122288e-09
-1.177896e-09
-1.217136e-09
-1.243676e-09
-1.260761e-09
-1.271191e-09
-1.277249e-09
-1.280585e-09
-1.282104e-09
-1.282316e-09
0.000000e+00
-2.752926e-10
-5.692351e-10
-8.295468e-10
-1.049319e-09
-1.227739e-09
-1.367990e-09
-1.475206e-09
-1.554854e-09
-1.612200e-09
-1.652067e-09
-1.678705e-09
-1.695688e-09
-1.705837e-09
-1.711195e-09
-1.713246e-09
-1.713600e-09
0.000000e+00
2.500641e-10
4.494477e-10
6.586575e-10
9.097538e-10
1.205282e-09
1.539256e-09
1.903876e-09
2.291654e-09
2.696413e-09
3.113409e-09
3.539391e-09
3.973039e-09
4.417195e-09
4.883807e-09
5.379036e-09
5.880618e-09
0.000000e+00
1.344933e-10
3.293219e-10
5.526201e-10
8.227628e-10
1.136648e-09
1.486761e-09
1.864754e-09
2.263318e-09
2.676534e-09
3.099959e-09
3.530631e-09
3.967326e-09
4.411384e-09
4.868528e-09
5.349966e-09
5.843422e-09
0.000000e+00
6.637717e-11
2.350336e-10
4.697862e-10
7.555266e-10
1.084536e-09
1.447490e-09
1.835941e-09
2.242845e-09
2.662605e-09
3.091055e-09
3.525434e-09
3.964287e-09
4.406826e-09
4.853586e-09
5.319089e-09
5.799301e-09
0.000000e+00
3.781896e-11
1.905373e-10
4.263674e-10
7.202366e-10
1.057568e-09
1.427507e-09
1.821536e-09
2.232854e-09
2.656095e-09
3.087224e-09
3.523418e-09
3.962723e-09
4.403184e-09
4.844313e-09
5.297144e-09
5.760690e-09
0.000000e+00
3.056873e-11
1.784068e-10
4.132230e-10
7.093874e-10
1.049358e-09
1.421539e-09
1.817372e-09
2.230155e-09
2.654587e-09
3.086600e-09
3.523189e-09
3.962065e-09
4.401217e-09
4.839954e-09
5.284601e-09
5.733209e-09
0.000000e+00
3.787019e-11
1.906084e-10
4.264637e-10
7.203730e-10
1.057785e-09
1.427875e-09
1.822157e-09
2.233835e-09
2.657487e-09
3.088892e-09
3.524839e-09
3.962888e-09
4.401176e-09
4.838962e-09
5.278547e-09
5.717387e-09
0.000000e+00
6.645806e-11
2.351619e-10
4.699761e-10
7.558073e-10
1.084986e-09
1.448241e-09
1.837179e-09
2.244770e-09
2.665329e-09
3.094396e-09
3.528539e-09
3.965168e-09
4.402415e-09
4.839277e-09
5.275868e-09
5.709999e-09
0.000000e+00
1.346064e-10
3.295337e-10
5.529340e-10
8.232169e-10
1.137334e-09
1.487825e-09
1.866398e-09
2.265759e-09
2.679902e-09
3.104082e-09
3.534614e-09
3.968695e-09
4.404268e-09
4.839960e-09
5.274849e-09
5.707533e-09
0.000000e+00
2.502443e-10
4.497580e-10
6.590934e-10
9.103489e-10
1.206106e-09
1.540424e-09
1.905539e-09
2.293973e-09
2.699469e-09
3.117004e-09
3.542631e-09
3.973284e-09
4.406626e-09
4.840926e-09
5.274779e-09
5.707155e-09


2.147951e-01
2.147951e-01
2.147951e-01
2.147951e-01
2.147951e-01
2.147951e-01
2.147951e-01
2.147951e-01
2.147951e-01
2.147951e-01
2.147951e-01
2.147951e-01
2.147951e-01
2.147951e-01
2.147951e-01
2.147951e-01
2.147951e-01
2.147951e-01
2.147951e-01
2.147951e-01
2.147951e-01
2.147951e-01
2.147951e-01
2.147951e-01
2.147951e-01
2.147951e-01
2.147951e-01
2.147951e-01
2.147951e-01
2.147951e-01
2.147951e-01
2.147951e-01
2.147951e-01
2.147951e-01
2.147951e-01
2.147951e-01
2.147951e-01
2.147951e-01
2.147951e-01
2.147951e-01
2.147951e-01
2.147951e-01
2.147951e-01
2.147951e-01
2.147951e-01
2.147951e-01
2.147951e-01
2.147951e-01
2.147951e-01
2.147951e-01
2.147951e-01
2.147951e-01
2.147951e-01
2.147951e-01
2.147951e-01
2.147951e-01
2.147951e-01
2.147951e-01
2.147951e-01
2.147951e-01
2.147951e-01
2.147951e-01
2.147951e-01
2.147951e-01
2.147951e-01
2.147951e-01
2.147951e-01
2.147951e-01
2.147951e-01
2.147951e-01
2.147951e-01
2.147951e-01
2.147951e-01
2.147951e-01
2.147951e-01
2.147951e-01
2.147951e-01
2.147951e-01
2.147951e-01
2.147951e-01
2.147951e-01
2.147951e-01
2.147951e-01
2.147951e-01
2.147951e-01
2.147951e-01
2.147951e-01
2.147951e-01
2.147951e-01
2.147951e-01
2.147951e-01
2.147951e-01
2.147951e-01
2.147951e-01
2.147951e-01
2.147951e-01
2.147951e-01
2.147951e-01
2.147951e-01
2.147951e-01
2.147951e-01
2.147951e-01
2.147951e-01
2.147951e-01
2.147951e-01
2.147951e-01
2.147951e-01
2.147951e-01
2.147951e-01
2.147951e-01
2.147951e-01
2.147951e-01
2.147951e-01
2.147951e-01
2.147951e-01
2.147951e-01
2.147951e-01
2.147951e-01
2.147951e-01
2.147951e-01
2.147951e-01
2.147951e-01
2.147951e-01
2.147951e-01
2.147951e-01
2.147951e-01
2.147951e-01
2.147951e-01


9.878420e-01
9.895661e-01
9.911610e-01
9.923887e-01
9.935284e-01
9.945792e-01
9.955366e-01
9.963893e-01
9.971284e-01
9.977465e-01
9.982380e-01
9.985980e-01
9.988218e-01
9.989017e-01
9.989593e-01
9.954062e-01
9.954004e-01
9.946103e-01
9.951186e-01
9.957821e-01
9.964006e-01
9.969628e-01
9.974717e-01
9.979326e-01
9.983500e-01
9.987280e-01
9.990710e-01
9.993816e-01
9.996526e-01
9.998301e-01
9.993813e-01
9.932991e-01
9.984018e-01
9.979480e-01
9.978255e-01
9.979979e-01
9.982246e-01
9.984441e-01
9.986480e-01
9.988406e-01
9.990272e-01
9.992091e-01
9.993790e-01
9.995106e-01
9.995380e-01
9.993012e-01
9.984418e-01
9.968961e-01
9.996747e-01
9.993438e-01
9.991393e-01
9.990875e-01
9.991082e-01
9.991429e-01
9.991776e-01
9.992116e-01
9.992448e-01
9.992727e-01
9.992804e-01
9.992390e-01
9.991076e-01
9.988718e-01
9.986718e-01
9.986211e-01
9.996760e-01
9.993455e-01
9.991409e-01
9.990872e-01
9.991030e-01
9.991281e-01
9.991455e-01
9.991513e-01
9.991434e-01
9.991177e-01
9.990700e-01
9.990013e-01
9.989358e-01
9.989488e-01
9.991339e-01
9.994543e-01
9.984041e-01
9.979515e-01
9.978289e-01
9.979979e-01
9.982158e-01
9.984170e-01
9.985872e-01
9.987240e-01
9.988265e-01
9.988955e-01
9.989391e-01
9.989818e-01
9.990714e-01
9.992593e-01
9.995415e-01
9.998332e-01
9.953999e-01
9.946100e-01
9.951179e-01
9.957802e-01
9.963958e-01
9.969517e-01
9.974488e-01
9.978889e-01
9.982724e-01
9.986002e-01
9.988777e-01
9.991200e-01
9.993534e-01
9.995981e-01
9.998269e-01
9.999710e-01
9.878337e-01
9.895531e-01
9.911451e-01
9.923709e-01
9.935123e-01
9.945734e-01
9.955564e-01
9.964590e-01
9.972814e-01
9.980220e-01
9.986721e-01
9.992113e-01
9.996125e-01
9.998600e-01
9.999726e-01
9.999994e-01
1 2 19 18
2 3 20 19
3 4 21 20
4 5 22 21
5 6 23 22
6 7 24 23
7 8 25 24
8 9 26 25
9 10 27 26
10 11 28 27
11 12 29 28
12 13 30 29
13 14 31 30
14 15 32 31
15 16 33 32
16 17 34 33
18 19 36 35
19 20 37 36
20 21 38 37
21 22 39 38
22 23 40 39
23 24 41 40
24 25 42 41
25 26 43 42
26 27 44 43
27 28 45 44
28 29 46 45
29 30 47 46
30 31 48 47
31 32 49 48
32 33 50 49
33 34 51 50
35 36 53 52
36 37 54 53
37 38 55 54
38 39 56 55
39 40 57 56
40 41 58 57
41 42 59 58
42 43 60 59
43 44 61 60
44 45 62 61
45 46 63 62
46 47 64 63
47 48 65 64
48 49 66 65
49 50 67 66
50 51 68 67
52 53 70 69
53 54 71 70
54 55 72 71
55 56 73 72
56 57 74 73
57 58 75 74
58 59 76 75
59 60 77 76
60 61 78 77
61 62 79 78
62 63 80 79
63 64 81 80
64 65 82 81
65 66 83 82
66 67 84 83
67 68 85 84
69 70 87 86
70 71 88 87
71 72 89 88
72 73 90 89
73 74 91 90
74 75 92 91
75 76 93 92
76 77 94 93
77 78 95 94
78 79 96 95
79 80 97 96
80 81 98 97
81 82 99 98
82 83 100 99
83 84 101 100
84 85 102 101
86 87 104 103
87 88 105 104
88 89 106 105
89 90 107 106
90 91 108 107
91 92 109 108
92 93 110 109
93 94 111 110
94 95 112 111
95 96 113 112
96 97 114 113
97 98 115 114
98 99 116 115
99 100 117 116
100 101 118 117
101 102 119 118
103 104 121 120
104 105 122 121
105 106 123 122
106 107 124 123
107 108 125 124
108 109 126 125
109 110 127 126
110 111 128 127
111 112 129 128
112 113 130 129
113 114 131 130
114 115 132 131
115 116 133 132
116 117 134 133
117 118 135 134
118 119 136 135
120 121 138 137
121 122 139 138
122 123 140 139
123 124 141 140
124 125 142 141
125 126 143 142
126 127 144 143
127 128 145 144
128 129 146 145
129 130 147 146
130 131 148 147
131 132 149 148
132 133 150 149
133 134 151 150
134 135 152 151
135 136 153 152
