TITLE = "Solution"
VARIABLES = x, y, u, v, psiu, psiv, t, stress
ZONE T="structure" N=153 E=128 F=FEBLOCK ET=QUADRILATERAL VARLOCATION=([7,8]=cellcentered)
0.000000e+00
1.250000e+01
2.500000e+01
3.750000e+01
5.000000e+01
6.250000e+01
7.500000e+01
8.750000e+01
1.000000e+02
1.125000e+02
1.250000e+02
1.375000e+02
1.500000e+02
1.625000e+02
1.750000e+02
1.875000e+02
2.000000e+02
0.000000e+00
1.250000e+01
2.500000e+01
3.750000e+01
5.000000e+01
6.250000e+01
7.500000e+01
8.750000e+01
1.000000e+02
1.125000e+02
1.250000e+02
1.375000e+02
1.500000e+02
1.625000e+02
1.750000e+02
1.875000e+02
2.000000e+02
0.000000e+00
1.250000e+01
2.500000e+01
3.750000e+01
5.000000e+01
6.250000e+01
7.500000e+01
8.750000e+01
1.000000e+02
1.125000e+02
1.250000e+02
1.375000e+02
1.500000e+02
1.625000e+02
1.750000e+02
1.875000e+02
2.000000e+02
0.000000e+00
1.250000e+01
2.500000e+01
3.750000e+01
5.000000e+01
6.250000e+01
7.500000e+01
8.750000e+01
1.000000e+02
1.125000e+02
1.250000e+02
1.375000e+02
1.500000e+02
1.625000e+02
1.750000e+02
1.875000e+02
2.000000e+02
0.000000e+00
1.250000e+01
2.500000e+01
3.750000e+01
5.000000e+01
6.250000e+01
7.500000e+01
8.750000e+01
1.000000e+02
1.125000e+02
1.250000e+02
1.375000e+02
1.500000e+02
1.625000e+02
1.750000e+02
1.875000e+02
2.000000e+02
0.000000e+00
1.250000e+01
2.500000e+01
3.750000e+01
5.000000e+01
6.250000e+01
7.500000e+01
8.750000e+01
1.000000e+02
1.125000e+02
1.250000e+02
1.375000e+02
1.500000e+02
1.625000e+02
1.750000e+02
1.875000e+02
2.000000e+02
0.000000e+00
1.250000e+01
2.500000e+01
3.750000e+01
5.000000e+01
6.250000e+01
7.500000e+01
8.750000e+01
1.000000e+02
1.125000e+02
1.250000e+02
1.375000e+02
1.500000e+02
1.625000e+02
1.750000e+02
1.875000e+02
2.000000e+02
0.000000e+00
1.250000e+01
2.500000e+01
3.750000e+01
5.000000e+01
6.250000e+01
7.500000e+01
8.750000e+01
1.000000e+02
1.125000e+02
1.250000e+02
1.375000e+02
1.500000e+02
1.625000e+02
1.750000e+02
1.875000e+02
2.000000e+02
0.000000e+00
1.250000e+01
2.500000e+01
3.750000e+01
5.000000e+01
6.250000e+01
7.500000e+01
8.750000e+01
1.000000e+02
1.125000e+02
1.250000e+02
1.375000e+02
1.500000e+02
1.625000e+02
1.750000e+02
1.875000e+02
2.000000e+02
0.000000e+00
0.000000e+00
0.000000e+00
0.000000e+00
0.000000e+00
0.000000e+00
0.000000e+00
0.000000e+00
0.000000e+00
0.000000e+00
0.000000e+00
0.000000e+00
0.000000e+00
0.000000e+00
0.000000e+00
0.000000e+00
0.000000e+00
1.250000e+01
1.250000e+01
1.250000e+01
1.250000e+01
1.250000e+01
1.250000e+01
1.250000e+01
1.250000e+01
1.250000e+01
1.250000e+01
1.250000e+01
1.250000e+01
1.250000e+01
1.250000e+01
1.250000e+01
1.250000e+01
1.250000e+01
2.500000e+01
2.500000e+01
2.500000e+01
2.500000e+01
2.500000e+01
2.500000e+01
2.500000e+01
2.500000e+01
2.500000e+01
2.500000e+01
2.500000e+01
2.500000e+01
2.500000e+01
2.500000e+01
2.500000e+01
2.500000e+01
2.500000e+01
3.750000e+01
3.750000e+01
3.750000e+01
3.750000e+01
3.750000e+01
3.750000e+01
3.750000e+01
3.750000e+01
3.750000e+01
3.750000e+01
3.750000e+01
3.750000e+01
3.750000e+01
3.750000e+01
3.750000e+01
3.750000e+01
3.750000e+01
5.000000e+01
5.000000e+01
5.000000e+01
5.000000e+01
5.000000e+01
5.000000e+01
5.000000e+01
5.000000e+01
5.000000e+01
5.000000e+01
5.000000e+01
5.000000e+01
5.000000e+01
5.000000e+01
5.000000e+01
5.000000e+01
5.000000e+01
6.250000e+01
6.250000e+01
6.250000e+01
6.250000e+01
6.250000e+01
6.250000e+01
6.250000e+01
6.250000e+01
6.250000e+01
6.250000e+01
6.250000e+01
6.250000e+01
6.250000e+01
6.250000e+01
6.250000e+01
6.250000e+01
6.250000e+01
7.500000e+01
7.500000e+01
7.500000e+01
7.500000e+01
7.500000e+01
7.500000e+01
7.500000e+01
7.500000e+01
7.500000e+01
7.500000e+01
7.500000e+01
7.500000e+01
7.500000e+01
7.500000e+01
7.500000e+01
7.500000e+01
7.500000e+01
8.750000e+01
8.750000e+01
8.750000e+01
8.750000e+01
8.750000e+01
8.750000e+01
8.750000e+01
8.750000e+01
8.750000e+01
8.750000e+01
8.750000e+01
8.750000e+01
8.750000e+01
8.750000e+01
8.750000e+01
8.750000e+01
8.750000e+01
1.000000e+02
1.000000e+02
1.000000e+02
1.000000e+02
1.000000e+02
1.000000e+02
1.000000e+02
1.000000e+02
1.000000e+02
1.000000e+02
1.000000e+02
1.000000e+02
1.000000e+02
1.000000e+02
1.000000e+02
1.000000e+02
1.000000e+02
0.000000e+00
-7.483219e-02
-1.377898e-01
-1.957189e-01
-2.496671e-01
-2.995206e-01
-3.451724e-01
-3.865870e-01
-4.238248e-01
-4.570573e-01
-4.866139e-01
-5.130723e-01
-5.374263e-01
-5.613926e-01
-5.879323e-01
-6.205264e-01
-6.449847e-01
0.000000e+00
-4.468846e-02
-9.283159e-02
-1.372887e-01
-1.782473e-01
-2.158632e-01
-2.502144e-01
-2.813469e-01
-3.093168e-01
-3.342103e-01
-3.561538e-01
-3.753054e-01
-3.917873e-01
-4.054299e-01
-4.150528e-01
-4.171619e-01
-4.247238e-01
0.000000e+00
-2.794690e-02
-5.746580e-02
-8.691528e-02
-1.144054e-01
-1.396452e-01
-1.626142e-01
-1.833383e-01
-2.018227e-01
-2.180365e-01
-2.318925e-01
-2.431972e-01
-2.515475e-01
-2.562088e-01
-2.563382e-01
-2.544761e-01
-2.621886e-01
0.000000e+00
-1.348890e-02
-2.776871e-02
-4.213869e-02
-5.587899e-02
-6.853465e-02
-8.000576e-02
-9.025890e-02
-9.923539e-02
-1.068184e-01
-1.128142e-01
-1.169397e-01
-1.188573e-01
-1.184093e-01
-1.165688e-01
-1.170721e-01
-1.228149e-01
0.000000e+00
-1.242578e-05
-2.824770e-05
-4.401766e-05
-5.238705e-05
-3.696880e-05
3.476335e-05
2.211738e-04
6.180170e-04
1.367925e-03
2.656981e-03
4.672121e-03
7.463856e-03
1.061866e-02
1.279790e-02
1.220020e-02
8.397973e-03
0.000000e+00
1.346978e-02
2.772432e-02
4.206769e-02
5.579068e-02
6.846282e-02
8.003362e-02
9.055967e-02
1.001322e-01
1.088623e-01
1.168641e-01
1.241967e-01
1.307328e-01
1.359740e-01
1.390571e-01
1.393017e-01
1.373718e-01
0.000000e+00
2.794376e-02
5.745624e-02
8.689625e-02
1.143757e-01
1.396082e-01
1.625835e-01
1.833483e-01
2.019455e-01
2.184084e-01
2.327511e-01
2.449387e-01
2.548310e-01
2.621447e-01
2.665345e-01
2.679599e-01
2.675099e-01
0.000000e+00
4.470680e-02
9.287145e-02
1.373522e-01
1.783325e-01
2.159545e-01
2.502656e-01
2.812533e-01
3.088704e-01
3.330370e-01
3.536387e-01
3.705328e-01
3.835844e-01
3.927501e-01
3.982177e-01
4.005493e-01
4.009775e-01
0.000000e+00
7.486284e-02
1.378707e-01
1.958704e-01
2.499091e-01
2.998610e-01
3.455784e-01
3.869284e-01
4.237728e-01
4.559201e-01
4.830916e-01
5.049249e-01
5.210615e-01
5.313746e-01
5.363621e-01
5.375932e-01
5.375694e-01
0.000000e+00
-4.529798e-02
-8.892520e-02
-1.454559e-01
-2.148356e-01
-2.969346e-01
-3.908537e-01
-4.955418e-01
-6.098858e-01
-7.327871e-01
-8.632312e-01
-1.000410e+00
-1.143994e+00
-1.294749e+00
-1.456585e+00
-1.641756e+00
-1.907813e+00
0.000000e+00
-2.788627e-02
-7.339661e-02
-1.306283e-01
-2.011420e-01
-2.843613e-01
-3.794182e-01
-4.852358e-01
-6.006880e-01
-7.246566e-01
-8.560987e-01
-9.941698e-01
-1.138488e+00
-1.289800e+00
-1.451573e+00
-1.635620e+00
-1.861097e+00
0.000000e+00
-2.104266e-02
-6.263142e-02
-1.200744e-01
-1.912547e-01
-2.753307e-01
-3.712613e-01
-4.779594e-01
-5.943064e-01
-7.192002e-01
-8.516181e-01
-9.907444e-01
-1.136233e+00
-1.288709e+00
-1.450621e+00
-1.625012e+00
-1.793786e+00
0.000000e+00
-1.813306e-02
-5.727902e-02
-1.138795e-01
-1.853172e-01
-2.699106e-01
-3.664393e-01
-4.737747e-01
-5.908194e-01
-7.165010e-01
-8.498189e-01
-9.899417e-01
-1.136359e+00
-1.289003e+00
-1.447677e+00
-1.607918e+00
-1.755536e+00
0.000000e+00
-1.729486e-02
-5.565913e-02
-1.119033e-01
-1.833604e-01
-2.681644e-01
-3.649706e-01
-4.726516e-01
-5.901307e-01
-7.163531e-01
-8.502959e-01
-9.909961e-01
-1.137544e+00
-1.288860e+00
-1.442677e+00
-1.593737e+00
-1.732900e+00
0.000000e+00
-1.812230e-02
-5.727136e-02
-1.138931e-01
-1.853841e-01
-2.700870e-01
-3.668167e-01
-4.744894e-01
-5.920515e-01
-7.184430e-01
-8.525747e-01
-9.932816e-01
-1.139202e+00
-1.288480e+00
-1.438247e+00
-1.584127e+00
-1.720320e+00
0.000000e+00
-2.102510e-02
-6.261873e-02
-1.200971e-01
-1.913675e-01
-2.756291e-01
-3.719010e-01
-4.791728e-01
-5.964013e-01
-7.225082e-01
-8.563312e-01
-9.965259e-01
-1.141403e+00
-1.288725e+00
-1.435589e+00
-1.578669e+00
-1.714771e+00
0.000000e+00
-2.786981e-02
-7.338556e-02
-1.306585e-01
-2.012775e-01
-2.847123e-01
-3.801629e-01
-4.866384e-01
-6.030945e-01
-7.284332e-01
-8.614444e-01
-1.000688e+00
-1.144331e+00
-1.290013e+00
-1.434923e+00
-1.576412e+00
-1.713469e+00
0.000000e+00
-4.529118e-02
-8.892615e-02
-1.455026e-01
-2.149927e-01
-2.973096e-01
-3.916157e-01
-4.969321e-01
-6.122036e-01
-7.363129e-01
-8.680208e-01
-1.005855e+00
-1.147971e+00
-1.292059e+00
-1.435489e+00
-1.575999e+00
-1.713489e+00


0.000000e+00
4.065074e-10
8.406293e-10
1.225119e-09
1.549785e-09
1.813514e-09
2.021125e-09
2.180340e-09
2.299374e-09
2.386138e-09
2.447894e-09
2.491191e-09
2.522019e-09
2.545943e-09
2.568202e-09
2.595692e-09
2.628706e-09
0.000000e+00
2.764971e-10
6.515152e-10
9.570001e-10
1.201954e-09
1.395482e-09
1.544842e-09
1.657425e-09
1.740076e-09
1.798907e-09
1.839219e-09
1.865412e-09
1.880808e-09
1.888384e-09
1.896066e-09
1.918546e-09
1.952539e-09
0.000000e+00
2.058382e-10
4.524864e-10
6.585680e-10
8.241272e-10
9.519375e-10
1.048132e-09
1.118825e-09
1.169230e-09
1.203664e-09
1.225671e-09
1.238154e-09
1.243709e-09
1.245862e-09
1.251277e-09
1.268914e-09
1.296442e-09
0.000000e+00
1.101779e-10
2.256940e-10
3.287745e-10
4.130844e-10
4.775274e-10
5.251138e-10
5.592738e-10
5.828517e-10
5.981164e-10
6.069684e-10
6.112097e-10
6.129329e-10
6.148260e-10
6.195943e-10
6.303136e-10
6.472541e-10
0.000000e+00
-1.199890e-13
-2.820015e-13
-5.073786e-13
-8.321370e-13
-1.304776e-12
-1.988452e-12
-2.955673e-12
-4.268951e-12
-5.931943e-12
-7.798425e-12
-9.438922e-12
-1.007812e-11
-8.954367e-12
-6.022566e-12
-8.548764e-13
7.973547e-12
0.000000e+00
-1.103838e-10
-2.261706e-10
-3.296294e-10
-4.144691e-10
-4.796601e-10
-5.282995e-10
-5.639216e-10
-5.894755e-10
-6.072873e-10
-6.191615e-10
-6.264589e-10
-6.302199e-10
-6.314671e-10
-6.314035e-10
-6.301260e-10
-6.263533e-10
0.000000e+00
-2.059436e-10
-4.527766e-10
-6.591061e-10
-8.249851e-10
-9.531935e-10
-1.049865e-09
-1.121115e-09
-1.172176e-09
-1.207435e-09
-1.230607e-09
-1.244886e-09
-1.253034e-09
-1.257399e-09
-1.259744e-09
-1.260546e-09
-1.259484e-09
0.000000e+00
-2.765337e-10
-6.516976e-10
-9.573240e-10
-1.202406e-09
-1.396014e-09
-1.545335e-09
-1.657665e-09
-1.739756e-09
-1.797679e-09
-1.836852e-09
-1.862068e-09
-1.877462e-09
-1.886402e-09
-1.891326e-09
-1.893567e-09
-1.893880e-09
0.000000e+00
-4.066847e-10
-8.409188e-10
-1.225441e-09
-1.550042e-09
-1.813534e-09
-2.020635e-09
-2.178937e-09
-2.296525e-09
-2.381181e-09
-2.440029e-09
-2.479346e-09
-2.504412e-09
-2.519391e-09
-2.527299e-09
-2.530325e-09
-2.530848e-09
0.000000e+00
3.694122e-10
6.639203e-10
9.729273e-10
1.343802e-09
1.780305e-09
2.273589e-09
2.812129e-09
3.384867e-09
3.982677e-09
4.598551e-09
5.227691e-09
5.868148e-09
6.524113e-09
7.213227e-09
7.944586e-09
8.685326e-09
0.000000e+00
1.986715e-10
4.864626e-10
8.162994e-10
1.215324e-09
1.678951e-09
2.196077e-09
2.754371e-09
3.343036e-09
3.953333e-09
4.578699e-09
5.214762e-09
5.859716e-09
6.515537e-09
7.190674e-09
7.901674e-09
8.630417e-09
0.000000e+00
9.804241e-11
3.471801e-10
6.939511e-10
1.116026e-09
1.601998e-09
2.138093e-09
2.711833e-09
3.312815e-09
3.932773e-09
4.565557e-09
5.207093e-09
5.855231e-09
6.508809e-09
7.168617e-09
7.856094e-09
8.565285e-09
0.000000e+00
5.586049e-11
2.814571e-10
6.298231e-10
1.063909e-09
1.562176e-09
2.108589e-09
2.690566e-09
3.298066e-09
3.923164e-09
4.559903e-09
5.204117e-09
5.852923e-09
6.503434e-09
7.154930e-09
7.823700e-09
8.508291e-09
0.000000e+00
4.515332e-11
2.635411e-10
6.104090e-10
1.047886e-09
1.550052e-09
2.099777e-09
2.684419e-09
3.294080e-09
3.920937e-09
4.558982e-09
5.203779e-09
5.851953e-09
6.500531e-09
7.148497e-09
7.805188e-09
8.467726e-09
0.000000e+00
5.593610e-11
2.815620e-10
6.299651e-10
1.064110e-09
1.562496e-09
2.109133e-09
2.691482e-09
3.299513e-09
3.925218e-09
4.562365e-09
5.206215e-09
5.853167e-09
6.500471e-09
7.147033e-09
7.796253e-09
8.444375e-09
0.000000e+00
9.816182e-11
3.473694e-10
6.942313e-10
1.116440e-09
1.602663e-09
2.139202e-09
2.713661e-09
3.315655e-09
3.936794e-09
4.570488e-09
5.211675e-09
5.856531e-09
6.502299e-09
7.147499e-09
7.792299e-09
8.433470e-09
0.000000e+00
1.988386e-10
4.867754e-10
8.167629e-10
1.215995e-09
1.679964e-09
2.197648e-09
2.756798e-09
3.346639e-09
3.958304e-09
4.584785e-09
5.220642e-09
5.861736e-09
6.505033e-09
7.148507e-09
7.790795e-09
8.429829e-09
0.000000e+00
3.696785e-10
6.643788e-10
9.735712e-10
1.344681e-09
1.781521e-09
2.275312e-09
2.814584e-09
3.388290e-09
3.987186e-09
4.603857e-09
5.232474e-09
5.868508e-09
6.508513e-09
7.149932e-09
7.790692e-09
8.429272e-09


2.186533e-01
2.186533e-01
2.186533e-01
2.186533e-01
2.186533e-01
2.186533e-01
2.186533e-01
2.186533e-01
2.186533e-01
2.186533e-01
2.186533e-01
2.186533e-01
2.186533e-01
2.186533e-01
2.186533e-01
2.186533e-01
2.186533e-01
2.186533e-01
2.186533e-01
2.186533e-01
2.186533e-01
2.186533e-01
2.186533e-01
2.186533e-01
2.186533e-01
2.186533e-01
2.186533e-01
2.186533e-01
2.186533e-01
2.186533e-01
2.186533e-01
2.186533e-01
2.186533e-01
2.186533e-01
2.186533e-01
2.186533e-01
2.186533e-01
2.186533e-01
2.186533e-01
2.186533e-01
2.186533e-01
2.186533e-01
2.186533e-01
2.186533e-01
2.186533e-01
2.186533e-01
2.186533e-01
2.186533e-01
2.186533e-01
2.186533e-01
2.186533e-01
2.186533e-01
2.186533e-01
2.186533e-01
2.186533e-01
2.186533e-01
2.186533e-01
2.186533e-01
2.186533e-01
2.186533e-01
2.186533e-01
2.186533e-01
2.186533e-01
2.186533e-01
2.186533e-01
2.186533e-01
2.186533e-01
2.186533e-01
2.186533e-01
2.186533e-01
2.186533e-01
2.186533e-01
2.186533e-01
2.186533e-01
2.186533e-01
2.186533e-01
2.186533e-01
2.186533e-01
2.186533e-01
2.186533e-01
2.186533e-01
2.186533e-01
2.186533e-01
2.186533e-01
2.186533e-01
2.186533e-01
2.186533e-01
2.186533e-01
2.186533e-01
2.186533e-01
2.186533e-01
2.186533e-01
2.186533e-01
2.186533e-01
2.186533e-01
2.186533e-01
2.186533e-01
2.186533e-01
2.186533e-01
2.186533e-01
2.186533e-01
2.186533e-01
2.186533e-01
2.186533e-01
2.186533e-01
2.186533e-01
2.186533e-01
2.186533e-01
2.186533e-01
2.186533e-01
2.186533e-01
2.186533e-01
2.186533e-01
2.186533e-01
2.186533e-01
2.186533e-01
2.186533e-01
2.186533e-01
2.186533e-01
2.186533e-01
2.186533e-01
2.186533e-01
2.186533e-01
2.186533e-01
2.186533e-01
2.186533e-01
2.186533e-01
2.186533e-01


9.874013e-01
9.891879e-01
9.908406e-01
9.921129e-01
9.932938e-01
9.943827e-01
9.953748e-01
9.962584e-01
9.970243e-01
9.976648e-01
9.981741e-01
9.985472e-01
9.987791e-01
9.988619e-01
9.989216e-01
9.952397e-01
9.952336e-01
9.944149e-01
9.949417e-01
9.956292e-01
9.962701e-01
9.968527e-01
9.973800e-01
9.978577e-01
9.982902e-01
9.986819e-01
9.990374e-01
9.993592e-01
9.996400e-01
9.998239e-01
9.993589e-01
9.930562e-01
9.983439e-01
9.978737e-01
9.977467e-01
9.979253e-01
9.981602e-01
9.983877e-01
9.985990e-01
9.987986e-01
9.989919e-01
9.991805e-01
9.993565e-01
9.994929e-01
9.995213e-01
9.992758e-01
9.983853e-01
9.967836e-01
9.996630e-01
9.993200e-01
9.991081e-01
9.990544e-01
9.990759e-01
9.991119e-01
9.991478e-01
9.991830e-01
9.992175e-01
9.992463e-01
9.992544e-01
9.992114e-01
9.990753e-01
9.988309e-01
9.986236e-01
9.985712e-01
9.996642e-01
9.993218e-01
9.991097e-01
9.990541e-01
9.990705e-01
9.990965e-01
9.991145e-01
9.991206e-01
9.991123e-01
9.990858e-01
9.990363e-01
9.989651e-01
9.988972e-01
9.989107e-01
9.991025e-01
9.994345e-01
9.983463e-01
9.978773e-01
9.977502e-01
9.979253e-01
9.981511e-01
9.983596e-01
9.985360e-01
9.986778e-01
9.987840e-01
9.988555e-01
9.989007e-01
9.989449e-01
9.990378e-01
9.992324e-01
9.995248e-01
9.998272e-01
9.952332e-01
9.944146e-01
9.949410e-01
9.956272e-01
9.962651e-01
9.968412e-01
9.973563e-01
9.978124e-01
9.982097e-01
9.985494e-01
9.988370e-01
9.990881e-01
9.993300e-01
9.995835e-01
9.998206e-01
9.999700e-01
9.873927e-01
9.891744e-01
9.908241e-01
9.920944e-01
9.932772e-01
9.943767e-01
9.953953e-01
9.963306e-01
9.971828e-01
9.979503e-01
9.986239e-01
9.991827e-01
9.995984e-01
9.998549e-01
9.999716e-01
9.999994e-01
1 2 19 18
2 3 20 19
3 4 21 20
4 5 22 21
5 6 23 22
6 7 24 23
7 8 25 24
8 9 26 25
9 10 27 26
10 11 28 27
11 12 29 28
12 13 30 29
13 14 31 30
14 15 32 31
15 16 33 32
16 17 34 33
18 19 36 35
19 20 37 36
20 21 38 37
21 22 39 38
22 23 40 39
23 24 41 40
24 25 42 41
25 26 43 42
26 27 44 43
27 28 45 44
28 29 46 45
29 30 47 46
30 31 48 47
31 32 49 48
32 33 50 49
33 34 51 50
35 36 53 52
36 37 54 53
37 38 55 54
38 39 56 55
39 40 57 56
40 41 58 57
41 42 59 58
42 43 60 59
43 44 61 60
44 45 62 61
45 46 63 62
46 47 64 63
47 48 65 64
48 49 66 65
49 50 67 66
50 51 68 67
52 53 70 69
53 54 71 70
54 55 72 71
55 56 73 72
56 57 74 73
57 58 75 74
58 59 76 75
59 60 77 76
60 61 78 77
61 62 79 78
62 63 80 79
63 64 81 80
64 65 82 81
65 66 83 82
66 67 84 83
67 68 85 84
69 70 87 86
70 71 88 87
71 72 89 88
72 73 90 89
73 74 91 90
74 75 92 91
75 76 93 92
76 77 94 93
77 78 95 94
78 79 96 95
79 80 97 96
80 81 98 97
81 82 99 98
82 83 100 99
83 84 101 100
84 85 102 101
86 87 104 103
87 88 105 104
88 89 106 105
89 90 107 106
90 91 108 107
91 92 109 108
92 93 110 109
93 94 111 110
94 95 112 111
95 96 113 112
96 97 114 113
97 98 115 114
98 99 116 115
99 100 117 116
100 101 118 117
101 102 119 118
103 104 121 120
104 105 122 121
105 106 123 122
106 107 124 123
107 108 125 124
108 109 126 125
109 110 127 126
110 111 128 127
111 112 129 128
112 113 130 129
113 114 131 130
114 115 132 131
115 116 133 132
116 117 134 133
117 118 135 134
118 119 136 135
120 121 138 137
121 122 139 138
122 123 140 139
123 124 141 140
124 125 142 141
125 126 143 142
126 127 144 143
127 128 145 144
128 129 146 145
129 130 147 146
130 131 148 147
131 132 149 148
132 133 150 149
133 134 151 150
134 135 152 151
135 136 153 152
