TITLE = "Solution"
VARIABLES = x, y, u, v, psiu, psiv, t, stress
ZONE T="structure" N=153 E=128 F=FEBLOCK ET=QUADRILATERAL VARLOCATION=([7,8]=cellcentered)
0.000000e+00
1.250000e+01
2.500000e+01
3.750000e+01
5.000000e+01
6.250000e+01
7.500000e+01
8.750000e+01
1.000000e+02
1.125000e+02
1.250000e+02
1.375000e+02
1.500000e+02
1.625000e+02
1.750000e+02
1.875000e+02
2.000000e+02
0.000000e+00
1.250000e+01
2.500000e+01
3.750000e+01
5.000000e+01
6.250000e+01
7.500000e+01
8.750000e+01
1.000000e+02
1.125000e+02
1.250000e+02
1.375000e+02
1.500000e+02
1.625000e+02
1.750000e+02
1.875000e+02
2.000000e+02
0.000000e+00
1.250000e+01
2.500000e+01
3.750000e+01
5.000000e+01
6.250000e+01
7.500000e+01
8.750000e+01
1.000000e+02
1.125000e+02
1.250000e+02
1.375000e+02
1.500000e+02
1.625000e+02
1.750000e+02
1.875000e+02
2.000000e+02
0.000000e+00
1.250000e+01
2.500000e+01
3.750000e+01
5.000000e+01
6.250000e+01
7.500000e+01
8.750000e+01
1.000000e+02
1.125000e+02
1.250000e+02
1.375000e+02
1.500000e+02
1.625000e+02
1.750000e+02
1.875000e+02
2.000000e+02
0.000000e+00
1.250000e+01
2.500000e+01
3.750000e+01
5.000000e+01
6.250000e+01
7.500000e+01
8.750000e+01
1.000000e+02
1.125000e+02
1.250000e+02
1.375000e+02
1.500000e+02
1.625000e+02
1.750000e+02
1.875000e+02
2.000000e+02
0.000000e+00
1.250000e+01
2.500000e+01
3.750000e+01
5.000000e+01
6.250000e+01
7.500000e+01
8.750000e+01
1.000000e+02
1.125000e+02
1.250000e+02
1.375000e+02
1.500000e+02
1.625000e+02
1.750000e+02
1.875000e+02
2.000000e+02
0.000000e+00
1.250000e+01
2.500000e+01
3.750000e+01
5.000000e+01
6.250000e+01
7.500000e+01
8.750000e+01
1.000000e+02
1.125000e+02
1.250000e+02
1.375000e+02
1.500000e+02
1.625000e+02
1.750000e+02
1.875000e+02
2.000000e+02
0.000000e+00
1.250000e+01
2.500000e+01
3.750000e+01
5.000000e+01
6.250000e+01
7.500000e+01
8.750000e+01
1.000000e+02
1.125000e+02
1.250000e+02
1.375000e+02
1.500000e+02
1.625000e+02
1.750000e+02
1.875000e+02
2.000000e+02
0.000000e+00
1.250000e+01
2.500000e+01
3.750000e+01
5.000000e+01
6.250000e+01
7.500000e+01
8.750000e+01
1.000000e+02
1.125000e+02
1.250000e+02
1.375000e+02
1.500000e+02
1.625000e+02
1.750000e+02
1.875000e+02
2.000000e+02
0.000000e+00
0.000000e+00
0.000000e+00
0.000000e+00
0.000000e+00
0.000000e+00
0.000000e+00
0.000000e+00
0.000000e+00
0.000000e+00
0.000000e+00
0.000000e+00
0.000000e+00
0.000000e+00
0.000000e+00
0.000000e+00
0.000000e+00
1.250000e+01
1.250000e+01
1.250000e+01
1.250000e+01
1.250000e+01
1.250000e+01
1.250000e+01
1.250000e+01
1.250000e+01
1.250000e+01
1.250000e+01
1.250000e+01
1.250000e+01
1.250000e+01
1.250000e+01
1.250000e+01
1.250000e+01
2.500000e+01
2.500000e+01
2.500000e+01
2.500000e+01
2.500000e+01
2.500000e+01
2.500000e+01
2.500000e+01
2.500000e+01
2.500000e+01
2.500000e+01
2.500000e+01
2.500000e+01
2.500000e+01
2.500000e+01
2.500000e+01
2.500000e+01
3.750000e+01
3.750000e+01
3.750000e+01
3.750000e+01
3.750000e+01
3.750000e+01
3.750000e+01
3.750000e+01
3.750000e+01
3.750000e+01
3.750000e+01
3.750000e+01
3.750000e+01
3.750000e+01
3.750000e+01
3.750000e+01
3.750000e+01
5.000000e+01
5.000000e+01
5.000000e+01
5.000000e+01
5.000000e+01
5.000000e+01
5.000000e+01
5.000000e+01
5.000000e+01
5.000000e+01
5.000000e+01
5.000000e+01
5.000000e+01
5.000000e+01
5.000000e+01
5.000000e+01
5.000000e+01
6.250000e+01
6.250000e+01
6.250000e+01
6.250000e+01
6.250000e+01
6.250000e+01
6.250000e+01
6.250000e+01
6.250000e+01
6.250000e+01
6.250000e+01
6.250000e+01
6.250000e+01
6.250000e+01
6.250000e+01
6.250000e+01
6.250000e+01
7.500000e+01
7.500000e+01
7.500000e+01
7.500000e+01
7.500000e+01
7.500000e+01
7.500000e+01
7.500000e+01
7.500000e+01
7.500000e+01
7.500000e+01
7.500000e+01
7.500000e+01
7.500000e+01
7.500000e+01
7.500000e+01
7.500000e+01
8.750000e+01
8.750000e+01
8.750000e+01
8.750000e+01
8.750000e+01
8.750000e+01
8.750000e+01
8.750000e+01
8.750000e+01
8.750000e+01
8.750000e+01
8.750000e+01
8.750000e+01
8.750000e+01
8.750000e+01
8.750000e+01
8.750000e+01
1.000000e+02
1.000000e+02
1.000000e+02
1.000000e+02
1.000000e+02
1.000000e+02
1.000000e+02
1.000000e+02
1.000000e+02
1.000000e+02
1.000000e+02
1.000000e+02
1.000000e+02
1.000000e+02
1.000000e+02
1.000000e+02
1.000000e+02
0.000000e+00
-7.001927e-02
-1.289277e-01
-1.831311e-01
-2.336095e-01
-2.802566e-01
-3.229722e-01
-3.617232e-01
-3.965660e-01
-4.276611e-01
-4.553167e-01
-4.800734e-01
-5.028611e-01
-5.252860e-01
-5.501188e-01
-5.806165e-01
-6.035017e-01
0.000000e+00
-4.181428e-02
-8.686102e-02
-1.284588e-01
-1.667831e-01
-2.019797e-01
-2.341216e-01
-2.632518e-01
-2.894228e-01
-3.127152e-01
-3.332474e-01
-3.511672e-01
-3.665891e-01
-3.793542e-01
-3.883582e-01
-3.903317e-01
-3.974072e-01
0.000000e+00
-2.614946e-02
-5.376983e-02
-8.132523e-02
-1.070473e-01
-1.306638e-01
-1.521555e-01
-1.715467e-01
-1.888422e-01
-2.040133e-01
-2.169781e-01
-2.275557e-01
-2.353689e-01
-2.397304e-01
-2.398515e-01
-2.381091e-01
-2.453256e-01
0.000000e+00
-1.262135e-02
-2.598273e-02
-3.942849e-02
-5.228507e-02
-6.412677e-02
-7.486010e-02
-8.445380e-02
-9.285296e-02
-9.994829e-02
-1.055584e-01
-1.094186e-01
-1.112129e-01
-1.107937e-01
-1.090715e-01
-1.095425e-01
-1.149159e-01
0.000000e+00
-1.162659e-05
-2.643091e-05
-4.118660e-05
-4.901770e-05
-3.459109e-05
3.252752e-05
2.069487e-04
5.782685e-04
1.279945e-03
2.486094e-03
4.371627e-03
6.983809e-03
9.935705e-03
1.197478e-02
1.141553e-02
7.857847e-03
0.000000e+00
1.260346e-02
2.594120e-02
3.936206e-02
5.220244e-02
6.405956e-02
7.488617e-02
8.473522e-02
9.369212e-02
1.018607e-01
1.093479e-01
1.162088e-01
1.223246e-01
1.272287e-01
1.301135e-01
1.303423e-01
1.285366e-01
0.000000e+00
2.614653e-02
5.376088e-02
8.130742e-02
1.070195e-01
1.306292e-01
1.521268e-01
1.715560e-01
1.889572e-01
2.043612e-01
2.177814e-01
2.291852e-01
2.384412e-01
2.452845e-01
2.493920e-01
2.507258e-01
2.503047e-01
0.000000e+00
4.183143e-02
8.689832e-02
1.285183e-01
1.668629e-01
2.020651e-01
2.341695e-01
2.631642e-01
2.890050e-01
3.116174e-01
3.308940e-01
3.467016e-01
3.589137e-01
3.674900e-01
3.726059e-01
3.747875e-01
3.751882e-01
0.000000e+00
7.004796e-02
1.290034e-01
1.832728e-01
2.338359e-01
2.805751e-01
3.233521e-01
3.620427e-01
3.965174e-01
4.265971e-01
4.520210e-01
4.724501e-01
4.875489e-01
4.971986e-01
5.018654e-01
5.030173e-01
5.029951e-01
0.000000e+00
-4.238460e-02
-8.320588e-02
-1.361007e-01
-2.010182e-01
-2.778369e-01
-3.657155e-01
-4.636705e-01
-5.706603e-01
-6.856571e-01
-8.077115e-01
-9.360679e-01
-1.070417e+00
-1.211476e+00
-1.362903e+00
-1.536165e+00
-1.785110e+00
0.000000e+00
-2.609273e-02
-6.867603e-02
-1.222268e-01
-1.882053e-01
-2.660723e-01
-3.550155e-01
-4.540273e-01
-5.620541e-01
-6.780495e-01
-8.010377e-01
-9.302287e-01
-1.065265e+00
-1.206845e+00
-1.358214e+00
-1.530424e+00
-1.741399e+00
0.000000e+00
-1.968928e-02
-5.860321e-02
-1.123517e-01
-1.789539e-01
-2.576225e-01
-3.473832e-01
-4.472189e-01
-5.560830e-01
-6.729440e-01
-7.968453e-01
-9.270235e-01
-1.063155e+00
-1.205824e+00
-1.357323e+00
-1.520498e+00
-1.678417e+00
0.000000e+00
-1.696681e-02
-5.359506e-02
-1.065552e-01
-1.733983e-01
-2.525510e-01
-3.428714e-01
-4.433034e-01
-5.528202e-01
-6.704184e-01
-7.951618e-01
-9.262725e-01
-1.063273e+00
-1.206100e+00
-1.354568e+00
-1.504502e+00
-1.642627e+00
0.000000e+00
-1.618252e-02
-5.207935e-02
-1.047061e-01
-1.715674e-01
-2.509171e-01
-3.414972e-01
-4.422525e-01
-5.521758e-01
-6.702800e-01
-7.956082e-01
-9.272591e-01
-1.064382e+00
-1.205965e+00
-1.349890e+00
-1.491234e+00
-1.621446e+00
0.000000e+00
-1.695674e-02
-5.358789e-02
-1.065680e-01
-1.734609e-01
-2.527161e-01
-3.432244e-01
-4.439721e-01
-5.539731e-01
-6.722355e-01
-7.977404e-01
-9.293975e-01
-1.065933e+00
-1.205610e+00
-1.345745e+00
-1.482242e+00
-1.609676e+00
0.000000e+00
-1.967285e-02
-5.859133e-02
-1.123729e-01
-1.790595e-01
-2.579017e-01
-3.479818e-01
-4.483543e-01
-5.580431e-01
-6.760393e-01
-8.012553e-01
-9.324332e-01
-1.067993e+00
-1.205839e+00
-1.343257e+00
-1.477135e+00
-1.604484e+00
0.000000e+00
-2.607733e-02
-6.866569e-02
-1.222551e-01
-1.883321e-01
-2.664007e-01
-3.557123e-01
-4.553397e-01
-5.643058e-01
-6.815832e-01
-8.060396e-01
-9.363276e-01
-1.070732e+00
-1.207044e+00
-1.342634e+00
-1.475023e+00
-1.603265e+00
0.000000e+00
-4.237823e-02
-8.320677e-02
-1.361445e-01
-2.011652e-01
-2.781878e-01
-3.664285e-01
-4.649713e-01
-5.728291e-01
-6.889561e-01
-8.121931e-01
-9.411626e-01
-1.074138e+00
-1.208958e+00
-1.343164e+00
-1.474637e+00
-1.603284e+00


0.000000e+00
1.314908e-13
4.401223e-13
7.126242e-13
9.136376e-13
1.047304e-12
1.116664e-12
1.143883e-12
1.134844e-12
1.113422e-12
1.078678e-12
1.054759e-12
1.032512e-12
1.036701e-12
1.051259e-12
1.102998e-12
1.164348e-12
0.000000e+00
1.574488e-13
4.840910e-13
7.120222e-13
8.634531e-13
9.487864e-13
9.881191e-13
9.882500e-13
9.666806e-13
9.284467e-13
8.878852e-13
8.448774e-13
8.086653e-13
7.752451e-13
7.642195e-13
7.915469e-13
8.523714e-13
0.000000e+00
1.670995e-13
4.053039e-13
5.671849e-13
6.707997e-13
7.245934e-13
7.415598e-13
7.313216e-13
7.035424e-13
6.668466e-13
6.246070e-13
5.839004e-13
5.440494e-13
5.149729e-13
5.022071e-13
5.267503e-13
5.778924e-13
0.000000e+00
1.041803e-13
2.118680e-13
2.958499e-13
3.518010e-13
3.788320e-13
3.861622e-13
3.772708e-13
3.608277e-13
3.374254e-13
3.117194e-13
2.857957e-13
2.641870e-13
2.497778e-13
2.478822e-13
2.622577e-13
2.886552e-13
0.000000e+00
-2.623053e-16
-4.173387e-16
-1.105778e-16
-8.019243e-16
-1.607065e-15
-2.956638e-15
-4.929479e-15
-7.374498e-15
-1.046074e-14
-1.369006e-14
-1.680114e-14
-1.715906e-14
-1.406871e-14
-6.970652e-15
3.439311e-15
2.490614e-14
0.000000e+00
-1.026244e-13
-2.131551e-13
-2.983156e-13
-3.542506e-13
-3.829979e-13
-3.912377e-13
-3.852169e-13
-3.715424e-13
-3.522657e-13
-3.322898e-13
-3.108077e-13
-2.925463e-13
-2.746485e-13
-2.629862e-13
-2.525920e-13
-2.462062e-13
0.000000e+00
-1.681155e-13
-4.066109e-13
-5.675935e-13
-6.714292e-13
-7.261238e-13
-7.430726e-13
-7.341536e-13
-7.073649e-13
-6.724482e-13
-6.316144e-13
-5.942574e-13
-5.585663e-13
-5.330678e-13
-5.127766e-13
-5.029005e-13
-4.892363e-13
0.000000e+00
-1.569536e-13
-4.847619e-13
-7.145284e-13
-8.652872e-13
-9.513428e-13
-9.895505e-13
-9.886691e-13
-9.652000e-13
-9.247296e-13
-8.814065e-13
-8.358704e-13
-7.997822e-13
-7.695538e-13
-7.531501e-13
-7.420118e-13
-7.407749e-13
0.000000e+00
-1.318759e-13
-4.417894e-13
-7.117346e-13
-9.144872e-13
-1.045171e-12
-1.115810e-12
-1.138248e-12
-1.128783e-12
-1.100452e-12
-1.062657e-12
-1.028614e-12
-9.988585e-13
-9.831056e-13
-9.745502e-13
-9.748377e-13
-9.734393e-13
0.000000e+00
2.993498e-13
4.625080e-13
5.406750e-13
6.355170e-13
7.625443e-13
9.085446e-13
1.080822e-12
1.248681e-12
1.435295e-12
1.606421e-12
1.804926e-12
1.992853e-12
2.236202e-12
2.525943e-12
2.944519e-12
3.363867e-12
0.000000e+00
1.148540e-13
2.431802e-13
3.544640e-13
4.921569e-13
6.571376e-13
8.427352e-13
1.034154e-12
1.230570e-12
1.419368e-12
1.612297e-12
1.799943e-12
2.003956e-12
2.222423e-12
2.499661e-12
2.852835e-12
3.271099e-12
0.000000e+00
-2.822739e-14
5.827001e-14
2.004818e-13
3.746950e-13
5.768027e-13
7.878776e-13
1.005008e-12
1.212109e-12
1.419479e-12
1.612680e-12
1.813325e-12
2.007823e-12
2.229253e-12
2.459553e-12
2.778843e-12
3.148230e-12
0.000000e+00
-8.945969e-14
-3.008108e-14
1.241914e-13
3.197944e-13
5.404287e-13
7.698965e-13
9.940059e-13
1.215074e-12
1.420829e-12
1.626091e-12
1.818215e-12
2.021684e-12
2.220811e-12
2.446429e-12
2.712476e-12
3.057454e-12
0.000000e+00
-1.049277e-13
-5.214096e-14
1.010451e-13
3.031314e-13
5.318157e-13
7.629432e-13
9.951794e-13
1.213702e-12
1.428144e-12
1.626126e-12
1.827872e-12
2.018161e-12
2.224507e-12
2.428367e-12
2.686916e-12
2.974532e-12
0.000000e+00
-8.949198e-14
-3.030968e-14
1.241195e-13
3.198119e-13
5.405915e-13
7.701160e-13
9.951306e-13
1.217025e-12
1.423506e-12
1.629329e-12
1.820239e-12
2.020286e-12
2.212627e-12
2.429444e-12
2.658162e-12
2.932946e-12
0.000000e+00
-2.840853e-14
5.760364e-14
2.001586e-13
3.730243e-13
5.775315e-13
7.890293e-13
1.007994e-12
1.216268e-12
1.425535e-12
1.620263e-12
1.818784e-12
2.006421e-12
2.212045e-12
2.415340e-12
2.651793e-12
2.889005e-12
0.000000e+00
1.158408e-13
2.430772e-13
3.556796e-13
4.920691e-13
6.577881e-13
8.447670e-13
1.036905e-12
1.235583e-12
1.425239e-12
1.621924e-12
1.805775e-12
2.003880e-12
2.195562e-12
2.414653e-12
2.631333e-12
2.880262e-12
0.000000e+00
3.003666e-13
4.625210e-13
5.417464e-13
6.363873e-13
7.620986e-13
9.137949e-13
1.081148e-12
1.257305e-12
1.436519e-12
1.619692e-12
1.803724e-12
1.994844e-12
2.192918e-12
2.405899e-12
2.631384e-12
2.867914e-12


2.045904e-01
2.045904e-01
2.045904e-01
2.045904e-01
2.045904e-01
2.045904e-01
2.045904e-01
2.045904e-01
2.045904e-01
2.045904e-01
2.045904e-01
2.045904e-01
2.045904e-01
2.045904e-01
2.045904e-01
2.045904e-01
2.045904e-01
2.045904e-01
2.045904e-01
2.045904e-01
2.045904e-01
2.045904e-01
2.045904e-01
2.045904e-01
2.045904e-01
2.045904e-01
2.045904e-01
2.045904e-01
2.045904e-01
2.045904e-01
2.045904e-01
2.045904e-01
2.045904e-01
2.045904e-01
2.045904e-01
2.045904e-01
2.045904e-01
2.045904e-01
2.045904e-01
2.045904e-01
2.045904e-01
2.045904e-01
2.045904e-01
2.045904e-01
2.045904e-01
2.045904e-01
2.045904e-01
2.045904e-01
2.045904e-01
2.045904e-01
2.045904e-01
2.045904e-01
2.045904e-01
2.045904e-01
2.045904e-01
2.045904e-01
2.045904e-01
2.045904e-01
2.045904e-01
2.045904e-01
2.045904e-01
2.045904e-01
2.045904e-01
2.045904e-01
2.045904e-01
2.045904e-01
2.045904e-01
2.045904e-01
2.045904e-01
2.045904e-01
2.045904e-01
2.045904e-01
2.045904e-01
2.045904e-01
2.045904e-01
2.045904e-01
2.045904e-01
2.045904e-01
2.045904e-01
2.045904e-01
2.045904e-01
2.045904e-01
2.045904e-01
2.045904e-01
2.045904e-01
2.045904e-01
2.045904e-01
2.045904e-01
2.045904e-01
2.045904e-01
2.045904e-01
2.045904e-01
2.045904e-01
2.045904e-01
2.045904e-01
2.045904e-01
2.045904e-01
2.045904e-01
2.045904e-01
2.045904e-01
2.045904e-01
2.045904e-01
2.045904e-01
2.045904e-01
2.045904e-01
2.045904e-01
2.045904e-01
2.045904e-01
2.045904e-01
2.045904e-01
2.045904e-01
2.045904e-01
2.045904e-01
2.045904e-01
2.045904e-01
2.045904e-01
2.045904e-01
2.045904e-01
2.045904e-01
2.045904e-01
2.045904e-01
2.045904e-01
2.045904e-01
2.045904e-01
2.045904e-01
2.045904e-01
2.045904e-01
2.045904e-01


9.889698e-01
9.905339e-01
9.919809e-01
9.930948e-01
9.941287e-01
9.950821e-01
9.959506e-01
9.967242e-01
9.973947e-01
9.979555e-01
9.984014e-01
9.987281e-01
9.989311e-01
9.990036e-01
9.990558e-01
9.958323e-01
9.958270e-01
9.951103e-01
9.955714e-01
9.961733e-01
9.967345e-01
9.972445e-01
9.977062e-01
9.981244e-01
9.985030e-01
9.988460e-01
9.991572e-01
9.994390e-01
9.996848e-01
9.998458e-01
9.994387e-01
9.939207e-01
9.985501e-01
9.981384e-01
9.980273e-01
9.981836e-01
9.983893e-01
9.985885e-01
9.987734e-01
9.989482e-01
9.991174e-01
9.992825e-01
9.994366e-01
9.995560e-01
9.995809e-01
9.993660e-01
9.985863e-01
9.971840e-01
9.997049e-01
9.994047e-01
9.992192e-01
9.991721e-01
9.991909e-01
9.992224e-01
9.992539e-01
9.992847e-01
9.993149e-01
9.993402e-01
9.993472e-01
9.993096e-01
9.991904e-01
9.989764e-01
9.987950e-01
9.987490e-01
9.997060e-01
9.994062e-01
9.992206e-01
9.991718e-01
9.991862e-01
9.992090e-01
9.992248e-01
9.992301e-01
9.992228e-01
9.991996e-01
9.991563e-01
9.990939e-01
9.990345e-01
9.990463e-01
9.992142e-01
9.995049e-01
9.985522e-01
9.981415e-01
9.980303e-01
9.981836e-01
9.983813e-01
9.985638e-01
9.987183e-01
9.988424e-01
9.989354e-01
9.989980e-01
9.990376e-01
9.990763e-01
9.991576e-01
9.993280e-01
9.995840e-01
9.998487e-01
9.958266e-01
9.951100e-01
9.955708e-01
9.961716e-01
9.967301e-01
9.972345e-01
9.976854e-01
9.980847e-01
9.984326e-01
9.987300e-01
9.989818e-01
9.992017e-01
9.994134e-01
9.996354e-01
9.998430e-01
9.999737e-01
9.889622e-01
9.905221e-01
9.919665e-01
9.930786e-01
9.941141e-01
9.950768e-01
9.959686e-01
9.967875e-01
9.975336e-01
9.982055e-01
9.987952e-01
9.992845e-01
9.996484e-01
9.998730e-01
9.999751e-01
9.999995e-01
1 2 19 18
2 3 20 19
3 4 21 20
4 5 22 21
5 6 23 22
6 7 24 23
7 8 25 24
8 9 26 25
9 10 27 26
10 11 28 27
11 12 29 28
12 13 30 29
13 14 31 30
14 15 32 31
15 16 33 32
16 17 34 33
18 19 36 35
19 20 37 36
20 21 38 37
21 22 39 38
22 23 40 39
23 24 41 40
24 25 42 41
25 26 43 42
26 27 44 43
27 28 45 44
28 29 46 45
29 30 47 46
30 31 48 47
31 32 49 48
32 33 50 49
33 34 51 50
35 36 53 52
36 37 54 53
37 38 55 54
38 39 56 55
39 40 57 56
40 41 58 57
41 42 59 58
42 43 60 59
43 44 61 60
44 45 62 61
45 46 63 62
46 47 64 63
47 48 65 64
48 49 66 65
49 50 67 66
50 51 68 67
52 53 70 69
53 54 71 70
54 55 72 71
55 56 73 72
56 57 74 73
57 58 75 74
58 59 76 75
59 60 77 76
60 61 78 77
61 62 79 78
62 63 80 79
63 64 81 80
64 65 82 81
65 66 83 82
66 67 84 83
67 68 85 84
69 70 87 86
70 71 88 87
71 72 89 88
72 73 90 89
73 74 91 90
74 75 92 91
75 76 93 92
76 77 94 93
77 78 95 94
78 79 96 95
79 80 97 96
80 81 98 97
81 82 99 98
82 83 100 99
83 84 101 100
84 85 102 101
86 87 104 103
87 88 105 104
88 89 106 105
89 90 107 106
90 91 108 107
91 92 109 108
92 93 110 109
93 94 111 110
94 95 112 111
95 96 113 112
96 97 114 113
97 98 115 114
98 99 116 115
99 100 117 116
100 101 118 117
101 102 119 118
103 104 121 120
104 105 122 121
105 106 123 122
106 107 124 123
107 108 125 124
108 109 126 125
109 110 127 126
110 111 128 127
111 112 129 128
112 113 130 129
113 114 131 130
114 115 132 131
115 116 133 132
116 117 134 133
117 118 135 134
118 119 136 135
120 121 138 137
121 122 139 138
122 123 140 139
123 124 141 140
124 125 142 141
125 126 143 142
126 127 144 143
127 128 145 144
128 129 146 145
129 130 147 146
130 131 148 147
131 132 149 148
132 133 150 149
133 134 151 150
134 135 152 151
135 136 153 152
