TITLE = "Solution"
VARIABLES = x, y, u, v, psiu, psiv, t, stress
ZONE T="structure" N=153 E=128 F=FEBLOCK ET=QUADRILATERAL VARLOCATION=([7,8]=cellcentered)
0.000000e+00
1.250000e+01
2.500000e+01
3.750000e+01
5.000000e+01
6.250000e+01
7.500000e+01
8.750000e+01
1.000000e+02
1.125000e+02
1.250000e+02
1.375000e+02
1.500000e+02
1.625000e+02
1.750000e+02
1.875000e+02
2.000000e+02
0.000000e+00
1.250000e+01
2.500000e+01
3.750000e+01
5.000000e+01
6.250000e+01
7.500000e+01
8.750000e+01
1.000000e+02
1.125000e+02
1.250000e+02
1.375000e+02
1.500000e+02
1.625000e+02
1.750000e+02
1.875000e+02
2.000000e+02
0.000000e+00
1.250000e+01
2.500000e+01
3.750000e+01
5.000000e+01
6.250000e+01
7.500000e+01
8.750000e+01
1.000000e+02
1.125000e+02
1.250000e+02
1.375000e+02
1.500000e+02
1.625000e+02
1.750000e+02
1.875000e+02
2.000000e+02
0.000000e+00
1.250000e+01
2.500000e+01
3.750000e+01
5.000000e+01
6.250000e+01
7.500000e+01
8.750000e+01
1.000000e+02
1.125000e+02
1.250000e+02
1.375000e+02
1.500000e+02
1.625000e+02
1.750000e+02
1.875000e+02
2.000000e+02
0.000000e+00
1.250000e+01
2.500000e+01
3.750000e+01
5.000000e+01
6.250000e+01
7.500000e+01
8.750000e+01
1.000000e+02
1.125000e+02
1.250000e+02
1.375000e+02
1.500000e+02
1.625000e+02
1.750000e+02
1.875000e+02
2.000000e+02
0.000000e+00
1.250000e+01
2.500000e+01
3.750000e+01
5.000000e+01
6.250000e+01
7.500000e+01
8.750000e+01
1.000000e+02
1.125000e+02
1.250000e+02
1.375000e+02
1.500000e+02
1.625000e+02
1.750000e+02
1.875000e+02
2.000000e+02
0.000000e+00
1.250000e+01
2.500000e+01
3.750000e+01
5.000000e+01
6.250000e+01
7.500000e+01
8.750000e+01
1.000000e+02
1.125000e+02
1.250000e+02
1.375000e+02
1.500000e+02
1.625000e+02
1.750000e+02
1.875000e+02
2.000000e+02
0.000000e+00
1.250000e+01
2.500000e+01
3.750000e+01
5.000000e+01
6.250000e+01
7.500000e+01
8.750000e+01
1.000000e+02
1.125000e+02
1.250000e+02
1.375000e+02
1.500000e+02
1.625000e+02
1.750000e+02
1.875000e+02
2.000000e+02
0.000000e+00
1.250000e+01
2.500000e+01
3.750000e+01
5.000000e+01
6.250000e+01
7.500000e+01
8.750000e+01
1.000000e+02
1.125000e+02
1.250000e+02
1.375000e+02
1.500000e+02
1.625000e+02
1.750000e+02
1.875000e+02
2.000000e+02
0.000000e+00
0.000000e+00
0.000000e+00
0.000000e+00
0.000000e+00
0.000000e+00
0.000000e+00
0.000000e+00
0.000000e+00
0.000000e+00
0.000000e+00
0.000000e+00
0.000000e+00
0.000000e+00
0.000000e+00
0.000000e+00
0.000000e+00
1.250000e+01
1.250000e+01
1.250000e+01
1.250000e+01
1.250000e+01
1.250000e+01
1.250000e+01
1.250000e+01
1.250000e+01
1.250000e+01
1.250000e+01
1.250000e+01
1.250000e+01
1.250000e+01
1.250000e+01
1.250000e+01
1.250000e+01
2.500000e+01
2.500000e+01
2.500000e+01
2.500000e+01
2.500000e+01
2.500000e+01
2.500000e+01
2.500000e+01
2.500000e+01
2.500000e+01
2.500000e+01
2.500000e+01
2.500000e+01
2.500000e+01
2.500000e+01
2.500000e+01
2.500000e+01
3.750000e+01
3.750000e+01
3.750000e+01
3.750000e+01
3.750000e+01
3.750000e+01
3.750000e+01
3.750000e+01
3.750000e+01
3.750000e+01
3.750000e+01
3.750000e+01
3.750000e+01
3.750000e+01
3.750000e+01
3.750000e+01
3.750000e+01
5.000000e+01
5.000000e+01
5.000000e+01
5.000000e+01
5.000000e+01
5.000000e+01
5.000000e+01
5.000000e+01
5.000000e+01
5.000000e+01
5.000000e+01
5.000000e+01
5.000000e+01
5.000000e+01
5.000000e+01
5.000000e+01
5.000000e+01
6.250000e+01
6.250000e+01
6.250000e+01
6.250000e+01
6.250000e+01
6.250000e+01
6.250000e+01
6.250000e+01
6.250000e+01
6.250000e+01
6.250000e+01
6.250000e+01
6.250000e+01
6.250000e+01
6.250000e+01
6.250000e+01
6.250000e+01
7.500000e+01
7.500000e+01
7.500000e+01
7.500000e+01
7.500000e+01
7.500000e+01
7.500000e+01
7.500000e+01
7.500000e+01
7.500000e+01
7.500000e+01
7.500000e+01
7.500000e+01
7.500000e+01
7.500000e+01
7.500000e+01
7.500000e+01
8.750000e+01
8.750000e+01
8.750000e+01
8.750000e+01
8.750000e+01
8.750000e+01
8.750000e+01
8.750000e+01
8.750000e+01
8.750000e+01
8.750000e+01
8.750000e+01
8.750000e+01
8.750000e+01
8.750000e+01
8.750000e+01
8.750000e+01
1.000000e+02
1.000000e+02
1.000000e+02
1.000000e+02
1.000000e+02
1.000000e+02
1.000000e+02
1.000000e+02
1.000000e+02
1.000000e+02
1.000000e+02
1.000000e+02
1.000000e+02
1.000000e+02
1.000000e+02
1.000000e+02
1.000000e+02
0.000000e+00
-7.916161e-02
-1.457616e-01
-2.070423e-01
-2.641116e-01
-3.168494e-01
-3.651423e-01
-4.089530e-01
-4.483452e-01
-4.835004e-01
-5.147670e-01
-5.427562e-01
-5.685192e-01
-5.938721e-01
-6.219473e-01
-6.564271e-01
-6.823004e-01
0.000000e+00
-4.727392e-02
-9.820236e-02
-1.452315e-01
-1.885598e-01
-2.283520e-01
-2.646906e-01
-2.976243e-01
-3.272124e-01
-3.535461e-01
-3.767592e-01
-3.970188e-01
-4.144543e-01
-4.288862e-01
-4.390658e-01
-4.412969e-01
-4.492963e-01
0.000000e+00
-2.956376e-02
-6.079049e-02
-9.194376e-02
-1.210244e-01
-1.477244e-01
-1.720223e-01
-1.939454e-01
-2.134992e-01
-2.306511e-01
-2.453087e-01
-2.572674e-01
-2.661008e-01
-2.710318e-01
-2.711687e-01
-2.691988e-01
-2.773576e-01
0.000000e+00
-1.426930e-02
-2.937527e-02
-4.457663e-02
-5.911187e-02
-7.249973e-02
-8.463450e-02
-9.548084e-02
-1.049767e-01
-1.129984e-01
-1.193411e-01
-1.237053e-01
-1.257338e-01
-1.252599e-01
-1.233129e-01
-1.238453e-01
-1.299203e-01
0.000000e+00
-1.314468e-05
-2.988199e-05
-4.656434e-05
-5.541795e-05
-3.910767e-05
3.677456e-05
2.339698e-04
6.537725e-04
1.447067e-03
2.810701e-03
4.942428e-03
7.895681e-03
1.123300e-02
1.353832e-02
1.290605e-02
8.883842e-03
0.000000e+00
1.424908e-02
2.932831e-02
4.450152e-02
5.901845e-02
7.242374e-02
8.466397e-02
9.579901e-02
1.059254e-01
1.151606e-01
1.236253e-01
1.313821e-01
1.382964e-01
1.438408e-01
1.471023e-01
1.473610e-01
1.453195e-01
0.000000e+00
2.956044e-02
6.078037e-02
9.192363e-02
1.209929e-01
1.476853e-01
1.719898e-01
1.939559e-01
2.136291e-01
2.310444e-01
2.462169e-01
2.591096e-01
2.695743e-01
2.773111e-01
2.819549e-01
2.834628e-01
2.829867e-01
0.000000e+00
4.729331e-02
9.824453e-02
1.452988e-01
1.886500e-01
2.284485e-01
2.647448e-01
2.975252e-01
3.267401e-01
3.523049e-01
3.740985e-01
3.919701e-01
4.057767e-01
4.154728e-01
4.212567e-01
4.237232e-01
4.241762e-01
0.000000e+00
7.919404e-02
1.458472e-01
2.072025e-01
2.643676e-01
3.172095e-01
3.655719e-01
4.093142e-01
4.482903e-01
4.822975e-01
5.110409e-01
5.341375e-01
5.512077e-01
5.621174e-01
5.673935e-01
5.686958e-01
5.686706e-01
0.000000e+00
-4.791870e-02
-9.406997e-02
-1.538713e-01
-2.272650e-01
-3.141138e-01
-4.134666e-01
-5.242115e-01
-6.451708e-01
-7.751826e-01
-9.131736e-01
-1.058289e+00
-1.210180e+00
-1.369657e+00
-1.540856e+00
-1.736740e+00
-2.018190e+00
0.000000e+00
-2.949963e-02
-7.764298e-02
-1.381858e-01
-2.127791e-01
-3.008131e-01
-4.013695e-01
-5.133092e-01
-6.354409e-01
-7.665817e-01
-9.056284e-01
-1.051688e+00
-1.204355e+00
-1.364421e+00
-1.535554e+00
-1.730249e+00
-1.968771e+00
0.000000e+00
-2.226008e-02
-6.625497e-02
-1.270213e-01
-2.023198e-01
-2.912599e-01
-3.927407e-01
-5.056118e-01
-6.286901e-01
-7.608097e-01
-9.008886e-01
-1.048064e+00
-1.201970e+00
-1.363267e+00
-1.534547e+00
-1.719028e+00
-1.897566e+00
0.000000e+00
-1.918215e-02
-6.059290e-02
-1.204680e-01
-1.960387e-01
-2.855263e-01
-3.876397e-01
-5.011850e-01
-6.250014e-01
-7.579543e-01
-8.989853e-01
-1.047215e+00
-1.202104e+00
-1.363579e+00
-1.531432e+00
-1.700944e+00
-1.857103e+00
0.000000e+00
-1.829546e-02
-5.887930e-02
-1.183775e-01
-1.939687e-01
-2.836791e-01
-3.860861e-01
-4.999969e-01
-6.242728e-01
-7.577978e-01
-8.994899e-01
-1.048330e+00
-1.203357e+00
-1.363427e+00
-1.526144e+00
-1.685943e+00
-1.833157e+00
0.000000e+00
-1.917076e-02
-6.058480e-02
-1.204824e-01
-1.961095e-01
-2.857129e-01
-3.880389e-01
-5.019410e-01
-6.263048e-01
-7.600086e-01
-9.019005e-01
-1.050748e+00
-1.205111e+00
-1.363026e+00
-1.521458e+00
-1.675777e+00
-1.819849e+00
0.000000e+00
-2.224151e-02
-6.624154e-02
-1.270453e-01
-2.024391e-01
-2.915756e-01
-3.934174e-01
-5.068954e-01
-6.309062e-01
-7.643091e-01
-9.058744e-01
-1.054180e+00
-1.207439e+00
-1.363284e+00
-1.518645e+00
-1.670003e+00
-1.813980e+00
0.000000e+00
-2.948222e-02
-7.763129e-02
-1.382178e-01
-2.129224e-01
-3.011843e-01
-4.021573e-01
-5.147929e-01
-6.379866e-01
-7.705768e-01
-9.112834e-01
-1.058583e+00
-1.210536e+00
-1.364646e+00
-1.517941e+00
-1.667616e+00
-1.812602e+00
0.000000e+00
-4.791151e-02
-9.407098e-02
-1.539207e-01
-2.274311e-01
-3.145105e-01
-4.142727e-01
-5.256822e-01
-6.476227e-01
-7.789124e-01
-9.182403e-01
-1.064049e+00
-1.214387e+00
-1.366811e+00
-1.518539e+00
-1.667179e+00
-1.812623e+00


0.000000e+00
7.220413e-10
1.493123e-09
2.175931e-09
2.752355e-09
3.220466e-09
3.588879e-09
3.871344e-09
4.082481e-09
4.236346e-09
4.345847e-09
4.422606e-09
4.477253e-09
4.519662e-09
4.559123e-09
4.607867e-09
4.666413e-09
0.000000e+00
4.912035e-10
1.157333e-09
1.699821e-09
2.134688e-09
2.478158e-09
2.743169e-09
2.942877e-09
3.089460e-09
3.193776e-09
3.265245e-09
3.311676e-09
3.338964e-09
3.352388e-09
3.366000e-09
3.405860e-09
3.466141e-09
0.000000e+00
3.656745e-10
8.037574e-10
1.169709e-09
1.463626e-09
1.690461e-09
1.861139e-09
1.986535e-09
2.075925e-09
2.136980e-09
2.175993e-09
2.198118e-09
2.207961e-09
2.211773e-09
2.221371e-09
2.252644e-09
2.301459e-09
0.000000e+00
1.957069e-10
4.008540e-10
5.839015e-10
7.335863e-10
8.479706e-10
9.324123e-10
9.930135e-10
1.034832e-09
1.061900e-09
1.077594e-09
1.085112e-09
1.088165e-09
1.091521e-09
1.099975e-09
1.118980e-09
1.149018e-09
0.000000e+00
-2.133510e-13
-5.011867e-13
-9.013299e-13
-1.477599e-12
-2.315985e-12
-3.528383e-12
-5.243335e-12
-7.571584e-12
-1.051954e-11
-1.382790e-11
-1.673519e-11
-1.786686e-11
-1.587280e-11
-1.067406e-11
-1.512849e-12
1.413852e-11
0.000000e+00
-1.960731e-10
-4.017015e-10
-5.854209e-10
-7.360461e-10
-8.517574e-10
-9.380668e-10
-1.001260e-09
-1.046582e-09
-1.078165e-09
-1.099215e-09
-1.112150e-09
-1.118814e-09
-1.121022e-09
-1.120908e-09
-1.118644e-09
-1.111956e-09
0.000000e+00
-3.658624e-10
-8.042744e-10
-1.170667e-09
-1.465152e-09
-1.692695e-09
-1.864219e-09
-1.990604e-09
-2.081156e-09
-2.143672e-09
-2.184748e-09
-2.210058e-09
-2.224496e-09
-2.232232e-09
-2.236387e-09
-2.237808e-09
-2.235926e-09
0.000000e+00
-4.912693e-10
-1.157659e-09
-1.700399e-09
-2.135494e-09
-2.479107e-09
-2.744051e-09
-2.943311e-09
-3.088899e-09
-3.191605e-09
-3.261054e-09
-3.305753e-09
-3.333038e-09
-3.348883e-09
-3.357610e-09
-3.361583e-09
-3.362138e-09
0.000000e+00
-7.223568e-10
-1.493639e-09
-2.176506e-09
-2.752817e-09
-3.220509e-09
-3.588016e-09
-3.868864e-09
-4.077435e-09
-4.227564e-09
-4.331908e-09
-4.401614e-09
-4.446048e-09
-4.472600e-09
-4.486616e-09
-4.491980e-09
-4.492908e-09
0.000000e+00
6.561415e-10
1.179104e-09
1.727752e-09
2.386250e-09
3.161275e-09
4.037103e-09
4.993257e-09
6.010094e-09
7.071410e-09
8.164770e-09
9.281652e-09
1.041860e-08
1.158304e-08
1.280627e-08
1.410441e-08
1.541920e-08
0.000000e+00
3.528317e-10
8.639093e-10
1.449623e-09
2.158172e-09
2.981399e-09
3.899576e-09
4.890801e-09
5.935907e-09
7.019379e-09
8.129574e-09
9.258735e-09
1.040366e-08
1.156784e-08
1.276628e-08
1.402831e-08
1.532182e-08
0.000000e+00
1.740843e-10
6.165449e-10
1.232387e-09
1.981910e-09
2.844839e-09
3.796704e-09
4.815352e-09
5.882314e-09
6.982925e-09
8.106277e-09
9.245142e-09
1.039571e-08
1.155592e-08
1.272717e-08
1.394748e-08
1.520632e-08
0.000000e+00
9.918598e-11
4.998483e-10
1.118535e-09
1.889401e-09
2.774170e-09
3.744360e-09
4.777629e-09
5.856159e-09
6.965889e-09
8.096254e-09
9.239868e-09
1.039162e-08
1.154639e-08
1.270290e-08
1.389005e-08
1.510526e-08
0.000000e+00
8.018127e-11
4.680420e-10
1.084067e-09
1.860957e-09
2.752652e-09
3.728724e-09
4.766724e-09
5.849090e-09
6.961941e-09
8.094622e-09
9.239268e-09
1.038990e-08
1.154124e-08
1.269150e-08
1.385723e-08
1.503334e-08
0.000000e+00
9.932002e-11
5.000342e-10
1.118787e-09
1.889757e-09
2.774738e-09
3.745323e-09
4.779254e-09
5.858725e-09
6.969531e-09
8.100618e-09
9.243586e-09
1.039205e-08
1.154113e-08
1.268891e-08
1.384139e-08
1.499194e-08
0.000000e+00
1.742960e-10
6.168804e-10
1.232883e-09
1.982644e-09
2.846017e-09
3.798671e-09
4.818592e-09
5.887350e-09
6.990054e-09
8.115018e-09
9.253263e-09
1.039801e-08
1.154438e-08
1.268973e-08
1.383439e-08
1.497261e-08
0.000000e+00
3.531284e-10
8.644646e-10
1.450445e-09
2.159361e-09
2.983194e-09
3.902361e-09
4.895105e-09
5.942294e-09
7.028193e-09
8.140362e-09
9.269156e-09
1.040724e-08
1.154922e-08
1.269152e-08
1.383172e-08
1.496615e-08
0.000000e+00
6.566149e-10
1.179918e-09
1.728895e-09
2.387810e-09
3.163432e-09
4.040160e-09
4.997610e-09
6.016163e-09
7.079405e-09
8.174175e-09
9.290130e-09
1.041924e-08
1.155539e-08
1.269405e-08
1.383154e-08
1.496517e-08


2.313035e-01
2.313035e-01
2.313035e-01
2.313035e-01
2.313035e-01
2.313036e-01
2.313036e-01
2.313036e-01
2.313036e-01
2.313036e-01
2.313036e-01
2.313036e-01
2.313036e-01
2.313036e-01
2.313036e-01
2.313036e-01
2.313035e-01
2.313035e-01
2.313035e-01
2.313035e-01
2.313035e-01
2.313036e-01
2.313036e-01
2.313036e-01
2.313036e-01
2.313036e-01
2.313036e-01
2.313036e-01
2.313036e-01
2.313036e-01
2.313036e-01
2.313036e-01
2.313035e-01
2.313035e-01
2.313035e-01
2.313036e-01
2.313036e-01
2.313036e-01
2.313036e-01
2.313036e-01
2.313036e-01
2.313036e-01
2.313036e-01
2.313036e-01
2.313036e-01
2.313036e-01
2.313036e-01
2.313036e-01
2.313036e-01
2.313036e-01
2.313036e-01
2.313036e-01
2.313036e-01
2.313036e-01
2.313036e-01
2.313036e-01
2.313036e-01
2.313036e-01
2.313036e-01
2.313036e-01
2.313036e-01
2.313036e-01
2.313036e-01
2.313036e-01
2.313036e-01
2.313036e-01
2.313036e-01
2.313036e-01
2.313036e-01
2.313036e-01
2.313036e-01
2.313036e-01
2.313036e-01
2.313036e-01
2.313036e-01
2.313036e-01
2.313036e-01
2.313036e-01
2.313036e-01
2.313036e-01
2.313035e-01
2.313035e-01
2.313035e-01
2.313036e-01
2.313036e-01
2.313036e-01
2.313036e-01
2.313036e-01
2.313036e-01
2.313036e-01
2.313036e-01
2.313036e-01
2.313036e-01
2.313036e-01
2.313036e-01
2.313036e-01
2.313035e-01
2.313035e-01
2.313035e-01
2.313035e-01
2.313035e-01
2.313036e-01
2.313036e-01
2.313036e-01
2.313036e-01
2.313036e-01
2.313036e-01
2.313036e-01
2.313036e-01
2.313036e-01
2.313036e-01
2.313036e-01
2.313035e-01
2.313035e-01
2.313035e-01
2.313035e-01
2.313035e-01
2.313036e-01
2.313036e-01
2.313036e-01
2.313036e-01
2.313036e-01
2.313036e-01
2.313036e-01
2.313036e-01
2.313036e-01
2.313036e-01
2.313036e-01


9.859013e-01
9.879006e-01
9.897501e-01
9.911738e-01
9.924954e-01
9.937140e-01
9.948242e-01
9.958130e-01
9.966700e-01
9.973868e-01
9.979567e-01
9.983742e-01
9.986338e-01
9.987264e-01
9.987932e-01
9.946729e-01
9.946662e-01
9.937500e-01
9.943395e-01
9.951088e-01
9.958261e-01
9.964780e-01
9.970681e-01
9.976026e-01
9.980866e-01
9.985250e-01
9.989228e-01
9.992829e-01
9.995972e-01
9.998029e-01
9.992826e-01
9.922295e-01
9.981467e-01
9.976205e-01
9.974785e-01
9.976783e-01
9.979412e-01
9.981958e-01
9.984322e-01
9.986556e-01
9.988719e-01
9.990829e-01
9.992799e-01
9.994325e-01
9.994643e-01
9.991896e-01
9.981930e-01
9.964006e-01
9.996228e-01
9.992390e-01
9.990020e-01
9.989418e-01
9.989658e-01
9.990061e-01
9.990464e-01
9.990857e-01
9.991243e-01
9.991566e-01
9.991656e-01
9.991176e-01
9.989652e-01
9.986917e-01
9.984598e-01
9.984010e-01
9.996242e-01
9.992410e-01
9.990037e-01
9.989414e-01
9.989599e-01
9.989889e-01
9.990091e-01
9.990159e-01
9.990066e-01
9.989769e-01
9.989216e-01
9.988418e-01
9.987659e-01
9.987810e-01
9.989956e-01
9.993672e-01
9.981494e-01
9.976245e-01
9.974823e-01
9.976783e-01
9.979310e-01
9.981643e-01
9.983617e-01
9.985204e-01
9.986392e-01
9.987192e-01
9.987698e-01
9.988193e-01
9.989232e-01
9.991410e-01
9.994683e-01
9.998066e-01
9.946657e-01
9.937496e-01
9.943387e-01
9.951066e-01
9.958205e-01
9.964652e-01
9.970415e-01
9.975519e-01
9.979966e-01
9.983767e-01
9.986985e-01
9.989796e-01
9.992502e-01
9.995340e-01
9.997993e-01
9.999664e-01
9.858917e-01
9.878855e-01
9.897316e-01
9.911531e-01
9.924768e-01
9.937072e-01
9.948471e-01
9.958938e-01
9.968474e-01
9.977063e-01
9.984601e-01
9.990854e-01
9.995506e-01
9.998376e-01
9.999682e-01
9.999993e-01
1 2 19 18
2 3 20 19
3 4 21 20
4 5 22 21
5 6 23 22
6 7 24 23
7 8 25 24
8 9 26 25
9 10 27 26
10 11 28 27
11 12 29 28
12 13 30 29
13 14 31 30
14 15 32 31
15 16 33 32
16 17 34 33
18 19 36 35
19 20 37 36
20 21 38 37
21 22 39 38
22 23 40 39
23 24 41 40
24 25 42 41
25 26 43 42
26 27 44 43
27 28 45 44
28 29 46 45
29 30 47 46
30 31 48 47
31 32 49 48
32 33 50 49
33 34 51 50
35 36 53 52
36 37 54 53
37 38 55 54
38 39 56 55
39 40 57 56
40 41 58 57
41 42 59 58
42 43 60 59
43 44 61 60
44 45 62 61
45 46 63 62
46 47 64 63
47 48 65 64
48 49 66 65
49 50 67 66
50 51 68 67
52 53 70 69
53 54 71 70
54 55 72 71
55 56 73 72
56 57 74 73
57 58 75 74
58 59 76 75
59 60 77 76
60 61 78 77
61 62 79 78
62 63 80 79
63 64 81 80
64 65 82 81
65 66 83 82
66 67 84 83
67 68 85 84
69 70 87 86
70 71 88 87
71 72 89 88
72 73 90 89
73 74 91 90
74 75 92 91
75 76 93 92
76 77 94 93
77 78 95 94
78 79 96 95
79 80 97 96
80 81 98 97
81 82 99 98
82 83 100 99
83 84 101 100
84 85 102 101
86 87 104 103
87 88 105 104
88 89 106 105
89 90 107 106
90 91 108 107
91 92 109 108
92 93 110 109
93 94 111 110
94 95 112 111
95 96 113 112
96 97 114 113
97 98 115 114
98 99 116 115
99 100 117 116
100 101 118 117
101 102 119 118
103 104 121 120
104 105 122 121
105 106 123 122
106 107 124 123
107 108 125 124
108 109 126 125
109 110 127 126
110 111 128 127
111 112 129 128
112 113 130 129
113 114 131 130
114 115 132 131
115 116 133 132
116 117 134 133
117 118 135 134
118 119 136 135
120 121 138 137
121 122 139 138
122 123 140 139
123 124 141 140
124 125 142 141
125 126 143 142
126 127 144 143
127 128 145 144
128 129 146 145
129 130 147 146
130 131 148 147
131 132 149 148
132 133 150 149
133 134 151 150
134 135 152 151
135 136 153 152
