TITLE = "Solution"
VARIABLES = x, y, u, v, psiu, psiv, t, stress
ZONE T="structure" N=153 E=128 F=FEBLOCK ET=QUADRILATERAL VARLOCATION=([7,8]=cellcentered)
0.000000e+00
1.250000e+01
2.500000e+01
3.750000e+01
5.000000e+01
6.250000e+01
7.500000e+01
8.750000e+01
1.000000e+02
1.125000e+02
1.250000e+02
1.375000e+02
1.500000e+02
1.625000e+02
1.750000e+02
1.875000e+02
2.000000e+02
0.000000e+00
1.250000e+01
2.500000e+01
3.750000e+01
5.000000e+01
6.250000e+01
7.500000e+01
8.750000e+01
1.000000e+02
1.125000e+02
1.250000e+02
1.375000e+02
1.500000e+02
1.625000e+02
1.750000e+02
1.875000e+02
2.000000e+02
0.000000e+00
1.250000e+01
2.500000e+01
3.750000e+01
5.000000e+01
6.250000e+01
7.500000e+01
8.750000e+01
1.000000e+02
1.125000e+02
1.250000e+02
1.375000e+02
1.500000e+02
1.625000e+02
1.750000e+02
1.875000e+02
2.000000e+02
0.000000e+00
1.250000e+01
2.500000e+01
3.750000e+01
5.000000e+01
6.250000e+01
7.500000e+01
8.750000e+01
1.000000e+02
1.125000e+02
1.250000e+02
1.375000e+02
1.500000e+02
1.625000e+02
1.750000e+02
1.875000e+02
2.000000e+02
0.000000e+00
1.250000e+01
2.500000e+01
3.750000e+01
5.000000e+01
6.250000e+01
7.500000e+01
8.750000e+01
1.000000e+02
1.125000e+02
1.250000e+02
1.375000e+02
1.500000e+02
1.625000e+02
1.750000e+02
1.875000e+02
2.000000e+02
0.000000e+00
1.250000e+01
2.500000e+01
3.750000e+01
5.000000e+01
6.250000e+01
7.500000e+01
8.750000e+01
1.000000e+02
1.125000e+02
1.250000e+02
1.375000e+02
1.500000e+02
1.625000e+02
1.750000e+02
1.875000e+02
2.000000e+02
0.000000e+00
1.250000e+01
2.500000e+01
3.750000e+01
5.000000e+01
6.250000e+01
7.500000e+01
8.750000e+01
1.000000e+02
1.125000e+02
1.250000e+02
1.375000e+02
1.500000e+02
1.625000e+02
1.750000e+02
1.875000e+02
2.000000e+02
0.000000e+00
1.250000e+01
2.500000e+01
3.750000e+01
5.000000e+01
6.250000e+01
7.500000e+01
8.750000e+01
1.000000e+02
1.125000e+02
1.250000e+02
1.375000e+02
1.500000e+02
1.625000e+02
1.750000e+02
1.875000e+02
2.000000e+02
0.000000e+00
1.250000e+01
2.500000e+01
3.750000e+01
5.000000e+01
6.250000e+01
7.500000e+01
8.750000e+01
1.000000e+02
1.125000e+02
1.250000e+02
1.375000e+02
1.500000e+02
1.625000e+02
1.750000e+02
1.875000e+02
2.000000e+02
0.000000e+00
0.000000e+00
0.000000e+00
0.000000e+00
0.000000e+00
0.000000e+00
0.000000e+00
0.000000e+00
0.000000e+00
0.000000e+00
0.000000e+00
0.000000e+00
0.000000e+00
0.000000e+00
0.000000e+00
0.000000e+00
0.000000e+00
1.250000e+01
1.250000e+01
1.250000e+01
1.250000e+01
1.250000e+01
1.250000e+01
1.250000e+01
1.250000e+01
1.250000e+01
1.250000e+01
1.250000e+01
1.250000e+01
1.250000e+01
1.250000e+01
1.250000e+01
1.250000e+01
1.250000e+01
2.500000e+01
2.500000e+01
2.500000e+01
2.500000e+01
2.500000e+01
2.500000e+01
2.500000e+01
2.500000e+01
2.500000e+01
2.500000e+01
2.500000e+01
2.500000e+01
2.500000e+01
2.500000e+01
2.500000e+01
2.500000e+01
2.500000e+01
3.750000e+01
3.750000e+01
3.750000e+01
3.750000e+01
3.750000e+01
3.750000e+01
3.750000e+01
3.750000e+01
3.750000e+01
3.750000e+01
3.750000e+01
3.750000e+01
3.750000e+01
3.750000e+01
3.750000e+01
3.750000e+01
3.750000e+01
5.000000e+01
5.000000e+01
5.000000e+01
5.000000e+01
5.000000e+01
5.000000e+01
5.000000e+01
5.000000e+01
5.000000e+01
5.000000e+01
5.000000e+01
5.000000e+01
5.000000e+01
5.000000e+01
5.000000e+01
5.000000e+01
5.000000e+01
6.250000e+01
6.250000e+01
6.250000e+01
6.250000e+01
6.250000e+01
6.250000e+01
6.250000e+01
6.250000e+01
6.250000e+01
6.250000e+01
6.250000e+01
6.250000e+01
6.250000e+01
6.250000e+01
6.250000e+01
6.250000e+01
6.250000e+01
7.500000e+01
7.500000e+01
7.500000e+01
7.500000e+01
7.500000e+01
7.500000e+01
7.500000e+01
7.500000e+01
7.500000e+01
7.500000e+01
7.500000e+01
7.500000e+01
7.500000e+01
7.500000e+01
7.500000e+01
7.500000e+01
7.500000e+01
8.750000e+01
8.750000e+01
8.750000e+01
8.750000e+01
8.750000e+01
8.750000e+01
8.750000e+01
8.750000e+01
8.750000e+01
8.750000e+01
8.750000e+01
8.750000e+01
8.750000e+01
8.750000e+01
8.750000e+01
8.750000e+01
8.750000e+01
1.000000e+02
1.000000e+02
1.000000e+02
1.000000e+02
1.000000e+02
1.000000e+02
1.000000e+02
1.000000e+02
1.000000e+02
1.000000e+02
1.000000e+02
1.000000e+02
1.000000e+02
1.000000e+02
1.000000e+02
1.000000e+02
1.000000e+02
0.000000e+00
-1.194710e+00
-2.161189e+00
-3.044670e+00
-3.910217e+00
-4.767509e+00
-5.597120e+00
-6.383833e+00
-7.103506e+00
-7.732570e+00
-8.264795e+00
-8.712025e+00
-9.099628e+00
-9.466681e+00
-9.875746e+00
-1.039951e+01
-1.080418e+01
0.000000e+00
-7.167255e-01
-1.451545e+00
-2.123955e+00
-2.777455e+00
-3.421801e+00
-4.044912e+00
-4.636708e+00
-5.179545e+00
-5.654304e+00
-6.053072e+00
-6.379777e+00
-6.643407e+00
-6.850728e+00
-6.994214e+00
-7.023018e+00
-7.144255e+00
0.000000e+00
-4.333387e-01
-8.820752e-01
-1.334187e+00
-1.780434e+00
-2.216673e+00
-2.634483e+00
-3.027253e+00
-3.383458e+00
-3.690615e+00
-3.941815e+00
-4.135345e+00
-4.269834e+00
-4.340192e+00
-4.338972e+00
-4.307692e+00
-4.433969e+00
0.000000e+00
-2.017143e-01
-4.169440e-01
-6.422131e-01
-8.700135e-01
-1.090980e+00
-1.300034e+00
-1.493148e+00
-1.664135e+00
-1.806286e+00
-1.914765e+00
-1.986384e+00
-2.018803e+00
-2.013005e+00
-1.986410e+00
-1.997234e+00
-2.089991e+00
0.000000e+00
-1.329383e-04
-1.421531e-04
9.598156e-05
6.774096e-04
1.803944e-03
3.991191e-03
8.217071e-03
1.606956e-02
2.970995e-02
5.170682e-02
8.432221e-02
1.274659e-01
1.740192e-01
2.038481e-01
1.913594e-01
1.318783e-01
0.000000e+00
2.016916e-01
4.167632e-01
6.420039e-01
8.704318e-01
1.093178e+00
1.305742e+00
1.505391e+00
1.688337e+00
1.851543e+00
1.994662e+00
2.118952e+00
2.223961e+00
2.304180e+00
2.349207e+00
2.351428e+00
2.322202e+00
0.000000e+00
4.340408e-01
8.824885e-01
1.333612e+00
1.779432e+00
2.216530e+00
2.636313e+00
3.031731e+00
3.391446e+00
3.704179e+00
3.965032e+00
4.174916e+00
4.336339e+00
4.450445e+00
4.516820e+00
4.537990e+00
4.531438e+00
0.000000e+00
7.185030e-01
1.453127e+00
2.124066e+00
2.776657e+00
3.421803e+00
4.046856e+00
4.639541e+00
5.179078e+00
5.643127e+00
6.020625e+00
6.312352e+00
6.525028e+00
6.667527e+00
6.749943e+00
6.784550e+00
6.790920e+00
0.000000e+00
1.197129e+00
2.163573e+00
3.045959e+00
3.911322e+00
4.771086e+00
5.605159e+00
6.395653e+00
7.112772e+00
7.725670e+00
8.218471e+00
8.590523e+00
8.849156e+00
9.006322e+00
9.079665e+00
9.097189e+00
9.096686e+00
0.000000e+00
-7.039509e-01
-1.367997e+00
-2.248400e+00
-3.352231e+00
-4.680082e+00
-6.222691e+00
-7.967120e+00
-9.891207e+00
-1.196925e+01
-1.417726e+01
-1.649569e+01
-1.891454e+01
-2.144457e+01
-2.415010e+01
-2.723441e+01
-3.164606e+01
0.000000e+00
-4.326453e-01
-1.130847e+00
-2.016525e+00
-3.124473e+00
-4.457564e+00
-6.009840e+00
-7.768947e+00
-9.714483e+00
-1.181848e+01
-1.405244e+01
-1.639345e+01
-1.882942e+01
-2.136980e+01
-2.407140e+01
-2.713263e+01
-3.088382e+01
0.000000e+00
-3.234919e-01
-9.625550e-01
-1.846814e+00
-2.957833e+00
-4.297441e+00
-5.858641e+00
-7.630290e+00
-9.592683e+00
-1.171713e+01
-1.397332e+01
-1.633698e+01
-1.879534e+01
-2.135476e+01
-2.405607e+01
-2.695639e+01
-2.977223e+01
0.000000e+00
-2.771751e-01
-8.746848e-01
-1.742468e+00
-2.855082e+00
-4.200532e+00
-5.769803e+00
-7.551679e+00
-9.526788e+00
-1.166661e+01
-1.394051e+01
-1.632314e+01
-1.879833e+01
-2.136087e+01
-2.400888e+01
-2.667706e+01
-2.914895e+01
0.000000e+00
-2.647892e-01
-8.475688e-01
-1.708140e+00
-2.820620e+00
-4.168886e+00
-5.742454e+00
-7.530144e+00
-9.512852e+00
-1.166232e+01
-1.394743e+01
-1.634045e+01
-1.881849e+01
-2.136013e+01
-2.393064e+01
-2.645299e+01
-2.879416e+01
0.000000e+00
-2.772968e-01
-8.752060e-01
-1.743216e+00
-2.856224e+00
-4.202987e+00
-5.775310e+00
-7.562819e+00
-9.546869e+00
-1.169910e+01
-1.398721e+01
-1.638001e+01
-1.884728e+01
-2.135590e+01
-2.386279e+01
-2.630607e+01
-2.860399e+01
0.000000e+00
-3.237499e-01
-9.633162e-01
-1.847938e+00
-2.959728e+00
-4.301627e+00
-5.868024e+00
-7.649370e+00
-9.627378e+00
-1.177360e+01
-1.405474e+01
-1.643687e+01
-1.888501e+01
-2.136118e+01
-2.382289e+01
-2.622452e+01
-2.852224e+01
0.000000e+00
-4.330898e-01
-1.131517e+00
-2.017578e+00
-3.126666e+00
-4.462693e+00
-6.021147e+00
-7.791514e+00
-9.755147e+00
-1.188428e+01
-1.414668e+01
-1.650836e+01
-1.893310e+01
-2.138170e+01
-2.381313e+01
-2.619123e+01
-2.850355e+01
0.000000e+00
-7.046428e-01
-1.368433e+00
-2.249184e+00
-3.354627e+00
-4.686092e+00
-6.235243e+00
-7.990553e+00
-9.931238e+00
-1.203149e+01
-1.426306e+01
-1.659450e+01
-1.899057e+01
-2.141267e+01
-2.382142e+01
-2.618513e+01
-2.850399e+01


0.000000e+00
2.858636e-05
5.907768e-05
8.638992e-05
1.107346e-04
1.313292e-04
1.474943e-04
1.587951e-04
1.666413e-04
1.723699e-04
1.756612e-04
1.768231e-04
1.770797e-04
1.770353e-04
1.769281e-04
1.768324e-04
1.767429e-04
0.000000e+00
1.989974e-05
4.612232e-05
6.810232e-05
8.702505e-05
1.026592e-04
1.145802e-04
1.223621e-04
1.270101e-04
1.304138e-04
1.324719e-04
1.329886e-04
1.330073e-04
1.329476e-04
1.329198e-04
1.328766e-04
1.327798e-04
0.000000e+00
1.452017e-05
3.181861e-05
4.714008e-05
6.023904e-05
7.063129e-05
7.841477e-05
8.317146e-05
8.551000e-05
8.709716e-05
8.827649e-05
8.867838e-05
8.876736e-05
8.877003e-05
8.876958e-05
8.872263e-05
8.860643e-05
0.000000e+00
7.610920e-06
1.563169e-05
2.334570e-05
2.997088e-05
3.514399e-05
3.901183e-05
4.144501e-05
4.259986e-05
4.333307e-05
4.390544e-05
4.424104e-05
4.438777e-05
4.444384e-05
4.445041e-05
4.439653e-05
4.429077e-05
0.000000e+00
-8.377056e-09
-1.220505e-08
-8.851183e-09
-3.605058e-09
-2.786363e-09
-8.829420e-09
-1.079326e-08
-2.866589e-08
-4.711452e-08
-5.432824e-08
-3.702884e-08
3.004227e-10
3.289739e-08
3.772109e-08
6.940179e-09
-5.027887e-08
0.000000e+00
-7.621978e-06
-1.565654e-05
-2.338646e-05
-3.001662e-05
-3.517374e-05
-3.899115e-05
-4.139124e-05
-4.258382e-05
-4.336177e-05
-4.395528e-05
-4.426344e-05
-4.435265e-05
-4.434727e-05
-4.432740e-05
-4.432168e-05
-4.433414e-05
0.000000e+00
-1.451028e-05
-3.183995e-05
-4.724619e-05
-6.041133e-05
-7.077570e-05
-7.841397e-05
-8.305911e-05
-8.537682e-05
-8.693968e-05
-8.809488e-05
-8.852358e-05
-8.862309e-05
-8.860661e-05
-8.857602e-05
-8.855760e-05
-8.855266e-05
0.000000e+00
-1.987253e-05
-4.614669e-05
-6.827069e-05
-8.731532e-05
-1.029368e-04
-1.146983e-04
-1.223399e-04
-1.268433e-04
-1.300113e-04
-1.319476e-04
-1.325596e-04
-1.327078e-04
-1.327350e-04
-1.327365e-04
-1.327351e-04
-1.327338e-04
0.000000e+00
-2.855726e-05
-5.910778e-05
-8.655414e-05
-1.110026e-04
-1.316027e-04
-1.476555e-04
-1.588481e-04
-1.664938e-04
-1.718508e-04
-1.749601e-04
-1.762097e-04
-1.766647e-04
-1.768277e-04
-1.768860e-04
-1.769058e-04
-1.769097e-04
0.000000e+00
2.540461e-05
4.478538e-05
6.599205e-05
9.198875e-05
1.225442e-04
1.569032e-04
1.939752e-04
2.338530e-04
2.760950e-04
3.192781e-04
3.628387e-04
4.068570e-04
4.509904e-04
4.950251e-04
5.388404e-04
5.825734e-04
0.000000e+00
1.304728e-05
3.192422e-05
5.419096e-05
8.172149e-05
1.142678e-04
1.509127e-04
1.900708e-04
2.311404e-04
2.742699e-04
3.184377e-04
3.626391e-04
4.068563e-04
4.510243e-04
4.950809e-04
5.389485e-04
5.827330e-04
0.000000e+00
5.852165e-06
2.184352e-05
4.487668e-05
7.373435e-05
1.079516e-04
1.464560e-04
1.874351e-04
2.296828e-04
2.732920e-04
3.178898e-04
3.624838e-04
4.068550e-04
4.510619e-04
4.951647e-04
5.391190e-04
5.829925e-04
0.000000e+00
2.998312e-06
1.722870e-05
4.018050e-05
6.982815e-05
1.049144e-04
1.442592e-04
1.861908e-04
2.291971e-04
2.730338e-04
3.176139e-04
3.623360e-04
4.068308e-04
4.511007e-04
4.952597e-04
5.393132e-04
5.833059e-04
0.000000e+00
2.351815e-06
1.606099e-05
3.887130e-05
6.875165e-05
1.041083e-04
1.436115e-04
1.857856e-04
2.290298e-04
2.729881e-04
3.175471e-04
3.622873e-04
4.068301e-04
4.511322e-04
4.953232e-04
5.394470e-04
5.835443e-04
0.000000e+00
2.987041e-06
1.719169e-05
4.013788e-05
6.981068e-05
1.049364e-04
1.442918e-04
1.862173e-04
2.292532e-04
2.731249e-04
3.177020e-04
3.623988e-04
4.068742e-04
4.511459e-04
4.953319e-04
5.394915e-04
5.836513e-04
0.000000e+00
5.833916e-06
2.178994e-05
4.482238e-05
7.371254e-05
1.079666e-04
1.464757e-04
1.874770e-04
2.298117e-04
2.734865e-04
3.180598e-04
3.625948e-04
4.069232e-04
4.511342e-04
4.953110e-04
5.394889e-04
5.836705e-04
0.000000e+00
1.303281e-05
3.189808e-05
5.418339e-05
8.172195e-05
1.142504e-04
1.508721e-04
1.900729e-04
2.312641e-04
2.744760e-04
3.186413e-04
3.627978e-04
4.069557e-04
4.511185e-04
4.952938e-04
5.394801e-04
5.836643e-04
0.000000e+00
2.540727e-05
4.482357e-05
6.606450e-05
9.202958e-05
1.224960e-04
1.567938e-04
1.938989e-04
2.338431e-04
2.761700e-04
3.194574e-04
3.630482e-04
4.070173e-04
4.511301e-04
4.952947e-04
5.394787e-04
5.836613e-04


3.704478e+00
3.481987e+00
3.387080e+00
3.546780e+00
3.801633e+00
4.032585e+00
4.233206e+00
4.321261e+00
4.242122e+00
4.035976e+00
3.779627e+00
3.537710e+00
3.363809e+00
3.338549e+00
3.466874e+00
3.591581e+00
3.352125e+00
3.272654e+00
3.291687e+00
3.511248e+00
3.762172e+00
3.971930e+00
4.147432e+00
4.219682e+00
4.144307e+00
3.957089e+00
3.730014e+00
3.519523e+00
3.376324e+00
3.377538e+00
3.514917e+00
3.639424e+00
3.070224e+00
3.089967e+00
3.228918e+00
3.453463e+00
3.654411e+00
3.805466e+00
3.925127e+00
3.970438e+00
3.912827e+00
3.782893e+00
3.630693e+00
3.493128e+00
3.400323e+00
3.408436e+00
3.502825e+00
3.576488e+00
3.025551e+00
3.098203e+00
3.257280e+00
3.445551e+00
3.584737e+00
3.685700e+00
3.759537e+00
3.785229e+00
3.751972e+00
3.679998e+00
3.598139e+00
3.518650e+00
3.449172e+00
3.413527e+00
3.408978e+00
3.404965e+00
3.024605e+00
3.095580e+00
3.254410e+00
3.446275e+00
3.590571e+00
3.696925e+00
3.775451e+00
3.808253e+00
3.785644e+00
3.727164e+00
3.654120e+00
3.570357e+00
3.474138e+00
3.378737e+00
3.298758e+00
3.249500e+00
3.069789e+00
3.084226e+00
3.221944e+00
3.454189e+00
3.668602e+00
3.832521e+00
3.963893e+00
4.021791e+00
3.983157e+00
3.874674e+00
3.735799e+00
3.585591e+00
3.435194e+00
3.302126e+00
3.205980e+00
3.157131e+00
3.358409e+00
3.271159e+00
3.284921e+00
3.511119e+00
3.776161e+00
4.001202e+00
4.186241e+00
4.262803e+00
4.188295e+00
4.001437e+00
3.770460e+00
3.545368e+00
3.356190e+00
3.222426e+00
3.148205e+00
3.119958e+00
3.720116e+00
3.487036e+00
3.383881e+00
3.545684e+00
3.812341e+00
4.055690e+00
4.261791e+00
4.341206e+00
4.242994e+00
4.012363e+00
3.736448e+00
3.482409e+00
3.290118e+00
3.174116e+00
3.123978e+00
3.110689e+00


-2.205099e+00
-1.531891e+00
-1.117254e+00
-1.022074e+00
-9.770286e-01
-8.531438e-01
-6.701510e-01
-4.018783e-01
-7.234941e-02
2.373484e-01
4.745703e-01
6.307999e-01
7.152186e-01
7.333580e-01
7.258408e-01
-2.881686e-01
-1.809379e-01
-2.808003e-01
-1.670480e-01
-1.285068e-01
-1.038387e-01
-3.932789e-02
5.672987e-02
2.014448e-01
3.858063e-01
5.687810e-01
7.208896e-01
8.361238e-01
9.175107e-01
9.611765e-01
8.344161e-01
-8.959468e-01
6.138216e-01
5.163317e-01
4.662143e-01
4.537407e-01
4.603127e-01
4.845307e-01
5.214090e-01
5.795857e-01
6.583147e-01
7.421943e-01
8.154741e-01
8.669072e-01
8.820993e-01
8.245065e-01
5.933175e-01
1.509101e-01
9.215134e-01
8.391266e-01
7.832321e-01
7.589416e-01
7.517372e-01
7.477976e-01
7.436791e-01
7.445654e-01
7.552245e-01
7.724789e-01
7.873182e-01
7.892294e-01
7.677865e-01
7.180713e-01
6.697228e-01
6.498049e-01
9.216420e-01
8.391395e-01
7.826987e-01
7.571529e-01
7.478970e-01
7.405496e-01
7.304766e-01
7.217635e-01
7.191598e-01
7.212675e-01
7.232170e-01
7.227835e-01
7.242686e-01
7.418200e-01
7.933386e-01
8.702770e-01
6.132056e-01
5.169363e-01
4.670203e-01
4.517982e-01
4.531304e-01
4.699851e-01
4.954178e-01
5.350850e-01
5.870757e-01
6.389687e-01
6.825124e-01
7.207305e-01
7.642053e-01
8.225264e-01
8.938579e-01
9.620121e-01
-1.855242e-01
-2.793274e-01
-1.621322e-01
-1.265575e-01
-1.090620e-01
-5.144203e-02
3.995880e-02
1.801938e-01
3.563250e-01
5.256956e-01
6.609165e-01
7.614216e-01
8.392761e-01
9.058441e-01
9.607916e-01
9.935738e-01
-2.218623e+00
-1.531062e+00
-1.110330e+00
-1.019293e+00
-9.858115e-01
-8.699666e-01
-6.828898e-01
-3.925374e-01
-2.798481e-02
3.217281e-01
5.970913e-01
7.876370e-01
9.052507e-01
9.678725e-01
9.939275e-01
9.998779e-01
1 2 19 18
2 3 20 19
3 4 21 20
4 5 22 21
5 6 23 22
6 7 24 23
7 8 25 24
8 9 26 25
9 10 27 26
10 11 28 27
11 12 29 28
12 13 30 29
13 14 31 30
14 15 32 31
15 16 33 32
16 17 34 33
18 19 36 35
19 20 37 36
20 21 38 37
21 22 39 38
22 23 40 39
23 24 41 40
24 25 42 41
25 26 43 42
26 27 44 43
27 28 45 44
28 29 46 45
29 30 47 46
30 31 48 47
31 32 49 48
32 33 50 49
33 34 51 50
35 36 53 52
36 37 54 53
37 38 55 54
38 39 56 55
39 40 57 56
40 41 58 57
41 42 59 58
42 43 60 59
43 44 61 60
44 45 62 61
45 46 63 62
46 47 64 63
47 48 65 64
48 49 66 65
49 50 67 66
50 51 68 67
52 53 70 69
53 54 71 70
54 55 72 71
55 56 73 72
56 57 74 73
57 58 75 74
58 59 76 75
59 60 77 76
60 61 78 77
61 62 79 78
62 63 80 79
63 64 81 80
64 65 82 81
65 66 83 82
66 67 84 83
67 68 85 84
69 70 87 86
70 71 88 87
71 72 89 88
72 73 90 89
73 74 91 90
74 75 92 91
75 76 93 92
76 77 94 93
77 78 95 94
78 79 96 95
79 80 97 96
80 81 98 97
81 82 99 98
82 83 100 99
83 84 101 100
84 85 102 101
86 87 104 103
87 88 105 104
88 89 106 105
89 90 107 106
90 91 108 107
91 92 109 108
92 93 110 109
93 94 111 110
94 95 112 111
95 96 113 112
96 97 114 113
97 98 115 114
98 99 116 115
99 100 117 116
100 101 118 117
101 102 119 118
103 104 121 120
104 105 122 121
105 106 123 122
106 107 124 123
107 108 125 124
108 109 126 125
109 110 127 126
110 111 128 127
111 112 129 128
112 113 130 129
113 114 131 130
114 115 132 131
115 116 133 132
116 117 134 133
117 118 135 134
118 119 136 135
120 121 138 137
121 122 139 138
122 123 140 139
123 124 141 140
124 125 142 141
125 126 143 142
126 127 144 143
127 128 145 144
128 129 146 145
129 130 147 146
130 131 148 147
131 132 149 148
132 133 150 149
133 134 151 150
134 135 152 151
135 136 153 152
