TITLE = "Solution"
VARIABLES = x, y, u, v, psiu, psiv, t, stress
ZONE T="structure" N=153 E=128 F=FEBLOCK ET=QUADRILATERAL VARLOCATION=([7,8]=cellcentered)
0.000000e+00
1.250000e+01
2.500000e+01
3.750000e+01
5.000000e+01
6.250000e+01
7.500000e+01
8.750000e+01
1.000000e+02
1.125000e+02
1.250000e+02
1.375000e+02
1.500000e+02
1.625000e+02
1.750000e+02
1.875000e+02
2.000000e+02
0.000000e+00
1.250000e+01
2.500000e+01
3.750000e+01
5.000000e+01
6.250000e+01
7.500000e+01
8.750000e+01
1.000000e+02
1.125000e+02
1.250000e+02
1.375000e+02
1.500000e+02
1.625000e+02
1.750000e+02
1.875000e+02
2.000000e+02
0.000000e+00
1.250000e+01
2.500000e+01
3.750000e+01
5.000000e+01
6.250000e+01
7.500000e+01
8.750000e+01
1.000000e+02
1.125000e+02
1.250000e+02
1.375000e+02
1.500000e+02
1.625000e+02
1.750000e+02
1.875000e+02
2.000000e+02
0.000000e+00
1.250000e+01
2.500000e+01
3.750000e+01
5.000000e+01
6.250000e+01
7.500000e+01
8.750000e+01
1.000000e+02
1.125000e+02
1.250000e+02
1.375000e+02
1.500000e+02
1.625000e+02
1.750000e+02
1.875000e+02
2.000000e+02
0.000000e+00
1.250000e+01
2.500000e+01
3.750000e+01
5.000000e+01
6.250000e+01
7.500000e+01
8.750000e+01
1.000000e+02
1.125000e+02
1.250000e+02
1.375000e+02
1.500000e+02
1.625000e+02
1.750000e+02
1.875000e+02
2.000000e+02
0.000000e+00
1.250000e+01
2.500000e+01
3.750000e+01
5.000000e+01
6.250000e+01
7.500000e+01
8.750000e+01
1.000000e+02
1.125000e+02
1.250000e+02
1.375000e+02
1.500000e+02
1.625000e+02
1.750000e+02
1.875000e+02
2.000000e+02
0.000000e+00
1.250000e+01
2.500000e+01
3.750000e+01
5.000000e+01
6.250000e+01
7.500000e+01
8.750000e+01
1.000000e+02
1.125000e+02
1.250000e+02
1.375000e+02
1.500000e+02
1.625000e+02
1.750000e+02
1.875000e+02
2.000000e+02
0.000000e+00
1.250000e+01
2.500000e+01
3.750000e+01
5.000000e+01
6.250000e+01
7.500000e+01
8.750000e+01
1.000000e+02
1.125000e+02
1.250000e+02
1.375000e+02
1.500000e+02
1.625000e+02
1.750000e+02
1.875000e+02
2.000000e+02
0.000000e+00
1.250000e+01
2.500000e+01
3.750000e+01
5.000000e+01
6.250000e+01
7.500000e+01
8.750000e+01
1.000000e+02
1.125000e+02
1.250000e+02
1.375000e+02
1.500000e+02
1.625000e+02
1.750000e+02
1.875000e+02
2.000000e+02
0.000000e+00
0.000000e+00
0.000000e+00
0.000000e+00
0.000000e+00
0.000000e+00
0.000000e+00
0.000000e+00
0.000000e+00
0.000000e+00
0.000000e+00
0.000000e+00
0.000000e+00
0.000000e+00
0.000000e+00
0.000000e+00
0.000000e+00
1.250000e+01
1.250000e+01
1.250000e+01
1.250000e+01
1.250000e+01
1.250000e+01
1.250000e+01
1.250000e+01
1.250000e+01
1.250000e+01
1.250000e+01
1.250000e+01
1.250000e+01
1.250000e+01
1.250000e+01
1.250000e+01
1.250000e+01
2.500000e+01
2.500000e+01
2.500000e+01
2.500000e+01
2.500000e+01
2.500000e+01
2.500000e+01
2.500000e+01
2.500000e+01
2.500000e+01
2.500000e+01
2.500000e+01
2.500000e+01
2.500000e+01
2.500000e+01
2.500000e+01
2.500000e+01
3.750000e+01
3.750000e+01
3.750000e+01
3.750000e+01
3.750000e+01
3.750000e+01
3.750000e+01
3.750000e+01
3.750000e+01
3.750000e+01
3.750000e+01
3.750000e+01
3.750000e+01
3.750000e+01
3.750000e+01
3.750000e+01
3.750000e+01
5.000000e+01
5.000000e+01
5.000000e+01
5.000000e+01
5.000000e+01
5.000000e+01
5.000000e+01
5.000000e+01
5.000000e+01
5.000000e+01
5.000000e+01
5.000000e+01
5.000000e+01
5.000000e+01
5.000000e+01
5.000000e+01
5.000000e+01
6.250000e+01
6.250000e+01
6.250000e+01
6.250000e+01
6.250000e+01
6.250000e+01
6.250000e+01
6.250000e+01
6.250000e+01
6.250000e+01
6.250000e+01
6.250000e+01
6.250000e+01
6.250000e+01
6.250000e+01
6.250000e+01
6.250000e+01
7.500000e+01
7.500000e+01
7.500000e+01
7.500000e+01
7.500000e+01
7.500000e+01
7.500000e+01
7.500000e+01
7.500000e+01
7.500000e+01
7.500000e+01
7.500000e+01
7.500000e+01
7.500000e+01
7.500000e+01
7.500000e+01
7.500000e+01
8.750000e+01
8.750000e+01
8.750000e+01
8.750000e+01
8.750000e+01
8.750000e+01
8.750000e+01
8.750000e+01
8.750000e+01
8.750000e+01
8.750000e+01
8.750000e+01
8.750000e+01
8.750000e+01
8.750000e+01
8.750000e+01
8.750000e+01
1.000000e+02
1.000000e+02
1.000000e+02
1.000000e+02
1.000000e+02
1.000000e+02
1.000000e+02
1.000000e+02
1.000000e+02
1.000000e+02
1.000000e+02
1.000000e+02
1.000000e+02
1.000000e+02
1.000000e+02
1.000000e+02
1.000000e+02
0.000000e+00
-8.549322e-01
-1.536366e+00
-2.204815e+00
-2.885241e+00
-3.546245e+00
-4.203383e+00
-4.861467e+00
-5.515134e+00
-6.164672e+00
-6.807166e+00
-7.432786e+00
-8.035661e+00
-8.624995e+00
-9.220541e+00
-9.847323e+00
-1.027653e+01
0.000000e+00
-4.593993e-01
-9.542612e-01
-1.448995e+00
-1.958284e+00
-2.453350e+00
-2.944589e+00
-3.436203e+00
-3.923700e+00
-4.406082e+00
-4.879126e+00
-5.330524e+00
-5.743904e+00
-6.096183e+00
-6.335564e+00
-6.390007e+00
-6.535514e+00
0.000000e+00
-2.473833e-01
-5.250251e-01
-8.435086e-01
-1.179304e+00
-1.511572e+00
-1.843931e+00
-2.175234e+00
-2.501065e+00
-2.817376e+00
-3.115772e+00
-3.381111e+00
-3.592203e+00
-3.720798e+00
-3.739044e+00
-3.707736e+00
-3.858112e+00
0.000000e+00
-1.074287e-01
-2.318602e-01
-3.824685e-01
-5.457289e-01
-7.131966e-01
-8.816128e-01
-1.047472e+00
-1.206935e+00
-1.354457e+00
-1.481111e+00
-1.574368e+00
-1.619919e+00
-1.608400e+00
-1.561059e+00
-1.566974e+00
-1.689601e+00
0.000000e+00
-6.913732e-04
-1.403154e-03
-1.999947e-03
-2.225609e-03
-1.617663e-03
6.282857e-04
5.852905e-03
1.630425e-02
3.560484e-02
6.884807e-02
1.215361e-01
1.960213e-01
2.827271e-01
3.468327e-01
3.407764e-01
2.518279e-01
0.000000e+00
1.062508e-01
2.294430e-01
3.789274e-01
5.415845e-01
7.097279e-01
8.813771e-01
1.055229e+00
1.231109e+00
1.409164e+00
1.588405e+00
1.765454e+00
1.932247e+00
2.071749e+00
2.157643e+00
2.169052e+00
2.121596e+00
0.000000e+00
2.467726e-01
5.236866e-01
8.413412e-01
1.176368e+00
1.508221e+00
1.840870e+00
2.174145e+00
2.505428e+00
2.832347e+00
3.147526e+00
3.437507e+00
3.685975e+00
3.876053e+00
3.992659e+00
4.031590e+00
4.020660e+00
0.000000e+00
4.594965e-01
9.543233e-01
1.448860e+00
1.957779e+00
2.452090e+00
2.941494e+00
3.429859e+00
3.912574e+00
4.385211e+00
4.833972e+00
5.233699e+00
5.559039e+00
5.794173e+00
5.936402e+00
5.997371e+00
6.008687e+00
0.000000e+00
8.555271e-01
1.537713e+00
2.207047e+00
2.888464e+00
3.550230e+00
4.207006e+00
4.862937e+00
5.511415e+00
6.144906e+00
6.740477e+00
7.258323e+00
7.659458e+00
7.921732e+00
8.049281e+00
8.080163e+00
8.079188e+00
0.000000e+00
-5.272614e-01
-1.095999e+00
-1.850848e+00
-2.773439e+00
-3.862604e+00
-5.125607e+00
-6.561874e+00
-8.169813e+00
-9.948806e+00
-1.189472e+01
-1.400037e+01
-1.626204e+01
-1.868920e+01
-2.134353e+01
-2.443941e+01
-2.900494e+01
0.000000e+00
-3.345544e-01
-9.286757e-01
-1.674781e+00
-2.598309e+00
-3.690415e+00
-4.953746e+00
-6.390850e+00
-8.000607e+00
-9.782137e+00
-1.173320e+01
-1.384803e+01
-1.612236e+01
-1.856839e+01
-2.124109e+01
-2.433330e+01
-2.814402e+01
0.000000e+00
-2.763762e-01
-8.188689e-01
-1.557236e+00
-2.476219e+00
-3.568141e+00
-4.832574e+00
-6.271745e+00
-7.885205e+00
-9.673008e+00
-1.163430e+01
-1.376471e+01
-1.606172e+01
-1.853787e+01
-2.122671e+01
-2.414424e+01
-2.691165e+01
0.000000e+00
-2.739966e-01
-7.782378e-01
-1.496364e+00
-2.406948e+00
-3.496546e+00
-4.762536e+00
-6.205286e+00
-7.825089e+00
-9.623059e+00
-1.159872e+01
-1.374738e+01
-1.606325e+01
-1.854407e+01
-2.116927e+01
-2.380931e+01
-2.614654e+01
0.000000e+00
-2.780924e-01
-7.709873e-01
-1.479929e+00
-2.386021e+00
-3.475260e+00
-4.743493e+00
-6.190378e+00
-7.816981e+00
-9.625149e+00
-1.161383e+01
-1.377509e+01
-1.609337e+01
-1.854194e+01
-2.105562e+01
-2.349321e+01
-2.562835e+01
0.000000e+00
-2.738488e-01
-7.784657e-01
-1.497556e+00
-2.409964e+00
-3.502663e+00
-4.773475e+00
-6.223520e+00
-7.854555e+00
-9.669028e+00
-1.166498e+01
-1.382933e+01
-1.613437e+01
-1.853294e+01
-2.094668e+01
-2.325779e+01
-2.531540e+01
0.000000e+00
-2.761097e-01
-8.191930e-01
-1.559082e+00
-2.481007e+00
-3.577979e+00
-4.850361e+00
-6.301692e+00
-7.933995e+00
-9.749733e+00
-1.174581e+01
-1.390422e+01
-1.618770e+01
-1.853847e+01
-2.087833e+01
-2.311793e+01
-2.517380e+01
0.000000e+00
-3.342871e-01
-9.290158e-01
-1.676794e+00
-2.603614e+00
-3.701358e+00
-4.973639e+00
-6.424651e+00
-8.055948e+00
-9.868885e+00
-1.185812e+01
-1.400221e+01
-1.625987e+01
-1.857075e+01
-2.086053e+01
-2.305914e+01
-2.514105e+01
0.000000e+00
-5.271495e-01
-1.096473e+00
-1.853029e+00
-2.778945e+00
-3.873670e+00
-5.145433e+00
-6.595473e+00
-8.224306e+00
-1.003151e+01
-1.200725e+01
-1.412725e+01
-1.635131e+01
-1.862299e+01
-2.087481e+01
-2.304821e+01
-2.514194e+01


0.000000e+00
1.169538e-05
2.203985e-05
3.233609e-05
4.393759e-05
5.525256e-05
6.572957e-05
7.569548e-05
8.502896e-05
9.316701e-05
9.954748e-05
1.040280e-04
1.070372e-04
1.093233e-04
1.113897e-04
1.140441e-04
1.173001e-04
0.000000e+00
8.618803e-06
1.778763e-05
2.549653e-05
3.447036e-05
4.319837e-05
5.099590e-05
5.838087e-05
6.533246e-05
7.124425e-05
7.559454e-05
7.828562e-05
7.958925e-05
7.983820e-05
8.001427e-05
8.216785e-05
8.580785e-05
0.000000e+00
6.594753e-06
1.285137e-05
1.817036e-05
2.422092e-05
2.993027e-05
3.504506e-05
3.982006e-05
4.415655e-05
4.769801e-05
5.018105e-05
5.156433e-05
5.201811e-05
5.193260e-05
5.215527e-05
5.412845e-05
5.749580e-05
0.000000e+00
3.319160e-06
6.038083e-06
9.149957e-06
1.208231e-05
1.479869e-05
1.735635e-05
1.967768e-05
2.165934e-05
2.322772e-05
2.430938e-05
2.490182e-05
2.515359e-05
2.538478e-05
2.594307e-05
2.728269e-05
2.939809e-05
0.000000e+00
-1.089164e-08
-2.253574e-08
-3.385859e-08
-4.482897e-08
-5.652012e-08
-7.094979e-08
-9.901960e-08
-1.648586e-07
-2.913496e-07
-4.658207e-07
-6.252417e-07
-6.569983e-07
-4.401454e-07
-4.295901e-08
4.739723e-07
1.396672e-06
0.000000e+00
-3.338597e-06
-6.076602e-06
-9.208679e-06
-1.216175e-05
-1.489578e-05
-1.746756e-05
-1.981225e-05
-2.186162e-05
-2.356567e-05
-2.485720e-05
-2.568904e-05
-2.608290e-05
-2.615997e-05
-2.615443e-05
-2.613824e-05
-2.585417e-05
0.000000e+00
-6.604034e-06
-1.287202e-05
-1.820948e-05
-2.428356e-05
-3.000659e-05
-3.512809e-05
-3.991508e-05
-4.421713e-05
-4.760578e-05
-4.988044e-05
-5.119760e-05
-5.187870e-05
-5.222815e-05
-5.245659e-05
-5.259564e-05
-5.254378e-05
0.000000e+00
-8.617620e-06
-1.778598e-05
-2.550263e-05
-3.449211e-05
-4.322206e-05
-5.102000e-05
-5.843644e-05
-6.533440e-05
-7.088228e-05
-7.459149e-05
-7.673776e-05
-7.792486e-05
-7.860614e-05
-7.901274e-05
-7.921818e-05
-7.925377e-05
0.000000e+00
-1.169261e-05
-2.202382e-05
-3.230636e-05
-4.389506e-05
-5.518293e-05
-6.562949e-05
-7.559092e-05
-8.484992e-05
-9.259557e-05
-9.823354e-05
-1.018784e-04
-1.040658e-04
-1.053056e-04
-1.059341e-04
-1.061617e-04
-1.061963e-04
0.000000e+00
1.009189e-05
1.707712e-05
2.611926e-05
3.818908e-05
5.230951e-05
6.897380e-05
8.843970e-05
1.101896e-04
1.336314e-04
1.583696e-04
1.842083e-04
2.111457e-04
2.396587e-04
2.720822e-04
3.097665e-04
3.481924e-04
0.000000e+00
5.386546e-06
1.278159e-05
2.130148e-05
3.297413e-05
4.740051e-05
6.443032e-05
8.413071e-05
1.062937e-04
1.304692e-04
1.561393e-04
1.828586e-04
2.104278e-04
2.391158e-04
2.698540e-04
3.051853e-04
3.424695e-04
0.000000e+00
2.429901e-06
9.132642e-06
1.774573e-05
2.917135e-05
4.383159e-05
6.120987e-05
8.115718e-05
1.036563e-04
1.283699e-04
1.546999e-04
1.820645e-04
2.101318e-04
2.386344e-04
2.672806e-04
2.996095e-04
3.348989e-04
0.000000e+00
1.412538e-06
7.353254e-06
1.608087e-05
2.762449e-05
4.233122e-05
5.984055e-05
7.997338e-05
1.026530e-04
1.275568e-04
1.541090e-04
1.817072e-04
2.098814e-04
2.381051e-04
2.656356e-04
2.954663e-04
3.281597e-04
0.000000e+00
1.194597e-06
6.829401e-06
1.551732e-05
2.719647e-05
4.188511e-05
5.942249e-05
7.964771e-05
1.024219e-04
1.274000e-04
1.540058e-04
1.816147e-04
2.096902e-04
2.377016e-04
2.651932e-04
2.936820e-04
3.236624e-04
0.000000e+00
1.414639e-06
7.350081e-06
1.606702e-05
2.759955e-05
4.229409e-05
5.979611e-05
7.996412e-05
1.027521e-04
1.277856e-04
1.543908e-04
1.818942e-04
2.097780e-04
2.376274e-04
2.652759e-04
2.931946e-04
3.212949e-04
0.000000e+00
2.433242e-06
9.128082e-06
1.772549e-05
2.913396e-05
4.377350e-05
6.113755e-05
8.114593e-05
1.038353e-04
1.287849e-04
1.552336e-04
1.824915e-04
2.101083e-04
2.377915e-04
2.654011e-04
2.929931e-04
3.202840e-04
0.000000e+00
5.390858e-06
1.278082e-05
2.128794e-05
3.294193e-05
4.734303e-05
6.436357e-05
8.413016e-05
1.064622e-04
1.308338e-04
1.566225e-04
1.833179e-04
2.105458e-04
2.380090e-04
2.655008e-04
2.928874e-04
3.199812e-04
0.000000e+00
1.009649e-05
1.707857e-05
2.611365e-05
3.816539e-05
5.225678e-05
6.892220e-05
8.845233e-05
1.102761e-04
1.337340e-04
1.584875e-04
1.843666e-04
2.110877e-04
2.382728e-04
2.656096e-04
2.928761e-04
3.199421e-04


2.288991e+00
2.204363e+00
2.336054e+00
2.525272e+00
2.668938e+00
2.929822e+00
3.258903e+00
3.637818e+00
4.101960e+00
4.613134e+00
5.073821e+00
5.404224e+00
5.534293e+00
5.272651e+00
4.603495e+00
4.051778e+00
3.265529e+00
3.182090e+00
3.250017e+00
3.367392e+00
3.457354e+00
3.641667e+00
3.879789e+00
4.156643e+00
4.502715e+00
4.890488e+00
5.243050e+00
5.492974e+00
5.565539e+00
5.253551e+00
4.562281e+00
3.994031e+00
4.625478e+00
4.570081e+00
4.583254e+00
4.612740e+00
4.635530e+00
4.714878e+00
4.818428e+00
4.941463e+00
5.104806e+00
5.296589e+00
5.475465e+00
5.601090e+00
5.614321e+00
5.340424e+00
4.774550e+00
4.334962e+00
5.430403e+00
5.399922e+00
5.387158e+00
5.369077e+00
5.363901e+00
5.379072e+00
5.398695e+00
5.424009e+00
5.466182e+00
5.524362e+00
5.584869e+00
5.632342e+00
5.635428e+00
5.493059e+00
5.196395e+00
4.965814e+00
5.430404e+00
5.399764e+00
5.386649e+00
5.368021e+00
5.361796e+00
5.374572e+00
5.390119e+00
5.410623e+00
5.447795e+00
5.500259e+00
5.556016e+00
5.606737e+00
5.641249e+00
5.618467e+00
5.528389e+00
5.453309e+00
4.625247e+00
4.569350e+00
4.581494e+00
4.609655e+00
4.630077e+00
4.704243e+00
4.801143e+00
4.920929e+00
5.083768e+00
5.269878e+00
5.437369e+00
5.564840e+00
5.653906e+00
5.702039e+00
5.711281e+00
5.706762e+00
3.264696e+00
3.180525e+00
3.247150e+00
3.363342e+00
3.451659e+00
3.632973e+00
3.872851e+00
4.166327e+00
4.538034e+00
4.937426e+00
5.277827e+00
5.517250e+00
5.666841e+00
5.752916e+00
5.796329e+00
5.812976e+00
2.287638e+00
2.202300e+00
2.332833e+00
2.521552e+00
2.665308e+00
2.927175e+00
3.267867e+00
3.682409e+00
4.195632e+00
4.734578e+00
5.184746e+00
5.493249e+00
5.677408e+00
5.778359e+00
5.828885e+00
5.849575e+00


-5.211861e-01
-2.218539e-01
-1.864312e-01
-2.407235e-01
-1.745336e-01
-1.603831e-01
-1.644067e-01
-1.491057e-01
-1.316412e-01
-9.840403e-02
-2.069655e-02
9.741212e-02
2.341024e-01
3.979266e-01
5.854492e-01
-5.236942e-01
5.252912e-01
4.007746e-01
3.506610e-01
3.011086e-01
3.219736e-01
3.191910e-01
3.097409e-01
3.140711e-01
3.283658e-01
3.666774e-01
4.509976e-01
5.836291e-01
7.456502e-01
8.858187e-01
7.591544e-01
-1.277083e+00
8.303550e-01
7.205576e-01
6.234131e-01
5.776485e-01
5.669107e-01
5.540867e-01
5.445673e-01
5.435775e-01
5.515493e-01
5.756191e-01
6.217378e-01
6.767340e-01
6.942996e-01
5.918501e-01
2.770689e-01
-2.773751e-01
9.135450e-01
8.186549e-01
7.234471e-01
6.692548e-01
6.463121e-01
6.345954e-01
6.263389e-01
6.178818e-01
6.053269e-01
5.866950e-01
5.592092e-01
5.097833e-01
4.140571e-01
2.830333e-01
2.313141e-01
2.546646e-01
9.141195e-01
8.193139e-01
7.239122e-01
6.686085e-01
6.430955e-01
6.266296e-01
6.099980e-01
5.869693e-01
5.504338e-01
4.967227e-01
4.276039e-01
3.492767e-01
2.819328e-01
2.863344e-01
4.252346e-01
6.486823e-01
8.317133e-01
7.221819e-01
6.248046e-01
5.771317e-01
5.617323e-01
5.399347e-01
5.135696e-01
4.821755e-01
4.398212e-01
3.902647e-01
3.463648e-01
3.265503e-01
3.604365e-01
4.811769e-01
6.792635e-01
8.853633e-01
5.262731e-01
4.020842e-01
3.520509e-01
3.018385e-01
3.208211e-01
3.146023e-01
2.967494e-01
2.830706e-01
2.698789e-01
2.757963e-01
3.248602e-01
4.197327e-01
5.528952e-01
7.166993e-01
8.778912e-01
9.799488e-01
-5.223931e-01
-2.232755e-01
-1.878300e-01
-2.421606e-01
-1.749676e-01
-1.570940e-01
-1.561972e-01
-1.347280e-01
-9.191250e-02
1.604700e-02
2.241056e-01
4.914810e-01
7.369028e-01
9.028512e-01
9.809940e-01
9.996225e-01
1 2 19 18
2 3 20 19
3 4 21 20
4 5 22 21
5 6 23 22
6 7 24 23
7 8 25 24
8 9 26 25
9 10 27 26
10 11 28 27
11 12 29 28
12 13 30 29
13 14 31 30
14 15 32 31
15 16 33 32
16 17 34 33
18 19 36 35
19 20 37 36
20 21 38 37
21 22 39 38
22 23 40 39
23 24 41 40
24 25 42 41
25 26 43 42
26 27 44 43
27 28 45 44
28 29 46 45
29 30 47 46
30 31 48 47
31 32 49 48
32 33 50 49
33 34 51 50
35 36 53 52
36 37 54 53
37 38 55 54
38 39 56 55
39 40 57 56
40 41 58 57
41 42 59 58
42 43 60 59
43 44 61 60
44 45 62 61
45 46 63 62
46 47 64 63
47 48 65 64
48 49 66 65
49 50 67 66
50 51 68 67
52 53 70 69
53 54 71 70
54 55 72 71
55 56 73 72
56 57 74 73
57 58 75 74
58 59 76 75
59 60 77 76
60 61 78 77
61 62 79 78
62 63 80 79
63 64 81 80
64 65 82 81
65 66 83 82
66 67 84 83
67 68 85 84
69 70 87 86
70 71 88 87
71 72 89 88
72 73 90 89
73 74 91 90
74 75 92 91
75 76 93 92
76 77 94 93
77 78 95 94
78 79 96 95
79 80 97 96
80 81 98 97
81 82 99 98
82 83 100 99
83 84 101 100
84 85 102 101
86 87 104 103
87 88 105 104
88 89 106 105
89 90 107 106
90 91 108 107
91 92 109 108
92 93 110 109
93 94 111 110
94 95 112 111
95 96 113 112
96 97 114 113
97 98 115 114
98 99 116 115
99 100 117 116
100 101 118 117
101 102 119 118
103 104 121 120
104 105 122 121
105 106 123 122
106 107 124 123
107 108 125 124
108 109 126 125
109 110 127 126
110 111 128 127
111 112 129 128
112 113 130 129
113 114 131 130
114 115 132 131
115 116 133 132
116 117 134 133
117 118 135 134
118 119 136 135
120 121 138 137
121 122 139 138
122 123 140 139
123 124 141 140
124 125 142 141
125 126 143 142
126 127 144 143
127 128 145 144
128 129 146 145
129 130 147 146
130 131 148 147
131 132 149 148
132 133 150 149
133 134 151 150
134 135 152 151
135 136 153 152
