TITLE = "Solution"
VARIABLES = x, y, u, v, psiu, psiv, t, stress
ZONE T="structure" N=153 E=128 F=FEBLOCK ET=QUADRILATERAL VARLOCATION=([7,8]=cellcentered)
0.000000e+00
1.250000e+01
2.500000e+01
3.750000e+01
5.000000e+01
6.250000e+01
7.500000e+01
8.750000e+01
1.000000e+02
1.125000e+02
1.250000e+02
1.375000e+02
1.500000e+02
1.625000e+02
1.750000e+02
1.875000e+02
2.000000e+02
0.000000e+00
1.250000e+01
2.500000e+01
3.750000e+01
5.000000e+01
6.250000e+01
7.500000e+01
8.750000e+01
1.000000e+02
1.125000e+02
1.250000e+02
1.375000e+02
1.500000e+02
1.625000e+02
1.750000e+02
1.875000e+02
2.000000e+02
0.000000e+00
1.250000e+01
2.500000e+01
3.750000e+01
5.000000e+01
6.250000e+01
7.500000e+01
8.750000e+01
1.000000e+02
1.125000e+02
1.250000e+02
1.375000e+02
1.500000e+02
1.625000e+02
1.750000e+02
1.875000e+02
2.000000e+02
0.000000e+00
1.250000e+01
2.500000e+01
3.750000e+01
5.000000e+01
6.250000e+01
7.500000e+01
8.750000e+01
1.000000e+02
1.125000e+02
1.250000e+02
1.375000e+02
1.500000e+02
1.625000e+02
1.750000e+02
1.875000e+02
2.000000e+02
0.000000e+00
1.250000e+01
2.500000e+01
3.750000e+01
5.000000e+01
6.250000e+01
7.500000e+01
8.750000e+01
1.000000e+02
1.125000e+02
1.250000e+02
1.375000e+02
1.500000e+02
1.625000e+02
1.750000e+02
1.875000e+02
2.000000e+02
0.000000e+00
1.250000e+01
2.500000e+01
3.750000e+01
5.000000e+01
6.250000e+01
7.500000e+01
8.750000e+01
1.000000e+02
1.125000e+02
1.250000e+02
1.375000e+02
1.500000e+02
1.625000e+02
1.750000e+02
1.875000e+02
2.000000e+02
0.000000e+00
1.250000e+01
2.500000e+01
3.750000e+01
5.000000e+01
6.250000e+01
7.500000e+01
8.750000e+01
1.000000e+02
1.125000e+02
1.250000e+02
1.375000e+02
1.500000e+02
1.625000e+02
1.750000e+02
1.875000e+02
2.000000e+02
0.000000e+00
1.250000e+01
2.500000e+01
3.750000e+01
5.000000e+01
6.250000e+01
7.500000e+01
8.750000e+01
1.000000e+02
1.125000e+02
1.250000e+02
1.375000e+02
1.500000e+02
1.625000e+02
1.750000e+02
1.875000e+02
2.000000e+02
0.000000e+00
1.250000e+01
2.500000e+01
3.750000e+01
5.000000e+01
6.250000e+01
7.500000e+01
8.750000e+01
1.000000e+02
1.125000e+02
1.250000e+02
1.375000e+02
1.500000e+02
1.625000e+02
1.750000e+02
1.875000e+02
2.000000e+02
0.000000e+00
0.000000e+00
0.000000e+00
0.000000e+00
0.000000e+00
0.000000e+00
0.000000e+00
0.000000e+00
0.000000e+00
0.000000e+00
0.000000e+00
0.000000e+00
0.000000e+00
0.000000e+00
0.000000e+00
0.000000e+00
0.000000e+00
1.250000e+01
1.250000e+01
1.250000e+01
1.250000e+01
1.250000e+01
1.250000e+01
1.250000e+01
1.250000e+01
1.250000e+01
1.250000e+01
1.250000e+01
1.250000e+01
1.250000e+01
1.250000e+01
1.250000e+01
1.250000e+01
1.250000e+01
2.500000e+01
2.500000e+01
2.500000e+01
2.500000e+01
2.500000e+01
2.500000e+01
2.500000e+01
2.500000e+01
2.500000e+01
2.500000e+01
2.500000e+01
2.500000e+01
2.500000e+01
2.500000e+01
2.500000e+01
2.500000e+01
2.500000e+01
3.750000e+01
3.750000e+01
3.750000e+01
3.750000e+01
3.750000e+01
3.750000e+01
3.750000e+01
3.750000e+01
3.750000e+01
3.750000e+01
3.750000e+01
3.750000e+01
3.750000e+01
3.750000e+01
3.750000e+01
3.750000e+01
3.750000e+01
5.000000e+01
5.000000e+01
5.000000e+01
5.000000e+01
5.000000e+01
5.000000e+01
5.000000e+01
5.000000e+01
5.000000e+01
5.000000e+01
5.000000e+01
5.000000e+01
5.000000e+01
5.000000e+01
5.000000e+01
5.000000e+01
5.000000e+01
6.250000e+01
6.250000e+01
6.250000e+01
6.250000e+01
6.250000e+01
6.250000e+01
6.250000e+01
6.250000e+01
6.250000e+01
6.250000e+01
6.250000e+01
6.250000e+01
6.250000e+01
6.250000e+01
6.250000e+01
6.250000e+01
6.250000e+01
7.500000e+01
7.500000e+01
7.500000e+01
7.500000e+01
7.500000e+01
7.500000e+01
7.500000e+01
7.500000e+01
7.500000e+01
7.500000e+01
7.500000e+01
7.500000e+01
7.500000e+01
7.500000e+01
7.500000e+01
7.500000e+01
7.500000e+01
8.750000e+01
8.750000e+01
8.750000e+01
8.750000e+01
8.750000e+01
8.750000e+01
8.750000e+01
8.750000e+01
8.750000e+01
8.750000e+01
8.750000e+01
8.750000e+01
8.750000e+01
8.750000e+01
8.750000e+01
8.750000e+01
8.750000e+01
1.000000e+02
1.000000e+02
1.000000e+02
1.000000e+02
1.000000e+02
1.000000e+02
1.000000e+02
1.000000e+02
1.000000e+02
1.000000e+02
1.000000e+02
1.000000e+02
1.000000e+02
1.000000e+02
1.000000e+02
1.000000e+02
1.000000e+02
0.000000e+00
-9.654203e-01
-1.654765e+00
-2.386374e+00
-3.067799e+00
-3.721003e+00
-4.405373e+00
-5.062866e+00
-5.717194e+00
-6.376754e+00
-7.036505e+00
-7.692109e+00
-8.391132e+00
-9.173434e+00
-1.002419e+01
-1.075630e+01
-1.120862e+01
0.000000e+00
-4.461766e-01
-9.190542e-01
-1.425233e+00
-1.940205e+00
-2.426379e+00
-2.938212e+00
-3.439785e+00
-3.932336e+00
-4.434826e+00
-4.933162e+00
-5.423183e+00
-5.922167e+00
-6.435175e+00
-6.847066e+00
-6.955137e+00
-7.130435e+00
0.000000e+00
-1.671155e-01
-3.881283e-01
-6.855630e-01
-1.026071e+00
-1.353567e+00
-1.705820e+00
-2.054520e+00
-2.398895e+00
-2.748285e+00
-3.086218e+00
-3.404484e+00
-3.687806e+00
-3.904280e+00
-3.986660e+00
-3.974291e+00
-4.124938e+00
0.000000e+00
-8.173368e-02
-1.712316e-01
-3.152118e-01
-4.616362e-01
-6.340442e-01
-8.088354e-01
-9.812019e-01
-1.155250e+00
-1.320425e+00
-1.474492e+00
-1.600372e+00
-1.673305e+00
-1.669172e+00
-1.599177e+00
-1.587898e+00
-1.713136e+00
0.000000e+00
-2.418979e-03
-5.128863e-03
-7.554995e-03
-9.510513e-03
-1.002257e-02
-7.680289e-03
-1.194183e-03
1.142674e-02
3.357641e-02
6.817525e-02
1.247350e-01
2.128489e-01
3.298312e-01
4.414447e-01
4.677453e-01
3.663196e-01
0.000000e+00
7.759659e-02
1.630082e-01
3.021443e-01
4.448309e-01
6.157602e-01
7.939590e-01
9.770685e-01
1.174838e+00
1.379617e+00
1.598629e+00
1.825662e+00
2.043537e+00
2.233102e+00
2.362067e+00
2.391193e+00
2.326988e+00
0.000000e+00
1.654564e-01
3.848932e-01
6.799453e-01
1.017266e+00
1.343923e+00
1.696434e+00
2.050405e+00
2.411525e+00
2.785644e+00
3.157580e+00
3.528387e+00
3.862784e+00
4.123111e+00
4.287988e+00
4.342899e+00
4.324014e+00
0.000000e+00
4.459780e-01
9.197458e-01
1.425535e+00
1.938476e+00
2.425210e+00
2.934121e+00
3.429166e+00
3.919346e+00
4.408786e+00
4.884458e+00
5.358486e+00
5.794290e+00
6.126835e+00
6.334211e+00
6.424639e+00
6.440813e+00
0.000000e+00
9.659727e-01
1.658433e+00
2.392256e+00
3.074727e+00
3.731968e+00
4.416032e+00
5.061855e+00
5.703724e+00
6.325629e+00
6.923098e+00
7.517076e+00
8.048548e+00
8.426620e+00
8.622256e+00
8.675097e+00
8.675684e+00
0.000000e+00
-6.011185e-01
-1.312418e+00
-2.264438e+00
-3.387270e+00
-4.679786e+00
-6.154510e+00
-7.791996e+00
-9.599903e+00
-1.157970e+01
-1.372360e+01
-1.603364e+01
-1.853109e+01
-2.124019e+01
-2.418198e+01
-2.754592e+01
-3.255003e+01
0.000000e+00
-3.985041e-01
-1.144223e+00
-2.080604e+00
-3.215986e+00
-4.504476e+00
-5.977824e+00
-7.620495e+00
-9.427004e+00
-1.140750e+01
-1.355401e+01
-1.586413e+01
-1.835132e+01
-2.105929e+01
-2.405145e+01
-2.745580e+01
-3.152204e+01
0.000000e+00
-3.656916e-01
-1.042414e+00
-1.973265e+00
-3.094961e+00
-4.380773e+00
-5.853585e+00
-7.495811e+00
-9.305274e+00
-1.128910e+01
-1.344471e+01
-1.576649e+01
-1.826735e+01
-2.100098e+01
-2.404425e+01
-2.729542e+01
-3.031980e+01
0.000000e+00
-4.122176e-01
-1.031984e+00
-1.939593e+00
-3.028750e+00
-4.313600e+00
-5.784032e+00
-7.425031e+00
-9.242738e+00
-1.123371e+01
-1.340494e+01
-1.575186e+01
-1.827601e+01
-2.100730e+01
-2.398506e+01
-2.698037e+01
-2.957037e+01
0.000000e+00
-4.214691e-01
-1.047248e+00
-1.925639e+00
-3.015713e+00
-4.296219e+00
-5.768092e+00
-7.414653e+00
-9.238809e+00
-1.124084e+01
-1.342334e+01
-1.578997e+01
-1.832024e+01
-2.101057e+01
-2.384132e+01
-2.662024e+01
-2.896850e+01
0.000000e+00
-4.112654e-01
-1.032332e+00
-1.942404e+00
-3.035230e+00
-4.326758e+00
-5.807218e+00
-7.458212e+00
-9.293098e+00
-1.130030e+01
-1.348308e+01
-1.584747e+01
-1.836572e+01
-2.100304e+01
-2.370292e+01
-2.630670e+01
-2.854297e+01
0.000000e+00
-3.645478e-01
-1.043134e+00
-1.978091e+00
-3.105729e+00
-4.403424e+00
-5.893199e+00
-7.554560e+00
-9.391747e+00
-1.140151e+01
-1.357328e+01
-1.592089e+01
-1.841956e+01
-2.100980e+01
-2.361519e+01
-2.610535e+01
-2.832964e+01
0.000000e+00
-3.975338e-01
-1.144954e+00
-2.085574e+00
-3.228041e+00
-4.529493e+00
-6.022183e+00
-7.688299e+00
-9.524405e+00
-1.153262e+01
-1.369568e+01
-1.602656e+01
-1.850354e+01
-2.105428e+01
-2.359362e+01
-2.601806e+01
-2.827420e+01
0.000000e+00
-6.006813e-01
-1.313701e+00
-2.269454e+00
-3.399969e+00
-4.705533e+00
-6.198145e+00
-7.858913e+00
-9.694445e+00
-1.169584e+01
-1.385469e+01
-1.617696e+01
-1.862590e+01
-2.113146e+01
-2.361755e+01
-2.600246e+01
-2.827349e+01


0.000000e+00
1.492053e-05
2.486458e-05
3.697543e-05
5.231920e-05
6.562550e-05
8.000721e-05
9.471853e-05
1.084828e-04
1.234431e-04
1.379365e-04
1.521975e-04
1.689285e-04
1.811823e-04
1.875038e-04
1.919780e-04
1.980529e-04
0.000000e+00
1.103813e-05
1.973639e-05
2.850672e-05
4.110907e-05
5.165977e-05
6.191159e-05
7.305986e-05
8.327781e-05
9.397101e-05
1.038674e-04
1.134762e-04
1.241383e-04
1.302370e-04
1.298867e-04
1.332520e-04
1.388172e-04
0.000000e+00
9.153576e-06
1.518285e-05
2.092927e-05
3.002703e-05
3.697914e-05
4.345221e-05
5.077738e-05
5.698004e-05
6.319530e-05
6.850621e-05
7.292701e-05
7.687965e-05
7.749823e-05
7.648806e-05
7.892464e-05
8.337642e-05
0.000000e+00
4.967221e-06
7.197246e-06
1.077640e-05
1.498294e-05
1.768420e-05
2.124876e-05
2.434972e-05
2.662870e-05
2.894223e-05
3.017863e-05
2.997678e-05
2.872674e-05
2.724843e-05
2.761424e-05
3.086782e-05
3.621754e-05
0.000000e+00
-7.054140e-08
-1.782776e-07
-3.234785e-07
-5.178714e-07
-7.627669e-07
-1.079693e-06
-1.507177e-06
-2.140507e-06
-3.291890e-06
-5.232605e-06
-8.152759e-06
-1.100721e-05
-1.268622e-05
-1.212724e-05
-9.688288e-06
-6.099197e-06
0.000000e+00
-5.073277e-06
-7.467817e-06
-1.129767e-05
-1.582056e-05
-1.896725e-05
-2.300287e-05
-2.662685e-05
-2.976640e-05
-3.266265e-05
-3.562163e-05
-3.921025e-05
-4.257911e-05
-4.418194e-05
-4.514356e-05
-4.563984e-05
-4.452289e-05
0.000000e+00
-9.160015e-06
-1.523553e-05
-2.109574e-05
-3.043080e-05
-3.765485e-05
-4.431778e-05
-5.205611e-05
-5.807828e-05
-6.331306e-05
-6.825873e-05
-7.233142e-05
-7.560952e-05
-7.822018e-05
-8.013699e-05
-8.183958e-05
-8.246428e-05
0.000000e+00
-1.100509e-05
-1.968428e-05
-2.842433e-05
-4.108041e-05
-5.168674e-05
-6.184396e-05
-7.327979e-05
-8.337808e-05
-9.343657e-05
-1.035942e-04
-1.115097e-04
-1.165562e-04
-1.203318e-04
-1.226832e-04
-1.235409e-04
-1.237014e-04
0.000000e+00
-1.494788e-05
-2.484705e-05
-3.681629e-05
-5.199100e-05
-6.511050e-05
-7.909824e-05
-9.353319e-05
-1.073733e-04
-1.222294e-04
-1.387151e-04
-1.527540e-04
-1.619852e-04
-1.663806e-04
-1.677905e-04
-1.676322e-04
-1.673960e-04
0.000000e+00
1.237210e-05
1.991889e-05
3.193946e-05
4.734689e-05
6.403221e-05
8.558166e-05
1.110602e-04
1.399814e-04
1.737590e-04
2.113585e-04
2.541709e-04
3.028382e-04
3.537687e-04
4.125192e-04
4.798484e-04
5.488047e-04
0.000000e+00
7.383831e-06
1.585546e-05
2.590010e-05
4.094818e-05
5.821632e-05
7.931354e-05
1.049466e-04
1.339501e-04
1.675800e-04
2.055638e-04
2.480326e-04
2.969884e-04
3.506773e-04
4.084953e-04
4.730313e-04
5.390857e-04
0.000000e+00
3.957682e-06
1.185273e-05
2.112872e-05
3.545210e-05
5.334420e-05
7.463564e-05
1.001390e-04
1.294956e-04
1.633520e-04
2.014549e-04
2.442751e-04
2.937627e-04
3.494417e-04
4.049730e-04
4.656147e-04
5.290926e-04
0.000000e+00
2.687031e-06
9.740292e-06
1.909852e-05
3.322645e-05
5.129687e-05
7.276960e-05
9.845862e-05
1.280073e-04
1.618163e-04
2.001329e-04
2.431864e-04
2.932284e-04
3.484537e-04
4.025217e-04
4.577666e-04
5.151838e-04
0.000000e+00
2.258165e-06
9.163038e-06
1.861660e-05
3.269571e-05
5.073229e-05
7.223303e-05
9.800230e-05
1.277033e-04
1.613687e-04
1.994823e-04
2.435094e-04
2.936057e-04
3.488205e-04
4.016014e-04
4.515530e-04
5.009127e-04
0.000000e+00
2.775017e-06
9.871558e-06
1.924641e-05
3.334669e-05
5.136649e-05
7.268537e-05
9.825211e-05
1.278686e-04
1.612993e-04
1.998499e-04
2.451956e-04
2.958407e-04
3.492926e-04
4.019148e-04
4.495166e-04
4.920166e-04
0.000000e+00
4.079546e-06
1.206356e-05
2.137798e-05
3.566880e-05
5.345402e-05
7.440776e-05
9.969516e-05
1.287613e-04
1.622447e-04
2.017256e-04
2.483312e-04
2.990679e-04
3.506823e-04
4.011924e-04
4.478849e-04
4.895745e-04
0.000000e+00
7.497006e-06
1.608693e-05
2.621080e-05
4.124502e-05
5.835697e-05
7.916964e-05
1.043868e-04
1.327876e-04
1.661898e-04
2.060168e-04
2.520534e-04
3.018288e-04
3.519953e-04
4.008077e-04
4.467595e-04
4.900156e-04
0.000000e+00
1.248438e-05
2.014179e-05
3.225685e-05
4.767765e-05
6.418026e-05
8.548813e-05
1.105984e-04
1.387716e-04
1.725025e-04
2.122669e-04
2.562049e-04
3.040513e-04
3.527874e-04
4.008181e-04
4.464146e-04
4.902925e-04


4.334126e+00
4.410858e+00
4.630042e+00
4.121163e+00
3.765919e+00
3.908669e+00
4.023774e+00
4.244761e+00
4.591531e+00
5.012149e+00
5.581131e+00
6.663503e+00
7.979685e+00
8.572501e+00
7.728620e+00
6.559382e+00
6.667086e+00
6.710223e+00
6.710271e+00
6.459232e+00
6.180469e+00
6.277717e+00
6.350164e+00
6.443763e+00
6.660875e+00
6.871400e+00
7.171259e+00
7.734440e+00
8.418240e+00
8.464176e+00
7.095849e+00
5.379665e+00
8.702157e+00
8.666389e+00
8.683722e+00
8.517258e+00
8.457235e+00
8.484474e+00
8.481187e+00
8.504474e+00
8.538858e+00
8.576816e+00
8.568996e+00
8.585427e+00
8.598238e+00
8.190544e+00
6.760070e+00
5.241489e+00
9.275961e+00
9.263606e+00
9.255539e+00
9.213461e+00
9.198106e+00
9.194136e+00
9.177146e+00
9.155621e+00
9.111407e+00
9.005932e+00
8.746695e+00
8.256232e+00
7.852363e+00
7.572373e+00
7.067792e+00
6.560230e+00
9.274706e+00
9.260976e+00
9.250912e+00
9.204104e+00
9.184302e+00
9.174818e+00
9.146629e+00
9.108450e+00
9.008349e+00
8.753013e+00
8.234951e+00
7.482931e+00
7.016159e+00
7.225111e+00
7.705743e+00
7.933748e+00
8.694488e+00
8.655458e+00
8.659106e+00
8.469303e+00
8.385880e+00
8.384117e+00
8.341656e+00
8.299989e+00
8.113288e+00
7.808206e+00
7.515736e+00
7.207315e+00
7.260136e+00
7.819950e+00
8.489776e+00
8.853792e+00
6.650882e+00
6.691844e+00
6.675258e+00
6.388579e+00
6.079518e+00
6.132825e+00
6.163221e+00
6.175868e+00
6.149160e+00
6.258065e+00
6.807761e+00
7.545492e+00
8.141140e+00
8.694412e+00
9.072292e+00
9.233237e+00
4.312085e+00
4.398209e+00
4.610281e+00
4.077338e+00
3.707950e+00
3.827479e+00
3.928338e+00
4.152931e+00
4.409541e+00
5.098823e+00
6.507979e+00
7.874050e+00
8.696311e+00
9.094706e+00
9.274268e+00
9.345376e+00


-7.461510e-01
-2.027091e-01
-3.399874e-01
-2.562526e-01
-1.427126e-01
-2.567850e-01
-1.844316e-01
-1.624284e-01
-1.958350e-01
-1.890587e-01
-1.650597e-01
-2.692200e-01
-4.653995e-01
-3.601280e-01
3.773169e-01
-8.334571e-01
5.978745e-01
4.506106e-01
3.088049e-01
2.303864e-01
2.897095e-01
1.943969e-01
2.000787e-01
2.033587e-01
1.584830e-01
1.693755e-01
2.138432e-01
2.715990e-01
3.761116e-01
6.367613e-01
7.145886e-01
-1.051298e+00
7.599937e-01
5.353707e-01
2.334963e-01
1.707972e-01
1.452146e-01
8.147834e-02
1.000753e-01
1.062444e-01
1.187795e-01
1.561472e-01
2.295987e-01
3.321006e-01
3.909914e-01
2.416064e-01
4.376603e-02
-2.284560e-01
7.739554e-01
6.054862e-01
3.164702e-01
2.026501e-01
1.176391e-01
8.522717e-02
9.980600e-02
1.142000e-01
1.449100e-01
1.665055e-01
1.848453e-01
1.891517e-01
7.398763e-02
-2.563744e-01
-3.028268e-01
-3.592398e-02
7.760928e-01
6.079731e-01
3.204379e-01
2.047740e-01
1.143050e-01
7.138093e-02
7.584345e-02
6.755934e-02
7.986151e-02
8.138508e-02
5.618451e-02
2.747861e-02
-5.981318e-02
-1.959671e-01
-9.037978e-02
3.477944e-01
7.648151e-01
5.416068e-01
2.443232e-01
1.813000e-01
1.427679e-01
6.020097e-02
5.340928e-02
4.241410e-03
-2.839902e-02
-5.403100e-02
-1.211187e-01
-1.227623e-01
-5.929131e-02
6.253772e-02
3.499496e-01
7.540712e-01
6.010968e-01
4.522257e-01
3.130862e-01
2.372274e-01
2.846713e-01
1.845123e-01
1.739750e-01
1.257420e-01
4.464489e-02
-5.253739e-04
-1.003266e-01
-7.575706e-02
1.409563e-01
4.220496e-01
7.315427e-01
9.523932e-01
-7.462656e-01
-2.107639e-01
-3.438481e-01
-2.547163e-01
-1.525154e-01
-2.520424e-01
-1.531428e-01
-1.418636e-01
-1.125995e-01
-5.522022e-02
-6.958403e-02
8.940682e-02
4.661488e-01
7.872168e-01
9.546607e-01
9.988371e-01
1 2 19 18
2 3 20 19
3 4 21 20
4 5 22 21
5 6 23 22
6 7 24 23
7 8 25 24
8 9 26 25
9 10 27 26
10 11 28 27
11 12 29 28
12 13 30 29
13 14 31 30
14 15 32 31
15 16 33 32
16 17 34 33
18 19 36 35
19 20 37 36
20 21 38 37
21 22 39 38
22 23 40 39
23 24 41 40
24 25 42 41
25 26 43 42
26 27 44 43
27 28 45 44
28 29 46 45
29 30 47 46
30 31 48 47
31 32 49 48
32 33 50 49
33 34 51 50
35 36 53 52
36 37 54 53
37 38 55 54
38 39 56 55
39 40 57 56
40 41 58 57
41 42 59 58
42 43 60 59
43 44 61 60
44 45 62 61
45 46 63 62
46 47 64 63
47 48 65 64
48 49 66 65
49 50 67 66
50 51 68 67
52 53 70 69
53 54 71 70
54 55 72 71
55 56 73 72
56 57 74 73
57 58 75 74
58 59 76 75
59 60 77 76
60 61 78 77
61 62 79 78
62 63 80 79
63 64 81 80
64 65 82 81
65 66 83 82
66 67 84 83
67 68 85 84
69 70 87 86
70 71 88 87
71 72 89 88
72 73 90 89
73 74 91 90
74 75 92 91
75 76 93 92
76 77 94 93
77 78 95 94
78 79 96 95
79 80 97 96
80 81 98 97
81 82 99 98
82 83 100 99
83 84 101 100
84 85 102 101
86 87 104 103
87 88 105 104
88 89 106 105
89 90 107 106
90 91 108 107
91 92 109 108
92 93 110 109
93 94 111 110
94 95 112 111
95 96 113 112
96 97 114 113
97 98 115 114
98 99 116 115
99 100 117 116
100 101 118 117
101 102 119 118
103 104 121 120
104 105 122 121
105 106 123 122
106 107 124 123
107 108 125 124
108 109 126 125
109 110 127 126
110 111 128 127
111 112 129 128
112 113 130 129
113 114 131 130
114 115 132 131
115 116 133 132
116 117 134 133
117 118 135 134
118 119 136 135
120 121 138 137
121 122 139 138
122 123 140 139
123 124 141 140
124 125 142 141
125 126 143 142
126 127 144 143
127 128 145 144
128 129 146 145
129 130 147 146
130 131 148 147
131 132 149 148
132 133 150 149
133 134 151 150
134 135 152 151
135 136 153 152
