TITLE = "Solution"
VARIABLES = x, y, u, v, psiu, psiv, t, stress
ZONE T="structure" N=153 E=128 F=FEBLOCK ET=QUADRILATERAL VARLOCATION=([7,8]=cellcentered)
0.000000e+00
1.250000e+01
2.500000e+01
3.750000e+01
5.000000e+01
6.250000e+01
7.500000e+01
8.750000e+01
1.000000e+02
1.125000e+02
1.250000e+02
1.375000e+02
1.500000e+02
1.625000e+02
1.750000e+02
1.875000e+02
2.000000e+02
0.000000e+00
1.250000e+01
2.500000e+01
3.750000e+01
5.000000e+01
6.250000e+01
7.500000e+01
8.750000e+01
1.000000e+02
1.125000e+02
1.250000e+02
1.375000e+02
1.500000e+02
1.625000e+02
1.750000e+02
1.875000e+02
2.000000e+02
0.000000e+00
1.250000e+01
2.500000e+01
3.750000e+01
5.000000e+01
6.250000e+01
7.500000e+01
8.750000e+01
1.000000e+02
1.125000e+02
1.250000e+02
1.375000e+02
1.500000e+02
1.625000e+02
1.750000e+02
1.875000e+02
2.000000e+02
0.000000e+00
1.250000e+01
2.500000e+01
3.750000e+01
5.000000e+01
6.250000e+01
7.500000e+01
8.750000e+01
1.000000e+02
1.125000e+02
1.250000e+02
1.375000e+02
1.500000e+02
1.625000e+02
1.750000e+02
1.875000e+02
2.000000e+02
0.000000e+00
1.250000e+01
2.500000e+01
3.750000e+01
5.000000e+01
6.250000e+01
7.500000e+01
8.750000e+01
1.000000e+02
1.125000e+02
1.250000e+02
1.375000e+02
1.500000e+02
1.625000e+02
1.750000e+02
1.875000e+02
2.000000e+02
0.000000e+00
1.250000e+01
2.500000e+01
3.750000e+01
5.000000e+01
6.250000e+01
7.500000e+01
8.750000e+01
1.000000e+02
1.125000e+02
1.250000e+02
1.375000e+02
1.500000e+02
1.625000e+02
1.750000e+02
1.875000e+02
2.000000e+02
0.000000e+00
1.250000e+01
2.500000e+01
3.750000e+01
5.000000e+01
6.250000e+01
7.500000e+01
8.750000e+01
1.000000e+02
1.125000e+02
1.250000e+02
1.375000e+02
1.500000e+02
1.625000e+02
1.750000e+02
1.875000e+02
2.000000e+02
0.000000e+00
1.250000e+01
2.500000e+01
3.750000e+01
5.000000e+01
6.250000e+01
7.500000e+01
8.750000e+01
1.000000e+02
1.125000e+02
1.250000e+02
1.375000e+02
1.500000e+02
1.625000e+02
1.750000e+02
1.875000e+02
2.000000e+02
0.000000e+00
1.250000e+01
2.500000e+01
3.750000e+01
5.000000e+01
6.250000e+01
7.500000e+01
8.750000e+01
1.000000e+02
1.125000e+02
1.250000e+02
1.375000e+02
1.500000e+02
1.625000e+02
1.750000e+02
1.875000e+02
2.000000e+02
0.000000e+00
0.000000e+00
0.000000e+00
0.000000e+00
0.000000e+00
0.000000e+00
0.000000e+00
0.000000e+00
0.000000e+00
0.000000e+00
0.000000e+00
0.000000e+00
0.000000e+00
0.000000e+00
0.000000e+00
0.000000e+00
0.000000e+00
1.250000e+01
1.250000e+01
1.250000e+01
1.250000e+01
1.250000e+01
1.250000e+01
1.250000e+01
1.250000e+01
1.250000e+01
1.250000e+01
1.250000e+01
1.250000e+01
1.250000e+01
1.250000e+01
1.250000e+01
1.250000e+01
1.250000e+01
2.500000e+01
2.500000e+01
2.500000e+01
2.500000e+01
2.500000e+01
2.500000e+01
2.500000e+01
2.500000e+01
2.500000e+01
2.500000e+01
2.500000e+01
2.500000e+01
2.500000e+01
2.500000e+01
2.500000e+01
2.500000e+01
2.500000e+01
3.750000e+01
3.750000e+01
3.750000e+01
3.750000e+01
3.750000e+01
3.750000e+01
3.750000e+01
3.750000e+01
3.750000e+01
3.750000e+01
3.750000e+01
3.750000e+01
3.750000e+01
3.750000e+01
3.750000e+01
3.750000e+01
3.750000e+01
5.000000e+01
5.000000e+01
5.000000e+01
5.000000e+01
5.000000e+01
5.000000e+01
5.000000e+01
5.000000e+01
5.000000e+01
5.000000e+01
5.000000e+01
5.000000e+01
5.000000e+01
5.000000e+01
5.000000e+01
5.000000e+01
5.000000e+01
6.250000e+01
6.250000e+01
6.250000e+01
6.250000e+01
6.250000e+01
6.250000e+01
6.250000e+01
6.250000e+01
6.250000e+01
6.250000e+01
6.250000e+01
6.250000e+01
6.250000e+01
6.250000e+01
6.250000e+01
6.250000e+01
6.250000e+01
7.500000e+01
7.500000e+01
7.500000e+01
7.500000e+01
7.500000e+01
7.500000e+01
7.500000e+01
7.500000e+01
7.500000e+01
7.500000e+01
7.500000e+01
7.500000e+01
7.500000e+01
7.500000e+01
7.500000e+01
7.500000e+01
7.500000e+01
8.750000e+01
8.750000e+01
8.750000e+01
8.750000e+01
8.750000e+01
8.750000e+01
8.750000e+01
8.750000e+01
8.750000e+01
8.750000e+01
8.750000e+01
8.750000e+01
8.750000e+01
8.750000e+01
8.750000e+01
8.750000e+01
8.750000e+01
1.000000e+02
1.000000e+02
1.000000e+02
1.000000e+02
1.000000e+02
1.000000e+02
1.000000e+02
1.000000e+02
1.000000e+02
1.000000e+02
1.000000e+02
1.000000e+02
1.000000e+02
1.000000e+02
1.000000e+02
1.000000e+02
1.000000e+02
0.000000e+00
-9.327887e-01
-1.620522e+00
-2.331116e+00
-3.016217e+00
-3.672940e+00
-4.351744e+00
-5.016809e+00
-5.675311e+00
-6.341337e+00
-7.001802e+00
-7.675922e+00
-8.396248e+00
-9.155654e+00
-9.933546e+00
-1.063902e+01
-1.108931e+01
0.000000e+00
-4.504211e-01
-9.310913e-01
-1.435084e+00
-1.951601e+00
-2.442191e+00
-2.949982e+00
-3.452257e+00
-3.947320e+00
-4.447332e+00
-4.940914e+00
-5.433868e+00
-5.937524e+00
-6.422101e+00
-6.781108e+00
-6.873132e+00
-7.042628e+00
0.000000e+00
-1.933590e-01
-4.337161e-01
-7.404259e-01
-1.080076e+00
-1.410519e+00
-1.756560e+00
-2.100478e+00
-2.440276e+00
-2.779581e+00
-3.107314e+00
-3.414927e+00
-3.685709e+00
-3.880078e+00
-3.940881e+00
-3.921005e+00
-4.073325e+00
0.000000e+00
-8.695557e-02
-1.856906e-01
-3.288065e-01
-4.804239e-01
-6.492441e-01
-8.215092e-01
-9.917760e-01
-1.160095e+00
-1.320489e+00
-1.464845e+00
-1.578205e+00
-1.639076e+00
-1.629291e+00
-1.564157e+00
-1.559368e+00
-1.688285e+00
0.000000e+00
-1.780482e-03
-3.620836e-03
-5.176372e-03
-6.054503e-03
-5.418409e-03
-2.098397e-03
5.642762e-03
2.057135e-02
4.591906e-02
8.671777e-02
1.512806e-01
2.457969e-01
3.640732e-01
4.655005e-01
4.788197e-01
3.751188e-01
0.000000e+00
8.391162e-02
1.797118e-01
3.198397e-01
4.695907e-01
6.389544e-01
8.159174e-01
9.987146e-01
1.191760e+00
1.394765e+00
1.609249e+00
1.830249e+00
2.044683e+00
2.231423e+00
2.355041e+00
2.379667e+00
2.318037e+00
0.000000e+00
1.920319e-01
4.310303e-01
7.360402e-01
1.074187e+00
1.403921e+00
1.750776e+00
2.099899e+00
2.450088e+00
2.807154e+00
3.168333e+00
3.524684e+00
3.846002e+00
4.098865e+00
4.258516e+00
4.312916e+00
4.297135e+00
0.000000e+00
4.504944e-01
9.311836e-01
1.434548e+00
1.950496e+00
2.439856e+00
2.944256e+00
3.443935e+00
3.932092e+00
4.416167e+00
4.896463e+00
5.366737e+00
5.784527e+00
6.099930e+00
6.295192e+00
6.379992e+00
6.395526e+00
0.000000e+00
9.338438e-01
1.623049e+00
2.334868e+00
3.021462e+00
3.679250e+00
4.355239e+00
5.016351e+00
5.662067e+00
6.296313e+00
6.919422e+00
7.519315e+00
8.030906e+00
8.383781e+00
8.562229e+00
8.607960e+00
8.607391e+00
0.000000e+00
-5.800974e-01
-1.249992e+00
-2.142394e+00
-3.203624e+00
-4.432870e+00
-5.842513e+00
-7.420308e+00
-9.170741e+00
-1.109633e+01
-1.319246e+01
-1.546841e+01
-1.793934e+01
-2.061270e+01
-2.352178e+01
-2.686792e+01
-3.182167e+01
0.000000e+00
-3.797963e-01
-1.082116e+00
-1.960575e+00
-3.030257e+00
-4.258167e+00
-5.666131e+00
-7.247312e+00
-8.997608e+00
-1.092414e+01
-1.302215e+01
-1.529462e+01
-1.776094e+01
-2.044659e+01
-2.339961e+01
-2.677171e+01
-3.082925e+01
0.000000e+00
-3.388418e-01
-9.784126e-01
-1.849182e+00
-2.908733e+00
-4.134714e+00
-5.542390e+00
-7.123985e+00
-8.876893e+00
-1.080792e+01
-1.291366e+01
-1.519767e+01
-1.767975e+01
-2.039609e+01
-2.339199e+01
-2.660220e+01
-2.960523e+01
0.000000e+00
-3.696297e-01
-9.592610e-01
-1.805647e+00
-2.842360e+00
-4.066026e+00
-5.472860e+00
-7.055179e+00
-8.814013e+00
-1.075317e+01
-1.287412e+01
-1.518130e+01
-1.768439e+01
-2.040321e+01
-2.333787e+01
-2.627890e+01
-2.883581e+01
0.000000e+00
-3.794350e-01
-9.667469e-01
-1.793308e+00
-2.826750e+00
-4.048085e+00
-5.456798e+00
-7.043668e+00
-8.809319e+00
-1.075721e+01
-1.289237e+01
-1.521796e+01
-1.772670e+01
-2.040742e+01
-2.320454e+01
-2.592361e+01
-2.823555e+01
0.000000e+00
-3.693630e-01
-9.600406e-01
-1.808430e+00
-2.848638e+00
-4.077894e+00
-5.491949e+00
-7.085063e+00
-8.857716e+00
-1.081029e+01
-1.294993e+01
-1.527920e+01
-1.777688e+01
-2.040097e+01
-2.306943e+01
-2.562157e+01
-2.782457e+01
0.000000e+00
-3.385985e-01
-9.798150e-01
-1.853743e+00
-2.919003e+00
-4.154119e+00
-5.573999e+00
-7.173552e+00
-8.949245e+00
-1.090302e+01
-1.303857e+01
-1.535976e+01
-1.783794e+01
-2.040913e+01
-2.298203e+01
-2.543128e+01
-2.762725e+01
0.000000e+00
-3.796523e-01
-1.083590e+00
-1.965527e+00
-3.041522e+00
-4.279434e+00
-5.701594e+00
-7.302681e+00
-9.077848e+00
-1.103072e+01
-1.316144e+01
-1.547061e+01
-1.792527e+01
-2.045228e+01
-2.295948e+01
-2.534956e+01
-2.757900e+01
0.000000e+00
-5.802565e-01
-1.251673e+00
-2.147591e+00
-3.215202e+00
-4.454081e+00
-5.877806e+00
-7.474928e+00
-9.247310e+00
-1.119742e+01
-1.332460e+01
-1.562068e+01
-1.804349e+01
-2.052376e+01
-2.298036e+01
-2.533453e+01
-2.757946e+01


0.000000e+00
1.430867e-05
2.457322e-05
3.646922e-05
5.131834e-05
6.461460e-05
7.804822e-05
9.213458e-05
1.056073e-04
1.189111e-04
1.324325e-04
1.463709e-04
1.585110e-04
1.662540e-04
1.707468e-04
1.744503e-04
1.791659e-04
0.000000e+00
1.054008e-05
1.961434e-05
2.831160e-05
4.039845e-05
5.084641e-05
6.048874e-05
7.121648e-05
8.137781e-05
9.077844e-05
1.003923e-04
1.099465e-04
1.170764e-04
1.193117e-04
1.190262e-04
1.220876e-04
1.270849e-04
0.000000e+00
8.553751e-06
1.491593e-05
2.073257e-05
2.918990e-05
3.610457e-05
4.233311e-05
4.933544e-05
5.566453e-05
6.120797e-05
6.640464e-05
7.084108e-05
7.325627e-05
7.283947e-05
7.239917e-05
7.506588e-05
7.975636e-05
0.000000e+00
4.534617e-06
7.074641e-06
1.071683e-05
1.455371e-05
1.760306e-05
2.096822e-05
2.408230e-05
2.673456e-05
2.899667e-05
3.030527e-05
3.055432e-05
2.985408e-05
2.936118e-05
3.022611e-05
3.341235e-05
3.816656e-05
0.000000e+00
-4.747768e-08
-1.123315e-07
-1.936775e-07
-2.926782e-07
-4.159082e-07
-5.656947e-07
-7.574084e-07
-1.066933e-06
-1.595730e-06
-2.611642e-06
-4.118317e-06
-6.005112e-06
-7.214313e-06
-6.420826e-06
-4.228879e-06
-1.274226e-06
0.000000e+00
-4.613844e-06
-7.257546e-06
-1.103368e-05
-1.505807e-05
-1.830855e-05
-2.187781e-05
-2.531186e-05
-2.823571e-05
-3.088063e-05
-3.311615e-05
-3.493408e-05
-3.683557e-05
-3.852685e-05
-3.972573e-05
-4.010548e-05
-3.943779e-05
0.000000e+00
-8.578872e-06
-1.497679e-05
-2.089080e-05
-2.948673e-05
-3.649700e-05
-4.291982e-05
-5.008767e-05
-5.621778e-05
-6.166074e-05
-6.661563e-05
-6.966141e-05
-7.141405e-05
-7.318861e-05
-7.488747e-05
-7.618314e-05
-7.656466e-05
0.000000e+00
-1.052902e-05
-1.958607e-05
-2.830009e-05
-4.043287e-05
-5.084385e-05
-6.057294e-05
-7.141979e-05
-8.124292e-05
-9.076034e-05
-1.004569e-04
-1.076137e-04
-1.111537e-04
-1.132318e-04
-1.144432e-04
-1.149996e-04
-1.152023e-04
0.000000e+00
-1.431471e-05
-2.453321e-05
-3.634956e-05
-5.112275e-05
-6.425199e-05
-7.750068e-05
-9.153478e-05
-1.046657e-04
-1.180628e-04
-1.324659e-04
-1.443467e-04
-1.518095e-04
-1.550975e-04
-1.556989e-04
-1.553557e-04
-1.551553e-04
0.000000e+00
1.198035e-05
1.958600e-05
3.107553e-05
4.598278e-05
6.234217e-05
8.299247e-05
1.077686e-04
1.354823e-04
1.670255e-04
2.028028e-04
2.423849e-04
2.846080e-04
3.299415e-04
3.829055e-04
4.431272e-04
5.041671e-04
0.000000e+00
6.954554e-06
1.536198e-05
2.519033e-05
3.963610e-05
5.662273e-05
7.702610e-05
1.016954e-04
1.297452e-04
1.613772e-04
1.970578e-04
2.370058e-04
2.810218e-04
3.283112e-04
3.796052e-04
4.371519e-04
4.960223e-04
0.000000e+00
3.552912e-06
1.133435e-05
2.063755e-05
3.445478e-05
5.203130e-05
7.264584e-05
9.718037e-05
1.256522e-04
1.576044e-04
1.933526e-04
2.337264e-04
2.789624e-04
3.278172e-04
3.758794e-04
4.295017e-04
4.860411e-04
0.000000e+00
2.292908e-06
9.202213e-06
1.868970e-05
3.237723e-05
5.004660e-05
7.089101e-05
9.556288e-05
1.241839e-04
1.564613e-04
1.924815e-04
2.324930e-04
2.781710e-04
3.271400e-04
3.731159e-04
4.214349e-04
4.733808e-04
0.000000e+00
1.914041e-06
8.582716e-06
1.813328e-05
3.187019e-05
4.943313e-05
7.035286e-05
9.514556e-05
1.238078e-04
1.562781e-04
1.925427e-04
2.323677e-04
2.779289e-04
3.274152e-04
3.722985e-04
4.157917e-04
4.618266e-04
0.000000e+00
2.339590e-06
9.261612e-06
1.874209e-05
3.242066e-05
5.002653e-05
7.078442e-05
9.547047e-05
1.240415e-04
1.564219e-04
1.930918e-04
2.335184e-04
2.791564e-04
3.277923e-04
3.729908e-04
4.143886e-04
4.552331e-04
0.000000e+00
3.623257e-06
1.142777e-05
2.073259e-05
3.454238e-05
5.198554e-05
7.247096e-05
9.698973e-05
1.252365e-04
1.574375e-04
1.945300e-04
2.359133e-04
2.812269e-04
3.283346e-04
3.728457e-04
4.139302e-04
4.533124e-04
0.000000e+00
7.022558e-06
1.547587e-05
2.532637e-05
3.974881e-05
5.661488e-05
7.688347e-05
1.014135e-04
1.291987e-04
1.611335e-04
1.981540e-04
2.391503e-04
2.830496e-04
3.286973e-04
3.724427e-04
4.136921e-04
4.534215e-04
0.000000e+00
1.204506e-05
1.969972e-05
3.123109e-05
4.610801e-05
6.234858e-05
8.292072e-05
1.074810e-04
1.348941e-04
1.669671e-04
2.036948e-04
2.428314e-04
2.848466e-04
3.290160e-04
3.723255e-04
4.135493e-04
4.536101e-04


3.379511e+00
3.278707e+00
3.334851e+00
3.159811e+00
3.085311e+00
3.311719e+00
3.492532e+00
3.786010e+00
4.215317e+00
4.707919e+00
5.503069e+00
6.600285e+00
7.497834e+00
7.616465e+00
6.628284e+00
5.546986e+00
5.359967e+00
5.256106e+00
5.210887e+00
5.073637e+00
4.975501e+00
5.113216e+00
5.222779e+00
5.397876e+00
5.672689e+00
5.982392e+00
6.469687e+00
7.141405e+00
7.668249e+00
7.448419e+00
6.136566e+00
4.716471e+00
7.426320e+00
7.363728e+00
7.327915e+00
7.211499e+00
7.160692e+00
7.204438e+00
7.219990e+00
7.264839e+00
7.344578e+00
7.411439e+00
7.498322e+00
7.628196e+00
7.700719e+00
7.296537e+00
6.041462e+00
4.830244e+00
8.282062e+00
8.257824e+00
8.238570e+00
8.180785e+00
8.159747e+00
8.155957e+00
8.132426e+00
8.104843e+00
8.061600e+00
7.963528e+00
7.773398e+00
7.529187e+00
7.370543e+00
7.161242e+00
6.625755e+00
6.098814e+00
8.280916e+00
8.255413e+00
8.234084e+00
8.173259e+00
8.148543e+00
8.138499e+00
8.105950e+00
8.060139e+00
7.976810e+00
7.820752e+00
7.552220e+00
7.222156e+00
7.086625e+00
7.200834e+00
7.323230e+00
7.329695e+00
7.421198e+00
7.354465e+00
7.309619e+00
7.182254e+00
7.116575e+00
7.139426e+00
7.131499e+00
7.123499e+00
7.110628e+00
7.115910e+00
7.140214e+00
7.138225e+00
7.251628e+00
7.563340e+00
7.887293e+00
8.054608e+00
5.351860e+00
5.241865e+00
5.185250e+00
5.034644e+00
4.916437e+00
5.031041e+00
5.126086e+00
5.251651e+00
5.489251e+00
5.932026e+00
6.588089e+00
7.198035e+00
7.637281e+00
7.996800e+00
8.257310e+00
8.378829e+00
3.371776e+00
3.267692e+00
3.315949e+00
3.134824e+00
3.048780e+00
3.263251e+00
3.458386e+00
3.749116e+00
4.231099e+00
5.062501e+00
6.224896e+00
7.250622e+00
7.880185e+00
8.229803e+00
8.414891e+00
8.491400e+00


-6.794247e-01
-2.128980e-01
-2.917225e-01
-2.665748e-01
-1.585018e-01
-2.375724e-01
-2.010307e-01
-1.759791e-01
-2.028835e-01
-1.806664e-01
-2.071412e-01
-3.198092e-01
-3.458071e-01
-1.055057e-01
4.364987e-01
-7.815100e-01
5.748699e-01
4.292300e-01
3.155200e-01
2.462697e-01
2.959675e-01
2.329751e-01
2.309648e-01
2.343367e-01
2.107205e-01
2.280874e-01
2.597728e-01
3.136564e-01
4.698796e-01
7.294153e-01
7.298395e-01
-1.149633e+00
7.927816e-01
6.080482e-01
3.995119e-01
3.405498e-01
3.272700e-01
2.857983e-01
2.875388e-01
2.913571e-01
2.933680e-01
3.231595e-01
3.748197e-01
4.396089e-01
4.709003e-01
3.417263e-01
1.083285e-01
-2.781429e-01
8.228875e-01
6.712229e-01
4.559558e-01
3.548729e-01
2.956560e-01
2.690148e-01
2.709141e-01
2.797125e-01
2.907252e-01
2.981699e-01
2.888565e-01
2.392142e-01
9.055167e-02
-1.681755e-01
-1.797988e-01
-5.622483e-03
8.242279e-01
6.728415e-01
4.579877e-01
3.546160e-01
2.903537e-01
2.554077e-01
2.422296e-01
2.296393e-01
2.141038e-01
1.775241e-01
1.078618e-01
1.108315e-02
-1.153279e-01
-1.911305e-01
-9.638225e-03
3.942932e-01
7.958544e-01
6.120611e-01
4.050474e-01
3.427628e-01
3.202317e-01
2.635221e-01
2.340259e-01
1.927700e-01
1.328098e-01
5.228063e-02
-4.389605e-02
-9.332685e-02
-6.191545e-02
8.961943e-02
4.037938e-01
7.820964e-01
5.768417e-01
4.311996e-01
3.184688e-01
2.472774e-01
2.933206e-01
2.244717e-01
2.017185e-01
1.826306e-01
1.252113e-01
5.005173e-02
-2.540078e-02
1.705594e-02
2.071185e-01
4.757877e-01
7.640039e-01
9.598440e-01
-6.816896e-01
-2.159329e-01
-2.931378e-01
-2.689112e-01
-1.588973e-01
-2.270482e-01
-1.917029e-01
-1.438673e-01
-1.228888e-01
-1.087553e-01
-6.588114e-02
1.627163e-01
5.256494e-01
8.149301e-01
9.618846e-01
9.991509e-01
1 2 19 18
2 3 20 19
3 4 21 20
4 5 22 21
5 6 23 22
6 7 24 23
7 8 25 24
8 9 26 25
9 10 27 26
10 11 28 27
11 12 29 28
12 13 30 29
13 14 31 30
14 15 32 31
15 16 33 32
16 17 34 33
18 19 36 35
19 20 37 36
20 21 38 37
21 22 39 38
22 23 40 39
23 24 41 40
24 25 42 41
25 26 43 42
26 27 44 43
27 28 45 44
28 29 46 45
29 30 47 46
30 31 48 47
31 32 49 48
32 33 50 49
33 34 51 50
35 36 53 52
36 37 54 53
37 38 55 54
38 39 56 55
39 40 57 56
40 41 58 57
41 42 59 58
42 43 60 59
43 44 61 60
44 45 62 61
45 46 63 62
46 47 64 63
47 48 65 64
48 49 66 65
49 50 67 66
50 51 68 67
52 53 70 69
53 54 71 70
54 55 72 71
55 56 73 72
56 57 74 73
57 58 75 74
58 59 76 75
59 60 77 76
60 61 78 77
61 62 79 78
62 63 80 79
63 64 81 80
64 65 82 81
65 66 83 82
66 67 84 83
67 68 85 84
69 70 87 86
70 71 88 87
71 72 89 88
72 73 90 89
73 74 91 90
74 75 92 91
75 76 93 92
76 77 94 93
77 78 95 94
78 79 96 95
79 80 97 96
80 81 98 97
81 82 99 98
82 83 100 99
83 84 101 100
84 85 102 101
86 87 104 103
87 88 105 104
88 89 106 105
89 90 107 106
90 91 108 107
91 92 109 108
92 93 110 109
93 94 111 110
94 95 112 111
95 96 113 112
96 97 114 113
97 98 115 114
98 99 116 115
99 100 117 116
100 101 118 117
101 102 119 118
103 104 121 120
104 105 122 121
105 106 123 122
106 107 124 123
107 108 125 124
108 109 126 125
109 110 127 126
110 111 128 127
111 112 129 128
112 113 130 129
113 114 131 130
114 115 132 131
115 116 133 132
116 117 134 133
117 118 135 134
118 119 136 135
120 121 138 137
121 122 139 138
122 123 140 139
123 124 141 140
124 125 142 141
125 126 143 142
126 127 144 143
127 128 145 144
128 129 146 145
129 130 147 146
130 131 148 147
131 132 149 148
132 133 150 149
133 134 151 150
134 135 152 151
135 136 153 152
