TITLE = "Solution"
VARIABLES = x, y, u, v, psiu, psiv, t, stress
ZONE T="structure" N=153 E=128 F=FEBLOCK ET=QUADRILATERAL VARLOCATION=([7,8]=cellcentered)
0.000000e+00
1.250000e+01
2.500000e+01
3.750000e+01
5.000000e+01
6.250000e+01
7.500000e+01
8.750000e+01
1.000000e+02
1.125000e+02
1.250000e+02
1.375000e+02
1.500000e+02
1.625000e+02
1.750000e+02
1.875000e+02
2.000000e+02
0.000000e+00
1.250000e+01
2.500000e+01
3.750000e+01
5.000000e+01
6.250000e+01
7.500000e+01
8.750000e+01
1.000000e+02
1.125000e+02
1.250000e+02
1.375000e+02
1.500000e+02
1.625000e+02
1.750000e+02
1.875000e+02
2.000000e+02
0.000000e+00
1.250000e+01
2.500000e+01
3.750000e+01
5.000000e+01
6.250000e+01
7.500000e+01
8.750000e+01
1.000000e+02
1.125000e+02
1.250000e+02
1.375000e+02
1.500000e+02
1.625000e+02
1.750000e+02
1.875000e+02
2.000000e+02
0.000000e+00
1.250000e+01
2.500000e+01
3.750000e+01
5.000000e+01
6.250000e+01
7.500000e+01
8.750000e+01
1.000000e+02
1.125000e+02
1.250000e+02
1.375000e+02
1.500000e+02
1.625000e+02
1.750000e+02
1.875000e+02
2.000000e+02
0.000000e+00
1.250000e+01
2.500000e+01
3.750000e+01
5.000000e+01
6.250000e+01
7.500000e+01
8.750000e+01
1.000000e+02
1.125000e+02
1.250000e+02
1.375000e+02
1.500000e+02
1.625000e+02
1.750000e+02
1.875000e+02
2.000000e+02
0.000000e+00
1.250000e+01
2.500000e+01
3.750000e+01
5.000000e+01
6.250000e+01
7.500000e+01
8.750000e+01
1.000000e+02
1.125000e+02
1.250000e+02
1.375000e+02
1.500000e+02
1.625000e+02
1.750000e+02
1.875000e+02
2.000000e+02
0.000000e+00
1.250000e+01
2.500000e+01
3.750000e+01
5.000000e+01
6.250000e+01
7.500000e+01
8.750000e+01
1.000000e+02
1.125000e+02
1.250000e+02
1.375000e+02
1.500000e+02
1.625000e+02
1.750000e+02
1.875000e+02
2.000000e+02
0.000000e+00
1.250000e+01
2.500000e+01
3.750000e+01
5.000000e+01
6.250000e+01
7.500000e+01
8.750000e+01
1.000000e+02
1.125000e+02
1.250000e+02
1.375000e+02
1.500000e+02
1.625000e+02
1.750000e+02
1.875000e+02
2.000000e+02
0.000000e+00
1.250000e+01
2.500000e+01
3.750000e+01
5.000000e+01
6.250000e+01
7.500000e+01
8.750000e+01
1.000000e+02
1.125000e+02
1.250000e+02
1.375000e+02
1.500000e+02
1.625000e+02
1.750000e+02
1.875000e+02
2.000000e+02
0.000000e+00
0.000000e+00
0.000000e+00
0.000000e+00
0.000000e+00
0.000000e+00
0.000000e+00
0.000000e+00
0.000000e+00
0.000000e+00
0.000000e+00
0.000000e+00
0.000000e+00
0.000000e+00
0.000000e+00
0.000000e+00
0.000000e+00
1.250000e+01
1.250000e+01
1.250000e+01
1.250000e+01
1.250000e+01
1.250000e+01
1.250000e+01
1.250000e+01
1.250000e+01
1.250000e+01
1.250000e+01
1.250000e+01
1.250000e+01
1.250000e+01
1.250000e+01
1.250000e+01
1.250000e+01
2.500000e+01
2.500000e+01
2.500000e+01
2.500000e+01
2.500000e+01
2.500000e+01
2.500000e+01
2.500000e+01
2.500000e+01
2.500000e+01
2.500000e+01
2.500000e+01
2.500000e+01
2.500000e+01
2.500000e+01
2.500000e+01
2.500000e+01
3.750000e+01
3.750000e+01
3.750000e+01
3.750000e+01
3.750000e+01
3.750000e+01
3.750000e+01
3.750000e+01
3.750000e+01
3.750000e+01
3.750000e+01
3.750000e+01
3.750000e+01
3.750000e+01
3.750000e+01
3.750000e+01
3.750000e+01
5.000000e+01
5.000000e+01
5.000000e+01
5.000000e+01
5.000000e+01
5.000000e+01
5.000000e+01
5.000000e+01
5.000000e+01
5.000000e+01
5.000000e+01
5.000000e+01
5.000000e+01
5.000000e+01
5.000000e+01
5.000000e+01
5.000000e+01
6.250000e+01
6.250000e+01
6.250000e+01
6.250000e+01
6.250000e+01
6.250000e+01
6.250000e+01
6.250000e+01
6.250000e+01
6.250000e+01
6.250000e+01
6.250000e+01
6.250000e+01
6.250000e+01
6.250000e+01
6.250000e+01
6.250000e+01
7.500000e+01
7.500000e+01
7.500000e+01
7.500000e+01
7.500000e+01
7.500000e+01
7.500000e+01
7.500000e+01
7.500000e+01
7.500000e+01
7.500000e+01
7.500000e+01
7.500000e+01
7.500000e+01
7.500000e+01
7.500000e+01
7.500000e+01
8.750000e+01
8.750000e+01
8.750000e+01
8.750000e+01
8.750000e+01
8.750000e+01
8.750000e+01
8.750000e+01
8.750000e+01
8.750000e+01
8.750000e+01
8.750000e+01
8.750000e+01
8.750000e+01
8.750000e+01
8.750000e+01
8.750000e+01
1.000000e+02
1.000000e+02
1.000000e+02
1.000000e+02
1.000000e+02
1.000000e+02
1.000000e+02
1.000000e+02
1.000000e+02
1.000000e+02
1.000000e+02
1.000000e+02
1.000000e+02
1.000000e+02
1.000000e+02
1.000000e+02
1.000000e+02
0.000000e+00
-9.923818e-01
-1.297665e+00
-1.467946e+00
-1.736345e+00
-2.365217e+00
-3.128863e+00
-3.764172e+00
-4.346126e+00
-4.881239e+00
-5.364716e+00
-5.802607e+00
-6.209203e+00
-6.608789e+00
-7.042272e+00
-7.557882e+00
-7.937226e+00
0.000000e+00
-5.797491e-01
-7.819431e-01
-9.006274e-01
-1.065579e+00
-1.554804e+00
-2.107335e+00
-2.577049e+00
-3.006962e+00
-3.405221e+00
-3.764569e+00
-4.082830e+00
-4.359852e+00
-4.590156e+00
-4.750736e+00
-4.786035e+00
-4.905553e+00
0.000000e+00
-2.231032e-01
-3.259735e-01
-4.264027e-01
-5.928109e-01
-9.572221e-01
-1.247622e+00
-1.528587e+00
-1.798532e+00
-2.050389e+00
-2.274278e+00
-2.461493e+00
-2.602323e+00
-2.682434e+00
-2.686789e+00
-2.658030e+00
-2.781004e+00
0.000000e+00
-1.984164e-02
-6.343804e-02
-1.271643e-01
-2.470912e-01
-3.361682e-01
-4.465104e-01
-5.584977e-01
-6.733261e-01
-7.817952e-01
-8.737585e-01
-9.398453e-01
-9.714051e-01
-9.640209e-01
-9.333015e-01
-9.410553e-01
-1.034467e+00
0.000000e+00
7.496415e-02
1.336507e-01
1.811405e-01
2.436133e-01
2.977876e-01
3.479194e-01
3.844786e-01
4.132184e-01
4.385662e-01
4.667384e-01
5.036090e-01
5.519873e-01
6.060830e-01
6.437631e-01
6.347344e-01
5.716485e-01
0.000000e+00
1.921120e-01
3.758135e-01
5.723019e-01
7.699533e-01
9.757577e-01
1.166121e+00
1.342683e+00
1.504266e+00
1.652189e+00
1.787748e+00
1.911979e+00
2.022926e+00
2.112218e+00
2.165088e+00
2.169782e+00
2.137341e+00
0.000000e+00
3.327131e-01
6.713607e-01
1.005920e+00
1.350869e+00
1.697938e+00
2.036358e+00
2.349915e+00
2.639302e+00
2.902998e+00
3.137827e+00
3.340449e+00
3.506712e+00
3.630523e+00
3.705174e+00
3.729527e+00
3.721919e+00
0.000000e+00
5.196695e-01
1.040526e+00
1.525533e+00
2.007963e+00
2.494745e+00
2.982368e+00
3.437836e+00
3.856875e+00
4.237192e+00
4.570801e+00
4.849797e+00
5.068339e+00
5.223178e+00
5.315991e+00
5.355664e+00
5.362957e+00
0.000000e+00
8.864898e-01
1.522113e+00
2.159349e+00
2.764012e+00
3.399289e+00
4.034275e+00
4.637325e+00
5.195436e+00
5.702414e+00
6.143927e+00
6.505838e+00
6.777005e+00
6.951747e+00
7.036613e+00
7.057605e+00
7.057203e+00
0.000000e+00
-4.929457e-01
-9.399791e-01
-1.499719e+00
-2.192651e+00
-3.155015e+00
-4.220249e+00
-5.417659e+00
-6.772021e+00
-8.260482e+00
-9.867181e+00
-1.158156e+01
-1.340014e+01
-1.533525e+01
-1.744797e+01
-1.992947e+01
-2.367465e+01
0.000000e+00
-3.660705e-01
-8.909927e-01
-1.451692e+00
-2.093866e+00
-2.980373e+00
-4.041480e+00
-5.263047e+00
-6.628301e+00
-8.129545e+00
-9.750107e+00
-1.147763e+01
-1.330769e+01
-1.525296e+01
-1.736766e+01
-1.983417e+01
-2.294359e+01
0.000000e+00
-3.298153e-01
-8.487286e-01
-1.399907e+00
-2.026781e+00
-2.891307e+00
-3.941392e+00
-5.165222e+00
-6.536635e+00
-8.046114e+00
-9.678517e+00
-1.142114e+01
-1.326955e+01
-1.523442e+01
-1.735314e+01
-1.966792e+01
-2.188662e+01
0.000000e+00
-3.056595e-01
-7.986856e-01
-1.326726e+00
-2.003842e+00
-2.859448e+00
-3.912748e+00
-5.127628e+00
-6.498760e+00
-8.012588e+00
-9.654103e+00
-1.140997e+01
-1.327217e+01
-1.523943e+01
-1.730602e+01
-1.939475e+01
-2.127371e+01
0.000000e+00
-2.871434e-01
-7.346738e-01
-1.299867e+00
-2.006551e+00
-2.881090e+00
-3.927429e+00
-5.139638e+00
-6.508071e+00
-8.022838e+00
-9.668987e+00
-1.143093e+01
-1.329334e+01
-1.523750e+01
-1.722372e+01
-1.916231e+01
-2.090066e+01
0.000000e+00
-2.744440e-01
-7.251682e-01
-1.318712e+00
-2.046171e+00
-2.931311e+00
-3.978804e+00
-5.188650e+00
-6.554585e+00
-8.067384e+00
-9.712778e+00
-1.147217e+01
-1.332246e+01
-1.523151e+01
-1.714954e+01
-1.900156e+01
-2.068926e+01
0.000000e+00
-2.855615e-01
-7.702851e-01
-1.383664e+00
-2.126280e+00
-3.016037e+00
-4.063413e+00
-5.270581e+00
-6.631818e+00
-8.139210e+00
-9.778342e+00
-1.152815e+01
-1.336018e+01
-1.523577e+01
-1.710454e+01
-1.890920e+01
-2.059514e+01
0.000000e+00
-3.532366e-01
-8.810954e-01
-1.498681e+00
-2.250762e+00
-3.140245e+00
-4.186205e+00
-5.386370e+00
-6.739214e+00
-8.236562e+00
-9.863648e+00
-1.159817e+01
-1.340965e+01
-1.525752e+01
-1.709315e+01
-1.887080e+01
-2.057296e+01
0.000000e+00
-5.465708e-01
-1.041217e+00
-1.663925e+00
-2.415140e+00
-3.309672e+00
-4.350919e+00
-5.540500e+00
-6.880792e+00
-8.363246e+00
-9.971848e+00
-1.168450e+01
-1.347105e+01
-1.529221e+01
-1.710275e+01
-1.886376e+01
-2.057331e+01


0.000000e+00
-2.771632e-05
-4.577473e-05
-5.535691e-05
-6.400310e-05
-7.363907e-05
-7.215017e-05
-6.679923e-05
-6.290756e-05
-6.034862e-05
-5.866927e-05
-5.759834e-05
-5.686812e-05
-5.627996e-05
-5.569175e-05
-5.488578e-05
-5.386347e-05
0.000000e+00
-2.322127e-05
-3.873078e-05
-4.776471e-05
-5.482424e-05
-6.114442e-05
-5.739580e-05
-5.103882e-05
-4.800565e-05
-4.645147e-05
-4.547149e-05
-4.490753e-05
-4.460618e-05
-4.450474e-05
-4.439195e-05
-4.375906e-05
-4.268350e-05
0.000000e+00
-1.646694e-05
-2.937646e-05
-3.795294e-05
-4.261111e-05
-4.348144e-05
-4.030841e-05
-3.646479e-05
-3.452854e-05
-3.336659e-05
-3.271270e-05
-3.240620e-05
-3.230202e-05
-3.229596e-05
-3.219118e-05
-3.165811e-05
-3.075441e-05
0.000000e+00
-6.726117e-06
-1.570314e-05
-2.043543e-05
-2.330309e-05
-2.417498e-05
-2.323953e-05
-2.236114e-05
-2.129336e-05
-2.053449e-05
-2.011548e-05
-1.991956e-05
-1.984394e-05
-1.977865e-05
-1.963347e-05
-1.930964e-05
-1.879073e-05
0.000000e+00
-1.861923e-06
-4.158223e-06
-6.295766e-06
-7.306732e-06
-7.388496e-06
-7.490029e-06
-7.475160e-06
-7.413474e-06
-7.309580e-06
-7.244880e-06
-7.215513e-06
-7.185338e-06
-7.119842e-06
-7.023980e-06
-6.895213e-06
-6.664822e-06
0.000000e+00
1.469700e-06
5.556732e-06
6.888579e-06
8.724763e-06
8.969490e-06
8.359635e-06
7.454632e-06
6.648456e-06
6.088326e-06
5.769680e-06
5.606266e-06
5.544795e-06
5.541801e-06
5.551922e-06
5.570733e-06
5.654379e-06
0.000000e+00
3.205664e-06
1.512486e-05
2.551154e-05
2.777834e-05
2.743661e-05
2.479412e-05
2.218071e-05
2.042010e-05
1.933670e-05
1.870384e-05
1.837326e-05
1.820570e-05
1.812104e-05
1.806891e-05
1.804305e-05
1.806400e-05
0.000000e+00
1.820849e-06
2.279308e-05
4.217310e-05
4.698883e-05
4.614307e-05
4.166295e-05
3.721608e-05
3.442202e-05
3.276131e-05
3.174636e-05
3.116438e-05
3.082804e-05
3.063349e-05
3.052212e-05
3.046846e-05
3.046020e-05
0.000000e+00
4.694667e-06
2.964595e-05
5.121199e-05
6.056894e-05
6.182151e-05
5.782468e-05
5.285009e-05
4.912381e-05
4.660550e-05
4.498555e-05
4.399344e-05
4.339901e-05
4.305570e-05
4.287684e-05
4.280892e-05
4.279752e-05
0.000000e+00
-1.916261e-05
-2.876728e-05
-3.901754e-05
-5.132179e-05
-6.509781e-05
-7.478820e-05
-8.813338e-05
-1.031038e-04
-1.170403e-04
-1.301845e-04
-1.429006e-04
-1.552639e-04
-1.672011e-04
-1.781157e-04
-1.875511e-04
-1.966239e-04
0.000000e+00
-1.021048e-05
-2.334919e-05
-3.517380e-05
-4.757600e-05
-6.316157e-05
-7.749256e-05
-9.069984e-05
-1.045720e-04
-1.178806e-04
-1.307024e-04
-1.432022e-04
-1.554442e-04
-1.673806e-04
-1.787595e-04
-1.889060e-04
-1.983773e-04
0.000000e+00
-3.922795e-06
-1.737312e-05
-3.118919e-05
-4.518693e-05
-6.278444e-05
-7.917540e-05
-9.280977e-05
-1.057023e-04
-1.185267e-04
-1.310711e-04
-1.433883e-04
-1.555300e-04
-1.675315e-04
-1.794265e-04
-1.904016e-04
-2.005276e-04
0.000000e+00
-1.340757e-06
-1.287499e-05
-2.811940e-05
-4.447902e-05
-6.263493e-05
-7.930851e-05
-9.350963e-05
-1.064047e-04
-1.189718e-04
-1.313177e-04
-1.435098e-04
-1.556062e-04
-1.676829e-04
-1.798243e-04
-1.914074e-04
-2.023134e-04
0.000000e+00
-4.537656e-07
-9.860307e-06
-2.578754e-05
-4.385812e-05
-6.228283e-05
-7.899893e-05
-9.354317e-05
-1.066983e-04
-1.192017e-04
-1.314535e-04
-1.435869e-04
-1.556749e-04
-1.677899e-04
-1.799618e-04
-1.918620e-04
-2.034652e-04
0.000000e+00
3.504945e-07
-7.963682e-06
-2.458873e-05
-4.395776e-05
-6.233268e-05
-7.888277e-05
-9.337181e-05
-1.065641e-04
-1.191384e-04
-1.314198e-04
-1.435717e-04
-1.556844e-04
-1.678148e-04
-1.799704e-04
-1.920334e-04
-2.040755e-04
0.000000e+00
3.223325e-07
-8.022067e-06
-2.552948e-05
-4.454034e-05
-6.226185e-05
-7.843166e-05
-9.276316e-05
-1.060453e-04
-1.187994e-04
-1.312189e-04
-1.434599e-04
-1.556283e-04
-1.677832e-04
-1.799478e-04
-1.921076e-04
-2.043446e-04
0.000000e+00
-2.883358e-06
-1.448207e-05
-3.036250e-05
-4.532231e-05
-6.137097e-05
-7.667310e-05
-9.121675e-05
-1.050358e-04
-1.181853e-04
-1.308569e-04
-1.432624e-04
-1.555234e-04
-1.677276e-04
-1.799224e-04
-1.921391e-04
-2.044306e-04
0.000000e+00
-9.340000e-06
-2.577125e-05
-3.715727e-05
-4.714107e-05
-6.016344e-05
-7.421238e-05
-8.910034e-05
-1.036861e-04
-1.173552e-04
-1.303661e-04
-1.429877e-04
-1.553755e-04
-1.676522e-04
-1.798905e-04
-1.921415e-04
-2.044431e-04


7.848499e+00
5.979804e+00
4.441333e+00
5.042979e+00
4.438408e+00
3.385547e+00
3.107677e+00
3.271952e+00
3.442766e+00
3.543536e+00
3.611870e+00
3.662220e+00
3.677787e+00
3.622424e+00
3.504168e+00
3.413896e+00
6.437291e+00
4.834543e+00
4.223300e+00
4.407262e+00
4.235079e+00
3.356908e+00
3.178516e+00
3.293334e+00
3.456609e+00
3.561769e+00
3.628767e+00
3.672998e+00
3.682475e+00
3.623096e+00
3.506316e+00
3.418044e+00
5.015220e+00
4.453442e+00
4.126784e+00
4.407121e+00
3.992630e+00
3.590129e+00
3.385206e+00
3.428617e+00
3.534081e+00
3.610310e+00
3.658913e+00
3.687652e+00
3.690287e+00
3.641167e+00
3.548133e+00
3.480412e+00
4.270025e+00
4.182813e+00
4.219267e+00
4.172810e+00
3.929761e+00
3.719180e+00
3.600347e+00
3.583557e+00
3.618232e+00
3.652613e+00
3.677597e+00
3.692861e+00
3.694716e+00
3.668855e+00
3.618623e+00
3.582063e+00
3.868317e+00
3.910794e+00
3.928171e+00
3.864165e+00
3.775080e+00
3.695277e+00
3.631442e+00
3.617837e+00
3.635322e+00
3.657445e+00
3.676430e+00
3.690131e+00
3.696787e+00
3.691318e+00
3.674739e+00
3.662176e+00
3.850888e+00
3.759539e+00
3.783643e+00
3.537593e+00
3.587738e+00
3.528248e+00
3.509699e+00
3.534344e+00
3.582516e+00
3.625427e+00
3.658408e+00
3.682895e+00
3.698649e+00
3.706044e+00
3.707069e+00
3.706358e+00
3.503076e+00
3.810521e+00
3.759675e+00
3.586909e+00
3.225624e+00
3.338892e+00
3.357394e+00
3.421563e+00
3.508702e+00
3.580656e+00
3.633278e+00
3.672804e+00
3.699239e+00
3.714613e+00
3.722673e+00
3.726006e+00
3.352157e+00
3.748220e+00
4.453802e+00
3.672227e+00
3.191188e+00
3.205017e+00
3.282343e+00
3.365533e+00
3.472525e+00
3.558060e+00
3.620056e+00
3.667568e+00
3.699828e+00
3.718768e+00
3.728766e+00
3.733059e+00


-1.121303e+00
7.698721e-01
9.254899e-01
8.297492e-01
-1.179276e-01
-5.230911e-01
-8.159111e-02
9.564490e-02
2.312184e-01
3.739182e-01
4.978396e-01
5.926742e-01
6.575824e-01
6.932782e-01
7.282033e-01
-1.536808e-01
4.221259e-01
8.996408e-01
9.423746e-01
8.614720e-01
2.104738e-01
2.329427e-01
4.047652e-01
4.894786e-01
5.590537e-01
6.435001e-01
7.318325e-01
8.173341e-01
8.961070e-01
9.506290e-01
8.386738e-01
-7.052163e-01
8.789270e-01
8.635465e-01
8.638198e-01
7.594683e-01
6.100700e-01
6.869046e-01
6.987936e-01
7.136379e-01
7.376465e-01
7.750124e-01
8.182641e-01
8.550278e-01
8.641838e-01
8.010623e-01
5.770476e-01
1.753450e-01
9.011977e-01
8.313451e-01
8.595016e-01
8.647270e-01
8.566693e-01
8.214488e-01
8.105613e-01
7.983476e-01
7.924036e-01
7.916942e-01
7.899068e-01
7.763907e-01
7.380631e-01
6.724689e-01
6.224384e-01
6.126420e-01
8.638349e-01
8.378542e-01
8.440029e-01
8.395001e-01
8.205897e-01
8.080957e-01
7.952006e-01
7.829601e-01
7.679625e-01
7.514289e-01
7.315453e-01
7.075803e-01
6.861080e-01
6.898050e-01
7.458323e-01
8.405260e-01
7.036710e-01
6.776487e-01
6.740952e-01
6.667281e-01
6.478925e-01
6.565685e-01
6.742292e-01
6.859857e-01
6.922724e-01
6.955191e-01
6.971600e-01
7.025957e-01
7.250987e-01
7.793868e-01
8.632836e-01
9.503017e-01
3.201512e-01
2.968060e-01
3.755746e-01
3.672823e-01
3.538579e-01
3.583589e-01
4.285541e-01
4.952955e-01
5.564241e-01
6.194830e-01
6.822733e-01
7.436771e-01
8.083168e-01
8.798008e-01
9.480571e-01
9.912991e-01
-7.526115e-01
-1.797002e-01
-9.837949e-02
-3.589207e-02
-1.014314e-01
-1.032985e-01
1.603038e-02
1.579827e-01
3.014947e-01
4.608683e-01
6.232494e-01
7.698956e-01
8.849501e-01
9.580447e-01
9.917446e-01
9.998247e-01
1 2 19 18
2 3 20 19
3 4 21 20
4 5 22 21
5 6 23 22
6 7 24 23
7 8 25 24
8 9 26 25
9 10 27 26
10 11 28 27
11 12 29 28
12 13 30 29
13 14 31 30
14 15 32 31
15 16 33 32
16 17 34 33
18 19 36 35
19 20 37 36
20 21 38 37
21 22 39 38
22 23 40 39
23 24 41 40
24 25 42 41
25 26 43 42
26 27 44 43
27 28 45 44
28 29 46 45
29 30 47 46
30 31 48 47
31 32 49 48
32 33 50 49
33 34 51 50
35 36 53 52
36 37 54 53
37 38 55 54
38 39 56 55
39 40 57 56
40 41 58 57
41 42 59 58
42 43 60 59
43 44 61 60
44 45 62 61
45 46 63 62
46 47 64 63
47 48 65 64
48 49 66 65
49 50 67 66
50 51 68 67
52 53 70 69
53 54 71 70
54 55 72 71
55 56 73 72
56 57 74 73
57 58 75 74
58 59 76 75
59 60 77 76
60 61 78 77
61 62 79 78
62 63 80 79
63 64 81 80
64 65 82 81
65 66 83 82
66 67 84 83
67 68 85 84
69 70 87 86
70 71 88 87
71 72 89 88
72 73 90 89
73 74 91 90
74 75 92 91
75 76 93 92
76 77 94 93
77 78 95 94
78 79 96 95
79 80 97 96
80 81 98 97
81 82 99 98
82 83 100 99
83 84 101 100
84 85 102 101
86 87 104 103
87 88 105 104
88 89 106 105
89 90 107 106
90 91 108 107
91 92 109 108
92 93 110 109
93 94 111 110
94 95 112 111
95 96 113 112
96 97 114 113
97 98 115 114
98 99 116 115
99 100 117 116
100 101 118 117
101 102 119 118
103 104 121 120
104 105 122 121
105 106 123 122
106 107 124 123
107 108 125 124
108 109 126 125
109 110 127 126
110 111 128 127
111 112 129 128
112 113 130 129
113 114 131 130
114 115 132 131
115 116 133 132
116 117 134 133
117 118 135 134
118 119 136 135
120 121 138 137
121 122 139 138
122 123 140 139
123 124 141 140
124 125 142 141
125 126 143 142
126 127 144 143
127 128 145 144
128 129 146 145
129 130 147 146
130 131 148 147
131 132 149 148
132 133 150 149
133 134 151 150
134 135 152 151
135 136 153 152
