TITLE = "Solution"
VARIABLES = x, y, u, v, psiu, psiv, t, stress
ZONE T="structure" N=153 E=128 F=FEBLOCK ET=QUADRILATERAL VARLOCATION=([7,8]=cellcentered)
0.000000e+00
1.250000e+01
2.500000e+01
3.750000e+01
5.000000e+01
6.250000e+01
7.500000e+01
8.750000e+01
1.000000e+02
1.125000e+02
1.250000e+02
1.375000e+02
1.500000e+02
1.625000e+02
1.750000e+02
1.875000e+02
2.000000e+02
0.000000e+00
1.250000e+01
2.500000e+01
3.750000e+01
5.000000e+01
6.250000e+01
7.500000e+01
8.750000e+01
1.000000e+02
1.125000e+02
1.250000e+02
1.375000e+02
1.500000e+02
1.625000e+02
1.750000e+02
1.875000e+02
2.000000e+02
0.000000e+00
1.250000e+01
2.500000e+01
3.750000e+01
5.000000e+01
6.250000e+01
7.500000e+01
8.750000e+01
1.000000e+02
1.125000e+02
1.250000e+02
1.375000e+02
1.500000e+02
1.625000e+02
1.750000e+02
1.875000e+02
2.000000e+02
0.000000e+00
1.250000e+01
2.500000e+01
3.750000e+01
5.000000e+01
6.250000e+01
7.500000e+01
8.750000e+01
1.000000e+02
1.125000e+02
1.250000e+02
1.375000e+02
1.500000e+02
1.625000e+02
1.750000e+02
1.875000e+02
2.000000e+02
0.000000e+00
1.250000e+01
2.500000e+01
3.750000e+01
5.000000e+01
6.250000e+01
7.500000e+01
8.750000e+01
1.000000e+02
1.125000e+02
1.250000e+02
1.375000e+02
1.500000e+02
1.625000e+02
1.750000e+02
1.875000e+02
2.000000e+02
0.000000e+00
1.250000e+01
2.500000e+01
3.750000e+01
5.000000e+01
6.250000e+01
7.500000e+01
8.750000e+01
1.000000e+02
1.125000e+02
1.250000e+02
1.375000e+02
1.500000e+02
1.625000e+02
1.750000e+02
1.875000e+02
2.000000e+02
0.000000e+00
1.250000e+01
2.500000e+01
3.750000e+01
5.000000e+01
6.250000e+01
7.500000e+01
8.750000e+01
1.000000e+02
1.125000e+02
1.250000e+02
1.375000e+02
1.500000e+02
1.625000e+02
1.750000e+02
1.875000e+02
2.000000e+02
0.000000e+00
1.250000e+01
2.500000e+01
3.750000e+01
5.000000e+01
6.250000e+01
7.500000e+01
8.750000e+01
1.000000e+02
1.125000e+02
1.250000e+02
1.375000e+02
1.500000e+02
1.625000e+02
1.750000e+02
1.875000e+02
2.000000e+02
0.000000e+00
1.250000e+01
2.500000e+01
3.750000e+01
5.000000e+01
6.250000e+01
7.500000e+01
8.750000e+01
1.000000e+02
1.125000e+02
1.250000e+02
1.375000e+02
1.500000e+02
1.625000e+02
1.750000e+02
1.875000e+02
2.000000e+02
0.000000e+00
0.000000e+00
0.000000e+00
0.000000e+00
0.000000e+00
0.000000e+00
0.000000e+00
0.000000e+00
0.000000e+00
0.000000e+00
0.000000e+00
0.000000e+00
0.000000e+00
0.000000e+00
0.000000e+00
0.000000e+00
0.000000e+00
1.250000e+01
1.250000e+01
1.250000e+01
1.250000e+01
1.250000e+01
1.250000e+01
1.250000e+01
1.250000e+01
1.250000e+01
1.250000e+01
1.250000e+01
1.250000e+01
1.250000e+01
1.250000e+01
1.250000e+01
1.250000e+01
1.250000e+01
2.500000e+01
2.500000e+01
2.500000e+01
2.500000e+01
2.500000e+01
2.500000e+01
2.500000e+01
2.500000e+01
2.500000e+01
2.500000e+01
2.500000e+01
2.500000e+01
2.500000e+01
2.500000e+01
2.500000e+01
2.500000e+01
2.500000e+01
3.750000e+01
3.750000e+01
3.750000e+01
3.750000e+01
3.750000e+01
3.750000e+01
3.750000e+01
3.750000e+01
3.750000e+01
3.750000e+01
3.750000e+01
3.750000e+01
3.750000e+01
3.750000e+01
3.750000e+01
3.750000e+01
3.750000e+01
5.000000e+01
5.000000e+01
5.000000e+01
5.000000e+01
5.000000e+01
5.000000e+01
5.000000e+01
5.000000e+01
5.000000e+01
5.000000e+01
5.000000e+01
5.000000e+01
5.000000e+01
5.000000e+01
5.000000e+01
5.000000e+01
5.000000e+01
6.250000e+01
6.250000e+01
6.250000e+01
6.250000e+01
6.250000e+01
6.250000e+01
6.250000e+01
6.250000e+01
6.250000e+01
6.250000e+01
6.250000e+01
6.250000e+01
6.250000e+01
6.250000e+01
6.250000e+01
6.250000e+01
6.250000e+01
7.500000e+01
7.500000e+01
7.500000e+01
7.500000e+01
7.500000e+01
7.500000e+01
7.500000e+01
7.500000e+01
7.500000e+01
7.500000e+01
7.500000e+01
7.500000e+01
7.500000e+01
7.500000e+01
7.500000e+01
7.500000e+01
7.500000e+01
8.750000e+01
8.750000e+01
8.750000e+01
8.750000e+01
8.750000e+01
8.750000e+01
8.750000e+01
8.750000e+01
8.750000e+01
8.750000e+01
8.750000e+01
8.750000e+01
8.750000e+01
8.750000e+01
8.750000e+01
8.750000e+01
8.750000e+01
1.000000e+02
1.000000e+02
1.000000e+02
1.000000e+02
1.000000e+02
1.000000e+02
1.000000e+02
1.000000e+02
1.000000e+02
1.000000e+02
1.000000e+02
1.000000e+02
1.000000e+02
1.000000e+02
1.000000e+02
1.000000e+02
1.000000e+02
0.000000e+00
-1.276253e-01
-2.349986e-01
-3.337962e-01
-4.258049e-01
-5.108303e-01
-5.886900e-01
-6.593235e-01
-7.228334e-01
-7.795123e-01
-8.299219e-01
-8.750474e-01
-9.165839e-01
-9.574593e-01
-1.002723e+00
-1.058313e+00
-1.100028e+00
0.000000e+00
-7.621543e-02
-1.583228e-01
-2.341439e-01
-3.039987e-01
-3.681529e-01
-4.267393e-01
-4.798364e-01
-5.275398e-01
-5.699963e-01
-6.074215e-01
-6.400851e-01
-6.681955e-01
-6.914634e-01
-7.078755e-01
-7.114727e-01
-7.243697e-01
0.000000e+00
-4.766287e-02
-9.800685e-02
-1.482326e-01
-1.951170e-01
-2.381637e-01
-2.773375e-01
-3.126829e-01
-3.442084e-01
-3.718615e-01
-3.954934e-01
-4.147738e-01
-4.290154e-01
-4.369654e-01
-4.371861e-01
-4.340102e-01
-4.471642e-01
0.000000e+00
-2.300502e-02
-4.735897e-02
-7.186682e-02
-9.530087e-02
-1.168852e-01
-1.364493e-01
-1.539362e-01
-1.692458e-01
-1.821789e-01
-1.924049e-01
-1.994411e-01
-2.027115e-01
-2.019475e-01
-1.988083e-01
-1.996668e-01
-2.094613e-01
0.000000e+00
-2.119334e-05
-4.817891e-05
-7.507588e-05
-8.935097e-05
-6.305551e-05
5.928492e-05
3.772125e-04
1.054039e-03
2.333029e-03
4.531553e-03
7.968435e-03
1.272983e-02
1.811044e-02
2.182720e-02
2.080782e-02
1.432301e-02
0.000000e+00
2.297241e-02
4.728327e-02
7.174573e-02
9.515025e-02
1.167627e-01
1.364968e-01
1.544492e-01
1.707754e-01
1.856648e-01
1.993121e-01
2.118180e-01
2.229655e-01
2.319045e-01
2.371629e-01
2.375800e-01
2.342885e-01
0.000000e+00
4.765752e-02
9.799054e-02
1.482002e-01
1.950663e-01
2.381005e-01
2.772852e-01
3.126999e-01
3.444179e-01
3.724957e-01
3.969576e-01
4.177439e-01
4.346155e-01
4.470892e-01
4.545762e-01
4.570073e-01
4.562398e-01
0.000000e+00
7.624670e-02
1.583908e-01
2.342523e-01
3.041441e-01
3.683086e-01
4.268267e-01
4.796768e-01
5.267783e-01
5.679952e-01
6.031318e-01
6.319453e-01
6.542051e-01
6.698376e-01
6.791627e-01
6.831393e-01
6.838697e-01
0.000000e+00
1.276776e-01
2.351366e-01
3.340546e-01
4.262176e-01
5.114108e-01
5.893825e-01
6.599058e-01
7.227448e-01
7.775728e-01
8.239145e-01
8.611519e-01
8.886734e-01
9.062626e-01
9.147690e-01
9.168686e-01
9.168281e-01
0.000000e+00
-7.725516e-02
-1.516611e-01
-2.480739e-01
-3.664008e-01
-5.064205e-01
-6.665995e-01
-8.451452e-01
-1.040159e+00
-1.249768e+00
-1.472241e+00
-1.706201e+00
-1.951084e+00
-2.208198e+00
-2.484212e+00
-2.800023e+00
-3.253787e+00
0.000000e+00
-4.755971e-02
-1.251773e-01
-2.227856e-01
-3.430463e-01
-4.849766e-01
-6.470961e-01
-8.275681e-01
-1.024472e+00
-1.235901e+00
-1.460076e+00
-1.695558e+00
-1.941693e+00
-2.199757e+00
-2.475663e+00
-2.789558e+00
-3.174112e+00
0.000000e+00
-3.588807e-02
-1.068174e-01
-2.047859e-01
-3.261835e-01
-4.695747e-01
-6.331843e-01
-8.151579e-01
-1.013588e+00
-1.226595e+00
-1.452435e+00
-1.689715e+00
-1.937848e+00
-2.197896e+00
-2.474040e+00
-2.771466e+00
-3.059311e+00
0.000000e+00
-3.092587e-02
-9.768897e-02
-1.942206e-01
-3.160570e-01
-4.603308e-01
-6.249604e-01
-8.080210e-01
-1.007641e+00
-1.221992e+00
-1.449366e+00
-1.688346e+00
-1.938063e+00
-2.198398e+00
-2.469018e+00
-2.742310e+00
-2.994075e+00
0.000000e+00
-2.949637e-02
-9.492629e-02
-1.908502e-01
-3.127198e-01
-4.573526e-01
-6.224555e-01
-8.061054e-01
-1.006466e+00
-1.221739e+00
-1.450180e+00
-1.690145e+00
-1.940084e+00
-2.198154e+00
-2.460491e+00
-2.718125e+00
-2.955468e+00
0.000000e+00
-3.090751e-02
-9.767590e-02
-1.942438e-01
-3.161712e-01
-4.606317e-01
-6.256039e-01
-8.092398e-01
-1.009742e+00
-1.225304e+00
-1.454066e+00
-1.694043e+00
-1.942912e+00
-2.197507e+00
-2.452936e+00
-2.701735e+00
-2.934013e+00
0.000000e+00
-3.585813e-02
-1.067957e-01
-2.048247e-01
-3.263759e-01
-4.700837e-01
-6.342754e-01
-8.172275e-01
-1.017161e+00
-1.232237e+00
-1.460473e+00
-1.699576e+00
-1.946665e+00
-2.197924e+00
-2.448402e+00
-2.692426e+00
-2.924549e+00
0.000000e+00
-4.753164e-02
-1.251584e-01
-2.228371e-01
-3.432773e-01
-4.855751e-01
-6.483661e-01
-8.299602e-01
-1.028576e+00
-1.242342e+00
-1.469194e+00
-1.706674e+00
-1.951659e+00
-2.200120e+00
-2.447266e+00
-2.688576e+00
-2.922328e+00
0.000000e+00
-7.724356e-02
-1.516627e-01
-2.481537e-01
-3.666686e-01
-5.070601e-01
-6.678990e-01
-8.475163e-01
-1.044112e+00
-1.255781e+00
-1.480410e+00
-1.715488e+00
-1.957866e+00
-2.203609e+00
-2.448231e+00
-2.687872e+00
-2.922362e+00


0.000000e+00
4.671297e-09
9.659537e-09
1.407229e-08
1.779210e-08
2.080840e-08
2.317886e-08
2.499388e-08
2.634891e-08
2.733530e-08
2.803659e-08
2.852779e-08
2.887728e-08
2.914849e-08
2.940100e-08
2.971323e-08
3.008852e-08
0.000000e+00
3.181150e-09
7.491444e-09
1.099668e-08
1.380175e-08
1.601355e-08
1.771747e-08
1.899975e-08
1.993978e-08
2.060802e-08
2.106542e-08
2.136233e-08
2.153669e-08
2.162232e-08
2.170922e-08
2.196450e-08
2.235088e-08
0.000000e+00
2.368107e-09
5.201714e-09
7.565798e-09
9.461661e-09
1.092239e-08
1.201972e-08
1.282474e-08
1.339785e-08
1.378885e-08
1.403842e-08
1.417981e-08
1.424260e-08
1.426683e-08
1.432816e-08
1.452847e-08
1.484129e-08
0.000000e+00
1.266430e-09
2.592375e-09
3.774926e-09
4.740815e-09
5.477849e-09
6.021114e-09
6.410420e-09
6.678702e-09
6.852145e-09
6.952595e-09
7.000653e-09
7.020145e-09
7.041607e-09
7.095728e-09
7.217418e-09
7.409797e-09
0.000000e+00
-1.388875e-12
-3.253677e-12
-5.836076e-12
-9.543199e-12
-1.492569e-11
-2.269698e-11
-3.367940e-11
-4.857877e-11
-6.743327e-11
-8.858129e-11
-1.071464e-10
-1.143324e-10
-1.015046e-10
-6.819578e-11
-9.582426e-12
9.057188e-11
0.000000e+00
-1.268819e-09
-2.597891e-09
-3.784787e-09
-4.756738e-09
-5.502301e-09
-6.057546e-09
-6.463458e-09
-6.754156e-09
-6.956473e-09
-7.091158e-09
-7.173811e-09
-7.216324e-09
-7.230349e-09
-7.229579e-09
-7.215113e-09
-7.172350e-09
0.000000e+00
-2.369350e-09
-5.205120e-09
-7.572083e-09
-9.471641e-09
-1.093694e-08
-1.203971e-08
-1.285107e-08
-1.343160e-08
-1.383191e-08
-1.409465e-08
-1.425638e-08
-1.434857e-08
-1.439793e-08
-1.442447e-08
-1.443356e-08
-1.442153e-08
0.000000e+00
-3.181603e-09
-7.493630e-09
-1.100054e-08
-1.380714e-08
-1.601990e-08
-1.772341e-08
-1.900283e-08
-1.993645e-08
-2.059436e-08
-2.103879e-08
-2.132462e-08
-2.149900e-08
-2.160024e-08
-2.165602e-08
-2.168142e-08
-2.168497e-08
0.000000e+00
-4.673359e-09
-9.662935e-09
-1.407613e-08
-1.779526e-08
-2.080892e-08
-2.317360e-08
-2.497826e-08
-2.631685e-08
-2.727931e-08
-2.794760e-08
-2.839370e-08
-2.867791e-08
-2.884769e-08
-2.893730e-08
-2.897160e-08
-2.897753e-08
0.000000e+00
4.244524e-09
7.622418e-09
1.116399e-08
1.541476e-08
2.041786e-08
2.607116e-08
3.224192e-08
3.880308e-08
4.565003e-08
5.270263e-08
5.990602e-08
6.723789e-08
7.474572e-08
8.263010e-08
9.099496e-08
9.946680e-08
0.000000e+00
2.280787e-09
5.583531e-09
9.367416e-09
1.394389e-08
1.925969e-08
2.518698e-08
3.158411e-08
3.832733e-08
4.531673e-08
5.247738e-08
5.975947e-08
6.714238e-08
7.464856e-08
8.237400e-08
9.050721e-08
9.884253e-08
0.000000e+00
1.124024e-09
3.984335e-09
7.964993e-09
1.280773e-08
1.838083e-08
2.452591e-08
3.109991e-08
3.798382e-08
4.508332e-08
5.232836e-08
5.967260e-08
6.709165e-08
7.457234e-08
8.212354e-08
8.998924e-08
9.810222e-08
0.000000e+00
6.404312e-10
3.230900e-09
7.230423e-09
1.221155e-08
1.792604e-08
2.418952e-08
3.085782e-08
3.781617e-08
4.497424e-08
5.226425e-08
5.963892e-08
6.706554e-08
7.451138e-08
8.196822e-08
8.962138e-08
9.745476e-08
0.000000e+00
5.179855e-10
3.025735e-09
7.007999e-09
1.202815e-08
1.778745e-08
2.408896e-08
3.078777e-08
3.777082e-08
4.494894e-08
5.225381e-08
5.963508e-08
6.705451e-08
7.447843e-08
8.189534e-08
8.941142e-08
9.699427e-08
0.000000e+00
6.412884e-10
3.232084e-09
7.232024e-09
1.221382e-08
1.792966e-08
2.419569e-08
3.086822e-08
3.783260e-08
4.499755e-08
5.229217e-08
5.966267e-08
6.706823e-08
7.447772e-08
8.187884e-08
8.931022e-08
9.672935e-08
0.000000e+00
1.125382e-09
3.986478e-09
7.968165e-09
1.281242e-08
1.838837e-08
2.453850e-08
3.112066e-08
3.801607e-08
4.512895e-08
5.238428e-08
5.972451e-08
6.710631e-08
7.449842e-08
8.188416e-08
8.926546e-08
9.660568e-08
0.000000e+00
2.282703e-09
5.587107e-09
9.372702e-09
1.395152e-08
1.927120e-08
2.520483e-08
3.161168e-08
3.836824e-08
4.537314e-08
5.254639e-08
5.982610e-08
6.716523e-08
7.452938e-08
8.189559e-08
8.924843e-08
9.656441e-08
0.000000e+00
4.247605e-09
7.627698e-09
1.117138e-08
1.542480e-08
2.043172e-08
2.609076e-08
3.226980e-08
3.884193e-08
4.570118e-08
5.276278e-08
5.996022e-08
6.724196e-08
7.456880e-08
8.191174e-08
8.924726e-08
9.655809e-08


3.729083e-01
3.729083e-01
3.729096e-01
3.729119e-01
3.729140e-01
3.729157e-01
3.729170e-01
3.729180e-01
3.729187e-01
3.729192e-01
3.729195e-01
3.729198e-01
3.729199e-01
3.729197e-01
3.729193e-01
3.729190e-01
3.729107e-01
3.729106e-01
3.729116e-01
3.729135e-01
3.729152e-01
3.729165e-01
3.729176e-01
3.729184e-01
3.729190e-01
3.729193e-01
3.729196e-01
3.729198e-01
3.729199e-01
3.729197e-01
3.729193e-01
3.729189e-01
3.729147e-01
3.729146e-01
3.729151e-01
3.729162e-01
3.729171e-01
3.729179e-01
3.729186e-01
3.729190e-01
3.729194e-01
3.729196e-01
3.729197e-01
3.729198e-01
3.729198e-01
3.729197e-01
3.729193e-01
3.729191e-01
3.729176e-01
3.729175e-01
3.729177e-01
3.729181e-01
3.729186e-01
3.729189e-01
3.729193e-01
3.729195e-01
3.729196e-01
3.729197e-01
3.729198e-01
3.729198e-01
3.729199e-01
3.729198e-01
3.729196e-01
3.729195e-01
3.729176e-01
3.729175e-01
3.729177e-01
3.729181e-01
3.729186e-01
3.729189e-01
3.729192e-01
3.729195e-01
3.729196e-01
3.729197e-01
3.729197e-01
3.729198e-01
3.729199e-01
3.729199e-01
3.729199e-01
3.729199e-01
3.729147e-01
3.729146e-01
3.729151e-01
3.729162e-01
3.729171e-01
3.729179e-01
3.729185e-01
3.729190e-01
3.729193e-01
3.729195e-01
3.729197e-01
3.729198e-01
3.729199e-01
3.729200e-01
3.729201e-01
3.729200e-01
3.729107e-01
3.729106e-01
3.729116e-01
3.729135e-01
3.729151e-01
3.729165e-01
3.729176e-01
3.729184e-01
3.729189e-01
3.729193e-01
3.729196e-01
3.729198e-01
3.729200e-01
3.729201e-01
3.729201e-01
3.729201e-01
3.729083e-01
3.729083e-01
3.729096e-01
3.729119e-01
3.729140e-01
3.729156e-01
3.729170e-01
3.729180e-01
3.729187e-01
3.729192e-01
3.729195e-01
3.729198e-01
3.729200e-01
3.729201e-01
3.729201e-01
3.729201e-01


9.633543e-01
9.685509e-01
9.733580e-01
9.770584e-01
9.804933e-01
9.836606e-01
9.865463e-01
9.891165e-01
9.913441e-01
9.932073e-01
9.946888e-01
9.957741e-01
9.964487e-01
9.966894e-01
9.968631e-01
9.861530e-01
9.861362e-01
9.837548e-01
9.852869e-01
9.872865e-01
9.891508e-01
9.908452e-01
9.923791e-01
9.937684e-01
9.950264e-01
9.961659e-01
9.971999e-01
9.981361e-01
9.989529e-01
9.994877e-01
9.981352e-01
9.798017e-01
9.951830e-01
9.938152e-01
9.934459e-01
9.939653e-01
9.946485e-01
9.953103e-01
9.959247e-01
9.965054e-01
9.970678e-01
9.976162e-01
9.981283e-01
9.985248e-01
9.986075e-01
9.978935e-01
9.953030e-01
9.906439e-01
9.990196e-01
9.980221e-01
9.974058e-01
9.972495e-01
9.973119e-01
9.974166e-01
9.975212e-01
9.976234e-01
9.977237e-01
9.978077e-01
9.978311e-01
9.977062e-01
9.973101e-01
9.965992e-01
9.959963e-01
9.958437e-01
9.990233e-01
9.980273e-01
9.974105e-01
9.972485e-01
9.972963e-01
9.973719e-01
9.974243e-01
9.974419e-01
9.974179e-01
9.973406e-01
9.971968e-01
9.969895e-01
9.967922e-01
9.968314e-01
9.973893e-01
9.983551e-01
9.951899e-01
9.938256e-01
9.934559e-01
9.939654e-01
9.946219e-01
9.952284e-01
9.957415e-01
9.961539e-01
9.964628e-01
9.966708e-01
9.968023e-01
9.969309e-01
9.972010e-01
9.977673e-01
9.986179e-01
9.994973e-01
9.861349e-01
9.837539e-01
9.852848e-01
9.872808e-01
9.891361e-01
9.908118e-01
9.923100e-01
9.936366e-01
9.947925e-01
9.957805e-01
9.966170e-01
9.973475e-01
9.980510e-01
9.987886e-01
9.994783e-01
9.999127e-01
9.633293e-01
9.685118e-01
9.733101e-01
9.770046e-01
9.804450e-01
9.836431e-01
9.866059e-01
9.893265e-01
9.918054e-01
9.940379e-01
9.959972e-01
9.976227e-01
9.988319e-01
9.995779e-01
9.999173e-01
9.999982e-01
1 2 19 18
2 3 20 19
3 4 21 20
4 5 22 21
5 6 23 22
6 7 24 23
7 8 25 24
8 9 26 25
9 10 27 26
10 11 28 27
11 12 29 28
12 13 30 29
13 14 31 30
14 15 32 31
15 16 33 32
16 17 34 33
18 19 36 35
19 20 37 36
20 21 38 37
21 22 39 38
22 23 40 39
23 24 41 40
24 25 42 41
25 26 43 42
26 27 44 43
27 28 45 44
28 29 46 45
29 30 47 46
30 31 48 47
31 32 49 48
32 33 50 49
33 34 51 50
35 36 53 52
36 37 54 53
37 38 55 54
38 39 56 55
39 40 57 56
40 41 58 57
41 42 59 58
42 43 60 59
43 44 61 60
44 45 62 61
45 46 63 62
46 47 64 63
47 48 65 64
48 49 66 65
49 50 67 66
50 51 68 67
52 53 70 69
53 54 71 70
54 55 72 71
55 56 73 72
56 57 74 73
57 58 75 74
58 59 76 75
59 60 77 76
60 61 78 77
61 62 79 78
62 63 80 79
63 64 81 80
64 65 82 81
65 66 83 82
66 67 84 83
67 68 85 84
69 70 87 86
70 71 88 87
71 72 89 88
72 73 90 89
73 74 91 90
74 75 92 91
75 76 93 92
76 77 94 93
77 78 95 94
78 79 96 95
79 80 97 96
80 81 98 97
81 82 99 98
82 83 100 99
83 84 101 100
84 85 102 101
86 87 104 103
87 88 105 104
88 89 106 105
89 90 107 106
90 91 108 107
91 92 109 108
92 93 110 109
93 94 111 110
94 95 112 111
95 96 113 112
96 97 114 113
97 98 115 114
98 99 116 115
99 100 117 116
100 101 118 117
101 102 119 118
103 104 121 120
104 105 122 121
105 106 123 122
106 107 124 123
107 108 125 124
108 109 126 125
109 110 127 126
110 111 128 127
111 112 129 128
112 113 130 129
113 114 131 130
114 115 132 131
115 116 133 132
116 117 134 133
117 118 135 134
118 119 136 135
120 121 138 137
121 122 139 138
122 123 140 139
123 124 141 140
124 125 142 141
125 126 143 142
126 127 144 143
127 128 145 144
128 129 146 145
129 130 147 146
130 131 148 147
131 132 149 148
132 133 150 149
133 134 151 150
134 135 152 151
135 136 153 152
