TITLE = "Solution"
VARIABLES = x, y, u, v, psiu, psiv, t, stress
ZONE T="structure" N=153 E=128 F=FEBLOCK ET=QUADRILATERAL VARLOCATION=([7,8]=cellcentered)
0.000000e+00
1.250000e+01
2.500000e+01
3.750000e+01
5.000000e+01
6.250000e+01
7.500000e+01
8.750000e+01
1.000000e+02
1.125000e+02
1.250000e+02
1.375000e+02
1.500000e+02
1.625000e+02
1.750000e+02
1.875000e+02
2.000000e+02
0.000000e+00
1.250000e+01
2.500000e+01
3.750000e+01
5.000000e+01
6.250000e+01
7.500000e+01
8.750000e+01
1.000000e+02
1.125000e+02
1.250000e+02
1.375000e+02
1.500000e+02
1.625000e+02
1.750000e+02
1.875000e+02
2.000000e+02
0.000000e+00
1.250000e+01
2.500000e+01
3.750000e+01
5.000000e+01
6.250000e+01
7.500000e+01
8.750000e+01
1.000000e+02
1.125000e+02
1.250000e+02
1.375000e+02
1.500000e+02
1.625000e+02
1.750000e+02
1.875000e+02
2.000000e+02
0.000000e+00
1.250000e+01
2.500000e+01
3.750000e+01
5.000000e+01
6.250000e+01
7.500000e+01
8.750000e+01
1.000000e+02
1.125000e+02
1.250000e+02
1.375000e+02
1.500000e+02
1.625000e+02
1.750000e+02
1.875000e+02
2.000000e+02
0.000000e+00
1.250000e+01
2.500000e+01
3.750000e+01
5.000000e+01
6.250000e+01
7.500000e+01
8.750000e+01
1.000000e+02
1.125000e+02
1.250000e+02
1.375000e+02
1.500000e+02
1.625000e+02
1.750000e+02
1.875000e+02
2.000000e+02
0.000000e+00
1.250000e+01
2.500000e+01
3.750000e+01
5.000000e+01
6.250000e+01
7.500000e+01
8.750000e+01
1.000000e+02
1.125000e+02
1.250000e+02
1.375000e+02
1.500000e+02
1.625000e+02
1.750000e+02
1.875000e+02
2.000000e+02
0.000000e+00
1.250000e+01
2.500000e+01
3.750000e+01
5.000000e+01
6.250000e+01
7.500000e+01
8.750000e+01
1.000000e+02
1.125000e+02
1.250000e+02
1.375000e+02
1.500000e+02
1.625000e+02
1.750000e+02
1.875000e+02
2.000000e+02
0.000000e+00
1.250000e+01
2.500000e+01
3.750000e+01
5.000000e+01
6.250000e+01
7.500000e+01
8.750000e+01
1.000000e+02
1.125000e+02
1.250000e+02
1.375000e+02
1.500000e+02
1.625000e+02
1.750000e+02
1.875000e+02
2.000000e+02
0.000000e+00
1.250000e+01
2.500000e+01
3.750000e+01
5.000000e+01
6.250000e+01
7.500000e+01
8.750000e+01
1.000000e+02
1.125000e+02
1.250000e+02
1.375000e+02
1.500000e+02
1.625000e+02
1.750000e+02
1.875000e+02
2.000000e+02
0.000000e+00
0.000000e+00
0.000000e+00
0.000000e+00
0.000000e+00
0.000000e+00
0.000000e+00
0.000000e+00
0.000000e+00
0.000000e+00
0.000000e+00
0.000000e+00
0.000000e+00
0.000000e+00
0.000000e+00
0.000000e+00
0.000000e+00
1.250000e+01
1.250000e+01
1.250000e+01
1.250000e+01
1.250000e+01
1.250000e+01
1.250000e+01
1.250000e+01
1.250000e+01
1.250000e+01
1.250000e+01
1.250000e+01
1.250000e+01
1.250000e+01
1.250000e+01
1.250000e+01
1.250000e+01
2.500000e+01
2.500000e+01
2.500000e+01
2.500000e+01
2.500000e+01
2.500000e+01
2.500000e+01
2.500000e+01
2.500000e+01
2.500000e+01
2.500000e+01
2.500000e+01
2.500000e+01
2.500000e+01
2.500000e+01
2.500000e+01
2.500000e+01
3.750000e+01
3.750000e+01
3.750000e+01
3.750000e+01
3.750000e+01
3.750000e+01
3.750000e+01
3.750000e+01
3.750000e+01
3.750000e+01
3.750000e+01
3.750000e+01
3.750000e+01
3.750000e+01
3.750000e+01
3.750000e+01
3.750000e+01
5.000000e+01
5.000000e+01
5.000000e+01
5.000000e+01
5.000000e+01
5.000000e+01
5.000000e+01
5.000000e+01
5.000000e+01
5.000000e+01
5.000000e+01
5.000000e+01
5.000000e+01
5.000000e+01
5.000000e+01
5.000000e+01
5.000000e+01
6.250000e+01
6.250000e+01
6.250000e+01
6.250000e+01
6.250000e+01
6.250000e+01
6.250000e+01
6.250000e+01
6.250000e+01
6.250000e+01
6.250000e+01
6.250000e+01
6.250000e+01
6.250000e+01
6.250000e+01
6.250000e+01
6.250000e+01
7.500000e+01
7.500000e+01
7.500000e+01
7.500000e+01
7.500000e+01
7.500000e+01
7.500000e+01
7.500000e+01
7.500000e+01
7.500000e+01
7.500000e+01
7.500000e+01
7.500000e+01
7.500000e+01
7.500000e+01
7.500000e+01
7.500000e+01
8.750000e+01
8.750000e+01
8.750000e+01
8.750000e+01
8.750000e+01
8.750000e+01
8.750000e+01
8.750000e+01
8.750000e+01
8.750000e+01
8.750000e+01
8.750000e+01
8.750000e+01
8.750000e+01
8.750000e+01
8.750000e+01
8.750000e+01
1.000000e+02
1.000000e+02
1.000000e+02
1.000000e+02
1.000000e+02
1.000000e+02
1.000000e+02
1.000000e+02
1.000000e+02
1.000000e+02
1.000000e+02
1.000000e+02
1.000000e+02
1.000000e+02
1.000000e+02
1.000000e+02
1.000000e+02
0.000000e+00
-9.950077e-01
-1.679350e+00
-2.431202e+00
-3.116396e+00
-3.751569e+00
-4.457656e+00
-5.087612e+00
-5.763297e+00
-6.405556e+00
-7.056006e+00
-7.723469e+00
-8.376670e+00
-9.147115e+00
-1.007759e+01
-1.083387e+01
-1.128401e+01
0.000000e+00
-4.455456e-01
-9.069067e-01
-1.419040e+00
-1.930473e+00
-2.411208e+00
-2.925089e+00
-3.423174e+00
-3.919415e+00
-4.421526e+00
-4.914360e+00
-5.417068e+00
-5.901964e+00
-6.421839e+00
-6.897678e+00
-7.023855e+00
-7.202728e+00
0.000000e+00
-1.461775e-01
-3.492168e-01
-6.397540e-01
-9.777444e-01
-1.302971e+00
-1.656303e+00
-2.012961e+00
-2.356926e+00
-2.718632e+00
-3.057677e+00
-3.391832e+00
-3.687460e+00
-3.927362e+00
-4.036421e+00
-4.034375e+00
-4.182831e+00
0.000000e+00
-7.895863e-02
-1.621992e-01
-3.096099e-01
-4.547480e-01
-6.284067e-01
-8.135033e-01
-9.792249e-01
-1.166529e+00
-1.328595e+00
-1.489605e+00
-1.628620e+00
-1.721958e+00
-1.730085e+00
-1.656524e+00
-1.635694e+00
-1.752830e+00
0.000000e+00
-3.293538e-03
-7.174825e-03
-1.120161e-02
-1.553560e-02
-1.886508e-02
-1.962935e-02
-1.676841e-02
-7.898104e-03
8.954521e-03
3.338302e-02
7.821033e-02
1.606482e-01
2.755465e-01
3.952865e-01
4.360266e-01
3.378431e-01
0.000000e+00
7.320571e-02
1.505896e-01
2.906732e-01
4.291000e-01
5.961210e-01
7.747423e-01
9.441060e-01
1.149873e+00
1.345185e+00
1.562629e+00
1.782972e+00
2.009371e+00
2.216603e+00
2.352363e+00
2.385263e+00
2.319614e+00
0.000000e+00
1.438485e-01
3.439963e-01
6.307928e-01
9.657951e-01
1.291036e+00
1.643309e+00
1.999630e+00
2.360208e+00
2.765131e+00
3.144229e+00
3.511189e+00
3.844136e+00
4.119616e+00
4.296251e+00
4.350898e+00
4.328268e+00
0.000000e+00
4.462266e-01
9.076792e-01
1.419556e+00
1.930264e+00
2.409559e+00
2.920396e+00
3.415632e+00
3.903645e+00
4.396755e+00
4.875162e+00
5.350280e+00
5.778558e+00
6.126172e+00
6.343204e+00
6.438980e+00
6.456674e+00
0.000000e+00
9.972009e-01
1.684416e+00
2.440001e+00
3.127189e+00
3.763296e+00
4.468511e+00
5.096556e+00
5.747146e+00
6.331608e+00
6.905217e+00
7.506049e+00
8.036491e+00
8.448394e+00
8.649719e+00
8.702506e+00
8.703043e+00
0.000000e+00
-6.184699e-01
-1.361532e+00
-2.362545e+00
-3.536569e+00
-4.880282e+00
-6.411335e+00
-8.097453e+00
-9.957839e+00
-1.198117e+01
-1.416603e+01
-1.651662e+01
-1.903030e+01
-2.176147e+01
-2.472559e+01
-2.808520e+01
-3.310097e+01
0.000000e+00
-4.154470e-01
-1.193081e+00
-2.176488e+00
-3.367390e+00
-4.705972e+00
-6.233988e+00
-7.928645e+00
-9.781700e+00
-1.181350e+01
-1.399377e+01
-1.634898e+01
-1.885731e+01
-2.156885e+01
-2.458548e+01
-2.800140e+01
-3.205150e+01
0.000000e+00
-3.898139e-01
-1.091365e+00
-2.073090e+00
-3.248077e+00
-4.580232e+00
-6.114002e+00
-7.799007e+00
-9.662627e+00
-1.169175e+01
-1.388314e+01
-1.624967e+01
-1.876829e+01
-2.150660e+01
-2.457555e+01
-2.784945e+01
-3.088198e+01
0.000000e+00
-4.487866e-01
-1.087725e+00
-2.046976e+00
-3.185396e+00
-4.510924e+00
-6.051887e+00
-7.722654e+00
-9.604876e+00
-1.163332e+01
-1.384618e+01
-1.623261e+01
-1.877678e+01
-2.151688e+01
-2.450599e+01
-2.753969e+01
-3.016528e+01
0.000000e+00
-4.558474e-01
-1.110028e+00
-2.031262e+00
-3.171393e+00
-4.500743e+00
-6.030685e+00
-7.720557e+00
-9.595061e+00
-1.164550e+01
-1.387266e+01
-1.626644e+01
-1.881804e+01
-2.151801e+01
-2.435542e+01
-2.717321e+01
-2.956089e+01
0.000000e+00
-4.474956e-01
-1.087385e+00
-2.049050e+00
-3.192311e+00
-4.528116e+00
-6.079263e+00
-7.759502e+00
-9.657089e+00
-1.171138e+01
-1.394273e+01
-1.631861e+01
-1.884907e+01
-2.150799e+01
-2.422043e+01
-2.685357e+01
-2.912277e+01
0.000000e+00
-3.880909e-01
-1.091324e+00
-2.077801e+00
-3.261719e+00
-4.609351e+00
-6.159762e+00
-7.868649e+00
-9.762510e+00
-1.182739e+01
-1.402924e+01
-1.638580e+01
-1.888841e+01
-2.150792e+01
-2.413794e+01
-2.664642e+01
-2.888925e+01
0.000000e+00
-4.138532e-01
-1.193115e+00
-2.182025e+00
-3.383360e+00
-4.736974e+00
-6.285159e+00
-8.009684e+00
-9.901166e+00
-1.196449e+01
-1.414449e+01
-1.648432e+01
-1.896561e+01
-2.154950e+01
-2.411740e+01
-2.655883e+01
-2.882879e+01
0.000000e+00
-6.174734e-01
-1.362197e+00
-2.368763e+00
-3.552953e+00
-4.911223e+00
-6.463190e+00
-8.178180e+00
-1.007356e+01
-1.212012e+01
-1.429962e+01
-1.663262e+01
-1.908928e+01
-2.163151e+01
-2.414203e+01
-2.654393e+01
-2.882765e+01


0.000000e+00
1.541865e-05
2.509740e-05
3.749444e-05
5.358779e-05
6.719946e-05
8.314417e-05
9.717766e-05
1.118161e-04
1.257514e-04
1.408742e-04
1.551908e-04
1.717939e-04
1.875500e-04
1.975147e-04
2.032221e-04
2.101519e-04
0.000000e+00
1.146154e-05
1.974211e-05
2.840144e-05
4.099971e-05
5.170924e-05
6.182908e-05
7.295219e-05
8.314113e-05
9.454147e-05
1.052202e-04
1.155659e-04
1.264793e-04
1.357984e-04
1.373143e-04
1.410569e-04
1.468820e-04
0.000000e+00
9.534960e-06
1.502301e-05
2.019191e-05
2.884772e-05
3.551293e-05
4.124862e-05
4.859930e-05
5.457282e-05
6.192101e-05
6.835459e-05
7.399599e-05
7.872816e-05
8.088993e-05
8.011955e-05
8.250165e-05
8.674072e-05
0.000000e+00
5.183808e-06
6.845237e-06
9.613068e-06
1.305734e-05
1.353236e-05
1.585386e-05
1.731456e-05
2.084707e-05
2.432116e-05
2.806941e-05
2.908356e-05
2.850303e-05
2.705522e-05
2.683914e-05
2.990193e-05
3.557479e-05
0.000000e+00
-1.740498e-07
-4.332093e-07
-8.519260e-07
-1.712669e-06
-2.862821e-06
-4.954119e-06
-7.178307e-06
-7.765139e-06
-7.772126e-06
-8.733400e-06
-1.191325e-05
-1.466383e-05
-1.602999e-05
-1.570506e-05
-1.353556e-05
-9.544788e-06
0.000000e+00
-5.446490e-06
-7.431983e-06
-1.073422e-05
-1.464563e-05
-1.607099e-05
-2.046553e-05
-2.431724e-05
-3.015440e-05
-3.324938e-05
-3.733999e-05
-4.215337e-05
-4.722451e-05
-4.893165e-05
-4.948184e-05
-4.997119e-05
-4.825812e-05
0.000000e+00
-9.535895e-06
-1.508998e-05
-2.035996e-05
-2.895609e-05
-3.530458e-05
-4.072473e-05
-4.872451e-05
-5.589372e-05
-6.348192e-05
-6.875721e-05
-7.378918e-05
-7.796251e-05
-8.142811e-05
-8.334769e-05
-8.526794e-05
-8.601803e-05
0.000000e+00
-1.139223e-05
-1.965510e-05
-2.829722e-05
-4.078260e-05
-5.164403e-05
-6.159495e-05
-7.279460e-05
-8.317884e-05
-9.455168e-05
-1.052270e-04
-1.134931e-04
-1.183019e-04
-1.232928e-04
-1.268612e-04
-1.281479e-04
-1.282446e-04
0.000000e+00
-1.542920e-05
-2.503874e-05
-3.734075e-05
-5.337901e-05
-6.702786e-05
-8.283317e-05
-9.592926e-05
-1.099136e-04
-1.234157e-04
-1.410801e-04
-1.568062e-04
-1.664438e-04
-1.716305e-04
-1.738468e-04
-1.740563e-04
-1.738721e-04
0.000000e+00
1.260104e-05
2.000261e-05
3.244394e-05
4.876319e-05
6.689173e-05
9.133184e-05
1.202046e-04
1.534754e-04
1.902655e-04
2.304251e-04
2.744403e-04
3.244298e-04
3.785144e-04
4.399850e-04
5.107785e-04
5.841050e-04
0.000000e+00
7.679594e-06
1.611352e-05
2.634354e-05
4.229539e-05
6.093611e-05
8.487627e-05
1.143215e-04
1.472556e-04
1.841252e-04
2.241036e-04
2.682223e-04
3.178459e-04
3.736086e-04
4.347591e-04
5.033980e-04
5.737441e-04
0.000000e+00
4.326594e-06
1.230155e-05
2.172609e-05
3.648545e-05
5.570577e-05
7.946742e-05
1.098026e-04
1.431036e-04
1.796465e-04
2.194953e-04
2.636972e-04
3.140554e-04
3.712439e-04
4.306318e-04
4.959190e-04
5.640469e-04
0.000000e+00
3.200865e-06
1.060063e-05
2.008797e-05
3.452125e-05
5.206116e-05
7.644608e-05
1.088046e-04
1.436461e-04
1.782329e-04
2.173955e-04
2.620953e-04
3.133191e-04
3.698424e-04
4.279022e-04
4.880788e-04
5.498794e-04
0.000000e+00
2.813200e-06
1.027409e-05
2.004649e-05
3.424637e-05
5.077558e-05
7.531986e-05
1.098024e-04
1.449330e-04
1.780841e-04
2.155909e-04
2.620705e-04
3.136146e-04
3.699516e-04
4.267577e-04
4.816862e-04
5.337637e-04
0.000000e+00
3.342594e-06
1.078969e-05
2.045853e-05
3.485731e-05
5.187094e-05
7.716633e-05
1.107128e-04
1.455310e-04
1.778720e-04
2.159554e-04
2.636466e-04
3.159941e-04
3.702250e-04
4.266539e-04
4.793680e-04
5.227711e-04
0.000000e+00
4.478896e-06
1.252809e-05
2.206459e-05
3.676229e-05
5.577464e-05
8.041348e-05
1.117676e-04
1.448158e-04
1.789300e-04
2.182946e-04
2.669106e-04
3.194872e-04
3.722674e-04
4.257237e-04
4.766395e-04
5.193319e-04
0.000000e+00
7.802813e-06
1.634768e-05
2.664043e-05
4.254646e-05
6.133117e-05
8.582555e-05
1.159598e-04
1.482178e-04
1.832518e-04
2.229870e-04
2.706261e-04
3.225130e-04
3.744497e-04
4.258406e-04
4.746291e-04
5.198080e-04
0.000000e+00
1.271322e-05
2.023654e-05
3.273170e-05
4.909312e-05
6.741382e-05
9.235490e-05
1.216342e-04
1.543577e-04
1.895200e-04
2.301933e-04
2.749444e-04
3.247315e-04
3.756465e-04
4.261381e-04
4.741453e-04
5.200763e-04


5.637418e+00
6.115420e+00
6.847083e+00
5.892498e+00
5.541463e+00
6.205695e+00
6.175110e+00
6.284020e+00
5.902790e+00
5.887577e+00
6.271806e+00
7.142089e+00
8.839307e+00
9.819824e+00
9.140275e+00
7.991263e+00
8.064057e+00
8.444802e+00
8.648649e+00
8.346220e+00
8.135032e+00
8.360383e+00
8.541008e+00
8.371466e+00
8.360918e+00
8.259660e+00
8.406104e+00
8.834125e+00
9.499096e+00
9.832356e+00
8.385370e+00
6.465308e+00
9.835173e+00
9.817742e+00
9.992170e+00
9.830325e+00
9.828660e+00
9.937423e+00
9.825847e+00
9.929789e+00
9.839587e+00
9.872368e+00
9.889272e+00
9.868198e+00
9.886419e+00
9.387473e+00
7.988307e+00
6.180723e+00
9.996141e+00
9.996070e+00
9.996036e+00
9.995653e+00
9.995120e+00
9.994050e+00
9.992836e+00
9.992823e+00
9.993503e+00
9.993347e+00
9.990325e+00
9.474314e+00
8.824428e+00
8.364621e+00
7.977743e+00
7.899977e+00
9.996122e+00
9.996025e+00
9.995952e+00
9.995439e+00
9.994552e+00
9.992608e+00
9.927728e+00
9.960147e+00
9.988507e+00
9.909335e+00
9.349399e+00
8.578622e+00
7.696125e+00
7.735062e+00
8.636831e+00
9.151205e+00
9.835324e+00
9.817536e+00
9.991764e+00
9.829132e+00
9.825492e+00
9.680697e+00
9.322110e+00
9.511269e+00
9.380079e+00
8.850051e+00
8.299819e+00
7.883859e+00
8.180885e+00
8.739015e+00
9.436124e+00
9.986451e+00
8.065346e+00
8.445129e+00
8.647426e+00
8.343073e+00
8.050205e+00
7.916958e+00
7.745527e+00
7.712145e+00
7.792892e+00
7.312413e+00
7.466501e+00
8.478081e+00
9.276515e+00
9.835835e+00
9.992104e+00
9.995231e+00
5.640930e+00
6.116266e+00
6.845531e+00
5.883148e+00
5.505508e+00
5.850461e+00
5.706709e+00
6.177616e+00
6.098522e+00
6.444291e+00
7.840671e+00
9.102506e+00
9.975528e+00
9.993851e+00
9.995732e+00
9.996388e+00


-8.156953e-01
-1.715482e-01
-3.957319e-01
-2.564112e-01
-9.794872e-02
-3.033638e-01
-1.249169e-01
-2.097212e-01
-1.609653e-01
-1.594645e-01
-2.136080e-01
-1.504089e-01
-4.628754e-01
-6.836055e-01
3.162783e-01
-8.469363e-01
6.112962e-01
4.798466e-01
2.961302e-01
2.257361e-01
2.893900e-01
1.682236e-01
1.759790e-01
1.721359e-01
1.111097e-01
1.474550e-01
1.290356e-01
2.416861e-01
3.023647e-01
5.103280e-01
6.955650e-01
-9.355306e-01
7.234204e-01
4.713622e-01
5.767169e-02
-1.991283e-02
-3.787944e-02
-1.847157e-01
-8.024352e-02
-1.364409e-01
-7.565540e-02
-1.833310e-02
3.310590e-02
1.865724e-01
2.788988e-01
1.484764e-01
-2.480166e-02
-1.686148e-01
7.286100e-01
5.563163e-01
1.935124e-01
6.327333e-02
-2.327661e-02
-1.037670e-01
-1.705619e-02
-6.057328e-02
1.404662e-02
1.820566e-02
5.969157e-02
1.179449e-01
5.858094e-02
-2.628386e-01
-3.832977e-01
-7.755667e-02
7.315139e-01
5.602368e-01
2.014223e-01
7.128978e-02
-1.981155e-02
-1.099110e-01
-3.741099e-02
-1.011349e-01
-5.085100e-02
-4.122965e-02
2.123208e-02
1.468632e-02
-3.764154e-02
-1.306856e-01
-1.024864e-01
3.111933e-01
7.302158e-01
4.815102e-01
7.567529e-02
-2.101539e-03
-2.650522e-02
-1.605705e-01
-7.774714e-02
-1.905016e-01
-1.817565e-01
-1.082069e-01
-7.822884e-02
-9.800933e-02
-1.103462e-01
4.557483e-02
3.341198e-01
7.248543e-01
6.153723e-01
4.855889e-01
3.036532e-01
2.309101e-01
2.858936e-01
1.619344e-01
1.527589e-01
1.003247e-01
-5.594023e-02
-4.059862e-02
-9.689006e-02
-5.810352e-02
5.807698e-02
3.655038e-01
7.128972e-01
9.479109e-01
-8.210883e-01
-1.772864e-01
-4.032501e-01
-2.595504e-01
-9.782530e-02
-2.976800e-01
-1.204388e-01
-1.556453e-01
-5.596837e-02
-2.235330e-02
-9.248612e-02
9.861493e-02
3.882949e-01
7.720932e-01
9.528717e-01
9.987350e-01
1 2 19 18
2 3 20 19
3 4 21 20
4 5 22 21
5 6 23 22
6 7 24 23
7 8 25 24
8 9 26 25
9 10 27 26
10 11 28 27
11 12 29 28
12 13 30 29
13 14 31 30
14 15 32 31
15 16 33 32
16 17 34 33
18 19 36 35
19 20 37 36
20 21 38 37
21 22 39 38
22 23 40 39
23 24 41 40
24 25 42 41
25 26 43 42
26 27 44 43
27 28 45 44
28 29 46 45
29 30 47 46
30 31 48 47
31 32 49 48
32 33 50 49
33 34 51 50
35 36 53 52
36 37 54 53
37 38 55 54
38 39 56 55
39 40 57 56
40 41 58 57
41 42 59 58
42 43 60 59
43 44 61 60
44 45 62 61
45 46 63 62
46 47 64 63
47 48 65 64
48 49 66 65
49 50 67 66
50 51 68 67
52 53 70 69
53 54 71 70
54 55 72 71
55 56 73 72
56 57 74 73
57 58 75 74
58 59 76 75
59 60 77 76
60 61 78 77
61 62 79 78
62 63 80 79
63 64 81 80
64 65 82 81
65 66 83 82
66 67 84 83
67 68 85 84
69 70 87 86
70 71 88 87
71 72 89 88
72 73 90 89
73 74 91 90
74 75 92 91
75 76 93 92
76 77 94 93
77 78 95 94
78 79 96 95
79 80 97 96
80 81 98 97
81 82 99 98
82 83 100 99
83 84 101 100
84 85 102 101
86 87 104 103
87 88 105 104
88 89 106 105
89 90 107 106
90 91 108 107
91 92 109 108
92 93 110 109
93 94 111 110
94 95 112 111
95 96 113 112
96 97 114 113
97 98 115 114
98 99 116 115
99 100 117 116
100 101 118 117
101 102 119 118
103 104 121 120
104 105 122 121
105 106 123 122
106 107 124 123
107 108 125 124
108 109 126 125
109 110 127 126
110 111 128 127
111 112 129 128
112 113 130 129
113 114 131 130
114 115 132 131
115 116 133 132
116 117 134 133
117 118 135 134
118 119 136 135
120 121 138 137
121 122 139 138
122 123 140 139
123 124 141 140
124 125 142 141
125 126 143 142
126 127 144 143
127 128 145 144
128 129 146 145
129 130 147 146
130 131 148 147
131 132 149 148
132 133 150 149
133 134 151 150
134 135 152 151
135 136 153 152
