TITLE = "Solution"
VARIABLES = x, y, u, v, psiu, psiv, t, stress
ZONE T="structure" N=153 E=128 F=FEBLOCK ET=QUADRILATERAL VARLOCATION=([7,8]=cellcentered)
0.000000e+00
1.250000e+01
2.500000e+01
3.750000e+01
5.000000e+01
6.250000e+01
7.500000e+01
8.750000e+01
1.000000e+02
1.125000e+02
1.250000e+02
1.375000e+02
1.500000e+02
1.625000e+02
1.750000e+02
1.875000e+02
2.000000e+02
0.000000e+00
1.250000e+01
2.500000e+01
3.750000e+01
5.000000e+01
6.250000e+01
7.500000e+01
8.750000e+01
1.000000e+02
1.125000e+02
1.250000e+02
1.375000e+02
1.500000e+02
1.625000e+02
1.750000e+02
1.875000e+02
2.000000e+02
0.000000e+00
1.250000e+01
2.500000e+01
3.750000e+01
5.000000e+01
6.250000e+01
7.500000e+01
8.750000e+01
1.000000e+02
1.125000e+02
1.250000e+02
1.375000e+02
1.500000e+02
1.625000e+02
1.750000e+02
1.875000e+02
2.000000e+02
0.000000e+00
1.250000e+01
2.500000e+01
3.750000e+01
5.000000e+01
6.250000e+01
7.500000e+01
8.750000e+01
1.000000e+02
1.125000e+02
1.250000e+02
1.375000e+02
1.500000e+02
1.625000e+02
1.750000e+02
1.875000e+02
2.000000e+02
0.000000e+00
1.250000e+01
2.500000e+01
3.750000e+01
5.000000e+01
6.250000e+01
7.500000e+01
8.750000e+01
1.000000e+02
1.125000e+02
1.250000e+02
1.375000e+02
1.500000e+02
1.625000e+02
1.750000e+02
1.875000e+02
2.000000e+02
0.000000e+00
1.250000e+01
2.500000e+01
3.750000e+01
5.000000e+01
6.250000e+01
7.500000e+01
8.750000e+01
1.000000e+02
1.125000e+02
1.250000e+02
1.375000e+02
1.500000e+02
1.625000e+02
1.750000e+02
1.875000e+02
2.000000e+02
0.000000e+00
1.250000e+01
2.500000e+01
3.750000e+01
5.000000e+01
6.250000e+01
7.500000e+01
8.750000e+01
1.000000e+02
1.125000e+02
1.250000e+02
1.375000e+02
1.500000e+02
1.625000e+02
1.750000e+02
1.875000e+02
2.000000e+02
0.000000e+00
1.250000e+01
2.500000e+01
3.750000e+01
5.000000e+01
6.250000e+01
7.500000e+01
8.750000e+01
1.000000e+02
1.125000e+02
1.250000e+02
1.375000e+02
1.500000e+02
1.625000e+02
1.750000e+02
1.875000e+02
2.000000e+02
0.000000e+00
1.250000e+01
2.500000e+01
3.750000e+01
5.000000e+01
6.250000e+01
7.500000e+01
8.750000e+01
1.000000e+02
1.125000e+02
1.250000e+02
1.375000e+02
1.500000e+02
1.625000e+02
1.750000e+02
1.875000e+02
2.000000e+02
0.000000e+00
0.000000e+00
0.000000e+00
0.000000e+00
0.000000e+00
0.000000e+00
0.000000e+00
0.000000e+00
0.000000e+00
0.000000e+00
0.000000e+00
0.000000e+00
0.000000e+00
0.000000e+00
0.000000e+00
0.000000e+00
0.000000e+00
1.250000e+01
1.250000e+01
1.250000e+01
1.250000e+01
1.250000e+01
1.250000e+01
1.250000e+01
1.250000e+01
1.250000e+01
1.250000e+01
1.250000e+01
1.250000e+01
1.250000e+01
1.250000e+01
1.250000e+01
1.250000e+01
1.250000e+01
2.500000e+01
2.500000e+01
2.500000e+01
2.500000e+01
2.500000e+01
2.500000e+01
2.500000e+01
2.500000e+01
2.500000e+01
2.500000e+01
2.500000e+01
2.500000e+01
2.500000e+01
2.500000e+01
2.500000e+01
2.500000e+01
2.500000e+01
3.750000e+01
3.750000e+01
3.750000e+01
3.750000e+01
3.750000e+01
3.750000e+01
3.750000e+01
3.750000e+01
3.750000e+01
3.750000e+01
3.750000e+01
3.750000e+01
3.750000e+01
3.750000e+01
3.750000e+01
3.750000e+01
3.750000e+01
5.000000e+01
5.000000e+01
5.000000e+01
5.000000e+01
5.000000e+01
5.000000e+01
5.000000e+01
5.000000e+01
5.000000e+01
5.000000e+01
5.000000e+01
5.000000e+01
5.000000e+01
5.000000e+01
5.000000e+01
5.000000e+01
5.000000e+01
6.250000e+01
6.250000e+01
6.250000e+01
6.250000e+01
6.250000e+01
6.250000e+01
6.250000e+01
6.250000e+01
6.250000e+01
6.250000e+01
6.250000e+01
6.250000e+01
6.250000e+01
6.250000e+01
6.250000e+01
6.250000e+01
6.250000e+01
7.500000e+01
7.500000e+01
7.500000e+01
7.500000e+01
7.500000e+01
7.500000e+01
7.500000e+01
7.500000e+01
7.500000e+01
7.500000e+01
7.500000e+01
7.500000e+01
7.500000e+01
7.500000e+01
7.500000e+01
7.500000e+01
7.500000e+01
8.750000e+01
8.750000e+01
8.750000e+01
8.750000e+01
8.750000e+01
8.750000e+01
8.750000e+01
8.750000e+01
8.750000e+01
8.750000e+01
8.750000e+01
8.750000e+01
8.750000e+01
8.750000e+01
8.750000e+01
8.750000e+01
8.750000e+01
1.000000e+02
1.000000e+02
1.000000e+02
1.000000e+02
1.000000e+02
1.000000e+02
1.000000e+02
1.000000e+02
1.000000e+02
1.000000e+02
1.000000e+02
1.000000e+02
1.000000e+02
1.000000e+02
1.000000e+02
1.000000e+02
1.000000e+02
0.000000e+00
-9.791821e-01
-1.670627e+00
-2.412264e+00
-3.092344e+00
-3.744057e+00
-4.432192e+00
-5.080824e+00
-5.741921e+00
-6.390865e+00
-7.051415e+00
-7.704236e+00
-8.380295e+00
-9.164079e+00
-1.005618e+01
-1.079998e+01
-1.125129e+01
0.000000e+00
-4.440704e-01
-9.137865e-01
-1.421136e+00
-1.933900e+00
-2.419295e+00
-2.931125e+00
-3.431382e+00
-3.925290e+00
-4.426317e+00
-4.925356e+00
-5.418154e+00
-5.908956e+00
-6.431220e+00
-6.874800e+00
-6.991606e+00
-7.168979e+00
0.000000e+00
-1.551553e-01
-3.669051e-01
-6.593473e-01
-9.988130e-01
-1.325289e+00
-1.679244e+00
-2.030630e+00
-2.376673e+00
-2.731065e+00
-3.071707e+00
-3.397328e+00
-3.686940e+00
-3.916772e+00
-4.012315e+00
-4.004978e+00
-4.154877e+00
0.000000e+00
-7.968532e-02
-1.655916e-01
-3.105750e-01
-4.551621e-01
-6.297169e-01
-8.070055e-01
-9.789464e-01
-1.157681e+00
-1.322625e+00
-1.481546e+00
-1.614575e+00
-1.697963e+00
-1.699679e+00
-1.628389e+00
-1.613377e+00
-1.735437e+00
0.000000e+00
-2.648567e-03
-5.733369e-03
-8.677050e-03
-1.119203e-02
-1.229177e-02
-1.068879e-02
-5.183884e-03
5.354159e-03
2.426813e-02
5.300942e-02
1.021780e-01
1.856702e-01
3.007838e-01
4.163373e-01
4.494645e-01
3.501666e-01
0.000000e+00
7.515934e-02
1.563417e-01
2.954815e-01
4.353666e-01
6.070879e-01
7.869238e-01
9.686312e-01
1.169139e+00
1.368532e+00
1.583754e+00
1.807582e+00
2.028017e+00
2.223528e+00
2.355824e+00
2.387401e+00
2.322837e+00
0.000000e+00
1.534645e-01
3.630796e-01
6.524562e-01
9.877566e-01
1.311927e+00
1.665456e+00
2.022775e+00
2.389667e+00
2.777262e+00
3.152191e+00
3.522182e+00
3.858174e+00
4.124337e+00
4.293487e+00
4.348597e+00
4.328134e+00
0.000000e+00
4.444438e-01
9.145366e-01
1.421831e+00
1.932875e+00
2.417759e+00
2.927077e+00
3.420692e+00
3.911177e+00
4.402615e+00
4.879291e+00
5.353985e+00
5.790901e+00
6.131333e+00
6.343442e+00
6.436267e+00
6.452964e+00
0.000000e+00
9.804020e-01
1.674512e+00
2.419522e+00
3.102565e+00
3.758018e+00
4.447913e+00
5.084283e+00
5.724503e+00
6.329347e+00
6.915025e+00
7.510990e+00
8.047427e+00
8.441201e+00
8.641787e+00
8.695850e+00
8.696620e+00
0.000000e+00
-6.101451e-01
-1.340008e+00
-2.319057e+00
-3.471154e+00
-4.794378e+00
-6.300599e+00
-7.967225e+00
-9.804735e+00
-1.180933e+01
-1.397740e+01
-1.630648e+01
-1.881293e+01
-2.153572e+01
-2.448879e+01
-2.785249e+01
-3.286564e+01
0.000000e+00
-4.065399e-01
-1.171345e+00
-2.134517e+00
-3.300583e+00
-4.618937e+00
-6.124183e+00
-7.796401e+00
-9.631339e+00
-1.163871e+01
-1.380668e+01
-1.613932e+01
-1.863535e+01
-2.134793e+01
-2.435376e+01
-2.776557e+01
-3.182563e+01
0.000000e+00
-3.775253e-01
-1.070158e+00
-2.029397e+00
-3.179693e+00
-4.495079e+00
-6.000547e+00
-7.670368e+00
-9.510456e+00
-1.151891e+01
-1.369718e+01
-1.604046e+01
-1.854922e+01
-2.128715e+01
-2.434611e+01
-2.760914e+01
-3.063786e+01
0.000000e+00
-4.312707e-01
-1.063566e+00
-2.000346e+00
-3.113953e+00
-4.427899e+00
-5.932241e+00
-7.598254e+00
-9.450001e+00
-1.146331e+01
-1.365854e+01
-1.602438e+01
-1.855872e+01
-2.129488e+01
-2.428284e+01
-2.729644e+01
-2.990141e+01
0.000000e+00
-4.399173e-01
-1.082496e+00
-1.984925e+00
-3.101993e+00
-4.411288e+00
-5.915102e+00
-7.590726e+00
-9.445369e+00
-1.147418e+01
-1.367876e+01
-1.606100e+01
-1.860192e+01
-2.129713e+01
-2.413479e+01
-2.693423e+01
-2.930059e+01
0.000000e+00
-4.300944e-01
-1.063342e+00
-2.002560e+00
-3.120798e+00
-4.441546e+00
-5.957640e+00
-7.634564e+00
-9.504140e+00
-1.153766e+01
-1.374159e+01
-1.611523e+01
-1.864144e+01
-2.128814e+01
-2.399693e+01
-2.661900e+01
-2.887213e+01
0.000000e+00
-3.759939e-01
-1.069904e+00
-2.033289e+00
-3.190852e+00
-4.519452e+00
-6.045057e+00
-7.737905e+00
-9.607812e+00
-1.164469e+01
-1.383059e+01
-1.618434e+01
-1.868880e+01
-2.129219e+01
-2.391078e+01
-2.641476e+01
-2.865077e+01
0.000000e+00
-4.051489e-01
-1.171039e+00
-2.138408e+00
-3.312762e+00
-4.646002e+00
-6.174390e+00
-7.875574e+00
-9.743648e+00
-1.177809e+01
-1.395044e+01
-1.628635e+01
-1.876952e+01
-2.133567e+01
-2.388983e+01
-2.632648e+01
-2.859266e+01
0.000000e+00
-6.092443e-01
-1.340285e+00
-2.323303e+00
-3.484016e+00
-4.822310e+00
-6.350548e+00
-8.045120e+00
-9.913770e+00
-1.193817e+01
-1.410753e+01
-1.643632e+01
-1.889306e+01
-2.141524e+01
-2.391458e+01
-2.631097e+01
-2.859163e+01


0.000000e+00
1.517164e-05
2.494913e-05
3.703011e-05
5.255801e-05
6.583096e-05
8.057027e-05
9.541942e-05
1.093549e-04
1.246160e-04
1.395836e-04
1.538489e-04
1.714527e-04
1.852442e-04
1.925352e-04
1.974121e-04
2.039832e-04
0.000000e+00
1.129900e-05
1.979288e-05
2.849657e-05
4.128620e-05
5.188586e-05
6.230396e-05
7.362206e-05
8.375754e-05
9.478903e-05
1.048889e-04
1.144484e-04
1.258898e-04
1.334351e-04
1.331524e-04
1.366779e-04
1.424426e-04
0.000000e+00
9.476014e-06
1.531527e-05
2.095771e-05
3.033846e-05
3.730485e-05
4.380294e-05
5.129870e-05
5.731741e-05
6.378485e-05
6.922328e-05
7.357115e-05
7.795989e-05
7.897288e-05
7.764954e-05
8.002472e-05
8.436493e-05
0.000000e+00
5.182230e-06
7.279008e-06
1.075472e-05
1.516151e-05
1.762100e-05
2.125582e-05
2.431392e-05
2.640292e-05
2.872185e-05
3.006049e-05
2.975433e-05
2.841406e-05
2.655097e-05
2.656018e-05
2.966729e-05
3.520090e-05
0.000000e+00
-8.216421e-08
-2.109692e-07
-3.885272e-07
-6.358921e-07
-9.584593e-07
-1.350906e-06
-1.931938e-06
-2.716741e-06
-4.203089e-06
-6.701656e-06
-1.042137e-05
-1.338742e-05
-1.479898e-05
-1.434643e-05
-1.203582e-05
-8.278428e-06
0.000000e+00
-5.296914e-06
-7.577642e-06
-1.137308e-05
-1.618261e-05
-1.915105e-05
-2.351701e-05
-2.710159e-05
-3.039897e-05
-3.331104e-05
-3.674161e-05
-4.141341e-05
-4.550823e-05
-4.678597e-05
-4.735983e-05
-4.785959e-05
-4.645239e-05
0.000000e+00
-9.443023e-06
-1.533018e-05
-2.113683e-05
-3.074244e-05
-3.809670e-05
-4.483563e-05
-5.277773e-05
-5.862021e-05
-6.380111e-05
-6.850013e-05
-7.296460e-05
-7.696750e-05
-7.989669e-05
-8.174802e-05
-8.351469e-05
-8.420617e-05
0.000000e+00
-1.123402e-05
-1.970511e-05
-2.840928e-05
-4.119816e-05
-5.190846e-05
-6.223601e-05
-7.378961e-05
-8.392539e-05
-9.434271e-05
-1.044769e-04
-1.120011e-04
-1.172352e-04
-1.218371e-04
-1.248736e-04
-1.259343e-04
-1.260417e-04
0.000000e+00
-1.520509e-05
-2.493181e-05
-3.688087e-05
-5.219886e-05
-6.521318e-05
-7.960235e-05
-9.393643e-05
-1.081015e-04
-1.235183e-04
-1.407561e-04
-1.551268e-04
-1.642556e-04
-1.690171e-04
-1.710023e-04
-1.710983e-04
-1.708963e-04
0.000000e+00
1.253576e-05
1.996871e-05
3.211650e-05
4.768834e-05
6.439992e-05
8.622826e-05
1.118942e-04
1.411763e-04
1.756746e-04
2.140012e-04
2.576888e-04
3.081193e-04
3.607896e-04
4.212529e-04
4.908679e-04
5.623636e-04
0.000000e+00
7.568866e-06
1.600626e-05
2.604562e-05
4.126887e-05
5.856388e-05
7.986013e-05
1.057919e-04
1.350790e-04
1.693600e-04
2.081404e-04
2.514499e-04
3.016729e-04
3.570695e-04
4.168444e-04
4.837243e-04
5.521530e-04
0.000000e+00
4.145408e-06
1.205131e-05
2.120984e-05
3.563785e-05
5.357851e-05
7.504239e-05
1.009044e-04
1.304832e-04
1.649369e-04
2.038705e-04
2.475831e-04
2.981702e-04
3.553987e-04
4.132717e-04
4.763300e-04
5.422235e-04
0.000000e+00
2.869003e-06
9.978858e-06
1.915373e-05
3.335718e-05
5.148171e-05
7.312998e-05
9.920126e-05
1.289991e-04
1.631739e-04
2.022970e-04
2.467804e-04
2.978390e-04
3.541748e-04
4.107979e-04
4.686241e-04
5.280222e-04
0.000000e+00
2.416450e-06
9.417728e-06
1.872157e-05
3.281787e-05
5.092495e-05
7.259897e-05
9.873436e-05
1.287359e-04
1.625565e-04
2.012904e-04
2.474633e-04
2.985197e-04
3.543029e-04
4.097003e-04
4.624106e-04
5.127856e-04
0.000000e+00
2.974290e-06
1.012549e-05
1.934647e-05
3.351882e-05
5.155003e-05
7.308065e-05
9.893222e-05
1.288512e-04
1.624258e-04
2.017342e-04
2.494358e-04
3.010281e-04
3.545769e-04
4.096387e-04
4.601706e-04
5.028898e-04
0.000000e+00
4.282417e-06
1.228668e-05
2.154156e-05
3.589587e-05
5.372574e-05
7.479843e-05
1.003031e-04
1.295266e-04
1.634496e-04
2.039174e-04
2.526555e-04
3.044967e-04
3.563303e-04
4.086715e-04
4.578476e-04
5.000428e-04
0.000000e+00
7.687654e-06
1.627554e-05
2.643283e-05
4.163991e-05
5.875495e-05
7.972007e-05
1.050671e-04
1.335925e-04
1.675542e-04
2.083260e-04
2.560708e-04
3.074552e-04
3.582207e-04
4.085220e-04
4.561550e-04
5.005476e-04
0.000000e+00
1.264743e-05
2.023541e-05
3.250591e-05
4.808310e-05
6.461210e-05
8.613667e-05
1.112493e-04
1.397331e-04
1.740609e-04
2.147099e-04
2.600302e-04
3.095768e-04
3.593676e-04
4.086875e-04
4.557154e-04
5.008222e-04


4.900702e+00
5.194336e+00
5.646421e+00
4.895148e+00
4.329422e+00
4.438227e+00
4.555034e+00
4.786631e+00
5.019061e+00
5.397297e+00
5.807758e+00
6.793714e+00
8.347535e+00
9.174059e+00
8.415084e+00
7.242680e+00
7.362816e+00
7.570439e+00
7.664500e+00
7.380534e+00
6.993877e+00
7.075578e+00
7.169914e+00
7.219727e+00
7.393968e+00
7.532275e+00
7.728403e+00
8.210903e+00
8.937054e+00
9.127012e+00
7.714798e+00
5.877141e+00
9.308741e+00
9.291443e+00
9.376598e+00
9.202927e+00
9.164307e+00
9.189924e+00
9.174020e+00
9.207954e+00
9.201364e+00
9.240731e+00
9.224009e+00
9.228060e+00
9.242885e+00
8.771664e+00
7.272437e+00
5.593953e+00
9.683352e+00
9.678158e+00
9.675770e+00
9.652578e+00
9.643783e+00
9.641615e+00
9.632408e+00
9.621749e+00
9.594701e+00
9.526938e+00
9.342826e+00
8.824923e+00
8.290999e+00
7.882471e+00
7.345417e+00
6.968469e+00
9.682662e+00
9.676495e+00
9.672901e+00
9.646337e+00
9.633993e+00
9.628428e+00
9.611144e+00
9.589681e+00
9.519513e+00
9.287744e+00
8.688268e+00
7.826628e+00
7.153147e+00
7.281667e+00
7.950218e+00
8.332777e+00
9.304326e+00
9.284131e+00
9.358592e+00
9.165077e+00
9.105024e+00
9.107426e+00
9.057153e+00
9.029893e+00
8.738433e+00
8.198299e+00
7.712201e+00
7.291694e+00
7.410066e+00
8.049129e+00
8.836387e+00
9.328111e+00
7.354725e+00
7.557869e+00
7.636717e+00
7.319475e+00
6.908027e+00
6.954000e+00
7.000412e+00
6.933752e+00
6.735376e+00
6.552793e+00
6.920457e+00
7.803928e+00
8.529408e+00
9.146056e+00
9.510598e+00
9.636364e+00
4.891833e+00
5.186519e+00
5.628697e+00
4.855045e+00
4.280683e+00
4.379043e+00
4.465680e+00
4.671446e+00
4.771728e+00
5.382235e+00
6.919600e+00
8.381544e+00
9.274976e+00
9.555996e+00
9.664949e+00
9.707095e+00


-7.739522e-01
-2.015116e-01
-3.635987e-01
-2.492239e-01
-1.382002e-01
-2.639675e-01
-1.646687e-01
-1.775558e-01
-1.721501e-01
-1.917544e-01
-1.648447e-01
-2.069395e-01
-4.939289e-01
-5.200898e-01
3.479265e-01
-8.424602e-01
6.081312e-01
4.608591e-01
3.065189e-01
2.279058e-01
2.841154e-01
1.800948e-01
1.863196e-01
1.834563e-01
1.372049e-01
1.468806e-01
1.787101e-01
2.576878e-01
3.276721e-01
5.759217e-01
7.061611e-01
-9.973289e-01
7.424133e-01
4.981912e-01
1.414197e-01
7.597036e-02
3.736532e-02
-4.531640e-02
-6.139801e-03
-1.620308e-02
2.005246e-02
5.989330e-02
1.353731e-01
2.597453e-01
3.331570e-01
1.888909e-01
1.003684e-02
-2.048257e-01
7.504103e-01
5.759928e-01
2.482421e-01
1.295686e-01
3.123412e-02
-8.677653e-03
2.215792e-02
2.419699e-02
7.458043e-02
9.340205e-02
1.248358e-01
1.537796e-01
6.268105e-02
-2.752821e-01
-3.455797e-01
-4.853428e-02
7.528506e-01
5.790944e-01
2.532270e-01
1.317518e-01
2.901780e-02
-2.350722e-02
9.687715e-05
-1.643833e-02
1.715053e-02
3.173468e-02
3.751351e-02
2.679467e-02
-4.106193e-02
-1.697790e-01
-9.917873e-02
3.378967e-01
7.479361e-01
5.064122e-01
1.550864e-01
8.763549e-02
3.673394e-02
-7.108298e-02
-5.819697e-02
-1.190548e-01
-1.118120e-01
-7.947001e-02
-1.094325e-01
-1.146284e-01
-6.872010e-02
5.899958e-02
3.385771e-01
7.420503e-01
6.113398e-01
4.648575e-01
3.124055e-01
2.367605e-01
2.837203e-01
1.702153e-01
1.567468e-01
9.505638e-02
-5.381311e-03
-2.211490e-02
-1.064563e-01
-8.616862e-02
1.054188e-01
3.984637e-01
7.207579e-01
9.497993e-01
-7.766063e-01
-2.075107e-01
-3.705437e-01
-2.519936e-01
-1.452671e-01
-2.642281e-01
-1.324985e-01
-1.400018e-01
-8.677070e-02
-3.810931e-02
-7.904619e-02
7.419380e-02
4.296853e-01
7.777463e-01
9.528966e-01
9.987511e-01
1 2 19 18
2 3 20 19
3 4 21 20
4 5 22 21
5 6 23 22
6 7 24 23
7 8 25 24
8 9 26 25
9 10 27 26
10 11 28 27
11 12 29 28
12 13 30 29
13 14 31 30
14 15 32 31
15 16 33 32
16 17 34 33
18 19 36 35
19 20 37 36
20 21 38 37
21 22 39 38
22 23 40 39
23 24 41 40
24 25 42 41
25 26 43 42
26 27 44 43
27 28 45 44
28 29 46 45
29 30 47 46
30 31 48 47
31 32 49 48
32 33 50 49
33 34 51 50
35 36 53 52
36 37 54 53
37 38 55 54
38 39 56 55
39 40 57 56
40 41 58 57
41 42 59 58
42 43 60 59
43 44 61 60
44 45 62 61
45 46 63 62
46 47 64 63
47 48 65 64
48 49 66 65
49 50 67 66
50 51 68 67
52 53 70 69
53 54 71 70
54 55 72 71
55 56 73 72
56 57 74 73
57 58 75 74
58 59 76 75
59 60 77 76
60 61 78 77
61 62 79 78
62 63 80 79
63 64 81 80
64 65 82 81
65 66 83 82
66 67 84 83
67 68 85 84
69 70 87 86
70 71 88 87
71 72 89 88
72 73 90 89
73 74 91 90
74 75 92 91
75 76 93 92
76 77 94 93
77 78 95 94
78 79 96 95
79 80 97 96
80 81 98 97
81 82 99 98
82 83 100 99
83 84 101 100
84 85 102 101
86 87 104 103
87 88 105 104
88 89 106 105
89 90 107 106
90 91 108 107
91 92 109 108
92 93 110 109
93 94 111 110
94 95 112 111
95 96 113 112
96 97 114 113
97 98 115 114
98 99 116 115
99 100 117 116
100 101 118 117
101 102 119 118
103 104 121 120
104 105 122 121
105 106 123 122
106 107 124 123
107 108 125 124
108 109 126 125
109 110 127 126
110 111 128 127
111 112 129 128
112 113 130 129
113 114 131 130
114 115 132 131
115 116 133 132
116 117 134 133
117 118 135 134
118 119 136 135
120 121 138 137
121 122 139 138
122 123 140 139
123 124 141 140
124 125 142 141
125 126 143 142
126 127 144 143
127 128 145 144
128 129 146 145
129 130 147 146
130 131 148 147
131 132 149 148
132 133 150 149
133 134 151 150
134 135 152 151
135 136 153 152
