TITLE = "Solution"
VARIABLES = x, y, u, v, psiu, psiv, t, stress
ZONE T="structure" N=153 E=128 F=FEBLOCK ET=QUADRILATERAL VARLOCATION=([7,8]=cellcentered)
0.000000e+00
1.250000e+01
2.500000e+01
3.750000e+01
5.000000e+01
6.250000e+01
7.500000e+01
8.750000e+01
1.000000e+02
1.125000e+02
1.250000e+02
1.375000e+02
1.500000e+02
1.625000e+02
1.750000e+02
1.875000e+02
2.000000e+02
0.000000e+00
1.250000e+01
2.500000e+01
3.750000e+01
5.000000e+01
6.250000e+01
7.500000e+01
8.750000e+01
1.000000e+02
1.125000e+02
1.250000e+02
1.375000e+02
1.500000e+02
1.625000e+02
1.750000e+02
1.875000e+02
2.000000e+02
0.000000e+00
1.250000e+01
2.500000e+01
3.750000e+01
5.000000e+01
6.250000e+01
7.500000e+01
8.750000e+01
1.000000e+02
1.125000e+02
1.250000e+02
1.375000e+02
1.500000e+02
1.625000e+02
1.750000e+02
1.875000e+02
2.000000e+02
0.000000e+00
1.250000e+01
2.500000e+01
3.750000e+01
5.000000e+01
6.250000e+01
7.500000e+01
8.750000e+01
1.000000e+02
1.125000e+02
1.250000e+02
1.375000e+02
1.500000e+02
1.625000e+02
1.750000e+02
1.875000e+02
2.000000e+02
0.000000e+00
1.250000e+01
2.500000e+01
3.750000e+01
5.000000e+01
6.250000e+01
7.500000e+01
8.750000e+01
1.000000e+02
1.125000e+02
1.250000e+02
1.375000e+02
1.500000e+02
1.625000e+02
1.750000e+02
1.875000e+02
2.000000e+02
0.000000e+00
1.250000e+01
2.500000e+01
3.750000e+01
5.000000e+01
6.250000e+01
7.500000e+01
8.750000e+01
1.000000e+02
1.125000e+02
1.250000e+02
1.375000e+02
1.500000e+02
1.625000e+02
1.750000e+02
1.875000e+02
2.000000e+02
0.000000e+00
1.250000e+01
2.500000e+01
3.750000e+01
5.000000e+01
6.250000e+01
7.500000e+01
8.750000e+01
1.000000e+02
1.125000e+02
1.250000e+02
1.375000e+02
1.500000e+02
1.625000e+02
1.750000e+02
1.875000e+02
2.000000e+02
0.000000e+00
1.250000e+01
2.500000e+01
3.750000e+01
5.000000e+01
6.250000e+01
7.500000e+01
8.750000e+01
1.000000e+02
1.125000e+02
1.250000e+02
1.375000e+02
1.500000e+02
1.625000e+02
1.750000e+02
1.875000e+02
2.000000e+02
0.000000e+00
1.250000e+01
2.500000e+01
3.750000e+01
5.000000e+01
6.250000e+01
7.500000e+01
8.750000e+01
1.000000e+02
1.125000e+02
1.250000e+02
1.375000e+02
1.500000e+02
1.625000e+02
1.750000e+02
1.875000e+02
2.000000e+02
0.000000e+00
0.000000e+00
0.000000e+00
0.000000e+00
0.000000e+00
0.000000e+00
0.000000e+00
0.000000e+00
0.000000e+00
0.000000e+00
0.000000e+00
0.000000e+00
0.000000e+00
0.000000e+00
0.000000e+00
0.000000e+00
0.000000e+00
1.250000e+01
1.250000e+01
1.250000e+01
1.250000e+01
1.250000e+01
1.250000e+01
1.250000e+01
1.250000e+01
1.250000e+01
1.250000e+01
1.250000e+01
1.250000e+01
1.250000e+01
1.250000e+01
1.250000e+01
1.250000e+01
1.250000e+01
2.500000e+01
2.500000e+01
2.500000e+01
2.500000e+01
2.500000e+01
2.500000e+01
2.500000e+01
2.500000e+01
2.500000e+01
2.500000e+01
2.500000e+01
2.500000e+01
2.500000e+01
2.500000e+01
2.500000e+01
2.500000e+01
2.500000e+01
3.750000e+01
3.750000e+01
3.750000e+01
3.750000e+01
3.750000e+01
3.750000e+01
3.750000e+01
3.750000e+01
3.750000e+01
3.750000e+01
3.750000e+01
3.750000e+01
3.750000e+01
3.750000e+01
3.750000e+01
3.750000e+01
3.750000e+01
5.000000e+01
5.000000e+01
5.000000e+01
5.000000e+01
5.000000e+01
5.000000e+01
5.000000e+01
5.000000e+01
5.000000e+01
5.000000e+01
5.000000e+01
5.000000e+01
5.000000e+01
5.000000e+01
5.000000e+01
5.000000e+01
5.000000e+01
6.250000e+01
6.250000e+01
6.250000e+01
6.250000e+01
6.250000e+01
6.250000e+01
6.250000e+01
6.250000e+01
6.250000e+01
6.250000e+01
6.250000e+01
6.250000e+01
6.250000e+01
6.250000e+01
6.250000e+01
6.250000e+01
6.250000e+01
7.500000e+01
7.500000e+01
7.500000e+01
7.500000e+01
7.500000e+01
7.500000e+01
7.500000e+01
7.500000e+01
7.500000e+01
7.500000e+01
7.500000e+01
7.500000e+01
7.500000e+01
7.500000e+01
7.500000e+01
7.500000e+01
7.500000e+01
8.750000e+01
8.750000e+01
8.750000e+01
8.750000e+01
8.750000e+01
8.750000e+01
8.750000e+01
8.750000e+01
8.750000e+01
8.750000e+01
8.750000e+01
8.750000e+01
8.750000e+01
8.750000e+01
8.750000e+01
8.750000e+01
8.750000e+01
1.000000e+02
1.000000e+02
1.000000e+02
1.000000e+02
1.000000e+02
1.000000e+02
1.000000e+02
1.000000e+02
1.000000e+02
1.000000e+02
1.000000e+02
1.000000e+02
1.000000e+02
1.000000e+02
1.000000e+02
1.000000e+02
1.000000e+02
0.000000e+00
-8.708307e-01
-1.554576e+00
-2.231144e+00
-2.916368e+00
-3.577801e+00
-4.240349e+00
-4.905122e+00
-5.563087e+00
-6.220040e+00
-6.881146e+00
-7.540281e+00
-8.187402e+00
-8.823222e+00
-9.457564e+00
-1.010058e+01
-1.053305e+01
0.000000e+00
-4.583457e-01
-9.511568e-01
-1.448528e+00
-1.961539e+00
-2.456813e+00
-2.952040e+00
-3.449143e+00
-3.940259e+00
-4.428021e+00
-4.914050e+00
-5.389020e+00
-5.834083e+00
-6.219740e+00
-6.482806e+00
-6.544235e+00
-6.694758e+00
0.000000e+00
-2.379787e-01
-5.090222e-01
-8.261804e-01
-1.163178e+00
-1.495724e+00
-1.831076e+00
-2.166388e+00
-2.496135e+00
-2.818317e+00
-3.126811e+00
-3.406939e+00
-3.635238e+00
-3.778877e+00
-3.804287e+00
-3.774448e+00
-3.926872e+00
0.000000e+00
-1.021459e-01
-2.212083e-01
-3.696679e-01
-5.312008e-01
-6.987725e-01
-8.683921e-01
-1.035882e+00
-1.197688e+00
-1.348640e+00
-1.479774e+00
-1.577711e+00
-1.626316e+00
-1.613948e+00
-1.561911e+00
-1.566091e+00
-1.692903e+00
0.000000e+00
-8.279267e-04
-1.652242e-03
-2.297057e-03
-2.462160e-03
-1.622776e-03
1.140908e-03
7.290726e-03
1.913048e-02
4.041429e-02
7.668886e-02
1.342161e-01
2.160582e-01
3.124129e-01
3.852316e-01
3.818689e-01
2.874125e-01
0.000000e+00
1.007238e-01
2.183560e-01
3.655791e-01
5.265672e-01
6.951735e-01
8.688799e-01
1.045875e+00
1.226463e+00
1.411565e+00
1.600744e+00
1.790549e+00
1.971915e+00
2.125550e+00
2.221529e+00
2.235713e+00
2.184468e+00
0.000000e+00
2.372243e-01
5.074373e-01
8.236662e-01
1.159801e+00
1.492083e+00
1.828186e+00
2.165981e+00
2.502129e+00
2.837480e+00
3.167081e+00
3.476387e+00
3.745483e+00
3.953472e+00
4.081955e+00
4.125184e+00
4.113393e+00
0.000000e+00
4.583960e-01
9.511953e-01
1.448321e+00
1.960737e+00
2.455231e+00
2.948700e+00
3.441799e+00
3.927195e+00
4.406654e+00
4.872293e+00
5.297134e+00
5.648751e+00
5.905230e+00
6.061069e+00
6.127992e+00
6.140439e+00
0.000000e+00
8.715007e-01
1.556170e+00
2.233714e+00
2.919770e+00
3.581941e+00
4.244005e+00
4.905096e+00
5.555978e+00
6.198288e+00
6.816683e+00
7.367468e+00
7.800866e+00
8.086449e+00
8.225716e+00
8.259340e+00
8.258198e+00
0.000000e+00
-5.382469e-01
-1.127538e+00
-1.909999e+00
-2.860938e+00
-3.978753e+00
-5.272673e+00
-6.740445e+00
-8.380562e+00
-1.019551e+01
-1.218528e+01
-1.434607e+01
-1.667520e+01
-1.918013e+01
-2.191762e+01
-2.510026e+01
-2.977763e+01
0.000000e+00
-3.436658e-01
-9.599493e-01
-1.732391e+00
-2.685424e+00
-3.805897e+00
-5.099131e+00
-6.567952e+00
-8.209935e+00
-1.002568e+01
-1.201724e+01
-1.418376e+01
-1.652374e+01
-1.904907e+01
-2.181108e+01
-2.499555e+01
-2.889326e+01
0.000000e+00
-2.885892e-01
-8.513090e-01
-1.615628e+00
-2.563317e+00
-3.683168e+00
-4.977057e+00
-6.447644e+00
-8.092950e+00
-9.914041e+00
-1.191436e+01
-1.409496e+01
-1.645695e+01
-1.901452e+01
-2.179818e+01
-2.480911e+01
-2.765620e+01
0.000000e+00
-2.922590e-01
-8.147505e-01
-1.557622e+00
-2.494790e+00
-3.611841e+00
-4.907067e+00
-6.380598e+00
-8.031746e+00
-9.862936e+00
-1.187790e+01
-1.407706e+01
-1.645834e+01
-1.902115e+01
-2.174115e+01
-2.447156e+01
-2.687721e+01
0.000000e+00
-2.982562e-01
-8.100987e-01
-1.542624e+00
-2.474763e+00
-3.591239e+00
-4.888829e+00
-6.366336e+00
-8.024106e+00
-9.865735e+00
-1.189453e+01
-1.410730e+01
-1.649141e+01
-1.902008e+01
-2.162176e+01
-2.414044e+01
-2.632925e+01
0.000000e+00
-2.921456e-01
-8.151637e-01
-1.559268e+00
-2.498584e+00
-3.619198e+00
-4.919964e+00
-6.401329e+00
-8.063683e+00
-9.911538e+00
-1.194810e+01
-1.416493e+01
-1.653582e+01
-1.901108e+01
-2.150475e+01
-2.388652e+01
-2.598983e+01
0.000000e+00
-2.883783e-01
-8.519278e-01
-1.618197e+00
-2.569355e+00
-3.694998e+00
-4.997966e+00
-6.481552e+00
-8.145591e+00
-9.994756e+00
-1.203197e+01
-1.424383e+01
-1.659299e+01
-1.901720e+01
-2.143042e+01
-2.373377e+01
-2.583512e+01
0.000000e+00
-3.434592e-01
-9.606078e-01
-1.735173e+00
-2.692109e+00
-3.819067e+00
-5.122396e+00
-6.605934e+00
-8.269427e+00
-1.011692e+01
-1.214895e+01
-1.434774e+01
-1.667072e+01
-1.905232e+01
-2.141092e+01
-2.366930e+01
-2.579943e+01
0.000000e+00
-5.382216e-01
-1.128359e+00
-1.912933e+00
-2.867812e+00
-3.992098e+00
-5.295735e+00
-6.777786e+00
-8.439093e+00
-1.028347e+01
-1.230534e+01
-1.448157e+01
-1.676983e+01
-1.910930e+01
-2.142650e+01
-2.365728e+01
-2.580048e+01


0.000000e+00
1.244986e-05
2.296608e-05
3.376953e-05
4.636907e-05
5.849981e-05
6.985340e-05
8.098155e-05
9.167087e-05
1.015154e-04
1.099363e-04
1.162398e-04
1.204860e-04
1.235649e-04
1.261493e-04
1.291600e-04
1.326992e-04
0.000000e+00
9.177322e-06
1.852211e-05
2.656845e-05
3.642240e-05
4.583536e-05
5.424181e-05
6.251372e-05
7.053609e-05
7.778522e-05
8.369772e-05
8.765224e-05
8.956976e-05
8.992420e-05
9.007885e-05
9.253780e-05
9.662168e-05
0.000000e+00
7.104801e-06
1.355524e-05
1.909410e-05
2.574698e-05
3.192441e-05
3.746297e-05
4.284390e-05
4.788409e-05
5.223170e-05
5.555607e-05
5.754666e-05
5.822021e-05
5.806989e-05
5.825667e-05
6.059560e-05
6.456383e-05
0.000000e+00
3.604170e-06
6.386554e-06
9.695965e-06
1.285466e-05
1.576875e-05
1.858958e-05
2.120534e-05
2.348839e-05
2.536265e-05
2.670928e-05
2.747062e-05
2.779849e-05
2.807576e-05
2.876239e-05
3.050782e-05
3.323200e-05
0.000000e+00
-1.687075e-08
-3.551766e-08
-5.404176e-08
-7.178395e-08
-8.975930e-08
-1.102827e-07
-1.428541e-07
-2.169241e-07
-3.793720e-07
-6.370331e-07
-8.982361e-07
-9.962780e-07
-7.437182e-07
-1.924845e-07
5.572314e-07
1.809359e-06
0.000000e+00
-3.634936e-06
-6.448333e-06
-9.791421e-06
-1.298219e-05
-1.592655e-05
-1.877128e-05
-2.140581e-05
-2.375468e-05
-2.579970e-05
-2.743186e-05
-2.856058e-05
-2.914389e-05
-2.928047e-05
-2.928057e-05
-2.926056e-05
-2.888642e-05
0.000000e+00
-7.122751e-06
-1.359304e-05
-1.915697e-05
-2.584666e-05
-3.205569e-05
-3.759619e-05
-4.297502e-05
-4.800946e-05
-5.219539e-05
-5.516226e-05
-5.692028e-05
-5.784383e-05
-5.832971e-05
-5.864998e-05
-5.885306e-05
-5.880177e-05
0.000000e+00
-9.180327e-06
-1.852778e-05
-2.657862e-05
-3.645494e-05
-4.588746e-05
-5.427245e-05
-6.254861e-05
-7.061404e-05
-7.755693e-05
-8.252325e-05
-8.543301e-05
-8.699814e-05
-8.788687e-05
-8.842166e-05
-8.869411e-05
-8.874392e-05
0.000000e+00
-1.244841e-05
-2.294837e-05
-3.372766e-05
-4.630521e-05
-5.840817e-05
-6.969984e-05
-8.078595e-05
-9.148958e-05
-1.010402e-04
-1.084407e-04
-1.133536e-04
-1.162811e-04
-1.179012e-04
-1.186942e-04
-1.189677e-04
-1.190058e-04
0.000000e+00
1.066389e-05
1.790789e-05
2.761554e-05
4.056206e-05
5.550189e-05
7.334557e-05
9.443219e-05
1.181687e-04
1.441123e-04
1.717737e-04
2.006873e-04
2.309117e-04
2.632030e-04
3.003219e-04
3.434968e-04
3.872636e-04
0.000000e+00
5.795643e-06
1.354864e-05
2.247410e-05
3.493186e-05
5.025153e-05
6.837890e-05
8.956574e-05
1.135883e-04
1.400976e-04
1.686670e-04
1.987107e-04
2.298819e-04
2.625193e-04
2.977590e-04
3.384090e-04
3.809625e-04
0.000000e+00
2.676505e-06
9.743211e-06
1.865623e-05
3.075109e-05
4.636016e-05
6.483641e-05
8.617796e-05
1.104672e-04
1.374608e-04
1.667034e-04
1.975506e-04
2.294446e-04
2.619324e-04
2.946147e-04
3.318432e-04
3.722954e-04
0.000000e+00
1.580075e-06
7.839859e-06
1.690589e-05
2.907627e-05
4.471083e-05
6.332807e-05
8.485191e-05
1.093262e-04
1.365327e-04
1.660024e-04
1.970817e-04
2.291095e-04
2.612623e-04
2.924258e-04
3.265150e-04
3.640368e-04
0.000000e+00
1.328378e-06
7.271048e-06
1.631828e-05
2.862473e-05
4.420854e-05
6.285415e-05
8.448014e-05
1.090671e-04
1.363898e-04
1.659305e-04
1.969927e-04
2.288678e-04
2.607540e-04
2.917831e-04
3.240226e-04
3.582395e-04
0.000000e+00
1.584639e-06
7.840036e-06
1.689145e-05
2.904340e-05
4.466229e-05
6.326419e-05
8.480226e-05
1.094005e-04
1.368280e-04
1.664314e-04
1.974013e-04
2.290245e-04
2.606451e-04
2.919041e-04
3.233934e-04
3.551447e-04
0.000000e+00
2.684273e-06
9.745017e-06
1.863630e-05
3.070271e-05
4.628528e-05
6.473036e-05
8.609203e-05
1.106006e-04
1.379896e-04
1.675019e-04
1.982321e-04
2.295041e-04
2.608630e-04
2.920562e-04
3.231530e-04
3.538375e-04
0.000000e+00
5.806537e-06
1.355597e-05
2.246411e-05
3.489496e-05
5.017564e-05
6.826492e-05
8.948815e-05
1.137233e-04
1.405633e-04
1.693488e-04
1.993634e-04
2.300997e-04
2.611423e-04
2.921747e-04
3.230184e-04
3.534620e-04
0.000000e+00
1.067680e-05
1.791730e-05
2.761415e-05
4.054045e-05
5.543150e-05
7.323168e-05
9.438279e-05
1.182789e-04
1.442826e-04
1.718715e-04
2.007903e-04
2.308156e-04
2.614764e-04
2.923067e-04
3.230012e-04
3.534178e-04


2.408372e+00
2.304827e+00
2.419108e+00
2.564605e+00
2.679169e+00
2.949462e+00
3.267725e+00
3.625560e+00
4.110394e+00
4.713029e+00
5.320865e+00
5.800334e+00
6.027762e+00
5.754227e+00
4.931844e+00
4.228688e+00
3.591341e+00
3.489706e+00
3.535920e+00
3.613368e+00
3.674492e+00
3.859255e+00
4.082000e+00
4.333879e+00
4.684322e+00
5.128881e+00
5.582549e+00
5.938344e+00
6.072761e+00
5.707950e+00
4.824337e+00
4.066741e+00
5.163279e+00
5.100438e+00
5.099420e+00
5.101478e+00
5.105713e+00
5.180038e+00
5.267667e+00
5.367412e+00
5.517825e+00
5.720469e+00
5.935054e+00
6.103770e+00
6.135983e+00
5.792876e+00
5.044649e+00
4.446804e+00
6.048792e+00
6.016959e+00
5.999202e+00
5.967490e+00
5.954294e+00
5.963793e+00
5.971189e+00
5.978042e+00
5.999649e+00
6.042080e+00
6.097495e+00
6.149396e+00
6.153948e+00
5.971040e+00
5.578194e+00
5.265517e+00
6.048655e+00
6.016614e+00
5.998369e+00
5.965822e+00
5.951377e+00
5.958118e+00
5.959638e+00
5.958396e+00
5.972454e+00
6.007547e+00
6.055836e+00
6.109845e+00
6.154178e+00
6.129506e+00
6.016595e+00
5.919417e+00
5.162608e+00
5.099202e+00
5.096676e+00
5.096534e+00
5.098073e+00
5.166156e+00
5.241563e+00
5.331363e+00
5.482456e+00
5.685211e+00
5.886796e+00
6.050965e+00
6.172814e+00
6.244498e+00
6.264407e+00
6.262793e+00
3.589945e+00
3.487661e+00
3.532034e+00
3.607304e+00
3.667141e+00
3.848084e+00
4.065926e+00
4.332732e+00
4.728226e+00
5.211548e+00
5.658183e+00
5.986704e+00
6.196376e+00
6.319020e+00
6.382230e+00
6.407009e+00
2.406550e+00
2.302665e+00
2.415508e+00
2.559877e+00
2.675946e+00
2.947784e+00
3.272760e+00
3.671856e+00
4.242229e+00
4.917055e+00
5.523833e+00
5.955251e+00
6.215146e+00
6.357076e+00
6.427801e+00
6.456638e+00


-5.549194e-01
-2.239904e-01
-2.084305e-01
-2.585555e-01
-1.763289e-01
-1.794894e-01
-1.891404e-01
-1.654762e-01
-1.582008e-01
-1.626799e-01
-1.330853e-01
-4.393631e-02
9.786265e-02
3.060959e-01
5.573438e-01
-5.674071e-01
5.333909e-01
4.041792e-01
3.414411e-01
2.865680e-01
3.147483e-01
3.018123e-01
2.877521e-01
2.943716e-01
3.014250e-01
3.200452e-01
3.833177e-01
5.102473e-01
6.889163e-01
8.603088e-01
7.511014e-01
-1.273631e+00
8.271473e-01
7.049200e-01
5.925166e-01
5.422807e-01
5.316112e-01
5.137639e-01
5.023541e-01
5.018987e-01
5.074268e-01
5.253290e-01
5.655642e-01
6.198727e-01
6.391495e-01
5.324796e-01
2.249555e-01
-3.186474e-01
8.985709e-01
7.912527e-01
6.763786e-01
6.117642e-01
5.837948e-01
5.693011e-01
5.613039e-01
5.559491e-01
5.459989e-01
5.257213e-01
4.910562e-01
4.289781e-01
3.133313e-01
1.624909e-01
1.229694e-01
1.680462e-01
8.992208e-01
7.919513e-01
6.767682e-01
6.107378e-01
5.795813e-01
5.592449e-01
5.416084e-01
5.201750e-01
4.834081e-01
4.228124e-01
3.387774e-01
2.398263e-01
1.520324e-01
1.524382e-01
3.188132e-01
5.865488e-01
8.287112e-01
7.066679e-01
5.938458e-01
5.412150e-01
5.246614e-01
4.957429e-01
4.652370e-01
4.311437e-01
3.791127e-01
3.109843e-01
2.452468e-01
2.087076e-01
2.393299e-01
3.784784e-01
6.147710e-01
8.627022e-01
5.345896e-01
4.055166e-01
3.428760e-01
2.874035e-01
3.126678e-01
2.950310e-01
2.727930e-01
2.596937e-01
2.304235e-01
2.046819e-01
2.277378e-01
3.179254e-01
4.667336e-01
6.597454e-01
8.530240e-01
9.759398e-01
-5.562167e-01
-2.258285e-01
-2.099547e-01
-2.592791e-01
-1.767969e-01
-1.762535e-01
-1.765468e-01
-1.459285e-01
-1.245264e-01
-6.179019e-02
1.215695e-01
4.055102e-01
6.872394e-01
8.836484e-01
9.772042e-01
9.995525e-01
1 2 19 18
2 3 20 19
3 4 21 20
4 5 22 21
5 6 23 22
6 7 24 23
7 8 25 24
8 9 26 25
9 10 27 26
10 11 28 27
11 12 29 28
12 13 30 29
13 14 31 30
14 15 32 31
15 16 33 32
16 17 34 33
18 19 36 35
19 20 37 36
20 21 38 37
21 22 39 38
22 23 40 39
23 24 41 40
24 25 42 41
25 26 43 42
26 27 44 43
27 28 45 44
28 29 46 45
29 30 47 46
30 31 48 47
31 32 49 48
32 33 50 49
33 34 51 50
35 36 53 52
36 37 54 53
37 38 55 54
38 39 56 55
39 40 57 56
40 41 58 57
41 42 59 58
42 43 60 59
43 44 61 60
44 45 62 61
45 46 63 62
46 47 64 63
47 48 65 64
48 49 66 65
49 50 67 66
50 51 68 67
52 53 70 69
53 54 71 70
54 55 72 71
55 56 73 72
56 57 74 73
57 58 75 74
58 59 76 75
59 60 77 76
60 61 78 77
61 62 79 78
62 63 80 79
63 64 81 80
64 65 82 81
65 66 83 82
66 67 84 83
67 68 85 84
69 70 87 86
70 71 88 87
71 72 89 88
72 73 90 89
73 74 91 90
74 75 92 91
75 76 93 92
76 77 94 93
77 78 95 94
78 79 96 95
79 80 97 96
80 81 98 97
81 82 99 98
82 83 100 99
83 84 101 100
84 85 102 101
86 87 104 103
87 88 105 104
88 89 106 105
89 90 107 106
90 91 108 107
91 92 109 108
92 93 110 109
93 94 111 110
94 95 112 111
95 96 113 112
96 97 114 113
97 98 115 114
98 99 116 115
99 100 117 116
100 101 118 117
101 102 119 118
103 104 121 120
104 105 122 121
105 106 123 122
106 107 124 123
107 108 125 124
108 109 126 125
109 110 127 126
110 111 128 127
111 112 129 128
112 113 130 129
113 114 131 130
114 115 132 131
115 116 133 132
116 117 134 133
117 118 135 134
118 119 136 135
120 121 138 137
121 122 139 138
122 123 140 139
123 124 141 140
124 125 142 141
125 126 143 142
126 127 144 143
127 128 145 144
128 129 146 145
129 130 147 146
130 131 148 147
131 132 149 148
132 133 150 149
133 134 151 150
134 135 152 151
135 136 153 152
