TITLE = "Solution"
VARIABLES = x, y, u, v, psiu, psiv, t, stress
ZONE T="structure" N=153 E=128 F=FEBLOCK ET=QUADRILATERAL VARLOCATION=([7,8]=cellcentered)
0.000000e+00
1.250000e+01
2.500000e+01
3.750000e+01
5.000000e+01
6.250000e+01
7.500000e+01
8.750000e+01
1.000000e+02
1.125000e+02
1.250000e+02
1.375000e+02
1.500000e+02
1.625000e+02
1.750000e+02
1.875000e+02
2.000000e+02
0.000000e+00
1.250000e+01
2.500000e+01
3.750000e+01
5.000000e+01
6.250000e+01
7.500000e+01
8.750000e+01
1.000000e+02
1.125000e+02
1.250000e+02
1.375000e+02
1.500000e+02
1.625000e+02
1.750000e+02
1.875000e+02
2.000000e+02
0.000000e+00
1.250000e+01
2.500000e+01
3.750000e+01
5.000000e+01
6.250000e+01
7.500000e+01
8.750000e+01
1.000000e+02
1.125000e+02
1.250000e+02
1.375000e+02
1.500000e+02
1.625000e+02
1.750000e+02
1.875000e+02
2.000000e+02
0.000000e+00
1.250000e+01
2.500000e+01
3.750000e+01
5.000000e+01
6.250000e+01
7.500000e+01
8.750000e+01
1.000000e+02
1.125000e+02
1.250000e+02
1.375000e+02
1.500000e+02
1.625000e+02
1.750000e+02
1.875000e+02
2.000000e+02
0.000000e+00
1.250000e+01
2.500000e+01
3.750000e+01
5.000000e+01
6.250000e+01
7.500000e+01
8.750000e+01
1.000000e+02
1.125000e+02
1.250000e+02
1.375000e+02
1.500000e+02
1.625000e+02
1.750000e+02
1.875000e+02
2.000000e+02
0.000000e+00
1.250000e+01
2.500000e+01
3.750000e+01
5.000000e+01
6.250000e+01
7.500000e+01
8.750000e+01
1.000000e+02
1.125000e+02
1.250000e+02
1.375000e+02
1.500000e+02
1.625000e+02
1.750000e+02
1.875000e+02
2.000000e+02
0.000000e+00
1.250000e+01
2.500000e+01
3.750000e+01
5.000000e+01
6.250000e+01
7.500000e+01
8.750000e+01
1.000000e+02
1.125000e+02
1.250000e+02
1.375000e+02
1.500000e+02
1.625000e+02
1.750000e+02
1.875000e+02
2.000000e+02
0.000000e+00
1.250000e+01
2.500000e+01
3.750000e+01
5.000000e+01
6.250000e+01
7.500000e+01
8.750000e+01
1.000000e+02
1.125000e+02
1.250000e+02
1.375000e+02
1.500000e+02
1.625000e+02
1.750000e+02
1.875000e+02
2.000000e+02
0.000000e+00
1.250000e+01
2.500000e+01
3.750000e+01
5.000000e+01
6.250000e+01
7.500000e+01
8.750000e+01
1.000000e+02
1.125000e+02
1.250000e+02
1.375000e+02
1.500000e+02
1.625000e+02
1.750000e+02
1.875000e+02
2.000000e+02
0.000000e+00
0.000000e+00
0.000000e+00
0.000000e+00
0.000000e+00
0.000000e+00
0.000000e+00
0.000000e+00
0.000000e+00
0.000000e+00
0.000000e+00
0.000000e+00
0.000000e+00
0.000000e+00
0.000000e+00
0.000000e+00
0.000000e+00
1.250000e+01
1.250000e+01
1.250000e+01
1.250000e+01
1.250000e+01
1.250000e+01
1.250000e+01
1.250000e+01
1.250000e+01
1.250000e+01
1.250000e+01
1.250000e+01
1.250000e+01
1.250000e+01
1.250000e+01
1.250000e+01
1.250000e+01
2.500000e+01
2.500000e+01
2.500000e+01
2.500000e+01
2.500000e+01
2.500000e+01
2.500000e+01
2.500000e+01
2.500000e+01
2.500000e+01
2.500000e+01
2.500000e+01
2.500000e+01
2.500000e+01
2.500000e+01
2.500000e+01
2.500000e+01
3.750000e+01
3.750000e+01
3.750000e+01
3.750000e+01
3.750000e+01
3.750000e+01
3.750000e+01
3.750000e+01
3.750000e+01
3.750000e+01
3.750000e+01
3.750000e+01
3.750000e+01
3.750000e+01
3.750000e+01
3.750000e+01
3.750000e+01
5.000000e+01
5.000000e+01
5.000000e+01
5.000000e+01
5.000000e+01
5.000000e+01
5.000000e+01
5.000000e+01
5.000000e+01
5.000000e+01
5.000000e+01
5.000000e+01
5.000000e+01
5.000000e+01
5.000000e+01
5.000000e+01
5.000000e+01
6.250000e+01
6.250000e+01
6.250000e+01
6.250000e+01
6.250000e+01
6.250000e+01
6.250000e+01
6.250000e+01
6.250000e+01
6.250000e+01
6.250000e+01
6.250000e+01
6.250000e+01
6.250000e+01
6.250000e+01
6.250000e+01
6.250000e+01
7.500000e+01
7.500000e+01
7.500000e+01
7.500000e+01
7.500000e+01
7.500000e+01
7.500000e+01
7.500000e+01
7.500000e+01
7.500000e+01
7.500000e+01
7.500000e+01
7.500000e+01
7.500000e+01
7.500000e+01
7.500000e+01
7.500000e+01
8.750000e+01
8.750000e+01
8.750000e+01
8.750000e+01
8.750000e+01
8.750000e+01
8.750000e+01
8.750000e+01
8.750000e+01
8.750000e+01
8.750000e+01
8.750000e+01
8.750000e+01
8.750000e+01
8.750000e+01
8.750000e+01
8.750000e+01
1.000000e+02
1.000000e+02
1.000000e+02
1.000000e+02
1.000000e+02
1.000000e+02
1.000000e+02
1.000000e+02
1.000000e+02
1.000000e+02
1.000000e+02
1.000000e+02
1.000000e+02
1.000000e+02
1.000000e+02
1.000000e+02
1.000000e+02
0.000000e+00
-8.880481e-01
-1.573280e+00
-2.258558e+00
-2.946472e+00
-3.606876e+00
-4.274054e+00
-4.943360e+00
-5.603677e+00
-6.263340e+00
-6.931855e+00
-7.611685e+00
-8.295184e+00
-8.974451e+00
-9.649335e+00
-1.030946e+01
-1.074687e+01
0.000000e+00
-4.565750e-01
-9.464270e-01
-1.446034e+00
-1.961667e+00
-2.456045e+00
-2.954739e+00
-3.456049e+00
-3.949646e+00
-4.439985e+00
-4.931635e+00
-5.421338e+00
-5.892824e+00
-6.311282e+00
-6.600542e+00
-6.670199e+00
-6.826440e+00
0.000000e+00
-2.267031e-01
-4.899685e-01
-8.050209e-01
-1.142891e+00
-1.475099e+00
-1.813149e+00
-2.151642e+00
-2.484335e+00
-2.810571e+00
-3.125532e+00
-3.416647e+00
-3.660321e+00
-3.819624e+00
-3.853935e+00
-3.826298e+00
-3.979470e+00
0.000000e+00
-9.702726e-02
-2.102346e-01
-3.564527e-01
-5.154868e-01
-6.829417e-01
-8.532714e-01
-1.021580e+00
-1.184886e+00
-1.338188e+00
-1.472580e+00
-1.574286e+00
-1.625708e+00
-1.612818e+00
-1.556090e+00
-1.558075e+00
-1.687447e+00
0.000000e+00
-1.013992e-03
-2.006441e-03
-2.751201e-03
-2.887819e-03
-1.833010e-03
1.434689e-03
8.556265e-03
2.189833e-02
4.518236e-02
8.425886e-02
1.461937e-01
2.349869e-01
3.410275e-01
4.232713e-01
4.236469e-01
3.246256e-01
0.000000e+00
9.528163e-02
2.067856e-01
3.515663e-01
5.100598e-01
6.788491e-01
8.541291e-01
1.033586e+00
1.218187e+00
1.409338e+00
1.607147e+00
1.808425e+00
2.003516e+00
2.171129e+00
2.277601e+00
2.295079e+00
2.240254e+00
0.000000e+00
2.257843e-01
4.880816e-01
8.021270e-01
1.139020e+00
1.470972e+00
1.810377e+00
2.152261e+00
2.492144e+00
2.833703e+00
3.174698e+00
3.500861e+00
3.789255e+00
4.014718e+00
4.155123e+00
4.202753e+00
4.190102e+00
0.000000e+00
4.565952e-01
9.463926e-01
1.445820e+00
1.960689e+00
2.453929e+00
2.951165e+00
3.448465e+00
3.934579e+00
4.416376e+00
4.892739e+00
5.338172e+00
5.714097e+00
5.991345e+00
6.160710e+00
6.233607e+00
6.247186e+00
0.000000e+00
8.888419e-01
1.575080e+00
2.261583e+00
2.950307e+00
3.611012e+00
4.277856e+00
4.942746e+00
5.592467e+00
6.236263e+00
6.868197e+00
7.445624e+00
7.908828e+00
8.217110e+00
8.368080e+00
8.404515e+00
8.403225e+00
0.000000e+00
-5.500502e-01
-1.161692e+00
-1.974240e+00
-2.955526e+00
-4.103717e+00
-5.429867e+00
-6.929648e+00
-8.601657e+00
-1.044973e+01
-1.247664e+01
-1.468356e+01
-1.707060e+01
-1.964302e+01
-2.245069e+01
-2.570328e+01
-3.048199e+01
0.000000e+00
-3.536776e-01
-9.940163e-01
-1.795228e+00
-2.780142e+00
-3.930438e+00
-5.254983e+00
-6.756146e+00
-8.430281e+00
-1.027864e+01
-1.230513e+01
-1.451387e+01
-1.690847e+01
-1.950147e+01
-2.233995e+01
-2.560065e+01
-2.956727e+01
0.000000e+00
-3.022667e-01
-8.867813e-01
-1.679622e+00
-2.658180e+00
-3.807471e+00
-5.132262e+00
-6.634910e+00
-8.312220e+00
-1.016542e+01
-1.219955e+01
-1.442072e+01
-1.683586e+01
-1.946252e+01
-2.232911e+01
-2.541872e+01
-2.833108e+01
0.000000e+00
-3.129358e-01
-8.549215e-01
-1.625157e+00
-2.590480e+00
-3.736706e+00
-5.062631e+00
-6.567643e+00
-8.250346e+00
-1.011329e+01
-1.216223e+01
-1.440245e+01
-1.683727e+01
-1.946975e+01
-2.227380e+01
-2.508316e+01
-2.754719e+01
0.000000e+00
-3.206036e-01
-8.533130e-01
-1.611550e+00
-2.571596e+00
-3.716934e+00
-5.045384e+00
-6.554400e+00
-8.243454e+00
-1.011660e+01
-1.217990e+01
-1.443491e+01
-1.687330e+01
-1.947041e+01
-2.214998e+01
-2.474087e+01
-2.697493e+01
0.000000e+00
-3.128622e-01
-8.555191e-01
-1.627316e+00
-2.595226e+00
-3.745415e+00
-5.077643e+00
-6.591428e+00
-8.285257e+00
-1.016412e+01
-1.223516e+01
-1.449511e+01
-1.692085e+01
-1.946191e+01
-2.202579e+01
-2.446964e+01
-2.661000e+01
0.000000e+00
-3.021389e-01
-8.877168e-01
-1.683017e+00
-2.665754e+00
-3.821532e+00
-5.156616e+00
-6.673715e+00
-8.369588e+00
-1.024945e+01
-1.232108e+01
-1.457687e+01
-1.698127e+01
-1.946873e+01
-2.194588e+01
-2.430415e+01
-2.644213e+01
0.000000e+00
-3.535655e-01
-9.950332e-01
-1.798893e+00
-2.788474e+00
-3.946126e+00
-5.282083e+00
-6.799306e+00
-8.494700e+00
-1.037352e+01
-1.244127e+01
-1.468544e+01
-1.706393e+01
-1.950662e+01
-2.192479e+01
-2.423400e+01
-2.640343e+01
0.000000e+00
-5.501332e-01
-1.162910e+00
-1.978086e+00
-2.963981e+00
-4.119605e+00
-5.456832e+00
-6.971689e+00
-8.664414e+00
-1.054183e+01
-1.260277e+01
-1.482679e+01
-1.717026e+01
-1.956828e+01
-2.194170e+01
-2.422089e+01
-2.640461e+01


0.000000e+00
1.312222e-05
2.367134e-05
3.490128e-05
4.838614e-05
6.108106e-05
7.316865e-05
8.540153e-05
9.715309e-05
1.082880e-04
1.187632e-04
1.274354e-04
1.334442e-04
1.375419e-04
1.406980e-04
1.439688e-04
1.477073e-04
0.000000e+00
9.671583e-06
1.905366e-05
2.738045e-05
3.805335e-05
4.794424e-05
5.683494e-05
6.599323e-05
7.483365e-05
8.303563e-05
9.056174e-05
9.628901e-05
9.922351e-05
9.979126e-05
9.989390e-05
1.025824e-04
1.069621e-04
0.000000e+00
7.589426e-06
1.412817e-05
1.982870e-05
2.707034e-05
3.358970e-05
3.944941e-05
4.541696e-05
5.101022e-05
5.597562e-05
6.018112e-05
6.299506e-05
6.402148e-05
6.378413e-05
6.388741e-05
6.649196e-05
7.087584e-05
0.000000e+00
3.892533e-06
6.679505e-06
1.014587e-05
1.352161e-05
1.656988e-05
1.960727e-05
2.247140e-05
2.500102e-05
2.713000e-05
2.869986e-05
2.958732e-05
2.994377e-05
3.023582e-05
3.102318e-05
3.319273e-05
3.656919e-05
0.000000e+00
-2.234571e-08
-4.846604e-08
-7.601238e-08
-1.048732e-07
-1.337445e-07
-1.671630e-07
-2.164752e-07
-3.093431e-07
-5.158274e-07
-8.973105e-07
-1.342709e-06
-1.602947e-06
-1.380564e-06
-6.404914e-07
4.496498e-07
2.124879e-06
0.000000e+00
-3.931753e-06
-6.760723e-06
-1.027986e-05
-1.370280e-05
-1.679919e-05
-1.988837e-05
-2.278418e-05
-2.537432e-05
-2.772344e-05
-2.968825e-05
-3.115584e-05
-3.202209e-05
-3.229046e-05
-3.233260e-05
-3.231250e-05
-3.181894e-05
0.000000e+00
-7.606705e-06
-1.417442e-05
-1.990920e-05
-2.719075e-05
-3.376994e-05
-3.965722e-05
-4.558152e-05
-5.117470e-05
-5.604429e-05
-5.977457e-05
-6.206849e-05
-6.329755e-05
-6.399065e-05
-6.446276e-05
-6.477374e-05
-6.474251e-05
0.000000e+00
-9.667080e-06
-1.905468e-05
-2.738317e-05
-3.806188e-05
-4.799602e-05
-5.688621e-05
-6.596016e-05
-7.487709e-05
-8.301129e-05
-8.944983e-05
-9.340152e-05
-9.545410e-05
-9.660316e-05
-9.730255e-05
-9.766076e-05
-9.773176e-05
0.000000e+00
-1.311334e-05
-2.363980e-05
-3.483386e-05
-4.826517e-05
-6.092325e-05
-7.294399e-05
-8.504467e-05
-9.681866e-05
-1.079429e-04
-1.173539e-04
-1.239138e-04
-1.278124e-04
-1.298915e-04
-1.308442e-04
-1.311393e-04
-1.311718e-04
0.000000e+00
1.115740e-05
1.858695e-05
2.891324e-05
4.260235e-05
5.815073e-05
7.703183e-05
9.951538e-05
1.247982e-04
1.528805e-04
1.834290e-04
2.154865e-04
2.489281e-04
2.849415e-04
3.267296e-04
3.751400e-04
4.240387e-04
0.000000e+00
6.185576e-06
1.422061e-05
2.348417e-05
3.664901e-05
5.267228e-05
7.168682e-05
9.416882e-05
1.197305e-04
1.481477e-04
1.793111e-04
2.126023e-04
2.474150e-04
2.840684e-04
3.239143e-04
3.697791e-04
4.173404e-04
0.000000e+00
2.939245e-06
1.029866e-05
1.941676e-05
3.212208e-05
4.851529e-05
6.785133e-05
9.039635e-05
1.162174e-04
1.450391e-04
1.767500e-04
2.109137e-04
2.467240e-04
2.834069e-04
3.203058e-04
3.625304e-04
4.080152e-04
0.000000e+00
1.772087e-06
8.293012e-06
1.759564e-05
3.031759e-05
4.673493e-05
6.623638e-05
8.893702e-05
1.149317e-04
1.440152e-04
1.759754e-04
2.103289e-04
2.462919e-04
2.825802e-04
3.175557e-04
3.560298e-04
3.983019e-04
0.000000e+00
1.481194e-06
7.689212e-06
1.699910e-05
2.984145e-05
4.617801e-05
6.572429e-05
8.852297e-05
1.146163e-04
1.438781e-04
1.759706e-04
2.102799e-04
2.460171e-04
2.820175e-04
3.166250e-04
3.525799e-04
3.909902e-04
0.000000e+00
1.780711e-06
8.298367e-06
1.758782e-05
3.028112e-05
4.667080e-05
6.615977e-05
8.885100e-05
1.149346e-04
1.443269e-04
1.765786e-04
2.108660e-04
2.463136e-04
2.818918e-04
3.168122e-04
3.517501e-04
3.870109e-04
0.000000e+00
2.952661e-06
1.030939e-05
1.940841e-05
3.206851e-05
4.841697e-05
6.772489e-05
9.023507e-05
1.162175e-04
1.455915e-04
1.778653e-04
2.120072e-04
2.470285e-04
2.821891e-04
3.169805e-04
3.514659e-04
3.853680e-04
0.000000e+00
6.202915e-06
1.423874e-05
2.348541e-05
3.661243e-05
5.258072e-05
7.153600e-05
9.399275e-05
1.197409e-04
1.486522e-04
1.802546e-04
2.135590e-04
2.478449e-04
2.825392e-04
3.171035e-04
3.512970e-04
3.849344e-04
0.000000e+00
1.117571e-05
1.860755e-05
2.891864e-05
4.258154e-05
5.807862e-05
7.686747e-05
9.934583e-05
1.248596e-04
1.531702e-04
1.835949e-04
2.155010e-04
2.487863e-04
2.829453e-04
3.172495e-04
3.512692e-04
3.848939e-04


2.590839e+00
2.470596e+00
2.559463e+00
2.641678e+00
2.719437e+00
2.991191e+00
3.287440e+00
3.619676e+00
4.093130e+00
4.730028e+00
5.466250e+00
6.130437e+00
6.507585e+00
6.277652e+00
5.344004e+00
4.506315e+00
4.000790e+00
3.883048e+00
3.900523e+00
3.926300e+00
3.952588e+00
4.131423e+00
4.330766e+00
4.554415e+00
4.884055e+00
5.336755e+00
5.866307e+00
6.344549e+00
6.575175e+00
6.194061e+00
5.135297e+00
4.179186e+00
5.770498e+00
5.702453e+00
5.685862e+00
5.656196e+00
5.642168e+00
5.708812e+00
5.777232e+00
5.854604e+00
5.979828e+00
6.162370e+00
6.387046e+00
6.593821e+00
6.654269e+00
6.254173e+00
5.316558e+00
4.539510e+00
6.706751e+00
6.675302e+00
6.654164e+00
6.610308e+00
6.591507e+00
6.595584e+00
6.591295e+00
6.582350e+00
6.579150e+00
6.588445e+00
6.616121e+00
6.655786e+00
6.656676e+00
6.434572e+00
5.940458e+00
5.535803e+00
6.706399e+00
6.674525e+00
6.652674e+00
6.607555e+00
6.586905e+00
6.588002e+00
6.576575e+00
6.554828e+00
6.538242e+00
6.536678e+00
6.553632e+00
6.592442e+00
6.640687e+00
6.618746e+00
6.490708e+00
6.374728e+00
5.769114e+00
5.699954e+00
5.681121e+00
5.647629e+00
5.629123e+00
5.689278e+00
5.740591e+00
5.794089e+00
5.912504e+00
6.103070e+00
6.318471e+00
6.511626e+00
6.668725e+00
6.773708e+00
6.815510e+00
6.823736e+00
3.998686e+00
3.879787e+00
3.894830e+00
3.916183e+00
3.939401e+00
4.115755e+00
4.303499e+00
4.527042e+00
4.913744e+00
5.451067e+00
5.999965e+00
6.430576e+00
6.714215e+00
6.884673e+00
6.975980e+00
7.013199e+00
2.588890e+00
2.468214e+00
2.555783e+00
2.635241e+00
2.713771e+00
2.991114e+00
3.289794e+00
3.653466e+00
4.246190e+00
5.034491e+00
5.810886e+00
6.393503e+00
6.749572e+00
6.943094e+00
7.039206e+00
7.078318e+00


-5.902268e-01
-2.226432e-01
-2.308348e-01
-2.698174e-01
-1.728864e-01
-1.959538e-01
-2.070695e-01
-1.755439e-01
-1.694891e-01
-1.905244e-01
-2.068514e-01
-1.695426e-01
-4.331722e-02
2.010727e-01
5.257843e-01
-6.265356e-01
5.437049e-01
4.094466e-01
3.328783e-01
2.731041e-01
3.091805e-01
2.845013e-01
2.678571e-01
2.770779e-01
2.809155e-01
2.888883e-01
3.302893e-01
4.391218e-01
6.247961e-01
8.285556e-01
7.454111e-01
-1.245757e+00
8.212797e-01
6.839756e-01
5.522032e-01
4.982253e-01
4.879669e-01
4.648788e-01
4.534157e-01
4.543863e-01
4.596933e-01
4.755989e-01
5.109216e-01
5.619908e-01
5.815628e-01
4.719650e-01
1.844943e-01
-3.286613e-01
8.801777e-01
7.595734e-01
6.209654e-01
5.450598e-01
5.105421e-01
4.926936e-01
4.852819e-01
4.834547e-01
4.783404e-01
4.608078e-01
4.229478e-01
3.498815e-01
2.135368e-01
4.010533e-02
1.883040e-02
9.399650e-02
8.809303e-01
7.603807e-01
6.213531e-01
5.436559e-01
5.054084e-01
4.804173e-01
4.616816e-01
4.424849e-01
4.084837e-01
3.459647e-01
2.511964e-01
1.326575e-01
2.144299e-02
1.327228e-02
2.065784e-01
5.219568e-01
8.230934e-01
6.859995e-01
5.536020e-01
4.966866e-01
4.795444e-01
4.426513e-01
4.089571e-01
3.741135e-01
3.160001e-01
2.331241e-01
1.460659e-01
9.028982e-02
1.140553e-01
2.693205e-01
5.448083e-01
8.380055e-01
5.451071e-01
4.109395e-01
3.341351e-01
2.739399e-01
3.068195e-01
2.747530e-01
2.488238e-01
2.400839e-01
2.007358e-01
1.464263e-01
1.372255e-01
2.147647e-01
3.758394e-01
5.983011e-01
8.257960e-01
9.715176e-01
-5.917687e-01
-2.245964e-01
-2.330468e-01
-2.702023e-01
-1.719333e-01
-1.938525e-01
-1.931506e-01
-1.459479e-01
-1.337910e-01
-1.118333e-01
3.277439e-02
3.197848e-01
6.347500e-01
8.628352e-01
9.730343e-01
9.994740e-01
1 2 19 18
2 3 20 19
3 4 21 20
4 5 22 21
5 6 23 22
6 7 24 23
7 8 25 24
8 9 26 25
9 10 27 26
10 11 28 27
11 12 29 28
12 13 30 29
13 14 31 30
14 15 32 31
15 16 33 32
16 17 34 33
18 19 36 35
19 20 37 36
20 21 38 37
21 22 39 38
22 23 40 39
23 24 41 40
24 25 42 41
25 26 43 42
26 27 44 43
27 28 45 44
28 29 46 45
29 30 47 46
30 31 48 47
31 32 49 48
32 33 50 49
33 34 51 50
35 36 53 52
36 37 54 53
37 38 55 54
38 39 56 55
39 40 57 56
40 41 58 57
41 42 59 58
42 43 60 59
43 44 61 60
44 45 62 61
45 46 63 62
46 47 64 63
47 48 65 64
48 49 66 65
49 50 67 66
50 51 68 67
52 53 70 69
53 54 71 70
54 55 72 71
55 56 73 72
56 57 74 73
57 58 75 74
58 59 76 75
59 60 77 76
60 61 78 77
61 62 79 78
62 63 80 79
63 64 81 80
64 65 82 81
65 66 83 82
66 67 84 83
67 68 85 84
69 70 87 86
70 71 88 87
71 72 89 88
72 73 90 89
73 74 91 90
74 75 92 91
75 76 93 92
76 77 94 93
77 78 95 94
78 79 96 95
79 80 97 96
80 81 98 97
81 82 99 98
82 83 100 99
83 84 101 100
84 85 102 101
86 87 104 103
87 88 105 104
88 89 106 105
89 90 107 106
90 91 108 107
91 92 109 108
92 93 110 109
93 94 111 110
94 95 112 111
95 96 113 112
96 97 114 113
97 98 115 114
98 99 116 115
99 100 117 116
100 101 118 117
101 102 119 118
103 104 121 120
104 105 122 121
105 106 123 122
106 107 124 123
107 108 125 124
108 109 126 125
109 110 127 126
110 111 128 127
111 112 129 128
112 113 130 129
113 114 131 130
114 115 132 131
115 116 133 132
116 117 134 133
117 118 135 134
118 119 136 135
120 121 138 137
121 122 139 138
122 123 140 139
123 124 141 140
124 125 142 141
125 126 143 142
126 127 144 143
127 128 145 144
128 129 146 145
129 130 147 146
130 131 148 147
131 132 149 148
132 133 150 149
133 134 151 150
134 135 152 151
135 136 153 152
