TITLE = "Solution"
VARIABLES = x, y, u, v, psiu, psiv, t, stress
ZONE T="structure" N=153 E=128 F=FEBLOCK ET=QUADRILATERAL VARLOCATION=([7,8]=cellcentered)
0.000000e+00
1.250000e+01
2.500000e+01
3.750000e+01
5.000000e+01
6.250000e+01
7.500000e+01
8.750000e+01
1.000000e+02
1.125000e+02
1.250000e+02
1.375000e+02
1.500000e+02
1.625000e+02
1.750000e+02
1.875000e+02
2.000000e+02
0.000000e+00
1.250000e+01
2.500000e+01
3.750000e+01
5.000000e+01
6.250000e+01
7.500000e+01
8.750000e+01
1.000000e+02
1.125000e+02
1.250000e+02
1.375000e+02
1.500000e+02
1.625000e+02
1.750000e+02
1.875000e+02
2.000000e+02
0.000000e+00
1.250000e+01
2.500000e+01
3.750000e+01
5.000000e+01
6.250000e+01
7.500000e+01
8.750000e+01
1.000000e+02
1.125000e+02
1.250000e+02
1.375000e+02
1.500000e+02
1.625000e+02
1.750000e+02
1.875000e+02
2.000000e+02
0.000000e+00
1.250000e+01
2.500000e+01
3.750000e+01
5.000000e+01
6.250000e+01
7.500000e+01
8.750000e+01
1.000000e+02
1.125000e+02
1.250000e+02
1.375000e+02
1.500000e+02
1.625000e+02
1.750000e+02
1.875000e+02
2.000000e+02
0.000000e+00
1.250000e+01
2.500000e+01
3.750000e+01
5.000000e+01
6.250000e+01
7.500000e+01
8.750000e+01
1.000000e+02
1.125000e+02
1.250000e+02
1.375000e+02
1.500000e+02
1.625000e+02
1.750000e+02
1.875000e+02
2.000000e+02
0.000000e+00
1.250000e+01
2.500000e+01
3.750000e+01
5.000000e+01
6.250000e+01
7.500000e+01
8.750000e+01
1.000000e+02
1.125000e+02
1.250000e+02
1.375000e+02
1.500000e+02
1.625000e+02
1.750000e+02
1.875000e+02
2.000000e+02
0.000000e+00
1.250000e+01
2.500000e+01
3.750000e+01
5.000000e+01
6.250000e+01
7.500000e+01
8.750000e+01
1.000000e+02
1.125000e+02
1.250000e+02
1.375000e+02
1.500000e+02
1.625000e+02
1.750000e+02
1.875000e+02
2.000000e+02
0.000000e+00
1.250000e+01
2.500000e+01
3.750000e+01
5.000000e+01
6.250000e+01
7.500000e+01
8.750000e+01
1.000000e+02
1.125000e+02
1.250000e+02
1.375000e+02
1.500000e+02
1.625000e+02
1.750000e+02
1.875000e+02
2.000000e+02
0.000000e+00
1.250000e+01
2.500000e+01
3.750000e+01
5.000000e+01
6.250000e+01
7.500000e+01
8.750000e+01
1.000000e+02
1.125000e+02
1.250000e+02
1.375000e+02
1.500000e+02
1.625000e+02
1.750000e+02
1.875000e+02
2.000000e+02
0.000000e+00
0.000000e+00
0.000000e+00
0.000000e+00
0.000000e+00
0.000000e+00
0.000000e+00
0.000000e+00
0.000000e+00
0.000000e+00
0.000000e+00
0.000000e+00
0.000000e+00
0.000000e+00
0.000000e+00
0.000000e+00
0.000000e+00
1.250000e+01
1.250000e+01
1.250000e+01
1.250000e+01
1.250000e+01
1.250000e+01
1.250000e+01
1.250000e+01
1.250000e+01
1.250000e+01
1.250000e+01
1.250000e+01
1.250000e+01
1.250000e+01
1.250000e+01
1.250000e+01
1.250000e+01
2.500000e+01
2.500000e+01
2.500000e+01
2.500000e+01
2.500000e+01
2.500000e+01
2.500000e+01
2.500000e+01
2.500000e+01
2.500000e+01
2.500000e+01
2.500000e+01
2.500000e+01
2.500000e+01
2.500000e+01
2.500000e+01
2.500000e+01
3.750000e+01
3.750000e+01
3.750000e+01
3.750000e+01
3.750000e+01
3.750000e+01
3.750000e+01
3.750000e+01
3.750000e+01
3.750000e+01
3.750000e+01
3.750000e+01
3.750000e+01
3.750000e+01
3.750000e+01
3.750000e+01
3.750000e+01
5.000000e+01
5.000000e+01
5.000000e+01
5.000000e+01
5.000000e+01
5.000000e+01
5.000000e+01
5.000000e+01
5.000000e+01
5.000000e+01
5.000000e+01
5.000000e+01
5.000000e+01
5.000000e+01
5.000000e+01
5.000000e+01
5.000000e+01
6.250000e+01
6.250000e+01
6.250000e+01
6.250000e+01
6.250000e+01
6.250000e+01
6.250000e+01
6.250000e+01
6.250000e+01
6.250000e+01
6.250000e+01
6.250000e+01
6.250000e+01
6.250000e+01
6.250000e+01
6.250000e+01
6.250000e+01
7.500000e+01
7.500000e+01
7.500000e+01
7.500000e+01
7.500000e+01
7.500000e+01
7.500000e+01
7.500000e+01
7.500000e+01
7.500000e+01
7.500000e+01
7.500000e+01
7.500000e+01
7.500000e+01
7.500000e+01
7.500000e+01
7.500000e+01
8.750000e+01
8.750000e+01
8.750000e+01
8.750000e+01
8.750000e+01
8.750000e+01
8.750000e+01
8.750000e+01
8.750000e+01
8.750000e+01
8.750000e+01
8.750000e+01
8.750000e+01
8.750000e+01
8.750000e+01
8.750000e+01
8.750000e+01
1.000000e+02
1.000000e+02
1.000000e+02
1.000000e+02
1.000000e+02
1.000000e+02
1.000000e+02
1.000000e+02
1.000000e+02
1.000000e+02
1.000000e+02
1.000000e+02
1.000000e+02
1.000000e+02
1.000000e+02
1.000000e+02
1.000000e+02
0.000000e+00
-9.879914e-01
-1.679586e+00
-2.428096e+00
-3.108622e+00
-3.755974e+00
-4.451717e+00
-5.088077e+00
-5.761604e+00
-6.402006e+00
-7.058557e+00
-7.718556e+00
-8.377946e+00
-9.154666e+00
-1.007326e+01
-1.082558e+01
-1.127629e+01
0.000000e+00
-4.432746e-01
-9.101112e-01
-1.419460e+00
-1.929903e+00
-2.415036e+00
-2.926892e+00
-3.424827e+00
-3.922085e+00
-4.422492e+00
-4.918240e+00
-5.417868e+00
-5.903613e+00
-6.426405e+00
-6.892414e+00
-7.015564e+00
-7.194092e+00
0.000000e+00
-1.480921e-01
-3.539152e-01
-6.438061e-01
-9.816058e-01
-1.307994e+00
-1.661859e+00
-2.015625e+00
-2.361715e+00
-2.720515e+00
-3.060473e+00
-3.393012e+00
-3.686613e+00
-3.924679e+00
-4.030059e+00
-4.026669e+00
-4.175733e+00
0.000000e+00
-7.859854e-02
-1.624648e-01
-3.083012e-01
-4.523570e-01
-6.274001e-01
-8.082558e-01
-9.772411e-01
-1.160942e+00
-1.323482e+00
-1.484958e+00
-1.622247e+00
-1.713865e+00
-1.720785e+00
-1.648828e+00
-1.630564e+00
-1.749490e+00
0.000000e+00
-2.745303e-03
-6.011744e-03
-9.380985e-03
-1.225145e-02
-1.369572e-02
-1.266769e-02
-7.733419e-03
1.753454e-03
1.875152e-02
4.331182e-02
8.719796e-02
1.681665e-01
2.817097e-01
3.993405e-01
4.376209e-01
3.391716e-01
0.000000e+00
7.391518e-02
1.525801e-01
2.920308e-01
4.307026e-01
6.018957e-01
7.844133e-01
9.628362e-01
1.166855e+00
1.359825e+00
1.572284e+00
1.791686e+00
2.014673e+00
2.216913e+00
2.351051e+00
2.383603e+00
2.318494e+00
0.000000e+00
1.464497e-01
3.495068e-01
6.357078e-01
9.689961e-01
1.291014e+00
1.643464e+00
2.003770e+00
2.371879e+00
2.771528e+00
3.148511e+00
3.515189e+00
3.849068e+00
4.120845e+00
4.294465e+00
4.349387e+00
4.327374e+00
0.000000e+00
4.446305e-01
9.106027e-01
1.420124e+00
1.930159e+00
2.412374e+00
2.921561e+00
3.415179e+00
3.904805e+00
4.397147e+00
4.875796e+00
5.350786e+00
5.782370e+00
6.128046e+00
6.343380e+00
6.438191e+00
6.455540e+00
0.000000e+00
9.905758e-01
1.683100e+00
2.436001e+00
3.122197e+00
3.771498e+00
4.470140e+00
5.098140e+00
5.740316e+00
6.329317e+00
6.906470e+00
7.505596e+00
8.039011e+00
8.445656e+00
8.647772e+00
8.701457e+00
8.702135e+00
0.000000e+00
-6.156574e-01
-1.356508e+00
-2.351966e+00
-3.521901e+00
-4.863705e+00
-6.389711e+00
-8.073834e+00
-9.931663e+00
-1.195174e+01
-1.413492e+01
-1.648007e+01
-1.899230e+01
-2.172224e+01
-2.468267e+01
-2.804331e+01
-3.305958e+01
0.000000e+00
-4.117307e-01
-1.187463e+00
-2.166964e+00
-3.351781e+00
-4.688380e+00
-6.213443e+00
-7.903822e+00
-9.756631e+00
-1.178347e+01
-1.396278e+01
-1.631325e+01
-1.881754e+01
-2.153081e+01
-2.454428e+01
-2.795869e+01
-3.201163e+01
0.000000e+00
-3.850963e-01
-1.086351e+00
-2.063310e+00
-3.231149e+00
-4.563814e+00
-6.091528e+00
-7.775700e+00
-9.637328e+00
-1.166240e+01
-1.385297e+01
-1.621374e+01
-1.872953e+01
-2.146877e+01
-2.453528e+01
-2.780550e+01
-3.083608e+01
0.000000e+00
-4.430481e-01
-1.082140e+00
-2.036608e+00
-3.166625e+00
-4.495349e+00
-6.025839e+00
-7.701805e+00
-9.579816e+00
-1.160578e+01
-1.381632e+01
-1.619626e+01
-1.873889e+01
-2.147790e+01
-2.446759e+01
-2.749477e+01
-3.011305e+01
0.000000e+00
-4.511433e-01
-1.103304e+00
-2.020349e+00
-3.154441e+00
-4.480862e+00
-6.005824e+00
-7.698759e+00
-9.573472e+00
-1.161963e+01
-1.384035e+01
-1.623115e+01
-1.878068e+01
-2.147923e+01
-2.431657e+01
-2.712933e+01
-2.951018e+01
0.000000e+00
-4.419927e-01
-1.081353e+00
-2.038063e+00
-3.173992e+00
-4.509315e+00
-6.052283e+00
-7.741339e+00
-9.636594e+00
-1.168584e+01
-1.390765e+01
-1.628366e+01
-1.881406e+01
-2.146903e+01
-2.417987e+01
-2.681079e+01
-2.907582e+01
0.000000e+00
-3.836124e-01
-1.085282e+00
-2.065924e+00
-3.242854e+00
-4.589251e+00
-6.138606e+00
-7.851296e+00
-9.743522e+00
-1.179896e+01
-1.399506e+01
-1.635086e+01
-1.885538e+01
-2.146974e+01
-2.409588e+01
-2.660459e+01
-2.884644e+01
0.000000e+00
-4.103216e-01
-1.186326e+00
-2.169569e+00
-3.363991e+00
-4.716529e+00
-6.267116e+00
-7.992421e+00
-9.881507e+00
-1.193507e+01
-1.411216e+01
-1.645027e+01
-1.893302e+01
-2.151150e+01
-2.407514e+01
-2.651653e+01
-2.878648e+01
0.000000e+00
-6.145372e-01
-1.355757e+00
-2.355482e+00
-3.534659e+00
-4.892407e+00
-6.444115e+00
-8.160803e+00
-1.005220e+01
-1.209225e+01
-1.426803e+01
-1.659919e+01
-1.905659e+01
-2.159261e+01
-2.410004e+01
-2.650136e+01
-2.878533e+01


0.000000e+00
1.532638e-05
2.499859e-05
3.709042e-05
5.280202e-05
6.607735e-05
8.119636e-05
9.588779e-05
1.100991e-04
1.250937e-04
1.404219e-04
1.547961e-04
1.720795e-04
1.870441e-04
1.956782e-04
2.009822e-04
2.078251e-04
0.000000e+00
1.146569e-05
1.982040e-05
2.848277e-05
4.133318e-05
5.198126e-05
6.239911e-05
7.380101e-05
8.386948e-05
9.497870e-05
1.054246e-04
1.151144e-04
1.264204e-04
1.350739e-04
1.356016e-04
1.392536e-04
1.450911e-04
0.000000e+00
9.667886e-06
1.536014e-05
2.088248e-05
3.030069e-05
3.724089e-05
4.359421e-05
5.121937e-05
5.708790e-05
6.374756e-05
6.950224e-05
7.401709e-05
7.852363e-05
8.006854e-05
7.892942e-05
8.131891e-05
8.560899e-05
0.000000e+00
5.302671e-06
7.281534e-06
1.058136e-05
1.495603e-05
1.696766e-05
2.045851e-05
2.325284e-05
2.551638e-05
2.794974e-05
2.973232e-05
2.956419e-05
2.830994e-05
2.648793e-05
2.641558e-05
2.954508e-05
3.518914e-05
0.000000e+00
-1.017851e-07
-2.612539e-07
-4.906449e-07
-8.591397e-07
-1.353927e-06
-2.022344e-06
-2.940561e-06
-3.769492e-06
-5.245735e-06
-7.744112e-06
-1.162891e-05
-1.451899e-05
-1.577108e-05
-1.537075e-05
-1.311255e-05
-9.180712e-06
0.000000e+00
-5.441873e-06
-7.624297e-06
-1.132783e-05
-1.613811e-05
-1.874495e-05
-2.337702e-05
-2.683300e-05
-3.080278e-05
-3.361422e-05
-3.737614e-05
-4.226685e-05
-4.673442e-05
-4.805996e-05
-4.858557e-05
-4.909764e-05
-4.751326e-05
0.000000e+00
-9.600164e-06
-1.536021e-05
-2.106842e-05
-3.059933e-05
-3.792783e-05
-4.443883e-05
-5.250833e-05
-5.846783e-05
-6.406074e-05
-6.870372e-05
-7.338706e-05
-7.748291e-05
-8.060067e-05
-8.253131e-05
-8.441352e-05
-8.515088e-05
0.000000e+00
-1.137328e-05
-1.971561e-05
-2.840207e-05
-4.116863e-05
-5.200085e-05
-6.230035e-05
-7.385007e-05
-8.405903e-05
-9.474817e-05
-1.049900e-04
-1.126332e-04
-1.176306e-04
-1.225155e-04
-1.258857e-04
-1.270817e-04
-1.271842e-04
0.000000e+00
-1.535736e-05
-2.496686e-05
-3.696045e-05
-5.245627e-05
-6.548860e-05
-8.037249e-05
-9.430991e-05
-1.088130e-04
-1.238674e-04
-1.415375e-04
-1.563917e-04
-1.654140e-04
-1.703731e-04
-1.725445e-04
-1.727055e-04
-1.725082e-04
0.000000e+00
1.262649e-05
1.997476e-05
3.219819e-05
4.793273e-05
6.481434e-05
8.714736e-05
1.133221e-04
1.432887e-04
1.783464e-04
2.173720e-04
2.613466e-04
3.121183e-04
3.659342e-04
4.271910e-04
4.977335e-04
5.705057e-04
0.000000e+00
7.677932e-06
1.607612e-05
2.610728e-05
4.149200e-05
5.895589e-05
8.071756e-05
1.072648e-04
1.371571e-04
1.720243e-04
2.113172e-04
2.551406e-04
3.055312e-04
3.615621e-04
4.223372e-04
4.904011e-04
5.601040e-04
0.000000e+00
4.268258e-06
1.216925e-05
2.127700e-05
3.575174e-05
5.388869e-05
7.573216e-05
1.024173e-04
1.325795e-04
1.674889e-04
2.069011e-04
2.511051e-04
3.019258e-04
3.595793e-04
4.185038e-04
4.829585e-04
5.502659e-04
0.000000e+00
3.005180e-06
1.018474e-05
1.927379e-05
3.347127e-05
5.152286e-05
7.366949e-05
1.007919e-04
1.313762e-04
1.657078e-04
2.051681e-04
2.502345e-04
3.016517e-04
3.583595e-04
4.159286e-04
4.751724e-04
5.360244e-04
0.000000e+00
2.547404e-06
9.664730e-06
1.892896e-05
3.294980e-05
5.084796e-05
7.308587e-05
1.005025e-04
1.313112e-04
1.651287e-04
2.039793e-04
2.509117e-04
3.023964e-04
3.584935e-04
4.147963e-04
4.688130e-04
5.201418e-04
0.000000e+00
3.119488e-06
1.033035e-05
1.951535e-05
3.365936e-05
5.153348e-05
7.377782e-05
1.007298e-04
1.315135e-04
1.649726e-04
2.045332e-04
2.529606e-04
3.049243e-04
3.586715e-04
4.146503e-04
4.664882e-04
5.095174e-04
0.000000e+00
4.401967e-06
1.239600e-05
2.164582e-05
3.598222e-05
5.403800e-05
7.562619e-05
1.020662e-04
1.319123e-04
1.660888e-04
2.068222e-04
2.562203e-04
3.083837e-04
3.604970e-04
4.136397e-04
4.638867e-04
5.063213e-04
0.000000e+00
7.789429e-06
1.634158e-05
2.649339e-05
4.184429e-05
5.917584e-05
8.071180e-05
1.067847e-04
1.359653e-04
1.703101e-04
2.112321e-04
2.595690e-04
3.113269e-04
3.625645e-04
4.136159e-04
4.619777e-04
5.068320e-04
0.000000e+00
1.272431e-05
2.024401e-05
3.257658e-05
4.830658e-05
6.508286e-05
8.718281e-05
1.128632e-04
1.422108e-04
1.767653e-04
2.178635e-04
2.635141e-04
3.133732e-04
3.638122e-04
4.138454e-04
4.615031e-04
5.071103e-04


5.323861e+00
5.806822e+00
6.481878e+00
5.546950e+00
4.887333e+00
5.104119e+00
5.312173e+00
5.658472e+00
5.596475e+00
5.773189e+00
6.100824e+00
6.999516e+00
8.672343e+00
9.618485e+00
8.922242e+00
7.766875e+00
7.830429e+00
8.181219e+00
8.368215e+00
8.074961e+00
7.661990e+00
7.761133e+00
7.954451e+00
7.978741e+00
8.062784e+00
8.058258e+00
8.202154e+00
8.628009e+00
9.332130e+00
9.620202e+00
8.185645e+00
6.280763e+00
9.688447e+00
9.679393e+00
9.827387e+00
9.660850e+00
9.649457e+00
9.690366e+00
9.644455e+00
9.718133e+00
9.658791e+00
9.701914e+00
9.696365e+00
9.689813e+00
9.707720e+00
9.215367e+00
7.759745e+00
5.973524e+00
9.916133e+00
9.914860e+00
9.914531e+00
9.907484e+00
9.903807e+00
9.901323e+00
9.896829e+00
9.894138e+00
9.887128e+00
9.866840e+00
9.801049e+00
9.289704e+00
8.660090e+00
8.204708e+00
7.736903e+00
7.535943e+00
9.915896e+00
9.914262e+00
9.913502e+00
9.905105e+00
9.899431e+00
9.894702e+00
9.885127e+00
9.878610e+00
9.855142e+00
9.724937e+00
9.139259e+00
8.282672e+00
7.435106e+00
7.494811e+00
8.345833e+00
8.830765e+00
9.689197e+00
9.676698e+00
9.820810e+00
9.645873e+00
9.621441e+00
9.645749e+00
9.572775e+00
9.601251e+00
9.256556e+00
8.633924e+00
8.078781e+00
7.590946e+00
7.768079e+00
8.403677e+00
9.197630e+00
9.757147e+00
7.841374e+00
8.182702e+00
8.358032e+00
8.048520e+00
7.626124e+00
7.701561e+00
7.817038e+00
7.700299e+00
7.428918e+00
7.037207e+00
7.240086e+00
8.185978e+00
8.953811e+00
9.564627e+00
9.846023e+00
9.898329e+00
5.354741e+00
5.816595e+00
6.476993e+00
5.531461e+00
4.874671e+00
5.082759e+00
5.193473e+00
5.465135e+00
5.410055e+00
5.935990e+00
7.477289e+00
8.857497e+00
9.746515e+00
9.872726e+00
9.908320e+00
9.921476e+00


-7.932378e-01
-1.966566e-01
-3.824863e-01
-2.454373e-01
-1.294584e-01
-2.787654e-01
-1.368597e-01
-2.080249e-01
-1.542420e-01
-1.771112e-01
-1.925766e-01
-1.640036e-01
-4.821465e-01
-6.323816e-01
3.263186e-01
-8.481237e-01
6.133252e-01
4.690585e-01
3.024199e-01
2.294634e-01
2.800665e-01
1.722387e-01
1.802612e-01
1.677222e-01
1.213750e-01
1.439157e-01
1.428176e-01
2.488063e-01
3.052611e-01
5.310501e-01
6.999765e-01
-9.538529e-01
7.304823e-01
4.756408e-01
8.042591e-02
1.125074e-02
-3.046595e-02
-1.421577e-01
-6.811976e-02
-1.099286e-01
-4.624044e-02
2.932533e-04
6.536820e-02
2.085872e-01
2.943646e-01
1.598478e-01
-1.358849e-02
-1.797882e-01
7.354815e-01
5.591778e-01
2.061107e-01
8.271489e-02
-1.724735e-02
-7.473735e-02
-1.674694e-02
-4.031991e-02
3.273639e-02
4.090954e-02
8.068389e-02
1.243085e-01
5.711915e-02
-2.716448e-01
-3.761632e-01
-6.837185e-02
7.379339e-01
5.628835e-01
2.118577e-01
8.427523e-02
-1.854264e-02
-9.027338e-02
-4.012312e-02
-7.710181e-02
-2.377182e-02
-1.376117e-02
2.518805e-02
1.639619e-02
-3.756674e-02
-1.417919e-01
-1.041002e-01
3.202145e-01
7.360837e-01
4.859010e-01
9.596314e-02
2.088271e-02
-2.969978e-02
-1.722963e-01
-1.328368e-01
-2.154011e-01
-1.729215e-01
-9.897809e-02
-8.767679e-02
-1.038792e-01
-9.202996e-02
5.471011e-02
3.354565e-01
7.309069e-01
6.158793e-01
4.765194e-01
3.100151e-01
2.375361e-01
2.874409e-01
1.644666e-01
1.436673e-01
8.074639e-02
-4.458883e-02
-3.903466e-02
-1.011221e-01
-7.115486e-02
7.354782e-02
3.780078e-01
7.145201e-01
9.482506e-01
-8.011841e-01
-1.965494e-01
-3.920884e-01
-2.561002e-01
-1.282115e-01
-2.811527e-01
-1.168903e-01
-1.422106e-01
-6.110985e-02
-2.836955e-02
-8.858085e-02
8.679170e-02
3.998140e-01
7.730034e-01
9.525174e-01
9.987237e-01
1 2 19 18
2 3 20 19
3 4 21 20
4 5 22 21
5 6 23 22
6 7 24 23
7 8 25 24
8 9 26 25
9 10 27 26
10 11 28 27
11 12 29 28
12 13 30 29
13 14 31 30
14 15 32 31
15 16 33 32
16 17 34 33
18 19 36 35
19 20 37 36
20 21 38 37
21 22 39 38
22 23 40 39
23 24 41 40
24 25 42 41
25 26 43 42
26 27 44 43
27 28 45 44
28 29 46 45
29 30 47 46
30 31 48 47
31 32 49 48
32 33 50 49
33 34 51 50
35 36 53 52
36 37 54 53
37 38 55 54
38 39 56 55
39 40 57 56
40 41 58 57
41 42 59 58
42 43 60 59
43 44 61 60
44 45 62 61
45 46 63 62
46 47 64 63
47 48 65 64
48 49 66 65
49 50 67 66
50 51 68 67
52 53 70 69
53 54 71 70
54 55 72 71
55 56 73 72
56 57 74 73
57 58 75 74
58 59 76 75
59 60 77 76
60 61 78 77
61 62 79 78
62 63 80 79
63 64 81 80
64 65 82 81
65 66 83 82
66 67 84 83
67 68 85 84
69 70 87 86
70 71 88 87
71 72 89 88
72 73 90 89
73 74 91 90
74 75 92 91
75 76 93 92
76 77 94 93
77 78 95 94
78 79 96 95
79 80 97 96
80 81 98 97
81 82 99 98
82 83 100 99
83 84 101 100
84 85 102 101
86 87 104 103
87 88 105 104
88 89 106 105
89 90 107 106
90 91 108 107
91 92 109 108
92 93 110 109
93 94 111 110
94 95 112 111
95 96 113 112
96 97 114 113
97 98 115 114
98 99 116 115
99 100 117 116
100 101 118 117
101 102 119 118
103 104 121 120
104 105 122 121
105 106 123 122
106 107 124 123
107 108 125 124
108 109 126 125
109 110 127 126
110 111 128 127
111 112 129 128
112 113 130 129
113 114 131 130
114 115 132 131
115 116 133 132
116 117 134 133
117 118 135 134
118 119 136 135
120 121 138 137
121 122 139 138
122 123 140 139
123 124 141 140
124 125 142 141
125 126 143 142
126 127 144 143
127 128 145 144
128 129 146 145
129 130 147 146
130 131 148 147
131 132 149 148
132 133 150 149
133 134 151 150
134 135 152 151
135 136 153 152
