TITLE = "Solution"
VARIABLES = x, y, u, v, psiu, psiv, t, stress
ZONE T="structure" N=153 E=128 F=FEBLOCK ET=QUADRILATERAL VARLOCATION=([7,8]=cellcentered)
0.000000e+00
1.250000e+01
2.500000e+01
3.750000e+01
5.000000e+01
6.250000e+01
7.500000e+01
8.750000e+01
1.000000e+02
1.125000e+02
1.250000e+02
1.375000e+02
1.500000e+02
1.625000e+02
1.750000e+02
1.875000e+02
2.000000e+02
0.000000e+00
1.250000e+01
2.500000e+01
3.750000e+01
5.000000e+01
6.250000e+01
7.500000e+01
8.750000e+01
1.000000e+02
1.125000e+02
1.250000e+02
1.375000e+02
1.500000e+02
1.625000e+02
1.750000e+02
1.875000e+02
2.000000e+02
0.000000e+00
1.250000e+01
2.500000e+01
3.750000e+01
5.000000e+01
6.250000e+01
7.500000e+01
8.750000e+01
1.000000e+02
1.125000e+02
1.250000e+02
1.375000e+02
1.500000e+02
1.625000e+02
1.750000e+02
1.875000e+02
2.000000e+02
0.000000e+00
1.250000e+01
2.500000e+01
3.750000e+01
5.000000e+01
6.250000e+01
7.500000e+01
8.750000e+01
1.000000e+02
1.125000e+02
1.250000e+02
1.375000e+02
1.500000e+02
1.625000e+02
1.750000e+02
1.875000e+02
2.000000e+02
0.000000e+00
1.250000e+01
2.500000e+01
3.750000e+01
5.000000e+01
6.250000e+01
7.500000e+01
8.750000e+01
1.000000e+02
1.125000e+02
1.250000e+02
1.375000e+02
1.500000e+02
1.625000e+02
1.750000e+02
1.875000e+02
2.000000e+02
0.000000e+00
1.250000e+01
2.500000e+01
3.750000e+01
5.000000e+01
6.250000e+01
7.500000e+01
8.750000e+01
1.000000e+02
1.125000e+02
1.250000e+02
1.375000e+02
1.500000e+02
1.625000e+02
1.750000e+02
1.875000e+02
2.000000e+02
0.000000e+00
1.250000e+01
2.500000e+01
3.750000e+01
5.000000e+01
6.250000e+01
7.500000e+01
8.750000e+01
1.000000e+02
1.125000e+02
1.250000e+02
1.375000e+02
1.500000e+02
1.625000e+02
1.750000e+02
1.875000e+02
2.000000e+02
0.000000e+00
1.250000e+01
2.500000e+01
3.750000e+01
5.000000e+01
6.250000e+01
7.500000e+01
8.750000e+01
1.000000e+02
1.125000e+02
1.250000e+02
1.375000e+02
1.500000e+02
1.625000e+02
1.750000e+02
1.875000e+02
2.000000e+02
0.000000e+00
1.250000e+01
2.500000e+01
3.750000e+01
5.000000e+01
6.250000e+01
7.500000e+01
8.750000e+01
1.000000e+02
1.125000e+02
1.250000e+02
1.375000e+02
1.500000e+02
1.625000e+02
1.750000e+02
1.875000e+02
2.000000e+02
0.000000e+00
0.000000e+00
0.000000e+00
0.000000e+00
0.000000e+00
0.000000e+00
0.000000e+00
0.000000e+00
0.000000e+00
0.000000e+00
0.000000e+00
0.000000e+00
0.000000e+00
0.000000e+00
0.000000e+00
0.000000e+00
0.000000e+00
1.250000e+01
1.250000e+01
1.250000e+01
1.250000e+01
1.250000e+01
1.250000e+01
1.250000e+01
1.250000e+01
1.250000e+01
1.250000e+01
1.250000e+01
1.250000e+01
1.250000e+01
1.250000e+01
1.250000e+01
1.250000e+01
1.250000e+01
2.500000e+01
2.500000e+01
2.500000e+01
2.500000e+01
2.500000e+01
2.500000e+01
2.500000e+01
2.500000e+01
2.500000e+01
2.500000e+01
2.500000e+01
2.500000e+01
2.500000e+01
2.500000e+01
2.500000e+01
2.500000e+01
2.500000e+01
3.750000e+01
3.750000e+01
3.750000e+01
3.750000e+01
3.750000e+01
3.750000e+01
3.750000e+01
3.750000e+01
3.750000e+01
3.750000e+01
3.750000e+01
3.750000e+01
3.750000e+01
3.750000e+01
3.750000e+01
3.750000e+01
3.750000e+01
5.000000e+01
5.000000e+01
5.000000e+01
5.000000e+01
5.000000e+01
5.000000e+01
5.000000e+01
5.000000e+01
5.000000e+01
5.000000e+01
5.000000e+01
5.000000e+01
5.000000e+01
5.000000e+01
5.000000e+01
5.000000e+01
5.000000e+01
6.250000e+01
6.250000e+01
6.250000e+01
6.250000e+01
6.250000e+01
6.250000e+01
6.250000e+01
6.250000e+01
6.250000e+01
6.250000e+01
6.250000e+01
6.250000e+01
6.250000e+01
6.250000e+01
6.250000e+01
6.250000e+01
6.250000e+01
7.500000e+01
7.500000e+01
7.500000e+01
7.500000e+01
7.500000e+01
7.500000e+01
7.500000e+01
7.500000e+01
7.500000e+01
7.500000e+01
7.500000e+01
7.500000e+01
7.500000e+01
7.500000e+01
7.500000e+01
7.500000e+01
7.500000e+01
8.750000e+01
8.750000e+01
8.750000e+01
8.750000e+01
8.750000e+01
8.750000e+01
8.750000e+01
8.750000e+01
8.750000e+01
8.750000e+01
8.750000e+01
8.750000e+01
8.750000e+01
8.750000e+01
8.750000e+01
8.750000e+01
8.750000e+01
1.000000e+02
1.000000e+02
1.000000e+02
1.000000e+02
1.000000e+02
1.000000e+02
1.000000e+02
1.000000e+02
1.000000e+02
1.000000e+02
1.000000e+02
1.000000e+02
1.000000e+02
1.000000e+02
1.000000e+02
1.000000e+02
1.000000e+02
0.000000e+00
-1.046015e-01
-1.926045e-01
-2.735788e-01
-3.489885e-01
-4.186746e-01
-4.824875e-01
-5.403778e-01
-5.924296e-01
-6.388827e-01
-6.801976e-01
-7.171818e-01
-7.512244e-01
-7.847252e-01
-8.218230e-01
-8.673837e-01
-9.015720e-01
0.000000e+00
-6.246614e-02
-1.297613e-01
-1.919040e-01
-2.491567e-01
-3.017369e-01
-3.497537e-01
-3.932714e-01
-4.323684e-01
-4.671651e-01
-4.978382e-01
-5.246087e-01
-5.476476e-01
-5.667175e-01
-5.801686e-01
-5.831168e-01
-5.936870e-01
0.000000e+00
-3.906453e-02
-8.032645e-02
-1.214914e-01
-1.599176e-01
-1.951982e-01
-2.273047e-01
-2.562733e-01
-2.821112e-01
-3.047752e-01
-3.241435e-01
-3.399454e-01
-3.516176e-01
-3.581333e-01
-3.583142e-01
-3.557113e-01
-3.664921e-01
0.000000e+00
-1.885495e-02
-3.881545e-02
-5.890203e-02
-7.810844e-02
-9.579876e-02
-1.118333e-01
-1.261654e-01
-1.387129e-01
-1.493127e-01
-1.576937e-01
-1.634605e-01
-1.661409e-01
-1.655147e-01
-1.629419e-01
-1.636454e-01
-1.716728e-01
0.000000e+00
-1.736921e-05
-3.948563e-05
-6.152943e-05
-7.322854e-05
-5.167673e-05
4.859196e-05
3.091607e-04
8.638774e-04
1.912116e-03
3.713989e-03
6.530800e-03
1.043316e-02
1.484301e-02
1.788921e-02
1.705373e-02
1.173889e-02
0.000000e+00
1.882823e-02
3.875341e-02
5.880278e-02
7.798500e-02
9.569836e-02
1.118723e-01
1.265858e-01
1.399665e-01
1.521697e-01
1.633547e-01
1.736044e-01
1.827407e-01
1.900670e-01
1.943766e-01
1.947185e-01
1.920208e-01
0.000000e+00
3.906014e-02
8.031308e-02
1.214648e-01
1.598760e-01
1.951465e-01
2.272618e-01
2.562872e-01
2.822829e-01
3.052950e-01
3.253436e-01
3.423797e-01
3.562074e-01
3.664307e-01
3.725669e-01
3.745593e-01
3.739303e-01
0.000000e+00
6.249176e-02
1.298170e-01
1.919929e-01
2.492758e-01
3.018645e-01
3.498253e-01
3.931405e-01
4.317443e-01
4.655250e-01
4.943224e-01
5.179375e-01
5.361812e-01
5.489934e-01
5.566361e-01
5.598952e-01
5.604939e-01
0.000000e+00
1.046443e-01
1.927176e-01
2.737905e-01
3.493267e-01
4.191504e-01
4.830551e-01
5.408550e-01
5.923570e-01
6.372932e-01
6.752741e-01
7.057933e-01
7.283494e-01
7.427653e-01
7.497369e-01
7.514578e-01
7.514246e-01
0.000000e+00
-6.331818e-02
-1.243010e-01
-2.033205e-01
-3.003006e-01
-4.150600e-01
-5.463417e-01
-6.926765e-01
-8.525086e-01
-1.024302e+00
-1.206639e+00
-1.398391e+00
-1.599095e+00
-1.809823e+00
-2.036041e+00
-2.294877e+00
-2.666777e+00
0.000000e+00
-3.897983e-02
-1.025949e-01
-1.825943e-01
-2.811594e-01
-3.974848e-01
-5.303569e-01
-6.782706e-01
-8.396517e-01
-1.012937e+00
-1.196669e+00
-1.389668e+00
-1.591398e+00
-1.802905e+00
-2.029035e+00
-2.286300e+00
-2.601476e+00
0.000000e+00
-2.941375e-02
-8.754716e-02
-1.678418e-01
-2.673388e-01
-3.848615e-01
-5.189550e-01
-6.680994e-01
-8.307314e-01
-1.005310e+00
-1.190406e+00
-1.384880e+00
-1.588247e+00
-1.801380e+00
-2.027704e+00
-2.271472e+00
-2.507387e+00
0.000000e+00
-2.534669e-02
-8.006551e-02
-1.591825e-01
-2.590392e-01
-3.772853e-01
-5.122148e-01
-6.622501e-01
-8.258572e-01
-1.001537e+00
-1.187891e+00
-1.383758e+00
-1.588423e+00
-1.801792e+00
-2.023589e+00
-2.247576e+00
-2.453921e+00
0.000000e+00
-2.417505e-02
-7.780121e-02
-1.564201e-01
-2.563040e-01
-3.748444e-01
-5.101618e-01
-6.606801e-01
-8.248945e-01
-1.001330e+00
-1.188558e+00
-1.385232e+00
-1.590080e+00
-1.801591e+00
-2.016600e+00
-2.227754e+00
-2.422279e+00
0.000000e+00
-2.533164e-02
-8.005480e-02
-1.592016e-01
-2.591328e-01
-3.775319e-01
-5.127422e-01
-6.632490e-01
-8.275795e-01
-1.004252e+00
-1.191744e+00
-1.388426e+00
-1.592397e+00
-1.801061e+00
-2.010408e+00
-2.214321e+00
-2.404694e+00
0.000000e+00
-2.938921e-02
-8.752942e-02
-1.678736e-01
-2.674965e-01
-3.852787e-01
-5.198492e-01
-6.697956e-01
-8.336597e-01
-1.009934e+00
-1.196994e+00
-1.392961e+00
-1.595473e+00
-1.801403e+00
-2.006692e+00
-2.206692e+00
-2.396938e+00
0.000000e+00
-3.895682e-02
-1.025795e-01
-1.826365e-01
-2.813488e-01
-3.979753e-01
-5.313979e-01
-6.802311e-01
-8.430155e-01
-1.018216e+00
-1.204142e+00
-1.398779e+00
-1.599566e+00
-1.803203e+00
-2.005761e+00
-2.203537e+00
-2.395118e+00
0.000000e+00
-6.330867e-02
-1.243023e-01
-2.033859e-01
-3.005201e-01
-4.155842e-01
-5.474068e-01
-6.946199e-01
-8.557485e-01
-1.029231e+00
-1.213335e+00
-1.406002e+00
-1.604654e+00
-1.806062e+00
-2.006552e+00
-2.202960e+00
-2.395146e+00


0.000000e+00
2.314274e-09
4.785650e-09
6.972976e-09
8.818126e-09
1.031540e-08
1.149292e-08
1.239510e-08
1.306904e-08
1.355990e-08
1.390904e-08
1.415369e-08
1.432781e-08
1.446293e-08
1.458870e-08
1.474413e-08
1.493089e-08
0.000000e+00
1.575230e-09
3.710483e-09
5.448130e-09
6.839839e-09
7.938098e-09
8.784809e-09
9.422422e-09
9.890127e-09
1.022278e-08
1.045058e-08
1.059851e-08
1.068542e-08
1.072813e-08
1.077147e-08
1.089856e-08
1.109085e-08
0.000000e+00
1.172653e-09
2.576638e-09
3.748700e-09
4.689318e-09
5.414634e-09
5.959930e-09
6.360256e-09
6.645439e-09
6.840108e-09
6.964430e-09
7.034895e-09
7.066219e-09
7.078324e-09
7.108892e-09
7.208614e-09
7.364311e-09
0.000000e+00
6.273516e-10
1.284565e-09
1.870836e-09
2.349965e-09
2.715826e-09
2.985702e-09
3.179236e-09
3.312692e-09
3.399022e-09
3.449047e-09
3.472995e-09
3.482715e-09
3.493407e-09
3.520358e-09
3.580950e-09
3.676727e-09
0.000000e+00
-6.860093e-13
-1.609245e-12
-2.890153e-12
-4.731813e-12
-7.408393e-12
-1.127584e-11
-1.674381e-11
-2.416451e-11
-3.355765e-11
-4.409620e-11
-5.335223e-11
-5.694479e-11
-5.057206e-11
-3.399214e-11
-4.796399e-12
4.508706e-11
0.000000e+00
-6.285306e-10
-1.287289e-09
-1.875714e-09
-2.357851e-09
-2.727951e-09
-3.003787e-09
-3.205588e-09
-3.350209e-09
-3.450925e-09
-3.518011e-09
-3.559205e-09
-3.580411e-09
-3.587422e-09
-3.587049e-09
-3.579838e-09
-3.558532e-09
0.000000e+00
-1.173262e-09
-2.578311e-09
-3.751793e-09
-4.694237e-09
-5.421818e-09
-5.969819e-09
-6.373299e-09
-6.662181e-09
-6.861498e-09
-6.992387e-09
-7.072994e-09
-7.118958e-09
-7.143577e-09
-7.156808e-09
-7.161336e-09
-7.155340e-09
0.000000e+00
-1.575448e-09
-3.711548e-09
-5.450016e-09
-6.842468e-09
-7.941194e-09
-8.787694e-09
-9.423880e-09
-9.888405e-09
-1.021592e-08
-1.043727e-08
-1.057968e-08
-1.066659e-08
-1.071705e-08
-1.074485e-08
-1.075751e-08
-1.075927e-08
0.000000e+00
-2.315290e-09
-4.787319e-09
-6.974848e-09
-8.819649e-09
-1.031560e-08
-1.149023e-08
-1.238726e-08
-1.305302e-08
-1.353196e-08
-1.386467e-08
-1.408685e-08
-1.422843e-08
-1.431302e-08
-1.435768e-08
-1.437477e-08
-1.437772e-08
0.000000e+00
2.102945e-09
3.777749e-09
5.534243e-09
7.642447e-09
1.012374e-08
1.292764e-08
1.598842e-08
1.924315e-08
2.263994e-08
2.613901e-08
2.971311e-08
3.335119e-08
3.707691e-08
4.099007e-08
4.514229e-08
4.934768e-08
0.000000e+00
1.130412e-09
2.767565e-09
4.643501e-09
6.912609e-09
9.548622e-09
1.248825e-08
1.566132e-08
1.900644e-08
2.247401e-08
2.602682e-08
2.964010e-08
3.330360e-08
3.702849e-08
4.086257e-08
4.489955e-08
4.903703e-08
0.000000e+00
5.574055e-10
1.975007e-09
3.947982e-09
6.348722e-09
9.112103e-09
1.215967e-08
1.542049e-08
1.883548e-08
2.235779e-08
2.595259e-08
2.959680e-08
3.327830e-08
3.699051e-08
4.073787e-08
4.464175e-08
4.866860e-08
0.000000e+00
3.175880e-10
1.601365e-09
3.583577e-09
6.052804e-09
8.886210e-09
1.199248e-08
1.530008e-08
1.875205e-08
2.230348e-08
2.592065e-08
2.958001e-08
3.326528e-08
3.696014e-08
4.066052e-08
4.445861e-08
4.834630e-08
0.000000e+00
2.568029e-10
1.499575e-09
3.473246e-09
5.961795e-09
8.817401e-09
1.194251e-08
1.526526e-08
1.872949e-08
2.229089e-08
2.591545e-08
2.957810e-08
3.325979e-08
3.694374e-08
4.062420e-08
4.435403e-08
4.811701e-08
0.000000e+00
3.180150e-10
1.601956e-09
3.584376e-09
6.053938e-09
8.888017e-09
1.199555e-08
1.530526e-08
1.876023e-08
2.231509e-08
2.593456e-08
2.959185e-08
3.326663e-08
3.694339e-08
4.061596e-08
4.430359e-08
4.798507e-08
0.000000e+00
5.580813e-10
1.976075e-09
3.949564e-09
6.351059e-09
9.115857e-09
1.216594e-08
1.543082e-08
1.885154e-08
2.238052e-08
2.598044e-08
2.962267e-08
3.328562e-08
3.695371e-08
4.061861e-08
4.428127e-08
4.792346e-08
0.000000e+00
1.131362e-09
2.769340e-09
4.646128e-09
6.916405e-09
9.554351e-09
1.249714e-08
1.567504e-08
1.902681e-08
2.250211e-08
2.606120e-08
2.967330e-08
3.331499e-08
3.696914e-08
4.062430e-08
4.427278e-08
4.790290e-08
0.000000e+00
2.104467e-09
3.780362e-09
5.537905e-09
7.647433e-09
1.013063e-08
1.293739e-08
1.600230e-08
1.926249e-08
2.266541e-08
2.616897e-08
2.974012e-08
3.335323e-08
3.698878e-08
4.063235e-08
4.427220e-08
4.789975e-08


3.056362e-01
3.056362e-01
3.056365e-01
3.056370e-01
3.056375e-01
3.056379e-01
3.056382e-01
3.056384e-01
3.056386e-01
3.056387e-01
3.056388e-01
3.056388e-01
3.056388e-01
3.056388e-01
3.056387e-01
3.056386e-01
3.056368e-01
3.056368e-01
3.056370e-01
3.056374e-01
3.056378e-01
3.056381e-01
3.056383e-01
3.056385e-01
3.056386e-01
3.056387e-01
3.056388e-01
3.056388e-01
3.056388e-01
3.056388e-01
3.056387e-01
3.056386e-01
3.056377e-01
3.056377e-01
3.056378e-01
3.056380e-01
3.056382e-01
3.056384e-01
3.056386e-01
3.056387e-01
3.056387e-01
3.056388e-01
3.056388e-01
3.056388e-01
3.056388e-01
3.056388e-01
3.056387e-01
3.056387e-01
3.056383e-01
3.056383e-01
3.056383e-01
3.056384e-01
3.056386e-01
3.056386e-01
3.056387e-01
3.056388e-01
3.056388e-01
3.056388e-01
3.056388e-01
3.056388e-01
3.056388e-01
3.056388e-01
3.056388e-01
3.056388e-01
3.056383e-01
3.056383e-01
3.056383e-01
3.056384e-01
3.056386e-01
3.056386e-01
3.056387e-01
3.056388e-01
3.056388e-01
3.056388e-01
3.056388e-01
3.056388e-01
3.056388e-01
3.056388e-01
3.056388e-01
3.056388e-01
3.056377e-01
3.056377e-01
3.056378e-01
3.056380e-01
3.056382e-01
3.056384e-01
3.056385e-01
3.056387e-01
3.056387e-01
3.056388e-01
3.056388e-01
3.056388e-01
3.056388e-01
3.056389e-01
3.056389e-01
3.056389e-01
3.056368e-01
3.056368e-01
3.056370e-01
3.056374e-01
3.056378e-01
3.056381e-01
3.056383e-01
3.056385e-01
3.056386e-01
3.056387e-01
3.056388e-01
3.056388e-01
3.056388e-01
3.056389e-01
3.056389e-01
3.056389e-01
3.056362e-01
3.056362e-01
3.056365e-01
3.056370e-01
3.056375e-01
3.056379e-01
3.056382e-01
3.056384e-01
3.056386e-01
3.056387e-01
3.056388e-01
3.056388e-01
3.056388e-01
3.056389e-01
3.056389e-01
3.056389e-01


9.753835e-01
9.788743e-01
9.821035e-01
9.845894e-01
9.868968e-01
9.890244e-01
9.909628e-01
9.926893e-01
9.941857e-01
9.954372e-01
9.964324e-01
9.971614e-01
9.976145e-01
9.977762e-01
9.978929e-01
9.906987e-01
9.906871e-01
9.890874e-01
9.901166e-01
9.914599e-01
9.927122e-01
9.938505e-01
9.948809e-01
9.958141e-01
9.966592e-01
9.974246e-01
9.981191e-01
9.987480e-01
9.992966e-01
9.996559e-01
9.987474e-01
9.864324e-01
9.967642e-01
9.958454e-01
9.955974e-01
9.959463e-01
9.964052e-01
9.968498e-01
9.972626e-01
9.976526e-01
9.980304e-01
9.983987e-01
9.987427e-01
9.990091e-01
9.990647e-01
9.985850e-01
9.968450e-01
9.937154e-01
9.993415e-01
9.986713e-01
9.982574e-01
9.981524e-01
9.981943e-01
9.982647e-01
9.983349e-01
9.984036e-01
9.984710e-01
9.985274e-01
9.985431e-01
9.984592e-01
9.981932e-01
9.977156e-01
9.973107e-01
9.972082e-01
9.993439e-01
9.986748e-01
9.982605e-01
9.981517e-01
9.981839e-01
9.982346e-01
9.982698e-01
9.982817e-01
9.982655e-01
9.982137e-01
9.981170e-01
9.979778e-01
9.978453e-01
9.978716e-01
9.982464e-01
9.988951e-01
9.967688e-01
9.958524e-01
9.956041e-01
9.959463e-01
9.963874e-01
9.967948e-01
9.971395e-01
9.974165e-01
9.976240e-01
9.977637e-01
9.978521e-01
9.979384e-01
9.981199e-01
9.985002e-01
9.990716e-01
9.996624e-01
9.906862e-01
9.890868e-01
9.901152e-01
9.914560e-01
9.927024e-01
9.938281e-01
9.948345e-01
9.957255e-01
9.965020e-01
9.971657e-01
9.977276e-01
9.982183e-01
9.986908e-01
9.991863e-01
9.996496e-01
9.999413e-01
9.753667e-01
9.788480e-01
9.820713e-01
9.845532e-01
9.868643e-01
9.890126e-01
9.910029e-01
9.928304e-01
9.944955e-01
9.959951e-01
9.973113e-01
9.984031e-01
9.992153e-01
9.997165e-01
9.999444e-01
9.999988e-01
1 2 19 18
2 3 20 19
3 4 21 20
4 5 22 21
5 6 23 22
6 7 24 23
7 8 25 24
8 9 26 25
9 10 27 26
10 11 28 27
11 12 29 28
12 13 30 29
13 14 31 30
14 15 32 31
15 16 33 32
16 17 34 33
18 19 36 35
19 20 37 36
20 21 38 37
21 22 39 38
22 23 40 39
23 24 41 40
24 25 42 41
25 26 43 42
26 27 44 43
27 28 45 44
28 29 46 45
29 30 47 46
30 31 48 47
31 32 49 48
32 33 50 49
33 34 51 50
35 36 53 52
36 37 54 53
37 38 55 54
38 39 56 55
39 40 57 56
40 41 58 57
41 42 59 58
42 43 60 59
43 44 61 60
44 45 62 61
45 46 63 62
46 47 64 63
47 48 65 64
48 49 66 65
49 50 67 66
50 51 68 67
52 53 70 69
53 54 71 70
54 55 72 71
55 56 73 72
56 57 74 73
57 58 75 74
58 59 76 75
59 60 77 76
60 61 78 77
61 62 79 78
62 63 80 79
63 64 81 80
64 65 82 81
65 66 83 82
66 67 84 83
67 68 85 84
69 70 87 86
70 71 88 87
71 72 89 88
72 73 90 89
73 74 91 90
74 75 92 91
75 76 93 92
76 77 94 93
77 78 95 94
78 79 96 95
79 80 97 96
80 81 98 97
81 82 99 98
82 83 100 99
83 84 101 100
84 85 102 101
86 87 104 103
87 88 105 104
88 89 106 105
89 90 107 106
90 91 108 107
91 92 109 108
92 93 110 109
93 94 111 110
94 95 112 111
95 96 113 112
96 97 114 113
97 98 115 114
98 99 116 115
99 100 117 116
100 101 118 117
101 102 119 118
103 104 121 120
104 105 122 121
105 106 123 122
106 107 124 123
107 108 125 124
108 109 126 125
109 110 127 126
110 111 128 127
111 112 129 128
112 113 130 129
113 114 131 130
114 115 132 131
115 116 133 132
116 117 134 133
117 118 135 134
118 119 136 135
120 121 138 137
121 122 139 138
122 123 140 139
123 124 141 140
124 125 142 141
125 126 143 142
126 127 144 143
127 128 145 144
128 129 146 145
129 130 147 146
130 131 148 147
131 132 149 148
132 133 150 149
133 134 151 150
134 135 152 151
135 136 153 152
