TITLE = "Solution"
VARIABLES = x, y, u, v, psiu, psiv, t, stress
ZONE T="structure" N=153 E=128 F=FEBLOCK ET=QUADRILATERAL VARLOCATION=([7,8]=cellcentered)
0.000000e+00
1.250000e+01
2.500000e+01
3.750000e+01
5.000000e+01
6.250000e+01
7.500000e+01
8.750000e+01
1.000000e+02
1.125000e+02
1.250000e+02
1.375000e+02
1.500000e+02
1.625000e+02
1.750000e+02
1.875000e+02
2.000000e+02
0.000000e+00
1.250000e+01
2.500000e+01
3.750000e+01
5.000000e+01
6.250000e+01
7.500000e+01
8.750000e+01
1.000000e+02
1.125000e+02
1.250000e+02
1.375000e+02
1.500000e+02
1.625000e+02
1.750000e+02
1.875000e+02
2.000000e+02
0.000000e+00
1.250000e+01
2.500000e+01
3.750000e+01
5.000000e+01
6.250000e+01
7.500000e+01
8.750000e+01
1.000000e+02
1.125000e+02
1.250000e+02
1.375000e+02
1.500000e+02
1.625000e+02
1.750000e+02
1.875000e+02
2.000000e+02
0.000000e+00
1.250000e+01
2.500000e+01
3.750000e+01
5.000000e+01
6.250000e+01
7.500000e+01
8.750000e+01
1.000000e+02
1.125000e+02
1.250000e+02
1.375000e+02
1.500000e+02
1.625000e+02
1.750000e+02
1.875000e+02
2.000000e+02
0.000000e+00
1.250000e+01
2.500000e+01
3.750000e+01
5.000000e+01
6.250000e+01
7.500000e+01
8.750000e+01
1.000000e+02
1.125000e+02
1.250000e+02
1.375000e+02
1.500000e+02
1.625000e+02
1.750000e+02
1.875000e+02
2.000000e+02
0.000000e+00
1.250000e+01
2.500000e+01
3.750000e+01
5.000000e+01
6.250000e+01
7.500000e+01
8.750000e+01
1.000000e+02
1.125000e+02
1.250000e+02
1.375000e+02
1.500000e+02
1.625000e+02
1.750000e+02
1.875000e+02
2.000000e+02
0.000000e+00
1.250000e+01
2.500000e+01
3.750000e+01
5.000000e+01
6.250000e+01
7.500000e+01
8.750000e+01
1.000000e+02
1.125000e+02
1.250000e+02
1.375000e+02
1.500000e+02
1.625000e+02
1.750000e+02
1.875000e+02
2.000000e+02
0.000000e+00
1.250000e+01
2.500000e+01
3.750000e+01
5.000000e+01
6.250000e+01
7.500000e+01
8.750000e+01
1.000000e+02
1.125000e+02
1.250000e+02
1.375000e+02
1.500000e+02
1.625000e+02
1.750000e+02
1.875000e+02
2.000000e+02
0.000000e+00
1.250000e+01
2.500000e+01
3.750000e+01
5.000000e+01
6.250000e+01
7.500000e+01
8.750000e+01
1.000000e+02
1.125000e+02
1.250000e+02
1.375000e+02
1.500000e+02
1.625000e+02
1.750000e+02
1.875000e+02
2.000000e+02
0.000000e+00
0.000000e+00
0.000000e+00
0.000000e+00
0.000000e+00
0.000000e+00
0.000000e+00
0.000000e+00
0.000000e+00
0.000000e+00
0.000000e+00
0.000000e+00
0.000000e+00
0.000000e+00
0.000000e+00
0.000000e+00
0.000000e+00
1.250000e+01
1.250000e+01
1.250000e+01
1.250000e+01
1.250000e+01
1.250000e+01
1.250000e+01
1.250000e+01
1.250000e+01
1.250000e+01
1.250000e+01
1.250000e+01
1.250000e+01
1.250000e+01
1.250000e+01
1.250000e+01
1.250000e+01
2.500000e+01
2.500000e+01
2.500000e+01
2.500000e+01
2.500000e+01
2.500000e+01
2.500000e+01
2.500000e+01
2.500000e+01
2.500000e+01
2.500000e+01
2.500000e+01
2.500000e+01
2.500000e+01
2.500000e+01
2.500000e+01
2.500000e+01
3.750000e+01
3.750000e+01
3.750000e+01
3.750000e+01
3.750000e+01
3.750000e+01
3.750000e+01
3.750000e+01
3.750000e+01
3.750000e+01
3.750000e+01
3.750000e+01
3.750000e+01
3.750000e+01
3.750000e+01
3.750000e+01
3.750000e+01
5.000000e+01
5.000000e+01
5.000000e+01
5.000000e+01
5.000000e+01
5.000000e+01
5.000000e+01
5.000000e+01
5.000000e+01
5.000000e+01
5.000000e+01
5.000000e+01
5.000000e+01
5.000000e+01
5.000000e+01
5.000000e+01
5.000000e+01
6.250000e+01
6.250000e+01
6.250000e+01
6.250000e+01
6.250000e+01
6.250000e+01
6.250000e+01
6.250000e+01
6.250000e+01
6.250000e+01
6.250000e+01
6.250000e+01
6.250000e+01
6.250000e+01
6.250000e+01
6.250000e+01
6.250000e+01
7.500000e+01
7.500000e+01
7.500000e+01
7.500000e+01
7.500000e+01
7.500000e+01
7.500000e+01
7.500000e+01
7.500000e+01
7.500000e+01
7.500000e+01
7.500000e+01
7.500000e+01
7.500000e+01
7.500000e+01
7.500000e+01
7.500000e+01
8.750000e+01
8.750000e+01
8.750000e+01
8.750000e+01
8.750000e+01
8.750000e+01
8.750000e+01
8.750000e+01
8.750000e+01
8.750000e+01
8.750000e+01
8.750000e+01
8.750000e+01
8.750000e+01
8.750000e+01
8.750000e+01
8.750000e+01
1.000000e+02
1.000000e+02
1.000000e+02
1.000000e+02
1.000000e+02
1.000000e+02
1.000000e+02
1.000000e+02
1.000000e+02
1.000000e+02
1.000000e+02
1.000000e+02
1.000000e+02
1.000000e+02
1.000000e+02
1.000000e+02
1.000000e+02
0.000000e+00
-8.070958e-01
-1.471443e+00
-2.111234e+00
-2.759491e+00
-3.399563e+00
-4.027776e+00
-4.641703e+00
-5.233347e+00
-5.792621e+00
-6.311936e+00
-6.790265e+00
-7.236789e+00
-7.674483e+00
-8.143428e+00
-8.691094e+00
-9.089420e+00
0.000000e+00
-4.562169e-01
-9.494023e-01
-1.430174e+00
-1.916549e+00
-2.396302e+00
-2.866539e+00
-3.325808e+00
-3.768314e+00
-4.185826e+00
-4.570482e+00
-4.916583e+00
-5.220144e+00
-5.473081e+00
-5.648475e+00
-5.687093e+00
-5.813731e+00
0.000000e+00
-2.664232e-01
-5.569928e-01
-8.729990e-01
-1.197508e+00
-1.519079e+00
-1.834460e+00
-2.140809e+00
-2.433008e+00
-2.704086e+00
-2.945965e+00
-3.149610e+00
-3.303655e+00
-3.391841e+00
-3.397420e+00
-3.367006e+00
-3.497972e+00
0.000000e+00
-1.220721e-01
-2.586810e-01
-4.120646e-01
-5.737072e-01
-7.353555e-01
-8.936370e-01
-1.045524e+00
-1.187031e+00
-1.312865e+00
-1.416343e+00
-1.489534e+00
-1.524127e+00
-1.515768e+00
-1.481774e+00
-1.489537e+00
-1.589983e+00
0.000000e+00
-2.271499e-04
-5.407384e-04
-8.750443e-04
-1.078697e-03
-8.256628e-04
4.380188e-04
3.765918e-03
1.094448e-02
2.468539e-02
4.855117e-02
8.616157e-02
1.386403e-01
1.984506e-01
2.406327e-01
2.316179e-01
1.632524e-01
0.000000e+00
1.216590e-01
2.578422e-01
4.107685e-01
5.720741e-01
7.338649e-01
8.938075e-01
1.050555e+00
1.202909e+00
1.349846e+00
1.490496e+00
1.623411e+00
1.744342e+00
1.842703e+00
1.901417e+00
1.907136e+00
1.871903e+00
0.000000e+00
2.660886e-01
5.565751e-01
8.727731e-01
1.197260e+00
1.518484e+00
1.833630e+00
2.140700e+00
2.435295e+00
2.711408e+00
2.962606e+00
3.182564e+00
3.364571e+00
3.500724e+00
3.583044e+00
3.610037e+00
3.601861e+00
0.000000e+00
4.560034e-01
9.496538e-01
1.431349e+00
1.918487e+00
2.398073e+00
2.867029e+00
3.323836e+00
3.760898e+00
4.166339e+00
4.527191e+00
4.831751e+00
5.071204e+00
5.241020e+00
5.342809e+00
5.386299e+00
5.394318e+00
0.000000e+00
8.069834e-01
1.472532e+00
2.113942e+00
2.764211e+00
3.405539e+00
4.034166e+00
4.647198e+00
5.233115e+00
5.774340e+00
6.251181e+00
6.644876e+00
6.940487e+00
7.130897e+00
7.223153e+00
7.245767e+00
7.245231e+00
0.000000e+00
-4.943267e-01
-1.004646e+00
-1.679995e+00
-2.515769e+00
-3.513674e+00
-4.674564e+00
-5.995260e+00
-7.468543e+00
-9.084370e+00
-1.083116e+01
-1.269844e+01
-1.468193e+01
-1.679362e+01
-1.909671e+01
-2.179172e+01
-2.581823e+01
0.000000e+00
-3.090030e-01
-8.404721e-01
-1.511170e+00
-2.346950e+00
-3.347531e+00
-4.511971e+00
-5.837647e+00
-7.318532e+00
-8.944778e+00
-1.070403e+01
-1.258445e+01
-1.458027e+01
-1.670370e+01
-1.901075e+01
-2.169159e+01
-2.504766e+01
0.000000e+00
-2.444242e-01
-7.293153e-01
-1.394431e+00
-2.227955e+00
-3.229907e+00
-4.397544e+00
-5.728145e+00
-7.216265e+00
-8.852623e+00
-1.062512e+01
-1.252200e+01
-1.453786e+01
-1.668309e+01
-1.899559e+01
-2.151616e+01
-2.393032e+01
0.000000e+00
-2.276920e-01
-6.797725e-01
-1.328784e+00
-2.158634e+00
-3.160838e+00
-4.331425e+00
-5.667045e+00
-7.162458e+00
-8.808958e+00
-1.059485e+01
-1.250797e+01
-1.453978e+01
-1.668821e+01
-1.894522e+01
-2.122468e+01
-2.327533e+01
0.000000e+00
-2.256159e-01
-6.667076e-01
-1.308977e+00
-2.136571e+00
-3.139445e+00
-4.312366e+00
-5.652029e+00
-7.153500e+00
-8.808400e+00
-1.060466e+01
-1.252769e+01
-1.456155e+01
-1.668569e+01
-1.885598e+01
-2.097348e+01
-2.287146e+01
0.000000e+00
-2.274480e-01
-6.795540e-01
-1.329100e+00
-2.160186e+00
-3.164461e+00
-4.338529e+00
-5.679999e+00
-7.184620e+00
-8.844009e+00
-1.064488e+01
-1.256889e+01
-1.459175e+01
-1.667862e+01
-1.877492e+01
-2.079828e+01
-2.264112e+01
0.000000e+00
-2.440215e-01
-7.289853e-01
-1.394985e+00
-2.230459e+00
-3.235840e+00
-4.409295e+00
-5.749757e+00
-7.253498e+00
-8.911846e+00
-1.071015e+01
-1.262686e+01
-1.463168e+01
-1.668283e+01
-1.872554e+01
-2.069727e+01
-2.253859e+01
0.000000e+00
-3.085600e-01
-8.402475e-01
-1.511967e+00
-2.349853e+00
-3.354274e+00
-4.525349e+00
-5.862314e+00
-7.360950e+00
-9.011938e+00
-1.079986e+01
-1.270177e+01
-1.468517e+01
-1.670644e+01
-1.871299e+01
-2.065525e+01
-2.251464e+01
0.000000e+00
-4.940044e-01
-1.004754e+00
-1.681218e+00
-2.519060e+00
-3.520644e+00
-4.688102e+00
-6.019786e+00
-7.509567e+00
-9.147090e+00
-1.091668e+01
-1.279561e+01
-1.475210e+01
-1.674426e+01
-1.872341e+01
-2.064752e+01
-2.251511e+01


0.000000e+00
8.485900e-06
1.695572e-05
2.488864e-05
3.266601e-05
3.993365e-05
4.632878e-05
5.165413e-05
5.582654e-05
5.889224e-05
6.102152e-05
6.245099e-05
6.343080e-05
6.420418e-05
6.498288e-05
6.610546e-05
6.759676e-05
0.000000e+00
6.204183e-06
1.363509e-05
1.969174e-05
2.555467e-05
3.102206e-05
3.576792e-05
3.963569e-05
4.258214e-05
4.466225e-05
4.602432e-05
4.685000e-05
4.728319e-05
4.741835e-05
4.756658e-05
4.847381e-05
5.001284e-05
0.000000e+00
4.642556e-06
9.531809e-06
1.364490e-05
1.759675e-05
2.117061e-05
2.423820e-05
2.671533e-05
2.857874e-05
2.986218e-05
3.065439e-05
3.106810e-05
3.121172e-05
3.122258e-05
3.137086e-05
3.210883e-05
3.334884e-05
0.000000e+00
2.331538e-06
4.466979e-06
6.688392e-06
8.691811e-06
1.045416e-05
1.196109e-05
1.318599e-05
1.411033e-05
1.474112e-05
1.511436e-05
1.529184e-05
1.536214e-05
1.544214e-05
1.563310e-05
1.606033e-05
1.676283e-05
0.000000e+00
1.107415e-09
-7.163964e-10
-7.366431e-09
-1.005283e-08
-1.171051e-08
-1.904573e-08
-3.790222e-08
-7.107184e-08
-1.178030e-07
-1.716877e-07
-2.152081e-07
-2.168617e-07
-1.474981e-07
-2.707648e-08
1.410636e-07
4.507136e-07
0.000000e+00
-2.329094e-06
-4.470240e-06
-6.690970e-06
-8.700374e-06
-1.046451e-05
-1.198023e-05
-1.323026e-05
-1.419737e-05
-1.489033e-05
-1.534185e-05
-1.559824e-05
-1.570903e-05
-1.572870e-05
-1.572380e-05
-1.570395e-05
-1.559194e-05
0.000000e+00
-4.660483e-06
-9.542212e-06
-1.361641e-05
-1.755388e-05
-2.115507e-05
-2.423915e-05
-2.671326e-05
-2.856380e-05
-2.983232e-05
-3.062299e-05
-3.107021e-05
-3.130147e-05
-3.141991e-05
-3.149359e-05
-3.153099e-05
-3.150357e-05
0.000000e+00
-6.245372e-06
-1.366562e-05
-1.963338e-05
-2.545601e-05
-3.097380e-05
-3.575213e-05
-3.959794e-05
-4.248183e-05
-4.447150e-05
-4.573899e-05
-4.649949e-05
-4.694077e-05
-4.719595e-05
-4.734401e-05
-4.741641e-05
-4.742761e-05
0.000000e+00
-8.530356e-06
-1.699576e-05
-2.482697e-05
-3.255670e-05
-3.985625e-05
-4.626972e-05
-5.156315e-05
-5.565363e-05
-5.859638e-05
-6.057870e-05
-6.184656e-05
-6.262506e-05
-6.308147e-05
-6.332240e-05
-6.341469e-05
-6.343024e-05
0.000000e+00
7.502677e-06
1.299607e-05
1.945052e-05
2.778800e-05
3.773867e-05
4.914991e-05
6.184099e-05
7.557167e-05
9.011405e-05
1.052789e-04
1.209171e-04
1.369507e-04
1.535279e-04
1.715151e-04
1.915648e-04
2.121541e-04
0.000000e+00
3.847400e-06
9.435206e-06
1.595056e-05
2.438807e-05
3.465061e-05
4.653318e-05
5.975882e-05
7.402843e-05
8.905134e-05
1.045950e-04
1.205030e-04
1.367090e-04
1.532915e-04
1.706040e-04
1.896227e-04
2.096167e-04
0.000000e+00
1.672464e-06
6.629667e-06
1.339541e-05
2.195431e-05
3.246564e-05
4.468506e-05
5.829049e-05
7.294115e-05
8.831130e-05
1.041399e-04
1.202610e-04
1.365989e-04
1.530993e-04
1.696954e-04
1.875674e-04
2.066495e-04
0.000000e+00
9.547390e-07
5.382825e-06
1.216618e-05
2.087686e-05
3.151103e-05
4.385923e-05
5.761186e-05
7.242098e-05
8.795006e-05
1.039223e-04
1.201509e-04
1.365204e-04
1.529028e-04
1.691821e-04
1.862272e-04
2.042150e-04
0.000000e+00
8.168195e-07
5.052742e-06
1.177119e-05
2.055543e-05
3.122884e-05
4.361393e-05
5.741011e-05
7.226962e-05
8.785167e-05
1.038705e-04
1.201214e-04
1.364650e-04
1.527803e-04
1.690130e-04
1.856211e-04
2.026405e-04
0.000000e+00
9.579418e-07
5.402066e-06
1.217983e-05
2.086722e-05
3.149285e-05
4.385426e-05
5.762905e-05
7.246301e-05
8.801487e-05
1.039969e-04
1.202017e-04
1.364906e-04
1.527686e-04
1.690185e-04
1.853975e-04
2.018080e-04
0.000000e+00
1.678183e-06
6.660184e-06
1.341530e-05
2.193755e-05
3.243845e-05
4.468207e-05
5.832592e-05
7.302176e-05
8.843617e-05
1.042902e-04
1.203860e-04
1.365926e-04
1.528274e-04
1.690583e-04
1.853016e-04
2.014415e-04
0.000000e+00
3.856445e-06
9.454473e-06
1.595104e-05
2.436948e-05
3.464025e-05
4.654144e-05
5.979802e-05
7.411301e-05
8.918552e-05
1.047656e-04
1.206645e-04
1.367444e-04
1.529085e-04
1.690958e-04
1.852600e-04
2.013244e-04
0.000000e+00
7.521297e-06
1.298615e-05
1.940966e-05
2.777261e-05
3.775520e-05
4.916806e-05
6.186500e-05
7.562005e-05
9.019744e-05
1.053943e-04
1.210293e-04
1.369431e-04
1.530100e-04
1.691392e-04
1.852568e-04
2.013074e-04


2.138934e+00
2.105391e+00
2.237896e+00
2.461984e+00
2.660527e+00
2.885586e+00
3.140115e+00
3.393754e+00
3.618896e+00
3.798270e+00
3.926279e+00
4.004966e+00
4.025468e+00
3.935795e+00
3.744593e+00
3.596892e+00
2.602353e+00
2.567579e+00
2.655320e+00
2.822515e+00
2.972379e+00
3.145606e+00
3.343628e+00
3.542449e+00
3.720174e+00
3.862458e+00
3.963871e+00
4.024882e+00
4.034453e+00
3.939307e+00
3.752116e+00
3.609443e+00
3.319286e+00
3.289444e+00
3.326096e+00
3.404168e+00
3.477166e+00
3.567382e+00
3.673047e+00
3.781182e+00
3.879788e+00
3.959822e+00
4.016858e+00
4.049936e+00
4.049051e+00
3.971338e+00
3.824512e+00
3.716490e+00
3.790100e+00
3.770471e+00
3.773632e+00
3.791500e+00
3.815866e+00
3.850363e+00
3.892464e+00
3.937507e+00
3.980462e+00
4.016486e+00
4.042635e+00
4.058110e+00
4.057458e+00
4.017065e+00
3.939165e+00
3.881898e+00
3.790015e+00
3.770942e+00
3.774482e+00
3.791648e+00
3.814775e+00
3.848288e+00
3.889605e+00
3.933516e+00
3.974926e+00
4.009460e+00
4.035036e+00
4.052371e+00
4.060930e+00
4.052480e+00
4.027156e+00
4.007606e+00
3.318737e+00
3.291438e+00
3.329339e+00
3.405758e+00
3.474544e+00
3.562470e+00
3.667698e+00
3.775017e+00
3.871394e+00
3.948532e+00
4.004008e+00
4.040966e+00
4.064216e+00
4.075242e+00
4.076364e+00
4.074781e+00
2.601030e+00
2.569180e+00
2.659858e+00
2.824709e+00
2.969947e+00
3.140832e+00
3.341559e+00
3.543681e+00
3.722419e+00
3.863376e+00
3.963132e+00
4.027555e+00
4.066549e+00
4.088561e+00
4.099558e+00
4.103833e+00
2.135709e+00
2.105718e+00
2.240131e+00
2.464018e+00
2.658185e+00
2.882260e+00
3.142291e+00
3.402950e+00
3.632466e+00
3.812711e+00
3.939641e+00
4.020699e+00
4.068548e+00
4.095021e+00
4.108418e+00
4.113978e+00


-4.068832e-01
-1.792054e-01
-1.003690e-01
-1.286881e-01
-1.009241e-01
-6.074241e-02
-1.365640e-02
5.780643e-02
1.589334e-01
2.800655e-01
4.030553e-01
5.094489e-01
5.883163e-01
6.395086e-01
6.923372e-01
-2.763916e-01
5.168437e-01
4.069244e-01
3.925971e-01
3.697731e-01
3.779816e-01
3.943366e-01
4.164701e-01
4.543182e-01
5.132947e-01
5.918723e-01
6.836875e-01
7.807489e-01
8.741094e-01
9.405685e-01
8.163732e-01
-9.029382e-01
8.335619e-01
7.535185e-01
6.931034e-01
6.666065e-01
6.601617e-01
6.601855e-01
6.653035e-01
6.790037e-01
7.045022e-01
7.421593e-01
7.873495e-01
8.276321e-01
8.372102e-01
7.636092e-01
5.096114e-01
5.796911e-02
9.451224e-01
8.826573e-01
8.305095e-01
8.021361e-01
7.892913e-01
7.813067e-01
7.741835e-01
7.676655e-01
7.628478e-01
7.595512e-01
7.534262e-01
7.338632e-01
6.859017e-01
6.079632e-01
5.527179e-01
5.455627e-01
9.453684e-01
8.830008e-01
8.308658e-01
8.021002e-01
7.880727e-01
7.773698e-01
7.650193e-01
7.494126e-01
7.304200e-01
7.078399e-01
6.807684e-01
6.494164e-01
6.221178e-01
6.266265e-01
6.952675e-01
8.100981e-01
8.342236e-01
7.540453e-01
6.933208e-01
6.663631e-01
6.582573e-01
6.533663e-01
6.480321e-01
6.433521e-01
6.399074e-01
6.371705e-01
6.356293e-01
6.410127e-01
6.681044e-01
7.340198e-01
8.356270e-01
9.406120e-01
5.177701e-01
4.065888e-01
3.910973e-01
3.684587e-01
3.774307e-01
3.926561e-01
4.097404e-01
4.393276e-01
4.864426e-01
5.480368e-01
6.174136e-01
6.903379e-01
7.687378e-01
8.553645e-01
9.377265e-01
9.896488e-01
-4.059226e-01
-1.825114e-01
-1.053078e-01
-1.341541e-01
-1.032337e-01
-5.974328e-02
-9.005903e-03
7.433236e-02
2.026430e-01
3.688418e-01
5.519975e-01
7.249235e-01
8.624151e-01
9.499096e-01
9.901914e-01
9.997968e-01
1 2 19 18
2 3 20 19
3 4 21 20
4 5 22 21
5 6 23 22
6 7 24 23
7 8 25 24
8 9 26 25
9 10 27 26
10 11 28 27
11 12 29 28
12 13 30 29
13 14 31 30
14 15 32 31
15 16 33 32
16 17 34 33
18 19 36 35
19 20 37 36
20 21 38 37
21 22 39 38
22 23 40 39
23 24 41 40
24 25 42 41
25 26 43 42
26 27 44 43
27 28 45 44
28 29 46 45
29 30 47 46
30 31 48 47
31 32 49 48
32 33 50 49
33 34 51 50
35 36 53 52
36 37 54 53
37 38 55 54
38 39 56 55
39 40 57 56
40 41 58 57
41 42 59 58
42 43 60 59
43 44 61 60
44 45 62 61
45 46 63 62
46 47 64 63
47 48 65 64
48 49 66 65
49 50 67 66
50 51 68 67
52 53 70 69
53 54 71 70
54 55 72 71
55 56 73 72
56 57 74 73
57 58 75 74
58 59 76 75
59 60 77 76
60 61 78 77
61 62 79 78
62 63 80 79
63 64 81 80
64 65 82 81
65 66 83 82
66 67 84 83
67 68 85 84
69 70 87 86
70 71 88 87
71 72 89 88
72 73 90 89
73 74 91 90
74 75 92 91
75 76 93 92
76 77 94 93
77 78 95 94
78 79 96 95
79 80 97 96
80 81 98 97
81 82 99 98
82 83 100 99
83 84 101 100
84 85 102 101
86 87 104 103
87 88 105 104
88 89 106 105
89 90 107 106
90 91 108 107
91 92 109 108
92 93 110 109
93 94 111 110
94 95 112 111
95 96 113 112
96 97 114 113
97 98 115 114
98 99 116 115
99 100 117 116
100 101 118 117
101 102 119 118
103 104 121 120
104 105 122 121
105 106 123 122
106 107 124 123
107 108 125 124
108 109 126 125
109 110 127 126
110 111 128 127
111 112 129 128
112 113 130 129
113 114 131 130
114 115 132 131
115 116 133 132
116 117 134 133
117 118 135 134
118 119 136 135
120 121 138 137
121 122 139 138
122 123 140 139
123 124 141 140
124 125 142 141
125 126 143 142
126 127 144 143
127 128 145 144
128 129 146 145
129 130 147 146
130 131 148 147
131 132 149 148
132 133 150 149
133 134 151 150
134 135 152 151
135 136 153 152
