TITLE = "Solution"
VARIABLES = x, y, u, v, psiu, psiv, t, stress
ZONE T="structure" N=153 E=128 F=FEBLOCK ET=QUADRILATERAL VARLOCATION=([7,8]=cellcentered)
0.000000e+00
1.250000e+01
2.500000e+01
3.750000e+01
5.000000e+01
6.250000e+01
7.500000e+01
8.750000e+01
1.000000e+02
1.125000e+02
1.250000e+02
1.375000e+02
1.500000e+02
1.625000e+02
1.750000e+02
1.875000e+02
2.000000e+02
0.000000e+00
1.250000e+01
2.500000e+01
3.750000e+01
5.000000e+01
6.250000e+01
7.500000e+01
8.750000e+01
1.000000e+02
1.125000e+02
1.250000e+02
1.375000e+02
1.500000e+02
1.625000e+02
1.750000e+02
1.875000e+02
2.000000e+02
0.000000e+00
1.250000e+01
2.500000e+01
3.750000e+01
5.000000e+01
6.250000e+01
7.500000e+01
8.750000e+01
1.000000e+02
1.125000e+02
1.250000e+02
1.375000e+02
1.500000e+02
1.625000e+02
1.750000e+02
1.875000e+02
2.000000e+02
0.000000e+00
1.250000e+01
2.500000e+01
3.750000e+01
5.000000e+01
6.250000e+01
7.500000e+01
8.750000e+01
1.000000e+02
1.125000e+02
1.250000e+02
1.375000e+02
1.500000e+02
1.625000e+02
1.750000e+02
1.875000e+02
2.000000e+02
0.000000e+00
1.250000e+01
2.500000e+01
3.750000e+01
5.000000e+01
6.250000e+01
7.500000e+01
8.750000e+01
1.000000e+02
1.125000e+02
1.250000e+02
1.375000e+02
1.500000e+02
1.625000e+02
1.750000e+02
1.875000e+02
2.000000e+02
0.000000e+00
1.250000e+01
2.500000e+01
3.750000e+01
5.000000e+01
6.250000e+01
7.500000e+01
8.750000e+01
1.000000e+02
1.125000e+02
1.250000e+02
1.375000e+02
1.500000e+02
1.625000e+02
1.750000e+02
1.875000e+02
2.000000e+02
0.000000e+00
1.250000e+01
2.500000e+01
3.750000e+01
5.000000e+01
6.250000e+01
7.500000e+01
8.750000e+01
1.000000e+02
1.125000e+02
1.250000e+02
1.375000e+02
1.500000e+02
1.625000e+02
1.750000e+02
1.875000e+02
2.000000e+02
0.000000e+00
1.250000e+01
2.500000e+01
3.750000e+01
5.000000e+01
6.250000e+01
7.500000e+01
8.750000e+01
1.000000e+02
1.125000e+02
1.250000e+02
1.375000e+02
1.500000e+02
1.625000e+02
1.750000e+02
1.875000e+02
2.000000e+02
0.000000e+00
1.250000e+01
2.500000e+01
3.750000e+01
5.000000e+01
6.250000e+01
7.500000e+01
8.750000e+01
1.000000e+02
1.125000e+02
1.250000e+02
1.375000e+02
1.500000e+02
1.625000e+02
1.750000e+02
1.875000e+02
2.000000e+02
0.000000e+00
0.000000e+00
0.000000e+00
0.000000e+00
0.000000e+00
0.000000e+00
0.000000e+00
0.000000e+00
0.000000e+00
0.000000e+00
0.000000e+00
0.000000e+00
0.000000e+00
0.000000e+00
0.000000e+00
0.000000e+00
0.000000e+00
1.250000e+01
1.250000e+01
1.250000e+01
1.250000e+01
1.250000e+01
1.250000e+01
1.250000e+01
1.250000e+01
1.250000e+01
1.250000e+01
1.250000e+01
1.250000e+01
1.250000e+01
1.250000e+01
1.250000e+01
1.250000e+01
1.250000e+01
2.500000e+01
2.500000e+01
2.500000e+01
2.500000e+01
2.500000e+01
2.500000e+01
2.500000e+01
2.500000e+01
2.500000e+01
2.500000e+01
2.500000e+01
2.500000e+01
2.500000e+01
2.500000e+01
2.500000e+01
2.500000e+01
2.500000e+01
3.750000e+01
3.750000e+01
3.750000e+01
3.750000e+01
3.750000e+01
3.750000e+01
3.750000e+01
3.750000e+01
3.750000e+01
3.750000e+01
3.750000e+01
3.750000e+01
3.750000e+01
3.750000e+01
3.750000e+01
3.750000e+01
3.750000e+01
5.000000e+01
5.000000e+01
5.000000e+01
5.000000e+01
5.000000e+01
5.000000e+01
5.000000e+01
5.000000e+01
5.000000e+01
5.000000e+01
5.000000e+01
5.000000e+01
5.000000e+01
5.000000e+01
5.000000e+01
5.000000e+01
5.000000e+01
6.250000e+01
6.250000e+01
6.250000e+01
6.250000e+01
6.250000e+01
6.250000e+01
6.250000e+01
6.250000e+01
6.250000e+01
6.250000e+01
6.250000e+01
6.250000e+01
6.250000e+01
6.250000e+01
6.250000e+01
6.250000e+01
6.250000e+01
7.500000e+01
7.500000e+01
7.500000e+01
7.500000e+01
7.500000e+01
7.500000e+01
7.500000e+01
7.500000e+01
7.500000e+01
7.500000e+01
7.500000e+01
7.500000e+01
7.500000e+01
7.500000e+01
7.500000e+01
7.500000e+01
7.500000e+01
8.750000e+01
8.750000e+01
8.750000e+01
8.750000e+01
8.750000e+01
8.750000e+01
8.750000e+01
8.750000e+01
8.750000e+01
8.750000e+01
8.750000e+01
8.750000e+01
8.750000e+01
8.750000e+01
8.750000e+01
8.750000e+01
8.750000e+01
1.000000e+02
1.000000e+02
1.000000e+02
1.000000e+02
1.000000e+02
1.000000e+02
1.000000e+02
1.000000e+02
1.000000e+02
1.000000e+02
1.000000e+02
1.000000e+02
1.000000e+02
1.000000e+02
1.000000e+02
1.000000e+02
1.000000e+02
0.000000e+00
-9.520958e-01
-1.640461e+00
-2.363216e+00
-3.046073e+00
-3.700590e+00
-4.383159e+00
-5.044395e+00
-5.699348e+00
-6.363895e+00
-7.023099e+00
-7.685769e+00
-8.398128e+00
-9.174007e+00
-9.993306e+00
-1.071523e+01
-1.116748e+01
0.000000e+00
-4.479457e-01
-9.240024e-01
-1.429405e+00
-1.945259e+00
-2.433179e+00
-2.943990e+00
-3.445873e+00
-3.939211e+00
-4.441709e+00
-4.938044e+00
-5.428737e+00
-5.931886e+00
-6.434266e+00
-6.822960e+00
-6.924234e+00
-7.097424e+00
0.000000e+00
-1.780887e-01
-4.073522e-01
-7.090186e-01
-1.049398e+00
-1.378212e+00
-1.728024e+00
-2.074566e+00
-2.417029e+00
-2.762338e+00
-3.096378e+00
-3.409930e+00
-3.687923e+00
-3.894512e+00
-3.967362e+00
-3.951500e+00
-4.102793e+00
0.000000e+00
-8.374754e-02
-1.768671e-01
-3.201756e-01
-4.686223e-01
-6.391659e-01
-8.126120e-01
-9.840465e-01
-1.155256e+00
-1.318759e+00
-1.468667e+00
-1.588898e+00
-1.655615e+00
-1.648379e+00
-1.580082e+00
-1.571486e+00
-1.698474e+00
0.000000e+00
-2.141634e-03
-4.455204e-03
-6.450613e-03
-7.870575e-03
-7.783889e-03
-4.806649e-03
2.525857e-03
1.675988e-02
4.121643e-02
7.970510e-02
1.409572e-01
2.324410e-01
3.503014e-01
4.581290e-01
4.789302e-01
3.759064e-01
0.000000e+00
8.007710e-02
1.696537e-01
3.090286e-01
4.546132e-01
6.248275e-01
8.023909e-01
9.857370e-01
1.181947e+00
1.387817e+00
1.607209e+00
1.833645e+00
2.050328e+00
2.238098e+00
2.364699e+00
2.391761e+00
2.328116e+00
0.000000e+00
1.765367e-01
4.044211e-01
7.040181e-01
1.042038e+00
1.370286e+00
1.720544e+00
2.072166e+00
2.428189e+00
2.794321e+00
3.162770e+00
3.529628e+00
3.859928e+00
4.117327e+00
4.280123e+00
4.334933e+00
4.317238e+00
0.000000e+00
4.477151e-01
9.244889e-01
1.429258e+00
1.943596e+00
2.431667e+00
2.938942e+00
3.435961e+00
3.925493e+00
4.412407e+00
4.889456e+00
5.362653e+00
5.792671e+00
6.119098e+00
6.322169e+00
6.410590e+00
6.426511e+00
0.000000e+00
9.526877e-01
1.643705e+00
2.368067e+00
3.051695e+00
3.709487e+00
4.389981e+00
5.042938e+00
5.687292e+00
6.316028e+00
6.923887e+00
7.520139e+00
8.044258e+00
8.412346e+00
8.601869e+00
8.652324e+00
8.652510e+00
0.000000e+00
-5.925451e-01
-1.286785e+00
-2.214010e+00
-3.310810e+00
-4.576456e+00
-6.023605e+00
-7.635666e+00
-9.419209e+00
-1.137683e+01
-1.350060e+01
-1.579642e+01
-1.828449e+01
-2.098043e+01
-2.391117e+01
-2.727164e+01
-3.226143e+01
0.000000e+00
-3.908628e-01
-1.118778e+00
-2.030988e+00
-3.138694e+00
-4.401312e+00
-5.846917e+00
-7.463568e+00
-9.246118e+00
-1.120432e+01
-1.333106e+01
-1.562485e+01
-1.810439e+01
-2.080548e+01
-2.378410e+01
-2.717888e+01
-3.124622e+01
0.000000e+00
-3.546276e-01
-1.016255e+00
-1.921855e+00
-3.017466e+00
-4.277674e+00
-5.722800e+00
-7.339485e+00
-9.124539e+00
-1.108679e+01
-1.322203e+01
-1.552785e+01
-1.802171e+01
-2.074994e+01
-2.377669e+01
-2.701492e+01
-3.003365e+01
0.000000e+00
-3.945551e-01
-1.002292e+00
-1.883915e+00
-2.951223e+00
-4.209958e+00
-5.653141e+00
-7.269552e+00
-9.061498e+00
-1.103140e+01
-1.318216e+01
-1.551316e+01
-1.802891e+01
-2.075592e+01
-2.371987e+01
-2.669706e+01
-2.927578e+01
0.000000e+00
-4.042100e-01
-1.014245e+00
-1.870927e+00
-2.937079e+00
-4.192445e+00
-5.637316e+00
-7.258442e+00
-9.057435e+00
-1.103668e+01
-1.320043e+01
-1.555121e+01
-1.807283e+01
-2.075963e+01
-2.358036e+01
-2.633863e+01
-2.867303e+01
0.000000e+00
-3.939034e-01
-1.002920e+00
-1.886875e+00
-2.957577e+00
-4.222772e+00
-5.674510e+00
-7.301218e+00
-9.109112e+00
-1.109343e+01
-1.325914e+01
-1.561075e+01
-1.812100e+01
-2.075300e+01
-2.344257e+01
-2.602789e+01
-2.825067e+01
0.000000e+00
-3.538826e-01
-1.017446e+00
-1.926787e+00
-3.028044e+00
-4.299056e+00
-5.758682e+00
-7.393609e+00
-9.204539e+00
-1.119114e+01
-1.334914e+01
-1.568746e+01
-1.817847e+01
-2.076097e+01
-2.335450e+01
-2.582983e+01
-2.804301e+01
0.000000e+00
-3.902687e-01
-1.120001e+00
-2.036187e+00
-3.150502e+00
-4.424732e+00
-5.887064e+00
-7.525010e+00
-9.335286e+00
-1.132092e+01
-1.347219e+01
-1.579564e+01
-1.826437e+01
-2.080548e+01
-2.333252e+01
-2.574428e+01
-2.799020e+01
0.000000e+00
-5.924167e-01
-1.288420e+00
-2.219267e+00
-3.323152e+00
-4.600245e+00
-6.063128e+00
-7.696453e+00
-9.505198e+00
-1.148579e+01
-1.363296e+01
-1.594616e+01
-1.838537e+01
-2.088062e+01
-2.335539e+01
-2.572881e+01
-2.798992e+01


0.000000e+00
1.467555e-05
2.475625e-05
3.681439e-05
5.197220e-05
6.528868e-05
7.929798e-05
9.377763e-05
1.074577e-04
1.218129e-04
1.359448e-04
1.502262e-04
1.653827e-04
1.758135e-04
1.812643e-04
1.853612e-04
1.908887e-04
0.000000e+00
1.082260e-05
1.968628e-05
2.845626e-05
4.086834e-05
5.138738e-05
6.140142e-05
7.240261e-05
8.265626e-05
9.285339e-05
1.026451e-04
1.123534e-04
1.217628e-04
1.262645e-04
1.258843e-04
1.291121e-04
1.344512e-04
0.000000e+00
8.894221e-06
1.507643e-05
2.087488e-05
2.971684e-05
3.666827e-05
4.305422e-05
5.026673e-05
5.657641e-05
6.250808e-05
6.775611e-05
7.225998e-05
7.563909e-05
7.582343e-05
7.509018e-05
7.763360e-05
8.221280e-05
0.000000e+00
4.784949e-06
7.147472e-06
1.077898e-05
1.482570e-05
1.770669e-05
2.120292e-05
2.432959e-05
2.681211e-05
2.910358e-05
3.032698e-05
3.022054e-05
2.914998e-05
2.811681e-05
2.886484e-05
3.224737e-05
3.738703e-05
0.000000e+00
-5.988131e-08
-1.471636e-07
-2.610444e-07
-4.074728e-07
-5.872208e-07
-8.230841e-07
-1.119990e-06
-1.584505e-06
-2.403920e-06
-3.850287e-06
-6.006388e-06
-8.586878e-06
-1.029988e-05
-9.612363e-06
-7.114503e-06
-3.703753e-06
0.000000e+00
-4.879915e-06
-7.380784e-06
-1.120312e-05
-1.549439e-05
-1.871746e-05
-2.250943e-05
-2.607828e-05
-2.910990e-05
-3.185586e-05
-3.434519e-05
-3.681772e-05
-3.944228e-05
-4.139586e-05
-4.274916e-05
-4.323647e-05
-4.238374e-05
0.000000e+00
-8.917737e-06
-1.514240e-05
-2.103365e-05
-3.008440e-05
-3.720687e-05
-4.376308e-05
-5.130340e-05
-5.741577e-05
-6.276542e-05
-6.783026e-05
-7.132273e-05
-7.372197e-05
-7.601453e-05
-7.803822e-05
-7.969141e-05
-8.024250e-05
0.000000e+00
-1.080626e-05
-1.965234e-05
-2.839791e-05
-4.088246e-05
-5.140278e-05
-6.137567e-05
-7.265385e-05
-8.265844e-05
-9.245055e-05
-1.026547e-04
-1.106146e-04
-1.150147e-04
-1.179055e-04
-1.196148e-04
-1.203071e-04
-1.205245e-04
0.000000e+00
-1.469325e-05
-2.472964e-05
-3.666397e-05
-5.169838e-05
-6.485889e-05
-7.852102e-05
-9.290539e-05
-1.064630e-04
-1.206305e-04
-1.364039e-04
-1.498942e-04
-1.586814e-04
-1.625738e-04
-1.633672e-04
-1.629549e-04
-1.626913e-04
0.000000e+00
1.221718e-05
1.981434e-05
3.164949e-05
4.687114e-05
6.344997e-05
8.466040e-05
1.098945e-04
1.383639e-04
1.712448e-04
2.081474e-04
2.498249e-04
2.961181e-04
3.449634e-04
4.015364e-04
4.660654e-04
5.319201e-04
0.000000e+00
7.212012e-06
1.567683e-05
2.566009e-05
4.048721e-05
5.766686e-05
7.850537e-05
1.037766e-04
1.324276e-04
1.652630e-04
2.023382e-04
2.438895e-04
2.911070e-04
3.425154e-04
3.978487e-04
4.595997e-04
5.228011e-04
0.000000e+00
3.791003e-06
1.165232e-05
2.096711e-05
3.511132e-05
5.290954e-05
7.394465e-05
9.907230e-05
1.281211e-04
1.612336e-04
1.983713e-04
2.402385e-04
2.882739e-04
3.417243e-04
3.942720e-04
4.520926e-04
5.127845e-04
0.000000e+00
2.522164e-06
9.520571e-06
1.896661e-05
3.294055e-05
5.088280e-05
7.212186e-05
9.741084e-05
1.266490e-04
1.599110e-04
1.972989e-04
2.389097e-04
2.875825e-04
3.409962e-04
3.917485e-04
4.440103e-04
4.993086e-04
0.000000e+00
2.112247e-06
8.922628e-06
1.844532e-05
3.241450e-05
5.029039e-05
7.157496e-05
9.696452e-05
1.263059e-04
1.596140e-04
1.970400e-04
2.389211e-04
2.876597e-04
3.415614e-04
3.909695e-04
4.378085e-04
4.860733e-04
0.000000e+00
2.589913e-06
9.620135e-06
1.906414e-05
3.301595e-05
5.091209e-05
7.200360e-05
9.724477e-05
1.264966e-04
1.596035e-04
1.974581e-04
2.403755e-04
2.894944e-04
3.421280e-04
3.916411e-04
4.360472e-04
4.781654e-04
0.000000e+00
3.888546e-06
1.181154e-05
2.113076e-05
3.526097e-05
5.293880e-05
7.370909e-05
9.874264e-05
1.275413e-04
1.605204e-04
1.990570e-04
2.433082e-04
2.922727e-04
3.430383e-04
3.912130e-04
4.351322e-04
4.760196e-04
0.000000e+00
7.305430e-06
1.585183e-05
2.588003e-05
4.068575e-05
5.772250e-05
7.833335e-05
1.033436e-04
1.315542e-04
1.643578e-04
2.030936e-04
2.470679e-04
2.946357e-04
3.437348e-04
3.906740e-04
4.345807e-04
4.763572e-04
0.000000e+00
1.231023e-05
1.998123e-05
3.188208e-05
4.709899e-05
6.350695e-05
8.455109e-05
1.095356e-04
1.373986e-04
1.704775e-04
2.091760e-04
2.512090e-04
2.967656e-04
3.441742e-04
3.905471e-04
4.343412e-04
4.766266e-04


3.892844e+00
3.862529e+00
3.975095e+00
3.628674e+00
3.417166e+00
3.602156e+00
3.738821e+00
3.989705e+00
4.385535e+00
4.828837e+00
5.515075e+00
6.641402e+00
7.769771e+00
8.147761e+00
7.233491e+00
6.088149e+00
6.088807e+00
6.045072e+00
6.007560e+00
5.799180e+00
5.607097e+00
5.721990e+00
5.802925e+00
5.934565e+00
6.181527e+00
6.434800e+00
6.821868e+00
7.445930e+00
8.071324e+00
8.002463e+00
6.660015e+00
5.061357e+00
8.164123e+00
8.114153e+00
8.097246e+00
7.947842e+00
7.885842e+00
7.919555e+00
7.922091e+00
7.951022e+00
8.009543e+00
8.054731e+00
8.073185e+00
8.120295e+00
8.155279e+00
7.780825e+00
6.437675e+00
5.045347e+00
8.879806e+00
8.861575e+00
8.848065e+00
8.795829e+00
8.776939e+00
8.772270e+00
8.750293e+00
8.723136e+00
8.675490e+00
8.563737e+00
8.302917e+00
7.878415e+00
7.581096e+00
7.385445e+00
6.902055e+00
6.363573e+00
8.878428e+00
8.858862e+00
8.843189e+00
8.786656e+00
8.763748e+00
8.752825e+00
8.719992e+00
8.675391e+00
8.577593e+00
8.361625e+00
7.938262e+00
7.333197e+00
7.010190e+00
7.231053e+00
7.579127e+00
7.697394e+00
8.156706e+00
8.103305e+00
8.074326e+00
7.906706e+00
7.825737e+00
7.832327e+00
7.802279e+00
7.774625e+00
7.679705e+00
7.542955e+00
7.406355e+00
7.207866e+00
7.258159e+00
7.721862e+00
8.257530e+00
8.526722e+00
6.074308e+00
6.027766e+00
5.975712e+00
5.742061e+00
5.524080e+00
5.600861e+00
5.654947e+00
5.728366e+00
5.840202e+00
6.136651e+00
6.764464e+00
7.428812e+00
7.929723e+00
8.398032e+00
8.737567e+00
8.888533e+00
3.874580e+00
3.850274e+00
3.956001e+00
3.593698e+00
3.368962e+00
3.529734e+00
3.669175e+00
3.929735e+00
4.298990e+00
5.058317e+00
6.368913e+00
7.594356e+00
8.333823e+00
8.729923e+00
8.927625e+00
9.006883e+00


-7.188440e-01
-2.062478e-01
-3.198525e-01
-2.608261e-01
-1.488397e-01
-2.512050e-01
-1.925187e-01
-1.655660e-01
-2.055301e-01
-1.840282e-01
-1.803366e-01
-3.042139e-01
-4.242182e-01
-2.462674e-01
4.012019e-01
-8.181283e-01
5.883797e-01
4.413220e-01
3.108412e-01
2.362254e-01
2.924853e-01
2.096318e-01
2.136137e-01
2.174001e-01
1.788249e-01
1.938641e-01
2.351828e-01
2.871013e-01
4.166227e-01
6.791815e-01
7.209152e-01
-1.094320e+00
7.747158e-01
5.672062e-01
3.085894e-01
2.478099e-01
2.297322e-01
1.765616e-01
1.870320e-01
1.940889e-01
1.983379e-01
2.327406e-01
2.982199e-01
3.846512e-01
4.311518e-01
2.856753e-01
7.109144e-02
-2.469604e-01
7.948673e-01
6.327338e-01
3.763293e-01
2.672307e-01
1.939685e-01
1.640544e-01
1.723794e-01
1.864712e-01
2.075153e-01
2.245168e-01
2.325354e-01
2.152212e-01
8.428756e-02
-2.248037e-01
-2.569230e-01
-2.641340e-02
7.966429e-01
6.347606e-01
3.793137e-01
2.683662e-01
1.892244e-01
1.500929e-01
1.450877e-01
1.357363e-01
1.342500e-01
1.182741e-01
7.424616e-02
2.057369e-02
-8.354542e-02
-2.051946e-01
-6.967450e-02
3.592414e-01
7.787560e-01
5.721973e-01
3.167944e-01
2.546674e-01
2.243106e-01
1.550102e-01
1.363094e-01
8.976532e-02
3.815489e-02
-2.045509e-02
-1.039939e-01
-1.199298e-01
-6.471557e-02
6.589974e-02
3.650915e-01
7.634484e-01
5.912019e-01
4.425191e-01
3.145656e-01
2.404232e-01
2.874086e-01
2.010337e-01
1.865048e-01
1.510263e-01
8.075024e-02
1.791062e-02
-7.792839e-02
-4.574396e-02
1.648019e-01
4.410789e-01
7.427165e-01
9.550580e-01
-7.191856e-01
-2.130547e-01
-3.219860e-01
-2.598265e-01
-1.562945e-01
-2.417214e-01
-1.706910e-01
-1.447109e-01
-1.192705e-01
-7.559732e-02
-6.893656e-02
1.159538e-01
4.895395e-01
7.972859e-01
9.571510e-01
9.989520e-01
1 2 19 18
2 3 20 19
3 4 21 20
4 5 22 21
5 6 23 22
6 7 24 23
7 8 25 24
8 9 26 25
9 10 27 26
10 11 28 27
11 12 29 28
12 13 30 29
13 14 31 30
14 15 32 31
15 16 33 32
16 17 34 33
18 19 36 35
19 20 37 36
20 21 38 37
21 22 39 38
22 23 40 39
23 24 41 40
24 25 42 41
25 26 43 42
26 27 44 43
27 28 45 44
28 29 46 45
29 30 47 46
30 31 48 47
31 32 49 48
32 33 50 49
33 34 51 50
35 36 53 52
36 37 54 53
37 38 55 54
38 39 56 55
39 40 57 56
40 41 58 57
41 42 59 58
42 43 60 59
43 44 61 60
44 45 62 61
45 46 63 62
46 47 64 63
47 48 65 64
48 49 66 65
49 50 67 66
50 51 68 67
52 53 70 69
53 54 71 70
54 55 72 71
55 56 73 72
56 57 74 73
57 58 75 74
58 59 76 75
59 60 77 76
60 61 78 77
61 62 79 78
62 63 80 79
63 64 81 80
64 65 82 81
65 66 83 82
66 67 84 83
67 68 85 84
69 70 87 86
70 71 88 87
71 72 89 88
72 73 90 89
73 74 91 90
74 75 92 91
75 76 93 92
76 77 94 93
77 78 95 94
78 79 96 95
79 80 97 96
80 81 98 97
81 82 99 98
82 83 100 99
83 84 101 100
84 85 102 101
86 87 104 103
87 88 105 104
88 89 106 105
89 90 107 106
90 91 108 107
91 92 109 108
92 93 110 109
93 94 111 110
94 95 112 111
95 96 113 112
96 97 114 113
97 98 115 114
98 99 116 115
99 100 117 116
100 101 118 117
101 102 119 118
103 104 121 120
104 105 122 121
105 106 123 122
106 107 124 123
107 108 125 124
108 109 126 125
109 110 127 126
110 111 128 127
111 112 129 128
112 113 130 129
113 114 131 130
114 115 132 131
115 116 133 132
116 117 134 133
117 118 135 134
118 119 136 135
120 121 138 137
121 122 139 138
122 123 140 139
123 124 141 140
124 125 142 141
125 126 143 142
126 127 144 143
127 128 145 144
128 129 146 145
129 130 147 146
130 131 148 147
131 132 149 148
132 133 150 149
133 134 151 150
134 135 152 151
135 136 153 152
