TITLE = "Solution"
VARIABLES = x, y, u, v, psiu, psiv, t, stress
ZONE T="structure" N=153 E=128 F=FEBLOCK ET=QUADRILATERAL VARLOCATION=([7,8]=cellcentered)
0.000000e+00
1.250000e+01
2.500000e+01
3.750000e+01
5.000000e+01
6.250000e+01
7.500000e+01
8.750000e+01
1.000000e+02
1.125000e+02
1.250000e+02
1.375000e+02
1.500000e+02
1.625000e+02
1.750000e+02
1.875000e+02
2.000000e+02
0.000000e+00
1.250000e+01
2.500000e+01
3.750000e+01
5.000000e+01
6.250000e+01
7.500000e+01
8.750000e+01
1.000000e+02
1.125000e+02
1.250000e+02
1.375000e+02
1.500000e+02
1.625000e+02
1.750000e+02
1.875000e+02
2.000000e+02
0.000000e+00
1.250000e+01
2.500000e+01
3.750000e+01
5.000000e+01
6.250000e+01
7.500000e+01
8.750000e+01
1.000000e+02
1.125000e+02
1.250000e+02
1.375000e+02
1.500000e+02
1.625000e+02
1.750000e+02
1.875000e+02
2.000000e+02
0.000000e+00
1.250000e+01
2.500000e+01
3.750000e+01
5.000000e+01
6.250000e+01
7.500000e+01
8.750000e+01
1.000000e+02
1.125000e+02
1.250000e+02
1.375000e+02
1.500000e+02
1.625000e+02
1.750000e+02
1.875000e+02
2.000000e+02
0.000000e+00
1.250000e+01
2.500000e+01
3.750000e+01
5.000000e+01
6.250000e+01
7.500000e+01
8.750000e+01
1.000000e+02
1.125000e+02
1.250000e+02
1.375000e+02
1.500000e+02
1.625000e+02
1.750000e+02
1.875000e+02
2.000000e+02
0.000000e+00
1.250000e+01
2.500000e+01
3.750000e+01
5.000000e+01
6.250000e+01
7.500000e+01
8.750000e+01
1.000000e+02
1.125000e+02
1.250000e+02
1.375000e+02
1.500000e+02
1.625000e+02
1.750000e+02
1.875000e+02
2.000000e+02
0.000000e+00
1.250000e+01
2.500000e+01
3.750000e+01
5.000000e+01
6.250000e+01
7.500000e+01
8.750000e+01
1.000000e+02
1.125000e+02
1.250000e+02
1.375000e+02
1.500000e+02
1.625000e+02
1.750000e+02
1.875000e+02
2.000000e+02
0.000000e+00
1.250000e+01
2.500000e+01
3.750000e+01
5.000000e+01
6.250000e+01
7.500000e+01
8.750000e+01
1.000000e+02
1.125000e+02
1.250000e+02
1.375000e+02
1.500000e+02
1.625000e+02
1.750000e+02
1.875000e+02
2.000000e+02
0.000000e+00
1.250000e+01
2.500000e+01
3.750000e+01
5.000000e+01
6.250000e+01
7.500000e+01
8.750000e+01
1.000000e+02
1.125000e+02
1.250000e+02
1.375000e+02
1.500000e+02
1.625000e+02
1.750000e+02
1.875000e+02
2.000000e+02
0.000000e+00
0.000000e+00
0.000000e+00
0.000000e+00
0.000000e+00
0.000000e+00
0.000000e+00
0.000000e+00
0.000000e+00
0.000000e+00
0.000000e+00
0.000000e+00
0.000000e+00
0.000000e+00
0.000000e+00
0.000000e+00
0.000000e+00
1.250000e+01
1.250000e+01
1.250000e+01
1.250000e+01
1.250000e+01
1.250000e+01
1.250000e+01
1.250000e+01
1.250000e+01
1.250000e+01
1.250000e+01
1.250000e+01
1.250000e+01
1.250000e+01
1.250000e+01
1.250000e+01
1.250000e+01
2.500000e+01
2.500000e+01
2.500000e+01
2.500000e+01
2.500000e+01
2.500000e+01
2.500000e+01
2.500000e+01
2.500000e+01
2.500000e+01
2.500000e+01
2.500000e+01
2.500000e+01
2.500000e+01
2.500000e+01
2.500000e+01
2.500000e+01
3.750000e+01
3.750000e+01
3.750000e+01
3.750000e+01
3.750000e+01
3.750000e+01
3.750000e+01
3.750000e+01
3.750000e+01
3.750000e+01
3.750000e+01
3.750000e+01
3.750000e+01
3.750000e+01
3.750000e+01
3.750000e+01
3.750000e+01
5.000000e+01
5.000000e+01
5.000000e+01
5.000000e+01
5.000000e+01
5.000000e+01
5.000000e+01
5.000000e+01
5.000000e+01
5.000000e+01
5.000000e+01
5.000000e+01
5.000000e+01
5.000000e+01
5.000000e+01
5.000000e+01
5.000000e+01
6.250000e+01
6.250000e+01
6.250000e+01
6.250000e+01
6.250000e+01
6.250000e+01
6.250000e+01
6.250000e+01
6.250000e+01
6.250000e+01
6.250000e+01
6.250000e+01
6.250000e+01
6.250000e+01
6.250000e+01
6.250000e+01
6.250000e+01
7.500000e+01
7.500000e+01
7.500000e+01
7.500000e+01
7.500000e+01
7.500000e+01
7.500000e+01
7.500000e+01
7.500000e+01
7.500000e+01
7.500000e+01
7.500000e+01
7.500000e+01
7.500000e+01
7.500000e+01
7.500000e+01
7.500000e+01
8.750000e+01
8.750000e+01
8.750000e+01
8.750000e+01
8.750000e+01
8.750000e+01
8.750000e+01
8.750000e+01
8.750000e+01
8.750000e+01
8.750000e+01
8.750000e+01
8.750000e+01
8.750000e+01
8.750000e+01
8.750000e+01
8.750000e+01
1.000000e+02
1.000000e+02
1.000000e+02
1.000000e+02
1.000000e+02
1.000000e+02
1.000000e+02
1.000000e+02
1.000000e+02
1.000000e+02
1.000000e+02
1.000000e+02
1.000000e+02
1.000000e+02
1.000000e+02
1.000000e+02
1.000000e+02
0.000000e+00
-9.879663e-01
-1.679547e+00
-2.428028e+00
-3.108554e+00
-3.755904e+00
-4.451590e+00
-5.088055e+00
-5.761446e+00
-6.401908e+00
-7.058530e+00
-7.718382e+00
-8.377828e+00
-9.154673e+00
-1.007326e+01
-1.082551e+01
-1.127620e+01
0.000000e+00
-4.432812e-01
-9.101219e-01
-1.419460e+00
-1.929927e+00
-2.415041e+00
-2.926902e+00
-3.424871e+00
-3.922074e+00
-4.422485e+00
-4.918285e+00
-5.417822e+00
-5.903569e+00
-6.426428e+00
-6.892360e+00
-7.015479e+00
-7.194001e+00
0.000000e+00
-1.481185e-01
-3.539633e-01
-6.438659e-01
-9.816882e-01
-1.308073e+00
-1.661952e+00
-2.015710e+00
-2.361788e+00
-2.720561e+00
-3.060547e+00
-3.393040e+00
-3.686639e+00
-3.924699e+00
-4.030021e+00
-4.026595e+00
-4.175669e+00
0.000000e+00
-7.860716e-02
-1.624849e-01
-3.083273e-01
-4.523921e-01
-6.274420e-01
-8.082773e-01
-9.772856e-01
-1.160949e+00
-1.323512e+00
-1.484998e+00
-1.622303e+00
-1.713868e+00
-1.720739e+00
-1.648780e+00
-1.630535e+00
-1.749483e+00
0.000000e+00
-2.748490e-03
-6.018274e-03
-9.388135e-03
-1.226291e-02
-1.371410e-02
-1.269081e-02
-7.767119e-03
1.712235e-03
1.871674e-02
4.330671e-02
8.724343e-02
1.682282e-01
2.818049e-01
3.994516e-01
4.376834e-01
3.392376e-01
0.000000e+00
7.391773e-02
1.525932e-01
2.920463e-01
4.307244e-01
6.019220e-01
7.844055e-01
9.628284e-01
1.166794e+00
1.359770e+00
1.572236e+00
1.791736e+00
2.014745e+00
2.216918e+00
2.351079e+00
2.383656e+00
2.318554e+00
0.000000e+00
1.464716e-01
3.495552e-01
6.357712e-01
9.690843e-01
1.291135e+00
1.643613e+00
2.003909e+00
2.372031e+00
2.771574e+00
3.148457e+00
3.515189e+00
3.849125e+00
4.120838e+00
4.294416e+00
4.349359e+00
4.327368e+00
0.000000e+00
4.446227e-01
9.106193e-01
1.420126e+00
1.930162e+00
2.412397e+00
2.921591e+00
3.415210e+00
3.904852e+00
4.397208e+00
4.875830e+00
5.350815e+00
5.782476e+00
6.128094e+00
6.343405e+00
6.438195e+00
6.455534e+00
0.000000e+00
9.905324e-01
1.683077e+00
2.435937e+00
3.122091e+00
3.771419e+00
4.469982e+00
5.098005e+00
5.740154e+00
6.329249e+00
6.906552e+00
7.505667e+00
8.039144e+00
8.445658e+00
8.647781e+00
8.701478e+00
8.702157e+00
0.000000e+00
-6.156393e-01
-1.356446e+00
-2.351844e+00
-3.521703e+00
-4.863414e+00
-6.389319e+00
-8.073342e+00
-9.931028e+00
-1.195101e+01
-1.413411e+01
-1.647912e+01
-1.899129e+01
-2.172117e+01
-2.468154e+01
-2.804223e+01
-3.305843e+01
0.000000e+00
-4.117149e-01
-1.187406e+00
-2.166841e+00
-3.351586e+00
-4.688093e+00
-6.213046e+00
-7.903327e+00
-9.756015e+00
-1.178272e+01
-1.396198e+01
-1.631232e+01
-1.881651e+01
-2.152974e+01
-2.454316e+01
-2.795758e+01
-3.201062e+01
0.000000e+00
-3.850721e-01
-1.086293e+00
-2.063179e+00
-3.230954e+00
-4.563533e+00
-6.091119e+00
-7.775225e+00
-9.636697e+00
-1.166166e+01
-1.385217e+01
-1.621281e+01
-1.872851e+01
-2.146772e+01
-2.453417e+01
-2.780433e+01
-3.083496e+01
0.000000e+00
-4.430082e-01
-1.082071e+00
-2.036470e+00
-3.166421e+00
-4.495085e+00
-6.025420e+00
-7.701344e+00
-9.579164e+00
-1.160503e+01
-1.381547e+01
-1.619535e+01
-1.873787e+01
-2.147683e+01
-2.446654e+01
-2.749356e+01
-3.011175e+01
0.000000e+00
-4.511025e-01
-1.103227e+00
-2.020216e+00
-3.154241e+00
-4.480589e+00
-6.005435e+00
-7.698261e+00
-9.572835e+00
-1.161886e+01
-1.383942e+01
-1.623025e+01
-1.877967e+01
-2.147815e+01
-2.431557e+01
-2.712822e+01
-2.950895e+01
0.000000e+00
-4.419480e-01
-1.081290e+00
-2.037938e+00
-3.173786e+00
-4.509063e+00
-6.051870e+00
-7.740841e+00
-9.635933e+00
-1.168505e+01
-1.390666e+01
-1.628274e+01
-1.881313e+01
-2.146794e+01
-2.417884e+01
-2.680978e+01
-2.907470e+01
0.000000e+00
-3.835831e-01
-1.085234e+00
-2.065817e+00
-3.242667e+00
-4.588989e+00
-6.138205e+00
-7.850755e+00
-9.742822e+00
-1.179811e+01
-1.399407e+01
-1.634993e+01
-1.885449e+01
-2.146870e+01
-2.409482e+01
-2.660358e+01
-2.884540e+01
0.000000e+00
-4.103018e-01
-1.186279e+00
-2.169472e+00
-3.363815e+00
-4.716263e+00
-6.266726e+00
-7.991864e+00
-9.880784e+00
-1.193417e+01
-1.411119e+01
-1.644935e+01
-1.893215e+01
-2.151050e+01
-2.407409e+01
-2.651550e+01
-2.878547e+01
0.000000e+00
-6.145194e-01
-1.355710e+00
-2.355378e+00
-3.534483e+00
-4.892143e+00
-6.443716e+00
-8.160251e+00
-1.005148e+01
-1.209137e+01
-1.426709e+01
-1.659826e+01
-1.905571e+01
-2.159160e+01
-2.409899e+01
-2.650032e+01
-2.878432e+01


0.000000e+00
1.532312e-05
2.499500e-05
3.708759e-05
5.280093e-05
6.608082e-05
8.120038e-05
9.588807e-05
1.100924e-04
1.250780e-04
1.403979e-04
1.547654e-04
1.720503e-04
1.870114e-04
1.956415e-04
2.009442e-04
2.077847e-04
0.000000e+00
1.146195e-05
1.981429e-05
2.847335e-05
4.131910e-05
5.196396e-05
6.237615e-05
7.377270e-05
8.384092e-05
9.495315e-05
1.053995e-04
1.150925e-04
1.264013e-04
1.350511e-04
1.355734e-04
1.392244e-04
1.450611e-04
0.000000e+00
9.662430e-06
1.535017e-05
2.086525e-05
3.027234e-05
3.720494e-05
4.355109e-05
5.117034e-05
5.704177e-05
6.370868e-05
6.947163e-05
7.399677e-05
7.850893e-05
8.005396e-05
7.891266e-05
8.130073e-05
8.559047e-05
0.000000e+00
5.298199e-06
7.272682e-06
1.056364e-05
1.492404e-05
1.691750e-05
2.039022e-05
2.317509e-05
2.544948e-05
2.790233e-05
2.970407e-05
2.955044e-05
2.830404e-05
2.648417e-05
2.641020e-05
2.953739e-05
3.518134e-05
0.000000e+00
-1.026159e-07
-2.632241e-07
-4.950158e-07
-8.697101e-07
-1.372744e-06
-2.059694e-06
-2.992723e-06
-3.816515e-06
-5.273091e-06
-7.753008e-06
-1.162971e-05
-1.451770e-05
-1.577109e-05
-1.537108e-05
-1.311340e-05
-9.183547e-06
0.000000e+00
-5.438870e-06
-7.618352e-06
-1.131387e-05
-1.610996e-05
-1.870362e-05
-2.332942e-05
-2.680088e-05
-3.078501e-05
-3.360455e-05
-3.736554e-05
-4.225937e-05
-4.673057e-05
-4.805572e-05
-4.857995e-05
-4.909239e-05
-4.750804e-05
0.000000e+00
-9.595931e-06
-1.535114e-05
-2.105045e-05
-3.056777e-05
-3.787781e-05
-4.437672e-05
-5.244736e-05
-5.842463e-05
-6.403691e-05
-6.868765e-05
-7.337221e-05
-7.747251e-05
-8.059126e-05
-8.251892e-05
-8.440008e-05
-8.513761e-05
0.000000e+00
-1.137015e-05
-1.970993e-05
-2.839240e-05
-4.115428e-05
-5.198169e-05
-6.227504e-05
-7.381929e-05
-8.402917e-05
-9.472472e-05
-1.049698e-04
-1.126106e-04
-1.176111e-04
-1.224968e-04
-1.258676e-04
-1.270631e-04
-1.271651e-04
0.000000e+00
-1.535388e-05
-2.496307e-05
-3.695759e-05
-5.245817e-05
-6.549897e-05
-8.038416e-05
-9.431466e-05
-1.087970e-04
-1.238403e-04
-1.415047e-04
-1.563570e-04
-1.653857e-04
-1.703457e-04
-1.725189e-04
-1.726812e-04
-1.724842e-04
0.000000e+00
1.262270e-05
1.997084e-05
3.219536e-05
4.793635e-05
6.483357e-05
8.719129e-05
1.134001e-04
1.433999e-04
1.784752e-04
2.175023e-04
2.614685e-04
3.122267e-04
3.660243e-04
4.272678e-04
4.978003e-04
5.705612e-04
0.000000e+00
7.675305e-06
1.607296e-05
2.610569e-05
4.149603e-05
5.897518e-05
8.076289e-05
1.073451e-04
1.372699e-04
1.721540e-04
2.114478e-04
2.552616e-04
3.056386e-04
3.616543e-04
4.224161e-04
4.904701e-04
5.601626e-04
0.000000e+00
4.267438e-06
1.216856e-05
2.127871e-05
3.575716e-05
5.390581e-05
7.577502e-05
1.025034e-04
1.326984e-04
1.676206e-04
2.070293e-04
2.512224e-04
3.020307e-04
3.596697e-04
4.185838e-04
4.830273e-04
5.503254e-04
0.000000e+00
3.006796e-06
1.018816e-05
1.928084e-05
3.347923e-05
5.152419e-05
7.370118e-05
1.008907e-04
1.315162e-04
1.658427e-04
2.052911e-04
2.503457e-04
3.017505e-04
3.584450e-04
4.160085e-04
4.752423e-04
5.360821e-04
0.000000e+00
2.550359e-06
9.670712e-06
1.894006e-05
3.296013e-05
5.084063e-05
7.311212e-05
1.006196e-04
1.314694e-04
1.652661e-04
2.040948e-04
2.510165e-04
3.024900e-04
3.585748e-04
4.148752e-04
4.688869e-04
5.202036e-04
0.000000e+00
3.121355e-06
1.033436e-05
1.952386e-05
3.366901e-05
5.153264e-05
7.381746e-05
1.008569e-04
1.316756e-04
1.651115e-04
2.046452e-04
2.530594e-04
3.050167e-04
3.587524e-04
4.147279e-04
4.665641e-04
5.095833e-04
0.000000e+00
4.401322e-06
1.239516e-05
2.164664e-05
3.598831e-05
5.405441e-05
7.568514e-05
1.021851e-04
1.320626e-04
1.662280e-04
2.069369e-04
2.563179e-04
3.084771e-04
3.605805e-04
4.137161e-04
4.639615e-04
5.063887e-04
0.000000e+00
7.786884e-06
1.633773e-05
2.649009e-05
4.184674e-05
5.919809e-05
8.077280e-05
1.068959e-04
1.361060e-04
1.704501e-04
2.113515e-04
2.596684e-04
3.114219e-04
3.626501e-04
4.136934e-04
4.620507e-04
5.069000e-04
0.000000e+00
1.272067e-05
2.023929e-05
3.257212e-05
4.830936e-05
6.510598e-05
8.724247e-05
1.129687e-04
1.423467e-04
1.769059e-04
2.179847e-04
2.636153e-04
3.134698e-04
3.638984e-04
4.139235e-04
4.615758e-04
5.071782e-04


5.322563e+00
5.804706e+00
6.478898e+00
5.544555e+00
4.884424e+00
5.099234e+00
5.304916e+00
5.648879e+00
5.591174e+00
5.771121e+00
6.098848e+00
6.998456e+00
8.671369e+00
9.617066e+00
8.920478e+00
7.765137e+00
7.828937e+00
8.179169e+00
8.365836e+00
8.072684e+00
7.659219e+00
7.757752e+00
7.949050e+00
7.973041e+00
8.058550e+00
8.056029e+00
8.199975e+00
8.626207e+00
9.330860e+00
9.618463e+00
8.183841e+00
6.279752e+00
9.687207e+00
9.678123e+00
9.825914e+00
9.659376e+00
9.647789e+00
9.688240e+00
9.642334e+00
9.715424e+00
9.656851e+00
9.700141e+00
9.694476e+00
9.688089e+00
9.705836e+00
9.212874e+00
7.756184e+00
5.971518e+00
9.915372e+00
9.914079e+00
9.913730e+00
9.906598e+00
9.902806e+00
9.900148e+00
9.895497e+00
9.892816e+00
9.885880e+00
9.865490e+00
9.798785e+00
9.286918e+00
8.657586e+00
8.201724e+00
7.732221e+00
7.531005e+00
9.915131e+00
9.913471e+00
9.912683e+00
9.904174e+00
9.898321e+00
9.893314e+00
9.883435e+00
9.876923e+00
9.853455e+00
9.721936e+00
9.136527e+00
8.277825e+00
7.430772e+00
7.491339e+00
8.341596e+00
8.826209e+00
9.687892e+00
9.675395e+00
9.819260e+00
9.644165e+00
9.619189e+00
9.642296e+00
9.568619e+00
9.596577e+00
9.251806e+00
8.629218e+00
8.074444e+00
7.586597e+00
7.761721e+00
8.399343e+00
9.195121e+00
9.754366e+00
7.839595e+00
8.180486e+00
8.355520e+00
8.045877e+00
7.622474e+00
7.696203e+00
7.809743e+00
7.692957e+00
7.422379e+00
7.031510e+00
7.236954e+00
8.181983e+00
8.949296e+00
9.561055e+00
9.844390e+00
9.897410e+00
5.352788e+00
5.814203e+00
6.473889e+00
5.528850e+00
4.871337e+00
5.077051e+00
5.186612e+00
5.457911e+00
5.404902e+00
5.933187e+00
7.474159e+00
8.855472e+00
9.743559e+00
9.871526e+00
9.907493e+00
9.920774e+00


-7.931928e-01
-1.966354e-01
-3.824010e-01
-2.454853e-01
-1.294149e-01
-2.786649e-01
-1.371200e-01
-2.076461e-01
-1.543636e-01
-1.773548e-01
-1.921024e-01
-1.641201e-01
-4.825602e-01
-6.321781e-01
3.264485e-01
-8.478914e-01
6.133009e-01
4.690373e-01
3.024367e-01
2.294054e-01
2.801187e-01
1.722537e-01
1.802502e-01
1.679025e-01
1.214734e-01
1.438142e-01
1.431060e-01
2.488416e-01
3.051890e-01
5.312283e-01
6.999878e-01
-9.543578e-01
7.305188e-01
4.757189e-01
8.063428e-02
1.145708e-02
-3.020830e-02
-1.416875e-01
-6.788362e-02
-1.093603e-01
-4.590537e-02
4.749710e-04
6.561089e-02
2.088253e-01
2.945527e-01
1.599813e-01
-1.336607e-02
-1.802170e-01
7.355344e-01
5.592450e-01
2.062818e-01
8.291875e-02
-1.702920e-02
-7.435819e-02
-1.655802e-02
-3.992589e-02
3.295049e-02
4.127776e-02
8.089425e-02
1.247585e-01
5.738287e-02
-2.716267e-01
-3.755288e-01
-6.792437e-02
7.379915e-01
5.629479e-01
2.120349e-01
8.451378e-02
-1.829878e-02
-8.983069e-02
-3.982314e-02
-7.668789e-02
-2.351397e-02
-1.337763e-02
2.496321e-02
1.654372e-02
-3.736764e-02
-1.422334e-01
-1.040380e-01
3.206077e-01
7.361308e-01
4.859627e-01
9.617296e-02
2.115861e-02
-2.941371e-02
-1.716352e-01
-1.322060e-01
-2.145276e-01
-1.721114e-01
-9.838992e-02
-8.801643e-02
-1.040697e-01
-9.159374e-02
5.457482e-02
3.351962e-01
7.309554e-01
6.158731e-01
4.764545e-01
3.100205e-01
2.374998e-01
2.873610e-01
1.644400e-01
1.437279e-01
8.079282e-02
-4.425156e-02
-3.861123e-02
-1.011755e-01
-7.135598e-02
7.404651e-02
3.782311e-01
7.145332e-01
9.482635e-01
-8.010628e-01
-1.966364e-01
-3.919710e-01
-2.560231e-01
-1.283031e-01
-2.810128e-01
-1.169345e-01
-1.422005e-01
-6.130444e-02
-2.858284e-02
-8.855394e-02
8.655865e-02
4.001518e-01
7.730236e-01
9.525130e-01
9.987240e-01
1 2 19 18
2 3 20 19
3 4 21 20
4 5 22 21
5 6 23 22
6 7 24 23
7 8 25 24
8 9 26 25
9 10 27 26
10 11 28 27
11 12 29 28
12 13 30 29
13 14 31 30
14 15 32 31
15 16 33 32
16 17 34 33
18 19 36 35
19 20 37 36
20 21 38 37
21 22 39 38
22 23 40 39
23 24 41 40
24 25 42 41
25 26 43 42
26 27 44 43
27 28 45 44
28 29 46 45
29 30 47 46
30 31 48 47
31 32 49 48
32 33 50 49
33 34 51 50
35 36 53 52
36 37 54 53
37 38 55 54
38 39 56 55
39 40 57 56
40 41 58 57
41 42 59 58
42 43 60 59
43 44 61 60
44 45 62 61
45 46 63 62
46 47 64 63
47 48 65 64
48 49 66 65
49 50 67 66
50 51 68 67
52 53 70 69
53 54 71 70
54 55 72 71
55 56 73 72
56 57 74 73
57 58 75 74
58 59 76 75
59 60 77 76
60 61 78 77
61 62 79 78
62 63 80 79
63 64 81 80
64 65 82 81
65 66 83 82
66 67 84 83
67 68 85 84
69 70 87 86
70 71 88 87
71 72 89 88
72 73 90 89
73 74 91 90
74 75 92 91
75 76 93 92
76 77 94 93
77 78 95 94
78 79 96 95
79 80 97 96
80 81 98 97
81 82 99 98
82 83 100 99
83 84 101 100
84 85 102 101
86 87 104 103
87 88 105 104
88 89 106 105
89 90 107 106
90 91 108 107
91 92 109 108
92 93 110 109
93 94 111 110
94 95 112 111
95 96 113 112
96 97 114 113
97 98 115 114
98 99 116 115
99 100 117 116
100 101 118 117
101 102 119 118
103 104 121 120
104 105 122 121
105 106 123 122
106 107 124 123
107 108 125 124
108 109 126 125
109 110 127 126
110 111 128 127
111 112 129 128
112 113 130 129
113 114 131 130
114 115 132 131
115 116 133 132
116 117 134 133
117 118 135 134
118 119 136 135
120 121 138 137
121 122 139 138
122 123 140 139
123 124 141 140
124 125 142 141
125 126 143 142
126 127 144 143
127 128 145 144
128 129 146 145
129 130 147 146
130 131 148 147
131 132 149 148
132 133 150 149
133 134 151 150
134 135 152 151
135 136 153 152
