TITLE = "Solution"
VARIABLES = x, y, u, v, psiu, psiv, t, stress
ZONE T="structure" N=153 E=128 F=FEBLOCK ET=QUADRILATERAL VARLOCATION=([7,8]=cellcentered)
0.000000e+00
1.250000e+01
2.500000e+01
3.750000e+01
5.000000e+01
6.250000e+01
7.500000e+01
8.750000e+01
1.000000e+02
1.125000e+02
1.250000e+02
1.375000e+02
1.500000e+02
1.625000e+02
1.750000e+02
1.875000e+02
2.000000e+02
0.000000e+00
1.250000e+01
2.500000e+01
3.750000e+01
5.000000e+01
6.250000e+01
7.500000e+01
8.750000e+01
1.000000e+02
1.125000e+02
1.250000e+02
1.375000e+02
1.500000e+02
1.625000e+02
1.750000e+02
1.875000e+02
2.000000e+02
0.000000e+00
1.250000e+01
2.500000e+01
3.750000e+01
5.000000e+01
6.250000e+01
7.500000e+01
8.750000e+01
1.000000e+02
1.125000e+02
1.250000e+02
1.375000e+02
1.500000e+02
1.625000e+02
1.750000e+02
1.875000e+02
2.000000e+02
0.000000e+00
1.250000e+01
2.500000e+01
3.750000e+01
5.000000e+01
6.250000e+01
7.500000e+01
8.750000e+01
1.000000e+02
1.125000e+02
1.250000e+02
1.375000e+02
1.500000e+02
1.625000e+02
1.750000e+02
1.875000e+02
2.000000e+02
0.000000e+00
1.250000e+01
2.500000e+01
3.750000e+01
5.000000e+01
6.250000e+01
7.500000e+01
8.750000e+01
1.000000e+02
1.125000e+02
1.250000e+02
1.375000e+02
1.500000e+02
1.625000e+02
1.750000e+02
1.875000e+02
2.000000e+02
0.000000e+00
1.250000e+01
2.500000e+01
3.750000e+01
5.000000e+01
6.250000e+01
7.500000e+01
8.750000e+01
1.000000e+02
1.125000e+02
1.250000e+02
1.375000e+02
1.500000e+02
1.625000e+02
1.750000e+02
1.875000e+02
2.000000e+02
0.000000e+00
1.250000e+01
2.500000e+01
3.750000e+01
5.000000e+01
6.250000e+01
7.500000e+01
8.750000e+01
1.000000e+02
1.125000e+02
1.250000e+02
1.375000e+02
1.500000e+02
1.625000e+02
1.750000e+02
1.875000e+02
2.000000e+02
0.000000e+00
1.250000e+01
2.500000e+01
3.750000e+01
5.000000e+01
6.250000e+01
7.500000e+01
8.750000e+01
1.000000e+02
1.125000e+02
1.250000e+02
1.375000e+02
1.500000e+02
1.625000e+02
1.750000e+02
1.875000e+02
2.000000e+02
0.000000e+00
1.250000e+01
2.500000e+01
3.750000e+01
5.000000e+01
6.250000e+01
7.500000e+01
8.750000e+01
1.000000e+02
1.125000e+02
1.250000e+02
1.375000e+02
1.500000e+02
1.625000e+02
1.750000e+02
1.875000e+02
2.000000e+02
0.000000e+00
0.000000e+00
0.000000e+00
0.000000e+00
0.000000e+00
0.000000e+00
0.000000e+00
0.000000e+00
0.000000e+00
0.000000e+00
0.000000e+00
0.000000e+00
0.000000e+00
0.000000e+00
0.000000e+00
0.000000e+00
0.000000e+00
1.250000e+01
1.250000e+01
1.250000e+01
1.250000e+01
1.250000e+01
1.250000e+01
1.250000e+01
1.250000e+01
1.250000e+01
1.250000e+01
1.250000e+01
1.250000e+01
1.250000e+01
1.250000e+01
1.250000e+01
1.250000e+01
1.250000e+01
2.500000e+01
2.500000e+01
2.500000e+01
2.500000e+01
2.500000e+01
2.500000e+01
2.500000e+01
2.500000e+01
2.500000e+01
2.500000e+01
2.500000e+01
2.500000e+01
2.500000e+01
2.500000e+01
2.500000e+01
2.500000e+01
2.500000e+01
3.750000e+01
3.750000e+01
3.750000e+01
3.750000e+01
3.750000e+01
3.750000e+01
3.750000e+01
3.750000e+01
3.750000e+01
3.750000e+01
3.750000e+01
3.750000e+01
3.750000e+01
3.750000e+01
3.750000e+01
3.750000e+01
3.750000e+01
5.000000e+01
5.000000e+01
5.000000e+01
5.000000e+01
5.000000e+01
5.000000e+01
5.000000e+01
5.000000e+01
5.000000e+01
5.000000e+01
5.000000e+01
5.000000e+01
5.000000e+01
5.000000e+01
5.000000e+01
5.000000e+01
5.000000e+01
6.250000e+01
6.250000e+01
6.250000e+01
6.250000e+01
6.250000e+01
6.250000e+01
6.250000e+01
6.250000e+01
6.250000e+01
6.250000e+01
6.250000e+01
6.250000e+01
6.250000e+01
6.250000e+01
6.250000e+01
6.250000e+01
6.250000e+01
7.500000e+01
7.500000e+01
7.500000e+01
7.500000e+01
7.500000e+01
7.500000e+01
7.500000e+01
7.500000e+01
7.500000e+01
7.500000e+01
7.500000e+01
7.500000e+01
7.500000e+01
7.500000e+01
7.500000e+01
7.500000e+01
7.500000e+01
8.750000e+01
8.750000e+01
8.750000e+01
8.750000e+01
8.750000e+01
8.750000e+01
8.750000e+01
8.750000e+01
8.750000e+01
8.750000e+01
8.750000e+01
8.750000e+01
8.750000e+01
8.750000e+01
8.750000e+01
8.750000e+01
8.750000e+01
1.000000e+02
1.000000e+02
1.000000e+02
1.000000e+02
1.000000e+02
1.000000e+02
1.000000e+02
1.000000e+02
1.000000e+02
1.000000e+02
1.000000e+02
1.000000e+02
1.000000e+02
1.000000e+02
1.000000e+02
1.000000e+02
1.000000e+02
0.000000e+00
-9.915487e-01
-1.680004e+00
-2.430334e+00
-3.112745e+00
-3.754366e+00
-4.454827e+00
-5.087958e+00
-5.762937e+00
-6.403918e+00
-7.057891e+00
-7.721194e+00
-8.376678e+00
-9.150619e+00
-1.007681e+01
-1.083137e+01
-1.128169e+01
0.000000e+00
-4.441883e-01
-9.084922e-01
-1.419176e+00
-1.929952e+00
-2.413120e+00
-2.925942e+00
-3.423926e+00
-3.920811e+00
-4.421891e+00
-4.916321e+00
-5.417392e+00
-5.902286e+00
-6.424121e+00
-6.896216e+00
-7.021159e+00
-7.199904e+00
0.000000e+00
-1.468409e-01
-3.511318e-01
-6.412308e-01
-9.792076e-01
-1.305243e+00
-1.659051e+00
-2.014166e+00
-2.359198e+00
-2.719354e+00
-3.058915e+00
-3.392454e+00
-3.687208e+00
-3.926798e+00
-4.034436e+00
-4.031845e+00
-4.180589e+00
0.000000e+00
-7.878866e-02
-1.623814e-01
-3.091598e-01
-4.538719e-01
-6.285739e-01
-8.114932e-01
-9.788867e-01
-1.164277e+00
-1.326472e+00
-1.487947e+00
-1.626318e+00
-1.719065e+00
-1.726657e+00
-1.653884e+00
-1.634277e+00
-1.752177e+00
0.000000e+00
-3.059424e-03
-6.687036e-03
-1.044478e-02
-1.413239e-02
-1.663718e-02
-1.664453e-02
-1.292022e-02
-3.868347e-03
1.290954e-02
3.722143e-02
8.127607e-02
1.629361e-01
2.773535e-01
3.963473e-01
4.360838e-01
3.378223e-01
0.000000e+00
7.350454e-02
1.515097e-01
2.913372e-01
4.298847e-01
5.992839e-01
7.796930e-01
9.535851e-01
1.157709e+00
1.351058e+00
1.565613e+00
1.786018e+00
2.010989e+00
2.215738e+00
2.350959e+00
2.383957e+00
2.318655e+00
0.000000e+00
1.448309e-01
3.462903e-01
6.326281e-01
9.668879e-01
1.290660e+00
1.643340e+00
2.001859e+00
2.366725e+00
2.768218e+00
3.145616e+00
3.512752e+00
3.846648e+00
4.120014e+00
4.295080e+00
4.349933e+00
4.327603e+00
0.000000e+00
4.451718e-01
9.091705e-01
1.419742e+00
1.929953e+00
2.410956e+00
2.920982e+00
3.415262e+00
3.904418e+00
4.397236e+00
4.875600e+00
5.350723e+00
5.781191e+00
6.127704e+00
6.343732e+00
6.438955e+00
6.456464e+00
0.000000e+00
9.938851e-01
1.684378e+00
2.438723e+00
3.124920e+00
3.768237e+00
4.469456e+00
5.097157e+00
5.743030e+00
6.330203e+00
6.905983e+00
7.506159e+00
8.038759e+00
8.447884e+00
8.649683e+00
8.702950e+00
8.703552e+00
0.000000e+00
-6.172179e-01
-1.359700e+00
-2.358535e+00
-3.531167e+00
-4.874556e+00
-6.403343e+00
-8.088631e+00
-9.947937e+00
-1.196979e+01
-1.415428e+01
-1.650240e+01
-1.901547e+01
-2.174645e+01
-2.470902e+01
-2.806919e+01
-3.308518e+01
0.000000e+00
-4.136584e-01
-1.190889e+00
-2.173054e+00
-3.361519e+00
-4.699706e+00
-6.226612e+00
-7.919172e+00
-9.772350e+00
-1.180183e+01
-1.398200e+01
-1.633532e+01
-1.884164e+01
-2.155417e+01
-2.456962e+01
-2.798503e+01
-3.203648e+01
0.000000e+00
-3.876041e-01
-1.089502e+00
-2.069575e+00
-3.241465e+00
-4.574633e+00
-6.105661e+00
-7.790325e+00
-9.653183e+00
-1.168030e+01
-1.387173e+01
-1.623582e+01
-1.875305e+01
-2.149204e+01
-2.456013e+01
-2.783245e+01
-3.086432e+01
0.000000e+00
-4.462509e-01
-1.085648e+00
-2.043251e+00
-3.177793e+00
-4.505904e+00
-6.041810e+00
-7.715345e+00
-9.595621e+00
-1.162266e+01
-1.383473e+01
-1.621840e+01
-1.876207e+01
-2.150181e+01
-2.449147e+01
-2.752219e+01
-3.014474e+01
0.000000e+00
-4.538231e-01
-1.107434e+00
-2.027144e+00
-3.164838e+00
-4.493513e+00
-6.021273e+00
-7.712895e+00
-9.587638e+00
-1.163572e+01
-1.385953e+01
-1.625273e+01
-1.880370e+01
-2.150294e+01
-2.434061e+01
-2.715642e+01
-2.954119e+01
0.000000e+00
-4.450363e-01
-1.085076e+00
-2.045031e+00
-3.184960e+00
-4.521593e+00
-6.068610e+00
-7.753773e+00
-9.650299e+00
-1.170175e+01
-1.392788e+01
-1.630491e+01
-1.883602e+01
-2.149269e+01
-2.420461e+01
-2.683743e+01
-2.910503e+01
0.000000e+00
-3.859477e-01
-1.088950e+00
-2.073257e+00
-3.254227e+00
-4.602055e+00
-6.152329e+00
-7.863315e+00
-9.756428e+00
-1.181601e+01
-1.401477e+01
-1.637188e+01
-1.887637e+01
-2.149297e+01
-2.412134e+01
-2.663063e+01
-2.887343e+01
0.000000e+00
-4.121118e-01
-1.190333e+00
-2.177155e+00
-3.375681e+00
-4.729478e+00
-6.279478e+00
-8.004484e+00
-9.894646e+00
-1.195245e+01
-1.413102e+01
-1.647069e+01
-1.895361e+01
-2.153474e+01
-2.410074e+01
-2.654276e+01
-2.881328e+01
0.000000e+00
-6.161366e-01
-1.359661e+00
-2.363422e+00
-3.545815e+00
-4.904627e+00
-6.456868e+00
-8.172922e+00
-1.006612e+01
-1.210896e+01
-1.428658e+01
-1.661931e+01
-1.907719e+01
-2.161630e+01
-2.412554e+01
-2.652770e+01
-2.881215e+01


0.000000e+00
1.540405e-05
2.512701e-05
3.745935e-05
5.350292e-05
6.710979e-05
8.270175e-05
9.699111e-05
1.112729e-04
1.255575e-04
1.406836e-04
1.549604e-04
1.719028e-04
1.873112e-04
1.966569e-04
2.021826e-04
2.090768e-04
0.000000e+00
1.146184e-05
1.975666e-05
2.837236e-05
4.105615e-05
5.168719e-05
6.186167e-05
7.306566e-05
8.322588e-05
9.459594e-05
1.052599e-04
1.153473e-04
1.264903e-04
1.355169e-04
1.365267e-04
1.402256e-04
1.460589e-04
0.000000e+00
9.549875e-06
1.503709e-05
2.020665e-05
2.902980e-05
3.566984e-05
4.158512e-05
4.901736e-05
5.504481e-05
6.227099e-05
6.864983e-05
7.391900e-05
7.864526e-05
8.054719e-05
7.958361e-05
8.196565e-05
8.622605e-05
0.000000e+00
5.175886e-06
6.879663e-06
9.672877e-06
1.324678e-05
1.401592e-05
1.653789e-05
1.857168e-05
2.183356e-05
2.535998e-05
2.850245e-05
2.916671e-05
2.837962e-05
2.679111e-05
2.665312e-05
2.974472e-05
3.540834e-05
0.000000e+00
-1.605996e-07
-4.018354e-07
-7.923451e-07
-1.586078e-06
-2.610872e-06
-4.486024e-06
-6.375687e-06
-6.779178e-06
-7.045354e-06
-8.437827e-06
-1.185975e-05
-1.463361e-05
-1.592183e-05
-1.555479e-05
-1.334219e-05
-9.376712e-06
0.000000e+00
-5.414518e-06
-7.416433e-06
-1.071807e-05
-1.472765e-05
-1.642474e-05
-2.095522e-05
-2.504204e-05
-3.035621e-05
-3.335366e-05
-3.735065e-05
-4.221590e-05
-4.701635e-05
-4.853318e-05
-4.906223e-05
-4.956343e-05
-4.790539e-05
0.000000e+00
-9.534246e-06
-1.508920e-05
-2.036287e-05
-2.911196e-05
-3.553655e-05
-4.127687e-05
-4.949423e-05
-5.655319e-05
-6.361200e-05
-6.871158e-05
-7.359924e-05
-7.774940e-05
-8.104491e-05
-8.295416e-05
-8.485407e-05
-8.560003e-05
0.000000e+00
-1.138764e-05
-1.966934e-05
-2.827492e-05
-4.082985e-05
-5.163338e-05
-6.162092e-05
-7.292394e-05
-8.333083e-05
-9.456659e-05
-1.051327e-04
-1.130830e-04
-1.179737e-04
-1.229236e-04
-1.264095e-04
-1.276556e-04
-1.277529e-04
0.000000e+00
-1.541729e-05
-2.507232e-05
-3.732328e-05
-5.330186e-05
-6.690523e-05
-8.233711e-05
-9.560203e-05
-1.094839e-04
-1.235532e-04
-1.411928e-04
-1.565445e-04
-1.659447e-04
-1.710479e-04
-1.732643e-04
-1.734591e-04
-1.732697e-04
0.000000e+00
1.261055e-05
2.001975e-05
3.246607e-05
4.877458e-05
6.679872e-05
9.099350e-05
1.195067e-04
1.519978e-04
1.884040e-04
2.281419e-04
2.720776e-04
3.223581e-04
3.762210e-04
4.375315e-04
5.082080e-04
5.812778e-04
0.000000e+00
7.673900e-06
1.612839e-05
2.636588e-05
4.229732e-05
6.087108e-05
8.456116e-05
1.135823e-04
1.458411e-04
1.821570e-04
2.219171e-04
2.658372e-04
3.157421e-04
3.715562e-04
4.324782e-04
5.008487e-04
5.708972e-04
0.000000e+00
4.319529e-06
1.231467e-05
2.169185e-05
3.650555e-05
5.561689e-05
7.927977e-05
1.091002e-04
1.415891e-04
1.776152e-04
2.172871e-04
2.614606e-04
3.119840e-04
3.693411e-04
4.284833e-04
4.933817e-04
5.611406e-04
0.000000e+00
3.182719e-06
1.057690e-05
1.999054e-05
3.439100e-05
5.207916e-05
7.652069e-05
1.082844e-04
1.417707e-04
1.758992e-04
2.152042e-04
2.600837e-04
3.113878e-04
3.679732e-04
4.258095e-04
4.855620e-04
5.469347e-04
0.000000e+00
2.791451e-06
1.021913e-05
1.990939e-05
3.401753e-05
5.078866e-05
7.558326e-05
1.092274e-04
1.427554e-04
1.754013e-04
2.135376e-04
2.602994e-04
3.118345e-04
3.680465e-04
4.246469e-04
4.791862e-04
5.309198e-04
0.000000e+00
3.316180e-06
1.075429e-05
2.034534e-05
3.468417e-05
5.188198e-05
7.719428e-05
1.099410e-04
1.431748e-04
1.752311e-04
2.139697e-04
2.620572e-04
3.142594e-04
3.682438e-04
4.245003e-04
4.768646e-04
5.200894e-04
0.000000e+00
4.461330e-06
1.253171e-05
2.202843e-05
3.675393e-05
5.568678e-05
8.014564e-05
1.107067e-04
1.427264e-04
1.765110e-04
2.163891e-04
2.653160e-04
3.177220e-04
3.701727e-04
4.235156e-04
4.741786e-04
5.167596e-04
0.000000e+00
7.788275e-06
1.635507e-05
2.665606e-05
4.254422e-05
6.125791e-05
8.543498e-05
1.148994e-04
1.462892e-04
1.809832e-04
2.210404e-04
2.688683e-04
3.206965e-04
3.723039e-04
4.235672e-04
4.721997e-04
5.172561e-04
0.000000e+00
1.271285e-05
2.024702e-05
3.274415e-05
4.909256e-05
6.730101e-05
9.190855e-05
1.206245e-04
1.524390e-04
1.873958e-04
2.280281e-04
2.730220e-04
3.228300e-04
3.735312e-04
4.238365e-04
4.717170e-04
5.175294e-04


5.484985e+00
5.985615e+00
6.706780e+00
5.737604e+00
5.140629e+00
5.490905e+00
5.650674e+00
5.953940e+00
5.755249e+00
5.838524e+00
6.185477e+00
7.074955e+00
8.772618e+00
9.740990e+00
9.055707e+00
7.905330e+00
7.963565e+00
8.340832e+00
8.545355e+00
8.249475e+00
7.883864e+00
8.014050e+00
8.215370e+00
8.186693e+00
8.229196e+00
8.178542e+00
8.320669e+00
8.748126e+00
9.436277e+00
9.750245e+00
8.307790e+00
6.394788e+00
9.778974e+00
9.767366e+00
9.932706e+00
9.769918e+00
9.763747e+00
9.820120e+00
9.746824e+00
9.835030e+00
9.764982e+00
9.807093e+00
9.813462e+00
9.801472e+00
9.819707e+00
9.320002e+00
7.893043e+00
6.095017e+00
9.966730e+00
9.966131e+00
9.965819e+00
9.962476e+00
9.958168e+00
9.950853e+00
9.943655e+00
9.944629e+00
9.948095e+00
9.944026e+00
9.916811e+00
9.403481e+00
8.756375e+00
8.298861e+00
7.869384e+00
7.741327e+00
9.966573e+00
9.965772e+00
9.965153e+00
9.960785e+00
9.953799e+00
9.940556e+00
9.895631e+00
9.915022e+00
9.923425e+00
9.832565e+00
9.268464e+00
8.433863e+00
7.552152e+00
7.608794e+00
8.508765e+00
9.011460e+00
9.779303e+00
9.765910e+00
9.929474e+00
9.761163e+00
9.738816e+00
9.642574e+00
9.428126e+00
9.521552e+00
9.294048e+00
8.727110e+00
8.199626e+00
7.727940e+00
7.937864e+00
8.561208e+00
9.330784e+00
9.891822e+00
7.969309e+00
8.341823e+00
8.540209e+00
8.233643e+00
7.813137e+00
7.731467e+00
7.662150e+00
7.603982e+00
7.510864e+00
7.135500e+00
7.353612e+00
8.334623e+00
9.105002e+00
9.699786e+00
9.934986e+00
9.959282e+00
5.501372e+00
5.990822e+00
6.704333e+00
5.727139e+00
5.115257e+00
5.272715e+00
5.245213e+00
5.603262e+00
5.618177e+00
6.138356e+00
7.667159e+00
9.005782e+00
9.875783e+00
9.948226e+00
9.963469e+00
9.968928e+00


-8.040369e-01
-1.854742e-01
-3.892943e-01
-2.497128e-01
-1.147645e-01
-2.899991e-01
-1.307478e-01
-2.098380e-01
-1.565542e-01
-1.694483e-01
-2.020194e-01
-1.548055e-01
-4.745815e-01
-6.645506e-01
3.204830e-01
-8.470554e-01
6.127589e-01
4.741440e-01
2.992573e-01
2.275211e-01
2.837070e-01
1.698013e-01
1.782571e-01
1.696173e-01
1.166765e-01
1.450287e-01
1.352275e-01
2.450879e-01
3.014117e-01
5.183538e-01
6.974309e-01
-9.438358e-01
7.265879e-01
4.721309e-01
6.609008e-02
-7.031960e-03
-3.850008e-02
-1.658309e-01
-7.599063e-02
-1.251609e-01
-6.206319e-02
-1.180266e-02
4.614700e-02
1.951687e-01
2.845193e-01
1.529275e-01
-1.965548e-02
-1.739890e-01
7.316100e-01
5.569959e-01
1.983343e-01
7.205477e-02
-2.210738e-02
-8.929194e-02
-1.730870e-02
-5.113433e-02
2.293107e-02
2.807201e-02
6.732721e-02
1.193201e-01
5.717470e-02
-2.678816e-01
-3.798708e-01
-7.273176e-02
7.343412e-01
5.608682e-01
2.053543e-01
7.715650e-02
-2.046710e-02
-9.871176e-02
-3.785944e-02
-8.793016e-02
-3.675788e-02
-2.793191e-02
2.011631e-02
1.480377e-02
-3.650601e-02
-1.366912e-01
-1.044381e-01
3.157207e-01
7.328981e-01
4.824174e-01
8.319338e-02
7.128421e-03
-3.184137e-02
-1.679722e-01
-1.063268e-01
-2.012453e-01
-1.715982e-01
-9.906591e-02
-8.374908e-02
-1.012227e-01
-9.800551e-02
5.085213e-02
3.339201e-01
7.274930e-01
6.161653e-01
4.806439e-01
3.070015e-01
2.340790e-01
2.857009e-01
1.623557e-01
1.477305e-01
8.890530e-02
-4.831939e-02
-3.751010e-02
-9.961708e-02
-6.631755e-02
6.807722e-02
3.728089e-01
7.136988e-01
9.481115e-01
-8.104883e-01
-1.887340e-01
-3.976078e-01
-2.565289e-01
-1.146007e-01
-2.880182e-01
-1.177904e-01
-1.486927e-01
-5.956888e-02
-2.598179e-02
-9.147339e-02
9.028588e-02
3.946849e-01
7.726847e-01
9.526928e-01
9.987308e-01
1 2 19 18
2 3 20 19
3 4 21 20
4 5 22 21
5 6 23 22
6 7 24 23
7 8 25 24
8 9 26 25
9 10 27 26
10 11 28 27
11 12 29 28
12 13 30 29
13 14 31 30
14 15 32 31
15 16 33 32
16 17 34 33
18 19 36 35
19 20 37 36
20 21 38 37
21 22 39 38
22 23 40 39
23 24 41 40
24 25 42 41
25 26 43 42
26 27 44 43
27 28 45 44
28 29 46 45
29 30 47 46
30 31 48 47
31 32 49 48
32 33 50 49
33 34 51 50
35 36 53 52
36 37 54 53
37 38 55 54
38 39 56 55
39 40 57 56
40 41 58 57
41 42 59 58
42 43 60 59
43 44 61 60
44 45 62 61
45 46 63 62
46 47 64 63
47 48 65 64
48 49 66 65
49 50 67 66
50 51 68 67
52 53 70 69
53 54 71 70
54 55 72 71
55 56 73 72
56 57 74 73
57 58 75 74
58 59 76 75
59 60 77 76
60 61 78 77
61 62 79 78
62 63 80 79
63 64 81 80
64 65 82 81
65 66 83 82
66 67 84 83
67 68 85 84
69 70 87 86
70 71 88 87
71 72 89 88
72 73 90 89
73 74 91 90
74 75 92 91
75 76 93 92
76 77 94 93
77 78 95 94
78 79 96 95
79 80 97 96
80 81 98 97
81 82 99 98
82 83 100 99
83 84 101 100
84 85 102 101
86 87 104 103
87 88 105 104
88 89 106 105
89 90 107 106
90 91 108 107
91 92 109 108
92 93 110 109
93 94 111 110
94 95 112 111
95 96 113 112
96 97 114 113
97 98 115 114
98 99 116 115
99 100 117 116
100 101 118 117
101 102 119 118
103 104 121 120
104 105 122 121
105 106 123 122
106 107 124 123
107 108 125 124
108 109 126 125
109 110 127 126
110 111 128 127
111 112 129 128
112 113 130 129
113 114 131 130
114 115 132 131
115 116 133 132
116 117 134 133
117 118 135 134
118 119 136 135
120 121 138 137
121 122 139 138
122 123 140 139
123 124 141 140
124 125 142 141
125 126 143 142
126 127 144 143
127 128 145 144
128 129 146 145
129 130 147 146
130 131 148 147
131 132 149 148
132 133 150 149
133 134 151 150
134 135 152 151
135 136 153 152
