TITLE = "Solution"
VARIABLES = x, y, u, v, psiu, psiv, t, stress
ZONE T="structure" N=153 E=128 F=FEBLOCK ET=QUADRILATERAL VARLOCATION=([7,8]=cellcentered)
0.000000e+00
1.250000e+01
2.500000e+01
3.750000e+01
5.000000e+01
6.250000e+01
7.500000e+01
8.750000e+01
1.000000e+02
1.125000e+02
1.250000e+02
1.375000e+02
1.500000e+02
1.625000e+02
1.750000e+02
1.875000e+02
2.000000e+02
0.000000e+00
1.250000e+01
2.500000e+01
3.750000e+01
5.000000e+01
6.250000e+01
7.500000e+01
8.750000e+01
1.000000e+02
1.125000e+02
1.250000e+02
1.375000e+02
1.500000e+02
1.625000e+02
1.750000e+02
1.875000e+02
2.000000e+02
0.000000e+00
1.250000e+01
2.500000e+01
3.750000e+01
5.000000e+01
6.250000e+01
7.500000e+01
8.750000e+01
1.000000e+02
1.125000e+02
1.250000e+02
1.375000e+02
1.500000e+02
1.625000e+02
1.750000e+02
1.875000e+02
2.000000e+02
0.000000e+00
1.250000e+01
2.500000e+01
3.750000e+01
5.000000e+01
6.250000e+01
7.500000e+01
8.750000e+01
1.000000e+02
1.125000e+02
1.250000e+02
1.375000e+02
1.500000e+02
1.625000e+02
1.750000e+02
1.875000e+02
2.000000e+02
0.000000e+00
1.250000e+01
2.500000e+01
3.750000e+01
5.000000e+01
6.250000e+01
7.500000e+01
8.750000e+01
1.000000e+02
1.125000e+02
1.250000e+02
1.375000e+02
1.500000e+02
1.625000e+02
1.750000e+02
1.875000e+02
2.000000e+02
0.000000e+00
1.250000e+01
2.500000e+01
3.750000e+01
5.000000e+01
6.250000e+01
7.500000e+01
8.750000e+01
1.000000e+02
1.125000e+02
1.250000e+02
1.375000e+02
1.500000e+02
1.625000e+02
1.750000e+02
1.875000e+02
2.000000e+02
0.000000e+00
1.250000e+01
2.500000e+01
3.750000e+01
5.000000e+01
6.250000e+01
7.500000e+01
8.750000e+01
1.000000e+02
1.125000e+02
1.250000e+02
1.375000e+02
1.500000e+02
1.625000e+02
1.750000e+02
1.875000e+02
2.000000e+02
0.000000e+00
1.250000e+01
2.500000e+01
3.750000e+01
5.000000e+01
6.250000e+01
7.500000e+01
8.750000e+01
1.000000e+02
1.125000e+02
1.250000e+02
1.375000e+02
1.500000e+02
1.625000e+02
1.750000e+02
1.875000e+02
2.000000e+02
0.000000e+00
1.250000e+01
2.500000e+01
3.750000e+01
5.000000e+01
6.250000e+01
7.500000e+01
8.750000e+01
1.000000e+02
1.125000e+02
1.250000e+02
1.375000e+02
1.500000e+02
1.625000e+02
1.750000e+02
1.875000e+02
2.000000e+02
0.000000e+00
0.000000e+00
0.000000e+00
0.000000e+00
0.000000e+00
0.000000e+00
0.000000e+00
0.000000e+00
0.000000e+00
0.000000e+00
0.000000e+00
0.000000e+00
0.000000e+00
0.000000e+00
0.000000e+00
0.000000e+00
0.000000e+00
1.250000e+01
1.250000e+01
1.250000e+01
1.250000e+01
1.250000e+01
1.250000e+01
1.250000e+01
1.250000e+01
1.250000e+01
1.250000e+01
1.250000e+01
1.250000e+01
1.250000e+01
1.250000e+01
1.250000e+01
1.250000e+01
1.250000e+01
2.500000e+01
2.500000e+01
2.500000e+01
2.500000e+01
2.500000e+01
2.500000e+01
2.500000e+01
2.500000e+01
2.500000e+01
2.500000e+01
2.500000e+01
2.500000e+01
2.500000e+01
2.500000e+01
2.500000e+01
2.500000e+01
2.500000e+01
3.750000e+01
3.750000e+01
3.750000e+01
3.750000e+01
3.750000e+01
3.750000e+01
3.750000e+01
3.750000e+01
3.750000e+01
3.750000e+01
3.750000e+01
3.750000e+01
3.750000e+01
3.750000e+01
3.750000e+01
3.750000e+01
3.750000e+01
5.000000e+01
5.000000e+01
5.000000e+01
5.000000e+01
5.000000e+01
5.000000e+01
5.000000e+01
5.000000e+01
5.000000e+01
5.000000e+01
5.000000e+01
5.000000e+01
5.000000e+01
5.000000e+01
5.000000e+01
5.000000e+01
5.000000e+01
6.250000e+01
6.250000e+01
6.250000e+01
6.250000e+01
6.250000e+01
6.250000e+01
6.250000e+01
6.250000e+01
6.250000e+01
6.250000e+01
6.250000e+01
6.250000e+01
6.250000e+01
6.250000e+01
6.250000e+01
6.250000e+01
6.250000e+01
7.500000e+01
7.500000e+01
7.500000e+01
7.500000e+01
7.500000e+01
7.500000e+01
7.500000e+01
7.500000e+01
7.500000e+01
7.500000e+01
7.500000e+01
7.500000e+01
7.500000e+01
7.500000e+01
7.500000e+01
7.500000e+01
7.500000e+01
8.750000e+01
8.750000e+01
8.750000e+01
8.750000e+01
8.750000e+01
8.750000e+01
8.750000e+01
8.750000e+01
8.750000e+01
8.750000e+01
8.750000e+01
8.750000e+01
8.750000e+01
8.750000e+01
8.750000e+01
8.750000e+01
8.750000e+01
1.000000e+02
1.000000e+02
1.000000e+02
1.000000e+02
1.000000e+02
1.000000e+02
1.000000e+02
1.000000e+02
1.000000e+02
1.000000e+02
1.000000e+02
1.000000e+02
1.000000e+02
1.000000e+02
1.000000e+02
1.000000e+02
1.000000e+02
0.000000e+00
-9.892047e-01
-1.679815e+00
-2.428931e+00
-3.109986e+00
-3.755405e+00
-4.452462e+00
-5.088016e+00
-5.761812e+00
-6.402189e+00
-7.058820e+00
-7.718540e+00
-8.376407e+00
-9.153410e+00
-1.007540e+01
-1.082836e+01
-1.127884e+01
0.000000e+00
-4.435457e-01
-9.095604e-01
-1.419323e+00
-1.929905e+00
-2.414358e+00
-2.926492e+00
-3.424638e+00
-3.921519e+00
-4.422112e+00
-4.917795e+00
-5.417328e+00
-5.902436e+00
-6.425826e+00
-6.894236e+00
-7.018007e+00
-7.196611e+00
0.000000e+00
-1.476202e-01
-3.529055e-01
-6.428525e-01
-9.808072e-01
-1.307147e+00
-1.661070e+00
-2.015293e+00
-2.360870e+00
-2.720062e+00
-3.059958e+00
-3.392794e+00
-3.686772e+00
-3.925788e+00
-4.031959e+00
-4.028818e+00
-4.177810e+00
0.000000e+00
-7.867120e-02
-1.624688e-01
-3.086812e-01
-4.530101e-01
-6.280420e-01
-8.095231e-01
-9.779663e-01
-1.162076e+00
-1.324440e+00
-1.486146e+00
-1.623866e+00
-1.715949e+00
-1.723011e+00
-1.650834e+00
-1.632170e+00
-1.750774e+00
0.000000e+00
-2.854138e-03
-6.248747e-03
-9.749528e-03
-1.287366e-02
-1.466552e-02
-1.398095e-02
-9.453533e-03
-1.800991e-04
1.671692e-02
4.112294e-02
8.498407e-02
1.661994e-01
2.801791e-01
3.984056e-01
4.370951e-01
3.387277e-01
0.000000e+00
7.378396e-02
1.522486e-01
2.918760e-01
4.305588e-01
6.013392e-01
7.833851e-01
9.603686e-01
1.164027e+00
1.356614e+00
1.569643e+00
1.789717e+00
2.013425e+00
2.216361e+00
2.351028e+00
2.383873e+00
2.318736e+00
0.000000e+00
1.458587e-01
3.483659e-01
6.345938e-01
9.682363e-01
1.290786e+00
1.643508e+00
2.003656e+00
2.370946e+00
2.770680e+00
3.147296e+00
3.514393e+00
3.848550e+00
4.120610e+00
4.294621e+00
4.349591e+00
4.327523e+00
0.000000e+00
4.447615e-01
9.101296e-01
1.419962e+00
1.930017e+00
2.411872e+00
2.921343e+00
3.415119e+00
3.904745e+00
4.397370e+00
4.875739e+00
5.350814e+00
5.782483e+00
6.128315e+00
6.343813e+00
6.438704e+00
6.456083e+00
0.000000e+00
9.916704e-01
1.683622e+00
2.437002e+00
3.123142e+00
3.770597e+00
4.469907e+00
5.097234e+00
5.740436e+00
6.329198e+00
6.906303e+00
7.505868e+00
8.039532e+00
8.446767e+00
8.648862e+00
8.702450e+00
8.703102e+00
0.000000e+00
-6.162117e-01
-1.357699e+00
-2.354400e+00
-3.525327e+00
-4.867662e+00
-6.394510e+00
-8.078874e+00
-9.936914e+00
-1.195746e+01
-1.414116e+01
-1.648681e+01
-1.899912e+01
-2.172960e+01
-2.469063e+01
-2.805135e+01
-3.306747e+01
0.000000e+00
-4.123936e-01
-1.188729e+00
-2.169239e+00
-3.355380e+00
-4.692524e+00
-6.218071e+00
-7.909048e+00
-9.761754e+00
-1.178922e+01
-1.396896e+01
-1.632018e+01
-1.882454e+01
-2.153767e+01
-2.455187e+01
-2.796683e+01
-3.201961e+01
0.000000e+00
-3.859673e-01
-1.087528e+00
-2.065632e+00
-3.234919e+00
-4.567824e+00
-6.096447e+00
-7.780766e+00
-9.642506e+00
-1.166793e+01
-1.385903e+01
-1.622059e+01
-1.873638e+01
-2.147564e+01
-2.454273e+01
-2.781367e+01
-3.084503e+01
0.000000e+00
-4.441782e-01
-1.083429e+00
-2.039062e+00
-3.170622e+00
-4.499313e+00
-6.031401e+00
-7.706586e+00
-9.585061e+00
-1.161091e+01
-1.382210e+01
-1.620300e+01
-1.874574e+01
-2.148500e+01
-2.447486e+01
-2.750294e+01
-3.012277e+01
0.000000e+00
-4.520876e-01
-1.104801e+00
-2.022831e+00
-3.158214e+00
-4.485450e+00
-6.011242e+00
-7.703830e+00
-9.578269e+00
-1.162460e+01
-1.384589e+01
-1.623777e+01
-1.878753e+01
-2.148622e+01
-2.432405e+01
-2.713770e+01
-2.951983e+01
0.000000e+00
-4.430536e-01
-1.082707e+00
-2.040641e+00
-3.177980e+00
-4.513744e+00
-6.057998e+00
-7.745904e+00
-9.641358e+00
-1.169065e+01
-1.391324e+01
-1.629005e+01
-1.882077e+01
-2.147592e+01
-2.418748e+01
-2.681934e+01
-2.908516e+01
0.000000e+00
-3.844059e-01
-1.086614e+00
-2.068603e+00
-3.246974e+00
-4.593896e+00
-6.143683e+00
-7.855770e+00
-9.747891e+00
-1.180392e+01
-1.400043e+01
-1.635703e+01
-1.886190e+01
-2.147657e+01
-2.410360e+01
-2.661288e+01
-2.885512e+01
0.000000e+00
-4.109212e-01
-1.187765e+00
-2.172312e+00
-3.368191e+00
-4.721288e+00
-6.271878e+00
-7.996952e+00
-9.885807e+00
-1.194005e+01
-1.411730e+01
-1.645618e+01
-1.893940e+01
-2.151846e+01
-2.408293e+01
-2.652481e+01
-2.879517e+01
0.000000e+00
-6.150919e-01
-1.357170e+00
-2.358326e+00
-3.538685e+00
-4.896958e+00
-6.448952e+00
-8.165268e+00
-1.005676e+01
-1.209707e+01
-1.427315e+01
-1.660503e+01
-1.906298e+01
-2.159974e+01
-2.410782e+01
-2.650965e+01
-2.879404e+01


0.000000e+00
1.536478e-05
2.507475e-05
3.728699e-05
5.317001e-05
6.663045e-05
8.194992e-05
9.649122e-05
1.106600e-04
1.253433e-04
1.405392e-04
1.548265e-04
1.720511e-04
1.871245e-04
1.959271e-04
2.012941e-04
2.081508e-04
0.000000e+00
1.146178e-05
1.978914e-05
2.842026e-05
4.119527e-05
5.181506e-05
6.211503e-05
7.341518e-05
8.351757e-05
9.476901e-05
1.053164e-04
1.151842e-04
1.264990e-04
1.352422e-04
1.358303e-04
1.394962e-04
1.453344e-04
0.000000e+00
9.603881e-06
1.518687e-05
2.051913e-05
2.964130e-05
3.639957e-05
4.254188e-05
5.005811e-05
5.601087e-05
6.295782e-05
6.903253e-05
7.390971e-05
7.857286e-05
8.022975e-05
7.909968e-05
8.147949e-05
8.575572e-05
0.000000e+00
5.230979e-06
7.069398e-06
1.010059e-05
1.405906e-05
1.544301e-05
1.841106e-05
2.086925e-05
2.357611e-05
2.662111e-05
2.906222e-05
2.932713e-05
2.831820e-05
2.658824e-05
2.647777e-05
2.957197e-05
3.522128e-05
0.000000e+00
-1.304793e-07
-3.302456e-07
-6.412597e-07
-1.226073e-06
-1.995750e-06
-3.280975e-06
-4.701985e-06
-5.316010e-06
-6.181406e-06
-8.107852e-06
-1.175711e-05
-1.458974e-05
-1.585518e-05
-1.546634e-05
-1.323129e-05
-9.296525e-06
0.000000e+00
-5.418306e-06
-7.505379e-06
-1.099026e-05
-1.538107e-05
-1.752963e-05
-2.210443e-05
-2.594206e-05
-3.057073e-05
-3.350305e-05
-3.736089e-05
-4.225349e-05
-4.688137e-05
-4.828213e-05
-4.879408e-05
-4.929886e-05
-4.768325e-05
0.000000e+00
-9.560785e-06
-1.521085e-05
-2.068360e-05
-2.980885e-05
-3.664686e-05
-4.277375e-05
-5.095110e-05
-5.749546e-05
-6.381621e-05
-6.869960e-05
-7.347217e-05
-7.761032e-05
-8.080923e-05
-8.271095e-05
-8.459152e-05
-8.533260e-05
0.000000e+00
-1.137849e-05
-1.969365e-05
-2.833143e-05
-4.099322e-05
-5.179078e-05
-6.192853e-05
-7.336015e-05
-8.367024e-05
-9.463365e-05
-1.050441e-04
-1.128050e-04
-1.177628e-04
-1.226807e-04
-1.261038e-04
-1.273190e-04
-1.274162e-04
0.000000e+00
-1.538688e-05
-2.503176e-05
-3.715880e-05
-5.290832e-05
-6.625149e-05
-8.138297e-05
-9.499602e-05
-1.091194e-04
-1.237013e-04
-1.413388e-04
-1.564010e-04
-1.656164e-04
-1.706378e-04
-1.728358e-04
-1.730179e-04
-1.728256e-04
0.000000e+00
1.261907e-05
2.000385e-05
3.234925e-05
4.839084e-05
6.587525e-05
8.918174e-05
1.165886e-04
1.478359e-04
1.836253e-04
2.229862e-04
2.669427e-04
3.175160e-04
3.712300e-04
4.324570e-04
5.030587e-04
5.759213e-04
0.000000e+00
7.673727e-06
1.610744e-05
2.625322e-05
4.192942e-05
5.998331e-05
8.275206e-05
1.105942e-04
1.417062e-04
1.773263e-04
2.168674e-04
2.607022e-04
3.108936e-04
3.667885e-04
4.275566e-04
4.957228e-04
5.655312e-04
0.000000e+00
4.293546e-06
1.225019e-05
2.149816e-05
3.617206e-05
5.481408e-05
7.762753e-05
1.059322e-04
1.372978e-04
1.728010e-04
2.123394e-04
2.565026e-04
3.071986e-04
3.647103e-04
4.236797e-04
4.882704e-04
5.557265e-04
0.000000e+00
3.097223e-06
1.039266e-05
1.965094e-05
3.396227e-05
5.186648e-05
7.520515e-05
1.047325e-04
1.367928e-04
1.710612e-04
2.104340e-04
2.553903e-04
3.067529e-04
3.633862e-04
4.210614e-04
4.804803e-04
5.414952e-04
0.000000e+00
2.675150e-06
9.955374e-06
1.944204e-05
3.351183e-05
5.087890e-05
7.444867e-05
1.050695e-04
1.372827e-04
1.705265e-04
2.090040e-04
2.558452e-04
3.073378e-04
3.634590e-04
4.199004e-04
4.741349e-04
5.255827e-04
0.000000e+00
3.220124e-06
1.055339e-05
1.995095e-05
3.420428e-05
5.177768e-05
7.560511e-05
1.055660e-04
1.376068e-04
1.703767e-04
2.094856e-04
2.577408e-04
3.098123e-04
3.636346e-04
4.197380e-04
4.718180e-04
5.148986e-04
0.000000e+00
4.429362e-06
1.246946e-05
2.185023e-05
3.640824e-05
5.493726e-05
7.803489e-05
1.066163e-04
1.375887e-04
1.715688e-04
2.118456e-04
2.609916e-04
3.132747e-04
3.655127e-04
4.187292e-04
4.691726e-04
5.116579e-04
0.000000e+00
7.784682e-06
1.634981e-05
2.658530e-05
4.222545e-05
6.029900e-05
8.323251e-05
1.110769e-04
1.413893e-04
1.759089e-04
2.163890e-04
2.644338e-04
3.162343e-04
3.676159e-04
4.187422e-04
4.672237e-04
5.121666e-04
0.000000e+00
1.271696e-05
2.024829e-05
3.267067e-05
4.873280e-05
6.627381e-05
8.969954e-05
1.169753e-04
1.475700e-04
1.823545e-04
2.231867e-04
2.684757e-04
3.183230e-04
3.688563e-04
4.189927e-04
4.667441e-04
5.124421e-04


5.378861e+00
5.870743e+00
6.564470e+00
5.615604e+00
4.963079e+00
5.207648e+00
5.404017e+00
5.744052e+00
5.651973e+00
5.804931e+00
6.123438e+00
7.024068e+00
8.712721e+00
9.665378e+00
8.971611e+00
7.818154e+00
7.878084e+00
8.239705e+00
8.434770e+00
8.142194e+00
7.736253e+00
7.837336e+00
8.029622e+00
8.040500e+00
8.120103e+00
8.102359e+00
8.242639e+00
8.668322e+00
9.373294e+00
9.668521e+00
8.230167e+00
6.324139e+00
9.721743e+00
9.712201e+00
9.867156e+00
9.702683e+00
9.692208e+00
9.732258e+00
9.675160e+00
9.752919e+00
9.693185e+00
9.740065e+00
9.736544e+00
9.730779e+00
9.748615e+00
9.250589e+00
7.801730e+00
6.014973e+00
9.934750e+00
9.933662e+00
9.933197e+00
9.927180e+00
9.921770e+00
9.914672e+00
9.907003e+00
9.906451e+00
9.905889e+00
9.893455e+00
9.840751e+00
9.327619e+00
8.691632e+00
8.233217e+00
7.772485e+00
7.599240e+00
9.934505e+00
9.933081e+00
9.932149e+00
9.924636e+00
9.916085e+00
9.903617e+00
9.883426e+00
9.882336e+00
9.872978e+00
9.758105e+00
9.182538e+00
8.323440e+00
7.462519e+00
7.524529e+00
8.394553e+00
8.885862e+00
9.722190e+00
9.709767e+00
9.861501e+00
9.688400e+00
9.658618e+00
9.647295e+00
9.529247e+00
9.566528e+00
9.246288e+00
8.649444e+00
8.112393e+00
7.625181e+00
7.803429e+00
8.446038e+00
9.240761e+00
9.801765e+00
7.886937e+00
8.240840e+00
8.426077e+00
8.117168e+00
7.686251e+00
7.713730e+00
7.775047e+00
7.652846e+00
7.419676e+00
7.043254e+00
7.270419e+00
8.228908e+00
8.993429e+00
9.603521e+00
9.876922e+00
9.920633e+00
5.404310e+00
5.878789e+00
6.560547e+00
5.601859e+00
4.944746e+00
5.137718e+00
5.204874e+00
5.487686e+00
5.441461e+00
5.981414e+00
7.534124e+00
8.909967e+00
9.788229e+00
9.899925e+00
9.928573e+00
9.939006e+00


-7.968196e-01
-1.930959e-01
-3.846880e-01
-2.467245e-01
-1.244448e-01
-2.819028e-01
-1.356955e-01
-2.076658e-01
-1.545455e-01
-1.770965e-01
-1.918207e-01
-1.598262e-01
-4.844221e-01
-6.459461e-01
3.244343e-01
-8.469852e-01
6.132100e-01
4.707144e-01
3.013723e-01
2.285538e-01
2.811251e-01
1.713747e-01
1.792596e-01
1.691487e-01
1.201417e-01
1.434717e-01
1.413466e-01
2.480399e-01
3.016481e-01
5.263286e-01
6.991061e-01
-9.515941e-01
7.291077e-01
4.742007e-01
7.504887e-02
4.533045e-03
-3.392413e-02
-1.498028e-01
-7.080377e-02
-1.140680e-01
-5.054760e-02
-4.655841e-03
5.907389e-02
2.041022e-01
2.905552e-01
1.575883e-01
-1.511231e-02
-1.790076e-01
7.341238e-01
5.583642e-01
2.033801e-01
7.928671e-02
-1.867176e-02
-7.857542e-02
-1.660050e-02
-4.298545e-02
3.041281e-02
3.688653e-02
7.633145e-02
1.233628e-01
5.758286e-02
-2.703601e-01
-3.754502e-01
-6.864640e-02
7.366836e-01
5.621374e-01
2.095611e-01
8.194289e-02
-1.878761e-02
-9.186106e-02
-3.826514e-02
-7.880624e-02
-2.640425e-02
-1.751656e-02
2.247321e-02
1.644574e-02
-3.648932e-02
-1.413978e-01
-1.041314e-01
3.197468e-01
7.349703e-01
4.844785e-01
9.112622e-02
1.567084e-02
-3.127203e-02
-1.724122e-01
-1.252502e-01
-2.092228e-01
-1.684038e-01
-9.629357e-02
-8.750766e-02
-1.033357e-01
-9.215374e-02
5.296697e-02
3.339818e-01
7.296848e-01
6.160675e-01
4.778021e-01
3.090399e-01
2.363385e-01
2.868019e-01
1.632259e-01
1.441187e-01
8.270871e-02
-4.460575e-02
-3.677408e-02
-1.013133e-01
-7.092646e-02
7.333130e-02
3.768345e-01
7.141997e-01
9.482283e-01
-8.041428e-01
-1.942605e-01
-3.938349e-01
-2.560487e-01
-1.240329e-01
-2.830735e-01
-1.159965e-01
-1.442905e-01
-6.150519e-02
-2.801276e-02
-8.997262e-02
8.613638e-02
3.988253e-01
7.728886e-01
9.525516e-01
9.987271e-01
1 2 19 18
2 3 20 19
3 4 21 20
4 5 22 21
5 6 23 22
6 7 24 23
7 8 25 24
8 9 26 25
9 10 27 26
10 11 28 27
11 12 29 28
12 13 30 29
13 14 31 30
14 15 32 31
15 16 33 32
16 17 34 33
18 19 36 35
19 20 37 36
20 21 38 37
21 22 39 38
22 23 40 39
23 24 41 40
24 25 42 41
25 26 43 42
26 27 44 43
27 28 45 44
28 29 46 45
29 30 47 46
30 31 48 47
31 32 49 48
32 33 50 49
33 34 51 50
35 36 53 52
36 37 54 53
37 38 55 54
38 39 56 55
39 40 57 56
40 41 58 57
41 42 59 58
42 43 60 59
43 44 61 60
44 45 62 61
45 46 63 62
46 47 64 63
47 48 65 64
48 49 66 65
49 50 67 66
50 51 68 67
52 53 70 69
53 54 71 70
54 55 72 71
55 56 73 72
56 57 74 73
57 58 75 74
58 59 76 75
59 60 77 76
60 61 78 77
61 62 79 78
62 63 80 79
63 64 81 80
64 65 82 81
65 66 83 82
66 67 84 83
67 68 85 84
69 70 87 86
70 71 88 87
71 72 89 88
72 73 90 89
73 74 91 90
74 75 92 91
75 76 93 92
76 77 94 93
77 78 95 94
78 79 96 95
79 80 97 96
80 81 98 97
81 82 99 98
82 83 100 99
83 84 101 100
84 85 102 101
86 87 104 103
87 88 105 104
88 89 106 105
89 90 107 106
90 91 108 107
91 92 109 108
92 93 110 109
93 94 111 110
94 95 112 111
95 96 113 112
96 97 114 113
97 98 115 114
98 99 116 115
99 100 117 116
100 101 118 117
101 102 119 118
103 104 121 120
104 105 122 121
105 106 123 122
106 107 124 123
107 108 125 124
108 109 126 125
109 110 127 126
110 111 128 127
111 112 129 128
112 113 130 129
113 114 131 130
114 115 132 131
115 116 133 132
116 117 134 133
117 118 135 134
118 119 136 135
120 121 138 137
121 122 139 138
122 123 140 139
123 124 141 140
124 125 142 141
125 126 143 142
126 127 144 143
127 128 145 144
128 129 146 145
129 130 147 146
130 131 148 147
131 132 149 148
132 133 150 149
133 134 151 150
134 135 152 151
135 136 153 152
