TITLE = "Solution"
VARIABLES = x, y, u, v, psiu, psiv, t, stress
ZONE T="structure" N=153 E=128 F=FEBLOCK ET=QUADRILATERAL VARLOCATION=([7,8]=cellcentered)
0.000000e+00
1.250000e+01
2.500000e+01
3.750000e+01
5.000000e+01
6.250000e+01
7.500000e+01
8.750000e+01
1.000000e+02
1.125000e+02
1.250000e+02
1.375000e+02
1.500000e+02
1.625000e+02
1.750000e+02
1.875000e+02
2.000000e+02
0.000000e+00
1.250000e+01
2.500000e+01
3.750000e+01
5.000000e+01
6.250000e+01
7.500000e+01
8.750000e+01
1.000000e+02
1.125000e+02
1.250000e+02
1.375000e+02
1.500000e+02
1.625000e+02
1.750000e+02
1.875000e+02
2.000000e+02
0.000000e+00
1.250000e+01
2.500000e+01
3.750000e+01
5.000000e+01
6.250000e+01
7.500000e+01
8.750000e+01
1.000000e+02
1.125000e+02
1.250000e+02
1.375000e+02
1.500000e+02
1.625000e+02
1.750000e+02
1.875000e+02
2.000000e+02
0.000000e+00
1.250000e+01
2.500000e+01
3.750000e+01
5.000000e+01
6.250000e+01
7.500000e+01
8.750000e+01
1.000000e+02
1.125000e+02
1.250000e+02
1.375000e+02
1.500000e+02
1.625000e+02
1.750000e+02
1.875000e+02
2.000000e+02
0.000000e+00
1.250000e+01
2.500000e+01
3.750000e+01
5.000000e+01
6.250000e+01
7.500000e+01
8.750000e+01
1.000000e+02
1.125000e+02
1.250000e+02
1.375000e+02
1.500000e+02
1.625000e+02
1.750000e+02
1.875000e+02
2.000000e+02
0.000000e+00
1.250000e+01
2.500000e+01
3.750000e+01
5.000000e+01
6.250000e+01
7.500000e+01
8.750000e+01
1.000000e+02
1.125000e+02
1.250000e+02
1.375000e+02
1.500000e+02
1.625000e+02
1.750000e+02
1.875000e+02
2.000000e+02
0.000000e+00
1.250000e+01
2.500000e+01
3.750000e+01
5.000000e+01
6.250000e+01
7.500000e+01
8.750000e+01
1.000000e+02
1.125000e+02
1.250000e+02
1.375000e+02
1.500000e+02
1.625000e+02
1.750000e+02
1.875000e+02
2.000000e+02
0.000000e+00
1.250000e+01
2.500000e+01
3.750000e+01
5.000000e+01
6.250000e+01
7.500000e+01
8.750000e+01
1.000000e+02
1.125000e+02
1.250000e+02
1.375000e+02
1.500000e+02
1.625000e+02
1.750000e+02
1.875000e+02
2.000000e+02
0.000000e+00
1.250000e+01
2.500000e+01
3.750000e+01
5.000000e+01
6.250000e+01
7.500000e+01
8.750000e+01
1.000000e+02
1.125000e+02
1.250000e+02
1.375000e+02
1.500000e+02
1.625000e+02
1.750000e+02
1.875000e+02
2.000000e+02
0.000000e+00
0.000000e+00
0.000000e+00
0.000000e+00
0.000000e+00
0.000000e+00
0.000000e+00
0.000000e+00
0.000000e+00
0.000000e+00
0.000000e+00
0.000000e+00
0.000000e+00
0.000000e+00
0.000000e+00
0.000000e+00
0.000000e+00
1.250000e+01
1.250000e+01
1.250000e+01
1.250000e+01
1.250000e+01
1.250000e+01
1.250000e+01
1.250000e+01
1.250000e+01
1.250000e+01
1.250000e+01
1.250000e+01
1.250000e+01
1.250000e+01
1.250000e+01
1.250000e+01
1.250000e+01
2.500000e+01
2.500000e+01
2.500000e+01
2.500000e+01
2.500000e+01
2.500000e+01
2.500000e+01
2.500000e+01
2.500000e+01
2.500000e+01
2.500000e+01
2.500000e+01
2.500000e+01
2.500000e+01
2.500000e+01
2.500000e+01
2.500000e+01
3.750000e+01
3.750000e+01
3.750000e+01
3.750000e+01
3.750000e+01
3.750000e+01
3.750000e+01
3.750000e+01
3.750000e+01
3.750000e+01
3.750000e+01
3.750000e+01
3.750000e+01
3.750000e+01
3.750000e+01
3.750000e+01
3.750000e+01
5.000000e+01
5.000000e+01
5.000000e+01
5.000000e+01
5.000000e+01
5.000000e+01
5.000000e+01
5.000000e+01
5.000000e+01
5.000000e+01
5.000000e+01
5.000000e+01
5.000000e+01
5.000000e+01
5.000000e+01
5.000000e+01
5.000000e+01
6.250000e+01
6.250000e+01
6.250000e+01
6.250000e+01
6.250000e+01
6.250000e+01
6.250000e+01
6.250000e+01
6.250000e+01
6.250000e+01
6.250000e+01
6.250000e+01
6.250000e+01
6.250000e+01
6.250000e+01
6.250000e+01
6.250000e+01
7.500000e+01
7.500000e+01
7.500000e+01
7.500000e+01
7.500000e+01
7.500000e+01
7.500000e+01
7.500000e+01
7.500000e+01
7.500000e+01
7.500000e+01
7.500000e+01
7.500000e+01
7.500000e+01
7.500000e+01
7.500000e+01
7.500000e+01
8.750000e+01
8.750000e+01
8.750000e+01
8.750000e+01
8.750000e+01
8.750000e+01
8.750000e+01
8.750000e+01
8.750000e+01
8.750000e+01
8.750000e+01
8.750000e+01
8.750000e+01
8.750000e+01
8.750000e+01
8.750000e+01
8.750000e+01
1.000000e+02
1.000000e+02
1.000000e+02
1.000000e+02
1.000000e+02
1.000000e+02
1.000000e+02
1.000000e+02
1.000000e+02
1.000000e+02
1.000000e+02
1.000000e+02
1.000000e+02
1.000000e+02
1.000000e+02
1.000000e+02
1.000000e+02
0.000000e+00
-9.884430e-01
-1.679533e+00
-2.428198e+00
-3.108989e+00
-3.755454e+00
-4.451505e+00
-5.088070e+00
-5.761020e+00
-6.401525e+00
-7.058871e+00
-7.717426e+00
-8.376349e+00
-9.154321e+00
-1.007451e+01
-1.082687e+01
-1.127742e+01
0.000000e+00
-4.434294e-01
-9.099063e-01
-1.419388e+00
-1.930018e+00
-2.414730e+00
-2.926701e+00
-3.424967e+00
-3.921675e+00
-4.422172e+00
-4.918292e+00
-5.417206e+00
-5.902531e+00
-6.426322e+00
-6.893212e+00
-7.016523e+00
-7.195067e+00
0.000000e+00
-1.479863e-01
-3.536500e-01
-6.436010e-01
-9.815651e-01
-1.307893e+00
-1.661821e+00
-2.015779e+00
-2.361523e+00
-2.720384e+00
-3.060433e+00
-3.392880e+00
-3.686582e+00
-3.925224e+00
-4.030785e+00
-4.027419e+00
-4.176494e+00
0.000000e+00
-7.865518e-02
-1.625269e-01
-3.085409e-01
-4.527400e-01
-6.277928e-01
-8.088101e-01
-9.776486e-01
-1.161350e+00
-1.323870e+00
-1.485511e+00
-1.622949e+00
-1.714671e+00
-1.721489e+00
-1.649477e+00
-1.631130e+00
-1.750001e+00
0.000000e+00
-2.796304e-03
-6.123154e-03
-9.537300e-03
-1.251840e-02
-1.412350e-02
-1.322982e-02
-8.474854e-03
9.004167e-04
1.790484e-02
4.248642e-02
8.647731e-02
1.676200e-01
2.814464e-01
3.993636e-01
4.376551e-01
3.392408e-01
0.000000e+00
7.387489e-02
1.525032e-01
2.920448e-01
4.307525e-01
6.018108e-01
7.840432e-01
9.618937e-01
1.165623e+00
1.358466e+00
1.571193e+00
1.791121e+00
2.014447e+00
2.216803e+00
2.351230e+00
2.383968e+00
2.318868e+00
0.000000e+00
1.462819e-01
3.492097e-01
6.354750e-01
9.689897e-01
1.291337e+00
1.643978e+00
2.004184e+00
2.371994e+00
2.771356e+00
3.147933e+00
3.514956e+00
3.849110e+00
4.120829e+00
4.294502e+00
4.349505e+00
4.327534e+00
0.000000e+00
4.446445e-01
9.104708e-01
1.420064e+00
1.930095e+00
2.412261e+00
2.921570e+00
3.415238e+00
3.904946e+00
4.397423e+00
4.875859e+00
5.350916e+00
5.782781e+00
6.128384e+00
6.343725e+00
6.438513e+00
6.455849e+00
0.000000e+00
9.908561e-01
1.683241e+00
2.436192e+00
3.122199e+00
3.770883e+00
4.469545e+00
5.097311e+00
5.739917e+00
6.329085e+00
6.906607e+00
7.505924e+00
8.039653e+00
8.446198e+00
8.648336e+00
8.702016e+00
8.702687e+00
0.000000e+00
-6.158317e-01
-1.356787e+00
-2.352567e+00
-3.522658e+00
-4.864336e+00
-6.390366e+00
-8.074259e+00
-9.931620e+00
-1.195163e+01
-1.413486e+01
-1.647952e+01
-1.899156e+01
-2.172174e+01
-2.468220e+01
-2.804311e+01
-3.305925e+01
0.000000e+00
-4.119634e-01
-1.187796e+00
-2.167482e+00
-3.352626e+00
-4.689122e+00
-6.213979e+00
-7.904330e+00
-9.756637e+00
-1.178324e+01
-1.396274e+01
-1.631300e+01
-1.881671e+01
-2.153000e+01
-2.454370e+01
-2.795846e+01
-3.201170e+01
0.000000e+00
-3.853874e-01
-1.086643e+00
-2.063812e+00
-3.232078e+00
-4.564529e+00
-6.092122e+00
-7.776242e+00
-9.637307e+00
-1.166207e+01
-1.385291e+01
-1.621343e+01
-1.872872e+01
-2.146801e+01
-2.453468e+01
-2.780509e+01
-3.083621e+01
0.000000e+00
-4.433891e-01
-1.082433e+00
-2.037146e+00
-3.167603e+00
-4.496107e+00
-6.026672e+00
-7.702251e+00
-9.579760e+00
-1.160529e+01
-1.381599e+01
-1.619587e+01
-1.873820e+01
-2.147723e+01
-2.446709e+01
-2.749422e+01
-3.011296e+01
0.000000e+00
-4.513940e-01
-1.103658e+00
-2.020918e+00
-3.155324e+00
-4.481834e+00
-6.006725e+00
-7.699160e+00
-9.573276e+00
-1.161908e+01
-1.383957e+01
-1.623079e+01
-1.878006e+01
-2.147853e+01
-2.431634e+01
-2.712913e+01
-2.951022e+01
0.000000e+00
-4.422714e-01
-1.081698e+00
-2.038702e+00
-3.174930e+00
-4.510278e+00
-6.053227e+00
-7.741510e+00
-9.636313e+00
-1.168516e+01
-1.390669e+01
-1.628317e+01
-1.881363e+01
-2.146830e+01
-2.417963e+01
-2.681098e+01
-2.907604e+01
0.000000e+00
-3.838316e-01
-1.085667e+00
-2.066664e+00
-3.243894e+00
-4.590256e+00
-6.139321e+00
-7.851287e+00
-9.742966e+00
-1.179815e+01
-1.399401e+01
-1.635025e+01
-1.885504e+01
-2.146912e+01
-2.409557e+01
-2.660466e+01
-2.884658e+01
0.000000e+00
-4.104935e-01
-1.186757e+00
-2.170364e+00
-3.365099e+00
-4.717563e+00
-6.267733e+00
-7.992383e+00
-9.880855e+00
-1.193415e+01
-1.411107e+01
-1.644960e+01
-1.893268e+01
-2.151105e+01
-2.407489e+01
-2.651655e+01
-2.878670e+01
0.000000e+00
-6.147011e-01
-1.356181e+00
-2.356287e+00
-3.535701e+00
-4.893366e+00
-6.444728e+00
-8.160757e+00
-1.005165e+01
-1.209131e+01
-1.426701e+01
-1.659851e+01
-1.905625e+01
-2.159221e+01
-2.409980e+01
-2.650135e+01
-2.878556e+01


0.000000e+00
1.534443e-05
2.504055e-05
3.719731e-05
5.299625e-05
6.637379e-05
8.158996e-05
9.620749e-05
1.103881e-04
1.252276e-04
1.404741e-04
1.547878e-04
1.720950e-04
1.870555e-04
1.956816e-04
2.009934e-04
2.078352e-04
0.000000e+00
1.146009e-05
1.980446e-05
2.845054e-05
4.125867e-05
5.189226e-05
6.224729e-05
7.358958e-05
8.368066e-05
9.487301e-05
1.053483e-04
1.151358e-04
1.264852e-04
1.351292e-04
1.355973e-04
1.392514e-04
1.450898e-04
0.000000e+00
9.629176e-06
1.526662e-05
2.068920e-05
2.994703e-05
3.679089e-05
4.303494e-05
5.059342e-05
5.651403e-05
6.332889e-05
6.923333e-05
7.394493e-05
7.854589e-05
8.011164e-05
7.893651e-05
8.131659e-05
8.559972e-05
0.000000e+00
5.261463e-06
7.167110e-06
1.032727e-05
1.447851e-05
1.616300e-05
1.937738e-05
2.199369e-05
2.448774e-05
2.724739e-05
2.937313e-05
2.943010e-05
2.830732e-05
2.651731e-05
2.641932e-05
2.952015e-05
3.516442e-05
0.000000e+00
-1.165812e-07
-2.967594e-07
-5.688704e-07
-1.049936e-06
-1.688922e-06
-2.683467e-06
-3.864067e-06
-4.582741e-06
-5.730850e-06
-7.928140e-06
-1.169398e-05
-1.455857e-05
-1.581777e-05
-1.542383e-05
-1.317888e-05
-9.253950e-06
0.000000e+00
-5.425750e-06
-7.559141e-06
-1.114532e-05
-1.573158e-05
-1.810088e-05
-2.269138e-05
-2.636850e-05
-3.066531e-05
-3.355309e-05
-3.735635e-05
-4.226395e-05
-4.681401e-05
-4.816759e-05
-4.867888e-05
-4.918774e-05
-4.759042e-05
0.000000e+00
-9.577044e-06
-1.527946e-05
-2.086170e-05
-3.017984e-05
-3.724012e-05
-4.355270e-05
-5.168032e-05
-5.795186e-05
-6.391989e-05
-6.869303e-05
-7.341850e-05
-7.754627e-05
-8.070048e-05
-8.260696e-05
-8.448331e-05
-8.522292e-05
0.000000e+00
-1.137446e-05
-1.970506e-05
-2.836438e-05
-4.107828e-05
-5.188500e-05
-6.210061e-05
-7.358852e-05
-8.384832e-05
-9.468059e-05
-1.050108e-04
-1.126943e-04
-1.176808e-04
-1.225824e-04
-1.259766e-04
-1.271789e-04
-1.272771e-04
0.000000e+00
-1.537118e-05
-2.500409e-05
-3.706756e-05
-5.269726e-05
-6.589895e-05
-8.089902e-05
-9.468028e-05
-1.089566e-04
-1.237817e-04
-1.414271e-04
-1.563668e-04
-1.654870e-04
-1.704731e-04
-1.726607e-04
-1.728344e-04
-1.726401e-04
0.000000e+00
1.262130e-05
1.999205e-05
3.227993e-05
4.817757e-05
6.538227e-05
8.822652e-05
1.150554e-04
1.457017e-04
1.811425e-04
2.203274e-04
2.642984e-04
3.149811e-04
3.686793e-04
4.298942e-04
5.004623e-04
5.732494e-04
0.000000e+00
7.673557e-06
1.609289e-05
2.618701e-05
4.172585e-05
5.950568e-05
8.179892e-05
1.090303e-04
1.395702e-04
1.748334e-04
2.142477e-04
2.580663e-04
3.083675e-04
3.643131e-04
4.250441e-04
4.931350e-04
5.628574e-04
0.000000e+00
4.279105e-06
1.221149e-05
2.139700e-05
3.597903e-05
5.438454e-05
7.674423e-05
1.042803e-04
1.350810e-04
1.703101e-04
2.097758e-04
2.539451e-04
3.047134e-04
3.622927e-04
4.212080e-04
4.856884e-04
5.530336e-04
0.000000e+00
3.051958e-06
1.029289e-05
1.947612e-05
3.373653e-05
5.171455e-05
7.449171e-05
1.028816e-04
1.342470e-04
1.685514e-04
2.079540e-04
2.529555e-04
3.043454e-04
3.610046e-04
4.186151e-04
4.779077e-04
5.387924e-04
0.000000e+00
2.613692e-06
9.816689e-06
1.920187e-05
3.325316e-05
5.087671e-05
7.381449e-05
1.029255e-04
1.344821e-04
1.679941e-04
2.066364e-04
2.535243e-04
3.050023e-04
3.610910e-04
4.174637e-04
4.715703e-04
5.229152e-04
0.000000e+00
3.170835e-06
1.044755e-05
1.974714e-05
3.395378e-05
5.167666e-05
7.474919e-05
1.033024e-04
1.347487e-04
1.678429e-04
2.071478e-04
2.554918e-04
3.075028e-04
3.612624e-04
4.173029e-04
4.692556e-04
5.122845e-04
0.000000e+00
4.414650e-06
1.243516e-05
2.175513e-05
3.621586e-05
5.452100e-05
7.691244e-05
1.044863e-04
1.349284e-04
1.689943e-04
2.094782e-04
2.587443e-04
3.109665e-04
3.631179e-04
4.162878e-04
4.666311e-04
5.090785e-04
0.000000e+00
7.785225e-06
1.634632e-05
2.654444e-05
4.204962e-05
5.977771e-05
8.205622e-05
1.090693e-04
1.388431e-04
1.732751e-04
2.139641e-04
2.621367e-04
3.139207e-04
3.652073e-04
4.162828e-04
4.646985e-04
5.095920e-04
0.000000e+00
1.271994e-05
2.024779e-05
3.262885e-05
4.853603e-05
6.571985e-05
8.852413e-05
1.150543e-04
1.450478e-04
1.797332e-04
2.206749e-04
2.661274e-04
3.159880e-04
3.664541e-04
4.165231e-04
4.642206e-04
5.098690e-04


5.342825e+00
5.825993e+00
6.505509e+00
5.566806e+00
4.906618e+00
5.125630e+00
5.319804e+00
5.655349e+00
5.603410e+00
5.785769e+00
6.101229e+00
7.006256e+00
8.688729e+00
9.634599e+00
8.937190e+00
7.782247e+00
7.845238e+00
8.198363e+00
8.387566e+00
8.095229e+00
7.682380e+00
7.779240e+00
7.963853e+00
7.981433e+00
8.073323e+00
8.070772e+00
8.211332e+00
8.637555e+00
9.346905e+00
9.634987e+00
8.198397e+00
6.295100e+00
9.697919e+00
9.688543e+00
9.838824e+00
9.673302e+00
9.661479e+00
9.699731e+00
9.649081e+00
9.722025e+00
9.665831e+00
9.712382e+00
9.705541e+00
9.701134e+00
9.718647e+00
9.222222e+00
7.766176e+00
5.984075e+00
9.921150e+00
9.919888e+00
9.919437e+00
9.912495e+00
9.907522e+00
9.902216e+00
9.895649e+00
9.893955e+00
9.890165e+00
9.873031e+00
9.809611e+00
9.296309e+00
8.665446e+00
8.207411e+00
7.737213e+00
7.546550e+00
9.920889e+00
9.919255e+00
9.918317e+00
9.909839e+00
9.902087e+00
9.892770e+00
9.877970e+00
9.873539e+00
9.856179e+00
9.728934e+00
9.147532e+00
8.284307e+00
7.433816e+00
7.496664e+00
8.352495e+00
8.839146e+00
9.698198e+00
9.685821e+00
9.832331e+00
9.657626e+00
9.628585e+00
9.634875e+00
9.542077e+00
9.572472e+00
9.237544e+00
8.626432e+00
8.079584e+00
7.591837e+00
7.764331e+00
8.408103e+00
9.207029e+00
9.766543e+00
7.853689e+00
8.198837e+00
8.377500e+00
8.067910e+00
7.638156e+00
7.689088e+00
7.778995e+00
7.659887e+00
7.405575e+00
7.023323e+00
7.243316e+00
8.191829e+00
8.956896e+00
9.569748e+00
9.853259e+00
9.904304e+00
5.367669e+00
5.833528e+00
6.500512e+00
5.551451e+00
4.891266e+00
5.086199e+00
5.178225e+00
5.454239e+00
5.407147e+00
5.944854e+00
7.490343e+00
8.872100e+00
9.754616e+00
9.879774e+00
9.913771e+00
9.926244e+00


-7.946973e-01
-1.949390e-01
-3.831144e-01
-2.463196e-01
-1.269299e-01
-2.796113e-01
-1.378516e-01
-2.057166e-01
-1.546413e-01
-1.793728e-01
-1.882735e-01
-1.623070e-01
-4.872934e-01
-6.381556e-01
3.259641e-01
-8.470108e-01
6.131737e-01
4.697397e-01
3.020565e-01
2.287696e-01
2.808447e-01
1.719822e-01
1.795182e-01
1.694344e-01
1.212147e-01
1.428889e-01
1.439095e-01
2.488933e-01
3.023102e-01
5.295314e-01
6.997230e-01
-9.544520e-01
7.300287e-01
4.753404e-01
7.892126e-02
9.092181e-03
-3.095317e-02
-1.435332e-01
-6.859656e-02
-1.094042e-01
-4.671220e-02
-1.671435e-03
6.411439e-02
2.075528e-01
2.930855e-01
1.593910e-01
-1.347912e-02
-1.807679e-01
7.350979e-01
5.590879e-01
2.055873e-01
8.199818e-02
-1.703279e-02
-7.487336e-02
-1.607888e-02
-3.995025e-02
3.260620e-02
4.012318e-02
7.994131e-02
1.252192e-01
5.796681e-02
-2.710412e-01
-3.739168e-01
-6.726982e-02
7.376178e-01
5.627947e-01
2.115174e-01
8.413674e-02
-1.778757e-02
-8.935223e-02
-3.830007e-02
-7.632721e-02
-2.386448e-02
-1.413780e-02
2.377537e-02
1.694981e-02
-3.673887e-02
-1.428914e-01
-1.038178e-01
3.211233e-01
7.357896e-01
4.854967e-01
9.464801e-02
1.966045e-02
-2.947739e-02
-1.702631e-01
-1.278074e-01
-2.103153e-01
-1.687316e-01
-9.635010e-02
-8.853395e-02
-1.041170e-01
-9.097725e-02
5.356966e-02
3.341700e-01
7.305377e-01
6.159485e-01
4.767846e-01
3.096308e-01
2.369554e-01
2.868595e-01
1.639231e-01
1.440819e-01
8.163281e-02
-4.355865e-02
-3.696103e-02
-1.015171e-01
-7.171873e-02
7.473846e-02
3.781098e-01
7.144168e-01
9.482717e-01
-8.019038e-01
-1.960009e-01
-3.923758e-01
-2.557310e-01
-1.269567e-01
-2.814506e-01
-1.165751e-01
-1.432588e-01
-6.177111e-02
-2.871280e-02
-8.923717e-02
8.574659e-02
4.002729e-01
7.729945e-01
9.525151e-01
9.987258e-01
1 2 19 18
2 3 20 19
3 4 21 20
4 5 22 21
5 6 23 22
6 7 24 23
7 8 25 24
8 9 26 25
9 10 27 26
10 11 28 27
11 12 29 28
12 13 30 29
13 14 31 30
14 15 32 31
15 16 33 32
16 17 34 33
18 19 36 35
19 20 37 36
20 21 38 37
21 22 39 38
22 23 40 39
23 24 41 40
24 25 42 41
25 26 43 42
26 27 44 43
27 28 45 44
28 29 46 45
29 30 47 46
30 31 48 47
31 32 49 48
32 33 50 49
33 34 51 50
35 36 53 52
36 37 54 53
37 38 55 54
38 39 56 55
39 40 57 56
40 41 58 57
41 42 59 58
42 43 60 59
43 44 61 60
44 45 62 61
45 46 63 62
46 47 64 63
47 48 65 64
48 49 66 65
49 50 67 66
50 51 68 67
52 53 70 69
53 54 71 70
54 55 72 71
55 56 73 72
56 57 74 73
57 58 75 74
58 59 76 75
59 60 77 76
60 61 78 77
61 62 79 78
62 63 80 79
63 64 81 80
64 65 82 81
65 66 83 82
66 67 84 83
67 68 85 84
69 70 87 86
70 71 88 87
71 72 89 88
72 73 90 89
73 74 91 90
74 75 92 91
75 76 93 92
76 77 94 93
77 78 95 94
78 79 96 95
79 80 97 96
80 81 98 97
81 82 99 98
82 83 100 99
83 84 101 100
84 85 102 101
86 87 104 103
87 88 105 104
88 89 106 105
89 90 107 106
90 91 108 107
91 92 109 108
92 93 110 109
93 94 111 110
94 95 112 111
95 96 113 112
96 97 114 113
97 98 115 114
98 99 116 115
99 100 117 116
100 101 118 117
101 102 119 118
103 104 121 120
104 105 122 121
105 106 123 122
106 107 124 123
107 108 125 124
108 109 126 125
109 110 127 126
110 111 128 127
111 112 129 128
112 113 130 129
113 114 131 130
114 115 132 131
115 116 133 132
116 117 134 133
117 118 135 134
118 119 136 135
120 121 138 137
121 122 139 138
122 123 140 139
123 124 141 140
124 125 142 141
125 126 143 142
126 127 144 143
127 128 145 144
128 129 146 145
129 130 147 146
130 131 148 147
131 132 149 148
132 133 150 149
133 134 151 150
134 135 152 151
135 136 153 152
