TITLE = "Solution"
VARIABLES = x, y, u, v, psiu, psiv, t, stress
ZONE T="structure" N=153 E=128 F=FEBLOCK ET=QUADRILATERAL VARLOCATION=([7,8]=cellcentered)
0.000000e+00
1.250000e+01
2.500000e+01
3.750000e+01
5.000000e+01
6.250000e+01
7.500000e+01
8.750000e+01
1.000000e+02
1.125000e+02
1.250000e+02
1.375000e+02
1.500000e+02
1.625000e+02
1.750000e+02
1.875000e+02
2.000000e+02
0.000000e+00
1.250000e+01
2.500000e+01
3.750000e+01
5.000000e+01
6.250000e+01
7.500000e+01
8.750000e+01
1.000000e+02
1.125000e+02
1.250000e+02
1.375000e+02
1.500000e+02
1.625000e+02
1.750000e+02
1.875000e+02
2.000000e+02
0.000000e+00
1.250000e+01
2.500000e+01
3.750000e+01
5.000000e+01
6.250000e+01
7.500000e+01
8.750000e+01
1.000000e+02
1.125000e+02
1.250000e+02
1.375000e+02
1.500000e+02
1.625000e+02
1.750000e+02
1.875000e+02
2.000000e+02
0.000000e+00
1.250000e+01
2.500000e+01
3.750000e+01
5.000000e+01
6.250000e+01
7.500000e+01
8.750000e+01
1.000000e+02
1.125000e+02
1.250000e+02
1.375000e+02
1.500000e+02
1.625000e+02
1.750000e+02
1.875000e+02
2.000000e+02
0.000000e+00
1.250000e+01
2.500000e+01
3.750000e+01
5.000000e+01
6.250000e+01
7.500000e+01
8.750000e+01
1.000000e+02
1.125000e+02
1.250000e+02
1.375000e+02
1.500000e+02
1.625000e+02
1.750000e+02
1.875000e+02
2.000000e+02
0.000000e+00
1.250000e+01
2.500000e+01
3.750000e+01
5.000000e+01
6.250000e+01
7.500000e+01
8.750000e+01
1.000000e+02
1.125000e+02
1.250000e+02
1.375000e+02
1.500000e+02
1.625000e+02
1.750000e+02
1.875000e+02
2.000000e+02
0.000000e+00
1.250000e+01
2.500000e+01
3.750000e+01
5.000000e+01
6.250000e+01
7.500000e+01
8.750000e+01
1.000000e+02
1.125000e+02
1.250000e+02
1.375000e+02
1.500000e+02
1.625000e+02
1.750000e+02
1.875000e+02
2.000000e+02
0.000000e+00
1.250000e+01
2.500000e+01
3.750000e+01
5.000000e+01
6.250000e+01
7.500000e+01
8.750000e+01
1.000000e+02
1.125000e+02
1.250000e+02
1.375000e+02
1.500000e+02
1.625000e+02
1.750000e+02
1.875000e+02
2.000000e+02
0.000000e+00
1.250000e+01
2.500000e+01
3.750000e+01
5.000000e+01
6.250000e+01
7.500000e+01
8.750000e+01
1.000000e+02
1.125000e+02
1.250000e+02
1.375000e+02
1.500000e+02
1.625000e+02
1.750000e+02
1.875000e+02
2.000000e+02
0.000000e+00
0.000000e+00
0.000000e+00
0.000000e+00
0.000000e+00
0.000000e+00
0.000000e+00
0.000000e+00
0.000000e+00
0.000000e+00
0.000000e+00
0.000000e+00
0.000000e+00
0.000000e+00
0.000000e+00
0.000000e+00
0.000000e+00
1.250000e+01
1.250000e+01
1.250000e+01
1.250000e+01
1.250000e+01
1.250000e+01
1.250000e+01
1.250000e+01
1.250000e+01
1.250000e+01
1.250000e+01
1.250000e+01
1.250000e+01
1.250000e+01
1.250000e+01
1.250000e+01
1.250000e+01
2.500000e+01
2.500000e+01
2.500000e+01
2.500000e+01
2.500000e+01
2.500000e+01
2.500000e+01
2.500000e+01
2.500000e+01
2.500000e+01
2.500000e+01
2.500000e+01
2.500000e+01
2.500000e+01
2.500000e+01
2.500000e+01
2.500000e+01
3.750000e+01
3.750000e+01
3.750000e+01
3.750000e+01
3.750000e+01
3.750000e+01
3.750000e+01
3.750000e+01
3.750000e+01
3.750000e+01
3.750000e+01
3.750000e+01
3.750000e+01
3.750000e+01
3.750000e+01
3.750000e+01
3.750000e+01
5.000000e+01
5.000000e+01
5.000000e+01
5.000000e+01
5.000000e+01
5.000000e+01
5.000000e+01
5.000000e+01
5.000000e+01
5.000000e+01
5.000000e+01
5.000000e+01
5.000000e+01
5.000000e+01
5.000000e+01
5.000000e+01
5.000000e+01
6.250000e+01
6.250000e+01
6.250000e+01
6.250000e+01
6.250000e+01
6.250000e+01
6.250000e+01
6.250000e+01
6.250000e+01
6.250000e+01
6.250000e+01
6.250000e+01
6.250000e+01
6.250000e+01
6.250000e+01
6.250000e+01
6.250000e+01
7.500000e+01
7.500000e+01
7.500000e+01
7.500000e+01
7.500000e+01
7.500000e+01
7.500000e+01
7.500000e+01
7.500000e+01
7.500000e+01
7.500000e+01
7.500000e+01
7.500000e+01
7.500000e+01
7.500000e+01
7.500000e+01
7.500000e+01
8.750000e+01
8.750000e+01
8.750000e+01
8.750000e+01
8.750000e+01
8.750000e+01
8.750000e+01
8.750000e+01
8.750000e+01
8.750000e+01
8.750000e+01
8.750000e+01
8.750000e+01
8.750000e+01
8.750000e+01
8.750000e+01
8.750000e+01
1.000000e+02
1.000000e+02
1.000000e+02
1.000000e+02
1.000000e+02
1.000000e+02
1.000000e+02
1.000000e+02
1.000000e+02
1.000000e+02
1.000000e+02
1.000000e+02
1.000000e+02
1.000000e+02
1.000000e+02
1.000000e+02
1.000000e+02
0.000000e+00
-7.962443e-01
-1.460379e+00
-2.090147e+00
-2.720042e+00
-3.339328e+00
-3.937071e+00
-4.504296e+00
-5.033951e+00
-5.521132e+00
-5.964244e+00
-6.366881e+00
-6.740266e+00
-7.107062e+00
-7.506934e+00
-7.986675e+00
-8.341590e+00
0.000000e+00
-4.579681e-01
-9.564294e-01
-1.435239e+00
-1.909710e+00
-2.374493e+00
-2.822341e+00
-3.247437e+00
-3.644376e+00
-4.008722e+00
-4.337367e+00
-4.628790e+00
-4.882064e+00
-5.092398e+00
-5.239557e+00
-5.271922e+00
-5.383107e+00
0.000000e+00
-2.772038e-01
-5.769009e-01
-8.945558e-01
-1.211939e+00
-1.521818e+00
-1.819783e+00
-2.101768e+00
-2.363329e+00
-2.600000e+00
-2.807014e+00
-2.978744e+00
-3.107161e+00
-3.179751e+00
-3.183048e+00
-3.156025e+00
-3.270080e+00
0.000000e+00
-1.318321e-01
-2.760015e-01
-4.307095e-01
-5.888023e-01
-7.433248e-01
-8.915316e-01
-1.030497e+00
-1.156973e+00
-1.267089e+00
-1.356101e+00
-1.418275e+00
-1.447433e+00
-1.440509e+00
-1.412198e+00
-1.419332e+00
-1.505415e+00
0.000000e+00
-2.866020e-04
-6.256205e-04
-9.570048e-04
-1.172434e-03
-1.022020e-03
-1.220557e-05
2.756536e-03
8.768751e-03
2.024704e-02
4.010342e-02
7.128224e-02
1.146368e-01
1.638367e-01
1.981718e-01
1.898016e-01
1.320543e-01
0.000000e+00
1.313572e-01
2.749646e-01
4.290823e-01
5.867332e-01
7.413237e-01
8.908915e-01
1.033905e+00
1.169429e+00
1.297121e+00
1.417030e+00
1.528761e+00
1.629443e+00
1.710775e+00
1.758977e+00
1.763247e+00
1.733717e+00
0.000000e+00
2.769958e-01
5.764257e-01
8.937545e-01
1.210755e+00
1.520327e+00
1.818266e+00
2.100878e+00
2.364272e+00
2.604896e+00
2.819477e+00
3.004761e+00
3.156696e+00
3.269722e+00
3.337822e+00
3.360050e+00
3.353181e+00
0.000000e+00
4.580719e-01
9.567106e-01
1.435626e+00
1.910121e+00
2.374784e+00
2.821980e+00
3.245083e+00
3.637037e+00
3.990677e+00
4.298983e+00
4.555658e+00
4.755802e+00
4.897091e+00
4.981591e+00
5.017663e+00
5.024302e+00
0.000000e+00
7.964921e-01
1.461292e+00
2.091766e+00
2.722649e+00
3.343176e+00
3.941903e+00
4.508473e+00
5.032716e+00
5.503927e+00
5.910886e+00
6.242600e+00
6.489839e+00
6.648517e+00
6.725339e+00
6.744237e+00
6.743831e+00
0.000000e+00
-4.870213e-01
-9.808236e-01
-1.629090e+00
-2.431076e+00
-3.389350e+00
-4.500499e+00
-5.757522e+00
-7.150405e+00
-8.667486e+00
-1.029667e+01
-1.202767e+01
-1.385625e+01
-1.579342e+01
-1.789574e+01
-2.034135e+01
-2.396649e+01
0.000000e+00
-3.025886e-01
-8.166434e-01
-1.463337e+00
-2.267040e+00
-3.229697e+00
-4.347870e+00
-5.614020e+00
-7.017793e+00
-8.547048e+00
-1.018893e+01
-1.193218e+01
-1.377154e+01
-1.571786e+01
-1.782127e+01
-2.025225e+01
-2.328445e+01
0.000000e+00
-2.361733e-01
-7.039583e-01
-1.347027e+00
-2.151079e+00
-3.117160e+00
-4.240752e+00
-5.514075e+00
-6.926843e+00
-8.466975e+00
-1.012168e+01
-1.187983e+01
-1.373654e+01
-1.570090e+01
-1.780763e+01
-2.009728e+01
-2.229938e+01
0.000000e+00
-2.138154e-01
-6.509474e-01
-1.280168e+00
-2.083263e+00
-3.051486e+00
-4.179060e+00
-5.458002e+00
-6.878341e+00
-8.428316e+00
-1.009532e+01
-1.186784e+01
-1.373832e+01
-1.570532e+01
-1.776398e+01
-1.984408e+01
-2.173169e+01
0.000000e+00
-2.084364e-01
-6.356898e-01
-1.259463e+00
-2.061403e+00
-3.030992e+00
-4.160981e+00
-5.443746e+00
-6.869621e+00
-8.427076e+00
-1.010312e+01
-1.188417e+01
-1.375650e+01
-1.570317e+01
-1.768832e+01
-1.963026e+01
-2.138921e+01
0.000000e+00
-2.136387e-01
-6.508500e-01
-1.280436e+00
-2.084363e+00
-3.054225e+00
-4.184802e+00
-5.468826e+00
-6.897025e+00
-8.457849e+00
-1.013736e+01
-1.191890e+01
-1.378182e+01
-1.569729e+01
-1.762046e+01
-1.948333e+01
-2.119644e+01
0.000000e+00
-2.358790e-01
-7.037871e-01
-1.347458e+00
-2.152876e+00
-3.121702e+00
-4.250359e+00
-5.532287e+00
-6.958409e+00
-8.517061e+00
-1.019333e+01
-1.196796e+01
-1.381537e+01
-1.570092e+01
-1.757943e+01
-1.939924e+01
-2.111101e+01
0.000000e+00
-3.022872e-01
-8.164739e-01
-1.463845e+00
-2.269109e+00
-3.234937e+00
-4.358938e+00
-5.634936e+00
-7.053885e+00
-8.604007e+00
-1.026991e+01
-1.203115e+01
-1.386017e+01
-1.572066e+01
-1.756907e+01
-1.936436e+01
-2.109100e+01
0.000000e+00
-4.868324e-01
-9.807849e-01
-1.629753e+00
-2.433380e+00
-3.394895e+00
-4.511826e+00
-5.778303e+00
-7.185211e+00
-8.720629e+00
-1.036905e+01
-1.210996e+01
-1.391606e+01
-1.575216e+01
-1.757777e+01
-1.935796e+01
-2.109136e+01


0.000000e+00
6.096258e-06
1.238516e-05
1.809061e-05
2.335342e-05
2.787063e-05
3.148094e-05
3.444719e-05
3.683165e-05
3.857133e-05
3.975180e-05
4.053706e-05
4.107804e-05
4.150754e-05
4.194079e-05
4.255481e-05
4.335883e-05
0.000000e+00
4.390212e-06
9.881283e-06
1.430747e-05
1.826189e-05
2.158921e-05
2.418991e-05
2.630138e-05
2.800186e-05
2.919241e-05
2.994203e-05
3.039291e-05
3.063549e-05
3.072226e-05
3.081876e-05
3.131173e-05
3.214034e-05
0.000000e+00
3.283419e-06
6.868860e-06
9.853063e-06
1.250209e-05
1.469093e-05
1.640714e-05
1.776613e-05
1.881424e-05
1.952373e-05
1.994887e-05
2.016976e-05
2.024936e-05
2.026210e-05
2.035099e-05
2.075062e-05
2.141663e-05
0.000000e+00
1.663716e-06
3.255597e-06
4.810491e-06
6.160306e-06
7.275244e-06
8.158161e-06
8.841437e-06
9.332956e-06
9.661902e-06
9.855993e-06
9.947095e-06
9.983010e-06
1.002567e-05
1.012972e-05
1.036060e-05
1.073620e-05
0.000000e+00
-2.446373e-09
-5.230999e-09
-8.586410e-09
-1.274395e-08
-1.856044e-08
-2.754869e-08
-4.182584e-08
-6.264114e-08
-8.950172e-08
-1.190254e-07
-1.423400e-07
-1.433745e-07
-1.071782e-07
-4.311826e-08
4.935557e-08
2.183928e-07
0.000000e+00
-1.668096e-06
-3.264884e-06
-4.825452e-06
-6.182405e-06
-7.306527e-06
-8.203177e-06
-8.906619e-06
-9.426403e-06
-9.792749e-06
-1.003144e-05
-1.016643e-05
-1.022493e-05
-1.023597e-05
-1.023277e-05
-1.021885e-05
-1.015524e-05
0.000000e+00
-3.286237e-06
-6.875670e-06
-9.864187e-06
-1.251851e-05
-1.471518e-05
-1.643933e-05
-1.780096e-05
-1.884571e-05
-1.955286e-05
-1.998482e-05
-2.022968e-05
-2.035796e-05
-2.042426e-05
-2.046446e-05
-2.048330e-05
-2.046681e-05
0.000000e+00
-4.391407e-06
-9.886382e-06
-1.431509e-05
-1.827339e-05
-2.160873e-05
-2.421394e-05
-2.631193e-05
-2.797780e-05
-2.912570e-05
-2.983707e-05
-3.026333e-05
-3.051353e-05
-3.065865e-05
-3.074195e-05
-3.078207e-05
-3.078807e-05
0.000000e+00
-6.098888e-06
-1.239077e-05
-1.809611e-05
-2.336007e-05
-2.788069e-05
-3.148842e-05
-3.442981e-05
-3.676376e-05
-3.844029e-05
-3.955287e-05
-4.026136e-05
-4.069804e-05
-4.095524e-05
-4.109153e-05
-4.114405e-05
-4.115303e-05
0.000000e+00
5.437277e-06
9.528780e-06
1.411905e-05
1.986024e-05
2.658610e-05
3.424902e-05
4.278988e-05
5.193606e-05
6.148676e-05
7.138090e-05
8.155033e-05
9.194094e-05
1.026307e-04
1.140748e-04
1.266207e-04
1.394620e-04
0.000000e+00
2.797184e-06
6.913220e-06
1.167526e-05
1.767273e-05
2.479494e-05
3.283059e-05
4.163777e-05
5.106022e-05
6.089472e-05
7.100923e-05
8.132480e-05
9.180495e-05
1.024927e-04
1.135805e-04
1.255759e-04
1.380954e-04
0.000000e+00
1.244303e-06
4.858666e-06
9.851366e-06
1.607486e-05
2.348258e-05
3.179560e-05
4.082254e-05
5.044440e-05
6.048274e-05
7.076305e-05
8.119423e-05
9.174191e-05
1.023807e-04
1.130900e-04
1.244729e-04
1.364919e-04
0.000000e+00
7.137506e-07
3.954497e-06
8.959956e-06
1.531376e-05
2.284179e-05
3.128341e-05
4.043843e-05
5.016303e-05
6.028776e-05
7.064711e-05
8.113703e-05
9.170001e-05
1.022740e-04
1.128111e-04
1.237545e-04
1.351809e-04
0.000000e+00
6.035650e-07
3.716626e-06
8.681698e-06
1.508171e-05
2.264233e-05
3.112520e-05
4.032729e-05
5.008794e-05
6.023801e-05
7.062074e-05
8.112292e-05
9.167226e-05
1.022093e-04
1.127140e-04
1.234207e-04
1.343303e-04
0.000000e+00
7.141203e-07
3.954625e-06
8.959349e-06
1.531209e-05
2.284092e-05
3.128810e-05
4.045347e-05
5.018992e-05
6.032462e-05
7.068782e-05
8.116523e-05
9.168650e-05
1.022043e-04
1.127108e-04
1.232881e-04
1.338752e-04
0.000000e+00
1.244677e-06
4.858868e-06
9.850813e-06
1.607302e-05
2.348315e-05
3.180684e-05
4.085256e-05
5.049623e-05
6.055421e-05
7.084575e-05
8.126335e-05
9.174155e-05
1.022365e-04
1.127302e-04
1.232305e-04
1.336724e-04
0.000000e+00
2.798338e-06
6.915252e-06
1.167707e-05
1.767480e-05
2.480141e-05
3.284785e-05
4.167275e-05
5.111761e-05
6.097559e-05
7.110737e-05
8.141641e-05
9.182599e-05
1.022821e-04
1.127507e-04
1.232064e-04
1.336067e-04
0.000000e+00
5.440551e-06
9.533400e-06
1.412387e-05
1.986776e-05
2.659905e-05
3.426744e-05
4.281517e-05
5.197492e-05
6.154561e-05
7.145624e-05
8.161971e-05
9.193816e-05
1.023397e-04
1.127753e-04
1.232047e-04
1.335969e-04


2.160109e+00
2.153485e+00
2.249628e+00
2.441678e+00
2.620108e+00
2.786067e+00
2.936446e+00
3.067526e+00
3.175522e+00
3.257939e+00
3.315559e+00
3.350310e+00
3.359192e+00
3.322452e+00
3.245383e+00
3.186935e+00
2.507527e+00
2.484502e+00
2.549877e+00
2.672979e+00
2.798057e+00
2.918678e+00
3.033311e+00
3.135009e+00
3.220367e+00
3.286131e+00
3.331999e+00
3.358989e+00
3.363107e+00
3.323623e+00
3.247443e+00
3.189994e+00
2.932411e+00
2.920123e+00
2.942381e+00
3.000900e+00
3.059644e+00
3.125372e+00
3.187695e+00
3.243744e+00
3.291800e+00
3.329337e+00
3.355370e+00
3.370007e+00
3.369437e+00
3.336630e+00
3.275838e+00
3.231755e+00
3.182469e+00
3.171157e+00
3.179294e+00
3.201074e+00
3.230499e+00
3.261841e+00
3.290524e+00
3.315865e+00
3.337663e+00
3.354942e+00
3.366967e+00
3.373751e+00
3.373205e+00
3.355688e+00
3.322894e+00
3.299142e+00
3.182444e+00
3.171118e+00
3.179194e+00
3.200785e+00
3.229908e+00
3.260919e+00
3.289218e+00
3.314010e+00
3.335113e+00
3.351760e+00
3.363596e+00
3.371278e+00
3.374826e+00
3.370964e+00
3.360127e+00
3.351974e+00
2.932294e+00
2.920095e+00
2.942007e+00
3.000022e+00
3.058038e+00
3.123314e+00
3.185340e+00
3.240744e+00
3.287644e+00
3.323912e+00
3.349439e+00
3.366062e+00
3.376257e+00
3.381002e+00
3.381526e+00
3.380948e+00
2.507143e+00
2.483991e+00
2.549035e+00
2.671455e+00
2.796290e+00
2.917191e+00
3.032740e+00
3.135129e+00
3.220441e+00
3.285540e+00
3.330934e+00
3.359903e+00
3.377213e+00
3.386920e+00
3.391793e+00
3.393719e+00
2.158911e+00
2.152554e+00
2.248003e+00
2.439911e+00
2.618712e+00
2.785809e+00
2.938120e+00
3.071111e+00
3.180309e+00
3.262957e+00
3.320384e+00
3.356761e+00
3.378054e+00
3.389794e+00
3.395746e+00
3.398226e+00


-3.875042e-01
-1.879505e-01
-7.659514e-02
-6.941290e-02
-3.131590e-02
3.953580e-02
1.339258e-01
2.440194e-01
3.610835e-01
4.754267e-01
5.770575e-01
6.577505e-01
7.125129e-01
7.398593e-01
7.652096e-01
-7.524567e-03
5.032838e-01
3.917722e-01
3.975612e-01
4.026396e-01
4.230673e-01
4.588518e-01
5.066497e-01
5.651605e-01
6.316888e-01
7.032352e-01
7.764192e-01
8.480300e-01
9.136897e-01
9.584927e-01
8.602672e-01
-4.832722e-01
8.257305e-01
7.541015e-01
7.096004e-01
6.998602e-01
7.034455e-01
7.130791e-01
7.288401e-01
7.511910e-01
7.799431e-01
8.140435e-01
8.501023e-01
8.800945e-01
8.867615e-01
8.320866e-01
6.383586e-01
2.918962e-01
9.528816e-01
9.017344e-01
8.635579e-01
8.449448e-01
8.366107e-01
8.310119e-01
8.273923e-01
8.258838e-01
8.264183e-01
8.277870e-01
8.262297e-01
8.142135e-01
7.814030e-01
7.254077e-01
6.816948e-01
6.730437e-01
9.531709e-01
9.021153e-01
8.639244e-01
8.449735e-01
8.356828e-01
8.280056e-01
8.204767e-01
8.123672e-01
8.028786e-01
7.909277e-01
7.752279e-01
7.557215e-01
7.381596e-01
7.413436e-01
7.879184e-01
8.671154e-01
8.263649e-01
7.549413e-01
7.104582e-01
7.001565e-01
7.019669e-01
7.075973e-01
7.156625e-01
7.248469e-01
7.332169e-01
7.393479e-01
7.435635e-01
7.504289e-01
7.707640e-01
8.167079e-01
8.866356e-01
9.589069e-01
5.036614e-01
3.921552e-01
3.980137e-01
4.029581e-01
4.225777e-01
4.566660e-01
5.013009e-01
5.546405e-01
6.130473e-01
6.725426e-01
7.298172e-01
7.845591e-01
8.403330e-01
9.004314e-01
9.571215e-01
9.928475e-01
-3.880268e-01
-1.895914e-01
-7.812785e-02
-7.137046e-02
-3.359232e-02
3.841016e-02
1.372402e-01
2.580785e-01
3.950999e-01
5.401794e-01
6.821155e-01
8.078349e-01
9.046779e-01
9.654150e-01
9.932238e-01
9.998579e-01
1 2 19 18
2 3 20 19
3 4 21 20
4 5 22 21
5 6 23 22
6 7 24 23
7 8 25 24
8 9 26 25
9 10 27 26
10 11 28 27
11 12 29 28
12 13 30 29
13 14 31 30
14 15 32 31
15 16 33 32
16 17 34 33
18 19 36 35
19 20 37 36
20 21 38 37
21 22 39 38
22 23 40 39
23 24 41 40
24 25 42 41
25 26 43 42
26 27 44 43
27 28 45 44
28 29 46 45
29 30 47 46
30 31 48 47
31 32 49 48
32 33 50 49
33 34 51 50
35 36 53 52
36 37 54 53
37 38 55 54
38 39 56 55
39 40 57 56
40 41 58 57
41 42 59 58
42 43 60 59
43 44 61 60
44 45 62 61
45 46 63 62
46 47 64 63
47 48 65 64
48 49 66 65
49 50 67 66
50 51 68 67
52 53 70 69
53 54 71 70
54 55 72 71
55 56 73 72
56 57 74 73
57 58 75 74
58 59 76 75
59 60 77 76
60 61 78 77
61 62 79 78
62 63 80 79
63 64 81 80
64 65 82 81
65 66 83 82
66 67 84 83
67 68 85 84
69 70 87 86
70 71 88 87
71 72 89 88
72 73 90 89
73 74 91 90
74 75 92 91
75 76 93 92
76 77 94 93
77 78 95 94
78 79 96 95
79 80 97 96
80 81 98 97
81 82 99 98
82 83 100 99
83 84 101 100
84 85 102 101
86 87 104 103
87 88 105 104
88 89 106 105
89 90 107 106
90 91 108 107
91 92 109 108
92 93 110 109
93 94 111 110
94 95 112 111
95 96 113 112
96 97 114 113
97 98 115 114
98 99 116 115
99 100 117 116
100 101 118 117
101 102 119 118
103 104 121 120
104 105 122 121
105 106 123 122
106 107 124 123
107 108 125 124
108 109 126 125
109 110 127 126
110 111 128 127
111 112 129 128
112 113 130 129
113 114 131 130
114 115 132 131
115 116 133 132
116 117 134 133
117 118 135 134
118 119 136 135
120 121 138 137
121 122 139 138
122 123 140 139
123 124 141 140
124 125 142 141
125 126 143 142
126 127 144 143
127 128 145 144
128 129 146 145
129 130 147 146
130 131 148 147
131 132 149 148
132 133 150 149
133 134 151 150
134 135 152 151
135 136 153 152
