TITLE = "Solution"
VARIABLES = x, y, u, v, psiu, psiv, t, stress
ZONE T="structure" N=153 E=128 F=FEBLOCK ET=QUADRILATERAL VARLOCATION=([7,8]=cellcentered)
0.000000e+00
1.250000e+01
2.500000e+01
3.750000e+01
5.000000e+01
6.250000e+01
7.500000e+01
8.750000e+01
1.000000e+02
1.125000e+02
1.250000e+02
1.375000e+02
1.500000e+02
1.625000e+02
1.750000e+02
1.875000e+02
2.000000e+02
0.000000e+00
1.250000e+01
2.500000e+01
3.750000e+01
5.000000e+01
6.250000e+01
7.500000e+01
8.750000e+01
1.000000e+02
1.125000e+02
1.250000e+02
1.375000e+02
1.500000e+02
1.625000e+02
1.750000e+02
1.875000e+02
2.000000e+02
0.000000e+00
1.250000e+01
2.500000e+01
3.750000e+01
5.000000e+01
6.250000e+01
7.500000e+01
8.750000e+01
1.000000e+02
1.125000e+02
1.250000e+02
1.375000e+02
1.500000e+02
1.625000e+02
1.750000e+02
1.875000e+02
2.000000e+02
0.000000e+00
1.250000e+01
2.500000e+01
3.750000e+01
5.000000e+01
6.250000e+01
7.500000e+01
8.750000e+01
1.000000e+02
1.125000e+02
1.250000e+02
1.375000e+02
1.500000e+02
1.625000e+02
1.750000e+02
1.875000e+02
2.000000e+02
0.000000e+00
1.250000e+01
2.500000e+01
3.750000e+01
5.000000e+01
6.250000e+01
7.500000e+01
8.750000e+01
1.000000e+02
1.125000e+02
1.250000e+02
1.375000e+02
1.500000e+02
1.625000e+02
1.750000e+02
1.875000e+02
2.000000e+02
0.000000e+00
1.250000e+01
2.500000e+01
3.750000e+01
5.000000e+01
6.250000e+01
7.500000e+01
8.750000e+01
1.000000e+02
1.125000e+02
1.250000e+02
1.375000e+02
1.500000e+02
1.625000e+02
1.750000e+02
1.875000e+02
2.000000e+02
0.000000e+00
1.250000e+01
2.500000e+01
3.750000e+01
5.000000e+01
6.250000e+01
7.500000e+01
8.750000e+01
1.000000e+02
1.125000e+02
1.250000e+02
1.375000e+02
1.500000e+02
1.625000e+02
1.750000e+02
1.875000e+02
2.000000e+02
0.000000e+00
1.250000e+01
2.500000e+01
3.750000e+01
5.000000e+01
6.250000e+01
7.500000e+01
8.750000e+01
1.000000e+02
1.125000e+02
1.250000e+02
1.375000e+02
1.500000e+02
1.625000e+02
1.750000e+02
1.875000e+02
2.000000e+02
0.000000e+00
1.250000e+01
2.500000e+01
3.750000e+01
5.000000e+01
6.250000e+01
7.500000e+01
8.750000e+01
1.000000e+02
1.125000e+02
1.250000e+02
1.375000e+02
1.500000e+02
1.625000e+02
1.750000e+02
1.875000e+02
2.000000e+02
0.000000e+00
0.000000e+00
0.000000e+00
0.000000e+00
0.000000e+00
0.000000e+00
0.000000e+00
0.000000e+00
0.000000e+00
0.000000e+00
0.000000e+00
0.000000e+00
0.000000e+00
0.000000e+00
0.000000e+00
0.000000e+00
0.000000e+00
1.250000e+01
1.250000e+01
1.250000e+01
1.250000e+01
1.250000e+01
1.250000e+01
1.250000e+01
1.250000e+01
1.250000e+01
1.250000e+01
1.250000e+01
1.250000e+01
1.250000e+01
1.250000e+01
1.250000e+01
1.250000e+01
1.250000e+01
2.500000e+01
2.500000e+01
2.500000e+01
2.500000e+01
2.500000e+01
2.500000e+01
2.500000e+01
2.500000e+01
2.500000e+01
2.500000e+01
2.500000e+01
2.500000e+01
2.500000e+01
2.500000e+01
2.500000e+01
2.500000e+01
2.500000e+01
3.750000e+01
3.750000e+01
3.750000e+01
3.750000e+01
3.750000e+01
3.750000e+01
3.750000e+01
3.750000e+01
3.750000e+01
3.750000e+01
3.750000e+01
3.750000e+01
3.750000e+01
3.750000e+01
3.750000e+01
3.750000e+01
3.750000e+01
5.000000e+01
5.000000e+01
5.000000e+01
5.000000e+01
5.000000e+01
5.000000e+01
5.000000e+01
5.000000e+01
5.000000e+01
5.000000e+01
5.000000e+01
5.000000e+01
5.000000e+01
5.000000e+01
5.000000e+01
5.000000e+01
5.000000e+01
6.250000e+01
6.250000e+01
6.250000e+01
6.250000e+01
6.250000e+01
6.250000e+01
6.250000e+01
6.250000e+01
6.250000e+01
6.250000e+01
6.250000e+01
6.250000e+01
6.250000e+01
6.250000e+01
6.250000e+01
6.250000e+01
6.250000e+01
7.500000e+01
7.500000e+01
7.500000e+01
7.500000e+01
7.500000e+01
7.500000e+01
7.500000e+01
7.500000e+01
7.500000e+01
7.500000e+01
7.500000e+01
7.500000e+01
7.500000e+01
7.500000e+01
7.500000e+01
7.500000e+01
7.500000e+01
8.750000e+01
8.750000e+01
8.750000e+01
8.750000e+01
8.750000e+01
8.750000e+01
8.750000e+01
8.750000e+01
8.750000e+01
8.750000e+01
8.750000e+01
8.750000e+01
8.750000e+01
8.750000e+01
8.750000e+01
8.750000e+01
8.750000e+01
1.000000e+02
1.000000e+02
1.000000e+02
1.000000e+02
1.000000e+02
1.000000e+02
1.000000e+02
1.000000e+02
1.000000e+02
1.000000e+02
1.000000e+02
1.000000e+02
1.000000e+02
1.000000e+02
1.000000e+02
1.000000e+02
1.000000e+02
0.000000e+00
-8.427996e-01
-1.504506e+00
-2.144495e+00
-2.803324e+00
-3.441392e+00
-4.065881e+00
-4.689886e+00
-5.310615e+00
-5.921843e+00
-6.522869e+00
-7.115556e+00
-7.699779e+00
-8.279134e+00
-8.861545e+00
-9.462838e+00
-9.870879e+00
0.000000e+00
-4.508621e-01
-9.274895e-01
-1.399854e+00
-1.892527e+00
-2.371834e+00
-2.840343e+00
-3.307950e+00
-3.771978e+00
-4.226145e+00
-4.668207e+00
-5.095829e+00
-5.497956e+00
-5.847771e+00
-6.086194e+00
-6.141337e+00
-6.281534e+00
0.000000e+00
-2.360115e-01
-4.983698e-01
-8.019393e-01
-1.127090e+00
-1.448872e+00
-1.767370e+00
-2.084268e+00
-2.394798e+00
-2.692956e+00
-2.973937e+00
-3.228568e+00
-3.436575e+00
-3.566705e+00
-3.588561e+00
-3.560639e+00
-3.703633e+00
0.000000e+00
-9.702803e-02
-2.121518e-01
-3.558699e-01
-5.146858e-01
-6.767306e-01
-8.394168e-01
-9.996539e-01
-1.152512e+00
-1.292663e+00
-1.413784e+00
-1.504935e+00
-1.550472e+00
-1.539740e+00
-1.493300e+00
-1.497595e+00
-1.613499e+00
0.000000e+00
-9.406829e-04
-2.047835e-03
-3.183826e-03
-4.045401e-03
-4.197913e-03
-2.898581e-03
1.183066e-03
1.028952e-02
2.799030e-02
5.962708e-02
1.114495e-01
1.862117e-01
2.742603e-01
3.411684e-01
3.391152e-01
2.540743e-01
0.000000e+00
9.559207e-02
2.090202e-01
3.508518e-01
5.080225e-01
6.697194e-01
8.346838e-01
1.001772e+00
1.169459e+00
1.338043e+00
1.509357e+00
1.682360e+00
1.848336e+00
1.989069e+00
2.077931e+00
2.092193e+00
2.045346e+00
0.000000e+00
2.354903e-01
4.970805e-01
7.994477e-01
1.123143e+00
1.444112e+00
1.763050e+00
2.081965e+00
2.397319e+00
2.705275e+00
3.002456e+00
3.280637e+00
3.523845e+00
3.712960e+00
3.831119e+00
3.871500e+00
3.860236e+00
0.000000e+00
4.512598e-01
9.278672e-01
1.399714e+00
1.891459e+00
2.369740e+00
2.836605e+00
3.300538e+00
3.757929e+00
4.200714e+00
4.619139e+00
4.997046e+00
5.311967e+00
5.544808e+00
5.688677e+00
5.751425e+00
5.763083e+00
0.000000e+00
8.438027e-01
1.506183e+00
2.146746e+00
2.806182e+00
3.444860e+00
4.068891e+00
4.689287e+00
5.301131e+00
5.892919e+00
6.447629e+00
6.937231e+00
7.326242e+00
7.587600e+00
7.718462e+00
7.751354e+00
7.750636e+00
0.000000e+00
-5.192072e-01
-1.079130e+00
-1.822714e+00
-2.730869e+00
-3.796812e+00
-5.025945e+00
-6.419042e+00
-7.972763e+00
-9.684924e+00
-1.155480e+01
-1.358033e+01
-1.575910e+01
-1.809790e+01
-2.065279e+01
-2.362720e+01
-2.800394e+01
0.000000e+00
-3.309720e-01
-9.183622e-01
-1.653434e+00
-2.561327e+00
-3.631723e+00
-4.862672e+00
-6.256605e+00
-7.812788e+00
-9.528602e+00
-1.140265e+01
-1.343393e+01
-1.562193e+01
-1.797857e+01
-2.055381e+01
-2.352705e+01
-2.717893e+01
0.000000e+00
-2.754708e-01
-8.133372e-01
-1.540363e+00
-2.443840e+00
-3.514203e+00
-4.746839e+00
-6.143638e+00
-7.704093e+00
-9.425628e+00
-1.130808e+01
-1.335281e+01
-1.556163e+01
-1.794770e+01
-2.054056e+01
-2.334878e+01
-2.600917e+01
0.000000e+00
-2.765666e-01
-7.759434e-01
-1.482623e+00
-2.377974e+00
-3.445234e+00
-4.679630e+00
-6.081260e+00
-7.648191e+00
-9.378184e+00
-1.127319e+01
-1.333555e+01
-1.556277e+01
-1.795280e+01
-2.048549e+01
-2.303262e+01
-2.528551e+01
0.000000e+00
-2.830945e-01
-7.702174e-01
-1.467964e+00
-2.358260e+00
-3.424798e+00
-4.661700e+00
-6.068276e+00
-7.641883e+00
-9.380862e+00
-1.128782e+01
-1.336237e+01
-1.559140e+01
-1.794899e+01
-2.037500e+01
-2.273127e+01
-2.478952e+01
0.000000e+00
-2.763630e-01
-7.762233e-01
-1.483928e+00
-2.381023e+00
-3.451510e+00
-4.691291e+00
-6.100761e+00
-7.678631e+00
-9.423894e+00
-1.133765e+01
-1.341423e+01
-1.562935e+01
-1.793803e+01
-2.026768e+01
-2.250138e+01
-2.448061e+01
0.000000e+00
-2.751410e-01
-8.137379e-01
-1.542332e+00
-2.448733e+00
-3.524453e+00
-4.765873e+00
-6.175564e+00
-7.754259e+00
-9.501345e+00
-1.141534e+01
-1.348513e+01
-1.567865e+01
-1.794132e+01
-2.019895e+01
-2.236069e+01
-2.433531e+01
0.000000e+00
-3.306992e-01
-9.187593e-01
-1.655477e+00
-2.566736e+00
-3.643260e+00
-4.884030e+00
-6.292412e+00
-7.869246e+00
-9.613593e+00
-1.152157e+01
-1.357796e+01
-1.574712e+01
-1.797208e+01
-2.018069e+01
-2.230032e+01
-2.430035e+01
0.000000e+00
-5.191634e-01
-1.079604e+00
-1.824808e+00
-2.736409e+00
-3.808523e+00
-5.047186e+00
-6.454108e+00
-8.027484e+00
-9.765323e+00
-1.166142e+01
-1.369723e+01
-1.583623e+01
-1.802435e+01
-2.019553e+01
-2.228910e+01
-2.430097e+01


0.000000e+00
1.383567e-05
2.822406e-05
4.270585e-05
5.829010e-05
7.425687e-05
8.989454e-05
1.046126e-04
1.178272e-04
1.292862e-04
1.391491e-04
1.474968e-04
1.540753e-04
1.588589e-04
1.623189e-04
1.660208e-04
1.705956e-04
0.000000e+00
9.976501e-06
2.244272e-05
3.349122e-05
4.522451e-05
5.748121e-05
6.944883e-05
8.047016e-05
9.004873e-05
9.805326e-05
1.046782e-04
1.099287e-04
1.133648e-04
1.146782e-04
1.151720e-04
1.181469e-04
1.231107e-04
0.000000e+00
7.701308e-06
1.601300e-05
2.348372e-05
3.143815e-05
3.960392e-05
4.742188e-05
5.442805e-05
6.034221e-05
6.508983e-05
6.872476e-05
7.119564e-05
7.233725e-05
7.239595e-05
7.268424e-05
7.532049e-05
7.987125e-05
0.000000e+00
3.893230e-06
7.441766e-06
1.141373e-05
1.548588e-05
1.944840e-05
2.313355e-05
2.638328e-05
2.905803e-05
3.104792e-05
3.228944e-05
3.278876e-05
3.277113e-05
3.280157e-05
3.349737e-05
3.553329e-05
3.885797e-05
0.000000e+00
-3.180927e-09
-1.606933e-08
-4.727300e-08
-1.029139e-07
-1.879242e-07
-3.116417e-07
-4.948151e-07
-7.786226e-07
-1.224705e-06
-1.880306e-06
-2.691344e-06
-3.411897e-06
-3.630937e-06
-3.161497e-06
-2.099404e-06
-3.025609e-07
0.000000e+00
-3.906568e-06
-7.477934e-06
-1.148794e-05
-1.562356e-05
-1.969964e-05
-2.356460e-05
-2.707349e-05
-3.011952e-05
-3.266435e-05
-3.473859e-05
-3.639915e-05
-3.765885e-05
-3.842893e-05
-3.876796e-05
-3.873849e-05
-3.810469e-05
0.000000e+00
-7.706000e-06
-1.603653e-05
-2.352180e-05
-3.147332e-05
-3.966461e-05
-4.755366e-05
-5.463541e-05
-6.058537e-05
-6.527831e-05
-6.876586e-05
-7.124780e-05
-7.302127e-05
-7.430834e-05
-7.518891e-05
-7.563561e-05
-7.559087e-05
0.000000e+00
-9.961951e-06
-2.244118e-05
-3.349193e-05
-4.518221e-05
-5.740424e-05
-6.936635e-05
-8.035442e-05
-8.981077e-05
-9.745832e-05
-1.032728e-04
-1.074196e-04
-1.102359e-04
-1.120871e-04
-1.132074e-04
-1.137280e-04
-1.138351e-04
0.000000e+00
-1.382503e-05
-2.821205e-05
-4.267433e-05
-5.818531e-05
-7.406800e-05
-8.962042e-05
-1.042068e-04
-1.172110e-04
-1.282593e-04
-1.372176e-04
-1.440250e-04
-1.486992e-04
-1.514227e-04
-1.525990e-04
-1.528473e-04
-1.528307e-04
0.000000e+00
1.222645e-05
2.196458e-05
3.410039e-05
5.041557e-05
7.050941e-05
9.415076e-05
1.211742e-04
1.513686e-04
1.845730e-04
2.205688e-04
2.589473e-04
2.994028e-04
3.424953e-04
3.912567e-04
4.469960e-04
5.038439e-04
0.000000e+00
6.228323e-06
1.583270e-05
2.755510e-05
4.337787e-05
6.339407e-05
8.734575e-05
1.150006e-04
1.460448e-04
1.801066e-04
2.168796e-04
2.561033e-04
2.975597e-04
3.413187e-04
3.881252e-04
4.408052e-04
4.958992e-04
0.000000e+00
2.487844e-06
1.084855e-05
2.261057e-05
3.818356e-05
5.819958e-05
8.247266e-05
1.106786e-04
1.423929e-04
1.771274e-04
2.145174e-04
2.543847e-04
2.965903e-04
3.405184e-04
3.847299e-04
4.334555e-04
4.856691e-04
0.000000e+00
1.293742e-06
8.608803e-06
2.024532e-05
3.591582e-05
5.603795e-05
8.048871e-05
1.089203e-04
1.409044e-04
1.759495e-04
2.136242e-04
2.537112e-04
2.960843e-04
3.397218e-04
3.824147e-04
4.274574e-04
4.755063e-04
0.000000e+00
1.081277e-06
7.997349e-06
1.945951e-05
3.524324e-05
5.544670e-05
7.996560e-05
1.084760e-04
1.405715e-04
1.757559e-04
2.135340e-04
2.536325e-04
2.958806e-04
3.392255e-04
3.814378e-04
4.239911e-04
4.675997e-04
0.000000e+00
1.295748e-06
8.612941e-06
2.025931e-05
3.593198e-05
5.605423e-05
8.053213e-05
1.090380e-04
1.411538e-04
1.763746e-04
2.141932e-04
2.542772e-04
2.963277e-04
3.392480e-04
3.813350e-04
4.225612e-04
4.629875e-04
0.000000e+00
2.490464e-06
1.085381e-05
2.262829e-05
3.820595e-05
5.823149e-05
8.255774e-05
1.108849e-04
1.428158e-04
1.778765e-04
2.156009e-04
2.555854e-04
2.973200e-04
3.397185e-04
3.814036e-04
4.219118e-04
4.611043e-04
0.000000e+00
6.234782e-06
1.584626e-05
2.757525e-05
4.339998e-05
6.344007e-05
8.746062e-05
1.152375e-04
1.464831e-04
1.808431e-04
2.179498e-04
2.573857e-04
2.985191e-04
3.402940e-04
3.815208e-04
4.216257e-04
4.607152e-04
0.000000e+00
1.223596e-05
2.198793e-05
3.411877e-05
5.042857e-05
7.055929e-05
9.427156e-05
1.213902e-04
1.517115e-04
1.850312e-04
2.210955e-04
2.595495e-04
2.998135e-04
3.409036e-04
3.816933e-04
4.215732e-04
4.607231e-04


2.244481e+00
2.110158e+00
2.218532e+00
2.441346e+00
2.567389e+00
2.774098e+00
3.083608e+00
3.434354e+00
3.817577e+00
4.265612e+00
4.765735e+00
5.210125e+00
5.442296e+00
5.207830e+00
4.493299e+00
3.895867e+00
3.279542e+00
3.152911e+00
3.217303e+00
3.355710e+00
3.421478e+00
3.555386e+00
3.771901e+00
4.014004e+00
4.287547e+00
4.640270e+00
5.052596e+00
5.400130e+00
5.528256e+00
5.192024e+00
4.422813e+00
3.798212e+00
4.789346e+00
4.714640e+00
4.722527e+00
4.750873e+00
4.734329e+00
4.774444e+00
4.855771e+00
4.931784e+00
5.029827e+00
5.213119e+00
5.452443e+00
5.619757e+00
5.607748e+00
5.256774e+00
4.602547e+00
4.113956e+00
5.719574e+00
5.677365e+00
5.648826e+00
5.598944e+00
5.553107e+00
5.546073e+00
5.541768e+00
5.501386e+00
5.467747e+00
5.512031e+00
5.601074e+00
5.628225e+00
5.560960e+00
5.361398e+00
5.042813e+00
4.812244e+00
5.723671e+00
5.678417e+00
5.643980e+00
5.588876e+00
5.540819e+00
5.528768e+00
5.508914e+00
5.444007e+00
5.384032e+00
5.401845e+00
5.467728e+00
5.496381e+00
5.496890e+00
5.505168e+00
5.498612e+00
5.485748e+00
4.797509e+00
4.716689e+00
4.712811e+00
4.731064e+00
4.710582e+00
4.741711e+00
4.795068e+00
4.830821e+00
4.891889e+00
5.037955e+00
5.237555e+00
5.408664e+00
5.553966e+00
5.721243e+00
5.877456e+00
5.961212e+00
3.285022e+00
3.153443e+00
3.209183e+00
3.340807e+00
3.405259e+00
3.535923e+00
3.740745e+00
3.976307e+00
4.262945e+00
4.630029e+00
5.035612e+00
5.395203e+00
5.684638e+00
5.932878e+00
6.120869e+00
6.209489e+00
2.245672e+00
2.108504e+00
2.212647e+00
2.433124e+00
2.560715e+00
2.770551e+00
3.086480e+00
3.464587e+00
3.907612e+00
4.419851e+00
4.951278e+00
5.418711e+00
5.781512e+00
6.050616e+00
6.221547e+00
6.291914e+00


-4.732286e-01
-1.444033e-01
-8.583480e-02
-1.621414e-01
-9.676230e-02
-5.138560e-02
-4.975678e-02
-3.764766e-02
-1.918390e-03
3.947914e-02
8.318029e-02
1.488877e-01
2.539236e-01
4.189387e-01
6.154676e-01
-3.853912e-01
5.504931e-01
4.489377e-01
4.065371e-01
3.442231e-01
3.634720e-01
3.767277e-01
3.714361e-01
3.776237e-01
4.034759e-01
4.414449e-01
4.990687e-01
5.992697e-01
7.447947e-01
8.847925e-01
7.783805e-01
-1.047137e+00
8.418254e-01
7.372607e-01
6.409448e-01
5.876793e-01
5.786620e-01
5.723669e-01
5.652606e-01
5.685539e-01
5.837302e-01
6.057838e-01
6.384156e-01
6.828851e-01
7.000943e-01
6.081137e-01
3.300476e-01
-1.464310e-01
9.088365e-01
8.098414e-01
7.087192e-01
6.496036e-01
6.281967e-01
6.198989e-01
6.151211e-01
6.139055e-01
6.121084e-01
6.001968e-01
5.732228e-01
5.264493e-01
4.378082e-01
3.133109e-01
2.723240e-01
3.142811e-01
9.095980e-01
8.110721e-01
7.105041e-01
6.510251e-01
6.275437e-01
6.153391e-01
6.040081e-01
5.912463e-01
5.693040e-01
5.256497e-01
4.579940e-01
3.805897e-01
3.139431e-01
3.086389e-01
4.370141e-01
6.584952e-01
8.433625e-01
7.395204e-01
6.440765e-01
5.900695e-01
5.764578e-01
5.613171e-01
5.395505e-01
5.173672e-01
4.890164e-01
4.442031e-01
3.899590e-01
3.566626e-01
3.783246e-01
4.827702e-01
6.718712e-01
8.811455e-01
5.510923e-01
4.503215e-01
4.089610e-01
3.468552e-01
3.632358e-01
3.715428e-01
3.591557e-01
3.514122e-01
3.523776e-01
3.580632e-01
3.813051e-01
4.452347e-01
5.576559e-01
7.098953e-01
8.707305e-01
9.782078e-01
-4.759225e-01
-1.456533e-01
-8.593908e-02
-1.616818e-01
-9.647751e-02
-4.859259e-02
-3.862942e-02
-1.398307e-02
4.423010e-02
1.441542e-01
3.043359e-01
5.207263e-01
7.395073e-01
8.991821e-01
9.794129e-01
9.995633e-01
1 2 19 18
2 3 20 19
3 4 21 20
4 5 22 21
5 6 23 22
6 7 24 23
7 8 25 24
8 9 26 25
9 10 27 26
10 11 28 27
11 12 29 28
12 13 30 29
13 14 31 30
14 15 32 31
15 16 33 32
16 17 34 33
18 19 36 35
19 20 37 36
20 21 38 37
21 22 39 38
22 23 40 39
23 24 41 40
24 25 42 41
25 26 43 42
26 27 44 43
27 28 45 44
28 29 46 45
29 30 47 46
30 31 48 47
31 32 49 48
32 33 50 49
33 34 51 50
35 36 53 52
36 37 54 53
37 38 55 54
38 39 56 55
39 40 57 56
40 41 58 57
41 42 59 58
42 43 60 59
43 44 61 60
44 45 62 61
45 46 63 62
46 47 64 63
47 48 65 64
48 49 66 65
49 50 67 66
50 51 68 67
52 53 70 69
53 54 71 70
54 55 72 71
55 56 73 72
56 57 74 73
57 58 75 74
58 59 76 75
59 60 77 76
60 61 78 77
61 62 79 78
62 63 80 79
63 64 81 80
64 65 82 81
65 66 83 82
66 67 84 83
67 68 85 84
69 70 87 86
70 71 88 87
71 72 89 88
72 73 90 89
73 74 91 90
74 75 92 91
75 76 93 92
76 77 94 93
77 78 95 94
78 79 96 95
79 80 97 96
80 81 98 97
81 82 99 98
82 83 100 99
83 84 101 100
84 85 102 101
86 87 104 103
87 88 105 104
88 89 106 105
89 90 107 106
90 91 108 107
91 92 109 108
92 93 110 109
93 94 111 110
94 95 112 111
95 96 113 112
96 97 114 113
97 98 115 114
98 99 116 115
99 100 117 116
100 101 118 117
101 102 119 118
103 104 121 120
104 105 122 121
105 106 123 122
106 107 124 123
107 108 125 124
108 109 126 125
109 110 127 126
110 111 128 127
111 112 129 128
112 113 130 129
113 114 131 130
114 115 132 131
115 116 133 132
116 117 134 133
117 118 135 134
118 119 136 135
120 121 138 137
121 122 139 138
122 123 140 139
123 124 141 140
124 125 142 141
125 126 143 142
126 127 144 143
127 128 145 144
128 129 146 145
129 130 147 146
130 131 148 147
131 132 149 148
132 133 150 149
133 134 151 150
134 135 152 151
135 136 153 152
