TITLE = "Solution"
VARIABLES = x, y, u, v, psiu, psiv, t, stress
ZONE T="structure" N=153 E=128 F=FEBLOCK ET=QUADRILATERAL VARLOCATION=([7,8]=cellcentered)
0.000000e+00
1.250000e+01
2.500000e+01
3.750000e+01
5.000000e+01
6.250000e+01
7.500000e+01
8.750000e+01
1.000000e+02
1.125000e+02
1.250000e+02
1.375000e+02
1.500000e+02
1.625000e+02
1.750000e+02
1.875000e+02
2.000000e+02
0.000000e+00
1.250000e+01
2.500000e+01
3.750000e+01
5.000000e+01
6.250000e+01
7.500000e+01
8.750000e+01
1.000000e+02
1.125000e+02
1.250000e+02
1.375000e+02
1.500000e+02
1.625000e+02
1.750000e+02
1.875000e+02
2.000000e+02
0.000000e+00
1.250000e+01
2.500000e+01
3.750000e+01
5.000000e+01
6.250000e+01
7.500000e+01
8.750000e+01
1.000000e+02
1.125000e+02
1.250000e+02
1.375000e+02
1.500000e+02
1.625000e+02
1.750000e+02
1.875000e+02
2.000000e+02
0.000000e+00
1.250000e+01
2.500000e+01
3.750000e+01
5.000000e+01
6.250000e+01
7.500000e+01
8.750000e+01
1.000000e+02
1.125000e+02
1.250000e+02
1.375000e+02
1.500000e+02
1.625000e+02
1.750000e+02
1.875000e+02
2.000000e+02
0.000000e+00
1.250000e+01
2.500000e+01
3.750000e+01
5.000000e+01
6.250000e+01
7.500000e+01
8.750000e+01
1.000000e+02
1.125000e+02
1.250000e+02
1.375000e+02
1.500000e+02
1.625000e+02
1.750000e+02
1.875000e+02
2.000000e+02
0.000000e+00
1.250000e+01
2.500000e+01
3.750000e+01
5.000000e+01
6.250000e+01
7.500000e+01
8.750000e+01
1.000000e+02
1.125000e+02
1.250000e+02
1.375000e+02
1.500000e+02
1.625000e+02
1.750000e+02
1.875000e+02
2.000000e+02
0.000000e+00
1.250000e+01
2.500000e+01
3.750000e+01
5.000000e+01
6.250000e+01
7.500000e+01
8.750000e+01
1.000000e+02
1.125000e+02
1.250000e+02
1.375000e+02
1.500000e+02
1.625000e+02
1.750000e+02
1.875000e+02
2.000000e+02
0.000000e+00
1.250000e+01
2.500000e+01
3.750000e+01
5.000000e+01
6.250000e+01
7.500000e+01
8.750000e+01
1.000000e+02
1.125000e+02
1.250000e+02
1.375000e+02
1.500000e+02
1.625000e+02
1.750000e+02
1.875000e+02
2.000000e+02
0.000000e+00
1.250000e+01
2.500000e+01
3.750000e+01
5.000000e+01
6.250000e+01
7.500000e+01
8.750000e+01
1.000000e+02
1.125000e+02
1.250000e+02
1.375000e+02
1.500000e+02
1.625000e+02
1.750000e+02
1.875000e+02
2.000000e+02
0.000000e+00
0.000000e+00
0.000000e+00
0.000000e+00
0.000000e+00
0.000000e+00
0.000000e+00
0.000000e+00
0.000000e+00
0.000000e+00
0.000000e+00
0.000000e+00
0.000000e+00
0.000000e+00
0.000000e+00
0.000000e+00
0.000000e+00
1.250000e+01
1.250000e+01
1.250000e+01
1.250000e+01
1.250000e+01
1.250000e+01
1.250000e+01
1.250000e+01
1.250000e+01
1.250000e+01
1.250000e+01
1.250000e+01
1.250000e+01
1.250000e+01
1.250000e+01
1.250000e+01
1.250000e+01
2.500000e+01
2.500000e+01
2.500000e+01
2.500000e+01
2.500000e+01
2.500000e+01
2.500000e+01
2.500000e+01
2.500000e+01
2.500000e+01
2.500000e+01
2.500000e+01
2.500000e+01
2.500000e+01
2.500000e+01
2.500000e+01
2.500000e+01
3.750000e+01
3.750000e+01
3.750000e+01
3.750000e+01
3.750000e+01
3.750000e+01
3.750000e+01
3.750000e+01
3.750000e+01
3.750000e+01
3.750000e+01
3.750000e+01
3.750000e+01
3.750000e+01
3.750000e+01
3.750000e+01
3.750000e+01
5.000000e+01
5.000000e+01
5.000000e+01
5.000000e+01
5.000000e+01
5.000000e+01
5.000000e+01
5.000000e+01
5.000000e+01
5.000000e+01
5.000000e+01
5.000000e+01
5.000000e+01
5.000000e+01
5.000000e+01
5.000000e+01
5.000000e+01
6.250000e+01
6.250000e+01
6.250000e+01
6.250000e+01
6.250000e+01
6.250000e+01
6.250000e+01
6.250000e+01
6.250000e+01
6.250000e+01
6.250000e+01
6.250000e+01
6.250000e+01
6.250000e+01
6.250000e+01
6.250000e+01
6.250000e+01
7.500000e+01
7.500000e+01
7.500000e+01
7.500000e+01
7.500000e+01
7.500000e+01
7.500000e+01
7.500000e+01
7.500000e+01
7.500000e+01
7.500000e+01
7.500000e+01
7.500000e+01
7.500000e+01
7.500000e+01
7.500000e+01
7.500000e+01
8.750000e+01
8.750000e+01
8.750000e+01
8.750000e+01
8.750000e+01
8.750000e+01
8.750000e+01
8.750000e+01
8.750000e+01
8.750000e+01
8.750000e+01
8.750000e+01
8.750000e+01
8.750000e+01
8.750000e+01
8.750000e+01
8.750000e+01
1.000000e+02
1.000000e+02
1.000000e+02
1.000000e+02
1.000000e+02
1.000000e+02
1.000000e+02
1.000000e+02
1.000000e+02
1.000000e+02
1.000000e+02
1.000000e+02
1.000000e+02
1.000000e+02
1.000000e+02
1.000000e+02
1.000000e+02
0.000000e+00
-6.915430e-02
-1.255365e-01
-1.753722e-01
-2.215433e-01
-2.648204e-01
-3.048650e-01
-3.413243e-01
-3.740204e-01
-4.027123e-01
-4.279740e-01
-4.507745e-01
-4.721443e-01
-4.935654e-01
-5.173602e-01
-5.462925e-01
-5.680418e-01
0.000000e+00
-4.156006e-02
-8.471269e-02
-1.228919e-01
-1.576372e-01
-1.899984e-01
-2.198969e-01
-2.472027e-01
-2.717199e-01
-2.932142e-01
-3.119489e-01
-3.284107e-01
-3.428369e-01
-3.550199e-01
-3.636698e-01
-3.655675e-01
-3.723053e-01
0.000000e+00
-2.547754e-02
-5.168261e-02
-7.693008e-02
-1.001645e-01
-1.217090e-01
-1.415530e-01
-1.596203e-01
-1.757184e-01
-1.896729e-01
-2.014936e-01
-2.111943e-01
-2.184609e-01
-2.225766e-01
-2.226941e-01
-2.210447e-01
-2.279101e-01
0.000000e+00
-1.184294e-02
-2.411515e-02
-3.617007e-02
-4.761184e-02
-5.822778e-02
-6.796761e-02
-7.672131e-02
-8.436037e-02
-9.073935e-02
-9.574212e-02
-9.918202e-02
-1.007605e-01
-1.003054e-01
-9.863832e-02
-9.906660e-02
-1.041559e-01
0.000000e+00
4.369344e-04
9.724691e-04
1.521177e-03
2.043466e-03
2.550408e-03
3.097370e-03
3.712641e-03
4.445286e-03
5.414414e-03
6.787509e-03
8.749963e-03
1.135713e-02
1.425196e-02
1.625086e-02
1.576379e-02
1.240621e-02
0.000000e+00
1.234902e-02
2.539701e-02
3.842236e-02
5.103363e-02
6.298559e-02
7.406097e-02
8.412177e-02
9.312716e-02
1.011317e-01
1.083438e-01
1.149300e-01
1.208301e-01
1.255828e-01
1.284042e-01
1.286680e-01
1.269507e-01
0.000000e+00
2.517295e-02
5.145349e-02
7.724581e-02
1.018594e-01
1.254945e-01
1.473343e-01
1.669159e-01
1.841255e-01
1.989590e-01
2.115873e-01
2.222874e-01
2.310558e-01
2.375974e-01
2.415618e-01
2.428667e-01
2.424608e-01
0.000000e+00
4.039590e-02
8.292104e-02
1.211532e-01
1.574147e-01
1.927307e-01
2.253639e-01
2.543787e-01
2.797773e-01
3.014022e-01
3.193225e-01
3.339464e-01
3.453808e-01
3.535114e-01
3.584198e-01
3.605343e-01
3.609235e-01
0.000000e+00
6.773224e-02
1.231002e-01
1.727957e-01
2.205851e-01
2.673494e-01
3.105135e-01
3.487641e-01
3.823869e-01
4.109344e-01
4.344585e-01
4.533083e-01
4.674360e-01
4.765972e-01
4.810977e-01
4.822297e-01
4.822126e-01
0.000000e+00
-4.109645e-02
-7.972421e-02
-1.297664e-01
-1.914366e-01
-2.646579e-01
-3.485777e-01
-4.422029e-01
-5.443634e-01
-6.539252e-01
-7.700250e-01
-8.920381e-01
-1.019720e+00
-1.153760e+00
-1.297629e+00
-1.462231e+00
-1.698732e+00
0.000000e+00
-2.521471e-02
-6.610608e-02
-1.170797e-01
-1.796535e-01
-2.536948e-01
-3.385271e-01
-4.331346e-01
-5.363544e-01
-6.469521e-01
-7.639170e-01
-8.866228e-01
-1.014846e+00
-1.149325e+00
-1.293160e+00
-1.456796e+00
-1.657141e+00
0.000000e+00
-1.895818e-02
-5.663153e-02
-1.079665e-01
-1.711128e-01
-2.458075e-01
-3.313495e-01
-4.267420e-01
-5.308111e-01
-6.422717e-01
-7.600909e-01
-8.836820e-01
-1.012890e+00
-1.148375e+00
-1.292329e+00
-1.447367e+00
-1.597322e+00
0.000000e+00
-1.646968e-02
-5.197304e-02
-1.025438e-01
-1.658862e-01
-2.409938e-01
-3.270710e-01
-4.230843e-01
-5.278255e-01
-6.400021e-01
-7.586161e-01
-8.830732e-01
-1.013090e+00
-1.148694e+00
-1.289728e+00
-1.432159e+00
-1.563317e+00
0.000000e+00
-1.596606e-02
-5.071395e-02
-1.008198e-01
-1.640536e-01
-2.393372e-01
-3.257363e-01
-4.221570e-01
-5.273383e-01
-6.400171e-01
-7.591735e-01
-8.841216e-01
-1.014233e+00
-1.148621e+00
-1.285299e+00
-1.419592e+00
-1.543272e+00
0.000000e+00
-1.686681e-02
-5.234015e-02
-1.026370e-01
-1.657205e-01
-2.409322e-01
-3.273963e-01
-4.238956e-01
-5.291906e-01
-6.420294e-01
-7.613307e-01
-8.862407e-01
-1.015763e+00
-1.148308e+00
-1.281372e+00
-1.411062e+00
-1.532071e+00
0.000000e+00
-1.946690e-02
-5.718958e-02
-1.081870e-01
-1.709953e-01
-2.459023e-01
-3.320879e-01
-4.282464e-01
-5.331988e-01
-6.457553e-01
-7.647461e-01
-8.891578e-01
-1.017727e+00
-1.148520e+00
-1.279000e+00
-1.406174e+00
-1.527057e+00
0.000000e+00
-2.555096e-02
-6.664889e-02
-1.174758e-01
-1.799403e-01
-2.543272e-01
-3.398295e-01
-4.351717e-01
-5.392813e-01
-6.510447e-01
-7.692579e-01
-8.928206e-01
-1.020301e+00
-1.149654e+00
-1.278402e+00
-1.404134e+00
-1.525857e+00
0.000000e+00
-4.111660e-02
-8.010225e-02
-1.303628e-01
-1.924291e-01
-2.662063e-01
-3.505718e-01
-4.446621e-01
-5.475095e-01
-6.579672e-01
-7.749555e-01
-8.973194e-01
-1.023506e+00
-1.151479e+00
-1.278916e+00
-1.403760e+00
-1.525871e+00


0.000000e+00
-3.561354e-07
2.753000e-07
1.901139e-06
2.690635e-06
2.858294e-06
2.944699e-06
3.054118e-06
3.165642e-06
3.265784e-06
3.348608e-06
3.413304e-06
3.459395e-06
3.488710e-06
3.507595e-06
3.523829e-06
3.539874e-06
0.000000e+00
-3.226133e-07
3.960049e-07
1.794967e-06
2.502607e-06
2.472775e-06
2.501797e-06
2.580988e-06
2.663413e-06
2.736529e-06
2.797497e-06
2.844767e-06
2.876096e-06
2.893771e-06
2.906593e-06
2.922786e-06
2.940216e-06
0.000000e+00
7.496666e-08
6.069630e-07
1.380588e-06
1.844744e-06
1.937375e-06
2.028877e-06
2.095087e-06
2.151233e-06
2.199688e-06
2.240141e-06
2.271296e-06
2.292359e-06
2.306507e-06
2.319155e-06
2.333525e-06
2.348161e-06
0.000000e+00
3.570858e-07
6.812241e-07
1.027348e-06
1.222105e-06
1.423727e-06
1.532444e-06
1.592874e-06
1.632545e-06
1.662989e-06
1.686465e-06
1.704106e-06
1.718604e-06
1.731151e-06
1.741929e-06
1.751877e-06
1.761856e-06
0.000000e+00
3.398373e-07
6.509385e-07
8.185936e-07
9.305621e-07
1.012715e-06
1.083832e-06
1.124158e-06
1.145591e-06
1.156988e-06
1.160771e-06
1.161828e-06
1.165079e-06
1.169956e-06
1.174397e-06
1.179155e-06
1.185698e-06
0.000000e+00
2.131297e-07
4.617862e-07
6.112380e-07
6.587305e-07
6.771892e-07
6.898825e-07
6.945810e-07
6.876819e-07
6.732015e-07
6.543021e-07
6.366411e-07
6.253133e-07
6.189194e-07
6.151683e-07
6.149127e-07
6.186605e-07
0.000000e+00
9.992408e-08
2.460305e-07
3.204483e-07
3.287956e-07
2.988512e-07
2.718181e-07
2.450989e-07
2.136239e-07
1.782024e-07
1.429501e-07
1.129590e-07
9.071153e-08
7.465379e-08
6.378816e-08
5.885591e-08
5.940787e-08
0.000000e+00
4.826791e-08
9.293762e-08
4.209721e-08
-4.633981e-08
-1.391905e-07
-2.090546e-07
-2.610433e-07
-3.076123e-07
-3.523903e-07
-3.926120e-07
-4.247451e-07
-4.486819e-07
-4.673355e-07
-4.815284e-07
-4.901577e-07
-4.931577e-07
0.000000e+00
9.937711e-08
-1.488158e-09
-2.083600e-07
-4.335311e-07
-6.125712e-07
-7.324834e-07
-8.135683e-07
-8.752537e-07
-9.246738e-07
-9.619981e-07
-9.869334e-07
-1.003610e-06
-1.018275e-06
-1.032960e-06
-1.044613e-06
-1.049966e-06
0.000000e+00
9.196505e-08
6.330638e-07
9.342667e-07
8.515265e-07
1.002339e-06
1.452648e-06
1.948974e-06
2.472075e-06
3.024338e-06
3.596901e-06
4.180402e-06
4.769530e-06
5.368414e-06
5.984869e-06
6.614643e-06
7.242841e-06
0.000000e+00
-7.816640e-09
-9.941058e-09
2.755035e-07
6.397401e-07
9.725794e-07
1.411106e-06
1.895149e-06
2.423569e-06
2.983419e-06
3.564586e-06
4.156825e-06
4.753917e-06
5.356642e-06
5.968860e-06
6.592183e-06
7.216870e-06
0.000000e+00
-1.022093e-07
-3.490258e-07
-1.293357e-07
4.217206e-07
9.213613e-07
1.355284e-06
1.846555e-06
2.383180e-06
2.951684e-06
3.541324e-06
4.141302e-06
4.742858e-06
5.345286e-06
5.951521e-06
6.567245e-06
7.185272e-06
0.000000e+00
-1.410677e-07
-3.745911e-07
-2.256771e-07
2.742237e-07
8.000385e-07
1.289553e-06
1.806074e-06
2.356631e-06
2.932948e-06
3.529824e-06
4.135600e-06
4.737177e-06
5.335418e-06
5.936876e-06
6.546743e-06
7.156082e-06
0.000000e+00
-1.719405e-07
-3.514479e-07
-2.360532e-07
1.893838e-07
7.005651e-07
1.229714e-06
1.774289e-06
2.339976e-06
2.923462e-06
3.526537e-06
4.136154e-06
4.735111e-06
5.327826e-06
5.924850e-06
6.530241e-06
7.132087e-06
0.000000e+00
-2.066973e-07
-3.629833e-07
-2.415741e-07
1.539636e-07
6.586315e-07
1.197639e-06
1.760071e-06
2.337382e-06
2.927464e-06
3.533581e-06
4.141877e-06
4.736032e-06
5.323397e-06
5.915909e-06
6.516722e-06
7.113020e-06
0.000000e+00
-2.397982e-07
-3.783719e-07
-2.409753e-07
1.456127e-07
6.484684e-07
1.195018e-06
1.764732e-06
2.349273e-06
2.944361e-06
3.549090e-06
4.151068e-06
4.739626e-06
5.322735e-06
5.910885e-06
6.506766e-06
7.097505e-06
0.000000e+00
-2.495893e-07
-3.696883e-07
-2.097491e-07
1.641264e-07
6.642460e-07
1.209093e-06
1.779736e-06
2.367391e-06
2.964880e-06
3.566274e-06
4.161723e-06
4.746085e-06
5.326306e-06
5.910463e-06
6.501198e-06
7.086645e-06
0.000000e+00
-2.551196e-07
-3.240193e-07
-1.475590e-07
2.231618e-07
7.043649e-07
1.236452e-06
1.800359e-06
2.386191e-06
2.982477e-06
3.580248e-06
4.171380e-06
4.753391e-06
5.332054e-06
5.913328e-06
6.499771e-06
7.082083e-06


2.047247e-01
1.965095e-01
1.863378e-01
1.831877e-01
1.848987e-01
1.864686e-01
1.873443e-01
1.872764e-01
1.845075e-01
1.829709e-01
1.852686e-01
1.897333e-01
1.944043e-01
1.959294e-01
1.943957e-01
1.947602e-01
1.988016e-01
1.938578e-01
1.869371e-01
1.844501e-01
1.870924e-01
1.893766e-01
1.913659e-01
1.915526e-01
1.891703e-01
1.872471e-01
1.884558e-01
1.915851e-01
1.950087e-01
1.962456e-01
1.955092e-01
1.943714e-01
1.963822e-01
1.931424e-01
1.885191e-01
1.875435e-01
1.901614e-01
1.935771e-01
1.959951e-01
1.964658e-01
1.946968e-01
1.930208e-01
1.932263e-01
1.942667e-01
1.955591e-01
1.961584e-01
1.951904e-01
1.946246e-01
1.989788e-01
1.964692e-01
1.926152e-01
1.921680e-01
1.947775e-01
1.977921e-01
1.996630e-01
1.995946e-01
1.977038e-01
1.962324e-01
1.958220e-01
1.958146e-01
1.954324e-01
1.949060e-01
1.945185e-01
1.943612e-01
2.016687e-01
2.001272e-01
1.969555e-01
1.971304e-01
2.001209e-01
2.023155e-01
2.029433e-01
2.012072e-01
1.984042e-01
1.959456e-01
1.954825e-01
1.954956e-01
1.950073e-01
1.946193e-01
1.952168e-01
1.959859e-01
2.009339e-01
1.997557e-01
1.964604e-01
1.988463e-01
2.051531e-01
2.072825e-01
2.055590e-01
2.025504e-01
1.976052e-01
1.939950e-01
1.932538e-01
1.942464e-01
1.948202e-01
1.959526e-01
1.978020e-01
1.990566e-01
1.986604e-01
1.959159e-01
1.919459e-01
1.974715e-01
2.080471e-01
2.102560e-01
2.074241e-01
2.029462e-01
1.974933e-01
1.919762e-01
1.911800e-01
1.932435e-01
1.954525e-01
1.980546e-01
2.005066e-01
2.016480e-01
1.975779e-01
1.931234e-01
1.887046e-01
1.959759e-01
2.085547e-01
2.110501e-01
2.068622e-01
2.034723e-01
1.973606e-01
1.913591e-01
1.903160e-01
1.932396e-01
1.964562e-01
1.995489e-01
2.018534e-01
2.030274e-01


9.892278e-01
9.913357e-01
9.932322e-01
9.942665e-01
9.949865e-01
9.957066e-01
9.964260e-01
9.971194e-01
9.977804e-01
9.982938e-01
9.986455e-01
9.988829e-01
9.990256e-01
9.990848e-01
9.991492e-01
9.962332e-01
9.959763e-01
9.955876e-01
9.962959e-01
9.968738e-01
9.972593e-01
9.976240e-01
9.979833e-01
9.983496e-01
9.987148e-01
9.990270e-01
9.992795e-01
9.995043e-01
9.997109e-01
9.998555e-01
9.994873e-01
9.945136e-01
9.986645e-01
9.983638e-01
9.983668e-01
9.985237e-01
9.986532e-01
9.987736e-01
9.989030e-01
9.990518e-01
9.992160e-01
9.993708e-01
9.995015e-01
9.995986e-01
9.996141e-01
9.994155e-01
9.987099e-01
9.974526e-01
9.997353e-01
9.994673e-01
9.993313e-01
9.992999e-01
9.992918e-01
9.992872e-01
9.992950e-01
9.993200e-01
9.993605e-01
9.993979e-01
9.994095e-01
9.993744e-01
9.992647e-01
9.990695e-01
9.989070e-01
9.988763e-01
9.996956e-01
9.994015e-01
9.992521e-01
9.992201e-01
9.992148e-01
9.992187e-01
9.992326e-01
9.992524e-01
9.992711e-01
9.992727e-01
9.992424e-01
9.991846e-01
9.991286e-01
9.991362e-01
9.992856e-01
9.995517e-01
9.986220e-01
9.982472e-01
9.981920e-01
9.982899e-01
9.983794e-01
9.985334e-01
9.987153e-01
9.988824e-01
9.990203e-01
9.991113e-01
9.991514e-01
9.991753e-01
9.992399e-01
9.993869e-01
9.996163e-01
9.998598e-01
9.960994e-01
9.955896e-01
9.961698e-01
9.965150e-01
9.967082e-01
9.971489e-01
9.976796e-01
9.981545e-01
9.985700e-01
9.988969e-01
9.991197e-01
9.992936e-01
9.994702e-01
9.996643e-01
9.998528e-01
9.999751e-01
9.896792e-01
9.916040e-01
9.932333e-01
9.938043e-01
9.940975e-01
9.949592e-01
9.960193e-01
9.969268e-01
9.977660e-01
9.984579e-01
9.989714e-01
9.993724e-01
9.996832e-01
9.998824e-01
9.999764e-01
9.999995e-01
1 2 19 18
2 3 20 19
3 4 21 20
4 5 22 21
5 6 23 22
6 7 24 23
7 8 25 24
8 9 26 25
9 10 27 26
10 11 28 27
11 12 29 28
12 13 30 29
13 14 31 30
14 15 32 31
15 16 33 32
16 17 34 33
18 19 36 35
19 20 37 36
20 21 38 37
21 22 39 38
22 23 40 39
23 24 41 40
24 25 42 41
25 26 43 42
26 27 44 43
27 28 45 44
28 29 46 45
29 30 47 46
30 31 48 47
31 32 49 48
32 33 50 49
33 34 51 50
35 36 53 52
36 37 54 53
37 38 55 54
38 39 56 55
39 40 57 56
40 41 58 57
41 42 59 58
42 43 60 59
43 44 61 60
44 45 62 61
45 46 63 62
46 47 64 63
47 48 65 64
48 49 66 65
49 50 67 66
50 51 68 67
52 53 70 69
53 54 71 70
54 55 72 71
55 56 73 72
56 57 74 73
57 58 75 74
58 59 76 75
59 60 77 76
60 61 78 77
61 62 79 78
62 63 80 79
63 64 81 80
64 65 82 81
65 66 83 82
66 67 84 83
67 68 85 84
69 70 87 86
70 71 88 87
71 72 89 88
72 73 90 89
73 74 91 90
74 75 92 91
75 76 93 92
76 77 94 93
77 78 95 94
78 79 96 95
79 80 97 96
80 81 98 97
81 82 99 98
82 83 100 99
83 84 101 100
84 85 102 101
86 87 104 103
87 88 105 104
88 89 106 105
89 90 107 106
90 91 108 107
91 92 109 108
92 93 110 109
93 94 111 110
94 95 112 111
95 96 113 112
96 97 114 113
97 98 115 114
98 99 116 115
99 100 117 116
100 101 118 117
101 102 119 118
103 104 121 120
104 105 122 121
105 106 123 122
106 107 124 123
107 108 125 124
108 109 126 125
109 110 127 126
110 111 128 127
111 112 129 128
112 113 130 129
113 114 131 130
114 115 132 131
115 116 133 132
116 117 134 133
117 118 135 134
118 119 136 135
120 121 138 137
121 122 139 138
122 123 140 139
123 124 141 140
124 125 142 141
125 126 143 142
126 127 144 143
127 128 145 144
128 129 146 145
129 130 147 146
130 131 148 147
131 132 149 148
132 133 150 149
133 134 151 150
134 135 152 151
135 136 153 152
