TITLE = "Solution"
VARIABLES = x, y, u, v, psiu, psiv, t, stress
ZONE T="structure" N=153 E=128 F=FEBLOCK ET=QUADRILATERAL VARLOCATION=([7,8]=cellcentered)
0.000000e+00
1.250000e+01
2.500000e+01
3.750000e+01
5.000000e+01
6.250000e+01
7.500000e+01
8.750000e+01
1.000000e+02
1.125000e+02
1.250000e+02
1.375000e+02
1.500000e+02
1.625000e+02
1.750000e+02
1.875000e+02
2.000000e+02
0.000000e+00
1.250000e+01
2.500000e+01
3.750000e+01
5.000000e+01
6.250000e+01
7.500000e+01
8.750000e+01
1.000000e+02
1.125000e+02
1.250000e+02
1.375000e+02
1.500000e+02
1.625000e+02
1.750000e+02
1.875000e+02
2.000000e+02
0.000000e+00
1.250000e+01
2.500000e+01
3.750000e+01
5.000000e+01
6.250000e+01
7.500000e+01
8.750000e+01
1.000000e+02
1.125000e+02
1.250000e+02
1.375000e+02
1.500000e+02
1.625000e+02
1.750000e+02
1.875000e+02
2.000000e+02
0.000000e+00
1.250000e+01
2.500000e+01
3.750000e+01
5.000000e+01
6.250000e+01
7.500000e+01
8.750000e+01
1.000000e+02
1.125000e+02
1.250000e+02
1.375000e+02
1.500000e+02
1.625000e+02
1.750000e+02
1.875000e+02
2.000000e+02
0.000000e+00
1.250000e+01
2.500000e+01
3.750000e+01
5.000000e+01
6.250000e+01
7.500000e+01
8.750000e+01
1.000000e+02
1.125000e+02
1.250000e+02
1.375000e+02
1.500000e+02
1.625000e+02
1.750000e+02
1.875000e+02
2.000000e+02
0.000000e+00
1.250000e+01
2.500000e+01
3.750000e+01
5.000000e+01
6.250000e+01
7.500000e+01
8.750000e+01
1.000000e+02
1.125000e+02
1.250000e+02
1.375000e+02
1.500000e+02
1.625000e+02
1.750000e+02
1.875000e+02
2.000000e+02
0.000000e+00
1.250000e+01
2.500000e+01
3.750000e+01
5.000000e+01
6.250000e+01
7.500000e+01
8.750000e+01
1.000000e+02
1.125000e+02
1.250000e+02
1.375000e+02
1.500000e+02
1.625000e+02
1.750000e+02
1.875000e+02
2.000000e+02
0.000000e+00
1.250000e+01
2.500000e+01
3.750000e+01
5.000000e+01
6.250000e+01
7.500000e+01
8.750000e+01
1.000000e+02
1.125000e+02
1.250000e+02
1.375000e+02
1.500000e+02
1.625000e+02
1.750000e+02
1.875000e+02
2.000000e+02
0.000000e+00
1.250000e+01
2.500000e+01
3.750000e+01
5.000000e+01
6.250000e+01
7.500000e+01
8.750000e+01
1.000000e+02
1.125000e+02
1.250000e+02
1.375000e+02
1.500000e+02
1.625000e+02
1.750000e+02
1.875000e+02
2.000000e+02
0.000000e+00
0.000000e+00
0.000000e+00
0.000000e+00
0.000000e+00
0.000000e+00
0.000000e+00
0.000000e+00
0.000000e+00
0.000000e+00
0.000000e+00
0.000000e+00
0.000000e+00
0.000000e+00
0.000000e+00
0.000000e+00
0.000000e+00
1.250000e+01
1.250000e+01
1.250000e+01
1.250000e+01
1.250000e+01
1.250000e+01
1.250000e+01
1.250000e+01
1.250000e+01
1.250000e+01
1.250000e+01
1.250000e+01
1.250000e+01
1.250000e+01
1.250000e+01
1.250000e+01
1.250000e+01
2.500000e+01
2.500000e+01
2.500000e+01
2.500000e+01
2.500000e+01
2.500000e+01
2.500000e+01
2.500000e+01
2.500000e+01
2.500000e+01
2.500000e+01
2.500000e+01
2.500000e+01
2.500000e+01
2.500000e+01
2.500000e+01
2.500000e+01
3.750000e+01
3.750000e+01
3.750000e+01
3.750000e+01
3.750000e+01
3.750000e+01
3.750000e+01
3.750000e+01
3.750000e+01
3.750000e+01
3.750000e+01
3.750000e+01
3.750000e+01
3.750000e+01
3.750000e+01
3.750000e+01
3.750000e+01
5.000000e+01
5.000000e+01
5.000000e+01
5.000000e+01
5.000000e+01
5.000000e+01
5.000000e+01
5.000000e+01
5.000000e+01
5.000000e+01
5.000000e+01
5.000000e+01
5.000000e+01
5.000000e+01
5.000000e+01
5.000000e+01
5.000000e+01
6.250000e+01
6.250000e+01
6.250000e+01
6.250000e+01
6.250000e+01
6.250000e+01
6.250000e+01
6.250000e+01
6.250000e+01
6.250000e+01
6.250000e+01
6.250000e+01
6.250000e+01
6.250000e+01
6.250000e+01
6.250000e+01
6.250000e+01
7.500000e+01
7.500000e+01
7.500000e+01
7.500000e+01
7.500000e+01
7.500000e+01
7.500000e+01
7.500000e+01
7.500000e+01
7.500000e+01
7.500000e+01
7.500000e+01
7.500000e+01
7.500000e+01
7.500000e+01
7.500000e+01
7.500000e+01
8.750000e+01
8.750000e+01
8.750000e+01
8.750000e+01
8.750000e+01
8.750000e+01
8.750000e+01
8.750000e+01
8.750000e+01
8.750000e+01
8.750000e+01
8.750000e+01
8.750000e+01
8.750000e+01
8.750000e+01
8.750000e+01
8.750000e+01
1.000000e+02
1.000000e+02
1.000000e+02
1.000000e+02
1.000000e+02
1.000000e+02
1.000000e+02
1.000000e+02
1.000000e+02
1.000000e+02
1.000000e+02
1.000000e+02
1.000000e+02
1.000000e+02
1.000000e+02
1.000000e+02
1.000000e+02
0.000000e+00
-1.027489e+00
-1.691469e+00
-2.418562e+00
-3.109496e+00
-3.755338e+00
-4.423701e+00
-5.005412e+00
-5.657691e+00
-6.374378e+00
-7.056875e+00
-7.742390e+00
-8.460255e+00
-9.197280e+00
-1.001100e+01
-1.071687e+01
-1.115900e+01
0.000000e+00
-4.685830e-01
-9.245042e-01
-1.421218e+00
-1.943239e+00
-2.440184e+00
-2.952477e+00
-3.431016e+00
-3.932813e+00
-4.475826e+00
-4.975390e+00
-5.468984e+00
-5.972370e+00
-6.451859e+00
-6.827965e+00
-6.932033e+00
-7.101313e+00
0.000000e+00
-1.562856e-01
-3.647574e-01
-6.578638e-01
-1.009865e+00
-1.350346e+00
-1.722169e+00
-2.091786e+00
-2.446933e+00
-2.793880e+00
-3.106960e+00
-3.412443e+00
-3.691064e+00
-3.890197e+00
-3.955044e+00
-3.934355e+00
-4.083850e+00
0.000000e+00
-7.898618e-02
-1.645647e-01
-3.195221e-01
-4.682268e-01
-6.444581e-01
-8.299283e-01
-9.935798e-01
-1.154244e+00
-1.293142e+00
-1.431783e+00
-1.553697e+00
-1.628214e+00
-1.629622e+00
-1.564825e+00
-1.556924e+00
-1.694360e+00
0.000000e+00
-2.012917e-03
-4.274375e-03
-6.341589e-03
-7.472848e-03
-6.225884e-03
-6.129165e-04
1.158272e-02
3.221697e-02
6.272807e-02
1.065880e-01
1.715827e-01
2.645359e-01
3.797423e-01
4.714571e-01
4.794336e-01
3.766539e-01
0.000000e+00
7.566014e-02
1.583922e-01
3.101438e-01
4.568906e-01
6.340256e-01
8.258864e-01
1.006345e+00
1.198390e+00
1.388557e+00
1.607204e+00
1.842767e+00
2.068962e+00
2.262401e+00
2.391523e+00
2.417189e+00
2.356357e+00
0.000000e+00
1.548331e-01
3.622932e-01
6.542596e-01
1.004658e+00
1.343276e+00
1.714224e+00
2.086025e+00
2.450664e+00
2.822050e+00
3.178382e+00
3.540834e+00
3.874075e+00
4.137783e+00
4.307134e+00
4.367423e+00
4.351757e+00
0.000000e+00
4.684873e-01
9.243449e-01
1.420479e+00
1.941811e+00
2.437407e+00
2.946856e+00
3.421414e+00
3.914756e+00
4.445946e+00
4.934149e+00
5.397884e+00
5.816880e+00
6.139916e+00
6.344870e+00
6.436265e+00
6.453039e+00
0.000000e+00
1.028636e+00
1.693694e+00
2.421905e+00
3.114382e+00
3.762393e+00
4.430972e+00
5.010761e+00
5.651861e+00
6.340541e+00
6.976150e+00
7.565053e+00
8.073301e+00
8.432940e+00
8.621875e+00
8.673084e+00
8.673139e+00
0.000000e+00
-6.293585e-01
-1.365143e+00
-2.354662e+00
-3.519669e+00
-4.846391e+00
-6.336693e+00
-7.955951e+00
-9.735457e+00
-1.167990e+01
-1.378490e+01
-1.608427e+01
-1.858045e+01
-2.127433e+01
-2.420875e+01
-2.757451e+01
-3.253213e+01
0.000000e+00
-4.252724e-01
-1.202312e+00
-2.169735e+00
-3.345977e+00
-4.670802e+00
-6.168783e+00
-7.795604e+00
-9.555436e+00
-1.150031e+01
-1.361140e+01
-1.590923e+01
-1.840466e+01
-2.110616e+01
-2.408039e+01
-2.748464e+01
-3.153876e+01
0.000000e+00
-3.953321e-01
-1.098187e+00
-2.064067e+00
-3.220998e+00
-4.537720e+00
-6.041950e+00
-7.669898e+00
-9.441131e+00
-1.138664e+01
-1.350328e+01
-1.581086e+01
-1.832224e+01
-2.105336e+01
-2.406892e+01
-2.732062e+01
-3.037286e+01
0.000000e+00
-4.472789e-01
-1.083294e+00
-2.034315e+00
-3.153326e+00
-4.456196e+00
-5.961254e+00
-7.598641e+00
-9.395940e+00
-1.133998e+01
-1.346647e+01
-1.579326e+01
-1.832428e+01
-2.106234e+01
-2.401221e+01
-2.698282e+01
-2.956122e+01
0.000000e+00
-4.519767e-01
-1.101838e+00
-2.017611e+00
-3.139705e+00
-4.437782e+00
-5.934494e+00
-7.593819e+00
-9.398255e+00
-1.135268e+01
-1.348998e+01
-1.583349e+01
-1.836489e+01
-2.106778e+01
-2.387670e+01
-2.660945e+01
-2.893795e+01
0.000000e+00
-4.470245e-01
-1.084338e+00
-2.037661e+00
-3.160133e+00
-4.468371e+00
-5.981852e+00
-7.631377e+00
-9.442943e+00
-1.140405e+01
-1.355322e+01
-1.590005e+01
-1.841642e+01
-2.105803e+01
-2.374791e+01
-2.631883e+01
-2.854374e+01
0.000000e+00
-3.953781e-01
-1.100251e+00
-2.069552e+00
-3.231940e+00
-4.557638e+00
-6.075607e+00
-7.723104e+00
-9.518337e+00
-1.149406e+01
-1.364586e+01
-1.598489e+01
-1.847907e+01
-2.106548e+01
-2.366025e+01
-2.613308e+01
-2.834367e+01
0.000000e+00
-4.254711e-01
-1.204469e+00
-2.175369e+00
-3.357529e+00
-4.692022e+00
-6.205235e+00
-7.853470e+00
-9.641786e+00
-1.162388e+01
-1.377226e+01
-1.609700e+01
-1.856667e+01
-2.110914e+01
-2.363701e+01
-2.604864e+01
-2.828949e+01
0.000000e+00
-6.298240e-01
-1.367426e+00
-2.360461e+00
-3.531474e+00
-4.867830e+00
-6.373117e+00
-8.012800e+00
-9.819361e+00
-1.179916e+01
-1.393664e+01
-1.624518e+01
-1.868503e+01
-2.118287e+01
-2.365967e+01
-2.603275e+01
-2.828924e+01


0.000000e+00
1.373308e-05
2.420427e-05
3.721127e-05
5.150306e-05
6.526321e-05
7.977685e-05
9.350912e-05
1.089475e-04
1.238926e-04
1.355211e-04
1.450056e-04
1.522549e-04
1.568086e-04
1.600925e-04
1.638807e-04
1.689116e-04
0.000000e+00
9.569469e-06
1.917413e-05
2.898750e-05
4.075447e-05
5.167501e-05
6.261424e-05
7.392913e-05
8.594441e-05
9.660774e-05
1.039599e-04
1.096388e-04
1.132466e-04
1.136464e-04
1.131808e-04
1.169957e-04
1.226109e-04
0.000000e+00
7.796178e-06
1.496903e-05
2.175685e-05
3.033110e-05
3.787297e-05
4.541128e-05
5.329316e-05
6.035465e-05
6.566401e-05
6.920305e-05
7.173282e-05
7.279324e-05
7.216006e-05
7.197980e-05
7.520371e-05
8.037947e-05
0.000000e+00
4.446843e-06
7.127342e-06
1.138074e-05
1.518095e-05
1.891066e-05
2.292135e-05
2.648721e-05
2.944946e-05
3.135772e-05
3.253576e-05
3.292860e-05
3.274123e-05
3.282312e-05
3.380880e-05
3.668244e-05
4.108206e-05
0.000000e+00
-5.787895e-08
-1.292851e-07
-2.005066e-07
-2.725446e-07
-3.355297e-07
-3.865226e-07
-4.253197e-07
-5.262170e-07
-8.354869e-07
-1.537639e-06
-2.533067e-06
-3.385016e-06
-3.447808e-06
-2.476068e-06
-9.779751e-07
1.121990e-06
0.000000e+00
-4.553619e-06
-7.333723e-06
-1.171625e-05
-1.561720e-05
-1.944220e-05
-2.351495e-05
-2.710417e-05
-3.002472e-05
-3.194585e-05
-3.359004e-05
-3.514262e-05
-3.635303e-05
-3.699875e-05
-3.746606e-05
-3.780509e-05
-3.741902e-05
0.000000e+00
-7.854163e-06
-1.507758e-05
-2.192247e-05
-3.058310e-05
-3.820828e-05
-4.582437e-05
-5.371438e-05
-6.060117e-05
-6.543195e-05
-6.810430e-05
-6.960518e-05
-7.069316e-05
-7.172010e-05
-7.275962e-05
-7.364317e-05
-7.388272e-05
0.000000e+00
-9.586080e-06
-1.919148e-05
-2.898945e-05
-4.078981e-05
-5.176199e-05
-6.272985e-05
-7.407323e-05
-8.610257e-05
-9.662124e-05
-1.028973e-04
-1.062187e-04
-1.079982e-04
-1.092519e-04
-1.101280e-04
-1.105754e-04
-1.107001e-04
0.000000e+00
-1.373489e-05
-2.416084e-05
-3.708700e-05
-5.131524e-05
-6.503072e-05
-7.944621e-05
-9.312712e-05
-1.086062e-04
-1.237372e-04
-1.350016e-04
-1.422494e-04
-1.462735e-04
-1.479758e-04
-1.484347e-04
-1.483737e-04
-1.482963e-04
0.000000e+00
1.160671e-05
2.001650e-05
3.199226e-05
4.682570e-05
6.407105e-05
8.535149e-05
1.099981e-04
1.384777e-04
1.693211e-04
2.026479e-04
2.393190e-04
2.780534e-04
3.192140e-04
3.678672e-04
4.243997e-04
4.806709e-04
0.000000e+00
6.723974e-06
1.544344e-05
2.598230e-05
4.064414e-05
5.791005e-05
7.908192e-05
1.035970e-04
1.317167e-04
1.636984e-04
1.984579e-04
2.361027e-04
2.761975e-04
3.183588e-04
3.641141e-04
4.173515e-04
4.718117e-04
0.000000e+00
3.163716e-06
1.101321e-05
2.092480e-05
3.504031e-05
5.277824e-05
7.383106e-05
9.859530e-05
1.273677e-04
1.602780e-04
1.960057e-04
2.343613e-04
2.754088e-04
3.178665e-04
3.595786e-04
4.085804e-04
4.612850e-04
0.000000e+00
1.994338e-06
8.593543e-06
1.856199e-05
3.254169e-05
5.046243e-05
7.178312e-05
9.695424e-05
1.263133e-04
1.593794e-04
1.952687e-04
2.337381e-04
2.750823e-04
3.172973e-04
3.568165e-04
4.005609e-04
4.493321e-04
0.000000e+00
1.616964e-06
7.985170e-06
1.779551e-05
3.185815e-05
4.969329e-05
7.118679e-05
9.661682e-05
1.261842e-04
1.592637e-04
1.951243e-04
2.336670e-04
2.749506e-04
3.172438e-04
3.566370e-04
3.966541e-04
4.400497e-04
0.000000e+00
2.023124e-06
8.616293e-06
1.855344e-05
3.247129e-05
5.032780e-05
7.159872e-05
9.678541e-05
1.262768e-04
1.595018e-04
1.956959e-04
2.344926e-04
2.756565e-04
3.173914e-04
3.574391e-04
3.962996e-04
4.353839e-04
0.000000e+00
3.205135e-06
1.105223e-05
2.090442e-05
3.492601e-05
5.254240e-05
7.348605e-05
9.821544e-05
1.271109e-04
1.604374e-04
1.969274e-04
2.359469e-04
2.767568e-04
3.177814e-04
3.576335e-04
3.962199e-04
4.337823e-04
0.000000e+00
6.773912e-06
1.549019e-05
2.597573e-05
4.054764e-05
5.768354e-05
7.871566e-05
1.031415e-04
1.313569e-04
1.637391e-04
1.991697e-04
2.374632e-04
2.775775e-04
3.180404e-04
3.576104e-04
3.960728e-04
4.336376e-04
0.000000e+00
1.165916e-05
2.005517e-05
3.198818e-05
4.675361e-05
6.387112e-05
8.501010e-05
1.095757e-04
1.381627e-04
1.692461e-04
2.026318e-04
2.392736e-04
2.783626e-04
3.182378e-04
3.576285e-04
3.960018e-04
4.337055e-04


6.365036e+00
6.065360e+00
6.251858e+00
5.274059e+00
4.760616e+00
5.105866e+00
4.928017e+00
4.761557e+00
4.550089e+00
4.708300e+00
5.542540e+00
6.581066e+00
7.379336e+00
8.139027e+00
8.182791e+00
7.802600e+00
7.899410e+00
8.147428e+00
8.173269e+00
7.761858e+00
7.379566e+00
7.513183e+00
7.148002e+00
6.189095e+00
5.521675e+00
5.494437e+00
6.270025e+00
7.155021e+00
7.661040e+00
7.790636e+00
7.297646e+00
6.194372e+00
9.331679e+00
9.497627e+00
9.766747e+00
9.435787e+00
9.270588e+00
9.355224e+00
8.956575e+00
8.065605e+00
7.180629e+00
7.031643e+00
7.425544e+00
7.787513e+00
7.798328e+00
7.458163e+00
6.515980e+00
5.719299e+00
9.614896e+00
9.815084e+00
9.918980e+00
9.718478e+00
9.513129e+00
9.583929e+00
9.633061e+00
9.245444e+00
8.677742e+00
8.341099e+00
8.120325e+00
7.793761e+00
7.459090e+00
7.046483e+00
6.555119e+00
6.088192e+00
9.610706e+00
9.808796e+00
9.897682e+00
9.664452e+00
9.436552e+00
9.514119e+00
9.595210e+00
9.252023e+00
8.743754e+00
8.400221e+00
8.003533e+00
7.446525e+00
7.126366e+00
7.097783e+00
7.036271e+00
6.953950e+00
9.321381e+00
9.486714e+00
9.721993e+00
9.322877e+00
9.102713e+00
9.189427e+00
8.842825e+00
8.051242e+00
7.298677e+00
7.205083e+00
7.340898e+00
7.272993e+00
7.312519e+00
7.672923e+00
8.023151e+00
8.158886e+00
7.889931e+00
8.138501e+00
8.142472e+00
7.676482e+00
7.236968e+00
7.356108e+00
7.028704e+00
6.147953e+00
5.619676e+00
5.766311e+00
6.559031e+00
7.280103e+00
7.819217e+00
8.410228e+00
8.905898e+00
9.115612e+00
6.353219e+00
6.060265e+00
6.241682e+00
5.236807e+00
4.685590e+00
5.007841e+00
4.861076e+00
4.750956e+00
4.636852e+00
5.029404e+00
6.136926e+00
7.333009e+00
8.210408e+00
8.878938e+00
9.351774e+00
9.548380e+00


-9.543274e-01
-1.201072e-01
-3.102411e-01
-2.914060e-01
-1.516817e-01
-2.253054e-01
1.004478e-03
-1.799444e-01
-4.011014e-01
-2.380247e-01
-2.314755e-01
-3.126584e-01
-2.899052e-01
-2.088749e-01
4.205835e-01
-7.376682e-01
5.770493e-01
4.857008e-01
3.202408e-01
1.876883e-01
2.390668e-01
1.410183e-01
1.924477e-01
1.729936e-01
1.202507e-01
2.537981e-01
2.740324e-01
3.079880e-01
4.782977e-01
7.190901e-01
7.318898e-01
-9.655480e-01
7.239181e-01
4.902424e-01
9.934382e-02
3.606456e-02
4.076705e-02
-3.934406e-02
1.255242e-01
2.384448e-01
3.375139e-01
3.886939e-01
3.802772e-01
4.111689e-01
4.587289e-01
3.299767e-01
5.064041e-02
-4.166174e-01
7.330947e-01
5.678150e-01
2.289719e-01
1.489390e-01
1.022524e-01
6.239590e-02
1.540866e-01
2.150444e-01
2.788881e-01
2.659293e-01
2.285905e-01
1.879464e-01
7.262277e-02
-1.713393e-01
-2.443996e-01
-9.283918e-02
7.346456e-01
5.703433e-01
2.345526e-01
1.534474e-01
1.006517e-01
4.338971e-02
1.095692e-01
1.403211e-01
1.709216e-01
1.112146e-01
2.399478e-02
-4.739403e-02
-1.411053e-01
-1.720942e-01
4.308898e-02
4.446195e-01
7.270606e-01
4.941138e-01
1.064618e-01
4.150720e-02
3.406367e-02
-7.395966e-02
4.699612e-02
1.017255e-01
1.208838e-01
6.006203e-02
-8.688699e-02
-1.470150e-01
-9.986587e-02
5.537147e-02
3.926468e-01
7.820749e-01
5.790900e-01
4.866863e-01
3.215759e-01
1.884001e-01
2.376985e-01
1.330102e-01
1.692775e-01
1.222513e-01
3.659628e-03
5.018005e-02
-1.870483e-02
-9.788324e-03
1.666094e-01
4.308773e-01
7.354274e-01
9.534181e-01
-9.567397e-01
-1.221639e-01
-3.115192e-01
-2.934947e-01
-1.538380e-01
-2.215300e-01
9.349711e-03
-1.474599e-01
-3.324552e-01
-1.484215e-01
-3.347391e-02
1.637682e-01
5.040604e-01
7.947054e-01
9.548063e-01
9.988852e-01
1 2 19 18
2 3 20 19
3 4 21 20
4 5 22 21
5 6 23 22
6 7 24 23
7 8 25 24
8 9 26 25
9 10 27 26
10 11 28 27
11 12 29 28
12 13 30 29
13 14 31 30
14 15 32 31
15 16 33 32
16 17 34 33
18 19 36 35
19 20 37 36
20 21 38 37
21 22 39 38
22 23 40 39
23 24 41 40
24 25 42 41
25 26 43 42
26 27 44 43
27 28 45 44
28 29 46 45
29 30 47 46
30 31 48 47
31 32 49 48
32 33 50 49
33 34 51 50
35 36 53 52
36 37 54 53
37 38 55 54
38 39 56 55
39 40 57 56
40 41 58 57
41 42 59 58
42 43 60 59
43 44 61 60
44 45 62 61
45 46 63 62
46 47 64 63
47 48 65 64
48 49 66 65
49 50 67 66
50 51 68 67
52 53 70 69
53 54 71 70
54 55 72 71
55 56 73 72
56 57 74 73
57 58 75 74
58 59 76 75
59 60 77 76
60 61 78 77
61 62 79 78
62 63 80 79
63 64 81 80
64 65 82 81
65 66 83 82
66 67 84 83
67 68 85 84
69 70 87 86
70 71 88 87
71 72 89 88
72 73 90 89
73 74 91 90
74 75 92 91
75 76 93 92
76 77 94 93
77 78 95 94
78 79 96 95
79 80 97 96
80 81 98 97
81 82 99 98
82 83 100 99
83 84 101 100
84 85 102 101
86 87 104 103
87 88 105 104
88 89 106 105
89 90 107 106
90 91 108 107
91 92 109 108
92 93 110 109
93 94 111 110
94 95 112 111
95 96 113 112
96 97 114 113
97 98 115 114
98 99 116 115
99 100 117 116
100 101 118 117
101 102 119 118
103 104 121 120
104 105 122 121
105 106 123 122
106 107 124 123
107 108 125 124
108 109 126 125
109 110 127 126
110 111 128 127
111 112 129 128
112 113 130 129
113 114 131 130
114 115 132 131
115 116 133 132
116 117 134 133
117 118 135 134
118 119 136 135
120 121 138 137
121 122 139 138
122 123 140 139
123 124 141 140
124 125 142 141
125 126 143 142
126 127 144 143
127 128 145 144
128 129 146 145
129 130 147 146
130 131 148 147
131 132 149 148
132 133 150 149
133 134 151 150
134 135 152 151
135 136 153 152
