TITLE = "Solution"
VARIABLES = x, y, u, v, psiu, psiv, t, stress
ZONE T="structure" N=153 E=128 F=FEBLOCK ET=QUADRILATERAL VARLOCATION=([7,8]=cellcentered)
0.000000e+00
1.250000e+01
2.500000e+01
3.750000e+01
5.000000e+01
6.250000e+01
7.500000e+01
8.750000e+01
1.000000e+02
1.125000e+02
1.250000e+02
1.375000e+02
1.500000e+02
1.625000e+02
1.750000e+02
1.875000e+02
2.000000e+02
0.000000e+00
1.250000e+01
2.500000e+01
3.750000e+01
5.000000e+01
6.250000e+01
7.500000e+01
8.750000e+01
1.000000e+02
1.125000e+02
1.250000e+02
1.375000e+02
1.500000e+02
1.625000e+02
1.750000e+02
1.875000e+02
2.000000e+02
0.000000e+00
1.250000e+01
2.500000e+01
3.750000e+01
5.000000e+01
6.250000e+01
7.500000e+01
8.750000e+01
1.000000e+02
1.125000e+02
1.250000e+02
1.375000e+02
1.500000e+02
1.625000e+02
1.750000e+02
1.875000e+02
2.000000e+02
0.000000e+00
1.250000e+01
2.500000e+01
3.750000e+01
5.000000e+01
6.250000e+01
7.500000e+01
8.750000e+01
1.000000e+02
1.125000e+02
1.250000e+02
1.375000e+02
1.500000e+02
1.625000e+02
1.750000e+02
1.875000e+02
2.000000e+02
0.000000e+00
1.250000e+01
2.500000e+01
3.750000e+01
5.000000e+01
6.250000e+01
7.500000e+01
8.750000e+01
1.000000e+02
1.125000e+02
1.250000e+02
1.375000e+02
1.500000e+02
1.625000e+02
1.750000e+02
1.875000e+02
2.000000e+02
0.000000e+00
1.250000e+01
2.500000e+01
3.750000e+01
5.000000e+01
6.250000e+01
7.500000e+01
8.750000e+01
1.000000e+02
1.125000e+02
1.250000e+02
1.375000e+02
1.500000e+02
1.625000e+02
1.750000e+02
1.875000e+02
2.000000e+02
0.000000e+00
1.250000e+01
2.500000e+01
3.750000e+01
5.000000e+01
6.250000e+01
7.500000e+01
8.750000e+01
1.000000e+02
1.125000e+02
1.250000e+02
1.375000e+02
1.500000e+02
1.625000e+02
1.750000e+02
1.875000e+02
2.000000e+02
0.000000e+00
1.250000e+01
2.500000e+01
3.750000e+01
5.000000e+01
6.250000e+01
7.500000e+01
8.750000e+01
1.000000e+02
1.125000e+02
1.250000e+02
1.375000e+02
1.500000e+02
1.625000e+02
1.750000e+02
1.875000e+02
2.000000e+02
0.000000e+00
1.250000e+01
2.500000e+01
3.750000e+01
5.000000e+01
6.250000e+01
7.500000e+01
8.750000e+01
1.000000e+02
1.125000e+02
1.250000e+02
1.375000e+02
1.500000e+02
1.625000e+02
1.750000e+02
1.875000e+02
2.000000e+02
0.000000e+00
0.000000e+00
0.000000e+00
0.000000e+00
0.000000e+00
0.000000e+00
0.000000e+00
0.000000e+00
0.000000e+00
0.000000e+00
0.000000e+00
0.000000e+00
0.000000e+00
0.000000e+00
0.000000e+00
0.000000e+00
0.000000e+00
1.250000e+01
1.250000e+01
1.250000e+01
1.250000e+01
1.250000e+01
1.250000e+01
1.250000e+01
1.250000e+01
1.250000e+01
1.250000e+01
1.250000e+01
1.250000e+01
1.250000e+01
1.250000e+01
1.250000e+01
1.250000e+01
1.250000e+01
2.500000e+01
2.500000e+01
2.500000e+01
2.500000e+01
2.500000e+01
2.500000e+01
2.500000e+01
2.500000e+01
2.500000e+01
2.500000e+01
2.500000e+01
2.500000e+01
2.500000e+01
2.500000e+01
2.500000e+01
2.500000e+01
2.500000e+01
3.750000e+01
3.750000e+01
3.750000e+01
3.750000e+01
3.750000e+01
3.750000e+01
3.750000e+01
3.750000e+01
3.750000e+01
3.750000e+01
3.750000e+01
3.750000e+01
3.750000e+01
3.750000e+01
3.750000e+01
3.750000e+01
3.750000e+01
5.000000e+01
5.000000e+01
5.000000e+01
5.000000e+01
5.000000e+01
5.000000e+01
5.000000e+01
5.000000e+01
5.000000e+01
5.000000e+01
5.000000e+01
5.000000e+01
5.000000e+01
5.000000e+01
5.000000e+01
5.000000e+01
5.000000e+01
6.250000e+01
6.250000e+01
6.250000e+01
6.250000e+01
6.250000e+01
6.250000e+01
6.250000e+01
6.250000e+01
6.250000e+01
6.250000e+01
6.250000e+01
6.250000e+01
6.250000e+01
6.250000e+01
6.250000e+01
6.250000e+01
6.250000e+01
7.500000e+01
7.500000e+01
7.500000e+01
7.500000e+01
7.500000e+01
7.500000e+01
7.500000e+01
7.500000e+01
7.500000e+01
7.500000e+01
7.500000e+01
7.500000e+01
7.500000e+01
7.500000e+01
7.500000e+01
7.500000e+01
7.500000e+01
8.750000e+01
8.750000e+01
8.750000e+01
8.750000e+01
8.750000e+01
8.750000e+01
8.750000e+01
8.750000e+01
8.750000e+01
8.750000e+01
8.750000e+01
8.750000e+01
8.750000e+01
8.750000e+01
8.750000e+01
8.750000e+01
8.750000e+01
1.000000e+02
1.000000e+02
1.000000e+02
1.000000e+02
1.000000e+02
1.000000e+02
1.000000e+02
1.000000e+02
1.000000e+02
1.000000e+02
1.000000e+02
1.000000e+02
1.000000e+02
1.000000e+02
1.000000e+02
1.000000e+02
1.000000e+02
0.000000e+00
-2.036688e-01
-3.750175e-01
-5.326820e-01
-6.795162e-01
-8.152098e-01
-9.394707e-01
-1.052201e+00
-1.153565e+00
-1.244028e+00
-1.324487e+00
-1.396512e+00
-1.462810e+00
-1.528053e+00
-1.600300e+00
-1.689026e+00
-1.755605e+00
0.000000e+00
-1.216254e-01
-2.526530e-01
-3.736501e-01
-4.851293e-01
-5.875139e-01
-6.810152e-01
-7.657579e-01
-8.418939e-01
-9.096571e-01
-9.693911e-01
-1.021526e+00
-1.066394e+00
-1.103533e+00
-1.129729e+00
-1.135471e+00
-1.156056e+00
0.000000e+00
-7.605963e-02
-1.563980e-01
-2.365494e-01
-3.113706e-01
-3.800693e-01
-4.425891e-01
-4.990000e-01
-5.493158e-01
-5.934518e-01
-6.311703e-01
-6.619441e-01
-6.846758e-01
-6.973654e-01
-6.977179e-01
-6.926491e-01
-7.136439e-01
0.000000e+00
-3.671059e-02
-7.557405e-02
-1.146841e-01
-1.520817e-01
-1.865284e-01
-2.177519e-01
-2.456609e-01
-2.700955e-01
-2.907375e-01
-3.070590e-01
-3.182896e-01
-3.235097e-01
-3.222901e-01
-3.172796e-01
-3.186497e-01
-3.342826e-01
0.000000e+00
-3.383795e-05
-7.692280e-05
-1.198680e-04
-1.426697e-04
-1.007194e-04
9.452748e-05
6.019550e-04
1.682236e-03
3.723661e-03
7.232812e-03
1.271860e-02
2.031857e-02
2.890698e-02
3.483968e-02
3.321282e-02
2.286229e-02
0.000000e+00
3.665852e-02
7.545318e-02
1.144908e-01
1.518412e-01
1.863327e-01
2.178276e-01
2.464795e-01
2.725367e-01
2.963013e-01
3.180836e-01
3.380446e-01
3.558377e-01
3.701059e-01
3.784993e-01
3.791652e-01
3.739116e-01
0.000000e+00
7.605108e-02
1.563720e-01
2.364975e-01
3.112897e-01
3.799685e-01
4.425055e-01
4.990271e-01
5.496501e-01
5.944640e-01
6.335074e-01
6.666848e-01
6.936142e-01
7.135242e-01
7.254748e-01
7.293553e-01
7.281301e-01
0.000000e+00
1.216753e-01
2.527615e-01
3.738231e-01
4.853613e-01
5.877622e-01
6.811546e-01
7.655030e-01
8.406784e-01
9.064630e-01
9.625442e-01
1.008534e+00
1.044063e+00
1.069015e+00
1.083900e+00
1.090247e+00
1.091413e+00
0.000000e+00
2.037523e-01
3.752376e-01
5.330944e-01
6.801749e-01
8.161363e-01
9.405759e-01
1.053131e+00
1.153424e+00
1.240933e+00
1.314898e+00
1.374333e+00
1.418261e+00
1.446336e+00
1.459914e+00
1.463265e+00
1.463201e+00
0.000000e+00
-1.232869e-01
-2.420293e-01
-3.958926e-01
-5.847286e-01
-8.081841e-01
-1.063813e+00
-1.348755e+00
-1.659981e+00
-1.994501e+00
-2.349553e+00
-2.722940e+00
-3.113762e+00
-3.524104e+00
-3.964614e+00
-4.468643e+00
-5.192856e+00
0.000000e+00
-7.589807e-02
-1.997659e-01
-3.555363e-01
-5.474572e-01
-7.739611e-01
-1.032686e+00
-1.320702e+00
-1.634943e+00
-1.972368e+00
-2.330137e+00
-2.705952e+00
-3.098772e+00
-3.510631e+00
-3.950970e+00
-4.451941e+00
-5.065688e+00
0.000000e+00
-5.727276e-02
-1.704671e-01
-3.268117e-01
-5.205462e-01
-7.493809e-01
-1.010483e+00
-1.300895e+00
-1.617572e+00
-1.957515e+00
-2.317940e+00
-2.696627e+00
-3.092635e+00
-3.507661e+00
-3.948379e+00
-4.423064e+00
-4.882458e+00
0.000000e+00
-4.935508e-02
-1.559004e-01
-3.099514e-01
-5.043857e-01
-7.346284e-01
-9.973584e-01
-1.289505e+00
-1.608081e+00
-1.950167e+00
-2.313042e+00
-2.694442e+00
-3.092978e+00
-3.508463e+00
-3.940363e+00
-4.376529e+00
-4.778335e+00
0.000000e+00
-4.707443e-02
-1.514920e-01
-3.045729e-01
-4.990599e-01
-7.298755e-01
-9.933608e-01
-1.286447e+00
-1.606206e+00
-1.949765e+00
-2.314341e+00
-2.697312e+00
-3.096204e+00
-3.508072e+00
-3.926754e+00
-4.337927e+00
-4.716714e+00
0.000000e+00
-4.932578e-02
-1.558795e-01
-3.099885e-01
-5.045680e-01
-7.351086e-01
-9.983855e-01
-1.291450e+00
-1.611435e+00
-1.955454e+00
-2.320544e+00
-2.703534e+00
-3.100717e+00
-3.507040e+00
-3.914695e+00
-4.311766e+00
-4.682468e+00
0.000000e+00
-5.722496e-02
-1.704326e-01
-3.268736e-01
-5.208534e-01
-7.501933e-01
-1.012225e+00
-1.304198e+00
-1.623275e+00
-1.966520e+00
-2.330770e+00
-2.712365e+00
-3.106708e+00
-3.507706e+00
-3.907457e+00
-4.296908e+00
-4.667363e+00
0.000000e+00
-7.585325e-02
-1.997358e-01
-3.556185e-01
-5.478260e-01
-7.749165e-01
-1.034713e+00
-1.324520e+00
-1.641494e+00
-1.982649e+00
-2.344689e+00
-2.723695e+00
-3.114678e+00
-3.511211e+00
-3.905644e+00
-4.290764e+00
-4.663817e+00
0.000000e+00
-1.232684e-01
-2.420318e-01
-3.960199e-01
-5.851560e-01
-8.092051e-01
-1.065887e+00
-1.352540e+00
-1.666290e+00
-2.004098e+00
-2.362591e+00
-2.737762e+00
-3.124586e+00
-3.516781e+00
-3.907184e+00
-4.289640e+00
-4.663872e+00


0.000000e+00
8.938020e-09
1.832298e-08
2.394655e-08
2.537450e-08
2.374000e-08
2.033529e-08
1.621389e-08
1.210007e-08
8.425080e-09
5.385570e-09
3.004419e-09
1.185140e-09
-2.370735e-10
-1.467120e-09
-2.788393e-09
-4.214343e-09
0.000000e+00
8.103005e-09
1.683556e-08
2.089064e-08
2.121222e-08
1.916745e-08
1.596151e-08
1.244239e-08
9.137323e-09
6.333686e-09
4.146513e-09
2.578183e-09
1.570209e-09
9.928909e-10
4.483131e-10
-6.611559e-10
-2.148714e-09
0.000000e+00
5.991988e-09
1.108036e-08
1.351913e-08
1.371756e-08
1.236396e-08
1.025350e-08
7.966232e-09
5.866117e-09
4.149217e-09
2.891647e-09
2.087405e-09
1.663381e-09
1.448113e-09
1.101896e-09
2.426598e-10
-9.998107e-10
0.000000e+00
2.616761e-09
4.394967e-09
5.639273e-09
5.963674e-09
5.553098e-09
4.733809e-09
3.788098e-09
2.910884e-09
2.213891e-09
1.741291e-09
1.479615e-09
1.357717e-09
1.248558e-09
9.998841e-10
4.518133e-10
-3.821241e-10
0.000000e+00
-7.852016e-12
-1.303646e-11
-1.377257e-11
-7.889128e-12
7.867209e-12
3.764484e-11
8.639707e-11
1.589421e-10
2.572473e-10
3.750018e-10
4.899525e-10
5.600104e-10
5.389868e-10
4.017031e-10
1.085258e-10
-3.813715e-10
0.000000e+00
-2.634266e-09
-4.426104e-09
-5.678147e-09
-5.999927e-09
-5.570952e-09
-4.710720e-09
-3.693636e-09
-2.706493e-09
-1.855515e-09
-1.188526e-09
-7.168731e-10
-4.301728e-10
-2.995124e-10
-2.801071e-10
-3.669603e-10
-5.958004e-10
0.000000e+00
-6.011420e-09
-1.112362e-08
-1.358407e-08
-1.379886e-08
-1.245153e-08
-1.033294e-08
-8.020000e-09
-5.874942e-09
-4.092331e-09
-2.744144e-09
-1.816618e-09
-1.240737e-09
-9.201088e-10
-7.601181e-10
-7.177079e-10
-7.856975e-10
0.000000e+00
-8.120882e-09
-1.688624e-08
-2.097481e-08
-2.132774e-08
-1.930824e-08
-1.611956e-08
-1.261176e-08
-9.319315e-09
-6.539927e-09
-4.394932e-09
-2.877224e-09
-1.894789e-09
-1.314109e-09
-1.002620e-09
-8.679413e-10
-8.502976e-10
0.000000e+00
-8.954231e-09
-1.836796e-08
-2.402516e-08
-2.548814e-08
-2.388876e-08
-2.052092e-08
-1.644440e-08
-1.239543e-08
-8.822589e-09
-5.943510e-09
-3.805395e-09
-2.344547e-09
-1.440938e-09
-9.616822e-10
-7.804249e-10
-7.495958e-10
0.000000e+00
7.866449e-09
1.100076e-08
1.291821e-08
1.528321e-08
1.814457e-08
2.106365e-08
2.362667e-08
2.560204e-08
2.692597e-08
2.762940e-08
2.776750e-08
2.733066e-08
2.605441e-08
2.320025e-08
1.865108e-08
1.388790e-08
0.000000e+00
3.205614e-09
7.244391e-09
1.116025e-08
1.531390e-08
1.931060e-08
2.277519e-08
2.545517e-08
2.728485e-08
2.832724e-08
2.870609e-08
2.853975e-08
2.787375e-08
2.659398e-08
2.431809e-08
2.053911e-08
1.621078e-08
0.000000e+00
7.702562e-10
4.865771e-09
1.029317e-08
1.568301e-08
2.045727e-08
2.424861e-08
2.694372e-08
2.860064e-08
2.937763e-08
2.946676e-08
2.903733e-08
2.820094e-08
2.702096e-08
2.541196e-08
2.259215e-08
1.906396e-08
0.000000e+00
4.288443e-10
4.362625e-09
1.010714e-08
1.596160e-08
2.105870e-08
2.499231e-08
2.768345e-08
2.924193e-08
2.987150e-08
2.980182e-08
2.924131e-08
2.836187e-08
2.732417e-08
2.614318e-08
2.418746e-08
2.174711e-08
0.000000e+00
5.027894e-10
4.342183e-09
1.003222e-08
1.599056e-08
2.117986e-08
2.516470e-08
2.786199e-08
2.939208e-08
2.997270e-08
2.985070e-08
2.925992e-08
2.840674e-08
2.747632e-08
2.655017e-08
2.524669e-08
2.383736e-08
0.000000e+00
4.242800e-10
4.353750e-09
1.009398e-08
1.594412e-08
2.103606e-08
2.496113e-08
2.763636e-08
2.916806e-08
2.976127e-08
2.965886e-08
2.910180e-08
2.830879e-08
2.746701e-08
2.668757e-08
2.583050e-08
2.513002e-08
0.000000e+00
7.645457e-10
4.853647e-09
1.027376e-08
1.565527e-08
2.041877e-08
2.419221e-08
2.685521e-08
2.845940e-08
2.916463e-08
2.918505e-08
2.874928e-08
2.807391e-08
2.734446e-08
2.668375e-08
2.609801e-08
2.575824e-08
0.000000e+00
3.207042e-09
7.242012e-09
1.114882e-08
1.528994e-08
1.926879e-08
2.270559e-08
2.534101e-08
2.710361e-08
2.805910e-08
2.835573e-08
2.817965e-08
2.772362e-08
2.716201e-08
2.662605e-08
2.619500e-08
2.597087e-08
0.000000e+00
7.881939e-09
1.101654e-08
1.292475e-08
1.527354e-08
1.811074e-08
2.099515e-08
2.350951e-08
2.542051e-08
2.667009e-08
2.731378e-08
2.747215e-08
2.729608e-08
2.693981e-08
2.653806e-08
2.620148e-08
2.600345e-08


5.950731e-01
5.950699e-01
5.950801e-01
5.951030e-01
5.951259e-01
5.951467e-01
5.951653e-01
5.951816e-01
5.951959e-01
5.952085e-01
5.952195e-01
5.952286e-01
5.952338e-01
5.952292e-01
5.952156e-01
5.952054e-01
5.951096e-01
5.951048e-01
5.951115e-01
5.951293e-01
5.951477e-01
5.951644e-01
5.951794e-01
5.951928e-01
5.952046e-01
5.952151e-01
5.952242e-01
5.952316e-01
5.952348e-01
5.952284e-01
5.952142e-01
5.952040e-01
5.951711e-01
5.951657e-01
5.951668e-01
5.951759e-01
5.951859e-01
5.951955e-01
5.952043e-01
5.952123e-01
5.952195e-01
5.952259e-01
5.952314e-01
5.952354e-01
5.952359e-01
5.952290e-01
5.952170e-01
5.952093e-01
5.952156e-01
5.952102e-01
5.952074e-01
5.952095e-01
5.952134e-01
5.952177e-01
5.952219e-01
5.952258e-01
5.952292e-01
5.952321e-01
5.952344e-01
5.952357e-01
5.952353e-01
5.952310e-01
5.952249e-01
5.952217e-01
5.952156e-01
5.952102e-01
5.952074e-01
5.952094e-01
5.952132e-01
5.952173e-01
5.952213e-01
5.952248e-01
5.952277e-01
5.952301e-01
5.952320e-01
5.952335e-01
5.952345e-01
5.952346e-01
5.952346e-01
5.952355e-01
5.951711e-01
5.951656e-01
5.951667e-01
5.951757e-01
5.951855e-01
5.951948e-01
5.952031e-01
5.952104e-01
5.952168e-01
5.952223e-01
5.952271e-01
5.952316e-01
5.952359e-01
5.952401e-01
5.952443e-01
5.952475e-01
5.951095e-01
5.951047e-01
5.951114e-01
5.951291e-01
5.951475e-01
5.951641e-01
5.951789e-01
5.951920e-01
5.952035e-01
5.952138e-01
5.952230e-01
5.952314e-01
5.952393e-01
5.952464e-01
5.952525e-01
5.952561e-01
5.950730e-01
5.950698e-01
5.950800e-01
5.951029e-01
5.951259e-01
5.951468e-01
5.951655e-01
5.951822e-01
5.951969e-01
5.952100e-01
5.952219e-01
5.952327e-01
5.952424e-01
5.952507e-01
5.952571e-01
5.952606e-01


9.066759e-01
9.199108e-01
9.321516e-01
9.415723e-01
9.503175e-01
9.583823e-01
9.657307e-01
9.722762e-01
9.779499e-01
9.826955e-01
9.864693e-01
9.892338e-01
9.909524e-01
9.915658e-01
9.920087e-01
9.647258e-01
9.646946e-01
9.586299e-01
9.625305e-01
9.676210e-01
9.723674e-01
9.766818e-01
9.805879e-01
9.841262e-01
9.873302e-01
9.902327e-01
9.928664e-01
9.952514e-01
9.973322e-01
9.986949e-01
9.952494e-01
9.485461e-01
9.877330e-01
9.842494e-01
9.833082e-01
9.846301e-01
9.863695e-01
9.880545e-01
9.896191e-01
9.910978e-01
9.925302e-01
9.939270e-01
9.952316e-01
9.962417e-01
9.964525e-01
9.946335e-01
9.880343e-01
9.761655e-01
9.975031e-01
9.949622e-01
9.933924e-01
9.929940e-01
9.931526e-01
9.934193e-01
9.936854e-01
9.939457e-01
9.942011e-01
9.944149e-01
9.944744e-01
9.941562e-01
9.931471e-01
9.913360e-01
9.898002e-01
9.894116e-01
9.975124e-01
9.949754e-01
9.934043e-01
9.929915e-01
9.931131e-01
9.933053e-01
9.934386e-01
9.934834e-01
9.934219e-01
9.932251e-01
9.928585e-01
9.923304e-01
9.918275e-01
9.919274e-01
9.933488e-01
9.958093e-01
9.877506e-01
9.842760e-01
9.833337e-01
9.846304e-01
9.863019e-01
9.878459e-01
9.891523e-01
9.902025e-01
9.909890e-01
9.915187e-01
9.918535e-01
9.921809e-01
9.928690e-01
9.943116e-01
9.964787e-01
9.987194e-01
9.646913e-01
9.586274e-01
9.625252e-01
9.676064e-01
9.723302e-01
9.765969e-01
9.804119e-01
9.837902e-01
9.867342e-01
9.892508e-01
9.913815e-01
9.932424e-01
9.950346e-01
9.969136e-01
9.986708e-01
9.997775e-01
9.066122e-01
9.198111e-01
9.320294e-01
9.414352e-01
9.501943e-01
9.583376e-01
9.658826e-01
9.728113e-01
9.791250e-01
9.848114e-01
9.898026e-01
9.939434e-01
9.970239e-01
9.989246e-01
9.997892e-01
9.999955e-01
1 2 19 18
2 3 20 19
3 4 21 20
4 5 22 21
5 6 23 22
6 7 24 23
7 8 25 24
8 9 26 25
9 10 27 26
10 11 28 27
11 12 29 28
12 13 30 29
13 14 31 30
14 15 32 31
15 16 33 32
16 17 34 33
18 19 36 35
19 20 37 36
20 21 38 37
21 22 39 38
22 23 40 39
23 24 41 40
24 25 42 41
25 26 43 42
26 27 44 43
27 28 45 44
28 29 46 45
29 30 47 46
30 31 48 47
31 32 49 48
32 33 50 49
33 34 51 50
35 36 53 52
36 37 54 53
37 38 55 54
38 39 56 55
39 40 57 56
40 41 58 57
41 42 59 58
42 43 60 59
43 44 61 60
44 45 62 61
45 46 63 62
46 47 64 63
47 48 65 64
48 49 66 65
49 50 67 66
50 51 68 67
52 53 70 69
53 54 71 70
54 55 72 71
55 56 73 72
56 57 74 73
57 58 75 74
58 59 76 75
59 60 77 76
60 61 78 77
61 62 79 78
62 63 80 79
63 64 81 80
64 65 82 81
65 66 83 82
66 67 84 83
67 68 85 84
69 70 87 86
70 71 88 87
71 72 89 88
72 73 90 89
73 74 91 90
74 75 92 91
75 76 93 92
76 77 94 93
77 78 95 94
78 79 96 95
79 80 97 96
80 81 98 97
81 82 99 98
82 83 100 99
83 84 101 100
84 85 102 101
86 87 104 103
87 88 105 104
88 89 106 105
89 90 107 106
90 91 108 107
91 92 109 108
92 93 110 109
93 94 111 110
94 95 112 111
95 96 113 112
96 97 114 113
97 98 115 114
98 99 116 115
99 100 117 116
100 101 118 117
101 102 119 118
103 104 121 120
104 105 122 121
105 106 123 122
106 107 124 123
107 108 125 124
108 109 126 125
109 110 127 126
110 111 128 127
111 112 129 128
112 113 130 129
113 114 131 130
114 115 132 131
115 116 133 132
116 117 134 133
117 118 135 134
118 119 136 135
120 121 138 137
121 122 139 138
122 123 140 139
123 124 141 140
124 125 142 141
125 126 143 142
126 127 144 143
127 128 145 144
128 129 146 145
129 130 147 146
130 131 148 147
131 132 149 148
132 133 150 149
133 134 151 150
134 135 152 151
135 136 153 152
