TITLE = "Solution"
VARIABLES = x, y, u, v, psiu, psiv, t, stress
ZONE T="structure" N=153 E=128 F=FEBLOCK ET=QUADRILATERAL VARLOCATION=([7,8]=cellcentered)
0.000000e+00
1.250000e+01
2.500000e+01
3.750000e+01
5.000000e+01
6.250000e+01
7.500000e+01
8.750000e+01
1.000000e+02
1.125000e+02
1.250000e+02
1.375000e+02
1.500000e+02
1.625000e+02
1.750000e+02
1.875000e+02
2.000000e+02
0.000000e+00
1.250000e+01
2.500000e+01
3.750000e+01
5.000000e+01
6.250000e+01
7.500000e+01
8.750000e+01
1.000000e+02
1.125000e+02
1.250000e+02
1.375000e+02
1.500000e+02
1.625000e+02
1.750000e+02
1.875000e+02
2.000000e+02
0.000000e+00
1.250000e+01
2.500000e+01
3.750000e+01
5.000000e+01
6.250000e+01
7.500000e+01
8.750000e+01
1.000000e+02
1.125000e+02
1.250000e+02
1.375000e+02
1.500000e+02
1.625000e+02
1.750000e+02
1.875000e+02
2.000000e+02
0.000000e+00
1.250000e+01
2.500000e+01
3.750000e+01
5.000000e+01
6.250000e+01
7.500000e+01
8.750000e+01
1.000000e+02
1.125000e+02
1.250000e+02
1.375000e+02
1.500000e+02
1.625000e+02
1.750000e+02
1.875000e+02
2.000000e+02
0.000000e+00
1.250000e+01
2.500000e+01
3.750000e+01
5.000000e+01
6.250000e+01
7.500000e+01
8.750000e+01
1.000000e+02
1.125000e+02
1.250000e+02
1.375000e+02
1.500000e+02
1.625000e+02
1.750000e+02
1.875000e+02
2.000000e+02
0.000000e+00
1.250000e+01
2.500000e+01
3.750000e+01
5.000000e+01
6.250000e+01
7.500000e+01
8.750000e+01
1.000000e+02
1.125000e+02
1.250000e+02
1.375000e+02
1.500000e+02
1.625000e+02
1.750000e+02
1.875000e+02
2.000000e+02
0.000000e+00
1.250000e+01
2.500000e+01
3.750000e+01
5.000000e+01
6.250000e+01
7.500000e+01
8.750000e+01
1.000000e+02
1.125000e+02
1.250000e+02
1.375000e+02
1.500000e+02
1.625000e+02
1.750000e+02
1.875000e+02
2.000000e+02
0.000000e+00
1.250000e+01
2.500000e+01
3.750000e+01
5.000000e+01
6.250000e+01
7.500000e+01
8.750000e+01
1.000000e+02
1.125000e+02
1.250000e+02
1.375000e+02
1.500000e+02
1.625000e+02
1.750000e+02
1.875000e+02
2.000000e+02
0.000000e+00
1.250000e+01
2.500000e+01
3.750000e+01
5.000000e+01
6.250000e+01
7.500000e+01
8.750000e+01
1.000000e+02
1.125000e+02
1.250000e+02
1.375000e+02
1.500000e+02
1.625000e+02
1.750000e+02
1.875000e+02
2.000000e+02
0.000000e+00
0.000000e+00
0.000000e+00
0.000000e+00
0.000000e+00
0.000000e+00
0.000000e+00
0.000000e+00
0.000000e+00
0.000000e+00
0.000000e+00
0.000000e+00
0.000000e+00
0.000000e+00
0.000000e+00
0.000000e+00
0.000000e+00
1.250000e+01
1.250000e+01
1.250000e+01
1.250000e+01
1.250000e+01
1.250000e+01
1.250000e+01
1.250000e+01
1.250000e+01
1.250000e+01
1.250000e+01
1.250000e+01
1.250000e+01
1.250000e+01
1.250000e+01
1.250000e+01
1.250000e+01
2.500000e+01
2.500000e+01
2.500000e+01
2.500000e+01
2.500000e+01
2.500000e+01
2.500000e+01
2.500000e+01
2.500000e+01
2.500000e+01
2.500000e+01
2.500000e+01
2.500000e+01
2.500000e+01
2.500000e+01
2.500000e+01
2.500000e+01
3.750000e+01
3.750000e+01
3.750000e+01
3.750000e+01
3.750000e+01
3.750000e+01
3.750000e+01
3.750000e+01
3.750000e+01
3.750000e+01
3.750000e+01
3.750000e+01
3.750000e+01
3.750000e+01
3.750000e+01
3.750000e+01
3.750000e+01
5.000000e+01
5.000000e+01
5.000000e+01
5.000000e+01
5.000000e+01
5.000000e+01
5.000000e+01
5.000000e+01
5.000000e+01
5.000000e+01
5.000000e+01
5.000000e+01
5.000000e+01
5.000000e+01
5.000000e+01
5.000000e+01
5.000000e+01
6.250000e+01
6.250000e+01
6.250000e+01
6.250000e+01
6.250000e+01
6.250000e+01
6.250000e+01
6.250000e+01
6.250000e+01
6.250000e+01
6.250000e+01
6.250000e+01
6.250000e+01
6.250000e+01
6.250000e+01
6.250000e+01
6.250000e+01
7.500000e+01
7.500000e+01
7.500000e+01
7.500000e+01
7.500000e+01
7.500000e+01
7.500000e+01
7.500000e+01
7.500000e+01
7.500000e+01
7.500000e+01
7.500000e+01
7.500000e+01
7.500000e+01
7.500000e+01
7.500000e+01
7.500000e+01
8.750000e+01
8.750000e+01
8.750000e+01
8.750000e+01
8.750000e+01
8.750000e+01
8.750000e+01
8.750000e+01
8.750000e+01
8.750000e+01
8.750000e+01
8.750000e+01
8.750000e+01
8.750000e+01
8.750000e+01
8.750000e+01
8.750000e+01
1.000000e+02
1.000000e+02
1.000000e+02
1.000000e+02
1.000000e+02
1.000000e+02
1.000000e+02
1.000000e+02
1.000000e+02
1.000000e+02
1.000000e+02
1.000000e+02
1.000000e+02
1.000000e+02
1.000000e+02
1.000000e+02
1.000000e+02
0.000000e+00
-1.027493e+00
-1.691351e+00
-2.418526e+00
-3.109807e+00
-3.755379e+00
-4.423095e+00
-5.005114e+00
-5.657963e+00
-6.374606e+00
-7.057006e+00
-7.742849e+00
-8.460887e+00
-9.196761e+00
-1.000818e+01
-1.071384e+01
-1.115636e+01
0.000000e+00
-4.685705e-01
-9.243812e-01
-1.421148e+00
-1.943511e+00
-2.440331e+00
-2.952212e+00
-3.430922e+00
-3.933072e+00
-4.475919e+00
-4.975311e+00
-5.469077e+00
-5.972578e+00
-6.451256e+00
-6.826150e+00
-6.929934e+00
-7.099222e+00
0.000000e+00
-1.562504e-01
-3.646877e-01
-6.578429e-01
-1.010044e+00
-1.350528e+00
-1.722231e+00
-2.091868e+00
-2.446975e+00
-2.793694e+00
-3.106661e+00
-3.412114e+00
-3.690628e+00
-3.889439e+00
-3.954001e+00
-3.933213e+00
-4.082740e+00
0.000000e+00
-7.898080e-02
-1.645503e-01
-3.195593e-01
-4.683539e-01
-6.446056e-01
-8.299499e-01
-9.934343e-01
-1.153879e+00
-1.292718e+00
-1.431360e+00
-1.553230e+00
-1.627675e+00
-1.629070e+00
-1.564387e+00
-1.556610e+00
-1.694017e+00
0.000000e+00
-2.016038e-03
-4.281689e-03
-6.355852e-03
-7.490304e-03
-6.234171e-03
-5.976448e-04
1.165006e-02
3.237258e-02
6.296138e-02
1.068533e-01
1.718134e-01
2.646860e-01
3.798239e-01
4.714848e-01
4.794058e-01
3.767450e-01
0.000000e+00
7.565549e-02
1.583812e-01
3.101846e-01
4.570208e-01
6.341761e-01
8.259104e-01
1.006233e+00
1.198119e+00
1.388387e+00
1.607238e+00
1.842835e+00
2.068890e+00
2.262277e+00
2.391433e+00
2.417129e+00
2.356411e+00
0.000000e+00
1.548013e-01
3.622366e-01
6.542709e-01
1.004883e+00
1.343481e+00
1.714291e+00
2.086089e+00
2.450668e+00
2.821920e+00
3.178393e+00
3.540970e+00
3.874094e+00
4.137700e+00
4.307063e+00
4.367371e+00
4.351744e+00
0.000000e+00
4.684691e-01
9.242093e-01
1.420408e+00
1.942110e+00
2.437546e+00
2.946589e+00
3.421395e+00
3.915094e+00
4.446127e+00
4.934280e+00
5.398114e+00
5.817034e+00
6.139906e+00
6.344787e+00
6.436153e+00
6.452924e+00
0.000000e+00
1.028630e+00
1.693550e+00
2.421847e+00
3.114694e+00
3.762407e+00
4.430366e+00
5.010646e+00
5.652355e+00
6.340950e+00
6.976438e+00
7.565345e+00
8.073444e+00
8.432894e+00
8.621733e+00
8.672877e+00
8.672912e+00
0.000000e+00
-6.293704e-01
-1.365160e+00
-2.354799e+00
-3.519909e+00
-4.846457e+00
-6.336474e+00
-7.955623e+00
-9.735091e+00
-1.167947e+01
-1.378464e+01
-1.608436e+01
-1.858073e+01
-2.127435e+01
-2.420834e+01
-2.757347e+01
-3.253110e+01
0.000000e+00
-4.253140e-01
-1.202347e+00
-2.169789e+00
-3.346196e+00
-4.671004e+00
-6.168606e+00
-7.795151e+00
-9.555008e+00
-1.149993e+01
-1.361113e+01
-1.590924e+01
-1.840505e+01
-2.110659e+01
-2.408016e+01
-2.748349e+01
-3.153728e+01
0.000000e+00
-3.953926e-01
-1.098222e+00
-2.064074e+00
-3.221226e+00
-4.537982e+00
-6.041774e+00
-7.669441e+00
-9.440685e+00
-1.138628e+01
-1.350306e+01
-1.581090e+01
-1.832266e+01
-2.105388e+01
-2.406875e+01
-2.731940e+01
-3.037074e+01
0.000000e+00
-4.473518e-01
-1.083326e+00
-2.034346e+00
-3.153568e+00
-4.456471e+00
-5.961111e+00
-7.598248e+00
-9.395447e+00
-1.133962e+01
-1.346638e+01
-1.579341e+01
-1.832461e+01
-2.106275e+01
-2.401213e+01
-2.698162e+01
-2.955908e+01
0.000000e+00
-4.520368e-01
-1.101869e+00
-2.017670e+00
-3.139955e+00
-4.438042e+00
-5.934410e+00
-7.593434e+00
-9.397747e+00
-1.135233e+01
-1.349003e+01
-1.583375e+01
-1.836510e+01
-2.106800e+01
-2.387672e+01
-2.660862e+01
-2.893646e+01
0.000000e+00
-4.470977e-01
-1.084370e+00
-2.037688e+00
-3.160374e+00
-4.468636e+00
-5.981670e+00
-7.630984e+00
-9.442461e+00
-1.140376e+01
-1.355334e+01
-1.590036e+01
-1.841657e+01
-2.105811e+01
-2.374797e+01
-2.631843e+01
-2.854296e+01
0.000000e+00
-3.954453e-01
-1.100288e+00
-2.069549e+00
-3.232163e+00
-4.557859e+00
-6.075352e+00
-7.722622e+00
-9.517943e+00
-1.149385e+01
-1.364597e+01
-1.598519e+01
-1.847924e+01
-2.106552e+01
-2.366027e+01
-2.613289e+01
-2.834324e+01
0.000000e+00
-4.255204e-01
-1.204507e+00
-2.175416e+00
-3.357731e+00
-4.692169e+00
-6.204971e+00
-7.852989e+00
-9.641455e+00
-1.162371e+01
-1.377235e+01
-1.609727e+01
-1.856685e+01
-2.110917e+01
-2.363698e+01
-2.604848e+01
-2.828916e+01
0.000000e+00
-6.298397e-01
-1.367444e+00
-2.360596e+00
-3.531691e+00
-4.867836e+00
-6.372834e+00
-8.012474e+00
-9.819099e+00
-1.179897e+01
-1.393671e+01
-1.624543e+01
-1.868518e+01
-2.118288e+01
-2.365962e+01
-2.603258e+01
-2.828894e+01


0.000000e+00
1.374635e-05
2.421687e-05
3.720724e-05
5.149216e-05
6.526099e-05
7.978139e-05
9.351490e-05
1.089404e-04
1.238602e-04
1.354703e-04
1.449400e-04
1.521734e-04
1.567181e-04
1.600017e-04
1.637905e-04
1.688223e-04
0.000000e+00
9.583258e-06
1.918793e-05
2.898005e-05
4.073590e-05
5.166973e-05
6.262446e-05
7.393626e-05
8.593133e-05
9.657015e-05
1.039115e-04
1.095814e-04
1.131786e-04
1.135772e-04
1.131181e-04
1.169292e-04
1.225451e-04
0.000000e+00
7.806679e-06
1.497883e-05
2.174946e-05
3.031501e-05
3.786798e-05
4.541662e-05
5.328960e-05
6.033309e-05
6.562962e-05
6.916367e-05
7.168874e-05
7.274620e-05
7.211678e-05
7.194175e-05
7.516511e-05
8.034113e-05
0.000000e+00
4.448807e-06
7.128140e-06
1.137755e-05
1.517598e-05
1.890618e-05
2.291424e-05
2.647640e-05
2.943277e-05
3.133596e-05
3.251079e-05
3.290470e-05
3.272193e-05
3.280912e-05
3.379780e-05
3.666975e-05
4.106523e-05
0.000000e+00
-5.855761e-08
-1.306121e-07
-2.023107e-07
-2.744704e-07
-3.371122e-07
-3.880100e-07
-4.277253e-07
-5.307414e-07
-8.417921e-07
-1.543931e-06
-2.535206e-06
-3.379910e-06
-3.438354e-06
-2.466156e-06
-9.710385e-07
1.124044e-06
0.000000e+00
-4.556783e-06
-7.336546e-06
-1.171555e-05
-1.561456e-05
-1.943910e-05
-2.350736e-05
-2.709354e-05
-3.001122e-05
-3.193210e-05
-3.357671e-05
-3.512778e-05
-3.633375e-05
-3.697699e-05
-3.744465e-05
-3.778423e-05
-3.739906e-05
0.000000e+00
-7.866045e-06
-1.508919e-05
-2.191628e-05
-3.056811e-05
-3.820372e-05
-4.582771e-05
-5.370622e-05
-6.057527e-05
-6.539650e-05
-6.807018e-05
-6.957413e-05
-7.066180e-05
-7.168745e-05
-7.272660e-05
-7.360898e-05
-7.384814e-05
0.000000e+00
-9.601261e-06
-1.920701e-05
-2.898312e-05
-4.077299e-05
-5.175918e-05
-6.274233e-05
-7.408089e-05
-8.608523e-05
-9.657453e-05
-1.028427e-04
-1.061663e-04
-1.079473e-04
-1.091998e-04
-1.100759e-04
-1.105232e-04
-1.106478e-04
0.000000e+00
-1.374914e-05
-2.417459e-05
-3.708388e-05
-5.130634e-05
-6.503225e-05
-7.945621e-05
-9.314001e-05
-1.086013e-04
-1.236970e-04
-1.349379e-04
-1.421771e-04
-1.461993e-04
-1.479034e-04
-1.483642e-04
-1.483036e-04
-1.482263e-04
0.000000e+00
1.161733e-05
2.002170e-05
3.199036e-05
4.683404e-05
6.409339e-05
8.537203e-05
1.100088e-04
1.384788e-04
1.693171e-04
2.026419e-04
2.393015e-04
2.780175e-04
3.191597e-04
3.677804e-04
4.242862e-04
4.805427e-04
0.000000e+00
6.731656e-06
1.545419e-05
2.598887e-05
4.065206e-05
5.792570e-05
7.909924e-05
1.036114e-04
1.317287e-04
1.637049e-04
1.984582e-04
2.360915e-04
2.761670e-04
3.183049e-04
3.640321e-04
4.172380e-04
4.716784e-04
0.000000e+00
3.169045e-06
1.102851e-05
2.093927e-05
3.504954e-05
5.278755e-05
7.384558e-05
9.861579e-05
1.273889e-04
1.602913e-04
1.960106e-04
2.343552e-04
2.753808e-04
3.178109e-04
3.595005e-04
4.084685e-04
4.611446e-04
0.000000e+00
1.999595e-06
8.606449e-06
1.857640e-05
3.255466e-05
5.047532e-05
7.179874e-05
9.697532e-05
1.263346e-04
1.593938e-04
1.952768e-04
2.337358e-04
2.750531e-04
3.172387e-04
3.567382e-04
4.004556e-04
4.491933e-04
0.000000e+00
1.622753e-06
7.996363e-06
1.780787e-05
3.187294e-05
4.971035e-05
7.120421e-05
9.663723e-05
1.262047e-04
1.592784e-04
1.951354e-04
2.336669e-04
2.749185e-04
3.171808e-04
3.565576e-04
3.965569e-04
4.399234e-04
0.000000e+00
2.028337e-06
8.629288e-06
1.856790e-05
3.248445e-05
5.034119e-05
7.161529e-05
9.680862e-05
1.263009e-04
1.595192e-04
1.957074e-04
2.344901e-04
2.756208e-04
3.173270e-04
3.573596e-04
3.962040e-04
4.352673e-04
0.000000e+00
3.210551e-06
1.106786e-05
2.091870e-05
3.493502e-05
5.255178e-05
7.350181e-05
9.824024e-05
1.271393e-04
1.604572e-04
1.969367e-04
2.359392e-04
2.767189e-04
3.177180e-04
3.575550e-04
3.961246e-04
4.336687e-04
0.000000e+00
6.782044e-06
1.550120e-05
2.598185e-05
4.055506e-05
5.769904e-05
7.873355e-05
1.031600e-04
1.313765e-04
1.637533e-04
1.991757e-04
2.374526e-04
2.775404e-04
3.179788e-04
3.575320e-04
3.959767e-04
4.335240e-04
0.000000e+00
1.167057e-05
2.006045e-05
3.198577e-05
4.676184e-05
6.389364e-05
8.503123e-05
1.095894e-04
1.381677e-04
1.692467e-04
2.026325e-04
2.392623e-04
2.783265e-04
3.181777e-04
3.575498e-04
3.959056e-04
4.335917e-04


6.371984e+00
6.065694e+00
6.246553e+00
5.270566e+00
4.755757e+00
5.095997e+00
4.922330e+00
4.760510e+00
4.548552e+00
4.707971e+00
5.545547e+00
6.580195e+00
7.362994e+00
8.112068e+00
8.165725e+00
7.796722e+00
7.905433e+00
8.148871e+00
8.171470e+00
7.761620e+00
7.379139e+00
7.509121e+00
7.141746e+00
6.184077e+00
5.517858e+00
5.493031e+00
6.272061e+00
7.155157e+00
7.649992e+00
7.771298e+00
7.282284e+00
6.188442e+00
9.336276e+00
9.500401e+00
9.768118e+00
9.438131e+00
9.271803e+00
9.351875e+00
8.950646e+00
8.060096e+00
7.178564e+00
7.032568e+00
7.427531e+00
7.789869e+00
7.798007e+00
7.451930e+00
6.508428e+00
5.713248e+00
9.618947e+00
9.818487e+00
9.922461e+00
9.721366e+00
9.511690e+00
9.578235e+00
9.628055e+00
9.245318e+00
8.683529e+00
8.348530e+00
8.124175e+00
7.796504e+00
7.464151e+00
7.049436e+00
6.551065e+00
6.079829e+00
9.614650e+00
9.812040e+00
9.900823e+00
9.666631e+00
9.434273e+00
9.507756e+00
9.590183e+00
9.253191e+00
8.753069e+00
8.411571e+00
8.008104e+00
7.446292e+00
7.128738e+00
7.100375e+00
7.031281e+00
6.942037e+00
9.325799e+00
9.489269e+00
9.722689e+00
9.323907e+00
9.102258e+00
9.184649e+00
8.836368e+00
8.047649e+00
7.302540e+00
7.213018e+00
7.343626e+00
7.269533e+00
7.310395e+00
7.673296e+00
8.019400e+00
8.149603e+00
7.896016e+00
8.139827e+00
8.140249e+00
7.675367e+00
7.235190e+00
7.350670e+00
7.021072e+00
6.142602e+00
5.618197e+00
5.768569e+00
6.560168e+00
7.276592e+00
7.815190e+00
8.409002e+00
8.904170e+00
9.111294e+00
6.360356e+00
6.060567e+00
6.236138e+00
5.232915e+00
4.679885e+00
4.996600e+00
4.853528e+00
4.747478e+00
4.634480e+00
5.029563e+00
6.137868e+00
7.330903e+00
8.206406e+00
8.876694e+00
9.350560e+00
9.546411e+00


-9.543160e-01
-1.196577e-01
-3.105517e-01
-2.928435e-01
-1.508816e-01
-2.231554e-01
1.191369e-04
-1.817953e-01
-4.006434e-01
-2.374799e-01
-2.324836e-01
-3.131762e-01
-2.857071e-01
-2.018454e-01
4.213167e-01
-7.400347e-01
5.770672e-01
4.858615e-01
3.200546e-01
1.867363e-01
2.392766e-01
1.420433e-01
1.922122e-01
1.725499e-01
1.210268e-01
2.543258e-01
2.739222e-01
3.081551e-01
4.798751e-01
7.204968e-01
7.320731e-01
-9.677169e-01
7.238363e-01
4.902471e-01
9.918059e-02
3.535751e-02
4.077184e-02
-3.809875e-02
1.264597e-01
2.393251e-01
3.380968e-01
3.887539e-01
3.801332e-01
4.109983e-01
4.585986e-01
3.303438e-01
5.154903e-02
-4.164570e-01
7.330053e-01
5.678486e-01
2.289275e-01
1.486122e-01
1.024881e-01
6.355408e-02
1.547200e-01
2.150444e-01
2.781846e-01
2.648540e-01
2.276374e-01
1.871048e-01
7.153801e-02
-1.715963e-01
-2.424300e-01
-9.051670e-02
7.345611e-01
5.703978e-01
2.345718e-01
1.532008e-01
1.009592e-01
4.457630e-02
1.100006e-01
1.399009e-01
1.695393e-01
1.094750e-01
2.303001e-02
-4.748912e-02
-1.414924e-01
-1.722595e-01
4.471645e-02
4.464162e-01
7.269752e-01
4.941273e-01
1.063434e-01
4.086363e-02
3.421097e-02
-7.255821e-02
4.783140e-02
1.023711e-01
1.208121e-01
5.902185e-02
-8.741968e-02
-1.462499e-01
-9.934664e-02
5.544742e-02
3.933572e-01
7.826508e-01
5.791009e-01
4.868319e-01
3.213314e-01
1.873674e-01
2.380057e-01
1.340851e-01
1.689562e-01
1.218260e-01
4.252567e-03
4.994874e-02
-1.912159e-02
-9.142770e-03
1.673114e-01
4.310223e-01
7.355954e-01
9.535032e-01
-9.566939e-01
-1.216712e-01
-3.118686e-01
-2.950347e-01
-1.529102e-01
-2.194548e-01
7.996604e-03
-1.493727e-01
-3.319575e-01
-1.481256e-01
-3.367984e-02
1.642127e-01
5.045622e-01
7.948308e-01
9.548477e-01
9.988893e-01
1 2 19 18
2 3 20 19
3 4 21 20
4 5 22 21
5 6 23 22
6 7 24 23
7 8 25 24
8 9 26 25
9 10 27 26
10 11 28 27
11 12 29 28
12 13 30 29
13 14 31 30
14 15 32 31
15 16 33 32
16 17 34 33
18 19 36 35
19 20 37 36
20 21 38 37
21 22 39 38
22 23 40 39
23 24 41 40
24 25 42 41
25 26 43 42
26 27 44 43
27 28 45 44
28 29 46 45
29 30 47 46
30 31 48 47
31 32 49 48
32 33 50 49
33 34 51 50
35 36 53 52
36 37 54 53
37 38 55 54
38 39 56 55
39 40 57 56
40 41 58 57
41 42 59 58
42 43 60 59
43 44 61 60
44 45 62 61
45 46 63 62
46 47 64 63
47 48 65 64
48 49 66 65
49 50 67 66
50 51 68 67
52 53 70 69
53 54 71 70
54 55 72 71
55 56 73 72
56 57 74 73
57 58 75 74
58 59 76 75
59 60 77 76
60 61 78 77
61 62 79 78
62 63 80 79
63 64 81 80
64 65 82 81
65 66 83 82
66 67 84 83
67 68 85 84
69 70 87 86
70 71 88 87
71 72 89 88
72 73 90 89
73 74 91 90
74 75 92 91
75 76 93 92
76 77 94 93
77 78 95 94
78 79 96 95
79 80 97 96
80 81 98 97
81 82 99 98
82 83 100 99
83 84 101 100
84 85 102 101
86 87 104 103
87 88 105 104
88 89 106 105
89 90 107 106
90 91 108 107
91 92 109 108
92 93 110 109
93 94 111 110
94 95 112 111
95 96 113 112
96 97 114 113
97 98 115 114
98 99 116 115
99 100 117 116
100 101 118 117
101 102 119 118
103 104 121 120
104 105 122 121
105 106 123 122
106 107 124 123
107 108 125 124
108 109 126 125
109 110 127 126
110 111 128 127
111 112 129 128
112 113 130 129
113 114 131 130
114 115 132 131
115 116 133 132
116 117 134 133
117 118 135 134
118 119 136 135
120 121 138 137
121 122 139 138
122 123 140 139
123 124 141 140
124 125 142 141
125 126 143 142
126 127 144 143
127 128 145 144
128 129 146 145
129 130 147 146
130 131 148 147
131 132 149 148
132 133 150 149
133 134 151 150
134 135 152 151
135 136 153 152
