TITLE = "Solution"
VARIABLES = x, y, u, v, psiu, psiv, t, stress
ZONE T="structure" N=153 E=128 F=FEBLOCK ET=QUADRILATERAL VARLOCATION=([7,8]=cellcentered)
0.000000e+00
1.250000e+01
2.500000e+01
3.750000e+01
5.000000e+01
6.250000e+01
7.500000e+01
8.750000e+01
1.000000e+02
1.125000e+02
1.250000e+02
1.375000e+02
1.500000e+02
1.625000e+02
1.750000e+02
1.875000e+02
2.000000e+02
0.000000e+00
1.250000e+01
2.500000e+01
3.750000e+01
5.000000e+01
6.250000e+01
7.500000e+01
8.750000e+01
1.000000e+02
1.125000e+02
1.250000e+02
1.375000e+02
1.500000e+02
1.625000e+02
1.750000e+02
1.875000e+02
2.000000e+02
0.000000e+00
1.250000e+01
2.500000e+01
3.750000e+01
5.000000e+01
6.250000e+01
7.500000e+01
8.750000e+01
1.000000e+02
1.125000e+02
1.250000e+02
1.375000e+02
1.500000e+02
1.625000e+02
1.750000e+02
1.875000e+02
2.000000e+02
0.000000e+00
1.250000e+01
2.500000e+01
3.750000e+01
5.000000e+01
6.250000e+01
7.500000e+01
8.750000e+01
1.000000e+02
1.125000e+02
1.250000e+02
1.375000e+02
1.500000e+02
1.625000e+02
1.750000e+02
1.875000e+02
2.000000e+02
0.000000e+00
1.250000e+01
2.500000e+01
3.750000e+01
5.000000e+01
6.250000e+01
7.500000e+01
8.750000e+01
1.000000e+02
1.125000e+02
1.250000e+02
1.375000e+02
1.500000e+02
1.625000e+02
1.750000e+02
1.875000e+02
2.000000e+02
0.000000e+00
1.250000e+01
2.500000e+01
3.750000e+01
5.000000e+01
6.250000e+01
7.500000e+01
8.750000e+01
1.000000e+02
1.125000e+02
1.250000e+02
1.375000e+02
1.500000e+02
1.625000e+02
1.750000e+02
1.875000e+02
2.000000e+02
0.000000e+00
1.250000e+01
2.500000e+01
3.750000e+01
5.000000e+01
6.250000e+01
7.500000e+01
8.750000e+01
1.000000e+02
1.125000e+02
1.250000e+02
1.375000e+02
1.500000e+02
1.625000e+02
1.750000e+02
1.875000e+02
2.000000e+02
0.000000e+00
1.250000e+01
2.500000e+01
3.750000e+01
5.000000e+01
6.250000e+01
7.500000e+01
8.750000e+01
1.000000e+02
1.125000e+02
1.250000e+02
1.375000e+02
1.500000e+02
1.625000e+02
1.750000e+02
1.875000e+02
2.000000e+02
0.000000e+00
1.250000e+01
2.500000e+01
3.750000e+01
5.000000e+01
6.250000e+01
7.500000e+01
8.750000e+01
1.000000e+02
1.125000e+02
1.250000e+02
1.375000e+02
1.500000e+02
1.625000e+02
1.750000e+02
1.875000e+02
2.000000e+02
0.000000e+00
0.000000e+00
0.000000e+00
0.000000e+00
0.000000e+00
0.000000e+00
0.000000e+00
0.000000e+00
0.000000e+00
0.000000e+00
0.000000e+00
0.000000e+00
0.000000e+00
0.000000e+00
0.000000e+00
0.000000e+00
0.000000e+00
1.250000e+01
1.250000e+01
1.250000e+01
1.250000e+01
1.250000e+01
1.250000e+01
1.250000e+01
1.250000e+01
1.250000e+01
1.250000e+01
1.250000e+01
1.250000e+01
1.250000e+01
1.250000e+01
1.250000e+01
1.250000e+01
1.250000e+01
2.500000e+01
2.500000e+01
2.500000e+01
2.500000e+01
2.500000e+01
2.500000e+01
2.500000e+01
2.500000e+01
2.500000e+01
2.500000e+01
2.500000e+01
2.500000e+01
2.500000e+01
2.500000e+01
2.500000e+01
2.500000e+01
2.500000e+01
3.750000e+01
3.750000e+01
3.750000e+01
3.750000e+01
3.750000e+01
3.750000e+01
3.750000e+01
3.750000e+01
3.750000e+01
3.750000e+01
3.750000e+01
3.750000e+01
3.750000e+01
3.750000e+01
3.750000e+01
3.750000e+01
3.750000e+01
5.000000e+01
5.000000e+01
5.000000e+01
5.000000e+01
5.000000e+01
5.000000e+01
5.000000e+01
5.000000e+01
5.000000e+01
5.000000e+01
5.000000e+01
5.000000e+01
5.000000e+01
5.000000e+01
5.000000e+01
5.000000e+01
5.000000e+01
6.250000e+01
6.250000e+01
6.250000e+01
6.250000e+01
6.250000e+01
6.250000e+01
6.250000e+01
6.250000e+01
6.250000e+01
6.250000e+01
6.250000e+01
6.250000e+01
6.250000e+01
6.250000e+01
6.250000e+01
6.250000e+01
6.250000e+01
7.500000e+01
7.500000e+01
7.500000e+01
7.500000e+01
7.500000e+01
7.500000e+01
7.500000e+01
7.500000e+01
7.500000e+01
7.500000e+01
7.500000e+01
7.500000e+01
7.500000e+01
7.500000e+01
7.500000e+01
7.500000e+01
7.500000e+01
8.750000e+01
8.750000e+01
8.750000e+01
8.750000e+01
8.750000e+01
8.750000e+01
8.750000e+01
8.750000e+01
8.750000e+01
8.750000e+01
8.750000e+01
8.750000e+01
8.750000e+01
8.750000e+01
8.750000e+01
8.750000e+01
8.750000e+01
1.000000e+02
1.000000e+02
1.000000e+02
1.000000e+02
1.000000e+02
1.000000e+02
1.000000e+02
1.000000e+02
1.000000e+02
1.000000e+02
1.000000e+02
1.000000e+02
1.000000e+02
1.000000e+02
1.000000e+02
1.000000e+02
1.000000e+02
0.000000e+00
-9.030839e-01
-1.676871e+00
-2.417025e+00
-3.146796e+00
-3.855613e+00
-4.544584e+00
-5.231784e+00
-5.923077e+00
-6.594449e+00
-7.226923e+00
-7.827530e+00
-8.435872e+00
-9.102655e+00
-9.800200e+00
-1.047638e+01
-1.091332e+01
0.000000e+00
-4.848349e-01
-1.043533e+00
-1.598914e+00
-2.145300e+00
-2.667673e+00
-3.170465e+00
-3.672467e+00
-4.181533e+00
-4.681138e+00
-5.152253e+00
-5.590246e+00
-6.010788e+00
-6.420074e+00
-6.718154e+00
-6.784421e+00
-6.942826e+00
0.000000e+00
-2.562743e-01
-5.683887e-01
-9.288331e-01
-1.285951e+00
-1.624754e+00
-1.954529e+00
-2.287500e+00
-2.624183e+00
-2.952893e+00
-3.260795e+00
-3.533777e+00
-3.760938e+00
-3.920907e+00
-3.958755e+00
-3.932357e+00
-4.088815e+00
0.000000e+00
-9.983752e-02
-2.396910e-01
-4.128187e-01
-5.834913e-01
-7.450029e-01
-9.082211e-01
-1.078195e+00
-1.247197e+00
-1.405163e+00
-1.543275e+00
-1.644660e+00
-1.693635e+00
-1.682502e+00
-1.629858e+00
-1.632321e+00
-1.749328e+00
0.000000e+00
-1.658917e-02
-3.034594e-02
-3.474898e-02
-2.975343e-02
-1.937383e-02
-6.196277e-03
8.407249e-03
2.550348e-02
4.825794e-02
8.457466e-02
1.445569e-01
2.328019e-01
3.417155e-01
4.327742e-01
4.386588e-01
3.501311e-01
0.000000e+00
9.032759e-02
2.139699e-01
3.652492e-01
5.242514e-01
6.926868e-01
8.820959e-01
1.086505e+00
1.287096e+00
1.484745e+00
1.686853e+00
1.887705e+00
2.074300e+00
2.237070e+00
2.354477e+00
2.381753e+00
2.327384e+00
0.000000e+00
2.691487e-01
5.753533e-01
9.032427e-01
1.228625e+00
1.565567e+00
1.925896e+00
2.288339e+00
2.630542e+00
2.966095e+00
3.308459e+00
3.633502e+00
3.906456e+00
4.117510e+00
4.261978e+00
4.318102e+00
4.303829e+00
0.000000e+00
5.037570e-01
1.057677e+00
1.580299e+00
2.095283e+00
2.623688e+00
3.164664e+00
3.680029e+00
4.151803e+00
4.610377e+00
5.076917e+00
5.513195e+00
5.865864e+00
6.123755e+00
6.295280e+00
6.377720e+00
6.393223e+00
0.000000e+00
9.199834e-01
1.684679e+00
2.396572e+00
3.108451e+00
3.839231e+00
4.570854e+00
5.254825e+00
5.880854e+00
6.494245e+00
7.110075e+00
7.665509e+00
8.095887e+00
8.390145e+00
8.554932e+00
8.602291e+00
8.601492e+00
0.000000e+00
-5.648500e-01
-1.190033e+00
-2.006878e+00
-2.993771e+00
-4.159602e+00
-5.518180e+00
-7.076216e+00
-8.826456e+00
-1.075204e+01
-1.283934e+01
-1.508513e+01
-1.750328e+01
-2.011277e+01
-2.295233e+01
-2.624454e+01
-3.107181e+01
0.000000e+00
-3.538839e-01
-1.000921e+00
-1.816408e+00
-2.807199e+00
-3.977940e+00
-5.339388e+00
-6.897209e+00
-8.649173e+00
-1.058258e+01
-1.268132e+01
-1.493461e+01
-1.735119e+01
-1.996937e+01
-2.284116e+01
-2.613850e+01
-3.016242e+01
0.000000e+00
-2.854559e-01
-8.796670e-01
-1.692114e+00
-2.680529e+00
-3.849945e+00
-5.212432e+00
-6.774160e+00
-8.530090e+00
-1.046834e+01
-1.257839e+01
-1.484680e+01
-1.728003e+01
-1.993102e+01
-2.283744e+01
-2.594709e+01
-2.886663e+01
0.000000e+00
-2.822606e-01
-8.394321e-01
-1.634753e+00
-2.611721e+00
-3.771457e+00
-5.135226e+00
-6.708572e+00
-8.472210e+00
-1.041313e+01
-1.253479e+01
-1.482531e+01
-1.727829e+01
-1.993379e+01
-2.278939e+01
-2.562622e+01
-2.811727e+01
0.000000e+00
-2.928693e-01
-8.401355e-01
-1.624575e+00
-2.588727e+00
-3.741221e+00
-5.113254e+00
-6.704277e+00
-8.473919e+00
-1.041397e+01
-1.254422e+01
-1.485293e+01
-1.731121e+01
-1.992642e+01
-2.267532e+01
-2.533077e+01
-2.761826e+01
0.000000e+00
-2.823555e-01
-8.463505e-01
-1.635946e+00
-2.604489e+00
-3.765311e+00
-5.153125e+00
-6.756887e+00
-8.526436e+00
-1.046263e+01
-1.259499e+01
-1.490985e+01
-1.735755e+01
-1.991245e+01
-2.254706e+01
-2.508102e+01
-2.727383e+01
0.000000e+00
-2.901310e-01
-8.871814e-01
-1.690154e+00
-2.668605e+00
-3.845927e+00
-5.246663e+00
-6.851416e+00
-8.618099e+00
-1.055140e+01
-1.268039e+01
-1.498874e+01
-1.741556e+01
-1.991665e+01
-2.245487e+01
-2.490216e+01
-2.708909e+01
0.000000e+00
-3.610432e-01
-1.002791e+00
-1.805915e+00
-2.792095e+00
-3.981391e+00
-5.385229e+00
-6.981406e+00
-8.742736e+00
-1.067579e+01
-1.279985e+01
-1.509202e+01
-1.749274e+01
-1.995404e+01
-2.242851e+01
-2.481716e+01
-2.704202e+01
0.000000e+00
-5.730084e-01
-1.185555e+00
-1.987391e+00
-2.977467e+00
-4.173466e+00
-5.572702e+00
-7.153467e+00
-8.905356e+00
-1.083928e+01
-1.295798e+01
-1.522547e+01
-1.759157e+01
-2.001634e+01
-2.244807e+01
-2.480079e+01
-2.704301e+01


0.000000e+00
9.526060e-06
2.013360e-05
3.014699e-05
3.913521e-05
4.696530e-05
5.389420e-05
6.031928e-05
6.626651e-05
7.134931e-05
7.538735e-05
7.857723e-05
8.119593e-05
8.333671e-05
8.487025e-05
8.644456e-05
8.840914e-05
0.000000e+00
6.941310e-06
1.632093e-05
2.418683e-05
3.080437e-05
3.632888e-05
4.116512e-05
4.573226e-05
5.003055e-05
5.365729e-05
5.639677e-05
5.840903e-05
5.987174e-05
6.070769e-05
6.115788e-05
6.254502e-05
6.464185e-05
0.000000e+00
5.278727e-06
1.148902e-05
1.676997e-05
2.112840e-05
2.461641e-05
2.763472e-05
3.048025e-05
3.314297e-05
3.536664e-05
3.698523e-05
3.804441e-05
3.866029e-05
3.895176e-05
3.929638e-05
4.044914e-05
4.219850e-05
0.000000e+00
2.704156e-06
5.341004e-06
8.130764e-06
1.034176e-05
1.203604e-05
1.344345e-05
1.472044e-05
1.588312e-05
1.684691e-05
1.751988e-05
1.786369e-05
1.797734e-05
1.808767e-05
1.842498e-05
1.916461e-05
2.027029e-05
0.000000e+00
1.817441e-07
3.199180e-07
3.584970e-07
3.044763e-07
1.717699e-07
-4.653388e-08
-3.238521e-07
-6.056399e-07
-8.713243e-07
-1.143630e-06
-1.423519e-06
-1.663994e-06
-1.769030e-06
-1.670819e-06
-1.370541e-06
-7.921628e-07
0.000000e+00
-2.440659e-06
-4.783663e-06
-7.314052e-06
-9.549155e-06
-1.158945e-05
-1.357408e-05
-1.542334e-05
-1.701132e-05
-1.838047e-05
-1.953789e-05
-2.037236e-05
-2.086159e-05
-2.111895e-05
-2.127234e-05
-2.130018e-05
-2.105448e-05
0.000000e+00
-5.106064e-06
-1.081039e-05
-1.562678e-05
-2.003038e-05
-2.420487e-05
-2.811049e-05
-3.139029e-05
-3.400450e-05
-3.626873e-05
-3.826086e-05
-3.968179e-05
-4.044909e-05
-4.084857e-05
-4.111365e-05
-4.125648e-05
-4.120753e-05
0.000000e+00
-6.811961e-06
-1.563091e-05
-2.292564e-05
-2.961756e-05
-3.605768e-05
-4.194369e-05
-4.673887e-05
-5.052222e-05
-5.383265e-05
-5.684517e-05
-5.912214e-05
-6.043931e-05
-6.114194e-05
-6.156100e-05
-6.177014e-05
-6.180501e-05
0.000000e+00
-9.264134e-06
-1.944158e-05
-2.902547e-05
-3.811832e-05
-4.676821e-05
-5.458709e-05
-6.110065e-05
-6.641651e-05
-7.108691e-05
-7.528313e-05
-7.856231e-05
-8.068186e-05
-8.192637e-05
-8.258769e-05
-8.280868e-05
-8.282521e-05
0.000000e+00
8.621472e-06
1.553880e-05
2.311198e-05
3.239495e-05
4.371735e-05
5.724555e-05
7.287539e-05
9.019510e-05
1.087383e-04
1.283175e-04
1.489123e-04
1.704839e-04
1.931070e-04
2.178628e-04
2.451284e-04
2.726147e-04
0.000000e+00
4.245772e-06
1.101105e-05
1.892114e-05
2.873578e-05
4.053595e-05
5.436587e-05
7.018512e-05
8.780594e-05
1.068218e-04
1.268696e-04
1.478114e-04
1.696575e-04
1.924930e-04
2.164323e-04
2.424586e-04
2.692922e-04
0.000000e+00
1.575219e-06
7.480034e-06
1.586501e-05
2.615647e-05
3.834574e-05
5.238583e-05
6.833133e-05
8.613816e-05
1.054608e-04
1.258603e-04
1.470965e-04
1.691668e-04
1.920264e-04
2.150049e-04
2.395492e-04
2.652367e-04
0.000000e+00
7.703460e-07
6.013257e-06
1.443362e-05
2.496814e-05
3.735233e-05
5.153881e-05
6.759998e-05
8.547270e-05
1.048618e-04
1.254107e-04
1.468090e-04
1.689285e-04
1.916220e-04
2.141648e-04
2.375322e-04
2.616955e-04
0.000000e+00
7.175660e-07
5.697353e-06
1.393252e-05
2.447567e-05
3.692976e-05
5.128261e-05
6.750684e-05
8.539418e-05
1.047311e-04
1.253273e-04
1.468218e-04
1.688994e-04
1.913934e-04
2.138035e-04
2.364234e-04
2.590957e-04
0.000000e+00
8.471034e-07
6.071872e-06
1.431636e-05
2.468822e-05
3.712358e-05
5.162238e-05
6.796648e-05
8.579970e-05
1.050271e-04
1.256183e-04
1.471597e-04
1.691581e-04
1.914027e-04
2.136847e-04
2.358208e-04
2.574039e-04
0.000000e+00
1.642682e-06
7.435739e-06
1.561323e-05
2.578372e-05
3.815582e-05
5.268255e-05
6.898923e-05
8.669663e-05
1.057986e-04
1.263297e-04
1.478066e-04
1.696201e-04
1.915871e-04
2.136161e-04
2.354196e-04
2.565646e-04
0.000000e+00
4.172948e-06
1.070780e-05
1.852982e-05
2.852335e-05
4.076035e-05
5.503685e-05
7.096256e-05
8.835014e-05
1.072527e-04
1.275726e-04
1.487183e-04
1.701565e-04
1.918179e-04
2.136168e-04
2.352120e-04
2.563332e-04
0.000000e+00
8.407511e-06
1.503506e-05
2.266529e-05
3.250199e-05
4.451525e-05
5.828969e-05
7.358289e-05
9.051661e-05
1.091651e-04
1.291581e-04
1.497804e-04
1.707353e-04
1.920965e-04
2.137069e-04
2.351769e-04
2.563172e-04


2.230593e+00
2.339627e+00
2.515299e+00
2.674320e+00
2.795052e+00
2.971678e+00
3.320882e+00
3.761616e+00
4.124378e+00
4.417729e+00
4.755546e+00
5.456775e+00
6.476809e+00
6.628973e+00
5.436688e+00
4.293162e+00
3.144893e+00
3.352879e+00
3.477208e+00
3.400064e+00
3.366531e+00
3.572039e+00
4.022559e+00
4.528302e+00
4.957584e+00
5.296618e+00
5.568616e+00
6.023693e+00
6.727550e+00
6.638662e+00
5.327164e+00
4.171766e+00
5.275985e+00
5.666946e+00
5.543874e+00
4.919084e+00
4.574152e+00
4.824389e+00
5.332575e+00
5.721399e+00
6.000936e+00
6.274189e+00
6.373792e+00
6.424299e+00
6.678020e+00
6.429355e+00
5.242888e+00
4.149837e+00
7.244500e+00
7.619430e+00
7.207381e+00
6.118718e+00
5.701062e+00
6.120118e+00
6.586910e+00
6.575239e+00
6.431823e+00
6.478716e+00
6.439495e+00
6.264354e+00
6.357794e+00
6.445737e+00
5.785384e+00
4.907769e+00
6.889084e+00
7.147608e+00
6.637363e+00
5.764080e+00
5.711237e+00
6.446624e+00
6.916396e+00
6.651141e+00
6.277704e+00
6.267743e+00
6.241513e+00
6.076779e+00
6.282509e+00
6.946570e+00
7.010931e+00
6.409736e+00
4.783008e+00
4.859107e+00
4.585144e+00
4.272954e+00
4.625024e+00
5.442042e+00
5.914181e+00
5.771511e+00
5.729338e+00
6.070734e+00
6.299880e+00
6.245026e+00
6.470841e+00
7.448128e+00
8.119012e+00
7.882558e+00
3.000260e+00
3.011068e+00
2.968354e+00
3.053251e+00
3.446280e+00
4.014305e+00
4.328556e+00
4.411709e+00
4.812739e+00
5.574330e+00
6.111736e+00
6.259270e+00
6.560900e+00
7.596743e+00
8.550548e+00
8.693107e+00
2.304334e+00
2.308711e+00
2.381504e+00
2.588228e+00
2.909380e+00
3.234611e+00
3.399908e+00
3.532466e+00
4.107596e+00
4.995302e+00
5.660554e+00
5.985904e+00
6.420299e+00
7.484449e+00
8.557022e+00
8.805124e+00


-7.007725e-01
-5.656609e-01
-4.702955e-01
-4.255222e-01
-3.282969e-01
-2.482262e-01
-2.452630e-01
-2.690823e-01
-2.085402e-01
-7.459262e-02
4.800545e-02
6.870996e-02
-3.607292e-03
1.505978e-01
5.082061e-01
-6.277430e-01
4.803057e-01
2.473240e-01
1.888202e-01
2.173033e-01
2.810406e-01
3.108817e-01
2.888451e-01
2.568807e-01
2.741703e-01
3.418956e-01
4.381178e-01
5.280873e-01
6.233591e-01
8.019884e-01
7.232814e-01
-1.458143e+00
8.293436e-01
6.593437e-01
5.364236e-01
5.473150e-01
5.667920e-01
5.392238e-01
4.821468e-01
4.453256e-01
4.467332e-01
4.705752e-01
5.322527e-01
6.027181e-01
5.943823e-01
4.462292e-01
2.143041e-01
-2.099774e-01
8.949648e-01
7.252869e-01
5.932358e-01
5.830895e-01
5.671803e-01
5.052065e-01
4.454306e-01
4.480585e-01
4.691738e-01
4.614090e-01
4.569986e-01
4.433327e-01
3.141851e-01
7.814576e-02
1.468235e-01
3.163142e-01
9.105163e-01
7.665856e-01
6.479546e-01
6.072650e-01
5.489485e-01
4.442542e-01
3.720316e-01
3.978593e-01
4.170871e-01
3.682617e-01
3.055274e-01
2.566948e-01
1.446699e-01
-4.965472e-03
2.005786e-01
5.782452e-01
8.329741e-01
6.978981e-01
6.211953e-01
6.080729e-01
5.549878e-01
4.408574e-01
3.574932e-01
3.584179e-01
3.258862e-01
2.206512e-01
1.480749e-01
1.663060e-01
1.856737e-01
1.924521e-01
4.304398e-01
8.048104e-01
4.386351e-01
2.695574e-01
2.999949e-01
3.203157e-01
2.724365e-01
1.914432e-01
2.011832e-01
2.732495e-01
2.574001e-01
1.566694e-01
1.460807e-01
2.830254e-01
4.284931e-01
5.512189e-01
7.585277e-01
9.587894e-01
-7.906109e-01
-5.314326e-01
-3.348436e-01
-3.189583e-01
-3.905136e-01
-4.224039e-01
-2.677351e-01
-6.905266e-02
-2.782531e-02
-6.027240e-02
9.136634e-02
4.095050e-01
6.766689e-01
8.477514e-01
9.604761e-01
9.991442e-01
1 2 19 18
2 3 20 19
3 4 21 20
4 5 22 21
5 6 23 22
6 7 24 23
7 8 25 24
8 9 26 25
9 10 27 26
10 11 28 27
11 12 29 28
12 13 30 29
13 14 31 30
14 15 32 31
15 16 33 32
16 17 34 33
18 19 36 35
19 20 37 36
20 21 38 37
21 22 39 38
22 23 40 39
23 24 41 40
24 25 42 41
25 26 43 42
26 27 44 43
27 28 45 44
28 29 46 45
29 30 47 46
30 31 48 47
31 32 49 48
32 33 50 49
33 34 51 50
35 36 53 52
36 37 54 53
37 38 55 54
38 39 56 55
39 40 57 56
40 41 58 57
41 42 59 58
42 43 60 59
43 44 61 60
44 45 62 61
45 46 63 62
46 47 64 63
47 48 65 64
48 49 66 65
49 50 67 66
50 51 68 67
52 53 70 69
53 54 71 70
54 55 72 71
55 56 73 72
56 57 74 73
57 58 75 74
58 59 76 75
59 60 77 76
60 61 78 77
61 62 79 78
62 63 80 79
63 64 81 80
64 65 82 81
65 66 83 82
66 67 84 83
67 68 85 84
69 70 87 86
70 71 88 87
71 72 89 88
72 73 90 89
73 74 91 90
74 75 92 91
75 76 93 92
76 77 94 93
77 78 95 94
78 79 96 95
79 80 97 96
80 81 98 97
81 82 99 98
82 83 100 99
83 84 101 100
84 85 102 101
86 87 104 103
87 88 105 104
88 89 106 105
89 90 107 106
90 91 108 107
91 92 109 108
92 93 110 109
93 94 111 110
94 95 112 111
95 96 113 112
96 97 114 113
97 98 115 114
98 99 116 115
99 100 117 116
100 101 118 117
101 102 119 118
103 104 121 120
104 105 122 121
105 106 123 122
106 107 124 123
107 108 125 124
108 109 126 125
109 110 127 126
110 111 128 127
111 112 129 128
112 113 130 129
113 114 131 130
114 115 132 131
115 116 133 132
116 117 134 133
117 118 135 134
118 119 136 135
120 121 138 137
121 122 139 138
122 123 140 139
123 124 141 140
124 125 142 141
125 126 143 142
126 127 144 143
127 128 145 144
128 129 146 145
129 130 147 146
130 131 148 147
131 132 149 148
132 133 150 149
133 134 151 150
134 135 152 151
135 136 153 152
