TITLE = "Solution"
VARIABLES = x, y, u, v, psiu, psiv, t, stress
ZONE T="structure" N=153 E=128 F=FEBLOCK ET=QUADRILATERAL VARLOCATION=([7,8]=cellcentered)
0.000000e+00
1.250000e+01
2.500000e+01
3.750000e+01
5.000000e+01
6.250000e+01
7.500000e+01
8.750000e+01
1.000000e+02
1.125000e+02
1.250000e+02
1.375000e+02
1.500000e+02
1.625000e+02
1.750000e+02
1.875000e+02
2.000000e+02
0.000000e+00
1.250000e+01
2.500000e+01
3.750000e+01
5.000000e+01
6.250000e+01
7.500000e+01
8.750000e+01
1.000000e+02
1.125000e+02
1.250000e+02
1.375000e+02
1.500000e+02
1.625000e+02
1.750000e+02
1.875000e+02
2.000000e+02
0.000000e+00
1.250000e+01
2.500000e+01
3.750000e+01
5.000000e+01
6.250000e+01
7.500000e+01
8.750000e+01
1.000000e+02
1.125000e+02
1.250000e+02
1.375000e+02
1.500000e+02
1.625000e+02
1.750000e+02
1.875000e+02
2.000000e+02
0.000000e+00
1.250000e+01
2.500000e+01
3.750000e+01
5.000000e+01
6.250000e+01
7.500000e+01
8.750000e+01
1.000000e+02
1.125000e+02
1.250000e+02
1.375000e+02
1.500000e+02
1.625000e+02
1.750000e+02
1.875000e+02
2.000000e+02
0.000000e+00
1.250000e+01
2.500000e+01
3.750000e+01
5.000000e+01
6.250000e+01
7.500000e+01
8.750000e+01
1.000000e+02
1.125000e+02
1.250000e+02
1.375000e+02
1.500000e+02
1.625000e+02
1.750000e+02
1.875000e+02
2.000000e+02
0.000000e+00
1.250000e+01
2.500000e+01
3.750000e+01
5.000000e+01
6.250000e+01
7.500000e+01
8.750000e+01
1.000000e+02
1.125000e+02
1.250000e+02
1.375000e+02
1.500000e+02
1.625000e+02
1.750000e+02
1.875000e+02
2.000000e+02
0.000000e+00
1.250000e+01
2.500000e+01
3.750000e+01
5.000000e+01
6.250000e+01
7.500000e+01
8.750000e+01
1.000000e+02
1.125000e+02
1.250000e+02
1.375000e+02
1.500000e+02
1.625000e+02
1.750000e+02
1.875000e+02
2.000000e+02
0.000000e+00
1.250000e+01
2.500000e+01
3.750000e+01
5.000000e+01
6.250000e+01
7.500000e+01
8.750000e+01
1.000000e+02
1.125000e+02
1.250000e+02
1.375000e+02
1.500000e+02
1.625000e+02
1.750000e+02
1.875000e+02
2.000000e+02
0.000000e+00
1.250000e+01
2.500000e+01
3.750000e+01
5.000000e+01
6.250000e+01
7.500000e+01
8.750000e+01
1.000000e+02
1.125000e+02
1.250000e+02
1.375000e+02
1.500000e+02
1.625000e+02
1.750000e+02
1.875000e+02
2.000000e+02
0.000000e+00
0.000000e+00
0.000000e+00
0.000000e+00
0.000000e+00
0.000000e+00
0.000000e+00
0.000000e+00
0.000000e+00
0.000000e+00
0.000000e+00
0.000000e+00
0.000000e+00
0.000000e+00
0.000000e+00
0.000000e+00
0.000000e+00
1.250000e+01
1.250000e+01
1.250000e+01
1.250000e+01
1.250000e+01
1.250000e+01
1.250000e+01
1.250000e+01
1.250000e+01
1.250000e+01
1.250000e+01
1.250000e+01
1.250000e+01
1.250000e+01
1.250000e+01
1.250000e+01
1.250000e+01
2.500000e+01
2.500000e+01
2.500000e+01
2.500000e+01
2.500000e+01
2.500000e+01
2.500000e+01
2.500000e+01
2.500000e+01
2.500000e+01
2.500000e+01
2.500000e+01
2.500000e+01
2.500000e+01
2.500000e+01
2.500000e+01
2.500000e+01
3.750000e+01
3.750000e+01
3.750000e+01
3.750000e+01
3.750000e+01
3.750000e+01
3.750000e+01
3.750000e+01
3.750000e+01
3.750000e+01
3.750000e+01
3.750000e+01
3.750000e+01
3.750000e+01
3.750000e+01
3.750000e+01
3.750000e+01
5.000000e+01
5.000000e+01
5.000000e+01
5.000000e+01
5.000000e+01
5.000000e+01
5.000000e+01
5.000000e+01
5.000000e+01
5.000000e+01
5.000000e+01
5.000000e+01
5.000000e+01
5.000000e+01
5.000000e+01
5.000000e+01
5.000000e+01
6.250000e+01
6.250000e+01
6.250000e+01
6.250000e+01
6.250000e+01
6.250000e+01
6.250000e+01
6.250000e+01
6.250000e+01
6.250000e+01
6.250000e+01
6.250000e+01
6.250000e+01
6.250000e+01
6.250000e+01
6.250000e+01
6.250000e+01
7.500000e+01
7.500000e+01
7.500000e+01
7.500000e+01
7.500000e+01
7.500000e+01
7.500000e+01
7.500000e+01
7.500000e+01
7.500000e+01
7.500000e+01
7.500000e+01
7.500000e+01
7.500000e+01
7.500000e+01
7.500000e+01
7.500000e+01
8.750000e+01
8.750000e+01
8.750000e+01
8.750000e+01
8.750000e+01
8.750000e+01
8.750000e+01
8.750000e+01
8.750000e+01
8.750000e+01
8.750000e+01
8.750000e+01
8.750000e+01
8.750000e+01
8.750000e+01
8.750000e+01
8.750000e+01
1.000000e+02
1.000000e+02
1.000000e+02
1.000000e+02
1.000000e+02
1.000000e+02
1.000000e+02
1.000000e+02
1.000000e+02
1.000000e+02
1.000000e+02
1.000000e+02
1.000000e+02
1.000000e+02
1.000000e+02
1.000000e+02
1.000000e+02
0.000000e+00
-1.023155e+00
-1.683840e+00
-2.406809e+00
-3.104525e+00
-3.751145e+00
-4.380473e+00
-4.987404e+00
-5.672962e+00
-6.383123e+00
-7.058492e+00
-7.745030e+00
-8.476106e+00
-9.234270e+00
-9.948359e+00
-1.062256e+01
-1.107258e+01
0.000000e+00
-4.678593e-01
-9.230521e-01
-1.416609e+00
-1.951490e+00
-2.446190e+00
-2.937215e+00
-3.424594e+00
-3.947906e+00
-4.479252e+00
-4.972533e+00
-5.466972e+00
-5.978710e+00
-6.458861e+00
-6.772081e+00
-6.841127e+00
-7.001815e+00
0.000000e+00
-1.581449e-01
-3.692298e-01
-6.640267e-01
-1.023699e+00
-1.362794e+00
-1.728660e+00
-2.094476e+00
-2.448599e+00
-2.784563e+00
-3.098493e+00
-3.404397e+00
-3.679809e+00
-3.872632e+00
-3.919512e+00
-3.896682e+00
-4.058661e+00
0.000000e+00
-8.045384e-02
-1.678003e-01
-3.234879e-01
-4.709911e-01
-6.486379e-01
-8.264810e-01
-9.888928e-01
-1.140062e+00
-1.281489e+00
-1.425575e+00
-1.547162e+00
-1.613308e+00
-1.605062e+00
-1.547970e+00
-1.552783e+00
-1.684865e+00
0.000000e+00
-1.906740e-03
-3.600386e-03
-4.916968e-03
-5.729704e-03
-5.096658e-03
-1.105491e-03
9.121901e-03
2.913379e-02
5.994764e-02
1.053981e-01
1.720603e-01
2.663537e-01
3.846795e-01
4.856438e-01
4.955492e-01
3.953154e-01
0.000000e+00
7.749292e-02
1.619547e-01
3.146386e-01
4.610141e-01
6.411268e-01
8.241764e-01
1.002019e+00
1.182356e+00
1.377443e+00
1.606162e+00
1.845146e+00
2.065219e+00
2.252774e+00
2.381308e+00
2.411131e+00
2.352793e+00
0.000000e+00
1.573296e-01
3.671792e-01
6.599759e-01
1.019564e+00
1.358540e+00
1.725546e+00
2.094437e+00
2.458441e+00
2.818095e+00
3.179256e+00
3.545815e+00
3.873891e+00
4.129365e+00
4.292864e+00
4.350503e+00
4.335032e+00
0.000000e+00
4.689498e-01
9.241080e-01
1.416368e+00
1.952345e+00
2.445542e+00
2.932757e+00
3.419341e+00
3.936212e+00
4.452128e+00
4.933164e+00
5.397807e+00
5.814560e+00
6.132650e+00
6.332592e+00
6.420445e+00
6.436359e+00
0.000000e+00
1.025876e+00
1.687784e+00
2.411716e+00
3.112035e+00
3.760544e+00
4.385758e+00
4.996765e+00
5.672448e+00
6.348851e+00
6.973835e+00
7.559289e+00
8.062841e+00
8.419072e+00
8.605971e+00
8.656068e+00
8.655893e+00
0.000000e+00
-6.273370e-01
-1.358093e+00
-2.342317e+00
-3.501261e+00
-4.811843e+00
-6.278800e+00
-7.888193e+00
-9.662091e+00
-1.159889e+01
-1.370702e+01
-1.600950e+01
-1.850907e+01
-2.119677e+01
-2.411584e+01
-2.749760e+01
-3.244908e+01
0.000000e+00
-4.238350e-01
-1.196625e+00
-2.155663e+00
-3.326114e+00
-4.641461e+00
-6.114243e+00
-7.719434e+00
-9.479235e+00
-1.142126e+01
-1.353505e+01
-1.583336e+01
-1.832907e+01
-2.104186e+01
-2.400367e+01
-2.738995e+01
-3.151262e+01
0.000000e+00
-3.930420e-01
-1.092904e+00
-2.048298e+00
-3.199963e+00
-4.512566e+00
-5.988029e+00
-7.596426e+00
-9.362601e+00
-1.130674e+01
-1.342898e+01
-1.573711e+01
-1.824736e+01
-2.099826e+01
-2.399555e+01
-2.719747e+01
-3.020917e+01
0.000000e+00
-4.430421e-01
-1.076404e+00
-2.019936e+00
-3.129495e+00
-4.432906e+00
-5.910961e+00
-7.534190e+00
-9.313115e+00
-1.125733e+01
-1.339551e+01
-1.572645e+01
-1.825044e+01
-2.099853e+01
-2.393618e+01
-2.685358e+01
-2.940261e+01
0.000000e+00
-4.472030e-01
-1.093966e+00
-2.003667e+00
-3.117571e+00
-4.410845e+00
-5.892149e+00
-7.530664e+00
-9.315535e+00
-1.126856e+01
-1.342327e+01
-1.577171e+01
-1.829064e+01
-2.098576e+01
-2.379825e+01
-2.650861e+01
-2.882258e+01
0.000000e+00
-4.431941e-01
-1.077835e+00
-2.023107e+00
-3.136364e+00
-4.447850e+00
-5.932267e+00
-7.568232e+00
-9.361514e+00
-1.132452e+01
-1.348705e+01
-1.583744e+01
-1.833972e+01
-2.096848e+01
-2.365558e+01
-2.622002e+01
-2.843030e+01
0.000000e+00
-3.935085e-01
-1.095645e+00
-2.053917e+00
-3.212749e+00
-4.536018e+00
-6.023057e+00
-7.650749e+00
-9.443333e+00
-1.141858e+01
-1.357801e+01
-1.591828e+01
-1.840043e+01
-2.097409e+01
-2.356273e+01
-2.603018e+01
-2.823351e+01
0.000000e+00
-4.244018e-01
-1.199376e+00
-2.162117e+00
-3.340194e+00
-4.666218e+00
-6.152615e+00
-7.778894e+00
-9.570600e+00
-1.154949e+01
-1.370185e+01
-1.602682e+01
-1.848670e+01
-2.101752e+01
-2.353807e+01
-2.594480e+01
-2.818315e+01
0.000000e+00
-6.283252e-01
-1.360870e+00
-2.349328e+00
-3.515775e+00
-4.836283e+00
-6.317190e+00
-7.948260e+00
-9.750533e+00
-1.172214e+01
-1.386377e+01
-1.617322e+01
-1.860395e+01
-2.109071e+01
-2.355990e+01
-2.592864e+01
-2.818338e+01


0.000000e+00
1.385723e-05
2.444410e-05
3.718660e-05
5.139030e-05
6.559585e-05
7.989605e-05
9.402184e-05
1.090340e-04
1.223468e-04
1.327994e-04
1.415697e-04
1.483633e-04
1.525810e-04
1.554470e-04
1.590597e-04
1.637128e-04
0.000000e+00
9.700686e-06
1.943138e-05
2.889827e-05
4.053858e-05
5.178525e-05
6.297910e-05
7.435838e-05
8.566093e-05
9.479076e-05
1.014004e-04
1.068221e-04
1.102608e-04
1.104447e-04
1.097597e-04
1.126974e-04
1.181037e-04
0.000000e+00
7.874199e-06
1.515430e-05
2.170615e-05
3.010709e-05
3.785255e-05
4.563930e-05
5.315952e-05
5.946765e-05
6.405037e-05
6.731818e-05
6.972599e-05
7.069758e-05
7.003506e-05
6.978718e-05
7.273165e-05
7.802440e-05
0.000000e+00
4.408559e-06
7.184717e-06
1.143054e-05
1.514535e-05
1.897565e-05
2.279616e-05
2.615780e-05
2.873751e-05
3.045413e-05
3.151413e-05
3.185033e-05
3.169604e-05
3.177928e-05
3.279666e-05
3.538218e-05
3.924565e-05
0.000000e+00
-7.345093e-08
-1.567430e-07
-2.351524e-07
-3.154253e-07
-3.939584e-07
-4.808282e-07
-5.727897e-07
-7.446089e-07
-1.111549e-06
-1.827431e-06
-2.708606e-06
-3.400870e-06
-3.459692e-06
-2.662553e-06
-1.471050e-06
2.973914e-07
0.000000e+00
-4.583029e-06
-7.484380e-06
-1.185179e-05
-1.566930e-05
-1.965706e-05
-2.356837e-05
-2.700931e-05
-2.962353e-05
-3.152555e-05
-3.323220e-05
-3.471409e-05
-3.571145e-05
-3.621274e-05
-3.663864e-05
-3.698739e-05
-3.664242e-05
0.000000e+00
-8.039102e-06
-1.541377e-05
-2.198540e-05
-3.047262e-05
-3.832238e-05
-4.620191e-05
-5.371115e-05
-5.984600e-05
-6.404008e-05
-6.670350e-05
-6.836710e-05
-6.940244e-05
-7.022843e-05
-7.106085e-05
-7.178062e-05
-7.198215e-05
0.000000e+00
-9.818060e-06
-1.959480e-05
-2.901263e-05
-4.069045e-05
-5.199245e-05
-6.321588e-05
-7.469162e-05
-8.597926e-05
-9.479957e-05
-1.004281e-04
-1.038197e-04
-1.056699e-04
-1.067868e-04
-1.075117e-04
-1.078663e-04
-1.079621e-04
0.000000e+00
-1.395150e-05
-2.451795e-05
-3.715955e-05
-5.131054e-05
-6.550765e-05
-7.967206e-05
-9.389389e-05
-1.089546e-04
-1.221949e-04
-1.320990e-04
-1.388274e-04
-1.427078e-04
-1.444237e-04
-1.448962e-04
-1.448308e-04
-1.447515e-04
0.000000e+00
1.173341e-05
2.012546e-05
3.196598e-05
4.703183e-05
6.462011e-05
8.574950e-05
1.103033e-04
1.382652e-04
1.685307e-04
2.016541e-04
2.377049e-04
2.753986e-04
3.151969e-04
3.617457e-04
4.164664e-04
4.722323e-04
0.000000e+00
6.774465e-06
1.559910e-05
2.609974e-05
4.077816e-05
5.831513e-05
7.944285e-05
1.038966e-04
1.320675e-04
1.636078e-04
1.978243e-04
2.346860e-04
2.736900e-04
3.145666e-04
3.586253e-04
4.098401e-04
4.638157e-04
0.000000e+00
3.143157e-06
1.120721e-05
2.116447e-05
3.525266e-05
5.301139e-05
7.418559e-05
9.915597e-05
1.281446e-04
1.606156e-04
1.955993e-04
2.330871e-04
2.729955e-04
3.142077e-04
3.547172e-04
4.010810e-04
4.521288e-04
0.000000e+00
1.949127e-06
8.673094e-06
1.884819e-05
3.286721e-05
5.073775e-05
7.214951e-05
9.764056e-05
1.271039e-04
1.597673e-04
1.950196e-04
2.326622e-04
2.726639e-04
3.136180e-04
3.521713e-04
3.939384e-04
4.406139e-04
0.000000e+00
1.581421e-06
8.017585e-06
1.806477e-05
3.223097e-05
5.003297e-05
7.159668e-05
9.731918e-05
1.269440e-04
1.596393e-04
1.950187e-04
2.327435e-04
2.724970e-04
3.133235e-04
3.519123e-04
3.908111e-04
4.325103e-04
0.000000e+00
1.988568e-06
8.736352e-06
1.885889e-05
3.278601e-05
5.059494e-05
7.198650e-05
9.754834e-05
1.271450e-04
1.599768e-04
1.955990e-04
2.334942e-04
2.730739e-04
3.133371e-04
3.525146e-04
3.904594e-04
4.282456e-04
0.000000e+00
3.209232e-06
1.130263e-05
2.115961e-05
3.513506e-05
5.278640e-05
7.388702e-05
9.890345e-05
1.281019e-04
1.609776e-04
1.967293e-04
2.347460e-04
2.740639e-04
3.136860e-04
3.525594e-04
3.902315e-04
4.268163e-04
0.000000e+00
6.874271e-06
1.569903e-05
2.610352e-05
4.068159e-05
5.812407e-05
7.912545e-05
1.035782e-04
1.319519e-04
1.638811e-04
1.987681e-04
2.361728e-04
2.749072e-04
3.139655e-04
3.524653e-04
3.900001e-04
4.267233e-04
0.000000e+00
1.186321e-05
2.021654e-05
3.196838e-05
4.697181e-05
6.445905e-05
8.547047e-05
1.100660e-04
1.381409e-04
1.686025e-04
2.018960e-04
2.379446e-04
2.757176e-04
3.141884e-04
3.524462e-04
3.899119e-04
4.267903e-04


6.204214e+00
5.878198e+00
5.996287e+00
5.039473e+00
4.347532e+00
4.355204e+00
4.369855e+00
4.430546e+00
4.367315e+00
4.650699e+00
5.520773e+00
6.646343e+00
7.387940e+00
6.914302e+00
5.445939e+00
4.426724e+00
7.813983e+00
8.037509e+00
7.989442e+00
7.531269e+00
6.992814e+00
6.970014e+00
6.532093e+00
5.753778e+00
5.320814e+00
5.526588e+00
6.324359e+00
7.238341e+00
7.718462e+00
6.963191e+00
5.313399e+00
4.184633e+00
9.281283e+00
9.461471e+00
9.651185e+00
9.214422e+00
9.042850e+00
9.033815e+00
8.538359e+00
7.679292e+00
7.150604e+00
7.284515e+00
7.590311e+00
7.848083e+00
7.934058e+00
7.154932e+00
5.598382e+00
4.545026e+00
9.520121e+00
9.767751e+00
9.837627e+00
9.558589e+00
9.374489e+00
9.469912e+00
9.404920e+00
9.076203e+00
8.880390e+00
8.758712e+00
8.286165e+00
7.718522e+00
7.560682e+00
7.279074e+00
6.442233e+00
5.754308e+00
9.503549e+00
9.755593e+00
9.833675e+00
9.553104e+00
9.365635e+00
9.397927e+00
9.306901e+00
9.024862e+00
8.901205e+00
8.737233e+00
8.041558e+00
7.204698e+00
7.048173e+00
7.358842e+00
7.398134e+00
7.227426e+00
9.278054e+00
9.433511e+00
9.605467e+00
9.174989e+00
8.966688e+00
8.871246e+00
8.317172e+00
7.549012e+00
7.191282e+00
7.327754e+00
7.310242e+00
7.045120e+00
7.138318e+00
7.715656e+00
8.228276e+00
8.411282e+00
7.841417e+00
8.001167e+00
7.919410e+00
7.451948e+00
6.890349e+00
6.816245e+00
6.342333e+00
5.624225e+00
5.368759e+00
5.780077e+00
6.584941e+00
7.230457e+00
7.754039e+00
8.378730e+00
8.916958e+00
9.154145e+00
6.236719e+00
5.860328e+00
5.933518e+00
4.972109e+00
4.266971e+00
4.269669e+00
4.290254e+00
4.362513e+00
4.428345e+00
5.028534e+00
6.222033e+00
7.412900e+00
8.271535e+00
8.900315e+00
9.330668e+00
9.516812e+00


-9.418523e-01
-1.119432e-01
-2.958742e-01
-3.331589e-01
-1.470012e-01
-1.070915e-01
-6.210131e-02
-2.913650e-01
-3.612489e-01
-2.100943e-01
-2.338514e-01
-3.564690e-01
-3.258447e-01
9.349468e-02
5.057654e-01
-7.193560e-01
5.763409e-01
4.829848e-01
3.228189e-01
1.546341e-01
2.457464e-01
1.945036e-01
1.919500e-01
1.492351e-01
1.684598e-01
2.665343e-01
2.789549e-01
3.144031e-01
4.909391e-01
7.875139e-01
7.238639e-01
-1.491292e+00
7.268820e-01
4.943466e-01
1.201822e-01
6.047383e-02
6.467350e-02
5.253685e-02
1.814612e-01
2.894897e-01
3.597356e-01
3.697341e-01
3.733142e-01
4.265485e-01
4.469973e-01
3.477893e-01
1.018273e-01
-4.073410e-01
7.396041e-01
5.767678e-01
2.534135e-01
1.803261e-01
1.178713e-01
1.155434e-01
1.809350e-01
2.316992e-01
2.462199e-01
2.101664e-01
2.029678e-01
1.874151e-01
2.894212e-02
-1.951157e-01
-1.178659e-01
6.040540e-02
7.409384e-01
5.784939e-01
2.555672e-01
1.792334e-01
1.111004e-01
1.045269e-01
1.474004e-01
1.699960e-01
1.440728e-01
6.076420e-02
1.397130e-02
-1.679635e-02
-1.387931e-01
-2.341163e-01
1.406855e-02
4.424189e-01
7.293187e-01
4.984795e-01
1.279482e-01
6.030031e-02
4.969379e-02
2.598818e-02
1.141934e-01
1.687543e-01
1.530126e-01
3.339236e-02
-9.332612e-02
-9.854434e-02
-5.318676e-02
6.435814e-02
3.852083e-01
7.809705e-01
5.763993e-01
4.846143e-01
3.269869e-01
1.495576e-01
2.409478e-01
1.848533e-01
1.606979e-01
9.081337e-02
5.938489e-02
5.149897e-02
-3.051375e-02
1.351636e-02
2.005808e-01
4.512722e-01
7.445499e-01
9.564120e-01
-9.512600e-01
-1.142345e-01
-2.954503e-01
-3.415346e-01
-1.482794e-01
-9.374120e-02
-7.131780e-02
-2.654531e-01
-2.750561e-01
-1.159546e-01
-3.015168e-02
1.770754e-01
5.167044e-01
8.009283e-01
9.568018e-01
9.989979e-01
1 2 19 18
2 3 20 19
3 4 21 20
4 5 22 21
5 6 23 22
6 7 24 23
7 8 25 24
8 9 26 25
9 10 27 26
10 11 28 27
11 12 29 28
12 13 30 29
13 14 31 30
14 15 32 31
15 16 33 32
16 17 34 33
18 19 36 35
19 20 37 36
20 21 38 37
21 22 39 38
22 23 40 39
23 24 41 40
24 25 42 41
25 26 43 42
26 27 44 43
27 28 45 44
28 29 46 45
29 30 47 46
30 31 48 47
31 32 49 48
32 33 50 49
33 34 51 50
35 36 53 52
36 37 54 53
37 38 55 54
38 39 56 55
39 40 57 56
40 41 58 57
41 42 59 58
42 43 60 59
43 44 61 60
44 45 62 61
45 46 63 62
46 47 64 63
47 48 65 64
48 49 66 65
49 50 67 66
50 51 68 67
52 53 70 69
53 54 71 70
54 55 72 71
55 56 73 72
56 57 74 73
57 58 75 74
58 59 76 75
59 60 77 76
60 61 78 77
61 62 79 78
62 63 80 79
63 64 81 80
64 65 82 81
65 66 83 82
66 67 84 83
67 68 85 84
69 70 87 86
70 71 88 87
71 72 89 88
72 73 90 89
73 74 91 90
74 75 92 91
75 76 93 92
76 77 94 93
77 78 95 94
78 79 96 95
79 80 97 96
80 81 98 97
81 82 99 98
82 83 100 99
83 84 101 100
84 85 102 101
86 87 104 103
87 88 105 104
88 89 106 105
89 90 107 106
90 91 108 107
91 92 109 108
92 93 110 109
93 94 111 110
94 95 112 111
95 96 113 112
96 97 114 113
97 98 115 114
98 99 116 115
99 100 117 116
100 101 118 117
101 102 119 118
103 104 121 120
104 105 122 121
105 106 123 122
106 107 124 123
107 108 125 124
108 109 126 125
109 110 127 126
110 111 128 127
111 112 129 128
112 113 130 129
113 114 131 130
114 115 132 131
115 116 133 132
116 117 134 133
117 118 135 134
118 119 136 135
120 121 138 137
121 122 139 138
122 123 140 139
123 124 141 140
124 125 142 141
125 126 143 142
126 127 144 143
127 128 145 144
128 129 146 145
129 130 147 146
130 131 148 147
131 132 149 148
132 133 150 149
133 134 151 150
134 135 152 151
135 136 153 152
