TITLE = "Solution"
VARIABLES = x, y, u, v, psiu, psiv, t, stress
ZONE T="structure" N=153 E=128 F=FEBLOCK ET=QUADRILATERAL VARLOCATION=([7,8]=cellcentered)
0.000000e+00
1.250000e+01
2.500000e+01
3.750000e+01
5.000000e+01
6.250000e+01
7.500000e+01
8.750000e+01
1.000000e+02
1.125000e+02
1.250000e+02
1.375000e+02
1.500000e+02
1.625000e+02
1.750000e+02
1.875000e+02
2.000000e+02
0.000000e+00
1.250000e+01
2.500000e+01
3.750000e+01
5.000000e+01
6.250000e+01
7.500000e+01
8.750000e+01
1.000000e+02
1.125000e+02
1.250000e+02
1.375000e+02
1.500000e+02
1.625000e+02
1.750000e+02
1.875000e+02
2.000000e+02
0.000000e+00
1.250000e+01
2.500000e+01
3.750000e+01
5.000000e+01
6.250000e+01
7.500000e+01
8.750000e+01
1.000000e+02
1.125000e+02
1.250000e+02
1.375000e+02
1.500000e+02
1.625000e+02
1.750000e+02
1.875000e+02
2.000000e+02
0.000000e+00
1.250000e+01
2.500000e+01
3.750000e+01
5.000000e+01
6.250000e+01
7.500000e+01
8.750000e+01
1.000000e+02
1.125000e+02
1.250000e+02
1.375000e+02
1.500000e+02
1.625000e+02
1.750000e+02
1.875000e+02
2.000000e+02
0.000000e+00
1.250000e+01
2.500000e+01
3.750000e+01
5.000000e+01
6.250000e+01
7.500000e+01
8.750000e+01
1.000000e+02
1.125000e+02
1.250000e+02
1.375000e+02
1.500000e+02
1.625000e+02
1.750000e+02
1.875000e+02
2.000000e+02
0.000000e+00
1.250000e+01
2.500000e+01
3.750000e+01
5.000000e+01
6.250000e+01
7.500000e+01
8.750000e+01
1.000000e+02
1.125000e+02
1.250000e+02
1.375000e+02
1.500000e+02
1.625000e+02
1.750000e+02
1.875000e+02
2.000000e+02
0.000000e+00
1.250000e+01
2.500000e+01
3.750000e+01
5.000000e+01
6.250000e+01
7.500000e+01
8.750000e+01
1.000000e+02
1.125000e+02
1.250000e+02
1.375000e+02
1.500000e+02
1.625000e+02
1.750000e+02
1.875000e+02
2.000000e+02
0.000000e+00
1.250000e+01
2.500000e+01
3.750000e+01
5.000000e+01
6.250000e+01
7.500000e+01
8.750000e+01
1.000000e+02
1.125000e+02
1.250000e+02
1.375000e+02
1.500000e+02
1.625000e+02
1.750000e+02
1.875000e+02
2.000000e+02
0.000000e+00
1.250000e+01
2.500000e+01
3.750000e+01
5.000000e+01
6.250000e+01
7.500000e+01
8.750000e+01
1.000000e+02
1.125000e+02
1.250000e+02
1.375000e+02
1.500000e+02
1.625000e+02
1.750000e+02
1.875000e+02
2.000000e+02
0.000000e+00
0.000000e+00
0.000000e+00
0.000000e+00
0.000000e+00
0.000000e+00
0.000000e+00
0.000000e+00
0.000000e+00
0.000000e+00
0.000000e+00
0.000000e+00
0.000000e+00
0.000000e+00
0.000000e+00
0.000000e+00
0.000000e+00
1.250000e+01
1.250000e+01
1.250000e+01
1.250000e+01
1.250000e+01
1.250000e+01
1.250000e+01
1.250000e+01
1.250000e+01
1.250000e+01
1.250000e+01
1.250000e+01
1.250000e+01
1.250000e+01
1.250000e+01
1.250000e+01
1.250000e+01
2.500000e+01
2.500000e+01
2.500000e+01
2.500000e+01
2.500000e+01
2.500000e+01
2.500000e+01
2.500000e+01
2.500000e+01
2.500000e+01
2.500000e+01
2.500000e+01
2.500000e+01
2.500000e+01
2.500000e+01
2.500000e+01
2.500000e+01
3.750000e+01
3.750000e+01
3.750000e+01
3.750000e+01
3.750000e+01
3.750000e+01
3.750000e+01
3.750000e+01
3.750000e+01
3.750000e+01
3.750000e+01
3.750000e+01
3.750000e+01
3.750000e+01
3.750000e+01
3.750000e+01
3.750000e+01
5.000000e+01
5.000000e+01
5.000000e+01
5.000000e+01
5.000000e+01
5.000000e+01
5.000000e+01
5.000000e+01
5.000000e+01
5.000000e+01
5.000000e+01
5.000000e+01
5.000000e+01
5.000000e+01
5.000000e+01
5.000000e+01
5.000000e+01
6.250000e+01
6.250000e+01
6.250000e+01
6.250000e+01
6.250000e+01
6.250000e+01
6.250000e+01
6.250000e+01
6.250000e+01
6.250000e+01
6.250000e+01
6.250000e+01
6.250000e+01
6.250000e+01
6.250000e+01
6.250000e+01
6.250000e+01
7.500000e+01
7.500000e+01
7.500000e+01
7.500000e+01
7.500000e+01
7.500000e+01
7.500000e+01
7.500000e+01
7.500000e+01
7.500000e+01
7.500000e+01
7.500000e+01
7.500000e+01
7.500000e+01
7.500000e+01
7.500000e+01
7.500000e+01
8.750000e+01
8.750000e+01
8.750000e+01
8.750000e+01
8.750000e+01
8.750000e+01
8.750000e+01
8.750000e+01
8.750000e+01
8.750000e+01
8.750000e+01
8.750000e+01
8.750000e+01
8.750000e+01
8.750000e+01
8.750000e+01
8.750000e+01
1.000000e+02
1.000000e+02
1.000000e+02
1.000000e+02
1.000000e+02
1.000000e+02
1.000000e+02
1.000000e+02
1.000000e+02
1.000000e+02
1.000000e+02
1.000000e+02
1.000000e+02
1.000000e+02
1.000000e+02
1.000000e+02
1.000000e+02
0.000000e+00
-1.027477e+00
-1.691677e+00
-2.418678e+00
-3.109015e+00
-3.755281e+00
-4.425032e+00
-5.006249e+00
-5.657326e+00
-6.374062e+00
-7.056766e+00
-7.741608e+00
-8.459222e+00
-9.198707e+00
-1.001693e+01
-1.072322e+01
-1.116465e+01
0.000000e+00
-4.686076e-01
-9.247315e-01
-1.421405e+00
-1.942790e+00
-2.439902e+00
-2.953049e+00
-3.431355e+00
-3.932448e+00
-4.475814e+00
-4.975756e+00
-5.468979e+00
-5.972165e+00
-6.453321e+00
-6.831774e+00
-6.936385e+00
-7.105656e+00
0.000000e+00
-1.563676e-01
-3.649166e-01
-6.579536e-01
-1.009552e+00
-1.349987e+00
-1.722059e+00
-2.091720e+00
-2.447005e+00
-2.794479e+00
-3.107806e+00
-3.413296e+00
-3.692093e+00
-3.891828e+00
-3.957195e+00
-3.936682e+00
-4.086125e+00
0.000000e+00
-7.902797e-02
-1.646380e-01
-3.194936e-01
-4.680242e-01
-6.442094e-01
-8.299890e-01
-9.940167e-01
-1.155180e+00
-1.294222e+00
-1.432814e+00
-1.554739e+00
-1.629333e+00
-1.630709e+00
-1.565661e+00
-1.557504e+00
-1.695009e+00
0.000000e+00
-2.015448e-03
-4.276255e-03
-6.336060e-03
-7.469505e-03
-6.255358e-03
-7.115480e-04
1.135891e-02
3.181087e-02
6.218539e-02
1.060210e-01
1.711371e-01
2.643082e-01
3.796866e-01
4.715160e-01
4.795998e-01
3.765629e-01
0.000000e+00
7.568686e-02
1.584366e-01
3.100783e-01
4.566473e-01
6.337304e-01
8.258887e-01
1.006639e+00
1.199040e+00
1.389026e+00
1.607236e+00
1.842715e+00
2.069217e+00
2.262780e+00
2.391831e+00
2.417427e+00
2.356355e+00
0.000000e+00
1.549044e-01
3.624218e-01
6.542819e-01
1.004251e+00
1.342885e+00
1.714137e+00
2.086026e+00
2.450814e+00
2.822488e+00
3.178527e+00
3.540691e+00
3.874152e+00
4.138054e+00
4.307369e+00
4.367619e+00
4.351870e+00
0.000000e+00
4.685249e-01
9.246044e-01
1.420677e+00
1.941305e+00
2.437123e+00
2.947394e+00
3.421556e+00
3.914191e+00
4.445713e+00
4.934064e+00
5.397605e+00
5.816735e+00
6.140063e+00
6.345134e+00
6.436583e+00
6.453363e+00
0.000000e+00
1.028653e+00
1.693975e+00
2.422086e+00
3.113896e+00
3.762344e+00
4.432206e+00
5.011113e+00
5.650961e+00
6.339823e+00
6.975750e+00
7.564681e+00
8.073220e+00
8.433193e+00
8.622285e+00
8.673617e+00
8.673712e+00
0.000000e+00
-6.293442e-01
-1.365120e+00
-2.354418e+00
-3.519217e+00
-4.846275e+00
-6.337229e+00
-7.956806e+00
-9.736423e+00
-1.168101e+01
-1.378561e+01
-1.608422e+01
-1.858001e+01
-2.127447e+01
-2.420983e+01
-2.757701e+01
-3.253493e+01
0.000000e+00
-4.252075e-01
-1.202248e+00
-2.169633e+00
-3.345571e+00
-4.670427e+00
-6.169199e+00
-7.796692e+00
-9.556536e+00
-1.150132e+01
-1.361214e+01
-1.590933e+01
-1.840398e+01
-2.110548e+01
-2.408111e+01
-2.748732e+01
-3.154238e+01
0.000000e+00
-3.952381e-01
-1.098127e+00
-2.064061e+00
-3.220586e+00
-4.537211e+00
-6.042351e+00
-7.670971e+00
-9.442248e+00
-1.138761e+01
-1.350392e+01
-1.581089e+01
-1.832151e+01
-2.105250e+01
-2.406950e+01
-2.732341e+01
-3.037764e+01
0.000000e+00
-4.471702e-01
-1.083276e+00
-2.034283e+00
-3.152887e+00
-4.455632e+00
-5.961585e+00
-7.599553e+00
-9.397136e+00
-1.134095e+01
-1.346687e+01
-1.579307e+01
-1.832373e+01
-2.106171e+01
-2.401257e+01
-2.698554e+01
-2.956596e+01
0.000000e+00
-4.518886e-01
-1.101835e+00
-2.017551e+00
-3.139233e+00
-4.437260e+00
-5.934702e+00
-7.594705e+00
-9.399472e+00
-1.135364e+01
-1.349008e+01
-1.583307e+01
-1.836459e+01
-2.106755e+01
-2.387685e+01
-2.661139e+01
-2.894127e+01
0.000000e+00
-4.469120e-01
-1.084323e+00
-2.037650e+00
-3.159715e+00
-4.467848e+00
-5.982275e+00
-7.632286e+00
-9.444090e+00
-1.140483e+01
-1.355315e+01
-1.589952e+01
-1.841626e+01
-2.105806e+01
-2.374799e+01
-2.631985e+01
-2.854557e+01
0.000000e+00
-3.952704e-01
-1.100197e+00
-2.069591e+00
-3.231579e+00
-4.557250e+00
-6.076185e+00
-7.724205e+00
-9.519295e+00
-1.149465e+01
-1.364579e+01
-1.598440e+01
-1.847889e+01
-2.106559e+01
-2.366036e+01
-2.613365e+01
-2.834476e+01
0.000000e+00
-4.253923e-01
-1.204412e+00
-2.175313e+00
-3.357201e+00
-4.691798e+00
-6.205841e+00
-7.854583e+00
-9.642614e+00
-1.162436e+01
-1.377223e+01
-1.609659e+01
-1.856646e+01
-2.110925e+01
-2.363722e+01
-2.604914e+01
-2.829035e+01
0.000000e+00
-6.298064e-01
-1.367415e+00
-2.360248e+00
-3.531102e+00
-4.867868e+00
-6.373788e+00
-8.013614e+00
-9.820042e+00
-1.179969e+01
-1.393665e+01
-1.624484e+01
-1.868488e+01
-2.118302e+01
-2.365995e+01
-2.603327e+01
-2.829006e+01


0.000000e+00
1.368276e-05
2.416649e-05
3.722096e-05
5.151925e-05
6.525374e-05
7.977615e-05
9.353232e-05
1.089528e-04
1.237928e-04
1.352911e-04
1.446921e-04
1.519001e-04
1.563970e-04
1.596222e-04
1.634048e-04
1.684556e-04
0.000000e+00
9.518670e-06
1.913491e-05
2.901184e-05
4.078820e-05
5.166774e-05
6.260004e-05
7.395205e-05
8.596205e-05
9.652407e-05
1.037573e-04
1.093849e-04
1.129840e-04
1.133523e-04
1.128554e-04
1.166888e-04
1.223213e-04
0.000000e+00
7.757055e-06
1.494168e-05
2.178050e-05
3.035936e-05
3.786866e-05
4.539695e-05
5.330303e-05
6.035442e-05
6.559756e-05
6.906972e-05
7.157170e-05
7.262620e-05
7.198734e-05
7.180503e-05
7.503762e-05
8.021484e-05
0.000000e+00
4.432954e-06
7.122043e-06
1.138306e-05
1.518744e-05
1.891430e-05
2.292157e-05
2.648042e-05
2.943073e-05
3.132168e-05
3.248163e-05
3.285691e-05
3.266379e-05
3.274669e-05
3.373515e-05
3.659801e-05
4.098082e-05
0.000000e+00
-5.822102e-08
-1.297061e-07
-2.005697e-07
-2.719874e-07
-3.343798e-07
-3.847538e-07
-4.238112e-07
-5.267161e-07
-8.394864e-07
-1.545419e-06
-2.543437e-06
-3.391208e-06
-3.448439e-06
-2.487643e-06
-1.009605e-06
1.071403e-06
0.000000e+00
-4.539501e-06
-7.328791e-06
-1.172054e-05
-1.562685e-05
-1.944920e-05
-2.351824e-05
-2.709722e-05
-3.000397e-05
-3.191044e-05
-3.355111e-05
-3.510112e-05
-3.629838e-05
-3.693331e-05
-3.740223e-05
-3.775143e-05
-3.737601e-05
0.000000e+00
-7.812557e-06
-1.504850e-05
-2.194886e-05
-3.061748e-05
-3.821153e-05
-4.581726e-05
-5.372789e-05
-6.059596e-05
-6.535718e-05
-6.798165e-05
-6.948339e-05
-7.057197e-05
-7.158519e-05
-7.261548e-05
-7.349464e-05
-7.373531e-05
0.000000e+00
-9.532564e-06
-1.915008e-05
-2.901554e-05
-4.082684e-05
-5.175757e-05
-6.271737e-05
-7.409785e-05
-8.612441e-05
-9.654481e-05
-1.027163e-04
-1.060092e-04
-1.077934e-04
-1.090378e-04
-1.099022e-04
-1.103427e-04
-1.104655e-04
0.000000e+00
-1.368320e-05
-2.412237e-05
-3.709821e-05
-5.133210e-05
-6.501935e-05
-7.944234e-05
-9.314807e-05
-1.086239e-04
-1.236708e-04
-1.348179e-04
-1.419918e-04
-1.459777e-04
-1.476620e-04
-1.481162e-04
-1.480536e-04
-1.479757e-04
0.000000e+00
1.157097e-05
2.000319e-05
3.199168e-05
4.678918e-05
6.400828e-05
8.531184e-05
1.099757e-04
1.384134e-04
1.691710e-04
2.024342e-04
2.390626e-04
2.777260e-04
3.187643e-04
3.673061e-04
4.237145e-04
4.798299e-04
0.000000e+00
6.695622e-06
1.541004e-05
2.596315e-05
4.061564e-05
5.785908e-05
7.903305e-05
1.035657e-04
1.316788e-04
1.636104e-04
1.982963e-04
2.358680e-04
2.758816e-04
3.179297e-04
3.635414e-04
4.166348e-04
4.709456e-04
0.000000e+00
3.140329e-06
1.096343e-05
2.088736e-05
3.501733e-05
5.274201e-05
7.377792e-05
9.855318e-05
1.273428e-04
1.602290e-04
1.958794e-04
2.341431e-04
2.751015e-04
3.174446e-04
3.590047e-04
4.078551e-04
4.604163e-04
0.000000e+00
1.971747e-06
8.548261e-06
1.852189e-05
3.251466e-05
5.043072e-05
7.173790e-05
9.691380e-05
1.262877e-04
1.593322e-04
1.951508e-04
2.335358e-04
2.747849e-04
3.168835e-04
3.562709e-04
3.998695e-04
4.485035e-04
0.000000e+00
1.594507e-06
7.943884e-06
1.775855e-05
3.182773e-05
4.965960e-05
7.114701e-05
9.658076e-05
1.261539e-04
1.592064e-04
1.950062e-04
2.334781e-04
2.746650e-04
3.168334e-04
3.561208e-04
3.960161e-04
4.392750e-04
0.000000e+00
2.000565e-06
8.570398e-06
1.851333e-05
3.244470e-05
5.029636e-05
7.155293e-05
9.674318e-05
1.262466e-04
1.594456e-04
1.955796e-04
2.343093e-04
2.753732e-04
3.169802e-04
3.569251e-04
3.956857e-04
4.346465e-04
0.000000e+00
3.181584e-06
1.100190e-05
2.086820e-05
3.490478e-05
5.250657e-05
7.343022e-05
9.816756e-05
1.270778e-04
1.603797e-04
1.968098e-04
2.357607e-04
2.764690e-04
3.173661e-04
3.571120e-04
3.956046e-04
4.330650e-04
0.000000e+00
6.745011e-06
1.545749e-05
2.595969e-05
4.052201e-05
5.763242e-05
7.866344e-05
1.031029e-04
1.313099e-04
1.636466e-04
1.990243e-04
2.372657e-04
2.772861e-04
3.176221e-04
3.570854e-04
3.954540e-04
4.329282e-04
0.000000e+00
1.162256e-05
2.004373e-05
3.199190e-05
4.671975e-05
6.380754e-05
8.496704e-05
1.095477e-04
1.380946e-04
1.690977e-04
2.024384e-04
2.390578e-04
2.780648e-04
3.178182e-04
3.571017e-04
3.953817e-04
4.329971e-04


6.353369e+00
6.065461e+00
6.261972e+00
5.280988e+00
4.772340e+00
5.129469e+00
4.940696e+00
4.762295e+00
4.552718e+00
4.708816e+00
5.536156e+00
6.583599e+00
7.413057e+00
8.190835e+00
8.213747e+00
7.812080e+00
7.889998e+00
8.145612e+00
8.176537e+00
7.761882e+00
7.382037e+00
7.524445e+00
7.162867e+00
6.200404e+00
5.530283e+00
5.497029e+00
6.264548e+00
7.154264e+00
7.682791e+00
7.826873e+00
7.324502e+00
6.204104e+00
9.324903e+00
9.493265e+00
9.763571e+00
9.430241e+00
9.268531e+00
9.363989e+00
8.970880e+00
8.079006e+00
7.186091e+00
7.028441e+00
7.418682e+00
7.780770e+00
7.797780e+00
7.468383e+00
6.529219e+00
5.730703e+00
9.608652e+00
9.809315e+00
9.911528e+00
9.711199e+00
9.515339e+00
9.595972e+00
9.644125e+00
9.246497e+00
8.665428e+00
8.323105e+00
8.109068e+00
7.786282e+00
7.447847e+00
7.039734e+00
6.563239e+00
6.106340e+00
9.604512e+00
9.803221e+00
9.890840e+00
9.658471e+00
9.440172e+00
9.526708e+00
9.604930e+00
9.248745e+00
8.722672e+00
8.373695e+00
7.991446e+00
7.446338e+00
7.121807e+00
7.092766e+00
7.047338e+00
6.979782e+00
9.314595e+00
9.482590e+00
9.720075e+00
9.319803e+00
9.103376e+00
9.199434e+00
8.855358e+00
8.057387e+00
7.289319e+00
7.186746e+00
7.333950e+00
7.280264e+00
7.317593e+00
7.672926e+00
8.032240e+00
8.179897e+00
7.880085e+00
8.136813e+00
8.146638e+00
7.678244e+00
7.241814e+00
7.368986e+00
7.044541e+00
6.158115e+00
5.622364e+00
5.761591e+00
6.556564e+00
7.287376e+00
7.827249e+00
8.412495e+00
8.910119e+00
9.125960e+00
6.340950e+00
6.060413e+00
6.252439e+00
5.244609e+00
4.698935e+00
5.033962e+00
4.877384e+00
4.757021e+00
4.641774e+00
5.029797e+00
6.135368e+00
7.337003e+00
8.217274e+00
8.881969e+00
9.353744e+00
9.552882e+00


-9.543488e-01
-1.209285e-01
-3.099059e-01
-2.888303e-01
-1.529033e-01
-2.298523e-01
2.345743e-03
-1.761388e-01
-4.019822e-01
-2.392014e-01
-2.293692e-01
-3.118781e-01
-2.987384e-01
-2.226460e-01
4.191416e-01
-7.334348e-01
5.769795e-01
4.853808e-01
3.204783e-01
1.895244e-01
2.388586e-01
1.388829e-01
1.925641e-01
1.737336e-01
1.185094e-01
2.526743e-01
2.744241e-01
3.077106e-01
4.751524e-01
7.164110e-01
7.314960e-01
-9.618112e-01
7.240144e-01
4.901874e-01
9.964457e-02
3.741866e-02
4.082935e-02
-4.215562e-02
1.232181e-01
2.363507e-01
3.361611e-01
3.887233e-01
3.809459e-01
4.117545e-01
4.590997e-01
3.294059e-01
4.875174e-02
-4.172450e-01
7.332384e-01
5.677554e-01
2.291288e-01
1.496579e-01
1.019036e-01
5.997668e-02
1.527321e-01
2.150242e-01
2.804612e-01
2.685407e-01
2.310151e-01
1.898505e-01
7.485925e-02
-1.706731e-01
-2.484266e-01
-9.780063e-02
7.347882e-01
5.702522e-01
2.346087e-01
1.540532e-01
1.002566e-01
4.109646e-02
1.088628e-01
1.413962e-01
1.740327e-01
1.152112e-01
2.632261e-02
-4.720871e-02
-1.404101e-01
-1.717364e-01
3.969999e-02
4.408220e-01
7.271792e-01
4.940561e-01
1.066984e-01
4.277726e-02
3.391751e-02
-7.690540e-02
4.513976e-02
1.003915e-01
1.210692e-01
6.239004e-02
-8.555694e-02
-1.486001e-01
-1.010233e-01
5.517384e-02
3.910913e-01
7.808241e-01
5.790379e-01
4.863895e-01
3.219177e-01
1.903973e-01
2.372762e-01
1.307524e-01
1.695401e-01
1.229799e-01
2.373584e-03
5.059737e-02
-1.775687e-02
-1.101543e-02
1.652730e-01
4.306545e-01
7.350700e-01
9.532340e-01
-9.568555e-01
-1.231031e-01
-3.111175e-01
-2.906378e-01
-1.551971e-01
-2.258001e-01
1.167864e-02
-1.435929e-01
-3.335179e-01
-1.492537e-01
-3.312967e-02
1.629298e-01
5.031712e-01
7.945231e-01
9.547299e-01
9.988769e-01
1 2 19 18
2 3 20 19
3 4 21 20
4 5 22 21
5 6 23 22
6 7 24 23
7 8 25 24
8 9 26 25
9 10 27 26
10 11 28 27
11 12 29 28
12 13 30 29
13 14 31 30
14 15 32 31
15 16 33 32
16 17 34 33
18 19 36 35
19 20 37 36
20 21 38 37
21 22 39 38
22 23 40 39
23 24 41 40
24 25 42 41
25 26 43 42
26 27 44 43
27 28 45 44
28 29 46 45
29 30 47 46
30 31 48 47
31 32 49 48
32 33 50 49
33 34 51 50
35 36 53 52
36 37 54 53
37 38 55 54
38 39 56 55
39 40 57 56
40 41 58 57
41 42 59 58
42 43 60 59
43 44 61 60
44 45 62 61
45 46 63 62
46 47 64 63
47 48 65 64
48 49 66 65
49 50 67 66
50 51 68 67
52 53 70 69
53 54 71 70
54 55 72 71
55 56 73 72
56 57 74 73
57 58 75 74
58 59 76 75
59 60 77 76
60 61 78 77
61 62 79 78
62 63 80 79
63 64 81 80
64 65 82 81
65 66 83 82
66 67 84 83
67 68 85 84
69 70 87 86
70 71 88 87
71 72 89 88
72 73 90 89
73 74 91 90
74 75 92 91
75 76 93 92
76 77 94 93
77 78 95 94
78 79 96 95
79 80 97 96
80 81 98 97
81 82 99 98
82 83 100 99
83 84 101 100
84 85 102 101
86 87 104 103
87 88 105 104
88 89 106 105
89 90 107 106
90 91 108 107
91 92 109 108
92 93 110 109
93 94 111 110
94 95 112 111
95 96 113 112
96 97 114 113
97 98 115 114
98 99 116 115
99 100 117 116
100 101 118 117
101 102 119 118
103 104 121 120
104 105 122 121
105 106 123 122
106 107 124 123
107 108 125 124
108 109 126 125
109 110 127 126
110 111 128 127
111 112 129 128
112 113 130 129
113 114 131 130
114 115 132 131
115 116 133 132
116 117 134 133
117 118 135 134
118 119 136 135
120 121 138 137
121 122 139 138
122 123 140 139
123 124 141 140
124 125 142 141
125 126 143 142
126 127 144 143
127 128 145 144
128 129 146 145
129 130 147 146
130 131 148 147
131 132 149 148
132 133 150 149
133 134 151 150
134 135 152 151
135 136 153 152
