TITLE = "Solution"
VARIABLES = x, y, u, v, psiu, psiv, t, stress
ZONE T="structure" N=153 E=128 F=FEBLOCK ET=QUADRILATERAL VARLOCATION=([7,8]=cellcentered)
0.000000e+00
1.250000e+01
2.500000e+01
3.750000e+01
5.000000e+01
6.250000e+01
7.500000e+01
8.750000e+01
1.000000e+02
1.125000e+02
1.250000e+02
1.375000e+02
1.500000e+02
1.625000e+02
1.750000e+02
1.875000e+02
2.000000e+02
0.000000e+00
1.250000e+01
2.500000e+01
3.750000e+01
5.000000e+01
6.250000e+01
7.500000e+01
8.750000e+01
1.000000e+02
1.125000e+02
1.250000e+02
1.375000e+02
1.500000e+02
1.625000e+02
1.750000e+02
1.875000e+02
2.000000e+02
0.000000e+00
1.250000e+01
2.500000e+01
3.750000e+01
5.000000e+01
6.250000e+01
7.500000e+01
8.750000e+01
1.000000e+02
1.125000e+02
1.250000e+02
1.375000e+02
1.500000e+02
1.625000e+02
1.750000e+02
1.875000e+02
2.000000e+02
0.000000e+00
1.250000e+01
2.500000e+01
3.750000e+01
5.000000e+01
6.250000e+01
7.500000e+01
8.750000e+01
1.000000e+02
1.125000e+02
1.250000e+02
1.375000e+02
1.500000e+02
1.625000e+02
1.750000e+02
1.875000e+02
2.000000e+02
0.000000e+00
1.250000e+01
2.500000e+01
3.750000e+01
5.000000e+01
6.250000e+01
7.500000e+01
8.750000e+01
1.000000e+02
1.125000e+02
1.250000e+02
1.375000e+02
1.500000e+02
1.625000e+02
1.750000e+02
1.875000e+02
2.000000e+02
0.000000e+00
1.250000e+01
2.500000e+01
3.750000e+01
5.000000e+01
6.250000e+01
7.500000e+01
8.750000e+01
1.000000e+02
1.125000e+02
1.250000e+02
1.375000e+02
1.500000e+02
1.625000e+02
1.750000e+02
1.875000e+02
2.000000e+02
0.000000e+00
1.250000e+01
2.500000e+01
3.750000e+01
5.000000e+01
6.250000e+01
7.500000e+01
8.750000e+01
1.000000e+02
1.125000e+02
1.250000e+02
1.375000e+02
1.500000e+02
1.625000e+02
1.750000e+02
1.875000e+02
2.000000e+02
0.000000e+00
1.250000e+01
2.500000e+01
3.750000e+01
5.000000e+01
6.250000e+01
7.500000e+01
8.750000e+01
1.000000e+02
1.125000e+02
1.250000e+02
1.375000e+02
1.500000e+02
1.625000e+02
1.750000e+02
1.875000e+02
2.000000e+02
0.000000e+00
1.250000e+01
2.500000e+01
3.750000e+01
5.000000e+01
6.250000e+01
7.500000e+01
8.750000e+01
1.000000e+02
1.125000e+02
1.250000e+02
1.375000e+02
1.500000e+02
1.625000e+02
1.750000e+02
1.875000e+02
2.000000e+02
0.000000e+00
0.000000e+00
0.000000e+00
0.000000e+00
0.000000e+00
0.000000e+00
0.000000e+00
0.000000e+00
0.000000e+00
0.000000e+00
0.000000e+00
0.000000e+00
0.000000e+00
0.000000e+00
0.000000e+00
0.000000e+00
0.000000e+00
1.250000e+01
1.250000e+01
1.250000e+01
1.250000e+01
1.250000e+01
1.250000e+01
1.250000e+01
1.250000e+01
1.250000e+01
1.250000e+01
1.250000e+01
1.250000e+01
1.250000e+01
1.250000e+01
1.250000e+01
1.250000e+01
1.250000e+01
2.500000e+01
2.500000e+01
2.500000e+01
2.500000e+01
2.500000e+01
2.500000e+01
2.500000e+01
2.500000e+01
2.500000e+01
2.500000e+01
2.500000e+01
2.500000e+01
2.500000e+01
2.500000e+01
2.500000e+01
2.500000e+01
2.500000e+01
3.750000e+01
3.750000e+01
3.750000e+01
3.750000e+01
3.750000e+01
3.750000e+01
3.750000e+01
3.750000e+01
3.750000e+01
3.750000e+01
3.750000e+01
3.750000e+01
3.750000e+01
3.750000e+01
3.750000e+01
3.750000e+01
3.750000e+01
5.000000e+01
5.000000e+01
5.000000e+01
5.000000e+01
5.000000e+01
5.000000e+01
5.000000e+01
5.000000e+01
5.000000e+01
5.000000e+01
5.000000e+01
5.000000e+01
5.000000e+01
5.000000e+01
5.000000e+01
5.000000e+01
5.000000e+01
6.250000e+01
6.250000e+01
6.250000e+01
6.250000e+01
6.250000e+01
6.250000e+01
6.250000e+01
6.250000e+01
6.250000e+01
6.250000e+01
6.250000e+01
6.250000e+01
6.250000e+01
6.250000e+01
6.250000e+01
6.250000e+01
6.250000e+01
7.500000e+01
7.500000e+01
7.500000e+01
7.500000e+01
7.500000e+01
7.500000e+01
7.500000e+01
7.500000e+01
7.500000e+01
7.500000e+01
7.500000e+01
7.500000e+01
7.500000e+01
7.500000e+01
7.500000e+01
7.500000e+01
7.500000e+01
8.750000e+01
8.750000e+01
8.750000e+01
8.750000e+01
8.750000e+01
8.750000e+01
8.750000e+01
8.750000e+01
8.750000e+01
8.750000e+01
8.750000e+01
8.750000e+01
8.750000e+01
8.750000e+01
8.750000e+01
8.750000e+01
8.750000e+01
1.000000e+02
1.000000e+02
1.000000e+02
1.000000e+02
1.000000e+02
1.000000e+02
1.000000e+02
1.000000e+02
1.000000e+02
1.000000e+02
1.000000e+02
1.000000e+02
1.000000e+02
1.000000e+02
1.000000e+02
1.000000e+02
1.000000e+02
0.000000e+00
-8.547985e-02
-1.524469e-01
-2.115438e-01
-2.697230e-01
-3.263753e-01
-3.779416e-01
-4.239127e-01
-4.660986e-01
-5.039655e-01
-5.370458e-01
-5.665175e-01
-5.942187e-01
-6.224027e-01
-6.540226e-01
-6.927655e-01
-7.228620e-01
0.000000e+00
-5.027968e-02
-1.009753e-01
-1.458996e-01
-1.890530e-01
-2.309604e-01
-2.691410e-01
-3.034293e-01
-3.349331e-01
-3.632082e-01
-3.877511e-01
-4.090837e-01
-4.277526e-01
-4.436455e-01
-4.549136e-01
-4.572723e-01
-4.663640e-01
0.000000e+00
-2.939480e-02
-5.967782e-02
-8.934123e-02
-1.176043e-01
-1.445781e-01
-1.693824e-01
-1.919561e-01
-2.124667e-01
-2.305280e-01
-2.458547e-01
-2.584211e-01
-2.677989e-01
-2.730588e-01
-2.730880e-01
-2.708447e-01
-2.801774e-01
0.000000e+00
-1.256543e-02
-2.582260e-02
-3.921906e-02
-5.227130e-02
-6.460447e-02
-7.611554e-02
-8.663069e-02
-9.601273e-02
-1.039695e-01
-1.102649e-01
-1.146367e-01
-1.166441e-01
-1.160523e-01
-1.139311e-01
-1.145797e-01
-1.213702e-01
0.000000e+00
2.497630e-03
5.108465e-03
7.599755e-03
9.904575e-03
1.201772e-02
1.397423e-02
1.573192e-02
1.734663e-02
1.902596e-02
2.106063e-02
2.376256e-02
2.722786e-02
3.097089e-02
3.350085e-02
3.282913e-02
2.844715e-02
0.000000e+00
1.723128e-02
3.531398e-02
5.343458e-02
7.142243e-02
8.864112e-02
1.044009e-01
1.184646e-01
1.308535e-01
1.416629e-01
1.512185e-01
1.598960e-01
1.676611e-01
1.738717e-01
1.775593e-01
1.779354e-01
1.756877e-01
0.000000e+00
3.299334e-02
6.726008e-02
1.014005e-01
1.353177e-01
1.685870e-01
1.984311e-01
2.245376e-01
2.474769e-01
2.672393e-01
2.838335e-01
2.977600e-01
3.091533e-01
3.176385e-01
3.228274e-01
3.245725e-01
3.240240e-01
0.000000e+00
5.129867e-02
1.059729e-01
1.558607e-01
2.056015e-01
2.554323e-01
2.991017e-01
3.366226e-01
3.699518e-01
3.987235e-01
4.222957e-01
4.412219e-01
4.559075e-01
4.663665e-01
4.727739e-01
4.755930e-01
4.761118e-01
0.000000e+00
8.539258e-02
1.564577e-01
2.209788e-01
2.862142e-01
3.516206e-01
4.085526e-01
4.574501e-01
5.013743e-01
5.392771e-01
5.701448e-01
5.944798e-01
6.125670e-01
6.243967e-01
6.303736e-01
6.319540e-01
6.319501e-01
0.000000e+00
-5.018184e-02
-9.833255e-02
-1.616081e-01
-2.403337e-01
-3.341574e-01
-4.417140e-01
-5.619659e-01
-6.935560e-01
-8.347417e-01
-9.842261e-01
-1.141248e+00
-1.305582e+00
-1.478244e+00
-1.664066e+00
-1.878117e+00
-2.190721e+00
0.000000e+00
-3.090838e-02
-8.226217e-02
-1.461761e-01
-2.252366e-01
-3.199711e-01
-4.289771e-01
-5.504551e-01
-6.831393e-01
-8.255996e-01
-9.762951e-01
-1.134262e+00
-1.299250e+00
-1.472416e+00
-1.658103e+00
-1.870640e+00
-2.133814e+00
0.000000e+00
-2.348822e-02
-7.091128e-02
-1.351007e-01
-2.146120e-01
-3.100274e-01
-4.199493e-01
-5.424107e-01
-6.761260e-01
-8.196259e-01
-9.713805e-01
-1.130507e+00
-1.296792e+00
-1.471231e+00
-1.656919e+00
-1.857619e+00
-2.051852e+00
0.000000e+00
-2.081631e-02
-6.534045e-02
-1.285511e-01
-2.083763e-01
-3.042291e-01
-4.147274e-01
-5.380067e-01
-6.726233e-01
-8.169717e-01
-9.696232e-01
-1.129821e+00
-1.297175e+00
-1.471679e+00
-1.653313e+00
-1.836934e+00
-2.005820e+00
0.000000e+00
-2.046027e-02
-6.399511e-02
-1.265906e-01
-2.063848e-01
-3.025430e-01
-4.134550e-01
-5.372833e-01
-6.724403e-01
-8.173589e-01
-9.705862e-01
-1.131329e+00
-1.298768e+00
-1.471576e+00
-1.647367e+00
-1.820318e+00
-1.979504e+00
0.000000e+00
-2.174672e-02
-6.624634e-02
-1.290344e-01
-2.087334e-01
-3.050715e-01
-4.162418e-01
-5.400971e-01
-6.752471e-01
-8.202797e-01
-9.736311e-01
-1.134243e+00
-1.300817e+00
-1.471127e+00
-1.642181e+00
-1.809184e+00
-1.964876e+00
0.000000e+00
-2.511651e-02
-7.250266e-02
-1.363180e-01
-2.157871e-01
-3.120664e-01
-4.230189e-01
-5.462485e-01
-6.807357e-01
-8.253079e-01
-9.782466e-01
-1.138152e+00
-1.303367e+00
-1.471341e+00
-1.639060e+00
-1.802764e+00
-1.958184e+00
0.000000e+00
-3.272558e-02
-8.463707e-02
-1.486418e-01
-2.280136e-01
-3.236864e-01
-4.335356e-01
-5.555136e-01
-6.888272e-01
-8.323187e-01
-9.842061e-01
-1.142941e+00
-1.306659e+00
-1.472764e+00
-1.638269e+00
-1.800046e+00
-1.956510e+00
0.000000e+00
-5.245952e-02
-1.019478e-01
-1.657788e-01
-2.453708e-01
-3.399316e-01
-4.475492e-01
-5.678360e-01
-6.997061e-01
-8.414766e-01
-9.916403e-01
-1.148738e+00
-1.310758e+00
-1.475128e+00
-1.638965e+00
-1.799549e+00
-1.956510e+00


0.000000e+00
-1.024068e-06
-9.934240e-07
3.782648e-07
1.216256e-06
1.288838e-06
1.148510e-06
1.010454e-06
8.876717e-07
7.854126e-07
7.062550e-07
6.471302e-07
6.050860e-07
5.771359e-07
5.569171e-07
5.362562e-07
5.132453e-07
0.000000e+00
-8.902875e-07
-7.539489e-07
4.918070e-07
1.283925e-06
1.176807e-06
1.000822e-06
8.869952e-07
7.970113e-07
7.198374e-07
6.569854e-07
6.094220e-07
5.780080e-07
5.592396e-07
5.430413e-07
5.201204e-07
4.944648e-07
0.000000e+00
-3.368128e-07
-1.847753e-07
4.348214e-07
8.401838e-07
8.224469e-07
7.779975e-07
7.286968e-07
6.829626e-07
6.391083e-07
5.991651e-07
5.667263e-07
5.433417e-07
5.253111e-07
5.069475e-07
4.856822e-07
4.643728e-07
0.000000e+00
1.026576e-07
1.897155e-07
3.366337e-07
3.821289e-07
4.833179e-07
5.333621e-07
5.500664e-07
5.485041e-07
5.362213e-07
5.202691e-07
5.042627e-07
4.876509e-07
4.708526e-07
4.552873e-07
4.411014e-07
4.273803e-07
0.000000e+00
1.207495e-07
2.217429e-07
1.971747e-07
1.880089e-07
2.265204e-07
2.899440e-07
3.392448e-07
3.693182e-07
3.860923e-07
3.978292e-07
4.046467e-07
4.036436e-07
3.980280e-07
3.923484e-07
3.862564e-07
3.777013e-07
0.000000e+00
1.174003e-08
3.788481e-08
7.802413e-09
-2.043553e-08
1.219818e-08
6.510788e-08
1.207251e-07
1.706936e-07
2.136002e-07
2.517486e-07
2.825271e-07
3.016065e-07
3.121698e-07
3.183850e-07
3.194412e-07
3.144597e-07
0.000000e+00
-5.206897e-08
-9.742289e-08
-1.364091e-07
-1.385776e-07
-1.111256e-07
-7.597024e-08
-3.491902e-08
1.404514e-08
6.675001e-08
1.171706e-07
1.595160e-07
1.911560e-07
2.142767e-07
2.304085e-07
2.380508e-07
2.373330e-07
0.000000e+00
-5.536320e-08
-1.137172e-07
-1.502272e-07
-1.503486e-07
-1.385790e-07
-1.289892e-07
-1.115306e-07
-7.782520e-08
-3.188044e-08
1.488517e-08
5.396075e-08
8.433419e-08
1.095567e-07
1.300143e-07
1.430549e-07
1.476890e-07
0.000000e+00
3.420286e-08
-5.356472e-08
-1.220731e-07
-1.623837e-07
-1.830452e-07
-1.852227e-07
-1.680405e-07
-1.321533e-07
-8.735372e-08
-4.785025e-08
-2.071283e-08
-2.388841e-09
1.587527e-08
3.698106e-08
5.518207e-08
6.379362e-08
0.000000e+00
-4.844950e-07
-1.248592e-07
1.529073e-07
-8.699205e-08
-2.847575e-07
-2.070416e-07
-1.142172e-07
-6.360221e-08
-3.706097e-08
-2.029142e-08
-4.280314e-09
1.331586e-08
2.387830e-08
1.464107e-08
-1.104854e-08
-3.506122e-08
0.000000e+00
-2.799936e-07
-5.707608e-07
-4.857934e-07
-3.103033e-07
-2.359748e-07
-1.360691e-07
-6.173449e-08
-1.782306e-08
1.285566e-09
9.747581e-09
1.763926e-08
2.857779e-08
3.737843e-08
3.629899e-08
2.129277e-08
3.679482e-09
0.000000e+00
-2.091869e-07
-7.609830e-07
-8.271378e-07
-4.802607e-07
-1.997300e-07
-8.998046e-08
-2.412888e-08
1.243094e-08
2.723592e-08
2.964451e-08
3.097724e-08
3.937608e-08
5.176039e-08
6.105136e-08
5.762615e-08
5.023438e-08
0.000000e+00
-2.222245e-07
-6.947715e-07
-7.956800e-07
-5.156661e-07
-2.420162e-07
-9.688681e-08
-2.193979e-08
1.599669e-08
3.278707e-08
3.372831e-08
3.204109e-08
4.357237e-08
6.445153e-08
8.192105e-08
8.666101e-08
9.126557e-08
0.000000e+00
-2.643649e-07
-6.040206e-07
-6.767142e-07
-4.915603e-07
-2.886934e-07
-1.381740e-07
-5.208412e-08
-4.672585e-09
2.016921e-08
2.388081e-08
2.365711e-08
4.251792e-08
7.360419e-08
9.854326e-08
1.090776e-07
1.230032e-07
0.000000e+00
-2.820249e-07
-5.329429e-07
-5.678359e-07
-4.491510e-07
-3.130093e-07
-1.901814e-07
-1.016623e-07
-4.450320e-08
-1.103849e-08
-2.132750e-10
8.376441e-09
3.794083e-08
7.872660e-08
1.110030e-07
1.277350e-07
1.486148e-07
0.000000e+00
-2.558355e-07
-4.437664e-07
-4.778346e-07
-4.172412e-07
-3.330870e-07
-2.351475e-07
-1.513222e-07
-9.015139e-08
-5.170354e-08
-3.132420e-08
-9.092381e-09
3.133258e-08
7.947124e-08
1.183853e-07
1.421524e-07
1.713299e-07
0.000000e+00
-1.999074e-07
-3.697450e-07
-4.266681e-07
-4.142097e-07
-3.480503e-07
-2.608209e-07
-1.817769e-07
-1.235759e-07
-8.518107e-08
-5.766427e-08
-2.473213e-08
2.250031e-08
7.481917e-08
1.191891e-07
1.505476e-07
1.884404e-07
0.000000e+00
-1.699132e-07
-3.301798e-07
-4.169745e-07
-4.201912e-07
-3.568727e-07
-2.703155e-07
-1.956579e-07
-1.425221e-07
-1.059238e-07
-7.459703e-08
-3.637208e-08
1.347377e-08
6.707317e-08
1.149687e-07
1.527407e-07
1.958553e-07


2.419865e-01
2.217725e-01
2.099286e-01
2.207237e-01
2.321748e-01
2.315433e-01
2.295554e-01
2.371194e-01
2.408230e-01
2.382825e-01
2.387090e-01
2.451137e-01
2.543244e-01
2.581693e-01
2.592285e-01
2.705237e-01
2.394711e-01
2.305537e-01
2.238280e-01
2.299386e-01
2.399744e-01
2.398874e-01
2.403004e-01
2.456489e-01
2.468880e-01
2.439829e-01
2.442473e-01
2.484085e-01
2.554360e-01
2.596356e-01
2.642883e-01
2.695655e-01
2.507305e-01
2.447800e-01
2.389389e-01
2.415243e-01
2.478669e-01
2.520273e-01
2.544444e-01
2.572583e-01
2.560423e-01
2.529010e-01
2.526410e-01
2.533828e-01
2.552825e-01
2.589377e-01
2.617076e-01
2.663869e-01
2.652023e-01
2.583712e-01
2.510549e-01
2.511960e-01
2.574549e-01
2.625224e-01
2.656204e-01
2.660372e-01
2.623266e-01
2.583787e-01
2.576769e-01
2.571372e-01
2.544749e-01
2.535008e-01
2.555971e-01
2.581180e-01
2.689569e-01
2.641778e-01
2.591503e-01
2.639819e-01
2.708443e-01
2.735656e-01
2.737715e-01
2.703863e-01
2.644466e-01
2.580411e-01
2.571682e-01
2.571203e-01
2.530502e-01
2.509401e-01
2.547914e-01
2.586556e-01
2.672134e-01
2.639414e-01
2.616856e-01
2.748275e-01
2.884107e-01
2.857775e-01
2.777613e-01
2.723558e-01
2.634779e-01
2.542779e-01
2.516122e-01
2.523275e-01
2.511191e-01
2.538653e-01
2.619900e-01
2.673714e-01
2.647706e-01
2.614618e-01
2.608765e-01
2.814740e-01
3.010535e-01
2.903927e-01
2.759911e-01
2.705812e-01
2.638988e-01
2.522956e-01
2.470467e-01
2.485897e-01
2.522122e-01
2.608753e-01
2.714449e-01
2.766316e-01
2.589220e-01
2.597038e-01
2.585416e-01
2.829383e-01
3.042234e-01
2.880590e-01
2.697022e-01
2.693687e-01
2.649608e-01
2.534355e-01
2.473836e-01
2.494586e-01
2.563174e-01
2.668984e-01
2.768624e-01
2.818933e-01


9.838635e-01
9.878742e-01
9.905231e-01
9.909993e-01
9.914885e-01
9.929247e-01
9.943235e-01
9.952131e-01
9.961431e-01
9.970726e-01
9.977314e-01
9.981258e-01
9.983245e-01
9.983988e-01
9.984851e-01
9.928570e-01
9.943131e-01
9.939158e-01
9.947986e-01
9.951883e-01
9.954656e-01
9.961268e-01
9.967696e-01
9.972465e-01
9.977781e-01
9.983304e-01
9.987839e-01
9.991694e-01
9.995135e-01
9.997534e-01
9.990502e-01
9.896437e-01
9.982520e-01
9.977514e-01
9.976685e-01
9.977623e-01
9.978338e-01
9.979889e-01
9.981906e-01
9.983950e-01
9.986473e-01
9.989160e-01
9.991444e-01
9.993136e-01
9.993379e-01
9.989755e-01
9.976679e-01
9.953169e-01
9.996504e-01
9.992214e-01
9.990035e-01
9.989052e-01
9.988116e-01
9.987635e-01
9.987802e-01
9.988205e-01
9.988847e-01
9.989551e-01
9.989781e-01
9.989244e-01
9.987528e-01
9.984155e-01
9.981057e-01
9.980522e-01
9.993863e-01
9.989242e-01
9.986986e-01
9.985990e-01
9.985384e-01
9.985558e-01
9.986269e-01
9.986898e-01
9.987321e-01
9.987485e-01
9.986986e-01
9.986054e-01
9.985357e-01
9.985510e-01
9.987819e-01
9.992355e-01
9.975399e-01
9.969494e-01
9.968170e-01
9.968112e-01
9.968800e-01
9.972906e-01
9.977269e-01
9.980460e-01
9.982998e-01
9.984893e-01
9.985694e-01
9.986118e-01
9.987319e-01
9.989681e-01
9.993362e-01
9.997542e-01
9.935172e-01
9.926143e-01
9.934089e-01
9.934712e-01
9.935491e-01
9.948617e-01
9.960489e-01
9.968043e-01
9.974881e-01
9.981094e-01
9.985268e-01
9.988254e-01
9.991177e-01
9.994273e-01
9.997383e-01
9.999542e-01
9.834520e-01
9.861502e-01
9.885343e-01
9.884166e-01
9.884042e-01
9.911267e-01
9.934252e-01
9.947357e-01
9.960584e-01
9.973408e-01
9.982816e-01
9.989668e-01
9.994728e-01
9.997965e-01
9.999567e-01
9.999990e-01
1 2 19 18
2 3 20 19
3 4 21 20
4 5 22 21
5 6 23 22
6 7 24 23
7 8 25 24
8 9 26 25
9 10 27 26
10 11 28 27
11 12 29 28
12 13 30 29
13 14 31 30
14 15 32 31
15 16 33 32
16 17 34 33
18 19 36 35
19 20 37 36
20 21 38 37
21 22 39 38
22 23 40 39
23 24 41 40
24 25 42 41
25 26 43 42
26 27 44 43
27 28 45 44
28 29 46 45
29 30 47 46
30 31 48 47
31 32 49 48
32 33 50 49
33 34 51 50
35 36 53 52
36 37 54 53
37 38 55 54
38 39 56 55
39 40 57 56
40 41 58 57
41 42 59 58
42 43 60 59
43 44 61 60
44 45 62 61
45 46 63 62
46 47 64 63
47 48 65 64
48 49 66 65
49 50 67 66
50 51 68 67
52 53 70 69
53 54 71 70
54 55 72 71
55 56 73 72
56 57 74 73
57 58 75 74
58 59 76 75
59 60 77 76
60 61 78 77
61 62 79 78
62 63 80 79
63 64 81 80
64 65 82 81
65 66 83 82
66 67 84 83
67 68 85 84
69 70 87 86
70 71 88 87
71 72 89 88
72 73 90 89
73 74 91 90
74 75 92 91
75 76 93 92
76 77 94 93
77 78 95 94
78 79 96 95
79 80 97 96
80 81 98 97
81 82 99 98
82 83 100 99
83 84 101 100
84 85 102 101
86 87 104 103
87 88 105 104
88 89 106 105
89 90 107 106
90 91 108 107
91 92 109 108
92 93 110 109
93 94 111 110
94 95 112 111
95 96 113 112
96 97 114 113
97 98 115 114
98 99 116 115
99 100 117 116
100 101 118 117
101 102 119 118
103 104 121 120
104 105 122 121
105 106 123 122
106 107 124 123
107 108 125 124
108 109 126 125
109 110 127 126
110 111 128 127
111 112 129 128
112 113 130 129
113 114 131 130
114 115 132 131
115 116 133 132
116 117 134 133
117 118 135 134
118 119 136 135
120 121 138 137
121 122 139 138
122 123 140 139
123 124 141 140
124 125 142 141
125 126 143 142
126 127 144 143
127 128 145 144
128 129 146 145
129 130 147 146
130 131 148 147
131 132 149 148
132 133 150 149
133 134 151 150
134 135 152 151
135 136 153 152
