TITLE = "Solution"
VARIABLES = x, y, u, v, psiu, psiv, t, stress
ZONE T="structure" N=153 E=128 F=FEBLOCK ET=QUADRILATERAL VARLOCATION=([7,8]=cellcentered)
0.000000e+00
1.250000e+01
2.500000e+01
3.750000e+01
5.000000e+01
6.250000e+01
7.500000e+01
8.750000e+01
1.000000e+02
1.125000e+02
1.250000e+02
1.375000e+02
1.500000e+02
1.625000e+02
1.750000e+02
1.875000e+02
2.000000e+02
0.000000e+00
1.250000e+01
2.500000e+01
3.750000e+01
5.000000e+01
6.250000e+01
7.500000e+01
8.750000e+01
1.000000e+02
1.125000e+02
1.250000e+02
1.375000e+02
1.500000e+02
1.625000e+02
1.750000e+02
1.875000e+02
2.000000e+02
0.000000e+00
1.250000e+01
2.500000e+01
3.750000e+01
5.000000e+01
6.250000e+01
7.500000e+01
8.750000e+01
1.000000e+02
1.125000e+02
1.250000e+02
1.375000e+02
1.500000e+02
1.625000e+02
1.750000e+02
1.875000e+02
2.000000e+02
0.000000e+00
1.250000e+01
2.500000e+01
3.750000e+01
5.000000e+01
6.250000e+01
7.500000e+01
8.750000e+01
1.000000e+02
1.125000e+02
1.250000e+02
1.375000e+02
1.500000e+02
1.625000e+02
1.750000e+02
1.875000e+02
2.000000e+02
0.000000e+00
1.250000e+01
2.500000e+01
3.750000e+01
5.000000e+01
6.250000e+01
7.500000e+01
8.750000e+01
1.000000e+02
1.125000e+02
1.250000e+02
1.375000e+02
1.500000e+02
1.625000e+02
1.750000e+02
1.875000e+02
2.000000e+02
0.000000e+00
1.250000e+01
2.500000e+01
3.750000e+01
5.000000e+01
6.250000e+01
7.500000e+01
8.750000e+01
1.000000e+02
1.125000e+02
1.250000e+02
1.375000e+02
1.500000e+02
1.625000e+02
1.750000e+02
1.875000e+02
2.000000e+02
0.000000e+00
1.250000e+01
2.500000e+01
3.750000e+01
5.000000e+01
6.250000e+01
7.500000e+01
8.750000e+01
1.000000e+02
1.125000e+02
1.250000e+02
1.375000e+02
1.500000e+02
1.625000e+02
1.750000e+02
1.875000e+02
2.000000e+02
0.000000e+00
1.250000e+01
2.500000e+01
3.750000e+01
5.000000e+01
6.250000e+01
7.500000e+01
8.750000e+01
1.000000e+02
1.125000e+02
1.250000e+02
1.375000e+02
1.500000e+02
1.625000e+02
1.750000e+02
1.875000e+02
2.000000e+02
0.000000e+00
1.250000e+01
2.500000e+01
3.750000e+01
5.000000e+01
6.250000e+01
7.500000e+01
8.750000e+01
1.000000e+02
1.125000e+02
1.250000e+02
1.375000e+02
1.500000e+02
1.625000e+02
1.750000e+02
1.875000e+02
2.000000e+02
0.000000e+00
0.000000e+00
0.000000e+00
0.000000e+00
0.000000e+00
0.000000e+00
0.000000e+00
0.000000e+00
0.000000e+00
0.000000e+00
0.000000e+00
0.000000e+00
0.000000e+00
0.000000e+00
0.000000e+00
0.000000e+00
0.000000e+00
1.250000e+01
1.250000e+01
1.250000e+01
1.250000e+01
1.250000e+01
1.250000e+01
1.250000e+01
1.250000e+01
1.250000e+01
1.250000e+01
1.250000e+01
1.250000e+01
1.250000e+01
1.250000e+01
1.250000e+01
1.250000e+01
1.250000e+01
2.500000e+01
2.500000e+01
2.500000e+01
2.500000e+01
2.500000e+01
2.500000e+01
2.500000e+01
2.500000e+01
2.500000e+01
2.500000e+01
2.500000e+01
2.500000e+01
2.500000e+01
2.500000e+01
2.500000e+01
2.500000e+01
2.500000e+01
3.750000e+01
3.750000e+01
3.750000e+01
3.750000e+01
3.750000e+01
3.750000e+01
3.750000e+01
3.750000e+01
3.750000e+01
3.750000e+01
3.750000e+01
3.750000e+01
3.750000e+01
3.750000e+01
3.750000e+01
3.750000e+01
3.750000e+01
5.000000e+01
5.000000e+01
5.000000e+01
5.000000e+01
5.000000e+01
5.000000e+01
5.000000e+01
5.000000e+01
5.000000e+01
5.000000e+01
5.000000e+01
5.000000e+01
5.000000e+01
5.000000e+01
5.000000e+01
5.000000e+01
5.000000e+01
6.250000e+01
6.250000e+01
6.250000e+01
6.250000e+01
6.250000e+01
6.250000e+01
6.250000e+01
6.250000e+01
6.250000e+01
6.250000e+01
6.250000e+01
6.250000e+01
6.250000e+01
6.250000e+01
6.250000e+01
6.250000e+01
6.250000e+01
7.500000e+01
7.500000e+01
7.500000e+01
7.500000e+01
7.500000e+01
7.500000e+01
7.500000e+01
7.500000e+01
7.500000e+01
7.500000e+01
7.500000e+01
7.500000e+01
7.500000e+01
7.500000e+01
7.500000e+01
7.500000e+01
7.500000e+01
8.750000e+01
8.750000e+01
8.750000e+01
8.750000e+01
8.750000e+01
8.750000e+01
8.750000e+01
8.750000e+01
8.750000e+01
8.750000e+01
8.750000e+01
8.750000e+01
8.750000e+01
8.750000e+01
8.750000e+01
8.750000e+01
8.750000e+01
1.000000e+02
1.000000e+02
1.000000e+02
1.000000e+02
1.000000e+02
1.000000e+02
1.000000e+02
1.000000e+02
1.000000e+02
1.000000e+02
1.000000e+02
1.000000e+02
1.000000e+02
1.000000e+02
1.000000e+02
1.000000e+02
1.000000e+02
0.000000e+00
-1.022669e+00
-1.683816e+00
-2.414470e+00
-3.113098e+00
-3.751034e+00
-4.406726e+00
-4.996271e+00
-5.659908e+00
-6.377770e+00
-7.059457e+00
-7.747792e+00
-8.480131e+00
-9.234886e+00
-9.960625e+00
-1.063883e+01
-1.108839e+01
0.000000e+00
-4.664598e-01
-9.199776e-01
-1.419369e+00
-1.948056e+00
-2.439604e+00
-2.942617e+00
-3.425441e+00
-3.934418e+00
-4.475931e+00
-4.973793e+00
-5.468486e+00
-5.980777e+00
-6.460775e+00
-6.782330e+00
-6.857125e+00
-7.019854e+00
0.000000e+00
-1.561990e-01
-3.644438e-01
-6.590861e-01
-1.013429e+00
-1.351258e+00
-1.719591e+00
-2.090043e+00
-2.444259e+00
-2.787629e+00
-3.100062e+00
-3.404791e+00
-3.681504e+00
-3.875129e+00
-3.924834e+00
-3.902238e+00
-4.061895e+00
0.000000e+00
-7.919414e-02
-1.648885e-01
-3.195409e-01
-4.681494e-01
-6.434169e-01
-8.276995e-01
-9.895214e-01
-1.146401e+00
-1.284436e+00
-1.423976e+00
-1.544475e+00
-1.612280e+00
-1.606025e+00
-1.548286e+00
-1.551049e+00
-1.683854e+00
0.000000e+00
-1.323435e-03
-3.290727e-03
-5.275850e-03
-6.141129e-03
-4.199155e-03
2.271301e-03
1.478665e-02
3.560275e-02
6.653716e-02
1.117076e-01
1.786125e-01
2.734508e-01
3.909720e-01
4.895352e-01
4.990845e-01
3.985861e-01
0.000000e+00
7.721748e-02
1.610352e-01
3.133140e-01
4.606177e-01
6.372568e-01
8.283817e-01
1.008260e+00
1.197576e+00
1.388683e+00
1.611705e+00
1.850823e+00
2.074127e+00
2.262885e+00
2.391564e+00
2.421055e+00
2.361759e+00
0.000000e+00
1.558096e-01
3.639373e-01
6.581265e-01
1.011730e+00
1.348334e+00
1.716639e+00
2.090685e+00
2.455361e+00
2.822749e+00
3.180574e+00
3.547073e+00
3.878865e+00
4.136168e+00
4.300981e+00
4.359857e+00
4.343993e+00
0.000000e+00
4.674767e-01
9.214693e-01
1.420864e+00
1.950419e+00
2.441750e+00
2.942876e+00
3.423001e+00
3.923221e+00
4.448838e+00
4.932579e+00
5.397129e+00
5.816533e+00
6.136030e+00
6.337293e+00
6.426792e+00
6.443096e+00
0.000000e+00
1.025251e+00
1.687683e+00
2.420337e+00
3.122435e+00
3.764219e+00
4.420907e+00
5.010192e+00
5.660998e+00
6.344278e+00
6.973106e+00
7.559623e+00
8.066060e+00
8.422863e+00
8.610969e+00
8.662432e+00
8.662460e+00
0.000000e+00
-6.264654e-01
-1.359426e+00
-2.348398e+00
-3.512082e+00
-4.832855e+00
-6.317187e+00
-7.934638e+00
-9.713041e+00
-1.165621e+01
-1.376309e+01
-1.606599e+01
-1.856858e+01
-2.126016e+01
-2.418359e+01
-2.756400e+01
-3.251876e+01
0.000000e+00
-4.235248e-01
-1.196652e+00
-2.161476e+00
-3.338385e+00
-4.660449e+00
-6.149965e+00
-7.771742e+00
-9.531549e+00
-1.147682e+01
-1.358992e+01
-1.588931e+01
-1.838899e+01
-2.110352e+01
-2.406894e+01
-2.745934e+01
-3.157044e+01
0.000000e+00
-3.937565e-01
-1.092398e+00
-2.054836e+00
-3.213932e+00
-4.528579e+00
-6.023635e+00
-7.646651e+00
-9.416931e+00
-1.136308e+01
-1.348285e+01
-1.579208e+01
-1.830774e+01
-2.105864e+01
-2.405968e+01
-2.727195e+01
-3.029277e+01
0.000000e+00
-4.451392e-01
-1.077600e+00
-2.025440e+00
-3.145997e+00
-4.446540e+00
-5.944453e+00
-7.578554e+00
-9.372111e+00
-1.131625e+01
-1.344813e+01
-1.577987e+01
-1.831181e+01
-2.106041e+01
-2.399994e+01
-2.692868e+01
-2.948520e+01
0.000000e+00
-4.499832e-01
-1.096101e+00
-2.009499e+00
-3.131963e+00
-4.427572e+00
-5.919458e+00
-7.575810e+00
-9.376495e+00
-1.132976e+01
-1.347417e+01
-1.582470e+01
-1.835305e+01
-2.105053e+01
-2.386168e+01
-2.657948e+01
-2.889939e+01
0.000000e+00
-4.454091e-01
-1.079101e+00
-2.028828e+00
-3.152930e+00
-4.459178e+00
-5.966068e+00
-7.614345e+00
-9.423505e+00
-1.138410e+01
-1.353844e+01
-1.589130e+01
-1.840272e+01
-2.103374e+01
-2.372056e+01
-2.629030e+01
-2.850551e+01
0.000000e+00
-3.942618e-01
-1.095021e+00
-2.060471e+00
-3.225238e+00
-4.549701e+00
-6.059549e+00
-7.704632e+00
-9.501095e+00
-1.147691e+01
-1.363126e+01
-1.597341e+01
-1.846296e+01
-2.103859e+01
-2.362748e+01
-2.609906e+01
-2.830436e+01
0.000000e+00
-4.242290e-01
-1.199437e+00
-2.167486e+00
-3.350723e+00
-4.683382e+00
-6.189465e+00
-7.834893e+00
-9.625453e+00
-1.160755e+01
-1.375725e+01
-1.608314e+01
-1.854844e+01
-2.108144e+01
-2.360282e+01
-2.601244e+01
-2.825167e+01
0.000000e+00
-6.276267e-01
-1.362411e+00
-2.354991e+00
-3.525178e+00
-4.856412e+00
-6.357085e+00
-7.997051e+00
-9.803634e+00
-1.178145e+01
-1.392051e+01
-1.623031e+01
-1.866567e+01
-2.115462e+01
-2.362518e+01
-2.599615e+01
-2.825164e+01


0.000000e+00
1.363573e-05
2.417587e-05
3.709923e-05
5.124885e-05
6.498008e-05
7.969442e-05
9.372526e-05
1.086701e-04
1.220446e-04
1.321906e-04
1.407041e-04
1.474393e-04
1.515798e-04
1.543683e-04
1.579059e-04
1.625579e-04
0.000000e+00
9.488101e-06
1.916913e-05
2.891808e-05
4.045873e-05
5.137746e-05
6.267489e-05
7.423832e-05
8.560298e-05
9.473338e-05
1.009204e-04
1.060870e-04
1.095672e-04
1.098331e-04
1.091883e-04
1.122160e-04
1.175810e-04
0.000000e+00
7.710980e-06
1.495697e-05
2.171757e-05
3.009638e-05
3.767416e-05
4.543055e-05
5.324484e-05
5.966536e-05
6.408999e-05
6.703180e-05
6.930148e-05
7.031898e-05
6.974963e-05
6.957134e-05
7.251718e-05
7.766975e-05
0.000000e+00
4.353494e-06
7.105542e-06
1.136210e-05
1.516955e-05
1.887830e-05
2.276446e-05
2.614979e-05
2.881917e-05
3.044396e-05
3.141258e-05
3.172368e-05
3.161661e-05
3.178225e-05
3.282511e-05
3.538515e-05
3.920519e-05
0.000000e+00
-7.433629e-08
-1.566356e-07
-2.288589e-07
-3.005052e-07
-3.677568e-07
-4.401873e-07
-5.319873e-07
-7.193592e-07
-1.099711e-06
-1.825607e-06
-2.704691e-06
-3.313593e-06
-3.265655e-06
-2.448985e-06
-1.285649e-06
4.356863e-07
0.000000e+00
-4.529405e-06
-7.405223e-06
-1.179257e-05
-1.569637e-05
-1.950448e-05
-2.346899e-05
-2.695030e-05
-2.967769e-05
-3.145078e-05
-3.305719e-05
-3.454631e-05
-3.550790e-05
-3.594290e-05
-3.635540e-05
-3.672884e-05
-3.641079e-05
0.000000e+00
-7.854538e-06
-1.519777e-05
-2.202135e-05
-3.050624e-05
-3.818313e-05
-4.600530e-05
-5.382437e-05
-6.006344e-05
-6.400837e-05
-6.629506e-05
-6.788422e-05
-6.897071e-05
-6.980110e-05
-7.064237e-05
-7.136957e-05
-7.157179e-05
0.000000e+00
-9.571913e-06
-1.929407e-05
-2.904355e-05
-4.066507e-05
-5.168401e-05
-6.303683e-05
-7.465088e-05
-8.597862e-05
-9.476896e-05
-9.990050e-05
-1.030326e-04
-1.049114e-04
-1.060678e-04
-1.068296e-04
-1.072037e-04
-1.073005e-04
0.000000e+00
-1.369267e-05
-2.420808e-05
-3.707544e-05
-5.122481e-05
-6.499698e-05
-7.968739e-05
-9.375475e-05
-1.087317e-04
-1.220585e-04
-1.315971e-04
-1.379779e-04
-1.416853e-04
-1.433623e-04
-1.439041e-04
-1.438960e-04
-1.438317e-04
0.000000e+00
1.155020e-05
1.998515e-05
3.187242e-05
4.666491e-05
6.399690e-05
8.532338e-05
1.097773e-04
1.375758e-04
1.675835e-04
2.003776e-04
2.363781e-04
2.740313e-04
3.135769e-04
3.597468e-04
4.138805e-04
4.688453e-04
0.000000e+00
6.654414e-06
1.540443e-05
2.594835e-05
4.055023e-05
5.776887e-05
7.888482e-05
1.033974e-04
1.313570e-04
1.627471e-04
1.967314e-04
2.334340e-04
2.723091e-04
3.129253e-04
3.565984e-04
4.072853e-04
4.604481e-04
0.000000e+00
3.068431e-06
1.095523e-05
2.097575e-05
3.505659e-05
5.257866e-05
7.350953e-05
9.848423e-05
1.273939e-04
1.598245e-04
1.946499e-04
2.319224e-04
2.716148e-04
3.125237e-04
3.526760e-04
3.987177e-04
4.492018e-04
0.000000e+00
1.877712e-06
8.476550e-06
1.860979e-05
3.265726e-05
5.037993e-05
7.151953e-05
9.686866e-05
1.263448e-04
1.589735e-04
1.940895e-04
2.315832e-04
2.713436e-04
3.119131e-04
3.501720e-04
3.916763e-04
4.379417e-04
0.000000e+00
1.508122e-06
7.842756e-06
1.780975e-05
3.199422e-05
4.969225e-05
7.099127e-05
9.654339e-05
1.261779e-04
1.588252e-04
1.940723e-04
2.317333e-04
2.712351e-04
3.116130e-04
3.499336e-04
3.886162e-04
4.299919e-04
0.000000e+00
1.909144e-06
8.507365e-06
1.858487e-05
3.255384e-05
5.022158e-05
7.133263e-05
9.676279e-05
1.264205e-04
1.592006e-04
1.946840e-04
2.325074e-04
2.718122e-04
3.116080e-04
3.505234e-04
3.883168e-04
4.258719e-04
0.000000e+00
3.119337e-06
1.100509e-05
2.092367e-05
3.488638e-05
5.230196e-05
7.317405e-05
9.823617e-05
1.273896e-04
1.602149e-04
1.958162e-04
2.337127e-04
2.727616e-04
3.119498e-04
3.505722e-04
3.880975e-04
4.244701e-04
0.000000e+00
6.733716e-06
1.547057e-05
2.592160e-05
4.041567e-05
5.751952e-05
7.854787e-05
1.031000e-04
1.312739e-04
1.630480e-04
1.977034e-04
2.350197e-04
2.735644e-04
3.122520e-04
3.505016e-04
3.878561e-04
4.243618e-04
0.000000e+00
1.165075e-05
2.005183e-05
3.186705e-05
4.658672e-05
6.380372e-05
8.503664e-05
1.095241e-04
1.374723e-04
1.676607e-04
2.005993e-04
2.366584e-04
2.743430e-04
3.125032e-04
3.505092e-04
3.877695e-04
4.244208e-04


6.398468e+00
6.067382e+00
6.196822e+00
5.204139e+00
4.646297e+00
4.954584e+00
4.848928e+00
4.732473e+00
4.519804e+00
4.685529e+00
5.538905e+00
6.667381e+00
7.369220e+00
6.980077e+00
5.646924e+00
4.665455e+00
7.893949e+00
8.122286e+00
8.133457e+00
7.693276e+00
7.302919e+00
7.430564e+00
7.059230e+00
6.112870e+00
5.481381e+00
5.508899e+00
6.312979e+00
7.263902e+00
7.707822e+00
7.005266e+00
5.461186e+00
4.286934e+00
9.269358e+00
9.440736e+00
9.711161e+00
9.383722e+00
9.207336e+00
9.285961e+00
8.858826e+00
7.970663e+00
7.181451e+00
7.147081e+00
7.541093e+00
7.887936e+00
7.917486e+00
7.145139e+00
5.657280e+00
4.624494e+00
9.572254e+00
9.733428e+00
9.865180e+00
9.681483e+00
9.466399e+00
9.521077e+00
9.570309e+00
9.199550e+00
8.746695e+00
8.522981e+00
8.246780e+00
7.797517e+00
7.535696e+00
7.184463e+00
6.414803e+00
5.769452e+00
9.603062e+00
9.738359e+00
9.826858e+00
9.611375e+00
9.369929e+00
9.481148e+00
9.571328e+00
9.232871e+00
8.785529e+00
8.542961e+00
8.076018e+00
7.342354e+00
7.057540e+00
7.285798e+00
7.360085e+00
7.229885e+00
9.314739e+00
9.446983e+00
9.660355e+00
9.263073e+00
9.063164e+00
9.157553e+00
8.807041e+00
7.972965e+00
7.265051e+00
7.264878e+00
7.392261e+00
7.188310e+00
7.185314e+00
7.735099e+00
8.314520e+00
8.538203e+00
7.933063e+00
8.144692e+00
8.119224e+00
7.660201e+00
7.221693e+00
7.310610e+00
6.934052e+00
6.057645e+00
5.544460e+00
5.774895e+00
6.624912e+00
7.304171e+00
7.783214e+00
8.437298e+00
9.077270e+00
9.368483e+00
6.438834e+00
6.087330e+00
6.218830e+00
5.232480e+00
4.648081e+00
4.860461e+00
4.739740e+00
4.671482e+00
4.574436e+00
5.019592e+00
6.206705e+00
7.426040e+00
8.270090e+00
8.947108e+00
9.487817e+00
9.722956e+00


-9.363315e-01
-1.098967e-01
-3.238948e-01
-3.212306e-01
-1.251890e-01
-1.812635e-01
-2.140331e-02
-2.171410e-01
-4.000324e-01
-2.323130e-01
-2.386697e-01
-3.608539e-01
-3.197154e-01
5.865766e-02
4.941029e-01
-7.296374e-01
5.798338e-01
4.894454e-01
3.139268e-01
1.723530e-01
2.527418e-01
1.644748e-01
1.851119e-01
1.651004e-01
1.328278e-01
2.605714e-01
2.789583e-01
3.079593e-01
4.892345e-01
7.794718e-01
7.253409e-01
-1.389978e+00
7.259533e-01
4.959339e-01
1.060830e-01
3.544977e-02
5.421896e-02
-1.548212e-02
1.372629e-01
2.539011e-01
3.468745e-01
3.844053e-01
3.785384e-01
4.183788e-01
4.494336e-01
3.488555e-01
9.162110e-02
-4.108385e-01
7.363456e-01
5.755065e-01
2.375938e-01
1.495200e-01
1.108425e-01
7.913431e-02
1.615770e-01
2.182660e-01
2.702930e-01
2.443358e-01
2.096254e-01
1.790558e-01
4.206691e-02
-1.794160e-01
-1.369935e-01
3.956810e-02
7.372066e-01
5.781624e-01
2.448238e-01
1.560879e-01
1.098215e-01
5.786282e-02
1.125454e-01
1.415634e-01
1.628502e-01
8.931479e-02
6.206413e-03
-4.018649e-02
-1.377243e-01
-2.168429e-01
1.487146e-02
4.403481e-01
7.273930e-01
4.983310e-01
1.120237e-01
3.843879e-02
4.470551e-02
-5.297340e-02
5.240140e-02
1.132614e-01
1.288663e-01
4.433742e-02
-1.083865e-01
-1.335621e-01
-6.885479e-02
5.721359e-02
3.731196e-01
7.743219e-01
5.792679e-01
4.886324e-01
3.135253e-01
1.690409e-01
2.483385e-01
1.531705e-01
1.560132e-01
1.106094e-01
2.103825e-02
5.023606e-02
-3.673515e-02
-1.024864e-02
1.882027e-01
4.431264e-01
7.355353e-01
9.538814e-01
-9.453565e-01
-1.133948e-01
-3.282662e-01
-3.307384e-01
-1.328796e-01
-1.812699e-01
-1.870945e-02
-1.805699e-01
-3.095179e-01
-1.278386e-01
-3.277652e-02
1.655805e-01
5.135177e-01
7.987702e-01
9.551082e-01
9.989160e-01
1 2 19 18
2 3 20 19
3 4 21 20
4 5 22 21
5 6 23 22
6 7 24 23
7 8 25 24
8 9 26 25
9 10 27 26
10 11 28 27
11 12 29 28
12 13 30 29
13 14 31 30
14 15 32 31
15 16 33 32
16 17 34 33
18 19 36 35
19 20 37 36
20 21 38 37
21 22 39 38
22 23 40 39
23 24 41 40
24 25 42 41
25 26 43 42
26 27 44 43
27 28 45 44
28 29 46 45
29 30 47 46
30 31 48 47
31 32 49 48
32 33 50 49
33 34 51 50
35 36 53 52
36 37 54 53
37 38 55 54
38 39 56 55
39 40 57 56
40 41 58 57
41 42 59 58
42 43 60 59
43 44 61 60
44 45 62 61
45 46 63 62
46 47 64 63
47 48 65 64
48 49 66 65
49 50 67 66
50 51 68 67
52 53 70 69
53 54 71 70
54 55 72 71
55 56 73 72
56 57 74 73
57 58 75 74
58 59 76 75
59 60 77 76
60 61 78 77
61 62 79 78
62 63 80 79
63 64 81 80
64 65 82 81
65 66 83 82
66 67 84 83
67 68 85 84
69 70 87 86
70 71 88 87
71 72 89 88
72 73 90 89
73 74 91 90
74 75 92 91
75 76 93 92
76 77 94 93
77 78 95 94
78 79 96 95
79 80 97 96
80 81 98 97
81 82 99 98
82 83 100 99
83 84 101 100
84 85 102 101
86 87 104 103
87 88 105 104
88 89 106 105
89 90 107 106
90 91 108 107
91 92 109 108
92 93 110 109
93 94 111 110
94 95 112 111
95 96 113 112
96 97 114 113
97 98 115 114
98 99 116 115
99 100 117 116
100 101 118 117
101 102 119 118
103 104 121 120
104 105 122 121
105 106 123 122
106 107 124 123
107 108 125 124
108 109 126 125
109 110 127 126
110 111 128 127
111 112 129 128
112 113 130 129
113 114 131 130
114 115 132 131
115 116 133 132
116 117 134 133
117 118 135 134
118 119 136 135
120 121 138 137
121 122 139 138
122 123 140 139
123 124 141 140
124 125 142 141
125 126 143 142
126 127 144 143
127 128 145 144
128 129 146 145
129 130 147 146
130 131 148 147
131 132 149 148
132 133 150 149
133 134 151 150
134 135 152 151
135 136 153 152
