TITLE = "Solution"
VARIABLES = x, y, u, v, psiu, psiv, t, stress
ZONE T="structure" N=153 E=128 F=FEBLOCK ET=QUADRILATERAL VARLOCATION=([7,8]=cellcentered)
0.000000e+00
1.250000e+01
2.500000e+01
3.750000e+01
5.000000e+01
6.250000e+01
7.500000e+01
8.750000e+01
1.000000e+02
1.125000e+02
1.250000e+02
1.375000e+02
1.500000e+02
1.625000e+02
1.750000e+02
1.875000e+02
2.000000e+02
0.000000e+00
1.250000e+01
2.500000e+01
3.750000e+01
5.000000e+01
6.250000e+01
7.500000e+01
8.750000e+01
1.000000e+02
1.125000e+02
1.250000e+02
1.375000e+02
1.500000e+02
1.625000e+02
1.750000e+02
1.875000e+02
2.000000e+02
0.000000e+00
1.250000e+01
2.500000e+01
3.750000e+01
5.000000e+01
6.250000e+01
7.500000e+01
8.750000e+01
1.000000e+02
1.125000e+02
1.250000e+02
1.375000e+02
1.500000e+02
1.625000e+02
1.750000e+02
1.875000e+02
2.000000e+02
0.000000e+00
1.250000e+01
2.500000e+01
3.750000e+01
5.000000e+01
6.250000e+01
7.500000e+01
8.750000e+01
1.000000e+02
1.125000e+02
1.250000e+02
1.375000e+02
1.500000e+02
1.625000e+02
1.750000e+02
1.875000e+02
2.000000e+02
0.000000e+00
1.250000e+01
2.500000e+01
3.750000e+01
5.000000e+01
6.250000e+01
7.500000e+01
8.750000e+01
1.000000e+02
1.125000e+02
1.250000e+02
1.375000e+02
1.500000e+02
1.625000e+02
1.750000e+02
1.875000e+02
2.000000e+02
0.000000e+00
1.250000e+01
2.500000e+01
3.750000e+01
5.000000e+01
6.250000e+01
7.500000e+01
8.750000e+01
1.000000e+02
1.125000e+02
1.250000e+02
1.375000e+02
1.500000e+02
1.625000e+02
1.750000e+02
1.875000e+02
2.000000e+02
0.000000e+00
1.250000e+01
2.500000e+01
3.750000e+01
5.000000e+01
6.250000e+01
7.500000e+01
8.750000e+01
1.000000e+02
1.125000e+02
1.250000e+02
1.375000e+02
1.500000e+02
1.625000e+02
1.750000e+02
1.875000e+02
2.000000e+02
0.000000e+00
1.250000e+01
2.500000e+01
3.750000e+01
5.000000e+01
6.250000e+01
7.500000e+01
8.750000e+01
1.000000e+02
1.125000e+02
1.250000e+02
1.375000e+02
1.500000e+02
1.625000e+02
1.750000e+02
1.875000e+02
2.000000e+02
0.000000e+00
1.250000e+01
2.500000e+01
3.750000e+01
5.000000e+01
6.250000e+01
7.500000e+01
8.750000e+01
1.000000e+02
1.125000e+02
1.250000e+02
1.375000e+02
1.500000e+02
1.625000e+02
1.750000e+02
1.875000e+02
2.000000e+02
0.000000e+00
0.000000e+00
0.000000e+00
0.000000e+00
0.000000e+00
0.000000e+00
0.000000e+00
0.000000e+00
0.000000e+00
0.000000e+00
0.000000e+00
0.000000e+00
0.000000e+00
0.000000e+00
0.000000e+00
0.000000e+00
0.000000e+00
1.250000e+01
1.250000e+01
1.250000e+01
1.250000e+01
1.250000e+01
1.250000e+01
1.250000e+01
1.250000e+01
1.250000e+01
1.250000e+01
1.250000e+01
1.250000e+01
1.250000e+01
1.250000e+01
1.250000e+01
1.250000e+01
1.250000e+01
2.500000e+01
2.500000e+01
2.500000e+01
2.500000e+01
2.500000e+01
2.500000e+01
2.500000e+01
2.500000e+01
2.500000e+01
2.500000e+01
2.500000e+01
2.500000e+01
2.500000e+01
2.500000e+01
2.500000e+01
2.500000e+01
2.500000e+01
3.750000e+01
3.750000e+01
3.750000e+01
3.750000e+01
3.750000e+01
3.750000e+01
3.750000e+01
3.750000e+01
3.750000e+01
3.750000e+01
3.750000e+01
3.750000e+01
3.750000e+01
3.750000e+01
3.750000e+01
3.750000e+01
3.750000e+01
5.000000e+01
5.000000e+01
5.000000e+01
5.000000e+01
5.000000e+01
5.000000e+01
5.000000e+01
5.000000e+01
5.000000e+01
5.000000e+01
5.000000e+01
5.000000e+01
5.000000e+01
5.000000e+01
5.000000e+01
5.000000e+01
5.000000e+01
6.250000e+01
6.250000e+01
6.250000e+01
6.250000e+01
6.250000e+01
6.250000e+01
6.250000e+01
6.250000e+01
6.250000e+01
6.250000e+01
6.250000e+01
6.250000e+01
6.250000e+01
6.250000e+01
6.250000e+01
6.250000e+01
6.250000e+01
7.500000e+01
7.500000e+01
7.500000e+01
7.500000e+01
7.500000e+01
7.500000e+01
7.500000e+01
7.500000e+01
7.500000e+01
7.500000e+01
7.500000e+01
7.500000e+01
7.500000e+01
7.500000e+01
7.500000e+01
7.500000e+01
7.500000e+01
8.750000e+01
8.750000e+01
8.750000e+01
8.750000e+01
8.750000e+01
8.750000e+01
8.750000e+01
8.750000e+01
8.750000e+01
8.750000e+01
8.750000e+01
8.750000e+01
8.750000e+01
8.750000e+01
8.750000e+01
8.750000e+01
8.750000e+01
1.000000e+02
1.000000e+02
1.000000e+02
1.000000e+02
1.000000e+02
1.000000e+02
1.000000e+02
1.000000e+02
1.000000e+02
1.000000e+02
1.000000e+02
1.000000e+02
1.000000e+02
1.000000e+02
1.000000e+02
1.000000e+02
1.000000e+02
0.000000e+00
-1.027488e+00
-1.691646e+00
-2.418654e+00
-3.109100e+00
-3.755300e+00
-4.424769e+00
-5.006079e+00
-5.657419e+00
-6.374163e+00
-7.056824e+00
-7.741797e+00
-8.459447e+00
-9.198428e+00
-1.001576e+01
-1.072197e+01
-1.116353e+01
0.000000e+00
-4.686072e-01
-9.246933e-01
-1.421366e+00
-1.942874e+00
-2.439967e+00
-2.952945e+00
-3.431291e+00
-3.932535e+00
-4.475837e+00
-4.975700e+00
-5.468997e+00
-5.972218e+00
-6.453037e+00
-6.831028e+00
-6.935532e+00
-7.104804e+00
0.000000e+00
-1.563522e-01
-3.648866e-01
-6.579354e-01
-1.009618e+00
-1.350071e+00
-1.722096e+00
-2.091742e+00
-2.446998e+00
-2.794362e+00
-3.107639e+00
-3.413133e+00
-3.691900e+00
-3.891518e+00
-3.956784e+00
-3.936237e+00
-4.085692e+00
0.000000e+00
-7.901943e-02
-1.646242e-01
-3.195047e-01
-4.680746e-01
-6.442735e-01
-8.299858e-01
-9.939343e-01
-1.154992e+00
-1.294002e+00
-1.432611e+00
-1.554544e+00
-1.629132e+00
-1.630522e+00
-1.565528e+00
-1.557421e+00
-1.694914e+00
0.000000e+00
-2.015631e-03
-4.277837e-03
-6.341075e-03
-7.476175e-03
-6.256642e-03
-6.990041e-04
1.139688e-02
3.188478e-02
6.228393e-02
1.061204e-01
1.712078e-01
2.643303e-01
3.796692e-01
4.714716e-01
4.795324e-01
3.765504e-01
0.000000e+00
7.568075e-02
1.584270e-01
3.100932e-01
4.566990e-01
6.337928e-01
8.258831e-01
1.006571e+00
1.198896e+00
1.388916e+00
1.607217e+00
1.842715e+00
2.069154e+00
2.262692e+00
2.391758e+00
2.417368e+00
2.356347e+00
0.000000e+00
1.548916e-01
3.623992e-01
6.542795e-01
1.004337e+00
1.342972e+00
1.714159e+00
2.086021e+00
2.450782e+00
2.822400e+00
3.178498e+00
3.540723e+00
3.874139e+00
4.138003e+00
4.307329e+00
4.367588e+00
4.351856e+00
0.000000e+00
4.685223e-01
9.245607e-01
1.420637e+00
1.941402e+00
2.437186e+00
2.947291e+00
3.421525e+00
3.914312e+00
4.445778e+00
4.934098e+00
5.397677e+00
5.816777e+00
6.140047e+00
6.345097e+00
6.436536e+00
6.453315e+00
0.000000e+00
1.028658e+00
1.693929e+00
2.422048e+00
3.113981e+00
3.762359e+00
4.431960e+00
5.011040e+00
5.651160e+00
6.340001e+00
6.975862e+00
7.564782e+00
8.073258e+00
8.433165e+00
8.622227e+00
8.673535e+00
8.673621e+00
0.000000e+00
-6.293519e-01
-1.365132e+00
-2.354473e+00
-3.519314e+00
-4.846306e+00
-6.337121e+00
-7.956627e+00
-9.736227e+00
-1.168080e+01
-1.378549e+01
-1.608427e+01
-1.858015e+01
-2.127451e+01
-2.420968e+01
-2.757657e+01
-3.253441e+01
0.000000e+00
-4.252236e-01
-1.202269e+00
-2.169663e+00
-3.345657e+00
-4.670507e+00
-6.169117e+00
-7.796465e+00
-9.556309e+00
-1.150113e+01
-1.361202e+01
-1.590935e+01
-1.840418e+01
-2.110567e+01
-2.408103e+01
-2.748685e+01
-3.154170e+01
0.000000e+00
-3.952594e-01
-1.098147e+00
-2.064072e+00
-3.220672e+00
-4.537318e+00
-6.042271e+00
-7.670747e+00
-9.442017e+00
-1.138742e+01
-1.350381e+01
-1.581093e+01
-1.832171e+01
-2.105273e+01
-2.406945e+01
-2.732291e+01
-3.037674e+01
0.000000e+00
-4.471944e-01
-1.083285e+00
-2.034298e+00
-3.152980e+00
-4.455754e+00
-5.961517e+00
-7.599362e+00
-9.396889e+00
-1.134076e+01
-1.346682e+01
-1.579316e+01
-1.832390e+01
-2.106190e+01
-2.401256e+01
-2.698506e+01
-2.956506e+01
0.000000e+00
-4.519083e-01
-1.101839e+00
-2.017569e+00
-3.139336e+00
-4.437372e+00
-5.934657e+00
-7.594518e+00
-9.399221e+00
-1.135345e+01
-1.349008e+01
-1.583320e+01
-1.836471e+01
-2.106766e+01
-2.387688e+01
-2.661106e+01
-2.894066e+01
0.000000e+00
-4.469364e-01
-1.084330e+00
-2.037660e+00
-3.159804e+00
-4.467960e+00
-5.982184e+00
-7.632092e+00
-9.443853e+00
-1.140468e+01
-1.355319e+01
-1.589968e+01
-1.841635e+01
-2.105812e+01
-2.374805e+01
-2.631972e+01
-2.854528e+01
0.000000e+00
-3.952941e-01
-1.100216e+00
-2.069592e+00
-3.231653e+00
-4.557329e+00
-6.076064e+00
-7.723971e+00
-9.519096e+00
-1.149454e+01
-1.364583e+01
-1.598454e+01
-1.847898e+01
-2.106563e+01
-2.366041e+01
-2.613362e+01
-2.834463e+01
0.000000e+00
-4.254112e-01
-1.204432e+00
-2.175332e+00
-3.357269e+00
-4.691842e+00
-6.205714e+00
-7.854347e+00
-9.642444e+00
-1.162427e+01
-1.377226e+01
-1.609672e+01
-1.856655e+01
-2.110929e+01
-2.363725e+01
-2.604913e+01
-2.829027e+01
0.000000e+00
-6.298150e-01
-1.367425e+00
-2.360295e+00
-3.531180e+00
-4.867861e+00
-6.373646e+00
-8.013440e+00
-9.819906e+00
-1.179960e+01
-1.393668e+01
-1.624495e+01
-1.868496e+01
-2.118305e+01
-2.365997e+01
-2.603325e+01
-2.828999e+01


0.000000e+00
1.369075e-05
2.417311e-05
3.721921e-05
5.151519e-05
6.525460e-05
7.977712e-05
9.353070e-05
1.089516e-04
1.237989e-04
1.353080e-04
1.447158e-04
1.519263e-04
1.564280e-04
1.596588e-04
1.634413e-04
1.684896e-04
0.000000e+00
9.526735e-06
1.914183e-05
2.900780e-05
4.078098e-05
5.166777e-05
6.260361e-05
7.395093e-05
8.595848e-05
9.652733e-05
1.037714e-04
1.094033e-04
1.130022e-04
1.133740e-04
1.128809e-04
1.167110e-04
1.223412e-04
0.000000e+00
7.763145e-06
1.494640e-05
2.177652e-05
3.035334e-05
3.786828e-05
4.539958e-05
5.330149e-05
6.035091e-05
6.559899e-05
6.907757e-05
7.158196e-05
7.263689e-05
7.199936e-05
7.181795e-05
7.504926e-05
8.022605e-05
0.000000e+00
4.434695e-06
7.122549e-06
1.138204e-05
1.518566e-05
1.891305e-05
2.292028e-05
2.647937e-05
2.942990e-05
3.132174e-05
3.248315e-05
3.286070e-05
3.266932e-05
3.275320e-05
3.374187e-05
3.660550e-05
4.098924e-05
0.000000e+00
-5.829491e-08
-1.298720e-07
-2.008317e-07
-2.722980e-07
-3.346477e-07
-3.850488e-07
-4.242709e-07
-5.274148e-07
-8.401336e-07
-1.545634e-06
-2.542356e-06
-3.388807e-06
-3.445684e-06
-2.483762e-06
-1.004288e-06
1.077649e-06
0.000000e+00
-4.541476e-06
-7.329587e-06
-1.171967e-05
-1.562493e-05
-1.944744e-05
-2.351607e-05
-2.709599e-05
-3.000385e-05
-3.191179e-05
-3.355299e-05
-3.510306e-05
-3.630064e-05
-3.693606e-05
-3.740488e-05
-3.775318e-05
-3.737689e-05
0.000000e+00
-7.819210e-06
-1.505376e-05
-2.194471e-05
-3.061072e-05
-3.820991e-05
-4.581813e-05
-5.372477e-05
-6.059218e-05
-6.535917e-05
-6.798910e-05
-6.949169e-05
-7.058030e-05
-7.159457e-05
-7.262555e-05
-7.350478e-05
-7.374522e-05
0.000000e+00
-9.541240e-06
-1.915760e-05
-2.901147e-05
-4.081942e-05
-5.175747e-05
-6.272081e-05
-7.409635e-05
-8.611940e-05
-9.654524e-05
-1.027264e-04
-1.060232e-04
-1.078076e-04
-1.090529e-04
-1.099184e-04
-1.103596e-04
-1.104826e-04
0.000000e+00
-1.369155e-05
-2.412929e-05
-3.709642e-05
-5.132826e-05
-6.502109e-05
-7.944471e-05
-9.314808e-05
-1.086217e-04
-1.236715e-04
-1.348267e-04
-1.420073e-04
-1.459977e-04
-1.476848e-04
-1.481400e-04
-1.480778e-04
-1.479999e-04
0.000000e+00
1.157684e-05
2.000571e-05
3.199149e-05
4.679488e-05
6.401965e-05
8.532012e-05
1.099802e-04
1.384211e-04
1.691871e-04
2.024572e-04
2.390889e-04
2.777574e-04
3.188058e-04
3.673537e-04
4.237703e-04
4.798991e-04
0.000000e+00
6.700096e-06
1.541573e-05
2.596663e-05
4.062033e-05
5.786779e-05
7.904184e-05
1.035718e-04
1.316853e-04
1.636216e-04
1.983147e-04
2.358927e-04
2.759123e-04
3.179690e-04
3.635916e-04
4.166947e-04
4.710174e-04
0.000000e+00
3.143809e-06
1.097171e-05
2.089420e-05
3.502169e-05
5.274799e-05
7.378668e-05
9.856151e-05
1.273494e-04
1.602371e-04
1.958947e-04
2.341668e-04
2.751315e-04
3.174829e-04
3.590561e-04
4.079168e-04
4.604879e-04
0.000000e+00
1.975186e-06
8.555479e-06
1.852878e-05
3.252021e-05
5.043708e-05
7.174604e-05
9.692210e-05
1.262944e-04
1.593402e-04
1.951659e-04
2.335587e-04
2.748134e-04
3.169201e-04
3.563193e-04
3.999291e-04
4.485713e-04
0.000000e+00
1.598057e-06
7.950298e-06
1.776462e-05
3.183399e-05
4.966701e-05
7.115486e-05
9.658846e-05
1.261609e-04
1.592155e-04
1.950219e-04
2.335002e-04
2.746915e-04
3.168684e-04
3.561657e-04
3.960717e-04
4.393398e-04
0.000000e+00
2.003968e-06
8.577692e-06
1.852024e-05
3.245024e-05
5.030270e-05
7.156116e-05
9.675207e-05
1.262545e-04
1.594552e-04
1.955953e-04
2.343303e-04
2.753987e-04
3.170148e-04
3.569695e-04
3.957391e-04
4.347097e-04
0.000000e+00
3.185075e-06
1.101029e-05
2.087484e-05
3.490881e-05
5.251236e-05
7.343941e-05
9.817750e-05
1.270869e-04
1.603901e-04
1.968252e-04
2.357808e-04
2.764946e-04
3.174012e-04
3.571571e-04
3.956580e-04
4.331268e-04
0.000000e+00
6.749617e-06
1.546311e-05
2.596262e-05
4.052608e-05
5.764090e-05
7.867266e-05
1.031109e-04
1.313192e-04
1.636599e-04
1.990420e-04
2.372865e-04
2.773125e-04
3.176581e-04
3.571309e-04
3.955074e-04
4.329893e-04
0.000000e+00
1.162867e-05
2.004599e-05
3.199096e-05
4.672488e-05
6.381881e-05
8.497575e-05
1.095537e-04
1.381038e-04
1.691146e-04
2.024603e-04
2.390806e-04
2.780923e-04
3.178547e-04
3.571472e-04
3.954352e-04
4.330580e-04


6.355726e+00
6.065422e+00
6.259913e+00
5.279591e+00
4.769863e+00
5.124439e+00
4.938161e+00
4.762460e+00
4.552316e+00
4.708705e+00
5.537410e+00
6.582968e+00
7.406234e+00
8.180633e+00
8.207770e+00
7.810295e+00
7.891868e+00
8.145961e+00
8.175903e+00
7.761979e+00
7.381533e+00
7.522047e+00
7.159829e+00
6.198163e+00
5.528560e+00
5.496575e+00
6.265823e+00
7.154518e+00
7.678554e+00
7.819938e+00
7.319511e+00
6.202416e+00
9.326245e+00
9.494143e+00
9.764294e+00
9.431496e+00
9.268976e+00
9.362092e+00
8.967864e+00
8.076211e+00
7.185001e+00
7.029383e+00
7.420506e+00
7.782437e+00
7.798097e+00
7.466626e+00
6.526879e+00
5.728670e+00
9.609912e+00
9.810502e+00
9.913126e+00
9.712769e+00
9.514785e+00
9.593281e+00
9.641725e+00
9.246270e+00
8.668109e+00
8.327202e+00
8.111839e+00
7.788050e+00
7.450167e+00
7.041087e+00
6.561550e+00
6.102572e+00
9.605764e+00
9.804370e+00
9.892296e+00
9.659718e+00
9.439232e+00
9.523823e+00
9.602799e+00
9.249448e+00
8.727167e+00
8.379447e+00
7.994194e+00
7.446429e+00
7.122640e+00
7.093624e+00
7.044809e+00
6.974158e+00
9.315951e+00
9.483428e+00
9.720514e+00
9.320429e+00
9.103047e+00
9.197104e+00
8.852696e+00
8.056191e+00
7.291317e+00
7.190623e+00
7.335429e+00
7.278714e+00
7.316488e+00
7.672866e+00
8.030201e+00
8.175295e+00
7.882058e+00
8.137157e+00
8.145814e+00
7.677898e+00
7.240640e+00
7.366097e+00
7.041288e+00
6.156198e+00
5.621905e+00
5.762545e+00
6.557024e+00
7.285824e+00
7.825623e+00
8.412113e+00
8.909248e+00
9.123716e+00
6.343446e+00
6.060387e+00
6.250267e+00
5.243001e+00
4.696027e+00
5.028310e+00
4.874065e+00
4.756100e+00
4.640915e+00
5.029692e+00
6.135631e+00
7.336161e+00
8.215946e+00
8.881498e+00
9.353421e+00
9.551940e+00


-9.543788e-01
-1.207729e-01
-3.099293e-01
-2.893171e-01
-1.527234e-01
-2.289379e-01
2.099529e-03
-1.769658e-01
-4.018579e-01
-2.389579e-01
-2.297817e-01
-3.119935e-01
-2.969375e-01
-2.199220e-01
4.194296e-01
-7.342181e-01
5.769870e-01
4.854395e-01
3.204465e-01
1.891575e-01
2.388623e-01
1.393049e-01
1.925630e-01
1.735728e-01
1.188535e-01
2.529021e-01
2.743284e-01
3.077596e-01
4.757779e-01
7.169331e-01
7.315710e-01
-9.625348e-01
7.239926e-01
4.901924e-01
9.957356e-02
3.713751e-02
4.079149e-02
-4.156966e-02
1.237129e-01
2.367840e-01
3.364315e-01
3.886836e-01
3.807540e-01
4.115952e-01
4.589990e-01
3.294860e-01
4.910048e-02
-4.171523e-01
7.332062e-01
5.677622e-01
2.290907e-01
1.495180e-01
1.019820e-01
6.049953e-02
1.530189e-01
2.150142e-01
2.801043e-01
2.679436e-01
2.304574e-01
1.894409e-01
7.441152e-02
-1.708059e-01
-2.476011e-01
-9.677729e-02
7.347572e-01
5.702682e-01
2.345991e-01
1.539483e-01
1.003579e-01
4.160379e-02
1.090197e-01
1.411659e-01
1.733735e-01
1.143537e-01
2.581572e-02
-4.723670e-02
-1.405210e-01
-1.717715e-01
4.044663e-02
4.416436e-01
7.271542e-01
4.940649e-01
1.066506e-01
4.253290e-02
3.395074e-02
-7.626407e-02
4.554993e-02
1.006654e-01
1.210280e-01
6.190364e-02
-8.583868e-02
-1.482636e-01
-1.007732e-01
5.522502e-02
3.914337e-01
7.810944e-01
5.790412e-01
4.864418e-01
3.218627e-01
1.900019e-01
2.373379e-01
1.312191e-01
1.695185e-01
1.228149e-01
2.607501e-03
5.050993e-02
-1.794865e-02
-1.075724e-02
1.655428e-01
4.306906e-01
7.351430e-01
9.532722e-01
-9.568680e-01
-1.229246e-01
-3.111551e-01
-2.911780e-01
-1.549807e-01
-2.249331e-01
1.123379e-02
-1.444300e-01
-3.333632e-01
-1.490814e-01
-3.318501e-02
1.631105e-01
5.033483e-01
7.945543e-01
9.547447e-01
9.988786e-01
1 2 19 18
2 3 20 19
3 4 21 20
4 5 22 21
5 6 23 22
6 7 24 23
7 8 25 24
8 9 26 25
9 10 27 26
10 11 28 27
11 12 29 28
12 13 30 29
13 14 31 30
14 15 32 31
15 16 33 32
16 17 34 33
18 19 36 35
19 20 37 36
20 21 38 37
21 22 39 38
22 23 40 39
23 24 41 40
24 25 42 41
25 26 43 42
26 27 44 43
27 28 45 44
28 29 46 45
29 30 47 46
30 31 48 47
31 32 49 48
32 33 50 49
33 34 51 50
35 36 53 52
36 37 54 53
37 38 55 54
38 39 56 55
39 40 57 56
40 41 58 57
41 42 59 58
42 43 60 59
43 44 61 60
44 45 62 61
45 46 63 62
46 47 64 63
47 48 65 64
48 49 66 65
49 50 67 66
50 51 68 67
52 53 70 69
53 54 71 70
54 55 72 71
55 56 73 72
56 57 74 73
57 58 75 74
58 59 76 75
59 60 77 76
60 61 78 77
61 62 79 78
62 63 80 79
63 64 81 80
64 65 82 81
65 66 83 82
66 67 84 83
67 68 85 84
69 70 87 86
70 71 88 87
71 72 89 88
72 73 90 89
73 74 91 90
74 75 92 91
75 76 93 92
76 77 94 93
77 78 95 94
78 79 96 95
79 80 97 96
80 81 98 97
81 82 99 98
82 83 100 99
83 84 101 100
84 85 102 101
86 87 104 103
87 88 105 104
88 89 106 105
89 90 107 106
90 91 108 107
91 92 109 108
92 93 110 109
93 94 111 110
94 95 112 111
95 96 113 112
96 97 114 113
97 98 115 114
98 99 116 115
99 100 117 116
100 101 118 117
101 102 119 118
103 104 121 120
104 105 122 121
105 106 123 122
106 107 124 123
107 108 125 124
108 109 126 125
109 110 127 126
110 111 128 127
111 112 129 128
112 113 130 129
113 114 131 130
114 115 132 131
115 116 133 132
116 117 134 133
117 118 135 134
118 119 136 135
120 121 138 137
121 122 139 138
122 123 140 139
123 124 141 140
124 125 142 141
125 126 143 142
126 127 144 143
127 128 145 144
128 129 146 145
129 130 147 146
130 131 148 147
131 132 149 148
132 133 150 149
133 134 151 150
134 135 152 151
135 136 153 152
