TITLE = "Solution"
VARIABLES = x, y, u, v, psiu, psiv, t, stress
ZONE T="structure" N=153 E=128 F=FEBLOCK ET=QUADRILATERAL VARLOCATION=([7,8]=cellcentered)
0.000000e+00
1.250000e+01
2.500000e+01
3.750000e+01
5.000000e+01
6.250000e+01
7.500000e+01
8.750000e+01
1.000000e+02
1.125000e+02
1.250000e+02
1.375000e+02
1.500000e+02
1.625000e+02
1.750000e+02
1.875000e+02
2.000000e+02
0.000000e+00
1.250000e+01
2.500000e+01
3.750000e+01
5.000000e+01
6.250000e+01
7.500000e+01
8.750000e+01
1.000000e+02
1.125000e+02
1.250000e+02
1.375000e+02
1.500000e+02
1.625000e+02
1.750000e+02
1.875000e+02
2.000000e+02
0.000000e+00
1.250000e+01
2.500000e+01
3.750000e+01
5.000000e+01
6.250000e+01
7.500000e+01
8.750000e+01
1.000000e+02
1.125000e+02
1.250000e+02
1.375000e+02
1.500000e+02
1.625000e+02
1.750000e+02
1.875000e+02
2.000000e+02
0.000000e+00
1.250000e+01
2.500000e+01
3.750000e+01
5.000000e+01
6.250000e+01
7.500000e+01
8.750000e+01
1.000000e+02
1.125000e+02
1.250000e+02
1.375000e+02
1.500000e+02
1.625000e+02
1.750000e+02
1.875000e+02
2.000000e+02
0.000000e+00
1.250000e+01
2.500000e+01
3.750000e+01
5.000000e+01
6.250000e+01
7.500000e+01
8.750000e+01
1.000000e+02
1.125000e+02
1.250000e+02
1.375000e+02
1.500000e+02
1.625000e+02
1.750000e+02
1.875000e+02
2.000000e+02
0.000000e+00
1.250000e+01
2.500000e+01
3.750000e+01
5.000000e+01
6.250000e+01
7.500000e+01
8.750000e+01
1.000000e+02
1.125000e+02
1.250000e+02
1.375000e+02
1.500000e+02
1.625000e+02
1.750000e+02
1.875000e+02
2.000000e+02
0.000000e+00
1.250000e+01
2.500000e+01
3.750000e+01
5.000000e+01
6.250000e+01
7.500000e+01
8.750000e+01
1.000000e+02
1.125000e+02
1.250000e+02
1.375000e+02
1.500000e+02
1.625000e+02
1.750000e+02
1.875000e+02
2.000000e+02
0.000000e+00
1.250000e+01
2.500000e+01
3.750000e+01
5.000000e+01
6.250000e+01
7.500000e+01
8.750000e+01
1.000000e+02
1.125000e+02
1.250000e+02
1.375000e+02
1.500000e+02
1.625000e+02
1.750000e+02
1.875000e+02
2.000000e+02
0.000000e+00
1.250000e+01
2.500000e+01
3.750000e+01
5.000000e+01
6.250000e+01
7.500000e+01
8.750000e+01
1.000000e+02
1.125000e+02
1.250000e+02
1.375000e+02
1.500000e+02
1.625000e+02
1.750000e+02
1.875000e+02
2.000000e+02
0.000000e+00
0.000000e+00
0.000000e+00
0.000000e+00
0.000000e+00
0.000000e+00
0.000000e+00
0.000000e+00
0.000000e+00
0.000000e+00
0.000000e+00
0.000000e+00
0.000000e+00
0.000000e+00
0.000000e+00
0.000000e+00
0.000000e+00
1.250000e+01
1.250000e+01
1.250000e+01
1.250000e+01
1.250000e+01
1.250000e+01
1.250000e+01
1.250000e+01
1.250000e+01
1.250000e+01
1.250000e+01
1.250000e+01
1.250000e+01
1.250000e+01
1.250000e+01
1.250000e+01
1.250000e+01
2.500000e+01
2.500000e+01
2.500000e+01
2.500000e+01
2.500000e+01
2.500000e+01
2.500000e+01
2.500000e+01
2.500000e+01
2.500000e+01
2.500000e+01
2.500000e+01
2.500000e+01
2.500000e+01
2.500000e+01
2.500000e+01
2.500000e+01
3.750000e+01
3.750000e+01
3.750000e+01
3.750000e+01
3.750000e+01
3.750000e+01
3.750000e+01
3.750000e+01
3.750000e+01
3.750000e+01
3.750000e+01
3.750000e+01
3.750000e+01
3.750000e+01
3.750000e+01
3.750000e+01
3.750000e+01
5.000000e+01
5.000000e+01
5.000000e+01
5.000000e+01
5.000000e+01
5.000000e+01
5.000000e+01
5.000000e+01
5.000000e+01
5.000000e+01
5.000000e+01
5.000000e+01
5.000000e+01
5.000000e+01
5.000000e+01
5.000000e+01
5.000000e+01
6.250000e+01
6.250000e+01
6.250000e+01
6.250000e+01
6.250000e+01
6.250000e+01
6.250000e+01
6.250000e+01
6.250000e+01
6.250000e+01
6.250000e+01
6.250000e+01
6.250000e+01
6.250000e+01
6.250000e+01
6.250000e+01
6.250000e+01
7.500000e+01
7.500000e+01
7.500000e+01
7.500000e+01
7.500000e+01
7.500000e+01
7.500000e+01
7.500000e+01
7.500000e+01
7.500000e+01
7.500000e+01
7.500000e+01
7.500000e+01
7.500000e+01
7.500000e+01
7.500000e+01
7.500000e+01
8.750000e+01
8.750000e+01
8.750000e+01
8.750000e+01
8.750000e+01
8.750000e+01
8.750000e+01
8.750000e+01
8.750000e+01
8.750000e+01
8.750000e+01
8.750000e+01
8.750000e+01
8.750000e+01
8.750000e+01
8.750000e+01
8.750000e+01
1.000000e+02
1.000000e+02
1.000000e+02
1.000000e+02
1.000000e+02
1.000000e+02
1.000000e+02
1.000000e+02
1.000000e+02
1.000000e+02
1.000000e+02
1.000000e+02
1.000000e+02
1.000000e+02
1.000000e+02
1.000000e+02
1.000000e+02
0.000000e+00
-1.027488e+00
-1.691337e+00
-2.418552e+00
-3.109917e+00
-3.755472e+00
-4.423116e+00
-5.005199e+00
-5.658166e+00
-6.374854e+00
-7.057261e+00
-7.743135e+00
-8.461185e+00
-9.196913e+00
-1.000800e+01
-1.071363e+01
-1.115622e+01
0.000000e+00
-4.685632e-01
-9.243550e-01
-1.421138e+00
-1.943572e+00
-2.440399e+00
-2.952247e+00
-3.431003e+00
-3.933232e+00
-4.476099e+00
-4.975491e+00
-5.469275e+00
-5.972782e+00
-6.451355e+00
-6.826079e+00
-6.929822e+00
-7.099113e+00
0.000000e+00
-1.562396e-01
-3.646618e-01
-6.578187e-01
-1.010065e+00
-1.350580e+00
-1.722298e+00
-2.091959e+00
-2.447079e+00
-2.793792e+00
-3.106759e+00
-3.412207e+00
-3.690697e+00
-3.889466e+00
-3.953991e+00
-3.933192e+00
-4.082721e+00
0.000000e+00
-7.898163e-02
-1.645495e-01
-3.195707e-01
-4.683978e-01
-6.446807e-01
-8.300245e-01
-9.934846e-01
-1.153898e+00
-1.292733e+00
-1.431382e+00
-1.553246e+00
-1.627679e+00
-1.629072e+00
-1.564405e+00
-1.556647e+00
-1.694051e+00
0.000000e+00
-2.025231e-03
-4.303366e-03
-6.392973e-03
-7.542873e-03
-6.295808e-03
-6.606852e-04
1.159433e-02
3.233404e-02
6.294220e-02
1.068474e-01
1.718051e-01
2.646600e-01
3.797804e-01
4.714337e-01
4.793487e-01
3.766989e-01
0.000000e+00
7.564485e-02
1.583570e-01
3.101523e-01
4.569974e-01
6.341576e-01
8.258704e-01
1.006163e+00
1.198021e+00
1.388308e+00
1.607202e+00
1.842813e+00
2.068844e+00
2.262215e+00
2.391371e+00
2.417071e+00
2.356365e+00
0.000000e+00
1.547911e-01
3.622146e-01
6.542519e-01
1.004896e+00
1.343495e+00
1.714288e+00
2.086085e+00
2.450653e+00
2.821891e+00
3.178385e+00
3.540970e+00
3.874069e+00
4.137658e+00
4.307021e+00
4.367331e+00
4.351707e+00
0.000000e+00
4.684624e-01
9.241837e-01
1.420396e+00
1.942159e+00
2.437580e+00
2.946576e+00
3.421431e+00
3.915199e+00
4.446223e+00
4.934357e+00
5.398170e+00
5.817048e+00
6.139890e+00
6.344764e+00
6.436128e+00
6.452899e+00
0.000000e+00
1.028623e+00
1.693530e+00
2.421858e+00
3.114777e+00
3.762459e+00
4.430350e+00
5.010725e+00
5.652554e+00
6.341156e+00
6.976603e+00
7.565451e+00
8.073480e+00
8.432894e+00
8.621725e+00
8.672864e+00
8.672897e+00
0.000000e+00
-6.293628e-01
-1.365156e+00
-2.354838e+00
-3.520008e+00
-4.846582e+00
-6.336603e+00
-7.955773e+00
-9.735283e+00
-1.167972e+01
-1.378496e+01
-1.608477e+01
-1.858120e+01
-2.127481e+01
-2.420877e+01
-2.757385e+01
-3.253155e+01
0.000000e+00
-4.253113e-01
-1.202342e+00
-2.169807e+00
-3.346284e+00
-4.671143e+00
-6.168735e+00
-7.795276e+00
-9.555177e+00
-1.150017e+01
-1.361145e+01
-1.590965e+01
-1.840553e+01
-2.110711e+01
-2.408063e+01
-2.748386e+01
-3.153765e+01
0.000000e+00
-3.953953e-01
-1.098215e+00
-2.064076e+00
-3.221305e+00
-4.538124e+00
-6.041901e+00
-7.669556e+00
-9.440840e+00
-1.138652e+01
-1.350339e+01
-1.581131e+01
-1.832315e+01
-2.105441e+01
-2.406922e+01
-2.731976e+01
-3.037102e+01
0.000000e+00
-4.473573e-01
-1.083314e+00
-2.034337e+00
-3.153637e+00
-4.456614e+00
-5.961247e+00
-7.598367e+00
-9.395587e+00
-1.133985e+01
-1.346673e+01
-1.579385e+01
-1.832508e+01
-2.106326e+01
-2.401262e+01
-2.698199e+01
-2.955937e+01
0.000000e+00
-4.520384e-01
-1.101853e+00
-2.017658e+00
-3.140019e+00
-4.438180e+00
-5.934551e+00
-7.593552e+00
-9.397883e+00
-1.135257e+01
-1.349041e+01
-1.583421e+01
-1.836556e+01
-2.106847e+01
-2.387721e+01
-2.660904e+01
-2.893682e+01
0.000000e+00
-4.470985e-01
-1.084356e+00
-2.037677e+00
-3.160438e+00
-4.468766e+00
-5.981783e+00
-7.631094e+00
-9.442608e+00
-1.140402e+01
-1.355373e+01
-1.590083e+01
-1.841703e+01
-2.105857e+01
-2.374844e+01
-2.631888e+01
-2.854339e+01
0.000000e+00
-3.954465e-01
-1.100281e+00
-2.069546e+00
-3.232228e+00
-4.557970e+00
-6.075437e+00
-7.722717e+00
-9.518109e+00
-1.149413e+01
-1.364637e+01
-1.598566e+01
-1.847970e+01
-2.106597e+01
-2.366074e+01
-2.613336e+01
-2.834370e+01
0.000000e+00
-4.255187e-01
-1.204502e+00
-2.175426e+00
-3.357797e+00
-4.692267e+00
-6.205052e+00
-7.853087e+00
-9.641637e+00
-1.162400e+01
-1.377274e+01
-1.609772e+01
-1.856731e+01
-2.110962e+01
-2.363745e+01
-2.604895e+01
-2.828964e+01
0.000000e+00
-6.298330e-01
-1.367439e+00
-2.360624e+00
-3.531763e+00
-4.867915e+00
-6.372916e+00
-8.012602e+00
-9.819300e+00
-1.179925e+01
-1.393709e+01
-1.624587e+01
-1.868562e+01
-2.118332e+01
-2.366007e+01
-2.603305e+01
-2.828942e+01


0.000000e+00
1.376222e-05
2.422868e-05
3.721293e-05
5.150514e-05
6.528174e-05
7.979618e-05
9.352075e-05
1.089685e-04
1.239651e-04
1.356578e-04
1.451801e-04
1.524417e-04
1.570173e-04
1.603288e-04
1.641209e-04
1.691424e-04
0.000000e+00
9.597066e-06
1.919616e-05
2.897621e-05
4.073931e-05
5.168373e-05
6.263170e-05
7.393186e-05
8.595055e-05
9.666511e-05
1.040782e-04
1.097811e-04
1.133880e-04
1.137990e-04
1.133494e-04
1.171547e-04
1.227619e-04
0.000000e+00
7.816361e-06
1.498238e-05
2.174199e-05
3.031347e-05
3.787475e-05
4.542249e-05
5.329516e-05
6.036337e-05
6.570789e-05
6.928228e-05
7.182625e-05
7.288822e-05
7.225676e-05
7.207733e-05
7.529660e-05
8.047218e-05
0.000000e+00
4.453778e-06
7.129598e-06
1.137826e-05
1.517643e-05
1.890878e-05
2.292294e-05
2.649397e-05
2.946426e-05
3.138314e-05
3.257176e-05
3.297466e-05
3.279082e-05
3.287271e-05
3.385732e-05
3.673607e-05
4.114335e-05
0.000000e+00
-5.669751e-08
-1.270476e-07
-1.975761e-07
-2.691593e-07
-3.319346e-07
-3.830441e-07
-4.217238e-07
-5.216236e-07
-8.290166e-07
-1.528661e-06
-2.522058e-06
-3.375332e-06
-3.439873e-06
-2.461789e-06
-9.537558e-07
1.154930e-06
0.000000e+00
-4.559418e-06
-7.333262e-06
-1.170844e-05
-1.560513e-05
-1.943123e-05
-2.350639e-05
-2.710159e-05
-3.003120e-05
-3.196208e-05
-3.360910e-05
-3.516239e-05
-3.637816e-05
-3.702797e-05
-3.749357e-05
-3.782731e-05
-3.743627e-05
0.000000e+00
-7.875536e-06
-1.509130e-05
-2.190463e-05
-3.055888e-05
-3.820094e-05
-4.582489e-05
-5.370568e-05
-6.060275e-05
-6.547146e-05
-6.817030e-05
-6.967033e-05
-7.075566e-05
-7.178720e-05
-7.283020e-05
-7.371578e-05
-7.395497e-05
0.000000e+00
-9.615026e-06
-1.921429e-05
-2.897621e-05
-4.077052e-05
-5.176529e-05
-6.274116e-05
-7.406871e-05
-8.609907e-05
-9.666699e-05
-1.029970e-04
-1.063320e-04
-1.081061e-04
-1.093613e-04
-1.102410e-04
-1.106910e-04
-1.108165e-04
0.000000e+00
-1.376427e-05
-2.418478e-05
-3.708641e-05
-5.131456e-05
-6.504670e-05
-7.946268e-05
-9.313504e-05
-1.086155e-04
-1.237862e-04
-1.351073e-04
-1.423888e-04
-1.464276e-04
-1.481351e-04
-1.485940e-04
-1.485328e-04
-1.484555e-04
0.000000e+00
1.162764e-05
2.002834e-05
3.200206e-05
4.686200e-05
6.413098e-05
8.541142e-05
1.100602e-04
1.385704e-04
1.694657e-04
2.028308e-04
2.395244e-04
2.782911e-04
3.195087e-04
3.682114e-04
4.248025e-04
4.811511e-04
0.000000e+00
6.740434e-06
1.546558e-05
2.600123e-05
4.067513e-05
5.796202e-05
7.914409e-05
1.036624e-04
1.317962e-04
1.638121e-04
1.986151e-04
2.362996e-04
2.764329e-04
3.186449e-04
3.644646e-04
4.177691e-04
4.723032e-04
0.000000e+00
3.177497e-06
1.104400e-05
2.095351e-05
3.506714e-05
5.281983e-05
7.389274e-05
9.866484e-05
1.274405e-04
1.603719e-04
1.961453e-04
2.345512e-04
2.756423e-04
3.181498e-04
3.599300e-04
4.090014e-04
4.617755e-04
0.000000e+00
2.007866e-06
8.622224e-06
1.859244e-05
3.256940e-05
5.049899e-05
7.183846e-05
9.702153e-05
1.263860e-04
1.594724e-04
1.954039e-04
2.339200e-04
2.753113e-04
3.175777e-04
3.571540e-04
4.009655e-04
4.498032e-04
0.000000e+00
1.630350e-06
8.011868e-06
1.782423e-05
3.188705e-05
4.973002e-05
7.123834e-05
9.668128e-05
1.262591e-04
1.593622e-04
1.952599e-04
2.338420e-04
2.751736e-04
3.175229e-04
3.569609e-04
3.970340e-04
4.404965e-04
0.000000e+00
2.036286e-06
8.644969e-06
1.858341e-05
3.249817e-05
5.036373e-05
7.165416e-05
9.685362e-05
1.263520e-04
1.596001e-04
1.958309e-04
2.346645e-04
2.758777e-04
3.176710e-04
3.577631e-04
3.966691e-04
4.358143e-04
0.000000e+00
3.218611e-06
1.108257e-05
2.093139e-05
3.495054e-05
5.258238e-05
7.354807e-05
9.828745e-05
1.271884e-04
1.605371e-04
1.970636e-04
2.361200e-04
2.769790e-04
3.180625e-04
3.579620e-04
3.965916e-04
4.342040e-04
0.000000e+00
6.790244e-06
1.551094e-05
2.599137e-05
4.057490e-05
5.773327e-05
7.877749e-05
1.032094e-04
1.314412e-04
1.638567e-04
1.993203e-04
2.376412e-04
2.777999e-04
3.183216e-04
3.579406e-04
3.964468e-04
4.340558e-04
0.000000e+00
1.168001e-05
2.006484e-05
3.199366e-05
4.678573e-05
6.392853e-05
8.506930e-05
1.096391e-04
1.382569e-04
1.693911e-04
2.028061e-04
2.394597e-04
2.785866e-04
3.185186e-04
3.579592e-04
3.963764e-04
4.341232e-04


6.372817e+00
6.065821e+00
6.246240e+00
5.270723e+00
4.755858e+00
5.095308e+00
4.921987e+00
4.760748e+00
4.548727e+00
4.708113e+00
5.545915e+00
6.580128e+00
7.360972e+00
8.108323e+00
8.163079e+00
7.795649e+00
7.906009e+00
8.149027e+00
8.171663e+00
7.762665e+00
7.380481e+00
7.509590e+00
7.141324e+00
6.183614e+00
5.517639e+00
5.492972e+00
6.272111e+00
7.154924e+00
7.648430e+00
7.768418e+00
7.279599e+00
6.187063e+00
9.336417e+00
9.500468e+00
9.768676e+00
9.439842e+00
9.273785e+00
9.352530e+00
8.950031e+00
8.059365e+00
7.178623e+00
7.033005e+00
7.427596e+00
7.789724e+00
7.797753e+00
7.450930e+00
6.507018e+00
5.711880e+00
9.618745e+00
9.818332e+00
9.923051e+00
9.722999e+00
9.513067e+00
9.578263e+00
9.627383e+00
9.245440e+00
8.685098e+00
8.350512e+00
8.125033e+00
7.796624e+00
7.464688e+00
7.049999e+00
6.550708e+00
6.078825e+00
9.614410e+00
9.811816e+00
9.901170e+00
9.667682e+00
9.434909e+00
9.507209e+00
9.589326e+00
9.253555e+00
8.755390e+00
8.414493e+00
8.009526e+00
7.446337e+00
7.128955e+00
7.100841e+00
7.030969e+00
6.940901e+00
9.325837e+00
9.489201e+00
9.722690e+00
9.324391e+00
9.102650e+00
9.184073e+00
8.835221e+00
8.047227e+00
7.303751e+00
7.214989e+00
7.344475e+00
7.269065e+00
7.309966e+00
7.673291e+00
8.019014e+00
8.148614e+00
7.896531e+00
8.139806e+00
8.139948e+00
7.675391e+00
7.235256e+00
7.350104e+00
7.020050e+00
6.141948e+00
5.618223e+00
5.768953e+00
6.560039e+00
7.275719e+00
7.814446e+00
8.408829e+00
8.904005e+00
9.110818e+00
6.361135e+00
6.060535e+00
6.235443e+00
5.232519e+00
4.679327e+00
4.995319e+00
4.852699e+00
4.747174e+00
4.634180e+00
5.029231e+00
6.137249e+00
7.329902e+00
8.205616e+00
8.876511e+00
9.350578e+00
9.546290e+00


-9.542798e-01
-1.196038e-01
-3.106755e-01
-2.931701e-01
-1.508601e-01
-2.229465e-01
-8.694511e-05
-1.821941e-01
-4.007909e-01
-2.374964e-01
-2.325816e-01
-3.132036e-01
-2.851639e-01
-2.008618e-01
4.214227e-01
-7.404244e-01
5.770871e-01
4.859061e-01
3.200187e-01
1.865157e-01
2.391975e-01
1.420737e-01
1.920983e-01
1.723930e-01
1.209958e-01
2.543220e-01
2.739214e-01
3.082223e-01
4.800981e-01
7.207005e-01
7.321124e-01
-9.680131e-01
7.238282e-01
4.902484e-01
9.909152e-02
3.505961e-02
4.052523e-02
-3.811946e-02
1.265247e-01
2.393979e-01
3.381006e-01
3.887055e-01
3.801300e-01
4.110410e-01
4.586282e-01
3.304246e-01
5.171142e-02
-4.163728e-01
7.329941e-01
5.678512e-01
2.288603e-01
1.483867e-01
1.023092e-01
6.358945e-02
1.547811e-01
2.149848e-01
2.779661e-01
2.645842e-01
2.274742e-01
1.870355e-01
7.141913e-02
-1.716724e-01
-2.422333e-01
-9.026067e-02
7.345611e-01
5.704242e-01
2.345726e-01
1.530701e-01
1.008821e-01
4.468350e-02
1.100519e-01
1.397589e-01
1.691617e-01
1.090209e-01
2.278408e-02
-4.749813e-02
-1.415311e-01
-1.723434e-01
4.482489e-02
4.465756e-01
7.269825e-01
4.941614e-01
1.063548e-01
4.072817e-02
3.416409e-02
-7.238808e-02
4.797058e-02
1.024456e-01
1.207150e-01
5.876577e-02
-8.754479e-02
-1.461246e-01
-9.925540e-02
5.544016e-02
3.934146e-01
7.827094e-01
5.791198e-01
4.868710e-01
3.212982e-01
1.871926e-01
2.380184e-01
1.342098e-01
1.688935e-01
1.217406e-01
4.299014e-03
4.992961e-02
-1.908951e-02
-8.959094e-03
1.674346e-01
4.310327e-01
7.356083e-01
9.535126e-01
-9.566577e-01
-1.216089e-01
-3.119666e-01
-2.953152e-01
-1.528154e-01
-2.192224e-01
7.729814e-03
-1.497460e-01
-3.319566e-01
-1.480107e-01
-3.352374e-02
1.644170e-01
5.046567e-01
7.948402e-01
9.548503e-01
9.988897e-01
1 2 19 18
2 3 20 19
3 4 21 20
4 5 22 21
5 6 23 22
6 7 24 23
7 8 25 24
8 9 26 25
9 10 27 26
10 11 28 27
11 12 29 28
12 13 30 29
13 14 31 30
14 15 32 31
15 16 33 32
16 17 34 33
18 19 36 35
19 20 37 36
20 21 38 37
21 22 39 38
22 23 40 39
23 24 41 40
24 25 42 41
25 26 43 42
26 27 44 43
27 28 45 44
28 29 46 45
29 30 47 46
30 31 48 47
31 32 49 48
32 33 50 49
33 34 51 50
35 36 53 52
36 37 54 53
37 38 55 54
38 39 56 55
39 40 57 56
40 41 58 57
41 42 59 58
42 43 60 59
43 44 61 60
44 45 62 61
45 46 63 62
46 47 64 63
47 48 65 64
48 49 66 65
49 50 67 66
50 51 68 67
52 53 70 69
53 54 71 70
54 55 72 71
55 56 73 72
56 57 74 73
57 58 75 74
58 59 76 75
59 60 77 76
60 61 78 77
61 62 79 78
62 63 80 79
63 64 81 80
64 65 82 81
65 66 83 82
66 67 84 83
67 68 85 84
69 70 87 86
70 71 88 87
71 72 89 88
72 73 90 89
73 74 91 90
74 75 92 91
75 76 93 92
76 77 94 93
77 78 95 94
78 79 96 95
79 80 97 96
80 81 98 97
81 82 99 98
82 83 100 99
83 84 101 100
84 85 102 101
86 87 104 103
87 88 105 104
88 89 106 105
89 90 107 106
90 91 108 107
91 92 109 108
92 93 110 109
93 94 111 110
94 95 112 111
95 96 113 112
96 97 114 113
97 98 115 114
98 99 116 115
99 100 117 116
100 101 118 117
101 102 119 118
103 104 121 120
104 105 122 121
105 106 123 122
106 107 124 123
107 108 125 124
108 109 126 125
109 110 127 126
110 111 128 127
111 112 129 128
112 113 130 129
113 114 131 130
114 115 132 131
115 116 133 132
116 117 134 133
117 118 135 134
118 119 136 135
120 121 138 137
121 122 139 138
122 123 140 139
123 124 141 140
124 125 142 141
125 126 143 142
126 127 144 143
127 128 145 144
128 129 146 145
129 130 147 146
130 131 148 147
131 132 149 148
132 133 150 149
133 134 151 150
134 135 152 151
135 136 153 152
