TITLE = "Solution"
VARIABLES = x, y, u, v, psiu, psiv, t, stress
ZONE T="structure" N=153 E=128 F=FEBLOCK ET=QUADRILATERAL VARLOCATION=([7,8]=cellcentered)
0.000000e+00
1.250000e+01
2.500000e+01
3.750000e+01
5.000000e+01
6.250000e+01
7.500000e+01
8.750000e+01
1.000000e+02
1.125000e+02
1.250000e+02
1.375000e+02
1.500000e+02
1.625000e+02
1.750000e+02
1.875000e+02
2.000000e+02
0.000000e+00
1.250000e+01
2.500000e+01
3.750000e+01
5.000000e+01
6.250000e+01
7.500000e+01
8.750000e+01
1.000000e+02
1.125000e+02
1.250000e+02
1.375000e+02
1.500000e+02
1.625000e+02
1.750000e+02
1.875000e+02
2.000000e+02
0.000000e+00
1.250000e+01
2.500000e+01
3.750000e+01
5.000000e+01
6.250000e+01
7.500000e+01
8.750000e+01
1.000000e+02
1.125000e+02
1.250000e+02
1.375000e+02
1.500000e+02
1.625000e+02
1.750000e+02
1.875000e+02
2.000000e+02
0.000000e+00
1.250000e+01
2.500000e+01
3.750000e+01
5.000000e+01
6.250000e+01
7.500000e+01
8.750000e+01
1.000000e+02
1.125000e+02
1.250000e+02
1.375000e+02
1.500000e+02
1.625000e+02
1.750000e+02
1.875000e+02
2.000000e+02
0.000000e+00
1.250000e+01
2.500000e+01
3.750000e+01
5.000000e+01
6.250000e+01
7.500000e+01
8.750000e+01
1.000000e+02
1.125000e+02
1.250000e+02
1.375000e+02
1.500000e+02
1.625000e+02
1.750000e+02
1.875000e+02
2.000000e+02
0.000000e+00
1.250000e+01
2.500000e+01
3.750000e+01
5.000000e+01
6.250000e+01
7.500000e+01
8.750000e+01
1.000000e+02
1.125000e+02
1.250000e+02
1.375000e+02
1.500000e+02
1.625000e+02
1.750000e+02
1.875000e+02
2.000000e+02
0.000000e+00
1.250000e+01
2.500000e+01
3.750000e+01
5.000000e+01
6.250000e+01
7.500000e+01
8.750000e+01
1.000000e+02
1.125000e+02
1.250000e+02
1.375000e+02
1.500000e+02
1.625000e+02
1.750000e+02
1.875000e+02
2.000000e+02
0.000000e+00
1.250000e+01
2.500000e+01
3.750000e+01
5.000000e+01
6.250000e+01
7.500000e+01
8.750000e+01
1.000000e+02
1.125000e+02
1.250000e+02
1.375000e+02
1.500000e+02
1.625000e+02
1.750000e+02
1.875000e+02
2.000000e+02
0.000000e+00
1.250000e+01
2.500000e+01
3.750000e+01
5.000000e+01
6.250000e+01
7.500000e+01
8.750000e+01
1.000000e+02
1.125000e+02
1.250000e+02
1.375000e+02
1.500000e+02
1.625000e+02
1.750000e+02
1.875000e+02
2.000000e+02
0.000000e+00
0.000000e+00
0.000000e+00
0.000000e+00
0.000000e+00
0.000000e+00
0.000000e+00
0.000000e+00
0.000000e+00
0.000000e+00
0.000000e+00
0.000000e+00
0.000000e+00
0.000000e+00
0.000000e+00
0.000000e+00
0.000000e+00
1.250000e+01
1.250000e+01
1.250000e+01
1.250000e+01
1.250000e+01
1.250000e+01
1.250000e+01
1.250000e+01
1.250000e+01
1.250000e+01
1.250000e+01
1.250000e+01
1.250000e+01
1.250000e+01
1.250000e+01
1.250000e+01
1.250000e+01
2.500000e+01
2.500000e+01
2.500000e+01
2.500000e+01
2.500000e+01
2.500000e+01
2.500000e+01
2.500000e+01
2.500000e+01
2.500000e+01
2.500000e+01
2.500000e+01
2.500000e+01
2.500000e+01
2.500000e+01
2.500000e+01
2.500000e+01
3.750000e+01
3.750000e+01
3.750000e+01
3.750000e+01
3.750000e+01
3.750000e+01
3.750000e+01
3.750000e+01
3.750000e+01
3.750000e+01
3.750000e+01
3.750000e+01
3.750000e+01
3.750000e+01
3.750000e+01
3.750000e+01
3.750000e+01
5.000000e+01
5.000000e+01
5.000000e+01
5.000000e+01
5.000000e+01
5.000000e+01
5.000000e+01
5.000000e+01
5.000000e+01
5.000000e+01
5.000000e+01
5.000000e+01
5.000000e+01
5.000000e+01
5.000000e+01
5.000000e+01
5.000000e+01
6.250000e+01
6.250000e+01
6.250000e+01
6.250000e+01
6.250000e+01
6.250000e+01
6.250000e+01
6.250000e+01
6.250000e+01
6.250000e+01
6.250000e+01
6.250000e+01
6.250000e+01
6.250000e+01
6.250000e+01
6.250000e+01
6.250000e+01
7.500000e+01
7.500000e+01
7.500000e+01
7.500000e+01
7.500000e+01
7.500000e+01
7.500000e+01
7.500000e+01
7.500000e+01
7.500000e+01
7.500000e+01
7.500000e+01
7.500000e+01
7.500000e+01
7.500000e+01
7.500000e+01
7.500000e+01
8.750000e+01
8.750000e+01
8.750000e+01
8.750000e+01
8.750000e+01
8.750000e+01
8.750000e+01
8.750000e+01
8.750000e+01
8.750000e+01
8.750000e+01
8.750000e+01
8.750000e+01
8.750000e+01
8.750000e+01
8.750000e+01
8.750000e+01
1.000000e+02
1.000000e+02
1.000000e+02
1.000000e+02
1.000000e+02
1.000000e+02
1.000000e+02
1.000000e+02
1.000000e+02
1.000000e+02
1.000000e+02
1.000000e+02
1.000000e+02
1.000000e+02
1.000000e+02
1.000000e+02
1.000000e+02
0.000000e+00
-1.026947e+00
-1.688631e+00
-2.413893e+00
-3.106464e+00
-3.751425e+00
-4.414906e+00
-4.998196e+00
-5.654204e+00
-6.372261e+00
-7.055814e+00
-7.743147e+00
-8.467002e+00
-9.208279e+00
-9.970192e+00
-1.066256e+01
-1.111397e+01
0.000000e+00
-4.689365e-01
-9.231390e-01
-1.417996e+00
-1.941684e+00
-2.439065e+00
-2.949122e+00
-3.427641e+00
-3.930459e+00
-4.473027e+00
-4.973016e+00
-5.467467e+00
-5.973598e+00
-6.449104e+00
-6.793590e+00
-6.883354e+00
-7.050939e+00
0.000000e+00
-1.567212e-01
-3.642686e-01
-6.558938e-01
-1.009131e+00
-1.351478e+00
-1.723294e+00
-2.090735e+00
-2.443448e+00
-2.788921e+00
-3.102062e+00
-3.406101e+00
-3.681142e+00
-3.874420e+00
-3.929840e+00
-3.907102e+00
-4.060671e+00
0.000000e+00
-7.946828e-02
-1.649661e-01
-3.201726e-01
-4.703659e-01
-6.475250e-01
-8.308248e-01
-9.912233e-01
-1.148934e+00
-1.287127e+00
-1.425040e+00
-1.543639e+00
-1.612048e+00
-1.607554e+00
-1.545005e+00
-1.542089e+00
-1.677808e+00
0.000000e+00
-1.569467e-03
-4.448811e-03
-7.900882e-03
-9.707441e-03
-7.727101e-03
-6.662667e-04
1.284671e-02
3.462158e-02
6.659407e-02
1.126395e-01
1.801387e-01
2.754226e-01
3.928354e-01
4.881206e-01
4.964857e-01
3.939125e-01
0.000000e+00
7.767307e-02
1.609962e-01
3.125207e-01
4.592535e-01
6.366039e-01
8.280445e-01
1.008254e+00
1.199683e+00
1.391280e+00
1.612181e+00
1.848793e+00
2.073319e+00
2.264492e+00
2.393077e+00
2.420203e+00
2.360080e+00
0.000000e+00
1.562366e-01
3.647288e-01
6.573278e-01
1.008553e+00
1.346810e+00
1.717171e+00
2.089320e+00
2.454394e+00
2.825265e+00
3.182687e+00
3.545937e+00
3.877395e+00
4.137232e+00
4.303431e+00
4.362535e+00
4.347112e+00
0.000000e+00
4.691039e-01
9.242352e-01
1.420124e+00
1.943864e+00
2.438641e+00
2.944912e+00
3.420907e+00
3.917559e+00
4.448877e+00
4.937127e+00
5.401395e+00
5.819806e+00
6.139981e+00
6.341378e+00
6.430622e+00
6.446989e+00
0.000000e+00
1.028366e+00
1.691493e+00
2.419123e+00
3.114222e+00
3.761067e+00
4.424229e+00
5.006925e+00
5.652877e+00
6.342770e+00
6.978157e+00
7.566617e+00
8.073360e+00
8.429768e+00
8.615572e+00
8.665494e+00
8.665341e+00
0.000000e+00
-6.282213e-01
-1.361825e+00
-2.349730e+00
-3.514164e+00
-4.838443e+00
-6.323875e+00
-7.938717e+00
-9.715441e+00
-1.165890e+01
-1.376440e+01
-1.606440e+01
-1.856216e+01
-2.125342e+01
-2.418083e+01
-2.755166e+01
-3.251919e+01
0.000000e+00
-4.246352e-01
-1.199593e+00
-2.164597e+00
-3.340152e+00
-4.663649e+00
-6.156578e+00
-7.777718e+00
-9.534850e+00
-1.147912e+01
-1.359087e+01
-1.588867e+01
-1.838527e+01
-2.109222e+01
-2.405954e+01
-2.745410e+01
-3.153535e+01
0.000000e+00
-3.948604e-01
-1.095708e+00
-2.058376e+00
-3.214685e+00
-4.531061e+00
-6.030402e+00
-7.652482e+00
-9.420306e+00
-1.136543e+01
-1.348347e+01
-1.579108e+01
-1.830380e+01
-2.104343e+01
-2.404891e+01
-2.727981e+01
-3.031740e+01
0.000000e+00
-4.464059e-01
-1.080489e+00
-2.028176e+00
-3.146395e+00
-4.449725e+00
-5.950776e+00
-7.582471e+00
-9.375148e+00
-1.131914e+01
-1.344828e+01
-1.577610e+01
-1.830658e+01
-2.104880e+01
-2.399153e+01
-2.694024e+01
-2.950682e+01
0.000000e+00
-4.508396e-01
-1.099006e+00
-2.012081e+00
-3.132778e+00
-4.430602e+00
-5.924467e+00
-7.578452e+00
-9.378657e+00
-1.133281e+01
-1.347333e+01
-1.581839e+01
-1.834739e+01
-2.104723e+01
-2.385479e+01
-2.657705e+01
-2.889751e+01
0.000000e+00
-4.466465e-01
-1.082504e+00
-2.032715e+00
-3.153425e+00
-4.461023e+00
-5.970614e+00
-7.616428e+00
-9.424483e+00
-1.138541e+01
-1.353682e+01
-1.588492e+01
-1.839822e+01
-2.103432e+01
-2.371977e+01
-2.628528e+01
-2.850142e+01
0.000000e+00
-3.955107e-01
-1.098946e+00
-2.065020e+00
-3.225847e+00
-4.550205e+00
-6.063717e+00
-7.707419e+00
-9.500851e+00
-1.147621e+01
-1.362913e+01
-1.596861e+01
-1.846007e+01
-2.104085e+01
-2.362970e+01
-2.609722e+01
-2.830260e+01
0.000000e+00
-4.256509e-01
-1.203061e+00
-2.171188e+00
-3.351705e+00
-4.684261e+00
-6.193193e+00
-7.837687e+00
-9.624896e+00
-1.160644e+01
-1.375530e+01
-1.607985e+01
-1.854693e+01
-2.108415e+01
-2.360591e+01
-2.601259e+01
-2.825056e+01
0.000000e+00
-6.296908e-01
-1.365592e+00
-2.356763e+00
-3.525975e+00
-4.859150e+00
-6.360657e+00
-7.998098e+00
-9.803242e+00
-1.178191e+01
-1.391957e+01
-1.622767e+01
-1.866461e+01
-2.115705e+01
-2.362794e+01
-2.599665e+01
-2.825062e+01


0.000000e+00
1.380724e-05
2.429495e-05
3.714816e-05
5.132825e-05
6.519694e-05
7.986786e-05
9.364048e-05
1.087686e-04
1.230885e-04
1.342063e-04
1.433745e-04
1.504544e-04
1.548509e-04
1.579543e-04
1.617312e-04
1.667618e-04
0.000000e+00
9.640893e-06
1.926238e-05
2.890518e-05
4.053702e-05
5.161199e-05
6.279492e-05
7.408658e-05
8.569694e-05
9.576606e-05
1.027530e-04
1.082872e-04
1.118251e-04
1.121111e-04
1.115623e-04
1.150974e-04
1.207872e-04
0.000000e+00
7.827664e-06
1.500726e-05
2.168118e-05
3.018112e-05
3.785890e-05
4.552314e-05
5.325220e-05
5.997137e-05
6.495735e-05
6.831512e-05
7.076143e-05
7.178573e-05
7.115214e-05
7.097400e-05
7.413622e-05
7.943995e-05
0.000000e+00
4.412015e-06
7.106018e-06
1.134074e-05
1.515079e-05
1.890137e-05
2.285188e-05
2.630548e-05
2.912841e-05
3.092826e-05
3.202653e-05
3.238165e-05
3.221698e-05
3.233001e-05
3.336128e-05
3.614270e-05
4.036584e-05
0.000000e+00
-7.563357e-08
-1.600332e-07
-2.344283e-07
-3.066930e-07
-3.679635e-07
-4.221105e-07
-4.838016e-07
-6.378537e-07
-1.006787e-06
-1.742559e-06
-2.698725e-06
-3.457156e-06
-3.486128e-06
-2.579851e-06
-1.222573e-06
7.287972e-07
0.000000e+00
-4.568901e-06
-7.379521e-06
-1.173912e-05
-1.562114e-05
-1.944120e-05
-2.344069e-05
-2.695845e-05
-2.983454e-05
-3.178089e-05
-3.346728e-05
-3.498220e-05
-3.605944e-05
-3.662398e-05
-3.711280e-05
-3.750680e-05
-3.716762e-05
0.000000e+00
-7.930112e-06
-1.517820e-05
-2.190365e-05
-3.045276e-05
-3.815796e-05
-4.585099e-05
-5.359922e-05
-6.022294e-05
-6.484436e-05
-6.748638e-05
-6.901442e-05
-7.003303e-05
-7.096505e-05
-7.196311e-05
-7.282220e-05
-7.306827e-05
0.000000e+00
-9.669111e-06
-1.930422e-05
-2.894486e-05
-4.061122e-05
-5.168851e-05
-6.282860e-05
-7.414276e-05
-8.583583e-05
-9.582693e-05
-1.018173e-04
-1.050829e-04
-1.068340e-04
-1.080223e-04
-1.088739e-04
-1.093120e-04
-1.094348e-04
0.000000e+00
-1.380088e-05
-2.424298e-05
-3.703447e-05
-5.116709e-05
-6.496463e-05
-7.948413e-05
-9.321938e-05
-1.084557e-04
-1.229959e-04
-1.337057e-04
-1.406380e-04
-1.445293e-04
-1.462409e-04
-1.467520e-04
-1.467064e-04
-1.466288e-04
0.000000e+00
1.165014e-05
2.002909e-05
3.192376e-05
4.681188e-05
6.418614e-05
8.543185e-05
1.098849e-04
1.380785e-04
1.686747e-04
2.018387e-04
2.382269e-04
2.765104e-04
3.170859e-04
3.649014e-04
4.209129e-04
4.772914e-04
0.000000e+00
6.744287e-06
1.549050e-05
2.600045e-05
4.063418e-05
5.793231e-05
7.909850e-05
1.035539e-04
1.315704e-04
1.633390e-04
1.978247e-04
2.351008e-04
2.747154e-04
3.163274e-04
3.613680e-04
4.138585e-04
4.682984e-04
0.000000e+00
3.165899e-06
1.108731e-05
2.100959e-05
3.504523e-05
5.272273e-05
7.380241e-05
9.864335e-05
1.274076e-04
1.601089e-04
1.955039e-04
2.334426e-04
2.739633e-04
3.158675e-04
3.570391e-04
4.049545e-04
4.571059e-04
0.000000e+00
1.994642e-06
8.636724e-06
1.863195e-05
3.258602e-05
5.045962e-05
7.177195e-05
9.700243e-05
1.263538e-04
1.592495e-04
1.948647e-04
2.329280e-04
2.736210e-04
3.152636e-04
3.543607e-04
3.972377e-04
4.451753e-04
0.000000e+00
1.624399e-06
8.007634e-06
1.784466e-05
3.193000e-05
4.975141e-05
7.120135e-05
9.663594e-05
1.261876e-04
1.591411e-04
1.948098e-04
2.329464e-04
2.734573e-04
3.150856e-04
3.541927e-04
3.937140e-04
4.363369e-04
0.000000e+00
2.026848e-06
8.655627e-06
1.862114e-05
3.253024e-05
5.034936e-05
7.158923e-05
9.681523e-05
1.263234e-04
1.594333e-04
1.954161e-04
2.337612e-04
2.740979e-04
3.151532e-04
3.549465e-04
3.934501e-04
4.318746e-04
0.000000e+00
3.212155e-06
1.112190e-05
2.097115e-05
3.492830e-05
5.249644e-05
7.345048e-05
9.825874e-05
1.272139e-04
1.604092e-04
1.966199e-04
2.351305e-04
2.751420e-04
3.155113e-04
3.550694e-04
3.933329e-04
4.303955e-04
0.000000e+00
6.806905e-06
1.553681e-05
2.597342e-05
4.051315e-05
5.768267e-05
7.870922e-05
1.031203e-04
1.313249e-04
1.635774e-04
1.987572e-04
2.365707e-04
2.759566e-04
3.157821e-04
3.550098e-04
3.931405e-04
4.303031e-04
0.000000e+00
1.171638e-05
2.007039e-05
3.190795e-05
4.671131e-05
6.393830e-05
8.505142e-05
1.095022e-04
1.379096e-04
1.688102e-04
2.020437e-04
2.383123e-04
2.767333e-04
3.160036e-04
3.550193e-04
3.930577e-04
4.303788e-04


6.448971e+00
6.026774e+00
6.114636e+00
5.188647e+00
4.718345e+00
5.010318e+00
4.831386e+00
4.708526e+00
4.534140e+00
4.703044e+00
5.532785e+00
6.590437e+00
7.284609e+00
7.338412e+00
6.579935e+00
5.896384e+00
7.923968e+00
8.095206e+00
8.087468e+00
7.753208e+00
7.423276e+00
7.475771e+00
7.017795e+00
6.086702e+00
5.495713e+00
5.501420e+00
6.257416e+00
7.136391e+00
7.567790e+00
7.192650e+00
6.103848e+00
4.973827e+00
9.270775e+00
9.426058e+00
9.738765e+00
9.510096e+00
9.381202e+00
9.349079e+00
8.836669e+00
7.967226e+00
7.180887e+00
7.073914e+00
7.419789e+00
7.750125e+00
7.760734e+00
7.178552e+00
5.950092e+00
5.048499e+00
9.501661e+00
9.722920e+00
9.880522e+00
9.738479e+00
9.534132e+00
9.546048e+00
9.552347e+00
9.207732e+00
8.715677e+00
8.402548e+00
8.125452e+00
7.757404e+00
7.485720e+00
7.109929e+00
6.475911e+00
5.931673e+00
9.550883e+00
9.745573e+00
9.818817e+00
9.566919e+00
9.353892e+00
9.444100e+00
9.525430e+00
9.212707e+00
8.751581e+00
8.436085e+00
8.003699e+00
7.405956e+00
7.138933e+00
7.227092e+00
7.208428e+00
7.094251e+00
9.382260e+00
9.495914e+00
9.653785e+00
9.225118e+00
9.042838e+00
9.145518e+00
8.768902e+00
7.971088e+00
7.262228e+00
7.209851e+00
7.342479e+00
7.236600e+00
7.267617e+00
7.684033e+00
8.102554e+00
8.267353e+00
8.005122e+00
8.172179e+00
8.099189e+00
7.625582e+00
7.209023e+00
7.315233e+00
6.956017e+00
6.091104e+00
5.593987e+00
5.774673e+00
6.578697e+00
7.277186e+00
7.767332e+00
8.331293e+00
8.849477e+00
9.092146e+00
6.446104e+00
6.073494e+00
6.188503e+00
5.193341e+00
4.635671e+00
4.911325e+00
4.795305e+00
4.734617e+00
4.641838e+00
5.048333e+00
6.170810e+00
7.359503e+00
8.185923e+00
8.791915e+00
9.251995e+00
9.471552e+00


-9.534420e-01
-1.120185e-01
-3.025627e-01
-2.984105e-01
-1.507075e-01
-2.107854e-01
-1.577488e-03
-1.893236e-01
-4.031113e-01
-2.408286e-01
-2.363861e-01
-3.300043e-01
-2.859783e-01
-4.808156e-02
4.576166e-01
-7.755525e-01
5.766314e-01
4.900992e-01
3.260996e-01
1.828694e-01
2.352615e-01
1.463108e-01
1.983422e-01
1.777055e-01
1.253505e-01
2.547259e-01
2.790155e-01
3.163162e-01
4.944817e-01
7.565276e-01
7.307849e-01
-1.158139e+00
7.243661e-01
4.932671e-01
1.034666e-01
2.930018e-02
3.309701e-02
-2.929181e-02
1.434973e-01
2.532523e-01
3.420835e-01
3.884172e-01
3.875890e-01
4.246115e-01
4.625319e-01
3.478395e-01
7.706296e-02
-4.138373e-01
7.349571e-01
5.716153e-01
2.342820e-01
1.497675e-01
1.036393e-01
7.438858e-02
1.673919e-01
2.212391e-01
2.742136e-01
2.569746e-01
2.235399e-01
1.831005e-01
5.310352e-02
-1.785169e-01
-1.972251e-01
-3.957404e-02
7.363061e-01
5.764742e-01
2.483682e-01
1.667490e-01
1.114488e-01
5.868701e-02
1.229710e-01
1.481297e-01
1.675724e-01
1.004067e-01
1.464935e-02
-5.198093e-02
-1.524816e-01
-2.025452e-01
2.278598e-02
4.360773e-01
7.255642e-01
4.951487e-01
1.134125e-01
4.668822e-02
3.882503e-02
-6.171765e-02
5.715350e-02
1.108116e-01
1.230280e-01
5.327886e-02
-9.200460e-02
-1.390590e-01
-8.626822e-02
5.949028e-02
3.881530e-01
7.806113e-01
5.765703e-01
4.862171e-01
3.210296e-01
1.825912e-01
2.388974e-01
1.393977e-01
1.662482e-01
1.157446e-01
3.703183e-03
4.626547e-02
-2.275746e-02
-3.519511e-03
1.833263e-01
4.456824e-01
7.419600e-01
9.551449e-01
-9.578985e-01
-1.169330e-01
-3.098779e-01
-3.039892e-01
-1.498376e-01
-2.044097e-01
1.248866e-03
-1.639223e-01
-3.357530e-01
-1.487594e-01
-3.419187e-02
1.675279e-01
5.128944e-01
8.011328e-01
9.565500e-01
9.989632e-01
1 2 19 18
2 3 20 19
3 4 21 20
4 5 22 21
5 6 23 22
6 7 24 23
7 8 25 24
8 9 26 25
9 10 27 26
10 11 28 27
11 12 29 28
12 13 30 29
13 14 31 30
14 15 32 31
15 16 33 32
16 17 34 33
18 19 36 35
19 20 37 36
20 21 38 37
21 22 39 38
22 23 40 39
23 24 41 40
24 25 42 41
25 26 43 42
26 27 44 43
27 28 45 44
28 29 46 45
29 30 47 46
30 31 48 47
31 32 49 48
32 33 50 49
33 34 51 50
35 36 53 52
36 37 54 53
37 38 55 54
38 39 56 55
39 40 57 56
40 41 58 57
41 42 59 58
42 43 60 59
43 44 61 60
44 45 62 61
45 46 63 62
46 47 64 63
47 48 65 64
48 49 66 65
49 50 67 66
50 51 68 67
52 53 70 69
53 54 71 70
54 55 72 71
55 56 73 72
56 57 74 73
57 58 75 74
58 59 76 75
59 60 77 76
60 61 78 77
61 62 79 78
62 63 80 79
63 64 81 80
64 65 82 81
65 66 83 82
66 67 84 83
67 68 85 84
69 70 87 86
70 71 88 87
71 72 89 88
72 73 90 89
73 74 91 90
74 75 92 91
75 76 93 92
76 77 94 93
77 78 95 94
78 79 96 95
79 80 97 96
80 81 98 97
81 82 99 98
82 83 100 99
83 84 101 100
84 85 102 101
86 87 104 103
87 88 105 104
88 89 106 105
89 90 107 106
90 91 108 107
91 92 109 108
92 93 110 109
93 94 111 110
94 95 112 111
95 96 113 112
96 97 114 113
97 98 115 114
98 99 116 115
99 100 117 116
100 101 118 117
101 102 119 118
103 104 121 120
104 105 122 121
105 106 123 122
106 107 124 123
107 108 125 124
108 109 126 125
109 110 127 126
110 111 128 127
111 112 129 128
112 113 130 129
113 114 131 130
114 115 132 131
115 116 133 132
116 117 134 133
117 118 135 134
118 119 136 135
120 121 138 137
121 122 139 138
122 123 140 139
123 124 141 140
124 125 142 141
125 126 143 142
126 127 144 143
127 128 145 144
128 129 146 145
129 130 147 146
130 131 148 147
131 132 149 148
132 133 150 149
133 134 151 150
134 135 152 151
135 136 153 152
