TITLE = "Solution"
VARIABLES = x, y, u, v, psiu, psiv, t, stress
ZONE T="structure" N=153 E=128 F=FEBLOCK ET=QUADRILATERAL VARLOCATION=([7,8]=cellcentered)
0.000000e+00
1.250000e+01
2.500000e+01
3.750000e+01
5.000000e+01
6.250000e+01
7.500000e+01
8.750000e+01
1.000000e+02
1.125000e+02
1.250000e+02
1.375000e+02
1.500000e+02
1.625000e+02
1.750000e+02
1.875000e+02
2.000000e+02
0.000000e+00
1.250000e+01
2.500000e+01
3.750000e+01
5.000000e+01
6.250000e+01
7.500000e+01
8.750000e+01
1.000000e+02
1.125000e+02
1.250000e+02
1.375000e+02
1.500000e+02
1.625000e+02
1.750000e+02
1.875000e+02
2.000000e+02
0.000000e+00
1.250000e+01
2.500000e+01
3.750000e+01
5.000000e+01
6.250000e+01
7.500000e+01
8.750000e+01
1.000000e+02
1.125000e+02
1.250000e+02
1.375000e+02
1.500000e+02
1.625000e+02
1.750000e+02
1.875000e+02
2.000000e+02
0.000000e+00
1.250000e+01
2.500000e+01
3.750000e+01
5.000000e+01
6.250000e+01
7.500000e+01
8.750000e+01
1.000000e+02
1.125000e+02
1.250000e+02
1.375000e+02
1.500000e+02
1.625000e+02
1.750000e+02
1.875000e+02
2.000000e+02
0.000000e+00
1.250000e+01
2.500000e+01
3.750000e+01
5.000000e+01
6.250000e+01
7.500000e+01
8.750000e+01
1.000000e+02
1.125000e+02
1.250000e+02
1.375000e+02
1.500000e+02
1.625000e+02
1.750000e+02
1.875000e+02
2.000000e+02
0.000000e+00
1.250000e+01
2.500000e+01
3.750000e+01
5.000000e+01
6.250000e+01
7.500000e+01
8.750000e+01
1.000000e+02
1.125000e+02
1.250000e+02
1.375000e+02
1.500000e+02
1.625000e+02
1.750000e+02
1.875000e+02
2.000000e+02
0.000000e+00
1.250000e+01
2.500000e+01
3.750000e+01
5.000000e+01
6.250000e+01
7.500000e+01
8.750000e+01
1.000000e+02
1.125000e+02
1.250000e+02
1.375000e+02
1.500000e+02
1.625000e+02
1.750000e+02
1.875000e+02
2.000000e+02
0.000000e+00
1.250000e+01
2.500000e+01
3.750000e+01
5.000000e+01
6.250000e+01
7.500000e+01
8.750000e+01
1.000000e+02
1.125000e+02
1.250000e+02
1.375000e+02
1.500000e+02
1.625000e+02
1.750000e+02
1.875000e+02
2.000000e+02
0.000000e+00
1.250000e+01
2.500000e+01
3.750000e+01
5.000000e+01
6.250000e+01
7.500000e+01
8.750000e+01
1.000000e+02
1.125000e+02
1.250000e+02
1.375000e+02
1.500000e+02
1.625000e+02
1.750000e+02
1.875000e+02
2.000000e+02
0.000000e+00
0.000000e+00
0.000000e+00
0.000000e+00
0.000000e+00
0.000000e+00
0.000000e+00
0.000000e+00
0.000000e+00
0.000000e+00
0.000000e+00
0.000000e+00
0.000000e+00
0.000000e+00
0.000000e+00
0.000000e+00
0.000000e+00
1.250000e+01
1.250000e+01
1.250000e+01
1.250000e+01
1.250000e+01
1.250000e+01
1.250000e+01
1.250000e+01
1.250000e+01
1.250000e+01
1.250000e+01
1.250000e+01
1.250000e+01
1.250000e+01
1.250000e+01
1.250000e+01
1.250000e+01
2.500000e+01
2.500000e+01
2.500000e+01
2.500000e+01
2.500000e+01
2.500000e+01
2.500000e+01
2.500000e+01
2.500000e+01
2.500000e+01
2.500000e+01
2.500000e+01
2.500000e+01
2.500000e+01
2.500000e+01
2.500000e+01
2.500000e+01
3.750000e+01
3.750000e+01
3.750000e+01
3.750000e+01
3.750000e+01
3.750000e+01
3.750000e+01
3.750000e+01
3.750000e+01
3.750000e+01
3.750000e+01
3.750000e+01
3.750000e+01
3.750000e+01
3.750000e+01
3.750000e+01
3.750000e+01
5.000000e+01
5.000000e+01
5.000000e+01
5.000000e+01
5.000000e+01
5.000000e+01
5.000000e+01
5.000000e+01
5.000000e+01
5.000000e+01
5.000000e+01
5.000000e+01
5.000000e+01
5.000000e+01
5.000000e+01
5.000000e+01
5.000000e+01
6.250000e+01
6.250000e+01
6.250000e+01
6.250000e+01
6.250000e+01
6.250000e+01
6.250000e+01
6.250000e+01
6.250000e+01
6.250000e+01
6.250000e+01
6.250000e+01
6.250000e+01
6.250000e+01
6.250000e+01
6.250000e+01
6.250000e+01
7.500000e+01
7.500000e+01
7.500000e+01
7.500000e+01
7.500000e+01
7.500000e+01
7.500000e+01
7.500000e+01
7.500000e+01
7.500000e+01
7.500000e+01
7.500000e+01
7.500000e+01
7.500000e+01
7.500000e+01
7.500000e+01
7.500000e+01
8.750000e+01
8.750000e+01
8.750000e+01
8.750000e+01
8.750000e+01
8.750000e+01
8.750000e+01
8.750000e+01
8.750000e+01
8.750000e+01
8.750000e+01
8.750000e+01
8.750000e+01
8.750000e+01
8.750000e+01
8.750000e+01
8.750000e+01
1.000000e+02
1.000000e+02
1.000000e+02
1.000000e+02
1.000000e+02
1.000000e+02
1.000000e+02
1.000000e+02
1.000000e+02
1.000000e+02
1.000000e+02
1.000000e+02
1.000000e+02
1.000000e+02
1.000000e+02
1.000000e+02
1.000000e+02
0.000000e+00
-1.026765e+00
-1.686486e+00
-2.407396e+00
-3.104954e+00
-3.753469e+00
-4.391708e+00
-4.992896e+00
-5.670719e+00
-6.383208e+00
-7.060570e+00
-7.745939e+00
-8.477158e+00
-9.238897e+00
-9.955454e+00
-1.062938e+01
-1.107821e+01
0.000000e+00
-4.697150e-01
-9.239731e-01
-1.416056e+00
-1.949138e+00
-2.446937e+00
-2.943565e+00
-3.428318e+00
-3.945794e+00
-4.480034e+00
-4.974994e+00
-5.468387e+00
-5.980113e+00
-6.462395e+00
-6.776765e+00
-6.846018e+00
-7.006540e+00
0.000000e+00
-1.581589e-01
-3.682317e-01
-6.618658e-01
-1.021519e+00
-1.363491e+00
-1.731024e+00
-2.096040e+00
-2.449215e+00
-2.787628e+00
-3.101248e+00
-3.406157e+00
-3.681987e+00
-3.875355e+00
-3.922294e+00
-3.899585e+00
-4.061748e+00
0.000000e+00
-7.988827e-02
-1.666791e-01
-3.236886e-01
-4.745038e-01
-6.530158e-01
-8.306201e-01
-9.911608e-01
-1.143793e+00
-1.284943e+00
-1.427619e+00
-1.548331e+00
-1.614682e+00
-1.606581e+00
-1.549775e+00
-1.554720e+00
-1.687165e+00
0.000000e+00
-2.406952e-03
-5.032425e-03
-7.379437e-03
-8.841301e-03
-8.001400e-03
-3.065827e-03
7.862960e-03
2.806077e-02
5.885277e-02
1.041354e-01
1.710082e-01
2.660910e-01
3.847543e-01
4.848416e-01
4.941424e-01
3.935336e-01
0.000000e+00
7.576489e-02
1.592105e-01
3.124986e-01
4.607969e-01
6.402953e-01
8.233298e-01
1.000770e+00
1.183809e+00
1.378171e+00
1.604550e+00
1.842680e+00
2.063971e+00
2.252160e+00
2.380212e+00
2.409666e+00
2.351065e+00
0.000000e+00
1.563668e-01
3.652024e-01
6.571939e-01
1.015374e+00
1.355227e+00
1.722554e+00
2.091099e+00
2.454987e+00
2.817011e+00
3.177076e+00
3.542840e+00
3.871435e+00
4.126991e+00
4.290131e+00
4.347858e+00
4.332409e+00
0.000000e+00
4.694559e-01
9.236863e-01
1.414561e+00
1.947457e+00
2.443236e+00
2.935735e+00
3.418514e+00
3.929022e+00
4.448040e+00
4.931233e+00
5.396473e+00
5.813072e+00
6.130057e+00
6.329014e+00
6.416769e+00
6.432755e+00
0.000000e+00
1.027782e+00
1.688770e+00
2.410550e+00
3.109607e+00
3.760537e+00
4.395428e+00
4.998293e+00
5.665067e+00
6.344102e+00
6.972516e+00
7.559573e+00
8.062687e+00
8.416554e+00
8.601817e+00
8.651680e+00
8.651508e+00
0.000000e+00
-6.293779e-01
-1.361300e+00
-2.346510e+00
-3.507406e+00
-4.821188e+00
-6.291400e+00
-7.901199e+00
-9.676132e+00
-1.161559e+01
-1.372334e+01
-1.602484e+01
-1.852497e+01
-2.121382e+01
-2.413367e+01
-2.751696e+01
-3.246716e+01
0.000000e+00
-4.258203e-01
-1.200228e+00
-2.160445e+00
-3.332012e+00
-4.649273e+00
-6.125975e+00
-7.734314e+00
-9.493890e+00
-1.143750e+01
-1.355128e+01
-1.584881e+01
-1.834463e+01
-2.105842e+01
-2.402135e+01
-2.740938e+01
-3.153300e+01
0.000000e+00
-3.954154e-01
-1.096798e+00
-2.053322e+00
-3.206081e+00
-4.519418e+00
-5.999213e+00
-7.610280e+00
-9.377833e+00
-1.132372e+01
-1.344525e+01
-1.575208e+01
-1.826313e+01
-2.101540e+01
-2.401304e+01
-2.721648e+01
-3.023040e+01
0.000000e+00
-4.463165e-01
-1.080364e+00
-2.024529e+00
-3.137393e+00
-4.440189e+00
-5.920238e+00
-7.544967e+00
-9.329598e+00
-1.127598e+01
-1.341167e+01
-1.574053e+01
-1.826694e+01
-2.101691e+01
-2.395336e+01
-2.687140e+01
-2.942205e+01
0.000000e+00
-4.505604e-01
-1.097765e+00
-2.008432e+00
-3.125801e+00
-4.419048e+00
-5.898830e+00
-7.540689e+00
-9.332834e+00
-1.128840e+01
-1.343879e+01
-1.578556e+01
-1.830812e+01
-2.100532e+01
-2.381545e+01
-2.652523e+01
-2.884024e+01
0.000000e+00
-4.457721e-01
-1.081333e+00
-2.028006e+00
-3.144098e+00
-4.453561e+00
-5.940709e+00
-7.579520e+00
-9.379127e+00
-1.134299e+01
-1.350221e+01
-1.585199e+01
-1.835800e+01
-2.098831e+01
-2.367283e+01
-2.623604e+01
-2.844666e+01
0.000000e+00
-3.952056e-01
-1.098903e+00
-2.058837e+00
-3.217710e+00
-4.540943e+00
-6.033562e+00
-7.665481e+00
-9.459500e+00
-1.143532e+01
-1.359319e+01
-1.593392e+01
-1.841909e+01
-2.099351e+01
-2.357979e+01
-2.604591e+01
-2.824891e+01
0.000000e+00
-4.258259e-01
-1.202339e+00
-2.166203e+00
-3.344399e+00
-4.672056e+00
-6.163810e+00
-7.794494e+00
-9.585605e+00
-1.156551e+01
-1.371752e+01
-1.604338e+01
-1.850534e+01
-2.103635e+01
-2.355502e+01
-2.596055e+01
-2.819825e+01
0.000000e+00
-6.296963e-01
-1.363463e+00
-2.352497e+00
-3.520029e+00
-4.843833e+00
-6.329151e+00
-7.961365e+00
-9.764744e+00
-1.173873e+01
-1.388027e+01
-1.619020e+01
-1.862222e+01
-2.110886e+01
-2.357669e+01
-2.594445e+01
-2.819845e+01


0.000000e+00
1.411696e-05
2.460953e-05
3.721569e-05
5.146772e-05
6.567800e-05
7.996449e-05
9.390717e-05
1.092945e-04
1.237497e-04
1.352234e-04
1.446671e-04
1.519208e-04
1.564797e-04
1.596180e-04
1.634765e-04
1.683470e-04
0.000000e+00
9.943493e-06
1.958542e-05
2.886747e-05
4.053821e-05
5.187254e-05
6.298813e-05
7.425000e-05
8.599334e-05
9.618483e-05
1.035701e-04
1.093491e-04
1.129176e-04
1.130598e-04
1.123229e-04
1.154601e-04
1.212130e-04
0.000000e+00
8.079380e-06
1.526934e-05
2.163203e-05
3.008613e-05
3.795712e-05
4.573866e-05
5.332823e-05
6.004167e-05
6.521736e-05
6.887102e-05
7.143649e-05
7.241873e-05
7.164626e-05
7.134910e-05
7.452594e-05
8.026549e-05
0.000000e+00
4.533598e-06
7.243343e-06
1.143131e-05
1.518508e-05
1.909227e-05
2.304214e-05
2.650576e-05
2.927176e-05
3.116074e-05
3.233337e-05
3.267911e-05
3.244847e-05
3.249969e-05
3.359953e-05
3.643977e-05
4.066692e-05
0.000000e+00
-3.574777e-08
-8.534013e-08
-1.354720e-07
-1.874712e-07
-2.392387e-07
-3.115652e-07
-3.941840e-07
-5.545624e-07
-8.997629e-07
-1.619150e-06
-2.602341e-06
-3.441074e-06
-3.555804e-06
-2.681376e-06
-1.378490e-06
5.298994e-07
0.000000e+00
-4.608817e-06
-7.398301e-06
-1.168794e-05
-1.550316e-05
-1.949365e-05
-2.348670e-05
-2.703692e-05
-2.987347e-05
-3.191191e-05
-3.363316e-05
-3.514553e-05
-3.625562e-05
-3.685163e-05
-3.736873e-05
-3.779844e-05
-3.746807e-05
0.000000e+00
-8.130671e-06
-1.536846e-05
-2.176723e-05
-3.029088e-05
-3.820420e-05
-4.600908e-05
-5.359051e-05
-6.021725e-05
-6.504783e-05
-6.795003e-05
-6.952309e-05
-7.052201e-05
-7.144671e-05
-7.242592e-05
-7.328434e-05
-7.354180e-05
0.000000e+00
-9.960512e-06
-1.959819e-05
-2.883216e-05
-4.052012e-05
-5.186685e-05
-6.294324e-05
-7.424099e-05
-8.602953e-05
-9.604466e-05
-1.024020e-04
-1.058630e-04
-1.076270e-04
-1.088214e-04
-1.096620e-04
-1.100838e-04
-1.102030e-04
0.000000e+00
-1.411708e-05
-2.455564e-05
-3.704613e-05
-5.120070e-05
-6.535923e-05
-7.946157e-05
-9.341117e-05
-1.088396e-04
-1.233134e-04
-1.343093e-04
-1.415350e-04
-1.455750e-04
-1.473471e-04
-1.478526e-04
-1.477899e-04
-1.477070e-04
0.000000e+00
1.194318e-05
2.025699e-05
3.207849e-05
4.725419e-05
6.488678e-05
8.601271e-05
1.106041e-04
1.389873e-04
1.698176e-04
2.033053e-04
2.398444e-04
2.783141e-04
3.191958e-04
3.673664e-04
4.242758e-04
4.822116e-04
0.000000e+00
6.970643e-06
1.581297e-05
2.624205e-05
4.096690e-05
5.858518e-05
7.976429e-05
1.041762e-04
1.324013e-04
1.643540e-04
1.991143e-04
2.366334e-04
2.765174e-04
3.185341e-04
3.640347e-04
4.172569e-04
4.733379e-04
0.000000e+00
3.348476e-06
1.151229e-05
2.135656e-05
3.535750e-05
5.324626e-05
7.452684e-05
9.935818e-05
1.282205e-04
1.610218e-04
1.966394e-04
2.349001e-04
2.758041e-04
3.181744e-04
3.597671e-04
4.077340e-04
4.607436e-04
0.000000e+00
2.168424e-06
9.059492e-06
1.908631e-05
3.290576e-05
5.084963e-05
7.242106e-05
9.780604e-05
1.271860e-04
1.601402e-04
1.959454e-04
2.343352e-04
2.754461e-04
3.175919e-04
3.569723e-04
3.998592e-04
4.482015e-04
0.000000e+00
1.791607e-06
8.416319e-06
1.832095e-05
3.225956e-05
5.008688e-05
7.179342e-05
9.744695e-05
1.270653e-04
1.600522e-04
1.958791e-04
2.343236e-04
2.752503e-04
3.173392e-04
3.567607e-04
3.964925e-04
4.394435e-04
0.000000e+00
2.191416e-06
9.086825e-06
1.908307e-05
3.283384e-05
5.070825e-05
7.221404e-05
9.762514e-05
1.271828e-04
1.603428e-04
1.964751e-04
2.351214e-04
2.758669e-04
3.173535e-04
3.575098e-04
3.962678e-04
4.349195e-04
0.000000e+00
3.386682e-06
1.155837e-05
2.133046e-05
3.523236e-05
5.299099e-05
7.415066e-05
9.897999e-05
1.280837e-04
1.613525e-04
1.977149e-04
2.365054e-04
2.769005e-04
3.176862e-04
3.575944e-04
3.961360e-04
4.334505e-04
0.000000e+00
7.019043e-06
1.585738e-05
2.621912e-05
4.083838e-05
5.832767e-05
7.934932e-05
1.037346e-04
1.322008e-04
1.646048e-04
1.999956e-04
2.380227e-04
2.777250e-04
3.179469e-04
3.575124e-04
3.959359e-04
4.333892e-04
0.000000e+00
1.199434e-05
2.028461e-05
3.204447e-05
4.714297e-05
6.463809e-05
8.560858e-05
1.102286e-04
1.388180e-04
1.699197e-04
2.034697e-04
2.398646e-04
2.785274e-04
3.181675e-04
3.575112e-04
3.958492e-04
4.334712e-04


6.357268e+00
5.868758e+00
5.867957e+00
5.012491e+00
4.476425e+00
4.541801e+00
4.465674e+00
4.471757e+00
4.403808e+00
4.658792e+00
5.510278e+00
6.665234e+00
7.441078e+00
6.956746e+00
5.458356e+00
4.420310e+00
7.918718e+00
8.010345e+00
7.913232e+00
7.563683e+00
7.169910e+00
7.139567e+00
6.641026e+00
5.826309e+00
5.370610e+00
5.516604e+00
6.298036e+00
7.248830e+00
7.752111e+00
6.983611e+00
5.320465e+00
4.186149e+00
9.359509e+00
9.475460e+00
9.657092e+00
9.313787e+00
9.136411e+00
9.070700e+00
8.583559e+00
7.779562e+00
7.206325e+00
7.239526e+00
7.542790e+00
7.855321e+00
7.942837e+00
7.138322e+00
5.589437e+00
4.555683e+00
9.648120e+00
9.843580e+00
9.917979e+00
9.641732e+00
9.343571e+00
9.346350e+00
9.400584e+00
9.190164e+00
8.918433e+00
8.678814e+00
8.234614e+00
7.744564e+00
7.567790e+00
7.240168e+00
6.418123e+00
5.764088e+00
9.636214e+00
9.834535e+00
9.895616e+00
9.586754e+00
9.265912e+00
9.271969e+00
9.339833e+00
9.156090e+00
8.922521e+00
8.650732e+00
8.011080e+00
7.256547e+00
7.073988e+00
7.329932e+00
7.377449e+00
7.242532e+00
9.324743e+00
9.451331e+00
9.606978e+00
9.192934e+00
8.964817e+00
8.892264e+00
8.435788e+00
7.692175e+00
7.227156e+00
7.285381e+00
7.303031e+00
7.088849e+00
7.155490e+00
7.691904e+00
8.219007e+00
8.438242e+00
7.875787e+00
7.983729e+00
7.872982e+00
7.471351e+00
7.017769e+00
6.976770e+00
6.495333e+00
5.738212e+00
5.420695e+00
5.775225e+00
6.582418e+00
7.227976e+00
7.723006e+00
8.331528e+00
8.903343e+00
9.182303e+00
6.316913e+00
5.849673e+00
5.855587e+00
4.973527e+00
4.399070e+00
4.434855e+00
4.382362e+00
4.418081e+00
4.471110e+00
5.040686e+00
6.212040e+00
7.375776e+00
8.200294e+00
8.829897e+00
9.308461e+00
9.538071e+00


-9.561758e-01
-1.082420e-01
-2.883472e-01
-3.289576e-01
-1.571795e-01
-1.348624e-01
-4.633530e-02
-2.635409e-01
-3.727535e-01
-2.174600e-01
-2.294307e-01
-3.570955e-01
-3.378842e-01
8.711629e-02
5.056735e-01
-7.112326e-01
5.734013e-01
4.854994e-01
3.269135e-01
1.570327e-01
2.360474e-01
1.816829e-01
1.963706e-01
1.578398e-01
1.567597e-01
2.639716e-01
2.822535e-01
3.128202e-01
4.870285e-01
7.873155e-01
7.240212e-01
-1.489805e+00
7.240215e-01
4.938149e-01
1.158501e-01
4.463534e-02
5.198925e-02
3.874122e-02
1.765785e-01
2.792490e-01
3.521539e-01
3.740986e-01
3.786016e-01
4.246411e-01
4.456043e-01
3.509407e-01
1.006022e-01
-4.145279e-01
7.347579e-01
5.728994e-01
2.459822e-01
1.697275e-01
1.206159e-01
1.194552e-01
1.796564e-01
2.213289e-01
2.465207e-01
2.212177e-01
2.083065e-01
1.819046e-01
2.730753e-02
-1.862623e-01
-1.169951e-01
5.479463e-02
7.366915e-01
5.755834e-01
2.521127e-01
1.755086e-01
1.195028e-01
1.066046e-01
1.412645e-01
1.565736e-01
1.455525e-01
7.267020e-02
1.484110e-02
-2.977952e-02
-1.461069e-01
-2.281799e-01
1.544115e-02
4.394686e-01
7.282226e-01
4.986066e-01
1.250262e-01
5.225098e-02
4.559585e-02
1.181849e-02
1.024457e-01
1.520618e-01
1.445289e-01
3.961097e-02
-9.295672e-02
-1.100440e-01
-5.992258e-02
6.644899e-02
3.847981e-01
7.793600e-01
5.762194e-01
4.867752e-01
3.299621e-01
1.566141e-01
2.355771e-01
1.744184e-01
1.658617e-01
9.891831e-02
4.671616e-02
4.951446e-02
-3.022222e-02
1.063748e-02
2.014462e-01
4.546996e-01
7.449143e-01
9.561301e-01
-9.577283e-01
-1.106752e-01
-2.878400e-01
-3.321315e-01
-1.583977e-01
-1.221910e-01
-4.875478e-02
-2.341829e-01
-2.871637e-01
-1.265160e-01
-3.412499e-02
1.777882e-01
5.212530e-01
8.035829e-01
9.570591e-01
9.989935e-01
1 2 19 18
2 3 20 19
3 4 21 20
4 5 22 21
5 6 23 22
6 7 24 23
7 8 25 24
8 9 26 25
9 10 27 26
10 11 28 27
11 12 29 28
12 13 30 29
13 14 31 30
14 15 32 31
15 16 33 32
16 17 34 33
18 19 36 35
19 20 37 36
20 21 38 37
21 22 39 38
22 23 40 39
23 24 41 40
24 25 42 41
25 26 43 42
26 27 44 43
27 28 45 44
28 29 46 45
29 30 47 46
30 31 48 47
31 32 49 48
32 33 50 49
33 34 51 50
35 36 53 52
36 37 54 53
37 38 55 54
38 39 56 55
39 40 57 56
40 41 58 57
41 42 59 58
42 43 60 59
43 44 61 60
44 45 62 61
45 46 63 62
46 47 64 63
47 48 65 64
48 49 66 65
49 50 67 66
50 51 68 67
52 53 70 69
53 54 71 70
54 55 72 71
55 56 73 72
56 57 74 73
57 58 75 74
58 59 76 75
59 60 77 76
60 61 78 77
61 62 79 78
62 63 80 79
63 64 81 80
64 65 82 81
65 66 83 82
66 67 84 83
67 68 85 84
69 70 87 86
70 71 88 87
71 72 89 88
72 73 90 89
73 74 91 90
74 75 92 91
75 76 93 92
76 77 94 93
77 78 95 94
78 79 96 95
79 80 97 96
80 81 98 97
81 82 99 98
82 83 100 99
83 84 101 100
84 85 102 101
86 87 104 103
87 88 105 104
88 89 106 105
89 90 107 106
90 91 108 107
91 92 109 108
92 93 110 109
93 94 111 110
94 95 112 111
95 96 113 112
96 97 114 113
97 98 115 114
98 99 116 115
99 100 117 116
100 101 118 117
101 102 119 118
103 104 121 120
104 105 122 121
105 106 123 122
106 107 124 123
107 108 125 124
108 109 126 125
109 110 127 126
110 111 128 127
111 112 129 128
112 113 130 129
113 114 131 130
114 115 132 131
115 116 133 132
116 117 134 133
117 118 135 134
118 119 136 135
120 121 138 137
121 122 139 138
122 123 140 139
123 124 141 140
124 125 142 141
125 126 143 142
126 127 144 143
127 128 145 144
128 129 146 145
129 130 147 146
130 131 148 147
131 132 149 148
132 133 150 149
133 134 151 150
134 135 152 151
135 136 153 152
