TITLE = "Solution"
VARIABLES = x, y, u, v, psiu, psiv, t, stress
ZONE T="structure" N=153 E=128 F=FEBLOCK ET=QUADRILATERAL VARLOCATION=([7,8]=cellcentered)
0.000000e+00
1.250000e+01
2.500000e+01
3.750000e+01
5.000000e+01
6.250000e+01
7.500000e+01
8.750000e+01
1.000000e+02
1.125000e+02
1.250000e+02
1.375000e+02
1.500000e+02
1.625000e+02
1.750000e+02
1.875000e+02
2.000000e+02
0.000000e+00
1.250000e+01
2.500000e+01
3.750000e+01
5.000000e+01
6.250000e+01
7.500000e+01
8.750000e+01
1.000000e+02
1.125000e+02
1.250000e+02
1.375000e+02
1.500000e+02
1.625000e+02
1.750000e+02
1.875000e+02
2.000000e+02
0.000000e+00
1.250000e+01
2.500000e+01
3.750000e+01
5.000000e+01
6.250000e+01
7.500000e+01
8.750000e+01
1.000000e+02
1.125000e+02
1.250000e+02
1.375000e+02
1.500000e+02
1.625000e+02
1.750000e+02
1.875000e+02
2.000000e+02
0.000000e+00
1.250000e+01
2.500000e+01
3.750000e+01
5.000000e+01
6.250000e+01
7.500000e+01
8.750000e+01
1.000000e+02
1.125000e+02
1.250000e+02
1.375000e+02
1.500000e+02
1.625000e+02
1.750000e+02
1.875000e+02
2.000000e+02
0.000000e+00
1.250000e+01
2.500000e+01
3.750000e+01
5.000000e+01
6.250000e+01
7.500000e+01
8.750000e+01
1.000000e+02
1.125000e+02
1.250000e+02
1.375000e+02
1.500000e+02
1.625000e+02
1.750000e+02
1.875000e+02
2.000000e+02
0.000000e+00
1.250000e+01
2.500000e+01
3.750000e+01
5.000000e+01
6.250000e+01
7.500000e+01
8.750000e+01
1.000000e+02
1.125000e+02
1.250000e+02
1.375000e+02
1.500000e+02
1.625000e+02
1.750000e+02
1.875000e+02
2.000000e+02
0.000000e+00
1.250000e+01
2.500000e+01
3.750000e+01
5.000000e+01
6.250000e+01
7.500000e+01
8.750000e+01
1.000000e+02
1.125000e+02
1.250000e+02
1.375000e+02
1.500000e+02
1.625000e+02
1.750000e+02
1.875000e+02
2.000000e+02
0.000000e+00
1.250000e+01
2.500000e+01
3.750000e+01
5.000000e+01
6.250000e+01
7.500000e+01
8.750000e+01
1.000000e+02
1.125000e+02
1.250000e+02
1.375000e+02
1.500000e+02
1.625000e+02
1.750000e+02
1.875000e+02
2.000000e+02
0.000000e+00
1.250000e+01
2.500000e+01
3.750000e+01
5.000000e+01
6.250000e+01
7.500000e+01
8.750000e+01
1.000000e+02
1.125000e+02
1.250000e+02
1.375000e+02
1.500000e+02
1.625000e+02
1.750000e+02
1.875000e+02
2.000000e+02
0.000000e+00
0.000000e+00
0.000000e+00
0.000000e+00
0.000000e+00
0.000000e+00
0.000000e+00
0.000000e+00
0.000000e+00
0.000000e+00
0.000000e+00
0.000000e+00
0.000000e+00
0.000000e+00
0.000000e+00
0.000000e+00
0.000000e+00
1.250000e+01
1.250000e+01
1.250000e+01
1.250000e+01
1.250000e+01
1.250000e+01
1.250000e+01
1.250000e+01
1.250000e+01
1.250000e+01
1.250000e+01
1.250000e+01
1.250000e+01
1.250000e+01
1.250000e+01
1.250000e+01
1.250000e+01
2.500000e+01
2.500000e+01
2.500000e+01
2.500000e+01
2.500000e+01
2.500000e+01
2.500000e+01
2.500000e+01
2.500000e+01
2.500000e+01
2.500000e+01
2.500000e+01
2.500000e+01
2.500000e+01
2.500000e+01
2.500000e+01
2.500000e+01
3.750000e+01
3.750000e+01
3.750000e+01
3.750000e+01
3.750000e+01
3.750000e+01
3.750000e+01
3.750000e+01
3.750000e+01
3.750000e+01
3.750000e+01
3.750000e+01
3.750000e+01
3.750000e+01
3.750000e+01
3.750000e+01
3.750000e+01
5.000000e+01
5.000000e+01
5.000000e+01
5.000000e+01
5.000000e+01
5.000000e+01
5.000000e+01
5.000000e+01
5.000000e+01
5.000000e+01
5.000000e+01
5.000000e+01
5.000000e+01
5.000000e+01
5.000000e+01
5.000000e+01
5.000000e+01
6.250000e+01
6.250000e+01
6.250000e+01
6.250000e+01
6.250000e+01
6.250000e+01
6.250000e+01
6.250000e+01
6.250000e+01
6.250000e+01
6.250000e+01
6.250000e+01
6.250000e+01
6.250000e+01
6.250000e+01
6.250000e+01
6.250000e+01
7.500000e+01
7.500000e+01
7.500000e+01
7.500000e+01
7.500000e+01
7.500000e+01
7.500000e+01
7.500000e+01
7.500000e+01
7.500000e+01
7.500000e+01
7.500000e+01
7.500000e+01
7.500000e+01
7.500000e+01
7.500000e+01
7.500000e+01
8.750000e+01
8.750000e+01
8.750000e+01
8.750000e+01
8.750000e+01
8.750000e+01
8.750000e+01
8.750000e+01
8.750000e+01
8.750000e+01
8.750000e+01
8.750000e+01
8.750000e+01
8.750000e+01
8.750000e+01
8.750000e+01
8.750000e+01
1.000000e+02
1.000000e+02
1.000000e+02
1.000000e+02
1.000000e+02
1.000000e+02
1.000000e+02
1.000000e+02
1.000000e+02
1.000000e+02
1.000000e+02
1.000000e+02
1.000000e+02
1.000000e+02
1.000000e+02
1.000000e+02
1.000000e+02
0.000000e+00
-1.027363e+00
-1.690814e+00
-2.418364e+00
-3.110816e+00
-3.755395e+00
-4.421266e+00
-5.004249e+00
-5.658583e+00
-6.375030e+00
-7.057144e+00
-7.743975e+00
-8.463166e+00
-9.196486e+00
-9.999340e+00
-1.070350e+01
-1.114777e+01
0.000000e+00
-4.684767e-01
-9.239153e-01
-1.420932e+00
-1.944351e+00
-2.440656e+00
-2.951311e+00
-3.430579e+00
-3.933688e+00
-4.476092e+00
-4.975042e+00
-5.469286e+00
-5.973441e+00
-6.450034e+00
-6.820327e+00
-6.922805e+00
-7.092087e+00
0.000000e+00
-1.561558e-01
-3.644859e-01
-6.577949e-01
-1.010516e+00
-1.350920e+00
-1.722257e+00
-2.091999e+00
-2.447013e+00
-2.793191e+00
-3.105878e+00
-3.411157e+00
-3.689277e+00
-3.887023e+00
-3.950462e+00
-3.929343e+00
-4.079008e+00
0.000000e+00
-7.899581e-02
-1.645324e-01
-3.196131e-01
-4.686040e-01
-6.448736e-01
-8.299305e-01
-9.929541e-01
-1.152823e+00
-1.291547e+00
-1.430152e+00
-1.551735e+00
-1.625735e+00
-1.626851e+00
-1.562490e+00
-1.555182e+00
-1.692454e+00
0.000000e+00
-2.018049e-03
-4.280621e-03
-6.349956e-03
-7.468496e-03
-6.176469e-03
-4.853416e-04
1.188683e-02
3.285638e-02
6.371271e-02
1.077907e-01
1.727658e-01
2.655165e-01
3.805404e-01
4.721578e-01
4.799538e-01
3.775969e-01
0.000000e+00
7.567971e-02
1.583936e-01
3.102974e-01
4.573710e-01
6.345946e-01
8.260744e-01
1.006018e+00
1.197467e+00
1.388067e+00
1.607532e+00
1.843260e+00
2.068906e+00
2.262064e+00
2.391262e+00
2.417069e+00
2.356641e+00
0.000000e+00
1.547196e-01
3.620686e-01
6.543000e-01
1.005488e+00
1.344002e+00
1.714497e+00
2.086404e+00
2.450773e+00
2.821597e+00
3.178455e+00
3.541390e+00
3.874178e+00
4.137379e+00
4.306644e+00
4.366960e+00
4.351430e+00
0.000000e+00
4.683642e-01
9.237181e-01
1.420202e+00
1.943042e+00
2.437899e+00
2.945801e+00
3.421436e+00
3.916069e+00
4.446504e+00
4.934469e+00
5.398599e+00
5.817338e+00
6.139672e+00
6.344225e+00
6.435457e+00
6.452214e+00
0.000000e+00
1.028478e+00
1.692964e+00
2.421668e+00
3.115760e+00
3.762416e+00
4.428641e+00
5.010404e+00
5.653663e+00
6.341815e+00
6.976913e+00
7.565855e+00
8.073557e+00
8.432385e+00
8.620872e+00
8.671830e+00
8.671811e+00
0.000000e+00
-6.293126e-01
-1.365035e+00
-2.354989e+00
-3.520368e+00
-4.846399e+00
-6.335677e+00
-7.954581e+00
-9.733915e+00
-1.167805e+01
-1.378351e+01
-1.608402e+01
-1.858098e+01
-2.127386e+01
-2.420645e+01
-2.756998e+01
-3.252850e+01
0.000000e+00
-4.253721e-01
-1.202266e+00
-2.169697e+00
-3.346606e+00
-4.671373e+00
-6.167914e+00
-7.793757e+00
-9.553674e+00
-1.149864e+01
-1.361000e+01
-1.590862e+01
-1.840543e+01
-2.110745e+01
-2.407910e+01
-2.747946e+01
-3.153302e+01
0.000000e+00
-3.955132e-01
-1.098145e+00
-2.063834e+00
-3.221666e+00
-4.538514e+00
-6.041115e+00
-7.668037e+00
-9.439279e+00
-1.138508e+01
-1.350211e+01
-1.581037e+01
-1.832314e+01
-2.105508e+01
-2.406782e+01
-2.731493e+01
-3.036344e+01
0.000000e+00
-4.474958e-01
-1.083276e+00
-2.034180e+00
-3.154002e+00
-4.456997e+00
-5.960619e+00
-7.597045e+00
-9.393900e+00
-1.133844e+01
-1.346582e+01
-1.579329e+01
-1.832490e+01
-2.106345e+01
-2.401137e+01
-2.697723e+01
-2.955191e+01
0.000000e+00
-4.521382e-01
-1.101825e+00
-2.017608e+00
-3.140354e+00
-4.438530e+00
-5.934116e+00
-7.592311e+00
-9.396194e+00
-1.135118e+01
-1.348989e+01
-1.583401e+01
-1.836509e+01
-2.106790e+01
-2.387608e+01
-2.660546e+01
-2.893135e+01
0.000000e+00
-4.472438e-01
-1.084323e+00
-2.037513e+00
-3.160810e+00
-4.469157e+00
-5.981132e+00
-7.629880e+00
-9.441026e+00
-1.140279e+01
-1.355333e+01
-1.590077e+01
-1.841641e+01
-2.105753e+01
-2.374713e+01
-2.631627e+01
-2.853952e+01
0.000000e+00
-3.955839e-01
-1.100217e+00
-2.069294e+00
-3.232619e+00
-4.558344e+00
-6.074579e+00
-7.721281e+00
-9.516780e+00
-1.149307e+01
-1.364592e+01
-1.598555e+01
-1.847911e+01
-2.106478e+01
-2.365923e+01
-2.613112e+01
-2.834065e+01
0.000000e+00
-4.255968e-01
-1.204434e+00
-2.175320e+00
-3.358147e+00
-4.692483e+00
-6.204166e+00
-7.851644e+00
-9.640460e+00
-1.162301e+01
-1.377221e+01
-1.609751e+01
-1.856675e+01
-2.110840e+01
-2.363578e+01
-2.604675e+01
-2.828688e+01
0.000000e+00
-6.297916e-01
-1.367326e+00
-2.360804e+00
-3.532150e+00
-4.867716e+00
-6.372000e+00
-8.011567e+00
-9.818251e+00
-1.179817e+01
-1.393652e+01
-1.624561e+01
-1.868497e+01
-2.118202e+01
-2.365831e+01
-2.603083e+01
-2.828672e+01


0.000000e+00
1.379620e-05
2.425788e-05
3.719754e-05
5.147342e-05
6.526561e-05
7.979275e-05
9.351900e-05
1.089304e-04
1.238692e-04
1.355300e-04
1.450298e-04
1.522646e-04
1.568299e-04
1.601582e-04
1.639631e-04
1.689934e-04
0.000000e+00
9.635135e-06
1.923332e-05
2.895815e-05
4.069380e-05
5.166938e-05
6.265362e-05
7.394185e-05
8.590352e-05
9.656122e-05
1.039602e-04
1.096514e-04
1.132355e-04
1.136485e-04
1.132313e-04
1.170279e-04
1.226430e-04
0.000000e+00
7.848507e-06
1.501415e-05
2.172943e-05
3.027913e-05
3.786980e-05
4.544217e-05
5.328659e-05
6.030551e-05
6.562185e-05
6.919094e-05
7.172878e-05
7.278639e-05
7.216820e-05
7.200944e-05
7.523002e-05
8.041213e-05
0.000000e+00
4.463553e-06
7.138596e-06
1.137761e-05
1.517222e-05
1.890627e-05
2.291293e-05
2.647102e-05
2.942501e-05
3.133321e-05
3.251627e-05
3.292445e-05
3.275485e-05
3.285264e-05
3.384926e-05
3.672595e-05
4.112405e-05
0.000000e+00
-5.860146e-08
-1.309091e-07
-2.030618e-07
-2.753426e-07
-3.377001e-07
-3.889234e-07
-4.297118e-07
-5.340157e-07
-8.447859e-07
-1.543032e-06
-2.525054e-06
-3.360210e-06
-3.413067e-06
-2.430846e-06
-9.269425e-07
1.172490e-06
0.000000e+00
-4.572262e-06
-7.347751e-06
-1.171507e-05
-1.560879e-05
-1.943574e-05
-2.349997e-05
-2.708293e-05
-3.000180e-05
-3.193144e-05
-3.357723e-05
-3.512430e-05
-3.632954e-05
-3.697558e-05
-3.744366e-05
-3.777845e-05
-3.738800e-05
0.000000e+00
-7.910735e-06
-1.512702e-05
-2.189497e-05
-3.052895e-05
-3.820114e-05
-4.584600e-05
-5.369234e-05
-6.053895e-05
-6.538518e-05
-6.808783e-05
-6.959019e-05
-7.067234e-05
-7.170532e-05
-7.275416e-05
-7.364133e-05
-7.388057e-05
0.000000e+00
-9.656065e-06
-1.925497e-05
-2.896038e-05
-4.073001e-05
-5.175956e-05
-6.277407e-05
-7.408830e-05
-8.605069e-05
-9.654757e-05
-1.028642e-04
-1.062022e-04
-1.079758e-04
-1.092318e-04
-1.101183e-04
-1.105725e-04
-1.106988e-04
0.000000e+00
-1.380016e-05
-2.421608e-05
-3.707266e-05
-5.128785e-05
-6.504094e-05
-7.947606e-05
-9.315734e-05
-1.085915e-04
-1.236774e-04
-1.349487e-04
-1.422127e-04
-1.462476e-04
-1.479635e-04
-1.484314e-04
-1.483726e-04
-1.482956e-04
0.000000e+00
1.165518e-05
2.003706e-05
3.198697e-05
4.686660e-05
6.416041e-05
8.542466e-05
1.100365e-04
1.385136e-04
1.693978e-04
2.027605e-04
2.394255e-04
2.781506e-04
3.193396e-04
3.679787e-04
4.245256e-04
4.808917e-04
0.000000e+00
6.760817e-06
1.548968e-05
2.600771e-05
4.067920e-05
5.797696e-05
7.915067e-05
1.036500e-04
1.317676e-04
1.637657e-04
1.985537e-04
2.362115e-04
2.763023e-04
3.184706e-04
3.642427e-04
4.174882e-04
4.720166e-04
0.000000e+00
3.191485e-06
1.108041e-05
2.098097e-05
3.507426e-05
5.281933e-05
7.389434e-05
9.866929e-05
1.274351e-04
1.603398e-04
1.960913e-04
2.344726e-04
2.755151e-04
3.179667e-04
3.597161e-04
4.087164e-04
4.614470e-04
0.000000e+00
2.020647e-06
8.653243e-06
1.862115e-05
3.258533e-05
5.050628e-05
7.184348e-05
9.702755e-05
1.263801e-04
1.594434e-04
1.953579e-04
2.338487e-04
2.751781e-04
3.173842e-04
3.569323e-04
4.006932e-04
4.494665e-04
0.000000e+00
1.643935e-06
8.038570e-06
1.784826e-05
3.190711e-05
4.974680e-05
7.124744e-05
9.668505e-05
1.262513e-04
1.593360e-04
1.952222e-04
2.337740e-04
2.750310e-04
3.173176e-04
3.567318e-04
3.967763e-04
4.401836e-04
0.000000e+00
2.049086e-06
8.676225e-06
1.861184e-05
3.251341e-05
5.037072e-05
7.166013e-05
9.686377e-05
1.263535e-04
1.595807e-04
1.957941e-04
2.345898e-04
2.757254e-04
3.174631e-04
3.575354e-04
3.964140e-04
4.355174e-04
0.000000e+00
3.232922e-06
1.111962e-05
2.095771e-05
3.495590e-05
5.258038e-05
7.355076e-05
9.830059e-05
1.272002e-04
1.605228e-04
1.970208e-04
2.360323e-04
2.768209e-04
3.178575e-04
3.577395e-04
3.963396e-04
4.339119e-04
0.000000e+00
6.811648e-06
1.553546e-05
2.599648e-05
4.057756e-05
5.774742e-05
7.878448e-05
1.032053e-04
1.314301e-04
1.638287e-04
1.992699e-04
2.375460e-04
2.776435e-04
3.181220e-04
3.577197e-04
3.961938e-04
4.337632e-04
0.000000e+00
1.170924e-05
2.007356e-05
3.197745e-05
4.679059e-05
6.395896e-05
8.508439e-05
1.096222e-04
1.382084e-04
1.693315e-04
2.027450e-04
2.393619e-04
2.784323e-04
3.183241e-04
3.577389e-04
3.961234e-04
4.338305e-04


6.392539e+00
6.066936e+00
6.230970e+00
5.260134e+00
4.743672e+00
5.071691e+00
4.906188e+00
4.754651e+00
4.543529e+00
4.706818e+00
5.554532e+00
6.583525e+00
7.317672e+00
7.996376e+00
8.046772e+00
7.728152e+00
7.923294e+00
8.152930e+00
8.165192e+00
7.758981e+00
7.378712e+00
7.499833e+00
7.123957e+00
6.169057e+00
5.507699e+00
5.488536e+00
6.275733e+00
7.157186e+00
7.619037e+00
7.687854e+00
7.188669e+00
6.130318e+00
9.348530e+00
9.507081e+00
9.769470e+00
9.442137e+00
9.275636e+00
9.344795e+00
8.934440e+00
8.045045e+00
7.174162e+00
7.033529e+00
7.427893e+00
7.792831e+00
7.795783e+00
7.422845e+00
6.463197e+00
5.673338e+00
9.627572e+00
9.825084e+00
9.928853e+00
9.727015e+00
9.509454e+00
9.566176e+00
9.615473e+00
9.245165e+00
8.699725e+00
8.366635e+00
8.129242e+00
7.799051e+00
7.477041e+00
7.058842e+00
6.537817e+00
6.053832e+00
9.622790e+00
9.818037e+00
9.906448e+00
9.671017e+00
9.430881e+00
9.494801e+00
9.577361e+00
9.255230e+00
8.777094e+00
8.440351e+00
8.017466e+00
7.442894e+00
7.134685e+00
7.111444e+00
7.025715e+00
6.918516e+00
9.336965e+00
9.494958e+00
9.722500e+00
9.326020e+00
9.104375e+00
9.176069e+00
8.818841e+00
8.035135e+00
7.311058e+00
7.233312e+00
7.350756e+00
7.260089e+00
7.303795e+00
7.675459e+00
8.015294e+00
8.133670e+00
7.913439e+00
8.143072e+00
8.133067e+00
7.671878e+00
7.233832e+00
7.340179e+00
7.000146e+00
6.125018e+00
5.612228e+00
5.774696e+00
6.564573e+00
7.268412e+00
7.803126e+00
8.403808e+00
8.901031e+00
9.104399e+00
6.380898e+00
6.061338e+00
6.219930e+00
5.222201e+00
4.667077e+00
4.970244e+00
4.833117e+00
4.734563e+00
4.626226e+00
5.030233e+00
6.142007e+00
7.326672e+00
8.194192e+00
8.867428e+00
9.346329e+00
9.542852e+00


-9.537586e-01
-1.181513e-01
-3.119488e-01
-2.974745e-01
-1.478550e-01
-2.169465e-01
-2.692240e-03
-1.866995e-01
-3.992493e-01
-2.359811e-01
-2.354285e-01
-3.167147e-01
-2.755866e-01
-1.757386e-01
4.253375e-01
-7.502130e-01
5.771907e-01
4.864276e-01
3.193746e-01
1.839666e-01
2.402721e-01
1.450566e-01
1.913286e-01
1.713393e-01
1.230209e-01
2.557679e-01
2.739874e-01
3.085664e-01
4.844283e-01
7.259062e-01
7.327594e-01
-9.783830e-01
7.236436e-01
4.903929e-01
9.900690e-02
3.352279e-02
4.099562e-02
-3.488246e-02
1.289192e-01
2.417607e-01
3.396226e-01
3.892054e-01
3.805725e-01
4.112312e-01
4.584051e-01
3.321018e-01
5.518938e-02
-4.154106e-01
7.328559e-01
5.681286e-01
2.290975e-01
1.477416e-01
1.029758e-01
6.629199e-02
1.564424e-01
2.151893e-01
2.764131e-01
2.623993e-01
2.257671e-01
1.850768e-01
6.807514e-02
-1.726037e-01
-2.361519e-01
-8.310243e-02
7.344187e-01
5.707054e-01
2.348288e-01
1.524220e-01
1.015229e-01
4.734857e-02
1.112484e-01
1.390203e-01
1.659000e-01
1.049075e-01
2.056928e-02
-4.782866e-02
-1.428811e-01
-1.737041e-01
4.793609e-02
4.504937e-01
7.267662e-01
4.942675e-01
1.061789e-01
3.896594e-02
3.448723e-02
-6.924851e-02
4.993992e-02
1.043674e-01
1.207133e-01
5.611568e-02
-8.903316e-02
-1.442549e-01
-9.768731e-02
5.564768e-02
3.947382e-01
7.839194e-01
5.791987e-01
4.873607e-01
3.205031e-01
1.843307e-01
2.390895e-01
1.368964e-01
1.675856e-01
1.208018e-01
6.277995e-03
4.935167e-02
-2.043534e-02
-7.474122e-03
1.696549e-01
4.318523e-01
7.360992e-01
9.537340e-01
-9.560687e-01
-1.200871e-01
-3.134168e-01
-2.999921e-01
-1.496313e-01
-2.136606e-01
3.749695e-03
-1.542940e-01
-3.297917e-01
-1.471072e-01
-3.434624e-02
1.653599e-01
5.062212e-01
7.953927e-01
9.549895e-01
9.989010e-01
1 2 19 18
2 3 20 19
3 4 21 20
4 5 22 21
5 6 23 22
6 7 24 23
7 8 25 24
8 9 26 25
9 10 27 26
10 11 28 27
11 12 29 28
12 13 30 29
13 14 31 30
14 15 32 31
15 16 33 32
16 17 34 33
18 19 36 35
19 20 37 36
20 21 38 37
21 22 39 38
22 23 40 39
23 24 41 40
24 25 42 41
25 26 43 42
26 27 44 43
27 28 45 44
28 29 46 45
29 30 47 46
30 31 48 47
31 32 49 48
32 33 50 49
33 34 51 50
35 36 53 52
36 37 54 53
37 38 55 54
38 39 56 55
39 40 57 56
40 41 58 57
41 42 59 58
42 43 60 59
43 44 61 60
44 45 62 61
45 46 63 62
46 47 64 63
47 48 65 64
48 49 66 65
49 50 67 66
50 51 68 67
52 53 70 69
53 54 71 70
54 55 72 71
55 56 73 72
56 57 74 73
57 58 75 74
58 59 76 75
59 60 77 76
60 61 78 77
61 62 79 78
62 63 80 79
63 64 81 80
64 65 82 81
65 66 83 82
66 67 84 83
67 68 85 84
69 70 87 86
70 71 88 87
71 72 89 88
72 73 90 89
73 74 91 90
74 75 92 91
75 76 93 92
76 77 94 93
77 78 95 94
78 79 96 95
79 80 97 96
80 81 98 97
81 82 99 98
82 83 100 99
83 84 101 100
84 85 102 101
86 87 104 103
87 88 105 104
88 89 106 105
89 90 107 106
90 91 108 107
91 92 109 108
92 93 110 109
93 94 111 110
94 95 112 111
95 96 113 112
96 97 114 113
97 98 115 114
98 99 116 115
99 100 117 116
100 101 118 117
101 102 119 118
103 104 121 120
104 105 122 121
105 106 123 122
106 107 124 123
107 108 125 124
108 109 126 125
109 110 127 126
110 111 128 127
111 112 129 128
112 113 130 129
113 114 131 130
114 115 132 131
115 116 133 132
116 117 134 133
117 118 135 134
118 119 136 135
120 121 138 137
121 122 139 138
122 123 140 139
123 124 141 140
124 125 142 141
125 126 143 142
126 127 144 143
127 128 145 144
128 129 146 145
129 130 147 146
130 131 148 147
131 132 149 148
132 133 150 149
133 134 151 150
134 135 152 151
135 136 153 152
