TITLE = "Solution"
VARIABLES = x, y, u, v, psiu, psiv, t, stress
ZONE T="structure" N=153 E=128 F=FEBLOCK ET=QUADRILATERAL VARLOCATION=([7,8]=cellcentered)
0.000000e+00
1.250000e+01
2.500000e+01
3.750000e+01
5.000000e+01
6.250000e+01
7.500000e+01
8.750000e+01
1.000000e+02
1.125000e+02
1.250000e+02
1.375000e+02
1.500000e+02
1.625000e+02
1.750000e+02
1.875000e+02
2.000000e+02
0.000000e+00
1.250000e+01
2.500000e+01
3.750000e+01
5.000000e+01
6.250000e+01
7.500000e+01
8.750000e+01
1.000000e+02
1.125000e+02
1.250000e+02
1.375000e+02
1.500000e+02
1.625000e+02
1.750000e+02
1.875000e+02
2.000000e+02
0.000000e+00
1.250000e+01
2.500000e+01
3.750000e+01
5.000000e+01
6.250000e+01
7.500000e+01
8.750000e+01
1.000000e+02
1.125000e+02
1.250000e+02
1.375000e+02
1.500000e+02
1.625000e+02
1.750000e+02
1.875000e+02
2.000000e+02
0.000000e+00
1.250000e+01
2.500000e+01
3.750000e+01
5.000000e+01
6.250000e+01
7.500000e+01
8.750000e+01
1.000000e+02
1.125000e+02
1.250000e+02
1.375000e+02
1.500000e+02
1.625000e+02
1.750000e+02
1.875000e+02
2.000000e+02
0.000000e+00
1.250000e+01
2.500000e+01
3.750000e+01
5.000000e+01
6.250000e+01
7.500000e+01
8.750000e+01
1.000000e+02
1.125000e+02
1.250000e+02
1.375000e+02
1.500000e+02
1.625000e+02
1.750000e+02
1.875000e+02
2.000000e+02
0.000000e+00
1.250000e+01
2.500000e+01
3.750000e+01
5.000000e+01
6.250000e+01
7.500000e+01
8.750000e+01
1.000000e+02
1.125000e+02
1.250000e+02
1.375000e+02
1.500000e+02
1.625000e+02
1.750000e+02
1.875000e+02
2.000000e+02
0.000000e+00
1.250000e+01
2.500000e+01
3.750000e+01
5.000000e+01
6.250000e+01
7.500000e+01
8.750000e+01
1.000000e+02
1.125000e+02
1.250000e+02
1.375000e+02
1.500000e+02
1.625000e+02
1.750000e+02
1.875000e+02
2.000000e+02
0.000000e+00
1.250000e+01
2.500000e+01
3.750000e+01
5.000000e+01
6.250000e+01
7.500000e+01
8.750000e+01
1.000000e+02
1.125000e+02
1.250000e+02
1.375000e+02
1.500000e+02
1.625000e+02
1.750000e+02
1.875000e+02
2.000000e+02
0.000000e+00
1.250000e+01
2.500000e+01
3.750000e+01
5.000000e+01
6.250000e+01
7.500000e+01
8.750000e+01
1.000000e+02
1.125000e+02
1.250000e+02
1.375000e+02
1.500000e+02
1.625000e+02
1.750000e+02
1.875000e+02
2.000000e+02
0.000000e+00
0.000000e+00
0.000000e+00
0.000000e+00
0.000000e+00
0.000000e+00
0.000000e+00
0.000000e+00
0.000000e+00
0.000000e+00
0.000000e+00
0.000000e+00
0.000000e+00
0.000000e+00
0.000000e+00
0.000000e+00
0.000000e+00
1.250000e+01
1.250000e+01
1.250000e+01
1.250000e+01
1.250000e+01
1.250000e+01
1.250000e+01
1.250000e+01
1.250000e+01
1.250000e+01
1.250000e+01
1.250000e+01
1.250000e+01
1.250000e+01
1.250000e+01
1.250000e+01
1.250000e+01
2.500000e+01
2.500000e+01
2.500000e+01
2.500000e+01
2.500000e+01
2.500000e+01
2.500000e+01
2.500000e+01
2.500000e+01
2.500000e+01
2.500000e+01
2.500000e+01
2.500000e+01
2.500000e+01
2.500000e+01
2.500000e+01
2.500000e+01
3.750000e+01
3.750000e+01
3.750000e+01
3.750000e+01
3.750000e+01
3.750000e+01
3.750000e+01
3.750000e+01
3.750000e+01
3.750000e+01
3.750000e+01
3.750000e+01
3.750000e+01
3.750000e+01
3.750000e+01
3.750000e+01
3.750000e+01
5.000000e+01
5.000000e+01
5.000000e+01
5.000000e+01
5.000000e+01
5.000000e+01
5.000000e+01
5.000000e+01
5.000000e+01
5.000000e+01
5.000000e+01
5.000000e+01
5.000000e+01
5.000000e+01
5.000000e+01
5.000000e+01
5.000000e+01
6.250000e+01
6.250000e+01
6.250000e+01
6.250000e+01
6.250000e+01
6.250000e+01
6.250000e+01
6.250000e+01
6.250000e+01
6.250000e+01
6.250000e+01
6.250000e+01
6.250000e+01
6.250000e+01
6.250000e+01
6.250000e+01
6.250000e+01
7.500000e+01
7.500000e+01
7.500000e+01
7.500000e+01
7.500000e+01
7.500000e+01
7.500000e+01
7.500000e+01
7.500000e+01
7.500000e+01
7.500000e+01
7.500000e+01
7.500000e+01
7.500000e+01
7.500000e+01
7.500000e+01
7.500000e+01
8.750000e+01
8.750000e+01
8.750000e+01
8.750000e+01
8.750000e+01
8.750000e+01
8.750000e+01
8.750000e+01
8.750000e+01
8.750000e+01
8.750000e+01
8.750000e+01
8.750000e+01
8.750000e+01
8.750000e+01
8.750000e+01
8.750000e+01
1.000000e+02
1.000000e+02
1.000000e+02
1.000000e+02
1.000000e+02
1.000000e+02
1.000000e+02
1.000000e+02
1.000000e+02
1.000000e+02
1.000000e+02
1.000000e+02
1.000000e+02
1.000000e+02
1.000000e+02
1.000000e+02
1.000000e+02
0.000000e+00
-1.023916e+00
-1.684505e+00
-2.413126e+00
-3.113639e+00
-3.754349e+00
-4.401524e+00
-4.996377e+00
-5.667418e+00
-6.383040e+00
-7.061312e+00
-7.747799e+00
-8.481865e+00
-9.242251e+00
-9.957708e+00
-1.063159e+01
-1.108098e+01
0.000000e+00
-4.674473e-01
-9.212302e-01
-1.419221e+00
-1.951350e+00
-2.444311e+00
-2.943179e+00
-3.427470e+00
-3.941452e+00
-4.480288e+00
-4.975938e+00
-5.469581e+00
-5.982803e+00
-6.464277e+00
-6.778523e+00
-6.848399e+00
-7.009176e+00
0.000000e+00
-1.570428e-01
-3.663262e-01
-6.614734e-01
-1.018235e+00
-1.356721e+00
-1.723999e+00
-2.093304e+00
-2.448011e+00
-2.789572e+00
-3.102244e+00
-3.406705e+00
-3.682556e+00
-3.875275e+00
-3.922380e+00
-3.899532e+00
-4.061114e+00
0.000000e+00
-8.012043e-02
-1.665613e-01
-3.220121e-01
-4.710921e-01
-6.475423e-01
-8.302300e-01
-9.921438e-01
-1.147260e+00
-1.286318e+00
-1.427072e+00
-1.547206e+00
-1.613257e+00
-1.605001e+00
-1.547812e+00
-1.552366e+00
-1.684923e+00
0.000000e+00
-1.972338e-03
-4.303730e-03
-6.454315e-03
-7.832829e-03
-6.969333e-03
-1.850776e-03
9.487238e-03
2.993364e-02
6.112463e-02
1.069112e-01
1.742650e-01
2.692680e-01
3.873692e-01
4.874010e-01
4.969847e-01
3.963139e-01
0.000000e+00
7.677945e-02
1.603434e-01
3.125561e-01
4.597413e-01
6.371292e-01
8.251780e-01
1.003767e+00
1.189996e+00
1.382376e+00
1.607461e+00
1.846455e+00
2.068307e+00
2.256054e+00
2.384103e+00
2.413740e+00
2.355040e+00
0.000000e+00
1.558624e-01
3.642147e-01
6.578672e-01
1.013353e+00
1.350525e+00
1.717547e+00
2.089460e+00
2.453997e+00
2.819461e+00
3.178367e+00
3.544764e+00
3.875403e+00
4.131856e+00
4.295386e+00
4.353250e+00
4.337651e+00
0.000000e+00
4.681381e-01
9.222534e-01
1.419256e+00
1.950802e+00
2.442301e+00
2.937900e+00
3.418964e+00
3.924299e+00
4.448026e+00
4.931103e+00
5.395654e+00
5.814964e+00
6.134559e+00
6.334744e+00
6.422903e+00
6.438882e+00
0.000000e+00
1.026327e+00
1.688458e+00
2.418045e+00
3.119755e+00
3.762718e+00
4.408390e+00
5.002979e+00
5.661646e+00
6.343998e+00
6.971638e+00
7.557676e+00
8.064137e+00
8.421213e+00
8.608126e+00
8.658686e+00
8.658641e+00
0.000000e+00
-6.276708e-01
-1.360467e+00
-2.348727e+00
-3.511769e+00
-4.829665e+00
-6.308778e+00
-7.924205e+00
-9.702029e+00
-1.164369e+01
-1.375060e+01
-1.605277e+01
-1.855472e+01
-2.124498e+01
-2.416680e+01
-2.755059e+01
-3.250280e+01
0.000000e+00
-4.245759e-01
-1.198181e+00
-2.161540e+00
-3.337304e+00
-4.657954e+00
-6.142364e+00
-7.759368e+00
-9.519877e+00
-1.146501e+01
-1.357825e+01
-1.587630e+01
-1.837426e+01
-2.108972e+01
-2.405430e+01
-2.744351e+01
-3.156582e+01
0.000000e+00
-3.946553e-01
-1.094168e+00
-2.054598e+00
-3.212407e+00
-4.527016e+00
-6.015956e+00
-7.634523e+00
-9.404322e+00
-1.135104e+01
-1.347183e+01
-1.577966e+01
-1.829305e+01
-2.104618e+01
-2.404570e+01
-2.725191e+01
-3.026785e+01
0.000000e+00
-4.459621e-01
-1.079116e+00
-2.025850e+00
-3.144253e+00
-4.445915e+00
-5.937249e+00
-7.567657e+00
-9.357645e+00
-1.130329e+01
-1.343787e+01
-1.576860e+01
-1.829729e+01
-2.104717e+01
-2.398584e+01
-2.690760e+01
-2.945995e+01
0.000000e+00
-4.504885e-01
-1.097366e+00
-2.010111e+00
-3.131154e+00
-4.426346e+00
-5.914060e+00
-7.564354e+00
-9.360977e+00
-1.131593e+01
-1.346464e+01
-1.581398e+01
-1.833860e+01
-2.103538e+01
-2.384734e+01
-2.656074e+01
-2.887712e+01
0.000000e+00
-4.458514e-01
-1.080447e+00
-2.029461e+00
-3.151518e+00
-4.459552e+00
-5.958751e+00
-7.602579e+00
-9.407504e+00
-1.137045e+01
-1.352839e+01
-1.588007e+01
-1.838812e+01
-2.101841e+01
-2.370461e+01
-2.627096e+01
-2.848318e+01
0.000000e+00
-3.947828e-01
-1.096785e+00
-2.060784e+00
-3.224676e+00
-4.549184e+00
-6.051545e+00
-7.690780e+00
-9.486413e+00
-1.146338e+01
-1.362007e+01
-1.596134e+01
-1.844853e+01
-2.102390e+01
-2.361182e+01
-2.608043e+01
-2.828491e+01
0.000000e+00
-4.249258e-01
-1.200924e+00
-2.168116e+00
-3.350527e+00
-4.681534e+00
-6.181266e+00
-7.820564e+00
-9.611757e+00
-1.159402e+01
-1.374506e+01
-1.607055e+01
-1.853441e+01
-2.106715e+01
-2.358737e+01
-2.599477e+01
-2.823377e+01
0.000000e+00
-6.285180e-01
-1.363354e+00
-2.355491e+00
-3.525240e+00
-4.853329e+00
-6.347661e+00
-7.984763e+00
-9.790733e+00
-1.176764e+01
-1.390780e+01
-1.621755e+01
-1.865190e+01
-2.114029e+01
-2.360938e+01
-2.597862e+01
-2.823386e+01


0.000000e+00
1.389073e-05
2.441092e-05
3.721387e-05
5.145577e-05
6.536710e-05
7.984983e-05
9.379228e-05
1.089748e-04
1.230115e-04
1.339346e-04
1.429981e-04
1.500738e-04
1.544977e-04
1.575040e-04
1.612189e-04
1.659590e-04
0.000000e+00
9.730547e-06
1.939518e-05
2.893758e-05
4.055950e-05
5.164281e-05
6.281302e-05
7.421647e-05
8.581529e-05
9.560470e-05
1.024817e-04
1.080007e-04
1.115585e-04
1.117740e-04
1.110699e-04
1.140982e-04
1.196483e-04
0.000000e+00
7.914713e-06
1.513510e-05
2.170196e-05
3.010756e-05
3.780168e-05
4.556145e-05
5.330740e-05
5.993687e-05
6.480706e-05
6.813875e-05
7.056692e-05
7.156352e-05
7.086898e-05
7.060022e-05
7.365132e-05
7.913780e-05
0.000000e+00
4.456787e-06
7.181143e-06
1.139627e-05
1.516613e-05
1.895169e-05
2.290195e-05
2.636762e-05
2.912847e-05
3.089565e-05
3.195990e-05
3.227875e-05
3.208832e-05
3.217050e-05
3.323938e-05
3.596531e-05
4.002161e-05
0.000000e+00
-5.419940e-08
-1.205784e-07
-1.856943e-07
-2.516706e-07
-3.088870e-07
-3.691496e-07
-4.384779e-07
-5.941966e-07
-9.532615e-07
-1.686093e-06
-2.636786e-06
-3.389670e-06
-3.440738e-06
-2.575682e-06
-1.304987e-06
5.514083e-07
0.000000e+00
-4.576387e-06
-7.393958e-06
-1.172153e-05
-1.557886e-05
-1.945944e-05
-2.345429e-05
-2.697133e-05
-2.975693e-05
-3.165297e-05
-3.331046e-05
-3.482278e-05
-3.588494e-05
-3.640596e-05
-3.684657e-05
-3.721782e-05
-3.686659e-05
0.000000e+00
-8.010560e-06
-1.529200e-05
-2.188678e-05
-3.036633e-05
-3.813351e-05
-4.592933e-05
-5.363737e-05
-6.009365e-05
-6.453538e-05
-6.714798e-05
-6.871970e-05
-6.976668e-05
-7.064628e-05
-7.153708e-05
-7.231517e-05
-7.253618e-05
0.000000e+00
-9.791000e-06
-1.947248e-05
-2.896875e-05
-4.060332e-05
-5.172822e-05
-6.289555e-05
-7.430731e-05
-8.587454e-05
-9.540798e-05
-1.012388e-04
-1.045556e-04
-1.063796e-04
-1.075521e-04
-1.083303e-04
-1.087120e-04
-1.088150e-04
0.000000e+00
-1.393396e-05
-2.441904e-05
-3.711940e-05
-5.127285e-05
-6.514690e-05
-7.950287e-05
-9.342495e-05
-1.086129e-04
-1.226475e-04
-1.330450e-04
-1.399301e-04
-1.438514e-04
-1.455625e-04
-1.460446e-04
-1.459888e-04
-1.459108e-04
0.000000e+00
1.175588e-05
2.013386e-05
3.201908e-05
4.702187e-05
6.449714e-05
8.575019e-05
1.102925e-04
1.384230e-04
1.688814e-04
2.020244e-04
2.383208e-04
2.764455e-04
3.167383e-04
3.640085e-04
4.197234e-04
4.764644e-04
0.000000e+00
6.817854e-06
1.561650e-05
2.612175e-05
4.082623e-05
5.825508e-05
7.941721e-05
1.038970e-04
1.319838e-04
1.636700e-04
1.980626e-04
2.352155e-04
2.746676e-04
3.160774e-04
3.607917e-04
4.129380e-04
4.678541e-04
0.000000e+00
3.206751e-06
1.122992e-05
2.118959e-05
3.528067e-05
5.300931e-05
7.410958e-05
9.901038e-05
1.278796e-04
1.605001e-04
1.957559e-04
2.335825e-04
2.739704e-04
3.157095e-04
3.567019e-04
4.038443e-04
4.558108e-04
0.000000e+00
2.013589e-06
8.753036e-06
1.887086e-05
3.286685e-05
5.071868e-05
7.205523e-05
9.740746e-05
1.268283e-04
1.596278e-04
1.951226e-04
2.331289e-04
2.736709e-04
3.151262e-04
3.540105e-04
3.963199e-04
4.438036e-04
0.000000e+00
1.637937e-06
8.111868e-06
1.808670e-05
3.221607e-05
4.999971e-05
7.147860e-05
9.706210e-05
1.266782e-04
1.595091e-04
1.950778e-04
2.331955e-04
2.735296e-04
3.148572e-04
3.537437e-04
3.930237e-04
4.353376e-04
0.000000e+00
2.040642e-06
8.784370e-06
1.886222e-05
3.278672e-05
5.057813e-05
7.187106e-05
9.726507e-05
1.268468e-04
1.598280e-04
1.956763e-04
2.339817e-04
2.741386e-04
3.148712e-04
3.543988e-04
3.926991e-04
4.309033e-04
0.000000e+00
3.247913e-06
1.128050e-05
2.116322e-05
3.514853e-05
5.275962e-05
7.376729e-05
9.868839e-05
1.277700e-04
1.608292e-04
1.968611e-04
2.352841e-04
2.751399e-04
3.152154e-04
3.544655e-04
3.925038e-04
4.294204e-04
0.000000e+00
6.878014e-06
1.567038e-05
2.610147e-05
4.070359e-05
5.801116e-05
7.904136e-05
1.034984e-04
1.317863e-04
1.639049e-04
1.989687e-04
2.367085e-04
2.759550e-04
3.154920e-04
3.543899e-04
3.922866e-04
4.293243e-04
0.000000e+00
1.183110e-05
2.017662e-05
3.198971e-05
4.691963e-05
6.427485e-05
8.539139e-05
1.099286e-04
1.382238e-04
1.689347e-04
2.021980e-04
2.384681e-04
2.767462e-04
3.157126e-04
3.543860e-04
3.922010e-04
4.293939e-04


6.397128e+00
6.016311e+00
6.096578e+00
5.130850e+00
4.539537e+00
4.748113e+00
4.695069e+00
4.646437e+00
4.472527e+00
4.661874e+00
5.524463e+00
6.685007e+00
7.413758e+00
6.917420e+00
5.461458e+00
4.452299e+00
7.936570e+00
8.113146e+00
8.074913e+00
7.634720e+00
7.219027e+00
7.305911e+00
6.917350e+00
6.025997e+00
5.444222e+00
5.508321e+00
6.303598e+00
7.260436e+00
7.725166e+00
6.952827e+00
5.322751e+00
4.192243e+00
9.335014e+00
9.480900e+00
9.695755e+00
9.337931e+00
9.166171e+00
9.222777e+00
8.788729e+00
7.921001e+00
7.213744e+00
7.205495e+00
7.544645e+00
7.859348e+00
7.920824e+00
7.130644e+00
5.603053e+00
4.563855e+00
9.614099e+00
9.778553e+00
9.876780e+00
9.656579e+00
9.430540e+00
9.480846e+00
9.508056e+00
9.187370e+00
8.836248e+00
8.632012e+00
8.255225e+00
7.755813e+00
7.550984e+00
7.248076e+00
6.445715e+00
5.775493e+00
9.623697e+00
9.776313e+00
9.853610e+00
9.611520e+00
9.349001e+00
9.405294e+00
9.444904e+00
9.153205e+00
8.843736e+00
8.623723e+00
8.060344e+00
7.286659e+00
7.061001e+00
7.336832e+00
7.402344e+00
7.252448e+00
9.338998e+00
9.468679e+00
9.653401e+00
9.242717e+00
9.021069e+00
9.034368e+00
8.623407e+00
7.826712e+00
7.241923e+00
7.286189e+00
7.354949e+00
7.134488e+00
7.160437e+00
7.700521e+00
8.243794e+00
8.456729e+00
7.934204e+00
8.105318e+00
8.038385e+00
7.578183e+00
7.105115e+00
7.136019e+00
6.740624e+00
5.929502e+00
5.498199e+00
5.772448e+00
6.609714e+00
7.289967e+00
7.773077e+00
8.370735e+00
8.944176e+00
9.218002e+00
6.402505e+00
6.008876e+00
6.082929e+00
5.114989e+00
4.497399e+00
4.627891e+00
4.576864e+00
4.584625e+00
4.541532e+00
5.027063e+00
6.222354e+00
7.452381e+00
8.293858e+00
8.905378e+00
9.371150e+00
9.588558e+00


-9.426035e-01
-1.092960e-01
-3.168582e-01
-3.326772e-01
-1.329113e-01
-1.563809e-01
-3.387814e-02
-2.423934e-01
-3.893388e-01
-2.207733e-01
-2.325120e-01
-3.663802e-01
-3.334528e-01
8.925715e-02
5.052652e-01
-7.165098e-01
5.772363e-01
4.871816e-01
3.152169e-01
1.628663e-01
2.497208e-01
1.755362e-01
1.869137e-01
1.581323e-01
1.418570e-01
2.639221e-01
2.819674e-01
3.100776e-01
4.893134e-01
7.872931e-01
7.244267e-01
-1.470388e+00
7.241922e-01
4.939098e-01
1.085542e-01
3.872220e-02
5.504495e-02
4.223486e-03
1.488661e-01
2.616940e-01
3.479524e-01
3.795122e-01
3.796309e-01
4.239403e-01
4.483176e-01
3.502990e-01
9.863577e-02
-4.119319e-01
7.354729e-01
5.749535e-01
2.413135e-01
1.562372e-01
1.124073e-01
9.158611e-02
1.674596e-01
2.187640e-01
2.580050e-01
2.310546e-01
2.083230e-01
1.813105e-01
3.140651e-02
-1.897902e-01
-1.255681e-01
5.096505e-02
7.368767e-01
5.773409e-01
2.471309e-01
1.615698e-01
1.122606e-01
7.746465e-02
1.275527e-01
1.508897e-01
1.547602e-01
7.876564e-02
9.669159e-03
-3.283911e-02
-1.419005e-01
-2.293764e-01
1.013761e-02
4.381070e-01
7.272750e-01
4.978318e-01
1.162987e-01
4.328822e-02
4.677059e-02
-2.514891e-02
7.408866e-02
1.304768e-01
1.346549e-01
4.069958e-02
-1.009301e-01
-1.193676e-01
-6.061053e-02
6.521459e-02
3.819668e-01
7.785686e-01
5.782952e-01
4.878393e-01
3.179931e-01
1.628089e-01
2.470549e-01
1.666640e-01
1.597498e-01
1.033137e-01
2.865766e-02
4.964425e-02
-3.380640e-02
-2.815285e-03
1.935341e-01
4.511946e-01
7.429219e-01
9.557163e-01
-9.501096e-01
-1.129673e-01
-3.169459e-01
-3.343649e-01
-1.349722e-01
-1.487604e-01
-3.024075e-02
-2.070197e-01
-3.039985e-01
-1.246618e-01
-3.168627e-02
1.662644e-01
5.131639e-01
8.009722e-01
9.564165e-01
9.989659e-01
1 2 19 18
2 3 20 19
3 4 21 20
4 5 22 21
5 6 23 22
6 7 24 23
7 8 25 24
8 9 26 25
9 10 27 26
10 11 28 27
11 12 29 28
12 13 30 29
13 14 31 30
14 15 32 31
15 16 33 32
16 17 34 33
18 19 36 35
19 20 37 36
20 21 38 37
21 22 39 38
22 23 40 39
23 24 41 40
24 25 42 41
25 26 43 42
26 27 44 43
27 28 45 44
28 29 46 45
29 30 47 46
30 31 48 47
31 32 49 48
32 33 50 49
33 34 51 50
35 36 53 52
36 37 54 53
37 38 55 54
38 39 56 55
39 40 57 56
40 41 58 57
41 42 59 58
42 43 60 59
43 44 61 60
44 45 62 61
45 46 63 62
46 47 64 63
47 48 65 64
48 49 66 65
49 50 67 66
50 51 68 67
52 53 70 69
53 54 71 70
54 55 72 71
55 56 73 72
56 57 74 73
57 58 75 74
58 59 76 75
59 60 77 76
60 61 78 77
61 62 79 78
62 63 80 79
63 64 81 80
64 65 82 81
65 66 83 82
66 67 84 83
67 68 85 84
69 70 87 86
70 71 88 87
71 72 89 88
72 73 90 89
73 74 91 90
74 75 92 91
75 76 93 92
76 77 94 93
77 78 95 94
78 79 96 95
79 80 97 96
80 81 98 97
81 82 99 98
82 83 100 99
83 84 101 100
84 85 102 101
86 87 104 103
87 88 105 104
88 89 106 105
89 90 107 106
90 91 108 107
91 92 109 108
92 93 110 109
93 94 111 110
94 95 112 111
95 96 113 112
96 97 114 113
97 98 115 114
98 99 116 115
99 100 117 116
100 101 118 117
101 102 119 118
103 104 121 120
104 105 122 121
105 106 123 122
106 107 124 123
107 108 125 124
108 109 126 125
109 110 127 126
110 111 128 127
111 112 129 128
112 113 130 129
113 114 131 130
114 115 132 131
115 116 133 132
116 117 134 133
117 118 135 134
118 119 136 135
120 121 138 137
121 122 139 138
122 123 140 139
123 124 141 140
124 125 142 141
125 126 143 142
126 127 144 143
127 128 145 144
128 129 146 145
129 130 147 146
130 131 148 147
131 132 149 148
132 133 150 149
133 134 151 150
134 135 152 151
135 136 153 152
