TITLE = "Solution"
VARIABLES = x, y, u, v, psiu, psiv, t, stress
ZONE T="structure" N=153 E=128 F=FEBLOCK ET=QUADRILATERAL VARLOCATION=([7,8]=cellcentered)
0.000000e+00
1.250000e+01
2.500000e+01
3.750000e+01
5.000000e+01
6.250000e+01
7.500000e+01
8.750000e+01
1.000000e+02
1.125000e+02
1.250000e+02
1.375000e+02
1.500000e+02
1.625000e+02
1.750000e+02
1.875000e+02
2.000000e+02
0.000000e+00
1.250000e+01
2.500000e+01
3.750000e+01
5.000000e+01
6.250000e+01
7.500000e+01
8.750000e+01
1.000000e+02
1.125000e+02
1.250000e+02
1.375000e+02
1.500000e+02
1.625000e+02
1.750000e+02
1.875000e+02
2.000000e+02
0.000000e+00
1.250000e+01
2.500000e+01
3.750000e+01
5.000000e+01
6.250000e+01
7.500000e+01
8.750000e+01
1.000000e+02
1.125000e+02
1.250000e+02
1.375000e+02
1.500000e+02
1.625000e+02
1.750000e+02
1.875000e+02
2.000000e+02
0.000000e+00
1.250000e+01
2.500000e+01
3.750000e+01
5.000000e+01
6.250000e+01
7.500000e+01
8.750000e+01
1.000000e+02
1.125000e+02
1.250000e+02
1.375000e+02
1.500000e+02
1.625000e+02
1.750000e+02
1.875000e+02
2.000000e+02
0.000000e+00
1.250000e+01
2.500000e+01
3.750000e+01
5.000000e+01
6.250000e+01
7.500000e+01
8.750000e+01
1.000000e+02
1.125000e+02
1.250000e+02
1.375000e+02
1.500000e+02
1.625000e+02
1.750000e+02
1.875000e+02
2.000000e+02
0.000000e+00
1.250000e+01
2.500000e+01
3.750000e+01
5.000000e+01
6.250000e+01
7.500000e+01
8.750000e+01
1.000000e+02
1.125000e+02
1.250000e+02
1.375000e+02
1.500000e+02
1.625000e+02
1.750000e+02
1.875000e+02
2.000000e+02
0.000000e+00
1.250000e+01
2.500000e+01
3.750000e+01
5.000000e+01
6.250000e+01
7.500000e+01
8.750000e+01
1.000000e+02
1.125000e+02
1.250000e+02
1.375000e+02
1.500000e+02
1.625000e+02
1.750000e+02
1.875000e+02
2.000000e+02
0.000000e+00
1.250000e+01
2.500000e+01
3.750000e+01
5.000000e+01
6.250000e+01
7.500000e+01
8.750000e+01
1.000000e+02
1.125000e+02
1.250000e+02
1.375000e+02
1.500000e+02
1.625000e+02
1.750000e+02
1.875000e+02
2.000000e+02
0.000000e+00
1.250000e+01
2.500000e+01
3.750000e+01
5.000000e+01
6.250000e+01
7.500000e+01
8.750000e+01
1.000000e+02
1.125000e+02
1.250000e+02
1.375000e+02
1.500000e+02
1.625000e+02
1.750000e+02
1.875000e+02
2.000000e+02
0.000000e+00
0.000000e+00
0.000000e+00
0.000000e+00
0.000000e+00
0.000000e+00
0.000000e+00
0.000000e+00
0.000000e+00
0.000000e+00
0.000000e+00
0.000000e+00
0.000000e+00
0.000000e+00
0.000000e+00
0.000000e+00
0.000000e+00
1.250000e+01
1.250000e+01
1.250000e+01
1.250000e+01
1.250000e+01
1.250000e+01
1.250000e+01
1.250000e+01
1.250000e+01
1.250000e+01
1.250000e+01
1.250000e+01
1.250000e+01
1.250000e+01
1.250000e+01
1.250000e+01
1.250000e+01
2.500000e+01
2.500000e+01
2.500000e+01
2.500000e+01
2.500000e+01
2.500000e+01
2.500000e+01
2.500000e+01
2.500000e+01
2.500000e+01
2.500000e+01
2.500000e+01
2.500000e+01
2.500000e+01
2.500000e+01
2.500000e+01
2.500000e+01
3.750000e+01
3.750000e+01
3.750000e+01
3.750000e+01
3.750000e+01
3.750000e+01
3.750000e+01
3.750000e+01
3.750000e+01
3.750000e+01
3.750000e+01
3.750000e+01
3.750000e+01
3.750000e+01
3.750000e+01
3.750000e+01
3.750000e+01
5.000000e+01
5.000000e+01
5.000000e+01
5.000000e+01
5.000000e+01
5.000000e+01
5.000000e+01
5.000000e+01
5.000000e+01
5.000000e+01
5.000000e+01
5.000000e+01
5.000000e+01
5.000000e+01
5.000000e+01
5.000000e+01
5.000000e+01
6.250000e+01
6.250000e+01
6.250000e+01
6.250000e+01
6.250000e+01
6.250000e+01
6.250000e+01
6.250000e+01
6.250000e+01
6.250000e+01
6.250000e+01
6.250000e+01
6.250000e+01
6.250000e+01
6.250000e+01
6.250000e+01
6.250000e+01
7.500000e+01
7.500000e+01
7.500000e+01
7.500000e+01
7.500000e+01
7.500000e+01
7.500000e+01
7.500000e+01
7.500000e+01
7.500000e+01
7.500000e+01
7.500000e+01
7.500000e+01
7.500000e+01
7.500000e+01
7.500000e+01
7.500000e+01
8.750000e+01
8.750000e+01
8.750000e+01
8.750000e+01
8.750000e+01
8.750000e+01
8.750000e+01
8.750000e+01
8.750000e+01
8.750000e+01
8.750000e+01
8.750000e+01
8.750000e+01
8.750000e+01
8.750000e+01
8.750000e+01
8.750000e+01
1.000000e+02
1.000000e+02
1.000000e+02
1.000000e+02
1.000000e+02
1.000000e+02
1.000000e+02
1.000000e+02
1.000000e+02
1.000000e+02
1.000000e+02
1.000000e+02
1.000000e+02
1.000000e+02
1.000000e+02
1.000000e+02
1.000000e+02
0.000000e+00
-7.521560e-02
-1.348544e-01
-1.874501e-01
-2.381000e-01
-2.865860e-01
-3.307979e-01
-3.704944e-01
-4.067277e-01
-4.391806e-01
-4.676901e-01
-4.931796e-01
-5.170749e-01
-5.412316e-01
-5.681723e-01
-6.009451e-01
-6.260036e-01
0.000000e+00
-4.458157e-02
-8.995998e-02
-1.301288e-01
-1.679369e-01
-2.039483e-01
-2.367853e-01
-2.664256e-01
-2.935176e-01
-3.177667e-01
-3.389135e-01
-3.573532e-01
-3.734740e-01
-3.871477e-01
-3.968354e-01
-3.988989e-01
-4.065547e-01
0.000000e+00
-2.654570e-02
-5.386451e-02
-8.045325e-02
-1.054066e-01
-1.288634e-01
-1.503736e-01
-1.699458e-01
-1.876535e-01
-2.032254e-01
-2.164674e-01
-2.273296e-01
-2.354407e-01
-2.400057e-01
-2.400762e-01
-2.381847e-01
-2.460499e-01
0.000000e+00
-1.178767e-02
-2.411028e-02
-3.639811e-02
-4.820720e-02
-5.924061e-02
-6.944498e-02
-7.871538e-02
-8.693606e-02
-9.389107e-02
-9.938876e-02
-1.031981e-01
-1.049503e-01
-1.044458e-01
-1.026050e-01
-1.031281e-01
-1.089104e-01
0.000000e+00
1.465847e-03
3.055161e-03
4.614596e-03
6.075782e-03
7.428082e-03
8.706746e-03
9.906267e-03
1.107945e-02
1.238781e-02
1.405405e-02
1.632569e-02
1.927925e-02
2.250387e-02
2.470255e-02
2.413864e-02
2.037357e-02
0.000000e+00
1.447877e-02
2.965572e-02
4.483208e-02
5.977505e-02
7.398325e-02
8.702212e-02
9.873661e-02
1.091365e-01
1.182974e-01
1.264665e-01
1.339003e-01
1.405520e-01
1.458854e-01
1.490530e-01
1.493658e-01
1.474352e-01
0.000000e+00
2.849770e-02
5.796472e-02
8.710898e-02
1.156093e-01
1.432473e-01
1.682754e-01
1.903817e-01
2.098353e-01
2.266537e-01
2.408968e-01
2.528946e-01
2.627046e-01
2.700117e-01
2.744672e-01
2.759538e-01
2.754871e-01
0.000000e+00
4.480579e-02
9.218508e-02
1.350397e-01
1.768865e-01
2.181965e-01
2.550913e-01
2.872257e-01
3.156224e-01
3.401008e-01
3.603415e-01
3.766960e-01
3.893993e-01
3.984349e-01
4.039448e-01
4.063513e-01
4.067939e-01
0.000000e+00
7.463824e-02
1.363310e-01
1.918474e-01
2.468219e-01
3.011907e-01
3.495652e-01
3.916460e-01
4.291379e-01
4.614178e-01
4.879537e-01
5.089989e-01
5.246630e-01
5.348735e-01
5.399870e-01
5.413159e-01
5.413069e-01
0.000000e+00
-4.434706e-02
-8.654425e-02
-1.416607e-01
-2.098951e-01
-2.909974e-01
-3.839011e-01
-4.876628e-01
-6.010954e-01
-7.228060e-01
-8.517238e-01
-9.871713e-01
-1.128932e+00
-1.277842e+00
-1.437932e+00
-1.621782e+00
-1.888050e+00
0.000000e+00
-2.728462e-02
-7.219845e-02
-1.280405e-01
-1.968492e-01
-2.788332e-01
-3.729245e-01
-4.777361e-01
-5.921498e-01
-7.149413e-01
-8.448711e-01
-9.811293e-01
-1.123475e+00
-1.272845e+00
-1.432868e+00
-1.615534e+00
-1.840452e+00
0.000000e+00
-2.066844e-02
-6.209853e-02
-1.182535e-01
-1.875742e-01
-2.702253e-01
-3.651149e-01
-4.707730e-01
-5.860720e-01
-7.097644e-01
-8.406130e-01
-9.778671e-01
-1.121326e+00
-1.271803e+00
-1.431880e+00
-1.604644e+00
-1.771775e+00
0.000000e+00
-1.819291e-02
-5.712917e-02
-1.124490e-01
-1.820462e-01
-2.651170e-01
-3.605379e-01
-4.668923e-01
-5.829559e-01
-7.073980e-01
-8.390516e-01
-9.772396e-01
-1.121612e+00
-1.272171e+00
-1.428844e+00
-1.587175e+00
-1.732847e+00
0.000000e+00
-1.777300e-02
-5.586451e-02
-1.106646e-01
-1.802154e-01
-2.635262e-01
-3.593004e-01
-4.661230e-01
-5.826668e-01
-7.076235e-01
-8.398082e-01
-9.784901e-01
-1.122944e+00
-1.272078e+00
-1.423782e+00
-1.572963e+00
-1.710282e+00
0.000000e+00
-1.883041e-02
-5.775209e-02
-1.127357e-01
-1.821837e-01
-2.655526e-01
-3.614862e-01
-4.683638e-01
-5.849571e-01
-7.100394e-01
-8.423520e-01
-9.809485e-01
-1.124686e+00
-1.271700e+00
-1.419342e+00
-1.563394e+00
-1.697714e+00
0.000000e+00
-2.175058e-02
-6.314855e-02
-1.189823e-01
-1.881844e-01
-2.713753e-01
-3.670666e-01
-4.734779e-01
-5.895837e-01
-7.143006e-01
-8.462670e-01
-9.842778e-01
-1.126883e+00
-1.271901e+00
-1.416665e+00
-1.557888e+00
-1.692006e+00
0.000000e+00
-2.841098e-02
-7.365182e-02
-1.295034e-01
-1.984736e-01
-2.810991e-01
-3.759096e-01
-4.813223e-01
-5.964641e-01
-7.202854e-01
-8.513705e-01
-9.883963e-01
-1.129734e+00
-1.273142e+00
-1.415987e+00
-1.555567e+00
-1.690599e+00
0.000000e+00
-4.561800e-02
-8.863147e-02
-1.441075e-01
-2.129726e-01
-2.947169e-01
-3.878719e-01
-4.918637e-01
-6.057250e-01
-7.281160e-01
-8.577752e-01
-9.934085e-01
-1.133285e+00
-1.275180e+00
-1.416579e+00
-1.555142e+00
-1.690605e+00


0.000000e+00
-6.017072e-07
-1.824233e-07
1.385219e-06
2.268068e-06
2.490658e-06
2.593540e-06
2.708620e-06
2.823023e-06
2.924791e-06
3.007222e-06
3.069906e-06
3.113701e-06
3.141151e-06
3.158246e-06
3.172071e-06
3.185422e-06
0.000000e+00
-5.349376e-07
-9.942764e-09
1.382619e-06
2.188013e-06
2.191937e-06
2.219922e-06
2.300448e-06
2.385132e-06
2.459375e-06
2.519717e-06
2.565300e-06
2.595007e-06
2.611091e-06
2.621304e-06
2.633824e-06
2.648014e-06
0.000000e+00
-6.205101e-08
3.749662e-07
1.149467e-06
1.645254e-06
1.738073e-06
1.822966e-06
1.885474e-06
1.939076e-06
1.985357e-06
2.023659e-06
2.052884e-06
2.072147e-06
2.084044e-06
2.093706e-06
2.105008e-06
2.117351e-06
0.000000e+00
3.286246e-07
6.279717e-07
9.525236e-07
1.114632e-06
1.297677e-06
1.394473e-06
1.445605e-06
1.478552e-06
1.504490e-06
1.525235e-06
1.541388e-06
1.554583e-06
1.565469e-06
1.574588e-06
1.583253e-06
1.592276e-06
0.000000e+00
3.621376e-07
6.916653e-07
8.291082e-07
8.953350e-07
9.442544e-07
9.967453e-07
1.025559e-06
1.039438e-06
1.046604e-06
1.049224e-06
1.051041e-06
1.055281e-06
1.060697e-06
1.065558e-06
1.070435e-06
1.076511e-06
0.000000e+00
2.426175e-07
5.199240e-07
6.490420e-07
6.565062e-07
6.477563e-07
6.441142e-07
6.392730e-07
6.269638e-07
6.103928e-07
5.926907e-07
5.783557e-07
5.704863e-07
5.667330e-07
5.647778e-07
5.651878e-07
5.685181e-07
0.000000e+00
1.239847e-07
2.913358e-07
3.587906e-07
3.528250e-07
3.087366e-07
2.715454e-07
2.385877e-07
2.039064e-07
1.678555e-07
1.347274e-07
1.087601e-07
9.082479e-08
7.846168e-08
7.017548e-08
6.630848e-08
6.670999e-08
0.000000e+00
7.860206e-08
1.502647e-07
1.074239e-07
2.083915e-08
-7.683682e-08
-1.515541e-07
-2.072880e-07
-2.564451e-07
-3.022524e-07
-3.417122e-07
-3.718123e-07
-3.930305e-07
-4.085529e-07
-4.199838e-07
-4.269928e-07
-4.295127e-07
0.000000e+00
1.926127e-07
1.118612e-07
-8.288204e-08
-3.035513e-07
-4.837720e-07
-6.045121e-07
-6.881285e-07
-7.533405e-07
-8.054488e-07
-8.444615e-07
-8.709806e-07
-8.888848e-07
-9.029790e-07
-9.153234e-07
-9.245835e-07
-9.288466e-07
0.000000e+00
-1.274641e-07
3.423355e-07
6.378641e-07
5.013513e-07
5.541442e-07
9.352964e-07
1.375663e-06
1.840689e-06
2.332172e-06
2.841729e-06
3.360889e-06
3.884757e-06
4.416644e-06
4.964034e-06
5.524756e-06
6.086112e-06
0.000000e+00
-1.131747e-07
-2.367935e-07
-4.071743e-08
2.522368e-07
5.166229e-07
8.952235e-07
1.322233e-06
1.791924e-06
2.291314e-06
2.810091e-06
3.338231e-06
3.870017e-06
4.406186e-06
4.950843e-06
5.506348e-06
6.064592e-06
0.000000e+00
-1.490119e-07
-5.477143e-07
-4.627582e-07
1.392364e-08
4.656482e-07
8.452294e-07
1.277116e-06
1.753766e-06
2.261438e-06
2.788329e-06
3.323712e-06
3.859924e-06
4.396656e-06
4.936668e-06
5.485417e-06
6.037640e-06
0.000000e+00
-1.837502e-07
-5.676798e-07
-5.535490e-07
-1.237217e-07
3.527261e-07
7.875302e-07
1.243358e-06
1.732159e-06
2.246567e-06
2.779364e-06
3.319076e-06
3.854970e-06
4.388385e-06
4.924437e-06
5.467482e-06
6.011195e-06
0.000000e+00
-2.316750e-07
-5.525601e-07
-5.488956e-07
-1.855196e-07
2.689210e-07
7.383318e-07
1.219385e-06
1.721149e-06
2.241208e-06
2.778442e-06
3.320250e-06
3.853035e-06
4.381719e-06
4.914142e-06
5.452891e-06
5.988888e-06
0.000000e+00
-2.933386e-07
-5.738319e-07
-5.360116e-07
-1.967988e-07
2.446012e-07
7.170212e-07
1.212089e-06
1.722995e-06
2.247607e-06
2.786188e-06
3.325701e-06
3.853773e-06
4.377824e-06
4.906554e-06
5.441338e-06
5.971873e-06
0.000000e+00
-3.421267e-07
-5.837346e-07
-5.150820e-07
-1.873185e-07
2.472316e-07
7.231133e-07
1.222029e-06
1.737553e-06
2.264806e-06
2.800696e-06
3.333985e-06
3.857124e-06
4.377379e-06
4.902287e-06
5.433047e-06
5.959135e-06
0.000000e+00
-3.463464e-07
-5.630568e-07
-4.686665e-07
-1.606128e-07
2.714884e-07
7.438490e-07
1.241466e-06
1.757785e-06
2.285278e-06
2.816819e-06
3.343786e-06
3.863040e-06
4.380431e-06
4.901671e-06
5.428330e-06
5.950620e-06
0.000000e+00
-3.563261e-07
-5.101439e-07
-4.034242e-07
-9.720801e-08
3.163562e-07
7.755194e-07
1.265634e-06
1.778885e-06
2.303774e-06
2.830940e-06
3.353362e-06
3.869883e-06
4.385276e-06
4.903801e-06
5.427014e-06
5.947015e-06


2.154489e-01
2.004762e-01
1.898096e-01
1.947909e-01
2.014092e-01
2.009356e-01
2.001186e-01
2.049671e-01
2.072889e-01
2.059652e-01
2.068908e-01
2.118307e-01
2.185263e-01
2.206876e-01
2.193835e-01
2.245376e-01
2.127656e-01
2.055971e-01
1.989983e-01
2.010365e-01
2.067066e-01
2.068432e-01
2.077119e-01
2.113914e-01
2.121733e-01
2.104260e-01
2.109947e-01
2.142903e-01
2.193522e-01
2.217420e-01
2.230428e-01
2.246010e-01
2.186514e-01
2.140762e-01
2.088766e-01
2.093071e-01
2.128973e-01
2.158101e-01
2.180130e-01
2.200262e-01
2.192477e-01
2.172129e-01
2.171972e-01
2.179354e-01
2.194272e-01
2.215328e-01
2.222915e-01
2.242549e-01
2.269796e-01
2.221245e-01
2.167083e-01
2.163254e-01
2.202448e-01
2.238073e-01
2.260883e-01
2.264235e-01
2.238635e-01
2.212721e-01
2.207281e-01
2.203787e-01
2.187518e-01
2.180818e-01
2.191011e-01
2.203810e-01
2.287014e-01
2.252110e-01
2.215147e-01
2.246261e-01
2.292343e-01
2.313099e-01
2.317159e-01
2.293023e-01
2.252393e-01
2.209074e-01
2.201897e-01
2.200651e-01
2.176843e-01
2.165129e-01
2.189677e-01
2.213971e-01
2.277437e-01
2.246048e-01
2.220012e-01
2.304706e-01
2.398097e-01
2.391635e-01
2.343499e-01
2.304902e-01
2.241817e-01
2.181989e-01
2.163832e-01
2.169986e-01
2.165884e-01
2.187767e-01
2.240726e-01
2.274799e-01
2.270177e-01
2.228707e-01
2.203427e-01
2.330060e-01
2.470292e-01
2.421119e-01
2.336829e-01
2.291796e-01
2.241145e-01
2.165238e-01
2.133738e-01
2.147433e-01
2.175919e-01
2.235921e-01
2.304512e-01
2.336081e-01
2.234708e-01
2.219285e-01
2.181904e-01
2.332024e-01
2.485413e-01
2.409862e-01
2.299424e-01
2.284277e-01
2.244728e-01
2.170535e-01
2.134274e-01
2.153706e-01
2.203166e-01
2.275677e-01
2.339503e-01
2.369390e-01


9.874184e-01
9.903449e-01
9.924694e-01
9.931440e-01
9.937440e-01
9.947865e-01
9.957668e-01
9.964666e-01
9.971659e-01
9.978265e-01
9.983042e-01
9.986042e-01
9.987655e-01
9.988327e-01
9.989125e-01
9.950274e-01
9.954678e-01
9.951154e-01
9.958555e-01
9.963032e-01
9.966361e-01
9.971327e-01
9.975961e-01
9.979688e-01
9.983659e-01
9.987620e-01
9.990938e-01
9.993811e-01
9.996386e-01
9.998183e-01
9.993260e-01
9.927420e-01
9.985601e-01
9.981852e-01
9.981475e-01
9.982700e-01
9.983749e-01
9.985106e-01
9.986634e-01
9.988210e-01
9.990069e-01
9.992004e-01
9.993678e-01
9.994931e-01
9.995124e-01
9.992520e-01
9.983198e-01
9.966536e-01
9.997124e-01
9.993859e-01
9.992204e-01
9.991611e-01
9.991184e-01
9.990987e-01
9.991120e-01
9.991417e-01
9.991871e-01
9.992342e-01
9.992492e-01
9.992083e-01
9.990778e-01
9.988296e-01
9.986093e-01
9.985706e-01
9.995746e-01
9.992242e-01
9.990482e-01
9.989848e-01
9.989595e-01
9.989738e-01
9.990139e-01
9.990508e-01
9.990756e-01
9.990806e-01
9.990419e-01
9.989720e-01
9.989139e-01
9.989239e-01
9.991005e-01
9.994356e-01
9.981998e-01
9.977712e-01
9.976889e-01
9.977332e-01
9.978213e-01
9.980847e-01
9.983656e-01
9.985846e-01
9.987584e-01
9.988827e-01
9.989380e-01
9.989703e-01
9.990567e-01
9.992341e-01
9.995120e-01
9.998202e-01
9.951111e-01
9.944962e-01
9.951627e-01
9.953726e-01
9.955378e-01
9.963408e-01
9.971217e-01
9.976820e-01
9.981747e-01
9.986022e-01
9.989008e-01
9.991241e-01
9.993430e-01
9.995766e-01
9.998093e-01
9.999670e-01
9.873804e-01
9.895800e-01
9.915260e-01
9.917842e-01
9.919961e-01
9.936237e-01
9.951525e-01
9.961700e-01
9.971422e-01
9.980363e-01
9.987159e-01
9.992264e-01
9.996072e-01
9.998502e-01
9.999688e-01
9.999993e-01
1 2 19 18
2 3 20 19
3 4 21 20
4 5 22 21
5 6 23 22
6 7 24 23
7 8 25 24
8 9 26 25
9 10 27 26
10 11 28 27
11 12 29 28
12 13 30 29
13 14 31 30
14 15 32 31
15 16 33 32
16 17 34 33
18 19 36 35
19 20 37 36
20 21 38 37
21 22 39 38
22 23 40 39
23 24 41 40
24 25 42 41
25 26 43 42
26 27 44 43
27 28 45 44
28 29 46 45
29 30 47 46
30 31 48 47
31 32 49 48
32 33 50 49
33 34 51 50
35 36 53 52
36 37 54 53
37 38 55 54
38 39 56 55
39 40 57 56
40 41 58 57
41 42 59 58
42 43 60 59
43 44 61 60
44 45 62 61
45 46 63 62
46 47 64 63
47 48 65 64
48 49 66 65
49 50 67 66
50 51 68 67
52 53 70 69
53 54 71 70
54 55 72 71
55 56 73 72
56 57 74 73
57 58 75 74
58 59 76 75
59 60 77 76
60 61 78 77
61 62 79 78
62 63 80 79
63 64 81 80
64 65 82 81
65 66 83 82
66 67 84 83
67 68 85 84
69 70 87 86
70 71 88 87
71 72 89 88
72 73 90 89
73 74 91 90
74 75 92 91
75 76 93 92
76 77 94 93
77 78 95 94
78 79 96 95
79 80 97 96
80 81 98 97
81 82 99 98
82 83 100 99
83 84 101 100
84 85 102 101
86 87 104 103
87 88 105 104
88 89 106 105
89 90 107 106
90 91 108 107
91 92 109 108
92 93 110 109
93 94 111 110
94 95 112 111
95 96 113 112
96 97 114 113
97 98 115 114
98 99 116 115
99 100 117 116
100 101 118 117
101 102 119 118
103 104 121 120
104 105 122 121
105 106 123 122
106 107 124 123
107 108 125 124
108 109 126 125
109 110 127 126
110 111 128 127
111 112 129 128
112 113 130 129
113 114 131 130
114 115 132 131
115 116 133 132
116 117 134 133
117 118 135 134
118 119 136 135
120 121 138 137
121 122 139 138
122 123 140 139
123 124 141 140
124 125 142 141
125 126 143 142
126 127 144 143
127 128 145 144
128 129 146 145
129 130 147 146
130 131 148 147
131 132 149 148
132 133 150 149
133 134 151 150
134 135 152 151
135 136 153 152
