TITLE = "Solution"
VARIABLES = x, y, u, v, psiu, psiv, t, stress
ZONE T="structure" N=153 E=128 F=FEBLOCK ET=QUADRILATERAL VARLOCATION=([7,8]=cellcentered)
0.000000e+00
1.250000e+01
2.500000e+01
3.750000e+01
5.000000e+01
6.250000e+01
7.500000e+01
8.750000e+01
1.000000e+02
1.125000e+02
1.250000e+02
1.375000e+02
1.500000e+02
1.625000e+02
1.750000e+02
1.875000e+02
2.000000e+02
0.000000e+00
1.250000e+01
2.500000e+01
3.750000e+01
5.000000e+01
6.250000e+01
7.500000e+01
8.750000e+01
1.000000e+02
1.125000e+02
1.250000e+02
1.375000e+02
1.500000e+02
1.625000e+02
1.750000e+02
1.875000e+02
2.000000e+02
0.000000e+00
1.250000e+01
2.500000e+01
3.750000e+01
5.000000e+01
6.250000e+01
7.500000e+01
8.750000e+01
1.000000e+02
1.125000e+02
1.250000e+02
1.375000e+02
1.500000e+02
1.625000e+02
1.750000e+02
1.875000e+02
2.000000e+02
0.000000e+00
1.250000e+01
2.500000e+01
3.750000e+01
5.000000e+01
6.250000e+01
7.500000e+01
8.750000e+01
1.000000e+02
1.125000e+02
1.250000e+02
1.375000e+02
1.500000e+02
1.625000e+02
1.750000e+02
1.875000e+02
2.000000e+02
0.000000e+00
1.250000e+01
2.500000e+01
3.750000e+01
5.000000e+01
6.250000e+01
7.500000e+01
8.750000e+01
1.000000e+02
1.125000e+02
1.250000e+02
1.375000e+02
1.500000e+02
1.625000e+02
1.750000e+02
1.875000e+02
2.000000e+02
0.000000e+00
1.250000e+01
2.500000e+01
3.750000e+01
5.000000e+01
6.250000e+01
7.500000e+01
8.750000e+01
1.000000e+02
1.125000e+02
1.250000e+02
1.375000e+02
1.500000e+02
1.625000e+02
1.750000e+02
1.875000e+02
2.000000e+02
0.000000e+00
1.250000e+01
2.500000e+01
3.750000e+01
5.000000e+01
6.250000e+01
7.500000e+01
8.750000e+01
1.000000e+02
1.125000e+02
1.250000e+02
1.375000e+02
1.500000e+02
1.625000e+02
1.750000e+02
1.875000e+02
2.000000e+02
0.000000e+00
1.250000e+01
2.500000e+01
3.750000e+01
5.000000e+01
6.250000e+01
7.500000e+01
8.750000e+01
1.000000e+02
1.125000e+02
1.250000e+02
1.375000e+02
1.500000e+02
1.625000e+02
1.750000e+02
1.875000e+02
2.000000e+02
0.000000e+00
1.250000e+01
2.500000e+01
3.750000e+01
5.000000e+01
6.250000e+01
7.500000e+01
8.750000e+01
1.000000e+02
1.125000e+02
1.250000e+02
1.375000e+02
1.500000e+02
1.625000e+02
1.750000e+02
1.875000e+02
2.000000e+02
0.000000e+00
0.000000e+00
0.000000e+00
0.000000e+00
0.000000e+00
0.000000e+00
0.000000e+00
0.000000e+00
0.000000e+00
0.000000e+00
0.000000e+00
0.000000e+00
0.000000e+00
0.000000e+00
0.000000e+00
0.000000e+00
0.000000e+00
1.250000e+01
1.250000e+01
1.250000e+01
1.250000e+01
1.250000e+01
1.250000e+01
1.250000e+01
1.250000e+01
1.250000e+01
1.250000e+01
1.250000e+01
1.250000e+01
1.250000e+01
1.250000e+01
1.250000e+01
1.250000e+01
1.250000e+01
2.500000e+01
2.500000e+01
2.500000e+01
2.500000e+01
2.500000e+01
2.500000e+01
2.500000e+01
2.500000e+01
2.500000e+01
2.500000e+01
2.500000e+01
2.500000e+01
2.500000e+01
2.500000e+01
2.500000e+01
2.500000e+01
2.500000e+01
3.750000e+01
3.750000e+01
3.750000e+01
3.750000e+01
3.750000e+01
3.750000e+01
3.750000e+01
3.750000e+01
3.750000e+01
3.750000e+01
3.750000e+01
3.750000e+01
3.750000e+01
3.750000e+01
3.750000e+01
3.750000e+01
3.750000e+01
5.000000e+01
5.000000e+01
5.000000e+01
5.000000e+01
5.000000e+01
5.000000e+01
5.000000e+01
5.000000e+01
5.000000e+01
5.000000e+01
5.000000e+01
5.000000e+01
5.000000e+01
5.000000e+01
5.000000e+01
5.000000e+01
5.000000e+01
6.250000e+01
6.250000e+01
6.250000e+01
6.250000e+01
6.250000e+01
6.250000e+01
6.250000e+01
6.250000e+01
6.250000e+01
6.250000e+01
6.250000e+01
6.250000e+01
6.250000e+01
6.250000e+01
6.250000e+01
6.250000e+01
6.250000e+01
7.500000e+01
7.500000e+01
7.500000e+01
7.500000e+01
7.500000e+01
7.500000e+01
7.500000e+01
7.500000e+01
7.500000e+01
7.500000e+01
7.500000e+01
7.500000e+01
7.500000e+01
7.500000e+01
7.500000e+01
7.500000e+01
7.500000e+01
8.750000e+01
8.750000e+01
8.750000e+01
8.750000e+01
8.750000e+01
8.750000e+01
8.750000e+01
8.750000e+01
8.750000e+01
8.750000e+01
8.750000e+01
8.750000e+01
8.750000e+01
8.750000e+01
8.750000e+01
8.750000e+01
8.750000e+01
1.000000e+02
1.000000e+02
1.000000e+02
1.000000e+02
1.000000e+02
1.000000e+02
1.000000e+02
1.000000e+02
1.000000e+02
1.000000e+02
1.000000e+02
1.000000e+02
1.000000e+02
1.000000e+02
1.000000e+02
1.000000e+02
1.000000e+02
0.000000e+00
-1.024051e+00
-1.684651e+00
-2.414245e+00
-3.114865e+00
-3.754684e+00
-4.404028e+00
-4.997409e+00
-5.666302e+00
-6.381886e+00
-7.060441e+00
-7.747329e+00
-8.481724e+00
-9.241650e+00
-9.958223e+00
-1.063275e+01
-1.108257e+01
0.000000e+00
-4.672619e-01
-9.208707e-01
-1.419392e+00
-1.951069e+00
-2.443702e+00
-2.943642e+00
-3.427581e+00
-3.940031e+00
-4.479271e+00
-4.975266e+00
-5.469140e+00
-5.982420e+00
-6.463895e+00
-6.778997e+00
-6.849388e+00
-7.010526e+00
0.000000e+00
-1.566781e-01
-3.656679e-01
-6.606080e-01
-1.016730e+00
-1.355119e+00
-1.722800e+00
-2.092477e+00
-2.446982e+00
-2.789168e+00
-3.101915e+00
-3.406270e+00
-3.682085e+00
-3.875058e+00
-3.922501e+00
-3.899709e+00
-4.061103e+00
0.000000e+00
-8.027314e-02
-1.666030e-01
-3.218750e-01
-4.707348e-01
-6.469284e-01
-8.299303e-01
-9.914211e-01
-1.146973e+00
-1.286047e+00
-1.426641e+00
-1.546545e+00
-1.612678e+00
-1.604614e+00
-1.547379e+00
-1.551870e+00
-1.684483e+00
0.000000e+00
-1.986047e-03
-4.113057e-03
-6.096046e-03
-7.426005e-03
-6.772801e-03
-2.013102e-03
9.467602e-03
3.032334e-02
6.191209e-02
1.077581e-01
1.748886e-01
2.697433e-01
3.878849e-01
4.878613e-01
4.973828e-01
3.966999e-01
0.000000e+00
7.710760e-02
1.605519e-01
3.126221e-01
4.595658e-01
6.369152e-01
8.256498e-01
1.003783e+00
1.190662e+00
1.383254e+00
1.608223e+00
1.846955e+00
2.068826e+00
2.256741e+00
2.384834e+00
2.414403e+00
2.355726e+00
0.000000e+00
1.555211e-01
3.635600e-01
6.572102e-01
1.012330e+00
1.349474e+00
1.716933e+00
2.089331e+00
2.453821e+00
2.820280e+00
3.179198e+00
3.545449e+00
3.876349e+00
4.133007e+00
4.296543e+00
4.354357e+00
4.338796e+00
0.000000e+00
4.678740e-01
9.217266e-01
1.419465e+00
1.950810e+00
2.442022e+00
2.938776e+00
3.419620e+00
3.923742e+00
4.448446e+00
4.932049e+00
5.396715e+00
5.816432e+00
6.136316e+00
6.336483e+00
6.424540e+00
6.440505e+00
0.000000e+00
1.026294e+00
1.688353e+00
2.419004e+00
3.121166e+00
3.763228e+00
4.411478e+00
5.004591e+00
5.661495e+00
6.344577e+00
6.972711e+00
7.559109e+00
8.066216e+00
8.423607e+00
8.610349e+00
8.660711e+00
8.660629e+00
0.000000e+00
-6.277999e-01
-1.361087e+00
-2.350185e+00
-3.514108e+00
-4.833387e+00
-6.314465e+00
-7.930856e+00
-9.709154e+00
-1.165145e+01
-1.375832e+01
-1.606044e+01
-1.856262e+01
-2.125341e+01
-2.417563e+01
-2.755910e+01
-3.251305e+01
0.000000e+00
-4.247408e-01
-1.198709e+00
-2.162922e+00
-3.339757e+00
-4.661524e+00
-6.147854e+00
-7.766561e+00
-9.527232e+00
-1.147273e+01
-1.358588e+01
-1.588387e+01
-1.838213e+01
-2.109800e+01
-2.406297e+01
-2.745225e+01
-3.157371e+01
0.000000e+00
-3.949587e-01
-1.094751e+00
-2.056155e+00
-3.214827e+00
-4.530282e+00
-6.021553e+00
-7.641608e+00
-9.411817e+00
-1.135884e+01
-1.347950e+01
-1.578712e+01
-1.830074e+01
-2.105435e+01
-2.405453e+01
-2.726114e+01
-3.027742e+01
0.000000e+00
-4.463502e-01
-1.080151e+00
-2.027719e+00
-3.146609e+00
-4.448815e+00
-5.942985e+00
-7.574174e+00
-9.365281e+00
-1.131134e+01
-1.344565e+01
-1.577583e+01
-1.830478e+01
-2.105557e+01
-2.399503e+01
-2.691717e+01
-2.946974e+01
0.000000e+00
-4.505416e-01
-1.098665e+00
-2.012148e+00
-3.133215e+00
-4.429593e+00
-5.919383e+00
-7.570716e+00
-9.368451e+00
-1.132428e+01
-1.347244e+01
-1.582106e+01
-1.834614e+01
-2.104419e+01
-2.385675e+01
-2.657016e+01
-2.888656e+01
0.000000e+00
-4.462357e-01
-1.081419e+00
-2.031342e+00
-3.153894e+00
-4.462536e+00
-5.964374e+00
-7.608704e+00
-9.414936e+00
-1.137863e+01
-1.353617e+01
-1.588723e+01
-1.839593e+01
-2.102745e+01
-2.371424e+01
-2.628049e+01
-2.849280e+01
0.000000e+00
-3.951451e-01
-1.097317e+00
-2.062308e+00
-3.227169e+00
-4.552359e+00
-6.056934e+00
-7.697485e+00
-9.493614e+00
-1.147128e+01
-1.362780e+01
-1.596877e+01
-1.845665e+01
-2.103307e+01
-2.362153e+01
-2.609016e+01
-2.829484e+01
0.000000e+00
-4.251293e-01
-1.201449e+00
-2.169512e+00
-3.352986e+00
-4.684962e+00
-6.186520e+00
-7.827530e+00
-9.618855e+00
-1.160182e+01
-1.375286e+01
-1.607824e+01
-1.854275e+01
-2.107639e+01
-2.359711e+01
-2.600463e+01
-2.824388e+01
0.000000e+00
-6.286461e-01
-1.363984e+00
-2.357021e+00
-3.527610e+00
-4.856919e+00
-6.353185e+00
-7.991233e+00
-9.797771e+00
-1.177557e+01
-1.391570e+01
-1.622544e+01
-1.866041e+01
-2.114955e+01
-2.361908e+01
-2.598849e+01
-2.824400e+01


0.000000e+00
1.388488e-05
2.440452e-05
3.724933e-05
5.151989e-05
6.539699e-05
7.988749e-05
9.378910e-05
1.089584e-04
1.230474e-04
1.340200e-04
1.431307e-04
1.502438e-04
1.546792e-04
1.576926e-04
1.614309e-04
1.662150e-04
0.000000e+00
9.732059e-06
1.940112e-05
2.898297e-05
4.062484e-05
5.168036e-05
6.282479e-05
7.420484e-05
8.580535e-05
9.565414e-05
1.025708e-04
1.081183e-04
1.116937e-04
1.119063e-04
1.111987e-04
1.142610e-04
1.198539e-04
0.000000e+00
7.934543e-06
1.516350e-05
2.174922e-05
3.016040e-05
3.783286e-05
4.556133e-05
5.330485e-05
5.995271e-05
6.485842e-05
6.821100e-05
7.065187e-05
7.165394e-05
7.095571e-05
7.068751e-05
7.375770e-05
7.926691e-05
0.000000e+00
4.486040e-06
7.213838e-06
1.142147e-05
1.517993e-05
1.894662e-05
2.290060e-05
2.636644e-05
2.914680e-05
3.092821e-05
3.200106e-05
3.231828e-05
3.211869e-05
3.219714e-05
3.327126e-05
3.600854e-05
4.008118e-05
0.000000e+00
-4.965899e-08
-1.152577e-07
-1.826056e-07
-2.510876e-07
-3.107097e-07
-3.685043e-07
-4.335659e-07
-5.865116e-07
-9.462071e-07
-1.679857e-06
-2.634987e-06
-3.398029e-06
-3.456164e-06
-2.590109e-06
-1.317470e-06
5.427134e-07
0.000000e+00
-4.589663e-06
-7.406164e-06
-1.173062e-05
-1.558701e-05
-1.945721e-05
-2.345603e-05
-2.696473e-05
-2.976846e-05
-3.167745e-05
-3.333864e-05
-3.484766e-05
-3.590886e-05
-3.643298e-05
-3.688152e-05
-3.726106e-05
-3.691427e-05
0.000000e+00
-8.014254e-06
-1.528825e-05
-2.190291e-05
-3.040063e-05
-3.815738e-05
-4.592980e-05
-5.363969e-05
-6.012097e-05
-6.460502e-05
-6.723239e-05
-6.879887e-05
-6.983535e-05
-7.070783e-05
-7.159906e-05
-7.238276e-05
-7.260836e-05
0.000000e+00
-9.775461e-06
-1.944446e-05
-2.897851e-05
-4.064454e-05
-5.175206e-05
-6.290078e-05
-7.429279e-05
-8.587385e-05
-9.549248e-05
-1.013728e-04
-1.047038e-04
-1.065240e-04
-1.076855e-04
-1.084535e-04
-1.088298e-04
-1.089325e-04
0.000000e+00
-1.390855e-05
-2.438128e-05
-3.712042e-05
-5.131227e-05
-6.515585e-05
-7.952790e-05
-9.340710e-05
-1.085936e-04
-1.227145e-04
-1.331873e-04
-1.401190e-04
-1.440633e-04
-1.457709e-04
-1.462367e-04
-1.461663e-04
-1.460832e-04
0.000000e+00
1.174966e-05
2.012171e-05
3.201258e-05
4.700130e-05
6.445812e-05
8.573148e-05
1.102817e-04
1.384370e-04
1.689276e-04
2.020784e-04
2.383954e-04
2.765550e-04
3.168980e-04
3.642581e-04
4.200983e-04
4.769553e-04
0.000000e+00
6.814188e-06
1.559602e-05
2.609580e-05
4.080781e-05
5.823064e-05
7.940717e-05
1.039011e-04
1.319847e-04
1.636888e-04
1.980959e-04
2.352721e-04
2.747677e-04
3.162349e-04
3.610135e-04
4.132561e-04
4.682704e-04
0.000000e+00
3.202399e-06
1.120116e-05
2.114571e-05
3.524930e-05
5.300062e-05
7.411380e-05
9.901705e-05
1.278712e-04
1.605016e-04
1.957760e-04
2.336251e-04
2.740623e-04
3.158685e-04
3.569027e-04
4.041194e-04
4.561801e-04
0.000000e+00
2.011114e-06
8.726597e-06
1.881161e-05
3.281373e-05
5.070659e-05
7.207320e-05
9.741633e-05
1.268216e-04
1.596288e-04
1.951373e-04
2.331589e-04
2.737563e-04
3.152920e-04
3.542178e-04
3.965731e-04
4.441288e-04
0.000000e+00
1.634385e-06
8.087292e-06
1.802328e-05
3.215318e-05
4.998367e-05
7.149969e-05
9.707146e-05
1.266688e-04
1.595101e-04
1.950888e-04
2.332198e-04
2.736149e-04
3.150345e-04
3.539729e-04
3.932807e-04
4.356328e-04
0.000000e+00
2.039266e-06
8.753659e-06
1.879722e-05
3.273222e-05
5.056875e-05
7.188903e-05
9.726415e-05
1.268256e-04
1.598183e-04
1.956855e-04
2.340136e-04
2.742355e-04
3.150539e-04
3.546407e-04
3.929699e-04
4.311936e-04
0.000000e+00
3.243092e-06
1.124376e-05
2.111148e-05
3.511614e-05
5.275373e-05
7.376853e-05
9.867985e-05
1.277373e-04
1.608126e-04
1.968739e-04
2.353314e-04
2.752491e-04
3.153972e-04
3.547038e-04
3.927782e-04
4.297206e-04
0.000000e+00
6.867381e-06
1.563822e-05
2.606832e-05
4.068720e-05
5.799062e-05
7.903114e-05
1.034913e-04
1.317667e-04
1.639095e-04
1.989965e-04
2.367679e-04
2.760678e-04
3.156676e-04
3.546205e-04
3.925600e-04
4.296367e-04
0.000000e+00
1.181042e-05
2.014918e-05
3.197832e-05
4.690593e-05
6.424323e-05
8.537574e-05
1.099089e-04
1.382284e-04
1.689806e-04
2.022506e-04
2.385383e-04
2.768596e-04
3.158811e-04
3.546106e-04
3.924721e-04
4.297107e-04


6.415687e+00
6.030375e+00
6.132605e+00
5.156943e+00
4.554183e+00
4.756239e+00
4.701799e+00
4.657872e+00
4.481830e+00
4.666870e+00
5.528995e+00
6.686772e+00
7.412732e+00
6.929498e+00
5.483719e+00
4.476068e+00
7.968152e+00
8.143207e+00
8.090628e+00
7.663370e+00
7.241040e+00
7.324998e+00
6.934047e+00
6.037345e+00
5.449805e+00
5.508033e+00
6.299301e+00
7.255238e+00
7.725458e+00
6.963581e+00
5.337229e+00
4.198847e+00
9.380122e+00
9.510309e+00
9.714321e+00
9.351682e+00
9.211652e+00
9.271095e+00
8.827546e+00
7.944870e+00
7.214192e+00
7.192509e+00
7.526975e+00
7.851787e+00
7.926878e+00
7.141745e+00
5.608518e+00
4.564230e+00
9.610201e+00
9.805591e+00
9.880679e+00
9.648737e+00
9.443180e+00
9.519659e+00
9.548017e+00
9.226587e+00
8.849920e+00
8.614083e+00
8.234212e+00
7.754577e+00
7.565294e+00
7.257044e+00
6.444666e+00
5.770297e+00
9.603356e+00
9.800680e+00
9.869374e+00
9.609396e+00
9.376930e+00
9.422534e+00
9.461792e+00
9.186663e+00
8.870422e+00
8.618265e+00
8.047113e+00
7.291274e+00
7.074825e+00
7.340268e+00
7.392360e+00
7.237366e+00
9.381516e+00
9.505343e+00
9.680597e+00
9.264849e+00
9.051591e+00
9.066600e+00
8.641974e+00
7.855850e+00
7.260467e+00
7.283154e+00
7.351622e+00
7.140499e+00
7.167415e+00
7.697053e+00
8.227751e+00
8.433422e+00
7.983102e+00
8.138705e+00
8.059417e+00
7.584060e+00
7.097436e+00
7.148748e+00
6.785036e+00
5.961126e+00
5.514272e+00
5.775393e+00
6.610314e+00
7.295999e+00
7.774346e+00
8.360209e+00
8.920135e+00
9.185824e+00
6.428666e+00
6.031053e+00
6.112541e+00
5.108050e+00
4.461743e+00
4.648453e+00
4.632809e+00
4.633168e+00
4.557068e+00
5.028859e+00
6.223397e+00
7.454527e+00
8.290977e+00
8.888035e+00
9.337974e+00
9.549770e+00


-9.424634e-01
-1.090329e-01
-3.199754e-01
-3.318966e-01
-1.306854e-01
-1.627238e-01
-3.048541e-02
-2.348541e-01
-3.901644e-01
-2.220667e-01
-2.338327e-01
-3.672803e-01
-3.326905e-01
8.589054e-02
5.038073e-01
-7.212400e-01
5.776883e-01
4.876407e-01
3.146242e-01
1.646520e-01
2.503051e-01
1.725666e-01
1.865745e-01
1.605780e-01
1.395212e-01
2.630209e-01
2.817422e-01
3.097659e-01
4.885571e-01
7.862369e-01
7.250337e-01
-1.462595e+00
7.235530e-01
4.923074e-01
1.054282e-01
3.599203e-02
5.154811e-02
-3.996722e-03
1.456552e-01
2.593148e-01
3.461503e-01
3.799133e-01
3.807778e-01
4.238059e-01
4.471748e-01
3.496263e-01
9.960428e-02
-4.104734e-01
7.352645e-01
5.737810e-01
2.401979e-01
1.560288e-01
1.099991e-01
8.461213e-02
1.641884e-01
2.156354e-01
2.573545e-01
2.329520e-01
2.101677e-01
1.803743e-01
2.879560e-02
-1.912667e-01
-1.260702e-01
4.996723e-02
7.367823e-01
5.761461e-01
2.450684e-01
1.600377e-01
1.091132e-01
7.208566e-02
1.266492e-01
1.482074e-01
1.531646e-01
7.993149e-02
1.124834e-02
-3.428219e-02
-1.449481e-01
-2.302355e-01
1.108582e-02
4.386726e-01
7.264431e-01
4.961336e-01
1.127453e-01
4.055811e-02
4.361865e-02
-3.348424e-02
7.090104e-02
1.271600e-01
1.314126e-01
4.148460e-02
-9.928800e-02
-1.205674e-01
-6.254431e-02
6.495019e-02
3.829984e-01
7.791255e-01
5.787252e-01
4.883543e-01
3.166705e-01
1.636075e-01
2.474796e-01
1.634382e-01
1.589155e-01
1.049080e-01
2.440911e-02
4.885437e-02
-3.312977e-02
-4.155473e-03
1.922871e-01
4.513218e-01
7.435726e-01
9.559019e-01
-9.494041e-01
-1.123985e-01
-3.207419e-01
-3.348535e-01
-1.328128e-01
-1.560105e-01
-2.709267e-02
-2.010065e-01
-3.076420e-01
-1.265213e-01
-3.241772e-02
1.644477e-01
5.123002e-01
8.011562e-01
9.566054e-01
9.989755e-01
1 2 19 18
2 3 20 19
3 4 21 20
4 5 22 21
5 6 23 22
6 7 24 23
7 8 25 24
8 9 26 25
9 10 27 26
10 11 28 27
11 12 29 28
12 13 30 29
13 14 31 30
14 15 32 31
15 16 33 32
16 17 34 33
18 19 36 35
19 20 37 36
20 21 38 37
21 22 39 38
22 23 40 39
23 24 41 40
24 25 42 41
25 26 43 42
26 27 44 43
27 28 45 44
28 29 46 45
29 30 47 46
30 31 48 47
31 32 49 48
32 33 50 49
33 34 51 50
35 36 53 52
36 37 54 53
37 38 55 54
38 39 56 55
39 40 57 56
40 41 58 57
41 42 59 58
42 43 60 59
43 44 61 60
44 45 62 61
45 46 63 62
46 47 64 63
47 48 65 64
48 49 66 65
49 50 67 66
50 51 68 67
52 53 70 69
53 54 71 70
54 55 72 71
55 56 73 72
56 57 74 73
57 58 75 74
58 59 76 75
59 60 77 76
60 61 78 77
61 62 79 78
62 63 80 79
63 64 81 80
64 65 82 81
65 66 83 82
66 67 84 83
67 68 85 84
69 70 87 86
70 71 88 87
71 72 89 88
72 73 90 89
73 74 91 90
74 75 92 91
75 76 93 92
76 77 94 93
77 78 95 94
78 79 96 95
79 80 97 96
80 81 98 97
81 82 99 98
82 83 100 99
83 84 101 100
84 85 102 101
86 87 104 103
87 88 105 104
88 89 106 105
89 90 107 106
90 91 108 107
91 92 109 108
92 93 110 109
93 94 111 110
94 95 112 111
95 96 113 112
96 97 114 113
97 98 115 114
98 99 116 115
99 100 117 116
100 101 118 117
101 102 119 118
103 104 121 120
104 105 122 121
105 106 123 122
106 107 124 123
107 108 125 124
108 109 126 125
109 110 127 126
110 111 128 127
111 112 129 128
112 113 130 129
113 114 131 130
114 115 132 131
115 116 133 132
116 117 134 133
117 118 135 134
118 119 136 135
120 121 138 137
121 122 139 138
122 123 140 139
123 124 141 140
124 125 142 141
125 126 143 142
126 127 144 143
127 128 145 144
128 129 146 145
129 130 147 146
130 131 148 147
131 132 149 148
132 133 150 149
133 134 151 150
134 135 152 151
135 136 153 152
