TITLE = "Solution"
VARIABLES = x, y, u, v, psiu, psiv, t, stress
ZONE T="structure" N=153 E=128 F=FEBLOCK ET=QUADRILATERAL VARLOCATION=([7,8]=cellcentered)
0.000000e+00
1.250000e+01
2.500000e+01
3.750000e+01
5.000000e+01
6.250000e+01
7.500000e+01
8.750000e+01
1.000000e+02
1.125000e+02
1.250000e+02
1.375000e+02
1.500000e+02
1.625000e+02
1.750000e+02
1.875000e+02
2.000000e+02
0.000000e+00
1.250000e+01
2.500000e+01
3.750000e+01
5.000000e+01
6.250000e+01
7.500000e+01
8.750000e+01
1.000000e+02
1.125000e+02
1.250000e+02
1.375000e+02
1.500000e+02
1.625000e+02
1.750000e+02
1.875000e+02
2.000000e+02
0.000000e+00
1.250000e+01
2.500000e+01
3.750000e+01
5.000000e+01
6.250000e+01
7.500000e+01
8.750000e+01
1.000000e+02
1.125000e+02
1.250000e+02
1.375000e+02
1.500000e+02
1.625000e+02
1.750000e+02
1.875000e+02
2.000000e+02
0.000000e+00
1.250000e+01
2.500000e+01
3.750000e+01
5.000000e+01
6.250000e+01
7.500000e+01
8.750000e+01
1.000000e+02
1.125000e+02
1.250000e+02
1.375000e+02
1.500000e+02
1.625000e+02
1.750000e+02
1.875000e+02
2.000000e+02
0.000000e+00
1.250000e+01
2.500000e+01
3.750000e+01
5.000000e+01
6.250000e+01
7.500000e+01
8.750000e+01
1.000000e+02
1.125000e+02
1.250000e+02
1.375000e+02
1.500000e+02
1.625000e+02
1.750000e+02
1.875000e+02
2.000000e+02
0.000000e+00
1.250000e+01
2.500000e+01
3.750000e+01
5.000000e+01
6.250000e+01
7.500000e+01
8.750000e+01
1.000000e+02
1.125000e+02
1.250000e+02
1.375000e+02
1.500000e+02
1.625000e+02
1.750000e+02
1.875000e+02
2.000000e+02
0.000000e+00
1.250000e+01
2.500000e+01
3.750000e+01
5.000000e+01
6.250000e+01
7.500000e+01
8.750000e+01
1.000000e+02
1.125000e+02
1.250000e+02
1.375000e+02
1.500000e+02
1.625000e+02
1.750000e+02
1.875000e+02
2.000000e+02
0.000000e+00
1.250000e+01
2.500000e+01
3.750000e+01
5.000000e+01
6.250000e+01
7.500000e+01
8.750000e+01
1.000000e+02
1.125000e+02
1.250000e+02
1.375000e+02
1.500000e+02
1.625000e+02
1.750000e+02
1.875000e+02
2.000000e+02
0.000000e+00
1.250000e+01
2.500000e+01
3.750000e+01
5.000000e+01
6.250000e+01
7.500000e+01
8.750000e+01
1.000000e+02
1.125000e+02
1.250000e+02
1.375000e+02
1.500000e+02
1.625000e+02
1.750000e+02
1.875000e+02
2.000000e+02
0.000000e+00
0.000000e+00
0.000000e+00
0.000000e+00
0.000000e+00
0.000000e+00
0.000000e+00
0.000000e+00
0.000000e+00
0.000000e+00
0.000000e+00
0.000000e+00
0.000000e+00
0.000000e+00
0.000000e+00
0.000000e+00
0.000000e+00
1.250000e+01
1.250000e+01
1.250000e+01
1.250000e+01
1.250000e+01
1.250000e+01
1.250000e+01
1.250000e+01
1.250000e+01
1.250000e+01
1.250000e+01
1.250000e+01
1.250000e+01
1.250000e+01
1.250000e+01
1.250000e+01
1.250000e+01
2.500000e+01
2.500000e+01
2.500000e+01
2.500000e+01
2.500000e+01
2.500000e+01
2.500000e+01
2.500000e+01
2.500000e+01
2.500000e+01
2.500000e+01
2.500000e+01
2.500000e+01
2.500000e+01
2.500000e+01
2.500000e+01
2.500000e+01
3.750000e+01
3.750000e+01
3.750000e+01
3.750000e+01
3.750000e+01
3.750000e+01
3.750000e+01
3.750000e+01
3.750000e+01
3.750000e+01
3.750000e+01
3.750000e+01
3.750000e+01
3.750000e+01
3.750000e+01
3.750000e+01
3.750000e+01
5.000000e+01
5.000000e+01
5.000000e+01
5.000000e+01
5.000000e+01
5.000000e+01
5.000000e+01
5.000000e+01
5.000000e+01
5.000000e+01
5.000000e+01
5.000000e+01
5.000000e+01
5.000000e+01
5.000000e+01
5.000000e+01
5.000000e+01
6.250000e+01
6.250000e+01
6.250000e+01
6.250000e+01
6.250000e+01
6.250000e+01
6.250000e+01
6.250000e+01
6.250000e+01
6.250000e+01
6.250000e+01
6.250000e+01
6.250000e+01
6.250000e+01
6.250000e+01
6.250000e+01
6.250000e+01
7.500000e+01
7.500000e+01
7.500000e+01
7.500000e+01
7.500000e+01
7.500000e+01
7.500000e+01
7.500000e+01
7.500000e+01
7.500000e+01
7.500000e+01
7.500000e+01
7.500000e+01
7.500000e+01
7.500000e+01
7.500000e+01
7.500000e+01
8.750000e+01
8.750000e+01
8.750000e+01
8.750000e+01
8.750000e+01
8.750000e+01
8.750000e+01
8.750000e+01
8.750000e+01
8.750000e+01
8.750000e+01
8.750000e+01
8.750000e+01
8.750000e+01
8.750000e+01
8.750000e+01
8.750000e+01
1.000000e+02
1.000000e+02
1.000000e+02
1.000000e+02
1.000000e+02
1.000000e+02
1.000000e+02
1.000000e+02
1.000000e+02
1.000000e+02
1.000000e+02
1.000000e+02
1.000000e+02
1.000000e+02
1.000000e+02
1.000000e+02
1.000000e+02
0.000000e+00
-1.027468e+00
-1.691694e+00
-2.418694e+00
-3.108968e+00
-3.755269e+00
-4.425187e+00
-5.006349e+00
-5.657258e+00
-6.373979e+00
-7.056702e+00
-7.741462e+00
-8.459052e+00
-9.198840e+00
-1.001759e+01
-1.072394e+01
-1.116529e+01
0.000000e+00
-4.686074e-01
-9.247529e-01
-1.421429e+00
-1.942741e+00
-2.439862e+00
-2.953109e+00
-3.431390e+00
-3.932385e+00
-4.475781e+00
-4.975767e+00
-5.468941e+00
-5.972103e+00
-6.453461e+00
-6.832189e+00
-6.936864e+00
-7.106134e+00
0.000000e+00
-1.563770e-01
-3.649342e-01
-6.579640e-01
-1.009511e+00
-1.349933e+00
-1.722033e+00
-2.091699e+00
-2.446997e+00
-2.794533e+00
-3.107887e+00
-3.413370e+00
-3.692183e+00
-3.891986e+00
-3.957412e+00
-3.936919e+00
-4.086355e+00
0.000000e+00
-7.903349e-02
-1.646459e-01
-3.194844e-01
-4.679901e-01
-6.441654e-01
-8.299841e-01
-9.940565e-01
-1.155280e+00
-1.294339e+00
-1.432919e+00
-1.554836e+00
-1.629431e+00
-1.630797e+00
-1.565717e+00
-1.557528e+00
-1.695042e+00
0.000000e+00
-2.014978e-03
-4.274353e-03
-6.331241e-03
-7.462510e-03
-6.250237e-03
-7.131391e-04
1.134401e-02
3.177628e-02
6.213795e-02
1.059749e-01
1.711098e-01
2.643115e-01
3.797143e-01
4.715596e-01
4.796566e-01
3.765859e-01
0.000000e+00
7.569163e-02
1.584436e-01
3.100699e-01
4.566170e-01
6.336942e-01
8.258956e-01
1.006684e+00
1.199131e+00
1.389097e+00
1.607254e+00
1.842720e+00
2.069260e+00
2.262840e+00
2.391882e+00
2.417470e+00
2.356367e+00
0.000000e+00
1.549126e-01
3.624357e-01
6.542840e-01
1.004200e+00
1.342833e+00
1.714125e+00
2.086031e+00
2.450835e+00
2.822542e+00
3.178543e+00
3.540669e+00
3.874155e+00
4.138080e+00
4.307390e+00
4.367635e+00
4.351876e+00
0.000000e+00
4.685263e-01
9.246296e-01
1.420701e+00
1.941248e+00
2.437083e+00
2.947456e+00
3.421579e+00
3.914121e+00
4.445673e+00
4.934040e+00
5.397556e+00
5.816699e+00
6.140060e+00
6.345143e+00
6.436598e+00
6.453379e+00
0.000000e+00
1.028649e+00
1.694000e+00
2.422108e+00
3.113846e+00
3.762332e+00
4.432355e+00
5.011164e+00
5.650844e+00
6.339712e+00
6.975676e+00
7.564610e+00
8.073181e+00
8.433191e+00
8.622300e+00
8.673646e+00
8.673746e+00
0.000000e+00
-6.293382e-01
-1.365110e+00
-2.354383e+00
-3.519157e+00
-4.846256e+00
-6.337295e+00
-7.956914e+00
-9.736538e+00
-1.168113e+01
-1.378567e+01
-1.608417e+01
-1.857990e+01
-2.127443e+01
-2.420990e+01
-2.757724e+01
-3.253522e+01
0.000000e+00
-4.251969e-01
-1.202232e+00
-2.169613e+00
-3.345519e+00
-4.670380e+00
-6.169249e+00
-7.796831e+00
-9.556673e+00
-1.150144e+01
-1.361221e+01
-1.590929e+01
-1.840385e+01
-2.110534e+01
-2.408113e+01
-2.748757e+01
-3.154275e+01
0.000000e+00
-3.952247e-01
-1.098112e+00
-2.064052e+00
-3.220534e+00
-4.537147e+00
-6.042400e+00
-7.671108e+00
-9.442388e+00
-1.138772e+01
-1.350397e+01
-1.581085e+01
-1.832136e+01
-2.105234e+01
-2.406950e+01
-2.732367e+01
-3.037814e+01
0.000000e+00
-4.471553e-01
-1.083270e+00
-2.034272e+00
-3.152829e+00
-4.455559e+00
-5.961629e+00
-7.599671e+00
-9.397285e+00
-1.134107e+01
-1.346690e+01
-1.579300e+01
-1.832361e+01
-2.106158e+01
-2.401255e+01
-2.698580e+01
-2.956646e+01
0.000000e+00
-4.518765e-01
-1.101832e+00
-2.017538e+00
-3.139168e+00
-4.437192e+00
-5.934732e+00
-7.594820e+00
-9.399624e+00
-1.135375e+01
-1.349006e+01
-1.583298e+01
-1.836451e+01
-2.106746e+01
-2.387680e+01
-2.661155e+01
-2.894159e+01
0.000000e+00
-4.468976e-01
-1.084317e+00
-2.037642e+00
-3.159661e+00
-4.467780e+00
-5.982332e+00
-7.632405e+00
-9.444234e+00
-1.140492e+01
-1.355312e+01
-1.589942e+01
-1.841619e+01
-2.105801e+01
-2.374793e+01
-2.631989e+01
-2.854569e+01
0.000000e+00
-3.952564e-01
-1.100184e+00
-2.069589e+00
-3.231534e+00
-4.557202e+00
-6.076259e+00
-7.724348e+00
-9.519416e+00
-1.149471e+01
-1.364575e+01
-1.598430e+01
-1.847882e+01
-2.106554e+01
-2.366030e+01
-2.613363e+01
-2.834479e+01
0.000000e+00
-4.253810e-01
-1.204399e+00
-2.175300e+00
-3.357160e+00
-4.691771e+00
-6.205917e+00
-7.854727e+00
-9.642719e+00
-1.162440e+01
-1.377220e+01
-1.609651e+01
-1.856638e+01
-2.110920e+01
-2.363717e+01
-2.604911e+01
-2.829035e+01
0.000000e+00
-6.298010e-01
-1.367409e+00
-2.360219e+00
-3.531055e+00
-4.867871e+00
-6.373875e+00
-8.013721e+00
-9.820125e+00
-1.179974e+01
-1.393663e+01
-1.624476e+01
-1.868481e+01
-2.118297e+01
-2.365991e+01
-2.603324e+01
-2.829006e+01


0.000000e+00
1.367747e-05
2.416227e-05
3.722208e-05
5.152159e-05
6.525286e-05
7.977560e-05
9.353379e-05
1.089528e-04
1.237848e-04
1.352728e-04
1.446672e-04
1.518720e-04
1.563646e-04
1.595854e-04
1.633680e-04
1.684209e-04
0.000000e+00
9.513341e-06
1.913055e-05
2.901454e-05
4.079255e-05
5.166742e-05
6.259804e-05
7.395339e-05
8.596361e-05
9.651808e-05
1.037417e-04
1.093651e-04
1.129635e-04
1.133292e-04
1.128300e-04
1.166656e-04
1.222997e-04
0.000000e+00
7.753037e-06
1.493874e-05
2.178319e-05
3.036303e-05
3.786877e-05
4.539543e-05
5.330397e-05
6.035536e-05
6.559342e-05
6.905999e-05
7.155965e-05
7.261360e-05
7.197408e-05
7.179153e-05
7.502506e-05
8.020254e-05
0.000000e+00
4.431728e-06
7.121719e-06
1.138365e-05
1.518855e-05
1.891509e-05
2.292217e-05
2.648046e-05
2.943002e-05
3.131978e-05
3.247828e-05
3.285182e-05
3.265772e-05
3.274030e-05
3.372885e-05
3.659094e-05
4.097263e-05
0.000000e+00
-5.819747e-08
-1.296522e-07
-2.004832e-07
-2.718951e-07
-3.343364e-07
-3.847317e-07
-4.237783e-07
-5.266845e-07
-8.396345e-07
-1.545894e-06
-2.544558e-06
-3.392715e-06
-3.449823e-06
-2.489877e-06
-1.013223e-06
1.066629e-06
0.000000e+00
-4.538161e-06
-7.328352e-06
-1.172115e-05
-1.562816e-05
-1.945044e-05
-2.351957e-05
-2.709769e-05
-3.000335e-05
-3.190856e-05
-3.354871e-05
-3.509844e-05
-3.629502e-05
-3.692936e-05
-3.739839e-05
-3.774835e-05
-3.737370e-05
0.000000e+00
-7.808209e-06
-1.504526e-05
-2.195166e-05
-3.062158e-05
-3.821238e-05
-4.581687e-05
-5.372999e-05
-6.059733e-05
-6.535312e-05
-6.797309e-05
-6.947417e-05
-7.056267e-05
-7.157504e-05
-7.260484e-05
-7.348386e-05
-7.372468e-05
0.000000e+00
-9.526866e-06
-1.914535e-05
-2.901823e-05
-4.083122e-05
-5.175724e-05
-6.271554e-05
-7.409976e-05
-8.612736e-05
-9.654102e-05
-1.027039e-04
-1.059935e-04
-1.077775e-04
-1.090213e-04
-1.098849e-04
-1.103249e-04
-1.104477e-04
0.000000e+00
-1.367767e-05
-2.411792e-05
-3.709927e-05
-5.133417e-05
-6.501784e-05
-7.944111e-05
-9.314907e-05
-1.086255e-04
-1.236671e-04
-1.348056e-04
-1.419731e-04
-1.459553e-04
-1.476377e-04
-1.480912e-04
-1.480286e-04
-1.479506e-04
0.000000e+00
1.156714e-05
2.000163e-05
3.199169e-05
4.678525e-05
6.400083e-05
8.530644e-05
1.099722e-04
1.384064e-04
1.691567e-04
2.024142e-04
2.390389e-04
2.776967e-04
3.187255e-04
3.672597e-04
4.236590e-04
4.797620e-04
0.000000e+00
6.692669e-06
1.540637e-05
2.596091e-05
4.061247e-05
5.785323e-05
7.902706e-05
1.035614e-04
1.316738e-04
1.636010e-04
1.982805e-04
2.358460e-04
2.758531e-04
3.178924e-04
3.634932e-04
4.165761e-04
4.708755e-04
0.000000e+00
3.137977e-06
1.095804e-05
2.088302e-05
3.501454e-05
5.273788e-05
7.377179e-05
9.854759e-05
1.273384e-04
1.602227e-04
1.958665e-04
2.341223e-04
2.750738e-04
3.174079e-04
3.589559e-04
4.077952e-04
4.603461e-04
0.000000e+00
1.969440e-06
8.543519e-06
1.851747e-05
3.251121e-05
5.042660e-05
7.173239e-05
9.690831e-05
1.262833e-04
1.593261e-04
1.951384e-04
2.335160e-04
2.747582e-04
3.168480e-04
3.562245e-04
3.998121e-04
4.484365e-04
0.000000e+00
1.592166e-06
7.939656e-06
1.775461e-05
3.182384e-05
4.965496e-05
7.114184e-05
9.657570e-05
1.261491e-04
1.591995e-04
1.949935e-04
2.334592e-04
2.746396e-04
3.167987e-04
3.560770e-04
3.959625e-04
4.392115e-04
0.000000e+00
1.998290e-06
8.565631e-06
1.850892e-05
3.244126e-05
5.029219e-05
7.154731e-05
9.673736e-05
1.262416e-04
1.594385e-04
1.955670e-04
2.342910e-04
2.753483e-04
3.169458e-04
3.568817e-04
3.956340e-04
4.345852e-04
0.000000e+00
3.179246e-06
1.099648e-05
2.086402e-05
3.490215e-05
5.250245e-05
7.342375e-05
9.816109e-05
1.270721e-04
1.603722e-04
1.967972e-04
2.357425e-04
2.764438e-04
3.173312e-04
3.570681e-04
3.955529e-04
4.330050e-04
0.000000e+00
6.742001e-06
1.545389e-05
2.595778e-05
4.051916e-05
5.762661e-05
7.865719e-05
1.030977e-04
1.313035e-04
1.636363e-04
1.990094e-04
2.372467e-04
2.772604e-04
3.175869e-04
3.570414e-04
3.954021e-04
4.328688e-04
0.000000e+00
1.161862e-05
2.004235e-05
3.199233e-05
4.671609e-05
6.380012e-05
8.496151e-05
1.095437e-04
1.380871e-04
1.690834e-04
2.024196e-04
2.390369e-04
2.780382e-04
3.177826e-04
3.570576e-04
3.953298e-04
4.329378e-04


6.351993e+00
6.065483e+00
6.263175e+00
5.281819e+00
4.773866e+00
5.132538e+00
4.942147e+00
4.762032e+00
4.552863e+00
4.708833e+00
5.535356e+00
6.583953e+00
7.417147e+00
8.196922e+00
8.217290e+00
7.813120e+00
7.888920e+00
8.145400e+00
8.176892e+00
7.761812e+00
7.382376e+00
7.525902e+00
7.164614e+00
6.201640e+00
5.531249e+00
5.497253e+00
6.263718e+00
7.154070e+00
7.685311e+00
7.831004e+00
7.327463e+00
6.205118e+00
9.324105e+00
9.492721e+00
9.763105e+00
9.429490e+00
9.268307e+00
9.365152e+00
8.972644e+00
8.080627e+00
7.186716e+00
7.027822e+00
7.417517e+00
7.779724e+00
7.797570e+00
7.469418e+00
6.530635e+00
5.731972e+00
9.607855e+00
9.808548e+00
9.910525e+00
9.710260e+00
9.515739e+00
9.597650e+00
9.645568e+00
9.246626e+00
8.663818e+00
8.320623e+00
8.107376e+00
7.785222e+00
7.446468e+00
7.038932e+00
6.564282e+00
6.108665e+00
9.603720e+00
9.802476e+00
9.889918e+00
9.657718e+00
9.440802e+00
9.528514e+00
9.606234e+00
9.248343e+00
8.720008e+00
8.370261e+00
7.989816e+00
7.446335e+00
7.121370e+00
7.092294e+00
7.048896e+00
6.983208e+00
9.313795e+00
9.482074e+00
9.719768e+00
9.319405e+00
9.103605e+00
9.200890e+00
8.856969e+00
8.058122e+00
7.288162e+00
7.184443e+00
7.333072e+00
7.281230e+00
7.318317e+00
7.673024e+00
8.033525e+00
8.182723e+00
7.878958e+00
8.136611e+00
8.147097e+00
7.678411e+00
7.242561e+00
7.370796e+00
7.046516e+00
6.159241e+00
5.622637e+00
5.761014e+00
6.556249e+00
7.288268e+00
7.828214e+00
8.412742e+00
8.910683e+00
9.127360e+00
6.339505e+00
6.060435e+00
6.253701e+00
5.245553e+00
4.700753e+00
5.037510e+00
4.879416e+00
4.757502e+00
4.642241e+00
5.029825e+00
6.135135e+00
7.337410e+00
8.217993e+00
8.882216e+00
9.353941e+00
9.553471e+00


-9.543256e-01
-1.210188e-01
-3.099031e-01
-2.885492e-01
-1.529933e-01
-2.303948e-01
2.494872e-03
-1.756092e-01
-4.020146e-01
-2.393267e-01
-2.291035e-01
-3.117986e-01
-2.998192e-01
-2.242766e-01
4.189700e-01
-7.329661e-01
5.769757e-01
4.853483e-01
3.204954e-01
1.897433e-01
2.388660e-01
1.386367e-01
1.925705e-01
1.738514e-01
1.183261e-01
2.525506e-01
2.744954e-01
3.076904e-01
4.747813e-01
7.161004e-01
7.314496e-01
-9.613873e-01
7.240277e-01
4.901875e-01
9.969337e-02
3.758848e-02
4.085762e-02
-4.250454e-02
1.229282e-01
2.361029e-01
3.360083e-01
3.887580e-01
3.810740e-01
4.118572e-01
4.591617e-01
3.293574e-01
4.853414e-02
-4.173188e-01
7.332587e-01
5.677544e-01
2.291557e-01
1.497381e-01
1.018512e-01
5.965392e-02
1.525579e-01
2.150304e-01
2.806754e-01
2.689034e-01
2.313552e-01
1.900952e-01
7.512276e-02
-1.705978e-01
-2.489334e-01
-9.843277e-02
7.348071e-01
5.702448e-01
2.346166e-01
1.541101e-01
1.001868e-01
4.077645e-02
1.087601e-01
1.415263e-01
1.744198e-01
1.157203e-01
2.662193e-02
-4.720421e-02
-1.403587e-01
-1.717255e-01
3.924337e-02
4.403217e-01
7.271930e-01
4.940514e-01
1.067289e-01
4.292085e-02
3.389584e-02
-7.730398e-02
4.488523e-02
1.002241e-01
1.210902e-01
6.268154e-02
-8.538526e-02
-1.488084e-01
-1.011876e-01
5.513033e-02
3.908773e-01
7.806585e-01
5.790354e-01
4.863591e-01
3.219478e-01
1.906347e-01
2.372440e-01
1.304640e-01
1.695427e-01
1.230863e-01
2.243450e-03
5.065725e-02
-1.762770e-02
-1.115902e-02
1.651114e-01
4.306290e-01
7.350233e-01
9.532104e-01
-9.568454e-01
-1.232069e-01
-3.111018e-01
-2.903177e-01
-1.553127e-01
-2.263364e-01
1.193036e-02
-1.430775e-01
-3.335890e-01
-1.493473e-01
-3.308052e-02
1.628378e-01
5.030710e-01
7.945053e-01
9.547211e-01
9.988759e-01
1 2 19 18
2 3 20 19
3 4 21 20
4 5 22 21
5 6 23 22
6 7 24 23
7 8 25 24
8 9 26 25
9 10 27 26
10 11 28 27
11 12 29 28
12 13 30 29
13 14 31 30
14 15 32 31
15 16 33 32
16 17 34 33
18 19 36 35
19 20 37 36
20 21 38 37
21 22 39 38
22 23 40 39
23 24 41 40
24 25 42 41
25 26 43 42
26 27 44 43
27 28 45 44
28 29 46 45
29 30 47 46
30 31 48 47
31 32 49 48
32 33 50 49
33 34 51 50
35 36 53 52
36 37 54 53
37 38 55 54
38 39 56 55
39 40 57 56
40 41 58 57
41 42 59 58
42 43 60 59
43 44 61 60
44 45 62 61
45 46 63 62
46 47 64 63
47 48 65 64
48 49 66 65
49 50 67 66
50 51 68 67
52 53 70 69
53 54 71 70
54 55 72 71
55 56 73 72
56 57 74 73
57 58 75 74
58 59 76 75
59 60 77 76
60 61 78 77
61 62 79 78
62 63 80 79
63 64 81 80
64 65 82 81
65 66 83 82
66 67 84 83
67 68 85 84
69 70 87 86
70 71 88 87
71 72 89 88
72 73 90 89
73 74 91 90
74 75 92 91
75 76 93 92
76 77 94 93
77 78 95 94
78 79 96 95
79 80 97 96
80 81 98 97
81 82 99 98
82 83 100 99
83 84 101 100
84 85 102 101
86 87 104 103
87 88 105 104
88 89 106 105
89 90 107 106
90 91 108 107
91 92 109 108
92 93 110 109
93 94 111 110
94 95 112 111
95 96 113 112
96 97 114 113
97 98 115 114
98 99 116 115
99 100 117 116
100 101 118 117
101 102 119 118
103 104 121 120
104 105 122 121
105 106 123 122
106 107 124 123
107 108 125 124
108 109 126 125
109 110 127 126
110 111 128 127
111 112 129 128
112 113 130 129
113 114 131 130
114 115 132 131
115 116 133 132
116 117 134 133
117 118 135 134
118 119 136 135
120 121 138 137
121 122 139 138
122 123 140 139
123 124 141 140
124 125 142 141
125 126 143 142
126 127 144 143
127 128 145 144
128 129 146 145
129 130 147 146
130 131 148 147
131 132 149 148
132 133 150 149
133 134 151 150
134 135 152 151
135 136 153 152
