TITLE = "Solution"
VARIABLES = x, y, u, v, psiu, psiv, t, stress
ZONE T="structure" N=153 E=128 F=FEBLOCK ET=QUADRILATERAL VARLOCATION=([7,8]=cellcentered)
0.000000e+00
1.250000e+01
2.500000e+01
3.750000e+01
5.000000e+01
6.250000e+01
7.500000e+01
8.750000e+01
1.000000e+02
1.125000e+02
1.250000e+02
1.375000e+02
1.500000e+02
1.625000e+02
1.750000e+02
1.875000e+02
2.000000e+02
0.000000e+00
1.250000e+01
2.500000e+01
3.750000e+01
5.000000e+01
6.250000e+01
7.500000e+01
8.750000e+01
1.000000e+02
1.125000e+02
1.250000e+02
1.375000e+02
1.500000e+02
1.625000e+02
1.750000e+02
1.875000e+02
2.000000e+02
0.000000e+00
1.250000e+01
2.500000e+01
3.750000e+01
5.000000e+01
6.250000e+01
7.500000e+01
8.750000e+01
1.000000e+02
1.125000e+02
1.250000e+02
1.375000e+02
1.500000e+02
1.625000e+02
1.750000e+02
1.875000e+02
2.000000e+02
0.000000e+00
1.250000e+01
2.500000e+01
3.750000e+01
5.000000e+01
6.250000e+01
7.500000e+01
8.750000e+01
1.000000e+02
1.125000e+02
1.250000e+02
1.375000e+02
1.500000e+02
1.625000e+02
1.750000e+02
1.875000e+02
2.000000e+02
0.000000e+00
1.250000e+01
2.500000e+01
3.750000e+01
5.000000e+01
6.250000e+01
7.500000e+01
8.750000e+01
1.000000e+02
1.125000e+02
1.250000e+02
1.375000e+02
1.500000e+02
1.625000e+02
1.750000e+02
1.875000e+02
2.000000e+02
0.000000e+00
1.250000e+01
2.500000e+01
3.750000e+01
5.000000e+01
6.250000e+01
7.500000e+01
8.750000e+01
1.000000e+02
1.125000e+02
1.250000e+02
1.375000e+02
1.500000e+02
1.625000e+02
1.750000e+02
1.875000e+02
2.000000e+02
0.000000e+00
1.250000e+01
2.500000e+01
3.750000e+01
5.000000e+01
6.250000e+01
7.500000e+01
8.750000e+01
1.000000e+02
1.125000e+02
1.250000e+02
1.375000e+02
1.500000e+02
1.625000e+02
1.750000e+02
1.875000e+02
2.000000e+02
0.000000e+00
1.250000e+01
2.500000e+01
3.750000e+01
5.000000e+01
6.250000e+01
7.500000e+01
8.750000e+01
1.000000e+02
1.125000e+02
1.250000e+02
1.375000e+02
1.500000e+02
1.625000e+02
1.750000e+02
1.875000e+02
2.000000e+02
0.000000e+00
1.250000e+01
2.500000e+01
3.750000e+01
5.000000e+01
6.250000e+01
7.500000e+01
8.750000e+01
1.000000e+02
1.125000e+02
1.250000e+02
1.375000e+02
1.500000e+02
1.625000e+02
1.750000e+02
1.875000e+02
2.000000e+02
0.000000e+00
0.000000e+00
0.000000e+00
0.000000e+00
0.000000e+00
0.000000e+00
0.000000e+00
0.000000e+00
0.000000e+00
0.000000e+00
0.000000e+00
0.000000e+00
0.000000e+00
0.000000e+00
0.000000e+00
0.000000e+00
0.000000e+00
1.250000e+01
1.250000e+01
1.250000e+01
1.250000e+01
1.250000e+01
1.250000e+01
1.250000e+01
1.250000e+01
1.250000e+01
1.250000e+01
1.250000e+01
1.250000e+01
1.250000e+01
1.250000e+01
1.250000e+01
1.250000e+01
1.250000e+01
2.500000e+01
2.500000e+01
2.500000e+01
2.500000e+01
2.500000e+01
2.500000e+01
2.500000e+01
2.500000e+01
2.500000e+01
2.500000e+01
2.500000e+01
2.500000e+01
2.500000e+01
2.500000e+01
2.500000e+01
2.500000e+01
2.500000e+01
3.750000e+01
3.750000e+01
3.750000e+01
3.750000e+01
3.750000e+01
3.750000e+01
3.750000e+01
3.750000e+01
3.750000e+01
3.750000e+01
3.750000e+01
3.750000e+01
3.750000e+01
3.750000e+01
3.750000e+01
3.750000e+01
3.750000e+01
5.000000e+01
5.000000e+01
5.000000e+01
5.000000e+01
5.000000e+01
5.000000e+01
5.000000e+01
5.000000e+01
5.000000e+01
5.000000e+01
5.000000e+01
5.000000e+01
5.000000e+01
5.000000e+01
5.000000e+01
5.000000e+01
5.000000e+01
6.250000e+01
6.250000e+01
6.250000e+01
6.250000e+01
6.250000e+01
6.250000e+01
6.250000e+01
6.250000e+01
6.250000e+01
6.250000e+01
6.250000e+01
6.250000e+01
6.250000e+01
6.250000e+01
6.250000e+01
6.250000e+01
6.250000e+01
7.500000e+01
7.500000e+01
7.500000e+01
7.500000e+01
7.500000e+01
7.500000e+01
7.500000e+01
7.500000e+01
7.500000e+01
7.500000e+01
7.500000e+01
7.500000e+01
7.500000e+01
7.500000e+01
7.500000e+01
7.500000e+01
7.500000e+01
8.750000e+01
8.750000e+01
8.750000e+01
8.750000e+01
8.750000e+01
8.750000e+01
8.750000e+01
8.750000e+01
8.750000e+01
8.750000e+01
8.750000e+01
8.750000e+01
8.750000e+01
8.750000e+01
8.750000e+01
8.750000e+01
8.750000e+01
1.000000e+02
1.000000e+02
1.000000e+02
1.000000e+02
1.000000e+02
1.000000e+02
1.000000e+02
1.000000e+02
1.000000e+02
1.000000e+02
1.000000e+02
1.000000e+02
1.000000e+02
1.000000e+02
1.000000e+02
1.000000e+02
1.000000e+02
0.000000e+00
-6.921878e-02
-1.248043e-01
-1.739297e-01
-2.205719e-01
-2.648954e-01
-3.055895e-01
-3.422580e-01
-3.754577e-01
-4.050794e-01
-4.312558e-01
-4.547854e-01
-4.768428e-01
-4.990824e-01
-5.238495e-01
-5.538403e-01
-5.764281e-01
0.000000e+00
-4.117213e-02
-8.351646e-02
-1.210851e-01
-1.559783e-01
-1.889300e-01
-2.191994e-01
-2.466166e-01
-2.714775e-01
-2.936292e-01
-3.130365e-01
-3.300441e-01
-3.449269e-01
-3.575399e-01
-3.665040e-01
-3.684409e-01
-3.754094e-01
0.000000e+00
-2.476174e-02
-5.030222e-02
-7.513861e-02
-9.824287e-02
-1.198426e-01
-1.397463e-01
-1.578733e-01
-1.741738e-01
-1.884619e-01
-2.006351e-01
-2.106431e-01
-2.181288e-01
-2.223561e-01
-2.224447e-01
-2.207143e-01
-2.278820e-01
0.000000e+00
-1.115348e-02
-2.280144e-02
-3.437714e-02
-4.545044e-02
-5.577570e-02
-6.532375e-02
-7.397811e-02
-8.161063e-02
-8.804575e-02
-9.312534e-02
-9.664081e-02
-9.825815e-02
-9.778738e-02
-9.607313e-02
-9.653423e-02
-1.018464e-01
0.000000e+00
1.102201e-03
2.297156e-03
3.451101e-03
4.523245e-03
5.524177e-03
6.500575e-03
7.452809e-03
8.426226e-03
9.560906e-03
1.105284e-02
1.311788e-02
1.582461e-02
1.879633e-02
2.083322e-02
2.031482e-02
1.683179e-02
0.000000e+00
1.305763e-02
2.677832e-02
4.050576e-02
5.393080e-02
6.668546e-02
7.842886e-02
8.901847e-02
9.844738e-02
1.067870e-01
1.142485e-01
1.210551e-01
1.271580e-01
1.320611e-01
1.349718e-01
1.352491e-01
1.334681e-01
0.000000e+00
2.581881e-02
5.273573e-02
7.944460e-02
1.053554e-01
1.303138e-01
1.530549e-01
1.732000e-01
1.909130e-01
2.062435e-01
2.192793e-01
2.302955e-01
2.393191e-01
2.460462e-01
2.501419e-01
2.515016e-01
2.510755e-01
0.000000e+00
4.066588e-02
8.398133e-02
1.235165e-01
1.617466e-01
1.990786e-01
2.327740e-01
2.622404e-01
2.881326e-01
3.104204e-01
3.289508e-01
3.440004e-01
3.557148e-01
3.640445e-01
3.691090e-01
3.713107e-01
3.717157e-01
0.000000e+00
6.801132e-02
1.243928e-01
1.757345e-01
2.260044e-01
2.752478e-01
3.195558e-01
3.582547e-01
3.924537e-01
4.218598e-01
4.461754e-01
4.655672e-01
4.800266e-01
4.894315e-01
4.941107e-01
4.953100e-01
4.952970e-01
0.000000e+00
-4.093489e-02
-7.986125e-02
-1.305696e-01
-1.932290e-01
-2.677218e-01
-3.531080e-01
-4.484096e-01
-5.525048e-01
-6.641981e-01
-7.825563e-01
-9.069501e-01
-1.037174e+00
-1.173993e+00
-1.321059e+00
-1.489762e+00
-1.733059e+00
0.000000e+00
-2.513700e-02
-6.645931e-02
-1.179289e-01
-1.812624e-01
-2.565571e-01
-3.429720e-01
-4.392676e-01
-5.443199e-01
-6.569958e-01
-7.762457e-01
-9.013693e-01
-1.032137e+00
-1.169385e+00
-1.316412e+00
-1.484106e+00
-1.689995e+00
0.000000e+00
-1.899638e-02
-5.706860e-02
-1.088521e-01
-1.727037e-01
-2.486194e-01
-3.357554e-01
-4.328389e-01
-5.387206e-01
-6.522325e-01
-7.723237e-01
-8.983535e-01
-1.030139e+00
-1.168408e+00
-1.315520e+00
-1.474244e+00
-1.627694e+00
0.000000e+00
-1.665353e-02
-5.245861e-02
-1.034607e-01
-1.675481e-01
-2.438667e-01
-3.315063e-01
-4.292203e-01
-5.358021e-01
-6.500226e-01
-7.708717e-01
-8.977610e-01
-1.030382e+00
-1.168741e+00
-1.312760e+00
-1.458301e+00
-1.592132e+00
0.000000e+00
-1.623810e-02
-5.125455e-02
-1.017628e-01
-1.657852e-01
-2.423319e-01
-3.303066e-01
-4.284395e-01
-5.354674e-01
-6.501804e-01
-7.715373e-01
-8.988921e-01
-1.031599e+00
-1.168662e+00
-1.308112e+00
-1.445197e+00
-1.571294e+00
0.000000e+00
-1.720070e-02
-5.292865e-02
-1.035945e-01
-1.675231e-01
-2.441109e-01
-3.322185e-01
-4.304165e-01
-5.375089e-01
-6.523532e-01
-7.738400e-01
-9.011338e-01
-1.033201e+00
-1.168324e+00
-1.304019e+00
-1.436348e+00
-1.559687e+00
0.000000e+00
-1.984868e-02
-5.782708e-02
-1.092449e-01
-1.729666e-01
-2.493577e-01
-3.372303e-01
-4.350337e-01
-5.417114e-01
-6.562303e-01
-7.774079e-01
-9.041830e-01
-1.035228e+00
-1.168521e+00
-1.301554e+00
-1.431274e+00
-1.554460e+00
0.000000e+00
-2.593408e-02
-6.744864e-02
-1.188489e-01
-1.823190e-01
-2.581747e-01
-3.452660e-01
-4.421769e-01
-5.479835e-01
-6.616916e-01
-7.820800e-01
-9.079700e-01
-1.037864e+00
-1.169672e+00
-1.300932e+00
-1.429147e+00
-1.553192e+00
0.000000e+00
-4.164323e-02
-8.122117e-02
-1.322766e-01
-1.954885e-01
-2.705574e-01
-3.562326e-01
-4.518223e-01
-5.564183e-01
-6.688424e-01
-7.879616e-01
-9.125913e-01
-1.041141e+00
-1.171549e+00
-1.301471e+00
-1.428757e+00
-1.553201e+00


0.000000e+00
-4.851954e-07
-7.334325e-08
1.322447e-06
2.057366e-06
2.233075e-06
2.329662e-06
2.443762e-06
2.556333e-06
2.655882e-06
2.736984e-06
2.799242e-06
2.843065e-06
2.870723e-06
2.888133e-06
2.902397e-06
2.916141e-06
0.000000e+00
-4.318363e-07
7.565728e-08
1.306685e-06
1.976726e-06
1.963407e-06
1.998600e-06
2.081044e-06
2.164538e-06
2.237255e-06
2.296853e-06
2.342334e-06
2.372182e-06
2.388614e-06
2.399540e-06
2.412931e-06
2.427688e-06
0.000000e+00
-2.663008e-08
3.839030e-07
1.069206e-06
1.493527e-06
1.572092e-06
1.653558e-06
1.714595e-06
1.766963e-06
1.812265e-06
1.850086e-06
1.879198e-06
1.898615e-06
1.910973e-06
1.921356e-06
1.933353e-06
1.946108e-06
0.000000e+00
3.030074e-07
5.787587e-07
8.765470e-07
1.027259e-06
1.194227e-06
1.281075e-06
1.327538e-06
1.358262e-06
1.383010e-06
1.403044e-06
1.418740e-06
1.431764e-06
1.442775e-06
1.452152e-06
1.461045e-06
1.470229e-06
0.000000e+00
3.279718e-07
6.300016e-07
7.698249e-07
8.423003e-07
8.895326e-07
9.360505e-07
9.601826e-07
9.714761e-07
9.772378e-07
9.788637e-07
9.797882e-07
9.833273e-07
9.883268e-07
9.929316e-07
9.977166e-07
1.003895e-06
0.000000e+00
2.206268e-07
4.812337e-07
6.196871e-07
6.412171e-07
6.349125e-07
6.294260e-07
6.223349e-07
6.086427e-07
5.913265e-07
5.729208e-07
5.576347e-07
5.487926e-07
5.443081e-07
5.418951e-07
5.421604e-07
5.456178e-07
0.000000e+00
1.158711e-07
2.812090e-07
3.622835e-07
3.684774e-07
3.305629e-07
2.966971e-07
2.656569e-07
2.323627e-07
1.972821e-07
1.643828e-07
1.379386e-07
1.192170e-07
1.061160e-07
9.732920e-08
9.330577e-08
9.380185e-08
0.000000e+00
7.981195e-08
1.586703e-07
1.314416e-07
5.993519e-08
-2.425771e-08
-8.913522e-08
-1.381887e-07
-1.826203e-07
-2.253882e-07
-2.633840e-07
-2.931039e-07
-3.145578e-07
-3.306244e-07
-3.425789e-07
-3.498574e-07
-3.524137e-07
0.000000e+00
1.830185e-07
1.271862e-07
-4.328251e-08
-2.406021e-07
-3.980255e-07
-5.026307e-07
-5.754014e-07
-6.332384e-07
-6.810638e-07
-7.179877e-07
-7.434861e-07
-7.608975e-07
-7.750825e-07
-7.879510e-07
-7.976898e-07
-8.021200e-07
0.000000e+00
-7.397715e-08
3.489795e-07
5.926988e-07
4.622395e-07
5.234842e-07
8.706200e-07
1.264426e-06
1.682275e-06
2.126562e-06
2.588880e-06
3.060614e-06
3.537005e-06
4.021686e-06
4.522108e-06
5.035348e-06
5.548269e-06
0.000000e+00
-8.256298e-08
-1.751030e-07
5.539456e-09
2.616681e-07
4.930318e-07
8.297203e-07
1.211690e-06
1.634813e-06
2.086724e-06
2.557709e-06
3.038083e-06
3.522220e-06
4.010965e-06
4.508302e-06
5.016212e-06
5.526134e-06
0.000000e+00
-1.258920e-07
-4.555556e-07
-3.621436e-07
5.858020e-08
4.477514e-07
7.802015e-07
1.167440e-06
1.597748e-06
2.057586e-06
2.536261e-06
3.023648e-06
3.512052e-06
4.001060e-06
4.493455e-06
4.994572e-06
5.498519e-06
0.000000e+00
-1.561524e-07
-4.754223e-07
-4.491726e-07
-7.061026e-08
3.436506e-07
7.268761e-07
1.135807e-06
1.577368e-06
2.043321e-06
2.527522e-06
3.019156e-06
3.507163e-06
3.992572e-06
4.480742e-06
4.976154e-06
5.471719e-06
0.000000e+00
-1.942921e-07
-4.632972e-07
-4.559946e-07
-1.370921e-07
2.643873e-07
6.825948e-07
1.115022e-06
1.568152e-06
2.038866e-06
2.527056e-06
3.020698e-06
3.505539e-06
3.985918e-06
4.470135e-06
4.961126e-06
5.449080e-06
0.000000e+00
-2.459850e-07
-4.877411e-07
-4.583426e-07
-1.581709e-07
2.391543e-07
6.642093e-07
1.110481e-06
1.571747e-06
2.046312e-06
2.535509e-06
3.026705e-06
3.506629e-06
3.982094e-06
4.462316e-06
4.949096e-06
5.431532e-06
0.000000e+00
-2.922986e-07
-5.088337e-07
-4.538387e-07
-1.579122e-07
2.392751e-07
6.706238e-07
1.121482e-06
1.587184e-06
2.064222e-06
2.550700e-06
3.035501e-06
3.510197e-06
3.981693e-06
4.457944e-06
4.940426e-06
5.418088e-06
0.000000e+00
-3.042137e-07
-5.018363e-07
-4.207633e-07
-1.376770e-07
2.593394e-07
6.890463e-07
1.139754e-06
1.606833e-06
2.084562e-06
2.567033e-06
3.045535e-06
3.516248e-06
3.984876e-06
4.457427e-06
4.935552e-06
5.409049e-06
0.000000e+00
-3.207750e-07
-4.605318e-07
-3.638535e-07
-8.158034e-08
2.980367e-07
7.165472e-07
1.161105e-06
1.626116e-06
2.102123e-06
2.580785e-06
3.055006e-06
3.523143e-06
3.989916e-06
4.459747e-06
4.934247e-06
5.405275e-06


1.991818e-01
1.881325e-01
1.788120e-01
1.806772e-01
1.853140e-01
1.860907e-01
1.858011e-01
1.883919e-01
1.895499e-01
1.893422e-01
1.912047e-01
1.957982e-01
2.015790e-01
2.034494e-01
2.010328e-01
2.021186e-01
1.972186e-01
1.915967e-01
1.857240e-01
1.855030e-01
1.895382e-01
1.910616e-01
1.922526e-01
1.942595e-01
1.943296e-01
1.933850e-01
1.945800e-01
1.977087e-01
2.020583e-01
2.041098e-01
2.036595e-01
2.029545e-01
2.007814e-01
1.972967e-01
1.928018e-01
1.922973e-01
1.952312e-01
1.987263e-01
2.010068e-01
2.020076e-01
2.009007e-01
1.993372e-01
1.996141e-01
2.005914e-01
2.021899e-01
2.039798e-01
2.039448e-01
2.041713e-01
2.070918e-01
2.034862e-01
1.992008e-01
1.987683e-01
2.021808e-01
2.057595e-01
2.077235e-01
2.076016e-01
2.051350e-01
2.029089e-01
2.026452e-01
2.027830e-01
2.019198e-01
2.017374e-01
2.023323e-01
2.027923e-01
2.099520e-01
2.072565e-01
2.039993e-01
2.056899e-01
2.094867e-01
2.116363e-01
2.120353e-01
2.098594e-01
2.062988e-01
2.027281e-01
2.024139e-01
2.027952e-01
2.012735e-01
2.005082e-01
2.022878e-01
2.037645e-01
2.090768e-01
2.065158e-01
2.039781e-01
2.094642e-01
2.169294e-01
2.171785e-01
2.135756e-01
2.101541e-01
2.049998e-01
2.002866e-01
1.992259e-01
2.002241e-01
2.001636e-01
2.018611e-01
2.056491e-01
2.078530e-01
2.053473e-01
2.025104e-01
2.007961e-01
2.105249e-01
2.217747e-01
2.195388e-01
2.129001e-01
2.084780e-01
2.040493e-01
1.983193e-01
1.963609e-01
1.979456e-01
2.003750e-01
2.049362e-01
2.098574e-01
2.118302e-01
2.003175e-01
1.991468e-01
1.982591e-01
2.102582e-01
2.231367e-01
2.192117e-01
2.104670e-01
2.075271e-01
2.036730e-01
1.981622e-01
1.959982e-01
1.980282e-01
2.020256e-01
2.075175e-01
2.120074e-01
2.138669e-01


9.893083e-01
9.916065e-01
9.934267e-01
9.941759e-01
9.947668e-01
9.955784e-01
9.963857e-01
9.970304e-01
9.976370e-01
9.981684e-01
9.985560e-01
9.988104e-01
9.989520e-01
9.990105e-01
9.990871e-01
9.959450e-01
9.961057e-01
9.957492e-01
9.963892e-01
9.968510e-01
9.971750e-01
9.975633e-01
9.979482e-01
9.982896e-01
9.986335e-01
9.989570e-01
9.992304e-01
9.994729e-01
9.996920e-01
9.998452e-01
9.994405e-01
9.940368e-01
9.987454e-01
9.984253e-01
9.983964e-01
9.985215e-01
9.986243e-01
9.987335e-01
9.988624e-01
9.990054e-01
9.991666e-01
9.993274e-01
9.994664e-01
9.995710e-01
9.995872e-01
9.993680e-01
9.985898e-01
9.972093e-01
9.997518e-01
9.994760e-01
9.993307e-01
9.992828e-01
9.992535e-01
9.992375e-01
9.992479e-01
9.992764e-01
9.993177e-01
9.993568e-01
9.993672e-01
9.993294e-01
9.992152e-01
9.990020e-01
9.988160e-01
9.987827e-01
9.996558e-01
9.993589e-01
9.992044e-01
9.991553e-01
9.991376e-01
9.991451e-01
9.991725e-01
9.992021e-01
9.992232e-01
9.992257e-01
9.991900e-01
9.991267e-01
9.990728e-01
9.990797e-01
9.992320e-01
9.995183e-01
9.985220e-01
9.981425e-01
9.980635e-01
9.981249e-01
9.982137e-01
9.984150e-01
9.986374e-01
9.988181e-01
9.989603e-01
9.990590e-01
9.991010e-01
9.991247e-01
9.991958e-01
9.993477e-01
9.995865e-01
9.998484e-01
9.959727e-01
9.953922e-01
9.959010e-01
9.961470e-01
9.963484e-01
9.969560e-01
9.975898e-01
9.980721e-01
9.984823e-01
9.988266e-01
9.990698e-01
9.992561e-01
9.994417e-01
9.996419e-01
9.998401e-01
9.999726e-01
9.895516e-01
9.912890e-01
9.927707e-01
9.931354e-01
9.934420e-01
9.946640e-01
9.959117e-01
9.968141e-01
9.976290e-01
9.983524e-01
9.989112e-01
9.993417e-01
9.996665e-01
9.998739e-01
9.999741e-01
9.999994e-01
1 2 19 18
2 3 20 19
3 4 21 20
4 5 22 21
5 6 23 22
6 7 24 23
7 8 25 24
8 9 26 25
9 10 27 26
10 11 28 27
11 12 29 28
12 13 30 29
13 14 31 30
14 15 32 31
15 16 33 32
16 17 34 33
18 19 36 35
19 20 37 36
20 21 38 37
21 22 39 38
22 23 40 39
23 24 41 40
24 25 42 41
25 26 43 42
26 27 44 43
27 28 45 44
28 29 46 45
29 30 47 46
30 31 48 47
31 32 49 48
32 33 50 49
33 34 51 50
35 36 53 52
36 37 54 53
37 38 55 54
38 39 56 55
39 40 57 56
40 41 58 57
41 42 59 58
42 43 60 59
43 44 61 60
44 45 62 61
45 46 63 62
46 47 64 63
47 48 65 64
48 49 66 65
49 50 67 66
50 51 68 67
52 53 70 69
53 54 71 70
54 55 72 71
55 56 73 72
56 57 74 73
57 58 75 74
58 59 76 75
59 60 77 76
60 61 78 77
61 62 79 78
62 63 80 79
63 64 81 80
64 65 82 81
65 66 83 82
66 67 84 83
67 68 85 84
69 70 87 86
70 71 88 87
71 72 89 88
72 73 90 89
73 74 91 90
74 75 92 91
75 76 93 92
76 77 94 93
77 78 95 94
78 79 96 95
79 80 97 96
80 81 98 97
81 82 99 98
82 83 100 99
83 84 101 100
84 85 102 101
86 87 104 103
87 88 105 104
88 89 106 105
89 90 107 106
90 91 108 107
91 92 109 108
92 93 110 109
93 94 111 110
94 95 112 111
95 96 113 112
96 97 114 113
97 98 115 114
98 99 116 115
99 100 117 116
100 101 118 117
101 102 119 118
103 104 121 120
104 105 122 121
105 106 123 122
106 107 124 123
107 108 125 124
108 109 126 125
109 110 127 126
110 111 128 127
111 112 129 128
112 113 130 129
113 114 131 130
114 115 132 131
115 116 133 132
116 117 134 133
117 118 135 134
118 119 136 135
120 121 138 137
121 122 139 138
122 123 140 139
123 124 141 140
124 125 142 141
125 126 143 142
126 127 144 143
127 128 145 144
128 129 146 145
129 130 147 146
130 131 148 147
131 132 149 148
132 133 150 149
133 134 151 150
134 135 152 151
135 136 153 152
