TITLE = "Solution"
VARIABLES = x, y, u, v, psiu, psiv, t, stress
ZONE T="structure" N=153 E=128 F=FEBLOCK ET=QUADRILATERAL VARLOCATION=([7,8]=cellcentered)
0.000000e+00
1.250000e+01
2.500000e+01
3.750000e+01
5.000000e+01
6.250000e+01
7.500000e+01
8.750000e+01
1.000000e+02
1.125000e+02
1.250000e+02
1.375000e+02
1.500000e+02
1.625000e+02
1.750000e+02
1.875000e+02
2.000000e+02
0.000000e+00
1.250000e+01
2.500000e+01
3.750000e+01
5.000000e+01
6.250000e+01
7.500000e+01
8.750000e+01
1.000000e+02
1.125000e+02
1.250000e+02
1.375000e+02
1.500000e+02
1.625000e+02
1.750000e+02
1.875000e+02
2.000000e+02
0.000000e+00
1.250000e+01
2.500000e+01
3.750000e+01
5.000000e+01
6.250000e+01
7.500000e+01
8.750000e+01
1.000000e+02
1.125000e+02
1.250000e+02
1.375000e+02
1.500000e+02
1.625000e+02
1.750000e+02
1.875000e+02
2.000000e+02
0.000000e+00
1.250000e+01
2.500000e+01
3.750000e+01
5.000000e+01
6.250000e+01
7.500000e+01
8.750000e+01
1.000000e+02
1.125000e+02
1.250000e+02
1.375000e+02
1.500000e+02
1.625000e+02
1.750000e+02
1.875000e+02
2.000000e+02
0.000000e+00
1.250000e+01
2.500000e+01
3.750000e+01
5.000000e+01
6.250000e+01
7.500000e+01
8.750000e+01
1.000000e+02
1.125000e+02
1.250000e+02
1.375000e+02
1.500000e+02
1.625000e+02
1.750000e+02
1.875000e+02
2.000000e+02
0.000000e+00
1.250000e+01
2.500000e+01
3.750000e+01
5.000000e+01
6.250000e+01
7.500000e+01
8.750000e+01
1.000000e+02
1.125000e+02
1.250000e+02
1.375000e+02
1.500000e+02
1.625000e+02
1.750000e+02
1.875000e+02
2.000000e+02
0.000000e+00
1.250000e+01
2.500000e+01
3.750000e+01
5.000000e+01
6.250000e+01
7.500000e+01
8.750000e+01
1.000000e+02
1.125000e+02
1.250000e+02
1.375000e+02
1.500000e+02
1.625000e+02
1.750000e+02
1.875000e+02
2.000000e+02
0.000000e+00
1.250000e+01
2.500000e+01
3.750000e+01
5.000000e+01
6.250000e+01
7.500000e+01
8.750000e+01
1.000000e+02
1.125000e+02
1.250000e+02
1.375000e+02
1.500000e+02
1.625000e+02
1.750000e+02
1.875000e+02
2.000000e+02
0.000000e+00
1.250000e+01
2.500000e+01
3.750000e+01
5.000000e+01
6.250000e+01
7.500000e+01
8.750000e+01
1.000000e+02
1.125000e+02
1.250000e+02
1.375000e+02
1.500000e+02
1.625000e+02
1.750000e+02
1.875000e+02
2.000000e+02
0.000000e+00
0.000000e+00
0.000000e+00
0.000000e+00
0.000000e+00
0.000000e+00
0.000000e+00
0.000000e+00
0.000000e+00
0.000000e+00
0.000000e+00
0.000000e+00
0.000000e+00
0.000000e+00
0.000000e+00
0.000000e+00
0.000000e+00
1.250000e+01
1.250000e+01
1.250000e+01
1.250000e+01
1.250000e+01
1.250000e+01
1.250000e+01
1.250000e+01
1.250000e+01
1.250000e+01
1.250000e+01
1.250000e+01
1.250000e+01
1.250000e+01
1.250000e+01
1.250000e+01
1.250000e+01
2.500000e+01
2.500000e+01
2.500000e+01
2.500000e+01
2.500000e+01
2.500000e+01
2.500000e+01
2.500000e+01
2.500000e+01
2.500000e+01
2.500000e+01
2.500000e+01
2.500000e+01
2.500000e+01
2.500000e+01
2.500000e+01
2.500000e+01
3.750000e+01
3.750000e+01
3.750000e+01
3.750000e+01
3.750000e+01
3.750000e+01
3.750000e+01
3.750000e+01
3.750000e+01
3.750000e+01
3.750000e+01
3.750000e+01
3.750000e+01
3.750000e+01
3.750000e+01
3.750000e+01
3.750000e+01
5.000000e+01
5.000000e+01
5.000000e+01
5.000000e+01
5.000000e+01
5.000000e+01
5.000000e+01
5.000000e+01
5.000000e+01
5.000000e+01
5.000000e+01
5.000000e+01
5.000000e+01
5.000000e+01
5.000000e+01
5.000000e+01
5.000000e+01
6.250000e+01
6.250000e+01
6.250000e+01
6.250000e+01
6.250000e+01
6.250000e+01
6.250000e+01
6.250000e+01
6.250000e+01
6.250000e+01
6.250000e+01
6.250000e+01
6.250000e+01
6.250000e+01
6.250000e+01
6.250000e+01
6.250000e+01
7.500000e+01
7.500000e+01
7.500000e+01
7.500000e+01
7.500000e+01
7.500000e+01
7.500000e+01
7.500000e+01
7.500000e+01
7.500000e+01
7.500000e+01
7.500000e+01
7.500000e+01
7.500000e+01
7.500000e+01
7.500000e+01
7.500000e+01
8.750000e+01
8.750000e+01
8.750000e+01
8.750000e+01
8.750000e+01
8.750000e+01
8.750000e+01
8.750000e+01
8.750000e+01
8.750000e+01
8.750000e+01
8.750000e+01
8.750000e+01
8.750000e+01
8.750000e+01
8.750000e+01
8.750000e+01
1.000000e+02
1.000000e+02
1.000000e+02
1.000000e+02
1.000000e+02
1.000000e+02
1.000000e+02
1.000000e+02
1.000000e+02
1.000000e+02
1.000000e+02
1.000000e+02
1.000000e+02
1.000000e+02
1.000000e+02
1.000000e+02
1.000000e+02
0.000000e+00
-1.025679e+00
-1.686134e+00
-2.414233e+00
-3.113386e+00
-3.754645e+00
-4.410557e+00
-5.000947e+00
-5.664104e+00
-6.379354e+00
-7.058343e+00
-7.743534e+00
-8.476737e+00
-9.239301e+00
-9.963664e+00
-1.064056e+01
-1.109011e+01
0.000000e+00
-4.680208e-01
-9.213420e-01
-1.418759e+00
-1.948443e+00
-2.443077e+00
-2.947464e+00
-3.429978e+00
-3.937983e+00
-4.477836e+00
-4.974575e+00
-5.467232e+00
-5.979463e+00
-6.462812e+00
-6.782197e+00
-6.854607e+00
-7.016570e+00
0.000000e+00
-1.564372e-01
-3.647898e-01
-6.588807e-01
-1.014714e+00
-1.355091e+00
-1.724315e+00
-2.092976e+00
-2.446200e+00
-2.789790e+00
-3.102502e+00
-3.405929e+00
-3.681636e+00
-3.875188e+00
-3.923366e+00
-3.900574e+00
-4.061591e+00
0.000000e+00
-7.958675e-02
-1.654713e-01
-3.213054e-01
-4.718120e-01
-6.485887e-01
-8.313335e-01
-9.914223e-01
-1.147710e+00
-1.286810e+00
-1.426393e+00
-1.545196e+00
-1.611419e+00
-1.603811e+00
-1.546376e+00
-1.550453e+00
-1.683815e+00
0.000000e+00
-2.303171e-03
-4.830165e-03
-7.033937e-03
-8.232388e-03
-7.005135e-03
-1.486048e-03
1.052010e-02
3.158917e-02
6.334579e-02
1.094122e-01
1.769174e-01
2.724624e-01
3.908489e-01
4.894590e-01
4.979407e-01
3.965912e-01
0.000000e+00
7.561121e-02
1.582252e-01
3.105190e-01
4.590756e-01
6.371268e-01
8.265111e-01
1.004154e+00
1.192462e+00
1.385028e+00
1.608547e+00
1.846268e+00
2.069228e+00
2.258234e+00
2.385946e+00
2.414709e+00
2.355714e+00
0.000000e+00
1.546619e-01
3.616677e-01
6.541038e-01
1.008012e+00
1.346529e+00
1.715902e+00
2.088394e+00
2.452124e+00
2.819972e+00
3.178380e+00
3.543463e+00
3.874445e+00
4.131701e+00
4.295372e+00
4.353380e+00
4.337979e+00
0.000000e+00
4.677540e-01
9.208337e-01
1.417213e+00
1.945805e+00
2.438390e+00
2.939993e+00
3.420105e+00
3.920229e+00
4.446325e+00
4.932080e+00
5.397323e+00
5.816249e+00
6.134923e+00
6.334227e+00
6.422183e+00
6.438248e+00
0.000000e+00
1.026704e+00
1.688205e+00
2.417199e+00
3.117450e+00
3.760339e+00
4.415758e+00
5.006006e+00
5.657519e+00
6.341963e+00
6.973719e+00
7.561960e+00
8.068060e+00
8.422702e+00
8.607341e+00
8.657059e+00
8.656893e+00
0.000000e+00
-6.286579e-01
-1.362573e+00
-2.351937e+00
-3.516652e+00
-4.837892e+00
-6.320980e+00
-7.937341e+00
-9.715675e+00
-1.165919e+01
-1.376529e+01
-1.606566e+01
-1.856696e+01
-2.125835e+01
-2.418124e+01
-2.756520e+01
-3.252222e+01
0.000000e+00
-4.255142e-01
-1.200370e+00
-2.165253e+00
-3.342282e+00
-4.664882e+00
-6.153725e+00
-7.774234e+00
-9.534474e+00
-1.148045e+01
-1.359300e+01
-1.588946e+01
-1.838643e+01
-2.110170e+01
-2.406757e+01
-2.745905e+01
-3.157917e+01
0.000000e+00
-3.959173e-01
-1.096599e+00
-2.058631e+00
-3.217295e+00
-4.532998e+00
-6.027307e+00
-7.648833e+00
-9.419299e+00
-1.136699e+01
-1.348676e+01
-1.579246e+01
-1.830516e+01
-2.105814e+01
-2.405900e+01
-2.726885e+01
-3.028898e+01
0.000000e+00
-4.479635e-01
-1.082072e+00
-2.029596e+00
-3.149559e+00
-4.451925e+00
-5.948215e+00
-7.579673e+00
-9.372989e+00
-1.132028e+01
-1.345282e+01
-1.578016e+01
-1.830958e+01
-2.106113e+01
-2.399998e+01
-2.692405e+01
-2.947866e+01
0.000000e+00
-4.525011e-01
-1.100614e+00
-2.013815e+00
-3.136071e+00
-4.433235e+00
-5.923492e+00
-7.575758e+00
-9.376155e+00
-1.133361e+01
-1.347903e+01
-1.582482e+01
-1.835176e+01
-2.105219e+01
-2.386252e+01
-2.657464e+01
-2.889118e+01
0.000000e+00
-4.476584e-01
-1.083197e+00
-2.033143e+00
-3.156692e+00
-4.464744e+00
-5.969283e+00
-7.614268e+00
-9.422632e+00
-1.138681e+01
-1.354228e+01
-1.589166e+01
-1.840271e+01
-2.103647e+01
-2.372108e+01
-2.628455e+01
-2.849632e+01
0.000000e+00
-3.959318e-01
-1.098802e+00
-2.064459e+00
-3.229063e+00
-4.554148e+00
-6.062278e+00
-7.704761e+00
-9.500580e+00
-1.147809e+01
-1.363366e+01
-1.597446e+01
-1.846442e+01
-2.104216e+01
-2.362857e+01
-2.609466e+01
-2.829818e+01
0.000000e+00
-4.256623e-01
-1.202579e+00
-2.171200e+00
-3.354696e+00
-4.687506e+00
-6.192098e+00
-7.835205e+00
-9.625277e+00
-1.160807e+01
-1.375895e+01
-1.608499e+01
-1.855103e+01
-2.108515e+01
-2.360408e+01
-2.600950e+01
-2.824725e+01
0.000000e+00
-6.290439e-01
-1.364847e+00
-2.357972e+00
-3.529148e+00
-4.860613e+00
-6.359579e+00
-7.997705e+00
-9.803618e+00
-1.178229e+01
-1.392256e+01
-1.623261e+01
-1.866840e+01
-2.115763e+01
-2.362578e+01
-2.599346e+01
-2.824741e+01


0.000000e+00
1.393023e-05
2.441768e-05
3.723390e-05
5.151642e-05
6.541557e-05
7.999045e-05
9.381160e-05
1.089551e-04
1.232581e-04
1.344502e-04
1.436824e-04
1.508555e-04
1.553441e-04
1.584137e-04
1.622029e-04
1.670501e-04
0.000000e+00
9.769514e-06
1.940573e-05
2.895713e-05
4.061442e-05
5.173181e-05
6.291724e-05
7.422489e-05
8.580034e-05
9.584134e-05
1.029238e-04
1.085327e-04
1.121043e-04
1.122893e-04
1.115808e-04
1.147449e-04
1.204324e-04
0.000000e+00
7.967269e-06
1.516476e-05
2.171865e-05
3.016813e-05
3.790486e-05
4.563668e-05
5.333532e-05
5.998994e-05
6.499126e-05
6.842070e-05
7.089480e-05
7.189353e-05
7.116820e-05
7.089876e-05
7.403917e-05
7.964317e-05
0.000000e+00
4.517439e-06
7.220075e-06
1.140919e-05
1.519115e-05
1.897559e-05
2.294206e-05
2.637553e-05
2.916110e-05
3.097177e-05
3.208369e-05
3.242635e-05
3.222331e-05
3.229703e-05
3.338025e-05
3.617800e-05
4.035340e-05
0.000000e+00
-5.235572e-08
-1.161181e-07
-1.777735e-07
-2.396276e-07
-2.974222e-07
-3.638185e-07
-4.455397e-07
-6.125327e-07
-9.797607e-07
-1.709507e-06
-2.667915e-06
-3.451131e-06
-3.514797e-06
-2.630457e-06
-1.333731e-06
5.575065e-07
0.000000e+00
-4.620635e-06
-7.417423e-06
-1.172093e-05
-1.558460e-05
-1.945118e-05
-2.347639e-05
-2.699582e-05
-2.985987e-05
-3.182791e-05
-3.351687e-05
-3.502152e-05
-3.609247e-05
-3.664364e-05
-3.712747e-05
-3.753667e-05
-3.720685e-05
0.000000e+00
-8.031856e-06
-1.528173e-05
-2.187796e-05
-3.039411e-05
-3.818322e-05
-4.595678e-05
-5.367223e-05
-6.024148e-05
-6.489885e-05
-6.761197e-05
-6.915307e-05
-7.015979e-05
-7.106453e-05
-7.201784e-05
-7.285198e-05
-7.309887e-05
0.000000e+00
-9.794841e-06
-1.943204e-05
-2.894584e-05
-4.060710e-05
-5.173920e-05
-6.291930e-05
-7.427083e-05
-8.590439e-05
-9.582819e-05
-1.019163e-04
-1.052540e-04
-1.070205e-04
-1.082014e-04
-1.090225e-04
-1.094342e-04
-1.095494e-04
0.000000e+00
-1.393951e-05
-2.437703e-05
-3.708548e-05
-5.126867e-05
-6.510092e-05
-7.955932e-05
-9.337825e-05
-1.085900e-04
-1.230128e-04
-1.337681e-04
-1.407898e-04
-1.447329e-04
-1.464555e-04
-1.469548e-04
-1.469020e-04
-1.468231e-04
0.000000e+00
1.179152e-05
2.015160e-05
3.204040e-05
4.704833e-05
6.452111e-05
8.579384e-05
1.102816e-04
1.384821e-04
1.691438e-04
2.024180e-04
2.388516e-04
2.771740e-04
3.177692e-04
3.655484e-04
4.218760e-04
4.791110e-04
0.000000e+00
6.861955e-06
1.564470e-05
2.612601e-05
4.083905e-05
5.826988e-05
7.947052e-05
1.039375e-04
1.319869e-04
1.637965e-04
1.983646e-04
2.357021e-04
2.753790e-04
3.170980e-04
3.622236e-04
4.149227e-04
4.702994e-04
0.000000e+00
3.264139e-06
1.127627e-05
2.117906e-05
3.523743e-05
5.301849e-05
7.418417e-05
9.905978e-05
1.278436e-04
1.605516e-04
1.960057e-04
2.340328e-04
2.746644e-04
3.167181e-04
3.579970e-04
4.056131e-04
4.580773e-04
0.000000e+00
2.084883e-06
8.843642e-06
1.885552e-05
3.277665e-05
5.070292e-05
7.214446e-05
9.745165e-05
1.268006e-04
1.596915e-04
1.953619e-04
2.335257e-04
2.743296e-04
3.161288e-04
3.552481e-04
3.978631e-04
4.457833e-04
0.000000e+00
1.708826e-06
8.222994e-06
1.808430e-05
3.211979e-05
4.997219e-05
7.155585e-05
9.709141e-05
1.266512e-04
1.595983e-04
1.953168e-04
2.335493e-04
2.741565e-04
3.158799e-04
3.550209e-04
3.945030e-04
4.371215e-04
0.000000e+00
2.113910e-06
8.875665e-06
1.885926e-05
3.271480e-05
5.056607e-05
7.194079e-05
9.727171e-05
1.267967e-04
1.599008e-04
1.959191e-04
2.343484e-04
2.747765e-04
3.158988e-04
3.557393e-04
3.942540e-04
4.326678e-04
0.000000e+00
3.309817e-06
1.132915e-05
2.116920e-05
3.512436e-05
5.276560e-05
7.381329e-05
9.869718e-05
1.277027e-04
1.608921e-04
1.971240e-04
2.357033e-04
2.758018e-04
3.162329e-04
3.558236e-04
3.941153e-04
4.312164e-04
0.000000e+00
6.918808e-06
1.570031e-05
2.611860e-05
4.072538e-05
5.801376e-05
7.907835e-05
1.035293e-04
1.317946e-04
1.640734e-04
1.992991e-04
2.371614e-04
2.766151e-04
3.164954e-04
3.557475e-04
3.939156e-04
4.311447e-04
0.000000e+00
1.185267e-05
2.019332e-05
3.202200e-05
4.694511e-05
6.427942e-05
8.542942e-05
1.099311e-04
1.383419e-04
1.692987e-04
2.026378e-04
2.389376e-04
2.774011e-04
3.167142e-04
3.557495e-04
3.938309e-04
4.312217e-04


6.469074e+00
6.020725e+00
6.077002e+00
5.165552e+00
4.670873e+00
4.917521e+00
4.768169e+00
4.662157e+00
4.490687e+00
4.669932e+00
5.518668e+00
6.696925e+00
7.467080e+00
7.022493e+00
5.575383e+00
4.546804e+00
7.996237e+00
8.123147e+00
8.061506e+00
7.698153e+00
7.367898e+00
7.437248e+00
6.987006e+00
6.056817e+00
5.473416e+00
5.497329e+00
6.263155e+00
7.236784e+00
7.740176e+00
7.007203e+00
5.393407e+00
4.230111e+00
9.411640e+00
9.516263e+00
9.719982e+00
9.410357e+00
9.269138e+00
9.290464e+00
8.822875e+00
7.974375e+00
7.236622e+00
7.149167e+00
7.454784e+00
7.810584e+00
7.901960e+00
7.126502e+00
5.616830e+00
4.593662e+00
9.695323e+00
9.853095e+00
9.922126e+00
9.694272e+00
9.443612e+00
9.462264e+00
9.522954e+00
9.256220e+00
8.858699e+00
8.546547e+00
8.163825e+00
7.745810e+00
7.559069e+00
7.214023e+00
6.417168e+00
5.777206e+00
9.690496e+00
9.844834e+00
9.897296e+00
9.639862e+00
9.361123e+00
9.390232e+00
9.471775e+00
9.241795e+00
8.883800e+00
8.566611e+00
8.019728e+00
7.340750e+00
7.121727e+00
7.317645e+00
7.341259e+00
7.205627e+00
9.390023e+00
9.490117e+00
9.663439e+00
9.290686e+00
9.106941e+00
9.124093e+00
8.702284e+00
7.919966e+00
7.294359e+00
7.270600e+00
7.350609e+00
7.188135e+00
7.208217e+00
7.677718e+00
8.175150e+00
8.387978e+00
7.966086e+00
8.093300e+00
8.010275e+00
7.609042e+00
7.234241e+00
7.297553e+00
6.866976e+00
5.998581e+00
5.544325e+00
5.781007e+00
6.601601e+00
7.278767e+00
7.736187e+00
8.294823e+00
8.856724e+00
9.143180e+00
6.441625e+00
5.996972e+00
6.052623e+00
5.123866e+00
4.606403e+00
4.823087e+00
4.699209e+00
4.634914e+00
4.574901e+00
5.041418e+00
6.202255e+00
7.387697e+00
8.185330e+00
8.777919e+00
9.261480e+00
9.509196e+00


-9.486362e-01
-1.081526e-01
-3.143446e-01
-3.245940e-01
-1.376902e-01
-1.843924e-01
-2.220447e-02
-2.142601e-01
-3.910128e-01
-2.244676e-01
-2.280129e-01
-3.628817e-01
-3.427090e-01
6.473683e-02
4.980631e-01
-7.245177e-01
5.768600e-01
4.889670e-01
3.177764e-01
1.681279e-01
2.435807e-01
1.618385e-01
1.902711e-01
1.690199e-01
1.343436e-01
2.612813e-01
2.848198e-01
3.102909e-01
4.847527e-01
7.830374e-01
7.259287e-01
-1.438664e+00
7.225896e-01
4.923648e-01
1.040529e-01
2.911759e-02
4.407147e-02
-1.240430e-02
1.462306e-01
2.564392e-01
3.421176e-01
3.835364e-01
3.877857e-01
4.257761e-01
4.482328e-01
3.526025e-01
9.821920e-02
-4.187397e-01
7.324047e-01
5.712301e-01
2.367543e-01
1.516886e-01
1.108804e-01
8.578149e-02
1.666139e-01
2.135452e-01
2.587911e-01
2.419267e-01
2.189556e-01
1.801005e-01
2.929559e-02
-1.826232e-01
-1.283893e-01
3.715583e-02
7.341064e-01
5.737592e-01
2.423809e-01
1.561927e-01
1.094937e-01
6.890019e-02
1.242770e-01
1.420476e-01
1.519051e-01
8.510448e-02
1.206417e-02
-4.667063e-02
-1.565040e-01
-2.256564e-01
1.555621e-02
4.369051e-01
7.263636e-01
4.969694e-01
1.121409e-01
3.429248e-02
3.548785e-02
-4.811890e-02
6.487515e-02
1.199062e-01
1.249463e-01
4.351343e-02
-9.801524e-02
-1.312843e-01
-7.410509e-02
6.415085e-02
3.850185e-01
7.791353e-01
5.795019e-01
4.906072e-01
3.204971e-01
1.697129e-01
2.425658e-01
1.508592e-01
1.593880e-01
1.123762e-01
1.851362e-02
4.681027e-02
-3.028009e-02
-3.029017e-03
1.926795e-01
4.539657e-01
7.448884e-01
9.559569e-01
-9.502488e-01
-1.097656e-01
-3.141872e-01
-3.249279e-01
-1.374344e-01
-1.796854e-01
-2.034392e-02
-1.820617e-01
-3.134370e-01
-1.373870e-01
-3.628274e-02
1.678318e-01
5.176170e-01
8.040920e-01
9.571417e-01
9.989877e-01
1 2 19 18
2 3 20 19
3 4 21 20
4 5 22 21
5 6 23 22
6 7 24 23
7 8 25 24
8 9 26 25
9 10 27 26
10 11 28 27
11 12 29 28
12 13 30 29
13 14 31 30
14 15 32 31
15 16 33 32
16 17 34 33
18 19 36 35
19 20 37 36
20 21 38 37
21 22 39 38
22 23 40 39
23 24 41 40
24 25 42 41
25 26 43 42
26 27 44 43
27 28 45 44
28 29 46 45
29 30 47 46
30 31 48 47
31 32 49 48
32 33 50 49
33 34 51 50
35 36 53 52
36 37 54 53
37 38 55 54
38 39 56 55
39 40 57 56
40 41 58 57
41 42 59 58
42 43 60 59
43 44 61 60
44 45 62 61
45 46 63 62
46 47 64 63
47 48 65 64
48 49 66 65
49 50 67 66
50 51 68 67
52 53 70 69
53 54 71 70
54 55 72 71
55 56 73 72
56 57 74 73
57 58 75 74
58 59 76 75
59 60 77 76
60 61 78 77
61 62 79 78
62 63 80 79
63 64 81 80
64 65 82 81
65 66 83 82
66 67 84 83
67 68 85 84
69 70 87 86
70 71 88 87
71 72 89 88
72 73 90 89
73 74 91 90
74 75 92 91
75 76 93 92
76 77 94 93
77 78 95 94
78 79 96 95
79 80 97 96
80 81 98 97
81 82 99 98
82 83 100 99
83 84 101 100
84 85 102 101
86 87 104 103
87 88 105 104
88 89 106 105
89 90 107 106
90 91 108 107
91 92 109 108
92 93 110 109
93 94 111 110
94 95 112 111
95 96 113 112
96 97 114 113
97 98 115 114
98 99 116 115
99 100 117 116
100 101 118 117
101 102 119 118
103 104 121 120
104 105 122 121
105 106 123 122
106 107 124 123
107 108 125 124
108 109 126 125
109 110 127 126
110 111 128 127
111 112 129 128
112 113 130 129
113 114 131 130
114 115 132 131
115 116 133 132
116 117 134 133
117 118 135 134
118 119 136 135
120 121 138 137
121 122 139 138
122 123 140 139
123 124 141 140
124 125 142 141
125 126 143 142
126 127 144 143
127 128 145 144
128 129 146 145
129 130 147 146
130 131 148 147
131 132 149 148
132 133 150 149
133 134 151 150
134 135 152 151
135 136 153 152
