TITLE = "Solution"
VARIABLES = x, y, u, v, psiu, psiv, t, stress
ZONE T="structure" N=153 E=128 F=FEBLOCK ET=QUADRILATERAL VARLOCATION=([7,8]=cellcentered)
0.000000e+00
1.250000e+01
2.500000e+01
3.750000e+01
5.000000e+01
6.250000e+01
7.500000e+01
8.750000e+01
1.000000e+02
1.125000e+02
1.250000e+02
1.375000e+02
1.500000e+02
1.625000e+02
1.750000e+02
1.875000e+02
2.000000e+02
0.000000e+00
1.250000e+01
2.500000e+01
3.750000e+01
5.000000e+01
6.250000e+01
7.500000e+01
8.750000e+01
1.000000e+02
1.125000e+02
1.250000e+02
1.375000e+02
1.500000e+02
1.625000e+02
1.750000e+02
1.875000e+02
2.000000e+02
0.000000e+00
1.250000e+01
2.500000e+01
3.750000e+01
5.000000e+01
6.250000e+01
7.500000e+01
8.750000e+01
1.000000e+02
1.125000e+02
1.250000e+02
1.375000e+02
1.500000e+02
1.625000e+02
1.750000e+02
1.875000e+02
2.000000e+02
0.000000e+00
1.250000e+01
2.500000e+01
3.750000e+01
5.000000e+01
6.250000e+01
7.500000e+01
8.750000e+01
1.000000e+02
1.125000e+02
1.250000e+02
1.375000e+02
1.500000e+02
1.625000e+02
1.750000e+02
1.875000e+02
2.000000e+02
0.000000e+00
1.250000e+01
2.500000e+01
3.750000e+01
5.000000e+01
6.250000e+01
7.500000e+01
8.750000e+01
1.000000e+02
1.125000e+02
1.250000e+02
1.375000e+02
1.500000e+02
1.625000e+02
1.750000e+02
1.875000e+02
2.000000e+02
0.000000e+00
1.250000e+01
2.500000e+01
3.750000e+01
5.000000e+01
6.250000e+01
7.500000e+01
8.750000e+01
1.000000e+02
1.125000e+02
1.250000e+02
1.375000e+02
1.500000e+02
1.625000e+02
1.750000e+02
1.875000e+02
2.000000e+02
0.000000e+00
1.250000e+01
2.500000e+01
3.750000e+01
5.000000e+01
6.250000e+01
7.500000e+01
8.750000e+01
1.000000e+02
1.125000e+02
1.250000e+02
1.375000e+02
1.500000e+02
1.625000e+02
1.750000e+02
1.875000e+02
2.000000e+02
0.000000e+00
1.250000e+01
2.500000e+01
3.750000e+01
5.000000e+01
6.250000e+01
7.500000e+01
8.750000e+01
1.000000e+02
1.125000e+02
1.250000e+02
1.375000e+02
1.500000e+02
1.625000e+02
1.750000e+02
1.875000e+02
2.000000e+02
0.000000e+00
1.250000e+01
2.500000e+01
3.750000e+01
5.000000e+01
6.250000e+01
7.500000e+01
8.750000e+01
1.000000e+02
1.125000e+02
1.250000e+02
1.375000e+02
1.500000e+02
1.625000e+02
1.750000e+02
1.875000e+02
2.000000e+02
0.000000e+00
0.000000e+00
0.000000e+00
0.000000e+00
0.000000e+00
0.000000e+00
0.000000e+00
0.000000e+00
0.000000e+00
0.000000e+00
0.000000e+00
0.000000e+00
0.000000e+00
0.000000e+00
0.000000e+00
0.000000e+00
0.000000e+00
1.250000e+01
1.250000e+01
1.250000e+01
1.250000e+01
1.250000e+01
1.250000e+01
1.250000e+01
1.250000e+01
1.250000e+01
1.250000e+01
1.250000e+01
1.250000e+01
1.250000e+01
1.250000e+01
1.250000e+01
1.250000e+01
1.250000e+01
2.500000e+01
2.500000e+01
2.500000e+01
2.500000e+01
2.500000e+01
2.500000e+01
2.500000e+01
2.500000e+01
2.500000e+01
2.500000e+01
2.500000e+01
2.500000e+01
2.500000e+01
2.500000e+01
2.500000e+01
2.500000e+01
2.500000e+01
3.750000e+01
3.750000e+01
3.750000e+01
3.750000e+01
3.750000e+01
3.750000e+01
3.750000e+01
3.750000e+01
3.750000e+01
3.750000e+01
3.750000e+01
3.750000e+01
3.750000e+01
3.750000e+01
3.750000e+01
3.750000e+01
3.750000e+01
5.000000e+01
5.000000e+01
5.000000e+01
5.000000e+01
5.000000e+01
5.000000e+01
5.000000e+01
5.000000e+01
5.000000e+01
5.000000e+01
5.000000e+01
5.000000e+01
5.000000e+01
5.000000e+01
5.000000e+01
5.000000e+01
5.000000e+01
6.250000e+01
6.250000e+01
6.250000e+01
6.250000e+01
6.250000e+01
6.250000e+01
6.250000e+01
6.250000e+01
6.250000e+01
6.250000e+01
6.250000e+01
6.250000e+01
6.250000e+01
6.250000e+01
6.250000e+01
6.250000e+01
6.250000e+01
7.500000e+01
7.500000e+01
7.500000e+01
7.500000e+01
7.500000e+01
7.500000e+01
7.500000e+01
7.500000e+01
7.500000e+01
7.500000e+01
7.500000e+01
7.500000e+01
7.500000e+01
7.500000e+01
7.500000e+01
7.500000e+01
7.500000e+01
8.750000e+01
8.750000e+01
8.750000e+01
8.750000e+01
8.750000e+01
8.750000e+01
8.750000e+01
8.750000e+01
8.750000e+01
8.750000e+01
8.750000e+01
8.750000e+01
8.750000e+01
8.750000e+01
8.750000e+01
8.750000e+01
8.750000e+01
1.000000e+02
1.000000e+02
1.000000e+02
1.000000e+02
1.000000e+02
1.000000e+02
1.000000e+02
1.000000e+02
1.000000e+02
1.000000e+02
1.000000e+02
1.000000e+02
1.000000e+02
1.000000e+02
1.000000e+02
1.000000e+02
1.000000e+02
0.000000e+00
-1.024909e+00
-1.685545e+00
-2.411330e+00
-3.110293e+00
-3.753775e+00
-4.394994e+00
-4.994118e+00
-5.670286e+00
-6.383620e+00
-7.060196e+00
-7.745634e+00
-8.477815e+00
-9.238599e+00
-9.954406e+00
-1.062831e+01
-1.107747e+01
0.000000e+00
-4.681699e-01
-9.226718e-01
-1.418692e+00
-1.951495e+00
-2.445564e+00
-2.942078e+00
-3.427437e+00
-3.944656e+00
-4.480667e+00
-4.975108e+00
-5.468208e+00
-5.980185e+00
-6.461854e+00
-6.776119e+00
-6.845506e+00
-7.006158e+00
0.000000e+00
-1.575382e-01
-3.676946e-01
-6.628081e-01
-1.020705e+00
-1.359708e+00
-1.726702e+00
-2.094602e+00
-2.449047e+00
-2.788676e+00
-3.101687e+00
-3.406157e+00
-3.681499e+00
-3.874516e+00
-3.921582e+00
-3.898802e+00
-4.060731e+00
0.000000e+00
-8.029382e-02
-1.671624e-01
-3.231284e-01
-4.721879e-01
-6.495879e-01
-8.304851e-01
-9.922687e-01
-1.145761e+00
-1.285723e+00
-1.427680e+00
-1.548086e+00
-1.614037e+00
-1.605772e+00
-1.548715e+00
-1.553559e+00
-1.685955e+00
0.000000e+00
-2.253126e-03
-4.608207e-03
-6.613120e-03
-8.036023e-03
-7.554487e-03
-3.078914e-03
7.551283e-03
2.765330e-02
5.876092e-02
1.045844e-01
1.717609e-01
2.665866e-01
3.849825e-01
4.854280e-01
4.949818e-01
3.944527e-01
0.000000e+00
7.617284e-02
1.597693e-01
3.124022e-01
4.597358e-01
6.384061e-01
8.241501e-01
1.001868e+00
1.185401e+00
1.378436e+00
1.604763e+00
1.843616e+00
2.064775e+00
2.252551e+00
2.380783e+00
2.410467e+00
2.351954e+00
0.000000e+00
1.557657e-01
3.643165e-01
6.572979e-01
1.014317e+00
1.352777e+00
1.719961e+00
2.090134e+00
2.454019e+00
2.816970e+00
3.176429e+00
3.542951e+00
3.872581e+00
4.128422e+00
4.291665e+00
4.349383e+00
4.333908e+00
0.000000e+00
4.682808e-01
9.226735e-01
1.417022e+00
1.949501e+00
2.442662e+00
2.935624e+00
3.417597e+00
3.926414e+00
4.447244e+00
4.929672e+00
5.394915e+00
5.813545e+00
6.131961e+00
6.331337e+00
6.419098e+00
6.435034e+00
0.000000e+00
1.026513e+00
1.688554e+00
2.414833e+00
3.115028e+00
3.761321e+00
4.399690e+00
4.998621e+00
5.662820e+00
6.343250e+00
6.970412e+00
7.557279e+00
8.062902e+00
8.418588e+00
8.604542e+00
8.654650e+00
8.654521e+00
0.000000e+00
-6.285896e-01
-1.361320e+00
-2.348309e+00
-3.509835e+00
-4.825051e+00
-6.299547e+00
-7.912520e+00
-9.688920e+00
-1.162884e+01
-1.373585e+01
-1.603735e+01
-1.853787e+01
-2.122713e+01
-2.414760e+01
-2.753056e+01
-3.248142e+01
0.000000e+00
-4.251995e-01
-1.199443e+00
-2.161524e+00
-3.335108e+00
-4.653630e+00
-6.133716e+00
-7.746250e+00
-9.506515e+00
-1.145066e+01
-1.356389e+01
-1.586127e+01
-1.835753e+01
-2.107181e+01
-2.403531e+01
-2.742322e+01
-3.154572e+01
0.000000e+00
-3.950118e-01
-1.095644e+00
-2.054580e+00
-3.209826e+00
-4.523431e+00
-6.007240e+00
-7.621858e+00
-9.390427e+00
-1.133656e+01
-1.345784e+01
-1.576489e+01
-1.827607e+01
-2.102840e+01
-2.402714e+01
-2.723101e+01
-3.024451e+01
0.000000e+00
-4.462387e-01
-1.080218e+00
-2.026120e+00
-3.141126e+00
-4.443219e+00
-5.928979e+00
-7.556278e+00
-9.342433e+00
-1.128820e+01
-1.342419e+01
-1.575391e+01
-1.827992e+01
-2.102942e+01
-2.396772e+01
-2.688675e+01
-2.943697e+01
0.000000e+00
-4.506799e-01
-1.098226e+00
-2.010078e+00
-3.128600e+00
-4.422948e+00
-5.907404e+00
-7.552683e+00
-9.345212e+00
-1.130015e+01
-1.345113e+01
-1.579921e+01
-1.832113e+01
-2.101758e+01
-2.382965e+01
-2.654083e+01
-2.885552e+01
0.000000e+00
-4.458811e-01
-1.081258e+00
-2.029373e+00
-3.148037e+00
-4.457393e+00
-5.950530e+00
-7.590867e+00
-9.391497e+00
-1.135469e+01
-1.351434e+01
-1.586520e+01
-1.837098e+01
-2.100081e+01
-2.368685e+01
-2.625153e+01
-2.846234e+01
0.000000e+00
-3.948864e-01
-1.097894e+00
-2.060265e+00
-3.221966e+00
-4.546156e+00
-6.042912e+00
-7.677306e+00
-9.471370e+00
-1.144757e+01
-1.360523e+01
-1.594637e+01
-1.843198e+01
-2.100659e+01
-2.359394e+01
-2.606125e+01
-2.826488e+01
0.000000e+00
-4.252157e-01
-1.201678e+00
-2.167681e+00
-3.348377e+00
-4.677718e+00
-6.172673e+00
-7.806522e+00
-9.597255e+00
-1.157811e+01
-1.372964e+01
-1.605545e+01
-1.851828e+01
-2.104996e+01
-2.356935e+01
-2.597578e+01
-2.821424e+01
0.000000e+00
-6.289683e-01
-1.363587e+00
-2.354628e+00
-3.523472e+00
-4.849170e+00
-6.338250e+00
-7.972284e+00
-9.776507e+00
-1.175139e+01
-1.389223e+01
-1.620243e+01
-1.863565e+01
-2.112287e+01
-2.359115e+01
-2.595964e+01
-2.821441e+01


0.000000e+00
1.397344e-05
2.448763e-05
3.723883e-05
5.152211e-05
6.557300e-05
7.990503e-05
9.382973e-05
1.091182e-04
1.233671e-04
1.346068e-04
1.439220e-04
1.511124e-04
1.555852e-04
1.586393e-04
1.624413e-04
1.672811e-04
0.000000e+00
9.819843e-06
1.947984e-05
2.892740e-05
4.059941e-05
5.177811e-05
6.287004e-05
7.418810e-05
8.587034e-05
9.587588e-05
1.030573e-04
1.087631e-04
1.123370e-04
1.124772e-04
1.117242e-04
1.148180e-04
1.205053e-04
0.000000e+00
7.996277e-06
1.520963e-05
2.169193e-05
3.011546e-05
3.785942e-05
4.560184e-05
5.326679e-05
5.994852e-05
6.499613e-05
6.852934e-05
7.105605e-05
7.204163e-05
7.127888e-05
7.097580e-05
7.409895e-05
7.973607e-05
0.000000e+00
4.505998e-06
7.221946e-06
1.141748e-05
1.515331e-05
1.897765e-05
2.292046e-05
2.639154e-05
2.916472e-05
3.101154e-05
3.214596e-05
3.247867e-05
3.225247e-05
3.230119e-05
3.338242e-05
3.617050e-05
4.031779e-05
0.000000e+00
-5.941959e-08
-1.289562e-07
-1.950338e-07
-2.594939e-07
-3.169801e-07
-3.854420e-07
-4.604081e-07
-6.126249e-07
-9.578096e-07
-1.679957e-06
-2.649640e-06
-3.459059e-06
-3.558858e-06
-2.693445e-06
-1.406243e-06
4.778642e-07
0.000000e+00
-4.629507e-06
-7.451031e-06
-1.176880e-05
-1.559421e-05
-1.952256e-05
-2.351060e-05
-2.704130e-05
-2.985179e-05
-3.182815e-05
-3.352163e-05
-3.502856e-05
-3.611161e-05
-3.667143e-05
-3.715407e-05
-3.755839e-05
-3.721807e-05
0.000000e+00
-8.088967e-06
-1.537383e-05
-2.189493e-05
-3.040867e-05
-3.823122e-05
-4.600226e-05
-5.362369e-05
-6.016889e-05
-6.483854e-05
-6.763193e-05
-6.921023e-05
-7.021555e-05
-7.109572e-05
-7.201688e-05
-7.283402e-05
-7.307577e-05
0.000000e+00
-9.878990e-06
-1.956146e-05
-2.896119e-05
-4.065330e-05
-5.187992e-05
-6.295305e-05
-7.427262e-05
-8.595603e-05
-9.576459e-05
-1.019187e-04
-1.053525e-04
-1.071443e-04
-1.082962e-04
-1.090754e-04
-1.094643e-04
-1.095741e-04
0.000000e+00
-1.402113e-05
-2.450357e-05
-3.714104e-05
-5.132794e-05
-6.534900e-05
-7.952440e-05
-9.342449e-05
-1.087329e-04
-1.230081e-04
-1.337621e-04
-1.408919e-04
-1.449111e-04
-1.466368e-04
-1.470951e-04
-1.470124e-04
-1.469251e-04
0.000000e+00
1.181988e-05
2.015904e-05
3.202268e-05
4.711500e-05
6.466957e-05
8.587634e-05
1.104827e-04
1.387644e-04
1.694187e-04
2.027568e-04
2.391889e-04
2.774827e-04
3.180762e-04
3.658543e-04
4.222755e-04
4.797318e-04
0.000000e+00
6.867054e-06
1.566707e-05
2.613582e-05
4.086986e-05
5.841638e-05
7.960664e-05
1.040740e-04
1.322474e-04
1.640671e-04
1.986510e-04
2.360074e-04
2.756980e-04
3.174309e-04
3.625696e-04
4.153278e-04
4.709301e-04
0.000000e+00
3.248359e-06
1.131093e-05
2.120906e-05
3.529155e-05
5.313870e-05
7.435358e-05
9.923311e-05
1.281045e-04
1.608029e-04
1.962355e-04
2.343027e-04
2.749916e-04
3.170821e-04
3.583871e-04
4.059795e-04
4.585414e-04
0.000000e+00
2.061861e-06
8.838813e-06
1.890484e-05
3.284642e-05
5.078909e-05
7.228128e-05
9.767222e-05
1.270685e-04
1.599241e-04
1.955622e-04
2.337779e-04
2.746536e-04
3.165081e-04
3.556548e-04
3.982744e-04
4.462326e-04
0.000000e+00
1.687657e-06
8.201179e-06
1.813167e-05
3.219290e-05
5.004399e-05
7.168226e-05
9.732668e-05
1.269353e-04
1.598196e-04
1.955027e-04
2.337982e-04
2.744796e-04
3.162527e-04
3.554334e-04
3.949525e-04
4.376058e-04
0.000000e+00
2.092991e-06
8.882107e-06
1.891126e-05
3.277649e-05
5.065445e-05
7.209420e-05
9.751150e-05
1.270658e-04
1.601139e-04
1.960958e-04
2.345928e-04
2.750987e-04
3.162683e-04
3.561397e-04
3.946791e-04
4.331143e-04
0.000000e+00
3.298542e-06
1.138362e-05
2.120751e-05
3.517898e-05
5.290094e-05
7.400748e-05
9.888055e-05
1.279635e-04
1.611151e-04
1.973126e-04
2.359476e-04
2.761254e-04
3.166020e-04
3.562019e-04
3.945069e-04
4.316400e-04
0.000000e+00
6.937349e-06
1.574484e-05
2.614407e-05
4.077029e-05
5.818803e-05
7.922085e-05
1.036418e-04
1.320271e-04
1.642940e-04
1.995309e-04
2.374378e-04
2.769483e-04
3.168572e-04
3.561067e-04
3.942910e-04
4.315709e-04
0.000000e+00
1.190734e-05
2.022561e-05
3.201967e-05
4.703874e-05
6.446195e-05
8.549910e-05
1.100936e-04
1.385625e-04
1.694895e-04
2.029169e-04
2.392629e-04
2.777448e-04
3.170615e-04
3.560909e-04
3.942003e-04
4.316506e-04


6.361568e+00
5.981265e+00
6.049833e+00
5.082185e+00
4.461969e+00
4.606920e+00
4.581600e+00
4.569381e+00
4.431350e+00
4.652493e+00
5.512571e+00
6.666720e+00
7.423068e+00
6.939181e+00
5.459551e+00
4.432199e+00
7.933380e+00
8.105461e+00
8.041015e+00
7.586858e+00
7.139617e+00
7.198901e+00
6.791738e+00
5.935347e+00
5.404139e+00
5.511527e+00
6.296849e+00
7.243704e+00
7.736315e+00
6.975881e+00
5.323427e+00
4.186370e+00
9.369981e+00
9.507603e+00
9.687613e+00
9.292408e+00
9.118456e+00
9.153946e+00
8.703165e+00
7.851621e+00
7.216460e+00
7.242573e+00
7.546717e+00
7.843753e+00
7.935260e+00
7.152561e+00
5.602577e+00
4.551991e+00
9.657253e+00
9.826822e+00
9.887755e+00
9.627946e+00
9.394772e+00
9.440373e+00
9.448056e+00
9.162625e+00
8.891038e+00
8.698249e+00
8.258092e+00
7.736314e+00
7.566060e+00
7.270519e+00
6.442340e+00
5.760436e+00
9.650650e+00
9.817791e+00
9.874400e+00
9.600732e+00
9.333515e+00
9.356978e+00
9.357676e+00
9.101823e+00
8.884244e+00
8.678133e+00
8.051313e+00
7.258043e+00
7.068484e+00
7.352417e+00
7.397280e+00
7.236926e+00
9.334095e+00
9.472705e+00
9.647021e+00
9.227064e+00
8.999414e+00
8.959404e+00
8.496306e+00
7.715027e+00
7.220538e+00
7.304901e+00
7.340923e+00
7.103732e+00
7.151405e+00
7.696516e+00
8.224222e+00
8.429859e+00
7.884883e+00
8.055200e+00
7.985817e+00
7.532028e+00
7.037047e+00
7.029582e+00
6.602636e+00
5.820670e+00
5.449483e+00
5.777257e+00
6.607922e+00
7.264865e+00
7.743617e+00
8.339034e+00
8.904667e+00
9.177031e+00
6.322262e+00
5.935342e+00
6.003007e+00
5.050774e+00
4.413925e+00
4.493698e+00
4.472591e+00
4.509880e+00
4.502999e+00
5.033383e+00
6.231703e+00
7.431441e+00
8.249596e+00
8.853803e+00
9.318181e+00
9.541033e+00


-9.473550e-01
-1.107299e-01
-3.067875e-01
-3.310047e-01
-1.401311e-01
-1.403085e-01
-4.375077e-02
-2.594983e-01
-3.782853e-01
-2.148601e-01
-2.290600e-01
-3.596393e-01
-3.346828e-01
8.866611e-02
5.056853e-01
-7.142303e-01
5.756847e-01
4.847564e-01
3.183241e-01
1.604070e-01
2.471951e-01
1.814826e-01
1.892334e-01
1.551412e-01
1.512195e-01
2.654062e-01
2.829917e-01
3.131072e-01
4.881900e-01
7.867679e-01
7.243085e-01
-1.482289e+00
7.237495e-01
4.926079e-01
1.116926e-01
4.586208e-02
5.691205e-02
2.127841e-02
1.608128e-01
2.710820e-01
3.508269e-01
3.755391e-01
3.787521e-01
4.257034e-01
4.462555e-01
3.482768e-01
1.005529e-01
-4.104373e-01
7.350478e-01
5.738517e-01
2.444087e-01
1.649881e-01
1.152090e-01
1.028101e-01
1.733286e-01
2.216035e-01
2.505690e-01
2.218194e-01
2.070821e-01
1.834345e-01
2.790604e-02
-1.929777e-01
-1.207686e-01
5.583275e-02
7.366384e-01
5.756868e-01
2.486151e-01
1.684657e-01
1.138015e-01
9.170006e-02
1.381464e-01
1.587530e-01
1.500059e-01
7.147117e-02
1.155833e-02
-2.786239e-02
-1.436012e-01
-2.327922e-01
1.185905e-02
4.398525e-01
7.277807e-01
4.972627e-01
1.194248e-01
4.842968e-02
4.563005e-02
-5.660436e-03
9.132701e-02
1.461954e-01
1.424216e-01
3.871779e-02
-9.772366e-02
-1.114963e-01
-5.787889e-02
6.575600e-02
3.838582e-01
7.796515e-01
5.781912e-01
4.869185e-01
3.230380e-01
1.590385e-01
2.420952e-01
1.724049e-01
1.630785e-01
1.005682e-01
4.028808e-02
5.055324e-02
-3.356402e-02
3.730211e-03
1.988055e-01
4.539485e-01
7.446343e-01
9.561513e-01
-9.512125e-01
-1.132096e-01
-3.044989e-01
-3.334301e-01
-1.443721e-01
-1.295875e-01
-3.991971e-02
-2.253412e-01
-2.938891e-01
-1.226739e-01
-3.429989e-02
1.696082e-01
5.169662e-01
8.026123e-01
9.568817e-01
9.989872e-01
1 2 19 18
2 3 20 19
3 4 21 20
4 5 22 21
5 6 23 22
6 7 24 23
7 8 25 24
8 9 26 25
9 10 27 26
10 11 28 27
11 12 29 28
12 13 30 29
13 14 31 30
14 15 32 31
15 16 33 32
16 17 34 33
18 19 36 35
19 20 37 36
20 21 38 37
21 22 39 38
22 23 40 39
23 24 41 40
24 25 42 41
25 26 43 42
26 27 44 43
27 28 45 44
28 29 46 45
29 30 47 46
30 31 48 47
31 32 49 48
32 33 50 49
33 34 51 50
35 36 53 52
36 37 54 53
37 38 55 54
38 39 56 55
39 40 57 56
40 41 58 57
41 42 59 58
42 43 60 59
43 44 61 60
44 45 62 61
45 46 63 62
46 47 64 63
47 48 65 64
48 49 66 65
49 50 67 66
50 51 68 67
52 53 70 69
53 54 71 70
54 55 72 71
55 56 73 72
56 57 74 73
57 58 75 74
58 59 76 75
59 60 77 76
60 61 78 77
61 62 79 78
62 63 80 79
63 64 81 80
64 65 82 81
65 66 83 82
66 67 84 83
67 68 85 84
69 70 87 86
70 71 88 87
71 72 89 88
72 73 90 89
73 74 91 90
74 75 92 91
75 76 93 92
76 77 94 93
77 78 95 94
78 79 96 95
79 80 97 96
80 81 98 97
81 82 99 98
82 83 100 99
83 84 101 100
84 85 102 101
86 87 104 103
87 88 105 104
88 89 106 105
89 90 107 106
90 91 108 107
91 92 109 108
92 93 110 109
93 94 111 110
94 95 112 111
95 96 113 112
96 97 114 113
97 98 115 114
98 99 116 115
99 100 117 116
100 101 118 117
101 102 119 118
103 104 121 120
104 105 122 121
105 106 123 122
106 107 124 123
107 108 125 124
108 109 126 125
109 110 127 126
110 111 128 127
111 112 129 128
112 113 130 129
113 114 131 130
114 115 132 131
115 116 133 132
116 117 134 133
117 118 135 134
118 119 136 135
120 121 138 137
121 122 139 138
122 123 140 139
123 124 141 140
124 125 142 141
125 126 143 142
126 127 144 143
127 128 145 144
128 129 146 145
129 130 147 146
130 131 148 147
131 132 149 148
132 133 150 149
133 134 151 150
134 135 152 151
135 136 153 152
