TITLE = "Solution"
VARIABLES = x, y, u, v, psiu, psiv, t, stress
ZONE T="structure" N=153 E=128 F=FEBLOCK ET=QUADRILATERAL VARLOCATION=([7,8]=cellcentered)
0.000000e+00
1.250000e+01
2.500000e+01
3.750000e+01
5.000000e+01
6.250000e+01
7.500000e+01
8.750000e+01
1.000000e+02
1.125000e+02
1.250000e+02
1.375000e+02
1.500000e+02
1.625000e+02
1.750000e+02
1.875000e+02
2.000000e+02
0.000000e+00
1.250000e+01
2.500000e+01
3.750000e+01
5.000000e+01
6.250000e+01
7.500000e+01
8.750000e+01
1.000000e+02
1.125000e+02
1.250000e+02
1.375000e+02
1.500000e+02
1.625000e+02
1.750000e+02
1.875000e+02
2.000000e+02
0.000000e+00
1.250000e+01
2.500000e+01
3.750000e+01
5.000000e+01
6.250000e+01
7.500000e+01
8.750000e+01
1.000000e+02
1.125000e+02
1.250000e+02
1.375000e+02
1.500000e+02
1.625000e+02
1.750000e+02
1.875000e+02
2.000000e+02
0.000000e+00
1.250000e+01
2.500000e+01
3.750000e+01
5.000000e+01
6.250000e+01
7.500000e+01
8.750000e+01
1.000000e+02
1.125000e+02
1.250000e+02
1.375000e+02
1.500000e+02
1.625000e+02
1.750000e+02
1.875000e+02
2.000000e+02
0.000000e+00
1.250000e+01
2.500000e+01
3.750000e+01
5.000000e+01
6.250000e+01
7.500000e+01
8.750000e+01
1.000000e+02
1.125000e+02
1.250000e+02
1.375000e+02
1.500000e+02
1.625000e+02
1.750000e+02
1.875000e+02
2.000000e+02
0.000000e+00
1.250000e+01
2.500000e+01
3.750000e+01
5.000000e+01
6.250000e+01
7.500000e+01
8.750000e+01
1.000000e+02
1.125000e+02
1.250000e+02
1.375000e+02
1.500000e+02
1.625000e+02
1.750000e+02
1.875000e+02
2.000000e+02
0.000000e+00
1.250000e+01
2.500000e+01
3.750000e+01
5.000000e+01
6.250000e+01
7.500000e+01
8.750000e+01
1.000000e+02
1.125000e+02
1.250000e+02
1.375000e+02
1.500000e+02
1.625000e+02
1.750000e+02
1.875000e+02
2.000000e+02
0.000000e+00
1.250000e+01
2.500000e+01
3.750000e+01
5.000000e+01
6.250000e+01
7.500000e+01
8.750000e+01
1.000000e+02
1.125000e+02
1.250000e+02
1.375000e+02
1.500000e+02
1.625000e+02
1.750000e+02
1.875000e+02
2.000000e+02
0.000000e+00
1.250000e+01
2.500000e+01
3.750000e+01
5.000000e+01
6.250000e+01
7.500000e+01
8.750000e+01
1.000000e+02
1.125000e+02
1.250000e+02
1.375000e+02
1.500000e+02
1.625000e+02
1.750000e+02
1.875000e+02
2.000000e+02
0.000000e+00
0.000000e+00
0.000000e+00
0.000000e+00
0.000000e+00
0.000000e+00
0.000000e+00
0.000000e+00
0.000000e+00
0.000000e+00
0.000000e+00
0.000000e+00
0.000000e+00
0.000000e+00
0.000000e+00
0.000000e+00
0.000000e+00
1.250000e+01
1.250000e+01
1.250000e+01
1.250000e+01
1.250000e+01
1.250000e+01
1.250000e+01
1.250000e+01
1.250000e+01
1.250000e+01
1.250000e+01
1.250000e+01
1.250000e+01
1.250000e+01
1.250000e+01
1.250000e+01
1.250000e+01
2.500000e+01
2.500000e+01
2.500000e+01
2.500000e+01
2.500000e+01
2.500000e+01
2.500000e+01
2.500000e+01
2.500000e+01
2.500000e+01
2.500000e+01
2.500000e+01
2.500000e+01
2.500000e+01
2.500000e+01
2.500000e+01
2.500000e+01
3.750000e+01
3.750000e+01
3.750000e+01
3.750000e+01
3.750000e+01
3.750000e+01
3.750000e+01
3.750000e+01
3.750000e+01
3.750000e+01
3.750000e+01
3.750000e+01
3.750000e+01
3.750000e+01
3.750000e+01
3.750000e+01
3.750000e+01
5.000000e+01
5.000000e+01
5.000000e+01
5.000000e+01
5.000000e+01
5.000000e+01
5.000000e+01
5.000000e+01
5.000000e+01
5.000000e+01
5.000000e+01
5.000000e+01
5.000000e+01
5.000000e+01
5.000000e+01
5.000000e+01
5.000000e+01
6.250000e+01
6.250000e+01
6.250000e+01
6.250000e+01
6.250000e+01
6.250000e+01
6.250000e+01
6.250000e+01
6.250000e+01
6.250000e+01
6.250000e+01
6.250000e+01
6.250000e+01
6.250000e+01
6.250000e+01
6.250000e+01
6.250000e+01
7.500000e+01
7.500000e+01
7.500000e+01
7.500000e+01
7.500000e+01
7.500000e+01
7.500000e+01
7.500000e+01
7.500000e+01
7.500000e+01
7.500000e+01
7.500000e+01
7.500000e+01
7.500000e+01
7.500000e+01
7.500000e+01
7.500000e+01
8.750000e+01
8.750000e+01
8.750000e+01
8.750000e+01
8.750000e+01
8.750000e+01
8.750000e+01
8.750000e+01
8.750000e+01
8.750000e+01
8.750000e+01
8.750000e+01
8.750000e+01
8.750000e+01
8.750000e+01
8.750000e+01
8.750000e+01
1.000000e+02
1.000000e+02
1.000000e+02
1.000000e+02
1.000000e+02
1.000000e+02
1.000000e+02
1.000000e+02
1.000000e+02
1.000000e+02
1.000000e+02
1.000000e+02
1.000000e+02
1.000000e+02
1.000000e+02
1.000000e+02
1.000000e+02
0.000000e+00
-7.519147e-02
-1.347775e-01
-1.873154e-01
-2.379311e-01
-2.864135e-01
-3.306394e-01
-3.703436e-01
-4.065757e-01
-4.390203e-01
-4.675282e-01
-4.930224e-01
-5.169262e-01
-5.410975e-01
-5.680778e-01
-6.009245e-01
-6.260350e-01
0.000000e+00
-4.455456e-02
-8.988271e-02
-1.299992e-01
-1.677690e-01
-2.037658e-01
-2.366071e-01
-2.662536e-01
-2.933459e-01
-3.175916e-01
-3.387376e-01
-3.571808e-01
-3.733072e-01
-3.869891e-01
-3.966924e-01
-3.987643e-01
-4.064388e-01
0.000000e+00
-2.651046e-02
-5.378707e-02
-8.033329e-02
-1.052510e-01
-1.286862e-01
-1.501900e-01
-1.697626e-01
-1.874703e-01
-2.030414e-01
-2.162831e-01
-2.271468e-01
-2.352606e-01
-2.398290e-01
-2.399011e-01
-2.380071e-01
-2.458822e-01
0.000000e+00
-1.174964e-02
-2.403430e-02
-3.628645e-02
-4.806549e-02
-5.907677e-02
-6.926794e-02
-7.853121e-02
-8.674818e-02
-9.370074e-02
-9.919697e-02
-1.030054e-01
-1.047574e-01
-1.042524e-01
-1.024098e-01
-1.029326e-01
-1.087200e-01
0.000000e+00
1.505317e-03
3.130686e-03
4.719736e-03
6.206200e-03
7.580786e-03
8.878578e-03
1.009187e-02
1.127313e-02
1.258572e-02
1.425478e-02
1.652870e-02
1.948429e-02
2.271082e-02
2.491120e-02
2.434723e-02
2.057913e-02
0.000000e+00
1.451498e-02
2.972784e-02
4.493532e-02
5.990498e-02
7.413890e-02
8.719869e-02
9.892785e-02
1.093372e-01
1.185045e-01
1.266773e-01
1.341141e-01
1.407689e-01
1.461049e-01
1.492744e-01
1.495877e-01
1.476558e-01
0.000000e+00
2.852487e-02
5.803036e-02
8.721628e-02
1.157553e-01
1.434236e-01
1.684686e-01
1.905819e-01
2.100435e-01
2.268711e-01
2.411203e-01
2.531217e-01
2.629351e-01
2.702452e-01
2.747030e-01
2.761906e-01
2.757236e-01
0.000000e+00
4.482373e-02
9.224128e-02
1.351571e-01
1.770669e-01
2.184097e-01
2.553056e-01
2.874348e-01
3.158376e-01
3.403297e-01
3.605799e-01
3.769388e-01
3.896454e-01
3.986840e-01
4.041963e-01
4.066044e-01
4.070473e-01
0.000000e+00
7.466036e-02
1.363870e-01
1.919785e-01
2.470310e-01
3.014310e-01
3.497921e-01
3.918635e-01
4.293624e-01
4.616598e-01
4.882076e-01
5.092581e-01
5.249264e-01
5.351408e-01
5.402573e-01
5.415878e-01
5.415790e-01
0.000000e+00
-4.432696e-02
-8.651749e-02
-1.416342e-01
-2.098761e-01
-2.909964e-01
-3.839253e-01
-4.877125e-01
-6.011679e-01
-7.228980e-01
-8.518344e-01
-9.873010e-01
-1.129082e+00
-1.278018e+00
-1.438146e+00
-1.622070e+00
-1.888587e+00
0.000000e+00
-2.727439e-02
-7.218740e-02
-1.280279e-01
-1.968372e-01
-2.788321e-01
-3.729464e-01
-4.777852e-01
-5.922234e-01
-7.150346e-01
-8.449814e-01
-9.812574e-01
-1.123623e+00
-1.273016e+00
-1.433072e+00
-1.615810e+00
-1.840879e+00
0.000000e+00
-2.066474e-02
-6.209809e-02
-1.182520e-01
-1.875713e-01
-2.702292e-01
-3.651385e-01
-4.708229e-01
-5.861466e-01
-7.098586e-01
-8.407238e-01
-9.779950e-01
-1.121473e+00
-1.271972e+00
-1.432083e+00
-1.604905e+00
-1.772091e+00
0.000000e+00
-1.819441e-02
-5.713495e-02
-1.124551e-01
-1.820521e-01
-2.651297e-01
-3.605683e-01
-4.669462e-01
-5.830327e-01
-7.074938e-01
-8.391640e-01
-9.773686e-01
-1.121760e+00
-1.272341e+00
-1.429047e+00
-1.587419e+00
-1.733122e+00
0.000000e+00
-1.777823e-02
-5.587330e-02
-1.106750e-01
-1.802287e-01
-2.635501e-01
-3.593421e-01
-4.661846e-01
-5.827474e-01
-7.077217e-01
-8.399226e-01
-9.786211e-01
-1.123094e+00
-1.272250e+00
-1.423982e+00
-1.573195e+00
-1.710536e+00
0.000000e+00
-1.883794e-02
-5.776153e-02
-1.127478e-01
-1.822042e-01
-2.655899e-01
-3.615420e-01
-4.684345e-01
-5.850414e-01
-7.101398e-01
-8.424686e-01
-9.810818e-01
-1.124839e+00
-1.271874e+00
-1.419540e+00
-1.563619e+00
-1.697958e+00
0.000000e+00
-2.176015e-02
-6.315985e-02
-1.189971e-01
-1.882138e-01
-2.714269e-01
-3.671353e-01
-4.735556e-01
-5.896709e-01
-7.144027e-01
-8.463857e-01
-9.844133e-01
-1.127037e+00
-1.272076e+00
-1.416863e+00
-1.558108e+00
-1.692246e+00
0.000000e+00
-2.842448e-02
-7.367112e-02
-1.295287e-01
-1.985159e-01
-2.811616e-01
-3.759843e-01
-4.814031e-01
-5.965541e-01
-7.203899e-01
-8.514914e-01
-9.885337e-01
-1.129890e+00
-1.273317e+00
-1.416185e+00
-1.555786e+00
-1.690838e+00
0.000000e+00
-4.563815e-02
-8.866504e-02
-1.441536e-01
-2.130314e-01
-2.947837e-01
-3.879448e-01
-4.919448e-01
-6.058187e-01
-7.282245e-01
-8.578983e-01
-9.935472e-01
-1.133441e+00
-1.275357e+00
-1.416777e+00
-1.555361e+00
-1.690843e+00


0.000000e+00
-6.161366e-07
-2.225387e-07
1.313640e-06
2.174795e-06
2.383943e-06
2.476357e-06
2.581987e-06
2.687533e-06
2.781469e-06
2.857520e-06
2.915267e-06
2.955493e-06
2.980577e-06
2.996049e-06
3.008370e-06
3.020148e-06
0.000000e+00
-5.492830e-07
-5.123589e-08
1.314133e-06
2.101966e-06
2.097477e-06
2.118608e-06
2.192614e-06
2.270982e-06
2.339461e-06
2.394964e-06
2.436819e-06
2.464034e-06
2.478633e-06
2.487639e-06
2.498554e-06
2.510999e-06
0.000000e+00
-7.856330e-08
3.369478e-07
1.091911e-06
1.573688e-06
1.658692e-06
1.737961e-06
1.796107e-06
1.845864e-06
1.888572e-06
1.923732e-06
1.950475e-06
1.968002e-06
1.978625e-06
1.987038e-06
1.996898e-06
2.007787e-06
0.000000e+00
3.098888e-07
5.919212e-07
9.026901e-07
1.056328e-06
1.233100e-06
1.326067e-06
1.374790e-06
1.405832e-06
1.429982e-06
1.449144e-06
1.463983e-06
1.475994e-06
1.485766e-06
1.493870e-06
1.501584e-06
1.509658e-06
0.000000e+00
3.448186e-07
6.562180e-07
7.822057e-07
8.439015e-07
8.909251e-07
9.422623e-07
9.706298e-07
9.843648e-07
9.915017e-07
9.943197e-07
9.963342e-07
1.000447e-06
1.005509e-06
1.010016e-06
1.014484e-06
1.019959e-06
0.000000e+00
2.311246e-07
4.909328e-07
6.084326e-07
6.128696e-07
6.042421e-07
6.016043e-07
5.982032e-07
5.876916e-07
5.730911e-07
5.574616e-07
5.449600e-07
5.382985e-07
5.352497e-07
5.337109e-07
5.341771e-07
5.371534e-07
0.000000e+00
1.160984e-07
2.701409e-07
3.297791e-07
3.224917e-07
2.799947e-07
2.448630e-07
2.142824e-07
1.825020e-07
1.497017e-07
1.198000e-07
9.661446e-08
8.079351e-08
6.998129e-08
6.275711e-08
5.937310e-08
5.971176e-08
0.000000e+00
7.107718e-08
1.343958e-07
9.103363e-08
8.126322e-09
-8.520531e-08
-1.566353e-07
-2.096408e-07
-2.557315e-07
-2.980819e-07
-3.341994e-07
-3.615311e-07
-3.806050e-07
-3.943806e-07
-4.044405e-07
-4.106060e-07
-4.128375e-07
0.000000e+00
1.815511e-07
9.953858e-08
-8.751114e-08
-2.983721e-07
-4.705309e-07
-5.859443e-07
-6.655980e-07
-7.270660e-07
-7.755792e-07
-8.116209e-07
-8.360888e-07
-8.525867e-07
-8.653478e-07
-8.762598e-07
-8.843473e-07
-8.880734e-07
0.000000e+00
-1.444220e-07
3.166025e-07
6.083614e-07
4.686696e-07
5.120441e-07
8.769459e-07
1.296838e-06
1.738267e-06
2.204027e-06
2.686638e-06
3.178288e-06
3.674341e-06
4.177618e-06
4.694850e-06
5.224250e-06
5.754454e-06
0.000000e+00
-1.195345e-07
-2.473901e-07
-5.642576e-08
2.277358e-07
4.795517e-07
8.410278e-07
1.247292e-06
1.693086e-06
2.166257e-06
2.657452e-06
3.157432e-06
3.660839e-06
4.168191e-06
4.683192e-06
5.208051e-06
5.735539e-06
0.000000e+00
-1.490863e-07
-5.472319e-07
-4.674930e-07
-2.612821e-09
4.335614e-07
7.949410e-07
1.205388e-06
1.657639e-06
2.138655e-06
2.637423e-06
3.144084e-06
3.651631e-06
4.159705e-06
4.670729e-06
5.189597e-06
5.711734e-06
0.000000e+00
-1.820016e-07
-5.619933e-07
-5.509542e-07
-1.340429e-07
3.252691e-07
7.403096e-07
1.173586e-06
1.637350e-06
2.124835e-06
2.629161e-06
3.139786e-06
3.647096e-06
4.152336e-06
4.659926e-06
5.173660e-06
5.688107e-06
0.000000e+00
-2.286900e-07
-5.425070e-07
-5.406251e-07
-1.915257e-07
2.444143e-07
6.927679e-07
1.150266e-06
1.626509e-06
2.119535e-06
2.628108e-06
3.140694e-06
3.645226e-06
4.146324e-06
4.650765e-06
5.160628e-06
5.668027e-06
0.000000e+00
-2.876641e-07
-5.587562e-07
-5.232821e-07
-2.001571e-07
2.210698e-07
6.713454e-07
1.142184e-06
1.627290e-06
2.124793e-06
2.634777e-06
3.145394e-06
3.645769e-06
4.142800e-06
4.644015e-06
5.150360e-06
5.652806e-06
0.000000e+00
-3.325545e-07
-5.642913e-07
-4.996278e-07
-1.891687e-07
2.236988e-07
6.762499e-07
1.150434e-06
1.639918e-06
2.139951e-06
2.647567e-06
3.152667e-06
3.648732e-06
4.142412e-06
4.640228e-06
5.143034e-06
5.641603e-06
0.000000e+00
-3.334268e-07
-5.413543e-07
-4.533929e-07
-1.627584e-07
2.470674e-07
6.956973e-07
1.168321e-06
1.658313e-06
2.158425e-06
2.662028e-06
3.161434e-06
3.654044e-06
4.145137e-06
4.639646e-06
5.138858e-06
5.634192e-06
0.000000e+00
-3.404311e-07
-4.889553e-07
-3.908122e-07
-1.021327e-07
2.899437e-07
7.259691e-07
1.191230e-06
1.678018e-06
2.175469e-06
2.674947e-06
3.170161e-06
3.660230e-06
4.149438e-06
4.641485e-06
5.137675e-06
5.631050e-06


2.152000e-01
2.001251e-01
1.894388e-01
1.944980e-01
2.012361e-01
2.008746e-01
2.000721e-01
2.048891e-01
2.071777e-01
2.059111e-01
2.069080e-01
2.119041e-01
2.186697e-01
2.210197e-01
2.198804e-01
2.249859e-01
2.126155e-01
2.053783e-01
1.987596e-01
2.008154e-01
2.065763e-01
2.068451e-01
2.077715e-01
2.114251e-01
2.121859e-01
2.104387e-01
2.110444e-01
2.143659e-01
2.194701e-01
2.219981e-01
2.233874e-01
2.249126e-01
2.186214e-01
2.140006e-01
2.087586e-01
2.092149e-01
2.128910e-01
2.159236e-01
2.181810e-01
2.201778e-01
2.193526e-01
2.172965e-01
2.172684e-01
2.180142e-01
2.195306e-01
2.217061e-01
2.225229e-01
2.244624e-01
2.270946e-01
2.221796e-01
2.167208e-01
2.163580e-01
2.203670e-01
2.240053e-01
2.263073e-01
2.266128e-01
2.240041e-01
2.213704e-01
2.208118e-01
2.204675e-01
2.188528e-01
2.182208e-01
2.192808e-01
2.205665e-01
2.289355e-01
2.254226e-01
2.216705e-01
2.247707e-01
2.294316e-01
2.315476e-01
2.319531e-01
2.295057e-01
2.253926e-01
2.210076e-01
2.202769e-01
2.201639e-01
2.177841e-01
2.166223e-01
2.191077e-01
2.215546e-01
2.279818e-01
2.248656e-01
2.222612e-01
2.307370e-01
2.401076e-01
2.394138e-01
2.345316e-01
2.306441e-01
2.243299e-01
2.183003e-01
2.164551e-01
2.170809e-01
2.166727e-01
2.188631e-01
2.241923e-01
2.276305e-01
2.271890e-01
2.231314e-01
2.206908e-01
2.333995e-01
2.473457e-01
2.422720e-01
2.337293e-01
2.292711e-01
2.242546e-01
2.166321e-01
2.134340e-01
2.148035e-01
2.176634e-01
2.236868e-01
2.305938e-01
2.337971e-01
2.236648e-01
2.221785e-01
2.186108e-01
2.336601e-01
2.488065e-01
2.410036e-01
2.299137e-01
2.284917e-01
2.246259e-01
2.171811e-01
2.134955e-01
2.154306e-01
2.203988e-01
2.276865e-01
2.341317e-01
2.371729e-01


9.874296e-01
9.903636e-01
9.924871e-01
9.931550e-01
9.937466e-01
9.947840e-01
9.957650e-01
9.964667e-01
9.971670e-01
9.978266e-01
9.983035e-01
9.986032e-01
9.987640e-01
9.988292e-01
9.989074e-01
9.950059e-01
9.954756e-01
9.951268e-01
9.958662e-01
9.963108e-01
9.966392e-01
9.971321e-01
9.975948e-01
9.979683e-01
9.983658e-01
9.987618e-01
9.990933e-01
9.993806e-01
9.996381e-01
9.998178e-01
9.993241e-01
9.927190e-01
9.985649e-01
9.981903e-01
9.981524e-01
9.982735e-01
9.983763e-01
9.985101e-01
9.986622e-01
9.988200e-01
9.990063e-01
9.991999e-01
9.993674e-01
9.994927e-01
9.995120e-01
9.992510e-01
9.983164e-01
9.966467e-01
9.997136e-01
9.993870e-01
9.992212e-01
9.991613e-01
9.991177e-01
9.990974e-01
9.991106e-01
9.991406e-01
9.991863e-01
9.992336e-01
9.992487e-01
9.992077e-01
9.990771e-01
9.988282e-01
9.986069e-01
9.985680e-01
9.995723e-01
9.992218e-01
9.990462e-01
9.989829e-01
9.989573e-01
9.989717e-01
9.990123e-01
9.990497e-01
9.990748e-01
9.990799e-01
9.990414e-01
9.989713e-01
9.989130e-01
9.989228e-01
9.990992e-01
9.994348e-01
9.981947e-01
9.977651e-01
9.976833e-01
9.977283e-01
9.978170e-01
9.980820e-01
9.983641e-01
9.985834e-01
9.987573e-01
9.988819e-01
9.989375e-01
9.989697e-01
9.990560e-01
9.992334e-01
9.995114e-01
9.998200e-01
9.951048e-01
9.944856e-01
9.951499e-01
9.953607e-01
9.955307e-01
9.963392e-01
9.971217e-01
9.976807e-01
9.981728e-01
9.986011e-01
9.989004e-01
9.991237e-01
9.993426e-01
9.995763e-01
9.998090e-01
9.999670e-01
9.873714e-01
9.895661e-01
9.915028e-01
9.917607e-01
9.919856e-01
9.936255e-01
9.951543e-01
9.961685e-01
9.971391e-01
9.980346e-01
9.987153e-01
9.992260e-01
9.996069e-01
9.998500e-01
9.999687e-01
9.999993e-01
1 2 19 18
2 3 20 19
3 4 21 20
4 5 22 21
5 6 23 22
6 7 24 23
7 8 25 24
8 9 26 25
9 10 27 26
10 11 28 27
11 12 29 28
12 13 30 29
13 14 31 30
14 15 32 31
15 16 33 32
16 17 34 33
18 19 36 35
19 20 37 36
20 21 38 37
21 22 39 38
22 23 40 39
23 24 41 40
24 25 42 41
25 26 43 42
26 27 44 43
27 28 45 44
28 29 46 45
29 30 47 46
30 31 48 47
31 32 49 48
32 33 50 49
33 34 51 50
35 36 53 52
36 37 54 53
37 38 55 54
38 39 56 55
39 40 57 56
40 41 58 57
41 42 59 58
42 43 60 59
43 44 61 60
44 45 62 61
45 46 63 62
46 47 64 63
47 48 65 64
48 49 66 65
49 50 67 66
50 51 68 67
52 53 70 69
53 54 71 70
54 55 72 71
55 56 73 72
56 57 74 73
57 58 75 74
58 59 76 75
59 60 77 76
60 61 78 77
61 62 79 78
62 63 80 79
63 64 81 80
64 65 82 81
65 66 83 82
66 67 84 83
67 68 85 84
69 70 87 86
70 71 88 87
71 72 89 88
72 73 90 89
73 74 91 90
74 75 92 91
75 76 93 92
76 77 94 93
77 78 95 94
78 79 96 95
79 80 97 96
80 81 98 97
81 82 99 98
82 83 100 99
83 84 101 100
84 85 102 101
86 87 104 103
87 88 105 104
88 89 106 105
89 90 107 106
90 91 108 107
91 92 109 108
92 93 110 109
93 94 111 110
94 95 112 111
95 96 113 112
96 97 114 113
97 98 115 114
98 99 116 115
99 100 117 116
100 101 118 117
101 102 119 118
103 104 121 120
104 105 122 121
105 106 123 122
106 107 124 123
107 108 125 124
108 109 126 125
109 110 127 126
110 111 128 127
111 112 129 128
112 113 130 129
113 114 131 130
114 115 132 131
115 116 133 132
116 117 134 133
117 118 135 134
118 119 136 135
120 121 138 137
121 122 139 138
122 123 140 139
123 124 141 140
124 125 142 141
125 126 143 142
126 127 144 143
127 128 145 144
128 129 146 145
129 130 147 146
130 131 148 147
131 132 149 148
132 133 150 149
133 134 151 150
134 135 152 151
135 136 153 152
