TITLE = "Solution"
VARIABLES = x, y, u, v, psiu, psiv, t, stress
ZONE T="structure" N=153 E=128 F=FEBLOCK ET=QUADRILATERAL VARLOCATION=([7,8]=cellcentered)
0.000000e+00
1.250000e+01
2.500000e+01
3.750000e+01
5.000000e+01
6.250000e+01
7.500000e+01
8.750000e+01
1.000000e+02
1.125000e+02
1.250000e+02
1.375000e+02
1.500000e+02
1.625000e+02
1.750000e+02
1.875000e+02
2.000000e+02
0.000000e+00
1.250000e+01
2.500000e+01
3.750000e+01
5.000000e+01
6.250000e+01
7.500000e+01
8.750000e+01
1.000000e+02
1.125000e+02
1.250000e+02
1.375000e+02
1.500000e+02
1.625000e+02
1.750000e+02
1.875000e+02
2.000000e+02
0.000000e+00
1.250000e+01
2.500000e+01
3.750000e+01
5.000000e+01
6.250000e+01
7.500000e+01
8.750000e+01
1.000000e+02
1.125000e+02
1.250000e+02
1.375000e+02
1.500000e+02
1.625000e+02
1.750000e+02
1.875000e+02
2.000000e+02
0.000000e+00
1.250000e+01
2.500000e+01
3.750000e+01
5.000000e+01
6.250000e+01
7.500000e+01
8.750000e+01
1.000000e+02
1.125000e+02
1.250000e+02
1.375000e+02
1.500000e+02
1.625000e+02
1.750000e+02
1.875000e+02
2.000000e+02
0.000000e+00
1.250000e+01
2.500000e+01
3.750000e+01
5.000000e+01
6.250000e+01
7.500000e+01
8.750000e+01
1.000000e+02
1.125000e+02
1.250000e+02
1.375000e+02
1.500000e+02
1.625000e+02
1.750000e+02
1.875000e+02
2.000000e+02
0.000000e+00
1.250000e+01
2.500000e+01
3.750000e+01
5.000000e+01
6.250000e+01
7.500000e+01
8.750000e+01
1.000000e+02
1.125000e+02
1.250000e+02
1.375000e+02
1.500000e+02
1.625000e+02
1.750000e+02
1.875000e+02
2.000000e+02
0.000000e+00
1.250000e+01
2.500000e+01
3.750000e+01
5.000000e+01
6.250000e+01
7.500000e+01
8.750000e+01
1.000000e+02
1.125000e+02
1.250000e+02
1.375000e+02
1.500000e+02
1.625000e+02
1.750000e+02
1.875000e+02
2.000000e+02
0.000000e+00
1.250000e+01
2.500000e+01
3.750000e+01
5.000000e+01
6.250000e+01
7.500000e+01
8.750000e+01
1.000000e+02
1.125000e+02
1.250000e+02
1.375000e+02
1.500000e+02
1.625000e+02
1.750000e+02
1.875000e+02
2.000000e+02
0.000000e+00
1.250000e+01
2.500000e+01
3.750000e+01
5.000000e+01
6.250000e+01
7.500000e+01
8.750000e+01
1.000000e+02
1.125000e+02
1.250000e+02
1.375000e+02
1.500000e+02
1.625000e+02
1.750000e+02
1.875000e+02
2.000000e+02
0.000000e+00
0.000000e+00
0.000000e+00
0.000000e+00
0.000000e+00
0.000000e+00
0.000000e+00
0.000000e+00
0.000000e+00
0.000000e+00
0.000000e+00
0.000000e+00
0.000000e+00
0.000000e+00
0.000000e+00
0.000000e+00
0.000000e+00
1.250000e+01
1.250000e+01
1.250000e+01
1.250000e+01
1.250000e+01
1.250000e+01
1.250000e+01
1.250000e+01
1.250000e+01
1.250000e+01
1.250000e+01
1.250000e+01
1.250000e+01
1.250000e+01
1.250000e+01
1.250000e+01
1.250000e+01
2.500000e+01
2.500000e+01
2.500000e+01
2.500000e+01
2.500000e+01
2.500000e+01
2.500000e+01
2.500000e+01
2.500000e+01
2.500000e+01
2.500000e+01
2.500000e+01
2.500000e+01
2.500000e+01
2.500000e+01
2.500000e+01
2.500000e+01
3.750000e+01
3.750000e+01
3.750000e+01
3.750000e+01
3.750000e+01
3.750000e+01
3.750000e+01
3.750000e+01
3.750000e+01
3.750000e+01
3.750000e+01
3.750000e+01
3.750000e+01
3.750000e+01
3.750000e+01
3.750000e+01
3.750000e+01
5.000000e+01
5.000000e+01
5.000000e+01
5.000000e+01
5.000000e+01
5.000000e+01
5.000000e+01
5.000000e+01
5.000000e+01
5.000000e+01
5.000000e+01
5.000000e+01
5.000000e+01
5.000000e+01
5.000000e+01
5.000000e+01
5.000000e+01
6.250000e+01
6.250000e+01
6.250000e+01
6.250000e+01
6.250000e+01
6.250000e+01
6.250000e+01
6.250000e+01
6.250000e+01
6.250000e+01
6.250000e+01
6.250000e+01
6.250000e+01
6.250000e+01
6.250000e+01
6.250000e+01
6.250000e+01
7.500000e+01
7.500000e+01
7.500000e+01
7.500000e+01
7.500000e+01
7.500000e+01
7.500000e+01
7.500000e+01
7.500000e+01
7.500000e+01
7.500000e+01
7.500000e+01
7.500000e+01
7.500000e+01
7.500000e+01
7.500000e+01
7.500000e+01
8.750000e+01
8.750000e+01
8.750000e+01
8.750000e+01
8.750000e+01
8.750000e+01
8.750000e+01
8.750000e+01
8.750000e+01
8.750000e+01
8.750000e+01
8.750000e+01
8.750000e+01
8.750000e+01
8.750000e+01
8.750000e+01
8.750000e+01
1.000000e+02
1.000000e+02
1.000000e+02
1.000000e+02
1.000000e+02
1.000000e+02
1.000000e+02
1.000000e+02
1.000000e+02
1.000000e+02
1.000000e+02
1.000000e+02
1.000000e+02
1.000000e+02
1.000000e+02
1.000000e+02
1.000000e+02
0.000000e+00
-1.027343e+00
-1.690769e+00
-2.418376e+00
-3.110959e+00
-3.755493e+00
-4.421262e+00
-5.004341e+00
-5.658818e+00
-6.375308e+00
-7.057424e+00
-7.744304e+00
-8.463594e+00
-9.196817e+00
-9.998887e+00
-1.070283e+01
-1.114727e+01
0.000000e+00
-4.684654e-01
-9.238699e-01
-1.420911e+00
-1.944435e+00
-2.440733e+00
-2.951335e+00
-3.430672e+00
-3.933877e+00
-4.476291e+00
-4.975233e+00
-5.469498e+00
-5.973700e+00
-6.450172e+00
-6.820031e+00
-6.922357e+00
-7.091633e+00
0.000000e+00
-1.561483e-01
-3.644592e-01
-6.577693e-01
-1.010545e+00
-1.350979e+00
-1.722335e+00
-2.092107e+00
-2.447128e+00
-2.793289e+00
-3.105971e+00
-3.411231e+00
-3.689309e+00
-3.886966e+00
-3.950294e+00
-3.929147e+00
-4.078839e+00
0.000000e+00
-7.900809e-02
-1.645453e-01
-3.196354e-01
-4.686638e-01
-6.449695e-01
-8.300298e-01
-9.930177e-01
-1.152842e+00
-1.291558e+00
-1.430163e+00
-1.551722e+00
-1.625680e+00
-1.626766e+00
-1.562436e+00
-1.555177e+00
-1.692441e+00
0.000000e+00
-2.030667e-03
-4.310562e-03
-6.401336e-03
-7.540485e-03
-6.259429e-03
-5.693248e-04
1.181182e-02
3.280227e-02
6.368429e-02
1.077864e-01
1.727741e-01
2.655211e-01
3.805322e-01
4.721437e-01
4.799261e-01
3.775886e-01
0.000000e+00
7.568041e-02
1.583811e-01
3.102678e-01
4.573473e-01
6.345729e-01
8.260339e-01
1.005944e+00
1.197360e+00
1.387989e+00
1.607506e+00
1.843251e+00
2.068866e+00
2.261998e+00
2.391190e+00
2.417003e+00
2.356594e+00
0.000000e+00
1.547206e-01
3.620631e-01
6.543038e-01
1.005526e+00
1.344028e+00
1.714498e+00
2.086418e+00
2.450784e+00
2.821594e+00
3.178481e+00
3.541421e+00
3.874161e+00
4.137316e+00
4.306568e+00
4.366882e+00
4.351357e+00
0.000000e+00
4.683650e-01
9.236940e-01
1.420205e+00
1.943129e+00
2.437935e+00
2.945756e+00
3.421473e+00
3.916210e+00
4.446646e+00
4.934602e+00
5.398709e+00
5.817378e+00
6.139642e+00
6.344161e+00
6.435381e+00
6.452137e+00
0.000000e+00
1.028474e+00
1.692937e+00
2.421686e+00
3.115882e+00
3.762457e+00
4.428570e+00
5.010476e+00
5.653904e+00
6.342082e+00
6.977150e+00
7.566026e+00
8.073621e+00
8.432363e+00
8.620813e+00
8.671757e+00
8.671733e+00
0.000000e+00
-6.292934e-01
-1.365004e+00
-2.354999e+00
-3.520444e+00
-4.846494e+00
-6.335768e+00
-7.954694e+00
-9.734064e+00
-1.167825e+01
-1.378379e+01
-1.608440e+01
-1.858146e+01
-2.127435e+01
-2.420686e+01
-2.757036e+01
-3.252906e+01
0.000000e+00
-4.253637e-01
-1.202235e+00
-2.169677e+00
-3.346668e+00
-4.671491e+00
-6.168006e+00
-7.793835e+00
-9.553797e+00
-1.149884e+01
-1.361028e+01
-1.590898e+01
-1.840591e+01
-2.110804e+01
-2.407960e+01
-2.747978e+01
-3.153346e+01
0.000000e+00
-3.955132e-01
-1.098114e+00
-2.063792e+00
-3.221718e+00
-4.538636e+00
-6.041208e+00
-7.668106e+00
-9.439384e+00
-1.138527e+01
-1.350240e+01
-1.581075e+01
-1.832363e+01
-2.105571e+01
-2.406833e+01
-2.731518e+01
-3.036350e+01
0.000000e+00
-4.474972e-01
-1.083243e+00
-2.034129e+00
-3.154038e+00
-4.457112e+00
-5.960728e+00
-7.597124e+00
-9.393988e+00
-1.133862e+01
-1.346614e+01
-1.579372e+01
-1.832540e+01
-2.106403e+01
-2.401187e+01
-2.697745e+01
-2.955194e+01
0.000000e+00
-4.521319e-01
-1.101789e+00
-2.017561e+00
-3.140382e+00
-4.438640e+00
-5.934230e+00
-7.592389e+00
-9.396279e+00
-1.135138e+01
-1.349026e+01
-1.583449e+01
-1.836558e+01
-2.106840e+01
-2.387656e+01
-2.660578e+01
-2.893155e+01
0.000000e+00
-4.472399e-01
-1.084295e+00
-2.037469e+00
-3.160850e+00
-4.469261e+00
-5.981209e+00
-7.629945e+00
-9.441121e+00
-1.140301e+01
-1.355373e+01
-1.590126e+01
-1.841689e+01
-2.105798e+01
-2.374758e+01
-2.631665e+01
-2.853983e+01
0.000000e+00
-3.955850e-01
-1.100196e+00
-2.069265e+00
-3.232671e+00
-4.558436e+00
-6.074618e+00
-7.721321e+00
-9.516898e+00
-1.149332e+01
-1.364632e+01
-1.598604e+01
-1.847958e+01
-2.106521e+01
-2.365966e+01
-2.613152e+01
-2.834100e+01
0.000000e+00
-4.255954e-01
-1.204417e+00
-2.175309e+00
-3.358197e+00
-4.692558e+00
-6.204197e+00
-7.851687e+00
-9.640600e+00
-1.162327e+01
-1.377261e+01
-1.609799e+01
-1.856721e+01
-2.110882e+01
-2.363619e+01
-2.604715e+01
-2.828726e+01
0.000000e+00
-6.297829e-01
-1.367309e+00
-2.360819e+00
-3.532203e+00
-4.867758e+00
-6.372035e+00
-8.011653e+00
-9.818419e+00
-1.179844e+01
-1.393690e+01
-1.624606e+01
-1.868541e+01
-2.118242e+01
-2.365871e+01
-2.603122e+01
-2.828710e+01


0.000000e+00
1.380993e-05
2.426906e-05
3.720376e-05
5.148578e-05
6.528449e-05
7.980818e-05
9.352923e-05
1.089580e-04
1.239539e-04
1.356767e-04
1.452161e-04
1.524720e-04
1.570617e-04
1.604143e-04
1.642247e-04
1.692506e-04
0.000000e+00
9.646726e-06
1.924124e-05
2.895644e-05
4.069788e-05
5.168286e-05
6.266400e-05
7.394464e-05
8.592365e-05
9.663737e-05
1.040906e-04
1.098070e-04
1.133980e-04
1.138211e-04
1.134146e-04
1.172082e-04
1.228198e-04
0.000000e+00
7.856726e-06
1.501832e-05
2.172497e-05
3.027958e-05
3.787848e-05
4.545219e-05
5.329655e-05
6.033322e-05
6.568553e-05
6.928578e-05
7.183863e-05
7.290017e-05
7.228178e-05
7.212178e-05
7.534040e-05
8.052401e-05
0.000000e+00
4.468052e-06
7.141226e-06
1.138003e-05
1.517502e-05
1.891174e-05
2.292383e-05
2.648860e-05
2.945297e-05
3.137351e-05
3.256781e-05
3.298378e-05
3.281463e-05
3.290979e-05
3.390461e-05
3.678638e-05
4.119300e-05
0.000000e+00
-5.666290e-08
-1.272759e-07
-1.983524e-07
-2.701257e-07
-3.325150e-07
-3.837211e-07
-4.233933e-07
-5.249206e-07
-8.324679e-07
-1.528236e-06
-2.511074e-06
-3.351557e-06
-3.407849e-06
-2.420547e-06
-9.070952e-07
1.202034e-06
0.000000e+00
-4.574140e-06
-7.345197e-06
-1.170927e-05
-1.560136e-05
-1.943020e-05
-2.349996e-05
-2.708929e-05
-3.001668e-05
-3.195377e-05
-3.360106e-05
-3.514908e-05
-3.636103e-05
-3.701182e-05
-3.747842e-05
-3.780877e-05
-3.741391e-05
0.000000e+00
-7.918585e-06
-1.512925e-05
-2.188557e-05
-3.052070e-05
-3.819892e-05
-4.584540e-05
-5.369373e-05
-6.056088e-05
-6.544250e-05
-6.816356e-05
-6.966184e-05
-7.074180e-05
-7.178021e-05
-7.283342e-05
-7.372367e-05
-7.396302e-05
0.000000e+00
-9.667566e-06
-1.926168e-05
-2.895510e-05
-4.072735e-05
-5.176383e-05
-6.277444e-05
-7.408200e-05
-8.606423e-05
-9.661900e-05
-1.029808e-04
-1.063254e-04
-1.080931e-04
-1.093525e-04
-1.102439e-04
-1.107012e-04
-1.108284e-04
0.000000e+00
-1.381302e-05
-2.422538e-05
-3.707530e-05
-5.129464e-05
-6.505225e-05
-7.948196e-05
-9.315661e-05
-1.086063e-04
-1.237475e-04
-1.350771e-04
-1.423704e-04
-1.464167e-04
-1.481365e-04
-1.486051e-04
-1.485469e-04
-1.484703e-04
0.000000e+00
1.166464e-05
2.004443e-05
3.199878e-05
4.689220e-05
6.419460e-05
8.546075e-05
1.100814e-04
1.385885e-04
1.695163e-04
2.029105e-04
2.396013e-04
2.783645e-04
3.196120e-04
3.683147e-04
4.249298e-04
4.813758e-04
0.000000e+00
6.768711e-06
1.550075e-05
2.602013e-05
4.070074e-05
5.800959e-05
7.919012e-05
1.036942e-04
1.318246e-04
1.638534e-04
1.986798e-04
2.363764e-04
2.765104e-04
3.187351e-04
3.645786e-04
4.179004e-04
4.725073e-04
0.000000e+00
3.198828e-06
1.109461e-05
2.099505e-05
3.509113e-05
5.284779e-05
7.393483e-05
9.871197e-05
1.274803e-04
1.604074e-04
1.962005e-04
2.346283e-04
2.757196e-04
3.182291e-04
3.600486e-04
4.091270e-04
4.619357e-04
0.000000e+00
2.027568e-06
8.667438e-06
1.863671e-05
3.259965e-05
5.052746e-05
7.187808e-05
9.706806e-05
1.264248e-04
1.595094e-04
1.954612e-04
2.339954e-04
2.753795e-04
3.176458e-04
3.572536e-04
4.010865e-04
4.499372e-04
0.000000e+00
1.650148e-06
8.052358e-06
1.786389e-05
3.192077e-05
4.976475e-05
7.127765e-05
9.672375e-05
1.262982e-04
1.594058e-04
1.953236e-04
2.339135e-04
2.752293e-04
3.175809e-04
3.570433e-04
3.971460e-04
4.406276e-04
0.000000e+00
2.055574e-06
8.690078e-06
1.862668e-05
3.252668e-05
5.039075e-05
7.169366e-05
9.690294e-05
1.263981e-04
1.596487e-04
1.958948e-04
2.347281e-04
2.759242e-04
3.177278e-04
3.578476e-04
3.967751e-04
4.359422e-04
0.000000e+00
3.239661e-06
1.113266e-05
2.096991e-05
3.497052e-05
5.260688e-05
7.358978e-05
9.834128e-05
1.272436e-04
1.605904e-04
1.971240e-04
2.361747e-04
2.770214e-04
3.181229e-04
3.580554e-04
3.967030e-04
4.343281e-04
0.000000e+00
6.818706e-06
1.554443e-05
2.600559e-05
4.059539e-05
5.777731e-05
7.882228e-05
1.032478e-04
1.314852e-04
1.639137e-04
1.993858e-04
2.376934e-04
2.778433e-04
3.183867e-04
3.580377e-04
3.965601e-04
4.341765e-04
0.000000e+00
1.171754e-05
2.007816e-05
3.198486e-05
4.681142e-05
6.398962e-05
8.511852e-05
1.096658e-04
1.382819e-04
1.694465e-04
2.028816e-04
2.395150e-04
2.786325e-04
3.185882e-04
3.580581e-04
3.964904e-04
4.342434e-04


6.394052e+00
6.067032e+00
6.230028e+00
5.260022e+00
4.743924e+00
5.071038e+00
4.905540e+00
4.754452e+00
4.543483e+00
4.706820e+00
5.554927e+00
6.583951e+00
7.314723e+00
7.983984e+00
8.029485e+00
7.716471e+00
7.924419e+00
8.153056e+00
8.165039e+00
7.759986e+00
7.380686e+00
7.500822e+00
7.123306e+00
6.168160e+00
5.507322e+00
5.488469e+00
6.275862e+00
7.157425e+00
7.617371e+00
7.679506e+00
7.176897e+00
6.121612e+00
9.348648e+00
9.506949e+00
9.769729e+00
9.443991e+00
9.278384e+00
9.346106e+00
8.933742e+00
8.044014e+00
7.174325e+00
7.034247e+00
7.428162e+00
7.793035e+00
7.795870e+00
7.420321e+00
6.458095e+00
5.668707e+00
9.626709e+00
9.824264e+00
9.928989e+00
9.728540e+00
9.511151e+00
9.566525e+00
9.614721e+00
9.245211e+00
8.701555e+00
8.369023e+00
8.130320e+00
7.799294e+00
7.477881e+00
7.059584e+00
6.536671e+00
6.051739e+00
9.621874e+00
9.817111e+00
9.906193e+00
9.671610e+00
9.431373e+00
9.494161e+00
9.576160e+00
9.255311e+00
8.779426e+00
8.443450e+00
8.018900e+00
7.442795e+00
7.134963e+00
7.112288e+00
7.025705e+00
6.917338e+00
9.337064e+00
9.494716e+00
9.721949e+00
9.325925e+00
9.104499e+00
9.175266e+00
8.817107e+00
8.034113e+00
7.312039e+00
7.235246e+00
7.351464e+00
7.259297e+00
7.303129e+00
7.675628e+00
8.015363e+00
8.133101e+00
7.914761e+00
8.143201e+00
8.132321e+00
7.671333e+00
7.233685e+00
7.339406e+00
6.998606e+00
6.123933e+00
5.612130e+00
5.775140e+00
6.564362e+00
7.267123e+00
7.801771e+00
8.403319e+00
8.901048e+00
9.104336e+00
6.382679e+00
6.061495e+00
6.218668e+00
5.221312e+00
4.666225e+00
4.968627e+00
4.831962e+00
4.734077e+00
4.625997e+00
5.030075e+00
6.141398e+00
7.325217e+00
8.192492e+00
8.866462e+00
9.346136e+00
9.542892e+00


-9.536731e-01
-1.180334e-01
-3.121294e-01
-2.979703e-01
-1.477537e-01
-2.166366e-01
-2.996547e-03
-1.871813e-01
-3.993697e-01
-2.359726e-01
-2.355655e-01
-3.169996e-01
-2.750785e-01
-1.733426e-01
4.258663e-01
-7.512049e-01
5.772118e-01
4.865012e-01
3.193294e-01
1.836747e-01
2.402112e-01
1.451185e-01
1.911715e-01
1.711775e-01
1.230340e-01
2.557950e-01
2.740243e-01
3.086383e-01
4.847486e-01
7.264149e-01
7.327999e-01
-9.797620e-01
7.236291e-01
4.904068e-01
9.893657e-02
3.316520e-02
4.070395e-02
-3.492574e-02
1.290043e-01
2.418803e-01
3.396362e-01
3.891506e-01
3.805876e-01
4.112734e-01
4.583624e-01
3.322141e-01
5.542562e-02
-4.154907e-01
7.328555e-01
5.681637e-01
2.290710e-01
1.474985e-01
1.027738e-01
6.632556e-02
1.565348e-01
2.151351e-01
2.761398e-01
2.620546e-01
2.255383e-01
1.849138e-01
6.779842e-02
-1.727015e-01
-2.356497e-01
-8.251860e-02
7.344351e-01
5.707786e-01
2.349083e-01
1.523260e-01
1.014820e-01
4.751071e-02
1.113697e-01
1.389234e-01
1.654983e-01
1.043908e-01
2.026330e-02
-4.788450e-02
-1.429703e-01
-1.738432e-01
4.811224e-02
4.507485e-01
7.267679e-01
4.943224e-01
1.062526e-01
3.885512e-02
3.449920e-02
-6.900991e-02
5.011941e-02
1.044951e-01
1.206291e-01
5.583038e-02
-8.916082e-02
-1.440684e-01
-9.752331e-02
5.566705e-02
3.948067e-01
7.839952e-01
5.791967e-01
4.874034e-01
3.204432e-01
1.841125e-01
2.391768e-01
1.370881e-01
1.674375e-01
1.206379e-01
6.303651e-03
4.929593e-02
-2.039210e-02
-7.174811e-03
1.699251e-01
4.319406e-01
7.361326e-01
9.537496e-01
-9.560582e-01
-1.199923e-01
-3.135778e-01
-3.003846e-01
-1.493677e-01
-2.132772e-01
3.335409e-03
-1.548390e-01
-3.298538e-01
-1.470358e-01
-3.417618e-02
1.656825e-01
5.064430e-01
7.954539e-01
9.550009e-01
9.989019e-01
1 2 19 18
2 3 20 19
3 4 21 20
4 5 22 21
5 6 23 22
6 7 24 23
7 8 25 24
8 9 26 25
9 10 27 26
10 11 28 27
11 12 29 28
12 13 30 29
13 14 31 30
14 15 32 31
15 16 33 32
16 17 34 33
18 19 36 35
19 20 37 36
20 21 38 37
21 22 39 38
22 23 40 39
23 24 41 40
24 25 42 41
25 26 43 42
26 27 44 43
27 28 45 44
28 29 46 45
29 30 47 46
30 31 48 47
31 32 49 48
32 33 50 49
33 34 51 50
35 36 53 52
36 37 54 53
37 38 55 54
38 39 56 55
39 40 57 56
40 41 58 57
41 42 59 58
42 43 60 59
43 44 61 60
44 45 62 61
45 46 63 62
46 47 64 63
47 48 65 64
48 49 66 65
49 50 67 66
50 51 68 67
52 53 70 69
53 54 71 70
54 55 72 71
55 56 73 72
56 57 74 73
57 58 75 74
58 59 76 75
59 60 77 76
60 61 78 77
61 62 79 78
62 63 80 79
63 64 81 80
64 65 82 81
65 66 83 82
66 67 84 83
67 68 85 84
69 70 87 86
70 71 88 87
71 72 89 88
72 73 90 89
73 74 91 90
74 75 92 91
75 76 93 92
76 77 94 93
77 78 95 94
78 79 96 95
79 80 97 96
80 81 98 97
81 82 99 98
82 83 100 99
83 84 101 100
84 85 102 101
86 87 104 103
87 88 105 104
88 89 106 105
89 90 107 106
90 91 108 107
91 92 109 108
92 93 110 109
93 94 111 110
94 95 112 111
95 96 113 112
96 97 114 113
97 98 115 114
98 99 116 115
99 100 117 116
100 101 118 117
101 102 119 118
103 104 121 120
104 105 122 121
105 106 123 122
106 107 124 123
107 108 125 124
108 109 126 125
109 110 127 126
110 111 128 127
111 112 129 128
112 113 130 129
113 114 131 130
114 115 132 131
115 116 133 132
116 117 134 133
117 118 135 134
118 119 136 135
120 121 138 137
121 122 139 138
122 123 140 139
123 124 141 140
124 125 142 141
125 126 143 142
126 127 144 143
127 128 145 144
128 129 146 145
129 130 147 146
130 131 148 147
131 132 149 148
132 133 150 149
133 134 151 150
134 135 152 151
135 136 153 152
