TITLE = "Solution"
VARIABLES = x, y, u, v, psiu, psiv, t, stress
ZONE T="structure" N=153 E=128 F=FEBLOCK ET=QUADRILATERAL VARLOCATION=([7,8]=cellcentered)
0.000000e+00
1.250000e+01
2.500000e+01
3.750000e+01
5.000000e+01
6.250000e+01
7.500000e+01
8.750000e+01
1.000000e+02
1.125000e+02
1.250000e+02
1.375000e+02
1.500000e+02
1.625000e+02
1.750000e+02
1.875000e+02
2.000000e+02
0.000000e+00
1.250000e+01
2.500000e+01
3.750000e+01
5.000000e+01
6.250000e+01
7.500000e+01
8.750000e+01
1.000000e+02
1.125000e+02
1.250000e+02
1.375000e+02
1.500000e+02
1.625000e+02
1.750000e+02
1.875000e+02
2.000000e+02
0.000000e+00
1.250000e+01
2.500000e+01
3.750000e+01
5.000000e+01
6.250000e+01
7.500000e+01
8.750000e+01
1.000000e+02
1.125000e+02
1.250000e+02
1.375000e+02
1.500000e+02
1.625000e+02
1.750000e+02
1.875000e+02
2.000000e+02
0.000000e+00
1.250000e+01
2.500000e+01
3.750000e+01
5.000000e+01
6.250000e+01
7.500000e+01
8.750000e+01
1.000000e+02
1.125000e+02
1.250000e+02
1.375000e+02
1.500000e+02
1.625000e+02
1.750000e+02
1.875000e+02
2.000000e+02
0.000000e+00
1.250000e+01
2.500000e+01
3.750000e+01
5.000000e+01
6.250000e+01
7.500000e+01
8.750000e+01
1.000000e+02
1.125000e+02
1.250000e+02
1.375000e+02
1.500000e+02
1.625000e+02
1.750000e+02
1.875000e+02
2.000000e+02
0.000000e+00
1.250000e+01
2.500000e+01
3.750000e+01
5.000000e+01
6.250000e+01
7.500000e+01
8.750000e+01
1.000000e+02
1.125000e+02
1.250000e+02
1.375000e+02
1.500000e+02
1.625000e+02
1.750000e+02
1.875000e+02
2.000000e+02
0.000000e+00
1.250000e+01
2.500000e+01
3.750000e+01
5.000000e+01
6.250000e+01
7.500000e+01
8.750000e+01
1.000000e+02
1.125000e+02
1.250000e+02
1.375000e+02
1.500000e+02
1.625000e+02
1.750000e+02
1.875000e+02
2.000000e+02
0.000000e+00
1.250000e+01
2.500000e+01
3.750000e+01
5.000000e+01
6.250000e+01
7.500000e+01
8.750000e+01
1.000000e+02
1.125000e+02
1.250000e+02
1.375000e+02
1.500000e+02
1.625000e+02
1.750000e+02
1.875000e+02
2.000000e+02
0.000000e+00
1.250000e+01
2.500000e+01
3.750000e+01
5.000000e+01
6.250000e+01
7.500000e+01
8.750000e+01
1.000000e+02
1.125000e+02
1.250000e+02
1.375000e+02
1.500000e+02
1.625000e+02
1.750000e+02
1.875000e+02
2.000000e+02
0.000000e+00
0.000000e+00
0.000000e+00
0.000000e+00
0.000000e+00
0.000000e+00
0.000000e+00
0.000000e+00
0.000000e+00
0.000000e+00
0.000000e+00
0.000000e+00
0.000000e+00
0.000000e+00
0.000000e+00
0.000000e+00
0.000000e+00
1.250000e+01
1.250000e+01
1.250000e+01
1.250000e+01
1.250000e+01
1.250000e+01
1.250000e+01
1.250000e+01
1.250000e+01
1.250000e+01
1.250000e+01
1.250000e+01
1.250000e+01
1.250000e+01
1.250000e+01
1.250000e+01
1.250000e+01
2.500000e+01
2.500000e+01
2.500000e+01
2.500000e+01
2.500000e+01
2.500000e+01
2.500000e+01
2.500000e+01
2.500000e+01
2.500000e+01
2.500000e+01
2.500000e+01
2.500000e+01
2.500000e+01
2.500000e+01
2.500000e+01
2.500000e+01
3.750000e+01
3.750000e+01
3.750000e+01
3.750000e+01
3.750000e+01
3.750000e+01
3.750000e+01
3.750000e+01
3.750000e+01
3.750000e+01
3.750000e+01
3.750000e+01
3.750000e+01
3.750000e+01
3.750000e+01
3.750000e+01
3.750000e+01
5.000000e+01
5.000000e+01
5.000000e+01
5.000000e+01
5.000000e+01
5.000000e+01
5.000000e+01
5.000000e+01
5.000000e+01
5.000000e+01
5.000000e+01
5.000000e+01
5.000000e+01
5.000000e+01
5.000000e+01
5.000000e+01
5.000000e+01
6.250000e+01
6.250000e+01
6.250000e+01
6.250000e+01
6.250000e+01
6.250000e+01
6.250000e+01
6.250000e+01
6.250000e+01
6.250000e+01
6.250000e+01
6.250000e+01
6.250000e+01
6.250000e+01
6.250000e+01
6.250000e+01
6.250000e+01
7.500000e+01
7.500000e+01
7.500000e+01
7.500000e+01
7.500000e+01
7.500000e+01
7.500000e+01
7.500000e+01
7.500000e+01
7.500000e+01
7.500000e+01
7.500000e+01
7.500000e+01
7.500000e+01
7.500000e+01
7.500000e+01
7.500000e+01
8.750000e+01
8.750000e+01
8.750000e+01
8.750000e+01
8.750000e+01
8.750000e+01
8.750000e+01
8.750000e+01
8.750000e+01
8.750000e+01
8.750000e+01
8.750000e+01
8.750000e+01
8.750000e+01
8.750000e+01
8.750000e+01
8.750000e+01
1.000000e+02
1.000000e+02
1.000000e+02
1.000000e+02
1.000000e+02
1.000000e+02
1.000000e+02
1.000000e+02
1.000000e+02
1.000000e+02
1.000000e+02
1.000000e+02
1.000000e+02
1.000000e+02
1.000000e+02
1.000000e+02
1.000000e+02
0.000000e+00
-6.959531e-02
-1.253293e-01
-1.745875e-01
-2.214758e-01
-2.660970e-01
-3.069799e-01
-3.437830e-01
-3.771925e-01
-4.070882e-01
-4.335149e-01
-4.572469e-01
-4.794912e-01
-5.019436e-01
-5.269806e-01
-5.573022e-01
-5.801351e-01
0.000000e+00
-4.134032e-02
-8.376941e-02
-1.214082e-01
-1.564615e-01
-1.896112e-01
-2.200103e-01
-2.475217e-01
-2.725340e-01
-2.948883e-01
-3.144842e-01
-3.316429e-01
-3.466526e-01
-3.593835e-01
-3.684443e-01
-3.704050e-01
-3.774502e-01
0.000000e+00
-2.478091e-02
-5.033758e-02
-7.520450e-02
-9.838042e-02
-1.200684e-01
-1.400421e-01
-1.582378e-01
-1.746381e-01
-1.890462e-01
-2.013307e-01
-2.114289e-01
-2.189804e-01
-2.232465e-01
-2.233368e-01
-2.215885e-01
-2.288325e-01
0.000000e+00
-1.109317e-02
-2.268807e-02
-3.423258e-02
-4.529195e-02
-5.561610e-02
-6.517151e-02
-7.384747e-02
-8.151745e-02
-8.799706e-02
-9.311750e-02
-9.666417e-02
-9.829783e-02
-9.782568e-02
-9.609739e-02
-9.656297e-02
-1.019282e-01
0.000000e+00
1.215745e-03
2.527062e-03
3.788431e-03
4.951760e-03
6.028838e-03
7.067396e-03
8.066506e-03
9.071482e-03
1.022792e-02
1.173804e-02
1.382263e-02
1.655211e-02
1.954697e-02
2.160020e-02
2.107764e-02
1.756212e-02
0.000000e+00
1.323851e-02
2.713167e-02
4.103087e-02
5.463819e-02
6.755582e-02
7.943106e-02
9.012829e-02
9.965312e-02
1.080776e-01
1.156108e-01
1.224791e-01
1.286354e-01
1.335801e-01
1.365164e-01
1.367975e-01
1.349994e-01
0.000000e+00
2.611362e-02
5.324883e-02
8.017146e-02
1.063702e-01
1.316244e-01
1.545544e-01
1.748319e-01
1.926915e-01
2.081760e-01
2.213406e-01
2.324556e-01
2.415543e-01
2.483360e-01
2.524678e-01
2.538411e-01
2.534097e-01
0.000000e+00
4.113142e-02
8.474778e-02
1.244953e-01
1.631238e-01
2.009186e-01
2.348356e-01
2.644238e-01
2.905072e-01
3.130257e-01
3.317461e-01
3.469293e-01
3.587352e-01
3.671297e-01
3.722393e-01
3.744641e-01
3.748732e-01
0.000000e+00
6.873036e-02
1.254792e-01
1.770468e-01
2.278204e-01
2.776411e-01
3.221979e-01
3.610390e-01
3.954942e-01
4.252034e-01
4.497620e-01
4.693203e-01
4.838902e-01
4.933730e-01
4.981018e-01
4.993191e-01
4.993074e-01
0.000000e+00
-4.113858e-02
-8.029968e-02
-1.313534e-01
-1.944577e-01
-2.694701e-01
-3.554312e-01
-4.513754e-01
-5.561900e-01
-6.686624e-01
-7.878415e-01
-9.130962e-01
-1.044228e+00
-1.182019e+00
-1.330165e+00
-1.500183e+00
-1.745607e+00
0.000000e+00
-2.527679e-02
-6.686819e-02
-1.186661e-01
-1.824213e-01
-2.582443e-01
-3.452566e-01
-4.421905e-01
-5.479427e-01
-6.613929e-01
-7.814741e-01
-9.074686e-01
-1.039147e+00
-1.177362e+00
-1.325465e+00
-1.494466e+00
-1.702075e+00
0.000000e+00
-1.911853e-02
-5.745391e-02
-1.095621e-01
-1.738279e-01
-2.502732e-01
-3.380108e-01
-4.357324e-01
-5.423097e-01
-6.565940e-01
-7.775198e-01
-9.044284e-01
-1.037132e+00
-1.176374e+00
-1.324560e+00
-1.484496e+00
-1.639108e+00
0.000000e+00
-1.678954e-02
-5.284010e-02
-1.041634e-01
-1.686664e-01
-2.455114e-01
-3.337489e-01
-4.321042e-01
-5.393862e-01
-6.543792e-01
-7.760619e-01
-9.038341e-01
-1.037381e+00
-1.176710e+00
-1.321764e+00
-1.468380e+00
-1.603173e+00
0.000000e+00
-1.639538e-02
-5.165497e-02
-1.024766e-01
-1.669158e-01
-2.439910e-01
-3.325649e-01
-4.313399e-01
-5.390676e-01
-6.545526e-01
-7.767421e-01
-9.049801e-01
-1.038611e+00
-1.176629e+00
-1.317067e+00
-1.455142e+00
-1.582131e+00
0.000000e+00
-1.737751e-02
-5.336718e-02
-1.043385e-01
-1.686803e-01
-2.458100e-01
-3.345260e-01
-4.333567e-01
-5.411380e-01
-6.567517e-01
-7.790721e-01
-9.072469e-01
-1.040229e+00
-1.176287e+00
-1.312935e+00
-1.446209e+00
-1.570413e+00
0.000000e+00
-2.005304e-02
-5.832265e-02
-1.100489e-01
-1.741747e-01
-2.511226e-01
-3.396073e-01
-4.380263e-01
-5.453788e-01
-6.606646e-01
-7.826762e-01
-9.103268e-01
-1.042274e+00
-1.176484e+00
-1.310447e+00
-1.441086e+00
-1.565130e+00
0.000000e+00
-2.618933e-02
-6.801993e-02
-1.197397e-01
-1.836236e-01
-2.600292e-01
-3.477091e-01
-4.452230e-01
-5.517043e-01
-6.661780e-01
-7.873934e-01
-9.141480e-01
-1.044930e+00
-1.177644e+00
-1.309819e+00
-1.438936e+00
-1.563842e+00
0.000000e+00
-4.203486e-02
-8.186682e-02
-1.332670e-01
-1.969457e-01
-2.725253e-01
-3.587273e-01
-4.549230e-01
-5.602157e-01
-6.734022e-01
-7.933304e-01
-9.188073e-01
-1.048233e+00
-1.179537e+00
-1.310364e+00
-1.438543e+00
-1.563851e+00


0.000000e+00
-4.892647e-07
-7.848409e-08
1.324686e-06
2.076756e-06
2.261546e-06
2.359789e-06
2.473359e-06
2.585403e-06
2.684744e-06
2.765680e-06
2.827687e-06
2.871257e-06
2.898743e-06
2.916045e-06
2.930202e-06
2.943823e-06
0.000000e+00
-4.351580e-07
7.107356e-08
1.310322e-06
1.995303e-06
1.988474e-06
2.023052e-06
2.104393e-06
2.187336e-06
2.259883e-06
2.319372e-06
2.364695e-06
2.394395e-06
2.410712e-06
2.421500e-06
2.434719e-06
2.449324e-06
0.000000e+00
-2.739700e-08
3.844155e-07
1.075677e-06
1.507464e-06
1.589004e-06
1.670460e-06
1.731193e-06
1.783299e-06
1.828470e-06
1.866204e-06
1.895237e-06
1.914582e-06
1.926851e-06
1.937109e-06
1.948973e-06
1.961628e-06
0.000000e+00
3.056586e-07
5.837058e-07
8.832826e-07
1.034793e-06
1.202586e-06
1.290241e-06
1.336974e-06
1.367693e-06
1.392385e-06
1.412420e-06
1.428182e-06
1.441261e-06
1.452272e-06
1.461618e-06
1.470479e-06
1.479637e-06
0.000000e+00
3.309004e-07
6.354890e-07
7.743393e-07
8.448944e-07
8.916017e-07
9.383875e-07
9.628438e-07
9.742178e-07
9.799316e-07
9.815869e-07
9.826703e-07
9.863864e-07
9.915023e-07
9.961819e-07
1.001004e-06
1.007177e-06
0.000000e+00
2.216879e-07
4.833712e-07
6.198401e-07
6.386638e-07
6.314768e-07
6.260086e-07
6.191001e-07
6.054259e-07
5.879610e-07
5.694719e-07
5.542832e-07
5.456146e-07
5.412786e-07
5.389696e-07
5.392763e-07
5.427187e-07
0.000000e+00
1.150538e-07
2.790715e-07
3.576886e-07
3.617092e-07
3.226203e-07
2.882103e-07
2.569274e-07
2.233821e-07
1.879781e-07
1.548716e-07
1.284254e-07
1.098207e-07
9.685838e-08
8.817401e-08
8.418446e-08
8.466510e-08
0.000000e+00
7.776163e-08
1.536658e-07
1.238464e-07
5.003565e-08
-3.622813e-08
-1.024075e-07
-1.522989e-07
-1.974165e-07
-2.407297e-07
-2.790258e-07
-3.088209e-07
-3.302161e-07
-3.461612e-07
-3.580032e-07
-3.652275e-07
-3.677774e-07
0.000000e+00
1.811514e-07
1.203860e-07
-5.332410e-08
-2.538148e-07
-4.143258e-07
-5.208545e-07
-5.950078e-07
-6.539581e-07
-7.024683e-07
-7.396622e-07
-7.652427e-07
-7.826856e-07
-7.968267e-07
-8.095820e-07
-8.192269e-07
-8.236270e-07
0.000000e+00
-7.662657e-08
3.477748e-07
5.981522e-07
4.722522e-07
5.340580e-07
8.845788e-07
1.284328e-06
1.708607e-06
2.159335e-06
2.627928e-06
3.105741e-06
3.588058e-06
4.078521e-06
4.584624e-06
5.103570e-06
5.622303e-06
0.000000e+00
-8.413152e-08
-1.780712e-07
3.902175e-09
2.646624e-07
5.014896e-07
8.438867e-07
1.231952e-06
1.661276e-06
2.119538e-06
2.596819e-06
3.083290e-06
3.573338e-06
4.067867e-06
4.570940e-06
5.084612e-06
5.600377e-06
0.000000e+00
-1.270250e-07
-4.607351e-07
-3.683375e-07
5.757102e-08
4.549798e-07
7.946218e-07
1.187906e-06
1.624294e-06
2.090469e-06
2.575464e-06
3.068928e-06
3.563220e-06
4.058036e-06
4.556224e-06
5.063143e-06
5.572976e-06
0.000000e+00
-1.579622e-07
-4.816050e-07
-4.559063e-07
-7.172490e-08
3.505447e-07
7.409649e-07
1.156092e-06
1.603832e-06
2.076265e-06
2.566844e-06
3.064491e-06
3.558337e-06
4.049587e-06
4.543591e-06
5.044812e-06
5.546271e-06
0.000000e+00
-1.972768e-07
-4.700623e-07
-4.616680e-07
-1.368514e-07
2.714645e-07
6.962976e-07
1.134956e-06
1.594447e-06
2.071838e-06
2.566463e-06
3.066039e-06
3.556668e-06
4.042927e-06
4.533025e-06
5.029835e-06
5.523662e-06
0.000000e+00
-2.502609e-07
-4.944165e-07
-4.621270e-07
-1.562177e-07
2.468245e-07
6.778253e-07
1.130202e-06
1.597948e-06
2.079285e-06
2.574918e-06
3.072010e-06
3.557719e-06
4.039096e-06
4.525238e-06
5.017869e-06
5.506182e-06
0.000000e+00
-2.967061e-07
-5.137895e-07
-4.552953e-07
-1.545246e-07
2.475694e-07
6.844212e-07
1.141234e-06
1.613410e-06
2.097174e-06
2.590037e-06
3.080758e-06
3.561286e-06
4.038704e-06
4.520885e-06
5.009260e-06
5.492858e-06
0.000000e+00
-3.071677e-07
-5.044571e-07
-4.202756e-07
-1.333280e-07
2.683313e-07
7.032720e-07
1.159778e-06
1.633233e-06
2.117553e-06
2.606322e-06
3.090765e-06
3.567337e-06
4.041872e-06
4.520346e-06
5.004408e-06
5.483911e-06
0.000000e+00
-3.220160e-07
-4.613069e-07
-3.622184e-07
-7.621815e-08
3.078685e-07
7.313300e-07
1.181565e-06
1.652833e-06
2.135265e-06
2.620113e-06
3.100241e-06
3.574219e-06
4.046871e-06
4.522625e-06
5.003095e-06
5.480164e-06


1.997727e-01
1.880668e-01
1.787033e-01
1.811327e-01
1.861124e-01
1.865622e-01
1.861740e-01
1.894021e-01
1.912340e-01
1.911638e-01
1.928824e-01
1.974815e-01
2.035141e-01
2.056564e-01
2.032549e-01
2.043236e-01
1.977637e-01
1.919223e-01
1.860206e-01
1.862703e-01
1.905139e-01
1.918424e-01
1.929998e-01
1.954970e-01
1.960459e-01
1.951969e-01
1.963004e-01
1.994181e-01
2.039585e-01
2.062792e-01
2.059021e-01
2.051453e-01
2.020562e-01
1.984271e-01
1.939138e-01
1.935793e-01
1.966917e-01
2.001399e-01
2.024708e-01
2.037048e-01
2.027686e-01
2.011916e-01
2.014063e-01
2.023362e-01
2.040031e-01
2.060059e-01
2.061155e-01
2.063784e-01
2.092302e-01
2.054028e-01
2.009798e-01
2.005633e-01
2.041004e-01
2.077533e-01
2.097728e-01
2.096935e-01
2.071619e-01
2.047927e-01
2.044488e-01
2.045258e-01
2.035890e-01
2.034998e-01
2.042932e-01
2.048985e-01
2.122050e-01
2.092869e-01
2.059775e-01
2.079451e-01
2.118542e-01
2.139492e-01
2.143026e-01
2.120806e-01
2.083887e-01
2.045903e-01
2.041565e-01
2.044638e-01
2.028172e-01
2.020852e-01
2.041412e-01
2.058374e-01
2.113740e-01
2.084137e-01
2.059570e-01
2.121678e-01
2.198038e-01
2.195161e-01
2.155124e-01
2.121762e-01
2.070553e-01
2.021337e-01
2.008712e-01
2.017650e-01
2.016501e-01
2.035120e-01
2.076904e-01
2.101609e-01
2.079454e-01
2.043922e-01
2.026431e-01
2.133854e-01
2.249064e-01
2.214693e-01
2.141608e-01
2.101664e-01
2.061380e-01
2.002683e-01
1.980229e-01
1.994605e-01
2.019487e-01
2.068679e-01
2.122570e-01
2.145020e-01
2.029872e-01
2.009871e-01
1.997325e-01
2.130332e-01
2.262095e-01
2.207345e-01
2.112882e-01
2.091331e-01
2.058853e-01
2.002833e-01
1.977952e-01
1.996395e-01
2.037838e-01
2.097050e-01
2.146698e-01
2.167764e-01


9.892043e-01
9.915656e-01
9.933951e-01
9.941175e-01
9.946996e-01
9.955383e-01
9.963592e-01
9.969929e-01
9.975932e-01
9.981330e-01
9.985307e-01
9.987901e-01
9.989320e-01
9.989889e-01
9.990668e-01
9.958564e-01
9.960828e-01
9.957335e-01
9.963744e-01
9.968234e-01
9.971432e-01
9.975413e-01
9.979308e-01
9.982667e-01
9.986082e-01
9.989367e-01
9.992165e-01
9.994638e-01
9.996863e-01
9.998419e-01
9.994280e-01
9.939074e-01
9.987448e-01
9.984205e-01
9.983887e-01
9.985094e-01
9.986092e-01
9.987192e-01
9.988487e-01
9.989903e-01
9.991514e-01
9.993146e-01
9.994565e-01
9.995633e-01
9.995800e-01
9.993557e-01
9.985593e-01
9.971494e-01
9.997508e-01
9.994706e-01
9.993234e-01
9.992731e-01
9.992406e-01
9.992239e-01
9.992355e-01
9.992644e-01
9.993054e-01
9.993449e-01
9.993558e-01
9.993178e-01
9.992022e-01
9.989842e-01
9.987923e-01
9.987582e-01
9.996443e-01
9.993432e-01
9.991878e-01
9.991368e-01
9.991179e-01
9.991270e-01
9.991577e-01
9.991886e-01
9.992095e-01
9.992120e-01
9.991761e-01
9.991123e-01
9.990582e-01
9.990643e-01
9.992177e-01
9.995091e-01
9.984862e-01
9.981081e-01
9.980291e-01
9.980841e-01
9.981734e-01
9.983869e-01
9.986172e-01
9.987986e-01
9.989410e-01
9.990419e-01
9.990858e-01
9.991108e-01
9.991832e-01
9.993367e-01
9.995786e-01
9.998453e-01
9.958817e-01
9.953253e-01
9.958483e-01
9.960663e-01
9.962622e-01
9.969126e-01
9.975648e-01
9.980421e-01
9.984516e-01
9.988034e-01
9.990536e-01
9.992443e-01
9.994329e-01
9.996355e-01
9.998367e-01
9.999720e-01
9.893245e-01
9.911723e-01
9.926996e-01
9.929953e-01
9.932852e-01
9.945993e-01
9.958793e-01
9.967663e-01
9.975799e-01
9.983190e-01
9.988922e-01
9.993315e-01
9.996611e-01
9.998715e-01
9.999735e-01
9.999994e-01
1 2 19 18
2 3 20 19
3 4 21 20
4 5 22 21
5 6 23 22
6 7 24 23
7 8 25 24
8 9 26 25
9 10 27 26
10 11 28 27
11 12 29 28
12 13 30 29
13 14 31 30
14 15 32 31
15 16 33 32
16 17 34 33
18 19 36 35
19 20 37 36
20 21 38 37
21 22 39 38
22 23 40 39
23 24 41 40
24 25 42 41
25 26 43 42
26 27 44 43
27 28 45 44
28 29 46 45
29 30 47 46
30 31 48 47
31 32 49 48
32 33 50 49
33 34 51 50
35 36 53 52
36 37 54 53
37 38 55 54
38 39 56 55
39 40 57 56
40 41 58 57
41 42 59 58
42 43 60 59
43 44 61 60
44 45 62 61
45 46 63 62
46 47 64 63
47 48 65 64
48 49 66 65
49 50 67 66
50 51 68 67
52 53 70 69
53 54 71 70
54 55 72 71
55 56 73 72
56 57 74 73
57 58 75 74
58 59 76 75
59 60 77 76
60 61 78 77
61 62 79 78
62 63 80 79
63 64 81 80
64 65 82 81
65 66 83 82
66 67 84 83
67 68 85 84
69 70 87 86
70 71 88 87
71 72 89 88
72 73 90 89
73 74 91 90
74 75 92 91
75 76 93 92
76 77 94 93
77 78 95 94
78 79 96 95
79 80 97 96
80 81 98 97
81 82 99 98
82 83 100 99
83 84 101 100
84 85 102 101
86 87 104 103
87 88 105 104
88 89 106 105
89 90 107 106
90 91 108 107
91 92 109 108
92 93 110 109
93 94 111 110
94 95 112 111
95 96 113 112
96 97 114 113
97 98 115 114
98 99 116 115
99 100 117 116
100 101 118 117
101 102 119 118
103 104 121 120
104 105 122 121
105 106 123 122
106 107 124 123
107 108 125 124
108 109 126 125
109 110 127 126
110 111 128 127
111 112 129 128
112 113 130 129
113 114 131 130
114 115 132 131
115 116 133 132
116 117 134 133
117 118 135 134
118 119 136 135
120 121 138 137
121 122 139 138
122 123 140 139
123 124 141 140
124 125 142 141
125 126 143 142
126 127 144 143
127 128 145 144
128 129 146 145
129 130 147 146
130 131 148 147
131 132 149 148
132 133 150 149
133 134 151 150
134 135 152 151
135 136 153 152
