TITLE = "Solution"
VARIABLES = x, y, u, v, psiu, psiv, t, stress
ZONE T="structure" N=153 E=128 F=FEBLOCK ET=QUADRILATERAL VARLOCATION=([7,8]=cellcentered)
0.000000e+00
1.250000e+01
2.500000e+01
3.750000e+01
5.000000e+01
6.250000e+01
7.500000e+01
8.750000e+01
1.000000e+02
1.125000e+02
1.250000e+02
1.375000e+02
1.500000e+02
1.625000e+02
1.750000e+02
1.875000e+02
2.000000e+02
0.000000e+00
1.250000e+01
2.500000e+01
3.750000e+01
5.000000e+01
6.250000e+01
7.500000e+01
8.750000e+01
1.000000e+02
1.125000e+02
1.250000e+02
1.375000e+02
1.500000e+02
1.625000e+02
1.750000e+02
1.875000e+02
2.000000e+02
0.000000e+00
1.250000e+01
2.500000e+01
3.750000e+01
5.000000e+01
6.250000e+01
7.500000e+01
8.750000e+01
1.000000e+02
1.125000e+02
1.250000e+02
1.375000e+02
1.500000e+02
1.625000e+02
1.750000e+02
1.875000e+02
2.000000e+02
0.000000e+00
1.250000e+01
2.500000e+01
3.750000e+01
5.000000e+01
6.250000e+01
7.500000e+01
8.750000e+01
1.000000e+02
1.125000e+02
1.250000e+02
1.375000e+02
1.500000e+02
1.625000e+02
1.750000e+02
1.875000e+02
2.000000e+02
0.000000e+00
1.250000e+01
2.500000e+01
3.750000e+01
5.000000e+01
6.250000e+01
7.500000e+01
8.750000e+01
1.000000e+02
1.125000e+02
1.250000e+02
1.375000e+02
1.500000e+02
1.625000e+02
1.750000e+02
1.875000e+02
2.000000e+02
0.000000e+00
1.250000e+01
2.500000e+01
3.750000e+01
5.000000e+01
6.250000e+01
7.500000e+01
8.750000e+01
1.000000e+02
1.125000e+02
1.250000e+02
1.375000e+02
1.500000e+02
1.625000e+02
1.750000e+02
1.875000e+02
2.000000e+02
0.000000e+00
1.250000e+01
2.500000e+01
3.750000e+01
5.000000e+01
6.250000e+01
7.500000e+01
8.750000e+01
1.000000e+02
1.125000e+02
1.250000e+02
1.375000e+02
1.500000e+02
1.625000e+02
1.750000e+02
1.875000e+02
2.000000e+02
0.000000e+00
1.250000e+01
2.500000e+01
3.750000e+01
5.000000e+01
6.250000e+01
7.500000e+01
8.750000e+01
1.000000e+02
1.125000e+02
1.250000e+02
1.375000e+02
1.500000e+02
1.625000e+02
1.750000e+02
1.875000e+02
2.000000e+02
0.000000e+00
1.250000e+01
2.500000e+01
3.750000e+01
5.000000e+01
6.250000e+01
7.500000e+01
8.750000e+01
1.000000e+02
1.125000e+02
1.250000e+02
1.375000e+02
1.500000e+02
1.625000e+02
1.750000e+02
1.875000e+02
2.000000e+02
0.000000e+00
0.000000e+00
0.000000e+00
0.000000e+00
0.000000e+00
0.000000e+00
0.000000e+00
0.000000e+00
0.000000e+00
0.000000e+00
0.000000e+00
0.000000e+00
0.000000e+00
0.000000e+00
0.000000e+00
0.000000e+00
0.000000e+00
1.250000e+01
1.250000e+01
1.250000e+01
1.250000e+01
1.250000e+01
1.250000e+01
1.250000e+01
1.250000e+01
1.250000e+01
1.250000e+01
1.250000e+01
1.250000e+01
1.250000e+01
1.250000e+01
1.250000e+01
1.250000e+01
1.250000e+01
2.500000e+01
2.500000e+01
2.500000e+01
2.500000e+01
2.500000e+01
2.500000e+01
2.500000e+01
2.500000e+01
2.500000e+01
2.500000e+01
2.500000e+01
2.500000e+01
2.500000e+01
2.500000e+01
2.500000e+01
2.500000e+01
2.500000e+01
3.750000e+01
3.750000e+01
3.750000e+01
3.750000e+01
3.750000e+01
3.750000e+01
3.750000e+01
3.750000e+01
3.750000e+01
3.750000e+01
3.750000e+01
3.750000e+01
3.750000e+01
3.750000e+01
3.750000e+01
3.750000e+01
3.750000e+01
5.000000e+01
5.000000e+01
5.000000e+01
5.000000e+01
5.000000e+01
5.000000e+01
5.000000e+01
5.000000e+01
5.000000e+01
5.000000e+01
5.000000e+01
5.000000e+01
5.000000e+01
5.000000e+01
5.000000e+01
5.000000e+01
5.000000e+01
6.250000e+01
6.250000e+01
6.250000e+01
6.250000e+01
6.250000e+01
6.250000e+01
6.250000e+01
6.250000e+01
6.250000e+01
6.250000e+01
6.250000e+01
6.250000e+01
6.250000e+01
6.250000e+01
6.250000e+01
6.250000e+01
6.250000e+01
7.500000e+01
7.500000e+01
7.500000e+01
7.500000e+01
7.500000e+01
7.500000e+01
7.500000e+01
7.500000e+01
7.500000e+01
7.500000e+01
7.500000e+01
7.500000e+01
7.500000e+01
7.500000e+01
7.500000e+01
7.500000e+01
7.500000e+01
8.750000e+01
8.750000e+01
8.750000e+01
8.750000e+01
8.750000e+01
8.750000e+01
8.750000e+01
8.750000e+01
8.750000e+01
8.750000e+01
8.750000e+01
8.750000e+01
8.750000e+01
8.750000e+01
8.750000e+01
8.750000e+01
8.750000e+01
1.000000e+02
1.000000e+02
1.000000e+02
1.000000e+02
1.000000e+02
1.000000e+02
1.000000e+02
1.000000e+02
1.000000e+02
1.000000e+02
1.000000e+02
1.000000e+02
1.000000e+02
1.000000e+02
1.000000e+02
1.000000e+02
1.000000e+02
0.000000e+00
-6.906251e-02
-1.246771e-01
-1.738517e-01
-2.201980e-01
-2.640209e-01
-3.043904e-01
-3.409786e-01
-3.740123e-01
-4.032736e-01
-4.290715e-01
-4.523105e-01
-4.741112e-01
-4.960573e-01
-5.204697e-01
-5.500922e-01
-5.724210e-01
0.000000e+00
-4.123201e-02
-8.368685e-02
-1.213134e-01
-1.560514e-01
-1.886961e-01
-2.187553e-01
-2.461138e-01
-2.708577e-01
-2.927541e-01
-3.118849e-01
-3.286742e-01
-3.433858e-01
-3.558432e-01
-3.646884e-01
-3.666088e-01
-3.735004e-01
0.000000e+00
-2.493924e-02
-5.062006e-02
-7.551270e-02
-9.859819e-02
-1.201190e-01
-1.399478e-01
-1.580256e-01
-1.742417e-01
-1.883947e-01
-2.004236e-01
-2.103096e-01
-2.177118e-01
-2.218965e-01
-2.219923e-01
-2.202900e-01
-2.273532e-01
0.000000e+00
-1.135411e-02
-2.317948e-02
-3.489444e-02
-4.607246e-02
-5.647162e-02
-6.605691e-02
-7.472223e-02
-8.233996e-02
-8.874398e-02
-9.379037e-02
-9.727647e-02
-9.887857e-02
-9.841204e-02
-9.671342e-02
-9.716243e-02
-1.023957e-01
0.000000e+00
8.617495e-04
1.814859e-03
2.744149e-03
3.615044e-03
4.443560e-03
5.277012e-03
6.122109e-03
7.019808e-03
8.100117e-03
9.549837e-03
1.157681e-02
1.424630e-02
1.719081e-02
1.921488e-02
1.870808e-02
1.527101e-02
0.000000e+00
1.274165e-02
2.616663e-02
3.959516e-02
5.269813e-02
6.514610e-02
7.664570e-02
8.704851e-02
9.632588e-02
1.045424e-01
1.119151e-01
1.186424e-01
1.246700e-01
1.295177e-01
1.323950e-01
1.326656e-01
1.309078e-01
0.000000e+00
2.539310e-02
5.194856e-02
7.828506e-02
1.037128e-01
1.281767e-01
1.505803e-01
1.705129e-01
1.880315e-01
2.031691e-01
2.160528e-01
2.269546e-01
2.358857e-01
2.425460e-01
2.465926e-01
2.479303e-01
2.475116e-01
0.000000e+00
4.012357e-02
8.294179e-02
1.220196e-01
1.596004e-01
1.962189e-01
2.295071e-01
2.587737e-01
2.844532e-01
3.064747e-01
3.247696e-01
3.396622e-01
3.512796e-01
3.595423e-01
3.645507e-01
3.667191e-01
3.671180e-01
0.000000e+00
6.723646e-02
1.230173e-01
1.737981e-01
2.232838e-01
2.716584e-01
3.155125e-01
3.539840e-01
3.879214e-01
4.169795e-01
4.409889e-01
4.601802e-01
4.745270e-01
4.838500e-01
4.884633e-01
4.896361e-01
4.896214e-01
0.000000e+00
-4.085072e-02
-7.951093e-02
-1.298116e-01
-1.919226e-01
-2.657353e-01
-3.503651e-01
-4.448449e-01
-5.480223e-01
-6.587128e-01
-7.760149e-01
-8.993064e-01
-1.028367e+00
-1.163933e+00
-1.309597e+00
-1.476589e+00
-1.717315e+00
0.000000e+00
-2.506864e-02
-6.608932e-02
-1.171959e-01
-1.800542e-01
-2.546729e-01
-3.402739e-01
-4.357284e-01
-5.399026e-01
-6.516034e-01
-7.697874e-01
-8.937898e-01
-1.023390e+00
-1.159388e+00
-1.305014e+00
-1.471004e+00
-1.674716e+00
0.000000e+00
-1.889839e-02
-5.669337e-02
-1.081306e-01
-1.715221e-01
-2.467713e-01
-3.330853e-01
-4.293209e-01
-5.343281e-01
-6.468750e-01
-7.659053e-01
-8.908050e-01
-1.021409e+00
-1.158423e+00
-1.304142e+00
-1.461286e+00
-1.613243e+00
0.000000e+00
-1.651016e-02
-5.206559e-02
-1.027291e-01
-1.663439e-01
-2.420018e-01
-3.288370e-01
-4.257020e-01
-5.313936e-01
-6.446453e-01
-7.644476e-01
-8.902105e-01
-1.021638e+00
-1.158752e+00
-1.301437e+00
-1.445597e+00
-1.578216e+00
0.000000e+00
-1.606380e-02
-5.082799e-02
-1.010020e-01
-1.645408e-01
-2.404164e-01
-3.275941e-01
-4.248814e-01
-5.310137e-01
-6.447534e-01
-7.650755e-01
-8.913136e-01
-1.022828e+00
-1.158673e+00
-1.296869e+00
-1.432686e+00
-1.557660e+00
0.000000e+00
-1.700252e-02
-5.245662e-02
-1.027884e-01
-1.662219e-01
-2.421140e-01
-3.294172e-01
-4.267828e-01
-5.329955e-01
-6.468716e-01
-7.673251e-01
-8.935088e-01
-1.024401e+00
-1.158343e+00
-1.292839e+00
-1.423957e+00
-1.546204e+00
0.000000e+00
-1.961333e-02
-5.728890e-02
-1.083524e-01
-1.715684e-01
-2.472460e-01
-3.343149e-01
-4.313098e-01
-5.371313e-01
-6.506957e-01
-7.708354e-01
-8.965056e-01
-1.026403e+00
-1.158547e+00
-1.290409e+00
-1.418953e+00
-1.541057e+00
0.000000e+00
-2.562934e-02
-6.680240e-02
-1.178160e-01
-1.807568e-01
-2.559139e-01
-3.422417e-01
-4.383714e-01
-5.433307e-01
-6.560918e-01
-7.754459e-01
-9.002445e-01
-1.029017e+00
-1.159693e+00
-1.289796e+00
-1.416860e+00
-1.539815e+00
0.000000e+00
-4.116973e-02
-8.042911e-02
-1.310609e-01
-1.936929e-01
-2.681111e-01
-3.531148e-01
-4.479470e-01
-5.516800e-01
-6.631529e-01
-7.812574e-01
-9.048212e-01
-1.032270e+00
-1.161552e+00
-1.290326e+00
-1.416476e+00
-1.539826e+00


0.000000e+00
-4.443212e-07
3.005201e-08
1.481479e-06
2.216625e-06
2.382216e-06
2.474490e-06
2.587941e-06
2.701340e-06
2.802065e-06
2.884512e-06
2.948290e-06
2.993487e-06
3.022190e-06
3.040525e-06
3.055979e-06
3.071123e-06
0.000000e+00
-3.968828e-07
1.713687e-07
1.440541e-06
2.108444e-06
2.084414e-06
2.118109e-06
2.200498e-06
2.284589e-06
2.358266e-06
2.419029e-06
2.465722e-06
2.496530e-06
2.513747e-06
2.525780e-06
2.540807e-06
2.557186e-06
0.000000e+00
3.360764e-09
4.473765e-07
1.152418e-06
1.581812e-06
1.661277e-06
1.745293e-06
1.807853e-06
1.861690e-06
1.908479e-06
1.947681e-06
1.977933e-06
1.998286e-06
2.011658e-06
2.023332e-06
2.036732e-06
2.050670e-06
0.000000e+00
3.172044e-07
6.053671e-07
9.163622e-07
1.078995e-06
1.255177e-06
1.347286e-06
1.397289e-06
1.430589e-06
1.457237e-06
1.478530e-06
1.494977e-06
1.508676e-06
1.520499e-06
1.530675e-06
1.540224e-06
1.549955e-06
0.000000e+00
3.311712e-07
6.360120e-07
7.863823e-07
8.725577e-07
9.302184e-07
9.833163e-07
1.011550e-06
1.025511e-06
1.032799e-06
1.034783e-06
1.035337e-06
1.038512e-06
1.043382e-06
1.047909e-06
1.052722e-06
1.059163e-06
0.000000e+00
2.209319e-07
4.810989e-07
6.274334e-07
6.602369e-07
6.622518e-07
6.619006e-07
6.577240e-07
6.455026e-07
6.285379e-07
6.092897e-07
5.924347e-07
5.821248e-07
5.765670e-07
5.734188e-07
5.734082e-07
5.770560e-07
0.000000e+00
1.156612e-07
2.814625e-07
3.662991e-07
3.769380e-07
3.432204e-07
3.122330e-07
2.827165e-07
2.498172e-07
2.142180e-07
1.798979e-07
1.514950e-07
1.308633e-07
1.161571e-07
1.062222e-07
1.016856e-07
1.022204e-07
0.000000e+00
7.649645e-08
1.536013e-07
1.251130e-07
5.205988e-08
-3.203576e-08
-9.616501e-08
-1.445093e-07
-1.887630e-07
-2.320004e-07
-2.709944e-07
-3.019672e-07
-3.247574e-07
-3.422446e-07
-3.554565e-07
-3.635134e-07
-3.663289e-07
0.000000e+00
1.666494e-07
1.074007e-07
-6.813342e-08
-2.703619e-07
-4.309040e-07
-5.369074e-07
-6.097047e-07
-6.672300e-07
-7.149793e-07
-7.519493e-07
-7.772527e-07
-7.944243e-07
-8.089978e-07
-8.229574e-07
-8.338216e-07
-8.387921e-07
0.000000e+00
-2.412719e-08
4.283024e-07
6.806651e-07
5.578551e-07
6.416199e-07
1.013405e-06
1.430112e-06
1.871765e-06
2.340794e-06
2.828620e-06
3.326396e-06
3.829189e-06
4.341013e-06
4.869652e-06
5.411538e-06
5.952503e-06
0.000000e+00
-6.031637e-08
-1.270202e-07
7.982057e-08
3.601888e-07
6.133449e-07
9.722746e-07
1.376676e-06
1.823614e-06
2.300284e-06
2.796781e-06
3.303259e-06
3.813904e-06
4.329653e-06
4.854530e-06
5.390397e-06
5.928010e-06
0.000000e+00
-1.187993e-07
-4.224865e-07
-2.945938e-07
1.562970e-07
5.676001e-07
9.207599e-07
1.330928e-06
1.785298e-06
2.270035e-06
2.774477e-06
3.288290e-06
3.803264e-06
4.318914e-06
4.838182e-06
5.366703e-06
5.897866e-06
0.000000e+00
-1.506183e-07
-4.434185e-07
-3.842650e-07
2.166339e-08
4.586453e-07
8.640325e-07
1.296851e-06
1.763137e-06
2.254249e-06
2.764700e-06
3.283387e-06
3.798067e-06
4.309679e-06
4.824309e-06
5.346919e-06
5.869394e-06
0.000000e+00
-1.855129e-07
-4.279459e-07
-3.937962e-07
-5.188439e-08
3.730928e-07
8.155740e-07
1.273351e-06
1.752090e-06
2.248375e-06
2.763430e-06
3.284797e-06
3.796403e-06
4.302563e-06
4.812873e-06
5.330940e-06
5.845746e-06
0.000000e+00
-2.316381e-07
-4.497916e-07
-3.998803e-07
-7.938473e-08
3.423812e-07
7.935927e-07
1.266653e-06
1.754437e-06
2.255259e-06
2.771885e-06
3.291065e-06
3.797592e-06
4.298466e-06
4.804420e-06
5.318012e-06
5.827198e-06
0.000000e+00
-2.751490e-07
-4.723983e-07
-4.000248e-07
-8.383358e-08
3.387654e-07
7.975306e-07
1.276252e-06
1.769373e-06
2.273556e-06
2.787831e-06
3.300370e-06
3.801293e-06
4.297954e-06
4.799671e-06
5.308580e-06
5.812503e-06
0.000000e+00
-2.893155e-07
-4.689617e-07
-3.705556e-07
-6.579894e-08
3.565184e-07
8.141192e-07
1.293339e-06
1.788674e-06
2.294390e-06
2.804910e-06
3.310880e-06
3.807613e-06
4.301357e-06
4.799190e-06
5.303283e-06
5.802385e-06
0.000000e+00
-3.063869e-07
-4.298628e-07
-3.139993e-07
-1.010232e-08
3.943717e-07
8.405025e-07
1.313731e-06
1.807471e-06
2.311967e-06
2.818857e-06
3.320517e-06
3.814769e-06
4.306803e-06
4.801815e-06
5.301896e-06
5.798145e-06


2.008679e-01
1.900647e-01
1.803712e-01
1.807804e-01
1.844430e-01
1.856267e-01
1.861961e-01
1.879921e-01
1.875078e-01
1.866228e-01
1.887765e-01
1.934820e-01
1.989444e-01
2.006063e-01
1.986332e-01
1.998158e-01
1.973637e-01
1.916639e-01
1.853194e-01
1.845423e-01
1.881224e-01
1.899320e-01
1.917027e-01
1.932576e-01
1.923055e-01
1.908917e-01
1.921706e-01
1.954420e-01
1.995127e-01
2.011742e-01
2.007147e-01
2.001265e-01
1.988902e-01
1.953955e-01
1.909586e-01
1.903704e-01
1.931051e-01
1.964965e-01
1.989912e-01
1.999372e-01
1.986129e-01
1.969782e-01
1.972895e-01
1.983366e-01
1.998520e-01
2.011003e-01
2.007796e-01
2.009476e-01
2.038474e-01
2.007209e-01
1.967134e-01
1.963006e-01
1.992879e-01
2.026368e-01
2.046917e-01
2.047000e-01
2.024572e-01
2.005809e-01
2.002078e-01
2.002020e-01
1.995019e-01
1.991681e-01
1.994465e-01
1.998578e-01
2.065946e-01
2.043527e-01
2.012694e-01
2.024575e-01
2.059207e-01
2.081566e-01
2.087836e-01
2.067962e-01
2.034897e-01
2.003618e-01
1.998598e-01
1.999244e-01
1.988221e-01
1.982708e-01
1.996238e-01
2.009292e-01
2.058829e-01
2.039673e-01
2.012252e-01
2.056070e-01
2.126058e-01
2.136492e-01
2.108061e-01
2.074718e-01
2.022999e-01
1.980291e-01
1.970159e-01
1.979264e-01
1.981822e-01
1.997220e-01
2.027198e-01
2.045592e-01
2.020223e-01
1.996239e-01
1.977376e-01
2.060253e-01
2.168687e-01
2.161518e-01
2.108661e-01
2.063470e-01
2.015113e-01
1.959178e-01
1.944881e-01
1.963200e-01
1.987258e-01
2.024712e-01
2.062940e-01
2.078821e-01
1.966042e-01
1.955757e-01
1.946787e-01
2.054400e-01
2.179088e-01
2.160168e-01
2.088013e-01
2.056968e-01
2.010858e-01
1.955210e-01
1.939221e-01
1.964335e-01
2.001635e-01
2.045842e-01
2.080566e-01
2.095560e-01


9.893242e-01
9.915845e-01
9.934128e-01
9.942412e-01
9.948756e-01
9.956452e-01
9.964029e-01
9.970605e-01
9.976931e-01
9.982206e-01
9.985921e-01
9.988378e-01
9.989788e-01
9.990381e-01
9.991091e-01
9.960363e-01
9.960807e-01
9.957279e-01
9.963854e-01
9.968774e-01
9.972207e-01
9.975970e-01
9.979646e-01
9.983116e-01
9.986654e-01
9.989856e-01
9.992500e-01
9.994848e-01
9.996990e-01
9.998491e-01
9.994570e-01
9.941971e-01
9.987265e-01
9.984166e-01
9.983972e-01
9.985300e-01
9.986414e-01
9.987539e-01
9.988801e-01
9.990233e-01
9.991855e-01
9.993441e-01
9.994797e-01
9.995811e-01
9.995968e-01
9.993853e-01
9.986331e-01
9.972943e-01
9.997487e-01
9.994777e-01
9.993355e-01
9.992924e-01
9.992704e-01
9.992583e-01
9.992664e-01
9.992926e-01
9.993334e-01
9.993718e-01
9.993828e-01
9.993462e-01
9.992334e-01
9.990271e-01
9.988499e-01
9.988166e-01
9.996734e-01
9.993805e-01
9.992275e-01
9.991823e-01
9.991679e-01
9.991730e-01
9.991946e-01
9.992204e-01
9.992410e-01
9.992430e-01
9.992099e-01
9.991492e-01
9.990941e-01
9.991011e-01
9.992527e-01
9.995310e-01
9.985753e-01
9.981947e-01
9.981169e-01
9.981883e-01
9.982769e-01
9.984596e-01
9.986664e-01
9.988424e-01
9.989833e-01
9.990783e-01
9.991196e-01
9.991437e-01
9.992120e-01
9.993623e-01
9.995980e-01
9.998528e-01
9.960885e-01
9.955005e-01
9.959992e-01
9.962754e-01
9.964808e-01
9.970306e-01
9.976270e-01
9.981061e-01
9.985171e-01
9.988533e-01
9.990879e-01
9.992694e-01
9.994517e-01
9.996501e-01
9.998451e-01
9.999736e-01
9.898049e-01
9.914789e-01
9.929320e-01
9.933549e-01
9.936768e-01
9.947804e-01
9.959629e-01
9.968642e-01
9.976848e-01
9.983935e-01
9.989336e-01
9.993524e-01
9.996722e-01
9.998771e-01
9.999750e-01
9.999994e-01
1 2 19 18
2 3 20 19
3 4 21 20
4 5 22 21
5 6 23 22
6 7 24 23
7 8 25 24
8 9 26 25
9 10 27 26
10 11 28 27
11 12 29 28
12 13 30 29
13 14 31 30
14 15 32 31
15 16 33 32
16 17 34 33
18 19 36 35
19 20 37 36
20 21 38 37
21 22 39 38
22 23 40 39
23 24 41 40
24 25 42 41
25 26 43 42
26 27 44 43
27 28 45 44
28 29 46 45
29 30 47 46
30 31 48 47
31 32 49 48
32 33 50 49
33 34 51 50
35 36 53 52
36 37 54 53
37 38 55 54
38 39 56 55
39 40 57 56
40 41 58 57
41 42 59 58
42 43 60 59
43 44 61 60
44 45 62 61
45 46 63 62
46 47 64 63
47 48 65 64
48 49 66 65
49 50 67 66
50 51 68 67
52 53 70 69
53 54 71 70
54 55 72 71
55 56 73 72
56 57 74 73
57 58 75 74
58 59 76 75
59 60 77 76
60 61 78 77
61 62 79 78
62 63 80 79
63 64 81 80
64 65 82 81
65 66 83 82
66 67 84 83
67 68 85 84
69 70 87 86
70 71 88 87
71 72 89 88
72 73 90 89
73 74 91 90
74 75 92 91
75 76 93 92
76 77 94 93
77 78 95 94
78 79 96 95
79 80 97 96
80 81 98 97
81 82 99 98
82 83 100 99
83 84 101 100
84 85 102 101
86 87 104 103
87 88 105 104
88 89 106 105
89 90 107 106
90 91 108 107
91 92 109 108
92 93 110 109
93 94 111 110
94 95 112 111
95 96 113 112
96 97 114 113
97 98 115 114
98 99 116 115
99 100 117 116
100 101 118 117
101 102 119 118
103 104 121 120
104 105 122 121
105 106 123 122
106 107 124 123
107 108 125 124
108 109 126 125
109 110 127 126
110 111 128 127
111 112 129 128
112 113 130 129
113 114 131 130
114 115 132 131
115 116 133 132
116 117 134 133
117 118 135 134
118 119 136 135
120 121 138 137
121 122 139 138
122 123 140 139
123 124 141 140
124 125 142 141
125 126 143 142
126 127 144 143
127 128 145 144
128 129 146 145
129 130 147 146
130 131 148 147
131 132 149 148
132 133 150 149
133 134 151 150
134 135 152 151
135 136 153 152
