TITLE = "Solution"
VARIABLES = x, y, u, v, psiu, psiv, t, stress
ZONE T="structure" N=153 E=128 F=FEBLOCK ET=QUADRILATERAL VARLOCATION=([7,8]=cellcentered)
0.000000e+00
1.250000e+01
2.500000e+01
3.750000e+01
5.000000e+01
6.250000e+01
7.500000e+01
8.750000e+01
1.000000e+02
1.125000e+02
1.250000e+02
1.375000e+02
1.500000e+02
1.625000e+02
1.750000e+02
1.875000e+02
2.000000e+02
0.000000e+00
1.250000e+01
2.500000e+01
3.750000e+01
5.000000e+01
6.250000e+01
7.500000e+01
8.750000e+01
1.000000e+02
1.125000e+02
1.250000e+02
1.375000e+02
1.500000e+02
1.625000e+02
1.750000e+02
1.875000e+02
2.000000e+02
0.000000e+00
1.250000e+01
2.500000e+01
3.750000e+01
5.000000e+01
6.250000e+01
7.500000e+01
8.750000e+01
1.000000e+02
1.125000e+02
1.250000e+02
1.375000e+02
1.500000e+02
1.625000e+02
1.750000e+02
1.875000e+02
2.000000e+02
0.000000e+00
1.250000e+01
2.500000e+01
3.750000e+01
5.000000e+01
6.250000e+01
7.500000e+01
8.750000e+01
1.000000e+02
1.125000e+02
1.250000e+02
1.375000e+02
1.500000e+02
1.625000e+02
1.750000e+02
1.875000e+02
2.000000e+02
0.000000e+00
1.250000e+01
2.500000e+01
3.750000e+01
5.000000e+01
6.250000e+01
7.500000e+01
8.750000e+01
1.000000e+02
1.125000e+02
1.250000e+02
1.375000e+02
1.500000e+02
1.625000e+02
1.750000e+02
1.875000e+02
2.000000e+02
0.000000e+00
1.250000e+01
2.500000e+01
3.750000e+01
5.000000e+01
6.250000e+01
7.500000e+01
8.750000e+01
1.000000e+02
1.125000e+02
1.250000e+02
1.375000e+02
1.500000e+02
1.625000e+02
1.750000e+02
1.875000e+02
2.000000e+02
0.000000e+00
1.250000e+01
2.500000e+01
3.750000e+01
5.000000e+01
6.250000e+01
7.500000e+01
8.750000e+01
1.000000e+02
1.125000e+02
1.250000e+02
1.375000e+02
1.500000e+02
1.625000e+02
1.750000e+02
1.875000e+02
2.000000e+02
0.000000e+00
1.250000e+01
2.500000e+01
3.750000e+01
5.000000e+01
6.250000e+01
7.500000e+01
8.750000e+01
1.000000e+02
1.125000e+02
1.250000e+02
1.375000e+02
1.500000e+02
1.625000e+02
1.750000e+02
1.875000e+02
2.000000e+02
0.000000e+00
1.250000e+01
2.500000e+01
3.750000e+01
5.000000e+01
6.250000e+01
7.500000e+01
8.750000e+01
1.000000e+02
1.125000e+02
1.250000e+02
1.375000e+02
1.500000e+02
1.625000e+02
1.750000e+02
1.875000e+02
2.000000e+02
0.000000e+00
0.000000e+00
0.000000e+00
0.000000e+00
0.000000e+00
0.000000e+00
0.000000e+00
0.000000e+00
0.000000e+00
0.000000e+00
0.000000e+00
0.000000e+00
0.000000e+00
0.000000e+00
0.000000e+00
0.000000e+00
0.000000e+00
1.250000e+01
1.250000e+01
1.250000e+01
1.250000e+01
1.250000e+01
1.250000e+01
1.250000e+01
1.250000e+01
1.250000e+01
1.250000e+01
1.250000e+01
1.250000e+01
1.250000e+01
1.250000e+01
1.250000e+01
1.250000e+01
1.250000e+01
2.500000e+01
2.500000e+01
2.500000e+01
2.500000e+01
2.500000e+01
2.500000e+01
2.500000e+01
2.500000e+01
2.500000e+01
2.500000e+01
2.500000e+01
2.500000e+01
2.500000e+01
2.500000e+01
2.500000e+01
2.500000e+01
2.500000e+01
3.750000e+01
3.750000e+01
3.750000e+01
3.750000e+01
3.750000e+01
3.750000e+01
3.750000e+01
3.750000e+01
3.750000e+01
3.750000e+01
3.750000e+01
3.750000e+01
3.750000e+01
3.750000e+01
3.750000e+01
3.750000e+01
3.750000e+01
5.000000e+01
5.000000e+01
5.000000e+01
5.000000e+01
5.000000e+01
5.000000e+01
5.000000e+01
5.000000e+01
5.000000e+01
5.000000e+01
5.000000e+01
5.000000e+01
5.000000e+01
5.000000e+01
5.000000e+01
5.000000e+01
5.000000e+01
6.250000e+01
6.250000e+01
6.250000e+01
6.250000e+01
6.250000e+01
6.250000e+01
6.250000e+01
6.250000e+01
6.250000e+01
6.250000e+01
6.250000e+01
6.250000e+01
6.250000e+01
6.250000e+01
6.250000e+01
6.250000e+01
6.250000e+01
7.500000e+01
7.500000e+01
7.500000e+01
7.500000e+01
7.500000e+01
7.500000e+01
7.500000e+01
7.500000e+01
7.500000e+01
7.500000e+01
7.500000e+01
7.500000e+01
7.500000e+01
7.500000e+01
7.500000e+01
7.500000e+01
7.500000e+01
8.750000e+01
8.750000e+01
8.750000e+01
8.750000e+01
8.750000e+01
8.750000e+01
8.750000e+01
8.750000e+01
8.750000e+01
8.750000e+01
8.750000e+01
8.750000e+01
8.750000e+01
8.750000e+01
8.750000e+01
8.750000e+01
8.750000e+01
1.000000e+02
1.000000e+02
1.000000e+02
1.000000e+02
1.000000e+02
1.000000e+02
1.000000e+02
1.000000e+02
1.000000e+02
1.000000e+02
1.000000e+02
1.000000e+02
1.000000e+02
1.000000e+02
1.000000e+02
1.000000e+02
1.000000e+02
0.000000e+00
-1.027203e+00
-1.686898e+00
-2.408260e+00
-3.105993e+00
-3.753921e+00
-4.393618e+00
-4.993496e+00
-5.670053e+00
-6.383173e+00
-7.060754e+00
-7.745883e+00
-8.476967e+00
-9.238681e+00
-9.955554e+00
-1.062981e+01
-1.107886e+01
0.000000e+00
-4.698895e-01
-9.240929e-01
-1.416562e+00
-1.949363e+00
-2.446940e+00
-2.944103e+00
-3.428381e+00
-3.944988e+00
-4.479967e+00
-4.975098e+00
-5.468280e+00
-5.979883e+00
-6.462154e+00
-6.776689e+00
-6.846049e+00
-7.006673e+00
0.000000e+00
-1.581655e-01
-3.681697e-01
-6.618561e-01
-1.021202e+00
-1.363012e+00
-1.730504e+00
-2.095721e+00
-2.448897e+00
-2.787753e+00
-3.101210e+00
-3.405961e+00
-3.681773e+00
-3.875126e+00
-3.922097e+00
-3.899387e+00
-4.061562e+00
0.000000e+00
-8.002424e-02
-1.667229e-01
-3.236159e-01
-4.744288e-01
-6.527175e-01
-8.306870e-01
-9.912002e-01
-1.144175e+00
-1.285033e+00
-1.427390e+00
-1.547999e+00
-1.614364e+00
-1.606280e+00
-1.549478e+00
-1.554401e+00
-1.686864e+00
0.000000e+00
-2.472901e-03
-5.131741e-03
-7.457620e-03
-8.849649e-03
-7.905031e-03
-2.854564e-03
8.192840e-03
2.841295e-02
5.918807e-02
1.044619e-01
1.713945e-01
2.665568e-01
3.852167e-01
4.852541e-01
4.945568e-01
3.939526e-01
0.000000e+00
7.575982e-02
1.590993e-01
3.123282e-01
4.607230e-01
6.400906e-01
8.236999e-01
1.001280e+00
1.184887e+00
1.378930e+00
1.604898e+00
1.843019e+00
2.064502e+00
2.252764e+00
2.380823e+00
2.410286e+00
2.351690e+00
0.000000e+00
1.562918e-01
3.650053e-01
6.570310e-01
1.014808e+00
1.354526e+00
1.721937e+00
2.090863e+00
2.454955e+00
2.817643e+00
3.177465e+00
3.543074e+00
3.871871e+00
4.127611e+00
4.290846e+00
4.348608e+00
4.333156e+00
0.000000e+00
4.694780e-01
9.236862e-01
1.415000e+00
1.947403e+00
2.442978e+00
2.936236e+00
3.418507e+00
3.928132e+00
4.448163e+00
4.931595e+00
5.396600e+00
5.813294e+00
6.130548e+00
6.329686e+00
6.417504e+00
6.433494e+00
0.000000e+00
1.027999e+00
1.689099e+00
2.411423e+00
3.110464e+00
3.760787e+00
4.397508e+00
4.998787e+00
5.664176e+00
6.344111e+00
6.972812e+00
7.559662e+00
8.062923e+00
8.417071e+00
8.602483e+00
8.652385e+00
8.652220e+00
0.000000e+00
-6.296159e-01
-1.361822e+00
-2.347434e+00
-3.508693e+00
-4.823100e+00
-6.294354e+00
-7.904659e+00
-9.679975e+00
-1.161993e+01
-1.372763e+01
-1.602913e+01
-1.852942e+01
-2.121843e+01
-2.413843e+01
-2.752194e+01
-3.247315e+01
0.000000e+00
-4.260503e-01
-1.200687e+00
-2.161334e+00
-3.333375e+00
-4.651097e+00
-6.128822e+00
-7.738170e+00
-9.497777e+00
-1.144172e+01
-1.355556e+01
-1.585315e+01
-1.834911e+01
-2.106300e+01
-2.402604e+01
-2.741434e+01
-3.153839e+01
0.000000e+00
-3.957135e-01
-1.097212e+00
-2.054260e+00
-3.207567e+00
-4.521107e+00
-6.002090e+00
-7.614021e+00
-9.381851e+00
-1.132796e+01
-1.344948e+01
-1.575640e+01
-1.826768e+01
-2.102001e+01
-2.401771e+01
-2.722143e+01
-3.023562e+01
0.000000e+00
-4.467334e-01
-1.080882e+00
-2.025434e+00
-3.139103e+00
-4.441774e+00
-5.923009e+00
-7.548358e+00
-9.333933e+00
-1.128035e+01
-1.341580e+01
-1.574479e+01
-1.827159e+01
-2.102161e+01
-2.395803e+01
-2.687629e+01
-2.942712e+01
0.000000e+00
-4.509054e-01
-1.098324e+00
-2.009366e+00
-3.127405e+00
-4.420879e+00
-5.901247e+00
-7.544135e+00
-9.337277e+00
-1.129291e+01
-1.344282e+01
-1.578979e+01
-1.831282e+01
-2.101010e+01
-2.382015e+01
-2.653007e+01
-2.884524e+01
0.000000e+00
-4.460802e-01
-1.081778e+00
-2.028922e+00
-3.145837e+00
-4.455092e+00
-5.943574e+00
-7.582998e+00
-9.383599e+00
-1.134743e+01
-1.350628e+01
-1.585618e+01
-1.836266e+01
-2.099311e+01
-2.367762e+01
-2.624093e+01
-2.845168e+01
0.000000e+00
-3.954050e-01
-1.099199e+00
-2.059781e+00
-3.219201e+00
-4.542615e+00
-6.036627e+00
-7.669485e+00
-9.463697e+00
-1.143970e+01
-1.359736e+01
-1.593810e+01
-1.842364e+01
-2.099829e+01
-2.358466e+01
-2.605086e+01
-2.825392e+01
0.000000e+00
-4.259551e-01
-1.202674e+00
-2.167066e+00
-3.345752e+00
-4.673912e+00
-6.166889e+00
-7.798683e+00
-9.589669e+00
-1.156992e+01
-1.372180e+01
-1.604758e+01
-1.850980e+01
-2.104111e+01
-2.355993e+01
-2.596552e+01
-2.820322e+01
0.000000e+00
-6.298279e-01
-1.363901e+00
-2.353363e+00
-3.521274e+00
-4.845832e+00
-6.332380e+00
-7.965093e+00
-9.768801e+00
-1.174328e+01
-1.388459e+01
-1.619439e+01
-1.862670e+01
-2.111366e+01
-2.358164e+01
-2.594942e+01
-2.820341e+01


0.000000e+00
1.411735e-05
2.460938e-05
3.722476e-05
5.147366e-05
6.565619e-05
7.996526e-05
9.388407e-05
1.092482e-04
1.237077e-04
1.351685e-04
1.445892e-04
1.518229e-04
1.563693e-04
1.595031e-04
1.633608e-04
1.682325e-04
0.000000e+00
9.945265e-06
1.958948e-05
2.888382e-05
4.054179e-05
5.185443e-05
6.297239e-05
7.422807e-05
8.595538e-05
9.614776e-05
1.035149e-04
1.092747e-04
1.128318e-04
1.129685e-04
1.122303e-04
1.153689e-04
1.211223e-04
0.000000e+00
8.085949e-06
1.527866e-05
2.164593e-05
3.008558e-05
3.793864e-05
4.571223e-05
5.330786e-05
6.001549e-05
6.517924e-05
6.881553e-05
7.137089e-05
7.234808e-05
7.157360e-05
7.127696e-05
7.445426e-05
8.019246e-05
0.000000e+00
4.538645e-06
7.244568e-06
1.142399e-05
1.517108e-05
1.906055e-05
2.300977e-05
2.646961e-05
2.923450e-05
3.111243e-05
3.227854e-05
3.262479e-05
3.239645e-05
3.244965e-05
3.354982e-05
3.639003e-05
4.061721e-05
0.000000e+00
-4.418441e-08
-1.020281e-07
-1.603504e-07
-2.195356e-07
-2.747122e-07
-3.466798e-07
-4.291895e-07
-5.912015e-07
-9.401510e-07
-1.661393e-06
-2.642853e-06
-3.476416e-06
-3.585269e-06
-2.708049e-06
-1.403902e-06
5.054621e-07
0.000000e+00
-4.619680e-06
-7.415281e-06
-1.171162e-05
-1.553544e-05
-1.951798e-05
-2.351596e-05
-2.706412e-05
-2.990357e-05
-3.193555e-05
-3.365508e-05
-3.516911e-05
-3.627780e-05
-3.686957e-05
-3.738203e-05
-3.780869e-05
-3.747690e-05
0.000000e+00
-8.130369e-06
-1.537183e-05
-2.178442e-05
-3.030739e-05
-3.821726e-05
-4.602591e-05
-5.362066e-05
-6.024613e-05
-6.506931e-05
-6.795946e-05
-6.953021e-05
-7.053018e-05
-7.145350e-05
-7.242972e-05
-7.328566e-05
-7.354166e-05
0.000000e+00
-9.956322e-06
-1.959775e-05
-2.885063e-05
-4.053163e-05
-5.186737e-05
-6.295859e-05
-7.425439e-05
-8.603267e-05
-9.606088e-05
-1.024062e-04
-1.058561e-04
-1.076185e-04
-1.088123e-04
-1.096511e-04
-1.100714e-04
-1.101896e-04
0.000000e+00
-1.411515e-05
-2.455731e-05
-3.706311e-05
-5.121576e-05
-6.535008e-05
-7.948777e-05
-9.341452e-05
-1.088264e-04
-1.233209e-04
-1.343119e-04
-1.415210e-04
-1.455507e-04
-1.473177e-04
-1.478221e-04
-1.477603e-04
-1.476774e-04
0.000000e+00
1.194241e-05
2.025569e-05
3.207490e-05
4.723527e-05
6.485961e-05
8.600176e-05
1.105836e-04
1.389591e-04
1.697890e-04
2.032682e-04
2.398041e-04
2.782647e-04
3.191272e-04
3.672763e-04
4.241638e-04
4.820756e-04
0.000000e+00
6.970280e-06
1.580912e-05
2.623708e-05
4.095713e-05
5.856288e-05
7.975047e-05
1.041680e-04
1.323775e-04
1.643280e-04
1.990875e-04
2.366033e-04
2.764739e-04
3.184673e-04
3.639442e-04
4.171441e-04
4.732002e-04
0.000000e+00
3.346207e-06
1.150505e-05
2.135341e-05
3.535296e-05
5.323378e-05
7.451142e-05
9.934649e-05
1.281976e-04
1.609986e-04
1.966214e-04
2.348794e-04
2.757661e-04
3.181077e-04
3.596756e-04
4.076232e-04
4.606107e-04
0.000000e+00
2.163100e-06
9.053229e-06
1.908282e-05
3.290636e-05
5.084856e-05
7.241355e-05
9.778930e-05
1.271621e-04
1.601186e-04
1.959320e-04
2.343211e-04
2.754127e-04
3.175246e-04
3.568781e-04
3.997478e-04
4.480710e-04
0.000000e+00
1.785421e-06
8.410914e-06
1.831814e-05
3.226328e-05
5.009358e-05
7.179177e-05
9.742989e-05
1.270391e-04
1.600319e-04
1.958686e-04
2.343123e-04
2.752186e-04
3.172709e-04
3.566614e-04
3.963759e-04
4.393117e-04
0.000000e+00
2.188237e-06
9.080854e-06
1.908333e-05
3.284201e-05
5.071521e-05
7.221169e-05
9.760933e-05
1.271598e-04
1.603256e-04
1.964666e-04
2.351092e-04
2.758339e-04
3.172852e-04
3.574081e-04
3.961466e-04
4.347862e-04
0.000000e+00
3.385745e-06
1.155349e-05
2.133725e-05
3.524269e-05
5.299302e-05
7.414642e-05
9.897417e-05
1.280630e-04
1.613356e-04
1.977043e-04
2.364889e-04
2.768643e-04
3.176184e-04
3.574949e-04
3.960147e-04
4.333149e-04
0.000000e+00
7.018444e-06
1.585872e-05
2.622880e-05
4.084936e-05
5.832525e-05
7.935358e-05
1.037381e-04
1.321826e-04
1.645878e-04
1.999780e-04
2.379993e-04
2.776858e-04
3.178797e-04
3.574151e-04
3.958154e-04
4.332512e-04
0.000000e+00
1.199340e-05
2.029102e-05
3.205798e-05
4.714656e-05
6.463526e-05
8.562002e-05
1.102204e-04
1.388001e-04
1.699049e-04
2.034438e-04
2.398344e-04
2.784857e-04
3.181000e-04
3.574147e-04
3.957292e-04
4.333324e-04


6.391089e+00
5.888717e+00
5.879716e+00
5.017925e+00
4.485801e+00
4.565241e+00
4.489906e+00
4.492408e+00
4.414225e+00
4.658880e+00
5.507617e+00
6.664103e+00
7.440982e+00
6.958843e+00
5.462479e+00
4.424654e+00
7.946812e+00
8.027747e+00
7.920435e+00
7.569188e+00
7.179720e+00
7.158982e+00
6.670528e+00
5.850289e+00
5.381626e+00
5.515708e+00
6.296142e+00
7.248612e+00
7.751544e+00
6.983990e+00
5.322884e+00
4.188167e+00
9.377916e+00
9.484327e+00
9.662779e+00
9.320973e+00
9.143422e+00
9.082176e+00
8.603180e+00
7.798162e+00
7.208891e+00
7.235404e+00
7.543547e+00
7.858186e+00
7.941905e+00
7.136545e+00
5.589723e+00
4.556804e+00
9.654743e+00
9.846808e+00
9.922108e+00
9.650915e+00
9.347968e+00
9.348259e+00
9.410223e+00
9.196930e+00
8.910442e+00
8.669539e+00
8.238153e+00
7.751160e+00
7.567387e+00
7.236935e+00
6.417006e+00
5.764117e+00
9.639181e+00
9.835180e+00
9.898494e+00
9.593605e+00
9.269797e+00
9.275545e+00
9.353432e+00
9.166332e+00
8.913940e+00
8.640095e+00
8.014620e+00
7.264519e+00
7.074615e+00
7.326991e+00
7.375532e+00
7.241155e+00
9.331622e+00
9.454072e+00
9.611306e+00
9.201526e+00
8.974057e+00
8.909902e+00
8.464434e+00
7.717418e+00
7.229584e+00
7.277777e+00
7.304403e+00
7.095519e+00
7.158437e+00
7.691983e+00
8.218711e+00
8.437283e+00
7.887787e+00
7.992692e+00
7.882682e+00
7.483482e+00
7.034456e+00
7.002525e+00
6.532229e+00
5.768102e+00
5.432800e+00
5.772509e+00
6.581021e+00
7.233053e+00
7.729900e+00
8.337438e+00
8.907221e+00
9.183924e+00
6.332624e+00
5.861886e+00
5.870007e+00
4.985028e+00
4.412276e+00
4.461413e+00
4.410115e+00
4.443759e+00
4.484252e+00
5.039949e+00
6.209333e+00
7.379847e+00
8.210325e+00
8.840513e+00
9.315938e+00
9.542178e+00


-9.577652e-01
-1.081237e-01
-2.900723e-01
-3.286779e-01
-1.556551e-01
-1.386674e-01
-4.299968e-02
-2.591447e-01
-3.756991e-01
-2.182424e-01
-2.285361e-01
-3.565748e-01
-3.378272e-01
8.628214e-02
5.051008e-01
-7.130432e-01
5.730695e-01
4.856393e-01
3.262328e-01
1.579547e-01
2.367396e-01
1.806104e-01
1.964973e-01
1.588538e-01
1.544421e-01
2.639110e-01
2.827574e-01
3.128556e-01
4.869887e-01
7.871736e-01
7.238857e-01
-1.490429e+00
7.234522e-01
4.935044e-01
1.148970e-01
4.327757e-02
5.181275e-02
3.513105e-02
1.740323e-01
2.769468e-01
3.513033e-01
3.748703e-01
3.788655e-01
4.243120e-01
4.456633e-01
3.510828e-01
1.002581e-01
-4.150721e-01
7.342928e-01
5.726672e-01
2.449863e-01
1.678293e-01
1.202714e-01
1.174288e-01
1.785676e-01
2.203459e-01
2.476918e-01
2.226268e-01
2.081446e-01
1.811581e-01
2.752328e-02
-1.856966e-01
-1.171991e-01
5.451046e-02
7.363248e-01
5.753529e-01
2.511119e-01
1.736176e-01
1.190796e-01
1.039989e-01
1.396582e-01
1.551632e-01
1.469204e-01
7.436449e-02
1.440194e-02
-3.101588e-02
-1.461728e-01
-2.275422e-01
1.573520e-02
4.396232e-01
7.279023e-01
4.983785e-01
1.237923e-01
5.055506e-02
4.482957e-02
6.696927e-03
9.855280e-02
1.484205e-01
1.429639e-01
4.072723e-02
-9.304115e-02
-1.115512e-01
-6.063770e-02
6.644437e-02
3.849038e-01
7.794180e-01
5.761817e-01
4.869322e-01
3.291909e-01
1.580186e-01
2.361545e-01
1.726128e-01
1.655803e-01
9.944742e-02
4.309790e-02
4.933068e-02
-2.977654e-02
9.452674e-03
2.002569e-01
4.541812e-01
7.447808e-01
9.561103e-01
-9.583429e-01
-1.108858e-01
-2.898577e-01
-3.309942e-01
-1.568780e-01
-1.271308e-01
-4.484579e-02
-2.295706e-01
-2.911995e-01
-1.275074e-01
-3.334072e-02
1.772079e-01
5.204234e-01
8.032731e-01
9.570095e-01
9.989918e-01
1 2 19 18
2 3 20 19
3 4 21 20
4 5 22 21
5 6 23 22
6 7 24 23
7 8 25 24
8 9 26 25
9 10 27 26
10 11 28 27
11 12 29 28
12 13 30 29
13 14 31 30
14 15 32 31
15 16 33 32
16 17 34 33
18 19 36 35
19 20 37 36
20 21 38 37
21 22 39 38
22 23 40 39
23 24 41 40
24 25 42 41
25 26 43 42
26 27 44 43
27 28 45 44
28 29 46 45
29 30 47 46
30 31 48 47
31 32 49 48
32 33 50 49
33 34 51 50
35 36 53 52
36 37 54 53
37 38 55 54
38 39 56 55
39 40 57 56
40 41 58 57
41 42 59 58
42 43 60 59
43 44 61 60
44 45 62 61
45 46 63 62
46 47 64 63
47 48 65 64
48 49 66 65
49 50 67 66
50 51 68 67
52 53 70 69
53 54 71 70
54 55 72 71
55 56 73 72
56 57 74 73
57 58 75 74
58 59 76 75
59 60 77 76
60 61 78 77
61 62 79 78
62 63 80 79
63 64 81 80
64 65 82 81
65 66 83 82
66 67 84 83
67 68 85 84
69 70 87 86
70 71 88 87
71 72 89 88
72 73 90 89
73 74 91 90
74 75 92 91
75 76 93 92
76 77 94 93
77 78 95 94
78 79 96 95
79 80 97 96
80 81 98 97
81 82 99 98
82 83 100 99
83 84 101 100
84 85 102 101
86 87 104 103
87 88 105 104
88 89 106 105
89 90 107 106
90 91 108 107
91 92 109 108
92 93 110 109
93 94 111 110
94 95 112 111
95 96 113 112
96 97 114 113
97 98 115 114
98 99 116 115
99 100 117 116
100 101 118 117
101 102 119 118
103 104 121 120
104 105 122 121
105 106 123 122
106 107 124 123
107 108 125 124
108 109 126 125
109 110 127 126
110 111 128 127
111 112 129 128
112 113 130 129
113 114 131 130
114 115 132 131
115 116 133 132
116 117 134 133
117 118 135 134
118 119 136 135
120 121 138 137
121 122 139 138
122 123 140 139
123 124 141 140
124 125 142 141
125 126 143 142
126 127 144 143
127 128 145 144
128 129 146 145
129 130 147 146
130 131 148 147
131 132 149 148
132 133 150 149
133 134 151 150
134 135 152 151
135 136 153 152
