TITLE = "Solution"
VARIABLES = x, y, u, v, psiu, psiv, t, stress
ZONE T="structure" N=153 E=128 F=FEBLOCK ET=QUADRILATERAL VARLOCATION=([7,8]=cellcentered)
0.000000e+00
1.250000e+01
2.500000e+01
3.750000e+01
5.000000e+01
6.250000e+01
7.500000e+01
8.750000e+01
1.000000e+02
1.125000e+02
1.250000e+02
1.375000e+02
1.500000e+02
1.625000e+02
1.750000e+02
1.875000e+02
2.000000e+02
0.000000e+00
1.250000e+01
2.500000e+01
3.750000e+01
5.000000e+01
6.250000e+01
7.500000e+01
8.750000e+01
1.000000e+02
1.125000e+02
1.250000e+02
1.375000e+02
1.500000e+02
1.625000e+02
1.750000e+02
1.875000e+02
2.000000e+02
0.000000e+00
1.250000e+01
2.500000e+01
3.750000e+01
5.000000e+01
6.250000e+01
7.500000e+01
8.750000e+01
1.000000e+02
1.125000e+02
1.250000e+02
1.375000e+02
1.500000e+02
1.625000e+02
1.750000e+02
1.875000e+02
2.000000e+02
0.000000e+00
1.250000e+01
2.500000e+01
3.750000e+01
5.000000e+01
6.250000e+01
7.500000e+01
8.750000e+01
1.000000e+02
1.125000e+02
1.250000e+02
1.375000e+02
1.500000e+02
1.625000e+02
1.750000e+02
1.875000e+02
2.000000e+02
0.000000e+00
1.250000e+01
2.500000e+01
3.750000e+01
5.000000e+01
6.250000e+01
7.500000e+01
8.750000e+01
1.000000e+02
1.125000e+02
1.250000e+02
1.375000e+02
1.500000e+02
1.625000e+02
1.750000e+02
1.875000e+02
2.000000e+02
0.000000e+00
1.250000e+01
2.500000e+01
3.750000e+01
5.000000e+01
6.250000e+01
7.500000e+01
8.750000e+01
1.000000e+02
1.125000e+02
1.250000e+02
1.375000e+02
1.500000e+02
1.625000e+02
1.750000e+02
1.875000e+02
2.000000e+02
0.000000e+00
1.250000e+01
2.500000e+01
3.750000e+01
5.000000e+01
6.250000e+01
7.500000e+01
8.750000e+01
1.000000e+02
1.125000e+02
1.250000e+02
1.375000e+02
1.500000e+02
1.625000e+02
1.750000e+02
1.875000e+02
2.000000e+02
0.000000e+00
1.250000e+01
2.500000e+01
3.750000e+01
5.000000e+01
6.250000e+01
7.500000e+01
8.750000e+01
1.000000e+02
1.125000e+02
1.250000e+02
1.375000e+02
1.500000e+02
1.625000e+02
1.750000e+02
1.875000e+02
2.000000e+02
0.000000e+00
1.250000e+01
2.500000e+01
3.750000e+01
5.000000e+01
6.250000e+01
7.500000e+01
8.750000e+01
1.000000e+02
1.125000e+02
1.250000e+02
1.375000e+02
1.500000e+02
1.625000e+02
1.750000e+02
1.875000e+02
2.000000e+02
0.000000e+00
0.000000e+00
0.000000e+00
0.000000e+00
0.000000e+00
0.000000e+00
0.000000e+00
0.000000e+00
0.000000e+00
0.000000e+00
0.000000e+00
0.000000e+00
0.000000e+00
0.000000e+00
0.000000e+00
0.000000e+00
0.000000e+00
1.250000e+01
1.250000e+01
1.250000e+01
1.250000e+01
1.250000e+01
1.250000e+01
1.250000e+01
1.250000e+01
1.250000e+01
1.250000e+01
1.250000e+01
1.250000e+01
1.250000e+01
1.250000e+01
1.250000e+01
1.250000e+01
1.250000e+01
2.500000e+01
2.500000e+01
2.500000e+01
2.500000e+01
2.500000e+01
2.500000e+01
2.500000e+01
2.500000e+01
2.500000e+01
2.500000e+01
2.500000e+01
2.500000e+01
2.500000e+01
2.500000e+01
2.500000e+01
2.500000e+01
2.500000e+01
3.750000e+01
3.750000e+01
3.750000e+01
3.750000e+01
3.750000e+01
3.750000e+01
3.750000e+01
3.750000e+01
3.750000e+01
3.750000e+01
3.750000e+01
3.750000e+01
3.750000e+01
3.750000e+01
3.750000e+01
3.750000e+01
3.750000e+01
5.000000e+01
5.000000e+01
5.000000e+01
5.000000e+01
5.000000e+01
5.000000e+01
5.000000e+01
5.000000e+01
5.000000e+01
5.000000e+01
5.000000e+01
5.000000e+01
5.000000e+01
5.000000e+01
5.000000e+01
5.000000e+01
5.000000e+01
6.250000e+01
6.250000e+01
6.250000e+01
6.250000e+01
6.250000e+01
6.250000e+01
6.250000e+01
6.250000e+01
6.250000e+01
6.250000e+01
6.250000e+01
6.250000e+01
6.250000e+01
6.250000e+01
6.250000e+01
6.250000e+01
6.250000e+01
7.500000e+01
7.500000e+01
7.500000e+01
7.500000e+01
7.500000e+01
7.500000e+01
7.500000e+01
7.500000e+01
7.500000e+01
7.500000e+01
7.500000e+01
7.500000e+01
7.500000e+01
7.500000e+01
7.500000e+01
7.500000e+01
7.500000e+01
8.750000e+01
8.750000e+01
8.750000e+01
8.750000e+01
8.750000e+01
8.750000e+01
8.750000e+01
8.750000e+01
8.750000e+01
8.750000e+01
8.750000e+01
8.750000e+01
8.750000e+01
8.750000e+01
8.750000e+01
8.750000e+01
8.750000e+01
1.000000e+02
1.000000e+02
1.000000e+02
1.000000e+02
1.000000e+02
1.000000e+02
1.000000e+02
1.000000e+02
1.000000e+02
1.000000e+02
1.000000e+02
1.000000e+02
1.000000e+02
1.000000e+02
1.000000e+02
1.000000e+02
1.000000e+02
0.000000e+00
-1.024475e+00
-1.685272e+00
-2.410711e+00
-3.109280e+00
-3.753545e+00
-4.393594e+00
-4.993420e+00
-5.670581e+00
-6.383471e+00
-7.059806e+00
-7.745872e+00
-8.479065e+00
-9.239870e+00
-9.954875e+00
-1.062841e+01
-1.107760e+01
0.000000e+00
-4.680718e-01
-9.228082e-01
-1.418478e+00
-1.951322e+00
-2.445686e+00
-2.941774e+00
-3.427282e+00
-3.945236e+00
-4.480772e+00
-4.975031e+00
-5.468618e+00
-5.981295e+00
-6.462967e+00
-6.776779e+00
-6.846021e+00
-7.006580e+00
0.000000e+00
-1.576880e-01
-3.680516e-01
-6.630738e-01
-1.021026e+00
-1.360122e+00
-1.727149e+00
-2.094926e+00
-2.449586e+00
-2.788901e+00
-3.102036e+00
-3.406796e+00
-3.682308e+00
-3.875271e+00
-3.922237e+00
-3.899438e+00
-4.061322e+00
0.000000e+00
-8.043417e-02
-1.674596e-01
-3.234634e-01
-4.724295e-01
-6.500172e-01
-8.305616e-01
-9.925208e-01
-1.145849e+00
-1.285981e+00
-1.428135e+00
-1.548622e+00
-1.614535e+00
-1.606205e+00
-1.549151e+00
-1.554005e+00
-1.686380e+00
0.000000e+00
-2.172172e-03
-4.400401e-03
-6.411377e-03
-7.940492e-03
-7.728731e-03
-3.597630e-03
6.992933e-03
2.727776e-02
5.856310e-02
1.044458e-01
1.715693e-01
2.663252e-01
3.846574e-01
4.851034e-01
4.946540e-01
3.940699e-01
0.000000e+00
7.666020e-02
1.603748e-01
3.129103e-01
4.598732e-01
6.386127e-01
8.237871e-01
1.001335e+00
1.184541e+00
1.377880e+00
1.604527e+00
1.843503e+00
2.064541e+00
2.252154e+00
2.380284e+00
2.409922e+00
2.351351e+00
0.000000e+00
1.560747e-01
3.648592e-01
6.577508e-01
1.014947e+00
1.353374e+00
1.720326e+00
2.090018e+00
2.453891e+00
2.816524e+00
3.176104e+00
3.542671e+00
3.872218e+00
4.127863e+00
4.290969e+00
4.348620e+00
4.333119e+00
0.000000e+00
4.684303e-01
9.229694e-01
1.416865e+00
1.949491e+00
2.442826e+00
2.935158e+00
3.417276e+00
3.926827e+00
4.447136e+00
4.929348e+00
5.394529e+00
5.813060e+00
6.131300e+00
6.330557e+00
6.418269e+00
6.434197e+00
0.000000e+00
1.026414e+00
1.688389e+00
2.414090e+00
3.113935e+00
3.760935e+00
4.397996e+00
4.997921e+00
5.663220e+00
6.343229e+00
6.970049e+00
7.556811e+00
8.062263e+00
8.417801e+00
8.603696e+00
8.653779e+00
8.653645e+00
0.000000e+00
-6.282530e-01
-1.360594e+00
-2.347023e+00
-3.508081e+00
-4.822787e+00
-6.296399e+00
-7.908867e+00
-9.684896e+00
-1.162422e+01
-1.373104e+01
-1.603257e+01
-1.853306e+01
-2.122203e+01
-2.414233e+01
-2.752516e+01
-3.247557e+01
0.000000e+00
-4.248213e-01
-1.198736e+00
-2.160306e+00
-3.333285e+00
-4.651384e+00
-6.130708e+00
-7.742335e+00
-9.502441e+00
-1.144613e+01
-1.355905e+01
-1.585630e+01
-1.835258e+01
-2.106682e+01
-2.403012e+01
-2.741777e+01
-3.154020e+01
0.000000e+00
-3.944799e-01
-1.094920e+00
-2.053367e+00
-3.207867e+00
-4.521322e+00
-6.004185e+00
-7.618021e+00
-9.386272e+00
-1.133198e+01
-1.345300e+01
-1.575992e+01
-1.827110e+01
-2.102339e+01
-2.402188e+01
-2.722554e+01
-3.023906e+01
0.000000e+00
-4.453119e-01
-1.079275e+00
-2.024963e+00
-3.139009e+00
-4.441203e+00
-5.925926e+00
-7.552629e+00
-9.338042e+00
-1.128352e+01
-1.341942e+01
-1.574911e+01
-1.827493e+01
-2.102425e+01
-2.396237e+01
-2.688134e+01
-2.943170e+01
0.000000e+00
-4.495874e-01
-1.097200e+00
-2.008914e+00
-3.126601e+00
-4.420763e+00
-5.904580e+00
-7.548822e+00
-9.340676e+00
-1.129543e+01
-1.344652e+01
-1.579452e+01
-1.831611e+01
-2.101226e+01
-2.382421e+01
-2.653542e+01
-2.885013e+01
0.000000e+00
-4.451808e-01
-1.080458e+00
-2.028292e+00
-3.145866e+00
-4.455484e+00
-5.947265e+00
-7.586851e+00
-9.386853e+00
-1.135014e+01
-1.350985e+01
-1.586056e+01
-1.836596e+01
-2.099541e+01
-2.368128e+01
-2.624594e+01
-2.845664e+01
0.000000e+00
-3.945732e-01
-1.097400e+00
-2.059127e+00
-3.220042e+00
-4.543931e+00
-6.039444e+00
-7.672913e+00
-9.466905e+00
-1.144309e+01
-1.360078e+01
-1.594172e+01
-1.842699e+01
-2.100118e+01
-2.358831e+01
-2.605554e+01
-2.825906e+01
0.000000e+00
-4.250269e-01
-1.201207e+00
-2.166575e+00
-3.346546e+00
-4.675238e+00
-6.169152e+00
-7.802040e+00
-9.592909e+00
-1.157360e+01
-1.372513e+01
-1.605077e+01
-1.851329e+01
-2.104457e+01
-2.356373e+01
-2.597004e+01
-2.820844e+01
0.000000e+00
-6.288227e-01
-1.363034e+00
-2.353451e+00
-3.521693e+00
-4.846613e+00
-6.334577e+00
-7.968137e+00
-9.772212e+00
-1.174678e+01
-1.388763e+01
-1.619772e+01
-1.863062e+01
-2.111747e+01
-2.358553e+01
-2.595390e+01
-2.820862e+01


0.000000e+00
1.397399e-05
2.450562e-05
3.726079e-05
5.153632e-05
6.561557e-05
7.994561e-05
9.389099e-05
1.091646e-04
1.233341e-04
1.345071e-04
1.437883e-04
1.509645e-04
1.554240e-04
1.584624e-04
1.622436e-04
1.670598e-04
0.000000e+00
9.820686e-06
1.950252e-05
2.895545e-05
4.062468e-05
5.181622e-05
6.291889e-05
7.424377e-05
8.590475e-05
9.583991e-05
1.029753e-04
1.086665e-04
1.122408e-04
1.123883e-04
1.116390e-04
1.147101e-04
1.203649e-04
0.000000e+00
7.999210e-06
1.523387e-05
2.172619e-05
3.014704e-05
3.789318e-05
4.564184e-05
5.329823e-05
5.995846e-05
6.497255e-05
6.848649e-05
7.100582e-05
7.199235e-05
7.123727e-05
7.093519e-05
7.403733e-05
7.964109e-05
0.000000e+00
4.509183e-06
7.241919e-06
1.144632e-05
1.517831e-05
1.900676e-05
2.294199e-05
2.641201e-05
2.917621e-05
3.101636e-05
3.214444e-05
3.247452e-05
3.225153e-05
3.230074e-05
3.337496e-05
3.614580e-05
4.027016e-05
0.000000e+00
-4.954288e-08
-1.135609e-07
-1.780297e-07
-2.421990e-07
-2.991344e-07
-3.637953e-07
-4.340039e-07
-5.838712e-07
-9.296759e-07
-1.652819e-06
-2.618240e-06
-3.420185e-06
-3.516614e-06
-2.654695e-06
-1.371532e-06
5.070213e-07
0.000000e+00
-4.617352e-06
-7.440781e-06
-1.175639e-05
-1.557457e-05
-1.950933e-05
-2.348487e-05
-2.700432e-05
-2.979686e-05
-3.176621e-05
-3.345988e-05
-3.496718e-05
-3.604498e-05
-3.659770e-05
-3.707056e-05
-3.746562e-05
-3.712142e-05
0.000000e+00
-8.088195e-06
-1.537473e-05
-2.188591e-05
-3.038688e-05
-3.820954e-05
-4.598894e-05
-5.359739e-05
-6.010977e-05
-6.473682e-05
-6.751619e-05
-6.910297e-05
-7.011342e-05
-7.098688e-05
-7.189551e-05
-7.270093e-05
-7.293762e-05
0.000000e+00
-9.876434e-06
-1.956427e-05
-2.895188e-05
-4.063312e-05
-5.186989e-05
-6.295495e-05
-7.428283e-05
-8.593413e-05
-9.565409e-05
-1.017603e-04
-1.051926e-04
-1.069927e-04
-1.081396e-04
-1.089095e-04
-1.092927e-04
-1.094003e-04
0.000000e+00
-1.401305e-05
-2.450069e-05
-3.713059e-05
-5.130666e-05
-6.535438e-05
-7.952490e-05
-9.344821e-05
-1.087349e-04
-1.229178e-04
-1.335975e-04
-1.406972e-04
-1.447071e-04
-1.464279e-04
-1.468826e-04
-1.467993e-04
-1.467121e-04
0.000000e+00
1.182253e-05
2.016655e-05
3.202040e-05
4.710618e-05
6.466864e-05
8.587009e-05
1.104800e-04
1.387448e-04
1.693659e-04
2.026846e-04
2.390879e-04
2.773348e-04
3.178625e-04
3.655350e-04
4.218113e-04
4.791329e-04
0.000000e+00
6.862747e-06
1.566711e-05
2.613426e-05
4.085744e-05
5.840662e-05
7.959694e-05
1.040678e-04
1.322511e-04
1.640498e-04
1.985991e-04
2.359130e-04
2.755514e-04
3.172183e-04
3.622714e-04
4.149024e-04
4.703760e-04
0.000000e+00
3.237644e-06
1.130342e-05
2.120302e-05
3.528178e-05
5.312449e-05
7.434236e-05
9.923349e-05
1.281236e-04
1.608067e-04
1.961976e-04
2.342149e-04
2.748453e-04
3.168702e-04
3.581178e-04
4.056128e-04
4.580555e-04
0.000000e+00
2.049760e-06
8.819643e-06
1.889019e-05
3.283756e-05
5.078085e-05
7.227223e-05
9.767591e-05
1.270855e-04
1.599284e-04
1.955306e-04
2.337001e-04
2.745114e-04
3.162971e-04
3.554001e-04
3.979552e-04
4.458155e-04
0.000000e+00
1.675379e-06
8.175572e-06
1.811010e-05
3.218156e-05
5.003832e-05
7.167765e-05
9.733233e-05
1.269491e-04
1.598196e-04
1.954743e-04
2.337279e-04
2.743425e-04
3.160397e-04
3.551700e-04
3.946416e-04
4.372250e-04
0.000000e+00
2.079687e-06
8.858538e-06
1.888883e-05
3.276053e-05
5.064347e-05
7.208765e-05
9.752104e-05
1.270843e-04
1.601157e-04
1.960658e-04
2.345206e-04
2.749612e-04
3.160558e-04
3.558630e-04
3.943531e-04
4.327414e-04
0.000000e+00
3.284135e-06
1.136599e-05
2.118587e-05
3.515697e-05
5.288213e-05
7.399880e-05
9.888765e-05
1.279863e-04
1.611160e-04
1.972762e-04
2.358688e-04
2.759869e-04
3.163913e-04
3.559219e-04
3.941718e-04
4.312649e-04
0.000000e+00
6.925427e-06
1.572651e-05
2.611941e-05
4.074043e-05
5.817159e-05
7.921175e-05
1.036397e-04
1.320311e-04
1.642704e-04
1.994800e-04
2.373553e-04
2.768120e-04
3.166479e-04
3.558263e-04
3.939538e-04
4.311921e-04
0.000000e+00
1.189676e-05
2.020779e-05
3.198895e-05
4.701038e-05
6.445304e-05
8.549303e-05
1.100940e-04
1.385361e-04
1.694233e-04
2.028441e-04
2.391773e-04
2.776091e-04
3.168521e-04
3.558094e-04
3.938633e-04
4.312705e-04


6.315797e+00
5.950729e+00
6.039505e+00
5.073775e+00
4.439591e+00
4.556846e+00
4.545843e+00
4.552753e+00
4.425142e+00
4.653592e+00
5.521019e+00
6.675850e+00
7.421743e+00
6.929582e+00
5.450971e+00
4.428498e+00
7.900016e+00
8.088451e+00
8.026895e+00
7.579161e+00
7.115682e+00
7.166224e+00
6.759249e+00
5.917090e+00
5.393789e+00
5.511719e+00
6.302188e+00
7.247856e+00
7.734051e+00
6.967780e+00
5.316434e+00
4.184398e+00
9.346206e+00
9.495302e+00
9.682125e+00
9.280222e+00
9.117309e+00
9.146292e+00
8.692468e+00
7.834804e+00
7.201954e+00
7.238954e+00
7.544845e+00
7.839658e+00
7.929755e+00
7.146414e+00
5.598620e+00
4.551240e+00
9.603582e+00
9.809188e+00
9.877520e+00
9.614061e+00
9.385644e+00
9.442767e+00
9.445391e+00
9.157993e+00
8.886872e+00
8.695366e+00
8.253298e+00
7.727090e+00
7.559657e+00
7.268240e+00
6.443316e+00
5.763661e+00
9.594883e+00
9.803578e+00
9.870876e+00
9.588766e+00
9.333860e+00
9.346120e+00
9.342448e+00
9.099356e+00
8.893702e+00
8.686051e+00
8.049447e+00
7.250657e+00
7.063622e+00
7.353251e+00
7.402257e+00
7.242634e+00
9.334832e+00
9.476470e+00
9.647539e+00
9.218385e+00
8.987472e+00
8.936717e+00
8.467036e+00
7.701401e+00
7.224008e+00
7.308743e+00
7.341854e+00
7.100431e+00
7.148634e+00
7.697734e+00
8.228018e+00
8.432507e+00
7.894617e+00
8.055975e+00
7.977693e+00
7.513070e+00
6.995641e+00
6.984494e+00
6.570649e+00
5.802509e+00
5.441600e+00
5.778255e+00
6.607751e+00
7.263792e+00
7.740190e+00
8.336134e+00
8.901348e+00
9.170878e+00
6.311469e+00
5.924488e+00
5.994317e+00
5.027480e+00
4.364508e+00
4.448030e+00
4.455436e+00
4.502826e+00
4.494824e+00
5.030923e+00
6.231113e+00
7.427734e+00
8.242743e+00
8.844702e+00
9.306030e+00
9.526963e+00


-9.459082e-01
-1.114616e-01
-3.053230e-01
-3.303209e-01
-1.421832e-01
-1.372556e-01
-4.534173e-02
-2.630557e-01
-3.762957e-01
-2.140422e-01
-2.313702e-01
-3.632650e-01
-3.346760e-01
9.081951e-02
5.063496e-01
-7.138897e-01
5.758951e-01
4.842751e-01
3.190320e-01
1.604164e-01
2.465688e-01
1.824033e-01
1.894475e-01
1.538093e-01
1.527453e-01
2.654824e-01
2.817800e-01
3.120074e-01
4.885743e-01
7.874159e-01
7.245037e-01
-1.482375e+00
7.245438e-01
4.927106e-01
1.124600e-01
4.771597e-02
5.678420e-02
2.404422e-02
1.625515e-01
2.724388e-01
3.518564e-01
3.754700e-01
3.786302e-01
4.261392e-01
4.470748e-01
3.492163e-01
1.012820e-01
-4.098374e-01
7.364591e-01
5.744027e-01
2.458832e-01
1.679849e-01
1.158540e-01
1.045420e-01
1.742644e-01
2.225783e-01
2.508464e-01
2.221736e-01
2.078889e-01
1.846420e-01
2.893026e-02
-1.923622e-01
-1.205272e-01
5.562548e-02
7.379636e-01
5.763540e-01
2.498385e-01
1.711327e-01
1.142518e-01
9.493944e-02
1.405043e-01
1.597707e-01
1.489800e-01
7.053426e-02
1.175729e-02
-2.679999e-02
-1.426603e-01
-2.327625e-01
1.119238e-02
4.391322e-01
7.280028e-01
4.971854e-01
1.204034e-01
5.103581e-02
4.658660e-02
-8.580742e-04
9.485280e-02
1.483092e-01
1.431004e-01
3.821892e-02
-9.778822e-02
-1.108258e-01
-5.703783e-02
6.590084e-02
3.834953e-01
7.794241e-01
5.778541e-01
4.865104e-01
3.239198e-01
1.586608e-01
2.418989e-01
1.742549e-01
1.640661e-01
9.970041e-02
4.215837e-02
5.094137e-02
-3.330742e-02
4.347586e-03
1.996697e-01
4.543273e-01
7.446866e-01
9.561630e-01
-9.513095e-01
-1.133414e-01
-3.023476e-01
-3.330654e-01
-1.460187e-01
-1.258665e-01
-4.203142e-02
-2.290935e-01
-2.918920e-01
-1.215781e-01
-3.391839e-02
1.701860e-01
5.175121e-01
8.028150e-01
9.569231e-01
9.989891e-01
1 2 19 18
2 3 20 19
3 4 21 20
4 5 22 21
5 6 23 22
6 7 24 23
7 8 25 24
8 9 26 25
9 10 27 26
10 11 28 27
11 12 29 28
12 13 30 29
13 14 31 30
14 15 32 31
15 16 33 32
16 17 34 33
18 19 36 35
19 20 37 36
20 21 38 37
21 22 39 38
22 23 40 39
23 24 41 40
24 25 42 41
25 26 43 42
26 27 44 43
27 28 45 44
28 29 46 45
29 30 47 46
30 31 48 47
31 32 49 48
32 33 50 49
33 34 51 50
35 36 53 52
36 37 54 53
37 38 55 54
38 39 56 55
39 40 57 56
40 41 58 57
41 42 59 58
42 43 60 59
43 44 61 60
44 45 62 61
45 46 63 62
46 47 64 63
47 48 65 64
48 49 66 65
49 50 67 66
50 51 68 67
52 53 70 69
53 54 71 70
54 55 72 71
55 56 73 72
56 57 74 73
57 58 75 74
58 59 76 75
59 60 77 76
60 61 78 77
61 62 79 78
62 63 80 79
63 64 81 80
64 65 82 81
65 66 83 82
66 67 84 83
67 68 85 84
69 70 87 86
70 71 88 87
71 72 89 88
72 73 90 89
73 74 91 90
74 75 92 91
75 76 93 92
76 77 94 93
77 78 95 94
78 79 96 95
79 80 97 96
80 81 98 97
81 82 99 98
82 83 100 99
83 84 101 100
84 85 102 101
86 87 104 103
87 88 105 104
88 89 106 105
89 90 107 106
90 91 108 107
91 92 109 108
92 93 110 109
93 94 111 110
94 95 112 111
95 96 113 112
96 97 114 113
97 98 115 114
98 99 116 115
99 100 117 116
100 101 118 117
101 102 119 118
103 104 121 120
104 105 122 121
105 106 123 122
106 107 124 123
107 108 125 124
108 109 126 125
109 110 127 126
110 111 128 127
111 112 129 128
112 113 130 129
113 114 131 130
114 115 132 131
115 116 133 132
116 117 134 133
117 118 135 134
118 119 136 135
120 121 138 137
121 122 139 138
122 123 140 139
123 124 141 140
124 125 142 141
125 126 143 142
126 127 144 143
127 128 145 144
128 129 146 145
129 130 147 146
130 131 148 147
131 132 149 148
132 133 150 149
133 134 151 150
134 135 152 151
135 136 153 152
