TITLE = "Solution"
VARIABLES = x, y, u, v, psiu, psiv, t, stress
ZONE T="structure" N=153 E=128 F=FEBLOCK ET=QUADRILATERAL VARLOCATION=([7,8]=cellcentered)
0.000000e+00
1.250000e+01
2.500000e+01
3.750000e+01
5.000000e+01
6.250000e+01
7.500000e+01
8.750000e+01
1.000000e+02
1.125000e+02
1.250000e+02
1.375000e+02
1.500000e+02
1.625000e+02
1.750000e+02
1.875000e+02
2.000000e+02
0.000000e+00
1.250000e+01
2.500000e+01
3.750000e+01
5.000000e+01
6.250000e+01
7.500000e+01
8.750000e+01
1.000000e+02
1.125000e+02
1.250000e+02
1.375000e+02
1.500000e+02
1.625000e+02
1.750000e+02
1.875000e+02
2.000000e+02
0.000000e+00
1.250000e+01
2.500000e+01
3.750000e+01
5.000000e+01
6.250000e+01
7.500000e+01
8.750000e+01
1.000000e+02
1.125000e+02
1.250000e+02
1.375000e+02
1.500000e+02
1.625000e+02
1.750000e+02
1.875000e+02
2.000000e+02
0.000000e+00
1.250000e+01
2.500000e+01
3.750000e+01
5.000000e+01
6.250000e+01
7.500000e+01
8.750000e+01
1.000000e+02
1.125000e+02
1.250000e+02
1.375000e+02
1.500000e+02
1.625000e+02
1.750000e+02
1.875000e+02
2.000000e+02
0.000000e+00
1.250000e+01
2.500000e+01
3.750000e+01
5.000000e+01
6.250000e+01
7.500000e+01
8.750000e+01
1.000000e+02
1.125000e+02
1.250000e+02
1.375000e+02
1.500000e+02
1.625000e+02
1.750000e+02
1.875000e+02
2.000000e+02
0.000000e+00
1.250000e+01
2.500000e+01
3.750000e+01
5.000000e+01
6.250000e+01
7.500000e+01
8.750000e+01
1.000000e+02
1.125000e+02
1.250000e+02
1.375000e+02
1.500000e+02
1.625000e+02
1.750000e+02
1.875000e+02
2.000000e+02
0.000000e+00
1.250000e+01
2.500000e+01
3.750000e+01
5.000000e+01
6.250000e+01
7.500000e+01
8.750000e+01
1.000000e+02
1.125000e+02
1.250000e+02
1.375000e+02
1.500000e+02
1.625000e+02
1.750000e+02
1.875000e+02
2.000000e+02
0.000000e+00
1.250000e+01
2.500000e+01
3.750000e+01
5.000000e+01
6.250000e+01
7.500000e+01
8.750000e+01
1.000000e+02
1.125000e+02
1.250000e+02
1.375000e+02
1.500000e+02
1.625000e+02
1.750000e+02
1.875000e+02
2.000000e+02
0.000000e+00
1.250000e+01
2.500000e+01
3.750000e+01
5.000000e+01
6.250000e+01
7.500000e+01
8.750000e+01
1.000000e+02
1.125000e+02
1.250000e+02
1.375000e+02
1.500000e+02
1.625000e+02
1.750000e+02
1.875000e+02
2.000000e+02
0.000000e+00
0.000000e+00
0.000000e+00
0.000000e+00
0.000000e+00
0.000000e+00
0.000000e+00
0.000000e+00
0.000000e+00
0.000000e+00
0.000000e+00
0.000000e+00
0.000000e+00
0.000000e+00
0.000000e+00
0.000000e+00
0.000000e+00
1.250000e+01
1.250000e+01
1.250000e+01
1.250000e+01
1.250000e+01
1.250000e+01
1.250000e+01
1.250000e+01
1.250000e+01
1.250000e+01
1.250000e+01
1.250000e+01
1.250000e+01
1.250000e+01
1.250000e+01
1.250000e+01
1.250000e+01
2.500000e+01
2.500000e+01
2.500000e+01
2.500000e+01
2.500000e+01
2.500000e+01
2.500000e+01
2.500000e+01
2.500000e+01
2.500000e+01
2.500000e+01
2.500000e+01
2.500000e+01
2.500000e+01
2.500000e+01
2.500000e+01
2.500000e+01
3.750000e+01
3.750000e+01
3.750000e+01
3.750000e+01
3.750000e+01
3.750000e+01
3.750000e+01
3.750000e+01
3.750000e+01
3.750000e+01
3.750000e+01
3.750000e+01
3.750000e+01
3.750000e+01
3.750000e+01
3.750000e+01
3.750000e+01
5.000000e+01
5.000000e+01
5.000000e+01
5.000000e+01
5.000000e+01
5.000000e+01
5.000000e+01
5.000000e+01
5.000000e+01
5.000000e+01
5.000000e+01
5.000000e+01
5.000000e+01
5.000000e+01
5.000000e+01
5.000000e+01
5.000000e+01
6.250000e+01
6.250000e+01
6.250000e+01
6.250000e+01
6.250000e+01
6.250000e+01
6.250000e+01
6.250000e+01
6.250000e+01
6.250000e+01
6.250000e+01
6.250000e+01
6.250000e+01
6.250000e+01
6.250000e+01
6.250000e+01
6.250000e+01
7.500000e+01
7.500000e+01
7.500000e+01
7.500000e+01
7.500000e+01
7.500000e+01
7.500000e+01
7.500000e+01
7.500000e+01
7.500000e+01
7.500000e+01
7.500000e+01
7.500000e+01
7.500000e+01
7.500000e+01
7.500000e+01
7.500000e+01
8.750000e+01
8.750000e+01
8.750000e+01
8.750000e+01
8.750000e+01
8.750000e+01
8.750000e+01
8.750000e+01
8.750000e+01
8.750000e+01
8.750000e+01
8.750000e+01
8.750000e+01
8.750000e+01
8.750000e+01
8.750000e+01
8.750000e+01
1.000000e+02
1.000000e+02
1.000000e+02
1.000000e+02
1.000000e+02
1.000000e+02
1.000000e+02
1.000000e+02
1.000000e+02
1.000000e+02
1.000000e+02
1.000000e+02
1.000000e+02
1.000000e+02
1.000000e+02
1.000000e+02
1.000000e+02
0.000000e+00
-1.027262e+00
-1.690425e+00
-2.418263e+00
-3.111554e+00
-3.755451e+00
-4.420264e+00
-5.003948e+00
-5.659165e+00
-6.375514e+00
-7.057489e+00
-7.744961e+00
-8.465560e+00
-9.198424e+00
-9.993325e+00
-1.069558e+01
-1.114227e+01
0.000000e+00
-4.684604e-01
-9.236746e-01
-1.420900e+00
-1.944993e+00
-2.440894e+00
-2.950815e+00
-3.430515e+00
-3.934211e+00
-4.476386e+00
-4.975123e+00
-5.469654e+00
-5.974570e+00
-6.450274e+00
-6.816140e+00
-6.917041e+00
-7.086412e+00
0.000000e+00
-1.561919e-01
-3.645198e-01
-6.579465e-01
-1.010896e+00
-1.351165e+00
-1.722301e+00
-2.092164e+00
-2.447121e+00
-2.793032e+00
-3.105612e+00
-3.410746e+00
-3.688567e+00
-3.885543e+00
-3.947879e+00
-3.926493e+00
-4.076467e+00
0.000000e+00
-7.910525e-02
-1.646601e-01
-3.197235e-01
-4.687581e-01
-6.450112e-01
-8.299861e-01
-9.927628e-01
-1.152307e+00
-1.291005e+00
-1.429603e+00
-1.550923e+00
-1.624423e+00
-1.625119e+00
-1.561057e+00
-1.554271e+00
-1.691367e+00
0.000000e+00
-2.030122e-03
-4.287447e-03
-6.336167e-03
-7.437567e-03
-6.142364e-03
-4.621939e-04
1.192919e-02
3.300623e-02
6.402494e-02
1.082792e-01
1.733781e-01
2.661709e-01
3.812068e-01
4.729606e-01
4.807248e-01
3.785756e-01
0.000000e+00
7.574116e-02
1.584716e-01
3.103967e-01
4.575840e-01
6.348472e-01
8.262357e-01
1.005933e+00
1.197090e+00
1.387917e+00
1.607817e+00
1.843692e+00
2.069046e+00
2.261943e+00
2.391126e+00
2.417065e+00
2.356808e+00
0.000000e+00
1.547119e-01
3.620171e-01
6.543667e-01
1.005871e+00
1.344337e+00
1.714720e+00
2.086763e+00
2.450977e+00
2.821534e+00
3.178682e+00
3.541865e+00
3.874346e+00
4.137079e+00
4.306142e+00
4.366423e+00
4.350933e+00
0.000000e+00
4.682779e-01
9.233792e-01
1.420102e+00
1.943694e+00
2.438138e+00
2.945364e+00
3.421591e+00
3.916771e+00
4.446828e+00
4.934752e+00
5.399097e+00
5.817615e+00
6.139402e+00
6.343606e+00
6.434714e+00
6.451455e+00
0.000000e+00
1.028279e+00
1.692489e+00
2.421548e+00
3.116538e+00
3.762452e+00
4.427633e+00
5.010378e+00
5.654536e+00
6.342430e+00
6.977385e+00
7.566343e+00
8.073631e+00
8.431863e+00
8.620067e+00
8.670925e+00
8.670874e+00
0.000000e+00
-6.292465e-01
-1.364833e+00
-2.354870e+00
-3.520320e+00
-4.846009e+00
-6.334923e+00
-7.953768e+00
-9.733050e+00
-1.167707e+01
-1.378269e+01
-1.608364e+01
-1.858120e+01
-2.127380e+01
-2.420536e+01
-2.756854e+01
-3.253059e+01
0.000000e+00
-4.253847e-01
-1.202089e+00
-2.169385e+00
-3.346523e+00
-4.671251e+00
-6.167203e+00
-7.792719e+00
-9.552708e+00
-1.149773e+01
-1.360918e+01
-1.590801e+01
-1.840550e+01
-2.110845e+01
-2.407892e+01
-2.747722e+01
-3.153272e+01
0.000000e+00
-3.955533e-01
-1.097972e+00
-2.063435e+00
-3.221592e+00
-4.538463e+00
-6.040445e+00
-7.667008e+00
-9.438250e+00
-1.138420e+01
-1.350142e+01
-1.580986e+01
-1.832330e+01
-2.105645e+01
-2.406772e+01
-2.731185e+01
-3.035818e+01
0.000000e+00
-4.475139e-01
-1.083136e+00
-2.033831e+00
-3.153872e+00
-4.456877e+00
-5.960110e+00
-7.596188e+00
-9.392783e+00
-1.133756e+01
-1.346541e+01
-1.579319e+01
-1.832506e+01
-2.106425e+01
-2.401124e+01
-2.697405e+01
-2.954672e+01
0.000000e+00
-4.521027e-01
-1.101662e+00
-2.017328e+00
-3.140160e+00
-4.438397e+00
-5.933762e+00
-7.591550e+00
-9.395093e+00
-1.135032e+01
-1.348977e+01
-1.583427e+01
-1.836515e+01
-2.106781e+01
-2.387581e+01
-2.660353e+01
-2.892817e+01
0.000000e+00
-4.472378e-01
-1.084147e+00
-2.037127e+00
-3.160700e+00
-4.469106e+00
-5.980662e+00
-7.629134e+00
-9.440005e+00
-1.140205e+01
-1.355330e+01
-1.590114e+01
-1.841636e+01
-2.105697e+01
-2.374636e+01
-2.631484e+01
-2.853716e+01
0.000000e+00
-3.956015e-01
-1.099993e+00
-2.068862e+00
-3.232611e+00
-4.558383e+00
-6.073951e+00
-7.720365e+00
-9.515935e+00
-1.149246e+01
-1.364584e+01
-1.598585e+01
-1.847903e+01
-2.106404e+01
-2.365816e+01
-2.612969e+01
-2.833866e+01
0.000000e+00
-4.255771e-01
-1.204205e+00
-2.175000e+00
-3.358147e+00
-4.692459e+00
-6.203509e+00
-7.850710e+00
-9.639723e+00
-1.162246e+01
-1.377209e+01
-1.609770e+01
-1.856662e+01
-2.110760e+01
-2.363456e+01
-2.604526e+01
-2.828509e+01
0.000000e+00
-6.296788e-01
-1.367079e+00
-2.360703e+00
-3.532184e+00
-4.867417e+00
-6.371341e+00
-8.010902e+00
-9.817595e+00
-1.179758e+01
-1.393638e+01
-1.624573e+01
-1.868471e+01
-2.118112e+01
-2.365701e+01
-2.602930e+01
-2.828497e+01


0.000000e+00
1.379427e-05
2.427340e-05
3.721104e-05
5.147532e-05
6.527281e-05
7.983501e-05
9.359070e-05
1.089233e-04
1.236406e-04
1.350858e-04
1.444448e-04
1.515995e-04
1.560847e-04
1.593502e-04
1.631612e-04
1.682416e-04
0.000000e+00
9.635473e-06
1.925165e-05
2.897184e-05
4.068041e-05
5.166341e-05
6.269850e-05
7.400876e-05
8.587425e-05
9.632348e-05
1.035571e-04
1.091722e-04
1.127250e-04
1.131046e-04
1.126775e-04
1.164711e-04
1.221298e-04
0.000000e+00
7.850766e-06
1.503117e-05
2.174117e-05
3.026483e-05
3.786299e-05
4.545953e-05
5.328587e-05
6.021825e-05
6.541924e-05
6.890567e-05
7.140427e-05
7.245330e-05
7.184878e-05
7.171176e-05
7.494096e-05
8.013983e-05
0.000000e+00
4.461915e-06
7.145841e-06
1.137958e-05
1.517268e-05
1.890268e-05
2.288836e-05
2.641692e-05
2.933433e-05
3.120996e-05
3.236626e-05
3.276221e-05
3.261025e-05
3.273602e-05
3.375562e-05
3.661319e-05
4.097204e-05
0.000000e+00
-6.351402e-08
-1.388224e-07
-2.111175e-07
-2.815079e-07
-3.419652e-07
-3.946694e-07
-4.434155e-07
-5.615768e-07
-8.843714e-07
-1.586509e-06
-2.551799e-06
-3.348519e-06
-3.373771e-06
-2.400154e-06
-9.314732e-07
1.125865e-06
0.000000e+00
-4.579099e-06
-7.370302e-06
-1.173585e-05
-1.562640e-05
-1.944506e-05
-2.348591e-05
-2.704728e-05
-2.994393e-05
-3.185917e-05
-3.350010e-05
-3.503314e-05
-3.620094e-05
-3.682231e-05
-3.729337e-05
-3.764260e-05
-3.726766e-05
0.000000e+00
-7.917908e-06
-1.515575e-05
-2.192364e-05
-3.053448e-05
-3.821147e-05
-4.587540e-05
-5.370318e-05
-6.046361e-05
-6.519478e-05
-6.784209e-05
-6.934868e-05
-7.042516e-05
-7.143533e-05
-7.247132e-05
-7.334967e-05
-7.358946e-05
0.000000e+00
-9.659573e-06
-1.928088e-05
-2.898514e-05
-4.073113e-05
-5.176959e-05
-6.283882e-05
-7.418453e-05
-8.605136e-05
-9.632244e-05
-1.024834e-04
-1.057890e-04
-1.075699e-04
-1.088096e-04
-1.096816e-04
-1.101271e-04
-1.102506e-04
0.000000e+00
-1.380154e-05
-2.423650e-05
-3.709155e-05
-5.129781e-05
-6.506272e-05
-7.954705e-05
-9.327948e-05
-1.086463e-04
-1.234969e-04
-1.345368e-04
-1.416787e-04
-1.456639e-04
-1.473695e-04
-1.478378e-04
-1.477742e-04
-1.476948e-04
0.000000e+00
1.165546e-05
2.004136e-05
3.198209e-05
4.686792e-05
6.419140e-05
8.547638e-05
1.100715e-04
1.384738e-04
1.692618e-04
2.025576e-04
2.391332e-04
2.777095e-04
3.186911e-04
3.670771e-04
4.234153e-04
4.796612e-04
0.000000e+00
6.755955e-06
1.548975e-05
2.601100e-05
4.068608e-05
5.799587e-05
7.918108e-05
1.036930e-04
1.318036e-04
1.637393e-04
1.984285e-04
2.359580e-04
2.758840e-04
3.178435e-04
3.633527e-04
4.163240e-04
4.706870e-04
0.000000e+00
3.180887e-06
1.107520e-05
2.098974e-05
3.509040e-05
5.283181e-05
7.391251e-05
9.872603e-05
1.275223e-04
1.603823e-04
1.960208e-04
2.342522e-04
2.751095e-04
3.173393e-04
3.588448e-04
4.075288e-04
4.600234e-04
0.000000e+00
2.009125e-06
8.638331e-06
1.862026e-05
3.260852e-05
5.053928e-05
7.187668e-05
9.708668e-05
1.264640e-04
1.594918e-04
1.953128e-04
2.336637e-04
2.747760e-04
3.167502e-04
3.560917e-04
3.995776e-04
4.480750e-04
0.000000e+00
1.634120e-06
8.020575e-06
1.784150e-05
3.193157e-05
4.979121e-05
7.129014e-05
9.674347e-05
1.263267e-04
1.593782e-04
1.951929e-04
2.336159e-04
2.746307e-04
3.166673e-04
3.559206e-04
3.957639e-04
4.389064e-04
0.000000e+00
2.038395e-06
8.663679e-06
1.861304e-05
3.253547e-05
5.039775e-05
7.168567e-05
9.692473e-05
1.264484e-04
1.596391e-04
1.957696e-04
2.344291e-04
2.753142e-04
3.168068e-04
3.567274e-04
3.954387e-04
4.343168e-04
0.000000e+00
3.224607e-06
1.111864e-05
2.096860e-05
3.496852e-05
5.258216e-05
7.355838e-05
9.836421e-05
1.273135e-04
1.605902e-04
1.969830e-04
2.358448e-04
2.763978e-04
3.172016e-04
3.569250e-04
3.953632e-04
4.327478e-04
0.000000e+00
6.810716e-06
1.554129e-05
2.600261e-05
4.058066e-05
5.775597e-05
7.880688e-05
1.032592e-04
1.314957e-04
1.638325e-04
1.991819e-04
2.373308e-04
2.772208e-04
3.174716e-04
3.568995e-04
3.952088e-04
4.326130e-04
0.000000e+00
1.171496e-05
2.008451e-05
3.197633e-05
4.678940e-05
6.398223e-05
8.513394e-05
1.096732e-04
1.381936e-04
1.692159e-04
2.025774e-04
2.391197e-04
2.780061e-04
3.176784e-04
3.569140e-04
3.951357e-04
4.326829e-04


6.408460e+00
6.068934e+00
6.219910e+00
5.251465e+00
4.736638e+00
5.059703e+00
4.896833e+00
4.749270e+00
4.540011e+00
4.705760e+00
5.559604e+00
6.591211e+00
7.292893e+00
7.869860e+00
7.863504e+00
7.601714e+00
7.936950e+00
8.156281e+00
8.159030e+00
7.752944e+00
7.377868e+00
7.497255e+00
7.114444e+00
6.159612e+00
5.502311e+00
5.486801e+00
6.277991e+00
7.162507e+00
7.605473e+00
7.599715e+00
7.056631e+00
6.028758e+00
9.355387e+00
9.509877e+00
9.765979e+00
9.438445e+00
9.276674e+00
9.344446e+00
8.927138e+00
8.036645e+00
7.173458e+00
7.036373e+00
7.428340e+00
7.795016e+00
7.797483e+00
7.393170e+00
6.400065e+00
5.610831e+00
9.628033e+00
9.824584e+00
9.927021e+00
9.724151e+00
9.507458e+00
9.563473e+00
9.610460e+00
9.244979e+00
8.709755e+00
8.378587e+00
8.131625e+00
7.797455e+00
7.484162e+00
7.066610e+00
6.524218e+00
6.028578e+00
9.622133e+00
9.816713e+00
9.904919e+00
9.669216e+00
9.429778e+00
9.491413e+00
9.570589e+00
9.253892e+00
8.788568e+00
8.456143e+00
8.021533e+00
7.436932e+00
7.135448e+00
7.122540e+00
7.032434e+00
6.914314e+00
9.339758e+00
9.495182e+00
9.719222e+00
9.325434e+00
9.107823e+00
9.174320e+00
8.807263e+00
8.023423e+00
7.312738e+00
7.243731e+00
7.354343e+00
7.252215e+00
7.296859e+00
7.679278e+00
8.023177e+00
8.137876e+00
7.921680e+00
8.142555e+00
8.126839e+00
7.668896e+00
7.235368e+00
7.336240e+00
6.985930e+00
6.111238e+00
5.607027e+00
5.778753e+00
6.567942e+00
7.262684e+00
7.793230e+00
8.400912e+00
8.905652e+00
9.110398e+00
6.391353e+00
6.059880e+00
6.208268e+00
5.215365e+00
4.661087e+00
4.956571e+00
4.820079e+00
4.724593e+00
4.621222e+00
5.032055e+00
6.145716e+00
7.323411e+00
8.183896e+00
8.860525e+00
9.347370e+00
9.547282e+00


-9.534696e-01
-1.171551e-01
-3.130413e-01
-3.006106e-01
-1.456976e-01
-2.133419e-01
-4.782608e-03
-1.896488e-01
-3.985309e-01
-2.352353e-01
-2.372677e-01
-3.211029e-01
-2.722585e-01
-1.514879e-01
4.301888e-01
-7.648008e-01
5.771283e-01
4.867141e-01
3.188864e-01
1.824207e-01
2.411599e-01
1.467841e-01
1.905358e-01
1.706449e-01
1.241002e-01
2.565035e-01
2.742520e-01
3.086630e-01
4.869765e-01
7.310226e-01
7.330751e-01
-9.961637e-01
7.235105e-01
4.905506e-01
9.934365e-02
3.299827e-02
4.141761e-02
-3.340523e-02
1.301244e-01
2.432199e-01
3.403702e-01
3.893108e-01
3.810652e-01
4.117418e-01
4.579562e-01
3.335647e-01
5.842238e-02
-4.149660e-01
7.329134e-01
5.685378e-01
2.297227e-01
1.477401e-01
1.033091e-01
6.733887e-02
1.572912e-01
2.153807e-01
2.753171e-01
2.608094e-01
2.247092e-01
1.839881e-01
6.542148e-02
-1.735700e-01
-2.302200e-01
-7.586962e-02
7.344861e-01
5.710716e-01
2.353504e-01
1.522859e-01
1.018256e-01
4.857051e-02
1.121297e-01
1.390296e-01
1.640703e-01
1.022143e-01
1.903275e-02
-4.780080e-02
-1.435541e-01
-1.757724e-01
4.861008e-02
4.523267e-01
7.267001e-01
4.944531e-01
1.063509e-01
3.800188e-02
3.461020e-02
-6.768647e-02
5.121563e-02
1.059782e-01
1.208419e-01
5.418785e-02
-9.025502e-02
-1.426877e-01
-9.589986e-02
5.566204e-02
3.946965e-01
7.842871e-01
5.792648e-01
4.877292e-01
3.199429e-01
1.824536e-01
2.398043e-01
1.383489e-01
1.664294e-01
1.202403e-01
7.487096e-03
4.862395e-02
-2.149817e-02
-6.051352e-03
1.719872e-01
4.327507e-01
7.362847e-01
9.538451e-01
-9.553428e-01
-1.190589e-01
-3.147238e-01
-3.034281e-01
-1.473408e-01
-2.102197e-01
8.502443e-04
-1.571681e-01
-3.284917e-01
-1.468553e-01
-3.483627e-02
1.665643e-01
5.078675e-01
7.959451e-01
9.550746e-01
9.989081e-01
1 2 19 18
2 3 20 19
3 4 21 20
4 5 22 21
5 6 23 22
6 7 24 23
7 8 25 24
8 9 26 25
9 10 27 26
10 11 28 27
11 12 29 28
12 13 30 29
13 14 31 30
14 15 32 31
15 16 33 32
16 17 34 33
18 19 36 35
19 20 37 36
20 21 38 37
21 22 39 38
22 23 40 39
23 24 41 40
24 25 42 41
25 26 43 42
26 27 44 43
27 28 45 44
28 29 46 45
29 30 47 46
30 31 48 47
31 32 49 48
32 33 50 49
33 34 51 50
35 36 53 52
36 37 54 53
37 38 55 54
38 39 56 55
39 40 57 56
40 41 58 57
41 42 59 58
42 43 60 59
43 44 61 60
44 45 62 61
45 46 63 62
46 47 64 63
47 48 65 64
48 49 66 65
49 50 67 66
50 51 68 67
52 53 70 69
53 54 71 70
54 55 72 71
55 56 73 72
56 57 74 73
57 58 75 74
58 59 76 75
59 60 77 76
60 61 78 77
61 62 79 78
62 63 80 79
63 64 81 80
64 65 82 81
65 66 83 82
66 67 84 83
67 68 85 84
69 70 87 86
70 71 88 87
71 72 89 88
72 73 90 89
73 74 91 90
74 75 92 91
75 76 93 92
76 77 94 93
77 78 95 94
78 79 96 95
79 80 97 96
80 81 98 97
81 82 99 98
82 83 100 99
83 84 101 100
84 85 102 101
86 87 104 103
87 88 105 104
88 89 106 105
89 90 107 106
90 91 108 107
91 92 109 108
92 93 110 109
93 94 111 110
94 95 112 111
95 96 113 112
96 97 114 113
97 98 115 114
98 99 116 115
99 100 117 116
100 101 118 117
101 102 119 118
103 104 121 120
104 105 122 121
105 106 123 122
106 107 124 123
107 108 125 124
108 109 126 125
109 110 127 126
110 111 128 127
111 112 129 128
112 113 130 129
113 114 131 130
114 115 132 131
115 116 133 132
116 117 134 133
117 118 135 134
118 119 136 135
120 121 138 137
121 122 139 138
122 123 140 139
123 124 141 140
124 125 142 141
125 126 143 142
126 127 144 143
127 128 145 144
128 129 146 145
129 130 147 146
130 131 148 147
131 132 149 148
132 133 150 149
133 134 151 150
134 135 152 151
135 136 153 152
