TITLE = "Solution"
VARIABLES = x, y, u, v, psiu, psiv, t, stress
ZONE T="structure" N=153 E=128 F=FEBLOCK ET=QUADRILATERAL VARLOCATION=([7,8]=cellcentered)
0.000000e+00
1.250000e+01
2.500000e+01
3.750000e+01
5.000000e+01
6.250000e+01
7.500000e+01
8.750000e+01
1.000000e+02
1.125000e+02
1.250000e+02
1.375000e+02
1.500000e+02
1.625000e+02
1.750000e+02
1.875000e+02
2.000000e+02
0.000000e+00
1.250000e+01
2.500000e+01
3.750000e+01
5.000000e+01
6.250000e+01
7.500000e+01
8.750000e+01
1.000000e+02
1.125000e+02
1.250000e+02
1.375000e+02
1.500000e+02
1.625000e+02
1.750000e+02
1.875000e+02
2.000000e+02
0.000000e+00
1.250000e+01
2.500000e+01
3.750000e+01
5.000000e+01
6.250000e+01
7.500000e+01
8.750000e+01
1.000000e+02
1.125000e+02
1.250000e+02
1.375000e+02
1.500000e+02
1.625000e+02
1.750000e+02
1.875000e+02
2.000000e+02
0.000000e+00
1.250000e+01
2.500000e+01
3.750000e+01
5.000000e+01
6.250000e+01
7.500000e+01
8.750000e+01
1.000000e+02
1.125000e+02
1.250000e+02
1.375000e+02
1.500000e+02
1.625000e+02
1.750000e+02
1.875000e+02
2.000000e+02
0.000000e+00
1.250000e+01
2.500000e+01
3.750000e+01
5.000000e+01
6.250000e+01
7.500000e+01
8.750000e+01
1.000000e+02
1.125000e+02
1.250000e+02
1.375000e+02
1.500000e+02
1.625000e+02
1.750000e+02
1.875000e+02
2.000000e+02
0.000000e+00
1.250000e+01
2.500000e+01
3.750000e+01
5.000000e+01
6.250000e+01
7.500000e+01
8.750000e+01
1.000000e+02
1.125000e+02
1.250000e+02
1.375000e+02
1.500000e+02
1.625000e+02
1.750000e+02
1.875000e+02
2.000000e+02
0.000000e+00
1.250000e+01
2.500000e+01
3.750000e+01
5.000000e+01
6.250000e+01
7.500000e+01
8.750000e+01
1.000000e+02
1.125000e+02
1.250000e+02
1.375000e+02
1.500000e+02
1.625000e+02
1.750000e+02
1.875000e+02
2.000000e+02
0.000000e+00
1.250000e+01
2.500000e+01
3.750000e+01
5.000000e+01
6.250000e+01
7.500000e+01
8.750000e+01
1.000000e+02
1.125000e+02
1.250000e+02
1.375000e+02
1.500000e+02
1.625000e+02
1.750000e+02
1.875000e+02
2.000000e+02
0.000000e+00
1.250000e+01
2.500000e+01
3.750000e+01
5.000000e+01
6.250000e+01
7.500000e+01
8.750000e+01
1.000000e+02
1.125000e+02
1.250000e+02
1.375000e+02
1.500000e+02
1.625000e+02
1.750000e+02
1.875000e+02
2.000000e+02
0.000000e+00
0.000000e+00
0.000000e+00
0.000000e+00
0.000000e+00
0.000000e+00
0.000000e+00
0.000000e+00
0.000000e+00
0.000000e+00
0.000000e+00
0.000000e+00
0.000000e+00
0.000000e+00
0.000000e+00
0.000000e+00
0.000000e+00
1.250000e+01
1.250000e+01
1.250000e+01
1.250000e+01
1.250000e+01
1.250000e+01
1.250000e+01
1.250000e+01
1.250000e+01
1.250000e+01
1.250000e+01
1.250000e+01
1.250000e+01
1.250000e+01
1.250000e+01
1.250000e+01
1.250000e+01
2.500000e+01
2.500000e+01
2.500000e+01
2.500000e+01
2.500000e+01
2.500000e+01
2.500000e+01
2.500000e+01
2.500000e+01
2.500000e+01
2.500000e+01
2.500000e+01
2.500000e+01
2.500000e+01
2.500000e+01
2.500000e+01
2.500000e+01
3.750000e+01
3.750000e+01
3.750000e+01
3.750000e+01
3.750000e+01
3.750000e+01
3.750000e+01
3.750000e+01
3.750000e+01
3.750000e+01
3.750000e+01
3.750000e+01
3.750000e+01
3.750000e+01
3.750000e+01
3.750000e+01
3.750000e+01
5.000000e+01
5.000000e+01
5.000000e+01
5.000000e+01
5.000000e+01
5.000000e+01
5.000000e+01
5.000000e+01
5.000000e+01
5.000000e+01
5.000000e+01
5.000000e+01
5.000000e+01
5.000000e+01
5.000000e+01
5.000000e+01
5.000000e+01
6.250000e+01
6.250000e+01
6.250000e+01
6.250000e+01
6.250000e+01
6.250000e+01
6.250000e+01
6.250000e+01
6.250000e+01
6.250000e+01
6.250000e+01
6.250000e+01
6.250000e+01
6.250000e+01
6.250000e+01
6.250000e+01
6.250000e+01
7.500000e+01
7.500000e+01
7.500000e+01
7.500000e+01
7.500000e+01
7.500000e+01
7.500000e+01
7.500000e+01
7.500000e+01
7.500000e+01
7.500000e+01
7.500000e+01
7.500000e+01
7.500000e+01
7.500000e+01
7.500000e+01
7.500000e+01
8.750000e+01
8.750000e+01
8.750000e+01
8.750000e+01
8.750000e+01
8.750000e+01
8.750000e+01
8.750000e+01
8.750000e+01
8.750000e+01
8.750000e+01
8.750000e+01
8.750000e+01
8.750000e+01
8.750000e+01
8.750000e+01
8.750000e+01
1.000000e+02
1.000000e+02
1.000000e+02
1.000000e+02
1.000000e+02
1.000000e+02
1.000000e+02
1.000000e+02
1.000000e+02
1.000000e+02
1.000000e+02
1.000000e+02
1.000000e+02
1.000000e+02
1.000000e+02
1.000000e+02
1.000000e+02
0.000000e+00
-1.024229e+00
-1.684915e+00
-2.415171e+00
-3.114478e+00
-3.752983e+00
-4.408310e+00
-4.998182e+00
-5.662214e+00
-6.379626e+00
-7.060696e+00
-7.749138e+00
-8.482887e+00
-9.238667e+00
-9.962178e+00
-1.063946e+01
-1.108914e+01
0.000000e+00
-4.676384e-01
-9.212463e-01
-1.420304e+00
-1.949651e+00
-2.441591e+00
-2.944448e+00
-3.427477e+00
-3.936855e+00
-4.478003e+00
-4.975384e+00
-5.470145e+00
-5.983208e+00
-6.463408e+00
-6.783428e+00
-6.857366e+00
-7.019753e+00
0.000000e+00
-1.570496e-01
-3.659008e-01
-6.606289e-01
-1.015116e+00
-1.352927e+00
-1.721180e+00
-2.091984e+00
-2.446588e+00
-2.789789e+00
-3.101999e+00
-3.406643e+00
-3.683290e+00
-3.876578e+00
-3.925695e+00
-3.902999e+00
-4.062932e+00
0.000000e+00
-8.076904e-02
-1.671209e-01
-3.221421e-01
-4.705828e-01
-6.456328e-01
-8.297656e-01
-9.917333e-01
-1.148639e+00
-1.286668e+00
-1.425941e+00
-1.546068e+00
-1.613442e+00
-1.606688e+00
-1.548972e+00
-1.552006e+00
-1.684852e+00
0.000000e+00
-2.192212e-03
-4.111925e-03
-5.677967e-03
-6.562760e-03
-5.651969e-03
-6.888698e-04
1.141193e-02
3.284953e-02
6.465373e-02
1.101476e-01
1.770961e-01
2.720143e-01
3.896512e-01
4.884132e-01
4.979650e-01
3.973301e-01
0.000000e+00
7.721065e-02
1.606972e-01
3.130138e-01
4.601165e-01
6.368852e-01
8.274859e-01
1.006378e+00
1.195201e+00
1.386851e+00
1.610432e+00
1.849435e+00
2.072531e+00
2.261108e+00
2.389572e+00
2.419016e+00
2.359786e+00
0.000000e+00
1.552694e-01
3.626756e-01
6.564121e-01
1.010633e+00
1.347454e+00
1.715664e+00
2.089356e+00
2.453697e+00
2.821353e+00
3.179630e+00
3.545976e+00
3.877724e+00
4.135060e+00
4.299653e+00
4.358243e+00
4.342405e+00
0.000000e+00
4.668652e-01
9.202315e-01
1.419402e+00
1.949589e+00
2.440653e+00
2.941014e+00
3.421270e+00
3.921633e+00
4.447369e+00
4.931560e+00
5.395958e+00
5.815302e+00
6.135299e+00
6.336685e+00
6.425919e+00
6.442141e+00
0.000000e+00
1.024342e+00
1.686366e+00
2.419095e+00
3.121548e+00
3.762743e+00
4.418435e+00
5.008158e+00
5.659449e+00
6.342839e+00
6.971930e+00
7.558185e+00
8.064572e+00
8.422166e+00
8.610399e+00
8.661628e+00
8.661632e+00
0.000000e+00
-6.271917e-01
-1.360043e+00
-2.348756e+00
-3.512344e+00
-4.832955e+00
-6.317148e+00
-7.934627e+00
-9.712856e+00
-1.165543e+01
-1.376182e+01
-1.606452e+01
-1.856729e+01
-2.125885e+01
-2.418236e+01
-2.756373e+01
-3.251857e+01
0.000000e+00
-4.241113e-01
-1.197440e+00
-2.161760e+00
-3.338432e+00
-4.660501e+00
-6.149955e+00
-7.771634e+00
-9.531372e+00
-1.147618e+01
-1.358872e+01
-1.588769e+01
-1.838744e+01
-2.110252e+01
-2.406810e+01
-2.745864e+01
-3.157203e+01
0.000000e+00
-3.941953e-01
-1.093170e+00
-2.055200e+00
-3.213760e+00
-4.528558e+00
-6.023586e+00
-7.646586e+00
-9.416713e+00
-1.136246e+01
-1.348167e+01
-1.579046e+01
-1.830625e+01
-2.105791e+01
-2.405885e+01
-2.727057e+01
-3.029125e+01
0.000000e+00
-4.449145e-01
-1.078009e+00
-2.026197e+00
-3.145777e+00
-4.446322e+00
-5.944619e+00
-7.578420e+00
-9.371618e+00
-1.131558e+01
-1.344711e+01
-1.577840e+01
-1.831044e+01
-2.105960e+01
-2.399899e+01
-2.692702e+01
-2.948339e+01
0.000000e+00
-4.483731e-01
-1.095798e+00
-2.010224e+00
-3.131794e+00
-4.427623e+00
-5.919902e+00
-7.575298e+00
-9.375335e+00
-1.132911e+01
-1.347352e+01
-1.582336e+01
-1.835168e+01
-2.104944e+01
-2.386059e+01
-2.657783e+01
-2.889737e+01
0.000000e+00
-4.442321e-01
-1.078300e+00
-2.029037e+00
-3.152862e+00
-4.459806e+00
-5.966189e+00
-7.613281e+00
-9.421843e+00
-1.138341e+01
-1.353804e+01
-1.589004e+01
-1.840122e+01
-2.103256e+01
-2.371927e+01
-2.628835e+01
-2.850312e+01
0.000000e+00
-3.938337e-01
-1.094271e+00
-2.060003e+00
-3.225507e+00
-4.550198e+00
-6.059162e+00
-7.703293e+00
-9.499593e+00
-1.147604e+01
-1.363081e+01
-1.597225e+01
-1.846139e+01
-2.103742e+01
-2.362641e+01
-2.609735e+01
-2.830255e+01
0.000000e+00
-4.237964e-01
-1.198728e+00
-2.167049e+00
-3.350968e+00
-4.683590e+00
-6.188848e+00
-7.833631e+00
-9.624151e+00
-1.160663e+01
-1.375665e+01
-1.608204e+01
-1.854691e+01
-2.108030e+01
-2.360190e+01
-2.601103e+01
-2.825022e+01
0.000000e+00
-6.270190e-01
-1.361630e+00
-2.354678e+00
-3.525377e+00
-4.856332e+00
-6.356364e+00
-7.995950e+00
-9.802445e+00
-1.178057e+01
-1.391984e+01
-1.622919e+01
-1.866426e+01
-2.115360e+01
-2.362423e+01
-2.599479e+01
-2.825022e+01


0.000000e+00
1.370699e-05
2.425435e-05
3.717162e-05
5.134434e-05
6.510507e-05
7.981759e-05
9.384778e-05
1.088125e-04
1.222310e-04
1.324234e-04
1.409822e-04
1.477714e-04
1.519567e-04
1.547680e-04
1.583142e-04
1.629601e-04
0.000000e+00
9.559532e-06
1.926089e-05
2.899504e-05
4.055592e-05
5.150011e-05
6.279543e-05
7.435063e-05
8.573571e-05
9.491032e-05
1.011361e-04
1.063298e-04
1.098365e-04
1.101129e-04
1.094606e-04
1.124684e-04
1.178370e-04
0.000000e+00
7.789388e-06
1.506009e-05
2.180769e-05
3.019266e-05
3.778326e-05
4.554156e-05
5.335931e-05
5.979978e-05
6.425180e-05
6.721122e-05
6.948996e-05
7.051340e-05
6.993705e-05
6.974542e-05
7.269188e-05
7.787274e-05
0.000000e+00
4.407012e-06
7.186416e-06
1.145576e-05
1.525398e-05
1.896570e-05
2.286794e-05
2.627240e-05
2.895436e-05
3.058356e-05
3.154866e-05
3.185465e-05
3.173978e-05
3.189685e-05
3.294035e-05
3.551626e-05
3.936090e-05
0.000000e+00
-3.352320e-08
-8.969896e-08
-1.561799e-07
-2.276294e-07
-2.903130e-07
-3.458057e-07
-4.201831e-07
-6.012095e-07
-9.881735e-07
-1.722959e-06
-2.611572e-06
-3.233563e-06
-3.191861e-06
-2.366373e-06
-1.187210e-06
5.534672e-07
0.000000e+00
-4.459586e-06
-7.312030e-06
-1.170593e-05
-1.562313e-05
-1.944536e-05
-2.339460e-05
-2.684777e-05
-2.957099e-05
-3.136312e-05
-3.298487e-05
-3.448109e-05
-3.545189e-05
-3.589018e-05
-3.629715e-05
-3.666261e-05
-3.633690e-05
0.000000e+00
-7.806665e-06
-1.509418e-05
-2.189572e-05
-3.041369e-05
-3.811277e-05
-4.592244e-05
-5.371048e-05
-5.995634e-05
-6.395286e-05
-6.627655e-05
-6.786759e-05
-6.895316e-05
-6.978952e-05
-7.063304e-05
-7.135986e-05
-7.156083e-05
0.000000e+00
-9.538895e-06
-1.920953e-05
-2.892602e-05
-4.057004e-05
-5.160600e-05
-6.293985e-05
-7.452946e-05
-8.586433e-05
-9.472822e-05
-9.993083e-05
-1.030761e-04
-1.049486e-04
-1.061126e-04
-1.068807e-04
-1.072552e-04
-1.073514e-04
0.000000e+00
-1.365997e-05
-2.414271e-05
-3.698698e-05
-5.114133e-05
-6.491252e-05
-7.957780e-05
-9.363390e-05
-1.086249e-04
-1.220203e-04
-1.316410e-04
-1.380573e-04
-1.417770e-04
-1.434624e-04
-1.440048e-04
-1.439959e-04
-1.439315e-04
0.000000e+00
1.160456e-05
2.002580e-05
3.190056e-05
4.670494e-05
6.404186e-05
8.536200e-05
1.098267e-04
1.376537e-04
1.676886e-04
2.005017e-04
2.365345e-04
2.742441e-04
3.138571e-04
3.601123e-04
4.143824e-04
4.695242e-04
0.000000e+00
6.692718e-06
1.544863e-05
2.597452e-05
4.057632e-05
5.780570e-05
7.892678e-05
1.034447e-04
1.314197e-04
1.628290e-04
1.968351e-04
2.335721e-04
2.725076e-04
3.132026e-04
3.569715e-04
4.077899e-04
4.611277e-04
0.000000e+00
3.087949e-06
1.099821e-05
2.100243e-05
3.507311e-05
5.260726e-05
7.355212e-05
9.853154e-05
1.274487e-04
1.598930e-04
1.947404e-04
2.320509e-04
2.718108e-04
3.128041e-04
3.530430e-04
3.991836e-04
4.498088e-04
0.000000e+00
1.887215e-06
8.499415e-06
1.863555e-05
3.267743e-05
5.040182e-05
7.154983e-05
9.690877e-05
1.263967e-04
1.590427e-04
1.941797e-04
2.317085e-04
2.715418e-04
3.121955e-04
3.505141e-04
3.920932e-04
4.384749e-04
0.000000e+00
1.507398e-06
7.842419e-06
1.782375e-05
3.201816e-05
4.971758e-05
7.101810e-05
9.657412e-05
1.262193e-04
1.588932e-04
1.941667e-04
2.318597e-04
2.714352e-04
3.118955e-04
3.502585e-04
3.889936e-04
4.304611e-04
0.000000e+00
1.906460e-06
8.496360e-06
1.858543e-05
3.257486e-05
5.025643e-05
7.136703e-05
9.678664e-05
1.264437e-04
1.592573e-04
1.947824e-04
2.326419e-04
2.720172e-04
3.118908e-04
3.508480e-04
3.886796e-04
4.262981e-04
0.000000e+00
3.111535e-06
1.099140e-05
2.091776e-05
3.491111e-05
5.234765e-05
7.321101e-05
9.825210e-05
1.274034e-04
1.602672e-04
1.959218e-04
2.338602e-04
2.729716e-04
3.122334e-04
3.509017e-04
3.884628e-04
4.248860e-04
0.000000e+00
6.711156e-06
1.544006e-05
2.591138e-05
4.044465e-05
5.756292e-05
7.857297e-05
1.031094e-04
1.312979e-04
1.631232e-04
1.978294e-04
2.351785e-04
2.737759e-04
3.125357e-04
3.508358e-04
3.882282e-04
4.247773e-04
0.000000e+00
1.161195e-05
2.000477e-05
3.185295e-05
4.662062e-05
6.384315e-05
8.505075e-05
1.095316e-04
1.375163e-04
1.677766e-04
2.007552e-04
2.368250e-04
2.745558e-04
3.127869e-04
3.508453e-04
3.881439e-04
4.248366e-04


6.450482e+00
6.047695e+00
6.171621e+00
5.206001e+00
4.621327e+00
4.864329e+00
4.783094e+00
4.711813e+00
4.515872e+00
4.682508e+00
5.541454e+00
6.678515e+00
7.374441e+00
6.960406e+00
5.607255e+00
4.625377e+00
7.983347e+00
8.151025e+00
8.109018e+00
7.699942e+00
7.281809e+00
7.384450e+00
7.016101e+00
6.095929e+00
5.466056e+00
5.503078e+00
6.313186e+00
7.265952e+00
7.706034e+00
6.987303e+00
5.430847e+00
4.266977e+00
9.357364e+00
9.490339e+00
9.717164e+00
9.360997e+00
9.223194e+00
9.311056e+00
8.898154e+00
7.983653e+00
7.171691e+00
7.129988e+00
7.531110e+00
7.882112e+00
7.911325e+00
7.133531e+00
5.644472e+00
4.615019e+00
9.508655e+00
9.753669e+00
9.859695e+00
9.630803e+00
9.430851e+00
9.549936e+00
9.599693e+00
9.229213e+00
8.750380e+00
8.511546e+00
8.229045e+00
7.790760e+00
7.537274e+00
7.190676e+00
6.421544e+00
5.777936e+00
9.464753e+00
9.730223e+00
9.856173e+00
9.609210e+00
9.388195e+00
9.454577e+00
9.523282e+00
9.202922e+00
8.808380e+00
8.546533e+00
8.058223e+00
7.333803e+00
7.060269e+00
7.291616e+00
7.366689e+00
7.236767e+00
9.292143e+00
9.453945e+00
9.697050e+00
9.309893e+00
9.087504e+00
9.137095e+00
8.742734e+00
7.943283e+00
7.269086e+00
7.270939e+00
7.378377e+00
7.180041e+00
7.185353e+00
7.728675e+00
8.295504e+00
8.513993e+00
7.935971e+00
8.123949e+00
8.100501e+00
7.641279e+00
7.147239e+00
7.234794e+00
6.919816e+00
6.052266e+00
5.551345e+00
5.779546e+00
6.617708e+00
7.306059e+00
7.795263e+00
8.434190e+00
9.042963e+00
9.317594e+00
6.409708e+00
6.043452e+00
6.181171e+00
5.163111e+00
4.512973e+00
4.777711e+00
4.752701e+00
4.701132e+00
4.574755e+00
5.021396e+00
6.204878e+00
7.432114e+00
8.294430e+00
8.953395e+00
9.449948e+00
9.665537e+00


-9.434310e-01
-1.091937e-01
-3.223290e-01
-3.240592e-01
-1.270828e-01
-1.803070e-01
-2.240482e-02
-2.187036e-01
-3.981525e-01
-2.300276e-01
-2.390556e-01
-3.655149e-01
-3.220708e-01
6.524086e-02
4.963048e-01
-7.282276e-01
5.774672e-01
4.884804e-01
3.143195e-01
1.711902e-01
2.521756e-01
1.651082e-01
1.845795e-01
1.642203e-01
1.340821e-01
2.618687e-01
2.791565e-01
3.071869e-01
4.896601e-01
7.813355e-01
7.252596e-01
-1.402659e+00
7.245066e-01
4.933929e-01
1.038650e-01
3.518921e-02
5.284526e-02
-1.676138e-02
1.364365e-01
2.538102e-01
3.474838e-01
3.854441e-01
3.798328e-01
4.192195e-01
4.497638e-01
3.500456e-01
9.271621e-02
-4.119244e-01
7.376382e-01
5.756565e-01
2.400145e-01
1.564392e-01
1.135707e-01
7.769732e-02
1.605360e-01
2.176880e-01
2.699463e-01
2.455775e-01
2.114080e-01
1.787189e-01
3.978756e-02
-1.808250e-01
-1.362677e-01
3.928372e-02
7.396232e-01
5.779284e-01
2.431427e-01
1.575075e-01
1.101375e-01
6.233536e-02
1.196120e-01
1.451460e-01
1.612535e-01
8.894836e-02
8.523023e-03
-3.983035e-02
-1.392498e-01
-2.185384e-01
1.385973e-02
4.391621e-01
7.283214e-01
4.976874e-01
1.085030e-01
3.547257e-02
4.222576e-02
-5.137797e-02
5.645877e-02
1.160094e-01
1.276994e-01
4.348980e-02
-1.056987e-01
-1.317359e-01
-6.825514e-02
5.902004e-02
3.756119e-01
7.753734e-01
5.807649e-01
4.903458e-01
3.142512e-01
1.667866e-01
2.484440e-01
1.548889e-01
1.565489e-01
1.107141e-01
1.975398e-02
4.843219e-02
-3.542544e-02
-9.544367e-03
1.872394e-01
4.438316e-01
7.373268e-01
9.543614e-01
-9.413092e-01
-1.113916e-01
-3.280809e-01
-3.328989e-01
-1.311711e-01
-1.777064e-01
-1.970390e-02
-1.818941e-01
-3.102004e-01
-1.292986e-01
-3.186126e-02
1.657885e-01
5.116596e-01
7.985291e-01
9.554339e-01
9.989308e-01
1 2 19 18
2 3 20 19
3 4 21 20
4 5 22 21
5 6 23 22
6 7 24 23
7 8 25 24
8 9 26 25
9 10 27 26
10 11 28 27
11 12 29 28
12 13 30 29
13 14 31 30
14 15 32 31
15 16 33 32
16 17 34 33
18 19 36 35
19 20 37 36
20 21 38 37
21 22 39 38
22 23 40 39
23 24 41 40
24 25 42 41
25 26 43 42
26 27 44 43
27 28 45 44
28 29 46 45
29 30 47 46
30 31 48 47
31 32 49 48
32 33 50 49
33 34 51 50
35 36 53 52
36 37 54 53
37 38 55 54
38 39 56 55
39 40 57 56
40 41 58 57
41 42 59 58
42 43 60 59
43 44 61 60
44 45 62 61
45 46 63 62
46 47 64 63
47 48 65 64
48 49 66 65
49 50 67 66
50 51 68 67
52 53 70 69
53 54 71 70
54 55 72 71
55 56 73 72
56 57 74 73
57 58 75 74
58 59 76 75
59 60 77 76
60 61 78 77
61 62 79 78
62 63 80 79
63 64 81 80
64 65 82 81
65 66 83 82
66 67 84 83
67 68 85 84
69 70 87 86
70 71 88 87
71 72 89 88
72 73 90 89
73 74 91 90
74 75 92 91
75 76 93 92
76 77 94 93
77 78 95 94
78 79 96 95
79 80 97 96
80 81 98 97
81 82 99 98
82 83 100 99
83 84 101 100
84 85 102 101
86 87 104 103
87 88 105 104
88 89 106 105
89 90 107 106
90 91 108 107
91 92 109 108
92 93 110 109
93 94 111 110
94 95 112 111
95 96 113 112
96 97 114 113
97 98 115 114
98 99 116 115
99 100 117 116
100 101 118 117
101 102 119 118
103 104 121 120
104 105 122 121
105 106 123 122
106 107 124 123
107 108 125 124
108 109 126 125
109 110 127 126
110 111 128 127
111 112 129 128
112 113 130 129
113 114 131 130
114 115 132 131
115 116 133 132
116 117 134 133
117 118 135 134
118 119 136 135
120 121 138 137
121 122 139 138
122 123 140 139
123 124 141 140
124 125 142 141
125 126 143 142
126 127 144 143
127 128 145 144
128 129 146 145
129 130 147 146
130 131 148 147
131 132 149 148
132 133 150 149
133 134 151 150
134 135 152 151
135 136 153 152
