TITLE = "Solution"
VARIABLES = x, y, u, v, psiu, psiv, t, stress
ZONE T="structure" N=153 E=128 F=FEBLOCK ET=QUADRILATERAL VARLOCATION=([7,8]=cellcentered)
0.000000e+00
1.250000e+01
2.500000e+01
3.750000e+01
5.000000e+01
6.250000e+01
7.500000e+01
8.750000e+01
1.000000e+02
1.125000e+02
1.250000e+02
1.375000e+02
1.500000e+02
1.625000e+02
1.750000e+02
1.875000e+02
2.000000e+02
0.000000e+00
1.250000e+01
2.500000e+01
3.750000e+01
5.000000e+01
6.250000e+01
7.500000e+01
8.750000e+01
1.000000e+02
1.125000e+02
1.250000e+02
1.375000e+02
1.500000e+02
1.625000e+02
1.750000e+02
1.875000e+02
2.000000e+02
0.000000e+00
1.250000e+01
2.500000e+01
3.750000e+01
5.000000e+01
6.250000e+01
7.500000e+01
8.750000e+01
1.000000e+02
1.125000e+02
1.250000e+02
1.375000e+02
1.500000e+02
1.625000e+02
1.750000e+02
1.875000e+02
2.000000e+02
0.000000e+00
1.250000e+01
2.500000e+01
3.750000e+01
5.000000e+01
6.250000e+01
7.500000e+01
8.750000e+01
1.000000e+02
1.125000e+02
1.250000e+02
1.375000e+02
1.500000e+02
1.625000e+02
1.750000e+02
1.875000e+02
2.000000e+02
0.000000e+00
1.250000e+01
2.500000e+01
3.750000e+01
5.000000e+01
6.250000e+01
7.500000e+01
8.750000e+01
1.000000e+02
1.125000e+02
1.250000e+02
1.375000e+02
1.500000e+02
1.625000e+02
1.750000e+02
1.875000e+02
2.000000e+02
0.000000e+00
1.250000e+01
2.500000e+01
3.750000e+01
5.000000e+01
6.250000e+01
7.500000e+01
8.750000e+01
1.000000e+02
1.125000e+02
1.250000e+02
1.375000e+02
1.500000e+02
1.625000e+02
1.750000e+02
1.875000e+02
2.000000e+02
0.000000e+00
1.250000e+01
2.500000e+01
3.750000e+01
5.000000e+01
6.250000e+01
7.500000e+01
8.750000e+01
1.000000e+02
1.125000e+02
1.250000e+02
1.375000e+02
1.500000e+02
1.625000e+02
1.750000e+02
1.875000e+02
2.000000e+02
0.000000e+00
1.250000e+01
2.500000e+01
3.750000e+01
5.000000e+01
6.250000e+01
7.500000e+01
8.750000e+01
1.000000e+02
1.125000e+02
1.250000e+02
1.375000e+02
1.500000e+02
1.625000e+02
1.750000e+02
1.875000e+02
2.000000e+02
0.000000e+00
1.250000e+01
2.500000e+01
3.750000e+01
5.000000e+01
6.250000e+01
7.500000e+01
8.750000e+01
1.000000e+02
1.125000e+02
1.250000e+02
1.375000e+02
1.500000e+02
1.625000e+02
1.750000e+02
1.875000e+02
2.000000e+02
0.000000e+00
0.000000e+00
0.000000e+00
0.000000e+00
0.000000e+00
0.000000e+00
0.000000e+00
0.000000e+00
0.000000e+00
0.000000e+00
0.000000e+00
0.000000e+00
0.000000e+00
0.000000e+00
0.000000e+00
0.000000e+00
0.000000e+00
1.250000e+01
1.250000e+01
1.250000e+01
1.250000e+01
1.250000e+01
1.250000e+01
1.250000e+01
1.250000e+01
1.250000e+01
1.250000e+01
1.250000e+01
1.250000e+01
1.250000e+01
1.250000e+01
1.250000e+01
1.250000e+01
1.250000e+01
2.500000e+01
2.500000e+01
2.500000e+01
2.500000e+01
2.500000e+01
2.500000e+01
2.500000e+01
2.500000e+01
2.500000e+01
2.500000e+01
2.500000e+01
2.500000e+01
2.500000e+01
2.500000e+01
2.500000e+01
2.500000e+01
2.500000e+01
3.750000e+01
3.750000e+01
3.750000e+01
3.750000e+01
3.750000e+01
3.750000e+01
3.750000e+01
3.750000e+01
3.750000e+01
3.750000e+01
3.750000e+01
3.750000e+01
3.750000e+01
3.750000e+01
3.750000e+01
3.750000e+01
3.750000e+01
5.000000e+01
5.000000e+01
5.000000e+01
5.000000e+01
5.000000e+01
5.000000e+01
5.000000e+01
5.000000e+01
5.000000e+01
5.000000e+01
5.000000e+01
5.000000e+01
5.000000e+01
5.000000e+01
5.000000e+01
5.000000e+01
5.000000e+01
6.250000e+01
6.250000e+01
6.250000e+01
6.250000e+01
6.250000e+01
6.250000e+01
6.250000e+01
6.250000e+01
6.250000e+01
6.250000e+01
6.250000e+01
6.250000e+01
6.250000e+01
6.250000e+01
6.250000e+01
6.250000e+01
6.250000e+01
7.500000e+01
7.500000e+01
7.500000e+01
7.500000e+01
7.500000e+01
7.500000e+01
7.500000e+01
7.500000e+01
7.500000e+01
7.500000e+01
7.500000e+01
7.500000e+01
7.500000e+01
7.500000e+01
7.500000e+01
7.500000e+01
7.500000e+01
8.750000e+01
8.750000e+01
8.750000e+01
8.750000e+01
8.750000e+01
8.750000e+01
8.750000e+01
8.750000e+01
8.750000e+01
8.750000e+01
8.750000e+01
8.750000e+01
8.750000e+01
8.750000e+01
8.750000e+01
8.750000e+01
8.750000e+01
1.000000e+02
1.000000e+02
1.000000e+02
1.000000e+02
1.000000e+02
1.000000e+02
1.000000e+02
1.000000e+02
1.000000e+02
1.000000e+02
1.000000e+02
1.000000e+02
1.000000e+02
1.000000e+02
1.000000e+02
1.000000e+02
1.000000e+02
0.000000e+00
-9.118524e-02
-1.616115e-01
-2.241411e-01
-2.878482e-01
-3.522538e-01
-4.110980e-01
-4.627035e-01
-5.101003e-01
-5.528770e-01
-5.903270e-01
-6.236500e-01
-6.551885e-01
-6.877510e-01
-7.248633e-01
-7.707047e-01
-8.066724e-01
0.000000e+00
-5.272318e-02
-1.053092e-01
-1.521431e-01
-1.987235e-01
-2.458395e-01
-2.891633e-01
-3.276560e-01
-3.630405e-01
-3.949925e-01
-4.227679e-01
-4.469061e-01
-4.680966e-01
-4.863114e-01
-4.993582e-01
-5.020259e-01
-5.127654e-01
0.000000e+00
-2.959736e-02
-6.025253e-02
-9.076325e-02
-1.207316e-01
-1.503238e-01
-1.779937e-01
-2.032237e-01
-2.262111e-01
-2.465117e-01
-2.637604e-01
-2.779470e-01
-2.885341e-01
-2.944457e-01
-2.943572e-01
-2.916600e-01
-3.027459e-01
0.000000e+00
-1.130746e-02
-2.360670e-02
-3.656324e-02
-4.963443e-02
-6.239501e-02
-7.464620e-02
-8.602409e-02
-9.629992e-02
-1.050548e-01
-1.120012e-01
-1.168485e-01
-1.190698e-01
-1.183657e-01
-1.159482e-01
-1.167626e-01
-1.247418e-01
0.000000e+00
4.919123e-03
9.789430e-03
1.421758e-02
1.819649e-02
2.180053e-02
2.506038e-02
2.783522e-02
3.017428e-02
3.237235e-02
3.485233e-02
3.802200e-02
4.201236e-02
4.624457e-02
4.906274e-02
4.823182e-02
4.314930e-02
0.000000e+00
2.055105e-02
4.208894e-02
6.371005e-02
8.540325e-02
1.064127e-01
1.255489e-01
1.423817e-01
1.569741e-01
1.694967e-01
1.803748e-01
1.902383e-01
1.991006e-01
2.061641e-01
2.103487e-01
2.107778e-01
2.081852e-01
0.000000e+00
3.696220e-02
7.571787e-02
1.150183e-01
1.552119e-01
1.954105e-01
2.307970e-01
2.610275e-01
2.874663e-01
3.101646e-01
3.289819e-01
3.446885e-01
3.575790e-01
3.671868e-01
3.730973e-01
3.751111e-01
3.744723e-01
0.000000e+00
5.604513e-02
1.168094e-01
1.735616e-01
2.324753e-01
2.929467e-01
3.440148e-01
3.865789e-01
4.245661e-01
4.575735e-01
4.843529e-01
5.056486e-01
5.221364e-01
5.339068e-01
5.411829e-01
5.444278e-01
5.450255e-01
0.000000e+00
9.322565e-02
1.718662e-01
2.450124e-01
3.219770e-01
4.009339e-01
4.667506e-01
5.218374e-01
5.717115e-01
6.151406e-01
6.501703e-01
6.775620e-01
6.978440e-01
7.111865e-01
7.180337e-01
7.198957e-01
7.199021e-01
0.000000e+00
-5.328375e-02
-1.056015e-01
-1.752003e-01
-2.626954e-01
-3.677678e-01
-4.884791e-01
-6.235333e-01
-7.714291e-01
-9.300859e-01
-1.097992e+00
-1.274338e+00
-1.458984e+00
-1.653266e+00
-1.863047e+00
-2.106442e+00
-2.467200e+00
0.000000e+00
-3.289494e-02
-8.877073e-02
-1.587150e-01
-2.459288e-01
-3.516393e-01
-4.740889e-01
-6.106343e-01
-7.597161e-01
-9.197694e-01
-1.089033e+00
-1.266438e+00
-1.451756e+00
-1.646503e+00
-1.856009e+00
-2.097498e+00
-2.399617e+00
0.000000e+00
-2.518892e-02
-7.691872e-02
-1.469878e-01
-2.343720e-01
-3.405730e-01
-4.639760e-01
-6.016561e-01
-7.519291e-01
-9.131284e-01
-1.083540e+00
-1.262236e+00
-1.449025e+00
-1.645172e+00
-1.854559e+00
-2.081891e+00
-2.301812e+00
0.000000e+00
-2.267452e-02
-7.121286e-02
-1.401459e-01
-2.278156e-01
-3.343800e-01
-4.583095e-01
-5.968968e-01
-7.482209e-01
-9.103604e-01
-1.081696e+00
-1.261554e+00
-1.449575e+00
-1.645727e+00
-1.850235e+00
-2.057300e+00
-2.247274e+00
0.000000e+00
-2.264691e-02
-7.006392e-02
-1.382460e-01
-2.259096e-01
-3.328941e-01
-4.572976e-01
-5.964613e-01
-7.483355e-01
-9.110829e-01
-1.082981e+00
-1.263386e+00
-1.451496e+00
-1.645625e+00
-1.843235e+00
-2.037860e+00
-2.216653e+00
0.000000e+00
-2.426889e-02
-7.275605e-02
-1.410835e-01
-2.287085e-01
-3.361920e-01
-4.610556e-01
-6.001313e-01
-7.518094e-01
-9.146099e-01
-1.086613e+00
-1.266828e+00
-1.453894e+00
-1.645094e+00
-1.837202e+00
-2.024971e+00
-2.199768e+00
0.000000e+00
-2.796369e-02
-7.975516e-02
-1.493288e-01
-2.368623e-01
-3.446372e-01
-4.693782e-01
-6.075302e-01
-7.582278e-01
-9.204113e-01
-1.091960e+00
-1.271358e+00
-1.456799e+00
-1.645299e+00
-1.833605e+00
-2.017566e+00
-2.192020e+00
0.000000e+00
-3.621526e-02
-9.328321e-02
-1.634747e-01
-2.513079e-01
-3.584996e-01
-4.817504e-01
-6.182534e-01
-7.675195e-01
-9.284111e-01
-1.098759e+00
-1.276809e+00
-1.460496e+00
-1.646877e+00
-1.832695e+00
-2.014422e+00
-2.190047e+00
0.000000e+00
-5.786793e-02
-1.126183e-01
-1.832664e-01
-2.721033e-01
-3.777866e-01
-4.977848e-01
-6.322310e-01
-7.799554e-01
-9.388627e-01
-1.107170e+00
-1.283335e+00
-1.465092e+00
-1.649547e+00
-1.833502e+00
-2.013848e+00
-2.190036e+00


0.000000e+00
-4.947171e-07
-3.380884e-07
7.505401e-07
1.491033e-06
1.566335e-06
1.378194e-06
1.161342e-06
9.556445e-07
7.807991e-07
6.461743e-07
5.494989e-07
4.864121e-07
4.500766e-07
4.274840e-07
4.057572e-07
3.815216e-07
0.000000e+00
-4.222263e-07
-1.834029e-07
7.959270e-07
1.494457e-06
1.427887e-06
1.208554e-06
1.022388e-06
8.635725e-07
7.298898e-07
6.244695e-07
5.480741e-07
5.014955e-07
4.783681e-07
4.629067e-07
4.406248e-07
4.139958e-07
0.000000e+00
-9.113932e-08
1.171036e-07
6.340603e-07
9.970412e-07
9.873274e-07
9.132927e-07
8.273994e-07
7.468557e-07
6.726302e-07
6.074251e-07
5.562441e-07
5.223351e-07
5.002900e-07
4.806289e-07
4.581553e-07
4.348879e-07
0.000000e+00
1.396507e-07
2.417884e-07
3.947505e-07
4.667587e-07
5.667822e-07
6.190785e-07
6.350471e-07
6.264873e-07
6.024739e-07
5.753591e-07
5.503279e-07
5.255777e-07
5.019219e-07
4.813978e-07
4.637208e-07
4.473910e-07
0.000000e+00
8.560532e-08
1.685668e-07
1.746861e-07
2.003457e-07
2.692165e-07
3.520861e-07
4.187488e-07
4.578746e-07
4.754309e-07
4.871355e-07
4.930450e-07
4.871604e-07
4.751186e-07
4.641321e-07
4.546221e-07
4.440053e-07
0.000000e+00
-2.832500e-08
-1.569207e-08
-2.537970e-08
-2.838376e-08
2.814597e-08
1.041631e-07
1.841056e-07
2.557891e-07
3.135326e-07
3.619755e-07
3.985087e-07
4.171885e-07
4.251062e-07
4.296290e-07
4.298191e-07
4.240989e-07
0.000000e+00
-8.398373e-08
-1.288555e-07
-1.470335e-07
-1.393155e-07
-9.106135e-08
-3.561631e-08
2.734810e-08
1.004021e-07
1.758473e-07
2.439271e-07
2.966996e-07
3.328785e-07
3.585017e-07
3.769701e-07
3.866165e-07
3.865711e-07
0.000000e+00
-9.227899e-08
-1.620835e-07
-1.747857e-07
-1.455300e-07
-9.881629e-08
-6.409959e-08
-2.640134e-08
2.888168e-08
9.800811e-08
1.649978e-07
2.176786e-07
2.550324e-07
2.840669e-07
3.078678e-07
3.240200e-07
3.303858e-07
0.000000e+00
-7.398631e-08
-1.604422e-07
-2.032835e-07
-1.892679e-07
-1.504514e-07
-1.083553e-07
-5.763158e-08
7.639548e-09
7.834694e-08
1.375201e-07
1.766857e-07
2.012855e-07
2.226959e-07
2.464906e-07
2.681131e-07
2.791189e-07
0.000000e+00
-1.604222e-07
1.355260e-07
4.134666e-07
3.078919e-07
1.466346e-07
1.847456e-07
2.446825e-07
2.594909e-07
2.430806e-07
2.130551e-07
1.827011e-07
1.570693e-07
1.257964e-07
7.161268e-08
-4.265076e-09
-8.180167e-08
0.000000e+00
-1.179000e-07
-2.483950e-07
-1.235259e-07
8.558783e-08
1.904252e-07
2.831929e-07
3.350920e-07
3.407438e-07
3.106433e-07
2.645319e-07
2.181966e-07
1.791242e-07
1.416959e-07
9.435138e-08
2.977395e-08
-4.082041e-08
0.000000e+00
-1.246334e-07
-4.390850e-07
-4.087240e-07
-6.395413e-08
2.295484e-07
3.529915e-07
3.991071e-07
3.929596e-07
3.541640e-07
2.973371e-07
2.390731e-07
1.938837e-07
1.580745e-07
1.210142e-07
6.938667e-08
1.025265e-08
0.000000e+00
-1.443615e-07
-4.025550e-07
-3.803004e-07
-8.656485e-08
1.980471e-07
3.507582e-07
4.033551e-07
3.967237e-07
3.616262e-07
3.033051e-07
2.402097e-07
1.990460e-07
1.736838e-07
1.454604e-07
1.029866e-07
5.820010e-08
0.000000e+00
-1.677064e-07
-3.229716e-07
-2.853397e-07
-7.357973e-08
1.438535e-07
2.972046e-07
3.586979e-07
3.647651e-07
3.436571e-07
2.897547e-07
2.279447e-07
1.979572e-07
1.865702e-07
1.666338e-07
1.299156e-07
9.639886e-08
0.000000e+00
-1.568460e-07
-2.537614e-07
-2.018765e-07
-5.141922e-08
1.010962e-07
2.242210e-07
2.873201e-07
3.080630e-07
3.002999e-07
2.563841e-07
2.074940e-07
1.930707e-07
1.945832e-07
1.831101e-07
1.522553e-07
1.261626e-07
0.000000e+00
-1.178129e-07
-1.805905e-07
-1.378240e-07
-3.632267e-08
6.465764e-08
1.576876e-07
2.171289e-07
2.445505e-07
2.429050e-07
2.133175e-07
1.857009e-07
1.859744e-07
1.965896e-07
1.933495e-07
1.697315e-07
1.516968e-07
0.000000e+00
-7.352057e-08
-1.299290e-07
-1.151830e-07
-5.180531e-08
3.191304e-08
1.155904e-07
1.727362e-07
1.974307e-07
1.953444e-07
1.774420e-07
1.669070e-07
1.763036e-07
1.918499e-07
1.958355e-07
1.806278e-07
1.717541e-07
0.000000e+00
-4.105429e-08
-1.117861e-07
-1.283426e-07
-8.689679e-08
1.058908e-09
9.108051e-08
1.474261e-07
1.680678e-07
1.650646e-07
1.540237e-07
1.523235e-07
1.658652e-07
1.835177e-07
1.919129e-07
1.840759e-07
1.811655e-07


2.507306e-01
2.253224e-01
2.145736e-01
2.354689e-01
2.573573e-01
2.583909e-01
2.533529e-01
2.633364e-01
2.700200e-01
2.686789e-01
2.694732e-01
2.786626e-01
2.929364e-01
3.014740e-01
3.061282e-01
3.239767e-01
2.504628e-01
2.401546e-01
2.348424e-01
2.492987e-01
2.687168e-01
2.713708e-01
2.706679e-01
2.767348e-01
2.790813e-01
2.759692e-01
2.768551e-01
2.825094e-01
2.937320e-01
3.032542e-01
3.137498e-01
3.240646e-01
2.729123e-01
2.654686e-01
2.602347e-01
2.676012e-01
2.812794e-01
2.902888e-01
2.932879e-01
2.957407e-01
2.926587e-01
2.878789e-01
2.874100e-01
2.887683e-01
2.923648e-01
3.010113e-01
3.089743e-01
3.178855e-01
3.023445e-01
2.930208e-01
2.834106e-01
2.851524e-01
2.969776e-01
3.066424e-01
3.112653e-01
3.102946e-01
3.030679e-01
2.954711e-01
2.951421e-01
2.956292e-01
2.920661e-01
2.921140e-01
2.975678e-01
3.023565e-01
3.163984e-01
3.087938e-01
3.010653e-01
3.080176e-01
3.197133e-01
3.243049e-01
3.235235e-01
3.174077e-01
3.069034e-01
2.958304e-01
2.956787e-01
2.976957e-01
2.906197e-01
2.868874e-01
2.938669e-01
3.000410e-01
3.137442e-01
3.093707e-01
3.079062e-01
3.300318e-01
3.517065e-01
3.436638e-01
3.273016e-01
3.179715e-01
3.050686e-01
2.899682e-01
2.867512e-01
2.887005e-01
2.857179e-01
2.887287e-01
3.019767e-01
3.104904e-01
3.020776e-01
3.003389e-01
3.061511e-01
3.449258e-01
3.748433e-01
3.505545e-01
3.199674e-01
3.121722e-01
3.039054e-01
2.868923e-01
2.781340e-01
2.799324e-01
2.843729e-01
2.975162e-01
3.146987e-01
3.233461e-01
2.876118e-01
2.930511e-01
3.013142e-01
3.477493e-01
3.809636e-01
3.446484e-01
3.081849e-01
3.081135e-01
3.050138e-01
2.884995e-01
2.785672e-01
2.799183e-01
2.896554e-01
3.060919e-01
3.225599e-01
3.310104e-01


9.819035e-01
9.867336e-01
9.895109e-01
9.893260e-01
9.890998e-01
9.908274e-01
9.928370e-01
9.939520e-01
9.950731e-01
9.962481e-01
9.970975e-01
9.975770e-01
9.977768e-01
9.978083e-01
9.978885e-01
9.898454e-01
9.939200e-01
9.935114e-01
9.943418e-01
9.944064e-01
9.943154e-01
9.950197e-01
9.958867e-01
9.964871e-01
9.971458e-01
9.978557e-01
9.984383e-01
9.989313e-01
9.993674e-01
9.996706e-01
9.986535e-01
9.852069e-01
9.982781e-01
9.976569e-01
9.974656e-01
9.974211e-01
9.973203e-01
9.973987e-01
9.976399e-01
9.979058e-01
9.982412e-01
9.985982e-01
9.988920e-01
9.991069e-01
9.991307e-01
9.986176e-01
9.967538e-01
9.934134e-01
9.996389e-01
9.991241e-01
9.988514e-01
9.986795e-01
9.984611e-01
9.983254e-01
9.983456e-01
9.984201e-01
9.985252e-01
9.986355e-01
9.986642e-01
9.985865e-01
9.983653e-01
9.978992e-01
9.974352e-01
9.973535e-01
9.990851e-01
9.985285e-01
9.982699e-01
9.981156e-01
9.979657e-01
9.979684e-01
9.981072e-01
9.982374e-01
9.983230e-01
9.983697e-01
9.982993e-01
9.981657e-01
9.980890e-01
9.981035e-01
9.983774e-01
9.989793e-01
9.967683e-01
9.959828e-01
9.957456e-01
9.955821e-01
9.955432e-01
9.962170e-01
9.969399e-01
9.974122e-01
9.977749e-01
9.980633e-01
9.981683e-01
9.982073e-01
9.983660e-01
9.986614e-01
9.991207e-01
9.996720e-01
9.920573e-01
9.907096e-01
9.913814e-01
9.908809e-01
9.906180e-01
9.929430e-01
9.948497e-01
9.958287e-01
9.967092e-01
9.975768e-01
9.981364e-01
9.985090e-01
9.988751e-01
9.992585e-01
9.996516e-01
9.999380e-01
9.802158e-01
9.829668e-01
9.852140e-01
9.838304e-01
9.830645e-01
9.880267e-01
9.916012e-01
9.931913e-01
9.948238e-01
9.965742e-01
9.978237e-01
9.986981e-01
9.993300e-01
9.997353e-01
9.999416e-01
9.999985e-01
1 2 19 18
2 3 20 19
3 4 21 20
4 5 22 21
5 6 23 22
6 7 24 23
7 8 25 24
8 9 26 25
9 10 27 26
10 11 28 27
11 12 29 28
12 13 30 29
13 14 31 30
14 15 32 31
15 16 33 32
16 17 34 33
18 19 36 35
19 20 37 36
20 21 38 37
21 22 39 38
22 23 40 39
23 24 41 40
24 25 42 41
25 26 43 42
26 27 44 43
27 28 45 44
28 29 46 45
29 30 47 46
30 31 48 47
31 32 49 48
32 33 50 49
33 34 51 50
35 36 53 52
36 37 54 53
37 38 55 54
38 39 56 55
39 40 57 56
40 41 58 57
41 42 59 58
42 43 60 59
43 44 61 60
44 45 62 61
45 46 63 62
46 47 64 63
47 48 65 64
48 49 66 65
49 50 67 66
50 51 68 67
52 53 70 69
53 54 71 70
54 55 72 71
55 56 73 72
56 57 74 73
57 58 75 74
58 59 76 75
59 60 77 76
60 61 78 77
61 62 79 78
62 63 80 79
63 64 81 80
64 65 82 81
65 66 83 82
66 67 84 83
67 68 85 84
69 70 87 86
70 71 88 87
71 72 89 88
72 73 90 89
73 74 91 90
74 75 92 91
75 76 93 92
76 77 94 93
77 78 95 94
78 79 96 95
79 80 97 96
80 81 98 97
81 82 99 98
82 83 100 99
83 84 101 100
84 85 102 101
86 87 104 103
87 88 105 104
88 89 106 105
89 90 107 106
90 91 108 107
91 92 109 108
92 93 110 109
93 94 111 110
94 95 112 111
95 96 113 112
96 97 114 113
97 98 115 114
98 99 116 115
99 100 117 116
100 101 118 117
101 102 119 118
103 104 121 120
104 105 122 121
105 106 123 122
106 107 124 123
107 108 125 124
108 109 126 125
109 110 127 126
110 111 128 127
111 112 129 128
112 113 130 129
113 114 131 130
114 115 132 131
115 116 133 132
116 117 134 133
117 118 135 134
118 119 136 135
120 121 138 137
121 122 139 138
122 123 140 139
123 124 141 140
124 125 142 141
125 126 143 142
126 127 144 143
127 128 145 144
128 129 146 145
129 130 147 146
130 131 148 147
131 132 149 148
132 133 150 149
133 134 151 150
134 135 152 151
135 136 153 152
