TITLE = "Solution"
VARIABLES = x, y, u, v, psiu, psiv, t, stress
ZONE T="structure" N=153 E=128 F=FEBLOCK ET=QUADRILATERAL VARLOCATION=([7,8]=cellcentered)
0.000000e+00
1.250000e+01
2.500000e+01
3.750000e+01
5.000000e+01
6.250000e+01
7.500000e+01
8.750000e+01
1.000000e+02
1.125000e+02
1.250000e+02
1.375000e+02
1.500000e+02
1.625000e+02
1.750000e+02
1.875000e+02
2.000000e+02
0.000000e+00
1.250000e+01
2.500000e+01
3.750000e+01
5.000000e+01
6.250000e+01
7.500000e+01
8.750000e+01
1.000000e+02
1.125000e+02
1.250000e+02
1.375000e+02
1.500000e+02
1.625000e+02
1.750000e+02
1.875000e+02
2.000000e+02
0.000000e+00
1.250000e+01
2.500000e+01
3.750000e+01
5.000000e+01
6.250000e+01
7.500000e+01
8.750000e+01
1.000000e+02
1.125000e+02
1.250000e+02
1.375000e+02
1.500000e+02
1.625000e+02
1.750000e+02
1.875000e+02
2.000000e+02
0.000000e+00
1.250000e+01
2.500000e+01
3.750000e+01
5.000000e+01
6.250000e+01
7.500000e+01
8.750000e+01
1.000000e+02
1.125000e+02
1.250000e+02
1.375000e+02
1.500000e+02
1.625000e+02
1.750000e+02
1.875000e+02
2.000000e+02
0.000000e+00
1.250000e+01
2.500000e+01
3.750000e+01
5.000000e+01
6.250000e+01
7.500000e+01
8.750000e+01
1.000000e+02
1.125000e+02
1.250000e+02
1.375000e+02
1.500000e+02
1.625000e+02
1.750000e+02
1.875000e+02
2.000000e+02
0.000000e+00
1.250000e+01
2.500000e+01
3.750000e+01
5.000000e+01
6.250000e+01
7.500000e+01
8.750000e+01
1.000000e+02
1.125000e+02
1.250000e+02
1.375000e+02
1.500000e+02
1.625000e+02
1.750000e+02
1.875000e+02
2.000000e+02
0.000000e+00
1.250000e+01
2.500000e+01
3.750000e+01
5.000000e+01
6.250000e+01
7.500000e+01
8.750000e+01
1.000000e+02
1.125000e+02
1.250000e+02
1.375000e+02
1.500000e+02
1.625000e+02
1.750000e+02
1.875000e+02
2.000000e+02
0.000000e+00
1.250000e+01
2.500000e+01
3.750000e+01
5.000000e+01
6.250000e+01
7.500000e+01
8.750000e+01
1.000000e+02
1.125000e+02
1.250000e+02
1.375000e+02
1.500000e+02
1.625000e+02
1.750000e+02
1.875000e+02
2.000000e+02
0.000000e+00
1.250000e+01
2.500000e+01
3.750000e+01
5.000000e+01
6.250000e+01
7.500000e+01
8.750000e+01
1.000000e+02
1.125000e+02
1.250000e+02
1.375000e+02
1.500000e+02
1.625000e+02
1.750000e+02
1.875000e+02
2.000000e+02
0.000000e+00
0.000000e+00
0.000000e+00
0.000000e+00
0.000000e+00
0.000000e+00
0.000000e+00
0.000000e+00
0.000000e+00
0.000000e+00
0.000000e+00
0.000000e+00
0.000000e+00
0.000000e+00
0.000000e+00
0.000000e+00
0.000000e+00
1.250000e+01
1.250000e+01
1.250000e+01
1.250000e+01
1.250000e+01
1.250000e+01
1.250000e+01
1.250000e+01
1.250000e+01
1.250000e+01
1.250000e+01
1.250000e+01
1.250000e+01
1.250000e+01
1.250000e+01
1.250000e+01
1.250000e+01
2.500000e+01
2.500000e+01
2.500000e+01
2.500000e+01
2.500000e+01
2.500000e+01
2.500000e+01
2.500000e+01
2.500000e+01
2.500000e+01
2.500000e+01
2.500000e+01
2.500000e+01
2.500000e+01
2.500000e+01
2.500000e+01
2.500000e+01
3.750000e+01
3.750000e+01
3.750000e+01
3.750000e+01
3.750000e+01
3.750000e+01
3.750000e+01
3.750000e+01
3.750000e+01
3.750000e+01
3.750000e+01
3.750000e+01
3.750000e+01
3.750000e+01
3.750000e+01
3.750000e+01
3.750000e+01
5.000000e+01
5.000000e+01
5.000000e+01
5.000000e+01
5.000000e+01
5.000000e+01
5.000000e+01
5.000000e+01
5.000000e+01
5.000000e+01
5.000000e+01
5.000000e+01
5.000000e+01
5.000000e+01
5.000000e+01
5.000000e+01
5.000000e+01
6.250000e+01
6.250000e+01
6.250000e+01
6.250000e+01
6.250000e+01
6.250000e+01
6.250000e+01
6.250000e+01
6.250000e+01
6.250000e+01
6.250000e+01
6.250000e+01
6.250000e+01
6.250000e+01
6.250000e+01
6.250000e+01
6.250000e+01
7.500000e+01
7.500000e+01
7.500000e+01
7.500000e+01
7.500000e+01
7.500000e+01
7.500000e+01
7.500000e+01
7.500000e+01
7.500000e+01
7.500000e+01
7.500000e+01
7.500000e+01
7.500000e+01
7.500000e+01
7.500000e+01
7.500000e+01
8.750000e+01
8.750000e+01
8.750000e+01
8.750000e+01
8.750000e+01
8.750000e+01
8.750000e+01
8.750000e+01
8.750000e+01
8.750000e+01
8.750000e+01
8.750000e+01
8.750000e+01
8.750000e+01
8.750000e+01
8.750000e+01
8.750000e+01
1.000000e+02
1.000000e+02
1.000000e+02
1.000000e+02
1.000000e+02
1.000000e+02
1.000000e+02
1.000000e+02
1.000000e+02
1.000000e+02
1.000000e+02
1.000000e+02
1.000000e+02
1.000000e+02
1.000000e+02
1.000000e+02
1.000000e+02
0.000000e+00
-1.027499e+00
-1.691611e+00
-2.418632e+00
-3.109201e+00
-3.755322e+00
-4.424498e+00
-5.005911e+00
-5.657518e+00
-6.374258e+00
-7.056870e+00
-7.741971e+00
-8.459656e+00
-9.198119e+00
-1.001452e+01
-1.072065e+01
-1.116235e+01
0.000000e+00
-4.686068e-01
-9.246511e-01
-1.421327e+00
-1.942969e+00
-2.440038e+00
-2.952840e+00
-3.431234e+00
-3.932630e+00
-4.475857e+00
-4.975633e+00
-5.468999e+00
-5.972251e+00
-6.452721e+00
-6.830230e+00
-6.934622e+00
-7.103894e+00
0.000000e+00
-1.563368e-01
-3.648549e-01
-6.579165e-01
-1.009689e+00
-1.350161e+00
-1.722139e+00
-2.091773e+00
-2.446994e+00
-2.794240e+00
-3.107460e+00
-3.412953e+00
-3.691683e+00
-3.891177e+00
-3.956336e+00
-3.935751e+00
-4.085222e+00
0.000000e+00
-7.901432e-02
-1.646147e-01
-3.195219e-01
-4.681358e-01
-6.443507e-01
-8.299947e-01
-9.938572e-01
-1.154802e+00
-1.293777e+00
-1.432397e+00
-1.554334e+00
-1.628913e+00
-1.630317e+00
-1.565377e+00
-1.557324e+00
-1.694805e+00
0.000000e+00
-2.019336e-03
-4.287057e-03
-6.357975e-03
-7.498122e-03
-6.274051e-03
-7.010687e-04
1.142359e-02
3.195188e-02
6.238025e-02
1.062214e-01
1.712828e-01
2.643578e-01
3.796565e-01
4.714293e-01
4.794644e-01
3.765389e-01
0.000000e+00
7.567361e-02
1.584131e-01
3.100989e-01
4.567396e-01
6.338407e-01
8.258607e-01
1.006484e+00
1.198733e+00
1.388790e+00
1.607186e+00
1.842705e+00
2.069083e+00
2.262599e+00
2.391682e+00
2.417304e+00
2.356336e+00
0.000000e+00
1.548787e-01
3.623761e-01
6.542775e-01
1.004423e+00
1.343049e+00
1.714161e+00
2.085998e+00
2.450730e+00
2.822293e+00
3.178454e+00
3.540736e+00
3.874103e+00
4.137932e+00
4.307272e+00
4.367542e+00
4.351828e+00
0.000000e+00
4.685209e-01
9.245148e-01
1.420598e+00
1.941503e+00
2.437237e+00
2.947159e+00
3.421471e+00
3.914419e+00
4.445831e+00
4.934120e+00
5.397729e+00
5.816790e+00
6.139998e+00
6.345029e+00
6.436461e+00
6.453239e+00
0.000000e+00
1.028666e+00
1.693881e+00
2.422010e+00
3.114071e+00
3.762355e+00
4.431675e+00
5.010941e+00
5.651347e+00
6.340172e+00
6.975964e+00
7.564862e+00
8.073263e+00
8.433098e+00
8.622131e+00
8.673412e+00
8.673490e+00
0.000000e+00
-6.293599e-01
-1.365144e+00
-2.354532e+00
-3.519420e+00
-4.846342e+00
-6.337013e+00
-7.956444e+00
-9.736020e+00
-1.168056e+01
-1.378536e+01
-1.608430e+01
-1.858027e+01
-2.127451e+01
-2.420949e+01
-2.757608e+01
-3.253385e+01
0.000000e+00
-4.252413e-01
-1.202291e+00
-2.169693e+00
-3.345752e+00
-4.670596e+00
-6.169034e+00
-7.796231e+00
-9.556071e+00
-1.150092e+01
-1.361188e+01
-1.590936e+01
-1.840435e+01
-2.110585e+01
-2.408091e+01
-2.748632e+01
-3.154099e+01
0.000000e+00
-3.952837e-01
-1.098168e+00
-2.064081e+00
-3.220766e+00
-4.537435e+00
-6.042191e+00
-7.670516e+00
-9.441775e+00
-1.138722e+01
-1.350369e+01
-1.581096e+01
-1.832190e+01
-2.105294e+01
-2.406936e+01
-2.732236e+01
-3.037577e+01
0.000000e+00
-4.472234e-01
-1.083297e+00
-2.034312e+00
-3.153080e+00
-4.455884e+00
-5.961449e+00
-7.599164e+00
-9.396630e+00
-1.134056e+01
-1.346675e+01
-1.579323e+01
-1.832405e+01
-2.106206e+01
-2.401251e+01
-2.698451e+01
-2.956408e+01
0.000000e+00
-4.519320e-01
-1.101847e+00
-2.017589e+00
-3.139447e+00
-4.437494e+00
-5.934613e+00
-7.594321e+00
-9.398955e+00
-1.135325e+01
-1.349008e+01
-1.583332e+01
-1.836481e+01
-2.106774e+01
-2.387689e+01
-2.661068e+01
-2.893998e+01
0.000000e+00
-4.469645e-01
-1.084342e+00
-2.037673e+00
-3.159902e+00
-4.468079e+00
-5.982088e+00
-7.631885e+00
-9.443601e+00
-1.140452e+01
-1.355323e+01
-1.589982e+01
-1.841642e+01
-2.105815e+01
-2.374807e+01
-2.631954e+01
-2.854494e+01
0.000000e+00
-3.953210e-01
-1.100238e+00
-2.069595e+00
-3.231737e+00
-4.557414e+00
-6.075932e+00
-7.723720e+00
-9.518883e+00
-1.149442e+01
-1.364587e+01
-1.598468e+01
-1.847905e+01
-2.106564e+01
-2.366043e+01
-2.613354e+01
-2.834444e+01
0.000000e+00
-4.254330e-01
-1.204455e+00
-2.175355e+00
-3.357343e+00
-4.691887e+00
-6.205575e+00
-7.854095e+00
-9.642260e+00
-1.162418e+01
-1.377230e+01
-1.609684e+01
-1.856663e+01
-2.110930e+01
-2.363725e+01
-2.604907e+01
-2.829013e+01
0.000000e+00
-6.298254e-01
-1.367437e+00
-2.360348e+00
-3.531261e+00
-4.867850e+00
-6.373491e+00
-8.013253e+00
-9.819760e+00
-1.179950e+01
-1.393670e+01
-1.624505e+01
-1.868502e+01
-2.118306e+01
-2.365996e+01
-2.603319e+01
-2.828986e+01


0.000000e+00
1.369969e-05
2.418026e-05
3.721719e-05
5.151100e-05
6.525552e-05
7.977775e-05
9.352810e-05
1.089499e-04
1.238079e-04
1.353317e-04
1.447485e-04
1.519624e-04
1.564705e-04
1.597092e-04
1.634918e-04
1.685365e-04
0.000000e+00
9.535793e-06
1.914931e-05
2.900319e-05
4.077331e-05
5.166801e-05
6.260726e-05
7.394901e-05
8.595445e-05
9.653335e-05
1.037917e-04
1.094293e-04
1.130278e-04
1.134037e-04
1.129155e-04
1.167420e-04
1.223692e-04
0.000000e+00
7.770047e-06
1.495150e-05
2.177191e-05
3.034689e-05
3.786821e-05
4.540264e-05
5.329992e-05
6.034794e-05
6.560296e-05
6.908979e-05
7.159718e-05
7.265235e-05
7.201598e-05
7.183550e-05
7.506534e-05
8.024154e-05
0.000000e+00
4.436734e-06
7.123025e-06
1.138080e-05
1.518377e-05
1.891196e-05
2.291946e-05
2.647902e-05
2.943015e-05
3.132338e-05
3.248665e-05
3.286672e-05
3.267688e-05
3.276142e-05
3.375017e-05
3.661499e-05
4.100036e-05
0.000000e+00
-5.841591e-08
-1.300963e-07
-2.011286e-07
-2.725994e-07
-3.348656e-07
-3.852585e-07
-4.245741e-07
-5.278369e-07
-8.404367e-07
-1.545527e-06
-2.541192e-06
-3.386866e-06
-3.443706e-06
-2.480233e-06
-9.984781e-07
1.085224e-06
0.000000e+00
-4.543815e-06
-7.330466e-06
-1.171860e-05
-1.562275e-05
-1.944554e-05
-2.351397e-05
-2.709505e-05
-3.000446e-05
-3.191433e-05
-3.355612e-05
-3.510636e-05
-3.630498e-05
-3.694144e-05
-3.741012e-05
-3.775714e-05
-3.737960e-05
0.000000e+00
-7.826760e-06
-1.505956e-05
-2.194000e-05
-3.060322e-05
-3.820789e-05
-4.581856e-05
-5.372096e-05
-6.058879e-05
-6.536387e-05
-6.800041e-05
-6.950342e-05
-7.059202e-05
-7.160804e-05
-7.264026e-05
-7.351987e-05
-7.376009e-05
0.000000e+00
-9.551024e-06
-1.916589e-05
-2.900692e-05
-4.081126e-05
-5.175680e-05
-6.272321e-05
-7.409297e-05
-8.611338e-05
-9.654851e-05
-1.027424e-04
-1.060433e-04
-1.078275e-04
-1.090740e-04
-1.099413e-04
-1.103835e-04
-1.105067e-04
0.000000e+00
-1.370099e-05
-2.413691e-05
-3.709437e-05
-5.132397e-05
-6.502214e-05
-7.944557e-05
-9.314581e-05
-1.086179e-04
-1.236742e-04
-1.348416e-04
-1.420307e-04
-1.460262e-04
-1.477163e-04
-1.481727e-04
-1.481109e-04
-1.480331e-04
0.000000e+00
1.158339e-05
2.000838e-05
3.199130e-05
4.680127e-05
6.403193e-05
8.532860e-05
1.099844e-04
1.384293e-04
1.692058e-04
2.024841e-04
2.391200e-04
2.777954e-04
3.188576e-04
3.674156e-04
4.238438e-04
4.799900e-04
0.000000e+00
6.705188e-06
1.542201e-05
2.597033e-05
4.062553e-05
5.787733e-05
7.905114e-05
1.035776e-04
1.316913e-04
1.636335e-04
1.983355e-04
2.359218e-04
2.759495e-04
3.180182e-04
3.636564e-04
4.167738e-04
4.711124e-04
0.000000e+00
3.147916e-06
1.098095e-05
2.090154e-05
3.502631e-05
5.275456e-05
7.379614e-05
9.856980e-05
1.273550e-04
1.602447e-04
1.959115e-04
2.341945e-04
2.751678e-04
3.175308e-04
3.591219e-04
4.079981e-04
4.605833e-04
0.000000e+00
1.979330e-06
8.563773e-06
1.853631e-05
3.252599e-05
5.044380e-05
7.175466e-05
9.693023e-05
1.263001e-04
1.593476e-04
1.951821e-04
2.335849e-04
2.748483e-04
3.169663e-04
3.563810e-04
4.000067e-04
4.486618e-04
0.000000e+00
1.602333e-06
7.957828e-06
1.777141e-05
3.184057e-05
4.967472e-05
7.116300e-05
9.659580e-05
1.261670e-04
1.592243e-04
1.950387e-04
2.335251e-04
2.747243e-04
3.169133e-04
3.562231e-04
3.961431e-04
4.394251e-04
0.000000e+00
2.008083e-06
8.586155e-06
1.852797e-05
3.245617e-05
5.030946e-05
7.156981e-05
9.676057e-05
1.262612e-04
1.594644e-04
1.956121e-04
2.343541e-04
2.754305e-04
3.170595e-04
3.570265e-04
3.958075e-04
4.347918e-04
0.000000e+00
3.189226e-06
1.101979e-05
2.088220e-05
3.491329e-05
5.251879e-05
7.344917e-05
9.818705e-05
1.270948e-04
1.604001e-04
1.968418e-04
2.358040e-04
2.765267e-04
3.174468e-04
3.572153e-04
3.957267e-04
4.332068e-04
0.000000e+00
6.754921e-06
1.546946e-05
2.596589e-05
4.053065e-05
5.765008e-05
7.868218e-05
1.031184e-04
1.313280e-04
1.636739e-04
1.990617e-04
2.373106e-04
2.773452e-04
3.177045e-04
3.571896e-04
3.955765e-04
4.330681e-04
0.000000e+00
1.163558e-05
2.004852e-05
3.199002e-05
4.673048e-05
6.383063e-05
8.498436e-05
1.095591e-04
1.381136e-04
1.691341e-04
2.024856e-04
2.391071e-04
2.781262e-04
3.179016e-04
3.572061e-04
3.955045e-04
4.331367e-04


6.358384e+00
6.065402e+00
6.257655e+00
5.278141e+00
4.767463e+00
5.119408e+00
4.935474e+00
4.762394e+00
4.551768e+00
4.708519e+00
5.538620e+00
6.582270e+00
7.399188e+00
8.169951e+00
8.201398e+00
7.808295e+00
7.894048e+00
8.146380e+00
8.175220e+00
7.762171e+00
7.381297e+00
7.519786e+00
7.156651e+00
6.195705e+00
5.526695e+00
5.496040e+00
6.267037e+00
7.154728e+00
7.674169e+00
7.812693e+00
7.314182e+00
6.200602e+00
9.327823e+00
9.495126e+00
9.765070e+00
9.432975e+00
9.269744e+00
9.360339e+00
8.964743e+00
8.073257e+00
7.183861e+00
7.030300e+00
7.422295e+00
7.784113e+00
7.798446e+00
7.464784e+00
6.524458e+00
5.726630e+00
9.611300e+00
9.811748e+00
9.914795e+00
9.714500e+00
9.514388e+00
9.590597e+00
9.639230e+00
9.246038e+00
8.670919e+00
8.331437e+00
8.114669e+00
7.789883e+00
7.452584e+00
7.042480e+00
6.559786e+00
6.098722e+00
9.607117e+00
9.805547e+00
9.893750e+00
9.660955e+00
9.438240e+00
9.520789e+00
9.600522e+00
9.250180e+00
8.731893e+00
8.385446e+00
7.997056e+00
7.446593e+00
7.123597e+00
7.094538e+00
7.042139e+00
6.968252e+00
9.317498e+00
9.484327e+00
9.720828e+00
9.320877e+00
9.102521e+00
9.194538e+00
8.849795e+00
8.054923e+00
7.293461e+00
7.194674e+00
7.336951e+00
7.277167e+00
7.315504e+00
7.672971e+00
8.028174e+00
8.170539e+00
7.884338e+00
8.137532e+00
8.144770e+00
7.677256e+00
7.239238e+00
7.362971e+00
7.037787e+00
6.154161e+00
5.621472e+00
5.763538e+00
6.557408e+00
7.284156e+00
7.824017e+00
8.411893e+00
8.908506e+00
9.121501e+00
6.346257e+00
6.060352e+00
6.247766e+00
5.241104e+00
4.692895e+00
5.022434e+00
4.870562e+00
4.755068e+00
4.640039e+00
5.029562e+00
6.135755e+00
7.335115e+00
8.214514e+00
8.881080e+00
9.353195e+00
9.551056e+00


-9.544098e-01
-1.206014e-01
-3.099747e-01
-2.898569e-01
-1.525063e-01
-2.279846e-01
1.819898e-03
-1.778018e-01
-4.016853e-01
-2.386836e-01
-2.301800e-01
-3.120961e-01
-2.950814e-01
-2.170867e-01
4.197269e-01
-7.350601e-01
5.769926e-01
4.855055e-01
3.204072e-01
1.887607e-01
2.388730e-01
1.397418e-01
1.925503e-01
1.734220e-01
1.192352e-01
2.531527e-01
2.742513e-01
3.078246e-01
4.764293e-01
7.174794e-01
7.316436e-01
-9.633474e-01
7.239625e-01
4.901934e-01
9.949145e-02
3.681619e-02
4.073445e-02
-4.097668e-02
1.242258e-01
2.372447e-01
3.367194e-01
3.886542e-01
3.805728e-01
4.114364e-01
4.588876e-01
3.295606e-01
4.943715e-02
-4.171132e-01
7.331673e-01
5.677674e-01
2.290453e-01
1.493507e-01
1.020476e-01
6.103441e-02
1.533198e-01
2.150025e-01
2.797273e-01
2.673263e-01
2.298878e-01
1.890159e-01
7.393775e-02
-1.709448e-01
-2.467471e-01
-9.573491e-02
7.347236e-01
5.702900e-01
2.346008e-01
1.538386e-01
1.004678e-01
4.213494e-02
1.091875e-01
1.409195e-01
1.726718e-01
1.134526e-01
2.528611e-02
-4.728013e-02
-1.406568e-01
-1.718103e-01
4.123845e-02
4.425073e-01
7.271260e-01
4.940794e-01
1.066217e-01
4.229675e-02
3.401779e-02
-7.557635e-02
4.597820e-02
1.009430e-01
1.209698e-01
6.139357e-02
-8.612266e-02
-1.479257e-01
-1.005502e-01
5.524905e-02
3.917825e-01
7.813742e-01
5.790411e-01
4.864983e-01
3.218022e-01
1.895998e-01
2.374431e-01
1.317358e-01
1.694866e-01
1.226329e-01
2.837925e-03
5.042011e-02
-1.811680e-02
-1.046777e-02
1.658092e-01
4.307069e-01
7.352101e-01
9.533106e-01
-9.568908e-01
-1.227314e-01
-3.112028e-01
-2.917379e-01
-1.546815e-01
-2.239889e-01
1.075128e-02
-1.453144e-01
-3.332180e-01
-1.489030e-01
-3.320623e-02
1.633318e-01
5.035355e-01
7.945828e-01
9.547592e-01
9.988804e-01
1 2 19 18
2 3 20 19
3 4 21 20
4 5 22 21
5 6 23 22
6 7 24 23
7 8 25 24
8 9 26 25
9 10 27 26
10 11 28 27
11 12 29 28
12 13 30 29
13 14 31 30
14 15 32 31
15 16 33 32
16 17 34 33
18 19 36 35
19 20 37 36
20 21 38 37
21 22 39 38
22 23 40 39
23 24 41 40
24 25 42 41
25 26 43 42
26 27 44 43
27 28 45 44
28 29 46 45
29 30 47 46
30 31 48 47
31 32 49 48
32 33 50 49
33 34 51 50
35 36 53 52
36 37 54 53
37 38 55 54
38 39 56 55
39 40 57 56
40 41 58 57
41 42 59 58
42 43 60 59
43 44 61 60
44 45 62 61
45 46 63 62
46 47 64 63
47 48 65 64
48 49 66 65
49 50 67 66
50 51 68 67
52 53 70 69
53 54 71 70
54 55 72 71
55 56 73 72
56 57 74 73
57 58 75 74
58 59 76 75
59 60 77 76
60 61 78 77
61 62 79 78
62 63 80 79
63 64 81 80
64 65 82 81
65 66 83 82
66 67 84 83
67 68 85 84
69 70 87 86
70 71 88 87
71 72 89 88
72 73 90 89
73 74 91 90
74 75 92 91
75 76 93 92
76 77 94 93
77 78 95 94
78 79 96 95
79 80 97 96
80 81 98 97
81 82 99 98
82 83 100 99
83 84 101 100
84 85 102 101
86 87 104 103
87 88 105 104
88 89 106 105
89 90 107 106
90 91 108 107
91 92 109 108
92 93 110 109
93 94 111 110
94 95 112 111
95 96 113 112
96 97 114 113
97 98 115 114
98 99 116 115
99 100 117 116
100 101 118 117
101 102 119 118
103 104 121 120
104 105 122 121
105 106 123 122
106 107 124 123
107 108 125 124
108 109 126 125
109 110 127 126
110 111 128 127
111 112 129 128
112 113 130 129
113 114 131 130
114 115 132 131
115 116 133 132
116 117 134 133
117 118 135 134
118 119 136 135
120 121 138 137
121 122 139 138
122 123 140 139
123 124 141 140
124 125 142 141
125 126 143 142
126 127 144 143
127 128 145 144
128 129 146 145
129 130 147 146
130 131 148 147
131 132 149 148
132 133 150 149
133 134 151 150
134 135 152 151
135 136 153 152
