TITLE = "Solution"
VARIABLES = x, y, u, v, psiu, psiv, t, stress
ZONE T="structure" N=153 E=128 F=FEBLOCK ET=QUADRILATERAL VARLOCATION=([7,8]=cellcentered)
0.000000e+00
1.250000e+01
2.500000e+01
3.750000e+01
5.000000e+01
6.250000e+01
7.500000e+01
8.750000e+01
1.000000e+02
1.125000e+02
1.250000e+02
1.375000e+02
1.500000e+02
1.625000e+02
1.750000e+02
1.875000e+02
2.000000e+02
0.000000e+00
1.250000e+01
2.500000e+01
3.750000e+01
5.000000e+01
6.250000e+01
7.500000e+01
8.750000e+01
1.000000e+02
1.125000e+02
1.250000e+02
1.375000e+02
1.500000e+02
1.625000e+02
1.750000e+02
1.875000e+02
2.000000e+02
0.000000e+00
1.250000e+01
2.500000e+01
3.750000e+01
5.000000e+01
6.250000e+01
7.500000e+01
8.750000e+01
1.000000e+02
1.125000e+02
1.250000e+02
1.375000e+02
1.500000e+02
1.625000e+02
1.750000e+02
1.875000e+02
2.000000e+02
0.000000e+00
1.250000e+01
2.500000e+01
3.750000e+01
5.000000e+01
6.250000e+01
7.500000e+01
8.750000e+01
1.000000e+02
1.125000e+02
1.250000e+02
1.375000e+02
1.500000e+02
1.625000e+02
1.750000e+02
1.875000e+02
2.000000e+02
0.000000e+00
1.250000e+01
2.500000e+01
3.750000e+01
5.000000e+01
6.250000e+01
7.500000e+01
8.750000e+01
1.000000e+02
1.125000e+02
1.250000e+02
1.375000e+02
1.500000e+02
1.625000e+02
1.750000e+02
1.875000e+02
2.000000e+02
0.000000e+00
1.250000e+01
2.500000e+01
3.750000e+01
5.000000e+01
6.250000e+01
7.500000e+01
8.750000e+01
1.000000e+02
1.125000e+02
1.250000e+02
1.375000e+02
1.500000e+02
1.625000e+02
1.750000e+02
1.875000e+02
2.000000e+02
0.000000e+00
1.250000e+01
2.500000e+01
3.750000e+01
5.000000e+01
6.250000e+01
7.500000e+01
8.750000e+01
1.000000e+02
1.125000e+02
1.250000e+02
1.375000e+02
1.500000e+02
1.625000e+02
1.750000e+02
1.875000e+02
2.000000e+02
0.000000e+00
1.250000e+01
2.500000e+01
3.750000e+01
5.000000e+01
6.250000e+01
7.500000e+01
8.750000e+01
1.000000e+02
1.125000e+02
1.250000e+02
1.375000e+02
1.500000e+02
1.625000e+02
1.750000e+02
1.875000e+02
2.000000e+02
0.000000e+00
1.250000e+01
2.500000e+01
3.750000e+01
5.000000e+01
6.250000e+01
7.500000e+01
8.750000e+01
1.000000e+02
1.125000e+02
1.250000e+02
1.375000e+02
1.500000e+02
1.625000e+02
1.750000e+02
1.875000e+02
2.000000e+02
0.000000e+00
0.000000e+00
0.000000e+00
0.000000e+00
0.000000e+00
0.000000e+00
0.000000e+00
0.000000e+00
0.000000e+00
0.000000e+00
0.000000e+00
0.000000e+00
0.000000e+00
0.000000e+00
0.000000e+00
0.000000e+00
0.000000e+00
1.250000e+01
1.250000e+01
1.250000e+01
1.250000e+01
1.250000e+01
1.250000e+01
1.250000e+01
1.250000e+01
1.250000e+01
1.250000e+01
1.250000e+01
1.250000e+01
1.250000e+01
1.250000e+01
1.250000e+01
1.250000e+01
1.250000e+01
2.500000e+01
2.500000e+01
2.500000e+01
2.500000e+01
2.500000e+01
2.500000e+01
2.500000e+01
2.500000e+01
2.500000e+01
2.500000e+01
2.500000e+01
2.500000e+01
2.500000e+01
2.500000e+01
2.500000e+01
2.500000e+01
2.500000e+01
3.750000e+01
3.750000e+01
3.750000e+01
3.750000e+01
3.750000e+01
3.750000e+01
3.750000e+01
3.750000e+01
3.750000e+01
3.750000e+01
3.750000e+01
3.750000e+01
3.750000e+01
3.750000e+01
3.750000e+01
3.750000e+01
3.750000e+01
5.000000e+01
5.000000e+01
5.000000e+01
5.000000e+01
5.000000e+01
5.000000e+01
5.000000e+01
5.000000e+01
5.000000e+01
5.000000e+01
5.000000e+01
5.000000e+01
5.000000e+01
5.000000e+01
5.000000e+01
5.000000e+01
5.000000e+01
6.250000e+01
6.250000e+01
6.250000e+01
6.250000e+01
6.250000e+01
6.250000e+01
6.250000e+01
6.250000e+01
6.250000e+01
6.250000e+01
6.250000e+01
6.250000e+01
6.250000e+01
6.250000e+01
6.250000e+01
6.250000e+01
6.250000e+01
7.500000e+01
7.500000e+01
7.500000e+01
7.500000e+01
7.500000e+01
7.500000e+01
7.500000e+01
7.500000e+01
7.500000e+01
7.500000e+01
7.500000e+01
7.500000e+01
7.500000e+01
7.500000e+01
7.500000e+01
7.500000e+01
7.500000e+01
8.750000e+01
8.750000e+01
8.750000e+01
8.750000e+01
8.750000e+01
8.750000e+01
8.750000e+01
8.750000e+01
8.750000e+01
8.750000e+01
8.750000e+01
8.750000e+01
8.750000e+01
8.750000e+01
8.750000e+01
8.750000e+01
8.750000e+01
1.000000e+02
1.000000e+02
1.000000e+02
1.000000e+02
1.000000e+02
1.000000e+02
1.000000e+02
1.000000e+02
1.000000e+02
1.000000e+02
1.000000e+02
1.000000e+02
1.000000e+02
1.000000e+02
1.000000e+02
1.000000e+02
1.000000e+02
0.000000e+00
-1.023924e+00
-1.685567e+00
-2.414722e+00
-3.110934e+00
-3.752650e+00
-4.413574e+00
-5.001409e+00
-5.660031e+00
-6.374811e+00
-7.055730e+00
-7.742879e+00
-8.474015e+00
-9.230495e+00
-9.967385e+00
-1.064961e+01
-1.109995e+01
0.000000e+00
-4.670082e-01
-9.211897e-01
-1.419289e+00
-1.945790e+00
-2.439957e+00
-2.947436e+00
-3.429300e+00
-3.934412e+00
-4.474630e+00
-4.973170e+00
-5.467756e+00
-5.978662e+00
-6.459424e+00
-6.786838e+00
-6.864947e+00
-7.028997e+00
0.000000e+00
-1.562027e-01
-3.646945e-01
-6.586001e-01
-1.011837e+00
-1.351095e+00
-1.721707e+00
-2.091222e+00
-2.444254e+00
-2.788846e+00
-3.102490e+00
-3.406948e+00
-3.682382e+00
-3.875356e+00
-3.925631e+00
-3.902618e+00
-4.061090e+00
0.000000e+00
-7.950832e-02
-1.653489e-01
-3.202853e-01
-4.691569e-01
-6.454210e-01
-8.296972e-01
-9.906783e-01
-1.147908e+00
-1.286699e+00
-1.425646e+00
-1.543990e+00
-1.610308e+00
-1.603367e+00
-1.544284e+00
-1.546157e+00
-1.680401e+00
0.000000e+00
-1.693395e-03
-3.653652e-03
-5.686480e-03
-7.074312e-03
-6.222471e-03
-9.782230e-04
1.110635e-02
3.232784e-02
6.449828e-02
1.112261e-01
1.795426e-01
2.756305e-01
3.939843e-01
4.914686e-01
4.996542e-01
3.975045e-01
0.000000e+00
7.647019e-02
1.594336e-01
3.113829e-01
4.587964e-01
6.362833e-01
8.266145e-01
1.004903e+00
1.194666e+00
1.386972e+00
1.609572e+00
1.847104e+00
2.071108e+00
2.261157e+00
2.389136e+00
2.417278e+00
2.357777e+00
0.000000e+00
1.544962e-01
3.613761e-01
6.537924e-01
1.007097e+00
1.345887e+00
1.715519e+00
2.087633e+00
2.452028e+00
2.821775e+00
3.179365e+00
3.543232e+00
3.874859e+00
4.133485e+00
4.297988e+00
4.356291e+00
4.340953e+00
0.000000e+00
4.669971e-01
9.202474e-01
1.416945e+00
1.944228e+00
2.438012e+00
2.941770e+00
3.419689e+00
3.918021e+00
4.447066e+00
4.933496e+00
5.397639e+00
5.816880e+00
6.136798e+00
6.336725e+00
6.424835e+00
6.440950e+00
0.000000e+00
1.025353e+00
1.687245e+00
2.416746e+00
3.115884e+00
3.760319e+00
4.419923e+00
5.006177e+00
5.654885e+00
6.342132e+00
6.974786e+00
7.562475e+00
8.069524e+00
8.425268e+00
8.609783e+00
8.659216e+00
8.659023e+00
0.000000e+00
-6.273667e-01
-1.360945e+00
-2.349510e+00
-3.513264e+00
-4.836088e+00
-6.322296e+00
-7.939707e+00
-9.717732e+00
-1.166125e+01
-1.376713e+01
-1.606711e+01
-1.856654e+01
-2.125733e+01
-2.418145e+01
-2.756177e+01
-3.252352e+01
0.000000e+00
-4.241166e-01
-1.198321e+00
-2.163313e+00
-3.339357e+00
-4.662262e+00
-6.154633e+00
-7.777639e+00
-9.537124e+00
-1.148218e+01
-1.359414e+01
-1.589082e+01
-1.838711e+01
-2.109908e+01
-2.406523e+01
-2.745825e+01
-3.156682e+01
0.000000e+00
-3.942812e-01
-1.094346e+00
-2.057253e+00
-3.214432e+00
-4.529779e+00
-6.028271e+00
-7.652361e+00
-9.422134e+00
-1.136841e+01
-1.348731e+01
-1.579364e+01
-1.830592e+01
-2.105381e+01
-2.405583e+01
-2.727323e+01
-3.030040e+01
0.000000e+00
-4.457866e-01
-1.079860e+00
-2.028231e+00
-3.146476e+00
-4.448298e+00
-5.949302e+00
-7.582634e+00
-9.375955e+00
-1.132165e+01
-1.345296e+01
-1.578042e+01
-1.830982e+01
-2.105769e+01
-2.399756e+01
-2.693023e+01
-2.948972e+01
0.000000e+00
-4.504129e-01
-1.098541e+00
-2.012008e+00
-3.132828e+00
-4.430294e+00
-5.924138e+00
-7.578237e+00
-9.378748e+00
-1.133534e+01
-1.347893e+01
-1.582408e+01
-1.835158e+01
-2.105163e+01
-2.386072e+01
-2.657617e+01
-2.889405e+01
0.000000e+00
-4.462758e-01
-1.081264e+00
-2.031335e+00
-3.153802e+00
-4.462183e+00
-5.970411e+00
-7.615852e+00
-9.424739e+00
-1.138852e+01
-1.354232e+01
-1.589053e+01
-1.840253e+01
-2.103728e+01
-2.372149e+01
-2.628483e+01
-2.849739e+01
0.000000e+00
-3.949368e-01
-1.096987e+00
-2.062818e+00
-3.226553e+00
-4.551962e+00
-6.063215e+00
-7.706565e+00
-9.501943e+00
-1.147955e+01
-1.363392e+01
-1.597344e+01
-1.846431e+01
-2.104362e+01
-2.363010e+01
-2.609547e+01
-2.829900e+01
0.000000e+00
-4.246805e-01
-1.200939e+00
-2.169464e+00
-3.352439e+00
-4.685674e+00
-6.192697e+00
-7.837071e+00
-9.626379e+00
-1.160949e+01
-1.375938e+01
-1.608424e+01
-1.855111e+01
-2.108692e+01
-2.360612e+01
-2.601077e+01
-2.824797e+01
0.000000e+00
-6.280191e-01
-1.363400e+00
-2.356030e+00
-3.526948e+00
-4.859573e+00
-6.360198e+00
-7.998491e+00
-9.804798e+00
-1.178418e+01
-1.392304e+01
-1.623198e+01
-1.866879e+01
-2.115955e+01
-2.362788e+01
-2.599483e+01
-2.824813e+01


0.000000e+00
1.376452e-05
2.425251e-05
3.712487e-05
5.132909e-05
6.516447e-05
7.984778e-05
9.371437e-05
1.087773e-04
1.228374e-04
1.337468e-04
1.427817e-04
1.498306e-04
1.542362e-04
1.572650e-04
1.609909e-04
1.658351e-04
0.000000e+00
9.610366e-06
1.923450e-05
2.886981e-05
4.047094e-05
5.152133e-05
6.278275e-05
7.417296e-05
8.568215e-05
9.549632e-05
1.023293e-04
1.077966e-04
1.113316e-04
1.115890e-04
1.109612e-04
1.141975e-04
1.198044e-04
0.000000e+00
7.814613e-06
1.499283e-05
2.162386e-05
3.005296e-05
3.774743e-05
4.551563e-05
5.327806e-05
5.988400e-05
6.473622e-05
6.801822e-05
7.041624e-05
7.141802e-05
7.077043e-05
7.055614e-05
7.365140e-05
7.905877e-05
0.000000e+00
4.396569e-06
7.083325e-06
1.129224e-05
1.509468e-05
1.887645e-05
2.285295e-05
2.628341e-05
2.905076e-05
3.081473e-05
3.188352e-05
3.221010e-05
3.203310e-05
3.213724e-05
3.319340e-05
3.593137e-05
4.004295e-05
0.000000e+00
-9.882868e-08
-1.904270e-07
-2.519783e-07
-2.976918e-07
-3.428305e-07
-4.053663e-07
-4.884692e-07
-6.559973e-07
-1.025985e-06
-1.761114e-06
-2.709755e-06
-3.454206e-06
-3.482430e-06
-2.600244e-06
-1.308911e-06
5.674848e-07
0.000000e+00
-4.597932e-06
-7.431279e-06
-1.176980e-05
-1.563569e-05
-1.946430e-05
-2.347139e-05
-2.697909e-05
-2.982034e-05
-3.173179e-05
-3.339245e-05
-3.489577e-05
-3.594883e-05
-3.647637e-05
-3.693748e-05
-3.732640e-05
-3.699512e-05
0.000000e+00
-7.951168e-06
-1.523555e-05
-2.194367e-05
-3.046407e-05
-3.818591e-05
-4.593466e-05
-5.369365e-05
-6.022252e-05
-6.470182e-05
-6.726689e-05
-6.880197e-05
-6.983559e-05
-7.073311e-05
-7.166757e-05
-7.247755e-05
-7.271340e-05
0.000000e+00
-9.683605e-06
-1.934206e-05
-2.896576e-05
-4.061693e-05
-5.169772e-05
-6.291150e-05
-7.431805e-05
-8.592075e-05
-9.562759e-05
-1.014373e-04
-1.046827e-04
-1.064716e-04
-1.076458e-04
-1.084490e-04
-1.088511e-04
-1.089632e-04
0.000000e+00
-1.382416e-05
-2.427033e-05
-3.703485e-05
-5.118363e-05
-6.498884e-05
-7.955707e-05
-9.340584e-05
-1.085830e-04
-1.228223e-04
-1.332748e-04
-1.401038e-04
-1.439687e-04
-1.456565e-04
-1.461457e-04
-1.460977e-04
-1.460229e-04
0.000000e+00
1.164829e-05
2.003153e-05
3.192739e-05
4.684334e-05
6.427604e-05
8.558504e-05
1.100297e-04
1.380921e-04
1.685685e-04
2.016824e-04
2.379776e-04
2.761257e-04
3.164759e-04
3.638724e-04
4.195591e-04
4.759761e-04
0.000000e+00
6.747796e-06
1.549555e-05
2.600522e-05
4.067424e-05
5.802239e-05
7.921236e-05
1.036815e-04
1.316716e-04
1.633558e-04
1.977445e-04
2.348874e-04
2.743415e-04
3.157734e-04
3.605271e-04
4.126697e-04
4.672243e-04
0.000000e+00
3.173693e-06
1.110446e-05
2.103959e-05
3.510508e-05
5.279601e-05
7.388258e-05
9.876921e-05
1.275637e-04
1.601990e-04
1.954738e-04
2.332674e-04
2.736227e-04
3.153625e-04
3.563481e-04
4.036593e-04
4.555474e-04
0.000000e+00
2.012535e-06
8.683072e-06
1.870004e-05
3.265834e-05
5.052396e-05
7.184703e-05
9.712635e-05
1.265061e-04
1.593456e-04
1.948584e-04
2.328025e-04
2.733103e-04
3.147748e-04
3.536804e-04
3.960823e-04
4.435988e-04
0.000000e+00
1.653109e-06
8.082762e-06
1.793481e-05
3.200231e-05
4.980198e-05
7.126426e-05
9.675758e-05
1.263394e-04
1.592363e-04
1.948175e-04
2.328548e-04
2.731677e-04
3.145497e-04
3.534609e-04
3.927303e-04
4.350353e-04
0.000000e+00
2.061806e-06
8.748301e-06
1.872263e-05
3.259320e-05
5.037114e-05
7.162502e-05
9.693842e-05
1.265019e-04
1.595493e-04
1.954199e-04
2.336559e-04
2.737986e-04
3.145905e-04
3.541579e-04
3.924568e-04
4.306500e-04
0.000000e+00
3.254695e-06
1.121212e-05
2.105697e-05
3.498089e-05
5.251498e-05
7.347891e-05
9.838346e-05
1.274142e-04
1.605327e-04
1.966012e-04
2.349860e-04
2.748240e-04
3.149382e-04
3.542435e-04
3.923051e-04
4.292113e-04
0.000000e+00
6.855328e-06
1.561739e-05
2.603610e-05
4.055909e-05
5.772918e-05
7.877079e-05
1.032414e-04
1.314689e-04
1.636237e-04
1.986869e-04
2.364031e-04
2.756377e-04
3.152088e-04
3.541712e-04
3.921007e-04
4.291275e-04
0.000000e+00
1.177181e-05
2.014279e-05
3.195844e-05
4.675701e-05
6.399978e-05
8.515999e-05
1.096441e-04
1.379594e-04
1.687131e-04
2.018957e-04
2.381316e-04
2.764161e-04
3.154281e-04
3.541722e-04
3.920160e-04
4.291988e-04


6.384965e+00
6.060579e+00
6.215380e+00
5.220322e+00
4.690804e+00
4.990235e+00
4.835953e+00
4.685159e+00
4.500768e+00
4.688749e+00
5.538504e+00
6.672936e+00
7.414761e+00
7.108621e+00
5.820791e+00
4.842530e+00
7.919577e+00
8.151258e+00
8.134053e+00
7.711680e+00
7.352298e+00
7.494247e+00
7.063035e+00
6.089530e+00
5.482130e+00
5.504850e+00
6.260074e+00
7.180322e+00
7.650857e+00
7.027734e+00
5.552341e+00
4.370316e+00
9.333516e+00
9.493649e+00
9.729787e+00
9.381227e+00
9.275824e+00
9.366154e+00
8.905086e+00
8.001527e+00
7.224507e+00
7.127305e+00
7.426612e+00
7.741129e+00
7.794552e+00
7.092708e+00
5.680147e+00
4.691231e+00
9.580972e+00
9.794321e+00
9.883114e+00
9.666584e+00
9.476785e+00
9.559690e+00
9.586080e+00
9.260780e+00
8.819399e+00
8.504602e+00
8.142445e+00
7.724013e+00
7.503877e+00
7.160582e+00
6.428507e+00
5.823940e+00
9.594643e+00
9.800931e+00
9.875313e+00
9.630464e+00
9.406613e+00
9.451165e+00
9.505315e+00
9.233767e+00
8.849482e+00
8.526402e+00
8.017990e+00
7.374044e+00
7.139219e+00
7.296965e+00
7.307073e+00
7.179808e+00
9.373150e+00
9.497745e+00
9.695036e+00
9.312838e+00
9.112497e+00
9.133057e+00
8.713194e+00
7.945206e+00
7.289608e+00
7.242943e+00
7.346754e+00
7.223632e+00
7.245973e+00
7.677702e+00
8.136462e+00
8.332535e+00
7.956403e+00
8.125020e+00
8.076341e+00
7.645033e+00
7.216596e+00
7.277201e+00
6.900467e+00
6.048738e+00
5.574496e+00
5.769988e+00
6.587426e+00
7.293320e+00
7.757716e+00
8.286127e+00
8.809910e+00
9.078347e+00
6.403492e+00
6.021402e+00
6.136156e+00
5.165688e+00
4.599422e+00
4.853210e+00
4.755002e+00
4.702145e+00
4.613276e+00
5.038615e+00
6.187746e+00
7.393117e+00
8.198141e+00
8.759684e+00
9.205735e+00
9.439929e+00


-9.411077e-01
-1.121381e-01
-3.177539e-01
-3.116479e-01
-1.379036e-01
-2.006618e-01
-1.625317e-02
-1.991137e-01
-3.908648e-01
-2.323935e-01
-2.362345e-01
-3.556503e-01
-3.257200e-01
2.839723e-02
4.845464e-01
-7.428709e-01
5.790414e-01
4.880214e-01
3.171187e-01
1.783606e-01
2.461023e-01
1.530549e-01
1.893059e-01
1.739209e-01
1.314795e-01
2.562809e-01
2.793509e-01
3.118582e-01
4.895149e-01
7.756602e-01
7.279341e-01
-1.344810e+00
7.249390e-01
4.927942e-01
1.038435e-01
3.661156e-02
4.516606e-02
-2.664162e-02
1.383817e-01
2.535332e-01
3.416030e-01
3.849399e-01
3.892206e-01
4.297978e-01
4.582484e-01
3.555385e-01
9.378907e-02
-4.171889e-01
7.355407e-01
5.726053e-01
2.373286e-01
1.542723e-01
1.067269e-01
7.137295e-02
1.607741e-01
2.140995e-01
2.636291e-01
2.476782e-01
2.225100e-01
1.835759e-01
4.002662e-02
-1.781130e-01
-1.493897e-01
1.038071e-02
7.362958e-01
5.743303e-01
2.415244e-01
1.571686e-01
1.054470e-01
5.760548e-02
1.212152e-01
1.427761e-01
1.558360e-01
8.920001e-02
1.089771e-02
-5.301540e-02
-1.597822e-01
-2.208096e-01
1.502600e-02
4.331803e-01
7.269363e-01
4.959651e-01
1.092495e-01
3.581438e-02
3.441842e-02
-5.703610e-02
6.125279e-02
1.143163e-01
1.216067e-01
4.787193e-02
-9.524252e-02
-1.379569e-01
-8.204665e-02
6.231365e-02
3.864276e-01
7.794569e-01
5.809967e-01
4.908095e-01
3.199372e-01
1.728057e-01
2.398123e-01
1.457394e-01
1.632475e-01
1.136827e-01
9.121080e-03
4.807603e-02
-2.447564e-02
-5.196891e-03
1.874897e-01
4.527820e-01
7.456194e-01
9.560375e-01
-9.445178e-01
-1.108383e-01
-3.158252e-01
-3.199348e-01
-1.430512e-01
-1.922244e-01
-8.898001e-03
-1.729164e-01
-3.255657e-01
-1.400708e-01
-3.280243e-02
1.654743e-01
5.142951e-01
8.038148e-01
9.573664e-01
9.989934e-01
1 2 19 18
2 3 20 19
3 4 21 20
4 5 22 21
5 6 23 22
6 7 24 23
7 8 25 24
8 9 26 25
9 10 27 26
10 11 28 27
11 12 29 28
12 13 30 29
13 14 31 30
14 15 32 31
15 16 33 32
16 17 34 33
18 19 36 35
19 20 37 36
20 21 38 37
21 22 39 38
22 23 40 39
23 24 41 40
24 25 42 41
25 26 43 42
26 27 44 43
27 28 45 44
28 29 46 45
29 30 47 46
30 31 48 47
31 32 49 48
32 33 50 49
33 34 51 50
35 36 53 52
36 37 54 53
37 38 55 54
38 39 56 55
39 40 57 56
40 41 58 57
41 42 59 58
42 43 60 59
43 44 61 60
44 45 62 61
45 46 63 62
46 47 64 63
47 48 65 64
48 49 66 65
49 50 67 66
50 51 68 67
52 53 70 69
53 54 71 70
54 55 72 71
55 56 73 72
56 57 74 73
57 58 75 74
58 59 76 75
59 60 77 76
60 61 78 77
61 62 79 78
62 63 80 79
63 64 81 80
64 65 82 81
65 66 83 82
66 67 84 83
67 68 85 84
69 70 87 86
70 71 88 87
71 72 89 88
72 73 90 89
73 74 91 90
74 75 92 91
75 76 93 92
76 77 94 93
77 78 95 94
78 79 96 95
79 80 97 96
80 81 98 97
81 82 99 98
82 83 100 99
83 84 101 100
84 85 102 101
86 87 104 103
87 88 105 104
88 89 106 105
89 90 107 106
90 91 108 107
91 92 109 108
92 93 110 109
93 94 111 110
94 95 112 111
95 96 113 112
96 97 114 113
97 98 115 114
98 99 116 115
99 100 117 116
100 101 118 117
101 102 119 118
103 104 121 120
104 105 122 121
105 106 123 122
106 107 124 123
107 108 125 124
108 109 126 125
109 110 127 126
110 111 128 127
111 112 129 128
112 113 130 129
113 114 131 130
114 115 132 131
115 116 133 132
116 117 134 133
117 118 135 134
118 119 136 135
120 121 138 137
121 122 139 138
122 123 140 139
123 124 141 140
124 125 142 141
125 126 143 142
126 127 144 143
127 128 145 144
128 129 146 145
129 130 147 146
130 131 148 147
131 132 149 148
132 133 150 149
133 134 151 150
134 135 152 151
135 136 153 152
