TITLE = "Solution"
VARIABLES = x, y, u, v, psiu, psiv, t, stress
ZONE T="structure" N=153 E=128 F=FEBLOCK ET=QUADRILATERAL VARLOCATION=([7,8]=cellcentered)
0.000000e+00
1.250000e+01
2.500000e+01
3.750000e+01
5.000000e+01
6.250000e+01
7.500000e+01
8.750000e+01
1.000000e+02
1.125000e+02
1.250000e+02
1.375000e+02
1.500000e+02
1.625000e+02
1.750000e+02
1.875000e+02
2.000000e+02
0.000000e+00
1.250000e+01
2.500000e+01
3.750000e+01
5.000000e+01
6.250000e+01
7.500000e+01
8.750000e+01
1.000000e+02
1.125000e+02
1.250000e+02
1.375000e+02
1.500000e+02
1.625000e+02
1.750000e+02
1.875000e+02
2.000000e+02
0.000000e+00
1.250000e+01
2.500000e+01
3.750000e+01
5.000000e+01
6.250000e+01
7.500000e+01
8.750000e+01
1.000000e+02
1.125000e+02
1.250000e+02
1.375000e+02
1.500000e+02
1.625000e+02
1.750000e+02
1.875000e+02
2.000000e+02
0.000000e+00
1.250000e+01
2.500000e+01
3.750000e+01
5.000000e+01
6.250000e+01
7.500000e+01
8.750000e+01
1.000000e+02
1.125000e+02
1.250000e+02
1.375000e+02
1.500000e+02
1.625000e+02
1.750000e+02
1.875000e+02
2.000000e+02
0.000000e+00
1.250000e+01
2.500000e+01
3.750000e+01
5.000000e+01
6.250000e+01
7.500000e+01
8.750000e+01
1.000000e+02
1.125000e+02
1.250000e+02
1.375000e+02
1.500000e+02
1.625000e+02
1.750000e+02
1.875000e+02
2.000000e+02
0.000000e+00
1.250000e+01
2.500000e+01
3.750000e+01
5.000000e+01
6.250000e+01
7.500000e+01
8.750000e+01
1.000000e+02
1.125000e+02
1.250000e+02
1.375000e+02
1.500000e+02
1.625000e+02
1.750000e+02
1.875000e+02
2.000000e+02
0.000000e+00
1.250000e+01
2.500000e+01
3.750000e+01
5.000000e+01
6.250000e+01
7.500000e+01
8.750000e+01
1.000000e+02
1.125000e+02
1.250000e+02
1.375000e+02
1.500000e+02
1.625000e+02
1.750000e+02
1.875000e+02
2.000000e+02
0.000000e+00
1.250000e+01
2.500000e+01
3.750000e+01
5.000000e+01
6.250000e+01
7.500000e+01
8.750000e+01
1.000000e+02
1.125000e+02
1.250000e+02
1.375000e+02
1.500000e+02
1.625000e+02
1.750000e+02
1.875000e+02
2.000000e+02
0.000000e+00
1.250000e+01
2.500000e+01
3.750000e+01
5.000000e+01
6.250000e+01
7.500000e+01
8.750000e+01
1.000000e+02
1.125000e+02
1.250000e+02
1.375000e+02
1.500000e+02
1.625000e+02
1.750000e+02
1.875000e+02
2.000000e+02
0.000000e+00
0.000000e+00
0.000000e+00
0.000000e+00
0.000000e+00
0.000000e+00
0.000000e+00
0.000000e+00
0.000000e+00
0.000000e+00
0.000000e+00
0.000000e+00
0.000000e+00
0.000000e+00
0.000000e+00
0.000000e+00
0.000000e+00
1.250000e+01
1.250000e+01
1.250000e+01
1.250000e+01
1.250000e+01
1.250000e+01
1.250000e+01
1.250000e+01
1.250000e+01
1.250000e+01
1.250000e+01
1.250000e+01
1.250000e+01
1.250000e+01
1.250000e+01
1.250000e+01
1.250000e+01
2.500000e+01
2.500000e+01
2.500000e+01
2.500000e+01
2.500000e+01
2.500000e+01
2.500000e+01
2.500000e+01
2.500000e+01
2.500000e+01
2.500000e+01
2.500000e+01
2.500000e+01
2.500000e+01
2.500000e+01
2.500000e+01
2.500000e+01
3.750000e+01
3.750000e+01
3.750000e+01
3.750000e+01
3.750000e+01
3.750000e+01
3.750000e+01
3.750000e+01
3.750000e+01
3.750000e+01
3.750000e+01
3.750000e+01
3.750000e+01
3.750000e+01
3.750000e+01
3.750000e+01
3.750000e+01
5.000000e+01
5.000000e+01
5.000000e+01
5.000000e+01
5.000000e+01
5.000000e+01
5.000000e+01
5.000000e+01
5.000000e+01
5.000000e+01
5.000000e+01
5.000000e+01
5.000000e+01
5.000000e+01
5.000000e+01
5.000000e+01
5.000000e+01
6.250000e+01
6.250000e+01
6.250000e+01
6.250000e+01
6.250000e+01
6.250000e+01
6.250000e+01
6.250000e+01
6.250000e+01
6.250000e+01
6.250000e+01
6.250000e+01
6.250000e+01
6.250000e+01
6.250000e+01
6.250000e+01
6.250000e+01
7.500000e+01
7.500000e+01
7.500000e+01
7.500000e+01
7.500000e+01
7.500000e+01
7.500000e+01
7.500000e+01
7.500000e+01
7.500000e+01
7.500000e+01
7.500000e+01
7.500000e+01
7.500000e+01
7.500000e+01
7.500000e+01
7.500000e+01
8.750000e+01
8.750000e+01
8.750000e+01
8.750000e+01
8.750000e+01
8.750000e+01
8.750000e+01
8.750000e+01
8.750000e+01
8.750000e+01
8.750000e+01
8.750000e+01
8.750000e+01
8.750000e+01
8.750000e+01
8.750000e+01
8.750000e+01
1.000000e+02
1.000000e+02
1.000000e+02
1.000000e+02
1.000000e+02
1.000000e+02
1.000000e+02
1.000000e+02
1.000000e+02
1.000000e+02
1.000000e+02
1.000000e+02
1.000000e+02
1.000000e+02
1.000000e+02
1.000000e+02
1.000000e+02
0.000000e+00
-8.574242e-02
-1.528854e-01
-2.121142e-01
-2.704352e-01
-3.272721e-01
-3.790398e-01
-4.251942e-01
-4.675204e-01
-5.055013e-01
-5.386899e-01
-5.682596e-01
-5.960562e-01
-6.243476e-01
-6.561027e-01
-6.950233e-01
-7.252623e-01
0.000000e+00
-5.042341e-02
-1.012375e-01
-1.462456e-01
-1.894896e-01
-2.315195e-01
-2.698424e-01
-3.042658e-01
-3.358777e-01
-3.642403e-01
-3.888631e-01
-4.102670e-01
-4.290003e-01
-4.449540e-01
-4.562720e-01
-4.586438e-01
-4.677801e-01
0.000000e+00
-2.945360e-02
-5.978749e-02
-8.949341e-02
-1.178066e-01
-1.448480e-01
-1.697332e-01
-1.923889e-01
-2.129699e-01
-2.310886e-01
-2.464643e-01
-2.590726e-01
-2.684834e-01
-2.737639e-01
-2.737953e-01
-2.715441e-01
-2.809155e-01
0.000000e+00
-1.255769e-02
-2.580896e-02
-3.920430e-02
-5.226339e-02
-6.461304e-02
-7.614842e-02
-8.669241e-02
-9.610195e-02
-1.040818e-01
-1.103951e-01
-1.147802e-01
-1.167945e-01
-1.162008e-01
-1.140722e-01
-1.147232e-01
-1.215392e-01
0.000000e+00
2.558596e-03
5.225918e-03
7.765732e-03
1.011172e-02
1.226063e-02
1.424763e-02
1.602862e-02
1.765891e-02
1.934894e-02
2.139347e-02
2.410695e-02
2.758608e-02
3.134281e-02
3.388225e-02
3.320852e-02
2.880958e-02
0.000000e+00
1.733689e-02
3.552718e-02
5.374676e-02
7.183019e-02
8.914251e-02
1.049885e-01
1.191240e-01
1.315685e-01
1.424208e-01
1.520103e-01
1.607190e-01
1.685140e-01
1.747481e-01
1.784495e-01
1.788276e-01
1.765713e-01
0.000000e+00
3.314842e-02
6.757701e-02
1.018719e-01
1.359387e-01
1.693709e-01
1.993621e-01
2.255815e-01
2.486118e-01
2.684487e-01
2.851005e-01
2.990746e-01
3.105082e-01
3.190239e-01
3.242321e-01
3.259841e-01
3.254334e-01
0.000000e+00
5.151234e-02
1.064291e-01
1.565250e-01
2.064687e-01
2.565350e-01
3.004055e-01
3.380745e-01
3.715293e-01
4.004086e-01
4.240629e-01
4.430517e-01
4.577857e-01
4.682800e-01
4.747102e-01
4.775401e-01
4.780609e-01
0.000000e+00
8.572487e-02
1.571000e-01
2.218736e-01
2.873661e-01
3.530729e-01
4.102493e-01
4.593335e-01
5.034211e-01
5.414655e-01
5.724402e-01
5.968556e-01
6.150016e-01
6.268713e-01
6.328701e-01
6.344570e-01
6.344532e-01
0.000000e+00
-5.032898e-02
-9.863012e-02
-1.621159e-01
-2.411158e-01
-3.352810e-01
-4.432381e-01
-5.639368e-01
-6.960075e-01
-8.377029e-01
-9.877242e-01
-1.145307e+00
-1.310227e+00
-1.483507e+00
-1.669997e+00
-1.884835e+00
-2.198694e+00
0.000000e+00
-3.100120e-02
-8.252320e-02
-1.466506e-01
-2.259781e-01
-3.210451e-01
-4.304510e-01
-5.523839e-01
-6.855581e-01
-8.285324e-01
-9.797670e-01
-1.138298e+00
-1.303872e+00
-1.477654e+00
-1.664008e+00
-1.877325e+00
-2.141508e+00
0.000000e+00
-2.356168e-02
-7.114857e-02
-1.355524e-01
-2.153278e-01
-3.110715e-01
-4.213920e-01
-5.443117e-01
-6.785223e-01
-8.225407e-01
-9.748370e-01
-1.134530e+00
-1.301406e+00
-1.476465e+00
-1.662820e+00
-1.864251e+00
-2.059187e+00
0.000000e+00
-2.088791e-02
-6.556914e-02
-1.289912e-01
-2.090801e-01
-3.052614e-01
-4.161583e-01
-5.398965e-01
-6.750107e-01
-8.198809e-01
-9.730755e-01
-1.133843e+00
-1.301792e+00
-1.476917e+00
-1.659201e+00
-1.843486e+00
-2.012978e+00
0.000000e+00
-2.053837e-02
-6.422721e-02
-1.270326e-01
-2.070905e-01
-3.035794e-01
-4.148929e-01
-5.391791e-01
-6.748325e-01
-8.202736e-01
-9.740445e-01
-1.135357e+00
-1.303393e+00
-1.476815e+00
-1.653232e+00
-1.826806e+00
-1.986561e+00
0.000000e+00
-2.183297e-02
-6.649201e-02
-1.294926e-01
-2.094560e-01
-3.061283e-01
-4.177040e-01
-5.420141e-01
-6.776545e-01
-8.232077e-01
-9.771029e-01
-1.138285e+00
-1.305452e+00
-1.476366e+00
-1.648027e+00
-1.815628e+00
-1.971875e+00
0.000000e+00
-2.521611e-02
-7.277440e-02
-1.368101e-01
-2.165446e-01
-3.131618e-01
-4.245203e-01
-5.481966e-01
-6.831659e-01
-8.282551e-01
-9.817370e-01
-1.142209e+00
-1.308012e+00
-1.476581e+00
-1.644895e+00
-1.809184e+00
-1.965157e+00
0.000000e+00
-3.285576e-02
-8.495818e-02
-1.491866e-01
-2.288272e-01
-3.248395e-01
-4.350865e-01
-5.575000e-01
-6.912882e-01
-8.352913e-01
-9.877184e-01
-1.147017e+00
-1.311315e+00
-1.478008e+00
-1.644101e+00
-1.806455e+00
-1.963476e+00
0.000000e+00
-5.267017e-02
-1.023413e-01
-1.663913e-01
-2.462603e-01
-3.411603e-01
-4.491583e-01
-5.698693e-01
-7.022079e-01
-8.444823e-01
-9.951781e-01
-1.152833e+00
-1.315427e+00
-1.480380e+00
-1.644800e+00
-1.805955e+00
-1.963475e+00


0.000000e+00
-8.805639e-07
-8.202624e-07
4.757930e-07
1.290635e-06
1.340836e-06
1.147789e-06
9.489549e-07
7.699428e-07
6.210073e-07
5.063256e-07
4.216467e-07
3.627416e-07
3.249479e-07
2.988829e-07
2.732739e-07
2.451674e-07
0.000000e+00
-7.660154e-07
-6.122811e-07
5.582991e-07
1.324094e-06
1.214131e-06
9.942058e-07
8.316059e-07
6.989279e-07
5.868277e-07
4.969138e-07
4.297077e-07
3.860604e-07
3.611724e-07
3.414551e-07
3.140209e-07
2.829440e-07
0.000000e+00
-2.777545e-07
-1.279541e-07
4.500767e-07
8.345583e-07
8.099765e-07
7.409650e-07
6.679841e-07
6.005670e-07
5.374595e-07
4.811592e-07
4.360384e-07
4.043064e-07
3.812180e-07
3.588977e-07
3.331554e-07
3.069776e-07
0.000000e+00
8.338950e-08
1.489006e-07
2.781169e-07
3.273673e-07
4.237628e-07
4.743028e-07
4.902956e-07
4.850358e-07
4.664834e-07
4.437346e-07
4.214698e-07
3.990123e-07
3.770569e-07
3.572043e-07
3.392268e-07
3.218093e-07
0.000000e+00
6.515731e-08
1.165770e-07
8.160355e-08
8.315314e-08
1.399938e-07
2.172581e-07
2.785613e-07
3.164809e-07
3.371720e-07
3.512973e-07
3.588536e-07
3.561147e-07
3.476500e-07
3.393973e-07
3.310199e-07
3.199399e-07
0.000000e+00
-3.956687e-08
-7.008461e-08
-1.229485e-07
-1.430465e-07
-9.050373e-08
-1.815144e-08
5.503046e-08
1.208366e-07
1.769776e-07
2.261141e-07
2.647048e-07
2.874771e-07
2.994284e-07
3.063155e-07
3.071889e-07
3.008689e-07
0.000000e+00
-8.927481e-08
-1.781064e-07
-2.381494e-07
-2.426020e-07
-1.996928e-07
-1.481911e-07
-9.045168e-08
-2.352668e-08
4.717068e-08
1.134958e-07
1.678248e-07
2.073699e-07
2.358514e-07
2.557135e-07
2.652540e-07
2.644963e-07
0.000000e+00
-9.546371e-08
-1.899362e-07
-2.315507e-07
-2.231347e-07
-1.936394e-07
-1.685136e-07
-1.365152e-07
-8.616507e-08
-2.209540e-08
4.130852e-08
9.322907e-08
1.325141e-07
1.642846e-07
1.898036e-07
2.061645e-07
2.120938e-07
0.000000e+00
-5.441281e-08
-1.574260e-07
-2.122957e-07
-2.227514e-07
-2.151688e-07
-1.954097e-07
-1.580775e-07
-1.012994e-07
-3.655644e-08
1.901096e-08
5.713435e-08
8.270126e-08
1.066926e-07
1.331544e-07
1.557225e-07
1.664813e-07
0.000000e+00
-3.890692e-07
-3.296583e-08
2.630030e-07
7.193199e-08
-1.191961e-07
-6.596450e-08
-1.030194e-09
1.158588e-08
-9.065888e-09
-4.445014e-08
-8.193366e-08
-1.173681e-07
-1.612823e-07
-2.302782e-07
-3.209869e-07
-4.107548e-07
0.000000e+00
-2.290263e-07
-4.630594e-07
-3.508620e-07
-1.498892e-07
-5.985600e-08
2.877567e-08
7.659716e-08
7.928640e-08
4.705928e-08
-1.028492e-09
-5.072734e-08
-9.630216e-08
-1.438718e-07
-2.037076e-07
-2.815804e-07
-3.636184e-07
0.000000e+00
-1.789604e-07
-6.464304e-07
-6.669966e-07
-3.049927e-07
-1.318614e-08
9.341785e-08
1.315475e-07
1.239393e-07
8.448552e-08
2.726951e-08
-3.191311e-08
-8.168483e-08
-1.258073e-07
-1.734334e-07
-2.370097e-07
-3.063658e-07
0.000000e+00
-1.927338e-07
-5.761655e-07
-6.179353e-07
-3.239686e-07
-4.586398e-08
9.095902e-08
1.368898e-07
1.298619e-07
9.238927e-08
3.284603e-08
-3.035990e-08
-7.607818e-08
-1.097516e-07
-1.474790e-07
-2.006951e-07
-2.545927e-07
0.000000e+00
-2.241337e-07
-4.731489e-07
-4.889823e-07
-2.938477e-07
-9.355676e-08
4.324957e-08
9.937037e-08
1.032463e-07
7.602724e-08
1.990532e-08
-4.131803e-08
-7.713675e-08
-9.777529e-08
-1.263520e-07
-1.722317e-07
-2.137535e-07
0.000000e+00
-2.196162e-07
-3.835325e-07
-3.733951e-07
-2.525444e-07
-1.269403e-07
-2.164563e-08
3.605123e-08
5.164902e-08
3.543958e-08
-1.139921e-08
-6.094911e-08
-8.274691e-08
-9.098406e-08
-1.104406e-07
-1.486735e-07
-1.811847e-07
0.000000e+00
-1.745836e-07
-2.822048e-07
-2.807552e-07
-2.233055e-07
-1.564082e-07
-8.110218e-08
-2.871081e-08
-8.055191e-09
-1.780116e-08
-5.174269e-08
-8.321985e-08
-9.116744e-08
-9.002671e-08
-1.009870e-07
-1.305718e-07
-1.530358e-07
0.000000e+00
-1.135518e-07
-2.067721e-07
-2.363057e-07
-2.266521e-07
-1.814072e-07
-1.182841e-07
-7.086899e-08
-5.318719e-08
-6.237137e-08
-8.624593e-08
-1.033557e-07
-1.025280e-07
-9.591565e-08
-9.970067e-08
-1.199232e-07
-1.319799e-07
0.000000e+00
-7.276326e-08
-1.742346e-07
-2.378861e-07
-2.473064e-07
-2.017187e-07
-1.372928e-07
-9.349784e-08
-8.084487e-08
-9.119990e-08
-1.092821e-07
-1.189324e-07
-1.143144e-07
-1.056380e-07
-1.047552e-07
-1.170233e-07
-1.227646e-07


2.426025e-01
2.222022e-01
2.102233e-01
2.210944e-01
2.327695e-01
2.323090e-01
2.303657e-01
2.378234e-01
2.414874e-01
2.390217e-01
2.394860e-01
2.459642e-01
2.553247e-01
2.593174e-01
2.604637e-01
2.718319e-01
2.400032e-01
2.309735e-01
2.241498e-01
2.303642e-01
2.406008e-01
2.407143e-01
2.412097e-01
2.465050e-01
2.476837e-01
2.447864e-01
2.450789e-01
2.492816e-01
2.564212e-01
2.607420e-01
2.654317e-01
2.707149e-01
2.514000e-01
2.453457e-01
2.394386e-01
2.421059e-01
2.486297e-01
2.529612e-01
2.554899e-01
2.582709e-01
2.569785e-01
2.537957e-01
2.535322e-01
2.543014e-01
2.562396e-01
2.599654e-01
2.627410e-01
2.673692e-01
2.661748e-01
2.592538e-01
2.518385e-01
2.520107e-01
2.584014e-01
2.636128e-01
2.667892e-01
2.671662e-01
2.633532e-01
2.593237e-01
2.586478e-01
2.581392e-01
2.554451e-01
2.544587e-01
2.565698e-01
2.590893e-01
2.701772e-01
2.653214e-01
2.601943e-01
2.650194e-01
2.720048e-01
2.748595e-01
2.750706e-01
2.715948e-01
2.655097e-01
2.589964e-01
2.581604e-01
2.581768e-01
2.540168e-01
2.518507e-01
2.557656e-01
2.596741e-01
2.684240e-01
2.651698e-01
2.628123e-01
2.760383e-01
2.898395e-01
2.872230e-01
2.790496e-01
2.734840e-01
2.644926e-01
2.551776e-01
2.525225e-01
2.532777e-01
2.520289e-01
2.547596e-01
2.629832e-01
2.684247e-01
2.660075e-01
2.627069e-01
2.620800e-01
2.827608e-01
3.026152e-01
2.918758e-01
2.771439e-01
2.716182e-01
2.648837e-01
2.531676e-01
2.478647e-01
2.494230e-01
2.530654e-01
2.618128e-01
2.724916e-01
2.777413e-01
2.602114e-01
2.611434e-01
2.597983e-01
2.842723e-01
3.058346e-01
2.894838e-01
2.708347e-01
2.704377e-01
2.660037e-01
2.543406e-01
2.482050e-01
2.502730e-01
2.571946e-01
2.678827e-01
2.779564e-01
2.830468e-01


9.837674e-01
9.878134e-01
9.904836e-01
9.909576e-01
9.914352e-01
9.928704e-01
9.942784e-01
9.951807e-01
9.961194e-01
9.970534e-01
9.977163e-01
9.981129e-01
9.983117e-01
9.983849e-01
9.984710e-01
9.927885e-01
9.942842e-01
9.938898e-01
9.947800e-01
9.951682e-01
9.954394e-01
9.960984e-01
9.967441e-01
9.972269e-01
9.977637e-01
9.983192e-01
9.987755e-01
9.991635e-01
9.995097e-01
9.997512e-01
9.990423e-01
9.895538e-01
9.982468e-01
9.977439e-01
9.976608e-01
9.977530e-01
9.978214e-01
9.979744e-01
9.981760e-01
9.983825e-01
9.986376e-01
9.989084e-01
9.991383e-01
9.993085e-01
9.993330e-01
9.989678e-01
9.976496e-01
9.952809e-01
9.996496e-01
9.992175e-01
9.989982e-01
9.988989e-01
9.988034e-01
9.987534e-01
9.987694e-01
9.988106e-01
9.988761e-01
9.989475e-01
9.989706e-01
9.989163e-01
9.987437e-01
9.984037e-01
9.980910e-01
9.980371e-01
9.993783e-01
9.989128e-01
9.986865e-01
9.985869e-01
9.985254e-01
9.985421e-01
9.986141e-01
9.986786e-01
9.987223e-01
9.987394e-01
9.986890e-01
9.985948e-01
9.985249e-01
9.985403e-01
9.987724e-01
9.992294e-01
9.975149e-01
9.969197e-01
9.967882e-01
9.967834e-01
9.968509e-01
9.972650e-01
9.977073e-01
9.980306e-01
9.982873e-01
9.984789e-01
9.985595e-01
9.986018e-01
9.987229e-01
9.989607e-01
9.993312e-01
9.997523e-01
9.934604e-01
9.925481e-01
9.933530e-01
9.934172e-01
9.934886e-01
9.948140e-01
9.960171e-01
9.967802e-01
9.974697e-01
9.980966e-01
9.985170e-01
9.988175e-01
9.991117e-01
9.994232e-01
9.997363e-01
9.999538e-01
9.833188e-01
9.860288e-01
9.884420e-01
9.883237e-01
9.882965e-01
9.910481e-01
9.933741e-01
9.946963e-01
9.960289e-01
9.973223e-01
9.982702e-01
9.989600e-01
9.994692e-01
9.997950e-01
9.999564e-01
9.999990e-01
1 2 19 18
2 3 20 19
3 4 21 20
4 5 22 21
5 6 23 22
6 7 24 23
7 8 25 24
8 9 26 25
9 10 27 26
10 11 28 27
11 12 29 28
12 13 30 29
13 14 31 30
14 15 32 31
15 16 33 32
16 17 34 33
18 19 36 35
19 20 37 36
20 21 38 37
21 22 39 38
22 23 40 39
23 24 41 40
24 25 42 41
25 26 43 42
26 27 44 43
27 28 45 44
28 29 46 45
29 30 47 46
30 31 48 47
31 32 49 48
32 33 50 49
33 34 51 50
35 36 53 52
36 37 54 53
37 38 55 54
38 39 56 55
39 40 57 56
40 41 58 57
41 42 59 58
42 43 60 59
43 44 61 60
44 45 62 61
45 46 63 62
46 47 64 63
47 48 65 64
48 49 66 65
49 50 67 66
50 51 68 67
52 53 70 69
53 54 71 70
54 55 72 71
55 56 73 72
56 57 74 73
57 58 75 74
58 59 76 75
59 60 77 76
60 61 78 77
61 62 79 78
62 63 80 79
63 64 81 80
64 65 82 81
65 66 83 82
66 67 84 83
67 68 85 84
69 70 87 86
70 71 88 87
71 72 89 88
72 73 90 89
73 74 91 90
74 75 92 91
75 76 93 92
76 77 94 93
77 78 95 94
78 79 96 95
79 80 97 96
80 81 98 97
81 82 99 98
82 83 100 99
83 84 101 100
84 85 102 101
86 87 104 103
87 88 105 104
88 89 106 105
89 90 107 106
90 91 108 107
91 92 109 108
92 93 110 109
93 94 111 110
94 95 112 111
95 96 113 112
96 97 114 113
97 98 115 114
98 99 116 115
99 100 117 116
100 101 118 117
101 102 119 118
103 104 121 120
104 105 122 121
105 106 123 122
106 107 124 123
107 108 125 124
108 109 126 125
109 110 127 126
110 111 128 127
111 112 129 128
112 113 130 129
113 114 131 130
114 115 132 131
115 116 133 132
116 117 134 133
117 118 135 134
118 119 136 135
120 121 138 137
121 122 139 138
122 123 140 139
123 124 141 140
124 125 142 141
125 126 143 142
126 127 144 143
127 128 145 144
128 129 146 145
129 130 147 146
130 131 148 147
131 132 149 148
132 133 150 149
133 134 151 150
134 135 152 151
135 136 153 152
