TITLE = "Solution"
VARIABLES = x, y, u, v, psiu, psiv, t, stress
ZONE T="structure" N=153 E=128 F=FEBLOCK ET=QUADRILATERAL VARLOCATION=([7,8]=cellcentered)
0.000000e+00
1.250000e+01
2.500000e+01
3.750000e+01
5.000000e+01
6.250000e+01
7.500000e+01
8.750000e+01
1.000000e+02
1.125000e+02
1.250000e+02
1.375000e+02
1.500000e+02
1.625000e+02
1.750000e+02
1.875000e+02
2.000000e+02
0.000000e+00
1.250000e+01
2.500000e+01
3.750000e+01
5.000000e+01
6.250000e+01
7.500000e+01
8.750000e+01
1.000000e+02
1.125000e+02
1.250000e+02
1.375000e+02
1.500000e+02
1.625000e+02
1.750000e+02
1.875000e+02
2.000000e+02
0.000000e+00
1.250000e+01
2.500000e+01
3.750000e+01
5.000000e+01
6.250000e+01
7.500000e+01
8.750000e+01
1.000000e+02
1.125000e+02
1.250000e+02
1.375000e+02
1.500000e+02
1.625000e+02
1.750000e+02
1.875000e+02
2.000000e+02
0.000000e+00
1.250000e+01
2.500000e+01
3.750000e+01
5.000000e+01
6.250000e+01
7.500000e+01
8.750000e+01
1.000000e+02
1.125000e+02
1.250000e+02
1.375000e+02
1.500000e+02
1.625000e+02
1.750000e+02
1.875000e+02
2.000000e+02
0.000000e+00
1.250000e+01
2.500000e+01
3.750000e+01
5.000000e+01
6.250000e+01
7.500000e+01
8.750000e+01
1.000000e+02
1.125000e+02
1.250000e+02
1.375000e+02
1.500000e+02
1.625000e+02
1.750000e+02
1.875000e+02
2.000000e+02
0.000000e+00
1.250000e+01
2.500000e+01
3.750000e+01
5.000000e+01
6.250000e+01
7.500000e+01
8.750000e+01
1.000000e+02
1.125000e+02
1.250000e+02
1.375000e+02
1.500000e+02
1.625000e+02
1.750000e+02
1.875000e+02
2.000000e+02
0.000000e+00
1.250000e+01
2.500000e+01
3.750000e+01
5.000000e+01
6.250000e+01
7.500000e+01
8.750000e+01
1.000000e+02
1.125000e+02
1.250000e+02
1.375000e+02
1.500000e+02
1.625000e+02
1.750000e+02
1.875000e+02
2.000000e+02
0.000000e+00
1.250000e+01
2.500000e+01
3.750000e+01
5.000000e+01
6.250000e+01
7.500000e+01
8.750000e+01
1.000000e+02
1.125000e+02
1.250000e+02
1.375000e+02
1.500000e+02
1.625000e+02
1.750000e+02
1.875000e+02
2.000000e+02
0.000000e+00
1.250000e+01
2.500000e+01
3.750000e+01
5.000000e+01
6.250000e+01
7.500000e+01
8.750000e+01
1.000000e+02
1.125000e+02
1.250000e+02
1.375000e+02
1.500000e+02
1.625000e+02
1.750000e+02
1.875000e+02
2.000000e+02
0.000000e+00
0.000000e+00
0.000000e+00
0.000000e+00
0.000000e+00
0.000000e+00
0.000000e+00
0.000000e+00
0.000000e+00
0.000000e+00
0.000000e+00
0.000000e+00
0.000000e+00
0.000000e+00
0.000000e+00
0.000000e+00
0.000000e+00
1.250000e+01
1.250000e+01
1.250000e+01
1.250000e+01
1.250000e+01
1.250000e+01
1.250000e+01
1.250000e+01
1.250000e+01
1.250000e+01
1.250000e+01
1.250000e+01
1.250000e+01
1.250000e+01
1.250000e+01
1.250000e+01
1.250000e+01
2.500000e+01
2.500000e+01
2.500000e+01
2.500000e+01
2.500000e+01
2.500000e+01
2.500000e+01
2.500000e+01
2.500000e+01
2.500000e+01
2.500000e+01
2.500000e+01
2.500000e+01
2.500000e+01
2.500000e+01
2.500000e+01
2.500000e+01
3.750000e+01
3.750000e+01
3.750000e+01
3.750000e+01
3.750000e+01
3.750000e+01
3.750000e+01
3.750000e+01
3.750000e+01
3.750000e+01
3.750000e+01
3.750000e+01
3.750000e+01
3.750000e+01
3.750000e+01
3.750000e+01
3.750000e+01
5.000000e+01
5.000000e+01
5.000000e+01
5.000000e+01
5.000000e+01
5.000000e+01
5.000000e+01
5.000000e+01
5.000000e+01
5.000000e+01
5.000000e+01
5.000000e+01
5.000000e+01
5.000000e+01
5.000000e+01
5.000000e+01
5.000000e+01
6.250000e+01
6.250000e+01
6.250000e+01
6.250000e+01
6.250000e+01
6.250000e+01
6.250000e+01
6.250000e+01
6.250000e+01
6.250000e+01
6.250000e+01
6.250000e+01
6.250000e+01
6.250000e+01
6.250000e+01
6.250000e+01
6.250000e+01
7.500000e+01
7.500000e+01
7.500000e+01
7.500000e+01
7.500000e+01
7.500000e+01
7.500000e+01
7.500000e+01
7.500000e+01
7.500000e+01
7.500000e+01
7.500000e+01
7.500000e+01
7.500000e+01
7.500000e+01
7.500000e+01
7.500000e+01
8.750000e+01
8.750000e+01
8.750000e+01
8.750000e+01
8.750000e+01
8.750000e+01
8.750000e+01
8.750000e+01
8.750000e+01
8.750000e+01
8.750000e+01
8.750000e+01
8.750000e+01
8.750000e+01
8.750000e+01
8.750000e+01
8.750000e+01
1.000000e+02
1.000000e+02
1.000000e+02
1.000000e+02
1.000000e+02
1.000000e+02
1.000000e+02
1.000000e+02
1.000000e+02
1.000000e+02
1.000000e+02
1.000000e+02
1.000000e+02
1.000000e+02
1.000000e+02
1.000000e+02
1.000000e+02
0.000000e+00
-9.662339e-01
-1.665515e+00
-2.369616e+00
-3.071563e+00
-3.723766e+00
-4.394787e+00
-5.070221e+00
-5.731949e+00
-6.407375e+00
-7.076990e+00
-7.725916e+00
-8.395421e+00
-9.192057e+00
-1.007016e+01
-1.083891e+01
-1.132874e+01
0.000000e+00
-4.488914e-01
-9.179130e-01
-1.410655e+00
-1.931068e+00
-2.421678e+00
-2.928996e+00
-3.437907e+00
-3.929075e+00
-4.427004e+00
-4.931768e+00
-5.419974e+00
-5.914881e+00
-6.451719e+00
-6.891858e+00
-7.008791e+00
-7.195441e+00
0.000000e+00
-1.638891e-01
-3.754658e-01
-6.667525e-01
-1.002831e+00
-1.335331e+00
-1.687830e+00
-2.034511e+00
-2.366066e+00
-2.704842e+00
-3.052892e+00
-3.384888e+00
-3.687174e+00
-3.927873e+00
-4.026733e+00
-4.021486e+00
-4.171915e+00
0.000000e+00
-7.074598e-02
-1.532677e-01
-2.863849e-01
-4.364018e-01
-6.040300e-01
-7.775244e-01
-9.434553e-01
-1.112224e+00
-1.290465e+00
-1.466233e+00
-1.618910e+00
-1.708307e+00
-1.705731e+00
-1.629716e+00
-1.614484e+00
-1.732642e+00
0.000000e+00
-3.771203e-03
-7.677170e-03
-1.170801e-02
-1.573321e-02
-1.802687e-02
-1.737373e-02
-1.247709e-02
-1.652727e-03
1.702157e-02
4.452617e-02
9.199205e-02
1.735369e-01
2.877976e-01
4.117754e-01
4.566442e-01
3.578424e-01
0.000000e+00
6.356093e-02
1.394998e-01
2.657336e-01
4.098595e-01
5.718057e-01
7.433585e-01
9.169208e-01
1.107860e+00
1.323923e+00
1.560941e+00
1.806061e+00
2.034039e+00
2.225177e+00
2.353284e+00
2.386073e+00
2.320129e+00
0.000000e+00
1.605127e-01
3.676478e-01
6.537869e-01
9.867543e-01
1.318998e+00
1.668450e+00
2.016720e+00
2.369119e+00
2.744958e+00
3.131350e+00
3.514974e+00
3.866713e+00
4.137140e+00
4.303635e+00
4.355016e+00
4.331515e+00
0.000000e+00
4.493446e-01
9.159882e-01
1.403797e+00
1.922232e+00
2.414597e+00
2.918326e+00
3.420414e+00
3.910849e+00
4.401514e+00
4.880237e+00
5.343410e+00
5.783727e+00
6.134428e+00
6.351098e+00
6.445634e+00
6.462211e+00
0.000000e+00
9.681857e-01
1.667472e+00
2.367996e+00
3.071590e+00
3.728988e+00
4.399767e+00
5.066436e+00
5.712754e+00
6.341902e+00
6.934859e+00
7.507496e+00
8.040630e+00
8.443467e+00
8.650659e+00
8.708790e+00
8.710537e+00
0.000000e+00
-6.050132e-01
-1.321027e+00
-2.277000e+00
-3.413344e+00
-4.715828e+00
-6.195543e+00
-7.839802e+00
-9.654962e+00
-1.165838e+01
-1.383900e+01
-1.618204e+01
-1.870299e+01
-2.143642e+01
-2.439101e+01
-2.776400e+01
-3.289967e+01
0.000000e+00
-4.018684e-01
-1.154918e+00
-2.095233e+00
-3.238445e+00
-4.542638e+00
-6.019137e+00
-7.666265e+00
-9.481336e+00
-1.148217e+01
-1.366863e+01
-1.601499e+01
-1.852342e+01
-2.124767e+01
-2.425605e+01
-2.766998e+01
-3.178015e+01
0.000000e+00
-3.706276e-01
-1.056567e+00
-1.986727e+00
-3.119049e+00
-4.417159e+00
-5.897218e+00
-7.546808e+00
-9.360686e+00
-1.136178e+01
-1.355536e+01
-1.591414e+01
-1.843295e+01
-2.118395e+01
-2.424758e+01
-2.751129e+01
-3.054493e+01
0.000000e+00
-4.200279e-01
-1.050411e+00
-1.952489e+00
-3.057047e+00
-4.348504e+00
-5.832748e+00
-7.482864e+00
-9.298489e+00
-1.130550e+01
-1.350973e+01
-1.589758e+01
-1.844276e+01
-2.118341e+01
-2.418071e+01
-2.720922e+01
-2.982856e+01
0.000000e+00
-4.352806e-01
-1.063050e+00
-1.945792e+00
-3.041648e+00
-4.334484e+00
-5.820321e+00
-7.473200e+00
-9.297410e+00
-1.131387e+01
-1.353013e+01
-1.593325e+01
-1.848734e+01
-2.117776e+01
-2.402205e+01
-2.685043e+01
-2.923013e+01
0.000000e+00
-4.193351e-01
-1.050857e+00
-1.954295e+00
-3.063378e+00
-4.363944e+00
-5.857740e+00
-7.517592e+00
-9.353248e+00
-1.138308e+01
-1.359831e+01
-1.598923e+01
-1.852569e+01
-2.116838e+01
-2.387729e+01
-2.651950e+01
-2.878146e+01
0.000000e+00
-3.698296e-01
-1.057798e+00
-1.990642e+00
-3.129616e+00
-4.441493e+00
-5.938645e+00
-7.608896e+00
-9.456075e+00
-1.149204e+01
-1.369685e+01
-1.606055e+01
-1.857140e+01
-2.117324e+01
-2.379271e+01
-2.630826e+01
-2.855261e+01
0.000000e+00
-4.010365e-01
-1.155673e+00
-2.099458e+00
-3.250296e+00
-4.568695e+00
-6.064977e+00
-7.739677e+00
-9.592240e+00
-1.162620e+01
-1.382060e+01
-1.616283e+01
-1.864999e+01
-2.121833e+01
-2.377356e+01
-2.621773e+01
-2.849087e+01
0.000000e+00
-6.043013e-01
-1.321108e+00
-2.280622e+00
-3.426187e+00
-4.742547e+00
-6.240939e+00
-7.913357e+00
-9.763605e+00
-1.179131e+01
-1.397547e+01
-1.630933e+01
-1.877418e+01
-2.130034e+01
-2.380057e+01
-2.620229e+01
-2.848887e+01


0.000000e+00
1.505110e-05
2.494753e-05
3.694931e-05
5.446587e-05
6.780582e-05
8.157582e-05
9.869679e-05
1.133668e-04
1.295603e-04
1.450072e-04
1.592396e-04
1.771731e-04
1.917813e-04
2.014715e-04
2.097695e-04
2.249779e-04
0.000000e+00
1.145800e-05
1.969302e-05
2.880833e-05
4.342635e-05
5.387750e-05
6.345961e-05
7.627731e-05
8.752390e-05
9.845739e-05
1.088926e-04
1.182246e-04
1.307168e-04
1.414344e-04
1.425214e-04
1.475585e-04
1.547445e-04
0.000000e+00
9.714209e-06
1.533225e-05
2.146327e-05
3.192962e-05
3.876024e-05
4.475945e-05
5.298946e-05
5.957218e-05
6.571250e-05
7.168394e-05
7.621486e-05
8.120254e-05
8.231023e-05
8.121019e-05
8.082637e-05
8.102725e-05
0.000000e+00
5.215713e-06
7.593246e-06
1.087288e-05
1.579747e-05
1.829809e-05
2.165219e-05
2.530564e-05
2.702113e-05
2.965256e-05
3.126365e-05
3.142694e-05
3.002784e-05
2.788937e-05
2.632226e-05
2.762447e-05
3.300902e-05
0.000000e+00
-1.369955e-07
-3.343559e-07
-5.961685e-07
-8.963742e-07
-1.309268e-06
-1.818642e-06
-2.326516e-06
-3.170456e-06
-4.520121e-06
-6.863139e-06
-1.059222e-05
-1.393346e-05
-1.575856e-05
-1.446232e-05
-1.034636e-05
-5.694770e-06
0.000000e+00
-5.457614e-06
-8.154734e-06
-1.181504e-05
-1.742877e-05
-2.069064e-05
-2.458973e-05
-2.932907e-05
-3.190876e-05
-3.552437e-05
-3.862282e-05
-4.402052e-05
-4.950216e-05
-5.123553e-05
-5.146874e-05
-5.155825e-05
-4.954382e-05
0.000000e+00
-9.857234e-06
-1.551919e-05
-2.191709e-05
-3.311205e-05
-4.020339e-05
-4.650867e-05
-5.568298e-05
-6.243513e-05
-6.722585e-05
-7.268708e-05
-7.751234e-05
-8.302405e-05
-8.712087e-05
-8.886859e-05
-9.052082e-05
-9.117763e-05
0.000000e+00
-1.157690e-05
-1.973153e-05
-2.889029e-05
-4.399463e-05
-5.428183e-05
-6.366761e-05
-7.738242e-05
-8.871671e-05
-9.890578e-05
-1.104833e-04
-1.188238e-04
-1.246742e-04
-1.299536e-04
-1.333308e-04
-1.345726e-04
-1.346948e-04
0.000000e+00
-1.527249e-05
-2.510949e-05
-3.693414e-05
-5.451795e-05
-6.744305e-05
-8.034557e-05
-9.772008e-05
-1.120636e-04
-1.283035e-04
-1.476710e-04
-1.637861e-04
-1.743251e-04
-1.789073e-04
-1.807808e-04
-1.811384e-04
-1.810301e-04
0.000000e+00
1.243226e-05
1.975886e-05
3.218667e-05
4.823542e-05
6.406282e-05
8.580471e-05
1.128573e-04
1.421531e-04
1.771772e-04
2.164992e-04
2.614332e-04
3.140437e-04
3.691286e-04
4.317928e-04
5.012526e-04
5.830845e-04
0.000000e+00
7.496425e-06
1.575083e-05
2.561439e-05
4.118944e-05
5.856575e-05
7.927436e-05
1.058375e-04
1.357769e-04
1.705463e-04
2.106050e-04
2.550080e-04
3.070128e-04
3.636409e-04
4.249953e-04
4.917523e-04
5.647524e-04
0.000000e+00
4.217572e-06
1.171258e-05
2.040763e-05
3.536812e-05
5.373844e-05
7.472827e-05
1.006542e-04
1.310748e-04
1.661855e-04
2.061043e-04
2.508420e-04
3.024327e-04
3.638755e-04
4.245174e-04
4.904386e-04
5.608867e-04
0.000000e+00
2.760987e-06
9.674143e-06
1.837865e-05
3.296427e-05
5.167055e-05
7.295464e-05
9.914751e-05
1.295403e-04
1.643566e-04
2.041769e-04
2.494227e-04
3.027359e-04
3.612359e-04
4.231593e-04
4.852265e-04
5.468254e-04
0.000000e+00
2.266698e-06
9.096472e-06
1.808190e-05
3.239302e-05
5.108449e-05
7.250365e-05
9.872843e-05
1.292084e-04
1.636808e-04
2.024757e-04
2.496475e-04
3.037737e-04
3.629798e-04
4.188209e-04
4.741992e-04
5.286484e-04
0.000000e+00
2.935510e-06
9.938019e-06
1.859545e-05
3.327219e-05
5.197750e-05
7.278132e-05
9.882557e-05
1.291259e-04
1.633428e-04
2.023130e-04
2.513671e-04
3.070400e-04
3.635758e-04
4.196784e-04
4.715359e-04
5.178138e-04
0.000000e+00
4.489484e-06
1.212280e-05
2.081835e-05
3.599051e-05
5.413696e-05
7.447486e-05
1.000197e-04
1.298194e-04
1.638521e-04
2.043908e-04
2.549332e-04
3.111798e-04
3.658774e-04
4.189039e-04
4.696162e-04
5.143218e-04
0.000000e+00
7.757940e-06
1.621706e-05
2.624850e-05
4.196091e-05
5.902295e-05
7.917097e-05
1.052670e-04
1.339672e-04
1.676189e-04
2.094866e-04
2.591228e-04
3.144723e-04
3.680085e-04
4.189625e-04
4.681429e-04
5.142848e-04
0.000000e+00
1.271035e-05
2.021078e-05
3.293727e-05
4.911185e-05
6.441412e-05
8.586853e-05
1.126863e-04
1.402226e-04
1.747309e-04
2.169144e-04
2.638251e-04
3.169335e-04
3.688924e-04
4.193913e-04
4.677617e-04
5.144495e-04


4.165678e+00
3.905313e+00
3.693084e+00
3.576738e+00
3.465587e+00
3.741562e+00
3.700404e+00
3.737159e+00
4.427632e+00
5.252619e+00
5.990868e+00
7.108844e+00
8.784407e+00
9.195981e+00
8.009812e+00
6.933858e+00
7.043937e+00
6.551081e+00
6.511469e+00
6.198290e+00
6.102291e+00
6.252618e+00
6.011084e+00
5.979470e+00
6.589736e+00
7.482690e+00
8.061469e+00
8.724367e+00
9.373965e+00
9.002981e+00
7.053974e+00
5.314389e+00
9.257888e+00
9.180569e+00
9.053312e+00
8.957272e+00
8.863067e+00
8.931723e+00
8.751023e+00
8.635933e+00
8.972260e+00
9.412890e+00
9.702874e+00
9.745965e+00
9.746166e+00
8.896540e+00
7.037451e+00
5.332000e+00
9.944738e+00
9.862640e+00
9.954077e+00
9.881095e+00
9.894594e+00
9.923532e+00
9.882776e+00
9.883809e+00
9.902108e+00
9.902068e+00
9.681349e+00
9.134619e+00
8.633242e+00
8.386133e+00
7.909951e+00
7.521344e+00
9.955067e+00
9.860471e+00
9.961638e+00
9.867194e+00
9.874905e+00
9.890509e+00
9.864523e+00
9.881650e+00
9.887155e+00
9.660453e+00
8.925397e+00
7.886043e+00
7.194516e+00
7.646387e+00
8.651115e+00
9.069168e+00
9.255609e+00
9.206211e+00
9.087557e+00
8.978335e+00
8.774142e+00
8.769232e+00
8.593895e+00
8.550443e+00
8.611758e+00
8.355640e+00
7.922107e+00
7.486814e+00
7.526659e+00
8.291306e+00
9.256597e+00
9.792091e+00
7.038833e+00
6.569898e+00
6.585683e+00
6.217847e+00
6.008567e+00
6.002443e+00
5.762720e+00
5.777790e+00
6.056946e+00
6.301247e+00
6.961800e+00
8.140111e+00
8.976200e+00
9.497409e+00
9.866609e+00
9.943376e+00
4.140423e+00
3.920973e+00
3.716299e+00
3.612773e+00
3.391231e+00
3.572460e+00
3.530530e+00
3.709610e+00
4.249616e+00
5.009968e+00
6.678952e+00
8.644475e+00
9.739273e+00
9.916820e+00
9.976125e+00
9.994438e+00


-7.578836e-01
-2.138001e-01
-2.567059e-01
-3.095050e-01
-1.504177e-01
-2.214830e-01
-2.339212e-01
-1.731326e-01
-2.172248e-01
-2.214030e-01
-1.467362e-01
-2.027113e-01
-5.552874e-01
-4.826098e-01
3.090448e-01
-1.144932e+00
5.974789e-01
4.667273e-01
3.404658e-01
2.290462e-01
2.769254e-01
2.064101e-01
2.027123e-01
2.427473e-01
1.946644e-01
1.386862e-01
1.811687e-01
2.331843e-01
2.892369e-01
5.783793e-01
7.053164e-01
-1.150989e+00
7.627954e-01
5.377478e-01
2.663866e-01
1.579484e-01
1.403560e-01
8.710837e-02
1.238714e-01
1.481030e-01
7.924018e-02
1.530452e-02
5.382548e-02
2.000548e-01
3.085996e-01
1.923681e-01
2.947264e-02
-1.418463e-01
7.548079e-01
5.702285e-01
2.644182e-01
1.045571e-01
1.369115e-02
-4.436484e-02
-2.594200e-02
-8.176382e-03
-1.770122e-02
-1.190121e-02
3.544229e-02
1.171176e-01
5.231319e-02
-3.211882e-01
-4.052848e-01
-4.765536e-02
7.570946e-01
5.728079e-01
2.708510e-01
1.113850e-01
1.497910e-02
-5.297946e-02
-4.815995e-02
-5.559805e-02
-8.235613e-02
-6.944279e-02
-2.484344e-02
2.791944e-02
1.165684e-02
-1.607798e-01
-1.865641e-01
2.698096e-01
7.697175e-01
5.482464e-01
2.837161e-01
1.712941e-01
1.464014e-01
9.088082e-02
1.008713e-01
6.014618e-02
-5.388033e-02
-1.327715e-01
-1.815508e-01
-1.592768e-01
-4.618101e-02
8.896612e-02
3.255587e-01
7.300057e-01
6.024841e-01
4.772436e-01
3.559467e-01
2.352514e-01
2.687028e-01
2.043797e-01
1.846428e-01
1.565101e-01
4.869758e-02
-3.320867e-02
-1.086336e-01
-1.384693e-01
6.582232e-02
3.849938e-01
7.094670e-01
9.469039e-01
-7.623612e-01
-2.085641e-01
-2.393086e-01
-3.094072e-01
-1.650144e-01
-2.158204e-01
-2.081427e-01
-1.525341e-01
-1.320142e-01
-5.671629e-02
-1.184383e-02
7.309532e-02
4.027656e-01
7.689703e-01
9.497232e-01
9.985320e-01
1 2 19 18
2 3 20 19
3 4 21 20
4 5 22 21
5 6 23 22
6 7 24 23
7 8 25 24
8 9 26 25
9 10 27 26
10 11 28 27
11 12 29 28
12 13 30 29
13 14 31 30
14 15 32 31
15 16 33 32
16 17 34 33
18 19 36 35
19 20 37 36
20 21 38 37
21 22 39 38
22 23 40 39
23 24 41 40
24 25 42 41
25 26 43 42
26 27 44 43
27 28 45 44
28 29 46 45
29 30 47 46
30 31 48 47
31 32 49 48
32 33 50 49
33 34 51 50
35 36 53 52
36 37 54 53
37 38 55 54
38 39 56 55
39 40 57 56
40 41 58 57
41 42 59 58
42 43 60 59
43 44 61 60
44 45 62 61
45 46 63 62
46 47 64 63
47 48 65 64
48 49 66 65
49 50 67 66
50 51 68 67
52 53 70 69
53 54 71 70
54 55 72 71
55 56 73 72
56 57 74 73
57 58 75 74
58 59 76 75
59 60 77 76
60 61 78 77
61 62 79 78
62 63 80 79
63 64 81 80
64 65 82 81
65 66 83 82
66 67 84 83
67 68 85 84
69 70 87 86
70 71 88 87
71 72 89 88
72 73 90 89
73 74 91 90
74 75 92 91
75 76 93 92
76 77 94 93
77 78 95 94
78 79 96 95
79 80 97 96
80 81 98 97
81 82 99 98
82 83 100 99
83 84 101 100
84 85 102 101
86 87 104 103
87 88 105 104
88 89 106 105
89 90 107 106
90 91 108 107
91 92 109 108
92 93 110 109
93 94 111 110
94 95 112 111
95 96 113 112
96 97 114 113
97 98 115 114
98 99 116 115
99 100 117 116
100 101 118 117
101 102 119 118
103 104 121 120
104 105 122 121
105 106 123 122
106 107 124 123
107 108 125 124
108 109 126 125
109 110 127 126
110 111 128 127
111 112 129 128
112 113 130 129
113 114 131 130
114 115 132 131
115 116 133 132
116 117 134 133
117 118 135 134
118 119 136 135
120 121 138 137
121 122 139 138
122 123 140 139
123 124 141 140
124 125 142 141
125 126 143 142
126 127 144 143
127 128 145 144
128 129 146 145
129 130 147 146
130 131 148 147
131 132 149 148
132 133 150 149
133 134 151 150
134 135 152 151
135 136 153 152
