TITLE = "Solution"
VARIABLES = x, y, u, v, psiu, psiv, t, stress
ZONE T="structure" N=153 E=128 F=FEBLOCK ET=QUADRILATERAL VARLOCATION=([7,8]=cellcentered)
0.000000e+00
1.250000e+01
2.500000e+01
3.750000e+01
5.000000e+01
6.250000e+01
7.500000e+01
8.750000e+01
1.000000e+02
1.125000e+02
1.250000e+02
1.375000e+02
1.500000e+02
1.625000e+02
1.750000e+02
1.875000e+02
2.000000e+02
0.000000e+00
1.250000e+01
2.500000e+01
3.750000e+01
5.000000e+01
6.250000e+01
7.500000e+01
8.750000e+01
1.000000e+02
1.125000e+02
1.250000e+02
1.375000e+02
1.500000e+02
1.625000e+02
1.750000e+02
1.875000e+02
2.000000e+02
0.000000e+00
1.250000e+01
2.500000e+01
3.750000e+01
5.000000e+01
6.250000e+01
7.500000e+01
8.750000e+01
1.000000e+02
1.125000e+02
1.250000e+02
1.375000e+02
1.500000e+02
1.625000e+02
1.750000e+02
1.875000e+02
2.000000e+02
0.000000e+00
1.250000e+01
2.500000e+01
3.750000e+01
5.000000e+01
6.250000e+01
7.500000e+01
8.750000e+01
1.000000e+02
1.125000e+02
1.250000e+02
1.375000e+02
1.500000e+02
1.625000e+02
1.750000e+02
1.875000e+02
2.000000e+02
0.000000e+00
1.250000e+01
2.500000e+01
3.750000e+01
5.000000e+01
6.250000e+01
7.500000e+01
8.750000e+01
1.000000e+02
1.125000e+02
1.250000e+02
1.375000e+02
1.500000e+02
1.625000e+02
1.750000e+02
1.875000e+02
2.000000e+02
0.000000e+00
1.250000e+01
2.500000e+01
3.750000e+01
5.000000e+01
6.250000e+01
7.500000e+01
8.750000e+01
1.000000e+02
1.125000e+02
1.250000e+02
1.375000e+02
1.500000e+02
1.625000e+02
1.750000e+02
1.875000e+02
2.000000e+02
0.000000e+00
1.250000e+01
2.500000e+01
3.750000e+01
5.000000e+01
6.250000e+01
7.500000e+01
8.750000e+01
1.000000e+02
1.125000e+02
1.250000e+02
1.375000e+02
1.500000e+02
1.625000e+02
1.750000e+02
1.875000e+02
2.000000e+02
0.000000e+00
1.250000e+01
2.500000e+01
3.750000e+01
5.000000e+01
6.250000e+01
7.500000e+01
8.750000e+01
1.000000e+02
1.125000e+02
1.250000e+02
1.375000e+02
1.500000e+02
1.625000e+02
1.750000e+02
1.875000e+02
2.000000e+02
0.000000e+00
1.250000e+01
2.500000e+01
3.750000e+01
5.000000e+01
6.250000e+01
7.500000e+01
8.750000e+01
1.000000e+02
1.125000e+02
1.250000e+02
1.375000e+02
1.500000e+02
1.625000e+02
1.750000e+02
1.875000e+02
2.000000e+02
0.000000e+00
0.000000e+00
0.000000e+00
0.000000e+00
0.000000e+00
0.000000e+00
0.000000e+00
0.000000e+00
0.000000e+00
0.000000e+00
0.000000e+00
0.000000e+00
0.000000e+00
0.000000e+00
0.000000e+00
0.000000e+00
0.000000e+00
1.250000e+01
1.250000e+01
1.250000e+01
1.250000e+01
1.250000e+01
1.250000e+01
1.250000e+01
1.250000e+01
1.250000e+01
1.250000e+01
1.250000e+01
1.250000e+01
1.250000e+01
1.250000e+01
1.250000e+01
1.250000e+01
1.250000e+01
2.500000e+01
2.500000e+01
2.500000e+01
2.500000e+01
2.500000e+01
2.500000e+01
2.500000e+01
2.500000e+01
2.500000e+01
2.500000e+01
2.500000e+01
2.500000e+01
2.500000e+01
2.500000e+01
2.500000e+01
2.500000e+01
2.500000e+01
3.750000e+01
3.750000e+01
3.750000e+01
3.750000e+01
3.750000e+01
3.750000e+01
3.750000e+01
3.750000e+01
3.750000e+01
3.750000e+01
3.750000e+01
3.750000e+01
3.750000e+01
3.750000e+01
3.750000e+01
3.750000e+01
3.750000e+01
5.000000e+01
5.000000e+01
5.000000e+01
5.000000e+01
5.000000e+01
5.000000e+01
5.000000e+01
5.000000e+01
5.000000e+01
5.000000e+01
5.000000e+01
5.000000e+01
5.000000e+01
5.000000e+01
5.000000e+01
5.000000e+01
5.000000e+01
6.250000e+01
6.250000e+01
6.250000e+01
6.250000e+01
6.250000e+01
6.250000e+01
6.250000e+01
6.250000e+01
6.250000e+01
6.250000e+01
6.250000e+01
6.250000e+01
6.250000e+01
6.250000e+01
6.250000e+01
6.250000e+01
6.250000e+01
7.500000e+01
7.500000e+01
7.500000e+01
7.500000e+01
7.500000e+01
7.500000e+01
7.500000e+01
7.500000e+01
7.500000e+01
7.500000e+01
7.500000e+01
7.500000e+01
7.500000e+01
7.500000e+01
7.500000e+01
7.500000e+01
7.500000e+01
8.750000e+01
8.750000e+01
8.750000e+01
8.750000e+01
8.750000e+01
8.750000e+01
8.750000e+01
8.750000e+01
8.750000e+01
8.750000e+01
8.750000e+01
8.750000e+01
8.750000e+01
8.750000e+01
8.750000e+01
8.750000e+01
8.750000e+01
1.000000e+02
1.000000e+02
1.000000e+02
1.000000e+02
1.000000e+02
1.000000e+02
1.000000e+02
1.000000e+02
1.000000e+02
1.000000e+02
1.000000e+02
1.000000e+02
1.000000e+02
1.000000e+02
1.000000e+02
1.000000e+02
1.000000e+02
0.000000e+00
-1.027467e+00
-1.691208e+00
-2.418485e+00
-3.110105e+00
-3.755390e+00
-4.422516e+00
-5.004818e+00
-5.658148e+00
-6.374731e+00
-7.057042e+00
-7.743195e+00
-8.461478e+00
-9.196383e+00
-1.000556e+01
-1.071105e+01
-1.115404e+01
0.000000e+00
-4.685425e-01
-9.242431e-01
-1.421075e+00
-1.943757e+00
-2.440433e+00
-2.951928e+00
-3.430796e+00
-3.933250e+00
-4.475948e+00
-4.975195e+00
-5.469123e+00
-5.972782e+00
-6.450760e+00
-6.824473e+00
-6.927979e+00
-7.097291e+00
0.000000e+00
-1.562110e-01
-3.646100e-01
-6.578092e-01
-1.010180e+00
-1.350649e+00
-1.722234e+00
-2.091893e+00
-2.446967e+00
-2.793500e+00
-3.106375e+00
-3.411796e+00
-3.690213e+00
-3.888731e+00
-3.953019e+00
-3.932142e+00
-4.081695e+00
0.000000e+00
-7.896990e-02
-1.645236e-01
-3.195627e-01
-4.684257e-01
-6.446863e-01
-8.299254e-01
-9.932605e-01
-1.153515e+00
-1.292311e+00
-1.430952e+00
-1.552763e+00
-1.627115e+00
-1.628467e+00
-1.563883e+00
-1.556229e+00
-1.693601e+00
0.000000e+00
-2.013347e-03
-4.275535e-03
-6.347483e-03
-7.476420e-03
-6.207024e-03
-5.485383e-04
1.174459e-02
3.254761e-02
6.321456e-02
1.071488e-01
1.720904e-01
2.649007e-01
3.799865e-01
4.716185e-01
4.795003e-01
3.769369e-01
0.000000e+00
7.565417e-02
1.583757e-01
3.102234e-01
4.571436e-01
6.343253e-01
8.259661e-01
1.006167e+00
1.197910e+00
1.388273e+00
1.607315e+00
1.842950e+00
2.068875e+00
2.262198e+00
2.391377e+00
2.417107e+00
2.356482e+00
0.000000e+00
1.547681e-01
3.621748e-01
6.542720e-01
1.005079e+00
1.343663e+00
1.714368e+00
2.086185e+00
2.450698e+00
2.821817e+00
3.178416e+00
3.541111e+00
3.874132e+00
4.137626e+00
4.306976e+00
4.367295e+00
4.351700e+00
0.000000e+00
4.684370e-01
9.240609e-01
1.420337e+00
1.942393e+00
2.437675e+00
2.946366e+00
3.421418e+00
3.915421e+00
4.446282e+00
4.934382e+00
5.398312e+00
5.817170e+00
6.139880e+00
6.344674e+00
6.436007e+00
6.452775e+00
0.000000e+00
1.028594e+00
1.693385e+00
2.421793e+00
3.115011e+00
3.762432e+00
4.429850e+00
5.010586e+00
5.652809e+00
6.341291e+00
6.976664e+00
7.565579e+00
8.073544e+00
8.432805e+00
8.621546e+00
8.672635e+00
8.672654e+00
0.000000e+00
-6.293612e-01
-1.365145e+00
-2.354896e+00
-3.520102e+00
-4.846498e+00
-6.336275e+00
-7.955340e+00
-9.734772e+00
-1.167909e+01
-1.378438e+01
-1.608439e+01
-1.858093e+01
-2.127430e+01
-2.420787e+01
-2.757245e+01
-3.253037e+01
0.000000e+00
-4.253370e-01
-1.202346e+00
-2.169804e+00
-3.346374e+00
-4.671175e+00
-6.168444e+00
-7.794758e+00
-9.554639e+00
-1.149959e+01
-1.361087e+01
-1.590919e+01
-1.840532e+01
-2.110692e+01
-2.407988e+01
-2.748235e+01
-3.153597e+01
0.000000e+00
-3.954341e-01
-1.098222e+00
-2.064043e+00
-3.221415e+00
-4.538209e+00
-6.041619e+00
-7.669045e+00
-9.440296e+00
-1.138596e+01
-1.350284e+01
-1.581087e+01
-1.832296e+01
-2.105430e+01
-2.406852e+01
-2.731818e+01
-3.036871e+01
0.000000e+00
-4.474031e-01
-1.083327e+00
-2.034337e+00
-3.153763e+00
-4.456705e+00
-5.961000e+00
-7.597912e+00
-9.395013e+00
-1.133930e+01
-1.346628e+01
-1.579349e+01
-1.832483e+01
-2.106305e+01
-2.401199e+01
-2.698045e+01
-2.955710e+01
0.000000e+00
-4.520782e-01
-1.101872e+00
-2.017687e+00
-3.140146e+00
-4.438263e+00
-5.934357e+00
-7.593115e+00
-9.397303e+00
-1.135202e+01
-1.349006e+01
-1.583395e+01
-1.836522e+01
-2.106809e+01
-2.387665e+01
-2.660780e+01
-2.893506e+01
0.000000e+00
-4.471522e-01
-1.084373e+00
-2.037673e+00
-3.160563e+00
-4.468861e+00
-5.981534e+00
-7.630665e+00
-9.442048e+00
-1.140351e+01
-1.355342e+01
-1.590060e+01
-1.841665e+01
-2.105808e+01
-2.374788e+01
-2.631794e+01
-2.854212e+01
0.000000e+00
-3.954951e-01
-1.100290e+00
-2.069508e+00
-3.232345e+00
-4.558055e+00
-6.075143e+00
-7.722226e+00
-9.517613e+00
-1.149367e+01
-1.364605e+01
-1.598543e+01
-1.847933e+01
-2.106545e+01
-2.366014e+01
-2.613255e+01
-2.834267e+01
0.000000e+00
-4.255514e-01
-1.204509e+00
-2.175424e+00
-3.357900e+00
-4.692306e+00
-6.204754e+00
-7.852593e+00
-9.641180e+00
-1.162356e+01
-1.377240e+01
-1.609747e+01
-1.856696e+01
-2.110909e+01
-2.363681e+01
-2.604817e+01
-2.828869e+01
0.000000e+00
-6.298347e-01
-1.367431e+00
-2.360695e+00
-3.531876e+00
-4.867843e+00
-6.372605e+00
-8.012217e+00
-9.818877e+00
-1.179879e+01
-1.393675e+01
-1.624561e+01
-1.868526e+01
-2.118278e+01
-2.365941e+01
-2.603226e+01
-2.828848e+01


0.000000e+00
1.376148e-05
2.422990e-05
3.720452e-05
5.148571e-05
6.526228e-05
7.978504e-05
9.351611e-05
1.089362e-04
1.238579e-04
1.354785e-04
1.449533e-04
1.521851e-04
1.567354e-04
1.600308e-04
1.638254e-04
1.688597e-04
0.000000e+00
9.598682e-06
1.920142e-05
2.897227e-05
4.072098e-05
5.166825e-05
6.263302e-05
7.393767e-05
8.592135e-05
9.656238e-05
1.039172e-04
1.095906e-04
1.131836e-04
1.135883e-04
1.131417e-04
1.169509e-04
1.225681e-04
0.000000e+00
7.818442e-06
1.498816e-05
2.174128e-05
3.030145e-05
3.786626e-05
4.542272e-05
5.328676e-05
6.032154e-05
6.562207e-05
6.916475e-05
7.169213e-05
7.274991e-05
7.212562e-05
7.195618e-05
7.517920e-05
8.035665e-05
0.000000e+00
4.451928e-06
7.129171e-06
1.137487e-05
1.517186e-05
1.890312e-05
2.291039e-05
2.647115e-05
2.942637e-05
3.133056e-05
3.250744e-05
3.290552e-05
3.272726e-05
3.281846e-05
3.380923e-05
3.668169e-05
4.107705e-05
0.000000e+00
-5.931005e-08
-1.321756e-07
-2.046856e-07
-2.775084e-07
-3.404553e-07
-3.916266e-07
-4.317767e-07
-5.353202e-07
-8.463159e-07
-1.547069e-06
-2.534757e-06
-3.375317e-06
-3.431525e-06
-2.457007e-06
-9.605475e-07
1.134662e-06
0.000000e+00
-4.561145e-06
-7.339720e-06
-1.171574e-05
-1.561386e-05
-1.943977e-05
-2.350692e-05
-2.709251e-05
-3.001065e-05
-3.193405e-05
-3.357904e-05
-3.512855e-05
-3.633337e-05
-3.697685e-05
-3.744456e-05
-3.778289e-05
-3.739652e-05
0.000000e+00
-7.878995e-06
-1.509992e-05
-2.190881e-05
-3.055542e-05
-3.820321e-05
-4.583478e-05
-5.370404e-05
-6.056582e-05
-6.539320e-05
-6.807502e-05
-6.957902e-05
-7.066551e-05
-7.169338e-05
-7.273500e-05
-7.361804e-05
-7.385696e-05
0.000000e+00
-9.617806e-06
-1.922176e-05
-2.897588e-05
-4.075924e-05
-5.176010e-05
-6.275455e-05
-7.408632e-05
-8.607706e-05
-9.656538e-05
-1.028456e-04
-1.061732e-04
-1.079530e-04
-1.092074e-04
-1.100869e-04
-1.105362e-04
-1.106611e-04
0.000000e+00
-1.376500e-05
-2.418837e-05
-3.708163e-05
-5.130147e-05
-6.503701e-05
-7.946549e-05
-9.314897e-05
-1.086013e-04
-1.236905e-04
-1.349365e-04
-1.421811e-04
-1.462069e-04
-1.479157e-04
-1.483796e-04
-1.483201e-04
-1.482431e-04
0.000000e+00
1.162846e-05
2.002654e-05
3.199036e-05
4.684675e-05
6.411893e-05
8.539413e-05
1.100232e-04
1.384946e-04
1.693449e-04
2.026794e-04
2.393389e-04
2.780561e-04
3.192089e-04
3.678312e-04
4.243463e-04
4.806275e-04
0.000000e+00
6.740027e-06
1.546514e-05
2.599610e-05
4.066328e-05
5.794600e-05
7.912078e-05
1.036293e-04
1.317467e-04
1.637288e-04
1.984907e-04
2.361289e-04
2.762061e-04
3.183497e-04
3.640843e-04
4.172974e-04
4.717572e-04
0.000000e+00
3.175290e-06
1.104434e-05
2.095359e-05
3.506035e-05
5.280196e-05
7.386630e-05
9.863857e-05
1.274099e-04
1.603126e-04
1.960401e-04
2.343925e-04
2.754193e-04
3.178524e-04
3.595544e-04
4.085275e-04
4.612146e-04
0.000000e+00
2.005406e-06
8.619926e-06
1.859084e-05
3.256761e-05
5.049068e-05
7.181916e-05
9.699799e-05
1.263551e-04
1.594153e-04
1.953068e-04
2.337724e-04
2.750887e-04
3.172769e-04
3.567878e-04
4.005143e-04
4.492574e-04
0.000000e+00
1.628771e-06
8.008139e-06
1.782058e-05
3.188717e-05
4.972817e-05
7.122485e-05
9.665878e-05
1.262253e-04
1.593018e-04
1.951671e-04
2.337022e-04
2.749504e-04
3.172162e-04
3.566026e-04
3.966126e-04
4.399863e-04
0.000000e+00
2.034297e-06
8.643001e-06
1.858243e-05
3.249740e-05
5.035667e-05
7.163620e-05
9.683261e-05
1.263239e-04
1.595440e-04
1.957390e-04
2.345231e-04
2.756503e-04
3.173620e-04
3.574047e-04
3.962573e-04
4.353294e-04
0.000000e+00
3.217052e-06
1.108411e-05
2.093286e-05
3.494558e-05
5.256622e-05
7.352358e-05
9.826617e-05
1.271656e-04
1.604839e-04
1.969673e-04
2.359695e-04
2.767475e-04
3.177544e-04
3.576026e-04
3.961791e-04
4.337295e-04
0.000000e+00
6.790894e-06
1.551242e-05
2.598871e-05
4.056609e-05
5.771980e-05
7.875633e-05
1.031815e-04
1.314004e-04
1.637823e-04
1.992084e-04
2.374825e-04
2.775697e-04
3.180168e-04
3.575808e-04
3.960318e-04
4.335837e-04
0.000000e+00
1.168241e-05
2.006535e-05
3.198538e-05
4.677488e-05
6.392032e-05
8.505518e-05
1.096071e-04
1.381867e-04
1.692766e-04
2.026694e-04
2.392938e-04
2.783571e-04
3.182173e-04
3.575992e-04
3.959610e-04
4.336512e-04


6.377984e+00
6.065978e+00
6.241892e+00
5.267421e+00
4.751541e+00
5.087575e+00
4.917140e+00
4.759065e+00
4.547058e+00
4.707720e+00
5.548538e+00
6.580434e+00
7.348749e+00
8.085681e+00
8.147604e+00
7.789635e+00
7.910585e+00
8.150066e+00
8.169789e+00
7.761168e+00
7.378702e+00
7.505559e+00
7.135980e+00
6.179401e+00
5.514500e+00
5.491670e+00
6.273607e+00
7.155500e+00
7.639770e+00
7.751346e+00
7.264397e+00
6.180064e+00
9.340084e+00
9.502678e+00
9.769128e+00
9.440032e+00
9.272970e+00
9.349083e+00
8.945302e+00
8.055199e+00
7.176890e+00
7.033041e+00
7.428386e+00
7.791290e+00
7.797266e+00
7.444555e+00
6.498825e+00
5.704811e+00
9.622199e+00
9.821207e+00
9.925309e+00
9.723960e+00
9.510988e+00
9.573837e+00
9.623806e+00
9.245244e+00
8.688752e+00
8.354820e+00
8.126756e+00
7.798147e+00
7.468449e+00
7.052261e+00
6.547392e+00
6.072236e+00
9.617813e+00
9.814610e+00
9.903392e+00
9.668721e+00
9.433067e+00
9.503000e+00
9.585947e+00
9.254107e+00
8.761268e+00
8.421577e+00
8.011957e+00
7.445787e+00
7.130721e+00
7.103243e+00
7.028232e+00
6.933173e+00
9.329464e+00
9.491347e+00
9.723206e+00
9.325082e+00
9.102757e+00
9.181390e+00
8.830838e+00
8.044148e+00
7.305809e+00
7.220129e+00
7.346295e+00
7.266556e+00
7.308202e+00
7.673539e+00
8.016950e+00
8.142971e+00
7.901265e+00
8.140944e+00
8.138363e+00
7.674698e+00
7.234556e+00
7.346918e+00
7.014563e+00
6.137468e+00
5.616614e+00
5.770651e+00
6.561451e+00
7.273616e+00
7.811168e+00
8.407291e+00
8.902704e+00
9.108221e+00
6.366572e+00
6.060860e+00
6.231404e+00
5.229792e+00
4.675615e+00
4.987723e+00
4.847100e+00
4.743847e+00
4.632018e+00
5.029673e+00
6.138847e+00
7.329070e+00
8.202364e+00
8.873944e+00
9.349202e+00
9.544930e+00


-9.541805e-01
-1.192204e-01
-3.109293e-01
-2.942120e-01
-1.500135e-01
-2.211786e-01
-6.979137e-04
-1.833668e-01
-4.001917e-01
-2.370021e-01
-2.334382e-01
-3.139511e-01
-2.821188e-01
-1.950345e-01
4.219830e-01
-7.428922e-01
5.771155e-01
4.860339e-01
3.198619e-01
1.858733e-01
2.395447e-01
1.430033e-01
1.919816e-01
1.721678e-01
1.216874e-01
2.547735e-01
2.738438e-01
3.082544e-01
4.812867e-01
7.218898e-01
7.322737e-01
-9.701328e-01
7.237833e-01
4.902838e-01
9.907488e-02
3.473628e-02
4.080996e-02
-3.701898e-02
1.272720e-01
2.401031e-01
3.385963e-01
3.888467e-01
3.801258e-01
4.109602e-01
4.585744e-01
3.308616e-01
5.259137e-02
-4.160740e-01
7.329431e-01
5.679008e-01
2.289057e-01
1.482798e-01
1.026321e-01
6.448594e-02
1.552627e-01
2.150584e-01
2.775844e-01
2.639781e-01
2.269096e-01
1.864253e-01
7.056065e-02
-1.718506e-01
-2.406524e-01
-8.840808e-02
7.344978e-01
5.704591e-01
2.345834e-01
1.529114e-01
1.011389e-01
4.551828e-02
1.103727e-01
1.395518e-01
1.683141e-01
1.079313e-01
2.217478e-02
-4.758270e-02
-1.418579e-01
-1.725624e-01
4.587700e-02
4.477958e-01
7.269078e-01
4.941528e-01
1.062293e-01
4.021728e-02
3.426919e-02
-7.144512e-02
4.852934e-02
1.029811e-01
1.207622e-01
5.807054e-02
-8.794727e-02
-1.455891e-01
-9.881534e-02
5.553021e-02
3.938706e-01
7.830919e-01
5.791365e-01
4.869881e-01
3.210801e-01
1.863932e-01
2.382833e-01
1.349808e-01
1.685926e-01
1.214986e-01
4.865873e-03
4.975103e-02
-1.953228e-02
-8.584571e-03
1.680255e-01
4.312350e-01
7.357466e-01
9.535751e-01
-9.565324e-01
-1.211964e-01
-3.122950e-01
-2.965445e-01
-1.520112e-01
-2.176520e-01
6.709749e-03
-1.509893e-01
-3.313674e-01
-1.478317e-01
-3.388579e-02
1.646020e-01
5.050643e-01
7.949786e-01
9.548869e-01
9.988928e-01
1 2 19 18
2 3 20 19
3 4 21 20
4 5 22 21
5 6 23 22
6 7 24 23
7 8 25 24
8 9 26 25
9 10 27 26
10 11 28 27
11 12 29 28
12 13 30 29
13 14 31 30
14 15 32 31
15 16 33 32
16 17 34 33
18 19 36 35
19 20 37 36
20 21 38 37
21 22 39 38
22 23 40 39
23 24 41 40
24 25 42 41
25 26 43 42
26 27 44 43
27 28 45 44
28 29 46 45
29 30 47 46
30 31 48 47
31 32 49 48
32 33 50 49
33 34 51 50
35 36 53 52
36 37 54 53
37 38 55 54
38 39 56 55
39 40 57 56
40 41 58 57
41 42 59 58
42 43 60 59
43 44 61 60
44 45 62 61
45 46 63 62
46 47 64 63
47 48 65 64
48 49 66 65
49 50 67 66
50 51 68 67
52 53 70 69
53 54 71 70
54 55 72 71
55 56 73 72
56 57 74 73
57 58 75 74
58 59 76 75
59 60 77 76
60 61 78 77
61 62 79 78
62 63 80 79
63 64 81 80
64 65 82 81
65 66 83 82
66 67 84 83
67 68 85 84
69 70 87 86
70 71 88 87
71 72 89 88
72 73 90 89
73 74 91 90
74 75 92 91
75 76 93 92
76 77 94 93
77 78 95 94
78 79 96 95
79 80 97 96
80 81 98 97
81 82 99 98
82 83 100 99
83 84 101 100
84 85 102 101
86 87 104 103
87 88 105 104
88 89 106 105
89 90 107 106
90 91 108 107
91 92 109 108
92 93 110 109
93 94 111 110
94 95 112 111
95 96 113 112
96 97 114 113
97 98 115 114
98 99 116 115
99 100 117 116
100 101 118 117
101 102 119 118
103 104 121 120
104 105 122 121
105 106 123 122
106 107 124 123
107 108 125 124
108 109 126 125
109 110 127 126
110 111 128 127
111 112 129 128
112 113 130 129
113 114 131 130
114 115 132 131
115 116 133 132
116 117 134 133
117 118 135 134
118 119 136 135
120 121 138 137
121 122 139 138
122 123 140 139
123 124 141 140
124 125 142 141
125 126 143 142
126 127 144 143
127 128 145 144
128 129 146 145
129 130 147 146
130 131 148 147
131 132 149 148
132 133 150 149
133 134 151 150
134 135 152 151
135 136 153 152
