TITLE = "Solution"
VARIABLES = x, y, u, v, psiu, psiv, t, stress
ZONE T="structure" N=153 E=128 F=FEBLOCK ET=QUADRILATERAL VARLOCATION=([7,8]=cellcentered)
0.000000e+00
1.250000e+01
2.500000e+01
3.750000e+01
5.000000e+01
6.250000e+01
7.500000e+01
8.750000e+01
1.000000e+02
1.125000e+02
1.250000e+02
1.375000e+02
1.500000e+02
1.625000e+02
1.750000e+02
1.875000e+02
2.000000e+02
0.000000e+00
1.250000e+01
2.500000e+01
3.750000e+01
5.000000e+01
6.250000e+01
7.500000e+01
8.750000e+01
1.000000e+02
1.125000e+02
1.250000e+02
1.375000e+02
1.500000e+02
1.625000e+02
1.750000e+02
1.875000e+02
2.000000e+02
0.000000e+00
1.250000e+01
2.500000e+01
3.750000e+01
5.000000e+01
6.250000e+01
7.500000e+01
8.750000e+01
1.000000e+02
1.125000e+02
1.250000e+02
1.375000e+02
1.500000e+02
1.625000e+02
1.750000e+02
1.875000e+02
2.000000e+02
0.000000e+00
1.250000e+01
2.500000e+01
3.750000e+01
5.000000e+01
6.250000e+01
7.500000e+01
8.750000e+01
1.000000e+02
1.125000e+02
1.250000e+02
1.375000e+02
1.500000e+02
1.625000e+02
1.750000e+02
1.875000e+02
2.000000e+02
0.000000e+00
1.250000e+01
2.500000e+01
3.750000e+01
5.000000e+01
6.250000e+01
7.500000e+01
8.750000e+01
1.000000e+02
1.125000e+02
1.250000e+02
1.375000e+02
1.500000e+02
1.625000e+02
1.750000e+02
1.875000e+02
2.000000e+02
0.000000e+00
1.250000e+01
2.500000e+01
3.750000e+01
5.000000e+01
6.250000e+01
7.500000e+01
8.750000e+01
1.000000e+02
1.125000e+02
1.250000e+02
1.375000e+02
1.500000e+02
1.625000e+02
1.750000e+02
1.875000e+02
2.000000e+02
0.000000e+00
1.250000e+01
2.500000e+01
3.750000e+01
5.000000e+01
6.250000e+01
7.500000e+01
8.750000e+01
1.000000e+02
1.125000e+02
1.250000e+02
1.375000e+02
1.500000e+02
1.625000e+02
1.750000e+02
1.875000e+02
2.000000e+02
0.000000e+00
1.250000e+01
2.500000e+01
3.750000e+01
5.000000e+01
6.250000e+01
7.500000e+01
8.750000e+01
1.000000e+02
1.125000e+02
1.250000e+02
1.375000e+02
1.500000e+02
1.625000e+02
1.750000e+02
1.875000e+02
2.000000e+02
0.000000e+00
1.250000e+01
2.500000e+01
3.750000e+01
5.000000e+01
6.250000e+01
7.500000e+01
8.750000e+01
1.000000e+02
1.125000e+02
1.250000e+02
1.375000e+02
1.500000e+02
1.625000e+02
1.750000e+02
1.875000e+02
2.000000e+02
0.000000e+00
0.000000e+00
0.000000e+00
0.000000e+00
0.000000e+00
0.000000e+00
0.000000e+00
0.000000e+00
0.000000e+00
0.000000e+00
0.000000e+00
0.000000e+00
0.000000e+00
0.000000e+00
0.000000e+00
0.000000e+00
0.000000e+00
1.250000e+01
1.250000e+01
1.250000e+01
1.250000e+01
1.250000e+01
1.250000e+01
1.250000e+01
1.250000e+01
1.250000e+01
1.250000e+01
1.250000e+01
1.250000e+01
1.250000e+01
1.250000e+01
1.250000e+01
1.250000e+01
1.250000e+01
2.500000e+01
2.500000e+01
2.500000e+01
2.500000e+01
2.500000e+01
2.500000e+01
2.500000e+01
2.500000e+01
2.500000e+01
2.500000e+01
2.500000e+01
2.500000e+01
2.500000e+01
2.500000e+01
2.500000e+01
2.500000e+01
2.500000e+01
3.750000e+01
3.750000e+01
3.750000e+01
3.750000e+01
3.750000e+01
3.750000e+01
3.750000e+01
3.750000e+01
3.750000e+01
3.750000e+01
3.750000e+01
3.750000e+01
3.750000e+01
3.750000e+01
3.750000e+01
3.750000e+01
3.750000e+01
5.000000e+01
5.000000e+01
5.000000e+01
5.000000e+01
5.000000e+01
5.000000e+01
5.000000e+01
5.000000e+01
5.000000e+01
5.000000e+01
5.000000e+01
5.000000e+01
5.000000e+01
5.000000e+01
5.000000e+01
5.000000e+01
5.000000e+01
6.250000e+01
6.250000e+01
6.250000e+01
6.250000e+01
6.250000e+01
6.250000e+01
6.250000e+01
6.250000e+01
6.250000e+01
6.250000e+01
6.250000e+01
6.250000e+01
6.250000e+01
6.250000e+01
6.250000e+01
6.250000e+01
6.250000e+01
7.500000e+01
7.500000e+01
7.500000e+01
7.500000e+01
7.500000e+01
7.500000e+01
7.500000e+01
7.500000e+01
7.500000e+01
7.500000e+01
7.500000e+01
7.500000e+01
7.500000e+01
7.500000e+01
7.500000e+01
7.500000e+01
7.500000e+01
8.750000e+01
8.750000e+01
8.750000e+01
8.750000e+01
8.750000e+01
8.750000e+01
8.750000e+01
8.750000e+01
8.750000e+01
8.750000e+01
8.750000e+01
8.750000e+01
8.750000e+01
8.750000e+01
8.750000e+01
8.750000e+01
8.750000e+01
1.000000e+02
1.000000e+02
1.000000e+02
1.000000e+02
1.000000e+02
1.000000e+02
1.000000e+02
1.000000e+02
1.000000e+02
1.000000e+02
1.000000e+02
1.000000e+02
1.000000e+02
1.000000e+02
1.000000e+02
1.000000e+02
1.000000e+02
0.000000e+00
-1.025730e+00
-1.685720e+00
-2.411884e+00
-3.111295e+00
-3.754320e+00
-4.403937e+00
-4.997798e+00
-5.666155e+00
-6.381082e+00
-7.059787e+00
-7.745331e+00
-8.478607e+00
-9.241582e+00
-9.960397e+00
-1.063542e+01
-1.108492e+01
0.000000e+00
-4.683195e-01
-9.217090e-01
-1.417699e+00
-1.949021e+00
-2.444381e+00
-2.945763e+00
-3.429081e+00
-3.940443e+00
-4.478798e+00
-4.975031e+00
-5.468116e+00
-5.980770e+00
-6.463957e+00
-6.779781e+00
-6.849985e+00
-7.011082e+00
0.000000e+00
-1.568275e-01
-3.656687e-01
-6.597953e-01
-1.017031e+00
-1.357791e+00
-1.726314e+00
-2.094025e+00
-2.447297e+00
-2.789155e+00
-3.102111e+00
-3.406135e+00
-3.682084e+00
-3.875564e+00
-3.922866e+00
-3.900149e+00
-4.062023e+00
0.000000e+00
-7.964229e-02
-1.658209e-01
-3.221900e-01
-4.730460e-01
-6.504652e-01
-8.316504e-01
-9.917947e-01
-1.146717e+00
-1.286303e+00
-1.426897e+00
-1.546449e+00
-1.612664e+00
-1.604693e+00
-1.547839e+00
-1.552666e+00
-1.685506e+00
0.000000e+00
-2.195344e-03
-4.639783e-03
-6.876853e-03
-8.221392e-03
-7.238709e-03
-2.024635e-03
9.542780e-03
3.023697e-02
6.160058e-02
1.073175e-01
1.745575e-01
2.699452e-01
3.884583e-01
4.878102e-01
4.966550e-01
3.956610e-01
0.000000e+00
7.602002e-02
1.590918e-01
3.119421e-01
4.605086e-01
6.389436e-01
8.262180e-01
1.003665e+00
1.190051e+00
1.382811e+00
1.607033e+00
1.844923e+00
2.067264e+00
2.255744e+00
2.383441e+00
2.412586e+00
2.353791e+00
0.000000e+00
1.553918e-01
3.632333e-01
6.559216e-01
1.011485e+00
1.350264e+00
1.718572e+00
2.089860e+00
2.453835e+00
2.819672e+00
3.178170e+00
3.543317e+00
3.873555e+00
4.130007e+00
4.293187e+00
4.350971e+00
4.335539e+00
0.000000e+00
4.685165e-01
9.220062e-01
1.416930e+00
1.947482e+00
2.441114e+00
2.939319e+00
3.420114e+00
3.923901e+00
4.447927e+00
4.932274e+00
5.397010e+00
5.815230e+00
6.133360e+00
6.332343e+00
6.420080e+00
6.436082e+00
0.000000e+00
1.027391e+00
1.688606e+00
2.415505e+00
3.116114e+00
3.761587e+00
4.410085e+00
5.004110e+00
5.660964e+00
6.343924e+00
6.973895e+00
7.561131e+00
8.066263e+00
8.420656e+00
8.605374e+00
8.655117e+00
8.654958e+00
0.000000e+00
-6.288390e-01
-1.362162e+00
-2.350452e+00
-3.514106e+00
-4.832776e+00
-6.311545e+00
-7.925735e+00
-9.703021e+00
-1.164537e+01
-1.375229e+01
-1.605351e+01
-1.855502e+01
-2.124559e+01
-2.416718e+01
-2.755167e+01
-3.250639e+01
0.000000e+00
-4.256529e-01
-1.200329e+00
-2.163808e+00
-3.339386e+00
-4.660290e+00
-6.144917e+00
-7.761357e+00
-9.521345e+00
-1.146676e+01
-1.358002e+01
-1.587724e+01
-1.837438e+01
-2.108982e+01
-2.405447e+01
-2.744443e+01
-3.156852e+01
0.000000e+00
-3.958323e-01
-1.096672e+00
-2.057057e+00
-3.214203e+00
-4.529083e+00
-6.018333e+00
-7.636329e+00
-9.405885e+00
-1.135319e+01
-1.347384e+01
-1.578033e+01
-1.829308e+01
-2.104682e+01
-2.404610e+01
-2.725223e+01
-3.026903e+01
0.000000e+00
-4.474520e-01
-1.081620e+00
-2.028371e+00
-3.146408e+00
-4.448540e+00
-5.939129e+00
-7.568332e+00
-9.359073e+00
-1.130624e+01
-1.344010e+01
-1.576849e+01
-1.829746e+01
-2.104911e+01
-2.398666e+01
-2.690712e+01
-2.945974e+01
0.000000e+00
-4.518240e-01
-1.099888e+00
-2.012677e+00
-3.133583e+00
-4.429091e+00
-5.915327e+00
-7.564220e+00
-9.362393e+00
-1.131948e+01
-1.346676e+01
-1.581348e+01
-1.833939e+01
-2.103868e+01
-2.384888e+01
-2.655975e+01
-2.887574e+01
0.000000e+00
-4.471791e-01
-1.082854e+00
-2.032044e+00
-3.153365e+00
-4.461499e+00
-5.959842e+00
-7.602844e+00
-9.408924e+00
-1.137334e+01
-1.353019e+01
-1.588013e+01
-1.838986e+01
-2.102226e+01
-2.370654e+01
-2.626996e+01
-2.848126e+01
0.000000e+00
-3.959028e-01
-1.099132e+00
-2.063005e+00
-3.225861e+00
-4.550198e+00
-6.052987e+00
-7.692047e+00
-9.487674e+00
-1.146506e+01
-1.362149e+01
-1.596245e+01
-1.845114e+01
-2.102767e+01
-2.361371e+01
-2.607978e+01
-2.828320e+01
0.000000e+00
-4.259487e-01
-1.202864e+00
-2.169938e+00
-3.351739e+00
-4.682780e+00
-6.183029e+00
-7.822172e+00
-9.612841e+00
-1.159510e+01
-1.374641e+01
-1.607247e+01
-1.853744e+01
-2.107053e+01
-2.358913e+01
-2.599453e+01
-2.823243e+01
0.000000e+00
-6.295112e-01
-1.364767e+00
-2.356688e+00
-3.526662e+00
-4.855400e+00
-6.349781e+00
-7.986098e+00
-9.791563e+00
-1.176892e+01
-1.390956e+01
-1.621972e+01
-1.865460e+01
-2.114298e+01
-2.361081e+01
-2.597847e+01
-2.823260e+01


0.000000e+00
1.403293e-05
2.449318e-05
3.721609e-05
5.152138e-05
6.551785e-05
7.993261e-05
9.373480e-05
1.090645e-04
1.237483e-04
1.353652e-04
1.448975e-04
1.522438e-04
1.568581e-04
1.600288e-04
1.639195e-04
1.688369e-04
0.000000e+00
9.872728e-06
1.947738e-05
2.889164e-05
4.058008e-05
5.177931e-05
6.287501e-05
7.411161e-05
8.586302e-05
9.627418e-05
1.037304e-04
1.095344e-04
1.131474e-04
1.132936e-04
1.125424e-04
1.157242e-04
1.215369e-04
0.000000e+00
8.040583e-06
1.520189e-05
2.164153e-05
3.010616e-05
3.790213e-05
4.562632e-05
5.328946e-05
6.007627e-05
6.532750e-05
6.897597e-05
7.154514e-05
7.254069e-05
7.175400e-05
7.144505e-05
7.465881e-05
8.045757e-05
0.000000e+00
4.533546e-06
7.212618e-06
1.138517e-05
1.515170e-05
1.898035e-05
2.296321e-05
2.643948e-05
2.927525e-05
3.117011e-05
3.234121e-05
3.269159e-05
3.245306e-05
3.250034e-05
3.361292e-05
3.650256e-05
4.080153e-05
0.000000e+00
-5.392573e-08
-1.189845e-07
-1.809541e-07
-2.436215e-07
-3.042026e-07
-3.770089e-07
-4.566430e-07
-6.087260e-07
-9.528166e-07
-1.672444e-06
-2.666254e-06
-3.520472e-06
-3.628112e-06
-2.720722e-06
-1.379145e-06
5.701751e-07
0.000000e+00
-4.646989e-06
-7.425190e-06
-1.171409e-05
-1.555772e-05
-1.947509e-05
-2.352085e-05
-2.708619e-05
-2.999099e-05
-3.201111e-05
-3.370385e-05
-3.521572e-05
-3.634235e-05
-3.693960e-05
-3.744666e-05
-3.786904e-05
-3.752957e-05
0.000000e+00
-8.123516e-06
-1.534829e-05
-2.182742e-05
-3.035545e-05
-3.820422e-05
-4.597547e-05
-5.365681e-05
-6.036623e-05
-6.526133e-05
-6.811562e-05
-6.964410e-05
-7.064118e-05
-7.157328e-05
-7.255413e-05
-7.342113e-05
-7.368187e-05
0.000000e+00
-9.915709e-06
-1.953153e-05
-2.890291e-05
-4.059676e-05
-5.182030e-05
-6.290883e-05
-7.418312e-05
-8.598975e-05
-9.626719e-05
-1.026759e-04
-1.061013e-04
-1.078551e-04
-1.090506e-04
-1.098812e-04
-1.102973e-04
-1.104161e-04
0.000000e+00
-1.406009e-05
-2.447558e-05
-3.708652e-05
-5.129330e-05
-6.524179e-05
-7.952324e-05
-9.330772e-05
-1.086796e-04
-1.234450e-04
-1.346083e-04
-1.418839e-04
-1.459410e-04
-1.476830e-04
-1.481534e-04
-1.480758e-04
-1.479896e-04
0.000000e+00
1.186486e-05
2.017864e-05
3.205286e-05
4.716431e-05
6.469770e-05
8.590472e-05
1.104574e-04
1.388628e-04
1.697673e-04
2.032333e-04
2.398353e-04
2.784159e-04
3.194062e-04
3.677704e-04
4.249669e-04
4.831675e-04
0.000000e+00
6.921553e-06
1.571419e-05
2.616536e-05
4.091719e-05
5.844546e-05
7.964234e-05
1.040831e-04
1.322280e-04
1.642121e-04
1.990061e-04
2.365963e-04
2.765963e-04
3.187380e-04
3.643983e-04
4.178776e-04
4.741994e-04
0.000000e+00
3.318269e-06
1.138807e-05
2.124771e-05
3.529768e-05
5.316561e-05
7.439213e-05
9.921477e-05
1.280030e-04
1.608314e-04
1.965171e-04
2.348536e-04
2.758819e-04
3.183783e-04
3.600662e-04
4.082505e-04
4.615113e-04
0.000000e+00
2.141283e-06
8.955964e-06
1.895135e-05
3.283027e-05
5.079274e-05
7.230758e-05
9.762045e-05
1.269706e-04
1.599593e-04
1.958189e-04
2.342772e-04
2.755342e-04
3.178048e-04
3.572230e-04
4.002408e-04
4.488084e-04
0.000000e+00
1.765544e-06
8.331314e-06
1.818703e-05
3.217492e-05
5.003537e-05
7.168687e-05
9.725772e-05
1.268508e-04
1.598862e-04
1.957457e-04
2.342542e-04
2.753475e-04
3.175721e-04
3.570015e-04
3.967896e-04
4.399035e-04
0.000000e+00
2.171840e-06
8.994271e-06
1.895804e-05
3.276337e-05
5.065124e-05
7.210429e-05
9.743848e-05
1.269672e-04
1.601663e-04
1.963427e-04
2.350615e-04
2.759823e-04
3.175962e-04
3.577638e-04
3.965529e-04
4.353059e-04
0.000000e+00
3.367160e-06
1.145123e-05
2.124023e-05
3.517804e-05
5.290971e-05
7.402407e-05
9.884332e-05
1.278518e-04
1.611560e-04
1.975852e-04
2.364673e-04
2.770282e-04
3.179273e-04
3.578557e-04
3.964298e-04
4.338142e-04
0.000000e+00
6.987176e-06
1.578067e-05
2.615995e-05
4.079769e-05
5.819116e-05
7.925013e-05
1.036590e-04
1.320146e-04
1.644551e-04
1.998742e-04
2.379850e-04
2.778444e-04
3.181762e-04
3.577752e-04
3.962378e-04
4.337513e-04
0.000000e+00
1.194049e-05
2.023149e-05
3.203534e-05
4.706107e-05
6.446301e-05
8.553454e-05
1.100886e-04
1.386930e-04
1.698769e-04
2.033734e-04
2.398226e-04
2.786372e-04
3.183811e-04
3.577708e-04
3.961517e-04
4.338342e-04


6.435053e+00
5.967964e+00
6.000567e+00
5.103204e+00
4.591298e+00
4.774341e+00
4.665053e+00
4.604289e+00
4.466060e+00
4.667103e+00
5.517819e+00
6.692930e+00
7.462868e+00
6.978493e+00
5.493007e+00
4.459862e+00
7.977910e+00
8.089224e+00
8.008103e+00
7.649286e+00
7.299706e+00
7.346498e+00
6.882455e+00
5.989161e+00
5.442468e+00
5.506377e+00
6.281437e+00
7.252471e+00
7.753883e+00
6.987599e+00
5.339173e+00
4.197956e+00
9.403263e+00
9.510343e+00
9.703171e+00
9.377103e+00
9.228182e+00
9.222866e+00
8.753722e+00
7.914647e+00
7.229937e+00
7.187006e+00
7.497692e+00
7.841032e+00
7.928593e+00
7.127939e+00
5.593338e+00
4.565285e+00
9.681251e+00
9.860082e+00
9.929011e+00
9.674799e+00
9.393250e+00
9.403927e+00
9.470444e+00
9.233892e+00
8.882450e+00
8.600799e+00
8.202109e+00
7.755874e+00
7.568888e+00
7.228949e+00
6.416941e+00
5.768993e+00
9.676212e+00
9.854902e+00
9.907328e+00
9.618820e+00
9.311533e+00
9.324501e+00
9.413885e+00
9.211201e+00
8.898795e+00
8.599722e+00
8.024243e+00
7.313795e+00
7.101388e+00
7.324537e+00
7.366350e+00
7.233952e+00
9.393337e+00
9.497699e+00
9.654116e+00
9.254199e+00
9.047598e+00
9.039326e+00
8.619031e+00
7.852825e+00
7.271294e+00
7.271570e+00
7.335027e+00
7.154076e+00
7.183028e+00
7.677710e+00
8.197295e+00
8.420984e+00
7.968835e+00
8.077641e+00
7.967596e+00
7.552374e+00
7.140658e+00
7.179426e+00
6.754676e+00
5.927575e+00
5.504927e+00
5.771876e+00
6.592734e+00
7.265730e+00
7.731778e+00
8.302293e+00
8.871460e+00
9.161122e+00
6.427246e+00
5.961784e+00
5.985353e+00
5.056587e+00
4.502681e+00
4.662756e+00
4.593194e+00
4.577856e+00
4.543174e+00
5.033920e+00
6.202637e+00
7.390528e+00
8.197463e+00
8.794702e+00
9.273832e+00
9.517656e+00


-9.497208e-01
-1.073148e-01
-3.074015e-01
-3.287401e-01
-1.422251e-01
-1.660960e-01
-3.010082e-02
-2.316549e-01
-3.870312e-01
-2.228418e-01
-2.294757e-01
-3.637770e-01
-3.426565e-01
8.063696e-02
5.030445e-01
-7.186459e-01
5.760948e-01
4.880733e-01
3.198346e-01
1.632628e-01
2.419396e-01
1.694305e-01
1.915684e-01
1.645710e-01
1.410313e-01
2.620583e-01
2.835116e-01
3.101136e-01
4.853917e-01
7.864025e-01
7.249286e-01
-1.476434e+00
7.230122e-01
4.925982e-01
1.067851e-01
3.260662e-02
4.642795e-02
3.907419e-03
1.550951e-01
2.632322e-01
3.451082e-01
3.799197e-01
3.836604e-01
4.243957e-01
4.464454e-01
3.528959e-01
1.007586e-01
-4.165773e-01
7.332744e-01
5.717792e-01
2.395703e-01
1.578728e-01
1.161338e-01
9.915588e-02
1.718984e-01
2.157848e-01
2.542529e-01
2.341013e-01
2.136424e-01
1.790887e-01
2.714022e-02
-1.835030e-01
-1.202542e-01
4.824953e-02
7.349719e-01
5.744301e-01
2.455755e-01
1.633272e-01
1.152686e-01
8.436578e-02
1.315403e-01
1.472232e-01
1.503202e-01
8.122183e-02
1.224695e-02
-4.141806e-02
-1.524606e-01
-2.270791e-01
1.458378e-02
4.373718e-01
7.264604e-01
4.968727e-01
1.153784e-01
3.984667e-02
3.997304e-02
-2.726739e-02
7.684271e-02
1.298225e-01
1.320397e-01
4.366160e-02
-9.616589e-02
-1.242772e-01
-6.781241e-02
6.637058e-02
3.847807e-01
7.789309e-01
5.778800e-01
4.888819e-01
3.224027e-01
1.641461e-01
2.408287e-01
1.602170e-01
1.615979e-01
1.068773e-01
2.729896e-02
4.943563e-02
-2.937816e-02
7.760969e-04
1.960438e-01
4.553768e-01
7.453408e-01
9.560842e-01
-9.541657e-01
-1.099433e-01
-3.068572e-01
-3.299938e-01
-1.441432e-01
-1.594197e-01
-2.861461e-02
-2.002776e-01
-3.059366e-01
-1.313514e-01
-3.358339e-02
1.708065e-01
5.187737e-01
8.042800e-01
9.572071e-01
9.989913e-01
1 2 19 18
2 3 20 19
3 4 21 20
4 5 22 21
5 6 23 22
6 7 24 23
7 8 25 24
8 9 26 25
9 10 27 26
10 11 28 27
11 12 29 28
12 13 30 29
13 14 31 30
14 15 32 31
15 16 33 32
16 17 34 33
18 19 36 35
19 20 37 36
20 21 38 37
21 22 39 38
22 23 40 39
23 24 41 40
24 25 42 41
25 26 43 42
26 27 44 43
27 28 45 44
28 29 46 45
29 30 47 46
30 31 48 47
31 32 49 48
32 33 50 49
33 34 51 50
35 36 53 52
36 37 54 53
37 38 55 54
38 39 56 55
39 40 57 56
40 41 58 57
41 42 59 58
42 43 60 59
43 44 61 60
44 45 62 61
45 46 63 62
46 47 64 63
47 48 65 64
48 49 66 65
49 50 67 66
50 51 68 67
52 53 70 69
53 54 71 70
54 55 72 71
55 56 73 72
56 57 74 73
57 58 75 74
58 59 76 75
59 60 77 76
60 61 78 77
61 62 79 78
62 63 80 79
63 64 81 80
64 65 82 81
65 66 83 82
66 67 84 83
67 68 85 84
69 70 87 86
70 71 88 87
71 72 89 88
72 73 90 89
73 74 91 90
74 75 92 91
75 76 93 92
76 77 94 93
77 78 95 94
78 79 96 95
79 80 97 96
80 81 98 97
81 82 99 98
82 83 100 99
83 84 101 100
84 85 102 101
86 87 104 103
87 88 105 104
88 89 106 105
89 90 107 106
90 91 108 107
91 92 109 108
92 93 110 109
93 94 111 110
94 95 112 111
95 96 113 112
96 97 114 113
97 98 115 114
98 99 116 115
99 100 117 116
100 101 118 117
101 102 119 118
103 104 121 120
104 105 122 121
105 106 123 122
106 107 124 123
107 108 125 124
108 109 126 125
109 110 127 126
110 111 128 127
111 112 129 128
112 113 130 129
113 114 131 130
114 115 132 131
115 116 133 132
116 117 134 133
117 118 135 134
118 119 136 135
120 121 138 137
121 122 139 138
122 123 140 139
123 124 141 140
124 125 142 141
125 126 143 142
126 127 144 143
127 128 145 144
128 129 146 145
129 130 147 146
130 131 148 147
131 132 149 148
132 133 150 149
133 134 151 150
134 135 152 151
135 136 153 152
