TITLE = "Solution"
VARIABLES = x, y, u, v, psiu, psiv, t, stress
ZONE T="structure" N=153 E=128 F=FEBLOCK ET=QUADRILATERAL VARLOCATION=([7,8]=cellcentered)
0.000000e+00
1.250000e+01
2.500000e+01
3.750000e+01
5.000000e+01
6.250000e+01
7.500000e+01
8.750000e+01
1.000000e+02
1.125000e+02
1.250000e+02
1.375000e+02
1.500000e+02
1.625000e+02
1.750000e+02
1.875000e+02
2.000000e+02
0.000000e+00
1.250000e+01
2.500000e+01
3.750000e+01
5.000000e+01
6.250000e+01
7.500000e+01
8.750000e+01
1.000000e+02
1.125000e+02
1.250000e+02
1.375000e+02
1.500000e+02
1.625000e+02
1.750000e+02
1.875000e+02
2.000000e+02
0.000000e+00
1.250000e+01
2.500000e+01
3.750000e+01
5.000000e+01
6.250000e+01
7.500000e+01
8.750000e+01
1.000000e+02
1.125000e+02
1.250000e+02
1.375000e+02
1.500000e+02
1.625000e+02
1.750000e+02
1.875000e+02
2.000000e+02
0.000000e+00
1.250000e+01
2.500000e+01
3.750000e+01
5.000000e+01
6.250000e+01
7.500000e+01
8.750000e+01
1.000000e+02
1.125000e+02
1.250000e+02
1.375000e+02
1.500000e+02
1.625000e+02
1.750000e+02
1.875000e+02
2.000000e+02
0.000000e+00
1.250000e+01
2.500000e+01
3.750000e+01
5.000000e+01
6.250000e+01
7.500000e+01
8.750000e+01
1.000000e+02
1.125000e+02
1.250000e+02
1.375000e+02
1.500000e+02
1.625000e+02
1.750000e+02
1.875000e+02
2.000000e+02
0.000000e+00
1.250000e+01
2.500000e+01
3.750000e+01
5.000000e+01
6.250000e+01
7.500000e+01
8.750000e+01
1.000000e+02
1.125000e+02
1.250000e+02
1.375000e+02
1.500000e+02
1.625000e+02
1.750000e+02
1.875000e+02
2.000000e+02
0.000000e+00
1.250000e+01
2.500000e+01
3.750000e+01
5.000000e+01
6.250000e+01
7.500000e+01
8.750000e+01
1.000000e+02
1.125000e+02
1.250000e+02
1.375000e+02
1.500000e+02
1.625000e+02
1.750000e+02
1.875000e+02
2.000000e+02
0.000000e+00
1.250000e+01
2.500000e+01
3.750000e+01
5.000000e+01
6.250000e+01
7.500000e+01
8.750000e+01
1.000000e+02
1.125000e+02
1.250000e+02
1.375000e+02
1.500000e+02
1.625000e+02
1.750000e+02
1.875000e+02
2.000000e+02
0.000000e+00
1.250000e+01
2.500000e+01
3.750000e+01
5.000000e+01
6.250000e+01
7.500000e+01
8.750000e+01
1.000000e+02
1.125000e+02
1.250000e+02
1.375000e+02
1.500000e+02
1.625000e+02
1.750000e+02
1.875000e+02
2.000000e+02
0.000000e+00
0.000000e+00
0.000000e+00
0.000000e+00
0.000000e+00
0.000000e+00
0.000000e+00
0.000000e+00
0.000000e+00
0.000000e+00
0.000000e+00
0.000000e+00
0.000000e+00
0.000000e+00
0.000000e+00
0.000000e+00
0.000000e+00
1.250000e+01
1.250000e+01
1.250000e+01
1.250000e+01
1.250000e+01
1.250000e+01
1.250000e+01
1.250000e+01
1.250000e+01
1.250000e+01
1.250000e+01
1.250000e+01
1.250000e+01
1.250000e+01
1.250000e+01
1.250000e+01
1.250000e+01
2.500000e+01
2.500000e+01
2.500000e+01
2.500000e+01
2.500000e+01
2.500000e+01
2.500000e+01
2.500000e+01
2.500000e+01
2.500000e+01
2.500000e+01
2.500000e+01
2.500000e+01
2.500000e+01
2.500000e+01
2.500000e+01
2.500000e+01
3.750000e+01
3.750000e+01
3.750000e+01
3.750000e+01
3.750000e+01
3.750000e+01
3.750000e+01
3.750000e+01
3.750000e+01
3.750000e+01
3.750000e+01
3.750000e+01
3.750000e+01
3.750000e+01
3.750000e+01
3.750000e+01
3.750000e+01
5.000000e+01
5.000000e+01
5.000000e+01
5.000000e+01
5.000000e+01
5.000000e+01
5.000000e+01
5.000000e+01
5.000000e+01
5.000000e+01
5.000000e+01
5.000000e+01
5.000000e+01
5.000000e+01
5.000000e+01
5.000000e+01
5.000000e+01
6.250000e+01
6.250000e+01
6.250000e+01
6.250000e+01
6.250000e+01
6.250000e+01
6.250000e+01
6.250000e+01
6.250000e+01
6.250000e+01
6.250000e+01
6.250000e+01
6.250000e+01
6.250000e+01
6.250000e+01
6.250000e+01
6.250000e+01
7.500000e+01
7.500000e+01
7.500000e+01
7.500000e+01
7.500000e+01
7.500000e+01
7.500000e+01
7.500000e+01
7.500000e+01
7.500000e+01
7.500000e+01
7.500000e+01
7.500000e+01
7.500000e+01
7.500000e+01
7.500000e+01
7.500000e+01
8.750000e+01
8.750000e+01
8.750000e+01
8.750000e+01
8.750000e+01
8.750000e+01
8.750000e+01
8.750000e+01
8.750000e+01
8.750000e+01
8.750000e+01
8.750000e+01
8.750000e+01
8.750000e+01
8.750000e+01
8.750000e+01
8.750000e+01
1.000000e+02
1.000000e+02
1.000000e+02
1.000000e+02
1.000000e+02
1.000000e+02
1.000000e+02
1.000000e+02
1.000000e+02
1.000000e+02
1.000000e+02
1.000000e+02
1.000000e+02
1.000000e+02
1.000000e+02
1.000000e+02
1.000000e+02
0.000000e+00
-1.024137e+00
-1.684770e+00
-2.414551e+00
-3.114777e+00
-3.753901e+00
-4.404764e+00
-4.997586e+00
-5.665494e+00
-6.381374e+00
-7.060267e+00
-7.747499e+00
-8.482253e+00
-9.241883e+00
-9.959224e+00
-1.063418e+01
-1.108414e+01
0.000000e+00
-4.673127e-01
-9.209240e-01
-1.419673e+00
-1.950702e+00
-2.442885e+00
-2.943505e+00
-3.427504e+00
-3.939376e+00
-4.479017e+00
-4.975225e+00
-5.469340e+00
-5.982891e+00
-6.464290e+00
-6.779922e+00
-6.850742e+00
-7.012058e+00
0.000000e+00
-1.566703e-01
-3.656211e-01
-6.605830e-01
-1.016236e+00
-1.354350e+00
-1.722175e+00
-2.092324e+00
-2.446885e+00
-2.789319e+00
-3.102010e+00
-3.406513e+00
-3.682511e+00
-3.875486e+00
-3.923134e+00
-3.900336e+00
-4.061547e+00
0.000000e+00
-8.030152e-02
-1.665903e-01
-3.217878e-01
-4.705537e-01
-6.464869e-01
-8.298784e-01
-9.915015e-01
-1.147343e+00
-1.286160e+00
-1.426548e+00
-1.546530e+00
-1.612787e+00
-1.604872e+00
-1.547592e+00
-1.551889e+00
-1.684523e+00
0.000000e+00
-2.067493e-03
-4.192929e-03
-6.104870e-03
-7.329062e-03
-6.594869e-03
-1.794404e-03
9.785794e-03
3.071802e-02
6.234176e-02
1.081765e-01
1.753531e-01
2.702285e-01
3.882389e-01
4.880898e-01
4.976534e-01
3.969488e-01
0.000000e+00
7.693499e-02
1.602375e-01
3.122184e-01
4.591692e-01
6.364350e-01
8.257867e-01
1.004072e+00
1.191279e+00
1.383584e+00
1.608430e+00
1.847438e+00
2.069463e+00
2.257335e+00
2.385504e+00
2.415116e+00
2.356323e+00
0.000000e+00
1.552882e-01
3.630512e-01
6.565633e-01
1.011218e+00
1.348239e+00
1.716085e+00
2.088992e+00
2.453297e+00
2.819915e+00
3.178846e+00
3.545418e+00
3.876514e+00
4.133151e+00
4.296833e+00
4.354779e+00
4.339152e+00
0.000000e+00
4.675500e-01
9.211439e-01
1.419072e+00
1.949937e+00
2.440970e+00
2.938724e+00
3.419607e+00
3.922695e+00
4.447428e+00
4.931214e+00
5.396117e+00
5.815979e+00
6.135890e+00
6.336267e+00
6.424526e+00
6.440526e+00
0.000000e+00
1.025793e+00
1.687706e+00
2.418653e+00
3.120812e+00
3.762450e+00
4.412614e+00
5.004977e+00
5.660346e+00
6.343283e+00
6.971647e+00
7.558237e+00
8.065407e+00
8.422934e+00
8.610064e+00
8.660643e+00
8.660585e+00
0.000000e+00
-6.277407e-01
-1.361065e+00
-2.350178e+00
-3.513972e+00
-4.833472e+00
-6.315347e+00
-7.932101e+00
-9.710411e+00
-1.165274e+01
-1.375943e+01
-1.606160e+01
-1.856384e+01
-2.125463e+01
-2.417706e+01
-2.756050e+01
-3.251519e+01
0.000000e+00
-4.246719e-01
-1.198623e+00
-2.162991e+00
-3.339802e+00
-4.661522e+00
-6.148528e+00
-7.768051e+00
-9.528569e+00
-1.147393e+01
-1.358688e+01
-1.588493e+01
-1.838337e+01
-2.109910e+01
-2.406418e+01
-2.745381e+01
-3.157473e+01
0.000000e+00
-3.948653e-01
-1.094591e+00
-2.056315e+00
-3.215011e+00
-4.530111e+00
-6.022183e+00
-7.643046e+00
-9.413293e+00
-1.136002e+01
-1.348036e+01
-1.578816e+01
-1.830206e+01
-2.105527e+01
-2.405557e+01
-2.726305e+01
-3.028011e+01
0.000000e+00
-4.461653e-01
-1.079942e+00
-2.027807e+00
-3.146884e+00
-4.448431e+00
-5.943551e+00
-7.575483e+00
-9.367060e+00
-1.131252e+01
-1.344635e+01
-1.577691e+01
-1.830620e+01
-2.105640e+01
-2.399593e+01
-2.691916e+01
-2.947240e+01
0.000000e+00
-4.502467e-01
-1.098377e+00
-2.012161e+00
-3.133262e+00
-4.429332e+00
-5.919733e+00
-7.572228e+00
-9.370359e+00
-1.132547e+01
-1.347305e+01
-1.582222e+01
-1.834758e+01
-2.104504e+01
-2.385753e+01
-2.657190e+01
-2.888883e+01
0.000000e+00
-4.459544e-01
-1.081031e+00
-2.031188e+00
-3.153973e+00
-4.462034e+00
-5.965148e+00
-7.610290e+00
-9.416888e+00
-1.137982e+01
-1.353690e+01
-1.588845e+01
-1.839731e+01
-2.102821e+01
-2.371505e+01
-2.628212e+01
-2.849478e+01
0.000000e+00
-3.949461e-01
-1.096830e+00
-2.062041e+00
-3.227031e+00
-4.552063e+00
-6.057849e+00
-7.699375e+00
-9.495376e+00
-1.147255e+01
-1.362874e+01
-1.596998e+01
-1.845787e+01
-2.103376e+01
-2.362228e+01
-2.609151e+01
-2.829627e+01
0.000000e+00
-4.248931e-01
-1.200964e+00
-2.169119e+00
-3.352718e+00
-4.684918e+00
-6.187482e+00
-7.829471e+00
-9.620451e+00
-1.160315e+01
-1.375397e+01
-1.607943e+01
-1.854383e+01
-2.107709e+01
-2.359788e+01
-2.600577e+01
-2.824507e+01
0.000000e+00
-6.283059e-01
-1.363533e+00
-2.356598e+00
-3.527249e+00
-4.857058e+00
-6.354399e+00
-7.992826e+00
-9.799169e+00
-1.177694e+01
-1.391693e+01
-1.622664e+01
-1.866145e+01
-2.115032e+01
-2.361994e+01
-2.598961e+01
-2.824516e+01


0.000000e+00
1.386512e-05
2.438168e-05
3.722426e-05
5.146148e-05
6.529457e-05
7.982048e-05
9.374961e-05
1.089218e-04
1.229673e-04
1.338588e-04
1.429014e-04
1.499812e-04
1.544077e-04
1.574196e-04
1.611433e-04
1.659091e-04
0.000000e+00
9.710084e-06
1.937980e-05
2.897879e-05
4.059395e-05
5.161208e-05
6.277313e-05
7.419388e-05
8.579890e-05
9.559805e-05
1.024346e-04
1.079314e-04
1.115020e-04
1.117405e-04
1.110544e-04
1.141126e-04
1.196771e-04
0.000000e+00
7.913232e-06
1.514633e-05
2.175472e-05
3.015469e-05
3.780333e-05
4.553494e-05
5.331046e-05
5.995599e-05
6.481919e-05
6.812270e-05
7.054081e-05
7.154954e-05
7.087626e-05
7.062382e-05
7.368129e-05
7.915278e-05
0.000000e+00
4.473468e-06
7.209145e-06
1.143003e-05
1.519396e-05
1.894679e-05
2.290080e-05
2.636947e-05
2.914680e-05
3.090976e-05
3.196924e-05
3.228698e-05
3.210060e-05
3.219213e-05
3.326499e-05
3.598744e-05
4.003754e-05
0.000000e+00
-3.645657e-08
-9.333267e-08
-1.587116e-07
-2.295661e-07
-2.930675e-07
-3.512406e-07
-4.141923e-07
-5.655449e-07
-9.266280e-07
-1.664131e-06
-2.617532e-06
-3.366106e-06
-3.410571e-06
-2.545445e-06
-1.278850e-06
5.723167e-07
0.000000e+00
-4.548658e-06
-7.355557e-06
-1.168305e-05
-1.555034e-05
-1.941935e-05
-2.342857e-05
-2.693496e-05
-2.972218e-05
-3.160587e-05
-3.326439e-05
-3.478570e-05
-3.584465e-05
-3.635770e-05
-3.679775e-05
-3.717265e-05
-3.682388e-05
0.000000e+00
-7.967581e-06
-1.522154e-05
-2.184661e-05
-3.033925e-05
-3.809365e-05
-4.588925e-05
-5.362675e-05
-6.007632e-05
-6.449289e-05
-6.708085e-05
-6.865732e-05
-6.970604e-05
-7.057383e-05
-7.145797e-05
-7.223548e-05
-7.245615e-05
0.000000e+00
-9.729691e-06
-1.937705e-05
-2.891888e-05
-4.056695e-05
-5.165873e-05
-6.284598e-05
-7.427636e-05
-8.582842e-05
-9.536312e-05
-1.011653e-04
-1.044754e-04
-1.063003e-04
-1.074593e-04
-1.082274e-04
-1.086059e-04
-1.087083e-04
0.000000e+00
-1.385968e-05
-2.431550e-05
-3.705078e-05
-5.122287e-05
-6.503838e-05
-7.946265e-05
-9.336559e-05
-1.085307e-04
-1.225844e-04
-1.329718e-04
-1.398440e-04
-1.437506e-04
-1.454459e-04
-1.459236e-04
-1.458676e-04
-1.457894e-04
0.000000e+00
1.173509e-05
2.011496e-05
3.199804e-05
4.693898e-05
6.435282e-05
8.562566e-05
1.101623e-04
1.382772e-04
1.687072e-04
2.018049e-04
2.380874e-04
2.762025e-04
3.164671e-04
3.637020e-04
4.193691e-04
4.760400e-04
0.000000e+00
6.803229e-06
1.558549e-05
2.608621e-05
4.076540e-05
5.813108e-05
7.928125e-05
1.037718e-04
1.318344e-04
1.635018e-04
1.978604e-04
2.349857e-04
2.744168e-04
3.157949e-04
3.604644e-04
4.125589e-04
4.673947e-04
0.000000e+00
3.191791e-06
1.118469e-05
2.114137e-05
3.522408e-05
5.291135e-05
7.397096e-05
9.887054e-05
1.277247e-04
1.603352e-04
1.955673e-04
2.333593e-04
2.737140e-04
3.154170e-04
3.563657e-04
4.034805e-04
4.553973e-04
0.000000e+00
1.996623e-06
8.707652e-06
1.880878e-05
3.279969e-05
5.062983e-05
7.193367e-05
9.726362e-05
1.266717e-04
1.594581e-04
1.949340e-04
2.329134e-04
2.734195e-04
3.148334e-04
3.536871e-04
3.959762e-04
4.434252e-04
0.000000e+00
1.618289e-06
8.064087e-06
1.801455e-05
3.213598e-05
4.991017e-05
7.136898e-05
9.692663e-05
1.265177e-04
1.593299e-04
1.948845e-04
2.329889e-04
2.732883e-04
3.145696e-04
3.534304e-04
3.926934e-04
4.349756e-04
0.000000e+00
2.022254e-06
8.724661e-06
1.877775e-05
3.270312e-05
5.048810e-05
7.176022e-05
9.712917e-05
1.266853e-04
1.596436e-04
1.954826e-04
2.337831e-04
2.739062e-04
3.145847e-04
3.540833e-04
3.923723e-04
4.305523e-04
0.000000e+00
3.225623e-06
1.120673e-05
2.108122e-05
3.507215e-05
5.266358e-05
7.364324e-05
9.855832e-05
1.276030e-04
1.606406e-04
1.966667e-04
2.350881e-04
2.749109e-04
3.149274e-04
3.541434e-04
3.921704e-04
4.290689e-04
0.000000e+00
6.839902e-06
1.559899e-05
2.603147e-05
4.063339e-05
5.789970e-05
7.892806e-05
1.033828e-04
1.316188e-04
1.637124e-04
1.987653e-04
2.365071e-04
2.757237e-04
3.152014e-04
3.540636e-04
3.919468e-04
4.289714e-04
0.000000e+00
1.176934e-05
2.010856e-05
3.193783e-05
4.683958e-05
6.415541e-05
8.529676e-05
1.098019e-04
1.380549e-04
1.687407e-04
2.019832e-04
2.382595e-04
2.765092e-04
3.154181e-04
3.540581e-04
3.918590e-04
4.290407e-04


6.426277e+00
6.037326e+00
6.139382e+00
5.161514e+00
4.565510e+00
4.784763e+00
4.726737e+00
4.673601e+00
4.489180e+00
4.669376e+00
5.533516e+00
6.690731e+00
7.409502e+00
6.930778e+00
5.496007e+00
4.492479e+00
7.974642e+00
8.149952e+00
8.095239e+00
7.665525e+00
7.246316e+00
7.342208e+00
6.960754e+00
6.055110e+00
5.454396e+00
5.507030e+00
6.302635e+00
7.257989e+00
7.720692e+00
6.962291e+00
5.345827e+00
4.205264e+00
9.380728e+00
9.513408e+00
9.719537e+00
9.352839e+00
9.211067e+00
9.280731e+00
8.847507e+00
7.955904e+00
7.206078e+00
7.182934e+00
7.529077e+00
7.853050e+00
7.917757e+00
7.135685e+00
5.611431e+00
4.569275e+00
9.598219e+00
9.805374e+00
9.884771e+00
9.649767e+00
9.441300e+00
9.526476e+00
9.562305e+00
9.227618e+00
8.830181e+00
8.600646e+00
8.239109e+00
7.756689e+00
7.553918e+00
7.246783e+00
6.444618e+00
5.772747e+00
9.585162e+00
9.796925e+00
9.874239e+00
9.613788e+00
9.383722e+00
9.435647e+00
9.482030e+00
9.191441e+00
8.857290e+00
8.612305e+00
8.057683e+00
7.296624e+00
7.067203e+00
7.336511e+00
7.397397e+00
7.243303e+00
9.368817e+00
9.499992e+00
9.683322e+00
9.272471e+00
9.063897e+00
9.093417e+00
8.672696e+00
7.874471e+00
7.260301e+00
7.285177e+00
7.363464e+00
7.146545e+00
7.166107e+00
7.705267e+00
8.246915e+00
8.452731e+00
7.975418e+00
8.133774e+00
8.059576e+00
7.587372e+00
7.111470e+00
7.178481e+00
6.821117e+00
5.979758e+00
5.519664e+00
5.778627e+00
6.616943e+00
7.300160e+00
7.777140e+00
8.374650e+00
8.945141e+00
9.210925e+00
6.425219e+00
6.028879e+00
6.114236e+00
5.109949e+00
4.473639e+00
4.684509e+00
4.663292e+00
4.647033e+00
4.559673e+00
5.029267e+00
6.225722e+00
7.456633e+00
8.295417e+00
8.902476e+00
9.360073e+00
9.570855e+00


-9.427390e-01
-1.091195e-01
-3.208129e-01
-3.296233e-01
-1.285188e-01
-1.670529e-01
-2.960438e-02
-2.316626e-01
-3.916548e-01
-2.232140e-01
-2.350965e-01
-3.686304e-01
-3.319749e-01
8.361471e-02
5.027760e-01
-7.231564e-01
5.777312e-01
4.877802e-01
3.142724e-01
1.665505e-01
2.515023e-01
1.707967e-01
1.852435e-01
1.611423e-01
1.383294e-01
2.627565e-01
2.809738e-01
3.089664e-01
4.888754e-01
7.857964e-01
7.249334e-01
-1.456182e+00
7.236983e-01
4.923768e-01
1.048416e-01
3.596135e-02
5.236759e-02
-7.372060e-03
1.428024e-01
2.579638e-01
3.465807e-01
3.809468e-01
3.805223e-01
4.235900e-01
4.484549e-01
3.500244e-01
9.852455e-02
-4.106336e-01
7.355213e-01
5.736921e-01
2.394001e-01
1.556152e-01
1.108087e-01
8.256275e-02
1.626725e-01
2.159065e-01
2.601915e-01
2.350832e-01
2.099868e-01
1.808359e-01
3.175426e-02
-1.898613e-01
-1.279523e-01
4.861935e-02
7.371209e-01
5.759798e-01
2.438270e-01
1.587151e-01
1.088235e-01
6.876965e-02
1.241368e-01
1.474198e-01
1.550367e-01
8.080670e-02
9.578601e-03
-3.467482e-02
-1.428126e-01
-2.292912e-01
1.001929e-02
4.381479e-01
7.268591e-01
4.964496e-01
1.119760e-01
3.955277e-02
4.301887e-02
-3.906514e-02
6.676053e-02
1.250596e-01
1.309985e-01
4.104426e-02
-1.019494e-01
-1.221667e-01
-6.222801e-02
6.373474e-02
3.808947e-01
7.782184e-01
5.794344e-01
4.891135e-01
3.165741e-01
1.651649e-01
2.480177e-01
1.607239e-01
1.576522e-01
1.068372e-01
2.388612e-02
4.808128e-02
-3.507706e-02
-5.509949e-03
1.920608e-01
4.501099e-01
7.423076e-01
9.556128e-01
-9.472051e-01
-1.116162e-01
-3.217335e-01
-3.337746e-01
-1.317314e-01
-1.617362e-01
-2.577010e-02
-1.957393e-01
-3.073638e-01
-1.273736e-01
-3.338251e-02
1.640042e-01
5.121343e-01
8.006012e-01
9.563516e-01
9.989663e-01
1 2 19 18
2 3 20 19
3 4 21 20
4 5 22 21
5 6 23 22
6 7 24 23
7 8 25 24
8 9 26 25
9 10 27 26
10 11 28 27
11 12 29 28
12 13 30 29
13 14 31 30
14 15 32 31
15 16 33 32
16 17 34 33
18 19 36 35
19 20 37 36
20 21 38 37
21 22 39 38
22 23 40 39
23 24 41 40
24 25 42 41
25 26 43 42
26 27 44 43
27 28 45 44
28 29 46 45
29 30 47 46
30 31 48 47
31 32 49 48
32 33 50 49
33 34 51 50
35 36 53 52
36 37 54 53
37 38 55 54
38 39 56 55
39 40 57 56
40 41 58 57
41 42 59 58
42 43 60 59
43 44 61 60
44 45 62 61
45 46 63 62
46 47 64 63
47 48 65 64
48 49 66 65
49 50 67 66
50 51 68 67
52 53 70 69
53 54 71 70
54 55 72 71
55 56 73 72
56 57 74 73
57 58 75 74
58 59 76 75
59 60 77 76
60 61 78 77
61 62 79 78
62 63 80 79
63 64 81 80
64 65 82 81
65 66 83 82
66 67 84 83
67 68 85 84
69 70 87 86
70 71 88 87
71 72 89 88
72 73 90 89
73 74 91 90
74 75 92 91
75 76 93 92
76 77 94 93
77 78 95 94
78 79 96 95
79 80 97 96
80 81 98 97
81 82 99 98
82 83 100 99
83 84 101 100
84 85 102 101
86 87 104 103
87 88 105 104
88 89 106 105
89 90 107 106
90 91 108 107
91 92 109 108
92 93 110 109
93 94 111 110
94 95 112 111
95 96 113 112
96 97 114 113
97 98 115 114
98 99 116 115
99 100 117 116
100 101 118 117
101 102 119 118
103 104 121 120
104 105 122 121
105 106 123 122
106 107 124 123
107 108 125 124
108 109 126 125
109 110 127 126
110 111 128 127
111 112 129 128
112 113 130 129
113 114 131 130
114 115 132 131
115 116 133 132
116 117 134 133
117 118 135 134
118 119 136 135
120 121 138 137
121 122 139 138
122 123 140 139
123 124 141 140
124 125 142 141
125 126 143 142
126 127 144 143
127 128 145 144
128 129 146 145
129 130 147 146
130 131 148 147
131 132 149 148
132 133 150 149
133 134 151 150
134 135 152 151
135 136 153 152
