TITLE = "Solution"
VARIABLES = x, y, u, v, psiu, psiv, t, stress
ZONE T="structure" N=153 E=128 F=FEBLOCK ET=QUADRILATERAL VARLOCATION=([7,8]=cellcentered)
0.000000e+00
1.250000e+01
2.500000e+01
3.750000e+01
5.000000e+01
6.250000e+01
7.500000e+01
8.750000e+01
1.000000e+02
1.125000e+02
1.250000e+02
1.375000e+02
1.500000e+02
1.625000e+02
1.750000e+02
1.875000e+02
2.000000e+02
0.000000e+00
1.250000e+01
2.500000e+01
3.750000e+01
5.000000e+01
6.250000e+01
7.500000e+01
8.750000e+01
1.000000e+02
1.125000e+02
1.250000e+02
1.375000e+02
1.500000e+02
1.625000e+02
1.750000e+02
1.875000e+02
2.000000e+02
0.000000e+00
1.250000e+01
2.500000e+01
3.750000e+01
5.000000e+01
6.250000e+01
7.500000e+01
8.750000e+01
1.000000e+02
1.125000e+02
1.250000e+02
1.375000e+02
1.500000e+02
1.625000e+02
1.750000e+02
1.875000e+02
2.000000e+02
0.000000e+00
1.250000e+01
2.500000e+01
3.750000e+01
5.000000e+01
6.250000e+01
7.500000e+01
8.750000e+01
1.000000e+02
1.125000e+02
1.250000e+02
1.375000e+02
1.500000e+02
1.625000e+02
1.750000e+02
1.875000e+02
2.000000e+02
0.000000e+00
1.250000e+01
2.500000e+01
3.750000e+01
5.000000e+01
6.250000e+01
7.500000e+01
8.750000e+01
1.000000e+02
1.125000e+02
1.250000e+02
1.375000e+02
1.500000e+02
1.625000e+02
1.750000e+02
1.875000e+02
2.000000e+02
0.000000e+00
1.250000e+01
2.500000e+01
3.750000e+01
5.000000e+01
6.250000e+01
7.500000e+01
8.750000e+01
1.000000e+02
1.125000e+02
1.250000e+02
1.375000e+02
1.500000e+02
1.625000e+02
1.750000e+02
1.875000e+02
2.000000e+02
0.000000e+00
1.250000e+01
2.500000e+01
3.750000e+01
5.000000e+01
6.250000e+01
7.500000e+01
8.750000e+01
1.000000e+02
1.125000e+02
1.250000e+02
1.375000e+02
1.500000e+02
1.625000e+02
1.750000e+02
1.875000e+02
2.000000e+02
0.000000e+00
1.250000e+01
2.500000e+01
3.750000e+01
5.000000e+01
6.250000e+01
7.500000e+01
8.750000e+01
1.000000e+02
1.125000e+02
1.250000e+02
1.375000e+02
1.500000e+02
1.625000e+02
1.750000e+02
1.875000e+02
2.000000e+02
0.000000e+00
1.250000e+01
2.500000e+01
3.750000e+01
5.000000e+01
6.250000e+01
7.500000e+01
8.750000e+01
1.000000e+02
1.125000e+02
1.250000e+02
1.375000e+02
1.500000e+02
1.625000e+02
1.750000e+02
1.875000e+02
2.000000e+02
0.000000e+00
0.000000e+00
0.000000e+00
0.000000e+00
0.000000e+00
0.000000e+00
0.000000e+00
0.000000e+00
0.000000e+00
0.000000e+00
0.000000e+00
0.000000e+00
0.000000e+00
0.000000e+00
0.000000e+00
0.000000e+00
0.000000e+00
1.250000e+01
1.250000e+01
1.250000e+01
1.250000e+01
1.250000e+01
1.250000e+01
1.250000e+01
1.250000e+01
1.250000e+01
1.250000e+01
1.250000e+01
1.250000e+01
1.250000e+01
1.250000e+01
1.250000e+01
1.250000e+01
1.250000e+01
2.500000e+01
2.500000e+01
2.500000e+01
2.500000e+01
2.500000e+01
2.500000e+01
2.500000e+01
2.500000e+01
2.500000e+01
2.500000e+01
2.500000e+01
2.500000e+01
2.500000e+01
2.500000e+01
2.500000e+01
2.500000e+01
2.500000e+01
3.750000e+01
3.750000e+01
3.750000e+01
3.750000e+01
3.750000e+01
3.750000e+01
3.750000e+01
3.750000e+01
3.750000e+01
3.750000e+01
3.750000e+01
3.750000e+01
3.750000e+01
3.750000e+01
3.750000e+01
3.750000e+01
3.750000e+01
5.000000e+01
5.000000e+01
5.000000e+01
5.000000e+01
5.000000e+01
5.000000e+01
5.000000e+01
5.000000e+01
5.000000e+01
5.000000e+01
5.000000e+01
5.000000e+01
5.000000e+01
5.000000e+01
5.000000e+01
5.000000e+01
5.000000e+01
6.250000e+01
6.250000e+01
6.250000e+01
6.250000e+01
6.250000e+01
6.250000e+01
6.250000e+01
6.250000e+01
6.250000e+01
6.250000e+01
6.250000e+01
6.250000e+01
6.250000e+01
6.250000e+01
6.250000e+01
6.250000e+01
6.250000e+01
7.500000e+01
7.500000e+01
7.500000e+01
7.500000e+01
7.500000e+01
7.500000e+01
7.500000e+01
7.500000e+01
7.500000e+01
7.500000e+01
7.500000e+01
7.500000e+01
7.500000e+01
7.500000e+01
7.500000e+01
7.500000e+01
7.500000e+01
8.750000e+01
8.750000e+01
8.750000e+01
8.750000e+01
8.750000e+01
8.750000e+01
8.750000e+01
8.750000e+01
8.750000e+01
8.750000e+01
8.750000e+01
8.750000e+01
8.750000e+01
8.750000e+01
8.750000e+01
8.750000e+01
8.750000e+01
1.000000e+02
1.000000e+02
1.000000e+02
1.000000e+02
1.000000e+02
1.000000e+02
1.000000e+02
1.000000e+02
1.000000e+02
1.000000e+02
1.000000e+02
1.000000e+02
1.000000e+02
1.000000e+02
1.000000e+02
1.000000e+02
1.000000e+02
0.000000e+00
-1.338359e-01
-2.464348e-01
-3.500402e-01
-4.465252e-01
-5.356862e-01
-6.173322e-01
-6.913998e-01
-7.579969e-01
-8.174305e-01
-8.702897e-01
-9.176078e-01
-9.611622e-01
-1.004023e+00
-1.051487e+00
-1.109778e+00
-1.153520e+00
0.000000e+00
-7.992481e-02
-1.660283e-01
-2.455393e-01
-3.187928e-01
-3.860675e-01
-4.475030e-01
-5.031816e-01
-5.532038e-01
-5.977238e-01
-6.369677e-01
-6.712183e-01
-7.006944e-01
-7.250926e-01
-7.423020e-01
-7.460739e-01
-7.595977e-01
0.000000e+00
-4.998295e-02
-1.027774e-01
-1.554475e-01
-2.046130e-01
-2.497535e-01
-2.908324e-01
-3.278962e-01
-3.609542e-01
-3.899513e-01
-4.147315e-01
-4.349487e-01
-4.498822e-01
-4.582183e-01
-4.584497e-01
-4.551194e-01
-4.689126e-01
0.000000e+00
-2.412495e-02
-4.966440e-02
-7.536497e-02
-9.993918e-02
-1.225734e-01
-1.430889e-01
-1.614260e-01
-1.774798e-01
-1.910415e-01
-2.017644e-01
-2.091425e-01
-2.125718e-01
-2.117706e-01
-2.084790e-01
-2.093792e-01
-2.196496e-01
0.000000e+00
-2.221971e-05
-5.051269e-05
-7.871232e-05
-9.367622e-05
-6.609771e-05
6.219287e-05
3.955735e-04
1.105290e-03
2.446421e-03
4.751753e-03
8.355595e-03
1.334827e-02
1.899024e-02
2.288751e-02
2.181855e-02
1.501867e-02
0.000000e+00
2.409076e-02
4.958503e-02
7.523802e-02
9.978127e-02
1.224450e-01
1.431388e-01
1.619640e-01
1.790838e-01
1.946968e-01
2.090072e-01
2.221207e-01
2.338098e-01
2.431830e-01
2.486968e-01
2.491341e-01
2.456828e-01
0.000000e+00
4.997734e-02
1.027603e-01
1.554135e-01
2.045598e-01
2.496873e-01
2.907775e-01
3.279140e-01
3.611739e-01
3.906163e-01
4.162669e-01
4.380631e-01
4.557544e-01
4.688341e-01
4.766848e-01
4.792339e-01
4.784291e-01
0.000000e+00
7.995759e-02
1.660996e-01
2.456530e-01
3.189453e-01
3.862307e-01
4.475946e-01
5.030142e-01
5.524054e-01
5.956255e-01
6.324696e-01
6.626831e-01
6.860243e-01
7.024162e-01
7.121943e-01
7.163641e-01
7.171300e-01
0.000000e+00
1.338908e-01
2.465795e-01
3.503112e-01
4.469580e-01
5.362950e-01
6.180584e-01
6.920104e-01
7.579040e-01
8.153968e-01
8.639904e-01
9.030371e-01
9.318957e-01
9.503394e-01
9.592590e-01
9.614606e-01
9.614181e-01
0.000000e+00
-8.101450e-02
-1.590405e-01
-2.601438e-01
-3.842273e-01
-5.310587e-01
-6.990298e-01
-8.862607e-01
-1.090760e+00
-1.310564e+00
-1.543858e+00
-1.789196e+00
-2.045988e+00
-2.315605e+00
-2.605040e+00
-2.936207e+00
-3.412032e+00
0.000000e+00
-4.987393e-02
-1.312678e-01
-2.336250e-01
-3.597366e-01
-5.085719e-01
-6.785781e-01
-8.678291e-01
-1.074311e+00
-1.296023e+00
-1.531102e+00
-1.778035e+00
-2.036141e+00
-2.306754e+00
-2.596077e+00
-2.925234e+00
-3.328485e+00
0.000000e+00
-3.763413e-02
-1.120143e-01
-2.147494e-01
-3.420535e-01
-4.924209e-01
-6.639898e-01
-8.548156e-01
-1.062898e+00
-1.286265e+00
-1.523089e+00
-1.771909e+00
-2.032109e+00
-2.304803e+00
-2.594374e+00
-2.906262e+00
-3.208104e+00
0.000000e+00
-3.243013e-02
-1.024415e-01
-2.036699e-01
-3.314343e-01
-4.827274e-01
-6.553660e-01
-8.473317e-01
-1.056662e+00
-1.281438e+00
-1.519871e+00
-1.770474e+00
-2.032334e+00
-2.305330e+00
-2.589108e+00
-2.875690e+00
-3.139698e+00
0.000000e+00
-3.093091e-02
-9.954425e-02
-2.001355e-01
-3.279347e-01
-4.796043e-01
-6.527393e-01
-8.453230e-01
-1.055430e+00
-1.281173e+00
-1.520724e+00
-1.772360e+00
-2.034454e+00
-2.305073e+00
-2.580167e+00
-2.850329e+00
-3.099215e+00
0.000000e+00
-3.241088e-02
-1.024278e-01
-2.036943e-01
-3.315541e-01
-4.830428e-01
-6.560408e-01
-8.486097e-01
-1.058865e+00
-1.284911e+00
-1.524799e+00
-1.776447e+00
-2.037419e+00
-2.304394e+00
-2.572245e+00
-2.833143e+00
-3.076718e+00
0.000000e+00
-3.760273e-02
-1.119916e-01
-2.147901e-01
-3.422553e-01
-4.929546e-01
-6.651339e-01
-8.569857e-01
-1.066644e+00
-1.292181e+00
-1.531518e+00
-1.782249e+00
-2.041355e+00
-2.304832e+00
-2.567490e+00
-2.823382e+00
-3.066794e+00
0.000000e+00
-4.984449e-02
-1.312480e-01
-2.336790e-01
-3.599789e-01
-5.091995e-01
-6.799099e-01
-8.703374e-01
-1.078615e+00
-1.302778e+00
-1.540662e+00
-1.789692e+00
-2.046590e+00
-2.307135e+00
-2.566299e+00
-2.819346e+00
-3.064465e+00
0.000000e+00
-8.100234e-02
-1.590422e-01
-2.602274e-01
-3.845081e-01
-5.317294e-01
-7.003925e-01
-8.887471e-01
-1.094906e+00
-1.316870e+00
-1.552423e+00
-1.798934e+00
-2.053100e+00
-2.310794e+00
-2.567311e+00
-2.818607e+00
-3.064502e+00


0.000000e+00
4.200119e-10
8.627521e-10
1.168760e-09
1.321590e-09
1.357643e-09
1.319772e-09
1.243859e-09
1.155254e-09
1.069933e-09
9.962507e-10
9.369572e-10
8.909468e-10
8.549169e-10
8.242448e-10
7.924666e-10
7.592658e-10
0.000000e+00
3.498630e-10
7.518362e-10
9.814127e-10
1.072495e-09
1.072162e-09
1.021173e-09
9.486510e-10
8.732516e-10
8.058141e-10
7.514947e-10
7.117257e-10
6.856945e-10
6.703588e-10
6.560488e-10
6.291521e-10
5.943772e-10
0.000000e+00
2.586183e-10
5.018117e-10
6.472630e-10
7.084490e-10
7.083994e-10
6.743380e-10
6.265436e-10
5.780324e-10
5.362757e-10
5.046947e-10
4.840090e-10
4.727580e-10
4.668090e-10
4.578722e-10
4.371297e-10
4.078164e-10
0.000000e+00
1.194120e-10
2.139695e-10
2.876248e-10
3.260445e-10
3.347678e-10
3.251015e-10
3.070659e-10
2.876816e-10
2.711710e-10
2.594898e-10
2.528117e-10
2.496030e-10
2.468366e-10
2.407189e-10
2.273258e-10
2.071670e-10
0.000000e+00
-2.946598e-13
-5.139356e-13
-6.137314e-13
-5.435836e-13
-2.128431e-13
4.732237e-13
1.657577e-12
3.458876e-12
5.937659e-12
8.950338e-12
1.194398e-11
1.388389e-11
1.359708e-11
1.032524e-11
2.992383e-12
-9.203829e-12
0.000000e+00
-1.200292e-10
-2.151215e-10
-2.891562e-10
-3.276888e-10
-3.361008e-10
-3.255189e-10
-3.057559e-10
-2.836277e-10
-2.631954e-10
-2.465280e-10
-2.343884e-10
-2.267970e-10
-2.231794e-10
-2.225529e-10
-2.248021e-10
-2.306166e-10
0.000000e+00
-2.592788e-10
-5.032917e-10
-6.495094e-10
-7.113144e-10
-7.115902e-10
-6.774399e-10
-6.290324e-10
-5.793470e-10
-5.358296e-10
-5.018333e-10
-4.779354e-10
-4.628579e-10
-4.543972e-10
-4.502142e-10
-4.491553e-10
-4.508921e-10
0.000000e+00
-3.504380e-10
-7.535136e-10
-9.841962e-10
-1.076313e-09
-1.076791e-09
-1.026316e-09
-9.540485e-10
-8.788446e-10
-8.118463e-10
-7.584537e-10
-7.199174e-10
-6.946713e-10
-6.796832e-10
-6.716673e-10
-6.682262e-10
-6.677782e-10
0.000000e+00
-4.205907e-10
-8.642818e-10
-1.171368e-09
-1.325273e-09
-1.362337e-09
-1.325441e-09
-1.250613e-09
-1.163532e-09
-1.080682e-09
-1.010986e-09
-9.578891e-10
-9.210263e-10
-8.980454e-10
-8.858173e-10
-8.811840e-10
-8.803906e-10
0.000000e+00
3.731783e-10
5.708012e-10
7.349339e-10
9.344665e-10
1.172075e-09
1.430763e-09
1.693539e-09
1.949406e-09
2.193337e-09
2.423982e-09
2.641455e-09
2.844874e-09
3.027439e-09
3.172196e-09
3.278510e-09
3.381275e-09
0.000000e+00
1.681194e-10
3.926578e-10
6.273893e-10
8.928550e-10
1.175097e-09
1.458598e-09
1.731371e-09
1.987820e-09
2.227030e-09
2.450689e-09
2.661028e-09
2.858840e-09
3.041278e-09
3.199308e-09
3.322722e-09
3.434987e-09
0.000000e+00
5.737778e-11
2.710081e-10
5.593767e-10
8.715188e-10
1.185509e-09
1.485377e-09
1.763598e-09
2.018634e-09
2.252733e-09
2.469841e-09
2.673845e-09
2.867460e-09
3.052259e-09
3.225844e-09
3.371144e-09
3.501674e-09
0.000000e+00
3.270092e-11
2.332465e-10
5.320587e-10
8.627869e-10
1.190983e-09
1.498707e-09
1.779508e-09
2.033616e-09
2.264821e-09
2.478308e-09
2.679147e-09
2.871658e-09
3.059852e-09
3.243915e-09
3.409722e-09
3.565745e-09
0.000000e+00
3.154801e-11
2.266316e-10
5.231250e-10
8.582517e-10
1.190652e-09
1.501102e-09
1.782992e-09
2.036933e-09
2.267206e-09
2.479507e-09
2.679605e-09
2.872734e-09
3.063600e-09
3.254352e-09
3.436298e-09
3.616867e-09
0.000000e+00
3.257960e-11
2.329995e-10
5.316916e-10
8.623099e-10
1.190388e-09
1.497923e-09
1.778354e-09
2.031803e-09
2.262083e-09
2.474700e-09
2.675537e-09
2.870123e-09
3.063306e-09
3.258110e-09
3.451347e-09
3.649043e-09
0.000000e+00
5.723859e-11
2.706908e-10
5.588630e-10
8.708013e-10
1.184538e-09
1.483994e-09
1.761459e-09
2.015182e-09
2.247459e-09
2.462754e-09
2.666472e-09
2.864008e-09
3.060141e-09
3.258153e-09
3.458303e-09
3.664832e-09
0.000000e+00
1.682160e-10
3.926917e-10
6.271816e-10
8.923435e-10
1.174138e-09
1.456955e-09
1.728626e-09
1.983379e-09
2.220360e-09
2.441866e-09
2.651870e-09
2.854928e-09
3.055424e-09
3.256708e-09
3.460798e-09
3.670216e-09
0.000000e+00
3.737701e-10
5.714647e-10
7.353636e-10
9.344670e-10
1.171436e-09
1.429204e-09
1.690707e-09
1.944894e-09
2.186892e-09
2.415963e-09
2.633930e-09
2.843968e-09
3.049700e-09
3.254453e-09
3.460967e-09
3.671045e-09


3.910625e-01
3.910636e-01
3.910624e-01
3.910592e-01
3.910562e-01
3.910533e-01
3.910503e-01
3.910474e-01
3.910446e-01
3.910419e-01
3.910396e-01
3.910376e-01
3.910365e-01
3.910374e-01
3.910402e-01
3.910424e-01
3.910558e-01
3.910571e-01
3.910567e-01
3.910544e-01
3.910521e-01
3.910498e-01
3.910474e-01
3.910450e-01
3.910427e-01
3.910405e-01
3.910385e-01
3.910370e-01
3.910363e-01
3.910376e-01
3.910406e-01
3.910429e-01
3.910451e-01
3.910465e-01
3.910469e-01
3.910460e-01
3.910449e-01
3.910436e-01
3.910422e-01
3.910408e-01
3.910394e-01
3.910381e-01
3.910370e-01
3.910362e-01
3.910361e-01
3.910375e-01
3.910401e-01
3.910417e-01
3.910378e-01
3.910390e-01
3.910399e-01
3.910400e-01
3.910397e-01
3.910392e-01
3.910386e-01
3.910379e-01
3.910373e-01
3.910368e-01
3.910364e-01
3.910361e-01
3.910362e-01
3.910371e-01
3.910384e-01
3.910390e-01
3.910378e-01
3.910390e-01
3.910399e-01
3.910400e-01
3.910397e-01
3.910392e-01
3.910387e-01
3.910382e-01
3.910377e-01
3.910372e-01
3.910369e-01
3.910366e-01
3.910364e-01
3.910364e-01
3.910364e-01
3.910362e-01
3.910451e-01
3.910465e-01
3.910469e-01
3.910461e-01
3.910450e-01
3.910437e-01
3.910425e-01
3.910412e-01
3.910400e-01
3.910389e-01
3.910379e-01
3.910370e-01
3.910361e-01
3.910353e-01
3.910344e-01
3.910338e-01
3.910559e-01
3.910571e-01
3.910567e-01
3.910545e-01
3.910521e-01
3.910499e-01
3.910475e-01
3.910452e-01
3.910429e-01
3.910408e-01
3.910388e-01
3.910370e-01
3.910354e-01
3.910340e-01
3.910329e-01
3.910322e-01
3.910625e-01
3.910636e-01
3.910624e-01
3.910592e-01
3.910562e-01
3.910533e-01
3.910503e-01
3.910473e-01
3.910443e-01
3.910416e-01
3.910390e-01
3.910367e-01
3.910348e-01
3.910332e-01
3.910321e-01
3.910314e-01


9.597008e-01
9.654153e-01
9.707019e-01
9.747718e-01
9.785496e-01
9.820329e-01
9.852063e-01
9.880327e-01
9.904823e-01
9.925311e-01
9.941602e-01
9.953535e-01
9.960953e-01
9.963599e-01
9.965508e-01
9.847744e-01
9.847539e-01
9.821351e-01
9.838201e-01
9.860193e-01
9.880697e-01
9.899332e-01
9.916200e-01
9.931479e-01
9.945312e-01
9.957843e-01
9.969211e-01
9.979506e-01
9.988487e-01
9.994368e-01
9.979495e-01
9.777908e-01
9.947026e-01
9.931986e-01
9.927926e-01
9.933639e-01
9.941153e-01
9.948432e-01
9.955189e-01
9.961574e-01
9.967758e-01
9.973789e-01
9.979420e-01
9.983780e-01
9.984690e-01
9.976839e-01
9.948355e-01
9.897125e-01
9.989219e-01
9.978250e-01
9.971474e-01
9.969755e-01
9.970441e-01
9.971594e-01
9.972744e-01
9.973868e-01
9.974971e-01
9.975895e-01
9.976152e-01
9.974779e-01
9.970424e-01
9.962607e-01
9.955979e-01
9.954300e-01
9.989260e-01
9.978307e-01
9.971525e-01
9.969744e-01
9.970271e-01
9.971102e-01
9.971678e-01
9.971873e-01
9.971608e-01
9.970759e-01
9.969178e-01
9.966899e-01
9.964729e-01
9.965161e-01
9.971295e-01
9.981914e-01
9.947102e-01
9.932100e-01
9.928036e-01
9.933640e-01
9.940861e-01
9.947531e-01
9.953174e-01
9.957710e-01
9.961106e-01
9.963394e-01
9.964840e-01
9.966254e-01
9.969225e-01
9.975451e-01
9.984803e-01
9.994473e-01
9.847524e-01
9.821340e-01
9.838178e-01
9.860130e-01
9.880536e-01
9.898965e-01
9.915441e-01
9.930029e-01
9.942740e-01
9.953605e-01
9.962803e-01
9.970836e-01
9.978571e-01
9.986680e-01
9.994264e-01
9.999040e-01
9.596733e-01
9.653723e-01
9.706492e-01
9.747127e-01
9.784964e-01
9.820136e-01
9.852718e-01
9.882636e-01
9.909895e-01
9.934443e-01
9.955988e-01
9.973860e-01
9.987156e-01
9.995359e-01
9.999090e-01
9.999981e-01
1 2 19 18
2 3 20 19
3 4 21 20
4 5 22 21
5 6 23 22
6 7 24 23
7 8 25 24
8 9 26 25
9 10 27 26
10 11 28 27
11 12 29 28
12 13 30 29
13 14 31 30
14 15 32 31
15 16 33 32
16 17 34 33
18 19 36 35
19 20 37 36
20 21 38 37
21 22 39 38
22 23 40 39
23 24 41 40
24 25 42 41
25 26 43 42
26 27 44 43
27 28 45 44
28 29 46 45
29 30 47 46
30 31 48 47
31 32 49 48
32 33 50 49
33 34 51 50
35 36 53 52
36 37 54 53
37 38 55 54
38 39 56 55
39 40 57 56
40 41 58 57
41 42 59 58
42 43 60 59
43 44 61 60
44 45 62 61
45 46 63 62
46 47 64 63
47 48 65 64
48 49 66 65
49 50 67 66
50 51 68 67
52 53 70 69
53 54 71 70
54 55 72 71
55 56 73 72
56 57 74 73
57 58 75 74
58 59 76 75
59 60 77 76
60 61 78 77
61 62 79 78
62 63 80 79
63 64 81 80
64 65 82 81
65 66 83 82
66 67 84 83
67 68 85 84
69 70 87 86
70 71 88 87
71 72 89 88
72 73 90 89
73 74 91 90
74 75 92 91
75 76 93 92
76 77 94 93
77 78 95 94
78 79 96 95
79 80 97 96
80 81 98 97
81 82 99 98
82 83 100 99
83 84 101 100
84 85 102 101
86 87 104 103
87 88 105 104
88 89 106 105
89 90 107 106
90 91 108 107
91 92 109 108
92 93 110 109
93 94 111 110
94 95 112 111
95 96 113 112
96 97 114 113
97 98 115 114
98 99 116 115
99 100 117 116
100 101 118 117
101 102 119 118
103 104 121 120
104 105 122 121
105 106 123 122
106 107 124 123
107 108 125 124
108 109 126 125
109 110 127 126
110 111 128 127
111 112 129 128
112 113 130 129
113 114 131 130
114 115 132 131
115 116 133 132
116 117 134 133
117 118 135 134
118 119 136 135
120 121 138 137
121 122 139 138
122 123 140 139
123 124 141 140
124 125 142 141
125 126 143 142
126 127 144 143
127 128 145 144
128 129 146 145
129 130 147 146
130 131 148 147
131 132 149 148
132 133 150 149
133 134 151 150
134 135 152 151
135 136 153 152
