TITLE = "Solution"
VARIABLES = x, y, u, v, psiu, psiv, t, stress
ZONE T="structure" N=153 E=128 F=FEBLOCK ET=QUADRILATERAL VARLOCATION=([7,8]=cellcentered)
0.000000e+00
1.250000e+01
2.500000e+01
3.750000e+01
5.000000e+01
6.250000e+01
7.500000e+01
8.750000e+01
1.000000e+02
1.125000e+02
1.250000e+02
1.375000e+02
1.500000e+02
1.625000e+02
1.750000e+02
1.875000e+02
2.000000e+02
0.000000e+00
1.250000e+01
2.500000e+01
3.750000e+01
5.000000e+01
6.250000e+01
7.500000e+01
8.750000e+01
1.000000e+02
1.125000e+02
1.250000e+02
1.375000e+02
1.500000e+02
1.625000e+02
1.750000e+02
1.875000e+02
2.000000e+02
0.000000e+00
1.250000e+01
2.500000e+01
3.750000e+01
5.000000e+01
6.250000e+01
7.500000e+01
8.750000e+01
1.000000e+02
1.125000e+02
1.250000e+02
1.375000e+02
1.500000e+02
1.625000e+02
1.750000e+02
1.875000e+02
2.000000e+02
0.000000e+00
1.250000e+01
2.500000e+01
3.750000e+01
5.000000e+01
6.250000e+01
7.500000e+01
8.750000e+01
1.000000e+02
1.125000e+02
1.250000e+02
1.375000e+02
1.500000e+02
1.625000e+02
1.750000e+02
1.875000e+02
2.000000e+02
0.000000e+00
1.250000e+01
2.500000e+01
3.750000e+01
5.000000e+01
6.250000e+01
7.500000e+01
8.750000e+01
1.000000e+02
1.125000e+02
1.250000e+02
1.375000e+02
1.500000e+02
1.625000e+02
1.750000e+02
1.875000e+02
2.000000e+02
0.000000e+00
1.250000e+01
2.500000e+01
3.750000e+01
5.000000e+01
6.250000e+01
7.500000e+01
8.750000e+01
1.000000e+02
1.125000e+02
1.250000e+02
1.375000e+02
1.500000e+02
1.625000e+02
1.750000e+02
1.875000e+02
2.000000e+02
0.000000e+00
1.250000e+01
2.500000e+01
3.750000e+01
5.000000e+01
6.250000e+01
7.500000e+01
8.750000e+01
1.000000e+02
1.125000e+02
1.250000e+02
1.375000e+02
1.500000e+02
1.625000e+02
1.750000e+02
1.875000e+02
2.000000e+02
0.000000e+00
1.250000e+01
2.500000e+01
3.750000e+01
5.000000e+01
6.250000e+01
7.500000e+01
8.750000e+01
1.000000e+02
1.125000e+02
1.250000e+02
1.375000e+02
1.500000e+02
1.625000e+02
1.750000e+02
1.875000e+02
2.000000e+02
0.000000e+00
1.250000e+01
2.500000e+01
3.750000e+01
5.000000e+01
6.250000e+01
7.500000e+01
8.750000e+01
1.000000e+02
1.125000e+02
1.250000e+02
1.375000e+02
1.500000e+02
1.625000e+02
1.750000e+02
1.875000e+02
2.000000e+02
0.000000e+00
0.000000e+00
0.000000e+00
0.000000e+00
0.000000e+00
0.000000e+00
0.000000e+00
0.000000e+00
0.000000e+00
0.000000e+00
0.000000e+00
0.000000e+00
0.000000e+00
0.000000e+00
0.000000e+00
0.000000e+00
0.000000e+00
1.250000e+01
1.250000e+01
1.250000e+01
1.250000e+01
1.250000e+01
1.250000e+01
1.250000e+01
1.250000e+01
1.250000e+01
1.250000e+01
1.250000e+01
1.250000e+01
1.250000e+01
1.250000e+01
1.250000e+01
1.250000e+01
1.250000e+01
2.500000e+01
2.500000e+01
2.500000e+01
2.500000e+01
2.500000e+01
2.500000e+01
2.500000e+01
2.500000e+01
2.500000e+01
2.500000e+01
2.500000e+01
2.500000e+01
2.500000e+01
2.500000e+01
2.500000e+01
2.500000e+01
2.500000e+01
3.750000e+01
3.750000e+01
3.750000e+01
3.750000e+01
3.750000e+01
3.750000e+01
3.750000e+01
3.750000e+01
3.750000e+01
3.750000e+01
3.750000e+01
3.750000e+01
3.750000e+01
3.750000e+01
3.750000e+01
3.750000e+01
3.750000e+01
5.000000e+01
5.000000e+01
5.000000e+01
5.000000e+01
5.000000e+01
5.000000e+01
5.000000e+01
5.000000e+01
5.000000e+01
5.000000e+01
5.000000e+01
5.000000e+01
5.000000e+01
5.000000e+01
5.000000e+01
5.000000e+01
5.000000e+01
6.250000e+01
6.250000e+01
6.250000e+01
6.250000e+01
6.250000e+01
6.250000e+01
6.250000e+01
6.250000e+01
6.250000e+01
6.250000e+01
6.250000e+01
6.250000e+01
6.250000e+01
6.250000e+01
6.250000e+01
6.250000e+01
6.250000e+01
7.500000e+01
7.500000e+01
7.500000e+01
7.500000e+01
7.500000e+01
7.500000e+01
7.500000e+01
7.500000e+01
7.500000e+01
7.500000e+01
7.500000e+01
7.500000e+01
7.500000e+01
7.500000e+01
7.500000e+01
7.500000e+01
7.500000e+01
8.750000e+01
8.750000e+01
8.750000e+01
8.750000e+01
8.750000e+01
8.750000e+01
8.750000e+01
8.750000e+01
8.750000e+01
8.750000e+01
8.750000e+01
8.750000e+01
8.750000e+01
8.750000e+01
8.750000e+01
8.750000e+01
8.750000e+01
1.000000e+02
1.000000e+02
1.000000e+02
1.000000e+02
1.000000e+02
1.000000e+02
1.000000e+02
1.000000e+02
1.000000e+02
1.000000e+02
1.000000e+02
1.000000e+02
1.000000e+02
1.000000e+02
1.000000e+02
1.000000e+02
1.000000e+02
0.000000e+00
-1.027497e+00
-1.691615e+00
-2.418634e+00
-3.109187e+00
-3.755319e+00
-4.424532e+00
-5.005930e+00
-5.657499e+00
-6.374235e+00
-7.056849e+00
-7.741931e+00
-8.459608e+00
-9.198135e+00
-1.001466e+01
-1.072079e+01
-1.116247e+01
0.000000e+00
-4.686069e-01
-9.246564e-01
-1.421331e+00
-1.942956e+00
-2.440029e+00
-2.952853e+00
-3.431239e+00
-3.932612e+00
-4.475844e+00
-4.975627e+00
-5.468982e+00
-5.972228e+00
-6.452740e+00
-6.830309e+00
-6.934714e+00
-7.103987e+00
0.000000e+00
-1.563389e-01
-3.648588e-01
-6.579182e-01
-1.009679e+00
-1.350149e+00
-1.722132e+00
-2.091764e+00
-2.446986e+00
-2.794244e+00
-3.107468e+00
-3.412960e+00
-3.691693e+00
-3.891201e+00
-3.956373e+00
-3.935793e+00
-4.085262e+00
0.000000e+00
-7.901472e-02
-1.646151e-01
-3.195178e-01
-4.681254e-01
-6.443374e-01
-8.299882e-01
-9.938591e-01
-1.154815e+00
-1.293793e+00
-1.432410e+00
-1.554347e+00
-1.628926e+00
-1.630328e+00
-1.565382e+00
-1.557322e+00
-1.694804e+00
0.000000e+00
-2.018360e-03
-4.284704e-03
-6.353798e-03
-7.492256e-03
-6.267649e-03
-6.953721e-04
1.142704e-02
3.195134e-02
6.237685e-02
1.062179e-01
1.712829e-01
2.643641e-01
3.796678e-01
4.714439e-01
4.794819e-01
3.765488e-01
0.000000e+00
7.567508e-02
1.584157e-01
3.100992e-01
4.567361e-01
6.338372e-01
8.258667e-01
1.006498e+00
1.198756e+00
1.388809e+00
1.607193e+00
1.842709e+00
2.069095e+00
2.262614e+00
2.391695e+00
2.417315e+00
2.356340e+00
0.000000e+00
1.548807e-01
3.623794e-01
6.542778e-01
1.004412e+00
1.343040e+00
1.714163e+00
2.086003e+00
2.450738e+00
2.822307e+00
3.178459e+00
3.540733e+00
3.874105e+00
4.137938e+00
4.307277e+00
4.367545e+00
4.351829e+00
0.000000e+00
4.685211e-01
9.245206e-01
1.420602e+00
1.941489e+00
2.437231e+00
2.947179e+00
3.421482e+00
3.914409e+00
4.445825e+00
4.934116e+00
5.397719e+00
5.816782e+00
6.139997e+00
6.345031e+00
6.436463e+00
6.453241e+00
0.000000e+00
1.028665e+00
1.693887e+00
2.422013e+00
3.114057e+00
3.762356e+00
4.431715e+00
5.010959e+00
5.651328e+00
6.340151e+00
6.975949e+00
7.564846e+00
8.073253e+00
8.433096e+00
8.622132e+00
8.673416e+00
8.673495e+00
0.000000e+00
-6.293580e-01
-1.365141e+00
-2.354522e+00
-3.519404e+00
-4.846335e+00
-6.337024e+00
-7.956463e+00
-9.736041e+00
-1.168059e+01
-1.378537e+01
-1.608429e+01
-1.858024e+01
-2.127449e+01
-2.420950e+01
-2.757613e+01
-3.253390e+01
0.000000e+00
-4.252382e-01
-1.202286e+00
-2.169687e+00
-3.345737e+00
-4.670583e+00
-6.169043e+00
-7.796258e+00
-9.556097e+00
-1.150094e+01
-1.361189e+01
-1.590935e+01
-1.840432e+01
-2.110581e+01
-2.408091e+01
-2.748637e+01
-3.154106e+01
0.000000e+00
-3.952797e-01
-1.098164e+00
-2.064078e+00
-3.220751e+00
-4.537419e+00
-6.042200e+00
-7.670543e+00
-9.441803e+00
-1.138724e+01
-1.350370e+01
-1.581095e+01
-1.832187e+01
-2.105290e+01
-2.406936e+01
-2.732242e+01
-3.037587e+01
0.000000e+00
-4.472186e-01
-1.083293e+00
-2.034307e+00
-3.153065e+00
-4.455866e+00
-5.961458e+00
-7.599188e+00
-9.396661e+00
-1.134058e+01
-1.346675e+01
-1.579321e+01
-1.832402e+01
-2.106203e+01
-2.401250e+01
-2.698456e+01
-2.956418e+01
0.000000e+00
-4.519280e-01
-1.101844e+00
-2.017583e+00
-3.139430e+00
-4.437477e+00
-5.934618e+00
-7.594345e+00
-9.398987e+00
-1.135327e+01
-1.349008e+01
-1.583330e+01
-1.836479e+01
-2.106772e+01
-2.387687e+01
-2.661071e+01
-2.894004e+01
0.000000e+00
-4.469602e-01
-1.084339e+00
-2.037668e+00
-3.159887e+00
-4.468062e+00
-5.982099e+00
-7.631910e+00
-9.443631e+00
-1.140453e+01
-1.355322e+01
-1.589980e+01
-1.841640e+01
-2.105813e+01
-2.374805e+01
-2.631954e+01
-2.854495e+01
0.000000e+00
-3.953172e-01
-1.100234e+00
-2.069593e+00
-3.231723e+00
-4.557400e+00
-6.075947e+00
-7.723751e+00
-9.518909e+00
-1.149444e+01
-1.364587e+01
-1.598466e+01
-1.847903e+01
-2.106563e+01
-2.366041e+01
-2.613353e+01
-2.834444e+01
0.000000e+00
-4.254298e-01
-1.204451e+00
-2.175350e+00
-3.357331e+00
-4.691878e+00
-6.205591e+00
-7.854126e+00
-9.642282e+00
-1.162419e+01
-1.377229e+01
-1.609682e+01
-1.856661e+01
-2.110928e+01
-2.363724e+01
-2.604905e+01
-2.829012e+01
0.000000e+00
-6.298237e-01
-1.367434e+00
-2.360339e+00
-3.531248e+00
-4.867849e+00
-6.373510e+00
-8.013275e+00
-9.819777e+00
-1.179951e+01
-1.393670e+01
-1.624503e+01
-1.868500e+01
-2.118304e+01
-2.365994e+01
-2.603317e+01
-2.828985e+01


0.000000e+00
1.369784e-05
2.417901e-05
3.721754e-05
5.151137e-05
6.525505e-05
7.977790e-05
9.352935e-05
1.089498e-04
1.238018e-04
1.353188e-04
1.447311e-04
1.519425e-04
1.564478e-04
1.596838e-04
1.634662e-04
1.685121e-04
0.000000e+00
9.533926e-06
1.914803e-05
2.900413e-05
4.077429e-05
5.166761e-05
6.260707e-05
7.395034e-05
8.595470e-05
9.652784e-05
1.037801e-04
1.094150e-04
1.130129e-04
1.133874e-04
1.128981e-04
1.167254e-04
1.223535e-04
0.000000e+00
7.768600e-06
1.495064e-05
2.177288e-05
3.034780e-05
3.786802e-05
4.540230e-05
5.330027e-05
6.034705e-05
6.559845e-05
6.908196e-05
7.158790e-05
7.264279e-05
7.200644e-05
7.182614e-05
7.505639e-05
8.023268e-05
0.000000e+00
4.436187e-06
7.122907e-06
1.138096e-05
1.518407e-05
1.891212e-05
2.291931e-05
2.647834e-05
2.942864e-05
3.132086e-05
3.248319e-05
3.286251e-05
3.267264e-05
3.275751e-05
3.374653e-05
3.661076e-05
4.099514e-05
0.000000e+00
-5.841704e-08
-1.301025e-07
-2.011400e-07
-2.726178e-07
-3.348952e-07
-3.853067e-07
-4.247035e-07
-5.281399e-07
-8.409371e-07
-1.546150e-06
-2.541709e-06
-3.386834e-06
-3.443210e-06
-2.480237e-06
-9.995712e-07
1.083020e-06
0.000000e+00
-4.543253e-06
-7.330344e-06
-1.171881e-05
-1.562318e-05
-1.944589e-05
-2.351406e-05
-2.709462e-05
-3.000327e-05
-3.191238e-05
-3.355390e-05
-3.510385e-05
-3.630160e-05
-3.693745e-05
-3.740623e-05
-3.775376e-05
-3.737676e-05
0.000000e+00
-7.825241e-06
-1.505863e-05
-2.194100e-05
-3.060429e-05
-3.820799e-05
-4.581861e-05
-5.372166e-05
-6.058798e-05
-6.535933e-05
-6.799349e-05
-6.949649e-05
-7.058505e-05
-7.160042e-05
-7.263224e-05
-7.351161e-05
-7.375186e-05
0.000000e+00
-9.549065e-06
-1.916450e-05
-2.900783e-05
-4.081229e-05
-5.175655e-05
-6.272336e-05
-7.409482e-05
-8.611421e-05
-9.654345e-05
-1.027319e-04
-1.060313e-04
-1.078158e-04
-1.090618e-04
-1.099287e-04
-1.103706e-04
-1.104938e-04
0.000000e+00
-1.369907e-05
-2.413558e-05
-3.709468e-05
-5.132431e-05
-6.502171e-05
-7.944602e-05
-9.314767e-05
-1.086190e-04
-1.236698e-04
-1.348305e-04
-1.420157e-04
-1.460093e-04
-1.476987e-04
-1.481551e-04
-1.480932e-04
-1.480154e-04
0.000000e+00
1.158212e-05
2.000799e-05
3.199124e-05
4.679986e-05
6.402974e-05
8.532727e-05
1.099834e-04
1.384259e-04
1.691982e-04
2.024735e-04
2.391069e-04
2.777783e-04
3.188341e-04
3.673855e-04
4.238070e-04
4.799454e-04
0.000000e+00
6.704137e-06
1.542086e-05
2.596971e-05
4.062447e-05
5.787543e-05
7.904930e-05
1.035764e-04
1.316897e-04
1.636293e-04
1.983276e-04
2.359099e-04
2.759331e-04
3.179955e-04
3.636258e-04
4.167353e-04
4.710662e-04
0.000000e+00
3.146991e-06
1.097918e-05
2.090033e-05
3.502556e-05
5.275313e-05
7.379403e-05
9.856834e-05
1.273544e-04
1.602426e-04
1.959054e-04
2.341835e-04
2.751518e-04
3.175084e-04
3.590914e-04
4.079592e-04
4.605367e-04
0.000000e+00
1.978419e-06
8.562081e-06
1.853494e-05
3.252517e-05
5.044271e-05
7.175296e-05
9.692890e-05
1.262994e-04
1.593456e-04
1.951766e-04
2.335749e-04
2.748326e-04
3.169440e-04
3.563519e-04
3.999698e-04
4.486171e-04
0.000000e+00
1.601443e-06
7.956244e-06
1.777009e-05
3.183963e-05
4.967365e-05
7.116161e-05
9.659466e-05
1.261662e-04
1.592219e-04
1.950333e-04
2.335157e-04
2.747090e-04
3.168910e-04
3.561954e-04
3.961091e-04
4.393835e-04
0.000000e+00
2.007177e-06
8.584439e-06
1.852657e-05
3.245530e-05
5.030831e-05
7.156807e-05
9.675927e-05
1.262605e-04
1.594622e-04
1.956067e-04
2.343448e-04
2.754151e-04
3.170371e-04
3.569989e-04
3.957747e-04
4.347524e-04
0.000000e+00
3.188299e-06
1.101798e-05
2.088097e-05
3.491249e-05
5.251725e-05
7.344695e-05
9.818560e-05
1.270942e-04
1.603979e-04
1.968362e-04
2.357943e-04
2.765110e-04
3.174242e-04
3.571874e-04
3.956938e-04
4.331684e-04
0.000000e+00
6.753847e-06
1.546830e-05
2.596529e-05
4.052959e-05
5.764813e-05
7.868030e-05
1.031172e-04
1.313264e-04
1.636698e-04
1.990546e-04
2.373002e-04
2.773294e-04
3.176819e-04
3.571615e-04
3.955434e-04
4.330301e-04
0.000000e+00
1.163427e-05
2.004814e-05
3.199001e-05
4.672911e-05
6.382844e-05
8.498311e-05
1.095583e-04
1.381105e-04
1.691268e-04
2.024759e-04
2.390958e-04
2.781101e-04
3.178791e-04
3.571780e-04
3.954714e-04
4.330988e-04


6.358026e+00
6.065387e+00
6.257930e+00
5.278321e+00
4.767760e+00
5.120019e+00
4.935771e+00
4.762359e+00
4.551798e+00
4.708509e+00
5.538439e+00
6.582328e+00
7.400047e+00
8.171278e+00
8.202197e+00
7.808549e+00
7.893742e+00
8.146301e+00
8.175293e+00
7.762141e+00
7.381317e+00
7.520030e+00
7.156979e+00
6.195944e+00
5.526880e+00
5.496079e+00
6.266866e+00
7.154681e+00
7.674701e+00
7.813602e+00
7.314870e+00
6.200855e+00
9.327574e+00
9.494962e+00
9.764950e+00
9.432788e+00
9.269645e+00
9.360524e+00
8.965061e+00
8.073559e+00
7.183969e+00
7.030181e+00
7.422078e+00
7.783902e+00
7.798397e+00
7.465026e+00
6.524796e+00
5.726933e+00
9.611056e+00
9.811528e+00
9.914554e+00
9.714290e+00
9.514464e+00
9.590938e+00
9.639515e+00
9.246047e+00
8.670582e+00
8.330951e+00
8.114358e+00
7.789681e+00
7.452294e+00
7.042319e+00
6.560031e+00
6.099238e+00
9.606880e+00
9.805339e+00
9.893539e+00
9.660815e+00
9.438406e+00
9.521201e+00
9.600818e+00
9.250110e+00
8.731358e+00
8.384768e+00
7.996758e+00
7.446612e+00
7.123506e+00
7.094445e+00
7.042490e+00
6.969006e+00
9.317262e+00
9.484179e+00
9.720772e+00
9.320829e+00
9.102614e+00
9.194886e+00
8.850170e+00
8.055106e+00
7.293236e+00
7.194216e+00
7.336789e+00
7.277375e+00
7.315645e+00
7.672981e+00
8.028447e+00
8.171148e+00
7.884031e+00
8.137466e+00
8.144891e+00
7.677332e+00
7.239432e+00
7.363387e+00
7.038242e+00
6.154420e+00
5.621531e+00
5.763410e+00
6.557339e+00
7.284334e+00
7.824201e+00
8.411923e+00
8.908610e+00
9.121789e+00
6.345888e+00
6.060345e+00
6.248072e+00
5.241342e+00
4.693314e+00
5.023221e+00
4.871026e+00
4.755192e+00
4.640125e+00
5.029545e+00
6.135691e+00
7.335188e+00
8.214650e+00
8.881114e+00
9.353222e+00
9.551170e+00


-9.544040e-01
-1.206230e-01
-3.099676e-01
-2.897878e-01
-1.525367e-01
-2.281031e-01
1.863802e-03
-1.776822e-01
-4.016871e-01
-2.387016e-01
-2.301174e-01
-3.120727e-01
-2.953069e-01
-2.174402e-01
4.196906e-01
-7.349479e-01
5.769924e-01
4.854982e-01
3.204143e-01
1.888122e-01
2.388703e-01
1.396891e-01
1.925618e-01
1.734548e-01
1.192023e-01
2.531314e-01
2.742680e-01
3.078221e-01
4.763516e-01
7.174117e-01
7.316337e-01
-9.632440e-01
7.239679e-01
4.901961e-01
9.950724e-02
3.686089e-02
4.074388e-02
-4.104395e-02
1.241740e-01
2.371992e-01
3.366916e-01
3.886621e-01
3.805977e-01
4.114578e-01
4.589022e-01
3.295490e-01
4.938894e-02
-4.171274e-01
7.331739e-01
5.677692e-01
2.290545e-01
1.493726e-01
1.020371e-01
6.096580e-02
1.532834e-01
2.150041e-01
2.797712e-01
2.673981e-01
2.299537e-01
1.890656e-01
7.399435e-02
-1.709322e-01
-2.468631e-01
-9.587576e-02
7.347289e-01
5.702886e-01
2.346014e-01
1.538496e-01
1.004468e-01
4.205914e-02
1.091600e-01
1.409420e-01
1.727492e-01
1.135535e-01
2.534225e-02
-4.728237e-02
-1.406468e-01
-1.718118e-01
4.113420e-02
4.423962e-01
7.271298e-01
4.940782e-01
1.066261e-01
4.232502e-02
3.400343e-02
-7.567039e-02
4.592318e-02
1.009073e-01
1.209747e-01
6.145389e-02
-8.608991e-02
-1.479707e-01
-1.005834e-01
5.524004e-02
3.917352e-01
7.813381e-01
5.790410e-01
4.864915e-01
3.218115e-01
1.896518e-01
2.374245e-01
1.316621e-01
1.694904e-01
1.226617e-01
2.815896e-03
5.043762e-02
-1.808853e-02
-1.049729e-02
1.657774e-01
4.307033e-01
7.352006e-01
9.533057e-01
-9.568867e-01
-1.227552e-01
-3.111932e-01
-2.916640e-01
-1.547277e-01
-2.241241e-01
1.080906e-02
-1.451976e-01
-3.332242e-01
-1.489143e-01
-3.319219e-02
1.633139e-01
5.035158e-01
7.945797e-01
9.547574e-01
9.988802e-01
1 2 19 18
2 3 20 19
3 4 21 20
4 5 22 21
5 6 23 22
6 7 24 23
7 8 25 24
8 9 26 25
9 10 27 26
10 11 28 27
11 12 29 28
12 13 30 29
13 14 31 30
14 15 32 31
15 16 33 32
16 17 34 33
18 19 36 35
19 20 37 36
20 21 38 37
21 22 39 38
22 23 40 39
23 24 41 40
24 25 42 41
25 26 43 42
26 27 44 43
27 28 45 44
28 29 46 45
29 30 47 46
30 31 48 47
31 32 49 48
32 33 50 49
33 34 51 50
35 36 53 52
36 37 54 53
37 38 55 54
38 39 56 55
39 40 57 56
40 41 58 57
41 42 59 58
42 43 60 59
43 44 61 60
44 45 62 61
45 46 63 62
46 47 64 63
47 48 65 64
48 49 66 65
49 50 67 66
50 51 68 67
52 53 70 69
53 54 71 70
54 55 72 71
55 56 73 72
56 57 74 73
57 58 75 74
58 59 76 75
59 60 77 76
60 61 78 77
61 62 79 78
62 63 80 79
63 64 81 80
64 65 82 81
65 66 83 82
66 67 84 83
67 68 85 84
69 70 87 86
70 71 88 87
71 72 89 88
72 73 90 89
73 74 91 90
74 75 92 91
75 76 93 92
76 77 94 93
77 78 95 94
78 79 96 95
79 80 97 96
80 81 98 97
81 82 99 98
82 83 100 99
83 84 101 100
84 85 102 101
86 87 104 103
87 88 105 104
88 89 106 105
89 90 107 106
90 91 108 107
91 92 109 108
92 93 110 109
93 94 111 110
94 95 112 111
95 96 113 112
96 97 114 113
97 98 115 114
98 99 116 115
99 100 117 116
100 101 118 117
101 102 119 118
103 104 121 120
104 105 122 121
105 106 123 122
106 107 124 123
107 108 125 124
108 109 126 125
109 110 127 126
110 111 128 127
111 112 129 128
112 113 130 129
113 114 131 130
114 115 132 131
115 116 133 132
116 117 134 133
117 118 135 134
118 119 136 135
120 121 138 137
121 122 139 138
122 123 140 139
123 124 141 140
124 125 142 141
125 126 143 142
126 127 144 143
127 128 145 144
128 129 146 145
129 130 147 146
130 131 148 147
131 132 149 148
132 133 150 149
133 134 151 150
134 135 152 151
135 136 153 152
