TITLE = "Solution"
VARIABLES = x, y, u, v, psiu, psiv, t, stress
ZONE T="structure" N=153 E=128 F=FEBLOCK ET=QUADRILATERAL VARLOCATION=([7,8]=cellcentered)
0.000000e+00
1.250000e+01
2.500000e+01
3.750000e+01
5.000000e+01
6.250000e+01
7.500000e+01
8.750000e+01
1.000000e+02
1.125000e+02
1.250000e+02
1.375000e+02
1.500000e+02
1.625000e+02
1.750000e+02
1.875000e+02
2.000000e+02
0.000000e+00
1.250000e+01
2.500000e+01
3.750000e+01
5.000000e+01
6.250000e+01
7.500000e+01
8.750000e+01
1.000000e+02
1.125000e+02
1.250000e+02
1.375000e+02
1.500000e+02
1.625000e+02
1.750000e+02
1.875000e+02
2.000000e+02
0.000000e+00
1.250000e+01
2.500000e+01
3.750000e+01
5.000000e+01
6.250000e+01
7.500000e+01
8.750000e+01
1.000000e+02
1.125000e+02
1.250000e+02
1.375000e+02
1.500000e+02
1.625000e+02
1.750000e+02
1.875000e+02
2.000000e+02
0.000000e+00
1.250000e+01
2.500000e+01
3.750000e+01
5.000000e+01
6.250000e+01
7.500000e+01
8.750000e+01
1.000000e+02
1.125000e+02
1.250000e+02
1.375000e+02
1.500000e+02
1.625000e+02
1.750000e+02
1.875000e+02
2.000000e+02
0.000000e+00
1.250000e+01
2.500000e+01
3.750000e+01
5.000000e+01
6.250000e+01
7.500000e+01
8.750000e+01
1.000000e+02
1.125000e+02
1.250000e+02
1.375000e+02
1.500000e+02
1.625000e+02
1.750000e+02
1.875000e+02
2.000000e+02
0.000000e+00
1.250000e+01
2.500000e+01
3.750000e+01
5.000000e+01
6.250000e+01
7.500000e+01
8.750000e+01
1.000000e+02
1.125000e+02
1.250000e+02
1.375000e+02
1.500000e+02
1.625000e+02
1.750000e+02
1.875000e+02
2.000000e+02
0.000000e+00
1.250000e+01
2.500000e+01
3.750000e+01
5.000000e+01
6.250000e+01
7.500000e+01
8.750000e+01
1.000000e+02
1.125000e+02
1.250000e+02
1.375000e+02
1.500000e+02
1.625000e+02
1.750000e+02
1.875000e+02
2.000000e+02
0.000000e+00
1.250000e+01
2.500000e+01
3.750000e+01
5.000000e+01
6.250000e+01
7.500000e+01
8.750000e+01
1.000000e+02
1.125000e+02
1.250000e+02
1.375000e+02
1.500000e+02
1.625000e+02
1.750000e+02
1.875000e+02
2.000000e+02
0.000000e+00
1.250000e+01
2.500000e+01
3.750000e+01
5.000000e+01
6.250000e+01
7.500000e+01
8.750000e+01
1.000000e+02
1.125000e+02
1.250000e+02
1.375000e+02
1.500000e+02
1.625000e+02
1.750000e+02
1.875000e+02
2.000000e+02
0.000000e+00
0.000000e+00
0.000000e+00
0.000000e+00
0.000000e+00
0.000000e+00
0.000000e+00
0.000000e+00
0.000000e+00
0.000000e+00
0.000000e+00
0.000000e+00
0.000000e+00
0.000000e+00
0.000000e+00
0.000000e+00
0.000000e+00
1.250000e+01
1.250000e+01
1.250000e+01
1.250000e+01
1.250000e+01
1.250000e+01
1.250000e+01
1.250000e+01
1.250000e+01
1.250000e+01
1.250000e+01
1.250000e+01
1.250000e+01
1.250000e+01
1.250000e+01
1.250000e+01
1.250000e+01
2.500000e+01
2.500000e+01
2.500000e+01
2.500000e+01
2.500000e+01
2.500000e+01
2.500000e+01
2.500000e+01
2.500000e+01
2.500000e+01
2.500000e+01
2.500000e+01
2.500000e+01
2.500000e+01
2.500000e+01
2.500000e+01
2.500000e+01
3.750000e+01
3.750000e+01
3.750000e+01
3.750000e+01
3.750000e+01
3.750000e+01
3.750000e+01
3.750000e+01
3.750000e+01
3.750000e+01
3.750000e+01
3.750000e+01
3.750000e+01
3.750000e+01
3.750000e+01
3.750000e+01
3.750000e+01
5.000000e+01
5.000000e+01
5.000000e+01
5.000000e+01
5.000000e+01
5.000000e+01
5.000000e+01
5.000000e+01
5.000000e+01
5.000000e+01
5.000000e+01
5.000000e+01
5.000000e+01
5.000000e+01
5.000000e+01
5.000000e+01
5.000000e+01
6.250000e+01
6.250000e+01
6.250000e+01
6.250000e+01
6.250000e+01
6.250000e+01
6.250000e+01
6.250000e+01
6.250000e+01
6.250000e+01
6.250000e+01
6.250000e+01
6.250000e+01
6.250000e+01
6.250000e+01
6.250000e+01
6.250000e+01
7.500000e+01
7.500000e+01
7.500000e+01
7.500000e+01
7.500000e+01
7.500000e+01
7.500000e+01
7.500000e+01
7.500000e+01
7.500000e+01
7.500000e+01
7.500000e+01
7.500000e+01
7.500000e+01
7.500000e+01
7.500000e+01
7.500000e+01
8.750000e+01
8.750000e+01
8.750000e+01
8.750000e+01
8.750000e+01
8.750000e+01
8.750000e+01
8.750000e+01
8.750000e+01
8.750000e+01
8.750000e+01
8.750000e+01
8.750000e+01
8.750000e+01
8.750000e+01
8.750000e+01
8.750000e+01
1.000000e+02
1.000000e+02
1.000000e+02
1.000000e+02
1.000000e+02
1.000000e+02
1.000000e+02
1.000000e+02
1.000000e+02
1.000000e+02
1.000000e+02
1.000000e+02
1.000000e+02
1.000000e+02
1.000000e+02
1.000000e+02
1.000000e+02
0.000000e+00
-4.265992e-01
-7.855209e-01
-1.115824e+00
-1.423515e+00
-1.707950e+00
-1.968503e+00
-2.204949e+00
-2.417614e+00
-2.607457e+00
-2.776345e+00
-2.927563e+00
-3.066776e+00
-3.203778e+00
-3.355463e+00
-3.541692e+00
-3.681412e+00
0.000000e+00
-2.547137e-01
-5.291419e-01
-7.826031e-01
-1.016194e+00
-1.230801e+00
-1.426852e+00
-1.604592e+00
-1.764325e+00
-1.906529e+00
-2.031913e+00
-2.141370e+00
-2.235588e+00
-2.313583e+00
-2.368593e+00
-2.380652e+00
-2.423859e+00
0.000000e+00
-1.592573e-01
-3.274927e-01
-4.953780e-01
-6.521528e-01
-7.961512e-01
-9.272424e-01
-1.045561e+00
-1.151125e+00
-1.243747e+00
-1.322921e+00
-1.387531e+00
-1.435266e+00
-1.461919e+00
-1.462668e+00
-1.452032e+00
-1.496099e+00
0.000000e+00
-7.685248e-02
-1.582234e-01
-2.401387e-01
-3.184993e-01
-3.907044e-01
-4.561757e-01
-5.147151e-01
-5.659807e-01
-6.092995e-01
-6.435587e-01
-6.671361e-01
-6.780969e-01
-6.755362e-01
-6.650146e-01
-6.678884e-01
-7.007050e-01
0.000000e+00
-7.122757e-05
-1.619309e-04
-2.524069e-04
-3.006866e-04
-2.131278e-04
1.961910e-04
1.260938e-03
3.528599e-03
7.814768e-03
1.518363e-02
2.670446e-02
4.266677e-02
6.070681e-02
7.317102e-02
6.976030e-02
4.802885e-02
0.000000e+00
7.674295e-02
1.579691e-01
2.397318e-01
3.179928e-01
3.902914e-01
4.563316e-01
5.164299e-01
5.711018e-01
6.209767e-01
6.667028e-01
7.086146e-01
7.459812e-01
7.759497e-01
7.935820e-01
7.949845e-01
7.839523e-01
0.000000e+00
1.592395e-01
3.274380e-01
4.952692e-01
6.519826e-01
7.959390e-01
9.270662e-01
1.045617e+00
1.151826e+00
1.245871e+00
1.327826e+00
1.397483e+00
1.454031e+00
1.495846e+00
1.520948e+00
1.529099e+00
1.526526e+00
0.000000e+00
2.548187e-01
5.293701e-01
7.829667e-01
1.016681e+00
1.231322e+00
1.427144e+00
1.604056e+00
1.761772e+00
1.899822e+00
2.017535e+00
2.114087e+00
2.188691e+00
2.241092e+00
2.272354e+00
2.285687e+00
2.288136e+00
0.000000e+00
4.267747e-01
7.859837e-01
1.116691e+00
1.424898e+00
1.709895e+00
1.970822e+00
2.206899e+00
2.417314e+00
2.600954e+00
2.756208e+00
2.880988e+00
2.973227e+00
3.032188e+00
3.060706e+00
3.067747e+00
3.067611e+00
0.000000e+00
-2.582482e-01
-5.070432e-01
-8.294517e-01
-1.225162e+00
-1.693443e+00
-2.229185e+00
-2.826408e+00
-3.478774e+00
-4.180024e+00
-4.924374e+00
-5.707218e+00
-6.526671e+00
-7.387108e+00
-8.310872e+00
-9.367954e+00
-1.088713e+01
0.000000e+00
-1.589881e-01
-4.185153e-01
-7.449001e-01
-1.147050e+00
-1.621696e+00
-2.163909e+00
-2.767560e+00
-3.426239e+00
-4.133572e+00
-4.883614e+00
-5.671547e+00
-6.495193e+00
-7.358818e+00
-8.282231e+00
-9.332903e+00
-1.062024e+01
0.000000e+00
-1.199877e-01
-3.571535e-01
-6.847252e-01
-1.090654e+00
-1.570167e+00
-2.117348e+00
-2.726013e+00
-3.389790e+00
-4.102400e+00
-4.858009e+00
-5.651967e+00
-6.482302e+00
-7.352579e+00
-8.276794e+00
-9.272301e+00
-1.023569e+01
0.000000e+00
-1.034305e-01
-3.266586e-01
-6.494092e-01
-1.056790e+00
-1.539242e+00
-2.089826e+00
-2.702121e+00
-3.369876e+00
-4.086981e+00
-4.847730e+00
-5.647379e+00
-6.483022e+00
-7.354262e+00
-8.259970e+00
-9.174626e+00
-1.001714e+01
0.000000e+00
-9.866911e-02
-3.174343e-01
-6.381451e-01
-1.045631e+00
-1.529280e+00
-2.081445e+00
-2.695711e+00
-3.365946e+00
-4.086140e+00
-4.850458e+00
-5.653407e+00
-6.489794e+00
-7.353441e+00
-8.231396e+00
-9.093585e+00
-9.887765e+00
0.000000e+00
-1.033688e-01
-3.266147e-01
-6.494872e-01
-1.057173e+00
-1.540251e+00
-2.091983e+00
-2.706206e+00
-3.376920e+00
-4.098082e+00
-4.863482e+00
-5.666469e+00
-6.499270e+00
-7.351270e+00
-8.206073e+00
-9.038654e+00
-9.815851e+00
0.000000e+00
-1.198871e-01
-3.570808e-01
-6.848553e-01
-1.091300e+00
-1.571873e+00
-2.121006e+00
-2.732949e+00
-3.401765e+00
-4.121308e+00
-4.884947e+00
-5.685010e+00
-6.511847e+00
-7.352666e+00
-8.190873e+00
-9.007448e+00
-9.784125e+00
0.000000e+00
-1.588939e-01
-4.184521e-01
-7.450730e-01
-1.147824e+00
-1.623703e+00
-2.168166e+00
-2.775577e+00
-3.439993e+00
-4.155157e+00
-4.914165e+00
-5.708797e+00
-6.528581e+00
-7.360026e+00
-8.187064e+00
-8.994543e+00
-9.776676e+00
0.000000e+00
-2.582093e-01
-5.070487e-01
-8.297190e-01
-1.226060e+00
-1.695588e+00
-2.233541e+00
-2.834355e+00
-3.492022e+00
-4.200175e+00
-4.951746e+00
-5.738332e+00
-6.549388e+00
-7.371723e+00
-8.190300e+00
-8.992182e+00
-9.776793e+00


0.000000e+00
-2.075222e-08
-4.190625e-08
-5.570667e-08
-6.185664e-08
-6.272786e-08
-6.070217e-08
-5.750863e-08
-5.418909e-08
-5.127544e-08
-4.895998e-08
-4.722940e-08
-4.595852e-08
-4.497504e-08
-4.409435e-08
-4.308717e-08
-4.195337e-08
0.000000e+00
-1.706616e-08
-3.606329e-08
-4.610887e-08
-4.940867e-08
-4.873630e-08
-4.625657e-08
-4.329592e-08
-4.055022e-08
-3.832079e-08
-3.667658e-08
-3.556641e-08
-3.489663e-08
-3.454262e-08
-3.419068e-08
-3.335412e-08
-3.217774e-08
0.000000e+00
-1.217254e-08
-2.337541e-08
-2.969180e-08
-3.205855e-08
-3.179839e-08
-3.029136e-08
-2.844067e-08
-2.673798e-08
-2.539810e-08
-2.447059e-08
-2.391805e-08
-2.365614e-08
-2.354105e-08
-2.331063e-08
-2.266021e-08
-2.168977e-08
0.000000e+00
-5.403219e-09
-9.628244e-09
-1.291080e-08
-1.458955e-08
-1.497372e-08
-1.461070e-08
-1.395324e-08
-1.328785e-08
-1.275855e-08
-1.241197e-08
-1.223153e-08
-1.215414e-08
-1.207950e-08
-1.189700e-08
-1.148811e-08
-1.085735e-08
0.000000e+00
1.560080e-11
2.814520e-11
3.626007e-11
3.844316e-11
3.218632e-11
1.451852e-11
-1.789736e-11
-6.793619e-11
-1.358586e-10
-2.154421e-10
-2.888395e-10
-3.247698e-10
-2.921600e-10
-1.813858e-10
3.082175e-11
3.841839e-10
0.000000e+00
5.438089e-09
9.692694e-09
1.299860e-08
1.468964e-08
1.507065e-08
1.468434e-08
1.397876e-08
1.323626e-08
1.259938e-08
1.212028e-08
1.180258e-08
1.162731e-08
1.156120e-08
1.156082e-08
1.162096e-08
1.177935e-08
0.000000e+00
1.221211e-08
2.346198e-08
2.981878e-08
3.221478e-08
3.196783e-08
3.045619e-08
2.858388e-08
2.684526e-08
2.545725e-08
2.446746e-08
2.383106e-08
2.346211e-08
2.326689e-08
2.316823e-08
2.313922e-08
2.318515e-08
0.000000e+00
1.710441e-08
3.616621e-08
4.626863e-08
4.961175e-08
4.896491e-08
4.649417e-08
4.353294e-08
4.078831e-08
3.857245e-08
3.695752e-08
3.588042e-08
3.521738e-08
3.483643e-08
3.463116e-08
3.453981e-08
3.452747e-08
0.000000e+00
2.079132e-08
4.200393e-08
5.586178e-08
6.205879e-08
6.296422e-08
6.096361e-08
5.779549e-08
5.451519e-08
5.166892e-08
4.946155e-08
4.789288e-08
4.686176e-08
4.623908e-08
4.591050e-08
4.578508e-08
4.576338e-08
0.000000e+00
-1.813875e-08
-2.758008e-08
-3.547010e-08
-4.524062e-08
-5.698012e-08
-6.979014e-08
-8.284321e-08
-9.565474e-08
-1.080343e-07
-1.199535e-07
-1.314448e-07
-1.425091e-07
-1.529545e-07
-1.621803e-07
-1.700126e-07
-1.776168e-07
0.000000e+00
-8.236791e-09
-1.938069e-08
-3.091822e-08
-4.381962e-08
-5.742667e-08
-7.109006e-08
-8.434759e-08
-9.702483e-08
-1.091294e-07
-1.207514e-07
-1.319860e-07
-1.428717e-07
-1.533209e-07
-1.630220e-07
-1.715022e-07
-1.794762e-07
0.000000e+00
-3.044061e-09
-1.383357e-08
-2.804027e-08
-4.308749e-08
-5.800429e-08
-7.221891e-08
-8.556229e-08
-9.808433e-08
-1.099400e-07
-1.213056e-07
-1.323237e-07
-1.430778e-07
-1.536088e-07
-1.638468e-07
-1.731094e-07
-1.817276e-07
0.000000e+00
-2.015052e-09
-1.212046e-08
-2.675024e-08
-4.261691e-08
-5.814583e-08
-7.267724e-08
-8.610453e-08
-9.857191e-08
-1.103095e-07
-1.215446e-07
-1.324581e-07
-1.431799e-07
-1.538225e-07
-1.643844e-07
-1.743203e-07
-1.837901e-07
0.000000e+00
-2.007397e-09
-1.180400e-08
-2.627388e-08
-4.233730e-08
-5.806715e-08
-7.273150e-08
-8.621333e-08
-9.867909e-08
-1.103845e-07
-1.215799e-07
-1.324705e-07
-1.432129e-07
-1.539320e-07
-1.646640e-07
-1.750789e-07
-1.853403e-07
0.000000e+00
-2.009477e-09
-1.211233e-08
-2.674189e-08
-4.260928e-08
-5.813807e-08
-7.266516e-08
-8.608013e-08
-9.852507e-08
-1.102330e-07
-1.214436e-07
-1.323626e-07
-1.431512e-07
-1.539278e-07
-1.647433e-07
-1.754706e-07
-1.862678e-07
0.000000e+00
-3.038339e-09
-1.382510e-08
-2.803097e-08
-4.307743e-08
-5.799113e-08
-7.219454e-08
-8.551214e-08
-9.799016e-08
-1.097882e-07
-1.211030e-07
-1.321214e-07
-1.429982e-07
-1.538475e-07
-1.647319e-07
-1.756441e-07
-1.867097e-07
0.000000e+00
-8.246480e-09
-1.939345e-08
-3.092670e-08
-4.382066e-08
-5.741525e-08
-7.105662e-08
-8.427693e-08
-9.689885e-08
-1.089351e-07
-1.204971e-07
-1.317286e-07
-1.427682e-07
-1.537294e-07
-1.646917e-07
-1.757080e-07
-1.868588e-07
0.000000e+00
-1.817828e-08
-2.762832e-08
-3.551003e-08
-4.526335e-08
-5.697831e-08
-6.975579e-08
-8.276644e-08
-9.552536e-08
-1.078476e-07
-1.197233e-07
-1.312303e-07
-1.424795e-07
-1.535820e-07
-1.646325e-07
-1.757123e-07
-1.868818e-07


1.245914e+00
1.246001e+00
1.246260e+00
1.246686e+00
1.247180e+00
1.247662e+00
1.248111e+00
1.248527e+00
1.248911e+00
1.249263e+00
1.249575e+00
1.249833e+00
1.249971e+00
1.249828e+00
1.249438e+00
1.249147e+00
1.246478e+00
1.246506e+00
1.246724e+00
1.247139e+00
1.247605e+00
1.248046e+00
1.248446e+00
1.248811e+00
1.249144e+00
1.249444e+00
1.249707e+00
1.249914e+00
1.250001e+00
1.249811e+00
1.249408e+00
1.249123e+00
1.247827e+00
1.247758e+00
1.247858e+00
1.248153e+00
1.248489e+00
1.248803e+00
1.249084e+00
1.249333e+00
1.249553e+00
1.249746e+00
1.249906e+00
1.250020e+00
1.250034e+00
1.249836e+00
1.249496e+00
1.249279e+00
1.249067e+00
1.248941e+00
1.248911e+00
1.249047e+00
1.249231e+00
1.249414e+00
1.249575e+00
1.249713e+00
1.249829e+00
1.249922e+00
1.249992e+00
1.250033e+00
1.250021e+00
1.249900e+00
1.249722e+00
1.249626e+00
1.249066e+00
1.248941e+00
1.248910e+00
1.249044e+00
1.249226e+00
1.249404e+00
1.249559e+00
1.249687e+00
1.249790e+00
1.249869e+00
1.249930e+00
1.249975e+00
1.250005e+00
1.250001e+00
1.249992e+00
1.250007e+00
1.247826e+00
1.247757e+00
1.247855e+00
1.248148e+00
1.248480e+00
1.248786e+00
1.249055e+00
1.249285e+00
1.249482e+00
1.249650e+00
1.249793e+00
1.249921e+00
1.250041e+00
1.250149e+00
1.250252e+00
1.250328e+00
1.246479e+00
1.246505e+00
1.246722e+00
1.247135e+00
1.247600e+00
1.248036e+00
1.248432e+00
1.248790e+00
1.249115e+00
1.249408e+00
1.249673e+00
1.249910e+00
1.250123e+00
1.250309e+00
1.250460e+00
1.250549e+00
1.245915e+00
1.246003e+00
1.246260e+00
1.246684e+00
1.247177e+00
1.247660e+00
1.248112e+00
1.248534e+00
1.248930e+00
1.249299e+00
1.249636e+00
1.249939e+00
1.250201e+00
1.250416e+00
1.250574e+00
1.250661e+00


5.906116e-01
6.486252e-01
7.022420e-01
7.434488e-01
7.817070e-01
8.170244e-01
8.492414e-01
8.779685e-01
9.028919e-01
9.237553e-01
9.403577e-01
9.525283e-01
9.601018e-01
9.628188e-01
9.647921e-01
8.446424e-01
8.451685e-01
8.185287e-01
8.355793e-01
8.578297e-01
8.785858e-01
8.974746e-01
9.145968e-01
9.301245e-01
9.441997e-01
9.569626e-01
9.685539e-01
9.790594e-01
9.882325e-01
9.942443e-01
9.790704e-01
7.733674e-01
9.462091e-01
9.309019e-01
9.267335e-01
9.324887e-01
9.400855e-01
9.474576e-01
9.543128e-01
9.608002e-01
9.670926e-01
9.732355e-01
9.789777e-01
9.834269e-01
9.843556e-01
9.763397e-01
9.472687e-01
8.949897e-01
9.890349e-01
9.778655e-01
9.709546e-01
9.691861e-01
9.698679e-01
9.710277e-01
9.721886e-01
9.733261e-01
9.744442e-01
9.753809e-01
9.756384e-01
9.742323e-01
9.697806e-01
9.617968e-01
9.550339e-01
9.533287e-01
9.890760e-01
9.779241e-01
9.710070e-01
9.691757e-01
9.696944e-01
9.705264e-01
9.711020e-01
9.712900e-01
9.710112e-01
9.701368e-01
9.685151e-01
9.661812e-01
9.639597e-01
9.643987e-01
9.706682e-01
9.815205e-01
9.462865e-01
9.310191e-01
9.268461e-01
9.324903e-01
9.397886e-01
9.465397e-01
9.522575e-01
9.568568e-01
9.603020e-01
9.626209e-01
9.640856e-01
9.655209e-01
9.685495e-01
9.749090e-01
9.844667e-01
9.943508e-01
8.451538e-01
8.185178e-01
8.355560e-01
8.577660e-01
8.784224e-01
8.971008e-01
9.138218e-01
9.286444e-01
9.415734e-01
9.526353e-01
9.620083e-01
9.702018e-01
9.780992e-01
9.863846e-01
9.941355e-01
9.990184e-01
5.903309e-01
6.481864e-01
7.017046e-01
7.428464e-01
7.811659e-01
8.168283e-01
8.499109e-01
8.803259e-01
9.080702e-01
9.330815e-01
9.550535e-01
9.732950e-01
9.868739e-01
9.952556e-01
9.990700e-01
9.999803e-01
1 2 19 18
2 3 20 19
3 4 21 20
4 5 22 21
5 6 23 22
6 7 24 23
7 8 25 24
8 9 26 25
9 10 27 26
10 11 28 27
11 12 29 28
12 13 30 29
13 14 31 30
14 15 32 31
15 16 33 32
16 17 34 33
18 19 36 35
19 20 37 36
20 21 38 37
21 22 39 38
22 23 40 39
23 24 41 40
24 25 42 41
25 26 43 42
26 27 44 43
27 28 45 44
28 29 46 45
29 30 47 46
30 31 48 47
31 32 49 48
32 33 50 49
33 34 51 50
35 36 53 52
36 37 54 53
37 38 55 54
38 39 56 55
39 40 57 56
40 41 58 57
41 42 59 58
42 43 60 59
43 44 61 60
44 45 62 61
45 46 63 62
46 47 64 63
47 48 65 64
48 49 66 65
49 50 67 66
50 51 68 67
52 53 70 69
53 54 71 70
54 55 72 71
55 56 73 72
56 57 74 73
57 58 75 74
58 59 76 75
59 60 77 76
60 61 78 77
61 62 79 78
62 63 80 79
63 64 81 80
64 65 82 81
65 66 83 82
66 67 84 83
67 68 85 84
69 70 87 86
70 71 88 87
71 72 89 88
72 73 90 89
73 74 91 90
74 75 92 91
75 76 93 92
76 77 94 93
77 78 95 94
78 79 96 95
79 80 97 96
80 81 98 97
81 82 99 98
82 83 100 99
83 84 101 100
84 85 102 101
86 87 104 103
87 88 105 104
88 89 106 105
89 90 107 106
90 91 108 107
91 92 109 108
92 93 110 109
93 94 111 110
94 95 112 111
95 96 113 112
96 97 114 113
97 98 115 114
98 99 116 115
99 100 117 116
100 101 118 117
101 102 119 118
103 104 121 120
104 105 122 121
105 106 123 122
106 107 124 123
107 108 125 124
108 109 126 125
109 110 127 126
110 111 128 127
111 112 129 128
112 113 130 129
113 114 131 130
114 115 132 131
115 116 133 132
116 117 134 133
117 118 135 134
118 119 136 135
120 121 138 137
121 122 139 138
122 123 140 139
123 124 141 140
124 125 142 141
125 126 143 142
126 127 144 143
127 128 145 144
128 129 146 145
129 130 147 146
130 131 148 147
131 132 149 148
132 133 150 149
133 134 151 150
134 135 152 151
135 136 153 152
