TITLE = "Solution"
VARIABLES = x, y, u, v, psiu, psiv, t, stress
ZONE T="structure" N=153 E=128 F=FEBLOCK ET=QUADRILATERAL VARLOCATION=([7,8]=cellcentered)
0.000000e+00
1.250000e+01
2.500000e+01
3.750000e+01
5.000000e+01
6.250000e+01
7.500000e+01
8.750000e+01
1.000000e+02
1.125000e+02
1.250000e+02
1.375000e+02
1.500000e+02
1.625000e+02
1.750000e+02
1.875000e+02
2.000000e+02
0.000000e+00
1.250000e+01
2.500000e+01
3.750000e+01
5.000000e+01
6.250000e+01
7.500000e+01
8.750000e+01
1.000000e+02
1.125000e+02
1.250000e+02
1.375000e+02
1.500000e+02
1.625000e+02
1.750000e+02
1.875000e+02
2.000000e+02
0.000000e+00
1.250000e+01
2.500000e+01
3.750000e+01
5.000000e+01
6.250000e+01
7.500000e+01
8.750000e+01
1.000000e+02
1.125000e+02
1.250000e+02
1.375000e+02
1.500000e+02
1.625000e+02
1.750000e+02
1.875000e+02
2.000000e+02
0.000000e+00
1.250000e+01
2.500000e+01
3.750000e+01
5.000000e+01
6.250000e+01
7.500000e+01
8.750000e+01
1.000000e+02
1.125000e+02
1.250000e+02
1.375000e+02
1.500000e+02
1.625000e+02
1.750000e+02
1.875000e+02
2.000000e+02
0.000000e+00
1.250000e+01
2.500000e+01
3.750000e+01
5.000000e+01
6.250000e+01
7.500000e+01
8.750000e+01
1.000000e+02
1.125000e+02
1.250000e+02
1.375000e+02
1.500000e+02
1.625000e+02
1.750000e+02
1.875000e+02
2.000000e+02
0.000000e+00
1.250000e+01
2.500000e+01
3.750000e+01
5.000000e+01
6.250000e+01
7.500000e+01
8.750000e+01
1.000000e+02
1.125000e+02
1.250000e+02
1.375000e+02
1.500000e+02
1.625000e+02
1.750000e+02
1.875000e+02
2.000000e+02
0.000000e+00
1.250000e+01
2.500000e+01
3.750000e+01
5.000000e+01
6.250000e+01
7.500000e+01
8.750000e+01
1.000000e+02
1.125000e+02
1.250000e+02
1.375000e+02
1.500000e+02
1.625000e+02
1.750000e+02
1.875000e+02
2.000000e+02
0.000000e+00
1.250000e+01
2.500000e+01
3.750000e+01
5.000000e+01
6.250000e+01
7.500000e+01
8.750000e+01
1.000000e+02
1.125000e+02
1.250000e+02
1.375000e+02
1.500000e+02
1.625000e+02
1.750000e+02
1.875000e+02
2.000000e+02
0.000000e+00
1.250000e+01
2.500000e+01
3.750000e+01
5.000000e+01
6.250000e+01
7.500000e+01
8.750000e+01
1.000000e+02
1.125000e+02
1.250000e+02
1.375000e+02
1.500000e+02
1.625000e+02
1.750000e+02
1.875000e+02
2.000000e+02
0.000000e+00
0.000000e+00
0.000000e+00
0.000000e+00
0.000000e+00
0.000000e+00
0.000000e+00
0.000000e+00
0.000000e+00
0.000000e+00
0.000000e+00
0.000000e+00
0.000000e+00
0.000000e+00
0.000000e+00
0.000000e+00
0.000000e+00
1.250000e+01
1.250000e+01
1.250000e+01
1.250000e+01
1.250000e+01
1.250000e+01
1.250000e+01
1.250000e+01
1.250000e+01
1.250000e+01
1.250000e+01
1.250000e+01
1.250000e+01
1.250000e+01
1.250000e+01
1.250000e+01
1.250000e+01
2.500000e+01
2.500000e+01
2.500000e+01
2.500000e+01
2.500000e+01
2.500000e+01
2.500000e+01
2.500000e+01
2.500000e+01
2.500000e+01
2.500000e+01
2.500000e+01
2.500000e+01
2.500000e+01
2.500000e+01
2.500000e+01
2.500000e+01
3.750000e+01
3.750000e+01
3.750000e+01
3.750000e+01
3.750000e+01
3.750000e+01
3.750000e+01
3.750000e+01
3.750000e+01
3.750000e+01
3.750000e+01
3.750000e+01
3.750000e+01
3.750000e+01
3.750000e+01
3.750000e+01
3.750000e+01
5.000000e+01
5.000000e+01
5.000000e+01
5.000000e+01
5.000000e+01
5.000000e+01
5.000000e+01
5.000000e+01
5.000000e+01
5.000000e+01
5.000000e+01
5.000000e+01
5.000000e+01
5.000000e+01
5.000000e+01
5.000000e+01
5.000000e+01
6.250000e+01
6.250000e+01
6.250000e+01
6.250000e+01
6.250000e+01
6.250000e+01
6.250000e+01
6.250000e+01
6.250000e+01
6.250000e+01
6.250000e+01
6.250000e+01
6.250000e+01
6.250000e+01
6.250000e+01
6.250000e+01
6.250000e+01
7.500000e+01
7.500000e+01
7.500000e+01
7.500000e+01
7.500000e+01
7.500000e+01
7.500000e+01
7.500000e+01
7.500000e+01
7.500000e+01
7.500000e+01
7.500000e+01
7.500000e+01
7.500000e+01
7.500000e+01
7.500000e+01
7.500000e+01
8.750000e+01
8.750000e+01
8.750000e+01
8.750000e+01
8.750000e+01
8.750000e+01
8.750000e+01
8.750000e+01
8.750000e+01
8.750000e+01
8.750000e+01
8.750000e+01
8.750000e+01
8.750000e+01
8.750000e+01
8.750000e+01
8.750000e+01
1.000000e+02
1.000000e+02
1.000000e+02
1.000000e+02
1.000000e+02
1.000000e+02
1.000000e+02
1.000000e+02
1.000000e+02
1.000000e+02
1.000000e+02
1.000000e+02
1.000000e+02
1.000000e+02
1.000000e+02
1.000000e+02
1.000000e+02
0.000000e+00
-7.442168e-02
-1.335879e-01
-1.857404e-01
-2.357715e-01
-2.835492e-01
-3.271445e-01
-3.663136e-01
-4.020403e-01
-4.340160e-01
-4.621110e-01
-4.872461e-01
-5.108120e-01
-5.346264e-01
-5.611967e-01
-5.935219e-01
-6.181729e-01
0.000000e+00
-4.416257e-02
-8.919953e-02
-1.290535e-01
-1.664254e-01
-2.019282e-01
-2.343136e-01
-2.635615e-01
-2.902794e-01
-3.141770e-01
-3.350172e-01
-3.531988e-01
-3.691004e-01
-3.825907e-01
-3.921648e-01
-3.942200e-01
-4.017713e-01
0.000000e+00
-2.636041e-02
-5.348982e-02
-7.986677e-02
-1.045580e-01
-1.277215e-01
-1.489563e-01
-1.682769e-01
-1.857495e-01
-2.011078e-01
-2.141645e-01
-2.248758e-01
-2.328797e-01
-2.373925e-01
-2.374751e-01
-2.356156e-01
-2.433538e-01
0.000000e+00
-1.175454e-02
-2.402994e-02
-3.624816e-02
-4.796971e-02
-5.890437e-02
-6.900619e-02
-7.817621e-02
-8.630154e-02
-9.317102e-02
-9.859795e-02
-1.023568e-01
-1.040868e-01
-1.035898e-01
-1.017703e-01
-1.022786e-01
-1.079718e-01
0.000000e+00
1.368336e-03
2.859599e-03
4.324766e-03
5.698677e-03
6.974901e-03
8.190568e-03
9.340686e-03
1.047652e-02
1.175456e-02
1.339140e-02
1.562819e-02
1.853967e-02
2.172320e-02
2.389863e-02
2.334741e-02
1.963428e-02
0.000000e+00
1.423689e-02
2.917047e-02
4.409783e-02
5.877387e-02
7.272063e-02
8.553011e-02
9.705045e-02
1.072875e-01
1.163136e-01
1.243677e-01
1.316966e-01
1.382546e-01
1.435158e-01
1.466420e-01
1.469506e-01
1.450466e-01
0.000000e+00
2.809438e-02
5.716298e-02
8.590531e-02
1.139565e-01
1.411235e-01
1.657542e-01
1.875326e-01
2.067048e-01
2.232821e-01
2.373250e-01
2.491563e-01
2.588314e-01
2.660404e-01
2.704354e-01
2.719008e-01
2.714409e-01
0.000000e+00
4.423364e-02
9.098805e-02
1.332845e-01
1.745039e-01
2.151106e-01
2.514469e-01
2.831471e-01
3.111532e-01
3.352798e-01
3.552284e-01
3.713543e-01
3.838874e-01
3.928040e-01
3.982393e-01
4.006118e-01
4.010481e-01
0.000000e+00
7.372141e-02
1.346057e-01
1.894072e-01
2.435788e-01
2.970395e-01
3.447064e-01
3.862446e-01
4.232277e-01
4.550415e-01
4.811923e-01
5.019428e-01
5.173996e-01
5.274749e-01
5.325169e-01
5.338255e-01
5.338162e-01
0.000000e+00
-4.389913e-02
-8.563013e-02
-1.400928e-01
-2.074775e-01
-2.875526e-01
-3.792755e-01
-4.817059e-01
-5.936681e-01
-7.137915e-01
-8.410250e-01
-9.747028e-01
-1.114609e+00
-1.261565e+00
-1.419531e+00
-1.600878e+00
-1.863367e+00
0.000000e+00
-2.699627e-02
-7.139603e-02
-1.266091e-01
-1.946048e-01
-2.755601e-01
-3.684460e-01
-4.719122e-01
-5.848489e-01
-7.060408e-01
-8.342693e-01
-9.687431e-01
-1.109226e+00
-1.256635e+00
-1.414536e+00
-1.594732e+00
-1.816479e+00
0.000000e+00
-2.043588e-02
-6.138585e-02
-1.169177e-01
-1.854365e-01
-2.670605e-01
-3.607361e-01
-4.650374e-01
-5.788489e-01
-7.009327e-01
-8.300693e-01
-9.655236e-01
-1.107102e+00
-1.255602e+00
-1.413567e+00
-1.584031e+00
-1.748925e+00
0.000000e+00
-1.797125e-02
-5.646443e-02
-1.111680e-01
-1.799562e-01
-2.620004e-01
-3.562061e-01
-4.611955e-01
-5.757616e-01
-6.985884e-01
-8.285246e-01
-9.649015e-01
-1.107378e+00
-1.255964e+00
-1.410588e+00
-1.566852e+00
-1.710629e+00
0.000000e+00
-1.754928e-02
-5.520699e-02
-1.093936e-01
-1.781274e-01
-2.604062e-01
-3.549626e-01
-4.604159e-01
-5.754588e-01
-6.987971e-01
-8.292631e-01
-9.661310e-01
-1.108689e+00
-1.255876e+00
-1.405607e+00
-1.552846e+00
-1.688379e+00
0.000000e+00
-1.859125e-02
-5.706375e-02
-1.114270e-01
-1.800547e-01
-2.623819e-01
-3.570914e-01
-4.626025e-01
-5.777009e-01
-7.011688e-01
-8.317646e-01
-9.685511e-01
-1.110408e+00
-1.255508e+00
-1.401233e+00
-1.543408e+00
-1.675980e+00
0.000000e+00
-2.147456e-02
-6.238840e-02
-1.175805e-01
-1.859614e-01
-2.681037e-01
-3.625685e-01
-4.676252e-01
-5.822522e-01
-7.053656e-01
-8.356206e-01
-9.718313e-01
-1.112576e+00
-1.255711e+00
-1.398595e+00
-1.537977e+00
-1.670353e+00
0.000000e+00
-2.805729e-02
-7.275772e-02
-1.279513e-01
-1.960895e-01
-2.776706e-01
-3.712717e-01
-4.753511e-01
-5.890323e-01
-7.112641e-01
-8.406502e-01
-9.758921e-01
-1.115391e+00
-1.256938e+00
-1.397927e+00
-1.535689e+00
-1.668969e+00
0.000000e+00
-4.504741e-02
-8.754470e-02
-1.423549e-01
-2.103576e-01
-2.910708e-01
-3.830661e-01
-4.857503e-01
-5.981624e-01
-7.189810e-01
-8.469632e-01
-9.808356e-01
-1.118896e+00
-1.258950e+00
-1.398510e+00
-1.535270e+00
-1.668974e+00


0.000000e+00
-5.989266e-07
-1.962679e-07
1.338083e-06
2.197917e-06
2.410563e-06
2.506177e-06
2.614196e-06
2.721931e-06
2.817836e-06
2.895580e-06
2.954751e-06
2.996089e-06
3.021959e-06
3.038007e-06
3.050892e-06
3.063248e-06
0.000000e+00
-5.331803e-07
-2.727417e-08
1.334337e-06
2.118986e-06
2.119802e-06
2.143768e-06
2.219372e-06
2.299256e-06
2.369218e-06
2.426054e-06
2.469011e-06
2.497014e-06
2.512139e-06
2.521647e-06
2.533220e-06
2.546315e-06
0.000000e+00
-6.791245e-08
3.526619e-07
1.106204e-06
1.588005e-06
1.676838e-06
1.757813e-06
1.817276e-06
1.868157e-06
1.911935e-06
1.948061e-06
1.975584e-06
1.993694e-06
2.004800e-06
2.013727e-06
2.024152e-06
2.035555e-06
0.000000e+00
3.141339e-07
6.004673e-07
9.130916e-07
1.069604e-06
1.247197e-06
1.341271e-06
1.390927e-06
1.422753e-06
1.447591e-06
1.467314e-06
1.482586e-06
1.494987e-06
1.505148e-06
1.513616e-06
1.521658e-06
1.530045e-06
0.000000e+00
3.468420e-07
6.608360e-07
7.905337e-07
8.543320e-07
9.025501e-07
9.544015e-07
9.831742e-07
9.972084e-07
1.004511e-06
1.007315e-06
1.009234e-06
1.013326e-06
1.018451e-06
1.023031e-06
1.027608e-06
1.033280e-06
0.000000e+00
2.316698e-07
4.940545e-07
6.149023e-07
6.214970e-07
6.138503e-07
6.114713e-07
6.079348e-07
5.970781e-07
5.819718e-07
5.656833e-07
5.525050e-07
5.453330e-07
5.419531e-07
5.402076e-07
5.406275e-07
5.437294e-07
0.000000e+00
1.167049e-07
2.732328e-07
3.350521e-07
3.285078e-07
2.863720e-07
2.511591e-07
2.201514e-07
1.876417e-07
1.539067e-07
1.229643e-07
9.878490e-08
8.214848e-08
7.071172e-08
6.305805e-08
5.948619e-08
5.985357e-08
0.000000e+00
7.221369e-08
1.370143e-07
9.378866e-08
9.965403e-09
-8.393782e-08
-1.559032e-07
-2.095187e-07
-2.564202e-07
-2.997641e-07
-3.369130e-07
-3.651666e-07
-3.850147e-07
-3.994629e-07
-4.100610e-07
-4.165504e-07
-4.188870e-07
0.000000e+00
1.811859e-07
1.000078e-07
-8.874102e-08
-3.014891e-07
-4.750665e-07
-5.917288e-07
-6.724604e-07
-7.349558e-07
-7.844785e-07
-8.213779e-07
-8.464341e-07
-8.633428e-07
-8.765595e-07
-8.880198e-07
-8.965668e-07
-9.004992e-07
0.000000e+00
-1.313386e-07
3.297442e-07
6.190842e-07
4.842950e-07
5.345409e-07
9.034173e-07
1.328584e-06
1.776496e-06
2.249371e-06
2.739480e-06
3.238833e-06
3.742723e-06
4.254151e-06
4.780073e-06
5.318466e-06
5.857461e-06
0.000000e+00
-1.126086e-07
-2.354441e-07
-4.357828e-08
2.428097e-07
4.998104e-07
8.660742e-07
1.278061e-06
1.730399e-06
2.210785e-06
2.709605e-06
3.217434e-06
3.728820e-06
4.244351e-06
4.767824e-06
5.301436e-06
5.837604e-06
0.000000e+00
-1.454063e-07
-5.362793e-07
-4.534868e-07
1.214173e-08
4.516463e-07
8.187050e-07
1.235209e-06
1.694166e-06
2.182491e-06
2.689029e-06
3.203705e-06
3.719304e-06
4.235467e-06
4.754716e-06
5.282099e-06
5.812717e-06
0.000000e+00
-1.791691e-07
-5.530213e-07
-5.386831e-07
-1.200991e-07
3.425885e-07
7.630937e-07
1.202678e-06
1.673345e-06
2.168221e-06
2.680453e-06
3.199254e-06
3.714608e-06
4.227762e-06
4.743393e-06
5.265481e-06
5.788187e-06
0.000000e+00
-2.256040e-07
-5.356317e-07
-5.308839e-07
-1.786669e-07
2.613582e-07
7.150442e-07
1.178994e-06
1.662271e-06
2.162745e-06
2.679336e-06
3.200205e-06
3.712712e-06
4.221522e-06
4.733826e-06
5.251905e-06
5.767383e-06
0.000000e+00
-2.842820e-07
-5.534665e-07
-5.157735e-07
-1.885038e-07
2.375749e-07
6.935827e-07
1.170995e-06
1.663225e-06
2.168248e-06
2.686289e-06
3.205132e-06
3.713320e-06
4.217869e-06
4.726769e-06
5.241163e-06
5.751534e-06
0.000000e+00
-3.298069e-07
-5.606420e-07
-4.937333e-07
-1.785129e-07
2.399045e-07
6.986312e-07
1.179611e-06
1.676344e-06
2.184004e-06
2.699629e-06
3.212745e-06
3.716410e-06
4.217455e-06
4.722806e-06
5.233473e-06
5.739743e-06
0.000000e+00
-3.322034e-07
-5.390327e-07
-4.481481e-07
-1.523882e-07
2.631719e-07
7.182159e-07
1.197812e-06
1.695223e-06
2.203083e-06
2.714636e-06
3.221867e-06
3.721932e-06
4.220304e-06
4.722224e-06
5.229098e-06
5.731897e-06
0.000000e+00
-3.401681e-07
-4.871382e-07
-3.851463e-07
-9.142875e-08
3.063040e-07
7.487051e-07
1.220972e-06
1.715270e-06
2.220536e-06
2.727920e-06
3.230866e-06
3.728348e-06
4.224813e-06
4.724187e-06
5.227874e-06
5.728577e-06


2.136626e-01
1.993907e-01
1.886787e-01
1.927665e-01
1.987751e-01
1.983653e-01
1.976090e-01
2.021763e-01
2.042644e-01
2.029624e-01
2.040105e-01
2.089543e-01
2.155558e-01
2.178496e-01
2.165217e-01
2.208494e-01
2.107623e-01
2.038609e-01
1.972835e-01
1.986902e-01
2.039060e-01
2.040812e-01
2.049975e-01
2.085421e-01
2.092036e-01
2.074415e-01
2.080519e-01
2.113598e-01
2.163139e-01
2.187107e-01
2.196715e-01
2.206472e-01
2.159254e-01
2.115303e-01
2.063619e-01
2.065907e-01
2.099329e-01
2.128192e-01
2.150437e-01
2.170162e-01
2.162183e-01
2.141711e-01
2.141379e-01
2.149068e-01
2.164107e-01
2.184031e-01
2.189086e-01
2.203888e-01
2.238133e-01
2.190711e-01
2.137578e-01
2.132885e-01
2.170903e-01
2.206124e-01
2.228832e-01
2.232076e-01
2.206809e-01
2.181408e-01
2.175502e-01
2.172080e-01
2.157173e-01
2.151255e-01
2.160164e-01
2.171182e-01
2.255676e-01
2.221618e-01
2.184435e-01
2.212259e-01
2.256754e-01
2.278239e-01
2.282944e-01
2.259546e-01
2.219810e-01
2.177513e-01
2.169891e-01
2.168378e-01
2.146705e-01
2.136323e-01
2.159768e-01
2.182726e-01
2.244493e-01
2.214380e-01
2.187667e-01
2.266973e-01
2.356679e-01
2.352575e-01
2.307445e-01
2.270350e-01
2.209279e-01
2.151360e-01
2.133343e-01
2.139697e-01
2.136843e-01
2.158519e-01
2.208926e-01
2.241467e-01
2.234971e-01
2.194182e-01
2.169433e-01
2.289611e-01
2.424828e-01
2.380792e-01
2.301662e-01
2.258292e-01
2.208625e-01
2.134453e-01
2.104493e-01
2.118733e-01
2.147134e-01
2.204849e-01
2.270355e-01
2.300567e-01
2.201383e-01
2.183870e-01
2.147899e-01
2.292181e-01
2.439590e-01
2.371372e-01
2.268254e-01
2.252771e-01
2.212293e-01
2.138970e-01
2.104155e-01
2.124603e-01
2.173005e-01
2.242824e-01
2.304039e-01
2.332940e-01


9.876700e-01
9.904952e-01
9.925932e-01
9.933070e-01
9.939229e-01
9.949303e-01
9.958787e-01
9.965644e-01
9.972481e-01
9.978891e-01
9.983511e-01
9.986421e-01
9.987995e-01
9.988635e-01
9.989410e-01
9.951827e-01
9.955452e-01
9.951903e-01
9.959248e-01
9.963883e-01
9.967287e-01
9.972111e-01
9.976604e-01
9.980248e-01
9.984124e-01
9.987972e-01
9.991188e-01
9.993975e-01
9.996478e-01
9.998227e-01
9.993473e-01
9.929813e-01
9.985795e-01
9.982141e-01
9.981814e-01
9.983085e-01
9.984171e-01
9.985508e-01
9.986995e-01
9.988532e-01
9.990345e-01
9.992227e-01
9.993855e-01
9.995071e-01
9.995261e-01
9.992737e-01
9.983712e-01
9.967618e-01
9.997168e-01
9.993982e-01
9.992366e-01
9.991804e-01
9.991415e-01
9.991237e-01
9.991366e-01
9.991655e-01
9.992099e-01
9.992558e-01
9.992707e-01
9.992309e-01
9.991035e-01
9.988618e-01
9.986481e-01
9.986107e-01
9.995892e-01
9.992465e-01
9.990743e-01
9.990142e-01
9.989912e-01
9.990047e-01
9.990424e-01
9.990775e-01
9.991015e-01
9.991064e-01
9.990694e-01
9.990015e-01
9.989437e-01
9.989527e-01
9.991248e-01
9.994508e-01
9.982525e-01
9.978321e-01
9.977527e-01
9.978025e-01
9.978920e-01
9.981438e-01
9.984131e-01
9.986245e-01
9.987929e-01
9.989134e-01
9.989675e-01
9.989988e-01
9.990820e-01
9.992545e-01
9.995254e-01
9.998252e-01
9.952406e-01
9.946409e-01
9.952900e-01
9.955114e-01
9.956856e-01
9.964511e-01
9.972012e-01
9.977462e-01
9.982264e-01
9.986416e-01
9.989312e-01
9.991478e-01
9.993604e-01
9.995881e-01
9.998147e-01
9.999680e-01
9.876941e-01
9.898514e-01
9.917441e-01
9.920251e-01
9.922622e-01
9.938113e-01
9.952793e-01
9.962739e-01
9.972240e-01
9.980928e-01
9.987516e-01
9.992470e-01
9.996175e-01
9.998543e-01
9.999697e-01
9.999993e-01
1 2 19 18
2 3 20 19
3 4 21 20
4 5 22 21
5 6 23 22
6 7 24 23
7 8 25 24
8 9 26 25
9 10 27 26
10 11 28 27
11 12 29 28
12 13 30 29
13 14 31 30
14 15 32 31
15 16 33 32
16 17 34 33
18 19 36 35
19 20 37 36
20 21 38 37
21 22 39 38
22 23 40 39
23 24 41 40
24 25 42 41
25 26 43 42
26 27 44 43
27 28 45 44
28 29 46 45
29 30 47 46
30 31 48 47
31 32 49 48
32 33 50 49
33 34 51 50
35 36 53 52
36 37 54 53
37 38 55 54
38 39 56 55
39 40 57 56
40 41 58 57
41 42 59 58
42 43 60 59
43 44 61 60
44 45 62 61
45 46 63 62
46 47 64 63
47 48 65 64
48 49 66 65
49 50 67 66
50 51 68 67
52 53 70 69
53 54 71 70
54 55 72 71
55 56 73 72
56 57 74 73
57 58 75 74
58 59 76 75
59 60 77 76
60 61 78 77
61 62 79 78
62 63 80 79
63 64 81 80
64 65 82 81
65 66 83 82
66 67 84 83
67 68 85 84
69 70 87 86
70 71 88 87
71 72 89 88
72 73 90 89
73 74 91 90
74 75 92 91
75 76 93 92
76 77 94 93
77 78 95 94
78 79 96 95
79 80 97 96
80 81 98 97
81 82 99 98
82 83 100 99
83 84 101 100
84 85 102 101
86 87 104 103
87 88 105 104
88 89 106 105
89 90 107 106
90 91 108 107
91 92 109 108
92 93 110 109
93 94 111 110
94 95 112 111
95 96 113 112
96 97 114 113
97 98 115 114
98 99 116 115
99 100 117 116
100 101 118 117
101 102 119 118
103 104 121 120
104 105 122 121
105 106 123 122
106 107 124 123
107 108 125 124
108 109 126 125
109 110 127 126
110 111 128 127
111 112 129 128
112 113 130 129
113 114 131 130
114 115 132 131
115 116 133 132
116 117 134 133
117 118 135 134
118 119 136 135
120 121 138 137
121 122 139 138
122 123 140 139
123 124 141 140
124 125 142 141
125 126 143 142
126 127 144 143
127 128 145 144
128 129 146 145
129 130 147 146
130 131 148 147
131 132 149 148
132 133 150 149
133 134 151 150
134 135 152 151
135 136 153 152
