TITLE = "Solution"
VARIABLES = x, y, u, v, psiu, psiv, t, stress
ZONE T="structure" N=153 E=128 F=FEBLOCK ET=QUADRILATERAL VARLOCATION=([7,8]=cellcentered)
0.000000e+00
1.250000e+01
2.500000e+01
3.750000e+01
5.000000e+01
6.250000e+01
7.500000e+01
8.750000e+01
1.000000e+02
1.125000e+02
1.250000e+02
1.375000e+02
1.500000e+02
1.625000e+02
1.750000e+02
1.875000e+02
2.000000e+02
0.000000e+00
1.250000e+01
2.500000e+01
3.750000e+01
5.000000e+01
6.250000e+01
7.500000e+01
8.750000e+01
1.000000e+02
1.125000e+02
1.250000e+02
1.375000e+02
1.500000e+02
1.625000e+02
1.750000e+02
1.875000e+02
2.000000e+02
0.000000e+00
1.250000e+01
2.500000e+01
3.750000e+01
5.000000e+01
6.250000e+01
7.500000e+01
8.750000e+01
1.000000e+02
1.125000e+02
1.250000e+02
1.375000e+02
1.500000e+02
1.625000e+02
1.750000e+02
1.875000e+02
2.000000e+02
0.000000e+00
1.250000e+01
2.500000e+01
3.750000e+01
5.000000e+01
6.250000e+01
7.500000e+01
8.750000e+01
1.000000e+02
1.125000e+02
1.250000e+02
1.375000e+02
1.500000e+02
1.625000e+02
1.750000e+02
1.875000e+02
2.000000e+02
0.000000e+00
1.250000e+01
2.500000e+01
3.750000e+01
5.000000e+01
6.250000e+01
7.500000e+01
8.750000e+01
1.000000e+02
1.125000e+02
1.250000e+02
1.375000e+02
1.500000e+02
1.625000e+02
1.750000e+02
1.875000e+02
2.000000e+02
0.000000e+00
1.250000e+01
2.500000e+01
3.750000e+01
5.000000e+01
6.250000e+01
7.500000e+01
8.750000e+01
1.000000e+02
1.125000e+02
1.250000e+02
1.375000e+02
1.500000e+02
1.625000e+02
1.750000e+02
1.875000e+02
2.000000e+02
0.000000e+00
1.250000e+01
2.500000e+01
3.750000e+01
5.000000e+01
6.250000e+01
7.500000e+01
8.750000e+01
1.000000e+02
1.125000e+02
1.250000e+02
1.375000e+02
1.500000e+02
1.625000e+02
1.750000e+02
1.875000e+02
2.000000e+02
0.000000e+00
1.250000e+01
2.500000e+01
3.750000e+01
5.000000e+01
6.250000e+01
7.500000e+01
8.750000e+01
1.000000e+02
1.125000e+02
1.250000e+02
1.375000e+02
1.500000e+02
1.625000e+02
1.750000e+02
1.875000e+02
2.000000e+02
0.000000e+00
1.250000e+01
2.500000e+01
3.750000e+01
5.000000e+01
6.250000e+01
7.500000e+01
8.750000e+01
1.000000e+02
1.125000e+02
1.250000e+02
1.375000e+02
1.500000e+02
1.625000e+02
1.750000e+02
1.875000e+02
2.000000e+02
0.000000e+00
0.000000e+00
0.000000e+00
0.000000e+00
0.000000e+00
0.000000e+00
0.000000e+00
0.000000e+00
0.000000e+00
0.000000e+00
0.000000e+00
0.000000e+00
0.000000e+00
0.000000e+00
0.000000e+00
0.000000e+00
0.000000e+00
1.250000e+01
1.250000e+01
1.250000e+01
1.250000e+01
1.250000e+01
1.250000e+01
1.250000e+01
1.250000e+01
1.250000e+01
1.250000e+01
1.250000e+01
1.250000e+01
1.250000e+01
1.250000e+01
1.250000e+01
1.250000e+01
1.250000e+01
2.500000e+01
2.500000e+01
2.500000e+01
2.500000e+01
2.500000e+01
2.500000e+01
2.500000e+01
2.500000e+01
2.500000e+01
2.500000e+01
2.500000e+01
2.500000e+01
2.500000e+01
2.500000e+01
2.500000e+01
2.500000e+01
2.500000e+01
3.750000e+01
3.750000e+01
3.750000e+01
3.750000e+01
3.750000e+01
3.750000e+01
3.750000e+01
3.750000e+01
3.750000e+01
3.750000e+01
3.750000e+01
3.750000e+01
3.750000e+01
3.750000e+01
3.750000e+01
3.750000e+01
3.750000e+01
5.000000e+01
5.000000e+01
5.000000e+01
5.000000e+01
5.000000e+01
5.000000e+01
5.000000e+01
5.000000e+01
5.000000e+01
5.000000e+01
5.000000e+01
5.000000e+01
5.000000e+01
5.000000e+01
5.000000e+01
5.000000e+01
5.000000e+01
6.250000e+01
6.250000e+01
6.250000e+01
6.250000e+01
6.250000e+01
6.250000e+01
6.250000e+01
6.250000e+01
6.250000e+01
6.250000e+01
6.250000e+01
6.250000e+01
6.250000e+01
6.250000e+01
6.250000e+01
6.250000e+01
6.250000e+01
7.500000e+01
7.500000e+01
7.500000e+01
7.500000e+01
7.500000e+01
7.500000e+01
7.500000e+01
7.500000e+01
7.500000e+01
7.500000e+01
7.500000e+01
7.500000e+01
7.500000e+01
7.500000e+01
7.500000e+01
7.500000e+01
7.500000e+01
8.750000e+01
8.750000e+01
8.750000e+01
8.750000e+01
8.750000e+01
8.750000e+01
8.750000e+01
8.750000e+01
8.750000e+01
8.750000e+01
8.750000e+01
8.750000e+01
8.750000e+01
8.750000e+01
8.750000e+01
8.750000e+01
8.750000e+01
1.000000e+02
1.000000e+02
1.000000e+02
1.000000e+02
1.000000e+02
1.000000e+02
1.000000e+02
1.000000e+02
1.000000e+02
1.000000e+02
1.000000e+02
1.000000e+02
1.000000e+02
1.000000e+02
1.000000e+02
1.000000e+02
1.000000e+02
0.000000e+00
-1.027489e+00
-1.691525e+00
-2.418583e+00
-3.109356e+00
-3.755314e+00
-4.424005e+00
-5.005579e+00
-5.657573e+00
-6.374274e+00
-7.056817e+00
-7.742168e+00
-8.459961e+00
-9.197564e+00
-1.001238e+01
-1.071836e+01
-1.116032e+01
0.000000e+00
-4.685909e-01
-9.245645e-01
-1.421260e+00
-1.943118e+00
-2.440113e+00
-2.952609e+00
-3.431077e+00
-3.932701e+00
-4.475795e+00
-4.975443e+00
-5.468948e+00
-5.972281e+00
-6.452168e+00
-6.828849e+00
-6.933051e+00
-7.102329e+00
0.000000e+00
-1.563060e-01
-3.647979e-01
-6.578859e-01
-1.009789e+00
-1.350262e+00
-1.722140e+00
-2.091756e+00
-2.446928e+00
-2.793993e+00
-3.107128e+00
-3.412617e+00
-3.691285e+00
-3.890567e+00
-3.955544e+00
-3.934898e+00
-4.084382e+00
0.000000e+00
-7.899431e-02
-1.645807e-01
-3.195149e-01
-4.681756e-01
-6.443934e-01
-8.299301e-01
-9.936683e-01
-1.154447e+00
-1.293376e+00
-1.432009e+00
-1.553935e+00
-1.628477e+00
-1.629882e+00
-1.565026e+00
-1.557062e+00
-1.694515e+00
0.000000e+00
-2.012652e-03
-4.272853e-03
-6.336802e-03
-7.466655e-03
-6.225346e-03
-6.266617e-04
1.154022e-02
3.212931e-02
6.260322e-02
1.064513e-01
1.714697e-01
2.644712e-01
3.797175e-01
4.714606e-01
4.794640e-01
3.766246e-01
0.000000e+00
7.566545e-02
1.584026e-01
3.101299e-01
4.568328e-01
6.339549e-01
8.258824e-01
1.006411e+00
1.198539e+00
1.388658e+00
1.607199e+00
1.842742e+00
2.069009e+00
2.262478e+00
2.391585e+00
2.417235e+00
2.356347e+00
0.000000e+00
1.548503e-01
3.623248e-01
6.542623e-01
1.004555e+00
1.343178e+00
1.714195e+00
2.086007e+00
2.450681e+00
2.822135e+00
3.178395e+00
3.540781e+00
3.874078e+00
4.137836e+00
4.307181e+00
4.367461e+00
4.351775e+00
0.000000e+00
4.684976e-01
9.244112e-01
1.420521e+00
1.941674e+00
2.437334e+00
2.946980e+00
3.421426e+00
3.914594e+00
4.445863e+00
4.934096e+00
5.397787e+00
5.816822e+00
6.139935e+00
6.344922e+00
6.436330e+00
6.453105e+00
0.000000e+00
1.028642e+00
1.693765e+00
2.421939e+00
3.114241e+00
3.762375e+00
4.431258e+00
5.010815e+00
5.651611e+00
6.340334e+00
6.976013e+00
7.564925e+00
8.073252e+00
8.432981e+00
8.621958e+00
8.673197e+00
8.673261e+00
0.000000e+00
-6.293568e-01
-1.365139e+00
-2.354599e+00
-3.519550e+00
-4.846347e+00
-6.336793e+00
-7.956112e+00
-9.735636e+00
-1.168011e+01
-1.378501e+01
-1.608420e+01
-1.858028e+01
-2.127430e+01
-2.420894e+01
-2.757502e+01
-3.253270e+01
0.000000e+00
-4.252571e-01
-1.202299e+00
-2.169711e+00
-3.345868e+00
-4.670694e+00
-6.168858e+00
-7.795824e+00
-9.555648e+00
-1.150050e+01
-1.361152e+01
-1.590920e+01
-1.840444e+01
-2.110593e+01
-2.408049e+01
-2.748520e+01
-3.153952e+01
0.000000e+00
-3.953084e-01
-1.098175e+00
-2.064067e+00
-3.220887e+00
-4.537581e+00
-6.042022e+00
-7.670118e+00
-9.441350e+00
-1.138681e+01
-1.350337e+01
-1.581081e+01
-1.832201e+01
-2.105308e+01
-2.406899e+01
-2.732120e+01
-3.037391e+01
0.000000e+00
-4.472506e-01
-1.083290e+00
-2.034308e+00
-3.153210e+00
-4.456046e+00
-5.961307e+00
-7.598826e+00
-9.396182e+00
-1.134015e+01
-1.346651e+01
-1.579316e+01
-1.832408e+01
-2.106212e+01
-2.401222e+01
-2.698339e+01
-2.956226e+01
0.000000e+00
-4.519538e-01
-1.101836e+00
-2.017596e+00
-3.139585e+00
-4.437641e+00
-5.934519e+00
-7.593999e+00
-9.398504e+00
-1.135285e+01
-1.348994e+01
-1.583333e+01
-1.836475e+01
-2.106766e+01
-2.387666e+01
-2.660984e+01
-2.893865e+01
0.000000e+00
-4.469955e-01
-1.084333e+00
-2.037659e+00
-3.160022e+00
-4.468230e+00
-5.981929e+00
-7.631563e+00
-9.443177e+00
-1.140418e+01
-1.355314e+01
-1.589986e+01
-1.841632e+01
-2.105797e+01
-2.374786e+01
-2.631900e+01
-2.854410e+01
0.000000e+00
-3.953507e-01
-1.100239e+00
-2.069560e+00
-3.231839e+00
-4.557527e+00
-6.075725e+00
-7.723335e+00
-9.518525e+00
-1.149415e+01
-1.364578e+01
-1.598471e+01
-1.847896e+01
-2.106544e+01
-2.366021e+01
-2.613315e+01
-2.834386e+01
0.000000e+00
-4.254517e-01
-1.204456e+00
-2.175352e+00
-3.357436e+00
-4.691949e+00
-6.205359e+00
-7.853703e+00
-9.641942e+00
-1.162394e+01
-1.377219e+01
-1.609684e+01
-1.856655e+01
-2.110910e+01
-2.363699e+01
-2.604869e+01
-2.828962e+01
0.000000e+00
-6.298204e-01
-1.367423e+00
-2.360402e+00
-3.531371e+00
-4.867823e+00
-6.373252e+00
-8.012958e+00
-9.819481e+00
-1.179923e+01
-1.393658e+01
-1.624504e+01
-1.868493e+01
-2.118284e+01
-2.365968e+01
-2.603281e+01
-2.828936e+01


0.000000e+00
1.372495e-05
2.419698e-05
3.721277e-05
5.150725e-05
6.526227e-05
7.977399e-05
9.350729e-05
1.089484e-04
1.238947e-04
1.355206e-04
1.450042e-04
1.522552e-04
1.568066e-04
1.600857e-04
1.638725e-04
1.689034e-04
0.000000e+00
9.561304e-06
1.916663e-05
2.899153e-05
4.076268e-05
5.167530e-05
6.260839e-05
7.392679e-05
8.594839e-05
9.661296e-05
1.039606e-04
1.096388e-04
1.132487e-04
1.136452e-04
1.131744e-04
1.169911e-04
1.226066e-04
0.000000e+00
7.790059e-06
1.496388e-05
2.176083e-05
3.033792e-05
3.787321e-05
4.540699e-05
5.329361e-05
6.036051e-05
6.566946e-05
6.920530e-05
7.173439e-05
7.279460e-05
7.215866e-05
7.197586e-05
7.520033e-05
8.037598e-05
0.000000e+00
4.445308e-06
7.126685e-06
1.138174e-05
1.518258e-05
1.891169e-05
2.292298e-05
2.648961e-05
2.945294e-05
3.136142e-05
3.253888e-05
3.292967e-05
3.273976e-05
3.281934e-05
3.380401e-05
3.667765e-05
4.107777e-05
0.000000e+00
-5.763413e-08
-1.287597e-07
-1.996722e-07
-2.714349e-07
-3.342939e-07
-3.851475e-07
-4.236692e-07
-5.241824e-07
-8.334196e-07
-1.536254e-06
-2.533767e-06
-3.388421e-06
-3.452647e-06
-2.481849e-06
-9.839323e-07
1.116618e-06
0.000000e+00
-4.551599e-06
-7.332324e-06
-1.171643e-05
-1.561803e-05
-1.944249e-05
-2.351606e-05
-2.710526e-05
-3.002573e-05
-3.194615e-05
-3.359042e-05
-3.514389e-05
-3.635525e-05
-3.700111e-05
-3.746840e-05
-3.780795e-05
-3.742227e-05
0.000000e+00
-7.847354e-06
-1.507173e-05
-2.192651e-05
-3.059044e-05
-3.820932e-05
-4.582117e-05
-5.371569e-05
-6.060660e-05
-6.543586e-05
-6.810519e-05
-6.960589e-05
-7.069413e-05
-7.172005e-05
-7.275860e-05
-7.364216e-05
-7.388194e-05
0.000000e+00
-9.577228e-06
-1.918329e-05
-2.899346e-05
-4.079806e-05
-5.176200e-05
-6.272323e-05
-7.406987e-05
-8.610661e-05
-9.662847e-05
-1.029010e-04
-1.062208e-04
-1.080002e-04
-1.092529e-04
-1.101272e-04
-1.105738e-04
-1.106984e-04
0.000000e+00
-1.372637e-05
-2.415322e-05
-3.708851e-05
-5.131902e-05
-6.502840e-05
-7.944081e-05
-9.312162e-05
-1.086056e-04
-1.237428e-04
-1.350080e-04
-1.422546e-04
-1.462770e-04
-1.479765e-04
-1.484335e-04
-1.483718e-04
-1.482942e-04
0.000000e+00
1.160061e-05
2.001350e-05
3.199209e-05
4.681897e-05
6.405727e-05
8.533987e-05
1.099910e-04
1.384706e-04
1.693093e-04
2.026320e-04
2.393036e-04
2.780386e-04
3.191963e-04
3.678521e-04
4.243840e-04
4.806481e-04
0.000000e+00
6.719458e-06
1.543725e-05
2.597802e-05
4.063826e-05
5.789957e-05
7.907087e-05
1.035881e-04
1.317078e-04
1.636874e-04
1.984435e-04
2.360869e-04
2.761823e-04
3.183430e-04
3.640974e-04
4.173348e-04
4.717901e-04
0.000000e+00
3.160409e-06
1.100449e-05
2.091675e-05
3.503455e-05
5.277111e-05
7.382078e-05
9.858370e-05
1.273567e-04
1.602674e-04
1.959922e-04
2.343452e-04
2.753939e-04
3.178522e-04
3.595607e-04
4.085629e-04
4.612662e-04
0.000000e+00
1.991198e-06
8.586249e-06
1.855409e-05
3.253456e-05
5.045443e-05
7.177300e-05
9.694257e-05
1.263023e-04
1.593687e-04
1.952547e-04
2.337219e-04
2.750689e-04
3.172850e-04
3.568004e-04
4.005429e-04
4.493151e-04
0.000000e+00
1.613668e-06
7.978847e-06
1.778869e-05
3.185029e-05
4.968381e-05
7.117647e-05
9.660568e-05
1.261731e-04
1.592520e-04
1.951092e-04
2.336512e-04
2.749391e-04
3.172334e-04
3.566231e-04
3.966365e-04
4.400316e-04
0.000000e+00
2.019966e-06
8.608904e-06
1.854556e-05
3.246424e-05
5.031986e-05
7.158840e-05
9.677286e-05
1.262642e-04
1.594891e-04
1.956808e-04
2.344781e-04
2.756467e-04
3.173815e-04
3.574254e-04
3.962829e-04
4.353648e-04
0.000000e+00
3.201769e-06
1.104338e-05
2.089664e-05
3.492066e-05
5.253550e-05
7.347519e-05
9.820165e-05
1.270963e-04
1.604236e-04
1.969132e-04
2.359344e-04
2.767477e-04
3.177708e-04
3.576187e-04
3.962029e-04
4.337634e-04
0.000000e+00
6.769211e-06
1.548406e-05
2.597207e-05
4.054240e-05
5.767320e-05
7.870389e-05
1.031300e-04
1.313439e-04
1.637249e-04
1.991551e-04
2.374513e-04
2.775678e-04
3.180286e-04
3.575950e-04
3.960556e-04
4.336194e-04
0.000000e+00
1.165276e-05
2.005243e-05
3.198879e-05
4.674738e-05
6.385719e-05
8.499747e-05
1.095662e-04
1.381530e-04
1.692329e-04
2.026164e-04
2.392612e-04
2.783521e-04
3.182250e-04
3.576128e-04
3.959844e-04
4.336874e-04


6.362018e+00
6.065316e+00
6.254337e+00
5.275704e+00
4.763195e+00
5.111122e+00
4.930940e+00
4.761901e+00
4.550755e+00
4.708396e+00
5.540983e+00
6.581533e+00
7.387346e+00
8.151718e+00
8.190532e+00
7.805052e+00
7.896922e+00
8.146916e+00
8.174076e+00
7.761832e+00
7.379877e+00
7.515497e+00
7.151343e+00
6.191711e+00
5.523647e+00
5.495077e+00
6.268870e+00
7.154917e+00
7.666357e+00
7.799637e+00
7.304459e+00
6.196880e+00
9.329898e+00
9.496523e+00
9.766000e+00
9.434363e+00
9.269819e+00
9.356995e+00
8.959777e+00
8.068626e+00
7.181805e+00
7.031025e+00
7.424271e+00
7.786204e+00
7.798403e+00
7.460886e+00
6.519356e+00
5.722095e+00
9.613334e+00
9.813697e+00
9.917210e+00
9.716650e+00
9.513440e+00
9.586619e+00
9.635626e+00
9.245618e+00
8.674772e+00
8.336992e+00
8.117982e+00
7.792234e+00
7.456542e+00
7.044959e+00
6.557071e+00
6.092426e+00
9.609165e+00
9.807468e+00
9.896088e+00
9.663006e+00
9.437311e+00
9.517100e+00
9.597640e+00
9.251329e+00
8.738772e+00
8.394000e+00
8.000796e+00
7.446539e+00
7.125268e+00
7.096560e+00
7.038812e+00
6.959942e+00
9.319615e+00
9.485682e+00
9.721591e+00
9.322152e+00
9.102788e+00
9.191789e+00
8.845985e+00
8.052876e+00
7.296482e+00
7.200731e+00
7.339264e+00
7.274718e+00
7.313718e+00
7.672894e+00
8.025185e+00
8.163673e+00
7.887348e+00
8.138015e+00
8.143494e+00
7.676902e+00
7.237926e+00
7.358979e+00
7.032518e+00
6.150515e+00
5.620336e+00
5.765144e+00
6.558467e+00
7.281922e+00
7.821271e+00
8.410873e+00
8.906861e+00
9.117918e+00
6.350060e+00
6.060218e+00
6.244285e+00
5.238644e+00
4.688552e+00
5.013719e+00
4.864893e+00
4.752561e+00
4.638051e+00
5.029460e+00
6.136610e+00
7.334141e+00
8.212318e+00
8.879896e+00
9.352314e+00
9.549394e+00


-9.543458e-01
-1.203160e-01
-3.101146e-01
-2.907317e-01
-1.520215e-01
-2.263797e-01
1.386517e-03
-1.790278e-01
-4.013077e-01
-2.382851e-01
-2.309656e-01
-3.124355e-01
-2.919958e-01
-2.122314e-01
4.202251e-01
-7.366269e-01
5.770308e-01
4.856170e-01
3.203135e-01
1.881501e-01
2.389988e-01
1.405177e-01
1.925247e-01
1.731969e-01
1.198620e-01
2.535471e-01
2.741150e-01
3.079151e-01
4.775338e-01
7.184270e-01
7.317923e-01
-9.646257e-01
7.239454e-01
4.902289e-01
9.942108e-02
3.642190e-02
4.080178e-02
-3.996917e-02
1.250200e-01
2.379766e-01
3.372132e-01
3.886906e-01
3.803950e-01
4.112738e-01
4.587946e-01
3.298102e-01
5.017825e-02
-4.167567e-01
7.331315e-01
5.677982e-01
2.290113e-01
1.491390e-01
1.021922e-01
6.184285e-02
1.537718e-01
2.150453e-01
2.792611e-01
2.665222e-01
2.291212e-01
1.883719e-01
7.314266e-02
-1.712030e-01
-2.453637e-01
-9.400382e-02
7.346810e-01
5.703164e-01
2.345592e-01
1.536052e-01
1.005577e-01
4.283637e-02
1.093815e-01
1.405656e-01
1.716638e-01
1.121592e-01
2.453384e-02
-4.735099e-02
-1.409363e-01
-1.720105e-01
4.229394e-02
4.437325e-01
7.270923e-01
4.940980e-01
1.065172e-01
4.183101e-02
3.402614e-02
-7.465422e-02
4.656069e-02
1.014030e-01
1.209348e-01
6.062102e-02
-8.657990e-02
-1.473984e-01
-1.001444e-01
5.532534e-02
3.922901e-01
7.817866e-01
5.790773e-01
4.866115e-01
3.216784e-01
1.889037e-01
2.375812e-01
1.324812e-01
1.693892e-01
1.224400e-01
3.356213e-03
5.028913e-02
-1.849285e-02
-1.010905e-02
1.662641e-01
4.308113e-01
7.353442e-01
9.533757e-01
-9.567749e-01
-1.223969e-01
-3.113746e-01
-2.927586e-01
-1.542208e-01
-2.225429e-01
9.975903e-03
-1.465142e-01
-3.327042e-01
-1.486010e-01
-3.340052e-02
1.635373e-01
5.038220e-01
7.946525e-01
9.547875e-01
9.988832e-01
1 2 19 18
2 3 20 19
3 4 21 20
4 5 22 21
5 6 23 22
6 7 24 23
7 8 25 24
8 9 26 25
9 10 27 26
10 11 28 27
11 12 29 28
12 13 30 29
13 14 31 30
14 15 32 31
15 16 33 32
16 17 34 33
18 19 36 35
19 20 37 36
20 21 38 37
21 22 39 38
22 23 40 39
23 24 41 40
24 25 42 41
25 26 43 42
26 27 44 43
27 28 45 44
28 29 46 45
29 30 47 46
30 31 48 47
31 32 49 48
32 33 50 49
33 34 51 50
35 36 53 52
36 37 54 53
37 38 55 54
38 39 56 55
39 40 57 56
40 41 58 57
41 42 59 58
42 43 60 59
43 44 61 60
44 45 62 61
45 46 63 62
46 47 64 63
47 48 65 64
48 49 66 65
49 50 67 66
50 51 68 67
52 53 70 69
53 54 71 70
54 55 72 71
55 56 73 72
56 57 74 73
57 58 75 74
58 59 76 75
59 60 77 76
60 61 78 77
61 62 79 78
62 63 80 79
63 64 81 80
64 65 82 81
65 66 83 82
66 67 84 83
67 68 85 84
69 70 87 86
70 71 88 87
71 72 89 88
72 73 90 89
73 74 91 90
74 75 92 91
75 76 93 92
76 77 94 93
77 78 95 94
78 79 96 95
79 80 97 96
80 81 98 97
81 82 99 98
82 83 100 99
83 84 101 100
84 85 102 101
86 87 104 103
87 88 105 104
88 89 106 105
89 90 107 106
90 91 108 107
91 92 109 108
92 93 110 109
93 94 111 110
94 95 112 111
95 96 113 112
96 97 114 113
97 98 115 114
98 99 116 115
99 100 117 116
100 101 118 117
101 102 119 118
103 104 121 120
104 105 122 121
105 106 123 122
106 107 124 123
107 108 125 124
108 109 126 125
109 110 127 126
110 111 128 127
111 112 129 128
112 113 130 129
113 114 131 130
114 115 132 131
115 116 133 132
116 117 134 133
117 118 135 134
118 119 136 135
120 121 138 137
121 122 139 138
122 123 140 139
123 124 141 140
124 125 142 141
125 126 143 142
126 127 144 143
127 128 145 144
128 129 146 145
129 130 147 146
130 131 148 147
131 132 149 148
132 133 150 149
133 134 151 150
134 135 152 151
135 136 153 152
