TITLE = "Solution"
VARIABLES = x, y, u, v, psiu, psiv, t, stress
ZONE T="structure" N=153 E=128 F=FEBLOCK ET=QUADRILATERAL VARLOCATION=([7,8]=cellcentered)
0.000000e+00
1.250000e+01
2.500000e+01
3.750000e+01
5.000000e+01
6.250000e+01
7.500000e+01
8.750000e+01
1.000000e+02
1.125000e+02
1.250000e+02
1.375000e+02
1.500000e+02
1.625000e+02
1.750000e+02
1.875000e+02
2.000000e+02
0.000000e+00
1.250000e+01
2.500000e+01
3.750000e+01
5.000000e+01
6.250000e+01
7.500000e+01
8.750000e+01
1.000000e+02
1.125000e+02
1.250000e+02
1.375000e+02
1.500000e+02
1.625000e+02
1.750000e+02
1.875000e+02
2.000000e+02
0.000000e+00
1.250000e+01
2.500000e+01
3.750000e+01
5.000000e+01
6.250000e+01
7.500000e+01
8.750000e+01
1.000000e+02
1.125000e+02
1.250000e+02
1.375000e+02
1.500000e+02
1.625000e+02
1.750000e+02
1.875000e+02
2.000000e+02
0.000000e+00
1.250000e+01
2.500000e+01
3.750000e+01
5.000000e+01
6.250000e+01
7.500000e+01
8.750000e+01
1.000000e+02
1.125000e+02
1.250000e+02
1.375000e+02
1.500000e+02
1.625000e+02
1.750000e+02
1.875000e+02
2.000000e+02
0.000000e+00
1.250000e+01
2.500000e+01
3.750000e+01
5.000000e+01
6.250000e+01
7.500000e+01
8.750000e+01
1.000000e+02
1.125000e+02
1.250000e+02
1.375000e+02
1.500000e+02
1.625000e+02
1.750000e+02
1.875000e+02
2.000000e+02
0.000000e+00
1.250000e+01
2.500000e+01
3.750000e+01
5.000000e+01
6.250000e+01
7.500000e+01
8.750000e+01
1.000000e+02
1.125000e+02
1.250000e+02
1.375000e+02
1.500000e+02
1.625000e+02
1.750000e+02
1.875000e+02
2.000000e+02
0.000000e+00
1.250000e+01
2.500000e+01
3.750000e+01
5.000000e+01
6.250000e+01
7.500000e+01
8.750000e+01
1.000000e+02
1.125000e+02
1.250000e+02
1.375000e+02
1.500000e+02
1.625000e+02
1.750000e+02
1.875000e+02
2.000000e+02
0.000000e+00
1.250000e+01
2.500000e+01
3.750000e+01
5.000000e+01
6.250000e+01
7.500000e+01
8.750000e+01
1.000000e+02
1.125000e+02
1.250000e+02
1.375000e+02
1.500000e+02
1.625000e+02
1.750000e+02
1.875000e+02
2.000000e+02
0.000000e+00
1.250000e+01
2.500000e+01
3.750000e+01
5.000000e+01
6.250000e+01
7.500000e+01
8.750000e+01
1.000000e+02
1.125000e+02
1.250000e+02
1.375000e+02
1.500000e+02
1.625000e+02
1.750000e+02
1.875000e+02
2.000000e+02
0.000000e+00
0.000000e+00
0.000000e+00
0.000000e+00
0.000000e+00
0.000000e+00
0.000000e+00
0.000000e+00
0.000000e+00
0.000000e+00
0.000000e+00
0.000000e+00
0.000000e+00
0.000000e+00
0.000000e+00
0.000000e+00
0.000000e+00
1.250000e+01
1.250000e+01
1.250000e+01
1.250000e+01
1.250000e+01
1.250000e+01
1.250000e+01
1.250000e+01
1.250000e+01
1.250000e+01
1.250000e+01
1.250000e+01
1.250000e+01
1.250000e+01
1.250000e+01
1.250000e+01
1.250000e+01
2.500000e+01
2.500000e+01
2.500000e+01
2.500000e+01
2.500000e+01
2.500000e+01
2.500000e+01
2.500000e+01
2.500000e+01
2.500000e+01
2.500000e+01
2.500000e+01
2.500000e+01
2.500000e+01
2.500000e+01
2.500000e+01
2.500000e+01
3.750000e+01
3.750000e+01
3.750000e+01
3.750000e+01
3.750000e+01
3.750000e+01
3.750000e+01
3.750000e+01
3.750000e+01
3.750000e+01
3.750000e+01
3.750000e+01
3.750000e+01
3.750000e+01
3.750000e+01
3.750000e+01
3.750000e+01
5.000000e+01
5.000000e+01
5.000000e+01
5.000000e+01
5.000000e+01
5.000000e+01
5.000000e+01
5.000000e+01
5.000000e+01
5.000000e+01
5.000000e+01
5.000000e+01
5.000000e+01
5.000000e+01
5.000000e+01
5.000000e+01
5.000000e+01
6.250000e+01
6.250000e+01
6.250000e+01
6.250000e+01
6.250000e+01
6.250000e+01
6.250000e+01
6.250000e+01
6.250000e+01
6.250000e+01
6.250000e+01
6.250000e+01
6.250000e+01
6.250000e+01
6.250000e+01
6.250000e+01
6.250000e+01
7.500000e+01
7.500000e+01
7.500000e+01
7.500000e+01
7.500000e+01
7.500000e+01
7.500000e+01
7.500000e+01
7.500000e+01
7.500000e+01
7.500000e+01
7.500000e+01
7.500000e+01
7.500000e+01
7.500000e+01
7.500000e+01
7.500000e+01
8.750000e+01
8.750000e+01
8.750000e+01
8.750000e+01
8.750000e+01
8.750000e+01
8.750000e+01
8.750000e+01
8.750000e+01
8.750000e+01
8.750000e+01
8.750000e+01
8.750000e+01
8.750000e+01
8.750000e+01
8.750000e+01
8.750000e+01
1.000000e+02
1.000000e+02
1.000000e+02
1.000000e+02
1.000000e+02
1.000000e+02
1.000000e+02
1.000000e+02
1.000000e+02
1.000000e+02
1.000000e+02
1.000000e+02
1.000000e+02
1.000000e+02
1.000000e+02
1.000000e+02
1.000000e+02
0.000000e+00
-1.023999e+00
-1.684829e+00
-2.406907e+00
-3.105891e+00
-3.751323e+00
-4.371817e+00
-4.990702e+00
-5.684101e+00
-6.388353e+00
-7.062312e+00
-7.750299e+00
-8.480737e+00
-9.237950e+00
-9.951426e+00
-1.062548e+01
-1.107516e+01
0.000000e+00
-4.690785e-01
-9.246732e-01
-1.417732e+00
-1.956048e+00
-2.449433e+00
-2.936535e+00
-3.429435e+00
-3.957563e+00
-4.482028e+00
-4.973743e+00
-5.469732e+00
-5.982109e+00
-6.461953e+00
-6.774906e+00
-6.843886e+00
-7.004441e+00
0.000000e+00
-1.592944e-01
-3.709901e-01
-6.663068e-01
-1.029052e+00
-1.368747e+00
-1.734234e+00
-2.099012e+00
-2.451278e+00
-2.782929e+00
-3.097495e+00
-3.405241e+00
-3.681840e+00
-3.874992e+00
-3.922038e+00
-3.899278e+00
-4.061194e+00
0.000000e+00
-8.016582e-02
-1.676268e-01
-3.233697e-01
-4.709356e-01
-6.489226e-01
-8.241845e-01
-9.860928e-01
-1.135093e+00
-1.278293e+00
-1.424660e+00
-1.547928e+00
-1.614694e+00
-1.606693e+00
-1.549770e+00
-1.554563e+00
-1.686409e+00
0.000000e+00
-2.129961e-03
-4.434871e-03
-6.166801e-03
-6.573781e-03
-4.437231e-03
1.173377e-03
1.157550e-02
3.082173e-02
6.040636e-02
1.050404e-01
1.714668e-01
2.657249e-01
3.841506e-01
4.853527e-01
4.954745e-01
3.954327e-01
0.000000e+00
7.665266e-02
1.613848e-01
3.142749e-01
4.613846e-01
6.420589e-01
8.228419e-01
1.000926e+00
1.179064e+00
1.376435e+00
1.607509e+00
1.846926e+00
2.066414e+00
2.253805e+00
2.382595e+00
2.412664e+00
2.354390e+00
0.000000e+00
1.580939e-01
3.684295e-01
6.615551e-01
1.023986e+00
1.363437e+00
1.731053e+00
2.100738e+00
2.463754e+00
2.819277e+00
3.182631e+00
3.550554e+00
3.877462e+00
4.132241e+00
4.295687e+00
4.353409e+00
4.337934e+00
0.000000e+00
4.695900e-01
9.244451e-01
1.416205e+00
1.956243e+00
2.446741e+00
2.930359e+00
3.426523e+00
3.950350e+00
4.458850e+00
4.938561e+00
5.404474e+00
5.820107e+00
6.137106e+00
6.336804e+00
6.424692e+00
6.440622e+00
0.000000e+00
1.026040e+00
1.687351e+00
2.410817e+00
3.113193e+00
3.757960e+00
4.373734e+00
5.002841e+00
5.688750e+00
6.358107e+00
6.981442e+00
7.567285e+00
8.069070e+00
8.424422e+00
8.611513e+00
8.661847e+00
8.661714e+00
0.000000e+00
-6.272867e-01
-1.357097e+00
-2.340724e+00
-3.498848e+00
-4.805577e+00
-6.267198e+00
-7.875400e+00
-9.647722e+00
-1.158304e+01
-1.369432e+01
-1.599989e+01
-1.850074e+01
-2.118885e+01
-2.410825e+01
-2.749037e+01
-3.244101e+01
0.000000e+00
-4.236091e-01
-1.195703e+00
-2.153503e+00
-3.323600e+00
-4.636606e+00
-6.102764e+00
-7.703697e+00
-9.465085e+00
-1.140644e+01
-1.352230e+01
-1.582351e+01
-1.832088e+01
-2.103405e+01
-2.399609e+01
-2.738271e+01
-3.150559e+01
0.000000e+00
-3.924721e-01
-1.091697e+00
-2.044899e+00
-3.196996e+00
-4.508689e+00
-5.976589e+00
-7.581711e+00
-9.348130e+00
-1.129199e+01
-1.341613e+01
-1.572707e+01
-1.823901e+01
-2.099027e+01
-2.398780e+01
-2.719021e+01
-3.020229e+01
0.000000e+00
-4.422272e-01
-1.074075e+00
-2.015331e+00
-3.124717e+00
-4.429519e+00
-5.900814e+00
-7.522320e+00
-9.297383e+00
-1.124175e+01
-1.338256e+01
-1.571647e+01
-1.824175e+01
-2.099005e+01
-2.392818e+01
-2.684660e+01
-2.939669e+01
0.000000e+00
-4.470023e-01
-1.091105e+00
-1.998673e+00
-3.112678e+00
-4.405783e+00
-5.884140e+00
-7.519330e+00
-9.299888e+00
-1.125204e+01
-1.341075e+01
-1.576194e+01
-1.828142e+01
-2.097669e+01
-2.379019e+01
-2.650214e+01
-2.881778e+01
0.000000e+00
-4.423445e-01
-1.075692e+00
-2.018162e+00
-3.131558e+00
-4.443773e+00
-5.921600e+00
-7.556841e+00
-9.345962e+00
-1.130893e+01
-1.347499e+01
-1.582796e+01
-1.833007e+01
-2.095902e+01
-2.364741e+01
-2.621366e+01
-2.842572e+01
0.000000e+00
-3.929970e-01
-1.094325e+00
-2.050029e+00
-3.209798e+00
-4.531838e+00
-6.010454e+00
-7.635796e+00
-9.429404e+00
-1.140407e+01
-1.356636e+01
-1.590898e+01
-1.839066e+01
-2.096442e+01
-2.355439e+01
-2.602362e+01
-2.822867e+01
0.000000e+00
-4.241524e-01
-1.198096e+00
-2.159431e+00
-3.337812e+00
-4.661339e+00
-6.140151e+00
-7.762912e+00
-9.557554e+00
-1.153522e+01
-1.369007e+01
-1.601744e+01
-1.847694e+01
-2.100772e+01
-2.352956e+01
-2.593807e+01
-2.817810e+01
0.000000e+00
-6.279824e-01
-1.359383e+00
-2.347462e+00
-3.513309e+00
-4.829592e+00
-6.305196e+00
-7.936482e+00
-9.737408e+00
-1.170686e+01
-1.385182e+01
-1.616362e+01
-1.859392e+01
-2.108081e+01
-2.355136e+01
-2.592187e+01
-2.817829e+01


0.000000e+00
1.385366e-05
2.451812e-05
3.725662e-05
5.143916e-05
6.574391e-05
8.006973e-05
9.442816e-05
1.090693e-04
1.214616e-04
1.312180e-04
1.394953e-04
1.459334e-04
1.499662e-04
1.526874e-04
1.561184e-04
1.605748e-04
0.000000e+00
9.674884e-06
1.949485e-05
2.899559e-05
4.062683e-05
5.193230e-05
6.327937e-05
7.474771e-05
8.556745e-05
9.383261e-05
9.994059e-05
1.051111e-04
1.084422e-04
1.087128e-04
1.081242e-04
1.109220e-04
1.160509e-04
0.000000e+00
7.832453e-06
1.520181e-05
2.182008e-05
3.021163e-05
3.799461e-05
4.587218e-05
5.324260e-05
5.911717e-05
6.323733e-05
6.626555e-05
6.858261e-05
6.957184e-05
6.903846e-05
6.886264e-05
7.164469e-05
7.661138e-05
0.000000e+00
4.382661e-06
7.233551e-06
1.153083e-05
1.526032e-05
1.912122e-05
2.286029e-05
2.609492e-05
2.845594e-05
3.002568e-05
3.102016e-05
3.139180e-05
3.133442e-05
3.146946e-05
3.243353e-05
3.483407e-05
3.843453e-05
0.000000e+00
-4.010134e-08
-8.920050e-08
-1.405668e-07
-2.100002e-07
-2.959486e-07
-4.047735e-07
-5.249337e-07
-7.274050e-07
-1.129445e-06
-1.837945e-06
-2.619463e-06
-3.191718e-06
-3.211688e-06
-2.482335e-06
-1.385286e-06
2.680710e-07
0.000000e+00
-4.509656e-06
-7.437754e-06
-1.178798e-05
-1.558874e-05
-1.961632e-05
-2.348492e-05
-2.683220e-05
-2.925410e-05
-3.110837e-05
-3.285349e-05
-3.429984e-05
-3.521138e-05
-3.568129e-05
-3.608407e-05
-3.640204e-05
-3.606751e-05
0.000000e+00
-7.964943e-06
-1.539181e-05
-2.198543e-05
-3.043145e-05
-3.831660e-05
-4.631178e-05
-5.368657e-05
-5.937610e-05
-6.317088e-05
-6.577113e-05
-6.749254e-05
-6.853018e-05
-6.934720e-05
-7.015534e-05
-7.081763e-05
-7.099467e-05
0.000000e+00
-9.762176e-06
-1.958737e-05
-2.901142e-05
-4.066753e-05
-5.198987e-05
-6.338451e-05
-7.504599e-05
-8.585329e-05
-9.377133e-05
-9.898569e-05
-1.023147e-04
-1.041681e-04
-1.052931e-04
-1.060406e-04
-1.064031e-04
-1.064961e-04
0.000000e+00
-1.390567e-05
-2.451650e-05
-3.714372e-05
-5.128086e-05
-6.552365e-05
-7.970550e-05
-9.431092e-05
-1.090613e-04
-1.213202e-04
-1.304744e-04
-1.368018e-04
-1.405221e-04
-1.422731e-04
-1.428238e-04
-1.428030e-04
-1.427358e-04
0.000000e+00
1.175537e-05
2.021455e-05
3.204132e-05
4.708377e-05
6.469402e-05
8.579044e-05
1.102655e-04
1.378289e-04
1.677573e-04
2.007342e-04
2.364585e-04
2.736274e-04
3.127318e-04
3.581689e-04
4.112979e-04
4.654453e-04
0.000000e+00
6.770890e-06
1.565644e-05
2.618219e-05
4.081371e-05
5.833783e-05
7.942089e-05
1.038786e-04
1.319809e-04
1.632333e-04
1.971478e-04
2.335874e-04
2.719729e-04
3.120933e-04
3.551950e-04
4.049920e-04
4.574233e-04
0.000000e+00
3.117830e-06
1.123604e-05
2.125139e-05
3.531459e-05
5.298116e-05
7.415972e-05
9.925662e-05
1.282899e-04
1.604988e-04
1.951011e-04
2.320831e-04
2.712697e-04
3.117018e-04
3.515301e-04
3.967893e-04
4.464213e-04
0.000000e+00
1.910649e-06
8.680107e-06
1.895412e-05
3.296118e-05
5.073868e-05
7.216932e-05
9.779112e-05
1.272366e-04
1.596866e-04
1.946297e-04
2.317468e-04
2.709196e-04
3.110797e-04
3.491524e-04
3.901614e-04
4.356497e-04
0.000000e+00
1.546826e-06
8.014791e-06
1.816290e-05
3.232615e-05
5.005981e-05
7.165660e-05
9.748126e-05
1.270328e-04
1.595491e-04
1.947113e-04
2.318777e-04
2.707344e-04
3.107393e-04
3.488714e-04
3.872287e-04
4.280480e-04
0.000000e+00
1.947193e-06
8.735107e-06
1.893929e-05
3.285233e-05
5.057911e-05
7.201262e-05
9.773065e-05
1.272948e-04
1.599383e-04
1.952930e-04
2.325826e-04
2.712547e-04
3.107489e-04
3.494071e-04
3.868504e-04
4.240305e-04
0.000000e+00
3.177744e-06
1.130118e-05
2.119407e-05
3.516122e-05
5.274285e-05
7.386617e-05
9.905085e-05
1.283130e-04
1.609494e-04
1.963428e-04
2.337350e-04
2.722002e-04
3.111163e-04
3.494643e-04
3.866157e-04
4.226764e-04
0.000000e+00
6.849547e-06
1.570728e-05
2.612375e-05
4.068313e-05
5.813969e-05
7.910771e-05
1.036194e-04
1.319560e-04
1.636148e-04
1.982211e-04
2.350924e-04
2.730567e-04
3.114337e-04
3.493936e-04
3.863912e-04
4.225784e-04
0.000000e+00
1.184639e-05
2.024242e-05
3.197919e-05
4.697963e-05
6.450859e-05
8.554041e-05
1.101372e-04
1.377893e-04
1.679158e-04
2.011223e-04
2.367979e-04
2.738794e-04
3.116987e-04
3.493923e-04
3.863128e-04
4.226390e-04


6.206952e+00
5.854926e+00
5.911235e+00
4.984845e+00
4.308565e+00
4.302297e+00
4.270495e+00
4.290561e+00
4.284998e+00
4.644995e+00
5.534575e+00
6.643459e+00
7.378789e+00
6.905607e+00
5.440734e+00
4.419358e+00
7.763003e+00
7.962999e+00
7.941430e+00
7.467381e+00
6.921336e+00
6.831940e+00
6.324293e+00
5.569146e+00
5.235050e+00
5.535182e+00
6.358744e+00
7.256748e+00
7.713327e+00
6.952865e+00
5.307994e+00
4.181578e+00
9.183376e+00
9.391371e+00
9.614794e+00
9.218559e+00
8.981233e+00
8.892574e+00
8.333358e+00
7.513012e+00
7.117355e+00
7.327378e+00
7.649411e+00
7.881562e+00
7.933603e+00
7.142718e+00
5.592522e+00
4.541366e+00
9.521496e+00
9.710435e+00
9.830262e+00
9.600729e+00
9.431249e+00
9.479972e+00
9.360107e+00
9.018781e+00
8.890757e+00
8.819038e+00
8.326365e+00
7.731377e+00
7.552286e+00
7.267444e+00
6.437834e+00
5.753474e+00
9.524985e+00
9.692350e+00
9.774208e+00
9.545205e+00
9.377776e+00
9.469965e+00
9.341863e+00
9.002929e+00
8.903021e+00
8.765833e+00
8.040252e+00
7.177427e+00
7.029912e+00
7.353492e+00
7.403145e+00
7.242326e+00
9.166188e+00
9.332956e+00
9.515245e+00
9.125879e+00
8.944286e+00
8.818238e+00
8.209616e+00
7.417422e+00
7.150448e+00
7.351476e+00
7.294899e+00
7.002356e+00
7.115951e+00
7.716073e+00
8.244487e+00
8.444762e+00
7.745328e+00
7.912250e+00
7.845457e+00
7.446648e+00
6.934424e+00
6.749696e+00
6.119041e+00
5.420836e+00
5.282008e+00
5.792047e+00
6.587286e+00
7.195742e+00
7.735204e+00
8.386306e+00
8.946573e+00
9.205554e+00
6.231377e+00
5.808153e+00
5.838837e+00
4.991629e+00
4.368080e+00
4.234152e+00
4.122799e+00
4.157164e+00
4.338355e+00
5.036994e+00
6.231709e+00
7.396399e+00
8.262466e+00
8.919232e+00
9.376666e+00
9.579895e+00


-9.469864e-01
-1.128926e-01
-2.933112e-01
-3.433632e-01
-1.417870e-01
-8.317393e-02
-9.533752e-02
-3.176390e-01
-3.337964e-01
-2.040325e-01
-2.399131e-01
-3.563769e-01
-3.231055e-01
9.499145e-02
5.060673e-01
-7.165279e-01
5.742265e-01
4.823803e-01
3.233946e-01
1.436062e-01
2.467672e-01
2.034572e-01
1.868633e-01
1.481286e-01
1.906594e-01
2.691118e-01
2.736147e-01
3.119518e-01
4.914725e-01
7.877859e-01
7.235777e-01
-1.491199e+00
7.282137e-01
4.985949e-01
1.289007e-01
6.549341e-02
7.463938e-02
8.400650e-02
2.024417e-01
3.091387e-01
3.692261e-01
3.648962e-01
3.658307e-01
4.236073e-01
4.475518e-01
3.484699e-01
1.018873e-01
-4.047186e-01
7.399190e-01
5.787813e-01
2.554618e-01
1.779476e-01
1.167855e-01
1.289545e-01
1.863517e-01
2.368971e-01
2.399975e-01
1.979432e-01
1.951271e-01
1.864797e-01
3.082050e-02
-1.938080e-01
-1.167914e-01
6.335895e-02
7.413329e-01
5.814254e-01
2.620605e-01
1.810265e-01
1.114802e-01
1.120416e-01
1.440534e-01
1.708833e-01
1.373463e-01
5.137645e-02
1.226686e-02
-1.189951e-02
-1.348524e-01
-2.333250e-01
1.377856e-02
4.426421e-01
7.311178e-01
5.026881e-01
1.370194e-01
6.216595e-02
5.736216e-02
5.468634e-02
1.313634e-01
1.898443e-01
1.647835e-01
2.646113e-02
-9.516813e-02
-9.018996e-02
-4.794180e-02
6.506523e-02
3.843578e-01
7.803655e-01
5.751955e-01
4.847479e-01
3.274988e-01
1.371578e-01
2.437542e-01
1.914880e-01
1.458130e-01
8.573186e-02
8.579094e-02
5.184670e-02
-3.467788e-02
2.053396e-02
2.053982e-01
4.517358e-01
7.439567e-01
9.561811e-01
-9.531804e-01
-1.123239e-01
-2.937669e-01
-3.546854e-01
-1.354873e-01
-6.979027e-02
-1.247106e-01
-3.010059e-01
-2.447195e-01
-1.103982e-01
-3.324282e-02
1.826010e-01
5.195016e-01
8.008350e-01
9.565944e-01
9.989862e-01
1 2 19 18
2 3 20 19
3 4 21 20
4 5 22 21
5 6 23 22
6 7 24 23
7 8 25 24
8 9 26 25
9 10 27 26
10 11 28 27
11 12 29 28
12 13 30 29
13 14 31 30
14 15 32 31
15 16 33 32
16 17 34 33
18 19 36 35
19 20 37 36
20 21 38 37
21 22 39 38
22 23 40 39
23 24 41 40
24 25 42 41
25 26 43 42
26 27 44 43
27 28 45 44
28 29 46 45
29 30 47 46
30 31 48 47
31 32 49 48
32 33 50 49
33 34 51 50
35 36 53 52
36 37 54 53
37 38 55 54
38 39 56 55
39 40 57 56
40 41 58 57
41 42 59 58
42 43 60 59
43 44 61 60
44 45 62 61
45 46 63 62
46 47 64 63
47 48 65 64
48 49 66 65
49 50 67 66
50 51 68 67
52 53 70 69
53 54 71 70
54 55 72 71
55 56 73 72
56 57 74 73
57 58 75 74
58 59 76 75
59 60 77 76
60 61 78 77
61 62 79 78
62 63 80 79
63 64 81 80
64 65 82 81
65 66 83 82
66 67 84 83
67 68 85 84
69 70 87 86
70 71 88 87
71 72 89 88
72 73 90 89
73 74 91 90
74 75 92 91
75 76 93 92
76 77 94 93
77 78 95 94
78 79 96 95
79 80 97 96
80 81 98 97
81 82 99 98
82 83 100 99
83 84 101 100
84 85 102 101
86 87 104 103
87 88 105 104
88 89 106 105
89 90 107 106
90 91 108 107
91 92 109 108
92 93 110 109
93 94 111 110
94 95 112 111
95 96 113 112
96 97 114 113
97 98 115 114
98 99 116 115
99 100 117 116
100 101 118 117
101 102 119 118
103 104 121 120
104 105 122 121
105 106 123 122
106 107 124 123
107 108 125 124
108 109 126 125
109 110 127 126
110 111 128 127
111 112 129 128
112 113 130 129
113 114 131 130
114 115 132 131
115 116 133 132
116 117 134 133
117 118 135 134
118 119 136 135
120 121 138 137
121 122 139 138
122 123 140 139
123 124 141 140
124 125 142 141
125 126 143 142
126 127 144 143
127 128 145 144
128 129 146 145
129 130 147 146
130 131 148 147
131 132 149 148
132 133 150 149
133 134 151 150
134 135 152 151
135 136 153 152
