TITLE = "Solution"
VARIABLES = x, y, u, v, psiu, psiv, t, stress
ZONE T="structure" N=153 E=128 F=FEBLOCK ET=QUADRILATERAL VARLOCATION=([7,8]=cellcentered)
0.000000e+00
1.250000e+01
2.500000e+01
3.750000e+01
5.000000e+01
6.250000e+01
7.500000e+01
8.750000e+01
1.000000e+02
1.125000e+02
1.250000e+02
1.375000e+02
1.500000e+02
1.625000e+02
1.750000e+02
1.875000e+02
2.000000e+02
0.000000e+00
1.250000e+01
2.500000e+01
3.750000e+01
5.000000e+01
6.250000e+01
7.500000e+01
8.750000e+01
1.000000e+02
1.125000e+02
1.250000e+02
1.375000e+02
1.500000e+02
1.625000e+02
1.750000e+02
1.875000e+02
2.000000e+02
0.000000e+00
1.250000e+01
2.500000e+01
3.750000e+01
5.000000e+01
6.250000e+01
7.500000e+01
8.750000e+01
1.000000e+02
1.125000e+02
1.250000e+02
1.375000e+02
1.500000e+02
1.625000e+02
1.750000e+02
1.875000e+02
2.000000e+02
0.000000e+00
1.250000e+01
2.500000e+01
3.750000e+01
5.000000e+01
6.250000e+01
7.500000e+01
8.750000e+01
1.000000e+02
1.125000e+02
1.250000e+02
1.375000e+02
1.500000e+02
1.625000e+02
1.750000e+02
1.875000e+02
2.000000e+02
0.000000e+00
1.250000e+01
2.500000e+01
3.750000e+01
5.000000e+01
6.250000e+01
7.500000e+01
8.750000e+01
1.000000e+02
1.125000e+02
1.250000e+02
1.375000e+02
1.500000e+02
1.625000e+02
1.750000e+02
1.875000e+02
2.000000e+02
0.000000e+00
1.250000e+01
2.500000e+01
3.750000e+01
5.000000e+01
6.250000e+01
7.500000e+01
8.750000e+01
1.000000e+02
1.125000e+02
1.250000e+02
1.375000e+02
1.500000e+02
1.625000e+02
1.750000e+02
1.875000e+02
2.000000e+02
0.000000e+00
1.250000e+01
2.500000e+01
3.750000e+01
5.000000e+01
6.250000e+01
7.500000e+01
8.750000e+01
1.000000e+02
1.125000e+02
1.250000e+02
1.375000e+02
1.500000e+02
1.625000e+02
1.750000e+02
1.875000e+02
2.000000e+02
0.000000e+00
1.250000e+01
2.500000e+01
3.750000e+01
5.000000e+01
6.250000e+01
7.500000e+01
8.750000e+01
1.000000e+02
1.125000e+02
1.250000e+02
1.375000e+02
1.500000e+02
1.625000e+02
1.750000e+02
1.875000e+02
2.000000e+02
0.000000e+00
1.250000e+01
2.500000e+01
3.750000e+01
5.000000e+01
6.250000e+01
7.500000e+01
8.750000e+01
1.000000e+02
1.125000e+02
1.250000e+02
1.375000e+02
1.500000e+02
1.625000e+02
1.750000e+02
1.875000e+02
2.000000e+02
0.000000e+00
0.000000e+00
0.000000e+00
0.000000e+00
0.000000e+00
0.000000e+00
0.000000e+00
0.000000e+00
0.000000e+00
0.000000e+00
0.000000e+00
0.000000e+00
0.000000e+00
0.000000e+00
0.000000e+00
0.000000e+00
0.000000e+00
1.250000e+01
1.250000e+01
1.250000e+01
1.250000e+01
1.250000e+01
1.250000e+01
1.250000e+01
1.250000e+01
1.250000e+01
1.250000e+01
1.250000e+01
1.250000e+01
1.250000e+01
1.250000e+01
1.250000e+01
1.250000e+01
1.250000e+01
2.500000e+01
2.500000e+01
2.500000e+01
2.500000e+01
2.500000e+01
2.500000e+01
2.500000e+01
2.500000e+01
2.500000e+01
2.500000e+01
2.500000e+01
2.500000e+01
2.500000e+01
2.500000e+01
2.500000e+01
2.500000e+01
2.500000e+01
3.750000e+01
3.750000e+01
3.750000e+01
3.750000e+01
3.750000e+01
3.750000e+01
3.750000e+01
3.750000e+01
3.750000e+01
3.750000e+01
3.750000e+01
3.750000e+01
3.750000e+01
3.750000e+01
3.750000e+01
3.750000e+01
3.750000e+01
5.000000e+01
5.000000e+01
5.000000e+01
5.000000e+01
5.000000e+01
5.000000e+01
5.000000e+01
5.000000e+01
5.000000e+01
5.000000e+01
5.000000e+01
5.000000e+01
5.000000e+01
5.000000e+01
5.000000e+01
5.000000e+01
5.000000e+01
6.250000e+01
6.250000e+01
6.250000e+01
6.250000e+01
6.250000e+01
6.250000e+01
6.250000e+01
6.250000e+01
6.250000e+01
6.250000e+01
6.250000e+01
6.250000e+01
6.250000e+01
6.250000e+01
6.250000e+01
6.250000e+01
6.250000e+01
7.500000e+01
7.500000e+01
7.500000e+01
7.500000e+01
7.500000e+01
7.500000e+01
7.500000e+01
7.500000e+01
7.500000e+01
7.500000e+01
7.500000e+01
7.500000e+01
7.500000e+01
7.500000e+01
7.500000e+01
7.500000e+01
7.500000e+01
8.750000e+01
8.750000e+01
8.750000e+01
8.750000e+01
8.750000e+01
8.750000e+01
8.750000e+01
8.750000e+01
8.750000e+01
8.750000e+01
8.750000e+01
8.750000e+01
8.750000e+01
8.750000e+01
8.750000e+01
8.750000e+01
8.750000e+01
1.000000e+02
1.000000e+02
1.000000e+02
1.000000e+02
1.000000e+02
1.000000e+02
1.000000e+02
1.000000e+02
1.000000e+02
1.000000e+02
1.000000e+02
1.000000e+02
1.000000e+02
1.000000e+02
1.000000e+02
1.000000e+02
1.000000e+02
0.000000e+00
-6.977873e-02
-1.256916e-01
-1.751319e-01
-2.221940e-01
-2.669793e-01
-3.080063e-01
-3.449355e-01
-3.784582e-01
-4.084581e-01
-4.349789e-01
-4.587972e-01
-4.811160e-01
-5.036376e-01
-5.287627e-01
-5.592205e-01
-5.821709e-01
0.000000e+00
-4.144561e-02
-8.400508e-02
-1.217728e-01
-1.569540e-01
-1.902268e-01
-2.207319e-01
-2.483342e-01
-2.734302e-01
-2.958616e-01
-3.155274e-01
-3.327483e-01
-3.478090e-01
-3.605794e-01
-3.696713e-01
-3.716412e-01
-3.787213e-01
0.000000e+00
-2.484689e-02
-5.047685e-02
-7.541982e-02
-9.867649e-02
-1.204439e-01
-1.404841e-01
-1.587366e-01
-1.751903e-01
-1.896474e-01
-2.019748e-01
-2.121082e-01
-2.196853e-01
-2.239656e-01
-2.240567e-01
-2.223020e-01
-2.295738e-01
0.000000e+00
-1.112209e-02
-2.274574e-02
-3.432036e-02
-4.541250e-02
-5.576858e-02
-6.535061e-02
-7.404970e-02
-8.174168e-02
-8.824113e-02
-9.337717e-02
-9.693456e-02
-9.857295e-02
-9.809922e-02
-9.636578e-02
-9.683359e-02
-1.022168e-01
0.000000e+00
1.226102e-03
2.549425e-03
3.824251e-03
5.002312e-03
6.094415e-03
7.146776e-03
8.156974e-03
9.170780e-03
1.033511e-02
1.185354e-02
1.394765e-02
1.668776e-02
1.969299e-02
2.175270e-02
2.122827e-02
1.770156e-02
0.000000e+00
1.328777e-02
2.723569e-02
4.119344e-02
5.486427e-02
6.784478e-02
7.977356e-02
9.051558e-02
1.000790e-01
1.085373e-01
1.160996e-01
1.229937e-01
1.291723e-01
1.341339e-01
1.370801e-01
1.373625e-01
1.355588e-01
0.000000e+00
2.619559e-02
5.343428e-02
8.047160e-02
1.067868e-01
1.321498e-01
1.551680e-01
1.755206e-01
1.934497e-01
2.089952e-01
2.222096e-01
2.333650e-01
2.424958e-01
2.493005e-01
2.534459e-01
2.548240e-01
2.543912e-01
0.000000e+00
4.123151e-02
8.501955e-02
1.249564e-01
1.637602e-01
2.017042e-01
2.357338e-01
2.654234e-01
2.916097e-01
3.142193e-01
3.330105e-01
3.482481e-01
3.600947e-01
3.685169e-01
3.736429e-01
3.758750e-01
3.762854e-01
0.000000e+00
6.889171e-02
1.258741e-01
1.776987e-01
2.286986e-01
2.787064e-01
3.234008e-01
3.623734e-01
3.969654e-01
4.267953e-01
4.514459e-01
4.710735e-01
4.856922e-01
4.952057e-01
4.999497e-01
5.011715e-01
5.011599e-01
0.000000e+00
-4.125139e-02
-8.053577e-02
-1.317597e-01
-1.950834e-01
-2.703591e-01
-3.566210e-01
-4.529031e-01
-5.580893e-01
-6.709616e-01
-7.905649e-01
-9.162647e-01
-1.047859e+00
-1.186134e+00
-1.334800e+00
-1.505427e+00
-1.751836e+00
0.000000e+00
-2.534378e-02
-6.705896e-02
-1.190260e-01
-1.830023e-01
-2.590930e-01
-3.464117e-01
-4.436871e-01
-5.498137e-01
-6.636666e-01
-7.841745e-01
-9.106174e-01
-1.042762e+00
-1.181463e+00
-1.330082e+00
-1.499683e+00
-1.708078e+00
0.000000e+00
-1.916815e-02
-5.761629e-02
-1.098907e-01
-1.743770e-01
-2.510939e-01
-3.391423e-01
-4.372079e-01
-5.441617e-01
-6.588511e-01
-7.802066e-01
-9.075670e-01
-1.040742e+00
-1.180473e+00
-1.329174e+00
-1.489672e+00
-1.644834e+00
0.000000e+00
-1.683343e-02
-5.298973e-02
-1.044747e-01
-1.691977e-01
-2.463167e-01
-3.348679e-01
-4.335691e-01
-5.412290e-01
-6.566296e-01
-7.787446e-01
-9.069714e-01
-1.040991e+00
-1.180811e+00
-1.326371e+00
-1.473500e+00
-1.608770e+00
0.000000e+00
-1.643667e-02
-5.179973e-02
-1.027821e-01
-1.674432e-01
-2.447945e-01
-3.336836e-01
-4.328047e-01
-5.409109e-01
-6.568049e-01
-7.794285e-01
-9.081224e-01
-1.042227e+00
-1.180731e+00
-1.321660e+00
-1.460220e+00
-1.587659e+00
0.000000e+00
-1.742011e-02
-5.351332e-02
-1.046493e-01
-1.692176e-01
-2.466265e-01
-3.356569e-01
-4.348314e-01
-5.429899e-01
-6.590131e-01
-7.817683e-01
-9.103987e-01
-1.043852e+00
-1.180389e+00
-1.317516e+00
-1.451259e+00
-1.575905e+00
0.000000e+00
-2.010497e-02
-5.848132e-02
-1.103795e-01
-1.747373e-01
-2.519659e-01
-3.407617e-01
-4.395196e-01
-5.472468e-01
-6.629415e-01
-7.853868e-01
-9.134909e-01
-1.045905e+00
-1.180588e+00
-1.315021e+00
-1.446120e+00
-1.570604e+00
0.000000e+00
-2.626036e-02
-6.821341e-02
-1.201111e-01
-1.842279e-01
-2.609093e-01
-3.488943e-01
-4.467434e-01
-5.535970e-01
-6.684765e-01
-7.901223e-01
-9.173263e-01
-1.048571e+00
-1.181751e+00
-1.314390e+00
-1.443964e+00
-1.569312e+00
0.000000e+00
-4.215386e-02
-8.212245e-02
-1.337021e-01
-1.976061e-01
-2.734494e-01
-3.599488e-01
-4.564794e-01
-5.621428e-01
-6.757291e-01
-7.960812e-01
-9.220020e-01
-1.051884e+00
-1.183650e+00
-1.314938e+00
-1.443569e+00
-1.569320e+00


0.000000e+00
-5.019621e-07
-1.009176e-07
1.304265e-06
2.063620e-06
2.251230e-06
2.348767e-06
2.460926e-06
2.571568e-06
2.669657e-06
2.749573e-06
2.810795e-06
2.853786e-06
2.880877e-06
2.897900e-06
2.911790e-06
2.925132e-06
0.000000e+00
-4.457423e-07
5.153643e-08
1.293499e-06
1.985384e-06
1.980830e-06
2.014027e-06
2.094081e-06
2.175989e-06
2.247607e-06
2.306307e-06
2.351017e-06
2.380300e-06
2.396349e-06
2.406890e-06
2.419785e-06
2.434062e-06
0.000000e+00
-3.366425e-08
3.735866e-07
1.065369e-06
1.499750e-06
1.581995e-06
1.662702e-06
1.722780e-06
1.774270e-06
1.818854e-06
1.856061e-06
1.884667e-06
1.903698e-06
1.915708e-06
1.925693e-06
1.937259e-06
1.949637e-06
0.000000e+00
3.039431e-07
5.805230e-07
8.786371e-07
1.028993e-06
1.196129e-06
1.283638e-06
1.330188e-06
1.360668e-06
1.385087e-06
1.404859e-06
1.420392e-06
1.433249e-06
1.444034e-06
1.453170e-06
1.461844e-06
1.470827e-06
0.000000e+00
3.307547e-07
6.349151e-07
7.717368e-07
8.402745e-07
8.860332e-07
9.325657e-07
9.570626e-07
9.685006e-07
9.742685e-07
9.760074e-07
9.771664e-07
9.808859e-07
9.859519e-07
9.905785e-07
9.953329e-07
1.001397e-06
0.000000e+00
2.215268e-07
4.825542e-07
6.169540e-07
6.340251e-07
6.262785e-07
6.207735e-07
6.140722e-07
6.007348e-07
5.836651e-07
5.656135e-07
5.508318e-07
5.424503e-07
5.382932e-07
5.360937e-07
5.364244e-07
5.397984e-07
0.000000e+00
1.147081e-07
2.777877e-07
3.549292e-07
3.581350e-07
3.189223e-07
2.845746e-07
2.535135e-07
2.203635e-07
1.854875e-07
1.529701e-07
1.270751e-07
1.089160e-07
9.629276e-08
8.784333e-08
8.395929e-08
8.442596e-08
0.000000e+00
7.759070e-08
1.530633e-07
1.228447e-07
4.907933e-08
-3.698550e-08
-1.030787e-07
-1.528777e-07
-1.977481e-07
-2.406426e-07
-2.784442e-07
-3.077836e-07
-3.287919e-07
-3.443917e-07
-3.559483e-07
-3.629951e-07
-3.654853e-07
0.000000e+00
1.827990e-07
1.218326e-07
-5.168594e-08
-2.516242e-07
-4.117498e-07
-5.181192e-07
-5.921778e-07
-6.509273e-07
-6.991154e-07
-7.359864e-07
-7.613455e-07
-7.786297e-07
-7.925594e-07
-8.050299e-07
-8.144233e-07
-8.187074e-07
0.000000e+00
-8.678256e-08
3.357006e-07
5.871514e-07
4.596595e-07
5.173628e-07
8.647113e-07
1.262085e-06
1.683572e-06
2.131107e-06
2.596313e-06
3.070670e-06
3.549496e-06
4.036327e-06
4.538532e-06
5.053437e-06
5.568223e-06
0.000000e+00
-8.869290e-08
-1.885405e-07
-9.950085e-09
2.492888e-07
4.844848e-07
8.247114e-07
1.210367e-06
1.636804e-06
2.091797e-06
2.565592e-06
3.048508e-06
3.534984e-06
4.025862e-06
4.525143e-06
5.034888e-06
5.546766e-06
0.000000e+00
-1.288602e-07
-4.697648e-07
-3.831797e-07
4.089037e-08
4.379343e-07
7.761187e-07
1.166874e-06
1.600264e-06
2.063094e-06
2.544515e-06
3.034334e-06
3.525019e-06
4.016241e-06
4.510772e-06
5.013890e-06
5.519938e-06
0.000000e+00
-1.598679e-07
-4.899006e-07
-4.696664e-07
-8.750737e-08
3.339165e-07
7.227649e-07
1.135343e-06
1.580010e-06
2.049062e-06
2.536007e-06
3.029942e-06
3.520208e-06
4.007976e-06
4.498436e-06
4.995945e-06
5.493737e-06
0.000000e+00
-2.000125e-07
-4.782639e-07
-4.738489e-07
-1.510033e-07
2.555519e-07
6.782704e-07
1.114231e-06
1.570602e-06
2.044614e-06
2.535580e-06
3.031420e-06
3.518538e-06
4.001445e-06
4.488104e-06
4.981272e-06
5.471523e-06
0.000000e+00
-2.537603e-07
-5.022529e-07
-4.726674e-07
-1.688678e-07
2.315578e-07
6.598505e-07
1.109280e-06
1.573848e-06
2.051803e-06
2.543799e-06
3.037224e-06
3.519538e-06
3.997686e-06
4.480492e-06
4.969567e-06
5.454383e-06
0.000000e+00
-3.001548e-07
-5.204687e-07
-4.642938e-07
-1.661501e-07
2.326758e-07
6.663781e-07
1.120029e-06
1.588941e-06
2.069291e-06
2.558571e-06
3.045764e-06
3.523026e-06
3.997307e-06
4.476239e-06
4.961158e-06
5.441380e-06
0.000000e+00
-3.097870e-07
-5.100321e-07
-4.283849e-07
-1.446087e-07
2.535903e-07
6.852063e-07
1.138418e-06
1.608502e-06
2.089340e-06
2.574563e-06
3.055583e-06
3.528966e-06
4.000411e-06
4.475704e-06
4.956419e-06
5.432674e-06
0.000000e+00
-3.242944e-07
-4.663680e-07
-3.702770e-07
-8.759162e-08
2.931113e-07
7.132779e-07
1.160179e-06
1.627992e-06
2.106879e-06
2.588190e-06
3.064936e-06
3.535738e-06
4.005304e-06
4.477920e-06
4.955133e-06
5.429029e-06


2.001826e-01
1.885529e-01
1.792591e-01
1.817269e-01
1.867414e-01
1.871658e-01
1.867572e-01
1.900015e-01
1.918691e-01
1.918282e-01
1.935786e-01
1.981471e-01
2.041488e-01
2.063748e-01
2.041645e-01
2.053761e-01
1.982640e-01
1.924576e-01
1.865714e-01
1.869055e-01
1.912029e-01
1.924819e-01
1.936064e-01
1.961396e-01
1.967091e-01
1.958766e-01
1.969805e-01
2.000756e-01
2.045803e-01
2.069489e-01
2.066931e-01
2.060341e-01
2.027740e-01
1.990680e-01
1.945214e-01
1.942467e-01
1.974108e-01
2.008093e-01
2.031109e-01
2.043740e-01
2.034619e-01
2.018763e-01
2.020836e-01
2.029902e-01
2.046328e-01
2.066377e-01
2.067943e-01
2.071075e-01
2.099893e-01
2.060925e-01
2.016034e-01
2.012250e-01
2.047933e-01
2.084206e-01
2.104214e-01
2.103586e-01
2.078418e-01
2.054730e-01
2.051326e-01
2.052045e-01
2.042436e-01
2.041323e-01
2.049286e-01
2.055463e-01
2.128227e-01
2.098906e-01
2.065805e-01
2.086219e-01
2.125657e-01
2.146424e-01
2.149687e-01
2.127548e-01
2.090718e-01
2.052726e-01
2.048543e-01
2.051672e-01
2.034902e-01
2.027209e-01
2.047706e-01
2.064781e-01
2.118809e-01
2.089921e-01
2.066168e-01
2.129344e-01
2.206404e-01
2.202859e-01
2.162427e-01
2.129183e-01
2.078010e-01
2.028484e-01
2.015791e-01
2.024640e-01
2.023121e-01
2.041397e-01
2.083344e-01
2.108372e-01
2.084973e-01
2.051480e-01
2.035366e-01
2.143384e-01
2.258402e-01
2.222860e-01
2.149389e-01
2.110065e-01
2.069754e-01
2.010324e-01
1.987390e-01
2.001471e-01
2.026037e-01
2.075181e-01
2.129467e-01
2.152502e-01
2.036207e-01
2.019888e-01
2.008902e-01
2.141181e-01
2.271760e-01
2.215154e-01
2.120712e-01
2.100291e-01
2.067820e-01
2.010769e-01
1.985217e-01
2.003311e-01
2.044613e-01
2.103952e-01
2.154198e-01
2.175932e-01


9.891479e-01
9.915123e-01
9.933477e-01
9.940741e-01
9.946604e-01
9.955069e-01
9.963346e-01
9.969726e-01
9.975764e-01
9.981196e-01
9.985201e-01
9.987820e-01
9.989254e-01
9.989818e-01
9.990584e-01
9.958137e-01
9.960623e-01
9.957076e-01
9.963504e-01
9.968004e-01
9.971219e-01
9.975243e-01
9.979172e-01
9.982550e-01
9.985985e-01
9.989290e-01
9.992108e-01
9.994601e-01
9.996843e-01
9.998409e-01
9.994237e-01
9.938541e-01
9.987382e-01
9.984116e-01
9.983788e-01
9.984989e-01
9.985989e-01
9.987105e-01
9.988413e-01
9.989835e-01
9.991455e-01
9.993097e-01
9.994526e-01
9.995604e-01
9.995773e-01
9.993517e-01
9.985497e-01
9.971292e-01
9.997497e-01
9.994680e-01
9.993195e-01
9.992681e-01
9.992351e-01
9.992187e-01
9.992307e-01
9.992597e-01
9.993008e-01
9.993405e-01
9.993513e-01
9.993132e-01
9.991970e-01
9.989779e-01
9.987847e-01
9.987502e-01
9.996421e-01
9.993392e-01
9.991823e-01
9.991301e-01
9.991108e-01
9.991207e-01
9.991522e-01
9.991833e-01
9.992042e-01
9.992066e-01
9.991704e-01
9.991063e-01
9.990521e-01
9.990585e-01
9.992127e-01
9.995060e-01
9.984765e-01
9.980946e-01
9.980137e-01
9.980680e-01
9.981580e-01
9.983747e-01
9.986074e-01
9.987899e-01
9.989332e-01
9.990351e-01
9.990795e-01
9.991048e-01
9.991780e-01
9.993326e-01
9.995759e-01
9.998443e-01
9.958589e-01
9.952892e-01
9.958112e-01
9.960316e-01
9.962322e-01
9.968911e-01
9.975477e-01
9.980270e-01
9.984394e-01
9.987946e-01
9.990470e-01
9.992392e-01
9.994292e-01
9.996332e-01
9.998357e-01
9.999718e-01
9.892725e-01
9.911010e-01
9.926284e-01
9.929325e-01
9.932338e-01
9.945648e-01
9.958512e-01
9.967407e-01
9.975603e-01
9.983064e-01
9.988843e-01
9.993270e-01
9.996589e-01
9.998707e-01
9.999733e-01
9.999994e-01
1 2 19 18
2 3 20 19
3 4 21 20
4 5 22 21
5 6 23 22
6 7 24 23
7 8 25 24
8 9 26 25
9 10 27 26
10 11 28 27
11 12 29 28
12 13 30 29
13 14 31 30
14 15 32 31
15 16 33 32
16 17 34 33
18 19 36 35
19 20 37 36
20 21 38 37
21 22 39 38
22 23 40 39
23 24 41 40
24 25 42 41
25 26 43 42
26 27 44 43
27 28 45 44
28 29 46 45
29 30 47 46
30 31 48 47
31 32 49 48
32 33 50 49
33 34 51 50
35 36 53 52
36 37 54 53
37 38 55 54
38 39 56 55
39 40 57 56
40 41 58 57
41 42 59 58
42 43 60 59
43 44 61 60
44 45 62 61
45 46 63 62
46 47 64 63
47 48 65 64
48 49 66 65
49 50 67 66
50 51 68 67
52 53 70 69
53 54 71 70
54 55 72 71
55 56 73 72
56 57 74 73
57 58 75 74
58 59 76 75
59 60 77 76
60 61 78 77
61 62 79 78
62 63 80 79
63 64 81 80
64 65 82 81
65 66 83 82
66 67 84 83
67 68 85 84
69 70 87 86
70 71 88 87
71 72 89 88
72 73 90 89
73 74 91 90
74 75 92 91
75 76 93 92
76 77 94 93
77 78 95 94
78 79 96 95
79 80 97 96
80 81 98 97
81 82 99 98
82 83 100 99
83 84 101 100
84 85 102 101
86 87 104 103
87 88 105 104
88 89 106 105
89 90 107 106
90 91 108 107
91 92 109 108
92 93 110 109
93 94 111 110
94 95 112 111
95 96 113 112
96 97 114 113
97 98 115 114
98 99 116 115
99 100 117 116
100 101 118 117
101 102 119 118
103 104 121 120
104 105 122 121
105 106 123 122
106 107 124 123
107 108 125 124
108 109 126 125
109 110 127 126
110 111 128 127
111 112 129 128
112 113 130 129
113 114 131 130
114 115 132 131
115 116 133 132
116 117 134 133
117 118 135 134
118 119 136 135
120 121 138 137
121 122 139 138
122 123 140 139
123 124 141 140
124 125 142 141
125 126 143 142
126 127 144 143
127 128 145 144
128 129 146 145
129 130 147 146
130 131 148 147
131 132 149 148
132 133 150 149
133 134 151 150
134 135 152 151
135 136 153 152
