TITLE = "Solution"
VARIABLES = x, y, u, v, psiu, psiv, t, stress
ZONE T="structure" N=153 E=128 F=FEBLOCK ET=QUADRILATERAL VARLOCATION=([7,8]=cellcentered)
0.000000e+00
1.250000e+01
2.500000e+01
3.750000e+01
5.000000e+01
6.250000e+01
7.500000e+01
8.750000e+01
1.000000e+02
1.125000e+02
1.250000e+02
1.375000e+02
1.500000e+02
1.625000e+02
1.750000e+02
1.875000e+02
2.000000e+02
0.000000e+00
1.250000e+01
2.500000e+01
3.750000e+01
5.000000e+01
6.250000e+01
7.500000e+01
8.750000e+01
1.000000e+02
1.125000e+02
1.250000e+02
1.375000e+02
1.500000e+02
1.625000e+02
1.750000e+02
1.875000e+02
2.000000e+02
0.000000e+00
1.250000e+01
2.500000e+01
3.750000e+01
5.000000e+01
6.250000e+01
7.500000e+01
8.750000e+01
1.000000e+02
1.125000e+02
1.250000e+02
1.375000e+02
1.500000e+02
1.625000e+02
1.750000e+02
1.875000e+02
2.000000e+02
0.000000e+00
1.250000e+01
2.500000e+01
3.750000e+01
5.000000e+01
6.250000e+01
7.500000e+01
8.750000e+01
1.000000e+02
1.125000e+02
1.250000e+02
1.375000e+02
1.500000e+02
1.625000e+02
1.750000e+02
1.875000e+02
2.000000e+02
0.000000e+00
1.250000e+01
2.500000e+01
3.750000e+01
5.000000e+01
6.250000e+01
7.500000e+01
8.750000e+01
1.000000e+02
1.125000e+02
1.250000e+02
1.375000e+02
1.500000e+02
1.625000e+02
1.750000e+02
1.875000e+02
2.000000e+02
0.000000e+00
1.250000e+01
2.500000e+01
3.750000e+01
5.000000e+01
6.250000e+01
7.500000e+01
8.750000e+01
1.000000e+02
1.125000e+02
1.250000e+02
1.375000e+02
1.500000e+02
1.625000e+02
1.750000e+02
1.875000e+02
2.000000e+02
0.000000e+00
1.250000e+01
2.500000e+01
3.750000e+01
5.000000e+01
6.250000e+01
7.500000e+01
8.750000e+01
1.000000e+02
1.125000e+02
1.250000e+02
1.375000e+02
1.500000e+02
1.625000e+02
1.750000e+02
1.875000e+02
2.000000e+02
0.000000e+00
1.250000e+01
2.500000e+01
3.750000e+01
5.000000e+01
6.250000e+01
7.500000e+01
8.750000e+01
1.000000e+02
1.125000e+02
1.250000e+02
1.375000e+02
1.500000e+02
1.625000e+02
1.750000e+02
1.875000e+02
2.000000e+02
0.000000e+00
1.250000e+01
2.500000e+01
3.750000e+01
5.000000e+01
6.250000e+01
7.500000e+01
8.750000e+01
1.000000e+02
1.125000e+02
1.250000e+02
1.375000e+02
1.500000e+02
1.625000e+02
1.750000e+02
1.875000e+02
2.000000e+02
0.000000e+00
0.000000e+00
0.000000e+00
0.000000e+00
0.000000e+00
0.000000e+00
0.000000e+00
0.000000e+00
0.000000e+00
0.000000e+00
0.000000e+00
0.000000e+00
0.000000e+00
0.000000e+00
0.000000e+00
0.000000e+00
0.000000e+00
1.250000e+01
1.250000e+01
1.250000e+01
1.250000e+01
1.250000e+01
1.250000e+01
1.250000e+01
1.250000e+01
1.250000e+01
1.250000e+01
1.250000e+01
1.250000e+01
1.250000e+01
1.250000e+01
1.250000e+01
1.250000e+01
1.250000e+01
2.500000e+01
2.500000e+01
2.500000e+01
2.500000e+01
2.500000e+01
2.500000e+01
2.500000e+01
2.500000e+01
2.500000e+01
2.500000e+01
2.500000e+01
2.500000e+01
2.500000e+01
2.500000e+01
2.500000e+01
2.500000e+01
2.500000e+01
3.750000e+01
3.750000e+01
3.750000e+01
3.750000e+01
3.750000e+01
3.750000e+01
3.750000e+01
3.750000e+01
3.750000e+01
3.750000e+01
3.750000e+01
3.750000e+01
3.750000e+01
3.750000e+01
3.750000e+01
3.750000e+01
3.750000e+01
5.000000e+01
5.000000e+01
5.000000e+01
5.000000e+01
5.000000e+01
5.000000e+01
5.000000e+01
5.000000e+01
5.000000e+01
5.000000e+01
5.000000e+01
5.000000e+01
5.000000e+01
5.000000e+01
5.000000e+01
5.000000e+01
5.000000e+01
6.250000e+01
6.250000e+01
6.250000e+01
6.250000e+01
6.250000e+01
6.250000e+01
6.250000e+01
6.250000e+01
6.250000e+01
6.250000e+01
6.250000e+01
6.250000e+01
6.250000e+01
6.250000e+01
6.250000e+01
6.250000e+01
6.250000e+01
7.500000e+01
7.500000e+01
7.500000e+01
7.500000e+01
7.500000e+01
7.500000e+01
7.500000e+01
7.500000e+01
7.500000e+01
7.500000e+01
7.500000e+01
7.500000e+01
7.500000e+01
7.500000e+01
7.500000e+01
7.500000e+01
7.500000e+01
8.750000e+01
8.750000e+01
8.750000e+01
8.750000e+01
8.750000e+01
8.750000e+01
8.750000e+01
8.750000e+01
8.750000e+01
8.750000e+01
8.750000e+01
8.750000e+01
8.750000e+01
8.750000e+01
8.750000e+01
8.750000e+01
8.750000e+01
1.000000e+02
1.000000e+02
1.000000e+02
1.000000e+02
1.000000e+02
1.000000e+02
1.000000e+02
1.000000e+02
1.000000e+02
1.000000e+02
1.000000e+02
1.000000e+02
1.000000e+02
1.000000e+02
1.000000e+02
1.000000e+02
1.000000e+02
0.000000e+00
-1.027492e+00
-1.691435e+00
-2.418555e+00
-3.109599e+00
-3.755361e+00
-4.423517e+00
-5.005325e+00
-5.657793e+00
-6.374474e+00
-7.056945e+00
-7.742567e+00
-8.460477e+00
-9.197116e+00
-1.001009e+01
-1.071589e+01
-1.115814e+01
0.000000e+00
-4.685789e-01
-9.244656e-01
-1.421196e+00
-1.943326e+00
-2.440236e+00
-2.952399e+00
-3.430992e+00
-3.932906e+00
-4.475872e+00
-4.975384e+00
-5.469035e+00
-5.972450e+00
-6.451668e+00
-6.827384e+00
-6.931362e+00
-7.100643e+00
0.000000e+00
-1.562730e-01
-3.647328e-01
-6.578545e-01
-1.009922e+00
-1.350407e+00
-1.722193e+00
-2.091816e+00
-2.446953e+00
-2.793828e+00
-3.106873e+00
-3.412346e+00
-3.690929e+00
-3.889955e+00
-3.954710e+00
-3.933989e+00
-4.083492e+00
0.000000e+00
-7.898198e-02
-1.645564e-01
-3.195307e-01
-4.682652e-01
-6.445045e-01
-8.299336e-01
-9.935321e-01
-1.154126e+00
-1.293005e+00
-1.431646e+00
-1.553546e+00
-1.628038e+00
-1.629441e+00
-1.564680e+00
-1.556818e+00
-1.694245e+00
0.000000e+00
-2.012911e-03
-4.274358e-03
-6.342087e-03
-7.472750e-03
-6.222032e-03
-6.015298e-04
1.161035e-02
3.227253e-02
6.280827e-02
1.066779e-01
1.716604e-01
2.645867e-01
3.797713e-01
4.714697e-01
4.794287e-01
3.766863e-01
0.000000e+00
7.565662e-02
1.583862e-01
3.101565e-01
4.569350e-01
6.340802e-01
8.259006e-01
1.006315e+00
1.198307e+00
1.388504e+00
1.607216e+00
1.842789e+00
2.068938e+00
2.262359e+00
2.391493e+00
2.417169e+00
2.356374e+00
0.000000e+00
1.548201e-01
3.622696e-01
6.542557e-01
1.004726e+00
1.343344e+00
1.714253e+00
2.086054e+00
2.450672e+00
2.822010e+00
3.178384e+00
3.540876e+00
3.874080e+00
4.137756e+00
4.307110e+00
4.367406e+00
4.351752e+00
0.000000e+00
4.684790e-01
9.242983e-01
1.420452e+00
1.941904e+00
2.437459e+00
2.946786e+00
3.421424e+00
3.914879e+00
4.446011e+00
4.934191e+00
5.397957e+00
5.816932e+00
6.139917e+00
6.344847e+00
6.436232e+00
6.453005e+00
0.000000e+00
1.028631e+00
1.693647e+00
2.421886e+00
3.114485e+00
3.762414e+00
4.430801e+00
5.010746e+00
5.652040e+00
6.340684e+00
6.976246e+00
7.565149e+00
8.073352e+00
8.432932e+00
8.621836e+00
8.673024e+00
8.673072e+00
0.000000e+00
-6.293625e-01
-1.365151e+00
-2.354712e+00
-3.519757e+00
-4.846429e+00
-6.336644e+00
-7.955871e+00
-9.735371e+00
-1.167980e+01
-1.378486e+01
-1.608435e+01
-1.858059e+01
-2.127439e+01
-2.420868e+01
-2.757423e+01
-3.253183e+01
0.000000e+00
-4.252853e-01
-1.202325e+00
-2.169758e+00
-3.346057e+00
-4.670883e+00
-6.168748e+00
-7.795483e+00
-9.555328e+00
-1.150022e+01
-1.361136e+01
-1.590929e+01
-1.840484e+01
-2.110635e+01
-2.408038e+01
-2.748433e+01
-3.153832e+01
0.000000e+00
-3.953507e-01
-1.098199e+00
-2.064074e+00
-3.221080e+00
-4.537820e+00
-6.041914e+00
-7.669776e+00
-9.441017e+00
-1.138656e+01
-1.350325e+01
-1.581092e+01
-1.832243e+01
-2.105358e+01
-2.406893e+01
-2.732029e+01
-3.037224e+01
0.000000e+00
-4.473012e-01
-1.083304e+00
-2.034327e+00
-3.153412e+00
-4.456301e+00
-5.961229e+00
-7.598541e+00
-9.395813e+00
-1.133990e+01
-1.346649e+01
-1.579336e+01
-1.832444e+01
-2.106252e+01
-2.401224e+01
-2.698250e+01
-2.956060e+01
0.000000e+00
-4.519952e-01
-1.101846e+00
-2.017630e+00
-3.139793e+00
-4.437882e+00
-5.934490e+00
-7.593724e+00
-9.398126e+00
-1.135261e+01
-1.349004e+01
-1.583363e+01
-1.836501e+01
-2.106791e+01
-2.387676e+01
-2.660925e+01
-2.893753e+01
0.000000e+00
-4.470469e-01
-1.084346e+00
-2.037670e+00
-3.160216e+00
-4.468472e+00
-5.981817e+00
-7.631281e+00
-9.442825e+00
-1.140399e+01
-1.355330e+01
-1.590019e+01
-1.841652e+01
-2.105811e+01
-2.374799e+01
-2.631876e+01
-2.854355e+01
0.000000e+00
-3.953982e-01
-1.100261e+00
-2.069552e+00
-3.232017e+00
-4.557724e+00
-6.075550e+00
-7.722981e+00
-9.518248e+00
-1.149404e+01
-1.364594e+01
-1.598503e+01
-1.847917e+01
-2.106555e+01
-2.366031e+01
-2.613308e+01
-2.834359e+01
0.000000e+00
-4.254850e-01
-1.204480e+00
-2.175385e+00
-3.357601e+00
-4.692085e+00
-6.205176e+00
-7.853348e+00
-9.641717e+00
-1.162386e+01
-1.377233e+01
-1.609713e+01
-1.856678e+01
-2.110920e+01
-2.363706e+01
-2.604865e+01
-2.828945e+01
0.000000e+00
-6.298271e-01
-1.367430e+00
-2.360506e+00
-3.531553e+00
-4.867851e+00
-6.373053e+00
-8.012728e+00
-9.819313e+00
-1.179914e+01
-1.393670e+01
-1.624531e+01
-1.868513e+01
-2.118293e+01
-2.365971e+01
-2.603276e+01
-2.828921e+01


0.000000e+00
1.373991e-05
2.420963e-05
3.720983e-05
5.150043e-05
6.526437e-05
7.977835e-05
9.350881e-05
1.089479e-04
1.239015e-04
1.355422e-04
1.450341e-04
1.522851e-04
1.568425e-04
1.601317e-04
1.639203e-04
1.689488e-04
0.000000e+00
9.576545e-06
1.918017e-05
2.898469e-05
4.074954e-05
5.167574e-05
6.261758e-05
7.392874e-05
8.594273e-05
9.661425e-05
1.039780e-04
1.096614e-04
1.132684e-04
1.136701e-04
1.132079e-04
1.170202e-04
1.226336e-04
0.000000e+00
7.801903e-06
1.497381e-05
2.175454e-05
3.032728e-05
3.787363e-05
4.541424e-05
5.329308e-05
6.035403e-05
6.566899e-05
6.921450e-05
7.174668e-05
7.280702e-05
7.217415e-05
7.199426e-05
7.521717e-05
8.039293e-05
0.000000e+00
4.449176e-06
7.129138e-06
1.138160e-05
1.518121e-05
1.891128e-05
2.292221e-05
2.648869e-05
2.945175e-05
3.136124e-05
3.254070e-05
3.293537e-05
3.274879e-05
3.283081e-05
3.381638e-05
3.669108e-05
4.109217e-05
0.000000e+00
-5.742409e-08
-1.283857e-07
-1.992024e-07
-2.708120e-07
-3.334020e-07
-3.841603e-07
-4.228896e-07
-5.237923e-07
-8.329275e-07
-1.534697e-06
-2.529515e-06
-3.381372e-06
-3.444477e-06
-2.471588e-06
-9.716630e-07
1.129862e-06
0.000000e+00
-4.555457e-06
-7.334423e-06
-1.171509e-05
-1.561455e-05
-1.943898e-05
-2.351104e-05
-2.710065e-05
-3.002223e-05
-3.194490e-05
-3.358950e-05
-3.514211e-05
-3.635329e-05
-3.699969e-05
-3.746678e-05
-3.780482e-05
-3.741773e-05
0.000000e+00
-7.860157e-06
-1.508240e-05
-2.191941e-05
-3.057774e-05
-3.820666e-05
-4.582397e-05
-5.370985e-05
-6.059609e-05
-6.543300e-05
-6.811073e-05
-6.961196e-05
-7.069949e-05
-7.172703e-05
-7.276694e-05
-7.365067e-05
-7.389008e-05
0.000000e+00
-9.593475e-06
-1.919767e-05
-2.898616e-05
-4.078410e-05
-5.176175e-05
-6.273176e-05
-7.407031e-05
-8.609647e-05
-9.662179e-05
-1.029082e-04
-1.062333e-04
-1.080123e-04
-1.092661e-04
-1.101425e-04
-1.105902e-04
-1.107150e-04
0.000000e+00
-1.374171e-05
-2.416599e-05
-3.708492e-05
-5.131201e-05
-6.503151e-05
-7.944730e-05
-9.312593e-05
-1.086029e-04
-1.237383e-04
-1.350124e-04
-1.422672e-04
-1.462949e-04
-1.479986e-04
-1.484574e-04
-1.483963e-04
-1.483188e-04
0.000000e+00
1.161188e-05
2.001854e-05
3.199171e-05
4.682940e-05
6.407861e-05
8.535674e-05
1.100011e-04
1.384844e-04
1.693363e-04
2.026700e-04
2.393445e-04
2.780841e-04
3.192552e-04
3.679162e-04
4.244586e-04
4.807442e-04
0.000000e+00
6.728008e-06
1.544820e-05
2.598458e-05
4.064690e-05
5.791556e-05
7.908755e-05
1.036011e-04
1.317216e-04
1.637082e-04
1.984750e-04
2.361268e-04
2.762282e-04
3.183984e-04
3.641651e-04
4.174140e-04
4.718874e-04
0.000000e+00
3.166904e-06
1.102022e-05
2.092995e-05
3.504258e-05
5.278129e-05
7.383654e-05
9.860101e-05
1.273723e-04
1.602844e-04
1.960195e-04
2.343843e-04
2.754393e-04
3.179055e-04
3.596302e-04
4.086439e-04
4.613601e-04
0.000000e+00
1.997377e-06
8.600012e-06
1.856771e-05
3.254473e-05
5.046493e-05
7.178745e-05
9.695967e-05
1.263180e-04
1.593859e-04
1.952819e-04
2.337597e-04
2.751118e-04
3.173354e-04
3.568651e-04
4.006212e-04
4.494028e-04
0.000000e+00
1.619943e-06
7.991063e-06
1.780074e-05
3.186163e-05
4.969621e-05
7.119049e-05
9.662159e-05
1.261894e-04
1.592713e-04
1.951379e-04
2.336875e-04
2.749785e-04
3.172811e-04
3.566823e-04
3.967095e-04
4.401158e-04
0.000000e+00
2.025982e-06
8.622650e-06
1.855886e-05
3.247394e-05
5.033003e-05
7.160296e-05
9.679105e-05
1.262821e-04
1.595094e-04
1.957094e-04
2.345123e-04
2.756838e-04
3.174284e-04
3.574840e-04
3.963525e-04
4.354470e-04
0.000000e+00
3.208159e-06
1.105896e-05
2.090885e-05
3.492735e-05
5.254467e-05
7.349122e-05
9.822158e-05
1.271167e-04
1.604453e-04
1.969409e-04
2.359665e-04
2.767842e-04
3.178188e-04
3.576791e-04
3.962728e-04
4.338437e-04
0.000000e+00
6.777833e-06
1.549444e-05
2.597695e-05
4.054915e-05
5.768799e-05
7.872052e-05
1.031457e-04
1.313628e-04
1.637500e-04
1.991859e-04
2.374837e-04
2.776052e-04
3.180778e-04
3.576561e-04
3.961259e-04
4.336984e-04
0.000000e+00
1.166422e-05
2.005651e-05
3.198636e-05
4.675603e-05
6.387757e-05
8.501432e-05
1.095780e-04
1.381688e-04
1.692612e-04
2.026527e-04
2.392962e-04
2.783909e-04
3.182752e-04
3.576742e-04
3.960549e-04
4.337662e-04


6.367172e+00
6.065455e+00
6.250229e+00
5.273004e+00
4.759045e+00
5.102628e+00
4.926218e+00
4.761344e+00
4.549677e+00
4.708239e+00
5.543498e+00
6.580642e+00
7.373897e+00
8.130374e+00
8.177430e+00
7.800813e+00
7.901238e+00
8.147869e+00
8.172755e+00
7.761873e+00
7.379426e+00
7.511815e+00
7.145987e+00
6.187526e+00
5.520477e+00
5.493999e+00
6.270658e+00
7.154928e+00
7.657332e+00
7.784426e+00
7.292861e+00
6.192571e+00
9.333069e+00
9.498488e+00
9.767248e+00
9.436629e+00
9.270982e+00
9.354071e+00
8.954619e+00
8.063814e+00
7.179941e+00
7.031934e+00
7.426165e+00
7.788190e+00
7.798130e+00
7.456180e+00
6.513635e+00
5.717428e+00
9.616145e+00
9.816168e+00
9.920169e+00
9.719530e+00
9.512721e+00
9.582068e+00
9.631424e+00
9.245397e+00
8.679620e+00
8.343528e+00
8.121594e+00
7.794651e+00
7.460741e+00
7.047490e+00
6.553889e+00
6.085547e+00
9.611924e+00
9.809837e+00
9.898795e+00
9.665360e+00
9.435999e+00
9.512176e+00
9.593667e+00
9.252462e+00
8.746829e+00
8.403965e+00
8.005082e+00
7.446503e+00
7.127190e+00
7.098702e+00
7.034747e+00
6.950187e+00
9.322693e+00
9.487498e+00
9.722333e+00
9.323464e+00
9.102841e+00
9.188091e+00
8.840892e+00
8.050163e+00
7.299963e+00
7.207697e+00
7.341838e+00
7.271918e+00
7.311853e+00
7.673049e+00
8.021941e+00
8.155894e+00
7.891714e+00
8.138860e+00
8.141841e+00
7.676333e+00
7.236604e+00
7.354514e+00
7.026353e+00
6.146259e+00
5.619165e+00
5.767009e+00
6.559419e+00
7.279009e+00
7.817925e+00
8.409784e+00
8.905258e+00
9.114134e+00
6.355334e+00
6.060295e+00
6.239960e+00
5.235672e+00
4.683853e+00
5.004264e+00
4.858678e+00
4.749835e+00
4.636015e+00
5.029388e+00
6.137235e+00
7.332387e+00
8.209157e+00
8.878184e+00
9.351295e+00
9.547647e+00


-9.543260e-01
-1.199698e-01
-3.103391e-01
-2.918663e-01
-1.514480e-01
-2.246207e-01
7.242983e-04
-1.805599e-01
-4.009853e-01
-2.378666e-01
-2.318038e-01
-3.127863e-01
-2.885003e-01
-2.066105e-01
4.208267e-01
-7.383685e-01
5.770575e-01
4.857520e-01
3.201818e-01
1.873764e-01
2.391182e-01
1.413398e-01
1.923721e-01
1.728394e-01
1.204874e-01
2.539631e-01
2.739989e-01
3.080630e-01
4.788251e-01
7.195419e-01
7.319518e-01
-9.661735e-01
7.238952e-01
4.902456e-01
9.928608e-02
3.582703e-02
4.075447e-02
-3.894461e-02
1.258271e-01
2.387274e-01
3.377038e-01
3.887159e-01
3.802357e-01
4.111269e-01
4.586991e-01
3.300955e-01
5.094011e-02
-4.165397e-01
7.330668e-01
5.678248e-01
2.289511e-01
1.488237e-01
1.023181e-01
6.276815e-02
1.542894e-01
2.150433e-01
2.786609e-01
2.655785e-01
2.282770e-01
1.876724e-01
7.226970e-02
-1.714377e-01
-2.437840e-01
-9.210296e-02
7.346179e-01
5.703562e-01
2.345425e-01
1.533441e-01
1.007238e-01
4.375346e-02
1.096928e-01
1.401712e-01
1.704631e-01
1.106380e-01
2.366655e-02
-4.743866e-02
-1.412468e-01
-1.721713e-01
4.358906e-02
4.451838e-01
7.270361e-01
4.941175e-01
1.064080e-01
4.127009e-02
3.407016e-02
-7.353889e-02
4.725356e-02
1.019298e-01
1.208628e-01
5.972430e-02
-8.706972e-02
-1.467792e-01
-9.970559e-02
5.538949e-02
3.928701e-01
7.822587e-01
5.791003e-01
4.867378e-01
3.215021e-01
1.880575e-01
2.377684e-01
1.333311e-01
1.691737e-01
1.221232e-01
3.873047e-03
5.012305e-02
-1.884077e-02
-9.591522e-03
1.668312e-01
4.309266e-01
7.354846e-01
9.534464e-01
-9.567114e-01
-1.220068e-01
-3.116296e-01
-2.940013e-01
-1.535862e-01
-2.208949e-01
8.915605e-03
-1.480654e-01
-3.322601e-01
-1.482962e-01
-3.353741e-02
1.638992e-01
5.042167e-01
7.947466e-01
9.548204e-01
9.988866e-01
1 2 19 18
2 3 20 19
3 4 21 20
4 5 22 21
5 6 23 22
6 7 24 23
7 8 25 24
8 9 26 25
9 10 27 26
10 11 28 27
11 12 29 28
12 13 30 29
13 14 31 30
14 15 32 31
15 16 33 32
16 17 34 33
18 19 36 35
19 20 37 36
20 21 38 37
21 22 39 38
22 23 40 39
23 24 41 40
24 25 42 41
25 26 43 42
26 27 44 43
27 28 45 44
28 29 46 45
29 30 47 46
30 31 48 47
31 32 49 48
32 33 50 49
33 34 51 50
35 36 53 52
36 37 54 53
37 38 55 54
38 39 56 55
39 40 57 56
40 41 58 57
41 42 59 58
42 43 60 59
43 44 61 60
44 45 62 61
45 46 63 62
46 47 64 63
47 48 65 64
48 49 66 65
49 50 67 66
50 51 68 67
52 53 70 69
53 54 71 70
54 55 72 71
55 56 73 72
56 57 74 73
57 58 75 74
58 59 76 75
59 60 77 76
60 61 78 77
61 62 79 78
62 63 80 79
63 64 81 80
64 65 82 81
65 66 83 82
66 67 84 83
67 68 85 84
69 70 87 86
70 71 88 87
71 72 89 88
72 73 90 89
73 74 91 90
74 75 92 91
75 76 93 92
76 77 94 93
77 78 95 94
78 79 96 95
79 80 97 96
80 81 98 97
81 82 99 98
82 83 100 99
83 84 101 100
84 85 102 101
86 87 104 103
87 88 105 104
88 89 106 105
89 90 107 106
90 91 108 107
91 92 109 108
92 93 110 109
93 94 111 110
94 95 112 111
95 96 113 112
96 97 114 113
97 98 115 114
98 99 116 115
99 100 117 116
100 101 118 117
101 102 119 118
103 104 121 120
104 105 122 121
105 106 123 122
106 107 124 123
107 108 125 124
108 109 126 125
109 110 127 126
110 111 128 127
111 112 129 128
112 113 130 129
113 114 131 130
114 115 132 131
115 116 133 132
116 117 134 133
117 118 135 134
118 119 136 135
120 121 138 137
121 122 139 138
122 123 140 139
123 124 141 140
124 125 142 141
125 126 143 142
126 127 144 143
127 128 145 144
128 129 146 145
129 130 147 146
130 131 148 147
131 132 149 148
132 133 150 149
133 134 151 150
134 135 152 151
135 136 153 152
