TITLE = "Solution"
VARIABLES = x, y, u, v, psiu, psiv, t, stress
ZONE T="structure" N=153 E=128 F=FEBLOCK ET=QUADRILATERAL VARLOCATION=([7,8]=cellcentered)
0.000000e+00
1.250000e+01
2.500000e+01
3.750000e+01
5.000000e+01
6.250000e+01
7.500000e+01
8.750000e+01
1.000000e+02
1.125000e+02
1.250000e+02
1.375000e+02
1.500000e+02
1.625000e+02
1.750000e+02
1.875000e+02
2.000000e+02
0.000000e+00
1.250000e+01
2.500000e+01
3.750000e+01
5.000000e+01
6.250000e+01
7.500000e+01
8.750000e+01
1.000000e+02
1.125000e+02
1.250000e+02
1.375000e+02
1.500000e+02
1.625000e+02
1.750000e+02
1.875000e+02
2.000000e+02
0.000000e+00
1.250000e+01
2.500000e+01
3.750000e+01
5.000000e+01
6.250000e+01
7.500000e+01
8.750000e+01
1.000000e+02
1.125000e+02
1.250000e+02
1.375000e+02
1.500000e+02
1.625000e+02
1.750000e+02
1.875000e+02
2.000000e+02
0.000000e+00
1.250000e+01
2.500000e+01
3.750000e+01
5.000000e+01
6.250000e+01
7.500000e+01
8.750000e+01
1.000000e+02
1.125000e+02
1.250000e+02
1.375000e+02
1.500000e+02
1.625000e+02
1.750000e+02
1.875000e+02
2.000000e+02
0.000000e+00
1.250000e+01
2.500000e+01
3.750000e+01
5.000000e+01
6.250000e+01
7.500000e+01
8.750000e+01
1.000000e+02
1.125000e+02
1.250000e+02
1.375000e+02
1.500000e+02
1.625000e+02
1.750000e+02
1.875000e+02
2.000000e+02
0.000000e+00
1.250000e+01
2.500000e+01
3.750000e+01
5.000000e+01
6.250000e+01
7.500000e+01
8.750000e+01
1.000000e+02
1.125000e+02
1.250000e+02
1.375000e+02
1.500000e+02
1.625000e+02
1.750000e+02
1.875000e+02
2.000000e+02
0.000000e+00
1.250000e+01
2.500000e+01
3.750000e+01
5.000000e+01
6.250000e+01
7.500000e+01
8.750000e+01
1.000000e+02
1.125000e+02
1.250000e+02
1.375000e+02
1.500000e+02
1.625000e+02
1.750000e+02
1.875000e+02
2.000000e+02
0.000000e+00
1.250000e+01
2.500000e+01
3.750000e+01
5.000000e+01
6.250000e+01
7.500000e+01
8.750000e+01
1.000000e+02
1.125000e+02
1.250000e+02
1.375000e+02
1.500000e+02
1.625000e+02
1.750000e+02
1.875000e+02
2.000000e+02
0.000000e+00
1.250000e+01
2.500000e+01
3.750000e+01
5.000000e+01
6.250000e+01
7.500000e+01
8.750000e+01
1.000000e+02
1.125000e+02
1.250000e+02
1.375000e+02
1.500000e+02
1.625000e+02
1.750000e+02
1.875000e+02
2.000000e+02
0.000000e+00
0.000000e+00
0.000000e+00
0.000000e+00
0.000000e+00
0.000000e+00
0.000000e+00
0.000000e+00
0.000000e+00
0.000000e+00
0.000000e+00
0.000000e+00
0.000000e+00
0.000000e+00
0.000000e+00
0.000000e+00
0.000000e+00
1.250000e+01
1.250000e+01
1.250000e+01
1.250000e+01
1.250000e+01
1.250000e+01
1.250000e+01
1.250000e+01
1.250000e+01
1.250000e+01
1.250000e+01
1.250000e+01
1.250000e+01
1.250000e+01
1.250000e+01
1.250000e+01
1.250000e+01
2.500000e+01
2.500000e+01
2.500000e+01
2.500000e+01
2.500000e+01
2.500000e+01
2.500000e+01
2.500000e+01
2.500000e+01
2.500000e+01
2.500000e+01
2.500000e+01
2.500000e+01
2.500000e+01
2.500000e+01
2.500000e+01
2.500000e+01
3.750000e+01
3.750000e+01
3.750000e+01
3.750000e+01
3.750000e+01
3.750000e+01
3.750000e+01
3.750000e+01
3.750000e+01
3.750000e+01
3.750000e+01
3.750000e+01
3.750000e+01
3.750000e+01
3.750000e+01
3.750000e+01
3.750000e+01
5.000000e+01
5.000000e+01
5.000000e+01
5.000000e+01
5.000000e+01
5.000000e+01
5.000000e+01
5.000000e+01
5.000000e+01
5.000000e+01
5.000000e+01
5.000000e+01
5.000000e+01
5.000000e+01
5.000000e+01
5.000000e+01
5.000000e+01
6.250000e+01
6.250000e+01
6.250000e+01
6.250000e+01
6.250000e+01
6.250000e+01
6.250000e+01
6.250000e+01
6.250000e+01
6.250000e+01
6.250000e+01
6.250000e+01
6.250000e+01
6.250000e+01
6.250000e+01
6.250000e+01
6.250000e+01
7.500000e+01
7.500000e+01
7.500000e+01
7.500000e+01
7.500000e+01
7.500000e+01
7.500000e+01
7.500000e+01
7.500000e+01
7.500000e+01
7.500000e+01
7.500000e+01
7.500000e+01
7.500000e+01
7.500000e+01
7.500000e+01
7.500000e+01
8.750000e+01
8.750000e+01
8.750000e+01
8.750000e+01
8.750000e+01
8.750000e+01
8.750000e+01
8.750000e+01
8.750000e+01
8.750000e+01
8.750000e+01
8.750000e+01
8.750000e+01
8.750000e+01
8.750000e+01
8.750000e+01
8.750000e+01
1.000000e+02
1.000000e+02
1.000000e+02
1.000000e+02
1.000000e+02
1.000000e+02
1.000000e+02
1.000000e+02
1.000000e+02
1.000000e+02
1.000000e+02
1.000000e+02
1.000000e+02
1.000000e+02
1.000000e+02
1.000000e+02
1.000000e+02
0.000000e+00
-1.026113e+00
-1.686291e+00
-2.413097e+00
-3.112479e+00
-3.754799e+00
-4.406828e+00
-4.999154e+00
-5.665402e+00
-6.380913e+00
-7.060235e+00
-7.745666e+00
-8.478574e+00
-9.241139e+00
-9.961187e+00
-1.063691e+01
-1.108667e+01
0.000000e+00
-4.685458e-01
-9.219916e-01
-1.418505e+00
-1.949225e+00
-2.444349e+00
-2.946815e+00
-3.429614e+00
-3.939550e+00
-4.478826e+00
-4.975587e+00
-5.468496e+00
-5.980781e+00
-6.463790e+00
-6.780362e+00
-6.851071e+00
-7.012448e+00
0.000000e+00
-1.569345e-01
-3.657119e-01
-6.598670e-01
-1.016635e+00
-1.357296e+00
-1.725912e+00
-2.093820e+00
-2.447092e+00
-2.789802e+00
-3.102706e+00
-3.406422e+00
-3.682239e+00
-3.875684e+00
-3.923133e+00
-3.900379e+00
-4.062109e+00
0.000000e+00
-7.976037e-02
-1.658480e-01
-3.220568e-01
-4.729478e-01
-6.500815e-01
-8.317422e-01
-9.918986e-01
-1.147571e+00
-1.287090e+00
-1.427257e+00
-1.546448e+00
-1.612613e+00
-1.604707e+00
-1.547754e+00
-1.552412e+00
-1.685321e+00
0.000000e+00
-2.297599e-03
-4.813884e-03
-7.040464e-03
-8.307474e-03
-7.197847e-03
-1.856075e-03
9.836247e-03
3.056509e-02
6.189859e-02
1.075630e-01
1.748470e-01
2.704181e-01
3.890627e-01
4.882656e-01
4.970210e-01
3.960283e-01
0.000000e+00
7.580597e-02
1.586650e-01
3.113724e-01
4.601522e-01
6.384018e-01
8.263311e-01
1.003831e+00
1.191118e+00
1.383834e+00
1.607568e+00
1.845149e+00
2.067689e+00
2.256478e+00
2.384352e+00
2.413484e+00
2.354656e+00
0.000000e+00
1.551231e-01
3.625715e-01
6.551527e-01
1.010228e+00
1.349020e+00
1.717639e+00
2.089226e+00
2.453027e+00
2.819794e+00
3.178401e+00
3.543425e+00
3.873672e+00
4.130292e+00
4.293745e+00
4.351721e+00
4.336302e+00
0.000000e+00
4.681980e-01
9.214574e-01
1.416991e+00
1.946975e+00
2.440311e+00
2.939818e+00
3.420087e+00
3.921994e+00
4.446839e+00
4.932166e+00
5.397305e+00
5.815457e+00
6.133466e+00
6.332584e+00
6.420507e+00
6.436562e+00
0.000000e+00
1.027014e+00
1.688324e+00
2.416160e+00
3.116917e+00
3.761377e+00
4.412520e+00
5.004758e+00
5.658935e+00
6.342454e+00
6.973696e+00
7.561625e+00
8.066803e+00
8.421038e+00
8.605805e+00
8.655580e+00
8.655404e+00
0.000000e+00
-6.288927e-01
-1.362392e+00
-2.351023e+00
-3.515050e+00
-4.834611e+00
-6.314878e+00
-7.929767e+00
-9.707460e+00
-1.165040e+01
-1.375708e+01
-1.605801e+01
-1.855954e+01
-2.125045e+01
-2.417246e+01
-2.755700e+01
-3.251318e+01
0.000000e+00
-4.256710e-01
-1.200415e+00
-2.164362e+00
-3.340457e+00
-4.661938e+00
-6.148034e+00
-7.765933e+00
-9.525940e+00
-1.147163e+01
-1.358472e+01
-1.588177e+01
-1.837899e+01
-2.109454e+01
-2.405952e+01
-2.744995e+01
-3.157365e+01
0.000000e+00
-3.958772e-01
-1.096645e+00
-2.057598e+00
-3.215388e+00
-4.530523e+00
-6.021526e+00
-7.640754e+00
-9.410629e+00
-1.135813e+01
-1.347847e+01
-1.578472e+01
-1.829769e+01
-2.105150e+01
-2.405114e+01
-2.725809e+01
-3.027565e+01
0.000000e+00
-4.475393e-01
-1.081565e+00
-2.028585e+00
-3.147738e+00
-4.449898e+00
-5.942302e+00
-7.572248e+00
-9.364144e+00
-1.131141e+01
-1.344463e+01
-1.577258e+01
-1.830202e+01
-2.105405e+01
-2.399189e+01
-2.691301e+01
-2.946606e+01
0.000000e+00
-4.518842e-01
-1.099720e+00
-2.012753e+00
-3.134680e+00
-4.430815e+00
-5.918127e+00
-7.568240e+00
-9.367510e+00
-1.132475e+01
-1.347106e+01
-1.581736e+01
-1.834395e+01
-2.104395e+01
-2.385433e+01
-2.656545e+01
-2.888168e+01
0.000000e+00
-4.471395e-01
-1.082558e+00
-2.032060e+00
-3.154722e+00
-4.462816e+00
-5.963286e+00
-7.606996e+00
-9.414024e+00
-1.137824e+01
-1.353438e+01
-1.588411e+01
-1.839450e+01
-2.102755e+01
-2.371223e+01
-2.627589e+01
-2.848737e+01
0.000000e+00
-3.957776e-01
-1.098692e+00
-2.063237e+00
-3.227021e+00
-4.551732e+00
-6.056535e+00
-7.696880e+00
-9.492423e+00
-1.146965e+01
-1.362569e+01
-1.596668e+01
-1.845586e+01
-2.103285e+01
-2.361931e+01
-2.608573e+01
-2.828914e+01
0.000000e+00
-4.257122e-01
-1.202481e+00
-2.170157e+00
-3.352783e+00
-4.684608e+00
-6.186508e+00
-7.827127e+00
-9.617356e+00
-1.159964e+01
-1.375080e+01
-1.607692e+01
-1.854221e+01
-2.107563e+01
-2.359464e+01
-2.600038e+01
-2.823827e+01
0.000000e+00
-6.291805e-01
-1.364543e+00
-2.356975e+00
-3.527563e+00
-4.857414e+00
-6.353512e+00
-7.990378e+00
-9.795828e+00
-1.177369e+01
-1.391425e+01
-1.622432e+01
-1.865935e+01
-2.114805e+01
-2.361632e+01
-2.598429e+01
-2.823845e+01


0.000000e+00
1.402168e-05
2.448387e-05
3.722805e-05
5.153088e-05
6.548909e-05
7.993816e-05
9.371375e-05
1.089974e-04
1.236625e-04
1.352535e-04
1.447577e-04
1.520789e-04
1.566730e-04
1.598325e-04
1.637143e-04
1.686305e-04
0.000000e+00
9.858958e-06
1.946528e-05
2.890887e-05
4.059017e-05
5.176451e-05
6.286898e-05
7.409959e-05
8.581427e-05
9.620583e-05
1.036327e-04
1.094162e-04
1.130182e-04
1.131609e-04
1.124134e-04
1.156029e-04
1.214094e-04
0.000000e+00
8.029434e-06
1.519178e-05
2.165197e-05
3.011353e-05
3.789423e-05
4.560987e-05
5.327664e-05
6.004704e-05
6.527591e-05
6.890175e-05
7.146249e-05
7.245645e-05
7.167217e-05
7.136785e-05
7.457784e-05
8.035790e-05
0.000000e+00
4.529499e-06
7.207146e-06
1.137795e-05
1.514896e-05
1.896370e-05
2.294670e-05
2.641349e-05
2.924643e-05
3.113106e-05
3.229867e-05
3.265372e-05
3.242072e-05
3.247071e-05
3.357943e-05
3.646071e-05
4.074992e-05
0.000000e+00
-5.673572e-08
-1.240060e-07
-1.878718e-07
-2.518066e-07
-3.126083e-07
-3.841210e-07
-4.641984e-07
-6.187602e-07
-9.672441e-07
-1.687122e-06
-2.673674e-06
-3.518392e-06
-3.620751e-06
-2.716070e-06
-1.380041e-06
5.624261e-07
0.000000e+00
-4.640752e-06
-7.420853e-06
-1.171430e-05
-1.557033e-05
-1.947590e-05
-2.352430e-05
-2.708068e-05
-2.998601e-05
-3.200155e-05
-3.369534e-05
-3.520372e-05
-3.632164e-05
-3.691615e-05
-3.742533e-05
-3.784951e-05
-3.751278e-05
0.000000e+00
-8.098110e-06
-1.532174e-05
-2.183265e-05
-3.037185e-05
-3.821335e-05
-4.597951e-05
-5.366657e-05
-6.035992e-05
-6.523832e-05
-6.807758e-05
-6.960121e-05
-7.059429e-05
-7.152673e-05
-7.251213e-05
-7.338096e-05
-7.364160e-05
0.000000e+00
-9.886524e-06
-1.950008e-05
-2.891160e-05
-4.060956e-05
-5.181158e-05
-6.291428e-05
-7.418541e-05
-8.595474e-05
-9.622335e-05
-1.026116e-04
-1.060201e-04
-1.077666e-04
-1.089642e-04
-1.098024e-04
-1.102229e-04
-1.103423e-04
0.000000e+00
-1.403572e-05
-2.445192e-05
-3.709264e-05
-5.130458e-05
-6.521094e-05
-7.953547e-05
-9.329714e-05
-1.086230e-04
-1.233791e-04
-1.345235e-04
-1.417710e-04
-1.458097e-04
-1.475545e-04
-1.480370e-04
-1.479658e-04
-1.478806e-04
0.000000e+00
1.185327e-05
2.017462e-05
3.205631e-05
4.714823e-05
6.466646e-05
8.588996e-05
1.104182e-04
1.387892e-04
1.696748e-04
2.031177e-04
2.396988e-04
2.782468e-04
3.191963e-04
3.675122e-04
4.246311e-04
4.827319e-04
0.000000e+00
6.912664e-06
1.570251e-05
2.616148e-05
4.091124e-05
5.841973e-05
7.962146e-05
1.040614e-04
1.321704e-04
1.641314e-04
1.989053e-04
2.364712e-04
2.764329e-04
3.185288e-04
3.641402e-04
4.175483e-04
4.737681e-04
0.000000e+00
3.311591e-06
1.136943e-05
2.123843e-05
3.529225e-05
5.315148e-05
7.437160e-05
9.919250e-05
1.279518e-04
1.607601e-04
1.964303e-04
2.347369e-04
2.757177e-04
3.181655e-04
3.598131e-04
4.079500e-04
4.611309e-04
0.000000e+00
2.135135e-06
8.943158e-06
1.893681e-05
3.282186e-05
5.079008e-05
7.230191e-05
9.759491e-05
1.269174e-04
1.598910e-04
1.957409e-04
2.341654e-04
2.753658e-04
3.175865e-04
3.569780e-04
3.999608e-04
4.484642e-04
0.000000e+00
1.759717e-06
8.321356e-06
1.817156e-05
3.216481e-05
5.003815e-05
7.168848e-05
9.723243e-05
1.267924e-04
1.598189e-04
1.956740e-04
2.341432e-04
2.751735e-04
3.173499e-04
3.567571e-04
3.965185e-04
4.395827e-04
0.000000e+00
2.166149e-06
8.978902e-06
1.894310e-05
3.275916e-05
5.065302e-05
7.209970e-05
9.741164e-05
1.269130e-04
1.601019e-04
1.962712e-04
2.349468e-04
2.758026e-04
3.173716e-04
3.575185e-04
3.962856e-04
4.350053e-04
0.000000e+00
3.360564e-06
1.142945e-05
2.123345e-05
3.518197e-05
5.290363e-05
7.400646e-05
9.882316e-05
1.278008e-04
1.610897e-04
1.975057e-04
2.363455e-04
2.768448e-04
3.177023e-04
3.576129e-04
3.961659e-04
4.335191e-04
0.000000e+00
6.974579e-06
1.576787e-05
2.616408e-05
4.080697e-05
5.817607e-05
7.923582e-05
1.036432e-04
1.319602e-04
1.643818e-04
1.997807e-04
2.378536e-04
2.776596e-04
3.179537e-04
3.575349e-04
3.959750e-04
4.334557e-04
0.000000e+00
1.192162e-05
2.022803e-05
3.205164e-05
4.706157e-05
6.444261e-05
8.552964e-05
1.100553e-04
1.386246e-04
1.697965e-04
2.032660e-04
2.396804e-04
2.784510e-04
3.181630e-04
3.575339e-04
3.958897e-04
4.335385e-04


6.462067e+00
5.986274e+00
6.014573e+00
5.118443e+00
4.620683e+00
4.826820e+00
4.700268e+00
4.625471e+00
4.478319e+00
4.669884e+00
5.514613e+00
6.688336e+00
7.458864e+00
6.985388e+00
5.511191e+00
4.480189e+00
7.992754e+00
8.098361e+00
8.016788e+00
7.661124e+00
7.324271e+00
7.375866e+00
6.917841e+00
6.016159e+00
5.458913e+00
5.505867e+00
6.275688e+00
7.248402e+00
7.750246e+00
6.990877e+00
5.351340e+00
4.205853e+00
9.402939e+00
9.506558e+00
9.704642e+00
9.389787e+00
9.239015e+00
9.238320e+00
8.774734e+00
7.940142e+00
7.235235e+00
7.173021e+00
7.485601e+00
7.839385e+00
7.926601e+00
7.126648e+00
5.596351e+00
4.570164e+00
9.672547e+00
9.847004e+00
9.926621e+00
9.687741e+00
9.407070e+00
9.413668e+00
9.487207e+00
9.244284e+00
8.867639e+00
8.569381e+00
8.184792e+00
7.759259e+00
7.571671e+00
7.223215e+00
6.411274e+00
5.764889e+00
9.664542e+00
9.837963e+00
9.903634e+00
9.633489e+00
9.326749e+00
9.341418e+00
9.436913e+00
9.226398e+00
8.884454e+00
8.570035e+00
8.011560e+00
7.322931e+00
7.111240e+00
7.324638e+00
7.359404e+00
7.224365e+00
9.376246e+00
9.483151e+00
9.655233e+00
9.275405e+00
9.074580e+00
9.069708e+00
8.651589e+00
7.881151e+00
7.277671e+00
7.262416e+00
7.332075e+00
7.162302e+00
7.193361e+00
7.686884e+00
8.203497e+00
8.423040e+00
7.958841e+00
8.073793e+00
7.978967e+00
7.579524e+00
7.186403e+00
7.226712e+00
6.792344e+00
5.951371e+00
5.520621e+00
5.776441e+00
6.593964e+00
7.265044e+00
7.732241e+00
8.310816e+00
8.886445e+00
9.176091e+00
6.429238e+00
5.968012e+00
6.002900e+00
5.084229e+00
4.550349e+00
4.724267e+00
4.625142e+00
4.590836e+00
4.555255e+00
5.041630e+00
6.203337e+00
7.383059e+00
8.188534e+00
8.797339e+00
9.288623e+00
9.535206e+00


-9.511938e-01
-1.078148e-01
-3.098091e-01
-3.273545e-01
-1.405070e-01
-1.729241e-01
-2.628536e-02
-2.244709e-01
-3.902896e-01
-2.251313e-01
-2.288894e-01
-3.622556e-01
-3.415561e-01
7.720808e-02
5.015545e-01
-7.218568e-01
5.757710e-01
4.882402e-01
3.190608e-01
1.649282e-01
2.424722e-01
1.670438e-01
1.917296e-01
1.664201e-01
1.375724e-01
2.613286e-01
2.843280e-01
3.105520e-01
4.853485e-01
7.856014e-01
7.249437e-01
-1.470293e+00
7.228327e-01
4.928524e-01
1.062228e-01
3.095273e-02
4.603330e-02
-1.074378e-03
1.521292e-01
2.600381e-01
3.432902e-01
3.811502e-01
3.851338e-01
4.243414e-01
4.463026e-01
3.527524e-01
1.001721e-01
-4.173654e-01
7.331611e-01
5.719809e-01
2.385986e-01
1.549174e-01
1.148940e-01
9.559496e-02
1.704561e-01
2.148903e-01
2.564011e-01
2.377435e-01
2.156497e-01
1.786252e-01
2.704926e-02
-1.826390e-01
-1.207618e-01
4.715424e-02
7.349252e-01
5.745543e-01
2.443120e-01
1.598262e-01
1.136355e-01
7.960714e-02
1.289952e-01
1.452865e-01
1.520852e-01
8.463056e-02
1.337725e-02
-4.338659e-02
-1.543487e-01
-2.269816e-01
1.548579e-02
4.381129e-01
7.267043e-01
4.973762e-01
1.140630e-01
3.644773e-02
3.806072e-02
-3.459444e-02
7.246976e-02
1.256676e-01
1.290482e-01
4.398968e-02
-9.606216e-02
-1.263509e-01
-7.037918e-02
6.426173e-02
3.837245e-01
7.786731e-01
5.786068e-01
4.898112e-01
3.215882e-01
1.656228e-01
2.411706e-01
1.569028e-01
1.614892e-01
1.098323e-01
2.339077e-02
4.719157e-02
-3.008424e-02
3.275356e-04
1.952295e-01
4.540389e-01
7.444283e-01
9.559130e-01
-9.522411e-01
-1.096961e-01
-3.100728e-01
-3.290505e-01
-1.417383e-01
-1.671218e-01
-2.429629e-02
-1.910673e-01
-3.088953e-01
-1.357275e-01
-3.559615e-02
1.708193e-01
5.190665e-01
8.040372e-01
9.570721e-01
9.989890e-01
1 2 19 18
2 3 20 19
3 4 21 20
4 5 22 21
5 6 23 22
6 7 24 23
7 8 25 24
8 9 26 25
9 10 27 26
10 11 28 27
11 12 29 28
12 13 30 29
13 14 31 30
14 15 32 31
15 16 33 32
16 17 34 33
18 19 36 35
19 20 37 36
20 21 38 37
21 22 39 38
22 23 40 39
23 24 41 40
24 25 42 41
25 26 43 42
26 27 44 43
27 28 45 44
28 29 46 45
29 30 47 46
30 31 48 47
31 32 49 48
32 33 50 49
33 34 51 50
35 36 53 52
36 37 54 53
37 38 55 54
38 39 56 55
39 40 57 56
40 41 58 57
41 42 59 58
42 43 60 59
43 44 61 60
44 45 62 61
45 46 63 62
46 47 64 63
47 48 65 64
48 49 66 65
49 50 67 66
50 51 68 67
52 53 70 69
53 54 71 70
54 55 72 71
55 56 73 72
56 57 74 73
57 58 75 74
58 59 76 75
59 60 77 76
60 61 78 77
61 62 79 78
62 63 80 79
63 64 81 80
64 65 82 81
65 66 83 82
66 67 84 83
67 68 85 84
69 70 87 86
70 71 88 87
71 72 89 88
72 73 90 89
73 74 91 90
74 75 92 91
75 76 93 92
76 77 94 93
77 78 95 94
78 79 96 95
79 80 97 96
80 81 98 97
81 82 99 98
82 83 100 99
83 84 101 100
84 85 102 101
86 87 104 103
87 88 105 104
88 89 106 105
89 90 107 106
90 91 108 107
91 92 109 108
92 93 110 109
93 94 111 110
94 95 112 111
95 96 113 112
96 97 114 113
97 98 115 114
98 99 116 115
99 100 117 116
100 101 118 117
101 102 119 118
103 104 121 120
104 105 122 121
105 106 123 122
106 107 124 123
107 108 125 124
108 109 126 125
109 110 127 126
110 111 128 127
111 112 129 128
112 113 130 129
113 114 131 130
114 115 132 131
115 116 133 132
116 117 134 133
117 118 135 134
118 119 136 135
120 121 138 137
121 122 139 138
122 123 140 139
123 124 141 140
124 125 142 141
125 126 143 142
126 127 144 143
127 128 145 144
128 129 146 145
129 130 147 146
130 131 148 147
131 132 149 148
132 133 150 149
133 134 151 150
134 135 152 151
135 136 153 152
