TITLE = "Solution"
VARIABLES = x, y, u, v, psiu, psiv, t, stress
ZONE T="structure" N=153 E=128 F=FEBLOCK ET=QUADRILATERAL VARLOCATION=([7,8]=cellcentered)
0.000000e+00
1.250000e+01
2.500000e+01
3.750000e+01
5.000000e+01
6.250000e+01
7.500000e+01
8.750000e+01
1.000000e+02
1.125000e+02
1.250000e+02
1.375000e+02
1.500000e+02
1.625000e+02
1.750000e+02
1.875000e+02
2.000000e+02
0.000000e+00
1.250000e+01
2.500000e+01
3.750000e+01
5.000000e+01
6.250000e+01
7.500000e+01
8.750000e+01
1.000000e+02
1.125000e+02
1.250000e+02
1.375000e+02
1.500000e+02
1.625000e+02
1.750000e+02
1.875000e+02
2.000000e+02
0.000000e+00
1.250000e+01
2.500000e+01
3.750000e+01
5.000000e+01
6.250000e+01
7.500000e+01
8.750000e+01
1.000000e+02
1.125000e+02
1.250000e+02
1.375000e+02
1.500000e+02
1.625000e+02
1.750000e+02
1.875000e+02
2.000000e+02
0.000000e+00
1.250000e+01
2.500000e+01
3.750000e+01
5.000000e+01
6.250000e+01
7.500000e+01
8.750000e+01
1.000000e+02
1.125000e+02
1.250000e+02
1.375000e+02
1.500000e+02
1.625000e+02
1.750000e+02
1.875000e+02
2.000000e+02
0.000000e+00
1.250000e+01
2.500000e+01
3.750000e+01
5.000000e+01
6.250000e+01
7.500000e+01
8.750000e+01
1.000000e+02
1.125000e+02
1.250000e+02
1.375000e+02
1.500000e+02
1.625000e+02
1.750000e+02
1.875000e+02
2.000000e+02
0.000000e+00
1.250000e+01
2.500000e+01
3.750000e+01
5.000000e+01
6.250000e+01
7.500000e+01
8.750000e+01
1.000000e+02
1.125000e+02
1.250000e+02
1.375000e+02
1.500000e+02
1.625000e+02
1.750000e+02
1.875000e+02
2.000000e+02
0.000000e+00
1.250000e+01
2.500000e+01
3.750000e+01
5.000000e+01
6.250000e+01
7.500000e+01
8.750000e+01
1.000000e+02
1.125000e+02
1.250000e+02
1.375000e+02
1.500000e+02
1.625000e+02
1.750000e+02
1.875000e+02
2.000000e+02
0.000000e+00
1.250000e+01
2.500000e+01
3.750000e+01
5.000000e+01
6.250000e+01
7.500000e+01
8.750000e+01
1.000000e+02
1.125000e+02
1.250000e+02
1.375000e+02
1.500000e+02
1.625000e+02
1.750000e+02
1.875000e+02
2.000000e+02
0.000000e+00
1.250000e+01
2.500000e+01
3.750000e+01
5.000000e+01
6.250000e+01
7.500000e+01
8.750000e+01
1.000000e+02
1.125000e+02
1.250000e+02
1.375000e+02
1.500000e+02
1.625000e+02
1.750000e+02
1.875000e+02
2.000000e+02
0.000000e+00
0.000000e+00
0.000000e+00
0.000000e+00
0.000000e+00
0.000000e+00
0.000000e+00
0.000000e+00
0.000000e+00
0.000000e+00
0.000000e+00
0.000000e+00
0.000000e+00
0.000000e+00
0.000000e+00
0.000000e+00
0.000000e+00
1.250000e+01
1.250000e+01
1.250000e+01
1.250000e+01
1.250000e+01
1.250000e+01
1.250000e+01
1.250000e+01
1.250000e+01
1.250000e+01
1.250000e+01
1.250000e+01
1.250000e+01
1.250000e+01
1.250000e+01
1.250000e+01
1.250000e+01
2.500000e+01
2.500000e+01
2.500000e+01
2.500000e+01
2.500000e+01
2.500000e+01
2.500000e+01
2.500000e+01
2.500000e+01
2.500000e+01
2.500000e+01
2.500000e+01
2.500000e+01
2.500000e+01
2.500000e+01
2.500000e+01
2.500000e+01
3.750000e+01
3.750000e+01
3.750000e+01
3.750000e+01
3.750000e+01
3.750000e+01
3.750000e+01
3.750000e+01
3.750000e+01
3.750000e+01
3.750000e+01
3.750000e+01
3.750000e+01
3.750000e+01
3.750000e+01
3.750000e+01
3.750000e+01
5.000000e+01
5.000000e+01
5.000000e+01
5.000000e+01
5.000000e+01
5.000000e+01
5.000000e+01
5.000000e+01
5.000000e+01
5.000000e+01
5.000000e+01
5.000000e+01
5.000000e+01
5.000000e+01
5.000000e+01
5.000000e+01
5.000000e+01
6.250000e+01
6.250000e+01
6.250000e+01
6.250000e+01
6.250000e+01
6.250000e+01
6.250000e+01
6.250000e+01
6.250000e+01
6.250000e+01
6.250000e+01
6.250000e+01
6.250000e+01
6.250000e+01
6.250000e+01
6.250000e+01
6.250000e+01
7.500000e+01
7.500000e+01
7.500000e+01
7.500000e+01
7.500000e+01
7.500000e+01
7.500000e+01
7.500000e+01
7.500000e+01
7.500000e+01
7.500000e+01
7.500000e+01
7.500000e+01
7.500000e+01
7.500000e+01
7.500000e+01
7.500000e+01
8.750000e+01
8.750000e+01
8.750000e+01
8.750000e+01
8.750000e+01
8.750000e+01
8.750000e+01
8.750000e+01
8.750000e+01
8.750000e+01
8.750000e+01
8.750000e+01
8.750000e+01
8.750000e+01
8.750000e+01
8.750000e+01
8.750000e+01
1.000000e+02
1.000000e+02
1.000000e+02
1.000000e+02
1.000000e+02
1.000000e+02
1.000000e+02
1.000000e+02
1.000000e+02
1.000000e+02
1.000000e+02
1.000000e+02
1.000000e+02
1.000000e+02
1.000000e+02
1.000000e+02
1.000000e+02
0.000000e+00
-1.027221e+00
-1.690449e+00
-2.418264e+00
-3.111418e+00
-3.755488e+00
-4.420501e+00
-5.003988e+00
-5.659014e+00
-6.375438e+00
-7.057442e+00
-7.744677e+00
-8.464821e+00
-9.197750e+00
-9.994758e+00
-1.069738e+01
-1.114327e+01
0.000000e+00
-4.684203e-01
-9.236569e-01
-1.420839e+00
-1.944832e+00
-2.440868e+00
-2.950939e+00
-3.430497e+00
-3.934055e+00
-4.476330e+00
-4.975126e+00
-5.469529e+00
-5.974170e+00
-6.450066e+00
-6.817111e+00
-6.918431e+00
-7.087733e+00
0.000000e+00
-1.561509e-01
-3.644343e-01
-6.578128e-01
-1.010766e+00
-1.351120e+00
-1.722294e+00
-2.092087e+00
-2.447058e+00
-2.793060e+00
-3.105663e+00
-3.410791e+00
-3.688644e+00
-3.885792e+00
-3.948408e+00
-3.927090e+00
-4.076958e+00
0.000000e+00
-7.906661e-02
-1.646033e-01
-3.196773e-01
-4.687371e-01
-6.450123e-01
-8.299714e-01
-9.927727e-01
-1.152387e+00
-1.291088e+00
-1.429667e+00
-1.551024e+00
-1.624642e+00
-1.625442e+00
-1.561286e+00
-1.554354e+00
-1.691514e+00
0.000000e+00
-2.024165e-03
-4.292391e-03
-6.368588e-03
-7.489117e-03
-6.187365e-03
-4.797226e-04
1.193603e-02
3.301221e-02
6.401323e-02
1.082395e-01
1.733120e-01
2.660972e-01
3.811307e-01
4.728231e-01
4.805750e-01
3.783594e-01
0.000000e+00
7.576046e-02
1.584889e-01
3.103994e-01
4.575575e-01
6.348035e-01
8.262043e-01
1.005981e+00
1.197244e+00
1.388031e+00
1.607802e+00
1.843619e+00
2.069066e+00
2.262044e+00
2.391207e+00
2.417089e+00
2.356794e+00
0.000000e+00
1.547478e-01
3.620889e-01
6.544339e-01
1.005878e+00
1.344335e+00
1.714710e+00
2.086733e+00
2.451035e+00
2.821672e+00
3.178706e+00
3.541791e+00
3.874383e+00
4.137265e+00
4.306360e+00
4.366633e+00
4.351140e+00
0.000000e+00
4.683382e-01
9.235186e-01
1.420203e+00
1.943630e+00
2.438156e+00
2.945520e+00
3.421630e+00
3.916745e+00
4.446923e+00
4.934811e+00
5.399070e+00
5.817690e+00
6.139652e+00
6.343915e+00
6.435023e+00
6.451764e+00
0.000000e+00
1.028379e+00
1.692662e+00
2.421653e+00
3.116438e+00
3.762519e+00
4.427942e+00
5.010492e+00
5.654506e+00
6.342477e+00
6.977418e+00
7.566365e+00
8.073821e+00
8.432206e+00
8.620412e+00
8.671262e+00
8.671217e+00
0.000000e+00
-6.292081e-01
-1.364811e+00
-2.354870e+00
-3.520377e+00
-4.846185e+00
-6.335170e+00
-7.954015e+00
-9.733336e+00
-1.167743e+01
-1.378303e+01
-1.608385e+01
-1.858125e+01
-2.127393e+01
-2.420575e+01
-2.756894e+01
-3.252948e+01
0.000000e+00
-4.253388e-01
-1.202057e+00
-2.169412e+00
-3.346576e+00
-4.671370e+00
-6.167453e+00
-7.793020e+00
-9.553006e+00
-1.149807e+01
-1.360953e+01
-1.590831e+01
-1.840561e+01
-2.110830e+01
-2.407909e+01
-2.747787e+01
-3.153255e+01
0.000000e+00
-3.955096e-01
-1.097934e+00
-2.063460e+00
-3.221635e+00
-4.538580e+00
-6.040694e+00
-7.667298e+00
-9.438555e+00
-1.138453e+01
-1.350175e+01
-1.581013e+01
-1.832339e+01
-2.105621e+01
-2.406787e+01
-2.731277e+01
-3.035966e+01
0.000000e+00
-4.474728e-01
-1.083075e+00
-2.033821e+00
-3.153931e+00
-4.457032e+00
-5.960318e+00
-7.596418e+00
-9.393107e+00
-1.133791e+01
-1.346567e+01
-1.579334e+01
-1.832516e+01
-2.106420e+01
-2.401140e+01
-2.697500e+01
-2.954818e+01
0.000000e+00
-4.520741e-01
-1.101612e+00
-2.017311e+00
-3.140246e+00
-4.438547e+00
-5.933912e+00
-7.591743e+00
-9.395427e+00
-1.135068e+01
-1.348995e+01
-1.583431e+01
-1.836528e+01
-2.106805e+01
-2.387602e+01
-2.660409e+01
-2.892899e+01
0.000000e+00
-4.472184e-01
-1.084138e+00
-2.037177e+00
-3.160769e+00
-4.469203e+00
-5.980802e+00
-7.629323e+00
-9.440340e+00
-1.140239e+01
-1.355345e+01
-1.590113e+01
-1.841653e+01
-2.105736e+01
-2.374674e+01
-2.631526e+01
-2.853779e+01
0.000000e+00
-3.955943e-01
-1.100038e+00
-2.068966e+00
-3.232646e+00
-4.558415e+00
-6.074113e+00
-7.720609e+00
-9.516234e+00
-1.149276e+01
-1.364599e+01
-1.598587e+01
-1.847923e+01
-2.106450e+01
-2.365865e+01
-2.613015e+01
-2.833926e+01
0.000000e+00
-4.255871e-01
-1.204269e+00
-2.175091e+00
-3.358172e+00
-4.692486e+00
-6.203681e+00
-7.850975e+00
-9.640001e+00
-1.162273e+01
-1.377224e+01
-1.609777e+01
-1.856685e+01
-2.110808e+01
-2.363509e+01
-2.604578e+01
-2.828566e+01
0.000000e+00
-6.297197e-01
-1.367153e+00
-2.360748e+00
-3.532199e+00
-4.867503e+00
-6.371518e+00
-8.011121e+00
-9.817868e+00
-1.179785e+01
-1.393652e+01
-1.624582e+01
-1.868499e+01
-2.118161e+01
-2.365756e+01
-2.602983e+01
-2.828553e+01


0.000000e+00
1.380628e-05
2.427505e-05
3.720166e-05
5.146603e-05
6.526434e-05
7.981745e-05
9.356567e-05
1.089347e-04
1.237507e-04
1.352948e-04
1.447184e-04
1.519046e-04
1.564180e-04
1.597070e-04
1.635103e-04
1.685626e-04
0.000000e+00
9.642627e-06
1.925058e-05
2.896163e-05
4.067504e-05
5.165880e-05
6.268160e-05
7.398869e-05
8.589635e-05
9.643474e-05
1.037425e-04
1.093927e-04
1.129551e-04
1.133426e-04
1.129193e-04
1.167093e-04
1.223474e-04
0.000000e+00
7.853868e-06
1.502801e-05
2.173141e-05
3.026056e-05
3.786054e-05
4.545757e-05
5.329701e-05
6.026508e-05
6.551320e-05
6.903593e-05
7.155410e-05
7.260790e-05
7.199669e-05
7.185168e-05
7.507778e-05
8.027149e-05
0.000000e+00
4.462300e-06
7.142117e-06
1.137510e-05
1.516655e-05
1.890137e-05
2.290345e-05
2.644921e-05
2.938195e-05
3.127033e-05
3.244007e-05
3.284783e-05
3.269544e-05
3.281379e-05
3.382597e-05
3.669274e-05
4.106841e-05
0.000000e+00
-5.771049e-08
-1.304565e-07
-2.042190e-07
-2.778679e-07
-3.399802e-07
-3.901195e-07
-4.315337e-07
-5.405734e-07
-8.569529e-07
-1.556215e-06
-2.524509e-06
-3.331322e-06
-3.363497e-06
-2.384077e-06
-9.010069e-07
1.171791e-06
0.000000e+00
-4.566565e-06
-7.345026e-06
-1.170752e-05
-1.560101e-05
-1.942974e-05
-2.348456e-05
-2.705143e-05
-2.995165e-05
-3.187408e-05
-3.352316e-05
-3.506504e-05
-3.624609e-05
-3.687602e-05
-3.734763e-05
-3.769352e-05
-3.731462e-05
0.000000e+00
-7.911561e-06
-1.513098e-05
-2.188455e-05
-3.050090e-05
-3.818517e-05
-4.585001e-05
-5.368095e-05
-6.046958e-05
-6.525338e-05
-6.793661e-05
-6.944721e-05
-7.052337e-05
-7.154358e-05
-7.259115e-05
-7.347850e-05
-7.372004e-05
0.000000e+00
-9.660651e-06
-1.926504e-05
-2.895410e-05
-4.070379e-05
-5.174462e-05
-6.279752e-05
-7.412637e-05
-8.602445e-05
-9.639229e-05
-1.026317e-04
-1.059553e-04
-1.077268e-04
-1.089721e-04
-1.098578e-04
-1.103142e-04
-1.104413e-04
0.000000e+00
-1.380641e-05
-2.422748e-05
-3.707046e-05
-5.127571e-05
-6.503693e-05
-7.950055e-05
-9.320926e-05
-1.086003e-04
-1.235521e-04
-1.346968e-04
-1.418887e-04
-1.458867e-04
-1.475969e-04
-1.480743e-04
-1.480203e-04
-1.479444e-04
0.000000e+00
1.166886e-05
2.005491e-05
3.199600e-05
4.687997e-05
6.419576e-05
8.547634e-05
1.100789e-04
1.385106e-04
1.693398e-04
2.026706e-04
2.392912e-04
2.779334e-04
3.190068e-04
3.675025e-04
4.239296e-04
4.802325e-04
0.000000e+00
6.770233e-06
1.550932e-05
2.602649e-05
4.069590e-05
5.800181e-05
7.918655e-05
1.036954e-04
1.318072e-04
1.637685e-04
1.985061e-04
2.361002e-04
2.761015e-04
3.181527e-04
3.637804e-04
4.168692e-04
4.713043e-04
0.000000e+00
3.197730e-06
1.110233e-05
2.100982e-05
3.509656e-05
5.283449e-05
7.391867e-05
9.872213e-05
1.275041e-04
1.603806e-04
1.960742e-04
2.343817e-04
2.753225e-04
3.176461e-04
3.592631e-04
4.080821e-04
4.606743e-04
0.000000e+00
2.027648e-06
8.675320e-06
1.865144e-05
3.261285e-05
5.052897e-05
7.187392e-05
9.708196e-05
1.264460e-04
1.594862e-04
1.953567e-04
2.337796e-04
2.749838e-04
3.170522e-04
3.564874e-04
4.000945e-04
4.487080e-04
0.000000e+00
1.652337e-06
8.059399e-06
1.787534e-05
3.193566e-05
4.977744e-05
7.128574e-05
9.674006e-05
1.263101e-04
1.593737e-04
1.952326e-04
2.337212e-04
2.748321e-04
3.169689e-04
3.562986e-04
3.962371e-04
4.394976e-04
0.000000e+00
2.055040e-06
8.695219e-06
1.863889e-05
3.253987e-05
5.039557e-05
7.169401e-05
9.692182e-05
1.264227e-04
1.596284e-04
1.958096e-04
2.345351e-04
2.755150e-04
3.171059e-04
3.571051e-04
3.959030e-04
4.348856e-04
0.000000e+00
3.236761e-06
1.113666e-05
2.098175e-05
3.497672e-05
5.259735e-05
7.357817e-05
9.835976e-05
1.272811e-04
1.605790e-04
1.970308e-04
2.359608e-04
2.765998e-04
3.174976e-04
3.573064e-04
3.958331e-04
4.333053e-04
0.000000e+00
6.817173e-06
1.554890e-05
2.601027e-05
4.059320e-05
5.777345e-05
7.882091e-05
1.032553e-04
1.314827e-04
1.638524e-04
1.992542e-04
2.374571e-04
2.774201e-04
3.177648e-04
3.572839e-04
3.956829e-04
4.331634e-04
0.000000e+00
1.171773e-05
2.008425e-05
3.198156e-05
4.680377e-05
6.399578e-05
8.513640e-05
1.096679e-04
1.382130e-04
1.692896e-04
2.026868e-04
2.392558e-04
2.782047e-04
3.179711e-04
3.573027e-04
3.956111e-04
4.332313e-04


6.403162e+00
6.067792e+00
6.223222e+00
5.255131e+00
4.739112e+00
5.061648e+00
4.897889e+00
4.750340e+00
4.541188e+00
4.705926e+00
5.557556e+00
6.588380e+00
7.298875e+00
7.903402e+00
7.912618e+00
7.635810e+00
7.931899e+00
8.154451e+00
8.161558e+00
7.757303e+00
7.380088e+00
7.497072e+00
7.114954e+00
6.161300e+00
5.503943e+00
5.486924e+00
6.276144e+00
7.159766e+00
7.608195e+00
7.623068e+00
7.092727e+00
6.057053e+00
9.351211e+00
9.507561e+00
9.767964e+00
9.443389e+00
9.279616e+00
9.344193e+00
8.927172e+00
8.038286e+00
7.174195e+00
7.035330e+00
7.426754e+00
7.793199e+00
7.796436e+00
7.401124e+00
6.417978e+00
5.629556e+00
9.624537e+00
9.822068e+00
9.927762e+00
9.728084e+00
9.510415e+00
9.563797e+00
9.610620e+00
9.245356e+00
8.708237e+00
8.375516e+00
8.130183e+00
7.797883e+00
7.482800e+00
7.064589e+00
6.528130e+00
6.036304e+00
9.619409e+00
9.814591e+00
9.904646e+00
9.670656e+00
9.430086e+00
9.490814e+00
9.571365e+00
9.254931e+00
8.786662e+00
8.452020e+00
8.020194e+00
7.439509e+00
7.136443e+00
7.119137e+00
7.029172e+00
6.914262e+00
9.339033e+00
9.494857e+00
9.719794e+00
9.325037e+00
9.105413e+00
9.172810e+00
8.809483e+00
8.027160e+00
7.312855e+00
7.240563e+00
7.353061e+00
7.255256e+00
7.299346e+00
7.676463e+00
8.017667e+00
8.133483e+00
7.922014e+00
8.144438e+00
8.129059e+00
7.669318e+00
7.233756e+00
7.336031e+00
6.989526e+00
6.115555e+00
5.608682e+00
5.777065e+00
6.566772e+00
7.264891e+00
7.795720e+00
8.398755e+00
8.899864e+00
9.104490e+00
6.391815e+00
6.062335e+00
6.212339e+00
5.217187e+00
4.662038e+00
4.959385e+00
4.823642e+00
4.727967e+00
4.622733e+00
5.031140e+00
6.144686e+00
7.324965e+00
8.186242e+00
8.859197e+00
9.342477e+00
9.541931e+00


-9.532379e-01
-1.173232e-01
-3.128957e-01
-3.001292e-01
-1.463113e-01
-2.140366e-01
-4.153860e-03
-1.889940e-01
-3.989205e-01
-2.354234e-01
-2.365301e-01
-3.196115e-01
-2.729335e-01
-1.578951e-01
4.291030e-01
-7.597407e-01
5.772478e-01
4.867607e-01
3.190112e-01
1.825544e-01
2.407830e-01
1.464550e-01
1.908765e-01
1.707927e-01
1.236884e-01
2.563141e-01
2.743550e-01
3.088265e-01
4.863992e-01
7.296860e-01
7.330756e-01
-9.902894e-01
7.235906e-01
4.905703e-01
9.912312e-02
3.266725e-02
4.099215e-02
-3.366958e-02
1.300054e-01
2.428348e-01
3.400860e-01
3.893239e-01
3.811109e-01
4.116990e-01
4.580811e-01
3.332031e-01
5.760958e-02
-4.150812e-01
7.329427e-01
5.684953e-01
2.294694e-01
1.473640e-01
1.029845e-01
6.719513e-02
1.571980e-01
2.152178e-01
2.754228e-01
2.612036e-01
2.250625e-01
1.841650e-01
6.593646e-02
-1.733097e-01
-2.319141e-01
-7.813421e-02
7.345221e-01
5.711135e-01
2.353253e-01
1.522244e-01
1.017576e-01
4.849810e-02
1.120234e-01
1.388832e-01
1.643555e-01
1.028925e-01
1.945144e-02
-4.806950e-02
-1.436691e-01
-1.750782e-01
4.864109e-02
4.518841e-01
7.267056e-01
4.944493e-01
1.063646e-01
3.823097e-02
3.470646e-02
-6.780336e-02
5.095267e-02
1.054313e-01
1.207446e-01
5.484509e-02
-8.977010e-02
-1.432776e-01
-9.653327e-02
5.594100e-02
3.950490e-01
7.843103e-01
5.791743e-01
4.875918e-01
3.200045e-01
1.828317e-01
2.396843e-01
1.381134e-01
1.666422e-01
1.201573e-01
7.126571e-03
4.903429e-02
-2.103187e-02
-6.562739e-03
1.712952e-01
4.327593e-01
7.364464e-01
9.538551e-01
-9.557473e-01
-1.193569e-01
-3.144881e-01
-3.026599e-01
-1.478344e-01
-2.109786e-01
1.421318e-03
-1.567578e-01
-3.288929e-01
-1.467104e-01
-3.463091e-02
1.660605e-01
5.073923e-01
7.959125e-01
9.550963e-01
9.989075e-01
1 2 19 18
2 3 20 19
3 4 21 20
4 5 22 21
5 6 23 22
6 7 24 23
7 8 25 24
8 9 26 25
9 10 27 26
10 11 28 27
11 12 29 28
12 13 30 29
13 14 31 30
14 15 32 31
15 16 33 32
16 17 34 33
18 19 36 35
19 20 37 36
20 21 38 37
21 22 39 38
22 23 40 39
23 24 41 40
24 25 42 41
25 26 43 42
26 27 44 43
27 28 45 44
28 29 46 45
29 30 47 46
30 31 48 47
31 32 49 48
32 33 50 49
33 34 51 50
35 36 53 52
36 37 54 53
37 38 55 54
38 39 56 55
39 40 57 56
40 41 58 57
41 42 59 58
42 43 60 59
43 44 61 60
44 45 62 61
45 46 63 62
46 47 64 63
47 48 65 64
48 49 66 65
49 50 67 66
50 51 68 67
52 53 70 69
53 54 71 70
54 55 72 71
55 56 73 72
56 57 74 73
57 58 75 74
58 59 76 75
59 60 77 76
60 61 78 77
61 62 79 78
62 63 80 79
63 64 81 80
64 65 82 81
65 66 83 82
66 67 84 83
67 68 85 84
69 70 87 86
70 71 88 87
71 72 89 88
72 73 90 89
73 74 91 90
74 75 92 91
75 76 93 92
76 77 94 93
77 78 95 94
78 79 96 95
79 80 97 96
80 81 98 97
81 82 99 98
82 83 100 99
83 84 101 100
84 85 102 101
86 87 104 103
87 88 105 104
88 89 106 105
89 90 107 106
90 91 108 107
91 92 109 108
92 93 110 109
93 94 111 110
94 95 112 111
95 96 113 112
96 97 114 113
97 98 115 114
98 99 116 115
99 100 117 116
100 101 118 117
101 102 119 118
103 104 121 120
104 105 122 121
105 106 123 122
106 107 124 123
107 108 125 124
108 109 126 125
109 110 127 126
110 111 128 127
111 112 129 128
112 113 130 129
113 114 131 130
114 115 132 131
115 116 133 132
116 117 134 133
117 118 135 134
118 119 136 135
120 121 138 137
121 122 139 138
122 123 140 139
123 124 141 140
124 125 142 141
125 126 143 142
126 127 144 143
127 128 145 144
128 129 146 145
129 130 147 146
130 131 148 147
131 132 149 148
132 133 150 149
133 134 151 150
134 135 152 151
135 136 153 152
