TITLE = "Solution"
VARIABLES = x, y, u, v, psiu, psiv, t, stress
ZONE T="structure" N=153 E=128 F=FEBLOCK ET=QUADRILATERAL VARLOCATION=([7,8]=cellcentered)
0.000000e+00
1.250000e+01
2.500000e+01
3.750000e+01
5.000000e+01
6.250000e+01
7.500000e+01
8.750000e+01
1.000000e+02
1.125000e+02
1.250000e+02
1.375000e+02
1.500000e+02
1.625000e+02
1.750000e+02
1.875000e+02
2.000000e+02
0.000000e+00
1.250000e+01
2.500000e+01
3.750000e+01
5.000000e+01
6.250000e+01
7.500000e+01
8.750000e+01
1.000000e+02
1.125000e+02
1.250000e+02
1.375000e+02
1.500000e+02
1.625000e+02
1.750000e+02
1.875000e+02
2.000000e+02
0.000000e+00
1.250000e+01
2.500000e+01
3.750000e+01
5.000000e+01
6.250000e+01
7.500000e+01
8.750000e+01
1.000000e+02
1.125000e+02
1.250000e+02
1.375000e+02
1.500000e+02
1.625000e+02
1.750000e+02
1.875000e+02
2.000000e+02
0.000000e+00
1.250000e+01
2.500000e+01
3.750000e+01
5.000000e+01
6.250000e+01
7.500000e+01
8.750000e+01
1.000000e+02
1.125000e+02
1.250000e+02
1.375000e+02
1.500000e+02
1.625000e+02
1.750000e+02
1.875000e+02
2.000000e+02
0.000000e+00
1.250000e+01
2.500000e+01
3.750000e+01
5.000000e+01
6.250000e+01
7.500000e+01
8.750000e+01
1.000000e+02
1.125000e+02
1.250000e+02
1.375000e+02
1.500000e+02
1.625000e+02
1.750000e+02
1.875000e+02
2.000000e+02
0.000000e+00
1.250000e+01
2.500000e+01
3.750000e+01
5.000000e+01
6.250000e+01
7.500000e+01
8.750000e+01
1.000000e+02
1.125000e+02
1.250000e+02
1.375000e+02
1.500000e+02
1.625000e+02
1.750000e+02
1.875000e+02
2.000000e+02
0.000000e+00
1.250000e+01
2.500000e+01
3.750000e+01
5.000000e+01
6.250000e+01
7.500000e+01
8.750000e+01
1.000000e+02
1.125000e+02
1.250000e+02
1.375000e+02
1.500000e+02
1.625000e+02
1.750000e+02
1.875000e+02
2.000000e+02
0.000000e+00
1.250000e+01
2.500000e+01
3.750000e+01
5.000000e+01
6.250000e+01
7.500000e+01
8.750000e+01
1.000000e+02
1.125000e+02
1.250000e+02
1.375000e+02
1.500000e+02
1.625000e+02
1.750000e+02
1.875000e+02
2.000000e+02
0.000000e+00
1.250000e+01
2.500000e+01
3.750000e+01
5.000000e+01
6.250000e+01
7.500000e+01
8.750000e+01
1.000000e+02
1.125000e+02
1.250000e+02
1.375000e+02
1.500000e+02
1.625000e+02
1.750000e+02
1.875000e+02
2.000000e+02
0.000000e+00
0.000000e+00
0.000000e+00
0.000000e+00
0.000000e+00
0.000000e+00
0.000000e+00
0.000000e+00
0.000000e+00
0.000000e+00
0.000000e+00
0.000000e+00
0.000000e+00
0.000000e+00
0.000000e+00
0.000000e+00
0.000000e+00
1.250000e+01
1.250000e+01
1.250000e+01
1.250000e+01
1.250000e+01
1.250000e+01
1.250000e+01
1.250000e+01
1.250000e+01
1.250000e+01
1.250000e+01
1.250000e+01
1.250000e+01
1.250000e+01
1.250000e+01
1.250000e+01
1.250000e+01
2.500000e+01
2.500000e+01
2.500000e+01
2.500000e+01
2.500000e+01
2.500000e+01
2.500000e+01
2.500000e+01
2.500000e+01
2.500000e+01
2.500000e+01
2.500000e+01
2.500000e+01
2.500000e+01
2.500000e+01
2.500000e+01
2.500000e+01
3.750000e+01
3.750000e+01
3.750000e+01
3.750000e+01
3.750000e+01
3.750000e+01
3.750000e+01
3.750000e+01
3.750000e+01
3.750000e+01
3.750000e+01
3.750000e+01
3.750000e+01
3.750000e+01
3.750000e+01
3.750000e+01
3.750000e+01
5.000000e+01
5.000000e+01
5.000000e+01
5.000000e+01
5.000000e+01
5.000000e+01
5.000000e+01
5.000000e+01
5.000000e+01
5.000000e+01
5.000000e+01
5.000000e+01
5.000000e+01
5.000000e+01
5.000000e+01
5.000000e+01
5.000000e+01
6.250000e+01
6.250000e+01
6.250000e+01
6.250000e+01
6.250000e+01
6.250000e+01
6.250000e+01
6.250000e+01
6.250000e+01
6.250000e+01
6.250000e+01
6.250000e+01
6.250000e+01
6.250000e+01
6.250000e+01
6.250000e+01
6.250000e+01
7.500000e+01
7.500000e+01
7.500000e+01
7.500000e+01
7.500000e+01
7.500000e+01
7.500000e+01
7.500000e+01
7.500000e+01
7.500000e+01
7.500000e+01
7.500000e+01
7.500000e+01
7.500000e+01
7.500000e+01
7.500000e+01
7.500000e+01
8.750000e+01
8.750000e+01
8.750000e+01
8.750000e+01
8.750000e+01
8.750000e+01
8.750000e+01
8.750000e+01
8.750000e+01
8.750000e+01
8.750000e+01
8.750000e+01
8.750000e+01
8.750000e+01
8.750000e+01
8.750000e+01
8.750000e+01
1.000000e+02
1.000000e+02
1.000000e+02
1.000000e+02
1.000000e+02
1.000000e+02
1.000000e+02
1.000000e+02
1.000000e+02
1.000000e+02
1.000000e+02
1.000000e+02
1.000000e+02
1.000000e+02
1.000000e+02
1.000000e+02
1.000000e+02
0.000000e+00
-7.855004e-02
-1.407355e-01
-1.955175e-01
-2.484546e-01
-2.992019e-01
-3.454336e-01
-3.869366e-01
-4.248847e-01
-4.588577e-01
-4.886144e-01
-5.151880e-01
-5.400907e-01
-5.652752e-01
-5.933794e-01
-6.276911e-01
-6.541336e-01
0.000000e+00
-4.654376e-02
-9.383829e-02
-1.356740e-01
-1.751584e-01
-2.128534e-01
-2.471704e-01
-2.781313e-01
-3.064874e-01
-3.318629e-01
-3.539404e-01
-3.731669e-01
-3.899683e-01
-4.042148e-01
-4.142930e-01
-4.164284e-01
-4.244697e-01
0.000000e+00
-2.767590e-02
-5.613802e-02
-8.383501e-02
-1.098790e-01
-1.344056e-01
-1.568586e-01
-1.772790e-01
-1.957815e-01
-2.120536e-01
-2.258745e-01
-2.372028e-01
-2.456570e-01
-2.504088e-01
-2.504737e-01
-2.484980e-01
-2.567400e-01
0.000000e+00
-1.226923e-02
-2.508584e-02
-3.785904e-02
-5.015144e-02
-6.163802e-02
-7.225510e-02
-8.189793e-02
-9.045695e-02
-9.770139e-02
-1.034274e-01
-1.073961e-01
-1.092209e-01
-1.086976e-01
-1.067879e-01
-1.073440e-01
-1.133758e-01
0.000000e+00
1.570160e-03
3.284493e-03
4.978906e-03
6.579983e-03
8.066306e-03
9.470769e-03
1.078272e-02
1.205658e-02
1.345847e-02
1.522130e-02
1.760723e-02
2.069653e-02
2.406144e-02
2.635135e-02
2.576437e-02
2.184717e-02
0.000000e+00
1.516173e-02
3.106280e-02
4.697297e-02
6.267637e-02
7.763947e-02
9.137375e-02
1.037077e-01
1.146423e-01
1.242552e-01
1.328138e-01
1.405925e-01
1.475450e-01
1.531146e-01
1.564225e-01
1.567536e-01
1.547428e-01
0.000000e+00
2.978487e-02
6.059162e-02
9.106730e-02
1.209421e-01
1.500031e-01
1.763313e-01
1.995723e-01
2.200001e-01
2.376236e-01
2.525198e-01
2.650560e-01
2.753001e-01
2.829271e-01
2.875780e-01
2.891318e-01
2.886441e-01
0.000000e+00
4.677273e-02
9.627125e-02
1.410500e-01
1.848813e-01
2.283079e-01
2.670905e-01
3.008485e-01
3.306597e-01
3.562997e-01
3.774457e-01
3.945137e-01
4.077684e-01
4.171966e-01
4.229481e-01
4.254626e-01
4.259250e-01
0.000000e+00
7.789696e-02
1.423427e-01
2.003544e-01
2.579277e-01
3.150616e-01
3.658626e-01
4.100337e-01
4.493740e-01
4.831695e-01
5.108782e-01
5.328301e-01
5.491678e-01
5.598229e-01
5.651662e-01
5.665599e-01
5.665521e-01
0.000000e+00
-4.626870e-02
-9.029446e-02
-1.478389e-01
-2.191345e-01
-3.038925e-01
-4.009896e-01
-5.094821e-01
-6.281294e-01
-7.554324e-01
-8.902529e-01
-1.031883e+00
-1.180088e+00
-1.335738e+00
-1.503065e+00
-1.695300e+00
-1.974331e+00
0.000000e+00
-2.846366e-02
-7.534766e-02
-1.336304e-01
-2.054861e-01
-2.911675e-01
-3.895178e-01
-4.990978e-01
-6.187641e-01
-7.472125e-01
-8.831054e-01
-1.025586e+00
-1.174402e+00
-1.330534e+00
-1.497775e+00
-1.688724e+00
-1.924178e+00
0.000000e+00
-2.156440e-02
-6.481764e-02
-1.234142e-01
-1.957891e-01
-2.821656e-01
-3.813593e-01
-4.918231e-01
-6.124139e-01
-7.418066e-01
-8.786634e-01
-1.022188e+00
-1.172169e+00
-1.329457e+00
-1.496741e+00
-1.677279e+00
-1.851995e+00
0.000000e+00
-1.899361e-02
-5.963502e-02
-1.173530e-01
-1.900155e-01
-2.768256e-01
-3.765782e-01
-4.877807e-01
-6.091743e-01
-7.393447e-01
-8.770400e-01
-1.021542e+00
-1.172476e+00
-1.329845e+00
-1.493567e+00
-1.659007e+00
-1.811280e+00
0.000000e+00
-1.856070e-02
-5.831889e-02
-1.154950e-01
-1.881078e-01
-2.751633e-01
-3.752879e-01
-4.869958e-01
-6.088974e-01
-7.395989e-01
-8.778436e-01
-1.022857e+00
-1.173871e+00
-1.329748e+00
-1.488289e+00
-1.644208e+00
-1.787790e+00
0.000000e+00
-1.967036e-02
-6.029863e-02
-1.176686e-01
-1.901706e-01
-2.772867e-01
-3.775863e-01
-4.893620e-01
-6.113181e-01
-7.421477e-01
-8.805173e-01
-1.025432e+00
-1.175692e+00
-1.329353e+00
-1.483667e+00
-1.634252e+00
-1.774703e+00
0.000000e+00
-2.273151e-02
-6.594300e-02
-1.242082e-01
-1.964563e-01
-2.833973e-01
-3.834527e-01
-4.947389e-01
-6.161805e-01
-7.466233e-01
-8.846212e-01
-1.028912e+00
-1.177983e+00
-1.329561e+00
-1.480878e+00
-1.628514e+00
-1.768741e+00
0.000000e+00
-2.968566e-02
-7.691471e-02
-1.352161e-01
-2.072461e-01
-2.936130e-01
-3.927484e-01
-5.029791e-01
-6.233992e-01
-7.528928e-01
-8.899580e-01
-1.033212e+00
-1.180956e+00
-1.330854e+00
-1.480171e+00
-1.626091e+00
-1.767266e+00
0.000000e+00
-4.764766e-02
-9.256259e-02
-1.504909e-01
-2.224584e-01
-3.079239e-01
-4.053124e-01
-5.140463e-01
-6.331091e-01
-7.610827e-01
-8.966442e-01
-1.038440e+00
-1.184658e+00
-1.332981e+00
-1.480791e+00
-1.625648e+00
-1.767269e+00


0.000000e+00
-8.235324e-07
-6.105519e-07
8.587881e-07
1.706531e-06
1.860032e-06
1.866833e-06
1.886232e-06
1.912136e-06
1.937444e-06
1.958458e-06
1.974003e-06
1.983811e-06
1.988664e-06
1.990093e-06
1.989252e-06
1.987209e-06
0.000000e+00
-7.390760e-07
-4.247887e-07
8.901224e-07
1.677338e-06
1.633081e-06
1.584204e-06
1.593837e-06
1.614630e-06
1.632497e-06
1.646107e-06
1.655803e-06
1.661514e-06
1.663299e-06
1.661906e-06
1.658908e-06
1.656105e-06
0.000000e+00
-2.240382e-07
5.469522e-08
7.418274e-07
1.186172e-06
1.230034e-06
1.264232e-06
1.285179e-06
1.302004e-06
1.314430e-06
1.322982e-06
1.328576e-06
1.331196e-06
1.330853e-06
1.328530e-06
1.325897e-06
1.324092e-06
0.000000e+00
1.924987e-07
3.694160e-07
5.954877e-07
6.963366e-07
8.390518e-07
9.141132e-07
9.505383e-07
9.698446e-07
9.812003e-07
9.880609e-07
9.921129e-07
9.940381e-07
9.941981e-07
9.934996e-07
9.929131e-07
9.926373e-07
0.000000e+00
2.173823e-07
4.103643e-07
4.577715e-07
4.846145e-07
5.248048e-07
5.786933e-07
6.135768e-07
6.328031e-07
6.435861e-07
6.500435e-07
6.544395e-07
6.575141e-07
6.594045e-07
6.606976e-07
6.614836e-07
6.616406e-07
0.000000e+00
1.059179e-07
2.302369e-07
2.698018e-07
2.570872e-07
2.619464e-07
2.786698e-07
2.957797e-07
3.064027e-07
3.123489e-07
3.164635e-07
3.204457e-07
3.242596e-07
3.271520e-07
3.290495e-07
3.298998e-07
3.297619e-07
0.000000e+00
1.578747e-08
4.758239e-08
4.756377e-08
3.513047e-08
1.442489e-08
2.291731e-09
-4.391795e-09
-8.609702e-09
-1.148155e-08
-1.244175e-08
-1.121480e-08
-8.757894e-09
-6.287440e-09
-4.447582e-09
-3.705966e-09
-3.920331e-09
0.000000e+00
-9.750382e-09
-3.318350e-08
-9.379650e-08
-1.560075e-07
-2.188253e-07
-2.670532e-07
-2.993163e-07
-3.199357e-07
-3.324219e-07
-3.394248e-07
-3.426811e-07
-3.431625e-07
-3.418630e-07
-3.401244e-07
-3.390229e-07
-3.387640e-07
0.000000e+00
7.950516e-08
-3.063637e-08
-1.828951e-07
-3.402608e-07
-4.685480e-07
-5.533630e-07
-6.060787e-07
-6.379424e-07
-6.559374e-07
-6.661299e-07
-6.724489e-07
-6.762914e-07
-6.771894e-07
-6.756219e-07
-6.735996e-07
-6.727059e-07
0.000000e+00
-3.105512e-07
1.281940e-07
4.368200e-07
2.725761e-07
2.386652e-07
5.063282e-07
8.110199e-07
1.112215e-06
1.419399e-06
1.733328e-06
2.052210e-06
2.373654e-06
2.696063e-06
3.019169e-06
3.343992e-06
3.670879e-06
0.000000e+00
-1.884441e-07
-3.776202e-07
-2.137876e-07
4.241434e-08
2.376616e-07
5.084223e-07
7.966377e-07
1.098291e-06
1.408099e-06
1.725073e-06
2.046743e-06
2.370780e-06
2.695543e-06
3.020868e-06
3.347161e-06
3.674814e-06
0.000000e+00
-1.649624e-07
-6.207188e-07
-5.900295e-07
-1.604913e-07
2.236858e-07
4.956316e-07
7.824180e-07
1.085714e-06
1.399391e-06
1.719357e-06
2.043131e-06
2.369059e-06
2.696016e-06
3.023215e-06
3.350333e-06
3.678605e-06
0.000000e+00
-1.889575e-07
-5.936805e-07
-6.174437e-07
-2.482142e-07
1.436444e-07
4.600198e-07
7.635493e-07
1.074362e-06
1.392829e-06
1.715850e-06
2.041019e-06
2.367839e-06
2.696296e-06
3.024705e-06
3.351834e-06
3.679825e-06
0.000000e+00
-2.326197e-07
-5.358639e-07
-5.520588e-07
-2.661728e-07
8.045233e-08
4.173289e-07
7.391458e-07
1.060674e-06
1.385211e-06
1.711854e-06
2.038690e-06
2.366160e-06
2.695782e-06
3.025285e-06
3.352429e-06
3.679520e-06
0.000000e+00
-2.684576e-07
-5.053235e-07
-4.886466e-07
-2.489993e-07
6.043276e-08
3.868610e-07
7.173043e-07
1.047451e-06
1.377569e-06
1.707445e-06
2.035999e-06
2.364614e-06
2.695291e-06
3.025712e-06
3.353323e-06
3.680124e-06
0.000000e+00
-2.739729e-07
-4.611066e-07
-4.312555e-07
-2.251594e-07
5.763767e-08
3.754188e-07
7.057142e-07
1.039641e-06
1.372803e-06
1.704183e-06
2.033903e-06
2.363862e-06
2.695220e-06
3.026018e-06
3.354350e-06
3.682248e-06
0.000000e+00
-2.412726e-07
-4.065416e-07
-3.759328e-07
-2.019920e-07
7.064579e-08
3.810048e-07
7.077398e-07
1.040251e-06
1.372868e-06
1.703709e-06
2.033404e-06
2.363730e-06
2.695027e-06
3.025729e-06
3.354874e-06
3.684351e-06
0.000000e+00
-2.206539e-07
-3.504482e-07
-3.277341e-07
-1.607016e-07
9.914275e-08
4.003023e-07
7.197960e-07
1.047498e-06
1.376965e-06
1.705979e-06
2.034599e-06
2.364111e-06
2.694582e-06
3.025067e-06
3.354857e-06
3.685186e-06


2.249132e-01
2.088543e-01
1.974596e-01
2.032855e-01
2.104308e-01
2.096976e-01
2.088368e-01
2.143992e-01
2.167945e-01
2.148115e-01
2.155459e-01
2.206365e-01
2.276657e-01
2.300033e-01
2.297018e-01
2.372665e-01
2.221057e-01
2.144158e-01
2.075080e-01
2.100468e-01
2.163799e-01
2.159925e-01
2.167555e-01
2.210261e-01
2.217881e-01
2.195919e-01
2.199579e-01
2.233578e-01
2.286567e-01
2.311957e-01
2.335469e-01
2.365102e-01
2.287711e-01
2.236926e-01
2.179473e-01
2.187223e-01
2.225842e-01
2.253296e-01
2.275326e-01
2.299264e-01
2.292084e-01
2.268835e-01
2.267754e-01
2.273770e-01
2.287873e-01
2.309147e-01
2.320375e-01
2.348426e-01
2.375956e-01
2.320888e-01
2.260325e-01
2.256612e-01
2.299034e-01
2.335657e-01
2.360723e-01
2.366420e-01
2.339745e-01
2.312583e-01
2.305684e-01
2.299546e-01
2.279498e-01
2.269746e-01
2.280467e-01
2.296672e-01
2.386737e-01
2.348763e-01
2.308892e-01
2.344854e-01
2.395591e-01
2.418320e-01
2.423557e-01
2.398262e-01
2.354531e-01
2.308034e-01
2.298916e-01
2.294744e-01
2.267046e-01
2.252997e-01
2.279567e-01
2.307618e-01
2.374926e-01
2.343582e-01
2.317572e-01
2.411685e-01
2.516036e-01
2.510055e-01
2.458470e-01
2.415493e-01
2.345346e-01
2.279356e-01
2.258177e-01
2.262573e-01
2.256883e-01
2.280227e-01
2.338507e-01
2.377333e-01
2.372977e-01
2.332425e-01
2.307324e-01
2.446371e-01
2.600693e-01
2.548797e-01
2.457525e-01
2.407091e-01
2.348301e-01
2.262840e-01
2.227470e-01
2.241132e-01
2.271233e-01
2.336038e-01
2.411246e-01
2.447220e-01
2.339077e-01
2.326805e-01
2.289013e-01
2.451847e-01
2.619921e-01
2.538469e-01
2.420249e-01
2.402553e-01
2.355037e-01
2.270219e-01
2.229583e-01
2.250171e-01
2.303382e-01
2.381495e-01
2.451490e-01
2.485585e-01


9.862842e-01
9.895071e-01
9.918300e-01
9.925158e-01
9.931465e-01
9.943018e-01
9.953757e-01
9.961262e-01
9.968952e-01
9.976315e-01
9.981566e-01
9.984839e-01
9.986589e-01
9.987313e-01
9.988093e-01
9.944719e-01
9.950665e-01
9.946953e-01
9.955024e-01
9.959689e-01
9.963164e-01
9.968694e-01
9.973774e-01
9.977765e-01
9.982117e-01
9.986502e-01
9.990141e-01
9.993274e-01
9.996077e-01
9.998029e-01
9.992603e-01
9.919789e-01
9.984358e-01
9.980293e-01
9.979898e-01
9.981166e-01
9.982258e-01
9.983765e-01
9.985433e-01
9.987114e-01
9.989139e-01
9.991269e-01
9.993106e-01
9.994478e-01
9.994691e-01
9.991860e-01
9.981676e-01
9.963392e-01
9.996878e-01
9.993334e-01
9.991559e-01
9.990903e-01
9.990408e-01
9.990180e-01
9.990312e-01
9.990614e-01
9.991104e-01
9.991628e-01
9.991807e-01
9.991380e-01
9.989980e-01
9.987305e-01
9.984925e-01
9.984506e-01
9.995338e-01
9.991520e-01
9.989616e-01
9.988899e-01
9.988591e-01
9.988748e-01
9.989193e-01
9.989602e-01
9.989888e-01
9.989960e-01
9.989559e-01
9.988823e-01
9.988213e-01
9.988337e-01
9.990254e-01
9.993884e-01
9.980310e-01
9.975622e-01
9.974716e-01
9.975099e-01
9.975957e-01
9.978866e-01
9.981997e-01
9.984450e-01
9.986407e-01
9.987804e-01
9.988430e-01
9.988800e-01
9.989753e-01
9.991683e-01
9.994696e-01
9.998043e-01
9.946654e-01
9.939887e-01
9.947144e-01
9.949202e-01
9.950698e-01
9.959567e-01
9.968242e-01
9.974476e-01
9.979989e-01
9.984743e-01
9.988024e-01
9.990464e-01
9.992850e-01
9.995391e-01
9.997920e-01
9.999639e-01
9.862492e-01
9.886285e-01
9.907470e-01
9.909875e-01
9.911595e-01
9.929624e-01
9.946554e-01
9.957817e-01
9.968666e-01
9.978580e-01
9.986021e-01
9.991581e-01
9.995722e-01
9.998366e-01
9.999658e-01
9.999992e-01
1 2 19 18
2 3 20 19
3 4 21 20
4 5 22 21
5 6 23 22
6 7 24 23
7 8 25 24
8 9 26 25
9 10 27 26
10 11 28 27
11 12 29 28
12 13 30 29
13 14 31 30
14 15 32 31
15 16 33 32
16 17 34 33
18 19 36 35
19 20 37 36
20 21 38 37
21 22 39 38
22 23 40 39
23 24 41 40
24 25 42 41
25 26 43 42
26 27 44 43
27 28 45 44
28 29 46 45
29 30 47 46
30 31 48 47
31 32 49 48
32 33 50 49
33 34 51 50
35 36 53 52
36 37 54 53
37 38 55 54
38 39 56 55
39 40 57 56
40 41 58 57
41 42 59 58
42 43 60 59
43 44 61 60
44 45 62 61
45 46 63 62
46 47 64 63
47 48 65 64
48 49 66 65
49 50 67 66
50 51 68 67
52 53 70 69
53 54 71 70
54 55 72 71
55 56 73 72
56 57 74 73
57 58 75 74
58 59 76 75
59 60 77 76
60 61 78 77
61 62 79 78
62 63 80 79
63 64 81 80
64 65 82 81
65 66 83 82
66 67 84 83
67 68 85 84
69 70 87 86
70 71 88 87
71 72 89 88
72 73 90 89
73 74 91 90
74 75 92 91
75 76 93 92
76 77 94 93
77 78 95 94
78 79 96 95
79 80 97 96
80 81 98 97
81 82 99 98
82 83 100 99
83 84 101 100
84 85 102 101
86 87 104 103
87 88 105 104
88 89 106 105
89 90 107 106
90 91 108 107
91 92 109 108
92 93 110 109
93 94 111 110
94 95 112 111
95 96 113 112
96 97 114 113
97 98 115 114
98 99 116 115
99 100 117 116
100 101 118 117
101 102 119 118
103 104 121 120
104 105 122 121
105 106 123 122
106 107 124 123
107 108 125 124
108 109 126 125
109 110 127 126
110 111 128 127
111 112 129 128
112 113 130 129
113 114 131 130
114 115 132 131
115 116 133 132
116 117 134 133
117 118 135 134
118 119 136 135
120 121 138 137
121 122 139 138
122 123 140 139
123 124 141 140
124 125 142 141
125 126 143 142
126 127 144 143
127 128 145 144
128 129 146 145
129 130 147 146
130 131 148 147
131 132 149 148
132 133 150 149
133 134 151 150
134 135 152 151
135 136 153 152
