TITLE = "Solution"
VARIABLES = x, y, u, v, psiu, psiv, t, stress
ZONE T="structure" N=153 E=128 F=FEBLOCK ET=QUADRILATERAL VARLOCATION=([7,8]=cellcentered)
0.000000e+00
1.250000e+01
2.500000e+01
3.750000e+01
5.000000e+01
6.250000e+01
7.500000e+01
8.750000e+01
1.000000e+02
1.125000e+02
1.250000e+02
1.375000e+02
1.500000e+02
1.625000e+02
1.750000e+02
1.875000e+02
2.000000e+02
0.000000e+00
1.250000e+01
2.500000e+01
3.750000e+01
5.000000e+01
6.250000e+01
7.500000e+01
8.750000e+01
1.000000e+02
1.125000e+02
1.250000e+02
1.375000e+02
1.500000e+02
1.625000e+02
1.750000e+02
1.875000e+02
2.000000e+02
0.000000e+00
1.250000e+01
2.500000e+01
3.750000e+01
5.000000e+01
6.250000e+01
7.500000e+01
8.750000e+01
1.000000e+02
1.125000e+02
1.250000e+02
1.375000e+02
1.500000e+02
1.625000e+02
1.750000e+02
1.875000e+02
2.000000e+02
0.000000e+00
1.250000e+01
2.500000e+01
3.750000e+01
5.000000e+01
6.250000e+01
7.500000e+01
8.750000e+01
1.000000e+02
1.125000e+02
1.250000e+02
1.375000e+02
1.500000e+02
1.625000e+02
1.750000e+02
1.875000e+02
2.000000e+02
0.000000e+00
1.250000e+01
2.500000e+01
3.750000e+01
5.000000e+01
6.250000e+01
7.500000e+01
8.750000e+01
1.000000e+02
1.125000e+02
1.250000e+02
1.375000e+02
1.500000e+02
1.625000e+02
1.750000e+02
1.875000e+02
2.000000e+02
0.000000e+00
1.250000e+01
2.500000e+01
3.750000e+01
5.000000e+01
6.250000e+01
7.500000e+01
8.750000e+01
1.000000e+02
1.125000e+02
1.250000e+02
1.375000e+02
1.500000e+02
1.625000e+02
1.750000e+02
1.875000e+02
2.000000e+02
0.000000e+00
1.250000e+01
2.500000e+01
3.750000e+01
5.000000e+01
6.250000e+01
7.500000e+01
8.750000e+01
1.000000e+02
1.125000e+02
1.250000e+02
1.375000e+02
1.500000e+02
1.625000e+02
1.750000e+02
1.875000e+02
2.000000e+02
0.000000e+00
1.250000e+01
2.500000e+01
3.750000e+01
5.000000e+01
6.250000e+01
7.500000e+01
8.750000e+01
1.000000e+02
1.125000e+02
1.250000e+02
1.375000e+02
1.500000e+02
1.625000e+02
1.750000e+02
1.875000e+02
2.000000e+02
0.000000e+00
1.250000e+01
2.500000e+01
3.750000e+01
5.000000e+01
6.250000e+01
7.500000e+01
8.750000e+01
1.000000e+02
1.125000e+02
1.250000e+02
1.375000e+02
1.500000e+02
1.625000e+02
1.750000e+02
1.875000e+02
2.000000e+02
0.000000e+00
0.000000e+00
0.000000e+00
0.000000e+00
0.000000e+00
0.000000e+00
0.000000e+00
0.000000e+00
0.000000e+00
0.000000e+00
0.000000e+00
0.000000e+00
0.000000e+00
0.000000e+00
0.000000e+00
0.000000e+00
0.000000e+00
1.250000e+01
1.250000e+01
1.250000e+01
1.250000e+01
1.250000e+01
1.250000e+01
1.250000e+01
1.250000e+01
1.250000e+01
1.250000e+01
1.250000e+01
1.250000e+01
1.250000e+01
1.250000e+01
1.250000e+01
1.250000e+01
1.250000e+01
2.500000e+01
2.500000e+01
2.500000e+01
2.500000e+01
2.500000e+01
2.500000e+01
2.500000e+01
2.500000e+01
2.500000e+01
2.500000e+01
2.500000e+01
2.500000e+01
2.500000e+01
2.500000e+01
2.500000e+01
2.500000e+01
2.500000e+01
3.750000e+01
3.750000e+01
3.750000e+01
3.750000e+01
3.750000e+01
3.750000e+01
3.750000e+01
3.750000e+01
3.750000e+01
3.750000e+01
3.750000e+01
3.750000e+01
3.750000e+01
3.750000e+01
3.750000e+01
3.750000e+01
3.750000e+01
5.000000e+01
5.000000e+01
5.000000e+01
5.000000e+01
5.000000e+01
5.000000e+01
5.000000e+01
5.000000e+01
5.000000e+01
5.000000e+01
5.000000e+01
5.000000e+01
5.000000e+01
5.000000e+01
5.000000e+01
5.000000e+01
5.000000e+01
6.250000e+01
6.250000e+01
6.250000e+01
6.250000e+01
6.250000e+01
6.250000e+01
6.250000e+01
6.250000e+01
6.250000e+01
6.250000e+01
6.250000e+01
6.250000e+01
6.250000e+01
6.250000e+01
6.250000e+01
6.250000e+01
6.250000e+01
7.500000e+01
7.500000e+01
7.500000e+01
7.500000e+01
7.500000e+01
7.500000e+01
7.500000e+01
7.500000e+01
7.500000e+01
7.500000e+01
7.500000e+01
7.500000e+01
7.500000e+01
7.500000e+01
7.500000e+01
7.500000e+01
7.500000e+01
8.750000e+01
8.750000e+01
8.750000e+01
8.750000e+01
8.750000e+01
8.750000e+01
8.750000e+01
8.750000e+01
8.750000e+01
8.750000e+01
8.750000e+01
8.750000e+01
8.750000e+01
8.750000e+01
8.750000e+01
8.750000e+01
8.750000e+01
1.000000e+02
1.000000e+02
1.000000e+02
1.000000e+02
1.000000e+02
1.000000e+02
1.000000e+02
1.000000e+02
1.000000e+02
1.000000e+02
1.000000e+02
1.000000e+02
1.000000e+02
1.000000e+02
1.000000e+02
1.000000e+02
1.000000e+02
0.000000e+00
-1.027466e+00
-1.691185e+00
-2.418515e+00
-3.110263e+00
-3.755502e+00
-4.422504e+00
-5.004910e+00
-5.658410e+00
-6.375040e+00
-7.057353e+00
-7.743569e+00
-8.461898e+00
-9.196566e+00
-1.000515e+01
-1.071061e+01
-1.115374e+01
0.000000e+00
-4.685389e-01
-9.242103e-01
-1.421068e+00
-1.943861e+00
-2.440530e+00
-2.951959e+00
-3.430900e+00
-3.933471e+00
-4.476182e+00
-4.975416e+00
-5.469375e+00
-5.973058e+00
-6.450853e+00
-6.824249e+00
-6.927677e+00
-7.097000e+00
0.000000e+00
-1.562041e-01
-3.645892e-01
-6.577978e-01
-1.010234e+00
-1.350734e+00
-1.722332e+00
-2.092026e+00
-2.447117e+00
-2.793630e+00
-3.106496e+00
-3.411901e+00
-3.690278e+00
-3.888713e+00
-3.952922e+00
-3.932019e+00
-4.081585e+00
0.000000e+00
-7.898132e-02
-1.645380e-01
-3.195952e-01
-4.685007e-01
-6.447982e-01
-8.300356e-01
-9.933370e-01
-1.153547e+00
-1.292337e+00
-1.430981e+00
-1.552773e+00
-1.627096e+00
-1.628436e+00
-1.563875e+00
-1.556254e+00
-1.693622e+00
0.000000e+00
-2.027635e-03
-4.307943e-03
-6.400756e-03
-7.550073e-03
-6.293073e-03
-6.382080e-04
1.166248e-02
3.248768e-02
6.318055e-02
1.071334e-01
1.720740e-01
2.648648e-01
3.799307e-01
4.715525e-01
4.794227e-01
3.768810e-01
0.000000e+00
7.564556e-02
1.583504e-01
3.101854e-01
4.571147e-01
6.342975e-01
8.259081e-01
1.006068e+00
1.197770e+00
1.388165e+00
1.607265e+00
1.842912e+00
2.068803e+00
2.262110e+00
2.391292e+00
2.417028e+00
2.356427e+00
0.000000e+00
1.547589e-01
3.621529e-01
6.542574e-01
1.005106e+00
1.343679e+00
1.714351e+00
2.086170e+00
2.450670e+00
2.821766e+00
3.178396e+00
3.541104e+00
3.874088e+00
4.137560e+00
4.306915e+00
4.367237e+00
4.351649e+00
0.000000e+00
4.684330e-01
9.240269e-01
1.420325e+00
1.942473e+00
2.437708e+00
2.946302e+00
3.421428e+00
3.915531e+00
4.446371e+00
4.934452e+00
5.398368e+00
5.817178e+00
6.139847e+00
6.344630e+00
6.435958e+00
6.452726e+00
0.000000e+00
1.028592e+00
1.693355e+00
2.421804e+00
3.115130e+00
3.762470e+00
4.429750e+00
5.010626e+00
5.653017e+00
6.341500e+00
6.976826e+00
7.565688e+00
8.073577e+00
8.432791e+00
8.621516e+00
8.672592e+00
8.672607e+00
0.000000e+00
-6.293583e-01
-1.365145e+00
-2.354946e+00
-3.520221e+00
-4.846625e+00
-6.336384e+00
-7.955464e+00
-9.734933e+00
-1.167929e+01
-1.378466e+01
-1.608478e+01
-1.858140e+01
-2.127475e+01
-2.420827e+01
-2.757277e+01
-3.253090e+01
0.000000e+00
-4.253422e-01
-1.202346e+00
-2.169823e+00
-3.346479e+00
-4.671328e+00
-6.168555e+00
-7.794844e+00
-9.554770e+00
-1.149979e+01
-1.361115e+01
-1.590957e+01
-1.840581e+01
-2.110747e+01
-2.408033e+01
-2.748263e+01
-3.153631e+01
0.000000e+00
-3.954473e-01
-1.098220e+00
-2.064042e+00
-3.221510e+00
-4.538368e+00
-6.041727e+00
-7.669119e+00
-9.440409e+00
-1.138616e+01
-1.350314e+01
-1.581126e+01
-1.832346e+01
-2.105487e+01
-2.406897e+01
-2.731844e+01
-3.036881e+01
0.000000e+00
-4.474210e-01
-1.083324e+00
-2.034328e+00
-3.153845e+00
-4.456861e+00
-5.961120e+00
-7.597995e+00
-9.395106e+00
-1.133950e+01
-1.346661e+01
-1.579392e+01
-1.832531e+01
-2.106358e+01
-2.401246e+01
-2.698070e+01
-2.955718e+01
0.000000e+00
-4.520888e-01
-1.101865e+00
-2.017681e+00
-3.140221e+00
-4.438412e+00
-5.934487e+00
-7.593198e+00
-9.397392e+00
-1.135222e+01
-1.349043e+01
-1.583440e+01
-1.836568e+01
-2.106857e+01
-2.387713e+01
-2.660813e+01
-2.893527e+01
0.000000e+00
-4.471627e-01
-1.084367e+00
-2.037664e+00
-3.160644e+00
-4.469005e+00
-5.981628e+00
-7.630739e+00
-9.442147e+00
-1.140373e+01
-1.355381e+01
-1.590107e+01
-1.841709e+01
-2.105852e+01
-2.374836e+01
-2.631835e+01
-2.854246e+01
0.000000e+00
-3.955048e-01
-1.100287e+00
-2.069504e+00
-3.232431e+00
-4.558184e+00
-6.075203e+00
-7.722276e+00
-9.517738e+00
-1.149391e+01
-1.364644e+01
-1.598589e+01
-1.847977e+01
-2.106588e+01
-2.366061e+01
-2.613300e+01
-2.834309e+01
0.000000e+00
-4.255563e-01
-1.204508e+00
-2.175437e+00
-3.357983e+00
-4.692415e+00
-6.204807e+00
-7.852644e+00
-9.641326e+00
-1.162381e+01
-1.377278e+01
-1.609792e+01
-1.856740e+01
-2.110953e+01
-2.363726e+01
-2.604862e+01
-2.828913e+01
0.000000e+00
-6.298315e-01
-1.367428e+00
-2.360734e+00
-3.531963e+00
-4.867916e+00
-6.372657e+00
-8.012311e+00
-9.819047e+00
-1.179904e+01
-1.393711e+01
-1.624604e+01
-1.868569e+01
-2.118320e+01
-2.365985e+01
-2.603271e+01
-2.828893e+01


0.000000e+00
1.377599e-05
2.424186e-05
3.721061e-05
5.149754e-05
6.528203e-05
7.980283e-05
9.352894e-05
1.089649e-04
1.239406e-04
1.356202e-04
1.451320e-04
1.523812e-04
1.569514e-04
1.602671e-04
1.640641e-04
1.690899e-04
0.000000e+00
9.611174e-06
1.921038e-05
2.897032e-05
4.072374e-05
5.168105e-05
6.264366e-05
7.394060e-05
8.594030e-05
9.663499e-05
1.040423e-04
1.097397e-04
1.133376e-04
1.137495e-04
1.133102e-04
1.171140e-04
1.227245e-04
0.000000e+00
7.827396e-06
1.499305e-05
2.173629e-05
3.030008e-05
3.787271e-05
4.543044e-05
5.329423e-05
6.034609e-05
6.568131e-05
6.925403e-05
7.179564e-05
7.285625e-05
7.222997e-05
7.205736e-05
7.527721e-05
8.045468e-05
0.000000e+00
4.456733e-06
7.132015e-06
1.137717e-05
1.517392e-05
1.890702e-05
2.291893e-05
2.648642e-05
2.945194e-05
3.136768e-05
3.255489e-05
3.296020e-05
3.278182e-05
3.286966e-05
3.385795e-05
3.673559e-05
4.113945e-05
0.000000e+00
-5.697758e-08
-1.277031e-07
-1.986647e-07
-2.705078e-07
-3.331954e-07
-3.843579e-07
-4.237351e-07
-5.250748e-07
-8.334183e-07
-1.532225e-06
-2.521087e-06
-3.367244e-06
-3.427258e-06
-2.447909e-06
-9.419154e-07
1.162890e-06
0.000000e+00
-4.562925e-06
-7.336541e-06
-1.170828e-05
-1.560347e-05
-1.942996e-05
-2.350177e-05
-2.709399e-05
-3.002091e-05
-3.195178e-05
-3.359860e-05
-3.514959e-05
-3.636107e-05
-3.700889e-05
-3.747493e-05
-3.780900e-05
-3.741846e-05
0.000000e+00
-7.887547e-06
-1.510281e-05
-2.189863e-05
-3.054487e-05
-3.819817e-05
-4.583100e-05
-5.370126e-05
-6.058204e-05
-6.544352e-05
-6.814405e-05
-6.964525e-05
-7.072930e-05
-7.176059e-05
-7.280472e-05
-7.369014e-05
-7.392915e-05
0.000000e+00
-9.630127e-06
-1.922936e-05
-2.897009e-05
-4.075507e-05
-5.176373e-05
-6.275518e-05
-7.407923e-05
-8.608672e-05
-9.662953e-05
-1.029543e-04
-1.062902e-04
-1.080641e-04
-1.093189e-04
-1.102002e-04
-1.106511e-04
-1.107767e-04
0.000000e+00
-1.377845e-05
-2.419819e-05
-3.708379e-05
-5.130764e-05
-6.504957e-05
-7.947428e-05
-9.315075e-05
-1.086155e-04
-1.237553e-04
-1.350571e-04
-1.423310e-04
-1.463676e-04
-1.480774e-04
-1.485390e-04
-1.484785e-04
-1.484014e-04
0.000000e+00
1.163867e-05
2.003425e-05
3.200173e-05
4.687226e-05
6.415465e-05
8.543363e-05
1.100738e-04
1.385769e-04
1.694714e-04
2.028376e-04
2.395219e-04
2.782736e-04
3.194785e-04
3.681565e-04
4.247313e-04
4.810789e-04
0.000000e+00
6.748470e-06
1.547685e-05
2.600866e-05
4.068470e-05
5.797947e-05
7.916325e-05
1.036795e-04
1.318123e-04
1.638257e-04
1.986258e-04
2.363019e-04
2.764195e-04
3.186133e-04
3.644120e-04
4.176942e-04
4.722213e-04
0.000000e+00
3.183087e-06
1.105957e-05
2.096844e-05
3.507745e-05
5.283086e-05
7.390925e-05
9.868748e-05
1.274647e-04
1.603905e-04
1.961589e-04
2.345572e-04
2.756303e-04
3.181154e-04
3.598800e-04
4.089253e-04
4.616818e-04
0.000000e+00
2.013069e-06
8.635410e-06
1.860746e-05
3.258270e-05
5.051240e-05
7.185549e-05
9.704437e-05
1.264098e-04
1.594919e-04
1.954202e-04
2.339287e-04
2.752973e-04
3.175399e-04
3.571026e-04
4.008947e-04
4.497085e-04
0.000000e+00
1.635860e-06
8.023329e-06
1.783724e-05
3.190168e-05
4.974674e-05
7.125658e-05
9.670328e-05
1.262823e-04
1.593825e-04
1.952790e-04
2.338519e-04
2.751563e-04
3.174810e-04
3.569080e-04
3.969695e-04
4.404116e-04
0.000000e+00
2.041409e-06
8.658090e-06
1.859810e-05
3.251103e-05
5.037696e-05
7.167170e-05
9.687837e-05
1.263789e-04
1.596230e-04
1.958503e-04
2.346719e-04
2.758568e-04
3.176281e-04
3.577108e-04
3.966061e-04
4.357368e-04
0.000000e+00
3.224156e-06
1.109802e-05
2.094541e-05
3.495978e-05
5.259274e-05
7.356537e-05
9.831408e-05
1.272195e-04
1.605622e-04
1.970809e-04
2.361223e-04
2.769557e-04
3.180206e-04
3.579117e-04
3.965298e-04
4.341287e-04
0.000000e+00
6.798397e-06
1.552177e-05
2.599747e-05
4.058320e-05
5.775021e-05
7.879731e-05
1.032305e-04
1.314646e-04
1.638771e-04
1.993346e-04
2.376405e-04
2.777770e-04
3.182816e-04
3.578909e-04
3.963847e-04
4.339802e-04
0.000000e+00
1.169129e-05
2.006997e-05
3.199182e-05
4.679514e-05
6.395230e-05
8.509270e-05
1.096561e-04
1.382672e-04
1.693999e-04
2.028161e-04
2.394579e-04
2.785643e-04
3.184802e-04
3.579096e-04
3.963144e-04
4.340475e-04


6.379889e+00
6.066275e+00
6.240988e+00
5.267238e+00
4.751455e+00
5.086374e+00
4.916412e+00
4.759143e+00
4.547107e+00
4.707821e+00
5.549124e+00
6.580347e+00
7.345135e+00
8.078480e+00
8.142272e+00
7.787275e+00
7.912178e+00
8.150523e+00
8.169737e+00
7.762137e+00
7.380301e+00
7.506095e+00
7.135202e+00
6.178553e+00
5.514017e+00
5.491463e+00
6.273715e+00
7.155292e+00
7.637080e+00
7.745911e+00
7.259027e+00
6.177346e+00
9.340926e+00
9.503064e+00
9.769626e+00
9.441779e+00
9.275216e+00
9.349807e+00
8.944364e+00
8.054073e+00
7.176819e+00
7.033418e+00
7.428363e+00
7.791251e+00
7.797036e+00
7.442623e+00
6.496159e+00
5.702385e+00
9.622364e+00
9.821226e+00
9.925916e+00
9.725531e+00
9.512229e+00
9.573594e+00
9.622814e+00
9.245343e+00
8.690673e+00
8.357075e+00
8.127525e+00
7.798314e+00
7.469478e+00
7.053178e+00
6.546616e+00
6.070480e+00
9.617899e+00
9.814527e+00
9.903723e+00
9.669628e+00
9.433457e+00
9.502068e+00
9.584683e+00
9.254429e+00
8.764061e+00
8.424962e+00
8.013299e+00
7.445644e+00
7.131242e+00
7.104063e+00
7.027510e+00
6.930919e+00
9.330080e+00
9.491515e+00
9.723009e+00
9.325322e+00
9.102992e+00
9.180449e+00
8.829041e+00
8.043201e+00
7.307080e+00
7.222407e+00
7.347071e+00
7.265768e+00
7.307816e+00
7.673820e+00
8.016358e+00
8.141166e+00
7.902668e+00
8.141090e+00
8.137618e+00
7.674258e+00
7.234302e+00
7.345815e+00
7.012704e+00
6.136173e+00
5.616415e+00
5.771155e+00
6.561370e+00
7.272546e+00
7.810328e+00
8.407279e+00
8.902567e+00
9.107458e+00
6.368307e+00
6.060874e+00
6.229917e+00
5.228761e+00
4.674412e+00
4.985412e+00
4.845477e+00
4.743094e+00
4.631534e+00
5.029445e+00
6.138399e+00
7.328025e+00
8.201398e+00
8.873717e+00
9.349224e+00
9.544709e+00


-9.541694e-01
-1.191190e-01
-3.111036e-01
-2.947128e-01
-1.499074e-01
-2.207987e-01
-1.026086e-03
-1.839495e-01
-4.003230e-01
-2.369852e-01
-2.336261e-01
-3.140745e-01
-2.812143e-01
-1.932193e-01
4.221424e-01
-7.438073e-01
5.771204e-01
4.860869e-01
3.197976e-01
1.855525e-01
2.394844e-01
1.431020e-01
1.918082e-01
1.719496e-01
1.217049e-01
2.548174e-01
2.738614e-01
3.083494e-01
4.816717e-01
7.222676e-01
7.323139e-01
-9.709619e-01
7.237517e-01
4.902744e-01
9.897506e-02
3.437330e-02
4.055249e-02
-3.697534e-02
1.273893e-01
2.402389e-01
3.386431e-01
3.888234e-01
3.801541e-01
4.110072e-01
4.585764e-01
3.309720e-01
5.280529e-02
-4.160844e-01
7.329198e-01
5.679125e-01
2.288582e-01
1.480467e-01
1.024786e-01
6.460516e-02
1.553871e-01
2.150182e-01
2.773290e-01
2.636622e-01
2.267176e-01
1.862892e-01
7.030022e-02
-1.719790e-01
-2.402670e-01
-8.794813e-02
7.344907e-01
5.705012e-01
2.346188e-01
1.527878e-01
1.011025e-01
4.572304e-02
1.104834e-01
1.394139e-01
1.678622e-01
1.073906e-01
2.190531e-02
-4.759364e-02
-1.419636e-01
-1.726792e-01
4.615412e-02
4.481379e-01
7.269023e-01
4.941925e-01
1.062666e-01
4.006702e-02
3.427164e-02
-7.114926e-02
4.873968e-02
1.031220e-01
1.206721e-01
5.775773e-02
-8.807440e-02
-1.453988e-01
-9.872071e-02
5.550216e-02
3.939952e-01
7.832084e-01
5.791464e-01
4.870401e-01
3.210273e-01
1.861482e-01
2.383695e-01
1.352267e-01
1.684846e-01
1.213640e-01
4.955043e-03
4.971078e-02
-1.951904e-02
-8.349090e-03
1.681794e-01
4.312366e-01
7.357707e-01
9.535925e-01
-9.565153e-01
-1.210855e-01
-3.124346e-01
-2.969621e-01
-1.517540e-01
-2.171790e-01
6.316772e-03
-1.515251e-01
-3.313270e-01
-1.477087e-01
-3.375416e-02
1.648322e-01
5.051880e-01
7.949948e-01
9.548935e-01
9.988937e-01
1 2 19 18
2 3 20 19
3 4 21 20
4 5 22 21
5 6 23 22
6 7 24 23
7 8 25 24
8 9 26 25
9 10 27 26
10 11 28 27
11 12 29 28
12 13 30 29
13 14 31 30
14 15 32 31
15 16 33 32
16 17 34 33
18 19 36 35
19 20 37 36
20 21 38 37
21 22 39 38
22 23 40 39
23 24 41 40
24 25 42 41
25 26 43 42
26 27 44 43
27 28 45 44
28 29 46 45
29 30 47 46
30 31 48 47
31 32 49 48
32 33 50 49
33 34 51 50
35 36 53 52
36 37 54 53
37 38 55 54
38 39 56 55
39 40 57 56
40 41 58 57
41 42 59 58
42 43 60 59
43 44 61 60
44 45 62 61
45 46 63 62
46 47 64 63
47 48 65 64
48 49 66 65
49 50 67 66
50 51 68 67
52 53 70 69
53 54 71 70
54 55 72 71
55 56 73 72
56 57 74 73
57 58 75 74
58 59 76 75
59 60 77 76
60 61 78 77
61 62 79 78
62 63 80 79
63 64 81 80
64 65 82 81
65 66 83 82
66 67 84 83
67 68 85 84
69 70 87 86
70 71 88 87
71 72 89 88
72 73 90 89
73 74 91 90
74 75 92 91
75 76 93 92
76 77 94 93
77 78 95 94
78 79 96 95
79 80 97 96
80 81 98 97
81 82 99 98
82 83 100 99
83 84 101 100
84 85 102 101
86 87 104 103
87 88 105 104
88 89 106 105
89 90 107 106
90 91 108 107
91 92 109 108
92 93 110 109
93 94 111 110
94 95 112 111
95 96 113 112
96 97 114 113
97 98 115 114
98 99 116 115
99 100 117 116
100 101 118 117
101 102 119 118
103 104 121 120
104 105 122 121
105 106 123 122
106 107 124 123
107 108 125 124
108 109 126 125
109 110 127 126
110 111 128 127
111 112 129 128
112 113 130 129
113 114 131 130
114 115 132 131
115 116 133 132
116 117 134 133
117 118 135 134
118 119 136 135
120 121 138 137
121 122 139 138
122 123 140 139
123 124 141 140
124 125 142 141
125 126 143 142
126 127 144 143
127 128 145 144
128 129 146 145
129 130 147 146
130 131 148 147
131 132 149 148
132 133 150 149
133 134 151 150
134 135 152 151
135 136 153 152
