TITLE = "Solution"
VARIABLES = x, y, u, v, psiu, psiv, t, stress
ZONE T="structure" N=153 E=128 F=FEBLOCK ET=QUADRILATERAL VARLOCATION=([7,8]=cellcentered)
0.000000e+00
1.250000e+01
2.500000e+01
3.750000e+01
5.000000e+01
6.250000e+01
7.500000e+01
8.750000e+01
1.000000e+02
1.125000e+02
1.250000e+02
1.375000e+02
1.500000e+02
1.625000e+02
1.750000e+02
1.875000e+02
2.000000e+02
0.000000e+00
1.250000e+01
2.500000e+01
3.750000e+01
5.000000e+01
6.250000e+01
7.500000e+01
8.750000e+01
1.000000e+02
1.125000e+02
1.250000e+02
1.375000e+02
1.500000e+02
1.625000e+02
1.750000e+02
1.875000e+02
2.000000e+02
0.000000e+00
1.250000e+01
2.500000e+01
3.750000e+01
5.000000e+01
6.250000e+01
7.500000e+01
8.750000e+01
1.000000e+02
1.125000e+02
1.250000e+02
1.375000e+02
1.500000e+02
1.625000e+02
1.750000e+02
1.875000e+02
2.000000e+02
0.000000e+00
1.250000e+01
2.500000e+01
3.750000e+01
5.000000e+01
6.250000e+01
7.500000e+01
8.750000e+01
1.000000e+02
1.125000e+02
1.250000e+02
1.375000e+02
1.500000e+02
1.625000e+02
1.750000e+02
1.875000e+02
2.000000e+02
0.000000e+00
1.250000e+01
2.500000e+01
3.750000e+01
5.000000e+01
6.250000e+01
7.500000e+01
8.750000e+01
1.000000e+02
1.125000e+02
1.250000e+02
1.375000e+02
1.500000e+02
1.625000e+02
1.750000e+02
1.875000e+02
2.000000e+02
0.000000e+00
1.250000e+01
2.500000e+01
3.750000e+01
5.000000e+01
6.250000e+01
7.500000e+01
8.750000e+01
1.000000e+02
1.125000e+02
1.250000e+02
1.375000e+02
1.500000e+02
1.625000e+02
1.750000e+02
1.875000e+02
2.000000e+02
0.000000e+00
1.250000e+01
2.500000e+01
3.750000e+01
5.000000e+01
6.250000e+01
7.500000e+01
8.750000e+01
1.000000e+02
1.125000e+02
1.250000e+02
1.375000e+02
1.500000e+02
1.625000e+02
1.750000e+02
1.875000e+02
2.000000e+02
0.000000e+00
1.250000e+01
2.500000e+01
3.750000e+01
5.000000e+01
6.250000e+01
7.500000e+01
8.750000e+01
1.000000e+02
1.125000e+02
1.250000e+02
1.375000e+02
1.500000e+02
1.625000e+02
1.750000e+02
1.875000e+02
2.000000e+02
0.000000e+00
1.250000e+01
2.500000e+01
3.750000e+01
5.000000e+01
6.250000e+01
7.500000e+01
8.750000e+01
1.000000e+02
1.125000e+02
1.250000e+02
1.375000e+02
1.500000e+02
1.625000e+02
1.750000e+02
1.875000e+02
2.000000e+02
0.000000e+00
0.000000e+00
0.000000e+00
0.000000e+00
0.000000e+00
0.000000e+00
0.000000e+00
0.000000e+00
0.000000e+00
0.000000e+00
0.000000e+00
0.000000e+00
0.000000e+00
0.000000e+00
0.000000e+00
0.000000e+00
0.000000e+00
1.250000e+01
1.250000e+01
1.250000e+01
1.250000e+01
1.250000e+01
1.250000e+01
1.250000e+01
1.250000e+01
1.250000e+01
1.250000e+01
1.250000e+01
1.250000e+01
1.250000e+01
1.250000e+01
1.250000e+01
1.250000e+01
1.250000e+01
2.500000e+01
2.500000e+01
2.500000e+01
2.500000e+01
2.500000e+01
2.500000e+01
2.500000e+01
2.500000e+01
2.500000e+01
2.500000e+01
2.500000e+01
2.500000e+01
2.500000e+01
2.500000e+01
2.500000e+01
2.500000e+01
2.500000e+01
3.750000e+01
3.750000e+01
3.750000e+01
3.750000e+01
3.750000e+01
3.750000e+01
3.750000e+01
3.750000e+01
3.750000e+01
3.750000e+01
3.750000e+01
3.750000e+01
3.750000e+01
3.750000e+01
3.750000e+01
3.750000e+01
3.750000e+01
5.000000e+01
5.000000e+01
5.000000e+01
5.000000e+01
5.000000e+01
5.000000e+01
5.000000e+01
5.000000e+01
5.000000e+01
5.000000e+01
5.000000e+01
5.000000e+01
5.000000e+01
5.000000e+01
5.000000e+01
5.000000e+01
5.000000e+01
6.250000e+01
6.250000e+01
6.250000e+01
6.250000e+01
6.250000e+01
6.250000e+01
6.250000e+01
6.250000e+01
6.250000e+01
6.250000e+01
6.250000e+01
6.250000e+01
6.250000e+01
6.250000e+01
6.250000e+01
6.250000e+01
6.250000e+01
7.500000e+01
7.500000e+01
7.500000e+01
7.500000e+01
7.500000e+01
7.500000e+01
7.500000e+01
7.500000e+01
7.500000e+01
7.500000e+01
7.500000e+01
7.500000e+01
7.500000e+01
7.500000e+01
7.500000e+01
7.500000e+01
7.500000e+01
8.750000e+01
8.750000e+01
8.750000e+01
8.750000e+01
8.750000e+01
8.750000e+01
8.750000e+01
8.750000e+01
8.750000e+01
8.750000e+01
8.750000e+01
8.750000e+01
8.750000e+01
8.750000e+01
8.750000e+01
8.750000e+01
8.750000e+01
1.000000e+02
1.000000e+02
1.000000e+02
1.000000e+02
1.000000e+02
1.000000e+02
1.000000e+02
1.000000e+02
1.000000e+02
1.000000e+02
1.000000e+02
1.000000e+02
1.000000e+02
1.000000e+02
1.000000e+02
1.000000e+02
1.000000e+02
0.000000e+00
-7.899624e-02
-1.415041e-01
-1.965590e-01
-2.498196e-01
-3.009337e-01
-3.475121e-01
-3.893211e-01
-4.275425e-01
-4.617456e-01
-4.916871e-01
-5.184192e-01
-5.434788e-01
-5.688364e-01
-5.971507e-01
-6.317424e-01
-6.584267e-01
0.000000e+00
-4.679504e-02
-9.431935e-02
-1.363534e-01
-1.760669e-01
-2.140294e-01
-2.486000e-01
-2.797859e-01
-3.083459e-01
-3.338936e-01
-3.561087e-01
-3.754508e-01
-3.923571e-01
-4.066992e-01
-4.168489e-01
-4.189992e-01
-4.271102e-01
0.000000e+00
-2.779930e-02
-5.638741e-02
-8.421315e-02
-1.104028e-01
-1.350933e-01
-1.577022e-01
-1.782639e-01
-1.968946e-01
-2.132744e-01
-2.271817e-01
-2.385802e-01
-2.470880e-01
-2.518706e-01
-2.519351e-01
-2.499447e-01
-2.582527e-01
0.000000e+00
-1.229781e-02
-2.515212e-02
-3.797255e-02
-5.032266e-02
-6.187219e-02
-7.255176e-02
-8.225332e-02
-9.086597e-02
-9.815534e-02
-1.039157e-01
-1.079088e-01
-1.097455e-01
-1.092195e-01
-1.072987e-01
-1.078604e-01
-1.139349e-01
0.000000e+00
1.620727e-03
3.382337e-03
5.117259e-03
6.753173e-03
8.270425e-03
9.702137e-03
1.103638e-02
1.232739e-02
1.374343e-02
1.552035e-02
1.792384e-02
2.103498e-02
2.442205e-02
2.672641e-02
2.613524e-02
2.219162e-02
0.000000e+00
1.527976e-02
3.130857e-02
4.734741e-02
6.318599e-02
7.828307e-02
9.213744e-02
1.045742e-01
1.155949e-01
1.252770e-01
1.338924e-01
1.417231e-01
1.487242e-01
1.543327e-01
1.576637e-01
1.579983e-01
1.559738e-01
0.000000e+00
2.996997e-02
6.098207e-02
9.167729e-02
1.217932e-01
1.511099e-01
1.776574e-01
2.010781e-01
2.216586e-01
2.394071e-01
2.544005e-01
2.670169e-01
2.773287e-01
2.850073e-01
2.896907e-01
2.912562e-01
2.907650e-01
0.000000e+00
4.703687e-02
9.684905e-02
1.419378e-01
1.861173e-01
2.299280e-01
2.690265e-01
3.030324e-01
3.330597e-01
3.588817e-01
3.801666e-01
3.973405e-01
4.106786e-01
4.201680e-01
4.259588e-01
4.284916e-01
4.289574e-01
0.000000e+00
7.833528e-02
1.431941e-01
2.016007e-01
2.596272e-01
3.172544e-01
3.684579e-01
4.129448e-01
4.525664e-01
4.866001e-01
5.144900e-01
5.365778e-01
5.530173e-01
5.637421e-01
5.691230e-01
5.705276e-01
5.705201e-01
0.000000e+00
-4.651965e-02
-9.079761e-02
-1.486924e-01
-2.204448e-01
-3.057610e-01
-4.035039e-01
-5.127265e-01
-6.321764e-01
-7.603371e-01
-8.960610e-01
-1.038637e+00
-1.187832e+00
-1.344522e+00
-1.512974e+00
-1.706538e+00
-1.987670e+00
0.000000e+00
-2.861876e-02
-7.577681e-02
-1.344068e-01
-2.067057e-01
-2.929426e-01
-3.919477e-01
-5.022670e-01
-6.227460e-01
-7.520641e-01
-8.888701e-01
-1.032302e+00
-1.182109e+00
-1.339281e+00
-1.507644e+00
-1.699905e+00
-1.937064e+00
0.000000e+00
-2.168315e-02
-6.519326e-02
-1.241340e-01
-1.969473e-01
-2.838787e-01
-3.837325e-01
-4.949422e-01
-6.163536e-01
-7.466239e-01
-8.844003e-01
-1.028883e+00
-1.179863e+00
-1.338198e+00
-1.506602e+00
-1.688363e+00
-1.864265e+00
0.000000e+00
-1.910276e-02
-5.998419e-02
-1.180387e-01
-1.911402e-01
-2.785068e-01
-3.789226e-01
-4.908765e-01
-6.130960e-01
-7.441482e-01
-8.827666e-01
-1.028233e+00
-1.180174e+00
-1.338590e+00
-1.503404e+00
-1.669952e+00
-1.823243e+00
0.000000e+00
-1.867435e-02
-5.866405e-02
-1.161719e-01
-1.892241e-01
-2.768399e-01
-3.776312e-01
-4.900936e-01
-6.128230e-01
-7.444081e-01
-8.835773e-01
-1.029557e+00
-1.181580e+00
-1.338493e+00
-1.498089e+00
-1.655050e+00
-1.799594e+00
0.000000e+00
-1.979389e-02
-6.065878e-02
-1.183607e-01
-1.913035e-01
-2.789851e-01
-3.799561e-01
-4.924852e-01
-6.152660e-01
-7.469777e-01
-8.862716e-01
-1.032151e+00
-1.183413e+00
-1.338096e+00
-1.493435e+00
-1.645027e+00
-1.786417e+00
0.000000e+00
-2.287218e-02
-6.633822e-02
-1.249457e-01
-1.976368e-01
-2.851479e-01
-3.858754e-01
-4.979083e-01
-6.201660e-01
-7.514855e-01
-8.904049e-01
-1.035656e+00
-1.185719e+00
-1.338304e+00
-1.490627e+00
-1.639250e+00
-1.780412e+00
0.000000e+00
-2.986537e-02
-7.737914e-02
-1.360333e-01
-2.085140e-01
-2.954498e-01
-3.952469e-01
-5.062122e-01
-6.274371e-01
-7.577981e-01
-8.957777e-01
-1.039984e+00
-1.188710e+00
-1.339604e+00
-1.489916e+00
-1.636810e+00
-1.778924e+00
0.000000e+00
-4.793349e-02
-9.312920e-02
-1.514195e-01
-2.238537e-01
-3.098811e-01
-4.079067e-01
-5.173595e-01
-6.372166e-01
-7.660437e-01
-9.025067e-01
-1.045245e+00
-1.192436e+00
-1.341745e+00
-1.490539e+00
-1.636363e+00
-1.778928e+00


0.000000e+00
-8.256554e-07
-5.994195e-07
8.941992e-07
1.754689e-06
1.913088e-06
1.924608e-06
1.949194e-06
1.980057e-06
2.009664e-06
2.034093e-06
2.052219e-06
2.063850e-06
2.069876e-06
2.072074e-06
2.071910e-06
2.070558e-06
0.000000e+00
-7.413505e-07
-4.130321e-07
9.233799e-07
1.722064e-06
1.678814e-06
1.633077e-06
1.646609e-06
1.671067e-06
1.692097e-06
1.708263e-06
1.719890e-06
1.726873e-06
1.729379e-06
1.728503e-06
1.726172e-06
1.724117e-06
0.000000e+00
-2.210743e-07
6.817824e-08
7.685726e-07
1.221110e-06
1.267462e-06
1.304675e-06
1.328073e-06
1.347051e-06
1.361384e-06
1.371553e-06
1.378403e-06
1.381879e-06
1.382114e-06
1.380311e-06
1.378283e-06
1.377116e-06
0.000000e+00
1.999979e-07
3.840723e-07
6.171437e-07
7.217903e-07
8.683739e-07
9.454711e-07
9.831048e-07
1.003359e-06
1.015606e-06
1.023256e-06
1.027967e-06
1.030475e-06
1.031157e-06
1.030917e-06
1.030764e-06
1.030929e-06
0.000000e+00
2.247939e-07
4.253497e-07
4.771630e-07
5.060744e-07
5.471575e-07
6.017033e-07
6.367303e-07
6.559308e-07
6.666779e-07
6.730413e-07
6.773870e-07
6.805832e-07
6.826913e-07
6.841907e-07
6.851940e-07
6.856393e-07
0.000000e+00
1.105773e-07
2.417831e-07
2.859832e-07
2.741765e-07
2.784149e-07
2.943250e-07
3.105346e-07
3.201193e-07
3.250099e-07
3.281071e-07
3.312678e-07
3.345993e-07
3.372396e-07
3.389963e-07
3.398448e-07
3.398703e-07
0.000000e+00
1.838006e-08
5.463012e-08
5.734442e-08
4.497520e-08
2.264613e-08
8.949228e-09
7.422036e-10
-5.142296e-09
-9.753094e-09
-1.232988e-08
-1.240825e-08
-1.088627e-08
-9.077516e-09
-7.687213e-09
-7.154069e-09
-7.344998e-09
0.000000e+00
-7.628967e-09
-2.904296e-08
-9.061497e-08
-1.554277e-07
-2.213894e-07
-2.719894e-07
-3.061191e-07
-3.286132e-07
-3.430260e-07
-3.517777e-07
-3.564161e-07
-3.579148e-07
-3.574017e-07
-3.562643e-07
-3.555344e-07
-3.554066e-07
0.000000e+00
8.324355e-08
-2.813522e-08
-1.852366e-07
-3.488092e-07
-4.823608e-07
-5.707276e-07
-6.260768e-07
-6.602865e-07
-6.803710e-07
-6.922119e-07
-6.996631e-07
-7.042775e-07
-7.058376e-07
-7.049127e-07
-7.033960e-07
-7.027352e-07
0.000000e+00
-3.066397e-07
1.409890e-07
4.546353e-07
2.905049e-07
2.610058e-07
5.388847e-07
8.551450e-07
1.169130e-06
1.490181e-06
1.818638e-06
2.152355e-06
2.488763e-06
2.826467e-06
3.165572e-06
3.506994e-06
3.850474e-06
0.000000e+00
-1.875953e-07
-3.751751e-07
-2.060421e-07
5.652154e-08
2.584323e-07
5.388923e-07
8.385098e-07
1.153192e-06
1.477204e-06
1.809086e-06
2.145951e-06
2.485262e-06
2.825464e-06
3.166602e-06
3.509204e-06
3.853276e-06
0.000000e+00
-1.662266e-07
-6.246681e-07
-5.896440e-07
-1.507621e-07
2.426533e-07
5.240606e-07
8.224963e-07
1.139119e-06
1.467298e-06
1.802485e-06
2.141748e-06
2.483109e-06
2.825473e-06
3.168215e-06
3.511293e-06
3.855675e-06
0.000000e+00
-1.908591e-07
-5.990764e-07
-6.201365e-07
-2.420012e-07
1.599509e-07
4.869238e-07
8.026510e-07
1.127108e-06
1.460236e-06
1.798665e-06
2.139489e-06
2.481695e-06
2.825352e-06
3.169079e-06
3.511894e-06
3.855588e-06
0.000000e+00
-2.350175e-07
-5.417372e-07
-5.562532e-07
-2.622105e-07
9.490451e-08
4.433790e-07
7.779725e-07
1.113387e-06
1.452636e-06
1.794773e-06
2.137306e-06
2.479980e-06
2.824533e-06
3.169149e-06
3.511773e-06
3.854218e-06
0.000000e+00
-2.717980e-07
-5.124280e-07
-4.940436e-07
-2.461186e-07
7.440772e-08
4.129529e-07
7.565741e-07
1.100750e-06
1.445594e-06
1.790907e-06
2.134976e-06
2.478519e-06
2.823867e-06
3.169198e-06
3.512089e-06
3.853988e-06
0.000000e+00
-2.785338e-07
-4.694900e-07
-4.373903e-07
-2.226011e-07
7.186549e-08
4.022542e-07
7.459236e-07
1.093968e-06
1.441868e-06
1.788479e-06
2.133353e-06
2.477955e-06
2.823776e-06
3.169288e-06
3.512688e-06
3.855442e-06
0.000000e+00
-2.465926e-07
-4.152231e-07
-3.814201e-07
-1.987479e-07
8.575686e-08
4.087835e-07
7.489226e-07
1.095612e-06
1.442973e-06
1.788824e-06
2.133349e-06
2.478114e-06
2.823736e-06
3.168975e-06
3.512969e-06
3.857076e-06
0.000000e+00
-2.265635e-07
-3.581214e-07
-3.313679e-07
-1.554522e-07
1.157209e-07
4.291421e-07
7.618689e-07
1.103724e-06
1.447882e-06
1.791730e-06
2.134980e-06
2.478816e-06
2.823537e-06
3.168432e-06
3.512887e-06
3.857714e-06


2.261402e-01
2.098433e-01
1.983335e-01
2.044368e-01
2.118660e-01
2.111935e-01
2.103130e-01
2.159032e-01
2.182365e-01
2.161175e-01
2.168052e-01
2.220075e-01
2.292177e-01
2.317086e-01
2.315999e-01
2.394918e-01
2.231893e-01
2.154165e-01
2.085083e-01
2.112815e-01
2.178992e-01
2.175365e-01
2.182767e-01
2.225833e-01
2.232769e-01
2.209704e-01
2.213169e-01
2.247874e-01
2.302244e-01
2.328988e-01
2.354355e-01
2.385743e-01
2.299901e-01
2.248664e-01
2.191038e-01
2.200573e-01
2.241101e-01
2.269225e-01
2.291417e-01
2.315595e-01
2.307961e-01
2.283912e-01
2.282707e-01
2.289010e-01
2.303364e-01
2.325492e-01
2.337553e-01
2.366401e-01
2.391938e-01
2.336003e-01
2.274436e-01
2.271124e-01
2.315011e-01
2.352446e-01
2.378062e-01
2.383921e-01
2.356510e-01
2.328565e-01
2.321852e-01
2.315788e-01
2.295097e-01
2.284887e-01
2.295951e-01
2.312588e-01
2.405243e-01
2.366479e-01
2.325722e-01
2.362170e-01
2.414080e-01
2.437043e-01
2.442291e-01
2.416521e-01
2.371727e-01
2.324067e-01
2.315142e-01
2.311403e-01
2.282548e-01
2.267719e-01
2.294997e-01
2.323786e-01
2.392087e-01
2.361177e-01
2.335087e-01
2.431655e-01
2.537983e-01
2.531001e-01
2.477675e-01
2.433854e-01
2.362172e-01
2.294488e-01
2.273159e-01
2.277916e-01
2.271920e-01
2.295381e-01
2.355129e-01
2.395020e-01
2.388299e-01
2.348355e-01
2.324791e-01
2.467442e-01
2.624830e-01
2.570566e-01
2.476347e-01
2.424894e-01
2.365006e-01
2.277591e-01
2.241262e-01
2.255391e-01
2.286145e-01
2.352393e-01
2.429439e-01
2.466424e-01
2.353299e-01
2.343139e-01
2.306340e-01
2.473398e-01
2.644460e-01
2.560117e-01
2.438349e-01
2.420218e-01
2.372034e-01
2.285292e-01
2.243489e-01
2.264505e-01
2.319019e-01
2.398853e-01
2.470562e-01
2.505685e-01


9.861318e-01
9.894010e-01
9.917497e-01
9.924258e-01
9.930478e-01
9.942165e-01
9.953076e-01
9.960703e-01
9.968530e-01
9.976019e-01
9.981344e-01
9.984648e-01
9.986406e-01
9.987125e-01
9.987899e-01
9.943713e-01
9.950169e-01
9.946449e-01
9.954590e-01
9.959217e-01
9.962644e-01
9.968235e-01
9.973394e-01
9.977446e-01
9.981874e-01
9.986331e-01
9.990019e-01
9.993188e-01
9.996024e-01
9.998000e-01
9.992484e-01
9.918415e-01
9.984232e-01
9.980115e-01
9.979703e-01
9.980950e-01
9.982018e-01
9.983535e-01
9.985225e-01
9.986930e-01
9.988989e-01
9.991153e-01
9.993015e-01
9.994403e-01
9.994618e-01
9.991745e-01
9.981403e-01
9.962836e-01
9.996856e-01
9.993269e-01
9.991472e-01
9.990798e-01
9.990279e-01
9.990038e-01
9.990169e-01
9.990473e-01
9.990974e-01
9.991512e-01
9.991694e-01
9.991261e-01
9.989846e-01
9.987135e-01
9.984717e-01
9.984293e-01
9.995258e-01
9.991392e-01
9.989468e-01
9.988736e-01
9.988413e-01
9.988570e-01
9.989025e-01
9.989444e-01
9.989740e-01
9.989820e-01
9.989415e-01
9.988667e-01
9.988054e-01
9.988182e-01
9.990121e-01
9.993800e-01
9.980041e-01
9.975275e-01
9.974344e-01
9.974703e-01
9.975549e-01
9.978521e-01
9.981721e-01
9.984220e-01
9.986216e-01
9.987643e-01
9.988278e-01
9.988650e-01
9.989616e-01
9.991571e-01
9.994622e-01
9.998015e-01
9.946017e-01
9.939100e-01
9.946396e-01
9.948391e-01
9.949836e-01
9.958907e-01
9.967768e-01
9.974103e-01
9.979707e-01
9.984544e-01
9.987873e-01
9.990340e-01
9.992756e-01
9.995328e-01
9.997890e-01
9.999634e-01
9.860926e-01
9.884829e-01
9.906196e-01
9.908445e-01
9.910050e-01
9.928492e-01
9.945777e-01
9.957208e-01
9.968222e-01
9.978298e-01
9.985847e-01
9.991475e-01
9.995666e-01
9.998344e-01
9.999653e-01
9.999992e-01
1 2 19 18
2 3 20 19
3 4 21 20
4 5 22 21
5 6 23 22
6 7 24 23
7 8 25 24
8 9 26 25
9 10 27 26
10 11 28 27
11 12 29 28
12 13 30 29
13 14 31 30
14 15 32 31
15 16 33 32
16 17 34 33
18 19 36 35
19 20 37 36
20 21 38 37
21 22 39 38
22 23 40 39
23 24 41 40
24 25 42 41
25 26 43 42
26 27 44 43
27 28 45 44
28 29 46 45
29 30 47 46
30 31 48 47
31 32 49 48
32 33 50 49
33 34 51 50
35 36 53 52
36 37 54 53
37 38 55 54
38 39 56 55
39 40 57 56
40 41 58 57
41 42 59 58
42 43 60 59
43 44 61 60
44 45 62 61
45 46 63 62
46 47 64 63
47 48 65 64
48 49 66 65
49 50 67 66
50 51 68 67
52 53 70 69
53 54 71 70
54 55 72 71
55 56 73 72
56 57 74 73
57 58 75 74
58 59 76 75
59 60 77 76
60 61 78 77
61 62 79 78
62 63 80 79
63 64 81 80
64 65 82 81
65 66 83 82
66 67 84 83
67 68 85 84
69 70 87 86
70 71 88 87
71 72 89 88
72 73 90 89
73 74 91 90
74 75 92 91
75 76 93 92
76 77 94 93
77 78 95 94
78 79 96 95
79 80 97 96
80 81 98 97
81 82 99 98
82 83 100 99
83 84 101 100
84 85 102 101
86 87 104 103
87 88 105 104
88 89 106 105
89 90 107 106
90 91 108 107
91 92 109 108
92 93 110 109
93 94 111 110
94 95 112 111
95 96 113 112
96 97 114 113
97 98 115 114
98 99 116 115
99 100 117 116
100 101 118 117
101 102 119 118
103 104 121 120
104 105 122 121
105 106 123 122
106 107 124 123
107 108 125 124
108 109 126 125
109 110 127 126
110 111 128 127
111 112 129 128
112 113 130 129
113 114 131 130
114 115 132 131
115 116 133 132
116 117 134 133
117 118 135 134
118 119 136 135
120 121 138 137
121 122 139 138
122 123 140 139
123 124 141 140
124 125 142 141
125 126 143 142
126 127 144 143
127 128 145 144
128 129 146 145
129 130 147 146
130 131 148 147
131 132 149 148
132 133 150 149
133 134 151 150
134 135 152 151
135 136 153 152
