TITLE = "Solution"
VARIABLES = x, y, u, v, psiu, psiv, t, stress
ZONE T="structure" N=153 E=128 F=FEBLOCK ET=QUADRILATERAL VARLOCATION=([7,8]=cellcentered)
0.000000e+00
1.250000e+01
2.500000e+01
3.750000e+01
5.000000e+01
6.250000e+01
7.500000e+01
8.750000e+01
1.000000e+02
1.125000e+02
1.250000e+02
1.375000e+02
1.500000e+02
1.625000e+02
1.750000e+02
1.875000e+02
2.000000e+02
0.000000e+00
1.250000e+01
2.500000e+01
3.750000e+01
5.000000e+01
6.250000e+01
7.500000e+01
8.750000e+01
1.000000e+02
1.125000e+02
1.250000e+02
1.375000e+02
1.500000e+02
1.625000e+02
1.750000e+02
1.875000e+02
2.000000e+02
0.000000e+00
1.250000e+01
2.500000e+01
3.750000e+01
5.000000e+01
6.250000e+01
7.500000e+01
8.750000e+01
1.000000e+02
1.125000e+02
1.250000e+02
1.375000e+02
1.500000e+02
1.625000e+02
1.750000e+02
1.875000e+02
2.000000e+02
0.000000e+00
1.250000e+01
2.500000e+01
3.750000e+01
5.000000e+01
6.250000e+01
7.500000e+01
8.750000e+01
1.000000e+02
1.125000e+02
1.250000e+02
1.375000e+02
1.500000e+02
1.625000e+02
1.750000e+02
1.875000e+02
2.000000e+02
0.000000e+00
1.250000e+01
2.500000e+01
3.750000e+01
5.000000e+01
6.250000e+01
7.500000e+01
8.750000e+01
1.000000e+02
1.125000e+02
1.250000e+02
1.375000e+02
1.500000e+02
1.625000e+02
1.750000e+02
1.875000e+02
2.000000e+02
0.000000e+00
1.250000e+01
2.500000e+01
3.750000e+01
5.000000e+01
6.250000e+01
7.500000e+01
8.750000e+01
1.000000e+02
1.125000e+02
1.250000e+02
1.375000e+02
1.500000e+02
1.625000e+02
1.750000e+02
1.875000e+02
2.000000e+02
0.000000e+00
1.250000e+01
2.500000e+01
3.750000e+01
5.000000e+01
6.250000e+01
7.500000e+01
8.750000e+01
1.000000e+02
1.125000e+02
1.250000e+02
1.375000e+02
1.500000e+02
1.625000e+02
1.750000e+02
1.875000e+02
2.000000e+02
0.000000e+00
1.250000e+01
2.500000e+01
3.750000e+01
5.000000e+01
6.250000e+01
7.500000e+01
8.750000e+01
1.000000e+02
1.125000e+02
1.250000e+02
1.375000e+02
1.500000e+02
1.625000e+02
1.750000e+02
1.875000e+02
2.000000e+02
0.000000e+00
1.250000e+01
2.500000e+01
3.750000e+01
5.000000e+01
6.250000e+01
7.500000e+01
8.750000e+01
1.000000e+02
1.125000e+02
1.250000e+02
1.375000e+02
1.500000e+02
1.625000e+02
1.750000e+02
1.875000e+02
2.000000e+02
0.000000e+00
0.000000e+00
0.000000e+00
0.000000e+00
0.000000e+00
0.000000e+00
0.000000e+00
0.000000e+00
0.000000e+00
0.000000e+00
0.000000e+00
0.000000e+00
0.000000e+00
0.000000e+00
0.000000e+00
0.000000e+00
0.000000e+00
1.250000e+01
1.250000e+01
1.250000e+01
1.250000e+01
1.250000e+01
1.250000e+01
1.250000e+01
1.250000e+01
1.250000e+01
1.250000e+01
1.250000e+01
1.250000e+01
1.250000e+01
1.250000e+01
1.250000e+01
1.250000e+01
1.250000e+01
2.500000e+01
2.500000e+01
2.500000e+01
2.500000e+01
2.500000e+01
2.500000e+01
2.500000e+01
2.500000e+01
2.500000e+01
2.500000e+01
2.500000e+01
2.500000e+01
2.500000e+01
2.500000e+01
2.500000e+01
2.500000e+01
2.500000e+01
3.750000e+01
3.750000e+01
3.750000e+01
3.750000e+01
3.750000e+01
3.750000e+01
3.750000e+01
3.750000e+01
3.750000e+01
3.750000e+01
3.750000e+01
3.750000e+01
3.750000e+01
3.750000e+01
3.750000e+01
3.750000e+01
3.750000e+01
5.000000e+01
5.000000e+01
5.000000e+01
5.000000e+01
5.000000e+01
5.000000e+01
5.000000e+01
5.000000e+01
5.000000e+01
5.000000e+01
5.000000e+01
5.000000e+01
5.000000e+01
5.000000e+01
5.000000e+01
5.000000e+01
5.000000e+01
6.250000e+01
6.250000e+01
6.250000e+01
6.250000e+01
6.250000e+01
6.250000e+01
6.250000e+01
6.250000e+01
6.250000e+01
6.250000e+01
6.250000e+01
6.250000e+01
6.250000e+01
6.250000e+01
6.250000e+01
6.250000e+01
6.250000e+01
7.500000e+01
7.500000e+01
7.500000e+01
7.500000e+01
7.500000e+01
7.500000e+01
7.500000e+01
7.500000e+01
7.500000e+01
7.500000e+01
7.500000e+01
7.500000e+01
7.500000e+01
7.500000e+01
7.500000e+01
7.500000e+01
7.500000e+01
8.750000e+01
8.750000e+01
8.750000e+01
8.750000e+01
8.750000e+01
8.750000e+01
8.750000e+01
8.750000e+01
8.750000e+01
8.750000e+01
8.750000e+01
8.750000e+01
8.750000e+01
8.750000e+01
8.750000e+01
8.750000e+01
8.750000e+01
1.000000e+02
1.000000e+02
1.000000e+02
1.000000e+02
1.000000e+02
1.000000e+02
1.000000e+02
1.000000e+02
1.000000e+02
1.000000e+02
1.000000e+02
1.000000e+02
1.000000e+02
1.000000e+02
1.000000e+02
1.000000e+02
1.000000e+02
0.000000e+00
-7.005653e-02
-1.289963e-01
-1.832285e-01
-2.337338e-01
-2.804057e-01
-3.231441e-01
-3.619157e-01
-3.967771e-01
-4.278888e-01
-4.555592e-01
-4.803291e-01
-5.031288e-01
-5.255658e-01
-5.504117e-01
-5.809257e-01
-6.038231e-01
0.000000e+00
-4.183652e-02
-8.690723e-02
-1.285272e-01
-1.668719e-01
-2.020872e-01
-2.342462e-01
-2.633919e-01
-2.895768e-01
-3.128817e-01
-3.334248e-01
-3.513542e-01
-3.667843e-01
-3.795562e-01
-3.885650e-01
-3.905396e-01
-3.976189e-01
0.000000e+00
-2.616337e-02
-5.379843e-02
-8.136849e-02
-1.071043e-01
-1.307333e-01
-1.522365e-01
-1.716380e-01
-1.889428e-01
-2.041219e-01
-2.170936e-01
-2.276768e-01
-2.354942e-01
-2.398581e-01
-2.399792e-01
-2.382359e-01
-2.454563e-01
0.000000e+00
-1.262806e-02
-2.599655e-02
-3.944947e-02
-5.231288e-02
-6.416089e-02
-7.489993e-02
-8.449874e-02
-9.290238e-02
-1.000015e-01
-1.056146e-01
-1.094769e-01
-1.112721e-01
-1.108527e-01
-1.091296e-01
-1.096008e-01
-1.149771e-01
0.000000e+00
-1.163282e-05
-2.644505e-05
-4.120864e-05
-4.904396e-05
-3.460969e-05
3.254466e-05
2.070588e-04
5.785765e-04
1.280627e-03
2.487419e-03
4.373958e-03
6.987533e-03
9.941003e-03
1.198117e-02
1.142162e-02
7.862039e-03
0.000000e+00
1.261016e-02
2.595500e-02
3.938300e-02
5.223021e-02
6.409364e-02
7.492602e-02
8.478032e-02
9.374199e-02
1.019150e-01
1.094061e-01
1.162707e-01
1.223897e-01
1.272964e-01
1.301828e-01
1.304117e-01
1.286050e-01
0.000000e+00
2.616043e-02
5.378948e-02
8.135067e-02
1.070765e-01
1.306987e-01
1.522077e-01
1.716473e-01
1.890578e-01
2.044700e-01
2.178974e-01
2.293072e-01
2.385682e-01
2.454151e-01
2.495248e-01
2.508593e-01
2.504380e-01
0.000000e+00
4.185368e-02
8.694455e-02
1.285867e-01
1.669517e-01
2.021726e-01
2.342941e-01
2.633042e-01
2.891588e-01
3.117833e-01
3.310702e-01
3.468862e-01
3.591048e-01
3.676856e-01
3.728043e-01
3.749871e-01
3.753880e-01
0.000000e+00
7.008523e-02
1.290720e-01
1.833703e-01
2.339604e-01
2.807244e-01
3.235242e-01
3.622354e-01
3.967285e-01
4.268242e-01
4.522617e-01
4.727016e-01
4.878085e-01
4.974634e-01
5.021326e-01
5.032851e-01
5.032629e-01
0.000000e+00
-4.240715e-02
-8.325015e-02
-1.361732e-01
-2.011252e-01
-2.779848e-01
-3.659102e-01
-4.639173e-01
-5.709640e-01
-6.860221e-01
-8.081415e-01
-9.365663e-01
-1.070987e+00
-1.212121e+00
-1.363629e+00
-1.536983e+00
-1.786061e+00
0.000000e+00
-2.610662e-02
-6.871258e-02
-1.222919e-01
-1.883055e-01
-2.662139e-01
-3.552045e-01
-4.542690e-01
-5.623533e-01
-6.784104e-01
-8.014642e-01
-9.307239e-01
-1.065832e+00
-1.207487e+00
-1.358937e+00
-1.531238e+00
-1.742326e+00
0.000000e+00
-1.969976e-02
-5.863440e-02
-1.124115e-01
-1.790492e-01
-2.577596e-01
-3.475681e-01
-4.474569e-01
-5.563790e-01
-6.733023e-01
-7.972695e-01
-9.275170e-01
-1.063721e+00
-1.206466e+00
-1.358046e+00
-1.521307e+00
-1.679310e+00
0.000000e+00
-1.697584e-02
-5.362358e-02
-1.066119e-01
-1.734906e-01
-2.526854e-01
-3.430539e-01
-4.435393e-01
-5.531145e-01
-6.707753e-01
-7.955851e-01
-9.267656e-01
-1.063839e+00
-1.206742e+00
-1.355289e+00
-1.505304e+00
-1.643502e+00
0.000000e+00
-1.619114e-02
-5.210708e-02
-1.047618e-01
-1.716587e-01
-2.510506e-01
-3.416789e-01
-4.424879e-01
-5.524697e-01
-6.706368e-01
-7.960317e-01
-9.277528e-01
-1.064949e+00
-1.206607e+00
-1.350609e+00
-1.492028e+00
-1.622310e+00
0.000000e+00
-1.696577e-02
-5.361641e-02
-1.066247e-01
-1.735533e-01
-2.528506e-01
-3.434071e-01
-4.442084e-01
-5.542679e-01
-6.725933e-01
-7.981651e-01
-9.298923e-01
-1.066501e+00
-1.206252e+00
-1.346461e+00
-1.483031e+00
-1.610533e+00
0.000000e+00
-1.968332e-02
-5.862252e-02
-1.124327e-01
-1.791548e-01
-2.580390e-01
-3.481670e-01
-4.485929e-01
-5.583402e-01
-6.763992e-01
-8.016818e-01
-9.329296e-01
-1.068561e+00
-1.206481e+00
-1.343973e+00
-1.477921e+00
-1.605338e+00
0.000000e+00
-2.609121e-02
-6.870223e-02
-1.223202e-01
-1.884323e-01
-2.665425e-01
-3.559016e-01
-4.555820e-01
-5.646061e-01
-6.819460e-01
-8.064687e-01
-9.368260e-01
-1.071302e+00
-1.207687e+00
-1.343349e+00
-1.475809e+00
-1.604119e+00
0.000000e+00
-4.240078e-02
-8.325105e-02
-1.362169e-01
-2.012722e-01
-2.783359e-01
-3.666235e-01
-4.652188e-01
-5.731340e-01
-6.893229e-01
-8.126255e-01
-9.416636e-01
-1.074709e+00
-1.209602e+00
-1.343879e+00
-1.475422e+00
-1.604138e+00


0.000000e+00
9.914738e-08
1.986578e-07
2.910769e-07
3.777536e-07
4.581982e-07
5.320729e-07
5.993561e-07
6.601823e-07
7.148062e-07
7.635888e-07
8.069327e-07
8.450730e-07
8.777094e-07
9.044215e-07
9.272472e-07
9.475565e-07
0.000000e+00
5.575391e-08
1.356730e-07
2.075398e-07
2.734391e-07
3.341896e-07
3.897353e-07
4.400759e-07
4.852512e-07
5.252930e-07
5.601884e-07
5.898344e-07
6.140799e-07
6.334238e-07
6.510924e-07
6.720620e-07
6.936440e-07
0.000000e+00
3.512579e-08
8.573469e-08
1.332227e-07
1.774965e-07
2.182207e-07
2.552342e-07
2.884921e-07
3.179430e-07
3.434875e-07
3.649789e-07
3.823128e-07
3.957606e-07
4.067023e-07
4.182428e-07
4.338349e-07
4.518497e-07
0.000000e+00
1.715788e-08
4.109924e-08
6.435605e-08
8.649470e-08
1.068351e-07
1.251569e-07
1.413761e-07
1.553970e-07
1.670976e-07
1.763760e-07
1.832870e-07
1.882973e-07
1.925876e-07
1.981149e-07
2.072027e-07
2.197097e-07
0.000000e+00
1.798318e-11
2.228094e-11
-9.439945e-12
-1.076986e-10
-3.211871e-10
-7.213002e-10
-1.403052e-09
-2.476689e-09
-4.040286e-09
-6.119643e-09
-8.567851e-09
-1.094767e-08
-1.245750e-08
-1.186265e-08
-7.585136e-09
6.311508e-10
0.000000e+00
-1.712428e-08
-4.105412e-08
-6.435771e-08
-8.665156e-08
-1.073371e-07
-1.263158e-07
-1.436682e-07
-1.594945e-07
-1.738567e-07
-1.867261e-07
-1.979270e-07
-2.071011e-07
-2.137130e-07
-2.171014e-07
-2.164554e-07
-2.119548e-07
0.000000e+00
-3.510463e-08
-8.570341e-08
-1.332040e-07
-1.775335e-07
-2.183946e-07
-2.556869e-07
-2.894513e-07
-3.197460e-07
-3.465892e-07
-3.699148e-07
-3.895381e-07
-4.051474e-07
-4.163770e-07
-4.230407e-07
-4.252599e-07
-4.239309e-07
0.000000e+00
-5.577513e-08
-1.357152e-07
-2.075780e-07
-2.734321e-07
-3.340669e-07
-3.893812e-07
-4.393116e-07
-4.838178e-07
-5.228427e-07
-5.562967e-07
-5.840470e-07
-6.059209e-07
-6.217724e-07
-6.317411e-07
-6.366423e-07
-6.378264e-07
0.000000e+00
-9.926460e-08
-1.988655e-07
-2.913338e-07
-3.779731e-07
-4.582002e-07
-5.315157e-07
-5.976493e-07
-6.563837e-07
-7.075203e-07
-7.509026e-07
-7.864607e-07
-8.142547e-07
-8.345128e-07
-8.477081e-07
-8.545295e-07
-8.567206e-07
0.000000e+00
8.975627e-08
1.751133e-07
2.708988e-07
3.851399e-07
5.190155e-07
6.716492e-07
8.416318e-07
1.027339e-06
1.227194e-06
1.439844e-06
1.664458e-06
1.901489e-06
2.154346e-06
2.429271e-06
2.721306e-06
3.011043e-06
0.000000e+00
5.430099e-08
1.372605e-07
2.337919e-07
3.502512e-07
4.868125e-07
6.423311e-07
8.152140e-07
1.003795e-06
1.206474e-06
1.421876e-06
1.649104e-06
1.888179e-06
2.140601e-06
2.408835e-06
2.693463e-06
2.979387e-06
0.000000e+00
3.459622e-08
1.069145e-07
2.033352e-07
3.214678e-07
4.603573e-07
6.183870e-07
7.938389e-07
9.850180e-07
1.190318e-06
1.408314e-06
1.637888e-06
1.878271e-06
2.128758e-06
2.388934e-06
2.663168e-06
2.939876e-06
0.000000e+00
2.538858e-08
9.094804e-08
1.855737e-07
3.044775e-07
4.448102e-07
6.044751e-07
7.816450e-07
9.746016e-07
1.181709e-06
1.401425e-06
1.632284e-06
1.872736e-06
2.120845e-06
2.375058e-06
2.638715e-06
2.901639e-06
0.000000e+00
2.274211e-08
8.610637e-08
1.798598e-07
2.989718e-07
4.398827e-07
6.002535e-07
7.782080e-07
9.720060e-07
1.179950e-06
1.400339e-06
1.631380e-06
1.871006e-06
2.116652e-06
2.365796e-06
2.619990e-06
2.869354e-06
0.000000e+00
2.540909e-08
9.102498e-08
1.857640e-07
3.048558e-07
4.454778e-07
6.055586e-07
7.832780e-07
9.768772e-07
1.184582e-06
1.404538e-06
1.634711e-06
1.872737e-06
2.115696e-06
2.360436e-06
2.606726e-06
2.846200e-06
0.000000e+00
3.462930e-08
1.070485e-07
2.036687e-07
3.221311e-07
4.615296e-07
6.202918e-07
7.967124e-07
9.890259e-07
1.195383e-06
1.413799e-06
1.642078e-06
1.877688e-06
2.117584e-06
2.358401e-06
2.598779e-06
2.832094e-06
0.000000e+00
5.434298e-08
1.374305e-07
2.342026e-07
3.510606e-07
4.882358e-07
6.446343e-07
8.186720e-07
1.008586e-06
1.212467e-06
1.428229e-06
1.653556e-06
1.885828e-06
2.122053e-06
2.359131e-06
2.595205e-06
2.825359e-06
0.000000e+00
8.982586e-08
1.753121e-07
2.713417e-07
3.859827e-07
5.204635e-07
6.739453e-07
8.450056e-07
1.031888e-06
1.232652e-06
1.445158e-06
1.667034e-06
1.895633e-06
2.128084e-06
2.361658e-06
2.594624e-06
2.823395e-06


2.046992e-01
2.046992e-01
2.046992e-01
2.046992e-01
2.046993e-01
2.046993e-01
2.046993e-01
2.046994e-01
2.046994e-01
2.046994e-01
2.046994e-01
2.046995e-01
2.046995e-01
2.046995e-01
2.046994e-01
2.046994e-01
2.046992e-01
2.046992e-01
2.046992e-01
2.046993e-01
2.046993e-01
2.046993e-01
2.046994e-01
2.046994e-01
2.046994e-01
2.046994e-01
2.046994e-01
2.046995e-01
2.046995e-01
2.046995e-01
2.046994e-01
2.046994e-01
2.046994e-01
2.046993e-01
2.046993e-01
2.046994e-01
2.046994e-01
2.046994e-01
2.046994e-01
2.046994e-01
2.046994e-01
2.046995e-01
2.046995e-01
2.046995e-01
2.046995e-01
2.046995e-01
2.046994e-01
2.046994e-01
2.046994e-01
2.046994e-01
2.046994e-01
2.046994e-01
2.046994e-01
2.046994e-01
2.046994e-01
2.046995e-01
2.046995e-01
2.046995e-01
2.046995e-01
2.046995e-01
2.046995e-01
2.046995e-01
2.046994e-01
2.046994e-01
2.046994e-01
2.046994e-01
2.046994e-01
2.046994e-01
2.046994e-01
2.046994e-01
2.046994e-01
2.046994e-01
2.046995e-01
2.046995e-01
2.046995e-01
2.046995e-01
2.046995e-01
2.046995e-01
2.046995e-01
2.046995e-01
2.046994e-01
2.046993e-01
2.046993e-01
2.046994e-01
2.046994e-01
2.046994e-01
2.046994e-01
2.046994e-01
2.046994e-01
2.046994e-01
2.046995e-01
2.046995e-01
2.046995e-01
2.046995e-01
2.046995e-01
2.046995e-01
2.046992e-01
2.046992e-01
2.046992e-01
2.046993e-01
2.046993e-01
2.046993e-01
2.046994e-01
2.046994e-01
2.046994e-01
2.046994e-01
2.046994e-01
2.046995e-01
2.046995e-01
2.046995e-01
2.046995e-01
2.046995e-01
2.046992e-01
2.046992e-01
2.046992e-01
2.046992e-01
2.046993e-01
2.046993e-01
2.046993e-01
2.046994e-01
2.046994e-01
2.046994e-01
2.046994e-01
2.046995e-01
2.046995e-01
2.046995e-01
2.046995e-01
2.046995e-01


9.889580e-01
9.905238e-01
9.919724e-01
9.930874e-01
9.941224e-01
9.950768e-01
9.959463e-01
9.967207e-01
9.973920e-01
9.979533e-01
9.983997e-01
9.987267e-01
9.989300e-01
9.990025e-01
9.990548e-01
9.958279e-01
9.958226e-01
9.951050e-01
9.955667e-01
9.961693e-01
9.967310e-01
9.972416e-01
9.977038e-01
9.981224e-01
9.985014e-01
9.988448e-01
9.991563e-01
9.994384e-01
9.996845e-01
9.998457e-01
9.994381e-01
9.939142e-01
9.985485e-01
9.981364e-01
9.980252e-01
9.981817e-01
9.983875e-01
9.985870e-01
9.987721e-01
9.989470e-01
9.991165e-01
9.992817e-01
9.994360e-01
9.995555e-01
9.995805e-01
9.993653e-01
9.985848e-01
9.971810e-01
9.997046e-01
9.994040e-01
9.992183e-01
9.991712e-01
9.991900e-01
9.992216e-01
9.992531e-01
9.992839e-01
9.993142e-01
9.993395e-01
9.993465e-01
9.993089e-01
9.991895e-01
9.989753e-01
9.987937e-01
9.987477e-01
9.997057e-01
9.994056e-01
9.992197e-01
9.991709e-01
9.991854e-01
9.992081e-01
9.992239e-01
9.992292e-01
9.992220e-01
9.991987e-01
9.991554e-01
9.990929e-01
9.990335e-01
9.990453e-01
9.992134e-01
9.995044e-01
9.985506e-01
9.981396e-01
9.980282e-01
9.981817e-01
9.983795e-01
9.985623e-01
9.987169e-01
9.988412e-01
9.989342e-01
9.989969e-01
9.990365e-01
9.990753e-01
9.991567e-01
9.993273e-01
9.995836e-01
9.998485e-01
9.958222e-01
9.951048e-01
9.955661e-01
9.961675e-01
9.967266e-01
9.972315e-01
9.976830e-01
9.980827e-01
9.984310e-01
9.987287e-01
9.989807e-01
9.992008e-01
9.994128e-01
9.996350e-01
9.998428e-01
9.999737e-01
9.889505e-01
9.905121e-01
9.919579e-01
9.930712e-01
9.941079e-01
9.950715e-01
9.959643e-01
9.967840e-01
9.975309e-01
9.982036e-01
9.987940e-01
9.992837e-01
9.996480e-01
9.998728e-01
9.999751e-01
9.999995e-01
1 2 19 18
2 3 20 19
3 4 21 20
4 5 22 21
5 6 23 22
6 7 24 23
7 8 25 24
8 9 26 25
9 10 27 26
10 11 28 27
11 12 29 28
12 13 30 29
13 14 31 30
14 15 32 31
15 16 33 32
16 17 34 33
18 19 36 35
19 20 37 36
20 21 38 37
21 22 39 38
22 23 40 39
23 24 41 40
24 25 42 41
25 26 43 42
26 27 44 43
27 28 45 44
28 29 46 45
29 30 47 46
30 31 48 47
31 32 49 48
32 33 50 49
33 34 51 50
35 36 53 52
36 37 54 53
37 38 55 54
38 39 56 55
39 40 57 56
40 41 58 57
41 42 59 58
42 43 60 59
43 44 61 60
44 45 62 61
45 46 63 62
46 47 64 63
47 48 65 64
48 49 66 65
49 50 67 66
50 51 68 67
52 53 70 69
53 54 71 70
54 55 72 71
55 56 73 72
56 57 74 73
57 58 75 74
58 59 76 75
59 60 77 76
60 61 78 77
61 62 79 78
62 63 80 79
63 64 81 80
64 65 82 81
65 66 83 82
66 67 84 83
67 68 85 84
69 70 87 86
70 71 88 87
71 72 89 88
72 73 90 89
73 74 91 90
74 75 92 91
75 76 93 92
76 77 94 93
77 78 95 94
78 79 96 95
79 80 97 96
80 81 98 97
81 82 99 98
82 83 100 99
83 84 101 100
84 85 102 101
86 87 104 103
87 88 105 104
88 89 106 105
89 90 107 106
90 91 108 107
91 92 109 108
92 93 110 109
93 94 111 110
94 95 112 111
95 96 113 112
96 97 114 113
97 98 115 114
98 99 116 115
99 100 117 116
100 101 118 117
101 102 119 118
103 104 121 120
104 105 122 121
105 106 123 122
106 107 124 123
107 108 125 124
108 109 126 125
109 110 127 126
110 111 128 127
111 112 129 128
112 113 130 129
113 114 131 130
114 115 132 131
115 116 133 132
116 117 134 133
117 118 135 134
118 119 136 135
120 121 138 137
121 122 139 138
122 123 140 139
123 124 141 140
124 125 142 141
125 126 143 142
126 127 144 143
127 128 145 144
128 129 146 145
129 130 147 146
130 131 148 147
131 132 149 148
132 133 150 149
133 134 151 150
134 135 152 151
135 136 153 152
