TITLE = "Solution"
VARIABLES = x, y, u, v, psiu, psiv, t, stress
ZONE T="structure" N=153 E=128 F=FEBLOCK ET=QUADRILATERAL VARLOCATION=([7,8]=cellcentered)
0.000000e+00
1.250000e+01
2.500000e+01
3.750000e+01
5.000000e+01
6.250000e+01
7.500000e+01
8.750000e+01
1.000000e+02
1.125000e+02
1.250000e+02
1.375000e+02
1.500000e+02
1.625000e+02
1.750000e+02
1.875000e+02
2.000000e+02
0.000000e+00
1.250000e+01
2.500000e+01
3.750000e+01
5.000000e+01
6.250000e+01
7.500000e+01
8.750000e+01
1.000000e+02
1.125000e+02
1.250000e+02
1.375000e+02
1.500000e+02
1.625000e+02
1.750000e+02
1.875000e+02
2.000000e+02
0.000000e+00
1.250000e+01
2.500000e+01
3.750000e+01
5.000000e+01
6.250000e+01
7.500000e+01
8.750000e+01
1.000000e+02
1.125000e+02
1.250000e+02
1.375000e+02
1.500000e+02
1.625000e+02
1.750000e+02
1.875000e+02
2.000000e+02
0.000000e+00
1.250000e+01
2.500000e+01
3.750000e+01
5.000000e+01
6.250000e+01
7.500000e+01
8.750000e+01
1.000000e+02
1.125000e+02
1.250000e+02
1.375000e+02
1.500000e+02
1.625000e+02
1.750000e+02
1.875000e+02
2.000000e+02
0.000000e+00
1.250000e+01
2.500000e+01
3.750000e+01
5.000000e+01
6.250000e+01
7.500000e+01
8.750000e+01
1.000000e+02
1.125000e+02
1.250000e+02
1.375000e+02
1.500000e+02
1.625000e+02
1.750000e+02
1.875000e+02
2.000000e+02
0.000000e+00
1.250000e+01
2.500000e+01
3.750000e+01
5.000000e+01
6.250000e+01
7.500000e+01
8.750000e+01
1.000000e+02
1.125000e+02
1.250000e+02
1.375000e+02
1.500000e+02
1.625000e+02
1.750000e+02
1.875000e+02
2.000000e+02
0.000000e+00
1.250000e+01
2.500000e+01
3.750000e+01
5.000000e+01
6.250000e+01
7.500000e+01
8.750000e+01
1.000000e+02
1.125000e+02
1.250000e+02
1.375000e+02
1.500000e+02
1.625000e+02
1.750000e+02
1.875000e+02
2.000000e+02
0.000000e+00
1.250000e+01
2.500000e+01
3.750000e+01
5.000000e+01
6.250000e+01
7.500000e+01
8.750000e+01
1.000000e+02
1.125000e+02
1.250000e+02
1.375000e+02
1.500000e+02
1.625000e+02
1.750000e+02
1.875000e+02
2.000000e+02
0.000000e+00
1.250000e+01
2.500000e+01
3.750000e+01
5.000000e+01
6.250000e+01
7.500000e+01
8.750000e+01
1.000000e+02
1.125000e+02
1.250000e+02
1.375000e+02
1.500000e+02
1.625000e+02
1.750000e+02
1.875000e+02
2.000000e+02
0.000000e+00
0.000000e+00
0.000000e+00
0.000000e+00
0.000000e+00
0.000000e+00
0.000000e+00
0.000000e+00
0.000000e+00
0.000000e+00
0.000000e+00
0.000000e+00
0.000000e+00
0.000000e+00
0.000000e+00
0.000000e+00
0.000000e+00
1.250000e+01
1.250000e+01
1.250000e+01
1.250000e+01
1.250000e+01
1.250000e+01
1.250000e+01
1.250000e+01
1.250000e+01
1.250000e+01
1.250000e+01
1.250000e+01
1.250000e+01
1.250000e+01
1.250000e+01
1.250000e+01
1.250000e+01
2.500000e+01
2.500000e+01
2.500000e+01
2.500000e+01
2.500000e+01
2.500000e+01
2.500000e+01
2.500000e+01
2.500000e+01
2.500000e+01
2.500000e+01
2.500000e+01
2.500000e+01
2.500000e+01
2.500000e+01
2.500000e+01
2.500000e+01
3.750000e+01
3.750000e+01
3.750000e+01
3.750000e+01
3.750000e+01
3.750000e+01
3.750000e+01
3.750000e+01
3.750000e+01
3.750000e+01
3.750000e+01
3.750000e+01
3.750000e+01
3.750000e+01
3.750000e+01
3.750000e+01
3.750000e+01
5.000000e+01
5.000000e+01
5.000000e+01
5.000000e+01
5.000000e+01
5.000000e+01
5.000000e+01
5.000000e+01
5.000000e+01
5.000000e+01
5.000000e+01
5.000000e+01
5.000000e+01
5.000000e+01
5.000000e+01
5.000000e+01
5.000000e+01
6.250000e+01
6.250000e+01
6.250000e+01
6.250000e+01
6.250000e+01
6.250000e+01
6.250000e+01
6.250000e+01
6.250000e+01
6.250000e+01
6.250000e+01
6.250000e+01
6.250000e+01
6.250000e+01
6.250000e+01
6.250000e+01
6.250000e+01
7.500000e+01
7.500000e+01
7.500000e+01
7.500000e+01
7.500000e+01
7.500000e+01
7.500000e+01
7.500000e+01
7.500000e+01
7.500000e+01
7.500000e+01
7.500000e+01
7.500000e+01
7.500000e+01
7.500000e+01
7.500000e+01
7.500000e+01
8.750000e+01
8.750000e+01
8.750000e+01
8.750000e+01
8.750000e+01
8.750000e+01
8.750000e+01
8.750000e+01
8.750000e+01
8.750000e+01
8.750000e+01
8.750000e+01
8.750000e+01
8.750000e+01
8.750000e+01
8.750000e+01
8.750000e+01
1.000000e+02
1.000000e+02
1.000000e+02
1.000000e+02
1.000000e+02
1.000000e+02
1.000000e+02
1.000000e+02
1.000000e+02
1.000000e+02
1.000000e+02
1.000000e+02
1.000000e+02
1.000000e+02
1.000000e+02
1.000000e+02
1.000000e+02
0.000000e+00
-7.300887e-02
-1.344324e-01
-1.909501e-01
-2.435840e-01
-2.922230e-01
-3.367628e-01
-3.771687e-01
-4.134996e-01
-4.459228e-01
-4.747597e-01
-5.005738e-01
-5.243348e-01
-5.477176e-01
-5.736110e-01
-6.054113e-01
-6.292740e-01
0.000000e+00
-4.359955e-02
-9.056958e-02
-1.339435e-01
-1.739042e-01
-2.106038e-01
-2.441182e-01
-2.744925e-01
-3.017812e-01
-3.260685e-01
-3.474776e-01
-3.661628e-01
-3.822434e-01
-3.955538e-01
-4.049424e-01
-4.070002e-01
-4.143780e-01
0.000000e+00
-2.726588e-02
-5.606548e-02
-8.479740e-02
-1.116178e-01
-1.362428e-01
-1.586522e-01
-1.788716e-01
-1.969058e-01
-2.127248e-01
-2.262434e-01
-2.372727e-01
-2.454197e-01
-2.499675e-01
-2.500938e-01
-2.482770e-01
-2.558017e-01
0.000000e+00
-1.316019e-02
-2.709202e-02
-4.111187e-02
-5.451741e-02
-6.686477e-02
-7.805646e-02
-8.805988e-02
-9.681775e-02
-1.042161e-01
-1.100659e-01
-1.140910e-01
-1.159618e-01
-1.155248e-01
-1.137290e-01
-1.142201e-01
-1.198230e-01
0.000000e+00
-1.212351e-05
-2.756052e-05
-4.294688e-05
-5.111293e-05
-3.607066e-05
3.391419e-05
2.157848e-04
6.029644e-04
1.334612e-03
2.592280e-03
4.558353e-03
7.282114e-03
1.036010e-02
1.248628e-02
1.190315e-02
8.193503e-03
0.000000e+00
1.314154e-02
2.704872e-02
4.104260e-02
5.443125e-02
6.679469e-02
7.808364e-02
8.835332e-02
9.769275e-02
1.062103e-01
1.140172e-01
1.211712e-01
1.275481e-01
1.326617e-01
1.356698e-01
1.359084e-01
1.340255e-01
0.000000e+00
2.726282e-02
5.605615e-02
8.477884e-02
1.115888e-01
1.362067e-01
1.586223e-01
1.788813e-01
1.970256e-01
2.130876e-01
2.270810e-01
2.389718e-01
2.486232e-01
2.557589e-01
2.600418e-01
2.614325e-01
2.609934e-01
0.000000e+00
4.361744e-02
9.060847e-02
1.340055e-01
1.739874e-01
2.106928e-01
2.441682e-01
2.744011e-01
3.013456e-01
3.249237e-01
3.450237e-01
3.615065e-01
3.742402e-01
3.831828e-01
3.885172e-01
3.907921e-01
3.912099e-01
0.000000e+00
7.303878e-02
1.345113e-01
1.910979e-01
2.438201e-01
2.925551e-01
3.371589e-01
3.775018e-01
4.134489e-01
4.448134e-01
4.713231e-01
4.926248e-01
5.083685e-01
5.184305e-01
5.232965e-01
5.244976e-01
5.244745e-01
0.000000e+00
-4.419429e-02
-8.675860e-02
-1.419121e-01
-2.096015e-01
-2.897004e-01
-3.813314e-01
-4.834692e-01
-5.950276e-01
-7.149351e-01
-8.422016e-01
-9.760392e-01
-1.116125e+00
-1.263208e+00
-1.421102e+00
-1.601763e+00
-1.861340e+00
0.000000e+00
-2.720683e-02
-7.160839e-02
-1.274457e-01
-1.962415e-01
-2.774334e-01
-3.701745e-01
-4.734142e-01
-5.860539e-01
-7.070025e-01
-8.352427e-01
-9.699506e-01
-1.110753e+00
-1.258379e+00
-1.416212e+00
-1.595777e+00
-1.815762e+00
0.000000e+00
-2.052999e-02
-6.110551e-02
-1.171489e-01
-1.865951e-01
-2.686227e-01
-3.622162e-01
-4.663150e-01
-5.798277e-01
-7.016791e-01
-8.308712e-01
-9.666085e-01
-1.108554e+00
-1.257315e+00
-1.415284e+00
-1.585427e+00
-1.750090e+00
0.000000e+00
-1.769131e-02
-5.588354e-02
-1.111050e-01
-1.808022e-01
-2.633347e-01
-3.575117e-01
-4.622323e-01
-5.764257e-01
-6.990456e-01
-8.291159e-01
-9.658254e-01
-1.108677e+00
-1.257602e+00
-1.412411e+00
-1.568748e+00
-1.712771e+00
0.000000e+00
-1.687356e-02
-5.430313e-02
-1.091769e-01
-1.788931e-01
-2.616310e-01
-3.560788e-01
-4.611365e-01
-5.757537e-01
-6.989013e-01
-8.295813e-01
-9.668542e-01
-1.109833e+00
-1.257462e+00
-1.407533e+00
-1.554913e+00
-1.690686e+00
0.000000e+00
-1.768081e-02
-5.587607e-02
-1.111183e-01
-1.808675e-01
-2.635068e-01
-3.578799e-01
-4.629295e-01
-5.776277e-01
-7.009403e-01
-8.318046e-01
-9.690839e-01
-1.111450e+00
-1.257092e+00
-1.403211e+00
-1.545537e+00
-1.678413e+00
0.000000e+00
-2.051286e-02
-6.109313e-02
-1.171711e-01
-1.867052e-01
-2.689139e-01
-3.628404e-01
-4.674989e-01
-5.818716e-01
-7.049065e-01
-8.354696e-01
-9.722492e-01
-1.113598e+00
-1.257331e+00
-1.400617e+00
-1.540212e+00
-1.672999e+00
0.000000e+00
-2.719077e-02
-7.159761e-02
-1.274752e-01
-1.963736e-01
-2.777758e-01
-3.709010e-01
-4.747826e-01
-5.884017e-01
-7.106872e-01
-8.404583e-01
-9.763100e-01
-1.116454e+00
-1.258587e+00
-1.399967e+00
-1.538010e+00
-1.671728e+00
0.000000e+00
-4.418766e-02
-8.675953e-02
-1.419577e-01
-2.097547e-01
-2.900663e-01
-3.820749e-01
-4.848256e-01
-5.972890e-01
-7.183750e-01
-8.468746e-01
-9.813515e-01
-1.120005e+00
-1.260583e+00
-1.400520e+00
-1.537607e+00
-1.671748e+00


0.000000e+00
7.870121e-08
1.577113e-07
2.310762e-07
2.998543e-07
3.636577e-07
4.222228e-07
4.755389e-07
5.237187e-07
5.669698e-07
6.055834e-07
6.398828e-07
6.700587e-07
6.958780e-07
7.170126e-07
7.350790e-07
7.511606e-07
0.000000e+00
4.429429e-08
1.077700e-07
1.648250e-07
2.171148e-07
2.652935e-07
3.093228e-07
3.492082e-07
3.849865e-07
4.166877e-07
4.443059e-07
4.677629e-07
4.869422e-07
5.022403e-07
5.162141e-07
5.328093e-07
5.498977e-07
0.000000e+00
2.793115e-08
6.813449e-08
1.058386e-07
1.409697e-07
1.732649e-07
2.026016e-07
2.289492e-07
2.522713e-07
2.724925e-07
2.894997e-07
3.032128e-07
3.138482e-07
3.224997e-07
3.316272e-07
3.439674e-07
3.582307e-07
0.000000e+00
1.365116e-08
3.266907e-08
5.113599e-08
6.870414e-08
8.483498e-08
9.935674e-08
1.122057e-07
1.233085e-07
1.325703e-07
1.399123e-07
1.453790e-07
1.493412e-07
1.527344e-07
1.571077e-07
1.643005e-07
1.742013e-07
0.000000e+00
1.412214e-11
1.739246e-11
-7.861924e-12
-8.579569e-11
-2.549410e-10
-5.717882e-10
-1.111507e-09
-1.961303e-09
-3.198712e-09
-4.844011e-09
-6.780724e-09
-8.662580e-09
-9.855270e-09
-9.382698e-09
-5.997051e-09
5.052577e-10
0.000000e+00
-1.362475e-08
-3.263376e-08
-5.113797e-08
-6.882923e-08
-8.523352e-08
-1.002754e-07
-1.140214e-07
-1.265529e-07
-1.379209e-07
-1.481041e-07
-1.569647e-07
-1.642201e-07
-1.694481e-07
-1.721267e-07
-1.716150e-07
-1.680541e-07
0.000000e+00
-2.791450e-08
-6.810999e-08
-1.058242e-07
-1.409996e-07
-1.734033e-07
-2.029609e-07
-2.297093e-07
-2.536990e-07
-2.749475e-07
-2.934057e-07
-3.089299e-07
-3.212762e-07
-3.301571e-07
-3.354269e-07
-3.371819e-07
-3.361304e-07
0.000000e+00
-4.431110e-08
-1.078035e-07
-1.648555e-07
-2.171096e-07
-2.651969e-07
-3.090432e-07
-3.486041e-07
-3.838531e-07
-4.147497e-07
-4.412274e-07
-4.631851e-07
-4.804895e-07
-4.930278e-07
-5.009124e-07
-5.047888e-07
-5.057251e-07
0.000000e+00
-7.879401e-08
-1.578757e-07
-2.312795e-07
-3.000281e-07
-3.636592e-07
-4.217819e-07
-4.741885e-07
-5.207135e-07
-5.612060e-07
-5.955481e-07
-6.236894e-07
-6.456816e-07
-6.617083e-07
-6.721460e-07
-6.775409e-07
-6.792735e-07
0.000000e+00
7.124786e-08
1.389587e-07
2.149251e-07
3.055305e-07
4.117095e-07
5.327625e-07
6.675664e-07
8.148283e-07
9.732941e-07
1.141890e-06
1.319953e-06
1.507842e-06
1.708255e-06
1.926140e-06
2.157583e-06
2.387218e-06
0.000000e+00
4.308404e-08
1.088942e-07
1.854668e-07
2.778479e-07
3.861716e-07
5.095241e-07
6.466364e-07
7.961826e-07
9.568914e-07
1.127670e-06
1.307805e-06
1.497314e-06
1.697382e-06
1.909966e-06
2.135538e-06
2.362149e-06
0.000000e+00
2.742706e-08
8.479437e-08
1.612929e-07
2.550150e-07
3.651968e-07
4.905494e-07
6.297048e-07
7.813148e-07
9.441026e-07
1.116938e-06
1.298932e-06
1.489478e-06
1.688015e-06
1.894216e-06
2.111553e-06
2.330863e-06
0.000000e+00
2.011473e-08
7.212033e-08
1.472010e-07
2.415423e-07
3.528747e-07
4.795282e-07
6.200482e-07
7.730685e-07
9.372896e-07
1.111488e-06
1.294500e-06
1.485100e-06
1.681755e-06
1.883236e-06
2.092196e-06
2.300590e-06
0.000000e+00
1.801413e-08
6.827865e-08
1.426686e-07
2.371772e-07
3.489698e-07
4.761839e-07
6.173263e-07
7.710134e-07
9.358973e-07
1.110628e-06
1.293785e-06
1.483732e-06
1.678438e-06
1.875909e-06
2.077378e-06
2.275035e-06
0.000000e+00
2.013100e-08
7.218124e-08
1.473515e-07
2.418415e-07
3.534028e-07
4.803852e-07
6.213399e-07
7.748686e-07
9.395624e-07
1.113950e-06
1.296421e-06
1.485101e-06
1.677682e-06
1.871670e-06
2.066886e-06
2.256712e-06
0.000000e+00
2.745330e-08
8.490049e-08
1.615567e-07
2.555397e-07
3.661241e-07
4.920561e-07
6.319778e-07
7.844854e-07
9.481098e-07
1.121278e-06
1.302248e-06
1.489018e-06
1.679176e-06
1.870062e-06
2.060600e-06
2.245552e-06
0.000000e+00
4.311737e-08
1.090289e-07
1.857918e-07
2.784883e-07
3.872975e-07
5.113461e-07
6.493719e-07
7.999733e-07
9.616328e-07
1.132697e-06
1.311330e-06
1.495457e-06
1.682711e-06
1.870640e-06
2.057774e-06
2.240225e-06
0.000000e+00
7.130308e-08
1.391162e-07
2.152758e-07
3.061974e-07
4.128552e-07
5.345791e-07
6.702355e-07
8.184273e-07
9.776123e-07
1.146095e-06
1.321994e-06
1.503213e-06
1.687482e-06
1.872638e-06
2.057314e-06
2.238672e-06


2.133249e-01
2.133248e-01
2.133251e-01
2.133258e-01
2.133264e-01
2.133270e-01
2.133275e-01
2.133279e-01
2.133283e-01
2.133287e-01
2.133289e-01
2.133292e-01
2.133293e-01
2.133292e-01
2.133289e-01
2.133287e-01
2.133259e-01
2.133258e-01
2.133260e-01
2.133265e-01
2.133270e-01
2.133275e-01
2.133279e-01
2.133282e-01
2.133285e-01
2.133288e-01
2.133291e-01
2.133292e-01
2.133293e-01
2.133292e-01
2.133289e-01
2.133287e-01
2.133276e-01
2.133275e-01
2.133275e-01
2.133278e-01
2.133280e-01
2.133283e-01
2.133285e-01
2.133287e-01
2.133289e-01
2.133291e-01
2.133292e-01
2.133293e-01
2.133293e-01
2.133292e-01
2.133289e-01
2.133288e-01
2.133288e-01
2.133287e-01
2.133286e-01
2.133287e-01
2.133288e-01
2.133289e-01
2.133290e-01
2.133291e-01
2.133292e-01
2.133292e-01
2.133293e-01
2.133293e-01
2.133293e-01
2.133292e-01
2.133291e-01
2.133291e-01
2.133288e-01
2.133287e-01
2.133286e-01
2.133287e-01
2.133288e-01
2.133289e-01
2.133290e-01
2.133290e-01
2.133291e-01
2.133292e-01
2.133292e-01
2.133293e-01
2.133293e-01
2.133293e-01
2.133293e-01
2.133293e-01
2.133276e-01
2.133275e-01
2.133275e-01
2.133278e-01
2.133280e-01
2.133283e-01
2.133285e-01
2.133287e-01
2.133289e-01
2.133290e-01
2.133291e-01
2.133292e-01
2.133293e-01
2.133294e-01
2.133295e-01
2.133296e-01
2.133259e-01
2.133258e-01
2.133260e-01
2.133265e-01
2.133270e-01
2.133275e-01
2.133279e-01
2.133282e-01
2.133285e-01
2.133288e-01
2.133290e-01
2.133292e-01
2.133294e-01
2.133295e-01
2.133297e-01
2.133297e-01
2.133249e-01
2.133248e-01
2.133251e-01
2.133258e-01
2.133264e-01
2.133270e-01
2.133275e-01
2.133279e-01
2.133283e-01
2.133287e-01
2.133290e-01
2.133293e-01
2.133295e-01
2.133296e-01
2.133297e-01
2.133298e-01


9.880077e-01
9.897083e-01
9.912815e-01
9.924925e-01
9.936166e-01
9.946531e-01
9.955974e-01
9.964385e-01
9.971674e-01
9.977771e-01
9.982620e-01
9.986171e-01
9.988379e-01
9.989166e-01
9.989735e-01
9.954687e-01
9.954631e-01
9.946838e-01
9.951852e-01
9.958396e-01
9.964496e-01
9.970042e-01
9.975061e-01
9.979608e-01
9.983724e-01
9.987453e-01
9.990837e-01
9.993900e-01
9.996573e-01
9.998324e-01
9.993897e-01
9.933903e-01
9.984236e-01
9.979760e-01
9.978552e-01
9.980252e-01
9.982487e-01
9.984653e-01
9.986664e-01
9.988564e-01
9.990404e-01
9.992199e-01
9.993875e-01
9.995173e-01
9.995443e-01
9.993107e-01
9.984630e-01
9.969383e-01
9.996792e-01
9.993527e-01
9.991511e-01
9.990999e-01
9.991203e-01
9.991546e-01
9.991888e-01
9.992223e-01
9.992551e-01
9.992826e-01
9.992902e-01
9.992494e-01
9.991198e-01
9.988871e-01
9.986898e-01
9.986399e-01
9.996804e-01
9.993544e-01
9.991526e-01
9.990996e-01
9.991152e-01
9.991400e-01
9.991571e-01
9.991629e-01
9.991550e-01
9.991297e-01
9.990827e-01
9.990148e-01
9.989503e-01
9.989631e-01
9.991457e-01
9.994617e-01
9.984259e-01
9.979794e-01
9.978585e-01
9.980252e-01
9.982401e-01
9.984385e-01
9.986064e-01
9.987414e-01
9.988425e-01
9.989105e-01
9.989536e-01
9.989957e-01
9.990840e-01
9.992694e-01
9.995477e-01
9.998355e-01
9.954627e-01
9.946835e-01
9.951845e-01
9.958377e-01
9.964449e-01
9.969932e-01
9.974835e-01
9.979176e-01
9.982959e-01
9.986192e-01
9.988929e-01
9.991320e-01
9.993622e-01
9.996036e-01
9.998293e-01
9.999714e-01
9.879996e-01
9.896955e-01
9.912658e-01
9.924749e-01
9.936007e-01
9.946473e-01
9.956169e-01
9.965072e-01
9.973184e-01
9.980489e-01
9.986901e-01
9.992220e-01
9.996177e-01
9.998619e-01
9.999729e-01
9.999994e-01
1 2 19 18
2 3 20 19
3 4 21 20
4 5 22 21
5 6 23 22
6 7 24 23
7 8 25 24
8 9 26 25
9 10 27 26
10 11 28 27
11 12 29 28
12 13 30 29
13 14 31 30
14 15 32 31
15 16 33 32
16 17 34 33
18 19 36 35
19 20 37 36
20 21 38 37
21 22 39 38
22 23 40 39
23 24 41 40
24 25 42 41
25 26 43 42
26 27 44 43
27 28 45 44
28 29 46 45
29 30 47 46
30 31 48 47
31 32 49 48
32 33 50 49
33 34 51 50
35 36 53 52
36 37 54 53
37 38 55 54
38 39 56 55
39 40 57 56
40 41 58 57
41 42 59 58
42 43 60 59
43 44 61 60
44 45 62 61
45 46 63 62
46 47 64 63
47 48 65 64
48 49 66 65
49 50 67 66
50 51 68 67
52 53 70 69
53 54 71 70
54 55 72 71
55 56 73 72
56 57 74 73
57 58 75 74
58 59 76 75
59 60 77 76
60 61 78 77
61 62 79 78
62 63 80 79
63 64 81 80
64 65 82 81
65 66 83 82
66 67 84 83
67 68 85 84
69 70 87 86
70 71 88 87
71 72 89 88
72 73 90 89
73 74 91 90
74 75 92 91
75 76 93 92
76 77 94 93
77 78 95 94
78 79 96 95
79 80 97 96
80 81 98 97
81 82 99 98
82 83 100 99
83 84 101 100
84 85 102 101
86 87 104 103
87 88 105 104
88 89 106 105
89 90 107 106
90 91 108 107
91 92 109 108
92 93 110 109
93 94 111 110
94 95 112 111
95 96 113 112
96 97 114 113
97 98 115 114
98 99 116 115
99 100 117 116
100 101 118 117
101 102 119 118
103 104 121 120
104 105 122 121
105 106 123 122
106 107 124 123
107 108 125 124
108 109 126 125
109 110 127 126
110 111 128 127
111 112 129 128
112 113 130 129
113 114 131 130
114 115 132 131
115 116 133 132
116 117 134 133
117 118 135 134
118 119 136 135
120 121 138 137
121 122 139 138
122 123 140 139
123 124 141 140
124 125 142 141
125 126 143 142
126 127 144 143
127 128 145 144
128 129 146 145
129 130 147 146
130 131 148 147
131 132 149 148
132 133 150 149
133 134 151 150
134 135 152 151
135 136 153 152
