TITLE = "Solution"
VARIABLES = x, y, u, v, psiu, psiv, t, stress
ZONE T="structure" N=153 E=128 F=FEBLOCK ET=QUADRILATERAL VARLOCATION=([7,8]=cellcentered)
0.000000e+00
1.250000e+01
2.500000e+01
3.750000e+01
5.000000e+01
6.250000e+01
7.500000e+01
8.750000e+01
1.000000e+02
1.125000e+02
1.250000e+02
1.375000e+02
1.500000e+02
1.625000e+02
1.750000e+02
1.875000e+02
2.000000e+02
0.000000e+00
1.250000e+01
2.500000e+01
3.750000e+01
5.000000e+01
6.250000e+01
7.500000e+01
8.750000e+01
1.000000e+02
1.125000e+02
1.250000e+02
1.375000e+02
1.500000e+02
1.625000e+02
1.750000e+02
1.875000e+02
2.000000e+02
0.000000e+00
1.250000e+01
2.500000e+01
3.750000e+01
5.000000e+01
6.250000e+01
7.500000e+01
8.750000e+01
1.000000e+02
1.125000e+02
1.250000e+02
1.375000e+02
1.500000e+02
1.625000e+02
1.750000e+02
1.875000e+02
2.000000e+02
0.000000e+00
1.250000e+01
2.500000e+01
3.750000e+01
5.000000e+01
6.250000e+01
7.500000e+01
8.750000e+01
1.000000e+02
1.125000e+02
1.250000e+02
1.375000e+02
1.500000e+02
1.625000e+02
1.750000e+02
1.875000e+02
2.000000e+02
0.000000e+00
1.250000e+01
2.500000e+01
3.750000e+01
5.000000e+01
6.250000e+01
7.500000e+01
8.750000e+01
1.000000e+02
1.125000e+02
1.250000e+02
1.375000e+02
1.500000e+02
1.625000e+02
1.750000e+02
1.875000e+02
2.000000e+02
0.000000e+00
1.250000e+01
2.500000e+01
3.750000e+01
5.000000e+01
6.250000e+01
7.500000e+01
8.750000e+01
1.000000e+02
1.125000e+02
1.250000e+02
1.375000e+02
1.500000e+02
1.625000e+02
1.750000e+02
1.875000e+02
2.000000e+02
0.000000e+00
1.250000e+01
2.500000e+01
3.750000e+01
5.000000e+01
6.250000e+01
7.500000e+01
8.750000e+01
1.000000e+02
1.125000e+02
1.250000e+02
1.375000e+02
1.500000e+02
1.625000e+02
1.750000e+02
1.875000e+02
2.000000e+02
0.000000e+00
1.250000e+01
2.500000e+01
3.750000e+01
5.000000e+01
6.250000e+01
7.500000e+01
8.750000e+01
1.000000e+02
1.125000e+02
1.250000e+02
1.375000e+02
1.500000e+02
1.625000e+02
1.750000e+02
1.875000e+02
2.000000e+02
0.000000e+00
1.250000e+01
2.500000e+01
3.750000e+01
5.000000e+01
6.250000e+01
7.500000e+01
8.750000e+01
1.000000e+02
1.125000e+02
1.250000e+02
1.375000e+02
1.500000e+02
1.625000e+02
1.750000e+02
1.875000e+02
2.000000e+02
0.000000e+00
0.000000e+00
0.000000e+00
0.000000e+00
0.000000e+00
0.000000e+00
0.000000e+00
0.000000e+00
0.000000e+00
0.000000e+00
0.000000e+00
0.000000e+00
0.000000e+00
0.000000e+00
0.000000e+00
0.000000e+00
0.000000e+00
1.250000e+01
1.250000e+01
1.250000e+01
1.250000e+01
1.250000e+01
1.250000e+01
1.250000e+01
1.250000e+01
1.250000e+01
1.250000e+01
1.250000e+01
1.250000e+01
1.250000e+01
1.250000e+01
1.250000e+01
1.250000e+01
1.250000e+01
2.500000e+01
2.500000e+01
2.500000e+01
2.500000e+01
2.500000e+01
2.500000e+01
2.500000e+01
2.500000e+01
2.500000e+01
2.500000e+01
2.500000e+01
2.500000e+01
2.500000e+01
2.500000e+01
2.500000e+01
2.500000e+01
2.500000e+01
3.750000e+01
3.750000e+01
3.750000e+01
3.750000e+01
3.750000e+01
3.750000e+01
3.750000e+01
3.750000e+01
3.750000e+01
3.750000e+01
3.750000e+01
3.750000e+01
3.750000e+01
3.750000e+01
3.750000e+01
3.750000e+01
3.750000e+01
5.000000e+01
5.000000e+01
5.000000e+01
5.000000e+01
5.000000e+01
5.000000e+01
5.000000e+01
5.000000e+01
5.000000e+01
5.000000e+01
5.000000e+01
5.000000e+01
5.000000e+01
5.000000e+01
5.000000e+01
5.000000e+01
5.000000e+01
6.250000e+01
6.250000e+01
6.250000e+01
6.250000e+01
6.250000e+01
6.250000e+01
6.250000e+01
6.250000e+01
6.250000e+01
6.250000e+01
6.250000e+01
6.250000e+01
6.250000e+01
6.250000e+01
6.250000e+01
6.250000e+01
6.250000e+01
7.500000e+01
7.500000e+01
7.500000e+01
7.500000e+01
7.500000e+01
7.500000e+01
7.500000e+01
7.500000e+01
7.500000e+01
7.500000e+01
7.500000e+01
7.500000e+01
7.500000e+01
7.500000e+01
7.500000e+01
7.500000e+01
7.500000e+01
8.750000e+01
8.750000e+01
8.750000e+01
8.750000e+01
8.750000e+01
8.750000e+01
8.750000e+01
8.750000e+01
8.750000e+01
8.750000e+01
8.750000e+01
8.750000e+01
8.750000e+01
8.750000e+01
8.750000e+01
8.750000e+01
8.750000e+01
1.000000e+02
1.000000e+02
1.000000e+02
1.000000e+02
1.000000e+02
1.000000e+02
1.000000e+02
1.000000e+02
1.000000e+02
1.000000e+02
1.000000e+02
1.000000e+02
1.000000e+02
1.000000e+02
1.000000e+02
1.000000e+02
1.000000e+02
0.000000e+00
-7.506885e-02
-1.382255e-01
-1.963379e-01
-2.504570e-01
-3.004686e-01
-3.462653e-01
-3.878116e-01
-4.251679e-01
-4.585062e-01
-4.881569e-01
-5.146997e-01
-5.391313e-01
-5.631741e-01
-5.897984e-01
-6.224963e-01
-6.470326e-01
0.000000e+00
-4.482970e-02
-9.312499e-02
-1.377227e-01
-1.788111e-01
-2.165463e-01
-2.510065e-01
-2.822380e-01
-3.102969e-01
-3.352696e-01
-3.572830e-01
-3.764957e-01
-3.930301e-01
-4.067162e-01
-4.163698e-01
-4.184857e-01
-4.260717e-01
0.000000e+00
-2.803516e-02
-5.764733e-02
-8.718995e-02
-1.147672e-01
-1.400870e-01
-1.631289e-01
-1.839189e-01
-2.024621e-01
-2.187275e-01
-2.326277e-01
-2.439683e-01
-2.523453e-01
-2.570214e-01
-2.571512e-01
-2.552832e-01
-2.630203e-01
0.000000e+00
-1.353149e-02
-2.785640e-02
-4.227183e-02
-5.605564e-02
-6.875143e-02
-8.025896e-02
-9.054469e-02
-9.954973e-02
-1.071569e-01
-1.131718e-01
-1.173105e-01
-1.192342e-01
-1.187847e-01
-1.169383e-01
-1.174432e-01
-1.232043e-01
0.000000e+00
-1.246578e-05
-2.833860e-05
-4.415937e-05
-5.255608e-05
-3.708944e-05
3.487048e-05
2.218742e-04
6.199818e-04
1.372280e-03
2.665447e-03
4.687014e-03
7.487657e-03
1.065253e-02
1.283872e-02
1.223913e-02
8.424775e-03
0.000000e+00
1.351231e-02
2.781187e-02
4.220060e-02
5.596704e-02
6.867937e-02
8.028691e-02
9.084641e-02
1.004494e-01
1.092073e-01
1.172346e-01
1.245905e-01
1.311475e-01
1.364054e-01
1.394984e-01
1.397437e-01
1.378077e-01
0.000000e+00
2.803201e-02
5.763774e-02
8.717086e-02
1.147374e-01
1.400499e-01
1.630981e-01
1.839289e-01
2.025853e-01
2.191005e-01
2.334889e-01
2.457154e-01
2.556392e-01
2.629762e-01
2.673801e-01
2.688100e-01
2.683586e-01
0.000000e+00
4.484809e-02
9.316498e-02
1.377865e-01
1.788966e-01
2.166378e-01
2.510579e-01
2.821441e-01
3.098490e-01
3.340926e-01
3.547598e-01
3.717078e-01
3.848010e-01
3.939960e-01
3.994810e-01
4.018201e-01
4.022497e-01
0.000000e+00
7.509961e-02
1.383067e-01
1.964899e-01
2.506998e-01
3.008101e-01
3.466727e-01
3.881541e-01
4.251157e-01
4.573654e-01
4.846234e-01
5.065263e-01
5.227144e-01
5.330604e-01
5.380638e-01
5.392988e-01
5.392750e-01
0.000000e+00
-4.544127e-02
-8.920663e-02
-1.459164e-01
-2.155159e-01
-2.978750e-01
-3.920917e-01
-4.971116e-01
-6.118181e-01
-7.351093e-01
-8.659672e-01
-1.003582e+00
-1.147621e+00
-1.298854e+00
-1.461205e+00
-1.646964e+00
-1.913867e+00
0.000000e+00
-2.797450e-02
-7.362894e-02
-1.310419e-01
-2.017788e-01
-2.852618e-01
-3.806199e-01
-4.867729e-01
-6.025911e-01
-7.269528e-01
-8.588119e-01
-9.973211e-01
-1.142097e+00
-1.293889e+00
-1.456176e+00
-1.640808e+00
-1.867002e+00
0.000000e+00
-2.110928e-02
-6.282972e-02
-1.204545e-01
-1.918602e-01
-2.762025e-01
-3.724370e-01
-4.794733e-01
-5.961892e-01
-7.214791e-01
-8.543170e-01
-9.938848e-01
-1.139836e+00
-1.292795e+00
-1.455222e+00
-1.630167e+00
-1.799476e+00
0.000000e+00
-1.819053e-02
-5.746042e-02
-1.142401e-01
-1.859039e-01
-2.707652e-01
-3.675998e-01
-4.752753e-01
-5.926911e-01
-7.187713e-01
-8.525121e-01
-9.930795e-01
-1.139962e+00
-1.293090e+00
-1.452268e+00
-1.613017e+00
-1.761105e+00
0.000000e+00
-1.734971e-02
-5.583542e-02
-1.122576e-01
-1.839409e-01
-2.690135e-01
-3.661264e-01
-4.741486e-01
-5.920002e-01
-7.186229e-01
-8.529906e-01
-9.941374e-01
-1.141151e+00
-1.292946e+00
-1.447252e+00
-1.598791e+00
-1.738396e+00
0.000000e+00
-1.817973e-02
-5.745273e-02
-1.142537e-01
-1.859710e-01
-2.709422e-01
-3.679783e-01
-4.759923e-01
-5.939271e-01
-7.207194e-01
-8.552767e-01
-9.964301e-01
-1.142814e+00
-1.292566e+00
-1.442808e+00
-1.589151e+00
-1.725776e+00
0.000000e+00
-2.109166e-02
-6.281698e-02
-1.204773e-01
-1.919734e-01
-2.765018e-01
-3.730788e-01
-4.806906e-01
-5.982908e-01
-7.247977e-01
-8.590451e-01
-9.996847e-01
-1.145022e+00
-1.292811e+00
-1.440141e+00
-1.583675e+00
-1.720210e+00
0.000000e+00
-2.795798e-02
-7.361785e-02
-1.310722e-01
-2.019147e-01
-2.856138e-01
-3.813669e-01
-4.881799e-01
-6.050052e-01
-7.307414e-01
-8.641747e-01
-1.003860e+00
-1.147959e+00
-1.294103e+00
-1.439473e+00
-1.581411e+00
-1.718903e+00
0.000000e+00
-4.543445e-02
-8.920758e-02
-1.459633e-01
-2.156734e-01
-2.982512e-01
-3.928561e-01
-4.985063e-01
-6.141433e-01
-7.386463e-01
-8.707721e-01
-1.009044e+00
-1.151610e+00
-1.296155e+00
-1.440041e+00
-1.580997e+00
-1.718923e+00


0.000000e+00
5.181797e-08
1.038656e-07
1.521758e-07
1.974296e-07
2.393723e-07
2.778369e-07
3.128239e-07
3.444154e-07
3.727548e-07
3.980397e-07
4.204880e-07
4.402302e-07
4.571197e-07
4.709475e-07
4.827764e-07
4.933143e-07
0.000000e+00
2.921214e-08
7.105305e-08
1.086298e-07
1.430329e-07
1.746987e-07
2.036096e-07
2.297765e-07
2.532305e-07
2.739973e-07
2.920784e-07
3.074271e-07
3.199707e-07
3.299711e-07
3.391067e-07
3.499694e-07
3.611660e-07
0.000000e+00
1.845241e-08
4.496222e-08
6.979857e-08
9.291343e-08
1.141377e-07
1.333977e-07
1.506795e-07
1.659644e-07
1.792078e-07
1.903392e-07
1.993092e-07
2.062620e-07
2.119153e-07
2.178830e-07
2.259615e-07
2.353061e-07
0.000000e+00
9.028152e-09
2.156725e-08
3.373392e-08
4.529457e-08
5.589634e-08
6.543005e-08
7.385752e-08
8.113371e-08
8.719902e-08
9.200375e-08
9.557895e-08
9.816881e-08
1.003871e-07
1.032486e-07
1.079578e-07
1.144422e-07
0.000000e+00
9.110236e-12
1.108543e-11
-5.632877e-12
-5.686378e-11
-1.678263e-10
-3.754740e-10
-7.289993e-10
-1.285411e-09
-2.095365e-09
-3.171981e-09
-4.438705e-09
-5.668611e-09
-6.446563e-09
-6.134934e-09
-3.918182e-09
3.381062e-10
0.000000e+00
-9.011112e-09
-2.154467e-08
-3.373606e-08
-4.537765e-08
-5.615876e-08
-6.603329e-08
-7.504816e-08
-8.325963e-08
-9.070324e-08
-9.736695e-08
-1.031621e-07
-1.079052e-07
-1.113214e-07
-1.130710e-07
-1.127355e-07
-1.104057e-07
0.000000e+00
-1.844163e-08
-4.494649e-08
-6.978972e-08
-9.293376e-08
-1.142294e-07
-1.336341e-07
-1.511782e-07
-1.668999e-07
-1.808151e-07
-1.928955e-07
-2.030505e-07
-2.111233e-07
-2.169288e-07
-2.203734e-07
-2.215206e-07
-2.208327e-07
0.000000e+00
-2.922316e-08
-7.107513e-08
-1.086501e-07
-1.430299e-07
-1.746361e-07
-2.034274e-07
-2.293821e-07
-2.524898e-07
-2.727301e-07
-2.900650e-07
-3.044334e-07
-3.157522e-07
-3.239513e-07
-3.291066e-07
-3.316409e-07
-3.322528e-07
0.000000e+00
-5.187875e-08
-1.039733e-07
-1.523089e-07
-1.975433e-07
-2.393733e-07
-2.775484e-07
-3.119404e-07
-3.424494e-07
-3.689848e-07
-3.914766e-07
-4.098983e-07
-4.242890e-07
-4.347729e-07
-4.415988e-07
-4.451259e-07
-4.462581e-07
0.000000e+00
4.691200e-08
9.143801e-08
1.413713e-07
2.009292e-07
2.707263e-07
3.502963e-07
4.388942e-07
5.356643e-07
6.397781e-07
7.505270e-07
8.674737e-07
9.908501e-07
1.122422e-06
1.265441e-06
1.417359e-06
1.568106e-06
0.000000e+00
2.834301e-08
7.162075e-08
1.219710e-07
1.827173e-07
2.539425e-07
3.350387e-07
4.251643e-07
5.234426e-07
6.290341e-07
7.412183e-07
8.595256e-07
9.839644e-07
1.115312e-06
1.254854e-06
1.402916e-06
1.551675e-06
0.000000e+00
1.801428e-08
5.573811e-08
1.060570e-07
1.677025e-07
2.401640e-07
3.225858e-07
4.140616e-07
5.137003e-07
6.206596e-07
7.341948e-07
8.537220e-07
9.788413e-07
1.109186e-06
1.244543e-06
1.387203e-06
1.531173e-06
0.000000e+00
1.319528e-08
4.739308e-08
9.678745e-08
1.588495e-07
2.320750e-07
3.153569e-07
4.077324e-07
5.082989e-07
6.161996e-07
7.306292e-07
8.508238e-07
9.759795e-07
1.105092e-06
1.237357e-06
1.374526e-06
1.511341e-06
0.000000e+00
1.181237e-08
4.486560e-08
9.380729e-08
1.559820e-07
2.295120e-07
3.131635e-07
4.059482e-07
5.069525e-07
6.152879e-07
7.300668e-07
8.503563e-07
9.750843e-07
1.102922e-06
1.232565e-06
1.364828e-06
1.494607e-06
0.000000e+00
1.320599e-08
4.743296e-08
9.688592e-08
1.590451e-07
2.324202e-07
3.159172e-07
4.085770e-07
5.094762e-07
6.176863e-07
7.322399e-07
8.520804e-07
9.759802e-07
1.102428e-06
1.229794e-06
1.357965e-06
1.482615e-06
0.000000e+00
1.803153e-08
5.580760e-08
1.062296e-07
1.680456e-07
2.407704e-07
3.235710e-07
4.155482e-07
5.157742e-07
6.232812e-07
7.370347e-07
8.558926e-07
9.785418e-07
1.103406e-06
1.228744e-06
1.353855e-06
1.475314e-06
0.000000e+00
2.836494e-08
7.170903e-08
1.221837e-07
1.831362e-07
2.546789e-07
3.362303e-07
4.269536e-07
5.259223e-07
6.321362e-07
7.445080e-07
8.618335e-07
9.827532e-07
1.105718e-06
1.229123e-06
1.352008e-06
1.471831e-06
0.000000e+00
4.694831e-08
9.154135e-08
1.416010e-07
2.013658e-07
2.714758e-07
3.514846e-07
4.406401e-07
5.380186e-07
6.426033e-07
7.532793e-07
8.688112e-07
9.878267e-07
1.108837e-06
1.230430e-06
1.351707e-06
1.470816e-06


2.193434e-01
2.193434e-01
2.193440e-01
2.193452e-01
2.193462e-01
2.193471e-01
2.193479e-01
2.193486e-01
2.193492e-01
2.193497e-01
2.193502e-01
2.193505e-01
2.193507e-01
2.193506e-01
2.193503e-01
2.193500e-01
2.193451e-01
2.193450e-01
2.193454e-01
2.193463e-01
2.193471e-01
2.193478e-01
2.193484e-01
2.193490e-01
2.193495e-01
2.193500e-01
2.193503e-01
2.193506e-01
2.193507e-01
2.193506e-01
2.193502e-01
2.193500e-01
2.193479e-01
2.193477e-01
2.193478e-01
2.193482e-01
2.193487e-01
2.193491e-01
2.193494e-01
2.193498e-01
2.193501e-01
2.193503e-01
2.193506e-01
2.193507e-01
2.193508e-01
2.193506e-01
2.193503e-01
2.193501e-01
2.193498e-01
2.193496e-01
2.193495e-01
2.193496e-01
2.193498e-01
2.193500e-01
2.193501e-01
2.193503e-01
2.193504e-01
2.193506e-01
2.193506e-01
2.193507e-01
2.193507e-01
2.193507e-01
2.193505e-01
2.193505e-01
2.193498e-01
2.193496e-01
2.193495e-01
2.193496e-01
2.193498e-01
2.193499e-01
2.193501e-01
2.193503e-01
2.193504e-01
2.193505e-01
2.193506e-01
2.193507e-01
2.193507e-01
2.193508e-01
2.193508e-01
2.193508e-01
2.193479e-01
2.193477e-01
2.193478e-01
2.193482e-01
2.193486e-01
2.193490e-01
2.193494e-01
2.193497e-01
2.193500e-01
2.193502e-01
2.193504e-01
2.193506e-01
2.193508e-01
2.193509e-01
2.193510e-01
2.193511e-01
2.193451e-01
2.193450e-01
2.193454e-01
2.193463e-01
2.193471e-01
2.193478e-01
2.193484e-01
2.193490e-01
2.193495e-01
2.193499e-01
2.193503e-01
2.193506e-01
2.193508e-01
2.193511e-01
2.193512e-01
2.193513e-01
2.193434e-01
2.193434e-01
2.193440e-01
2.193452e-01
2.193462e-01
2.193471e-01
2.193479e-01
2.193486e-01
2.193492e-01
2.193498e-01
2.193502e-01
2.193506e-01
2.193509e-01
2.193512e-01
2.193513e-01
2.193514e-01


9.873215e-01
9.891194e-01
9.907825e-01
9.920628e-01
9.932512e-01
9.943470e-01
9.953454e-01
9.962346e-01
9.970053e-01
9.976499e-01
9.981625e-01
9.985379e-01
9.987713e-01
9.988546e-01
9.989147e-01
9.952093e-01
9.952035e-01
9.943796e-01
9.949096e-01
9.956014e-01
9.962464e-01
9.968327e-01
9.973634e-01
9.978440e-01
9.982793e-01
9.986735e-01
9.990312e-01
9.993551e-01
9.996377e-01
9.998228e-01
9.993548e-01
9.930119e-01
9.983334e-01
9.978602e-01
9.977324e-01
9.979121e-01
9.981485e-01
9.983775e-01
9.985901e-01
9.987909e-01
9.989855e-01
9.991752e-01
9.993524e-01
9.994896e-01
9.995182e-01
9.992712e-01
9.983750e-01
9.967630e-01
9.996608e-01
9.993157e-01
9.991025e-01
9.990484e-01
9.990700e-01
9.991062e-01
9.991424e-01
9.991778e-01
9.992125e-01
9.992415e-01
9.992496e-01
9.992064e-01
9.990694e-01
9.988234e-01
9.986148e-01
9.985620e-01
9.996621e-01
9.993175e-01
9.991041e-01
9.990480e-01
9.990646e-01
9.990907e-01
9.991089e-01
9.991150e-01
9.991066e-01
9.990799e-01
9.990302e-01
9.989584e-01
9.988902e-01
9.989037e-01
9.990968e-01
9.994309e-01
9.983358e-01
9.978638e-01
9.977359e-01
9.979122e-01
9.981393e-01
9.983491e-01
9.985267e-01
9.986694e-01
9.987762e-01
9.988482e-01
9.988937e-01
9.989382e-01
9.990316e-01
9.992275e-01
9.995218e-01
9.998261e-01
9.952030e-01
9.943792e-01
9.949089e-01
9.955995e-01
9.962414e-01
9.968211e-01
9.973395e-01
9.977984e-01
9.981983e-01
9.985402e-01
9.988296e-01
9.990823e-01
9.993257e-01
9.995809e-01
9.998195e-01
9.999698e-01
9.873128e-01
9.891058e-01
9.907659e-01
9.920442e-01
9.932345e-01
9.943409e-01
9.953660e-01
9.963072e-01
9.971649e-01
9.979372e-01
9.986151e-01
9.991775e-01
9.995958e-01
9.998540e-01
9.999714e-01
9.999994e-01
1 2 19 18
2 3 20 19
3 4 21 20
4 5 22 21
5 6 23 22
6 7 24 23
7 8 25 24
8 9 26 25
9 10 27 26
10 11 28 27
11 12 29 28
12 13 30 29
13 14 31 30
14 15 32 31
15 16 33 32
16 17 34 33
18 19 36 35
19 20 37 36
20 21 38 37
21 22 39 38
22 23 40 39
23 24 41 40
24 25 42 41
25 26 43 42
26 27 44 43
27 28 45 44
28 29 46 45
29 30 47 46
30 31 48 47
31 32 49 48
32 33 50 49
33 34 51 50
35 36 53 52
36 37 54 53
37 38 55 54
38 39 56 55
39 40 57 56
40 41 58 57
41 42 59 58
42 43 60 59
43 44 61 60
44 45 62 61
45 46 63 62
46 47 64 63
47 48 65 64
48 49 66 65
49 50 67 66
50 51 68 67
52 53 70 69
53 54 71 70
54 55 72 71
55 56 73 72
56 57 74 73
57 58 75 74
58 59 76 75
59 60 77 76
60 61 78 77
61 62 79 78
62 63 80 79
63 64 81 80
64 65 82 81
65 66 83 82
66 67 84 83
67 68 85 84
69 70 87 86
70 71 88 87
71 72 89 88
72 73 90 89
73 74 91 90
74 75 92 91
75 76 93 92
76 77 94 93
77 78 95 94
78 79 96 95
79 80 97 96
80 81 98 97
81 82 99 98
82 83 100 99
83 84 101 100
84 85 102 101
86 87 104 103
87 88 105 104
88 89 106 105
89 90 107 106
90 91 108 107
91 92 109 108
92 93 110 109
93 94 111 110
94 95 112 111
95 96 113 112
96 97 114 113
97 98 115 114
98 99 116 115
99 100 117 116
100 101 118 117
101 102 119 118
103 104 121 120
104 105 122 121
105 106 123 122
106 107 124 123
107 108 125 124
108 109 126 125
109 110 127 126
110 111 128 127
111 112 129 128
112 113 130 129
113 114 131 130
114 115 132 131
115 116 133 132
116 117 134 133
117 118 135 134
118 119 136 135
120 121 138 137
121 122 139 138
122 123 140 139
123 124 141 140
124 125 142 141
125 126 143 142
126 127 144 143
127 128 145 144
128 129 146 145
129 130 147 146
130 131 148 147
131 132 149 148
132 133 150 149
133 134 151 150
134 135 152 151
135 136 153 152
