TITLE = "Solution"
VARIABLES = x, y, u, v, psiu, psiv, t, stress
ZONE T="structure" N=153 E=128 F=FEBLOCK ET=QUADRILATERAL VARLOCATION=([7,8]=cellcentered)
0.000000e+00
1.250000e+01
2.500000e+01
3.750000e+01
5.000000e+01
6.250000e+01
7.500000e+01
8.750000e+01
1.000000e+02
1.125000e+02
1.250000e+02
1.375000e+02
1.500000e+02
1.625000e+02
1.750000e+02
1.875000e+02
2.000000e+02
0.000000e+00
1.250000e+01
2.500000e+01
3.750000e+01
5.000000e+01
6.250000e+01
7.500000e+01
8.750000e+01
1.000000e+02
1.125000e+02
1.250000e+02
1.375000e+02
1.500000e+02
1.625000e+02
1.750000e+02
1.875000e+02
2.000000e+02
0.000000e+00
1.250000e+01
2.500000e+01
3.750000e+01
5.000000e+01
6.250000e+01
7.500000e+01
8.750000e+01
1.000000e+02
1.125000e+02
1.250000e+02
1.375000e+02
1.500000e+02
1.625000e+02
1.750000e+02
1.875000e+02
2.000000e+02
0.000000e+00
1.250000e+01
2.500000e+01
3.750000e+01
5.000000e+01
6.250000e+01
7.500000e+01
8.750000e+01
1.000000e+02
1.125000e+02
1.250000e+02
1.375000e+02
1.500000e+02
1.625000e+02
1.750000e+02
1.875000e+02
2.000000e+02
0.000000e+00
1.250000e+01
2.500000e+01
3.750000e+01
5.000000e+01
6.250000e+01
7.500000e+01
8.750000e+01
1.000000e+02
1.125000e+02
1.250000e+02
1.375000e+02
1.500000e+02
1.625000e+02
1.750000e+02
1.875000e+02
2.000000e+02
0.000000e+00
1.250000e+01
2.500000e+01
3.750000e+01
5.000000e+01
6.250000e+01
7.500000e+01
8.750000e+01
1.000000e+02
1.125000e+02
1.250000e+02
1.375000e+02
1.500000e+02
1.625000e+02
1.750000e+02
1.875000e+02
2.000000e+02
0.000000e+00
1.250000e+01
2.500000e+01
3.750000e+01
5.000000e+01
6.250000e+01
7.500000e+01
8.750000e+01
1.000000e+02
1.125000e+02
1.250000e+02
1.375000e+02
1.500000e+02
1.625000e+02
1.750000e+02
1.875000e+02
2.000000e+02
0.000000e+00
1.250000e+01
2.500000e+01
3.750000e+01
5.000000e+01
6.250000e+01
7.500000e+01
8.750000e+01
1.000000e+02
1.125000e+02
1.250000e+02
1.375000e+02
1.500000e+02
1.625000e+02
1.750000e+02
1.875000e+02
2.000000e+02
0.000000e+00
1.250000e+01
2.500000e+01
3.750000e+01
5.000000e+01
6.250000e+01
7.500000e+01
8.750000e+01
1.000000e+02
1.125000e+02
1.250000e+02
1.375000e+02
1.500000e+02
1.625000e+02
1.750000e+02
1.875000e+02
2.000000e+02
0.000000e+00
0.000000e+00
0.000000e+00
0.000000e+00
0.000000e+00
0.000000e+00
0.000000e+00
0.000000e+00
0.000000e+00
0.000000e+00
0.000000e+00
0.000000e+00
0.000000e+00
0.000000e+00
0.000000e+00
0.000000e+00
0.000000e+00
1.250000e+01
1.250000e+01
1.250000e+01
1.250000e+01
1.250000e+01
1.250000e+01
1.250000e+01
1.250000e+01
1.250000e+01
1.250000e+01
1.250000e+01
1.250000e+01
1.250000e+01
1.250000e+01
1.250000e+01
1.250000e+01
1.250000e+01
2.500000e+01
2.500000e+01
2.500000e+01
2.500000e+01
2.500000e+01
2.500000e+01
2.500000e+01
2.500000e+01
2.500000e+01
2.500000e+01
2.500000e+01
2.500000e+01
2.500000e+01
2.500000e+01
2.500000e+01
2.500000e+01
2.500000e+01
3.750000e+01
3.750000e+01
3.750000e+01
3.750000e+01
3.750000e+01
3.750000e+01
3.750000e+01
3.750000e+01
3.750000e+01
3.750000e+01
3.750000e+01
3.750000e+01
3.750000e+01
3.750000e+01
3.750000e+01
3.750000e+01
3.750000e+01
5.000000e+01
5.000000e+01
5.000000e+01
5.000000e+01
5.000000e+01
5.000000e+01
5.000000e+01
5.000000e+01
5.000000e+01
5.000000e+01
5.000000e+01
5.000000e+01
5.000000e+01
5.000000e+01
5.000000e+01
5.000000e+01
5.000000e+01
6.250000e+01
6.250000e+01
6.250000e+01
6.250000e+01
6.250000e+01
6.250000e+01
6.250000e+01
6.250000e+01
6.250000e+01
6.250000e+01
6.250000e+01
6.250000e+01
6.250000e+01
6.250000e+01
6.250000e+01
6.250000e+01
6.250000e+01
7.500000e+01
7.500000e+01
7.500000e+01
7.500000e+01
7.500000e+01
7.500000e+01
7.500000e+01
7.500000e+01
7.500000e+01
7.500000e+01
7.500000e+01
7.500000e+01
7.500000e+01
7.500000e+01
7.500000e+01
7.500000e+01
7.500000e+01
8.750000e+01
8.750000e+01
8.750000e+01
8.750000e+01
8.750000e+01
8.750000e+01
8.750000e+01
8.750000e+01
8.750000e+01
8.750000e+01
8.750000e+01
8.750000e+01
8.750000e+01
8.750000e+01
8.750000e+01
8.750000e+01
8.750000e+01
1.000000e+02
1.000000e+02
1.000000e+02
1.000000e+02
1.000000e+02
1.000000e+02
1.000000e+02
1.000000e+02
1.000000e+02
1.000000e+02
1.000000e+02
1.000000e+02
1.000000e+02
1.000000e+02
1.000000e+02
1.000000e+02
1.000000e+02
0.000000e+00
-9.924978e-01
-1.681000e+00
-2.431994e+00
-3.114408e+00
-3.755834e+00
-4.456195e+00
-5.090114e+00
-5.763116e+00
-6.406919e+00
-7.056556e+00
-7.724627e+00
-8.378073e+00
-9.147739e+00
-1.007768e+01
-1.083488e+01
-1.128549e+01
0.000000e+00
-4.440263e-01
-9.080821e-01
-1.418843e+00
-1.929773e+00
-2.412427e+00
-2.925863e+00
-3.423401e+00
-3.920592e+00
-4.421573e+00
-4.915225e+00
-5.417395e+00
-5.902794e+00
-6.422134e+00
-6.898709e+00
-7.025203e+00
-7.204153e+00
0.000000e+00
-1.460182e-01
-3.496952e-01
-6.394836e-01
-9.775985e-01
-1.303198e+00
-1.657543e+00
-2.012464e+00
-2.358356e+00
-2.718280e+00
-3.058631e+00
-3.391984e+00
-3.687878e+00
-3.927338e+00
-4.037132e+00
-4.035473e+00
-4.183681e+00
0.000000e+00
-7.887057e-02
-1.624319e-01
-3.096326e-01
-4.544666e-01
-6.297155e-01
-8.127304e-01
-9.808295e-01
-1.166433e+00
-1.330057e+00
-1.490127e+00
-1.629493e+00
-1.722858e+00
-1.731066e+00
-1.657075e+00
-1.636015e+00
-1.752989e+00
0.000000e+00
-3.290513e-03
-7.095415e-03
-1.146235e-02
-1.571476e-02
-1.904250e-02
-2.052144e-02
-1.734101e-02
-9.320519e-03
7.798954e-03
3.184727e-02
7.668052e-02
1.587499e-01
2.728870e-01
3.923411e-01
4.340219e-01
3.357620e-01
0.000000e+00
7.319651e-02
1.504848e-01
2.905657e-01
4.290019e-01
5.957672e-01
7.743274e-01
9.424750e-01
1.148044e+00
1.342991e+00
1.560712e+00
1.780585e+00
2.007504e+00
2.214724e+00
2.349616e+00
2.382185e+00
2.316441e+00
0.000000e+00
1.437615e-01
3.437355e-01
6.305403e-01
9.655268e-01
1.290829e+00
1.643306e+00
1.999696e+00
2.358760e+00
2.763907e+00
3.143145e+00
3.509515e+00
3.842524e+00
4.118750e+00
4.295225e+00
4.349617e+00
4.326698e+00
0.000000e+00
4.464182e-01
9.075210e-01
1.419565e+00
1.930338e+00
2.409419e+00
2.920213e+00
3.415800e+00
3.903645e+00
4.396699e+00
4.875516e+00
5.350394e+00
5.777299e+00
6.125121e+00
6.342063e+00
6.437926e+00
6.455644e+00
0.000000e+00
9.976346e-01
1.684393e+00
2.440219e+00
3.127731e+00
3.762815e+00
4.468430e+00
5.096007e+00
5.748407e+00
6.332299e+00
6.906332e+00
7.506924e+00
8.035531e+00
8.447311e+00
8.648543e+00
8.701484e+00
8.702091e+00
0.000000e+00
-6.179187e-01
-1.361683e+00
-2.362364e+00
-3.536753e+00
-4.881917e+00
-6.412343e+00
-8.099171e+00
-9.959612e+00
-1.198310e+01
-1.416844e+01
-1.651937e+01
-1.903377e+01
-2.176551e+01
-2.473058e+01
-2.808940e+01
-3.310660e+01
0.000000e+00
-4.143134e-01
-1.192872e+00
-2.176782e+00
-3.367245e+00
-4.707003e+00
-6.235680e+00
-7.929605e+00
-9.784147e+00
-1.181493e+01
-1.399651e+01
-1.635144e+01
-1.886090e+01
-2.157280e+01
-2.459040e+01
-2.800599e+01
-3.205470e+01
0.000000e+00
-3.885768e-01
-1.091550e+00
-2.073485e+00
-3.247388e+00
-4.581953e+00
-6.114828e+00
-7.800681e+00
-9.664482e+00
-1.169354e+01
-1.388558e+01
-1.625233e+01
-1.877189e+01
-2.151002e+01
-2.458035e+01
-2.785514e+01
-3.088667e+01
0.000000e+00
-4.478789e-01
-1.088047e+00
-2.047769e+00
-3.183913e+00
-4.513943e+00
-6.051101e+00
-7.725772e+00
-9.605423e+00
-1.163590e+01
-1.384809e+01
-1.623542e+01
-1.878076e+01
-2.152015e+01
-2.451004e+01
-2.754663e+01
-3.017248e+01
0.000000e+00
-4.556320e-01
-1.110162e+00
-2.031539e+00
-3.171525e+00
-4.501777e+00
-6.031829e+00
-7.722245e+00
-9.596313e+00
-1.164715e+01
-1.387515e+01
-1.626888e+01
-1.882242e+01
-2.152180e+01
-2.435792e+01
-2.717861e+01
-2.956704e+01
0.000000e+00
-4.476133e-01
-1.087430e+00
-2.049261e+00
-3.192993e+00
-4.528525e+00
-6.080926e+00
-7.760730e+00
-9.658088e+00
-1.171264e+01
-1.394565e+01
-1.632128e+01
-1.885314e+01
-2.151240e+01
-2.422286e+01
-2.685670e+01
-2.912703e+01
0.000000e+00
-3.882492e-01
-1.091407e+00
-2.078109e+00
-3.262437e+00
-4.610091e+00
-6.160908e+00
-7.869568e+00
-9.763069e+00
-1.182884e+01
-1.403219e+01
-1.638897e+01
-1.889210e+01
-2.151235e+01
-2.414105e+01
-2.664956e+01
-2.889325e+01
0.000000e+00
-4.139848e-01
-1.193260e+00
-2.182356e+00
-3.384106e+00
-4.737896e+00
-6.286033e+00
-8.010352e+00
-9.901693e+00
-1.196622e+01
-1.414721e+01
-1.648780e+01
-1.896899e+01
-2.155358e+01
-2.412073e+01
-2.656214e+01
-2.883241e+01
0.000000e+00
-6.175509e-01
-1.362311e+00
-2.369175e+00
-3.553664e+00
-4.912002e+00
-6.464114e+00
-8.178791e+00
-1.007440e+01
-1.212176e+01
-1.430241e+01
-1.663586e+01
-1.909242e+01
-2.163535e+01
-2.414551e+01
-2.654732e+01
-2.883118e+01


0.000000e+00
-9.924978e-01
-1.681000e+00
-2.431994e+00
-3.114408e+00
-3.755834e+00
-4.456195e+00
-5.090114e+00
-5.763116e+00
-6.406919e+00
-7.056556e+00
-7.724627e+00
-8.378073e+00
-9.147739e+00
-1.007768e+01
-1.083488e+01
-1.128549e+01
0.000000e+00
-4.440263e-01
-9.080821e-01
-1.418843e+00
-1.929773e+00
-2.412427e+00
-2.925863e+00
-3.423401e+00
-3.920592e+00
-4.421573e+00
-4.915225e+00
-5.417395e+00
-5.902794e+00
-6.422134e+00
-6.898709e+00
-7.025203e+00
-7.204153e+00
0.000000e+00
-1.460182e-01
-3.496952e-01
-6.394836e-01
-9.775985e-01
-1.303198e+00
-1.657543e+00
-2.012464e+00
-2.358356e+00
-2.718280e+00
-3.058631e+00
-3.391984e+00
-3.687878e+00
-3.927338e+00
-4.037132e+00
-4.035473e+00
-4.183681e+00
0.000000e+00
-7.887057e-02
-1.624319e-01
-3.096326e-01
-4.544666e-01
-6.297155e-01
-8.127304e-01
-9.808295e-01
-1.166433e+00
-1.330057e+00
-1.490127e+00
-1.629493e+00
-1.722858e+00
-1.731066e+00
-1.657075e+00
-1.636015e+00
-1.752989e+00
0.000000e+00
-3.290513e-03
-7.095415e-03
-1.146235e-02
-1.571476e-02
-1.904250e-02
-2.052144e-02
-1.734101e-02
-9.320519e-03
7.798954e-03
3.184727e-02
7.668052e-02
1.587499e-01
2.728870e-01
3.923411e-01
4.340219e-01
3.357620e-01
0.000000e+00
7.319651e-02
1.504848e-01
2.905657e-01
4.290019e-01
5.957672e-01
7.743274e-01
9.424750e-01
1.148044e+00
1.342991e+00
1.560712e+00
1.780585e+00
2.007504e+00
2.214724e+00
2.349616e+00
2.382185e+00
2.316441e+00
0.000000e+00
1.437615e-01
3.437355e-01
6.305403e-01
9.655268e-01
1.290829e+00
1.643306e+00
1.999696e+00
2.358760e+00
2.763907e+00
3.143145e+00
3.509515e+00
3.842524e+00
4.118750e+00
4.295225e+00
4.349617e+00
4.326698e+00
0.000000e+00
4.464182e-01
9.075210e-01
1.419565e+00
1.930338e+00
2.409419e+00
2.920213e+00
3.415800e+00
3.903645e+00
4.396699e+00
4.875516e+00
5.350394e+00
5.777299e+00
6.125121e+00
6.342063e+00
6.437926e+00
6.455644e+00
0.000000e+00
9.976346e-01
1.684393e+00
2.440219e+00
3.127731e+00
3.762815e+00
4.468430e+00
5.096007e+00
5.748407e+00
6.332299e+00
6.906332e+00
7.506924e+00
8.035531e+00
8.447311e+00
8.648543e+00
8.701484e+00
8.702091e+00
0.000000e+00
-6.179187e-01
-1.361683e+00
-2.362364e+00
-3.536753e+00
-4.881917e+00
-6.412343e+00
-8.099171e+00
-9.959612e+00
-1.198310e+01
-1.416844e+01
-1.651937e+01
-1.903377e+01
-2.176551e+01
-2.473058e+01
-2.808940e+01
-3.310660e+01
0.000000e+00
-4.143134e-01
-1.192872e+00
-2.176782e+00
-3.367245e+00
-4.707003e+00
-6.235680e+00
-7.929605e+00
-9.784147e+00
-1.181493e+01
-1.399651e+01
-1.635144e+01
-1.886090e+01
-2.157280e+01
-2.459040e+01
-2.800599e+01
-3.205470e+01
0.000000e+00
-3.885768e-01
-1.091550e+00
-2.073485e+00
-3.247388e+00
-4.581953e+00
-6.114828e+00
-7.800681e+00
-9.664482e+00
-1.169354e+01
-1.388558e+01
-1.625233e+01
-1.877189e+01
-2.151002e+01
-2.458035e+01
-2.785514e+01
-3.088667e+01
0.000000e+00
-4.478789e-01
-1.088047e+00
-2.047769e+00
-3.183913e+00
-4.513943e+00
-6.051101e+00
-7.725772e+00
-9.605423e+00
-1.163590e+01
-1.384809e+01
-1.623542e+01
-1.878076e+01
-2.152015e+01
-2.451004e+01
-2.754663e+01
-3.017248e+01
0.000000e+00
-4.556320e-01
-1.110162e+00
-2.031539e+00
-3.171525e+00
-4.501777e+00
-6.031829e+00
-7.722245e+00
-9.596313e+00
-1.164715e+01
-1.387515e+01
-1.626888e+01
-1.882242e+01
-2.152180e+01
-2.435792e+01
-2.717861e+01
-2.956704e+01
0.000000e+00
-4.476133e-01
-1.087430e+00
-2.049261e+00
-3.192993e+00
-4.528525e+00
-6.080926e+00
-7.760730e+00
-9.658088e+00
-1.171264e+01
-1.394565e+01
-1.632128e+01
-1.885314e+01
-2.151240e+01
-2.422286e+01
-2.685670e+01
-2.912703e+01
0.000000e+00
-3.882492e-01
-1.091407e+00
-2.078109e+00
-3.262437e+00
-4.610091e+00
-6.160908e+00
-7.869568e+00
-9.763069e+00
-1.182884e+01
-1.403219e+01
-1.638897e+01
-1.889210e+01
-2.151235e+01
-2.414105e+01
-2.664956e+01
-2.889325e+01
0.000000e+00
-4.139848e-01
-1.193260e+00
-2.182356e+00
-3.384106e+00
-4.737896e+00
-6.286033e+00
-8.010352e+00
-9.901693e+00
-1.196622e+01
-1.414721e+01
-1.648780e+01
-1.896899e+01
-2.155358e+01
-2.412073e+01
-2.656214e+01
-2.883241e+01
0.000000e+00
-6.175509e-01
-1.362311e+00
-2.369175e+00
-3.553664e+00
-4.912002e+00
-6.464114e+00
-8.178791e+00
-1.007440e+01
-1.212176e+01
-1.430241e+01
-1.663586e+01
-1.909242e+01
-2.163535e+01
-2.414551e+01
-2.654732e+01
-2.883118e+01


5.549418e+00
6.089419e+00
6.853991e+00
5.841538e+00
5.186372e+00
5.493115e+00
5.581563e+00
5.802304e+00
5.669775e+00
5.838911e+00
6.294367e+00
7.163285e+00
8.850604e+00
9.830926e+00
9.153094e+00
8.002830e+00
8.033575e+00
8.438211e+00
8.658726e+00
8.360412e+00
7.966164e+00
8.100068e+00
8.257588e+00
8.216803e+00
8.251181e+00
8.268771e+00
8.418851e+00
8.853843e+00
9.507094e+00
9.844067e+00
8.398453e+00
6.467778e+00
9.835296e+00
9.824575e+00
1.000000e+01
9.837074e+00
9.839125e+00
9.900408e+00
9.838229e+00
9.911261e+00
9.851719e+00
9.878205e+00
9.901695e+00
9.876837e+00
9.897122e+00
9.415837e+00
8.030674e+00
6.207813e+00
1.000000e+01
1.000000e+01
1.000000e+01
1.000000e+01
1.000000e+01
1.000000e+01
1.000000e+01
1.000000e+01
1.000000e+01
1.000000e+01
1.000000e+01
9.491539e+00
8.837550e+00
8.401236e+00
8.044220e+00
7.961484e+00
1.000000e+01
1.000000e+01
1.000000e+01
1.000000e+01
1.000000e+01
1.000000e+01
9.937008e+00
9.960126e+00
1.000000e+01
9.922236e+00
9.364322e+00
8.600995e+00
7.707871e+00
7.748924e+00
8.678404e+00
9.198078e+00
9.842869e+00
9.824351e+00
1.000000e+01
9.838055e+00
9.836937e+00
9.704228e+00
9.302762e+00
9.507582e+00
9.384720e+00
8.888615e+00
8.319330e+00
7.901461e+00
8.190589e+00
8.740702e+00
9.444666e+00
1.000000e+01
8.078964e+00
8.459337e+00
8.661771e+00
8.357648e+00
8.097902e+00
7.975896e+00
7.840618e+00
7.790789e+00
7.906365e+00
7.376487e+00
7.500779e+00
8.488442e+00
9.287742e+00
9.840925e+00
1.000000e+01
1.000000e+01
5.661690e+00
6.133999e+00
6.864826e+00
5.908461e+00
5.582869e+00
6.018516e+00
5.931924e+00
6.501583e+00
6.317247e+00
6.571189e+00
7.889457e+00
9.114840e+00
9.985457e+00
1.000000e+01
1.000000e+01
1.000000e+01


-8.059966e-01
-1.851344e-01
-3.908908e-01
-2.499882e-01
-1.133529e-01
-2.909865e-01
-1.312197e-01
-2.065511e-01
-1.615160e-01
-1.596931e-01
-2.136246e-01
-1.519486e-01
-4.601172e-01
-6.842964e-01
3.146100e-01
-8.514263e-01
6.133372e-01
4.747943e-01
2.990568e-01
2.266491e-01
2.849384e-01
1.677674e-01
1.791830e-01
1.675435e-01
1.158868e-01
1.435557e-01
1.309329e-01
2.398501e-01
3.038123e-01
5.079053e-01
6.956855e-01
-9.272064e-01
7.247087e-01
4.687579e-01
5.756285e-02
-1.619584e-02
-4.829524e-02
-1.770550e-01
-8.636434e-02
-1.344809e-01
-7.811942e-02
-2.011634e-02
3.190762e-02
1.829290e-01
2.784246e-01
1.449326e-01
-2.783921e-02
-1.607838e-01
7.292724e-01
5.551394e-01
1.929032e-01
6.545216e-02
-2.963656e-02
-9.927923e-02
-2.391430e-02
-5.713942e-02
9.283734e-03
1.727771e-02
5.659720e-02
1.123560e-01
5.701830e-02
-2.680380e-01
-3.993916e-01
-8.468711e-02
7.315765e-01
5.598667e-01
2.011209e-01
7.113801e-02
-2.063946e-02
-1.110518e-01
-3.803303e-02
-1.016966e-01
-5.330506e-02
-4.604922e-02
2.020626e-02
9.682859e-03
-3.594571e-02
-1.246010e-01
-1.097431e-01
3.036948e-01
7.300469e-01
4.815750e-01
7.491318e-02
-3.453933e-03
-2.616511e-02
-1.619654e-01
-7.342843e-02
-1.855739e-01
-1.813101e-01
-1.101702e-01
-7.558540e-02
-9.963565e-02
-1.107060e-01
5.320958e-02
3.372101e-01
7.252243e-01
6.152650e-01
4.863632e-01
3.033805e-01
2.307189e-01
2.861253e-01
1.614844e-01
1.525587e-01
1.040535e-01
-5.588735e-02
-4.130247e-02
-9.381989e-02
-5.485672e-02
5.594747e-02
3.672237e-01
7.130797e-01
9.477660e-01
-8.225524e-01
-1.756909e-01
-4.041366e-01
-2.603331e-01
-9.552053e-02
-2.983960e-01
-1.202394e-01
-1.587109e-01
-5.496318e-02
-2.396655e-02
-9.145625e-02
1.042944e-01
3.878325e-01
7.725859e-01
9.528373e-01
9.987199e-01
1 2 19 18
2 3 20 19
3 4 21 20
4 5 22 21
5 6 23 22
6 7 24 23
7 8 25 24
8 9 26 25
9 10 27 26
10 11 28 27
11 12 29 28
12 13 30 29
13 14 31 30
14 15 32 31
15 16 33 32
16 17 34 33
18 19 36 35
19 20 37 36
20 21 38 37
21 22 39 38
22 23 40 39
23 24 41 40
24 25 42 41
25 26 43 42
26 27 44 43
27 28 45 44
28 29 46 45
29 30 47 46
30 31 48 47
31 32 49 48
32 33 50 49
33 34 51 50
35 36 53 52
36 37 54 53
37 38 55 54
38 39 56 55
39 40 57 56
40 41 58 57
41 42 59 58
42 43 60 59
43 44 61 60
44 45 62 61
45 46 63 62
46 47 64 63
47 48 65 64
48 49 66 65
49 50 67 66
50 51 68 67
52 53 70 69
53 54 71 70
54 55 72 71
55 56 73 72
56 57 74 73
57 58 75 74
58 59 76 75
59 60 77 76
60 61 78 77
61 62 79 78
62 63 80 79
63 64 81 80
64 65 82 81
65 66 83 82
66 67 84 83
67 68 85 84
69 70 87 86
70 71 88 87
71 72 89 88
72 73 90 89
73 74 91 90
74 75 92 91
75 76 93 92
76 77 94 93
77 78 95 94
78 79 96 95
79 80 97 96
80 81 98 97
81 82 99 98
82 83 100 99
83 84 101 100
84 85 102 101
86 87 104 103
87 88 105 104
88 89 106 105
89 90 107 106
90 91 108 107
91 92 109 108
92 93 110 109
93 94 111 110
94 95 112 111
95 96 113 112
96 97 114 113
97 98 115 114
98 99 116 115
99 100 117 116
100 101 118 117
101 102 119 118
103 104 121 120
104 105 122 121
105 106 123 122
106 107 124 123
107 108 125 124
108 109 126 125
109 110 127 126
110 111 128 127
111 112 129 128
112 113 130 129
113 114 131 130
114 115 132 131
115 116 133 132
116 117 134 133
117 118 135 134
118 119 136 135
120 121 138 137
121 122 139 138
122 123 140 139
123 124 141 140
124 125 142 141
125 126 143 142
126 127 144 143
127 128 145 144
128 129 146 145
129 130 147 146
130 131 148 147
131 132 149 148
132 133 150 149
133 134 151 150
134 135 152 151
135 136 153 152
