TITLE = "Solution"
VARIABLES = x, y, u, v, psiu, psiv, t, stress
ZONE T="structure" N=153 E=128 F=FEBLOCK ET=QUADRILATERAL VARLOCATION=([7,8]=cellcentered)
0.000000e+00
1.250000e+01
2.500000e+01
3.750000e+01
5.000000e+01
6.250000e+01
7.500000e+01
8.750000e+01
1.000000e+02
1.125000e+02
1.250000e+02
1.375000e+02
1.500000e+02
1.625000e+02
1.750000e+02
1.875000e+02
2.000000e+02
0.000000e+00
1.250000e+01
2.500000e+01
3.750000e+01
5.000000e+01
6.250000e+01
7.500000e+01
8.750000e+01
1.000000e+02
1.125000e+02
1.250000e+02
1.375000e+02
1.500000e+02
1.625000e+02
1.750000e+02
1.875000e+02
2.000000e+02
0.000000e+00
1.250000e+01
2.500000e+01
3.750000e+01
5.000000e+01
6.250000e+01
7.500000e+01
8.750000e+01
1.000000e+02
1.125000e+02
1.250000e+02
1.375000e+02
1.500000e+02
1.625000e+02
1.750000e+02
1.875000e+02
2.000000e+02
0.000000e+00
1.250000e+01
2.500000e+01
3.750000e+01
5.000000e+01
6.250000e+01
7.500000e+01
8.750000e+01
1.000000e+02
1.125000e+02
1.250000e+02
1.375000e+02
1.500000e+02
1.625000e+02
1.750000e+02
1.875000e+02
2.000000e+02
0.000000e+00
1.250000e+01
2.500000e+01
3.750000e+01
5.000000e+01
6.250000e+01
7.500000e+01
8.750000e+01
1.000000e+02
1.125000e+02
1.250000e+02
1.375000e+02
1.500000e+02
1.625000e+02
1.750000e+02
1.875000e+02
2.000000e+02
0.000000e+00
1.250000e+01
2.500000e+01
3.750000e+01
5.000000e+01
6.250000e+01
7.500000e+01
8.750000e+01
1.000000e+02
1.125000e+02
1.250000e+02
1.375000e+02
1.500000e+02
1.625000e+02
1.750000e+02
1.875000e+02
2.000000e+02
0.000000e+00
1.250000e+01
2.500000e+01
3.750000e+01
5.000000e+01
6.250000e+01
7.500000e+01
8.750000e+01
1.000000e+02
1.125000e+02
1.250000e+02
1.375000e+02
1.500000e+02
1.625000e+02
1.750000e+02
1.875000e+02
2.000000e+02
0.000000e+00
1.250000e+01
2.500000e+01
3.750000e+01
5.000000e+01
6.250000e+01
7.500000e+01
8.750000e+01
1.000000e+02
1.125000e+02
1.250000e+02
1.375000e+02
1.500000e+02
1.625000e+02
1.750000e+02
1.875000e+02
2.000000e+02
0.000000e+00
1.250000e+01
2.500000e+01
3.750000e+01
5.000000e+01
6.250000e+01
7.500000e+01
8.750000e+01
1.000000e+02
1.125000e+02
1.250000e+02
1.375000e+02
1.500000e+02
1.625000e+02
1.750000e+02
1.875000e+02
2.000000e+02
0.000000e+00
0.000000e+00
0.000000e+00
0.000000e+00
0.000000e+00
0.000000e+00
0.000000e+00
0.000000e+00
0.000000e+00
0.000000e+00
0.000000e+00
0.000000e+00
0.000000e+00
0.000000e+00
0.000000e+00
0.000000e+00
0.000000e+00
1.250000e+01
1.250000e+01
1.250000e+01
1.250000e+01
1.250000e+01
1.250000e+01
1.250000e+01
1.250000e+01
1.250000e+01
1.250000e+01
1.250000e+01
1.250000e+01
1.250000e+01
1.250000e+01
1.250000e+01
1.250000e+01
1.250000e+01
2.500000e+01
2.500000e+01
2.500000e+01
2.500000e+01
2.500000e+01
2.500000e+01
2.500000e+01
2.500000e+01
2.500000e+01
2.500000e+01
2.500000e+01
2.500000e+01
2.500000e+01
2.500000e+01
2.500000e+01
2.500000e+01
2.500000e+01
3.750000e+01
3.750000e+01
3.750000e+01
3.750000e+01
3.750000e+01
3.750000e+01
3.750000e+01
3.750000e+01
3.750000e+01
3.750000e+01
3.750000e+01
3.750000e+01
3.750000e+01
3.750000e+01
3.750000e+01
3.750000e+01
3.750000e+01
5.000000e+01
5.000000e+01
5.000000e+01
5.000000e+01
5.000000e+01
5.000000e+01
5.000000e+01
5.000000e+01
5.000000e+01
5.000000e+01
5.000000e+01
5.000000e+01
5.000000e+01
5.000000e+01
5.000000e+01
5.000000e+01
5.000000e+01
6.250000e+01
6.250000e+01
6.250000e+01
6.250000e+01
6.250000e+01
6.250000e+01
6.250000e+01
6.250000e+01
6.250000e+01
6.250000e+01
6.250000e+01
6.250000e+01
6.250000e+01
6.250000e+01
6.250000e+01
6.250000e+01
6.250000e+01
7.500000e+01
7.500000e+01
7.500000e+01
7.500000e+01
7.500000e+01
7.500000e+01
7.500000e+01
7.500000e+01
7.500000e+01
7.500000e+01
7.500000e+01
7.500000e+01
7.500000e+01
7.500000e+01
7.500000e+01
7.500000e+01
7.500000e+01
8.750000e+01
8.750000e+01
8.750000e+01
8.750000e+01
8.750000e+01
8.750000e+01
8.750000e+01
8.750000e+01
8.750000e+01
8.750000e+01
8.750000e+01
8.750000e+01
8.750000e+01
8.750000e+01
8.750000e+01
8.750000e+01
8.750000e+01
1.000000e+02
1.000000e+02
1.000000e+02
1.000000e+02
1.000000e+02
1.000000e+02
1.000000e+02
1.000000e+02
1.000000e+02
1.000000e+02
1.000000e+02
1.000000e+02
1.000000e+02
1.000000e+02
1.000000e+02
1.000000e+02
1.000000e+02
0.000000e+00
-9.959668e-01
-1.678981e+00
-2.431191e+00
-3.117282e+00
-3.750428e+00
-4.458257e+00
-5.087195e+00
-5.763221e+00
-6.405576e+00
-7.055512e+00
-7.723551e+00
-8.376422e+00
-9.146406e+00
-1.007745e+01
-1.083396e+01
-1.128407e+01
0.000000e+00
-4.460017e-01
-9.064579e-01
-1.419027e+00
-1.930673e+00
-2.410677e+00
-2.924807e+00
-3.423015e+00
-3.918970e+00
-4.421441e+00
-4.913910e+00
-5.416906e+00
-5.901764e+00
-6.421386e+00
-6.897723e+00
-7.024058e+00
-7.202949e+00
0.000000e+00
-1.460908e-01
-3.488262e-01
-6.395486e-01
-9.775407e-01
-1.302559e+00
-1.655679e+00
-2.012851e+00
-2.356367e+00
-2.718584e+00
-3.057393e+00
-3.391729e+00
-3.687428e+00
-3.927372e+00
-4.036626e+00
-4.034651e+00
-4.183069e+00
0.000000e+00
-7.898780e-02
-1.621151e-01
-3.096538e-01
-4.549024e-01
-6.281669e-01
-8.139466e-01
-9.790657e-01
-1.166890e+00
-1.328811e+00
-1.489870e+00
-1.628939e+00
-1.722351e+00
-1.730528e+00
-1.656872e+00
-1.635915e+00
-1.752956e+00
0.000000e+00
-3.322082e-03
-7.231531e-03
-1.129744e-02
-1.569011e-02
-1.912858e-02
-2.001748e-02
-1.728322e-02
-8.524587e-03
8.328299e-03
3.274259e-02
7.771112e-02
1.602342e-01
2.751521e-01
3.949599e-01
4.358432e-01
3.376618e-01
0.000000e+00
7.317667e-02
1.504019e-01
2.905746e-01
4.290560e-01
5.955370e-01
7.744479e-01
9.426254e-01
1.148691e+00
1.343872e+00
1.561864e+00
1.782157e+00
2.008833e+00
2.216353e+00
2.352150e+00
2.385055e+00
2.319374e+00
0.000000e+00
1.437243e-01
3.435305e-01
6.305152e-01
9.655802e-01
1.290834e+00
1.643077e+00
1.999658e+00
2.359030e+00
2.764606e+00
3.143630e+00
3.510585e+00
3.843404e+00
4.119143e+00
4.295928e+00
4.350575e+00
4.327911e+00
0.000000e+00
4.467083e-01
9.072004e-01
1.419533e+00
1.930471e+00
2.409041e+00
2.920087e+00
3.415647e+00
3.903273e+00
4.396691e+00
4.874997e+00
5.350108e+00
5.777921e+00
6.125601e+00
6.342690e+00
6.438513e+00
6.456225e+00
0.000000e+00
9.982470e-01
1.684079e+00
2.440045e+00
3.128076e+00
3.761787e+00
4.468612e+00
5.095693e+00
5.747579e+00
6.331596e+00
6.905125e+00
7.505997e+00
8.035877e+00
8.447952e+00
8.649194e+00
8.701931e+00
8.702461e+00
0.000000e+00
-6.187762e-01
-1.361833e+00
-2.363261e+00
-3.537451e+00
-4.880979e+00
-6.412494e+00
-8.098632e+00
-9.959112e+00
-1.198261e+01
-1.416739e+01
-1.651825e+01
-1.903191e+01
-2.176302e+01
-2.472725e+01
-2.808668e+01
-3.310234e+01
0.000000e+00
-4.159353e-01
-1.193504e+00
-2.177034e+00
-3.368406e+00
-4.706858e+00
-6.234941e+00
-7.930046e+00
-9.782800e+00
-1.181505e+01
-1.399509e+01
-1.635055e+01
-1.885904e+01
-2.157037e+01
-2.458706e+01
-2.800293e+01
-3.205276e+01
0.000000e+00
-3.903918e-01
-1.091679e+00
-2.073627e+00
-3.249303e+00
-4.580903e+00
-6.115242e+00
-7.800198e+00
-9.663819e+00
-1.169321e+01
-1.388443e+01
-1.625126e+01
-1.876997e+01
-2.150811e+01
-2.457708e+01
-2.785106e+01
-3.088357e+01
0.000000e+00
-4.493792e-01
-1.088056e+00
-2.047494e+00
-3.186891e+00
-4.511291e+00
-6.053652e+00
-7.723484e+00
-9.606217e+00
-1.163453e+01
-1.384750e+01
-1.623419e+01
-1.877845e+01
-2.151845e+01
-2.450740e+01
-2.754138e+01
-3.016725e+01
0.000000e+00
-4.563014e-01
-1.110462e+00
-2.031924e+00
-3.172524e+00
-4.501658e+00
-6.032077e+00
-7.721799e+00
-9.595958e+00
-1.164665e+01
-1.387408e+01
-1.626798e+01
-1.881971e+01
-2.151960e+01
-2.435680e+01
-2.717482e+01
-2.956274e+01
0.000000e+00
-4.481107e-01
-1.087736e+00
-2.049591e+00
-3.193865e+00
-4.528511e+00
-6.081250e+00
-7.760240e+00
-9.658036e+00
-1.171226e+01
-1.394446e+01
-1.632014e+01
-1.885062e+01
-2.150963e+01
-2.422187e+01
-2.685504e+01
-2.912436e+01
0.000000e+00
-3.887014e-01
-1.091693e+00
-2.078456e+00
-3.263120e+00
-4.610226e+00
-6.161034e+00
-7.869513e+00
-9.763031e+00
-1.182859e+01
-1.403086e+01
-1.638742e+01
-1.888981e+01
-2.150953e+01
-2.413948e+01
-2.664783e+01
-2.889061e+01
0.000000e+00
-4.143712e-01
-1.193611e+00
-2.182730e+00
-3.384651e+00
-4.738106e+00
-6.286040e+00
-8.010570e+00
-9.901599e+00
-1.196588e+01
-1.414590e+01
-1.648596e+01
-1.896696e+01
-2.155107e+01
-2.411898e+01
-2.656028e+01
-2.883013e+01
0.000000e+00
-6.178042e-01
-1.362569e+00
-2.369653e+00
-3.554101e+00
-4.912089e+00
-6.464285e+00
-8.178864e+00
-1.007432e+01
-1.212131e+01
-1.430105e+01
-1.663415e+01
-1.909058e+01
-2.163308e+01
-2.414361e+01
-2.654540e+01
-2.882898e+01


0.000000e+00
1.541794e-05
2.508226e-05
3.749514e-05
5.358637e-05
6.716891e-05
8.318681e-05
9.713561e-05
1.118686e-04
1.257467e-04
1.408889e-04
1.552357e-04
1.717899e-04
1.876110e-04
1.976962e-04
2.034404e-04
2.103733e-04
0.000000e+00
1.145667e-05
1.973566e-05
2.841573e-05
4.099206e-05
5.172327e-05
6.185103e-05
7.296235e-05
8.316458e-05
9.457690e-05
1.052294e-04
1.156235e-04
1.264825e-04
1.358387e-04
1.374465e-04
1.412002e-04
1.470227e-04
0.000000e+00
9.527332e-06
1.502410e-05
2.021209e-05
2.884369e-05
3.554762e-05
4.127837e-05
4.862552e-05
5.459538e-05
6.196591e-05
6.836634e-05
7.404102e-05
7.875319e-05
8.093744e-05
8.018786e-05
8.256379e-05
8.679525e-05
0.000000e+00
5.185566e-06
6.841996e-06
9.621285e-06
1.305984e-05
1.351618e-05
1.586910e-05
1.724997e-05
2.088355e-05
2.430672e-05
2.805572e-05
2.911762e-05
2.853406e-05
2.710752e-05
2.682828e-05
2.986165e-05
3.553242e-05
0.000000e+00
-1.775233e-07
-4.417245e-07
-8.673166e-07
-1.742552e-06
-2.907266e-06
-5.026596e-06
-7.276016e-06
-7.852483e-06
-7.904218e-06
-8.842308e-06
-1.197787e-05
-1.472139e-05
-1.615697e-05
-1.583203e-05
-1.367992e-05
-9.690228e-06
0.000000e+00
-5.454432e-06
-7.440063e-06
-1.076725e-05
-1.467992e-05
-1.610380e-05
-2.057784e-05
-2.434329e-05
-3.030755e-05
-3.345897e-05
-3.760707e-05
-4.225748e-05
-4.739810e-05
-4.919097e-05
-4.973232e-05
-5.019797e-05
-4.846144e-05
0.000000e+00
-9.528524e-06
-1.509701e-05
-2.039237e-05
-2.896024e-05
-3.536031e-05
-4.077038e-05
-4.876525e-05
-5.594561e-05
-6.366515e-05
-6.893634e-05
-7.394264e-05
-7.808830e-05
-8.168197e-05
-8.358220e-05
-8.549879e-05
-8.624469e-05
0.000000e+00
-1.138641e-05
-1.965220e-05
-2.831997e-05
-4.077942e-05
-5.168317e-05
-6.162565e-05
-7.281990e-05
-8.321519e-05
-9.461057e-05
-1.052452e-04
-1.136342e-04
-1.184211e-04
-1.234593e-04
-1.270768e-04
-1.283840e-04
-1.284794e-04
0.000000e+00
-1.542985e-05
-2.502691e-05
-3.735000e-05
-5.338622e-05
-6.700879e-05
-8.289748e-05
-9.588178e-05
-1.100320e-04
-1.233219e-04
-1.409848e-04
-1.568276e-04
-1.666482e-04
-1.718745e-04
-1.740781e-04
-1.743010e-04
-1.741218e-04
0.000000e+00
1.259576e-05
1.999732e-05
3.243528e-05
4.873972e-05
6.686083e-05
9.129313e-05
1.201197e-04
1.534213e-04
1.901583e-04
2.303229e-04
2.743338e-04
3.242605e-04
3.783955e-04
4.399386e-04
5.107980e-04
5.842059e-04
0.000000e+00
7.679245e-06
1.610677e-05
2.633362e-05
4.227849e-05
6.090082e-05
8.483333e-05
1.142506e-04
1.471779e-04
1.840408e-04
2.239853e-04
2.681240e-04
3.176892e-04
3.734507e-04
4.346840e-04
5.034178e-04
5.738542e-04
0.000000e+00
4.324929e-06
1.228945e-05
2.172363e-05
3.645709e-05
5.567877e-05
7.941102e-05
1.097428e-04
1.430190e-04
1.795531e-04
2.193984e-04
2.635848e-04
3.139050e-04
3.710557e-04
4.305356e-04
4.959402e-04
5.641729e-04
0.000000e+00
3.198033e-06
1.058806e-05
2.008329e-05
3.451027e-05
5.200734e-05
7.640873e-05
1.087446e-04
1.435636e-04
1.781169e-04
2.173595e-04
2.619415e-04
3.131461e-04
3.696410e-04
4.277986e-04
4.881074e-04
5.500169e-04
0.000000e+00
2.809638e-06
1.026489e-05
2.004237e-05
3.424272e-05
5.071618e-05
7.529106e-05
1.097860e-04
1.447704e-04
1.780358e-04
2.155698e-04
2.618758e-04
3.133639e-04
3.697839e-04
4.266560e-04
4.817261e-04
5.338905e-04
0.000000e+00
3.342011e-06
1.077936e-05
2.046166e-05
3.485328e-05
5.181225e-05
7.717562e-05
1.106769e-04
1.453870e-04
1.778666e-04
2.159554e-04
2.633339e-04
3.157057e-04
3.701159e-04
4.265623e-04
4.794053e-04
5.228578e-04
0.000000e+00
4.479363e-06
1.251977e-05
2.207293e-05
3.673980e-05
5.576529e-05
8.039320e-05
1.117484e-04
1.447313e-04
1.789702e-04
2.182188e-04
2.665438e-04
3.191987e-04
3.722238e-04
4.256567e-04
4.766543e-04
5.193765e-04
0.000000e+00
7.805578e-06
1.634736e-05
2.664113e-05
4.254338e-05
6.131846e-05
8.580782e-05
1.159249e-04
1.481994e-04
1.832677e-04
2.228434e-04
2.703181e-04
3.222454e-04
3.744283e-04
4.258075e-04
4.746311e-04
5.198354e-04
0.000000e+00
1.271199e-05
2.024015e-05
3.273475e-05
4.908811e-05
6.740755e-05
9.234190e-05
1.215846e-04
1.543956e-04
1.894344e-04
2.301094e-04
2.746817e-04
3.245483e-04
3.755851e-04
4.261287e-04
4.741475e-04
5.200989e-04


5.678732e+00
6.140918e+00
6.867707e+00
5.940033e+00
5.751597e+00
6.598161e+00
6.449184e+00
6.440148e+00
5.970225e+00
5.905159e+00
6.285218e+00
7.151795e+00
8.848912e+00
9.830745e+00
9.151626e+00
8.002616e+00
8.085657e+00
8.462217e+00
8.662501e+00
8.358534e+00
8.244572e+00
8.522604e+00
8.683847e+00
8.430167e+00
8.401984e+00
8.271342e+00
8.418321e+00
8.845449e+00
9.507649e+00
9.843385e+00
8.395692e+00
6.474730e+00
9.843734e+00
9.824055e+00
9.999659e+00
9.838052e+00
9.836413e+00
9.971924e+00
9.835943e+00
9.948261e+00
9.849301e+00
9.881135e+00
9.898927e+00
9.876691e+00
9.894962e+00
9.396204e+00
8.000962e+00
6.192295e+00
9.999832e+00
9.999829e+00
9.999828e+00
9.999811e+00
9.999788e+00
9.999742e+00
9.999689e+00
9.999689e+00
9.999718e+00
9.999713e+00
9.999589e+00
9.483686e+00
8.832087e+00
8.373973e+00
7.992940e+00
7.921901e+00
9.999831e+00
9.999827e+00
9.999824e+00
9.999802e+00
9.999763e+00
9.999678e+00
9.934971e+00
9.963315e+00
9.999453e+00
9.919396e+00
9.361012e+00
8.594857e+00
7.709548e+00
7.748113e+00
8.655492e+00
9.170770e+00
9.844145e+00
9.824016e+00
9.999641e+00
9.837896e+00
9.836093e+00
9.714243e+00
9.306147e+00
9.521867e+00
9.387872e+00
8.875173e+00
8.312972e+00
7.900297e+00
8.201610e+00
8.756119e+00
9.449651e+00
9.999402e+00
8.088041e+00
8.463250e+00
8.661918e+00
8.357051e+00
8.162855e+00
8.071179e+00
7.912739e+00
7.819867e+00
7.910152e+00
7.352742e+00
7.490134e+00
8.493202e+00
9.292758e+00
9.848562e+00
9.999651e+00
9.999792e+00
5.684685e+00
6.142844e+00
6.866708e+00
5.931935e+00
5.719763e+00
6.264171e+00
6.079660e+00
6.551147e+00
6.321599e+00
6.544971e+00
7.876914e+00
9.117208e+00
9.986865e+00
9.999729e+00
9.999814e+00
9.999843e+00


-8.191303e-01
-1.671497e-01
-3.974576e-01
-2.585858e-01
-9.276046e-02
-3.073670e-01
-1.232458e-01
-2.097531e-01
-1.618743e-01
-1.577253e-01
-2.153588e-01
-1.496931e-01
-4.613500e-01
-6.861552e-01
3.157254e-01
-8.469481e-01
6.107266e-01
4.815512e-01
2.951846e-01
2.252151e-01
2.910776e-01
1.679738e-01
1.750589e-01
1.733139e-01
1.094870e-01
1.483578e-01
1.278937e-01
2.413476e-01
3.024770e-01
5.092617e-01
6.953473e-01
-9.344654e-01
7.226727e-01
4.716458e-01
5.638114e-02
-2.254785e-02
-3.609342e-02
-1.889609e-01
-8.018011e-02
-1.381598e-01
-7.749700e-02
-1.903490e-02
3.124001e-02
1.854107e-01
2.782658e-01
1.479690e-01
-2.536937e-02
-1.678656e-01
7.279342e-01
5.564468e-01
1.927930e-01
6.143944e-02
-2.214822e-02
-1.070053e-01
-1.634947e-02
-6.215926e-02
1.312459e-02
1.674968e-02
5.858342e-02
1.174537e-01
5.883838e-02
-2.622915e-01
-3.840449e-01
-7.819932e-02
7.308400e-01
5.603897e-01
2.007983e-01
6.964301e-02
-1.818904e-02
-1.129345e-01
-3.640213e-02
-1.029059e-01
-5.254366e-02
-4.383823e-02
2.072222e-02
1.381371e-02
-3.779435e-02
-1.298436e-01
-1.027773e-01
3.104523e-01
7.294897e-01
4.818566e-01
7.445671e-02
-4.554983e-03
-2.402028e-02
-1.625829e-01
-7.315645e-02
-1.876430e-01
-1.820268e-01
-1.090672e-01
-7.754139e-02
-9.789134e-02
-1.116329e-01
4.541407e-02
3.340096e-01
7.245251e-01
6.148184e-01
4.874036e-01
3.026465e-01
2.302009e-01
2.871562e-01
1.614339e-01
1.522553e-01
1.035550e-01
-5.764991e-02
-3.999402e-02
-9.627507e-02
-5.638053e-02
5.733496e-02
3.651646e-01
7.128482e-01
9.478985e-01
-8.247931e-01
-1.726618e-01
-4.050843e-01
-2.616763e-01
-9.197479e-02
-3.013469e-01
-1.192869e-01
-1.573225e-01
-5.592212e-02
-2.201632e-02
-9.256153e-02
1.005393e-01
3.878638e-01
7.721462e-01
9.528987e-01
9.987355e-01
1 2 19 18
2 3 20 19
3 4 21 20
4 5 22 21
5 6 23 22
6 7 24 23
7 8 25 24
8 9 26 25
9 10 27 26
10 11 28 27
11 12 29 28
12 13 30 29
13 14 31 30
14 15 32 31
15 16 33 32
16 17 34 33
18 19 36 35
19 20 37 36
20 21 38 37
21 22 39 38
22 23 40 39
23 24 41 40
24 25 42 41
25 26 43 42
26 27 44 43
27 28 45 44
28 29 46 45
29 30 47 46
30 31 48 47
31 32 49 48
32 33 50 49
33 34 51 50
35 36 53 52
36 37 54 53
37 38 55 54
38 39 56 55
39 40 57 56
40 41 58 57
41 42 59 58
42 43 60 59
43 44 61 60
44 45 62 61
45 46 63 62
46 47 64 63
47 48 65 64
48 49 66 65
49 50 67 66
50 51 68 67
52 53 70 69
53 54 71 70
54 55 72 71
55 56 73 72
56 57 74 73
57 58 75 74
58 59 76 75
59 60 77 76
60 61 78 77
61 62 79 78
62 63 80 79
63 64 81 80
64 65 82 81
65 66 83 82
66 67 84 83
67 68 85 84
69 70 87 86
70 71 88 87
71 72 89 88
72 73 90 89
73 74 91 90
74 75 92 91
75 76 93 92
76 77 94 93
77 78 95 94
78 79 96 95
79 80 97 96
80 81 98 97
81 82 99 98
82 83 100 99
83 84 101 100
84 85 102 101
86 87 104 103
87 88 105 104
88 89 106 105
89 90 107 106
90 91 108 107
91 92 109 108
92 93 110 109
93 94 111 110
94 95 112 111
95 96 113 112
96 97 114 113
97 98 115 114
98 99 116 115
99 100 117 116
100 101 118 117
101 102 119 118
103 104 121 120
104 105 122 121
105 106 123 122
106 107 124 123
107 108 125 124
108 109 126 125
109 110 127 126
110 111 128 127
111 112 129 128
112 113 130 129
113 114 131 130
114 115 132 131
115 116 133 132
116 117 134 133
117 118 135 134
118 119 136 135
120 121 138 137
121 122 139 138
122 123 140 139
123 124 141 140
124 125 142 141
125 126 143 142
126 127 144 143
127 128 145 144
128 129 146 145
129 130 147 146
130 131 148 147
131 132 149 148
132 133 150 149
133 134 151 150
134 135 152 151
135 136 153 152
