TITLE = "Solution"
VARIABLES = x, y, u, v, psiu, psiv, t, stress
ZONE T="structure" N=153 E=128 F=FEBLOCK ET=QUADRILATERAL VARLOCATION=([7,8]=cellcentered)
0.000000e+00
1.250000e+01
2.500000e+01
3.750000e+01
5.000000e+01
6.250000e+01
7.500000e+01
8.750000e+01
1.000000e+02
1.125000e+02
1.250000e+02
1.375000e+02
1.500000e+02
1.625000e+02
1.750000e+02
1.875000e+02
2.000000e+02
0.000000e+00
1.250000e+01
2.500000e+01
3.750000e+01
5.000000e+01
6.250000e+01
7.500000e+01
8.750000e+01
1.000000e+02
1.125000e+02
1.250000e+02
1.375000e+02
1.500000e+02
1.625000e+02
1.750000e+02
1.875000e+02
2.000000e+02
0.000000e+00
1.250000e+01
2.500000e+01
3.750000e+01
5.000000e+01
6.250000e+01
7.500000e+01
8.750000e+01
1.000000e+02
1.125000e+02
1.250000e+02
1.375000e+02
1.500000e+02
1.625000e+02
1.750000e+02
1.875000e+02
2.000000e+02
0.000000e+00
1.250000e+01
2.500000e+01
3.750000e+01
5.000000e+01
6.250000e+01
7.500000e+01
8.750000e+01
1.000000e+02
1.125000e+02
1.250000e+02
1.375000e+02
1.500000e+02
1.625000e+02
1.750000e+02
1.875000e+02
2.000000e+02
0.000000e+00
1.250000e+01
2.500000e+01
3.750000e+01
5.000000e+01
6.250000e+01
7.500000e+01
8.750000e+01
1.000000e+02
1.125000e+02
1.250000e+02
1.375000e+02
1.500000e+02
1.625000e+02
1.750000e+02
1.875000e+02
2.000000e+02
0.000000e+00
1.250000e+01
2.500000e+01
3.750000e+01
5.000000e+01
6.250000e+01
7.500000e+01
8.750000e+01
1.000000e+02
1.125000e+02
1.250000e+02
1.375000e+02
1.500000e+02
1.625000e+02
1.750000e+02
1.875000e+02
2.000000e+02
0.000000e+00
1.250000e+01
2.500000e+01
3.750000e+01
5.000000e+01
6.250000e+01
7.500000e+01
8.750000e+01
1.000000e+02
1.125000e+02
1.250000e+02
1.375000e+02
1.500000e+02
1.625000e+02
1.750000e+02
1.875000e+02
2.000000e+02
0.000000e+00
1.250000e+01
2.500000e+01
3.750000e+01
5.000000e+01
6.250000e+01
7.500000e+01
8.750000e+01
1.000000e+02
1.125000e+02
1.250000e+02
1.375000e+02
1.500000e+02
1.625000e+02
1.750000e+02
1.875000e+02
2.000000e+02
0.000000e+00
1.250000e+01
2.500000e+01
3.750000e+01
5.000000e+01
6.250000e+01
7.500000e+01
8.750000e+01
1.000000e+02
1.125000e+02
1.250000e+02
1.375000e+02
1.500000e+02
1.625000e+02
1.750000e+02
1.875000e+02
2.000000e+02
0.000000e+00
0.000000e+00
0.000000e+00
0.000000e+00
0.000000e+00
0.000000e+00
0.000000e+00
0.000000e+00
0.000000e+00
0.000000e+00
0.000000e+00
0.000000e+00
0.000000e+00
0.000000e+00
0.000000e+00
0.000000e+00
0.000000e+00
1.250000e+01
1.250000e+01
1.250000e+01
1.250000e+01
1.250000e+01
1.250000e+01
1.250000e+01
1.250000e+01
1.250000e+01
1.250000e+01
1.250000e+01
1.250000e+01
1.250000e+01
1.250000e+01
1.250000e+01
1.250000e+01
1.250000e+01
2.500000e+01
2.500000e+01
2.500000e+01
2.500000e+01
2.500000e+01
2.500000e+01
2.500000e+01
2.500000e+01
2.500000e+01
2.500000e+01
2.500000e+01
2.500000e+01
2.500000e+01
2.500000e+01
2.500000e+01
2.500000e+01
2.500000e+01
3.750000e+01
3.750000e+01
3.750000e+01
3.750000e+01
3.750000e+01
3.750000e+01
3.750000e+01
3.750000e+01
3.750000e+01
3.750000e+01
3.750000e+01
3.750000e+01
3.750000e+01
3.750000e+01
3.750000e+01
3.750000e+01
3.750000e+01
5.000000e+01
5.000000e+01
5.000000e+01
5.000000e+01
5.000000e+01
5.000000e+01
5.000000e+01
5.000000e+01
5.000000e+01
5.000000e+01
5.000000e+01
5.000000e+01
5.000000e+01
5.000000e+01
5.000000e+01
5.000000e+01
5.000000e+01
6.250000e+01
6.250000e+01
6.250000e+01
6.250000e+01
6.250000e+01
6.250000e+01
6.250000e+01
6.250000e+01
6.250000e+01
6.250000e+01
6.250000e+01
6.250000e+01
6.250000e+01
6.250000e+01
6.250000e+01
6.250000e+01
6.250000e+01
7.500000e+01
7.500000e+01
7.500000e+01
7.500000e+01
7.500000e+01
7.500000e+01
7.500000e+01
7.500000e+01
7.500000e+01
7.500000e+01
7.500000e+01
7.500000e+01
7.500000e+01
7.500000e+01
7.500000e+01
7.500000e+01
7.500000e+01
8.750000e+01
8.750000e+01
8.750000e+01
8.750000e+01
8.750000e+01
8.750000e+01
8.750000e+01
8.750000e+01
8.750000e+01
8.750000e+01
8.750000e+01
8.750000e+01
8.750000e+01
8.750000e+01
8.750000e+01
8.750000e+01
8.750000e+01
1.000000e+02
1.000000e+02
1.000000e+02
1.000000e+02
1.000000e+02
1.000000e+02
1.000000e+02
1.000000e+02
1.000000e+02
1.000000e+02
1.000000e+02
1.000000e+02
1.000000e+02
1.000000e+02
1.000000e+02
1.000000e+02
1.000000e+02
0.000000e+00
-9.255585e-02
-1.704246e-01
-2.420733e-01
-3.087975e-01
-3.704565e-01
-4.269184e-01
-4.781394e-01
-5.241942e-01
-5.652951e-01
-6.018496e-01
-6.345721e-01
-6.646919e-01
-6.943323e-01
-7.271550e-01
-7.674655e-01
-7.977141e-01
0.000000e+00
-5.527307e-02
-1.148188e-01
-1.698050e-01
-2.204634e-01
-2.669871e-01
-3.094724e-01
-3.479767e-01
-3.825692e-01
-4.133568e-01
-4.404956e-01
-4.641815e-01
-4.845655e-01
-5.014379e-01
-5.133390e-01
-5.159474e-01
-5.252996e-01
0.000000e+00
-3.456637e-02
-7.107689e-02
-1.075011e-01
-1.415015e-01
-1.727183e-01
-2.011263e-01
-2.267575e-01
-2.496186e-01
-2.696714e-01
-2.868080e-01
-3.007891e-01
-3.111163e-01
-3.168812e-01
-3.170412e-01
-3.147383e-01
-3.242767e-01
0.000000e+00
-1.668391e-02
-3.434595e-02
-5.211930e-02
-6.911362e-02
-8.476626e-02
-9.895369e-02
-1.116346e-01
-1.227366e-01
-1.321150e-01
-1.395304e-01
-1.446327e-01
-1.470043e-01
-1.464502e-01
-1.441739e-01
-1.447964e-01
-1.518988e-01
0.000000e+00
-1.536710e-05
-3.493430e-05
-5.443710e-05
-6.478700e-05
-4.571713e-05
4.299954e-05
2.735453e-04
7.643446e-04
1.691797e-03
3.286040e-03
5.778265e-03
9.230939e-03
1.313263e-02
1.582779e-02
1.508859e-02
1.038620e-02
0.000000e+00
1.666026e-02
3.429105e-02
5.203150e-02
6.900441e-02
8.467743e-02
9.898816e-02
1.120066e-01
1.238457e-01
1.346429e-01
1.445391e-01
1.536077e-01
1.616913e-01
1.681733e-01
1.719864e-01
1.722888e-01
1.699021e-01
0.000000e+00
3.456249e-02
7.106507e-02
1.074776e-01
1.414648e-01
1.726726e-01
2.010883e-01
2.267699e-01
2.497706e-01
2.701313e-01
2.878698e-01
3.029429e-01
3.151772e-01
3.242224e-01
3.296516e-01
3.314144e-01
3.308578e-01
0.000000e+00
5.529574e-02
1.148681e-01
1.698836e-01
2.205689e-01
2.670999e-01
3.095358e-01
3.478609e-01
3.820171e-01
4.119056e-01
4.373850e-01
4.582789e-01
4.744205e-01
4.857562e-01
4.925182e-01
4.954018e-01
4.959315e-01
0.000000e+00
9.259377e-02
1.705246e-01
2.422607e-01
3.090967e-01
3.708775e-01
4.274206e-01
4.785617e-01
5.241300e-01
5.638887e-01
5.974933e-01
6.244959e-01
6.444529e-01
6.572075e-01
6.633758e-01
6.648983e-01
6.648690e-01
0.000000e+00
-5.602647e-02
-1.099859e-01
-1.799045e-01
-2.657151e-01
-3.672569e-01
-4.834178e-01
-6.128977e-01
-7.543198e-01
-9.063254e-01
-1.067660e+00
-1.237323e+00
-1.414908e+00
-1.601361e+00
-1.801520e+00
-2.030537e+00
-2.359590e+00
0.000000e+00
-3.449087e-02
-9.077949e-02
-1.615654e-01
-2.487785e-01
-3.517062e-01
-4.692745e-01
-6.001515e-01
-7.429443e-01
-8.962698e-01
-1.058838e+00
-1.229605e+00
-1.408098e+00
-1.595241e+00
-1.795321e+00
-2.022949e+00
-2.301814e+00
0.000000e+00
-2.602629e-02
-7.746461e-02
-1.485119e-01
-2.365498e-01
-3.405370e-01
-4.591861e-01
-5.911521e-01
-7.350517e-01
-8.895216e-01
-1.053297e+00
-1.225369e+00
-1.405310e+00
-1.593891e+00
-1.794144e+00
-2.009830e+00
-2.218568e+00
0.000000e+00
-2.242740e-02
-7.084445e-02
-1.408498e-01
-2.292061e-01
-3.338335e-01
-4.532223e-01
-5.859766e-01
-7.307391e-01
-8.861833e-01
-1.051072e+00
-1.224376e+00
-1.405466e+00
-1.594256e+00
-1.790502e+00
-1.988688e+00
-2.171263e+00
0.000000e+00
-2.139060e-02
-6.884086e-02
-1.384055e-01
-2.267859e-01
-3.316737e-01
-4.514058e-01
-5.845875e-01
-7.298872e-01
-8.860003e-01
-1.051662e+00
-1.225680e+00
-1.406931e+00
-1.594078e+00
-1.784319e+00
-1.971150e+00
-2.143267e+00
0.000000e+00
-2.241409e-02
-7.083497e-02
-1.408667e-01
-2.292889e-01
-3.340516e-01
-4.536889e-01
-5.868604e-01
-7.322629e-01
-8.885850e-01
-1.054480e+00
-1.228507e+00
-1.408982e+00
-1.593609e+00
-1.778841e+00
-1.959265e+00
-2.127709e+00
0.000000e+00
-2.600458e-02
-7.744891e-02
-1.485400e-01
-2.366893e-01
-3.409061e-01
-4.599773e-01
-5.926528e-01
-7.376426e-01
-8.936128e-01
-1.059126e+00
-1.232519e+00
-1.411704e+00
-1.593912e+00
-1.775553e+00
-1.952514e+00
-2.120847e+00
0.000000e+00
-3.447052e-02
-9.076582e-02
-1.616027e-01
-2.489461e-01
-3.521402e-01
-4.701955e-01
-6.018861e-01
-7.459205e-01
-9.009405e-01
-1.065450e+00
-1.237667e+00
-1.415325e+00
-1.595504e+00
-1.774729e+00
-1.949723e+00
-2.119236e+00
0.000000e+00
-5.601806e-02
-1.099871e-01
-1.799623e-01
-2.659093e-01
-3.677207e-01
-4.843602e-01
-6.146172e-01
-7.571864e-01
-9.106860e-01
-1.073583e+00
-1.244057e+00
-1.419826e+00
-1.598034e+00
-1.775429e+00
-1.949213e+00
-2.119261e+00


0.000000e+00
-1.340017e-08
-2.674352e-08
-3.921306e-08
-5.105495e-08
-6.219887e-08
-7.257338e-08
-8.214351e-08
-9.089609e-08
-9.883756e-08
-1.059933e-07
-1.123979e-07
-1.180628e-07
-1.229201e-07
-1.268849e-07
-1.302386e-07
-1.331881e-07
0.000000e+00
-7.340100e-09
-1.794923e-08
-2.761965e-08
-3.663093e-08
-4.506981e-08
-5.289790e-08
-6.008486e-08
-6.660875e-08
-7.244957e-08
-7.758388e-08
-8.197824e-08
-8.559634e-08
-8.850190e-08
-9.115274e-08
-9.424497e-08
-9.738371e-08
0.000000e+00
-4.495943e-09
-1.117732e-08
-1.755036e-08
-2.360051e-08
-2.926530e-08
-3.449511e-08
-3.925811e-08
-4.352525e-08
-4.726388e-08
-5.043737e-08
-5.301816e-08
-5.503695e-08
-5.668903e-08
-5.841885e-08
-6.071437e-08
-6.333776e-08
0.000000e+00
-2.157310e-09
-5.323074e-09
-8.435476e-09
-1.145451e-08
-1.428131e-08
-1.687010e-08
-1.919411e-08
-2.122724e-08
-2.294173e-08
-2.431440e-08
-2.534630e-08
-2.609983e-08
-2.674338e-08
-2.756312e-08
-2.889930e-08
-3.072940e-08
0.000000e+00
-3.217776e-12
-4.523936e-12
-6.196764e-13
1.298674e-11
4.348809e-11
1.014653e-10
2.010521e-10
3.587263e-10
5.893604e-10
8.974662e-10
1.262461e-09
1.621116e-09
1.854815e-09
1.776338e-09
1.147888e-09
-6.365471e-11
0.000000e+00
2.151379e-09
5.314297e-09
8.432272e-09
1.147273e-08
1.434889e-08
1.703315e-08
1.952328e-08
2.182248e-08
2.393070e-08
2.583627e-08
2.750702e-08
2.888436e-08
2.988291e-08
3.039746e-08
3.030454e-08
2.963662e-08
0.000000e+00
4.492298e-09
1.117139e-08
1.754534e-08
2.360263e-08
2.928661e-08
3.455681e-08
3.939445e-08
4.378703e-08
4.771945e-08
5.116667e-08
5.408771e-08
5.642415e-08
5.811104e-08
5.911302e-08
5.944661e-08
5.924917e-08
0.000000e+00
7.343177e-09
1.795490e-08
2.762413e-08
3.662801e-08
4.504900e-08
5.284212e-08
5.996782e-08
6.639243e-08
7.208258e-08
7.700271e-08
8.111329e-08
8.437141e-08
8.674140e-08
8.823464e-08
8.896953e-08
8.914798e-08
0.000000e+00
1.341724e-08
2.677387e-08
3.925073e-08
5.108721e-08
6.219904e-08
7.249072e-08
8.189005e-08
9.033095e-08
9.775163e-08
1.040994e-07
1.093383e-07
1.134561e-07
1.164706e-07
1.184415e-07
1.194647e-07
1.197952e-07
0.000000e+00
-1.212531e-08
-2.388811e-08
-3.717566e-08
-5.301392e-08
-7.156663e-08
-9.273671e-08
-1.163571e-07
-1.422261e-07
-1.701412e-07
-1.999257e-07
-2.314725e-07
-2.648585e-07
-3.005840e-07
-3.395257e-07
-3.808939e-07
-4.218756e-07
0.000000e+00
-7.436736e-09
-1.886238e-08
-3.217794e-08
-4.823820e-08
-6.708827e-08
-8.859955e-08
-1.125802e-07
-1.388210e-07
-1.671145e-07
-1.972784e-07
-2.291941e-07
-2.628723e-07
-2.985324e-07
-3.365147e-07
-3.768408e-07
-4.172921e-07
0.000000e+00
-4.854133e-09
-1.482095e-08
-2.805050e-08
-4.427090e-08
-6.338362e-08
-8.519915e-08
-1.095073e-07
-1.360927e-07
-1.647450e-07
-1.952727e-07
-2.275225e-07
-2.613865e-07
-2.967620e-07
-3.335830e-07
-3.724263e-07
-4.115576e-07
0.000000e+00
-3.627349e-09
-1.266362e-08
-2.561411e-08
-4.190278e-08
-6.118466e-08
-8.320660e-08
-1.077421e-07
-1.345711e-07
-1.634770e-07
-1.942499e-07
-2.266840e-07
-2.605556e-07
-2.955826e-07
-3.315320e-07
-3.688453e-07
-4.059835e-07
0.000000e+00
-3.268925e-09
-1.200121e-08
-2.482541e-08
-4.113191e-08
-6.048575e-08
-8.260141e-08
-1.072453e-07
-1.341932e-07
-1.632190e-07
-1.940888e-07
-2.265481e-07
-2.602969e-07
-2.949579e-07
-3.301521e-07
-3.660776e-07
-4.012466e-07
0.000000e+00
-3.630159e-09
-1.267488e-08
-2.564242e-08
-4.195939e-08
-6.128471e-08
-8.336887e-08
-1.079863e-07
-1.349106e-07
-1.639048e-07
-1.947124e-07
-2.270440e-07
-2.605548e-07
-2.948131e-07
-3.293444e-07
-3.641005e-07
-3.978263e-07
0.000000e+00
-4.858673e-09
-1.484054e-08
-2.809999e-08
-4.436991e-08
-6.355888e-08
-8.548379e-08
-1.099360e-07
-1.366896e-07
-1.654976e-07
-1.960854e-07
-2.281401e-07
-2.612927e-07
-2.950922e-07
-3.290337e-07
-3.629101e-07
-3.957291e-07
0.000000e+00
-7.442437e-09
-1.888693e-08
-3.223841e-08
-4.835834e-08
-6.730021e-08
-8.894279e-08
-1.130953e-07
-1.395338e-07
-1.680041e-07
-1.982181e-07
-2.298462e-07
-2.625073e-07
-2.957595e-07
-3.291404e-07
-3.623738e-07
-3.947216e-07
0.000000e+00
-1.213478e-08
-2.391643e-08
-3.724030e-08
-5.313830e-08
-7.178150e-08
-9.307827e-08
-1.168593e-07
-1.429028e-07
-1.709515e-07
-2.007110e-07
-2.318443e-07
-2.639683e-07
-2.966609e-07
-3.295182e-07
-3.622859e-07
-3.944257e-07


2.704449e-01
2.704442e-01
2.704412e-01
2.704370e-01
2.704337e-01
2.704308e-01
2.704283e-01
2.704260e-01
2.704240e-01
2.704224e-01
2.704210e-01
2.704199e-01
2.704191e-01
2.704185e-01
2.704181e-01
2.704179e-01
2.704392e-01
2.704389e-01
2.704367e-01
2.704336e-01
2.704310e-01
2.704287e-01
2.704267e-01
2.704249e-01
2.704233e-01
2.704219e-01
2.704208e-01
2.704198e-01
2.704191e-01
2.704186e-01
2.704182e-01
2.704180e-01
2.704301e-01
2.704302e-01
2.704293e-01
2.704278e-01
2.704264e-01
2.704252e-01
2.704240e-01
2.704229e-01
2.704219e-01
2.704211e-01
2.704203e-01
2.704197e-01
2.704192e-01
2.704188e-01
2.704184e-01
2.704181e-01
2.704238e-01
2.704241e-01
2.704241e-01
2.704237e-01
2.704232e-01
2.704226e-01
2.704220e-01
2.704215e-01
2.704210e-01
2.704206e-01
2.704201e-01
2.704197e-01
2.704194e-01
2.704189e-01
2.704185e-01
2.704182e-01
2.704238e-01
2.704241e-01
2.704241e-01
2.704237e-01
2.704232e-01
2.704226e-01
2.704220e-01
2.704215e-01
2.704211e-01
2.704206e-01
2.704203e-01
2.704199e-01
2.704194e-01
2.704190e-01
2.704185e-01
2.704182e-01
2.704301e-01
2.704302e-01
2.704293e-01
2.704278e-01
2.704264e-01
2.704252e-01
2.704240e-01
2.704230e-01
2.704220e-01
2.704213e-01
2.704206e-01
2.704200e-01
2.704194e-01
2.704188e-01
2.704184e-01
2.704181e-01
2.704392e-01
2.704389e-01
2.704367e-01
2.704336e-01
2.704310e-01
2.704288e-01
2.704267e-01
2.704249e-01
2.704233e-01
2.704220e-01
2.704209e-01
2.704199e-01
2.704192e-01
2.704186e-01
2.704182e-01
2.704180e-01
2.704449e-01
2.704442e-01
2.704412e-01
2.704370e-01
2.704337e-01
2.704308e-01
2.704282e-01
2.704260e-01
2.704240e-01
2.704223e-01
2.704209e-01
2.704198e-01
2.704190e-01
2.704185e-01
2.704181e-01
2.704179e-01


9.807265e-01
9.834597e-01
9.859883e-01
9.879349e-01
9.897416e-01
9.914075e-01
9.929252e-01
9.942768e-01
9.954483e-01
9.964281e-01
9.972072e-01
9.977779e-01
9.981326e-01
9.982592e-01
9.983505e-01
9.927189e-01
9.927084e-01
9.914560e-01
9.922620e-01
9.933139e-01
9.942945e-01
9.951857e-01
9.959924e-01
9.967231e-01
9.973847e-01
9.979839e-01
9.985276e-01
9.990199e-01
9.994494e-01
9.997306e-01
9.990194e-01
9.893792e-01
9.974665e-01
9.967472e-01
9.965531e-01
9.968263e-01
9.971857e-01
9.975338e-01
9.978570e-01
9.981623e-01
9.984581e-01
9.987465e-01
9.990158e-01
9.992243e-01
9.992678e-01
9.988924e-01
9.975302e-01
9.950803e-01
9.994844e-01
9.989598e-01
9.986357e-01
9.985535e-01
9.985864e-01
9.986415e-01
9.986965e-01
9.987503e-01
9.988030e-01
9.988472e-01
9.988595e-01
9.987938e-01
9.985856e-01
9.982118e-01
9.978948e-01
9.978145e-01
9.994863e-01
9.989625e-01
9.986382e-01
9.985530e-01
9.985782e-01
9.986180e-01
9.986456e-01
9.986549e-01
9.986422e-01
9.986016e-01
9.985260e-01
9.984170e-01
9.983132e-01
9.983339e-01
9.986272e-01
9.991351e-01
9.974701e-01
9.967527e-01
9.965583e-01
9.968264e-01
9.971718e-01
9.974907e-01
9.977606e-01
9.979775e-01
9.981400e-01
9.982494e-01
9.983185e-01
9.983862e-01
9.985282e-01
9.988260e-01
9.992732e-01
9.997357e-01
9.927077e-01
9.914555e-01
9.922609e-01
9.933109e-01
9.942868e-01
9.951682e-01
9.959561e-01
9.966538e-01
9.972616e-01
9.977812e-01
9.982211e-01
9.986052e-01
9.989752e-01
9.993630e-01
9.997257e-01
9.999541e-01
9.807134e-01
9.834391e-01
9.859631e-01
9.879066e-01
9.897162e-01
9.913983e-01
9.929565e-01
9.943873e-01
9.956909e-01
9.968649e-01
9.978952e-01
9.987499e-01
9.993858e-01
9.997780e-01
9.999565e-01
9.999991e-01
1 2 19 18
2 3 20 19
3 4 21 20
4 5 22 21
5 6 23 22
6 7 24 23
7 8 25 24
8 9 26 25
9 10 27 26
10 11 28 27
11 12 29 28
12 13 30 29
13 14 31 30
14 15 32 31
15 16 33 32
16 17 34 33
18 19 36 35
19 20 37 36
20 21 38 37
21 22 39 38
22 23 40 39
23 24 41 40
24 25 42 41
25 26 43 42
26 27 44 43
27 28 45 44
28 29 46 45
29 30 47 46
30 31 48 47
31 32 49 48
32 33 50 49
33 34 51 50
35 36 53 52
36 37 54 53
37 38 55 54
38 39 56 55
39 40 57 56
40 41 58 57
41 42 59 58
42 43 60 59
43 44 61 60
44 45 62 61
45 46 63 62
46 47 64 63
47 48 65 64
48 49 66 65
49 50 67 66
50 51 68 67
52 53 70 69
53 54 71 70
54 55 72 71
55 56 73 72
56 57 74 73
57 58 75 74
58 59 76 75
59 60 77 76
60 61 78 77
61 62 79 78
62 63 80 79
63 64 81 80
64 65 82 81
65 66 83 82
66 67 84 83
67 68 85 84
69 70 87 86
70 71 88 87
71 72 89 88
72 73 90 89
73 74 91 90
74 75 92 91
75 76 93 92
76 77 94 93
77 78 95 94
78 79 96 95
79 80 97 96
80 81 98 97
81 82 99 98
82 83 100 99
83 84 101 100
84 85 102 101
86 87 104 103
87 88 105 104
88 89 106 105
89 90 107 106
90 91 108 107
91 92 109 108
92 93 110 109
93 94 111 110
94 95 112 111
95 96 113 112
96 97 114 113
97 98 115 114
98 99 116 115
99 100 117 116
100 101 118 117
101 102 119 118
103 104 121 120
104 105 122 121
105 106 123 122
106 107 124 123
107 108 125 124
108 109 126 125
109 110 127 126
110 111 128 127
111 112 129 128
112 113 130 129
113 114 131 130
114 115 132 131
115 116 133 132
116 117 134 133
117 118 135 134
118 119 136 135
120 121 138 137
121 122 139 138
122 123 140 139
123 124 141 140
124 125 142 141
125 126 143 142
126 127 144 143
127 128 145 144
128 129 146 145
129 130 147 146
130 131 148 147
131 132 149 148
132 133 150 149
133 134 151 150
134 135 152 151
135 136 153 152
