TITLE = "Solution"
VARIABLES = x, y, u, v, psiu, psiv, t, stress
ZONE T="structure" N=153 E=128 F=FEBLOCK ET=QUADRILATERAL VARLOCATION=([7,8]=cellcentered)
0.000000e+00
1.250000e+01
2.500000e+01
3.750000e+01
5.000000e+01
6.250000e+01
7.500000e+01
8.750000e+01
1.000000e+02
1.125000e+02
1.250000e+02
1.375000e+02
1.500000e+02
1.625000e+02
1.750000e+02
1.875000e+02
2.000000e+02
0.000000e+00
1.250000e+01
2.500000e+01
3.750000e+01
5.000000e+01
6.250000e+01
7.500000e+01
8.750000e+01
1.000000e+02
1.125000e+02
1.250000e+02
1.375000e+02
1.500000e+02
1.625000e+02
1.750000e+02
1.875000e+02
2.000000e+02
0.000000e+00
1.250000e+01
2.500000e+01
3.750000e+01
5.000000e+01
6.250000e+01
7.500000e+01
8.750000e+01
1.000000e+02
1.125000e+02
1.250000e+02
1.375000e+02
1.500000e+02
1.625000e+02
1.750000e+02
1.875000e+02
2.000000e+02
0.000000e+00
1.250000e+01
2.500000e+01
3.750000e+01
5.000000e+01
6.250000e+01
7.500000e+01
8.750000e+01
1.000000e+02
1.125000e+02
1.250000e+02
1.375000e+02
1.500000e+02
1.625000e+02
1.750000e+02
1.875000e+02
2.000000e+02
0.000000e+00
1.250000e+01
2.500000e+01
3.750000e+01
5.000000e+01
6.250000e+01
7.500000e+01
8.750000e+01
1.000000e+02
1.125000e+02
1.250000e+02
1.375000e+02
1.500000e+02
1.625000e+02
1.750000e+02
1.875000e+02
2.000000e+02
0.000000e+00
1.250000e+01
2.500000e+01
3.750000e+01
5.000000e+01
6.250000e+01
7.500000e+01
8.750000e+01
1.000000e+02
1.125000e+02
1.250000e+02
1.375000e+02
1.500000e+02
1.625000e+02
1.750000e+02
1.875000e+02
2.000000e+02
0.000000e+00
1.250000e+01
2.500000e+01
3.750000e+01
5.000000e+01
6.250000e+01
7.500000e+01
8.750000e+01
1.000000e+02
1.125000e+02
1.250000e+02
1.375000e+02
1.500000e+02
1.625000e+02
1.750000e+02
1.875000e+02
2.000000e+02
0.000000e+00
1.250000e+01
2.500000e+01
3.750000e+01
5.000000e+01
6.250000e+01
7.500000e+01
8.750000e+01
1.000000e+02
1.125000e+02
1.250000e+02
1.375000e+02
1.500000e+02
1.625000e+02
1.750000e+02
1.875000e+02
2.000000e+02
0.000000e+00
1.250000e+01
2.500000e+01
3.750000e+01
5.000000e+01
6.250000e+01
7.500000e+01
8.750000e+01
1.000000e+02
1.125000e+02
1.250000e+02
1.375000e+02
1.500000e+02
1.625000e+02
1.750000e+02
1.875000e+02
2.000000e+02
0.000000e+00
0.000000e+00
0.000000e+00
0.000000e+00
0.000000e+00
0.000000e+00
0.000000e+00
0.000000e+00
0.000000e+00
0.000000e+00
0.000000e+00
0.000000e+00
0.000000e+00
0.000000e+00
0.000000e+00
0.000000e+00
0.000000e+00
1.250000e+01
1.250000e+01
1.250000e+01
1.250000e+01
1.250000e+01
1.250000e+01
1.250000e+01
1.250000e+01
1.250000e+01
1.250000e+01
1.250000e+01
1.250000e+01
1.250000e+01
1.250000e+01
1.250000e+01
1.250000e+01
1.250000e+01
2.500000e+01
2.500000e+01
2.500000e+01
2.500000e+01
2.500000e+01
2.500000e+01
2.500000e+01
2.500000e+01
2.500000e+01
2.500000e+01
2.500000e+01
2.500000e+01
2.500000e+01
2.500000e+01
2.500000e+01
2.500000e+01
2.500000e+01
3.750000e+01
3.750000e+01
3.750000e+01
3.750000e+01
3.750000e+01
3.750000e+01
3.750000e+01
3.750000e+01
3.750000e+01
3.750000e+01
3.750000e+01
3.750000e+01
3.750000e+01
3.750000e+01
3.750000e+01
3.750000e+01
3.750000e+01
5.000000e+01
5.000000e+01
5.000000e+01
5.000000e+01
5.000000e+01
5.000000e+01
5.000000e+01
5.000000e+01
5.000000e+01
5.000000e+01
5.000000e+01
5.000000e+01
5.000000e+01
5.000000e+01
5.000000e+01
5.000000e+01
5.000000e+01
6.250000e+01
6.250000e+01
6.250000e+01
6.250000e+01
6.250000e+01
6.250000e+01
6.250000e+01
6.250000e+01
6.250000e+01
6.250000e+01
6.250000e+01
6.250000e+01
6.250000e+01
6.250000e+01
6.250000e+01
6.250000e+01
6.250000e+01
7.500000e+01
7.500000e+01
7.500000e+01
7.500000e+01
7.500000e+01
7.500000e+01
7.500000e+01
7.500000e+01
7.500000e+01
7.500000e+01
7.500000e+01
7.500000e+01
7.500000e+01
7.500000e+01
7.500000e+01
7.500000e+01
7.500000e+01
8.750000e+01
8.750000e+01
8.750000e+01
8.750000e+01
8.750000e+01
8.750000e+01
8.750000e+01
8.750000e+01
8.750000e+01
8.750000e+01
8.750000e+01
8.750000e+01
8.750000e+01
8.750000e+01
8.750000e+01
8.750000e+01
8.750000e+01
1.000000e+02
1.000000e+02
1.000000e+02
1.000000e+02
1.000000e+02
1.000000e+02
1.000000e+02
1.000000e+02
1.000000e+02
1.000000e+02
1.000000e+02
1.000000e+02
1.000000e+02
1.000000e+02
1.000000e+02
1.000000e+02
1.000000e+02
0.000000e+00
-7.374489e-02
-1.357877e-01
-1.928751e-01
-2.460397e-01
-2.951690e-01
-3.401579e-01
-3.809712e-01
-4.176683e-01
-4.504184e-01
-4.795460e-01
-5.056204e-01
-5.296210e-01
-5.532395e-01
-5.793940e-01
-6.115150e-01
-6.356183e-01
0.000000e+00
-4.403908e-02
-9.148263e-02
-1.352938e-01
-1.756574e-01
-2.127269e-01
-2.465793e-01
-2.772597e-01
-3.048236e-01
-3.293558e-01
-3.509807e-01
-3.698544e-01
-3.860971e-01
-3.995417e-01
-4.090249e-01
-4.111035e-01
-4.185556e-01
0.000000e+00
-2.754075e-02
-5.663068e-02
-8.565225e-02
-1.127431e-01
-1.376163e-01
-1.602517e-01
-1.806748e-01
-1.988909e-01
-2.148694e-01
-2.285243e-01
-2.396648e-01
-2.478939e-01
-2.524876e-01
-2.526151e-01
-2.507800e-01
-2.583807e-01
0.000000e+00
-1.329286e-02
-2.736514e-02
-4.152632e-02
-5.506701e-02
-6.753885e-02
-7.884337e-02
-8.894764e-02
-9.779382e-02
-1.052668e-01
-1.111755e-01
-1.152412e-01
-1.171309e-01
-1.166894e-01
-1.148756e-01
-1.153716e-01
-1.210310e-01
0.000000e+00
-1.224577e-05
-2.783845e-05
-4.337996e-05
-5.162839e-05
-3.643450e-05
3.425592e-05
2.179602e-04
6.090435e-04
1.348068e-03
2.618416e-03
4.604313e-03
7.355537e-03
1.046456e-02
1.261218e-02
1.202316e-02
8.276116e-03
0.000000e+00
1.327402e-02
2.732140e-02
4.145635e-02
5.497998e-02
6.746806e-02
7.887083e-02
8.924404e-02
9.867764e-02
1.072810e-01
1.151666e-01
1.223928e-01
1.288341e-01
1.339992e-01
1.370376e-01
1.372786e-01
1.353767e-01
0.000000e+00
2.753766e-02
5.662126e-02
8.563350e-02
1.127138e-01
1.375798e-01
1.602214e-01
1.806847e-01
1.990120e-01
2.152358e-01
2.293703e-01
2.413810e-01
2.511298e-01
2.583373e-01
2.626635e-01
2.640682e-01
2.636247e-01
0.000000e+00
4.405715e-02
9.152191e-02
1.353564e-01
1.757414e-01
2.128169e-01
2.466297e-01
2.771675e-01
3.043836e-01
3.281995e-01
3.485021e-01
3.651510e-01
3.780132e-01
3.870459e-01
3.924341e-01
3.947319e-01
3.951539e-01
0.000000e+00
7.377510e-02
1.358674e-01
1.930244e-01
2.462781e-01
2.955045e-01
3.405580e-01
3.813076e-01
4.176171e-01
4.492978e-01
4.760748e-01
4.975913e-01
5.134937e-01
5.236571e-01
5.285723e-01
5.297855e-01
5.297621e-01
0.000000e+00
-4.463983e-02
-8.763325e-02
-1.433427e-01
-2.117146e-01
-2.926210e-01
-3.851758e-01
-4.883433e-01
-6.010264e-01
-7.221427e-01
-8.506923e-01
-9.858793e-01
-1.127378e+00
-1.275943e+00
-1.435429e+00
-1.617911e+00
-1.880106e+00
0.000000e+00
-2.748111e-02
-7.233030e-02
-1.287306e-01
-1.982199e-01
-2.802303e-01
-3.739064e-01
-4.781869e-01
-5.919622e-01
-7.141302e-01
-8.436633e-01
-9.797292e-01
-1.121951e+00
-1.271066e+00
-1.430490e+00
-1.611865e+00
-1.834068e+00
0.000000e+00
-2.073696e-02
-6.172154e-02
-1.183300e-01
-1.884762e-01
-2.713308e-01
-3.658679e-01
-4.710161e-01
-5.856733e-01
-7.087531e-01
-8.392477e-01
-9.763535e-01
-1.119730e+00
-1.269991e+00
-1.429552e+00
-1.601411e+00
-1.767734e+00
0.000000e+00
-1.786967e-02
-5.644693e-02
-1.122251e-01
-1.826249e-01
-2.659895e-01
-3.611160e-01
-4.668923e-01
-5.822369e-01
-7.060930e-01
-8.374746e-01
-9.755624e-01
-1.119854e+00
-1.270281e+00
-1.426650e+00
-1.584564e+00
-1.730039e+00
0.000000e+00
-1.704367e-02
-5.485059e-02
-1.102776e-01
-1.806966e-01
-2.642686e-01
-3.596686e-01
-4.657854e-01
-5.815582e-01
-7.059473e-01
-8.379447e-01
-9.766016e-01
-1.121022e+00
-1.270139e+00
-1.421723e+00
-1.570589e+00
-1.707731e+00
0.000000e+00
-1.785906e-02
-5.643938e-02
-1.122385e-01
-1.826909e-01
-2.661633e-01
-3.614878e-01
-4.675965e-01
-5.834511e-01
-7.080068e-01
-8.401905e-01
-9.788538e-01
-1.122656e+00
-1.269766e+00
-1.417358e+00
-1.561119e+00
-1.695334e+00
0.000000e+00
-2.071966e-02
-6.170903e-02
-1.183524e-01
-1.885874e-01
-2.716249e-01
-3.664983e-01
-4.722119e-01
-5.877377e-01
-7.120131e-01
-8.438924e-01
-9.820510e-01
-1.124824e+00
-1.270007e+00
-1.414738e+00
-1.555740e+00
-1.689866e+00
0.000000e+00
-2.746489e-02
-7.231941e-02
-1.287604e-01
-1.983534e-01
-2.805761e-01
-3.746403e-01
-4.795691e-01
-5.943337e-01
-7.178520e-01
-8.489314e-01
-9.861527e-01
-1.127710e+00
-1.271276e+00
-1.414081e+00
-1.553516e+00
-1.688582e+00
0.000000e+00
-4.463313e-02
-8.763419e-02
-1.433888e-01
-2.118694e-01
-2.929906e-01
-3.859267e-01
-4.897134e-01
-6.033106e-01
-7.256174e-01
-8.554124e-01
-9.912451e-01
-1.131297e+00
-1.273292e+00
-1.414639e+00
-1.553109e+00
-1.688602e+00


0.000000e+00
6.869471e-08
1.376703e-07
2.017097e-07
2.617299e-07
3.173928e-07
3.684709e-07
4.149582e-07
4.569564e-07
4.946495e-07
5.282943e-07
5.581751e-07
5.844605e-07
6.069499e-07
6.253600e-07
6.411011e-07
6.551164e-07
0.000000e+00
3.868303e-08
9.410844e-08
1.439139e-07
1.895445e-07
2.315738e-07
2.699715e-07
3.047455e-07
3.359308e-07
3.635562e-07
3.876189e-07
4.080526e-07
4.247573e-07
4.380796e-07
4.502490e-07
4.647069e-07
4.795993e-07
0.000000e+00
2.440636e-08
5.951486e-08
9.242995e-08
1.230875e-07
1.512598e-07
1.768428e-07
1.998123e-07
2.201389e-07
2.377590e-07
2.525755e-07
2.645199e-07
2.737818e-07
2.813150e-07
2.892640e-07
3.000154e-07
3.124453e-07
0.000000e+00
1.193257e-08
2.853990e-08
4.466219e-08
5.999389e-08
7.406568e-08
8.672928e-08
9.793071e-08
1.076073e-07
1.156775e-07
1.220735e-07
1.268348e-07
1.302852e-07
1.332401e-07
1.370498e-07
1.433166e-07
1.519439e-07
0.000000e+00
1.225190e-11
1.503178e-11
-7.045957e-12
-7.503361e-11
-2.224995e-10
-4.986402e-10
-9.689554e-10
-1.709372e-09
-2.787406e-09
-4.220674e-09
-5.907536e-09
-7.546242e-09
-8.584170e-09
-8.171494e-09
-5.221608e-09
4.433408e-10
0.000000e+00
-1.190967e-08
-2.850937e-08
-4.466426e-08
-6.010335e-08
-7.441350e-08
-8.753041e-08
-9.951342e-08
-1.104348e-07
-1.203398e-07
-1.292107e-07
-1.369282e-07
-1.432466e-07
-1.477988e-07
-1.501309e-07
-1.496848e-07
-1.465830e-07
0.000000e+00
-2.439190e-08
-5.949363e-08
-9.241767e-08
-1.231139e-07
-1.513809e-07
-1.771562e-07
-2.004750e-07
-2.213831e-07
-2.398979e-07
-2.559782e-07
-2.695002e-07
-2.802528e-07
-2.879867e-07
-2.925757e-07
-2.941040e-07
-2.931881e-07
0.000000e+00
-3.869768e-08
-9.413769e-08
-1.439406e-07
-1.895402e-07
-2.314899e-07
-2.697282e-07
-3.042196e-07
-3.349438e-07
-3.618683e-07
-3.849376e-07
-4.040655e-07
-4.191378e-07
-4.300579e-07
-4.369246e-07
-4.403005e-07
-4.411158e-07
0.000000e+00
-6.877556e-08
-1.378135e-07
-2.018868e-07
-2.618813e-07
-3.173941e-07
-3.680868e-07
-4.137818e-07
-4.543386e-07
-4.896292e-07
-5.195538e-07
-5.440714e-07
-5.632293e-07
-5.771890e-07
-5.862798e-07
-5.909781e-07
-5.924868e-07
0.000000e+00
6.218962e-08
1.212675e-07
1.875393e-07
2.665829e-07
3.592137e-07
4.648188e-07
5.824152e-07
7.108728e-07
8.490956e-07
9.961456e-07
1.151444e-06
1.315302e-06
1.490070e-06
1.680065e-06
1.881882e-06
2.082128e-06
0.000000e+00
3.759579e-08
9.501606e-08
1.618245e-07
2.424263e-07
3.369359e-07
4.445532e-07
5.641680e-07
6.946212e-07
8.348022e-07
9.837566e-07
1.140862e-06
1.306132e-06
1.480600e-06
1.665974e-06
1.862670e-06
2.060279e-06
0.000000e+00
2.392100e-08
7.397398e-08
1.407252e-07
2.225044e-07
3.186414e-07
4.280083e-07
5.494085e-07
6.816638e-07
8.236591e-07
9.744073e-07
1.133134e-06
1.299308e-06
1.472442e-06
1.652252e-06
1.841768e-06
2.033012e-06
0.000000e+00
1.753648e-08
6.291126e-08
1.284288e-07
2.107522e-07
3.078963e-07
4.184001e-07
5.409920e-07
6.744780e-07
8.177233e-07
9.696599e-07
1.129274e-06
1.295496e-06
1.466990e-06
1.642686e-06
1.824902e-06
2.006630e-06
0.000000e+00
1.570302e-08
5.955884e-08
1.244744e-07
2.069449e-07
3.044913e-07
4.154847e-07
5.386195e-07
6.726870e-07
8.165101e-07
9.689113e-07
1.128651e-06
1.294304e-06
1.464101e-06
1.636304e-06
1.811992e-06
1.984364e-06
0.000000e+00
1.755067e-08
6.296433e-08
1.285599e-07
2.110127e-07
3.083561e-07
4.191465e-07
5.421169e-07
6.760458e-07
8.197030e-07
9.718046e-07
1.130947e-06
1.295497e-06
1.463443e-06
1.632613e-06
1.802854e-06
1.968402e-06
0.000000e+00
2.394389e-08
7.406644e-08
1.409550e-07
2.229613e-07
3.194490e-07
4.293205e-07
5.513882e-07
6.844254e-07
8.271496e-07
9.781880e-07
1.136023e-06
1.298908e-06
1.464744e-06
1.631213e-06
1.797379e-06
1.958680e-06
0.000000e+00
3.762487e-08
9.513343e-08
1.621077e-07
2.429840e-07
3.379165e-07
4.461401e-07
5.665506e-07
6.979230e-07
8.389323e-07
9.881358e-07
1.143933e-06
1.304516e-06
1.467823e-06
1.631716e-06
1.794918e-06
1.954041e-06
0.000000e+00
6.223778e-08
1.214049e-07
1.878449e-07
2.671639e-07
3.602116e-07
4.664010e-07
5.847400e-07
7.140076e-07
8.528571e-07
9.998091e-07
1.153223e-06
1.311272e-06
1.471978e-06
1.633457e-06
1.794517e-06
1.952689e-06


2.154754e-01
2.154753e-01
2.154757e-01
2.154764e-01
2.154771e-01
2.154777e-01
2.154782e-01
2.154787e-01
2.154791e-01
2.154795e-01
2.154798e-01
2.154801e-01
2.154802e-01
2.154801e-01
2.154798e-01
2.154795e-01
2.154765e-01
2.154764e-01
2.154766e-01
2.154772e-01
2.154777e-01
2.154782e-01
2.154786e-01
2.154790e-01
2.154794e-01
2.154797e-01
2.154799e-01
2.154801e-01
2.154802e-01
2.154801e-01
2.154798e-01
2.154795e-01
2.154784e-01
2.154782e-01
2.154783e-01
2.154786e-01
2.154788e-01
2.154791e-01
2.154794e-01
2.154796e-01
2.154798e-01
2.154800e-01
2.154801e-01
2.154802e-01
2.154803e-01
2.154801e-01
2.154798e-01
2.154796e-01
2.154796e-01
2.154795e-01
2.154795e-01
2.154795e-01
2.154796e-01
2.154797e-01
2.154799e-01
2.154800e-01
2.154801e-01
2.154801e-01
2.154802e-01
2.154802e-01
2.154802e-01
2.154801e-01
2.154800e-01
2.154799e-01
2.154796e-01
2.154795e-01
2.154795e-01
2.154795e-01
2.154796e-01
2.154797e-01
2.154798e-01
2.154799e-01
2.154800e-01
2.154801e-01
2.154801e-01
2.154802e-01
2.154802e-01
2.154802e-01
2.154802e-01
2.154803e-01
2.154784e-01
2.154782e-01
2.154783e-01
2.154785e-01
2.154788e-01
2.154791e-01
2.154793e-01
2.154795e-01
2.154797e-01
2.154799e-01
2.154800e-01
2.154801e-01
2.154802e-01
2.154803e-01
2.154804e-01
2.154805e-01
2.154765e-01
2.154764e-01
2.154766e-01
2.154772e-01
2.154777e-01
2.154782e-01
2.154786e-01
2.154790e-01
2.154794e-01
2.154797e-01
2.154799e-01
2.154801e-01
2.154803e-01
2.154805e-01
2.154806e-01
2.154807e-01
2.154754e-01
2.154753e-01
2.154757e-01
2.154764e-01
2.154771e-01
2.154777e-01
2.154782e-01
2.154787e-01
2.154792e-01
2.154796e-01
2.154799e-01
2.154802e-01
2.154804e-01
2.154806e-01
2.154807e-01
2.154807e-01


9.877647e-01
9.894998e-01
9.911048e-01
9.923403e-01
9.934872e-01
9.945447e-01
9.955082e-01
9.963663e-01
9.971100e-01
9.977321e-01
9.982267e-01
9.985891e-01
9.988143e-01
9.988947e-01
9.989527e-01
9.953769e-01
9.953712e-01
9.945761e-01
9.950876e-01
9.957552e-01
9.963777e-01
9.969434e-01
9.974556e-01
9.979194e-01
9.983395e-01
9.987199e-01
9.990651e-01
9.993777e-01
9.996504e-01
9.998290e-01
9.993774e-01
9.932563e-01
9.983917e-01
9.979350e-01
9.978117e-01
9.979851e-01
9.982133e-01
9.984342e-01
9.986394e-01
9.988332e-01
9.990210e-01
9.992041e-01
9.993751e-01
9.995075e-01
9.995351e-01
9.992967e-01
9.984318e-01
9.968763e-01
9.996727e-01
9.993396e-01
9.991339e-01
9.990817e-01
9.991025e-01
9.991375e-01
9.991724e-01
9.992065e-01
9.992400e-01
9.992680e-01
9.992758e-01
9.992342e-01
9.991019e-01
9.988646e-01
9.986633e-01
9.986123e-01
9.996739e-01
9.993413e-01
9.991354e-01
9.990813e-01
9.990973e-01
9.991225e-01
9.991400e-01
9.991459e-01
9.991379e-01
9.991121e-01
9.990641e-01
9.989949e-01
9.989290e-01
9.989421e-01
9.991284e-01
9.994508e-01
9.983940e-01
9.979385e-01
9.978151e-01
9.979852e-01
9.982044e-01
9.984069e-01
9.985782e-01
9.987159e-01
9.988190e-01
9.988885e-01
9.989324e-01
9.989753e-01
9.990655e-01
9.992545e-01
9.995385e-01
9.998322e-01
9.953707e-01
9.945757e-01
9.950869e-01
9.957533e-01
9.963728e-01
9.969323e-01
9.974325e-01
9.978754e-01
9.982613e-01
9.985912e-01
9.988705e-01
9.991144e-01
9.993493e-01
9.995955e-01
9.998258e-01
9.999708e-01
9.877564e-01
9.894867e-01
9.910888e-01
9.923224e-01
9.934711e-01
9.945388e-01
9.955281e-01
9.964364e-01
9.972640e-01
9.980094e-01
9.986636e-01
9.992063e-01
9.996100e-01
9.998591e-01
9.999724e-01
9.999994e-01
1 2 19 18
2 3 20 19
3 4 21 20
4 5 22 21
5 6 23 22
6 7 24 23
7 8 25 24
8 9 26 25
9 10 27 26
10 11 28 27
11 12 29 28
12 13 30 29
13 14 31 30
14 15 32 31
15 16 33 32
16 17 34 33
18 19 36 35
19 20 37 36
20 21 38 37
21 22 39 38
22 23 40 39
23 24 41 40
24 25 42 41
25 26 43 42
26 27 44 43
27 28 45 44
28 29 46 45
29 30 47 46
30 31 48 47
31 32 49 48
32 33 50 49
33 34 51 50
35 36 53 52
36 37 54 53
37 38 55 54
38 39 56 55
39 40 57 56
40 41 58 57
41 42 59 58
42 43 60 59
43 44 61 60
44 45 62 61
45 46 63 62
46 47 64 63
47 48 65 64
48 49 66 65
49 50 67 66
50 51 68 67
52 53 70 69
53 54 71 70
54 55 72 71
55 56 73 72
56 57 74 73
57 58 75 74
58 59 76 75
59 60 77 76
60 61 78 77
61 62 79 78
62 63 80 79
63 64 81 80
64 65 82 81
65 66 83 82
66 67 84 83
67 68 85 84
69 70 87 86
70 71 88 87
71 72 89 88
72 73 90 89
73 74 91 90
74 75 92 91
75 76 93 92
76 77 94 93
77 78 95 94
78 79 96 95
79 80 97 96
80 81 98 97
81 82 99 98
82 83 100 99
83 84 101 100
84 85 102 101
86 87 104 103
87 88 105 104
88 89 106 105
89 90 107 106
90 91 108 107
91 92 109 108
92 93 110 109
93 94 111 110
94 95 112 111
95 96 113 112
96 97 114 113
97 98 115 114
98 99 116 115
99 100 117 116
100 101 118 117
101 102 119 118
103 104 121 120
104 105 122 121
105 106 123 122
106 107 124 123
107 108 125 124
108 109 126 125
109 110 127 126
110 111 128 127
111 112 129 128
112 113 130 129
113 114 131 130
114 115 132 131
115 116 133 132
116 117 134 133
117 118 135 134
118 119 136 135
120 121 138 137
121 122 139 138
122 123 140 139
123 124 141 140
124 125 142 141
125 126 143 142
126 127 144 143
127 128 145 144
128 129 146 145
129 130 147 146
130 131 148 147
131 132 149 148
132 133 150 149
133 134 151 150
134 135 152 151
135 136 153 152
