TITLE = "Solution"
VARIABLES = x, y, u, v, psiu, psiv, t, stress
ZONE T="structure" N=153 E=128 F=FEBLOCK ET=QUADRILATERAL VARLOCATION=([7,8]=cellcentered)
0.000000e+00
1.250000e+01
2.500000e+01
3.750000e+01
5.000000e+01
6.250000e+01
7.500000e+01
8.750000e+01
1.000000e+02
1.125000e+02
1.250000e+02
1.375000e+02
1.500000e+02
1.625000e+02
1.750000e+02
1.875000e+02
2.000000e+02
0.000000e+00
1.250000e+01
2.500000e+01
3.750000e+01
5.000000e+01
6.250000e+01
7.500000e+01
8.750000e+01
1.000000e+02
1.125000e+02
1.250000e+02
1.375000e+02
1.500000e+02
1.625000e+02
1.750000e+02
1.875000e+02
2.000000e+02
0.000000e+00
1.250000e+01
2.500000e+01
3.750000e+01
5.000000e+01
6.250000e+01
7.500000e+01
8.750000e+01
1.000000e+02
1.125000e+02
1.250000e+02
1.375000e+02
1.500000e+02
1.625000e+02
1.750000e+02
1.875000e+02
2.000000e+02
0.000000e+00
1.250000e+01
2.500000e+01
3.750000e+01
5.000000e+01
6.250000e+01
7.500000e+01
8.750000e+01
1.000000e+02
1.125000e+02
1.250000e+02
1.375000e+02
1.500000e+02
1.625000e+02
1.750000e+02
1.875000e+02
2.000000e+02
0.000000e+00
1.250000e+01
2.500000e+01
3.750000e+01
5.000000e+01
6.250000e+01
7.500000e+01
8.750000e+01
1.000000e+02
1.125000e+02
1.250000e+02
1.375000e+02
1.500000e+02
1.625000e+02
1.750000e+02
1.875000e+02
2.000000e+02
0.000000e+00
1.250000e+01
2.500000e+01
3.750000e+01
5.000000e+01
6.250000e+01
7.500000e+01
8.750000e+01
1.000000e+02
1.125000e+02
1.250000e+02
1.375000e+02
1.500000e+02
1.625000e+02
1.750000e+02
1.875000e+02
2.000000e+02
0.000000e+00
1.250000e+01
2.500000e+01
3.750000e+01
5.000000e+01
6.250000e+01
7.500000e+01
8.750000e+01
1.000000e+02
1.125000e+02
1.250000e+02
1.375000e+02
1.500000e+02
1.625000e+02
1.750000e+02
1.875000e+02
2.000000e+02
0.000000e+00
1.250000e+01
2.500000e+01
3.750000e+01
5.000000e+01
6.250000e+01
7.500000e+01
8.750000e+01
1.000000e+02
1.125000e+02
1.250000e+02
1.375000e+02
1.500000e+02
1.625000e+02
1.750000e+02
1.875000e+02
2.000000e+02
0.000000e+00
1.250000e+01
2.500000e+01
3.750000e+01
5.000000e+01
6.250000e+01
7.500000e+01
8.750000e+01
1.000000e+02
1.125000e+02
1.250000e+02
1.375000e+02
1.500000e+02
1.625000e+02
1.750000e+02
1.875000e+02
2.000000e+02
0.000000e+00
0.000000e+00
0.000000e+00
0.000000e+00
0.000000e+00
0.000000e+00
0.000000e+00
0.000000e+00
0.000000e+00
0.000000e+00
0.000000e+00
0.000000e+00
0.000000e+00
0.000000e+00
0.000000e+00
0.000000e+00
0.000000e+00
1.250000e+01
1.250000e+01
1.250000e+01
1.250000e+01
1.250000e+01
1.250000e+01
1.250000e+01
1.250000e+01
1.250000e+01
1.250000e+01
1.250000e+01
1.250000e+01
1.250000e+01
1.250000e+01
1.250000e+01
1.250000e+01
1.250000e+01
2.500000e+01
2.500000e+01
2.500000e+01
2.500000e+01
2.500000e+01
2.500000e+01
2.500000e+01
2.500000e+01
2.500000e+01
2.500000e+01
2.500000e+01
2.500000e+01
2.500000e+01
2.500000e+01
2.500000e+01
2.500000e+01
2.500000e+01
3.750000e+01
3.750000e+01
3.750000e+01
3.750000e+01
3.750000e+01
3.750000e+01
3.750000e+01
3.750000e+01
3.750000e+01
3.750000e+01
3.750000e+01
3.750000e+01
3.750000e+01
3.750000e+01
3.750000e+01
3.750000e+01
3.750000e+01
5.000000e+01
5.000000e+01
5.000000e+01
5.000000e+01
5.000000e+01
5.000000e+01
5.000000e+01
5.000000e+01
5.000000e+01
5.000000e+01
5.000000e+01
5.000000e+01
5.000000e+01
5.000000e+01
5.000000e+01
5.000000e+01
5.000000e+01
6.250000e+01
6.250000e+01
6.250000e+01
6.250000e+01
6.250000e+01
6.250000e+01
6.250000e+01
6.250000e+01
6.250000e+01
6.250000e+01
6.250000e+01
6.250000e+01
6.250000e+01
6.250000e+01
6.250000e+01
6.250000e+01
6.250000e+01
7.500000e+01
7.500000e+01
7.500000e+01
7.500000e+01
7.500000e+01
7.500000e+01
7.500000e+01
7.500000e+01
7.500000e+01
7.500000e+01
7.500000e+01
7.500000e+01
7.500000e+01
7.500000e+01
7.500000e+01
7.500000e+01
7.500000e+01
8.750000e+01
8.750000e+01
8.750000e+01
8.750000e+01
8.750000e+01
8.750000e+01
8.750000e+01
8.750000e+01
8.750000e+01
8.750000e+01
8.750000e+01
8.750000e+01
8.750000e+01
8.750000e+01
8.750000e+01
8.750000e+01
8.750000e+01
1.000000e+02
1.000000e+02
1.000000e+02
1.000000e+02
1.000000e+02
1.000000e+02
1.000000e+02
1.000000e+02
1.000000e+02
1.000000e+02
1.000000e+02
1.000000e+02
1.000000e+02
1.000000e+02
1.000000e+02
1.000000e+02
1.000000e+02
0.000000e+00
-7.031832e-02
-1.294783e-01
-1.839132e-01
-2.346073e-01
-2.814536e-01
-3.243517e-01
-3.632683e-01
-3.982599e-01
-4.294879e-01
-4.572617e-01
-4.821242e-01
-5.050092e-01
-5.275300e-01
-5.524689e-01
-5.830969e-01
-6.060799e-01
0.000000e+00
-4.199286e-02
-8.723198e-02
-1.290074e-01
-1.674955e-01
-2.028424e-01
-2.351216e-01
-2.643762e-01
-2.906590e-01
-3.140510e-01
-3.346709e-01
-3.526673e-01
-3.681551e-01
-3.809748e-01
-3.900172e-01
-3.919992e-01
-3.991049e-01
0.000000e+00
-2.626113e-02
-5.399945e-02
-8.167254e-02
-1.075045e-01
-1.312219e-01
-1.528054e-01
-1.722794e-01
-1.896489e-01
-2.048847e-01
-2.179050e-01
-2.285277e-01
-2.363743e-01
-2.407545e-01
-2.408761e-01
-2.391263e-01
-2.463736e-01
0.000000e+00
-1.267525e-02
-2.609369e-02
-3.959688e-02
-5.250837e-02
-6.440065e-02
-7.517983e-02
-8.481452e-02
-9.324957e-02
-1.003752e-01
-1.060093e-01
-1.098860e-01
-1.116879e-01
-1.112670e-01
-1.095374e-01
-1.100104e-01
-1.154068e-01
0.000000e+00
-1.167633e-05
-2.654397e-05
-4.136279e-05
-4.922743e-05
-3.473926e-05
3.266608e-05
2.078325e-04
5.807390e-04
1.285414e-03
2.496717e-03
4.390309e-03
7.013654e-03
9.978166e-03
1.202596e-02
1.146432e-02
7.891430e-03
0.000000e+00
1.265728e-02
2.605198e-02
3.953016e-02
5.242538e-02
6.433315e-02
7.520601e-02
8.509714e-02
9.409231e-02
1.022958e-01
1.098149e-01
1.167052e-01
1.228471e-01
1.277722e-01
1.306693e-01
1.308991e-01
1.290857e-01
0.000000e+00
2.625819e-02
5.399047e-02
8.165466e-02
1.074766e-01
1.311871e-01
1.527765e-01
1.722888e-01
1.897643e-01
2.052341e-01
2.187117e-01
2.301642e-01
2.394598e-01
2.463323e-01
2.504574e-01
2.517968e-01
2.513739e-01
0.000000e+00
4.201008e-02
8.726944e-02
1.290672e-01
1.675756e-01
2.029281e-01
2.351697e-01
2.642882e-01
2.902395e-01
3.129485e-01
3.323074e-01
3.481826e-01
3.604469e-01
3.690598e-01
3.741976e-01
3.763885e-01
3.767910e-01
0.000000e+00
7.034713e-02
1.295543e-01
1.840555e-01
2.348347e-01
2.817735e-01
3.247332e-01
3.635891e-01
3.982111e-01
4.284194e-01
4.539519e-01
4.744683e-01
4.896316e-01
4.993226e-01
5.040093e-01
5.051661e-01
5.051438e-01
0.000000e+00
-4.256562e-02
-8.356126e-02
-1.366821e-01
-2.018769e-01
-2.790237e-01
-3.672776e-01
-4.656510e-01
-5.730978e-01
-6.885859e-01
-8.111617e-01
-9.400664e-01
-1.074989e+00
-1.216651e+00
-1.368725e+00
-1.542727e+00
-1.792736e+00
0.000000e+00
-2.620418e-02
-6.896936e-02
-1.227489e-01
-1.890092e-01
-2.672088e-01
-3.565319e-01
-4.559667e-01
-5.644549e-01
-6.809457e-01
-8.044594e-01
-9.342022e-01
-1.069815e+00
-1.212000e+00
-1.364015e+00
-1.536961e+00
-1.748838e+00
0.000000e+00
-1.977338e-02
-5.885352e-02
-1.128315e-01
-1.797183e-01
-2.587228e-01
-3.488670e-01
-4.491291e-01
-5.584582e-01
-6.758185e-01
-8.002490e-01
-9.309834e-01
-1.067697e+00
-1.210975e+00
-1.363121e+00
-1.526993e+00
-1.685587e+00
0.000000e+00
-1.703929e-02
-5.382398e-02
-1.070103e-01
-1.741389e-01
-2.536297e-01
-3.443359e-01
-4.451969e-01
-5.551816e-01
-6.732821e-01
-7.985584e-01
-9.302291e-01
-1.067815e+00
-1.211252e+00
-1.360354e+00
-1.510929e+00
-1.649644e+00
0.000000e+00
-1.625165e-02
-5.230181e-02
-1.051533e-01
-1.723002e-01
-2.519888e-01
-3.429558e-01
-4.441415e-01
-5.545344e-01
-6.731431e-01
-7.990066e-01
-9.312200e-01
-1.068929e+00
-1.211117e+00
-1.355656e+00
-1.497604e+00
-1.628373e+00
0.000000e+00
-1.702917e-02
-5.381678e-02
-1.070231e-01
-1.742018e-01
-2.537955e-01
-3.446905e-01
-4.458684e-01
-5.563393e-01
-6.751069e-01
-8.011480e-01
-9.333675e-01
-1.070487e+00
-1.210760e+00
-1.351494e+00
-1.488574e+00
-1.616552e+00
0.000000e+00
-1.975688e-02
-5.884160e-02
-1.128529e-01
-1.798243e-01
-2.590033e-01
-3.494681e-01
-4.502693e-01
-5.604267e-01
-6.789270e-01
-8.046779e-01
-9.364161e-01
-1.072555e+00
-1.210990e+00
-1.348995e+00
-1.483445e+00
-1.611338e+00
0.000000e+00
-2.618871e-02
-6.895897e-02
-1.227773e-01
-1.891365e-01
-2.675386e-01
-3.572317e-01
-4.572846e-01
-5.667162e-01
-6.844945e-01
-8.094827e-01
-9.403272e-01
-1.075306e+00
-1.212200e+00
-1.348370e+00
-1.481324e+00
-1.610114e+00
0.000000e+00
-4.255923e-02
-8.356216e-02
-1.367260e-01
-2.020244e-01
-2.793761e-01
-3.679936e-01
-4.669574e-01
-5.752759e-01
-6.918990e-01
-8.156624e-01
-9.451829e-01
-1.078726e+00
-1.214123e+00
-1.348901e+00
-1.480936e+00
-1.610133e+00


0.000000e+00
9.957086e-08
1.995066e-07
2.923205e-07
3.793671e-07
4.601547e-07
5.343440e-07
6.019134e-07
6.629982e-07
7.178540e-07
7.668437e-07
8.103714e-07
8.486734e-07
8.814481e-07
9.082734e-07
9.311960e-07
9.515915e-07
0.000000e+00
5.599253e-08
1.362535e-07
2.084273e-07
2.746079e-07
3.356172e-07
3.913994e-07
4.419542e-07
4.873215e-07
5.275332e-07
5.625767e-07
5.923483e-07
6.166966e-07
6.361224e-07
6.538658e-07
6.749244e-07
6.965980e-07
0.000000e+00
3.527645e-08
8.610189e-08
1.337928e-07
1.782556e-07
2.191534e-07
2.563244e-07
2.897237e-07
3.192998e-07
3.449526e-07
3.665352e-07
3.839426e-07
3.974473e-07
4.084353e-07
4.200247e-07
4.356829e-07
4.537743e-07
0.000000e+00
1.723157e-08
4.127536e-08
6.463157e-08
8.686473e-08
1.072918e-07
1.256916e-07
1.419797e-07
1.560603e-07
1.678105e-07
1.771282e-07
1.840685e-07
1.891000e-07
1.934084e-07
1.989592e-07
2.080856e-07
2.206457e-07
0.000000e+00
1.805812e-11
2.237250e-11
-9.484800e-12
-1.081624e-10
-3.225589e-10
-7.243718e-10
-1.409018e-09
-2.487211e-09
-4.057441e-09
-6.145615e-09
-8.604199e-09
-1.099409e-08
-1.251030e-08
-1.191291e-08
-7.617242e-09
6.338967e-10
0.000000e+00
-1.719782e-08
-4.123005e-08
-6.463325e-08
-8.702226e-08
-1.077959e-07
-1.268554e-07
-1.442816e-07
-1.601751e-07
-1.745983e-07
-1.875222e-07
-1.987706e-07
-2.079836e-07
-2.146235e-07
-2.180262e-07
-2.173775e-07
-2.128578e-07
0.000000e+00
-3.525520e-08
-8.607049e-08
-1.337741e-07
-1.782927e-07
-2.193280e-07
-2.567791e-07
-2.906870e-07
-3.211104e-07
-3.480675e-07
-3.714921e-07
-3.911984e-07
-4.068739e-07
-4.181510e-07
-4.248430e-07
-4.270716e-07
-4.257370e-07
0.000000e+00
-5.601384e-08
-1.362959e-07
-2.084657e-07
-2.746009e-07
-3.354941e-07
-3.910438e-07
-4.411866e-07
-4.858820e-07
-5.250726e-07
-5.586685e-07
-5.865365e-07
-6.085030e-07
-6.244217e-07
-6.344326e-07
-6.393546e-07
-6.405437e-07
0.000000e+00
-9.968858e-08
-1.997152e-07
-2.925784e-07
-3.795876e-07
-4.601567e-07
-5.337844e-07
-6.001994e-07
-6.591834e-07
-7.105372e-07
-7.541037e-07
-7.898126e-07
-8.177245e-07
-8.380684e-07
-8.513197e-07
-8.581699e-07
-8.603704e-07
0.000000e+00
9.013966e-08
1.758607e-07
2.720545e-07
3.867826e-07
5.212289e-07
6.745132e-07
8.452203e-07
1.031719e-06
1.232425e-06
1.445981e-06
1.671551e-06
1.909592e-06
2.163525e-06
2.439621e-06
2.732898e-06
3.023868e-06
0.000000e+00
5.453268e-08
1.378460e-07
2.347891e-07
3.517451e-07
4.888886e-07
6.450704e-07
8.186902e-07
1.008075e-06
1.211618e-06
1.427937e-06
1.656133e-06
1.896226e-06
2.149722e-06
2.419098e-06
2.704937e-06
2.992078e-06
0.000000e+00
3.474355e-08
1.073702e-07
2.042023e-07
3.228389e-07
4.623208e-07
6.210243e-07
7.972242e-07
9.892182e-07
1.195392e-06
1.414317e-06
1.644869e-06
1.886276e-06
2.137829e-06
2.399112e-06
2.674513e-06
2.952399e-06
0.000000e+00
2.549654e-08
9.133559e-08
1.863650e-07
3.057762e-07
4.467075e-07
6.070533e-07
7.849785e-07
9.787575e-07
1.186747e-06
1.407400e-06
1.639241e-06
1.880717e-06
2.129883e-06
2.385178e-06
2.649957e-06
2.914000e-06
0.000000e+00
2.283876e-08
8.647326e-08
1.806268e-07
3.002471e-07
4.417591e-07
6.028138e-07
7.815270e-07
9.761509e-07
1.184981e-06
1.406309e-06
1.638333e-06
1.878979e-06
2.125672e-06
2.375876e-06
2.631152e-06
2.881578e-06
0.000000e+00
2.551713e-08
9.141285e-08
1.865561e-07
3.061561e-07
4.473780e-07
6.081414e-07
7.866184e-07
9.810428e-07
1.189633e-06
1.410525e-06
1.641679e-06
1.880718e-06
2.124712e-06
2.370493e-06
2.617832e-06
2.858326e-06
0.000000e+00
3.477676e-08
1.075048e-07
2.045372e-07
3.235050e-07
4.634980e-07
6.229372e-07
8.001099e-07
9.932430e-07
1.200479e-06
1.419825e-06
1.649077e-06
1.885690e-06
2.126607e-06
2.368450e-06
2.609851e-06
2.844159e-06
0.000000e+00
5.457484e-08
1.380168e-07
2.352015e-07
3.525579e-07
4.903179e-07
6.473833e-07
8.221628e-07
1.012887e-06
1.217636e-06
1.434317e-06
1.660603e-06
1.893864e-06
2.131096e-06
2.369183e-06
2.606262e-06
2.837396e-06
0.000000e+00
9.020954e-08
1.760604e-07
2.724993e-07
3.876290e-07
5.226831e-07
6.768191e-07
8.486085e-07
1.036287e-06
1.237906e-06
1.451318e-06
1.674138e-06
1.903711e-06
2.137152e-06
2.371720e-06
2.605678e-06
2.835424e-06


2.054640e-01
2.054640e-01
2.054641e-01
2.054642e-01
2.054643e-01
2.054643e-01
2.054644e-01
2.054645e-01
2.054645e-01
2.054646e-01
2.054646e-01
2.054647e-01
2.054647e-01
2.054647e-01
2.054646e-01
2.054646e-01
2.054642e-01
2.054642e-01
2.054642e-01
2.054643e-01
2.054643e-01
2.054644e-01
2.054645e-01
2.054645e-01
2.054646e-01
2.054646e-01
2.054646e-01
2.054647e-01
2.054647e-01
2.054647e-01
2.054646e-01
2.054646e-01
2.054644e-01
2.054644e-01
2.054644e-01
2.054645e-01
2.054645e-01
2.054645e-01
2.054646e-01
2.054646e-01
2.054646e-01
2.054647e-01
2.054647e-01
2.054647e-01
2.054647e-01
2.054647e-01
2.054646e-01
2.054646e-01
2.054646e-01
2.054646e-01
2.054646e-01
2.054646e-01
2.054646e-01
2.054646e-01
2.054646e-01
2.054647e-01
2.054647e-01
2.054647e-01
2.054647e-01
2.054647e-01
2.054647e-01
2.054647e-01
2.054647e-01
2.054646e-01
2.054646e-01
2.054646e-01
2.054646e-01
2.054646e-01
2.054646e-01
2.054646e-01
2.054646e-01
2.054647e-01
2.054647e-01
2.054647e-01
2.054647e-01
2.054647e-01
2.054647e-01
2.054647e-01
2.054647e-01
2.054647e-01
2.054644e-01
2.054644e-01
2.054644e-01
2.054645e-01
2.054645e-01
2.054645e-01
2.054646e-01
2.054646e-01
2.054646e-01
2.054646e-01
2.054647e-01
2.054647e-01
2.054647e-01
2.054647e-01
2.054647e-01
2.054647e-01
2.054642e-01
2.054642e-01
2.054642e-01
2.054643e-01
2.054643e-01
2.054644e-01
2.054645e-01
2.054645e-01
2.054646e-01
2.054646e-01
2.054646e-01
2.054647e-01
2.054647e-01
2.054647e-01
2.054647e-01
2.054648e-01
2.054640e-01
2.054640e-01
2.054641e-01
2.054642e-01
2.054643e-01
2.054643e-01
2.054644e-01
2.054645e-01
2.054645e-01
2.054646e-01
2.054646e-01
2.054647e-01
2.054647e-01
2.054647e-01
2.054648e-01
2.054648e-01


9.888753e-01
9.904529e-01
9.919122e-01
9.930357e-01
9.940784e-01
9.950400e-01
9.959160e-01
9.966962e-01
9.973724e-01
9.979380e-01
9.983877e-01
9.987172e-01
9.989220e-01
9.989950e-01
9.990478e-01
9.957966e-01
9.957913e-01
9.950684e-01
9.955335e-01
9.961406e-01
9.967065e-01
9.972209e-01
9.976866e-01
9.981083e-01
9.984902e-01
9.988361e-01
9.991500e-01
9.994342e-01
9.996821e-01
9.998445e-01
9.994339e-01
9.938686e-01
9.985377e-01
9.981225e-01
9.980104e-01
9.981680e-01
9.983755e-01
9.985764e-01
9.987629e-01
9.989392e-01
9.991099e-01
9.992764e-01
9.994318e-01
9.995522e-01
9.995773e-01
9.993606e-01
9.985742e-01
9.971599e-01
9.997024e-01
9.993996e-01
9.992125e-01
9.991650e-01
9.991840e-01
9.992158e-01
9.992475e-01
9.992786e-01
9.993090e-01
9.993345e-01
9.993416e-01
9.993037e-01
9.991835e-01
9.989677e-01
9.987847e-01
9.987383e-01
9.997035e-01
9.994011e-01
9.992139e-01
9.991647e-01
9.991793e-01
9.992022e-01
9.992181e-01
9.992235e-01
9.992162e-01
9.991927e-01
9.991491e-01
9.990861e-01
9.990262e-01
9.990381e-01
9.992075e-01
9.995007e-01
9.985398e-01
9.981256e-01
9.980134e-01
9.981681e-01
9.983674e-01
9.985515e-01
9.987073e-01
9.988325e-01
9.989262e-01
9.989894e-01
9.990293e-01
9.990683e-01
9.991503e-01
9.993222e-01
9.995804e-01
9.998474e-01
9.957909e-01
9.950681e-01
9.955329e-01
9.961388e-01
9.967021e-01
9.972108e-01
9.976656e-01
9.980683e-01
9.984192e-01
9.987191e-01
9.989731e-01
9.991948e-01
9.994084e-01
9.996323e-01
9.998416e-01
9.999735e-01
9.888677e-01
9.904410e-01
9.918977e-01
9.930193e-01
9.940638e-01
9.950346e-01
9.959341e-01
9.967599e-01
9.975124e-01
9.981901e-01
9.987849e-01
9.992783e-01
9.996454e-01
9.998719e-01
9.999749e-01
9.999995e-01
1 2 19 18
2 3 20 19
3 4 21 20
4 5 22 21
5 6 23 22
6 7 24 23
7 8 25 24
8 9 26 25
9 10 27 26
10 11 28 27
11 12 29 28
12 13 30 29
13 14 31 30
14 15 32 31
15 16 33 32
16 17 34 33
18 19 36 35
19 20 37 36
20 21 38 37
21 22 39 38
22 23 40 39
23 24 41 40
24 25 42 41
25 26 43 42
26 27 44 43
27 28 45 44
28 29 46 45
29 30 47 46
30 31 48 47
31 32 49 48
32 33 50 49
33 34 51 50
35 36 53 52
36 37 54 53
37 38 55 54
38 39 56 55
39 40 57 56
40 41 58 57
41 42 59 58
42 43 60 59
43 44 61 60
44 45 62 61
45 46 63 62
46 47 64 63
47 48 65 64
48 49 66 65
49 50 67 66
50 51 68 67
52 53 70 69
53 54 71 70
54 55 72 71
55 56 73 72
56 57 74 73
57 58 75 74
58 59 76 75
59 60 77 76
60 61 78 77
61 62 79 78
62 63 80 79
63 64 81 80
64 65 82 81
65 66 83 82
66 67 84 83
67 68 85 84
69 70 87 86
70 71 88 87
71 72 89 88
72 73 90 89
73 74 91 90
74 75 92 91
75 76 93 92
76 77 94 93
77 78 95 94
78 79 96 95
79 80 97 96
80 81 98 97
81 82 99 98
82 83 100 99
83 84 101 100
84 85 102 101
86 87 104 103
87 88 105 104
88 89 106 105
89 90 107 106
90 91 108 107
91 92 109 108
92 93 110 109
93 94 111 110
94 95 112 111
95 96 113 112
96 97 114 113
97 98 115 114
98 99 116 115
99 100 117 116
100 101 118 117
101 102 119 118
103 104 121 120
104 105 122 121
105 106 123 122
106 107 124 123
107 108 125 124
108 109 126 125
109 110 127 126
110 111 128 127
111 112 129 128
112 113 130 129
113 114 131 130
114 115 132 131
115 116 133 132
116 117 134 133
117 118 135 134
118 119 136 135
120 121 138 137
121 122 139 138
122 123 140 139
123 124 141 140
124 125 142 141
125 126 143 142
126 127 144 143
127 128 145 144
128 129 146 145
129 130 147 146
130 131 148 147
131 132 149 148
132 133 150 149
133 134 151 150
134 135 152 151
135 136 153 152
