TITLE = "Solution"
VARIABLES = x, y, u, v, psiu, psiv, t, stress
ZONE T="structure" N=153 E=128 F=FEBLOCK ET=QUADRILATERAL VARLOCATION=([7,8]=cellcentered)
0.000000e+00
1.250000e+01
2.500000e+01
3.750000e+01
5.000000e+01
6.250000e+01
7.500000e+01
8.750000e+01
1.000000e+02
1.125000e+02
1.250000e+02
1.375000e+02
1.500000e+02
1.625000e+02
1.750000e+02
1.875000e+02
2.000000e+02
0.000000e+00
1.250000e+01
2.500000e+01
3.750000e+01
5.000000e+01
6.250000e+01
7.500000e+01
8.750000e+01
1.000000e+02
1.125000e+02
1.250000e+02
1.375000e+02
1.500000e+02
1.625000e+02
1.750000e+02
1.875000e+02
2.000000e+02
0.000000e+00
1.250000e+01
2.500000e+01
3.750000e+01
5.000000e+01
6.250000e+01
7.500000e+01
8.750000e+01
1.000000e+02
1.125000e+02
1.250000e+02
1.375000e+02
1.500000e+02
1.625000e+02
1.750000e+02
1.875000e+02
2.000000e+02
0.000000e+00
1.250000e+01
2.500000e+01
3.750000e+01
5.000000e+01
6.250000e+01
7.500000e+01
8.750000e+01
1.000000e+02
1.125000e+02
1.250000e+02
1.375000e+02
1.500000e+02
1.625000e+02
1.750000e+02
1.875000e+02
2.000000e+02
0.000000e+00
1.250000e+01
2.500000e+01
3.750000e+01
5.000000e+01
6.250000e+01
7.500000e+01
8.750000e+01
1.000000e+02
1.125000e+02
1.250000e+02
1.375000e+02
1.500000e+02
1.625000e+02
1.750000e+02
1.875000e+02
2.000000e+02
0.000000e+00
1.250000e+01
2.500000e+01
3.750000e+01
5.000000e+01
6.250000e+01
7.500000e+01
8.750000e+01
1.000000e+02
1.125000e+02
1.250000e+02
1.375000e+02
1.500000e+02
1.625000e+02
1.750000e+02
1.875000e+02
2.000000e+02
0.000000e+00
1.250000e+01
2.500000e+01
3.750000e+01
5.000000e+01
6.250000e+01
7.500000e+01
8.750000e+01
1.000000e+02
1.125000e+02
1.250000e+02
1.375000e+02
1.500000e+02
1.625000e+02
1.750000e+02
1.875000e+02
2.000000e+02
0.000000e+00
1.250000e+01
2.500000e+01
3.750000e+01
5.000000e+01
6.250000e+01
7.500000e+01
8.750000e+01
1.000000e+02
1.125000e+02
1.250000e+02
1.375000e+02
1.500000e+02
1.625000e+02
1.750000e+02
1.875000e+02
2.000000e+02
0.000000e+00
1.250000e+01
2.500000e+01
3.750000e+01
5.000000e+01
6.250000e+01
7.500000e+01
8.750000e+01
1.000000e+02
1.125000e+02
1.250000e+02
1.375000e+02
1.500000e+02
1.625000e+02
1.750000e+02
1.875000e+02
2.000000e+02
0.000000e+00
0.000000e+00
0.000000e+00
0.000000e+00
0.000000e+00
0.000000e+00
0.000000e+00
0.000000e+00
0.000000e+00
0.000000e+00
0.000000e+00
0.000000e+00
0.000000e+00
0.000000e+00
0.000000e+00
0.000000e+00
0.000000e+00
1.250000e+01
1.250000e+01
1.250000e+01
1.250000e+01
1.250000e+01
1.250000e+01
1.250000e+01
1.250000e+01
1.250000e+01
1.250000e+01
1.250000e+01
1.250000e+01
1.250000e+01
1.250000e+01
1.250000e+01
1.250000e+01
1.250000e+01
2.500000e+01
2.500000e+01
2.500000e+01
2.500000e+01
2.500000e+01
2.500000e+01
2.500000e+01
2.500000e+01
2.500000e+01
2.500000e+01
2.500000e+01
2.500000e+01
2.500000e+01
2.500000e+01
2.500000e+01
2.500000e+01
2.500000e+01
3.750000e+01
3.750000e+01
3.750000e+01
3.750000e+01
3.750000e+01
3.750000e+01
3.750000e+01
3.750000e+01
3.750000e+01
3.750000e+01
3.750000e+01
3.750000e+01
3.750000e+01
3.750000e+01
3.750000e+01
3.750000e+01
3.750000e+01
5.000000e+01
5.000000e+01
5.000000e+01
5.000000e+01
5.000000e+01
5.000000e+01
5.000000e+01
5.000000e+01
5.000000e+01
5.000000e+01
5.000000e+01
5.000000e+01
5.000000e+01
5.000000e+01
5.000000e+01
5.000000e+01
5.000000e+01
6.250000e+01
6.250000e+01
6.250000e+01
6.250000e+01
6.250000e+01
6.250000e+01
6.250000e+01
6.250000e+01
6.250000e+01
6.250000e+01
6.250000e+01
6.250000e+01
6.250000e+01
6.250000e+01
6.250000e+01
6.250000e+01
6.250000e+01
7.500000e+01
7.500000e+01
7.500000e+01
7.500000e+01
7.500000e+01
7.500000e+01
7.500000e+01
7.500000e+01
7.500000e+01
7.500000e+01
7.500000e+01
7.500000e+01
7.500000e+01
7.500000e+01
7.500000e+01
7.500000e+01
7.500000e+01
8.750000e+01
8.750000e+01
8.750000e+01
8.750000e+01
8.750000e+01
8.750000e+01
8.750000e+01
8.750000e+01
8.750000e+01
8.750000e+01
8.750000e+01
8.750000e+01
8.750000e+01
8.750000e+01
8.750000e+01
8.750000e+01
8.750000e+01
1.000000e+02
1.000000e+02
1.000000e+02
1.000000e+02
1.000000e+02
1.000000e+02
1.000000e+02
1.000000e+02
1.000000e+02
1.000000e+02
1.000000e+02
1.000000e+02
1.000000e+02
1.000000e+02
1.000000e+02
1.000000e+02
1.000000e+02
0.000000e+00
-9.221023e-01
-1.662928e+00
-2.361301e+00
-3.052150e+00
-3.715770e+00
-4.387506e+00
-5.063191e+00
-5.736520e+00
-6.409029e+00
-7.074961e+00
-7.729187e+00
-8.416686e+00
-9.206877e+00
-1.004742e+01
-1.077925e+01
-1.122800e+01
0.000000e+00
-4.441374e-01
-9.409143e-01
-1.444728e+00
-1.960030e+00
-2.458733e+00
-2.964440e+00
-3.473095e+00
-3.972693e+00
-4.472164e+00
-4.968100e+00
-5.452715e+00
-5.949844e+00
-6.472706e+00
-6.877051e+00
-6.980831e+00
-7.154008e+00
0.000000e+00
-1.847013e-01
-4.143750e-01
-7.206495e-01
-1.058104e+00
-1.393584e+00
-1.739190e+00
-2.085114e+00
-2.421487e+00
-2.758483e+00
-3.093803e+00
-3.414182e+00
-3.707850e+00
-3.940186e+00
-4.023345e+00
-4.013985e+00
-4.166014e+00
0.000000e+00
-6.562582e-02
-1.537762e-01
-2.856545e-01
-4.430219e-01
-6.086498e-01
-7.834442e-01
-9.575717e-01
-1.129875e+00
-1.303102e+00
-1.472208e+00
-1.616946e+00
-1.703670e+00
-1.702679e+00
-1.634732e+00
-1.624123e+00
-1.742655e+00
0.000000e+00
-2.689041e-03
-5.432971e-03
-8.331935e-03
-1.075767e-02
-1.225542e-02
-1.182336e-02
-8.255100e-03
5.791404e-04
1.749537e-02
4.518929e-02
9.485719e-02
1.793571e-01
2.992928e-01
4.208802e-01
4.564557e-01
3.592010e-01
0.000000e+00
6.131160e-02
1.447907e-01
2.717452e-01
4.245197e-01
5.866133e-01
7.612143e-01
9.412464e-01
1.127674e+00
1.330934e+00
1.556879e+00
1.795258e+00
2.023607e+00
2.222170e+00
2.358347e+00
2.392956e+00
2.329465e+00
0.000000e+00
1.829308e-01
4.097566e-01
7.134640e-01
1.049757e+00
1.382948e+00
1.730271e+00
2.082856e+00
2.433536e+00
2.795221e+00
3.158655e+00
3.515617e+00
3.851748e+00
4.119978e+00
4.289705e+00
4.344882e+00
4.324281e+00
0.000000e+00
4.455797e-01
9.410812e-01
1.444043e+00
1.960453e+00
2.456598e+00
2.960120e+00
3.466177e+00
3.960202e+00
4.452449e+00
4.925339e+00
5.366716e+00
5.783257e+00
6.120737e+00
6.332357e+00
6.424690e+00
6.441384e+00
0.000000e+00
9.256308e-01
1.666837e+00
2.366807e+00
3.061963e+00
3.724441e+00
4.393210e+00
5.058382e+00
5.707870e+00
6.343430e+00
6.945969e+00
7.509549e+00
8.029641e+00
8.422678e+00
8.623540e+00
8.677026e+00
8.677559e+00
0.000000e+00
-5.859058e-01
-1.282274e+00
-2.200980e+00
-3.294547e+00
-4.554167e+00
-5.987980e+00
-7.591407e+00
-9.367900e+00
-1.132462e+01
-1.345662e+01
-1.576039e+01
-1.825312e+01
-2.095469e+01
-2.387957e+01
-2.724243e+01
-3.222411e+01
0.000000e+00
-3.809440e-01
-1.108452e+00
-2.021861e+00
-3.119220e+00
-4.379789e+00
-5.811641e+00
-7.416298e+00
-9.192923e+00
-1.115055e+01
-1.328690e+01
-1.559113e+01
-1.807231e+01
-2.077467e+01
-2.375080e+01
-2.714433e+01
-3.123096e+01
0.000000e+00
-3.424471e-01
-1.006710e+00
-1.908537e+00
-3.000802e+00
-4.256339e+00
-5.688685e+00
-7.295936e+00
-9.073030e+00
-1.103196e+01
-1.317566e+01
-1.548908e+01
-1.798065e+01
-2.071825e+01
-2.373979e+01
-2.697283e+01
-3.000376e+01
0.000000e+00
-3.811405e-01
-9.957560e-01
-1.864410e+00
-2.941148e+00
-4.188976e+00
-5.622547e+00
-7.232293e+00
-9.011361e+00
-1.097473e+01
-1.313061e+01
-1.546827e+01
-1.798158e+01
-2.071670e+01
-2.367528e+01
-2.665620e+01
-2.926982e+01
0.000000e+00
-4.025123e-01
-1.003455e+00
-1.859722e+00
-2.926258e+00
-4.174752e+00
-5.610023e+00
-7.225474e+00
-9.008333e+00
-1.098175e+01
-1.314874e+01
-1.550221e+01
-1.801843e+01
-2.070353e+01
-2.353040e+01
-2.630925e+01
-2.868173e+01
0.000000e+00
-3.808759e-01
-9.961566e-01
-1.867074e+00
-2.949813e+00
-4.203771e+00
-5.646709e+00
-7.269359e+00
-9.061764e+00
-1.104463e+01
-1.321370e+01
-1.555684e+01
-1.805637e+01
-2.068768e+01
-2.339022e+01
-2.600242e+01
-2.825088e+01
0.000000e+00
-3.420721e-01
-1.007702e+00
-1.913259e+00
-3.014419e+00
-4.280731e+00
-5.729362e+00
-7.357413e+00
-9.157725e+00
-1.114403e+01
-1.330646e+01
-1.562715e+01
-1.810461e+01
-2.069107e+01
-2.330279e+01
-2.579908e+01
-2.802631e+01
0.000000e+00
-3.806062e-01
-1.109681e+00
-2.027417e+00
-3.134019e+00
-4.407499e+00
-5.858128e+00
-7.487147e+00
-9.289782e+00
-1.127341e+01
-1.342442e+01
-1.572721e+01
-1.818371e+01
-2.073651e+01
-2.328187e+01
-2.571078e+01
-2.796885e+01
0.000000e+00
-5.859887e-01
-1.283563e+00
-2.207320e+00
-3.309799e+00
-4.581970e+00
-6.034513e+00
-7.660901e+00
-9.461579e+00
-1.143901e+01
-1.357756e+01
-1.586940e+01
-1.830515e+01
-2.081653e+01
-2.330699e+01
-2.569515e+01
-2.796808e+01


0.000000e+00
1.405642e-05
2.739533e-05
3.954923e-05
5.472915e-05
7.063394e-05
8.437596e-05
9.961502e-05
1.164359e-04
1.322092e-04
1.477387e-04
1.641799e-04
1.816409e-04
1.953511e-04
2.031517e-04
2.091714e-04
2.169935e-04
0.000000e+00
1.026061e-05
2.153781e-05
3.046131e-05
4.244189e-05
5.515148e-05
6.534160e-05
7.635129e-05
8.898042e-05
9.999071e-05
1.098687e-04
1.210584e-04
1.325186e-04
1.397625e-04
1.414826e-04
1.461174e-04
1.527825e-04
0.000000e+00
8.333973e-06
1.591019e-05
2.190641e-05
3.025003e-05
3.884255e-05
4.554754e-05
5.256215e-05
6.013981e-05
6.631853e-05
7.162770e-05
7.710294e-05
8.148292e-05
8.290324e-05
8.324509e-05
8.621023e-05
9.085171e-05
0.000000e+00
4.004136e-06
7.555347e-06
1.100819e-05
1.524271e-05
1.932506e-05
2.260392e-05
2.604636e-05
2.863798e-05
3.047683e-05
3.176657e-05
3.168318e-05
3.074232e-05
2.972421e-05
3.015766e-05
3.281312e-05
3.767552e-05
0.000000e+00
-4.486385e-08
-9.010763e-08
-2.349476e-07
-4.149855e-07
-6.735710e-07
-1.008516e-06
-1.479040e-06
-2.210428e-06
-3.419775e-06
-5.489301e-06
-8.234624e-06
-1.090411e-05
-1.281876e-05
-1.305243e-05
-1.113207e-05
-7.491320e-06
0.000000e+00
-3.982468e-06
-7.788950e-06
-1.135842e-05
-1.597112e-05
-2.045006e-05
-2.423317e-05
-2.829843e-05
-3.147512e-05
-3.445816e-05
-3.808726e-05
-4.236431e-05
-4.633968e-05
-4.898947e-05
-5.039797e-05
-5.056335e-05
-4.896270e-05
0.000000e+00
-8.235123e-06
-1.594412e-05
-2.210778e-05
-3.055858e-05
-3.941743e-05
-4.654365e-05
-5.377264e-05
-6.109813e-05
-6.696081e-05
-7.246948e-05
-7.820999e-05
-8.339457e-05
-8.718062e-05
-8.959027e-05
-9.093107e-05
-9.110385e-05
0.000000e+00
-1.011440e-05
-2.147813e-05
-3.042721e-05
-4.231088e-05
-5.502754e-05
-6.541437e-05
-7.645381e-05
-8.875590e-05
-9.966719e-05
-1.094192e-04
-1.185622e-04
-1.264341e-04
-1.319199e-04
-1.349834e-04
-1.361981e-04
-1.364254e-04
0.000000e+00
-1.397399e-05
-2.740807e-05
-3.938832e-05
-5.432964e-05
-6.992495e-05
-8.337027e-05
-9.822645e-05
-1.145578e-04
-1.306420e-04
-1.465357e-04
-1.614135e-04
-1.736791e-04
-1.811104e-04
-1.838930e-04
-1.842642e-04
-1.841621e-04
0.000000e+00
1.250361e-05
2.194596e-05
3.399582e-05
5.097111e-05
7.002351e-05
9.171157e-05
1.189905e-04
1.504336e-04
1.853177e-04
2.261858e-04
2.737866e-04
3.267621e-04
3.834472e-04
4.484874e-04
5.217854e-04
5.972273e-04
0.000000e+00
6.851552e-06
1.692133e-05
2.829980e-05
4.397186e-05
6.349489e-05
8.568807e-05
1.120670e-04
1.433975e-04
1.789748e-04
2.197946e-04
2.669128e-04
3.205039e-04
3.795019e-04
4.431429e-04
5.131318e-04
5.855979e-04
0.000000e+00
3.151952e-06
1.246378e-05
2.359509e-05
3.859558e-05
5.836383e-05
8.119082e-05
1.073826e-04
1.384401e-04
1.744661e-04
2.153499e-04
2.624669e-04
3.167744e-04
3.777859e-04
4.393336e-04
5.055681e-04
5.748727e-04
0.000000e+00
1.855254e-06
1.010038e-05
2.136966e-05
3.638049e-05
5.620165e-05
7.934194e-05
1.058420e-04
1.367451e-04
1.723657e-04
2.134967e-04
2.611975e-04
3.159879e-04
3.763259e-04
4.367509e-04
4.984501e-04
5.615938e-04
0.000000e+00
1.639154e-06
9.313316e-06
2.069625e-05
3.587983e-05
5.555638e-05
7.878852e-05
1.055396e-04
1.363216e-04
1.715692e-04
2.128960e-04
2.615255e-04
3.163740e-04
3.761421e-04
4.347924e-04
4.916599e-04
5.471823e-04
0.000000e+00
1.890475e-06
1.022326e-05
2.154833e-05
3.654236e-05
5.624695e-05
7.928734e-05
1.057647e-04
1.364664e-04
1.720007e-04
2.138724e-04
2.631207e-04
3.181634e-04
3.765860e-04
4.344466e-04
4.880833e-04
5.368753e-04
0.000000e+00
3.214270e-06
1.264669e-05
2.389618e-05
3.888821e-05
5.846963e-05
8.112276e-05
1.071488e-04
1.378712e-04
1.739405e-04
2.164324e-04
2.660380e-04
3.210875e-04
3.782274e-04
4.340871e-04
4.858280e-04
5.328535e-04
0.000000e+00
6.907491e-06
1.715731e-05
2.865368e-05
4.431341e-05
6.372590e-05
8.568395e-05
1.117188e-04
1.425718e-04
1.783173e-04
2.207011e-04
2.701234e-04
3.246291e-04
3.802169e-04
4.340541e-04
4.846299e-04
5.324481e-04
0.000000e+00
1.256272e-05
2.222062e-05
3.431834e-05
5.131050e-05
7.031477e-05
9.179769e-05
1.186432e-04
1.496727e-04
1.848975e-04
2.267776e-04
2.753089e-04
3.282556e-04
3.819162e-04
4.342773e-04
4.843548e-04
5.325547e-04


3.309455e+00
3.047321e+00
2.898572e+00
2.943474e+00
2.837485e+00
3.090800e+00
3.344311e+00
3.638411e+00
4.110862e+00
4.691562e+00
5.369707e+00
6.564356e+00
8.155955e+00
8.652240e+00
7.304766e+00
5.562563e+00
6.083290e+00
5.534442e+00
5.467125e+00
5.260656e+00
5.051321e+00
5.148461e+00
5.251693e+00
5.383390e+00
5.788812e+00
6.326056e+00
6.917076e+00
7.776980e+00
8.661067e+00
8.406818e+00
6.355255e+00
4.637407e+00
8.779148e+00
8.595745e+00
8.412074e+00
8.266381e+00
8.002421e+00
7.966663e+00
7.908285e+00
7.870347e+00
7.998194e+00
8.284589e+00
8.601693e+00
8.898179e+00
9.119735e+00
8.139497e+00
6.252693e+00
4.831006e+00
9.876383e+00
9.747833e+00
9.699160e+00
9.504122e+00
9.338939e+00
9.222218e+00
9.104137e+00
8.999888e+00
8.973261e+00
8.997006e+00
8.861737e+00
8.468880e+00
8.145170e+00
7.730674e+00
7.043316e+00
6.975825e+00
9.870207e+00
9.741026e+00
9.696832e+00
9.513122e+00
9.353873e+00
9.233735e+00
9.121939e+00
9.007538e+00
8.982376e+00
8.826114e+00
8.214986e+00
7.275491e+00
6.945935e+00
7.411237e+00
8.256602e+00
8.785484e+00
8.772949e+00
8.586718e+00
8.411693e+00
8.280645e+00
8.000697e+00
7.956825e+00
7.872028e+00
7.793487e+00
7.761560e+00
7.611670e+00
7.316406e+00
7.056729e+00
7.405691e+00
8.442925e+00
9.306859e+00
9.808778e+00
6.090793e+00
5.530799e+00
5.466967e+00
5.264493e+00
5.013873e+00
5.088891e+00
5.171241e+00
5.252426e+00
5.552371e+00
5.992756e+00
6.767427e+00
7.925625e+00
8.904198e+00
9.587524e+00
9.943967e+00
9.977744e+00
3.319687e+00
3.043850e+00
2.897162e+00
2.945045e+00
2.797925e+00
3.060817e+00
3.338233e+00
3.748302e+00
4.460352e+00
5.505979e+00
7.160646e+00
8.801373e+00
9.722447e+00
9.966951e+00
9.970520e+00
9.968551e+00


-6.461197e-01
-3.572285e-01
-2.699522e-01
-2.767595e-01
-1.886242e-01
-2.198671e-01
-2.348265e-01
-2.129743e-01
-2.130116e-01
-1.933444e-01
-1.481501e-01
-2.406364e-01
-5.020851e-01
-3.226558e-01
3.814586e-01
-7.854167e-01
5.897331e-01
4.150108e-01
3.131202e-01
2.511096e-01
2.799182e-01
2.442562e-01
2.293963e-01
2.485123e-01
2.301902e-01
2.188120e-01
2.514942e-01
2.816033e-01
3.495725e-01
6.579953e-01
7.157494e-01
-1.183660e+00
8.042868e-01
6.018138e-01
3.940743e-01
3.095090e-01
3.146543e-01
2.786891e-01
2.721776e-01
2.795176e-01
2.449274e-01
2.079627e-01
2.331495e-01
3.203866e-01
3.696893e-01
2.875620e-01
8.145141e-02
-2.123367e-01
7.947672e-01
6.022237e-01
3.322650e-01
1.842087e-01
1.439234e-01
1.038985e-01
1.011251e-01
1.286478e-01
1.262615e-01
1.300613e-01
1.634367e-01
2.000797e-01
7.656411e-02
-2.082424e-01
-2.244764e-01
8.391167e-03
7.965419e-01
6.054825e-01
3.370063e-01
1.860850e-01
1.437933e-01
9.513642e-02
8.033874e-02
9.436545e-02
6.325220e-02
5.415418e-02
7.118722e-02
7.827658e-02
-1.181976e-02
-1.570467e-01
-6.351736e-02
3.428426e-01
8.082886e-01
6.091848e-01
4.035450e-01
3.150058e-01
3.209354e-01
2.717907e-01
2.481158e-01
2.365134e-01
1.600358e-01
7.468818e-02
-1.326082e-03
-5.759006e-02
-4.087221e-02
6.077368e-02
3.397003e-01
7.379515e-01
5.914773e-01
4.222290e-01
3.187503e-01
2.493509e-01
2.823491e-01
2.320652e-01
1.971798e-01
1.900335e-01
1.241853e-01
8.595425e-02
5.997641e-02
5.670086e-03
1.277602e-01
4.002622e-01
7.210304e-01
9.502471e-01
-6.565039e-01
-3.551366e-01
-2.717073e-01
-2.883366e-01
-1.825879e-01
-2.125787e-01
-2.148896e-01
-1.670134e-01
-1.477900e-01
-6.111724e-02
5.069857e-02
1.439484e-01
4.369456e-01
7.786754e-01
9.534869e-01
9.987992e-01
1 2 19 18
2 3 20 19
3 4 21 20
4 5 22 21
5 6 23 22
6 7 24 23
7 8 25 24
8 9 26 25
9 10 27 26
10 11 28 27
11 12 29 28
12 13 30 29
13 14 31 30
14 15 32 31
15 16 33 32
16 17 34 33
18 19 36 35
19 20 37 36
20 21 38 37
21 22 39 38
22 23 40 39
23 24 41 40
24 25 42 41
25 26 43 42
26 27 44 43
27 28 45 44
28 29 46 45
29 30 47 46
30 31 48 47
31 32 49 48
32 33 50 49
33 34 51 50
35 36 53 52
36 37 54 53
37 38 55 54
38 39 56 55
39 40 57 56
40 41 58 57
41 42 59 58
42 43 60 59
43 44 61 60
44 45 62 61
45 46 63 62
46 47 64 63
47 48 65 64
48 49 66 65
49 50 67 66
50 51 68 67
52 53 70 69
53 54 71 70
54 55 72 71
55 56 73 72
56 57 74 73
57 58 75 74
58 59 76 75
59 60 77 76
60 61 78 77
61 62 79 78
62 63 80 79
63 64 81 80
64 65 82 81
65 66 83 82
66 67 84 83
67 68 85 84
69 70 87 86
70 71 88 87
71 72 89 88
72 73 90 89
73 74 91 90
74 75 92 91
75 76 93 92
76 77 94 93
77 78 95 94
78 79 96 95
79 80 97 96
80 81 98 97
81 82 99 98
82 83 100 99
83 84 101 100
84 85 102 101
86 87 104 103
87 88 105 104
88 89 106 105
89 90 107 106
90 91 108 107
91 92 109 108
92 93 110 109
93 94 111 110
94 95 112 111
95 96 113 112
96 97 114 113
97 98 115 114
98 99 116 115
99 100 117 116
100 101 118 117
101 102 119 118
103 104 121 120
104 105 122 121
105 106 123 122
106 107 124 123
107 108 125 124
108 109 126 125
109 110 127 126
110 111 128 127
111 112 129 128
112 113 130 129
113 114 131 130
114 115 132 131
115 116 133 132
116 117 134 133
117 118 135 134
118 119 136 135
120 121 138 137
121 122 139 138
122 123 140 139
123 124 141 140
124 125 142 141
125 126 143 142
126 127 144 143
127 128 145 144
128 129 146 145
129 130 147 146
130 131 148 147
131 132 149 148
132 133 150 149
133 134 151 150
134 135 152 151
135 136 153 152
