TITLE = "Solution"
VARIABLES = x, y, u, v, psiu, psiv, t, stress
ZONE T="structure" N=153 E=128 F=FEBLOCK ET=QUADRILATERAL VARLOCATION=([7,8]=cellcentered)
0.000000e+00
1.250000e+01
2.500000e+01
3.750000e+01
5.000000e+01
6.250000e+01
7.500000e+01
8.750000e+01
1.000000e+02
1.125000e+02
1.250000e+02
1.375000e+02
1.500000e+02
1.625000e+02
1.750000e+02
1.875000e+02
2.000000e+02
0.000000e+00
1.250000e+01
2.500000e+01
3.750000e+01
5.000000e+01
6.250000e+01
7.500000e+01
8.750000e+01
1.000000e+02
1.125000e+02
1.250000e+02
1.375000e+02
1.500000e+02
1.625000e+02
1.750000e+02
1.875000e+02
2.000000e+02
0.000000e+00
1.250000e+01
2.500000e+01
3.750000e+01
5.000000e+01
6.250000e+01
7.500000e+01
8.750000e+01
1.000000e+02
1.125000e+02
1.250000e+02
1.375000e+02
1.500000e+02
1.625000e+02
1.750000e+02
1.875000e+02
2.000000e+02
0.000000e+00
1.250000e+01
2.500000e+01
3.750000e+01
5.000000e+01
6.250000e+01
7.500000e+01
8.750000e+01
1.000000e+02
1.125000e+02
1.250000e+02
1.375000e+02
1.500000e+02
1.625000e+02
1.750000e+02
1.875000e+02
2.000000e+02
0.000000e+00
1.250000e+01
2.500000e+01
3.750000e+01
5.000000e+01
6.250000e+01
7.500000e+01
8.750000e+01
1.000000e+02
1.125000e+02
1.250000e+02
1.375000e+02
1.500000e+02
1.625000e+02
1.750000e+02
1.875000e+02
2.000000e+02
0.000000e+00
1.250000e+01
2.500000e+01
3.750000e+01
5.000000e+01
6.250000e+01
7.500000e+01
8.750000e+01
1.000000e+02
1.125000e+02
1.250000e+02
1.375000e+02
1.500000e+02
1.625000e+02
1.750000e+02
1.875000e+02
2.000000e+02
0.000000e+00
1.250000e+01
2.500000e+01
3.750000e+01
5.000000e+01
6.250000e+01
7.500000e+01
8.750000e+01
1.000000e+02
1.125000e+02
1.250000e+02
1.375000e+02
1.500000e+02
1.625000e+02
1.750000e+02
1.875000e+02
2.000000e+02
0.000000e+00
1.250000e+01
2.500000e+01
3.750000e+01
5.000000e+01
6.250000e+01
7.500000e+01
8.750000e+01
1.000000e+02
1.125000e+02
1.250000e+02
1.375000e+02
1.500000e+02
1.625000e+02
1.750000e+02
1.875000e+02
2.000000e+02
0.000000e+00
1.250000e+01
2.500000e+01
3.750000e+01
5.000000e+01
6.250000e+01
7.500000e+01
8.750000e+01
1.000000e+02
1.125000e+02
1.250000e+02
1.375000e+02
1.500000e+02
1.625000e+02
1.750000e+02
1.875000e+02
2.000000e+02
0.000000e+00
0.000000e+00
0.000000e+00
0.000000e+00
0.000000e+00
0.000000e+00
0.000000e+00
0.000000e+00
0.000000e+00
0.000000e+00
0.000000e+00
0.000000e+00
0.000000e+00
0.000000e+00
0.000000e+00
0.000000e+00
0.000000e+00
1.250000e+01
1.250000e+01
1.250000e+01
1.250000e+01
1.250000e+01
1.250000e+01
1.250000e+01
1.250000e+01
1.250000e+01
1.250000e+01
1.250000e+01
1.250000e+01
1.250000e+01
1.250000e+01
1.250000e+01
1.250000e+01
1.250000e+01
2.500000e+01
2.500000e+01
2.500000e+01
2.500000e+01
2.500000e+01
2.500000e+01
2.500000e+01
2.500000e+01
2.500000e+01
2.500000e+01
2.500000e+01
2.500000e+01
2.500000e+01
2.500000e+01
2.500000e+01
2.500000e+01
2.500000e+01
3.750000e+01
3.750000e+01
3.750000e+01
3.750000e+01
3.750000e+01
3.750000e+01
3.750000e+01
3.750000e+01
3.750000e+01
3.750000e+01
3.750000e+01
3.750000e+01
3.750000e+01
3.750000e+01
3.750000e+01
3.750000e+01
3.750000e+01
5.000000e+01
5.000000e+01
5.000000e+01
5.000000e+01
5.000000e+01
5.000000e+01
5.000000e+01
5.000000e+01
5.000000e+01
5.000000e+01
5.000000e+01
5.000000e+01
5.000000e+01
5.000000e+01
5.000000e+01
5.000000e+01
5.000000e+01
6.250000e+01
6.250000e+01
6.250000e+01
6.250000e+01
6.250000e+01
6.250000e+01
6.250000e+01
6.250000e+01
6.250000e+01
6.250000e+01
6.250000e+01
6.250000e+01
6.250000e+01
6.250000e+01
6.250000e+01
6.250000e+01
6.250000e+01
7.500000e+01
7.500000e+01
7.500000e+01
7.500000e+01
7.500000e+01
7.500000e+01
7.500000e+01
7.500000e+01
7.500000e+01
7.500000e+01
7.500000e+01
7.500000e+01
7.500000e+01
7.500000e+01
7.500000e+01
7.500000e+01
7.500000e+01
8.750000e+01
8.750000e+01
8.750000e+01
8.750000e+01
8.750000e+01
8.750000e+01
8.750000e+01
8.750000e+01
8.750000e+01
8.750000e+01
8.750000e+01
8.750000e+01
8.750000e+01
8.750000e+01
8.750000e+01
8.750000e+01
8.750000e+01
1.000000e+02
1.000000e+02
1.000000e+02
1.000000e+02
1.000000e+02
1.000000e+02
1.000000e+02
1.000000e+02
1.000000e+02
1.000000e+02
1.000000e+02
1.000000e+02
1.000000e+02
1.000000e+02
1.000000e+02
1.000000e+02
1.000000e+02
0.000000e+00
-7.506933e-02
-1.382264e-01
-1.963392e-01
-2.504585e-01
-3.004703e-01
-3.462672e-01
-3.878136e-01
-4.251699e-01
-4.585082e-01
-4.881590e-01
-5.147018e-01
-5.391334e-01
-5.631763e-01
-5.898006e-01
-6.224985e-01
-6.470347e-01
0.000000e+00
-4.483001e-02
-9.312562e-02
-1.377236e-01
-1.788122e-01
-2.165475e-01
-2.510079e-01
-2.822394e-01
-3.102984e-01
-3.352712e-01
-3.572846e-01
-3.764972e-01
-3.930317e-01
-4.067178e-01
-4.163714e-01
-4.184873e-01
-4.260733e-01
0.000000e+00
-2.803537e-02
-5.764774e-02
-8.719053e-02
-1.147679e-01
-1.400878e-01
-1.631298e-01
-1.839198e-01
-2.024631e-01
-2.187285e-01
-2.326287e-01
-2.439694e-01
-2.523463e-01
-2.570225e-01
-2.571523e-01
-2.552843e-01
-2.630214e-01
0.000000e+00
-1.353159e-02
-2.785660e-02
-4.227212e-02
-5.605600e-02
-6.875184e-02
-8.025941e-02
-9.054517e-02
-9.955023e-02
-1.071574e-01
-1.131723e-01
-1.173110e-01
-1.192347e-01
-1.187853e-01
-1.169388e-01
-1.174438e-01
-1.232048e-01
0.000000e+00
-1.246575e-05
-2.833852e-05
-4.415924e-05
-5.255587e-05
-3.708912e-05
3.487100e-05
2.218750e-04
6.199830e-04
1.372282e-03
2.665449e-03
4.687018e-03
7.487661e-03
1.065253e-02
1.283873e-02
1.223913e-02
8.424778e-03
0.000000e+00
1.351241e-02
2.781207e-02
4.220089e-02
5.596740e-02
6.867978e-02
8.028736e-02
9.084689e-02
1.004499e-01
1.092078e-01
1.172351e-01
1.245911e-01
1.311480e-01
1.364059e-01
1.394989e-01
1.397442e-01
1.378082e-01
0.000000e+00
2.803222e-02
5.763815e-02
8.717144e-02
1.147381e-01
1.400507e-01
1.630990e-01
1.839298e-01
2.025863e-01
2.191016e-01
2.334900e-01
2.457164e-01
2.556403e-01
2.629773e-01
2.673812e-01
2.688111e-01
2.683596e-01
0.000000e+00
4.484840e-02
9.316561e-02
1.377874e-01
1.788977e-01
2.166391e-01
2.510593e-01
2.821455e-01
3.098505e-01
3.340941e-01
3.547614e-01
3.717094e-01
3.848026e-01
3.939976e-01
3.994826e-01
4.018217e-01
4.022513e-01
0.000000e+00
7.510009e-02
1.383075e-01
1.964911e-01
2.507013e-01
3.008118e-01
3.466745e-01
3.881561e-01
4.251178e-01
4.573675e-01
4.846255e-01
5.065284e-01
5.227165e-01
5.330625e-01
5.380659e-01
5.393009e-01
5.392771e-01
0.000000e+00
-4.544156e-02
-8.920715e-02
-1.459172e-01
-2.155171e-01
-2.978765e-01
-3.920937e-01
-4.971141e-01
-6.118211e-01
-7.351128e-01
-8.659712e-01
-1.003586e+00
-1.147626e+00
-1.298860e+00
-1.461211e+00
-1.646970e+00
-1.913874e+00
0.000000e+00
-2.797467e-02
-7.362936e-02
-1.310426e-01
-2.017799e-01
-2.852633e-01
-3.806219e-01
-4.867754e-01
-6.025941e-01
-7.269563e-01
-8.588159e-01
-9.973257e-01
-1.142102e+00
-1.293895e+00
-1.456183e+00
-1.640815e+00
-1.867009e+00
0.000000e+00
-2.110940e-02
-6.283007e-02
-1.204552e-01
-1.918613e-01
-2.762040e-01
-3.724390e-01
-4.794757e-01
-5.961922e-01
-7.214826e-01
-8.543210e-01
-9.938894e-01
-1.139841e+00
-1.292800e+00
-1.455228e+00
-1.630173e+00
-1.799484e+00
0.000000e+00
-1.819062e-02
-5.746073e-02
-1.142407e-01
-1.859049e-01
-2.707667e-01
-3.676017e-01
-4.752778e-01
-5.926941e-01
-7.187748e-01
-8.525161e-01
-9.930841e-01
-1.139967e+00
-1.293096e+00
-1.452274e+00
-1.613024e+00
-1.761112e+00
0.000000e+00
-1.734979e-02
-5.583572e-02
-1.122582e-01
-1.839419e-01
-2.690149e-01
-3.661284e-01
-4.741511e-01
-5.920032e-01
-7.186264e-01
-8.529947e-01
-9.941419e-01
-1.141156e+00
-1.292952e+00
-1.447259e+00
-1.598798e+00
-1.738403e+00
0.000000e+00
-1.817982e-02
-5.745305e-02
-1.142544e-01
-1.859721e-01
-2.709437e-01
-3.679802e-01
-4.759947e-01
-5.939301e-01
-7.207229e-01
-8.552807e-01
-9.964347e-01
-1.142819e+00
-1.292571e+00
-1.442815e+00
-1.589158e+00
-1.725783e+00
0.000000e+00
-2.109178e-02
-6.281734e-02
-1.204780e-01
-1.919745e-01
-2.765033e-01
-3.730808e-01
-4.806930e-01
-5.982938e-01
-7.248012e-01
-8.590492e-01
-9.996893e-01
-1.145027e+00
-1.292817e+00
-1.440147e+00
-1.583682e+00
-1.720217e+00
0.000000e+00
-2.795815e-02
-7.361827e-02
-1.310729e-01
-2.019158e-01
-2.856154e-01
-3.813689e-01
-4.881824e-01
-6.050082e-01
-7.307450e-01
-8.641787e-01
-1.003865e+00
-1.147964e+00
-1.294109e+00
-1.439479e+00
-1.581418e+00
-1.718910e+00
0.000000e+00
-4.543473e-02
-8.920810e-02
-1.459641e-01
-2.156746e-01
-2.982528e-01
-3.928581e-01
-4.985088e-01
-6.141464e-01
-7.386498e-01
-8.707761e-01
-1.009048e+00
-1.151615e+00
-1.296161e+00
-1.440047e+00
-1.581004e+00
-1.718931e+00


0.000000e+00
5.183021e-08
1.038913e-07
1.522131e-07
1.974761e-07
2.394258e-07
2.778950e-07
3.128849e-07
3.444778e-07
3.728176e-07
3.981022e-07
4.205496e-07
4.402907e-07
4.571791e-07
4.710062e-07
4.828348e-07
4.933729e-07
0.000000e+00
2.922120e-08
7.107413e-08
1.086603e-07
1.430702e-07
1.747410e-07
2.036551e-07
2.298239e-07
2.532788e-07
2.740456e-07
2.921262e-07
3.074742e-07
3.200168e-07
3.300164e-07
3.391511e-07
3.500135e-07
3.612102e-07
0.000000e+00
1.845956e-08
4.497740e-08
6.982013e-08
9.293970e-08
1.141672e-07
1.334292e-07
1.507120e-07
1.659973e-07
1.792406e-07
1.903716e-07
1.993411e-07
2.062932e-07
2.119460e-07
2.179131e-07
2.259913e-07
2.353361e-07
0.000000e+00
9.032085e-09
2.157494e-08
3.374483e-08
4.530791e-08
5.591131e-08
6.544600e-08
7.387398e-08
8.115033e-08
8.721557e-08
9.202010e-08
9.559504e-08
9.818465e-08
1.004028e-07
1.032641e-07
1.079732e-07
1.144575e-07
0.000000e+00
9.103656e-12
1.107127e-11
-5.655154e-12
-5.689432e-11
-1.678642e-10
-3.755168e-10
-7.290411e-10
-1.285442e-09
-2.095369e-09
-3.171932e-09
-4.438569e-09
-5.668347e-09
-6.446150e-09
-6.134427e-09
-3.917724e-09
3.384219e-10
0.000000e+00
-9.015056e-09
-2.155238e-08
-3.374700e-08
-4.539104e-08
-5.617379e-08
-6.604931e-08
-7.506468e-08
-8.327628e-08
-9.071977e-08
-9.738318e-08
-1.031779e-07
-1.079206e-07
-1.113364e-07
-1.130858e-07
-1.127503e-07
-1.104206e-07
0.000000e+00
-1.844879e-08
-4.496169e-08
-6.981130e-08
-9.296007e-08
-1.142590e-07
-1.336656e-07
-1.512108e-07
-1.669329e-07
-1.808479e-07
-1.929278e-07
-2.030821e-07
-2.111543e-07
-2.169593e-07
-2.204036e-07
-2.215506e-07
-2.208628e-07
0.000000e+00
-2.923222e-08
-7.109621e-08
-1.086805e-07
-1.430673e-07
-1.746784e-07
-2.034730e-07
-2.294296e-07
-2.525381e-07
-2.727785e-07
-2.901130e-07
-3.044807e-07
-3.157988e-07
-3.239973e-07
-3.291521e-07
-3.316862e-07
-3.322980e-07
0.000000e+00
-5.189099e-08
-1.039990e-07
-1.523462e-07
-1.975899e-07
-2.394268e-07
-2.776065e-07
-3.120014e-07
-3.425120e-07
-3.690479e-07
-3.915395e-07
-4.099607e-07
-4.243507e-07
-4.348339e-07
-4.416593e-07
-4.451861e-07
-4.463182e-07
0.000000e+00
4.692314e-08
9.145715e-08
1.413984e-07
2.009659e-07
2.707743e-07
3.503571e-07
4.389686e-07
5.357528e-07
6.398810e-07
7.506443e-07
8.676052e-07
9.909954e-07
1.122581e-06
1.265614e-06
1.417546e-06
1.568308e-06
0.000000e+00
2.834863e-08
7.163422e-08
1.219933e-07
1.827504e-07
2.539880e-07
3.350978e-07
4.252378e-07
5.235308e-07
6.291370e-07
7.413359e-07
8.596575e-07
9.841102e-07
1.115471e-06
1.255026e-06
1.403103e-06
1.551876e-06
0.000000e+00
1.801656e-08
5.574715e-08
1.060757e-07
1.677329e-07
2.402077e-07
3.226438e-07
4.141345e-07
5.137883e-07
6.207627e-07
7.343126e-07
8.538542e-07
9.789875e-07
1.109346e-06
1.244717e-06
1.387389e-06
1.531374e-06
0.000000e+00
1.319622e-08
4.740014e-08
9.680437e-08
1.588786e-07
2.321179e-07
3.154144e-07
4.078051e-07
5.083870e-07
6.163028e-07
7.307472e-07
8.509563e-07
9.761260e-07
1.105252e-06
1.237531e-06
1.374713e-06
1.511542e-06
0.000000e+00
1.181299e-08
4.487215e-08
9.382369e-08
1.560107e-07
2.295547e-07
3.132209e-07
4.060209e-07
5.070405e-07
6.153911e-07
7.301849e-07
8.504889e-07
9.752309e-07
1.103082e-06
1.232738e-06
1.365015e-06
1.494808e-06
0.000000e+00
1.320693e-08
4.744002e-08
9.690284e-08
1.590742e-07
2.324631e-07
3.159747e-07
4.086497e-07
5.095642e-07
6.177894e-07
7.323579e-07
8.522128e-07
9.761268e-07
1.102589e-06
1.229968e-06
1.358153e-06
1.482817e-06
0.000000e+00
1.803382e-08
5.581665e-08
1.062483e-07
1.680760e-07
2.408140e-07
3.236290e-07
4.156210e-07
5.158621e-07
6.233841e-07
7.371524e-07
8.560248e-07
9.786882e-07
1.103566e-06
1.228918e-06
1.354043e-06
1.475516e-06
0.000000e+00
2.837057e-08
7.172249e-08
1.222061e-07
1.831693e-07
2.547244e-07
3.362893e-07
4.270270e-07
5.260103e-07
6.322390e-07
7.446255e-07
8.619654e-07
9.828993e-07
1.105878e-06
1.229297e-06
1.352196e-06
1.472033e-06
0.000000e+00
4.695946e-08
9.156050e-08
1.416281e-07
2.014024e-07
2.715238e-07
3.515453e-07
4.407144e-07
5.381070e-07
6.427060e-07
7.533964e-07
8.689427e-07
9.879725e-07
1.108997e-06
1.230604e-06
1.351895e-06
1.471018e-06


2.193451e-01
2.193450e-01
2.193455e-01
2.193464e-01
2.193472e-01
2.193479e-01
2.193485e-01
2.193491e-01
2.193496e-01
2.193500e-01
2.193504e-01
2.193506e-01
2.193508e-01
2.193507e-01
2.193504e-01
2.193501e-01
2.193465e-01
2.193463e-01
2.193466e-01
2.193473e-01
2.193479e-01
2.193485e-01
2.193490e-01
2.193494e-01
2.193498e-01
2.193502e-01
2.193505e-01
2.193507e-01
2.193508e-01
2.193507e-01
2.193503e-01
2.193500e-01
2.193486e-01
2.193485e-01
2.193485e-01
2.193489e-01
2.193492e-01
2.193495e-01
2.193498e-01
2.193501e-01
2.193503e-01
2.193505e-01
2.193507e-01
2.193508e-01
2.193508e-01
2.193507e-01
2.193504e-01
2.193502e-01
2.193501e-01
2.193500e-01
2.193499e-01
2.193500e-01
2.193501e-01
2.193502e-01
2.193504e-01
2.193505e-01
2.193506e-01
2.193507e-01
2.193508e-01
2.193508e-01
2.193508e-01
2.193507e-01
2.193506e-01
2.193505e-01
2.193501e-01
2.193500e-01
2.193499e-01
2.193500e-01
2.193501e-01
2.193502e-01
2.193504e-01
2.193505e-01
2.193506e-01
2.193506e-01
2.193507e-01
2.193508e-01
2.193508e-01
2.193508e-01
2.193508e-01
2.193509e-01
2.193486e-01
2.193485e-01
2.193485e-01
2.193489e-01
2.193492e-01
2.193495e-01
2.193498e-01
2.193500e-01
2.193502e-01
2.193504e-01
2.193506e-01
2.193507e-01
2.193508e-01
2.193510e-01
2.193511e-01
2.193511e-01
2.193465e-01
2.193463e-01
2.193466e-01
2.193473e-01
2.193479e-01
2.193485e-01
2.193490e-01
2.193494e-01
2.193498e-01
2.193502e-01
2.193505e-01
2.193507e-01
2.193509e-01
2.193511e-01
2.193512e-01
2.193513e-01
2.193451e-01
2.193450e-01
2.193455e-01
2.193464e-01
2.193472e-01
2.193479e-01
2.193485e-01
2.193491e-01
2.193496e-01
2.193500e-01
2.193504e-01
2.193507e-01
2.193510e-01
2.193512e-01
2.193513e-01
2.193514e-01


9.873213e-01
9.891192e-01
9.907824e-01
9.920627e-01
9.932511e-01
9.943470e-01
9.953453e-01
9.962346e-01
9.970053e-01
9.976499e-01
9.981625e-01
9.985379e-01
9.987713e-01
9.988546e-01
9.989147e-01
9.952093e-01
9.952034e-01
9.943795e-01
9.949096e-01
9.956014e-01
9.962464e-01
9.968327e-01
9.973634e-01
9.978440e-01
9.982793e-01
9.986735e-01
9.990312e-01
9.993551e-01
9.996377e-01
9.998228e-01
9.993548e-01
9.930119e-01
9.983334e-01
9.978602e-01
9.977324e-01
9.979121e-01
9.981485e-01
9.983775e-01
9.985901e-01
9.987909e-01
9.989855e-01
9.991752e-01
9.993524e-01
9.994896e-01
9.995182e-01
9.992712e-01
9.983750e-01
9.967630e-01
9.996608e-01
9.993157e-01
9.991025e-01
9.990484e-01
9.990700e-01
9.991062e-01
9.991424e-01
9.991778e-01
9.992125e-01
9.992415e-01
9.992496e-01
9.992064e-01
9.990694e-01
9.988234e-01
9.986148e-01
9.985620e-01
9.996621e-01
9.993175e-01
9.991041e-01
9.990480e-01
9.990646e-01
9.990907e-01
9.991089e-01
9.991150e-01
9.991066e-01
9.990799e-01
9.990302e-01
9.989584e-01
9.988902e-01
9.989037e-01
9.990968e-01
9.994309e-01
9.983358e-01
9.978638e-01
9.977359e-01
9.979121e-01
9.981393e-01
9.983491e-01
9.985267e-01
9.986693e-01
9.987762e-01
9.988482e-01
9.988937e-01
9.989382e-01
9.990316e-01
9.992275e-01
9.995218e-01
9.998261e-01
9.952030e-01
9.943792e-01
9.949088e-01
9.955994e-01
9.962414e-01
9.968211e-01
9.973395e-01
9.977984e-01
9.981983e-01
9.985402e-01
9.988296e-01
9.990823e-01
9.993257e-01
9.995809e-01
9.998195e-01
9.999698e-01
9.873127e-01
9.891057e-01
9.907658e-01
9.920441e-01
9.932344e-01
9.943409e-01
9.953660e-01
9.963072e-01
9.971649e-01
9.979372e-01
9.986151e-01
9.991775e-01
9.995958e-01
9.998540e-01
9.999714e-01
9.999994e-01
1 2 19 18
2 3 20 19
3 4 21 20
4 5 22 21
5 6 23 22
6 7 24 23
7 8 25 24
8 9 26 25
9 10 27 26
10 11 28 27
11 12 29 28
12 13 30 29
13 14 31 30
14 15 32 31
15 16 33 32
16 17 34 33
18 19 36 35
19 20 37 36
20 21 38 37
21 22 39 38
22 23 40 39
23 24 41 40
24 25 42 41
25 26 43 42
26 27 44 43
27 28 45 44
28 29 46 45
29 30 47 46
30 31 48 47
31 32 49 48
32 33 50 49
33 34 51 50
35 36 53 52
36 37 54 53
37 38 55 54
38 39 56 55
39 40 57 56
40 41 58 57
41 42 59 58
42 43 60 59
43 44 61 60
44 45 62 61
45 46 63 62
46 47 64 63
47 48 65 64
48 49 66 65
49 50 67 66
50 51 68 67
52 53 70 69
53 54 71 70
54 55 72 71
55 56 73 72
56 57 74 73
57 58 75 74
58 59 76 75
59 60 77 76
60 61 78 77
61 62 79 78
62 63 80 79
63 64 81 80
64 65 82 81
65 66 83 82
66 67 84 83
67 68 85 84
69 70 87 86
70 71 88 87
71 72 89 88
72 73 90 89
73 74 91 90
74 75 92 91
75 76 93 92
76 77 94 93
77 78 95 94
78 79 96 95
79 80 97 96
80 81 98 97
81 82 99 98
82 83 100 99
83 84 101 100
84 85 102 101
86 87 104 103
87 88 105 104
88 89 106 105
89 90 107 106
90 91 108 107
91 92 109 108
92 93 110 109
93 94 111 110
94 95 112 111
95 96 113 112
96 97 114 113
97 98 115 114
98 99 116 115
99 100 117 116
100 101 118 117
101 102 119 118
103 104 121 120
104 105 122 121
105 106 123 122
106 107 124 123
107 108 125 124
108 109 126 125
109 110 127 126
110 111 128 127
111 112 129 128
112 113 130 129
113 114 131 130
114 115 132 131
115 116 133 132
116 117 134 133
117 118 135 134
118 119 136 135
120 121 138 137
121 122 139 138
122 123 140 139
123 124 141 140
124 125 142 141
125 126 143 142
126 127 144 143
127 128 145 144
128 129 146 145
129 130 147 146
130 131 148 147
131 132 149 148
132 133 150 149
133 134 151 150
134 135 152 151
135 136 153 152
