TITLE = "Solution"
VARIABLES = x, y, u, v, psiu, psiv, t, stress
ZONE T="structure" N=153 E=128 F=FEBLOCK ET=QUADRILATERAL VARLOCATION=([7,8]=cellcentered)
0.000000e+00
1.250000e+01
2.500000e+01
3.750000e+01
5.000000e+01
6.250000e+01
7.500000e+01
8.750000e+01
1.000000e+02
1.125000e+02
1.250000e+02
1.375000e+02
1.500000e+02
1.625000e+02
1.750000e+02
1.875000e+02
2.000000e+02
0.000000e+00
1.250000e+01
2.500000e+01
3.750000e+01
5.000000e+01
6.250000e+01
7.500000e+01
8.750000e+01
1.000000e+02
1.125000e+02
1.250000e+02
1.375000e+02
1.500000e+02
1.625000e+02
1.750000e+02
1.875000e+02
2.000000e+02
0.000000e+00
1.250000e+01
2.500000e+01
3.750000e+01
5.000000e+01
6.250000e+01
7.500000e+01
8.750000e+01
1.000000e+02
1.125000e+02
1.250000e+02
1.375000e+02
1.500000e+02
1.625000e+02
1.750000e+02
1.875000e+02
2.000000e+02
0.000000e+00
1.250000e+01
2.500000e+01
3.750000e+01
5.000000e+01
6.250000e+01
7.500000e+01
8.750000e+01
1.000000e+02
1.125000e+02
1.250000e+02
1.375000e+02
1.500000e+02
1.625000e+02
1.750000e+02
1.875000e+02
2.000000e+02
0.000000e+00
1.250000e+01
2.500000e+01
3.750000e+01
5.000000e+01
6.250000e+01
7.500000e+01
8.750000e+01
1.000000e+02
1.125000e+02
1.250000e+02
1.375000e+02
1.500000e+02
1.625000e+02
1.750000e+02
1.875000e+02
2.000000e+02
0.000000e+00
1.250000e+01
2.500000e+01
3.750000e+01
5.000000e+01
6.250000e+01
7.500000e+01
8.750000e+01
1.000000e+02
1.125000e+02
1.250000e+02
1.375000e+02
1.500000e+02
1.625000e+02
1.750000e+02
1.875000e+02
2.000000e+02
0.000000e+00
1.250000e+01
2.500000e+01
3.750000e+01
5.000000e+01
6.250000e+01
7.500000e+01
8.750000e+01
1.000000e+02
1.125000e+02
1.250000e+02
1.375000e+02
1.500000e+02
1.625000e+02
1.750000e+02
1.875000e+02
2.000000e+02
0.000000e+00
1.250000e+01
2.500000e+01
3.750000e+01
5.000000e+01
6.250000e+01
7.500000e+01
8.750000e+01
1.000000e+02
1.125000e+02
1.250000e+02
1.375000e+02
1.500000e+02
1.625000e+02
1.750000e+02
1.875000e+02
2.000000e+02
0.000000e+00
1.250000e+01
2.500000e+01
3.750000e+01
5.000000e+01
6.250000e+01
7.500000e+01
8.750000e+01
1.000000e+02
1.125000e+02
1.250000e+02
1.375000e+02
1.500000e+02
1.625000e+02
1.750000e+02
1.875000e+02
2.000000e+02
0.000000e+00
0.000000e+00
0.000000e+00
0.000000e+00
0.000000e+00
0.000000e+00
0.000000e+00
0.000000e+00
0.000000e+00
0.000000e+00
0.000000e+00
0.000000e+00
0.000000e+00
0.000000e+00
0.000000e+00
0.000000e+00
0.000000e+00
1.250000e+01
1.250000e+01
1.250000e+01
1.250000e+01
1.250000e+01
1.250000e+01
1.250000e+01
1.250000e+01
1.250000e+01
1.250000e+01
1.250000e+01
1.250000e+01
1.250000e+01
1.250000e+01
1.250000e+01
1.250000e+01
1.250000e+01
2.500000e+01
2.500000e+01
2.500000e+01
2.500000e+01
2.500000e+01
2.500000e+01
2.500000e+01
2.500000e+01
2.500000e+01
2.500000e+01
2.500000e+01
2.500000e+01
2.500000e+01
2.500000e+01
2.500000e+01
2.500000e+01
2.500000e+01
3.750000e+01
3.750000e+01
3.750000e+01
3.750000e+01
3.750000e+01
3.750000e+01
3.750000e+01
3.750000e+01
3.750000e+01
3.750000e+01
3.750000e+01
3.750000e+01
3.750000e+01
3.750000e+01
3.750000e+01
3.750000e+01
3.750000e+01
5.000000e+01
5.000000e+01
5.000000e+01
5.000000e+01
5.000000e+01
5.000000e+01
5.000000e+01
5.000000e+01
5.000000e+01
5.000000e+01
5.000000e+01
5.000000e+01
5.000000e+01
5.000000e+01
5.000000e+01
5.000000e+01
5.000000e+01
6.250000e+01
6.250000e+01
6.250000e+01
6.250000e+01
6.250000e+01
6.250000e+01
6.250000e+01
6.250000e+01
6.250000e+01
6.250000e+01
6.250000e+01
6.250000e+01
6.250000e+01
6.250000e+01
6.250000e+01
6.250000e+01
6.250000e+01
7.500000e+01
7.500000e+01
7.500000e+01
7.500000e+01
7.500000e+01
7.500000e+01
7.500000e+01
7.500000e+01
7.500000e+01
7.500000e+01
7.500000e+01
7.500000e+01
7.500000e+01
7.500000e+01
7.500000e+01
7.500000e+01
7.500000e+01
8.750000e+01
8.750000e+01
8.750000e+01
8.750000e+01
8.750000e+01
8.750000e+01
8.750000e+01
8.750000e+01
8.750000e+01
8.750000e+01
8.750000e+01
8.750000e+01
8.750000e+01
8.750000e+01
8.750000e+01
8.750000e+01
8.750000e+01
1.000000e+02
1.000000e+02
1.000000e+02
1.000000e+02
1.000000e+02
1.000000e+02
1.000000e+02
1.000000e+02
1.000000e+02
1.000000e+02
1.000000e+02
1.000000e+02
1.000000e+02
1.000000e+02
1.000000e+02
1.000000e+02
1.000000e+02
0.000000e+00
-7.110489e-02
-1.309266e-01
-1.859704e-01
-2.372315e-01
-2.846020e-01
-3.279800e-01
-3.673320e-01
-4.027151e-01
-4.342925e-01
-4.623771e-01
-4.875178e-01
-5.106589e-01
-5.334317e-01
-5.586496e-01
-5.896203e-01
-6.128605e-01
0.000000e+00
-4.246256e-02
-8.820771e-02
-1.304505e-01
-1.693690e-01
-2.051114e-01
-2.377517e-01
-2.673336e-01
-2.939105e-01
-3.175642e-01
-3.384148e-01
-3.566126e-01
-3.722737e-01
-3.852368e-01
-3.943805e-01
-3.963846e-01
-4.035699e-01
0.000000e+00
-2.655487e-02
-5.460345e-02
-8.258607e-02
-1.087070e-01
-1.326897e-01
-1.545147e-01
-1.742066e-01
-1.917704e-01
-2.071767e-01
-2.203426e-01
-2.310843e-01
-2.390187e-01
-2.434478e-01
-2.435708e-01
-2.418014e-01
-2.491299e-01
0.000000e+00
-1.281702e-02
-2.638555e-02
-4.003977e-02
-5.309569e-02
-6.512101e-02
-7.602079e-02
-8.576327e-02
-9.429270e-02
-1.014981e-01
-1.071952e-01
-1.111153e-01
-1.129374e-01
-1.125117e-01
-1.107628e-01
-1.112411e-01
-1.166978e-01
0.000000e+00
-1.180708e-05
-2.684118e-05
-4.182592e-05
-4.977869e-05
-3.512855e-05
3.303087e-05
2.101572e-04
5.872363e-04
1.299797e-03
2.524654e-03
4.439435e-03
7.092136e-03
1.008982e-02
1.216053e-02
1.159260e-02
7.979739e-03
0.000000e+00
1.279885e-02
2.634337e-02
3.997231e-02
5.301178e-02
6.505276e-02
7.604727e-02
8.604906e-02
9.514487e-02
1.034402e-01
1.110434e-01
1.180108e-01
1.242214e-01
1.292016e-01
1.321312e-01
1.323635e-01
1.305298e-01
0.000000e+00
2.655188e-02
5.459436e-02
8.256799e-02
1.086788e-01
1.326545e-01
1.544855e-01
1.742161e-01
1.918871e-01
2.075300e-01
2.211584e-01
2.327390e-01
2.421386e-01
2.490881e-01
2.532593e-01
2.546137e-01
2.541861e-01
0.000000e+00
4.247998e-02
8.824559e-02
1.305108e-01
1.694500e-01
2.051981e-01
2.378003e-01
2.672447e-01
2.934863e-01
3.164493e-01
3.360249e-01
3.520777e-01
3.644792e-01
3.731885e-01
3.783838e-01
3.805993e-01
3.810062e-01
0.000000e+00
7.113402e-02
1.310035e-01
1.861143e-01
2.374615e-01
2.849254e-01
3.283658e-01
3.676564e-01
4.026658e-01
4.332120e-01
4.590302e-01
4.797762e-01
4.951092e-01
5.049086e-01
5.096477e-01
5.108175e-01
5.107949e-01
0.000000e+00
-4.304175e-02
-8.449598e-02
-1.382110e-01
-2.041351e-01
-2.821449e-01
-3.713861e-01
-4.708600e-01
-5.795088e-01
-6.962889e-01
-8.202360e-01
-9.505828e-01
-1.087015e+00
-1.230261e+00
-1.384037e+00
-1.559986e+00
-1.812792e+00
0.000000e+00
-2.649730e-02
-6.974086e-02
-1.241220e-01
-1.911235e-01
-2.701979e-01
-3.605202e-01
-4.610673e-01
-5.707692e-01
-6.885632e-01
-8.134587e-01
-9.446530e-01
-1.081783e+00
-1.225559e+00
-1.379275e+00
-1.554155e+00
-1.768402e+00
0.000000e+00
-1.999457e-02
-5.951188e-02
-1.140937e-01
-1.817287e-01
-2.616170e-01
-3.527695e-01
-4.541533e-01
-5.647054e-01
-6.833786e-01
-8.092012e-01
-9.413981e-01
-1.079641e+00
-1.224522e+00
-1.378370e+00
-1.544076e+00
-1.704444e+00
0.000000e+00
-1.722990e-02
-5.442608e-02
-1.082074e-01
-1.760869e-01
-2.564669e-01
-3.481878e-01
-4.501771e-01
-5.613921e-01
-6.808139e-01
-8.074916e-01
-9.406354e-01
-1.079761e+00
-1.224802e+00
-1.375572e+00
-1.527832e+00
-1.668099e+00
0.000000e+00
-1.643346e-02
-5.288688e-02
-1.063296e-01
-1.742276e-01
-2.548077e-01
-3.467922e-01
-4.491098e-01
-5.607377e-01
-6.806733e-01
-8.079449e-01
-9.416374e-01
-1.080887e+00
-1.224665e+00
-1.370822e+00
-1.514358e+00
-1.646590e+00
0.000000e+00
-1.721968e-02
-5.441880e-02
-1.082203e-01
-1.761505e-01
-2.566345e-01
-3.485463e-01
-4.508561e-01
-5.625628e-01
-6.826591e-01
-8.101102e-01
-9.438090e-01
-1.082462e+00
-1.224305e+00
-1.366613e+00
-1.505227e+00
-1.634636e+00
0.000000e+00
-1.997788e-02
-5.949982e-02
-1.141153e-01
-1.818359e-01
-2.619006e-01
-3.533774e-01
-4.553063e-01
-5.666960e-01
-6.865219e-01
-8.136796e-01
-9.468917e-01
-1.084553e+00
-1.224537e+00
-1.364087e+00
-1.500040e+00
-1.629364e+00
0.000000e+00
-2.648165e-02
-6.973036e-02
-1.241507e-01
-1.912522e-01
-2.705313e-01
-3.612278e-01
-4.624000e-01
-5.730558e-01
-6.921517e-01
-8.185382e-01
-9.508465e-01
-1.087335e+00
-1.225761e+00
-1.363454e+00
-1.497896e+00
-1.628126e+00
0.000000e+00
-4.303529e-02
-8.449689e-02
-1.382554e-01
-2.042843e-01
-2.825013e-01
-3.721102e-01
-4.721811e-01
-5.817113e-01
-6.996391e-01
-8.247871e-01
-9.557565e-01
-1.090794e+00
-1.227705e+00
-1.363991e+00
-1.497504e+00
-1.628146e+00


0.000000e+00
9.842900e-08
1.972215e-07
2.889716e-07
3.750167e-07
4.548709e-07
5.281993e-07
5.949815e-07
6.553519e-07
7.095641e-07
7.579772e-07
8.009915e-07
8.388409e-07
8.712280e-07
8.977365e-07
9.203891e-07
9.405455e-07
0.000000e+00
5.535555e-08
1.347011e-07
2.060485e-07
2.714674e-07
3.317712e-07
3.869054e-07
4.368705e-07
4.817066e-07
5.214460e-07
5.560767e-07
5.854967e-07
6.095569e-07
6.287522e-07
6.462853e-07
6.670957e-07
6.885149e-07
0.000000e+00
3.487853e-08
8.512531e-08
1.322706e-07
1.762218e-07
2.166464e-07
2.533853e-07
2.863945e-07
3.156239e-07
3.409751e-07
3.623032e-07
3.795047e-07
3.928493e-07
4.037067e-07
4.151588e-07
4.306325e-07
4.485114e-07
0.000000e+00
1.703823e-08
4.080814e-08
6.389734e-08
8.587485e-08
1.060656e-07
1.242515e-07
1.403494e-07
1.542649e-07
1.658769e-07
1.750847e-07
1.819428e-07
1.869146e-07
1.911719e-07
1.966571e-07
2.056761e-07
2.180885e-07
0.000000e+00
1.783053e-11
2.207645e-11
-9.425620e-12
-1.069633e-10
-3.188585e-10
-7.159621e-10
-1.392563e-09
-2.458064e-09
-4.009784e-09
-6.073306e-09
-8.502803e-09
-1.086432e-08
-1.236236e-08
-1.177177e-08
-7.526680e-09
6.271956e-10
0.000000e+00
-1.700491e-08
-4.076342e-08
-6.389909e-08
-8.603066e-08
-1.065640e-07
-1.254018e-07
-1.426244e-07
-1.583315e-07
-1.725848e-07
-1.853562e-07
-1.964716e-07
-2.055752e-07
-2.121362e-07
-2.154985e-07
-2.148573e-07
-2.103910e-07
0.000000e+00
-3.485755e-08
-8.509431e-08
-1.322521e-07
-1.762585e-07
-2.168191e-07
-2.538346e-07
-2.873466e-07
-3.174134e-07
-3.440533e-07
-3.672015e-07
-3.866749e-07
-4.021646e-07
-4.133080e-07
-4.199206e-07
-4.221227e-07
-4.208039e-07
0.000000e+00
-5.537661e-08
-1.347431e-07
-2.060865e-07
-2.714605e-07
-3.316496e-07
-3.865541e-07
-4.361120e-07
-4.802842e-07
-5.190145e-07
-5.522147e-07
-5.797537e-07
-6.014604e-07
-6.171906e-07
-6.270829e-07
-6.319465e-07
-6.331215e-07
0.000000e+00
-9.854533e-08
-1.974276e-07
-2.892265e-07
-3.752346e-07
-4.548728e-07
-5.276463e-07
-5.932877e-07
-6.515822e-07
-7.023338e-07
-7.453880e-07
-7.806762e-07
-8.082585e-07
-8.283619e-07
-8.414563e-07
-8.482253e-07
-8.503996e-07
0.000000e+00
8.910610e-08
1.738382e-07
2.689199e-07
3.823220e-07
5.152145e-07
6.667269e-07
8.354595e-07
1.019799e-06
1.218180e-06
1.429260e-06
1.652213e-06
1.887488e-06
2.138469e-06
2.411352e-06
2.701216e-06
2.988802e-06
0.000000e+00
5.390473e-08
1.362570e-07
2.320813e-07
3.476877e-07
4.832483e-07
6.376262e-07
8.092390e-07
9.964322e-07
1.197617e-06
1.411429e-06
1.636976e-06
1.874280e-06
2.124829e-06
2.391070e-06
2.673583e-06
2.957384e-06
0.000000e+00
3.434041e-08
1.061291e-07
2.018456e-07
3.191150e-07
4.569885e-07
6.138602e-07
7.880240e-07
9.777968e-07
1.181583e-06
1.397970e-06
1.625845e-06
1.864448e-06
2.113077e-06
2.371321e-06
2.643517e-06
2.918171e-06
0.000000e+00
2.519898e-08
9.027838e-08
1.842138e-07
3.022499e-07
4.415568e-07
6.000523e-07
7.759218e-07
9.674591e-07
1.173040e-06
1.391134e-06
1.620285e-06
1.858956e-06
2.105224e-06
2.357550e-06
2.619249e-06
2.880223e-06
0.000000e+00
2.257170e-08
8.547202e-08
1.785418e-07
2.967849e-07
4.366660e-07
5.958623e-07
7.725107e-07
9.648830e-07
1.171294e-06
1.390056e-06
1.619387e-06
1.857238e-06
2.101064e-06
2.348359e-06
2.600666e-06
2.848182e-06
0.000000e+00
2.521933e-08
9.035473e-08
1.844026e-07
3.026253e-07
4.422193e-07
6.011275e-07
7.775423e-07
9.697173e-07
1.175891e-06
1.394222e-06
1.622693e-06
1.858956e-06
2.100115e-06
2.343040e-06
2.587504e-06
2.825204e-06
0.000000e+00
3.437324e-08
1.062622e-07
2.021765e-07
3.197733e-07
4.581518e-07
6.157504e-07
7.908755e-07
9.817740e-07
1.186609e-06
1.403413e-06
1.630004e-06
1.863869e-06
2.101988e-06
2.341021e-06
2.579617e-06
2.811205e-06
0.000000e+00
5.394641e-08
1.364258e-07
2.324889e-07
3.484910e-07
4.846607e-07
6.399117e-07
8.126706e-07
1.001187e-06
1.203564e-06
1.417733e-06
1.641394e-06
1.871947e-06
2.106423e-06
2.341745e-06
2.576072e-06
2.804522e-06
0.000000e+00
8.917518e-08
1.740355e-07
2.693595e-07
3.831583e-07
5.166515e-07
6.690055e-07
8.388076e-07
1.024314e-06
1.223597e-06
1.434534e-06
1.654769e-06
1.881677e-06
2.112408e-06
2.344253e-06
2.575494e-06
2.802574e-06


2.077621e-01
2.077621e-01
2.077622e-01
2.077624e-01
2.077627e-01
2.077629e-01
2.077631e-01
2.077633e-01
2.077634e-01
2.077636e-01
2.077637e-01
2.077638e-01
2.077638e-01
2.077638e-01
2.077637e-01
2.077635e-01
2.077625e-01
2.077625e-01
2.077625e-01
2.077627e-01
2.077629e-01
2.077631e-01
2.077633e-01
2.077634e-01
2.077635e-01
2.077636e-01
2.077637e-01
2.077638e-01
2.077638e-01
2.077638e-01
2.077636e-01
2.077635e-01
2.077632e-01
2.077631e-01
2.077631e-01
2.077632e-01
2.077633e-01
2.077634e-01
2.077635e-01
2.077636e-01
2.077637e-01
2.077638e-01
2.077638e-01
2.077638e-01
2.077639e-01
2.077638e-01
2.077637e-01
2.077636e-01
2.077637e-01
2.077636e-01
2.077636e-01
2.077636e-01
2.077636e-01
2.077637e-01
2.077637e-01
2.077638e-01
2.077638e-01
2.077638e-01
2.077638e-01
2.077639e-01
2.077638e-01
2.077638e-01
2.077637e-01
2.077637e-01
2.077637e-01
2.077636e-01
2.077636e-01
2.077636e-01
2.077636e-01
2.077637e-01
2.077637e-01
2.077637e-01
2.077638e-01
2.077638e-01
2.077638e-01
2.077638e-01
2.077638e-01
2.077638e-01
2.077638e-01
2.077638e-01
2.077632e-01
2.077631e-01
2.077631e-01
2.077632e-01
2.077633e-01
2.077634e-01
2.077635e-01
2.077636e-01
2.077637e-01
2.077637e-01
2.077638e-01
2.077638e-01
2.077639e-01
2.077639e-01
2.077639e-01
2.077639e-01
2.077625e-01
2.077625e-01
2.077625e-01
2.077627e-01
2.077629e-01
2.077631e-01
2.077633e-01
2.077634e-01
2.077635e-01
2.077636e-01
2.077637e-01
2.077638e-01
2.077639e-01
2.077639e-01
2.077640e-01
2.077640e-01
2.077621e-01
2.077621e-01
2.077622e-01
2.077624e-01
2.077627e-01
2.077629e-01
2.077631e-01
2.077633e-01
2.077635e-01
2.077636e-01
2.077637e-01
2.077638e-01
2.077639e-01
2.077640e-01
2.077640e-01
2.077640e-01


9.886251e-01
9.902381e-01
9.917303e-01
9.928790e-01
9.939452e-01
9.949284e-01
9.958241e-01
9.966218e-01
9.973133e-01
9.978916e-01
9.983515e-01
9.986883e-01
9.988977e-01
9.989724e-01
9.990263e-01
9.957020e-01
9.956966e-01
9.949575e-01
9.954330e-01
9.960537e-01
9.966324e-01
9.971584e-01
9.976345e-01
9.980658e-01
9.984562e-01
9.988099e-01
9.991309e-01
9.994215e-01
9.996750e-01
9.998410e-01
9.994212e-01
9.937306e-01
9.985048e-01
9.980802e-01
9.979656e-01
9.981268e-01
9.983389e-01
9.985443e-01
9.987351e-01
9.989153e-01
9.990899e-01
9.992601e-01
9.994190e-01
9.995421e-01
9.995678e-01
9.993462e-01
9.985421e-01
9.970960e-01
9.996957e-01
9.993860e-01
9.991948e-01
9.991462e-01
9.991656e-01
9.991981e-01
9.992306e-01
9.992623e-01
9.992935e-01
9.993195e-01
9.993268e-01
9.992880e-01
9.991651e-01
9.989444e-01
9.987573e-01
9.987099e-01
9.996968e-01
9.993877e-01
9.991962e-01
9.991459e-01
9.991608e-01
9.991842e-01
9.992005e-01
9.992060e-01
9.991985e-01
9.991746e-01
9.991299e-01
9.990656e-01
9.990043e-01
9.990165e-01
9.991897e-01
9.994894e-01
9.985069e-01
9.980835e-01
9.979687e-01
9.981269e-01
9.983307e-01
9.985189e-01
9.986782e-01
9.988062e-01
9.989021e-01
9.989666e-01
9.990075e-01
9.990474e-01
9.991312e-01
9.993070e-01
9.995710e-01
9.998440e-01
9.956962e-01
9.949572e-01
9.954324e-01
9.960520e-01
9.966279e-01
9.971480e-01
9.976131e-01
9.980248e-01
9.983836e-01
9.986903e-01
9.989499e-01
9.991767e-01
9.993951e-01
9.996240e-01
9.998381e-01
9.999729e-01
9.886173e-01
9.902260e-01
9.917154e-01
9.928623e-01
9.939302e-01
9.949229e-01
9.958426e-01
9.966870e-01
9.974565e-01
9.981494e-01
9.987576e-01
9.992621e-01
9.996374e-01
9.998690e-01
9.999743e-01
9.999995e-01
1 2 19 18
2 3 20 19
3 4 21 20
4 5 22 21
5 6 23 22
6 7 24 23
7 8 25 24
8 9 26 25
9 10 27 26
10 11 28 27
11 12 29 28
12 13 30 29
13 14 31 30
14 15 32 31
15 16 33 32
16 17 34 33
18 19 36 35
19 20 37 36
20 21 38 37
21 22 39 38
22 23 40 39
23 24 41 40
24 25 42 41
25 26 43 42
26 27 44 43
27 28 45 44
28 29 46 45
29 30 47 46
30 31 48 47
31 32 49 48
32 33 50 49
33 34 51 50
35 36 53 52
36 37 54 53
37 38 55 54
38 39 56 55
39 40 57 56
40 41 58 57
41 42 59 58
42 43 60 59
43 44 61 60
44 45 62 61
45 46 63 62
46 47 64 63
47 48 65 64
48 49 66 65
49 50 67 66
50 51 68 67
52 53 70 69
53 54 71 70
54 55 72 71
55 56 73 72
56 57 74 73
57 58 75 74
58 59 76 75
59 60 77 76
60 61 78 77
61 62 79 78
62 63 80 79
63 64 81 80
64 65 82 81
65 66 83 82
66 67 84 83
67 68 85 84
69 70 87 86
70 71 88 87
71 72 89 88
72 73 90 89
73 74 91 90
74 75 92 91
75 76 93 92
76 77 94 93
77 78 95 94
78 79 96 95
79 80 97 96
80 81 98 97
81 82 99 98
82 83 100 99
83 84 101 100
84 85 102 101
86 87 104 103
87 88 105 104
88 89 106 105
89 90 107 106
90 91 108 107
91 92 109 108
92 93 110 109
93 94 111 110
94 95 112 111
95 96 113 112
96 97 114 113
97 98 115 114
98 99 116 115
99 100 117 116
100 101 118 117
101 102 119 118
103 104 121 120
104 105 122 121
105 106 123 122
106 107 124 123
107 108 125 124
108 109 126 125
109 110 127 126
110 111 128 127
111 112 129 128
112 113 130 129
113 114 131 130
114 115 132 131
115 116 133 132
116 117 134 133
117 118 135 134
118 119 136 135
120 121 138 137
121 122 139 138
122 123 140 139
123 124 141 140
124 125 142 141
125 126 143 142
126 127 144 143
127 128 145 144
128 129 146 145
129 130 147 146
130 131 148 147
131 132 149 148
132 133 150 149
133 134 151 150
134 135 152 151
135 136 153 152
