TITLE = "Solution"
VARIABLES = x, y, u, v, psiu, psiv, t, stress
ZONE T="structure" N=153 E=128 F=FEBLOCK ET=QUADRILATERAL VARLOCATION=([7,8]=cellcentered)
0.000000e+00
1.250000e+01
2.500000e+01
3.750000e+01
5.000000e+01
6.250000e+01
7.500000e+01
8.750000e+01
1.000000e+02
1.125000e+02
1.250000e+02
1.375000e+02
1.500000e+02
1.625000e+02
1.750000e+02
1.875000e+02
2.000000e+02
0.000000e+00
1.250000e+01
2.500000e+01
3.750000e+01
5.000000e+01
6.250000e+01
7.500000e+01
8.750000e+01
1.000000e+02
1.125000e+02
1.250000e+02
1.375000e+02
1.500000e+02
1.625000e+02
1.750000e+02
1.875000e+02
2.000000e+02
0.000000e+00
1.250000e+01
2.500000e+01
3.750000e+01
5.000000e+01
6.250000e+01
7.500000e+01
8.750000e+01
1.000000e+02
1.125000e+02
1.250000e+02
1.375000e+02
1.500000e+02
1.625000e+02
1.750000e+02
1.875000e+02
2.000000e+02
0.000000e+00
1.250000e+01
2.500000e+01
3.750000e+01
5.000000e+01
6.250000e+01
7.500000e+01
8.750000e+01
1.000000e+02
1.125000e+02
1.250000e+02
1.375000e+02
1.500000e+02
1.625000e+02
1.750000e+02
1.875000e+02
2.000000e+02
0.000000e+00
1.250000e+01
2.500000e+01
3.750000e+01
5.000000e+01
6.250000e+01
7.500000e+01
8.750000e+01
1.000000e+02
1.125000e+02
1.250000e+02
1.375000e+02
1.500000e+02
1.625000e+02
1.750000e+02
1.875000e+02
2.000000e+02
0.000000e+00
1.250000e+01
2.500000e+01
3.750000e+01
5.000000e+01
6.250000e+01
7.500000e+01
8.750000e+01
1.000000e+02
1.125000e+02
1.250000e+02
1.375000e+02
1.500000e+02
1.625000e+02
1.750000e+02
1.875000e+02
2.000000e+02
0.000000e+00
1.250000e+01
2.500000e+01
3.750000e+01
5.000000e+01
6.250000e+01
7.500000e+01
8.750000e+01
1.000000e+02
1.125000e+02
1.250000e+02
1.375000e+02
1.500000e+02
1.625000e+02
1.750000e+02
1.875000e+02
2.000000e+02
0.000000e+00
1.250000e+01
2.500000e+01
3.750000e+01
5.000000e+01
6.250000e+01
7.500000e+01
8.750000e+01
1.000000e+02
1.125000e+02
1.250000e+02
1.375000e+02
1.500000e+02
1.625000e+02
1.750000e+02
1.875000e+02
2.000000e+02
0.000000e+00
1.250000e+01
2.500000e+01
3.750000e+01
5.000000e+01
6.250000e+01
7.500000e+01
8.750000e+01
1.000000e+02
1.125000e+02
1.250000e+02
1.375000e+02
1.500000e+02
1.625000e+02
1.750000e+02
1.875000e+02
2.000000e+02
0.000000e+00
0.000000e+00
0.000000e+00
0.000000e+00
0.000000e+00
0.000000e+00
0.000000e+00
0.000000e+00
0.000000e+00
0.000000e+00
0.000000e+00
0.000000e+00
0.000000e+00
0.000000e+00
0.000000e+00
0.000000e+00
0.000000e+00
1.250000e+01
1.250000e+01
1.250000e+01
1.250000e+01
1.250000e+01
1.250000e+01
1.250000e+01
1.250000e+01
1.250000e+01
1.250000e+01
1.250000e+01
1.250000e+01
1.250000e+01
1.250000e+01
1.250000e+01
1.250000e+01
1.250000e+01
2.500000e+01
2.500000e+01
2.500000e+01
2.500000e+01
2.500000e+01
2.500000e+01
2.500000e+01
2.500000e+01
2.500000e+01
2.500000e+01
2.500000e+01
2.500000e+01
2.500000e+01
2.500000e+01
2.500000e+01
2.500000e+01
2.500000e+01
3.750000e+01
3.750000e+01
3.750000e+01
3.750000e+01
3.750000e+01
3.750000e+01
3.750000e+01
3.750000e+01
3.750000e+01
3.750000e+01
3.750000e+01
3.750000e+01
3.750000e+01
3.750000e+01
3.750000e+01
3.750000e+01
3.750000e+01
5.000000e+01
5.000000e+01
5.000000e+01
5.000000e+01
5.000000e+01
5.000000e+01
5.000000e+01
5.000000e+01
5.000000e+01
5.000000e+01
5.000000e+01
5.000000e+01
5.000000e+01
5.000000e+01
5.000000e+01
5.000000e+01
5.000000e+01
6.250000e+01
6.250000e+01
6.250000e+01
6.250000e+01
6.250000e+01
6.250000e+01
6.250000e+01
6.250000e+01
6.250000e+01
6.250000e+01
6.250000e+01
6.250000e+01
6.250000e+01
6.250000e+01
6.250000e+01
6.250000e+01
6.250000e+01
7.500000e+01
7.500000e+01
7.500000e+01
7.500000e+01
7.500000e+01
7.500000e+01
7.500000e+01
7.500000e+01
7.500000e+01
7.500000e+01
7.500000e+01
7.500000e+01
7.500000e+01
7.500000e+01
7.500000e+01
7.500000e+01
7.500000e+01
8.750000e+01
8.750000e+01
8.750000e+01
8.750000e+01
8.750000e+01
8.750000e+01
8.750000e+01
8.750000e+01
8.750000e+01
8.750000e+01
8.750000e+01
8.750000e+01
8.750000e+01
8.750000e+01
8.750000e+01
8.750000e+01
8.750000e+01
1.000000e+02
1.000000e+02
1.000000e+02
1.000000e+02
1.000000e+02
1.000000e+02
1.000000e+02
1.000000e+02
1.000000e+02
1.000000e+02
1.000000e+02
1.000000e+02
1.000000e+02
1.000000e+02
1.000000e+02
1.000000e+02
1.000000e+02
0.000000e+00
-7.127691e-02
-1.312434e-01
-1.864203e-01
-2.378055e-01
-2.852905e-01
-3.287735e-01
-3.682207e-01
-4.036895e-01
-4.353433e-01
-4.634958e-01
-4.886973e-01
-5.118944e-01
-5.347223e-01
-5.600013e-01
-5.910470e-01
-6.143434e-01
0.000000e+00
-4.256529e-02
-8.842110e-02
-1.307660e-01
-1.697787e-01
-2.056076e-01
-2.383269e-01
-2.679804e-01
-2.946216e-01
-3.183325e-01
-3.392336e-01
-3.574754e-01
-3.731744e-01
-3.861689e-01
-3.953347e-01
-3.973437e-01
-4.045463e-01
0.000000e+00
-2.661910e-02
-5.473554e-02
-8.278586e-02
-1.089700e-01
-1.330107e-01
-1.548885e-01
-1.746280e-01
-1.922343e-01
-2.076779e-01
-2.208757e-01
-2.316434e-01
-2.395970e-01
-2.440369e-01
-2.441601e-01
-2.423865e-01
-2.497326e-01
0.000000e+00
-1.284802e-02
-2.644937e-02
-4.013663e-02
-5.322414e-02
-6.527856e-02
-7.620471e-02
-8.597076e-02
-9.452082e-02
-1.017436e-01
-1.074546e-01
-1.113841e-01
-1.132106e-01
-1.127839e-01
-1.110308e-01
-1.115102e-01
-1.169802e-01
0.000000e+00
-1.183567e-05
-2.690617e-05
-4.192721e-05
-4.989925e-05
-3.521368e-05
3.311065e-05
2.106656e-04
5.886572e-04
1.302942e-03
2.530764e-03
4.450179e-03
7.109300e-03
1.011424e-02
1.218996e-02
1.162066e-02
7.999052e-03
0.000000e+00
1.282981e-02
2.640710e-02
4.006901e-02
5.314003e-02
6.521014e-02
7.623124e-02
8.625724e-02
9.537506e-02
1.036904e-01
1.113121e-01
1.182964e-01
1.245220e-01
1.295142e-01
1.324509e-01
1.326838e-01
1.308456e-01
0.000000e+00
2.661612e-02
5.472643e-02
8.276773e-02
1.089417e-01
1.329754e-01
1.548592e-01
1.746375e-01
1.923513e-01
2.080321e-01
2.216935e-01
2.333021e-01
2.427245e-01
2.496908e-01
2.538721e-01
2.552298e-01
2.548011e-01
0.000000e+00
4.258275e-02
8.845906e-02
1.308266e-01
1.698599e-01
2.056945e-01
2.383756e-01
2.678912e-01
2.941963e-01
3.172150e-01
3.368379e-01
3.529296e-01
3.653611e-01
3.740915e-01
3.792993e-01
3.815202e-01
3.819281e-01
0.000000e+00
7.130611e-02
1.313204e-01
1.865646e-01
2.380360e-01
2.856147e-01
3.291602e-01
3.685459e-01
4.036400e-01
4.342601e-01
4.601408e-01
4.809370e-01
4.963071e-01
5.061303e-01
5.108809e-01
5.120535e-01
5.120308e-01
0.000000e+00
-4.314588e-02
-8.470040e-02
-1.385454e-01
-2.046290e-01
-2.828275e-01
-3.722847e-01
-4.719992e-01
-5.809109e-01
-6.979735e-01
-8.222205e-01
-9.528827e-01
-1.089645e+00
-1.233238e+00
-1.387386e+00
-1.563760e+00
-1.817178e+00
0.000000e+00
-2.656140e-02
-6.990959e-02
-1.244223e-01
-1.915859e-01
-2.708516e-01
-3.613924e-01
-4.621828e-01
-5.721501e-01
-6.902292e-01
-8.154268e-01
-9.469385e-01
-1.084400e+00
-1.228524e+00
-1.382612e+00
-1.557916e+00
-1.772681e+00
0.000000e+00
-2.004294e-02
-5.965586e-02
-1.143697e-01
-1.821683e-01
-2.622499e-01
-3.536230e-01
-4.552520e-01
-5.660717e-01
-6.850320e-01
-8.111590e-01
-9.436758e-01
-1.082253e+00
-1.227485e+00
-1.381705e+00
-1.547812e+00
-1.708567e+00
0.000000e+00
-1.727159e-02
-5.455776e-02
-1.084692e-01
-1.765129e-01
-2.570874e-01
-3.490301e-01
-4.512662e-01
-5.627503e-01
-6.824610e-01
-8.094453e-01
-9.429112e-01
-1.082373e+00
-1.227765e+00
-1.378901e+00
-1.531529e+00
-1.672135e+00
0.000000e+00
-1.647322e-02
-5.301484e-02
-1.065869e-01
-1.746491e-01
-2.554241e-01
-3.476312e-01
-4.501964e-01
-5.620943e-01
-6.823201e-01
-8.098996e-01
-9.439156e-01
-1.083502e+00
-1.227628e+00
-1.374139e+00
-1.518022e+00
-1.650574e+00
0.000000e+00
-1.726134e-02
-5.455046e-02
-1.084822e-01
-1.765767e-01
-2.572554e-01
-3.493895e-01
-4.519469e-01
-5.639239e-01
-6.843107e-01
-8.120702e-01
-9.460924e-01
-1.085081e+00
-1.227267e+00
-1.369919e+00
-1.508869e+00
-1.638591e+00
0.000000e+00
-2.002622e-02
-5.964377e-02
-1.143914e-01
-1.822758e-01
-2.625342e-01
-3.542324e-01
-4.564078e-01
-5.680670e-01
-6.881829e-01
-8.156482e-01
-9.491826e-01
-1.087177e+00
-1.227500e+00
-1.367387e+00
-1.503670e+00
-1.633306e+00
0.000000e+00
-2.654572e-02
-6.989906e-02
-1.244511e-01
-1.917149e-01
-2.711858e-01
-3.621018e-01
-4.635187e-01
-5.744422e-01
-6.938263e-01
-8.205186e-01
-9.531470e-01
-1.089966e+00
-1.228727e+00
-1.366753e+00
-1.501520e+00
-1.632065e+00
0.000000e+00
-4.313940e-02
-8.470131e-02
-1.385899e-01
-2.047785e-01
-2.831847e-01
-3.730105e-01
-4.733234e-01
-5.831186e-01
-7.013318e-01
-8.267826e-01
-9.580689e-01
-1.093433e+00
-1.230675e+00
-1.367292e+00
-1.501127e+00
-1.632085e+00


0.000000e+00
9.754788e-08
1.954571e-07
2.863861e-07
3.716597e-07
4.507962e-07
5.234641e-07
5.896435e-07
6.494680e-07
7.031890e-07
7.511629e-07
7.937864e-07
8.312916e-07
8.633841e-07
8.896515e-07
9.120986e-07
9.320724e-07
0.000000e+00
5.486207e-08
1.334994e-07
2.042085e-07
2.690407e-07
3.288024e-07
3.834397e-07
4.329535e-07
4.773838e-07
5.167630e-07
5.510793e-07
5.802319e-07
6.040731e-07
6.230936e-07
6.404669e-07
6.610883e-07
6.823135e-07
0.000000e+00
3.456896e-08
8.436761e-08
1.310913e-07
1.746484e-07
2.147094e-07
2.511171e-07
2.838281e-07
3.127928e-07
3.379141e-07
3.590484e-07
3.760934e-07
3.893164e-07
4.000748e-07
4.114226e-07
4.267558e-07
4.444727e-07
0.000000e+00
1.688742e-08
4.044529e-08
6.332813e-08
8.510862e-08
1.051179e-07
1.231398e-07
1.390922e-07
1.528816e-07
1.643883e-07
1.735124e-07
1.803081e-07
1.852346e-07
1.894531e-07
1.948885e-07
2.038256e-07
2.161254e-07
0.000000e+00
1.766268e-11
2.186298e-11
-9.361144e-12
-1.060223e-10
-3.160035e-10
-7.095116e-10
-1.379978e-09
-2.435809e-09
-3.973436e-09
-6.018202e-09
-8.425594e-09
-1.076559e-08
-1.224990e-08
-1.166458e-08
-7.458013e-09
6.218107e-10
0.000000e+00
-1.685441e-08
-4.040099e-08
-6.332989e-08
-8.526306e-08
-1.056118e-07
-1.242797e-07
-1.413466e-07
-1.569114e-07
-1.710354e-07
-1.836907e-07
-1.947049e-07
-2.037256e-07
-2.102268e-07
-2.135583e-07
-2.129230e-07
-2.084973e-07
0.000000e+00
-3.454817e-08
-8.433691e-08
-1.310730e-07
-1.746848e-07
-2.148806e-07
-2.515625e-07
-2.847715e-07
-3.145660e-07
-3.409643e-07
-3.639023e-07
-3.831985e-07
-3.985471e-07
-4.095890e-07
-4.161414e-07
-4.183234e-07
-4.170166e-07
0.000000e+00
-5.488294e-08
-1.335409e-07
-2.042462e-07
-2.690340e-07
-3.286819e-07
-3.830916e-07
-4.322020e-07
-4.759744e-07
-5.143537e-07
-5.472525e-07
-5.745412e-07
-5.960504e-07
-6.116374e-07
-6.214396e-07
-6.262589e-07
-6.274232e-07
0.000000e+00
-9.766315e-08
-1.956613e-07
-2.866387e-07
-3.718756e-07
-4.507981e-07
-5.229162e-07
-5.879651e-07
-6.457326e-07
-6.960246e-07
-7.386883e-07
-7.736560e-07
-8.009876e-07
-8.209081e-07
-8.338833e-07
-8.405907e-07
-8.427451e-07
0.000000e+00
8.830850e-08
1.722797e-07
2.665067e-07
3.788894e-07
5.105876e-07
6.607380e-07
8.279534e-07
1.010635e-06
1.207231e-06
1.416410e-06
1.637354e-06
1.870509e-06
2.119227e-06
2.389649e-06
2.676898e-06
2.961891e-06
0.000000e+00
5.342116e-08
1.350340e-07
2.299977e-07
3.445659e-07
4.789089e-07
6.318996e-07
8.019698e-07
9.874794e-07
1.186854e-06
1.398741e-06
1.622256e-06
1.857422e-06
2.105711e-06
2.369552e-06
2.649516e-06
2.930758e-06
0.000000e+00
3.403112e-08
1.051752e-07
2.000328e-07
3.162497e-07
4.528854e-07
6.083481e-07
7.809466e-07
9.690127e-07
1.170965e-06
1.385404e-06
1.611227e-06
1.847679e-06
2.094066e-06
2.349981e-06
2.619722e-06
2.891900e-06
0.000000e+00
2.497133e-08
8.946631e-08
1.825592e-07
2.995363e-07
4.375929e-07
5.946650e-07
7.689540e-07
9.587688e-07
1.162500e-06
1.378630e-06
1.605717e-06
1.842237e-06
2.086285e-06
2.336336e-06
2.595675e-06
2.854295e-06
0.000000e+00
2.236758e-08
8.470306e-08
1.769381e-07
2.941205e-07
4.327462e-07
5.905129e-07
7.655737e-07
9.562161e-07
1.160770e-06
1.377562e-06
1.604828e-06
1.840535e-06
2.082162e-06
2.327228e-06
2.577260e-06
2.822545e-06
0.000000e+00
2.499150e-08
8.954197e-08
1.827463e-07
2.999083e-07
4.382494e-07
5.957304e-07
7.705597e-07
9.610065e-07
1.165325e-06
1.381690e-06
1.608104e-06
1.842238e-06
2.081223e-06
2.321957e-06
2.564218e-06
2.799776e-06
0.000000e+00
3.406366e-08
1.053070e-07
2.003607e-07
3.169020e-07
4.540382e-07
6.102211e-07
7.837721e-07
9.729538e-07
1.175946e-06
1.390797e-06
1.615347e-06
1.847106e-06
2.083078e-06
2.319957e-06
2.556403e-06
2.785905e-06
0.000000e+00
5.346247e-08
1.352013e-07
2.304015e-07
3.453618e-07
4.803084e-07
6.341644e-07
8.053701e-07
9.921910e-07
1.192747e-06
1.404988e-06
1.626634e-06
1.855110e-06
2.087473e-06
2.320675e-06
2.552890e-06
2.779282e-06
0.000000e+00
8.837696e-08
1.724752e-07
2.669423e-07
3.797182e-07
5.120114e-07
6.629959e-07
8.312710e-07
1.015108e-06
1.212598e-06
1.421636e-06
1.639888e-06
1.864752e-06
2.093404e-06
2.323160e-06
2.552317e-06
2.777351e-06


2.082647e-01
2.082646e-01
2.082648e-01
2.082651e-01
2.082654e-01
2.082656e-01
2.082658e-01
2.082660e-01
2.082662e-01
2.082664e-01
2.082665e-01
2.082666e-01
2.082666e-01
2.082666e-01
2.082664e-01
2.082663e-01
2.082652e-01
2.082651e-01
2.082652e-01
2.082654e-01
2.082656e-01
2.082658e-01
2.082660e-01
2.082662e-01
2.082663e-01
2.082664e-01
2.082665e-01
2.082666e-01
2.082667e-01
2.082666e-01
2.082664e-01
2.082663e-01
2.082659e-01
2.082658e-01
2.082659e-01
2.082660e-01
2.082661e-01
2.082662e-01
2.082663e-01
2.082664e-01
2.082665e-01
2.082666e-01
2.082666e-01
2.082667e-01
2.082667e-01
2.082666e-01
2.082665e-01
2.082664e-01
2.082664e-01
2.082664e-01
2.082664e-01
2.082664e-01
2.082664e-01
2.082665e-01
2.082665e-01
2.082666e-01
2.082666e-01
2.082666e-01
2.082667e-01
2.082667e-01
2.082667e-01
2.082666e-01
2.082665e-01
2.082665e-01
2.082664e-01
2.082664e-01
2.082664e-01
2.082664e-01
2.082664e-01
2.082665e-01
2.082665e-01
2.082665e-01
2.082666e-01
2.082666e-01
2.082666e-01
2.082666e-01
2.082667e-01
2.082667e-01
2.082667e-01
2.082667e-01
2.082659e-01
2.082658e-01
2.082659e-01
2.082660e-01
2.082661e-01
2.082662e-01
2.082663e-01
2.082664e-01
2.082665e-01
2.082665e-01
2.082666e-01
2.082666e-01
2.082667e-01
2.082667e-01
2.082667e-01
2.082668e-01
2.082652e-01
2.082651e-01
2.082652e-01
2.082654e-01
2.082656e-01
2.082658e-01
2.082660e-01
2.082662e-01
2.082663e-01
2.082664e-01
2.082665e-01
2.082666e-01
2.082667e-01
2.082668e-01
2.082668e-01
2.082669e-01
2.082647e-01
2.082646e-01
2.082648e-01
2.082651e-01
2.082654e-01
2.082656e-01
2.082658e-01
2.082660e-01
2.082662e-01
2.082664e-01
2.082665e-01
2.082666e-01
2.082667e-01
2.082668e-01
2.082669e-01
2.082669e-01


9.885700e-01
9.901908e-01
9.916902e-01
9.928445e-01
9.939159e-01
9.949038e-01
9.958038e-01
9.966055e-01
9.973003e-01
9.978814e-01
9.983435e-01
9.986820e-01
9.988924e-01
9.989674e-01
9.990216e-01
9.956812e-01
9.956758e-01
9.949330e-01
9.954109e-01
9.960346e-01
9.966161e-01
9.971446e-01
9.976231e-01
9.980564e-01
9.984488e-01
9.988042e-01
9.991266e-01
9.994187e-01
9.996734e-01
9.998402e-01
9.994184e-01
9.937003e-01
9.984975e-01
9.980709e-01
9.979557e-01
9.981178e-01
9.983309e-01
9.985373e-01
9.987289e-01
9.989100e-01
9.990854e-01
9.992565e-01
9.994162e-01
9.995399e-01
9.995657e-01
9.993430e-01
9.985350e-01
9.970819e-01
9.996942e-01
9.993831e-01
9.991909e-01
9.991421e-01
9.991616e-01
9.991943e-01
9.992269e-01
9.992588e-01
9.992900e-01
9.993162e-01
9.993235e-01
9.992846e-01
9.991610e-01
9.989393e-01
9.987513e-01
9.987037e-01
9.996954e-01
9.993847e-01
9.991923e-01
9.991418e-01
9.991567e-01
9.991803e-01
9.991966e-01
9.992022e-01
9.991946e-01
9.991706e-01
9.991257e-01
9.990611e-01
9.989995e-01
9.990117e-01
9.991857e-01
9.994870e-01
9.984997e-01
9.980742e-01
9.979589e-01
9.981178e-01
9.983226e-01
9.985117e-01
9.986718e-01
9.988004e-01
9.988968e-01
9.989616e-01
9.990027e-01
9.990428e-01
9.991270e-01
9.993036e-01
9.995689e-01
9.998432e-01
9.956754e-01
9.949327e-01
9.954103e-01
9.960328e-01
9.966116e-01
9.971342e-01
9.976015e-01
9.980153e-01
9.983758e-01
9.986840e-01
9.989449e-01
9.991727e-01
9.993921e-01
9.996222e-01
9.998373e-01
9.999728e-01
9.885622e-01
9.901786e-01
9.916753e-01
9.928277e-01
9.939008e-01
9.948983e-01
9.958224e-01
9.966710e-01
9.974441e-01
9.981404e-01
9.987516e-01
9.992585e-01
9.996357e-01
9.998683e-01
9.999742e-01
9.999995e-01
1 2 19 18
2 3 20 19
3 4 21 20
4 5 22 21
5 6 23 22
6 7 24 23
7 8 25 24
8 9 26 25
9 10 27 26
10 11 28 27
11 12 29 28
12 13 30 29
13 14 31 30
14 15 32 31
15 16 33 32
16 17 34 33
18 19 36 35
19 20 37 36
20 21 38 37
21 22 39 38
22 23 40 39
23 24 41 40
24 25 42 41
25 26 43 42
26 27 44 43
27 28 45 44
28 29 46 45
29 30 47 46
30 31 48 47
31 32 49 48
32 33 50 49
33 34 51 50
35 36 53 52
36 37 54 53
37 38 55 54
38 39 56 55
39 40 57 56
40 41 58 57
41 42 59 58
42 43 60 59
43 44 61 60
44 45 62 61
45 46 63 62
46 47 64 63
47 48 65 64
48 49 66 65
49 50 67 66
50 51 68 67
52 53 70 69
53 54 71 70
54 55 72 71
55 56 73 72
56 57 74 73
57 58 75 74
58 59 76 75
59 60 77 76
60 61 78 77
61 62 79 78
62 63 80 79
63 64 81 80
64 65 82 81
65 66 83 82
66 67 84 83
67 68 85 84
69 70 87 86
70 71 88 87
71 72 89 88
72 73 90 89
73 74 91 90
74 75 92 91
75 76 93 92
76 77 94 93
77 78 95 94
78 79 96 95
79 80 97 96
80 81 98 97
81 82 99 98
82 83 100 99
83 84 101 100
84 85 102 101
86 87 104 103
87 88 105 104
88 89 106 105
89 90 107 106
90 91 108 107
91 92 109 108
92 93 110 109
93 94 111 110
94 95 112 111
95 96 113 112
96 97 114 113
97 98 115 114
98 99 116 115
99 100 117 116
100 101 118 117
101 102 119 118
103 104 121 120
104 105 122 121
105 106 123 122
106 107 124 123
107 108 125 124
108 109 126 125
109 110 127 126
110 111 128 127
111 112 129 128
112 113 130 129
113 114 131 130
114 115 132 131
115 116 133 132
116 117 134 133
117 118 135 134
118 119 136 135
120 121 138 137
121 122 139 138
122 123 140 139
123 124 141 140
124 125 142 141
125 126 143 142
126 127 144 143
127 128 145 144
128 129 146 145
129 130 147 146
130 131 148 147
131 132 149 148
132 133 150 149
133 134 151 150
134 135 152 151
135 136 153 152
