TITLE = "Solution"
VARIABLES = x, y, u, v, psiu, psiv, t, stress
ZONE T="structure" N=153 E=128 F=FEBLOCK ET=QUADRILATERAL VARLOCATION=([7,8]=cellcentered)
0.000000e+00
1.250000e+01
2.500000e+01
3.750000e+01
5.000000e+01
6.250000e+01
7.500000e+01
8.750000e+01
1.000000e+02
1.125000e+02
1.250000e+02
1.375000e+02
1.500000e+02
1.625000e+02
1.750000e+02
1.875000e+02
2.000000e+02
0.000000e+00
1.250000e+01
2.500000e+01
3.750000e+01
5.000000e+01
6.250000e+01
7.500000e+01
8.750000e+01
1.000000e+02
1.125000e+02
1.250000e+02
1.375000e+02
1.500000e+02
1.625000e+02
1.750000e+02
1.875000e+02
2.000000e+02
0.000000e+00
1.250000e+01
2.500000e+01
3.750000e+01
5.000000e+01
6.250000e+01
7.500000e+01
8.750000e+01
1.000000e+02
1.125000e+02
1.250000e+02
1.375000e+02
1.500000e+02
1.625000e+02
1.750000e+02
1.875000e+02
2.000000e+02
0.000000e+00
1.250000e+01
2.500000e+01
3.750000e+01
5.000000e+01
6.250000e+01
7.500000e+01
8.750000e+01
1.000000e+02
1.125000e+02
1.250000e+02
1.375000e+02
1.500000e+02
1.625000e+02
1.750000e+02
1.875000e+02
2.000000e+02
0.000000e+00
1.250000e+01
2.500000e+01
3.750000e+01
5.000000e+01
6.250000e+01
7.500000e+01
8.750000e+01
1.000000e+02
1.125000e+02
1.250000e+02
1.375000e+02
1.500000e+02
1.625000e+02
1.750000e+02
1.875000e+02
2.000000e+02
0.000000e+00
1.250000e+01
2.500000e+01
3.750000e+01
5.000000e+01
6.250000e+01
7.500000e+01
8.750000e+01
1.000000e+02
1.125000e+02
1.250000e+02
1.375000e+02
1.500000e+02
1.625000e+02
1.750000e+02
1.875000e+02
2.000000e+02
0.000000e+00
1.250000e+01
2.500000e+01
3.750000e+01
5.000000e+01
6.250000e+01
7.500000e+01
8.750000e+01
1.000000e+02
1.125000e+02
1.250000e+02
1.375000e+02
1.500000e+02
1.625000e+02
1.750000e+02
1.875000e+02
2.000000e+02
0.000000e+00
1.250000e+01
2.500000e+01
3.750000e+01
5.000000e+01
6.250000e+01
7.500000e+01
8.750000e+01
1.000000e+02
1.125000e+02
1.250000e+02
1.375000e+02
1.500000e+02
1.625000e+02
1.750000e+02
1.875000e+02
2.000000e+02
0.000000e+00
1.250000e+01
2.500000e+01
3.750000e+01
5.000000e+01
6.250000e+01
7.500000e+01
8.750000e+01
1.000000e+02
1.125000e+02
1.250000e+02
1.375000e+02
1.500000e+02
1.625000e+02
1.750000e+02
1.875000e+02
2.000000e+02
0.000000e+00
0.000000e+00
0.000000e+00
0.000000e+00
0.000000e+00
0.000000e+00
0.000000e+00
0.000000e+00
0.000000e+00
0.000000e+00
0.000000e+00
0.000000e+00
0.000000e+00
0.000000e+00
0.000000e+00
0.000000e+00
0.000000e+00
1.250000e+01
1.250000e+01
1.250000e+01
1.250000e+01
1.250000e+01
1.250000e+01
1.250000e+01
1.250000e+01
1.250000e+01
1.250000e+01
1.250000e+01
1.250000e+01
1.250000e+01
1.250000e+01
1.250000e+01
1.250000e+01
1.250000e+01
2.500000e+01
2.500000e+01
2.500000e+01
2.500000e+01
2.500000e+01
2.500000e+01
2.500000e+01
2.500000e+01
2.500000e+01
2.500000e+01
2.500000e+01
2.500000e+01
2.500000e+01
2.500000e+01
2.500000e+01
2.500000e+01
2.500000e+01
3.750000e+01
3.750000e+01
3.750000e+01
3.750000e+01
3.750000e+01
3.750000e+01
3.750000e+01
3.750000e+01
3.750000e+01
3.750000e+01
3.750000e+01
3.750000e+01
3.750000e+01
3.750000e+01
3.750000e+01
3.750000e+01
3.750000e+01
5.000000e+01
5.000000e+01
5.000000e+01
5.000000e+01
5.000000e+01
5.000000e+01
5.000000e+01
5.000000e+01
5.000000e+01
5.000000e+01
5.000000e+01
5.000000e+01
5.000000e+01
5.000000e+01
5.000000e+01
5.000000e+01
5.000000e+01
6.250000e+01
6.250000e+01
6.250000e+01
6.250000e+01
6.250000e+01
6.250000e+01
6.250000e+01
6.250000e+01
6.250000e+01
6.250000e+01
6.250000e+01
6.250000e+01
6.250000e+01
6.250000e+01
6.250000e+01
6.250000e+01
6.250000e+01
7.500000e+01
7.500000e+01
7.500000e+01
7.500000e+01
7.500000e+01
7.500000e+01
7.500000e+01
7.500000e+01
7.500000e+01
7.500000e+01
7.500000e+01
7.500000e+01
7.500000e+01
7.500000e+01
7.500000e+01
7.500000e+01
7.500000e+01
8.750000e+01
8.750000e+01
8.750000e+01
8.750000e+01
8.750000e+01
8.750000e+01
8.750000e+01
8.750000e+01
8.750000e+01
8.750000e+01
8.750000e+01
8.750000e+01
8.750000e+01
8.750000e+01
8.750000e+01
8.750000e+01
8.750000e+01
1.000000e+02
1.000000e+02
1.000000e+02
1.000000e+02
1.000000e+02
1.000000e+02
1.000000e+02
1.000000e+02
1.000000e+02
1.000000e+02
1.000000e+02
1.000000e+02
1.000000e+02
1.000000e+02
1.000000e+02
1.000000e+02
1.000000e+02
0.000000e+00
-8.176561e-02
-1.505564e-01
-2.138528e-01
-2.727994e-01
-3.272720e-01
-3.771537e-01
-4.224056e-01
-4.630938e-01
-4.994055e-01
-5.317008e-01
-5.606108e-01
-5.872214e-01
-6.134085e-01
-6.424073e-01
-6.780214e-01
-7.047459e-01
0.000000e+00
-4.882896e-02
-1.014326e-01
-1.500088e-01
-1.947623e-01
-2.358635e-01
-2.733975e-01
-3.074146e-01
-3.379762e-01
-3.651763e-01
-3.891530e-01
-4.100791e-01
-4.280883e-01
-4.429950e-01
-4.535095e-01
-4.558141e-01
-4.640767e-01
0.000000e+00
-3.053622e-02
-6.279010e-02
-9.496812e-02
-1.250053e-01
-1.525837e-01
-1.776809e-01
-2.003252e-01
-2.205223e-01
-2.382384e-01
-2.533783e-01
-2.657305e-01
-2.748545e-01
-2.799477e-01
-2.800891e-01
-2.780545e-01
-2.864816e-01
0.000000e+00
-1.473866e-02
-3.034151e-02
-4.604290e-02
-6.105627e-02
-7.488454e-02
-8.741850e-02
-9.862166e-02
-1.084299e-01
-1.167156e-01
-1.232669e-01
-1.277747e-01
-1.298700e-01
-1.293804e-01
-1.273693e-01
-1.279193e-01
-1.341942e-01
0.000000e+00
-1.357725e-05
-3.086537e-05
-4.809677e-05
-5.724194e-05
-4.039540e-05
3.798296e-05
2.416656e-04
6.752796e-04
1.494673e-03
2.903172e-03
5.105035e-03
8.155453e-03
1.160258e-02
1.398375e-02
1.333068e-02
9.176141e-03
0.000000e+00
1.471777e-02
3.029301e-02
4.596532e-02
6.095978e-02
7.480605e-02
8.744895e-02
9.895030e-02
1.094098e-01
1.189489e-01
1.276920e-01
1.357041e-01
1.428458e-01
1.485726e-01
1.519415e-01
1.522087e-01
1.501000e-01
0.000000e+00
3.053279e-02
6.277965e-02
9.494733e-02
1.249729e-01
1.525433e-01
1.776473e-01
2.003361e-01
2.206565e-01
2.386447e-01
2.543164e-01
2.676333e-01
2.784422e-01
2.864336e-01
2.912302e-01
2.927877e-01
2.922960e-01
0.000000e+00
4.884899e-02
1.014762e-01
1.500782e-01
1.948555e-01
2.359632e-01
2.734535e-01
3.073124e-01
3.374883e-01
3.638942e-01
3.864048e-01
4.048643e-01
4.191252e-01
4.291403e-01
4.351145e-01
4.376621e-01
4.381301e-01
0.000000e+00
8.179911e-02
1.506447e-01
2.140183e-01
2.730638e-01
3.276440e-01
3.775973e-01
4.227787e-01
4.630370e-01
4.981630e-01
5.278521e-01
5.517085e-01
5.693404e-01
5.806090e-01
5.860587e-01
5.874038e-01
5.873779e-01
0.000000e+00
-4.949498e-02
-9.716440e-02
-1.589329e-01
-2.347409e-01
-3.244467e-01
-4.270677e-01
-5.414556e-01
-6.663940e-01
-8.006828e-01
-9.432131e-01
-1.093103e+00
-1.249990e+00
-1.414713e+00
-1.591545e+00
-1.793872e+00
-2.084581e+00
0.000000e+00
-3.047002e-02
-8.019706e-02
-1.427315e-01
-2.197785e-01
-3.107084e-01
-4.145727e-01
-5.301947e-01
-6.563440e-01
-7.917989e-01
-9.354197e-01
-1.086284e+00
-1.243974e+00
-1.409305e+00
-1.586068e+00
-1.787168e+00
-2.033537e+00
0.000000e+00
-2.299234e-02
-6.843446e-02
-1.311997e-01
-2.089751e-01
-3.008410e-01
-4.056600e-01
-5.222440e-01
-6.493712e-01
-7.858369e-01
-9.305239e-01
-1.082541e+00
-1.241510e+00
-1.408113e+00
-1.585028e+00
-1.775577e+00
-1.959989e+00
0.000000e+00
-1.981318e-02
-6.258615e-02
-1.244308e-01
-2.024874e-01
-2.949188e-01
-4.003912e-01
-5.176717e-01
-6.455611e-01
-7.828876e-01
-9.285580e-01
-1.081664e+00
-1.241648e+00
-1.408435e+00
-1.581811e+00
-1.756899e+00
-1.918195e+00
0.000000e+00
-1.889733e-02
-6.081619e-02
-1.222715e-01
-2.003494e-01
-2.930107e-01
-3.987865e-01
-5.164445e-01
-6.448085e-01
-7.827260e-01
-9.290793e-01
-1.082816e+00
-1.242943e+00
-1.408278e+00
-1.576348e+00
-1.741404e+00
-1.893461e+00
0.000000e+00
-1.980142e-02
-6.257779e-02
-1.244457e-01
-2.025606e-01
-2.951115e-01
-4.008035e-01
-5.184525e-01
-6.469073e-01
-7.850095e-01
-9.315692e-01
-1.085313e+00
-1.244754e+00
-1.407864e+00
-1.571508e+00
-1.730904e+00
-1.879716e+00
0.000000e+00
-2.297316e-02
-6.842059e-02
-1.312245e-01
-2.090984e-01
-3.011671e-01
-4.063590e-01
-5.235699e-01
-6.516602e-01
-7.894515e-01
-9.356738e-01
-1.088858e+00
-1.247159e+00
-1.408131e+00
-1.568603e+00
-1.724940e+00
-1.873653e+00
0.000000e+00
-3.045203e-02
-8.018499e-02
-1.427645e-01
-2.199265e-01
-3.110919e-01
-4.153864e-01
-5.317272e-01
-6.589735e-01
-7.959254e-01
-9.412608e-01
-1.093406e+00
-1.250358e+00
-1.409538e+00
-1.567875e+00
-1.722474e+00
-1.872230e+00
0.000000e+00
-4.948755e-02
-9.716545e-02
-1.589840e-01
-2.349125e-01
-3.248564e-01
-4.279003e-01
-5.429747e-01
-6.689267e-01
-8.045353e-01
-9.484466e-01
-1.099052e+00
-1.254335e+00
-1.411774e+00
-1.568493e+00
-1.722023e+00
-1.872252e+00


0.000000e+00
6.638073e-09
1.337330e-08
1.957602e-08
2.529266e-08
3.049308e-08
3.517216e-08
3.935034e-08
4.305811e-08
4.633168e-08
4.921139e-08
5.173783e-08
5.394074e-08
5.581892e-08
5.736363e-08
5.870716e-08
5.992638e-08
0.000000e+00
3.866740e-09
9.349596e-09
1.419102e-08
1.853195e-08
2.244341e-08
2.594269e-08
2.905048e-08
3.178815e-08
3.417452e-08
3.622368e-08
3.794216e-08
3.933085e-08
4.042570e-08
4.142785e-08
4.265441e-08
4.394700e-08
0.000000e+00
2.524408e-09
6.021925e-09
9.232767e-09
1.215194e-08
1.476865e-08
1.709115e-08
1.913406e-08
2.090913e-08
2.242289e-08
2.367708e-08
2.467399e-08
2.543593e-08
2.604929e-08
2.670497e-08
2.761955e-08
2.869614e-08
0.000000e+00
1.259901e-09
2.911126e-09
4.489618e-09
5.953598e-09
7.262282e-09
8.411875e-09
9.407311e-09
1.025123e-08
1.094320e-08
1.148287e-08
1.187829e-08
1.216121e-08
1.240463e-08
1.272472e-08
1.325900e-08
1.400039e-08
0.000000e+00
6.653414e-13
4.549851e-13
-1.931245e-12
-8.286396e-12
-2.145005e-11
-4.555903e-11
-8.609179e-11
-1.493396e-10
-2.407581e-10
-3.613734e-10
-5.018340e-10
-6.357164e-10
-7.164017e-10
-6.752303e-10
-4.234141e-10
5.722738e-11
0.000000e+00
-1.258605e-09
-2.909941e-09
-4.492078e-09
-5.966144e-09
-7.296063e-09
-8.485047e-09
-9.547450e-09
-1.049708e-08
-1.134388e-08
-1.209128e-08
-1.273334e-08
-1.325306e-08
-1.362355e-08
-1.381147e-08
-1.377206e-08
-1.351173e-08
0.000000e+00
-2.523525e-09
-6.020992e-09
-9.233222e-09
-1.215637e-08
-1.478178e-08
-1.712108e-08
-1.919366e-08
-2.101739e-08
-2.260553e-08
-2.396477e-08
-2.509376e-08
-2.598288e-08
-2.661838e-08
-2.699481e-08
-2.712023e-08
-2.704350e-08
0.000000e+00
-3.868016e-09
-9.352443e-09
-1.419403e-08
-1.853281e-08
-2.243807e-08
-2.592440e-08
-2.900871e-08
-3.170767e-08
-3.403506e-08
-3.600103e-08
-3.761157e-08
-3.886859e-08
-3.977337e-08
-4.034043e-08
-4.061873e-08
-4.068533e-08
0.000000e+00
-6.645070e-09
-1.338563e-08
-1.959117e-08
-2.530555e-08
-3.049324e-08
-3.513985e-08
-3.925168e-08
-4.283929e-08
-4.591342e-08
-4.848526e-08
-5.056843e-08
-5.218098e-08
-5.334716e-08
-5.410162e-08
-5.448870e-08
-5.461178e-08
0.000000e+00
6.013220e-09
1.157282e-08
1.775156e-08
2.512731e-08
3.377597e-08
4.362418e-08
5.456154e-08
6.646703e-08
7.922765e-08
9.274884e-08
1.069710e-07
1.219140e-07
1.377786e-07
1.549604e-07
1.732095e-07
1.913572e-07
0.000000e+00
3.568526e-09
8.976442e-09
1.525493e-08
2.283250e-08
3.170600e-08
4.178089e-08
5.293432e-08
6.504370e-08
7.799589e-08
9.169623e-08
1.060828e-07
1.211517e-07
1.369917e-07
1.537632e-07
1.715445e-07
1.894472e-07
0.000000e+00
2.193885e-09
6.903365e-09
1.322311e-08
2.095798e-08
3.002311e-08
4.029030e-08
5.162939e-08
6.391731e-08
7.704184e-08
9.090683e-08
1.054388e-07
1.205893e-07
1.363156e-07
1.525972e-07
1.697361e-07
1.870727e-07
0.000000e+00
1.565143e-09
5.833795e-09
1.205838e-08
1.986960e-08
2.904916e-08
3.943589e-08
5.089332e-08
6.329805e-08
7.653725e-08
9.050873e-08
1.051195e-07
1.202756e-07
1.358614e-07
1.517889e-07
1.682886e-07
1.847916e-07
0.000000e+00
1.388401e-09
5.515088e-09
1.168707e-08
1.951932e-08
2.874185e-08
3.917701e-08
5.068541e-08
6.314288e-08
7.643341e-08
9.044588e-08
1.050684e-07
1.201768e-07
1.356206e-07
1.512568e-07
1.671976e-07
1.828866e-07
0.000000e+00
1.566491e-09
5.838354e-09
1.206933e-08
1.989116e-08
2.908710e-08
3.949755e-08
5.098651e-08
6.342840e-08
7.670245e-08
9.068833e-08
1.052601e-07
1.202763e-07
1.355674e-07
1.509552e-07
1.664365e-07
1.815364e-07
0.000000e+00
2.196052e-09
6.911326e-09
1.324239e-08
2.099595e-08
3.009003e-08
4.039911e-08
5.179398e-08
6.414768e-08
7.733418e-08
9.122502e-08
1.056842e-07
1.205605e-07
1.356772e-07
1.508435e-07
1.659843e-07
1.807230e-07
0.000000e+00
3.571318e-09
8.986746e-09
1.527900e-08
2.287929e-08
3.178782e-08
4.191310e-08
5.313302e-08
6.531969e-08
7.834237e-08
9.206579e-08
1.063463e-07
1.210268e-07
1.359329e-07
1.508869e-07
1.657818e-07
1.803390e-07
0.000000e+00
6.017823e-09
1.158513e-08
1.777794e-08
2.517653e-08
3.385972e-08
4.375643e-08
5.475565e-08
6.672908e-08
7.954316e-08
9.305859e-08
1.071273e-07
1.215899e-07
1.362774e-07
1.510311e-07
1.657492e-07
1.802285e-07


2.389118e-01
2.389116e-01
2.389117e-01
2.389119e-01
2.389123e-01
2.389125e-01
2.389128e-01
2.389130e-01
2.389132e-01
2.389133e-01
2.389135e-01
2.389136e-01
2.389136e-01
2.389135e-01
2.389131e-01
2.389129e-01
2.389122e-01
2.389121e-01
2.389121e-01
2.389123e-01
2.389126e-01
2.389128e-01
2.389130e-01
2.389132e-01
2.389133e-01
2.389134e-01
2.389136e-01
2.389136e-01
2.389136e-01
2.389135e-01
2.389131e-01
2.389128e-01
2.389130e-01
2.389129e-01
2.389129e-01
2.389130e-01
2.389131e-01
2.389132e-01
2.389133e-01
2.389134e-01
2.389135e-01
2.389136e-01
2.389137e-01
2.389137e-01
2.389137e-01
2.389135e-01
2.389132e-01
2.389130e-01
2.389136e-01
2.389135e-01
2.389134e-01
2.389134e-01
2.389135e-01
2.389135e-01
2.389136e-01
2.389136e-01
2.389137e-01
2.389137e-01
2.389137e-01
2.389137e-01
2.389137e-01
2.389135e-01
2.389134e-01
2.389133e-01
2.389136e-01
2.389135e-01
2.389134e-01
2.389134e-01
2.389135e-01
2.389135e-01
2.389136e-01
2.389136e-01
2.389137e-01
2.389137e-01
2.389137e-01
2.389137e-01
2.389137e-01
2.389136e-01
2.389136e-01
2.389136e-01
2.389130e-01
2.389129e-01
2.389129e-01
2.389130e-01
2.389131e-01
2.389132e-01
2.389133e-01
2.389134e-01
2.389135e-01
2.389136e-01
2.389136e-01
2.389136e-01
2.389137e-01
2.389137e-01
2.389138e-01
2.389138e-01
2.389122e-01
2.389121e-01
2.389121e-01
2.389123e-01
2.389126e-01
2.389128e-01
2.389130e-01
2.389131e-01
2.389133e-01
2.389134e-01
2.389135e-01
2.389136e-01
2.389137e-01
2.389138e-01
2.389139e-01
2.389139e-01
2.389118e-01
2.389116e-01
2.389117e-01
2.389119e-01
2.389123e-01
2.389125e-01
2.389128e-01
2.389130e-01
2.389132e-01
2.389134e-01
2.389135e-01
2.389137e-01
2.389138e-01
2.389139e-01
2.389140e-01
2.389140e-01


9.849585e-01
9.870915e-01
9.890647e-01
9.905836e-01
9.919935e-01
9.932936e-01
9.944780e-01
9.955329e-01
9.964473e-01
9.972120e-01
9.978201e-01
9.982655e-01
9.985424e-01
9.986412e-01
9.987125e-01
9.943166e-01
9.943095e-01
9.933321e-01
9.939609e-01
9.947817e-01
9.955469e-01
9.962424e-01
9.968720e-01
9.974423e-01
9.979586e-01
9.984263e-01
9.988507e-01
9.992350e-01
9.995702e-01
9.997898e-01
9.992346e-01
9.917098e-01
9.980228e-01
9.974614e-01
9.973098e-01
9.975230e-01
9.978035e-01
9.980751e-01
9.983273e-01
9.985656e-01
9.987965e-01
9.990216e-01
9.992318e-01
9.993945e-01
9.994285e-01
9.991354e-01
9.980722e-01
9.961599e-01
9.995976e-01
9.991881e-01
9.989352e-01
9.988710e-01
9.988967e-01
9.989397e-01
9.989826e-01
9.990246e-01
9.990657e-01
9.991002e-01
9.991098e-01
9.990585e-01
9.988960e-01
9.986042e-01
9.983567e-01
9.982941e-01
9.995991e-01
9.991903e-01
9.989371e-01
9.988707e-01
9.988903e-01
9.989213e-01
9.989428e-01
9.989501e-01
9.989402e-01
9.989085e-01
9.988495e-01
9.987644e-01
9.986834e-01
9.986995e-01
9.989285e-01
9.993249e-01
9.980256e-01
9.974657e-01
9.973140e-01
9.975231e-01
9.977926e-01
9.980415e-01
9.982521e-01
9.984214e-01
9.985482e-01
9.986336e-01
9.986875e-01
9.987403e-01
9.988512e-01
9.990836e-01
9.994327e-01
9.997937e-01
9.943090e-01
9.933317e-01
9.939601e-01
9.947794e-01
9.955410e-01
9.962288e-01
9.968437e-01
9.973882e-01
9.978626e-01
9.982682e-01
9.986115e-01
9.989113e-01
9.992001e-01
9.995028e-01
9.997859e-01
9.999642e-01
9.849482e-01
9.870754e-01
9.890450e-01
9.905615e-01
9.919737e-01
9.932864e-01
9.945025e-01
9.956191e-01
9.966366e-01
9.975529e-01
9.983571e-01
9.990242e-01
9.995205e-01
9.998267e-01
9.999660e-01
9.999993e-01
1 2 19 18
2 3 20 19
3 4 21 20
4 5 22 21
5 6 23 22
6 7 24 23
7 8 25 24
8 9 26 25
9 10 27 26
10 11 28 27
11 12 29 28
12 13 30 29
13 14 31 30
14 15 32 31
15 16 33 32
16 17 34 33
18 19 36 35
19 20 37 36
20 21 38 37
21 22 39 38
22 23 40 39
23 24 41 40
24 25 42 41
25 26 43 42
26 27 44 43
27 28 45 44
28 29 46 45
29 30 47 46
30 31 48 47
31 32 49 48
32 33 50 49
33 34 51 50
35 36 53 52
36 37 54 53
37 38 55 54
38 39 56 55
39 40 57 56
40 41 58 57
41 42 59 58
42 43 60 59
43 44 61 60
44 45 62 61
45 46 63 62
46 47 64 63
47 48 65 64
48 49 66 65
49 50 67 66
50 51 68 67
52 53 70 69
53 54 71 70
54 55 72 71
55 56 73 72
56 57 74 73
57 58 75 74
58 59 76 75
59 60 77 76
60 61 78 77
61 62 79 78
62 63 80 79
63 64 81 80
64 65 82 81
65 66 83 82
66 67 84 83
67 68 85 84
69 70 87 86
70 71 88 87
71 72 89 88
72 73 90 89
73 74 91 90
74 75 92 91
75 76 93 92
76 77 94 93
77 78 95 94
78 79 96 95
79 80 97 96
80 81 98 97
81 82 99 98
82 83 100 99
83 84 101 100
84 85 102 101
86 87 104 103
87 88 105 104
88 89 106 105
89 90 107 106
90 91 108 107
91 92 109 108
92 93 110 109
93 94 111 110
94 95 112 111
95 96 113 112
96 97 114 113
97 98 115 114
98 99 116 115
99 100 117 116
100 101 118 117
101 102 119 118
103 104 121 120
104 105 122 121
105 106 123 122
106 107 124 123
107 108 125 124
108 109 126 125
109 110 127 126
110 111 128 127
111 112 129 128
112 113 130 129
113 114 131 130
114 115 132 131
115 116 133 132
116 117 134 133
117 118 135 134
118 119 136 135
120 121 138 137
121 122 139 138
122 123 140 139
123 124 141 140
124 125 142 141
125 126 143 142
126 127 144 143
127 128 145 144
128 129 146 145
129 130 147 146
130 131 148 147
131 132 149 148
132 133 150 149
133 134 151 150
134 135 152 151
135 136 153 152
