TITLE = "Solution"
VARIABLES = x, y, u, v, psiu, psiv, t, stress
ZONE T="structure" N=153 E=128 F=FEBLOCK ET=QUADRILATERAL VARLOCATION=([7,8]=cellcentered)
0.000000e+00
1.250000e+01
2.500000e+01
3.750000e+01
5.000000e+01
6.250000e+01
7.500000e+01
8.750000e+01
1.000000e+02
1.125000e+02
1.250000e+02
1.375000e+02
1.500000e+02
1.625000e+02
1.750000e+02
1.875000e+02
2.000000e+02
0.000000e+00
1.250000e+01
2.500000e+01
3.750000e+01
5.000000e+01
6.250000e+01
7.500000e+01
8.750000e+01
1.000000e+02
1.125000e+02
1.250000e+02
1.375000e+02
1.500000e+02
1.625000e+02
1.750000e+02
1.875000e+02
2.000000e+02
0.000000e+00
1.250000e+01
2.500000e+01
3.750000e+01
5.000000e+01
6.250000e+01
7.500000e+01
8.750000e+01
1.000000e+02
1.125000e+02
1.250000e+02
1.375000e+02
1.500000e+02
1.625000e+02
1.750000e+02
1.875000e+02
2.000000e+02
0.000000e+00
1.250000e+01
2.500000e+01
3.750000e+01
5.000000e+01
6.250000e+01
7.500000e+01
8.750000e+01
1.000000e+02
1.125000e+02
1.250000e+02
1.375000e+02
1.500000e+02
1.625000e+02
1.750000e+02
1.875000e+02
2.000000e+02
0.000000e+00
1.250000e+01
2.500000e+01
3.750000e+01
5.000000e+01
6.250000e+01
7.500000e+01
8.750000e+01
1.000000e+02
1.125000e+02
1.250000e+02
1.375000e+02
1.500000e+02
1.625000e+02
1.750000e+02
1.875000e+02
2.000000e+02
0.000000e+00
1.250000e+01
2.500000e+01
3.750000e+01
5.000000e+01
6.250000e+01
7.500000e+01
8.750000e+01
1.000000e+02
1.125000e+02
1.250000e+02
1.375000e+02
1.500000e+02
1.625000e+02
1.750000e+02
1.875000e+02
2.000000e+02
0.000000e+00
1.250000e+01
2.500000e+01
3.750000e+01
5.000000e+01
6.250000e+01
7.500000e+01
8.750000e+01
1.000000e+02
1.125000e+02
1.250000e+02
1.375000e+02
1.500000e+02
1.625000e+02
1.750000e+02
1.875000e+02
2.000000e+02
0.000000e+00
1.250000e+01
2.500000e+01
3.750000e+01
5.000000e+01
6.250000e+01
7.500000e+01
8.750000e+01
1.000000e+02
1.125000e+02
1.250000e+02
1.375000e+02
1.500000e+02
1.625000e+02
1.750000e+02
1.875000e+02
2.000000e+02
0.000000e+00
1.250000e+01
2.500000e+01
3.750000e+01
5.000000e+01
6.250000e+01
7.500000e+01
8.750000e+01
1.000000e+02
1.125000e+02
1.250000e+02
1.375000e+02
1.500000e+02
1.625000e+02
1.750000e+02
1.875000e+02
2.000000e+02
0.000000e+00
0.000000e+00
0.000000e+00
0.000000e+00
0.000000e+00
0.000000e+00
0.000000e+00
0.000000e+00
0.000000e+00
0.000000e+00
0.000000e+00
0.000000e+00
0.000000e+00
0.000000e+00
0.000000e+00
0.000000e+00
0.000000e+00
1.250000e+01
1.250000e+01
1.250000e+01
1.250000e+01
1.250000e+01
1.250000e+01
1.250000e+01
1.250000e+01
1.250000e+01
1.250000e+01
1.250000e+01
1.250000e+01
1.250000e+01
1.250000e+01
1.250000e+01
1.250000e+01
1.250000e+01
2.500000e+01
2.500000e+01
2.500000e+01
2.500000e+01
2.500000e+01
2.500000e+01
2.500000e+01
2.500000e+01
2.500000e+01
2.500000e+01
2.500000e+01
2.500000e+01
2.500000e+01
2.500000e+01
2.500000e+01
2.500000e+01
2.500000e+01
3.750000e+01
3.750000e+01
3.750000e+01
3.750000e+01
3.750000e+01
3.750000e+01
3.750000e+01
3.750000e+01
3.750000e+01
3.750000e+01
3.750000e+01
3.750000e+01
3.750000e+01
3.750000e+01
3.750000e+01
3.750000e+01
3.750000e+01
5.000000e+01
5.000000e+01
5.000000e+01
5.000000e+01
5.000000e+01
5.000000e+01
5.000000e+01
5.000000e+01
5.000000e+01
5.000000e+01
5.000000e+01
5.000000e+01
5.000000e+01
5.000000e+01
5.000000e+01
5.000000e+01
5.000000e+01
6.250000e+01
6.250000e+01
6.250000e+01
6.250000e+01
6.250000e+01
6.250000e+01
6.250000e+01
6.250000e+01
6.250000e+01
6.250000e+01
6.250000e+01
6.250000e+01
6.250000e+01
6.250000e+01
6.250000e+01
6.250000e+01
6.250000e+01
7.500000e+01
7.500000e+01
7.500000e+01
7.500000e+01
7.500000e+01
7.500000e+01
7.500000e+01
7.500000e+01
7.500000e+01
7.500000e+01
7.500000e+01
7.500000e+01
7.500000e+01
7.500000e+01
7.500000e+01
7.500000e+01
7.500000e+01
8.750000e+01
8.750000e+01
8.750000e+01
8.750000e+01
8.750000e+01
8.750000e+01
8.750000e+01
8.750000e+01
8.750000e+01
8.750000e+01
8.750000e+01
8.750000e+01
8.750000e+01
8.750000e+01
8.750000e+01
8.750000e+01
8.750000e+01
1.000000e+02
1.000000e+02
1.000000e+02
1.000000e+02
1.000000e+02
1.000000e+02
1.000000e+02
1.000000e+02
1.000000e+02
1.000000e+02
1.000000e+02
1.000000e+02
1.000000e+02
1.000000e+02
1.000000e+02
1.000000e+02
1.000000e+02
0.000000e+00
-1.264059e-01
-2.327529e-01
-3.305997e-01
-4.217132e-01
-5.059039e-01
-5.829932e-01
-6.529226e-01
-7.157955e-01
-7.719028e-01
-8.218015e-01
-8.664680e-01
-9.075805e-01
-9.480379e-01
-9.928388e-01
-1.047860e+00
-1.089148e+00
0.000000e+00
-7.549121e-02
-1.568161e-01
-2.319089e-01
-3.010851e-01
-3.646098e-01
-4.226167e-01
-4.751848e-01
-5.224099e-01
-5.644383e-01
-6.014844e-01
-6.338159e-01
-6.616395e-01
-6.846694e-01
-7.009135e-01
-7.044739e-01
-7.172389e-01
0.000000e+00
-4.721199e-02
-9.707758e-02
-1.468213e-01
-1.932507e-01
-2.358753e-01
-2.746619e-01
-3.096551e-01
-3.408646e-01
-3.682390e-01
-3.916316e-01
-4.107160e-01
-4.248126e-01
-4.326813e-01
-4.328998e-01
-4.297564e-01
-4.427759e-01
0.000000e+00
-2.278793e-02
-4.691083e-02
-7.118364e-02
-9.439040e-02
-1.157632e-01
-1.351340e-01
-1.524468e-01
-1.676029e-01
-1.804057e-01
-1.905283e-01
-1.974931e-01
-2.007304e-01
-1.999743e-01
-1.968673e-01
-1.977171e-01
-2.074115e-01
0.000000e+00
-2.096993e-05
-4.767156e-05
-7.428330e-05
-8.839844e-05
-6.235185e-05
5.876647e-05
3.734838e-04
1.043444e-03
2.309422e-03
4.485533e-03
7.887324e-03
1.260003e-02
1.792556e-02
2.160420e-02
2.059514e-02
1.417663e-02
0.000000e+00
2.275567e-02
4.683593e-02
7.106383e-02
9.424138e-02
1.156421e-01
1.351812e-01
1.529547e-01
1.691172e-01
1.838564e-01
1.973653e-01
2.097441e-01
2.207779e-01
2.296255e-01
2.348301e-01
2.352428e-01
2.319850e-01
0.000000e+00
4.720670e-02
9.706146e-02
1.467892e-01
1.932005e-01
2.358129e-01
2.746102e-01
3.096720e-01
3.410721e-01
3.688668e-01
3.930810e-01
4.136560e-01
4.303556e-01
4.427020e-01
4.501124e-01
4.525186e-01
4.517589e-01
0.000000e+00
7.552217e-02
1.568834e-01
2.320163e-01
3.012290e-01
3.647639e-01
4.227032e-01
4.750268e-01
5.216561e-01
5.624575e-01
5.972384e-01
6.257590e-01
6.477920e-01
6.632648e-01
6.724945e-01
6.764304e-01
6.771534e-01
0.000000e+00
1.264576e-01
2.328895e-01
3.308555e-01
4.221218e-01
5.064786e-01
5.836786e-01
6.534990e-01
7.157078e-01
7.699830e-01
8.158553e-01
8.527141e-01
8.799550e-01
8.973645e-01
9.057837e-01
9.078618e-01
9.078217e-01
0.000000e+00
-7.651548e-02
-1.502025e-01
-2.456816e-01
-3.628611e-01
-5.015210e-01
-6.601414e-01
-8.369458e-01
-1.030054e+00
-1.237609e+00
-1.457899e+00
-1.689559e+00
-1.932030e+00
-2.186607e+00
-2.459890e+00
-2.772564e+00
-3.221781e+00
0.000000e+00
-4.710378e-02
-1.239722e-01
-2.206376e-01
-3.397346e-01
-4.802884e-01
-6.408316e-01
-8.195444e-01
-1.014524e+00
-1.223883e+00
-1.445858e+00
-1.679024e+00
-1.922735e+00
-2.178252e+00
-2.451429e+00
-2.762207e+00
-3.142921e+00
0.000000e+00
-3.554250e-02
-1.057877e-01
-2.028113e-01
-3.230360e-01
-4.650379e-01
-6.270577e-01
-8.072581e-01
-1.003750e+00
-1.214670e+00
-1.438293e+00
-1.673241e+00
-1.918929e+00
-2.176410e+00
-2.449823e+00
-2.744299e+00
-3.029293e+00
0.000000e+00
-3.062572e-02
-9.674557e-02
-1.923473e-01
-3.130076e-01
-4.558845e-01
-6.189150e-01
-8.001922e-01
-9.978621e-01
-1.210113e+00
-1.435256e+00
-1.671886e+00
-1.919142e+00
-2.176908e+00
-2.444852e+00
-2.715442e+00
-2.964724e+00
0.000000e+00
-2.920893e-02
-9.400877e-02
-1.890091e-01
-3.097026e-01
-4.529354e-01
-6.164348e-01
-7.982955e-01
-9.966990e-01
-1.209863e+00
-1.436061e+00
-1.673666e+00
-1.921142e+00
-2.176666e+00
-2.436413e+00
-2.691503e+00
-2.926512e+00
0.000000e+00
-3.060755e-02
-9.673264e-02
-1.923704e-01
-3.131207e-01
-4.561823e-01
-6.195520e-01
-8.013986e-01
-9.999420e-01
-1.213392e+00
-1.439908e+00
-1.677524e+00
-1.923941e+00
-2.176025e+00
-2.428935e+00
-2.675281e+00
-2.905276e+00
0.000000e+00
-3.551287e-02
-1.057662e-01
-2.028497e-01
-3.232264e-01
-4.655417e-01
-6.281376e-01
-8.093066e-01
-1.007286e+00
-1.220255e+00
-1.446250e+00
-1.683001e+00
-1.927657e+00
-2.176438e+00
-2.424447e+00
-2.666068e+00
-2.895910e+00
0.000000e+00
-4.707599e-02
-1.239536e-01
-2.206886e-01
-3.399633e-01
-4.808809e-01
-6.420888e-01
-8.219122e-01
-1.018587e+00
-1.230258e+00
-1.454882e+00
-1.690027e+00
-1.932599e+00
-2.178612e+00
-2.423323e+00
-2.662258e+00
-2.893711e+00
0.000000e+00
-7.650400e-02
-1.502042e-01
-2.457605e-01
-3.631262e-01
-5.021541e-01
-6.614277e-01
-8.392929e-01
-1.033967e+00
-1.243561e+00
-1.465985e+00
-1.698751e+00
-1.938743e+00
-2.182066e+00
-2.424278e+00
-2.661561e+00
-2.893745e+00


0.000000e+00
-3.442879e-08
-6.874998e-08
-1.007978e-07
-1.311812e-07
-1.597197e-07
-1.862376e-07
-2.106559e-07
-2.329515e-07
-2.531511e-07
-2.713288e-07
-2.875809e-07
-3.019451e-07
-3.142574e-07
-3.243108e-07
-3.328267e-07
-3.403281e-07
0.000000e+00
-1.892718e-08
-4.625451e-08
-7.111924e-08
-9.423865e-08
-1.158429e-07
-1.358433e-07
-1.541721e-07
-1.707827e-07
-1.856327e-07
-1.986700e-07
-2.098163e-07
-2.189846e-07
-2.263404e-07
-2.330523e-07
-2.409001e-07
-2.488812e-07
0.000000e+00
-1.164134e-08
-2.886652e-08
-4.525999e-08
-6.078402e-08
-7.528360e-08
-8.864066e-08
-1.007824e-07
-1.116420e-07
-1.211429e-07
-1.291972e-07
-1.357393e-07
-1.408507e-07
-1.450302e-07
-1.494105e-07
-1.552377e-07
-1.619073e-07
0.000000e+00
-5.601886e-09
-1.376291e-08
-2.177229e-08
-2.952081e-08
-3.675682e-08
-4.336828e-08
-4.929192e-08
-5.446539e-08
-5.882154e-08
-6.230442e-08
-6.491920e-08
-6.682660e-08
-6.845610e-08
-7.053493e-08
-7.392754e-08
-7.857728e-08
0.000000e+00
-7.984802e-12
-1.107700e-11
-9.052808e-13
3.393597e-11
1.116999e-10
2.592237e-10
5.123390e-10
9.127879e-10
1.498170e-09
2.279682e-09
3.204687e-09
4.112253e-09
4.701469e-09
4.498981e-09
2.903077e-09
-1.718769e-10
0.000000e+00
5.587142e-09
1.374132e-08
2.176528e-08
2.956866e-08
3.693049e-08
4.378477e-08
5.013039e-08
5.597928e-08
6.133439e-08
6.616868e-08
7.040275e-08
7.388995e-08
7.641599e-08
7.771659e-08
7.747986e-08
7.578614e-08
0.000000e+00
1.163224e-08
2.885185e-08
4.524791e-08
6.079039e-08
7.533900e-08
8.879881e-08
1.011300e-07
1.123077e-07
1.222996e-07
1.310476e-07
1.384524e-07
1.443705e-07
1.486410e-07
1.511771e-07
1.520215e-07
1.515209e-07
0.000000e+00
1.893498e-08
4.626898e-08
7.113085e-08
9.423169e-08
1.157907e-07
1.357026e-07
1.538762e-07
1.702351e-07
1.847029e-07
1.971973e-07
2.076249e-07
2.158832e-07
2.218871e-07
2.256687e-07
2.275295e-07
2.279811e-07
0.000000e+00
3.447216e-08
6.882702e-08
1.008933e-07
1.312629e-07
1.597198e-07
1.860277e-07
2.100128e-07
2.315185e-07
2.503986e-07
2.665297e-07
2.798296e-07
2.902748e-07
2.979165e-07
3.029100e-07
3.055006e-07
3.063366e-07
0.000000e+00
-3.115546e-08
-6.129810e-08
-9.531666e-08
-1.358678e-07
-1.833707e-07
-2.375684e-07
-2.980230e-07
-3.642096e-07
-4.356039e-07
-5.117491e-07
-5.923679e-07
-6.776519e-07
-7.688717e-07
-8.682673e-07
-9.738545e-07
-1.078478e-06
0.000000e+00
-1.907322e-08
-4.835287e-08
-8.246829e-08
-1.236172e-07
-1.719079e-07
-2.270004e-07
-2.883930e-07
-3.555419e-07
-4.279105e-07
-5.050284e-07
-5.865899e-07
-6.726190e-07
-7.636732e-07
-8.606246e-07
-9.635499e-07
-1.066816e-06
0.000000e+00
-1.240879e-08
-3.794660e-08
-7.186569e-08
-1.134497e-07
-1.624344e-07
-2.183220e-07
-2.805638e-07
-3.486014e-07
-4.218907e-07
-4.999392e-07
-5.823532e-07
-6.688566e-07
-7.591885e-07
-8.531831e-07
-9.523277e-07
-1.052230e-06
0.000000e+00
-9.249059e-09
-3.240200e-08
-6.561741e-08
-1.073901e-07
-1.568191e-07
-2.132427e-07
-2.760711e-07
-3.447334e-07
-4.186714e-07
-4.973454e-07
-5.802290e-07
-6.667531e-07
-7.561997e-07
-8.479795e-07
-9.432305e-07
-1.038060e-06
0.000000e+00
-8.327702e-09
-3.070230e-08
-6.359656e-08
-1.054189e-07
-1.550352e-07
-2.117003e-07
-2.748062e-07
-3.437723e-07
-4.180159e-07
-4.969366e-07
-5.798850e-07
-6.660976e-07
-7.546165e-07
-8.444822e-07
-9.362082e-07
-1.026030e-06
0.000000e+00
-9.256271e-09
-3.243061e-08
-6.568921e-08
-1.075335e-07
-1.570725e-07
-2.136537e-07
-2.766897e-07
-3.455939e-07
-4.197558e-07
-4.985180e-07
-5.811421e-07
-6.667515e-07
-7.542504e-07
-8.424382e-07
-9.311977e-07
-1.017351e-06
0.000000e+00
-1.242043e-08
-3.799639e-08
-7.199122e-08
-1.137006e-07
-1.628784e-07
-2.190431e-07
-2.816504e-07
-3.501143e-07
-4.237989e-07
-5.020006e-07
-5.839209e-07
-6.686217e-07
-7.549585e-07
-8.416534e-07
-9.281829e-07
-1.012034e-06
0.000000e+00
-1.908785e-08
-4.841535e-08
-8.262180e-08
-1.239219e-07
-1.724451e-07
-2.278704e-07
-2.896985e-07
-3.573489e-07
-4.301664e-07
-5.074127e-07
-5.882468e-07
-6.716995e-07
-7.566495e-07
-8.419247e-07
-9.268251e-07
-1.009482e-06
0.000000e+00
-3.117974e-08
-6.137028e-08
-9.548090e-08
-1.361834e-07
-1.839156e-07
-2.384343e-07
-2.992960e-07
-3.659252e-07
-4.376587e-07
-5.137419e-07
-5.933148e-07
-6.754024e-07
-7.589331e-07
-8.428818e-07
-9.266028e-07
-1.008734e-06


3.693995e-01
3.693939e-01
3.693611e-01
3.693147e-01
3.692762e-01
3.692431e-01
3.692136e-01
3.691875e-01
3.691649e-01
3.691457e-01
3.691299e-01
3.691175e-01
3.691085e-01
3.691042e-01
3.691039e-01
3.691047e-01
3.693343e-01
3.693327e-01
3.693099e-01
3.692751e-01
3.692451e-01
3.692187e-01
3.691950e-01
3.691739e-01
3.691555e-01
3.691397e-01
3.691265e-01
3.691161e-01
3.691087e-01
3.691053e-01
3.691052e-01
3.691059e-01
3.692299e-01
3.692325e-01
3.692237e-01
3.692068e-01
3.691912e-01
3.691762e-01
3.691625e-01
3.691500e-01
3.691389e-01
3.691292e-01
3.691209e-01
3.691141e-01
3.691092e-01
3.691067e-01
3.691060e-01
3.691057e-01
3.691582e-01
3.691626e-01
3.691630e-01
3.691589e-01
3.691528e-01
3.691460e-01
3.691395e-01
3.691334e-01
3.691279e-01
3.691228e-01
3.691182e-01
3.691142e-01
3.691106e-01
3.691077e-01
3.691052e-01
3.691032e-01
3.691581e-01
3.691625e-01
3.691630e-01
3.691589e-01
3.691529e-01
3.691462e-01
3.691399e-01
3.691341e-01
3.691289e-01
3.691242e-01
3.691199e-01
3.691158e-01
3.691117e-01
3.691073e-01
3.691028e-01
3.690997e-01
3.692299e-01
3.692324e-01
3.692237e-01
3.692069e-01
3.691913e-01
3.691766e-01
3.691632e-01
3.691513e-01
3.691408e-01
3.691318e-01
3.691240e-01
3.691172e-01
3.691108e-01
3.691048e-01
3.690995e-01
3.690963e-01
3.693343e-01
3.693327e-01
3.693100e-01
3.692751e-01
3.692452e-01
3.692190e-01
3.691954e-01
3.691745e-01
3.691563e-01
3.691407e-01
3.691277e-01
3.691171e-01
3.691084e-01
3.691015e-01
3.690964e-01
3.690937e-01
3.693995e-01
3.693940e-01
3.693613e-01
3.693148e-01
3.692763e-01
3.692431e-01
3.692134e-01
3.691872e-01
3.691642e-01
3.691447e-01
3.691287e-01
3.691159e-01
3.691061e-01
3.690991e-01
3.690945e-01
3.690923e-01


9.640499e-01
9.691486e-01
9.738680e-01
9.775025e-01
9.808744e-01
9.839824e-01
9.868131e-01
9.893337e-01
9.915178e-01
9.933442e-01
9.947963e-01
9.958599e-01
9.965210e-01
9.967568e-01
9.969269e-01
9.864348e-01
9.863983e-01
9.840633e-01
9.855685e-01
9.875326e-01
9.893628e-01
9.910256e-01
9.925303e-01
9.938929e-01
9.951263e-01
9.962432e-01
9.972565e-01
9.981739e-01
9.989742e-01
9.994982e-01
9.981731e-01
9.802127e-01
9.952740e-01
9.939330e-01
9.935720e-01
9.940825e-01
9.947534e-01
9.954030e-01
9.960058e-01
9.965753e-01
9.971267e-01
9.976643e-01
9.981662e-01
9.985547e-01
9.986359e-01
9.979364e-01
9.953987e-01
9.908343e-01
9.990386e-01
9.980604e-01
9.974564e-01
9.973035e-01
9.973650e-01
9.974681e-01
9.975708e-01
9.976711e-01
9.977696e-01
9.978520e-01
9.978750e-01
9.977527e-01
9.973648e-01
9.966684e-01
9.960778e-01
9.959283e-01
9.990421e-01
9.980655e-01
9.974610e-01
9.973026e-01
9.973498e-01
9.974242e-01
9.974758e-01
9.974933e-01
9.974699e-01
9.973944e-01
9.972536e-01
9.970506e-01
9.968574e-01
9.968959e-01
9.974425e-01
9.983886e-01
9.952808e-01
9.939433e-01
9.935818e-01
9.940826e-01
9.947274e-01
9.953227e-01
9.958262e-01
9.962309e-01
9.965339e-01
9.967380e-01
9.968670e-01
9.969932e-01
9.972579e-01
9.978127e-01
9.986460e-01
9.995076e-01
9.863970e-01
9.840624e-01
9.855665e-01
9.875269e-01
9.893485e-01
9.909929e-01
9.924626e-01
9.937636e-01
9.948970e-01
9.958656e-01
9.966855e-01
9.974014e-01
9.980906e-01
9.988132e-01
9.994889e-01
9.999145e-01
9.640253e-01
9.691103e-01
9.738210e-01
9.774497e-01
9.808270e-01
9.839652e-01
9.868716e-01
9.895395e-01
9.919698e-01
9.941580e-01
9.960782e-01
9.976709e-01
9.988556e-01
9.995865e-01
9.999190e-01
9.999983e-01
1 2 19 18
2 3 20 19
3 4 21 20
4 5 22 21
5 6 23 22
6 7 24 23
7 8 25 24
8 9 26 25
9 10 27 26
10 11 28 27
11 12 29 28
12 13 30 29
13 14 31 30
14 15 32 31
15 16 33 32
16 17 34 33
18 19 36 35
19 20 37 36
20 21 38 37
21 22 39 38
22 23 40 39
23 24 41 40
24 25 42 41
25 26 43 42
26 27 44 43
27 28 45 44
28 29 46 45
29 30 47 46
30 31 48 47
31 32 49 48
32 33 50 49
33 34 51 50
35 36 53 52
36 37 54 53
37 38 55 54
38 39 56 55
39 40 57 56
40 41 58 57
41 42 59 58
42 43 60 59
43 44 61 60
44 45 62 61
45 46 63 62
46 47 64 63
47 48 65 64
48 49 66 65
49 50 67 66
50 51 68 67
52 53 70 69
53 54 71 70
54 55 72 71
55 56 73 72
56 57 74 73
57 58 75 74
58 59 76 75
59 60 77 76
60 61 78 77
61 62 79 78
62 63 80 79
63 64 81 80
64 65 82 81
65 66 83 82
66 67 84 83
67 68 85 84
69 70 87 86
70 71 88 87
71 72 89 88
72 73 90 89
73 74 91 90
74 75 92 91
75 76 93 92
76 77 94 93
77 78 95 94
78 79 96 95
79 80 97 96
80 81 98 97
81 82 99 98
82 83 100 99
83 84 101 100
84 85 102 101
86 87 104 103
87 88 105 104
88 89 106 105
89 90 107 106
90 91 108 107
91 92 109 108
92 93 110 109
93 94 111 110
94 95 112 111
95 96 113 112
96 97 114 113
97 98 115 114
98 99 116 115
99 100 117 116
100 101 118 117
101 102 119 118
103 104 121 120
104 105 122 121
105 106 123 122
106 107 124 123
107 108 125 124
108 109 126 125
109 110 127 126
110 111 128 127
111 112 129 128
112 113 130 129
113 114 131 130
114 115 132 131
115 116 133 132
116 117 134 133
117 118 135 134
118 119 136 135
120 121 138 137
121 122 139 138
122 123 140 139
123 124 141 140
124 125 142 141
125 126 143 142
126 127 144 143
127 128 145 144
128 129 146 145
129 130 147 146
130 131 148 147
131 132 149 148
132 133 150 149
133 134 151 150
134 135 152 151
135 136 153 152
