TITLE = "Solution"
VARIABLES = x, y, u, v, psiu, psiv, t, stress
ZONE T="structure" N=153 E=128 F=FEBLOCK ET=QUADRILATERAL VARLOCATION=([7,8]=cellcentered)
0.000000e+00
1.250000e+01
2.500000e+01
3.750000e+01
5.000000e+01
6.250000e+01
7.500000e+01
8.750000e+01
1.000000e+02
1.125000e+02
1.250000e+02
1.375000e+02
1.500000e+02
1.625000e+02
1.750000e+02
1.875000e+02
2.000000e+02
0.000000e+00
1.250000e+01
2.500000e+01
3.750000e+01
5.000000e+01
6.250000e+01
7.500000e+01
8.750000e+01
1.000000e+02
1.125000e+02
1.250000e+02
1.375000e+02
1.500000e+02
1.625000e+02
1.750000e+02
1.875000e+02
2.000000e+02
0.000000e+00
1.250000e+01
2.500000e+01
3.750000e+01
5.000000e+01
6.250000e+01
7.500000e+01
8.750000e+01
1.000000e+02
1.125000e+02
1.250000e+02
1.375000e+02
1.500000e+02
1.625000e+02
1.750000e+02
1.875000e+02
2.000000e+02
0.000000e+00
1.250000e+01
2.500000e+01
3.750000e+01
5.000000e+01
6.250000e+01
7.500000e+01
8.750000e+01
1.000000e+02
1.125000e+02
1.250000e+02
1.375000e+02
1.500000e+02
1.625000e+02
1.750000e+02
1.875000e+02
2.000000e+02
0.000000e+00
1.250000e+01
2.500000e+01
3.750000e+01
5.000000e+01
6.250000e+01
7.500000e+01
8.750000e+01
1.000000e+02
1.125000e+02
1.250000e+02
1.375000e+02
1.500000e+02
1.625000e+02
1.750000e+02
1.875000e+02
2.000000e+02
0.000000e+00
1.250000e+01
2.500000e+01
3.750000e+01
5.000000e+01
6.250000e+01
7.500000e+01
8.750000e+01
1.000000e+02
1.125000e+02
1.250000e+02
1.375000e+02
1.500000e+02
1.625000e+02
1.750000e+02
1.875000e+02
2.000000e+02
0.000000e+00
1.250000e+01
2.500000e+01
3.750000e+01
5.000000e+01
6.250000e+01
7.500000e+01
8.750000e+01
1.000000e+02
1.125000e+02
1.250000e+02
1.375000e+02
1.500000e+02
1.625000e+02
1.750000e+02
1.875000e+02
2.000000e+02
0.000000e+00
1.250000e+01
2.500000e+01
3.750000e+01
5.000000e+01
6.250000e+01
7.500000e+01
8.750000e+01
1.000000e+02
1.125000e+02
1.250000e+02
1.375000e+02
1.500000e+02
1.625000e+02
1.750000e+02
1.875000e+02
2.000000e+02
0.000000e+00
1.250000e+01
2.500000e+01
3.750000e+01
5.000000e+01
6.250000e+01
7.500000e+01
8.750000e+01
1.000000e+02
1.125000e+02
1.250000e+02
1.375000e+02
1.500000e+02
1.625000e+02
1.750000e+02
1.875000e+02
2.000000e+02
0.000000e+00
0.000000e+00
0.000000e+00
0.000000e+00
0.000000e+00
0.000000e+00
0.000000e+00
0.000000e+00
0.000000e+00
0.000000e+00
0.000000e+00
0.000000e+00
0.000000e+00
0.000000e+00
0.000000e+00
0.000000e+00
0.000000e+00
1.250000e+01
1.250000e+01
1.250000e+01
1.250000e+01
1.250000e+01
1.250000e+01
1.250000e+01
1.250000e+01
1.250000e+01
1.250000e+01
1.250000e+01
1.250000e+01
1.250000e+01
1.250000e+01
1.250000e+01
1.250000e+01
1.250000e+01
2.500000e+01
2.500000e+01
2.500000e+01
2.500000e+01
2.500000e+01
2.500000e+01
2.500000e+01
2.500000e+01
2.500000e+01
2.500000e+01
2.500000e+01
2.500000e+01
2.500000e+01
2.500000e+01
2.500000e+01
2.500000e+01
2.500000e+01
3.750000e+01
3.750000e+01
3.750000e+01
3.750000e+01
3.750000e+01
3.750000e+01
3.750000e+01
3.750000e+01
3.750000e+01
3.750000e+01
3.750000e+01
3.750000e+01
3.750000e+01
3.750000e+01
3.750000e+01
3.750000e+01
3.750000e+01
5.000000e+01
5.000000e+01
5.000000e+01
5.000000e+01
5.000000e+01
5.000000e+01
5.000000e+01
5.000000e+01
5.000000e+01
5.000000e+01
5.000000e+01
5.000000e+01
5.000000e+01
5.000000e+01
5.000000e+01
5.000000e+01
5.000000e+01
6.250000e+01
6.250000e+01
6.250000e+01
6.250000e+01
6.250000e+01
6.250000e+01
6.250000e+01
6.250000e+01
6.250000e+01
6.250000e+01
6.250000e+01
6.250000e+01
6.250000e+01
6.250000e+01
6.250000e+01
6.250000e+01
6.250000e+01
7.500000e+01
7.500000e+01
7.500000e+01
7.500000e+01
7.500000e+01
7.500000e+01
7.500000e+01
7.500000e+01
7.500000e+01
7.500000e+01
7.500000e+01
7.500000e+01
7.500000e+01
7.500000e+01
7.500000e+01
7.500000e+01
7.500000e+01
8.750000e+01
8.750000e+01
8.750000e+01
8.750000e+01
8.750000e+01
8.750000e+01
8.750000e+01
8.750000e+01
8.750000e+01
8.750000e+01
8.750000e+01
8.750000e+01
8.750000e+01
8.750000e+01
8.750000e+01
8.750000e+01
8.750000e+01
1.000000e+02
1.000000e+02
1.000000e+02
1.000000e+02
1.000000e+02
1.000000e+02
1.000000e+02
1.000000e+02
1.000000e+02
1.000000e+02
1.000000e+02
1.000000e+02
1.000000e+02
1.000000e+02
1.000000e+02
1.000000e+02
1.000000e+02
0.000000e+00
-7.144049e-02
-1.315446e-01
-1.868481e-01
-2.383513e-01
-2.859453e-01
-3.295281e-01
-3.690658e-01
-4.046161e-01
-4.363425e-01
-4.645597e-01
-4.898191e-01
-5.130694e-01
-5.359498e-01
-5.612867e-01
-5.924037e-01
-6.157536e-01
0.000000e+00
-4.266298e-02
-8.862403e-02
-1.310661e-01
-1.701684e-01
-2.060795e-01
-2.388739e-01
-2.685955e-01
-2.952978e-01
-3.190632e-01
-3.400123e-01
-3.582960e-01
-3.740310e-01
-3.870554e-01
-3.962422e-01
-3.982557e-01
-4.054750e-01
0.000000e+00
-2.668019e-02
-5.486115e-02
-8.297585e-02
-1.092201e-01
-1.333160e-01
-1.552440e-01
-1.750288e-01
-1.926756e-01
-2.081546e-01
-2.213827e-01
-2.321751e-01
-2.401470e-01
-2.445970e-01
-2.447206e-01
-2.429428e-01
-2.503059e-01
0.000000e+00
-1.287751e-02
-2.651007e-02
-4.022875e-02
-5.334629e-02
-6.542838e-02
-7.637961e-02
-8.616808e-02
-9.473777e-02
-1.019772e-01
-1.077012e-01
-1.116398e-01
-1.134705e-01
-1.130428e-01
-1.112856e-01
-1.117661e-01
-1.172487e-01
0.000000e+00
-1.186286e-05
-2.696798e-05
-4.202352e-05
-5.001390e-05
-3.529464e-05
3.318653e-05
2.111491e-04
5.900085e-04
1.305933e-03
2.536574e-03
4.460396e-03
7.125622e-03
1.013746e-02
1.221795e-02
1.164734e-02
8.017418e-03
0.000000e+00
1.285925e-02
2.646770e-02
4.016097e-02
5.326198e-02
6.535980e-02
7.640621e-02
8.645522e-02
9.559397e-02
1.039284e-01
1.115676e-01
1.185679e-01
1.248078e-01
1.298115e-01
1.327549e-01
1.329884e-01
1.311459e-01
0.000000e+00
2.667720e-02
5.485202e-02
8.295768e-02
1.091917e-01
1.332806e-01
1.552147e-01
1.750384e-01
1.927928e-01
2.085096e-01
2.222024e-01
2.338376e-01
2.432816e-01
2.502639e-01
2.544548e-01
2.558156e-01
2.553860e-01
0.000000e+00
4.268048e-02
8.866208e-02
1.311268e-01
1.702498e-01
2.061666e-01
2.389228e-01
2.685061e-01
2.948716e-01
3.179431e-01
3.376111e-01
3.537397e-01
3.661997e-01
3.749502e-01
3.801700e-01
3.823959e-01
3.828047e-01
0.000000e+00
7.146976e-02
1.316218e-01
1.869928e-01
2.385823e-01
2.862702e-01
3.299157e-01
3.693918e-01
4.045665e-01
4.352569e-01
4.611970e-01
4.820409e-01
4.974463e-01
5.072920e-01
5.120535e-01
5.132288e-01
5.132062e-01
0.000000e+00
-4.324491e-02
-8.489480e-02
-1.388634e-01
-2.050986e-01
-2.834767e-01
-3.731391e-01
-4.730826e-01
-5.822442e-01
-6.995755e-01
-8.241077e-01
-9.550699e-01
-1.092146e+00
-1.236069e+00
-1.390571e+00
-1.567349e+00
-1.821349e+00
0.000000e+00
-2.662236e-02
-7.007004e-02
-1.247078e-01
-1.920256e-01
-2.714732e-01
-3.622219e-01
-4.632437e-01
-5.734633e-01
-6.918134e-01
-8.172984e-01
-9.491120e-01
-1.086890e+00
-1.231344e+00
-1.385786e+00
-1.561492e+00
-1.776750e+00
0.000000e+00
-2.008894e-02
-5.979278e-02
-1.146322e-01
-1.825864e-01
-2.628518e-01
-3.544347e-01
-4.562969e-01
-5.673710e-01
-6.866044e-01
-8.130208e-01
-9.458418e-01
-1.084737e+00
-1.230302e+00
-1.384877e+00
-1.551364e+00
-1.712489e+00
0.000000e+00
-1.731123e-02
-5.468298e-02
-1.087181e-01
-1.769180e-01
-2.576775e-01
-3.498312e-01
-4.523020e-01
-5.640420e-01
-6.840275e-01
-8.113032e-01
-9.450755e-01
-1.084857e+00
-1.230583e+00
-1.382066e+00
-1.535044e+00
-1.675973e+00
0.000000e+00
-1.651104e-02
-5.313652e-02
-1.068315e-01
-1.750499e-01
-2.560104e-01
-3.484291e-01
-4.512297e-01
-5.633845e-01
-6.838863e-01
-8.117586e-01
-9.460822e-01
-1.085989e+00
-1.230446e+00
-1.377293e+00
-1.521506e+00
-1.654362e+00
0.000000e+00
-1.730096e-02
-5.467567e-02
-1.087312e-01
-1.769819e-01
-2.578459e-01
-3.501915e-01
-4.529842e-01
-5.652182e-01
-6.858814e-01
-8.139341e-01
-9.482640e-01
-1.087572e+00
-1.230084e+00
-1.373064e+00
-1.512332e+00
-1.642352e+00
0.000000e+00
-2.007218e-02
-5.978066e-02
-1.146539e-01
-1.826942e-01
-2.631368e-01
-3.550454e-01
-4.574554e-01
-5.693709e-01
-6.897625e-01
-8.175204e-01
-9.513613e-01
-1.089673e+00
-1.230318e+00
-1.370526e+00
-1.507121e+00
-1.637055e+00
0.000000e+00
-2.660665e-02
-7.005949e-02
-1.247367e-01
-1.921549e-01
-2.718083e-01
-3.629329e-01
-4.645826e-01
-5.757607e-01
-6.954189e-01
-8.224019e-01
-9.553348e-01
-1.092468e+00
-1.231547e+00
-1.369890e+00
-1.504967e+00
-1.635812e+00
0.000000e+00
-4.323841e-02
-8.489571e-02
-1.389080e-01
-2.052486e-01
-2.838347e-01
-3.738666e-01
-4.744098e-01
-5.844571e-01
-7.029415e-01
-8.286803e-01
-9.602680e-01
-1.095943e+00
-1.233500e+00
-1.370430e+00
-1.504572e+00
-1.635831e+00


0.000000e+00
9.649022e-08
1.933391e-07
2.832825e-07
3.676301e-07
4.459055e-07
5.177810e-07
5.832374e-07
6.424071e-07
6.955392e-07
7.429864e-07
7.851415e-07
8.222341e-07
8.539735e-07
8.799520e-07
9.021526e-07
9.219074e-07
0.000000e+00
5.426949e-08
1.320564e-07
2.019994e-07
2.661275e-07
3.252386e-07
3.792798e-07
4.282523e-07
4.721961e-07
5.111434e-07
5.450828e-07
5.739149e-07
5.974936e-07
6.163045e-07
6.334864e-07
6.538812e-07
6.748737e-07
0.000000e+00
3.419706e-08
8.345762e-08
1.296753e-07
1.727594e-07
2.123842e-07
2.483945e-07
2.807477e-07
3.093951e-07
3.342407e-07
3.551427e-07
3.720002e-07
3.850775e-07
3.957173e-07
4.069400e-07
4.221048e-07
4.396275e-07
0.000000e+00
1.670620e-08
4.000946e-08
6.264456e-08
8.418859e-08
1.039800e-07
1.218052e-07
1.375831e-07
1.512215e-07
1.626018e-07
1.716257e-07
1.783465e-07
1.832187e-07
1.873908e-07
1.927664e-07
2.016053e-07
2.137702e-07
0.000000e+00
1.746210e-11
2.160846e-11
-9.281574e-12
-1.048910e-10
-3.125766e-10
-7.017732e-10
-1.364884e-09
-2.409123e-09
-3.929855e-09
-5.952138e-09
-8.333034e-09
-1.064723e-08
-1.211511e-08
-1.153610e-08
-7.375729e-09
6.153219e-10
0.000000e+00
-1.667356e-08
-3.996567e-08
-6.264635e-08
-8.434140e-08
-1.044686e-07
-1.229327e-07
-1.398129e-07
-1.552071e-07
-1.691760e-07
-1.816922e-07
-1.925851e-07
-2.015065e-07
-2.079359e-07
-2.112307e-07
-2.106023e-07
-2.062253e-07
0.000000e+00
-3.417651e-08
-8.342727e-08
-1.296572e-07
-1.727954e-07
-2.125535e-07
-2.488350e-07
-2.816809e-07
-3.111489e-07
-3.372574e-07
-3.599433e-07
-3.790271e-07
-3.942068e-07
-4.051270e-07
-4.116071e-07
-4.137651e-07
-4.124726e-07
0.000000e+00
-5.429013e-08
-1.320975e-07
-2.020366e-07
-2.661208e-07
-3.251194e-07
-3.789356e-07
-4.275091e-07
-4.708023e-07
-5.087606e-07
-5.412982e-07
-5.682868e-07
-5.895593e-07
-6.049746e-07
-6.146689e-07
-6.194351e-07
-6.205866e-07
0.000000e+00
-9.660423e-08
-1.935411e-07
-2.835323e-07
-3.678436e-07
-4.459074e-07
-5.172391e-07
-5.815774e-07
-6.387128e-07
-6.884536e-07
-7.306491e-07
-7.652327e-07
-7.922638e-07
-8.119652e-07
-8.247975e-07
-8.314310e-07
-8.335617e-07
0.000000e+00
8.735109e-08
1.704092e-07
2.636106e-07
3.747703e-07
5.050352e-07
6.535514e-07
8.189463e-07
9.996384e-07
1.194092e-06
1.400991e-06
1.619526e-06
1.850138e-06
2.096141e-06
2.363610e-06
2.647723e-06
2.929605e-06
0.000000e+00
5.284081e-08
1.335663e-07
2.274972e-07
3.408195e-07
4.737014e-07
6.250277e-07
7.932468e-07
9.767364e-07
1.173939e-06
1.383516e-06
1.604594e-06
1.837194e-06
2.082774e-06
2.343734e-06
2.620641e-06
2.898813e-06
0.000000e+00
3.366007e-08
1.040305e-07
1.978573e-07
3.128113e-07
4.479616e-07
6.017334e-07
7.724537e-07
9.584722e-07
1.158225e-06
1.370326e-06
1.593686e-06
1.827559e-06
2.071257e-06
2.324378e-06
2.591174e-06
2.860380e-06
0.000000e+00
2.469831e-08
8.849196e-08
1.805736e-07
2.962799e-07
4.328360e-07
5.881999e-07
7.605925e-07
9.483406e-07
1.149852e-06
1.363627e-06
1.588237e-06
1.822177e-06
2.063562e-06
2.310883e-06
2.567391e-06
2.823188e-06
0.000000e+00
2.212279e-08
8.378045e-08
1.750137e-07
2.909231e-07
4.280423e-07
5.840933e-07
7.572492e-07
9.458159e-07
1.148141e-06
1.362570e-06
1.587358e-06
1.820494e-06
2.059484e-06
2.301876e-06
2.549178e-06
2.791787e-06
0.000000e+00
2.471826e-08
8.856679e-08
1.807587e-07
2.966478e-07
4.334853e-07
5.892537e-07
7.621805e-07
9.505536e-07
1.152646e-06
1.366653e-06
1.590598e-06
1.822178e-06
2.058555e-06
2.296663e-06
2.536280e-06
2.769268e-06
0.000000e+00
3.369226e-08
1.041609e-07
1.981816e-07
3.134564e-07
4.491016e-07
6.035858e-07
7.752481e-07
9.623699e-07
1.163151e-06
1.375660e-06
1.597761e-06
1.826992e-06
2.060390e-06
2.294684e-06
2.528551e-06
2.755549e-06
0.000000e+00
5.288167e-08
1.337317e-07
2.278967e-07
3.416067e-07
4.750855e-07
6.272675e-07
7.966097e-07
9.813962e-07
1.179767e-06
1.389695e-06
1.608924e-06
1.834908e-06
2.064737e-06
2.295394e-06
2.525076e-06
2.749000e-06
0.000000e+00
8.741880e-08
1.706026e-07
2.640415e-07
3.755899e-07
5.064434e-07
6.557844e-07
8.222275e-07
1.004063e-06
1.199400e-06
1.406160e-06
1.622032e-06
1.844444e-06
2.070602e-06
2.297852e-06
2.524510e-06
2.747090e-06


2.087426e-01
2.087426e-01
2.087427e-01
2.087431e-01
2.087434e-01
2.087437e-01
2.087439e-01
2.087441e-01
2.087443e-01
2.087445e-01
2.087446e-01
2.087448e-01
2.087448e-01
2.087448e-01
2.087446e-01
2.087445e-01
2.087432e-01
2.087431e-01
2.087432e-01
2.087434e-01
2.087437e-01
2.087439e-01
2.087441e-01
2.087443e-01
2.087444e-01
2.087446e-01
2.087447e-01
2.087448e-01
2.087448e-01
2.087447e-01
2.087446e-01
2.087444e-01
2.087440e-01
2.087439e-01
2.087439e-01
2.087441e-01
2.087442e-01
2.087443e-01
2.087444e-01
2.087445e-01
2.087446e-01
2.087447e-01
2.087448e-01
2.087448e-01
2.087448e-01
2.087448e-01
2.087446e-01
2.087445e-01
2.087446e-01
2.087445e-01
2.087445e-01
2.087445e-01
2.087446e-01
2.087446e-01
2.087447e-01
2.087447e-01
2.087448e-01
2.087448e-01
2.087448e-01
2.087448e-01
2.087448e-01
2.087448e-01
2.087447e-01
2.087447e-01
2.087446e-01
2.087445e-01
2.087445e-01
2.087445e-01
2.087446e-01
2.087446e-01
2.087447e-01
2.087447e-01
2.087447e-01
2.087448e-01
2.087448e-01
2.087448e-01
2.087448e-01
2.087448e-01
2.087448e-01
2.087448e-01
2.087440e-01
2.087439e-01
2.087439e-01
2.087441e-01
2.087442e-01
2.087443e-01
2.087444e-01
2.087445e-01
2.087446e-01
2.087447e-01
2.087447e-01
2.087448e-01
2.087448e-01
2.087449e-01
2.087449e-01
2.087450e-01
2.087432e-01
2.087431e-01
2.087432e-01
2.087434e-01
2.087437e-01
2.087439e-01
2.087441e-01
2.087443e-01
2.087444e-01
2.087446e-01
2.087447e-01
2.087448e-01
2.087449e-01
2.087450e-01
2.087450e-01
2.087450e-01
2.087426e-01
2.087426e-01
2.087427e-01
2.087431e-01
2.087434e-01
2.087437e-01
2.087439e-01
2.087441e-01
2.087443e-01
2.087445e-01
2.087447e-01
2.087448e-01
2.087449e-01
2.087450e-01
2.087451e-01
2.087451e-01


9.885174e-01
9.901458e-01
9.916521e-01
9.928116e-01
9.938879e-01
9.948804e-01
9.957845e-01
9.965899e-01
9.972879e-01
9.978716e-01
9.983359e-01
9.986759e-01
9.988873e-01
9.989627e-01
9.990171e-01
9.956613e-01
9.956559e-01
9.949097e-01
9.953898e-01
9.960164e-01
9.966006e-01
9.971315e-01
9.976121e-01
9.980475e-01
9.984416e-01
9.987987e-01
9.991226e-01
9.994160e-01
9.996719e-01
9.998395e-01
9.994157e-01
9.936713e-01
9.984906e-01
9.980621e-01
9.979464e-01
9.981091e-01
9.983232e-01
9.985306e-01
9.987231e-01
9.989050e-01
9.990812e-01
9.992531e-01
9.994135e-01
9.995378e-01
9.995637e-01
9.993400e-01
9.985283e-01
9.970685e-01
9.996928e-01
9.993802e-01
9.991871e-01
9.991382e-01
9.991577e-01
9.991906e-01
9.992233e-01
9.992553e-01
9.992868e-01
9.993131e-01
9.993204e-01
9.992813e-01
9.991572e-01
9.989344e-01
9.987455e-01
9.986977e-01
9.996940e-01
9.993819e-01
9.991886e-01
9.991379e-01
9.991529e-01
9.991765e-01
9.991930e-01
9.991985e-01
9.991909e-01
9.991667e-01
9.991217e-01
9.990567e-01
9.989949e-01
9.990072e-01
9.991820e-01
9.994846e-01
9.984928e-01
9.980653e-01
9.979495e-01
9.981091e-01
9.983149e-01
9.985049e-01
9.986657e-01
9.987949e-01
9.988917e-01
9.989569e-01
9.989981e-01
9.990384e-01
9.991230e-01
9.993004e-01
9.995669e-01
9.998425e-01
9.956555e-01
9.949094e-01
9.953892e-01
9.960146e-01
9.965960e-01
9.971211e-01
9.975905e-01
9.980061e-01
9.983683e-01
9.986779e-01
9.989400e-01
9.991689e-01
9.993893e-01
9.996204e-01
9.998365e-01
9.999726e-01
9.885096e-01
9.901335e-01
9.916370e-01
9.927947e-01
9.938728e-01
9.948749e-01
9.958032e-01
9.966557e-01
9.974324e-01
9.981319e-01
9.987458e-01
9.992551e-01
9.996340e-01
9.998677e-01
9.999741e-01
9.999995e-01
1 2 19 18
2 3 20 19
3 4 21 20
4 5 22 21
5 6 23 22
6 7 24 23
7 8 25 24
8 9 26 25
9 10 27 26
10 11 28 27
11 12 29 28
12 13 30 29
13 14 31 30
14 15 32 31
15 16 33 32
16 17 34 33
18 19 36 35
19 20 37 36
20 21 38 37
21 22 39 38
22 23 40 39
23 24 41 40
24 25 42 41
25 26 43 42
26 27 44 43
27 28 45 44
28 29 46 45
29 30 47 46
30 31 48 47
31 32 49 48
32 33 50 49
33 34 51 50
35 36 53 52
36 37 54 53
37 38 55 54
38 39 56 55
39 40 57 56
40 41 58 57
41 42 59 58
42 43 60 59
43 44 61 60
44 45 62 61
45 46 63 62
46 47 64 63
47 48 65 64
48 49 66 65
49 50 67 66
50 51 68 67
52 53 70 69
53 54 71 70
54 55 72 71
55 56 73 72
56 57 74 73
57 58 75 74
58 59 76 75
59 60 77 76
60 61 78 77
61 62 79 78
62 63 80 79
63 64 81 80
64 65 82 81
65 66 83 82
66 67 84 83
67 68 85 84
69 70 87 86
70 71 88 87
71 72 89 88
72 73 90 89
73 74 91 90
74 75 92 91
75 76 93 92
76 77 94 93
77 78 95 94
78 79 96 95
79 80 97 96
80 81 98 97
81 82 99 98
82 83 100 99
83 84 101 100
84 85 102 101
86 87 104 103
87 88 105 104
88 89 106 105
89 90 107 106
90 91 108 107
91 92 109 108
92 93 110 109
93 94 111 110
94 95 112 111
95 96 113 112
96 97 114 113
97 98 115 114
98 99 116 115
99 100 117 116
100 101 118 117
101 102 119 118
103 104 121 120
104 105 122 121
105 106 123 122
106 107 124 123
107 108 125 124
108 109 126 125
109 110 127 126
110 111 128 127
111 112 129 128
112 113 130 129
113 114 131 130
114 115 132 131
115 116 133 132
116 117 134 133
117 118 135 134
118 119 136 135
120 121 138 137
121 122 139 138
122 123 140 139
123 124 141 140
124 125 142 141
125 126 143 142
126 127 144 143
127 128 145 144
128 129 146 145
129 130 147 146
130 131 148 147
131 132 149 148
132 133 150 149
133 134 151 150
134 135 152 151
135 136 153 152
