TITLE = "Solution"
VARIABLES = x, y, u, v, psiu, psiv, t, stress
ZONE T="structure" N=153 E=128 F=FEBLOCK ET=QUADRILATERAL VARLOCATION=([7,8]=cellcentered)
0.000000e+00
1.250000e+01
2.500000e+01
3.750000e+01
5.000000e+01
6.250000e+01
7.500000e+01
8.750000e+01
1.000000e+02
1.125000e+02
1.250000e+02
1.375000e+02
1.500000e+02
1.625000e+02
1.750000e+02
1.875000e+02
2.000000e+02
0.000000e+00
1.250000e+01
2.500000e+01
3.750000e+01
5.000000e+01
6.250000e+01
7.500000e+01
8.750000e+01
1.000000e+02
1.125000e+02
1.250000e+02
1.375000e+02
1.500000e+02
1.625000e+02
1.750000e+02
1.875000e+02
2.000000e+02
0.000000e+00
1.250000e+01
2.500000e+01
3.750000e+01
5.000000e+01
6.250000e+01
7.500000e+01
8.750000e+01
1.000000e+02
1.125000e+02
1.250000e+02
1.375000e+02
1.500000e+02
1.625000e+02
1.750000e+02
1.875000e+02
2.000000e+02
0.000000e+00
1.250000e+01
2.500000e+01
3.750000e+01
5.000000e+01
6.250000e+01
7.500000e+01
8.750000e+01
1.000000e+02
1.125000e+02
1.250000e+02
1.375000e+02
1.500000e+02
1.625000e+02
1.750000e+02
1.875000e+02
2.000000e+02
0.000000e+00
1.250000e+01
2.500000e+01
3.750000e+01
5.000000e+01
6.250000e+01
7.500000e+01
8.750000e+01
1.000000e+02
1.125000e+02
1.250000e+02
1.375000e+02
1.500000e+02
1.625000e+02
1.750000e+02
1.875000e+02
2.000000e+02
0.000000e+00
1.250000e+01
2.500000e+01
3.750000e+01
5.000000e+01
6.250000e+01
7.500000e+01
8.750000e+01
1.000000e+02
1.125000e+02
1.250000e+02
1.375000e+02
1.500000e+02
1.625000e+02
1.750000e+02
1.875000e+02
2.000000e+02
0.000000e+00
1.250000e+01
2.500000e+01
3.750000e+01
5.000000e+01
6.250000e+01
7.500000e+01
8.750000e+01
1.000000e+02
1.125000e+02
1.250000e+02
1.375000e+02
1.500000e+02
1.625000e+02
1.750000e+02
1.875000e+02
2.000000e+02
0.000000e+00
1.250000e+01
2.500000e+01
3.750000e+01
5.000000e+01
6.250000e+01
7.500000e+01
8.750000e+01
1.000000e+02
1.125000e+02
1.250000e+02
1.375000e+02
1.500000e+02
1.625000e+02
1.750000e+02
1.875000e+02
2.000000e+02
0.000000e+00
1.250000e+01
2.500000e+01
3.750000e+01
5.000000e+01
6.250000e+01
7.500000e+01
8.750000e+01
1.000000e+02
1.125000e+02
1.250000e+02
1.375000e+02
1.500000e+02
1.625000e+02
1.750000e+02
1.875000e+02
2.000000e+02
0.000000e+00
0.000000e+00
0.000000e+00
0.000000e+00
0.000000e+00
0.000000e+00
0.000000e+00
0.000000e+00
0.000000e+00
0.000000e+00
0.000000e+00
0.000000e+00
0.000000e+00
0.000000e+00
0.000000e+00
0.000000e+00
0.000000e+00
1.250000e+01
1.250000e+01
1.250000e+01
1.250000e+01
1.250000e+01
1.250000e+01
1.250000e+01
1.250000e+01
1.250000e+01
1.250000e+01
1.250000e+01
1.250000e+01
1.250000e+01
1.250000e+01
1.250000e+01
1.250000e+01
1.250000e+01
2.500000e+01
2.500000e+01
2.500000e+01
2.500000e+01
2.500000e+01
2.500000e+01
2.500000e+01
2.500000e+01
2.500000e+01
2.500000e+01
2.500000e+01
2.500000e+01
2.500000e+01
2.500000e+01
2.500000e+01
2.500000e+01
2.500000e+01
3.750000e+01
3.750000e+01
3.750000e+01
3.750000e+01
3.750000e+01
3.750000e+01
3.750000e+01
3.750000e+01
3.750000e+01
3.750000e+01
3.750000e+01
3.750000e+01
3.750000e+01
3.750000e+01
3.750000e+01
3.750000e+01
3.750000e+01
5.000000e+01
5.000000e+01
5.000000e+01
5.000000e+01
5.000000e+01
5.000000e+01
5.000000e+01
5.000000e+01
5.000000e+01
5.000000e+01
5.000000e+01
5.000000e+01
5.000000e+01
5.000000e+01
5.000000e+01
5.000000e+01
5.000000e+01
6.250000e+01
6.250000e+01
6.250000e+01
6.250000e+01
6.250000e+01
6.250000e+01
6.250000e+01
6.250000e+01
6.250000e+01
6.250000e+01
6.250000e+01
6.250000e+01
6.250000e+01
6.250000e+01
6.250000e+01
6.250000e+01
6.250000e+01
7.500000e+01
7.500000e+01
7.500000e+01
7.500000e+01
7.500000e+01
7.500000e+01
7.500000e+01
7.500000e+01
7.500000e+01
7.500000e+01
7.500000e+01
7.500000e+01
7.500000e+01
7.500000e+01
7.500000e+01
7.500000e+01
7.500000e+01
8.750000e+01
8.750000e+01
8.750000e+01
8.750000e+01
8.750000e+01
8.750000e+01
8.750000e+01
8.750000e+01
8.750000e+01
8.750000e+01
8.750000e+01
8.750000e+01
8.750000e+01
8.750000e+01
8.750000e+01
8.750000e+01
8.750000e+01
1.000000e+02
1.000000e+02
1.000000e+02
1.000000e+02
1.000000e+02
1.000000e+02
1.000000e+02
1.000000e+02
1.000000e+02
1.000000e+02
1.000000e+02
1.000000e+02
1.000000e+02
1.000000e+02
1.000000e+02
1.000000e+02
1.000000e+02
0.000000e+00
-6.992727e-02
-1.287583e-01
-1.828904e-01
-2.333026e-01
-2.798884e-01
-3.225479e-01
-3.612480e-01
-3.960450e-01
-4.270993e-01
-4.547186e-01
-4.794427e-01
-5.022004e-01
-5.245959e-01
-5.493961e-01
-5.798537e-01
-6.027089e-01
0.000000e+00
-4.175933e-02
-8.674689e-02
-1.282900e-01
-1.665640e-01
-2.017144e-01
-2.338140e-01
-2.629059e-01
-2.890425e-01
-3.123044e-01
-3.328096e-01
-3.507059e-01
-3.661075e-01
-3.788558e-01
-3.878480e-01
-3.898189e-01
-3.968852e-01
0.000000e+00
-2.611510e-02
-5.369917e-02
-8.121837e-02
-1.069067e-01
-1.304921e-01
-1.519556e-01
-1.713213e-01
-1.885941e-01
-2.037452e-01
-2.166930e-01
-2.272567e-01
-2.350597e-01
-2.394155e-01
-2.395364e-01
-2.377963e-01
-2.450033e-01
0.000000e+00
-1.260476e-02
-2.594859e-02
-3.937669e-02
-5.221637e-02
-6.404251e-02
-7.476174e-02
-8.434284e-02
-9.273096e-02
-9.981697e-02
-1.054198e-01
-1.092749e-01
-1.110668e-01
-1.106481e-01
-1.089282e-01
-1.093985e-01
-1.147649e-01
0.000000e+00
-1.161133e-05
-2.639621e-05
-4.113254e-05
-4.895337e-05
-3.454572e-05
3.248471e-05
2.066768e-04
5.775088e-04
1.278264e-03
2.482828e-03
4.365885e-03
6.974636e-03
9.922655e-03
1.195906e-02
1.140054e-02
7.847527e-03
0.000000e+00
1.258690e-02
2.590712e-02
3.931034e-02
5.213385e-02
6.397539e-02
7.478778e-02
8.462389e-02
9.356902e-02
1.017269e-01
1.092042e-01
1.160562e-01
1.221639e-01
1.270615e-01
1.299426e-01
1.301711e-01
1.283677e-01
0.000000e+00
2.611217e-02
5.369024e-02
8.120059e-02
1.068789e-01
1.304575e-01
1.519269e-01
1.713306e-01
1.887089e-01
2.040927e-01
2.174953e-01
2.288841e-01
2.381280e-01
2.449623e-01
2.490644e-01
2.503964e-01
2.499758e-01
0.000000e+00
4.177647e-02
8.678414e-02
1.283494e-01
1.666436e-01
2.017996e-01
2.338618e-01
2.628184e-01
2.886253e-01
3.112080e-01
3.304593e-01
3.462461e-01
3.584422e-01
3.670072e-01
3.721164e-01
3.742951e-01
3.746953e-01
0.000000e+00
6.995592e-02
1.288339e-01
1.830320e-01
2.335287e-01
2.802064e-01
3.229273e-01
3.615670e-01
3.959965e-01
4.260366e-01
4.514271e-01
4.718294e-01
4.869084e-01
4.965454e-01
5.012061e-01
5.023564e-01
5.023342e-01
0.000000e+00
-4.232891e-02
-8.309655e-02
-1.359219e-01
-2.007541e-01
-2.774719e-01
-3.652350e-01
-4.630613e-01
-5.699105e-01
-6.847563e-01
-8.066503e-01
-9.348381e-01
-1.069011e+00
-1.209884e+00
-1.361113e+00
-1.534147e+00
-1.782765e+00
0.000000e+00
-2.605845e-02
-6.858580e-02
-1.220662e-01
-1.879580e-01
-2.657227e-01
-3.545491e-01
-4.534308e-01
-5.613156e-01
-6.771586e-01
-7.999853e-01
-9.290065e-01
-1.063865e+00
-1.205259e+00
-1.356429e+00
-1.528413e+00
-1.739111e+00
0.000000e+00
-1.966341e-02
-5.852621e-02
-1.122040e-01
-1.787188e-01
-2.572840e-01
-3.469268e-01
-4.466313e-01
-5.553524e-01
-6.720599e-01
-7.957984e-01
-9.258056e-01
-1.061758e+00
-1.204240e+00
-1.355540e+00
-1.518500e+00
-1.676212e+00
0.000000e+00
-1.694452e-02
-5.352464e-02
-1.064152e-01
-1.731705e-01
-2.522192e-01
-3.424209e-01
-4.427210e-01
-5.520939e-01
-6.695376e-01
-7.941171e-01
-9.250555e-01
-1.061876e+00
-1.204515e+00
-1.352788e+00
-1.502526e+00
-1.640469e+00
0.000000e+00
-1.616126e-02
-5.201093e-02
-1.045685e-01
-1.713419e-01
-2.505874e-01
-3.410485e-01
-4.416714e-01
-5.514503e-01
-6.693994e-01
-7.945629e-01
-9.260409e-01
-1.062984e+00
-1.204381e+00
-1.348116e+00
-1.489275e+00
-1.619316e+00
0.000000e+00
-1.693446e-02
-5.351748e-02
-1.064280e-01
-1.732330e-01
-2.523840e-01
-3.427735e-01
-4.433887e-01
-5.532452e-01
-6.713523e-01
-7.966923e-01
-9.281765e-01
-1.064533e+00
-1.204026e+00
-1.343977e+00
-1.480295e+00
-1.607561e+00
0.000000e+00
-1.964700e-02
-5.851435e-02
-1.122253e-01
-1.788243e-01
-2.575629e-01
-3.475246e-01
-4.477652e-01
-5.573099e-01
-6.751511e-01
-8.002026e-01
-9.312081e-01
-1.066589e+00
-1.204255e+00
-1.341493e+00
-1.475194e+00
-1.602376e+00
0.000000e+00
-2.604307e-02
-6.857547e-02
-1.220945e-01
-1.880846e-01
-2.660507e-01
-3.552450e-01
-4.547414e-01
-5.635644e-01
-6.806877e-01
-8.049807e-01
-9.350974e-01
-1.069325e+00
-1.205458e+00
-1.340870e+00
-1.473085e+00
-1.601159e+00
0.000000e+00
-4.232255e-02
-8.309744e-02
-1.359656e-01
-2.009009e-01
-2.778223e-01
-3.659471e-01
-4.643604e-01
-5.720765e-01
-6.880510e-01
-8.111260e-01
-9.399261e-01
-1.072726e+00
-1.207370e+00
-1.341399e+00
-1.472700e+00
-1.601178e+00


0.000000e+00
9.884872e-08
1.980593e-07
2.902000e-07
3.766157e-07
4.568181e-07
5.304704e-07
5.975511e-07
6.581944e-07
7.126539e-07
7.612899e-07
8.045035e-07
8.425291e-07
8.750673e-07
9.016991e-07
9.244562e-07
9.447044e-07
0.000000e+00
5.558586e-08
1.352641e-07
2.069144e-07
2.726153e-07
3.331828e-07
3.885613e-07
4.387505e-07
4.837900e-07
5.237113e-07
5.585018e-07
5.880586e-07
6.122312e-07
6.315170e-07
6.491325e-07
6.700391e-07
6.915561e-07
0.000000e+00
3.501986e-08
8.547623e-08
1.328211e-07
1.769617e-07
2.175632e-07
2.544654e-07
2.876231e-07
3.169855e-07
3.424532e-07
3.638800e-07
3.811618e-07
3.945691e-07
4.054779e-07
4.169838e-07
4.325290e-07
4.504896e-07
0.000000e+00
1.710612e-08
4.097533e-08
6.416206e-08
8.623404e-08
1.065132e-07
1.247798e-07
1.409502e-07
1.549290e-07
1.665944e-07
1.758449e-07
1.827351e-07
1.877304e-07
1.920077e-07
1.975185e-07
2.065790e-07
2.190484e-07
0.000000e+00
1.792936e-11
2.221449e-11
-9.410660e-12
-1.073734e-10
-3.202196e-10
-7.191291e-10
-1.398830e-09
-2.469239e-09
-4.028134e-09
-6.101240e-09
-8.542087e-09
-1.091475e-08
-1.242005e-08
-1.182700e-08
-7.562341e-09
6.292409e-10
0.000000e+00
-1.707261e-08
-4.093034e-08
-6.416372e-08
-8.639042e-08
-1.070137e-07
-1.259353e-07
-1.432355e-07
-1.590142e-07
-1.733332e-07
-1.861639e-07
-1.973312e-07
-2.064776e-07
-2.130697e-07
-2.164479e-07
-2.158039e-07
-2.113168e-07
0.000000e+00
-3.499876e-08
-8.544505e-08
-1.328025e-07
-1.769985e-07
-2.177366e-07
-2.549167e-07
-2.885795e-07
-3.187831e-07
-3.455455e-07
-3.688010e-07
-3.883653e-07
-4.039277e-07
-4.151235e-07
-4.217673e-07
-4.239797e-07
-4.226548e-07
0.000000e+00
-5.560702e-08
-1.353062e-07
-2.069525e-07
-2.726083e-07
-3.330605e-07
-3.882083e-07
-4.379885e-07
-4.823608e-07
-5.212684e-07
-5.546218e-07
-5.822887e-07
-6.040967e-07
-6.199006e-07
-6.298394e-07
-6.347258e-07
-6.359064e-07
0.000000e+00
-9.896558e-08
-1.982664e-07
-2.904561e-07
-3.768346e-07
-4.568201e-07
-5.299149e-07
-5.958494e-07
-6.544071e-07
-7.053899e-07
-7.486418e-07
-7.840930e-07
-8.118034e-07
-8.320006e-07
-8.451563e-07
-8.519571e-07
-8.541417e-07
0.000000e+00
8.948590e-08
1.745859e-07
2.700830e-07
3.839802e-07
5.174527e-07
6.696269e-07
8.390977e-07
1.024246e-06
1.223499e-06
1.435509e-06
1.659447e-06
1.895764e-06
2.147860e-06
2.421959e-06
2.713114e-06
3.001979e-06
0.000000e+00
5.413746e-08
1.368472e-07
2.330879e-07
3.491966e-07
4.853467e-07
6.403971e-07
8.127594e-07
1.000773e-06
1.202842e-06
1.417595e-06
1.644139e-06
1.882495e-06
2.134157e-06
2.401584e-06
2.685355e-06
2.970419e-06
0.000000e+00
3.449209e-08
1.065926e-07
2.027230e-07
3.204998e-07
4.589711e-07
6.165249e-07
7.914486e-07
9.820522e-07
1.186734e-06
1.404074e-06
1.632957e-06
1.872617e-06
2.122350e-06
2.381743e-06
2.655151e-06
2.931027e-06
0.000000e+00
2.531220e-08
9.067426e-08
1.850150e-07
3.035607e-07
4.434708e-07
6.026549e-07
7.792914e-07
9.716671e-07
1.178151e-06
1.397206e-06
1.627370e-06
1.867098e-06
2.114461e-06
2.367909e-06
2.630772e-06
2.892905e-06
0.000000e+00
2.267369e-08
8.584717e-08
1.793183e-07
2.980716e-07
4.385581e-07
5.984461e-07
7.758648e-07
9.690793e-07
1.176397e-06
1.396123e-06
1.626468e-06
1.865373e-06
2.110280e-06
2.358674e-06
2.612103e-06
2.860717e-06
0.000000e+00
2.533264e-08
9.075096e-08
1.852047e-07
3.039378e-07
4.441364e-07
6.037352e-07
7.809195e-07
9.739359e-07
1.181015e-06
1.400309e-06
1.629790e-06
1.867099e-06
2.109327e-06
2.353330e-06
2.598879e-06
2.837633e-06
0.000000e+00
3.452507e-08
1.067262e-07
2.030554e-07
3.211612e-07
4.601399e-07
6.184240e-07
7.943134e-07
9.860480e-07
1.191783e-06
1.409542e-06
1.637134e-06
1.872035e-06
2.111209e-06
2.351301e-06
2.590955e-06
2.823568e-06
0.000000e+00
5.417933e-08
1.370167e-07
2.334974e-07
3.500036e-07
4.867656e-07
6.426933e-07
8.162070e-07
1.005550e-06
1.208817e-06
1.423929e-06
1.648578e-06
1.880151e-06
2.115665e-06
2.352029e-06
2.587393e-06
2.816854e-06
0.000000e+00
8.955527e-08
1.747841e-07
2.705246e-07
3.848204e-07
5.188964e-07
6.719161e-07
8.424614e-07
1.028781e-06
1.228940e-06
1.440807e-06
1.662015e-06
1.889926e-06
2.121678e-06
2.354548e-06
2.586813e-06
2.814896e-06


2.043215e-01
2.043215e-01
2.043215e-01
2.043215e-01
2.043216e-01
2.043216e-01
2.043216e-01
2.043216e-01
2.043216e-01
2.043216e-01
2.043216e-01
2.043216e-01
2.043217e-01
2.043216e-01
2.043216e-01
2.043216e-01
2.043216e-01
2.043216e-01
2.043216e-01
2.043216e-01
2.043216e-01
2.043216e-01
2.043216e-01
2.043216e-01
2.043216e-01
2.043216e-01
2.043216e-01
2.043216e-01
2.043217e-01
2.043216e-01
2.043216e-01
2.043216e-01
2.043216e-01
2.043216e-01
2.043216e-01
2.043216e-01
2.043216e-01
2.043216e-01
2.043216e-01
2.043216e-01
2.043216e-01
2.043216e-01
2.043216e-01
2.043217e-01
2.043217e-01
2.043216e-01
2.043216e-01
2.043216e-01
2.043216e-01
2.043216e-01
2.043216e-01
2.043216e-01
2.043216e-01
2.043216e-01
2.043216e-01
2.043216e-01
2.043216e-01
2.043216e-01
2.043217e-01
2.043217e-01
2.043217e-01
2.043216e-01
2.043216e-01
2.043216e-01
2.043216e-01
2.043216e-01
2.043216e-01
2.043216e-01
2.043216e-01
2.043216e-01
2.043216e-01
2.043216e-01
2.043216e-01
2.043216e-01
2.043216e-01
2.043217e-01
2.043217e-01
2.043217e-01
2.043217e-01
2.043217e-01
2.043216e-01
2.043216e-01
2.043216e-01
2.043216e-01
2.043216e-01
2.043216e-01
2.043216e-01
2.043216e-01
2.043216e-01
2.043216e-01
2.043216e-01
2.043216e-01
2.043217e-01
2.043217e-01
2.043217e-01
2.043217e-01
2.043216e-01
2.043216e-01
2.043216e-01
2.043216e-01
2.043216e-01
2.043216e-01
2.043216e-01
2.043216e-01
2.043216e-01
2.043216e-01
2.043216e-01
2.043216e-01
2.043217e-01
2.043217e-01
2.043217e-01
2.043217e-01
2.043215e-01
2.043215e-01
2.043215e-01
2.043215e-01
2.043216e-01
2.043216e-01
2.043216e-01
2.043216e-01
2.043216e-01
2.043216e-01
2.043216e-01
2.043217e-01
2.043217e-01
2.043217e-01
2.043217e-01
2.043217e-01


9.889987e-01
9.905588e-01
9.920020e-01
9.931129e-01
9.941441e-01
9.950950e-01
9.959613e-01
9.967328e-01
9.974016e-01
9.979609e-01
9.984056e-01
9.987314e-01
9.989339e-01
9.990062e-01
9.990583e-01
9.958432e-01
9.958380e-01
9.951231e-01
9.955831e-01
9.961834e-01
9.967431e-01
9.972518e-01
9.977122e-01
9.981293e-01
9.985070e-01
9.988490e-01
9.991594e-01
9.994405e-01
9.996857e-01
9.998462e-01
9.994402e-01
9.939366e-01
9.985539e-01
9.981433e-01
9.980324e-01
9.981884e-01
9.983935e-01
9.985922e-01
9.987766e-01
9.989509e-01
9.991198e-01
9.992844e-01
9.994381e-01
9.995572e-01
9.995820e-01
9.993677e-01
9.985900e-01
9.971914e-01
9.997057e-01
9.994062e-01
9.992212e-01
9.991743e-01
9.991930e-01
9.992245e-01
9.992559e-01
9.992866e-01
9.993167e-01
9.993419e-01
9.993489e-01
9.993114e-01
9.991925e-01
9.989791e-01
9.987981e-01
9.987523e-01
9.997068e-01
9.994078e-01
9.992226e-01
9.991740e-01
9.991884e-01
9.992111e-01
9.992268e-01
9.992321e-01
9.992249e-01
9.992017e-01
9.991585e-01
9.990963e-01
9.990370e-01
9.990488e-01
9.992163e-01
9.995062e-01
9.985560e-01
9.981464e-01
9.980354e-01
9.981884e-01
9.983855e-01
9.985676e-01
9.987216e-01
9.988454e-01
9.989382e-01
9.990006e-01
9.990401e-01
9.990787e-01
9.991598e-01
9.993298e-01
9.995851e-01
9.998491e-01
9.958376e-01
9.951228e-01
9.955824e-01
9.961817e-01
9.967387e-01
9.972417e-01
9.976915e-01
9.980897e-01
9.984367e-01
9.987334e-01
9.989845e-01
9.992038e-01
9.994149e-01
9.996363e-01
9.998434e-01
9.999738e-01
9.889912e-01
9.905470e-01
9.919875e-01
9.930968e-01
9.941296e-01
9.950897e-01
9.959792e-01
9.967959e-01
9.975400e-01
9.982102e-01
9.987984e-01
9.992863e-01
9.996493e-01
9.998733e-01
9.999752e-01
9.999995e-01
1 2 19 18
2 3 20 19
3 4 21 20
4 5 22 21
5 6 23 22
6 7 24 23
7 8 25 24
8 9 26 25
9 10 27 26
10 11 28 27
11 12 29 28
12 13 30 29
13 14 31 30
14 15 32 31
15 16 33 32
16 17 34 33
18 19 36 35
19 20 37 36
20 21 38 37
21 22 39 38
22 23 40 39
23 24 41 40
24 25 42 41
25 26 43 42
26 27 44 43
27 28 45 44
28 29 46 45
29 30 47 46
30 31 48 47
31 32 49 48
32 33 50 49
33 34 51 50
35 36 53 52
36 37 54 53
37 38 55 54
38 39 56 55
39 40 57 56
40 41 58 57
41 42 59 58
42 43 60 59
43 44 61 60
44 45 62 61
45 46 63 62
46 47 64 63
47 48 65 64
48 49 66 65
49 50 67 66
50 51 68 67
52 53 70 69
53 54 71 70
54 55 72 71
55 56 73 72
56 57 74 73
57 58 75 74
58 59 76 75
59 60 77 76
60 61 78 77
61 62 79 78
62 63 80 79
63 64 81 80
64 65 82 81
65 66 83 82
66 67 84 83
67 68 85 84
69 70 87 86
70 71 88 87
71 72 89 88
72 73 90 89
73 74 91 90
74 75 92 91
75 76 93 92
76 77 94 93
77 78 95 94
78 79 96 95
79 80 97 96
80 81 98 97
81 82 99 98
82 83 100 99
83 84 101 100
84 85 102 101
86 87 104 103
87 88 105 104
88 89 106 105
89 90 107 106
90 91 108 107
91 92 109 108
92 93 110 109
93 94 111 110
94 95 112 111
95 96 113 112
96 97 114 113
97 98 115 114
98 99 116 115
99 100 117 116
100 101 118 117
101 102 119 118
103 104 121 120
104 105 122 121
105 106 123 122
106 107 124 123
107 108 125 124
108 109 126 125
109 110 127 126
110 111 128 127
111 112 129 128
112 113 130 129
113 114 131 130
114 115 132 131
115 116 133 132
116 117 134 133
117 118 135 134
118 119 136 135
120 121 138 137
121 122 139 138
122 123 140 139
123 124 141 140
124 125 142 141
125 126 143 142
126 127 144 143
127 128 145 144
128 129 146 145
129 130 147 146
130 131 148 147
131 132 149 148
132 133 150 149
133 134 151 150
134 135 152 151
135 136 153 152
