TITLE = "Solution"
VARIABLES = x, y, u, v, psiu, psiv, t, stress
ZONE T="structure" N=153 E=128 F=FEBLOCK ET=QUADRILATERAL VARLOCATION=([7,8]=cellcentered)
0.000000e+00
1.250000e+01
2.500000e+01
3.750000e+01
5.000000e+01
6.250000e+01
7.500000e+01
8.750000e+01
1.000000e+02
1.125000e+02
1.250000e+02
1.375000e+02
1.500000e+02
1.625000e+02
1.750000e+02
1.875000e+02
2.000000e+02
0.000000e+00
1.250000e+01
2.500000e+01
3.750000e+01
5.000000e+01
6.250000e+01
7.500000e+01
8.750000e+01
1.000000e+02
1.125000e+02
1.250000e+02
1.375000e+02
1.500000e+02
1.625000e+02
1.750000e+02
1.875000e+02
2.000000e+02
0.000000e+00
1.250000e+01
2.500000e+01
3.750000e+01
5.000000e+01
6.250000e+01
7.500000e+01
8.750000e+01
1.000000e+02
1.125000e+02
1.250000e+02
1.375000e+02
1.500000e+02
1.625000e+02
1.750000e+02
1.875000e+02
2.000000e+02
0.000000e+00
1.250000e+01
2.500000e+01
3.750000e+01
5.000000e+01
6.250000e+01
7.500000e+01
8.750000e+01
1.000000e+02
1.125000e+02
1.250000e+02
1.375000e+02
1.500000e+02
1.625000e+02
1.750000e+02
1.875000e+02
2.000000e+02
0.000000e+00
1.250000e+01
2.500000e+01
3.750000e+01
5.000000e+01
6.250000e+01
7.500000e+01
8.750000e+01
1.000000e+02
1.125000e+02
1.250000e+02
1.375000e+02
1.500000e+02
1.625000e+02
1.750000e+02
1.875000e+02
2.000000e+02
0.000000e+00
1.250000e+01
2.500000e+01
3.750000e+01
5.000000e+01
6.250000e+01
7.500000e+01
8.750000e+01
1.000000e+02
1.125000e+02
1.250000e+02
1.375000e+02
1.500000e+02
1.625000e+02
1.750000e+02
1.875000e+02
2.000000e+02
0.000000e+00
1.250000e+01
2.500000e+01
3.750000e+01
5.000000e+01
6.250000e+01
7.500000e+01
8.750000e+01
1.000000e+02
1.125000e+02
1.250000e+02
1.375000e+02
1.500000e+02
1.625000e+02
1.750000e+02
1.875000e+02
2.000000e+02
0.000000e+00
1.250000e+01
2.500000e+01
3.750000e+01
5.000000e+01
6.250000e+01
7.500000e+01
8.750000e+01
1.000000e+02
1.125000e+02
1.250000e+02
1.375000e+02
1.500000e+02
1.625000e+02
1.750000e+02
1.875000e+02
2.000000e+02
0.000000e+00
1.250000e+01
2.500000e+01
3.750000e+01
5.000000e+01
6.250000e+01
7.500000e+01
8.750000e+01
1.000000e+02
1.125000e+02
1.250000e+02
1.375000e+02
1.500000e+02
1.625000e+02
1.750000e+02
1.875000e+02
2.000000e+02
0.000000e+00
0.000000e+00
0.000000e+00
0.000000e+00
0.000000e+00
0.000000e+00
0.000000e+00
0.000000e+00
0.000000e+00
0.000000e+00
0.000000e+00
0.000000e+00
0.000000e+00
0.000000e+00
0.000000e+00
0.000000e+00
0.000000e+00
1.250000e+01
1.250000e+01
1.250000e+01
1.250000e+01
1.250000e+01
1.250000e+01
1.250000e+01
1.250000e+01
1.250000e+01
1.250000e+01
1.250000e+01
1.250000e+01
1.250000e+01
1.250000e+01
1.250000e+01
1.250000e+01
1.250000e+01
2.500000e+01
2.500000e+01
2.500000e+01
2.500000e+01
2.500000e+01
2.500000e+01
2.500000e+01
2.500000e+01
2.500000e+01
2.500000e+01
2.500000e+01
2.500000e+01
2.500000e+01
2.500000e+01
2.500000e+01
2.500000e+01
2.500000e+01
3.750000e+01
3.750000e+01
3.750000e+01
3.750000e+01
3.750000e+01
3.750000e+01
3.750000e+01
3.750000e+01
3.750000e+01
3.750000e+01
3.750000e+01
3.750000e+01
3.750000e+01
3.750000e+01
3.750000e+01
3.750000e+01
3.750000e+01
5.000000e+01
5.000000e+01
5.000000e+01
5.000000e+01
5.000000e+01
5.000000e+01
5.000000e+01
5.000000e+01
5.000000e+01
5.000000e+01
5.000000e+01
5.000000e+01
5.000000e+01
5.000000e+01
5.000000e+01
5.000000e+01
5.000000e+01
6.250000e+01
6.250000e+01
6.250000e+01
6.250000e+01
6.250000e+01
6.250000e+01
6.250000e+01
6.250000e+01
6.250000e+01
6.250000e+01
6.250000e+01
6.250000e+01
6.250000e+01
6.250000e+01
6.250000e+01
6.250000e+01
6.250000e+01
7.500000e+01
7.500000e+01
7.500000e+01
7.500000e+01
7.500000e+01
7.500000e+01
7.500000e+01
7.500000e+01
7.500000e+01
7.500000e+01
7.500000e+01
7.500000e+01
7.500000e+01
7.500000e+01
7.500000e+01
7.500000e+01
7.500000e+01
8.750000e+01
8.750000e+01
8.750000e+01
8.750000e+01
8.750000e+01
8.750000e+01
8.750000e+01
8.750000e+01
8.750000e+01
8.750000e+01
8.750000e+01
8.750000e+01
8.750000e+01
8.750000e+01
8.750000e+01
8.750000e+01
8.750000e+01
1.000000e+02
1.000000e+02
1.000000e+02
1.000000e+02
1.000000e+02
1.000000e+02
1.000000e+02
1.000000e+02
1.000000e+02
1.000000e+02
1.000000e+02
1.000000e+02
1.000000e+02
1.000000e+02
1.000000e+02
1.000000e+02
1.000000e+02
0.000000e+00
-7.064660e-02
-1.300828e-01
-1.847718e-01
-2.357025e-01
-2.827676e-01
-3.258660e-01
-3.649643e-01
-4.001194e-01
-4.314931e-01
-4.593967e-01
-4.843753e-01
-5.073671e-01
-5.299931e-01
-5.550484e-01
-5.858195e-01
-6.089098e-01
0.000000e+00
-4.218889e-02
-8.763921e-02
-1.296097e-01
-1.682774e-01
-2.037894e-01
-2.362192e-01
-2.656105e-01
-2.920161e-01
-3.155173e-01
-3.362335e-01
-3.543139e-01
-3.698740e-01
-3.827536e-01
-3.918382e-01
-3.938294e-01
-4.009684e-01
0.000000e+00
-2.638372e-02
-5.425153e-02
-8.205381e-02
-1.080064e-01
-1.318345e-01
-1.535187e-01
-1.730837e-01
-1.905343e-01
-2.058413e-01
-2.189223e-01
-2.295947e-01
-2.374780e-01
-2.418786e-01
-2.420007e-01
-2.402428e-01
-2.475240e-01
0.000000e+00
-1.273441e-02
-2.621550e-02
-3.978172e-02
-5.275349e-02
-6.470130e-02
-7.553081e-02
-8.521049e-02
-9.368492e-02
-1.008438e-01
-1.065043e-01
-1.103991e-01
-1.122094e-01
-1.117865e-01
-1.100488e-01
-1.105240e-01
-1.159456e-01
0.000000e+00
-1.173090e-05
-2.666801e-05
-4.155608e-05
-4.945750e-05
-3.490173e-05
3.281832e-05
2.088028e-04
5.834507e-04
1.291417e-03
2.508377e-03
4.410812e-03
7.046409e-03
1.002477e-02
1.208212e-02
1.151786e-02
7.928287e-03
0.000000e+00
1.271637e-02
2.617360e-02
3.971470e-02
5.267012e-02
6.463349e-02
7.555712e-02
8.549443e-02
9.453160e-02
1.027734e-01
1.103277e-01
1.172501e-01
1.234207e-01
1.283687e-01
1.312794e-01
1.315103e-01
1.296884e-01
0.000000e+00
2.638076e-02
5.424251e-02
8.203584e-02
1.079783e-01
1.317995e-01
1.534898e-01
1.730931e-01
1.906503e-01
2.061923e-01
2.197329e-01
2.312388e-01
2.405778e-01
2.474825e-01
2.516268e-01
2.529725e-01
2.525476e-01
0.000000e+00
4.220620e-02
8.767684e-02
1.296697e-01
1.683579e-01
2.038755e-01
2.362676e-01
2.655221e-01
2.915945e-01
3.144096e-01
3.338590e-01
3.498082e-01
3.621298e-01
3.707830e-01
3.759447e-01
3.781459e-01
3.785502e-01
0.000000e+00
7.067554e-02
1.301591e-01
1.849148e-01
2.359310e-01
2.830889e-01
3.262493e-01
3.652866e-01
4.000703e-01
4.304196e-01
4.560714e-01
4.766836e-01
4.919177e-01
5.016540e-01
5.063625e-01
5.075247e-01
5.075023e-01
0.000000e+00
-4.276434e-02
-8.395137e-02
-1.373202e-01
-2.028194e-01
-2.803263e-01
-3.689923e-01
-4.678250e-01
-5.757735e-01
-6.918008e-01
-8.149489e-01
-9.444555e-01
-1.080008e+00
-1.222331e+00
-1.375116e+00
-1.549930e+00
-1.801106e+00
0.000000e+00
-2.632651e-02
-6.929135e-02
-1.233219e-01
-1.898916e-01
-2.684563e-01
-3.581965e-01
-4.580955e-01
-5.670902e-01
-6.841250e-01
-8.082153e-01
-9.385639e-01
-1.074810e+00
-1.217659e+00
-1.370384e+00
-1.544137e+00
-1.757003e+00
0.000000e+00
-1.986569e-02
-5.912829e-02
-1.133583e-01
-1.805573e-01
-2.599307e-01
-3.504957e-01
-4.512260e-01
-5.610655e-01
-6.789738e-01
-8.039853e-01
-9.353300e-01
-1.072682e+00
-1.216629e+00
-1.369485e+00
-1.534123e+00
-1.693457e+00
0.000000e+00
-1.711884e-02
-5.407527e-02
-1.075099e-01
-1.749519e-01
-2.548138e-01
-3.459435e-01
-4.472754e-01
-5.577736e-01
-6.764255e-01
-8.022867e-01
-9.345723e-01
-1.072801e+00
-1.216907e+00
-1.366706e+00
-1.517984e+00
-1.657346e+00
0.000000e+00
-1.632753e-02
-5.254599e-02
-1.056443e-01
-1.731046e-01
-2.531653e-01
-3.445570e-01
-4.462151e-01
-5.571234e-01
-6.762859e-01
-8.027371e-01
-9.355677e-01
-1.073919e+00
-1.216771e+00
-1.361986e+00
-1.504596e+00
-1.635976e+00
0.000000e+00
-1.710868e-02
-5.406804e-02
-1.075228e-01
-1.750151e-01
-2.549804e-01
-3.462997e-01
-4.479501e-01
-5.589367e-01
-6.782589e-01
-8.048884e-01
-9.377253e-01
-1.075485e+00
-1.216413e+00
-1.357804e+00
-1.495524e+00
-1.624099e+00
0.000000e+00
-1.984912e-02
-5.911631e-02
-1.133798e-01
-1.806639e-01
-2.602125e-01
-3.510997e-01
-4.523715e-01
-5.630433e-01
-6.820968e-01
-8.084348e-01
-9.407882e-01
-1.077562e+00
-1.216644e+00
-1.355294e+00
-1.490371e+00
-1.618861e+00
0.000000e+00
-2.631097e-02
-6.928092e-02
-1.233505e-01
-1.900195e-01
-2.687876e-01
-3.588995e-01
-4.594196e-01
-5.693620e-01
-6.876903e-01
-8.132620e-01
-9.447175e-01
-1.080326e+00
-1.217860e+00
-1.354665e+00
-1.488240e+00
-1.617631e+00
0.000000e+00
-4.275792e-02
-8.395227e-02
-1.373643e-01
-2.029676e-01
-2.806804e-01
-3.697117e-01
-4.691375e-01
-5.779617e-01
-6.951294e-01
-8.194707e-01
-9.495958e-01
-1.083762e+00
-1.219791e+00
-1.355199e+00
-1.487851e+00
-1.617651e+00


0.000000e+00
9.962595e-08
1.996177e-07
2.924831e-07
3.795770e-07
4.604075e-07
5.346352e-07
6.022387e-07
6.633537e-07
7.182360e-07
7.672490e-07
8.107970e-07
8.491167e-07
8.819064e-07
9.087442e-07
9.316776e-07
9.520830e-07
0.000000e+00
5.602486e-08
1.363315e-07
2.085456e-07
2.747621e-07
3.358036e-07
3.916145e-07
4.421947e-07
4.875842e-07
5.278152e-07
5.628752e-07
5.926607e-07
6.170201e-07
6.364546e-07
6.542060e-07
6.752745e-07
6.969586e-07
0.000000e+00
3.529771e-08
8.615238e-08
1.338700e-07
1.783570e-07
2.192762e-07
2.564663e-07
2.898822e-07
3.194727e-07
3.451378e-07
3.667305e-07
3.841458e-07
3.976567e-07
4.086495e-07
4.202442e-07
4.359098e-07
4.540098e-07
0.000000e+00
1.724223e-08
4.129981e-08
6.466916e-08
8.691443e-08
1.073523e-07
1.257615e-07
1.420577e-07
1.561451e-07
1.679009e-07
1.772230e-07
1.841664e-07
1.892002e-07
1.935106e-07
1.990639e-07
2.081946e-07
2.207607e-07
0.000000e+00
1.806274e-11
2.237454e-11
-9.503044e-12
-1.082331e-10
-3.227370e-10
-7.247457e-10
-1.409720e-09
-2.488424e-09
-4.059391e-09
-6.148536e-09
-8.608246e-09
-1.099921e-08
-1.251605e-08
-1.191832e-08
-7.620616e-09
6.343951e-10
0.000000e+00
-1.720847e-08
-4.125449e-08
-6.467086e-08
-8.707208e-08
-1.078567e-07
-1.269259e-07
-1.443608e-07
-1.602620e-07
-1.746919e-07
-1.876219e-07
-1.988755e-07
-2.080925e-07
-2.147354e-07
-2.181396e-07
-2.174906e-07
-2.129688e-07
0.000000e+00
-3.527645e-08
-8.612097e-08
-1.338513e-07
-1.783941e-07
-2.194510e-07
-2.569212e-07
-2.908460e-07
-3.212842e-07
-3.482541e-07
-3.716896e-07
-3.914051e-07
-4.070876e-07
-4.183699e-07
-4.250649e-07
-4.272944e-07
-4.259592e-07
0.000000e+00
-5.604618e-08
-1.363740e-07
-2.085840e-07
-2.747551e-07
-3.356804e-07
-3.912588e-07
-4.414267e-07
-4.861440e-07
-5.253534e-07
-5.589652e-07
-5.868462e-07
-6.088228e-07
-6.247487e-07
-6.347642e-07
-6.396884e-07
-6.408780e-07
0.000000e+00
-9.974372e-08
-1.998264e-07
-2.927412e-07
-3.797976e-07
-4.604094e-07
-5.340753e-07
-6.005239e-07
-6.595372e-07
-7.109159e-07
-7.545031e-07
-7.902289e-07
-8.181537e-07
-8.385070e-07
-8.517643e-07
-8.586176e-07
-8.608190e-07
0.000000e+00
9.018957e-08
1.759565e-07
2.722011e-07
3.869900e-07
5.215076e-07
6.748730e-07
8.456701e-07
1.032267e-06
1.233078e-06
1.446745e-06
1.672432e-06
1.910594e-06
2.164657e-06
2.440894e-06
2.734320e-06
3.025439e-06
0.000000e+00
5.456217e-08
1.379201e-07
2.349149e-07
3.519334e-07
4.891502e-07
6.454150e-07
8.191267e-07
1.008611e-06
1.212260e-06
1.428692e-06
1.657006e-06
1.897222e-06
2.150848e-06
2.420361e-06
2.706346e-06
2.993633e-06
0.000000e+00
3.476153e-08
1.074270e-07
2.043114e-07
3.230118e-07
4.625685e-07
6.213568e-07
7.976501e-07
9.897451e-07
1.196027e-06
1.415066e-06
1.645737e-06
1.887268e-06
2.138950e-06
2.400366e-06
2.675908e-06
2.953935e-06
0.000000e+00
2.550928e-08
9.138354e-08
1.864644e-07
3.059402e-07
4.469473e-07
6.073788e-07
7.853984e-07
9.792795e-07
1.187378e-06
1.408145e-06
1.640107e-06
1.881707e-06
2.131000e-06
2.386425e-06
2.651339e-06
2.915518e-06
0.000000e+00
2.285004e-08
8.651858e-08
1.807231e-07
3.004082e-07
4.419963e-07
6.031372e-07
7.819452e-07
9.766716e-07
1.185611e-06
1.407054e-06
1.639198e-06
1.879968e-06
2.126787e-06
2.377119e-06
2.632525e-06
2.883080e-06
0.000000e+00
2.552988e-08
9.146084e-08
1.866556e-07
3.063202e-07
4.476181e-07
6.084674e-07
7.870391e-07
9.815658e-07
1.190265e-06
1.411272e-06
1.642545e-06
1.881708e-06
2.125827e-06
2.371734e-06
2.619200e-06
2.859817e-06
0.000000e+00
3.479476e-08
1.075617e-07
2.046464e-07
3.236782e-07
4.637463e-07
6.232705e-07
8.005371e-07
9.937718e-07
1.201116e-06
1.420577e-06
1.649946e-06
1.886682e-06
2.127723e-06
2.369690e-06
2.611215e-06
2.845644e-06
0.000000e+00
5.460436e-08
1.380910e-07
2.353276e-07
3.527466e-07
4.905802e-07
6.477290e-07
8.226009e-07
1.013425e-06
1.218281e-06
1.435075e-06
1.661479e-06
1.894860e-06
2.132213e-06
2.370423e-06
2.607625e-06
2.838878e-06
0.000000e+00
9.025948e-08
1.761562e-07
2.726462e-07
3.878367e-07
5.229623e-07
6.771799e-07
8.490598e-07
1.036837e-06
1.238561e-06
1.452084e-06
1.675020e-06
1.904711e-06
2.138273e-06
2.372962e-06
2.607040e-06
2.836905e-06


2.064232e-01
2.064231e-01
2.064232e-01
2.064234e-01
2.064235e-01
2.064237e-01
2.064238e-01
2.064239e-01
2.064240e-01
2.064241e-01
2.064242e-01
2.064242e-01
2.064242e-01
2.064242e-01
2.064241e-01
2.064241e-01
2.064234e-01
2.064234e-01
2.064234e-01
2.064236e-01
2.064237e-01
2.064238e-01
2.064239e-01
2.064240e-01
2.064241e-01
2.064241e-01
2.064242e-01
2.064242e-01
2.064243e-01
2.064242e-01
2.064241e-01
2.064241e-01
2.064238e-01
2.064238e-01
2.064238e-01
2.064239e-01
2.064239e-01
2.064240e-01
2.064241e-01
2.064241e-01
2.064242e-01
2.064242e-01
2.064242e-01
2.064243e-01
2.064243e-01
2.064242e-01
2.064241e-01
2.064241e-01
2.064241e-01
2.064241e-01
2.064241e-01
2.064241e-01
2.064241e-01
2.064241e-01
2.064242e-01
2.064242e-01
2.064242e-01
2.064242e-01
2.064243e-01
2.064243e-01
2.064243e-01
2.064242e-01
2.064242e-01
2.064242e-01
2.064241e-01
2.064241e-01
2.064241e-01
2.064241e-01
2.064241e-01
2.064241e-01
2.064242e-01
2.064242e-01
2.064242e-01
2.064242e-01
2.064242e-01
2.064242e-01
2.064243e-01
2.064243e-01
2.064242e-01
2.064243e-01
2.064238e-01
2.064238e-01
2.064238e-01
2.064239e-01
2.064239e-01
2.064240e-01
2.064240e-01
2.064241e-01
2.064241e-01
2.064242e-01
2.064242e-01
2.064242e-01
2.064243e-01
2.064243e-01
2.064243e-01
2.064243e-01
2.064234e-01
2.064234e-01
2.064234e-01
2.064236e-01
2.064237e-01
2.064238e-01
2.064239e-01
2.064240e-01
2.064241e-01
2.064241e-01
2.064242e-01
2.064242e-01
2.064243e-01
2.064243e-01
2.064243e-01
2.064244e-01
2.064232e-01
2.064231e-01
2.064232e-01
2.064234e-01
2.064235e-01
2.064237e-01
2.064238e-01
2.064239e-01
2.064240e-01
2.064241e-01
2.064242e-01
2.064242e-01
2.064243e-01
2.064243e-01
2.064244e-01
2.064244e-01


9.887712e-01
9.903635e-01
9.918366e-01
9.929705e-01
9.940230e-01
9.949935e-01
9.958777e-01
9.966653e-01
9.973478e-01
9.979187e-01
9.983726e-01
9.987052e-01
9.989119e-01
9.989856e-01
9.990388e-01
9.957573e-01
9.957519e-01
9.950222e-01
9.954917e-01
9.961044e-01
9.966757e-01
9.971949e-01
9.976649e-01
9.980906e-01
9.984761e-01
9.988252e-01
9.991420e-01
9.994289e-01
9.996792e-01
9.998430e-01
9.994286e-01
9.938112e-01
9.985240e-01
9.981049e-01
9.979917e-01
9.981509e-01
9.983603e-01
9.985631e-01
9.987513e-01
9.989292e-01
9.991016e-01
9.992696e-01
9.994265e-01
9.995480e-01
9.995734e-01
9.993546e-01
9.985608e-01
9.971333e-01
9.996996e-01
9.993939e-01
9.992051e-01
9.991572e-01
9.991763e-01
9.992084e-01
9.992405e-01
9.992718e-01
9.993025e-01
9.993283e-01
9.993354e-01
9.992972e-01
9.991758e-01
9.989580e-01
9.987733e-01
9.987265e-01
9.997007e-01
9.993955e-01
9.992065e-01
9.991569e-01
9.991716e-01
9.991947e-01
9.992108e-01
9.992162e-01
9.992088e-01
9.991852e-01
9.991411e-01
9.990776e-01
9.990171e-01
9.990291e-01
9.992001e-01
9.994960e-01
9.985261e-01
9.981081e-01
9.979948e-01
9.981509e-01
9.983521e-01
9.985380e-01
9.986952e-01
9.988216e-01
9.989162e-01
9.989799e-01
9.990202e-01
9.990596e-01
9.991424e-01
9.993159e-01
9.995765e-01
9.998460e-01
9.957515e-01
9.950219e-01
9.954911e-01
9.961027e-01
9.966712e-01
9.971847e-01
9.976438e-01
9.980502e-01
9.984044e-01
9.987072e-01
9.989634e-01
9.991873e-01
9.994028e-01
9.996288e-01
9.998401e-01
9.999732e-01
9.887636e-01
9.903516e-01
9.918219e-01
9.929540e-01
9.940082e-01
9.949882e-01
9.958960e-01
9.967296e-01
9.974892e-01
9.981732e-01
9.987735e-01
9.992716e-01
9.996421e-01
9.998707e-01
9.999747e-01
9.999995e-01
1 2 19 18
2 3 20 19
3 4 21 20
4 5 22 21
5 6 23 22
6 7 24 23
7 8 25 24
8 9 26 25
9 10 27 26
10 11 28 27
11 12 29 28
12 13 30 29
13 14 31 30
14 15 32 31
15 16 33 32
16 17 34 33
18 19 36 35
19 20 37 36
20 21 38 37
21 22 39 38
22 23 40 39
23 24 41 40
24 25 42 41
25 26 43 42
26 27 44 43
27 28 45 44
28 29 46 45
29 30 47 46
30 31 48 47
31 32 49 48
32 33 50 49
33 34 51 50
35 36 53 52
36 37 54 53
37 38 55 54
38 39 56 55
39 40 57 56
40 41 58 57
41 42 59 58
42 43 60 59
43 44 61 60
44 45 62 61
45 46 63 62
46 47 64 63
47 48 65 64
48 49 66 65
49 50 67 66
50 51 68 67
52 53 70 69
53 54 71 70
54 55 72 71
55 56 73 72
56 57 74 73
57 58 75 74
58 59 76 75
59 60 77 76
60 61 78 77
61 62 79 78
62 63 80 79
63 64 81 80
64 65 82 81
65 66 83 82
66 67 84 83
67 68 85 84
69 70 87 86
70 71 88 87
71 72 89 88
72 73 90 89
73 74 91 90
74 75 92 91
75 76 93 92
76 77 94 93
77 78 95 94
78 79 96 95
79 80 97 96
80 81 98 97
81 82 99 98
82 83 100 99
83 84 101 100
84 85 102 101
86 87 104 103
87 88 105 104
88 89 106 105
89 90 107 106
90 91 108 107
91 92 109 108
92 93 110 109
93 94 111 110
94 95 112 111
95 96 113 112
96 97 114 113
97 98 115 114
98 99 116 115
99 100 117 116
100 101 118 117
101 102 119 118
103 104 121 120
104 105 122 121
105 106 123 122
106 107 124 123
107 108 125 124
108 109 126 125
109 110 127 126
110 111 128 127
111 112 129 128
112 113 130 129
113 114 131 130
114 115 132 131
115 116 133 132
116 117 134 133
117 118 135 134
118 119 136 135
120 121 138 137
121 122 139 138
122 123 140 139
123 124 141 140
124 125 142 141
125 126 143 142
126 127 144 143
127 128 145 144
128 129 146 145
129 130 147 146
130 131 148 147
131 132 149 148
132 133 150 149
133 134 151 150
134 135 152 151
135 136 153 152
