TITLE = "Solution"
VARIABLES = x, y, u, v, psiu, psiv, t, stress
ZONE T="structure" N=153 E=128 F=FEBLOCK ET=QUADRILATERAL VARLOCATION=([7,8]=cellcentered)
0.000000e+00
1.250000e+01
2.500000e+01
3.750000e+01
5.000000e+01
6.250000e+01
7.500000e+01
8.750000e+01
1.000000e+02
1.125000e+02
1.250000e+02
1.375000e+02
1.500000e+02
1.625000e+02
1.750000e+02
1.875000e+02
2.000000e+02
0.000000e+00
1.250000e+01
2.500000e+01
3.750000e+01
5.000000e+01
6.250000e+01
7.500000e+01
8.750000e+01
1.000000e+02
1.125000e+02
1.250000e+02
1.375000e+02
1.500000e+02
1.625000e+02
1.750000e+02
1.875000e+02
2.000000e+02
0.000000e+00
1.250000e+01
2.500000e+01
3.750000e+01
5.000000e+01
6.250000e+01
7.500000e+01
8.750000e+01
1.000000e+02
1.125000e+02
1.250000e+02
1.375000e+02
1.500000e+02
1.625000e+02
1.750000e+02
1.875000e+02
2.000000e+02
0.000000e+00
1.250000e+01
2.500000e+01
3.750000e+01
5.000000e+01
6.250000e+01
7.500000e+01
8.750000e+01
1.000000e+02
1.125000e+02
1.250000e+02
1.375000e+02
1.500000e+02
1.625000e+02
1.750000e+02
1.875000e+02
2.000000e+02
0.000000e+00
1.250000e+01
2.500000e+01
3.750000e+01
5.000000e+01
6.250000e+01
7.500000e+01
8.750000e+01
1.000000e+02
1.125000e+02
1.250000e+02
1.375000e+02
1.500000e+02
1.625000e+02
1.750000e+02
1.875000e+02
2.000000e+02
0.000000e+00
1.250000e+01
2.500000e+01
3.750000e+01
5.000000e+01
6.250000e+01
7.500000e+01
8.750000e+01
1.000000e+02
1.125000e+02
1.250000e+02
1.375000e+02
1.500000e+02
1.625000e+02
1.750000e+02
1.875000e+02
2.000000e+02
0.000000e+00
1.250000e+01
2.500000e+01
3.750000e+01
5.000000e+01
6.250000e+01
7.500000e+01
8.750000e+01
1.000000e+02
1.125000e+02
1.250000e+02
1.375000e+02
1.500000e+02
1.625000e+02
1.750000e+02
1.875000e+02
2.000000e+02
0.000000e+00
1.250000e+01
2.500000e+01
3.750000e+01
5.000000e+01
6.250000e+01
7.500000e+01
8.750000e+01
1.000000e+02
1.125000e+02
1.250000e+02
1.375000e+02
1.500000e+02
1.625000e+02
1.750000e+02
1.875000e+02
2.000000e+02
0.000000e+00
1.250000e+01
2.500000e+01
3.750000e+01
5.000000e+01
6.250000e+01
7.500000e+01
8.750000e+01
1.000000e+02
1.125000e+02
1.250000e+02
1.375000e+02
1.500000e+02
1.625000e+02
1.750000e+02
1.875000e+02
2.000000e+02
0.000000e+00
0.000000e+00
0.000000e+00
0.000000e+00
0.000000e+00
0.000000e+00
0.000000e+00
0.000000e+00
0.000000e+00
0.000000e+00
0.000000e+00
0.000000e+00
0.000000e+00
0.000000e+00
0.000000e+00
0.000000e+00
0.000000e+00
1.250000e+01
1.250000e+01
1.250000e+01
1.250000e+01
1.250000e+01
1.250000e+01
1.250000e+01
1.250000e+01
1.250000e+01
1.250000e+01
1.250000e+01
1.250000e+01
1.250000e+01
1.250000e+01
1.250000e+01
1.250000e+01
1.250000e+01
2.500000e+01
2.500000e+01
2.500000e+01
2.500000e+01
2.500000e+01
2.500000e+01
2.500000e+01
2.500000e+01
2.500000e+01
2.500000e+01
2.500000e+01
2.500000e+01
2.500000e+01
2.500000e+01
2.500000e+01
2.500000e+01
2.500000e+01
3.750000e+01
3.750000e+01
3.750000e+01
3.750000e+01
3.750000e+01
3.750000e+01
3.750000e+01
3.750000e+01
3.750000e+01
3.750000e+01
3.750000e+01
3.750000e+01
3.750000e+01
3.750000e+01
3.750000e+01
3.750000e+01
3.750000e+01
5.000000e+01
5.000000e+01
5.000000e+01
5.000000e+01
5.000000e+01
5.000000e+01
5.000000e+01
5.000000e+01
5.000000e+01
5.000000e+01
5.000000e+01
5.000000e+01
5.000000e+01
5.000000e+01
5.000000e+01
5.000000e+01
5.000000e+01
6.250000e+01
6.250000e+01
6.250000e+01
6.250000e+01
6.250000e+01
6.250000e+01
6.250000e+01
6.250000e+01
6.250000e+01
6.250000e+01
6.250000e+01
6.250000e+01
6.250000e+01
6.250000e+01
6.250000e+01
6.250000e+01
6.250000e+01
7.500000e+01
7.500000e+01
7.500000e+01
7.500000e+01
7.500000e+01
7.500000e+01
7.500000e+01
7.500000e+01
7.500000e+01
7.500000e+01
7.500000e+01
7.500000e+01
7.500000e+01
7.500000e+01
7.500000e+01
7.500000e+01
7.500000e+01
8.750000e+01
8.750000e+01
8.750000e+01
8.750000e+01
8.750000e+01
8.750000e+01
8.750000e+01
8.750000e+01
8.750000e+01
8.750000e+01
8.750000e+01
8.750000e+01
8.750000e+01
8.750000e+01
8.750000e+01
8.750000e+01
8.750000e+01
1.000000e+02
1.000000e+02
1.000000e+02
1.000000e+02
1.000000e+02
1.000000e+02
1.000000e+02
1.000000e+02
1.000000e+02
1.000000e+02
1.000000e+02
1.000000e+02
1.000000e+02
1.000000e+02
1.000000e+02
1.000000e+02
1.000000e+02
0.000000e+00
-7.223441e-02
-1.330064e-01
-1.889246e-01
-2.410001e-01
-2.891231e-01
-3.331903e-01
-3.731675e-01
-4.091129e-01
-4.411920e-01
-4.697228e-01
-4.952630e-01
-5.187718e-01
-5.419065e-01
-5.675251e-01
-5.989880e-01
-6.225975e-01
0.000000e+00
-4.313707e-02
-8.960887e-02
-1.325227e-01
-1.720595e-01
-2.083697e-01
-2.415285e-01
-2.715805e-01
-2.985797e-01
-3.226092e-01
-3.437912e-01
-3.622781e-01
-3.781881e-01
-3.913572e-01
-4.006461e-01
-4.026821e-01
-4.099816e-01
0.000000e+00
-2.697667e-02
-5.547079e-02
-8.389792e-02
-1.104338e-01
-1.347975e-01
-1.569692e-01
-1.769740e-01
-1.948169e-01
-2.104680e-01
-2.238431e-01
-2.347555e-01
-2.428160e-01
-2.473155e-01
-2.474404e-01
-2.456429e-01
-2.530878e-01
0.000000e+00
-1.302060e-02
-2.680466e-02
-4.067579e-02
-5.393911e-02
-6.615548e-02
-7.722843e-02
-8.712570e-02
-9.579065e-02
-1.031105e-01
-1.088982e-01
-1.128806e-01
-1.147316e-01
-1.142991e-01
-1.125225e-01
-1.130083e-01
-1.185518e-01
0.000000e+00
-1.199480e-05
-2.726792e-05
-4.249091e-05
-5.057021e-05
-3.568745e-05
3.355485e-05
2.134956e-04
5.965665e-04
1.320450e-03
2.564771e-03
4.509980e-03
7.204835e-03
1.025016e-02
1.235377e-02
1.177682e-02
8.106549e-03
0.000000e+00
1.300215e-02
2.676181e-02
4.060725e-02
5.385387e-02
6.608614e-02
7.725532e-02
8.741603e-02
9.665636e-02
1.050835e-01
1.128075e-01
1.198857e-01
1.261949e-01
1.312542e-01
1.342304e-01
1.344665e-01
1.326036e-01
0.000000e+00
2.697364e-02
5.546156e-02
8.387956e-02
1.104051e-01
1.347618e-01
1.569396e-01
1.769836e-01
1.949355e-01
2.108269e-01
2.246719e-01
2.364365e-01
2.459855e-01
2.530454e-01
2.572829e-01
2.586588e-01
2.582244e-01
0.000000e+00
4.315477e-02
8.964735e-02
1.325840e-01
1.721418e-01
2.084578e-01
2.415780e-01
2.714901e-01
2.981487e-01
3.214766e-01
3.413633e-01
3.576711e-01
3.702697e-01
3.791174e-01
3.843953e-01
3.866460e-01
3.870593e-01
0.000000e+00
7.226400e-02
1.330845e-01
1.890708e-01
2.412337e-01
2.894516e-01
3.335822e-01
3.734971e-01
4.090627e-01
4.400943e-01
4.663228e-01
4.873984e-01
5.029750e-01
5.129302e-01
5.177446e-01
5.189330e-01
5.189101e-01
0.000000e+00
-4.372549e-02
-8.583826e-02
-1.404066e-01
-2.073780e-01
-2.866271e-01
-3.772861e-01
-4.783402e-01
-5.887151e-01
-7.073505e-01
-8.332667e-01
-9.656844e-01
-1.104284e+00
-1.249806e+00
-1.406025e+00
-1.584769e+00
-1.841592e+00
0.000000e+00
-2.691822e-02
-7.084875e-02
-1.260938e-01
-1.941597e-01
-2.744902e-01
-3.662475e-01
-4.683920e-01
-5.798366e-01
-6.995021e-01
-8.263817e-01
-9.596604e-01
-1.098969e+00
-1.245029e+00
-1.401187e+00
-1.578846e+00
-1.796497e+00
0.000000e+00
-2.031220e-02
-6.045728e-02
-1.159062e-01
-1.846156e-01
-2.657730e-01
-3.583737e-01
-4.613680e-01
-5.736765e-01
-6.942351e-01
-8.220566e-01
-9.563538e-01
-1.096793e+00
-1.243976e+00
-1.400268e+00
-1.568607e+00
-1.731522e+00
0.000000e+00
-1.750363e-02
-5.529070e-02
-1.099264e-01
-1.788842e-01
-2.605411e-01
-3.537191e-01
-4.573286e-01
-5.703106e-01
-6.916296e-01
-8.203199e-01
-9.555790e-01
-1.096915e+00
-1.244260e+00
-1.397426e+00
-1.552105e+00
-1.694600e+00
0.000000e+00
-1.669454e-02
-5.372706e-02
-1.080188e-01
-1.769953e-01
-2.588555e-01
-3.523014e-01
-4.562445e-01
-5.696457e-01
-6.914868e-01
-8.207803e-01
-9.565968e-01
-1.098058e+00
-1.244121e+00
-1.392600e+00
-1.538416e+00
-1.672749e+00
0.000000e+00
-1.749324e-02
-5.528331e-02
-1.099395e-01
-1.789488e-01
-2.607114e-01
-3.540833e-01
-4.580185e-01
-5.714999e-01
-6.935041e-01
-8.229800e-01
-9.588029e-01
-1.099659e+00
-1.243755e+00
-1.388324e+00
-1.529140e+00
-1.660606e+00
0.000000e+00
-2.029525e-02
-6.044503e-02
-1.159281e-01
-1.847245e-01
-2.660611e-01
-3.589912e-01
-4.625394e-01
-5.756987e-01
-6.974283e-01
-8.266062e-01
-9.619346e-01
-1.101783e+00
-1.243992e+00
-1.385758e+00
-1.523871e+00
-1.655250e+00
0.000000e+00
-2.690233e-02
-7.083808e-02
-1.261229e-01
-1.942904e-01
-2.748290e-01
-3.669663e-01
-4.697458e-01
-5.821595e-01
-7.031476e-01
-8.315419e-01
-9.659523e-01
-1.104609e+00
-1.245234e+00
-1.385115e+00
-1.521693e+00
-1.653992e+00
0.000000e+00
-4.371892e-02
-8.583918e-02
-1.404517e-01
-2.075296e-01
-2.869891e-01
-3.780216e-01
-4.796823e-01
-5.909526e-01
-7.107539e-01
-8.378901e-01
-9.709403e-01
-1.108123e+00
-1.247209e+00
-1.385661e+00
-1.521294e+00
-1.654012e+00


0.000000e+00
8.873422e-08
1.778060e-07
2.605214e-07
3.380799e-07
4.100439e-07
4.761137e-07
5.362740e-07
5.906489e-07
6.394694e-07
6.830617e-07
7.217883e-07
7.558622e-07
7.850176e-07
8.088820e-07
8.292785e-07
8.474305e-07
0.000000e+00
4.992151e-08
1.214699e-07
1.857941e-07
2.447600e-07
2.991032e-07
3.487773e-07
3.937855e-07
4.341666e-07
4.699519e-07
5.011327e-07
5.276189e-07
5.492773e-07
5.665549e-07
5.823364e-07
6.010730e-07
6.203619e-07
0.000000e+00
3.146668e-08
7.677928e-08
1.192853e-07
1.589015e-07
1.953296e-07
2.284289e-07
2.581620e-07
2.844858e-07
3.073134e-07
3.265157e-07
3.420007e-07
3.540121e-07
3.637839e-07
3.740921e-07
3.880242e-07
4.041246e-07
0.000000e+00
1.537520e-08
3.681049e-08
5.762846e-08
7.743885e-08
9.563378e-08
1.120180e-07
1.265181e-07
1.390501e-07
1.495059e-07
1.577957e-07
1.639692e-07
1.684442e-07
1.722763e-07
1.772144e-07
1.853350e-07
1.965118e-07
0.000000e+00
1.600108e-11
1.976106e-11
-8.674184e-12
-9.657507e-11
-2.874470e-10
-6.450754e-10
-1.254342e-09
-2.213727e-09
-3.610811e-09
-5.468564e-09
-7.655586e-09
-9.781052e-09
-1.112877e-08
-1.059615e-08
-6.773872e-09
5.674656e-10
0.000000e+00
-1.534529e-08
-3.677042e-08
-5.763035e-08
-7.757959e-08
-9.608310e-08
-1.130544e-07
-1.285672e-07
-1.427123e-07
-1.555462e-07
-1.670442e-07
-1.770500e-07
-1.852442e-07
-1.911492e-07
-1.941749e-07
-1.935974e-07
-1.895766e-07
0.000000e+00
-3.144783e-08
-7.675149e-08
-1.192689e-07
-1.589349e-07
-1.954855e-07
-2.288340e-07
-2.590197e-07
-2.860973e-07
-3.100850e-07
-3.309258e-07
-3.484560e-07
-3.623989e-07
-3.724289e-07
-3.783807e-07
-3.803628e-07
-3.791755e-07
0.000000e+00
-4.994048e-08
-1.215077e-07
-1.858284e-07
-2.447540e-07
-2.989939e-07
-3.484613e-07
-3.931030e-07
-4.328864e-07
-4.677633e-07
-4.976563e-07
-5.224492e-07
-5.419898e-07
-5.561493e-07
-5.650537e-07
-5.694315e-07
-5.704890e-07
0.000000e+00
-8.883898e-08
-1.779917e-07
-2.607509e-07
-3.382761e-07
-4.100456e-07
-4.756159e-07
-5.347491e-07
-5.872553e-07
-6.329608e-07
-6.717292e-07
-7.035013e-07
-7.283332e-07
-7.464307e-07
-7.582178e-07
-7.643107e-07
-7.662676e-07
0.000000e+00
8.033013e-08
1.566954e-07
2.423803e-07
3.445759e-07
4.643366e-07
6.008755e-07
7.529288e-07
9.190406e-07
1.097798e-06
1.287991e-06
1.488873e-06
1.700849e-06
1.926965e-06
2.172805e-06
2.433942e-06
2.693033e-06
0.000000e+00
4.858627e-08
1.228074e-07
2.091684e-07
3.133584e-07
4.355305e-07
5.746573e-07
7.293101e-07
8.979958e-07
1.079282e-06
1.271936e-06
1.475156e-06
1.688960e-06
1.914687e-06
2.154544e-06
2.409058e-06
2.664738e-06
0.000000e+00
3.094139e-08
9.564130e-08
1.819117e-07
2.876071e-07
4.118691e-07
5.532473e-07
7.102017e-07
8.812135e-07
1.064844e-06
1.259818e-06
1.465136e-06
1.680110e-06
1.904108e-06
2.136762e-06
2.381983e-06
2.629424e-06
0.000000e+00
2.269866e-08
8.135165e-08
1.660199e-07
2.724097e-07
3.979664e-07
5.408099e-07
6.993024e-07
8.719046e-07
1.057152e-06
1.253665e-06
1.460131e-06
1.675166e-06
1.897040e-06
2.124365e-06
2.360131e-06
2.595251e-06
0.000000e+00
2.033021e-08
7.701943e-08
1.609081e-07
2.674855e-07
3.935604e-07
5.370358e-07
6.962302e-07
8.695848e-07
1.055580e-06
1.252694e-06
1.459323e-06
1.673620e-06
1.893294e-06
2.116090e-06
2.343400e-06
2.566401e-06
0.000000e+00
2.271701e-08
8.142040e-08
1.661899e-07
2.727476e-07
3.985627e-07
5.417777e-07
7.007611e-07
8.739374e-07
1.059719e-06
1.256445e-06
1.462299e-06
1.675167e-06
1.892440e-06
2.111303e-06
2.331552e-06
2.545714e-06
0.000000e+00
3.097098e-08
9.576109e-08
1.822096e-07
2.881996e-07
4.129162e-07
5.549488e-07
7.127685e-07
8.847938e-07
1.069369e-06
1.264719e-06
1.468880e-06
1.679589e-06
1.894127e-06
2.109486e-06
2.324453e-06
2.533111e-06
0.000000e+00
4.862384e-08
1.229594e-07
2.095354e-07
3.140815e-07
4.368020e-07
5.767147e-07
7.323991e-07
9.022762e-07
1.084635e-06
1.277612e-06
1.479134e-06
1.686861e-06
1.898119e-06
2.110138e-06
2.321261e-06
2.527096e-06
0.000000e+00
8.039239e-08
1.568732e-07
2.427762e-07
3.453289e-07
4.656302e-07
6.029268e-07
7.559428e-07
9.231047e-07
1.102674e-06
1.292739e-06
1.491175e-06
1.695620e-06
1.903506e-06
2.112396e-06
2.320742e-06
2.525342e-06


2.110622e-01
2.110621e-01
2.110623e-01
2.110628e-01
2.110633e-01
2.110637e-01
2.110640e-01
2.110644e-01
2.110647e-01
2.110649e-01
2.110651e-01
2.110653e-01
2.110654e-01
2.110653e-01
2.110650e-01
2.110649e-01
2.110630e-01
2.110629e-01
2.110630e-01
2.110634e-01
2.110637e-01
2.110640e-01
2.110643e-01
2.110646e-01
2.110648e-01
2.110650e-01
2.110652e-01
2.110653e-01
2.110654e-01
2.110653e-01
2.110650e-01
2.110648e-01
2.110642e-01
2.110641e-01
2.110641e-01
2.110643e-01
2.110645e-01
2.110646e-01
2.110648e-01
2.110650e-01
2.110651e-01
2.110652e-01
2.110653e-01
2.110654e-01
2.110654e-01
2.110653e-01
2.110651e-01
2.110649e-01
2.110650e-01
2.110649e-01
2.110649e-01
2.110649e-01
2.110650e-01
2.110651e-01
2.110651e-01
2.110652e-01
2.110653e-01
2.110653e-01
2.110654e-01
2.110654e-01
2.110654e-01
2.110653e-01
2.110652e-01
2.110652e-01
2.110650e-01
2.110649e-01
2.110649e-01
2.110649e-01
2.110650e-01
2.110651e-01
2.110651e-01
2.110652e-01
2.110653e-01
2.110653e-01
2.110653e-01
2.110654e-01
2.110654e-01
2.110654e-01
2.110654e-01
2.110654e-01
2.110642e-01
2.110641e-01
2.110641e-01
2.110643e-01
2.110645e-01
2.110646e-01
2.110648e-01
2.110649e-01
2.110651e-01
2.110652e-01
2.110652e-01
2.110653e-01
2.110654e-01
2.110655e-01
2.110655e-01
2.110656e-01
2.110629e-01
2.110628e-01
2.110630e-01
2.110634e-01
2.110637e-01
2.110640e-01
2.110643e-01
2.110646e-01
2.110648e-01
2.110650e-01
2.110652e-01
2.110653e-01
2.110654e-01
2.110656e-01
2.110656e-01
2.110657e-01
2.110622e-01
2.110621e-01
2.110623e-01
2.110628e-01
2.110633e-01
2.110637e-01
2.110640e-01
2.110644e-01
2.110647e-01
2.110649e-01
2.110652e-01
2.110653e-01
2.110655e-01
2.110656e-01
2.110657e-01
2.110657e-01


9.882608e-01
9.899255e-01
9.914655e-01
9.926509e-01
9.937513e-01
9.947659e-01
9.956903e-01
9.965136e-01
9.972272e-01
9.978241e-01
9.982986e-01
9.986463e-01
9.988624e-01
9.989395e-01
9.989951e-01
9.955643e-01
9.955588e-01
9.947960e-01
9.952868e-01
9.959274e-01
9.965246e-01
9.970674e-01
9.975588e-01
9.980038e-01
9.984068e-01
9.987718e-01
9.991030e-01
9.994029e-01
9.996646e-01
9.998359e-01
9.994026e-01
9.935298e-01
9.984569e-01
9.980187e-01
9.979005e-01
9.980668e-01
9.982857e-01
9.984977e-01
9.986946e-01
9.988805e-01
9.990607e-01
9.992364e-01
9.994004e-01
9.995274e-01
9.995540e-01
9.993252e-01
9.984954e-01
9.970029e-01
9.996859e-01
9.993664e-01
9.991690e-01
9.991189e-01
9.991389e-01
9.991725e-01
9.992060e-01
9.992387e-01
9.992708e-01
9.992977e-01
9.993052e-01
9.992652e-01
9.991383e-01
9.989106e-01
9.987175e-01
9.986686e-01
9.996871e-01
9.993681e-01
9.991705e-01
9.991186e-01
9.991339e-01
9.991581e-01
9.991749e-01
9.991806e-01
9.991729e-01
9.991481e-01
9.991020e-01
9.990356e-01
9.989724e-01
9.989850e-01
9.991637e-01
9.994731e-01
9.984591e-01
9.980221e-01
9.979037e-01
9.980669e-01
9.982772e-01
9.984715e-01
9.986358e-01
9.987680e-01
9.988669e-01
9.989335e-01
9.989757e-01
9.990169e-01
9.991034e-01
9.992848e-01
9.995573e-01
9.998390e-01
9.955584e-01
9.947957e-01
9.952861e-01
9.959255e-01
9.965199e-01
9.970567e-01
9.975366e-01
9.979616e-01
9.983319e-01
9.986484e-01
9.989163e-01
9.991503e-01
9.993757e-01
9.996119e-01
9.998329e-01
9.999720e-01
9.882528e-01
9.899130e-01
9.914501e-01
9.926337e-01
9.937358e-01
9.947603e-01
9.957094e-01
9.965809e-01
9.973750e-01
9.980901e-01
9.987178e-01
9.992385e-01
9.996258e-01
9.998648e-01
9.999735e-01
9.999994e-01
1 2 19 18
2 3 20 19
3 4 21 20
4 5 22 21
5 6 23 22
6 7 24 23
7 8 25 24
8 9 26 25
9 10 27 26
10 11 28 27
11 12 29 28
12 13 30 29
13 14 31 30
14 15 32 31
15 16 33 32
16 17 34 33
18 19 36 35
19 20 37 36
20 21 38 37
21 22 39 38
22 23 40 39
23 24 41 40
24 25 42 41
25 26 43 42
26 27 44 43
27 28 45 44
28 29 46 45
29 30 47 46
30 31 48 47
31 32 49 48
32 33 50 49
33 34 51 50
35 36 53 52
36 37 54 53
37 38 55 54
38 39 56 55
39 40 57 56
40 41 58 57
41 42 59 58
42 43 60 59
43 44 61 60
44 45 62 61
45 46 63 62
46 47 64 63
47 48 65 64
48 49 66 65
49 50 67 66
50 51 68 67
52 53 70 69
53 54 71 70
54 55 72 71
55 56 73 72
56 57 74 73
57 58 75 74
58 59 76 75
59 60 77 76
60 61 78 77
61 62 79 78
62 63 80 79
63 64 81 80
64 65 82 81
65 66 83 82
66 67 84 83
67 68 85 84
69 70 87 86
70 71 88 87
71 72 89 88
72 73 90 89
73 74 91 90
74 75 92 91
75 76 93 92
76 77 94 93
77 78 95 94
78 79 96 95
79 80 97 96
80 81 98 97
81 82 99 98
82 83 100 99
83 84 101 100
84 85 102 101
86 87 104 103
87 88 105 104
88 89 106 105
89 90 107 106
90 91 108 107
91 92 109 108
92 93 110 109
93 94 111 110
94 95 112 111
95 96 113 112
96 97 114 113
97 98 115 114
98 99 116 115
99 100 117 116
100 101 118 117
101 102 119 118
103 104 121 120
104 105 122 121
105 106 123 122
106 107 124 123
107 108 125 124
108 109 126 125
109 110 127 126
110 111 128 127
111 112 129 128
112 113 130 129
113 114 131 130
114 115 132 131
115 116 133 132
116 117 134 133
117 118 135 134
118 119 136 135
120 121 138 137
121 122 139 138
122 123 140 139
123 124 141 140
124 125 142 141
125 126 143 142
126 127 144 143
127 128 145 144
128 129 146 145
129 130 147 146
130 131 148 147
131 132 149 148
132 133 150 149
133 134 151 150
134 135 152 151
135 136 153 152
