TITLE = "Solution"
VARIABLES = x, y, u, v, psiu, psiv, t, stress
ZONE T="structure" N=153 E=128 F=FEBLOCK ET=QUADRILATERAL VARLOCATION=([7,8]=cellcentered)
0.000000e+00
1.250000e+01
2.500000e+01
3.750000e+01
5.000000e+01
6.250000e+01
7.500000e+01
8.750000e+01
1.000000e+02
1.125000e+02
1.250000e+02
1.375000e+02
1.500000e+02
1.625000e+02
1.750000e+02
1.875000e+02
2.000000e+02
0.000000e+00
1.250000e+01
2.500000e+01
3.750000e+01
5.000000e+01
6.250000e+01
7.500000e+01
8.750000e+01
1.000000e+02
1.125000e+02
1.250000e+02
1.375000e+02
1.500000e+02
1.625000e+02
1.750000e+02
1.875000e+02
2.000000e+02
0.000000e+00
1.250000e+01
2.500000e+01
3.750000e+01
5.000000e+01
6.250000e+01
7.500000e+01
8.750000e+01
1.000000e+02
1.125000e+02
1.250000e+02
1.375000e+02
1.500000e+02
1.625000e+02
1.750000e+02
1.875000e+02
2.000000e+02
0.000000e+00
1.250000e+01
2.500000e+01
3.750000e+01
5.000000e+01
6.250000e+01
7.500000e+01
8.750000e+01
1.000000e+02
1.125000e+02
1.250000e+02
1.375000e+02
1.500000e+02
1.625000e+02
1.750000e+02
1.875000e+02
2.000000e+02
0.000000e+00
1.250000e+01
2.500000e+01
3.750000e+01
5.000000e+01
6.250000e+01
7.500000e+01
8.750000e+01
1.000000e+02
1.125000e+02
1.250000e+02
1.375000e+02
1.500000e+02
1.625000e+02
1.750000e+02
1.875000e+02
2.000000e+02
0.000000e+00
1.250000e+01
2.500000e+01
3.750000e+01
5.000000e+01
6.250000e+01
7.500000e+01
8.750000e+01
1.000000e+02
1.125000e+02
1.250000e+02
1.375000e+02
1.500000e+02
1.625000e+02
1.750000e+02
1.875000e+02
2.000000e+02
0.000000e+00
1.250000e+01
2.500000e+01
3.750000e+01
5.000000e+01
6.250000e+01
7.500000e+01
8.750000e+01
1.000000e+02
1.125000e+02
1.250000e+02
1.375000e+02
1.500000e+02
1.625000e+02
1.750000e+02
1.875000e+02
2.000000e+02
0.000000e+00
1.250000e+01
2.500000e+01
3.750000e+01
5.000000e+01
6.250000e+01
7.500000e+01
8.750000e+01
1.000000e+02
1.125000e+02
1.250000e+02
1.375000e+02
1.500000e+02
1.625000e+02
1.750000e+02
1.875000e+02
2.000000e+02
0.000000e+00
1.250000e+01
2.500000e+01
3.750000e+01
5.000000e+01
6.250000e+01
7.500000e+01
8.750000e+01
1.000000e+02
1.125000e+02
1.250000e+02
1.375000e+02
1.500000e+02
1.625000e+02
1.750000e+02
1.875000e+02
2.000000e+02
0.000000e+00
0.000000e+00
0.000000e+00
0.000000e+00
0.000000e+00
0.000000e+00
0.000000e+00
0.000000e+00
0.000000e+00
0.000000e+00
0.000000e+00
0.000000e+00
0.000000e+00
0.000000e+00
0.000000e+00
0.000000e+00
0.000000e+00
1.250000e+01
1.250000e+01
1.250000e+01
1.250000e+01
1.250000e+01
1.250000e+01
1.250000e+01
1.250000e+01
1.250000e+01
1.250000e+01
1.250000e+01
1.250000e+01
1.250000e+01
1.250000e+01
1.250000e+01
1.250000e+01
1.250000e+01
2.500000e+01
2.500000e+01
2.500000e+01
2.500000e+01
2.500000e+01
2.500000e+01
2.500000e+01
2.500000e+01
2.500000e+01
2.500000e+01
2.500000e+01
2.500000e+01
2.500000e+01
2.500000e+01
2.500000e+01
2.500000e+01
2.500000e+01
3.750000e+01
3.750000e+01
3.750000e+01
3.750000e+01
3.750000e+01
3.750000e+01
3.750000e+01
3.750000e+01
3.750000e+01
3.750000e+01
3.750000e+01
3.750000e+01
3.750000e+01
3.750000e+01
3.750000e+01
3.750000e+01
3.750000e+01
5.000000e+01
5.000000e+01
5.000000e+01
5.000000e+01
5.000000e+01
5.000000e+01
5.000000e+01
5.000000e+01
5.000000e+01
5.000000e+01
5.000000e+01
5.000000e+01
5.000000e+01
5.000000e+01
5.000000e+01
5.000000e+01
5.000000e+01
6.250000e+01
6.250000e+01
6.250000e+01
6.250000e+01
6.250000e+01
6.250000e+01
6.250000e+01
6.250000e+01
6.250000e+01
6.250000e+01
6.250000e+01
6.250000e+01
6.250000e+01
6.250000e+01
6.250000e+01
6.250000e+01
6.250000e+01
7.500000e+01
7.500000e+01
7.500000e+01
7.500000e+01
7.500000e+01
7.500000e+01
7.500000e+01
7.500000e+01
7.500000e+01
7.500000e+01
7.500000e+01
7.500000e+01
7.500000e+01
7.500000e+01
7.500000e+01
7.500000e+01
7.500000e+01
8.750000e+01
8.750000e+01
8.750000e+01
8.750000e+01
8.750000e+01
8.750000e+01
8.750000e+01
8.750000e+01
8.750000e+01
8.750000e+01
8.750000e+01
8.750000e+01
8.750000e+01
8.750000e+01
8.750000e+01
8.750000e+01
8.750000e+01
1.000000e+02
1.000000e+02
1.000000e+02
1.000000e+02
1.000000e+02
1.000000e+02
1.000000e+02
1.000000e+02
1.000000e+02
1.000000e+02
1.000000e+02
1.000000e+02
1.000000e+02
1.000000e+02
1.000000e+02
1.000000e+02
1.000000e+02
0.000000e+00
-7.300899e-02
-1.344327e-01
-1.909504e-01
-2.435844e-01
-2.922235e-01
-3.367633e-01
-3.771692e-01
-4.135001e-01
-4.459233e-01
-4.747602e-01
-5.005743e-01
-5.243353e-01
-5.477181e-01
-5.736116e-01
-6.054119e-01
-6.292746e-01
0.000000e+00
-4.359963e-02
-9.056974e-02
-1.339437e-01
-1.739045e-01
-2.106041e-01
-2.441186e-01
-2.744928e-01
-3.017816e-01
-3.260689e-01
-3.474780e-01
-3.661633e-01
-3.822439e-01
-3.955543e-01
-4.049428e-01
-4.070006e-01
-4.143784e-01
0.000000e+00
-2.726593e-02
-5.606559e-02
-8.479755e-02
-1.116180e-01
-1.362430e-01
-1.586525e-01
-1.788718e-01
-1.969061e-01
-2.127250e-01
-2.262436e-01
-2.372730e-01
-2.454200e-01
-2.499678e-01
-2.500940e-01
-2.482773e-01
-2.558020e-01
0.000000e+00
-1.316021e-02
-2.709207e-02
-4.111194e-02
-5.451750e-02
-6.686488e-02
-7.805658e-02
-8.806000e-02
-9.681788e-02
-1.042163e-01
-1.100660e-01
-1.140911e-01
-1.159620e-01
-1.155249e-01
-1.137291e-01
-1.142202e-01
-1.198232e-01
0.000000e+00
-1.212351e-05
-2.756050e-05
-4.294684e-05
-5.111288e-05
-3.607057e-05
3.391433e-05
2.157851e-04
6.029648e-04
1.334612e-03
2.592281e-03
4.558355e-03
7.282116e-03
1.036010e-02
1.248629e-02
1.190315e-02
8.193505e-03
0.000000e+00
1.314156e-02
2.704877e-02
4.104267e-02
5.443134e-02
6.679480e-02
7.808376e-02
8.835344e-02
9.769288e-02
1.062104e-01
1.140173e-01
1.211713e-01
1.275483e-01
1.326619e-01
1.356699e-01
1.359085e-01
1.340256e-01
0.000000e+00
2.726287e-02
5.605626e-02
8.477898e-02
1.115890e-01
1.362069e-01
1.586225e-01
1.788816e-01
1.970259e-01
2.130878e-01
2.270813e-01
2.389721e-01
2.486235e-01
2.557591e-01
2.600421e-01
2.614328e-01
2.609937e-01
0.000000e+00
4.361751e-02
9.060863e-02
1.340057e-01
1.739877e-01
2.106931e-01
2.441685e-01
2.744015e-01
3.013460e-01
3.249241e-01
3.450241e-01
3.615069e-01
3.742406e-01
3.831832e-01
3.885176e-01
3.907925e-01
3.912103e-01
0.000000e+00
7.303890e-02
1.345116e-01
1.910982e-01
2.438205e-01
2.925555e-01
3.371594e-01
3.775023e-01
4.134495e-01
4.448139e-01
4.713237e-01
4.926254e-01
5.083691e-01
5.184310e-01
5.232971e-01
5.244982e-01
5.244750e-01
0.000000e+00
-4.419437e-02
-8.675874e-02
-1.419123e-01
-2.096018e-01
-2.897008e-01
-3.813320e-01
-4.834698e-01
-5.950284e-01
-7.149360e-01
-8.422027e-01
-9.760404e-01
-1.116127e+00
-1.263209e+00
-1.421104e+00
-1.601765e+00
-1.861342e+00
0.000000e+00
-2.720687e-02
-7.160850e-02
-1.274459e-01
-1.962418e-01
-2.774338e-01
-3.701750e-01
-4.734149e-01
-5.860547e-01
-7.070034e-01
-8.352438e-01
-9.699518e-01
-1.110755e+00
-1.258381e+00
-1.416214e+00
-1.595778e+00
-1.815764e+00
0.000000e+00
-2.053002e-02
-6.110560e-02
-1.171491e-01
-1.865953e-01
-2.686231e-01
-3.622167e-01
-4.663156e-01
-5.798285e-01
-7.016800e-01
-8.308723e-01
-9.666097e-01
-1.108555e+00
-1.257316e+00
-1.415285e+00
-1.585429e+00
-1.750092e+00
0.000000e+00
-1.769134e-02
-5.588362e-02
-1.111052e-01
-1.808024e-01
-2.633351e-01
-3.575122e-01
-4.622329e-01
-5.764264e-01
-6.990465e-01
-8.291169e-01
-9.658266e-01
-1.108678e+00
-1.257604e+00
-1.412412e+00
-1.568750e+00
-1.712773e+00
0.000000e+00
-1.687358e-02
-5.430321e-02
-1.091771e-01
-1.788933e-01
-2.616314e-01
-3.560793e-01
-4.611371e-01
-5.757545e-01
-6.989022e-01
-8.295823e-01
-9.668554e-01
-1.109834e+00
-1.257464e+00
-1.407535e+00
-1.554915e+00
-1.690688e+00
0.000000e+00
-1.768084e-02
-5.587615e-02
-1.111185e-01
-1.808678e-01
-2.635072e-01
-3.578804e-01
-4.629301e-01
-5.776285e-01
-7.009412e-01
-8.318056e-01
-9.690851e-01
-1.111452e+00
-1.257094e+00
-1.403213e+00
-1.545539e+00
-1.678415e+00
0.000000e+00
-2.051289e-02
-6.109322e-02
-1.171713e-01
-1.867054e-01
-2.689142e-01
-3.628409e-01
-4.674995e-01
-5.818724e-01
-7.049074e-01
-8.354706e-01
-9.722504e-01
-1.113599e+00
-1.257332e+00
-1.400619e+00
-1.540214e+00
-1.673001e+00
0.000000e+00
-2.719081e-02
-7.159772e-02
-1.274754e-01
-1.963739e-01
-2.777762e-01
-3.709016e-01
-4.747832e-01
-5.884025e-01
-7.106881e-01
-8.404593e-01
-9.763112e-01
-1.116455e+00
-1.258588e+00
-1.399969e+00
-1.538012e+00
-1.671730e+00
0.000000e+00
-4.418773e-02
-8.675967e-02
-1.419579e-01
-2.097550e-01
-2.900667e-01
-3.820754e-01
-4.848263e-01
-5.972898e-01
-7.183759e-01
-8.468757e-01
-9.813527e-01
-1.120006e+00
-1.260585e+00
-1.400521e+00
-1.537609e+00
-1.671750e+00


0.000000e+00
7.870614e-08
1.577216e-07
2.310912e-07
2.998731e-07
3.636793e-07
4.222466e-07
4.755641e-07
5.237448e-07
5.669962e-07
6.056099e-07
6.399093e-07
6.700850e-07
6.959041e-07
7.170386e-07
7.351050e-07
7.511867e-07
0.000000e+00
4.429785e-08
1.077783e-07
1.648371e-07
2.171297e-07
2.653105e-07
3.093412e-07
3.492276e-07
3.850065e-07
4.167079e-07
4.443261e-07
4.677830e-07
4.869621e-07
5.022600e-07
5.162336e-07
5.328288e-07
5.499173e-07
0.000000e+00
2.793390e-08
6.814041e-08
1.058470e-07
1.409801e-07
1.732767e-07
2.026143e-07
2.289625e-07
2.522849e-07
2.725061e-07
2.895134e-07
3.032263e-07
3.138615e-07
3.225129e-07
3.316403e-07
3.439805e-07
3.582439e-07
0.000000e+00
1.365266e-08
3.267205e-08
5.114025e-08
6.870940e-08
8.484093e-08
9.936315e-08
1.122124e-07
1.233153e-07
1.325772e-07
1.399191e-07
1.453858e-07
1.493480e-07
1.527410e-07
1.571144e-07
1.643072e-07
1.742079e-07
0.000000e+00
1.411987e-11
1.738748e-11
-7.870009e-12
-8.580729e-11
-2.549564e-10
-5.718075e-10
-1.111530e-09
-1.961328e-09
-3.198735e-09
-4.844027e-09
-6.780722e-09
-8.662544e-09
-9.855188e-09
-9.382580e-09
-5.996926e-09
5.053748e-10
0.000000e+00
-1.362626e-08
-3.263676e-08
-5.114225e-08
-6.883451e-08
-8.523950e-08
-1.002819e-07
-1.140281e-07
-1.265598e-07
-1.379278e-07
-1.481109e-07
-1.569714e-07
-1.642268e-07
-1.694547e-07
-1.721332e-07
-1.716215e-07
-1.680606e-07
0.000000e+00
-2.791726e-08
-6.811591e-08
-1.058327e-07
-1.410100e-07
-1.734151e-07
-2.029736e-07
-2.297226e-07
-2.537125e-07
-2.749611e-07
-2.934193e-07
-3.089434e-07
-3.212895e-07
-3.301703e-07
-3.354400e-07
-3.371950e-07
-3.361435e-07
0.000000e+00
-4.431465e-08
-1.078118e-07
-1.648676e-07
-2.171245e-07
-2.652139e-07
-3.090617e-07
-3.486235e-07
-3.838730e-07
-4.147699e-07
-4.412477e-07
-4.632053e-07
-4.805095e-07
-4.930477e-07
-5.009322e-07
-5.048085e-07
-5.057448e-07
0.000000e+00
-7.879894e-08
-1.578860e-07
-2.312945e-07
-3.000469e-07
-3.636809e-07
-4.218057e-07
-4.742136e-07
-5.207395e-07
-5.612326e-07
-5.955748e-07
-6.237161e-07
-6.457081e-07
-6.617347e-07
-6.721723e-07
-6.775672e-07
-6.792997e-07
0.000000e+00
7.125235e-08
1.389665e-07
2.149363e-07
3.055457e-07
4.117296e-07
5.327880e-07
6.675976e-07
8.148656e-07
9.733377e-07
1.141940e-06
1.320010e-06
1.507905e-06
1.708324e-06
1.926215e-06
2.157665e-06
2.387307e-06
0.000000e+00
4.308636e-08
1.088998e-07
1.854761e-07
2.778617e-07
3.861905e-07
5.095488e-07
6.466672e-07
7.962197e-07
9.569349e-07
1.127720e-06
1.307862e-06
1.497377e-06
1.697451e-06
1.910041e-06
2.135620e-06
2.362238e-06
0.000000e+00
2.742807e-08
8.479820e-08
1.613007e-07
2.550276e-07
3.652150e-07
4.905736e-07
6.297353e-07
7.813517e-07
9.441460e-07
1.116988e-06
1.298989e-06
1.489541e-06
1.688084e-06
1.894291e-06
2.111635e-06
2.330951e-06
0.000000e+00
2.011520e-08
7.212336e-08
1.472081e-07
2.415544e-07
3.528925e-07
4.795521e-07
6.200786e-07
7.731054e-07
9.373331e-07
1.111538e-06
1.294557e-06
1.485163e-06
1.681824e-06
1.883311e-06
2.092278e-06
2.300678e-06
0.000000e+00
1.801448e-08
6.828147e-08
1.426755e-07
2.371891e-07
3.489875e-07
4.762078e-07
6.173566e-07
7.710503e-07
9.359407e-07
1.110678e-06
1.293841e-06
1.483794e-06
1.678507e-06
1.875984e-06
2.077460e-06
2.275123e-06
0.000000e+00
2.013147e-08
7.218426e-08
1.473586e-07
2.418536e-07
3.534206e-07
4.804091e-07
6.213702e-07
7.749055e-07
9.396059e-07
1.114000e-06
1.296477e-06
1.485164e-06
1.677751e-06
1.871745e-06
2.066968e-06
2.256800e-06
0.000000e+00
2.745431e-08
8.490432e-08
1.615645e-07
2.555523e-07
3.661423e-07
4.920803e-07
6.320083e-07
7.845223e-07
9.481533e-07
1.121328e-06
1.302305e-06
1.489080e-06
1.679245e-06
1.870137e-06
2.060681e-06
2.245640e-06
0.000000e+00
4.311968e-08
1.090345e-07
1.858011e-07
2.785021e-07
3.873165e-07
5.113708e-07
6.494027e-07
8.000104e-07
9.616762e-07
1.132747e-06
1.311386e-06
1.495520e-06
1.682780e-06
1.870715e-06
2.057856e-06
2.240313e-06
0.000000e+00
7.130757e-08
1.391240e-07
2.152870e-07
3.062127e-07
4.128753e-07
5.346045e-07
6.702667e-07
8.184646e-07
9.776559e-07
1.146145e-06
1.322050e-06
1.503276e-06
1.687551e-06
1.872714e-06
2.057396e-06
2.238760e-06


2.133253e-01
2.133252e-01
2.133255e-01
2.133261e-01
2.133267e-01
2.133272e-01
2.133277e-01
2.133281e-01
2.133284e-01
2.133288e-01
2.133290e-01
2.133292e-01
2.133293e-01
2.133292e-01
2.133290e-01
2.133287e-01
2.133262e-01
2.133261e-01
2.133263e-01
2.133268e-01
2.133272e-01
2.133277e-01
2.133280e-01
2.133284e-01
2.133286e-01
2.133289e-01
2.133291e-01
2.133293e-01
2.133294e-01
2.133292e-01
2.133289e-01
2.133287e-01
2.133278e-01
2.133277e-01
2.133277e-01
2.133279e-01
2.133282e-01
2.133284e-01
2.133286e-01
2.133288e-01
2.133290e-01
2.133292e-01
2.133293e-01
2.133294e-01
2.133294e-01
2.133292e-01
2.133290e-01
2.133288e-01
2.133289e-01
2.133288e-01
2.133287e-01
2.133288e-01
2.133289e-01
2.133290e-01
2.133291e-01
2.133291e-01
2.133292e-01
2.133293e-01
2.133293e-01
2.133294e-01
2.133294e-01
2.133293e-01
2.133292e-01
2.133291e-01
2.133289e-01
2.133288e-01
2.133287e-01
2.133288e-01
2.133289e-01
2.133290e-01
2.133290e-01
2.133291e-01
2.133292e-01
2.133292e-01
2.133293e-01
2.133293e-01
2.133294e-01
2.133294e-01
2.133294e-01
2.133294e-01
2.133278e-01
2.133277e-01
2.133277e-01
2.133279e-01
2.133282e-01
2.133284e-01
2.133286e-01
2.133288e-01
2.133289e-01
2.133291e-01
2.133292e-01
2.133293e-01
2.133294e-01
2.133295e-01
2.133295e-01
2.133296e-01
2.133262e-01
2.133261e-01
2.133263e-01
2.133268e-01
2.133272e-01
2.133276e-01
2.133280e-01
2.133283e-01
2.133286e-01
2.133289e-01
2.133291e-01
2.133293e-01
2.133294e-01
2.133296e-01
2.133297e-01
2.133297e-01
2.133253e-01
2.133252e-01
2.133255e-01
2.133261e-01
2.133267e-01
2.133272e-01
2.133277e-01
2.133281e-01
2.133285e-01
2.133288e-01
2.133291e-01
2.133293e-01
2.133295e-01
2.133297e-01
2.133298e-01
2.133298e-01


9.880077e-01
9.897083e-01
9.912815e-01
9.924925e-01
9.936165e-01
9.946531e-01
9.955974e-01
9.964384e-01
9.971674e-01
9.977771e-01
9.982620e-01
9.986171e-01
9.988379e-01
9.989166e-01
9.989735e-01
9.954687e-01
9.954631e-01
9.946838e-01
9.951852e-01
9.958395e-01
9.964496e-01
9.970041e-01
9.975061e-01
9.979608e-01
9.983724e-01
9.987453e-01
9.990837e-01
9.993900e-01
9.996573e-01
9.998324e-01
9.993897e-01
9.933903e-01
9.984236e-01
9.979760e-01
9.978552e-01
9.980252e-01
9.982487e-01
9.984653e-01
9.986664e-01
9.988564e-01
9.990404e-01
9.992199e-01
9.993875e-01
9.995173e-01
9.995443e-01
9.993107e-01
9.984630e-01
9.969383e-01
9.996792e-01
9.993527e-01
9.991511e-01
9.990999e-01
9.991203e-01
9.991546e-01
9.991888e-01
9.992223e-01
9.992551e-01
9.992826e-01
9.992902e-01
9.992494e-01
9.991198e-01
9.988871e-01
9.986898e-01
9.986399e-01
9.996804e-01
9.993544e-01
9.991526e-01
9.990996e-01
9.991152e-01
9.991400e-01
9.991571e-01
9.991629e-01
9.991550e-01
9.991297e-01
9.990827e-01
9.990148e-01
9.989503e-01
9.989631e-01
9.991457e-01
9.994617e-01
9.984259e-01
9.979794e-01
9.978585e-01
9.980252e-01
9.982401e-01
9.984385e-01
9.986064e-01
9.987414e-01
9.988425e-01
9.989105e-01
9.989536e-01
9.989957e-01
9.990840e-01
9.992694e-01
9.995477e-01
9.998355e-01
9.954627e-01
9.946835e-01
9.951845e-01
9.958377e-01
9.964449e-01
9.969932e-01
9.974835e-01
9.979176e-01
9.982959e-01
9.986192e-01
9.988929e-01
9.991320e-01
9.993622e-01
9.996036e-01
9.998293e-01
9.999714e-01
9.879995e-01
9.896955e-01
9.912658e-01
9.924748e-01
9.936007e-01
9.946473e-01
9.956169e-01
9.965072e-01
9.973184e-01
9.980489e-01
9.986901e-01
9.992220e-01
9.996177e-01
9.998619e-01
9.999729e-01
9.999994e-01
1 2 19 18
2 3 20 19
3 4 21 20
4 5 22 21
5 6 23 22
6 7 24 23
7 8 25 24
8 9 26 25
9 10 27 26
10 11 28 27
11 12 29 28
12 13 30 29
13 14 31 30
14 15 32 31
15 16 33 32
16 17 34 33
18 19 36 35
19 20 37 36
20 21 38 37
21 22 39 38
22 23 40 39
23 24 41 40
24 25 42 41
25 26 43 42
26 27 44 43
27 28 45 44
28 29 46 45
29 30 47 46
30 31 48 47
31 32 49 48
32 33 50 49
33 34 51 50
35 36 53 52
36 37 54 53
37 38 55 54
38 39 56 55
39 40 57 56
40 41 58 57
41 42 59 58
42 43 60 59
43 44 61 60
44 45 62 61
45 46 63 62
46 47 64 63
47 48 65 64
48 49 66 65
49 50 67 66
50 51 68 67
52 53 70 69
53 54 71 70
54 55 72 71
55 56 73 72
56 57 74 73
57 58 75 74
58 59 76 75
59 60 77 76
60 61 78 77
61 62 79 78
62 63 80 79
63 64 81 80
64 65 82 81
65 66 83 82
66 67 84 83
67 68 85 84
69 70 87 86
70 71 88 87
71 72 89 88
72 73 90 89
73 74 91 90
74 75 92 91
75 76 93 92
76 77 94 93
77 78 95 94
78 79 96 95
79 80 97 96
80 81 98 97
81 82 99 98
82 83 100 99
83 84 101 100
84 85 102 101
86 87 104 103
87 88 105 104
88 89 106 105
89 90 107 106
90 91 108 107
91 92 109 108
92 93 110 109
93 94 111 110
94 95 112 111
95 96 113 112
96 97 114 113
97 98 115 114
98 99 116 115
99 100 117 116
100 101 118 117
101 102 119 118
103 104 121 120
104 105 122 121
105 106 123 122
106 107 124 123
107 108 125 124
108 109 126 125
109 110 127 126
110 111 128 127
111 112 129 128
112 113 130 129
113 114 131 130
114 115 132 131
115 116 133 132
116 117 134 133
117 118 135 134
118 119 136 135
120 121 138 137
121 122 139 138
122 123 140 139
123 124 141 140
124 125 142 141
125 126 143 142
126 127 144 143
127 128 145 144
128 129 146 145
129 130 147 146
130 131 148 147
131 132 149 148
132 133 150 149
133 134 151 150
134 135 152 151
135 136 153 152
