TITLE = "Solution"
VARIABLES = x, y, u, v, psiu, psiv, t, stress
ZONE T="structure" N=153 E=128 F=FEBLOCK ET=QUADRILATERAL VARLOCATION=([7,8]=cellcentered)
0.000000e+00
1.250000e+01
2.500000e+01
3.750000e+01
5.000000e+01
6.250000e+01
7.500000e+01
8.750000e+01
1.000000e+02
1.125000e+02
1.250000e+02
1.375000e+02
1.500000e+02
1.625000e+02
1.750000e+02
1.875000e+02
2.000000e+02
0.000000e+00
1.250000e+01
2.500000e+01
3.750000e+01
5.000000e+01
6.250000e+01
7.500000e+01
8.750000e+01
1.000000e+02
1.125000e+02
1.250000e+02
1.375000e+02
1.500000e+02
1.625000e+02
1.750000e+02
1.875000e+02
2.000000e+02
0.000000e+00
1.250000e+01
2.500000e+01
3.750000e+01
5.000000e+01
6.250000e+01
7.500000e+01
8.750000e+01
1.000000e+02
1.125000e+02
1.250000e+02
1.375000e+02
1.500000e+02
1.625000e+02
1.750000e+02
1.875000e+02
2.000000e+02
0.000000e+00
1.250000e+01
2.500000e+01
3.750000e+01
5.000000e+01
6.250000e+01
7.500000e+01
8.750000e+01
1.000000e+02
1.125000e+02
1.250000e+02
1.375000e+02
1.500000e+02
1.625000e+02
1.750000e+02
1.875000e+02
2.000000e+02
0.000000e+00
1.250000e+01
2.500000e+01
3.750000e+01
5.000000e+01
6.250000e+01
7.500000e+01
8.750000e+01
1.000000e+02
1.125000e+02
1.250000e+02
1.375000e+02
1.500000e+02
1.625000e+02
1.750000e+02
1.875000e+02
2.000000e+02
0.000000e+00
1.250000e+01
2.500000e+01
3.750000e+01
5.000000e+01
6.250000e+01
7.500000e+01
8.750000e+01
1.000000e+02
1.125000e+02
1.250000e+02
1.375000e+02
1.500000e+02
1.625000e+02
1.750000e+02
1.875000e+02
2.000000e+02
0.000000e+00
1.250000e+01
2.500000e+01
3.750000e+01
5.000000e+01
6.250000e+01
7.500000e+01
8.750000e+01
1.000000e+02
1.125000e+02
1.250000e+02
1.375000e+02
1.500000e+02
1.625000e+02
1.750000e+02
1.875000e+02
2.000000e+02
0.000000e+00
1.250000e+01
2.500000e+01
3.750000e+01
5.000000e+01
6.250000e+01
7.500000e+01
8.750000e+01
1.000000e+02
1.125000e+02
1.250000e+02
1.375000e+02
1.500000e+02
1.625000e+02
1.750000e+02
1.875000e+02
2.000000e+02
0.000000e+00
1.250000e+01
2.500000e+01
3.750000e+01
5.000000e+01
6.250000e+01
7.500000e+01
8.750000e+01
1.000000e+02
1.125000e+02
1.250000e+02
1.375000e+02
1.500000e+02
1.625000e+02
1.750000e+02
1.875000e+02
2.000000e+02
0.000000e+00
0.000000e+00
0.000000e+00
0.000000e+00
0.000000e+00
0.000000e+00
0.000000e+00
0.000000e+00
0.000000e+00
0.000000e+00
0.000000e+00
0.000000e+00
0.000000e+00
0.000000e+00
0.000000e+00
0.000000e+00
0.000000e+00
1.250000e+01
1.250000e+01
1.250000e+01
1.250000e+01
1.250000e+01
1.250000e+01
1.250000e+01
1.250000e+01
1.250000e+01
1.250000e+01
1.250000e+01
1.250000e+01
1.250000e+01
1.250000e+01
1.250000e+01
1.250000e+01
1.250000e+01
2.500000e+01
2.500000e+01
2.500000e+01
2.500000e+01
2.500000e+01
2.500000e+01
2.500000e+01
2.500000e+01
2.500000e+01
2.500000e+01
2.500000e+01
2.500000e+01
2.500000e+01
2.500000e+01
2.500000e+01
2.500000e+01
2.500000e+01
3.750000e+01
3.750000e+01
3.750000e+01
3.750000e+01
3.750000e+01
3.750000e+01
3.750000e+01
3.750000e+01
3.750000e+01
3.750000e+01
3.750000e+01
3.750000e+01
3.750000e+01
3.750000e+01
3.750000e+01
3.750000e+01
3.750000e+01
5.000000e+01
5.000000e+01
5.000000e+01
5.000000e+01
5.000000e+01
5.000000e+01
5.000000e+01
5.000000e+01
5.000000e+01
5.000000e+01
5.000000e+01
5.000000e+01
5.000000e+01
5.000000e+01
5.000000e+01
5.000000e+01
5.000000e+01
6.250000e+01
6.250000e+01
6.250000e+01
6.250000e+01
6.250000e+01
6.250000e+01
6.250000e+01
6.250000e+01
6.250000e+01
6.250000e+01
6.250000e+01
6.250000e+01
6.250000e+01
6.250000e+01
6.250000e+01
6.250000e+01
6.250000e+01
7.500000e+01
7.500000e+01
7.500000e+01
7.500000e+01
7.500000e+01
7.500000e+01
7.500000e+01
7.500000e+01
7.500000e+01
7.500000e+01
7.500000e+01
7.500000e+01
7.500000e+01
7.500000e+01
7.500000e+01
7.500000e+01
7.500000e+01
8.750000e+01
8.750000e+01
8.750000e+01
8.750000e+01
8.750000e+01
8.750000e+01
8.750000e+01
8.750000e+01
8.750000e+01
8.750000e+01
8.750000e+01
8.750000e+01
8.750000e+01
8.750000e+01
8.750000e+01
8.750000e+01
8.750000e+01
1.000000e+02
1.000000e+02
1.000000e+02
1.000000e+02
1.000000e+02
1.000000e+02
1.000000e+02
1.000000e+02
1.000000e+02
1.000000e+02
1.000000e+02
1.000000e+02
1.000000e+02
1.000000e+02
1.000000e+02
1.000000e+02
1.000000e+02
0.000000e+00
-7.198900e-02
-1.325545e-01
-1.882827e-01
-2.401813e-01
-2.881408e-01
-3.320582e-01
-3.718996e-01
-4.077228e-01
-4.396929e-01
-4.681268e-01
-4.935802e-01
-5.170091e-01
-5.400652e-01
-5.655968e-01
-5.969527e-01
-6.204819e-01
0.000000e+00
-4.299052e-02
-8.930444e-02
-1.320724e-01
-1.714749e-01
-2.076617e-01
-2.407079e-01
-2.706578e-01
-2.975652e-01
-3.215131e-01
-3.426231e-01
-3.610472e-01
-3.769031e-01
-3.900274e-01
-3.992848e-01
-4.013138e-01
-4.085885e-01
0.000000e+00
-2.688503e-02
-5.528234e-02
-8.361290e-02
-1.100586e-01
-1.343395e-01
-1.564359e-01
-1.763727e-01
-1.941550e-01
-2.097529e-01
-2.230826e-01
-2.339578e-01
-2.419909e-01
-2.464752e-01
-2.465997e-01
-2.448083e-01
-2.522279e-01
0.000000e+00
-1.297637e-02
-2.671360e-02
-4.053760e-02
-5.375586e-02
-6.593072e-02
-7.696604e-02
-8.682969e-02
-9.546519e-02
-1.027602e-01
-1.085282e-01
-1.124970e-01
-1.143418e-01
-1.139108e-01
-1.121401e-01
-1.126243e-01
-1.181490e-01
0.000000e+00
-1.195402e-05
-2.717521e-05
-4.234645e-05
-5.039826e-05
-3.556604e-05
3.344098e-05
2.127703e-04
5.945393e-04
1.315962e-03
2.556055e-03
4.494653e-03
7.180349e-03
1.021532e-02
1.231179e-02
1.173680e-02
8.078998e-03
0.000000e+00
1.295798e-02
2.667090e-02
4.046930e-02
5.367091e-02
6.586162e-02
7.699284e-02
8.711903e-02
9.632796e-02
1.047264e-01
1.124243e-01
1.194783e-01
1.257662e-01
1.308083e-01
1.337743e-01
1.340096e-01
1.321530e-01
0.000000e+00
2.688201e-02
5.527314e-02
8.359459e-02
1.100300e-01
1.343039e-01
1.564064e-01
1.763823e-01
1.942731e-01
2.101106e-01
2.239085e-01
2.356332e-01
2.451497e-01
2.521856e-01
2.564087e-01
2.577800e-01
2.573470e-01
0.000000e+00
4.300816e-02
8.934279e-02
1.321336e-01
1.715569e-01
2.077495e-01
2.407572e-01
2.705677e-01
2.971357e-01
3.203843e-01
3.402034e-01
3.564559e-01
3.690117e-01
3.778293e-01
3.830892e-01
3.853322e-01
3.857442e-01
0.000000e+00
7.201849e-02
1.326323e-01
1.884284e-01
2.404141e-01
2.884682e-01
3.324488e-01
3.722280e-01
4.076729e-01
4.385990e-01
4.647383e-01
4.857423e-01
5.012660e-01
5.111874e-01
5.159854e-01
5.171698e-01
5.171469e-01
0.000000e+00
-4.357693e-02
-8.554662e-02
-1.399296e-01
-2.066734e-01
-2.856533e-01
-3.760042e-01
-4.767150e-01
-5.867149e-01
-7.049471e-01
-8.304355e-01
-9.624033e-01
-1.100532e+00
-1.245560e+00
-1.401248e+00
-1.579385e+00
-1.835335e+00
0.000000e+00
-2.682676e-02
-7.060804e-02
-1.256654e-01
-1.935000e-01
-2.735576e-01
-3.650031e-01
-4.668005e-01
-5.778665e-01
-6.971254e-01
-8.235739e-01
-9.563997e-01
-1.095235e+00
-1.240799e+00
-1.396426e+00
-1.573482e+00
-1.790393e+00
0.000000e+00
-2.024319e-02
-6.025187e-02
-1.155124e-01
-1.839884e-01
-2.648700e-01
-3.571561e-01
-4.598005e-01
-5.717274e-01
-6.918763e-01
-8.192635e-01
-9.531044e-01
-1.093066e+00
-1.239749e+00
-1.395511e+00
-1.563277e+00
-1.725639e+00
0.000000e+00
-1.744416e-02
-5.510285e-02
-1.095529e-01
-1.782764e-01
-2.596559e-01
-3.525173e-01
-4.557748e-01
-5.683728e-01
-6.892796e-01
-8.175327e-01
-9.523322e-01
-1.093188e+00
-1.240032e+00
-1.392678e+00
-1.546831e+00
-1.688842e+00
0.000000e+00
-1.663782e-02
-5.354451e-02
-1.076518e-01
-1.763940e-01
-2.579760e-01
-3.511044e-01
-4.546943e-01
-5.677103e-01
-6.891373e-01
-8.179916e-01
-9.533466e-01
-1.094327e+00
-1.239894e+00
-1.387868e+00
-1.533189e+00
-1.667066e+00
0.000000e+00
-1.743380e-02
-5.509548e-02
-1.095660e-01
-1.783408e-01
-2.598256e-01
-3.528803e-01
-4.564623e-01
-5.695581e-01
-6.911478e-01
-8.201838e-01
-9.555452e-01
-1.095922e+00
-1.239529e+00
-1.383607e+00
-1.523945e+00
-1.654963e+00
0.000000e+00
-2.022630e-02
-6.023966e-02
-1.155343e-01
-1.840969e-01
-2.651571e-01
-3.577715e-01
-4.609678e-01
-5.737427e-01
-6.950587e-01
-8.237976e-01
-9.586663e-01
-1.098040e+00
-1.239765e+00
-1.381049e+00
-1.518694e+00
-1.649625e+00
0.000000e+00
-2.681093e-02
-7.059741e-02
-1.256944e-01
-1.936303e-01
-2.738952e-01
-3.657195e-01
-4.681498e-01
-5.801816e-01
-7.007585e-01
-8.287166e-01
-9.626702e-01
-1.100856e+00
-1.241003e+00
-1.380409e+00
-1.516522e+00
-1.648372e+00
0.000000e+00
-4.357039e-02
-8.554754e-02
-1.399746e-01
-2.068245e-01
-2.860140e-01
-3.767372e-01
-4.780525e-01
-5.889447e-01
-7.083390e-01
-8.350432e-01
-9.676413e-01
-1.104358e+00
-1.242972e+00
-1.380953e+00
-1.516125e+00
-1.648392e+00


0.000000e+00
9.152457e-08
1.833945e-07
2.687102e-07
3.487111e-07
4.229453e-07
4.911033e-07
5.531683e-07
6.092674e-07
6.596383e-07
7.046167e-07
7.445760e-07
7.797352e-07
8.098196e-07
8.344441e-07
8.554892e-07
8.742176e-07
0.000000e+00
5.148605e-08
1.252792e-07
1.916248e-07
2.524478e-07
3.085060e-07
3.597508e-07
4.061847e-07
4.478469e-07
4.847692e-07
5.169419e-07
5.442714e-07
5.666203e-07
5.844490e-07
6.007340e-07
6.200668e-07
6.399683e-07
0.000000e+00
3.244934e-08
7.918251e-08
1.230239e-07
1.638877e-07
2.014656e-07
2.356119e-07
2.662872e-07
2.934466e-07
3.169998e-07
3.368132e-07
3.527916e-07
3.651862e-07
3.752700e-07
3.859070e-07
4.002823e-07
4.168941e-07
0.000000e+00
1.585428e-08
3.796170e-08
5.943346e-08
7.986752e-08
9.863670e-08
1.155392e-07
1.304988e-07
1.434286e-07
1.542169e-07
1.627706e-07
1.691409e-07
1.737587e-07
1.777130e-07
1.828084e-07
1.911872e-07
2.027193e-07
0.000000e+00
1.652560e-11
2.042355e-11
-8.895390e-12
-9.956911e-11
-2.964877e-10
-6.654678e-10
-1.294095e-09
-2.283990e-09
-3.725532e-09
-5.642439e-09
-7.899162e-09
-1.009247e-08
-1.148338e-08
-1.093407e-08
-6.990226e-09
5.847135e-10
0.000000e+00
-1.582339e-08
-3.792030e-08
-5.943532e-08
-8.001261e-08
-9.910014e-08
-1.166084e-07
-1.326129e-07
-1.472071e-07
-1.604491e-07
-1.723132e-07
-1.826380e-07
-1.910935e-07
-1.971871e-07
-2.003095e-07
-1.997137e-07
-1.955648e-07
0.000000e+00
-3.242988e-08
-7.915380e-08
-1.230069e-07
-1.639220e-07
-2.016264e-07
-2.360297e-07
-2.671721e-07
-2.951092e-07
-3.198595e-07
-3.413636e-07
-3.594524e-07
-3.738399e-07
-3.841900e-07
-3.903317e-07
-3.923770e-07
-3.911520e-07
0.000000e+00
-5.150562e-08
-1.253181e-07
-1.916602e-07
-2.524415e-07
-3.083932e-07
-3.594246e-07
-4.054804e-07
-4.465258e-07
-4.825107e-07
-5.133546e-07
-5.389370e-07
-5.591002e-07
-5.737112e-07
-5.828996e-07
-5.874170e-07
-5.885083e-07
0.000000e+00
-9.163265e-08
-1.835860e-07
-2.689471e-07
-3.489135e-07
-4.229471e-07
-4.905896e-07
-5.515948e-07
-6.057657e-07
-6.529222e-07
-6.929229e-07
-7.257059e-07
-7.513285e-07
-7.700026e-07
-7.821655e-07
-7.884527e-07
-7.904721e-07
0.000000e+00
8.285604e-08
1.616289e-07
2.500175e-07
3.554374e-07
4.789766e-07
6.198238e-07
7.766760e-07
9.480322e-07
1.132435e-06
1.328637e-06
1.535868e-06
1.754547e-06
1.987816e-06
2.241434e-06
2.510835e-06
2.778123e-06
0.000000e+00
5.011677e-08
1.266777e-07
2.157617e-07
3.232367e-07
4.492613e-07
5.927763e-07
7.523090e-07
9.263195e-07
1.113331e-06
1.312072e-06
1.521715e-06
1.742279e-06
1.975146e-06
2.222593e-06
2.485161e-06
2.748930e-06
0.000000e+00
3.191922e-08
9.865893e-08
1.876476e-07
2.966735e-07
4.248523e-07
5.706887e-07
7.325947e-07
9.090044e-07
1.098434e-06
1.299568e-06
1.511375e-06
1.733147e-06
1.964230e-06
2.204245e-06
2.457225e-06
2.712494e-06
0.000000e+00
2.341778e-08
8.391996e-08
1.712551e-07
2.809964e-07
4.105098e-07
5.578571e-07
7.213495e-07
8.993997e-07
1.090497e-06
1.293218e-06
1.506210e-06
1.728045e-06
1.956936e-06
2.191453e-06
2.434679e-06
2.677236e-06
0.000000e+00
2.097484e-08
7.945130e-08
1.659820e-07
2.759165e-07
4.059643e-07
5.539634e-07
7.181799e-07
8.970062e-07
1.088875e-06
1.292217e-06
1.505377e-06
1.726450e-06
1.953071e-06
2.182915e-06
2.417415e-06
2.647468e-06
0.000000e+00
2.343671e-08
8.399090e-08
1.714305e-07
2.813450e-07
4.111252e-07
5.588558e-07
7.228547e-07
9.014973e-07
1.093145e-06
1.296087e-06
1.508448e-06
1.728046e-06
1.952190e-06
2.177975e-06
2.405190e-06
2.626123e-06
0.000000e+00
3.194975e-08
9.878253e-08
1.879550e-07
2.972849e-07
4.259328e-07
5.724444e-07
7.352434e-07
9.126988e-07
1.103103e-06
1.304625e-06
1.515238e-06
1.732609e-06
1.953930e-06
2.176100e-06
2.397864e-06
2.613119e-06
0.000000e+00
5.015553e-08
1.268345e-07
2.161403e-07
3.239829e-07
4.505732e-07
5.948993e-07
7.554965e-07
9.307363e-07
1.118855e-06
1.317928e-06
1.525819e-06
1.740113e-06
1.958050e-06
2.176773e-06
2.394571e-06
2.606911e-06
0.000000e+00
8.292026e-08
1.618123e-07
2.504259e-07
3.562144e-07
4.803114e-07
6.219404e-07
7.797861e-07
9.522257e-07
1.137467e-06
1.333536e-06
1.538244e-06
1.749151e-06
1.963609e-06
2.179102e-06
2.394035e-06
2.605101e-06


2.103452e-01
2.103451e-01
2.103453e-01
2.103458e-01
2.103462e-01
2.103465e-01
2.103469e-01
2.103471e-01
2.103474e-01
2.103476e-01
2.103478e-01
2.103480e-01
2.103481e-01
2.103480e-01
2.103478e-01
2.103476e-01
2.103459e-01
2.103458e-01
2.103459e-01
2.103462e-01
2.103466e-01
2.103468e-01
2.103471e-01
2.103473e-01
2.103476e-01
2.103477e-01
2.103479e-01
2.103480e-01
2.103481e-01
2.103480e-01
2.103477e-01
2.103476e-01
2.103470e-01
2.103469e-01
2.103469e-01
2.103471e-01
2.103472e-01
2.103474e-01
2.103476e-01
2.103477e-01
2.103478e-01
2.103479e-01
2.103480e-01
2.103481e-01
2.103481e-01
2.103480e-01
2.103478e-01
2.103477e-01
2.103478e-01
2.103477e-01
2.103476e-01
2.103477e-01
2.103477e-01
2.103478e-01
2.103479e-01
2.103479e-01
2.103480e-01
2.103480e-01
2.103481e-01
2.103481e-01
2.103481e-01
2.103480e-01
2.103479e-01
2.103479e-01
2.103478e-01
2.103477e-01
2.103476e-01
2.103477e-01
2.103477e-01
2.103478e-01
2.103479e-01
2.103479e-01
2.103480e-01
2.103480e-01
2.103480e-01
2.103481e-01
2.103481e-01
2.103481e-01
2.103481e-01
2.103481e-01
2.103470e-01
2.103469e-01
2.103469e-01
2.103471e-01
2.103472e-01
2.103474e-01
2.103475e-01
2.103477e-01
2.103478e-01
2.103479e-01
2.103480e-01
2.103480e-01
2.103481e-01
2.103482e-01
2.103482e-01
2.103482e-01
2.103459e-01
2.103458e-01
2.103459e-01
2.103462e-01
2.103466e-01
2.103468e-01
2.103471e-01
2.103473e-01
2.103475e-01
2.103477e-01
2.103479e-01
2.103480e-01
2.103481e-01
2.103482e-01
2.103483e-01
2.103484e-01
2.103452e-01
2.103451e-01
2.103453e-01
2.103458e-01
2.103462e-01
2.103465e-01
2.103469e-01
2.103472e-01
2.103474e-01
2.103477e-01
2.103479e-01
2.103480e-01
2.103482e-01
2.103483e-01
2.103484e-01
2.103484e-01


9.883404e-01
9.899939e-01
9.915234e-01
9.927008e-01
9.937937e-01
9.948014e-01
9.957196e-01
9.965373e-01
9.972460e-01
9.978388e-01
9.983102e-01
9.986555e-01
9.988701e-01
9.989467e-01
9.990020e-01
9.955944e-01
9.955890e-01
9.948313e-01
9.953188e-01
9.959550e-01
9.965482e-01
9.970873e-01
9.975753e-01
9.980174e-01
9.984176e-01
9.987802e-01
9.991091e-01
9.994070e-01
9.996668e-01
9.998370e-01
9.994067e-01
9.935737e-01
9.984674e-01
9.980322e-01
9.979147e-01
9.980800e-01
9.982973e-01
9.985079e-01
9.987034e-01
9.988881e-01
9.990671e-01
9.992416e-01
9.994045e-01
9.995307e-01
9.995570e-01
9.993298e-01
9.985056e-01
9.970233e-01
9.996881e-01
9.993707e-01
9.991746e-01
9.991249e-01
9.991447e-01
9.991781e-01
9.992113e-01
9.992439e-01
9.992758e-01
9.993025e-01
9.993099e-01
9.992702e-01
9.991442e-01
9.989180e-01
9.987262e-01
9.986776e-01
9.996892e-01
9.993723e-01
9.991761e-01
9.991246e-01
9.991398e-01
9.991638e-01
9.991805e-01
9.991861e-01
9.991785e-01
9.991539e-01
9.991081e-01
9.990422e-01
9.989794e-01
9.989919e-01
9.991694e-01
9.994767e-01
9.984696e-01
9.980355e-01
9.979179e-01
9.980800e-01
9.982889e-01
9.984819e-01
9.986451e-01
9.987763e-01
9.988746e-01
9.989408e-01
9.989826e-01
9.990235e-01
9.991095e-01
9.992896e-01
9.995603e-01
9.998401e-01
9.955885e-01
9.948310e-01
9.953181e-01
9.959532e-01
9.965435e-01
9.970767e-01
9.975533e-01
9.979754e-01
9.983432e-01
9.986575e-01
9.989237e-01
9.991561e-01
9.993799e-01
9.996146e-01
9.998340e-01
9.999722e-01
9.883325e-01
9.899814e-01
9.915081e-01
9.926837e-01
9.937783e-01
9.947958e-01
9.957385e-01
9.966041e-01
9.973928e-01
9.981031e-01
9.987265e-01
9.992436e-01
9.996283e-01
9.998657e-01
9.999737e-01
9.999994e-01
1 2 19 18
2 3 20 19
3 4 21 20
4 5 22 21
5 6 23 22
6 7 24 23
7 8 25 24
8 9 26 25
9 10 27 26
10 11 28 27
11 12 29 28
12 13 30 29
13 14 31 30
14 15 32 31
15 16 33 32
16 17 34 33
18 19 36 35
19 20 37 36
20 21 38 37
21 22 39 38
22 23 40 39
23 24 41 40
24 25 42 41
25 26 43 42
26 27 44 43
27 28 45 44
28 29 46 45
29 30 47 46
30 31 48 47
31 32 49 48
32 33 50 49
33 34 51 50
35 36 53 52
36 37 54 53
37 38 55 54
38 39 56 55
39 40 57 56
40 41 58 57
41 42 59 58
42 43 60 59
43 44 61 60
44 45 62 61
45 46 63 62
46 47 64 63
47 48 65 64
48 49 66 65
49 50 67 66
50 51 68 67
52 53 70 69
53 54 71 70
54 55 72 71
55 56 73 72
56 57 74 73
57 58 75 74
58 59 76 75
59 60 77 76
60 61 78 77
61 62 79 78
62 63 80 79
63 64 81 80
64 65 82 81
65 66 83 82
66 67 84 83
67 68 85 84
69 70 87 86
70 71 88 87
71 72 89 88
72 73 90 89
73 74 91 90
74 75 92 91
75 76 93 92
76 77 94 93
77 78 95 94
78 79 96 95
79 80 97 96
80 81 98 97
81 82 99 98
82 83 100 99
83 84 101 100
84 85 102 101
86 87 104 103
87 88 105 104
88 89 106 105
89 90 107 106
90 91 108 107
91 92 109 108
92 93 110 109
93 94 111 110
94 95 112 111
95 96 113 112
96 97 114 113
97 98 115 114
98 99 116 115
99 100 117 116
100 101 118 117
101 102 119 118
103 104 121 120
104 105 122 121
105 106 123 122
106 107 124 123
107 108 125 124
108 109 126 125
109 110 127 126
110 111 128 127
111 112 129 128
112 113 130 129
113 114 131 130
114 115 132 131
115 116 133 132
116 117 134 133
117 118 135 134
118 119 136 135
120 121 138 137
121 122 139 138
122 123 140 139
123 124 141 140
124 125 142 141
125 126 143 142
126 127 144 143
127 128 145 144
128 129 146 145
129 130 147 146
130 131 148 147
131 132 149 148
132 133 150 149
133 134 151 150
134 135 152 151
135 136 153 152
