TITLE = "Solution"
VARIABLES = x, y, u, v, psiu, psiv, t, stress
ZONE T="structure" N=153 E=128 F=FEBLOCK ET=QUADRILATERAL VARLOCATION=([7,8]=cellcentered)
0.000000e+00
1.250000e+01
2.500000e+01
3.750000e+01
5.000000e+01
6.250000e+01
7.500000e+01
8.750000e+01
1.000000e+02
1.125000e+02
1.250000e+02
1.375000e+02
1.500000e+02
1.625000e+02
1.750000e+02
1.875000e+02
2.000000e+02
0.000000e+00
1.250000e+01
2.500000e+01
3.750000e+01
5.000000e+01
6.250000e+01
7.500000e+01
8.750000e+01
1.000000e+02
1.125000e+02
1.250000e+02
1.375000e+02
1.500000e+02
1.625000e+02
1.750000e+02
1.875000e+02
2.000000e+02
0.000000e+00
1.250000e+01
2.500000e+01
3.750000e+01
5.000000e+01
6.250000e+01
7.500000e+01
8.750000e+01
1.000000e+02
1.125000e+02
1.250000e+02
1.375000e+02
1.500000e+02
1.625000e+02
1.750000e+02
1.875000e+02
2.000000e+02
0.000000e+00
1.250000e+01
2.500000e+01
3.750000e+01
5.000000e+01
6.250000e+01
7.500000e+01
8.750000e+01
1.000000e+02
1.125000e+02
1.250000e+02
1.375000e+02
1.500000e+02
1.625000e+02
1.750000e+02
1.875000e+02
2.000000e+02
0.000000e+00
1.250000e+01
2.500000e+01
3.750000e+01
5.000000e+01
6.250000e+01
7.500000e+01
8.750000e+01
1.000000e+02
1.125000e+02
1.250000e+02
1.375000e+02
1.500000e+02
1.625000e+02
1.750000e+02
1.875000e+02
2.000000e+02
0.000000e+00
1.250000e+01
2.500000e+01
3.750000e+01
5.000000e+01
6.250000e+01
7.500000e+01
8.750000e+01
1.000000e+02
1.125000e+02
1.250000e+02
1.375000e+02
1.500000e+02
1.625000e+02
1.750000e+02
1.875000e+02
2.000000e+02
0.000000e+00
1.250000e+01
2.500000e+01
3.750000e+01
5.000000e+01
6.250000e+01
7.500000e+01
8.750000e+01
1.000000e+02
1.125000e+02
1.250000e+02
1.375000e+02
1.500000e+02
1.625000e+02
1.750000e+02
1.875000e+02
2.000000e+02
0.000000e+00
1.250000e+01
2.500000e+01
3.750000e+01
5.000000e+01
6.250000e+01
7.500000e+01
8.750000e+01
1.000000e+02
1.125000e+02
1.250000e+02
1.375000e+02
1.500000e+02
1.625000e+02
1.750000e+02
1.875000e+02
2.000000e+02
0.000000e+00
1.250000e+01
2.500000e+01
3.750000e+01
5.000000e+01
6.250000e+01
7.500000e+01
8.750000e+01
1.000000e+02
1.125000e+02
1.250000e+02
1.375000e+02
1.500000e+02
1.625000e+02
1.750000e+02
1.875000e+02
2.000000e+02
0.000000e+00
0.000000e+00
0.000000e+00
0.000000e+00
0.000000e+00
0.000000e+00
0.000000e+00
0.000000e+00
0.000000e+00
0.000000e+00
0.000000e+00
0.000000e+00
0.000000e+00
0.000000e+00
0.000000e+00
0.000000e+00
0.000000e+00
1.250000e+01
1.250000e+01
1.250000e+01
1.250000e+01
1.250000e+01
1.250000e+01
1.250000e+01
1.250000e+01
1.250000e+01
1.250000e+01
1.250000e+01
1.250000e+01
1.250000e+01
1.250000e+01
1.250000e+01
1.250000e+01
1.250000e+01
2.500000e+01
2.500000e+01
2.500000e+01
2.500000e+01
2.500000e+01
2.500000e+01
2.500000e+01
2.500000e+01
2.500000e+01
2.500000e+01
2.500000e+01
2.500000e+01
2.500000e+01
2.500000e+01
2.500000e+01
2.500000e+01
2.500000e+01
3.750000e+01
3.750000e+01
3.750000e+01
3.750000e+01
3.750000e+01
3.750000e+01
3.750000e+01
3.750000e+01
3.750000e+01
3.750000e+01
3.750000e+01
3.750000e+01
3.750000e+01
3.750000e+01
3.750000e+01
3.750000e+01
3.750000e+01
5.000000e+01
5.000000e+01
5.000000e+01
5.000000e+01
5.000000e+01
5.000000e+01
5.000000e+01
5.000000e+01
5.000000e+01
5.000000e+01
5.000000e+01
5.000000e+01
5.000000e+01
5.000000e+01
5.000000e+01
5.000000e+01
5.000000e+01
6.250000e+01
6.250000e+01
6.250000e+01
6.250000e+01
6.250000e+01
6.250000e+01
6.250000e+01
6.250000e+01
6.250000e+01
6.250000e+01
6.250000e+01
6.250000e+01
6.250000e+01
6.250000e+01
6.250000e+01
6.250000e+01
6.250000e+01
7.500000e+01
7.500000e+01
7.500000e+01
7.500000e+01
7.500000e+01
7.500000e+01
7.500000e+01
7.500000e+01
7.500000e+01
7.500000e+01
7.500000e+01
7.500000e+01
7.500000e+01
7.500000e+01
7.500000e+01
7.500000e+01
7.500000e+01
8.750000e+01
8.750000e+01
8.750000e+01
8.750000e+01
8.750000e+01
8.750000e+01
8.750000e+01
8.750000e+01
8.750000e+01
8.750000e+01
8.750000e+01
8.750000e+01
8.750000e+01
8.750000e+01
8.750000e+01
8.750000e+01
8.750000e+01
1.000000e+02
1.000000e+02
1.000000e+02
1.000000e+02
1.000000e+02
1.000000e+02
1.000000e+02
1.000000e+02
1.000000e+02
1.000000e+02
1.000000e+02
1.000000e+02
1.000000e+02
1.000000e+02
1.000000e+02
1.000000e+02
1.000000e+02
0.000000e+00
-7.255329e-02
-1.335936e-01
-1.897586e-01
-2.420640e-01
-2.903995e-01
-3.346612e-01
-3.748149e-01
-4.109190e-01
-4.431398e-01
-4.717966e-01
-4.974496e-01
-5.210623e-01
-5.442991e-01
-5.700308e-01
-6.016327e-01
-6.253464e-01
0.000000e+00
-4.332750e-02
-9.000445e-02
-1.331077e-01
-1.728190e-01
-2.092896e-01
-2.425948e-01
-2.727795e-01
-2.998979e-01
-3.240335e-01
-3.453090e-01
-3.638776e-01
-3.798578e-01
-3.930851e-01
-4.024150e-01
-4.044600e-01
-4.117917e-01
0.000000e+00
-2.709576e-02
-5.571566e-02
-8.426829e-02
-1.109213e-01
-1.353926e-01
-1.576622e-01
-1.777553e-01
-1.956770e-01
-2.113972e-01
-2.248314e-01
-2.357919e-01
-2.438880e-01
-2.484074e-01
-2.485329e-01
-2.467275e-01
-2.542052e-01
0.000000e+00
-1.307808e-02
-2.692298e-02
-4.085535e-02
-5.417723e-02
-6.644753e-02
-7.756936e-02
-8.751034e-02
-9.621354e-02
-1.035657e-01
-1.093790e-01
-1.133789e-01
-1.152381e-01
-1.148038e-01
-1.130192e-01
-1.135072e-01
-1.190752e-01
0.000000e+00
-1.204779e-05
-2.738837e-05
-4.267862e-05
-5.079362e-05
-3.584518e-05
3.370283e-05
2.144382e-04
5.992006e-04
1.326280e-03
2.576096e-03
4.529895e-03
7.236651e-03
1.029542e-02
1.240833e-02
1.182883e-02
8.142348e-03
0.000000e+00
1.305954e-02
2.687995e-02
4.078651e-02
5.409160e-02
6.637788e-02
7.759638e-02
8.780195e-02
9.708308e-02
1.055474e-01
1.133056e-01
1.204150e-01
1.267521e-01
1.318337e-01
1.348230e-01
1.350601e-01
1.331890e-01
0.000000e+00
2.709272e-02
5.570639e-02
8.424984e-02
1.108925e-01
1.353567e-01
1.576324e-01
1.777650e-01
1.957961e-01
2.117577e-01
2.256638e-01
2.374804e-01
2.470715e-01
2.541626e-01
2.584188e-01
2.598008e-01
2.593645e-01
0.000000e+00
4.334528e-02
9.004310e-02
1.331693e-01
1.729017e-01
2.093780e-01
2.426445e-01
2.726887e-01
2.994650e-01
3.228959e-01
3.428704e-01
3.592503e-01
3.719045e-01
3.807913e-01
3.860924e-01
3.883530e-01
3.887682e-01
0.000000e+00
7.258302e-02
1.336720e-01
1.899055e-01
2.422986e-01
2.907295e-01
3.350549e-01
3.751460e-01
4.108687e-01
4.420373e-01
4.683816e-01
4.895503e-01
5.051957e-01
5.151948e-01
5.200305e-01
5.212241e-01
5.212011e-01
0.000000e+00
-4.391852e-02
-8.621721e-02
-1.410265e-01
-2.082935e-01
-2.878925e-01
-3.789517e-01
-4.804520e-01
-5.913142e-01
-7.104733e-01
-8.369455e-01
-9.699478e-01
-1.109160e+00
-1.255324e+00
-1.412233e+00
-1.591766e+00
-1.849723e+00
0.000000e+00
-2.703705e-02
-7.116153e-02
-1.266504e-01
-1.950168e-01
-2.757021e-01
-3.678644e-01
-4.704598e-01
-5.823965e-01
-7.025903e-01
-8.300301e-01
-9.638972e-01
-1.103821e+00
-1.250526e+00
-1.407374e+00
-1.585817e+00
-1.804429e+00
0.000000e+00
-2.040187e-02
-6.072419e-02
-1.164179e-01
-1.854306e-01
-2.669464e-01
-3.599558e-01
-4.634049e-01
-5.762092e-01
-6.973000e-01
-8.256859e-01
-9.605760e-01
-1.101635e+00
-1.249468e+00
-1.406451e+00
-1.575532e+00
-1.739167e+00
0.000000e+00
-1.758091e-02
-5.553480e-02
-1.104117e-01
-1.796739e-01
-2.616914e-01
-3.552807e-01
-4.593477e-01
-5.728284e-01
-6.946830e-01
-8.239415e-01
-9.597978e-01
-1.101757e+00
-1.249753e+00
-1.403596e+00
-1.558958e+00
-1.702082e+00
0.000000e+00
-1.676825e-02
-5.396425e-02
-1.084956e-01
-1.777767e-01
-2.599983e-01
-3.538567e-01
-4.582587e-01
-5.721606e-01
-6.945396e-01
-8.244040e-01
-9.608201e-01
-1.102906e+00
-1.249614e+00
-1.398748e+00
-1.545209e+00
-1.680134e+00
0.000000e+00
-1.757047e-02
-5.552737e-02
-1.104249e-01
-1.797388e-01
-2.618624e-01
-3.556465e-01
-4.600405e-01
-5.740229e-01
-6.965658e-01
-8.266134e-01
-9.630360e-01
-1.104514e+00
-1.249246e+00
-1.394454e+00
-1.535891e+00
-1.667937e+00
0.000000e+00
-2.038485e-02
-6.071188e-02
-1.164399e-01
-1.855400e-01
-2.672357e-01
-3.605761e-01
-4.645814e-01
-5.782403e-01
-7.005074e-01
-8.302555e-01
-9.661815e-01
-1.106648e+00
-1.249484e+00
-1.391876e+00
-1.530599e+00
-1.662558e+00
0.000000e+00
-2.702109e-02
-7.115081e-02
-1.266797e-01
-1.951482e-01
-2.760423e-01
-3.685864e-01
-4.718196e-01
-5.847297e-01
-7.062519e-01
-8.352131e-01
-9.702169e-01
-1.109486e+00
-1.250732e+00
-1.391230e+00
-1.528411e+00
-1.661295e+00
0.000000e+00
-4.391192e-02
-8.621813e-02
-1.410718e-01
-2.084458e-01
-2.882561e-01
-3.796905e-01
-4.818000e-01
-5.935615e-01
-7.138918e-01
-8.415894e-01
-9.752269e-01
-1.113015e+00
-1.252716e+00
-1.391779e+00
-1.528011e+00
-1.661314e+00


0.000000e+00
8.476450e-08
1.698555e-07
2.488712e-07
3.229554e-07
3.916898e-07
4.547894e-07
5.122406e-07
5.641631e-07
6.107788e-07
6.523999e-07
6.893736e-07
7.219039e-07
7.497384e-07
7.725219e-07
7.919958e-07
8.093282e-07
0.000000e+00
4.769545e-08
1.160502e-07
1.774983e-07
2.338225e-07
2.857261e-07
3.331660e-07
3.761464e-07
4.147054e-07
4.488738e-07
4.786441e-07
5.039308e-07
5.246076e-07
5.411012e-07
5.561669e-07
5.740556e-07
5.924734e-07
0.000000e+00
3.006835e-08
7.335975e-08
1.139659e-07
1.518074e-07
1.865999e-07
2.182099e-07
2.466029e-07
2.717384e-07
2.935341e-07
3.118672e-07
3.266506e-07
3.381171e-07
3.474453e-07
3.572859e-07
3.705877e-07
3.859608e-07
0.000000e+00
1.469342e-08
3.517239e-08
5.506020e-08
7.398336e-08
9.136142e-08
1.070085e-07
1.208550e-07
1.328212e-07
1.428043e-07
1.507188e-07
1.566124e-07
1.608843e-07
1.645426e-07
1.692571e-07
1.770103e-07
1.876819e-07
0.000000e+00
1.525589e-11
1.882049e-11
-8.357048e-12
-9.231354e-11
-2.745853e-10
-6.160691e-10
-1.197801e-09
-2.113797e-09
-3.447659e-09
-5.221290e-09
-7.309196e-09
-9.338190e-09
-1.062450e-08
-1.011564e-08
-6.466232e-09
5.428998e-10
0.000000e+00
-1.466490e-08
-3.513422e-08
-5.506214e-08
-7.411791e-08
-9.179065e-08
-1.079983e-07
-1.228117e-07
-1.363180e-07
-1.485715e-07
-1.595489e-07
-1.691012e-07
-1.769237e-07
-1.825605e-07
-1.854488e-07
-1.848974e-07
-1.810587e-07
0.000000e+00
-3.005038e-08
-7.333327e-08
-1.139503e-07
-1.518394e-07
-1.867489e-07
-2.185969e-07
-2.474220e-07
-2.732771e-07
-2.961803e-07
-3.160777e-07
-3.328136e-07
-3.461242e-07
-3.556992e-07
-3.613810e-07
-3.632731e-07
-3.621396e-07
0.000000e+00
-4.771356e-08
-1.160863e-07
-1.775311e-07
-2.338168e-07
-2.856218e-07
-3.328644e-07
-3.754950e-07
-4.134833e-07
-4.467844e-07
-4.753252e-07
-4.989955e-07
-5.176506e-07
-5.311682e-07
-5.396687e-07
-5.438479e-07
-5.448575e-07
0.000000e+00
-8.486452e-08
-1.700327e-07
-2.490904e-07
-3.231427e-07
-3.916915e-07
-4.543141e-07
-5.107848e-07
-5.609233e-07
-6.045651e-07
-6.415810e-07
-6.719156e-07
-6.956231e-07
-7.129006e-07
-7.241534e-07
-7.299699e-07
-7.318379e-07
0.000000e+00
7.673660e-08
1.496771e-07
2.315160e-07
3.291248e-07
4.435107e-07
5.739211e-07
7.191479e-07
8.777997e-07
1.048526e-06
1.230171e-06
1.422022e-06
1.624465e-06
1.840408e-06
2.075182e-06
2.324567e-06
2.571999e-06
0.000000e+00
4.640901e-08
1.173017e-07
1.997892e-07
2.993061e-07
4.159979e-07
5.488823e-07
6.965935e-07
8.577047e-07
1.030847e-06
1.214843e-06
1.408927e-06
1.613115e-06
1.828686e-06
2.057748e-06
2.300807e-06
2.544981e-06
0.000000e+00
2.955049e-08
9.134871e-08
1.737523e-07
2.747096e-07
3.933998e-07
5.284362e-07
6.783468e-07
8.416803e-07
1.017062e-06
1.203274e-06
1.399361e-06
1.604666e-06
1.818587e-06
2.040771e-06
2.274955e-06
2.511261e-06
0.000000e+00
2.167585e-08
7.769830e-08
1.585727e-07
2.601949e-07
3.801228e-07
5.165594e-07
6.679395e-07
8.327921e-07
1.009718e-06
1.197399e-06
1.394583e-06
1.599947e-06
1.811839e-06
2.028934e-06
2.254091e-06
2.478632e-06
0.000000e+00
1.941338e-08
7.356018e-08
1.536902e-07
2.554919e-07
3.759151e-07
5.129555e-07
6.650060e-07
8.305771e-07
1.008217e-06
1.196473e-06
1.393812e-06
1.598471e-06
1.808263e-06
2.021035e-06
2.238117e-06
2.451087e-06
0.000000e+00
2.169337e-08
7.776394e-08
1.587350e-07
2.605174e-07
3.806921e-07
5.174833e-07
6.693320e-07
8.347328e-07
1.012168e-06
1.200053e-06
1.396653e-06
1.599948e-06
1.807448e-06
2.016465e-06
2.226806e-06
2.431336e-06
0.000000e+00
2.957876e-08
9.146308e-08
1.740367e-07
2.752753e-07
3.943995e-07
5.300606e-07
6.807973e-07
8.450984e-07
1.021382e-06
1.207953e-06
1.402936e-06
1.604170e-06
1.809058e-06
2.014731e-06
2.220029e-06
2.419305e-06
0.000000e+00
4.644490e-08
1.174469e-07
2.001396e-07
2.999965e-07
4.172118e-07
5.508465e-07
6.995426e-07
8.617912e-07
1.035958e-06
1.220262e-06
1.412725e-06
1.611112e-06
1.812869e-06
2.015354e-06
2.216982e-06
2.413562e-06
0.000000e+00
7.679607e-08
1.498469e-07
2.318940e-07
3.298437e-07
4.447457e-07
5.758794e-07
7.220254e-07
8.816796e-07
1.053182e-06
1.234705e-06
1.424221e-06
1.619474e-06
1.818012e-06
2.017509e-06
2.216486e-06
2.411887e-06


2.119939e-01
2.119938e-01
2.119941e-01
2.119946e-01
2.119951e-01
2.119955e-01
2.119959e-01
2.119963e-01
2.119966e-01
2.119969e-01
2.119971e-01
2.119973e-01
2.119974e-01
2.119973e-01
2.119971e-01
2.119969e-01
2.119947e-01
2.119946e-01
2.119948e-01
2.119952e-01
2.119956e-01
2.119959e-01
2.119963e-01
2.119965e-01
2.119968e-01
2.119970e-01
2.119972e-01
2.119974e-01
2.119974e-01
2.119973e-01
2.119970e-01
2.119968e-01
2.119961e-01
2.119960e-01
2.119960e-01
2.119962e-01
2.119964e-01
2.119966e-01
2.119968e-01
2.119970e-01
2.119971e-01
2.119972e-01
2.119974e-01
2.119974e-01
2.119974e-01
2.119973e-01
2.119971e-01
2.119969e-01
2.119970e-01
2.119969e-01
2.119969e-01
2.119969e-01
2.119970e-01
2.119971e-01
2.119972e-01
2.119972e-01
2.119973e-01
2.119974e-01
2.119974e-01
2.119974e-01
2.119974e-01
2.119974e-01
2.119972e-01
2.119972e-01
2.119970e-01
2.119969e-01
2.119969e-01
2.119969e-01
2.119970e-01
2.119971e-01
2.119972e-01
2.119972e-01
2.119973e-01
2.119973e-01
2.119974e-01
2.119974e-01
2.119974e-01
2.119974e-01
2.119974e-01
2.119974e-01
2.119961e-01
2.119960e-01
2.119960e-01
2.119962e-01
2.119964e-01
2.119966e-01
2.119968e-01
2.119969e-01
2.119971e-01
2.119972e-01
2.119973e-01
2.119974e-01
2.119974e-01
2.119975e-01
2.119976e-01
2.119976e-01
2.119947e-01
2.119946e-01
2.119948e-01
2.119952e-01
2.119956e-01
2.119959e-01
2.119962e-01
2.119965e-01
2.119968e-01
2.119970e-01
2.119972e-01
2.119974e-01
2.119975e-01
2.119976e-01
2.119977e-01
2.119978e-01
2.119939e-01
2.119938e-01
2.119940e-01
2.119946e-01
2.119951e-01
2.119955e-01
2.119959e-01
2.119963e-01
2.119966e-01
2.119969e-01
2.119972e-01
2.119974e-01
2.119976e-01
2.119977e-01
2.119978e-01
2.119978e-01


9.881569e-01
9.898364e-01
9.913900e-01
9.925859e-01
9.936960e-01
9.947196e-01
9.956522e-01
9.964828e-01
9.972027e-01
9.978048e-01
9.982836e-01
9.986343e-01
9.988523e-01
9.989301e-01
9.989862e-01
9.955251e-01
9.955195e-01
9.947499e-01
9.952451e-01
9.958913e-01
9.964938e-01
9.970414e-01
9.975372e-01
9.979862e-01
9.983927e-01
9.987609e-01
9.990951e-01
9.993976e-01
9.996616e-01
9.998345e-01
9.993973e-01
9.934725e-01
9.984432e-01
9.980012e-01
9.978819e-01
9.980497e-01
9.982705e-01
9.984844e-01
9.986830e-01
9.988706e-01
9.990524e-01
9.992296e-01
9.993951e-01
9.995233e-01
9.995500e-01
9.993192e-01
9.984821e-01
9.969764e-01
9.996832e-01
9.993608e-01
9.991616e-01
9.991111e-01
9.991313e-01
9.991651e-01
9.991989e-01
9.992320e-01
9.992644e-01
9.992915e-01
9.992991e-01
9.992587e-01
9.991307e-01
9.989010e-01
9.987061e-01
9.986568e-01
9.996844e-01
9.993625e-01
9.991631e-01
9.991108e-01
9.991263e-01
9.991507e-01
9.991676e-01
9.991733e-01
9.991655e-01
9.991406e-01
9.990941e-01
9.990271e-01
9.989633e-01
9.989760e-01
9.991563e-01
9.994684e-01
9.984455e-01
9.980046e-01
9.978851e-01
9.980498e-01
9.982620e-01
9.984580e-01
9.986238e-01
9.987571e-01
9.988569e-01
9.989241e-01
9.989666e-01
9.990082e-01
9.990955e-01
9.992784e-01
9.995533e-01
9.998376e-01
9.955191e-01
9.947496e-01
9.952444e-01
9.958895e-01
9.964891e-01
9.970307e-01
9.975148e-01
9.979435e-01
9.983171e-01
9.986364e-01
9.989067e-01
9.991428e-01
9.993702e-01
9.996085e-01
9.998314e-01
9.999718e-01
9.881489e-01
9.898237e-01
9.913745e-01
9.925685e-01
9.936804e-01
9.947139e-01
9.956714e-01
9.965507e-01
9.973518e-01
9.980732e-01
9.987064e-01
9.992317e-01
9.996225e-01
9.998636e-01
9.999733e-01
9.999994e-01
1 2 19 18
2 3 20 19
3 4 21 20
4 5 22 21
5 6 23 22
6 7 24 23
7 8 25 24
8 9 26 25
9 10 27 26
10 11 28 27
11 12 29 28
12 13 30 29
13 14 31 30
14 15 32 31
15 16 33 32
16 17 34 33
18 19 36 35
19 20 37 36
20 21 38 37
21 22 39 38
22 23 40 39
23 24 41 40
24 25 42 41
25 26 43 42
26 27 44 43
27 28 45 44
28 29 46 45
29 30 47 46
30 31 48 47
31 32 49 48
32 33 50 49
33 34 51 50
35 36 53 52
36 37 54 53
37 38 55 54
38 39 56 55
39 40 57 56
40 41 58 57
41 42 59 58
42 43 60 59
43 44 61 60
44 45 62 61
45 46 63 62
46 47 64 63
47 48 65 64
48 49 66 65
49 50 67 66
50 51 68 67
52 53 70 69
53 54 71 70
54 55 72 71
55 56 73 72
56 57 74 73
57 58 75 74
58 59 76 75
59 60 77 76
60 61 78 77
61 62 79 78
62 63 80 79
63 64 81 80
64 65 82 81
65 66 83 82
66 67 84 83
67 68 85 84
69 70 87 86
70 71 88 87
71 72 89 88
72 73 90 89
73 74 91 90
74 75 92 91
75 76 93 92
76 77 94 93
77 78 95 94
78 79 96 95
79 80 97 96
80 81 98 97
81 82 99 98
82 83 100 99
83 84 101 100
84 85 102 101
86 87 104 103
87 88 105 104
88 89 106 105
89 90 107 106
90 91 108 107
91 92 109 108
92 93 110 109
93 94 111 110
94 95 112 111
95 96 113 112
96 97 114 113
97 98 115 114
98 99 116 115
99 100 117 116
100 101 118 117
101 102 119 118
103 104 121 120
104 105 122 121
105 106 123 122
106 107 124 123
107 108 125 124
108 109 126 125
109 110 127 126
110 111 128 127
111 112 129 128
112 113 130 129
113 114 131 130
114 115 132 131
115 116 133 132
116 117 134 133
117 118 135 134
118 119 136 135
120 121 138 137
121 122 139 138
122 123 140 139
123 124 141 140
124 125 142 141
125 126 143 142
126 127 144 143
127 128 145 144
128 129 146 145
129 130 147 146
130 131 148 147
131 132 149 148
132 133 150 149
133 134 151 150
134 135 152 151
135 136 153 152
