TITLE = "Solution"
VARIABLES = x, y, u, v, psiu, psiv, t, stress
ZONE T="structure" N=153 E=128 F=FEBLOCK ET=QUADRILATERAL VARLOCATION=([7,8]=cellcentered)
0.000000e+00
1.250000e+01
2.500000e+01
3.750000e+01
5.000000e+01
6.250000e+01
7.500000e+01
8.750000e+01
1.000000e+02
1.125000e+02
1.250000e+02
1.375000e+02
1.500000e+02
1.625000e+02
1.750000e+02
1.875000e+02
2.000000e+02
0.000000e+00
1.250000e+01
2.500000e+01
3.750000e+01
5.000000e+01
6.250000e+01
7.500000e+01
8.750000e+01
1.000000e+02
1.125000e+02
1.250000e+02
1.375000e+02
1.500000e+02
1.625000e+02
1.750000e+02
1.875000e+02
2.000000e+02
0.000000e+00
1.250000e+01
2.500000e+01
3.750000e+01
5.000000e+01
6.250000e+01
7.500000e+01
8.750000e+01
1.000000e+02
1.125000e+02
1.250000e+02
1.375000e+02
1.500000e+02
1.625000e+02
1.750000e+02
1.875000e+02
2.000000e+02
0.000000e+00
1.250000e+01
2.500000e+01
3.750000e+01
5.000000e+01
6.250000e+01
7.500000e+01
8.750000e+01
1.000000e+02
1.125000e+02
1.250000e+02
1.375000e+02
1.500000e+02
1.625000e+02
1.750000e+02
1.875000e+02
2.000000e+02
0.000000e+00
1.250000e+01
2.500000e+01
3.750000e+01
5.000000e+01
6.250000e+01
7.500000e+01
8.750000e+01
1.000000e+02
1.125000e+02
1.250000e+02
1.375000e+02
1.500000e+02
1.625000e+02
1.750000e+02
1.875000e+02
2.000000e+02
0.000000e+00
1.250000e+01
2.500000e+01
3.750000e+01
5.000000e+01
6.250000e+01
7.500000e+01
8.750000e+01
1.000000e+02
1.125000e+02
1.250000e+02
1.375000e+02
1.500000e+02
1.625000e+02
1.750000e+02
1.875000e+02
2.000000e+02
0.000000e+00
1.250000e+01
2.500000e+01
3.750000e+01
5.000000e+01
6.250000e+01
7.500000e+01
8.750000e+01
1.000000e+02
1.125000e+02
1.250000e+02
1.375000e+02
1.500000e+02
1.625000e+02
1.750000e+02
1.875000e+02
2.000000e+02
0.000000e+00
1.250000e+01
2.500000e+01
3.750000e+01
5.000000e+01
6.250000e+01
7.500000e+01
8.750000e+01
1.000000e+02
1.125000e+02
1.250000e+02
1.375000e+02
1.500000e+02
1.625000e+02
1.750000e+02
1.875000e+02
2.000000e+02
0.000000e+00
1.250000e+01
2.500000e+01
3.750000e+01
5.000000e+01
6.250000e+01
7.500000e+01
8.750000e+01
1.000000e+02
1.125000e+02
1.250000e+02
1.375000e+02
1.500000e+02
1.625000e+02
1.750000e+02
1.875000e+02
2.000000e+02
0.000000e+00
0.000000e+00
0.000000e+00
0.000000e+00
0.000000e+00
0.000000e+00
0.000000e+00
0.000000e+00
0.000000e+00
0.000000e+00
0.000000e+00
0.000000e+00
0.000000e+00
0.000000e+00
0.000000e+00
0.000000e+00
0.000000e+00
1.250000e+01
1.250000e+01
1.250000e+01
1.250000e+01
1.250000e+01
1.250000e+01
1.250000e+01
1.250000e+01
1.250000e+01
1.250000e+01
1.250000e+01
1.250000e+01
1.250000e+01
1.250000e+01
1.250000e+01
1.250000e+01
1.250000e+01
2.500000e+01
2.500000e+01
2.500000e+01
2.500000e+01
2.500000e+01
2.500000e+01
2.500000e+01
2.500000e+01
2.500000e+01
2.500000e+01
2.500000e+01
2.500000e+01
2.500000e+01
2.500000e+01
2.500000e+01
2.500000e+01
2.500000e+01
3.750000e+01
3.750000e+01
3.750000e+01
3.750000e+01
3.750000e+01
3.750000e+01
3.750000e+01
3.750000e+01
3.750000e+01
3.750000e+01
3.750000e+01
3.750000e+01
3.750000e+01
3.750000e+01
3.750000e+01
3.750000e+01
3.750000e+01
5.000000e+01
5.000000e+01
5.000000e+01
5.000000e+01
5.000000e+01
5.000000e+01
5.000000e+01
5.000000e+01
5.000000e+01
5.000000e+01
5.000000e+01
5.000000e+01
5.000000e+01
5.000000e+01
5.000000e+01
5.000000e+01
5.000000e+01
6.250000e+01
6.250000e+01
6.250000e+01
6.250000e+01
6.250000e+01
6.250000e+01
6.250000e+01
6.250000e+01
6.250000e+01
6.250000e+01
6.250000e+01
6.250000e+01
6.250000e+01
6.250000e+01
6.250000e+01
6.250000e+01
6.250000e+01
7.500000e+01
7.500000e+01
7.500000e+01
7.500000e+01
7.500000e+01
7.500000e+01
7.500000e+01
7.500000e+01
7.500000e+01
7.500000e+01
7.500000e+01
7.500000e+01
7.500000e+01
7.500000e+01
7.500000e+01
7.500000e+01
7.500000e+01
8.750000e+01
8.750000e+01
8.750000e+01
8.750000e+01
8.750000e+01
8.750000e+01
8.750000e+01
8.750000e+01
8.750000e+01
8.750000e+01
8.750000e+01
8.750000e+01
8.750000e+01
8.750000e+01
8.750000e+01
8.750000e+01
8.750000e+01
1.000000e+02
1.000000e+02
1.000000e+02
1.000000e+02
1.000000e+02
1.000000e+02
1.000000e+02
1.000000e+02
1.000000e+02
1.000000e+02
1.000000e+02
1.000000e+02
1.000000e+02
1.000000e+02
1.000000e+02
1.000000e+02
1.000000e+02
0.000000e+00
-7.160685e-02
-1.318509e-01
-1.872832e-01
-2.389063e-01
-2.866111e-01
-3.302954e-01
-3.699253e-01
-4.055583e-01
-4.373587e-01
-4.656416e-01
-4.909598e-01
-5.142643e-01
-5.371979e-01
-5.625939e-01
-5.937834e-01
-6.171877e-01
0.000000e+00
-4.276232e-02
-8.883039e-02
-1.313713e-01
-1.705646e-01
-2.065594e-01
-2.394301e-01
-2.692209e-01
-2.959855e-01
-3.198062e-01
-3.408041e-01
-3.591304e-01
-3.749021e-01
-3.879567e-01
-3.971649e-01
-3.991832e-01
-4.064192e-01
0.000000e+00
-2.674232e-02
-5.498889e-02
-8.316906e-02
-1.094744e-01
-1.336264e-01
-1.556055e-01
-1.754364e-01
-1.931242e-01
-2.086393e-01
-2.218983e-01
-2.327158e-01
-2.407062e-01
-2.451666e-01
-2.452905e-01
-2.435086e-01
-2.508888e-01
0.000000e+00
-1.290749e-02
-2.657180e-02
-4.032242e-02
-5.347051e-02
-6.558073e-02
-7.655746e-02
-8.636874e-02
-9.495839e-02
-1.022146e-01
-1.079520e-01
-1.118998e-01
-1.137347e-01
-1.133060e-01
-1.115448e-01
-1.120264e-01
-1.175217e-01
0.000000e+00
-1.189051e-05
-2.703084e-05
-4.212147e-05
-5.013047e-05
-3.537696e-05
3.326369e-05
2.116408e-04
5.913827e-04
1.308975e-03
2.542482e-03
4.470786e-03
7.142220e-03
1.016108e-02
1.224641e-02
1.167447e-02
8.036095e-03
0.000000e+00
1.288919e-02
2.652933e-02
4.025448e-02
5.338600e-02
6.551200e-02
7.658412e-02
8.665654e-02
9.581658e-02
1.041705e-01
1.118274e-01
1.188440e-01
1.250985e-01
1.301138e-01
1.330641e-01
1.332981e-01
1.314514e-01
0.000000e+00
2.673931e-02
5.497974e-02
8.315085e-02
1.094460e-01
1.335910e-01
1.555761e-01
1.754460e-01
1.932418e-01
2.089952e-01
2.227198e-01
2.343822e-01
2.438482e-01
2.508467e-01
2.550474e-01
2.564114e-01
2.559808e-01
0.000000e+00
4.277986e-02
8.886853e-02
1.314322e-01
1.706462e-01
2.066467e-01
2.394791e-01
2.691314e-01
2.955582e-01
3.186835e-01
3.383973e-01
3.545634e-01
3.670526e-01
3.758234e-01
3.810553e-01
3.832864e-01
3.836962e-01
0.000000e+00
7.163618e-02
1.319283e-01
1.874282e-01
2.391378e-01
2.869369e-01
3.306840e-01
3.702520e-01
4.055086e-01
4.362705e-01
4.622710e-01
4.831635e-01
4.986048e-01
5.084734e-01
5.132460e-01
5.144241e-01
5.144013e-01
0.000000e+00
-4.334560e-02
-8.509249e-02
-1.391867e-01
-2.055762e-01
-2.841368e-01
-3.740081e-01
-4.741842e-01
-5.836001e-01
-7.012047e-01
-8.260269e-01
-9.572940e-01
-1.094690e+00
-1.238947e+00
-1.393809e+00
-1.570999e+00
-1.825591e+00
0.000000e+00
-2.668435e-02
-7.023321e-02
-1.249982e-01
-1.924728e-01
-2.721054e-01
-3.630654e-01
-4.643224e-01
-5.747988e-01
-6.934245e-01
-8.192017e-01
-9.513223e-01
-1.089421e+00
-1.234211e+00
-1.389013e+00
-1.565128e+00
-1.780888e+00
0.000000e+00
-2.013572e-02
-5.993202e-02
-1.148992e-01
-1.830116e-01
-2.634639e-01
-3.552600e-01
-4.573595e-01
-5.686922e-01
-6.882033e-01
-8.149142e-01
-9.480444e-01
-1.087263e+00
-1.233167e+00
-1.388102e+00
-1.554977e+00
-1.716477e+00
0.000000e+00
-1.735155e-02
-5.481032e-02
-1.089713e-01
-1.773300e-01
-2.582775e-01
-3.506459e-01
-4.533552e-01
-5.653555e-01
-6.856204e-01
-8.131925e-01
-9.472763e-01
-1.087384e+00
-1.233449e+00
-1.385284e+00
-1.538619e+00
-1.679876e+00
0.000000e+00
-1.654949e-02
-5.326026e-02
-1.070803e-01
-1.754576e-01
-2.566065e-01
-3.492405e-01
-4.522805e-01
-5.646964e-01
-6.854788e-01
-8.136490e-01
-9.482854e-01
-1.088518e+00
-1.233312e+00
-1.380500e+00
-1.525050e+00
-1.658215e+00
0.000000e+00
-1.734125e-02
-5.480299e-02
-1.089844e-01
-1.773941e-01
-2.584463e-01
-3.510069e-01
-4.540391e-01
-5.665345e-01
-6.874787e-01
-8.158296e-01
-9.504723e-01
-1.090104e+00
-1.232949e+00
-1.376261e+00
-1.515854e+00
-1.646177e+00
0.000000e+00
-2.011892e-02
-5.991987e-02
-1.149209e-01
-1.831196e-01
-2.637495e-01
-3.558722e-01
-4.585207e-01
-5.706968e-01
-6.913687e-01
-8.194242e-01
-9.535768e-01
-1.092210e+00
-1.233183e+00
-1.373717e+00
-1.510631e+00
-1.640868e+00
0.000000e+00
-2.666860e-02
-7.022263e-02
-1.250272e-01
-1.926024e-01
-2.724412e-01
-3.637780e-01
-4.656645e-01
-5.771015e-01
-6.970383e-01
-8.243171e-01
-9.575595e-01
-1.095012e+00
-1.234415e+00
-1.373080e+00
-1.508471e+00
-1.639621e+00
0.000000e+00
-4.333910e-02
-8.509340e-02
-1.392315e-01
-2.057265e-01
-2.844957e-01
-3.747372e-01
-4.755146e-01
-5.858181e-01
-7.045785e-01
-8.306101e-01
-9.625042e-01
-1.098495e+00
-1.236373e+00
-1.373622e+00
-1.508076e+00
-1.639641e+00


0.000000e+00
9.520287e-08
1.907610e-07
2.795047e-07
3.627253e-07
4.399528e-07
5.108643e-07
5.754411e-07
6.338143e-07
6.862302e-07
7.330369e-07
7.746223e-07
8.112133e-07
8.425233e-07
8.681505e-07
8.900513e-07
9.095399e-07
0.000000e+00
5.354804e-08
1.302997e-07
1.993101e-07
2.625813e-07
3.209007e-07
3.742167e-07
4.225308e-07
4.658828e-07
5.043048e-07
5.377858e-07
5.662281e-07
5.894877e-07
6.080437e-07
6.249929e-07
6.451121e-07
6.658217e-07
0.000000e+00
3.374416e-08
8.234962e-08
1.279513e-07
1.704597e-07
2.095537e-07
2.450806e-07
2.769986e-07
3.052600e-07
3.297703e-07
3.503899e-07
3.670193e-07
3.799195e-07
3.904150e-07
4.014857e-07
4.164457e-07
4.337321e-07
0.000000e+00
1.648546e-08
3.947876e-08
6.181229e-08
8.306854e-08
1.025949e-07
1.201808e-07
1.357465e-07
1.492010e-07
1.604278e-07
1.693296e-07
1.759595e-07
1.807657e-07
1.848813e-07
1.901842e-07
1.989037e-07
2.109044e-07
0.000000e+00
1.721870e-11
2.130010e-11
-9.182929e-12
-1.035126e-10
-3.084055e-10
-6.923580e-10
-1.346523e-09
-2.376664e-09
-3.876851e-09
-5.871794e-09
-8.220471e-09
-1.050330e-08
-1.195120e-08
-1.137989e-08
-7.275692e-09
6.074035e-10
0.000000e+00
-1.645328e-08
-3.943559e-08
-6.181410e-08
-8.321935e-08
-1.030769e-07
-1.212932e-07
-1.379462e-07
-1.531329e-07
-1.669132e-07
-1.792602e-07
-1.900058e-07
-1.988062e-07
-2.051485e-07
-2.083986e-07
-2.077786e-07
-2.034608e-07
0.000000e+00
-3.372389e-08
-8.231969e-08
-1.279335e-07
-1.704953e-07
-2.097209e-07
-2.455152e-07
-2.779193e-07
-3.069902e-07
-3.327463e-07
-3.551256e-07
-3.739513e-07
-3.889254e-07
-3.996976e-07
-4.060899e-07
-4.082187e-07
-4.069437e-07
0.000000e+00
-5.356840e-08
-1.303403e-07
-1.993469e-07
-2.625747e-07
-3.207832e-07
-3.738772e-07
-4.217977e-07
-4.645078e-07
-5.019542e-07
-5.340524e-07
-5.606762e-07
-5.816609e-07
-5.968675e-07
-6.064305e-07
-6.111321e-07
-6.122680e-07
0.000000e+00
-9.531535e-08
-1.909603e-07
-2.797512e-07
-3.629360e-07
-4.399547e-07
-5.103297e-07
-5.738036e-07
-6.301700e-07
-6.792404e-07
-7.208666e-07
-7.549830e-07
-7.816487e-07
-8.010835e-07
-8.137421e-07
-8.202858e-07
-8.223876e-07
0.000000e+00
8.618575e-08
1.681327e-07
2.600861e-07
3.697575e-07
4.982784e-07
6.448060e-07
8.079857e-07
9.862568e-07
1.178104e-06
1.382229e-06
1.597833e-06
1.825350e-06
2.068050e-06
2.331927e-06
2.612225e-06
2.890322e-06
0.000000e+00
5.213452e-08
1.317802e-07
2.244543e-07
3.362605e-07
4.673643e-07
6.166651e-07
7.826318e-07
9.636634e-07
1.158223e-06
1.364990e-06
1.583103e-06
1.812582e-06
2.054864e-06
2.312319e-06
2.585508e-06
2.859944e-06
0.000000e+00
3.320862e-08
1.026377e-07
1.952100e-07
3.086269e-07
4.419696e-07
5.936838e-07
7.621185e-07
9.456453e-07
1.142721e-06
1.351978e-06
1.572342e-06
1.803077e-06
2.043504e-06
2.293225e-06
2.556438e-06
2.822030e-06
0.000000e+00
2.436618e-08
8.730638e-08
1.781573e-07
2.923171e-07
4.270471e-07
5.803324e-07
7.504171e-07
9.356504e-07
1.134461e-06
1.345370e-06
1.566967e-06
1.797767e-06
2.035912e-06
2.279912e-06
2.532976e-06
2.785339e-06
0.000000e+00
2.182503e-08
8.265783e-08
1.726718e-07
2.870321e-07
4.223177e-07
5.762809e-07
7.471189e-07
9.331598e-07
1.132774e-06
1.344327e-06
1.566099e-06
1.796107e-06
2.031890e-06
2.271027e-06
2.515010e-06
2.754362e-06
0.000000e+00
2.438586e-08
8.738020e-08
1.783399e-07
2.926799e-07
4.276876e-07
5.813718e-07
7.519836e-07
9.378335e-07
1.137218e-06
1.348355e-06
1.569296e-06
1.797768e-06
2.030973e-06
2.265885e-06
2.502286e-06
2.732148e-06
0.000000e+00
3.324037e-08
1.027663e-07
1.955299e-07
3.092633e-07
4.430942e-07
5.955111e-07
7.648751e-07
9.494903e-07
1.147580e-06
1.357240e-06
1.576363e-06
1.802518e-06
2.032784e-06
2.263933e-06
2.494661e-06
2.718614e-06
0.000000e+00
5.217484e-08
1.319434e-07
2.248484e-07
3.370370e-07
4.687297e-07
6.188746e-07
7.859492e-07
9.682601e-07
1.163973e-06
1.371085e-06
1.587374e-06
1.810327e-06
2.037071e-06
2.264634e-06
2.491234e-06
2.712154e-06
0.000000e+00
8.625256e-08
1.683235e-07
2.605112e-07
3.705661e-07
4.996676e-07
6.470088e-07
8.112225e-07
9.906212e-07
1.183340e-06
1.387328e-06
1.600305e-06
1.819733e-06
2.042857e-06
2.267058e-06
2.490675e-06
2.710270e-06


2.092287e-01
2.092286e-01
2.092288e-01
2.092291e-01
2.092295e-01
2.092298e-01
2.092301e-01
2.092303e-01
2.092305e-01
2.092307e-01
2.092309e-01
2.092310e-01
2.092311e-01
2.092310e-01
2.092308e-01
2.092307e-01
2.092292e-01
2.092292e-01
2.092293e-01
2.092295e-01
2.092298e-01
2.092301e-01
2.092303e-01
2.092305e-01
2.092306e-01
2.092308e-01
2.092309e-01
2.092310e-01
2.092311e-01
2.092310e-01
2.092308e-01
2.092306e-01
2.092302e-01
2.092301e-01
2.092301e-01
2.092302e-01
2.092304e-01
2.092305e-01
2.092306e-01
2.092308e-01
2.092309e-01
2.092310e-01
2.092310e-01
2.092311e-01
2.092311e-01
2.092310e-01
2.092308e-01
2.092307e-01
2.092308e-01
2.092307e-01
2.092307e-01
2.092307e-01
2.092308e-01
2.092308e-01
2.092309e-01
2.092310e-01
2.092310e-01
2.092310e-01
2.092311e-01
2.092311e-01
2.092311e-01
2.092310e-01
2.092309e-01
2.092309e-01
2.092308e-01
2.092307e-01
2.092307e-01
2.092307e-01
2.092308e-01
2.092308e-01
2.092309e-01
2.092309e-01
2.092310e-01
2.092310e-01
2.092310e-01
2.092311e-01
2.092311e-01
2.092311e-01
2.092311e-01
2.092311e-01
2.092302e-01
2.092301e-01
2.092301e-01
2.092302e-01
2.092304e-01
2.092305e-01
2.092306e-01
2.092307e-01
2.092308e-01
2.092309e-01
2.092310e-01
2.092310e-01
2.092311e-01
2.092311e-01
2.092312e-01
2.092312e-01
2.092292e-01
2.092292e-01
2.092293e-01
2.092295e-01
2.092298e-01
2.092300e-01
2.092303e-01
2.092305e-01
2.092306e-01
2.092308e-01
2.092309e-01
2.092310e-01
2.092311e-01
2.092312e-01
2.092313e-01
2.092313e-01
2.092287e-01
2.092286e-01
2.092288e-01
2.092291e-01
2.092295e-01
2.092298e-01
2.092301e-01
2.092303e-01
2.092305e-01
2.092307e-01
2.092309e-01
2.092310e-01
2.092312e-01
2.092313e-01
2.092313e-01
2.092314e-01


9.884639e-01
9.900998e-01
9.916131e-01
9.927781e-01
9.938594e-01
9.948565e-01
9.957649e-01
9.965740e-01
9.972752e-01
9.978617e-01
9.983281e-01
9.986697e-01
9.988821e-01
9.989579e-01
9.990125e-01
9.956411e-01
9.956357e-01
9.948860e-01
9.953683e-01
9.959978e-01
9.965847e-01
9.971181e-01
9.976010e-01
9.980384e-01
9.984344e-01
9.987931e-01
9.991185e-01
9.994133e-01
9.996704e-01
9.998387e-01
9.994130e-01
9.936418e-01
9.984836e-01
9.980530e-01
9.979368e-01
9.981003e-01
9.983154e-01
9.985237e-01
9.987171e-01
9.988999e-01
9.990770e-01
9.992496e-01
9.994108e-01
9.995356e-01
9.995617e-01
9.993369e-01
9.985214e-01
9.970548e-01
9.996914e-01
9.993773e-01
9.991834e-01
9.991341e-01
9.991538e-01
9.991868e-01
9.992197e-01
9.992519e-01
9.992834e-01
9.993099e-01
9.993172e-01
9.992779e-01
9.991533e-01
9.989295e-01
9.987397e-01
9.986916e-01
9.996925e-01
9.993790e-01
9.991848e-01
9.991338e-01
9.991489e-01
9.991727e-01
9.991892e-01
9.991947e-01
9.991872e-01
9.991629e-01
9.991176e-01
9.990523e-01
9.989902e-01
9.990026e-01
9.991782e-01
9.994822e-01
9.984858e-01
9.980563e-01
9.979399e-01
9.981003e-01
9.983070e-01
9.984979e-01
9.986595e-01
9.987893e-01
9.988865e-01
9.989520e-01
9.989934e-01
9.990339e-01
9.991189e-01
9.992972e-01
9.995649e-01
9.998418e-01
9.956353e-01
9.948857e-01
9.953677e-01
9.959960e-01
9.965801e-01
9.971076e-01
9.975793e-01
9.979968e-01
9.983607e-01
9.986718e-01
9.989351e-01
9.991650e-01
9.993865e-01
9.996187e-01
9.998358e-01
9.999725e-01
9.884560e-01
9.900875e-01
9.915980e-01
9.927611e-01
9.938442e-01
9.948510e-01
9.957837e-01
9.966401e-01
9.974204e-01
9.981232e-01
9.987400e-01
9.992516e-01
9.996323e-01
9.998671e-01
9.999740e-01
9.999994e-01
1 2 19 18
2 3 20 19
3 4 21 20
4 5 22 21
5 6 23 22
6 7 24 23
7 8 25 24
8 9 26 25
9 10 27 26
10 11 28 27
11 12 29 28
12 13 30 29
13 14 31 30
14 15 32 31
15 16 33 32
16 17 34 33
18 19 36 35
19 20 37 36
20 21 38 37
21 22 39 38
22 23 40 39
23 24 41 40
24 25 42 41
25 26 43 42
26 27 44 43
27 28 45 44
28 29 46 45
29 30 47 46
30 31 48 47
31 32 49 48
32 33 50 49
33 34 51 50
35 36 53 52
36 37 54 53
37 38 55 54
38 39 56 55
39 40 57 56
40 41 58 57
41 42 59 58
42 43 60 59
43 44 61 60
44 45 62 61
45 46 63 62
46 47 64 63
47 48 65 64
48 49 66 65
49 50 67 66
50 51 68 67
52 53 70 69
53 54 71 70
54 55 72 71
55 56 73 72
56 57 74 73
57 58 75 74
58 59 76 75
59 60 77 76
60 61 78 77
61 62 79 78
62 63 80 79
63 64 81 80
64 65 82 81
65 66 83 82
66 67 84 83
67 68 85 84
69 70 87 86
70 71 88 87
71 72 89 88
72 73 90 89
73 74 91 90
74 75 92 91
75 76 93 92
76 77 94 93
77 78 95 94
78 79 96 95
79 80 97 96
80 81 98 97
81 82 99 98
82 83 100 99
83 84 101 100
84 85 102 101
86 87 104 103
87 88 105 104
88 89 106 105
89 90 107 106
90 91 108 107
91 92 109 108
92 93 110 109
93 94 111 110
94 95 112 111
95 96 113 112
96 97 114 113
97 98 115 114
98 99 116 115
99 100 117 116
100 101 118 117
101 102 119 118
103 104 121 120
104 105 122 121
105 106 123 122
106 107 124 123
107 108 125 124
108 109 126 125
109 110 127 126
110 111 128 127
111 112 129 128
112 113 130 129
113 114 131 130
114 115 132 131
115 116 133 132
116 117 134 133
117 118 135 134
118 119 136 135
120 121 138 137
121 122 139 138
122 123 140 139
123 124 141 140
124 125 142 141
125 126 143 142
126 127 144 143
127 128 145 144
128 129 146 145
129 130 147 146
130 131 148 147
131 132 149 148
132 133 150 149
133 134 151 150
134 135 152 151
135 136 153 152
