TITLE = "Solution"
VARIABLES = x, y, u, v, psiu, psiv, t, stress
ZONE T="structure" N=153 E=128 F=FEBLOCK ET=QUADRILATERAL VARLOCATION=([7,8]=cellcentered)
0.000000e+00
1.250000e+01
2.500000e+01
3.750000e+01
5.000000e+01
6.250000e+01
7.500000e+01
8.750000e+01
1.000000e+02
1.125000e+02
1.250000e+02
1.375000e+02
1.500000e+02
1.625000e+02
1.750000e+02
1.875000e+02
2.000000e+02
0.000000e+00
1.250000e+01
2.500000e+01
3.750000e+01
5.000000e+01
6.250000e+01
7.500000e+01
8.750000e+01
1.000000e+02
1.125000e+02
1.250000e+02
1.375000e+02
1.500000e+02
1.625000e+02
1.750000e+02
1.875000e+02
2.000000e+02
0.000000e+00
1.250000e+01
2.500000e+01
3.750000e+01
5.000000e+01
6.250000e+01
7.500000e+01
8.750000e+01
1.000000e+02
1.125000e+02
1.250000e+02
1.375000e+02
1.500000e+02
1.625000e+02
1.750000e+02
1.875000e+02
2.000000e+02
0.000000e+00
1.250000e+01
2.500000e+01
3.750000e+01
5.000000e+01
6.250000e+01
7.500000e+01
8.750000e+01
1.000000e+02
1.125000e+02
1.250000e+02
1.375000e+02
1.500000e+02
1.625000e+02
1.750000e+02
1.875000e+02
2.000000e+02
0.000000e+00
1.250000e+01
2.500000e+01
3.750000e+01
5.000000e+01
6.250000e+01
7.500000e+01
8.750000e+01
1.000000e+02
1.125000e+02
1.250000e+02
1.375000e+02
1.500000e+02
1.625000e+02
1.750000e+02
1.875000e+02
2.000000e+02
0.000000e+00
1.250000e+01
2.500000e+01
3.750000e+01
5.000000e+01
6.250000e+01
7.500000e+01
8.750000e+01
1.000000e+02
1.125000e+02
1.250000e+02
1.375000e+02
1.500000e+02
1.625000e+02
1.750000e+02
1.875000e+02
2.000000e+02
0.000000e+00
1.250000e+01
2.500000e+01
3.750000e+01
5.000000e+01
6.250000e+01
7.500000e+01
8.750000e+01
1.000000e+02
1.125000e+02
1.250000e+02
1.375000e+02
1.500000e+02
1.625000e+02
1.750000e+02
1.875000e+02
2.000000e+02
0.000000e+00
1.250000e+01
2.500000e+01
3.750000e+01
5.000000e+01
6.250000e+01
7.500000e+01
8.750000e+01
1.000000e+02
1.125000e+02
1.250000e+02
1.375000e+02
1.500000e+02
1.625000e+02
1.750000e+02
1.875000e+02
2.000000e+02
0.000000e+00
1.250000e+01
2.500000e+01
3.750000e+01
5.000000e+01
6.250000e+01
7.500000e+01
8.750000e+01
1.000000e+02
1.125000e+02
1.250000e+02
1.375000e+02
1.500000e+02
1.625000e+02
1.750000e+02
1.875000e+02
2.000000e+02
0.000000e+00
0.000000e+00
0.000000e+00
0.000000e+00
0.000000e+00
0.000000e+00
0.000000e+00
0.000000e+00
0.000000e+00
0.000000e+00
0.000000e+00
0.000000e+00
0.000000e+00
0.000000e+00
0.000000e+00
0.000000e+00
0.000000e+00
1.250000e+01
1.250000e+01
1.250000e+01
1.250000e+01
1.250000e+01
1.250000e+01
1.250000e+01
1.250000e+01
1.250000e+01
1.250000e+01
1.250000e+01
1.250000e+01
1.250000e+01
1.250000e+01
1.250000e+01
1.250000e+01
1.250000e+01
2.500000e+01
2.500000e+01
2.500000e+01
2.500000e+01
2.500000e+01
2.500000e+01
2.500000e+01
2.500000e+01
2.500000e+01
2.500000e+01
2.500000e+01
2.500000e+01
2.500000e+01
2.500000e+01
2.500000e+01
2.500000e+01
2.500000e+01
3.750000e+01
3.750000e+01
3.750000e+01
3.750000e+01
3.750000e+01
3.750000e+01
3.750000e+01
3.750000e+01
3.750000e+01
3.750000e+01
3.750000e+01
3.750000e+01
3.750000e+01
3.750000e+01
3.750000e+01
3.750000e+01
3.750000e+01
5.000000e+01
5.000000e+01
5.000000e+01
5.000000e+01
5.000000e+01
5.000000e+01
5.000000e+01
5.000000e+01
5.000000e+01
5.000000e+01
5.000000e+01
5.000000e+01
5.000000e+01
5.000000e+01
5.000000e+01
5.000000e+01
5.000000e+01
6.250000e+01
6.250000e+01
6.250000e+01
6.250000e+01
6.250000e+01
6.250000e+01
6.250000e+01
6.250000e+01
6.250000e+01
6.250000e+01
6.250000e+01
6.250000e+01
6.250000e+01
6.250000e+01
6.250000e+01
6.250000e+01
6.250000e+01
7.500000e+01
7.500000e+01
7.500000e+01
7.500000e+01
7.500000e+01
7.500000e+01
7.500000e+01
7.500000e+01
7.500000e+01
7.500000e+01
7.500000e+01
7.500000e+01
7.500000e+01
7.500000e+01
7.500000e+01
7.500000e+01
7.500000e+01
8.750000e+01
8.750000e+01
8.750000e+01
8.750000e+01
8.750000e+01
8.750000e+01
8.750000e+01
8.750000e+01
8.750000e+01
8.750000e+01
8.750000e+01
8.750000e+01
8.750000e+01
8.750000e+01
8.750000e+01
8.750000e+01
8.750000e+01
1.000000e+02
1.000000e+02
1.000000e+02
1.000000e+02
1.000000e+02
1.000000e+02
1.000000e+02
1.000000e+02
1.000000e+02
1.000000e+02
1.000000e+02
1.000000e+02
1.000000e+02
1.000000e+02
1.000000e+02
1.000000e+02
1.000000e+02
0.000000e+00
-7.005653e-02
-1.289963e-01
-1.832285e-01
-2.337338e-01
-2.804057e-01
-3.231441e-01
-3.619157e-01
-3.967771e-01
-4.278888e-01
-4.555591e-01
-4.803290e-01
-5.031288e-01
-5.255657e-01
-5.504117e-01
-5.809257e-01
-6.038231e-01
0.000000e+00
-4.183652e-02
-8.690723e-02
-1.285272e-01
-1.668719e-01
-2.020872e-01
-2.342462e-01
-2.633919e-01
-2.895768e-01
-3.128817e-01
-3.334248e-01
-3.513542e-01
-3.667843e-01
-3.795562e-01
-3.885650e-01
-3.905395e-01
-3.976189e-01
0.000000e+00
-2.616337e-02
-5.379843e-02
-8.136848e-02
-1.071043e-01
-1.307333e-01
-1.522365e-01
-1.716380e-01
-1.889428e-01
-2.041219e-01
-2.170936e-01
-2.276768e-01
-2.354942e-01
-2.398580e-01
-2.399792e-01
-2.382359e-01
-2.454563e-01
0.000000e+00
-1.262806e-02
-2.599655e-02
-3.944947e-02
-5.231288e-02
-6.416088e-02
-7.489993e-02
-8.449874e-02
-9.290238e-02
-1.000015e-01
-1.056146e-01
-1.094769e-01
-1.112721e-01
-1.108527e-01
-1.091296e-01
-1.096008e-01
-1.149771e-01
0.000000e+00
-1.163282e-05
-2.644505e-05
-4.120864e-05
-4.904395e-05
-3.460969e-05
3.254466e-05
2.070588e-04
5.785765e-04
1.280627e-03
2.487419e-03
4.373958e-03
6.987533e-03
9.941003e-03
1.198117e-02
1.142162e-02
7.862038e-03
0.000000e+00
1.261016e-02
2.595500e-02
3.938300e-02
5.223021e-02
6.409364e-02
7.492602e-02
8.478031e-02
9.374198e-02
1.019150e-01
1.094061e-01
1.162707e-01
1.223897e-01
1.272964e-01
1.301828e-01
1.304117e-01
1.286050e-01
0.000000e+00
2.616043e-02
5.378947e-02
8.135067e-02
1.070765e-01
1.306987e-01
1.522077e-01
1.716473e-01
1.890578e-01
2.044700e-01
2.178974e-01
2.293072e-01
2.385682e-01
2.454151e-01
2.495248e-01
2.508593e-01
2.504379e-01
0.000000e+00
4.185368e-02
8.694455e-02
1.285867e-01
1.669517e-01
2.021726e-01
2.342941e-01
2.633042e-01
2.891588e-01
3.117833e-01
3.310701e-01
3.468862e-01
3.591048e-01
3.676856e-01
3.728043e-01
3.749871e-01
3.753880e-01
0.000000e+00
7.008523e-02
1.290720e-01
1.833703e-01
2.339604e-01
2.807244e-01
3.235242e-01
3.622354e-01
3.967285e-01
4.268242e-01
4.522616e-01
4.727016e-01
4.878085e-01
4.974634e-01
5.021326e-01
5.032851e-01
5.032629e-01
0.000000e+00
-4.240715e-02
-8.325015e-02
-1.361732e-01
-2.011252e-01
-2.779848e-01
-3.659102e-01
-4.639173e-01
-5.709640e-01
-6.860221e-01
-8.081415e-01
-9.365662e-01
-1.070987e+00
-1.212120e+00
-1.363629e+00
-1.536983e+00
-1.786061e+00
0.000000e+00
-2.610662e-02
-6.871258e-02
-1.222919e-01
-1.883055e-01
-2.662139e-01
-3.552045e-01
-4.542690e-01
-5.623533e-01
-6.784104e-01
-8.014641e-01
-9.307239e-01
-1.065832e+00
-1.207487e+00
-1.358937e+00
-1.531238e+00
-1.742326e+00
0.000000e+00
-1.969976e-02
-5.863440e-02
-1.124115e-01
-1.790492e-01
-2.577596e-01
-3.475681e-01
-4.474569e-01
-5.563789e-01
-6.733022e-01
-7.972695e-01
-9.275170e-01
-1.063721e+00
-1.206466e+00
-1.358046e+00
-1.521307e+00
-1.679310e+00
0.000000e+00
-1.697584e-02
-5.362358e-02
-1.066119e-01
-1.734906e-01
-2.526854e-01
-3.430539e-01
-4.435393e-01
-5.531145e-01
-6.707753e-01
-7.955851e-01
-9.267656e-01
-1.063839e+00
-1.206742e+00
-1.355289e+00
-1.505304e+00
-1.643502e+00
0.000000e+00
-1.619114e-02
-5.210707e-02
-1.047618e-01
-1.716587e-01
-2.510506e-01
-3.416789e-01
-4.424878e-01
-5.524697e-01
-6.706368e-01
-7.960317e-01
-9.277527e-01
-1.064949e+00
-1.206607e+00
-1.350609e+00
-1.492028e+00
-1.622310e+00
0.000000e+00
-1.696577e-02
-5.361641e-02
-1.066247e-01
-1.735532e-01
-2.528506e-01
-3.434071e-01
-4.442084e-01
-5.542679e-01
-6.725933e-01
-7.981650e-01
-9.298923e-01
-1.066501e+00
-1.206252e+00
-1.346461e+00
-1.483031e+00
-1.610533e+00
0.000000e+00
-1.968332e-02
-5.862252e-02
-1.124327e-01
-1.791548e-01
-2.580390e-01
-3.481670e-01
-4.485929e-01
-5.583401e-01
-6.763992e-01
-8.016818e-01
-9.329295e-01
-1.068561e+00
-1.206481e+00
-1.343972e+00
-1.477921e+00
-1.605338e+00
0.000000e+00
-2.609121e-02
-6.870223e-02
-1.223202e-01
-1.884323e-01
-2.665425e-01
-3.559016e-01
-4.555820e-01
-5.646061e-01
-6.819460e-01
-8.064687e-01
-9.368260e-01
-1.071302e+00
-1.207687e+00
-1.343349e+00
-1.475809e+00
-1.604119e+00
0.000000e+00
-4.240078e-02
-8.325105e-02
-1.362169e-01
-2.012722e-01
-2.783359e-01
-3.666235e-01
-4.652188e-01
-5.731340e-01
-6.893229e-01
-8.126255e-01
-9.416636e-01
-1.074709e+00
-1.209602e+00
-1.343879e+00
-1.475422e+00
-1.604138e+00


0.000000e+00
9.914751e-08
1.986581e-07
2.910773e-07
3.777541e-07
4.581988e-07
5.320736e-07
5.993569e-07
6.601832e-07
7.148071e-07
7.635898e-07
8.069338e-07
8.450741e-07
8.777105e-07
9.044226e-07
9.272484e-07
9.475577e-07
0.000000e+00
5.575398e-08
1.356732e-07
2.075401e-07
2.734395e-07
3.341900e-07
3.897358e-07
4.400765e-07
4.852519e-07
5.252936e-07
5.601892e-07
5.898351e-07
6.140807e-07
6.334246e-07
6.510932e-07
6.720629e-07
6.936448e-07
0.000000e+00
3.512584e-08
8.573480e-08
1.332228e-07
1.774968e-07
2.182210e-07
2.552346e-07
2.884924e-07
3.179434e-07
3.434879e-07
3.649794e-07
3.823133e-07
3.957611e-07
4.067028e-07
4.182434e-07
4.338354e-07
4.518503e-07
0.000000e+00
1.715791e-08
4.109930e-08
6.435613e-08
8.649481e-08
1.068352e-07
1.251570e-07
1.413762e-07
1.553972e-07
1.670978e-07
1.763762e-07
1.832872e-07
1.882975e-07
1.925878e-07
1.981151e-07
2.072030e-07
2.197100e-07
0.000000e+00
1.798321e-11
2.228097e-11
-9.439956e-12
-1.076987e-10
-3.211875e-10
-7.213012e-10
-1.403054e-09
-2.476692e-09
-4.040291e-09
-6.119651e-09
-8.567862e-09
-1.094768e-08
-1.245751e-08
-1.186267e-08
-7.585146e-09
6.311515e-10
0.000000e+00
-1.712430e-08
-4.105417e-08
-6.435779e-08
-8.665167e-08
-1.073372e-07
-1.263160e-07
-1.436684e-07
-1.594947e-07
-1.738569e-07
-1.867263e-07
-1.979273e-07
-2.071014e-07
-2.137133e-07
-2.171017e-07
-2.164557e-07
-2.119551e-07
0.000000e+00
-3.510468e-08
-8.570352e-08
-1.332042e-07
-1.775337e-07
-2.183949e-07
-2.556872e-07
-2.894517e-07
-3.197465e-07
-3.465896e-07
-3.699153e-07
-3.895385e-07
-4.051479e-07
-4.163775e-07
-4.230413e-07
-4.252604e-07
-4.239315e-07
0.000000e+00
-5.577520e-08
-1.357154e-07
-2.075783e-07
-2.734325e-07
-3.340673e-07
-3.893817e-07
-4.393121e-07
-4.838184e-07
-5.228434e-07
-5.562974e-07
-5.840478e-07
-6.059216e-07
-6.217731e-07
-6.317419e-07
-6.366431e-07
-6.378272e-07
0.000000e+00
-9.926472e-08
-1.988658e-07
-2.913341e-07
-3.779736e-07
-4.582008e-07
-5.315164e-07
-5.976500e-07
-6.563845e-07
-7.075212e-07
-7.509035e-07
-7.864617e-07
-8.142558e-07
-8.345139e-07
-8.477092e-07
-8.545306e-07
-8.567217e-07
0.000000e+00
8.975639e-08
1.751135e-07
2.708991e-07
3.851404e-07
5.190162e-07
6.716500e-07
8.416328e-07
1.027340e-06
1.227195e-06
1.439846e-06
1.664460e-06
1.901491e-06
2.154348e-06
2.429274e-06
2.721309e-06
3.011047e-06
0.000000e+00
5.430106e-08
1.372607e-07
2.337922e-07
3.502517e-07
4.868131e-07
6.423320e-07
8.152151e-07
1.003796e-06
1.206476e-06
1.421878e-06
1.649106e-06
1.888182e-06
2.140603e-06
2.408838e-06
2.693466e-06
2.979391e-06
0.000000e+00
3.459627e-08
1.069146e-07
2.033355e-07
3.214682e-07
4.603579e-07
6.183877e-07
7.938399e-07
9.850193e-07
1.190319e-06
1.408315e-06
1.637890e-06
1.878274e-06
2.128761e-06
2.388937e-06
2.663172e-06
2.939880e-06
0.000000e+00
2.538862e-08
9.094816e-08
1.855739e-07
3.044779e-07
4.448108e-07
6.044758e-07
7.816460e-07
9.746029e-07
1.181711e-06
1.401427e-06
1.632286e-06
1.872739e-06
2.120848e-06
2.375061e-06
2.638719e-06
2.901643e-06
0.000000e+00
2.274214e-08
8.610648e-08
1.798601e-07
2.989722e-07
4.398833e-07
6.002543e-07
7.782090e-07
9.720072e-07
1.179952e-06
1.400341e-06
1.631382e-06
1.871008e-06
2.116655e-06
2.365799e-06
2.619993e-06
2.869358e-06
0.000000e+00
2.540912e-08
9.102509e-08
1.857642e-07
3.048562e-07
4.454784e-07
6.055594e-07
7.832790e-07
9.768785e-07
1.184584e-06
1.404539e-06
1.634713e-06
1.872739e-06
2.115699e-06
2.360439e-06
2.606730e-06
2.846204e-06
0.000000e+00
3.462934e-08
1.070487e-07
2.036689e-07
3.221315e-07
4.615302e-07
6.202926e-07
7.967134e-07
9.890271e-07
1.195384e-06
1.413801e-06
1.642080e-06
1.877690e-06
2.117586e-06
2.358404e-06
2.598782e-06
2.832097e-06
0.000000e+00
5.434304e-08
1.374307e-07
2.342029e-07
3.510611e-07
4.882364e-07
6.446351e-07
8.186730e-07
1.008588e-06
1.212469e-06
1.428231e-06
1.653558e-06
1.885830e-06
2.122056e-06
2.359134e-06
2.595209e-06
2.825363e-06
0.000000e+00
8.982597e-08
1.753123e-07
2.713421e-07
3.859832e-07
5.204642e-07
6.739462e-07
8.450067e-07
1.031890e-06
1.232653e-06
1.445160e-06
1.667036e-06
1.895635e-06
2.128087e-06
2.361661e-06
2.594627e-06
2.823399e-06


2.046992e-01
2.046992e-01
2.046992e-01
2.046992e-01
2.046993e-01
2.046993e-01
2.046993e-01
2.046994e-01
2.046994e-01
2.046994e-01
2.046994e-01
2.046994e-01
2.046995e-01
2.046994e-01
2.046994e-01
2.046994e-01
2.046992e-01
2.046992e-01
2.046992e-01
2.046993e-01
2.046993e-01
2.046993e-01
2.046994e-01
2.046994e-01
2.046994e-01
2.046994e-01
2.046994e-01
2.046995e-01
2.046995e-01
2.046994e-01
2.046994e-01
2.046994e-01
2.046993e-01
2.046993e-01
2.046993e-01
2.046994e-01
2.046994e-01
2.046994e-01
2.046994e-01
2.046994e-01
2.046994e-01
2.046994e-01
2.046995e-01
2.046995e-01
2.046995e-01
2.046994e-01
2.046994e-01
2.046994e-01
2.046994e-01
2.046994e-01
2.046994e-01
2.046994e-01
2.046994e-01
2.046994e-01
2.046994e-01
2.046994e-01
2.046994e-01
2.046995e-01
2.046995e-01
2.046995e-01
2.046995e-01
2.046995e-01
2.046994e-01
2.046994e-01
2.046994e-01
2.046994e-01
2.046994e-01
2.046994e-01
2.046994e-01
2.046994e-01
2.046994e-01
2.046994e-01
2.046994e-01
2.046995e-01
2.046995e-01
2.046995e-01
2.046995e-01
2.046995e-01
2.046995e-01
2.046995e-01
2.046993e-01
2.046993e-01
2.046993e-01
2.046994e-01
2.046994e-01
2.046994e-01
2.046994e-01
2.046994e-01
2.046994e-01
2.046994e-01
2.046994e-01
2.046995e-01
2.046995e-01
2.046995e-01
2.046995e-01
2.046995e-01
2.046992e-01
2.046992e-01
2.046992e-01
2.046993e-01
2.046993e-01
2.046993e-01
2.046994e-01
2.046994e-01
2.046994e-01
2.046994e-01
2.046994e-01
2.046995e-01
2.046995e-01
2.046995e-01
2.046995e-01
2.046995e-01
2.046992e-01
2.046992e-01
2.046992e-01
2.046992e-01
2.046993e-01
2.046993e-01
2.046993e-01
2.046994e-01
2.046994e-01
2.046994e-01
2.046994e-01
2.046995e-01
2.046995e-01
2.046995e-01
2.046995e-01
2.046995e-01


9.889580e-01
9.905238e-01
9.919724e-01
9.930874e-01
9.941224e-01
9.950768e-01
9.959463e-01
9.967207e-01
9.973920e-01
9.979533e-01
9.983997e-01
9.987267e-01
9.989300e-01
9.990025e-01
9.990548e-01
9.958279e-01
9.958226e-01
9.951050e-01
9.955667e-01
9.961693e-01
9.967310e-01
9.972416e-01
9.977038e-01
9.981224e-01
9.985014e-01
9.988448e-01
9.991563e-01
9.994384e-01
9.996845e-01
9.998457e-01
9.994381e-01
9.939142e-01
9.985485e-01
9.981364e-01
9.980252e-01
9.981817e-01
9.983875e-01
9.985870e-01
9.987721e-01
9.989470e-01
9.991165e-01
9.992817e-01
9.994360e-01
9.995555e-01
9.995805e-01
9.993653e-01
9.985848e-01
9.971810e-01
9.997046e-01
9.994040e-01
9.992183e-01
9.991712e-01
9.991900e-01
9.992216e-01
9.992531e-01
9.992839e-01
9.993142e-01
9.993395e-01
9.993465e-01
9.993089e-01
9.991895e-01
9.989753e-01
9.987937e-01
9.987477e-01
9.997057e-01
9.994056e-01
9.992197e-01
9.991709e-01
9.991854e-01
9.992081e-01
9.992239e-01
9.992292e-01
9.992220e-01
9.991987e-01
9.991554e-01
9.990929e-01
9.990335e-01
9.990453e-01
9.992134e-01
9.995044e-01
9.985506e-01
9.981396e-01
9.980282e-01
9.981817e-01
9.983795e-01
9.985623e-01
9.987169e-01
9.988412e-01
9.989342e-01
9.989969e-01
9.990365e-01
9.990753e-01
9.991567e-01
9.993273e-01
9.995836e-01
9.998485e-01
9.958222e-01
9.951048e-01
9.955661e-01
9.961675e-01
9.967266e-01
9.972315e-01
9.976830e-01
9.980827e-01
9.984310e-01
9.987287e-01
9.989807e-01
9.992008e-01
9.994128e-01
9.996350e-01
9.998428e-01
9.999737e-01
9.889505e-01
9.905121e-01
9.919579e-01
9.930712e-01
9.941079e-01
9.950715e-01
9.959643e-01
9.967840e-01
9.975309e-01
9.982036e-01
9.987940e-01
9.992837e-01
9.996480e-01
9.998728e-01
9.999751e-01
9.999995e-01
1 2 19 18
2 3 20 19
3 4 21 20
4 5 22 21
5 6 23 22
6 7 24 23
7 8 25 24
8 9 26 25
9 10 27 26
10 11 28 27
11 12 29 28
12 13 30 29
13 14 31 30
14 15 32 31
15 16 33 32
16 17 34 33
18 19 36 35
19 20 37 36
20 21 38 37
21 22 39 38
22 23 40 39
23 24 41 40
24 25 42 41
25 26 43 42
26 27 44 43
27 28 45 44
28 29 46 45
29 30 47 46
30 31 48 47
31 32 49 48
32 33 50 49
33 34 51 50
35 36 53 52
36 37 54 53
37 38 55 54
38 39 56 55
39 40 57 56
40 41 58 57
41 42 59 58
42 43 60 59
43 44 61 60
44 45 62 61
45 46 63 62
46 47 64 63
47 48 65 64
48 49 66 65
49 50 67 66
50 51 68 67
52 53 70 69
53 54 71 70
54 55 72 71
55 56 73 72
56 57 74 73
57 58 75 74
58 59 76 75
59 60 77 76
60 61 78 77
61 62 79 78
62 63 80 79
63 64 81 80
64 65 82 81
65 66 83 82
66 67 84 83
67 68 85 84
69 70 87 86
70 71 88 87
71 72 89 88
72 73 90 89
73 74 91 90
74 75 92 91
75 76 93 92
76 77 94 93
77 78 95 94
78 79 96 95
79 80 97 96
80 81 98 97
81 82 99 98
82 83 100 99
83 84 101 100
84 85 102 101
86 87 104 103
87 88 105 104
88 89 106 105
89 90 107 106
90 91 108 107
91 92 109 108
92 93 110 109
93 94 111 110
94 95 112 111
95 96 113 112
96 97 114 113
97 98 115 114
98 99 116 115
99 100 117 116
100 101 118 117
101 102 119 118
103 104 121 120
104 105 122 121
105 106 123 122
106 107 124 123
107 108 125 124
108 109 126 125
109 110 127 126
110 111 128 127
111 112 129 128
112 113 130 129
113 114 131 130
114 115 132 131
115 116 133 132
116 117 134 133
117 118 135 134
118 119 136 135
120 121 138 137
121 122 139 138
122 123 140 139
123 124 141 140
124 125 142 141
125 126 143 142
126 127 144 143
127 128 145 144
128 129 146 145
129 130 147 146
130 131 148 147
131 132 149 148
132 133 150 149
133 134 151 150
134 135 152 151
135 136 153 152
