TITLE = "Solution"
VARIABLES = x, y, u, v, psiu, psiv, t, stress
ZONE T="structure" N=153 E=128 F=FEBLOCK ET=QUADRILATERAL VARLOCATION=([7,8]=cellcentered)
0.000000e+00
1.250000e+01
2.500000e+01
3.750000e+01
5.000000e+01
6.250000e+01
7.500000e+01
8.750000e+01
1.000000e+02
1.125000e+02
1.250000e+02
1.375000e+02
1.500000e+02
1.625000e+02
1.750000e+02
1.875000e+02
2.000000e+02
0.000000e+00
1.250000e+01
2.500000e+01
3.750000e+01
5.000000e+01
6.250000e+01
7.500000e+01
8.750000e+01
1.000000e+02
1.125000e+02
1.250000e+02
1.375000e+02
1.500000e+02
1.625000e+02
1.750000e+02
1.875000e+02
2.000000e+02
0.000000e+00
1.250000e+01
2.500000e+01
3.750000e+01
5.000000e+01
6.250000e+01
7.500000e+01
8.750000e+01
1.000000e+02
1.125000e+02
1.250000e+02
1.375000e+02
1.500000e+02
1.625000e+02
1.750000e+02
1.875000e+02
2.000000e+02
0.000000e+00
1.250000e+01
2.500000e+01
3.750000e+01
5.000000e+01
6.250000e+01
7.500000e+01
8.750000e+01
1.000000e+02
1.125000e+02
1.250000e+02
1.375000e+02
1.500000e+02
1.625000e+02
1.750000e+02
1.875000e+02
2.000000e+02
0.000000e+00
1.250000e+01
2.500000e+01
3.750000e+01
5.000000e+01
6.250000e+01
7.500000e+01
8.750000e+01
1.000000e+02
1.125000e+02
1.250000e+02
1.375000e+02
1.500000e+02
1.625000e+02
1.750000e+02
1.875000e+02
2.000000e+02
0.000000e+00
1.250000e+01
2.500000e+01
3.750000e+01
5.000000e+01
6.250000e+01
7.500000e+01
8.750000e+01
1.000000e+02
1.125000e+02
1.250000e+02
1.375000e+02
1.500000e+02
1.625000e+02
1.750000e+02
1.875000e+02
2.000000e+02
0.000000e+00
1.250000e+01
2.500000e+01
3.750000e+01
5.000000e+01
6.250000e+01
7.500000e+01
8.750000e+01
1.000000e+02
1.125000e+02
1.250000e+02
1.375000e+02
1.500000e+02
1.625000e+02
1.750000e+02
1.875000e+02
2.000000e+02
0.000000e+00
1.250000e+01
2.500000e+01
3.750000e+01
5.000000e+01
6.250000e+01
7.500000e+01
8.750000e+01
1.000000e+02
1.125000e+02
1.250000e+02
1.375000e+02
1.500000e+02
1.625000e+02
1.750000e+02
1.875000e+02
2.000000e+02
0.000000e+00
1.250000e+01
2.500000e+01
3.750000e+01
5.000000e+01
6.250000e+01
7.500000e+01
8.750000e+01
1.000000e+02
1.125000e+02
1.250000e+02
1.375000e+02
1.500000e+02
1.625000e+02
1.750000e+02
1.875000e+02
2.000000e+02
0.000000e+00
0.000000e+00
0.000000e+00
0.000000e+00
0.000000e+00
0.000000e+00
0.000000e+00
0.000000e+00
0.000000e+00
0.000000e+00
0.000000e+00
0.000000e+00
0.000000e+00
0.000000e+00
0.000000e+00
0.000000e+00
0.000000e+00
1.250000e+01
1.250000e+01
1.250000e+01
1.250000e+01
1.250000e+01
1.250000e+01
1.250000e+01
1.250000e+01
1.250000e+01
1.250000e+01
1.250000e+01
1.250000e+01
1.250000e+01
1.250000e+01
1.250000e+01
1.250000e+01
1.250000e+01
2.500000e+01
2.500000e+01
2.500000e+01
2.500000e+01
2.500000e+01
2.500000e+01
2.500000e+01
2.500000e+01
2.500000e+01
2.500000e+01
2.500000e+01
2.500000e+01
2.500000e+01
2.500000e+01
2.500000e+01
2.500000e+01
2.500000e+01
3.750000e+01
3.750000e+01
3.750000e+01
3.750000e+01
3.750000e+01
3.750000e+01
3.750000e+01
3.750000e+01
3.750000e+01
3.750000e+01
3.750000e+01
3.750000e+01
3.750000e+01
3.750000e+01
3.750000e+01
3.750000e+01
3.750000e+01
5.000000e+01
5.000000e+01
5.000000e+01
5.000000e+01
5.000000e+01
5.000000e+01
5.000000e+01
5.000000e+01
5.000000e+01
5.000000e+01
5.000000e+01
5.000000e+01
5.000000e+01
5.000000e+01
5.000000e+01
5.000000e+01
5.000000e+01
6.250000e+01
6.250000e+01
6.250000e+01
6.250000e+01
6.250000e+01
6.250000e+01
6.250000e+01
6.250000e+01
6.250000e+01
6.250000e+01
6.250000e+01
6.250000e+01
6.250000e+01
6.250000e+01
6.250000e+01
6.250000e+01
6.250000e+01
7.500000e+01
7.500000e+01
7.500000e+01
7.500000e+01
7.500000e+01
7.500000e+01
7.500000e+01
7.500000e+01
7.500000e+01
7.500000e+01
7.500000e+01
7.500000e+01
7.500000e+01
7.500000e+01
7.500000e+01
7.500000e+01
7.500000e+01
8.750000e+01
8.750000e+01
8.750000e+01
8.750000e+01
8.750000e+01
8.750000e+01
8.750000e+01
8.750000e+01
8.750000e+01
8.750000e+01
8.750000e+01
8.750000e+01
8.750000e+01
8.750000e+01
8.750000e+01
8.750000e+01
8.750000e+01
1.000000e+02
1.000000e+02
1.000000e+02
1.000000e+02
1.000000e+02
1.000000e+02
1.000000e+02
1.000000e+02
1.000000e+02
1.000000e+02
1.000000e+02
1.000000e+02
1.000000e+02
1.000000e+02
1.000000e+02
1.000000e+02
1.000000e+02
0.000000e+00
-7.739149e-02
-1.425022e-01
-2.024127e-01
-2.582062e-01
-3.097651e-01
-3.569787e-01
-3.998103e-01
-4.383223e-01
-4.726920e-01
-5.032601e-01
-5.306240e-01
-5.558115e-01
-5.805981e-01
-6.080461e-01
-6.417556e-01
-6.670509e-01
0.000000e+00
-4.621675e-02
-9.600632e-02
-1.419839e-01
-1.843435e-01
-2.232462e-01
-2.587726e-01
-2.909703e-01
-3.198973e-01
-3.456426e-01
-3.683371e-01
-3.881441e-01
-4.051901e-01
-4.192996e-01
-4.292518e-01
-4.314332e-01
-4.392539e-01
0.000000e+00
-2.890259e-02
-5.943098e-02
-8.988764e-02
-1.183181e-01
-1.444213e-01
-1.681761e-01
-1.896092e-01
-2.087261e-01
-2.254948e-01
-2.398250e-01
-2.515165e-01
-2.601526e-01
-2.649734e-01
-2.651073e-01
-2.631814e-01
-2.711579e-01
0.000000e+00
-1.395016e-02
-2.871829e-02
-4.357974e-02
-5.779002e-02
-7.087861e-02
-8.274216e-02
-9.334611e-02
-1.026298e-01
-1.104723e-01
-1.166733e-01
-1.209400e-01
-1.229232e-01
-1.224598e-01
-1.205563e-01
-1.210768e-01
-1.270161e-01
0.000000e+00
-1.285135e-05
-2.921514e-05
-4.552527e-05
-5.418166e-05
-3.823644e-05
3.594982e-05
2.287390e-04
6.391629e-04
1.414735e-03
2.747908e-03
4.832017e-03
7.719302e-03
1.098208e-02
1.323591e-02
1.261777e-02
8.685411e-03
0.000000e+00
1.393039e-02
2.867239e-02
4.350631e-02
5.769868e-02
7.080432e-02
8.277097e-02
9.365717e-02
1.035573e-01
1.125861e-01
1.208617e-01
1.284453e-01
1.352051e-01
1.406256e-01
1.438143e-01
1.440672e-01
1.420713e-01
0.000000e+00
2.889934e-02
5.942109e-02
8.986796e-02
1.182874e-01
1.443830e-01
1.681444e-01
1.896196e-01
2.088532e-01
2.258794e-01
2.407129e-01
2.533176e-01
2.635484e-01
2.711125e-01
2.756526e-01
2.771267e-01
2.766613e-01
0.000000e+00
4.623571e-02
9.604754e-02
1.420496e-01
1.844317e-01
2.233406e-01
2.588256e-01
2.908735e-01
3.194355e-01
3.444292e-01
3.657358e-01
3.832082e-01
3.967064e-01
4.061858e-01
4.118405e-01
4.142520e-01
4.146949e-01
0.000000e+00
7.742320e-02
1.425859e-01
2.025693e-01
2.584564e-01
3.101171e-01
3.573986e-01
4.001634e-01
4.382686e-01
4.715159e-01
4.996172e-01
5.221978e-01
5.388867e-01
5.495527e-01
5.547109e-01
5.559841e-01
5.559596e-01
0.000000e+00
-4.684723e-02
-9.196667e-02
-1.504310e-01
-2.221839e-01
-3.070911e-01
-4.042228e-01
-5.124920e-01
-6.307474e-01
-7.578531e-01
-8.927596e-01
-1.034632e+00
-1.183128e+00
-1.339040e+00
-1.506413e+00
-1.697919e+00
-1.973080e+00
0.000000e+00
-2.884003e-02
-7.590701e-02
-1.350963e-01
-2.080218e-01
-2.940877e-01
-3.923961e-01
-5.018334e-01
-6.212349e-01
-7.494443e-01
-8.853830e-01
-1.028178e+00
-1.177433e+00
-1.333921e+00
-1.501229e+00
-1.691573e+00
-1.924765e+00
0.000000e+00
-2.176239e-02
-6.477365e-02
-1.241814e-01
-1.977963e-01
-2.847481e-01
-3.839601e-01
-4.943079e-01
-6.146350e-01
-7.438012e-01
-8.807490e-01
-1.024635e+00
-1.175101e+00
-1.332793e+00
-1.500245e+00
-1.680602e+00
-1.855150e+00
0.000000e+00
-1.875333e-02
-5.923822e-02
-1.177746e-01
-1.916557e-01
-2.791426e-01
-3.789732e-01
-4.899802e-01
-6.110287e-01
-7.410097e-01
-8.788883e-01
-1.023805e+00
-1.175232e+00
-1.333098e+00
-1.497200e+00
-1.662923e+00
-1.815592e+00
0.000000e+00
-1.788649e-02
-5.756295e-02
-1.157308e-01
-1.896320e-01
-2.773367e-01
-3.774542e-01
-4.888186e-01
-6.103164e-01
-7.408567e-01
-8.793816e-01
-1.024895e+00
-1.176457e+00
-1.332949e+00
-1.492029e+00
-1.648257e+00
-1.792180e+00
0.000000e+00
-1.874220e-02
-5.923030e-02
-1.177887e-01
-1.917249e-01
-2.793251e-01
-3.793634e-01
-4.907193e-01
-6.123029e-01
-7.430181e-01
-8.817384e-01
-1.027259e+00
-1.178172e+00
-1.332557e+00
-1.487448e+00
-1.638318e+00
-1.779170e+00
0.000000e+00
-2.174423e-02
-6.476052e-02
-1.242049e-01
-1.979130e-01
-2.850567e-01
-3.846217e-01
-4.955629e-01
-6.168016e-01
-7.472225e-01
-8.856234e-01
-1.030614e+00
-1.180448e+00
-1.332810e+00
-1.484698e+00
-1.632673e+00
-1.773431e+00
0.000000e+00
-2.882300e-02
-7.589557e-02
-1.351275e-01
-2.081619e-01
-2.944506e-01
-3.931663e-01
-5.032839e-01
-6.237238e-01
-7.533501e-01
-8.909116e-01
-1.034919e+00
-1.183476e+00
-1.334141e+00
-1.484009e+00
-1.630339e+00
-1.772084e+00
0.000000e+00
-4.684020e-02
-9.196766e-02
-1.504793e-01
-2.223463e-01
-3.074790e-01
-4.050109e-01
-5.139299e-01
-6.331446e-01
-7.614995e-01
-8.977131e-01
-1.040263e+00
-1.187240e+00
-1.336257e+00
-1.484594e+00
-1.629912e+00
-1.772105e+00


0.000000e+00
2.938871e-08
5.894092e-08
8.634717e-08
1.119737e-07
1.356773e-07
1.573711e-07
1.770654e-07
1.948164e-07
2.107144e-07
2.248787e-07
2.374392e-07
2.484761e-07
2.579151e-07
2.656465e-07
2.722711e-07
2.781836e-07
0.000000e+00
1.662877e-08
4.041922e-08
6.174470e-08
8.122420e-08
9.911268e-08
1.154096e-07
1.301307e-07
1.433020e-07
1.549457e-07
1.650696e-07
1.736532e-07
1.806603e-07
1.862408e-07
1.913396e-07
1.974196e-07
2.037003e-07
0.000000e+00
1.054405e-08
2.562898e-08
3.972940e-08
5.281864e-08
6.480610e-08
7.565861e-08
8.537631e-08
9.395559e-08
1.013770e-07
1.076061e-07
1.126189e-07
1.164990e-07
1.196509e-07
1.229822e-07
1.275049e-07
1.327458e-07
0.000000e+00
5.171035e-09
1.230469e-08
1.921485e-08
2.576324e-08
3.175189e-08
3.712386e-08
4.186232e-08
4.594583e-08
4.934412e-08
5.203197e-08
5.402897e-08
5.547386e-08
5.671199e-08
5.831212e-08
6.094915e-08
6.458302e-08
0.000000e+00
4.920944e-12
5.813891e-12
-3.788122e-12
-3.274253e-11
-9.516071e-11
-2.117084e-10
-4.098815e-10
-7.215167e-10
-1.174837e-09
-1.776961e-09
-2.484694e-09
-3.170630e-09
-3.602539e-09
-3.425175e-09
-2.183696e-09
1.986072e-10
0.000000e+00
-5.161805e-09
-1.229272e-08
-1.921714e-08
-2.581129e-08
-3.190081e-08
-3.746398e-08
-4.253152e-08
-4.713857e-08
-5.130792e-08
-5.503519e-08
-5.827274e-08
-6.091970e-08
-6.282429e-08
-6.379883e-08
-6.361028e-08
-6.230761e-08
0.000000e+00
-1.053818e-08
-2.562058e-08
-3.972516e-08
-5.283106e-08
-6.485878e-08
-7.579250e-08
-8.565708e-08
-9.448048e-08
-1.022772e-07
-1.090364e-07
-1.147115e-07
-1.192189e-07
-1.224585e-07
-1.243803e-07
-1.250204e-07
-1.246358e-07
0.000000e+00
-1.663495e-08
-4.043175e-08
-6.175637e-08
-8.122313e-08
-9.907850e-08
-1.153088e-07
-1.299113e-07
-1.428889e-07
-1.542382e-07
-1.639450e-07
-1.719813e-07
-1.783061e-07
-1.828849e-07
-1.857630e-07
-1.871776e-07
-1.875189e-07
0.000000e+00
-2.942280e-08
-5.900127e-08
-8.642173e-08
-1.120374e-07
-1.356779e-07
-1.572097e-07
-1.765714e-07
-1.937176e-07
-2.086080e-07
-2.212126e-07
-2.315250e-07
-2.395735e-07
-2.454327e-07
-2.492453e-07
-2.512139e-07
-2.518453e-07
0.000000e+00
2.660806e-08
5.179045e-08
8.000358e-08
1.136578e-07
1.531001e-07
1.980596e-07
2.481062e-07
3.027492e-07
3.615152e-07
4.240005e-07
4.899554e-07
5.595064e-07
6.336428e-07
7.141983e-07
7.997653e-07
8.846918e-07
0.000000e+00
1.604430e-08
4.052272e-08
6.899496e-08
1.033474e-07
1.436203e-07
1.894606e-07
2.403837e-07
2.958873e-07
3.554926e-07
4.187896e-07
4.855113e-07
5.556599e-07
6.296708e-07
7.082715e-07
7.916646e-07
8.754685e-07
0.000000e+00
1.016108e-08
3.149594e-08
5.997259e-08
9.485562e-08
1.358460e-07
1.824491e-07
2.341443e-07
2.904216e-07
3.508012e-07
4.148603e-07
4.822686e-07
5.528003e-07
6.262499e-07
7.024999e-07
7.828529e-07
8.639639e-07
0.000000e+00
7.422351e-09
2.676273e-08
5.472644e-08
8.985700e-08
1.312887e-07
1.783843e-07
2.305912e-07
2.873938e-07
3.483044e-07
4.128668e-07
4.806503e-07
5.512032e-07
6.239622e-07
6.984792e-07
7.757497e-07
8.528432e-07
0.000000e+00
6.638220e-09
2.533173e-08
5.304135e-08
8.823904e-08
1.298455e-07
1.771512e-07
2.295895e-07
2.866386e-07
3.477936e-07
4.125524e-07
4.803895e-07
5.507033e-07
6.227499e-07
6.958012e-07
7.703237e-07
8.434696e-07
0.000000e+00
7.428411e-09
2.678508e-08
5.478147e-08
8.996623e-08
1.314815e-07
1.786972e-07
2.310629e-07
2.880514e-07
3.491352e-07
4.137673e-07
4.813530e-07
5.512039e-07
6.224749e-07
6.942561e-07
7.664894e-07
8.367594e-07
0.000000e+00
1.017084e-08
3.153489e-08
6.006910e-08
9.504729e-08
1.361846e-07
1.829994e-07
2.349747e-07
2.915805e-07
3.522667e-07
4.164486e-07
4.834836e-07
5.526352e-07
6.230216e-07
6.936718e-07
7.641947e-07
8.326783e-07
0.000000e+00
1.605673e-08
4.057229e-08
6.911407e-08
1.035816e-07
1.440318e-07
1.901264e-07
2.413836e-07
2.972733e-07
3.572270e-07
4.206300e-07
4.868045e-07
5.549878e-07
6.243131e-07
6.938839e-07
7.631637e-07
8.307333e-07
0.000000e+00
2.662864e-08
5.184860e-08
8.013236e-08
1.139020e-07
1.535192e-07
1.987237e-07
2.490820e-07
3.040651e-07
3.630948e-07
4.255405e-07
4.907066e-07
5.578227e-07
6.260554e-07
6.946139e-07
7.629961e-07
8.301672e-07


2.261301e-01
2.261301e-01
2.261306e-01
2.261317e-01
2.261326e-01
2.261334e-01
2.261342e-01
2.261348e-01
2.261354e-01
2.261359e-01
2.261363e-01
2.261366e-01
2.261368e-01
2.261367e-01
2.261363e-01
2.261361e-01
2.261317e-01
2.261315e-01
2.261319e-01
2.261327e-01
2.261334e-01
2.261341e-01
2.261347e-01
2.261352e-01
2.261357e-01
2.261361e-01
2.261364e-01
2.261366e-01
2.261368e-01
2.261366e-01
2.261363e-01
2.261360e-01
2.261342e-01
2.261340e-01
2.261341e-01
2.261345e-01
2.261349e-01
2.261352e-01
2.261356e-01
2.261359e-01
2.261362e-01
2.261364e-01
2.261366e-01
2.261367e-01
2.261368e-01
2.261367e-01
2.261364e-01
2.261362e-01
2.261359e-01
2.261357e-01
2.261357e-01
2.261357e-01
2.261359e-01
2.261361e-01
2.261362e-01
2.261364e-01
2.261365e-01
2.261366e-01
2.261367e-01
2.261368e-01
2.261368e-01
2.261367e-01
2.261366e-01
2.261365e-01
2.261359e-01
2.261357e-01
2.261357e-01
2.261357e-01
2.261359e-01
2.261361e-01
2.261362e-01
2.261363e-01
2.261365e-01
2.261365e-01
2.261366e-01
2.261367e-01
2.261368e-01
2.261368e-01
2.261368e-01
2.261368e-01
2.261342e-01
2.261340e-01
2.261341e-01
2.261345e-01
2.261349e-01
2.261352e-01
2.261356e-01
2.261358e-01
2.261361e-01
2.261363e-01
2.261365e-01
2.261366e-01
2.261368e-01
2.261369e-01
2.261370e-01
2.261371e-01
2.261317e-01
2.261315e-01
2.261319e-01
2.261327e-01
2.261334e-01
2.261341e-01
2.261347e-01
2.261352e-01
2.261356e-01
2.261360e-01
2.261364e-01
2.261366e-01
2.261369e-01
2.261371e-01
2.261372e-01
2.261373e-01
2.261301e-01
2.261301e-01
2.261306e-01
2.261317e-01
2.261326e-01
2.261334e-01
2.261342e-01
2.261348e-01
2.261354e-01
2.261359e-01
2.261363e-01
2.261367e-01
2.261370e-01
2.261372e-01
2.261373e-01
2.261374e-01


9.865248e-01
9.884357e-01
9.902033e-01
9.915641e-01
9.928271e-01
9.939918e-01
9.950529e-01
9.959980e-01
9.968171e-01
9.975022e-01
9.980470e-01
9.984461e-01
9.986941e-01
9.987826e-01
9.988465e-01
9.949083e-01
9.949021e-01
9.940264e-01
9.945898e-01
9.953251e-01
9.960106e-01
9.966337e-01
9.971977e-01
9.977086e-01
9.981712e-01
9.985902e-01
9.989703e-01
9.993146e-01
9.996150e-01
9.998116e-01
9.993143e-01
9.925728e-01
9.982287e-01
9.977257e-01
9.975900e-01
9.977809e-01
9.980322e-01
9.982755e-01
9.985015e-01
9.987150e-01
9.989218e-01
9.991234e-01
9.993117e-01
9.994575e-01
9.994880e-01
9.992254e-01
9.982729e-01
9.965596e-01
9.996395e-01
9.992727e-01
9.990461e-01
9.989886e-01
9.990115e-01
9.990501e-01
9.990885e-01
9.991261e-01
9.991630e-01
9.991939e-01
9.992025e-01
9.991565e-01
9.990109e-01
9.987495e-01
9.985278e-01
9.984717e-01
9.996409e-01
9.992746e-01
9.990478e-01
9.989882e-01
9.990058e-01
9.990336e-01
9.990529e-01
9.990594e-01
9.990505e-01
9.990221e-01
9.989692e-01
9.988930e-01
9.988204e-01
9.988349e-01
9.990400e-01
9.993951e-01
9.982312e-01
9.977296e-01
9.975936e-01
9.977810e-01
9.980224e-01
9.982454e-01
9.984341e-01
9.985857e-01
9.986993e-01
9.987758e-01
9.988242e-01
9.988714e-01
9.989708e-01
9.991790e-01
9.994918e-01
9.998152e-01
9.949016e-01
9.940260e-01
9.945890e-01
9.953230e-01
9.960052e-01
9.966214e-01
9.971723e-01
9.976601e-01
9.980851e-01
9.984484e-01
9.987560e-01
9.990246e-01
9.992833e-01
9.995545e-01
9.998082e-01
9.999679e-01
9.865156e-01
9.884213e-01
9.901857e-01
9.915443e-01
9.928094e-01
9.939854e-01
9.950748e-01
9.960752e-01
9.969867e-01
9.978076e-01
9.985281e-01
9.991258e-01
9.995705e-01
9.998448e-01
9.999696e-01
9.999994e-01
1 2 19 18
2 3 20 19
3 4 21 20
4 5 22 21
5 6 23 22
6 7 24 23
7 8 25 24
8 9 26 25
9 10 27 26
10 11 28 27
11 12 29 28
12 13 30 29
13 14 31 30
14 15 32 31
15 16 33 32
16 17 34 33
18 19 36 35
19 20 37 36
20 21 38 37
21 22 39 38
22 23 40 39
23 24 41 40
24 25 42 41
25 26 43 42
26 27 44 43
27 28 45 44
28 29 46 45
29 30 47 46
30 31 48 47
31 32 49 48
32 33 50 49
33 34 51 50
35 36 53 52
36 37 54 53
37 38 55 54
38 39 56 55
39 40 57 56
40 41 58 57
41 42 59 58
42 43 60 59
43 44 61 60
44 45 62 61
45 46 63 62
46 47 64 63
47 48 65 64
48 49 66 65
49 50 67 66
50 51 68 67
52 53 70 69
53 54 71 70
54 55 72 71
55 56 73 72
56 57 74 73
57 58 75 74
58 59 76 75
59 60 77 76
60 61 78 77
61 62 79 78
62 63 80 79
63 64 81 80
64 65 82 81
65 66 83 82
66 67 84 83
67 68 85 84
69 70 87 86
70 71 88 87
71 72 89 88
72 73 90 89
73 74 91 90
74 75 92 91
75 76 93 92
76 77 94 93
77 78 95 94
78 79 96 95
79 80 97 96
80 81 98 97
81 82 99 98
82 83 100 99
83 84 101 100
84 85 102 101
86 87 104 103
87 88 105 104
88 89 106 105
89 90 107 106
90 91 108 107
91 92 109 108
92 93 110 109
93 94 111 110
94 95 112 111
95 96 113 112
96 97 114 113
97 98 115 114
98 99 116 115
99 100 117 116
100 101 118 117
101 102 119 118
103 104 121 120
104 105 122 121
105 106 123 122
106 107 124 123
107 108 125 124
108 109 126 125
109 110 127 126
110 111 128 127
111 112 129 128
112 113 130 129
113 114 131 130
114 115 132 131
115 116 133 132
116 117 134 133
117 118 135 134
118 119 136 135
120 121 138 137
121 122 139 138
122 123 140 139
123 124 141 140
124 125 142 141
125 126 143 142
126 127 144 143
127 128 145 144
128 129 146 145
129 130 147 146
130 131 148 147
131 132 149 148
132 133 150 149
133 134 151 150
134 135 152 151
135 136 153 152
