TITLE = "Solution"
VARIABLES = x, y, u, v, psiu, psiv, t, stress
ZONE T="structure" N=153 E=128 F=FEBLOCK ET=QUADRILATERAL VARLOCATION=([7,8]=cellcentered)
0.000000e+00
1.250000e+01
2.500000e+01
3.750000e+01
5.000000e+01
6.250000e+01
7.500000e+01
8.750000e+01
1.000000e+02
1.125000e+02
1.250000e+02
1.375000e+02
1.500000e+02
1.625000e+02
1.750000e+02
1.875000e+02
2.000000e+02
0.000000e+00
1.250000e+01
2.500000e+01
3.750000e+01
5.000000e+01
6.250000e+01
7.500000e+01
8.750000e+01
1.000000e+02
1.125000e+02
1.250000e+02
1.375000e+02
1.500000e+02
1.625000e+02
1.750000e+02
1.875000e+02
2.000000e+02
0.000000e+00
1.250000e+01
2.500000e+01
3.750000e+01
5.000000e+01
6.250000e+01
7.500000e+01
8.750000e+01
1.000000e+02
1.125000e+02
1.250000e+02
1.375000e+02
1.500000e+02
1.625000e+02
1.750000e+02
1.875000e+02
2.000000e+02
0.000000e+00
1.250000e+01
2.500000e+01
3.750000e+01
5.000000e+01
6.250000e+01
7.500000e+01
8.750000e+01
1.000000e+02
1.125000e+02
1.250000e+02
1.375000e+02
1.500000e+02
1.625000e+02
1.750000e+02
1.875000e+02
2.000000e+02
0.000000e+00
1.250000e+01
2.500000e+01
3.750000e+01
5.000000e+01
6.250000e+01
7.500000e+01
8.750000e+01
1.000000e+02
1.125000e+02
1.250000e+02
1.375000e+02
1.500000e+02
1.625000e+02
1.750000e+02
1.875000e+02
2.000000e+02
0.000000e+00
1.250000e+01
2.500000e+01
3.750000e+01
5.000000e+01
6.250000e+01
7.500000e+01
8.750000e+01
1.000000e+02
1.125000e+02
1.250000e+02
1.375000e+02
1.500000e+02
1.625000e+02
1.750000e+02
1.875000e+02
2.000000e+02
0.000000e+00
1.250000e+01
2.500000e+01
3.750000e+01
5.000000e+01
6.250000e+01
7.500000e+01
8.750000e+01
1.000000e+02
1.125000e+02
1.250000e+02
1.375000e+02
1.500000e+02
1.625000e+02
1.750000e+02
1.875000e+02
2.000000e+02
0.000000e+00
1.250000e+01
2.500000e+01
3.750000e+01
5.000000e+01
6.250000e+01
7.500000e+01
8.750000e+01
1.000000e+02
1.125000e+02
1.250000e+02
1.375000e+02
1.500000e+02
1.625000e+02
1.750000e+02
1.875000e+02
2.000000e+02
0.000000e+00
1.250000e+01
2.500000e+01
3.750000e+01
5.000000e+01
6.250000e+01
7.500000e+01
8.750000e+01
1.000000e+02
1.125000e+02
1.250000e+02
1.375000e+02
1.500000e+02
1.625000e+02
1.750000e+02
1.875000e+02
2.000000e+02
0.000000e+00
0.000000e+00
0.000000e+00
0.000000e+00
0.000000e+00
0.000000e+00
0.000000e+00
0.000000e+00
0.000000e+00
0.000000e+00
0.000000e+00
0.000000e+00
0.000000e+00
0.000000e+00
0.000000e+00
0.000000e+00
0.000000e+00
1.250000e+01
1.250000e+01
1.250000e+01
1.250000e+01
1.250000e+01
1.250000e+01
1.250000e+01
1.250000e+01
1.250000e+01
1.250000e+01
1.250000e+01
1.250000e+01
1.250000e+01
1.250000e+01
1.250000e+01
1.250000e+01
1.250000e+01
2.500000e+01
2.500000e+01
2.500000e+01
2.500000e+01
2.500000e+01
2.500000e+01
2.500000e+01
2.500000e+01
2.500000e+01
2.500000e+01
2.500000e+01
2.500000e+01
2.500000e+01
2.500000e+01
2.500000e+01
2.500000e+01
2.500000e+01
3.750000e+01
3.750000e+01
3.750000e+01
3.750000e+01
3.750000e+01
3.750000e+01
3.750000e+01
3.750000e+01
3.750000e+01
3.750000e+01
3.750000e+01
3.750000e+01
3.750000e+01
3.750000e+01
3.750000e+01
3.750000e+01
3.750000e+01
5.000000e+01
5.000000e+01
5.000000e+01
5.000000e+01
5.000000e+01
5.000000e+01
5.000000e+01
5.000000e+01
5.000000e+01
5.000000e+01
5.000000e+01
5.000000e+01
5.000000e+01
5.000000e+01
5.000000e+01
5.000000e+01
5.000000e+01
6.250000e+01
6.250000e+01
6.250000e+01
6.250000e+01
6.250000e+01
6.250000e+01
6.250000e+01
6.250000e+01
6.250000e+01
6.250000e+01
6.250000e+01
6.250000e+01
6.250000e+01
6.250000e+01
6.250000e+01
6.250000e+01
6.250000e+01
7.500000e+01
7.500000e+01
7.500000e+01
7.500000e+01
7.500000e+01
7.500000e+01
7.500000e+01
7.500000e+01
7.500000e+01
7.500000e+01
7.500000e+01
7.500000e+01
7.500000e+01
7.500000e+01
7.500000e+01
7.500000e+01
7.500000e+01
8.750000e+01
8.750000e+01
8.750000e+01
8.750000e+01
8.750000e+01
8.750000e+01
8.750000e+01
8.750000e+01
8.750000e+01
8.750000e+01
8.750000e+01
8.750000e+01
8.750000e+01
8.750000e+01
8.750000e+01
8.750000e+01
8.750000e+01
1.000000e+02
1.000000e+02
1.000000e+02
1.000000e+02
1.000000e+02
1.000000e+02
1.000000e+02
1.000000e+02
1.000000e+02
1.000000e+02
1.000000e+02
1.000000e+02
1.000000e+02
1.000000e+02
1.000000e+02
1.000000e+02
1.000000e+02
0.000000e+00
-7.090554e-02
-1.305596e-01
-1.854490e-01
-2.365664e-01
-2.838040e-01
-3.270604e-01
-3.663020e-01
-4.015860e-01
-4.330748e-01
-4.610806e-01
-4.861508e-01
-5.092270e-01
-5.319359e-01
-5.570831e-01
-5.879670e-01
-6.111420e-01
0.000000e+00
-4.234352e-02
-8.796042e-02
-1.300847e-01
-1.688942e-01
-2.045363e-01
-2.370851e-01
-2.665841e-01
-2.930864e-01
-3.166738e-01
-3.374660e-01
-3.556127e-01
-3.712299e-01
-3.841567e-01
-3.932746e-01
-3.952731e-01
-4.024383e-01
0.000000e+00
-2.648042e-02
-5.445037e-02
-8.235454e-02
-1.084022e-01
-1.323177e-01
-1.540814e-01
-1.737181e-01
-1.912327e-01
-2.065958e-01
-2.197248e-01
-2.304363e-01
-2.383485e-01
-2.427652e-01
-2.428878e-01
-2.411234e-01
-2.484313e-01
0.000000e+00
-1.278109e-02
-2.631158e-02
-3.992753e-02
-5.294684e-02
-6.493844e-02
-7.580766e-02
-8.552282e-02
-9.402832e-02
-1.012135e-01
-1.068947e-01
-1.108038e-01
-1.126207e-01
-1.121962e-01
-1.104522e-01
-1.109292e-01
-1.163706e-01
0.000000e+00
-1.177394e-05
-2.676585e-05
-4.170855e-05
-4.963898e-05
-3.502988e-05
3.293841e-05
2.095681e-04
5.855896e-04
1.296151e-03
2.517574e-03
4.426984e-03
7.072245e-03
1.006152e-02
1.212643e-02
1.156009e-02
7.957358e-03
0.000000e+00
1.276297e-02
2.626952e-02
3.986025e-02
5.286316e-02
6.487038e-02
7.583406e-02
8.580780e-02
9.487811e-02
1.031502e-01
1.107321e-01
1.176799e-01
1.238731e-01
1.288393e-01
1.317607e-01
1.319924e-01
1.301638e-01
0.000000e+00
2.647745e-02
5.444131e-02
8.233651e-02
1.083741e-01
1.322826e-01
1.540524e-01
1.737276e-01
1.913491e-01
2.069481e-01
2.205383e-01
2.320864e-01
2.414597e-01
2.483897e-01
2.525492e-01
2.538998e-01
2.534734e-01
0.000000e+00
4.236089e-02
8.799819e-02
1.301450e-01
1.689749e-01
2.046228e-01
2.371336e-01
2.664954e-01
2.926634e-01
3.155621e-01
3.350828e-01
3.510905e-01
3.634573e-01
3.721421e-01
3.773228e-01
3.795321e-01
3.799379e-01
0.000000e+00
7.093459e-02
1.306362e-01
1.855926e-01
2.367957e-01
2.841266e-01
3.274451e-01
3.666256e-01
4.015368e-01
4.319973e-01
4.577432e-01
4.784309e-01
4.937209e-01
5.034929e-01
5.082187e-01
5.093852e-01
5.093627e-01
0.000000e+00
-4.292108e-02
-8.425908e-02
-1.378235e-01
-2.035628e-01
-2.813539e-01
-3.703449e-01
-4.695398e-01
-5.778840e-01
-6.943366e-01
-8.179362e-01
-9.479175e-01
-1.083967e+00
-1.226812e+00
-1.380157e+00
-1.555611e+00
-1.807709e+00
0.000000e+00
-2.642301e-02
-6.954533e-02
-1.237740e-01
-1.905876e-01
-2.694403e-01
-3.595094e-01
-4.597746e-01
-5.691689e-01
-6.866327e-01
-8.111779e-01
-9.420043e-01
-1.078750e+00
-1.222122e+00
-1.375407e+00
-1.549798e+00
-1.763444e+00
0.000000e+00
-1.993851e-02
-5.934502e-02
-1.137738e-01
-1.812192e-01
-2.608835e-01
-3.517805e-01
-4.528799e-01
-5.631221e-01
-6.814626e-01
-8.069323e-01
-9.387586e-01
-1.076614e+00
-1.221088e+00
-1.374505e+00
-1.539746e+00
-1.699664e+00
0.000000e+00
-1.718159e-02
-5.427348e-02
-1.079040e-01
-1.755932e-01
-2.557478e-01
-3.472115e-01
-4.489149e-01
-5.598181e-01
-6.789050e-01
-8.052276e-01
-9.379980e-01
-1.076733e+00
-1.221368e+00
-1.371715e+00
-1.523548e+00
-1.663422e+00
0.000000e+00
-1.638738e-02
-5.273860e-02
-1.060315e-01
-1.737391e-01
-2.540932e-01
-3.458199e-01
-4.478507e-01
-5.591655e-01
-6.787648e-01
-8.056796e-01
-9.389971e-01
-1.077856e+00
-1.221232e+00
-1.366978e+00
-1.510112e+00
-1.641973e+00
0.000000e+00
-1.717139e-02
-5.426623e-02
-1.079169e-01
-1.756566e-01
-2.559150e-01
-3.475691e-01
-4.495920e-01
-5.609855e-01
-6.807451e-01
-8.078388e-01
-9.411627e-01
-1.079427e+00
-1.220872e+00
-1.362781e+00
-1.501006e+00
-1.630053e+00
0.000000e+00
-1.992187e-02
-5.933300e-02
-1.137954e-01
-1.813261e-01
-2.611663e-01
-3.523866e-01
-4.540297e-01
-5.651071e-01
-6.845970e-01
-8.113982e-01
-9.442367e-01
-1.081512e+00
-1.221104e+00
-1.360262e+00
-1.495834e+00
-1.624795e+00
0.000000e+00
-2.640741e-02
-6.953486e-02
-1.238026e-01
-1.907160e-01
-2.697728e-01
-3.602150e-01
-4.611035e-01
-5.714491e-01
-6.902111e-01
-8.162431e-01
-9.481804e-01
-1.084286e+00
-1.222324e+00
-1.359631e+00
-1.493696e+00
-1.623561e+00
0.000000e+00
-4.291464e-02
-8.425999e-02
-1.378678e-01
-2.037116e-01
-2.817092e-01
-3.710669e-01
-4.708572e-01
-5.800803e-01
-6.976774e-01
-8.224745e-01
-9.530767e-01
-1.087735e+00
-1.224263e+00
-1.360167e+00
-1.493305e+00
-1.623580e+00


0.000000e+00
9.915109e-08
1.986672e-07
2.910902e-07
3.777678e-07
4.582105e-07
5.320807e-07
5.993576e-07
6.601762e-07
7.147917e-07
7.635657e-07
8.069010e-07
8.450332e-07
8.776624e-07
9.043689e-07
9.271904e-07
9.474967e-07
0.000000e+00
5.575968e-08
1.356854e-07
2.075557e-07
2.734556e-07
3.342041e-07
3.897459e-07
4.400814e-07
4.852506e-07
5.252858e-07
5.601748e-07
5.898146e-07
6.140546e-07
6.333938e-07
6.510581e-07
6.720237e-07
6.936023e-07
0.000000e+00
3.513187e-08
8.574566e-08
1.332363e-07
1.775106e-07
2.182333e-07
2.552440e-07
2.884981e-07
3.179448e-07
3.434849e-07
3.649721e-07
3.823022e-07
3.957467e-07
4.066855e-07
4.182233e-07
4.338125e-07
4.518244e-07
0.000000e+00
1.716159e-08
4.110517e-08
6.436344e-08
8.650243e-08
1.068421e-07
1.251625e-07
1.413799e-07
1.553988e-07
1.670973e-07
1.763738e-07
1.832832e-07
1.882923e-07
1.925815e-07
1.981077e-07
2.071939e-07
2.196987e-07
0.000000e+00
1.796922e-11
2.225359e-11
-9.475711e-12
-1.077321e-10
-3.211982e-10
-7.212540e-10
-1.402893e-09
-2.476337e-09
-4.039634e-09
-6.118565e-09
-8.566229e-09
-1.094545e-08
-1.245477e-08
-1.185987e-08
-7.583131e-09
6.315774e-10
0.000000e+00
-1.712801e-08
-4.106009e-08
-6.436516e-08
-8.665935e-08
-1.073442e-07
-1.263214e-07
-1.436717e-07
-1.594956e-07
-1.738552e-07
-1.867220e-07
-1.979204e-07
-2.070923e-07
-2.137025e-07
-2.170899e-07
-2.164440e-07
-2.119444e-07
0.000000e+00
-3.511072e-08
-8.571441e-08
-1.332177e-07
-1.775476e-07
-2.184073e-07
-2.556967e-07
-2.894572e-07
-3.197476e-07
-3.465860e-07
-3.699070e-07
-3.895260e-07
-4.051316e-07
-4.163585e-07
-4.230206e-07
-4.252392e-07
-4.239105e-07
0.000000e+00
-5.578090e-08
-1.357276e-07
-2.075940e-07
-2.734486e-07
-3.340815e-07
-3.893920e-07
-4.393172e-07
-4.838175e-07
-5.228361e-07
-5.562839e-07
-5.840286e-07
-6.058975e-07
-6.217454e-07
-6.317118e-07
-6.366118e-07
-6.377956e-07
0.000000e+00
-9.926828e-08
-1.988749e-07
-2.913470e-07
-3.779874e-07
-4.582125e-07
-5.315236e-07
-5.976511e-07
-6.563784e-07
-7.075074e-07
-7.508823e-07
-7.864337e-07
-8.142220e-07
-8.344756e-07
-8.476680e-07
-8.544877e-07
-8.566783e-07
0.000000e+00
8.975974e-08
1.751157e-07
2.708984e-07
3.851364e-07
5.190084e-07
6.716377e-07
8.416146e-07
1.027315e-06
1.227160e-06
1.439799e-06
1.664399e-06
1.901413e-06
2.154251e-06
2.429154e-06
2.721164e-06
3.010878e-06
0.000000e+00
5.430117e-08
1.372598e-07
2.337897e-07
3.502474e-07
4.868065e-07
6.423218e-07
8.151998e-07
1.003774e-06
1.206444e-06
1.421834e-06
1.649048e-06
1.888107e-06
2.140509e-06
2.408721e-06
2.693325e-06
2.979226e-06
0.000000e+00
3.459414e-08
1.069115e-07
2.033321e-07
3.214644e-07
4.603527e-07
6.183798e-07
7.938272e-07
9.849996e-07
1.190290e-06
1.408275e-06
1.637834e-06
1.878202e-06
2.128669e-06
2.388824e-06
2.663035e-06
2.939722e-06
0.000000e+00
2.538582e-08
9.094442e-08
1.855706e-07
3.044748e-07
4.448068e-07
6.044695e-07
7.816351e-07
9.745850e-07
1.181683e-06
1.401388e-06
1.632232e-06
1.872668e-06
2.120758e-06
2.374951e-06
2.638587e-06
2.901491e-06
0.000000e+00
2.273926e-08
8.610272e-08
1.798568e-07
2.989694e-07
4.398798e-07
6.002484e-07
7.781986e-07
9.719898e-07
1.179924e-06
1.400302e-06
1.631328e-06
1.870937e-06
2.116566e-06
2.365691e-06
2.619865e-06
2.869211e-06
0.000000e+00
2.540633e-08
9.102135e-08
1.857608e-07
3.048530e-07
4.454743e-07
6.055528e-07
7.832677e-07
9.768601e-07
1.184556e-06
1.404499e-06
1.634659e-06
1.872668e-06
2.115611e-06
2.360332e-06
2.606604e-06
2.846062e-06
0.000000e+00
3.462721e-08
1.070455e-07
2.036655e-07
3.221275e-07
4.615247e-07
6.202842e-07
7.967001e-07
9.890066e-07
1.195354e-06
1.413759e-06
1.642024e-06
1.877618e-06
2.117497e-06
2.358298e-06
2.598658e-06
2.831959e-06
0.000000e+00
5.434316e-08
1.374298e-07
2.342003e-07
3.510567e-07
4.882294e-07
6.446244e-07
8.186569e-07
1.008564e-06
1.212435e-06
1.428186e-06
1.653499e-06
1.885756e-06
2.121966e-06
2.359028e-06
2.595086e-06
2.825226e-06
0.000000e+00
8.982932e-08
1.753145e-07
2.713413e-07
3.859790e-07
5.204561e-07
6.739333e-07
8.449878e-07
1.031863e-06
1.232617e-06
1.445112e-06
1.666974e-06
1.895559e-06
2.127995e-06
2.361554e-06
2.594505e-06
2.823262e-06


2.071797e-01
2.071796e-01
2.071797e-01
2.071800e-01
2.071802e-01
2.071804e-01
2.071805e-01
2.071807e-01
2.071808e-01
2.071809e-01
2.071810e-01
2.071811e-01
2.071811e-01
2.071811e-01
2.071810e-01
2.071809e-01
2.071800e-01
2.071800e-01
2.071800e-01
2.071802e-01
2.071804e-01
2.071805e-01
2.071807e-01
2.071808e-01
2.071809e-01
2.071810e-01
2.071811e-01
2.071811e-01
2.071811e-01
2.071811e-01
2.071810e-01
2.071809e-01
2.071806e-01
2.071805e-01
2.071806e-01
2.071806e-01
2.071807e-01
2.071808e-01
2.071809e-01
2.071809e-01
2.071810e-01
2.071811e-01
2.071811e-01
2.071811e-01
2.071811e-01
2.071811e-01
2.071810e-01
2.071809e-01
2.071810e-01
2.071809e-01
2.071809e-01
2.071809e-01
2.071810e-01
2.071810e-01
2.071810e-01
2.071811e-01
2.071811e-01
2.071811e-01
2.071811e-01
2.071811e-01
2.071811e-01
2.071811e-01
2.071811e-01
2.071810e-01
2.071810e-01
2.071809e-01
2.071809e-01
2.071809e-01
2.071810e-01
2.071810e-01
2.071810e-01
2.071811e-01
2.071811e-01
2.071811e-01
2.071811e-01
2.071811e-01
2.071811e-01
2.071811e-01
2.071811e-01
2.071811e-01
2.071806e-01
2.071805e-01
2.071806e-01
2.071806e-01
2.071807e-01
2.071808e-01
2.071809e-01
2.071809e-01
2.071810e-01
2.071810e-01
2.071811e-01
2.071811e-01
2.071811e-01
2.071812e-01
2.071812e-01
2.071812e-01
2.071800e-01
2.071800e-01
2.071800e-01
2.071802e-01
2.071804e-01
2.071805e-01
2.071806e-01
2.071808e-01
2.071809e-01
2.071810e-01
2.071810e-01
2.071811e-01
2.071812e-01
2.071812e-01
2.071813e-01
2.071813e-01
2.071797e-01
2.071796e-01
2.071797e-01
2.071800e-01
2.071802e-01
2.071804e-01
2.071805e-01
2.071807e-01
2.071808e-01
2.071809e-01
2.071810e-01
2.071811e-01
2.071812e-01
2.071812e-01
2.071813e-01
2.071813e-01


9.886888e-01
9.902928e-01
9.917766e-01
9.929188e-01
9.939791e-01
9.949568e-01
9.958475e-01
9.966408e-01
9.973283e-01
9.979034e-01
9.983607e-01
9.986957e-01
9.989039e-01
9.989782e-01
9.990318e-01
9.957261e-01
9.957207e-01
9.949857e-01
9.954586e-01
9.960758e-01
9.966513e-01
9.971743e-01
9.976478e-01
9.980766e-01
9.984649e-01
9.988166e-01
9.991357e-01
9.994247e-01
9.996768e-01
9.998419e-01
9.994244e-01
9.937657e-01
9.985131e-01
9.980910e-01
9.979770e-01
9.981373e-01
9.983482e-01
9.985525e-01
9.987422e-01
9.989214e-01
9.990950e-01
9.992642e-01
9.994223e-01
9.995447e-01
9.995702e-01
9.993498e-01
9.985503e-01
9.971122e-01
9.996974e-01
9.993895e-01
9.991993e-01
9.991510e-01
9.991703e-01
9.992026e-01
9.992349e-01
9.992665e-01
9.992974e-01
9.993233e-01
9.993306e-01
9.992920e-01
9.991698e-01
9.989503e-01
9.987643e-01
9.987172e-01
9.996985e-01
9.993911e-01
9.992007e-01
9.991507e-01
9.991655e-01
9.991888e-01
9.992050e-01
9.992104e-01
9.992030e-01
9.991792e-01
9.991348e-01
9.990708e-01
9.990099e-01
9.990220e-01
9.991942e-01
9.994923e-01
9.985153e-01
9.980942e-01
9.979801e-01
9.981373e-01
9.983400e-01
9.985272e-01
9.986856e-01
9.988129e-01
9.989082e-01
9.989724e-01
9.990130e-01
9.990527e-01
9.991361e-01
9.993109e-01
9.995734e-01
9.998449e-01
9.957203e-01
9.949854e-01
9.954580e-01
9.960741e-01
9.966468e-01
9.971640e-01
9.976264e-01
9.980359e-01
9.983927e-01
9.986977e-01
9.989558e-01
9.991813e-01
9.993984e-01
9.996261e-01
9.998390e-01
9.999730e-01
9.886810e-01
9.902807e-01
9.917618e-01
9.929022e-01
9.939642e-01
9.949513e-01
9.958659e-01
9.967056e-01
9.974707e-01
9.981598e-01
9.987645e-01
9.992662e-01
9.996395e-01
9.998697e-01
9.999745e-01
9.999995e-01
1 2 19 18
2 3 20 19
3 4 21 20
4 5 22 21
5 6 23 22
6 7 24 23
7 8 25 24
8 9 26 25
9 10 27 26
10 11 28 27
11 12 29 28
12 13 30 29
13 14 31 30
14 15 32 31
15 16 33 32
16 17 34 33
18 19 36 35
19 20 37 36
20 21 38 37
21 22 39 38
22 23 40 39
23 24 41 40
24 25 42 41
25 26 43 42
26 27 44 43
27 28 45 44
28 29 46 45
29 30 47 46
30 31 48 47
31 32 49 48
32 33 50 49
33 34 51 50
35 36 53 52
36 37 54 53
37 38 55 54
38 39 56 55
39 40 57 56
40 41 58 57
41 42 59 58
42 43 60 59
43 44 61 60
44 45 62 61
45 46 63 62
46 47 64 63
47 48 65 64
48 49 66 65
49 50 67 66
50 51 68 67
52 53 70 69
53 54 71 70
54 55 72 71
55 56 73 72
56 57 74 73
57 58 75 74
58 59 76 75
59 60 77 76
60 61 78 77
61 62 79 78
62 63 80 79
63 64 81 80
64 65 82 81
65 66 83 82
66 67 84 83
67 68 85 84
69 70 87 86
70 71 88 87
71 72 89 88
72 73 90 89
73 74 91 90
74 75 92 91
75 76 93 92
76 77 94 93
77 78 95 94
78 79 96 95
79 80 97 96
80 81 98 97
81 82 99 98
82 83 100 99
83 84 101 100
84 85 102 101
86 87 104 103
87 88 105 104
88 89 106 105
89 90 107 106
90 91 108 107
91 92 109 108
92 93 110 109
93 94 111 110
94 95 112 111
95 96 113 112
96 97 114 113
97 98 115 114
98 99 116 115
99 100 117 116
100 101 118 117
101 102 119 118
103 104 121 120
104 105 122 121
105 106 123 122
106 107 124 123
107 108 125 124
108 109 126 125
109 110 127 126
110 111 128 127
111 112 129 128
112 113 130 129
113 114 131 130
114 115 132 131
115 116 133 132
116 117 134 133
117 118 135 134
118 119 136 135
120 121 138 137
121 122 139 138
122 123 140 139
123 124 141 140
124 125 142 141
125 126 143 142
126 127 144 143
127 128 145 144
128 129 146 145
129 130 147 146
130 131 148 147
131 132 149 148
132 133 150 149
133 134 151 150
134 135 152 151
135 136 153 152
