TITLE = "Solution"
VARIABLES = x, y, u, v, psiu, psiv, t, stress
ZONE T="structure" N=153 E=128 F=FEBLOCK ET=QUADRILATERAL VARLOCATION=([7,8]=cellcentered)
0.000000e+00
1.250000e+01
2.500000e+01
3.750000e+01
5.000000e+01
6.250000e+01
7.500000e+01
8.750000e+01
1.000000e+02
1.125000e+02
1.250000e+02
1.375000e+02
1.500000e+02
1.625000e+02
1.750000e+02
1.875000e+02
2.000000e+02
0.000000e+00
1.250000e+01
2.500000e+01
3.750000e+01
5.000000e+01
6.250000e+01
7.500000e+01
8.750000e+01
1.000000e+02
1.125000e+02
1.250000e+02
1.375000e+02
1.500000e+02
1.625000e+02
1.750000e+02
1.875000e+02
2.000000e+02
0.000000e+00
1.250000e+01
2.500000e+01
3.750000e+01
5.000000e+01
6.250000e+01
7.500000e+01
8.750000e+01
1.000000e+02
1.125000e+02
1.250000e+02
1.375000e+02
1.500000e+02
1.625000e+02
1.750000e+02
1.875000e+02
2.000000e+02
0.000000e+00
1.250000e+01
2.500000e+01
3.750000e+01
5.000000e+01
6.250000e+01
7.500000e+01
8.750000e+01
1.000000e+02
1.125000e+02
1.250000e+02
1.375000e+02
1.500000e+02
1.625000e+02
1.750000e+02
1.875000e+02
2.000000e+02
0.000000e+00
1.250000e+01
2.500000e+01
3.750000e+01
5.000000e+01
6.250000e+01
7.500000e+01
8.750000e+01
1.000000e+02
1.125000e+02
1.250000e+02
1.375000e+02
1.500000e+02
1.625000e+02
1.750000e+02
1.875000e+02
2.000000e+02
0.000000e+00
1.250000e+01
2.500000e+01
3.750000e+01
5.000000e+01
6.250000e+01
7.500000e+01
8.750000e+01
1.000000e+02
1.125000e+02
1.250000e+02
1.375000e+02
1.500000e+02
1.625000e+02
1.750000e+02
1.875000e+02
2.000000e+02
0.000000e+00
1.250000e+01
2.500000e+01
3.750000e+01
5.000000e+01
6.250000e+01
7.500000e+01
8.750000e+01
1.000000e+02
1.125000e+02
1.250000e+02
1.375000e+02
1.500000e+02
1.625000e+02
1.750000e+02
1.875000e+02
2.000000e+02
0.000000e+00
1.250000e+01
2.500000e+01
3.750000e+01
5.000000e+01
6.250000e+01
7.500000e+01
8.750000e+01
1.000000e+02
1.125000e+02
1.250000e+02
1.375000e+02
1.500000e+02
1.625000e+02
1.750000e+02
1.875000e+02
2.000000e+02
0.000000e+00
1.250000e+01
2.500000e+01
3.750000e+01
5.000000e+01
6.250000e+01
7.500000e+01
8.750000e+01
1.000000e+02
1.125000e+02
1.250000e+02
1.375000e+02
1.500000e+02
1.625000e+02
1.750000e+02
1.875000e+02
2.000000e+02
0.000000e+00
0.000000e+00
0.000000e+00
0.000000e+00
0.000000e+00
0.000000e+00
0.000000e+00
0.000000e+00
0.000000e+00
0.000000e+00
0.000000e+00
0.000000e+00
0.000000e+00
0.000000e+00
0.000000e+00
0.000000e+00
0.000000e+00
1.250000e+01
1.250000e+01
1.250000e+01
1.250000e+01
1.250000e+01
1.250000e+01
1.250000e+01
1.250000e+01
1.250000e+01
1.250000e+01
1.250000e+01
1.250000e+01
1.250000e+01
1.250000e+01
1.250000e+01
1.250000e+01
1.250000e+01
2.500000e+01
2.500000e+01
2.500000e+01
2.500000e+01
2.500000e+01
2.500000e+01
2.500000e+01
2.500000e+01
2.500000e+01
2.500000e+01
2.500000e+01
2.500000e+01
2.500000e+01
2.500000e+01
2.500000e+01
2.500000e+01
2.500000e+01
3.750000e+01
3.750000e+01
3.750000e+01
3.750000e+01
3.750000e+01
3.750000e+01
3.750000e+01
3.750000e+01
3.750000e+01
3.750000e+01
3.750000e+01
3.750000e+01
3.750000e+01
3.750000e+01
3.750000e+01
3.750000e+01
3.750000e+01
5.000000e+01
5.000000e+01
5.000000e+01
5.000000e+01
5.000000e+01
5.000000e+01
5.000000e+01
5.000000e+01
5.000000e+01
5.000000e+01
5.000000e+01
5.000000e+01
5.000000e+01
5.000000e+01
5.000000e+01
5.000000e+01
5.000000e+01
6.250000e+01
6.250000e+01
6.250000e+01
6.250000e+01
6.250000e+01
6.250000e+01
6.250000e+01
6.250000e+01
6.250000e+01
6.250000e+01
6.250000e+01
6.250000e+01
6.250000e+01
6.250000e+01
6.250000e+01
6.250000e+01
6.250000e+01
7.500000e+01
7.500000e+01
7.500000e+01
7.500000e+01
7.500000e+01
7.500000e+01
7.500000e+01
7.500000e+01
7.500000e+01
7.500000e+01
7.500000e+01
7.500000e+01
7.500000e+01
7.500000e+01
7.500000e+01
7.500000e+01
7.500000e+01
8.750000e+01
8.750000e+01
8.750000e+01
8.750000e+01
8.750000e+01
8.750000e+01
8.750000e+01
8.750000e+01
8.750000e+01
8.750000e+01
8.750000e+01
8.750000e+01
8.750000e+01
8.750000e+01
8.750000e+01
8.750000e+01
8.750000e+01
1.000000e+02
1.000000e+02
1.000000e+02
1.000000e+02
1.000000e+02
1.000000e+02
1.000000e+02
1.000000e+02
1.000000e+02
1.000000e+02
1.000000e+02
1.000000e+02
1.000000e+02
1.000000e+02
1.000000e+02
1.000000e+02
1.000000e+02
0.000000e+00
-7.178574e-02
-1.321803e-01
-1.877511e-01
-2.395031e-01
-2.873272e-01
-3.311206e-01
-3.708495e-01
-4.065715e-01
-4.384514e-01
-4.668049e-01
-4.921865e-01
-5.155492e-01
-5.385401e-01
-5.639996e-01
-5.952670e-01
-6.187298e-01
0.000000e+00
-4.286914e-02
-8.905230e-02
-1.316995e-01
-1.709908e-01
-2.070754e-01
-2.400283e-01
-2.698935e-01
-2.967250e-01
-3.206052e-01
-3.416556e-01
-3.600277e-01
-3.758388e-01
-3.889261e-01
-3.981573e-01
-4.001806e-01
-4.074347e-01
0.000000e+00
-2.680912e-02
-5.512626e-02
-8.337682e-02
-1.097479e-01
-1.339602e-01
-1.559942e-01
-1.758747e-01
-1.936067e-01
-2.091606e-01
-2.224527e-01
-2.332972e-01
-2.413076e-01
-2.457792e-01
-2.459033e-01
-2.441170e-01
-2.515156e-01
0.000000e+00
-1.293973e-02
-2.663818e-02
-4.042315e-02
-5.360409e-02
-6.574456e-02
-7.674873e-02
-8.658451e-02
-9.519563e-02
-1.024700e-01
-1.082218e-01
-1.121794e-01
-1.140189e-01
-1.135891e-01
-1.118235e-01
-1.123063e-01
-1.178154e-01
0.000000e+00
-1.192024e-05
-2.709842e-05
-4.222679e-05
-5.025583e-05
-3.546547e-05
3.334668e-05
2.121695e-04
5.928604e-04
1.312246e-03
2.548836e-03
4.481958e-03
7.160069e-03
1.018647e-02
1.227702e-02
1.170365e-02
8.056178e-03
0.000000e+00
1.292139e-02
2.659560e-02
4.035504e-02
5.351937e-02
6.567566e-02
7.677545e-02
8.687304e-02
9.605596e-02
1.044307e-01
1.121068e-01
1.191409e-01
1.254110e-01
1.304389e-01
1.333965e-01
1.336311e-01
1.317798e-01
0.000000e+00
2.680611e-02
5.511709e-02
8.335857e-02
1.097194e-01
1.339247e-01
1.559648e-01
1.758843e-01
1.937246e-01
2.095173e-01
2.232763e-01
2.349678e-01
2.444575e-01
2.514735e-01
2.556847e-01
2.570520e-01
2.566203e-01
0.000000e+00
4.288673e-02
8.909054e-02
1.317605e-01
1.710725e-01
2.071629e-01
2.400774e-01
2.698037e-01
2.962967e-01
3.194797e-01
3.392428e-01
3.554493e-01
3.679696e-01
3.767624e-01
3.820074e-01
3.842441e-01
3.846549e-01
0.000000e+00
7.181514e-02
1.322579e-01
1.878964e-01
2.397353e-01
2.876537e-01
3.315101e-01
3.711770e-01
4.065217e-01
4.373605e-01
4.634260e-01
4.843707e-01
4.998506e-01
5.097439e-01
5.145284e-01
5.157094e-01
5.156866e-01
0.000000e+00
-4.345389e-02
-8.530508e-02
-1.395345e-01
-2.060898e-01
-2.848467e-01
-3.749425e-01
-4.753689e-01
-5.850582e-01
-7.029566e-01
-8.280906e-01
-9.596857e-01
-1.097425e+00
-1.242043e+00
-1.397291e+00
-1.574925e+00
-1.830152e+00
0.000000e+00
-2.675102e-02
-7.040867e-02
-1.253105e-01
-1.929536e-01
-2.727852e-01
-3.639725e-01
-4.654825e-01
-5.762348e-01
-6.951569e-01
-8.212484e-01
-9.536991e-01
-1.092142e+00
-1.237295e+00
-1.392483e+00
-1.569039e+00
-1.785337e+00
0.000000e+00
-2.018603e-02
-6.008175e-02
-1.151862e-01
-1.834688e-01
-2.641222e-01
-3.561476e-01
-4.585022e-01
-5.701130e-01
-6.899227e-01
-8.169502e-01
-9.504131e-01
-1.089980e+00
-1.236248e+00
-1.391570e+00
-1.558862e+00
-1.720766e+00
0.000000e+00
-1.739490e-02
-5.494726e-02
-1.092436e-01
-1.777730e-01
-2.589228e-01
-3.515219e-01
-4.544879e-01
-5.667679e-01
-6.873333e-01
-8.152242e-01
-9.496431e-01
-1.090101e+00
-1.236531e+00
-1.388745e+00
-1.542463e+00
-1.684073e+00
0.000000e+00
-1.659084e-02
-5.339332e-02
-1.073478e-01
-1.758959e-01
-2.572476e-01
-3.501130e-01
-4.534104e-01
-5.661072e-01
-6.871914e-01
-8.156818e-01
-9.506546e-01
-1.091237e+00
-1.236393e+00
-1.383949e+00
-1.528860e+00
-1.662358e+00
0.000000e+00
-1.738458e-02
-5.493991e-02
-1.092566e-01
-1.778373e-01
-2.590920e-01
-3.518839e-01
-4.551734e-01
-5.679499e-01
-6.891962e-01
-8.178679e-01
-9.528470e-01
-1.092828e+00
-1.236029e+00
-1.379700e+00
-1.519641e+00
-1.650290e+00
0.000000e+00
-2.016919e-02
-6.006957e-02
-1.152080e-01
-1.835771e-01
-2.644084e-01
-3.567613e-01
-4.596662e-01
-5.721226e-01
-6.930961e-01
-8.214714e-01
-9.559592e-01
-1.094939e+00
-1.236264e+00
-1.377149e+00
-1.514405e+00
-1.644967e+00
0.000000e+00
-2.673523e-02
-7.039807e-02
-1.253395e-01
-1.930836e-01
-2.731219e-01
-3.646869e-01
-4.668279e-01
-5.785433e-01
-6.987798e-01
-8.263765e-01
-9.599519e-01
-1.097748e+00
-1.237499e+00
-1.376511e+00
-1.512240e+00
-1.643718e+00
0.000000e+00
-4.344737e-02
-8.530599e-02
-1.395793e-01
-2.062405e-01
-2.852064e-01
-3.756734e-01
-4.767026e-01
-5.872817e-01
-7.063388e-01
-8.326853e-01
-9.649090e-01
-1.101239e+00
-1.239462e+00
-1.377053e+00
-1.511844e+00
-1.643737e+00


0.000000e+00
9.359670e-08
1.875444e-07
2.747912e-07
3.566058e-07
4.325262e-07
5.022351e-07
5.657149e-07
6.230949e-07
6.746176e-07
7.206258e-07
7.615008e-07
7.974664e-07
8.282411e-07
8.534303e-07
8.749573e-07
8.941139e-07
0.000000e+00
5.264773e-08
1.281076e-07
1.959544e-07
2.581565e-07
3.154885e-07
3.678999e-07
4.153928e-07
4.580068e-07
4.957737e-07
5.286833e-07
5.566395e-07
5.795013e-07
5.977396e-07
6.143987e-07
6.341744e-07
6.545310e-07
0.000000e+00
3.317886e-08
8.096683e-08
1.257999e-07
1.675901e-07
2.060221e-07
2.409460e-07
2.723213e-07
3.001013e-07
3.241936e-07
3.444610e-07
3.608061e-07
3.734854e-07
3.838011e-07
3.946823e-07
4.093869e-07
4.263787e-07
0.000000e+00
1.620992e-08
3.881642e-08
6.077365e-08
8.167088e-08
1.008666e-07
1.181540e-07
1.334550e-07
1.466803e-07
1.577156e-07
1.664654e-07
1.729818e-07
1.777057e-07
1.817509e-07
1.869631e-07
1.955339e-07
2.073299e-07
0.000000e+00
1.691573e-11
2.091673e-11
-9.058151e-12
-1.017913e-10
-3.032015e-10
-6.806145e-10
-1.323625e-09
-2.336187e-09
-3.810758e-09
-5.771615e-09
-8.080125e-09
-1.032385e-08
-1.174685e-08
-1.118515e-08
-7.150989e-09
5.975046e-10
0.000000e+00
-1.617830e-08
-3.877402e-08
-6.077549e-08
-8.181919e-08
-1.013405e-07
-1.192475e-07
-1.356173e-07
-1.505452e-07
-1.640904e-07
-1.762265e-07
-1.867882e-07
-1.954380e-07
-2.016717e-07
-2.048660e-07
-2.042566e-07
-2.000125e-07
0.000000e+00
-3.315895e-08
-8.093744e-08
-1.257824e-07
-1.676252e-07
-2.061864e-07
-2.413733e-07
-2.732263e-07
-3.018020e-07
-3.271188e-07
-3.491158e-07
-3.676196e-07
-3.823375e-07
-3.929253e-07
-3.992081e-07
-4.013004e-07
-4.000473e-07
0.000000e+00
-5.266774e-08
-1.281475e-07
-1.959906e-07
-2.581501e-07
-3.153730e-07
-3.675662e-07
-4.146723e-07
-4.566554e-07
-4.934634e-07
-5.250137e-07
-5.511826e-07
-5.718085e-07
-5.867549e-07
-5.961543e-07
-6.007754e-07
-6.018918e-07
0.000000e+00
-9.370725e-08
-1.877403e-07
-2.750335e-07
-3.568129e-07
-4.325280e-07
-5.017097e-07
-5.641054e-07
-6.195129e-07
-6.677474e-07
-7.086636e-07
-7.421976e-07
-7.684076e-07
-7.875102e-07
-7.999522e-07
-8.063839e-07
-8.084497e-07
0.000000e+00
8.473180e-08
1.652927e-07
2.556893e-07
3.635041e-07
4.898494e-07
6.338964e-07
7.943129e-07
9.695642e-07
1.158161e-06
1.358825e-06
1.570773e-06
1.794430e-06
2.033011e-06
2.292408e-06
2.567946e-06
2.841323e-06
0.000000e+00
5.125341e-08
1.295520e-07
2.206584e-07
3.305731e-07
4.594589e-07
6.062331e-07
7.693900e-07
9.473555e-07
1.138619e-06
1.341880e-06
1.556294e-06
1.781880e-06
2.020051e-06
2.273135e-06
2.541685e-06
2.811462e-06
0.000000e+00
3.264551e-08
1.009001e-07
1.919076e-07
3.034070e-07
4.344947e-07
5.836420e-07
7.492257e-07
9.296444e-07
1.123381e-06
1.329091e-06
1.545718e-06
1.772538e-06
2.008884e-06
2.254367e-06
2.513111e-06
2.774194e-06
0.000000e+00
2.395197e-08
8.582750e-08
1.751432e-07
2.873734e-07
4.198255e-07
5.705176e-07
7.377235e-07
9.198200e-07
1.115262e-06
1.322595e-06
1.540434e-06
1.767319e-06
2.001423e-06
2.241281e-06
2.490048e-06
2.738129e-06
0.000000e+00
2.145371e-08
8.125751e-08
1.697504e-07
2.821780e-07
4.151764e-07
5.665351e-07
7.344815e-07
9.173718e-07
1.113603e-06
1.321571e-06
1.539582e-06
1.765687e-06
1.997469e-06
2.232548e-06
2.472389e-06
2.707680e-06
0.000000e+00
2.397132e-08
8.590006e-08
1.753226e-07
2.877301e-07
4.204550e-07
5.715393e-07
7.392633e-07
9.219657e-07
1.117971e-06
1.325530e-06
1.542723e-06
1.767320e-06
1.996568e-06
2.227494e-06
2.459883e-06
2.685845e-06
0.000000e+00
3.267673e-08
1.010266e-07
1.922220e-07
3.040324e-07
4.356000e-07
5.854381e-07
7.519352e-07
9.334236e-07
1.128157e-06
1.334263e-06
1.549669e-06
1.771988e-06
1.998348e-06
2.225575e-06
2.452389e-06
2.672543e-06
0.000000e+00
5.129304e-08
1.297124e-07
2.210457e-07
3.313364e-07
4.608009e-07
6.084048e-07
7.726506e-07
9.518736e-07
1.144270e-06
1.347871e-06
1.560493e-06
1.779664e-06
2.002562e-06
2.226264e-06
2.449020e-06
2.666193e-06
0.000000e+00
8.479747e-08
1.654802e-07
2.561071e-07
3.642988e-07
4.912149e-07
6.360615e-07
7.974943e-07
9.738540e-07
1.163307e-06
1.363837e-06
1.573203e-06
1.788909e-06
2.008249e-06
2.228647e-06
2.448471e-06
2.664341e-06


2.097513e-01
2.097512e-01
2.097514e-01
2.097518e-01
2.097522e-01
2.097525e-01
2.097528e-01
2.097531e-01
2.097534e-01
2.097536e-01
2.097537e-01
2.097539e-01
2.097540e-01
2.097539e-01
2.097537e-01
2.097535e-01
2.097519e-01
2.097519e-01
2.097520e-01
2.097523e-01
2.097526e-01
2.097528e-01
2.097531e-01
2.097533e-01
2.097535e-01
2.097537e-01
2.097538e-01
2.097539e-01
2.097540e-01
2.097539e-01
2.097537e-01
2.097535e-01
2.097530e-01
2.097529e-01
2.097529e-01
2.097530e-01
2.097532e-01
2.097533e-01
2.097535e-01
2.097536e-01
2.097537e-01
2.097538e-01
2.097539e-01
2.097540e-01
2.097540e-01
2.097539e-01
2.097537e-01
2.097536e-01
2.097537e-01
2.097536e-01
2.097536e-01
2.097536e-01
2.097536e-01
2.097537e-01
2.097538e-01
2.097538e-01
2.097539e-01
2.097539e-01
2.097540e-01
2.097540e-01
2.097540e-01
2.097539e-01
2.097538e-01
2.097538e-01
2.097537e-01
2.097536e-01
2.097536e-01
2.097536e-01
2.097536e-01
2.097537e-01
2.097538e-01
2.097538e-01
2.097539e-01
2.097539e-01
2.097539e-01
2.097539e-01
2.097540e-01
2.097540e-01
2.097540e-01
2.097540e-01
2.097530e-01
2.097529e-01
2.097529e-01
2.097530e-01
2.097532e-01
2.097533e-01
2.097535e-01
2.097536e-01
2.097537e-01
2.097538e-01
2.097539e-01
2.097539e-01
2.097540e-01
2.097540e-01
2.097541e-01
2.097541e-01
2.097519e-01
2.097519e-01
2.097520e-01
2.097523e-01
2.097526e-01
2.097528e-01
2.097531e-01
2.097533e-01
2.097535e-01
2.097536e-01
2.097538e-01
2.097539e-01
2.097540e-01
2.097541e-01
2.097542e-01
2.097542e-01
2.097513e-01
2.097512e-01
2.097514e-01
2.097518e-01
2.097522e-01
2.097525e-01
2.097529e-01
2.097531e-01
2.097534e-01
2.097536e-01
2.097538e-01
2.097539e-01
2.097541e-01
2.097542e-01
2.097542e-01
2.097543e-01


9.884062e-01
9.900503e-01
9.915712e-01
9.927419e-01
9.938287e-01
9.948307e-01
9.957437e-01
9.965568e-01
9.972616e-01
9.978510e-01
9.983197e-01
9.986631e-01
9.988765e-01
9.989526e-01
9.990076e-01
9.956193e-01
9.956138e-01
9.948604e-01
9.953452e-01
9.959778e-01
9.965676e-01
9.971037e-01
9.975890e-01
9.980285e-01
9.984265e-01
9.987870e-01
9.991141e-01
9.994103e-01
9.996687e-01
9.998379e-01
9.994100e-01
9.936100e-01
9.984760e-01
9.980433e-01
9.979265e-01
9.980908e-01
9.983069e-01
9.985163e-01
9.987107e-01
9.988944e-01
9.990723e-01
9.992458e-01
9.994079e-01
9.995333e-01
9.995595e-01
9.993336e-01
9.985140e-01
9.970401e-01
9.996898e-01
9.993742e-01
9.991793e-01
9.991298e-01
9.991496e-01
9.991827e-01
9.992158e-01
9.992481e-01
9.992799e-01
9.993064e-01
9.993138e-01
9.992743e-01
9.991490e-01
9.989241e-01
9.987334e-01
9.986851e-01
9.996910e-01
9.993759e-01
9.991807e-01
9.991295e-01
9.991446e-01
9.991685e-01
9.991851e-01
9.991907e-01
9.991831e-01
9.991587e-01
9.991132e-01
9.990476e-01
9.989852e-01
9.989976e-01
9.991741e-01
9.994796e-01
9.984782e-01
9.980466e-01
9.979296e-01
9.980908e-01
9.982985e-01
9.984904e-01
9.986527e-01
9.987832e-01
9.988809e-01
9.989468e-01
9.989884e-01
9.990290e-01
9.991145e-01
9.992936e-01
9.995627e-01
9.998410e-01
9.956134e-01
9.948601e-01
9.953445e-01
9.959760e-01
9.965630e-01
9.970932e-01
9.975671e-01
9.979868e-01
9.983525e-01
9.986651e-01
9.989297e-01
9.991609e-01
9.993834e-01
9.996167e-01
9.998349e-01
9.999724e-01
9.883983e-01
9.900379e-01
9.915560e-01
9.927249e-01
9.938134e-01
9.948252e-01
9.957626e-01
9.966233e-01
9.974075e-01
9.981138e-01
9.987337e-01
9.992479e-01
9.996304e-01
9.998665e-01
9.999738e-01
9.999994e-01
1 2 19 18
2 3 20 19
3 4 21 20
4 5 22 21
5 6 23 22
6 7 24 23
7 8 25 24
8 9 26 25
9 10 27 26
10 11 28 27
11 12 29 28
12 13 30 29
13 14 31 30
14 15 32 31
15 16 33 32
16 17 34 33
18 19 36 35
19 20 37 36
20 21 38 37
21 22 39 38
22 23 40 39
23 24 41 40
24 25 42 41
25 26 43 42
26 27 44 43
27 28 45 44
28 29 46 45
29 30 47 46
30 31 48 47
31 32 49 48
32 33 50 49
33 34 51 50
35 36 53 52
36 37 54 53
37 38 55 54
38 39 56 55
39 40 57 56
40 41 58 57
41 42 59 58
42 43 60 59
43 44 61 60
44 45 62 61
45 46 63 62
46 47 64 63
47 48 65 64
48 49 66 65
49 50 67 66
50 51 68 67
52 53 70 69
53 54 71 70
54 55 72 71
55 56 73 72
56 57 74 73
57 58 75 74
58 59 76 75
59 60 77 76
60 61 78 77
61 62 79 78
62 63 80 79
63 64 81 80
64 65 82 81
65 66 83 82
66 67 84 83
67 68 85 84
69 70 87 86
70 71 88 87
71 72 89 88
72 73 90 89
73 74 91 90
74 75 92 91
75 76 93 92
76 77 94 93
77 78 95 94
78 79 96 95
79 80 97 96
80 81 98 97
81 82 99 98
82 83 100 99
83 84 101 100
84 85 102 101
86 87 104 103
87 88 105 104
88 89 106 105
89 90 107 106
90 91 108 107
91 92 109 108
92 93 110 109
93 94 111 110
94 95 112 111
95 96 113 112
96 97 114 113
97 98 115 114
98 99 116 115
99 100 117 116
100 101 118 117
101 102 119 118
103 104 121 120
104 105 122 121
105 106 123 122
106 107 124 123
107 108 125 124
108 109 126 125
109 110 127 126
110 111 128 127
111 112 129 128
112 113 130 129
113 114 131 130
114 115 132 131
115 116 133 132
116 117 134 133
117 118 135 134
118 119 136 135
120 121 138 137
121 122 139 138
122 123 140 139
123 124 141 140
124 125 142 141
125 126 143 142
126 127 144 143
127 128 145 144
128 129 146 145
129 130 147 146
130 131 148 147
131 132 149 148
132 133 150 149
133 134 151 150
134 135 152 151
135 136 153 152
