TITLE = "Solution"
VARIABLES = x, y, u, v, psiu, psiv, t, stress
ZONE T="structure" N=153 E=128 F=FEBLOCK ET=QUADRILATERAL VARLOCATION=([7,8]=cellcentered)
0.000000e+00
1.250000e+01
2.500000e+01
3.750000e+01
5.000000e+01
6.250000e+01
7.500000e+01
8.750000e+01
1.000000e+02
1.125000e+02
1.250000e+02
1.375000e+02
1.500000e+02
1.625000e+02
1.750000e+02
1.875000e+02
2.000000e+02
0.000000e+00
1.250000e+01
2.500000e+01
3.750000e+01
5.000000e+01
6.250000e+01
7.500000e+01
8.750000e+01
1.000000e+02
1.125000e+02
1.250000e+02
1.375000e+02
1.500000e+02
1.625000e+02
1.750000e+02
1.875000e+02
2.000000e+02
0.000000e+00
1.250000e+01
2.500000e+01
3.750000e+01
5.000000e+01
6.250000e+01
7.500000e+01
8.750000e+01
1.000000e+02
1.125000e+02
1.250000e+02
1.375000e+02
1.500000e+02
1.625000e+02
1.750000e+02
1.875000e+02
2.000000e+02
0.000000e+00
1.250000e+01
2.500000e+01
3.750000e+01
5.000000e+01
6.250000e+01
7.500000e+01
8.750000e+01
1.000000e+02
1.125000e+02
1.250000e+02
1.375000e+02
1.500000e+02
1.625000e+02
1.750000e+02
1.875000e+02
2.000000e+02
0.000000e+00
1.250000e+01
2.500000e+01
3.750000e+01
5.000000e+01
6.250000e+01
7.500000e+01
8.750000e+01
1.000000e+02
1.125000e+02
1.250000e+02
1.375000e+02
1.500000e+02
1.625000e+02
1.750000e+02
1.875000e+02
2.000000e+02
0.000000e+00
1.250000e+01
2.500000e+01
3.750000e+01
5.000000e+01
6.250000e+01
7.500000e+01
8.750000e+01
1.000000e+02
1.125000e+02
1.250000e+02
1.375000e+02
1.500000e+02
1.625000e+02
1.750000e+02
1.875000e+02
2.000000e+02
0.000000e+00
1.250000e+01
2.500000e+01
3.750000e+01
5.000000e+01
6.250000e+01
7.500000e+01
8.750000e+01
1.000000e+02
1.125000e+02
1.250000e+02
1.375000e+02
1.500000e+02
1.625000e+02
1.750000e+02
1.875000e+02
2.000000e+02
0.000000e+00
1.250000e+01
2.500000e+01
3.750000e+01
5.000000e+01
6.250000e+01
7.500000e+01
8.750000e+01
1.000000e+02
1.125000e+02
1.250000e+02
1.375000e+02
1.500000e+02
1.625000e+02
1.750000e+02
1.875000e+02
2.000000e+02
0.000000e+00
1.250000e+01
2.500000e+01
3.750000e+01
5.000000e+01
6.250000e+01
7.500000e+01
8.750000e+01
1.000000e+02
1.125000e+02
1.250000e+02
1.375000e+02
1.500000e+02
1.625000e+02
1.750000e+02
1.875000e+02
2.000000e+02
0.000000e+00
0.000000e+00
0.000000e+00
0.000000e+00
0.000000e+00
0.000000e+00
0.000000e+00
0.000000e+00
0.000000e+00
0.000000e+00
0.000000e+00
0.000000e+00
0.000000e+00
0.000000e+00
0.000000e+00
0.000000e+00
0.000000e+00
1.250000e+01
1.250000e+01
1.250000e+01
1.250000e+01
1.250000e+01
1.250000e+01
1.250000e+01
1.250000e+01
1.250000e+01
1.250000e+01
1.250000e+01
1.250000e+01
1.250000e+01
1.250000e+01
1.250000e+01
1.250000e+01
1.250000e+01
2.500000e+01
2.500000e+01
2.500000e+01
2.500000e+01
2.500000e+01
2.500000e+01
2.500000e+01
2.500000e+01
2.500000e+01
2.500000e+01
2.500000e+01
2.500000e+01
2.500000e+01
2.500000e+01
2.500000e+01
2.500000e+01
2.500000e+01
3.750000e+01
3.750000e+01
3.750000e+01
3.750000e+01
3.750000e+01
3.750000e+01
3.750000e+01
3.750000e+01
3.750000e+01
3.750000e+01
3.750000e+01
3.750000e+01
3.750000e+01
3.750000e+01
3.750000e+01
3.750000e+01
3.750000e+01
5.000000e+01
5.000000e+01
5.000000e+01
5.000000e+01
5.000000e+01
5.000000e+01
5.000000e+01
5.000000e+01
5.000000e+01
5.000000e+01
5.000000e+01
5.000000e+01
5.000000e+01
5.000000e+01
5.000000e+01
5.000000e+01
5.000000e+01
6.250000e+01
6.250000e+01
6.250000e+01
6.250000e+01
6.250000e+01
6.250000e+01
6.250000e+01
6.250000e+01
6.250000e+01
6.250000e+01
6.250000e+01
6.250000e+01
6.250000e+01
6.250000e+01
6.250000e+01
6.250000e+01
6.250000e+01
7.500000e+01
7.500000e+01
7.500000e+01
7.500000e+01
7.500000e+01
7.500000e+01
7.500000e+01
7.500000e+01
7.500000e+01
7.500000e+01
7.500000e+01
7.500000e+01
7.500000e+01
7.500000e+01
7.500000e+01
7.500000e+01
7.500000e+01
8.750000e+01
8.750000e+01
8.750000e+01
8.750000e+01
8.750000e+01
8.750000e+01
8.750000e+01
8.750000e+01
8.750000e+01
8.750000e+01
8.750000e+01
8.750000e+01
8.750000e+01
8.750000e+01
8.750000e+01
8.750000e+01
8.750000e+01
1.000000e+02
1.000000e+02
1.000000e+02
1.000000e+02
1.000000e+02
1.000000e+02
1.000000e+02
1.000000e+02
1.000000e+02
1.000000e+02
1.000000e+02
1.000000e+02
1.000000e+02
1.000000e+02
1.000000e+02
1.000000e+02
1.000000e+02
0.000000e+00
-7.956943e-01
-1.440414e+00
-2.058509e+00
-2.688981e+00
-3.307352e+00
-3.909137e+00
-4.501422e+00
-5.084323e+00
-5.649654e+00
-6.189843e+00
-6.704772e+00
-7.202204e+00
-7.695779e+00
-8.202251e+00
-8.751040e+00
-9.134395e+00
0.000000e+00
-4.413328e-01
-9.141913e-01
-1.376096e+00
-1.848772e+00
-2.312396e+00
-2.762014e+00
-3.203355e+00
-3.637155e+00
-4.056885e+00
-4.454910e+00
-4.826561e+00
-5.166807e+00
-5.458815e+00
-5.657623e+00
-5.701884e+00
-5.828860e+00
0.000000e+00
-2.469138e-01
-5.180337e-01
-8.194368e-01
-1.133671e+00
-1.443448e+00
-1.745086e+00
-2.040341e+00
-2.327684e+00
-2.601099e+00
-2.852683e+00
-3.073008e+00
-3.247558e+00
-3.352824e+00
-3.365370e+00
-3.337379e+00
-3.469733e+00
0.000000e+00
-1.066600e-01
-2.298185e-01
-3.746322e-01
-5.305177e-01
-6.860359e-01
-8.382691e-01
-9.860174e-01
-1.126371e+00
-1.254195e+00
-1.362421e+00
-1.441555e+00
-1.480117e+00
-1.470639e+00
-1.431924e+00
-1.438232e+00
-1.543200e+00
0.000000e+00
-8.915104e-04
-1.817825e-03
-2.669086e-03
-3.255398e-03
-3.247519e-03
-2.041022e-03
1.485191e-03
9.289468e-03
2.447115e-02
5.136708e-02
9.474175e-02
1.565678e-01
2.284020e-01
2.810213e-01
2.753575e-01
2.011291e-01
0.000000e+00
1.051461e-01
2.266964e-01
3.699505e-01
5.247126e-01
6.801893e-01
8.344017e-01
9.878284e-01
1.140589e+00
1.292426e+00
1.443090e+00
1.590961e+00
1.730005e+00
1.846153e+00
1.917715e+00
1.927512e+00
1.888106e+00
0.000000e+00
2.459430e-01
5.159240e-01
8.160777e-01
1.129301e+00
1.438697e+00
1.740783e+00
2.037679e+00
2.328791e+00
2.609656e+00
2.874029e+00
3.114145e+00
3.319469e+00
3.476969e+00
3.574060e+00
3.606760e+00
3.597495e+00
0.000000e+00
4.408451e-01
9.130263e-01
1.374212e+00
1.846360e+00
2.309576e+00
2.758234e+00
3.197042e+00
3.625345e+00
4.034021e+00
4.409822e+00
4.738429e+00
5.005479e+00
5.199832e+00
5.318480e+00
5.369822e+00
5.379349e+00
0.000000e+00
7.953454e-01
1.440012e+00
2.058354e+00
2.689627e+00
3.309079e+00
3.911250e+00
4.501730e+00
5.077876e+00
5.625317e+00
6.123329e+00
6.548796e+00
6.878581e+00
7.096459e+00
7.204092e+00
7.230900e+00
7.230295e+00
0.000000e+00
-4.884544e-01
-1.001097e+00
-1.680112e+00
-2.515548e+00
-3.504690e+00
-4.649854e+00
-5.952136e+00
-7.408228e+00
-9.011640e+00
-1.075505e+01
-1.263221e+01
-1.464052e+01
-1.678832e+01
-1.913268e+01
-2.186781e+01
-2.590390e+01
0.000000e+00
-3.073889e-01
-8.431266e-01
-1.516889e+00
-2.352131e+00
-3.345217e+00
-4.493958e+00
-5.798844e+00
-7.258869e+00
-8.868796e+00
-1.062056e+01
-1.250676e+01
-1.452490e+01
-1.668730e+01
-1.904413e+01
-2.177177e+01
-2.514695e+01
0.000000e+00
-2.473193e-01
-7.374918e-01
-1.405261e+00
-2.238256e+00
-3.232819e+00
-4.384123e+00
-5.692256e+00
-7.157144e+00
-8.774462e+00
-1.053674e+01
-1.243728e+01
-1.447528e+01
-1.666302e+01
-1.903059e+01
-2.160103e+01
-2.404875e+01
0.000000e+00
-2.376718e-01
-6.937065e-01
-1.344400e+00
-2.173403e+00
-3.167404e+00
-4.320609e+00
-5.632763e+00
-7.103802e+00
-8.729975e+00
-1.050485e+01
-1.242188e+01
-1.447687e+01
-1.666838e+01
-1.897937e+01
-2.130657e+01
-2.338164e+01
0.000000e+00
-2.398186e-01
-6.838931e-01
-1.327119e+00
-2.153340e+00
-3.147613e+00
-4.302895e+00
-5.619050e+00
-7.096081e+00
-8.730684e+00
-1.051651e+01
-1.244445e+01
-1.450141e+01
-1.666514e+01
-1.888233e+01
-2.103879e+01
-2.294594e+01
0.000000e+00
-2.374411e-01
-6.936560e-01
-1.344927e+00
-2.175234e+00
-3.171772e+00
-4.329247e+00
-5.648022e+00
-7.128903e+00
-8.768857e+00
-1.056030e+01
-1.248980e+01
-1.453448e+01
-1.665599e+01
-1.879084e+01
-2.084315e+01
-2.268600e+01
0.000000e+00
-2.469306e-01
-7.373268e-01
-1.406022e+00
-2.241206e+00
-3.239987e+00
-4.398349e+00
-5.717490e+00
-7.198882e+00
-8.839403e+00
-1.062973e+01
-1.255243e+01
-1.457770e+01
-1.665927e+01
-1.873358e+01
-2.072681e+01
-2.256694e+01
0.000000e+00
-3.069109e-01
-8.427918e-01
-1.517624e+00
-2.355449e+00
-3.353403e+00
-4.510163e+00
-5.827516e+00
-7.306224e+00
-8.942139e+00
-1.072448e+01
-1.263355e+01
-1.463663e+01
-1.668526e+01
-1.871850e+01
-2.067745e+01
-2.253855e+01
0.000000e+00
-4.878971e-01
-1.000692e+00
-1.680879e+00
-2.519071e+00
-3.513160e+00
-4.666210e+00
-5.980513e+00
-7.454173e+00
-9.080768e+00
-1.084831e+01
-1.273628e+01
-1.471188e+01
-1.672862e+01
-1.873060e+01
-2.066827e+01
-2.253908e+01


0.000000e+00
1.300457e-05
2.677034e-05
4.000851e-05
5.291915e-05
6.526475e-05
7.709805e-05
8.836568e-05
9.879171e-05
1.082284e-04
1.166647e-04
1.237654e-04
1.291561e-04
1.331263e-04
1.361752e-04
1.392398e-04
1.427649e-04
0.000000e+00
9.123701e-06
2.107827e-05
3.140746e-05
4.109355e-05
5.028922e-05
5.908975e-05
6.737936e-05
7.486724e-05
8.151144e-05
8.735628e-05
9.197181e-05
9.480770e-05
9.595799e-05
9.661789e-05
9.902861e-05
1.028858e-04
0.000000e+00
6.859028e-06
1.472725e-05
2.166772e-05
2.819448e-05
3.429378e-05
4.002214e-05
4.527005e-05
4.989910e-05
5.391312e-05
5.724807e-05
5.955069e-05
6.056135e-05
6.066832e-05
6.101369e-05
6.314140e-05
6.676489e-05
0.000000e+00
3.416627e-06
6.814137e-06
1.039313e-05
1.377521e-05
1.685583e-05
1.963550e-05
2.208560e-05
2.418196e-05
2.588865e-05
2.710244e-05
2.770390e-05
2.779641e-05
2.783769e-05
2.838669e-05
3.002626e-05
3.270840e-05
0.000000e+00
5.298089e-08
9.876362e-08
1.301041e-07
1.316550e-07
9.178476e-08
4.350651e-09
-1.458799e-07
-3.910226e-07
-7.731257e-07
-1.310541e-06
-1.936725e-06
-2.454247e-06
-2.591631e-06
-2.226960e-06
-1.331834e-06
2.026956e-07
0.000000e+00
-3.291790e-06
-6.592314e-06
-1.009548e-05
-1.345238e-05
-1.657781e-05
-1.948542e-05
-2.216916e-05
-2.463596e-05
-2.689294e-05
-2.888933e-05
-3.049007e-05
-3.158094e-05
-3.215759e-05
-3.235480e-05
-3.221817e-05
-3.158540e-05
0.000000e+00
-6.678978e-06
-1.439120e-05
-2.124509e-05
-2.772487e-05
-3.381543e-05
-3.958468e-05
-4.494318e-05
-4.972829e-05
-5.385871e-05
-5.727279e-05
-5.983994e-05
-6.154119e-05
-6.258707e-05
-6.321436e-05
-6.347377e-05
-6.333313e-05
0.000000e+00
-8.922233e-06
-2.066902e-05
-3.088701e-05
-4.050589e-05
-4.965050e-05
-5.841655e-05
-6.671180e-05
-7.419583e-05
-8.061193e-05
-8.585935e-05
-8.980580e-05
-9.244671e-05
-9.408705e-05
-9.505767e-05
-9.551595e-05
-9.559504e-05
0.000000e+00
-1.282446e-05
-2.640242e-05
-3.950783e-05
-5.231977e-05
-6.457543e-05
-7.631454e-05
-8.749158e-05
-9.777537e-05
-1.067925e-04
-1.143067e-04
-1.200870e-04
-1.240779e-04
-1.265671e-04
-1.279109e-04
-1.284208e-04
-1.285078e-04
0.000000e+00
1.180786e-05
2.141599e-05
3.247290e-05
4.642153e-05
6.341412e-05
8.348197e-05
1.064336e-04
1.321039e-04
1.604347e-04
1.911104e-04
2.235403e-04
2.575628e-04
2.939446e-04
3.349315e-04
3.813128e-04
4.285512e-04
0.000000e+00
6.165019e-06
1.557773e-05
2.670983e-05
4.082981e-05
5.805223e-05
7.837101e-05
1.016846e-04
1.278405e-04
1.566798e-04
1.879449e-04
2.211871e-04
2.560826e-04
2.928854e-04
3.324191e-04
3.765532e-04
4.224523e-04
0.000000e+00
2.746577e-06
1.098917e-05
2.243688e-05
3.676703e-05
5.420086e-05
7.475336e-05
9.836951e-05
1.248756e-04
1.540907e-04
1.858303e-04
2.197084e-04
2.552543e-04
2.920650e-04
3.295959e-04
3.707487e-04
4.143378e-04
0.000000e+00
1.594236e-06
9.010325e-06
2.042282e-05
3.491846e-05
5.248245e-05
7.318582e-05
9.695280e-05
1.235998e-04
1.529928e-04
1.849689e-04
2.191030e-04
2.547827e-04
2.912077e-04
3.273872e-04
3.657562e-04
4.061608e-04
0.000000e+00
1.404620e-06
8.518509e-06
1.980136e-05
3.436370e-05
5.198667e-05
7.275551e-05
9.658804e-05
1.233119e-04
1.528095e-04
1.848841e-04
2.190418e-04
2.545695e-04
2.905847e-04
3.261200e-04
3.625401e-04
3.996868e-04
0.000000e+00
1.615668e-06
9.010495e-06
2.040781e-05
3.491178e-05
5.249592e-05
7.322787e-05
9.705653e-05
1.238310e-04
1.533971e-04
1.854998e-04
2.195775e-04
2.548409e-04
2.904442e-04
3.256951e-04
3.609493e-04
3.957362e-04
0.000000e+00
2.759036e-06
1.096572e-05
2.240028e-05
3.675078e-05
5.422450e-05
7.483730e-05
9.857109e-05
1.253029e-04
1.548330e-04
1.868345e-04
2.206822e-04
2.555580e-04
2.907289e-04
3.256581e-04
3.602093e-04
3.938676e-04
0.000000e+00
6.108209e-06
1.548802e-05
2.663667e-05
4.079525e-05
5.807629e-05
7.848638e-05
1.019573e-04
1.283580e-04
1.574958e-04
1.890240e-04
2.222998e-04
2.565625e-04
2.912234e-04
3.257960e-04
3.599120e-04
3.932606e-04
0.000000e+00
1.164716e-05
2.124476e-05
3.234836e-05
4.635598e-05
6.342108e-05
8.359975e-05
1.067255e-04
1.325904e-04
1.610522e-04
1.918096e-04
2.242478e-04
2.577430e-04
2.918403e-04
3.260403e-04
3.598826e-04
3.931717e-04


2.073315e+00
2.005683e+00
2.128981e+00
2.357691e+00
2.522221e+00
2.707406e+00
2.967846e+00
3.275393e+00
3.582314e+00
3.874553e+00
4.165075e+00
4.438685e+00
4.588526e+00
4.399157e+00
3.906697e+00
3.534177e+00
2.686986e+00
2.624529e+00
2.707302e+00
2.867061e+00
2.969777e+00
3.099580e+00
3.307666e+00
3.562526e+00
3.819876e+00
4.069100e+00
4.317407e+00
4.539641e+00
4.632025e+00
4.396308e+00
3.899046e+00
3.534816e+00
3.710007e+00
3.667252e+00
3.703799e+00
3.760799e+00
3.768900e+00
3.810819e+00
3.923883e+00
4.078573e+00
4.239977e+00
4.400197e+00
4.555813e+00
4.677064e+00
4.688584e+00
4.457579e+00
4.049403e+00
3.773840e+00
4.444079e+00
4.422162e+00
4.428066e+00
4.414288e+00
4.366391e+00
4.346329e+00
4.381561e+00
4.449243e+00
4.525532e+00
4.603672e+00
4.673067e+00
4.711018e+00
4.686768e+00
4.546178e+00
4.333530e+00
4.202788e+00
4.442367e+00
4.419041e+00
4.423284e+00
4.409045e+00
4.360803e+00
4.337520e+00
4.364617e+00
4.420111e+00
4.482791e+00
4.547384e+00
4.604213e+00
4.639417e+00
4.649074e+00
4.627415e+00
4.593614e+00
4.583780e+00
3.705738e+00
3.660344e+00
3.694029e+00
3.750612e+00
3.758817e+00
3.795658e+00
3.895296e+00
4.030962e+00
4.173171e+00
4.314485e+00
4.447761e+00
4.559977e+00
4.650146e+00
4.725928e+00
4.795603e+00
4.845375e+00
2.681760e+00
2.617742e+00
2.698946e+00
2.859389e+00
2.963782e+00
3.092934e+00
3.298095e+00
3.552811e+00
3.817690e+00
4.076728e+00
4.321236e+00
4.534120e+00
4.705499e+00
4.840822e+00
4.946522e+00
5.007597e+00
2.068180e+00
1.999945e+00
2.122946e+00
2.352960e+00
2.520089e+00
2.708580e+00
2.976412e+00
3.302237e+00
3.642351e+00
3.973376e+00
4.283651e+00
4.553529e+00
4.766075e+00
4.922334e+00
5.029444e+00
5.086772e+00


-3.483510e-01
-1.005085e-01
-2.294072e-02
-6.675752e-02
-2.747689e-02
2.814060e-02
5.953348e-02
8.917481e-02
1.443390e-01
2.238391e-01
3.085836e-01
3.870133e-01
4.672721e-01
5.697322e-01
6.854324e-01
-2.022887e-01
5.579568e-01
4.582029e-01
4.373577e-01
4.029064e-01
4.176485e-01
4.429397e-01
4.561184e-01
4.700144e-01
5.020012e-01
5.559275e-01
6.279455e-01
7.182625e-01
8.268943e-01
9.214878e-01
8.129069e-01
-8.230846e-01
8.504828e-01
7.672507e-01
6.983359e-01
6.642754e-01
6.605298e-01
6.632802e-01
6.626771e-01
6.640765e-01
6.759205e-01
7.013264e-01
7.380595e-01
7.761969e-01
7.864599e-01
7.096646e-01
4.609267e-01
2.335572e-02
9.369390e-01
8.632712e-01
7.960430e-01
7.582226e-01
7.451702e-01
7.395856e-01
7.321613e-01
7.222847e-01
7.125252e-01
7.028340e-01
6.882269e-01
6.569978e-01
5.925070e-01
5.020012e-01
4.577667e-01
4.703632e-01
9.376601e-01
8.642352e-01
7.971176e-01
7.587306e-01
7.441330e-01
7.356851e-01
7.230037e-01
7.035987e-01
6.778163e-01
6.444070e-01
6.016041e-01
5.514725e-01
5.079531e-01
5.115916e-01
6.041845e-01
7.575065e-01
8.522405e-01
7.695000e-01
7.007402e-01
6.653483e-01
6.581406e-01
6.547433e-01
6.430926e-01
6.245059e-01
6.028103e-01
5.786545e-01
5.545339e-01
5.420766e-01
5.640480e-01
6.442520e-01
7.777550e-01
9.198189e-01
5.599904e-01
4.608168e-01
4.399829e-01
4.043693e-01
4.166084e-01
4.386098e-01
4.464945e-01
4.504515e-01
4.656564e-01
4.966046e-01
5.426565e-01
6.065985e-01
6.934407e-01
8.030121e-01
9.136008e-01
9.855278e-01
-3.462363e-01
-9.903609e-02
-2.206941e-02
-6.740903e-02
-2.911703e-02
2.829490e-02
6.531572e-02
1.065486e-01
1.852709e-01
3.115370e-01
4.757196e-01
6.562541e-01
8.189536e-01
9.316038e-01
9.862526e-01
9.997101e-01
1 2 19 18
2 3 20 19
3 4 21 20
4 5 22 21
5 6 23 22
6 7 24 23
7 8 25 24
8 9 26 25
9 10 27 26
10 11 28 27
11 12 29 28
12 13 30 29
13 14 31 30
14 15 32 31
15 16 33 32
16 17 34 33
18 19 36 35
19 20 37 36
20 21 38 37
21 22 39 38
22 23 40 39
23 24 41 40
24 25 42 41
25 26 43 42
26 27 44 43
27 28 45 44
28 29 46 45
29 30 47 46
30 31 48 47
31 32 49 48
32 33 50 49
33 34 51 50
35 36 53 52
36 37 54 53
37 38 55 54
38 39 56 55
39 40 57 56
40 41 58 57
41 42 59 58
42 43 60 59
43 44 61 60
44 45 62 61
45 46 63 62
46 47 64 63
47 48 65 64
48 49 66 65
49 50 67 66
50 51 68 67
52 53 70 69
53 54 71 70
54 55 72 71
55 56 73 72
56 57 74 73
57 58 75 74
58 59 76 75
59 60 77 76
60 61 78 77
61 62 79 78
62 63 80 79
63 64 81 80
64 65 82 81
65 66 83 82
66 67 84 83
67 68 85 84
69 70 87 86
70 71 88 87
71 72 89 88
72 73 90 89
73 74 91 90
74 75 92 91
75 76 93 92
76 77 94 93
77 78 95 94
78 79 96 95
79 80 97 96
80 81 98 97
81 82 99 98
82 83 100 99
83 84 101 100
84 85 102 101
86 87 104 103
87 88 105 104
88 89 106 105
89 90 107 106
90 91 108 107
91 92 109 108
92 93 110 109
93 94 111 110
94 95 112 111
95 96 113 112
96 97 114 113
97 98 115 114
98 99 116 115
99 100 117 116
100 101 118 117
101 102 119 118
103 104 121 120
104 105 122 121
105 106 123 122
106 107 124 123
107 108 125 124
108 109 126 125
109 110 127 126
110 111 128 127
111 112 129 128
112 113 130 129
113 114 131 130
114 115 132 131
115 116 133 132
116 117 134 133
117 118 135 134
118 119 136 135
120 121 138 137
121 122 139 138
122 123 140 139
123 124 141 140
124 125 142 141
125 126 143 142
126 127 144 143
127 128 145 144
128 129 146 145
129 130 147 146
130 131 148 147
131 132 149 148
132 133 150 149
133 134 151 150
134 135 152 151
135 136 153 152
