TITLE = "Solution"
VARIABLES = x, y, u, v, psiu, psiv, t, stress
ZONE T="structure" N=153 E=128 F=FEBLOCK ET=QUADRILATERAL VARLOCATION=([7,8]=cellcentered)
0.000000e+00
1.250000e+01
2.500000e+01
3.750000e+01
5.000000e+01
6.250000e+01
7.500000e+01
8.750000e+01
1.000000e+02
1.125000e+02
1.250000e+02
1.375000e+02
1.500000e+02
1.625000e+02
1.750000e+02
1.875000e+02
2.000000e+02
0.000000e+00
1.250000e+01
2.500000e+01
3.750000e+01
5.000000e+01
6.250000e+01
7.500000e+01
8.750000e+01
1.000000e+02
1.125000e+02
1.250000e+02
1.375000e+02
1.500000e+02
1.625000e+02
1.750000e+02
1.875000e+02
2.000000e+02
0.000000e+00
1.250000e+01
2.500000e+01
3.750000e+01
5.000000e+01
6.250000e+01
7.500000e+01
8.750000e+01
1.000000e+02
1.125000e+02
1.250000e+02
1.375000e+02
1.500000e+02
1.625000e+02
1.750000e+02
1.875000e+02
2.000000e+02
0.000000e+00
1.250000e+01
2.500000e+01
3.750000e+01
5.000000e+01
6.250000e+01
7.500000e+01
8.750000e+01
1.000000e+02
1.125000e+02
1.250000e+02
1.375000e+02
1.500000e+02
1.625000e+02
1.750000e+02
1.875000e+02
2.000000e+02
0.000000e+00
1.250000e+01
2.500000e+01
3.750000e+01
5.000000e+01
6.250000e+01
7.500000e+01
8.750000e+01
1.000000e+02
1.125000e+02
1.250000e+02
1.375000e+02
1.500000e+02
1.625000e+02
1.750000e+02
1.875000e+02
2.000000e+02
0.000000e+00
1.250000e+01
2.500000e+01
3.750000e+01
5.000000e+01
6.250000e+01
7.500000e+01
8.750000e+01
1.000000e+02
1.125000e+02
1.250000e+02
1.375000e+02
1.500000e+02
1.625000e+02
1.750000e+02
1.875000e+02
2.000000e+02
0.000000e+00
1.250000e+01
2.500000e+01
3.750000e+01
5.000000e+01
6.250000e+01
7.500000e+01
8.750000e+01
1.000000e+02
1.125000e+02
1.250000e+02
1.375000e+02
1.500000e+02
1.625000e+02
1.750000e+02
1.875000e+02
2.000000e+02
0.000000e+00
1.250000e+01
2.500000e+01
3.750000e+01
5.000000e+01
6.250000e+01
7.500000e+01
8.750000e+01
1.000000e+02
1.125000e+02
1.250000e+02
1.375000e+02
1.500000e+02
1.625000e+02
1.750000e+02
1.875000e+02
2.000000e+02
0.000000e+00
1.250000e+01
2.500000e+01
3.750000e+01
5.000000e+01
6.250000e+01
7.500000e+01
8.750000e+01
1.000000e+02
1.125000e+02
1.250000e+02
1.375000e+02
1.500000e+02
1.625000e+02
1.750000e+02
1.875000e+02
2.000000e+02
0.000000e+00
0.000000e+00
0.000000e+00
0.000000e+00
0.000000e+00
0.000000e+00
0.000000e+00
0.000000e+00
0.000000e+00
0.000000e+00
0.000000e+00
0.000000e+00
0.000000e+00
0.000000e+00
0.000000e+00
0.000000e+00
0.000000e+00
1.250000e+01
1.250000e+01
1.250000e+01
1.250000e+01
1.250000e+01
1.250000e+01
1.250000e+01
1.250000e+01
1.250000e+01
1.250000e+01
1.250000e+01
1.250000e+01
1.250000e+01
1.250000e+01
1.250000e+01
1.250000e+01
1.250000e+01
2.500000e+01
2.500000e+01
2.500000e+01
2.500000e+01
2.500000e+01
2.500000e+01
2.500000e+01
2.500000e+01
2.500000e+01
2.500000e+01
2.500000e+01
2.500000e+01
2.500000e+01
2.500000e+01
2.500000e+01
2.500000e+01
2.500000e+01
3.750000e+01
3.750000e+01
3.750000e+01
3.750000e+01
3.750000e+01
3.750000e+01
3.750000e+01
3.750000e+01
3.750000e+01
3.750000e+01
3.750000e+01
3.750000e+01
3.750000e+01
3.750000e+01
3.750000e+01
3.750000e+01
3.750000e+01
5.000000e+01
5.000000e+01
5.000000e+01
5.000000e+01
5.000000e+01
5.000000e+01
5.000000e+01
5.000000e+01
5.000000e+01
5.000000e+01
5.000000e+01
5.000000e+01
5.000000e+01
5.000000e+01
5.000000e+01
5.000000e+01
5.000000e+01
6.250000e+01
6.250000e+01
6.250000e+01
6.250000e+01
6.250000e+01
6.250000e+01
6.250000e+01
6.250000e+01
6.250000e+01
6.250000e+01
6.250000e+01
6.250000e+01
6.250000e+01
6.250000e+01
6.250000e+01
6.250000e+01
6.250000e+01
7.500000e+01
7.500000e+01
7.500000e+01
7.500000e+01
7.500000e+01
7.500000e+01
7.500000e+01
7.500000e+01
7.500000e+01
7.500000e+01
7.500000e+01
7.500000e+01
7.500000e+01
7.500000e+01
7.500000e+01
7.500000e+01
7.500000e+01
8.750000e+01
8.750000e+01
8.750000e+01
8.750000e+01
8.750000e+01
8.750000e+01
8.750000e+01
8.750000e+01
8.750000e+01
8.750000e+01
8.750000e+01
8.750000e+01
8.750000e+01
8.750000e+01
8.750000e+01
8.750000e+01
8.750000e+01
1.000000e+02
1.000000e+02
1.000000e+02
1.000000e+02
1.000000e+02
1.000000e+02
1.000000e+02
1.000000e+02
1.000000e+02
1.000000e+02
1.000000e+02
1.000000e+02
1.000000e+02
1.000000e+02
1.000000e+02
1.000000e+02
1.000000e+02
0.000000e+00
-8.248396e-01
-1.479210e+00
-2.110118e+00
-2.760413e+00
-3.394855e+00
-4.014332e+00
-4.630444e+00
-5.241759e+00
-5.839506e+00
-6.420277e+00
-6.987500e+00
-7.544388e+00
-8.094954e+00
-8.647129e+00
-9.225600e+00
-9.622529e+00
0.000000e+00
-4.469449e-01
-9.212209e-01
-1.389252e+00
-1.876232e+00
-2.352640e+00
-2.816627e+00
-3.277100e+00
-3.732928e+00
-4.176414e+00
-4.603374e+00
-5.012495e+00
-5.395049e+00
-5.725103e+00
-5.947668e+00
-5.998030e+00
-6.132342e+00
0.000000e+00
-2.396592e-01
-5.047748e-01
-8.078359e-01
-1.130383e+00
-1.449400e+00
-1.762855e+00
-2.072909e+00
-2.376035e+00
-2.665685e+00
-2.936406e+00
-3.179785e+00
-3.376959e+00
-3.498246e+00
-3.516410e+00
-3.488546e+00
-3.627460e+00
0.000000e+00
-1.000356e-01
-2.178479e-01
-3.620296e-01
-5.201970e-01
-6.800645e-01
-8.390034e-01
-9.948384e-01
-1.143199e+00
-1.278737e+00
-1.395269e+00
-1.482463e+00
-1.525585e+00
-1.515090e+00
-1.471601e+00
-1.476767e+00
-1.588633e+00
0.000000e+00
-3.490165e-04
-8.825684e-04
-1.473119e-03
-1.848282e-03
-1.585888e-03
4.952137e-05
4.365944e-03
1.352668e-02
3.090468e-02
6.149565e-02
1.111189e-01
1.821392e-01
2.648988e-01
3.267804e-01
3.234410e-01
2.422345e-01
0.000000e+00
9.958573e-02
2.166456e-01
3.598421e-01
5.172390e-01
6.775622e-01
8.394322e-01
1.002509e+00
1.165660e+00
1.328920e+00
1.493921e+00
1.659739e+00
1.817904e+00
1.950841e+00
2.033865e+00
2.046696e+00
2.002396e+00
0.000000e+00
2.398957e-01
5.048392e-01
8.071509e-01
1.128809e+00
1.447835e+00
1.762642e+00
2.075366e+00
2.383278e+00
2.681989e+00
2.968091e+00
3.234620e+00
3.466779e+00
3.646189e+00
3.757466e+00
3.795346e+00
3.784716e+00
0.000000e+00
4.480762e-01
9.227206e-01
1.390272e+00
1.876605e+00
2.352946e+00
2.816739e+00
3.274822e+00
3.724227e+00
4.155636e+00
4.559147e+00
4.921274e+00
5.222011e+00
5.443222e+00
5.579059e+00
5.638136e+00
5.649095e+00
0.000000e+00
8.267576e-01
1.481927e+00
2.113128e+00
2.764161e+00
3.400288e+00
4.021027e+00
4.635018e+00
5.237585e+00
5.815089e+00
6.350497e+00
6.819773e+00
7.191000e+00
7.438905e+00
7.562369e+00
7.593479e+00
7.592873e+00
0.000000e+00
-5.075433e-01
-1.049820e+00
-1.769700e+00
-2.651739e+00
-3.690291e+00
-4.889853e+00
-6.251949e+00
-7.773247e+00
-9.449671e+00
-1.127855e+01
-1.325685e+01
-1.538135e+01
-1.765811e+01
-2.014390e+01
-2.303852e+01
-2.729030e+01
0.000000e+00
-3.221494e-01
-8.903461e-01
-1.602535e+00
-2.483690e+00
-3.526391e+00
-4.728452e+00
-6.091891e+00
-7.616247e+00
-9.297663e+00
-1.113221e+01
-1.311714e+01
-1.525124e+01
-1.754565e+01
-2.004929e+01
-2.293993e+01
-2.649645e+01
0.000000e+00
-2.649858e-01
-7.850789e-01
-1.489708e+00
-2.367120e+00
-3.410344e+00
-4.614433e+00
-5.980919e+00
-7.509810e+00
-9.197427e+00
-1.104091e+01
-1.303965e+01
-1.519471e+01
-1.751740e+01
-2.003569e+01
-2.276428e+01
-2.535528e+01
0.000000e+00
-2.620596e-01
-7.451355e-01
-1.430537e+00
-2.301561e+00
-3.342683e+00
-4.548604e+00
-5.919764e+00
-7.454957e+00
-9.150742e+00
-1.100648e+01
-1.302274e+01
-1.519607e+01
-1.752251e+01
-1.998169e+01
-2.245613e+01
-2.465271e+01
0.000000e+00
-2.671235e-01
-7.379504e-01
-1.415010e+00
-2.281817e+00
-3.322571e+00
-4.530911e+00
-5.906859e+00
-7.448467e+00
-9.152722e+00
-1.101983e+01
-1.304792e+01
-1.522324e+01
-1.751870e+01
-1.987603e+01
-2.216724e+01
-2.417856e+01
0.000000e+00
-2.621370e-01
-7.457750e-01
-1.431997e+00
-2.304373e+00
-3.348333e+00
-4.559386e+00
-5.938278e+00
-7.484153e+00
-9.194420e+00
-1.106778e+01
-1.309755e+01
-1.525942e+01
-1.750831e+01
-1.977438e+01
-2.194960e+01
-2.388638e+01
0.000000e+00
-2.650250e-01
-7.860208e-01
-1.491942e+00
-2.371683e+00
-3.419666e+00
-4.632146e+00
-6.011331e+00
-7.558025e+00
-9.269924e+00
-1.114312e+01
-1.316584e+01
-1.530662e+01
-1.751161e+01
-1.970978e+01
-2.181735e+01
-2.374951e+01
0.000000e+00
-3.223143e-01
-8.913636e-01
-1.604912e+00
-2.488869e+00
-3.537149e+00
-4.748651e+00
-6.126239e+00
-7.670609e+00
-9.379158e+00
-1.124586e+01
-1.325509e+01
-1.537201e+01
-1.754083e+01
-1.969274e+01
-2.176071e+01
-2.371640e+01
0.000000e+00
-5.080875e-01
-1.050907e+00
-1.772115e+00
-2.657214e+00
-3.701605e+00
-4.910392e+00
-6.285810e+00
-7.825771e+00
-9.526495e+00
-1.138050e+01
-1.336931e+01
-1.545687e+01
-1.759026e+01
-1.970677e+01
-2.175020e+01
-2.371691e+01


0.000000e+00
1.375816e-05
2.858521e-05
4.343242e-05
5.850460e-05
7.305747e-05
8.676862e-05
9.936803e-05
1.105935e-04
1.204861e-04
1.292492e-04
1.368219e-04
1.428748e-04
1.472605e-04
1.504232e-04
1.536169e-04
1.574418e-04
0.000000e+00
9.811582e-06
2.267652e-05
3.421713e-05
4.558880e-05
5.657580e-05
6.685434e-05
7.609818e-05
8.409272e-05
9.097465e-05
9.691849e-05
1.017336e-04
1.048999e-04
1.062066e-04
1.067984e-04
1.093539e-04
1.135278e-04
0.000000e+00
7.520858e-06
1.601755e-05
2.373969e-05
3.138007e-05
3.868649e-05
4.539359e-05
5.124472e-05
5.616921e-05
6.026495e-05
6.353837e-05
6.579863e-05
6.685165e-05
6.697780e-05
6.730713e-05
6.957949e-05
7.347129e-05
0.000000e+00
3.752375e-06
7.310603e-06
1.123490e-05
1.512885e-05
1.877983e-05
2.203974e-05
2.480888e-05
2.706869e-05
2.878893e-05
2.989232e-05
3.033453e-05
3.031952e-05
3.033567e-05
3.094943e-05
3.272845e-05
3.563379e-05
0.000000e+00
-2.858408e-08
-6.547719e-08
-1.185973e-07
-1.955762e-07
-2.995084e-07
-4.352918e-07
-6.205399e-07
-8.918900e-07
-1.298416e-06
-1.870823e-06
-2.564087e-06
-3.189354e-06
-3.405752e-06
-3.031770e-06
-2.087986e-06
-4.777510e-07
0.000000e+00
-3.813194e-06
-7.436271e-06
-1.143902e-05
-1.545013e-05
-1.927434e-05
-2.275823e-05
-2.580346e-05
-2.843220e-05
-3.068700e-05
-3.255912e-05
-3.403608e-05
-3.513450e-05
-3.583464e-05
-3.616918e-05
-3.613726e-05
-3.553652e-05
0.000000e+00
-7.560010e-06
-1.610161e-05
-2.386532e-05
-3.156897e-05
-3.899416e-05
-4.584795e-05
-5.181269e-05
-5.679856e-05
-6.090507e-05
-6.415735e-05
-6.651149e-05
-6.813187e-05
-6.930457e-05
-7.012524e-05
-7.051989e-05
-7.045490e-05
0.000000e+00
-9.821301e-06
-2.271497e-05
-3.427593e-05
-4.567350e-05
-5.673449e-05
-6.710122e-05
-7.635669e-05
-8.423253e-05
-9.079578e-05
-9.609962e-05
-1.000117e-04
-1.026342e-04
-1.043646e-04
-1.054587e-04
-1.059713e-04
-1.060683e-04
0.000000e+00
-1.377778e-05
-2.861722e-05
-4.346650e-05
-5.853673e-05
-7.311322e-05
-8.683950e-05
-9.936844e-05
-1.103868e-04
-1.198450e-04
-1.277424e-04
-1.338813e-04
-1.381491e-04
-1.407841e-04
-1.420719e-04
-1.424409e-04
-1.424630e-04
0.000000e+00
1.232740e-05
2.247301e-05
3.466885e-05
5.036141e-05
6.943183e-05
9.180076e-05
1.172720e-04
1.456918e-04
1.769250e-04
2.106479e-04
2.464284e-04
2.841278e-04
3.243399e-04
3.694497e-04
4.203435e-04
4.721707e-04
0.000000e+00
6.240101e-06
1.606837e-05
2.807844e-05
4.376707e-05
6.312745e-05
8.596728e-05
1.120719e-04
1.411881e-04
1.730389e-04
2.073403e-04
2.438370e-04
2.824225e-04
3.232265e-04
3.667761e-04
4.151767e-04
4.655189e-04
0.000000e+00
2.470939e-06
1.097365e-05
2.318509e-05
3.895714e-05
5.854673e-05
8.178991e-05
1.084277e-04
1.380973e-04
1.704432e-04
2.052104e-04
2.422520e-04
2.814760e-04
3.224214e-04
3.638345e-04
4.089392e-04
4.567891e-04
0.000000e+00
1.240268e-06
8.800185e-06
2.098963e-05
3.689233e-05
5.655663e-05
7.997675e-05
1.068641e-04
1.367995e-04
1.694136e-04
2.044174e-04
2.416279e-04
2.809593e-04
3.215963e-04
3.616704e-04
4.036758e-04
4.479496e-04
0.000000e+00
1.012271e-06
8.253950e-06
2.033640e-05
3.631662e-05
5.600339e-05
7.947787e-05
1.064581e-04
1.365125e-04
1.692624e-04
2.043595e-04
2.415628e-04
2.807333e-04
3.210300e-04
3.605703e-04
4.004395e-04
4.409786e-04
0.000000e+00
1.254742e-06
8.821831e-06
2.101079e-05
3.691099e-05
5.659093e-05
8.005858e-05
1.070194e-04
1.370602e-04
1.698216e-04
2.049544e-04
2.421373e-04
2.810813e-04
3.209404e-04
3.602856e-04
3.989815e-04
4.368357e-04
0.000000e+00
2.495147e-06
1.101094e-05
2.322762e-05
3.900737e-05
5.863206e-05
8.195332e-05
1.087077e-04
1.385543e-04
1.711729e-04
2.062336e-04
2.433088e-04
2.819203e-04
3.212800e-04
3.602627e-04
3.982988e-04
4.350556e-04
0.000000e+00
6.274549e-06
1.612435e-05
2.814735e-05
4.386109e-05
6.327770e-05
8.620058e-05
1.124089e-04
1.416844e-04
1.737933e-04
2.083906e-04
2.449707e-04
2.829986e-04
3.217946e-04
3.603694e-04
3.980029e-04
4.346116e-04
0.000000e+00
1.237227e-05
2.254452e-05
3.475688e-05
5.049089e-05
6.963631e-05
9.207531e-05
1.176007e-04
1.460962e-04
1.774388e-04
2.112451e-04
2.469769e-04
2.842128e-04
3.224176e-04
3.605750e-04
3.979636e-04
4.345889e-04


2.165124e+00
2.053645e+00
2.173723e+00
2.410810e+00
2.557004e+00
2.757032e+00
3.056932e+00
3.400057e+00
3.749827e+00
4.134596e+00
4.571807e+00
4.969696e+00
5.153301e+00
4.887696e+00
4.229785e+00
3.721311e+00
3.046428e+00
2.944699e+00
3.021461e+00
3.171829e+00
3.244284e+00
3.368356e+00
3.585064e+00
3.838228e+00
4.104087e+00
4.422005e+00
4.794350e+00
5.110407e+00
5.206890e+00
4.871467e+00
4.192870e+00
3.681538e+00
4.387508e+00
4.323560e+00
4.346162e+00
4.384703e+00
4.364473e+00
4.392289e+00
4.483206e+00
4.589171e+00
4.709974e+00
4.895335e+00
5.126543e+00
5.285464e+00
5.263599e+00
4.935006e+00
4.375883e+00
3.983592e+00
5.252220e+00
5.211962e+00
5.196994e+00
5.165181e+00
5.116060e+00
5.099609e+00
5.107889e+00
5.102603e+00
5.105090e+00
5.171927e+00
5.272661e+00
5.306069e+00
5.237426e+00
5.048141e+00
4.776585e+00
4.596462e+00
5.263701e+00
5.219182e+00
5.196941e+00
5.159723e+00
5.109370e+00
5.089954e+00
5.086273e+00
5.060867e+00
5.041779e+00
5.088548e+00
5.173163e+00
5.209761e+00
5.199244e+00
5.188473e+00
5.182804e+00
5.185153e+00
4.409821e+00
4.336871e+00
4.345011e+00
4.374099e+00
4.353260e+00
4.377144e+00
4.446937e+00
4.519120e+00
4.609532e+00
4.769840e+00
4.976452e+00
5.142838e+00
5.258415e+00
5.382747e+00
5.517989e+00
5.604737e+00
3.061698e+00
2.952075e+00
3.018061e+00
3.163665e+00
3.239480e+00
3.365304e+00
3.573356e+00
3.818016e+00
4.094051e+00
4.432999e+00
4.812234e+00
5.143769e+00
5.388050e+00
5.585579e+00
5.750113e+00
5.840941e+00
2.171257e+00
2.054494e+00
2.168912e+00
2.405953e+00
2.557911e+00
2.764238e+00
3.068689e+00
3.428766e+00
3.826049e+00
4.274978e+00
4.753425e+00
5.177379e+00
5.489467e+00
5.710286e+00
5.861183e+00
5.935539e+00


-4.243324e-01
-1.241868e-01
-5.981371e-02
-1.337913e-01
-8.365552e-02
-3.281026e-02
-2.079638e-02
-3.775775e-03
4.353850e-02
1.038793e-01
1.607924e-01
2.284352e-01
3.303169e-01
4.816589e-01
6.466549e-01
-3.013014e-01
5.542774e-01
4.542151e-01
4.179581e-01
3.612400e-01
3.768778e-01
3.964370e-01
3.984867e-01
4.074884e-01
4.381727e-01
4.836846e-01
5.446939e-01
6.404804e-01
7.756247e-01
9.003808e-01
7.923416e-01
-9.578239e-01
8.461878e-01
7.499787e-01
6.637161e-01
6.166082e-01
6.100044e-01
6.083960e-01
6.038111e-01
6.061761e-01
6.207662e-01
6.436572e-01
6.758428e-01
7.172317e-01
7.331517e-01
6.488012e-01
3.815288e-01
-8.185564e-02
9.202327e-01
8.313972e-01
7.443458e-01
6.935181e-01
6.754286e-01
6.680728e-01
6.613540e-01
6.560694e-01
6.514358e-01
6.398711e-01
6.154650e-01
5.731825e-01
4.952687e-01
3.868398e-01
3.444290e-01
3.736015e-01
9.204820e-01
8.318812e-01
7.451134e-01
6.938193e-01
6.737294e-01
6.626289e-01
6.495925e-01
6.333603e-01
6.099914e-01
5.691772e-01
5.076919e-01
4.387467e-01
3.835308e-01
3.850147e-01
4.998513e-01
6.948420e-01
8.464774e-01
7.507723e-01
6.651939e-01
6.170931e-01
6.058314e-01
5.958246e-01
5.777477e-01
5.569497e-01
5.318018e-01
4.931309e-01
4.454526e-01
4.175284e-01
4.426062e-01
5.417297e-01
7.105308e-01
8.948578e-01
5.529248e-01
4.541466e-01
4.195997e-01
3.625500e-01
3.741261e-01
3.882875e-01
3.844886e-01
3.830838e-01
3.929472e-01
4.081205e-01
4.349858e-01
4.963697e-01
6.026461e-01
7.426430e-01
8.858426e-01
9.806803e-01
-4.307541e-01
-1.264470e-01
-5.946392e-02
-1.341620e-01
-8.729833e-02
-3.595411e-02
-1.481636e-02
1.915901e-02
9.174257e-02
2.037830e-01
3.613223e-01
5.633971e-01
7.653727e-01
9.102989e-01
9.817320e-01
9.996062e-01
1 2 19 18
2 3 20 19
3 4 21 20
4 5 22 21
5 6 23 22
6 7 24 23
7 8 25 24
8 9 26 25
9 10 27 26
10 11 28 27
11 12 29 28
12 13 30 29
13 14 31 30
14 15 32 31
15 16 33 32
16 17 34 33
18 19 36 35
19 20 37 36
20 21 38 37
21 22 39 38
22 23 40 39
23 24 41 40
24 25 42 41
25 26 43 42
26 27 44 43
27 28 45 44
28 29 46 45
29 30 47 46
30 31 48 47
31 32 49 48
32 33 50 49
33 34 51 50
35 36 53 52
36 37 54 53
37 38 55 54
38 39 56 55
39 40 57 56
40 41 58 57
41 42 59 58
42 43 60 59
43 44 61 60
44 45 62 61
45 46 63 62
46 47 64 63
47 48 65 64
48 49 66 65
49 50 67 66
50 51 68 67
52 53 70 69
53 54 71 70
54 55 72 71
55 56 73 72
56 57 74 73
57 58 75 74
58 59 76 75
59 60 77 76
60 61 78 77
61 62 79 78
62 63 80 79
63 64 81 80
64 65 82 81
65 66 83 82
66 67 84 83
67 68 85 84
69 70 87 86
70 71 88 87
71 72 89 88
72 73 90 89
73 74 91 90
74 75 92 91
75 76 93 92
76 77 94 93
77 78 95 94
78 79 96 95
79 80 97 96
80 81 98 97
81 82 99 98
82 83 100 99
83 84 101 100
84 85 102 101
86 87 104 103
87 88 105 104
88 89 106 105
89 90 107 106
90 91 108 107
91 92 109 108
92 93 110 109
93 94 111 110
94 95 112 111
95 96 113 112
96 97 114 113
97 98 115 114
98 99 116 115
99 100 117 116
100 101 118 117
101 102 119 118
103 104 121 120
104 105 122 121
105 106 123 122
106 107 124 123
107 108 125 124
108 109 126 125
109 110 127 126
110 111 128 127
111 112 129 128
112 113 130 129
113 114 131 130
114 115 132 131
115 116 133 132
116 117 134 133
117 118 135 134
118 119 136 135
120 121 138 137
121 122 139 138
122 123 140 139
123 124 141 140
124 125 142 141
125 126 143 142
126 127 144 143
127 128 145 144
128 129 146 145
129 130 147 146
130 131 148 147
131 132 149 148
132 133 150 149
133 134 151 150
134 135 152 151
135 136 153 152
