TITLE = "Solution"
VARIABLES = x, y, u, v, psiu, psiv, t, stress
ZONE T="structure" N=561 E=512 F=FEBLOCK ET=QUADRILATERAL VARLOCATION=([7,8]=cellcentered)
0.000000e+00
6.250000e+00
1.250000e+01
1.875000e+01
2.500000e+01
3.125000e+01
3.750000e+01
4.375000e+01
5.000000e+01
5.625000e+01
6.250000e+01
6.875000e+01
7.500000e+01
8.125000e+01
8.750000e+01
9.375000e+01
1.000000e+02
1.062500e+02
1.125000e+02
1.187500e+02
1.250000e+02
1.312500e+02
1.375000e+02
1.437500e+02
1.500000e+02
1.562500e+02
1.625000e+02
1.687500e+02
1.750000e+02
1.812500e+02
1.875000e+02
1.937500e+02
2.000000e+02
0.000000e+00
6.250000e+00
1.250000e+01
1.875000e+01
2.500000e+01
3.125000e+01
3.750000e+01
4.375000e+01
5.000000e+01
5.625000e+01
6.250000e+01
6.875000e+01
7.500000e+01
8.125000e+01
8.750000e+01
9.375000e+01
1.000000e+02
1.062500e+02
1.125000e+02
1.187500e+02
1.250000e+02
1.312500e+02
1.375000e+02
1.437500e+02
1.500000e+02
1.562500e+02
1.625000e+02
1.687500e+02
1.750000e+02
1.812500e+02
1.875000e+02
1.937500e+02
2.000000e+02
0.000000e+00
6.250000e+00
1.250000e+01
1.875000e+01
2.500000e+01
3.125000e+01
3.750000e+01
4.375000e+01
5.000000e+01
5.625000e+01
6.250000e+01
6.875000e+01
7.500000e+01
8.125000e+01
8.750000e+01
9.375000e+01
1.000000e+02
1.062500e+02
1.125000e+02
1.187500e+02
1.250000e+02
1.312500e+02
1.375000e+02
1.437500e+02
1.500000e+02
1.562500e+02
1.625000e+02
1.687500e+02
1.750000e+02
1.812500e+02
1.875000e+02
1.937500e+02
2.000000e+02
0.000000e+00
6.250000e+00
1.250000e+01
1.875000e+01
2.500000e+01
3.125000e+01
3.750000e+01
4.375000e+01
5.000000e+01
5.625000e+01
6.250000e+01
6.875000e+01
7.500000e+01
8.125000e+01
8.750000e+01
9.375000e+01
1.000000e+02
1.062500e+02
1.125000e+02
1.187500e+02
1.250000e+02
1.312500e+02
1.375000e+02
1.437500e+02
1.500000e+02
1.562500e+02
1.625000e+02
1.687500e+02
1.750000e+02
1.812500e+02
1.875000e+02
1.937500e+02
2.000000e+02
0.000000e+00
6.250000e+00
1.250000e+01
1.875000e+01
2.500000e+01
3.125000e+01
3.750000e+01
4.375000e+01
5.000000e+01
5.625000e+01
6.250000e+01
6.875000e+01
7.500000e+01
8.125000e+01
8.750000e+01
9.375000e+01
1.000000e+02
1.062500e+02
1.125000e+02
1.187500e+02
1.250000e+02
1.312500e+02
1.375000e+02
1.437500e+02
1.500000e+02
1.562500e+02
1.625000e+02
1.687500e+02
1.750000e+02
1.812500e+02
1.875000e+02
1.937500e+02
2.000000e+02
0.000000e+00
6.250000e+00
1.250000e+01
1.875000e+01
2.500000e+01
3.125000e+01
3.750000e+01
4.375000e+01
5.000000e+01
5.625000e+01
6.250000e+01
6.875000e+01
7.500000e+01
8.125000e+01
8.750000e+01
9.375000e+01
1.000000e+02
1.062500e+02
1.125000e+02
1.187500e+02
1.250000e+02
1.312500e+02
1.375000e+02
1.437500e+02
1.500000e+02
1.562500e+02
1.625000e+02
1.687500e+02
1.750000e+02
1.812500e+02
1.875000e+02
1.937500e+02
2.000000e+02
0.000000e+00
6.250000e+00
1.250000e+01
1.875000e+01
2.500000e+01
3.125000e+01
3.750000e+01
4.375000e+01
5.000000e+01
5.625000e+01
6.250000e+01
6.875000e+01
7.500000e+01
8.125000e+01
8.750000e+01
9.375000e+01
1.000000e+02
1.062500e+02
1.125000e+02
1.187500e+02
1.250000e+02
1.312500e+02
1.375000e+02
1.437500e+02
1.500000e+02
1.562500e+02
1.625000e+02
1.687500e+02
1.750000e+02
1.812500e+02
1.875000e+02
1.937500e+02
2.000000e+02
0.000000e+00
6.250000e+00
1.250000e+01
1.875000e+01
2.500000e+01
3.125000e+01
3.750000e+01
4.375000e+01
5.000000e+01
5.625000e+01
6.250000e+01
6.875000e+01
7.500000e+01
8.125000e+01
8.750000e+01
9.375000e+01
1.000000e+02
1.062500e+02
1.125000e+02
1.187500e+02
1.250000e+02
1.312500e+02
1.375000e+02
1.437500e+02
1.500000e+02
1.562500e+02
1.625000e+02
1.687500e+02
1.750000e+02
1.812500e+02
1.875000e+02
1.937500e+02
2.000000e+02
0.000000e+00
6.250000e+00
1.250000e+01
1.875000e+01
2.500000e+01
3.125000e+01
3.750000e+01
4.375000e+01
5.000000e+01
5.625000e+01
6.250000e+01
6.875000e+01
7.500000e+01
8.125000e+01
8.750000e+01
9.375000e+01
1.000000e+02
1.062500e+02
1.125000e+02
1.187500e+02
1.250000e+02
1.312500e+02
1.375000e+02
1.437500e+02
1.500000e+02
1.562500e+02
1.625000e+02
1.687500e+02
1.750000e+02
1.812500e+02
1.875000e+02
1.937500e+02
2.000000e+02
0.000000e+00
6.250000e+00
1.250000e+01
1.875000e+01
2.500000e+01
3.125000e+01
3.750000e+01
4.375000e+01
5.000000e+01
5.625000e+01
6.250000e+01
6.875000e+01
7.500000e+01
8.125000e+01
8.750000e+01
9.375000e+01
1.000000e+02
1.062500e+02
1.125000e+02
1.187500e+02
1.250000e+02
1.312500e+02
1.375000e+02
1.437500e+02
1.500000e+02
1.562500e+02
1.625000e+02
1.687500e+02
1.750000e+02
1.812500e+02
1.875000e+02
1.937500e+02
2.000000e+02
0.000000e+00
6.250000e+00
1.250000e+01
1.875000e+01
2.500000e+01
3.125000e+01
3.750000e+01
4.375000e+01
5.000000e+01
5.625000e+01
6.250000e+01
6.875000e+01
7.500000e+01
8.125000e+01
8.750000e+01
9.375000e+01
1.000000e+02
1.062500e+02
1.125000e+02
1.187500e+02
1.250000e+02
1.312500e+02
1.375000e+02
1.437500e+02
1.500000e+02
1.562500e+02
1.625000e+02
1.687500e+02
1.750000e+02
1.812500e+02
1.875000e+02
1.937500e+02
2.000000e+02
0.000000e+00
6.250000e+00
1.250000e+01
1.875000e+01
2.500000e+01
3.125000e+01
3.750000e+01
4.375000e+01
5.000000e+01
5.625000e+01
6.250000e+01
6.875000e+01
7.500000e+01
8.125000e+01
8.750000e+01
9.375000e+01
1.000000e+02
1.062500e+02
1.125000e+02
1.187500e+02
1.250000e+02
1.312500e+02
1.375000e+02
1.437500e+02
1.500000e+02
1.562500e+02
1.625000e+02
1.687500e+02
1.750000e+02
1.812500e+02
1.875000e+02
1.937500e+02
2.000000e+02
0.000000e+00
6.250000e+00
1.250000e+01
1.875000e+01
2.500000e+01
3.125000e+01
3.750000e+01
4.375000e+01
5.000000e+01
5.625000e+01
6.250000e+01
6.875000e+01
7.500000e+01
8.125000e+01
8.750000e+01
9.375000e+01
1.000000e+02
1.062500e+02
1.125000e+02
1.187500e+02
1.250000e+02
1.312500e+02
1.375000e+02
1.437500e+02
1.500000e+02
1.562500e+02
1.625000e+02
1.687500e+02
1.750000e+02
1.812500e+02
1.875000e+02
1.937500e+02
2.000000e+02
0.000000e+00
6.250000e+00
1.250000e+01
1.875000e+01
2.500000e+01
3.125000e+01
3.750000e+01
4.375000e+01
5.000000e+01
5.625000e+01
6.250000e+01
6.875000e+01
7.500000e+01
8.125000e+01
8.750000e+01
9.375000e+01
1.000000e+02
1.062500e+02
1.125000e+02
1.187500e+02
1.250000e+02
1.312500e+02
1.375000e+02
1.437500e+02
1.500000e+02
1.562500e+02
1.625000e+02
1.687500e+02
1.750000e+02
1.812500e+02
1.875000e+02
1.937500e+02
2.000000e+02
0.000000e+00
6.250000e+00
1.250000e+01
1.875000e+01
2.500000e+01
3.125000e+01
3.750000e+01
4.375000e+01
5.000000e+01
5.625000e+01
6.250000e+01
6.875000e+01
7.500000e+01
8.125000e+01
8.750000e+01
9.375000e+01
1.000000e+02
1.062500e+02
1.125000e+02
1.187500e+02
1.250000e+02
1.312500e+02
1.375000e+02
1.437500e+02
1.500000e+02
1.562500e+02
1.625000e+02
1.687500e+02
1.750000e+02
1.812500e+02
1.875000e+02
1.937500e+02
2.000000e+02
0.000000e+00
6.250000e+00
1.250000e+01
1.875000e+01
2.500000e+01
3.125000e+01
3.750000e+01
4.375000e+01
5.000000e+01
5.625000e+01
6.250000e+01
6.875000e+01
7.500000e+01
8.125000e+01
8.750000e+01
9.375000e+01
1.000000e+02
1.062500e+02
1.125000e+02
1.187500e+02
1.250000e+02
1.312500e+02
1.375000e+02
1.437500e+02
1.500000e+02
1.562500e+02
1.625000e+02
1.687500e+02
1.750000e+02
1.812500e+02
1.875000e+02
1.937500e+02
2.000000e+02
0.000000e+00
6.250000e+00
1.250000e+01
1.875000e+01
2.500000e+01
3.125000e+01
3.750000e+01
4.375000e+01
5.000000e+01
5.625000e+01
6.250000e+01
6.875000e+01
7.500000e+01
8.125000e+01
8.750000e+01
9.375000e+01
1.000000e+02
1.062500e+02
1.125000e+02
1.187500e+02
1.250000e+02
1.312500e+02
1.375000e+02
1.437500e+02
1.500000e+02
1.562500e+02
1.625000e+02
1.687500e+02
1.750000e+02
1.812500e+02
1.875000e+02
1.937500e+02
2.000000e+02
0.000000e+00
0.000000e+00
0.000000e+00
0.000000e+00
0.000000e+00
0.000000e+00
0.000000e+00
0.000000e+00
0.000000e+00
0.000000e+00
0.000000e+00
0.000000e+00
0.000000e+00
0.000000e+00
0.000000e+00
0.000000e+00
0.000000e+00
0.000000e+00
0.000000e+00
0.000000e+00
0.000000e+00
0.000000e+00
0.000000e+00
0.000000e+00
0.000000e+00
0.000000e+00
0.000000e+00
0.000000e+00
0.000000e+00
0.000000e+00
0.000000e+00
0.000000e+00
0.000000e+00
6.250000e+00
6.250000e+00
6.250000e+00
6.250000e+00
6.250000e+00
6.250000e+00
6.250000e+00
6.250000e+00
6.250000e+00
6.250000e+00
6.250000e+00
6.250000e+00
6.250000e+00
6.250000e+00
6.250000e+00
6.250000e+00
6.250000e+00
6.250000e+00
6.250000e+00
6.250000e+00
6.250000e+00
6.250000e+00
6.250000e+00
6.250000e+00
6.250000e+00
6.250000e+00
6.250000e+00
6.250000e+00
6.250000e+00
6.250000e+00
6.250000e+00
6.250000e+00
6.250000e+00
1.250000e+01
1.250000e+01
1.250000e+01
1.250000e+01
1.250000e+01
1.250000e+01
1.250000e+01
1.250000e+01
1.250000e+01
1.250000e+01
1.250000e+01
1.250000e+01
1.250000e+01
1.250000e+01
1.250000e+01
1.250000e+01
1.250000e+01
1.250000e+01
1.250000e+01
1.250000e+01
1.250000e+01
1.250000e+01
1.250000e+01
1.250000e+01
1.250000e+01
1.250000e+01
1.250000e+01
1.250000e+01
1.250000e+01
1.250000e+01
1.250000e+01
1.250000e+01
1.250000e+01
1.875000e+01
1.875000e+01
1.875000e+01
1.875000e+01
1.875000e+01
1.875000e+01
1.875000e+01
1.875000e+01
1.875000e+01
1.875000e+01
1.875000e+01
1.875000e+01
1.875000e+01
1.875000e+01
1.875000e+01
1.875000e+01
1.875000e+01
1.875000e+01
1.875000e+01
1.875000e+01
1.875000e+01
1.875000e+01
1.875000e+01
1.875000e+01
1.875000e+01
1.875000e+01
1.875000e+01
1.875000e+01
1.875000e+01
1.875000e+01
1.875000e+01
1.875000e+01
1.875000e+01
2.500000e+01
2.500000e+01
2.500000e+01
2.500000e+01
2.500000e+01
2.500000e+01
2.500000e+01
2.500000e+01
2.500000e+01
2.500000e+01
2.500000e+01
2.500000e+01
2.500000e+01
2.500000e+01
2.500000e+01
2.500000e+01
2.500000e+01
2.500000e+01
2.500000e+01
2.500000e+01
2.500000e+01
2.500000e+01
2.500000e+01
2.500000e+01
2.500000e+01
2.500000e+01
2.500000e+01
2.500000e+01
2.500000e+01
2.500000e+01
2.500000e+01
2.500000e+01
2.500000e+01
3.125000e+01
3.125000e+01
3.125000e+01
3.125000e+01
3.125000e+01
3.125000e+01
3.125000e+01
3.125000e+01
3.125000e+01
3.125000e+01
3.125000e+01
3.125000e+01
3.125000e+01
3.125000e+01
3.125000e+01
3.125000e+01
3.125000e+01
3.125000e+01
3.125000e+01
3.125000e+01
3.125000e+01
3.125000e+01
3.125000e+01
3.125000e+01
3.125000e+01
3.125000e+01
3.125000e+01
3.125000e+01
3.125000e+01
3.125000e+01
3.125000e+01
3.125000e+01
3.125000e+01
3.750000e+01
3.750000e+01
3.750000e+01
3.750000e+01
3.750000e+01
3.750000e+01
3.750000e+01
3.750000e+01
3.750000e+01
3.750000e+01
3.750000e+01
3.750000e+01
3.750000e+01
3.750000e+01
3.750000e+01
3.750000e+01
3.750000e+01
3.750000e+01
3.750000e+01
3.750000e+01
3.750000e+01
3.750000e+01
3.750000e+01
3.750000e+01
3.750000e+01
3.750000e+01
3.750000e+01
3.750000e+01
3.750000e+01
3.750000e+01
3.750000e+01
3.750000e+01
3.750000e+01
4.375000e+01
4.375000e+01
4.375000e+01
4.375000e+01
4.375000e+01
4.375000e+01
4.375000e+01
4.375000e+01
4.375000e+01
4.375000e+01
4.375000e+01
4.375000e+01
4.375000e+01
4.375000e+01
4.375000e+01
4.375000e+01
4.375000e+01
4.375000e+01
4.375000e+01
4.375000e+01
4.375000e+01
4.375000e+01
4.375000e+01
4.375000e+01
4.375000e+01
4.375000e+01
4.375000e+01
4.375000e+01
4.375000e+01
4.375000e+01
4.375000e+01
4.375000e+01
4.375000e+01
5.000000e+01
5.000000e+01
5.000000e+01
5.000000e+01
5.000000e+01
5.000000e+01
5.000000e+01
5.000000e+01
5.000000e+01
5.000000e+01
5.000000e+01
5.000000e+01
5.000000e+01
5.000000e+01
5.000000e+01
5.000000e+01
5.000000e+01
5.000000e+01
5.000000e+01
5.000000e+01
5.000000e+01
5.000000e+01
5.000000e+01
5.000000e+01
5.000000e+01
5.000000e+01
5.000000e+01
5.000000e+01
5.000000e+01
5.000000e+01
5.000000e+01
5.000000e+01
5.000000e+01
5.625000e+01
5.625000e+01
5.625000e+01
5.625000e+01
5.625000e+01
5.625000e+01
5.625000e+01
5.625000e+01
5.625000e+01
5.625000e+01
5.625000e+01
5.625000e+01
5.625000e+01
5.625000e+01
5.625000e+01
5.625000e+01
5.625000e+01
5.625000e+01
5.625000e+01
5.625000e+01
5.625000e+01
5.625000e+01
5.625000e+01
5.625000e+01
5.625000e+01
5.625000e+01
5.625000e+01
5.625000e+01
5.625000e+01
5.625000e+01
5.625000e+01
5.625000e+01
5.625000e+01
6.250000e+01
6.250000e+01
6.250000e+01
6.250000e+01
6.250000e+01
6.250000e+01
6.250000e+01
6.250000e+01
6.250000e+01
6.250000e+01
6.250000e+01
6.250000e+01
6.250000e+01
6.250000e+01
6.250000e+01
6.250000e+01
6.250000e+01
6.250000e+01
6.250000e+01
6.250000e+01
6.250000e+01
6.250000e+01
6.250000e+01
6.250000e+01
6.250000e+01
6.250000e+01
6.250000e+01
6.250000e+01
6.250000e+01
6.250000e+01
6.250000e+01
6.250000e+01
6.250000e+01
6.875000e+01
6.875000e+01
6.875000e+01
6.875000e+01
6.875000e+01
6.875000e+01
6.875000e+01
6.875000e+01
6.875000e+01
6.875000e+01
6.875000e+01
6.875000e+01
6.875000e+01
6.875000e+01
6.875000e+01
6.875000e+01
6.875000e+01
6.875000e+01
6.875000e+01
6.875000e+01
6.875000e+01
6.875000e+01
6.875000e+01
6.875000e+01
6.875000e+01
6.875000e+01
6.875000e+01
6.875000e+01
6.875000e+01
6.875000e+01
6.875000e+01
6.875000e+01
6.875000e+01
7.500000e+01
7.500000e+01
7.500000e+01
7.500000e+01
7.500000e+01
7.500000e+01
7.500000e+01
7.500000e+01
7.500000e+01
7.500000e+01
7.500000e+01
7.500000e+01
7.500000e+01
7.500000e+01
7.500000e+01
7.500000e+01
7.500000e+01
7.500000e+01
7.500000e+01
7.500000e+01
7.500000e+01
7.500000e+01
7.500000e+01
7.500000e+01
7.500000e+01
7.500000e+01
7.500000e+01
7.500000e+01
7.500000e+01
7.500000e+01
7.500000e+01
7.500000e+01
7.500000e+01
8.125000e+01
8.125000e+01
8.125000e+01
8.125000e+01
8.125000e+01
8.125000e+01
8.125000e+01
8.125000e+01
8.125000e+01
8.125000e+01
8.125000e+01
8.125000e+01
8.125000e+01
8.125000e+01
8.125000e+01
8.125000e+01
8.125000e+01
8.125000e+01
8.125000e+01
8.125000e+01
8.125000e+01
8.125000e+01
8.125000e+01
8.125000e+01
8.125000e+01
8.125000e+01
8.125000e+01
8.125000e+01
8.125000e+01
8.125000e+01
8.125000e+01
8.125000e+01
8.125000e+01
8.750000e+01
8.750000e+01
8.750000e+01
8.750000e+01
8.750000e+01
8.750000e+01
8.750000e+01
8.750000e+01
8.750000e+01
8.750000e+01
8.750000e+01
8.750000e+01
8.750000e+01
8.750000e+01
8.750000e+01
8.750000e+01
8.750000e+01
8.750000e+01
8.750000e+01
8.750000e+01
8.750000e+01
8.750000e+01
8.750000e+01
8.750000e+01
8.750000e+01
8.750000e+01
8.750000e+01
8.750000e+01
8.750000e+01
8.750000e+01
8.750000e+01
8.750000e+01
8.750000e+01
9.375000e+01
9.375000e+01
9.375000e+01
9.375000e+01
9.375000e+01
9.375000e+01
9.375000e+01
9.375000e+01
9.375000e+01
9.375000e+01
9.375000e+01
9.375000e+01
9.375000e+01
9.375000e+01
9.375000e+01
9.375000e+01
9.375000e+01
9.375000e+01
9.375000e+01
9.375000e+01
9.375000e+01
9.375000e+01
9.375000e+01
9.375000e+01
9.375000e+01
9.375000e+01
9.375000e+01
9.375000e+01
9.375000e+01
9.375000e+01
9.375000e+01
9.375000e+01
9.375000e+01
1.000000e+02
1.000000e+02
1.000000e+02
1.000000e+02
1.000000e+02
1.000000e+02
1.000000e+02
1.000000e+02
1.000000e+02
1.000000e+02
1.000000e+02
1.000000e+02
1.000000e+02
1.000000e+02
1.000000e+02
1.000000e+02
1.000000e+02
1.000000e+02
1.000000e+02
1.000000e+02
1.000000e+02
1.000000e+02
1.000000e+02
1.000000e+02
1.000000e+02
1.000000e+02
1.000000e+02
1.000000e+02
1.000000e+02
1.000000e+02
1.000000e+02
1.000000e+02
1.000000e+02
0.000000e+00
-4.575837e-01
-7.678385e-01
-1.102031e+00
-1.406610e+00
-1.703152e+00
-2.012101e+00
-2.304929e+00
-2.606352e+00
-2.903432e+00
-3.201717e+00
-3.501737e+00
-3.800301e+00
-4.100518e+00
-4.400487e+00
-4.700596e+00
-5.001280e+00
-5.301771e+00
-5.602438e+00
-5.903459e+00
-6.204148e+00
-6.505277e+00
-6.805671e+00
-7.104770e+00
-7.406885e+00
-7.708908e+00
-8.019072e+00
-8.343207e+00
-8.668460e+00
-9.037547e+00
-9.509979e+00
-9.925630e+00
-1.013225e+01
0.000000e+00
-2.329911e-01
-4.743762e-01
-7.386329e-01
-1.005380e+00
-1.259162e+00
-1.528112e+00
-1.788381e+00
-2.050771e+00
-2.315373e+00
-2.575540e+00
-2.839914e+00
-3.101089e+00
-3.363461e+00
-3.625894e+00
-3.887069e+00
-4.149466e+00
-4.410702e+00
-4.672138e+00
-4.933735e+00
-5.194318e+00
-5.455750e+00
-5.716389e+00
-5.976868e+00
-6.238836e+00
-6.498148e+00
-6.759746e+00
-7.021730e+00
-7.276686e+00
-7.539500e+00
-7.782659e+00
-7.879333e+00
-7.984899e+00
0.000000e+00
-1.141072e-01
-2.607914e-01
-4.576179e-01
-6.720946e-01
-8.782116e-01
-1.104586e+00
-1.327175e+00
-1.551245e+00
-1.779335e+00
-2.001912e+00
-2.228584e+00
-2.452264e+00
-2.676689e+00
-2.901222e+00
-3.124603e+00
-3.349146e+00
-3.572841e+00
-3.796910e+00
-4.021288e+00
-4.244891e+00
-4.469331e+00
-4.693735e+00
-4.917953e+00
-5.141231e+00
-5.358524e+00
-5.567846e+00
-5.764193e+00
-5.940858e+00
-6.088340e+00
-6.166697e+00
-6.170163e+00
-6.262886e+00
0.000000e+00
-1.026919e-01
-1.918614e-01
-3.384573e-01
-4.645231e-01
-6.224695e-01
-7.973734e-01
-9.694423e-01
-1.154440e+00
-1.335716e+00
-1.520370e+00
-1.705507e+00
-1.891024e+00
-2.077444e+00
-2.264439e+00
-2.452000e+00
-2.640655e+00
-2.830024e+00
-3.020102e+00
-3.211081e+00
-3.401842e+00
-3.592521e+00
-3.782070e+00
-3.967495e+00
-4.146547e+00
-4.313447e+00
-4.463405e+00
-4.592430e+00
-4.691268e+00
-4.749650e+00
-4.760765e+00
-4.775201e+00
-4.856459e+00
0.000000e+00
-9.116835e-02
-1.810778e-01
-2.729272e-01
-3.826048e-01
-4.998669e-01
-6.304575e-01
-7.652999e-01
-9.073779e-01
-1.051123e+00
-1.196243e+00
-1.343905e+00
-1.490500e+00
-1.639101e+00
-1.787466e+00
-1.936270e+00
-2.085937e+00
-2.235157e+00
-2.384698e+00
-2.533431e+00
-2.680506e+00
-2.825136e+00
-2.965116e+00
-3.098415e+00
-3.221981e+00
-3.332402e+00
-3.425633e+00
-3.496810e+00
-3.541500e+00
-3.559462e+00
-3.556951e+00
-3.586082e+00
-3.660325e+00
0.000000e+00
-7.279914e-02
-1.432260e-01
-2.173004e-01
-2.978485e-01
-3.858470e-01
-4.800844e-01
-5.806677e-01
-6.844355e-01
-7.914209e-01
-8.997235e-01
-1.008683e+00
-1.118408e+00
-1.227916e+00
-1.337699e+00
-1.447254e+00
-1.556437e+00
-1.665157e+00
-1.772689e+00
-1.878557e+00
-1.981659e+00
-2.080520e+00
-2.173496e+00
-2.258396e+00
-2.332947e+00
-2.394813e+00
-2.441741e+00
-2.471521e+00
-2.484315e+00
-2.477742e+00
-2.473039e+00
-2.502105e+00
-2.570479e+00
0.000000e+00
-5.020414e-02
-9.998281e-02
-1.510644e-01
-2.055854e-01
-2.640768e-01
-3.267350e-01
-3.927955e-01
-4.615942e-01
-5.320713e-01
-6.035401e-01
-6.754008e-01
-7.472329e-01
-8.188742e-01
-8.900551e-01
-9.606377e-01
-1.030374e+00
-1.098939e+00
-1.165903e+00
-1.230559e+00
-1.291910e+00
-1.348608e+00
-1.399058e+00
-1.441534e+00
-1.474271e+00
-1.495531e+00
-1.504418e+00
-1.500239e+00
-1.479511e+00
-1.450986e+00
-1.441238e+00
-1.469503e+00
-1.537811e+00
0.000000e+00
-2.640795e-02
-5.271914e-02
-7.963425e-02
-1.078692e-01
-1.378834e-01
-1.696639e-01
-2.029945e-01
-2.374062e-01
-2.724427e-01
-3.076316e-01
-3.426215e-01
-3.771655e-01
-4.110634e-01
-4.441517e-01
-4.762183e-01
-5.070336e-01
-5.363259e-01
-5.637403e-01
-5.887605e-01
-6.105844e-01
-6.280800e-01
-6.398955e-01
-6.447887e-01
-6.414363e-01
-6.287936e-01
-6.049394e-01
-5.657455e-01
-5.186085e-01
-4.740372e-01
-4.573239e-01
-4.861375e-01
-5.558942e-01
0.000000e+00
-1.866228e-03
-3.785345e-03
-5.689415e-03
-7.507620e-03
-9.160563e-03
-1.056089e-02
-1.160863e-02
-1.219485e-02
-1.219859e-02
-1.149951e-02
-9.988604e-03
-7.572765e-03
-4.150784e-03
4.219233e-04
6.342566e-03
1.382959e-02
2.308808e-02
3.431925e-02
4.777678e-02
6.391039e-02
8.348501e-02
1.075691e-01
1.373480e-01
1.733075e-01
2.179746e-01
2.754229e-01
3.425925e-01
4.077907e-01
4.527518e-01
4.638828e-01
4.309694e-01
3.586779e-01
0.000000e+00
2.275863e-02
4.531929e-02
6.852091e-02
9.322913e-02
1.200611e-01
1.491853e-01
1.805665e-01
2.139351e-01
2.490256e-01
2.855661e-01
3.233861e-01
3.624210e-01
4.026975e-01
4.443687e-01
4.876300e-01
5.326888e-01
5.797133e-01
6.288317e-01
6.801320e-01
7.336675e-01
7.897657e-01
8.489704e-01
9.121629e-01
9.827022e-01
1.062375e+00
1.146652e+00
1.229801e+00
1.298031e+00
1.337699e+00
1.338209e+00
1.300379e+00
1.240081e+00
0.000000e+00
4.679191e-02
9.306202e-02
1.406998e-01
1.919971e-01
2.476833e-01
3.081229e-01
3.727648e-01
4.410423e-01
5.120224e-01
5.850530e-01
6.595845e-01
7.352903e-01
8.122318e-01
8.905325e-01
9.704751e-01
1.052189e+00
1.135836e+00
1.221724e+00
1.310117e+00
1.401358e+00
1.495452e+00
1.592263e+00
1.693354e+00
1.797966e+00
1.904598e+00
2.007109e+00
2.093711e+00
2.156643e+00
2.187069e+00
2.184067e+00
2.154905e+00
2.111064e+00
0.000000e+00
6.973885e-02
1.370094e-01
2.080023e-01
2.857715e-01
3.714840e-01
4.642877e-01
5.643322e-01
6.687924e-01
7.774264e-01
8.884678e-01
1.001052e+00
1.115143e+00
1.230048e+00
1.346488e+00
1.464267e+00
1.583260e+00
1.703448e+00
1.825068e+00
1.949302e+00
2.077784e+00
2.211736e+00
2.349419e+00
2.485826e+00
2.617550e+00
2.741401e+00
2.851509e+00
2.940079e+00
2.999885e+00
3.031009e+00
3.035356e+00
3.017790e+00
2.989791e+00
0.000000e+00
8.859129e-02
1.756588e-01
2.648152e-01
3.719667e-01
4.876678e-01
6.173951e-01
7.532743e-01
8.970854e-01
1.044352e+00
1.193825e+00
1.346471e+00
1.499336e+00
1.655257e+00
1.812790e+00
1.972641e+00
2.134525e+00
2.297604e+00
2.462246e+00
2.627659e+00
2.795069e+00
2.962576e+00
3.127947e+00
3.288792e+00
3.440005e+00
3.577498e+00
3.696160e+00
3.790223e+00
3.858007e+00
3.897979e+00
3.911718e+00
3.905335e+00
3.890550e+00
0.000000e+00
1.007340e-01
1.879253e-01
3.313770e-01
4.551058e-01
6.110562e-01
7.856114e-01
9.584451e-01
1.146339e+00
1.331075e+00
1.520553e+00
1.710092e+00
1.901069e+00
2.095249e+00
2.292733e+00
2.493180e+00
2.696264e+00
2.902323e+00
3.110818e+00
3.320239e+00
3.527352e+00
3.728612e+00
3.921584e+00
4.106206e+00
4.280456e+00
4.437033e+00
4.570766e+00
4.677033e+00
4.754085e+00
4.802564e+00
4.825232e+00
4.828221e+00
4.823334e+00
0.000000e+00
1.138641e-01
2.595654e-01
4.541067e-01
6.658696e-01
8.694099e-01
1.093848e+00
1.315936e+00
1.540438e+00
1.770589e+00
1.995677e+00
2.224741e+00
2.451019e+00
2.679329e+00
2.909652e+00
3.140191e+00
3.371967e+00
3.603832e+00
3.836932e+00
4.070608e+00
4.302426e+00
4.529379e+00
4.751272e+00
4.968409e+00
5.172952e+00
5.353501e+00
5.502220e+00
5.617522e+00
5.700627e+00
5.754166e+00
5.782349e+00
5.791593e+00
5.792692e+00
0.000000e+00
2.334121e-01
4.750723e-01
7.392552e-01
1.005713e+00
1.259318e+00
1.527737e+00
1.787628e+00
2.049585e+00
2.313590e+00
2.573252e+00
2.836812e+00
3.097085e+00
3.358224e+00
3.619039e+00
3.878391e+00
4.138244e+00
4.396331e+00
4.653478e+00
4.909834e+00
5.164041e+00
5.417095e+00
5.670772e+00
5.921987e+00
6.153938e+00
6.351217e+00
6.508640e+00
6.626419e+00
6.707693e+00
6.757707e+00
6.783360e+00
6.792690e+00
6.794974e+00
0.000000e+00
4.576468e-01
7.692585e-01
1.105510e+00
1.412665e+00
1.711720e+00
2.022770e+00
2.316310e+00
2.618010e+00
2.913464e+00
3.209753e+00
3.507479e+00
3.803161e+00
4.099084e+00
4.392387e+00
4.683974e+00
4.975119e+00
5.264812e+00
5.552304e+00
5.839600e+00
6.125314e+00
6.413085e+00
6.703499e+00
6.987270e+00
7.241417e+00
7.450046e+00
7.609056e+00
7.719444e+00
7.785633e+00
7.815602e+00
7.821059e+00
7.816494e+00
7.813922e+00
0.000000e+00
-2.729220e-01
-5.686289e-01
-9.434308e-01
-1.354762e+00
-1.805802e+00
-2.298163e+00
-2.823067e+00
-3.385996e+00
-3.983404e+00
-4.616829e+00
-5.287756e+00
-5.994917e+00
-6.740412e+00
-7.523288e+00
-8.344358e+00
-9.203892e+00
-1.010158e+01
-1.103819e+01
-1.201343e+01
-1.302786e+01
-1.408195e+01
-1.517546e+01
-1.630891e+01
-1.748229e+01
-1.869712e+01
-1.995862e+01
-2.127260e+01
-2.264961e+01
-2.410857e+01
-2.566559e+01
-2.747927e+01
-3.003093e+01
0.000000e+00
-1.746681e-01
-4.884702e-01
-8.559722e-01
-1.272710e+00
-1.721305e+00
-2.213831e+00
-2.739935e+00
-3.301563e+00
-3.899940e+00
-4.532697e+00
-5.203806e+00
-5.911062e+00
-6.656328e+00
-7.439435e+00
-8.260366e+00
-9.119955e+00
-1.001770e+01
-1.095422e+01
-1.192957e+01
-1.294387e+01
-1.399795e+01
-1.509164e+01
-1.622480e+01
-1.739826e+01
-1.861269e+01
-1.987239e+01
-2.118616e+01
-2.256158e+01
-2.401370e+01
-2.559140e+01
-2.738981e+01
-2.965348e+01
0.000000e+00
-1.503060e-01
-4.305905e-01
-7.979205e-01
-1.206015e+00
-1.652550e+00
-2.143569e+00
-2.668332e+00
-3.229944e+00
-3.827910e+00
-4.460939e+00
-5.131894e+00
-5.839515e+00
-6.584700e+00
-7.368077e+00
-8.189033e+00
-9.048699e+00
-9.946589e+00
-1.088304e+01
-1.185861e+01
-1.287279e+01
-1.392672e+01
-1.502036e+01
-1.615345e+01
-1.732808e+01
-1.854408e+01
-1.980631e+01
-2.112380e+01
-2.250414e+01
-2.397712e+01
-2.559350e+01
-2.728489e+01
-2.904350e+01
0.000000e+00
-1.859114e-01
-4.269273e-01
-7.863795e-01
-1.168188e+00
-1.607009e+00
-2.094425e+00
-2.612277e+00
-3.174636e+00
-3.770264e+00
-4.403331e+00
-5.074352e+00
-5.781566e+00
-6.527166e+00
-7.310463e+00
-8.131429e+00
-8.991279e+00
-9.889095e+00
-1.082569e+01
-1.180149e+01
-1.281584e+01
-1.387004e+01
-1.496429e+01
-1.609877e+01
-1.727600e+01
-1.849652e+01
-1.976455e+01
-2.108834e+01
-2.247855e+01
-2.396796e+01
-2.557783e+01
-2.713255e+01
-2.854093e+01
0.000000e+00
-2.040088e-01
-4.580880e-01
-7.854941e-01
-1.163979e+00
-1.587334e+00
-2.065615e+00
-2.577996e+00
-3.135899e+00
-3.730277e+00
-4.361644e+00
-5.033001e+00
-5.739592e+00
-6.485628e+00
-7.268951e+00
-8.090010e+00
-8.950156e+00
-9.848027e+00
-1.078508e+01
-1.176133e+01
-1.277661e+01
-1.383213e+01
-1.492812e+01
-1.606552e+01
-1.724597e+01
-1.847119e+01
-1.974489e+01
-2.107322e+01
-2.246542e+01
-2.394507e+01
-2.548597e+01
-2.692946e+01
-2.818978e+01
0.000000e+00
-2.117045e-01
-4.732353e-01
-7.906737e-01
-1.160381e+00
-1.579258e+00
-2.046156e+00
-2.556500e+00
-3.108922e+00
-3.701631e+00
-4.332792e+00
-5.002765e+00
-5.710522e+00
-6.456289e+00
-7.240176e+00
-8.061999e+00
-8.922351e+00
-9.821247e+00
-1.075915e+01
-1.173661e+01
-1.275391e+01
-1.381178e+01
-1.491079e+01
-1.605165e+01
-1.723538e+01
-1.846349e+01
-1.973926e+01
-2.106676e+01
-2.244616e+01
-2.388847e+01
-2.533498e+01
-2.669883e+01
-2.788811e+01
0.000000e+00
-2.155309e-01
-4.792516e-01
-7.938131e-01
-1.159076e+00
-1.573559e+00
-2.035421e+00
-2.542322e+00
-3.092230e+00
-3.683310e+00
-4.314239e+00
-4.984104e+00
-5.692377e+00
-6.438815e+00
-7.223369e+00
-8.046156e+00
-8.907379e+00
-9.807373e+00
-1.074662e+01
-1.172573e+01
-1.274536e+01
-1.380609e+01
-1.490834e+01
-1.605245e+01
-1.723872e+01
-1.846745e+01
-1.974014e+01
-2.106055e+01
-2.241232e+01
-2.380361e+01
-2.517699e+01
-2.647009e+01
-2.759875e+01
0.000000e+00
-2.169769e-01
-4.815443e-01
-7.952653e-01
-1.158546e+00
-1.570673e+00
-2.030204e+00
-2.535299e+00
-3.084051e+00
-3.674709e+00
-4.305797e+00
-4.976236e+00
-5.685312e+00
-6.432681e+00
-7.218268e+00
-8.042151e+00
-8.904525e+00
-9.805719e+00
-1.074629e+01
-1.172702e+01
-1.274877e+01
-1.381215e+01
-1.491724e+01
-1.606377e+01
-1.725114e+01
-1.847820e+01
-1.974274e+01
-2.104578e+01
-2.236469e+01
-2.370334e+01
-2.501842e+01
-2.624728e+01
-2.731751e+01
0.000000e+00
-2.172599e-01
-4.820672e-01
-7.956953e-01
-1.158617e+00
-1.570330e+00
-2.029578e+00
-2.534666e+00
-3.083767e+00
-3.675125e+00
-4.307203e+00
-4.978781e+00
-5.689050e+00
-6.437625e+00
-7.224447e+00
-8.049601e+00
-8.913216e+00
-9.815556e+00
-1.075718e+01
-1.173902e+01
-1.276221e+01
-1.382752e+01
-1.493471e+01
-1.608220e+01
-1.726866e+01
-1.849000e+01
-1.974060e+01
-2.101917e+01
-2.230995e+01
-2.359740e+01
-2.485422e+01
-2.601380e+01
-2.701368e+01
0.000000e+00
-2.167274e-01
-4.813324e-01
-7.953835e-01
-1.159306e+00
-1.572417e+00
-2.033307e+00
-2.540168e+00
-3.091101e+00
-3.684316e+00
-4.318209e+00
-4.991494e+00
-5.703304e+00
-6.453292e+00
-7.241496e+00
-8.068030e+00
-8.932917e+00
-9.836260e+00
-1.077854e+01
-1.176072e+01
-1.278428e+01
-1.385036e+01
-1.495832e+01
-1.610518e+01
-1.728548e+01
-1.849656e+01
-1.973163e+01
-2.098717e+01
-2.224897e+01
-2.349535e+01
-2.469461e+01
-2.579605e+01
-2.675618e+01
0.000000e+00
-2.150340e-01
-4.788320e-01
-7.940539e-01
-1.160604e+00
-1.577061e+00
-2.041653e+00
-2.552081e+00
-3.106309e+00
-3.702426e+00
-4.338844e+00
-5.014250e+00
-5.727808e+00
-6.479298e+00
-7.268930e+00
-8.096880e+00
-8.962973e+00
-9.867120e+00
-1.080967e+01
-1.179146e+01
-1.281414e+01
-1.387952e+01
-1.498547e+01
-1.612710e+01
-1.729814e+01
-1.849748e+01
-1.971996e+01
-2.095447e+01
-2.218892e+01
-2.339771e+01
-2.455274e+01
-2.561970e+01
-2.656534e+01
0.000000e+00
-2.109408e-01
-4.725888e-01
-7.910220e-01
-1.162645e+00
-1.584544e+00
-2.055559e+00
-2.571268e+00
-3.130110e+00
-3.730199e+00
-4.369411e+00
-5.047292e+00
-5.762550e+00
-6.515459e+00
-7.306529e+00
-8.135678e+00
-9.002643e+00
-9.907064e+00
-1.084931e+01
-1.182991e+01
-1.285094e+01
-1.391268e+01
-1.501244e+01
-1.614593e+01
-1.730871e+01
-1.849872e+01
-1.970976e+01
-2.092814e+01
-2.213674e+01
-2.331585e+01
-2.444150e+01
-2.549050e+01
-2.643811e+01
0.000000e+00
-2.028815e-01
-4.571179e-01
-7.858459e-01
-1.166771e+00
-1.594405e+00
-2.078134e+00
-2.598066e+00
-3.164263e+00
-3.768356e+00
-4.410141e+00
-5.091324e+00
-5.807477e+00
-6.562403e+00
-7.354737e+00
-8.184820e+00
-9.052148e+00
-9.955719e+00
-1.089661e+01
-1.187486e+01
-1.289256e+01
-1.394810e+01
-1.503944e+01
-1.616540e+01
-1.732275e+01
-1.850711e+01
-1.970955e+01
-2.091300e+01
-2.210093e+01
-2.325640e+01
-2.436271e+01
-2.540392e+01
-2.636500e+01
0.000000e+00
-1.842667e-01
-4.255477e-01
-7.861337e-01
-1.171159e+00
-1.615097e+00
-2.110022e+00
-2.636856e+00
-3.209972e+00
-3.816864e+00
-4.462091e+00
-5.144484e+00
-5.862836e+00
-6.619299e+00
-7.413201e+00
-8.243947e+00
-9.110930e+00
-1.001356e+01
-1.095220e+01
-1.192742e+01
-1.293970e+01
-1.398773e+01
-1.507126e+01
-1.619220e+01
-1.734832e+01
-1.852970e+01
-1.972366e+01
-2.091275e+01
-2.208284e+01
-2.322020e+01
-2.431288e+01
-2.535212e+01
-2.633306e+01
0.000000e+00
-1.486534e-01
-4.286348e-01
-7.968767e-01
-1.208220e+00
-1.660549e+00
-2.159980e+00
-2.695009e+00
-3.268407e+00
-3.878701e+00
-4.524102e+00
-5.207124e+00
-5.926768e+00
-6.684097e+00
-7.479004e+00
-8.309690e+00
-9.176429e+00
-1.007854e+01
-1.101581e+01
-1.198841e+01
-1.299571e+01
-1.403749e+01
-1.511627e+01
-1.623593e+01
-1.739108e+01
-1.856759e+01
-1.975047e+01
-2.092600e+01
-2.208123e+01
-2.320448e+01
-2.428706e+01
-2.532608e+01
-2.632736e+01
0.000000e+00
-1.731589e-01
-4.862616e-01
-8.545378e-01
-1.274464e+00
-1.729092e+00
-2.230254e+00
-2.767124e+00
-3.340836e+00
-3.951931e+00
-4.597042e+00
-5.280406e+00
-6.000026e+00
-6.757830e+00
-7.552644e+00
-8.383033e+00
-9.249348e+00
-1.015082e+01
-1.108731e+01
-1.205827e+01
-1.306298e+01
-1.410242e+01
-1.518047e+01
-1.629896e+01
-1.744889e+01
-1.861569e+01
-1.978641e+01
-2.094911e+01
-2.209186e+01
-2.320401e+01
-2.427869e+01
-2.531668e+01
-2.633197e+01
0.000000e+00
-2.716222e-01
-5.667212e-01
-9.423107e-01
-1.356902e+00
-1.813929e+00
-2.314802e+00
-2.850370e+00
-3.425263e+00
-4.035169e+00
-4.680949e+00
-5.364081e+00
-6.083521e+00
-6.841235e+00
-7.635388e+00
-8.465544e+00
-9.331429e+00
-1.023231e+01
-1.116819e+01
-1.213845e+01
-1.314247e+01
-1.418233e+01