TITLE = "Solution"
VARIABLES = x, y, u, v, psiu, psiv, t, stress
ZONE T="structure" N=561 E=512 F=FEBLOCK ET=QUADRILATERAL VARLOCATION=([7,8]=cellcentered)
0.000000e+00
6.250000e+00
1.250000e+01
1.875000e+01
2.500000e+01
3.125000e+01
3.750000e+01
4.375000e+01
5.000000e+01
5.625000e+01
6.250000e+01
6.875000e+01
7.500000e+01
8.125000e+01
8.750000e+01
9.375000e+01
1.000000e+02
1.062500e+02
1.125000e+02
1.187500e+02
1.250000e+02
1.312500e+02
1.375000e+02
1.437500e+02
1.500000e+02
1.562500e+02
1.625000e+02
1.687500e+02
1.750000e+02
1.812500e+02
1.875000e+02
1.937500e+02
2.000000e+02
0.000000e+00
6.250000e+00
1.250000e+01
1.875000e+01
2.500000e+01
3.125000e+01
3.750000e+01
4.375000e+01
5.000000e+01
5.625000e+01
6.250000e+01
6.875000e+01
7.500000e+01
8.125000e+01
8.750000e+01
9.375000e+01
1.000000e+02
1.062500e+02
1.125000e+02
1.187500e+02
1.250000e+02
1.312500e+02
1.375000e+02
1.437500e+02
1.500000e+02
1.562500e+02
1.625000e+02
1.687500e+02
1.750000e+02
1.812500e+02
1.875000e+02
1.937500e+02
2.000000e+02
0.000000e+00
6.250000e+00
1.250000e+01
1.875000e+01
2.500000e+01
3.125000e+01
3.750000e+01
4.375000e+01
5.000000e+01
5.625000e+01
6.250000e+01
6.875000e+01
7.500000e+01
8.125000e+01
8.750000e+01
9.375000e+01
1.000000e+02
1.062500e+02
1.125000e+02
1.187500e+02
1.250000e+02
1.312500e+02
1.375000e+02
1.437500e+02
1.500000e+02
1.562500e+02
1.625000e+02
1.687500e+02
1.750000e+02
1.812500e+02
1.875000e+02
1.937500e+02
2.000000e+02
0.000000e+00
6.250000e+00
1.250000e+01
1.875000e+01
2.500000e+01
3.125000e+01
3.750000e+01
4.375000e+01
5.000000e+01
5.625000e+01
6.250000e+01
6.875000e+01
7.500000e+01
8.125000e+01
8.750000e+01
9.375000e+01
1.000000e+02
1.062500e+02
1.125000e+02
1.187500e+02
1.250000e+02
1.312500e+02
1.375000e+02
1.437500e+02
1.500000e+02
1.562500e+02
1.625000e+02
1.687500e+02
1.750000e+02
1.812500e+02
1.875000e+02
1.937500e+02
2.000000e+02
0.000000e+00
6.250000e+00
1.250000e+01
1.875000e+01
2.500000e+01
3.125000e+01
3.750000e+01
4.375000e+01
5.000000e+01
5.625000e+01
6.250000e+01
6.875000e+01
7.500000e+01
8.125000e+01
8.750000e+01
9.375000e+01
1.000000e+02
1.062500e+02
1.125000e+02
1.187500e+02
1.250000e+02
1.312500e+02
1.375000e+02
1.437500e+02
1.500000e+02
1.562500e+02
1.625000e+02
1.687500e+02
1.750000e+02
1.812500e+02
1.875000e+02
1.937500e+02
2.000000e+02
0.000000e+00
6.250000e+00
1.250000e+01
1.875000e+01
2.500000e+01
3.125000e+01
3.750000e+01
4.375000e+01
5.000000e+01
5.625000e+01
6.250000e+01
6.875000e+01
7.500000e+01
8.125000e+01
8.750000e+01
9.375000e+01
1.000000e+02
1.062500e+02
1.125000e+02
1.187500e+02
1.250000e+02
1.312500e+02
1.375000e+02
1.437500e+02
1.500000e+02
1.562500e+02
1.625000e+02
1.687500e+02
1.750000e+02
1.812500e+02
1.875000e+02
1.937500e+02
2.000000e+02
0.000000e+00
6.250000e+00
1.250000e+01
1.875000e+01
2.500000e+01
3.125000e+01
3.750000e+01
4.375000e+01
5.000000e+01
5.625000e+01
6.250000e+01
6.875000e+01
7.500000e+01
8.125000e+01
8.750000e+01
9.375000e+01
1.000000e+02
1.062500e+02
1.125000e+02
1.187500e+02
1.250000e+02
1.312500e+02
1.375000e+02
1.437500e+02
1.500000e+02
1.562500e+02
1.625000e+02
1.687500e+02
1.750000e+02
1.812500e+02
1.875000e+02
1.937500e+02
2.000000e+02
0.000000e+00
6.250000e+00
1.250000e+01
1.875000e+01
2.500000e+01
3.125000e+01
3.750000e+01
4.375000e+01
5.000000e+01
5.625000e+01
6.250000e+01
6.875000e+01
7.500000e+01
8.125000e+01
8.750000e+01
9.375000e+01
1.000000e+02
1.062500e+02
1.125000e+02
1.187500e+02
1.250000e+02
1.312500e+02
1.375000e+02
1.437500e+02
1.500000e+02
1.562500e+02
1.625000e+02
1.687500e+02
1.750000e+02
1.812500e+02
1.875000e+02
1.937500e+02
2.000000e+02
0.000000e+00
6.250000e+00
1.250000e+01
1.875000e+01
2.500000e+01
3.125000e+01
3.750000e+01
4.375000e+01
5.000000e+01
5.625000e+01
6.250000e+01
6.875000e+01
7.500000e+01
8.125000e+01
8.750000e+01
9.375000e+01
1.000000e+02
1.062500e+02
1.125000e+02
1.187500e+02
1.250000e+02
1.312500e+02
1.375000e+02
1.437500e+02
1.500000e+02
1.562500e+02
1.625000e+02
1.687500e+02
1.750000e+02
1.812500e+02
1.875000e+02
1.937500e+02
2.000000e+02
0.000000e+00
6.250000e+00
1.250000e+01
1.875000e+01
2.500000e+01
3.125000e+01
3.750000e+01
4.375000e+01
5.000000e+01
5.625000e+01
6.250000e+01
6.875000e+01
7.500000e+01
8.125000e+01
8.750000e+01
9.375000e+01
1.000000e+02
1.062500e+02
1.125000e+02
1.187500e+02
1.250000e+02
1.312500e+02
1.375000e+02
1.437500e+02
1.500000e+02
1.562500e+02
1.625000e+02
1.687500e+02
1.750000e+02
1.812500e+02
1.875000e+02
1.937500e+02
2.000000e+02
0.000000e+00
6.250000e+00
1.250000e+01
1.875000e+01
2.500000e+01
3.125000e+01
3.750000e+01
4.375000e+01
5.000000e+01
5.625000e+01
6.250000e+01
6.875000e+01
7.500000e+01
8.125000e+01
8.750000e+01
9.375000e+01
1.000000e+02
1.062500e+02
1.125000e+02
1.187500e+02
1.250000e+02
1.312500e+02
1.375000e+02
1.437500e+02
1.500000e+02
1.562500e+02
1.625000e+02
1.687500e+02
1.750000e+02
1.812500e+02
1.875000e+02
1.937500e+02
2.000000e+02
0.000000e+00
6.250000e+00
1.250000e+01
1.875000e+01
2.500000e+01
3.125000e+01
3.750000e+01
4.375000e+01
5.000000e+01
5.625000e+01
6.250000e+01
6.875000e+01
7.500000e+01
8.125000e+01
8.750000e+01
9.375000e+01
1.000000e+02
1.062500e+02
1.125000e+02
1.187500e+02
1.250000e+02
1.312500e+02
1.375000e+02
1.437500e+02
1.500000e+02
1.562500e+02
1.625000e+02
1.687500e+02
1.750000e+02
1.812500e+02
1.875000e+02
1.937500e+02
2.000000e+02
0.000000e+00
6.250000e+00
1.250000e+01
1.875000e+01
2.500000e+01
3.125000e+01
3.750000e+01
4.375000e+01
5.000000e+01
5.625000e+01
6.250000e+01
6.875000e+01
7.500000e+01
8.125000e+01
8.750000e+01
9.375000e+01
1.000000e+02
1.062500e+02
1.125000e+02
1.187500e+02
1.250000e+02
1.312500e+02
1.375000e+02
1.437500e+02
1.500000e+02
1.562500e+02
1.625000e+02
1.687500e+02
1.750000e+02
1.812500e+02
1.875000e+02
1.937500e+02
2.000000e+02
0.000000e+00
6.250000e+00
1.250000e+01
1.875000e+01
2.500000e+01
3.125000e+01
3.750000e+01
4.375000e+01
5.000000e+01
5.625000e+01
6.250000e+01
6.875000e+01
7.500000e+01
8.125000e+01
8.750000e+01
9.375000e+01
1.000000e+02
1.062500e+02
1.125000e+02
1.187500e+02
1.250000e+02
1.312500e+02
1.375000e+02
1.437500e+02
1.500000e+02
1.562500e+02
1.625000e+02
1.687500e+02
1.750000e+02
1.812500e+02
1.875000e+02
1.937500e+02
2.000000e+02
0.000000e+00
6.250000e+00
1.250000e+01
1.875000e+01
2.500000e+01
3.125000e+01
3.750000e+01
4.375000e+01
5.000000e+01
5.625000e+01
6.250000e+01
6.875000e+01
7.500000e+01
8.125000e+01
8.750000e+01
9.375000e+01
1.000000e+02
1.062500e+02
1.125000e+02
1.187500e+02
1.250000e+02
1.312500e+02
1.375000e+02
1.437500e+02
1.500000e+02
1.562500e+02
1.625000e+02
1.687500e+02
1.750000e+02
1.812500e+02
1.875000e+02
1.937500e+02
2.000000e+02
0.000000e+00
6.250000e+00
1.250000e+01
1.875000e+01
2.500000e+01
3.125000e+01
3.750000e+01
4.375000e+01
5.000000e+01
5.625000e+01
6.250000e+01
6.875000e+01
7.500000e+01
8.125000e+01
8.750000e+01
9.375000e+01
1.000000e+02
1.062500e+02
1.125000e+02
1.187500e+02
1.250000e+02
1.312500e+02
1.375000e+02
1.437500e+02
1.500000e+02
1.562500e+02
1.625000e+02
1.687500e+02
1.750000e+02
1.812500e+02
1.875000e+02
1.937500e+02
2.000000e+02
0.000000e+00
6.250000e+00
1.250000e+01
1.875000e+01
2.500000e+01
3.125000e+01
3.750000e+01
4.375000e+01
5.000000e+01
5.625000e+01
6.250000e+01
6.875000e+01
7.500000e+01
8.125000e+01
8.750000e+01
9.375000e+01
1.000000e+02
1.062500e+02
1.125000e+02
1.187500e+02
1.250000e+02
1.312500e+02
1.375000e+02
1.437500e+02
1.500000e+02
1.562500e+02
1.625000e+02
1.687500e+02
1.750000e+02
1.812500e+02
1.875000e+02
1.937500e+02
2.000000e+02
0.000000e+00
0.000000e+00
0.000000e+00
0.000000e+00
0.000000e+00
0.000000e+00
0.000000e+00
0.000000e+00
0.000000e+00
0.000000e+00
0.000000e+00
0.000000e+00
0.000000e+00
0.000000e+00
0.000000e+00
0.000000e+00
0.000000e+00
0.000000e+00
0.000000e+00
0.000000e+00
0.000000e+00
0.000000e+00
0.000000e+00
0.000000e+00
0.000000e+00
0.000000e+00
0.000000e+00
0.000000e+00
0.000000e+00
0.000000e+00
0.000000e+00
0.000000e+00
0.000000e+00
6.250000e+00
6.250000e+00
6.250000e+00
6.250000e+00
6.250000e+00
6.250000e+00
6.250000e+00
6.250000e+00
6.250000e+00
6.250000e+00
6.250000e+00
6.250000e+00
6.250000e+00
6.250000e+00
6.250000e+00
6.250000e+00
6.250000e+00
6.250000e+00
6.250000e+00
6.250000e+00
6.250000e+00
6.250000e+00
6.250000e+00
6.250000e+00
6.250000e+00
6.250000e+00
6.250000e+00
6.250000e+00
6.250000e+00
6.250000e+00
6.250000e+00
6.250000e+00
6.250000e+00
1.250000e+01
1.250000e+01
1.250000e+01
1.250000e+01
1.250000e+01
1.250000e+01
1.250000e+01
1.250000e+01
1.250000e+01
1.250000e+01
1.250000e+01
1.250000e+01
1.250000e+01
1.250000e+01
1.250000e+01
1.250000e+01
1.250000e+01
1.250000e+01
1.250000e+01
1.250000e+01
1.250000e+01
1.250000e+01
1.250000e+01
1.250000e+01
1.250000e+01
1.250000e+01
1.250000e+01
1.250000e+01
1.250000e+01
1.250000e+01
1.250000e+01
1.250000e+01
1.250000e+01
1.875000e+01
1.875000e+01
1.875000e+01
1.875000e+01
1.875000e+01
1.875000e+01
1.875000e+01
1.875000e+01
1.875000e+01
1.875000e+01
1.875000e+01
1.875000e+01
1.875000e+01
1.875000e+01
1.875000e+01
1.875000e+01
1.875000e+01
1.875000e+01
1.875000e+01
1.875000e+01
1.875000e+01
1.875000e+01
1.875000e+01
1.875000e+01
1.875000e+01
1.875000e+01
1.875000e+01
1.875000e+01
1.875000e+01
1.875000e+01
1.875000e+01
1.875000e+01
1.875000e+01
2.500000e+01
2.500000e+01
2.500000e+01
2.500000e+01
2.500000e+01
2.500000e+01
2.500000e+01
2.500000e+01
2.500000e+01
2.500000e+01
2.500000e+01
2.500000e+01
2.500000e+01
2.500000e+01
2.500000e+01
2.500000e+01
2.500000e+01
2.500000e+01
2.500000e+01
2.500000e+01
2.500000e+01
2.500000e+01
2.500000e+01
2.500000e+01
2.500000e+01
2.500000e+01
2.500000e+01
2.500000e+01
2.500000e+01
2.500000e+01
2.500000e+01
2.500000e+01
2.500000e+01
3.125000e+01
3.125000e+01
3.125000e+01
3.125000e+01
3.125000e+01
3.125000e+01
3.125000e+01
3.125000e+01
3.125000e+01
3.125000e+01
3.125000e+01
3.125000e+01
3.125000e+01
3.125000e+01
3.125000e+01
3.125000e+01
3.125000e+01
3.125000e+01
3.125000e+01
3.125000e+01
3.125000e+01
3.125000e+01
3.125000e+01
3.125000e+01
3.125000e+01
3.125000e+01
3.125000e+01
3.125000e+01
3.125000e+01
3.125000e+01
3.125000e+01
3.125000e+01
3.125000e+01
3.750000e+01
3.750000e+01
3.750000e+01
3.750000e+01
3.750000e+01
3.750000e+01
3.750000e+01
3.750000e+01
3.750000e+01
3.750000e+01
3.750000e+01
3.750000e+01
3.750000e+01
3.750000e+01
3.750000e+01
3.750000e+01
3.750000e+01
3.750000e+01
3.750000e+01
3.750000e+01
3.750000e+01
3.750000e+01
3.750000e+01
3.750000e+01
3.750000e+01
3.750000e+01
3.750000e+01
3.750000e+01
3.750000e+01
3.750000e+01
3.750000e+01
3.750000e+01
3.750000e+01
4.375000e+01
4.375000e+01
4.375000e+01
4.375000e+01
4.375000e+01
4.375000e+01
4.375000e+01
4.375000e+01
4.375000e+01
4.375000e+01
4.375000e+01
4.375000e+01
4.375000e+01
4.375000e+01
4.375000e+01
4.375000e+01
4.375000e+01
4.375000e+01
4.375000e+01
4.375000e+01
4.375000e+01
4.375000e+01
4.375000e+01
4.375000e+01
4.375000e+01
4.375000e+01
4.375000e+01
4.375000e+01
4.375000e+01
4.375000e+01
4.375000e+01
4.375000e+01
4.375000e+01
5.000000e+01
5.000000e+01
5.000000e+01
5.000000e+01
5.000000e+01
5.000000e+01
5.000000e+01
5.000000e+01
5.000000e+01
5.000000e+01
5.000000e+01
5.000000e+01
5.000000e+01
5.000000e+01
5.000000e+01
5.000000e+01
5.000000e+01
5.000000e+01
5.000000e+01
5.000000e+01
5.000000e+01
5.000000e+01
5.000000e+01
5.000000e+01
5.000000e+01
5.000000e+01
5.000000e+01
5.000000e+01
5.000000e+01
5.000000e+01
5.000000e+01
5.000000e+01
5.000000e+01
5.625000e+01
5.625000e+01
5.625000e+01
5.625000e+01
5.625000e+01
5.625000e+01
5.625000e+01
5.625000e+01
5.625000e+01
5.625000e+01
5.625000e+01
5.625000e+01
5.625000e+01
5.625000e+01
5.625000e+01
5.625000e+01
5.625000e+01
5.625000e+01
5.625000e+01
5.625000e+01
5.625000e+01
5.625000e+01
5.625000e+01
5.625000e+01
5.625000e+01
5.625000e+01
5.625000e+01
5.625000e+01
5.625000e+01
5.625000e+01
5.625000e+01
5.625000e+01
5.625000e+01
6.250000e+01
6.250000e+01
6.250000e+01
6.250000e+01
6.250000e+01
6.250000e+01
6.250000e+01
6.250000e+01
6.250000e+01
6.250000e+01
6.250000e+01
6.250000e+01
6.250000e+01
6.250000e+01
6.250000e+01
6.250000e+01
6.250000e+01
6.250000e+01
6.250000e+01
6.250000e+01
6.250000e+01
6.250000e+01
6.250000e+01
6.250000e+01
6.250000e+01
6.250000e+01
6.250000e+01
6.250000e+01
6.250000e+01
6.250000e+01
6.250000e+01
6.250000e+01
6.250000e+01
6.875000e+01
6.875000e+01
6.875000e+01
6.875000e+01
6.875000e+01
6.875000e+01
6.875000e+01
6.875000e+01
6.875000e+01
6.875000e+01
6.875000e+01
6.875000e+01
6.875000e+01
6.875000e+01
6.875000e+01
6.875000e+01
6.875000e+01
6.875000e+01
6.875000e+01
6.875000e+01
6.875000e+01
6.875000e+01
6.875000e+01
6.875000e+01
6.875000e+01
6.875000e+01
6.875000e+01
6.875000e+01
6.875000e+01
6.875000e+01
6.875000e+01
6.875000e+01
6.875000e+01
7.500000e+01
7.500000e+01
7.500000e+01
7.500000e+01
7.500000e+01
7.500000e+01
7.500000e+01
7.500000e+01
7.500000e+01
7.500000e+01
7.500000e+01
7.500000e+01
7.500000e+01
7.500000e+01
7.500000e+01
7.500000e+01
7.500000e+01
7.500000e+01
7.500000e+01
7.500000e+01
7.500000e+01
7.500000e+01
7.500000e+01
7.500000e+01
7.500000e+01
7.500000e+01
7.500000e+01
7.500000e+01
7.500000e+01
7.500000e+01
7.500000e+01
7.500000e+01
7.500000e+01
8.125000e+01
8.125000e+01
8.125000e+01
8.125000e+01
8.125000e+01
8.125000e+01
8.125000e+01
8.125000e+01
8.125000e+01
8.125000e+01
8.125000e+01
8.125000e+01
8.125000e+01
8.125000e+01
8.125000e+01
8.125000e+01
8.125000e+01
8.125000e+01
8.125000e+01
8.125000e+01
8.125000e+01
8.125000e+01
8.125000e+01
8.125000e+01
8.125000e+01
8.125000e+01
8.125000e+01
8.125000e+01
8.125000e+01
8.125000e+01
8.125000e+01
8.125000e+01
8.125000e+01
8.750000e+01
8.750000e+01
8.750000e+01
8.750000e+01
8.750000e+01
8.750000e+01
8.750000e+01
8.750000e+01
8.750000e+01
8.750000e+01
8.750000e+01
8.750000e+01
8.750000e+01
8.750000e+01
8.750000e+01
8.750000e+01
8.750000e+01
8.750000e+01
8.750000e+01
8.750000e+01
8.750000e+01
8.750000e+01
8.750000e+01
8.750000e+01
8.750000e+01
8.750000e+01
8.750000e+01
8.750000e+01
8.750000e+01
8.750000e+01
8.750000e+01
8.750000e+01
8.750000e+01
9.375000e+01
9.375000e+01
9.375000e+01
9.375000e+01
9.375000e+01
9.375000e+01
9.375000e+01
9.375000e+01
9.375000e+01
9.375000e+01
9.375000e+01
9.375000e+01
9.375000e+01
9.375000e+01
9.375000e+01
9.375000e+01
9.375000e+01
9.375000e+01
9.375000e+01
9.375000e+01
9.375000e+01
9.375000e+01
9.375000e+01
9.375000e+01
9.375000e+01
9.375000e+01
9.375000e+01
9.375000e+01
9.375000e+01
9.375000e+01
9.375000e+01
9.375000e+01
9.375000e+01
1.000000e+02
1.000000e+02
1.000000e+02
1.000000e+02
1.000000e+02
1.000000e+02
1.000000e+02
1.000000e+02
1.000000e+02
1.000000e+02
1.000000e+02
1.000000e+02
1.000000e+02
1.000000e+02
1.000000e+02
1.000000e+02
1.000000e+02
1.000000e+02
1.000000e+02
1.000000e+02
1.000000e+02
1.000000e+02
1.000000e+02
1.000000e+02
1.000000e+02
1.000000e+02
1.000000e+02
1.000000e+02
1.000000e+02
1.000000e+02
1.000000e+02
1.000000e+02
1.000000e+02
0.000000e+00
-3.999241e-02
-7.256091e-02
-1.027310e-01
-1.316858e-01
-1.596461e-01
-1.866679e-01
-2.127490e-01
-2.378728e-01
-2.620211e-01
-2.851788e-01
-3.073354e-01
-3.284855e-01
-3.486287e-01
-3.677696e-01
-3.859185e-01
-4.030914e-01
-4.193121e-01
-4.346132e-01
-4.490386e-01
-4.626471e-01
-4.755162e-01
-4.877484e-01
-4.994797e-01
-5.108924e-01
-5.222340e-01
-5.338486e-01
-5.462266e-01
-5.600875e-01
-5.764901e-01
-5.968082e-01
-6.210217e-01
-6.357988e-01
0.000000e+00
-2.681384e-02
-5.578907e-02
-8.310889e-02
-1.090753e-01
-1.339356e-01
-1.578211e-01
-1.807893e-01
-2.028631e-01
-2.240499e-01
-2.443511e-01
-2.637669e-01
-2.822979e-01
-2.999474e-01
-3.167210e-01
-3.326283e-01
-3.476826e-01
-3.619026e-01
-3.753130e-01
-3.879457e-01
-3.998416e-01
-4.110520e-01
-4.216410e-01
-4.316865e-01
-4.412820e-01
-4.505349e-01
-4.595585e-01
-4.684463e-01
-4.771975e-01
-4.855275e-01
-4.924687e-01
-4.965268e-01
-5.021764e-01
0.000000e+00
-2.126880e-02
-4.378694e-02
-6.671399e-02
-8.899198e-02
-1.104490e-01
-1.310713e-01
-1.508784e-01
-1.698879e-01
-1.881118e-01
-2.055577e-01
-2.222311e-01
-2.381367e-01
-2.532791e-01
-2.676639e-01
-2.812982e-01
-2.941907e-01
-3.063527e-01
-3.177977e-01
-3.285421e-01
-3.386047e-01
-3.480058e-01
-3.567654e-01
-3.648992e-01
-3.724103e-01
-3.792746e-01
-3.854136e-01
-3.906466e-01
-3.946197e-01
-3.967591e-01
-3.965716e-01
-3.953702e-01
-4.019674e-01
0.000000e+00
-1.687491e-02
-3.468178e-02
-5.297612e-02
-7.122759e-02
-8.903696e-02
-1.062517e-01
-1.228172e-01
-1.387185e-01
-1.539551e-01
-1.685308e-01
-1.824506e-01
-1.957191e-01
-2.083405e-01
-2.203185e-01
-2.316565e-01
-2.423577e-01
-2.524247e-01
-2.618596e-01
-2.706630e-01
-2.788327e-01
-2.863610e-01
-2.932314e-01
-2.994119e-01
-3.048454e-01
-3.094359e-01
-3.130316e-01
-3.154127e-01
-3.163219e-01
-3.156470e-01
-3.140078e-01
-3.139099e-01
-3.201954e-01
0.000000e+00
-1.309728e-02
-2.681877e-02
-4.097859e-02
-5.525343e-02
-6.935320e-02
-8.308334e-02
-9.634535e-02
-1.090945e-01
-1.213134e-01
-1.329978e-01
-1.441481e-01
-1.547665e-01
-1.648547e-01
-1.744135e-01
-1.834419e-01
-1.919372e-01
-1.998943e-01
-2.073048e-01
-2.141564e-01
-2.204308e-01
-2.261009e-01
-2.311282e-01
-2.354573e-01
-2.390118e-01
-2.416910e-01
-2.433770e-01
-2.439684e-01
-2.434832e-01
-2.422960e-01
-2.415258e-01
-2.433044e-01
-2.486663e-01
0.000000e+00
-9.625741e-03
-1.966389e-02
-3.002453e-02
-4.052864e-02
-5.098015e-02
-6.122339e-02
-7.115719e-02
-8.072600e-02
-8.990282e-02
-9.867626e-02
-1.070423e-01
-1.149995e-01
-1.225465e-01
-1.296803e-01
-1.363960e-01
-1.426855e-01
-1.485374e-01
-1.539358e-01
-1.588596e-01
-1.632811e-01
-1.671644e-01
-1.704642e-01
-1.731250e-01
-1.750838e-01
-1.762790e-01
-1.766755e-01
-1.763196e-01
-1.754426e-01
-1.746081e-01
-1.748113e-01
-1.770787e-01
-1.815153e-01
0.000000e+00
-6.334895e-03
-1.292036e-02
-1.971474e-02
-2.662114e-02
-3.352331e-02
-4.031716e-02
-4.692682e-02
-5.330479e-02
-5.942489e-02
-6.527388e-02
-7.084509e-02
-7.613426e-02
-8.113699e-02
-8.584724e-02
-9.025639e-02
-9.435256e-02
-9.811999e-02
-1.015385e-01
-1.045828e-01
-1.072225e-01
-1.094216e-01
-1.111403e-01
-1.123380e-01
-1.129815e-01
-1.130613e-01
-1.126213e-01
-1.118071e-01
-1.109286e-01
-1.105027e-01
-1.111672e-01
-1.133747e-01
-1.169560e-01
0.000000e+00
-3.146540e-03
-6.412038e-03
-9.779710e-03
-1.320702e-02
-1.663983e-02
-2.002673e-02
-2.332747e-02
-2.651487e-02
-2.957234e-02
-3.249002e-02
-3.526142e-02
-3.788086e-02
-4.034184e-02
-4.263598e-02
-4.475227e-02
-4.667649e-02
-4.839090e-02
-4.987393e-02
-5.110033e-02
-5.204176e-02
-5.266841e-02
-5.295227e-02
-5.287332e-02
-5.242999e-02
-5.165612e-02
-5.064535e-02
-4.958034e-02
-4.875358e-02
-4.854648e-02
-4.932604e-02
-5.125185e-02
-5.409349e-02
0.000000e+00
-5.076627e-06
-1.100758e-05
-1.746428e-05
-2.410712e-05
-3.047817e-05
-3.588730e-05
-3.928577e-05
-3.911852e-05
-3.314629e-05
-1.823096e-05
9.919779e-06
5.704795e-05
1.306746e-04
2.404470e-04
3.984739e-04
6.195961e-04
9.215103e-04
1.324611e-03
1.851349e-03
2.524809e-03
3.366059e-03
4.389693e-03
5.596821e-03
6.964829e-03
8.433793e-03
9.891245e-03
1.116103e-02
1.200866e-02
1.218055e-02
1.148842e-02
9.920969e-03
7.725667e-03
0.000000e+00
3.136979e-03
6.391263e-03
9.746682e-03
1.316133e-02
1.658189e-02
1.995825e-02
2.325211e-02
2.643920e-02
2.950710e-02
3.245184e-02
3.527499e-02
3.798165e-02
4.057951e-02
4.307837e-02
4.549011e-02
4.782866e-02
5.010990e-02
5.235122e-02
5.457053e-02
5.678441e-02
5.900506e-02
6.123565e-02
6.346378e-02
6.565324e-02
6.773494e-02
6.959990e-02
7.109990e-02
7.206369e-02
7.233655e-02
7.184238e-02
7.065166e-02
6.902231e-02
0.000000e+00
6.327084e-03
1.290327e-02
1.968738e-02
2.658299e-02
3.347449e-02
4.025878e-02
4.686155e-02
5.323760e-02
5.936411e-02
6.523259e-02
7.084290e-02
7.619958e-02
8.130985e-02
8.618269e-02
9.082846e-02
9.525879e-02
9.948634e-02
1.035242e-01
1.073849e-01
1.110784e-01
1.146095e-01
1.179733e-01
1.211504e-01
1.241008e-01
1.267592e-01
1.290331e-01
1.308091e-01
1.319716e-01
1.324363e-01
1.321974e-01
1.313734e-01
1.302363e-01
0.000000e+00
9.620759e-03
1.965278e-02
3.000645e-02
4.050297e-02
5.094664e-02
6.118240e-02
7.111000e-02
8.067535e-02
8.985355e-02
9.863624e-02
1.070236e-01
1.150199e-01
1.226314e-01
1.298652e-01
1.367291e-01
1.432311e-01
1.493794e-01
1.551820e-01
1.606456e-01
1.657739e-01
1.705658e-01
1.750119e-01
1.790915e-01
1.827682e-01
1.859889e-01
1.886839e-01
1.907756e-01
1.921941e-01
1.929048e-01
1.929448e-01
1.924615e-01
1.917428e-01
0.000000e+00
1.309604e-02
2.681568e-02
4.097304e-02
5.524487e-02
6.934112e-02
8.306744e-02
9.632560e-02
1.090713e-01
1.212878e-01
1.329717e-01
1.441249e-01
1.547515e-01
1.648559e-01
1.744424e-01
1.835149e-01
1.920767e-01
2.001308e-01
2.076790e-01
2.147216e-01
2.212567e-01
2.272781e-01
2.327743e-01
2.377263e-01
2.421063e-01
2.458775e-01
2.489967e-01
2.514209e-01
2.531198e-01
2.540959e-01
2.544125e-01
2.542310e-01
2.538524e-01
0.000000e+00
1.687804e-02
3.468815e-02
5.298560e-02
7.123991e-02
8.905176e-02
1.062685e-01
1.228351e-01
1.387362e-01
1.539704e-01
1.685404e-01
1.824496e-01
1.957006e-01
2.082949e-01
2.202327e-01
2.315130e-01
2.421337e-01
2.520913e-01
2.613810e-01
2.699960e-01
2.779278e-01
2.851653e-01
2.916947e-01
2.974996e-01
3.025614e-01
3.068612e-01
3.103828e-01
3.131184e-01
3.150762e-01
3.162929e-01
3.168525e-01
3.169193e-01
3.167937e-01
0.000000e+00
2.127645e-02
4.380328e-02
6.673957e-02
8.902730e-02
1.104944e-01
1.311270e-01
1.509437e-01
1.699610e-01
1.881888e-01
2.056321e-01
2.222922e-01
2.381681e-01
2.532567e-01
2.675534e-01
2.810515e-01
2.937429e-01
3.056172e-01
3.166617e-01
3.268619e-01
3.362009e-01
3.446606e-01
3.522226e-01
3.588699e-01
3.645901e-01
3.693786e-01
3.732441e-01
3.762140e-01
3.783395e-01
3.797008e-01
3.804134e-01
3.806454e-01
3.806731e-01
0.000000e+00
2.682532e-02
5.581417e-02
8.314926e-02
1.091329e-01
1.340124e-01
1.579188e-01
1.809089e-01
2.030041e-01
2.242094e-01
2.445226e-01
2.639380e-01
2.824484e-01
3.000452e-01
3.167185e-01
3.324563e-01
3.472444e-01
3.610653e-01
3.738982e-01
3.857191e-01
3.965005e-01
4.062135e-01
4.148294e-01
4.223234e-01
4.286801e-01
4.338998e-01
4.380071e-01
4.410599e-01
4.431569e-01
4.444419e-01
4.450984e-01
4.453364e-01
4.453947e-01
0.000000e+00
4.000499e-02
7.259026e-02
1.027813e-01
1.317611e-01
1.597504e-01
1.868056e-01
2.129240e-01
2.380884e-01
2.622786e-01
2.854759e-01
3.076643e-01
3.288295e-01
3.489580e-01
3.680356e-01
3.860466e-01
4.029717e-01
4.187874e-01
4.334648e-01
4.469690e-01
4.592594e-01
4.702909e-01
4.800160e-01
4.883901e-01
4.953787e-01
5.009678e-01
5.051771e-01
5.080768e-01
5.098052e-01
5.105840e-01
5.107255e-01
5.106083e-01
5.105423e-01
0.000000e+00
-2.471455e-02
-4.313221e-02
-6.323033e-02
-8.561077e-02
-1.108917e-01
-1.392488e-01
-1.707315e-01
-2.053082e-01
-2.429049e-01
-2.834220e-01
-3.267448e-01
-3.727497e-01
-4.213080e-01
-4.722882e-01
-5.255583e-01
-5.809868e-01
-6.384444e-01
-6.978064e-01
-7.589552e-01
-8.217844e-01
-8.862046e-01
-9.521516e-01
-1.019600e+00
-1.088584e+00
-1.159230e+00
-1.231820e+00
-1.306902e+00
-1.385524e+00
-1.469761e+00
-1.564090e+00
-1.679078e+00
-1.837937e+00
0.000000e+00
-1.535915e-02
-3.463759e-02
-5.487128e-02
-7.756367e-02
-1.031193e-01
-1.317519e-01
-1.635101e-01
-1.983651e-01
-2.362429e-01
-2.770432e-01
-3.206504e-01
-3.669399e-01
-4.157819e-01
-4.670438e-01
-5.205920e-01
-5.762936e-01
-6.340173e-01
-6.936360e-01
-7.550293e-01
-8.180869e-01
-8.827147e-01
-9.488429e-01
-1.016439e+00
-1.085527e+00
-1.156223e+00
-1.228793e+00
-1.303769e+00
-1.382176e+00
-1.466055e+00
-1.559657e+00
-1.672085e+00
-1.820500e+00
0.000000e+00
-1.128218e-02
-2.792466e-02
-4.788234e-02
-7.061437e-02
-9.635828e-02
-1.252170e-01
-1.572172e-01
-1.923204e-01
-2.304491e-01
-2.715013e-01
-3.153605e-01
-3.619016e-01
-4.109942e-01
-4.625052e-01
-5.163007e-01
-5.722469e-01
-6.302119e-01
-6.900678e-01
-7.516930e-01
-8.149764e-01
-8.798231e-01
-9.461632e-01
-1.013965e+00
-1.083255e+00
-1.154157e+00
-1.226949e+00
-1.302174e+00
-1.380847e+00
-1.464805e+00
-1.557189e+00
-1.661708e+00
-1.777650e+00
0.000000e+00
-9.034291e-03
-2.364656e-02
-4.253998e-02
-6.497988e-02
-9.071580e-02
-1.196979e-01
-1.518774e-01
-1.871849e-01
-2.255287e-01
-2.668002e-01
-3.108802e-01
-3.576423e-01
-4.069559e-01
-4.586884e-01
-5.127057e-01
-5.688748e-01
-6.270642e-01
-6.871467e-01
-7.490016e-01
-8.125194e-01
-8.776076e-01
-9.441994e-01
-1.012268e+00
-1.081848e+00
-1.153068e+00
-1.226203e+00
-1.301753e+00
-1.380551e+00
-1.463805e+00
-1.552675e+00
-1.646405e+00
-1.733658e+00
0.000000e+00
-7.644496e-03
-2.084883e-02
-3.874628e-02
-6.067464e-02
-8.624183e-02
-1.152348e-01
-1.475189e-01
-1.829773e-01
-2.214942e-01
-2.629491e-01
-3.072172e-01
-3.541699e-01
-4.036762e-01
-4.556038e-01
-5.098198e-01
-5.661924e-01
-6.245916e-01
-6.848918e-01
-7.469746e-01
-8.107329e-01
-8.760768e-01
-9.429425e-01
-1.011305e+00
-1.081196e+00
-1.152729e+00
-1.226127e+00
-1.301752e+00
-1.380081e+00
-1.461498e+00
-1.545614e+00
-1.629343e+00
-1.705331e+00
0.000000e+00
-6.760156e-03
-1.901316e-02
-3.613562e-02
-5.757037e-02
-8.289806e-02
-1.118280e-01
-1.441534e-01
-1.797111e-01
-2.183578e-01
-2.599581e-01
-3.043796e-01
-3.514909e-01
-4.011602e-01
-4.532558e-01
-5.076464e-01
-5.642016e-01
-6.227935e-01
-6.832985e-01
-7.456001e-01
-8.095926e-01
-8.751868e-01
-9.423169e-01
-1.010951e+00
-1.081100e+00
-1.152833e+00
-1.226275e+00
-1.301586e+00
-1.378852e+00
-1.457813e+00
-1.537266e+00
-1.614372e+00
-1.684846e+00
0.000000e+00
-6.210549e-03
-1.785257e-02
-3.443864e-02
-5.549073e-02
-8.060016e-02
-1.094442e-01
-1.417736e-01
-1.773901e-01
-2.161265e-01
-2.578340e-01
-3.023728e-01
-3.496085e-01
-3.994088e-01
-4.516427e-01
-5.061803e-01
-5.628931e-01
-6.216550e-01
-6.823438e-01
-7.448435e-01
-8.090478e-01
-8.748637e-01
-9.422168e-01
-1.011056e+00
-1.081359e+00
-1.153125e+00
-1.226361e+00
-1.301026e+00
-1.376904e+00
-1.453377e+00
-1.529122e+00
-1.601956e+00
-1.669203e+00
0.000000e+00
-5.908533e-03
-1.720858e-02
-3.348235e-02
-5.429824e-02
-7.926166e-02
-1.080396e-01
-1.403618e-01
-1.760100e-01
-2.148020e-01
-2.565796e-01
-3.011985e-01
-3.485220e-01
-3.984181e-01
-4.507567e-01
-5.054094e-01
-5.622491e-01
-6.211508e-01
-6.819927e-01
-7.446578e-01
-8.090359e-01
-8.750257e-01
-9.425375e-01
-1.011493e+00
-1.081824e+00
-1.153458e+00
-1.226289e+00
-1.300118e+00
-1.374552e+00
-1.448859e+00
-1.521844e+00
-1.591866e+00
-1.657098e+00
0.000000e+00
-5.811224e-03
-1.700082e-02
-3.317241e-02
-5.390959e-02
-7.882359e-02
-1.075794e-01
-1.399012e-01
-1.755643e-01
-2.143824e-01
-2.561942e-01
-3.008546e-01
-3.482272e-01
-3.981806e-01
-4.505862e-01
-5.053167e-01
-5.622463e-01
-6.212502e-01
-6.822058e-01
-7.449928e-01
-8.094945e-01
-8.755980e-01
-9.431934e-01
-1.012172e+00
-1.082416e+00
-1.153788e+00
-1.226092e+00
-1.299031e+00
-1.372133e+00
-1.444679e+00
-1.515659e+00
-1.583819e+00
-1.647822e+00
0.000000e+00
-5.905718e-03
-1.720468e-02
-3.347899e-02
-5.429722e-02
-7.926523e-02
-1.080507e-01
-1.403844e-01
-1.760491e-01
-2.148646e-01
-2.566744e-01
-3.013363e-01
-3.487166e-01
-3.986858e-01
-4.511166e-01
-5.058831e-01
-5.628598e-01
-6.219216e-01
-6.829438e-01
-7.458017e-01
-8.103699e-01
-8.765215e-01
-9.441254e-01
-1.013041e+00
-1.083109e+00
-1.154134e+00
-1.225863e+00
-1.297946e+00
-1.369897e+00
-1.441061e+00
-1.510606e+00
-1.577562e+00
-1.640908e+00
0.000000e+00
-6.205148e-03
-1.784508e-02
-3.443215e-02
-5.548870e-02
-8.060687e-02
-1.094653e-01
-1.418166e-01
-1.774649e-01
-2.162463e-01
-2.580153e-01
-3.026369e-01
-3.499814e-01
-3.999220e-01
-4.523330e-01
-5.070894e-01
-5.640658e-01
-6.231361e-01
-6.841727e-01
-7.470454e-01
-8.116199e-01
-8.777550e-01
-9.452988e-01
-1.014083e+00
-1.083911e+00
-1.154551e+00
-1.225708e+00
-1.297016e+00
-1.368006e+00
-1.438107e+00
-1.506644e+00
-1.572870e+00
-1.636000e+00
0.000000e+00
-6.752649e-03
-1.900274e-02
-3.612656e-02
-5.756744e-02
-8.290724e-02
-1.118572e-01
-1.442131e-01
-1.798153e-01
-2.185247e-01
-2.602112e-01
-3.047485e-01
-3.520121e-01
-4.018779e-01
-4.542218e-01
-5.089192e-01
-5.658445e-01
-6.248701e-01
-6.858654e-01
-7.486948e-01
-8.132152e-01
-8.792728e-01
-9.466975e-01
-1.015298e+00
-1.084851e+00
-1.155095e+00
-1.225718e+00
-1.296349e+00
-1.366555e+00
-1.435845e+00
-1.503686e+00
-1.569522e+00
-1.632783e+00
0.000000e+00
-7.635652e-03
-2.083656e-02
-3.873561e-02
-6.067125e-02
-8.625294e-02
-1.152700e-01
-1.475909e-01
-1.831031e-01
-2.216958e-01
-2.632550e-01
-3.076632e-01
-3.548002e-01
-4.045444e-01
-4.567726e-01
-5.113605e-01
-5.681818e-01
-6.271074e-01
-6.880040e-01
-7.507311e-01
-8.151386e-01
-8.810618e-01
-9.483171e-01
-1.016695e+00
-1.085955e+00
-1.155816e+00
-1.225957e+00
-1.296013e+00
-1.365585e+00
-1.434257e+00
-1.501621e+00
-1.567300e+00
-1.630942e+00
0.000000e+00
-9.025201e-03
-2.363396e-02
-4.252913e-02
-6.497696e-02
-9.072885e-02
-1.197376e-01
-1.519578e-01
-1.873248e-01
-2.257525e-01
-2.671392e-01
-3.113740e-01
-3.583398e-01
-4.079161e-01
-4.599802e-01
-5.144076e-01
-5.710713e-01
-6.298410e-01
-6.905808e-01
-7.531468e-01
-8.173834e-01
-8.831186e-01
-9.501593e-01
-1.018285e+00
-1.087242e+00
-1.156741e+00
-1.226456e+00
-1.296031e+00
-1.365096e+00
-1.433294e+00
-1.500323e+00
-1.565973e+00
-1.630139e+00
0.000000e+00
-1.127426e-02
-2.791363e-02
-4.787318e-02
-7.061350e-02
-9.637417e-02
-1.252608e-01
-1.573037e-01
-1.924691e-01
-2.306852e-01
-2.718573e-01
-3.158771e-01
-3.626290e-01
-4.119929e-01
-4.638458e-01
-5.180629e-01
-5.745163e-01
-6.330745e-01
-6.936000e-01
-7.559463e-01
-8.199546e-01
-8.854486e-01
-9.522298e-01
-1.020072e+00
-1.088716e+00
-1.157870e+00
-1.227208e+00
-1.296381e+00
-1.365041e+00
-1.432872e+00
-1.499650e+00
-1.565306e+00
-1.629999e+00
0.000000e+00
-1.535406e-02
-3.463009e-02
-5.486589e-02
-7.756701e-02
-1.031400e-01
-1.318013e-01
-1.636029e-01
-1.985208e-01
-2.364866e-01
-2.774068e-01
-3.211739e-01
-3.676722e-01
-4.167815e-01
-4.683786e-01
-5.223376e-01
-5.785302e-01
-6.368236e-01
-6.970789e-01
-7.591482e-01
-8.228706e-01
-8.880681e-01
-9.545403e-01
-1.022060e+00
-1.090368e+00
-1.159174e+00
-1.228157e+00
-1.296980e+00
-1.365308e+00
-1.432852e+00
-1.499430e+00
-1.565065e+00
-1.630118e+00
0.000000e+00
-2.471382e-02
-4.312972e-02
-6.323081e-02
-8.562087e-02
-1.109201e-01
-1.393069e-01
-1.708338e-01
-2.054738e-01
-2.431582e-01
-2.837937e-01
-3.272730e-01
-3.734805e-01
-4.222959e-01
-4.735953e-01
-5.272525e-01
-5.831379e-01
-6.411174e-01
-7.010508e-01
-7.627884e-01
-8.261681e-01
-8.910107e-01
-9.571157e-01