TITLE = "Solution"
VARIABLES = x, y, u, v, psiu, psiv, t, stress
ZONE T="structure" N=561 E=512 F=FEBLOCK ET=QUADRILATERAL VARLOCATION=([7,8]=cellcentered)
0.000000e+00
6.250000e+00
1.250000e+01
1.875000e+01
2.500000e+01
3.125000e+01
3.750000e+01
4.375000e+01
5.000000e+01
5.625000e+01
6.250000e+01
6.875000e+01
7.500000e+01
8.125000e+01
8.750000e+01
9.375000e+01
1.000000e+02
1.062500e+02
1.125000e+02
1.187500e+02
1.250000e+02
1.312500e+02
1.375000e+02
1.437500e+02
1.500000e+02
1.562500e+02
1.625000e+02
1.687500e+02
1.750000e+02
1.812500e+02
1.875000e+02
1.937500e+02
2.000000e+02
0.000000e+00
6.250000e+00
1.250000e+01
1.875000e+01
2.500000e+01
3.125000e+01
3.750000e+01
4.375000e+01
5.000000e+01
5.625000e+01
6.250000e+01
6.875000e+01
7.500000e+01
8.125000e+01
8.750000e+01
9.375000e+01
1.000000e+02
1.062500e+02
1.125000e+02
1.187500e+02
1.250000e+02
1.312500e+02
1.375000e+02
1.437500e+02
1.500000e+02
1.562500e+02
1.625000e+02
1.687500e+02
1.750000e+02
1.812500e+02
1.875000e+02
1.937500e+02
2.000000e+02
0.000000e+00
6.250000e+00
1.250000e+01
1.875000e+01
2.500000e+01
3.125000e+01
3.750000e+01
4.375000e+01
5.000000e+01
5.625000e+01
6.250000e+01
6.875000e+01
7.500000e+01
8.125000e+01
8.750000e+01
9.375000e+01
1.000000e+02
1.062500e+02
1.125000e+02
1.187500e+02
1.250000e+02
1.312500e+02
1.375000e+02
1.437500e+02
1.500000e+02
1.562500e+02
1.625000e+02
1.687500e+02
1.750000e+02
1.812500e+02
1.875000e+02
1.937500e+02
2.000000e+02
0.000000e+00
6.250000e+00
1.250000e+01
1.875000e+01
2.500000e+01
3.125000e+01
3.750000e+01
4.375000e+01
5.000000e+01
5.625000e+01
6.250000e+01
6.875000e+01
7.500000e+01
8.125000e+01
8.750000e+01
9.375000e+01
1.000000e+02
1.062500e+02
1.125000e+02
1.187500e+02
1.250000e+02
1.312500e+02
1.375000e+02
1.437500e+02
1.500000e+02
1.562500e+02
1.625000e+02
1.687500e+02
1.750000e+02
1.812500e+02
1.875000e+02
1.937500e+02
2.000000e+02
0.000000e+00
6.250000e+00
1.250000e+01
1.875000e+01
2.500000e+01
3.125000e+01
3.750000e+01
4.375000e+01
5.000000e+01
5.625000e+01
6.250000e+01
6.875000e+01
7.500000e+01
8.125000e+01
8.750000e+01
9.375000e+01
1.000000e+02
1.062500e+02
1.125000e+02
1.187500e+02
1.250000e+02
1.312500e+02
1.375000e+02
1.437500e+02
1.500000e+02
1.562500e+02
1.625000e+02
1.687500e+02
1.750000e+02
1.812500e+02
1.875000e+02
1.937500e+02
2.000000e+02
0.000000e+00
6.250000e+00
1.250000e+01
1.875000e+01
2.500000e+01
3.125000e+01
3.750000e+01
4.375000e+01
5.000000e+01
5.625000e+01
6.250000e+01
6.875000e+01
7.500000e+01
8.125000e+01
8.750000e+01
9.375000e+01
1.000000e+02
1.062500e+02
1.125000e+02
1.187500e+02
1.250000e+02
1.312500e+02
1.375000e+02
1.437500e+02
1.500000e+02
1.562500e+02
1.625000e+02
1.687500e+02
1.750000e+02
1.812500e+02
1.875000e+02
1.937500e+02
2.000000e+02
0.000000e+00
6.250000e+00
1.250000e+01
1.875000e+01
2.500000e+01
3.125000e+01
3.750000e+01
4.375000e+01
5.000000e+01
5.625000e+01
6.250000e+01
6.875000e+01
7.500000e+01
8.125000e+01
8.750000e+01
9.375000e+01
1.000000e+02
1.062500e+02
1.125000e+02
1.187500e+02
1.250000e+02
1.312500e+02
1.375000e+02
1.437500e+02
1.500000e+02
1.562500e+02
1.625000e+02
1.687500e+02
1.750000e+02
1.812500e+02
1.875000e+02
1.937500e+02
2.000000e+02
0.000000e+00
6.250000e+00
1.250000e+01
1.875000e+01
2.500000e+01
3.125000e+01
3.750000e+01
4.375000e+01
5.000000e+01
5.625000e+01
6.250000e+01
6.875000e+01
7.500000e+01
8.125000e+01
8.750000e+01
9.375000e+01
1.000000e+02
1.062500e+02
1.125000e+02
1.187500e+02
1.250000e+02
1.312500e+02
1.375000e+02
1.437500e+02
1.500000e+02
1.562500e+02
1.625000e+02
1.687500e+02
1.750000e+02
1.812500e+02
1.875000e+02
1.937500e+02
2.000000e+02
0.000000e+00
6.250000e+00
1.250000e+01
1.875000e+01
2.500000e+01
3.125000e+01
3.750000e+01
4.375000e+01
5.000000e+01
5.625000e+01
6.250000e+01
6.875000e+01
7.500000e+01
8.125000e+01
8.750000e+01
9.375000e+01
1.000000e+02
1.062500e+02
1.125000e+02
1.187500e+02
1.250000e+02
1.312500e+02
1.375000e+02
1.437500e+02
1.500000e+02
1.562500e+02
1.625000e+02
1.687500e+02
1.750000e+02
1.812500e+02
1.875000e+02
1.937500e+02
2.000000e+02
0.000000e+00
6.250000e+00
1.250000e+01
1.875000e+01
2.500000e+01
3.125000e+01
3.750000e+01
4.375000e+01
5.000000e+01
5.625000e+01
6.250000e+01
6.875000e+01
7.500000e+01
8.125000e+01
8.750000e+01
9.375000e+01
1.000000e+02
1.062500e+02
1.125000e+02
1.187500e+02
1.250000e+02
1.312500e+02
1.375000e+02
1.437500e+02
1.500000e+02
1.562500e+02
1.625000e+02
1.687500e+02
1.750000e+02
1.812500e+02
1.875000e+02
1.937500e+02
2.000000e+02
0.000000e+00
6.250000e+00
1.250000e+01
1.875000e+01
2.500000e+01
3.125000e+01
3.750000e+01
4.375000e+01
5.000000e+01
5.625000e+01
6.250000e+01
6.875000e+01
7.500000e+01
8.125000e+01
8.750000e+01
9.375000e+01
1.000000e+02
1.062500e+02
1.125000e+02
1.187500e+02
1.250000e+02
1.312500e+02
1.375000e+02
1.437500e+02
1.500000e+02
1.562500e+02
1.625000e+02
1.687500e+02
1.750000e+02
1.812500e+02
1.875000e+02
1.937500e+02
2.000000e+02
0.000000e+00
6.250000e+00
1.250000e+01
1.875000e+01
2.500000e+01
3.125000e+01
3.750000e+01
4.375000e+01
5.000000e+01
5.625000e+01
6.250000e+01
6.875000e+01
7.500000e+01
8.125000e+01
8.750000e+01
9.375000e+01
1.000000e+02
1.062500e+02
1.125000e+02
1.187500e+02
1.250000e+02
1.312500e+02
1.375000e+02
1.437500e+02
1.500000e+02
1.562500e+02
1.625000e+02
1.687500e+02
1.750000e+02
1.812500e+02
1.875000e+02
1.937500e+02
2.000000e+02
0.000000e+00
6.250000e+00
1.250000e+01
1.875000e+01
2.500000e+01
3.125000e+01
3.750000e+01
4.375000e+01
5.000000e+01
5.625000e+01
6.250000e+01
6.875000e+01
7.500000e+01
8.125000e+01
8.750000e+01
9.375000e+01
1.000000e+02
1.062500e+02
1.125000e+02
1.187500e+02
1.250000e+02
1.312500e+02
1.375000e+02
1.437500e+02
1.500000e+02
1.562500e+02
1.625000e+02
1.687500e+02
1.750000e+02
1.812500e+02
1.875000e+02
1.937500e+02
2.000000e+02
0.000000e+00
6.250000e+00
1.250000e+01
1.875000e+01
2.500000e+01
3.125000e+01
3.750000e+01
4.375000e+01
5.000000e+01
5.625000e+01
6.250000e+01
6.875000e+01
7.500000e+01
8.125000e+01
8.750000e+01
9.375000e+01
1.000000e+02
1.062500e+02
1.125000e+02
1.187500e+02
1.250000e+02
1.312500e+02
1.375000e+02
1.437500e+02
1.500000e+02
1.562500e+02
1.625000e+02
1.687500e+02
1.750000e+02
1.812500e+02
1.875000e+02
1.937500e+02
2.000000e+02
0.000000e+00
6.250000e+00
1.250000e+01
1.875000e+01
2.500000e+01
3.125000e+01
3.750000e+01
4.375000e+01
5.000000e+01
5.625000e+01
6.250000e+01
6.875000e+01
7.500000e+01
8.125000e+01
8.750000e+01
9.375000e+01
1.000000e+02
1.062500e+02
1.125000e+02
1.187500e+02
1.250000e+02
1.312500e+02
1.375000e+02
1.437500e+02
1.500000e+02
1.562500e+02
1.625000e+02
1.687500e+02
1.750000e+02
1.812500e+02
1.875000e+02
1.937500e+02
2.000000e+02
0.000000e+00
6.250000e+00
1.250000e+01
1.875000e+01
2.500000e+01
3.125000e+01
3.750000e+01
4.375000e+01
5.000000e+01
5.625000e+01
6.250000e+01
6.875000e+01
7.500000e+01
8.125000e+01
8.750000e+01
9.375000e+01
1.000000e+02
1.062500e+02
1.125000e+02
1.187500e+02
1.250000e+02
1.312500e+02
1.375000e+02
1.437500e+02
1.500000e+02
1.562500e+02
1.625000e+02
1.687500e+02
1.750000e+02
1.812500e+02
1.875000e+02
1.937500e+02
2.000000e+02
0.000000e+00
6.250000e+00
1.250000e+01
1.875000e+01
2.500000e+01
3.125000e+01
3.750000e+01
4.375000e+01
5.000000e+01
5.625000e+01
6.250000e+01
6.875000e+01
7.500000e+01
8.125000e+01
8.750000e+01
9.375000e+01
1.000000e+02
1.062500e+02
1.125000e+02
1.187500e+02
1.250000e+02
1.312500e+02
1.375000e+02
1.437500e+02
1.500000e+02
1.562500e+02
1.625000e+02
1.687500e+02
1.750000e+02
1.812500e+02
1.875000e+02
1.937500e+02
2.000000e+02
0.000000e+00
0.000000e+00
0.000000e+00
0.000000e+00
0.000000e+00
0.000000e+00
0.000000e+00
0.000000e+00
0.000000e+00
0.000000e+00
0.000000e+00
0.000000e+00
0.000000e+00
0.000000e+00
0.000000e+00
0.000000e+00
0.000000e+00
0.000000e+00
0.000000e+00
0.000000e+00
0.000000e+00
0.000000e+00
0.000000e+00
0.000000e+00
0.000000e+00
0.000000e+00
0.000000e+00
0.000000e+00
0.000000e+00
0.000000e+00
0.000000e+00
0.000000e+00
0.000000e+00
6.250000e+00
6.250000e+00
6.250000e+00
6.250000e+00
6.250000e+00
6.250000e+00
6.250000e+00
6.250000e+00
6.250000e+00
6.250000e+00
6.250000e+00
6.250000e+00
6.250000e+00
6.250000e+00
6.250000e+00
6.250000e+00
6.250000e+00
6.250000e+00
6.250000e+00
6.250000e+00
6.250000e+00
6.250000e+00
6.250000e+00
6.250000e+00
6.250000e+00
6.250000e+00
6.250000e+00
6.250000e+00
6.250000e+00
6.250000e+00
6.250000e+00
6.250000e+00
6.250000e+00
1.250000e+01
1.250000e+01
1.250000e+01
1.250000e+01
1.250000e+01
1.250000e+01
1.250000e+01
1.250000e+01
1.250000e+01
1.250000e+01
1.250000e+01
1.250000e+01
1.250000e+01
1.250000e+01
1.250000e+01
1.250000e+01
1.250000e+01
1.250000e+01
1.250000e+01
1.250000e+01
1.250000e+01
1.250000e+01
1.250000e+01
1.250000e+01
1.250000e+01
1.250000e+01
1.250000e+01
1.250000e+01
1.250000e+01
1.250000e+01
1.250000e+01
1.250000e+01
1.250000e+01
1.875000e+01
1.875000e+01
1.875000e+01
1.875000e+01
1.875000e+01
1.875000e+01
1.875000e+01
1.875000e+01
1.875000e+01
1.875000e+01
1.875000e+01
1.875000e+01
1.875000e+01
1.875000e+01
1.875000e+01
1.875000e+01
1.875000e+01
1.875000e+01
1.875000e+01
1.875000e+01
1.875000e+01
1.875000e+01
1.875000e+01
1.875000e+01
1.875000e+01
1.875000e+01
1.875000e+01
1.875000e+01
1.875000e+01
1.875000e+01
1.875000e+01
1.875000e+01
1.875000e+01
2.500000e+01
2.500000e+01
2.500000e+01
2.500000e+01
2.500000e+01
2.500000e+01
2.500000e+01
2.500000e+01
2.500000e+01
2.500000e+01
2.500000e+01
2.500000e+01
2.500000e+01
2.500000e+01
2.500000e+01
2.500000e+01
2.500000e+01
2.500000e+01
2.500000e+01
2.500000e+01
2.500000e+01
2.500000e+01
2.500000e+01
2.500000e+01
2.500000e+01
2.500000e+01
2.500000e+01
2.500000e+01
2.500000e+01
2.500000e+01
2.500000e+01
2.500000e+01
2.500000e+01
3.125000e+01
3.125000e+01
3.125000e+01
3.125000e+01
3.125000e+01
3.125000e+01
3.125000e+01
3.125000e+01
3.125000e+01
3.125000e+01
3.125000e+01
3.125000e+01
3.125000e+01
3.125000e+01
3.125000e+01
3.125000e+01
3.125000e+01
3.125000e+01
3.125000e+01
3.125000e+01
3.125000e+01
3.125000e+01
3.125000e+01
3.125000e+01
3.125000e+01
3.125000e+01
3.125000e+01
3.125000e+01
3.125000e+01
3.125000e+01
3.125000e+01
3.125000e+01
3.125000e+01
3.750000e+01
3.750000e+01
3.750000e+01
3.750000e+01
3.750000e+01
3.750000e+01
3.750000e+01
3.750000e+01
3.750000e+01
3.750000e+01
3.750000e+01
3.750000e+01
3.750000e+01
3.750000e+01
3.750000e+01
3.750000e+01
3.750000e+01
3.750000e+01
3.750000e+01
3.750000e+01
3.750000e+01
3.750000e+01
3.750000e+01
3.750000e+01
3.750000e+01
3.750000e+01
3.750000e+01
3.750000e+01
3.750000e+01
3.750000e+01
3.750000e+01
3.750000e+01
3.750000e+01
4.375000e+01
4.375000e+01
4.375000e+01
4.375000e+01
4.375000e+01
4.375000e+01
4.375000e+01
4.375000e+01
4.375000e+01
4.375000e+01
4.375000e+01
4.375000e+01
4.375000e+01
4.375000e+01
4.375000e+01
4.375000e+01
4.375000e+01
4.375000e+01
4.375000e+01
4.375000e+01
4.375000e+01
4.375000e+01
4.375000e+01
4.375000e+01
4.375000e+01
4.375000e+01
4.375000e+01
4.375000e+01
4.375000e+01
4.375000e+01
4.375000e+01
4.375000e+01
4.375000e+01
5.000000e+01
5.000000e+01
5.000000e+01
5.000000e+01
5.000000e+01
5.000000e+01
5.000000e+01
5.000000e+01
5.000000e+01
5.000000e+01
5.000000e+01
5.000000e+01
5.000000e+01
5.000000e+01
5.000000e+01
5.000000e+01
5.000000e+01
5.000000e+01
5.000000e+01
5.000000e+01
5.000000e+01
5.000000e+01
5.000000e+01
5.000000e+01
5.000000e+01
5.000000e+01
5.000000e+01
5.000000e+01
5.000000e+01
5.000000e+01
5.000000e+01
5.000000e+01
5.000000e+01
5.625000e+01
5.625000e+01
5.625000e+01
5.625000e+01
5.625000e+01
5.625000e+01
5.625000e+01
5.625000e+01
5.625000e+01
5.625000e+01
5.625000e+01
5.625000e+01
5.625000e+01
5.625000e+01
5.625000e+01
5.625000e+01
5.625000e+01
5.625000e+01
5.625000e+01
5.625000e+01
5.625000e+01
5.625000e+01
5.625000e+01
5.625000e+01
5.625000e+01
5.625000e+01
5.625000e+01
5.625000e+01
5.625000e+01
5.625000e+01
5.625000e+01
5.625000e+01
5.625000e+01
6.250000e+01
6.250000e+01
6.250000e+01
6.250000e+01
6.250000e+01
6.250000e+01
6.250000e+01
6.250000e+01
6.250000e+01
6.250000e+01
6.250000e+01
6.250000e+01
6.250000e+01
6.250000e+01
6.250000e+01
6.250000e+01
6.250000e+01
6.250000e+01
6.250000e+01
6.250000e+01
6.250000e+01
6.250000e+01
6.250000e+01
6.250000e+01
6.250000e+01
6.250000e+01
6.250000e+01
6.250000e+01
6.250000e+01
6.250000e+01
6.250000e+01
6.250000e+01
6.250000e+01
6.875000e+01
6.875000e+01
6.875000e+01
6.875000e+01
6.875000e+01
6.875000e+01
6.875000e+01
6.875000e+01
6.875000e+01
6.875000e+01
6.875000e+01
6.875000e+01
6.875000e+01
6.875000e+01
6.875000e+01
6.875000e+01
6.875000e+01
6.875000e+01
6.875000e+01
6.875000e+01
6.875000e+01
6.875000e+01
6.875000e+01
6.875000e+01
6.875000e+01
6.875000e+01
6.875000e+01
6.875000e+01
6.875000e+01
6.875000e+01
6.875000e+01
6.875000e+01
6.875000e+01
7.500000e+01
7.500000e+01
7.500000e+01
7.500000e+01
7.500000e+01
7.500000e+01
7.500000e+01
7.500000e+01
7.500000e+01
7.500000e+01
7.500000e+01
7.500000e+01
7.500000e+01
7.500000e+01
7.500000e+01
7.500000e+01
7.500000e+01
7.500000e+01
7.500000e+01
7.500000e+01
7.500000e+01
7.500000e+01
7.500000e+01
7.500000e+01
7.500000e+01
7.500000e+01
7.500000e+01
7.500000e+01
7.500000e+01
7.500000e+01
7.500000e+01
7.500000e+01
7.500000e+01
8.125000e+01
8.125000e+01
8.125000e+01
8.125000e+01
8.125000e+01
8.125000e+01
8.125000e+01
8.125000e+01
8.125000e+01
8.125000e+01
8.125000e+01
8.125000e+01
8.125000e+01
8.125000e+01
8.125000e+01
8.125000e+01
8.125000e+01
8.125000e+01
8.125000e+01
8.125000e+01
8.125000e+01
8.125000e+01
8.125000e+01
8.125000e+01
8.125000e+01
8.125000e+01
8.125000e+01
8.125000e+01
8.125000e+01
8.125000e+01
8.125000e+01
8.125000e+01
8.125000e+01
8.750000e+01
8.750000e+01
8.750000e+01
8.750000e+01
8.750000e+01
8.750000e+01
8.750000e+01
8.750000e+01
8.750000e+01
8.750000e+01
8.750000e+01
8.750000e+01
8.750000e+01
8.750000e+01
8.750000e+01
8.750000e+01
8.750000e+01
8.750000e+01
8.750000e+01
8.750000e+01
8.750000e+01
8.750000e+01
8.750000e+01
8.750000e+01
8.750000e+01
8.750000e+01
8.750000e+01
8.750000e+01
8.750000e+01
8.750000e+01
8.750000e+01
8.750000e+01
8.750000e+01
9.375000e+01
9.375000e+01
9.375000e+01
9.375000e+01
9.375000e+01
9.375000e+01
9.375000e+01
9.375000e+01
9.375000e+01
9.375000e+01
9.375000e+01
9.375000e+01
9.375000e+01
9.375000e+01
9.375000e+01
9.375000e+01
9.375000e+01
9.375000e+01
9.375000e+01
9.375000e+01
9.375000e+01
9.375000e+01
9.375000e+01
9.375000e+01
9.375000e+01
9.375000e+01
9.375000e+01
9.375000e+01
9.375000e+01
9.375000e+01
9.375000e+01
9.375000e+01
9.375000e+01
1.000000e+02
1.000000e+02
1.000000e+02
1.000000e+02
1.000000e+02
1.000000e+02
1.000000e+02
1.000000e+02
1.000000e+02
1.000000e+02
1.000000e+02
1.000000e+02
1.000000e+02
1.000000e+02
1.000000e+02
1.000000e+02
1.000000e+02
1.000000e+02
1.000000e+02
1.000000e+02
1.000000e+02
1.000000e+02
1.000000e+02
1.000000e+02
1.000000e+02
1.000000e+02
1.000000e+02
1.000000e+02
1.000000e+02
1.000000e+02
1.000000e+02
1.000000e+02
1.000000e+02
0.000000e+00
-3.882354e-01
-6.940285e-01
-9.959240e-01
-1.301713e+00
-1.594579e+00
-1.890850e+00
-2.188620e+00
-2.482631e+00
-2.776872e+00
-3.072119e+00
-3.366340e+00
-3.659382e+00
-3.951429e+00
-4.242408e+00
-4.532555e+00
-4.821808e+00
-5.110237e+00
-5.397902e+00
-5.684252e+00
-5.969147e+00
-6.252971e+00
-6.534600e+00
-6.810888e+00
-7.079713e+00
-7.342730e+00
-7.604350e+00
-7.869554e+00
-8.144794e+00
-8.441239e+00
-8.766327e+00
-9.101318e+00
-9.291890e+00
0.000000e+00
-2.386647e-01
-4.928246e-01
-7.519327e-01
-1.017655e+00
-1.273404e+00
-1.532561e+00
-1.793592e+00
-2.051185e+00
-2.308540e+00
-2.566569e+00
-2.823606e+00
-3.079736e+00
-3.335369e+00
-3.590225e+00
-3.844031e+00
-4.096666e+00
-4.348390e+00
-4.599296e+00
-4.848751e+00
-5.096494e+00
-5.342795e+00
-5.586379e+00
-5.823690e+00
-6.051590e+00
-6.269877e+00
-6.480190e+00
-6.683501e+00
-6.878945e+00
-7.059371e+00
-7.196688e+00
-7.264554e+00
-7.352417e+00
0.000000e+00
-1.689666e-01
-3.518360e-01
-5.595409e-01
-7.784838e-01
-9.944571e-01
-1.215511e+00
-1.438691e+00
-1.659889e+00
-1.881091e+00
-2.102618e+00
-2.323407e+00
-2.543873e+00
-2.764430e+00
-2.984406e+00
-3.202959e+00
-3.419895e+00
-3.635554e+00
-3.849824e+00
-4.061867e+00
-4.271135e+00
-4.477254e+00
-4.678467e+00
-4.871331e+00
-5.052561e+00
-5.220454e+00
-5.373879e+00
-5.510234e+00
-5.623670e+00
-5.701654e+00
-5.726676e+00
-5.723213e+00
-5.808429e+00
0.000000e+00
-1.263217e-01
-2.627585e-01
-4.207492e-01
-5.915401e-01
-7.667385e-01
-9.483067e-01
-1.132399e+00
-1.316557e+00
-1.501446e+00
-1.686665e+00
-1.871557e+00
-2.056468e+00
-2.241506e+00
-2.425812e+00
-2.608422e+00
-2.789112e+00
-2.968067e+00
-3.144858e+00
-3.318436e+00
-3.487894e+00
-3.652206e+00
-3.809337e+00
-3.956256e+00
-4.089880e+00
-4.207637e+00
-4.306830e+00
-4.383608e+00
-4.432492e+00
-4.447540e+00
-4.435461e+00
-4.439277e+00
-4.515470e+00
0.000000e+00
-1.033722e-01
-2.103635e-01
-3.293027e-01
-4.569741e-01
-5.924620e-01
-7.333550e-01
-8.773551e-01
-1.023351e+00
-1.170587e+00
-1.318363e+00
-1.466221e+00
-1.614003e+00
-1.761487e+00
-1.908080e+00
-2.053114e+00
-2.196292e+00
-2.337388e+00
-2.475654e+00
-2.609921e+00
-2.738990e+00
-2.861469e+00
-2.975386e+00
-3.078204e+00
-3.167186e+00
-3.239667e+00
-3.292932e+00
-3.324186e+00
-3.331577e+00
-3.318243e+00
-3.304090e+00
-3.328043e+00
-3.403437e+00
0.000000e+00
-7.885441e-02
-1.601597e-01
-2.461919e-01
-3.388473e-01
-4.370856e-01
-5.397857e-01
-6.458051e-01
-7.540678e-01
-8.637029e-01
-9.740421e-01
-1.084512e+00
-1.194681e+00
-1.304269e+00
-1.412970e+00
-1.520375e+00
-1.626038e+00
-1.729372e+00
-1.829433e+00
-1.925010e+00
-2.014810e+00
-2.097426e+00
-2.171162e+00
-2.233969e+00
-2.283656e+00
-2.318179e+00
-2.335900e+00
-2.336221e+00
-2.321376e+00
-2.300364e+00
-2.295134e+00
-2.328813e+00
-2.404975e+00
0.000000e+00
-5.298714e-02
-1.072724e-01
-1.642296e-01
-2.246967e-01
-2.887814e-01
-3.559698e-01
-4.256299e-01
-4.970486e-01
-5.695551e-01
-6.425867e-01
-7.156304e-01
-7.882714e-01
-8.602674e-01
-9.314300e-01
-1.001435e+00
-1.069762e+00
-1.135688e+00
-1.198265e+00
-1.256378e+00
-1.308854e+00
-1.354473e+00
-1.391880e+00
-1.419575e+00
-1.436122e+00
-1.440487e+00
-1.432486e+00
-1.413696e+00
-1.389092e+00
-1.369518e+00
-1.372118e+00
-1.410746e+00
-1.483631e+00
0.000000e+00
-2.657001e-02
-5.378458e-02
-8.215972e-02
-1.121224e-01
-1.437764e-01
-1.769748e-01
-2.114047e-01
-2.466927e-01
-2.824691e-01
-3.183909e-01
-3.541363e-01
-3.894386e-01
-4.241133e-01
-4.579797e-01
-4.907368e-01
-5.219142e-01
-5.508874e-01
-5.768901e-01
-5.990449e-01
-6.164183e-01
-6.280511e-01
-6.329792e-01
-6.303327e-01
-6.195392e-01
-6.006212e-01
-5.747070e-01
-5.448536e-01
-5.170651e-01
-5.010527e-01
-5.087244e-01
-5.473014e-01
-6.120658e-01
0.000000e+00
-8.247796e-05
-1.345860e-04
-1.535155e-04
-1.374589e-04
-7.812547e-05
5.237447e-05
3.014252e-04
7.322954e-04
1.421420e-03
2.448341e-03
3.885553e-03
5.809361e-03
8.329945e-03
1.161848e-02
1.591933e-02
2.155077e-02
2.890267e-02
3.844011e-02
5.071660e-02
6.637509e-02
8.607679e-02
1.103385e-01
1.393636e-01
1.729113e-01
2.100619e-01
2.487589e-01
2.852858e-01
3.139397e-01
3.272510e-01
3.179355e-01
2.834392e-01
2.299767e-01
0.000000e+00
2.638063e-02
5.346609e-02
8.179206e-02
1.118013e-01
1.436154e-01
1.771102e-01
2.120248e-01
2.481097e-01
2.851863e-01
3.231017e-01
3.616833e-01
4.008051e-01
4.404646e-01
4.807554e-01
5.218010e-01
5.637396e-01
6.067131e-01
6.508459e-01
6.963069e-01
7.433895e-01
7.923945e-01
8.433607e-01
8.958995e-01
9.491249e-01
1.001459e+00
1.050344e+00
1.092089e+00
1.121990e+00
1.134946e+00
1.127234e+00
1.099401e+00
1.058394e+00
0.000000e+00
5.275359e-02
1.068552e-01
1.637119e-01
2.242115e-01
2.885023e-01
3.560391e-01
4.261361e-01
4.981826e-01
5.717723e-01
6.465832e-01
7.222558e-01
7.985101e-01
8.752278e-01
9.523439e-01
1.029788e+00
1.107537e+00
1.185560e+00
1.263679e+00
1.341642e+00
1.419278e+00
1.496380e+00
1.572480e+00
1.646753e+00
1.717909e+00
1.783974e+00
1.842267e+00
1.889581e+00
1.922459e+00
1.937801e+00
1.934301e+00
1.914374e+00
1.885353e+00
0.000000e+00
7.863403e-02
1.597304e-01
2.455900e-01
3.381250e-01
4.364237e-01
5.393758e-01
6.457141e-01
7.544205e-01
8.648959e-01
9.766645e-01
1.089259e+00
1.202403e+00
1.315963e+00
1.429689e+00
1.543258e+00
1.656487e+00
1.769233e+00
1.881125e+00
1.991565e+00
2.099819e+00
2.204910e+00
2.305693e+00
2.401012e+00
2.489427e+00
2.568861e+00
2.636803e+00
2.690756e+00
2.728476e+00
2.748384e+00
2.750679e+00
2.738793e+00
2.720333e+00
0.000000e+00
1.032270e-01
2.102072e-01
3.289167e-01
4.561921e-01
5.913160e-01
7.319772e-01
8.759654e-01
1.022344e+00
1.170347e+00
1.319199e+00
1.468490e+00
1.618144e+00
1.768117e+00
1.918086e+00
2.067533e+00
2.216084e+00
2.363441e+00
2.509123e+00
2.652413e+00
2.792086e+00
2.926101e+00
3.052241e+00
3.168884e+00
3.274619e+00
3.367581e+00
3.445682e+00
3.507203e+00
3.550977e+00
3.576590e+00
3.585189e+00
3.580690e+00
3.570892e+00
0.000000e+00
1.262454e-01
2.629550e-01
4.209076e-01
5.910117e-01
7.655553e-01
9.461697e-01
1.129515e+00
1.314021e+00
1.499796e+00
1.685694e+00
1.871315e+00
2.057019e+00
2.242727e+00
2.428137e+00
2.612884e+00
2.796469e+00
2.978302e+00
3.157739e+00
3.334139e+00
3.506041e+00
3.670230e+00
3.822905e+00
3.961557e+00
4.084799e+00
4.191253e+00
4.279503e+00
4.348659e+00
4.398545e+00
4.429770e+00
4.444198e+00
4.445896e+00
4.442573e+00
0.000000e+00
1.686382e-01
3.519127e-01
5.596408e-01
7.780285e-01
9.937834e-01
1.213919e+00
1.435803e+00
1.657165e+00
1.879111e+00
2.100592e+00
2.321305e+00
2.541902e+00
2.761975e+00
2.981159e+00
3.199543e+00
3.416787e+00
3.632056e+00
3.844475e+00
4.053390e+00
4.257232e+00
4.451790e+00
4.631447e+00
4.792309e+00
4.932721e+00
5.051827e+00
5.149003e+00
5.224231e+00
5.278372e+00
5.313191e+00
5.331452e+00
5.337376e+00
5.338021e+00
0.000000e+00
2.381933e-01
4.928065e-01
7.516013e-01
1.016758e+00
1.273266e+00
1.532402e+00
1.792286e+00
2.050084e+00
2.307912e+00
2.564948e+00
2.821115e+00
3.077218e+00
3.332257e+00
3.585692e+00
3.838063e+00
4.089268e+00
4.338401e+00
4.584344e+00
4.826164e+00
5.061968e+00
5.286649e+00
5.492968e+00
5.675589e+00
5.832320e+00
5.962504e+00
6.066035e+00
6.143626e+00
6.197257e+00
6.230284e+00
6.247232e+00
6.253403e+00
6.254900e+00
0.000000e+00
3.881091e-01
6.942832e-01
9.955779e-01
1.300786e+00
1.595183e+00
1.892309e+00
2.189545e+00
2.484106e+00
2.778739e+00
3.072625e+00
3.365901e+00
3.659340e+00
3.951485e+00
4.241750e+00
4.530886e+00
4.818828e+00
5.104658e+00
5.387028e+00
5.664365e+00
5.933769e+00
6.188942e+00
6.421599e+00
6.625581e+00
6.797987e+00
6.937577e+00
7.043960e+00
7.118043e+00
7.162700e+00
7.183177e+00
7.187211e+00
7.184396e+00
7.182741e+00
0.000000e+00
-2.370627e-01
-4.496924e-01
-7.075561e-01
-9.983090e-01
-1.323046e+00
-1.685845e+00
-2.083870e+00
-2.517673e+00
-2.989027e+00
-3.497716e+00
-4.043747e+00
-4.627536e+00
-5.248861e+00
-5.907298e+00
-6.602795e+00
-7.335570e+00
-8.105732e+00
-8.912966e+00
-9.756860e+00
-1.063732e+01
-1.155405e+01
-1.250606e+01
-1.349249e+01
-1.451410e+01
-1.557359e+01
-1.667550e+01
-1.782695e+01
-1.903918e+01
-2.033058e+01
-2.174612e+01
-2.342060e+01
-2.571049e+01
0.000000e+00
-1.472102e-01
-3.698889e-01
-6.234140e-01
-9.152247e-01
-1.240837e+00
-1.602507e+00
-2.000832e+00
-2.435153e+00
-2.906298e+00
-3.414997e+00
-3.961320e+00
-4.545355e+00
-5.166949e+00
-5.825697e+00
-6.521515e+00
-7.254616e+00
-8.025086e+00
-8.832722e+00
-9.677137e+00
-1.055808e+01
-1.147543e+01
-1.242879e+01
-1.341755e+01
-1.444176e+01
-1.550328e+01
-1.660635e+01
-1.775830e+01
-1.897092e+01
-2.026509e+01
-2.168590e+01
-2.333177e+01
-2.542393e+01
0.000000e+00
-1.117560e-01
-3.095333e-01
-5.579978e-01
-8.470920e-01
-1.171270e+00
-1.531751e+00
-1.929701e+00
-2.364046e+00
-2.835141e+00
-3.343859e+00
-3.890255e+00
-4.474339e+00
-5.096115e+00
-5.755280e+00
-6.451645e+00
-7.185307e+00
-7.956401e+00
-8.764815e+00
-9.610146e+00
-1.049213e+01
-1.141088e+01
-1.236640e+01
-1.335821e+01
-1.438605e+01
-1.545135e+01
-1.655836e+01
-1.771504e+01
-1.893524e+01
-2.024305e+01
-2.166754e+01
-2.321556e+01
-2.486380e+01
0.000000e+00
-1.033384e-01
-2.800972e-01
-5.154453e-01
-7.972305e-01
-1.117002e+00
-1.474992e+00
-1.871444e+00
-2.305058e+00
-2.775894e+00
-3.284510e+00
-3.830795e+00
-4.414787e+00
-5.036732e+00
-5.696483e+00
-6.393702e+00
-7.128332e+00
-7.900574e+00
-8.710384e+00
-9.557360e+00
-1.044132e+01
-1.136257e+01
-1.232125e+01
-1.331691e+01
-1.434921e+01
-1.541946e+01
-1.653189e+01
-1.769453e+01
-1.892131e+01
-2.023261e+01
-2.162891e+01
-2.305356e+01
-2.437217e+01
0.000000e+00
-1.073235e-01
-2.723889e-01
-4.949409e-01
-7.659151e-01
-1.079264e+00
-1.433119e+00
-1.826715e+00
-2.258756e+00
-2.728881e+00
-3.237155e+00
-3.783297e+00
-4.367308e+00
-4.989530e+00
-5.649964e+00
-6.348249e+00
-7.084260e+00
-7.858201e+00
-8.670039e+00
-9.519415e+00
-1.040624e+01
-1.133084e+01
-1.229333e+01
-1.329322e+01
-1.433012e+01
-1.540512e+01
-1.652184e+01
-1.768694e+01
-1.891091e+01
-2.020376e+01
-2.154491e+01
-2.285052e+01
-2.401444e+01
0.000000e+00
-1.089941e-01
-2.704105e-01
-4.843896e-01
-7.472005e-01
-1.054366e+00
-1.403887e+00
-1.794328e+00
-2.224440e+00
-2.693583e+00
-3.201418e+00
-3.747539e+00
-4.331813e+00
-4.954480e+00
-5.615646e+00
-6.315108e+00
-7.052788e+00
-7.828837e+00
-8.643185e+00
-9.495513e+00
-1.038575e+01
-1.131410e+01
-1.228056e+01
-1.328449e+01
-1.432524e+01
-1.540333e+01
-1.652099e+01
-1.768207e+01
-1.889119e+01
-2.014734e+01
-2.141678e+01
-2.262552e+01
-2.368794e+01
0.000000e+00
-1.093550e-01
-2.690234e-01
-4.786411e-01
-7.361496e-01
-1.038895e+00
-1.384893e+00
-1.772708e+00
-2.201129e+00
-2.669345e+00
-3.176824e+00
-3.723062e+00
-4.307762e+00
-4.931013e+00
-5.592991e+00
-6.293702e+00
-7.033167e+00
-7.811483e+00
-8.628538e+00
-9.484014e+00
-1.037776e+01
-1.130982e+01
-1.227993e+01
-1.328714e+01
-1.433028e+01
-1.540886e+01
-1.652317e+01
-1.767349e+01
-1.885834e+01
-2.006796e+01
-2.126675e+01
-2.239403e+01
-2.338208e+01
0.000000e+00
-1.094206e-01
-2.681387e-01
-4.756256e-01
-7.303990e-01
-1.030559e+00
-1.374435e+00
-1.760625e+00
-2.187962e+00
-2.655606e+00
-3.162955e+00
-3.709434e+00
-4.294642e+00
-4.918576e+00
-5.581452e+00
-6.283419e+00
-7.024583e+00
-7.805034e+00
-8.624643e+00
-9.483071e+00
-1.038006e+01
-1.131540e+01
-1.228846e+01
-1.329775e+01
-1.434140e+01
-1.541767e+01
-1.652464e+01
-1.765912e+01
-1.881473e+01
-1.997698e+01
-2.111334e+01
-2.217534e+01
-2.311102e+01
0.000000e+00
-1.094642e-01
-2.679160e-01
-4.748010e-01
-7.287850e-01
-1.028209e+00
-1.371502e+00
-1.757267e+00
-2.184346e+00
-2.651946e+00
-3.159476e+00
-3.706339e+00
-4.292109e+00
-4.916773e+00
-5.580562e+00
-6.283668e+00
-7.026249e+00
-7.808437e+00
-8.630139e+00
-9.491012e+00
-1.039069e+01
-1.132864e+01
-1.230365e+01
-1.331364e+01
-1.435594e+01
-1.542748e+01
-1.652419e+01
-1.764013e+01
-1.876591e+01
-1.988536e+01
-2.097055e+01
-2.198379e+01
-2.288577e+01
0.000000e+00
-1.095435e-01
-2.683925e-01
-4.760328e-01
-7.310070e-01
-1.031471e+00
-1.375730e+00
-1.762295e+00
-2.190010e+00
-2.658161e+00
-3.166218e+00
-3.713614e+00
-4.299974e+00
-4.925338e+00
-5.589938e+00
-6.293934e+00
-7.037503e+00
-7.820856e+00
-8.643975e+00
-9.506571e+00
-1.040820e+01
-1.134793e+01
-1.232386e+01
-1.333321e+01
-1.437260e+01
-1.543768e+01
-1.652257e+01
-1.761949e+01
-1.871774e+01
-1.980153e+01
-2.084765e+01
-2.182730e+01
-2.271100e+01
0.000000e+00
-1.095597e-01
-2.694947e-01
-4.794346e-01
-7.373444e-01
-1.040664e+00
-1.387360e+00
-1.775857e+00
-2.205029e+00
-2.674289e+00
-3.183198e+00
-3.731241e+00
-4.318163e+00
-4.944114e+00
-5.609310e+00
-6.313852e+00
-7.057928e+00
-7.841817e+00
-8.665575e+00
-9.529037e+00
-1.043177e+01
-1.137241e+01
-1.234828e+01
-1.335593e+01
-1.439128e+01
-1.544890e+01
-1.652158e+01
-1.760057e+01
-1.867506e+01
-1.973070e+01
-2.074873e+01
-2.170746e+01
-2.258499e+01
0.000000e+00
-1.092271e-01
-2.710443e-01
-4.855151e-01
-7.488829e-01
-1.056840e+00
-1.407285e+00
-1.798615e+00
-2.229838e+00
-2.700612e+00
-3.210569e+00
-3.759278e+00
-4.346691e+00
-4.973068e+00
-5.638581e+00
-6.343295e+00
-7.087432e+00
-7.871289e+00
-8.694941e+00
-9.558384e+00
-1.046130e+01
-1.140197e+01
-1.237696e+01
-1.338210e+01
-1.441267e+01
-1.546244e+01
-1.652340e+01
-1.758646e+01
-1.864128e+01
-1.967539e+01
-2.067405e+01
-2.162143e+01
-2.250192e+01
0.000000e+00
-1.075636e-01
-2.731603e-01
-4.962999e-01
-7.678438e-01
-1.082119e+00
-1.437092e+00
-1.831731e+00
-2.265263e+00
-2.737632e+00
-3.248585e+00
-3.797841e+00
-4.385644e+00
-5.012302e+00
-5.677870e+00
-6.382421e+00
-7.126260e+00
-7.909655e+00
-8.732635e+00
-9.595304e+00
-1.049750e+01
-1.143730e+01
-1.241061e+01
-1.341257e+01
-1.443786e+01
-1.547976e+01
-1.652998e+01
-1.757941e+01
-1.861837e+01
-1.963620e+01
-2.062169e+01
-2.156421e+01
-2.245416e+01
0.000000e+00
-1.036068e-01
-2.809615e-01
-5.169190e-01
-7.990607e-01
-1.119762e+00
-1.479073e+00
-1.876821e+00
-2.312357e+00
-2.785974e+00
-3.297589e+00
-3.847144e+00
-4.435199e+00
-5.062014e+00
-5.727459e+00
-6.431643e+00
-7.174944e+00
-7.957606e+00
-8.779605e+00
-9.641037e+00
-1.054175e+01
-1.147969e+01
-1.245036e+01
-1.344834e+01
-1.446786e+01
-1.550200e+01
-1.654254e+01
-1.758054e+01
-1.860685e+01
-1.961232e+01
-2.058870e+01
-2.152999e+01
-2.243308e+01
0.000000e+00
-1.119130e-01
-3.104100e-01
-5.594360e-01
-8.486855e-01
-1.173643e+00
-1.535576e+00
-1.935169e+00
-2.371832e+00
-2.846001e+00
-3.357804e+00
-3.907399e+00
-4.495504e+00
-5.122295e+00
-5.787516e+00
-6.491287e+00
-7.233976e+00
-8.015798e+00
-8.836741e+00
-9.696773e+00
-1.059545e+01
-1.153047e+01
-1.249723e+01
-1.349012e+01
-1.450320e+01
-1.552960e+01
-1.656132e+01
-1.758967e+01
-1.860589e+01
-1.960189e+01
-2.057155e+01
-2.151274e+01
-2.242911e+01
0.000000e+00
-1.473313e-01
-3.707849e-01
-6.247474e-01
-9.167188e-01
-1.243019e+00
-1.606058e+00
-2.006258e+00
-2.443192e+00
-2.917408e+00
-3.429110e+00
-3.978629e+00
-4.566617e+00
-5.193148e+00
-5.858039e+00
-6.561434e+00
-7.303565e+00
-8.084558e+00
-8.904447e+00
-9.763032e+00
-1.065928e+01
-1.159037e+01
-1.255172e+01
-1.353804e+01
-1.454366e+01
-1.556198e+01
-1.658523e+01
-1.760500e+01
-1.861292e+01
-1.960154e+01
-2.056598e+01
-2.150648e+01
-2.243199e+01
0.000000e+00
-2.372908e-01
-4.505748e-01
-7.086823e-01
-9.998883e-01
-1.325473e+00
-1.689295e+00
-2.089241e+00
-2.525910e+00
-3.000069e+00
-3.511542e+00
-4.061002e+00
-4.648843e+00
-5.274910e+00
-5.939371e+00
-6.642437e+00
-7.384076e+00
-8.164254e+00
-8.982987e+00
-9.839915e+00
-1.073328e+01
-1.165941e+01
-1.261373e+01