TITLE = "Solution"
VARIABLES = x, y, u, v, psiu, psiv, t, stress
ZONE T="structure" N=561 E=512 F=FEBLOCK ET=QUADRILATERAL VARLOCATION=([7,8]=cellcentered)
0.000000e+00
6.250000e+00
1.250000e+01
1.875000e+01
2.500000e+01
3.125000e+01
3.750000e+01
4.375000e+01
5.000000e+01
5.625000e+01
6.250000e+01
6.875000e+01
7.500000e+01
8.125000e+01
8.750000e+01
9.375000e+01
1.000000e+02
1.062500e+02
1.125000e+02
1.187500e+02
1.250000e+02
1.312500e+02
1.375000e+02
1.437500e+02
1.500000e+02
1.562500e+02
1.625000e+02
1.687500e+02
1.750000e+02
1.812500e+02
1.875000e+02
1.937500e+02
2.000000e+02
0.000000e+00
6.250000e+00
1.250000e+01
1.875000e+01
2.500000e+01
3.125000e+01
3.750000e+01
4.375000e+01
5.000000e+01
5.625000e+01
6.250000e+01
6.875000e+01
7.500000e+01
8.125000e+01
8.750000e+01
9.375000e+01
1.000000e+02
1.062500e+02
1.125000e+02
1.187500e+02
1.250000e+02
1.312500e+02
1.375000e+02
1.437500e+02
1.500000e+02
1.562500e+02
1.625000e+02
1.687500e+02
1.750000e+02
1.812500e+02
1.875000e+02
1.937500e+02
2.000000e+02
0.000000e+00
6.250000e+00
1.250000e+01
1.875000e+01
2.500000e+01
3.125000e+01
3.750000e+01
4.375000e+01
5.000000e+01
5.625000e+01
6.250000e+01
6.875000e+01
7.500000e+01
8.125000e+01
8.750000e+01
9.375000e+01
1.000000e+02
1.062500e+02
1.125000e+02
1.187500e+02
1.250000e+02
1.312500e+02
1.375000e+02
1.437500e+02
1.500000e+02
1.562500e+02
1.625000e+02
1.687500e+02
1.750000e+02
1.812500e+02
1.875000e+02
1.937500e+02
2.000000e+02
0.000000e+00
6.250000e+00
1.250000e+01
1.875000e+01
2.500000e+01
3.125000e+01
3.750000e+01
4.375000e+01
5.000000e+01
5.625000e+01
6.250000e+01
6.875000e+01
7.500000e+01
8.125000e+01
8.750000e+01
9.375000e+01
1.000000e+02
1.062500e+02
1.125000e+02
1.187500e+02
1.250000e+02
1.312500e+02
1.375000e+02
1.437500e+02
1.500000e+02
1.562500e+02
1.625000e+02
1.687500e+02
1.750000e+02
1.812500e+02
1.875000e+02
1.937500e+02
2.000000e+02
0.000000e+00
6.250000e+00
1.250000e+01
1.875000e+01
2.500000e+01
3.125000e+01
3.750000e+01
4.375000e+01
5.000000e+01
5.625000e+01
6.250000e+01
6.875000e+01
7.500000e+01
8.125000e+01
8.750000e+01
9.375000e+01
1.000000e+02
1.062500e+02
1.125000e+02
1.187500e+02
1.250000e+02
1.312500e+02
1.375000e+02
1.437500e+02
1.500000e+02
1.562500e+02
1.625000e+02
1.687500e+02
1.750000e+02
1.812500e+02
1.875000e+02
1.937500e+02
2.000000e+02
0.000000e+00
6.250000e+00
1.250000e+01
1.875000e+01
2.500000e+01
3.125000e+01
3.750000e+01
4.375000e+01
5.000000e+01
5.625000e+01
6.250000e+01
6.875000e+01
7.500000e+01
8.125000e+01
8.750000e+01
9.375000e+01
1.000000e+02
1.062500e+02
1.125000e+02
1.187500e+02
1.250000e+02
1.312500e+02
1.375000e+02
1.437500e+02
1.500000e+02
1.562500e+02
1.625000e+02
1.687500e+02
1.750000e+02
1.812500e+02
1.875000e+02
1.937500e+02
2.000000e+02
0.000000e+00
6.250000e+00
1.250000e+01
1.875000e+01
2.500000e+01
3.125000e+01
3.750000e+01
4.375000e+01
5.000000e+01
5.625000e+01
6.250000e+01
6.875000e+01
7.500000e+01
8.125000e+01
8.750000e+01
9.375000e+01
1.000000e+02
1.062500e+02
1.125000e+02
1.187500e+02
1.250000e+02
1.312500e+02
1.375000e+02
1.437500e+02
1.500000e+02
1.562500e+02
1.625000e+02
1.687500e+02
1.750000e+02
1.812500e+02
1.875000e+02
1.937500e+02
2.000000e+02
0.000000e+00
6.250000e+00
1.250000e+01
1.875000e+01
2.500000e+01
3.125000e+01
3.750000e+01
4.375000e+01
5.000000e+01
5.625000e+01
6.250000e+01
6.875000e+01
7.500000e+01
8.125000e+01
8.750000e+01
9.375000e+01
1.000000e+02
1.062500e+02
1.125000e+02
1.187500e+02
1.250000e+02
1.312500e+02
1.375000e+02
1.437500e+02
1.500000e+02
1.562500e+02
1.625000e+02
1.687500e+02
1.750000e+02
1.812500e+02
1.875000e+02
1.937500e+02
2.000000e+02
0.000000e+00
6.250000e+00
1.250000e+01
1.875000e+01
2.500000e+01
3.125000e+01
3.750000e+01
4.375000e+01
5.000000e+01
5.625000e+01
6.250000e+01
6.875000e+01
7.500000e+01
8.125000e+01
8.750000e+01
9.375000e+01
1.000000e+02
1.062500e+02
1.125000e+02
1.187500e+02
1.250000e+02
1.312500e+02
1.375000e+02
1.437500e+02
1.500000e+02
1.562500e+02
1.625000e+02
1.687500e+02
1.750000e+02
1.812500e+02
1.875000e+02
1.937500e+02
2.000000e+02
0.000000e+00
6.250000e+00
1.250000e+01
1.875000e+01
2.500000e+01
3.125000e+01
3.750000e+01
4.375000e+01
5.000000e+01
5.625000e+01
6.250000e+01
6.875000e+01
7.500000e+01
8.125000e+01
8.750000e+01
9.375000e+01
1.000000e+02
1.062500e+02
1.125000e+02
1.187500e+02
1.250000e+02
1.312500e+02
1.375000e+02
1.437500e+02
1.500000e+02
1.562500e+02
1.625000e+02
1.687500e+02
1.750000e+02
1.812500e+02
1.875000e+02
1.937500e+02
2.000000e+02
0.000000e+00
6.250000e+00
1.250000e+01
1.875000e+01
2.500000e+01
3.125000e+01
3.750000e+01
4.375000e+01
5.000000e+01
5.625000e+01
6.250000e+01
6.875000e+01
7.500000e+01
8.125000e+01
8.750000e+01
9.375000e+01
1.000000e+02
1.062500e+02
1.125000e+02
1.187500e+02
1.250000e+02
1.312500e+02
1.375000e+02
1.437500e+02
1.500000e+02
1.562500e+02
1.625000e+02
1.687500e+02
1.750000e+02
1.812500e+02
1.875000e+02
1.937500e+02
2.000000e+02
0.000000e+00
6.250000e+00
1.250000e+01
1.875000e+01
2.500000e+01
3.125000e+01
3.750000e+01
4.375000e+01
5.000000e+01
5.625000e+01
6.250000e+01
6.875000e+01
7.500000e+01
8.125000e+01
8.750000e+01
9.375000e+01
1.000000e+02
1.062500e+02
1.125000e+02
1.187500e+02
1.250000e+02
1.312500e+02
1.375000e+02
1.437500e+02
1.500000e+02
1.562500e+02
1.625000e+02
1.687500e+02
1.750000e+02
1.812500e+02
1.875000e+02
1.937500e+02
2.000000e+02
0.000000e+00
6.250000e+00
1.250000e+01
1.875000e+01
2.500000e+01
3.125000e+01
3.750000e+01
4.375000e+01
5.000000e+01
5.625000e+01
6.250000e+01
6.875000e+01
7.500000e+01
8.125000e+01
8.750000e+01
9.375000e+01
1.000000e+02
1.062500e+02
1.125000e+02
1.187500e+02
1.250000e+02
1.312500e+02
1.375000e+02
1.437500e+02
1.500000e+02
1.562500e+02
1.625000e+02
1.687500e+02
1.750000e+02
1.812500e+02
1.875000e+02
1.937500e+02
2.000000e+02
0.000000e+00
6.250000e+00
1.250000e+01
1.875000e+01
2.500000e+01
3.125000e+01
3.750000e+01
4.375000e+01
5.000000e+01
5.625000e+01
6.250000e+01
6.875000e+01
7.500000e+01
8.125000e+01
8.750000e+01
9.375000e+01
1.000000e+02
1.062500e+02
1.125000e+02
1.187500e+02
1.250000e+02
1.312500e+02
1.375000e+02
1.437500e+02
1.500000e+02
1.562500e+02
1.625000e+02
1.687500e+02
1.750000e+02
1.812500e+02
1.875000e+02
1.937500e+02
2.000000e+02
0.000000e+00
6.250000e+00
1.250000e+01
1.875000e+01
2.500000e+01
3.125000e+01
3.750000e+01
4.375000e+01
5.000000e+01
5.625000e+01
6.250000e+01
6.875000e+01
7.500000e+01
8.125000e+01
8.750000e+01
9.375000e+01
1.000000e+02
1.062500e+02
1.125000e+02
1.187500e+02
1.250000e+02
1.312500e+02
1.375000e+02
1.437500e+02
1.500000e+02
1.562500e+02
1.625000e+02
1.687500e+02
1.750000e+02
1.812500e+02
1.875000e+02
1.937500e+02
2.000000e+02
0.000000e+00
6.250000e+00
1.250000e+01
1.875000e+01
2.500000e+01
3.125000e+01
3.750000e+01
4.375000e+01
5.000000e+01
5.625000e+01
6.250000e+01
6.875000e+01
7.500000e+01
8.125000e+01
8.750000e+01
9.375000e+01
1.000000e+02
1.062500e+02
1.125000e+02
1.187500e+02
1.250000e+02
1.312500e+02
1.375000e+02
1.437500e+02
1.500000e+02
1.562500e+02
1.625000e+02
1.687500e+02
1.750000e+02
1.812500e+02
1.875000e+02
1.937500e+02
2.000000e+02
0.000000e+00
6.250000e+00
1.250000e+01
1.875000e+01
2.500000e+01
3.125000e+01
3.750000e+01
4.375000e+01
5.000000e+01
5.625000e+01
6.250000e+01
6.875000e+01
7.500000e+01
8.125000e+01
8.750000e+01
9.375000e+01
1.000000e+02
1.062500e+02
1.125000e+02
1.187500e+02
1.250000e+02
1.312500e+02
1.375000e+02
1.437500e+02
1.500000e+02
1.562500e+02
1.625000e+02
1.687500e+02
1.750000e+02
1.812500e+02
1.875000e+02
1.937500e+02
2.000000e+02
0.000000e+00
0.000000e+00
0.000000e+00
0.000000e+00
0.000000e+00
0.000000e+00
0.000000e+00
0.000000e+00
0.000000e+00
0.000000e+00
0.000000e+00
0.000000e+00
0.000000e+00
0.000000e+00
0.000000e+00
0.000000e+00
0.000000e+00
0.000000e+00
0.000000e+00
0.000000e+00
0.000000e+00
0.000000e+00
0.000000e+00
0.000000e+00
0.000000e+00
0.000000e+00
0.000000e+00
0.000000e+00
0.000000e+00
0.000000e+00
0.000000e+00
0.000000e+00
0.000000e+00
6.250000e+00
6.250000e+00
6.250000e+00
6.250000e+00
6.250000e+00
6.250000e+00
6.250000e+00
6.250000e+00
6.250000e+00
6.250000e+00
6.250000e+00
6.250000e+00
6.250000e+00
6.250000e+00
6.250000e+00
6.250000e+00
6.250000e+00
6.250000e+00
6.250000e+00
6.250000e+00
6.250000e+00
6.250000e+00
6.250000e+00
6.250000e+00
6.250000e+00
6.250000e+00
6.250000e+00
6.250000e+00
6.250000e+00
6.250000e+00
6.250000e+00
6.250000e+00
6.250000e+00
1.250000e+01
1.250000e+01
1.250000e+01
1.250000e+01
1.250000e+01
1.250000e+01
1.250000e+01
1.250000e+01
1.250000e+01
1.250000e+01
1.250000e+01
1.250000e+01
1.250000e+01
1.250000e+01
1.250000e+01
1.250000e+01
1.250000e+01
1.250000e+01
1.250000e+01
1.250000e+01
1.250000e+01
1.250000e+01
1.250000e+01
1.250000e+01
1.250000e+01
1.250000e+01
1.250000e+01
1.250000e+01
1.250000e+01
1.250000e+01
1.250000e+01
1.250000e+01
1.250000e+01
1.875000e+01
1.875000e+01
1.875000e+01
1.875000e+01
1.875000e+01
1.875000e+01
1.875000e+01
1.875000e+01
1.875000e+01
1.875000e+01
1.875000e+01
1.875000e+01
1.875000e+01
1.875000e+01
1.875000e+01
1.875000e+01
1.875000e+01
1.875000e+01
1.875000e+01
1.875000e+01
1.875000e+01
1.875000e+01
1.875000e+01
1.875000e+01
1.875000e+01
1.875000e+01
1.875000e+01
1.875000e+01
1.875000e+01
1.875000e+01
1.875000e+01
1.875000e+01
1.875000e+01
2.500000e+01
2.500000e+01
2.500000e+01
2.500000e+01
2.500000e+01
2.500000e+01
2.500000e+01
2.500000e+01
2.500000e+01
2.500000e+01
2.500000e+01
2.500000e+01
2.500000e+01
2.500000e+01
2.500000e+01
2.500000e+01
2.500000e+01
2.500000e+01
2.500000e+01
2.500000e+01
2.500000e+01
2.500000e+01
2.500000e+01
2.500000e+01
2.500000e+01
2.500000e+01
2.500000e+01
2.500000e+01
2.500000e+01
2.500000e+01
2.500000e+01
2.500000e+01
2.500000e+01
3.125000e+01
3.125000e+01
3.125000e+01
3.125000e+01
3.125000e+01
3.125000e+01
3.125000e+01
3.125000e+01
3.125000e+01
3.125000e+01
3.125000e+01
3.125000e+01
3.125000e+01
3.125000e+01
3.125000e+01
3.125000e+01
3.125000e+01
3.125000e+01
3.125000e+01
3.125000e+01
3.125000e+01
3.125000e+01
3.125000e+01
3.125000e+01
3.125000e+01
3.125000e+01
3.125000e+01
3.125000e+01
3.125000e+01
3.125000e+01
3.125000e+01
3.125000e+01
3.125000e+01
3.750000e+01
3.750000e+01
3.750000e+01
3.750000e+01
3.750000e+01
3.750000e+01
3.750000e+01
3.750000e+01
3.750000e+01
3.750000e+01
3.750000e+01
3.750000e+01
3.750000e+01
3.750000e+01
3.750000e+01
3.750000e+01
3.750000e+01
3.750000e+01
3.750000e+01
3.750000e+01
3.750000e+01
3.750000e+01
3.750000e+01
3.750000e+01
3.750000e+01
3.750000e+01
3.750000e+01
3.750000e+01
3.750000e+01
3.750000e+01
3.750000e+01
3.750000e+01
3.750000e+01
4.375000e+01
4.375000e+01
4.375000e+01
4.375000e+01
4.375000e+01
4.375000e+01
4.375000e+01
4.375000e+01
4.375000e+01
4.375000e+01
4.375000e+01
4.375000e+01
4.375000e+01
4.375000e+01
4.375000e+01
4.375000e+01
4.375000e+01
4.375000e+01
4.375000e+01
4.375000e+01
4.375000e+01
4.375000e+01
4.375000e+01
4.375000e+01
4.375000e+01
4.375000e+01
4.375000e+01
4.375000e+01
4.375000e+01
4.375000e+01
4.375000e+01
4.375000e+01
4.375000e+01
5.000000e+01
5.000000e+01
5.000000e+01
5.000000e+01
5.000000e+01
5.000000e+01
5.000000e+01
5.000000e+01
5.000000e+01
5.000000e+01
5.000000e+01
5.000000e+01
5.000000e+01
5.000000e+01
5.000000e+01
5.000000e+01
5.000000e+01
5.000000e+01
5.000000e+01
5.000000e+01
5.000000e+01
5.000000e+01
5.000000e+01
5.000000e+01
5.000000e+01
5.000000e+01
5.000000e+01
5.000000e+01
5.000000e+01
5.000000e+01
5.000000e+01
5.000000e+01
5.000000e+01
5.625000e+01
5.625000e+01
5.625000e+01
5.625000e+01
5.625000e+01
5.625000e+01
5.625000e+01
5.625000e+01
5.625000e+01
5.625000e+01
5.625000e+01
5.625000e+01
5.625000e+01
5.625000e+01
5.625000e+01
5.625000e+01
5.625000e+01
5.625000e+01
5.625000e+01
5.625000e+01
5.625000e+01
5.625000e+01
5.625000e+01
5.625000e+01
5.625000e+01
5.625000e+01
5.625000e+01
5.625000e+01
5.625000e+01
5.625000e+01
5.625000e+01
5.625000e+01
5.625000e+01
6.250000e+01
6.250000e+01
6.250000e+01
6.250000e+01
6.250000e+01
6.250000e+01
6.250000e+01
6.250000e+01
6.250000e+01
6.250000e+01
6.250000e+01
6.250000e+01
6.250000e+01
6.250000e+01
6.250000e+01
6.250000e+01
6.250000e+01
6.250000e+01
6.250000e+01
6.250000e+01
6.250000e+01
6.250000e+01
6.250000e+01
6.250000e+01
6.250000e+01
6.250000e+01
6.250000e+01
6.250000e+01
6.250000e+01
6.250000e+01
6.250000e+01
6.250000e+01
6.250000e+01
6.875000e+01
6.875000e+01
6.875000e+01
6.875000e+01
6.875000e+01
6.875000e+01
6.875000e+01
6.875000e+01
6.875000e+01
6.875000e+01
6.875000e+01
6.875000e+01
6.875000e+01
6.875000e+01
6.875000e+01
6.875000e+01
6.875000e+01
6.875000e+01
6.875000e+01
6.875000e+01
6.875000e+01
6.875000e+01
6.875000e+01
6.875000e+01
6.875000e+01
6.875000e+01
6.875000e+01
6.875000e+01
6.875000e+01
6.875000e+01
6.875000e+01
6.875000e+01
6.875000e+01
7.500000e+01
7.500000e+01
7.500000e+01
7.500000e+01
7.500000e+01
7.500000e+01
7.500000e+01
7.500000e+01
7.500000e+01
7.500000e+01
7.500000e+01
7.500000e+01
7.500000e+01
7.500000e+01
7.500000e+01
7.500000e+01
7.500000e+01
7.500000e+01
7.500000e+01
7.500000e+01
7.500000e+01
7.500000e+01
7.500000e+01
7.500000e+01
7.500000e+01
7.500000e+01
7.500000e+01
7.500000e+01
7.500000e+01
7.500000e+01
7.500000e+01
7.500000e+01
7.500000e+01
8.125000e+01
8.125000e+01
8.125000e+01
8.125000e+01
8.125000e+01
8.125000e+01
8.125000e+01
8.125000e+01
8.125000e+01
8.125000e+01
8.125000e+01
8.125000e+01
8.125000e+01
8.125000e+01
8.125000e+01
8.125000e+01
8.125000e+01
8.125000e+01
8.125000e+01
8.125000e+01
8.125000e+01
8.125000e+01
8.125000e+01
8.125000e+01
8.125000e+01
8.125000e+01
8.125000e+01
8.125000e+01
8.125000e+01
8.125000e+01
8.125000e+01
8.125000e+01
8.125000e+01
8.750000e+01
8.750000e+01
8.750000e+01
8.750000e+01
8.750000e+01
8.750000e+01
8.750000e+01
8.750000e+01
8.750000e+01
8.750000e+01
8.750000e+01
8.750000e+01
8.750000e+01
8.750000e+01
8.750000e+01
8.750000e+01
8.750000e+01
8.750000e+01
8.750000e+01
8.750000e+01
8.750000e+01
8.750000e+01
8.750000e+01
8.750000e+01
8.750000e+01
8.750000e+01
8.750000e+01
8.750000e+01
8.750000e+01
8.750000e+01
8.750000e+01
8.750000e+01
8.750000e+01
9.375000e+01
9.375000e+01
9.375000e+01
9.375000e+01
9.375000e+01
9.375000e+01
9.375000e+01
9.375000e+01
9.375000e+01
9.375000e+01
9.375000e+01
9.375000e+01
9.375000e+01
9.375000e+01
9.375000e+01
9.375000e+01
9.375000e+01
9.375000e+01
9.375000e+01
9.375000e+01
9.375000e+01
9.375000e+01
9.375000e+01
9.375000e+01
9.375000e+01
9.375000e+01
9.375000e+01
9.375000e+01
9.375000e+01
9.375000e+01
9.375000e+01
9.375000e+01
9.375000e+01
1.000000e+02
1.000000e+02
1.000000e+02
1.000000e+02
1.000000e+02
1.000000e+02
1.000000e+02
1.000000e+02
1.000000e+02
1.000000e+02
1.000000e+02
1.000000e+02
1.000000e+02
1.000000e+02
1.000000e+02
1.000000e+02
1.000000e+02
1.000000e+02
1.000000e+02
1.000000e+02
1.000000e+02
1.000000e+02
1.000000e+02
1.000000e+02
1.000000e+02
1.000000e+02
1.000000e+02
1.000000e+02
1.000000e+02
1.000000e+02
1.000000e+02
1.000000e+02
1.000000e+02
0.000000e+00
-4.983353e-02
-9.041630e-02
-1.280105e-01
-1.640904e-01
-1.989310e-01
-2.326023e-01
-2.651013e-01
-2.964075e-01
-3.264982e-01
-3.553544e-01
-3.829633e-01
-4.093180e-01
-4.344179e-01
-4.582691e-01
-4.808840e-01
-5.022829e-01
-5.224951e-01
-5.415615e-01
-5.595367e-01
-5.764940e-01
-5.925298e-01
-6.077721e-01
-6.223903e-01
-6.366114e-01
-6.507440e-01
-6.652167e-01
-6.806406e-01
-6.979124e-01
-7.183514e-01
-7.436692e-01
-7.738412e-01
-7.922547e-01
0.000000e+00
-3.341203e-02
-6.951732e-02
-1.035599e-01
-1.359160e-01
-1.668938e-01
-1.966569e-01
-2.252771e-01
-2.527827e-01
-2.791831e-01
-3.044801e-01
-3.286736e-01
-3.517647e-01
-3.737573e-01
-3.946586e-01
-4.144803e-01
-4.332392e-01
-4.509585e-01
-4.676689e-01
-4.834102e-01
-4.982334e-01
-5.122025e-01
-5.253972e-01
-5.379147e-01
-5.498714e-01
-5.614013e-01
-5.726455e-01
-5.837203e-01
-5.946250e-01
-6.050049e-01
-6.136541e-01
-6.187109e-01
-6.257507e-01
0.000000e+00
-2.650250e-02
-5.456178e-02
-8.313058e-02
-1.108906e-01
-1.376277e-01
-1.633247e-01
-1.880059e-01
-2.116932e-01
-2.344015e-01
-2.561405e-01
-2.769169e-01
-2.967365e-01
-3.156051e-01
-3.335297e-01
-3.505191e-01
-3.665842e-01
-3.817390e-01
-3.960004e-01
-4.093887e-01
-4.219275e-01
-4.336420e-01
-4.445572e-01
-4.546926e-01
-4.640520e-01
-4.726054e-01
-4.802551e-01
-4.867759e-01
-4.917267e-01
-4.943926e-01
-4.941589e-01
-4.926619e-01
-5.008825e-01
0.000000e+00
-2.102739e-02
-4.321607e-02
-6.601218e-02
-8.875488e-02
-1.109467e-01
-1.323976e-01
-1.530394e-01
-1.728537e-01
-1.918397e-01
-2.100022e-01
-2.273473e-01
-2.438809e-01
-2.596081e-01
-2.745337e-01
-2.886617e-01
-3.019962e-01
-3.145405e-01
-3.262972e-01
-3.372670e-01
-3.474470e-01
-3.568279e-01
-3.653890e-01
-3.730903e-01
-3.798608e-01
-3.855810e-01
-3.900615e-01
-3.930287e-01
-3.941615e-01
-3.933205e-01
-3.912779e-01
-3.911560e-01
-3.989882e-01
0.000000e+00
-1.632019e-02
-3.341818e-02
-5.106236e-02
-6.884989e-02
-8.641927e-02
-1.035281e-01
-1.200535e-01
-1.359399e-01
-1.511657e-01
-1.657253e-01
-1.796195e-01
-1.928508e-01
-2.054216e-01
-2.173326e-01
-2.285827e-01
-2.391685e-01
-2.490836e-01
-2.583177e-01
-2.668554e-01
-2.746737e-01
-2.817392e-01
-2.880035e-01
-2.933980e-01
-2.978271e-01
-3.011657e-01
-3.032665e-01
-3.040035e-01
-3.033989e-01
-3.019195e-01
-3.009598e-01
-3.031761e-01
-3.098574e-01
0.000000e+00
-1.199439e-02
-2.450267e-02
-3.741280e-02
-5.050171e-02
-6.352508e-02
-7.628894e-02
-8.866720e-02
-1.005907e-01
-1.120257e-01
-1.229581e-01
-1.333828e-01
-1.432981e-01
-1.527022e-01
-1.615916e-01
-1.699599e-01
-1.777971e-01
-1.850890e-01
-1.918158e-01
-1.979513e-01
-2.034608e-01
-2.082997e-01
-2.124115e-01
-2.157271e-01
-2.181679e-01
-2.196572e-01
-2.201513e-01
-2.197079e-01
-2.186150e-01
-2.175752e-01
-2.178284e-01
-2.206538e-01
-2.261820e-01
0.000000e+00
-7.893751e-03
-1.609974e-02
-2.456604e-02
-3.317193e-02
-4.177256e-02
-5.023821e-02
-5.847434e-02
-6.642179e-02
-7.404791e-02
-8.133620e-02
-8.827836e-02
-9.486908e-02
-1.011029e-01
-1.069722e-01
-1.124664e-01
-1.175705e-01
-1.222650e-01
-1.265247e-01
-1.303182e-01
-1.336075e-01
-1.363478e-01
-1.384894e-01
-1.399817e-01
-1.407836e-01
-1.408831e-01
-1.403348e-01
-1.393203e-01
-1.382256e-01
-1.376949e-01
-1.385228e-01
-1.412737e-01
-1.457362e-01
0.000000e+00
-3.920824e-03
-7.989878e-03
-1.218625e-02
-1.645694e-02
-2.073448e-02
-2.495481e-02
-2.906778e-02
-3.303953e-02
-3.684937e-02
-4.048503e-02
-4.393841e-02
-4.720243e-02
-5.026901e-02
-5.312769e-02
-5.576474e-02
-5.816248e-02
-6.029877e-02
-6.214674e-02
-6.367494e-02
-6.484804e-02
-6.562888e-02
-6.598260e-02
-6.588422e-02
-6.533180e-02
-6.436749e-02
-6.310800e-02
-6.178091e-02
-6.075070e-02
-6.049263e-02
-6.146402e-02
-6.386374e-02
-6.740464e-02
0.000000e+00
-6.325912e-06
-1.371638e-05
-2.176198e-05
-3.003951e-05
-3.797836e-05
-4.471859e-05
-4.895339e-05
-4.874500e-05
-4.130314e-05
-2.271747e-05
1.236057e-05
7.108599e-05
1.628306e-04
2.996158e-04
4.965297e-04
7.720656e-04
1.148275e-03
1.650570e-03
2.306928e-03
3.146112e-03
4.194377e-03
5.469906e-03
6.974083e-03
8.678730e-03
1.050918e-02
1.232528e-02
1.390752e-02
1.496374e-02
1.517794e-02
1.431549e-02
1.236232e-02
9.626797e-03
0.000000e+00
3.908909e-03
7.963990e-03
1.214509e-02
1.640000e-02
2.066228e-02
2.486948e-02
2.897388e-02
3.294524e-02
3.676807e-02
4.043746e-02
4.395531e-02
4.732803e-02
5.056516e-02
5.367894e-02
5.668416e-02
5.959817e-02
6.244078e-02
6.523364e-02
6.799907e-02
7.075775e-02
7.352486e-02
7.630434e-02
7.908077e-02
8.180902e-02
8.440298e-02
8.672687e-02
8.859599e-02
8.979695e-02
9.013695e-02
8.952117e-02
8.803745e-02
8.600715e-02
0.000000e+00
7.884017e-03
1.607844e-02
2.453194e-02
3.312439e-02
4.171172e-02
5.016546e-02
5.839301e-02
6.633807e-02
7.397217e-02
8.128475e-02
8.827563e-02
9.495048e-02
1.013183e-01
1.073902e-01
1.131792e-01
1.186998e-01
1.239676e-01
1.289991e-01
1.338098e-01
1.384123e-01
1.428123e-01
1.470038e-01
1.509627e-01
1.546392e-01
1.579518e-01
1.607853e-01
1.629983e-01
1.644468e-01
1.650259e-01
1.647281e-01
1.637015e-01
1.622845e-01
0.000000e+00
1.198818e-02
2.448883e-02
3.739027e-02
5.046972e-02
6.348333e-02
7.623785e-02
8.860840e-02
1.005276e-01
1.119643e-01
1.229082e-01
1.333595e-01
1.433235e-01
1.528081e-01
1.618220e-01
1.703749e-01
1.784769e-01
1.861382e-01
1.933687e-01
2.001767e-01
2.065670e-01
2.125381e-01
2.180784e-01
2.231618e-01
2.277433e-01
2.317565e-01
2.351148e-01
2.377212e-01
2.394887e-01
2.403743e-01
2.404242e-01
2.398219e-01
2.389264e-01
0.000000e+00
1.631864e-02
3.341432e-02
5.105546e-02
6.883922e-02
8.640422e-02
1.035083e-01
1.200289e-01
1.359110e-01
1.511338e-01
1.656928e-01
1.795906e-01
1.928322e-01
2.054231e-01
2.173686e-01
2.286736e-01
2.393423e-01
2.493783e-01
2.587839e-01
2.675597e-01
2.757029e-01
2.832061e-01
2.900548e-01
2.962253e-01
3.016831e-01
3.063823e-01
3.102691e-01
3.132898e-01
3.154068e-01
3.166231e-01
3.170176e-01
3.167915e-01
3.163197e-01
0.000000e+00
2.103129e-02
4.322401e-02
6.602399e-02
8.877023e-02
1.109652e-01
1.324185e-01
1.530618e-01
1.728758e-01
1.918587e-01
2.100141e-01
2.273461e-01
2.438579e-01
2.595513e-01
2.744267e-01
2.884829e-01
3.017171e-01
3.141251e-01
3.257008e-01
3.364358e-01
3.463195e-01
3.553380e-01
3.634741e-01
3.707075e-01
3.770149e-01
3.823728e-01
3.867610e-01
3.901697e-01
3.926093e-01
3.941254e-01
3.948228e-01
3.949059e-01
3.947494e-01
0.000000e+00
2.651204e-02
5.458213e-02
8.316246e-02
1.109346e-01
1.376843e-01
1.633941e-01
1.880872e-01
2.117842e-01
2.344975e-01
2.562332e-01
2.769930e-01
2.967756e-01
3.155772e-01
3.333919e-01
3.502117e-01
3.660262e-01
3.808225e-01
3.945849e-01
4.072951e-01
4.189322e-01
4.294737e-01
4.388965e-01
4.471796e-01
4.543073e-01
4.602742e-01
4.650910e-01
4.687917e-01
4.714402e-01
4.731366e-01
4.740244e-01
4.743136e-01
4.743481e-01
0.000000e+00
3.342635e-02
6.954860e-02
1.036102e-01
1.359878e-01
1.669895e-01
1.967787e-01
2.254261e-01
2.529584e-01
2.793819e-01
3.046937e-01
3.288869e-01
3.519523e-01
3.738792e-01
3.946554e-01
4.142660e-01
4.326931e-01
4.499151e-01
4.659060e-01
4.806356e-01
4.940702e-01
5.061733e-01
5.169094e-01
5.262476e-01
5.341685e-01
5.406726e-01
5.457907e-01
5.495947e-01
5.522078e-01
5.538090e-01
5.546270e-01
5.549236e-01
5.549963e-01
0.000000e+00
4.984920e-02
9.045287e-02
1.280732e-01
1.641842e-01
1.990610e-01
2.327738e-01
2.653194e-01
2.966762e-01
3.268190e-01
3.557247e-01
3.833732e-01
4.097466e-01
4.348283e-01
4.586006e-01
4.810437e-01
5.021337e-01
5.218413e-01
5.401304e-01
5.569577e-01
5.722726e-01
5.860187e-01
5.981369e-01
6.085718e-01
6.172802e-01
6.242445e-01
6.294896e-01
6.331030e-01
6.352567e-01
6.362271e-01
6.364035e-01
6.362574e-01
6.361752e-01
0.000000e+00
-3.079617e-02
-5.374597e-02
-7.878975e-02
-1.066775e-01
-1.381795e-01
-1.735146e-01
-2.127444e-01
-2.558296e-01
-3.026780e-01
-3.531654e-01
-4.071489e-01
-4.644745e-01
-5.249818e-01
-5.885072e-01
-6.548859e-01
-7.239539e-01
-7.955505e-01
-8.695202e-01
-9.457163e-01
-1.024006e+00
-1.104279e+00
-1.186454e+00
-1.270500e+00
-1.356459e+00
-1.444490e+00
-1.534943e+00
-1.628501e+00
-1.726469e+00
-1.831435e+00
-1.948977e+00
-2.092261e+00
-2.290212e+00
0.000000e+00
-1.913865e-02
-4.316104e-02
-6.837375e-02
-9.665019e-02
-1.284944e-01
-1.641729e-01
-2.037460e-01
-2.471780e-01
-2.943766e-01
-3.452168e-01
-3.995548e-01
-4.572351e-01
-5.180959e-01
-5.819722e-01
-6.486974e-01
-7.181058e-01
-7.900340e-01
-8.643236e-01
-9.408243e-01
-1.019399e+00
-1.099930e+00
-1.182331e+00
-1.266561e+00
-1.352650e+00
-1.440742e+00
-1.531171e+00
-1.624596e+00
-1.722298e+00
-1.826818e+00
-1.943452e+00
-2.083546e+00
-2.268483e+00
0.000000e+00
-1.405844e-02
-3.479623e-02
-5.966500e-02
-8.799083e-02
-1.200697e-01
-1.560298e-01
-1.959045e-01
-2.396458e-01
-2.871571e-01
-3.383113e-01
-3.929632e-01
-4.509569e-01
-5.121300e-01
-5.763168e-01
-6.433501e-01
-7.130634e-01
-7.852923e-01
-8.598773e-01
-9.366670e-01
-1.015523e+00
-1.096327e+00
-1.178992e+00
-1.263478e+00
-1.349819e+00
-1.438169e+00
-1.528873e+00
-1.622609e+00
-1.720642e+00
-1.825260e+00
-1.940377e+00
-2.070616e+00
-2.215089e+00
0.000000e+00
-1.125741e-02
-2.946539e-02
-5.300803e-02
-8.096983e-02
-1.130387e-01
-1.491527e-01
-1.892507e-01
-2.332466e-01
-2.810258e-01
-3.324533e-01
-3.873803e-01
-4.456495e-01
-5.070981e-01
-5.715607e-01
-6.388705e-01
-7.088615e-01
-7.813700e-01
-8.562374e-01
-9.333134e-01
-1.012462e+00
-1.093566e+00
-1.176545e+00
-1.261364e+00
-1.348066e+00
-1.436811e+00
-1.527943e+00
-1.622085e+00
-1.720272e+00
-1.824013e+00
-1.934753e+00
-2.051548e+00
-2.160272e+00
0.000000e+00
-9.525620e-03
-2.597921e-02
-4.828080e-02
-7.560519e-02
-1.074638e-01
-1.435913e-01
-1.838197e-01
-2.280036e-01
-2.759986e-01
-3.276546e-01
-3.828160e-01
-4.413226e-01
-5.030113e-01
-5.677170e-01
-6.352744e-01
-7.055190e-01
-7.782889e-01
-8.534276e-01
-9.307876e-01
-1.010235e+00
-1.091659e+00
-1.174979e+00
-1.260164e+00
-1.347254e+00
-1.436389e+00
-1.527849e+00
-1.622083e+00
-1.719687e+00
-1.821139e+00
-1.925955e+00
-2.030287e+00
-2.124974e+00
0.000000e+00
-8.423670e-03
-2.369184e-02
-4.502772e-02
-7.173703e-02
-1.032972e-01
-1.393462e-01
-1.796260e-01
-2.239337e-01
-2.720904e-01
-3.239275e-01
-3.792802e-01
-4.379844e-01
-4.998762e-01
-5.647913e-01
-6.325662e-01
-7.030383e-01
-7.760483e-01
-8.514423e-01
-9.290749e-01
-1.008814e+00
-1.090550e+00
-1.174199e+00
-1.259722e+00
-1.347134e+00
-1.436518e+00
-1.528033e+00
-1.621876e+00
-1.718155e+00
-1.816547e+00
-1.915552e+00
-2.011632e+00
-2.099449e+00
0.000000e+00
-7.738820e-03
-2.224566e-02
-4.291315e-02
-6.914565e-02
-1.004339e-01
-1.363758e-01
-1.766607e-01
-2.210415e-01
-2.693101e-01
-3.212807e-01
-3.767795e-01
-4.356388e-01
-4.976937e-01
-5.627812e-01
-6.307393e-01
-7.014079e-01
-7.746297e-01
-8.502525e-01
-9.281321e-01
-1.008136e+00
-1.090147e+00
-1.174074e+00
-1.259854e+00
-1.347456e+00
-1.436882e+00
-1.528140e+00
-1.621178e+00
-1.715728e+00
-1.811019e+00
-1.905404e+00
-1.996161e+00
-2.079955e+00
0.000000e+00
-7.362485e-03
-2.144320e-02
-4.172155e-02
-6.765971e-02
-9.876603e-02
-1.346255e-01
-1.749015e-01
-2.193218e-01
-2.676596e-01
-3.197177e-01
-3.753162e-01
-4.342850e-01
-4.964593e-01
-5.616773e-01
-6.297787e-01
-7.006053e-01
-7.740014e-01
-8.498151e-01
-9.279007e-01
-1.008121e+00
-1.090349e+00
-1.174474e+00
-1.260399e+00
-1.348036e+00
-1.437297e+00
-1.528050e+00
-1.620048e+00
-1.712798e+00
-1.805390e+00
-1.896335e+00
-1.983588e+00
-2.064872e+00
0.000000e+00
-7.241231e-03
-2.118431e-02
-4.133534e-02
-6.717543e-02
-9.822016e-02
-1.340521e-01
-1.743275e-01
-2.187665e-01
-2.671367e-01
-3.192374e-01
-3.748877e-01
-4.339175e-01
-4.961634e-01
-5.614647e-01
-6.296632e-01
-7.006018e-01
-7.741252e-01
-8.500806e-01
-9.283181e-01
-1.008692e+00
-1.091062e+00
-1.175291e+00
-1.261244e+00
-1.348774e+00
-1.437708e+00
-1.527805e+00
-1.618692e+00
-1.709783e+00
-1.800181e+00
-1.888627e+00
-1.973560e+00
-2.053313e+00
0.000000e+00
-7.358978e-03
-2.143834e-02
-4.171736e-02
-6.765845e-02
-9.877048e-02
-1.346393e-01
-1.749296e-01
-2.193706e-01
-2.677376e-01
-3.198358e-01
-3.754880e-01
-4.345274e-01
-4.967928e-01
-5.621257e-01
-6.303689e-01
-7.013663e-01
-7.749619e-01
-8.510003e-01
-9.293260e-01
-1.009783e+00
-1.092213e+00
-1.176453e+00
-1.262327e+00
-1.349637e+00
-1.438140e+00
-1.527520e+00
-1.617340e+00
-1.706997e+00
-1.795673e+00
-1.882332e+00
-1.965764e+00
-2.044698e+00
0.000000e+00
-7.732090e-03
-2.223632e-02
-4.290507e-02
-6.914311e-02
-1.004423e-01
-1.364021e-01
-1.767143e-01
-2.211347e-01
-2.694592e-01
-3.215067e-01
-3.771086e-01
-4.361035e-01
-4.983332e-01
-5.636414e-01
-6.318721e-01
-7.028691e-01
-7.764753e-01
-8.525316e-01
-9.308758e-01
-1.011341e+00
-1.093750e+00
-1.177915e+00
-1.263625e+00
-1.350637e+00
-1.438659e+00
-1.527327e+00
-1.616181e+00
-1.704641e+00
-1.791992e+00
-1.877394e+00
-1.959917e+00
-2.038582e+00
0.000000e+00
-8.414315e-03
-2.367886e-02
-4.501643e-02
-7.173338e-02
-1.033087e-01
-1.393826e-01
-1.797005e-01
-2.240635e-01
-2.722984e-01
-3.242429e-01
-3.797398e-01
-4.386339e-01
-5.007705e-01
-5.659950e-01
-6.341522e-01
-7.050855e-01
-7.786359e-01
-8.546408e-01
-9.329311e-01
-1.013329e+00
-1.095641e+00
-1.179658e+00
-1.265139e+00
-1.351808e+00
-1.439337e+00
-1.527339e+00
-1.615351e+00
-1.702833e+00
-1.789173e+00
-1.873708e+00
-1.955746e+00
-2.034573e+00
0.000000e+00
-9.514600e-03
-2.596393e-02
-4.826750e-02
-7.560096e-02
-1.074777e-01
-1.436352e-01
-1.839095e-01
-2.281603e-01
-2.762498e-01
-3.280357e-01
-3.833717e-01
-4.421081e-01
-5.040932e-01
-5.691735e-01
-6.371942e-01
-7.079979e-01
-7.814238e-01
-8.573056e-01
-9.354685e-01
-1.015725e+00
-1.097871e+00
-1.181676e+00
-1.266880e+00
-1.353183e+00
-1.440236e+00
-1.527637e+00
-1.614932e+00
-1.701624e+00
-1.787194e+00
-1.871135e+00
-1.952976e+00
-2.032279e+00
0.000000e+00
-1.124608e-02
-2.944970e-02
-5.299451e-02
-8.096620e-02
-1.130550e-01
-1.492021e-01
-1.893509e-01
-2.334210e-01
-2.813047e-01
-3.328758e-01
-3.879957e-01
-4.465186e-01
-5.082945e-01
-5.731704e-01
-6.409911e-01
-7.115985e-01
-7.848301e-01
-8.605166e-01
-9.384786e-01
-1.018522e+00
-1.100434e+00
-1.183971e+00
-1.268861e+00
-1.354787e+00
-1.441389e+00
-1.528259e+00
-1.614955e+00
-1.701014e+00
-1.785994e+00
-1.869518e+00
-1.951323e+00
-2.031279e+00
0.000000e+00
-1.404857e-02
-3.478249e-02
-5.965359e-02
-8.798975e-02
-1.200895e-01
-1.560844e-01
-1.960123e-01
-2.398311e-01
-2.874513e-01
-3.387548e-01
-3.936069e-01
-4.518634e-01
-5.133745e-01
-5.779873e-01
-6.455459e-01
-7.158912e-01
-7.888593e-01
-8.642787e-01
-9.419670e-01
-1.021726e+00
-1.103337e+00
-1.186551e+00
-1.271088e+00
-1.356624e+00
-1.442795e+00
-1.529195e+00
-1.615390e+00
-1.700946e+00
-1.785469e+00
-1.868679e+00
-1.950492e+00
-2.031104e+00
0.000000e+00
-1.913230e-02
-4.315169e-02
-6.836704e-02
-9.665434e-02
-1.285202e-01
-1.642344e-01
-2.038617e-01
-2.473720e-01
-2.946802e-01
-3.456699e-01
-4.002071e-01
-4.581476e-01
-5.193416e-01
-5.836354e-01
-6.508726e-01
-7.208929e-01
-7.935309e-01
-8.686137e-01
-9.459568e-01
-1.025360e+00
-1.106601e+00
-1.189430e+00
-1.273565e+00
-1.358682e+00
-1.444419e+00
-1.530378e+00
-1.616136e+00
-1.701279e+00
-1.785444e+00
-1.868406e+00
-1.950191e+00
-2.031253e+00
0.000000e+00
-3.079527e-02
-5.374286e-02
-7.879034e-02
-1.066901e-01
-1.382149e-01
-1.735869e-01
-2.128718e-01
-2.560359e-01
-3.029936e-01
-3.536285e-01
-4.078071e-01
-4.653852e-01
-5.262129e-01
-5.901359e-01
-6.569969e-01
-7.266344e-01
-7.988814e-01
-8.735630e-01
-9.504929e-01
-1.029469e+00
-1.110268e+00
-1.192640e+00