TITLE = "Solution"
VARIABLES = x, y, u, v, psiu, psiv, t, stress
ZONE T="structure" N=561 E=512 F=FEBLOCK ET=QUADRILATERAL VARLOCATION=([7,8]=cellcentered)
0.000000e+00
6.250000e+00
1.250000e+01
1.875000e+01
2.500000e+01
3.125000e+01
3.750000e+01
4.375000e+01
5.000000e+01
5.625000e+01
6.250000e+01
6.875000e+01
7.500000e+01
8.125000e+01
8.750000e+01
9.375000e+01
1.000000e+02
1.062500e+02
1.125000e+02
1.187500e+02
1.250000e+02
1.312500e+02
1.375000e+02
1.437500e+02
1.500000e+02
1.562500e+02
1.625000e+02
1.687500e+02
1.750000e+02
1.812500e+02
1.875000e+02
1.937500e+02
2.000000e+02
0.000000e+00
6.250000e+00
1.250000e+01
1.875000e+01
2.500000e+01
3.125000e+01
3.750000e+01
4.375000e+01
5.000000e+01
5.625000e+01
6.250000e+01
6.875000e+01
7.500000e+01
8.125000e+01
8.750000e+01
9.375000e+01
1.000000e+02
1.062500e+02
1.125000e+02
1.187500e+02
1.250000e+02
1.312500e+02
1.375000e+02
1.437500e+02
1.500000e+02
1.562500e+02
1.625000e+02
1.687500e+02
1.750000e+02
1.812500e+02
1.875000e+02
1.937500e+02
2.000000e+02
0.000000e+00
6.250000e+00
1.250000e+01
1.875000e+01
2.500000e+01
3.125000e+01
3.750000e+01
4.375000e+01
5.000000e+01
5.625000e+01
6.250000e+01
6.875000e+01
7.500000e+01
8.125000e+01
8.750000e+01
9.375000e+01
1.000000e+02
1.062500e+02
1.125000e+02
1.187500e+02
1.250000e+02
1.312500e+02
1.375000e+02
1.437500e+02
1.500000e+02
1.562500e+02
1.625000e+02
1.687500e+02
1.750000e+02
1.812500e+02
1.875000e+02
1.937500e+02
2.000000e+02
0.000000e+00
6.250000e+00
1.250000e+01
1.875000e+01
2.500000e+01
3.125000e+01
3.750000e+01
4.375000e+01
5.000000e+01
5.625000e+01
6.250000e+01
6.875000e+01
7.500000e+01
8.125000e+01
8.750000e+01
9.375000e+01
1.000000e+02
1.062500e+02
1.125000e+02
1.187500e+02
1.250000e+02
1.312500e+02
1.375000e+02
1.437500e+02
1.500000e+02
1.562500e+02
1.625000e+02
1.687500e+02
1.750000e+02
1.812500e+02
1.875000e+02
1.937500e+02
2.000000e+02
0.000000e+00
6.250000e+00
1.250000e+01
1.875000e+01
2.500000e+01
3.125000e+01
3.750000e+01
4.375000e+01
5.000000e+01
5.625000e+01
6.250000e+01
6.875000e+01
7.500000e+01
8.125000e+01
8.750000e+01
9.375000e+01
1.000000e+02
1.062500e+02
1.125000e+02
1.187500e+02
1.250000e+02
1.312500e+02
1.375000e+02
1.437500e+02
1.500000e+02
1.562500e+02
1.625000e+02
1.687500e+02
1.750000e+02
1.812500e+02
1.875000e+02
1.937500e+02
2.000000e+02
0.000000e+00
6.250000e+00
1.250000e+01
1.875000e+01
2.500000e+01
3.125000e+01
3.750000e+01
4.375000e+01
5.000000e+01
5.625000e+01
6.250000e+01
6.875000e+01
7.500000e+01
8.125000e+01
8.750000e+01
9.375000e+01
1.000000e+02
1.062500e+02
1.125000e+02
1.187500e+02
1.250000e+02
1.312500e+02
1.375000e+02
1.437500e+02
1.500000e+02
1.562500e+02
1.625000e+02
1.687500e+02
1.750000e+02
1.812500e+02
1.875000e+02
1.937500e+02
2.000000e+02
0.000000e+00
6.250000e+00
1.250000e+01
1.875000e+01
2.500000e+01
3.125000e+01
3.750000e+01
4.375000e+01
5.000000e+01
5.625000e+01
6.250000e+01
6.875000e+01
7.500000e+01
8.125000e+01
8.750000e+01
9.375000e+01
1.000000e+02
1.062500e+02
1.125000e+02
1.187500e+02
1.250000e+02
1.312500e+02
1.375000e+02
1.437500e+02
1.500000e+02
1.562500e+02
1.625000e+02
1.687500e+02
1.750000e+02
1.812500e+02
1.875000e+02
1.937500e+02
2.000000e+02
0.000000e+00
6.250000e+00
1.250000e+01
1.875000e+01
2.500000e+01
3.125000e+01
3.750000e+01
4.375000e+01
5.000000e+01
5.625000e+01
6.250000e+01
6.875000e+01
7.500000e+01
8.125000e+01
8.750000e+01
9.375000e+01
1.000000e+02
1.062500e+02
1.125000e+02
1.187500e+02
1.250000e+02
1.312500e+02
1.375000e+02
1.437500e+02
1.500000e+02
1.562500e+02
1.625000e+02
1.687500e+02
1.750000e+02
1.812500e+02
1.875000e+02
1.937500e+02
2.000000e+02
0.000000e+00
6.250000e+00
1.250000e+01
1.875000e+01
2.500000e+01
3.125000e+01
3.750000e+01
4.375000e+01
5.000000e+01
5.625000e+01
6.250000e+01
6.875000e+01
7.500000e+01
8.125000e+01
8.750000e+01
9.375000e+01
1.000000e+02
1.062500e+02
1.125000e+02
1.187500e+02
1.250000e+02
1.312500e+02
1.375000e+02
1.437500e+02
1.500000e+02
1.562500e+02
1.625000e+02
1.687500e+02
1.750000e+02
1.812500e+02
1.875000e+02
1.937500e+02
2.000000e+02
0.000000e+00
6.250000e+00
1.250000e+01
1.875000e+01
2.500000e+01
3.125000e+01
3.750000e+01
4.375000e+01
5.000000e+01
5.625000e+01
6.250000e+01
6.875000e+01
7.500000e+01
8.125000e+01
8.750000e+01
9.375000e+01
1.000000e+02
1.062500e+02
1.125000e+02
1.187500e+02
1.250000e+02
1.312500e+02
1.375000e+02
1.437500e+02
1.500000e+02
1.562500e+02
1.625000e+02
1.687500e+02
1.750000e+02
1.812500e+02
1.875000e+02
1.937500e+02
2.000000e+02
0.000000e+00
6.250000e+00
1.250000e+01
1.875000e+01
2.500000e+01
3.125000e+01
3.750000e+01
4.375000e+01
5.000000e+01
5.625000e+01
6.250000e+01
6.875000e+01
7.500000e+01
8.125000e+01
8.750000e+01
9.375000e+01
1.000000e+02
1.062500e+02
1.125000e+02
1.187500e+02
1.250000e+02
1.312500e+02
1.375000e+02
1.437500e+02
1.500000e+02
1.562500e+02
1.625000e+02
1.687500e+02
1.750000e+02
1.812500e+02
1.875000e+02
1.937500e+02
2.000000e+02
0.000000e+00
6.250000e+00
1.250000e+01
1.875000e+01
2.500000e+01
3.125000e+01
3.750000e+01
4.375000e+01
5.000000e+01
5.625000e+01
6.250000e+01
6.875000e+01
7.500000e+01
8.125000e+01
8.750000e+01
9.375000e+01
1.000000e+02
1.062500e+02
1.125000e+02
1.187500e+02
1.250000e+02
1.312500e+02
1.375000e+02
1.437500e+02
1.500000e+02
1.562500e+02
1.625000e+02
1.687500e+02
1.750000e+02
1.812500e+02
1.875000e+02
1.937500e+02
2.000000e+02
0.000000e+00
6.250000e+00
1.250000e+01
1.875000e+01
2.500000e+01
3.125000e+01
3.750000e+01
4.375000e+01
5.000000e+01
5.625000e+01
6.250000e+01
6.875000e+01
7.500000e+01
8.125000e+01
8.750000e+01
9.375000e+01
1.000000e+02
1.062500e+02
1.125000e+02
1.187500e+02
1.250000e+02
1.312500e+02
1.375000e+02
1.437500e+02
1.500000e+02
1.562500e+02
1.625000e+02
1.687500e+02
1.750000e+02
1.812500e+02
1.875000e+02
1.937500e+02
2.000000e+02
0.000000e+00
6.250000e+00
1.250000e+01
1.875000e+01
2.500000e+01
3.125000e+01
3.750000e+01
4.375000e+01
5.000000e+01
5.625000e+01
6.250000e+01
6.875000e+01
7.500000e+01
8.125000e+01
8.750000e+01
9.375000e+01
1.000000e+02
1.062500e+02
1.125000e+02
1.187500e+02
1.250000e+02
1.312500e+02
1.375000e+02
1.437500e+02
1.500000e+02
1.562500e+02
1.625000e+02
1.687500e+02
1.750000e+02
1.812500e+02
1.875000e+02
1.937500e+02
2.000000e+02
0.000000e+00
6.250000e+00
1.250000e+01
1.875000e+01
2.500000e+01
3.125000e+01
3.750000e+01
4.375000e+01
5.000000e+01
5.625000e+01
6.250000e+01
6.875000e+01
7.500000e+01
8.125000e+01
8.750000e+01
9.375000e+01
1.000000e+02
1.062500e+02
1.125000e+02
1.187500e+02
1.250000e+02
1.312500e+02
1.375000e+02
1.437500e+02
1.500000e+02
1.562500e+02
1.625000e+02
1.687500e+02
1.750000e+02
1.812500e+02
1.875000e+02
1.937500e+02
2.000000e+02
0.000000e+00
6.250000e+00
1.250000e+01
1.875000e+01
2.500000e+01
3.125000e+01
3.750000e+01
4.375000e+01
5.000000e+01
5.625000e+01
6.250000e+01
6.875000e+01
7.500000e+01
8.125000e+01
8.750000e+01
9.375000e+01
1.000000e+02
1.062500e+02
1.125000e+02
1.187500e+02
1.250000e+02
1.312500e+02
1.375000e+02
1.437500e+02
1.500000e+02
1.562500e+02
1.625000e+02
1.687500e+02
1.750000e+02
1.812500e+02
1.875000e+02
1.937500e+02
2.000000e+02
0.000000e+00
6.250000e+00
1.250000e+01
1.875000e+01
2.500000e+01
3.125000e+01
3.750000e+01
4.375000e+01
5.000000e+01
5.625000e+01
6.250000e+01
6.875000e+01
7.500000e+01
8.125000e+01
8.750000e+01
9.375000e+01
1.000000e+02
1.062500e+02
1.125000e+02
1.187500e+02
1.250000e+02
1.312500e+02
1.375000e+02
1.437500e+02
1.500000e+02
1.562500e+02
1.625000e+02
1.687500e+02
1.750000e+02
1.812500e+02
1.875000e+02
1.937500e+02
2.000000e+02
0.000000e+00
0.000000e+00
0.000000e+00
0.000000e+00
0.000000e+00
0.000000e+00
0.000000e+00
0.000000e+00
0.000000e+00
0.000000e+00
0.000000e+00
0.000000e+00
0.000000e+00
0.000000e+00
0.000000e+00
0.000000e+00
0.000000e+00
0.000000e+00
0.000000e+00
0.000000e+00
0.000000e+00
0.000000e+00
0.000000e+00
0.000000e+00
0.000000e+00
0.000000e+00
0.000000e+00
0.000000e+00
0.000000e+00
0.000000e+00
0.000000e+00
0.000000e+00
0.000000e+00
6.250000e+00
6.250000e+00
6.250000e+00
6.250000e+00
6.250000e+00
6.250000e+00
6.250000e+00
6.250000e+00
6.250000e+00
6.250000e+00
6.250000e+00
6.250000e+00
6.250000e+00
6.250000e+00
6.250000e+00
6.250000e+00
6.250000e+00
6.250000e+00
6.250000e+00
6.250000e+00
6.250000e+00
6.250000e+00
6.250000e+00
6.250000e+00
6.250000e+00
6.250000e+00
6.250000e+00
6.250000e+00
6.250000e+00
6.250000e+00
6.250000e+00
6.250000e+00
6.250000e+00
1.250000e+01
1.250000e+01
1.250000e+01
1.250000e+01
1.250000e+01
1.250000e+01
1.250000e+01
1.250000e+01
1.250000e+01
1.250000e+01
1.250000e+01
1.250000e+01
1.250000e+01
1.250000e+01
1.250000e+01
1.250000e+01
1.250000e+01
1.250000e+01
1.250000e+01
1.250000e+01
1.250000e+01
1.250000e+01
1.250000e+01
1.250000e+01
1.250000e+01
1.250000e+01
1.250000e+01
1.250000e+01
1.250000e+01
1.250000e+01
1.250000e+01
1.250000e+01
1.250000e+01
1.875000e+01
1.875000e+01
1.875000e+01
1.875000e+01
1.875000e+01
1.875000e+01
1.875000e+01
1.875000e+01
1.875000e+01
1.875000e+01
1.875000e+01
1.875000e+01
1.875000e+01
1.875000e+01
1.875000e+01
1.875000e+01
1.875000e+01
1.875000e+01
1.875000e+01
1.875000e+01
1.875000e+01
1.875000e+01
1.875000e+01
1.875000e+01
1.875000e+01
1.875000e+01
1.875000e+01
1.875000e+01
1.875000e+01
1.875000e+01
1.875000e+01
1.875000e+01
1.875000e+01
2.500000e+01
2.500000e+01
2.500000e+01
2.500000e+01
2.500000e+01
2.500000e+01
2.500000e+01
2.500000e+01
2.500000e+01
2.500000e+01
2.500000e+01
2.500000e+01
2.500000e+01
2.500000e+01
2.500000e+01
2.500000e+01
2.500000e+01
2.500000e+01
2.500000e+01
2.500000e+01
2.500000e+01
2.500000e+01
2.500000e+01
2.500000e+01
2.500000e+01
2.500000e+01
2.500000e+01
2.500000e+01
2.500000e+01
2.500000e+01
2.500000e+01
2.500000e+01
2.500000e+01
3.125000e+01
3.125000e+01
3.125000e+01
3.125000e+01
3.125000e+01
3.125000e+01
3.125000e+01
3.125000e+01
3.125000e+01
3.125000e+01
3.125000e+01
3.125000e+01
3.125000e+01
3.125000e+01
3.125000e+01
3.125000e+01
3.125000e+01
3.125000e+01
3.125000e+01
3.125000e+01
3.125000e+01
3.125000e+01
3.125000e+01
3.125000e+01
3.125000e+01
3.125000e+01
3.125000e+01
3.125000e+01
3.125000e+01
3.125000e+01
3.125000e+01
3.125000e+01
3.125000e+01
3.750000e+01
3.750000e+01
3.750000e+01
3.750000e+01
3.750000e+01
3.750000e+01
3.750000e+01
3.750000e+01
3.750000e+01
3.750000e+01
3.750000e+01
3.750000e+01
3.750000e+01
3.750000e+01
3.750000e+01
3.750000e+01
3.750000e+01
3.750000e+01
3.750000e+01
3.750000e+01
3.750000e+01
3.750000e+01
3.750000e+01
3.750000e+01
3.750000e+01
3.750000e+01
3.750000e+01
3.750000e+01
3.750000e+01
3.750000e+01
3.750000e+01
3.750000e+01
3.750000e+01
4.375000e+01
4.375000e+01
4.375000e+01
4.375000e+01
4.375000e+01
4.375000e+01
4.375000e+01
4.375000e+01
4.375000e+01
4.375000e+01
4.375000e+01
4.375000e+01
4.375000e+01
4.375000e+01
4.375000e+01
4.375000e+01
4.375000e+01
4.375000e+01
4.375000e+01
4.375000e+01
4.375000e+01
4.375000e+01
4.375000e+01
4.375000e+01
4.375000e+01
4.375000e+01
4.375000e+01
4.375000e+01
4.375000e+01
4.375000e+01
4.375000e+01
4.375000e+01
4.375000e+01
5.000000e+01
5.000000e+01
5.000000e+01
5.000000e+01
5.000000e+01
5.000000e+01
5.000000e+01
5.000000e+01
5.000000e+01
5.000000e+01
5.000000e+01
5.000000e+01
5.000000e+01
5.000000e+01
5.000000e+01
5.000000e+01
5.000000e+01
5.000000e+01
5.000000e+01
5.000000e+01
5.000000e+01
5.000000e+01
5.000000e+01
5.000000e+01
5.000000e+01
5.000000e+01
5.000000e+01
5.000000e+01
5.000000e+01
5.000000e+01
5.000000e+01
5.000000e+01
5.000000e+01
5.625000e+01
5.625000e+01
5.625000e+01
5.625000e+01
5.625000e+01
5.625000e+01
5.625000e+01
5.625000e+01
5.625000e+01
5.625000e+01
5.625000e+01
5.625000e+01
5.625000e+01
5.625000e+01
5.625000e+01
5.625000e+01
5.625000e+01
5.625000e+01
5.625000e+01
5.625000e+01
5.625000e+01
5.625000e+01
5.625000e+01
5.625000e+01
5.625000e+01
5.625000e+01
5.625000e+01
5.625000e+01
5.625000e+01
5.625000e+01
5.625000e+01
5.625000e+01
5.625000e+01
6.250000e+01
6.250000e+01
6.250000e+01
6.250000e+01
6.250000e+01
6.250000e+01
6.250000e+01
6.250000e+01
6.250000e+01
6.250000e+01
6.250000e+01
6.250000e+01
6.250000e+01
6.250000e+01
6.250000e+01
6.250000e+01
6.250000e+01
6.250000e+01
6.250000e+01
6.250000e+01
6.250000e+01
6.250000e+01
6.250000e+01
6.250000e+01
6.250000e+01
6.250000e+01
6.250000e+01
6.250000e+01
6.250000e+01
6.250000e+01
6.250000e+01
6.250000e+01
6.250000e+01
6.875000e+01
6.875000e+01
6.875000e+01
6.875000e+01
6.875000e+01
6.875000e+01
6.875000e+01
6.875000e+01
6.875000e+01
6.875000e+01
6.875000e+01
6.875000e+01
6.875000e+01
6.875000e+01
6.875000e+01
6.875000e+01
6.875000e+01
6.875000e+01
6.875000e+01
6.875000e+01
6.875000e+01
6.875000e+01
6.875000e+01
6.875000e+01
6.875000e+01
6.875000e+01
6.875000e+01
6.875000e+01
6.875000e+01
6.875000e+01
6.875000e+01
6.875000e+01
6.875000e+01
7.500000e+01
7.500000e+01
7.500000e+01
7.500000e+01
7.500000e+01
7.500000e+01
7.500000e+01
7.500000e+01
7.500000e+01
7.500000e+01
7.500000e+01
7.500000e+01
7.500000e+01
7.500000e+01
7.500000e+01
7.500000e+01
7.500000e+01
7.500000e+01
7.500000e+01
7.500000e+01
7.500000e+01
7.500000e+01
7.500000e+01
7.500000e+01
7.500000e+01
7.500000e+01
7.500000e+01
7.500000e+01
7.500000e+01
7.500000e+01
7.500000e+01
7.500000e+01
7.500000e+01
8.125000e+01
8.125000e+01
8.125000e+01
8.125000e+01
8.125000e+01
8.125000e+01
8.125000e+01
8.125000e+01
8.125000e+01
8.125000e+01
8.125000e+01
8.125000e+01
8.125000e+01
8.125000e+01
8.125000e+01
8.125000e+01
8.125000e+01
8.125000e+01
8.125000e+01
8.125000e+01
8.125000e+01
8.125000e+01
8.125000e+01
8.125000e+01
8.125000e+01
8.125000e+01
8.125000e+01
8.125000e+01
8.125000e+01
8.125000e+01
8.125000e+01
8.125000e+01
8.125000e+01
8.750000e+01
8.750000e+01
8.750000e+01
8.750000e+01
8.750000e+01
8.750000e+01
8.750000e+01
8.750000e+01
8.750000e+01
8.750000e+01
8.750000e+01
8.750000e+01
8.750000e+01
8.750000e+01
8.750000e+01
8.750000e+01
8.750000e+01
8.750000e+01
8.750000e+01
8.750000e+01
8.750000e+01
8.750000e+01
8.750000e+01
8.750000e+01
8.750000e+01
8.750000e+01
8.750000e+01
8.750000e+01
8.750000e+01
8.750000e+01
8.750000e+01
8.750000e+01
8.750000e+01
9.375000e+01
9.375000e+01
9.375000e+01
9.375000e+01
9.375000e+01
9.375000e+01
9.375000e+01
9.375000e+01
9.375000e+01
9.375000e+01
9.375000e+01
9.375000e+01
9.375000e+01
9.375000e+01
9.375000e+01
9.375000e+01
9.375000e+01
9.375000e+01
9.375000e+01
9.375000e+01
9.375000e+01
9.375000e+01
9.375000e+01
9.375000e+01
9.375000e+01
9.375000e+01
9.375000e+01
9.375000e+01
9.375000e+01
9.375000e+01
9.375000e+01
9.375000e+01
9.375000e+01
1.000000e+02
1.000000e+02
1.000000e+02
1.000000e+02
1.000000e+02
1.000000e+02
1.000000e+02
1.000000e+02
1.000000e+02
1.000000e+02
1.000000e+02
1.000000e+02
1.000000e+02
1.000000e+02
1.000000e+02
1.000000e+02
1.000000e+02
1.000000e+02
1.000000e+02
1.000000e+02
1.000000e+02
1.000000e+02
1.000000e+02
1.000000e+02
1.000000e+02
1.000000e+02
1.000000e+02
1.000000e+02
1.000000e+02
1.000000e+02
1.000000e+02
1.000000e+02
1.000000e+02
0.000000e+00
-4.643300e-02
-8.424650e-02
-1.192754e-01
-1.528932e-01
-1.853564e-01
-2.167300e-01
-2.470113e-01
-2.761812e-01
-3.042185e-01
-3.311057e-01
-3.568305e-01
-3.813868e-01
-4.047740e-01
-4.269975e-01
-4.480692e-01
-4.680078e-01
-4.868408e-01
-5.046061e-01
-5.213547e-01
-5.371548e-01
-5.520964e-01
-5.662985e-01
-5.799192e-01
-5.931698e-01
-6.063380e-01
-6.198231e-01
-6.341945e-01
-6.502877e-01
-6.693319e-01
-6.929221e-01
-7.210351e-01
-7.381921e-01
0.000000e+00
-3.113208e-02
-6.477363e-02
-9.649318e-02
-1.266414e-01
-1.555053e-01
-1.832375e-01
-2.099046e-01
-2.355333e-01
-2.601322e-01
-2.837029e-01
-3.062454e-01
-3.277609e-01
-3.482527e-01
-3.677278e-01
-3.861968e-01
-4.036756e-01
-4.201857e-01
-4.357558e-01
-4.504229e-01
-4.642346e-01
-4.772505e-01
-4.895448e-01
-5.012081e-01
-5.123489e-01
-5.230920e-01
-5.335688e-01
-5.438879e-01
-5.540485e-01
-5.637200e-01
-5.717791e-01
-5.764908e-01
-5.830502e-01
0.000000e+00
-2.469404e-02
-5.083861e-02
-7.745795e-02
-1.033237e-01
-1.282363e-01
-1.521797e-01
-1.751767e-01
-1.972477e-01
-2.184064e-01
-2.386619e-01
-2.580206e-01
-2.764877e-01
-2.940687e-01
-3.107702e-01
-3.266002e-01
-3.415691e-01
-3.556897e-01
-3.689779e-01
-3.814526e-01
-3.931357e-01
-4.040509e-01
-4.142212e-01
-4.236649e-01
-4.323856e-01
-4.403554e-01
-4.474831e-01
-4.535589e-01
-4.581719e-01
-4.606558e-01
-4.604381e-01
-4.590432e-01
-4.667029e-01
0.000000e+00
-1.959253e-02
-4.026711e-02
-6.150767e-02
-8.269845e-02
-1.033759e-01
-1.233631e-01
-1.425963e-01
-1.610585e-01
-1.787489e-01
-1.956720e-01
-2.118335e-01
-2.272388e-01
-2.418929e-01
-2.557999e-01
-2.689639e-01
-2.813885e-01
-2.930768e-01
-3.040312e-01
-3.142523e-01
-3.237377e-01
-3.324784e-01
-3.404553e-01
-3.476311e-01
-3.539396e-01
-3.592695e-01
-3.634442e-01
-3.662089e-01
-3.672645e-01
-3.664808e-01
-3.645776e-01
-3.644640e-01
-3.717618e-01
0.000000e+00
-1.520654e-02
-3.113781e-02
-4.757799e-02
-6.415174e-02
-8.052221e-02
-9.646353e-02
-1.118613e-01
-1.266636e-01
-1.408505e-01
-1.544165e-01
-1.673626e-01
-1.796910e-01
-1.914039e-01
-2.025021e-01
-2.129846e-01
-2.228480e-01
-2.320865e-01
-2.406905e-01
-2.486456e-01
-2.559303e-01
-2.625137e-01
-2.683506e-01
-2.733769e-01
-2.775038e-01
-2.806145e-01
-2.825720e-01
-2.832587e-01
-2.826953e-01
-2.813169e-01
-2.804227e-01
-2.824878e-01
-2.887131e-01
0.000000e+00
-1.117592e-02
-2.283066e-02
-3.485983e-02
-4.705559e-02
-5.919027e-02
-7.108314e-02
-8.261674e-02
-9.372657e-02
-1.043813e-01
-1.145677e-01
-1.242810e-01
-1.335197e-01
-1.422821e-01
-1.505648e-01
-1.583621e-01
-1.656645e-01
-1.724588e-01
-1.787266e-01
-1.844434e-01
-1.895769e-01
-1.940856e-01
-1.979168e-01
-2.010062e-01
-2.032804e-01
-2.046681e-01
-2.051285e-01
-2.047153e-01
-2.036970e-01
-2.027282e-01
-2.029640e-01
-2.055967e-01
-2.107477e-01
0.000000e+00
-7.355100e-03
-1.500113e-02
-2.288971e-02
-3.090835e-02
-3.892209e-02
-4.681006e-02
-5.448417e-02
-6.188930e-02
-6.899502e-02
-7.578596e-02
-8.225440e-02
-8.839538e-02
-9.420378e-02
-9.967260e-02
-1.047918e-01
-1.095477e-01
-1.139218e-01
-1.178909e-01
-1.214255e-01
-1.244903e-01
-1.270436e-01
-1.290390e-01
-1.304296e-01
-1.311767e-01
-1.312694e-01
-1.307586e-01
-1.298133e-01
-1.287932e-01
-1.282988e-01
-1.290702e-01
-1.316333e-01
-1.357913e-01
0.000000e+00
-3.653276e-03
-7.444667e-03
-1.135469e-02
-1.533395e-02
-1.931960e-02
-2.325194e-02
-2.708426e-02
-3.078498e-02
-3.433484e-02
-3.772241e-02
-4.094013e-02
-4.398142e-02
-4.683874e-02
-4.950234e-02
-5.195945e-02
-5.419356e-02
-5.618407e-02
-5.790594e-02
-5.932985e-02
-6.042290e-02
-6.115046e-02
-6.148004e-02
-6.138838e-02
-6.087365e-02
-5.997514e-02
-5.880160e-02
-5.756507e-02
-5.660516e-02
-5.636470e-02
-5.726981e-02
-5.950577e-02
-6.280505e-02
0.000000e+00
-5.894220e-06
-1.278035e-05
-2.027691e-05
-2.798957e-05
-3.538667e-05
-4.166693e-05
-4.561274e-05
-4.541856e-05
-3.848453e-05
-2.116712e-05
1.151721e-05
6.623525e-05
1.517193e-04
2.791703e-04
4.626469e-04
7.193804e-04
1.069917e-03
1.537936e-03
2.149504e-03
2.931423e-03
3.908155e-03
5.096642e-03
6.498175e-03
8.086498e-03
9.792035e-03
1.148421e-02
1.295848e-02
1.394262e-02
1.414220e-02
1.333860e-02
1.151872e-02
8.969868e-03
0.000000e+00
3.642174e-03
7.420546e-03
1.131634e-02
1.528090e-02
1.925233e-02
2.317244e-02
2.699677e-02
3.069712e-02
3.425909e-02
3.767808e-02
4.095588e-02
4.409844e-02
4.711467e-02
5.001597e-02
5.281612e-02
5.553128e-02
5.817991e-02
6.078219e-02
6.335891e-02
6.592934e-02
6.850762e-02
7.109744e-02
7.368440e-02
7.622647e-02
7.864342e-02
8.080873e-02
8.255030e-02
8.366931e-02
8.398611e-02
8.341235e-02
8.202987e-02
8.013813e-02
0.000000e+00
7.346030e-03
1.498128e-02
2.285794e-02
3.086405e-02
3.886540e-02
4.674228e-02
5.440839e-02
6.181129e-02
6.892445e-02
7.573803e-02
8.225186e-02
8.847122e-02
9.440449e-02
1.000621e-01
1.054560e-01
1.105999e-01
1.155082e-01
1.201964e-01
1.246788e-01
1.289672e-01
1.330669e-01
1.369724e-01
1.406612e-01
1.440868e-01
1.471734e-01
1.498135e-01
1.518755e-01
1.532251e-01
1.537648e-01
1.534873e-01
1.525307e-01
1.512104e-01
0.000000e+00
1.117014e-02
2.281777e-02
3.483884e-02
4.702578e-02
5.915137e-02
7.103555e-02
8.256195e-02
9.366777e-02
1.043241e-01
1.145212e-01
1.242593e-01
1.335434e-01
1.423807e-01
1.507795e-01
1.587488e-01
1.662979e-01
1.734364e-01
1.801735e-01
1.865169e-01
1.924712e-01
1.980348e-01
2.031970e-01
2.079335e-01
2.122024e-01
2.159417e-01
2.190708e-01
2.214994e-01
2.231463e-01
2.239715e-01
2.240179e-01
2.234568e-01
2.226223e-01
0.000000e+00
1.520510e-02
3.113421e-02
4.757156e-02
6.414179e-02
8.050819e-02
9.644508e-02
1.118384e-01
1.266367e-01
1.408207e-01
1.543862e-01
1.673357e-01
1.796736e-01
1.914053e-01
2.025357e-01
2.130693e-01
2.230100e-01
2.323611e-01
2.411249e-01
2.493018e-01
2.568893e-01
2.638805e-01
2.702618e-01
2.760113e-01
2.810967e-01
2.854752e-01
2.890967e-01
2.919113e-01
2.938839e-01
2.950171e-01
2.953848e-01
2.951740e-01
2.947345e-01
0.000000e+00
1.959617e-02
4.027451e-02
6.151868e-02
8.271275e-02
1.033931e-01
1.233826e-01
1.426171e-01
1.610791e-01
1.787667e-01
1.956831e-01
2.118324e-01
2.272174e-01
2.418400e-01
2.557003e-01
2.687973e-01
2.811284e-01
2.926897e-01
3.034754e-01
3.134779e-01
3.226871e-01
3.310902e-01
3.386711e-01
3.454109e-01
3.512879e-01
3.562801e-01
3.603689e-01
3.635450e-01
3.658181e-01
3.672308e-01
3.678806e-01
3.679580e-01
3.678122e-01
0.000000e+00
2.470292e-02
5.085758e-02
7.748766e-02
1.033647e-01
1.282891e-01
1.522444e-01
1.752525e-01
1.973324e-01
2.184958e-01
2.387483e-01
2.580915e-01
2.765241e-01
2.940427e-01
3.106418e-01
3.263138e-01
3.410491e-01
3.548357e-01
3.676590e-01
3.795018e-01
3.903448e-01
4.001670e-01
4.089468e-01
4.166647e-01
4.233060e-01
4.288657e-01
4.333538e-01
4.368019e-01
4.392697e-01
4.408503e-01
4.416776e-01
4.419471e-01
4.419792e-01
0.000000e+00
3.114541e-02
6.480277e-02
9.654005e-02
1.267083e-01
1.555945e-01
1.833509e-01
2.100435e-01
2.356970e-01
2.603174e-01
2.839020e-01
3.064442e-01
3.279356e-01
3.483663e-01
3.677248e-01
3.859971e-01
4.031668e-01
4.192135e-01
4.341132e-01
4.478377e-01
4.603555e-01
4.716327e-01
4.816362e-01
4.903371e-01
4.977175e-01
5.037778e-01
5.085466e-01
5.120910e-01
5.145258e-01
5.160178e-01
5.167800e-01
5.170563e-01
5.171240e-01
0.000000e+00
4.644760e-02
8.428058e-02
1.193338e-01
1.529806e-01
1.854775e-01
2.168898e-01
2.472145e-01
2.764315e-01
3.045174e-01
3.314507e-01
3.572124e-01
3.817862e-01
4.051563e-01
4.273064e-01
4.482180e-01
4.678688e-01
4.862316e-01
5.032727e-01
5.189517e-01
5.332215e-01
5.460295e-01
5.573208e-01
5.670436e-01
5.751578e-01
5.816469e-01
5.865341e-01
5.899009e-01
5.919076e-01
5.928118e-01
5.929761e-01
5.928400e-01
5.927634e-01
0.000000e+00
-2.869471e-02
-5.007846e-02
-7.341329e-02
-9.939802e-02
-1.287504e-01
-1.616743e-01
-1.982271e-01
-2.383722e-01
-2.820238e-01
-3.290660e-01
-3.793658e-01
-4.327796e-01
-4.891580e-01
-5.483484e-01
-6.101975e-01
-6.745525e-01
-7.412634e-01
-8.101854e-01
-8.811821e-01
-9.541297e-01
-1.028925e+00
-1.105492e+00
-1.183803e+00
-1.263896e+00
-1.345920e+00
-1.430201e+00
-1.517374e+00
-1.608657e+00
-1.706460e+00
-1.815982e+00
-1.949488e+00
-2.133931e+00
0.000000e+00
-1.783267e-02
-4.021582e-02
-6.370806e-02
-9.005497e-02
-1.197262e-01
-1.529700e-01
-1.898427e-01
-2.303110e-01
-2.742888e-01
-3.216598e-01
-3.722898e-01
-4.260341e-01
-4.827419e-01
-5.422593e-01
-6.044314e-01
-6.691034e-01
-7.361234e-01
-8.053435e-01
-8.766239e-01
-9.498367e-01
-1.024873e+00
-1.101651e+00
-1.180132e+00
-1.260347e+00
-1.342428e+00
-1.426686e+00
-1.513736e+00
-1.604770e+00
-1.702158e+00
-1.810834e+00
-1.941368e+00
-2.113685e+00
0.000000e+00
-1.309912e-02
-3.242181e-02
-5.559358e-02
-8.198651e-02
-1.118764e-01
-1.453826e-01
-1.825363e-01
-2.232928e-01
-2.675620e-01
-3.152255e-01
-3.661481e-01
-4.201844e-01
-4.771831e-01
-5.369899e-01
-5.994490e-01
-6.644051e-01
-7.317052e-01
-8.012006e-01
-8.727503e-01
-9.462253e-01
-1.021515e+00
-1.098539e+00
-1.177260e+00
-1.257710e+00
-1.340030e+00
-1.424545e+00
-1.511885e+00
-1.603228e+00
-1.700707e+00
-1.807969e+00
-1.929320e+00
-2.063934e+00
0.000000e+00
-1.048922e-02
-2.745473e-02
-4.939087e-02
-7.544461e-02
-1.053252e-01
-1.389748e-01
-1.763366e-01
-2.173303e-01
-2.618491e-01
-3.097673e-01
-3.609462e-01
-4.152391e-01
-4.724946e-01
-5.325583e-01
-5.952750e-01
-6.604899e-01
-7.280505e-01
-7.978090e-01
-8.696255e-01
-9.433727e-01
-1.018943e+00
-1.096259e+00
-1.175290e+00
-1.256076e+00
-1.338765e+00
-1.423678e+00
-1.511396e+00
-1.602883e+00
-1.699545e+00
-1.802728e+00
-1.911553e+00
-2.012858e+00
0.000000e+00
-8.875610e-03
-2.420644e-02
-4.498621e-02
-7.044604e-02
-1.001307e-01
-1.337929e-01
-1.712762e-01
-2.124451e-01
-2.571649e-01
-3.052960e-01
-3.566933e-01
-4.112075e-01
-4.686866e-01
-5.289770e-01
-5.919243e-01
-6.573755e-01
-7.251796e-01
-7.951910e-01
-8.672721e-01
-9.412984e-01
-1.017166e+00
-1.094800e+00
-1.174172e+00
-1.255319e+00
-1.338372e+00
-1.423590e+00
-1.511394e+00
-1.602338e+00
-1.696867e+00
-1.794530e+00
-1.891743e+00
-1.979969e+00
0.000000e+00
-7.848853e-03
-2.207516e-02
-4.195511e-02
-6.684183e-02
-9.624844e-02
-1.298375e-01
-1.673687e-01
-2.086529e-01
-2.535234e-01
-3.018233e-01
-3.533988e-01
-4.080971e-01
-4.657655e-01
-5.262509e-01
-5.894009e-01
-6.550641e-01
-7.230920e-01
-7.933412e-01
-8.656762e-01
-9.399745e-01
-1.016132e+00
-1.094074e+00
-1.173760e+00
-1.255207e+00
-1.338492e+00
-1.423762e+00
-1.511201e+00
-1.600911e+00
-1.692588e+00
-1.784837e+00
-1.874361e+00
-1.956185e+00
0.000000e+00
-7.210735e-03
-2.072766e-02
-3.998484e-02
-6.442728e-02
-9.358048e-02
-1.270698e-01
-1.646057e-01
-2.059580e-01
-2.509328e-01
-2.993571e-01
-3.510688e-01
-4.059115e-01
-4.637320e-01
-5.243780e-01
-5.876987e-01
-6.535449e-01
-7.217702e-01
-7.922326e-01
-8.647978e-01
-9.393419e-01
-1.015757e+00
-1.093957e+00
-1.173883e+00
-1.255507e+00
-1.338831e+00
-1.423862e+00
-1.510551e+00
-1.598649e+00
-1.687438e+00
-1.775382e+00
-1.859945e+00
-1.938022e+00
0.000000e+00
-6.860080e-03
-1.997995e-02
-3.887454e-02
-6.304274e-02
-9.202642e-02
-1.254389e-01
-1.629665e-01
-2.043556e-01
-2.493950e-01
-2.979007e-01
-3.497053e-01
-4.046501e-01
-4.625818e-01
-5.233494e-01
-5.868036e-01
-6.527971e-01
-7.211847e-01
-7.918251e-01
-8.645822e-01
-9.393281e-01
-1.015945e+00
-1.094330e+00
-1.174391e+00
-1.256048e+00
-1.339218e+00
-1.423778e+00
-1.509498e+00
-1.595919e+00
-1.682192e+00
-1.766932e+00
-1.848230e+00
-1.923968e+00
0.000000e+00
-6.747100e-03
-1.973873e-02
-3.851469e-02
-6.259150e-02
-9.151780e-02
-1.249046e-01
-1.624317e-01
-2.038383e-01
-2.489078e-01
-2.974532e-01
-3.493060e-01
-4.043078e-01
-4.623060e-01
-5.231513e-01
-5.866960e-01
-6.527938e-01
-7.213002e-01
-7.920724e-01
-8.649711e-01
-9.398606e-01
-1.016610e+00
-1.095091e+00
-1.175178e+00
-1.256736e+00
-1.339601e+00
-1.423549e+00
-1.508235e+00
-1.593110e+00
-1.677339e+00
-1.759750e+00
-1.838887e+00
-1.913198e+00
0.000000e+00
-6.856812e-03
-1.997542e-02
-3.887064e-02
-6.304156e-02
-9.203056e-02
-1.254518e-01
-1.629927e-01
-2.044011e-01
-2.494677e-01
-2.980107e-01
-3.498653e-01
-4.048760e-01
-4.628925e-01
-5.237671e-01
-5.873536e-01
-6.535061e-01
-7.220797e-01
-7.929294e-01
-8.659102e-01
-9.408769e-01
-1.017682e+00
-1.096173e+00
-1.176187e+00
-1.257539e+00
-1.340003e+00
-1.423284e+00
-1.506975e+00
-1.590514e+00
-1.673139e+00
-1.753884e+00
-1.831623e+00
-1.905170e+00
0.000000e+00
-7.204464e-03
-2.071895e-02
-3.997731e-02
-6.442492e-02
-9.358827e-02
-1.270943e-01
-1.646556e-01
-2.060449e-01
-2.510718e-01
-2.995676e-01
-3.513754e-01
-4.063445e-01
-4.643278e-01
-5.251795e-01
-5.887542e-01
-6.549064e-01
-7.234898e-01
-7.943561e-01
-8.673543e-01
-9.423282e-01
-1.019114e+00
-1.097536e+00
-1.177397e+00
-1.258471e+00
-1.340487e+00
-1.423104e+00
-1.505895e+00
-1.588319e+00
-1.669709e+00
-1.749284e+00
-1.826175e+00
-1.899472e+00
0.000000e+00
-7.840136e-03
-2.206306e-02
-4.194460e-02
-6.683843e-02
-9.625910e-02
-1.298714e-01
-1.674380e-01
-2.087738e-01
-2.537172e-01
-3.021171e-01
-3.538270e-01
-4.087023e-01
-4.665988e-01
-5.273724e-01
-5.908787e-01
-6.569716e-01
-7.255030e-01
-7.963214e-01
-8.692693e-01
-9.441805e-01
-1.020876e+00
-1.099160e+00
-1.178808e+00
-1.259562e+00
-1.341119e+00
-1.423116e+00
-1.505122e+00
-1.586634e+00
-1.667082e+00
-1.745849e+00
-1.822288e+00
-1.895737e+00
0.000000e+00
-8.865342e-03
-2.419220e-02
-4.497382e-02
-7.044209e-02
-1.001436e-01
-1.338338e-01
-1.713598e-01
-2.125911e-01
-2.573990e-01
-3.056512e-01
-3.572111e-01
-4.119394e-01
-4.696947e-01
-5.303341e-01
-5.937131e-01
-6.596852e-01
-7.281007e-01
-7.988044e-01
-8.716335e-01
-9.464136e-01
-1.022954e+00
-1.101040e+00
-1.180430e+00
-1.260844e+00
-1.341956e+00
-1.423393e+00
-1.504731e+00
-1.585507e+00
-1.665239e+00
-1.743452e+00
-1.819708e+00
-1.893599e+00
0.000000e+00
-1.047867e-02
-2.744011e-02
-4.937827e-02
-7.544123e-02
-1.053403e-01
-1.390208e-01
-1.764300e-01
-2.174927e-01
-2.621090e-01
-3.101609e-01
-3.615195e-01
-4.160490e-01
-4.736093e-01
-5.340582e-01
-5.972509e-01
-6.630402e-01
-7.312745e-01
-8.017963e-01
-8.744383e-01
-9.490199e-01
-1.025342e+00
-1.103179e+00
-1.182276e+00
-1.262338e+00
-1.343030e+00
-1.423973e+00
-1.504753e+00
-1.584940e+00
-1.664121e+00
-1.741944e+00
-1.818167e+00
-1.892667e+00
0.000000e+00
-1.308993e-02
-3.240900e-02
-5.558294e-02
-8.198550e-02
-1.118948e-01
-1.454335e-01
-1.826368e-01
-2.234654e-01
-2.678361e-01
-3.156388e-01
-3.667479e-01
-4.210290e-01
-4.783427e-01
-5.385464e-01
-6.014949e-01
-6.670400e-01
-7.350288e-01
-8.053016e-01
-8.776886e-01
-9.520052e-01
-1.028047e+00
-1.105583e+00
-1.184351e+00
-1.264050e+00
-1.344341e+00
-1.424845e+00
-1.505158e+00
-1.584876e+00
-1.663631e+00
-1.741163e+00
-1.817393e+00
-1.892504e+00
0.000000e+00
-1.782676e-02
-4.020711e-02
-6.370181e-02
-9.005884e-02
-1.197502e-01
-1.530273e-01
-1.899505e-01
-2.304918e-01
-2.745718e-01
-3.220820e-01
-3.728976e-01
-4.268844e-01
-4.839026e-01
-5.438091e-01
-6.064581e-01
-6.717003e-01
-7.393816e-01
-8.093408e-01
-8.814061e-01
-9.553908e-01
-1.031088e+00
-1.108265e+00
-1.186659e+00
-1.265968e+00
-1.345854e+00
-1.425947e+00
-1.505853e+00
-1.585186e+00
-1.663608e+00
-1.740908e+00
-1.817113e+00
-1.892643e+00
0.000000e+00
-2.869387e-02
-5.007556e-02
-7.341385e-02
-9.940974e-02
-1.287833e-01
-1.617416e-01
-1.983458e-01
-2.385645e-01
-2.823178e-01
-3.294975e-01
-3.799790e-01
-4.336281e-01
-4.903050e-01
-5.498660e-01
-6.121645e-01
-6.770500e-01
-7.443670e-01
-8.139524e-01
-8.856327e-01
-9.592194e-01
-1.034505e+00
-1.111256e+00