TITLE = "Solution"
VARIABLES = x, y, u, v, psiu, psiv, t, stress
ZONE T="structure" N=561 E=512 F=FEBLOCK ET=QUADRILATERAL VARLOCATION=([7,8]=cellcentered)
0.000000e+00
6.250000e+00
1.250000e+01
1.875000e+01
2.500000e+01
3.125000e+01
3.750000e+01
4.375000e+01
5.000000e+01
5.625000e+01
6.250000e+01
6.875000e+01
7.500000e+01
8.125000e+01
8.750000e+01
9.375000e+01
1.000000e+02
1.062500e+02
1.125000e+02
1.187500e+02
1.250000e+02
1.312500e+02
1.375000e+02
1.437500e+02
1.500000e+02
1.562500e+02
1.625000e+02
1.687500e+02
1.750000e+02
1.812500e+02
1.875000e+02
1.937500e+02
2.000000e+02
0.000000e+00
6.250000e+00
1.250000e+01
1.875000e+01
2.500000e+01
3.125000e+01
3.750000e+01
4.375000e+01
5.000000e+01
5.625000e+01
6.250000e+01
6.875000e+01
7.500000e+01
8.125000e+01
8.750000e+01
9.375000e+01
1.000000e+02
1.062500e+02
1.125000e+02
1.187500e+02
1.250000e+02
1.312500e+02
1.375000e+02
1.437500e+02
1.500000e+02
1.562500e+02
1.625000e+02
1.687500e+02
1.750000e+02
1.812500e+02
1.875000e+02
1.937500e+02
2.000000e+02
0.000000e+00
6.250000e+00
1.250000e+01
1.875000e+01
2.500000e+01
3.125000e+01
3.750000e+01
4.375000e+01
5.000000e+01
5.625000e+01
6.250000e+01
6.875000e+01
7.500000e+01
8.125000e+01
8.750000e+01
9.375000e+01
1.000000e+02
1.062500e+02
1.125000e+02
1.187500e+02
1.250000e+02
1.312500e+02
1.375000e+02
1.437500e+02
1.500000e+02
1.562500e+02
1.625000e+02
1.687500e+02
1.750000e+02
1.812500e+02
1.875000e+02
1.937500e+02
2.000000e+02
0.000000e+00
6.250000e+00
1.250000e+01
1.875000e+01
2.500000e+01
3.125000e+01
3.750000e+01
4.375000e+01
5.000000e+01
5.625000e+01
6.250000e+01
6.875000e+01
7.500000e+01
8.125000e+01
8.750000e+01
9.375000e+01
1.000000e+02
1.062500e+02
1.125000e+02
1.187500e+02
1.250000e+02
1.312500e+02
1.375000e+02
1.437500e+02
1.500000e+02
1.562500e+02
1.625000e+02
1.687500e+02
1.750000e+02
1.812500e+02
1.875000e+02
1.937500e+02
2.000000e+02
0.000000e+00
6.250000e+00
1.250000e+01
1.875000e+01
2.500000e+01
3.125000e+01
3.750000e+01
4.375000e+01
5.000000e+01
5.625000e+01
6.250000e+01
6.875000e+01
7.500000e+01
8.125000e+01
8.750000e+01
9.375000e+01
1.000000e+02
1.062500e+02
1.125000e+02
1.187500e+02
1.250000e+02
1.312500e+02
1.375000e+02
1.437500e+02
1.500000e+02
1.562500e+02
1.625000e+02
1.687500e+02
1.750000e+02
1.812500e+02
1.875000e+02
1.937500e+02
2.000000e+02
0.000000e+00
6.250000e+00
1.250000e+01
1.875000e+01
2.500000e+01
3.125000e+01
3.750000e+01
4.375000e+01
5.000000e+01
5.625000e+01
6.250000e+01
6.875000e+01
7.500000e+01
8.125000e+01
8.750000e+01
9.375000e+01
1.000000e+02
1.062500e+02
1.125000e+02
1.187500e+02
1.250000e+02
1.312500e+02
1.375000e+02
1.437500e+02
1.500000e+02
1.562500e+02
1.625000e+02
1.687500e+02
1.750000e+02
1.812500e+02
1.875000e+02
1.937500e+02
2.000000e+02
0.000000e+00
6.250000e+00
1.250000e+01
1.875000e+01
2.500000e+01
3.125000e+01
3.750000e+01
4.375000e+01
5.000000e+01
5.625000e+01
6.250000e+01
6.875000e+01
7.500000e+01
8.125000e+01
8.750000e+01
9.375000e+01
1.000000e+02
1.062500e+02
1.125000e+02
1.187500e+02
1.250000e+02
1.312500e+02
1.375000e+02
1.437500e+02
1.500000e+02
1.562500e+02
1.625000e+02
1.687500e+02
1.750000e+02
1.812500e+02
1.875000e+02
1.937500e+02
2.000000e+02
0.000000e+00
6.250000e+00
1.250000e+01
1.875000e+01
2.500000e+01
3.125000e+01
3.750000e+01
4.375000e+01
5.000000e+01
5.625000e+01
6.250000e+01
6.875000e+01
7.500000e+01
8.125000e+01
8.750000e+01
9.375000e+01
1.000000e+02
1.062500e+02
1.125000e+02
1.187500e+02
1.250000e+02
1.312500e+02
1.375000e+02
1.437500e+02
1.500000e+02
1.562500e+02
1.625000e+02
1.687500e+02
1.750000e+02
1.812500e+02
1.875000e+02
1.937500e+02
2.000000e+02
0.000000e+00
6.250000e+00
1.250000e+01
1.875000e+01
2.500000e+01
3.125000e+01
3.750000e+01
4.375000e+01
5.000000e+01
5.625000e+01
6.250000e+01
6.875000e+01
7.500000e+01
8.125000e+01
8.750000e+01
9.375000e+01
1.000000e+02
1.062500e+02
1.125000e+02
1.187500e+02
1.250000e+02
1.312500e+02
1.375000e+02
1.437500e+02
1.500000e+02
1.562500e+02
1.625000e+02
1.687500e+02
1.750000e+02
1.812500e+02
1.875000e+02
1.937500e+02
2.000000e+02
0.000000e+00
6.250000e+00
1.250000e+01
1.875000e+01
2.500000e+01
3.125000e+01
3.750000e+01
4.375000e+01
5.000000e+01
5.625000e+01
6.250000e+01
6.875000e+01
7.500000e+01
8.125000e+01
8.750000e+01
9.375000e+01
1.000000e+02
1.062500e+02
1.125000e+02
1.187500e+02
1.250000e+02
1.312500e+02
1.375000e+02
1.437500e+02
1.500000e+02
1.562500e+02
1.625000e+02
1.687500e+02
1.750000e+02
1.812500e+02
1.875000e+02
1.937500e+02
2.000000e+02
0.000000e+00
6.250000e+00
1.250000e+01
1.875000e+01
2.500000e+01
3.125000e+01
3.750000e+01
4.375000e+01
5.000000e+01
5.625000e+01
6.250000e+01
6.875000e+01
7.500000e+01
8.125000e+01
8.750000e+01
9.375000e+01
1.000000e+02
1.062500e+02
1.125000e+02
1.187500e+02
1.250000e+02
1.312500e+02
1.375000e+02
1.437500e+02
1.500000e+02
1.562500e+02
1.625000e+02
1.687500e+02
1.750000e+02
1.812500e+02
1.875000e+02
1.937500e+02
2.000000e+02
0.000000e+00
6.250000e+00
1.250000e+01
1.875000e+01
2.500000e+01
3.125000e+01
3.750000e+01
4.375000e+01
5.000000e+01
5.625000e+01
6.250000e+01
6.875000e+01
7.500000e+01
8.125000e+01
8.750000e+01
9.375000e+01
1.000000e+02
1.062500e+02
1.125000e+02
1.187500e+02
1.250000e+02
1.312500e+02
1.375000e+02
1.437500e+02
1.500000e+02
1.562500e+02
1.625000e+02
1.687500e+02
1.750000e+02
1.812500e+02
1.875000e+02
1.937500e+02
2.000000e+02
0.000000e+00
6.250000e+00
1.250000e+01
1.875000e+01
2.500000e+01
3.125000e+01
3.750000e+01
4.375000e+01
5.000000e+01
5.625000e+01
6.250000e+01
6.875000e+01
7.500000e+01
8.125000e+01
8.750000e+01
9.375000e+01
1.000000e+02
1.062500e+02
1.125000e+02
1.187500e+02
1.250000e+02
1.312500e+02
1.375000e+02
1.437500e+02
1.500000e+02
1.562500e+02
1.625000e+02
1.687500e+02
1.750000e+02
1.812500e+02
1.875000e+02
1.937500e+02
2.000000e+02
0.000000e+00
6.250000e+00
1.250000e+01
1.875000e+01
2.500000e+01
3.125000e+01
3.750000e+01
4.375000e+01
5.000000e+01
5.625000e+01
6.250000e+01
6.875000e+01
7.500000e+01
8.125000e+01
8.750000e+01
9.375000e+01
1.000000e+02
1.062500e+02
1.125000e+02
1.187500e+02
1.250000e+02
1.312500e+02
1.375000e+02
1.437500e+02
1.500000e+02
1.562500e+02
1.625000e+02
1.687500e+02
1.750000e+02
1.812500e+02
1.875000e+02
1.937500e+02
2.000000e+02
0.000000e+00
6.250000e+00
1.250000e+01
1.875000e+01
2.500000e+01
3.125000e+01
3.750000e+01
4.375000e+01
5.000000e+01
5.625000e+01
6.250000e+01
6.875000e+01
7.500000e+01
8.125000e+01
8.750000e+01
9.375000e+01
1.000000e+02
1.062500e+02
1.125000e+02
1.187500e+02
1.250000e+02
1.312500e+02
1.375000e+02
1.437500e+02
1.500000e+02
1.562500e+02
1.625000e+02
1.687500e+02
1.750000e+02
1.812500e+02
1.875000e+02
1.937500e+02
2.000000e+02
0.000000e+00
6.250000e+00
1.250000e+01
1.875000e+01
2.500000e+01
3.125000e+01
3.750000e+01
4.375000e+01
5.000000e+01
5.625000e+01
6.250000e+01
6.875000e+01
7.500000e+01
8.125000e+01
8.750000e+01
9.375000e+01
1.000000e+02
1.062500e+02
1.125000e+02
1.187500e+02
1.250000e+02
1.312500e+02
1.375000e+02
1.437500e+02
1.500000e+02
1.562500e+02
1.625000e+02
1.687500e+02
1.750000e+02
1.812500e+02
1.875000e+02
1.937500e+02
2.000000e+02
0.000000e+00
6.250000e+00
1.250000e+01
1.875000e+01
2.500000e+01
3.125000e+01
3.750000e+01
4.375000e+01
5.000000e+01
5.625000e+01
6.250000e+01
6.875000e+01
7.500000e+01
8.125000e+01
8.750000e+01
9.375000e+01
1.000000e+02
1.062500e+02
1.125000e+02
1.187500e+02
1.250000e+02
1.312500e+02
1.375000e+02
1.437500e+02
1.500000e+02
1.562500e+02
1.625000e+02
1.687500e+02
1.750000e+02
1.812500e+02
1.875000e+02
1.937500e+02
2.000000e+02
0.000000e+00
0.000000e+00
0.000000e+00
0.000000e+00
0.000000e+00
0.000000e+00
0.000000e+00
0.000000e+00
0.000000e+00
0.000000e+00
0.000000e+00
0.000000e+00
0.000000e+00
0.000000e+00
0.000000e+00
0.000000e+00
0.000000e+00
0.000000e+00
0.000000e+00
0.000000e+00
0.000000e+00
0.000000e+00
0.000000e+00
0.000000e+00
0.000000e+00
0.000000e+00
0.000000e+00
0.000000e+00
0.000000e+00
0.000000e+00
0.000000e+00
0.000000e+00
0.000000e+00
6.250000e+00
6.250000e+00
6.250000e+00
6.250000e+00
6.250000e+00
6.250000e+00
6.250000e+00
6.250000e+00
6.250000e+00
6.250000e+00
6.250000e+00
6.250000e+00
6.250000e+00
6.250000e+00
6.250000e+00
6.250000e+00
6.250000e+00
6.250000e+00
6.250000e+00
6.250000e+00
6.250000e+00
6.250000e+00
6.250000e+00
6.250000e+00
6.250000e+00
6.250000e+00
6.250000e+00
6.250000e+00
6.250000e+00
6.250000e+00
6.250000e+00
6.250000e+00
6.250000e+00
1.250000e+01
1.250000e+01
1.250000e+01
1.250000e+01
1.250000e+01
1.250000e+01
1.250000e+01
1.250000e+01
1.250000e+01
1.250000e+01
1.250000e+01
1.250000e+01
1.250000e+01
1.250000e+01
1.250000e+01
1.250000e+01
1.250000e+01
1.250000e+01
1.250000e+01
1.250000e+01
1.250000e+01
1.250000e+01
1.250000e+01
1.250000e+01
1.250000e+01
1.250000e+01
1.250000e+01
1.250000e+01
1.250000e+01
1.250000e+01
1.250000e+01
1.250000e+01
1.250000e+01
1.875000e+01
1.875000e+01
1.875000e+01
1.875000e+01
1.875000e+01
1.875000e+01
1.875000e+01
1.875000e+01
1.875000e+01
1.875000e+01
1.875000e+01
1.875000e+01
1.875000e+01
1.875000e+01
1.875000e+01
1.875000e+01
1.875000e+01
1.875000e+01
1.875000e+01
1.875000e+01
1.875000e+01
1.875000e+01
1.875000e+01
1.875000e+01
1.875000e+01
1.875000e+01
1.875000e+01
1.875000e+01
1.875000e+01
1.875000e+01
1.875000e+01
1.875000e+01
1.875000e+01
2.500000e+01
2.500000e+01
2.500000e+01
2.500000e+01
2.500000e+01
2.500000e+01
2.500000e+01
2.500000e+01
2.500000e+01
2.500000e+01
2.500000e+01
2.500000e+01
2.500000e+01
2.500000e+01
2.500000e+01
2.500000e+01
2.500000e+01
2.500000e+01
2.500000e+01
2.500000e+01
2.500000e+01
2.500000e+01
2.500000e+01
2.500000e+01
2.500000e+01
2.500000e+01
2.500000e+01
2.500000e+01
2.500000e+01
2.500000e+01
2.500000e+01
2.500000e+01
2.500000e+01
3.125000e+01
3.125000e+01
3.125000e+01
3.125000e+01
3.125000e+01
3.125000e+01
3.125000e+01
3.125000e+01
3.125000e+01
3.125000e+01
3.125000e+01
3.125000e+01
3.125000e+01
3.125000e+01
3.125000e+01
3.125000e+01
3.125000e+01
3.125000e+01
3.125000e+01
3.125000e+01
3.125000e+01
3.125000e+01
3.125000e+01
3.125000e+01
3.125000e+01
3.125000e+01
3.125000e+01
3.125000e+01
3.125000e+01
3.125000e+01
3.125000e+01
3.125000e+01
3.125000e+01
3.750000e+01
3.750000e+01
3.750000e+01
3.750000e+01
3.750000e+01
3.750000e+01
3.750000e+01
3.750000e+01
3.750000e+01
3.750000e+01
3.750000e+01
3.750000e+01
3.750000e+01
3.750000e+01
3.750000e+01
3.750000e+01
3.750000e+01
3.750000e+01
3.750000e+01
3.750000e+01
3.750000e+01
3.750000e+01
3.750000e+01
3.750000e+01
3.750000e+01
3.750000e+01
3.750000e+01
3.750000e+01
3.750000e+01
3.750000e+01
3.750000e+01
3.750000e+01
3.750000e+01
4.375000e+01
4.375000e+01
4.375000e+01
4.375000e+01
4.375000e+01
4.375000e+01
4.375000e+01
4.375000e+01
4.375000e+01
4.375000e+01
4.375000e+01
4.375000e+01
4.375000e+01
4.375000e+01
4.375000e+01
4.375000e+01
4.375000e+01
4.375000e+01
4.375000e+01
4.375000e+01
4.375000e+01
4.375000e+01
4.375000e+01
4.375000e+01
4.375000e+01
4.375000e+01
4.375000e+01
4.375000e+01
4.375000e+01
4.375000e+01
4.375000e+01
4.375000e+01
4.375000e+01
5.000000e+01
5.000000e+01
5.000000e+01
5.000000e+01
5.000000e+01
5.000000e+01
5.000000e+01
5.000000e+01
5.000000e+01
5.000000e+01
5.000000e+01
5.000000e+01
5.000000e+01
5.000000e+01
5.000000e+01
5.000000e+01
5.000000e+01
5.000000e+01
5.000000e+01
5.000000e+01
5.000000e+01
5.000000e+01
5.000000e+01
5.000000e+01
5.000000e+01
5.000000e+01
5.000000e+01
5.000000e+01
5.000000e+01
5.000000e+01
5.000000e+01
5.000000e+01
5.000000e+01
5.625000e+01
5.625000e+01
5.625000e+01
5.625000e+01
5.625000e+01
5.625000e+01
5.625000e+01
5.625000e+01
5.625000e+01
5.625000e+01
5.625000e+01
5.625000e+01
5.625000e+01
5.625000e+01
5.625000e+01
5.625000e+01
5.625000e+01
5.625000e+01
5.625000e+01
5.625000e+01
5.625000e+01
5.625000e+01
5.625000e+01
5.625000e+01
5.625000e+01
5.625000e+01
5.625000e+01
5.625000e+01
5.625000e+01
5.625000e+01
5.625000e+01
5.625000e+01
5.625000e+01
6.250000e+01
6.250000e+01
6.250000e+01
6.250000e+01
6.250000e+01
6.250000e+01
6.250000e+01
6.250000e+01
6.250000e+01
6.250000e+01
6.250000e+01
6.250000e+01
6.250000e+01
6.250000e+01
6.250000e+01
6.250000e+01
6.250000e+01
6.250000e+01
6.250000e+01
6.250000e+01
6.250000e+01
6.250000e+01
6.250000e+01
6.250000e+01
6.250000e+01
6.250000e+01
6.250000e+01
6.250000e+01
6.250000e+01
6.250000e+01
6.250000e+01
6.250000e+01
6.250000e+01
6.875000e+01
6.875000e+01
6.875000e+01
6.875000e+01
6.875000e+01
6.875000e+01
6.875000e+01
6.875000e+01
6.875000e+01
6.875000e+01
6.875000e+01
6.875000e+01
6.875000e+01
6.875000e+01
6.875000e+01
6.875000e+01
6.875000e+01
6.875000e+01
6.875000e+01
6.875000e+01
6.875000e+01
6.875000e+01
6.875000e+01
6.875000e+01
6.875000e+01
6.875000e+01
6.875000e+01
6.875000e+01
6.875000e+01
6.875000e+01
6.875000e+01
6.875000e+01
6.875000e+01
7.500000e+01
7.500000e+01
7.500000e+01
7.500000e+01
7.500000e+01
7.500000e+01
7.500000e+01
7.500000e+01
7.500000e+01
7.500000e+01
7.500000e+01
7.500000e+01
7.500000e+01
7.500000e+01
7.500000e+01
7.500000e+01
7.500000e+01
7.500000e+01
7.500000e+01
7.500000e+01
7.500000e+01
7.500000e+01
7.500000e+01
7.500000e+01
7.500000e+01
7.500000e+01
7.500000e+01
7.500000e+01
7.500000e+01
7.500000e+01
7.500000e+01
7.500000e+01
7.500000e+01
8.125000e+01
8.125000e+01
8.125000e+01
8.125000e+01
8.125000e+01
8.125000e+01
8.125000e+01
8.125000e+01
8.125000e+01
8.125000e+01
8.125000e+01
8.125000e+01
8.125000e+01
8.125000e+01
8.125000e+01
8.125000e+01
8.125000e+01
8.125000e+01
8.125000e+01
8.125000e+01
8.125000e+01
8.125000e+01
8.125000e+01
8.125000e+01
8.125000e+01
8.125000e+01
8.125000e+01
8.125000e+01
8.125000e+01
8.125000e+01
8.125000e+01
8.125000e+01
8.125000e+01
8.750000e+01
8.750000e+01
8.750000e+01
8.750000e+01
8.750000e+01
8.750000e+01
8.750000e+01
8.750000e+01
8.750000e+01
8.750000e+01
8.750000e+01
8.750000e+01
8.750000e+01
8.750000e+01
8.750000e+01
8.750000e+01
8.750000e+01
8.750000e+01
8.750000e+01
8.750000e+01
8.750000e+01
8.750000e+01
8.750000e+01
8.750000e+01
8.750000e+01
8.750000e+01
8.750000e+01
8.750000e+01
8.750000e+01
8.750000e+01
8.750000e+01
8.750000e+01
8.750000e+01
9.375000e+01
9.375000e+01
9.375000e+01
9.375000e+01
9.375000e+01
9.375000e+01
9.375000e+01
9.375000e+01
9.375000e+01
9.375000e+01
9.375000e+01
9.375000e+01
9.375000e+01
9.375000e+01
9.375000e+01
9.375000e+01
9.375000e+01
9.375000e+01
9.375000e+01
9.375000e+01
9.375000e+01
9.375000e+01
9.375000e+01
9.375000e+01
9.375000e+01
9.375000e+01
9.375000e+01
9.375000e+01
9.375000e+01
9.375000e+01
9.375000e+01
9.375000e+01
9.375000e+01
1.000000e+02
1.000000e+02
1.000000e+02
1.000000e+02
1.000000e+02
1.000000e+02
1.000000e+02
1.000000e+02
1.000000e+02
1.000000e+02
1.000000e+02
1.000000e+02
1.000000e+02
1.000000e+02
1.000000e+02
1.000000e+02
1.000000e+02
1.000000e+02
1.000000e+02
1.000000e+02
1.000000e+02
1.000000e+02
1.000000e+02
1.000000e+02
1.000000e+02
1.000000e+02
1.000000e+02
1.000000e+02
1.000000e+02
1.000000e+02
1.000000e+02
1.000000e+02
1.000000e+02
0.000000e+00
-4.722102e-01
-7.826248e-01
-1.122616e+00
-1.424300e+00
-1.716225e+00
-2.028149e+00
-2.315502e+00
-2.615213e+00
-2.908801e+00
-3.205911e+00
-3.505008e+00
-3.804427e+00
-4.103979e+00
-4.404160e+00
-4.705168e+00
-5.007857e+00
-5.311135e+00
-5.613731e+00
-5.916177e+00
-6.218307e+00
-6.520200e+00
-6.822556e+00
-7.120010e+00
-7.413418e+00
-7.718279e+00
-8.017528e+00
-8.348513e+00
-8.667526e+00
-9.020891e+00
-9.509904e+00
-9.926411e+00
-1.013055e+01
0.000000e+00
-2.335349e-01
-4.702509e-01
-7.357778e-01
-1.001766e+00
-1.254491e+00
-1.524394e+00
-1.784660e+00
-2.047202e+00
-2.312173e+00
-2.572691e+00
-2.837782e+00
-3.098207e+00
-3.362082e+00
-3.623461e+00
-3.885702e+00
-4.148254e+00
-4.408757e+00
-4.671831e+00
-4.931732e+00
-5.194211e+00
-5.454379e+00
-5.715948e+00
-5.976192e+00
-6.237341e+00
-6.498457e+00
-6.757880e+00
-7.022102e+00
-7.276416e+00
-7.533311e+00
-7.787717e+00
-7.888842e+00
-7.994658e+00
0.000000e+00
-1.028741e-01
-2.378935e-01
-4.344033e-01
-6.530637e-01
-8.603554e-01
-1.086191e+00
-1.313692e+00
-1.541034e+00
-1.772641e+00
-1.996653e+00
-2.223778e+00
-2.446042e+00
-2.671221e+00
-2.894889e+00
-3.117421e+00
-3.339906e+00
-3.560243e+00
-3.783913e+00
-4.005986e+00
-4.231000e+00
-4.454208e+00
-4.678557e+00
-4.907696e+00
-5.137636e+00
-5.360670e+00
-5.572969e+00
-5.770373e+00
-5.949912e+00
-6.098895e+00
-6.186469e+00
-6.192061e+00
-6.284949e+00
0.000000e+00
-1.024792e-01
-1.859139e-01
-3.412193e-01
-4.642300e-01
-6.188358e-01
-7.959151e-01
-9.654902e-01
-1.158878e+00
-1.336537e+00
-1.521565e+00
-1.704259e+00
-1.886028e+00
-2.071875e+00
-2.255830e+00
-2.441366e+00
-2.626260e+00
-2.813084e+00
-3.002865e+00
-3.194206e+00
-3.388265e+00
-3.581711e+00
-3.776181e+00
-3.971329e+00
-4.157351e+00
-4.331380e+00
-4.480823e+00
-4.613125e+00
-4.713987e+00
-4.777441e+00
-4.792575e+00
-4.809913e+00
-4.890377e+00
0.000000e+00
-9.303669e-02
-1.846025e-01
-2.755853e-01
-3.890921e-01
-5.048252e-01
-6.370354e-01
-7.714206e-01
-9.164374e-01
-1.057481e+00
-1.203635e+00
-1.349122e+00
-1.492421e+00
-1.642096e+00
-1.784931e+00
-1.935257e+00
-2.080758e+00
-2.230194e+00
-2.379888e+00
-2.528390e+00
-2.679099e+00
-2.825201e+00
-2.969925e+00
-3.107283e+00
-3.235711e+00
-3.349797e+00
-3.446784e+00
-3.520811e+00
-3.569362e+00
-3.593811e+00
-3.597237e+00
-3.627031e+00
-3.698437e+00
0.000000e+00
-7.443908e-02
-1.459208e-01
-2.209355e-01
-3.024001e-01
-3.919539e-01
-4.867444e-01
-5.880138e-01
-6.917653e-01
-7.996235e-01
-9.070864e-01
-1.015882e+00
-1.124674e+00
-1.232676e+00
-1.342145e+00
-1.450119e+00
-1.559472e+00
-1.667493e+00
-1.775334e+00
-1.881938e+00
-1.985919e+00
-2.086936e+00
-2.181808e+00
-2.269471e+00
-2.347080e+00
-2.412742e+00
-2.464098e+00
-2.498988e+00
-2.521599e+00
-2.522008e+00
-2.517290e+00
-2.543753e+00
-2.609579e+00
0.000000e+00
-5.128400e-02
-1.020177e-01
-1.538764e-01
-2.093447e-01
-2.687067e-01
-3.321253e-01
-3.985428e-01
-4.677698e-01
-5.384575e-01
-6.101460e-01
-6.819193e-01
-7.534769e-01
-8.248397e-01
-8.956644e-01
-9.663210e-01
-1.036134e+00
-1.105104e+00
-1.172520e+00
-1.237816e+00
-1.300136e+00
-1.358072e+00
-1.410260e+00
-1.454823e+00
-1.490789e+00
-1.515909e+00
-1.529899e+00
-1.535379e+00
-1.519037e+00
-1.489158e+00
-1.477901e+00
-1.501200e+00
-1.565478e+00
0.000000e+00
-2.703541e-02
-5.391841e-02
-8.137864e-02
-1.101276e-01
-1.406154e-01
-1.727208e-01
-2.062980e-01
-2.409259e-01
-2.762752e-01
-3.117947e-01
-3.471270e-01
-3.819833e-01
-4.161933e-01
-4.497399e-01
-4.824356e-01
-5.140949e-01
-5.442774e-01
-5.726448e-01
-5.986725e-01
-6.216798e-01
-6.408441e-01
-6.549022e-01
-6.629041e-01
-6.632245e-01
-6.566258e-01
-6.407777e-01
-6.022794e-01
-5.525267e-01
-5.010069e-01
-4.741099e-01
-4.972620e-01
-5.642586e-01
0.000000e+00
-1.997429e-03
-4.042711e-03
-6.049736e-03
-7.904879e-03
-9.481976e-03
-1.071794e-02
-1.161965e-02
-1.223931e-02
-1.255509e-02
-1.246114e-02
-1.180139e-02
-1.042688e-02
-8.173753e-03
-4.808965e-03
-2.310199e-04
5.809558e-03
1.374542e-02
2.364654e-02
3.540266e-02
4.962579e-02
6.658330e-02
8.592734e-02
1.104407e-01
1.409495e-01
1.822696e-01
2.426740e-01
3.149890e-01
3.884026e-01
4.394285e-01
4.551775e-01
4.227937e-01
3.428201e-01
0.000000e+00
2.319113e-02
4.615437e-02
6.976553e-02
9.498545e-02
1.225247e-01
1.524266e-01
1.844310e-01
2.179851e-01
2.526486e-01
2.880613e-01
3.240929e-01
3.607202e-01
3.984022e-01
4.376753e-01
4.788970e-01
5.225594e-01
5.683885e-01
6.163008e-01
6.657037e-01
7.155058e-01
7.667660e-01
8.222794e-01
8.816902e-01
9.492301e-01
1.032451e+00
1.122350e+00
1.213982e+00
1.288409e+00
1.332246e+00
1.329237e+00
1.283272e+00
1.220414e+00
0.000000e+00
4.784486e-02
9.515429e-02
1.436909e-01
1.961637e-01
2.533075e-01
3.152758e-01
3.809587e-01
4.495778e-01
5.197948e-01
5.907712e-01
6.616242e-01
7.324563e-01
8.040084e-01
8.774647e-01
9.546100e-01
1.035757e+00
1.119672e+00
1.205258e+00
1.292032e+00
1.381720e+00
1.471221e+00
1.563390e+00
1.666303e+00
1.775028e+00
1.885832e+00
1.995361e+00
2.084251e+00
2.148270e+00
2.174775e+00
2.167139e+00
2.137199e+00
2.093087e+00
0.000000e+00
7.144862e-02
1.402092e-01
2.129037e-01
2.925066e-01
3.810783e-01
4.762487e-01
5.775349e-01
6.820062e-01
7.898766e-01
8.980935e-01
1.006821e+00
1.114970e+00
1.223645e+00
1.333235e+00
1.443531e+00
1.557461e+00
1.674731e+00
1.794405e+00
1.917382e+00
2.045992e+00
2.182357e+00
2.324502e+00
2.466773e+00
2.604991e+00
2.734233e+00
2.846486e+00
2.935463e+00
2.991011e+00
3.019006e+00
3.022498e+00
3.004468e+00
2.976925e+00
0.000000e+00
9.023315e-02
1.792277e-01
2.692758e-01
3.834805e-01
5.025846e-01
6.351800e-01
7.727511e-01
9.166171e-01
1.059834e+00
1.206707e+00
1.353126e+00
1.500407e+00
1.651622e+00
1.802464e+00
1.957502e+00
2.112770e+00
2.272856e+00
2.438464e+00
2.604941e+00
2.774088e+00
2.946101e+00
3.116210e+00
3.280866e+00
3.433942e+00
3.575047e+00
3.695978e+00
3.786819e+00
3.853343e+00
3.892514e+00
3.905440e+00
3.898917e+00
3.884406e+00
0.000000e+00
9.868847e-02
1.795685e-01
3.321953e-01
4.597908e-01
6.229219e-01
8.050919e-01
9.745797e-01
1.168280e+00
1.345432e+00
1.528269e+00
1.708311e+00
1.891097e+00
2.080760e+00
2.274849e+00
2.476425e+00
2.680369e+00
2.885968e+00
3.096239e+00
3.309525e+00
3.519946e+00
3.724738e+00
3.920956e+00
4.105581e+00
4.280312e+00
4.437723e+00
4.572964e+00
4.679884e+00
4.756446e+00
4.804225e+00
4.826426e+00
4.829238e+00
4.824500e+00
0.000000e+00
1.005438e-01
2.313536e-01
4.199100e-01
6.370953e-01
8.474735e-01
1.078796e+00
1.309955e+00
1.539865e+00
1.774549e+00
1.998190e+00
2.224087e+00
2.445817e+00
2.672384e+00
2.900300e+00
3.131796e+00
3.365806e+00
3.596948e+00
3.828468e+00
4.061021e+00
4.295334e+00
4.524256e+00
4.744742e+00
4.965969e+00
5.176956e+00
5.363476e+00
5.513071e+00
5.627777e+00
5.710264e+00
5.763143e+00
5.790839e+00
5.799893e+00
5.801005e+00
0.000000e+00
2.337878e-01
4.715312e-01
7.363739e-01
1.001708e+00
1.253937e+00
1.523078e+00
1.783763e+00
2.045653e+00
2.310338e+00
2.570235e+00
2.834446e+00
3.093823e+00
3.355845e+00
3.615642e+00
3.875322e+00
4.135331e+00
4.392719e+00
4.650526e+00
4.904477e+00
5.159826e+00
5.413220e+00
5.666499e+00
5.924979e+00
6.168957e+00
6.369808e+00
6.527313e+00
6.644133e+00
6.724337e+00
6.773543e+00
6.798684e+00
6.807791e+00
6.810028e+00
0.000000e+00
4.733855e-01
7.899295e-01
1.135261e+00
1.439882e+00
1.729646e+00
2.037750e+00
2.322485e+00
2.619171e+00
2.910103e+00
3.205778e+00
3.505283e+00
3.802766e+00
4.100231e+00
4.393690e+00
4.684765e+00
4.972287e+00
5.261513e+00
5.551979e+00
5.839925e+00
6.127507e+00
6.415579e+00
6.707390e+00
7.000113e+00
7.265613e+00
7.476435e+00
7.634606e+00
7.743491e+00
7.808361e+00
7.837479e+00
7.842569e+00
7.837947e+00
7.835393e+00
0.000000e+00
-2.792120e-01
-5.895623e-01
-9.864412e-01
-1.418737e+00
-1.888439e+00
-2.398765e+00
-2.939735e+00
-3.516257e+00
-4.124214e+00
-4.766096e+00
-5.443993e+00
-6.158341e+00
-6.910830e+00
-7.700120e+00
-8.528009e+00
-9.394311e+00
-1.030080e+01
-1.124724e+01
-1.223327e+01
-1.325939e+01
-1.432519e+01
-1.543242e+01
-1.657947e+01
-1.776409e+01
-1.898783e+01
-2.025498e+01
-2.157610e+01
-2.295778e+01
-2.442048e+01
-2.598120e+01
-2.778919e+01
-3.032665e+01
0.000000e+00
-1.801872e-01
-5.091228e-01
-8.986795e-01
-1.337806e+00
-1.804006e+00
-2.314211e+00
-2.857305e+00
-3.432048e+00
-4.041096e+00
-4.681927e+00
-5.360161e+00
-6.074238e+00
-6.826943e+00
-7.616235e+00
-8.443826e+00
-9.310268e+00
-1.021643e+01
-1.116327e+01
-1.214909e+01
-1.317537e+01
-1.424083e+01
-1.534815e+01
-1.649600e+01
-1.768036e+01
-1.890365e+01
-2.016925e+01
-2.148874e+01
-2.287195e+01
-2.432557e+01
-2.590562e+01
-2.770081e+01
-2.995174e+01
0.000000e+00
-1.592663e-01
-4.500254e-01
-8.421961e-01
-1.271239e+00
-1.735104e+00
-2.243333e+00
-2.784198e+00
-3.360336e+00
-3.968145e+00
-4.610122e+00
-5.288451e+00
-6.002716e+00
-6.755506e+00
-7.545418e+00
-8.373074e+00
-9.240056e+00
-1.014588e+01
-1.109266e+01
-1.207833e+01
-1.310444e+01
-1.416962e+01
-1.527535e+01
-1.642258e+01
-1.760791e+01
-1.883401e+01
-2.010149e+01
-2.142610e+01
-2.281310e+01
-2.428719e+01
-2.591015e+01
-2.759480e+01
-2.934312e+01
0.000000e+00
-2.046351e-01
-4.500663e-01
-8.387687e-01
-1.236564e+00
-1.689393e+00
-2.196141e+00
-2.723921e+00
-3.306572e+00
-3.908542e+00
-4.553544e+00
-5.232252e+00
-5.944700e+00
-6.700382e+00
-7.487826e+00
-8.318549e+00
-9.183962e+00
-1.009023e+01
-1.103666e+01
-1.202105e+01
-1.304818e+01
-1.411202e+01
-1.521695e+01
-1.636386e+01
-1.755159e+01
-1.878387e+01
-2.005749e+01
-2.138928e+01
-2.278504e+01
-2.427873e+01
-2.589435e+01
-2.744404e+01
-2.884317e+01
0.000000e+00
-2.207382e-01
-4.888671e-01
-8.340146e-01
-1.234367e+00
-1.669870e+00
-2.166952e+00
-2.689059e+00
-3.266621e+00
-3.868591e+00
-4.512501e+00
-5.193163e+00
-5.903935e+00
-6.662427e+00
-7.447739e+00
-8.280787e+00
-9.145196e+00
-1.005162e+01
-1.099803e+01
-1.198141e+01
-1.300913e+01
-1.407272e+01
-1.517907e+01
-1.632674e+01
-1.751811e+01
-1.875371e+01
-2.003552e+01
-2.137085e+01
-2.276920e+01
-2.425872e+01
-2.579405e+01
-2.724307e+01
-2.850989e+01
0.000000e+00
-2.276567e-01
-5.053012e-01
-8.399864e-01
-1.227822e+00
-1.663037e+00
-2.145329e+00
-2.669910e+00
-3.236952e+00
-3.841768e+00
-4.483825e+00
-5.163511e+00
-5.878756e+00
-6.632818e+00
-7.423496e+00
-8.252792e+00
-9.120277e+00
-1.002642e+01
-1.097280e+01
-1.195862e+01
-1.298542e+01
-1.405239e+01
-1.516045e+01
-1.631088e+01
-1.750439e+01
-1.874188e+01
-2.002625e+01
-2.136097e+01
-2.274853e+01
-2.419773e+01
-2.563900e+01
-2.700719e+01
-2.821221e+01
0.000000e+00
-2.313478e-01
-5.115146e-01
-8.431902e-01
-1.225762e+00
-1.656942e+00
-2.134587e+00
-2.656411e+00
-3.220356e+00
-3.824117e+00
-4.466297e+00
-5.145905e+00
-5.862718e+00
-6.616813e+00
-7.408465e+00
-8.238146e+00
-9.106317e+00
-1.001374e+01
-1.096099e+01
-1.194866e+01
-1.297710e+01
-1.404659e+01
-1.515750e+01
-1.631009e+01
-1.750494e+01
-1.874268e+01
-2.002313e+01
-2.135446e+01
-2.270972e+01
-2.410767e+01
-2.548416e+01
-2.678463e+01
-2.792654e+01
0.000000e+00
-2.327470e-01
-5.138364e-01
-8.446288e-01
-1.225154e+00
-1.654182e+00
-2.129893e+00
-2.650226e+00
-3.213117e+00
-3.816622e+00
-4.459141e+00
-5.139582e+00
-5.857313e+00
-6.612239e+00
-7.404569e+00
-8.234893e+00
-9.103980e+00
-1.001253e+01
-1.096121e+01
-1.195056e+01
-1.298100e+01
-1.405281e+01
-1.516595e+01
-1.632047e+01
-1.751431e+01
-1.875188e+01
-2.002463e+01
-2.133684e+01
-2.265743e+01
-2.400199e+01
-2.533275e+01
-2.657620e+01
-2.766241e+01
0.000000e+00
-2.330367e-01
-5.144305e-01
-8.452510e-01
-1.225631e+00
-1.654590e+00
-2.130393e+00
-2.650992e+00
-3.214358e+00
-3.818635e+00
-4.462231e+00
-5.143859e+00
-5.862725e+00
-6.618603e+00
-7.411677e+00
-8.242613e+00
-9.112631e+00
-1.002242e+01
-1.097229e+01
-1.196302e+01
-1.299519e+01
-1.406829e+01
-1.518274e+01
-1.633796e+01
-1.753086e+01
-1.876296e+01
-2.002146e+01
-2.130445e+01
-2.260102e+01
-2.389451e+01
-2.516560e+01
-2.633381e+01
-2.732529e+01
0.000000e+00
-2.325833e-01
-5.138920e-01
-8.453815e-01
-1.227210e+00
-1.658111e+00
-2.136007e+00
-2.658608e+00
-3.223818e+00
-3.829863e+00
-4.475199e+00
-5.158380e+00
-5.878466e+00
-6.635455e+00
-7.429472e+00
-8.260799e+00
-9.131995e+00
-1.004307e+01
-1.099395e+01
-1.198478e+01
-1.301856e+01
-1.409151e+01
-1.520430e+01
-1.636137e+01
-1.754707e+01
-1.876715e+01
-2.000852e+01
-2.126853e+01
-2.253585e+01
-2.379250e+01
-2.499758e+01
-2.609874e+01
-2.705769e+01
0.000000e+00
-2.311105e-01
-5.116914e-01
-8.446816e-01
-1.229914e+00
-1.665019e+00
-2.147166e+00
-2.673473e+00
-3.241813e+00
-3.850377e+00
-4.497891e+00
-5.182618e+00
-5.903617e+00
-6.661980e+00
-7.456971e+00
-8.289434e+00
-9.162120e+00
-1.007439e+01
-1.102641e+01
-1.201612e+01
-1.304926e+01
-1.412014e+01
-1.523067e+01
-1.638131e+01
-1.755837e+01
-1.876301e+01
-1.999321e+01
-2.123090e+01
-2.247262e+01
-2.368829e+01
-2.484781e+01
-2.591696e+01
-2.686544e+01
0.000000e+00
-2.274689e-01
-5.057668e-01
-8.422516e-01
-1.234029e+00
-1.675979e+00
-2.165041e+00
-2.696336e+00
-3.269378e+00
-3.880911e+00
-4.530420e+00
-5.216393e+00
-5.937498e+00
-6.696959e+00
-7.493071e+00
-8.328132e+00
-9.202440e+00
-1.011583e+01
-1.106776e+01
-1.205660e+01
-1.308489e+01
-1.415200e+01
-1.525676e+01
-1.639711e+01
-1.756495e+01
-1.876008e+01
-1.997836e+01
-2.120322e+01
-2.241805e+01
-2.360451e+01
-2.473458e+01
-2.578776e+01
-2.674022e+01
0.000000e+00
-2.204575e-01
-4.897344e-01
-8.374731e-01
-1.242545e+00
-1.689810e+00
-2.193953e+00
-2.726552e+00
-3.309187e+00
-3.920944e+00
-4.573158e+00
-5.259633e+00
-5.980055e+00
-6.742374e+00
-7.538786e+00
-8.377586e+00
-9.252840e+00
-1.016527e+01
-1.111570e+01
-1.210121e+01
-1.312433e+01
-1.418587e+01
-1.528254e+01
-1.641330e+01
-1.757394e+01
-1.876547e+01
-1.997803e+01
-2.118818e+01
-2.238317e+01
-2.354434e+01
-2.465581e+01
-2.570200e+01
-2.666920e+01
0.000000e+00
-2.033511e-01
-4.508777e-01
-8.430565e-01
-1.249732e+00
-1.715791e+00
-2.233482e+00
-2.769581e+00
-3.359853e+00
-3.971093e+00
-4.623968e+00
-5.309906e+00
-6.032858e+00
-6.797136e+00
-7.597059e+00
-8.437229e+00
-9.312643e+00
-1.022329e+01
-1.117019e+01
-1.215175e+01
-1.316970e+01
-1.422398e+01
-1.531184e+01
-1.643527e+01
-1.759735e+01
-1.878898e+01
-1.999430e+01
-2.118942e+01
-2.236543e+01
-2.350823e+01
-2.460619e+01
-2.565099e+01
-2.663846e+01
0.000000e+00
-1.564304e-01
-4.487651e-01
-8.460566e-01
-1.287253e+00
-1.764965e+00
-2.285235e+00
-2.834629e+00
-3.418969e+00
-4.034378e+00
-4.683146e+00
-5.370003e+00
-6.094779e+00
-6.860075e+00
-7.663118e+00
-8.503099e+00
-9.378336e+00
-1.028710e+01
-1.123169e+01
-1.221057e+01
-1.322419e+01
-1.427186e+01
-1.535260e+01
-1.647703e+01
-1.764193e+01
-1.883073e+01
-2.002173e+01
-2.120344e+01
-2.236402e+01
-2.349259e+01
-2.458058e+01
-2.562543e+01
-2.663325e+01
0.000000e+00
-1.768190e-01
-5.068391e-01
-9.028700e-01
-1.354704e+00
-1.835243e+00
-2.357178e+00
-2.909586e+00
-3.492160e+00
-4.108219e+00
-4.755487e+00
-5.442330e+00
-6.167330e+00
-6.933103e+00
-7.736520e+00
-8.576611e+00
-9.450859e+00
-1.035804e+01
-1.130143e+01
-1.227890e+01
-1.329078e+01
-1.433526e+01
-1.541656e+01
-1.654231e+01
-1.770379e+01
-1.888009e+01
-2.005783e+01
-2.122647e+01
-2.237461e+01
-2.349207e+01
-2.457228e+01
-2.561623e+01
-2.663792e+01
0.000000e+00
-2.766692e-01
-5.884109e-01
-9.914688e-01
-1.435805e+00
-1.919096e+00
-2.441320e+00
-2.991799e+00
-3.576090e+00
-4.191015e+00
-4.839649e+00
-5.526148e+00
-6.251104e+00
-7.016456e+00
-7.819169e+00
-8.658795e+00
-9.532098e+00
-1.043934e+01
-1.138181e+01
-1.235876e+01
-1.337022e+01
-1.441487e+01