TITLE = "Solution"
VARIABLES = x, y, u, v, psiu, psiv, t, stress
ZONE T="structure" N=561 E=512 F=FEBLOCK ET=QUADRILATERAL VARLOCATION=([7,8]=cellcentered)
0.000000e+00
6.250000e+00
1.250000e+01
1.875000e+01
2.500000e+01
3.125000e+01
3.750000e+01
4.375000e+01
5.000000e+01
5.625000e+01
6.250000e+01
6.875000e+01
7.500000e+01
8.125000e+01
8.750000e+01
9.375000e+01
1.000000e+02
1.062500e+02
1.125000e+02
1.187500e+02
1.250000e+02
1.312500e+02
1.375000e+02
1.437500e+02
1.500000e+02
1.562500e+02
1.625000e+02
1.687500e+02
1.750000e+02
1.812500e+02
1.875000e+02
1.937500e+02
2.000000e+02
0.000000e+00
6.250000e+00
1.250000e+01
1.875000e+01
2.500000e+01
3.125000e+01
3.750000e+01
4.375000e+01
5.000000e+01
5.625000e+01
6.250000e+01
6.875000e+01
7.500000e+01
8.125000e+01
8.750000e+01
9.375000e+01
1.000000e+02
1.062500e+02
1.125000e+02
1.187500e+02
1.250000e+02
1.312500e+02
1.375000e+02
1.437500e+02
1.500000e+02
1.562500e+02
1.625000e+02
1.687500e+02
1.750000e+02
1.812500e+02
1.875000e+02
1.937500e+02
2.000000e+02
0.000000e+00
6.250000e+00
1.250000e+01
1.875000e+01
2.500000e+01
3.125000e+01
3.750000e+01
4.375000e+01
5.000000e+01
5.625000e+01
6.250000e+01
6.875000e+01
7.500000e+01
8.125000e+01
8.750000e+01
9.375000e+01
1.000000e+02
1.062500e+02
1.125000e+02
1.187500e+02
1.250000e+02
1.312500e+02
1.375000e+02
1.437500e+02
1.500000e+02
1.562500e+02
1.625000e+02
1.687500e+02
1.750000e+02
1.812500e+02
1.875000e+02
1.937500e+02
2.000000e+02
0.000000e+00
6.250000e+00
1.250000e+01
1.875000e+01
2.500000e+01
3.125000e+01
3.750000e+01
4.375000e+01
5.000000e+01
5.625000e+01
6.250000e+01
6.875000e+01
7.500000e+01
8.125000e+01
8.750000e+01
9.375000e+01
1.000000e+02
1.062500e+02
1.125000e+02
1.187500e+02
1.250000e+02
1.312500e+02
1.375000e+02
1.437500e+02
1.500000e+02
1.562500e+02
1.625000e+02
1.687500e+02
1.750000e+02
1.812500e+02
1.875000e+02
1.937500e+02
2.000000e+02
0.000000e+00
6.250000e+00
1.250000e+01
1.875000e+01
2.500000e+01
3.125000e+01
3.750000e+01
4.375000e+01
5.000000e+01
5.625000e+01
6.250000e+01
6.875000e+01
7.500000e+01
8.125000e+01
8.750000e+01
9.375000e+01
1.000000e+02
1.062500e+02
1.125000e+02
1.187500e+02
1.250000e+02
1.312500e+02
1.375000e+02
1.437500e+02
1.500000e+02
1.562500e+02
1.625000e+02
1.687500e+02
1.750000e+02
1.812500e+02
1.875000e+02
1.937500e+02
2.000000e+02
0.000000e+00
6.250000e+00
1.250000e+01
1.875000e+01
2.500000e+01
3.125000e+01
3.750000e+01
4.375000e+01
5.000000e+01
5.625000e+01
6.250000e+01
6.875000e+01
7.500000e+01
8.125000e+01
8.750000e+01
9.375000e+01
1.000000e+02
1.062500e+02
1.125000e+02
1.187500e+02
1.250000e+02
1.312500e+02
1.375000e+02
1.437500e+02
1.500000e+02
1.562500e+02
1.625000e+02
1.687500e+02
1.750000e+02
1.812500e+02
1.875000e+02
1.937500e+02
2.000000e+02
0.000000e+00
6.250000e+00
1.250000e+01
1.875000e+01
2.500000e+01
3.125000e+01
3.750000e+01
4.375000e+01
5.000000e+01
5.625000e+01
6.250000e+01
6.875000e+01
7.500000e+01
8.125000e+01
8.750000e+01
9.375000e+01
1.000000e+02
1.062500e+02
1.125000e+02
1.187500e+02
1.250000e+02
1.312500e+02
1.375000e+02
1.437500e+02
1.500000e+02
1.562500e+02
1.625000e+02
1.687500e+02
1.750000e+02
1.812500e+02
1.875000e+02
1.937500e+02
2.000000e+02
0.000000e+00
6.250000e+00
1.250000e+01
1.875000e+01
2.500000e+01
3.125000e+01
3.750000e+01
4.375000e+01
5.000000e+01
5.625000e+01
6.250000e+01
6.875000e+01
7.500000e+01
8.125000e+01
8.750000e+01
9.375000e+01
1.000000e+02
1.062500e+02
1.125000e+02
1.187500e+02
1.250000e+02
1.312500e+02
1.375000e+02
1.437500e+02
1.500000e+02
1.562500e+02
1.625000e+02
1.687500e+02
1.750000e+02
1.812500e+02
1.875000e+02
1.937500e+02
2.000000e+02
0.000000e+00
6.250000e+00
1.250000e+01
1.875000e+01
2.500000e+01
3.125000e+01
3.750000e+01
4.375000e+01
5.000000e+01
5.625000e+01
6.250000e+01
6.875000e+01
7.500000e+01
8.125000e+01
8.750000e+01
9.375000e+01
1.000000e+02
1.062500e+02
1.125000e+02
1.187500e+02
1.250000e+02
1.312500e+02
1.375000e+02
1.437500e+02
1.500000e+02
1.562500e+02
1.625000e+02
1.687500e+02
1.750000e+02
1.812500e+02
1.875000e+02
1.937500e+02
2.000000e+02
0.000000e+00
6.250000e+00
1.250000e+01
1.875000e+01
2.500000e+01
3.125000e+01
3.750000e+01
4.375000e+01
5.000000e+01
5.625000e+01
6.250000e+01
6.875000e+01
7.500000e+01
8.125000e+01
8.750000e+01
9.375000e+01
1.000000e+02
1.062500e+02
1.125000e+02
1.187500e+02
1.250000e+02
1.312500e+02
1.375000e+02
1.437500e+02
1.500000e+02
1.562500e+02
1.625000e+02
1.687500e+02
1.750000e+02
1.812500e+02
1.875000e+02
1.937500e+02
2.000000e+02
0.000000e+00
6.250000e+00
1.250000e+01
1.875000e+01
2.500000e+01
3.125000e+01
3.750000e+01
4.375000e+01
5.000000e+01
5.625000e+01
6.250000e+01
6.875000e+01
7.500000e+01
8.125000e+01
8.750000e+01
9.375000e+01
1.000000e+02
1.062500e+02
1.125000e+02
1.187500e+02
1.250000e+02
1.312500e+02
1.375000e+02
1.437500e+02
1.500000e+02
1.562500e+02
1.625000e+02
1.687500e+02
1.750000e+02
1.812500e+02
1.875000e+02
1.937500e+02
2.000000e+02
0.000000e+00
6.250000e+00
1.250000e+01
1.875000e+01
2.500000e+01
3.125000e+01
3.750000e+01
4.375000e+01
5.000000e+01
5.625000e+01
6.250000e+01
6.875000e+01
7.500000e+01
8.125000e+01
8.750000e+01
9.375000e+01
1.000000e+02
1.062500e+02
1.125000e+02
1.187500e+02
1.250000e+02
1.312500e+02
1.375000e+02
1.437500e+02
1.500000e+02
1.562500e+02
1.625000e+02
1.687500e+02
1.750000e+02
1.812500e+02
1.875000e+02
1.937500e+02
2.000000e+02
0.000000e+00
6.250000e+00
1.250000e+01
1.875000e+01
2.500000e+01
3.125000e+01
3.750000e+01
4.375000e+01
5.000000e+01
5.625000e+01
6.250000e+01
6.875000e+01
7.500000e+01
8.125000e+01
8.750000e+01
9.375000e+01
1.000000e+02
1.062500e+02
1.125000e+02
1.187500e+02
1.250000e+02
1.312500e+02
1.375000e+02
1.437500e+02
1.500000e+02
1.562500e+02
1.625000e+02
1.687500e+02
1.750000e+02
1.812500e+02
1.875000e+02
1.937500e+02
2.000000e+02
0.000000e+00
6.250000e+00
1.250000e+01
1.875000e+01
2.500000e+01
3.125000e+01
3.750000e+01
4.375000e+01
5.000000e+01
5.625000e+01
6.250000e+01
6.875000e+01
7.500000e+01
8.125000e+01
8.750000e+01
9.375000e+01
1.000000e+02
1.062500e+02
1.125000e+02
1.187500e+02
1.250000e+02
1.312500e+02
1.375000e+02
1.437500e+02
1.500000e+02
1.562500e+02
1.625000e+02
1.687500e+02
1.750000e+02
1.812500e+02
1.875000e+02
1.937500e+02
2.000000e+02
0.000000e+00
6.250000e+00
1.250000e+01
1.875000e+01
2.500000e+01
3.125000e+01
3.750000e+01
4.375000e+01
5.000000e+01
5.625000e+01
6.250000e+01
6.875000e+01
7.500000e+01
8.125000e+01
8.750000e+01
9.375000e+01
1.000000e+02
1.062500e+02
1.125000e+02
1.187500e+02
1.250000e+02
1.312500e+02
1.375000e+02
1.437500e+02
1.500000e+02
1.562500e+02
1.625000e+02
1.687500e+02
1.750000e+02
1.812500e+02
1.875000e+02
1.937500e+02
2.000000e+02
0.000000e+00
6.250000e+00
1.250000e+01
1.875000e+01
2.500000e+01
3.125000e+01
3.750000e+01
4.375000e+01
5.000000e+01
5.625000e+01
6.250000e+01
6.875000e+01
7.500000e+01
8.125000e+01
8.750000e+01
9.375000e+01
1.000000e+02
1.062500e+02
1.125000e+02
1.187500e+02
1.250000e+02
1.312500e+02
1.375000e+02
1.437500e+02
1.500000e+02
1.562500e+02
1.625000e+02
1.687500e+02
1.750000e+02
1.812500e+02
1.875000e+02
1.937500e+02
2.000000e+02
0.000000e+00
6.250000e+00
1.250000e+01
1.875000e+01
2.500000e+01
3.125000e+01
3.750000e+01
4.375000e+01
5.000000e+01
5.625000e+01
6.250000e+01
6.875000e+01
7.500000e+01
8.125000e+01
8.750000e+01
9.375000e+01
1.000000e+02
1.062500e+02
1.125000e+02
1.187500e+02
1.250000e+02
1.312500e+02
1.375000e+02
1.437500e+02
1.500000e+02
1.562500e+02
1.625000e+02
1.687500e+02
1.750000e+02
1.812500e+02
1.875000e+02
1.937500e+02
2.000000e+02
0.000000e+00
0.000000e+00
0.000000e+00
0.000000e+00
0.000000e+00
0.000000e+00
0.000000e+00
0.000000e+00
0.000000e+00
0.000000e+00
0.000000e+00
0.000000e+00
0.000000e+00
0.000000e+00
0.000000e+00
0.000000e+00
0.000000e+00
0.000000e+00
0.000000e+00
0.000000e+00
0.000000e+00
0.000000e+00
0.000000e+00
0.000000e+00
0.000000e+00
0.000000e+00
0.000000e+00
0.000000e+00
0.000000e+00
0.000000e+00
0.000000e+00
0.000000e+00
0.000000e+00
6.250000e+00
6.250000e+00
6.250000e+00
6.250000e+00
6.250000e+00
6.250000e+00
6.250000e+00
6.250000e+00
6.250000e+00
6.250000e+00
6.250000e+00
6.250000e+00
6.250000e+00
6.250000e+00
6.250000e+00
6.250000e+00
6.250000e+00
6.250000e+00
6.250000e+00
6.250000e+00
6.250000e+00
6.250000e+00
6.250000e+00
6.250000e+00
6.250000e+00
6.250000e+00
6.250000e+00
6.250000e+00
6.250000e+00
6.250000e+00
6.250000e+00
6.250000e+00
6.250000e+00
1.250000e+01
1.250000e+01
1.250000e+01
1.250000e+01
1.250000e+01
1.250000e+01
1.250000e+01
1.250000e+01
1.250000e+01
1.250000e+01
1.250000e+01
1.250000e+01
1.250000e+01
1.250000e+01
1.250000e+01
1.250000e+01
1.250000e+01
1.250000e+01
1.250000e+01
1.250000e+01
1.250000e+01
1.250000e+01
1.250000e+01
1.250000e+01
1.250000e+01
1.250000e+01
1.250000e+01
1.250000e+01
1.250000e+01
1.250000e+01
1.250000e+01
1.250000e+01
1.250000e+01
1.875000e+01
1.875000e+01
1.875000e+01
1.875000e+01
1.875000e+01
1.875000e+01
1.875000e+01
1.875000e+01
1.875000e+01
1.875000e+01
1.875000e+01
1.875000e+01
1.875000e+01
1.875000e+01
1.875000e+01
1.875000e+01
1.875000e+01
1.875000e+01
1.875000e+01
1.875000e+01
1.875000e+01
1.875000e+01
1.875000e+01
1.875000e+01
1.875000e+01
1.875000e+01
1.875000e+01
1.875000e+01
1.875000e+01
1.875000e+01
1.875000e+01
1.875000e+01
1.875000e+01
2.500000e+01
2.500000e+01
2.500000e+01
2.500000e+01
2.500000e+01
2.500000e+01
2.500000e+01
2.500000e+01
2.500000e+01
2.500000e+01
2.500000e+01
2.500000e+01
2.500000e+01
2.500000e+01
2.500000e+01
2.500000e+01
2.500000e+01
2.500000e+01
2.500000e+01
2.500000e+01
2.500000e+01
2.500000e+01
2.500000e+01
2.500000e+01
2.500000e+01
2.500000e+01
2.500000e+01
2.500000e+01
2.500000e+01
2.500000e+01
2.500000e+01
2.500000e+01
2.500000e+01
3.125000e+01
3.125000e+01
3.125000e+01
3.125000e+01
3.125000e+01
3.125000e+01
3.125000e+01
3.125000e+01
3.125000e+01
3.125000e+01
3.125000e+01
3.125000e+01
3.125000e+01
3.125000e+01
3.125000e+01
3.125000e+01
3.125000e+01
3.125000e+01
3.125000e+01
3.125000e+01
3.125000e+01
3.125000e+01
3.125000e+01
3.125000e+01
3.125000e+01
3.125000e+01
3.125000e+01
3.125000e+01
3.125000e+01
3.125000e+01
3.125000e+01
3.125000e+01
3.125000e+01
3.750000e+01
3.750000e+01
3.750000e+01
3.750000e+01
3.750000e+01
3.750000e+01
3.750000e+01
3.750000e+01
3.750000e+01
3.750000e+01
3.750000e+01
3.750000e+01
3.750000e+01
3.750000e+01
3.750000e+01
3.750000e+01
3.750000e+01
3.750000e+01
3.750000e+01
3.750000e+01
3.750000e+01
3.750000e+01
3.750000e+01
3.750000e+01
3.750000e+01
3.750000e+01
3.750000e+01
3.750000e+01
3.750000e+01
3.750000e+01
3.750000e+01
3.750000e+01
3.750000e+01
4.375000e+01
4.375000e+01
4.375000e+01
4.375000e+01
4.375000e+01
4.375000e+01
4.375000e+01
4.375000e+01
4.375000e+01
4.375000e+01
4.375000e+01
4.375000e+01
4.375000e+01
4.375000e+01
4.375000e+01
4.375000e+01
4.375000e+01
4.375000e+01
4.375000e+01
4.375000e+01
4.375000e+01
4.375000e+01
4.375000e+01
4.375000e+01
4.375000e+01
4.375000e+01
4.375000e+01
4.375000e+01
4.375000e+01
4.375000e+01
4.375000e+01
4.375000e+01
4.375000e+01
5.000000e+01
5.000000e+01
5.000000e+01
5.000000e+01
5.000000e+01
5.000000e+01
5.000000e+01
5.000000e+01
5.000000e+01
5.000000e+01
5.000000e+01
5.000000e+01
5.000000e+01
5.000000e+01
5.000000e+01
5.000000e+01
5.000000e+01
5.000000e+01
5.000000e+01
5.000000e+01
5.000000e+01
5.000000e+01
5.000000e+01
5.000000e+01
5.000000e+01
5.000000e+01
5.000000e+01
5.000000e+01
5.000000e+01
5.000000e+01
5.000000e+01
5.000000e+01
5.000000e+01
5.625000e+01
5.625000e+01
5.625000e+01
5.625000e+01
5.625000e+01
5.625000e+01
5.625000e+01
5.625000e+01
5.625000e+01
5.625000e+01
5.625000e+01
5.625000e+01
5.625000e+01
5.625000e+01
5.625000e+01
5.625000e+01
5.625000e+01
5.625000e+01
5.625000e+01
5.625000e+01
5.625000e+01
5.625000e+01
5.625000e+01
5.625000e+01
5.625000e+01
5.625000e+01
5.625000e+01
5.625000e+01
5.625000e+01
5.625000e+01
5.625000e+01
5.625000e+01
5.625000e+01
6.250000e+01
6.250000e+01
6.250000e+01
6.250000e+01
6.250000e+01
6.250000e+01
6.250000e+01
6.250000e+01
6.250000e+01
6.250000e+01
6.250000e+01
6.250000e+01
6.250000e+01
6.250000e+01
6.250000e+01
6.250000e+01
6.250000e+01
6.250000e+01
6.250000e+01
6.250000e+01
6.250000e+01
6.250000e+01
6.250000e+01
6.250000e+01
6.250000e+01
6.250000e+01
6.250000e+01
6.250000e+01
6.250000e+01
6.250000e+01
6.250000e+01
6.250000e+01
6.250000e+01
6.875000e+01
6.875000e+01
6.875000e+01
6.875000e+01
6.875000e+01
6.875000e+01
6.875000e+01
6.875000e+01
6.875000e+01
6.875000e+01
6.875000e+01
6.875000e+01
6.875000e+01
6.875000e+01
6.875000e+01
6.875000e+01
6.875000e+01
6.875000e+01
6.875000e+01
6.875000e+01
6.875000e+01
6.875000e+01
6.875000e+01
6.875000e+01
6.875000e+01
6.875000e+01
6.875000e+01
6.875000e+01
6.875000e+01
6.875000e+01
6.875000e+01
6.875000e+01
6.875000e+01
7.500000e+01
7.500000e+01
7.500000e+01
7.500000e+01
7.500000e+01
7.500000e+01
7.500000e+01
7.500000e+01
7.500000e+01
7.500000e+01
7.500000e+01
7.500000e+01
7.500000e+01
7.500000e+01
7.500000e+01
7.500000e+01
7.500000e+01
7.500000e+01
7.500000e+01
7.500000e+01
7.500000e+01
7.500000e+01
7.500000e+01
7.500000e+01
7.500000e+01
7.500000e+01
7.500000e+01
7.500000e+01
7.500000e+01
7.500000e+01
7.500000e+01
7.500000e+01
7.500000e+01
8.125000e+01
8.125000e+01
8.125000e+01
8.125000e+01
8.125000e+01
8.125000e+01
8.125000e+01
8.125000e+01
8.125000e+01
8.125000e+01
8.125000e+01
8.125000e+01
8.125000e+01
8.125000e+01
8.125000e+01
8.125000e+01
8.125000e+01
8.125000e+01
8.125000e+01
8.125000e+01
8.125000e+01
8.125000e+01
8.125000e+01
8.125000e+01
8.125000e+01
8.125000e+01
8.125000e+01
8.125000e+01
8.125000e+01
8.125000e+01
8.125000e+01
8.125000e+01
8.125000e+01
8.750000e+01
8.750000e+01
8.750000e+01
8.750000e+01
8.750000e+01
8.750000e+01
8.750000e+01
8.750000e+01
8.750000e+01
8.750000e+01
8.750000e+01
8.750000e+01
8.750000e+01
8.750000e+01
8.750000e+01
8.750000e+01
8.750000e+01
8.750000e+01
8.750000e+01
8.750000e+01
8.750000e+01
8.750000e+01
8.750000e+01
8.750000e+01
8.750000e+01
8.750000e+01
8.750000e+01
8.750000e+01
8.750000e+01
8.750000e+01
8.750000e+01
8.750000e+01
8.750000e+01
9.375000e+01
9.375000e+01
9.375000e+01
9.375000e+01
9.375000e+01
9.375000e+01
9.375000e+01
9.375000e+01
9.375000e+01
9.375000e+01
9.375000e+01
9.375000e+01
9.375000e+01
9.375000e+01
9.375000e+01
9.375000e+01
9.375000e+01
9.375000e+01
9.375000e+01
9.375000e+01
9.375000e+01
9.375000e+01
9.375000e+01
9.375000e+01
9.375000e+01
9.375000e+01
9.375000e+01
9.375000e+01
9.375000e+01
9.375000e+01
9.375000e+01
9.375000e+01
9.375000e+01
1.000000e+02
1.000000e+02
1.000000e+02
1.000000e+02
1.000000e+02
1.000000e+02
1.000000e+02
1.000000e+02
1.000000e+02
1.000000e+02
1.000000e+02
1.000000e+02
1.000000e+02
1.000000e+02
1.000000e+02
1.000000e+02
1.000000e+02
1.000000e+02
1.000000e+02
1.000000e+02
1.000000e+02
1.000000e+02
1.000000e+02
1.000000e+02
1.000000e+02
1.000000e+02
1.000000e+02
1.000000e+02
1.000000e+02
1.000000e+02
1.000000e+02
1.000000e+02
1.000000e+02
0.000000e+00
-4.310815e-01
-7.402920e-01
-1.063960e+00
-1.373123e+00
-1.671332e+00
-1.979948e+00
-2.278916e+00
-2.578071e+00
-2.879942e+00
-3.178369e+00
-3.478072e+00
-3.777751e+00
-4.076168e+00
-4.375343e+00
-4.674016e+00
-4.972360e+00
-5.271007e+00
-5.569339e+00
-5.867819e+00
-6.166532e+00
-6.465325e+00
-6.765153e+00
-7.066231e+00
-7.369166e+00
-7.677687e+00
-7.992798e+00
-8.314053e+00
-8.653787e+00
-9.033662e+00
-9.471308e+00
-9.877096e+00
-1.008482e+01
0.000000e+00
-2.355231e-01
-4.823925e-01
-7.458101e-01
-1.012970e+00
-1.267106e+00
-1.534510e+00
-1.795550e+00
-2.056152e+00
-2.320251e+00
-2.580873e+00
-2.842911e+00
-3.104944e+00
-3.365831e+00
-3.627454e+00
-3.888543e+00
-4.149289e+00
-4.410165e+00
-4.670571e+00
-4.930860e+00
-5.191029e+00
-5.450813e+00
-5.710807e+00
-5.970628e+00
-6.229866e+00
-6.490138e+00
-6.750072e+00
-7.006597e+00
-7.264318e+00
-7.523954e+00
-7.740987e+00
-7.830431e+00
-7.934682e+00
0.000000e+00
-1.369463e-01
-2.981687e-01
-4.979994e-01
-7.099110e-01
-9.163895e-01
-1.139242e+00
-1.359592e+00
-1.581084e+00
-1.806199e+00
-2.029166e+00
-2.253853e+00
-2.478911e+00
-2.703409e+00
-2.928727e+00
-3.153810e+00
-3.378728e+00
-3.603729e+00
-3.828238e+00
-4.052358e+00
-4.275872e+00
-4.498253e+00
-4.719313e+00
-4.937934e+00
-5.152432e+00
-5.361537e+00
-5.561897e+00
-5.748476e+00
-5.916564e+00
-6.052411e+00
-6.114666e+00
-6.115436e+00
-6.207308e+00
0.000000e+00
-1.026053e-01
-2.052726e-01
-3.483979e-01
-4.904057e-01
-6.509306e-01
-8.258958e-01
-1.002524e+00
-1.184447e+00
-1.369576e+00
-1.555198e+00
-1.743058e+00
-1.931890e+00
-2.121000e+00
-2.311082e+00
-2.501254e+00
-2.691388e+00
-2.881419e+00
-3.070694e+00
-3.258909e+00
-3.445434e+00
-3.629238e+00
-3.809175e+00
-3.983380e+00
-4.149200e+00
-4.303633e+00
-4.442452e+00
-4.559723e+00
-4.647594e+00
-4.694379e+00
-4.695502e+00
-4.704405e+00
-4.785398e+00
0.000000e+00
-8.973604e-02
-1.784844e-01
-2.765567e-01
-3.867383e-01
-5.084927e-01
-6.402625e-01
-7.768692e-01
-9.195796e-01
-1.064808e+00
-1.211931e+00
-1.361116e+00
-1.510768e+00
-1.661198e+00
-1.811945e+00
-1.962481e+00
-2.112708e+00
-2.262070e+00
-2.410047e+00
-2.555991e+00
-2.698930e+00
-2.837595e+00
-2.970346e+00
-3.095042e+00
-3.208983e+00
-3.308914e+00
-3.390838e+00
-3.449918e+00
-3.481594e+00
-3.485148e+00
-3.473889e+00
-3.501021e+00
-3.578844e+00
0.000000e+00
-7.128580e-02
-1.414725e-01
-2.152780e-01
-2.967392e-01
-3.851896e-01
-4.801291e-01
-5.807976e-01
-6.849521e-01
-7.920898e-01
-9.010394e-01
-1.011017e+00
-1.121786e+00
-1.232747e+00
-1.343617e+00
-1.454074e+00
-1.563661e+00
-1.671935e+00
-1.778261e+00
-1.881807e+00
-1.981497e+00
-2.075915e+00
-2.163295e+00
-2.241546e+00
-2.308268e+00
-2.360847e+00
-2.396535e+00
-2.412923e+00
-2.410017e+00
-2.393045e+00
-2.386026e+00
-2.418331e+00
-2.491642e+00
0.000000e+00
-4.897315e-02
-9.760840e-02
-1.479035e-01
-2.017265e-01
-2.597957e-01
-3.219478e-01
-3.875592e-01
-4.558717e-01
-5.260125e-01
-5.973567e-01
-6.693449e-01
-7.415395e-01
-8.136058e-01
-8.851929e-01
-9.559632e-01
-1.025523e+00
-1.093378e+00
-1.158905e+00
-1.221283e+00
-1.279440e+00
-1.332017e+00
-1.377371e+00
-1.413638e+00
-1.438884e+00
-1.451334e+00
-1.449678e+00
-1.433762e+00
-1.406566e+00
-1.377892e+00
-1.370380e+00
-1.404195e+00
-1.476046e+00
0.000000e+00
-2.525624e-02
-5.041646e-02
-7.618498e-02
-1.033526e-01
-1.323337e-01
-1.631328e-01
-1.954866e-01
-2.289781e-01
-2.631849e-01
-2.976981e-01
-3.321745e-01
-3.663163e-01
-3.998477e-01
-4.324990e-01
-4.639726e-01
-4.939222e-01
-5.219243e-01
-5.474406e-01
-5.697752e-01
-5.880261e-01
-6.010533e-01
-6.074890e-01
-6.058154e-01
-5.945407e-01
-5.725053e-01
-5.394432e-01
-4.973764e-01
-4.528065e-01
-4.174715e-01
-4.112205e-01
-4.464284e-01
-5.178879e-01
0.000000e+00
-9.438848e-04
-1.828480e-03
-2.614147e-03
-3.252378e-03
-3.682916e-03
-3.833953e-03
-3.621834e-03
-2.952403e-03
-1.721578e-03
1.846121e-04
2.890868e-03
6.535457e-03
1.127496e-02
1.729162e-02
2.480228e-02
3.406772e-02
4.540367e-02
5.919840e-02
7.594330e-02
9.627028e-02
1.209801e-01
1.510415e-01
1.875250e-01
2.314073e-01
2.831194e-01
3.415495e-01
4.022442e-01
4.562960e-01
4.914388e-01
4.940657e-01
4.576870e-01
3.897561e-01
0.000000e+00
2.339936e-02
4.681704e-02
7.103498e-02
9.694326e-02
1.250744e-01
1.555779e-01
1.883561e-01
2.231786e-01
2.598293e-01
2.981232e-01
3.379616e-01
3.793142e-01
4.222043e-01
4.667074e-01
5.129354e-01
5.610394e-01
6.112052e-01
6.636544e-01
7.186595e-01
7.765527e-01
8.377260e-01
9.026270e-01
9.716731e-01
1.044908e+00
1.121326e+00
1.197966e+00
1.268895e+00
1.325092e+00
1.356433e+00
1.355372e+00
1.321378e+00
1.264257e+00
0.000000e+00
4.720493e-02
9.416636e-02
1.429698e-01
1.955738e-01
2.528215e-01
3.146893e-01
3.807223e-01
4.503462e-01
5.228892e-01
5.979498e-01
6.752018e-01
7.544571e-01
8.356446e-01
9.186975e-01
1.003605e+00
1.090369e+00
1.178997e+00
1.269532e+00
1.362038e+00
1.456554e+00
1.552999e+00
1.651128e+00
1.750403e+00
1.849557e+00
1.946013e+00
2.035415e+00
2.111573e+00
2.167414e+00
2.196723e+00
2.196527e+00
2.169972e+00
2.127841e+00
0.000000e+00
6.964406e-02
1.382559e-01
2.106214e-01
2.909263e-01
3.785454e-01
4.731812e-01
5.742241e-01
6.795957e-01
7.890336e-01
9.015737e-01
1.016684e+00
1.134378e+00
1.254287e+00
1.376347e+00
1.500417e+00
1.626230e+00
1.753559e+00
1.882123e+00
2.011676e+00
2.141841e+00
2.271895e+00
2.400899e+00
2.527536e+00
2.649516e+00
2.763171e+00
2.863635e+00
2.945586e+00
3.004236e+00
3.036449e+00
3.042022e+00
3.025585e+00
2.998210e+00
0.000000e+00
8.825365e-02
1.754568e-01
2.722250e-01
3.811301e-01
5.020309e-01
6.333436e-01
7.700305e-01
9.136497e-01
1.060717e+00
1.210936e+00
1.364721e+00
1.520766e+00
1.679673e+00
1.841136e+00
2.004737e+00
2.170287e+00
2.336996e+00
2.504179e+00
2.671093e+00
2.836579e+00
2.999307e+00
3.158022e+00
3.311040e+00
3.455373e+00
3.586604e+00
3.699886e+00
3.790972e+00
3.856822e+00
3.896071e+00
3.909937e+00
3.903827e+00
3.889171e+00
0.000000e+00
1.012542e-01
2.028574e-01
3.445260e-01
4.854107e-01
6.448121e-01
8.189468e-01
9.951094e-01
1.177001e+00
1.362836e+00
1.550043e+00
1.740705e+00
1.933891e+00
2.129239e+00
2.327734e+00
2.528616e+00
2.731587e+00
2.936021e+00
3.140693e+00
3.344440e+00
3.545463e+00
3.742189e+00
3.933402e+00
4.116417e+00
4.286447e+00
4.437991e+00
4.566399e+00
4.668616e+00
4.743226e+00
4.790449e+00
4.812634e+00
4.815537e+00
4.810572e+00
0.000000e+00
1.365226e-01
2.972820e-01
4.964262e-01
7.073368e-01
9.129621e-01
1.134957e+00
1.354520e+00
1.575410e+00
1.800125e+00
2.023011e+00
2.248091e+00
2.474207e+00
2.700646e+00
2.929012e+00
3.158460e+00
3.389000e+00
3.620524e+00
3.852145e+00
4.083014e+00
4.311493e+00
4.536855e+00
4.758706e+00
4.972583e+00
5.169784e+00
5.342146e+00
5.484895e+00
5.596401e+00
5.677214e+00
5.729532e+00
5.757176e+00
5.766240e+00
5.767228e+00
0.000000e+00
2.354466e-01
4.823173e-01
7.456576e-01
1.012650e+00
1.266649e+00
1.533856e+00
1.794628e+00
2.054952e+00
2.318666e+00
2.578792e+00
2.840224e+00
3.101471e+00
3.361354e+00
3.621689e+00
3.881178e+00
4.139865e+00
4.398014e+00
4.655104e+00
4.911001e+00
5.164879e+00
5.417139e+00
5.668107e+00
5.911120e+00
6.132979e+00
6.322658e+00
6.475136e+00
6.589978e+00
6.669691e+00
6.718998e+00
6.744422e+00
6.753723e+00
6.755978e+00
0.000000e+00
4.312766e-01
7.410299e-01
1.065159e+00
1.375108e+00
1.674088e+00
1.983413e+00
2.283072e+00
2.582785e+00
2.885050e+00
3.183565e+00
3.482966e+00
3.781704e+00
4.078284e+00
4.374438e+00
4.668616e+00
4.960759e+00
5.251358e+00
5.540144e+00
5.827560e+00
6.113633e+00
6.399272e+00
6.683514e+00
6.956023e+00
7.199643e+00
7.401724e+00
7.557106e+00
7.665809e+00
7.731607e+00
7.761900e+00
7.767881e+00
7.763673e+00
7.761197e+00
0.000000e+00
-2.591515e-01
-5.239716e-01
-8.564060e-01
-1.226017e+00
-1.636567e+00
-2.089965e+00
-2.578445e+00
-3.106058e+00
-3.671153e+00
-4.273118e+00
-4.913576e+00
-5.591397e+00
-6.307043e+00
-7.060813e+00
-7.852339e+00
-8.682037e+00
-9.549985e+00
-1.045626e+01
-1.140123e+01
-1.238508e+01
-1.340818e+01
-1.447113e+01
-1.557449e+01
-1.671991e+01
-1.791028e+01
-1.914911e+01
-2.044370e+01
-2.180636e+01
-2.325073e+01
-2.480160e+01
-2.662102e+01
-2.917286e+01
0.000000e+00
-1.634350e-01
-4.436612e-01
-7.696187e-01
-1.143015e+00
-1.552412e+00
-2.005294e+00
-2.495065e+00
-3.021868e+00
-3.587115e+00
-4.189333e+00
-4.829523e+00
-5.507570e+00
-6.223238e+00
-6.976973e+00
-7.768644e+00
-8.598346e+00
-9.466340e+00
-1.037268e+01
-1.131766e+01
-1.230156e+01
-1.332463e+01
-1.438748e+01
-1.549081e+01
-1.663578e+01
-1.782532e+01
-1.906382e+01
-2.035722e+01
-2.171662e+01
-2.316023e+01
-2.473035e+01
-2.652936e+01
-2.880394e+01
0.000000e+00
-1.336823e-01
-3.852746e-01
-7.082756e-01
-1.076744e+00
-1.484050e+00
-1.935455e+00
-2.424475e+00
-2.950565e+00
-3.515573e+00
-4.117560e+00
-4.757533e+00
-5.435599e+00
-6.151163e+00
-6.904918e+00
-7.696668e+00
-8.526430e+00
-9.394588e+00
-1.030112e+01
-1.124634e+01
-1.223060e+01
-1.325411e+01
-1.431760e+01
-1.542195e+01
-1.656821e+01
-1.775957e+01
-1.900071e+01
-2.029749e+01
-2.166317e+01
-2.312814e+01
-2.472761e+01
-2.642186e+01
-2.819278e+01
0.000000e+00
-1.488690e-01
-3.707983e-01
-6.821994e-01
-1.035770e+00
-1.436919e+00
-1.884412e+00
-2.369578e+00
-2.894226e+00
-3.457953e+00
-4.058904e+00
-4.698472e+00
-5.376104e+00
-6.091462e+00
-6.845204e+00
-7.637000e+00
-8.466998e+00
-9.335537e+00
-1.024262e+01
-1.118862e+01
-1.217394e+01
-1.319889e+01
-1.426433e+01
-1.537126e+01
-1.652100e+01
-1.771669e+01
-1.896292e+01
-2.026624e+01
-2.164177e+01
-2.312051e+01
-2.470916e+01
-2.626766e+01
-2.768986e+01
0.000000e+00
-1.679150e-01
-3.889132e-01
-6.811065e-01
-1.023790e+00
-1.414422e+00
-1.854067e+00
-2.333410e+00
-2.854733e+00
-3.415765e+00
-4.015036e+00
-4.653688e+00
-5.330535e+00
-6.045715e+00
-6.799453e+00
-7.591475e+00
-8.422050e+00
-9.291362e+00
-1.019958e+01
-1.114710e+01
-1.213437e+01
-1.316189e+01
-1.423047e+01
-1.534116e+01
-1.649547e+01
-1.769621e+01
-1.894749e+01
-2.025534e+01
-2.163198e+01
-2.309709e+01
-2.462928e+01
-2.606379e+01
-2.731993e+01
0.000000e+00
-1.762165e-01
-4.023608e-01
-6.846401e-01
-1.019446e+00
-1.403310e+00
-1.834687e+00
-2.309845e+00
-2.827161e+00
-3.385556e+00
-3.983592e+00
-4.621091e+00
-5.297598e+00
-6.012806e+00
-6.766789e+00
-7.559474e+00
-8.390981e+00
-9.261552e+00
-1.017146e+01
-1.112113e+01
-1.211108e+01
-1.314190e+01
-1.421430e+01
-1.532918e+01
-1.648782e+01
-1.769240e+01
-1.894602e+01
-2.025200e+01
-2.161510e+01
-2.304332e+01
-2.449007e+01
-2.583615e+01
-2.699993e+01
0.000000e+00
-1.801802e-01
-4.085093e-01
-6.877424e-01
-1.017773e+00
-1.396989e+00
-1.823406e+00
-2.294878e+00
-2.809547e+00
-3.365952e+00
-3.963014e+00
-4.599987e+00
-5.276402e+00
-5.991965e+00
-6.746550e+00
-7.540158e+00
-8.372907e+00
-9.245036e+00
-1.015691e+01
-1.110901e+01
-1.210191e+01
-1.313620e+01
-1.421242e+01
-1.533109e+01
-1.649283e+01
-1.769874e+01
-1.895028e+01
-2.024686e+01
-2.158532e+01
-2.296293e+01
-2.433089e+01
-2.560438e+01
-2.670395e+01
0.000000e+00
-1.819017e-01
-4.111848e-01
-6.895351e-01
-1.017400e+00
-1.394020e+00
-1.817920e+00
-2.287323e+00
-2.800514e+00
-3.356022e+00
-3.952694e+00
-4.589700e+00
-5.266478e+00
-5.982691e+00
-6.738177e+00
-7.532926e+00
-8.367062e+00
-9.240845e+00
-1.015468e+01
-1.110909e+01
-1.210470e+01
-1.314204e+01
-1.422143e+01
-1.534284e+01
-1.650587e+01
-1.771008e+01
-1.895476e+01
-2.023581e+01
-2.154380e+01
-2.286907e+01
-2.416671e+01
-2.537277e+01
-2.641500e+01
0.000000e+00
-1.824118e-01
-4.120550e-01
-6.903222e-01
-1.017734e+00
-1.393775e+00
-1.817157e+00
-2.286240e+00
-2.799363e+00
-3.355061e+00
-3.952164e+00
-4.589808e+00
-5.267407e+00
-5.984601e+00
-6.741218e+00
-7.537240e+00
-8.372787e+00
-9.248112e+00
-1.016362e+01
-1.111988e+01
-1.211751e+01
-1.315697e+01
-1.423833e+01
-1.536087e+01
-1.652303e+01
-1.772258e+01
-1.895641e+01
-2.021777e+01
-2.149379e+01
-2.276821e+01
-2.400358e+01
-2.514591e+01
-2.613553e+01
0.000000e+00
-1.820146e-01
-4.115351e-01
-6.902620e-01
-1.018660e+00
-1.395987e+00
-1.820783e+00
-2.291280e+00
-2.805771e+00
-3.362782e+00
-3.961155e+00
-4.600055e+00
-5.278911e+00
-5.997379e+00
-6.755293e+00
-7.552630e+00
-8.389488e+00
-9.266084e+00
-1.018279e+01
-1.114015e+01
-1.213877e+01
-1.317902e+01
-1.426064e+01
-1.538228e+01
-1.654129e+01
-1.773380e+01
-1.895443e+01
-2.019419e+01
-2.143838e+01
-2.266699e+01
-2.384866e+01
-2.493922e+01
-2.589210e+01
0.000000e+00
-1.803935e-01
-4.091803e-01
-6.891485e-01
-1.020222e+00
-1.400827e+00
-1.829008e+00
-2.302641e+00
-2.819873e+00
-3.379244e+00
-3.979661e+00
-4.620363e+00
-5.300855e+00
-6.020822e+00
-6.780115e+00
-7.578706e+00
-8.416655e+00
-9.294107e+00
-1.021136e+01
-1.116890e+01
-1.216724e+01
-1.320659e+01
-1.428646e+01
-1.540516e+01
-1.655929e+01
-1.774355e+01
-1.895037e+01
-2.016878e+01
-2.138334e+01
-2.257392e+01
-2.371403e+01
-2.477038e+01
-2.570746e+01
0.000000e+00
-1.765003e-01
-4.032748e-01
-6.866257e-01
-1.022929e+00
-1.408801e+00
-1.842772e+00
-2.321082e+00
-2.842157e+00
-3.404909e+00
-4.007865e+00
-4.650827e+00
-5.333279e+00
-6.054857e+00
-6.815571e+00
-7.615271e+00
-8.453975e+00
-9.331744e+00
-1.024875e+01
-1.120541e+01
-1.220204e+01
-1.323863e+01
-1.431489e+01
-1.542934e+01
-1.657804e+01
-1.775410e+01
-1.894789e+01
-2.014702e+01
-2.133610e+01
-2.249688e+01
-2.360793e+01
-2.464509e+01
-2.558281e+01
0.000000e+00
-1.682028e-01
-3.899088e-01
-6.835267e-01
-1.028006e+00
-1.421202e+00
-1.864192e+00
-2.347535e+00
-2.873712e+00
-3.440357e+00
-4.045975e+00
-4.691687e+00
-5.376185e+00
-6.099502e+00
-6.861692e+00
-7.662332e+00
-8.501480e+00
-9.378995e+00
-1.029494e+01
-1.124967e+01
-1.224315e+01
-1.327540e+01
-1.434701e+01
-1.545705e+01
-1.660082e+01
-1.776956e+01
-1.895179e+01
-2.013430e+01
-2.130244e+01
-2.244044e+01
-2.353185e+01
-2.456038e+01
-2.551023e+01
0.000000e+00
-1.490231e-01
-3.718580e-01
-6.846645e-01
-1.040372e+00
-1.444399e+00
-1.895750e+00
-2.385588e+00
-2.915877e+00
-3.486217e+00
-4.094645e+00
-4.742586e+00
-5.429319e+00
-6.154303e+00
-6.917949e+00
-7.719589e+00
-8.558992e+00
-9.435985e+00
-1.035041e+01
-1.130254e+01
-1.229211e+01
-1.331953e+01
-1.438658e+01
-1.549280e+01
-1.663220e+01
-1.779412e+01
-1.896584e+01
-2.013403e+01
-2.128507e+01
-2.240556e+01
-2.348338e+01
-2.450934e+01
-2.547795e+01
0.000000e+00
-1.339913e-01
-3.863842e-01
-7.107335e-01
-1.081293e+00
-1.491588e+00
-1.946993e+00
-2.440941e+00
-2.972990e+00
-3.545045e+00
-4.155049e+00
-4.804069e+00
-5.492060e+00
-6.218154e+00
-6.982777e+00
-7.785211e+00
-8.624895e+00
-9.501567e+00
-1.041482e+01
-1.136474e+01
-1.235116e+01
-1.337493e+01
-1.443847e+01
-1.554113e+01
-1.667554e+01
-1.782983e+01
-1.899110e+01
-2.014653e+01
-2.128350e+01
-2.239033e+01
-2.345813e+01
-2.448355e+01
-2.547171e+01
0.000000e+00
-1.637533e-01
-4.447025e-01
-7.719728e-01
-1.147425e+00
-1.559854e+00
-2.016744e+00
-2.511507e+00
-3.044364e+00
-3.616747e+00
-4.227142e+00
-4.876570e+00
-5.564777e+00
-6.291267e+00
-7.056170e+00
-7.858775e+00
-8.698485e+00
-9.574866e+00
-1.048742e+01
-1.143602e+01
-1.242076e+01
-1.344294e+01
-1.450440e+01
-1.560311e+01
-1.673067e+01
-1.787545e+01
-1.902549e+01
-2.016890e+01
-2.129393e+01
-2.238998e+01
-2.344995e+01
-2.447418e+01
-2.547595e+01
0.000000e+00
-2.595205e-01
-5.250877e-01
-8.588221e-01
-1.230527e+00
-1.644100e+00
-2.101488e+00
-2.594961e+00
-3.128611e+00
-3.700803e+00
-4.310909e+00
-4.960534e+00
-5.648406e+00
-6.374726e+00
-7.139455e+00
-7.941641e+00
-8.780982e+00
-9.656926e+00
-1.056895e+01
-1.151688e+01
-1.250101e+01
-1.352286e+01
-1.458287e+01