TITLE = "Solution"
VARIABLES = x, y, u, v, psiu, psiv, t, stress
ZONE T="structure" N=561 E=512 F=FEBLOCK ET=QUADRILATERAL VARLOCATION=([7,8]=cellcentered)
0.000000e+00
6.250000e+00
1.250000e+01
1.875000e+01
2.500000e+01
3.125000e+01
3.750000e+01
4.375000e+01
5.000000e+01
5.625000e+01
6.250000e+01
6.875000e+01
7.500000e+01
8.125000e+01
8.750000e+01
9.375000e+01
1.000000e+02
1.062500e+02
1.125000e+02
1.187500e+02
1.250000e+02
1.312500e+02
1.375000e+02
1.437500e+02
1.500000e+02
1.562500e+02
1.625000e+02
1.687500e+02
1.750000e+02
1.812500e+02
1.875000e+02
1.937500e+02
2.000000e+02
0.000000e+00
6.250000e+00
1.250000e+01
1.875000e+01
2.500000e+01
3.125000e+01
3.750000e+01
4.375000e+01
5.000000e+01
5.625000e+01
6.250000e+01
6.875000e+01
7.500000e+01
8.125000e+01
8.750000e+01
9.375000e+01
1.000000e+02
1.062500e+02
1.125000e+02
1.187500e+02
1.250000e+02
1.312500e+02
1.375000e+02
1.437500e+02
1.500000e+02
1.562500e+02
1.625000e+02
1.687500e+02
1.750000e+02
1.812500e+02
1.875000e+02
1.937500e+02
2.000000e+02
0.000000e+00
6.250000e+00
1.250000e+01
1.875000e+01
2.500000e+01
3.125000e+01
3.750000e+01
4.375000e+01
5.000000e+01
5.625000e+01
6.250000e+01
6.875000e+01
7.500000e+01
8.125000e+01
8.750000e+01
9.375000e+01
1.000000e+02
1.062500e+02
1.125000e+02
1.187500e+02
1.250000e+02
1.312500e+02
1.375000e+02
1.437500e+02
1.500000e+02
1.562500e+02
1.625000e+02
1.687500e+02
1.750000e+02
1.812500e+02
1.875000e+02
1.937500e+02
2.000000e+02
0.000000e+00
6.250000e+00
1.250000e+01
1.875000e+01
2.500000e+01
3.125000e+01
3.750000e+01
4.375000e+01
5.000000e+01
5.625000e+01
6.250000e+01
6.875000e+01
7.500000e+01
8.125000e+01
8.750000e+01
9.375000e+01
1.000000e+02
1.062500e+02
1.125000e+02
1.187500e+02
1.250000e+02
1.312500e+02
1.375000e+02
1.437500e+02
1.500000e+02
1.562500e+02
1.625000e+02
1.687500e+02
1.750000e+02
1.812500e+02
1.875000e+02
1.937500e+02
2.000000e+02
0.000000e+00
6.250000e+00
1.250000e+01
1.875000e+01
2.500000e+01
3.125000e+01
3.750000e+01
4.375000e+01
5.000000e+01
5.625000e+01
6.250000e+01
6.875000e+01
7.500000e+01
8.125000e+01
8.750000e+01
9.375000e+01
1.000000e+02
1.062500e+02
1.125000e+02
1.187500e+02
1.250000e+02
1.312500e+02
1.375000e+02
1.437500e+02
1.500000e+02
1.562500e+02
1.625000e+02
1.687500e+02
1.750000e+02
1.812500e+02
1.875000e+02
1.937500e+02
2.000000e+02
0.000000e+00
6.250000e+00
1.250000e+01
1.875000e+01
2.500000e+01
3.125000e+01
3.750000e+01
4.375000e+01
5.000000e+01
5.625000e+01
6.250000e+01
6.875000e+01
7.500000e+01
8.125000e+01
8.750000e+01
9.375000e+01
1.000000e+02
1.062500e+02
1.125000e+02
1.187500e+02
1.250000e+02
1.312500e+02
1.375000e+02
1.437500e+02
1.500000e+02
1.562500e+02
1.625000e+02
1.687500e+02
1.750000e+02
1.812500e+02
1.875000e+02
1.937500e+02
2.000000e+02
0.000000e+00
6.250000e+00
1.250000e+01
1.875000e+01
2.500000e+01
3.125000e+01
3.750000e+01
4.375000e+01
5.000000e+01
5.625000e+01
6.250000e+01
6.875000e+01
7.500000e+01
8.125000e+01
8.750000e+01
9.375000e+01
1.000000e+02
1.062500e+02
1.125000e+02
1.187500e+02
1.250000e+02
1.312500e+02
1.375000e+02
1.437500e+02
1.500000e+02
1.562500e+02
1.625000e+02
1.687500e+02
1.750000e+02
1.812500e+02
1.875000e+02
1.937500e+02
2.000000e+02
0.000000e+00
6.250000e+00
1.250000e+01
1.875000e+01
2.500000e+01
3.125000e+01
3.750000e+01
4.375000e+01
5.000000e+01
5.625000e+01
6.250000e+01
6.875000e+01
7.500000e+01
8.125000e+01
8.750000e+01
9.375000e+01
1.000000e+02
1.062500e+02
1.125000e+02
1.187500e+02
1.250000e+02
1.312500e+02
1.375000e+02
1.437500e+02
1.500000e+02
1.562500e+02
1.625000e+02
1.687500e+02
1.750000e+02
1.812500e+02
1.875000e+02
1.937500e+02
2.000000e+02
0.000000e+00
6.250000e+00
1.250000e+01
1.875000e+01
2.500000e+01
3.125000e+01
3.750000e+01
4.375000e+01
5.000000e+01
5.625000e+01
6.250000e+01
6.875000e+01
7.500000e+01
8.125000e+01
8.750000e+01
9.375000e+01
1.000000e+02
1.062500e+02
1.125000e+02
1.187500e+02
1.250000e+02
1.312500e+02
1.375000e+02
1.437500e+02
1.500000e+02
1.562500e+02
1.625000e+02
1.687500e+02
1.750000e+02
1.812500e+02
1.875000e+02
1.937500e+02
2.000000e+02
0.000000e+00
6.250000e+00
1.250000e+01
1.875000e+01
2.500000e+01
3.125000e+01
3.750000e+01
4.375000e+01
5.000000e+01
5.625000e+01
6.250000e+01
6.875000e+01
7.500000e+01
8.125000e+01
8.750000e+01
9.375000e+01
1.000000e+02
1.062500e+02
1.125000e+02
1.187500e+02
1.250000e+02
1.312500e+02
1.375000e+02
1.437500e+02
1.500000e+02
1.562500e+02
1.625000e+02
1.687500e+02
1.750000e+02
1.812500e+02
1.875000e+02
1.937500e+02
2.000000e+02
0.000000e+00
6.250000e+00
1.250000e+01
1.875000e+01
2.500000e+01
3.125000e+01
3.750000e+01
4.375000e+01
5.000000e+01
5.625000e+01
6.250000e+01
6.875000e+01
7.500000e+01
8.125000e+01
8.750000e+01
9.375000e+01
1.000000e+02
1.062500e+02
1.125000e+02
1.187500e+02
1.250000e+02
1.312500e+02
1.375000e+02
1.437500e+02
1.500000e+02
1.562500e+02
1.625000e+02
1.687500e+02
1.750000e+02
1.812500e+02
1.875000e+02
1.937500e+02
2.000000e+02
0.000000e+00
6.250000e+00
1.250000e+01
1.875000e+01
2.500000e+01
3.125000e+01
3.750000e+01
4.375000e+01
5.000000e+01
5.625000e+01
6.250000e+01
6.875000e+01
7.500000e+01
8.125000e+01
8.750000e+01
9.375000e+01
1.000000e+02
1.062500e+02
1.125000e+02
1.187500e+02
1.250000e+02
1.312500e+02
1.375000e+02
1.437500e+02
1.500000e+02
1.562500e+02
1.625000e+02
1.687500e+02
1.750000e+02
1.812500e+02
1.875000e+02
1.937500e+02
2.000000e+02
0.000000e+00
6.250000e+00
1.250000e+01
1.875000e+01
2.500000e+01
3.125000e+01
3.750000e+01
4.375000e+01
5.000000e+01
5.625000e+01
6.250000e+01
6.875000e+01
7.500000e+01
8.125000e+01
8.750000e+01
9.375000e+01
1.000000e+02
1.062500e+02
1.125000e+02
1.187500e+02
1.250000e+02
1.312500e+02
1.375000e+02
1.437500e+02
1.500000e+02
1.562500e+02
1.625000e+02
1.687500e+02
1.750000e+02
1.812500e+02
1.875000e+02
1.937500e+02
2.000000e+02
0.000000e+00
6.250000e+00
1.250000e+01
1.875000e+01
2.500000e+01
3.125000e+01
3.750000e+01
4.375000e+01
5.000000e+01
5.625000e+01
6.250000e+01
6.875000e+01
7.500000e+01
8.125000e+01
8.750000e+01
9.375000e+01
1.000000e+02
1.062500e+02
1.125000e+02
1.187500e+02
1.250000e+02
1.312500e+02
1.375000e+02
1.437500e+02
1.500000e+02
1.562500e+02
1.625000e+02
1.687500e+02
1.750000e+02
1.812500e+02
1.875000e+02
1.937500e+02
2.000000e+02
0.000000e+00
6.250000e+00
1.250000e+01
1.875000e+01
2.500000e+01
3.125000e+01
3.750000e+01
4.375000e+01
5.000000e+01
5.625000e+01
6.250000e+01
6.875000e+01
7.500000e+01
8.125000e+01
8.750000e+01
9.375000e+01
1.000000e+02
1.062500e+02
1.125000e+02
1.187500e+02
1.250000e+02
1.312500e+02
1.375000e+02
1.437500e+02
1.500000e+02
1.562500e+02
1.625000e+02
1.687500e+02
1.750000e+02
1.812500e+02
1.875000e+02
1.937500e+02
2.000000e+02
0.000000e+00
6.250000e+00
1.250000e+01
1.875000e+01
2.500000e+01
3.125000e+01
3.750000e+01
4.375000e+01
5.000000e+01
5.625000e+01
6.250000e+01
6.875000e+01
7.500000e+01
8.125000e+01
8.750000e+01
9.375000e+01
1.000000e+02
1.062500e+02
1.125000e+02
1.187500e+02
1.250000e+02
1.312500e+02
1.375000e+02
1.437500e+02
1.500000e+02
1.562500e+02
1.625000e+02
1.687500e+02
1.750000e+02
1.812500e+02
1.875000e+02
1.937500e+02
2.000000e+02
0.000000e+00
6.250000e+00
1.250000e+01
1.875000e+01
2.500000e+01
3.125000e+01
3.750000e+01
4.375000e+01
5.000000e+01
5.625000e+01
6.250000e+01
6.875000e+01
7.500000e+01
8.125000e+01
8.750000e+01
9.375000e+01
1.000000e+02
1.062500e+02
1.125000e+02
1.187500e+02
1.250000e+02
1.312500e+02
1.375000e+02
1.437500e+02
1.500000e+02
1.562500e+02
1.625000e+02
1.687500e+02
1.750000e+02
1.812500e+02
1.875000e+02
1.937500e+02
2.000000e+02
0.000000e+00
0.000000e+00
0.000000e+00
0.000000e+00
0.000000e+00
0.000000e+00
0.000000e+00
0.000000e+00
0.000000e+00
0.000000e+00
0.000000e+00
0.000000e+00
0.000000e+00
0.000000e+00
0.000000e+00
0.000000e+00
0.000000e+00
0.000000e+00
0.000000e+00
0.000000e+00
0.000000e+00
0.000000e+00
0.000000e+00
0.000000e+00
0.000000e+00
0.000000e+00
0.000000e+00
0.000000e+00
0.000000e+00
0.000000e+00
0.000000e+00
0.000000e+00
0.000000e+00
6.250000e+00
6.250000e+00
6.250000e+00
6.250000e+00
6.250000e+00
6.250000e+00
6.250000e+00
6.250000e+00
6.250000e+00
6.250000e+00
6.250000e+00
6.250000e+00
6.250000e+00
6.250000e+00
6.250000e+00
6.250000e+00
6.250000e+00
6.250000e+00
6.250000e+00
6.250000e+00
6.250000e+00
6.250000e+00
6.250000e+00
6.250000e+00
6.250000e+00
6.250000e+00
6.250000e+00
6.250000e+00
6.250000e+00
6.250000e+00
6.250000e+00
6.250000e+00
6.250000e+00
1.250000e+01
1.250000e+01
1.250000e+01
1.250000e+01
1.250000e+01
1.250000e+01
1.250000e+01
1.250000e+01
1.250000e+01
1.250000e+01
1.250000e+01
1.250000e+01
1.250000e+01
1.250000e+01
1.250000e+01
1.250000e+01
1.250000e+01
1.250000e+01
1.250000e+01
1.250000e+01
1.250000e+01
1.250000e+01
1.250000e+01
1.250000e+01
1.250000e+01
1.250000e+01
1.250000e+01
1.250000e+01
1.250000e+01
1.250000e+01
1.250000e+01
1.250000e+01
1.250000e+01
1.875000e+01
1.875000e+01
1.875000e+01
1.875000e+01
1.875000e+01
1.875000e+01
1.875000e+01
1.875000e+01
1.875000e+01
1.875000e+01
1.875000e+01
1.875000e+01
1.875000e+01
1.875000e+01
1.875000e+01
1.875000e+01
1.875000e+01
1.875000e+01
1.875000e+01
1.875000e+01
1.875000e+01
1.875000e+01
1.875000e+01
1.875000e+01
1.875000e+01
1.875000e+01
1.875000e+01
1.875000e+01
1.875000e+01
1.875000e+01
1.875000e+01
1.875000e+01
1.875000e+01
2.500000e+01
2.500000e+01
2.500000e+01
2.500000e+01
2.500000e+01
2.500000e+01
2.500000e+01
2.500000e+01
2.500000e+01
2.500000e+01
2.500000e+01
2.500000e+01
2.500000e+01
2.500000e+01
2.500000e+01
2.500000e+01
2.500000e+01
2.500000e+01
2.500000e+01
2.500000e+01
2.500000e+01
2.500000e+01
2.500000e+01
2.500000e+01
2.500000e+01
2.500000e+01
2.500000e+01
2.500000e+01
2.500000e+01
2.500000e+01
2.500000e+01
2.500000e+01
2.500000e+01
3.125000e+01
3.125000e+01
3.125000e+01
3.125000e+01
3.125000e+01
3.125000e+01
3.125000e+01
3.125000e+01
3.125000e+01
3.125000e+01
3.125000e+01
3.125000e+01
3.125000e+01
3.125000e+01
3.125000e+01
3.125000e+01
3.125000e+01
3.125000e+01
3.125000e+01
3.125000e+01
3.125000e+01
3.125000e+01
3.125000e+01
3.125000e+01
3.125000e+01
3.125000e+01
3.125000e+01
3.125000e+01
3.125000e+01
3.125000e+01
3.125000e+01
3.125000e+01
3.125000e+01
3.750000e+01
3.750000e+01
3.750000e+01
3.750000e+01
3.750000e+01
3.750000e+01
3.750000e+01
3.750000e+01
3.750000e+01
3.750000e+01
3.750000e+01
3.750000e+01
3.750000e+01
3.750000e+01
3.750000e+01
3.750000e+01
3.750000e+01
3.750000e+01
3.750000e+01
3.750000e+01
3.750000e+01
3.750000e+01
3.750000e+01
3.750000e+01
3.750000e+01
3.750000e+01
3.750000e+01
3.750000e+01
3.750000e+01
3.750000e+01
3.750000e+01
3.750000e+01
3.750000e+01
4.375000e+01
4.375000e+01
4.375000e+01
4.375000e+01
4.375000e+01
4.375000e+01
4.375000e+01
4.375000e+01
4.375000e+01
4.375000e+01
4.375000e+01
4.375000e+01
4.375000e+01
4.375000e+01
4.375000e+01
4.375000e+01
4.375000e+01
4.375000e+01
4.375000e+01
4.375000e+01
4.375000e+01
4.375000e+01
4.375000e+01
4.375000e+01
4.375000e+01
4.375000e+01
4.375000e+01
4.375000e+01
4.375000e+01
4.375000e+01
4.375000e+01
4.375000e+01
4.375000e+01
5.000000e+01
5.000000e+01
5.000000e+01
5.000000e+01
5.000000e+01
5.000000e+01
5.000000e+01
5.000000e+01
5.000000e+01
5.000000e+01
5.000000e+01
5.000000e+01
5.000000e+01
5.000000e+01
5.000000e+01
5.000000e+01
5.000000e+01
5.000000e+01
5.000000e+01
5.000000e+01
5.000000e+01
5.000000e+01
5.000000e+01
5.000000e+01
5.000000e+01
5.000000e+01
5.000000e+01
5.000000e+01
5.000000e+01
5.000000e+01
5.000000e+01
5.000000e+01
5.000000e+01
5.625000e+01
5.625000e+01
5.625000e+01
5.625000e+01
5.625000e+01
5.625000e+01
5.625000e+01
5.625000e+01
5.625000e+01
5.625000e+01
5.625000e+01
5.625000e+01
5.625000e+01
5.625000e+01
5.625000e+01
5.625000e+01
5.625000e+01
5.625000e+01
5.625000e+01
5.625000e+01
5.625000e+01
5.625000e+01
5.625000e+01
5.625000e+01
5.625000e+01
5.625000e+01
5.625000e+01
5.625000e+01
5.625000e+01
5.625000e+01
5.625000e+01
5.625000e+01
5.625000e+01
6.250000e+01
6.250000e+01
6.250000e+01
6.250000e+01
6.250000e+01
6.250000e+01
6.250000e+01
6.250000e+01
6.250000e+01
6.250000e+01
6.250000e+01
6.250000e+01
6.250000e+01
6.250000e+01
6.250000e+01
6.250000e+01
6.250000e+01
6.250000e+01
6.250000e+01
6.250000e+01
6.250000e+01
6.250000e+01
6.250000e+01
6.250000e+01
6.250000e+01
6.250000e+01
6.250000e+01
6.250000e+01
6.250000e+01
6.250000e+01
6.250000e+01
6.250000e+01
6.250000e+01
6.875000e+01
6.875000e+01
6.875000e+01
6.875000e+01
6.875000e+01
6.875000e+01
6.875000e+01
6.875000e+01
6.875000e+01
6.875000e+01
6.875000e+01
6.875000e+01
6.875000e+01
6.875000e+01
6.875000e+01
6.875000e+01
6.875000e+01
6.875000e+01
6.875000e+01
6.875000e+01
6.875000e+01
6.875000e+01
6.875000e+01
6.875000e+01
6.875000e+01
6.875000e+01
6.875000e+01
6.875000e+01
6.875000e+01
6.875000e+01
6.875000e+01
6.875000e+01
6.875000e+01
7.500000e+01
7.500000e+01
7.500000e+01
7.500000e+01
7.500000e+01
7.500000e+01
7.500000e+01
7.500000e+01
7.500000e+01
7.500000e+01
7.500000e+01
7.500000e+01
7.500000e+01
7.500000e+01
7.500000e+01
7.500000e+01
7.500000e+01
7.500000e+01
7.500000e+01
7.500000e+01
7.500000e+01
7.500000e+01
7.500000e+01
7.500000e+01
7.500000e+01
7.500000e+01
7.500000e+01
7.500000e+01
7.500000e+01
7.500000e+01
7.500000e+01
7.500000e+01
7.500000e+01
8.125000e+01
8.125000e+01
8.125000e+01
8.125000e+01
8.125000e+01
8.125000e+01
8.125000e+01
8.125000e+01
8.125000e+01
8.125000e+01
8.125000e+01
8.125000e+01
8.125000e+01
8.125000e+01
8.125000e+01
8.125000e+01
8.125000e+01
8.125000e+01
8.125000e+01
8.125000e+01
8.125000e+01
8.125000e+01
8.125000e+01
8.125000e+01
8.125000e+01
8.125000e+01
8.125000e+01
8.125000e+01
8.125000e+01
8.125000e+01
8.125000e+01
8.125000e+01
8.125000e+01
8.750000e+01
8.750000e+01
8.750000e+01
8.750000e+01
8.750000e+01
8.750000e+01
8.750000e+01
8.750000e+01
8.750000e+01
8.750000e+01
8.750000e+01
8.750000e+01
8.750000e+01
8.750000e+01
8.750000e+01
8.750000e+01
8.750000e+01
8.750000e+01
8.750000e+01
8.750000e+01
8.750000e+01
8.750000e+01
8.750000e+01
8.750000e+01
8.750000e+01
8.750000e+01
8.750000e+01
8.750000e+01
8.750000e+01
8.750000e+01
8.750000e+01
8.750000e+01
8.750000e+01
9.375000e+01
9.375000e+01
9.375000e+01
9.375000e+01
9.375000e+01
9.375000e+01
9.375000e+01
9.375000e+01
9.375000e+01
9.375000e+01
9.375000e+01
9.375000e+01
9.375000e+01
9.375000e+01
9.375000e+01
9.375000e+01
9.375000e+01
9.375000e+01
9.375000e+01
9.375000e+01
9.375000e+01
9.375000e+01
9.375000e+01
9.375000e+01
9.375000e+01
9.375000e+01
9.375000e+01
9.375000e+01
9.375000e+01
9.375000e+01
9.375000e+01
9.375000e+01
9.375000e+01
1.000000e+02
1.000000e+02
1.000000e+02
1.000000e+02
1.000000e+02
1.000000e+02
1.000000e+02
1.000000e+02
1.000000e+02
1.000000e+02
1.000000e+02
1.000000e+02
1.000000e+02
1.000000e+02
1.000000e+02
1.000000e+02
1.000000e+02
1.000000e+02
1.000000e+02
1.000000e+02
1.000000e+02
1.000000e+02
1.000000e+02
1.000000e+02
1.000000e+02
1.000000e+02
1.000000e+02
1.000000e+02
1.000000e+02
1.000000e+02
1.000000e+02
1.000000e+02
1.000000e+02
0.000000e+00
-4.721910e-01
-7.826153e-01
-1.122607e+00
-1.424305e+00
-1.716255e+00
-2.028161e+00
-2.315510e+00
-2.615214e+00
-2.908808e+00
-3.205919e+00
-3.505021e+00
-3.804418e+00
-4.103983e+00
-4.404150e+00
-4.705204e+00
-5.007864e+00
-5.311124e+00
-5.613691e+00
-5.916123e+00
-6.218291e+00
-6.520150e+00
-6.822502e+00
-7.120001e+00
-7.413428e+00
-7.718286e+00
-8.017549e+00
-8.348506e+00
-8.667538e+00
-9.020919e+00
-9.509889e+00
-9.926418e+00
-1.013057e+01
0.000000e+00
-2.335315e-01
-4.702583e-01
-7.357800e-01
-1.001769e+00
-1.254498e+00
-1.524395e+00
-1.784665e+00
-2.047202e+00
-2.312181e+00
-2.572690e+00
-2.837788e+00
-3.098209e+00
-3.362084e+00
-3.623465e+00
-3.885702e+00
-4.148252e+00
-4.408763e+00
-4.671823e+00
-4.931745e+00
-5.194206e+00
-5.454384e+00
-5.715951e+00
-5.976188e+00
-6.237351e+00
-6.498448e+00
-6.757886e+00
-7.022097e+00
-7.276419e+00
-7.533324e+00
-7.787715e+00
-7.888831e+00
-7.994647e+00
0.000000e+00
-1.028835e-01
-2.379160e-01
-4.344145e-01
-6.530562e-01
-8.603316e-01
-1.086178e+00
-1.313698e+00
-1.541038e+00
-1.772652e+00
-1.996646e+00
-2.223788e+00
-2.446051e+00
-2.671245e+00
-2.894898e+00
-3.117409e+00
-3.339902e+00
-3.560275e+00
-3.783968e+00
-4.006053e+00
-4.231025e+00
-4.454259e+00
-4.678618e+00
-4.907693e+00
-5.137623e+00
-5.360640e+00
-5.572956e+00
-5.770363e+00
-5.949905e+00
-6.098892e+00
-6.186442e+00
-6.192023e+00
-6.284912e+00
0.000000e+00
-1.024777e-01
-1.859147e-01
-3.411966e-01
-4.641950e-01
-6.188130e-01
-7.959105e-01
-9.655216e-01
-1.158901e+00
-1.336558e+00
-1.521589e+00
-1.704285e+00
-1.886073e+00
-2.071916e+00
-2.255864e+00
-2.441383e+00
-2.626294e+00
-2.813161e+00
-3.002956e+00
-3.194287e+00
-3.388311e+00
-3.581760e+00
-3.776216e+00
-3.971305e+00
-4.157305e+00
-4.331346e+00
-4.480800e+00
-4.613106e+00
-4.713969e+00
-4.777413e+00
-4.792551e+00
-4.809883e+00
-4.890352e+00
0.000000e+00
-9.303344e-02
-1.845942e-01
-2.755748e-01
-3.890755e-01
-5.048134e-01
-6.370325e-01
-7.714331e-01
-9.164480e-01
-1.057502e+00
-1.203661e+00
-1.349141e+00
-1.492469e+00
-1.642108e+00
-1.784989e+00
-1.935268e+00
-2.080820e+00
-2.230242e+00
-2.379948e+00
-2.528462e+00
-2.679134e+00
-2.825255e+00
-2.969944e+00
-3.107293e+00
-3.235706e+00
-3.349783e+00
-3.446771e+00
-3.520804e+00
-3.569348e+00
-3.593792e+00
-3.597230e+00
-3.627044e+00
-3.698461e+00
0.000000e+00
-7.443694e-02
-1.459169e-01
-2.209307e-01
-3.023950e-01
-3.919485e-01
-4.867407e-01
-5.880141e-01
-6.917736e-01
-7.996349e-01
-9.071036e-01
-1.015903e+00
-1.124695e+00
-1.232706e+00
-1.342170e+00
-1.450158e+00
-1.559504e+00
-1.667536e+00
-1.775378e+00
-1.881986e+00
-1.985971e+00
-2.086976e+00
-2.181849e+00
-2.269502e+00
-2.347101e+00
-2.412752e+00
-2.464099e+00
-2.498980e+00
-2.521600e+00
-2.522027e+00
-2.517329e+00
-2.543802e+00
-2.609616e+00
0.000000e+00
-5.128340e-02
-1.020166e-01
-1.538751e-01
-2.093430e-01
-2.687044e-01
-3.321231e-01
-3.985427e-01
-4.677730e-01
-5.384648e-01
-6.101572e-01
-6.819338e-01
-7.534958e-01
-8.248613e-01
-8.956912e-01
-9.663490e-01
-1.036166e+00
-1.105138e+00
-1.172559e+00
-1.237860e+00
-1.300183e+00
-1.358120e+00
-1.410309e+00
-1.454874e+00
-1.490837e+00
-1.515949e+00
-1.529923e+00
-1.535390e+00
-1.519051e+00
-1.489202e+00
-1.477962e+00
-1.501259e+00
-1.565541e+00
0.000000e+00
-2.703569e-02
-5.391895e-02
-8.137933e-02
-1.101282e-01
-1.406156e-01
-1.727209e-01
-2.062987e-01
-2.409280e-01
-2.762793e-01
-3.118017e-01
-3.471376e-01
-3.819973e-01
-4.162112e-01
-4.497610e-01
-4.824597e-01
-5.141220e-01
-5.443090e-01
-5.726818e-01
-5.987153e-01
-6.217271e-01
-6.408936e-01
-6.549536e-01
-6.629637e-01
-6.632929e-01
-6.566875e-01
-6.408334e-01
-6.023339e-01
-5.525601e-01
-5.010406e-01
-4.741711e-01
-4.973248e-01
-5.643246e-01
0.000000e+00
-1.998309e-03
-4.044351e-03
-6.052008e-03
-7.907613e-03
-9.484942e-03
-1.072095e-02
-1.162256e-02
-1.224202e-02
-1.255765e-02
-1.246454e-02
-1.180692e-02
-1.043531e-02
-8.184302e-03
-4.823923e-03
-2.509120e-04
5.785544e-03
1.371384e-02
2.360839e-02
3.536105e-02
4.957888e-02
6.653678e-02
8.589155e-02
1.104235e-01
1.409477e-01
1.822496e-01
2.426239e-01
3.149093e-01
3.883229e-01
4.393712e-01
4.551393e-01
4.227668e-01
3.427946e-01
0.000000e+00
2.318964e-02
4.615159e-02
6.976152e-02
9.498018e-02
1.225183e-01
1.524199e-01
1.844245e-01
2.179799e-01
2.526456e-01
2.880613e-01
3.240941e-01
3.607246e-01
3.984061e-01
4.376720e-01
4.788856e-01
5.225305e-01
5.683521e-01
6.162590e-01
6.656562e-01
7.154691e-01
7.667323e-01
8.222382e-01
8.816466e-01
9.491929e-01
1.032423e+00
1.122314e+00
1.213942e+00
1.288348e+00
1.332167e+00
1.329170e+00
1.283228e+00
1.220375e+00
0.000000e+00
4.784252e-02
9.514990e-02
1.436848e-01
1.961553e-01
2.532966e-01
3.152641e-01
3.809487e-01
4.495683e-01
5.197879e-01
5.907701e-01
6.616377e-01
7.324841e-01
8.040404e-01
8.774902e-01
9.546098e-01
1.035723e+00
1.119624e+00
1.205202e+00
1.291990e+00
1.381654e+00
1.471169e+00
1.563340e+00
1.666231e+00
1.774957e+00
1.885765e+00
1.995310e+00
2.084228e+00
2.148267e+00
2.174773e+00
2.167123e+00
2.137171e+00
2.093061e+00
0.000000e+00
7.144496e-02
1.402022e-01
2.128941e-01
2.924940e-01
3.810613e-01
4.762304e-01
5.775207e-01
6.819980e-01
7.898609e-01
8.980822e-01
1.006816e+00
1.114995e+00
1.223669e+00
1.333254e+00
1.443561e+00
1.557480e+00
1.674726e+00
1.794377e+00
1.917329e+00
2.045955e+00
2.182300e+00
2.324456e+00
2.466732e+00
2.604945e+00
2.734190e+00
2.846445e+00
2.935437e+00
2.990998e+00
3.018991e+00
3.022479e+00
3.004447e+00
2.976903e+00
0.000000e+00
9.022868e-02
1.792177e-01
2.692613e-01
3.834567e-01
5.025598e-01
6.351551e-01
7.727383e-01
9.165868e-01
1.059841e+00
1.206691e+00
1.353118e+00
1.500404e+00
1.651600e+00
1.802461e+00
1.957467e+00
2.112782e+00
2.272874e+00
2.438435e+00
2.604898e+00
2.774044e+00
2.946045e+00
3.116154e+00
3.280829e+00
3.433927e+00
3.575031e+00
3.695959e+00
3.786799e+00
3.853319e+00
3.892487e+00
3.905414e+00
3.898891e+00
3.884381e+00
0.000000e+00
9.868812e-02
1.795678e-01
3.321711e-01
4.597535e-01
6.228910e-01
8.050802e-01
9.745540e-01
1.168231e+00
1.345436e+00
1.528336e+00
1.708372e+00
1.891112e+00
2.080731e+00
2.274822e+00
2.476364e+00
2.680277e+00
2.885908e+00
3.096188e+00
3.309472e+00
3.519910e+00
3.724689e+00
3.920923e+00
4.105532e+00
4.280268e+00
4.437689e+00
4.572934e+00
4.679854e+00
4.756413e+00
4.804191e+00
4.826392e+00
4.829204e+00
4.824467e+00
0.000000e+00
1.005536e-01
2.313762e-01
4.199282e-01
6.371006e-01
8.474616e-01
1.078805e+00
1.309941e+00
1.539818e+00
1.774535e+00
1.998231e+00
2.224159e+00
2.445862e+00
2.672379e+00
2.900317e+00
3.131806e+00
3.365767e+00
3.596888e+00
3.828426e+00
4.060997e+00
4.295311e+00
4.524249e+00
4.744754e+00
4.965965e+00
5.176918e+00
5.363432e+00
5.513030e+00
5.627738e+00
5.710224e+00
5.763102e+00
5.790797e+00
5.799851e+00
5.800963e+00
0.000000e+00
2.337870e-01
4.715340e-01
7.363731e-01
1.001714e+00
1.253940e+00
1.523078e+00
1.783764e+00
2.045654e+00
2.310338e+00
2.570232e+00
2.834445e+00
3.093833e+00
3.355846e+00
3.615648e+00
3.875333e+00
4.135334e+00
4.392728e+00
4.650520e+00
4.904496e+00
5.159827e+00
5.413241e+00
5.666536e+00
5.924979e+00
6.168924e+00
6.369766e+00
6.527268e+00
6.644087e+00
6.724289e+00
6.773494e+00
6.798635e+00
6.807741e+00
6.809979e+00
0.000000e+00
4.733722e-01
7.899142e-01
1.135242e+00
1.439878e+00
1.729650e+00
2.037747e+00
2.322494e+00
2.619217e+00
2.910114e+00
3.205749e+00
3.505223e+00
3.802717e+00
4.100232e+00
4.393655e+00
4.684734e+00
4.972303e+00
5.261558e+00
5.552021e+00
5.839963e+00
6.127527e+00
6.415612e+00
6.707426e+00
7.000110e+00
7.265578e+00
7.476393e+00
7.634559e+00
7.743440e+00
7.808306e+00
7.837423e+00
7.842511e+00
7.837889e+00
7.835335e+00
0.000000e+00
-2.792033e-01
-5.895394e-01
-9.863984e-01
-1.418687e+00
-1.888397e+00
-2.398736e+00
-2.939713e+00
-3.516234e+00
-4.124187e+00
-4.766068e+00
-5.443971e+00
-6.158314e+00
-6.910798e+00
-7.700079e+00
-8.527975e+00
-9.394293e+00
-1.030078e+01
-1.124721e+01
-1.223321e+01
-1.325930e+01
-1.432508e+01
-1.543227e+01
-1.657929e+01
-1.776391e+01
-1.898765e+01
-2.025482e+01
-2.157595e+01
-2.295763e+01
-2.442034e+01
-2.598105e+01
-2.778903e+01
-3.032653e+01
0.000000e+00
-1.801776e-01
-5.090993e-01
-8.986365e-01
-1.337752e+00
-1.803963e+00
-2.314185e+00
-2.857285e+00
-3.432023e+00
-4.041069e+00
-4.681899e+00
-5.360140e+00
-6.074213e+00
-6.826911e+00
-7.616193e+00
-8.443788e+00
-9.310252e+00
-1.021642e+01
-1.116324e+01
-1.214903e+01
-1.317527e+01
-1.424072e+01
-1.534801e+01
-1.649582e+01
-1.768019e+01
-1.890348e+01
-2.016910e+01
-2.148859e+01
-2.287180e+01
-2.432543e+01
-2.590547e+01
-2.770066e+01
-2.995160e+01
0.000000e+00
-1.592530e-01
-4.500067e-01
-8.421557e-01
-1.271186e+00
-1.735060e+00
-2.243302e+00
-2.784180e+00
-3.360310e+00
-3.968120e+00
-4.610092e+00
-5.288428e+00
-6.002689e+00
-6.755477e+00
-7.545379e+00
-8.373036e+00
-9.240029e+00
-1.014587e+01
-1.109263e+01
-1.207827e+01
-1.310434e+01
-1.416952e+01
-1.527522e+01
-1.642241e+01
-1.760774e+01
-1.883384e+01
-2.010134e+01
-2.142594e+01
-2.281295e+01
-2.428705e+01
-2.591001e+01
-2.759466e+01
-2.934298e+01
0.000000e+00
-2.046162e-01
-4.500525e-01
-8.387305e-01
-1.236512e+00
-1.689347e+00
-2.196097e+00
-2.723905e+00
-3.306541e+00
-3.908517e+00
-4.553516e+00
-5.232214e+00
-5.944684e+00
-6.700339e+00
-7.487814e+00
-8.318493e+00
-9.183931e+00
-1.009020e+01
-1.103662e+01
-1.202101e+01
-1.304807e+01
-1.411193e+01
-1.521684e+01
-1.636371e+01
-1.755142e+01
-1.878370e+01
-2.005733e+01
-2.138912e+01
-2.278489e+01
-2.427859e+01
-2.589422e+01
-2.744390e+01
-2.884299e+01
0.000000e+00
-2.207265e-01
-4.888497e-01
-8.339874e-01
-1.234321e+00
-1.669823e+00
-2.166901e+00
-2.689034e+00
-3.266586e+00
-3.868559e+00
-4.512476e+00
-5.193108e+00
-5.903929e+00
-6.662362e+00
-7.447742e+00
-8.280713e+00
-9.145164e+00
-1.005157e+01
-1.099797e+01
-1.198137e+01
-1.300903e+01
-1.407264e+01
-1.517897e+01
-1.632661e+01
-1.751796e+01
-1.875354e+01
-2.003535e+01
-2.137070e+01
-2.276906e+01
-2.425856e+01
-2.579394e+01
-2.724292e+01
-2.850966e+01
0.000000e+00
-2.276481e-01
-5.052845e-01
-8.399596e-01
-1.227784e+00
-1.662992e+00
-2.145283e+00
-2.669871e+00
-3.236915e+00
-3.841730e+00
-4.483787e+00
-5.163468e+00
-5.878720e+00
-6.632777e+00
-7.423460e+00
-8.252744e+00
-9.120224e+00
-1.002637e+01
-1.097274e+01
-1.195856e+01
-1.298533e+01
-1.405230e+01
-1.516035e+01
-1.631076e+01
-1.750425e+01
-1.874173e+01
-2.002608e+01
-2.136079e+01
-2.274843e+01
-2.419757e+01
-2.563884e+01
-2.700708e+01
-2.821207e+01
0.000000e+00
-2.313401e-01
-5.114983e-01
-8.431645e-01
-1.225727e+00
-1.656900e+00
-2.134543e+00
-2.656368e+00
-3.220313e+00
-3.824074e+00
-4.466252e+00
-5.145860e+00
-5.862674e+00
-6.616771e+00
-7.408421e+00
-8.238097e+00
-9.106263e+00
-1.001368e+01
-1.096093e+01
-1.194858e+01
-1.297702e+01
-1.404650e+01
-1.515741e+01
-1.630998e+01
-1.750482e+01
-1.874253e+01
-2.002296e+01
-2.135428e+01
-2.270964e+01
-2.410755e+01
-2.548395e+01
-2.678448e+01
-2.792644e+01
0.000000e+00
-2.327397e-01
-5.138207e-01
-8.446042e-01
-1.225121e+00
-1.654142e+00
-2.129850e+00
-2.650182e+00
-3.213071e+00
-3.816574e+00
-4.459090e+00
-5.139530e+00
-5.857263e+00
-6.612192e+00
-7.404522e+00
-8.234843e+00
-9.103923e+00
-1.001247e+01
-1.096114e+01
-1.195048e+01
-1.298092e+01
-1.405271e+01
-1.516585e+01
-1.632036e+01
-1.751419e+01
-1.875174e+01
-2.002447e+01
-2.133668e+01
-2.265735e+01
-2.400191e+01
-2.533256e+01
-2.657600e+01
-2.766225e+01
0.000000e+00
-2.330295e-01
-5.144151e-01
-8.452270e-01
-1.225599e+00
-1.654552e+00
-2.130351e+00
-2.650947e+00
-3.214309e+00
-3.818583e+00
-4.462175e+00
-5.143801e+00
-5.862671e+00
-6.618553e+00
-7.411628e+00
-8.242564e+00
-9.112571e+00
-1.002235e+01
-1.097221e+01
-1.196293e+01
-1.299510e+01
-1.406820e+01
-1.518264e+01
-1.633784e+01
-1.753074e+01
-1.876282e+01
-2.002132e+01
-2.130432e+01
-2.260092e+01
-2.389442e+01
-2.516545e+01
-2.633364e+01
-2.732515e+01
0.000000e+00
-2.325763e-01
-5.138769e-01
-8.453576e-01
-1.227178e+00
-1.658073e+00
-2.135965e+00
-2.658563e+00
-3.223770e+00
-3.829809e+00
-4.475137e+00
-5.158313e+00
-5.878407e+00
-6.635405e+00
-7.429415e+00
-8.260754e+00
-9.131926e+00
-1.004300e+01
-1.099386e+01
-1.198469e+01
-1.301845e+01
-1.409142e+01
-1.520419e+01
-1.636124e+01
-1.754694e+01
-1.876702e+01
-2.000839e+01
-2.126844e+01
-2.253575e+01
-2.379239e+01
-2.499743e+01
-2.609857e+01
-2.705752e+01
0.000000e+00
-2.311036e-01
-5.116764e-01
-8.446572e-01
-1.229880e+00
-1.664979e+00
-2.147124e+00
-2.673428e+00
-3.241764e+00
-3.850324e+00
-4.497826e+00
-5.182544e+00
-5.903566e+00
-6.661925e+00
-7.456912e+00
-8.289381e+00
-9.162034e+00
-1.007432e+01
-1.102630e+01
-1.201603e+01
-1.304914e+01
-1.412004e+01
-1.523056e+01
-1.638118e+01
-1.755825e+01
-1.876290e+01
-1.999310e+01
-2.123082e+01
-2.247255e+01
-2.368819e+01
-2.484767e+01
-2.591681e+01
-2.686530e+01
0.000000e+00
-2.274616e-01
-5.057519e-01
-8.422265e-01
-1.233991e+00
-1.675934e+00
-2.164999e+00
-2.696296e+00
-3.269324e+00
-3.880858e+00
-4.530356e+00
-5.216322e+00
-5.937460e+00
-6.696900e+00
-7.493014e+00
-8.328045e+00
-9.202345e+00
-1.011573e+01
-1.106765e+01
-1.205648e+01
-1.308479e+01
-1.415188e+01
-1.525665e+01
-1.639699e+01
-1.756485e+01
-1.875999e+01
-1.997827e+01
-2.120313e+01
-2.241797e+01
-2.360440e+01
-2.473445e+01
-2.578761e+01
-2.674007e+01
0.000000e+00
-2.204483e-01
-4.897198e-01
-8.374478e-01
-1.242498e+00
-1.689760e+00
-2.193906e+00
-2.726533e+00
-3.309109e+00
-3.920903e+00
-4.573095e+00
-5.259584e+00
-5.980032e+00
-6.742293e+00
-7.538728e+00
-8.377471e+00
-9.252735e+00
-1.016518e+01
-1.111558e+01
-1.210108e+01
-1.312423e+01
-1.418575e+01
-1.528244e+01
-1.641321e+01
-1.757386e+01
-1.876539e+01
-1.997794e+01
-2.118809e+01
-2.238307e+01
-2.354422e+01
-2.465568e+01
-2.570186e+01
-2.666905e+01
0.000000e+00
-2.033381e-01
-4.508674e-01
-8.430206e-01
-1.249680e+00
-1.715731e+00
-2.233444e+00
-2.769552e+00
-3.359785e+00
-3.971058e+00
-4.623939e+00
-5.309879e+00
-6.032813e+00
-6.797037e+00
-7.596971e+00
-8.437114e+00
-9.312528e+00
-1.022318e+01
-1.117006e+01
-1.215163e+01
-1.316960e+01
-1.422387e+01
-1.531176e+01
-1.643519e+01
-1.759728e+01
-1.878889e+01
-1.999420e+01
-2.118933e+01
-2.236533e+01
-2.350812e+01
-2.460606e+01
-2.565086e+01
-2.663831e+01
0.000000e+00
-1.564240e-01
-4.487533e-01
-8.460212e-01
-1.287203e+00
-1.764910e+00
-2.285191e+00
-2.834577e+00
-3.418927e+00
-4.034367e+00
-4.683145e+00
-5.369973e+00
-6.094706e+00
-6.859972e+00
-7.663013e+00
-8.502978e+00
-9.378202e+00
-1.028698e+01
-1.123157e+01
-1.221047e+01
-1.322409e+01
-1.427177e+01
-1.535253e+01
-1.647696e+01
-1.764184e+01
-1.883064e+01
-2.002163e+01
-2.120334e+01
-2.236392e+01
-2.349248e+01
-2.458046e+01
-2.562530e+01
-2.663310e+01
0.000000e+00
-1.768160e-01
-5.068235e-01
-9.028334e-01
-1.354653e+00
-1.835190e+00
-2.357127e+00
-2.909529e+00
-3.492125e+00
-4.108222e+00
-4.755492e+00
-5.442298e+00
-6.167247e+00
-6.933001e+00
-7.736416e+00
-8.576478e+00
-9.450712e+00
-1.035791e+01
-1.130132e+01
-1.227880e+01
-1.329068e+01
-1.433518e+01
-1.541649e+01
-1.654223e+01
-1.770370e+01
-1.888000e+01
-2.005773e+01
-2.122637e+01
-2.237451e+01
-2.349196e+01
-2.457216e+01
-2.561610e+01
-2.663778e+01
0.000000e+00
-2.766654e-01
-5.883939e-01
-9.914334e-01
-1.435757e+00
-1.919043e+00
-2.441267e+00
-2.991746e+00
-3.576060e+00
-4.191012e+00
-4.839647e+00
-5.526114e+00
-6.251026e+00
-7.016357e+00
-7.819060e+00
-8.658662e+00
-9.531957e+00
-1.043921e+01
-1.138170e+01
-1.235866e+01
-1.337013e+01
-1.441479e+01