TITLE = "Solution"
VARIABLES = x, y, u, v, psiu, psiv, t, stress
ZONE T="structure" N=561 E=512 F=FEBLOCK ET=QUADRILATERAL VARLOCATION=([7,8]=cellcentered)
0.000000e+00
6.250000e+00
1.250000e+01
1.875000e+01
2.500000e+01
3.125000e+01
3.750000e+01
4.375000e+01
5.000000e+01
5.625000e+01
6.250000e+01
6.875000e+01
7.500000e+01
8.125000e+01
8.750000e+01
9.375000e+01
1.000000e+02
1.062500e+02
1.125000e+02
1.187500e+02
1.250000e+02
1.312500e+02
1.375000e+02
1.437500e+02
1.500000e+02
1.562500e+02
1.625000e+02
1.687500e+02
1.750000e+02
1.812500e+02
1.875000e+02
1.937500e+02
2.000000e+02
0.000000e+00
6.250000e+00
1.250000e+01
1.875000e+01
2.500000e+01
3.125000e+01
3.750000e+01
4.375000e+01
5.000000e+01
5.625000e+01
6.250000e+01
6.875000e+01
7.500000e+01
8.125000e+01
8.750000e+01
9.375000e+01
1.000000e+02
1.062500e+02
1.125000e+02
1.187500e+02
1.250000e+02
1.312500e+02
1.375000e+02
1.437500e+02
1.500000e+02
1.562500e+02
1.625000e+02
1.687500e+02
1.750000e+02
1.812500e+02
1.875000e+02
1.937500e+02
2.000000e+02
0.000000e+00
6.250000e+00
1.250000e+01
1.875000e+01
2.500000e+01
3.125000e+01
3.750000e+01
4.375000e+01
5.000000e+01
5.625000e+01
6.250000e+01
6.875000e+01
7.500000e+01
8.125000e+01
8.750000e+01
9.375000e+01
1.000000e+02
1.062500e+02
1.125000e+02
1.187500e+02
1.250000e+02
1.312500e+02
1.375000e+02
1.437500e+02
1.500000e+02
1.562500e+02
1.625000e+02
1.687500e+02
1.750000e+02
1.812500e+02
1.875000e+02
1.937500e+02
2.000000e+02
0.000000e+00
6.250000e+00
1.250000e+01
1.875000e+01
2.500000e+01
3.125000e+01
3.750000e+01
4.375000e+01
5.000000e+01
5.625000e+01
6.250000e+01
6.875000e+01
7.500000e+01
8.125000e+01
8.750000e+01
9.375000e+01
1.000000e+02
1.062500e+02
1.125000e+02
1.187500e+02
1.250000e+02
1.312500e+02
1.375000e+02
1.437500e+02
1.500000e+02
1.562500e+02
1.625000e+02
1.687500e+02
1.750000e+02
1.812500e+02
1.875000e+02
1.937500e+02
2.000000e+02
0.000000e+00
6.250000e+00
1.250000e+01
1.875000e+01
2.500000e+01
3.125000e+01
3.750000e+01
4.375000e+01
5.000000e+01
5.625000e+01
6.250000e+01
6.875000e+01
7.500000e+01
8.125000e+01
8.750000e+01
9.375000e+01
1.000000e+02
1.062500e+02
1.125000e+02
1.187500e+02
1.250000e+02
1.312500e+02
1.375000e+02
1.437500e+02
1.500000e+02
1.562500e+02
1.625000e+02
1.687500e+02
1.750000e+02
1.812500e+02
1.875000e+02
1.937500e+02
2.000000e+02
0.000000e+00
6.250000e+00
1.250000e+01
1.875000e+01
2.500000e+01
3.125000e+01
3.750000e+01
4.375000e+01
5.000000e+01
5.625000e+01
6.250000e+01
6.875000e+01
7.500000e+01
8.125000e+01
8.750000e+01
9.375000e+01
1.000000e+02
1.062500e+02
1.125000e+02
1.187500e+02
1.250000e+02
1.312500e+02
1.375000e+02
1.437500e+02
1.500000e+02
1.562500e+02
1.625000e+02
1.687500e+02
1.750000e+02
1.812500e+02
1.875000e+02
1.937500e+02
2.000000e+02
0.000000e+00
6.250000e+00
1.250000e+01
1.875000e+01
2.500000e+01
3.125000e+01
3.750000e+01
4.375000e+01
5.000000e+01
5.625000e+01
6.250000e+01
6.875000e+01
7.500000e+01
8.125000e+01
8.750000e+01
9.375000e+01
1.000000e+02
1.062500e+02
1.125000e+02
1.187500e+02
1.250000e+02
1.312500e+02
1.375000e+02
1.437500e+02
1.500000e+02
1.562500e+02
1.625000e+02
1.687500e+02
1.750000e+02
1.812500e+02
1.875000e+02
1.937500e+02
2.000000e+02
0.000000e+00
6.250000e+00
1.250000e+01
1.875000e+01
2.500000e+01
3.125000e+01
3.750000e+01
4.375000e+01
5.000000e+01
5.625000e+01
6.250000e+01
6.875000e+01
7.500000e+01
8.125000e+01
8.750000e+01
9.375000e+01
1.000000e+02
1.062500e+02
1.125000e+02
1.187500e+02
1.250000e+02
1.312500e+02
1.375000e+02
1.437500e+02
1.500000e+02
1.562500e+02
1.625000e+02
1.687500e+02
1.750000e+02
1.812500e+02
1.875000e+02
1.937500e+02
2.000000e+02
0.000000e+00
6.250000e+00
1.250000e+01
1.875000e+01
2.500000e+01
3.125000e+01
3.750000e+01
4.375000e+01
5.000000e+01
5.625000e+01
6.250000e+01
6.875000e+01
7.500000e+01
8.125000e+01
8.750000e+01
9.375000e+01
1.000000e+02
1.062500e+02
1.125000e+02
1.187500e+02
1.250000e+02
1.312500e+02
1.375000e+02
1.437500e+02
1.500000e+02
1.562500e+02
1.625000e+02
1.687500e+02
1.750000e+02
1.812500e+02
1.875000e+02
1.937500e+02
2.000000e+02
0.000000e+00
6.250000e+00
1.250000e+01
1.875000e+01
2.500000e+01
3.125000e+01
3.750000e+01
4.375000e+01
5.000000e+01
5.625000e+01
6.250000e+01
6.875000e+01
7.500000e+01
8.125000e+01
8.750000e+01
9.375000e+01
1.000000e+02
1.062500e+02
1.125000e+02
1.187500e+02
1.250000e+02
1.312500e+02
1.375000e+02
1.437500e+02
1.500000e+02
1.562500e+02
1.625000e+02
1.687500e+02
1.750000e+02
1.812500e+02
1.875000e+02
1.937500e+02
2.000000e+02
0.000000e+00
6.250000e+00
1.250000e+01
1.875000e+01
2.500000e+01
3.125000e+01
3.750000e+01
4.375000e+01
5.000000e+01
5.625000e+01
6.250000e+01
6.875000e+01
7.500000e+01
8.125000e+01
8.750000e+01
9.375000e+01
1.000000e+02
1.062500e+02
1.125000e+02
1.187500e+02
1.250000e+02
1.312500e+02
1.375000e+02
1.437500e+02
1.500000e+02
1.562500e+02
1.625000e+02
1.687500e+02
1.750000e+02
1.812500e+02
1.875000e+02
1.937500e+02
2.000000e+02
0.000000e+00
6.250000e+00
1.250000e+01
1.875000e+01
2.500000e+01
3.125000e+01
3.750000e+01
4.375000e+01
5.000000e+01
5.625000e+01
6.250000e+01
6.875000e+01
7.500000e+01
8.125000e+01
8.750000e+01
9.375000e+01
1.000000e+02
1.062500e+02
1.125000e+02
1.187500e+02
1.250000e+02
1.312500e+02
1.375000e+02
1.437500e+02
1.500000e+02
1.562500e+02
1.625000e+02
1.687500e+02
1.750000e+02
1.812500e+02
1.875000e+02
1.937500e+02
2.000000e+02
0.000000e+00
6.250000e+00
1.250000e+01
1.875000e+01
2.500000e+01
3.125000e+01
3.750000e+01
4.375000e+01
5.000000e+01
5.625000e+01
6.250000e+01
6.875000e+01
7.500000e+01
8.125000e+01
8.750000e+01
9.375000e+01
1.000000e+02
1.062500e+02
1.125000e+02
1.187500e+02
1.250000e+02
1.312500e+02
1.375000e+02
1.437500e+02
1.500000e+02
1.562500e+02
1.625000e+02
1.687500e+02
1.750000e+02
1.812500e+02
1.875000e+02
1.937500e+02
2.000000e+02
0.000000e+00
6.250000e+00
1.250000e+01
1.875000e+01
2.500000e+01
3.125000e+01
3.750000e+01
4.375000e+01
5.000000e+01
5.625000e+01
6.250000e+01
6.875000e+01
7.500000e+01
8.125000e+01
8.750000e+01
9.375000e+01
1.000000e+02
1.062500e+02
1.125000e+02
1.187500e+02
1.250000e+02
1.312500e+02
1.375000e+02
1.437500e+02
1.500000e+02
1.562500e+02
1.625000e+02
1.687500e+02
1.750000e+02
1.812500e+02
1.875000e+02
1.937500e+02
2.000000e+02
0.000000e+00
6.250000e+00
1.250000e+01
1.875000e+01
2.500000e+01
3.125000e+01
3.750000e+01
4.375000e+01
5.000000e+01
5.625000e+01
6.250000e+01
6.875000e+01
7.500000e+01
8.125000e+01
8.750000e+01
9.375000e+01
1.000000e+02
1.062500e+02
1.125000e+02
1.187500e+02
1.250000e+02
1.312500e+02
1.375000e+02
1.437500e+02
1.500000e+02
1.562500e+02
1.625000e+02
1.687500e+02
1.750000e+02
1.812500e+02
1.875000e+02
1.937500e+02
2.000000e+02
0.000000e+00
6.250000e+00
1.250000e+01
1.875000e+01
2.500000e+01
3.125000e+01
3.750000e+01
4.375000e+01
5.000000e+01
5.625000e+01
6.250000e+01
6.875000e+01
7.500000e+01
8.125000e+01
8.750000e+01
9.375000e+01
1.000000e+02
1.062500e+02
1.125000e+02
1.187500e+02
1.250000e+02
1.312500e+02
1.375000e+02
1.437500e+02
1.500000e+02
1.562500e+02
1.625000e+02
1.687500e+02
1.750000e+02
1.812500e+02
1.875000e+02
1.937500e+02
2.000000e+02
0.000000e+00
6.250000e+00
1.250000e+01
1.875000e+01
2.500000e+01
3.125000e+01
3.750000e+01
4.375000e+01
5.000000e+01
5.625000e+01
6.250000e+01
6.875000e+01
7.500000e+01
8.125000e+01
8.750000e+01
9.375000e+01
1.000000e+02
1.062500e+02
1.125000e+02
1.187500e+02
1.250000e+02
1.312500e+02
1.375000e+02
1.437500e+02
1.500000e+02
1.562500e+02
1.625000e+02
1.687500e+02
1.750000e+02
1.812500e+02
1.875000e+02
1.937500e+02
2.000000e+02
0.000000e+00
0.000000e+00
0.000000e+00
0.000000e+00
0.000000e+00
0.000000e+00
0.000000e+00
0.000000e+00
0.000000e+00
0.000000e+00
0.000000e+00
0.000000e+00
0.000000e+00
0.000000e+00
0.000000e+00
0.000000e+00
0.000000e+00
0.000000e+00
0.000000e+00
0.000000e+00
0.000000e+00
0.000000e+00
0.000000e+00
0.000000e+00
0.000000e+00
0.000000e+00
0.000000e+00
0.000000e+00
0.000000e+00
0.000000e+00
0.000000e+00
0.000000e+00
0.000000e+00
6.250000e+00
6.250000e+00
6.250000e+00
6.250000e+00
6.250000e+00
6.250000e+00
6.250000e+00
6.250000e+00
6.250000e+00
6.250000e+00
6.250000e+00
6.250000e+00
6.250000e+00
6.250000e+00
6.250000e+00
6.250000e+00
6.250000e+00
6.250000e+00
6.250000e+00
6.250000e+00
6.250000e+00
6.250000e+00
6.250000e+00
6.250000e+00
6.250000e+00
6.250000e+00
6.250000e+00
6.250000e+00
6.250000e+00
6.250000e+00
6.250000e+00
6.250000e+00
6.250000e+00
1.250000e+01
1.250000e+01
1.250000e+01
1.250000e+01
1.250000e+01
1.250000e+01
1.250000e+01
1.250000e+01
1.250000e+01
1.250000e+01
1.250000e+01
1.250000e+01
1.250000e+01
1.250000e+01
1.250000e+01
1.250000e+01
1.250000e+01
1.250000e+01
1.250000e+01
1.250000e+01
1.250000e+01
1.250000e+01
1.250000e+01
1.250000e+01
1.250000e+01
1.250000e+01
1.250000e+01
1.250000e+01
1.250000e+01
1.250000e+01
1.250000e+01
1.250000e+01
1.250000e+01
1.875000e+01
1.875000e+01
1.875000e+01
1.875000e+01
1.875000e+01
1.875000e+01
1.875000e+01
1.875000e+01
1.875000e+01
1.875000e+01
1.875000e+01
1.875000e+01
1.875000e+01
1.875000e+01
1.875000e+01
1.875000e+01
1.875000e+01
1.875000e+01
1.875000e+01
1.875000e+01
1.875000e+01
1.875000e+01
1.875000e+01
1.875000e+01
1.875000e+01
1.875000e+01
1.875000e+01
1.875000e+01
1.875000e+01
1.875000e+01
1.875000e+01
1.875000e+01
1.875000e+01
2.500000e+01
2.500000e+01
2.500000e+01
2.500000e+01
2.500000e+01
2.500000e+01
2.500000e+01
2.500000e+01
2.500000e+01
2.500000e+01
2.500000e+01
2.500000e+01
2.500000e+01
2.500000e+01
2.500000e+01
2.500000e+01
2.500000e+01
2.500000e+01
2.500000e+01
2.500000e+01
2.500000e+01
2.500000e+01
2.500000e+01
2.500000e+01
2.500000e+01
2.500000e+01
2.500000e+01
2.500000e+01
2.500000e+01
2.500000e+01
2.500000e+01
2.500000e+01
2.500000e+01
3.125000e+01
3.125000e+01
3.125000e+01
3.125000e+01
3.125000e+01
3.125000e+01
3.125000e+01
3.125000e+01
3.125000e+01
3.125000e+01
3.125000e+01
3.125000e+01
3.125000e+01
3.125000e+01
3.125000e+01
3.125000e+01
3.125000e+01
3.125000e+01
3.125000e+01
3.125000e+01
3.125000e+01
3.125000e+01
3.125000e+01
3.125000e+01
3.125000e+01
3.125000e+01
3.125000e+01
3.125000e+01
3.125000e+01
3.125000e+01
3.125000e+01
3.125000e+01
3.125000e+01
3.750000e+01
3.750000e+01
3.750000e+01
3.750000e+01
3.750000e+01
3.750000e+01
3.750000e+01
3.750000e+01
3.750000e+01
3.750000e+01
3.750000e+01
3.750000e+01
3.750000e+01
3.750000e+01
3.750000e+01
3.750000e+01
3.750000e+01
3.750000e+01
3.750000e+01
3.750000e+01
3.750000e+01
3.750000e+01
3.750000e+01
3.750000e+01
3.750000e+01
3.750000e+01
3.750000e+01
3.750000e+01
3.750000e+01
3.750000e+01
3.750000e+01
3.750000e+01
3.750000e+01
4.375000e+01
4.375000e+01
4.375000e+01
4.375000e+01
4.375000e+01
4.375000e+01
4.375000e+01
4.375000e+01
4.375000e+01
4.375000e+01
4.375000e+01
4.375000e+01
4.375000e+01
4.375000e+01
4.375000e+01
4.375000e+01
4.375000e+01
4.375000e+01
4.375000e+01
4.375000e+01
4.375000e+01
4.375000e+01
4.375000e+01
4.375000e+01
4.375000e+01
4.375000e+01
4.375000e+01
4.375000e+01
4.375000e+01
4.375000e+01
4.375000e+01
4.375000e+01
4.375000e+01
5.000000e+01
5.000000e+01
5.000000e+01
5.000000e+01
5.000000e+01
5.000000e+01
5.000000e+01
5.000000e+01
5.000000e+01
5.000000e+01
5.000000e+01
5.000000e+01
5.000000e+01
5.000000e+01
5.000000e+01
5.000000e+01
5.000000e+01
5.000000e+01
5.000000e+01
5.000000e+01
5.000000e+01
5.000000e+01
5.000000e+01
5.000000e+01
5.000000e+01
5.000000e+01
5.000000e+01
5.000000e+01
5.000000e+01
5.000000e+01
5.000000e+01
5.000000e+01
5.000000e+01
5.625000e+01
5.625000e+01
5.625000e+01
5.625000e+01
5.625000e+01
5.625000e+01
5.625000e+01
5.625000e+01
5.625000e+01
5.625000e+01
5.625000e+01
5.625000e+01
5.625000e+01
5.625000e+01
5.625000e+01
5.625000e+01
5.625000e+01
5.625000e+01
5.625000e+01
5.625000e+01
5.625000e+01
5.625000e+01
5.625000e+01
5.625000e+01
5.625000e+01
5.625000e+01
5.625000e+01
5.625000e+01
5.625000e+01
5.625000e+01
5.625000e+01
5.625000e+01
5.625000e+01
6.250000e+01
6.250000e+01
6.250000e+01
6.250000e+01
6.250000e+01
6.250000e+01
6.250000e+01
6.250000e+01
6.250000e+01
6.250000e+01
6.250000e+01
6.250000e+01
6.250000e+01
6.250000e+01
6.250000e+01
6.250000e+01
6.250000e+01
6.250000e+01
6.250000e+01
6.250000e+01
6.250000e+01
6.250000e+01
6.250000e+01
6.250000e+01
6.250000e+01
6.250000e+01
6.250000e+01
6.250000e+01
6.250000e+01
6.250000e+01
6.250000e+01
6.250000e+01
6.250000e+01
6.875000e+01
6.875000e+01
6.875000e+01
6.875000e+01
6.875000e+01
6.875000e+01
6.875000e+01
6.875000e+01
6.875000e+01
6.875000e+01
6.875000e+01
6.875000e+01
6.875000e+01
6.875000e+01
6.875000e+01
6.875000e+01
6.875000e+01
6.875000e+01
6.875000e+01
6.875000e+01
6.875000e+01
6.875000e+01
6.875000e+01
6.875000e+01
6.875000e+01
6.875000e+01
6.875000e+01
6.875000e+01
6.875000e+01
6.875000e+01
6.875000e+01
6.875000e+01
6.875000e+01
7.500000e+01
7.500000e+01
7.500000e+01
7.500000e+01
7.500000e+01
7.500000e+01
7.500000e+01
7.500000e+01
7.500000e+01
7.500000e+01
7.500000e+01
7.500000e+01
7.500000e+01
7.500000e+01
7.500000e+01
7.500000e+01
7.500000e+01
7.500000e+01
7.500000e+01
7.500000e+01
7.500000e+01
7.500000e+01
7.500000e+01
7.500000e+01
7.500000e+01
7.500000e+01
7.500000e+01
7.500000e+01
7.500000e+01
7.500000e+01
7.500000e+01
7.500000e+01
7.500000e+01
8.125000e+01
8.125000e+01
8.125000e+01
8.125000e+01
8.125000e+01
8.125000e+01
8.125000e+01
8.125000e+01
8.125000e+01
8.125000e+01
8.125000e+01
8.125000e+01
8.125000e+01
8.125000e+01
8.125000e+01
8.125000e+01
8.125000e+01
8.125000e+01
8.125000e+01
8.125000e+01
8.125000e+01
8.125000e+01
8.125000e+01
8.125000e+01
8.125000e+01
8.125000e+01
8.125000e+01
8.125000e+01
8.125000e+01
8.125000e+01
8.125000e+01
8.125000e+01
8.125000e+01
8.750000e+01
8.750000e+01
8.750000e+01
8.750000e+01
8.750000e+01
8.750000e+01
8.750000e+01
8.750000e+01
8.750000e+01
8.750000e+01
8.750000e+01
8.750000e+01
8.750000e+01
8.750000e+01
8.750000e+01
8.750000e+01
8.750000e+01
8.750000e+01
8.750000e+01
8.750000e+01
8.750000e+01
8.750000e+01
8.750000e+01
8.750000e+01
8.750000e+01
8.750000e+01
8.750000e+01
8.750000e+01
8.750000e+01
8.750000e+01
8.750000e+01
8.750000e+01
8.750000e+01
9.375000e+01
9.375000e+01
9.375000e+01
9.375000e+01
9.375000e+01
9.375000e+01
9.375000e+01
9.375000e+01
9.375000e+01
9.375000e+01
9.375000e+01
9.375000e+01
9.375000e+01
9.375000e+01
9.375000e+01
9.375000e+01
9.375000e+01
9.375000e+01
9.375000e+01
9.375000e+01
9.375000e+01
9.375000e+01
9.375000e+01
9.375000e+01
9.375000e+01
9.375000e+01
9.375000e+01
9.375000e+01
9.375000e+01
9.375000e+01
9.375000e+01
9.375000e+01
9.375000e+01
1.000000e+02
1.000000e+02
1.000000e+02
1.000000e+02
1.000000e+02
1.000000e+02
1.000000e+02
1.000000e+02
1.000000e+02
1.000000e+02
1.000000e+02
1.000000e+02
1.000000e+02
1.000000e+02
1.000000e+02
1.000000e+02
1.000000e+02
1.000000e+02
1.000000e+02
1.000000e+02
1.000000e+02
1.000000e+02
1.000000e+02
1.000000e+02
1.000000e+02
1.000000e+02
1.000000e+02
1.000000e+02
1.000000e+02
1.000000e+02
1.000000e+02
1.000000e+02
1.000000e+02
0.000000e+00
-1.206634e-01
-2.189246e-01
-3.099555e-01
-3.973315e-01
-4.817161e-01
-5.632759e-01
-6.420022e-01
-7.178443e-01
-7.907460e-01
-8.606610e-01
-9.275569e-01
-9.914167e-01
-1.052239e+00
-1.110036e+00
-1.164840e+00
-1.216697e+00
-1.265681e+00
-1.311887e+00
-1.355451e+00
-1.396547e+00
-1.435411e+00
-1.472351e+00
-1.507779e+00
-1.542245e+00
-1.576495e+00
-1.611570e+00
-1.648949e+00
-1.690805e+00
-1.740334e+00
-1.801680e+00
-1.874780e+00
-1.919390e+00
0.000000e+00
-8.089719e-02
-1.683136e-01
-2.507410e-01
-3.290967e-01
-4.041241e-01
-4.762167e-01
-5.455465e-01
-6.121812e-01
-6.761424e-01
-7.374336e-01
-7.960542e-01
-8.520063e-01
-9.052985e-01
-9.559480e-01
-1.003982e+00
-1.049443e+00
-1.092384e+00
-1.132881e+00
-1.171030e+00
-1.206955e+00
-1.240810e+00
-1.272788e+00
-1.303125e+00
-1.332103e+00
-1.360046e+00
-1.387296e+00
-1.414136e+00
-1.440564e+00
-1.465719e+00
-1.486678e+00
-1.498931e+00
-1.515987e+00
0.000000e+00
-6.416527e-02
-1.320997e-01
-2.012729e-01
-2.684971e-01
-3.332518e-01
-3.954940e-01
-4.552810e-01
-5.126648e-01
-5.676806e-01
-6.203510e-01
-6.706918e-01
-7.187164e-01
-7.644385e-01
-8.078745e-01
-8.490453e-01
-8.879773e-01
-9.247038e-01
-9.592659e-01
-9.917126e-01
-1.022101e+00
-1.050491e+00
-1.076945e+00
-1.101509e+00
-1.124192e+00
-1.144922e+00
-1.163462e+00
-1.179266e+00
-1.191265e+00
-1.197728e+00
-1.197163e+00
-1.193537e+00
-1.213454e+00
0.000000e+00
-5.090943e-02
-1.046309e-01
-1.598271e-01
-2.149003e-01
-2.686455e-01
-3.206016e-01
-3.706026e-01
-4.186029e-01
-4.645998e-01
-5.086043e-01
-5.506308e-01
-5.906928e-01
-6.288024e-01
-6.649707e-01
-6.992075e-01
-7.315219e-01
-7.619220e-01
-7.904139e-01
-8.169990e-01
-8.416705e-01
-8.644055e-01
-8.851539e-01
-9.038187e-01
-9.202278e-01
-9.340914e-01
-9.449509e-01
-9.521428e-01
-9.548897e-01
-9.528530e-01
-9.479042e-01
-9.476092e-01
-9.665858e-01
0.000000e+00
-3.951387e-02
-8.091129e-02
-1.236337e-01
-1.667073e-01
-2.092567e-01
-2.506947e-01
-2.907237e-01
-3.292077e-01
-3.660942e-01
-4.013690e-01
-4.350335e-01
-4.670935e-01
-4.975542e-01
-5.264171e-01
-5.536795e-01
-5.793327e-01
-6.033609e-01
-6.257393e-01
-6.464302e-01
-6.653780e-01
-6.825015e-01
-6.976836e-01
-7.107575e-01
-7.214922e-01
-7.295838e-01
-7.346760e-01
-7.364628e-01
-7.349983e-01
-7.314137e-01
-7.290878e-01
-7.344581e-01
-7.506474e-01
0.000000e+00
-2.904119e-02
-5.932695e-02
-9.058722e-02
-1.222828e-01
-1.538224e-01
-1.847362e-01
-2.147189e-01
-2.436024e-01
-2.713048e-01
-2.977912e-01
-3.230491e-01
-3.470740e-01
-3.698611e-01
-3.914018e-01
-4.116804e-01
-4.306726e-01
-4.483437e-01
-4.646458e-01
-4.795149e-01
-4.928673e-01
-5.045945e-01
-5.145596e-01
-5.225954e-01
-5.285110e-01
-5.321208e-01
-5.333187e-01
-5.322444e-01
-5.295959e-01
-5.270757e-01
-5.276887e-01
-5.345352e-01
-5.479319e-01
0.000000e+00
-1.911299e-02
-3.898226e-02
-5.948270e-02
-8.032248e-02
-1.011511e-01
-1.216545e-01
-1.416038e-01
-1.608555e-01
-1.793301e-01
-1.969876e-01
-2.138074e-01
-2.297766e-01
-2.448816e-01
-2.591041e-01
-2.724178e-01
-2.847867e-01
-2.961633e-01
-3.064863e-01
-3.156797e-01
-3.236512e-01
-3.302924e-01
-3.354827e-01
-3.390996e-01
-3.410432e-01
-3.412844e-01
-3.399558e-01
-3.374971e-01
-3.348437e-01
-3.335571e-01
-3.355631e-01
-3.422292e-01
-3.530439e-01
0.000000e+00
-9.493544e-03
-1.934616e-02
-2.950745e-02
-3.984929e-02
-5.020845e-02
-6.042985e-02
-7.039209e-02
-8.001304e-02
-8.924247e-02
-9.805057e-02
-1.064175e-01
-1.143261e-01
-1.217566e-01
-1.286837e-01
-1.350739e-01
-1.408843e-01
-1.460612e-01
-1.505396e-01
-1.542431e-01
-1.570861e-01
-1.589785e-01
-1.598358e-01
-1.595974e-01
-1.582586e-01
-1.559215e-01
-1.528690e-01
-1.496525e-01
-1.471554e-01
-1.465295e-01
-1.488833e-01
-1.546988e-01
-1.632804e-01
0.000000e+00
-1.534673e-05
-3.327359e-05
-5.278854e-05
-7.286571e-05
-9.212182e-05
-1.084721e-04
-1.187490e-04
-1.182565e-04
-1.002327e-04
-5.520099e-05
2.980042e-05
1.721114e-04
3.944446e-04
7.259338e-04
1.203146e-03
1.870900e-03
2.782640e-03
3.999954e-03
5.590648e-03
7.624433e-03
1.016494e-02
1.325625e-02
1.690171e-02
2.103306e-02
2.546935e-02
2.987095e-02
3.370589e-02
3.626605e-02
3.678553e-02
3.469559e-02
2.996205e-02
2.333228e-02
0.000000e+00
9.464636e-03
1.928335e-02
2.940761e-02
3.971116e-02
5.003331e-02
6.022287e-02
7.016430e-02
7.978427e-02
8.904518e-02
9.793497e-02
1.064582e-01
1.146302e-01
1.224740e-01
1.300193e-01
1.373017e-01
1.443633e-01
1.512520e-01
1.580203e-01
1.647223e-01
1.714080e-01
1.781141e-01
1.848504e-01
1.915792e-01
1.981914e-01
2.044781e-01
2.101104e-01
2.146406e-01
2.175515e-01
2.183758e-01
2.168835e-01
2.132876e-01
2.083670e-01
0.000000e+00
1.908936e-02
3.893057e-02
5.939997e-02
8.020713e-02
1.010035e-01
1.214780e-01
1.414065e-01
1.606523e-01
1.791463e-01
1.968626e-01
2.138005e-01
2.299736e-01
2.454033e-01
2.601168e-01
2.741450e-01
2.875231e-01
3.002892e-01
3.124827e-01
3.241414e-01
3.352954e-01
3.459589e-01
3.561173e-01
3.657119e-01
3.746223e-01
3.826507e-01
3.895180e-01
3.948817e-01
3.983923e-01
3.997961e-01
3.990745e-01
3.965863e-01
3.931519e-01
0.000000e+00
2.902610e-02
5.929334e-02
9.053251e-02
1.222051e-01
1.537210e-01
1.846122e-01
2.145762e-01
2.434492e-01
2.711557e-01
2.976700e-01
3.229923e-01
3.471352e-01
3.701173e-01
3.919599e-01
4.126860e-01
4.323199e-01
4.508863e-01
4.684090e-01
4.849080e-01
5.003949e-01
5.148660e-01
5.282933e-01
5.406133e-01
5.517171e-01
5.614434e-01
5.695825e-01
5.758995e-01
5.801833e-01
5.823299e-01
5.824507e-01
5.809910e-01
5.788206e-01
0.000000e+00
3.951009e-02
8.090185e-02
1.236168e-01
1.666812e-01
2.092200e-01
2.506465e-01
2.906637e-01
3.291373e-01
3.660164e-01
4.012899e-01
4.349632e-01
4.670480e-01
4.975575e-01
5.265041e-01
5.538995e-01
5.797536e-01
6.040750e-01
6.268691e-01
6.481370e-01
6.678722e-01
6.860565e-01
7.026547e-01
7.176096e-01
7.308370e-01
7.422259e-01
7.516459e-01
7.589671e-01
7.640980e-01
7.670458e-01
7.680020e-01
7.674539e-01
7.663105e-01
0.000000e+00
5.091884e-02
1.046501e-01
1.598556e-01
2.149373e-01
2.686900e-01
3.206520e-01
3.706564e-01
4.186560e-01
4.646455e-01
5.086329e-01
5.506274e-01
5.906366e-01
6.286644e-01
6.647111e-01
6.987736e-01
7.308452e-01
7.609150e-01
7.889682e-01
8.149846e-01
8.389380e-01
8.607947e-01
8.805133e-01
8.980438e-01
9.133304e-01
9.263158e-01
9.369511e-01
9.452125e-01
9.511252e-01
9.547996e-01
9.564898e-01
9.566913e-01
9.563120e-01
0.000000e+00
6.418834e-02
1.321489e-01
2.013500e-01
2.686035e-01
3.333888e-01
3.956618e-01
4.554778e-01
5.128849e-01
5.679127e-01
6.205751e-01
6.708757e-01
7.188107e-01
7.643704e-01
8.075401e-01
8.483000e-01
8.866246e-01
9.224824e-01
9.558352e-01
9.866385e-01
1.014841e+00
1.040389e+00
1.063226e+00
1.083301e+00
1.100576e+00
1.115037e+00
1.126711e+00
1.135680e+00
1.142099e+00
1.146210e+00
1.148362e+00
1.149063e+00
1.149147e+00
0.000000e+00
8.093183e-02
1.683893e-01
2.508627e-01
3.292705e-01
4.043559e-01
4.765116e-01
5.459072e-01
6.126064e-01
6.766235e-01
7.379508e-01
7.965705e-01
8.524601e-01
9.055934e-01
9.559396e-01
1.003463e+00
1.048119e+00
1.089855e+00
1.128609e+00
1.164306e+00
1.196865e+00
1.226198e+00
1.252218e+00
1.274850e+00
1.294047e+00
1.309810e+00
1.322214e+00
1.331434e+00
1.337767e+00
1.341648e+00
1.343630e+00
1.344349e+00
1.344525e+00
0.000000e+00
1.207013e-01
2.190131e-01
3.101072e-01
3.975585e-01
4.820309e-01
5.636912e-01
6.425303e-01
7.184948e-01
7.915229e-01
8.615577e-01
9.285496e-01
9.924550e-01
1.053232e+00
1.110839e+00
1.165226e+00
1.216336e+00
1.264096e+00
1.308419e+00
1.349200e+00
1.386316e+00
1.419631e+00
1.449000e+00
1.474290e+00
1.495396e+00
1.512274e+00
1.524987e+00
1.533744e+00
1.538964e+00
1.541316e+00
1.541743e+00
1.541389e+00
1.541190e+00
0.000000e+00
-7.456825e-02
-1.301453e-01
-1.908002e-01
-2.583462e-01
-3.346465e-01
-4.202315e-01
-5.152505e-01
-6.196094e-01
-7.330849e-01
-8.553768e-01
-9.861393e-01
-1.125000e+00
-1.271569e+00
-1.425453e+00
-1.586250e+00
-1.753565e+00
-1.927007e+00
-2.106200e+00
-2.290789e+00
-2.480453e+00
-2.674921e+00
-2.874000e+00
-3.077613e+00
-3.285863e+00
-3.499134e+00
-3.718274e+00
-3.944940e+00
-4.182293e+00
-4.436600e+00
-4.721380e+00
-5.068526e+00
-5.548115e+00
0.000000e+00
-4.634192e-02
-1.045164e-01
-1.655776e-01
-2.340616e-01
-3.111883e-01
-3.976029e-01
-4.934520e-01
-5.986496e-01
-7.129722e-01
-8.361180e-01
-9.677384e-01
-1.107457e+00
-1.254883e+00
-1.409616e+00
-1.571253e+00
-1.739392e+00
-1.913638e+00
-2.093606e+00
-2.278933e+00
-2.469286e+00
-2.664382e+00
-2.864008e+00
-3.068066e+00
-3.276631e+00
-3.490051e+00
-3.709132e+00
-3.935477e+00
-4.172183e+00
-4.425412e+00
-4.707994e+00
-5.047413e+00
-5.495470e+00
0.000000e+00
-3.404160e-02
-8.426292e-02
-1.444898e-01
-2.130909e-01
-2.907836e-01
-3.778785e-01
-4.744566e-01
-5.804021e-01
-6.954812e-01
-8.193866e-01
-9.517670e-01
-1.092245e+00
-1.240427e+00
-1.395912e+00
-1.558295e+00
-1.727172e+00
-1.902147e+00
-2.082831e+00
-2.268858e+00
-2.459893e+00
-2.655649e+00
-2.855915e+00
-3.060595e+00
-3.269771e+00
-3.483814e+00
-3.703563e+00
-3.930661e+00
-4.168171e+00
-4.421639e+00
-4.700545e+00
-5.016086e+00
-5.366109e+00
0.000000e+00
-2.726090e-02
-7.135621e-02
-1.283709e-01
-1.960890e-01
-2.737557e-01
-3.612215e-01
-4.583391e-01
-5.649001e-01
-6.806272e-01
-8.051938e-01
-9.382400e-01
-1.079385e+00
-1.228234e+00
-1.384387e+00
-1.547439e+00
-1.716990e+00
-1.892641e+00
-2.074009e+00
-2.260730e+00
-2.452473e+00
-2.648958e+00
-2.849985e+00
-3.055471e+00
-3.265522e+00
-3.480524e+00
-3.701309e+00
-3.929390e+00
-4.167275e+00
-4.418617e+00
-4.686918e+00
-4.969889e+00
-5.233302e+00
0.000000e+00
-2.306951e-02
-6.291650e-02
-1.169253e-01
-1.830989e-01
-2.602552e-01
-3.477525e-01
-4.451844e-01
-5.521996e-01
-6.684485e-01
-7.935680e-01
-9.271814e-01
-1.068901e+00
-1.218331e+00
-1.375073e+00
-1.538725e+00
-1.708890e+00
-1.885175e+00
-2.067200e+00
-2.254609e+00
-2.447078e+00
-2.644335e+00
-2.846189e+00
-3.052563e+00
-3.263553e+00
-3.479500e+00
-3.701080e+00
-3.929385e+00
-4.165856e+00
-4.411652e+00
-4.665600e+00
-4.918375e+00
-5.147776e+00
0.000000e+00
-2.040258e-02
-5.737930e-02
-1.090495e-01
-1.737330e-01
-2.501658e-01
-3.374719e-01
-4.350275e-01
-5.423415e-01
-6.589813e-01
-7.845389e-01
-9.186150e-01
-1.060813e+00
-1.210735e+00
-1.367984e+00
-1.532163e+00
-1.702879e+00
-1.879745e+00
-2.062389e+00
-2.250459e+00
-2.443635e+00
-2.641648e+00
-2.844299e+00
-3.051492e+00
-3.263261e+00
-3.479813e+00
-3.701527e+00
-3.928883e+00
-4.162145e+00
-4.400526e+00
-4.640392e+00
-4.873170e+00
-5.085923e+00
0.000000e+00
-1.874506e-02
-5.387848e-02
-1.039302e-01
-1.674589e-01
-2.432326e-01
-3.302788e-01
-4.278459e-01
-5.353363e-01
-6.522466e-01
-7.781271e-01
-9.125569e-01
-1.055130e+00
-1.205447e+00
-1.363113e+00
-1.527736e+00
-1.698928e+00
-1.876307e+00
-2.059506e+00
-2.248174e+00
-2.441990e+00
-2.640672e+00
-2.843997e+00
-3.051811e+00
-3.264042e+00
-3.480694e+00
-3.701787e+00
-3.927193e+00
-4.156262e+00
-4.387130e+00
-4.615801e+00
-4.835678e+00
-5.038682e+00
0.000000e+00
-1.783420e-02
-5.193595e-02
-1.010454e-01
-1.638613e-01
-2.391942e-01
-3.260403e-01
-4.235856e-01
-5.311713e-01
-6.482490e-01
-7.743409e-01
-9.090119e-01
-1.051850e+00
-1.202456e+00
-1.360438e+00
-1.525409e+00
-1.696983e+00
-1.874785e+00
-2.058446e+00
-2.247613e+00
-2.441954e+00
-2.641161e+00
-2.844966e+00
-3.053131e+00
-3.265449e+00
-3.481701e+00
-3.701569e+00
-3.924452e+00
-4.149162e+00
-4.373486e+00
-4.593822e+00
-4.805208e+00
-5.002128e+00
0.000000e+00
-1.754072e-02
-5.130925e-02
-1.001104e-01
-1.626888e-01
-2.378725e-01
-3.246519e-01
-4.221956e-01
-5.298265e-01
-6.469824e-01
-7.731776e-01
-9.079739e-01
-1.050960e+00
-1.201739e+00
-1.359924e+00
-1.525129e+00
-1.696975e+00
-1.875085e+00
-2.059090e+00
-2.248625e+00
-2.443339e+00
-2.642890e+00
-2.846946e+00
-3.055179e+00
-3.267237e+00
-3.482697e+00
-3.700973e+00
-3.921168e+00
-4.141856e+00
-4.360864e+00
-4.575142e+00
-4.780905e+00
-4.974113e+00
0.000000e+00
-1.782570e-02
-5.192417e-02
-1.010352e-01
-1.638582e-01
-2.392050e-01
-3.260739e-01
-4.236537e-01
-5.312896e-01
-6.484380e-01
-7.746271e-01
-9.094282e-01
-1.052438e+00
-1.203265e+00
-1.361525e+00
-1.526839e+00
-1.698827e+00
-1.877113e+00
-2.061318e+00
-2.251068e+00
-2.445982e+00
-2.645679e+00
-2.849761e+00
-3.057804e+00
-3.269328e+00
-3.483744e+00
-3.700284e+00
-3.917892e+00
-4.135103e+00
-4.349939e+00
-4.559884e+00
-4.762011e+00
-4.953233e+00
0.000000e+00
-1.872875e-02
-5.385585e-02
-1.039106e-01
-1.674528e-01
-2.432529e-01
-3.303425e-01
-4.279758e-01
-5.355624e-01
-6.526082e-01
-7.786748e-01
-9.133544e-01
-1.056256e+00
-1.206997e+00
-1.365198e+00
-1.530481e+00
-1.702469e+00
-1.880780e+00
-2.065029e+00
-2.254823e+00
-2.449757e+00
-2.649403e+00
-2.853304e+00
-3.060950e+00
-3.271752e+00
-3.485001e+00
-3.699816e+00
-3.915083e+00
-4.129394e+00
-4.341017e+00
-4.547918e+00
-4.747839e+00
-4.938412e+00
0.000000e+00
-2.037991e-02
-5.734784e-02
-1.090221e-01
-1.737242e-01
-2.501936e-01
-3.375600e-01
-4.352079e-01
-5.426562e-01
-6.594854e-01
-7.853032e-01
-9.197290e-01
-1.062387e+00
-1.212902e+00
-1.370901e+00
-1.536006e+00
-1.707840e+00
-1.886016e+00
-2.070141e+00
-2.259804e+00
-2.454575e+00
-2.653987e+00
-2.857528e+00
-3.064620e+00
-3.274589e+00
-3.486646e+00
-3.699847e+00
-3.913071e+00
-4.125011e+00
-4.334185e+00
-4.538984e+00
-4.737730e+00
-4.928695e+00
0.000000e+00
-2.304280e-02
-6.287946e-02
-1.168931e-01
-1.830887e-01
-2.602888e-01
-3.478588e-01
-4.454020e-01
-5.525795e-01
-6.690574e-01
-7.944917e-01
-9.285281e-01
-1.070804e+00
-1.220953e+00
-1.378603e+00
-1.543378e+00
-1.714897e+00
-1.892772e+00
-2.076599e+00
-2.265953e+00
-2.460383e+00
-2.659390e+00
-2.862419e+00
-3.068840e+00
-3.277923e+00
-3.488824e+00
-3.700568e+00
-3.912056e+00
-4.122081e+00
-4.329389e+00
-4.532748e+00
-4.731018e+00
-4.923135e+00
0.000000e+00
-2.723344e-02
-7.131818e-02
-1.283381e-01
-1.960802e-01
-2.737952e-01
-3.613413e-01
-4.585820e-01
-5.653226e-01
-6.813031e-01
-8.062177e-01
-9.397314e-01
-1.081491e+00
-1.231133e+00
-1.388288e+00
-1.552579e+00
-1.723623e+00
-1.901027e+00
-2.084380e+00
-2.273248e+00
-2.467162e+00
-2.665601e+00
-2.867983e+00
-3.073641e+00
-3.281810e+00
-3.491617e+00
-3.702076e+00
-3.912111e+00
-4.120604e+00
-4.326481e+00
-4.528828e+00
-4.727010e+00
-4.920711e+00
0.000000e+00
-3.401766e-02
-8.422961e-02
-1.444621e-01
-2.130883e-01
-2.908316e-01
-3.780108e-01
-4.747178e-01
-5.808511e-01
-6.961942e-01
-8.204615e-01
-9.533271e-01
-1.094442e+00
-1.243443e+00
-1.399960e+00
-1.563616e+00
-1.734026e+00
-1.910791e+00
-2.093497e+00
-2.281702e+00
-2.474926e+00
-2.672637e+00
-2.874236e+00
-3.079038e+00
-3.286263e+00
-3.495026e+00
-3.704344e+00
-3.913167e+00
-4.120438e+00
-4.325208e+00
-4.526795e+00
-4.724996e+00
-4.920288e+00
0.000000e+00
-4.632653e-02
-1.044937e-01
-1.655613e-01
-2.340717e-01
-3.112508e-01
-3.977520e-01
-4.937324e-01
-5.991198e-01
-7.137081e-01
-8.372160e-01
-9.693192e-01
-1.109669e+00
-1.257902e+00
-1.413647e+00
-1.576525e+00
-1.746147e+00
-1.922112e+00
-2.104003e+00
-2.291372e+00
-2.483732e+00
-2.680548e+00
-2.881213e+00
-3.085041e+00
-3.291250e+00
-3.498962e+00
-3.707211e+00
-3.914974e+00
-4.121245e+00
-4.325148e+00
-4.526133e+00
-4.724268e+00
-4.920648e+00
0.000000e+00
-7.456603e-02
-1.301378e-01
-1.908016e-01
-2.583766e-01
-3.347322e-01
-4.204067e-01
-5.155594e-01
-6.201094e-01
-7.338497e-01
-8.564992e-01
-9.877344e-01
-1.127207e+00
-1.274553e+00
-1.429400e+00
-1.591366e+00
-1.760061e+00
-1.935079e+00
-2.115998e+00
-2.302365e+00
-2.493691e+00
-2.689435e+00
-2.888991e+00