TITLE = "Solution"
VARIABLES = x, y, u, v, psiu, psiv, t, stress
ZONE T="structure" N=561 E=512 F=FEBLOCK ET=QUADRILATERAL VARLOCATION=([7,8]=cellcentered)
0.000000e+00
6.250000e+00
1.250000e+01
1.875000e+01
2.500000e+01
3.125000e+01
3.750000e+01
4.375000e+01
5.000000e+01
5.625000e+01
6.250000e+01
6.875000e+01
7.500000e+01
8.125000e+01
8.750000e+01
9.375000e+01
1.000000e+02
1.062500e+02
1.125000e+02
1.187500e+02
1.250000e+02
1.312500e+02
1.375000e+02
1.437500e+02
1.500000e+02
1.562500e+02
1.625000e+02
1.687500e+02
1.750000e+02
1.812500e+02
1.875000e+02
1.937500e+02
2.000000e+02
0.000000e+00
6.250000e+00
1.250000e+01
1.875000e+01
2.500000e+01
3.125000e+01
3.750000e+01
4.375000e+01
5.000000e+01
5.625000e+01
6.250000e+01
6.875000e+01
7.500000e+01
8.125000e+01
8.750000e+01
9.375000e+01
1.000000e+02
1.062500e+02
1.125000e+02
1.187500e+02
1.250000e+02
1.312500e+02
1.375000e+02
1.437500e+02
1.500000e+02
1.562500e+02
1.625000e+02
1.687500e+02
1.750000e+02
1.812500e+02
1.875000e+02
1.937500e+02
2.000000e+02
0.000000e+00
6.250000e+00
1.250000e+01
1.875000e+01
2.500000e+01
3.125000e+01
3.750000e+01
4.375000e+01
5.000000e+01
5.625000e+01
6.250000e+01
6.875000e+01
7.500000e+01
8.125000e+01
8.750000e+01
9.375000e+01
1.000000e+02
1.062500e+02
1.125000e+02
1.187500e+02
1.250000e+02
1.312500e+02
1.375000e+02
1.437500e+02
1.500000e+02
1.562500e+02
1.625000e+02
1.687500e+02
1.750000e+02
1.812500e+02
1.875000e+02
1.937500e+02
2.000000e+02
0.000000e+00
6.250000e+00
1.250000e+01
1.875000e+01
2.500000e+01
3.125000e+01
3.750000e+01
4.375000e+01
5.000000e+01
5.625000e+01
6.250000e+01
6.875000e+01
7.500000e+01
8.125000e+01
8.750000e+01
9.375000e+01
1.000000e+02
1.062500e+02
1.125000e+02
1.187500e+02
1.250000e+02
1.312500e+02
1.375000e+02
1.437500e+02
1.500000e+02
1.562500e+02
1.625000e+02
1.687500e+02
1.750000e+02
1.812500e+02
1.875000e+02
1.937500e+02
2.000000e+02
0.000000e+00
6.250000e+00
1.250000e+01
1.875000e+01
2.500000e+01
3.125000e+01
3.750000e+01
4.375000e+01
5.000000e+01
5.625000e+01
6.250000e+01
6.875000e+01
7.500000e+01
8.125000e+01
8.750000e+01
9.375000e+01
1.000000e+02
1.062500e+02
1.125000e+02
1.187500e+02
1.250000e+02
1.312500e+02
1.375000e+02
1.437500e+02
1.500000e+02
1.562500e+02
1.625000e+02
1.687500e+02
1.750000e+02
1.812500e+02
1.875000e+02
1.937500e+02
2.000000e+02
0.000000e+00
6.250000e+00
1.250000e+01
1.875000e+01
2.500000e+01
3.125000e+01
3.750000e+01
4.375000e+01
5.000000e+01
5.625000e+01
6.250000e+01
6.875000e+01
7.500000e+01
8.125000e+01
8.750000e+01
9.375000e+01
1.000000e+02
1.062500e+02
1.125000e+02
1.187500e+02
1.250000e+02
1.312500e+02
1.375000e+02
1.437500e+02
1.500000e+02
1.562500e+02
1.625000e+02
1.687500e+02
1.750000e+02
1.812500e+02
1.875000e+02
1.937500e+02
2.000000e+02
0.000000e+00
6.250000e+00
1.250000e+01
1.875000e+01
2.500000e+01
3.125000e+01
3.750000e+01
4.375000e+01
5.000000e+01
5.625000e+01
6.250000e+01
6.875000e+01
7.500000e+01
8.125000e+01
8.750000e+01
9.375000e+01
1.000000e+02
1.062500e+02
1.125000e+02
1.187500e+02
1.250000e+02
1.312500e+02
1.375000e+02
1.437500e+02
1.500000e+02
1.562500e+02
1.625000e+02
1.687500e+02
1.750000e+02
1.812500e+02
1.875000e+02
1.937500e+02
2.000000e+02
0.000000e+00
6.250000e+00
1.250000e+01
1.875000e+01
2.500000e+01
3.125000e+01
3.750000e+01
4.375000e+01
5.000000e+01
5.625000e+01
6.250000e+01
6.875000e+01
7.500000e+01
8.125000e+01
8.750000e+01
9.375000e+01
1.000000e+02
1.062500e+02
1.125000e+02
1.187500e+02
1.250000e+02
1.312500e+02
1.375000e+02
1.437500e+02
1.500000e+02
1.562500e+02
1.625000e+02
1.687500e+02
1.750000e+02
1.812500e+02
1.875000e+02
1.937500e+02
2.000000e+02
0.000000e+00
6.250000e+00
1.250000e+01
1.875000e+01
2.500000e+01
3.125000e+01
3.750000e+01
4.375000e+01
5.000000e+01
5.625000e+01
6.250000e+01
6.875000e+01
7.500000e+01
8.125000e+01
8.750000e+01
9.375000e+01
1.000000e+02
1.062500e+02
1.125000e+02
1.187500e+02
1.250000e+02
1.312500e+02
1.375000e+02
1.437500e+02
1.500000e+02
1.562500e+02
1.625000e+02
1.687500e+02
1.750000e+02
1.812500e+02
1.875000e+02
1.937500e+02
2.000000e+02
0.000000e+00
6.250000e+00
1.250000e+01
1.875000e+01
2.500000e+01
3.125000e+01
3.750000e+01
4.375000e+01
5.000000e+01
5.625000e+01
6.250000e+01
6.875000e+01
7.500000e+01
8.125000e+01
8.750000e+01
9.375000e+01
1.000000e+02
1.062500e+02
1.125000e+02
1.187500e+02
1.250000e+02
1.312500e+02
1.375000e+02
1.437500e+02
1.500000e+02
1.562500e+02
1.625000e+02
1.687500e+02
1.750000e+02
1.812500e+02
1.875000e+02
1.937500e+02
2.000000e+02
0.000000e+00
6.250000e+00
1.250000e+01
1.875000e+01
2.500000e+01
3.125000e+01
3.750000e+01
4.375000e+01
5.000000e+01
5.625000e+01
6.250000e+01
6.875000e+01
7.500000e+01
8.125000e+01
8.750000e+01
9.375000e+01
1.000000e+02
1.062500e+02
1.125000e+02
1.187500e+02
1.250000e+02
1.312500e+02
1.375000e+02
1.437500e+02
1.500000e+02
1.562500e+02
1.625000e+02
1.687500e+02
1.750000e+02
1.812500e+02
1.875000e+02
1.937500e+02
2.000000e+02
0.000000e+00
6.250000e+00
1.250000e+01
1.875000e+01
2.500000e+01
3.125000e+01
3.750000e+01
4.375000e+01
5.000000e+01
5.625000e+01
6.250000e+01
6.875000e+01
7.500000e+01
8.125000e+01
8.750000e+01
9.375000e+01
1.000000e+02
1.062500e+02
1.125000e+02
1.187500e+02
1.250000e+02
1.312500e+02
1.375000e+02
1.437500e+02
1.500000e+02
1.562500e+02
1.625000e+02
1.687500e+02
1.750000e+02
1.812500e+02
1.875000e+02
1.937500e+02
2.000000e+02
0.000000e+00
6.250000e+00
1.250000e+01
1.875000e+01
2.500000e+01
3.125000e+01
3.750000e+01
4.375000e+01
5.000000e+01
5.625000e+01
6.250000e+01
6.875000e+01
7.500000e+01
8.125000e+01
8.750000e+01
9.375000e+01
1.000000e+02
1.062500e+02
1.125000e+02
1.187500e+02
1.250000e+02
1.312500e+02
1.375000e+02
1.437500e+02
1.500000e+02
1.562500e+02
1.625000e+02
1.687500e+02
1.750000e+02
1.812500e+02
1.875000e+02
1.937500e+02
2.000000e+02
0.000000e+00
6.250000e+00
1.250000e+01
1.875000e+01
2.500000e+01
3.125000e+01
3.750000e+01
4.375000e+01
5.000000e+01
5.625000e+01
6.250000e+01
6.875000e+01
7.500000e+01
8.125000e+01
8.750000e+01
9.375000e+01
1.000000e+02
1.062500e+02
1.125000e+02
1.187500e+02
1.250000e+02
1.312500e+02
1.375000e+02
1.437500e+02
1.500000e+02
1.562500e+02
1.625000e+02
1.687500e+02
1.750000e+02
1.812500e+02
1.875000e+02
1.937500e+02
2.000000e+02
0.000000e+00
6.250000e+00
1.250000e+01
1.875000e+01
2.500000e+01
3.125000e+01
3.750000e+01
4.375000e+01
5.000000e+01
5.625000e+01
6.250000e+01
6.875000e+01
7.500000e+01
8.125000e+01
8.750000e+01
9.375000e+01
1.000000e+02
1.062500e+02
1.125000e+02
1.187500e+02
1.250000e+02
1.312500e+02
1.375000e+02
1.437500e+02
1.500000e+02
1.562500e+02
1.625000e+02
1.687500e+02
1.750000e+02
1.812500e+02
1.875000e+02
1.937500e+02
2.000000e+02
0.000000e+00
6.250000e+00
1.250000e+01
1.875000e+01
2.500000e+01
3.125000e+01
3.750000e+01
4.375000e+01
5.000000e+01
5.625000e+01
6.250000e+01
6.875000e+01
7.500000e+01
8.125000e+01
8.750000e+01
9.375000e+01
1.000000e+02
1.062500e+02
1.125000e+02
1.187500e+02
1.250000e+02
1.312500e+02
1.375000e+02
1.437500e+02
1.500000e+02
1.562500e+02
1.625000e+02
1.687500e+02
1.750000e+02
1.812500e+02
1.875000e+02
1.937500e+02
2.000000e+02
0.000000e+00
6.250000e+00
1.250000e+01
1.875000e+01
2.500000e+01
3.125000e+01
3.750000e+01
4.375000e+01
5.000000e+01
5.625000e+01
6.250000e+01
6.875000e+01
7.500000e+01
8.125000e+01
8.750000e+01
9.375000e+01
1.000000e+02
1.062500e+02
1.125000e+02
1.187500e+02
1.250000e+02
1.312500e+02
1.375000e+02
1.437500e+02
1.500000e+02
1.562500e+02
1.625000e+02
1.687500e+02
1.750000e+02
1.812500e+02
1.875000e+02
1.937500e+02
2.000000e+02
0.000000e+00
0.000000e+00
0.000000e+00
0.000000e+00
0.000000e+00
0.000000e+00
0.000000e+00
0.000000e+00
0.000000e+00
0.000000e+00
0.000000e+00
0.000000e+00
0.000000e+00
0.000000e+00
0.000000e+00
0.000000e+00
0.000000e+00
0.000000e+00
0.000000e+00
0.000000e+00
0.000000e+00
0.000000e+00
0.000000e+00
0.000000e+00
0.000000e+00
0.000000e+00
0.000000e+00
0.000000e+00
0.000000e+00
0.000000e+00
0.000000e+00
0.000000e+00
0.000000e+00
6.250000e+00
6.250000e+00
6.250000e+00
6.250000e+00
6.250000e+00
6.250000e+00
6.250000e+00
6.250000e+00
6.250000e+00
6.250000e+00
6.250000e+00
6.250000e+00
6.250000e+00
6.250000e+00
6.250000e+00
6.250000e+00
6.250000e+00
6.250000e+00
6.250000e+00
6.250000e+00
6.250000e+00
6.250000e+00
6.250000e+00
6.250000e+00
6.250000e+00
6.250000e+00
6.250000e+00
6.250000e+00
6.250000e+00
6.250000e+00
6.250000e+00
6.250000e+00
6.250000e+00
1.250000e+01
1.250000e+01
1.250000e+01
1.250000e+01
1.250000e+01
1.250000e+01
1.250000e+01
1.250000e+01
1.250000e+01
1.250000e+01
1.250000e+01
1.250000e+01
1.250000e+01
1.250000e+01
1.250000e+01
1.250000e+01
1.250000e+01
1.250000e+01
1.250000e+01
1.250000e+01
1.250000e+01
1.250000e+01
1.250000e+01
1.250000e+01
1.250000e+01
1.250000e+01
1.250000e+01
1.250000e+01
1.250000e+01
1.250000e+01
1.250000e+01
1.250000e+01
1.250000e+01
1.875000e+01
1.875000e+01
1.875000e+01
1.875000e+01
1.875000e+01
1.875000e+01
1.875000e+01
1.875000e+01
1.875000e+01
1.875000e+01
1.875000e+01
1.875000e+01
1.875000e+01
1.875000e+01
1.875000e+01
1.875000e+01
1.875000e+01
1.875000e+01
1.875000e+01
1.875000e+01
1.875000e+01
1.875000e+01
1.875000e+01
1.875000e+01
1.875000e+01
1.875000e+01
1.875000e+01
1.875000e+01
1.875000e+01
1.875000e+01
1.875000e+01
1.875000e+01
1.875000e+01
2.500000e+01
2.500000e+01
2.500000e+01
2.500000e+01
2.500000e+01
2.500000e+01
2.500000e+01
2.500000e+01
2.500000e+01
2.500000e+01
2.500000e+01
2.500000e+01
2.500000e+01
2.500000e+01
2.500000e+01
2.500000e+01
2.500000e+01
2.500000e+01
2.500000e+01
2.500000e+01
2.500000e+01
2.500000e+01
2.500000e+01
2.500000e+01
2.500000e+01
2.500000e+01
2.500000e+01
2.500000e+01
2.500000e+01
2.500000e+01
2.500000e+01
2.500000e+01
2.500000e+01
3.125000e+01
3.125000e+01
3.125000e+01
3.125000e+01
3.125000e+01
3.125000e+01
3.125000e+01
3.125000e+01
3.125000e+01
3.125000e+01
3.125000e+01
3.125000e+01
3.125000e+01
3.125000e+01
3.125000e+01
3.125000e+01
3.125000e+01
3.125000e+01
3.125000e+01
3.125000e+01
3.125000e+01
3.125000e+01
3.125000e+01
3.125000e+01
3.125000e+01
3.125000e+01
3.125000e+01
3.125000e+01
3.125000e+01
3.125000e+01
3.125000e+01
3.125000e+01
3.125000e+01
3.750000e+01
3.750000e+01
3.750000e+01
3.750000e+01
3.750000e+01
3.750000e+01
3.750000e+01
3.750000e+01
3.750000e+01
3.750000e+01
3.750000e+01
3.750000e+01
3.750000e+01
3.750000e+01
3.750000e+01
3.750000e+01
3.750000e+01
3.750000e+01
3.750000e+01
3.750000e+01
3.750000e+01
3.750000e+01
3.750000e+01
3.750000e+01
3.750000e+01
3.750000e+01
3.750000e+01
3.750000e+01
3.750000e+01
3.750000e+01
3.750000e+01
3.750000e+01
3.750000e+01
4.375000e+01
4.375000e+01
4.375000e+01
4.375000e+01
4.375000e+01
4.375000e+01
4.375000e+01
4.375000e+01
4.375000e+01
4.375000e+01
4.375000e+01
4.375000e+01
4.375000e+01
4.375000e+01
4.375000e+01
4.375000e+01
4.375000e+01
4.375000e+01
4.375000e+01
4.375000e+01
4.375000e+01
4.375000e+01
4.375000e+01
4.375000e+01
4.375000e+01
4.375000e+01
4.375000e+01
4.375000e+01
4.375000e+01
4.375000e+01
4.375000e+01
4.375000e+01
4.375000e+01
5.000000e+01
5.000000e+01
5.000000e+01
5.000000e+01
5.000000e+01
5.000000e+01
5.000000e+01
5.000000e+01
5.000000e+01
5.000000e+01
5.000000e+01
5.000000e+01
5.000000e+01
5.000000e+01
5.000000e+01
5.000000e+01
5.000000e+01
5.000000e+01
5.000000e+01
5.000000e+01
5.000000e+01
5.000000e+01
5.000000e+01
5.000000e+01
5.000000e+01
5.000000e+01
5.000000e+01
5.000000e+01
5.000000e+01
5.000000e+01
5.000000e+01
5.000000e+01
5.000000e+01
5.625000e+01
5.625000e+01
5.625000e+01
5.625000e+01
5.625000e+01
5.625000e+01
5.625000e+01
5.625000e+01
5.625000e+01
5.625000e+01
5.625000e+01
5.625000e+01
5.625000e+01
5.625000e+01
5.625000e+01
5.625000e+01
5.625000e+01
5.625000e+01
5.625000e+01
5.625000e+01
5.625000e+01
5.625000e+01
5.625000e+01
5.625000e+01
5.625000e+01
5.625000e+01
5.625000e+01
5.625000e+01
5.625000e+01
5.625000e+01
5.625000e+01
5.625000e+01
5.625000e+01
6.250000e+01
6.250000e+01
6.250000e+01
6.250000e+01
6.250000e+01
6.250000e+01
6.250000e+01
6.250000e+01
6.250000e+01
6.250000e+01
6.250000e+01
6.250000e+01
6.250000e+01
6.250000e+01
6.250000e+01
6.250000e+01
6.250000e+01
6.250000e+01
6.250000e+01
6.250000e+01
6.250000e+01
6.250000e+01
6.250000e+01
6.250000e+01
6.250000e+01
6.250000e+01
6.250000e+01
6.250000e+01
6.250000e+01
6.250000e+01
6.250000e+01
6.250000e+01
6.250000e+01
6.875000e+01
6.875000e+01
6.875000e+01
6.875000e+01
6.875000e+01
6.875000e+01
6.875000e+01
6.875000e+01
6.875000e+01
6.875000e+01
6.875000e+01
6.875000e+01
6.875000e+01
6.875000e+01
6.875000e+01
6.875000e+01
6.875000e+01
6.875000e+01
6.875000e+01
6.875000e+01
6.875000e+01
6.875000e+01
6.875000e+01
6.875000e+01
6.875000e+01
6.875000e+01
6.875000e+01
6.875000e+01
6.875000e+01
6.875000e+01
6.875000e+01
6.875000e+01
6.875000e+01
7.500000e+01
7.500000e+01
7.500000e+01
7.500000e+01
7.500000e+01
7.500000e+01
7.500000e+01
7.500000e+01
7.500000e+01
7.500000e+01
7.500000e+01
7.500000e+01
7.500000e+01
7.500000e+01
7.500000e+01
7.500000e+01
7.500000e+01
7.500000e+01
7.500000e+01
7.500000e+01
7.500000e+01
7.500000e+01
7.500000e+01
7.500000e+01
7.500000e+01
7.500000e+01
7.500000e+01
7.500000e+01
7.500000e+01
7.500000e+01
7.500000e+01
7.500000e+01
7.500000e+01
8.125000e+01
8.125000e+01
8.125000e+01
8.125000e+01
8.125000e+01
8.125000e+01
8.125000e+01
8.125000e+01
8.125000e+01
8.125000e+01
8.125000e+01
8.125000e+01
8.125000e+01
8.125000e+01
8.125000e+01
8.125000e+01
8.125000e+01
8.125000e+01
8.125000e+01
8.125000e+01
8.125000e+01
8.125000e+01
8.125000e+01
8.125000e+01
8.125000e+01
8.125000e+01
8.125000e+01
8.125000e+01
8.125000e+01
8.125000e+01
8.125000e+01
8.125000e+01
8.125000e+01
8.750000e+01
8.750000e+01
8.750000e+01
8.750000e+01
8.750000e+01
8.750000e+01
8.750000e+01
8.750000e+01
8.750000e+01
8.750000e+01
8.750000e+01
8.750000e+01
8.750000e+01
8.750000e+01
8.750000e+01
8.750000e+01
8.750000e+01
8.750000e+01
8.750000e+01
8.750000e+01
8.750000e+01
8.750000e+01
8.750000e+01
8.750000e+01
8.750000e+01
8.750000e+01
8.750000e+01
8.750000e+01
8.750000e+01
8.750000e+01
8.750000e+01
8.750000e+01
8.750000e+01
9.375000e+01
9.375000e+01
9.375000e+01
9.375000e+01
9.375000e+01
9.375000e+01
9.375000e+01
9.375000e+01
9.375000e+01
9.375000e+01
9.375000e+01
9.375000e+01
9.375000e+01
9.375000e+01
9.375000e+01
9.375000e+01
9.375000e+01
9.375000e+01
9.375000e+01
9.375000e+01
9.375000e+01
9.375000e+01
9.375000e+01
9.375000e+01
9.375000e+01
9.375000e+01
9.375000e+01
9.375000e+01
9.375000e+01
9.375000e+01
9.375000e+01
9.375000e+01
9.375000e+01
1.000000e+02
1.000000e+02
1.000000e+02
1.000000e+02
1.000000e+02
1.000000e+02
1.000000e+02
1.000000e+02
1.000000e+02
1.000000e+02
1.000000e+02
1.000000e+02
1.000000e+02
1.000000e+02
1.000000e+02
1.000000e+02
1.000000e+02
1.000000e+02
1.000000e+02
1.000000e+02
1.000000e+02
1.000000e+02
1.000000e+02
1.000000e+02
1.000000e+02
1.000000e+02
1.000000e+02
1.000000e+02
1.000000e+02
1.000000e+02
1.000000e+02
1.000000e+02
1.000000e+02
0.000000e+00
-5.451318e-02
-9.890690e-02
-1.400314e-01
-1.794994e-01
-2.176118e-01
-2.544451e-01
-2.899960e-01
-3.242422e-01
-3.571586e-01
-3.887247e-01
-4.189263e-01
-4.477559e-01
-4.752130e-01
-5.013040e-01
-5.260427e-01
-5.494511e-01
-5.715615e-01
-5.924184e-01
-6.120817e-01
-6.306314e-01
-6.481732e-01
-6.648469e-01
-6.808379e-01
-6.963945e-01
-7.118543e-01
-7.276861e-01
-7.445585e-01
-7.634523e-01
-7.858107e-01
-8.135062e-01
-8.465115e-01
-8.666542e-01
0.000000e+00
-3.654960e-02
-7.604537e-02
-1.132847e-01
-1.486793e-01
-1.825661e-01
-2.151242e-01
-2.464320e-01
-2.765207e-01
-3.054003e-01
-3.330729e-01
-3.595383e-01
-3.847980e-01
-4.088559e-01
-4.317201e-01
-4.534032e-01
-4.739237e-01
-4.933070e-01
-5.115867e-01
-5.288063e-01
-5.450215e-01
-5.603025e-01
-5.747363e-01
-5.884293e-01
-6.015089e-01
-6.141215e-01
-6.264217e-01
-6.385366e-01
-6.504654e-01
-6.618200e-01
-6.712815e-01
-6.768131e-01
-6.845140e-01
0.000000e+00
-2.899122e-02
-5.968541e-02
-9.093698e-02
-1.213039e-01
-1.505517e-01
-1.786618e-01
-2.056608e-01
-2.315725e-01
-2.564134e-01
-2.801938e-01
-3.029213e-01
-3.246022e-01
-3.452427e-01
-3.648507e-01
-3.834355e-01
-4.010093e-01
-4.175872e-01
-4.331879e-01
-4.478336e-01
-4.615499e-01
-4.743645e-01
-4.863048e-01
-4.973919e-01
-5.076303e-01
-5.169870e-01
-5.253551e-01
-5.324882e-01
-5.379040e-01
-5.408202e-01
-5.405645e-01
-5.389270e-01
-5.479196e-01
0.000000e+00
-2.300197e-02
-4.727428e-02
-7.221107e-02
-9.708945e-02
-1.213652e-01
-1.448305e-01
-1.674108e-01
-1.890858e-01
-2.098547e-01
-2.297228e-01
-2.486968e-01
-2.667830e-01
-2.839872e-01
-3.003144e-01
-3.157693e-01
-3.303560e-01
-3.440783e-01
-3.569391e-01
-3.689390e-01
-3.800750e-01
-3.903369e-01
-3.997020e-01
-4.081266e-01
-4.155329e-01
-4.217903e-01
-4.266916e-01
-4.299373e-01
-4.311766e-01
-4.302566e-01
-4.280222e-01
-4.278888e-01
-4.364566e-01
0.000000e+00
-1.785274e-02
-3.655633e-02
-5.585740e-02
-7.531529e-02
-9.453454e-02
-1.132500e-01
-1.313273e-01
-1.487056e-01
-1.653612e-01
-1.812880e-01
-1.964870e-01
-2.109609e-01
-2.247122e-01
-2.377417e-01
-2.500483e-01
-2.616283e-01
-2.724745e-01
-2.825758e-01
-2.919152e-01
-3.004677e-01
-3.081968e-01
-3.150494e-01
-3.209504e-01
-3.257955e-01
-3.294476e-01
-3.317458e-01
-3.325519e-01
-3.318905e-01
-3.302723e-01
-3.292224e-01
-3.316469e-01
-3.389555e-01
0.000000e+00
-1.312073e-02
-2.680360e-02
-4.092606e-02
-5.524411e-02
-6.949046e-02
-8.345293e-02
-9.699361e-02
-1.100368e-01
-1.225457e-01
-1.345047e-01
-1.459084e-01
-1.567548e-01
-1.670421e-01
-1.767662e-01
-1.859204e-01
-1.944936e-01
-2.024703e-01
-2.098289e-01
-2.165405e-01
-2.225674e-01
-2.278607e-01
-2.323586e-01
-2.359856e-01
-2.386556e-01
-2.402848e-01
-2.408253e-01
-2.403402e-01
-2.391447e-01
-2.380073e-01
-2.382842e-01
-2.413750e-01
-2.474224e-01
0.000000e+00
-8.635018e-03
-1.761159e-02
-2.687293e-02
-3.628697e-02
-4.569525e-02
-5.495588e-02
-6.396545e-02
-7.265923e-02
-8.100150e-02
-8.897422e-02
-9.656831e-02
-1.037780e-01
-1.105972e-01
-1.170177e-01
-1.230278e-01
-1.286113e-01
-1.337467e-01
-1.384064e-01
-1.425562e-01
-1.461543e-01
-1.491519e-01
-1.514946e-01
-1.531272e-01
-1.540043e-01
-1.541131e-01
-1.535134e-01
-1.524036e-01
-1.512061e-01
-1.506255e-01
-1.515313e-01
-1.545404e-01
-1.594220e-01
0.000000e+00
-4.289011e-03
-8.740172e-03
-1.333061e-02
-1.800234e-02
-2.268157e-02
-2.729822e-02
-3.179743e-02
-3.614216e-02
-4.030977e-02
-4.428686e-02
-4.806454e-02
-5.163508e-02
-5.498964e-02
-5.811678e-02
-6.100147e-02
-6.362438e-02
-6.596128e-02
-6.798281e-02
-6.965451e-02
-7.093778e-02
-7.179195e-02
-7.217889e-02
-7.207127e-02
-7.146697e-02
-7.041210e-02
-6.903433e-02
-6.758262e-02
-6.645566e-02
-6.617335e-02
-6.723597e-02
-6.986104e-02
-7.373447e-02
0.000000e+00
-6.920024e-06
-1.500457e-05
-2.380577e-05
-3.286069e-05
-4.154511e-05
-4.891835e-05
-5.355086e-05
-5.332293e-05
-4.518223e-05
-2.485119e-05
1.352102e-05
7.776135e-05
1.781217e-04
3.277524e-04
5.431586e-04
8.445701e-04
1.256109e-03
1.805575e-03
2.523572e-03
3.441564e-03
4.588272e-03
5.983587e-03
7.629022e-03
9.493753e-03
1.149610e-02
1.348275e-02
1.521359e-02
1.636900e-02
1.660331e-02
1.565987e-02
1.352327e-02
1.053086e-02
0.000000e+00
4.275977e-03
8.711854e-03
1.328559e-02
1.794005e-02
2.260259e-02
2.720488e-02
3.169471e-02
3.603901e-02
4.022084e-02
4.423481e-02
4.808302e-02
5.177247e-02
5.531359e-02
5.871979e-02
6.200723e-02
6.519490e-02
6.830445e-02
7.135959e-02
7.438473e-02
7.740247e-02
8.042945e-02
8.346995e-02
8.650712e-02
8.949157e-02
9.232913e-02
9.487127e-02
9.691591e-02
9.822965e-02
9.860159e-02
9.792798e-02
9.630492e-02
9.408396e-02
0.000000e+00
8.624370e-03
1.758829e-02
2.683563e-02
3.623496e-02
4.562869e-02
5.487631e-02
6.387648e-02
7.256764e-02
8.091865e-02
8.891794e-02
9.656533e-02
1.038670e-01
1.108328e-01
1.174749e-01
1.238076e-01
1.298466e-01
1.356091e-01
1.411131e-01
1.463756e-01
1.514103e-01
1.562235e-01
1.608087e-01
1.651393e-01
1.691611e-01
1.727848e-01
1.758844e-01
1.783052e-01
1.798897e-01
1.805232e-01
1.801975e-01
1.790744e-01
1.775243e-01
0.000000e+00
1.311394e-02
2.678847e-02
4.090142e-02
5.520912e-02
6.944478e-02
8.339705e-02
9.692929e-02
1.099678e-01
1.224785e-01
1.344501e-01
1.458829e-01
1.567826e-01
1.671579e-01
1.770183e-01
1.863744e-01
1.952373e-01
2.036180e-01
2.115276e-01
2.189749e-01
2.259653e-01
2.324971e-01
2.385577e-01
2.441185e-01
2.491303e-01
2.535204e-01
2.571940e-01
2.600452e-01
2.619787e-01
2.629475e-01
2.630020e-01
2.623432e-01
2.613635e-01
0.000000e+00
1.785105e-02
3.655211e-02
5.584984e-02
7.530361e-02
9.451808e-02
1.132283e-01
1.313004e-01
1.486739e-01
1.653262e-01
1.812525e-01
1.964554e-01
2.109405e-01
2.247138e-01
2.377811e-01
2.501478e-01
2.618184e-01
2.727969e-01
2.830858e-01
2.926856e-01
3.015936e-01
3.098014e-01
3.172933e-01
3.240433e-01
3.300136e-01
3.351541e-01
3.394059e-01
3.427103e-01
3.450262e-01
3.463567e-01
3.467882e-01
3.465409e-01
3.460248e-01
0.000000e+00
2.300624e-02
4.728297e-02
7.222400e-02
9.710624e-02
1.213854e-01
1.448534e-01
1.674352e-01
1.891099e-01
2.098755e-01
2.297359e-01
2.486955e-01
2.667579e-01
2.839251e-01
3.001974e-01
3.155736e-01
3.300507e-01
3.436239e-01
3.562866e-01
3.680298e-01
3.788417e-01
3.887071e-01
3.976073e-01
4.055199e-01
4.124197e-01
4.182807e-01
4.230811e-01
4.268099e-01
4.294786e-01
4.311370e-01
4.318999e-01
4.319909e-01
4.318196e-01
0.000000e+00
2.900166e-02
5.970767e-02
9.097186e-02
1.213520e-01
1.506137e-01
1.787377e-01
2.057498e-01
2.316721e-01
2.565183e-01
2.802952e-01
3.030046e-01
3.246450e-01
3.452122e-01
3.646999e-01
3.830993e-01
4.003989e-01
4.165847e-01
4.316395e-01
4.455433e-01
4.582733e-01
4.698047e-01
4.801125e-01
4.891735e-01
4.969706e-01
5.034978e-01
5.087669e-01
5.128151e-01
5.157124e-01
5.175680e-01
5.185393e-01
5.188556e-01
5.188934e-01
0.000000e+00
3.656526e-02
7.607958e-02
1.133397e-01
1.487578e-01
1.826708e-01
2.152574e-01
2.465950e-01
2.767128e-01
3.056178e-01
3.333066e-01
3.597717e-01
3.850031e-01
4.089893e-01
4.317166e-01
4.531688e-01
4.733264e-01
4.921656e-01
5.096582e-01
5.257712e-01
5.404673e-01
5.537071e-01
5.654514e-01
5.756665e-01
5.843313e-01
5.914463e-01
5.970449e-01
6.012062e-01
6.040647e-01
6.058163e-01
6.067111e-01
6.070356e-01
6.071150e-01
0.000000e+00
5.453032e-02
9.894690e-02
1.401000e-01
1.796020e-01
2.177541e-01
2.546328e-01
2.902346e-01
3.245360e-01
3.575095e-01
3.891297e-01
4.193747e-01
4.482249e-01
4.756619e-01
5.016666e-01
5.262174e-01
5.492880e-01
5.708463e-01
5.908530e-01
6.092606e-01
6.260137e-01
6.410506e-01
6.543069e-01
6.657217e-01
6.752479e-01
6.828663e-01
6.886040e-01
6.925567e-01
6.949126e-01
6.959742e-01
6.961671e-01
6.960073e-01
6.959174e-01
0.000000e+00
-3.368811e-02
-5.879304e-02
-8.618860e-02
-1.166952e-01
-1.511554e-01
-1.898088e-01
-2.327225e-01
-2.798538e-01
-3.311016e-01
-3.863302e-01
-4.453831e-01
-5.080921e-01
-5.742815e-01
-6.437724e-01
-7.163845e-01
-7.919387e-01
-8.702588e-01
-9.511747e-01
-1.034526e+00
-1.120169e+00
-1.207979e+00
-1.297871e+00
-1.389810e+00
-1.483841e+00
-1.580139e+00
-1.679086e+00
-1.781430e+00
-1.888599e+00
-2.003422e+00
-2.132002e+00
-2.288742e+00
-2.505281e+00
0.000000e+00
-2.093588e-02
-4.721413e-02
-7.479448e-02
-1.057263e-01
-1.405609e-01
-1.795899e-01
-2.228791e-01
-2.703897e-01
-3.220206e-01
-3.776352e-01
-4.370758e-01
-5.001727e-01
-5.667489e-01
-6.366237e-01
-7.096150e-01
-7.855414e-01
-8.642242e-01
-9.454902e-01
-1.029175e+00
-1.115128e+00
-1.203222e+00
-1.293361e+00
-1.385501e+00
-1.479674e+00
-1.576039e+00
-1.674960e+00
-1.777159e+00
-1.884035e+00
-1.998371e+00
-2.125958e+00
-2.279209e+00
-2.481513e+00
0.000000e+00
-1.537861e-02
-3.806381e-02
-6.526793e-02
-9.625375e-02
-1.313451e-01
-1.706821e-01
-2.143013e-01
-2.621502e-01
-3.141231e-01
-3.700811e-01
-4.298653e-01
-4.933051e-01
-5.602228e-01
-6.304372e-01
-7.037655e-01
-7.800254e-01
-8.590372e-01
-9.406263e-01
-1.024627e+00
-1.110888e+00
-1.199281e+00
-1.289709e+00
-1.382128e+00
-1.476578e+00
-1.573224e+00
-1.672446e+00
-1.774985e+00
-1.882224e+00
-1.996667e+00
-2.122595e+00
-2.265064e+00
-2.423104e+00
0.000000e+00
-1.231455e-02
-3.223238e-02
-5.798583e-02
-8.857343e-02
-1.236538e-01
-1.631591e-01
-2.070227e-01
-2.551501e-01
-3.074161e-01
-3.636730e-01
-4.237581e-01
-4.874992e-01
-5.547183e-01
-6.252344e-01
-6.988652e-01
-7.754289e-01
-8.547465e-01
-9.366445e-01
-1.020959e+00
-1.107539e+00
-1.196261e+00
-1.287032e+00
-1.379816e+00
-1.474660e+00
-1.571739e+00
-1.671429e+00
-1.774412e+00
-1.881820e+00
-1.995303e+00
-2.116442e+00
-2.244205e+00
-2.363139e+00
0.000000e+00
-1.042014e-02
-2.841883e-02
-5.281468e-02
-8.270502e-02
-1.175554e-01
-1.570755e-01
-2.010816e-01
-2.494147e-01
-3.019168e-01
-3.584237e-01
-4.187652e-01
-4.827660e-01
-5.502477e-01
-6.210298e-01
-6.949314e-01
-7.717725e-01
-8.513760e-01
-9.335709e-01
-1.018196e+00
-1.105104e+00
-1.194174e+00
-1.285318e+00
-1.378503e+00
-1.473772e+00
-1.571277e+00
-1.671326e+00
-1.774410e+00
-1.881179e+00
-1.992158e+00
-2.106818e+00
-2.220947e+00
-2.324526e+00
0.000000e+00
-9.214713e-03
-2.591667e-02
-4.925613e-02
-7.847362e-02
-1.129976e-01
-1.524317e-01
-1.964941e-01
-2.449626e-01
-2.976416e-01
-3.543466e-01
-4.148973e-01
-4.791143e-01
-5.468182e-01
-6.178294e-01
-6.919688e-01
-7.690588e-01
-8.489251e-01
-9.313992e-01
-1.016322e+00
-1.103550e+00
-1.192961e+00
-1.284466e+00
-1.378020e+00
-1.473640e+00
-1.571419e+00
-1.671527e+00
-1.774183e+00
-1.879504e+00
-1.987136e+00
-2.095438e+00
-2.200540e+00
-2.296604e+00
0.000000e+00
-8.465554e-03
-2.433469e-02
-4.694299e-02
-7.563889e-02
-1.098653e-01
-1.491824e-01
-1.932503e-01
-2.417988e-01
-2.946001e-01
-3.514512e-01
-4.121618e-01
-4.765484e-01
-5.444308e-01
-6.156305e-01
-6.899704e-01
-7.672753e-01
-8.473732e-01
-9.300977e-01
-1.015291e+00
-1.102807e+00
-1.192521e+00
-1.284329e+00
-1.378164e+00
-1.473993e+00
-1.571816e+00
-1.671645e+00
-1.773420e+00
-1.876849e+00
-1.981089e+00
-2.084337e+00
-2.183617e+00
-2.275280e+00
0.000000e+00
-8.053880e-03
-2.345687e-02
-4.563949e-02
-7.401342e-02
-1.080408e-01
-1.472677e-01
-1.913259e-01
-2.399176e-01
-2.927947e-01
-3.497414e-01
-4.105610e-01
-4.750674e-01
-5.430805e-01
-6.144229e-01
-6.889196e-01
-7.663974e-01
-8.466859e-01
-9.296192e-01
-1.015038e+00
-1.102791e+00
-1.192741e+00
-1.284766e+00
-1.378760e+00
-1.474628e+00
-1.572271e+00
-1.671546e+00
-1.772183e+00
-1.873643e+00
-1.974930e+00
-2.074416e+00
-2.169863e+00
-2.258781e+00
0.000000e+00
-7.921240e-03
-2.317367e-02
-4.521701e-02
-7.348366e-02
-1.074437e-01
-1.466405e-01
-1.906980e-01
-2.393102e-01
-2.922227e-01
-3.492161e-01
-4.100923e-01
-4.746655e-01
-5.427567e-01
-6.141904e-01
-6.887932e-01
-7.663935e-01
-8.468214e-01
-9.299096e-01
-1.015494e+00
-1.103416e+00
-1.193521e+00
-1.285660e+00
-1.379684e+00
-1.475435e+00
-1.572720e+00
-1.671278e+00
-1.770700e+00
-1.870346e+00
-1.969233e+00
-2.065985e+00
-2.158894e+00
-2.246136e+00
0.000000e+00
-8.050043e-03
-2.345155e-02
-4.563490e-02
-7.401203e-02
-1.080457e-01
-1.472828e-01
-1.913566e-01
-2.399710e-01
-2.928800e-01
-3.498706e-01
-4.107489e-01
-4.753327e-01
-5.434453e-01
-6.149134e-01
-6.895652e-01
-7.672298e-01
-8.477366e-01
-9.309157e-01
-1.016597e+00
-1.104609e+00
-1.194780e+00
-1.286931e+00
-1.380869e+00
-1.476378e+00
-1.573193e+00
-1.670966e+00
-1.769222e+00
-1.867298e+00
-1.964301e+00
-2.059098e+00
-2.150366e+00
-2.236711e+00
0.000000e+00
-8.458191e-03
-2.432447e-02
-4.693415e-02
-7.563612e-02
-1.098745e-01
-1.492112e-01
-1.933089e-01
-2.419008e-01
-2.947633e-01
-3.516984e-01
-4.125218e-01
-4.770567e-01
-5.451303e-01
-6.165715e-01
-6.912096e-01
-7.688737e-01
-8.493921e-01
-9.325907e-01
-1.018292e+00
-1.106313e+00
-1.196462e+00
-1.288530e+00
-1.382289e+00
-1.477472e+00
-1.573760e+00
-1.670755e+00
-1.767954e+00
-1.864721e+00
-1.960275e+00
-2.053697e+00
-2.143969e+00
-2.230022e+00
0.000000e+00
-9.204480e-03
-2.590247e-02
-4.924378e-02
-7.846962e-02
-1.130101e-01
-1.524715e-01
-1.965755e-01
-2.451046e-01
-2.978691e-01
-3.546916e-01
-4.154001e-01
-4.798247e-01
-5.477965e-01
-6.191461e-01
-6.937038e-01
-7.712982e-01
-8.517557e-01
-9.348980e-01
-1.020540e+00
-1.108488e+00
-1.198531e+00
-1.290437e+00
-1.383945e+00
-1.478753e+00
-1.574503e+00
-1.670769e+00
-1.767045e+00
-1.862742e+00
-1.957191e+00
-2.049665e+00
-2.139406e+00
-2.225636e+00
0.000000e+00
-1.040809e-02
-2.840212e-02
-5.280014e-02
-8.270039e-02
-1.175706e-01
-1.571235e-01
-2.011798e-01
-2.495862e-01
-3.021916e-01
-3.588406e-01
-4.193730e-01
-4.836252e-01
-5.514312e-01
-6.226231e-01
-6.970314e-01
-7.744842e-01
-8.548054e-01
-9.378131e-01
-1.023316e+00
-1.111110e+00
-1.200969e+00
-1.292645e+00
-1.385850e+00
-1.480258e+00
-1.575486e+00
-1.671094e+00
-1.766587e+00
-1.861420e+00
-1.955026e+00
-2.046850e+00
-2.136377e+00
-2.223126e+00
0.000000e+00
-1.230216e-02
-3.221522e-02
-5.797104e-02
-8.856946e-02
-1.236716e-01
-1.632132e-01
-2.071323e-01
-2.553408e-01
-3.077212e-01
-3.641352e-01
-4.244313e-01
-4.884500e-01
-5.560271e-01
-6.269953e-01
-7.011850e-01
-7.784230e-01
-8.585316e-01
-9.413256e-01
-1.026609e+00
-1.114169e+00
-1.203773e+00
-1.295156e+00
-1.388017e+00
-1.482012e+00
-1.576746e+00
-1.671775e+00
-1.766612e+00
-1.860753e+00
-1.953714e+00
-2.045080e+00
-2.134568e+00
-2.222032e+00
0.000000e+00
-1.536781e-02
-3.804878e-02
-6.525544e-02
-9.625256e-02
-1.313667e-01
-1.707418e-01
-2.144192e-01
-2.623529e-01
-3.144450e-01
-3.705663e-01
-4.305695e-01
-4.942966e-01
-5.615842e-01
-6.322646e-01
-7.061675e-01
-7.831188e-01
-8.629391e-01
-9.454410e-01
-1.030425e+00
-1.117674e+00
-1.206949e+00
-1.297978e+00
-1.390453e+00
-1.484022e+00
-1.578285e+00
-1.672799e+00
-1.767089e+00
-1.860678e+00
-1.953139e+00
-2.044163e+00
-2.133659e+00
-2.221841e+00
0.000000e+00
-2.092894e-02
-4.720390e-02
-7.478713e-02
-1.057308e-01
-1.405891e-01
-1.796571e-01
-2.230057e-01
-2.706020e-01
-3.223528e-01
-3.781308e-01
-4.377894e-01
-5.011710e-01
-5.681116e-01
-6.384431e-01
-7.119944e-01
-7.885901e-01
-8.680495e-01
-9.501831e-01
-1.034789e+00
-1.121649e+00
-1.210519e+00
-1.301127e+00
-1.393163e+00
-1.486273e+00
-1.580062e+00
-1.674093e+00
-1.767904e+00
-1.861043e+00
-1.953112e+00
-2.043864e+00
-2.133330e+00
-2.222004e+00
0.000000e+00
-3.368712e-02
-5.878963e-02
-8.618925e-02
-1.167090e-01
-1.511942e-01
-1.898879e-01
-2.328620e-01
-2.800795e-01
-3.314468e-01
-3.868368e-01
-4.461031e-01
-5.090883e-01
-5.756281e-01
-6.455541e-01
-7.186939e-01
-7.948708e-01
-8.739024e-01
-9.555972e-01
-1.039751e+00
-1.126144e+00
-1.214531e+00
-1.304638e+00