TITLE = "Solution"
VARIABLES = x, y, u, v, psiu, psiv, t, stress
ZONE T="structure" N=561 E=512 F=FEBLOCK ET=QUADRILATERAL VARLOCATION=([7,8]=cellcentered)
0.000000e+00
6.250000e+00
1.250000e+01
1.875000e+01
2.500000e+01
3.125000e+01
3.750000e+01
4.375000e+01
5.000000e+01
5.625000e+01
6.250000e+01
6.875000e+01
7.500000e+01
8.125000e+01
8.750000e+01
9.375000e+01
1.000000e+02
1.062500e+02
1.125000e+02
1.187500e+02
1.250000e+02
1.312500e+02
1.375000e+02
1.437500e+02
1.500000e+02
1.562500e+02
1.625000e+02
1.687500e+02
1.750000e+02
1.812500e+02
1.875000e+02
1.937500e+02
2.000000e+02
0.000000e+00
6.250000e+00
1.250000e+01
1.875000e+01
2.500000e+01
3.125000e+01
3.750000e+01
4.375000e+01
5.000000e+01
5.625000e+01
6.250000e+01
6.875000e+01
7.500000e+01
8.125000e+01
8.750000e+01
9.375000e+01
1.000000e+02
1.062500e+02
1.125000e+02
1.187500e+02
1.250000e+02
1.312500e+02
1.375000e+02
1.437500e+02
1.500000e+02
1.562500e+02
1.625000e+02
1.687500e+02
1.750000e+02
1.812500e+02
1.875000e+02
1.937500e+02
2.000000e+02
0.000000e+00
6.250000e+00
1.250000e+01
1.875000e+01
2.500000e+01
3.125000e+01
3.750000e+01
4.375000e+01
5.000000e+01
5.625000e+01
6.250000e+01
6.875000e+01
7.500000e+01
8.125000e+01
8.750000e+01
9.375000e+01
1.000000e+02
1.062500e+02
1.125000e+02
1.187500e+02
1.250000e+02
1.312500e+02
1.375000e+02
1.437500e+02
1.500000e+02
1.562500e+02
1.625000e+02
1.687500e+02
1.750000e+02
1.812500e+02
1.875000e+02
1.937500e+02
2.000000e+02
0.000000e+00
6.250000e+00
1.250000e+01
1.875000e+01
2.500000e+01
3.125000e+01
3.750000e+01
4.375000e+01
5.000000e+01
5.625000e+01
6.250000e+01
6.875000e+01
7.500000e+01
8.125000e+01
8.750000e+01
9.375000e+01
1.000000e+02
1.062500e+02
1.125000e+02
1.187500e+02
1.250000e+02
1.312500e+02
1.375000e+02
1.437500e+02
1.500000e+02
1.562500e+02
1.625000e+02
1.687500e+02
1.750000e+02
1.812500e+02
1.875000e+02
1.937500e+02
2.000000e+02
0.000000e+00
6.250000e+00
1.250000e+01
1.875000e+01
2.500000e+01
3.125000e+01
3.750000e+01
4.375000e+01
5.000000e+01
5.625000e+01
6.250000e+01
6.875000e+01
7.500000e+01
8.125000e+01
8.750000e+01
9.375000e+01
1.000000e+02
1.062500e+02
1.125000e+02
1.187500e+02
1.250000e+02
1.312500e+02
1.375000e+02
1.437500e+02
1.500000e+02
1.562500e+02
1.625000e+02
1.687500e+02
1.750000e+02
1.812500e+02
1.875000e+02
1.937500e+02
2.000000e+02
0.000000e+00
6.250000e+00
1.250000e+01
1.875000e+01
2.500000e+01
3.125000e+01
3.750000e+01
4.375000e+01
5.000000e+01
5.625000e+01
6.250000e+01
6.875000e+01
7.500000e+01
8.125000e+01
8.750000e+01
9.375000e+01
1.000000e+02
1.062500e+02
1.125000e+02
1.187500e+02
1.250000e+02
1.312500e+02
1.375000e+02
1.437500e+02
1.500000e+02
1.562500e+02
1.625000e+02
1.687500e+02
1.750000e+02
1.812500e+02
1.875000e+02
1.937500e+02
2.000000e+02
0.000000e+00
6.250000e+00
1.250000e+01
1.875000e+01
2.500000e+01
3.125000e+01
3.750000e+01
4.375000e+01
5.000000e+01
5.625000e+01
6.250000e+01
6.875000e+01
7.500000e+01
8.125000e+01
8.750000e+01
9.375000e+01
1.000000e+02
1.062500e+02
1.125000e+02
1.187500e+02
1.250000e+02
1.312500e+02
1.375000e+02
1.437500e+02
1.500000e+02
1.562500e+02
1.625000e+02
1.687500e+02
1.750000e+02
1.812500e+02
1.875000e+02
1.937500e+02
2.000000e+02
0.000000e+00
6.250000e+00
1.250000e+01
1.875000e+01
2.500000e+01
3.125000e+01
3.750000e+01
4.375000e+01
5.000000e+01
5.625000e+01
6.250000e+01
6.875000e+01
7.500000e+01
8.125000e+01
8.750000e+01
9.375000e+01
1.000000e+02
1.062500e+02
1.125000e+02
1.187500e+02
1.250000e+02
1.312500e+02
1.375000e+02
1.437500e+02
1.500000e+02
1.562500e+02
1.625000e+02
1.687500e+02
1.750000e+02
1.812500e+02
1.875000e+02
1.937500e+02
2.000000e+02
0.000000e+00
6.250000e+00
1.250000e+01
1.875000e+01
2.500000e+01
3.125000e+01
3.750000e+01
4.375000e+01
5.000000e+01
5.625000e+01
6.250000e+01
6.875000e+01
7.500000e+01
8.125000e+01
8.750000e+01
9.375000e+01
1.000000e+02
1.062500e+02
1.125000e+02
1.187500e+02
1.250000e+02
1.312500e+02
1.375000e+02
1.437500e+02
1.500000e+02
1.562500e+02
1.625000e+02
1.687500e+02
1.750000e+02
1.812500e+02
1.875000e+02
1.937500e+02
2.000000e+02
0.000000e+00
6.250000e+00
1.250000e+01
1.875000e+01
2.500000e+01
3.125000e+01
3.750000e+01
4.375000e+01
5.000000e+01
5.625000e+01
6.250000e+01
6.875000e+01
7.500000e+01
8.125000e+01
8.750000e+01
9.375000e+01
1.000000e+02
1.062500e+02
1.125000e+02
1.187500e+02
1.250000e+02
1.312500e+02
1.375000e+02
1.437500e+02
1.500000e+02
1.562500e+02
1.625000e+02
1.687500e+02
1.750000e+02
1.812500e+02
1.875000e+02
1.937500e+02
2.000000e+02
0.000000e+00
6.250000e+00
1.250000e+01
1.875000e+01
2.500000e+01
3.125000e+01
3.750000e+01
4.375000e+01
5.000000e+01
5.625000e+01
6.250000e+01
6.875000e+01
7.500000e+01
8.125000e+01
8.750000e+01
9.375000e+01
1.000000e+02
1.062500e+02
1.125000e+02
1.187500e+02
1.250000e+02
1.312500e+02
1.375000e+02
1.437500e+02
1.500000e+02
1.562500e+02
1.625000e+02
1.687500e+02
1.750000e+02
1.812500e+02
1.875000e+02
1.937500e+02
2.000000e+02
0.000000e+00
6.250000e+00
1.250000e+01
1.875000e+01
2.500000e+01
3.125000e+01
3.750000e+01
4.375000e+01
5.000000e+01
5.625000e+01
6.250000e+01
6.875000e+01
7.500000e+01
8.125000e+01
8.750000e+01
9.375000e+01
1.000000e+02
1.062500e+02
1.125000e+02
1.187500e+02
1.250000e+02
1.312500e+02
1.375000e+02
1.437500e+02
1.500000e+02
1.562500e+02
1.625000e+02
1.687500e+02
1.750000e+02
1.812500e+02
1.875000e+02
1.937500e+02
2.000000e+02
0.000000e+00
6.250000e+00
1.250000e+01
1.875000e+01
2.500000e+01
3.125000e+01
3.750000e+01
4.375000e+01
5.000000e+01
5.625000e+01
6.250000e+01
6.875000e+01
7.500000e+01
8.125000e+01
8.750000e+01
9.375000e+01
1.000000e+02
1.062500e+02
1.125000e+02
1.187500e+02
1.250000e+02
1.312500e+02
1.375000e+02
1.437500e+02
1.500000e+02
1.562500e+02
1.625000e+02
1.687500e+02
1.750000e+02
1.812500e+02
1.875000e+02
1.937500e+02
2.000000e+02
0.000000e+00
6.250000e+00
1.250000e+01
1.875000e+01
2.500000e+01
3.125000e+01
3.750000e+01
4.375000e+01
5.000000e+01
5.625000e+01
6.250000e+01
6.875000e+01
7.500000e+01
8.125000e+01
8.750000e+01
9.375000e+01
1.000000e+02
1.062500e+02
1.125000e+02
1.187500e+02
1.250000e+02
1.312500e+02
1.375000e+02
1.437500e+02
1.500000e+02
1.562500e+02
1.625000e+02
1.687500e+02
1.750000e+02
1.812500e+02
1.875000e+02
1.937500e+02
2.000000e+02
0.000000e+00
6.250000e+00
1.250000e+01
1.875000e+01
2.500000e+01
3.125000e+01
3.750000e+01
4.375000e+01
5.000000e+01
5.625000e+01
6.250000e+01
6.875000e+01
7.500000e+01
8.125000e+01
8.750000e+01
9.375000e+01
1.000000e+02
1.062500e+02
1.125000e+02
1.187500e+02
1.250000e+02
1.312500e+02
1.375000e+02
1.437500e+02
1.500000e+02
1.562500e+02
1.625000e+02
1.687500e+02
1.750000e+02
1.812500e+02
1.875000e+02
1.937500e+02
2.000000e+02
0.000000e+00
6.250000e+00
1.250000e+01
1.875000e+01
2.500000e+01
3.125000e+01
3.750000e+01
4.375000e+01
5.000000e+01
5.625000e+01
6.250000e+01
6.875000e+01
7.500000e+01
8.125000e+01
8.750000e+01
9.375000e+01
1.000000e+02
1.062500e+02
1.125000e+02
1.187500e+02
1.250000e+02
1.312500e+02
1.375000e+02
1.437500e+02
1.500000e+02
1.562500e+02
1.625000e+02
1.687500e+02
1.750000e+02
1.812500e+02
1.875000e+02
1.937500e+02
2.000000e+02
0.000000e+00
6.250000e+00
1.250000e+01
1.875000e+01
2.500000e+01
3.125000e+01
3.750000e+01
4.375000e+01
5.000000e+01
5.625000e+01
6.250000e+01
6.875000e+01
7.500000e+01
8.125000e+01
8.750000e+01
9.375000e+01
1.000000e+02
1.062500e+02
1.125000e+02
1.187500e+02
1.250000e+02
1.312500e+02
1.375000e+02
1.437500e+02
1.500000e+02
1.562500e+02
1.625000e+02
1.687500e+02
1.750000e+02
1.812500e+02
1.875000e+02
1.937500e+02
2.000000e+02
0.000000e+00
0.000000e+00
0.000000e+00
0.000000e+00
0.000000e+00
0.000000e+00
0.000000e+00
0.000000e+00
0.000000e+00
0.000000e+00
0.000000e+00
0.000000e+00
0.000000e+00
0.000000e+00
0.000000e+00
0.000000e+00
0.000000e+00
0.000000e+00
0.000000e+00
0.000000e+00
0.000000e+00
0.000000e+00
0.000000e+00
0.000000e+00
0.000000e+00
0.000000e+00
0.000000e+00
0.000000e+00
0.000000e+00
0.000000e+00
0.000000e+00
0.000000e+00
0.000000e+00
6.250000e+00
6.250000e+00
6.250000e+00
6.250000e+00
6.250000e+00
6.250000e+00
6.250000e+00
6.250000e+00
6.250000e+00
6.250000e+00
6.250000e+00
6.250000e+00
6.250000e+00
6.250000e+00
6.250000e+00
6.250000e+00
6.250000e+00
6.250000e+00
6.250000e+00
6.250000e+00
6.250000e+00
6.250000e+00
6.250000e+00
6.250000e+00
6.250000e+00
6.250000e+00
6.250000e+00
6.250000e+00
6.250000e+00
6.250000e+00
6.250000e+00
6.250000e+00
6.250000e+00
1.250000e+01
1.250000e+01
1.250000e+01
1.250000e+01
1.250000e+01
1.250000e+01
1.250000e+01
1.250000e+01
1.250000e+01
1.250000e+01
1.250000e+01
1.250000e+01
1.250000e+01
1.250000e+01
1.250000e+01
1.250000e+01
1.250000e+01
1.250000e+01
1.250000e+01
1.250000e+01
1.250000e+01
1.250000e+01
1.250000e+01
1.250000e+01
1.250000e+01
1.250000e+01
1.250000e+01
1.250000e+01
1.250000e+01
1.250000e+01
1.250000e+01
1.250000e+01
1.250000e+01
1.875000e+01
1.875000e+01
1.875000e+01
1.875000e+01
1.875000e+01
1.875000e+01
1.875000e+01
1.875000e+01
1.875000e+01
1.875000e+01
1.875000e+01
1.875000e+01
1.875000e+01
1.875000e+01
1.875000e+01
1.875000e+01
1.875000e+01
1.875000e+01
1.875000e+01
1.875000e+01
1.875000e+01
1.875000e+01
1.875000e+01
1.875000e+01
1.875000e+01
1.875000e+01
1.875000e+01
1.875000e+01
1.875000e+01
1.875000e+01
1.875000e+01
1.875000e+01
1.875000e+01
2.500000e+01
2.500000e+01
2.500000e+01
2.500000e+01
2.500000e+01
2.500000e+01
2.500000e+01
2.500000e+01
2.500000e+01
2.500000e+01
2.500000e+01
2.500000e+01
2.500000e+01
2.500000e+01
2.500000e+01
2.500000e+01
2.500000e+01
2.500000e+01
2.500000e+01
2.500000e+01
2.500000e+01
2.500000e+01
2.500000e+01
2.500000e+01
2.500000e+01
2.500000e+01
2.500000e+01
2.500000e+01
2.500000e+01
2.500000e+01
2.500000e+01
2.500000e+01
2.500000e+01
3.125000e+01
3.125000e+01
3.125000e+01
3.125000e+01
3.125000e+01
3.125000e+01
3.125000e+01
3.125000e+01
3.125000e+01
3.125000e+01
3.125000e+01
3.125000e+01
3.125000e+01
3.125000e+01
3.125000e+01
3.125000e+01
3.125000e+01
3.125000e+01
3.125000e+01
3.125000e+01
3.125000e+01
3.125000e+01
3.125000e+01
3.125000e+01
3.125000e+01
3.125000e+01
3.125000e+01
3.125000e+01
3.125000e+01
3.125000e+01
3.125000e+01
3.125000e+01
3.125000e+01
3.750000e+01
3.750000e+01
3.750000e+01
3.750000e+01
3.750000e+01
3.750000e+01
3.750000e+01
3.750000e+01
3.750000e+01
3.750000e+01
3.750000e+01
3.750000e+01
3.750000e+01
3.750000e+01
3.750000e+01
3.750000e+01
3.750000e+01
3.750000e+01
3.750000e+01
3.750000e+01
3.750000e+01
3.750000e+01
3.750000e+01
3.750000e+01
3.750000e+01
3.750000e+01
3.750000e+01
3.750000e+01
3.750000e+01
3.750000e+01
3.750000e+01
3.750000e+01
3.750000e+01
4.375000e+01
4.375000e+01
4.375000e+01
4.375000e+01
4.375000e+01
4.375000e+01
4.375000e+01
4.375000e+01
4.375000e+01
4.375000e+01
4.375000e+01
4.375000e+01
4.375000e+01
4.375000e+01
4.375000e+01
4.375000e+01
4.375000e+01
4.375000e+01
4.375000e+01
4.375000e+01
4.375000e+01
4.375000e+01
4.375000e+01
4.375000e+01
4.375000e+01
4.375000e+01
4.375000e+01
4.375000e+01
4.375000e+01
4.375000e+01
4.375000e+01
4.375000e+01
4.375000e+01
5.000000e+01
5.000000e+01
5.000000e+01
5.000000e+01
5.000000e+01
5.000000e+01
5.000000e+01
5.000000e+01
5.000000e+01
5.000000e+01
5.000000e+01
5.000000e+01
5.000000e+01
5.000000e+01
5.000000e+01
5.000000e+01
5.000000e+01
5.000000e+01
5.000000e+01
5.000000e+01
5.000000e+01
5.000000e+01
5.000000e+01
5.000000e+01
5.000000e+01
5.000000e+01
5.000000e+01
5.000000e+01
5.000000e+01
5.000000e+01
5.000000e+01
5.000000e+01
5.000000e+01
5.625000e+01
5.625000e+01
5.625000e+01
5.625000e+01
5.625000e+01
5.625000e+01
5.625000e+01
5.625000e+01
5.625000e+01
5.625000e+01
5.625000e+01
5.625000e+01
5.625000e+01
5.625000e+01
5.625000e+01
5.625000e+01
5.625000e+01
5.625000e+01
5.625000e+01
5.625000e+01
5.625000e+01
5.625000e+01
5.625000e+01
5.625000e+01
5.625000e+01
5.625000e+01
5.625000e+01
5.625000e+01
5.625000e+01
5.625000e+01
5.625000e+01
5.625000e+01
5.625000e+01
6.250000e+01
6.250000e+01
6.250000e+01
6.250000e+01
6.250000e+01
6.250000e+01
6.250000e+01
6.250000e+01
6.250000e+01
6.250000e+01
6.250000e+01
6.250000e+01
6.250000e+01
6.250000e+01
6.250000e+01
6.250000e+01
6.250000e+01
6.250000e+01
6.250000e+01
6.250000e+01
6.250000e+01
6.250000e+01
6.250000e+01
6.250000e+01
6.250000e+01
6.250000e+01
6.250000e+01
6.250000e+01
6.250000e+01
6.250000e+01
6.250000e+01
6.250000e+01
6.250000e+01
6.875000e+01
6.875000e+01
6.875000e+01
6.875000e+01
6.875000e+01
6.875000e+01
6.875000e+01
6.875000e+01
6.875000e+01
6.875000e+01
6.875000e+01
6.875000e+01
6.875000e+01
6.875000e+01
6.875000e+01
6.875000e+01
6.875000e+01
6.875000e+01
6.875000e+01
6.875000e+01
6.875000e+01
6.875000e+01
6.875000e+01
6.875000e+01
6.875000e+01
6.875000e+01
6.875000e+01
6.875000e+01
6.875000e+01
6.875000e+01
6.875000e+01
6.875000e+01
6.875000e+01
7.500000e+01
7.500000e+01
7.500000e+01
7.500000e+01
7.500000e+01
7.500000e+01
7.500000e+01
7.500000e+01
7.500000e+01
7.500000e+01
7.500000e+01
7.500000e+01
7.500000e+01
7.500000e+01
7.500000e+01
7.500000e+01
7.500000e+01
7.500000e+01
7.500000e+01
7.500000e+01
7.500000e+01
7.500000e+01
7.500000e+01
7.500000e+01
7.500000e+01
7.500000e+01
7.500000e+01
7.500000e+01
7.500000e+01
7.500000e+01
7.500000e+01
7.500000e+01
7.500000e+01
8.125000e+01
8.125000e+01
8.125000e+01
8.125000e+01
8.125000e+01
8.125000e+01
8.125000e+01
8.125000e+01
8.125000e+01
8.125000e+01
8.125000e+01
8.125000e+01
8.125000e+01
8.125000e+01
8.125000e+01
8.125000e+01
8.125000e+01
8.125000e+01
8.125000e+01
8.125000e+01
8.125000e+01
8.125000e+01
8.125000e+01
8.125000e+01
8.125000e+01
8.125000e+01
8.125000e+01
8.125000e+01
8.125000e+01
8.125000e+01
8.125000e+01
8.125000e+01
8.125000e+01
8.750000e+01
8.750000e+01
8.750000e+01
8.750000e+01
8.750000e+01
8.750000e+01
8.750000e+01
8.750000e+01
8.750000e+01
8.750000e+01
8.750000e+01
8.750000e+01
8.750000e+01
8.750000e+01
8.750000e+01
8.750000e+01
8.750000e+01
8.750000e+01
8.750000e+01
8.750000e+01
8.750000e+01
8.750000e+01
8.750000e+01
8.750000e+01
8.750000e+01
8.750000e+01
8.750000e+01
8.750000e+01
8.750000e+01
8.750000e+01
8.750000e+01
8.750000e+01
8.750000e+01
9.375000e+01
9.375000e+01
9.375000e+01
9.375000e+01
9.375000e+01
9.375000e+01
9.375000e+01
9.375000e+01
9.375000e+01
9.375000e+01
9.375000e+01
9.375000e+01
9.375000e+01
9.375000e+01
9.375000e+01
9.375000e+01
9.375000e+01
9.375000e+01
9.375000e+01
9.375000e+01
9.375000e+01
9.375000e+01
9.375000e+01
9.375000e+01
9.375000e+01
9.375000e+01
9.375000e+01
9.375000e+01
9.375000e+01
9.375000e+01
9.375000e+01
9.375000e+01
9.375000e+01
1.000000e+02
1.000000e+02
1.000000e+02
1.000000e+02
1.000000e+02
1.000000e+02
1.000000e+02
1.000000e+02
1.000000e+02
1.000000e+02
1.000000e+02
1.000000e+02
1.000000e+02
1.000000e+02
1.000000e+02
1.000000e+02
1.000000e+02
1.000000e+02
1.000000e+02
1.000000e+02
1.000000e+02
1.000000e+02
1.000000e+02
1.000000e+02
1.000000e+02
1.000000e+02
1.000000e+02
1.000000e+02
1.000000e+02
1.000000e+02
1.000000e+02
1.000000e+02
1.000000e+02
0.000000e+00
-3.996641e-01
-7.089078e-01
-1.017385e+00
-1.327000e+00
-1.622538e+00
-1.924015e+00
-2.223902e+00
-2.519790e+00
-2.817658e+00
-3.115087e+00
-3.411122e+00
-3.707457e+00
-4.003609e+00
-4.299099e+00
-4.594316e+00
-4.889276e+00
-5.183801e+00
-5.477960e+00
-5.771859e+00
-6.065511e+00
-6.359084e+00
-6.652985e+00
-6.947549e+00
-7.242752e+00
-7.538513e+00
-7.835475e+00
-8.136012e+00
-8.445977e+00
-8.777118e+00
-9.138114e+00
-9.499808e+00
-9.699723e+00
0.000000e+00
-2.386673e-01
-4.912594e-01
-7.517569e-01
-1.018633e+00
-1.274376e+00
-1.536639e+00
-1.798699e+00
-2.057498e+00
-2.318103e+00
-2.578461e+00
-2.837552e+00
-3.096822e+00
-3.355901e+00
-3.614310e+00
-3.872349e+00
-4.130030e+00
-4.387164e+00
-4.643754e+00
-4.899798e+00
-5.155152e+00
-5.409708e+00
-5.663421e+00
-5.915929e+00
-6.166192e+00
-6.412628e+00
-6.653618e+00
-6.887998e+00
-7.114640e+00
-7.325889e+00
-7.487662e+00
-7.563092e+00
-7.658609e+00
0.000000e+00
-1.610119e-01
-3.367292e-01
-5.412895e-01
-7.577396e-01
-9.708396e-01
-1.192278e+00
-1.415197e+00
-1.636985e+00
-1.860760e+00
-2.084672e+00
-2.307945e+00
-2.531464e+00
-2.754831e+00
-2.977648e+00
-3.200029e+00
-3.421858e+00
-3.642878e+00
-3.862910e+00
-4.081667e+00
-4.298670e+00
-4.513323e+00
-4.724823e+00
-4.931844e+00
-5.132309e+00
-5.323457e+00
-5.501942e+00
-5.663530e+00
-5.801426e+00
-5.901020e+00
-5.937531e+00
-5.936054e+00
-6.024259e+00
0.000000e+00
-1.163013e-01
-2.414577e-01
-3.926945e-01
-5.568680e-01
-7.276025e-01
-9.076378e-01
-1.090704e+00
-1.275200e+00
-1.462011e+00
-1.649425e+00
-1.836936e+00
-2.024764e+00
-2.212422e+00
-2.399581e+00
-2.586115e+00
-2.771726e+00
-2.956039e+00
-3.138636e+00
-3.318913e+00
-3.496031e+00
-3.668911e+00
-3.836098e+00
-3.995577e+00
-4.144697e+00
-4.280148e+00
-4.397871e+00
-4.492711e+00
-4.557686e+00
-4.584175e+00
-4.575910e+00
-4.581334e+00
-4.659126e+00
0.000000e+00
-9.713380e-02
-1.957694e-01
-3.076205e-01
-4.290178e-01
-5.603978e-01
-6.987190e-01
-8.410715e-01
-9.867559e-01
-1.134488e+00
-1.283268e+00
-1.432715e+00
-1.582378e+00
-1.731855e+00
-1.880845e+00
-2.028988e+00
-2.175867e+00
-2.321002e+00
-2.463773e+00
-2.603344e+00
-2.738625e+00
-2.868221e+00
-2.990335e+00
-3.102721e+00
-3.202670e+00
-3.287007e+00
-3.352129e+00
-3.394241e+00
-3.410274e+00
-3.401606e+00
-3.387574e+00
-3.412410e+00
-3.489592e+00
0.000000e+00
-7.500206e-02
-1.513017e-01
-2.318998e-01
-3.201151e-01
-4.148275e-01
-5.149452e-01
-6.192762e-01
-7.265077e-01
-8.356881e-01
-9.460758e-01
-1.057073e+00
-1.168233e+00
-1.279175e+00
-1.389523e+00
-1.498859e+00
-1.606700e+00
-1.712469e+00
-1.815433e+00
-1.914637e+00
-2.008867e+00
-2.096614e+00
-2.176051e+00
-2.245061e+00
-2.301297e+00
-2.342292e+00
-2.365775e+00
-2.370462e+00
-2.357885e+00
-2.336466e+00
-2.330169e+00
-2.363961e+00
-2.440872e+00
0.000000e+00
-5.074832e-02
-1.020843e-01
-1.557997e-01
-2.132265e-01
-2.747896e-01
-3.399629e-01
-4.080609e-01
-4.783164e-01
-5.499993e-01
-6.225289e-01
-6.954322e-01
-7.683144e-01
-8.408280e-01
-9.126161e-01
-9.832693e-01
-1.052303e+00
-1.119128e+00
-1.182999e+00
-1.242965e+00
-1.297841e+00
-1.346207e+00
-1.386445e+00
-1.416820e+00
-1.435630e+00
-1.441455e+00
-1.433671e+00
-1.413436e+00
-1.385443e+00
-1.361091e+00
-1.360356e+00
-1.398776e+00
-1.473404e+00
0.000000e+00
-2.557394e-02
-5.145527e-02
-7.827751e-02
-1.066822e-01
-1.369056e-01
-1.688434e-01
-2.021682e-01
-2.364852e-01
-2.714034e-01
-3.065738e-01
-3.416954e-01
-3.764979e-01
-4.107176e-01
-4.440691e-01
-4.762154e-01
-5.067448e-01
-5.351444e-01
-5.607626e-01
-5.827750e-01
-6.001747e-01
-6.117966e-01
-6.163934e-01
-6.127761e-01
-6.000378e-01
-5.779059e-01
-5.473089e-01
-5.112552e-01
-4.760707e-01
-4.527862e-01
-4.562724e-01
-4.954934e-01
-5.650595e-01
0.000000e+00
-1.733231e-04
-2.617289e-04
-2.508794e-04
-1.155607e-04
1.786057e-04
6.743101e-04
1.421955e-03
2.479212e-03
3.912188e-03
5.799969e-03
8.240252e-03
1.135216e-02
1.527876e-02
2.019484e-02
2.632006e-02
3.393522e-02
4.340207e-02
5.518489e-02
6.986825e-02
8.815881e-02
1.108464e-01
1.386959e-01
1.722569e-01
2.115865e-01
2.558779e-01
3.029626e-01
3.487107e-01
3.864984e-01
4.071019e-01
4.009231e-01
3.641745e-01
3.037932e-01
0.000000e+00
2.521601e-02
5.090156e-02
7.772136e-02
1.063694e-01
1.371501e-01
1.700416e-01
2.048139e-01
2.411841e-01
2.788915e-01
3.177448e-01
3.576360e-01
3.985238e-01
4.404173e-01
4.833664e-01
5.274566e-01
5.728075e-01
6.195776e-01
6.679685e-01
7.182325e-01
7.706815e-01
8.256482e-01
8.833495e-01
9.436572e-01
1.005818e+00
1.068140e+00
1.127663e+00
1.179918e+00
1.218969e+00
1.238112e+00
1.232143e+00
1.201180e+00
1.153385e+00
0.000000e+00
5.035766e-02
1.014417e-01
1.550815e-01
2.126684e-01
2.746933e-01
3.407041e-01
4.101012e-01
4.822177e-01
5.564470e-01
6.323664e-01
7.096884e-01
7.882211e-01
8.678526e-01
9.485238e-01
1.030198e+00
1.112836e+00
1.196374e+00
1.280707e+00
1.365693e+00
1.451188e+00
1.537014e+00
1.622807e+00
1.707769e+00
1.790447e+00
1.868541e+00
1.938787e+00
1.997027e+00
2.038581e+00
2.059174e+00
2.056756e+00
2.033946e+00
1.999539e+00
0.000000e+00
7.455861e-02
1.505103e-01
2.309127e-01
3.191484e-01
4.141571e-01
5.149081e-01
6.202751e-01
7.290213e-01
8.403098e-01
9.535566e-01
1.068337e+00
1.184365e+00
1.301443e+00
1.419439e+00
1.538236e+00
1.657663e+00
1.777464e+00
1.897249e+00
2.016485e+00
2.134556e+00
2.250740e+00
2.364025e+00
2.472920e+00
2.575366e+00
2.668711e+00
2.749793e+00
2.815166e+00
2.861528e+00
2.886525e+00
2.890123e+00
2.876307e+00
2.854217e+00
0.000000e+00
9.660187e-02
1.947781e-01
3.062745e-01
4.275079e-01
5.589579e-01
6.976176e-01
8.406115e-01
9.872889e-01
1.136463e+00
1.287289e+00
1.439544e+00
1.592878e+00
1.747015e+00
1.901848e+00
2.057220e+00
2.212874e+00
2.368442e+00
2.523356e+00
2.676814e+00
2.827812e+00
2.975024e+00
3.116592e+00
3.250123e+00
3.372898e+00
3.482080e+00
3.574887e+00
3.648801e+00
3.701852e+00
3.733157e+00
3.743906e+00
3.738715e+00
3.726948e+00
0.000000e+00
1.156806e-01
2.402864e-01
3.910809e-01
5.549173e-01
7.254815e-01
9.055261e-01
1.088756e+00
1.273593e+00
1.460994e+00
1.649383e+00
1.838385e+00
2.028262e+00
2.218589e+00
2.409205e+00
2.600087e+00
2.790930e+00
2.981321e+00
3.170700e+00
3.358265e+00
3.542853e+00
3.722481e+00
3.894011e+00
4.053647e+00
4.197767e+00
4.323400e+00
4.428335e+00
4.511146e+00
4.571228e+00
4.609018e+00
4.626596e+00
4.628767e+00
4.624785e+00
0.000000e+00
1.605228e-01
3.358376e-01
5.400711e-01
7.562294e-01
9.690852e-01
1.190356e+00
1.413141e+00
1.634806e+00
1.858492e+00
2.082422e+00
2.305895e+00
2.529758e+00
2.753614e+00
2.977192e+00
3.200595e+00
3.423565e+00
3.645708e+00
3.866621e+00
4.085820e+00
4.302407e+00
4.513927e+00
4.715635e+00
4.901691e+00
5.067083e+00
5.208518e+00
5.324348e+00
5.414294e+00
5.479232e+00
5.521126e+00
5.543170e+00
5.550352e+00
5.551138e+00
0.000000e+00
2.385446e-01
4.910961e-01
7.515811e-01
1.018376e+00
1.273996e+00
1.536151e+00
1.798071e+00
2.056670e+00
2.316995e+00
2.576976e+00
2.835597e+00
3.094198e+00
3.352340e+00
3.609598e+00
3.866145e+00
4.121724e+00
4.375946e+00
4.628529e+00
4.879273e+00
5.127572e+00
5.370564e+00
5.601880e+00
5.813480e+00
5.998744e+00
6.153813e+00
6.277339e+00
6.369980e+00
6.434112e+00
6.473690e+00
6.494046e+00
6.501471e+00
6.503273e+00
0.000000e+00
4.000872e-01
7.096941e-01
1.018551e+00
1.328389e+00
1.624074e+00
1.925714e+00
2.225719e+00
2.521695e+00
2.819582e+00
3.116880e+00
3.412599e+00
3.708308e+00
4.003425e+00
4.297481e+00
4.590669e+00
4.882685e+00
5.173162e+00
5.461880e+00
5.748610e+00
6.032349e+00
6.309081e+00
6.570617e+00
6.807097e+00
7.010600e+00
7.176503e+00
7.303148e+00
7.391417e+00
7.444700e+00
7.469166e+00
7.473977e+00
7.470586e+00
7.468596e+00
0.000000e+00
-2.427993e-01
-4.700682e-01
-7.501811e-01
-1.065951e+00
-1.418425e+00
-1.810946e+00
-2.238948e+00
-2.703908e+00
-3.206714e+00
-3.746361e+00
-4.323459e+00
-4.938448e+00
-5.591124e+00
-6.281649e+00
-7.010240e+00
-7.776920e+00
-8.581736e+00
-9.424774e+00
-1.030606e+01
-1.122564e+01
-1.218364e+01
-1.318037e+01
-1.421633e+01
-1.529255e+01
-1.641123e+01
-1.757654e+01
-1.879553e+01
-2.007867e+01
-2.144163e+01
-2.292547e+01
-2.467558e+01
-2.709156e+01
0.000000e+00
-1.509712e-01
-3.896845e-01
-6.650629e-01
-9.825315e-01
-1.335477e+00
-1.726852e+00
-2.155583e+00
-2.620656e+00
-3.123128e+00
-3.663047e+00
-4.240279e+00
-4.855237e+00
-5.508059e+00
-6.198745e+00
-6.927445e+00
-7.694274e+00
-8.499271e+00
-9.342488e+00
-1.022397e+01
-1.114377e+01
-1.210199e+01
-1.309892e+01
-1.413518e+01
-1.521193e+01
-1.633136e+01
-1.749746e+01
-1.871698e+01
-2.000081e+01
-2.136775e+01
-2.286149e+01
-2.458398e+01
-2.677007e+01
0.000000e+00
-1.165911e-01
-3.299020e-01
-6.005707e-01
-9.152340e-01
-1.266379e+00
-1.656350e+00
-2.084521e+00
-2.549158e+00
-3.051309e+00
-3.591174e+00
-4.168406e+00
-4.783395e+00
-5.436351e+00
-6.127239e+00
-6.856182e+00
-7.623321e+00
-8.428714e+00
-9.272425e+00
-1.015454e+01
-1.107513e+01
-1.203433e+01
-1.303254e+01
-1.407048e+01
-1.514946e+01
-1.627176e+01
-1.744145e+01
-1.866582e+01
-1.995820e+01
-2.134299e+01
-2.284804e+01
-2.446949e+01
-2.618413e+01
0.000000e+00
-1.134943e-01
-3.045297e-01
-5.619760e-01
-8.683479e-01
-1.214432e+00
-1.601265e+00
-2.027151e+00
-2.490443e+00
-2.991810e+00
-3.531179e+00
-4.108213e+00
-4.723210e+00
-5.376328e+00
-6.067544e+00
-6.796969e+00
-7.564743e+00
-8.370962e+00
-9.215745e+00
-1.009922e+01
-1.102153e+01
-1.198290e+01
-1.298379e+01
-1.402501e+01
-1.510791e+01
-1.623477e+01
-1.740977e+01
-1.864061e+01
-1.994147e+01
-2.133438e+01
-2.281608e+01
-2.431045e+01
-2.569013e+01
0.000000e+00
-1.239377e-01
-3.049358e-01
-5.486496e-01
-8.427668e-01
-1.181440e+00
-1.562797e+00
-1.984620e+00
-2.445579e+00
-2.945437e+00
-3.483833e+00
-4.060478e+00
-4.675442e+00
-5.328787e+00
-6.020522e+00
-6.750730e+00
-7.519541e+00
-8.327104e+00
-9.173604e+00
-1.005923e+01
-1.098418e+01
-1.194876e+01
-1.295343e+01
-1.399894e+01
-1.508649e+01
-1.621813e+01
-1.739757e+01
-1.863147e+01
-1.993127e+01
-2.130824e+01
-2.273491e+01
-2.410704e+01
-2.532562e+01
0.000000e+00
-1.288357e-01
-3.091680e-01
-5.437672e-01
-8.292792e-01
-1.161056e+00
-1.536942e+00
-1.954786e+00
-2.413152e+00
-2.911334e+00
-3.448723e+00
-4.024957e+00
-4.639941e+00
-5.293644e+00
-5.986082e+00
-6.717328e+00
-7.487512e+00
-8.296837e+00
-9.145555e+00
-1.003390e+01
-1.096213e+01
-1.193053e+01
-1.293946e+01
-1.398944e+01
-1.508126e+01
-1.621629e+01
-1.739692e+01
-1.862711e+01
-1.991256e+01
-2.125337e+01
-2.260518e+01
-2.387936e+01
-2.499369e+01
0.000000e+00
-1.309260e-01
-3.112086e-01
-5.419340e-01
-8.219708e-01
-1.148966e+00
-1.520703e+00
-1.935408e+00
-2.391670e+00
-2.888469e+00
-3.425088e+00
-4.001075e+00
-4.616209e+00
-5.270410e+00
-5.963688e+00
-6.696119e+00
-7.467858e+00
-8.279157e+00
-9.130322e+00
-1.002163e+01
-1.095334e+01
-1.192563e+01
-1.293866e+01
-1.399251e+01
-1.508729e+01
-1.622323e+01
-1.740070e+01
-1.862004e+01
-1.988059e+01
-2.117310e+01
-2.245224e+01
-2.364550e+01
-2.468359e+01
0.000000e+00
-1.318749e-01
-3.120890e-01
-5.411706e-01
-8.185558e-01
-1.142779e+00
-1.512122e+00
-1.924976e+00
-2.379973e+00
-2.876012e+00
-3.412295e+00
-3.988315e+00
-4.603797e+00
-5.258628e+00
-5.952817e+00
-6.686460e+00
-7.459749e+00
-8.272984e+00
-9.126513e+00
-1.002063e+01
-1.095555e+01
-1.193131e+01
-1.294771e+01
-1.400427e+01
-1.510017e+01
-1.623416e+01
-1.740432e+01
-1.860740e+01
-1.983716e+01
-2.107853e+01
-2.229124e+01
-2.341706e+01
-2.439736e+01
0.000000e+00
-1.322187e-01
-3.124854e-01
-5.411914e-01
-8.178881e-01
-1.141369e+00
-1.510089e+00
-1.922530e+00
-2.377335e+00
-2.873390e+00
-3.409882e+00
-3.986298e+00
-4.602348e+00
-5.257914e+00
-5.953014e+00
-6.687777e+00
-7.462434e+00
-8.277329e+00
-9.132835e+00
-1.002925e+01
-1.096672e+01
-1.194510e+01
-1.296382e+01
-1.402166e+01
-1.511672e+01
-1.624617e+01
-1.740588e+01
-1.858952e+01
-1.978697e+01
-2.098018e+01
-2.213509e+01
-2.320587e+01
-2.414517e+01
0.000000e+00
-1.321099e-01
-3.125679e-01
-5.419352e-01
-8.196740e-01
-1.144337e+00
-1.514216e+00
-1.927708e+00
-2.383446e+00
-2.880334e+00
-3.417601e+00
-3.994778e+00
-4.611599e+00
-5.267960e+00
-5.963902e+00
-6.699592e+00
-7.475296e+00
-8.291381e+00
-9.148235e+00
-1.004615e+01
-1.098523e+01
-1.196517e+01
-1.298498e+01
-1.404269e+01
-1.513523e+01
-1.625822e+01
-1.740559e+01
-1.856877e+01
-1.973549e+01
-2.088725e+01
-2.199588e+01
-2.302612e+01
-2.394165e+01
0.000000e+00
-1.313690e-01
-3.121165e-01
-5.433965e-01
-8.241243e-01
-1.151978e+00
-1.524763e+00
-1.940715e+00
-2.398422e+00
-2.896875e+00
-3.435413e+00
-4.013648e+00
-4.631380e+00
-5.288537e+00
-5.985196e+00
-6.721555e+00
-7.497900e+00
-8.314594e+00
-9.172017e+00
-1.007047e+01
-1.101007e+01
-1.199043e+01
-1.301019e+01
-1.406658e+01
-1.515539e+01
-1.627082e+01
-1.740522e+01
-1.854867e+01
-1.968823e+01
-2.080662e+01
-2.188114e+01
-2.288529e+01
-2.379194e+01
0.000000e+00
-1.294301e-01
-3.104001e-01
-5.457937e-01
-8.323027e-01
-1.165316e+00
-1.542712e+00
-1.962348e+00
-2.422785e+00
-2.923343e+00
-3.463484e+00
-4.042934e+00
-4.661616e+00
-5.319505e+00
-6.016713e+00
-6.753468e+00
-7.530042e+00
-8.346756e+00
-9.203958e+00
-1.010198e+01
-1.104103e+01
-1.202077e+01
-1.303951e+01
-1.409373e+01
-1.517811e+01
-1.628560e+01
-1.740743e+01
-1.853304e+01
-1.964977e+01
-2.074242e+01
-2.179323e+01
-2.278294e+01
-2.369221e+01
0.000000e+00
-1.245927e-01
-3.063254e-01
-5.510410e-01
-8.464198e-01
-1.186641e+00
-1.569892e+00
-1.993948e+00
-2.457485e+00
-2.960313e+00
-3.502146e+00
-4.082790e+00
-4.702329e+00
-5.360826e+00
-6.058405e+00
-6.795309e+00
-7.571774e+00
-8.388047e+00
-9.244408e+00
-1.014121e+01
-1.107884e+01
-1.205712e+01
-1.307411e+01
-1.412554e+01
-1.520506e+01
-1.630465e+01
-1.741488e+01
-1.852501e+01
-1.962315e+01
-2.069632e+01
-2.173106e+01
-2.271444e+01
-2.363454e+01
0.000000e+00
-1.140710e-01
-3.058779e-01
-5.644846e-01
-8.723247e-01
-1.220182e+00
-1.609172e+00
-2.037583e+00
-2.503794e+00
-3.008553e+00
-3.551849e+00
-4.133426e+00
-4.753604e+00
-5.412536e+00
-6.110317e+00
-6.847195e+00
-7.623361e+00
-8.438974e+00
-9.294225e+00
-1.018946e+01
-1.112522e+01
-1.210144e+01
-1.311598e+01
-1.416389e+01
-1.523804e+01
-1.632981e+01
-1.742945e+01
-1.852643e+01
-1.960964e+01
-2.066803e+01
-2.169170e+01
-2.267336e+01
-2.360903e+01
0.000000e+00
-1.169902e-01
-3.311125e-01
-6.030115e-01
-9.192561e-01
-1.272284e+00
-1.664522e+00
-2.095344e+00
-2.563049e+00
-3.068795e+00
-3.612837e+00
-4.194884e+00
-4.815357e+00
-5.474475e+00
-6.172299e+00
-6.909049e+00
-7.684873e+00
-8.499859e+00
-9.354139e+00
-1.024801e+01
-1.118196e+01
-1.215581e+01
-1.316708e+01
-1.421038e+01
-1.527823e+01
-1.636185e+01
-1.745164e+01
-1.853736e+01
-1.960860e+01
-2.065567e+01
-2.167123e+01
-2.265264e+01
-2.360420e+01
0.000000e+00
-1.512721e-01
-3.908313e-01
-6.674537e-01
-9.865293e-01
-1.341395e+00
-1.735061e+00
-2.166467e+00
-2.634642e+00
-3.140756e+00
-3.684916e+00
-4.267023e+00
-4.887521e+00
-5.546582e+00
-6.244278e+00
-6.980805e+00
-7.756261e+00
-8.570706e+00
-9.424276e+00
-1.031723e+01
-1.124977e+01
-1.222111e+01
-1.322817e+01
-1.426539e+01
-1.532548e+01
-1.640010e+01
-1.748009e+01
-1.855569e+01
-1.961705e+01
-2.065531e+01
-2.166459e+01
-2.264512e+01
-2.360765e+01
0.000000e+00
-2.431630e-01
-4.712623e-01
-7.526145e-01
-1.069964e+00
-1.424361e+00
-1.819173e+00
-2.249842e+00
-2.717897e+00
-3.224326e+00
-3.768186e+00
-4.350113e+00
-4.970565e+00
-5.629403e+00
-6.326842e+00
-7.063087e+00
-7.838142e+00
-8.652077e+00
-9.505068e+00
-1.039733e+01
-1.132861e+01
-1.229708e+01
-1.329879e+01