TITLE = "Solution"
VARIABLES = x, y, u, v, psiu, psiv, t, stress
ZONE T="structure" N=561 E=512 F=FEBLOCK ET=QUADRILATERAL VARLOCATION=([7,8]=cellcentered)
0.000000e+00
6.250000e+00
1.250000e+01
1.875000e+01
2.500000e+01
3.125000e+01
3.750000e+01
4.375000e+01
5.000000e+01
5.625000e+01
6.250000e+01
6.875000e+01
7.500000e+01
8.125000e+01
8.750000e+01
9.375000e+01
1.000000e+02
1.062500e+02
1.125000e+02
1.187500e+02
1.250000e+02
1.312500e+02
1.375000e+02
1.437500e+02
1.500000e+02
1.562500e+02
1.625000e+02
1.687500e+02
1.750000e+02
1.812500e+02
1.875000e+02
1.937500e+02
2.000000e+02
0.000000e+00
6.250000e+00
1.250000e+01
1.875000e+01
2.500000e+01
3.125000e+01
3.750000e+01
4.375000e+01
5.000000e+01
5.625000e+01
6.250000e+01
6.875000e+01
7.500000e+01
8.125000e+01
8.750000e+01
9.375000e+01
1.000000e+02
1.062500e+02
1.125000e+02
1.187500e+02
1.250000e+02
1.312500e+02
1.375000e+02
1.437500e+02
1.500000e+02
1.562500e+02
1.625000e+02
1.687500e+02
1.750000e+02
1.812500e+02
1.875000e+02
1.937500e+02
2.000000e+02
0.000000e+00
6.250000e+00
1.250000e+01
1.875000e+01
2.500000e+01
3.125000e+01
3.750000e+01
4.375000e+01
5.000000e+01
5.625000e+01
6.250000e+01
6.875000e+01
7.500000e+01
8.125000e+01
8.750000e+01
9.375000e+01
1.000000e+02
1.062500e+02
1.125000e+02
1.187500e+02
1.250000e+02
1.312500e+02
1.375000e+02
1.437500e+02
1.500000e+02
1.562500e+02
1.625000e+02
1.687500e+02
1.750000e+02
1.812500e+02
1.875000e+02
1.937500e+02
2.000000e+02
0.000000e+00
6.250000e+00
1.250000e+01
1.875000e+01
2.500000e+01
3.125000e+01
3.750000e+01
4.375000e+01
5.000000e+01
5.625000e+01
6.250000e+01
6.875000e+01
7.500000e+01
8.125000e+01
8.750000e+01
9.375000e+01
1.000000e+02
1.062500e+02
1.125000e+02
1.187500e+02
1.250000e+02
1.312500e+02
1.375000e+02
1.437500e+02
1.500000e+02
1.562500e+02
1.625000e+02
1.687500e+02
1.750000e+02
1.812500e+02
1.875000e+02
1.937500e+02
2.000000e+02
0.000000e+00
6.250000e+00
1.250000e+01
1.875000e+01
2.500000e+01
3.125000e+01
3.750000e+01
4.375000e+01
5.000000e+01
5.625000e+01
6.250000e+01
6.875000e+01
7.500000e+01
8.125000e+01
8.750000e+01
9.375000e+01
1.000000e+02
1.062500e+02
1.125000e+02
1.187500e+02
1.250000e+02
1.312500e+02
1.375000e+02
1.437500e+02
1.500000e+02
1.562500e+02
1.625000e+02
1.687500e+02
1.750000e+02
1.812500e+02
1.875000e+02
1.937500e+02
2.000000e+02
0.000000e+00
6.250000e+00
1.250000e+01
1.875000e+01
2.500000e+01
3.125000e+01
3.750000e+01
4.375000e+01
5.000000e+01
5.625000e+01
6.250000e+01
6.875000e+01
7.500000e+01
8.125000e+01
8.750000e+01
9.375000e+01
1.000000e+02
1.062500e+02
1.125000e+02
1.187500e+02
1.250000e+02
1.312500e+02
1.375000e+02
1.437500e+02
1.500000e+02
1.562500e+02
1.625000e+02
1.687500e+02
1.750000e+02
1.812500e+02
1.875000e+02
1.937500e+02
2.000000e+02
0.000000e+00
6.250000e+00
1.250000e+01
1.875000e+01
2.500000e+01
3.125000e+01
3.750000e+01
4.375000e+01
5.000000e+01
5.625000e+01
6.250000e+01
6.875000e+01
7.500000e+01
8.125000e+01
8.750000e+01
9.375000e+01
1.000000e+02
1.062500e+02
1.125000e+02
1.187500e+02
1.250000e+02
1.312500e+02
1.375000e+02
1.437500e+02
1.500000e+02
1.562500e+02
1.625000e+02
1.687500e+02
1.750000e+02
1.812500e+02
1.875000e+02
1.937500e+02
2.000000e+02
0.000000e+00
6.250000e+00
1.250000e+01
1.875000e+01
2.500000e+01
3.125000e+01
3.750000e+01
4.375000e+01
5.000000e+01
5.625000e+01
6.250000e+01
6.875000e+01
7.500000e+01
8.125000e+01
8.750000e+01
9.375000e+01
1.000000e+02
1.062500e+02
1.125000e+02
1.187500e+02
1.250000e+02
1.312500e+02
1.375000e+02
1.437500e+02
1.500000e+02
1.562500e+02
1.625000e+02
1.687500e+02
1.750000e+02
1.812500e+02
1.875000e+02
1.937500e+02
2.000000e+02
0.000000e+00
6.250000e+00
1.250000e+01
1.875000e+01
2.500000e+01
3.125000e+01
3.750000e+01
4.375000e+01
5.000000e+01
5.625000e+01
6.250000e+01
6.875000e+01
7.500000e+01
8.125000e+01
8.750000e+01
9.375000e+01
1.000000e+02
1.062500e+02
1.125000e+02
1.187500e+02
1.250000e+02
1.312500e+02
1.375000e+02
1.437500e+02
1.500000e+02
1.562500e+02
1.625000e+02
1.687500e+02
1.750000e+02
1.812500e+02
1.875000e+02
1.937500e+02
2.000000e+02
0.000000e+00
6.250000e+00
1.250000e+01
1.875000e+01
2.500000e+01
3.125000e+01
3.750000e+01
4.375000e+01
5.000000e+01
5.625000e+01
6.250000e+01
6.875000e+01
7.500000e+01
8.125000e+01
8.750000e+01
9.375000e+01
1.000000e+02
1.062500e+02
1.125000e+02
1.187500e+02
1.250000e+02
1.312500e+02
1.375000e+02
1.437500e+02
1.500000e+02
1.562500e+02
1.625000e+02
1.687500e+02
1.750000e+02
1.812500e+02
1.875000e+02
1.937500e+02
2.000000e+02
0.000000e+00
6.250000e+00
1.250000e+01
1.875000e+01
2.500000e+01
3.125000e+01
3.750000e+01
4.375000e+01
5.000000e+01
5.625000e+01
6.250000e+01
6.875000e+01
7.500000e+01
8.125000e+01
8.750000e+01
9.375000e+01
1.000000e+02
1.062500e+02
1.125000e+02
1.187500e+02
1.250000e+02
1.312500e+02
1.375000e+02
1.437500e+02
1.500000e+02
1.562500e+02
1.625000e+02
1.687500e+02
1.750000e+02
1.812500e+02
1.875000e+02
1.937500e+02
2.000000e+02
0.000000e+00
6.250000e+00
1.250000e+01
1.875000e+01
2.500000e+01
3.125000e+01
3.750000e+01
4.375000e+01
5.000000e+01
5.625000e+01
6.250000e+01
6.875000e+01
7.500000e+01
8.125000e+01
8.750000e+01
9.375000e+01
1.000000e+02
1.062500e+02
1.125000e+02
1.187500e+02
1.250000e+02
1.312500e+02
1.375000e+02
1.437500e+02
1.500000e+02
1.562500e+02
1.625000e+02
1.687500e+02
1.750000e+02
1.812500e+02
1.875000e+02
1.937500e+02
2.000000e+02
0.000000e+00
6.250000e+00
1.250000e+01
1.875000e+01
2.500000e+01
3.125000e+01
3.750000e+01
4.375000e+01
5.000000e+01
5.625000e+01
6.250000e+01
6.875000e+01
7.500000e+01
8.125000e+01
8.750000e+01
9.375000e+01
1.000000e+02
1.062500e+02
1.125000e+02
1.187500e+02
1.250000e+02
1.312500e+02
1.375000e+02
1.437500e+02
1.500000e+02
1.562500e+02
1.625000e+02
1.687500e+02
1.750000e+02
1.812500e+02
1.875000e+02
1.937500e+02
2.000000e+02
0.000000e+00
6.250000e+00
1.250000e+01
1.875000e+01
2.500000e+01
3.125000e+01
3.750000e+01
4.375000e+01
5.000000e+01
5.625000e+01
6.250000e+01
6.875000e+01
7.500000e+01
8.125000e+01
8.750000e+01
9.375000e+01
1.000000e+02
1.062500e+02
1.125000e+02
1.187500e+02
1.250000e+02
1.312500e+02
1.375000e+02
1.437500e+02
1.500000e+02
1.562500e+02
1.625000e+02
1.687500e+02
1.750000e+02
1.812500e+02
1.875000e+02
1.937500e+02
2.000000e+02
0.000000e+00
6.250000e+00
1.250000e+01
1.875000e+01
2.500000e+01
3.125000e+01
3.750000e+01
4.375000e+01
5.000000e+01
5.625000e+01
6.250000e+01
6.875000e+01
7.500000e+01
8.125000e+01
8.750000e+01
9.375000e+01
1.000000e+02
1.062500e+02
1.125000e+02
1.187500e+02
1.250000e+02
1.312500e+02
1.375000e+02
1.437500e+02
1.500000e+02
1.562500e+02
1.625000e+02
1.687500e+02
1.750000e+02
1.812500e+02
1.875000e+02
1.937500e+02
2.000000e+02
0.000000e+00
6.250000e+00
1.250000e+01
1.875000e+01
2.500000e+01
3.125000e+01
3.750000e+01
4.375000e+01
5.000000e+01
5.625000e+01
6.250000e+01
6.875000e+01
7.500000e+01
8.125000e+01
8.750000e+01
9.375000e+01
1.000000e+02
1.062500e+02
1.125000e+02
1.187500e+02
1.250000e+02
1.312500e+02
1.375000e+02
1.437500e+02
1.500000e+02
1.562500e+02
1.625000e+02
1.687500e+02
1.750000e+02
1.812500e+02
1.875000e+02
1.937500e+02
2.000000e+02
0.000000e+00
6.250000e+00
1.250000e+01
1.875000e+01
2.500000e+01
3.125000e+01
3.750000e+01
4.375000e+01
5.000000e+01
5.625000e+01
6.250000e+01
6.875000e+01
7.500000e+01
8.125000e+01
8.750000e+01
9.375000e+01
1.000000e+02
1.062500e+02
1.125000e+02
1.187500e+02
1.250000e+02
1.312500e+02
1.375000e+02
1.437500e+02
1.500000e+02
1.562500e+02
1.625000e+02
1.687500e+02
1.750000e+02
1.812500e+02
1.875000e+02
1.937500e+02
2.000000e+02
0.000000e+00
0.000000e+00
0.000000e+00
0.000000e+00
0.000000e+00
0.000000e+00
0.000000e+00
0.000000e+00
0.000000e+00
0.000000e+00
0.000000e+00
0.000000e+00
0.000000e+00
0.000000e+00
0.000000e+00
0.000000e+00
0.000000e+00
0.000000e+00
0.000000e+00
0.000000e+00
0.000000e+00
0.000000e+00
0.000000e+00
0.000000e+00
0.000000e+00
0.000000e+00
0.000000e+00
0.000000e+00
0.000000e+00
0.000000e+00
0.000000e+00
0.000000e+00
0.000000e+00
6.250000e+00
6.250000e+00
6.250000e+00
6.250000e+00
6.250000e+00
6.250000e+00
6.250000e+00
6.250000e+00
6.250000e+00
6.250000e+00
6.250000e+00
6.250000e+00
6.250000e+00
6.250000e+00
6.250000e+00
6.250000e+00
6.250000e+00
6.250000e+00
6.250000e+00
6.250000e+00
6.250000e+00
6.250000e+00
6.250000e+00
6.250000e+00
6.250000e+00
6.250000e+00
6.250000e+00
6.250000e+00
6.250000e+00
6.250000e+00
6.250000e+00
6.250000e+00
6.250000e+00
1.250000e+01
1.250000e+01
1.250000e+01
1.250000e+01
1.250000e+01
1.250000e+01
1.250000e+01
1.250000e+01
1.250000e+01
1.250000e+01
1.250000e+01
1.250000e+01
1.250000e+01
1.250000e+01
1.250000e+01
1.250000e+01
1.250000e+01
1.250000e+01
1.250000e+01
1.250000e+01
1.250000e+01
1.250000e+01
1.250000e+01
1.250000e+01
1.250000e+01
1.250000e+01
1.250000e+01
1.250000e+01
1.250000e+01
1.250000e+01
1.250000e+01
1.250000e+01
1.250000e+01
1.875000e+01
1.875000e+01
1.875000e+01
1.875000e+01
1.875000e+01
1.875000e+01
1.875000e+01
1.875000e+01
1.875000e+01
1.875000e+01
1.875000e+01
1.875000e+01
1.875000e+01
1.875000e+01
1.875000e+01
1.875000e+01
1.875000e+01
1.875000e+01
1.875000e+01
1.875000e+01
1.875000e+01
1.875000e+01
1.875000e+01
1.875000e+01
1.875000e+01
1.875000e+01
1.875000e+01
1.875000e+01
1.875000e+01
1.875000e+01
1.875000e+01
1.875000e+01
1.875000e+01
2.500000e+01
2.500000e+01
2.500000e+01
2.500000e+01
2.500000e+01
2.500000e+01
2.500000e+01
2.500000e+01
2.500000e+01
2.500000e+01
2.500000e+01
2.500000e+01
2.500000e+01
2.500000e+01
2.500000e+01
2.500000e+01
2.500000e+01
2.500000e+01
2.500000e+01
2.500000e+01
2.500000e+01
2.500000e+01
2.500000e+01
2.500000e+01
2.500000e+01
2.500000e+01
2.500000e+01
2.500000e+01
2.500000e+01
2.500000e+01
2.500000e+01
2.500000e+01
2.500000e+01
3.125000e+01
3.125000e+01
3.125000e+01
3.125000e+01
3.125000e+01
3.125000e+01
3.125000e+01
3.125000e+01
3.125000e+01
3.125000e+01
3.125000e+01
3.125000e+01
3.125000e+01
3.125000e+01
3.125000e+01
3.125000e+01
3.125000e+01
3.125000e+01
3.125000e+01
3.125000e+01
3.125000e+01
3.125000e+01
3.125000e+01
3.125000e+01
3.125000e+01
3.125000e+01
3.125000e+01
3.125000e+01
3.125000e+01
3.125000e+01
3.125000e+01
3.125000e+01
3.125000e+01
3.750000e+01
3.750000e+01
3.750000e+01
3.750000e+01
3.750000e+01
3.750000e+01
3.750000e+01
3.750000e+01
3.750000e+01
3.750000e+01
3.750000e+01
3.750000e+01
3.750000e+01
3.750000e+01
3.750000e+01
3.750000e+01
3.750000e+01
3.750000e+01
3.750000e+01
3.750000e+01
3.750000e+01
3.750000e+01
3.750000e+01
3.750000e+01
3.750000e+01
3.750000e+01
3.750000e+01
3.750000e+01
3.750000e+01
3.750000e+01
3.750000e+01
3.750000e+01
3.750000e+01
4.375000e+01
4.375000e+01
4.375000e+01
4.375000e+01
4.375000e+01
4.375000e+01
4.375000e+01
4.375000e+01
4.375000e+01
4.375000e+01
4.375000e+01
4.375000e+01
4.375000e+01
4.375000e+01
4.375000e+01
4.375000e+01
4.375000e+01
4.375000e+01
4.375000e+01
4.375000e+01
4.375000e+01
4.375000e+01
4.375000e+01
4.375000e+01
4.375000e+01
4.375000e+01
4.375000e+01
4.375000e+01
4.375000e+01
4.375000e+01
4.375000e+01
4.375000e+01
4.375000e+01
5.000000e+01
5.000000e+01
5.000000e+01
5.000000e+01
5.000000e+01
5.000000e+01
5.000000e+01
5.000000e+01
5.000000e+01
5.000000e+01
5.000000e+01
5.000000e+01
5.000000e+01
5.000000e+01
5.000000e+01
5.000000e+01
5.000000e+01
5.000000e+01
5.000000e+01
5.000000e+01
5.000000e+01
5.000000e+01
5.000000e+01
5.000000e+01
5.000000e+01
5.000000e+01
5.000000e+01
5.000000e+01
5.000000e+01
5.000000e+01
5.000000e+01
5.000000e+01
5.000000e+01
5.625000e+01
5.625000e+01
5.625000e+01
5.625000e+01
5.625000e+01
5.625000e+01
5.625000e+01
5.625000e+01
5.625000e+01
5.625000e+01
5.625000e+01
5.625000e+01
5.625000e+01
5.625000e+01
5.625000e+01
5.625000e+01
5.625000e+01
5.625000e+01
5.625000e+01
5.625000e+01
5.625000e+01
5.625000e+01
5.625000e+01
5.625000e+01
5.625000e+01
5.625000e+01
5.625000e+01
5.625000e+01
5.625000e+01
5.625000e+01
5.625000e+01
5.625000e+01
5.625000e+01
6.250000e+01
6.250000e+01
6.250000e+01
6.250000e+01
6.250000e+01
6.250000e+01
6.250000e+01
6.250000e+01
6.250000e+01
6.250000e+01
6.250000e+01
6.250000e+01
6.250000e+01
6.250000e+01
6.250000e+01
6.250000e+01
6.250000e+01
6.250000e+01
6.250000e+01
6.250000e+01
6.250000e+01
6.250000e+01
6.250000e+01
6.250000e+01
6.250000e+01
6.250000e+01
6.250000e+01
6.250000e+01
6.250000e+01
6.250000e+01
6.250000e+01
6.250000e+01
6.250000e+01
6.875000e+01
6.875000e+01
6.875000e+01
6.875000e+01
6.875000e+01
6.875000e+01
6.875000e+01
6.875000e+01
6.875000e+01
6.875000e+01
6.875000e+01
6.875000e+01
6.875000e+01
6.875000e+01
6.875000e+01
6.875000e+01
6.875000e+01
6.875000e+01
6.875000e+01
6.875000e+01
6.875000e+01
6.875000e+01
6.875000e+01
6.875000e+01
6.875000e+01
6.875000e+01
6.875000e+01
6.875000e+01
6.875000e+01
6.875000e+01
6.875000e+01
6.875000e+01
6.875000e+01
7.500000e+01
7.500000e+01
7.500000e+01
7.500000e+01
7.500000e+01
7.500000e+01
7.500000e+01
7.500000e+01
7.500000e+01
7.500000e+01
7.500000e+01
7.500000e+01
7.500000e+01
7.500000e+01
7.500000e+01
7.500000e+01
7.500000e+01
7.500000e+01
7.500000e+01
7.500000e+01
7.500000e+01
7.500000e+01
7.500000e+01
7.500000e+01
7.500000e+01
7.500000e+01
7.500000e+01
7.500000e+01
7.500000e+01
7.500000e+01
7.500000e+01
7.500000e+01
7.500000e+01
8.125000e+01
8.125000e+01
8.125000e+01
8.125000e+01
8.125000e+01
8.125000e+01
8.125000e+01
8.125000e+01
8.125000e+01
8.125000e+01
8.125000e+01
8.125000e+01
8.125000e+01
8.125000e+01
8.125000e+01
8.125000e+01
8.125000e+01
8.125000e+01
8.125000e+01
8.125000e+01
8.125000e+01
8.125000e+01
8.125000e+01
8.125000e+01
8.125000e+01
8.125000e+01
8.125000e+01
8.125000e+01
8.125000e+01
8.125000e+01
8.125000e+01
8.125000e+01
8.125000e+01
8.750000e+01
8.750000e+01
8.750000e+01
8.750000e+01
8.750000e+01
8.750000e+01
8.750000e+01
8.750000e+01
8.750000e+01
8.750000e+01
8.750000e+01
8.750000e+01
8.750000e+01
8.750000e+01
8.750000e+01
8.750000e+01
8.750000e+01
8.750000e+01
8.750000e+01
8.750000e+01
8.750000e+01
8.750000e+01
8.750000e+01
8.750000e+01
8.750000e+01
8.750000e+01
8.750000e+01
8.750000e+01
8.750000e+01
8.750000e+01
8.750000e+01
8.750000e+01
8.750000e+01
9.375000e+01
9.375000e+01
9.375000e+01
9.375000e+01
9.375000e+01
9.375000e+01
9.375000e+01
9.375000e+01
9.375000e+01
9.375000e+01
9.375000e+01
9.375000e+01
9.375000e+01
9.375000e+01
9.375000e+01
9.375000e+01
9.375000e+01
9.375000e+01
9.375000e+01
9.375000e+01
9.375000e+01
9.375000e+01
9.375000e+01
9.375000e+01
9.375000e+01
9.375000e+01
9.375000e+01
9.375000e+01
9.375000e+01
9.375000e+01
9.375000e+01
9.375000e+01
9.375000e+01
1.000000e+02
1.000000e+02
1.000000e+02
1.000000e+02
1.000000e+02
1.000000e+02
1.000000e+02
1.000000e+02
1.000000e+02
1.000000e+02
1.000000e+02
1.000000e+02
1.000000e+02
1.000000e+02
1.000000e+02
1.000000e+02
1.000000e+02
1.000000e+02
1.000000e+02
1.000000e+02
1.000000e+02
1.000000e+02
1.000000e+02
1.000000e+02
1.000000e+02
1.000000e+02
1.000000e+02
1.000000e+02
1.000000e+02
1.000000e+02
1.000000e+02
1.000000e+02
1.000000e+02
0.000000e+00
-4.210298e-02
-7.639026e-02
-1.081526e-01
-1.386355e-01
-1.680713e-01
-1.965192e-01
-2.239767e-01
-2.504264e-01
-2.758491e-01
-3.002289e-01
-3.235548e-01
-3.458211e-01
-3.670274e-01
-3.871785e-01
-4.062851e-01
-4.243644e-01
-4.414411e-01
-4.575497e-01
-4.727364e-01
-4.870631e-01
-5.006113e-01
-5.134891e-01
-5.258395e-01
-5.378545e-01
-5.497947e-01
-5.620222e-01
-5.750534e-01
-5.896459e-01
-6.069142e-01
-6.283045e-01
-6.537958e-01
-6.693529e-01
0.000000e+00
-2.822892e-02
-5.873330e-02
-8.749490e-02
-1.148317e-01
-1.410040e-01
-1.661500e-01
-1.903303e-01
-2.135691e-01
-2.358740e-01
-2.572466e-01
-2.776870e-01
-2.971961e-01
-3.157769e-01
-3.334358e-01
-3.501826e-01
-3.660314e-01
-3.810019e-01
-3.951200e-01
-4.084193e-01
-4.209430e-01
-4.327451e-01
-4.438929e-01
-4.544685e-01
-4.645705e-01
-4.743117e-01
-4.838115e-01
-4.931683e-01
-5.023814e-01
-5.111510e-01
-5.184585e-01
-5.227308e-01
-5.286785e-01
0.000000e+00
-2.239125e-02
-4.609777e-02
-7.023477e-02
-9.368847e-02
-1.162778e-01
-1.379885e-01
-1.588409e-01
-1.788537e-01
-1.980393e-01
-2.164059e-01
-2.339593e-01
-2.507042e-01
-2.666458e-01
-2.817898e-01
-2.961436e-01
-3.097165e-01
-3.225203e-01
-3.345693e-01
-3.458808e-01
-3.564744e-01
-3.663716e-01
-3.755936e-01
-3.841566e-01
-3.920641e-01
-3.992906e-01
-4.057536e-01
-4.112628e-01
-4.154456e-01
-4.176979e-01
-4.175005e-01
-4.162357e-01
-4.231811e-01
0.000000e+00
-1.776547e-02
-3.651209e-02
-5.577190e-02
-7.498657e-02
-9.373582e-02
-1.118591e-01
-1.292988e-01
-1.460393e-01
-1.620800e-01
-1.774249e-01
-1.920793e-01
-2.060480e-01
-2.193355e-01
-2.319457e-01
-2.438821e-01
-2.551480e-01
-2.657463e-01
-2.756791e-01
-2.849472e-01
-2.935479e-01
-3.014736e-01
-3.087066e-01
-3.152132e-01
-3.209334e-01
-3.257663e-01
-3.295517e-01
-3.320585e-01
-3.330157e-01
-3.323051e-01
-3.305794e-01
-3.304764e-01
-3.370936e-01
0.000000e+00
-1.378848e-02
-2.823411e-02
-4.314120e-02
-5.816939e-02
-7.301326e-02
-8.746800e-02
-1.014299e-01
-1.148519e-01
-1.277157e-01
-1.400167e-01
-1.517554e-01
-1.629342e-01
-1.735549e-01
-1.836181e-01
-1.931230e-01
-2.020666e-01
-2.104436e-01
-2.182452e-01
-2.254584e-01
-2.320639e-01
-2.380333e-01
-2.433259e-01
-2.478835e-01
-2.516255e-01
-2.544462e-01
-2.562211e-01
-2.568437e-01
-2.563329e-01
-2.550831e-01
-2.542722e-01
-2.561447e-01
-2.617895e-01
0.000000e+00
-1.013373e-02
-2.070163e-02
-3.160905e-02
-4.266751e-02
-5.367059e-02
-6.445442e-02
-7.491246e-02
-8.498626e-02
-9.464739e-02
-1.038838e-01
-1.126914e-01
-1.210685e-01
-1.290138e-01
-1.365241e-01
-1.435942e-01
-1.502157e-01
-1.563764e-01
-1.620597e-01
-1.672434e-01
-1.718982e-01
-1.759864e-01
-1.794603e-01
-1.822616e-01
-1.843237e-01
-1.855820e-01
-1.859995e-01
-1.856248e-01
-1.847015e-01
-1.838230e-01
-1.840369e-01
-1.864240e-01
-1.910947e-01
0.000000e+00
-6.669215e-03
-1.360223e-02
-2.075517e-02
-2.802605e-02
-3.529248e-02
-4.244487e-02
-4.940335e-02
-5.611792e-02
-6.256100e-02
-6.871867e-02
-7.458390e-02
-8.015220e-02
-8.541895e-02
-9.037778e-02
-9.501963e-02
-9.933197e-02
-1.032982e-01
-1.068971e-01
-1.101021e-01
-1.128811e-01
-1.151963e-01
-1.170057e-01
-1.182665e-01
-1.189440e-01
-1.190281e-01
-1.185649e-01
-1.177077e-01
-1.167828e-01
-1.163344e-01
-1.170340e-01
-1.193580e-01
-1.231283e-01
0.000000e+00
-3.312597e-03
-6.750429e-03
-1.029583e-02
-1.390402e-02
-1.751799e-02
-2.108363e-02
-2.455856e-02
-2.791418e-02
-3.113300e-02
-3.420467e-02
-3.712233e-02
-3.988000e-02
-4.247086e-02
-4.488608e-02
-4.711404e-02
-4.913982e-02
-5.094470e-02
-5.250600e-02
-5.379713e-02
-5.478824e-02
-5.544796e-02
-5.574681e-02
-5.566368e-02
-5.519696e-02
-5.438224e-02
-5.331814e-02
-5.219692e-02
-5.132653e-02
-5.110849e-02
-5.192920e-02
-5.395664e-02
-5.694824e-02
0.000000e+00
-5.344548e-06
-1.158850e-05
-1.838597e-05
-2.537938e-05
-3.208666e-05
-3.778126e-05
-4.135909e-05
-4.118302e-05
-3.489560e-05
-1.919311e-05
1.044327e-05
6.005861e-05
1.375709e-04
2.531365e-04
4.195032e-04
6.522951e-04
9.701428e-04
1.394517e-03
1.949054e-03
2.658055e-03
3.543702e-03
4.621358e-03
5.892192e-03
7.332397e-03
8.878885e-03
1.041325e-02
1.175005e-02
1.264241e-02
1.282338e-02
1.209472e-02
1.044455e-02
8.133388e-03
0.000000e+00
3.302530e-03
6.728558e-03
1.026106e-02
1.385591e-02
1.745699e-02
2.101154e-02
2.447923e-02
2.783452e-02
3.106432e-02
3.416447e-02
3.713660e-02
3.998611e-02
4.272107e-02
4.535181e-02
4.789083e-02
5.035279e-02
5.275442e-02
5.511403e-02
5.745046e-02
5.978118e-02
6.211903e-02
6.446733e-02
6.681305e-02
6.911806e-02
7.130962e-02
7.327301e-02
7.485217e-02
7.586682e-02
7.615408e-02
7.563383e-02
7.438027e-02
7.266494e-02
0.000000e+00
6.660991e-03
1.358423e-02
2.072637e-02
2.798589e-02
3.524108e-02
4.238341e-02
4.933463e-02
5.604718e-02
6.249702e-02
6.867520e-02
7.458159e-02
8.022097e-02
8.560094e-02
9.073093e-02
9.562188e-02
1.002860e-01
1.047367e-01
1.089876e-01
1.130521e-01
1.169406e-01
1.206580e-01
1.241993e-01
1.275440e-01
1.306502e-01
1.334489e-01
1.358428e-01
1.377125e-01
1.389363e-01
1.394256e-01
1.391740e-01
1.383066e-01
1.371094e-01
0.000000e+00
1.012849e-02
2.068995e-02
3.159002e-02
4.264049e-02
5.363532e-02
6.441126e-02
7.486278e-02
8.493294e-02
9.459552e-02
1.038417e-01
1.126717e-01
1.210900e-01
1.291032e-01
1.367188e-01
1.439449e-01
1.507900e-01
1.572628e-01
1.633717e-01
1.691235e-01
1.745225e-01
1.795673e-01
1.842481e-01
1.885429e-01
1.924138e-01
1.958044e-01
1.986417e-01
2.008437e-01
2.023370e-01
2.030853e-01
2.031274e-01
2.026186e-01
2.018619e-01
0.000000e+00
1.378718e-02
2.823085e-02
4.313537e-02
5.816038e-02
7.300055e-02
8.745127e-02
1.014091e-01
1.148274e-01
1.276887e-01
1.399892e-01
1.517310e-01
1.629185e-01
1.735561e-01
1.836485e-01
1.931998e-01
2.022135e-01
2.106926e-01
2.186391e-01
2.260535e-01
2.329334e-01
2.392726e-01
2.450589e-01
2.502722e-01
2.548833e-01
2.588535e-01
2.621373e-01
2.646895e-01
2.664781e-01
2.675057e-01
2.678390e-01
2.676479e-01
2.672494e-01
0.000000e+00
1.776877e-02
3.651880e-02
5.578188e-02
7.499954e-02
9.375141e-02
1.118768e-01
1.293176e-01
1.460579e-01
1.620961e-01
1.774350e-01
1.920783e-01
2.060286e-01
2.192875e-01
2.318553e-01
2.437310e-01
2.549122e-01
2.653953e-01
2.751752e-01
2.842449e-01
2.925954e-01
3.002148e-01
3.070888e-01
3.132000e-01
3.185290e-01
3.230557e-01
3.267632e-01
3.296431e-01
3.317042e-01
3.329851e-01
3.335743e-01
3.336446e-01
3.335123e-01
0.000000e+00
2.239930e-02
4.611496e-02
7.026171e-02
9.372565e-02
1.163257e-01
1.380471e-01
1.589097e-01
1.789306e-01
1.981203e-01
2.164842e-01
2.340236e-01
2.507373e-01
2.666222e-01
2.816734e-01
2.958839e-01
3.092451e-01
3.217460e-01
3.333734e-01
3.441119e-01
3.539437e-01
3.628499e-01
3.708110e-01
3.778091e-01
3.838311e-01
3.888723e-01
3.929419e-01
3.960685e-01
3.983062e-01
3.997394e-01
4.004895e-01
4.007338e-01
4.007630e-01
0.000000e+00
2.824101e-02
5.875972e-02
8.753740e-02
1.148924e-01
1.410849e-01
1.662529e-01
1.904562e-01
2.137175e-01
2.360419e-01
2.574272e-01
2.778672e-01
2.973545e-01
3.158799e-01
3.334331e-01
3.500015e-01
3.655700e-01
3.801203e-01
3.936305e-01
4.060752e-01
4.174256e-01
4.276512e-01
4.367218e-01
4.446114e-01
4.513035e-01
4.567986e-01
4.611227e-01
4.643366e-01
4.665444e-01
4.678971e-01
4.685883e-01
4.688389e-01
4.689002e-01
0.000000e+00
4.211622e-02
7.642116e-02
1.082055e-01
1.387147e-01
1.681812e-01
1.966642e-01
2.241610e-01
2.506534e-01
2.761202e-01
3.005418e-01
3.239011e-01
3.461833e-01
3.673740e-01
3.874585e-01
4.064200e-01
4.242384e-01
4.408887e-01
4.563407e-01
4.705576e-01
4.834966e-01
4.951102e-01
5.053486e-01
5.141647e-01
5.215221e-01
5.274061e-01
5.318376e-01
5.348904e-01
5.367100e-01
5.375299e-01
5.376789e-01
5.375554e-01
5.374860e-01
0.000000e+00
-2.601884e-02
-4.540849e-02
-6.656727e-02
-9.012883e-02
-1.167440e-01
-1.465976e-01
-1.797417e-01
-2.161432e-01
-2.557241e-01
-2.983795e-01
-3.439886e-01
-3.924214e-01
-4.435423e-01
-4.972130e-01
-5.532944e-01
-6.116480e-01
-6.721379e-01
-7.346327e-01
-7.990087e-01
-8.651537e-01
-9.329736e-01
-1.002401e+00
-1.073409e+00
-1.146033e+00
-1.220408e+00
-1.296829e+00
-1.375873e+00
-1.458644e+00
-1.547327e+00
-1.646635e+00
-1.767691e+00
-1.934934e+00
0.000000e+00
-1.616972e-02
-3.646557e-02
-5.776708e-02
-8.165705e-02
-1.085613e-01
-1.387051e-01
-1.721393e-01
-2.088337e-01
-2.487105e-01
-2.916640e-01
-3.375725e-01
-3.863049e-01
-4.377245e-01
-4.916918e-01
-5.480660e-01
-6.067072e-01
-6.674772e-01
-7.302423e-01
-7.948756e-01
-8.612610e-01
-9.292995e-01
-9.989176e-01
-1.070081e+00
-1.142815e+00
-1.217242e+00
-1.293642e+00
-1.372575e+00
-1.455120e+00
-1.543426e+00
-1.641967e+00
-1.760328e+00
-1.916576e+00
0.000000e+00
-1.187759e-02
-2.939837e-02
-5.040930e-02
-7.434100e-02
-1.014435e-01
-1.318252e-01
-1.655142e-01
-2.024700e-01
-2.426109e-01
-2.858296e-01
-3.320035e-01
-3.810007e-01
-4.326842e-01
-4.869137e-01
-5.435482e-01
-6.024469e-01
-6.634711e-01
-7.264858e-01
-7.913632e-01
-8.579863e-01
-9.262554e-01
-9.960965e-01
-1.067476e+00
-1.140424e+00
-1.215067e+00
-1.291700e+00
-1.370896e+00
-1.453721e+00
-1.542110e+00
-1.639369e+00
-1.749403e+00
-1.871465e+00
0.000000e+00
-9.511070e-03
-2.489449e-02
-4.478501e-02
-6.840915e-02
-9.550327e-02
-1.260149e-01
-1.598926e-01
-1.970635e-01
-2.374308e-01
-2.808804e-01
-3.272867e-01
-3.765166e-01
-4.284328e-01
-4.828954e-01
-5.397635e-01
-5.988969e-01
-6.601572e-01
-7.234105e-01
-7.885298e-01
-8.553998e-01
-9.239229e-01
-9.940291e-01
-1.065690e+00
-1.138942e+00
-1.213921e+00
-1.290915e+00
-1.370453e+00
-1.453409e+00
-1.541056e+00
-1.634617e+00
-1.733293e+00
-1.825151e+00
0.000000e+00
-8.047930e-03
-2.194911e-02
-4.079109e-02
-6.387671e-02
-9.079319e-02
-1.213163e-01
-1.553041e-01
-1.926338e-01
-2.331834e-01
-2.768261e-01
-3.234304e-01
-3.728610e-01
-4.249800e-01
-4.796480e-01
-5.367253e-01
-5.960729e-01
-6.575541e-01
-7.210366e-01
-7.863959e-01
-8.535189e-01
-9.223113e-01
-9.927059e-01
-1.064676e+00
-1.138256e+00
-1.213564e+00
-1.290835e+00
-1.370451e+00
-1.452914e+00
-1.538628e+00
-1.627184e+00
-1.715331e+00
-1.795329e+00
0.000000e+00
-7.116920e-03
-2.001657e-02
-3.804266e-02
-6.060861e-02
-8.727295e-02
-1.177297e-01
-1.517610e-01
-1.891953e-01
-2.298815e-01
-2.736772e-01
-3.204431e-01
-3.700406e-01
-4.223312e-01
-4.771762e-01
-5.344372e-01
-5.939771e-01
-6.556611e-01
-7.193593e-01
-7.849488e-01
-8.523185e-01
-9.213743e-01
-9.920472e-01
-1.064303e+00
-1.138154e+00
-1.213673e+00
-1.290991e+00
-1.370276e+00
-1.451620e+00
-1.534748e+00
-1.618394e+00
-1.699570e+00
-1.773763e+00
0.000000e+00
-6.538308e-03
-1.879473e-02
-3.625612e-02
-5.841922e-02
-8.485379e-02
-1.152201e-01
-1.492557e-01
-1.867517e-01
-2.275325e-01
-2.714410e-01
-3.183304e-01
-3.680589e-01
-4.204873e-01
-4.754779e-01
-5.328937e-01
-5.925995e-01
-6.544625e-01
-7.183541e-01
-7.841523e-01
-8.517449e-01
-9.210343e-01
-9.919419e-01
-1.064414e+00
-1.138427e+00
-1.213980e+00
-1.291082e+00
-1.369687e+00
-1.449569e+00
-1.530078e+00
-1.609821e+00
-1.686499e+00
-1.757294e+00
0.000000e+00
-6.220353e-03
-1.811675e-02
-3.524936e-02
-5.716379e-02
-8.344465e-02
-1.137413e-01
-1.477694e-01
-1.852988e-01
-2.261381e-01
-2.701205e-01
-3.170940e-01
-3.669151e-01
-4.194444e-01
-4.745452e-01
-5.320821e-01
-5.919215e-01
-6.539317e-01
-7.179846e-01
-7.839568e-01
-8.517323e-01
-9.212048e-01
-9.922795e-01
-1.064875e+00
-1.138917e+00
-1.214331e+00
-1.291006e+00
-1.368731e+00
-1.447094e+00
-1.525322e+00
-1.602159e+00
-1.675876e+00
-1.744551e+00
0.000000e+00
-6.117908e-03
-1.789802e-02
-3.492306e-02
-5.675464e-02
-8.298346e-02
-1.132569e-01
-1.472844e-01
-1.848297e-01
-2.256963e-01
-2.697147e-01
-3.167320e-01
-3.666047e-01
-4.191944e-01
-4.743656e-01
-5.319845e-01
-5.919185e-01
-6.540364e-01
-7.182088e-01
-7.843094e-01
-8.522152e-01
-9.218072e-01
-9.929700e-01
-1.065589e+00
-1.139540e+00
-1.214678e+00
-1.290798e+00
-1.367586e+00
-1.444547e+00
-1.520921e+00
-1.595647e+00
-1.667404e+00
-1.734785e+00
0.000000e+00
-6.217389e-03
-1.811264e-02
-3.524582e-02
-5.716272e-02
-8.344841e-02
-1.137530e-01
-1.477931e-01
-1.853400e-01
-2.262040e-01
-2.702202e-01
-3.172392e-01
-3.671199e-01
-4.197262e-01
-4.749240e-01
-5.325808e-01
-5.925644e-01
-6.547432e-01
-7.189859e-01
-7.851610e-01
-8.531367e-01
-9.227795e-01
-9.939512e-01
-1.066504e+00
-1.140269e+00
-1.215043e+00
-1.290558e+00
-1.366444e+00
-1.442193e+00
-1.517113e+00
-1.590328e+00
-1.660818e+00
-1.727506e+00
0.000000e+00
-6.532622e-03
-1.878684e-02
-3.624929e-02
-5.841708e-02
-8.486085e-02
-1.152423e-01
-1.493009e-01
-1.868305e-01
-2.276585e-01
-2.716319e-01
-3.186084e-01
-3.684515e-01
-4.210276e-01
-4.762046e-01
-5.338508e-01
-5.938341e-01
-6.560218e-01
-7.202796e-01
-7.864704e-01
-8.544527e-01
-9.240780e-01
-9.951865e-01
-1.067600e+00
-1.141114e+00
-1.215481e+00
-1.290395e+00
-1.365465e+00
-1.440202e+00
-1.514002e+00
-1.586156e+00
-1.655877e+00
-1.722339e+00
0.000000e+00
-7.109016e-03
-2.000560e-02
-3.803312e-02
-6.060552e-02
-8.728262e-02
-1.177604e-01
-1.518239e-01
-1.893050e-01
-2.300572e-01
-2.739437e-01
-3.208314e-01
-3.705894e-01
-4.230868e-01
-4.781931e-01
-5.357772e-01
-5.957066e-01
-6.578473e-01
-7.220616e-01
-7.882068e-01
-8.561323e-01
-9.256760e-01
-9.966590e-01
-1.068880e+00
-1.142103e+00
-1.216055e+00
-1.290405e+00
-1.364764e+00
-1.438674e+00
-1.511621e+00
-1.583042e+00
-1.652353e+00
-1.718952e+00
0.000000e+00
-8.038619e-03
-2.193620e-02
-4.077986e-02
-6.387314e-02
-9.080489e-02
-1.213534e-01
-1.553799e-01
-1.927663e-01
-2.333957e-01
-2.771481e-01
-3.238999e-01
-3.735246e-01
-4.258940e-01
-4.808786e-01
-5.383473e-01
-5.981673e-01
-6.602027e-01
-7.243130e-01
-7.903506e-01
-8.581571e-01
-9.275594e-01
-9.983641e-01
-1.070351e+00
-1.143266e+00
-1.216814e+00
-1.290657e+00
-1.364410e+00
-1.437653e+00
-1.509949e+00
-1.580868e+00
-1.650013e+00
-1.717014e+00
0.000000e+00
-9.501501e-03
-2.488123e-02
-4.477358e-02
-6.840608e-02
-9.551701e-02
-1.260567e-01
-1.599773e-01
-1.972108e-01
-2.376664e-01
-2.812374e-01
-3.278066e-01
-3.772510e-01
-4.294436e-01
-4.842554e-01
-5.415552e-01
-6.012093e-01
-6.630806e-01
-7.270259e-01
-7.928938e-01
-8.605204e-01
-9.297248e-01
-1.000304e+00
-1.072024e+00
-1.144621e+00
-1.217788e+00
-1.291182e+00
-1.364429e+00
-1.437138e+00
-1.508935e+00
-1.579502e+00
-1.648616e+00
-1.716169e+00
0.000000e+00
-1.186925e-02
-2.938676e-02
-5.039965e-02
-7.434008e-02
-1.014603e-01
-1.318713e-01
-1.656053e-01
-2.026265e-01
-2.428595e-01
-2.862044e-01
-3.325474e-01
-3.817666e-01
-4.337356e-01
-4.883251e-01
-5.454034e-01
-6.048361e-01
-6.664847e-01
-7.302044e-01
-7.958410e-01
-8.632273e-01
-9.321777e-01
-1.002483e+00
-1.073906e+00
-1.146173e+00
-1.218976e+00
-1.291973e+00
-1.364797e+00
-1.437080e+00
-1.508491e+00
-1.578793e+00
-1.647914e+00
-1.716021e+00
0.000000e+00
-1.616436e-02
-3.645767e-02
-5.776141e-02
-8.166056e-02
-1.085831e-01
-1.387570e-01
-1.722370e-01
-2.089977e-01
-2.489670e-01
-2.920467e-01
-3.381236e-01
-3.870759e-01
-4.387770e-01
-4.930970e-01
-5.499037e-01
-6.090618e-01
-6.704316e-01
-7.338669e-01
-7.992118e-01
-8.662972e-01
-9.349354e-01
-1.004916e+00
-1.075998e+00
-1.147911e+00
-1.220348e+00
-1.292972e+00
-1.365427e+00
-1.437361e+00
-1.508471e+00
-1.578562e+00
-1.647660e+00
-1.716147e+00
0.000000e+00
-2.601808e-02
-4.540586e-02
-6.656777e-02
-9.013946e-02
-1.167739e-01
-1.466587e-01
-1.798494e-01
-2.163176e-01
-2.559907e-01
-2.987708e-01
-3.445447e-01
-3.931908e-01
-4.445823e-01
-4.985891e-01
-5.550780e-01
-6.139127e-01
-6.749521e-01
-7.380484e-01
-8.030442e-01
-8.697688e-01
-9.380334e-01
-1.007627e+00