TITLE = "Solution"
VARIABLES = x, y, u, v, psiu, psiv, t, stress
ZONE T="structure" N=561 E=512 F=FEBLOCK ET=QUADRILATERAL VARLOCATION=([7,8]=cellcentered)
0.000000e+00
6.250000e+00
1.250000e+01
1.875000e+01
2.500000e+01
3.125000e+01
3.750000e+01
4.375000e+01
5.000000e+01
5.625000e+01
6.250000e+01
6.875000e+01
7.500000e+01
8.125000e+01
8.750000e+01
9.375000e+01
1.000000e+02
1.062500e+02
1.125000e+02
1.187500e+02
1.250000e+02
1.312500e+02
1.375000e+02
1.437500e+02
1.500000e+02
1.562500e+02
1.625000e+02
1.687500e+02
1.750000e+02
1.812500e+02
1.875000e+02
1.937500e+02
2.000000e+02
0.000000e+00
6.250000e+00
1.250000e+01
1.875000e+01
2.500000e+01
3.125000e+01
3.750000e+01
4.375000e+01
5.000000e+01
5.625000e+01
6.250000e+01
6.875000e+01
7.500000e+01
8.125000e+01
8.750000e+01
9.375000e+01
1.000000e+02
1.062500e+02
1.125000e+02
1.187500e+02
1.250000e+02
1.312500e+02
1.375000e+02
1.437500e+02
1.500000e+02
1.562500e+02
1.625000e+02
1.687500e+02
1.750000e+02
1.812500e+02
1.875000e+02
1.937500e+02
2.000000e+02
0.000000e+00
6.250000e+00
1.250000e+01
1.875000e+01
2.500000e+01
3.125000e+01
3.750000e+01
4.375000e+01
5.000000e+01
5.625000e+01
6.250000e+01
6.875000e+01
7.500000e+01
8.125000e+01
8.750000e+01
9.375000e+01
1.000000e+02
1.062500e+02
1.125000e+02
1.187500e+02
1.250000e+02
1.312500e+02
1.375000e+02
1.437500e+02
1.500000e+02
1.562500e+02
1.625000e+02
1.687500e+02
1.750000e+02
1.812500e+02
1.875000e+02
1.937500e+02
2.000000e+02
0.000000e+00
6.250000e+00
1.250000e+01
1.875000e+01
2.500000e+01
3.125000e+01
3.750000e+01
4.375000e+01
5.000000e+01
5.625000e+01
6.250000e+01
6.875000e+01
7.500000e+01
8.125000e+01
8.750000e+01
9.375000e+01
1.000000e+02
1.062500e+02
1.125000e+02
1.187500e+02
1.250000e+02
1.312500e+02
1.375000e+02
1.437500e+02
1.500000e+02
1.562500e+02
1.625000e+02
1.687500e+02
1.750000e+02
1.812500e+02
1.875000e+02
1.937500e+02
2.000000e+02
0.000000e+00
6.250000e+00
1.250000e+01
1.875000e+01
2.500000e+01
3.125000e+01
3.750000e+01
4.375000e+01
5.000000e+01
5.625000e+01
6.250000e+01
6.875000e+01
7.500000e+01
8.125000e+01
8.750000e+01
9.375000e+01
1.000000e+02
1.062500e+02
1.125000e+02
1.187500e+02
1.250000e+02
1.312500e+02
1.375000e+02
1.437500e+02
1.500000e+02
1.562500e+02
1.625000e+02
1.687500e+02
1.750000e+02
1.812500e+02
1.875000e+02
1.937500e+02
2.000000e+02
0.000000e+00
6.250000e+00
1.250000e+01
1.875000e+01
2.500000e+01
3.125000e+01
3.750000e+01
4.375000e+01
5.000000e+01
5.625000e+01
6.250000e+01
6.875000e+01
7.500000e+01
8.125000e+01
8.750000e+01
9.375000e+01
1.000000e+02
1.062500e+02
1.125000e+02
1.187500e+02
1.250000e+02
1.312500e+02
1.375000e+02
1.437500e+02
1.500000e+02
1.562500e+02
1.625000e+02
1.687500e+02
1.750000e+02
1.812500e+02
1.875000e+02
1.937500e+02
2.000000e+02
0.000000e+00
6.250000e+00
1.250000e+01
1.875000e+01
2.500000e+01
3.125000e+01
3.750000e+01
4.375000e+01
5.000000e+01
5.625000e+01
6.250000e+01
6.875000e+01
7.500000e+01
8.125000e+01
8.750000e+01
9.375000e+01
1.000000e+02
1.062500e+02
1.125000e+02
1.187500e+02
1.250000e+02
1.312500e+02
1.375000e+02
1.437500e+02
1.500000e+02
1.562500e+02
1.625000e+02
1.687500e+02
1.750000e+02
1.812500e+02
1.875000e+02
1.937500e+02
2.000000e+02
0.000000e+00
6.250000e+00
1.250000e+01
1.875000e+01
2.500000e+01
3.125000e+01
3.750000e+01
4.375000e+01
5.000000e+01
5.625000e+01
6.250000e+01
6.875000e+01
7.500000e+01
8.125000e+01
8.750000e+01
9.375000e+01
1.000000e+02
1.062500e+02
1.125000e+02
1.187500e+02
1.250000e+02
1.312500e+02
1.375000e+02
1.437500e+02
1.500000e+02
1.562500e+02
1.625000e+02
1.687500e+02
1.750000e+02
1.812500e+02
1.875000e+02
1.937500e+02
2.000000e+02
0.000000e+00
6.250000e+00
1.250000e+01
1.875000e+01
2.500000e+01
3.125000e+01
3.750000e+01
4.375000e+01
5.000000e+01
5.625000e+01
6.250000e+01
6.875000e+01
7.500000e+01
8.125000e+01
8.750000e+01
9.375000e+01
1.000000e+02
1.062500e+02
1.125000e+02
1.187500e+02
1.250000e+02
1.312500e+02
1.375000e+02
1.437500e+02
1.500000e+02
1.562500e+02
1.625000e+02
1.687500e+02
1.750000e+02
1.812500e+02
1.875000e+02
1.937500e+02
2.000000e+02
0.000000e+00
6.250000e+00
1.250000e+01
1.875000e+01
2.500000e+01
3.125000e+01
3.750000e+01
4.375000e+01
5.000000e+01
5.625000e+01
6.250000e+01
6.875000e+01
7.500000e+01
8.125000e+01
8.750000e+01
9.375000e+01
1.000000e+02
1.062500e+02
1.125000e+02
1.187500e+02
1.250000e+02
1.312500e+02
1.375000e+02
1.437500e+02
1.500000e+02
1.562500e+02
1.625000e+02
1.687500e+02
1.750000e+02
1.812500e+02
1.875000e+02
1.937500e+02
2.000000e+02
0.000000e+00
6.250000e+00
1.250000e+01
1.875000e+01
2.500000e+01
3.125000e+01
3.750000e+01
4.375000e+01
5.000000e+01
5.625000e+01
6.250000e+01
6.875000e+01
7.500000e+01
8.125000e+01
8.750000e+01
9.375000e+01
1.000000e+02
1.062500e+02
1.125000e+02
1.187500e+02
1.250000e+02
1.312500e+02
1.375000e+02
1.437500e+02
1.500000e+02
1.562500e+02
1.625000e+02
1.687500e+02
1.750000e+02
1.812500e+02
1.875000e+02
1.937500e+02
2.000000e+02
0.000000e+00
6.250000e+00
1.250000e+01
1.875000e+01
2.500000e+01
3.125000e+01
3.750000e+01
4.375000e+01
5.000000e+01
5.625000e+01
6.250000e+01
6.875000e+01
7.500000e+01
8.125000e+01
8.750000e+01
9.375000e+01
1.000000e+02
1.062500e+02
1.125000e+02
1.187500e+02
1.250000e+02
1.312500e+02
1.375000e+02
1.437500e+02
1.500000e+02
1.562500e+02
1.625000e+02
1.687500e+02
1.750000e+02
1.812500e+02
1.875000e+02
1.937500e+02
2.000000e+02
0.000000e+00
6.250000e+00
1.250000e+01
1.875000e+01
2.500000e+01
3.125000e+01
3.750000e+01
4.375000e+01
5.000000e+01
5.625000e+01
6.250000e+01
6.875000e+01
7.500000e+01
8.125000e+01
8.750000e+01
9.375000e+01
1.000000e+02
1.062500e+02
1.125000e+02
1.187500e+02
1.250000e+02
1.312500e+02
1.375000e+02
1.437500e+02
1.500000e+02
1.562500e+02
1.625000e+02
1.687500e+02
1.750000e+02
1.812500e+02
1.875000e+02
1.937500e+02
2.000000e+02
0.000000e+00
6.250000e+00
1.250000e+01
1.875000e+01
2.500000e+01
3.125000e+01
3.750000e+01
4.375000e+01
5.000000e+01
5.625000e+01
6.250000e+01
6.875000e+01
7.500000e+01
8.125000e+01
8.750000e+01
9.375000e+01
1.000000e+02
1.062500e+02
1.125000e+02
1.187500e+02
1.250000e+02
1.312500e+02
1.375000e+02
1.437500e+02
1.500000e+02
1.562500e+02
1.625000e+02
1.687500e+02
1.750000e+02
1.812500e+02
1.875000e+02
1.937500e+02
2.000000e+02
0.000000e+00
6.250000e+00
1.250000e+01
1.875000e+01
2.500000e+01
3.125000e+01
3.750000e+01
4.375000e+01
5.000000e+01
5.625000e+01
6.250000e+01
6.875000e+01
7.500000e+01
8.125000e+01
8.750000e+01
9.375000e+01
1.000000e+02
1.062500e+02
1.125000e+02
1.187500e+02
1.250000e+02
1.312500e+02
1.375000e+02
1.437500e+02
1.500000e+02
1.562500e+02
1.625000e+02
1.687500e+02
1.750000e+02
1.812500e+02
1.875000e+02
1.937500e+02
2.000000e+02
0.000000e+00
6.250000e+00
1.250000e+01
1.875000e+01
2.500000e+01
3.125000e+01
3.750000e+01
4.375000e+01
5.000000e+01
5.625000e+01
6.250000e+01
6.875000e+01
7.500000e+01
8.125000e+01
8.750000e+01
9.375000e+01
1.000000e+02
1.062500e+02
1.125000e+02
1.187500e+02
1.250000e+02
1.312500e+02
1.375000e+02
1.437500e+02
1.500000e+02
1.562500e+02
1.625000e+02
1.687500e+02
1.750000e+02
1.812500e+02
1.875000e+02
1.937500e+02
2.000000e+02
0.000000e+00
6.250000e+00
1.250000e+01
1.875000e+01
2.500000e+01
3.125000e+01
3.750000e+01
4.375000e+01
5.000000e+01
5.625000e+01
6.250000e+01
6.875000e+01
7.500000e+01
8.125000e+01
8.750000e+01
9.375000e+01
1.000000e+02
1.062500e+02
1.125000e+02
1.187500e+02
1.250000e+02
1.312500e+02
1.375000e+02
1.437500e+02
1.500000e+02
1.562500e+02
1.625000e+02
1.687500e+02
1.750000e+02
1.812500e+02
1.875000e+02
1.937500e+02
2.000000e+02
0.000000e+00
0.000000e+00
0.000000e+00
0.000000e+00
0.000000e+00
0.000000e+00
0.000000e+00
0.000000e+00
0.000000e+00
0.000000e+00
0.000000e+00
0.000000e+00
0.000000e+00
0.000000e+00
0.000000e+00
0.000000e+00
0.000000e+00
0.000000e+00
0.000000e+00
0.000000e+00
0.000000e+00
0.000000e+00
0.000000e+00
0.000000e+00
0.000000e+00
0.000000e+00
0.000000e+00
0.000000e+00
0.000000e+00
0.000000e+00
0.000000e+00
0.000000e+00
0.000000e+00
6.250000e+00
6.250000e+00
6.250000e+00
6.250000e+00
6.250000e+00
6.250000e+00
6.250000e+00
6.250000e+00
6.250000e+00
6.250000e+00
6.250000e+00
6.250000e+00
6.250000e+00
6.250000e+00
6.250000e+00
6.250000e+00
6.250000e+00
6.250000e+00
6.250000e+00
6.250000e+00
6.250000e+00
6.250000e+00
6.250000e+00
6.250000e+00
6.250000e+00
6.250000e+00
6.250000e+00
6.250000e+00
6.250000e+00
6.250000e+00
6.250000e+00
6.250000e+00
6.250000e+00
1.250000e+01
1.250000e+01
1.250000e+01
1.250000e+01
1.250000e+01
1.250000e+01
1.250000e+01
1.250000e+01
1.250000e+01
1.250000e+01
1.250000e+01
1.250000e+01
1.250000e+01
1.250000e+01
1.250000e+01
1.250000e+01
1.250000e+01
1.250000e+01
1.250000e+01
1.250000e+01
1.250000e+01
1.250000e+01
1.250000e+01
1.250000e+01
1.250000e+01
1.250000e+01
1.250000e+01
1.250000e+01
1.250000e+01
1.250000e+01
1.250000e+01
1.250000e+01
1.250000e+01
1.875000e+01
1.875000e+01
1.875000e+01
1.875000e+01
1.875000e+01
1.875000e+01
1.875000e+01
1.875000e+01
1.875000e+01
1.875000e+01
1.875000e+01
1.875000e+01
1.875000e+01
1.875000e+01
1.875000e+01
1.875000e+01
1.875000e+01
1.875000e+01
1.875000e+01
1.875000e+01
1.875000e+01
1.875000e+01
1.875000e+01
1.875000e+01
1.875000e+01
1.875000e+01
1.875000e+01
1.875000e+01
1.875000e+01
1.875000e+01
1.875000e+01
1.875000e+01
1.875000e+01
2.500000e+01
2.500000e+01
2.500000e+01
2.500000e+01
2.500000e+01
2.500000e+01
2.500000e+01
2.500000e+01
2.500000e+01
2.500000e+01
2.500000e+01
2.500000e+01
2.500000e+01
2.500000e+01
2.500000e+01
2.500000e+01
2.500000e+01
2.500000e+01
2.500000e+01
2.500000e+01
2.500000e+01
2.500000e+01
2.500000e+01
2.500000e+01
2.500000e+01
2.500000e+01
2.500000e+01
2.500000e+01
2.500000e+01
2.500000e+01
2.500000e+01
2.500000e+01
2.500000e+01
3.125000e+01
3.125000e+01
3.125000e+01
3.125000e+01
3.125000e+01
3.125000e+01
3.125000e+01
3.125000e+01
3.125000e+01
3.125000e+01
3.125000e+01
3.125000e+01
3.125000e+01
3.125000e+01
3.125000e+01
3.125000e+01
3.125000e+01
3.125000e+01
3.125000e+01
3.125000e+01
3.125000e+01
3.125000e+01
3.125000e+01
3.125000e+01
3.125000e+01
3.125000e+01
3.125000e+01
3.125000e+01
3.125000e+01
3.125000e+01
3.125000e+01
3.125000e+01
3.125000e+01
3.750000e+01
3.750000e+01
3.750000e+01
3.750000e+01
3.750000e+01
3.750000e+01
3.750000e+01
3.750000e+01
3.750000e+01
3.750000e+01
3.750000e+01
3.750000e+01
3.750000e+01
3.750000e+01
3.750000e+01
3.750000e+01
3.750000e+01
3.750000e+01
3.750000e+01
3.750000e+01
3.750000e+01
3.750000e+01
3.750000e+01
3.750000e+01
3.750000e+01
3.750000e+01
3.750000e+01
3.750000e+01
3.750000e+01
3.750000e+01
3.750000e+01
3.750000e+01
3.750000e+01
4.375000e+01
4.375000e+01
4.375000e+01
4.375000e+01
4.375000e+01
4.375000e+01
4.375000e+01
4.375000e+01
4.375000e+01
4.375000e+01
4.375000e+01
4.375000e+01
4.375000e+01
4.375000e+01
4.375000e+01
4.375000e+01
4.375000e+01
4.375000e+01
4.375000e+01
4.375000e+01
4.375000e+01
4.375000e+01
4.375000e+01
4.375000e+01
4.375000e+01
4.375000e+01
4.375000e+01
4.375000e+01
4.375000e+01
4.375000e+01
4.375000e+01
4.375000e+01
4.375000e+01
5.000000e+01
5.000000e+01
5.000000e+01
5.000000e+01
5.000000e+01
5.000000e+01
5.000000e+01
5.000000e+01
5.000000e+01
5.000000e+01
5.000000e+01
5.000000e+01
5.000000e+01
5.000000e+01
5.000000e+01
5.000000e+01
5.000000e+01
5.000000e+01
5.000000e+01
5.000000e+01
5.000000e+01
5.000000e+01
5.000000e+01
5.000000e+01
5.000000e+01
5.000000e+01
5.000000e+01
5.000000e+01
5.000000e+01
5.000000e+01
5.000000e+01
5.000000e+01
5.000000e+01
5.625000e+01
5.625000e+01
5.625000e+01
5.625000e+01
5.625000e+01
5.625000e+01
5.625000e+01
5.625000e+01
5.625000e+01
5.625000e+01
5.625000e+01
5.625000e+01
5.625000e+01
5.625000e+01
5.625000e+01
5.625000e+01
5.625000e+01
5.625000e+01
5.625000e+01
5.625000e+01
5.625000e+01
5.625000e+01
5.625000e+01
5.625000e+01
5.625000e+01
5.625000e+01
5.625000e+01
5.625000e+01
5.625000e+01
5.625000e+01
5.625000e+01
5.625000e+01
5.625000e+01
6.250000e+01
6.250000e+01
6.250000e+01
6.250000e+01
6.250000e+01
6.250000e+01
6.250000e+01
6.250000e+01
6.250000e+01
6.250000e+01
6.250000e+01
6.250000e+01
6.250000e+01
6.250000e+01
6.250000e+01
6.250000e+01
6.250000e+01
6.250000e+01
6.250000e+01
6.250000e+01
6.250000e+01
6.250000e+01
6.250000e+01
6.250000e+01
6.250000e+01
6.250000e+01
6.250000e+01
6.250000e+01
6.250000e+01
6.250000e+01
6.250000e+01
6.250000e+01
6.250000e+01
6.875000e+01
6.875000e+01
6.875000e+01
6.875000e+01
6.875000e+01
6.875000e+01
6.875000e+01
6.875000e+01
6.875000e+01
6.875000e+01
6.875000e+01
6.875000e+01
6.875000e+01
6.875000e+01
6.875000e+01
6.875000e+01
6.875000e+01
6.875000e+01
6.875000e+01
6.875000e+01
6.875000e+01
6.875000e+01
6.875000e+01
6.875000e+01
6.875000e+01
6.875000e+01
6.875000e+01
6.875000e+01
6.875000e+01
6.875000e+01
6.875000e+01
6.875000e+01
6.875000e+01
7.500000e+01
7.500000e+01
7.500000e+01
7.500000e+01
7.500000e+01
7.500000e+01
7.500000e+01
7.500000e+01
7.500000e+01
7.500000e+01
7.500000e+01
7.500000e+01
7.500000e+01
7.500000e+01
7.500000e+01
7.500000e+01
7.500000e+01
7.500000e+01
7.500000e+01
7.500000e+01
7.500000e+01
7.500000e+01
7.500000e+01
7.500000e+01
7.500000e+01
7.500000e+01
7.500000e+01
7.500000e+01
7.500000e+01
7.500000e+01
7.500000e+01
7.500000e+01
7.500000e+01
8.125000e+01
8.125000e+01
8.125000e+01
8.125000e+01
8.125000e+01
8.125000e+01
8.125000e+01
8.125000e+01
8.125000e+01
8.125000e+01
8.125000e+01
8.125000e+01
8.125000e+01
8.125000e+01
8.125000e+01
8.125000e+01
8.125000e+01
8.125000e+01
8.125000e+01
8.125000e+01
8.125000e+01
8.125000e+01
8.125000e+01
8.125000e+01
8.125000e+01
8.125000e+01
8.125000e+01
8.125000e+01
8.125000e+01
8.125000e+01
8.125000e+01
8.125000e+01
8.125000e+01
8.750000e+01
8.750000e+01
8.750000e+01
8.750000e+01
8.750000e+01
8.750000e+01
8.750000e+01
8.750000e+01
8.750000e+01
8.750000e+01
8.750000e+01
8.750000e+01
8.750000e+01
8.750000e+01
8.750000e+01
8.750000e+01
8.750000e+01
8.750000e+01
8.750000e+01
8.750000e+01
8.750000e+01
8.750000e+01
8.750000e+01
8.750000e+01
8.750000e+01
8.750000e+01
8.750000e+01
8.750000e+01
8.750000e+01
8.750000e+01
8.750000e+01
8.750000e+01
8.750000e+01
9.375000e+01
9.375000e+01
9.375000e+01
9.375000e+01
9.375000e+01
9.375000e+01
9.375000e+01
9.375000e+01
9.375000e+01
9.375000e+01
9.375000e+01
9.375000e+01
9.375000e+01
9.375000e+01
9.375000e+01
9.375000e+01
9.375000e+01
9.375000e+01
9.375000e+01
9.375000e+01
9.375000e+01
9.375000e+01
9.375000e+01
9.375000e+01
9.375000e+01
9.375000e+01
9.375000e+01
9.375000e+01
9.375000e+01
9.375000e+01
9.375000e+01
9.375000e+01
9.375000e+01
1.000000e+02
1.000000e+02
1.000000e+02
1.000000e+02
1.000000e+02
1.000000e+02
1.000000e+02
1.000000e+02
1.000000e+02
1.000000e+02
1.000000e+02
1.000000e+02
1.000000e+02
1.000000e+02
1.000000e+02
1.000000e+02
1.000000e+02
1.000000e+02
1.000000e+02
1.000000e+02
1.000000e+02
1.000000e+02
1.000000e+02
1.000000e+02
1.000000e+02
1.000000e+02
1.000000e+02
1.000000e+02
1.000000e+02
1.000000e+02
1.000000e+02
1.000000e+02
1.000000e+02
0.000000e+00
-5.752347e-02
-1.043687e-01
-1.477642e-01
-1.894117e-01
-2.296287e-01
-2.684961e-01
-3.060102e-01
-3.421475e-01
-3.768818e-01
-4.101911e-01
-4.420605e-01
-4.724823e-01
-5.014557e-01
-5.289876e-01
-5.550924e-01
-5.797936e-01
-6.031251e-01
-6.251338e-01
-6.458830e-01
-6.654572e-01
-6.839677e-01
-7.015622e-01
-7.184363e-01
-7.348521e-01
-7.511656e-01
-7.678718e-01
-7.856760e-01
-8.056131e-01
-8.292063e-01
-8.584312e-01
-8.932593e-01
-9.145143e-01
0.000000e+00
-3.856791e-02
-8.024468e-02
-1.195404e-01
-1.568895e-01
-1.926477e-01
-2.270037e-01
-2.600405e-01
-2.917908e-01
-3.222652e-01
-3.514660e-01
-3.793930e-01
-4.060476e-01
-4.314341e-01
-4.555610e-01
-4.784416e-01
-5.000954e-01
-5.205491e-01
-5.398382e-01
-5.580088e-01
-5.751196e-01
-5.912445e-01
-6.064753e-01
-6.209246e-01
-6.347265e-01
-6.480357e-01
-6.610151e-01
-6.737990e-01
-6.863866e-01
-6.983683e-01
-7.083523e-01
-7.141894e-01
-7.223156e-01
0.000000e+00
-3.059215e-02
-6.298129e-02
-9.595862e-02
-1.280024e-01
-1.588654e-01
-1.885278e-01
-2.170178e-01
-2.443605e-01
-2.705731e-01
-2.956668e-01
-3.196495e-01
-3.425276e-01
-3.643081e-01
-3.849988e-01
-4.046100e-01
-4.231543e-01
-4.406478e-01
-4.571100e-01
-4.725645e-01
-4.870383e-01
-5.005606e-01
-5.131603e-01
-5.248598e-01
-5.356635e-01
-5.455370e-01
-5.543672e-01
-5.618943e-01
-5.676091e-01
-5.706864e-01
-5.704166e-01
-5.686886e-01
-5.781779e-01
0.000000e+00
-2.427215e-02
-4.988481e-02
-7.619864e-02
-1.024509e-01
-1.280672e-01
-1.528283e-01
-1.766555e-01
-1.995275e-01
-2.214434e-01
-2.424087e-01
-2.624305e-01
-2.815155e-01
-2.996698e-01
-3.168987e-01
-3.332070e-01
-3.485993e-01
-3.630795e-01
-3.766505e-01
-3.893131e-01
-4.010641e-01
-4.118927e-01
-4.217750e-01
-4.306648e-01
-4.384802e-01
-4.450831e-01
-4.502551e-01
-4.536801e-01
-4.549878e-01
-4.540170e-01
-4.516592e-01
-4.515185e-01
-4.605594e-01
0.000000e+00
-1.883859e-02
-3.857500e-02
-5.894191e-02
-7.947429e-02
-9.975488e-02
-1.195038e-01
-1.385795e-01
-1.569174e-01
-1.744928e-01
-1.912992e-01
-2.073375e-01
-2.226107e-01
-2.371214e-01
-2.508705e-01
-2.638568e-01
-2.760762e-01
-2.875214e-01
-2.981806e-01
-3.080358e-01
-3.170606e-01
-3.252165e-01
-3.324476e-01
-3.386745e-01
-3.437872e-01
-3.476409e-01
-3.500660e-01
-3.509167e-01
-3.502188e-01
-3.485111e-01
-3.474033e-01
-3.499616e-01
-3.576739e-01
0.000000e+00
-1.384527e-02
-2.828373e-02
-4.318605e-02
-5.829476e-02
-7.332783e-02
-8.806135e-02
-1.023498e-01
-1.161133e-01
-1.293129e-01
-1.419324e-01
-1.539658e-01
-1.654113e-01
-1.762666e-01
-1.865278e-01
-1.961875e-01
-2.052342e-01
-2.136514e-01
-2.214163e-01
-2.284986e-01
-2.348584e-01
-2.404440e-01
-2.451903e-01
-2.490176e-01
-2.518351e-01
-2.535542e-01
-2.541246e-01
-2.536127e-01
-2.523512e-01
-2.511509e-01
-2.514431e-01
-2.547046e-01
-2.610860e-01
0.000000e+00
-9.111854e-03
-1.858413e-02
-2.835689e-02
-3.829079e-02
-4.821861e-02
-5.799064e-02
-6.749775e-02
-7.667162e-02
-8.547459e-02
-9.388759e-02
-1.019011e-01
-1.095089e-01
-1.167047e-01
-1.234798e-01
-1.298218e-01
-1.357136e-01
-1.411326e-01
-1.460497e-01
-1.504286e-01
-1.542254e-01
-1.573886e-01
-1.598607e-01
-1.615834e-01
-1.625090e-01
-1.626238e-01
-1.619910e-01
-1.608199e-01
-1.595562e-01
-1.589436e-01
-1.598993e-01
-1.630747e-01
-1.682258e-01
0.000000e+00
-4.525856e-03
-9.222816e-03
-1.406674e-02
-1.899646e-02
-2.393409e-02
-2.880567e-02
-3.355335e-02
-3.813801e-02
-4.253577e-02
-4.673248e-02
-5.071878e-02
-5.448651e-02
-5.802632e-02
-6.132616e-02
-6.437016e-02
-6.713792e-02
-6.960388e-02
-7.173704e-02
-7.350107e-02
-7.485520e-02
-7.575655e-02
-7.616486e-02
-7.605129e-02
-7.541362e-02
-7.430050e-02
-7.284663e-02
-7.131475e-02
-7.012555e-02
-6.982765e-02
-7.094895e-02
-7.371900e-02
-7.780634e-02
0.000000e+00
-7.302227e-06
-1.583329e-05
-2.512058e-05
-3.467559e-05
-4.383966e-05
-5.162012e-05
-5.650850e-05
-5.626800e-05
-4.767775e-05
-2.622394e-05
1.426738e-05
8.205540e-05
1.879582e-04
3.458523e-04
5.731545e-04
8.912116e-04
1.325478e-03
1.905289e-03
2.662937e-03
3.631627e-03
4.841662e-03
6.314034e-03
8.050339e-03
1.001805e-02
1.213098e-02
1.422735e-02
1.605377e-02
1.727299e-02
1.752024e-02
1.652470e-02
1.427011e-02
1.111243e-02
0.000000e+00
4.512102e-03
9.192934e-03
1.401923e-02
1.893073e-02
2.385075e-02
2.870718e-02
3.344496e-02
3.802916e-02
4.244193e-02
4.667756e-02
5.073829e-02
5.463148e-02
5.836817e-02
6.196247e-02
6.543146e-02
6.879517e-02
7.207645e-02
7.530031e-02
7.849251e-02
8.167691e-02
8.487105e-02
8.807947e-02
9.128437e-02
9.443364e-02
9.742791e-02
1.001104e-01
1.022680e-01
1.036543e-01
1.040468e-01
1.033360e-01
1.016233e-01
9.927965e-02
0.000000e+00
9.100618e-03
1.855954e-02
2.831753e-02
3.823591e-02
4.814838e-02
5.790667e-02
6.740386e-02
7.657498e-02
8.538716e-02
9.382820e-02
1.018979e-01
1.096028e-01
1.169533e-01
1.239623e-01
1.306446e-01
1.370171e-01
1.430979e-01
1.489059e-01
1.544590e-01
1.597717e-01
1.648507e-01
1.696891e-01
1.742589e-01
1.785028e-01
1.823266e-01
1.855974e-01
1.881519e-01
1.898239e-01
1.904924e-01
1.901487e-01
1.889636e-01
1.873279e-01
0.000000e+00
1.383810e-02
2.826776e-02
4.316005e-02
5.825784e-02
7.327963e-02
8.800238e-02
1.022819e-01
1.160404e-01
1.292421e-01
1.418748e-01
1.539389e-01
1.654406e-01
1.763888e-01
1.867938e-01
1.966666e-01
2.060189e-01
2.148625e-01
2.232088e-01
2.310674e-01
2.384439e-01
2.453364e-01
2.517317e-01
2.575996e-01
2.628882e-01
2.675207e-01
2.713972e-01
2.744058e-01
2.764461e-01
2.774685e-01
2.775260e-01
2.768308e-01
2.757970e-01
0.000000e+00
1.883680e-02
3.857055e-02
5.893393e-02
7.946197e-02
9.973751e-02
1.194810e-01
1.385511e-01
1.568840e-01
1.744559e-01
1.912617e-01
2.073042e-01
2.225892e-01
2.371231e-01
2.509121e-01
2.639617e-01
2.762768e-01
2.878616e-01
2.987187e-01
3.088488e-01
3.182486e-01
3.269097e-01
3.348154e-01
3.419382e-01
3.482382e-01
3.536626e-01
3.581492e-01
3.616361e-01
3.640798e-01
3.654838e-01
3.659392e-01
3.656782e-01
3.651336e-01
0.000000e+00
2.427666e-02
4.989398e-02
7.621228e-02
1.024686e-01
1.280885e-01
1.528525e-01
1.766813e-01
1.995530e-01
2.214653e-01
2.424224e-01
2.624291e-01
2.814890e-01
2.996042e-01
3.167752e-01
3.330006e-01
3.482771e-01
3.626000e-01
3.759620e-01
3.883537e-01
3.997626e-01
4.101729e-01
4.195646e-01
4.279142e-01
4.351950e-01
4.413797e-01
4.464452e-01
4.503799e-01
4.531960e-01
4.549461e-01
4.557511e-01
4.558470e-01
4.556664e-01
0.000000e+00
3.060315e-02
6.300479e-02
9.599542e-02
1.280532e-01
1.589308e-01
1.886079e-01
2.171117e-01
2.444655e-01
2.706839e-01
2.957738e-01
3.197373e-01
3.425728e-01
3.642759e-01
3.848398e-01
4.042552e-01
4.225102e-01
4.395899e-01
4.554761e-01
4.701478e-01
4.835808e-01
4.957490e-01
5.066260e-01
5.161874e-01
5.244151e-01
5.313028e-01
5.368629e-01
5.411347e-01
5.441920e-01
5.461501e-01
5.471750e-01
5.475088e-01
5.475487e-01
0.000000e+00
3.858443e-02
8.028078e-02
1.195985e-01
1.569724e-01
1.927582e-01
2.271443e-01
2.602125e-01
2.919935e-01
3.224947e-01
3.517126e-01
3.796393e-01
4.062641e-01
4.315749e-01
4.555573e-01
4.781942e-01
4.994650e-01
5.193446e-01
5.378033e-01
5.548061e-01
5.703139e-01
5.842848e-01
5.966777e-01
6.074570e-01
6.166003e-01
6.241081e-01
6.300160e-01
6.344071e-01
6.374235e-01
6.392717e-01
6.402160e-01
6.405584e-01
6.406422e-01
0.000000e+00
5.754156e-02
1.044109e-01
1.478365e-01
1.895199e-01
2.297788e-01
2.686941e-01
3.062620e-01
3.424577e-01
3.772521e-01
4.106185e-01
4.425337e-01
4.729771e-01
5.019294e-01
5.293702e-01
5.552768e-01
5.796215e-01
6.023704e-01
6.234819e-01
6.429061e-01
6.605844e-01
6.764518e-01
6.904401e-01
7.024853e-01
7.125376e-01
7.205767e-01
7.266313e-01
7.308023e-01
7.332883e-01
7.344085e-01
7.346121e-01
7.344435e-01
7.343486e-01
0.000000e+00
-3.554841e-02
-6.203969e-02
-9.094811e-02
-1.231394e-01
-1.595026e-01
-2.002905e-01
-2.455740e-01
-2.953080e-01
-3.493859e-01
-4.076644e-01
-4.699784e-01
-5.361504e-01
-6.059950e-01
-6.793234e-01
-7.559454e-01
-8.356719e-01
-9.183172e-01
-1.003702e+00
-1.091656e+00
-1.182028e+00
-1.274688e+00
-1.369544e+00
-1.466560e+00
-1.565784e+00
-1.667400e+00
-1.771811e+00
-1.879807e+00
-1.992894e+00
-2.114058e+00
-2.249739e+00
-2.415134e+00
-2.643632e+00
0.000000e+00
-2.209199e-02
-4.982138e-02
-7.892478e-02
-1.115647e-01
-1.483230e-01
-1.895072e-01
-2.351871e-01
-2.853213e-01
-3.398034e-01
-3.984892e-01
-4.612124e-01
-5.277937e-01
-5.980464e-01
-6.717799e-01
-7.488020e-01
-8.289214e-01
-9.119494e-01
-9.977031e-01
-1.086009e+00
-1.176709e+00
-1.269668e+00
-1.364785e+00
-1.462013e+00
-1.561387e+00
-1.663074e+00
-1.767457e+00
-1.875300e+00
-1.988078e+00
-2.108728e+00
-2.243361e+00
-2.405075e+00
-2.618551e+00
0.000000e+00
-1.622784e-02
-4.016577e-02
-6.887215e-02
-1.015691e-01
-1.385982e-01
-1.801075e-01
-2.261355e-01
-2.766268e-01
-3.314698e-01
-3.905179e-01
-4.536036e-01
-5.205467e-01
-5.911599e-01
-6.652518e-01
-7.426295e-01
-8.231007e-01
-9.064758e-01
-9.925706e-01
-1.081210e+00
-1.172235e+00
-1.265509e+00
-1.360930e+00
-1.458454e+00
-1.558120e+00
-1.660103e+00
-1.764804e+00
-1.873006e+00
-1.986167e+00
-2.106930e+00
-2.239812e+00
-2.390149e+00
-2.556917e+00
0.000000e+00
-1.299458e-02
-3.401232e-02
-6.118793e-02
-9.346465e-02
-1.304823e-01
-1.721691e-01
-2.184549e-01
-2.692401e-01
-3.243924e-01
-3.837560e-01
-4.471592e-01
-5.144202e-01
-5.853514e-01
-6.597617e-01
-7.374586e-01
-8.182504e-01
-9.019483e-01
-9.883690e-01
-1.077339e+00
-1.168701e+00
-1.262322e+00
-1.358106e+00
-1.456014e+00
-1.556096e+00
-1.658536e+00
-1.763731e+00
-1.872401e+00
-1.985741e+00
-2.105491e+00
-2.233319e+00
-2.368138e+00
-2.493641e+00
0.000000e+00
-1.099557e-02
-2.998819e-02
-5.573123e-02
-8.727217e-02
-1.240471e-01
-1.657496e-01
-2.121858e-01
-2.631880e-01
-3.185894e-01
-3.782168e-01
-4.418905e-01
-5.094257e-01
-5.806339e-01
-6.553249e-01
-7.333075e-01
-8.143920e-01
-8.983916e-01
-9.851256e-01
-1.074424e+00
-1.166132e+00
-1.260120e+00
-1.356298e+00
-1.454629e+00
-1.555158e+00
-1.658049e+00
-1.763622e+00
-1.872399e+00
-1.985065e+00
-2.102173e+00
-2.223164e+00
-2.343596e+00
-2.452895e+00
0.000000e+00
-9.723576e-03
-2.734786e-02
-5.197617e-02
-8.280711e-02
-1.192375e-01
-1.608494e-01
-2.073450e-01
-2.584900e-01
-3.140781e-01
-3.739145e-01
-4.378090e-01
-5.055723e-01
-5.770150e-01
-6.519477e-01
-7.301814e-01
-8.115286e-01
-8.958054e-01
-9.828339e-01
-1.072447e+00
-1.164491e+00
-1.258840e+00
-1.355398e+00
-1.454119e+00
-1.555019e+00
-1.658198e+00
-1.763835e+00
-1.872160e+00
-1.983297e+00
-2.096872e+00
-2.211155e+00
-2.322062e+00
-2.423431e+00
0.000000e+00
-8.933048e-03
-2.567851e-02
-4.953530e-02
-7.981585e-02
-1.159323e-01
-1.574206e-01
-2.039221e-01
-2.551515e-01
-3.108687e-01
-3.708593e-01
-4.349225e-01
-5.028647e-01
-5.744958e-01
-6.496274e-01
-7.280726e-01
-8.096465e-01
-8.941678e-01
-9.814606e-01
-1.071358e+00
-1.163708e+00
-1.258375e+00
-1.355254e+00
-1.454271e+00
-1.555391e+00
-1.658618e+00
-1.763959e+00
-1.871354e+00
-1.980495e+00
-2.090491e+00
-2.199442e+00
-2.304204e+00
-2.400929e+00
0.000000e+00
-8.498642e-03
-2.475223e-02
-4.815981e-02
-7.810062e-02
-1.140071e-01
-1.554002e-01
-2.018914e-01
-2.531664e-01
-3.089636e-01
-3.690551e-01
-4.332333e-01
-5.013020e-01
-5.730709e-01
-6.483531e-01
-7.269637e-01
-8.087201e-01
-8.934425e-01
-9.809557e-01
-1.071091e+00
-1.163691e+00
-1.258608e+00
-1.355715e+00
-1.454900e+00
-1.556062e+00
-1.659097e+00
-1.763855e+00
-1.870049e+00
-1.977113e+00
-2.083993e+00
-2.188973e+00
-2.289690e+00
-2.383519e+00
0.000000e+00
-8.358678e-03
-2.445339e-02
-4.771401e-02
-7.754160e-02
-1.133770e-01
-1.547383e-01
-2.012288e-01
-2.525254e-01
-3.083599e-01
-3.685007e-01
-4.327387e-01
-5.008778e-01
-5.727292e-01
-6.481077e-01
-7.268304e-01
-8.087161e-01
-8.935855e-01
-9.812621e-01
-1.071573e+00
-1.164350e+00
-1.259432e+00
-1.356659e+00
-1.455875e+00
-1.556913e+00
-1.659571e+00
-1.763571e+00
-1.868485e+00
-1.973633e+00
-2.077981e+00
-2.180076e+00
-2.278116e+00
-2.370175e+00
0.000000e+00
-8.494593e-03
-2.474661e-02
-4.815498e-02
-7.809915e-02
-1.140122e-01
-1.554161e-01
-2.019238e-01
-2.532228e-01
-3.090536e-01
-3.691913e-01
-4.334316e-01
-5.015818e-01
-5.734558e-01
-6.488707e-01
-7.276450e-01
-8.095985e-01
-8.945512e-01
-9.823237e-01
-1.072737e+00
-1.165609e+00
-1.260760e+00
-1.357999e+00
-1.457125e+00
-1.557909e+00
-1.660070e+00
-1.763243e+00
-1.866924e+00
-1.970417e+00
-2.072777e+00
-2.172809e+00
-2.269117e+00
-2.360231e+00
0.000000e+00
-8.925279e-03
-2.566773e-02
-4.952597e-02
-7.981292e-02
-1.159420e-01
-1.574509e-01
-2.039839e-01
-2.552591e-01
-3.110409e-01
-3.711201e-01
-4.353023e-01
-5.034011e-01
-5.752339e-01
-6.506203e-01
-7.293802e-01
-8.113333e-01
-8.962981e-01
-9.840913e-01
-1.074525e+00
-1.167407e+00
-1.262534e+00
-1.359687e+00
-1.458624e+00
-1.559063e+00
-1.660669e+00
-1.763020e+00
-1.865586e+00
-1.967697e+00
-2.068528e+00
-2.167109e+00
-2.262366e+00
-2.353171e+00
0.000000e+00
-9.712777e-03
-2.733287e-02
-5.196314e-02
-8.280290e-02
-1.192507e-01
-1.608913e-01
-2.074309e-01
-2.586399e-01
-3.143182e-01
-3.742785e-01
-4.383396e-01
-5.063220e-01
-5.780473e-01
-6.533371e-01
-7.320121e-01
-8.138917e-01
-8.987923e-01
-9.865260e-01
-1.076898e+00
-1.169702e+00
-1.264717e+00
-1.361699e+00
-1.460371e+00
-1.560415e+00
-1.661452e+00
-1.763034e+00
-1.864628e+00
-1.965609e+00
-2.065274e+00
-2.162854e+00
-2.257552e+00
-2.348544e+00
0.000000e+00
-1.098284e-02
-2.997055e-02
-5.571588e-02
-8.726729e-02
-1.240631e-01
-1.658002e-01
-2.122894e-01
-2.633689e-01
-3.188794e-01
-3.786567e-01
-4.425319e-01
-5.103323e-01
-5.818827e-01
-6.570061e-01
-7.355236e-01
-8.172535e-01
-9.020104e-01
-9.896021e-01
-1.079827e+00
-1.172469e+00
-1.267291e+00
-1.364029e+00
-1.462382e+00
-1.562003e+00
-1.662489e+00
-1.763378e+00
-1.864144e+00
-1.964214e+00
-2.062990e+00
-2.159884e+00
-2.254355e+00
-2.345895e+00
0.000000e+00
-1.298150e-02
-3.399421e-02
-6.117233e-02
-9.346046e-02
-1.305010e-01
-1.722262e-01
-2.185706e-01
-2.694413e-01
-3.247143e-01
-3.842437e-01
-4.478695e-01
-5.154235e-01
-5.867324e-01
-6.616198e-01
-7.399065e-01
-8.214098e-01
-9.059423e-01
-9.933086e-01
-1.083302e+00
-1.175698e+00
-1.270249e+00
-1.366678e+00
-1.464668e+00
-1.563854e+00
-1.663820e+00
-1.764096e+00
-1.864170e+00
-1.963511e+00
-2.061605e+00
-2.158017e+00
-2.252446e+00
-2.344741e+00
0.000000e+00
-1.621645e-02
-4.014991e-02
-6.885898e-02
-1.015678e-01
-1.386211e-01
-1.801705e-01
-2.262599e-01
-2.768406e-01
-3.318094e-01
-3.910299e-01
-4.543467e-01
-5.215931e-01
-5.925964e-01
-6.671801e-01
-7.451641e-01
-8.263650e-01
-9.105933e-01
-9.976513e-01
-1.087328e+00
-1.179396e+00
-1.273600e+00
-1.369657e+00
-1.467239e+00
-1.565975e+00
-1.665444e+00
-1.765177e+00
-1.864673e+00
-1.963432e+00
-2.060998e+00
-2.157049e+00
-2.251487e+00
-2.344539e+00
0.000000e+00
-2.208466e-02
-4.981059e-02
-7.891703e-02
-1.115695e-01
-1.483528e-01
-1.895782e-01
-2.353206e-01
-2.855453e-01
-3.401539e-01
-3.990122e-01
-4.619653e-01
-5.288471e-01
-5.994843e-01
-6.736998e-01
-7.513128e-01
-8.321385e-01
-9.159859e-01
-1.002655e+00
-1.091934e+00
-1.183590e+00
-1.277368e+00
-1.372980e+00
-1.470098e+00
-1.568350e+00
-1.667318e+00
-1.766542e+00
-1.865534e+00
-1.963816e+00
-2.060970e+00
-2.156734e+00
-2.251140e+00
-2.344711e+00
0.000000e+00
-3.554737e-02
-6.203610e-02
-9.094879e-02
-1.231539e-01
-1.595435e-01
-2.003740e-01
-2.457212e-01
-2.955462e-01
-3.497502e-01
-4.081990e-01
-4.707382e-01
-5.372016e-01
-6.074160e-01
-6.812035e-01
-7.583823e-01
-8.387660e-01
-9.221620e-01
-1.008368e+00
-1.097170e+00
-1.188333e+00
-1.281601e+00
-1.376684e+00