TITLE = "Solution"
VARIABLES = x, y, u, v, psiu, psiv, t, stress
ZONE T="structure" N=561 E=512 F=FEBLOCK ET=QUADRILATERAL VARLOCATION=([7,8]=cellcentered)
0.000000e+00
6.250000e+00
1.250000e+01
1.875000e+01
2.500000e+01
3.125000e+01
3.750000e+01
4.375000e+01
5.000000e+01
5.625000e+01
6.250000e+01
6.875000e+01
7.500000e+01
8.125000e+01
8.750000e+01
9.375000e+01
1.000000e+02
1.062500e+02
1.125000e+02
1.187500e+02
1.250000e+02
1.312500e+02
1.375000e+02
1.437500e+02
1.500000e+02
1.562500e+02
1.625000e+02
1.687500e+02
1.750000e+02
1.812500e+02
1.875000e+02
1.937500e+02
2.000000e+02
0.000000e+00
6.250000e+00
1.250000e+01
1.875000e+01
2.500000e+01
3.125000e+01
3.750000e+01
4.375000e+01
5.000000e+01
5.625000e+01
6.250000e+01
6.875000e+01
7.500000e+01
8.125000e+01
8.750000e+01
9.375000e+01
1.000000e+02
1.062500e+02
1.125000e+02
1.187500e+02
1.250000e+02
1.312500e+02
1.375000e+02
1.437500e+02
1.500000e+02
1.562500e+02
1.625000e+02
1.687500e+02
1.750000e+02
1.812500e+02
1.875000e+02
1.937500e+02
2.000000e+02
0.000000e+00
6.250000e+00
1.250000e+01
1.875000e+01
2.500000e+01
3.125000e+01
3.750000e+01
4.375000e+01
5.000000e+01
5.625000e+01
6.250000e+01
6.875000e+01
7.500000e+01
8.125000e+01
8.750000e+01
9.375000e+01
1.000000e+02
1.062500e+02
1.125000e+02
1.187500e+02
1.250000e+02
1.312500e+02
1.375000e+02
1.437500e+02
1.500000e+02
1.562500e+02
1.625000e+02
1.687500e+02
1.750000e+02
1.812500e+02
1.875000e+02
1.937500e+02
2.000000e+02
0.000000e+00
6.250000e+00
1.250000e+01
1.875000e+01
2.500000e+01
3.125000e+01
3.750000e+01
4.375000e+01
5.000000e+01
5.625000e+01
6.250000e+01
6.875000e+01
7.500000e+01
8.125000e+01
8.750000e+01
9.375000e+01
1.000000e+02
1.062500e+02
1.125000e+02
1.187500e+02
1.250000e+02
1.312500e+02
1.375000e+02
1.437500e+02
1.500000e+02
1.562500e+02
1.625000e+02
1.687500e+02
1.750000e+02
1.812500e+02
1.875000e+02
1.937500e+02
2.000000e+02
0.000000e+00
6.250000e+00
1.250000e+01
1.875000e+01
2.500000e+01
3.125000e+01
3.750000e+01
4.375000e+01
5.000000e+01
5.625000e+01
6.250000e+01
6.875000e+01
7.500000e+01
8.125000e+01
8.750000e+01
9.375000e+01
1.000000e+02
1.062500e+02
1.125000e+02
1.187500e+02
1.250000e+02
1.312500e+02
1.375000e+02
1.437500e+02
1.500000e+02
1.562500e+02
1.625000e+02
1.687500e+02
1.750000e+02
1.812500e+02
1.875000e+02
1.937500e+02
2.000000e+02
0.000000e+00
6.250000e+00
1.250000e+01
1.875000e+01
2.500000e+01
3.125000e+01
3.750000e+01
4.375000e+01
5.000000e+01
5.625000e+01
6.250000e+01
6.875000e+01
7.500000e+01
8.125000e+01
8.750000e+01
9.375000e+01
1.000000e+02
1.062500e+02
1.125000e+02
1.187500e+02
1.250000e+02
1.312500e+02
1.375000e+02
1.437500e+02
1.500000e+02
1.562500e+02
1.625000e+02
1.687500e+02
1.750000e+02
1.812500e+02
1.875000e+02
1.937500e+02
2.000000e+02
0.000000e+00
6.250000e+00
1.250000e+01
1.875000e+01
2.500000e+01
3.125000e+01
3.750000e+01
4.375000e+01
5.000000e+01
5.625000e+01
6.250000e+01
6.875000e+01
7.500000e+01
8.125000e+01
8.750000e+01
9.375000e+01
1.000000e+02
1.062500e+02
1.125000e+02
1.187500e+02
1.250000e+02
1.312500e+02
1.375000e+02
1.437500e+02
1.500000e+02
1.562500e+02
1.625000e+02
1.687500e+02
1.750000e+02
1.812500e+02
1.875000e+02
1.937500e+02
2.000000e+02
0.000000e+00
6.250000e+00
1.250000e+01
1.875000e+01
2.500000e+01
3.125000e+01
3.750000e+01
4.375000e+01
5.000000e+01
5.625000e+01
6.250000e+01
6.875000e+01
7.500000e+01
8.125000e+01
8.750000e+01
9.375000e+01
1.000000e+02
1.062500e+02
1.125000e+02
1.187500e+02
1.250000e+02
1.312500e+02
1.375000e+02
1.437500e+02
1.500000e+02
1.562500e+02
1.625000e+02
1.687500e+02
1.750000e+02
1.812500e+02
1.875000e+02
1.937500e+02
2.000000e+02
0.000000e+00
6.250000e+00
1.250000e+01
1.875000e+01
2.500000e+01
3.125000e+01
3.750000e+01
4.375000e+01
5.000000e+01
5.625000e+01
6.250000e+01
6.875000e+01
7.500000e+01
8.125000e+01
8.750000e+01
9.375000e+01
1.000000e+02
1.062500e+02
1.125000e+02
1.187500e+02
1.250000e+02
1.312500e+02
1.375000e+02
1.437500e+02
1.500000e+02
1.562500e+02
1.625000e+02
1.687500e+02
1.750000e+02
1.812500e+02
1.875000e+02
1.937500e+02
2.000000e+02
0.000000e+00
6.250000e+00
1.250000e+01
1.875000e+01
2.500000e+01
3.125000e+01
3.750000e+01
4.375000e+01
5.000000e+01
5.625000e+01
6.250000e+01
6.875000e+01
7.500000e+01
8.125000e+01
8.750000e+01
9.375000e+01
1.000000e+02
1.062500e+02
1.125000e+02
1.187500e+02
1.250000e+02
1.312500e+02
1.375000e+02
1.437500e+02
1.500000e+02
1.562500e+02
1.625000e+02
1.687500e+02
1.750000e+02
1.812500e+02
1.875000e+02
1.937500e+02
2.000000e+02
0.000000e+00
6.250000e+00
1.250000e+01
1.875000e+01
2.500000e+01
3.125000e+01
3.750000e+01
4.375000e+01
5.000000e+01
5.625000e+01
6.250000e+01
6.875000e+01
7.500000e+01
8.125000e+01
8.750000e+01
9.375000e+01
1.000000e+02
1.062500e+02
1.125000e+02
1.187500e+02
1.250000e+02
1.312500e+02
1.375000e+02
1.437500e+02
1.500000e+02
1.562500e+02
1.625000e+02
1.687500e+02
1.750000e+02
1.812500e+02
1.875000e+02
1.937500e+02
2.000000e+02
0.000000e+00
6.250000e+00
1.250000e+01
1.875000e+01
2.500000e+01
3.125000e+01
3.750000e+01
4.375000e+01
5.000000e+01
5.625000e+01
6.250000e+01
6.875000e+01
7.500000e+01
8.125000e+01
8.750000e+01
9.375000e+01
1.000000e+02
1.062500e+02
1.125000e+02
1.187500e+02
1.250000e+02
1.312500e+02
1.375000e+02
1.437500e+02
1.500000e+02
1.562500e+02
1.625000e+02
1.687500e+02
1.750000e+02
1.812500e+02
1.875000e+02
1.937500e+02
2.000000e+02
0.000000e+00
6.250000e+00
1.250000e+01
1.875000e+01
2.500000e+01
3.125000e+01
3.750000e+01
4.375000e+01
5.000000e+01
5.625000e+01
6.250000e+01
6.875000e+01
7.500000e+01
8.125000e+01
8.750000e+01
9.375000e+01
1.000000e+02
1.062500e+02
1.125000e+02
1.187500e+02
1.250000e+02
1.312500e+02
1.375000e+02
1.437500e+02
1.500000e+02
1.562500e+02
1.625000e+02
1.687500e+02
1.750000e+02
1.812500e+02
1.875000e+02
1.937500e+02
2.000000e+02
0.000000e+00
6.250000e+00
1.250000e+01
1.875000e+01
2.500000e+01
3.125000e+01
3.750000e+01
4.375000e+01
5.000000e+01
5.625000e+01
6.250000e+01
6.875000e+01
7.500000e+01
8.125000e+01
8.750000e+01
9.375000e+01
1.000000e+02
1.062500e+02
1.125000e+02
1.187500e+02
1.250000e+02
1.312500e+02
1.375000e+02
1.437500e+02
1.500000e+02
1.562500e+02
1.625000e+02
1.687500e+02
1.750000e+02
1.812500e+02
1.875000e+02
1.937500e+02
2.000000e+02
0.000000e+00
6.250000e+00
1.250000e+01
1.875000e+01
2.500000e+01
3.125000e+01
3.750000e+01
4.375000e+01
5.000000e+01
5.625000e+01
6.250000e+01
6.875000e+01
7.500000e+01
8.125000e+01
8.750000e+01
9.375000e+01
1.000000e+02
1.062500e+02
1.125000e+02
1.187500e+02
1.250000e+02
1.312500e+02
1.375000e+02
1.437500e+02
1.500000e+02
1.562500e+02
1.625000e+02
1.687500e+02
1.750000e+02
1.812500e+02
1.875000e+02
1.937500e+02
2.000000e+02
0.000000e+00
6.250000e+00
1.250000e+01
1.875000e+01
2.500000e+01
3.125000e+01
3.750000e+01
4.375000e+01
5.000000e+01
5.625000e+01
6.250000e+01
6.875000e+01
7.500000e+01
8.125000e+01
8.750000e+01
9.375000e+01
1.000000e+02
1.062500e+02
1.125000e+02
1.187500e+02
1.250000e+02
1.312500e+02
1.375000e+02
1.437500e+02
1.500000e+02
1.562500e+02
1.625000e+02
1.687500e+02
1.750000e+02
1.812500e+02
1.875000e+02
1.937500e+02
2.000000e+02
0.000000e+00
6.250000e+00
1.250000e+01
1.875000e+01
2.500000e+01
3.125000e+01
3.750000e+01
4.375000e+01
5.000000e+01
5.625000e+01
6.250000e+01
6.875000e+01
7.500000e+01
8.125000e+01
8.750000e+01
9.375000e+01
1.000000e+02
1.062500e+02
1.125000e+02
1.187500e+02
1.250000e+02
1.312500e+02
1.375000e+02
1.437500e+02
1.500000e+02
1.562500e+02
1.625000e+02
1.687500e+02
1.750000e+02
1.812500e+02
1.875000e+02
1.937500e+02
2.000000e+02
0.000000e+00
0.000000e+00
0.000000e+00
0.000000e+00
0.000000e+00
0.000000e+00
0.000000e+00
0.000000e+00
0.000000e+00
0.000000e+00
0.000000e+00
0.000000e+00
0.000000e+00
0.000000e+00
0.000000e+00
0.000000e+00
0.000000e+00
0.000000e+00
0.000000e+00
0.000000e+00
0.000000e+00
0.000000e+00
0.000000e+00
0.000000e+00
0.000000e+00
0.000000e+00
0.000000e+00
0.000000e+00
0.000000e+00
0.000000e+00
0.000000e+00
0.000000e+00
0.000000e+00
6.250000e+00
6.250000e+00
6.250000e+00
6.250000e+00
6.250000e+00
6.250000e+00
6.250000e+00
6.250000e+00
6.250000e+00
6.250000e+00
6.250000e+00
6.250000e+00
6.250000e+00
6.250000e+00
6.250000e+00
6.250000e+00
6.250000e+00
6.250000e+00
6.250000e+00
6.250000e+00
6.250000e+00
6.250000e+00
6.250000e+00
6.250000e+00
6.250000e+00
6.250000e+00
6.250000e+00
6.250000e+00
6.250000e+00
6.250000e+00
6.250000e+00
6.250000e+00
6.250000e+00
1.250000e+01
1.250000e+01
1.250000e+01
1.250000e+01
1.250000e+01
1.250000e+01
1.250000e+01
1.250000e+01
1.250000e+01
1.250000e+01
1.250000e+01
1.250000e+01
1.250000e+01
1.250000e+01
1.250000e+01
1.250000e+01
1.250000e+01
1.250000e+01
1.250000e+01
1.250000e+01
1.250000e+01
1.250000e+01
1.250000e+01
1.250000e+01
1.250000e+01
1.250000e+01
1.250000e+01
1.250000e+01
1.250000e+01
1.250000e+01
1.250000e+01
1.250000e+01
1.250000e+01
1.875000e+01
1.875000e+01
1.875000e+01
1.875000e+01
1.875000e+01
1.875000e+01
1.875000e+01
1.875000e+01
1.875000e+01
1.875000e+01
1.875000e+01
1.875000e+01
1.875000e+01
1.875000e+01
1.875000e+01
1.875000e+01
1.875000e+01
1.875000e+01
1.875000e+01
1.875000e+01
1.875000e+01
1.875000e+01
1.875000e+01
1.875000e+01
1.875000e+01
1.875000e+01
1.875000e+01
1.875000e+01
1.875000e+01
1.875000e+01
1.875000e+01
1.875000e+01
1.875000e+01
2.500000e+01
2.500000e+01
2.500000e+01
2.500000e+01
2.500000e+01
2.500000e+01
2.500000e+01
2.500000e+01
2.500000e+01
2.500000e+01
2.500000e+01
2.500000e+01
2.500000e+01
2.500000e+01
2.500000e+01
2.500000e+01
2.500000e+01
2.500000e+01
2.500000e+01
2.500000e+01
2.500000e+01
2.500000e+01
2.500000e+01
2.500000e+01
2.500000e+01
2.500000e+01
2.500000e+01
2.500000e+01
2.500000e+01
2.500000e+01
2.500000e+01
2.500000e+01
2.500000e+01
3.125000e+01
3.125000e+01
3.125000e+01
3.125000e+01
3.125000e+01
3.125000e+01
3.125000e+01
3.125000e+01
3.125000e+01
3.125000e+01
3.125000e+01
3.125000e+01
3.125000e+01
3.125000e+01
3.125000e+01
3.125000e+01
3.125000e+01
3.125000e+01
3.125000e+01
3.125000e+01
3.125000e+01
3.125000e+01
3.125000e+01
3.125000e+01
3.125000e+01
3.125000e+01
3.125000e+01
3.125000e+01
3.125000e+01
3.125000e+01
3.125000e+01
3.125000e+01
3.125000e+01
3.750000e+01
3.750000e+01
3.750000e+01
3.750000e+01
3.750000e+01
3.750000e+01
3.750000e+01
3.750000e+01
3.750000e+01
3.750000e+01
3.750000e+01
3.750000e+01
3.750000e+01
3.750000e+01
3.750000e+01
3.750000e+01
3.750000e+01
3.750000e+01
3.750000e+01
3.750000e+01
3.750000e+01
3.750000e+01
3.750000e+01
3.750000e+01
3.750000e+01
3.750000e+01
3.750000e+01
3.750000e+01
3.750000e+01
3.750000e+01
3.750000e+01
3.750000e+01
3.750000e+01
4.375000e+01
4.375000e+01
4.375000e+01
4.375000e+01
4.375000e+01
4.375000e+01
4.375000e+01
4.375000e+01
4.375000e+01
4.375000e+01
4.375000e+01
4.375000e+01
4.375000e+01
4.375000e+01
4.375000e+01
4.375000e+01
4.375000e+01
4.375000e+01
4.375000e+01
4.375000e+01
4.375000e+01
4.375000e+01
4.375000e+01
4.375000e+01
4.375000e+01
4.375000e+01
4.375000e+01
4.375000e+01
4.375000e+01
4.375000e+01
4.375000e+01
4.375000e+01
4.375000e+01
5.000000e+01
5.000000e+01
5.000000e+01
5.000000e+01
5.000000e+01
5.000000e+01
5.000000e+01
5.000000e+01
5.000000e+01
5.000000e+01
5.000000e+01
5.000000e+01
5.000000e+01
5.000000e+01
5.000000e+01
5.000000e+01
5.000000e+01
5.000000e+01
5.000000e+01
5.000000e+01
5.000000e+01
5.000000e+01
5.000000e+01
5.000000e+01
5.000000e+01
5.000000e+01
5.000000e+01
5.000000e+01
5.000000e+01
5.000000e+01
5.000000e+01
5.000000e+01
5.000000e+01
5.625000e+01
5.625000e+01
5.625000e+01
5.625000e+01
5.625000e+01
5.625000e+01
5.625000e+01
5.625000e+01
5.625000e+01
5.625000e+01
5.625000e+01
5.625000e+01
5.625000e+01
5.625000e+01
5.625000e+01
5.625000e+01
5.625000e+01
5.625000e+01
5.625000e+01
5.625000e+01
5.625000e+01
5.625000e+01
5.625000e+01
5.625000e+01
5.625000e+01
5.625000e+01
5.625000e+01
5.625000e+01
5.625000e+01
5.625000e+01
5.625000e+01
5.625000e+01
5.625000e+01
6.250000e+01
6.250000e+01
6.250000e+01
6.250000e+01
6.250000e+01
6.250000e+01
6.250000e+01
6.250000e+01
6.250000e+01
6.250000e+01
6.250000e+01
6.250000e+01
6.250000e+01
6.250000e+01
6.250000e+01
6.250000e+01
6.250000e+01
6.250000e+01
6.250000e+01
6.250000e+01
6.250000e+01
6.250000e+01
6.250000e+01
6.250000e+01
6.250000e+01
6.250000e+01
6.250000e+01
6.250000e+01
6.250000e+01
6.250000e+01
6.250000e+01
6.250000e+01
6.250000e+01
6.875000e+01
6.875000e+01
6.875000e+01
6.875000e+01
6.875000e+01
6.875000e+01
6.875000e+01
6.875000e+01
6.875000e+01
6.875000e+01
6.875000e+01
6.875000e+01
6.875000e+01
6.875000e+01
6.875000e+01
6.875000e+01
6.875000e+01
6.875000e+01
6.875000e+01
6.875000e+01
6.875000e+01
6.875000e+01
6.875000e+01
6.875000e+01
6.875000e+01
6.875000e+01
6.875000e+01
6.875000e+01
6.875000e+01
6.875000e+01
6.875000e+01
6.875000e+01
6.875000e+01
7.500000e+01
7.500000e+01
7.500000e+01
7.500000e+01
7.500000e+01
7.500000e+01
7.500000e+01
7.500000e+01
7.500000e+01
7.500000e+01
7.500000e+01
7.500000e+01
7.500000e+01
7.500000e+01
7.500000e+01
7.500000e+01
7.500000e+01
7.500000e+01
7.500000e+01
7.500000e+01
7.500000e+01
7.500000e+01
7.500000e+01
7.500000e+01
7.500000e+01
7.500000e+01
7.500000e+01
7.500000e+01
7.500000e+01
7.500000e+01
7.500000e+01
7.500000e+01
7.500000e+01
8.125000e+01
8.125000e+01
8.125000e+01
8.125000e+01
8.125000e+01
8.125000e+01
8.125000e+01
8.125000e+01
8.125000e+01
8.125000e+01
8.125000e+01
8.125000e+01
8.125000e+01
8.125000e+01
8.125000e+01
8.125000e+01
8.125000e+01
8.125000e+01
8.125000e+01
8.125000e+01
8.125000e+01
8.125000e+01
8.125000e+01
8.125000e+01
8.125000e+01
8.125000e+01
8.125000e+01
8.125000e+01
8.125000e+01
8.125000e+01
8.125000e+01
8.125000e+01
8.125000e+01
8.750000e+01
8.750000e+01
8.750000e+01
8.750000e+01
8.750000e+01
8.750000e+01
8.750000e+01
8.750000e+01
8.750000e+01
8.750000e+01
8.750000e+01
8.750000e+01
8.750000e+01
8.750000e+01
8.750000e+01
8.750000e+01
8.750000e+01
8.750000e+01
8.750000e+01
8.750000e+01
8.750000e+01
8.750000e+01
8.750000e+01
8.750000e+01
8.750000e+01
8.750000e+01
8.750000e+01
8.750000e+01
8.750000e+01
8.750000e+01
8.750000e+01
8.750000e+01
8.750000e+01
9.375000e+01
9.375000e+01
9.375000e+01
9.375000e+01
9.375000e+01
9.375000e+01
9.375000e+01
9.375000e+01
9.375000e+01
9.375000e+01
9.375000e+01
9.375000e+01
9.375000e+01
9.375000e+01
9.375000e+01
9.375000e+01
9.375000e+01
9.375000e+01
9.375000e+01
9.375000e+01
9.375000e+01
9.375000e+01
9.375000e+01
9.375000e+01
9.375000e+01
9.375000e+01
9.375000e+01
9.375000e+01
9.375000e+01
9.375000e+01
9.375000e+01
9.375000e+01
9.375000e+01
1.000000e+02
1.000000e+02
1.000000e+02
1.000000e+02
1.000000e+02
1.000000e+02
1.000000e+02
1.000000e+02
1.000000e+02
1.000000e+02
1.000000e+02
1.000000e+02
1.000000e+02
1.000000e+02
1.000000e+02
1.000000e+02
1.000000e+02
1.000000e+02
1.000000e+02
1.000000e+02
1.000000e+02
1.000000e+02
1.000000e+02
1.000000e+02
1.000000e+02
1.000000e+02
1.000000e+02
1.000000e+02
1.000000e+02
1.000000e+02
1.000000e+02
1.000000e+02
1.000000e+02
0.000000e+00
-4.409077e-01
-7.498337e-01
-1.077322e+00
-1.384871e+00
-1.683114e+00
-1.992135e+00
-2.289447e+00
-2.589462e+00
-2.890619e+00
-3.188840e+00
-3.489246e+00
-3.788787e+00
-4.087661e+00
-4.387505e+00
-4.686480e+00
-4.985525e+00
-5.284844e+00
-5.583675e+00
-5.882827e+00
-6.182178e+00
-6.481308e+00
-6.781120e+00
-7.082369e+00
-7.384419e+00
-7.691321e+00
-8.006974e+00
-8.326652e+00
-8.660892e+00
-9.042344e+00
-9.497283e+00
-9.909117e+00
-1.011673e+01
0.000000e+00
-2.344178e-01
-4.793427e-01
-7.431303e-01
-1.010276e+00
-1.264257e+00
-1.532402e+00
-1.793017e+00
-2.054333e+00
-2.318676e+00
-2.579080e+00
-2.841991e+00
-3.103925e+00
-3.365136e+00
-3.627322e+00
-3.888501e+00
-4.149765e+00
-4.411111e+00
-4.671847e+00
-4.932637e+00
-5.193386e+00
-5.453585e+00
-5.713969e+00
-5.974712e+00
-6.234305e+00
-6.494693e+00
-6.756561e+00
-7.013661e+00
-7.270164e+00
-7.534730e+00
-7.764407e+00
-7.856914e+00
-7.961927e+00
0.000000e+00
-1.287505e-01
-2.855048e-01
-4.843852e-01
-6.966700e-01
-9.023909e-01
-1.126222e+00
-1.346721e+00
-1.568837e+00
-1.794388e+00
-2.017032e+00
-2.242181e+00
-2.466862e+00
-2.691227e+00
-2.916595e+00
-3.141373e+00
-3.366383e+00
-3.591563e+00
-3.816273e+00
-4.040906e+00
-4.265255e+00
-4.488712e+00
-4.711293e+00
-4.932283e+00
-5.149404e+00
-5.361275e+00
-5.565254e+00
-5.755230e+00
-5.926795e+00
-6.068575e+00
-6.137287e+00
-6.138948e+00
-6.231259e+00
0.000000e+00
-1.022179e-01
-1.997431e-01
-3.432632e-01
-4.786271e-01
-6.376222e-01
-8.117375e-01
-9.866878e-01
-1.168687e+00
-1.352585e+00
-1.537403e+00
-1.724651e+00
-1.912527e+00
-2.101020e+00
-2.290712e+00
-2.480552e+00
-2.670863e+00
-2.861462e+00
-3.051688e+00
-3.241442e+00
-3.430093e+00
-3.616611e+00
-3.799802e+00
-3.977916e+00
-4.147948e+00
-4.306566e+00
-4.449818e+00
-4.571644e+00
-4.664029e+00
-4.715346e+00
-4.719985e+00
-4.730567e+00
-4.811934e+00
0.000000e+00
-8.985718e-02
-1.786628e-01
-2.739285e-01
-3.830080e-01
-5.027303e-01
-6.334564e-01
-7.690458e-01
-9.112492e-01
-1.055769e+00
-1.202251e+00
-1.351008e+00
-1.499948e+00
-1.650049e+00
-1.800468e+00
-1.950879e+00
-2.101359e+00
-2.251218e+00
-2.400150e+00
-2.547451e+00
-2.692205e+00
-2.833135e+00
-2.968548e+00
-3.096322e+00
-3.213722e+00
-3.317496e+00
-3.403697e+00
-3.467469e+00
-3.503926e+00
-3.512174e+00
-3.503345e+00
-3.531229e+00
-3.608094e+00
0.000000e+00
-7.159520e-02
-1.415691e-01
-2.151617e-01
-2.959404e-01
-3.838040e-01
-4.781770e-01
-5.785410e-01
-6.823950e-01
-7.894007e-01
-8.981463e-01
-1.007885e+00
-1.118476e+00
-1.229191e+00
-1.339934e+00
-1.450373e+00
-1.560106e+00
-1.668801e+00
-1.775843e+00
-1.880457e+00
-1.981579e+00
-2.077797e+00
-2.167324e+00
-2.248082e+00
-2.317741e+00
-2.373771e+00
-2.413526e+00
-2.434529e+00
-2.436392e+00
-2.422448e+00
-2.416146e+00
-2.447485e+00
-2.519064e+00
0.000000e+00
-4.928832e-02
-9.819266e-02
-1.486166e-01
-2.025098e-01
-2.605423e-01
-3.226980e-01
-3.883452e-01
-4.567605e-01
-5.270157e-01
-5.984637e-01
-6.705227e-01
-7.427509e-01
-8.148427e-01
-8.864652e-01
-9.573369e-01
-1.027117e+00
-1.095377e+00
-1.161564e+00
-1.224904e+00
-1.284356e+00
-1.338567e+00
-1.385884e+00
-1.424456e+00
-1.452381e+00
-1.467922e+00
-1.469721e+00
-1.457042e+00
-1.431676e+00
-1.403022e+00
-1.394450e+00
-1.426458e+00
-1.497315e+00
0.000000e+00
-2.564065e-02
-5.118356e-02
-7.733110e-02
-1.048460e-01
-1.341606e-01
-1.652863e-01
-1.979868e-01
-2.318378e-01
-2.664091e-01
-3.012705e-01
-3.360683e-01
-3.705032e-01
-4.043045e-01
-4.372231e-01
-4.689903e-01
-4.993078e-01
-5.278148e-01
-5.540440e-01
-5.773671e-01
-5.969257e-01
-6.115923e-01
-6.199913e-01
-6.205982e-01
-6.118874e-01
-5.925141e-01
-5.615399e-01
-5.198307e-01
-4.739421e-01
-4.355590e-01
-4.264496e-01
-4.598172e-01
-5.309665e-01
0.000000e+00
-1.331143e-03
-2.654981e-03
-3.921901e-03
-5.076007e-03
-6.049718e-03
-6.763267e-03
-7.124288e-03
-7.031068e-03
-6.374261e-03
-5.037339e-03
-2.895373e-03
1.891158e-04
4.371305e-03
9.829902e-03
1.677058e-02
2.542811e-02
3.607209e-02
4.902678e-02
6.471445e-02
8.371425e-02
1.068102e-01
1.349960e-01
1.694025e-01
2.112246e-01
2.615964e-01
3.204695e-01
3.837245e-01
4.414720e-01
4.802575e-01
4.859099e-01
4.507328e-01
3.818467e-01
0.000000e+00
2.302681e-02
4.596901e-02
6.962587e-02
9.487526e-02
1.222816e-01
1.520205e-01
1.840403e-01
2.181182e-01
2.540375e-01
2.915901e-01
3.306571e-01
3.711921e-01
4.132088e-01
4.567889e-01
5.020546e-01
5.491703e-01
5.983262e-01
6.497344e-01
7.036515e-01
7.604027e-01
8.203982e-01
8.841456e-01
9.522842e-01
1.025403e+00
1.103096e+00
1.182651e+00
1.257794e+00
1.318085e+00
1.352309e+00
1.352413e+00
1.317986e+00
1.259786e+00
0.000000e+00
4.681591e-02
9.324538e-02
1.413062e-01
1.930447e-01
2.492803e-01
3.101608e-01
3.752553e-01
4.440420e-01
5.157966e-01
5.900839e-01
6.665180e-01
7.448557e-01
8.249942e-01
9.068290e-01
9.903631e-01
1.075637e+00
1.162746e+00
1.251870e+00
1.343247e+00
1.437121e+00
1.533575e+00
1.632450e+00
1.733259e+00
1.834828e+00
1.934710e+00
2.028259e+00
2.108287e+00
2.166872e+00
2.197267e+00
2.196803e+00
2.169428e+00
2.126488e+00
0.000000e+00
6.933433e-02
1.370319e-01
2.084063e-01
2.872124e-01
3.733733e-01
4.666136e-01
5.665958e-01
6.710120e-01
7.798008e-01
8.917343e-01
1.006285e+00
1.123472e+00
1.242686e+00
1.363910e+00
1.486867e+00
1.611262e+00
1.737021e+00
1.864072e+00
1.992604e+00
2.122788e+00
2.254222e+00
2.385763e+00
2.515560e+00
2.641046e+00
2.758464e+00
2.862459e+00
2.947001e+00
3.006905e+00
3.039393e+00
3.044725e+00
3.027808e+00
2.999940e+00
0.000000e+00
8.790343e-02
1.745615e-01
2.679204e-01
3.749125e-01
4.930853e-01
6.226962e-01
7.578221e-01
9.006365e-01
1.046927e+00
1.196747e+00
1.350618e+00
1.506713e+00
1.666156e+00
1.828090e+00
1.992041e+00
2.157807e+00
2.324400e+00
2.491418e+00
2.658483e+00
2.824793e+00
2.989055e+00
3.149777e+00
3.305051e+00
3.451877e+00
3.585822e+00
3.701649e+00
3.794620e+00
3.861637e+00
3.901457e+00
3.915449e+00
3.909192e+00
3.894314e+00
0.000000e+00
1.006110e-01
1.968918e-01
3.382661e-01
4.719367e-01
6.290796e-01
8.017983e-01
9.758723e-01
1.157598e+00
1.342320e+00
1.529189e+00
1.720169e+00
1.913779e+00
2.110359e+00
2.310564e+00
2.513159e+00
2.718085e+00
2.924359e+00
3.130746e+00
3.336492e+00
3.539527e+00
3.737790e+00
3.930070e+00
4.114213e+00
4.285988e+00
4.439903e+00
4.570790e+00
4.675064e+00
4.751111e+00
4.799188e+00
4.821759e+00
4.824727e+00
4.819713e+00
0.000000e+00
1.286248e-01
2.851046e-01
4.831277e-01
6.938306e-01
8.981776e-01
1.120605e+00
1.339850e+00
1.561036e+00
1.786029e+00
2.008669e+00
2.234610e+00
2.461085e+00
2.688547e+00
2.918451e+00
3.149135e+00
3.381315e+00
3.614280e+00
3.847028e+00
4.079346e+00
4.309126e+00
4.535087e+00
4.757405e+00
4.972689e+00
5.172472e+00
5.347903e+00
5.493435e+00
5.607100e+00
5.689419e+00
5.742671e+00
5.770794e+00
5.780021e+00
5.781046e+00
0.000000e+00
2.344497e-01
4.794718e-01
7.432142e-01
1.010176e+00
1.264023e+00
1.531913e+00
1.792202e+00
2.053223e+00
2.317101e+00
2.576939e+00
2.839202e+00
3.100248e+00
3.360399e+00
3.621264e+00
3.880707e+00
4.139886e+00
4.398437e+00
4.655589e+00
4.911986e+00
5.166423e+00
5.418914e+00
5.670711e+00
5.916115e+00
6.141372e+00
6.334370e+00
6.489568e+00
6.606408e+00
6.687445e+00
6.737527e+00
6.763327e+00
6.772756e+00
6.775047e+00
0.000000e+00
4.407732e-01
7.502341e-01
1.078307e+00
1.387106e+00
1.686672e+00
1.996875e+00
2.295345e+00
2.596329e+00
2.898081e+00
3.196404e+00
3.496309e+00
3.794240e+00
4.090295e+00
4.385749e+00
4.678534e+00
4.969781e+00
5.259539e+00
5.547341e+00
5.834425e+00
6.120579e+00
6.406620e+00
6.692513e+00
6.968421e+00
7.215896e+00
7.421272e+00
7.579122e+00
7.689442e+00
7.756102e+00
7.786689e+00
7.792630e+00
7.788295e+00
7.785768e+00
0.000000e+00
-2.643313e-01
-5.405235e-01
-8.882321e-01
-1.272746e+00
-1.698160e+00
-2.166262e+00
-2.668886e+00
-3.210588e+00
-3.789081e+00
-4.404408e+00
-5.058171e+00
-5.748965e+00
-6.477787e+00
-7.244571e+00
-8.049026e+00
-8.891715e+00
-9.772460e+00
-1.069142e+01
-1.164901e+01
-1.264529e+01
-1.368059e+01
-1.475556e+01
-1.587055e+01
-1.702673e+01
-1.822732e+01
-1.947575e+01
-2.077820e+01
-2.214776e+01
-2.359971e+01
-2.515400e+01
-2.697408e+01
-2.953254e+01
0.000000e+00
-1.676314e-01
-4.604008e-01
-8.011585e-01
-1.190020e+00
-1.613785e+00
-2.081676e+00
-2.585553e+00
-3.126256e+00
-3.705167e+00
-4.320515e+00
-4.974058e+00
-5.665146e+00
-6.393863e+00
-7.160677e+00
-7.965261e+00
-8.807898e+00
-9.688724e+00
-1.060773e+01
-1.156528e+01
-1.256163e+01
-1.359694e+01
-1.467172e+01
-1.578673e+01
-1.694269e+01
-1.814214e+01
-1.939014e+01
-2.069220e+01
-2.205801e+01
-2.350628e+01
-2.508127e+01
-2.688325e+01
-2.915828e+01
0.000000e+00
-1.396929e-01
-4.023525e-01
-7.409661e-01
-1.123662e+00
-1.545385e+00
-2.011775e+00
-2.514782e+00
-3.054920e+00
-3.633605e+00
-4.248779e+00
-4.902161e+00
-5.593328e+00
-6.321919e+00
-7.088808e+00
-7.893438e+00
-8.736088e+00
-9.617064e+00
-1.053618e+01
-1.149387e+01
-1.249048e+01
-1.352606e+01
-1.460124e+01
-1.571711e+01
-1.687427e+01
-1.807536e+01
-1.932602e+01
-2.063145e+01
-2.200287e+01
-2.347235e+01
-2.508053e+01
-2.677736e+01
-2.854705e+01
0.000000e+00
-1.620389e-01
-3.917373e-01
-7.197558e-01
-1.083881e+00
-1.499163e+00
-1.961464e+00
-2.459956e+00
-2.999071e+00
-3.576296e+00
-4.190550e+00
-4.843697e+00
-5.534371e+00
-6.262847e+00
-7.029699e+00
-7.834292e+00
-8.677101e+00
-9.558300e+00
-1.047781e+01
-1.143605e+01
-1.243345e+01
-1.347020e+01
-1.454700e+01
-1.566515e+01
-1.682558e+01
-1.803110e+01
-1.928680e+01
-2.059857e+01
-2.198013e+01
-2.346432e+01
-2.506385e+01
-2.662380e+01
-2.804323e+01
0.000000e+00
-1.812234e-01
-4.144974e-01
-7.196528e-01
-1.075108e+00
-1.478310e+00
-1.932312e+00
-2.424846e+00
-2.960418e+00
-3.535092e+00
-4.147713e+00
-4.800103e+00
-5.490011e+00
-6.218413e+00
-6.985187e+00
-7.789928e+00
-8.633178e+00
-9.514883e+00
-1.043530e+01
-1.139477e+01
-1.239378e+01
-1.343278e+01
-1.451247e+01
-1.563401e+01
-1.679873e+01
-1.800928e+01
-1.926995e+01
-2.058641e+01
-2.196971e+01
-2.344099e+01
-2.498101e+01
-2.641994e+01
-2.767730e+01
0.000000e+00
-1.894598e-01
-4.287458e-01
-7.240294e-01
-1.071664e+00
-1.468624e+00
-1.913491e+00
-2.402278e+00
-2.933414e+00
-3.505598e+00
-4.117256e+00
-4.768370e+00
-5.458265e+00
-6.186686e+00
-6.953706e+00
-7.759128e+00
-8.603133e+00
-9.485926e+00
-1.040777e+01
-1.136915e+01
-1.237057e+01
-1.341262e+01
-1.449596e+01
-1.562142e+01
-1.679017e+01
-1.800435e+01
-1.926728e+01
-2.058228e+01
-2.195244e+01
-2.338692e+01
-2.483750e+01
-2.619222e+01
-2.736463e+01
0.000000e+00
-1.934419e-01
-4.349478e-01
-7.272775e-01
-1.070379e+00
-1.462791e+00
-1.902648e+00
-2.387769e+00
-2.916237e+00
-3.486482e+00
-4.097350e+00
-4.748036e+00
-5.438006e+00
-6.166915e+00
-6.934577e+00
-7.740947e+00
-8.586106e+00
-9.470292e+00
-1.039389e+01
-1.135745e+01
-1.236159e+01
-1.340692e+01
-1.449394e+01
-1.562305e+01
-1.679470e+01
-1.800994e+01
-1.927070e+01
-2.057671e+01
-2.192192e+01
-2.330588e+01
-2.467783e+01
-2.596074e+01
-2.707163e+01
0.000000e+00
-1.950816e-01
-4.375159e-01
-7.289995e-01
-1.070030e+00
-1.459938e+00
-1.897320e+00
-2.380412e+00
-2.907456e+00
-3.476905e+00
-4.087522e+00
-4.738402e+00
-5.428904e+00
-6.158613e+00
-6.927288e+00
-7.734843e+00
-8.581350e+00
-9.467054e+00
-1.039240e+01
-1.135802e+01
-1.236463e+01
-1.341287e+01
-1.450300e+01
-1.563480e+01
-1.680764e+01
-1.802095e+01
-1.927454e+01
-2.056469e+01
-2.187884e+01
-2.321095e+01
-2.451518e+01
-2.573032e+01
-2.678315e+01
0.000000e+00
-1.955001e-01
-4.382421e-01
-7.296287e-01
-1.070227e+00
-1.459595e+00
-1.896508e+00
-2.379344e+00
-2.906409e+00
-3.476169e+00
-4.087370e+00
-4.739060e+00
-5.430565e+00
-6.161432e+00
-6.931387e+00
-7.740310e+00
-8.588232e+00
-9.475376e+00
-1.040219e+01
-1.136939e+01
-1.237780e+01
-1.342805e+01
-1.452015e+01
-1.565308e+01
-1.682486e+01
-1.803299e+01
-1.927491e+01
-2.054451e+01
-2.182724e+01
-2.310842e+01
-2.435239e+01
-2.550233e+01
-2.649837e+01
0.000000e+00
-1.950236e-01
-4.375793e-01
-7.293710e-01
-1.070911e+00
-1.461554e+00
-1.899916e+00
-2.384249e+00
-2.912798e+00
-3.484015e+00
-4.096647e+00
-4.749770e+00
-5.442720e+00
-6.175053e+00
-6.946485e+00
-7.756862e+00
-8.606158e+00
-9.494520e+00
-1.042236e+01
-1.139041e+01
-1.239959e+01
-1.345053e+01
-1.454290e+01
-1.567469e+01
-1.684258e+01
-1.804277e+01
-1.927075e+01
-2.051834e+01
-2.177009e+01
-2.300614e+01
-2.419590e+01
-2.529251e+01
-2.624959e+01
0.000000e+00
-1.933181e-01
-4.350578e-01
-7.279904e-01
-1.072088e+00
-1.465946e+00
-1.907745e+00
-2.395331e+00
-2.926791e+00
-3.500541e+00
-4.115394e+00
-4.770496e+00
-5.465259e+00
-6.199273e+00
-6.972265e+00
-7.784056e+00
-8.634542e+00
-9.523762e+00
-1.045203e+01
-1.142008e+01
-1.242883e+01
-1.347876e+01
-1.456903e+01
-1.569703e+01
-1.685888e+01
-1.805003e+01
-1.926408e+01
-2.049038e+01
-2.171317e+01
-2.291151e+01
-2.405883e+01
-2.512073e+01
-2.606173e+01
0.000000e+00
-1.892491e-01
-4.288468e-01
-7.250205e-01
-1.074073e+00
-1.473128e+00
-1.920894e+00
-2.413320e+00
-2.948901e+00
-3.526292e+00
-4.143839e+00
-4.801452e+00
-5.498330e+00
-6.234105e+00
-7.008691e+00
-7.821675e+00
-8.672976e+00
-9.562498e+00
-1.049040e+01
-1.145747e+01
-1.246439e+01
-1.351119e+01
-1.459696e+01
-1.571947e+01
-1.687492e+01
-1.805766e+01
-1.925900e+01
-2.046648e+01
-2.166399e+01
-2.283262e+01
-2.395054e+01
-2.499324e+01
-2.593502e+01
0.000000e+00
-1.808664e-01
-4.144643e-01
-7.208326e-01
-1.077905e+00
-1.483835e+00
-1.941641e+00
-2.438869e+00
-2.980318e+00
-3.561822e+00
-4.182170e+00
-4.843063e+00
-5.542017e+00
-6.279800e+00
-7.056016e+00
-7.869885e+00
-8.721611e+00
-9.610718e+00
-1.053732e+01
-1.150226e+01
-1.250577e+01
-1.354748e+01
-1.462740e+01
-1.574446e+01
-1.689471e+01
-1.807061e+01
-1.926113e+01
-2.045241e+01
-2.162906e+01
-2.277481e+01
-2.387297e+01
-2.490712e+01
-2.586135e+01
0.000000e+00
-1.614263e-01
-3.917445e-01
-7.206594e-01
-1.086807e+00
-1.505126e+00
-1.971888e+00
-2.476004e+00
-3.022097e+00
-3.607565e+00
-4.231112e+00
-4.894550e+00
-5.596109e+00
-6.335760e+00
-7.113618e+00
-7.928416e+00
-8.780219e+00
-9.668585e+00
-1.059329e+01
-1.155524e+01
-1.255425e+01
-1.359015e+01
-1.466449e+01
-1.577741e+01
-1.692393e+01
-1.809401e+01
-1.927465e+01
-2.045173e+01
-2.161113e+01
-2.273918e+01
-2.382364e+01
-2.485529e+01
-2.582868e+01
0.000000e+00
-1.395134e-01
-4.025105e-01
-7.418761e-01
-1.126350e+00
-1.551237e+00
-2.022252e+00
-2.531254e+00
-3.078853e+00
-3.666431e+00
-4.291683e+00
-4.956310e+00
-5.659461e+00
-6.400321e+00
-7.179245e+00
-7.994793e+00
-8.846697e+00
-9.734565e+00
-1.065787e+01
-1.161724e+01
-1.261245e+01
-1.364393e+01
-1.471438e+01
-1.582422e+01
-1.696673e+01
-1.812991e+01
-1.930023e+01
-2.046439e+01
-2.160948e+01
-2.272366e+01
-2.379796e+01
-2.482912e+01
-2.582245e+01
0.000000e+00
-1.675936e-01
-4.604854e-01
-8.019284e-01
-1.192473e+00
-1.619439e+00
-2.091968e+00
-2.601943e+00
-3.150262e+00
-3.738222e+00
-4.363908e+00
-5.028986e+00
-5.732409e+00
-6.473766e+00
-7.252918e+00
-8.068617e+00
-8.920463e+00
-9.807886e+00
-1.073041e+01
-1.168826e+01
-1.268142e+01
-1.371105e+01
-1.477971e+01
-1.588629e+01
-1.702255e+01
-1.817633e+01
-1.933525e+01
-2.048716e+01
-2.162007e+01
-2.272328e+01
-2.378965e+01
-2.481964e+01
-2.582682e+01
0.000000e+00
-2.643356e-01
-5.407022e-01
-8.891011e-01
-1.275384e+00
-1.703973e+00
-2.176683e+00
-2.685415e+00
-3.234700e+00
-3.822176e+00
-4.447797e+00
-5.112982e+00
-5.815953e+00
-6.557226e+00
-7.336059e+00
-8.151324e+00
-9.002849e+00
-9.889751e+00
-1.081177e+01
-1.176900e+01
-1.276148e+01
-1.379091e+01
-1.485861e+01