TITLE = "Solution"
VARIABLES = x, y, u, v, psiu, psiv, t, stress
ZONE T="structure" N=561 E=512 F=FEBLOCK ET=QUADRILATERAL VARLOCATION=([7,8]=cellcentered)
0.000000e+00
6.250000e+00
1.250000e+01
1.875000e+01
2.500000e+01
3.125000e+01
3.750000e+01
4.375000e+01
5.000000e+01
5.625000e+01
6.250000e+01
6.875000e+01
7.500000e+01
8.125000e+01
8.750000e+01
9.375000e+01
1.000000e+02
1.062500e+02
1.125000e+02
1.187500e+02
1.250000e+02
1.312500e+02
1.375000e+02
1.437500e+02
1.500000e+02
1.562500e+02
1.625000e+02
1.687500e+02
1.750000e+02
1.812500e+02
1.875000e+02
1.937500e+02
2.000000e+02
0.000000e+00
6.250000e+00
1.250000e+01
1.875000e+01
2.500000e+01
3.125000e+01
3.750000e+01
4.375000e+01
5.000000e+01
5.625000e+01
6.250000e+01
6.875000e+01
7.500000e+01
8.125000e+01
8.750000e+01
9.375000e+01
1.000000e+02
1.062500e+02
1.125000e+02
1.187500e+02
1.250000e+02
1.312500e+02
1.375000e+02
1.437500e+02
1.500000e+02
1.562500e+02
1.625000e+02
1.687500e+02
1.750000e+02
1.812500e+02
1.875000e+02
1.937500e+02
2.000000e+02
0.000000e+00
6.250000e+00
1.250000e+01
1.875000e+01
2.500000e+01
3.125000e+01
3.750000e+01
4.375000e+01
5.000000e+01
5.625000e+01
6.250000e+01
6.875000e+01
7.500000e+01
8.125000e+01
8.750000e+01
9.375000e+01
1.000000e+02
1.062500e+02
1.125000e+02
1.187500e+02
1.250000e+02
1.312500e+02
1.375000e+02
1.437500e+02
1.500000e+02
1.562500e+02
1.625000e+02
1.687500e+02
1.750000e+02
1.812500e+02
1.875000e+02
1.937500e+02
2.000000e+02
0.000000e+00
6.250000e+00
1.250000e+01
1.875000e+01
2.500000e+01
3.125000e+01
3.750000e+01
4.375000e+01
5.000000e+01
5.625000e+01
6.250000e+01
6.875000e+01
7.500000e+01
8.125000e+01
8.750000e+01
9.375000e+01
1.000000e+02
1.062500e+02
1.125000e+02
1.187500e+02
1.250000e+02
1.312500e+02
1.375000e+02
1.437500e+02
1.500000e+02
1.562500e+02
1.625000e+02
1.687500e+02
1.750000e+02
1.812500e+02
1.875000e+02
1.937500e+02
2.000000e+02
0.000000e+00
6.250000e+00
1.250000e+01
1.875000e+01
2.500000e+01
3.125000e+01
3.750000e+01
4.375000e+01
5.000000e+01
5.625000e+01
6.250000e+01
6.875000e+01
7.500000e+01
8.125000e+01
8.750000e+01
9.375000e+01
1.000000e+02
1.062500e+02
1.125000e+02
1.187500e+02
1.250000e+02
1.312500e+02
1.375000e+02
1.437500e+02
1.500000e+02
1.562500e+02
1.625000e+02
1.687500e+02
1.750000e+02
1.812500e+02
1.875000e+02
1.937500e+02
2.000000e+02
0.000000e+00
6.250000e+00
1.250000e+01
1.875000e+01
2.500000e+01
3.125000e+01
3.750000e+01
4.375000e+01
5.000000e+01
5.625000e+01
6.250000e+01
6.875000e+01
7.500000e+01
8.125000e+01
8.750000e+01
9.375000e+01
1.000000e+02
1.062500e+02
1.125000e+02
1.187500e+02
1.250000e+02
1.312500e+02
1.375000e+02
1.437500e+02
1.500000e+02
1.562500e+02
1.625000e+02
1.687500e+02
1.750000e+02
1.812500e+02
1.875000e+02
1.937500e+02
2.000000e+02
0.000000e+00
6.250000e+00
1.250000e+01
1.875000e+01
2.500000e+01
3.125000e+01
3.750000e+01
4.375000e+01
5.000000e+01
5.625000e+01
6.250000e+01
6.875000e+01
7.500000e+01
8.125000e+01
8.750000e+01
9.375000e+01
1.000000e+02
1.062500e+02
1.125000e+02
1.187500e+02
1.250000e+02
1.312500e+02
1.375000e+02
1.437500e+02
1.500000e+02
1.562500e+02
1.625000e+02
1.687500e+02
1.750000e+02
1.812500e+02
1.875000e+02
1.937500e+02
2.000000e+02
0.000000e+00
6.250000e+00
1.250000e+01
1.875000e+01
2.500000e+01
3.125000e+01
3.750000e+01
4.375000e+01
5.000000e+01
5.625000e+01
6.250000e+01
6.875000e+01
7.500000e+01
8.125000e+01
8.750000e+01
9.375000e+01
1.000000e+02
1.062500e+02
1.125000e+02
1.187500e+02
1.250000e+02
1.312500e+02
1.375000e+02
1.437500e+02
1.500000e+02
1.562500e+02
1.625000e+02
1.687500e+02
1.750000e+02
1.812500e+02
1.875000e+02
1.937500e+02
2.000000e+02
0.000000e+00
6.250000e+00
1.250000e+01
1.875000e+01
2.500000e+01
3.125000e+01
3.750000e+01
4.375000e+01
5.000000e+01
5.625000e+01
6.250000e+01
6.875000e+01
7.500000e+01
8.125000e+01
8.750000e+01
9.375000e+01
1.000000e+02
1.062500e+02
1.125000e+02
1.187500e+02
1.250000e+02
1.312500e+02
1.375000e+02
1.437500e+02
1.500000e+02
1.562500e+02
1.625000e+02
1.687500e+02
1.750000e+02
1.812500e+02
1.875000e+02
1.937500e+02
2.000000e+02
0.000000e+00
6.250000e+00
1.250000e+01
1.875000e+01
2.500000e+01
3.125000e+01
3.750000e+01
4.375000e+01
5.000000e+01
5.625000e+01
6.250000e+01
6.875000e+01
7.500000e+01
8.125000e+01
8.750000e+01
9.375000e+01
1.000000e+02
1.062500e+02
1.125000e+02
1.187500e+02
1.250000e+02
1.312500e+02
1.375000e+02
1.437500e+02
1.500000e+02
1.562500e+02
1.625000e+02
1.687500e+02
1.750000e+02
1.812500e+02
1.875000e+02
1.937500e+02
2.000000e+02
0.000000e+00
6.250000e+00
1.250000e+01
1.875000e+01
2.500000e+01
3.125000e+01
3.750000e+01
4.375000e+01
5.000000e+01
5.625000e+01
6.250000e+01
6.875000e+01
7.500000e+01
8.125000e+01
8.750000e+01
9.375000e+01
1.000000e+02
1.062500e+02
1.125000e+02
1.187500e+02
1.250000e+02
1.312500e+02
1.375000e+02
1.437500e+02
1.500000e+02
1.562500e+02
1.625000e+02
1.687500e+02
1.750000e+02
1.812500e+02
1.875000e+02
1.937500e+02
2.000000e+02
0.000000e+00
6.250000e+00
1.250000e+01
1.875000e+01
2.500000e+01
3.125000e+01
3.750000e+01
4.375000e+01
5.000000e+01
5.625000e+01
6.250000e+01
6.875000e+01
7.500000e+01
8.125000e+01
8.750000e+01
9.375000e+01
1.000000e+02
1.062500e+02
1.125000e+02
1.187500e+02
1.250000e+02
1.312500e+02
1.375000e+02
1.437500e+02
1.500000e+02
1.562500e+02
1.625000e+02
1.687500e+02
1.750000e+02
1.812500e+02
1.875000e+02
1.937500e+02
2.000000e+02
0.000000e+00
6.250000e+00
1.250000e+01
1.875000e+01
2.500000e+01
3.125000e+01
3.750000e+01
4.375000e+01
5.000000e+01
5.625000e+01
6.250000e+01
6.875000e+01
7.500000e+01
8.125000e+01
8.750000e+01
9.375000e+01
1.000000e+02
1.062500e+02
1.125000e+02
1.187500e+02
1.250000e+02
1.312500e+02
1.375000e+02
1.437500e+02
1.500000e+02
1.562500e+02
1.625000e+02
1.687500e+02
1.750000e+02
1.812500e+02
1.875000e+02
1.937500e+02
2.000000e+02
0.000000e+00
6.250000e+00
1.250000e+01
1.875000e+01
2.500000e+01
3.125000e+01
3.750000e+01
4.375000e+01
5.000000e+01
5.625000e+01
6.250000e+01
6.875000e+01
7.500000e+01
8.125000e+01
8.750000e+01
9.375000e+01
1.000000e+02
1.062500e+02
1.125000e+02
1.187500e+02
1.250000e+02
1.312500e+02
1.375000e+02
1.437500e+02
1.500000e+02
1.562500e+02
1.625000e+02
1.687500e+02
1.750000e+02
1.812500e+02
1.875000e+02
1.937500e+02
2.000000e+02
0.000000e+00
6.250000e+00
1.250000e+01
1.875000e+01
2.500000e+01
3.125000e+01
3.750000e+01
4.375000e+01
5.000000e+01
5.625000e+01
6.250000e+01
6.875000e+01
7.500000e+01
8.125000e+01
8.750000e+01
9.375000e+01
1.000000e+02
1.062500e+02
1.125000e+02
1.187500e+02
1.250000e+02
1.312500e+02
1.375000e+02
1.437500e+02
1.500000e+02
1.562500e+02
1.625000e+02
1.687500e+02
1.750000e+02
1.812500e+02
1.875000e+02
1.937500e+02
2.000000e+02
0.000000e+00
6.250000e+00
1.250000e+01
1.875000e+01
2.500000e+01
3.125000e+01
3.750000e+01
4.375000e+01
5.000000e+01
5.625000e+01
6.250000e+01
6.875000e+01
7.500000e+01
8.125000e+01
8.750000e+01
9.375000e+01
1.000000e+02
1.062500e+02
1.125000e+02
1.187500e+02
1.250000e+02
1.312500e+02
1.375000e+02
1.437500e+02
1.500000e+02
1.562500e+02
1.625000e+02
1.687500e+02
1.750000e+02
1.812500e+02
1.875000e+02
1.937500e+02
2.000000e+02
0.000000e+00
6.250000e+00
1.250000e+01
1.875000e+01
2.500000e+01
3.125000e+01
3.750000e+01
4.375000e+01
5.000000e+01
5.625000e+01
6.250000e+01
6.875000e+01
7.500000e+01
8.125000e+01
8.750000e+01
9.375000e+01
1.000000e+02
1.062500e+02
1.125000e+02
1.187500e+02
1.250000e+02
1.312500e+02
1.375000e+02
1.437500e+02
1.500000e+02
1.562500e+02
1.625000e+02
1.687500e+02
1.750000e+02
1.812500e+02
1.875000e+02
1.937500e+02
2.000000e+02
0.000000e+00
0.000000e+00
0.000000e+00
0.000000e+00
0.000000e+00
0.000000e+00
0.000000e+00
0.000000e+00
0.000000e+00
0.000000e+00
0.000000e+00
0.000000e+00
0.000000e+00
0.000000e+00
0.000000e+00
0.000000e+00
0.000000e+00
0.000000e+00
0.000000e+00
0.000000e+00
0.000000e+00
0.000000e+00
0.000000e+00
0.000000e+00
0.000000e+00
0.000000e+00
0.000000e+00
0.000000e+00
0.000000e+00
0.000000e+00
0.000000e+00
0.000000e+00
0.000000e+00
6.250000e+00
6.250000e+00
6.250000e+00
6.250000e+00
6.250000e+00
6.250000e+00
6.250000e+00
6.250000e+00
6.250000e+00
6.250000e+00
6.250000e+00
6.250000e+00
6.250000e+00
6.250000e+00
6.250000e+00
6.250000e+00
6.250000e+00
6.250000e+00
6.250000e+00
6.250000e+00
6.250000e+00
6.250000e+00
6.250000e+00
6.250000e+00
6.250000e+00
6.250000e+00
6.250000e+00
6.250000e+00
6.250000e+00
6.250000e+00
6.250000e+00
6.250000e+00
6.250000e+00
1.250000e+01
1.250000e+01
1.250000e+01
1.250000e+01
1.250000e+01
1.250000e+01
1.250000e+01
1.250000e+01
1.250000e+01
1.250000e+01
1.250000e+01
1.250000e+01
1.250000e+01
1.250000e+01
1.250000e+01
1.250000e+01
1.250000e+01
1.250000e+01
1.250000e+01
1.250000e+01
1.250000e+01
1.250000e+01
1.250000e+01
1.250000e+01
1.250000e+01
1.250000e+01
1.250000e+01
1.250000e+01
1.250000e+01
1.250000e+01
1.250000e+01
1.250000e+01
1.250000e+01
1.875000e+01
1.875000e+01
1.875000e+01
1.875000e+01
1.875000e+01
1.875000e+01
1.875000e+01
1.875000e+01
1.875000e+01
1.875000e+01
1.875000e+01
1.875000e+01
1.875000e+01
1.875000e+01
1.875000e+01
1.875000e+01
1.875000e+01
1.875000e+01
1.875000e+01
1.875000e+01
1.875000e+01
1.875000e+01
1.875000e+01
1.875000e+01
1.875000e+01
1.875000e+01
1.875000e+01
1.875000e+01
1.875000e+01
1.875000e+01
1.875000e+01
1.875000e+01
1.875000e+01
2.500000e+01
2.500000e+01
2.500000e+01
2.500000e+01
2.500000e+01
2.500000e+01
2.500000e+01
2.500000e+01
2.500000e+01
2.500000e+01
2.500000e+01
2.500000e+01
2.500000e+01
2.500000e+01
2.500000e+01
2.500000e+01
2.500000e+01
2.500000e+01
2.500000e+01
2.500000e+01
2.500000e+01
2.500000e+01
2.500000e+01
2.500000e+01
2.500000e+01
2.500000e+01
2.500000e+01
2.500000e+01
2.500000e+01
2.500000e+01
2.500000e+01
2.500000e+01
2.500000e+01
3.125000e+01
3.125000e+01
3.125000e+01
3.125000e+01
3.125000e+01
3.125000e+01
3.125000e+01
3.125000e+01
3.125000e+01
3.125000e+01
3.125000e+01
3.125000e+01
3.125000e+01
3.125000e+01
3.125000e+01
3.125000e+01
3.125000e+01
3.125000e+01
3.125000e+01
3.125000e+01
3.125000e+01
3.125000e+01
3.125000e+01
3.125000e+01
3.125000e+01
3.125000e+01
3.125000e+01
3.125000e+01
3.125000e+01
3.125000e+01
3.125000e+01
3.125000e+01
3.125000e+01
3.750000e+01
3.750000e+01
3.750000e+01
3.750000e+01
3.750000e+01
3.750000e+01
3.750000e+01
3.750000e+01
3.750000e+01
3.750000e+01
3.750000e+01
3.750000e+01
3.750000e+01
3.750000e+01
3.750000e+01
3.750000e+01
3.750000e+01
3.750000e+01
3.750000e+01
3.750000e+01
3.750000e+01
3.750000e+01
3.750000e+01
3.750000e+01
3.750000e+01
3.750000e+01
3.750000e+01
3.750000e+01
3.750000e+01
3.750000e+01
3.750000e+01
3.750000e+01
3.750000e+01
4.375000e+01
4.375000e+01
4.375000e+01
4.375000e+01
4.375000e+01
4.375000e+01
4.375000e+01
4.375000e+01
4.375000e+01
4.375000e+01
4.375000e+01
4.375000e+01
4.375000e+01
4.375000e+01
4.375000e+01
4.375000e+01
4.375000e+01
4.375000e+01
4.375000e+01
4.375000e+01
4.375000e+01
4.375000e+01
4.375000e+01
4.375000e+01
4.375000e+01
4.375000e+01
4.375000e+01
4.375000e+01
4.375000e+01
4.375000e+01
4.375000e+01
4.375000e+01
4.375000e+01
5.000000e+01
5.000000e+01
5.000000e+01
5.000000e+01
5.000000e+01
5.000000e+01
5.000000e+01
5.000000e+01
5.000000e+01
5.000000e+01
5.000000e+01
5.000000e+01
5.000000e+01
5.000000e+01
5.000000e+01
5.000000e+01
5.000000e+01
5.000000e+01
5.000000e+01
5.000000e+01
5.000000e+01
5.000000e+01
5.000000e+01
5.000000e+01
5.000000e+01
5.000000e+01
5.000000e+01
5.000000e+01
5.000000e+01
5.000000e+01
5.000000e+01
5.000000e+01
5.000000e+01
5.625000e+01
5.625000e+01
5.625000e+01
5.625000e+01
5.625000e+01
5.625000e+01
5.625000e+01
5.625000e+01
5.625000e+01
5.625000e+01
5.625000e+01
5.625000e+01
5.625000e+01
5.625000e+01
5.625000e+01
5.625000e+01
5.625000e+01
5.625000e+01
5.625000e+01
5.625000e+01
5.625000e+01
5.625000e+01
5.625000e+01
5.625000e+01
5.625000e+01
5.625000e+01
5.625000e+01
5.625000e+01
5.625000e+01
5.625000e+01
5.625000e+01
5.625000e+01
5.625000e+01
6.250000e+01
6.250000e+01
6.250000e+01
6.250000e+01
6.250000e+01
6.250000e+01
6.250000e+01
6.250000e+01
6.250000e+01
6.250000e+01
6.250000e+01
6.250000e+01
6.250000e+01
6.250000e+01
6.250000e+01
6.250000e+01
6.250000e+01
6.250000e+01
6.250000e+01
6.250000e+01
6.250000e+01
6.250000e+01
6.250000e+01
6.250000e+01
6.250000e+01
6.250000e+01
6.250000e+01
6.250000e+01
6.250000e+01
6.250000e+01
6.250000e+01
6.250000e+01
6.250000e+01
6.875000e+01
6.875000e+01
6.875000e+01
6.875000e+01
6.875000e+01
6.875000e+01
6.875000e+01
6.875000e+01
6.875000e+01
6.875000e+01
6.875000e+01
6.875000e+01
6.875000e+01
6.875000e+01
6.875000e+01
6.875000e+01
6.875000e+01
6.875000e+01
6.875000e+01
6.875000e+01
6.875000e+01
6.875000e+01
6.875000e+01
6.875000e+01
6.875000e+01
6.875000e+01
6.875000e+01
6.875000e+01
6.875000e+01
6.875000e+01
6.875000e+01
6.875000e+01
6.875000e+01
7.500000e+01
7.500000e+01
7.500000e+01
7.500000e+01
7.500000e+01
7.500000e+01
7.500000e+01
7.500000e+01
7.500000e+01
7.500000e+01
7.500000e+01
7.500000e+01
7.500000e+01
7.500000e+01
7.500000e+01
7.500000e+01
7.500000e+01
7.500000e+01
7.500000e+01
7.500000e+01
7.500000e+01
7.500000e+01
7.500000e+01
7.500000e+01
7.500000e+01
7.500000e+01
7.500000e+01
7.500000e+01
7.500000e+01
7.500000e+01
7.500000e+01
7.500000e+01
7.500000e+01
8.125000e+01
8.125000e+01
8.125000e+01
8.125000e+01
8.125000e+01
8.125000e+01
8.125000e+01
8.125000e+01
8.125000e+01
8.125000e+01
8.125000e+01
8.125000e+01
8.125000e+01
8.125000e+01
8.125000e+01
8.125000e+01
8.125000e+01
8.125000e+01
8.125000e+01
8.125000e+01
8.125000e+01
8.125000e+01
8.125000e+01
8.125000e+01
8.125000e+01
8.125000e+01
8.125000e+01
8.125000e+01
8.125000e+01
8.125000e+01
8.125000e+01
8.125000e+01
8.125000e+01
8.750000e+01
8.750000e+01
8.750000e+01
8.750000e+01
8.750000e+01
8.750000e+01
8.750000e+01
8.750000e+01
8.750000e+01
8.750000e+01
8.750000e+01
8.750000e+01
8.750000e+01
8.750000e+01
8.750000e+01
8.750000e+01
8.750000e+01
8.750000e+01
8.750000e+01
8.750000e+01
8.750000e+01
8.750000e+01
8.750000e+01
8.750000e+01
8.750000e+01
8.750000e+01
8.750000e+01
8.750000e+01
8.750000e+01
8.750000e+01
8.750000e+01
8.750000e+01
8.750000e+01
9.375000e+01
9.375000e+01
9.375000e+01
9.375000e+01
9.375000e+01
9.375000e+01
9.375000e+01
9.375000e+01
9.375000e+01
9.375000e+01
9.375000e+01
9.375000e+01
9.375000e+01
9.375000e+01
9.375000e+01
9.375000e+01
9.375000e+01
9.375000e+01
9.375000e+01
9.375000e+01
9.375000e+01
9.375000e+01
9.375000e+01
9.375000e+01
9.375000e+01
9.375000e+01
9.375000e+01
9.375000e+01
9.375000e+01
9.375000e+01
9.375000e+01
9.375000e+01
9.375000e+01
1.000000e+02
1.000000e+02
1.000000e+02
1.000000e+02
1.000000e+02
1.000000e+02
1.000000e+02
1.000000e+02
1.000000e+02
1.000000e+02
1.000000e+02
1.000000e+02
1.000000e+02
1.000000e+02
1.000000e+02
1.000000e+02
1.000000e+02
1.000000e+02
1.000000e+02
1.000000e+02
1.000000e+02
1.000000e+02
1.000000e+02
1.000000e+02
1.000000e+02
1.000000e+02
1.000000e+02
1.000000e+02
1.000000e+02
1.000000e+02
1.000000e+02
1.000000e+02
1.000000e+02
0.000000e+00
-4.706423e-01
-7.812695e-01
-1.120771e+00
-1.422909e+00
-1.715430e+00
-2.026407e+00
-2.314691e+00
-2.614948e+00
-2.908703e+00
-3.206373e+00
-3.504956e+00
-3.803813e+00
-4.104436e+00
-4.404063e+00
-4.706179e+00
-5.007771e+00
-5.310306e+00
-5.612759e+00
-5.914419e+00
-6.216965e+00
-6.518701e+00
-6.820980e+00
-7.119409e+00
-7.413933e+00
-7.718298e+00
-8.018755e+00
-8.348043e+00
-8.668664e+00
-9.023429e+00
-9.509711e+00
-9.926361e+00
-1.013087e+01
0.000000e+00
-2.333135e-01
-4.706478e-01
-7.359591e-01
-1.002068e+00
-1.254937e+00
-1.524668e+00
-1.785042e+00
-2.047479e+00
-2.312585e+00
-2.572829e+00
-2.838059e+00
-3.098504e+00
-3.362190e+00
-3.623834e+00
-3.885794e+00
-4.148315e+00
-4.409178e+00
-4.671702e+00
-4.932325e+00
-5.194228e+00
-5.454736e+00
-5.716249e+00
-5.976355e+00
-6.237829e+00
-6.498562e+00
-6.758394e+00
-7.022182e+00
-7.277070e+00
-7.534768e+00
-7.787489e+00
-7.888098e+00
-7.993896e+00
0.000000e+00
-1.038670e-01
-2.402392e-01
-4.364849e-01
-6.543494e-01
-8.616800e-01
-1.088165e+00
-1.314741e+00
-1.541343e+00
-1.772758e+00
-1.996061e+00
-2.224189e+00
-2.446496e+00
-2.671298e+00
-2.894741e+00
-3.116894e+00
-3.340043e+00
-3.561574e+00
-3.785134e+00
-4.008082e+00
-4.232374e+00
-4.455726e+00
-4.680074e+00
-4.907713e+00
-5.137014e+00
-5.359542e+00
-5.572148e+00
-5.769802e+00
-5.949328e+00
-6.098414e+00
-6.184845e+00
-6.190133e+00
-6.283016e+00
0.000000e+00
-1.024818e-01
-1.862918e-01
-3.399170e-01
-4.628429e-01
-6.184615e-01
-7.953886e-01
-9.648555e-01
-1.156727e+00
-1.334834e+00
-1.520113e+00
-1.703319e+00
-1.885923e+00
-2.070972e+00
-2.254960e+00
-2.440648e+00
-2.626389e+00
-2.814318e+00
-3.004088e+00
-3.195386e+00
-3.388765e+00
-3.581568e+00
-3.775281e+00
-3.968942e+00
-4.154389e+00
-4.328441e+00
-4.478731e+00
-4.611042e+00
-4.712064e+00
-4.775068e+00
-4.789993e+00
-4.807057e+00
-4.887658e+00
0.000000e+00
-9.274200e-02
-1.839932e-01
-2.748927e-01
-3.877127e-01
-5.036000e-01
-6.356307e-01
-7.698594e-01
-9.142694e-01
-1.055884e+00
-1.201557e+00
-1.347522e+00
-1.491457e+00
-1.639940e+00
-1.784563e+00
-1.933417e+00
-2.080649e+00
-2.229767e+00
-2.379561e+00
-2.528563e+00
-2.678213e+00
-2.824573e+00
-2.968388e+00
-3.105439e+00
-3.233485e+00
-3.347520e+00
-3.444595e+00
-3.518743e+00
-3.567227e+00
-3.591316e+00
-3.594289e+00
-3.624164e+00
-3.695894e+00
0.000000e+00
-7.418843e-02
-1.454839e-01
-2.203332e-01
-3.015810e-01
-3.908014e-01
-4.854577e-01
-5.866360e-01
-6.903116e-01
-7.979343e-01
-9.055111e-01
-1.014162e+00
-1.123061e+00
-1.231337e+00
-1.340604e+00
-1.449046e+00
-1.558145e+00
-1.666550e+00
-1.774438e+00
-1.881045e+00
-1.985126e+00
-2.085833e+00
-2.180673e+00
-2.268095e+00
-2.345491e+00
-2.410905e+00
-2.462135e+00
-2.497143e+00
-2.519063e+00
-2.518873e+00
-2.514294e+00
-2.541094e+00
-2.607163e+00
0.000000e+00
-5.112186e-02
-1.017117e-01
-1.534369e-01
-2.087202e-01
-2.678934e-01
-3.311621e-01
-3.974944e-01
-4.665995e-01
-5.371813e-01
-6.087406e-01
-6.804564e-01
-7.520315e-01
-8.234063e-01
-8.943110e-01
-9.649192e-01
-1.034787e+00
-1.103768e+00
-1.171287e+00
-1.236689e+00
-1.299062e+00
-1.357034e+00
-1.409186e+00
-1.453784e+00
-1.489535e+00
-1.514279e+00
-1.527826e+00
-1.532292e+00
-1.515898e+00
-1.486670e+00
-1.475776e+00
-1.499765e+00
-1.564480e+00
0.000000e+00
-2.693559e-02
-5.372506e-02
-8.108719e-02
-1.097299e-01
-1.401107e-01
-1.721288e-01
-2.056207e-01
-2.401455e-01
-2.753565e-01
-3.107395e-01
-3.459614e-01
-3.807451e-01
-4.149145e-01
-4.484049e-01
-4.810468e-01
-5.126429e-01
-5.428186e-01
-5.712155e-01
-5.973434e-01
-6.204679e-01
-6.396489e-01
-6.536607e-01
-6.615713e-01
-6.618320e-01
-6.547502e-01
-6.381249e-01
-5.998315e-01
-5.503693e-01
-4.997564e-01
-4.742875e-01
-4.980259e-01
-5.653322e-01
0.000000e+00
-1.955335e-03
-3.957749e-03
-5.922115e-03
-7.741068e-03
-9.295736e-03
-1.051492e-02
-1.137813e-02
-1.190509e-02
-1.206665e-02
-1.178724e-02
-1.094397e-02
-9.396321e-03
-6.972814e-03
-3.484327e-03
1.202180e-03
7.339475e-03
1.529789e-02
2.520349e-02
3.703984e-02
5.114405e-02
6.811923e-02
8.829040e-02
1.137332e-01
1.447135e-01
1.852840e-01
2.441676e-01
3.156238e-01
3.883855e-01
4.391908e-01
4.547070e-01
4.225418e-01
3.438954e-01
0.000000e+00
2.316872e-02
4.611555e-02
6.971236e-02
9.490065e-02
1.223785e-01
1.522161e-01
1.841972e-01
2.178204e-01
2.526577e-01
2.883386e-01
3.246928e-01
3.617284e-01
3.997801e-01
4.392950e-01
4.806267e-01
5.241859e-01
5.699974e-01
6.179242e-01
6.674167e-01
7.179641e-01
7.699345e-01
8.249098e-01
8.836640e-01
9.514057e-01
1.034539e+00
1.123827e+00
1.214389e+00
1.288293e+00
1.332006e+00
1.329971e+00
1.285346e+00
1.222699e+00
0.000000e+00
4.774338e-02
9.495790e-02
1.434240e-01
1.958001e-01
2.527954e-01
3.146209e-01
3.802704e-01
4.489392e-01
5.193631e-01
5.907025e-01
6.622211e-01
7.338572e-01
8.061763e-01
8.801433e-01
9.572167e-01
1.037881e+00
1.121479e+00
1.206805e+00
1.293800e+00
1.382764e+00
1.472739e+00
1.565230e+00
1.667075e+00
1.775542e+00
1.886460e+00
1.995851e+00
2.085460e+00
2.149725e+00
2.176793e+00
2.169467e+00
2.139376e+00
2.095283e+00
0.000000e+00
7.125678e-02
1.398292e-01
2.123459e-01
2.917690e-01
3.800817e-01
4.750461e-01
5.764065e-01
6.811836e-01
7.891167e-01
8.977408e-01
1.006900e+00
1.116036e+00
1.225360e+00
1.335644e+00
1.446865e+00
1.561325e+00
1.678335e+00
1.797490e+00
1.919771e+00
2.047890e+00
2.183997e+00
2.325948e+00
2.467967e+00
2.605622e+00
2.734336e+00
2.846491e+00
2.936029e+00
2.992229e+00
3.020610e+00
3.024132e+00
3.006124e+00
2.978505e+00
0.000000e+00
9.004084e-02
1.787486e-01
2.685041e-01
3.818985e-01
5.005946e-01
6.332642e-01
7.713560e-01
9.151532e-01
1.059714e+00
1.206371e+00
1.353680e+00
1.501411e+00
1.652877e+00
1.804240e+00
1.959390e+00
2.115935e+00
2.276410e+00
2.440882e+00
2.607066e+00
2.775957e+00
2.947126e+00
3.116875e+00
3.281212e+00
3.434825e+00
3.575334e+00
3.695367e+00
3.786938e+00
3.853866e+00
3.893244e+00
3.906295e+00
3.899795e+00
3.885268e+00
0.000000e+00
9.895993e-02
1.802122e-01
3.314890e-01
4.577550e-01
6.200997e-01
8.024223e-01
9.731285e-01
1.166571e+00
1.345050e+00
1.529627e+00
1.710713e+00
1.893933e+00
2.083608e+00
2.277835e+00
2.478355e+00
2.681295e+00
2.887070e+00
3.097197e+00
3.310085e+00
3.520521e+00
3.724834e+00
3.920680e+00
4.104969e+00
4.279637e+00
4.437476e+00
4.572774e+00
4.679686e+00
4.756343e+00
4.804269e+00
4.826558e+00
4.829406e+00
4.824666e+00
0.000000e+00
1.017374e-01
2.340194e-01
4.230269e-01
6.392670e-01
8.480538e-01
1.079029e+00
1.309421e+00
1.538773e+00
1.773529e+00
1.998148e+00
2.224945e+00
2.447188e+00
2.673430e+00
2.902288e+00
3.133687e+00
3.366319e+00
3.597048e+00
3.828900e+00
4.061502e+00
4.295521e+00
4.524318e+00
4.745425e+00
4.966457e+00
5.176472e+00
5.362289e+00
5.512061e+00
5.627034e+00
5.709647e+00
5.762619e+00
5.790383e+00
5.799466e+00
5.800586e+00
0.000000e+00
2.337260e-01
4.719320e-01
7.366021e-01
1.002140e+00
1.254534e+00
1.523517e+00
1.784050e+00
2.046013e+00
2.310577e+00
2.570493e+00
2.834541e+00
3.094205e+00
3.356017e+00
3.615964e+00
3.875804e+00
4.135581e+00
4.393069e+00
4.650734e+00
4.904929e+00
5.160244e+00
5.413724e+00
5.667170e+00
5.925158e+00
6.167541e+00
6.368172e+00
6.525838e+00
6.642885e+00
6.723262e+00
6.772563e+00
6.797752e+00
6.806876e+00
6.809120e+00
0.000000e+00
4.718907e-01
7.880281e-01
1.132654e+00
1.437894e+00
1.729317e+00
2.037643e+00
2.322947e+00
2.620638e+00
2.911226e+00
3.206655e+00
3.505283e+00
3.802492e+00
4.100196e+00
4.392741e+00
4.683509e+00
4.972482e+00
5.262032e+00
5.552105e+00
5.840373e+00
6.127106e+00
6.416295e+00
6.707003e+00
6.999662e+00
7.263603e+00
7.474426e+00
7.632851e+00
7.741973e+00
7.806992e+00
7.836164e+00
7.841243e+00
7.836597e+00
7.834034e+00
0.000000e+00
-2.787147e-01
-5.878205e-01
-9.827167e-01
-1.413357e+00
-1.881742e+00
-2.390599e+00
-2.930158e+00
-3.505767e+00
-4.113239e+00
-4.755034e+00
-5.432906e+00
-6.146685e+00
-6.898839e+00
-7.687914e+00
-8.515961e+00
-9.382568e+00
-1.028863e+01
-1.123433e+01
-1.221925e+01
-1.324399e+01
-1.430867e+01
-1.541436e+01
-1.656024e+01
-1.774431e+01
-1.896777e+01
-2.023496e+01
-2.155557e+01
-2.293704e+01
-2.439935e+01
-2.595951e+01
-2.776774e+01
-3.030678e+01
0.000000e+00
-1.797258e-01
-5.074114e-01
-8.949609e-01
-1.332253e+00
-1.797353e+00
-2.306124e+00
-2.847577e+00
-3.421495e+00
-4.030100e+00
-4.670830e+00
-5.349177e+00
-6.062613e+00
-6.814842e+00
-7.604032e+00
-8.431727e+00
-9.298609e+00
-1.020439e+01
-1.115032e+01
-1.213516e+01
-1.315992e+01
-1.422435e+01
-1.533014e+01
-1.647657e+01
-1.766055e+01
-1.888356e+01
-2.014923e+01
-2.146829e+01
-2.285081e+01
-2.430454e+01
-2.588412e+01
-2.767927e+01
-2.993126e+01
0.000000e+00
-1.584422e-01
-4.485950e-01
-8.383698e-01
-1.265566e+00
-1.728425e+00
-2.235381e+00
-2.774738e+00
-3.349746e+00
-3.957329e+00
-4.598919e+00
-5.277359e+00
-5.991226e+00
-6.743454e+00
-7.533214e+00
-8.360935e+00
-9.228004e+00
-1.013380e+01
-1.107953e+01
-1.206438e+01
-1.308912e+01
-1.415312e+01
-1.525781e+01
-1.640344e+01
-1.758827e+01
-1.881392e+01
-2.008154e+01
-2.140555e+01
-2.279206e+01
-2.426626e+01
-2.588844e+01
-2.757351e+01
-2.932251e+01
0.000000e+00
-2.029981e-01
-4.485403e-01
-8.342174e-01
-1.230302e+00
-1.682681e+00
-2.188068e+00
-2.715233e+00
-3.295758e+00
-3.898079e+00
-4.542053e+00
-5.220722e+00
-5.933723e+00
-6.687828e+00
-7.476258e+00
-8.305578e+00
-9.171708e+00
-1.007770e+01
-1.102321e+01
-1.200733e+01
-1.303273e+01
-1.409593e+01
-1.519986e+01
-1.634544e+01
-1.753229e+01
-1.876384e+01
-2.003756e+01
-2.136878e+01
-2.276426e+01
-2.425749e+01
-2.587276e+01
-2.742254e+01
-2.882206e+01
0.000000e+00
-2.194164e-01
-4.865786e-01
-8.301658e-01
-1.228150e+00
-1.663101e+00
-2.158984e+00
-2.680635e+00
-3.256093e+00
-3.858279e+00
-4.500963e+00
-5.181224e+00
-5.893213e+00
-6.649231e+00
-7.436663e+00
-8.267026e+00
-9.132785e+00
-1.003855e+01
-1.098417e+01
-1.196783e+01
-1.299362e+01
-1.405712e+01
-1.516222e+01
-1.630894e+01
-1.749921e+01
-1.873407e+01
-2.001562e+01
-2.135075e+01
-2.274869e+01
-2.423688e+01
-2.577331e+01
-2.722129e+01
-2.848668e+01
0.000000e+00
-2.264519e-01
-5.028513e-01
-8.360610e-01
-1.222261e+00
-1.656260e+00
-2.137597e+00
-2.661214e+00
-3.227083e+00
-3.831180e+00
-4.472548e+00
-5.151794e+00
-5.867076e+00
-6.620543e+00
-7.411147e+00
-8.239908e+00
-9.107150e+00
-1.001316e+01
-1.095896e+01
-1.194441e+01
-1.297037e+01
-1.403660e+01
-1.514387e+01
-1.629334e+01
-1.748594e+01
-1.872266e+01
-2.000654e+01
-2.134139e+01
-2.272816e+01
-2.417634e+01
-2.561819e+01
-2.698621e+01
-2.818920e+01
0.000000e+00
-2.301553e-01
-5.090247e-01
-8.392870e-01
-1.220433e+00
-1.650342e+00
-2.126888e+00
-2.647684e+00
-3.210656e+00
-3.813582e+00
-4.455091e+00
-5.134249e+00
-5.850743e+00
-6.604563e+00
-7.395937e+00
-8.225307e+00
-9.093183e+00
-1.000025e+01
-1.094706e+01
-1.193419e+01
-1.296200e+01
-1.403079e+01
-1.514091e+01
-1.629273e+01
-1.748694e+01
-1.872386e+01
-2.000376e+01
-2.133482e+01
-2.269021e+01
-2.408704e+01
-2.546266e+01
-2.676258e+01
-2.790358e+01
0.000000e+00
-2.315504e-01
-5.113376e-01
-8.407540e-01
-1.219902e+00
-1.647644e+00
-2.122199e+00
-2.641497e+00
-3.203454e+00
-3.806134e+00
-4.447961e+00
-5.127875e+00
-5.845247e+00
-6.599914e+00
-7.392032e+00
-8.222112e+00
-9.090869e+00
-9.998995e+00
-1.094713e+01
-1.193589e+01
-1.296576e+01
-1.403695e+01
-1.514934e+01
-1.630291e+01
-1.749695e+01
-1.873338e+01
-2.000539e+01
-2.131719e+01
-2.263842e+01
-2.398229e+01
-2.531039e+01
-2.655224e+01
-2.763725e+01
0.000000e+00
-2.318354e-01
-5.119250e-01
-8.413689e-01
-1.220362e+00
-1.648008e+00
-2.122635e+00
-2.642213e+00
-3.204688e+00
-3.808162e+00
-4.451036e+00
-5.132093e+00
-5.850597e+00
-6.606256e+00
-7.399176e+00
-8.229955e+00
-9.099613e+00
-1.000887e+01
-1.095815e+01
-1.194815e+01
-1.297964e+01
-1.405247e+01
-1.516627e+01
-1.632006e+01
-1.751376e+01
-1.874472e+01
-2.000217e+01
-2.128512e+01
-2.258184e+01
-2.387525e+01
-2.514430e+01
-2.631136e+01
-2.730539e+01
0.000000e+00
-2.313757e-01
-5.113707e-01
-8.414566e-01
-1.221844e+00
-1.651376e+00
-2.128080e+00
-2.649704e+00
-3.214105e+00
-3.819400e+00
-4.463978e+00
-5.146550e+00
-5.866347e+00
-6.623164e+00
-7.416996e+00
-8.248356e+00
-9.119044e+00
-1.002956e+01
-1.097972e+01
-1.197000e+01
-1.300226e+01
-1.407577e+01
-1.518818e+01
-1.634343e+01
-1.752983e+01
-1.874916e+01
-1.998957e+01
-2.124970e+01
-2.251724e+01
-2.377339e+01
-2.497824e+01
-2.607934e+01
-2.703849e+01
0.000000e+00
-2.298817e-01
-5.091468e-01
-8.406941e-01
-1.224373e+00
-1.657995e+00
-2.138943e+00
-2.664354e+00
-3.232006e+00
-3.839936e+00
-4.486666e+00
-5.170798e+00
-5.891735e+00
-6.649829e+00
-7.444656e+00
-8.277018e+00
-9.149056e+00
-1.006102e+01
-1.101177e+01
-1.200136e+01
-1.303264e+01
-1.410437e+01
-1.521480e+01
-1.636365e+01
-1.754100e+01
-1.874548e+01
-1.997456e+01
-2.121309e+01
-2.245458e+01
-2.367028e+01
-2.482937e+01
-2.589823e+01
-2.684637e+01
0.000000e+00
-2.261765e-01
-5.031915e-01
-8.382096e-01
-1.228232e+00
-1.668473e+00
-2.156352e+00
-2.687030e+00
-3.259334e+00
-3.870453e+00
-4.519253e+00
-5.204796e+00
-5.926136e+00
-6.685213e+00
-7.481139e+00
-8.315352e+00
-9.189363e+00
-1.010216e+01
-1.105291e+01
-1.204126e+01
-1.306878e+01
-1.413615e+01
-1.524070e+01
-1.637996e+01
-1.754798e+01
-1.874299e+01
-1.996018e+01
-2.118567e+01
-2.240018e+01
-2.358634e+01
-2.471613e+01
-2.576892e+01
-2.672088e+01
0.000000e+00
-2.190016e-01
-4.871673e-01
-8.333724e-01
-1.236226e+00
-1.681679e+00
-2.184499e+00
-2.717469e+00
-3.298405e+00
-3.910843e+00
-4.561910e+00
-5.248774e+00
-5.969337e+00
-6.730867e+00
-7.527129e+00
-8.364731e+00
-9.239604e+00
-1.015156e+01
-1.110062e+01
-1.208563e+01
-1.310876e+01
-1.416981e+01
-1.526644e+01
-1.639657e+01
-1.755757e+01
-1.874863e+01
-1.995976e+01
-2.117047e+01
-2.236512e+01
-2.352609e+01
-2.463724e+01
-2.568303e+01
-2.664965e+01
0.000000e+00
-2.016478e-01
-4.487958e-01
-8.382456e-01
-1.242714e+00
-1.706922e+00
-2.223587e+00
-2.760170e+00
-3.349147e+00
-3.960983e+00
-4.613679e+00
-5.299886e+00
-6.022547e+00
-6.785751e+00
-7.585266e+00
-8.424512e+00
-9.299138e+00
-1.020925e+01
-1.115516e+01
-1.213639e+01
-1.315418e+01
-1.420784e+01
-1.529582e+01
-1.641912e+01
-1.758104e+01
-1.877187e+01
-1.997603e+01
-2.117138e+01
-2.234733e+01
-2.348991e+01
-2.458755e+01
-2.563193e+01
-2.661884e+01
0.000000e+00
-1.555897e-01
-4.468770e-01
-8.414926e-01
-1.279901e+00
-1.755743e+00
-2.275356e+00
-2.824386e+00
-3.408666e+00
-4.024517e+00
-4.673768e+00
-5.360389e+00
-6.084618e+00
-6.848979e+00
-7.651335e+00
-8.490197e+00
-9.364406e+00
-1.027278e+01
-1.121697e+01
-1.219540e+01
-1.320863e+01
-1.425597e+01
-1.533693e+01
-1.646128e+01
-1.762527e+01
-1.881310e+01
-2.000367e+01
-2.118529e+01
-2.234583e+01
-2.347421e+01
-2.456189e+01
-2.560632e+01
-2.661363e+01
0.000000e+00
-1.763859e-01
-5.048298e-01
-8.981865e-01
-1.347122e+00
-1.825920e+00
-2.347121e+00
-2.899041e+00
-3.481886e+00
-4.098584e+00
-4.746288e+00
-5.432932e+00
-6.157203e+00
-6.922224e+00
-7.724900e+00
-8.563489e+00
-9.436651e+00
-1.034375e+01
-1.128679e+01
-1.226389e+01
-1.327531e+01
-1.431962e+01
-1.540104e+01
-1.652622e+01
-1.768665e+01
-1.886236e+01
-2.003987e+01
-2.120837e+01
-2.235640e+01
-2.347367e+01
-2.455357e+01
-2.559711e+01
-2.661833e+01
0.000000e+00
-2.761420e-01
-5.862787e-01
-9.867247e-01
-1.428465e+00
-1.909972e+00
-2.431224e+00
-2.981365e+00
-3.565900e+00
-4.181338e+00
-4.830350e+00
-5.516685e+00
-6.240996e+00
-7.005612e+00
-7.807453e+00
-8.645677e+00
-9.518084e+00
-1.042503e+01
-1.136717e+01
-1.234384e+01
-1.335471e+01
-1.439941e+01