TITLE = "Solution"
VARIABLES = x, y, u, v, psiu, psiv, t, stress
ZONE T="structure" N=561 E=512 F=FEBLOCK ET=QUADRILATERAL VARLOCATION=([7,8]=cellcentered)
0.000000e+00
6.250000e+00
1.250000e+01
1.875000e+01
2.500000e+01
3.125000e+01
3.750000e+01
4.375000e+01
5.000000e+01
5.625000e+01
6.250000e+01
6.875000e+01
7.500000e+01
8.125000e+01
8.750000e+01
9.375000e+01
1.000000e+02
1.062500e+02
1.125000e+02
1.187500e+02
1.250000e+02
1.312500e+02
1.375000e+02
1.437500e+02
1.500000e+02
1.562500e+02
1.625000e+02
1.687500e+02
1.750000e+02
1.812500e+02
1.875000e+02
1.937500e+02
2.000000e+02
0.000000e+00
6.250000e+00
1.250000e+01
1.875000e+01
2.500000e+01
3.125000e+01
3.750000e+01
4.375000e+01
5.000000e+01
5.625000e+01
6.250000e+01
6.875000e+01
7.500000e+01
8.125000e+01
8.750000e+01
9.375000e+01
1.000000e+02
1.062500e+02
1.125000e+02
1.187500e+02
1.250000e+02
1.312500e+02
1.375000e+02
1.437500e+02
1.500000e+02
1.562500e+02
1.625000e+02
1.687500e+02
1.750000e+02
1.812500e+02
1.875000e+02
1.937500e+02
2.000000e+02
0.000000e+00
6.250000e+00
1.250000e+01
1.875000e+01
2.500000e+01
3.125000e+01
3.750000e+01
4.375000e+01
5.000000e+01
5.625000e+01
6.250000e+01
6.875000e+01
7.500000e+01
8.125000e+01
8.750000e+01
9.375000e+01
1.000000e+02
1.062500e+02
1.125000e+02
1.187500e+02
1.250000e+02
1.312500e+02
1.375000e+02
1.437500e+02
1.500000e+02
1.562500e+02
1.625000e+02
1.687500e+02
1.750000e+02
1.812500e+02
1.875000e+02
1.937500e+02
2.000000e+02
0.000000e+00
6.250000e+00
1.250000e+01
1.875000e+01
2.500000e+01
3.125000e+01
3.750000e+01
4.375000e+01
5.000000e+01
5.625000e+01
6.250000e+01
6.875000e+01
7.500000e+01
8.125000e+01
8.750000e+01
9.375000e+01
1.000000e+02
1.062500e+02
1.125000e+02
1.187500e+02
1.250000e+02
1.312500e+02
1.375000e+02
1.437500e+02
1.500000e+02
1.562500e+02
1.625000e+02
1.687500e+02
1.750000e+02
1.812500e+02
1.875000e+02
1.937500e+02
2.000000e+02
0.000000e+00
6.250000e+00
1.250000e+01
1.875000e+01
2.500000e+01
3.125000e+01
3.750000e+01
4.375000e+01
5.000000e+01
5.625000e+01
6.250000e+01
6.875000e+01
7.500000e+01
8.125000e+01
8.750000e+01
9.375000e+01
1.000000e+02
1.062500e+02
1.125000e+02
1.187500e+02
1.250000e+02
1.312500e+02
1.375000e+02
1.437500e+02
1.500000e+02
1.562500e+02
1.625000e+02
1.687500e+02
1.750000e+02
1.812500e+02
1.875000e+02
1.937500e+02
2.000000e+02
0.000000e+00
6.250000e+00
1.250000e+01
1.875000e+01
2.500000e+01
3.125000e+01
3.750000e+01
4.375000e+01
5.000000e+01
5.625000e+01
6.250000e+01
6.875000e+01
7.500000e+01
8.125000e+01
8.750000e+01
9.375000e+01
1.000000e+02
1.062500e+02
1.125000e+02
1.187500e+02
1.250000e+02
1.312500e+02
1.375000e+02
1.437500e+02
1.500000e+02
1.562500e+02
1.625000e+02
1.687500e+02
1.750000e+02
1.812500e+02
1.875000e+02
1.937500e+02
2.000000e+02
0.000000e+00
6.250000e+00
1.250000e+01
1.875000e+01
2.500000e+01
3.125000e+01
3.750000e+01
4.375000e+01
5.000000e+01
5.625000e+01
6.250000e+01
6.875000e+01
7.500000e+01
8.125000e+01
8.750000e+01
9.375000e+01
1.000000e+02
1.062500e+02
1.125000e+02
1.187500e+02
1.250000e+02
1.312500e+02
1.375000e+02
1.437500e+02
1.500000e+02
1.562500e+02
1.625000e+02
1.687500e+02
1.750000e+02
1.812500e+02
1.875000e+02
1.937500e+02
2.000000e+02
0.000000e+00
6.250000e+00
1.250000e+01
1.875000e+01
2.500000e+01
3.125000e+01
3.750000e+01
4.375000e+01
5.000000e+01
5.625000e+01
6.250000e+01
6.875000e+01
7.500000e+01
8.125000e+01
8.750000e+01
9.375000e+01
1.000000e+02
1.062500e+02
1.125000e+02
1.187500e+02
1.250000e+02
1.312500e+02
1.375000e+02
1.437500e+02
1.500000e+02
1.562500e+02
1.625000e+02
1.687500e+02
1.750000e+02
1.812500e+02
1.875000e+02
1.937500e+02
2.000000e+02
0.000000e+00
6.250000e+00
1.250000e+01
1.875000e+01
2.500000e+01
3.125000e+01
3.750000e+01
4.375000e+01
5.000000e+01
5.625000e+01
6.250000e+01
6.875000e+01
7.500000e+01
8.125000e+01
8.750000e+01
9.375000e+01
1.000000e+02
1.062500e+02
1.125000e+02
1.187500e+02
1.250000e+02
1.312500e+02
1.375000e+02
1.437500e+02
1.500000e+02
1.562500e+02
1.625000e+02
1.687500e+02
1.750000e+02
1.812500e+02
1.875000e+02
1.937500e+02
2.000000e+02
0.000000e+00
6.250000e+00
1.250000e+01
1.875000e+01
2.500000e+01
3.125000e+01
3.750000e+01
4.375000e+01
5.000000e+01
5.625000e+01
6.250000e+01
6.875000e+01
7.500000e+01
8.125000e+01
8.750000e+01
9.375000e+01
1.000000e+02
1.062500e+02
1.125000e+02
1.187500e+02
1.250000e+02
1.312500e+02
1.375000e+02
1.437500e+02
1.500000e+02
1.562500e+02
1.625000e+02
1.687500e+02
1.750000e+02
1.812500e+02
1.875000e+02
1.937500e+02
2.000000e+02
0.000000e+00
6.250000e+00
1.250000e+01
1.875000e+01
2.500000e+01
3.125000e+01
3.750000e+01
4.375000e+01
5.000000e+01
5.625000e+01
6.250000e+01
6.875000e+01
7.500000e+01
8.125000e+01
8.750000e+01
9.375000e+01
1.000000e+02
1.062500e+02
1.125000e+02
1.187500e+02
1.250000e+02
1.312500e+02
1.375000e+02
1.437500e+02
1.500000e+02
1.562500e+02
1.625000e+02
1.687500e+02
1.750000e+02
1.812500e+02
1.875000e+02
1.937500e+02
2.000000e+02
0.000000e+00
6.250000e+00
1.250000e+01
1.875000e+01
2.500000e+01
3.125000e+01
3.750000e+01
4.375000e+01
5.000000e+01
5.625000e+01
6.250000e+01
6.875000e+01
7.500000e+01
8.125000e+01
8.750000e+01
9.375000e+01
1.000000e+02
1.062500e+02
1.125000e+02
1.187500e+02
1.250000e+02
1.312500e+02
1.375000e+02
1.437500e+02
1.500000e+02
1.562500e+02
1.625000e+02
1.687500e+02
1.750000e+02
1.812500e+02
1.875000e+02
1.937500e+02
2.000000e+02
0.000000e+00
6.250000e+00
1.250000e+01
1.875000e+01
2.500000e+01
3.125000e+01
3.750000e+01
4.375000e+01
5.000000e+01
5.625000e+01
6.250000e+01
6.875000e+01
7.500000e+01
8.125000e+01
8.750000e+01
9.375000e+01
1.000000e+02
1.062500e+02
1.125000e+02
1.187500e+02
1.250000e+02
1.312500e+02
1.375000e+02
1.437500e+02
1.500000e+02
1.562500e+02
1.625000e+02
1.687500e+02
1.750000e+02
1.812500e+02
1.875000e+02
1.937500e+02
2.000000e+02
0.000000e+00
6.250000e+00
1.250000e+01
1.875000e+01
2.500000e+01
3.125000e+01
3.750000e+01
4.375000e+01
5.000000e+01
5.625000e+01
6.250000e+01
6.875000e+01
7.500000e+01
8.125000e+01
8.750000e+01
9.375000e+01
1.000000e+02
1.062500e+02
1.125000e+02
1.187500e+02
1.250000e+02
1.312500e+02
1.375000e+02
1.437500e+02
1.500000e+02
1.562500e+02
1.625000e+02
1.687500e+02
1.750000e+02
1.812500e+02
1.875000e+02
1.937500e+02
2.000000e+02
0.000000e+00
6.250000e+00
1.250000e+01
1.875000e+01
2.500000e+01
3.125000e+01
3.750000e+01
4.375000e+01
5.000000e+01
5.625000e+01
6.250000e+01
6.875000e+01
7.500000e+01
8.125000e+01
8.750000e+01
9.375000e+01
1.000000e+02
1.062500e+02
1.125000e+02
1.187500e+02
1.250000e+02
1.312500e+02
1.375000e+02
1.437500e+02
1.500000e+02
1.562500e+02
1.625000e+02
1.687500e+02
1.750000e+02
1.812500e+02
1.875000e+02
1.937500e+02
2.000000e+02
0.000000e+00
6.250000e+00
1.250000e+01
1.875000e+01
2.500000e+01
3.125000e+01
3.750000e+01
4.375000e+01
5.000000e+01
5.625000e+01
6.250000e+01
6.875000e+01
7.500000e+01
8.125000e+01
8.750000e+01
9.375000e+01
1.000000e+02
1.062500e+02
1.125000e+02
1.187500e+02
1.250000e+02
1.312500e+02
1.375000e+02
1.437500e+02
1.500000e+02
1.562500e+02
1.625000e+02
1.687500e+02
1.750000e+02
1.812500e+02
1.875000e+02
1.937500e+02
2.000000e+02
0.000000e+00
6.250000e+00
1.250000e+01
1.875000e+01
2.500000e+01
3.125000e+01
3.750000e+01
4.375000e+01
5.000000e+01
5.625000e+01
6.250000e+01
6.875000e+01
7.500000e+01
8.125000e+01
8.750000e+01
9.375000e+01
1.000000e+02
1.062500e+02
1.125000e+02
1.187500e+02
1.250000e+02
1.312500e+02
1.375000e+02
1.437500e+02
1.500000e+02
1.562500e+02
1.625000e+02
1.687500e+02
1.750000e+02
1.812500e+02
1.875000e+02
1.937500e+02
2.000000e+02
0.000000e+00
0.000000e+00
0.000000e+00
0.000000e+00
0.000000e+00
0.000000e+00
0.000000e+00
0.000000e+00
0.000000e+00
0.000000e+00
0.000000e+00
0.000000e+00
0.000000e+00
0.000000e+00
0.000000e+00
0.000000e+00
0.000000e+00
0.000000e+00
0.000000e+00
0.000000e+00
0.000000e+00
0.000000e+00
0.000000e+00
0.000000e+00
0.000000e+00
0.000000e+00
0.000000e+00
0.000000e+00
0.000000e+00
0.000000e+00
0.000000e+00
0.000000e+00
0.000000e+00
6.250000e+00
6.250000e+00
6.250000e+00
6.250000e+00
6.250000e+00
6.250000e+00
6.250000e+00
6.250000e+00
6.250000e+00
6.250000e+00
6.250000e+00
6.250000e+00
6.250000e+00
6.250000e+00
6.250000e+00
6.250000e+00
6.250000e+00
6.250000e+00
6.250000e+00
6.250000e+00
6.250000e+00
6.250000e+00
6.250000e+00
6.250000e+00
6.250000e+00
6.250000e+00
6.250000e+00
6.250000e+00
6.250000e+00
6.250000e+00
6.250000e+00
6.250000e+00
6.250000e+00
1.250000e+01
1.250000e+01
1.250000e+01
1.250000e+01
1.250000e+01
1.250000e+01
1.250000e+01
1.250000e+01
1.250000e+01
1.250000e+01
1.250000e+01
1.250000e+01
1.250000e+01
1.250000e+01
1.250000e+01
1.250000e+01
1.250000e+01
1.250000e+01
1.250000e+01
1.250000e+01
1.250000e+01
1.250000e+01
1.250000e+01
1.250000e+01
1.250000e+01
1.250000e+01
1.250000e+01
1.250000e+01
1.250000e+01
1.250000e+01
1.250000e+01
1.250000e+01
1.250000e+01
1.875000e+01
1.875000e+01
1.875000e+01
1.875000e+01
1.875000e+01
1.875000e+01
1.875000e+01
1.875000e+01
1.875000e+01
1.875000e+01
1.875000e+01
1.875000e+01
1.875000e+01
1.875000e+01
1.875000e+01
1.875000e+01
1.875000e+01
1.875000e+01
1.875000e+01
1.875000e+01
1.875000e+01
1.875000e+01
1.875000e+01
1.875000e+01
1.875000e+01
1.875000e+01
1.875000e+01
1.875000e+01
1.875000e+01
1.875000e+01
1.875000e+01
1.875000e+01
1.875000e+01
2.500000e+01
2.500000e+01
2.500000e+01
2.500000e+01
2.500000e+01
2.500000e+01
2.500000e+01
2.500000e+01
2.500000e+01
2.500000e+01
2.500000e+01
2.500000e+01
2.500000e+01
2.500000e+01
2.500000e+01
2.500000e+01
2.500000e+01
2.500000e+01
2.500000e+01
2.500000e+01
2.500000e+01
2.500000e+01
2.500000e+01
2.500000e+01
2.500000e+01
2.500000e+01
2.500000e+01
2.500000e+01
2.500000e+01
2.500000e+01
2.500000e+01
2.500000e+01
2.500000e+01
3.125000e+01
3.125000e+01
3.125000e+01
3.125000e+01
3.125000e+01
3.125000e+01
3.125000e+01
3.125000e+01
3.125000e+01
3.125000e+01
3.125000e+01
3.125000e+01
3.125000e+01
3.125000e+01
3.125000e+01
3.125000e+01
3.125000e+01
3.125000e+01
3.125000e+01
3.125000e+01
3.125000e+01
3.125000e+01
3.125000e+01
3.125000e+01
3.125000e+01
3.125000e+01
3.125000e+01
3.125000e+01
3.125000e+01
3.125000e+01
3.125000e+01
3.125000e+01
3.125000e+01
3.750000e+01
3.750000e+01
3.750000e+01
3.750000e+01
3.750000e+01
3.750000e+01
3.750000e+01
3.750000e+01
3.750000e+01
3.750000e+01
3.750000e+01
3.750000e+01
3.750000e+01
3.750000e+01
3.750000e+01
3.750000e+01
3.750000e+01
3.750000e+01
3.750000e+01
3.750000e+01
3.750000e+01
3.750000e+01
3.750000e+01
3.750000e+01
3.750000e+01
3.750000e+01
3.750000e+01
3.750000e+01
3.750000e+01
3.750000e+01
3.750000e+01
3.750000e+01
3.750000e+01
4.375000e+01
4.375000e+01
4.375000e+01
4.375000e+01
4.375000e+01
4.375000e+01
4.375000e+01
4.375000e+01
4.375000e+01
4.375000e+01
4.375000e+01
4.375000e+01
4.375000e+01
4.375000e+01
4.375000e+01
4.375000e+01
4.375000e+01
4.375000e+01
4.375000e+01
4.375000e+01
4.375000e+01
4.375000e+01
4.375000e+01
4.375000e+01
4.375000e+01
4.375000e+01
4.375000e+01
4.375000e+01
4.375000e+01
4.375000e+01
4.375000e+01
4.375000e+01
4.375000e+01
5.000000e+01
5.000000e+01
5.000000e+01
5.000000e+01
5.000000e+01
5.000000e+01
5.000000e+01
5.000000e+01
5.000000e+01
5.000000e+01
5.000000e+01
5.000000e+01
5.000000e+01
5.000000e+01
5.000000e+01
5.000000e+01
5.000000e+01
5.000000e+01
5.000000e+01
5.000000e+01
5.000000e+01
5.000000e+01
5.000000e+01
5.000000e+01
5.000000e+01
5.000000e+01
5.000000e+01
5.000000e+01
5.000000e+01
5.000000e+01
5.000000e+01
5.000000e+01
5.000000e+01
5.625000e+01
5.625000e+01
5.625000e+01
5.625000e+01
5.625000e+01
5.625000e+01
5.625000e+01
5.625000e+01
5.625000e+01
5.625000e+01
5.625000e+01
5.625000e+01
5.625000e+01
5.625000e+01
5.625000e+01
5.625000e+01
5.625000e+01
5.625000e+01
5.625000e+01
5.625000e+01
5.625000e+01
5.625000e+01
5.625000e+01
5.625000e+01
5.625000e+01
5.625000e+01
5.625000e+01
5.625000e+01
5.625000e+01
5.625000e+01
5.625000e+01
5.625000e+01
5.625000e+01
6.250000e+01
6.250000e+01
6.250000e+01
6.250000e+01
6.250000e+01
6.250000e+01
6.250000e+01
6.250000e+01
6.250000e+01
6.250000e+01
6.250000e+01
6.250000e+01
6.250000e+01
6.250000e+01
6.250000e+01
6.250000e+01
6.250000e+01
6.250000e+01
6.250000e+01
6.250000e+01
6.250000e+01
6.250000e+01
6.250000e+01
6.250000e+01
6.250000e+01
6.250000e+01
6.250000e+01
6.250000e+01
6.250000e+01
6.250000e+01
6.250000e+01
6.250000e+01
6.250000e+01
6.875000e+01
6.875000e+01
6.875000e+01
6.875000e+01
6.875000e+01
6.875000e+01
6.875000e+01
6.875000e+01
6.875000e+01
6.875000e+01
6.875000e+01
6.875000e+01
6.875000e+01
6.875000e+01
6.875000e+01
6.875000e+01
6.875000e+01
6.875000e+01
6.875000e+01
6.875000e+01
6.875000e+01
6.875000e+01
6.875000e+01
6.875000e+01
6.875000e+01
6.875000e+01
6.875000e+01
6.875000e+01
6.875000e+01
6.875000e+01
6.875000e+01
6.875000e+01
6.875000e+01
7.500000e+01
7.500000e+01
7.500000e+01
7.500000e+01
7.500000e+01
7.500000e+01
7.500000e+01
7.500000e+01
7.500000e+01
7.500000e+01
7.500000e+01
7.500000e+01
7.500000e+01
7.500000e+01
7.500000e+01
7.500000e+01
7.500000e+01
7.500000e+01
7.500000e+01
7.500000e+01
7.500000e+01
7.500000e+01
7.500000e+01
7.500000e+01
7.500000e+01
7.500000e+01
7.500000e+01
7.500000e+01
7.500000e+01
7.500000e+01
7.500000e+01
7.500000e+01
7.500000e+01
8.125000e+01
8.125000e+01
8.125000e+01
8.125000e+01
8.125000e+01
8.125000e+01
8.125000e+01
8.125000e+01
8.125000e+01
8.125000e+01
8.125000e+01
8.125000e+01
8.125000e+01
8.125000e+01
8.125000e+01
8.125000e+01
8.125000e+01
8.125000e+01
8.125000e+01
8.125000e+01
8.125000e+01
8.125000e+01
8.125000e+01
8.125000e+01
8.125000e+01
8.125000e+01
8.125000e+01
8.125000e+01
8.125000e+01
8.125000e+01
8.125000e+01
8.125000e+01
8.125000e+01
8.750000e+01
8.750000e+01
8.750000e+01
8.750000e+01
8.750000e+01
8.750000e+01
8.750000e+01
8.750000e+01
8.750000e+01
8.750000e+01
8.750000e+01
8.750000e+01
8.750000e+01
8.750000e+01
8.750000e+01
8.750000e+01
8.750000e+01
8.750000e+01
8.750000e+01
8.750000e+01
8.750000e+01
8.750000e+01
8.750000e+01
8.750000e+01
8.750000e+01
8.750000e+01
8.750000e+01
8.750000e+01
8.750000e+01
8.750000e+01
8.750000e+01
8.750000e+01
8.750000e+01
9.375000e+01
9.375000e+01
9.375000e+01
9.375000e+01
9.375000e+01
9.375000e+01
9.375000e+01
9.375000e+01
9.375000e+01
9.375000e+01
9.375000e+01
9.375000e+01
9.375000e+01
9.375000e+01
9.375000e+01
9.375000e+01
9.375000e+01
9.375000e+01
9.375000e+01
9.375000e+01
9.375000e+01
9.375000e+01
9.375000e+01
9.375000e+01
9.375000e+01
9.375000e+01
9.375000e+01
9.375000e+01
9.375000e+01
9.375000e+01
9.375000e+01
9.375000e+01
9.375000e+01
1.000000e+02
1.000000e+02
1.000000e+02
1.000000e+02
1.000000e+02
1.000000e+02
1.000000e+02
1.000000e+02
1.000000e+02
1.000000e+02
1.000000e+02
1.000000e+02
1.000000e+02
1.000000e+02
1.000000e+02
1.000000e+02
1.000000e+02
1.000000e+02
1.000000e+02
1.000000e+02
1.000000e+02
1.000000e+02
1.000000e+02
1.000000e+02
1.000000e+02
1.000000e+02
1.000000e+02
1.000000e+02
1.000000e+02
1.000000e+02
1.000000e+02
1.000000e+02
1.000000e+02
0.000000e+00
-4.508742e-02
-8.180513e-02
-1.158189e-01
-1.484625e-01
-1.799849e-01
-2.104494e-01
-2.398532e-01
-2.681777e-01
-2.954026e-01
-3.215105e-01
-3.464899e-01
-3.703345e-01
-3.930440e-01
-4.146235e-01
-4.350845e-01
-4.544453e-01
-4.727325e-01
-4.899830e-01
-5.062462e-01
-5.215885e-01
-5.360971e-01
-5.498876e-01
-5.631136e-01
-5.759802e-01
-5.887668e-01
-6.018611e-01
-6.158160e-01
-6.314428e-01
-6.499352e-01
-6.728417e-01
-7.001400e-01
-7.167998e-01
0.000000e+00
-3.022990e-02
-6.289656e-02
-9.369691e-02
-1.229715e-01
-1.509989e-01
-1.779274e-01
-2.038218e-01
-2.287078e-01
-2.525938e-01
-2.754814e-01
-2.973707e-01
-3.182627e-01
-3.381607e-01
-3.570713e-01
-3.750051e-01
-3.919774e-01
-4.080091e-01
-4.231279e-01
-4.373700e-01
-4.507815e-01
-4.634201e-01
-4.753581e-01
-4.866835e-01
-4.975014e-01
-5.079331e-01
-5.181064e-01
-5.281265e-01
-5.379926e-01
-5.473838e-01
-5.552093e-01
-5.597845e-01
-5.661538e-01
0.000000e+00
-2.397843e-02
-4.936537e-02
-7.521331e-02
-1.003295e-01
-1.245201e-01
-1.477697e-01
-1.701003e-01
-1.915316e-01
-2.120772e-01
-2.317457e-01
-2.505434e-01
-2.684753e-01
-2.855469e-01
-3.017643e-01
-3.171356e-01
-3.316707e-01
-3.453821e-01
-3.582852e-01
-3.703984e-01
-3.817430e-01
-3.923418e-01
-4.022174e-01
-4.113875e-01
-4.198554e-01
-4.275943e-01
-4.345154e-01
-4.404151e-01
-4.448944e-01
-4.473064e-01
-4.470949e-01
-4.457405e-01
-4.531782e-01
0.000000e+00
-1.902476e-02
-3.910022e-02
-5.972524e-02
-8.030194e-02
-1.003802e-01
-1.197881e-01
-1.384640e-01
-1.563912e-01
-1.735689e-01
-1.900016e-01
-2.056947e-01
-2.206537e-01
-2.348830e-01
-2.483871e-01
-2.611696e-01
-2.732341e-01
-2.845836e-01
-2.952206e-01
-3.051456e-01
-3.143560e-01
-3.228435e-01
-3.305892e-01
-3.375570e-01
-3.436827e-01
-3.488581e-01
-3.529119e-01
-3.555964e-01
-3.566214e-01
-3.558605e-01
-3.540124e-01
-3.539021e-01
-3.609884e-01
0.000000e+00
-1.476587e-02
-3.023547e-02
-4.619923e-02
-6.229269e-02
-7.818876e-02
-9.366812e-02
-1.086197e-01
-1.229931e-01
-1.367687e-01
-1.499417e-01
-1.625125e-01
-1.744837e-01
-1.858572e-01
-1.966338e-01
-2.068125e-01
-2.163901e-01
-2.253608e-01
-2.337155e-01
-2.414400e-01
-2.485137e-01
-2.549062e-01
-2.605740e-01
-2.654546e-01
-2.694619e-01
-2.724825e-01
-2.743833e-01
-2.750501e-01
-2.745030e-01
-2.731646e-01
-2.722963e-01
-2.743015e-01
-2.803464e-01
0.000000e+00
-1.085205e-02
-2.216905e-02
-3.384963e-02
-4.569196e-02
-5.747499e-02
-6.902323e-02
-8.022259e-02
-9.101047e-02
-1.013564e-01
-1.112476e-01
-1.206795e-01
-1.296504e-01
-1.381589e-01
-1.462016e-01
-1.537729e-01
-1.608637e-01
-1.674611e-01
-1.735473e-01
-1.790984e-01
-1.840832e-01
-1.884612e-01
-1.921813e-01
-1.951812e-01
-1.973895e-01
-1.987370e-01
-1.991840e-01
-1.987828e-01
-1.977940e-01
-1.968533e-01
-1.970823e-01
-1.996386e-01
-2.046404e-01
0.000000e+00
-7.141957e-03
-1.456641e-02
-2.222639e-02
-3.001266e-02
-3.779417e-02
-4.545355e-02
-5.290528e-02
-6.009581e-02
-6.699561e-02
-7.358975e-02
-7.987074e-02
-8.583376e-02
-9.147384e-02
-9.678418e-02
-1.017551e-01
-1.063731e-01
-1.106205e-01
-1.144745e-01
-1.179067e-01
-1.208827e-01
-1.233620e-01
-1.252996e-01
-1.266498e-01
-1.273753e-01
-1.274653e-01
-1.269693e-01
-1.260514e-01
-1.250609e-01
-1.245808e-01
-1.253299e-01
-1.278187e-01
-1.318562e-01
0.000000e+00
-3.547408e-03
-7.228928e-03
-1.102564e-02
-1.488959e-02
-1.875974e-02
-2.257812e-02
-2.629938e-02
-2.989286e-02
-3.333985e-02
-3.662925e-02
-3.975372e-02
-4.270688e-02
-4.548139e-02
-4.806781e-02
-5.045370e-02
-5.262308e-02
-5.455590e-02
-5.622787e-02
-5.761052e-02
-5.867189e-02
-5.937837e-02
-5.969840e-02
-5.960939e-02
-5.910958e-02
-5.823711e-02
-5.709758e-02
-5.589688e-02
-5.496479e-02
-5.473130e-02
-5.561018e-02
-5.778134e-02
-6.098500e-02
0.000000e+00
-5.723414e-06
-1.240999e-05
-1.968930e-05
-2.717845e-05
-3.436119e-05
-4.045945e-05
-4.429090e-05
-4.410234e-05
-3.736925e-05
-2.055369e-05
1.118348e-05
6.431582e-05
1.473226e-04
2.710801e-04
4.492397e-04
6.985331e-04
1.038911e-03
1.493367e-03
2.087213e-03
2.846472e-03
3.794899e-03
4.948944e-03
6.309861e-03
7.852155e-03
9.508267e-03
1.115140e-02
1.258295e-02
1.353857e-02
1.373237e-02
1.295206e-02
1.118491e-02
8.709925e-03
0.000000e+00
3.536628e-03
7.205506e-03
1.098840e-02
1.483807e-02
1.869442e-02
2.250092e-02
2.621443e-02
2.980755e-02
3.326629e-02
3.658620e-02
3.976902e-02
4.282051e-02
4.574933e-02
4.856655e-02
5.128555e-02
5.392203e-02
5.649390e-02
5.902077e-02
6.152282e-02
6.401876e-02
6.652232e-02
6.903709e-02
7.154908e-02
7.401748e-02
7.636439e-02
7.846696e-02
8.015805e-02
8.124463e-02
8.155225e-02
8.099512e-02
7.965271e-02
7.781578e-02
0.000000e+00
7.133150e-03
1.454714e-02
2.219554e-02
2.996965e-02
3.773912e-02
4.538773e-02
5.283169e-02
6.002006e-02
6.692709e-02
7.354321e-02
7.986827e-02
8.590740e-02
9.166872e-02
9.716236e-02
1.024000e-01
1.073948e-01
1.121609e-01
1.167132e-01
1.210657e-01
1.252299e-01
1.292108e-01
1.330031e-01
1.365849e-01
1.399113e-01
1.429084e-01
1.454720e-01
1.474743e-01
1.487848e-01
1.493088e-01
1.490393e-01
1.481105e-01
1.468284e-01
0.000000e+00
1.084644e-02
2.215654e-02
3.382925e-02
4.566303e-02
5.743722e-02
6.897701e-02
8.016939e-02
9.095336e-02
1.013009e-01
1.112025e-01
1.206584e-01
1.296734e-01
1.382546e-01
1.464101e-01
1.541484e-01
1.614787e-01
1.684104e-01
1.749522e-01
1.811118e-01
1.868935e-01
1.922959e-01
1.973085e-01
2.019078e-01
2.060530e-01
2.096839e-01
2.127223e-01
2.150805e-01
2.166797e-01
2.174810e-01
2.175260e-01
2.169811e-01
2.161709e-01
0.000000e+00
1.476447e-02
3.023198e-02
4.619298e-02
6.228303e-02
7.817515e-02
9.365020e-02
1.085974e-01
1.229669e-01
1.367398e-01
1.499123e-01
1.624864e-01
1.744669e-01
1.858586e-01
1.966664e-01
2.068947e-01
2.165473e-01
2.256275e-01
2.341373e-01
2.420772e-01
2.494448e-01
2.562334e-01
2.624298e-01
2.680127e-01
2.729507e-01
2.772023e-01
2.807189e-01
2.834519e-01
2.853673e-01
2.864678e-01
2.868247e-01
2.866201e-01
2.861933e-01
0.000000e+00
1.902829e-02
3.910740e-02
5.973593e-02
8.031583e-02
1.003969e-01
1.198071e-01
1.384842e-01
1.564112e-01
1.735862e-01
1.900124e-01
2.056937e-01
2.206329e-01
2.348316e-01
2.482903e-01
2.610077e-01
2.729815e-01
2.842078e-01
2.946809e-01
3.043936e-01
3.133359e-01
3.214955e-01
3.288567e-01
3.354011e-01
3.411078e-01
3.459554e-01
3.499257e-01
3.530098e-01
3.552170e-01
3.565887e-01
3.572196e-01
3.572949e-01
3.571533e-01
0.000000e+00
2.398706e-02
4.938378e-02
7.524215e-02
1.003693e-01
1.245714e-01
1.478325e-01
1.701739e-01
1.916139e-01
2.121640e-01
2.318296e-01
2.506122e-01
2.685107e-01
2.855216e-01
3.016397e-01
3.168575e-01
3.311658e-01
3.445528e-01
3.570045e-01
3.685041e-01
3.790329e-01
3.885704e-01
3.970958e-01
4.045900e-01
4.110389e-01
4.164375e-01
4.207955e-01
4.241437e-01
4.265400e-01
4.280748e-01
4.288781e-01
4.291398e-01
4.291710e-01
0.000000e+00
3.024285e-02
6.292486e-02
9.374242e-02
1.230364e-01
1.510856e-01
1.780376e-01
2.039566e-01
2.288667e-01
2.527736e-01
2.756748e-01
2.975637e-01
3.184323e-01
3.382710e-01
3.570684e-01
3.748113e-01
3.914833e-01
4.070650e-01
4.215329e-01
4.348597e-01
4.470147e-01
4.579652e-01
4.676787e-01
4.761275e-01
4.832941e-01
4.891787e-01
4.938093e-01
4.972510e-01
4.996153e-01
5.010639e-01
5.018041e-01
5.020724e-01
5.021381e-01
0.000000e+00
4.510160e-02
8.183821e-02
1.158756e-01
1.485474e-01
1.801026e-01
2.106046e-01
2.400505e-01
2.684208e-01
2.956928e-01
3.218455e-01
3.468607e-01
3.707224e-01
3.934152e-01
4.149234e-01
4.352290e-01
4.543104e-01
4.721410e-01
4.886882e-01
5.039129e-01
5.177692e-01
5.302060e-01
5.411701e-01
5.506111e-01
5.584901e-01
5.647912e-01
5.695367e-01
5.728060e-01
5.747545e-01
5.756325e-01
5.757921e-01
5.756599e-01
5.755856e-01
0.000000e+00
-2.786317e-02
-4.862724e-02
-7.128585e-02
-9.651756e-02
-1.250193e-01
-1.569891e-01
-1.924826e-01
-2.314644e-01
-2.738510e-01
-3.195300e-01
-3.683721e-01
-4.202380e-01
-4.749826e-01
-5.324577e-01
-5.925145e-01
-6.550045e-01
-7.197822e-01
-7.867069e-01
-8.556461e-01
-9.264798e-01
-9.991071e-01
-1.073456e+00
-1.149497e+00
-1.227269e+00
-1.306916e+00
-1.388754e+00
-1.473402e+00
-1.562040e+00
-1.657008e+00
-1.763356e+00
-1.892993e+00
-2.072091e+00
0.000000e+00
-1.731590e-02
-3.905041e-02
-6.186187e-02
-8.744526e-02
-1.162566e-01
-1.485371e-01
-1.843413e-01
-2.236368e-01
-2.663402e-01
-3.123384e-01
-3.615012e-01
-4.136880e-01
-4.687525e-01
-5.265451e-01
-5.869155e-01
-6.497134e-01
-7.147911e-01
-7.820053e-01
-8.512200e-01
-9.223112e-01
-9.951726e-01
-1.069726e+00
-1.145933e+00
-1.223823e+00
-1.303525e+00
-1.385341e+00
-1.469869e+00
-1.558265e+00
-1.652831e+00
-1.758357e+00
-1.885109e+00
-2.052432e+00
0.000000e+00
-1.271952e-02
-3.148225e-02
-5.398253e-02
-7.961062e-02
-1.086343e-01
-1.411696e-01
-1.772466e-01
-2.168220e-01
-2.598083e-01
-3.060905e-01
-3.555374e-01
-4.080078e-01
-4.633548e-01
-5.214284e-01
-5.820774e-01
-6.451512e-01
-7.105010e-01
-7.779825e-01
-8.474587e-01
-9.188044e-01
-9.919127e-01
-1.066704e+00
-1.143144e+00
-1.221262e+00
-1.301197e+00
-1.383262e+00
-1.468071e+00
-1.556767e+00
-1.651422e+00
-1.755575e+00
-1.873410e+00
-2.004123e+00
0.000000e+00
-1.018526e-02
-2.665912e-02
-4.795957e-02
-7.325830e-02
-1.022730e-01
-1.349474e-01
-1.712265e-01
-2.110323e-01
-2.542610e-01
-3.007905e-01
-3.504863e-01
-4.032058e-01
-4.588021e-01
-5.171252e-01
-5.780245e-01
-6.413495e-01
-7.069522e-01
-7.746892e-01
-8.444245e-01
-9.160345e-01
-9.894149e-01
-1.064491e+00
-1.141231e+00
-1.219676e+00
-1.299969e+00
-1.382421e+00
-1.467597e+00
-1.556433e+00
-1.650294e+00
-1.750486e+00
-1.856158e+00
-1.954527e+00
0.000000e+00
-8.618403e-03
-2.350496e-02
-4.368255e-02
-6.840458e-02
-9.722902e-02
-1.299157e-01
-1.663128e-01
-2.062886e-01
-2.497125e-01
-2.964488e-01
-3.463567e-01
-3.992911e-01
-4.551045e-01
-5.136477e-01
-5.747709e-01
-6.383253e-01
-7.041645e-01
-7.721471e-01
-8.421393e-01
-9.140203e-01
-9.876890e-01
-1.063074e+00
-1.140146e+00
-1.218941e+00
-1.299587e+00
-1.382336e+00
-1.467595e+00
-1.555903e+00
-1.647693e+00
-1.742526e+00
-1.836921e+00
-1.922591e+00
0.000000e+00
-7.621400e-03
-2.143544e-02
-4.073929e-02
-6.490482e-02
-9.345925e-02
-1.260749e-01
-1.625185e-01
-2.026063e-01
-2.461765e-01
-2.930767e-01
-3.431576e-01
-3.962708e-01
-4.522680e-01
-5.110006e-01
-5.723206e-01
-6.360809e-01
-7.021374e-01
-7.703508e-01
-8.405896e-01
-9.127348e-01
-9.866856e-01
-1.062368e+00
-1.139746e+00
-1.218832e+00
-1.299704e+00
-1.382503e+00
-1.467408e+00
-1.554518e+00
-1.643539e+00
-1.733114e+00
-1.820043e+00
-1.899496e+00
0.000000e+00
-7.001774e-03
-2.012699e-02
-3.882611e-02
-6.256024e-02
-9.086861e-02
-1.233874e-01
-1.598356e-01
-1.999895e-01
-2.436610e-01
-2.906820e-01
-3.408951e-01
-3.941486e-01
-4.502934e-01
-5.091819e-01
-5.706677e-01
-6.346057e-01
-7.008539e-01
-7.692744e-01
-8.397366e-01
-9.121206e-01
-9.863215e-01
-1.062255e+00
-1.139865e+00
-1.219124e+00
-1.300033e+00
-1.382600e+00
-1.466777e+00
-1.552321e+00
-1.638537e+00
-1.723933e+00
-1.806046e+00
-1.881859e+00
0.000000e+00
-6.661280e-03
-1.940095e-02
-3.774799e-02
-6.121582e-02
-8.935958e-02
-1.218038e-01
-1.582439e-01
-1.984336e-01
-2.421678e-01
-2.892678e-01
-3.395711e-01
-3.929237e-01
-4.491766e-01
-5.081831e-01
-5.697986e-01
-6.338796e-01
-7.002854e-01
-7.688786e-01
-8.395273e-01
-9.121071e-01
-9.865041e-01
-1.062617e+00
-1.140358e+00
-1.219649e+00
-1.300409e+00
-1.382518e+00
-1.465754e+00
-1.549670e+00
-1.633444e+00
-1.715727e+00
-1.794670e+00
-1.868213e+00
0.000000e+00
-6.551574e-03
-1.916672e-02
-3.739857e-02
-6.077766e-02
-8.886570e-02
-1.212850e-01
-1.577246e-01
-1.979312e-01
-2.416946e-01
-2.888333e-01
-3.391834e-01
-3.925913e-01
-4.489088e-01
-5.079908e-01
-5.696941e-01
-6.338764e-01
-7.003975e-01
-7.691188e-01
-8.399049e-01
-9.126242e-01
-9.871492e-01
-1.063356e+00
-1.141123e+00
-1.220316e+00
-1.300780e+00
-1.382296e+00
-1.464527e+00
-1.546943e+00
-1.628731e+00
-1.708754e+00
-1.785598e+00
-1.857755e+00
0.000000e+00
-6.658107e-03
-1.939655e-02
-3.774420e-02
-6.121467e-02
-8.936360e-02
-1.218163e-01
-1.582693e-01
-1.984778e-01
-2.422383e-01
-2.893746e-01
-3.397265e-01
-3.931431e-01
-4.494783e-01
-5.085888e-01
-5.703326e-01
-6.345681e-01
-7.011544e-01
-7.699509e-01
-8.408169e-01
-9.136110e-01
-9.881904e-01
-1.064407e+00
-1.142103e+00
-1.221097e+00
-1.301171e+00
-1.382038e+00
-1.463304e+00
-1.544422e+00
-1.624653e+00
-1.703058e+00
-1.778544e+00
-1.849960e+00
0.000000e+00
-6.995684e-03
-2.011854e-02
-3.881880e-02
-6.255794e-02
-9.087617e-02
-1.234112e-01
-1.598840e-01
-2.000739e-01
-2.437960e-01
-2.908864e-01
-3.411928e-01
-3.945690e-01
-4.508720e-01
-5.099602e-01
-5.716926e-01
-6.359278e-01
-7.025237e-01
-7.713363e-01
-8.422190e-01
-9.150203e-01
-9.895810e-01
-1.065730e+00
-1.143277e+00
-1.222002e+00
-1.301640e+00
-1.381864e+00
-1.462256e+00
-1.542291e+00
-1.621322e+00
-1.698591e+00
-1.773254e+00
-1.844427e+00
0.000000e+00
-7.612936e-03
-2.142369e-02
-4.072908e-02
-6.490151e-02
-9.346960e-02
-1.261078e-01
-1.625858e-01
-2.027238e-01
-2.463647e-01
-2.933620e-01
-3.435734e-01
-3.968584e-01
-4.530771e-01
-5.120896e-01
-5.737555e-01
-6.379331e-01
-7.044786e-01
-7.732447e-01
-8.440785e-01
-9.168189e-01
-9.912922e-01
-1.067307e+00
-1.144647e+00
-1.223061e+00
-1.302255e+00
-1.381875e+00
-1.461505e+00
-1.540654e+00
-1.618771e+00
-1.695256e+00
-1.769480e+00
-1.840800e+00
0.000000e+00
-8.608432e-03
-2.349113e-02
-4.367052e-02
-6.840075e-02
-9.724154e-02
-1.299554e-01
-1.663940e-01
-2.064304e-01
-2.499398e-01
-2.967937e-01
-3.468594e-01
-4.000017e-01
-4.560833e-01
-5.149654e-01
-5.765078e-01
-6.405681e-01
-7.070009e-01
-7.756557e-01
-8.463743e-01
-9.189873e-01
-9.933092e-01
-1.069133e+00
-1.146222e+00
-1.224306e+00
-1.303068e+00
-1.382144e+00
-1.461125e+00
-1.539561e+00
-1.616981e+00
-1.692928e+00
-1.766974e+00
-1.838724e+00
0.000000e+00
-1.017501e-02
-2.664492e-02
-4.794733e-02
-7.325501e-02
-1.022877e-01
-1.349921e-01
-1.713172e-01
-2.111900e-01
-2.545133e-01
-3.011727e-01
-3.510430e-01
-4.039922e-01
-4.598845e-01
-5.185817e-01
-5.799431e-01
-6.438258e-01
-7.100828e-01
-7.785609e-01
-8.490978e-01
-9.215181e-01
-9.956280e-01
-1.071210e+00
-1.148014e+00
-1.225757e+00
-1.304110e+00
-1.382707e+00
-1.461146e+00
-1.539009e+00
-1.615896e+00
-1.691464e+00
-1.765478e+00
-1.837819e+00
0.000000e+00
-1.271059e-02
-3.146982e-02
-5.397220e-02
-7.960964e-02
-1.086522e-01
-1.412190e-01
-1.773441e-01
-2.169896e-01
-2.600745e-01
-3.064919e-01
-3.561199e-01
-4.088280e-01
-4.644808e-01
-5.229398e-01
-5.840641e-01
-6.477097e-01
-7.137282e-01
-7.819646e-01
-8.522539e-01
-9.244169e-01
-9.982548e-01
-1.073544e+00
-1.150029e+00
-1.227419e+00
-1.305383e+00
-1.383554e+00
-1.461540e+00
-1.538947e+00
-1.615420e+00
-1.690705e+00
-1.764726e+00
-1.837661e+00
0.000000e+00
-1.731016e-02
-3.904195e-02
-6.185579e-02
-8.744902e-02
-1.162800e-01
-1.485928e-01
-1.844459e-01
-2.238124e-01
-2.666149e-01
-3.127483e-01
-3.620914e-01
-4.145136e-01
-4.698795e-01
-5.280500e-01
-5.888834e-01
-6.522350e-01
-7.179549e-01
-7.858868e-01
-8.558637e-01
-9.277043e-01
-1.001208e+00
-1.076149e+00
-1.152270e+00
-1.229281e+00
-1.306852e+00
-1.384624e+00
-1.462215e+00
-1.539248e+00
-1.615398e+00
-1.690458e+00
-1.764454e+00
-1.837795e+00
0.000000e+00
-2.786235e-02
-4.862442e-02
-7.128639e-02
-9.652894e-02
-1.250513e-01
-1.570545e-01
-1.925979e-01
-2.316511e-01
-2.741365e-01
-3.199490e-01
-3.689676e-01
-4.210619e-01
-4.760963e-01
-5.339314e-01
-5.944245e-01
-6.574297e-01
-7.227958e-01
-7.903647e-01
-8.599678e-01
-9.314220e-01
-1.004526e+00
-1.079052e+00