TITLE = "Solution"
VARIABLES = x, y, u, v, psiu, psiv, t, stress
ZONE T="structure" N=561 E=512 F=FEBLOCK ET=QUADRILATERAL VARLOCATION=([7,8]=cellcentered)
0.000000e+00
6.250000e+00
1.250000e+01
1.875000e+01
2.500000e+01
3.125000e+01
3.750000e+01
4.375000e+01
5.000000e+01
5.625000e+01
6.250000e+01
6.875000e+01
7.500000e+01
8.125000e+01
8.750000e+01
9.375000e+01
1.000000e+02
1.062500e+02
1.125000e+02
1.187500e+02
1.250000e+02
1.312500e+02
1.375000e+02
1.437500e+02
1.500000e+02
1.562500e+02
1.625000e+02
1.687500e+02
1.750000e+02
1.812500e+02
1.875000e+02
1.937500e+02
2.000000e+02
0.000000e+00
6.250000e+00
1.250000e+01
1.875000e+01
2.500000e+01
3.125000e+01
3.750000e+01
4.375000e+01
5.000000e+01
5.625000e+01
6.250000e+01
6.875000e+01
7.500000e+01
8.125000e+01
8.750000e+01
9.375000e+01
1.000000e+02
1.062500e+02
1.125000e+02
1.187500e+02
1.250000e+02
1.312500e+02
1.375000e+02
1.437500e+02
1.500000e+02
1.562500e+02
1.625000e+02
1.687500e+02
1.750000e+02
1.812500e+02
1.875000e+02
1.937500e+02
2.000000e+02
0.000000e+00
6.250000e+00
1.250000e+01
1.875000e+01
2.500000e+01
3.125000e+01
3.750000e+01
4.375000e+01
5.000000e+01
5.625000e+01
6.250000e+01
6.875000e+01
7.500000e+01
8.125000e+01
8.750000e+01
9.375000e+01
1.000000e+02
1.062500e+02
1.125000e+02
1.187500e+02
1.250000e+02
1.312500e+02
1.375000e+02
1.437500e+02
1.500000e+02
1.562500e+02
1.625000e+02
1.687500e+02
1.750000e+02
1.812500e+02
1.875000e+02
1.937500e+02
2.000000e+02
0.000000e+00
6.250000e+00
1.250000e+01
1.875000e+01
2.500000e+01
3.125000e+01
3.750000e+01
4.375000e+01
5.000000e+01
5.625000e+01
6.250000e+01
6.875000e+01
7.500000e+01
8.125000e+01
8.750000e+01
9.375000e+01
1.000000e+02
1.062500e+02
1.125000e+02
1.187500e+02
1.250000e+02
1.312500e+02
1.375000e+02
1.437500e+02
1.500000e+02
1.562500e+02
1.625000e+02
1.687500e+02
1.750000e+02
1.812500e+02
1.875000e+02
1.937500e+02
2.000000e+02
0.000000e+00
6.250000e+00
1.250000e+01
1.875000e+01
2.500000e+01
3.125000e+01
3.750000e+01
4.375000e+01
5.000000e+01
5.625000e+01
6.250000e+01
6.875000e+01
7.500000e+01
8.125000e+01
8.750000e+01
9.375000e+01
1.000000e+02
1.062500e+02
1.125000e+02
1.187500e+02
1.250000e+02
1.312500e+02
1.375000e+02
1.437500e+02
1.500000e+02
1.562500e+02
1.625000e+02
1.687500e+02
1.750000e+02
1.812500e+02
1.875000e+02
1.937500e+02
2.000000e+02
0.000000e+00
6.250000e+00
1.250000e+01
1.875000e+01
2.500000e+01
3.125000e+01
3.750000e+01
4.375000e+01
5.000000e+01
5.625000e+01
6.250000e+01
6.875000e+01
7.500000e+01
8.125000e+01
8.750000e+01
9.375000e+01
1.000000e+02
1.062500e+02
1.125000e+02
1.187500e+02
1.250000e+02
1.312500e+02
1.375000e+02
1.437500e+02
1.500000e+02
1.562500e+02
1.625000e+02
1.687500e+02
1.750000e+02
1.812500e+02
1.875000e+02
1.937500e+02
2.000000e+02
0.000000e+00
6.250000e+00
1.250000e+01
1.875000e+01
2.500000e+01
3.125000e+01
3.750000e+01
4.375000e+01
5.000000e+01
5.625000e+01
6.250000e+01
6.875000e+01
7.500000e+01
8.125000e+01
8.750000e+01
9.375000e+01
1.000000e+02
1.062500e+02
1.125000e+02
1.187500e+02
1.250000e+02
1.312500e+02
1.375000e+02
1.437500e+02
1.500000e+02
1.562500e+02
1.625000e+02
1.687500e+02
1.750000e+02
1.812500e+02
1.875000e+02
1.937500e+02
2.000000e+02
0.000000e+00
6.250000e+00
1.250000e+01
1.875000e+01
2.500000e+01
3.125000e+01
3.750000e+01
4.375000e+01
5.000000e+01
5.625000e+01
6.250000e+01
6.875000e+01
7.500000e+01
8.125000e+01
8.750000e+01
9.375000e+01
1.000000e+02
1.062500e+02
1.125000e+02
1.187500e+02
1.250000e+02
1.312500e+02
1.375000e+02
1.437500e+02
1.500000e+02
1.562500e+02
1.625000e+02
1.687500e+02
1.750000e+02
1.812500e+02
1.875000e+02
1.937500e+02
2.000000e+02
0.000000e+00
6.250000e+00
1.250000e+01
1.875000e+01
2.500000e+01
3.125000e+01
3.750000e+01
4.375000e+01
5.000000e+01
5.625000e+01
6.250000e+01
6.875000e+01
7.500000e+01
8.125000e+01
8.750000e+01
9.375000e+01
1.000000e+02
1.062500e+02
1.125000e+02
1.187500e+02
1.250000e+02
1.312500e+02
1.375000e+02
1.437500e+02
1.500000e+02
1.562500e+02
1.625000e+02
1.687500e+02
1.750000e+02
1.812500e+02
1.875000e+02
1.937500e+02
2.000000e+02
0.000000e+00
6.250000e+00
1.250000e+01
1.875000e+01
2.500000e+01
3.125000e+01
3.750000e+01
4.375000e+01
5.000000e+01
5.625000e+01
6.250000e+01
6.875000e+01
7.500000e+01
8.125000e+01
8.750000e+01
9.375000e+01
1.000000e+02
1.062500e+02
1.125000e+02
1.187500e+02
1.250000e+02
1.312500e+02
1.375000e+02
1.437500e+02
1.500000e+02
1.562500e+02
1.625000e+02
1.687500e+02
1.750000e+02
1.812500e+02
1.875000e+02
1.937500e+02
2.000000e+02
0.000000e+00
6.250000e+00
1.250000e+01
1.875000e+01
2.500000e+01
3.125000e+01
3.750000e+01
4.375000e+01
5.000000e+01
5.625000e+01
6.250000e+01
6.875000e+01
7.500000e+01
8.125000e+01
8.750000e+01
9.375000e+01
1.000000e+02
1.062500e+02
1.125000e+02
1.187500e+02
1.250000e+02
1.312500e+02
1.375000e+02
1.437500e+02
1.500000e+02
1.562500e+02
1.625000e+02
1.687500e+02
1.750000e+02
1.812500e+02
1.875000e+02
1.937500e+02
2.000000e+02
0.000000e+00
6.250000e+00
1.250000e+01
1.875000e+01
2.500000e+01
3.125000e+01
3.750000e+01
4.375000e+01
5.000000e+01
5.625000e+01
6.250000e+01
6.875000e+01
7.500000e+01
8.125000e+01
8.750000e+01
9.375000e+01
1.000000e+02
1.062500e+02
1.125000e+02
1.187500e+02
1.250000e+02
1.312500e+02
1.375000e+02
1.437500e+02
1.500000e+02
1.562500e+02
1.625000e+02
1.687500e+02
1.750000e+02
1.812500e+02
1.875000e+02
1.937500e+02
2.000000e+02
0.000000e+00
6.250000e+00
1.250000e+01
1.875000e+01
2.500000e+01
3.125000e+01
3.750000e+01
4.375000e+01
5.000000e+01
5.625000e+01
6.250000e+01
6.875000e+01
7.500000e+01
8.125000e+01
8.750000e+01
9.375000e+01
1.000000e+02
1.062500e+02
1.125000e+02
1.187500e+02
1.250000e+02
1.312500e+02
1.375000e+02
1.437500e+02
1.500000e+02
1.562500e+02
1.625000e+02
1.687500e+02
1.750000e+02
1.812500e+02
1.875000e+02
1.937500e+02
2.000000e+02
0.000000e+00
6.250000e+00
1.250000e+01
1.875000e+01
2.500000e+01
3.125000e+01
3.750000e+01
4.375000e+01
5.000000e+01
5.625000e+01
6.250000e+01
6.875000e+01
7.500000e+01
8.125000e+01
8.750000e+01
9.375000e+01
1.000000e+02
1.062500e+02
1.125000e+02
1.187500e+02
1.250000e+02
1.312500e+02
1.375000e+02
1.437500e+02
1.500000e+02
1.562500e+02
1.625000e+02
1.687500e+02
1.750000e+02
1.812500e+02
1.875000e+02
1.937500e+02
2.000000e+02
0.000000e+00
6.250000e+00
1.250000e+01
1.875000e+01
2.500000e+01
3.125000e+01
3.750000e+01
4.375000e+01
5.000000e+01
5.625000e+01
6.250000e+01
6.875000e+01
7.500000e+01
8.125000e+01
8.750000e+01
9.375000e+01
1.000000e+02
1.062500e+02
1.125000e+02
1.187500e+02
1.250000e+02
1.312500e+02
1.375000e+02
1.437500e+02
1.500000e+02
1.562500e+02
1.625000e+02
1.687500e+02
1.750000e+02
1.812500e+02
1.875000e+02
1.937500e+02
2.000000e+02
0.000000e+00
6.250000e+00
1.250000e+01
1.875000e+01
2.500000e+01
3.125000e+01
3.750000e+01
4.375000e+01
5.000000e+01
5.625000e+01
6.250000e+01
6.875000e+01
7.500000e+01
8.125000e+01
8.750000e+01
9.375000e+01
1.000000e+02
1.062500e+02
1.125000e+02
1.187500e+02
1.250000e+02
1.312500e+02
1.375000e+02
1.437500e+02
1.500000e+02
1.562500e+02
1.625000e+02
1.687500e+02
1.750000e+02
1.812500e+02
1.875000e+02
1.937500e+02
2.000000e+02
0.000000e+00
6.250000e+00
1.250000e+01
1.875000e+01
2.500000e+01
3.125000e+01
3.750000e+01
4.375000e+01
5.000000e+01
5.625000e+01
6.250000e+01
6.875000e+01
7.500000e+01
8.125000e+01
8.750000e+01
9.375000e+01
1.000000e+02
1.062500e+02
1.125000e+02
1.187500e+02
1.250000e+02
1.312500e+02
1.375000e+02
1.437500e+02
1.500000e+02
1.562500e+02
1.625000e+02
1.687500e+02
1.750000e+02
1.812500e+02
1.875000e+02
1.937500e+02
2.000000e+02
0.000000e+00
0.000000e+00
0.000000e+00
0.000000e+00
0.000000e+00
0.000000e+00
0.000000e+00
0.000000e+00
0.000000e+00
0.000000e+00
0.000000e+00
0.000000e+00
0.000000e+00
0.000000e+00
0.000000e+00
0.000000e+00
0.000000e+00
0.000000e+00
0.000000e+00
0.000000e+00
0.000000e+00
0.000000e+00
0.000000e+00
0.000000e+00
0.000000e+00
0.000000e+00
0.000000e+00
0.000000e+00
0.000000e+00
0.000000e+00
0.000000e+00
0.000000e+00
0.000000e+00
6.250000e+00
6.250000e+00
6.250000e+00
6.250000e+00
6.250000e+00
6.250000e+00
6.250000e+00
6.250000e+00
6.250000e+00
6.250000e+00
6.250000e+00
6.250000e+00
6.250000e+00
6.250000e+00
6.250000e+00
6.250000e+00
6.250000e+00
6.250000e+00
6.250000e+00
6.250000e+00
6.250000e+00
6.250000e+00
6.250000e+00
6.250000e+00
6.250000e+00
6.250000e+00
6.250000e+00
6.250000e+00
6.250000e+00
6.250000e+00
6.250000e+00
6.250000e+00
6.250000e+00
1.250000e+01
1.250000e+01
1.250000e+01
1.250000e+01
1.250000e+01
1.250000e+01
1.250000e+01
1.250000e+01
1.250000e+01
1.250000e+01
1.250000e+01
1.250000e+01
1.250000e+01
1.250000e+01
1.250000e+01
1.250000e+01
1.250000e+01
1.250000e+01
1.250000e+01
1.250000e+01
1.250000e+01
1.250000e+01
1.250000e+01
1.250000e+01
1.250000e+01
1.250000e+01
1.250000e+01
1.250000e+01
1.250000e+01
1.250000e+01
1.250000e+01
1.250000e+01
1.250000e+01
1.875000e+01
1.875000e+01
1.875000e+01
1.875000e+01
1.875000e+01
1.875000e+01
1.875000e+01
1.875000e+01
1.875000e+01
1.875000e+01
1.875000e+01
1.875000e+01
1.875000e+01
1.875000e+01
1.875000e+01
1.875000e+01
1.875000e+01
1.875000e+01
1.875000e+01
1.875000e+01
1.875000e+01
1.875000e+01
1.875000e+01
1.875000e+01
1.875000e+01
1.875000e+01
1.875000e+01
1.875000e+01
1.875000e+01
1.875000e+01
1.875000e+01
1.875000e+01
1.875000e+01
2.500000e+01
2.500000e+01
2.500000e+01
2.500000e+01
2.500000e+01
2.500000e+01
2.500000e+01
2.500000e+01
2.500000e+01
2.500000e+01
2.500000e+01
2.500000e+01
2.500000e+01
2.500000e+01
2.500000e+01
2.500000e+01
2.500000e+01
2.500000e+01
2.500000e+01
2.500000e+01
2.500000e+01
2.500000e+01
2.500000e+01
2.500000e+01
2.500000e+01
2.500000e+01
2.500000e+01
2.500000e+01
2.500000e+01
2.500000e+01
2.500000e+01
2.500000e+01
2.500000e+01
3.125000e+01
3.125000e+01
3.125000e+01
3.125000e+01
3.125000e+01
3.125000e+01
3.125000e+01
3.125000e+01
3.125000e+01
3.125000e+01
3.125000e+01
3.125000e+01
3.125000e+01
3.125000e+01
3.125000e+01
3.125000e+01
3.125000e+01
3.125000e+01
3.125000e+01
3.125000e+01
3.125000e+01
3.125000e+01
3.125000e+01
3.125000e+01
3.125000e+01
3.125000e+01
3.125000e+01
3.125000e+01
3.125000e+01
3.125000e+01
3.125000e+01
3.125000e+01
3.125000e+01
3.750000e+01
3.750000e+01
3.750000e+01
3.750000e+01
3.750000e+01
3.750000e+01
3.750000e+01
3.750000e+01
3.750000e+01
3.750000e+01
3.750000e+01
3.750000e+01
3.750000e+01
3.750000e+01
3.750000e+01
3.750000e+01
3.750000e+01
3.750000e+01
3.750000e+01
3.750000e+01
3.750000e+01
3.750000e+01
3.750000e+01
3.750000e+01
3.750000e+01
3.750000e+01
3.750000e+01
3.750000e+01
3.750000e+01
3.750000e+01
3.750000e+01
3.750000e+01
3.750000e+01
4.375000e+01
4.375000e+01
4.375000e+01
4.375000e+01
4.375000e+01
4.375000e+01
4.375000e+01
4.375000e+01
4.375000e+01
4.375000e+01
4.375000e+01
4.375000e+01
4.375000e+01
4.375000e+01
4.375000e+01
4.375000e+01
4.375000e+01
4.375000e+01
4.375000e+01
4.375000e+01
4.375000e+01
4.375000e+01
4.375000e+01
4.375000e+01
4.375000e+01
4.375000e+01
4.375000e+01
4.375000e+01
4.375000e+01
4.375000e+01
4.375000e+01
4.375000e+01
4.375000e+01
5.000000e+01
5.000000e+01
5.000000e+01
5.000000e+01
5.000000e+01
5.000000e+01
5.000000e+01
5.000000e+01
5.000000e+01
5.000000e+01
5.000000e+01
5.000000e+01
5.000000e+01
5.000000e+01
5.000000e+01
5.000000e+01
5.000000e+01
5.000000e+01
5.000000e+01
5.000000e+01
5.000000e+01
5.000000e+01
5.000000e+01
5.000000e+01
5.000000e+01
5.000000e+01
5.000000e+01
5.000000e+01
5.000000e+01
5.000000e+01
5.000000e+01
5.000000e+01
5.000000e+01
5.625000e+01
5.625000e+01
5.625000e+01
5.625000e+01
5.625000e+01
5.625000e+01
5.625000e+01
5.625000e+01
5.625000e+01
5.625000e+01
5.625000e+01
5.625000e+01
5.625000e+01
5.625000e+01
5.625000e+01
5.625000e+01
5.625000e+01
5.625000e+01
5.625000e+01
5.625000e+01
5.625000e+01
5.625000e+01
5.625000e+01
5.625000e+01
5.625000e+01
5.625000e+01
5.625000e+01
5.625000e+01
5.625000e+01
5.625000e+01
5.625000e+01
5.625000e+01
5.625000e+01
6.250000e+01
6.250000e+01
6.250000e+01
6.250000e+01
6.250000e+01
6.250000e+01
6.250000e+01
6.250000e+01
6.250000e+01
6.250000e+01
6.250000e+01
6.250000e+01
6.250000e+01
6.250000e+01
6.250000e+01
6.250000e+01
6.250000e+01
6.250000e+01
6.250000e+01
6.250000e+01
6.250000e+01
6.250000e+01
6.250000e+01
6.250000e+01
6.250000e+01
6.250000e+01
6.250000e+01
6.250000e+01
6.250000e+01
6.250000e+01
6.250000e+01
6.250000e+01
6.250000e+01
6.875000e+01
6.875000e+01
6.875000e+01
6.875000e+01
6.875000e+01
6.875000e+01
6.875000e+01
6.875000e+01
6.875000e+01
6.875000e+01
6.875000e+01
6.875000e+01
6.875000e+01
6.875000e+01
6.875000e+01
6.875000e+01
6.875000e+01
6.875000e+01
6.875000e+01
6.875000e+01
6.875000e+01
6.875000e+01
6.875000e+01
6.875000e+01
6.875000e+01
6.875000e+01
6.875000e+01
6.875000e+01
6.875000e+01
6.875000e+01
6.875000e+01
6.875000e+01
6.875000e+01
7.500000e+01
7.500000e+01
7.500000e+01
7.500000e+01
7.500000e+01
7.500000e+01
7.500000e+01
7.500000e+01
7.500000e+01
7.500000e+01
7.500000e+01
7.500000e+01
7.500000e+01
7.500000e+01
7.500000e+01
7.500000e+01
7.500000e+01
7.500000e+01
7.500000e+01
7.500000e+01
7.500000e+01
7.500000e+01
7.500000e+01
7.500000e+01
7.500000e+01
7.500000e+01
7.500000e+01
7.500000e+01
7.500000e+01
7.500000e+01
7.500000e+01
7.500000e+01
7.500000e+01
8.125000e+01
8.125000e+01
8.125000e+01
8.125000e+01
8.125000e+01
8.125000e+01
8.125000e+01
8.125000e+01
8.125000e+01
8.125000e+01
8.125000e+01
8.125000e+01
8.125000e+01
8.125000e+01
8.125000e+01
8.125000e+01
8.125000e+01
8.125000e+01
8.125000e+01
8.125000e+01
8.125000e+01
8.125000e+01
8.125000e+01
8.125000e+01
8.125000e+01
8.125000e+01
8.125000e+01
8.125000e+01
8.125000e+01
8.125000e+01
8.125000e+01
8.125000e+01
8.125000e+01
8.750000e+01
8.750000e+01
8.750000e+01
8.750000e+01
8.750000e+01
8.750000e+01
8.750000e+01
8.750000e+01
8.750000e+01
8.750000e+01
8.750000e+01
8.750000e+01
8.750000e+01
8.750000e+01
8.750000e+01
8.750000e+01
8.750000e+01
8.750000e+01
8.750000e+01
8.750000e+01
8.750000e+01
8.750000e+01
8.750000e+01
8.750000e+01
8.750000e+01
8.750000e+01
8.750000e+01
8.750000e+01
8.750000e+01
8.750000e+01
8.750000e+01
8.750000e+01
8.750000e+01
9.375000e+01
9.375000e+01
9.375000e+01
9.375000e+01
9.375000e+01
9.375000e+01
9.375000e+01
9.375000e+01
9.375000e+01
9.375000e+01
9.375000e+01
9.375000e+01
9.375000e+01
9.375000e+01
9.375000e+01
9.375000e+01
9.375000e+01
9.375000e+01
9.375000e+01
9.375000e+01
9.375000e+01
9.375000e+01
9.375000e+01
9.375000e+01
9.375000e+01
9.375000e+01
9.375000e+01
9.375000e+01
9.375000e+01
9.375000e+01
9.375000e+01
9.375000e+01
9.375000e+01
1.000000e+02
1.000000e+02
1.000000e+02
1.000000e+02
1.000000e+02
1.000000e+02
1.000000e+02
1.000000e+02
1.000000e+02
1.000000e+02
1.000000e+02
1.000000e+02
1.000000e+02
1.000000e+02
1.000000e+02
1.000000e+02
1.000000e+02
1.000000e+02
1.000000e+02
1.000000e+02
1.000000e+02
1.000000e+02
1.000000e+02
1.000000e+02
1.000000e+02
1.000000e+02
1.000000e+02
1.000000e+02
1.000000e+02
1.000000e+02
1.000000e+02
1.000000e+02
1.000000e+02
0.000000e+00
-4.800161e-02
-8.709253e-02
-1.233048e-01
-1.580583e-01
-1.916181e-01
-2.240516e-01
-2.553559e-01
-2.855113e-01
-3.144958e-01
-3.422912e-01
-3.688851e-01
-3.942710e-01
-4.184482e-01
-4.414226e-01
-4.632061e-01
-4.838183e-01
-5.032875e-01
-5.216529e-01
-5.389674e-01
-5.553013e-01
-5.707476e-01
-5.854296e-01
-5.995104e-01
-6.132087e-01
-6.268217e-01
-6.407623e-01
-6.556193e-01
-6.722561e-01
-6.919438e-01
-7.163309e-01
-7.453936e-01
-7.631302e-01
0.000000e+00
-3.218378e-02
-6.696182e-02
-9.975292e-02
-1.309196e-01
-1.607586e-01
-1.894276e-01
-2.169957e-01
-2.434902e-01
-2.689201e-01
-2.932871e-01
-3.165912e-01
-3.388335e-01
-3.600176e-01
-3.801505e-01
-3.992435e-01
-4.173128e-01
-4.343807e-01
-4.504767e-01
-4.656394e-01
-4.799177e-01
-4.933733e-01
-5.060829e-01
-5.181402e-01
-5.296574e-01
-5.407634e-01
-5.515942e-01
-5.622619e-01
-5.727658e-01
-5.827640e-01
-5.910953e-01
-5.959662e-01
-6.027472e-01
0.000000e+00
-2.552825e-02
-5.255605e-02
-8.007464e-02
-1.068142e-01
-1.325684e-01
-1.573207e-01
-1.810946e-01
-2.039111e-01
-2.257847e-01
-2.467245e-01
-2.667371e-01
-2.858281e-01
-3.040031e-01
-3.212688e-01
-3.376336e-01
-3.531081e-01
-3.677058e-01
-3.814429e-01
-3.943391e-01
-4.064169e-01
-4.177007e-01
-4.282147e-01
-4.379774e-01
-4.469928e-01
-4.552318e-01
-4.626003e-01
-4.688813e-01
-4.736502e-01
-4.762180e-01
-4.759929e-01
-4.745509e-01
-4.824694e-01
0.000000e+00
-2.025440e-02
-4.162742e-02
-6.358553e-02
-8.549218e-02
-1.068682e-01
-1.275306e-01
-1.474136e-01
-1.664995e-01
-1.847875e-01
-2.022823e-01
-2.189897e-01
-2.349155e-01
-2.500646e-01
-2.644415e-01
-2.780502e-01
-2.908945e-01
-3.029776e-01
-3.143021e-01
-3.248686e-01
-3.346744e-01
-3.437104e-01
-3.519568e-01
-3.593750e-01
-3.658966e-01
-3.714065e-01
-3.757223e-01
-3.785804e-01
-3.796716e-01
-3.788615e-01
-3.768940e-01
-3.767766e-01
-3.843209e-01
0.000000e+00
-1.572025e-02
-3.218971e-02
-4.918528e-02
-6.631892e-02
-8.324242e-02
-9.972228e-02
-1.156403e-01
-1.309426e-01
-1.456087e-01
-1.596331e-01
-1.730165e-01
-1.857614e-01
-1.978700e-01
-2.093432e-01
-2.201797e-01
-2.303764e-01
-2.399270e-01
-2.488216e-01
-2.570454e-01
-2.645763e-01
-2.713821e-01
-2.774161e-01
-2.826123e-01
-2.868786e-01
-2.900944e-01
-2.921180e-01
-2.928279e-01
-2.922455e-01
-2.908206e-01
-2.898961e-01
-2.920310e-01
-2.984666e-01
0.000000e+00
-1.155347e-02
-2.360193e-02
-3.603747e-02
-4.864523e-02
-6.118985e-02
-7.348449e-02
-8.540772e-02
-9.689287e-02
-1.079075e-01
-1.184380e-01
-1.284795e-01
-1.380303e-01
-1.470887e-01
-1.556513e-01
-1.637119e-01
-1.712611e-01
-1.782849e-01
-1.847644e-01
-1.906744e-01
-1.959813e-01
-2.006424e-01
-2.046030e-01
-2.077967e-01
-2.101477e-01
-2.115823e-01
-2.120582e-01
-2.116311e-01
-2.105784e-01
-2.095768e-01
-2.098207e-01
-2.125422e-01
-2.178673e-01
0.000000e+00
-7.603571e-03
-1.550790e-02
-2.366297e-02
-3.195250e-02
-4.023696e-02
-4.839141e-02
-5.632477e-02
-6.398006e-02
-7.132583e-02
-7.834619e-02
-8.503315e-02
-9.138159e-02
-9.738621e-02
-1.030398e-01
-1.083320e-01
-1.132485e-01
-1.177704e-01
-1.218735e-01
-1.255276e-01
-1.286959e-01
-1.313354e-01
-1.333983e-01
-1.348358e-01
-1.356082e-01
-1.357040e-01
-1.351759e-01
-1.341987e-01
-1.331442e-01
-1.326330e-01
-1.334306e-01
-1.360802e-01
-1.403787e-01
0.000000e+00
-3.776691e-03
-7.696164e-03
-1.173827e-02
-1.585197e-02
-1.997226e-02
-2.403745e-02
-2.799922e-02
-3.182497e-02
-3.549475e-02
-3.899676e-02
-4.232319e-02
-4.546722e-02
-4.842106e-02
-5.117466e-02
-5.371477e-02
-5.602436e-02
-5.808211e-02
-5.986215e-02
-6.133417e-02
-6.246414e-02
-6.321628e-02
-6.355700e-02
-6.346223e-02
-6.293011e-02
-6.200126e-02
-6.078807e-02
-5.950977e-02
-5.851743e-02
-5.826885e-02
-5.920453e-02
-6.151603e-02
-6.492676e-02
0.000000e+00
-6.093351e-06
-1.321212e-05
-2.096194e-05
-2.893516e-05
-3.658216e-05
-4.307460e-05
-4.715371e-05
-4.695298e-05
-3.978469e-05
-2.188226e-05
1.190625e-05
6.847282e-05
1.568448e-04
2.886014e-04
4.782764e-04
7.436831e-04
1.106062e-03
1.589892e-03
2.222121e-03
3.030455e-03
4.040184e-03
5.268822e-03
6.717702e-03
8.359684e-03
1.012284e-02
1.187218e-02
1.339626e-02
1.441365e-02
1.461997e-02
1.378922e-02
1.190785e-02
9.272897e-03
0.000000e+00
3.765215e-03
7.671228e-03
1.169863e-02
1.579712e-02
1.990272e-02
2.395526e-02
2.790878e-02
3.173414e-02
3.541644e-02
3.895093e-02
4.233947e-02
4.558819e-02
4.870632e-02
5.170564e-02
5.460038e-02
5.740727e-02
6.014537e-02
6.283556e-02
6.549934e-02
6.815660e-02
7.082199e-02
7.349929e-02
7.617365e-02
7.880160e-02
8.130020e-02
8.353867e-02
8.533907e-02
8.649588e-02
8.682339e-02
8.623024e-02
8.480106e-02
8.284540e-02
0.000000e+00
7.594195e-03
1.548738e-02
2.363013e-02
3.190671e-02
4.017836e-02
4.832134e-02
5.624643e-02
6.389942e-02
7.125288e-02
7.829663e-02
8.503052e-02
9.145999e-02
9.759370e-02
1.034424e-01
1.090186e-01
1.143362e-01
1.194104e-01
1.242569e-01
1.288908e-01
1.333241e-01
1.375623e-01
1.415997e-01
1.454131e-01
1.489545e-01
1.521453e-01
1.548746e-01
1.570063e-01
1.584015e-01
1.589593e-01
1.586725e-01
1.576836e-01
1.563186e-01
0.000000e+00
1.154749e-02
2.358860e-02
3.601577e-02
4.861442e-02
6.114963e-02
7.343529e-02
8.535108e-02
9.683208e-02
1.078484e-01
1.183900e-01
1.284571e-01
1.380548e-01
1.471907e-01
1.558732e-01
1.641117e-01
1.719159e-01
1.792955e-01
1.862602e-01
1.928180e-01
1.989733e-01
2.047249e-01
2.100615e-01
2.149581e-01
2.193712e-01
2.232368e-01
2.264716e-01
2.289822e-01
2.306847e-01
2.315378e-01
2.315858e-01
2.310057e-01
2.301431e-01
0.000000e+00
1.571876e-02
3.218599e-02
4.917862e-02
6.630864e-02
8.322793e-02
9.970321e-02
1.156166e-01
1.309148e-01
1.455780e-01
1.596018e-01
1.729887e-01
1.857435e-01
1.978715e-01
2.093779e-01
2.202673e-01
2.305438e-01
2.402108e-01
2.492707e-01
2.577238e-01
2.655677e-01
2.727950e-01
2.793920e-01
2.853357e-01
2.905928e-01
2.951193e-01
2.988631e-01
3.017728e-01
3.038120e-01
3.049836e-01
3.053636e-01
3.051458e-01
3.046914e-01
0.000000e+00
2.025817e-02
4.163507e-02
6.359691e-02
8.550697e-02
1.068860e-01
1.275507e-01
1.474351e-01
1.665207e-01
1.848058e-01
2.022938e-01
2.189886e-01
2.348934e-01
2.500099e-01
2.643385e-01
2.778779e-01
2.906256e-01
3.025775e-01
3.137276e-01
3.240680e-01
3.335883e-01
3.422753e-01
3.501123e-01
3.570798e-01
3.631553e-01
3.683162e-01
3.725431e-01
3.758265e-01
3.781764e-01
3.796368e-01
3.803085e-01
3.803886e-01
3.802378e-01
0.000000e+00
2.553744e-02
5.257565e-02
8.010535e-02
1.068566e-01
1.326229e-01
1.573875e-01
1.811730e-01
2.039988e-01
2.258771e-01
2.468138e-01
2.668104e-01
2.858658e-01
3.039762e-01
3.211361e-01
3.373375e-01
3.525706e-01
3.668229e-01
3.800794e-01
3.923224e-01
4.035317e-01
4.136856e-01
4.227621e-01
4.307407e-01
4.376064e-01
4.433539e-01
4.479936e-01
4.515582e-01
4.541094e-01
4.557434e-01
4.565986e-01
4.568772e-01
4.569104e-01
0.000000e+00
3.219757e-02
6.699195e-02
9.980138e-02
1.309888e-01
1.608509e-01
1.895450e-01
2.171392e-01
2.436594e-01
2.691115e-01
2.934929e-01
3.167966e-01
3.390141e-01
3.601350e-01
3.801474e-01
3.990371e-01
4.167868e-01
4.333756e-01
4.487786e-01
4.629668e-01
4.759075e-01
4.875657e-01
4.979071e-01
5.069020e-01
5.145317e-01
5.207968e-01
5.257266e-01
5.293908e-01
5.319079e-01
5.334502e-01
5.342382e-01
5.345238e-01
5.345938e-01
0.000000e+00
4.801670e-02
8.712775e-02
1.233651e-01
1.581486e-01
1.917434e-01
2.242169e-01
2.555660e-01
2.857700e-01
3.148048e-01
3.426479e-01
3.692799e-01
3.946839e-01
4.188435e-01
4.417419e-01
4.633599e-01
4.836746e-01
5.026577e-01
5.202745e-01
5.364832e-01
5.512351e-01
5.644758e-01
5.761486e-01
5.861998e-01
5.945881e-01
6.012964e-01
6.063487e-01
6.098293e-01
6.119038e-01
6.128385e-01
6.130084e-01
6.128677e-01
6.127885e-01
0.000000e+00
-2.966408e-02
-5.177022e-02
-7.589336e-02
-1.027559e-01
-1.330998e-01
-1.671360e-01
-2.049236e-01
-2.464250e-01
-2.915512e-01
-3.401826e-01
-3.921817e-01
-4.473999e-01
-5.056829e-01
-5.668730e-01
-6.308115e-01
-6.973405e-01
-7.663051e-01
-8.375555e-01
-9.109506e-01
-9.863626e-01
-1.063684e+00
-1.142838e+00
-1.223795e+00
-1.306594e+00
-1.391389e+00
-1.478516e+00
-1.568635e+00
-1.663002e+00
-1.764109e+00
-1.877330e+00
-2.015347e+00
-2.206020e+00
0.000000e+00
-1.843509e-02
-4.157440e-02
-6.586027e-02
-9.309723e-02
-1.237708e-01
-1.581377e-01
-1.962561e-01
-2.380915e-01
-2.835550e-01
-3.325263e-01
-3.848667e-01
-4.404266e-01
-4.990501e-01
-5.605782e-01
-6.248506e-01
-6.917074e-01
-7.609914e-01
-8.325500e-01
-9.062384e-01
-9.819246e-01
-1.059495e+00
-1.138867e+00
-1.220000e+00
-1.302924e+00
-1.387779e+00
-1.474883e+00
-1.564874e+00
-1.658984e+00
-1.759662e+00
-1.872008e+00
-2.006952e+00
-2.185091e+00
0.000000e+00
-1.354164e-02
-3.351709e-02
-5.747166e-02
-8.475620e-02
-1.156558e-01
-1.502940e-01
-1.887028e-01
-2.308362e-01
-2.766009e-01
-3.258746e-01
-3.785175e-01
-4.343793e-01
-4.933036e-01
-5.551307e-01
-6.196998e-01
-6.868503e-01
-7.564240e-01
-8.282672e-01
-9.022340e-01
-9.781911e-01
-1.056025e+00
-1.135651e+00
-1.217031e+00
-1.300198e+00
-1.385300e+00
-1.472669e+00
-1.562960e+00
-1.657389e+00
-1.758161e+00
-1.869047e+00
-1.994497e+00
-2.133659e+00
0.000000e+00
-1.084357e-02
-2.838222e-02
-5.105940e-02
-7.799330e-02
-1.088833e-01
-1.436697e-01
-1.822937e-01
-2.246722e-01
-2.706950e-01
-3.202320e-01
-3.731398e-01
-4.292669e-01
-4.884566e-01
-5.505494e-01
-6.153849e-01
-6.828029e-01
-7.526459e-01
-8.247610e-01
-8.990036e-01
-9.752422e-01
-1.053365e+00
-1.133294e+00
-1.214995e+00
-1.298509e+00
-1.383992e+00
-1.471773e+00
-1.562455e+00
-1.657033e+00
-1.756960e+00
-1.863629e+00
-1.976130e+00
-2.080857e+00
0.000000e+00
-9.175449e-03
-2.502419e-02
-4.650594e-02
-7.282587e-02
-1.035134e-01
-1.383128e-01
-1.770623e-01
-2.196220e-01
-2.658526e-01
-3.156097e-01
-3.687433e-01
-4.250991e-01
-4.845200e-01
-5.468471e-01
-6.119210e-01
-6.795832e-01
-7.496780e-01
-8.220546e-01
-8.965707e-01
-9.730978e-01
-1.051528e+00
-1.131785e+00
-1.213839e+00
-1.297727e+00
-1.383585e+00
-1.471683e+00
-1.562453e+00
-1.656469e+00
-1.754191e+00
-1.855154e+00
-1.955651e+00
-2.046857e+00
0.000000e+00
-8.114006e-03
-2.282091e-02
-4.337245e-02
-6.909990e-02
-9.949994e-02
-1.342237e-01
-1.730228e-01
-2.157017e-01
-2.620880e-01
-3.120196e-01
-3.653374e-01
-4.218836e-01
-4.815001e-01
-5.440290e-01
-6.093123e-01
-6.771938e-01
-7.475199e-01
-8.201422e-01
-8.949209e-01
-9.717292e-01
-1.050460e+00
-1.131034e+00
-1.213413e+00
-1.297611e+00
-1.383710e+00
-1.471860e+00
-1.562254e+00
-1.654994e+00
-1.749768e+00
-1.845133e+00
-1.937681e+00
-2.022270e+00
0.000000e+00
-7.454332e-03
-2.142789e-02
-4.133562e-02
-6.660378e-02
-9.674185e-02
-1.313625e-01
-1.701665e-01
-2.129157e-01
-2.594099e-01
-3.094701e-01
-3.629287e-01
-4.196242e-01
-4.793980e-01
-5.420927e-01
-6.075526e-01
-6.756233e-01
-7.461534e-01
-8.189962e-01
-8.940128e-01
-9.710753e-01
-1.050072e+00
-1.130914e+00
-1.213540e+00
-1.297922e+00
-1.384060e+00
-1.471964e+00
-1.561582e+00
-1.652656e+00
-1.744444e+00
-1.835359e+00
-1.922779e+00
-2.003493e+00
0.000000e+00
-7.091831e-03
-2.065493e-02
-4.018782e-02
-6.517247e-02
-9.513529e-02
-1.296765e-01
-1.684719e-01
-2.112593e-01
-2.578202e-01
-3.079645e-01
-3.615191e-01
-4.183202e-01
-4.782089e-01
-5.410294e-01
-6.066273e-01
-6.748502e-01
-7.455482e-01
-8.185749e-01
-8.937899e-01
-9.710609e-01
-1.050267e+00
-1.131299e+00
-1.214065e+00
-1.298481e+00
-1.384461e+00
-1.471877e+00
-1.560492e+00
-1.649833e+00
-1.739021e+00
-1.826623e+00
-1.910668e+00
-1.988965e+00
0.000000e+00
-6.975034e-03
-2.040555e-02
-3.981581e-02
-6.470599e-02
-9.460949e-02
-1.291242e-01
-1.679190e-01
-2.107244e-01
-2.573164e-01
-3.075019e-01
-3.611064e-01
-4.179662e-01
-4.779238e-01
-5.408246e-01
-6.065160e-01
-6.748468e-01
-7.456675e-01
-8.188306e-01
-8.941920e-01
-9.716114e-01
-1.050953e+00
-1.132086e+00
-1.214879e+00
-1.299191e+00
-1.384856e+00
-1.471640e+00
-1.559187e+00
-1.646930e+00
-1.734004e+00
-1.819199e+00
-1.901010e+00
-1.977830e+00
0.000000e+00
-7.088452e-03
-2.065024e-02
-4.018378e-02
-6.517125e-02
-9.513957e-02
-1.296898e-01
-1.684990e-01
-2.113063e-01
-2.578953e-01
-3.080782e-01
-3.616846e-01
-4.185537e-01
-4.785302e-01
-5.414613e-01
-6.071958e-01
-6.755832e-01
-7.464734e-01
-8.197165e-01
-8.951628e-01
-9.726621e-01
-1.052062e+00
-1.133205e+00
-1.215922e+00
-1.300022e+00
-1.385272e+00
-1.471366e+00
-1.557885e+00
-1.644246e+00
-1.729662e+00
-1.813135e+00
-1.893500e+00
-1.969532e+00
0.000000e+00
-7.447849e-03
-2.141889e-02
-4.132784e-02
-6.660134e-02
-9.674990e-02
-1.313878e-01
-1.702181e-01
-2.130056e-01
-2.595536e-01
-3.096877e-01
-3.632457e-01
-4.200718e-01
-4.800139e-01
-5.429213e-01
-6.086437e-01
-6.770308e-01
-7.479311e-01
-8.211915e-01
-8.966557e-01
-9.741624e-01
-1.053542e+00
-1.134613e+00
-1.217172e+00
-1.300986e+00
-1.385772e+00
-1.471180e+00
-1.556768e+00
-1.641976e+00
-1.726116e+00
-1.808379e+00
-1.887868e+00
-1.963641e+00
0.000000e+00
-8.104995e-03
-2.280840e-02
-4.336158e-02
-6.909639e-02
-9.951095e-02
-1.342587e-01
-1.730945e-01
-2.158267e-01
-2.622884e-01
-3.123234e-01
-3.657802e-01
-4.225092e-01
-4.823616e-01
-5.451884e-01
-6.108400e-01
-6.791657e-01
-7.500123e-01
-8.232231e-01
-8.986354e-01
-9.760773e-01
-1.055364e+00
-1.136292e+00
-1.218631e+00
-1.302113e+00
-1.386426e+00
-1.471192e+00
-1.555969e+00
-1.640234e+00
-1.723401e+00
-1.804828e+00
-1.883850e+00
-1.959779e+00
0.000000e+00
-9.164834e-03
-2.500947e-02
-4.649314e-02
-7.282179e-02
-1.035267e-01
-1.383550e-01
-1.771488e-01
-2.197729e-01
-2.660946e-01
-3.159768e-01
-3.692785e-01
-4.258557e-01
-4.855621e-01
-5.482500e-01
-6.137702e-01
-6.819710e-01
-7.526977e-01
-8.257900e-01
-9.010795e-01
-9.783858e-01
-1.057511e+00
-1.138236e+00
-1.220308e+00
-1.303438e+00
-1.387291e+00
-1.471479e+00
-1.555565e+00
-1.639070e+00
-1.721495e+00
-1.802350e+00
-1.881182e+00
-1.957570e+00
0.000000e+00
-1.083266e-02
-2.836710e-02
-5.104638e-02
-7.798981e-02
-1.088990e-01
-1.437173e-01
-1.823902e-01
-2.248402e-01
-2.709636e-01
-3.206389e-01
-3.737326e-01
-4.301041e-01
-4.896090e-01
-5.521000e-01
-6.174276e-01
-6.854393e-01
-7.559788e-01
-8.288829e-01
-9.039790e-01
-9.810802e-01
-1.059980e+00
-1.140447e+00
-1.222216e+00
-1.304983e+00
-1.388401e+00
-1.472078e+00
-1.555587e+00
-1.638483e+00
-1.720339e+00
-1.800792e+00
-1.879590e+00
-1.956606e+00
0.000000e+00
-1.353213e-02
-3.350385e-02
-5.746066e-02
-8.475516e-02
-1.156749e-01
-1.503466e-01
-1.888067e-01
-2.310146e-01
-2.768843e-01
-3.263018e-01
-3.791375e-01
-4.352524e-01
-4.945023e-01
-5.567398e-01
-6.218149e-01
-6.895742e-01
-7.598599e-01
-8.325067e-01
-9.073391e-01
-9.841663e-01
-1.062777e+00
-1.142932e+00
-1.224361e+00
-1.306753e+00
-1.389756e+00
-1.472980e+00
-1.556007e+00
-1.638417e+00
-1.719833e+00
-1.799984e+00
-1.878789e+00
-1.956438e+00
0.000000e+00
-1.842899e-02
-4.156540e-02
-6.585380e-02
-9.310124e-02
-1.237957e-01
-1.581970e-01
-1.963675e-01
-2.382784e-01
-2.838474e-01
-3.329627e-01
-3.854950e-01
-4.413056e-01
-5.002500e-01
-5.621803e-01
-6.269457e-01
-6.943920e-01
-7.643598e-01
-8.366824e-01
-9.111822e-01
-9.876663e-01
-1.065921e+00
-1.145705e+00
-1.226747e+00
-1.308735e+00
-1.391321e+00
-1.474119e+00
-1.556725e+00
-1.638738e+00
-1.719809e+00
-1.799721e+00
-1.878500e+00
-1.956581e+00
0.000000e+00
-2.966321e-02
-5.176722e-02
-7.589394e-02
-1.027680e-01
-1.331339e-01
-1.672057e-01
-2.050464e-01
-2.466238e-01
-2.918552e-01
-3.406288e-01
-3.928156e-01
-4.482771e-01
-5.068687e-01
-5.684418e-01
-6.328449e-01
-6.999224e-01
-7.695135e-01
-8.414497e-01
-9.155516e-01
-9.916243e-01
-1.069453e+00
-1.148797e+00