TITLE = "Solution"
VARIABLES = x, y, u, v, psiu, psiv, t, stress
ZONE T="structure" N=561 E=512 F=FEBLOCK ET=QUADRILATERAL VARLOCATION=([7,8]=cellcentered)
0.000000e+00
6.250000e+00
1.250000e+01
1.875000e+01
2.500000e+01
3.125000e+01
3.750000e+01
4.375000e+01
5.000000e+01
5.625000e+01
6.250000e+01
6.875000e+01
7.500000e+01
8.125000e+01
8.750000e+01
9.375000e+01
1.000000e+02
1.062500e+02
1.125000e+02
1.187500e+02
1.250000e+02
1.312500e+02
1.375000e+02
1.437500e+02
1.500000e+02
1.562500e+02
1.625000e+02
1.687500e+02
1.750000e+02
1.812500e+02
1.875000e+02
1.937500e+02
2.000000e+02
0.000000e+00
6.250000e+00
1.250000e+01
1.875000e+01
2.500000e+01
3.125000e+01
3.750000e+01
4.375000e+01
5.000000e+01
5.625000e+01
6.250000e+01
6.875000e+01
7.500000e+01
8.125000e+01
8.750000e+01
9.375000e+01
1.000000e+02
1.062500e+02
1.125000e+02
1.187500e+02
1.250000e+02
1.312500e+02
1.375000e+02
1.437500e+02
1.500000e+02
1.562500e+02
1.625000e+02
1.687500e+02
1.750000e+02
1.812500e+02
1.875000e+02
1.937500e+02
2.000000e+02
0.000000e+00
6.250000e+00
1.250000e+01
1.875000e+01
2.500000e+01
3.125000e+01
3.750000e+01
4.375000e+01
5.000000e+01
5.625000e+01
6.250000e+01
6.875000e+01
7.500000e+01
8.125000e+01
8.750000e+01
9.375000e+01
1.000000e+02
1.062500e+02
1.125000e+02
1.187500e+02
1.250000e+02
1.312500e+02
1.375000e+02
1.437500e+02
1.500000e+02
1.562500e+02
1.625000e+02
1.687500e+02
1.750000e+02
1.812500e+02
1.875000e+02
1.937500e+02
2.000000e+02
0.000000e+00
6.250000e+00
1.250000e+01
1.875000e+01
2.500000e+01
3.125000e+01
3.750000e+01
4.375000e+01
5.000000e+01
5.625000e+01
6.250000e+01
6.875000e+01
7.500000e+01
8.125000e+01
8.750000e+01
9.375000e+01
1.000000e+02
1.062500e+02
1.125000e+02
1.187500e+02
1.250000e+02
1.312500e+02
1.375000e+02
1.437500e+02
1.500000e+02
1.562500e+02
1.625000e+02
1.687500e+02
1.750000e+02
1.812500e+02
1.875000e+02
1.937500e+02
2.000000e+02
0.000000e+00
6.250000e+00
1.250000e+01
1.875000e+01
2.500000e+01
3.125000e+01
3.750000e+01
4.375000e+01
5.000000e+01
5.625000e+01
6.250000e+01
6.875000e+01
7.500000e+01
8.125000e+01
8.750000e+01
9.375000e+01
1.000000e+02
1.062500e+02
1.125000e+02
1.187500e+02
1.250000e+02
1.312500e+02
1.375000e+02
1.437500e+02
1.500000e+02
1.562500e+02
1.625000e+02
1.687500e+02
1.750000e+02
1.812500e+02
1.875000e+02
1.937500e+02
2.000000e+02
0.000000e+00
6.250000e+00
1.250000e+01
1.875000e+01
2.500000e+01
3.125000e+01
3.750000e+01
4.375000e+01
5.000000e+01
5.625000e+01
6.250000e+01
6.875000e+01
7.500000e+01
8.125000e+01
8.750000e+01
9.375000e+01
1.000000e+02
1.062500e+02
1.125000e+02
1.187500e+02
1.250000e+02
1.312500e+02
1.375000e+02
1.437500e+02
1.500000e+02
1.562500e+02
1.625000e+02
1.687500e+02
1.750000e+02
1.812500e+02
1.875000e+02
1.937500e+02
2.000000e+02
0.000000e+00
6.250000e+00
1.250000e+01
1.875000e+01
2.500000e+01
3.125000e+01
3.750000e+01
4.375000e+01
5.000000e+01
5.625000e+01
6.250000e+01
6.875000e+01
7.500000e+01
8.125000e+01
8.750000e+01
9.375000e+01
1.000000e+02
1.062500e+02
1.125000e+02
1.187500e+02
1.250000e+02
1.312500e+02
1.375000e+02
1.437500e+02
1.500000e+02
1.562500e+02
1.625000e+02
1.687500e+02
1.750000e+02
1.812500e+02
1.875000e+02
1.937500e+02
2.000000e+02
0.000000e+00
6.250000e+00
1.250000e+01
1.875000e+01
2.500000e+01
3.125000e+01
3.750000e+01
4.375000e+01
5.000000e+01
5.625000e+01
6.250000e+01
6.875000e+01
7.500000e+01
8.125000e+01
8.750000e+01
9.375000e+01
1.000000e+02
1.062500e+02
1.125000e+02
1.187500e+02
1.250000e+02
1.312500e+02
1.375000e+02
1.437500e+02
1.500000e+02
1.562500e+02
1.625000e+02
1.687500e+02
1.750000e+02
1.812500e+02
1.875000e+02
1.937500e+02
2.000000e+02
0.000000e+00
6.250000e+00
1.250000e+01
1.875000e+01
2.500000e+01
3.125000e+01
3.750000e+01
4.375000e+01
5.000000e+01
5.625000e+01
6.250000e+01
6.875000e+01
7.500000e+01
8.125000e+01
8.750000e+01
9.375000e+01
1.000000e+02
1.062500e+02
1.125000e+02
1.187500e+02
1.250000e+02
1.312500e+02
1.375000e+02
1.437500e+02
1.500000e+02
1.562500e+02
1.625000e+02
1.687500e+02
1.750000e+02
1.812500e+02
1.875000e+02
1.937500e+02
2.000000e+02
0.000000e+00
6.250000e+00
1.250000e+01
1.875000e+01
2.500000e+01
3.125000e+01
3.750000e+01
4.375000e+01
5.000000e+01
5.625000e+01
6.250000e+01
6.875000e+01
7.500000e+01
8.125000e+01
8.750000e+01
9.375000e+01
1.000000e+02
1.062500e+02
1.125000e+02
1.187500e+02
1.250000e+02
1.312500e+02
1.375000e+02
1.437500e+02
1.500000e+02
1.562500e+02
1.625000e+02
1.687500e+02
1.750000e+02
1.812500e+02
1.875000e+02
1.937500e+02
2.000000e+02
0.000000e+00
6.250000e+00
1.250000e+01
1.875000e+01
2.500000e+01
3.125000e+01
3.750000e+01
4.375000e+01
5.000000e+01
5.625000e+01
6.250000e+01
6.875000e+01
7.500000e+01
8.125000e+01
8.750000e+01
9.375000e+01
1.000000e+02
1.062500e+02
1.125000e+02
1.187500e+02
1.250000e+02
1.312500e+02
1.375000e+02
1.437500e+02
1.500000e+02
1.562500e+02
1.625000e+02
1.687500e+02
1.750000e+02
1.812500e+02
1.875000e+02
1.937500e+02
2.000000e+02
0.000000e+00
6.250000e+00
1.250000e+01
1.875000e+01
2.500000e+01
3.125000e+01
3.750000e+01
4.375000e+01
5.000000e+01
5.625000e+01
6.250000e+01
6.875000e+01
7.500000e+01
8.125000e+01
8.750000e+01
9.375000e+01
1.000000e+02
1.062500e+02
1.125000e+02
1.187500e+02
1.250000e+02
1.312500e+02
1.375000e+02
1.437500e+02
1.500000e+02
1.562500e+02
1.625000e+02
1.687500e+02
1.750000e+02
1.812500e+02
1.875000e+02
1.937500e+02
2.000000e+02
0.000000e+00
6.250000e+00
1.250000e+01
1.875000e+01
2.500000e+01
3.125000e+01
3.750000e+01
4.375000e+01
5.000000e+01
5.625000e+01
6.250000e+01
6.875000e+01
7.500000e+01
8.125000e+01
8.750000e+01
9.375000e+01
1.000000e+02
1.062500e+02
1.125000e+02
1.187500e+02
1.250000e+02
1.312500e+02
1.375000e+02
1.437500e+02
1.500000e+02
1.562500e+02
1.625000e+02
1.687500e+02
1.750000e+02
1.812500e+02
1.875000e+02
1.937500e+02
2.000000e+02
0.000000e+00
6.250000e+00
1.250000e+01
1.875000e+01
2.500000e+01
3.125000e+01
3.750000e+01
4.375000e+01
5.000000e+01
5.625000e+01
6.250000e+01
6.875000e+01
7.500000e+01
8.125000e+01
8.750000e+01
9.375000e+01
1.000000e+02
1.062500e+02
1.125000e+02
1.187500e+02
1.250000e+02
1.312500e+02
1.375000e+02
1.437500e+02
1.500000e+02
1.562500e+02
1.625000e+02
1.687500e+02
1.750000e+02
1.812500e+02
1.875000e+02
1.937500e+02
2.000000e+02
0.000000e+00
6.250000e+00
1.250000e+01
1.875000e+01
2.500000e+01
3.125000e+01
3.750000e+01
4.375000e+01
5.000000e+01
5.625000e+01
6.250000e+01
6.875000e+01
7.500000e+01
8.125000e+01
8.750000e+01
9.375000e+01
1.000000e+02
1.062500e+02
1.125000e+02
1.187500e+02
1.250000e+02
1.312500e+02
1.375000e+02
1.437500e+02
1.500000e+02
1.562500e+02
1.625000e+02
1.687500e+02
1.750000e+02
1.812500e+02
1.875000e+02
1.937500e+02
2.000000e+02
0.000000e+00
6.250000e+00
1.250000e+01
1.875000e+01
2.500000e+01
3.125000e+01
3.750000e+01
4.375000e+01
5.000000e+01
5.625000e+01
6.250000e+01
6.875000e+01
7.500000e+01
8.125000e+01
8.750000e+01
9.375000e+01
1.000000e+02
1.062500e+02
1.125000e+02
1.187500e+02
1.250000e+02
1.312500e+02
1.375000e+02
1.437500e+02
1.500000e+02
1.562500e+02
1.625000e+02
1.687500e+02
1.750000e+02
1.812500e+02
1.875000e+02
1.937500e+02
2.000000e+02
0.000000e+00
6.250000e+00
1.250000e+01
1.875000e+01
2.500000e+01
3.125000e+01
3.750000e+01
4.375000e+01
5.000000e+01
5.625000e+01
6.250000e+01
6.875000e+01
7.500000e+01
8.125000e+01
8.750000e+01
9.375000e+01
1.000000e+02
1.062500e+02
1.125000e+02
1.187500e+02
1.250000e+02
1.312500e+02
1.375000e+02
1.437500e+02
1.500000e+02
1.562500e+02
1.625000e+02
1.687500e+02
1.750000e+02
1.812500e+02
1.875000e+02
1.937500e+02
2.000000e+02
0.000000e+00
0.000000e+00
0.000000e+00
0.000000e+00
0.000000e+00
0.000000e+00
0.000000e+00
0.000000e+00
0.000000e+00
0.000000e+00
0.000000e+00
0.000000e+00
0.000000e+00
0.000000e+00
0.000000e+00
0.000000e+00
0.000000e+00
0.000000e+00
0.000000e+00
0.000000e+00
0.000000e+00
0.000000e+00
0.000000e+00
0.000000e+00
0.000000e+00
0.000000e+00
0.000000e+00
0.000000e+00
0.000000e+00
0.000000e+00
0.000000e+00
0.000000e+00
0.000000e+00
6.250000e+00
6.250000e+00
6.250000e+00
6.250000e+00
6.250000e+00
6.250000e+00
6.250000e+00
6.250000e+00
6.250000e+00
6.250000e+00
6.250000e+00
6.250000e+00
6.250000e+00
6.250000e+00
6.250000e+00
6.250000e+00
6.250000e+00
6.250000e+00
6.250000e+00
6.250000e+00
6.250000e+00
6.250000e+00
6.250000e+00
6.250000e+00
6.250000e+00
6.250000e+00
6.250000e+00
6.250000e+00
6.250000e+00
6.250000e+00
6.250000e+00
6.250000e+00
6.250000e+00
1.250000e+01
1.250000e+01
1.250000e+01
1.250000e+01
1.250000e+01
1.250000e+01
1.250000e+01
1.250000e+01
1.250000e+01
1.250000e+01
1.250000e+01
1.250000e+01
1.250000e+01
1.250000e+01
1.250000e+01
1.250000e+01
1.250000e+01
1.250000e+01
1.250000e+01
1.250000e+01
1.250000e+01
1.250000e+01
1.250000e+01
1.250000e+01
1.250000e+01
1.250000e+01
1.250000e+01
1.250000e+01
1.250000e+01
1.250000e+01
1.250000e+01
1.250000e+01
1.250000e+01
1.875000e+01
1.875000e+01
1.875000e+01
1.875000e+01
1.875000e+01
1.875000e+01
1.875000e+01
1.875000e+01
1.875000e+01
1.875000e+01
1.875000e+01
1.875000e+01
1.875000e+01
1.875000e+01
1.875000e+01
1.875000e+01
1.875000e+01
1.875000e+01
1.875000e+01
1.875000e+01
1.875000e+01
1.875000e+01
1.875000e+01
1.875000e+01
1.875000e+01
1.875000e+01
1.875000e+01
1.875000e+01
1.875000e+01
1.875000e+01
1.875000e+01
1.875000e+01
1.875000e+01
2.500000e+01
2.500000e+01
2.500000e+01
2.500000e+01
2.500000e+01
2.500000e+01
2.500000e+01
2.500000e+01
2.500000e+01
2.500000e+01
2.500000e+01
2.500000e+01
2.500000e+01
2.500000e+01
2.500000e+01
2.500000e+01
2.500000e+01
2.500000e+01
2.500000e+01
2.500000e+01
2.500000e+01
2.500000e+01
2.500000e+01
2.500000e+01
2.500000e+01
2.500000e+01
2.500000e+01
2.500000e+01
2.500000e+01
2.500000e+01
2.500000e+01
2.500000e+01
2.500000e+01
3.125000e+01
3.125000e+01
3.125000e+01
3.125000e+01
3.125000e+01
3.125000e+01
3.125000e+01
3.125000e+01
3.125000e+01
3.125000e+01
3.125000e+01
3.125000e+01
3.125000e+01
3.125000e+01
3.125000e+01
3.125000e+01
3.125000e+01
3.125000e+01
3.125000e+01
3.125000e+01
3.125000e+01
3.125000e+01
3.125000e+01
3.125000e+01
3.125000e+01
3.125000e+01
3.125000e+01
3.125000e+01
3.125000e+01
3.125000e+01
3.125000e+01
3.125000e+01
3.125000e+01
3.750000e+01
3.750000e+01
3.750000e+01
3.750000e+01
3.750000e+01
3.750000e+01
3.750000e+01
3.750000e+01
3.750000e+01
3.750000e+01
3.750000e+01
3.750000e+01
3.750000e+01
3.750000e+01
3.750000e+01
3.750000e+01
3.750000e+01
3.750000e+01
3.750000e+01
3.750000e+01
3.750000e+01
3.750000e+01
3.750000e+01
3.750000e+01
3.750000e+01
3.750000e+01
3.750000e+01
3.750000e+01
3.750000e+01
3.750000e+01
3.750000e+01
3.750000e+01
3.750000e+01
4.375000e+01
4.375000e+01
4.375000e+01
4.375000e+01
4.375000e+01
4.375000e+01
4.375000e+01
4.375000e+01
4.375000e+01
4.375000e+01
4.375000e+01
4.375000e+01
4.375000e+01
4.375000e+01
4.375000e+01
4.375000e+01
4.375000e+01
4.375000e+01
4.375000e+01
4.375000e+01
4.375000e+01
4.375000e+01
4.375000e+01
4.375000e+01
4.375000e+01
4.375000e+01
4.375000e+01
4.375000e+01
4.375000e+01
4.375000e+01
4.375000e+01
4.375000e+01
4.375000e+01
5.000000e+01
5.000000e+01
5.000000e+01
5.000000e+01
5.000000e+01
5.000000e+01
5.000000e+01
5.000000e+01
5.000000e+01
5.000000e+01
5.000000e+01
5.000000e+01
5.000000e+01
5.000000e+01
5.000000e+01
5.000000e+01
5.000000e+01
5.000000e+01
5.000000e+01
5.000000e+01
5.000000e+01
5.000000e+01
5.000000e+01
5.000000e+01
5.000000e+01
5.000000e+01
5.000000e+01
5.000000e+01
5.000000e+01
5.000000e+01
5.000000e+01
5.000000e+01
5.000000e+01
5.625000e+01
5.625000e+01
5.625000e+01
5.625000e+01
5.625000e+01
5.625000e+01
5.625000e+01
5.625000e+01
5.625000e+01
5.625000e+01
5.625000e+01
5.625000e+01
5.625000e+01
5.625000e+01
5.625000e+01
5.625000e+01
5.625000e+01
5.625000e+01
5.625000e+01
5.625000e+01
5.625000e+01
5.625000e+01
5.625000e+01
5.625000e+01
5.625000e+01
5.625000e+01
5.625000e+01
5.625000e+01
5.625000e+01
5.625000e+01
5.625000e+01
5.625000e+01
5.625000e+01
6.250000e+01
6.250000e+01
6.250000e+01
6.250000e+01
6.250000e+01
6.250000e+01
6.250000e+01
6.250000e+01
6.250000e+01
6.250000e+01
6.250000e+01
6.250000e+01
6.250000e+01
6.250000e+01
6.250000e+01
6.250000e+01
6.250000e+01
6.250000e+01
6.250000e+01
6.250000e+01
6.250000e+01
6.250000e+01
6.250000e+01
6.250000e+01
6.250000e+01
6.250000e+01
6.250000e+01
6.250000e+01
6.250000e+01
6.250000e+01
6.250000e+01
6.250000e+01
6.250000e+01
6.875000e+01
6.875000e+01
6.875000e+01
6.875000e+01
6.875000e+01
6.875000e+01
6.875000e+01
6.875000e+01
6.875000e+01
6.875000e+01
6.875000e+01
6.875000e+01
6.875000e+01
6.875000e+01
6.875000e+01
6.875000e+01
6.875000e+01
6.875000e+01
6.875000e+01
6.875000e+01
6.875000e+01
6.875000e+01
6.875000e+01
6.875000e+01
6.875000e+01
6.875000e+01
6.875000e+01
6.875000e+01
6.875000e+01
6.875000e+01
6.875000e+01
6.875000e+01
6.875000e+01
7.500000e+01
7.500000e+01
7.500000e+01
7.500000e+01
7.500000e+01
7.500000e+01
7.500000e+01
7.500000e+01
7.500000e+01
7.500000e+01
7.500000e+01
7.500000e+01
7.500000e+01
7.500000e+01
7.500000e+01
7.500000e+01
7.500000e+01
7.500000e+01
7.500000e+01
7.500000e+01
7.500000e+01
7.500000e+01
7.500000e+01
7.500000e+01
7.500000e+01
7.500000e+01
7.500000e+01
7.500000e+01
7.500000e+01
7.500000e+01
7.500000e+01
7.500000e+01
7.500000e+01
8.125000e+01
8.125000e+01
8.125000e+01
8.125000e+01
8.125000e+01
8.125000e+01
8.125000e+01
8.125000e+01
8.125000e+01
8.125000e+01
8.125000e+01
8.125000e+01
8.125000e+01
8.125000e+01
8.125000e+01
8.125000e+01
8.125000e+01
8.125000e+01
8.125000e+01
8.125000e+01
8.125000e+01
8.125000e+01
8.125000e+01
8.125000e+01
8.125000e+01
8.125000e+01
8.125000e+01
8.125000e+01
8.125000e+01
8.125000e+01
8.125000e+01
8.125000e+01
8.125000e+01
8.750000e+01
8.750000e+01
8.750000e+01
8.750000e+01
8.750000e+01
8.750000e+01
8.750000e+01
8.750000e+01
8.750000e+01
8.750000e+01
8.750000e+01
8.750000e+01
8.750000e+01
8.750000e+01
8.750000e+01
8.750000e+01
8.750000e+01
8.750000e+01
8.750000e+01
8.750000e+01
8.750000e+01
8.750000e+01
8.750000e+01
8.750000e+01
8.750000e+01
8.750000e+01
8.750000e+01
8.750000e+01
8.750000e+01
8.750000e+01
8.750000e+01
8.750000e+01
8.750000e+01
9.375000e+01
9.375000e+01
9.375000e+01
9.375000e+01
9.375000e+01
9.375000e+01
9.375000e+01
9.375000e+01
9.375000e+01
9.375000e+01
9.375000e+01
9.375000e+01
9.375000e+01
9.375000e+01
9.375000e+01
9.375000e+01
9.375000e+01
9.375000e+01
9.375000e+01
9.375000e+01
9.375000e+01
9.375000e+01
9.375000e+01
9.375000e+01
9.375000e+01
9.375000e+01
9.375000e+01
9.375000e+01
9.375000e+01
9.375000e+01
9.375000e+01
9.375000e+01
9.375000e+01
1.000000e+02
1.000000e+02
1.000000e+02
1.000000e+02
1.000000e+02
1.000000e+02
1.000000e+02
1.000000e+02
1.000000e+02
1.000000e+02
1.000000e+02
1.000000e+02
1.000000e+02
1.000000e+02
1.000000e+02
1.000000e+02
1.000000e+02
1.000000e+02
1.000000e+02
1.000000e+02
1.000000e+02
1.000000e+02
1.000000e+02
1.000000e+02
1.000000e+02
1.000000e+02
1.000000e+02
1.000000e+02
1.000000e+02
1.000000e+02
1.000000e+02
1.000000e+02
1.000000e+02
0.000000e+00
-4.689845e-01
-7.797681e-01
-1.118667e+00
-1.421180e+00
-1.714366e+00
-2.024621e+00
-2.313629e+00
-2.614454e+00
-2.908336e+00
-3.206521e+00
-3.504924e+00
-3.803489e+00
-4.104626e+00
-4.404002e+00
-4.706242e+00
-5.007406e+00
-5.309479e+00
-5.611833e+00
-5.913201e+00
-6.215835e+00
-6.517428e+00
-6.819344e+00
-7.117939e+00
-7.413790e+00
-7.717697e+00
-8.019559e+00
-8.347522e+00
-8.669518e+00
-9.025929e+00
-9.509664e+00
-9.926181e+00
-1.013102e+01
0.000000e+00
-2.331291e-01
-4.710954e-01
-7.361895e-01
-1.002407e+00
-1.255447e+00
-1.525022e+00
-1.785431e+00
-2.047859e+00
-2.312950e+00
-2.573098e+00
-2.838292e+00
-3.098838e+00
-3.362310e+00
-3.624160e+00
-3.885937e+00
-4.148439e+00
-4.409510e+00
-4.671696e+00
-4.932706e+00
-5.194265e+00
-5.454988e+00
-5.716423e+00
-5.976525e+00
-6.238157e+00
-6.498700e+00
-6.758756e+00
-7.022260e+00
-7.277539e+00
-7.536064e+00
-7.787105e+00
-7.887180e+00
-7.992955e+00
0.000000e+00
-1.049844e-01
-2.427545e-01
-4.388607e-01
-6.560755e-01
-8.633116e-01
-1.090254e+00
-1.316028e+00
-1.542039e+00
-1.773109e+00
-1.995991e+00
-2.224396e+00
-2.446925e+00
-2.671406e+00
-2.894943e+00
-3.117162e+00
-3.340661e+00
-3.562800e+00
-3.786262e+00
-4.009641e+00
-4.233517e+00
-4.457071e+00
-4.681718e+00
-4.908711e+00
-5.137077e+00
-5.358966e+00
-5.571365e+00
-5.769167e+00
-5.948515e+00
-6.097603e+00
-6.182960e+00
-6.188014e+00
-6.280879e+00
0.000000e+00
-1.024907e-01
-1.868073e-01
-3.390112e-01
-4.619775e-01
-6.183362e-01
-7.950776e-01
-9.646349e-01
-1.155150e+00
-1.333663e+00
-1.519030e+00
-1.702518e+00
-1.885806e+00
-2.070563e+00
-2.254847e+00
-2.440891e+00
-2.627146e+00
-2.815508e+00
-3.005273e+00
-3.196487e+00
-3.389435e+00
-3.581949e+00
-3.775371e+00
-3.967803e+00
-4.152446e+00
-4.325786e+00
-4.476601e+00
-4.608675e+00
-4.709734e+00
-4.772252e+00
-4.786849e+00
-4.803648e+00
-4.884345e+00
0.000000e+00
-9.246951e-02
-1.834493e-01
-2.743267e-01
-3.865436e-01
-5.025744e-01
-6.343944e-01
-7.686113e-01
-9.123799e-01
-1.054566e+00
-1.199771e+00
-1.346178e+00
-1.490561e+00
-1.638526e+00
-1.784224e+00
-1.932501e+00
-2.080554e+00
-2.229581e+00
-2.379330e+00
-2.528544e+00
-2.677623e+00
-2.824013e+00
-2.967298e+00
-3.103986e+00
-3.231548e+00
-3.345321e+00
-3.442148e+00
-3.516180e+00
-3.564463e+00
-3.588039e+00
-3.590361e+00
-3.620133e+00
-3.692151e+00
0.000000e+00
-7.395226e-02
-1.450782e-01
-2.197800e-01
-3.008493e-01
-3.897944e-01
-4.843321e-01
-5.854091e-01
-6.890485e-01
-7.964447e-01
-9.041408e-01
-1.012690e+00
-1.121696e+00
-1.230173e+00
-1.339372e+00
-1.448085e+00
-1.557090e+00
-1.665654e+00
-1.773538e+00
-1.880087e+00
-1.984160e+00
-2.084639e+00
-2.179375e+00
-2.266590e+00
-2.343736e+00
-2.408800e+00
-2.459700e+00
-2.494451e+00
-2.515355e+00
-2.514388e+00
-2.509824e+00
-2.536899e+00
-2.603305e+00
0.000000e+00
-5.096770e-02
-1.014221e-01
-1.530291e-01
-2.081585e-01
-2.671782e-01
-3.303191e-01
-3.965839e-01
-4.655870e-01
-5.360886e-01
-6.075433e-01
-6.792141e-01
-7.507815e-01
-8.221555e-01
-8.930892e-01
-9.636579e-01
-1.033527e+00
-1.102474e+00
-1.169984e+00
-1.235371e+00
-1.297687e+00
-1.355587e+00
-1.407638e+00
-1.452150e+00
-1.487646e+00
-1.511991e+00
-1.525071e+00
-1.528500e+00
-1.511736e+00
-1.482736e+00
-1.472033e+00
-1.496705e+00
-1.561899e+00
0.000000e+00
-2.684465e-02
-5.355102e-02
-8.083136e-02
-1.093917e-01
-1.396937e-01
-1.716525e-01
-2.050867e-01
-2.395392e-01
-2.746425e-01
-3.099099e-01
-3.450199e-01
-3.797099e-01
-4.137992e-01
-4.472014e-01
-4.797532e-01
-5.112490e-01
-5.413466e-01
-5.696815e-01
-5.957632e-01
-6.188301e-01
-6.378694e-01
-6.516461e-01
-6.592749e-01
-6.592740e-01
-6.516964e-01
-6.342619e-01
-5.960056e-01
-5.470163e-01
-4.973070e-01
-4.730443e-01
-4.974557e-01
-5.651200e-01
0.000000e+00
-1.928362e-03
-3.904606e-03
-5.845739e-03
-7.651831e-03
-9.211918e-03
-1.044645e-02
-1.130730e-02
-1.177969e-02
-1.182271e-02
-1.137747e-02
-1.034538e-02
-8.595867e-03
-5.963052e-03
-2.291248e-03
2.557603e-03
8.848945e-03
1.691453e-02
2.690293e-02
3.885828e-02
5.307775e-02
7.028024e-02
9.118324e-02
1.175192e-01
1.490109e-01
1.894084e-01
2.472366e-01
3.179459e-01
3.898851e-01
4.399397e-01
4.548987e-01
4.227599e-01
3.452480e-01
0.000000e+00
2.312206e-02
4.602652e-02
6.958243e-02
9.471255e-02
1.220984e-01
1.518325e-01
1.837484e-01
2.174015e-01
2.523838e-01
2.883179e-01
3.250021e-01
3.624513e-01
4.009232e-01
4.407676e-01
4.823119e-01
5.259425e-01
5.717907e-01
6.197411e-01
6.693737e-01
7.203029e-01
7.727823e-01
8.278572e-01
8.864472e-01
9.546084e-01
1.037453e+00
1.126070e+00
1.215543e+00
1.288886e+00
1.332293e+00
1.330863e+00
1.287366e+00
1.224989e+00
0.000000e+00
4.760886e-02
9.469053e-02
1.430487e-01
1.952906e-01
2.521027e-01
3.137366e-01
3.792890e-01
4.479855e-01
5.186199e-01
5.903527e-01
6.625170e-01
7.349447e-01
8.080557e-01
8.826197e-01
9.598962e-01
1.040405e+00
1.123676e+00
1.208835e+00
1.295889e+00
1.384837e+00
1.475224e+00
1.567962e+00
1.669192e+00
1.776909e+00
1.887826e+00
1.996758e+00
2.086430e+00
2.150713e+00
2.178363e+00
2.171651e+00
2.141588e+00
2.097483e+00
0.000000e+00
7.102800e-02
1.393709e-01
2.116497e-01
2.908348e-01
3.788232e-01
4.735275e-01
5.748688e-01
6.798658e-01
7.879935e-01
8.970699e-01
1.006742e+00
1.116761e+00
1.226820e+00
1.337753e+00
1.449836e+00
1.564837e+00
1.681959e+00
1.801045e+00
1.923184e+00
2.050809e+00
2.186847e+00
2.328538e+00
2.469849e+00
2.606703e+00
2.734577e+00
2.846716e+00
2.936531e+00
2.993296e+00
3.022082e+00
3.025688e+00
3.007741e+00
2.980051e+00
0.000000e+00
8.982309e-02
1.782200e-01
2.676483e-01
3.800550e-01
4.982292e-01
6.308311e-01
7.692533e-01
9.132985e-01
1.058852e+00
1.205693e+00
1.353810e+00
1.502107e+00
1.653919e+00
1.805782e+00
1.961279e+00
2.118686e+00
2.279422e+00
2.443557e+00
2.609448e+00
2.778016e+00
2.948546e+00
3.117779e+00
3.281803e+00
3.435429e+00
3.575470e+00
3.694777e+00
3.786985e+00
3.854261e+00
3.893821e+00
3.907006e+00
3.900532e+00
3.885976e+00
0.000000e+00
9.927843e-02
1.810331e-01
3.308920e-01
4.558650e-01
6.169678e-01
7.988628e-01
9.709813e-01
1.164599e+00
1.344323e+00
1.530272e+00
1.712524e+00
1.896588e+00
2.086429e+00
2.280747e+00
2.480794e+00
2.683240e+00
2.888899e+00
3.098709e+00
3.311169e+00
3.521253e+00
3.725153e+00
3.920123e+00
4.104251e+00
4.279067e+00
4.436973e+00
4.572270e+00
4.679152e+00
4.755920e+00
4.804005e+00
4.826388e+00
4.829272e+00
4.824522e+00
0.000000e+00
1.031671e-01
2.371725e-01
4.268536e-01
6.421065e-01
8.493080e-01
1.079284e+00
1.308866e+00
1.537946e+00
1.772658e+00
1.997886e+00
2.225512e+00
2.448325e+00
2.674566e+00
2.903740e+00
3.135020e+00
3.367180e+00
3.597895e+00
3.829864e+00
4.062545e+00
4.296279e+00
4.524679e+00
4.746112e+00
4.966409e+00
5.175735e+00
5.360754e+00
5.510580e+00
5.625758e+00
5.708496e+00
5.761578e+00
5.789423e+00
5.798539e+00
5.799664e+00
0.000000e+00
2.336713e-01
4.723591e-01
7.369115e-01
1.002607e+00
1.255208e+00
1.524048e+00
1.784415e+00
2.046400e+00
2.310889e+00
2.570790e+00
2.834758e+00
3.094557e+00
3.356241e+00
3.616317e+00
3.876115e+00
4.135867e+00
4.393440e+00
4.650997e+00
4.905482e+00
5.160571e+00
5.414045e+00
5.667694e+00
5.925041e+00
6.165605e+00
6.365890e+00
6.523665e+00
6.640899e+00
6.721442e+00
6.770850e+00
6.796102e+00
6.805252e+00
6.807502e+00
0.000000e+00
4.701655e-01
7.857274e-01
1.129444e+00
1.435251e+00
1.728454e+00
2.037360e+00
2.323431e+00
2.621703e+00
2.912275e+00
3.207577e+00
3.505532e+00
3.802447e+00
4.100140e+00
4.392508e+00
4.683251e+00
4.972727e+00
5.262333e+00
5.551934e+00
5.840299e+00
6.126641e+00
6.416040e+00
6.706744e+00
6.998540e+00
7.260887e+00
7.471537e+00
7.630142e+00
7.739477e+00
7.804649e+00
7.833896e+00
7.838991e+00
7.834335e+00
7.831765e+00
0.000000e+00
-2.781209e-01
-5.858013e-01
-9.784495e-01
-1.407089e+00
-1.873796e+00
-2.380920e+00
-2.918871e+00
-3.493297e+00
-4.099982e+00
-4.741348e+00
-5.418949e+00
-6.132239e+00
-6.884008e+00
-7.672810e+00
-8.500576e+00
-9.366919e+00
-1.027230e+01
-1.121719e+01
-1.220115e+01
-1.322483e+01
-1.428855e+01
-1.539292e+01
-1.653738e+01
-1.772040e+01
-1.894312e+01
-2.020998e+01
-2.152995e+01
-2.291107e+01
-2.437298e+01
-2.593263e+01
-2.774134e+01
-3.028187e+01
0.000000e+00
-1.791801e-01
-5.054239e-01
-8.907215e-01
-1.325822e+00
-1.789414e+00
-2.296521e+00
-2.836160e+00
-3.408974e+00
-4.016819e+00
-4.657115e+00
-5.335256e+00
-6.048200e+00
-6.799943e+00
-7.588946e+00
-8.416359e+00
-9.282983e+00
-1.018815e+01
-1.113315e+01
-1.211711e+01
-1.314073e+01
-1.420429e+01
-1.530879e+01
-1.645361e+01
-1.763657e+01
-1.885889e+01
-2.012421e+01
-2.144276e+01
-2.282447e+01
-2.427823e+01
-2.585743e+01
-2.765275e+01
-2.990598e+01
0.000000e+00
-1.575094e-01
-4.468385e-01
-8.339923e-01
-1.259064e+00
-1.720467e+00
-2.225887e+00
-2.763555e+00
-3.337219e+00
-3.944188e+00
-4.585204e+00
-5.263353e+00
-5.976890e+00
-6.728541e+00
-7.518046e+00
-8.345519e+00
-9.212184e+00
-1.011752e+01
-1.106230e+01
-1.204632e+01
-1.306995e+01
-1.413296e+01
-1.523667e+01
-1.638076e+01
-1.756456e+01
-1.878933e+01
-2.005670e+01
-2.137998e+01
-2.276587e+01
-2.424008e+01
-2.586146e+01
-2.754710e+01
-2.929706e+01
0.000000e+00
-2.011143e-01
-4.465540e-01
-8.290128e-01
-1.223300e+00
-1.674715e+00
-2.178355e+00
-2.704773e+00
-3.282981e+00
-3.885303e+00
-4.528148e+00
-5.206461e+00
-5.919591e+00
-6.672548e+00
-7.461240e+00
-8.289662e+00
-9.155744e+00
-1.006118e+01
-1.100580e+01
-1.198939e+01
-1.301345e+01
-1.407583e+01
-1.517896e+01
-1.632330e+01
-1.750913e+01
-1.873948e+01
-2.001295e+01
-2.134333e+01
-2.273838e+01
-2.423109e+01
-2.584576e+01
-2.739595e+01
-2.879637e+01
0.000000e+00
-2.178266e-01
-4.837540e-01
-8.255641e-01
-1.221079e+00
-1.655111e+00
-2.149315e+00
-2.670407e+00
-3.243502e+00
-3.845678e+00
-4.486972e+00
-5.166717e+00
-5.879079e+00
-6.633478e+00
-7.421704e+00
-8.250582e+00
-9.116608e+00
-1.002174e+01
-1.096651e+01
-1.194991e+01
-1.297428e+01
-1.403724e+01
-1.514144e+01
-1.628727e+01
-1.747646e+01
-1.871031e+01
-1.999122e+01
-2.132576e+01
-2.272306e+01
-2.421004e+01
-2.574711e+01
-2.719440e+01
-2.845915e+01
0.000000e+00
-2.249717e-01
-4.998614e-01
-8.313641e-01
-1.215713e+00
-1.648192e+00
-2.128220e+00
-2.650630e+00
-3.215110e+00
-3.818264e+00
-4.458766e+00
-5.137338e+00
-5.852328e+00
-6.605175e+00
-7.395469e+00
-8.223748e+00
-9.090577e+00
-9.996182e+00
-1.094131e+01
-1.192614e+01
-1.295125e+01
-1.401668e+01
-1.512320e+01
-1.627185e+01
-1.746359e+01
-1.869944e+01
-1.998255e+01
-2.131698e+01
-2.270254e+01
-2.415000e+01
-2.559247e+01
-2.695986e+01
-2.816105e+01
0.000000e+00
-2.286889e-01
-5.059950e-01
-8.345882e-01
-1.214044e+00
-1.642388e+00
-2.117531e+00
-2.637027e+00
-3.198787e+00
-3.800665e+00
-4.441302e+00
-5.119794e+00
-5.835765e+00
-6.589147e+00
-7.380126e+00
-8.209107e+00
-9.076576e+00
-9.983146e+00
-1.092937e+01
-1.191579e+01
-1.294285e+01
-1.401085e+01
-1.512021e+01
-1.627138e+01
-1.746500e+01
-1.870114e+01
-1.998022e+01
-2.131053e+01
-2.266518e+01
-2.406119e+01
-2.543666e+01
-2.673553e+01
-2.787493e+01
0.000000e+00
-2.300824e-01
-5.082949e-01
-8.360596e-01
-1.213545e+00
-1.639701e+00
-2.112799e+00
-2.630779e+00
-3.191550e+00
-3.793190e+00
-4.434134e+00
-5.113338e+00
-5.830169e+00
-6.584416e+00
-7.376191e+00
-8.205934e+00
-9.074287e+00
-9.981895e+00
-1.092939e+01
-1.191742e+01
-1.294653e+01
-1.401697e+01
-1.512860e+01
-1.628153e+01
-1.747551e+01
-1.871110e+01
-1.998188e+01
-2.129305e+01
-2.261399e+01
-2.395689e+01
-2.528333e+01
-2.652361e+01
-2.760664e+01
0.000000e+00
-2.303623e-01
-5.088680e-01
-8.366472e-01
-1.213953e+00
-1.639971e+00
-2.113107e+00
-2.631368e+00
-3.192689e+00
-3.795145e+00
-4.437129e+00
-5.117464e+00
-5.835439e+00
-6.590721e+00
-7.383349e+00
-8.213865e+00
-9.083138e+00
-9.991828e+00
-1.094041e+01
-1.192962e+01
-1.296028e+01
-1.403246e+01
-1.514564e+01
-1.629865e+01
-1.749257e+01
-1.872265e+01
-1.997864e+01
-2.126120e+01
-2.255759e+01
-2.385008e+01
-2.511739e+01
-2.628369e+01
-2.727937e+01
0.000000e+00
-2.298916e-01
-5.082877e-01
-8.366739e-01
-1.215306e+00
-1.643134e+00
-2.118308e+00
-2.638639e+00
-3.201953e+00
-3.806287e+00
-4.449981e+00
-5.131833e+00
-5.851165e+00
-6.607665e+00
-7.401202e+00
-8.232414e+00
-9.102719e+00
-1.001257e+01
-1.096196e+01
-1.195148e+01
-1.298259e+01
-1.405561e+01
-1.516811e+01
-1.632209e+01
-1.750863e+01
-1.872712e+01
-1.996645e+01
-2.122603e+01
-2.249344e+01
-2.374850e+01
-2.495277e+01
-2.605419e+01
-2.701371e+01
0.000000e+00
-2.283670e-01
-5.060262e-01
-8.358305e-01
-1.217633e+00
-1.649415e+00
-2.128781e+00
-2.652955e+00
-3.219642e+00
-3.826724e+00
-4.472600e+00
-5.156055e+00
-5.876706e+00
-6.634492e+00
-7.428982e+00
-8.261157e+00
-9.132810e+00
-1.004398e+01
-1.099382e+01
-1.198282e+01
-1.301262e+01
-1.408446e+01
-1.519494e+01
-1.634277e+01
-1.751955e+01
-1.872374e+01
-1.995179e+01
-2.119020e+01
-2.243112e+01
-2.364636e+01
-2.480500e+01
-2.587371e+01
-2.682158e+01
0.000000e+00
-2.245854e-01
-5.000200e-01
-8.332693e-01
-1.221210e+00
-1.659363e+00
-2.145608e+00
-2.675244e+00
-3.246655e+00
-3.857130e+00
-4.505173e+00
-5.190196e+00
-5.911514e+00
-6.670281e+00
-7.465752e+00
-8.299524e+00
-9.173040e+00
-1.008492e+01
-1.103469e+01
-1.202240e+01
-1.304905e+01
-1.411658e+01
-1.522093e+01
-1.635929e+01
-1.752688e+01
-1.872147e+01
-1.993787e+01
-2.116309e+01
-2.237698e+01
-2.356252e+01
-2.469195e+01
-2.574431e+01
-2.669571e+01
0.000000e+00
-2.172356e-01
-4.840009e-01
-8.283312e-01
-1.228626e+00
-1.671906e+00
-2.172868e+00
-2.705495e+00
-3.285161e+00
-3.897656e+00
-4.547799e+00
-5.234657e+00
-5.955302e+00
-6.716209e+00
-7.512112e+00
-8.348853e+00
-9.223133e+00
-1.013421e+01
-1.108231e+01
-1.206676e+01
-1.308952e+01
-1.415039e+01
-1.524658e+01
-1.637607e+01
-1.753697e+01
-1.872741e+01
-1.993725e+01
-2.114784e+01
-2.234178e+01
-2.350230e+01
-2.461299e+01
-2.565828e+01
-2.662419e+01
0.000000e+00
-1.996411e-01
-4.462475e-01
-8.323937e-01
-1.234383e+00
-1.696311e+00
-2.211143e+00
-2.747909e+00
-3.335806e+00
-3.947862e+00
-4.600230e+00
-5.286497e+00
-6.008958e+00
-6.771285e+00
-7.570229e+00
-8.408574e+00
-9.282449e+00
-1.019186e+01
-1.113700e+01
-1.211776e+01
-1.313516e+01
-1.418840e+01
-1.527592e+01
-1.639908e+01
-1.756065e+01
-1.875043e+01
-1.995332e+01
-2.114844e+01
-2.232397e+01
-2.346609e+01
-2.456325e+01
-2.560707e+01
-2.659326e+01
0.000000e+00
-1.546686e-01
-4.446678e-01
-8.361083e-01
-1.271158e+00
-1.744551e+00
-2.262872e+00
-2.811477e+00
-3.395557e+00
-4.011571e+00
-4.661027e+00
-5.347488e+00
-6.071226e+00
-6.834695e+00
-7.636265e+00
-8.474217e+00
-9.347591e+00
-1.025545e+01
-1.119901e+01
-1.217698e+01
-1.318972e+01
-1.423647e+01
-1.531746e+01
-1.644144e+01
-1.760468e+01
-1.879107e+01
-1.998102e+01
-2.116223e+01
-2.232244e+01
-2.345038e+01
-2.453756e+01
-2.558140e+01
-2.658802e+01
0.000000e+00
-1.759385e-01
-5.025250e-01
-8.927247e-01
-1.338105e+00
-1.814504e+00
-2.334490e+00
-2.885852e+00
-3.468775e+00
-4.085750e+00
-4.733735e+00
-5.420229e+00
-6.143865e+00
-6.908037e+00
-7.709898e+00
-8.547457e+00
-9.419845e+00
-1.032654e+01
-1.126899e+01
-1.224558e+01
-1.325635e+01
-1.430025e+01
-1.538156e+01
-1.650618e+01
-1.766540e+01
-1.884025e+01
-2.001725e+01
-2.118536e+01
-2.233300e+01
-2.344984e+01
-2.452923e+01
-2.557216e+01
-2.659273e+01
0.000000e+00
-2.755631e-01
-5.838296e-01
-9.811729e-01
-1.419684e+00
-1.898785e+00
-2.418629e+00
-2.968263e+00
-3.552825e+00
-4.168507e+00
-4.817737e+00
-5.503920e+00
-6.227638e+00
-6.991453e+00
-7.792441e+00
-8.629677e+00
-9.501387e+00
-1.040781e+01
-1.134940e+01
-1.232555e+01
-1.333572e+01
-1.438012e+01