TITLE = "Solution"
VARIABLES = x, y, u, v, psiu, psiv, t, stress
ZONE T="structure" N=561 E=512 F=FEBLOCK ET=QUADRILATERAL VARLOCATION=([7,8]=cellcentered)
0.000000e+00
6.250000e+00
1.250000e+01
1.875000e+01
2.500000e+01
3.125000e+01
3.750000e+01
4.375000e+01
5.000000e+01
5.625000e+01
6.250000e+01
6.875000e+01
7.500000e+01
8.125000e+01
8.750000e+01
9.375000e+01
1.000000e+02
1.062500e+02
1.125000e+02
1.187500e+02
1.250000e+02
1.312500e+02
1.375000e+02
1.437500e+02
1.500000e+02
1.562500e+02
1.625000e+02
1.687500e+02
1.750000e+02
1.812500e+02
1.875000e+02
1.937500e+02
2.000000e+02
0.000000e+00
6.250000e+00
1.250000e+01
1.875000e+01
2.500000e+01
3.125000e+01
3.750000e+01
4.375000e+01
5.000000e+01
5.625000e+01
6.250000e+01
6.875000e+01
7.500000e+01
8.125000e+01
8.750000e+01
9.375000e+01
1.000000e+02
1.062500e+02
1.125000e+02
1.187500e+02
1.250000e+02
1.312500e+02
1.375000e+02
1.437500e+02
1.500000e+02
1.562500e+02
1.625000e+02
1.687500e+02
1.750000e+02
1.812500e+02
1.875000e+02
1.937500e+02
2.000000e+02
0.000000e+00
6.250000e+00
1.250000e+01
1.875000e+01
2.500000e+01
3.125000e+01
3.750000e+01
4.375000e+01
5.000000e+01
5.625000e+01
6.250000e+01
6.875000e+01
7.500000e+01
8.125000e+01
8.750000e+01
9.375000e+01
1.000000e+02
1.062500e+02
1.125000e+02
1.187500e+02
1.250000e+02
1.312500e+02
1.375000e+02
1.437500e+02
1.500000e+02
1.562500e+02
1.625000e+02
1.687500e+02
1.750000e+02
1.812500e+02
1.875000e+02
1.937500e+02
2.000000e+02
0.000000e+00
6.250000e+00
1.250000e+01
1.875000e+01
2.500000e+01
3.125000e+01
3.750000e+01
4.375000e+01
5.000000e+01
5.625000e+01
6.250000e+01
6.875000e+01
7.500000e+01
8.125000e+01
8.750000e+01
9.375000e+01
1.000000e+02
1.062500e+02
1.125000e+02
1.187500e+02
1.250000e+02
1.312500e+02
1.375000e+02
1.437500e+02
1.500000e+02
1.562500e+02
1.625000e+02
1.687500e+02
1.750000e+02
1.812500e+02
1.875000e+02
1.937500e+02
2.000000e+02
0.000000e+00
6.250000e+00
1.250000e+01
1.875000e+01
2.500000e+01
3.125000e+01
3.750000e+01
4.375000e+01
5.000000e+01
5.625000e+01
6.250000e+01
6.875000e+01
7.500000e+01
8.125000e+01
8.750000e+01
9.375000e+01
1.000000e+02
1.062500e+02
1.125000e+02
1.187500e+02
1.250000e+02
1.312500e+02
1.375000e+02
1.437500e+02
1.500000e+02
1.562500e+02
1.625000e+02
1.687500e+02
1.750000e+02
1.812500e+02
1.875000e+02
1.937500e+02
2.000000e+02
0.000000e+00
6.250000e+00
1.250000e+01
1.875000e+01
2.500000e+01
3.125000e+01
3.750000e+01
4.375000e+01
5.000000e+01
5.625000e+01
6.250000e+01
6.875000e+01
7.500000e+01
8.125000e+01
8.750000e+01
9.375000e+01
1.000000e+02
1.062500e+02
1.125000e+02
1.187500e+02
1.250000e+02
1.312500e+02
1.375000e+02
1.437500e+02
1.500000e+02
1.562500e+02
1.625000e+02
1.687500e+02
1.750000e+02
1.812500e+02
1.875000e+02
1.937500e+02
2.000000e+02
0.000000e+00
6.250000e+00
1.250000e+01
1.875000e+01
2.500000e+01
3.125000e+01
3.750000e+01
4.375000e+01
5.000000e+01
5.625000e+01
6.250000e+01
6.875000e+01
7.500000e+01
8.125000e+01
8.750000e+01
9.375000e+01
1.000000e+02
1.062500e+02
1.125000e+02
1.187500e+02
1.250000e+02
1.312500e+02
1.375000e+02
1.437500e+02
1.500000e+02
1.562500e+02
1.625000e+02
1.687500e+02
1.750000e+02
1.812500e+02
1.875000e+02
1.937500e+02
2.000000e+02
0.000000e+00
6.250000e+00
1.250000e+01
1.875000e+01
2.500000e+01
3.125000e+01
3.750000e+01
4.375000e+01
5.000000e+01
5.625000e+01
6.250000e+01
6.875000e+01
7.500000e+01
8.125000e+01
8.750000e+01
9.375000e+01
1.000000e+02
1.062500e+02
1.125000e+02
1.187500e+02
1.250000e+02
1.312500e+02
1.375000e+02
1.437500e+02
1.500000e+02
1.562500e+02
1.625000e+02
1.687500e+02
1.750000e+02
1.812500e+02
1.875000e+02
1.937500e+02
2.000000e+02
0.000000e+00
6.250000e+00
1.250000e+01
1.875000e+01
2.500000e+01
3.125000e+01
3.750000e+01
4.375000e+01
5.000000e+01
5.625000e+01
6.250000e+01
6.875000e+01
7.500000e+01
8.125000e+01
8.750000e+01
9.375000e+01
1.000000e+02
1.062500e+02
1.125000e+02
1.187500e+02
1.250000e+02
1.312500e+02
1.375000e+02
1.437500e+02
1.500000e+02
1.562500e+02
1.625000e+02
1.687500e+02
1.750000e+02
1.812500e+02
1.875000e+02
1.937500e+02
2.000000e+02
0.000000e+00
6.250000e+00
1.250000e+01
1.875000e+01
2.500000e+01
3.125000e+01
3.750000e+01
4.375000e+01
5.000000e+01
5.625000e+01
6.250000e+01
6.875000e+01
7.500000e+01
8.125000e+01
8.750000e+01
9.375000e+01
1.000000e+02
1.062500e+02
1.125000e+02
1.187500e+02
1.250000e+02
1.312500e+02
1.375000e+02
1.437500e+02
1.500000e+02
1.562500e+02
1.625000e+02
1.687500e+02
1.750000e+02
1.812500e+02
1.875000e+02
1.937500e+02
2.000000e+02
0.000000e+00
6.250000e+00
1.250000e+01
1.875000e+01
2.500000e+01
3.125000e+01
3.750000e+01
4.375000e+01
5.000000e+01
5.625000e+01
6.250000e+01
6.875000e+01
7.500000e+01
8.125000e+01
8.750000e+01
9.375000e+01
1.000000e+02
1.062500e+02
1.125000e+02
1.187500e+02
1.250000e+02
1.312500e+02
1.375000e+02
1.437500e+02
1.500000e+02
1.562500e+02
1.625000e+02
1.687500e+02
1.750000e+02
1.812500e+02
1.875000e+02
1.937500e+02
2.000000e+02
0.000000e+00
6.250000e+00
1.250000e+01
1.875000e+01
2.500000e+01
3.125000e+01
3.750000e+01
4.375000e+01
5.000000e+01
5.625000e+01
6.250000e+01
6.875000e+01
7.500000e+01
8.125000e+01
8.750000e+01
9.375000e+01
1.000000e+02
1.062500e+02
1.125000e+02
1.187500e+02
1.250000e+02
1.312500e+02
1.375000e+02
1.437500e+02
1.500000e+02
1.562500e+02
1.625000e+02
1.687500e+02
1.750000e+02
1.812500e+02
1.875000e+02
1.937500e+02
2.000000e+02
0.000000e+00
6.250000e+00
1.250000e+01
1.875000e+01
2.500000e+01
3.125000e+01
3.750000e+01
4.375000e+01
5.000000e+01
5.625000e+01
6.250000e+01
6.875000e+01
7.500000e+01
8.125000e+01
8.750000e+01
9.375000e+01
1.000000e+02
1.062500e+02
1.125000e+02
1.187500e+02
1.250000e+02
1.312500e+02
1.375000e+02
1.437500e+02
1.500000e+02
1.562500e+02
1.625000e+02
1.687500e+02
1.750000e+02
1.812500e+02
1.875000e+02
1.937500e+02
2.000000e+02
0.000000e+00
6.250000e+00
1.250000e+01
1.875000e+01
2.500000e+01
3.125000e+01
3.750000e+01
4.375000e+01
5.000000e+01
5.625000e+01
6.250000e+01
6.875000e+01
7.500000e+01
8.125000e+01
8.750000e+01
9.375000e+01
1.000000e+02
1.062500e+02
1.125000e+02
1.187500e+02
1.250000e+02
1.312500e+02
1.375000e+02
1.437500e+02
1.500000e+02
1.562500e+02
1.625000e+02
1.687500e+02
1.750000e+02
1.812500e+02
1.875000e+02
1.937500e+02
2.000000e+02
0.000000e+00
6.250000e+00
1.250000e+01
1.875000e+01
2.500000e+01
3.125000e+01
3.750000e+01
4.375000e+01
5.000000e+01
5.625000e+01
6.250000e+01
6.875000e+01
7.500000e+01
8.125000e+01
8.750000e+01
9.375000e+01
1.000000e+02
1.062500e+02
1.125000e+02
1.187500e+02
1.250000e+02
1.312500e+02
1.375000e+02
1.437500e+02
1.500000e+02
1.562500e+02
1.625000e+02
1.687500e+02
1.750000e+02
1.812500e+02
1.875000e+02
1.937500e+02
2.000000e+02
0.000000e+00
6.250000e+00
1.250000e+01
1.875000e+01
2.500000e+01
3.125000e+01
3.750000e+01
4.375000e+01
5.000000e+01
5.625000e+01
6.250000e+01
6.875000e+01
7.500000e+01
8.125000e+01
8.750000e+01
9.375000e+01
1.000000e+02
1.062500e+02
1.125000e+02
1.187500e+02
1.250000e+02
1.312500e+02
1.375000e+02
1.437500e+02
1.500000e+02
1.562500e+02
1.625000e+02
1.687500e+02
1.750000e+02
1.812500e+02
1.875000e+02
1.937500e+02
2.000000e+02
0.000000e+00
6.250000e+00
1.250000e+01
1.875000e+01
2.500000e+01
3.125000e+01
3.750000e+01
4.375000e+01
5.000000e+01
5.625000e+01
6.250000e+01
6.875000e+01
7.500000e+01
8.125000e+01
8.750000e+01
9.375000e+01
1.000000e+02
1.062500e+02
1.125000e+02
1.187500e+02
1.250000e+02
1.312500e+02
1.375000e+02
1.437500e+02
1.500000e+02
1.562500e+02
1.625000e+02
1.687500e+02
1.750000e+02
1.812500e+02
1.875000e+02
1.937500e+02
2.000000e+02
0.000000e+00
0.000000e+00
0.000000e+00
0.000000e+00
0.000000e+00
0.000000e+00
0.000000e+00
0.000000e+00
0.000000e+00
0.000000e+00
0.000000e+00
0.000000e+00
0.000000e+00
0.000000e+00
0.000000e+00
0.000000e+00
0.000000e+00
0.000000e+00
0.000000e+00
0.000000e+00
0.000000e+00
0.000000e+00
0.000000e+00
0.000000e+00
0.000000e+00
0.000000e+00
0.000000e+00
0.000000e+00
0.000000e+00
0.000000e+00
0.000000e+00
0.000000e+00
0.000000e+00
6.250000e+00
6.250000e+00
6.250000e+00
6.250000e+00
6.250000e+00
6.250000e+00
6.250000e+00
6.250000e+00
6.250000e+00
6.250000e+00
6.250000e+00
6.250000e+00
6.250000e+00
6.250000e+00
6.250000e+00
6.250000e+00
6.250000e+00
6.250000e+00
6.250000e+00
6.250000e+00
6.250000e+00
6.250000e+00
6.250000e+00
6.250000e+00
6.250000e+00
6.250000e+00
6.250000e+00
6.250000e+00
6.250000e+00
6.250000e+00
6.250000e+00
6.250000e+00
6.250000e+00
1.250000e+01
1.250000e+01
1.250000e+01
1.250000e+01
1.250000e+01
1.250000e+01
1.250000e+01
1.250000e+01
1.250000e+01
1.250000e+01
1.250000e+01
1.250000e+01
1.250000e+01
1.250000e+01
1.250000e+01
1.250000e+01
1.250000e+01
1.250000e+01
1.250000e+01
1.250000e+01
1.250000e+01
1.250000e+01
1.250000e+01
1.250000e+01
1.250000e+01
1.250000e+01
1.250000e+01
1.250000e+01
1.250000e+01
1.250000e+01
1.250000e+01
1.250000e+01
1.250000e+01
1.875000e+01
1.875000e+01
1.875000e+01
1.875000e+01
1.875000e+01
1.875000e+01
1.875000e+01
1.875000e+01
1.875000e+01
1.875000e+01
1.875000e+01
1.875000e+01
1.875000e+01
1.875000e+01
1.875000e+01
1.875000e+01
1.875000e+01
1.875000e+01
1.875000e+01
1.875000e+01
1.875000e+01
1.875000e+01
1.875000e+01
1.875000e+01
1.875000e+01
1.875000e+01
1.875000e+01
1.875000e+01
1.875000e+01
1.875000e+01
1.875000e+01
1.875000e+01
1.875000e+01
2.500000e+01
2.500000e+01
2.500000e+01
2.500000e+01
2.500000e+01
2.500000e+01
2.500000e+01
2.500000e+01
2.500000e+01
2.500000e+01
2.500000e+01
2.500000e+01
2.500000e+01
2.500000e+01
2.500000e+01
2.500000e+01
2.500000e+01
2.500000e+01
2.500000e+01
2.500000e+01
2.500000e+01
2.500000e+01
2.500000e+01
2.500000e+01
2.500000e+01
2.500000e+01
2.500000e+01
2.500000e+01
2.500000e+01
2.500000e+01
2.500000e+01
2.500000e+01
2.500000e+01
3.125000e+01
3.125000e+01
3.125000e+01
3.125000e+01
3.125000e+01
3.125000e+01
3.125000e+01
3.125000e+01
3.125000e+01
3.125000e+01
3.125000e+01
3.125000e+01
3.125000e+01
3.125000e+01
3.125000e+01
3.125000e+01
3.125000e+01
3.125000e+01
3.125000e+01
3.125000e+01
3.125000e+01
3.125000e+01
3.125000e+01
3.125000e+01
3.125000e+01
3.125000e+01
3.125000e+01
3.125000e+01
3.125000e+01
3.125000e+01
3.125000e+01
3.125000e+01
3.125000e+01
3.750000e+01
3.750000e+01
3.750000e+01
3.750000e+01
3.750000e+01
3.750000e+01
3.750000e+01
3.750000e+01
3.750000e+01
3.750000e+01
3.750000e+01
3.750000e+01
3.750000e+01
3.750000e+01
3.750000e+01
3.750000e+01
3.750000e+01
3.750000e+01
3.750000e+01
3.750000e+01
3.750000e+01
3.750000e+01
3.750000e+01
3.750000e+01
3.750000e+01
3.750000e+01
3.750000e+01
3.750000e+01
3.750000e+01
3.750000e+01
3.750000e+01
3.750000e+01
3.750000e+01
4.375000e+01
4.375000e+01
4.375000e+01
4.375000e+01
4.375000e+01
4.375000e+01
4.375000e+01
4.375000e+01
4.375000e+01
4.375000e+01
4.375000e+01
4.375000e+01
4.375000e+01
4.375000e+01
4.375000e+01
4.375000e+01
4.375000e+01
4.375000e+01
4.375000e+01
4.375000e+01
4.375000e+01
4.375000e+01
4.375000e+01
4.375000e+01
4.375000e+01
4.375000e+01
4.375000e+01
4.375000e+01
4.375000e+01
4.375000e+01
4.375000e+01
4.375000e+01
4.375000e+01
5.000000e+01
5.000000e+01
5.000000e+01
5.000000e+01
5.000000e+01
5.000000e+01
5.000000e+01
5.000000e+01
5.000000e+01
5.000000e+01
5.000000e+01
5.000000e+01
5.000000e+01
5.000000e+01
5.000000e+01
5.000000e+01
5.000000e+01
5.000000e+01
5.000000e+01
5.000000e+01
5.000000e+01
5.000000e+01
5.000000e+01
5.000000e+01
5.000000e+01
5.000000e+01
5.000000e+01
5.000000e+01
5.000000e+01
5.000000e+01
5.000000e+01
5.000000e+01
5.000000e+01
5.625000e+01
5.625000e+01
5.625000e+01
5.625000e+01
5.625000e+01
5.625000e+01
5.625000e+01
5.625000e+01
5.625000e+01
5.625000e+01
5.625000e+01
5.625000e+01
5.625000e+01
5.625000e+01
5.625000e+01
5.625000e+01
5.625000e+01
5.625000e+01
5.625000e+01
5.625000e+01
5.625000e+01
5.625000e+01
5.625000e+01
5.625000e+01
5.625000e+01
5.625000e+01
5.625000e+01
5.625000e+01
5.625000e+01
5.625000e+01
5.625000e+01
5.625000e+01
5.625000e+01
6.250000e+01
6.250000e+01
6.250000e+01
6.250000e+01
6.250000e+01
6.250000e+01
6.250000e+01
6.250000e+01
6.250000e+01
6.250000e+01
6.250000e+01
6.250000e+01
6.250000e+01
6.250000e+01
6.250000e+01
6.250000e+01
6.250000e+01
6.250000e+01
6.250000e+01
6.250000e+01
6.250000e+01
6.250000e+01
6.250000e+01
6.250000e+01
6.250000e+01
6.250000e+01
6.250000e+01
6.250000e+01
6.250000e+01
6.250000e+01
6.250000e+01
6.250000e+01
6.250000e+01
6.875000e+01
6.875000e+01
6.875000e+01
6.875000e+01
6.875000e+01
6.875000e+01
6.875000e+01
6.875000e+01
6.875000e+01
6.875000e+01
6.875000e+01
6.875000e+01
6.875000e+01
6.875000e+01
6.875000e+01
6.875000e+01
6.875000e+01
6.875000e+01
6.875000e+01
6.875000e+01
6.875000e+01
6.875000e+01
6.875000e+01
6.875000e+01
6.875000e+01
6.875000e+01
6.875000e+01
6.875000e+01
6.875000e+01
6.875000e+01
6.875000e+01
6.875000e+01
6.875000e+01
7.500000e+01
7.500000e+01
7.500000e+01
7.500000e+01
7.500000e+01
7.500000e+01
7.500000e+01
7.500000e+01
7.500000e+01
7.500000e+01
7.500000e+01
7.500000e+01
7.500000e+01
7.500000e+01
7.500000e+01
7.500000e+01
7.500000e+01
7.500000e+01
7.500000e+01
7.500000e+01
7.500000e+01
7.500000e+01
7.500000e+01
7.500000e+01
7.500000e+01
7.500000e+01
7.500000e+01
7.500000e+01
7.500000e+01
7.500000e+01
7.500000e+01
7.500000e+01
7.500000e+01
8.125000e+01
8.125000e+01
8.125000e+01
8.125000e+01
8.125000e+01
8.125000e+01
8.125000e+01
8.125000e+01
8.125000e+01
8.125000e+01
8.125000e+01
8.125000e+01
8.125000e+01
8.125000e+01
8.125000e+01
8.125000e+01
8.125000e+01
8.125000e+01
8.125000e+01
8.125000e+01
8.125000e+01
8.125000e+01
8.125000e+01
8.125000e+01
8.125000e+01
8.125000e+01
8.125000e+01
8.125000e+01
8.125000e+01
8.125000e+01
8.125000e+01
8.125000e+01
8.125000e+01
8.750000e+01
8.750000e+01
8.750000e+01
8.750000e+01
8.750000e+01
8.750000e+01
8.750000e+01
8.750000e+01
8.750000e+01
8.750000e+01
8.750000e+01
8.750000e+01
8.750000e+01
8.750000e+01
8.750000e+01
8.750000e+01
8.750000e+01
8.750000e+01
8.750000e+01
8.750000e+01
8.750000e+01
8.750000e+01
8.750000e+01
8.750000e+01
8.750000e+01
8.750000e+01
8.750000e+01
8.750000e+01
8.750000e+01
8.750000e+01
8.750000e+01
8.750000e+01
8.750000e+01
9.375000e+01
9.375000e+01
9.375000e+01
9.375000e+01
9.375000e+01
9.375000e+01
9.375000e+01
9.375000e+01
9.375000e+01
9.375000e+01
9.375000e+01
9.375000e+01
9.375000e+01
9.375000e+01
9.375000e+01
9.375000e+01
9.375000e+01
9.375000e+01
9.375000e+01
9.375000e+01
9.375000e+01
9.375000e+01
9.375000e+01
9.375000e+01
9.375000e+01
9.375000e+01
9.375000e+01
9.375000e+01
9.375000e+01
9.375000e+01
9.375000e+01
9.375000e+01
9.375000e+01
1.000000e+02
1.000000e+02
1.000000e+02
1.000000e+02
1.000000e+02
1.000000e+02
1.000000e+02
1.000000e+02
1.000000e+02
1.000000e+02
1.000000e+02
1.000000e+02
1.000000e+02
1.000000e+02
1.000000e+02
1.000000e+02
1.000000e+02
1.000000e+02
1.000000e+02
1.000000e+02
1.000000e+02
1.000000e+02
1.000000e+02
1.000000e+02
1.000000e+02
1.000000e+02
1.000000e+02
1.000000e+02
1.000000e+02
1.000000e+02
1.000000e+02
1.000000e+02
1.000000e+02
0.000000e+00
-4.138932e-02
-7.509542e-02
-1.063194e-01
-1.362855e-01
-1.652224e-01
-1.931882e-01
-2.201802e-01
-2.461816e-01
-2.711734e-01
-2.951399e-01
-3.180704e-01
-3.399593e-01
-3.608061e-01
-3.806156e-01
-3.993984e-01
-4.171712e-01
-4.339585e-01
-4.497940e-01
-4.647234e-01
-4.788072e-01
-4.921258e-01
-5.047852e-01
-5.169263e-01
-5.287376e-01
-5.404754e-01
-5.524957e-01
-5.653060e-01
-5.796511e-01
-5.966267e-01
-6.176544e-01
-6.427137e-01
-6.580070e-01
0.000000e+00
-2.775043e-02
-5.773775e-02
-8.601183e-02
-1.128853e-01
-1.386139e-01
-1.633337e-01
-1.871042e-01
-2.099490e-01
-2.318758e-01
-2.528862e-01
-2.729801e-01
-2.921585e-01
-3.104244e-01
-3.277840e-01
-3.442468e-01
-3.598270e-01
-3.745437e-01
-3.884225e-01
-4.014965e-01
-4.138078e-01
-4.254099e-01
-4.363687e-01
-4.467651e-01
-4.566958e-01
-4.662719e-01
-4.756107e-01
-4.848089e-01
-4.938658e-01
-5.024868e-01
-5.096704e-01
-5.138703e-01
-5.197172e-01
0.000000e+00
-2.201171e-02
-4.531639e-02
-6.904427e-02
-9.210042e-02
-1.143069e-01
-1.356495e-01
-1.561485e-01
-1.758220e-01
-1.946824e-01
-2.127377e-01
-2.299936e-01
-2.464547e-01
-2.621260e-01
-2.770133e-01
-2.911238e-01
-3.044667e-01
-3.170535e-01
-3.288982e-01
-3.400179e-01
-3.504320e-01
-3.601615e-01
-3.692271e-01
-3.776450e-01
-3.854184e-01
-3.925225e-01
-3.988759e-01
-4.042917e-01
-4.084036e-01
-4.106178e-01
-4.104236e-01
-4.091803e-01
-4.160080e-01
0.000000e+00
-1.746434e-02
-3.589319e-02
-5.482654e-02
-7.371552e-02
-9.214697e-02
-1.099630e-01
-1.271071e-01
-1.435639e-01
-1.593327e-01
-1.744175e-01
-1.888235e-01
-2.025554e-01
-2.156177e-01
-2.280141e-01
-2.397482e-01
-2.508231e-01
-2.612418e-01
-2.710063e-01
-2.801172e-01
-2.885722e-01
-2.963635e-01
-3.034739e-01
-3.098702e-01
-3.154935e-01
-3.202444e-01
-3.239656e-01
-3.264300e-01
-3.273709e-01
-3.266724e-01
-3.249759e-01
-3.248746e-01
-3.313797e-01
0.000000e+00
-1.355476e-02
-2.775554e-02
-4.240994e-02
-5.718340e-02
-7.177566e-02
-8.598539e-02
-9.971064e-02
-1.129051e-01
-1.255509e-01
-1.376433e-01
-1.491831e-01
-1.601724e-01
-1.706130e-01
-1.805057e-01
-1.898495e-01
-1.986415e-01
-2.068765e-01
-2.145459e-01
-2.216368e-01
-2.281303e-01
-2.339985e-01
-2.392014e-01
-2.436817e-01
-2.473604e-01
-2.501332e-01
-2.518780e-01
-2.524901e-01
-2.519880e-01
-2.507593e-01
-2.499622e-01
-2.518030e-01
-2.573521e-01
0.000000e+00
-9.961963e-03
-2.035073e-02
-3.107326e-02
-4.194428e-02
-5.276086e-02
-6.336189e-02
-7.364267e-02
-8.354571e-02
-9.304308e-02
-1.021230e-01
-1.107812e-01
-1.190164e-01
-1.268269e-01
-1.342100e-01
-1.411603e-01
-1.476695e-01
-1.537257e-01
-1.593127e-01
-1.644085e-01
-1.689844e-01
-1.730034e-01
-1.764184e-01
-1.791722e-01
-1.811994e-01
-1.824363e-01
-1.828467e-01
-1.824784e-01
-1.815707e-01
-1.807071e-01
-1.809174e-01
-1.832640e-01
-1.878555e-01
0.000000e+00
-6.556169e-03
-1.337167e-02
-2.040337e-02
-2.755100e-02
-3.469426e-02
-4.172542e-02
-4.856594e-02
-5.516670e-02
-6.150057e-02
-6.755386e-02
-7.331967e-02
-7.879359e-02
-8.397106e-02
-8.884584e-02
-9.340900e-02
-9.764825e-02
-1.015473e-01
-1.050852e-01
-1.082359e-01
-1.109677e-01
-1.132437e-01
-1.150224e-01
-1.162619e-01
-1.169279e-01
-1.170105e-01
-1.165551e-01
-1.157125e-01
-1.148033e-01
-1.143625e-01
-1.150502e-01
-1.173349e-01
-1.210412e-01
0.000000e+00
-3.256447e-03
-6.636007e-03
-1.012131e-02
-1.366834e-02
-1.722105e-02
-2.072625e-02
-2.414228e-02
-2.744103e-02
-3.060529e-02
-3.362488e-02
-3.649309e-02
-3.920402e-02
-4.175096e-02
-4.412524e-02
-4.631544e-02
-4.830688e-02
-5.008117e-02
-5.161600e-02
-5.288524e-02
-5.385956e-02
-5.450809e-02
-5.480187e-02
-5.472016e-02
-5.426134e-02
-5.346044e-02
-5.241437e-02
-5.131216e-02
-5.045652e-02
-5.024218e-02
-5.104897e-02
-5.304205e-02
-5.598295e-02
0.000000e+00
-5.253954e-06
-1.139207e-05
-1.807431e-05
-2.494918e-05
-3.154277e-05
-3.714084e-05
-4.065803e-05
-4.048493e-05
-3.430409e-05
-1.886777e-05
1.026626e-05
5.904060e-05
1.352390e-04
2.488458e-04
4.123924e-04
6.412384e-04
9.536983e-04
1.370879e-03
1.916016e-03
2.613000e-03
3.483635e-03
4.543024e-03
5.792316e-03
7.208109e-03
8.728383e-03
1.023674e-02
1.155088e-02
1.242812e-02
1.260602e-02
1.188971e-02
1.026751e-02
7.995522e-03
0.000000e+00
3.246551e-03
6.614506e-03
1.008713e-02
1.362104e-02
1.716109e-02
2.065538e-02
2.406430e-02
2.736271e-02
3.053777e-02
3.358537e-02
3.650712e-02
3.930833e-02
4.199693e-02
4.458307e-02
4.707906e-02
4.949929e-02
5.186021e-02
5.417982e-02
5.647665e-02
5.876786e-02
6.106609e-02
6.337458e-02
6.568054e-02
6.794648e-02
7.010089e-02
7.203100e-02
7.358339e-02
7.458084e-02
7.486324e-02
7.435180e-02
7.311949e-02
7.143323e-02
0.000000e+00
6.548085e-03
1.335398e-02
2.037505e-02
2.751152e-02
3.464373e-02
4.166500e-02
4.849839e-02
5.509716e-02
6.143767e-02
6.751113e-02
7.331740e-02
7.886119e-02
8.414997e-02
8.919300e-02
9.400105e-02
9.858614e-02
1.029613e-01
1.071403e-01
1.111358e-01
1.149584e-01
1.186127e-01
1.220940e-01
1.253821e-01
1.284356e-01
1.311869e-01
1.335402e-01
1.353782e-01
1.365813e-01
1.370623e-01
1.368150e-01
1.359623e-01
1.347854e-01
0.000000e+00
9.956806e-03
2.033924e-02
3.105455e-02
4.191772e-02
5.272618e-02
6.331946e-02
7.359383e-02
8.349330e-02
9.299209e-02
1.020816e-01
1.107619e-01
1.190375e-01
1.269148e-01
1.344014e-01
1.415050e-01
1.482341e-01
1.545972e-01
1.606025e-01
1.662568e-01
1.715643e-01
1.765235e-01
1.811250e-01
1.853471e-01
1.891523e-01
1.924854e-01
1.952746e-01
1.974393e-01
1.989073e-01
1.996429e-01
1.996843e-01
1.991841e-01
1.984403e-01
0.000000e+00
1.355348e-02
2.775233e-02
4.240421e-02
5.717454e-02
7.176317e-02
8.596894e-02
9.969020e-02
1.128811e-01
1.255243e-01
1.376163e-01
1.491591e-01
1.601569e-01
1.706143e-01
1.805356e-01
1.899250e-01
1.987859e-01
2.071213e-01
2.149331e-01
2.222218e-01
2.289851e-01
2.352169e-01
2.409050e-01
2.460300e-01
2.505629e-01
2.544658e-01
2.576940e-01
2.602029e-01
2.619612e-01
2.629713e-01
2.632990e-01
2.631112e-01
2.627194e-01
0.000000e+00
1.746758e-02
3.589979e-02
5.483636e-02
7.372827e-02
9.216229e-02
1.099804e-01
1.271257e-01
1.435822e-01
1.593485e-01
1.744274e-01
1.888225e-01
2.025363e-01
2.155705e-01
2.279253e-01
2.395996e-01
2.505913e-01
2.608967e-01
2.705109e-01
2.794269e-01
2.876357e-01
2.951260e-01
3.018835e-01
3.078911e-01
3.131298e-01
3.175797e-01
3.212244e-01
3.240555e-01
3.260817e-01
3.273409e-01
3.279201e-01
3.279891e-01
3.278591e-01
0.000000e+00
2.201963e-02
4.533330e-02
6.907075e-02
9.213697e-02
1.143540e-01
1.357072e-01
1.562161e-01
1.758976e-01
1.947621e-01
2.128147e-01
2.300568e-01
2.464872e-01
2.621029e-01
2.768989e-01
2.908685e-01
3.040032e-01
3.162922e-01
3.277226e-01
3.382790e-01
3.479442e-01
3.566994e-01
3.645256e-01
3.714051e-01
3.773250e-01
3.822808e-01
3.862814e-01
3.893550e-01
3.915547e-01
3.929636e-01
3.937010e-01
3.939412e-01
3.939699e-01
0.000000e+00
2.776232e-02
5.776372e-02
8.605361e-02
1.129449e-01
1.386934e-01
1.634348e-01
1.872279e-01
2.100949e-01
2.320409e-01
2.530637e-01
2.731573e-01
2.923142e-01
3.105256e-01
3.277813e-01
3.440689e-01
3.593735e-01
3.736771e-01
3.869583e-01
3.991920e-01
4.103501e-01
4.204023e-01
4.293192e-01
4.370750e-01
4.436537e-01
4.490557e-01
4.533065e-01
4.564659e-01
4.586362e-01
4.599661e-01
4.606455e-01
4.608918e-01
4.609522e-01
0.000000e+00
4.140234e-02
7.512579e-02
1.063714e-01
1.363634e-01
1.653304e-01
1.933306e-01
2.203614e-01
2.464047e-01
2.714398e-01
2.954475e-01
3.184109e-01
3.403154e-01
3.611469e-01
3.808910e-01
3.995310e-01
4.170473e-01
4.334155e-01
4.486055e-01
4.625814e-01
4.753012e-01
4.867179e-01
4.967827e-01
5.054494e-01
5.126821e-01
5.184663e-01
5.228227e-01
5.258237e-01
5.276125e-01
5.284185e-01
5.285650e-01
5.284436e-01
5.283753e-01
0.000000e+00
-2.557781e-02
-4.463880e-02
-6.543893e-02
-8.860111e-02
-1.147651e-01
-1.441127e-01
-1.766950e-01
-2.124795e-01
-2.513895e-01
-2.933218e-01
-3.381578e-01
-3.857697e-01
-4.360240e-01
-4.887850e-01
-5.439158e-01
-6.012804e-01
-6.607449e-01
-7.221804e-01
-7.854651e-01
-8.504890e-01
-9.171593e-01
-9.854098e-01
-1.055214e+00
-1.126607e+00
-1.199721e+00
-1.274847e+00
-1.352552e+00
-1.433920e+00
-1.521099e+00
-1.618723e+00
-1.737728e+00
-1.902136e+00
0.000000e+00
-1.589564e-02
-3.584747e-02
-5.678791e-02
-8.027293e-02
-1.067212e-01
-1.363540e-01
-1.692214e-01
-2.052939e-01
-2.444947e-01
-2.867201e-01
-3.318505e-01
-3.797569e-01
-4.303049e-01
-4.833574e-01
-5.387761e-01
-5.964232e-01
-6.561632e-01
-7.178644e-01
-7.814021e-01
-8.466622e-01
-9.135475e-01
-9.819855e-01
-1.051942e+00
-1.123444e+00
-1.196609e+00
-1.271714e+00
-1.349309e+00
-1.430455e+00
-1.517264e+00
-1.614135e+00
-1.730490e+00
-1.884089e+00
0.000000e+00
-1.167626e-02
-2.890005e-02
-4.955484e-02
-7.308089e-02
-9.972403e-02
-1.295907e-01
-1.627087e-01
-1.990381e-01
-2.384986e-01
-2.809847e-01
-3.263759e-01
-3.745426e-01
-4.253500e-01
-4.786603e-01
-5.343349e-01
-5.922352e-01
-6.522249e-01
-7.141715e-01
-7.779492e-01
-8.434431e-01
-9.105549e-01
-9.792122e-01
-1.049382e+00
-1.121093e+00
-1.194471e+00
-1.269806e+00
-1.347658e+00
-1.429080e+00
-1.515970e+00
-1.611581e+00
-1.719750e+00
-1.839742e+00
0.000000e+00
-9.349853e-03
-2.447252e-02
-4.402588e-02
-6.724959e-02
-9.388445e-02
-1.238789e-01
-1.571824e-01
-1.937232e-01
-2.334063e-01
-2.761194e-01
-3.217390e-01
-3.701345e-01
-4.211707e-01
-4.747101e-01
-5.306143e-01
-5.887453e-01
-6.489673e-01
-7.111484e-01
-7.751639e-01
-8.409004e-01
-9.082620e-01
-9.771799e-01
-1.047626e+00
-1.119637e+00
-1.193344e+00
-1.269033e+00
-1.347223e+00
-1.428773e+00
-1.514935e+00
-1.606909e+00
-1.703913e+00
-1.794214e+00
0.000000e+00
-7.911514e-03
-2.157706e-02
-4.009967e-02
-6.279397e-02
-8.925421e-02
-1.192599e-01
-1.526716e-01
-1.893686e-01
-2.292309e-01
-2.721338e-01
-3.179482e-01
-3.665409e-01
-4.177764e-01
-4.715178e-01
-5.276276e-01
-5.859692e-01
-6.464082e-01
-7.088148e-01
-7.730661e-01
-8.390514e-01
-9.066777e-01
-9.758791e-01
-1.046630e+00
-1.118962e+00
-1.192993e+00
-1.268955e+00
-1.347222e+00
-1.428286e+00
-1.512547e+00
-1.599602e+00
-1.686255e+00
-1.764897e+00
0.000000e+00
-6.996285e-03
-1.967728e-02
-3.739782e-02
-5.958127e-02
-8.579364e-02
-1.157341e-01
-1.491886e-01
-1.859884e-01
-2.259849e-01
-2.690383e-01
-3.150115e-01
-3.637683e-01
-4.151725e-01
-4.690878e-01
-5.253783e-01
-5.839089e-01
-6.445474e-01
-7.071658e-01
-7.716436e-01
-8.378713e-01
-9.057566e-01
-9.752316e-01
-1.046263e+00
-1.118862e+00
-1.193101e+00
-1.269108e+00
-1.347049e+00
-1.427014e+00
-1.508734e+00
-1.590962e+00
-1.670761e+00
-1.743697e+00
0.000000e+00
-6.427481e-03
-1.847615e-02
-3.564156e-02
-5.742899e-02
-8.341549e-02
-1.132671e-01
-1.467257e-01
-1.835862e-01
-2.236757e-01
-2.668400e-01
-3.129346e-01
-3.618201e-01
-4.133599e-01
-4.674183e-01
-5.238610e-01
-5.825547e-01
-6.433691e-01
-7.061777e-01
-7.708605e-01
-8.373075e-01
-9.054223e-01
-9.751280e-01
-1.046372e+00
-1.119130e+00
-1.193403e+00
-1.269197e+00
-1.346470e+00
-1.424998e+00
-1.504142e+00
-1.582534e+00
-1.657912e+00
-1.727507e+00
0.000000e+00
-6.114915e-03
-1.780967e-02
-3.465187e-02
-5.619485e-02
-8.203023e-02
-1.118133e-01
-1.452646e-01
-1.821579e-01
-2.223049e-01
-2.655418e-01
-3.117192e-01
-3.606957e-01
-4.123347e-01
-4.665015e-01
-5.230631e-01
-5.818882e-01
-6.428473e-01
-7.058144e-01
-7.706684e-01
-8.372951e-01
-9.055899e-01
-9.754599e-01
-1.046824e+00
-1.119612e+00
-1.193748e+00
-1.269123e+00
-1.345531e+00
-1.422565e+00
-1.499467e+00
-1.575001e+00
-1.647469e+00
-1.714980e+00
0.000000e+00
-6.014207e-03
-1.759465e-02
-3.433110e-02
-5.579262e-02
-8.157686e-02
-1.113371e-01
-1.447879e-01
-1.816967e-01
-2.218706e-01
-2.651429e-01
-3.113633e-01
-3.603906e-01
-4.120889e-01
-4.663249e-01
-5.229672e-01
-5.818852e-01
-6.429502e-01
-7.060349e-01
-7.710151e-01
-8.377698e-01
-9.061822e-01
-9.761387e-01
-1.047526e+00
-1.120225e+00
-1.194089e+00
-1.268918e+00
-1.344405e+00
-1.420061e+00
-1.495141e+00
-1.568600e+00
-1.639141e+00
-1.705379e+00
0.000000e+00
-6.112002e-03
-1.780563e-02
-3.464839e-02
-5.619379e-02
-8.203392e-02
-1.118248e-01
-1.452879e-01
-1.821985e-01
-2.223697e-01
-2.656399e-01
-3.118619e-01
-3.608971e-01
-4.126117e-01
-4.668739e-01
-5.235533e-01
-5.825202e-01
-6.436450e-01
-7.067988e-01
-7.718522e-01
-8.386757e-01
-9.071380e-01
-9.771033e-01
-1.048426e+00
-1.120941e+00
-1.194448e+00
-1.268682e+00
-1.343282e+00
-1.417747e+00
-1.491397e+00
-1.563371e+00
-1.632666e+00
-1.698224e+00
0.000000e+00
-6.421891e-03
-1.846839e-02
-3.563485e-02
-5.742689e-02
-8.342243e-02
-1.132889e-01
-1.467702e-01
-1.836637e-01
-2.237996e-01
-2.670277e-01
-3.132079e-01
-3.622061e-01
-4.138910e-01
-4.681328e-01
-5.248018e-01
-5.837684e-01
-6.449020e-01
-7.080705e-01
-7.731394e-01
-8.399694e-01
-9.084145e-01
-9.783177e-01
-1.049504e+00
-1.121772e+00
-1.194878e+00
-1.268522e+00
-1.342320e+00
-1.415790e+00
-1.488339e+00
-1.559270e+00
-1.627809e+00
-1.693145e+00
0.000000e+00
-6.988515e-03
-1.966650e-02
-3.738845e-02
-5.957824e-02
-8.580314e-02
-1.157643e-01
-1.492504e-01
-1.860962e-01
-2.261577e-01
-2.693002e-01
-3.153932e-01
-3.643077e-01
-4.159153e-01
-4.700875e-01
-5.266955e-01
-5.856092e-01
-6.466965e-01
-7.098223e-01
-7.748463e-01
-8.416205e-01
-9.099853e-01
-9.797652e-01
-1.050762e+00
-1.122744e+00
-1.195442e+00
-1.268532e+00
-1.341630e+00
-1.414288e+00
-1.485998e+00
-1.556209e+00
-1.624345e+00
-1.689815e+00
0.000000e+00
-7.902361e-03
-2.156437e-02
-4.008862e-02
-6.279046e-02
-8.926571e-02
-1.192964e-01
-1.527462e-01
-1.894988e-01
-2.294395e-01
-2.724504e-01
-3.184097e-01
-3.671932e-01
-4.186749e-01
-4.727275e-01
-5.292220e-01
-5.880281e-01
-6.490120e-01
-7.120356e-01
-7.769538e-01
-8.436110e-01
-9.118369e-01
-9.814414e-01
-1.052208e+00
-1.123887e+00
-1.196188e+00
-1.268779e+00
-1.341282e+00
-1.413284e+00
-1.484355e+00
-1.554072e+00
-1.622045e+00
-1.687910e+00
0.000000e+00
-9.340447e-03
-2.445949e-02
-4.401465e-02
-6.724657e-02
-9.389796e-02
-1.239199e-01
-1.572656e-01
-1.938680e-01
-2.336379e-01
-2.764703e-01
-3.222501e-01
-3.708564e-01
-4.221644e-01
-4.760471e-01
-5.323756e-01
-5.910186e-01
-6.518411e-01
-7.147025e-01
-7.794539e-01
-8.459342e-01
-9.139656e-01
-9.833479e-01
-1.053853e+00
-1.125219e+00
-1.197146e+00
-1.269296e+00
-1.341301e+00
-1.412778e+00
-1.483358e+00
-1.552728e+00
-1.620672e+00
-1.687079e+00
0.000000e+00
-1.166806e-02
-2.888864e-02
-4.954536e-02
-7.307999e-02
-9.974046e-02
-1.296361e-01
-1.627982e-01
-1.991919e-01
-2.387429e-01
-2.813531e-01
-3.269106e-01
-3.752955e-01
-4.263836e-01
-4.800477e-01
-5.361586e-01
-5.945839e-01
-6.551875e-01
-7.178271e-01
-7.823512e-01
-8.485952e-01
-9.163769e-01
-9.854908e-01
-1.055703e+00
-1.126745e+00
-1.198314e+00
-1.270073e+00
-1.341663e+00
-1.412721e+00
-1.482922e+00
-1.552032e+00
-1.619981e+00
-1.686934e+00
0.000000e+00
-1.589037e-02
-3.583970e-02
-5.678233e-02
-8.027638e-02
-1.067426e-01
-1.364050e-01
-1.693175e-01
-2.054551e-01
-2.447469e-01
-2.870964e-01
-3.323923e-01
-3.805148e-01
-4.313395e-01
-4.847388e-01
-5.405826e-01
-5.987380e-01
-6.590675e-01
-7.214275e-01
-7.856648e-01
-8.516130e-01
-9.190879e-01
-9.878819e-01
-1.057760e+00
-1.128454e+00
-1.199663e+00
-1.271056e+00
-1.342282e+00
-1.412998e+00
-1.482901e+00
-1.551805e+00
-1.619732e+00
-1.687057e+00
0.000000e+00
-2.557706e-02
-4.463621e-02
-6.543942e-02
-8.861156e-02
-1.147945e-01
-1.441728e-01
-1.768009e-01
-2.126509e-01
-2.516516e-01
-2.937065e-01
-3.387045e-01
-3.865260e-01
-4.370465e-01
-4.901378e-01
-5.456692e-01
-6.035066e-01
-6.635113e-01
-7.255382e-01
-7.894323e-01
-8.550258e-01
-9.221333e-01
-9.905473e-01