TITLE = "Solution"
VARIABLES = x, y, u, v, psiu, psiv, t, stress
ZONE T="structure" N=561 E=512 F=FEBLOCK ET=QUADRILATERAL VARLOCATION=([7,8]=cellcentered)
0.000000e+00
6.250000e+00
1.250000e+01
1.875000e+01
2.500000e+01
3.125000e+01
3.750000e+01
4.375000e+01
5.000000e+01
5.625000e+01
6.250000e+01
6.875000e+01
7.500000e+01
8.125000e+01
8.750000e+01
9.375000e+01
1.000000e+02
1.062500e+02
1.125000e+02
1.187500e+02
1.250000e+02
1.312500e+02
1.375000e+02
1.437500e+02
1.500000e+02
1.562500e+02
1.625000e+02
1.687500e+02
1.750000e+02
1.812500e+02
1.875000e+02
1.937500e+02
2.000000e+02
0.000000e+00
6.250000e+00
1.250000e+01
1.875000e+01
2.500000e+01
3.125000e+01
3.750000e+01
4.375000e+01
5.000000e+01
5.625000e+01
6.250000e+01
6.875000e+01
7.500000e+01
8.125000e+01
8.750000e+01
9.375000e+01
1.000000e+02
1.062500e+02
1.125000e+02
1.187500e+02
1.250000e+02
1.312500e+02
1.375000e+02
1.437500e+02
1.500000e+02
1.562500e+02
1.625000e+02
1.687500e+02
1.750000e+02
1.812500e+02
1.875000e+02
1.937500e+02
2.000000e+02
0.000000e+00
6.250000e+00
1.250000e+01
1.875000e+01
2.500000e+01
3.125000e+01
3.750000e+01
4.375000e+01
5.000000e+01
5.625000e+01
6.250000e+01
6.875000e+01
7.500000e+01
8.125000e+01
8.750000e+01
9.375000e+01
1.000000e+02
1.062500e+02
1.125000e+02
1.187500e+02
1.250000e+02
1.312500e+02
1.375000e+02
1.437500e+02
1.500000e+02
1.562500e+02
1.625000e+02
1.687500e+02
1.750000e+02
1.812500e+02
1.875000e+02
1.937500e+02
2.000000e+02
0.000000e+00
6.250000e+00
1.250000e+01
1.875000e+01
2.500000e+01
3.125000e+01
3.750000e+01
4.375000e+01
5.000000e+01
5.625000e+01
6.250000e+01
6.875000e+01
7.500000e+01
8.125000e+01
8.750000e+01
9.375000e+01
1.000000e+02
1.062500e+02
1.125000e+02
1.187500e+02
1.250000e+02
1.312500e+02
1.375000e+02
1.437500e+02
1.500000e+02
1.562500e+02
1.625000e+02
1.687500e+02
1.750000e+02
1.812500e+02
1.875000e+02
1.937500e+02
2.000000e+02
0.000000e+00
6.250000e+00
1.250000e+01
1.875000e+01
2.500000e+01
3.125000e+01
3.750000e+01
4.375000e+01
5.000000e+01
5.625000e+01
6.250000e+01
6.875000e+01
7.500000e+01
8.125000e+01
8.750000e+01
9.375000e+01
1.000000e+02
1.062500e+02
1.125000e+02
1.187500e+02
1.250000e+02
1.312500e+02
1.375000e+02
1.437500e+02
1.500000e+02
1.562500e+02
1.625000e+02
1.687500e+02
1.750000e+02
1.812500e+02
1.875000e+02
1.937500e+02
2.000000e+02
0.000000e+00
6.250000e+00
1.250000e+01
1.875000e+01
2.500000e+01
3.125000e+01
3.750000e+01
4.375000e+01
5.000000e+01
5.625000e+01
6.250000e+01
6.875000e+01
7.500000e+01
8.125000e+01
8.750000e+01
9.375000e+01
1.000000e+02
1.062500e+02
1.125000e+02
1.187500e+02
1.250000e+02
1.312500e+02
1.375000e+02
1.437500e+02
1.500000e+02
1.562500e+02
1.625000e+02
1.687500e+02
1.750000e+02
1.812500e+02
1.875000e+02
1.937500e+02
2.000000e+02
0.000000e+00
6.250000e+00
1.250000e+01
1.875000e+01
2.500000e+01
3.125000e+01
3.750000e+01
4.375000e+01
5.000000e+01
5.625000e+01
6.250000e+01
6.875000e+01
7.500000e+01
8.125000e+01
8.750000e+01
9.375000e+01
1.000000e+02
1.062500e+02
1.125000e+02
1.187500e+02
1.250000e+02
1.312500e+02
1.375000e+02
1.437500e+02
1.500000e+02
1.562500e+02
1.625000e+02
1.687500e+02
1.750000e+02
1.812500e+02
1.875000e+02
1.937500e+02
2.000000e+02
0.000000e+00
6.250000e+00
1.250000e+01
1.875000e+01
2.500000e+01
3.125000e+01
3.750000e+01
4.375000e+01
5.000000e+01
5.625000e+01
6.250000e+01
6.875000e+01
7.500000e+01
8.125000e+01
8.750000e+01
9.375000e+01
1.000000e+02
1.062500e+02
1.125000e+02
1.187500e+02
1.250000e+02
1.312500e+02
1.375000e+02
1.437500e+02
1.500000e+02
1.562500e+02
1.625000e+02
1.687500e+02
1.750000e+02
1.812500e+02
1.875000e+02
1.937500e+02
2.000000e+02
0.000000e+00
6.250000e+00
1.250000e+01
1.875000e+01
2.500000e+01
3.125000e+01
3.750000e+01
4.375000e+01
5.000000e+01
5.625000e+01
6.250000e+01
6.875000e+01
7.500000e+01
8.125000e+01
8.750000e+01
9.375000e+01
1.000000e+02
1.062500e+02
1.125000e+02
1.187500e+02
1.250000e+02
1.312500e+02
1.375000e+02
1.437500e+02
1.500000e+02
1.562500e+02
1.625000e+02
1.687500e+02
1.750000e+02
1.812500e+02
1.875000e+02
1.937500e+02
2.000000e+02
0.000000e+00
6.250000e+00
1.250000e+01
1.875000e+01
2.500000e+01
3.125000e+01
3.750000e+01
4.375000e+01
5.000000e+01
5.625000e+01
6.250000e+01
6.875000e+01
7.500000e+01
8.125000e+01
8.750000e+01
9.375000e+01
1.000000e+02
1.062500e+02
1.125000e+02
1.187500e+02
1.250000e+02
1.312500e+02
1.375000e+02
1.437500e+02
1.500000e+02
1.562500e+02
1.625000e+02
1.687500e+02
1.750000e+02
1.812500e+02
1.875000e+02
1.937500e+02
2.000000e+02
0.000000e+00
6.250000e+00
1.250000e+01
1.875000e+01
2.500000e+01
3.125000e+01
3.750000e+01
4.375000e+01
5.000000e+01
5.625000e+01
6.250000e+01
6.875000e+01
7.500000e+01
8.125000e+01
8.750000e+01
9.375000e+01
1.000000e+02
1.062500e+02
1.125000e+02
1.187500e+02
1.250000e+02
1.312500e+02
1.375000e+02
1.437500e+02
1.500000e+02
1.562500e+02
1.625000e+02
1.687500e+02
1.750000e+02
1.812500e+02
1.875000e+02
1.937500e+02
2.000000e+02
0.000000e+00
6.250000e+00
1.250000e+01
1.875000e+01
2.500000e+01
3.125000e+01
3.750000e+01
4.375000e+01
5.000000e+01
5.625000e+01
6.250000e+01
6.875000e+01
7.500000e+01
8.125000e+01
8.750000e+01
9.375000e+01
1.000000e+02
1.062500e+02
1.125000e+02
1.187500e+02
1.250000e+02
1.312500e+02
1.375000e+02
1.437500e+02
1.500000e+02
1.562500e+02
1.625000e+02
1.687500e+02
1.750000e+02
1.812500e+02
1.875000e+02
1.937500e+02
2.000000e+02
0.000000e+00
6.250000e+00
1.250000e+01
1.875000e+01
2.500000e+01
3.125000e+01
3.750000e+01
4.375000e+01
5.000000e+01
5.625000e+01
6.250000e+01
6.875000e+01
7.500000e+01
8.125000e+01
8.750000e+01
9.375000e+01
1.000000e+02
1.062500e+02
1.125000e+02
1.187500e+02
1.250000e+02
1.312500e+02
1.375000e+02
1.437500e+02
1.500000e+02
1.562500e+02
1.625000e+02
1.687500e+02
1.750000e+02
1.812500e+02
1.875000e+02
1.937500e+02
2.000000e+02
0.000000e+00
6.250000e+00
1.250000e+01
1.875000e+01
2.500000e+01
3.125000e+01
3.750000e+01
4.375000e+01
5.000000e+01
5.625000e+01
6.250000e+01
6.875000e+01
7.500000e+01
8.125000e+01
8.750000e+01
9.375000e+01
1.000000e+02
1.062500e+02
1.125000e+02
1.187500e+02
1.250000e+02
1.312500e+02
1.375000e+02
1.437500e+02
1.500000e+02
1.562500e+02
1.625000e+02
1.687500e+02
1.750000e+02
1.812500e+02
1.875000e+02
1.937500e+02
2.000000e+02
0.000000e+00
6.250000e+00
1.250000e+01
1.875000e+01
2.500000e+01
3.125000e+01
3.750000e+01
4.375000e+01
5.000000e+01
5.625000e+01
6.250000e+01
6.875000e+01
7.500000e+01
8.125000e+01
8.750000e+01
9.375000e+01
1.000000e+02
1.062500e+02
1.125000e+02
1.187500e+02
1.250000e+02
1.312500e+02
1.375000e+02
1.437500e+02
1.500000e+02
1.562500e+02
1.625000e+02
1.687500e+02
1.750000e+02
1.812500e+02
1.875000e+02
1.937500e+02
2.000000e+02
0.000000e+00
6.250000e+00
1.250000e+01
1.875000e+01
2.500000e+01
3.125000e+01
3.750000e+01
4.375000e+01
5.000000e+01
5.625000e+01
6.250000e+01
6.875000e+01
7.500000e+01
8.125000e+01
8.750000e+01
9.375000e+01
1.000000e+02
1.062500e+02
1.125000e+02
1.187500e+02
1.250000e+02
1.312500e+02
1.375000e+02
1.437500e+02
1.500000e+02
1.562500e+02
1.625000e+02
1.687500e+02
1.750000e+02
1.812500e+02
1.875000e+02
1.937500e+02
2.000000e+02
0.000000e+00
6.250000e+00
1.250000e+01
1.875000e+01
2.500000e+01
3.125000e+01
3.750000e+01
4.375000e+01
5.000000e+01
5.625000e+01
6.250000e+01
6.875000e+01
7.500000e+01
8.125000e+01
8.750000e+01
9.375000e+01
1.000000e+02
1.062500e+02
1.125000e+02
1.187500e+02
1.250000e+02
1.312500e+02
1.375000e+02
1.437500e+02
1.500000e+02
1.562500e+02
1.625000e+02
1.687500e+02
1.750000e+02
1.812500e+02
1.875000e+02
1.937500e+02
2.000000e+02
0.000000e+00
0.000000e+00
0.000000e+00
0.000000e+00
0.000000e+00
0.000000e+00
0.000000e+00
0.000000e+00
0.000000e+00
0.000000e+00
0.000000e+00
0.000000e+00
0.000000e+00
0.000000e+00
0.000000e+00
0.000000e+00
0.000000e+00
0.000000e+00
0.000000e+00
0.000000e+00
0.000000e+00
0.000000e+00
0.000000e+00
0.000000e+00
0.000000e+00
0.000000e+00
0.000000e+00
0.000000e+00
0.000000e+00
0.000000e+00
0.000000e+00
0.000000e+00
0.000000e+00
6.250000e+00
6.250000e+00
6.250000e+00
6.250000e+00
6.250000e+00
6.250000e+00
6.250000e+00
6.250000e+00
6.250000e+00
6.250000e+00
6.250000e+00
6.250000e+00
6.250000e+00
6.250000e+00
6.250000e+00
6.250000e+00
6.250000e+00
6.250000e+00
6.250000e+00
6.250000e+00
6.250000e+00
6.250000e+00
6.250000e+00
6.250000e+00
6.250000e+00
6.250000e+00
6.250000e+00
6.250000e+00
6.250000e+00
6.250000e+00
6.250000e+00
6.250000e+00
6.250000e+00
1.250000e+01
1.250000e+01
1.250000e+01
1.250000e+01
1.250000e+01
1.250000e+01
1.250000e+01
1.250000e+01
1.250000e+01
1.250000e+01
1.250000e+01
1.250000e+01
1.250000e+01
1.250000e+01
1.250000e+01
1.250000e+01
1.250000e+01
1.250000e+01
1.250000e+01
1.250000e+01
1.250000e+01
1.250000e+01
1.250000e+01
1.250000e+01
1.250000e+01
1.250000e+01
1.250000e+01
1.250000e+01
1.250000e+01
1.250000e+01
1.250000e+01
1.250000e+01
1.250000e+01
1.875000e+01
1.875000e+01
1.875000e+01
1.875000e+01
1.875000e+01
1.875000e+01
1.875000e+01
1.875000e+01
1.875000e+01
1.875000e+01
1.875000e+01
1.875000e+01
1.875000e+01
1.875000e+01
1.875000e+01
1.875000e+01
1.875000e+01
1.875000e+01
1.875000e+01
1.875000e+01
1.875000e+01
1.875000e+01
1.875000e+01
1.875000e+01
1.875000e+01
1.875000e+01
1.875000e+01
1.875000e+01
1.875000e+01
1.875000e+01
1.875000e+01
1.875000e+01
1.875000e+01
2.500000e+01
2.500000e+01
2.500000e+01
2.500000e+01
2.500000e+01
2.500000e+01
2.500000e+01
2.500000e+01
2.500000e+01
2.500000e+01
2.500000e+01
2.500000e+01
2.500000e+01
2.500000e+01
2.500000e+01
2.500000e+01
2.500000e+01
2.500000e+01
2.500000e+01
2.500000e+01
2.500000e+01
2.500000e+01
2.500000e+01
2.500000e+01
2.500000e+01
2.500000e+01
2.500000e+01
2.500000e+01
2.500000e+01
2.500000e+01
2.500000e+01
2.500000e+01
2.500000e+01
3.125000e+01
3.125000e+01
3.125000e+01
3.125000e+01
3.125000e+01
3.125000e+01
3.125000e+01
3.125000e+01
3.125000e+01
3.125000e+01
3.125000e+01
3.125000e+01
3.125000e+01
3.125000e+01
3.125000e+01
3.125000e+01
3.125000e+01
3.125000e+01
3.125000e+01
3.125000e+01
3.125000e+01
3.125000e+01
3.125000e+01
3.125000e+01
3.125000e+01
3.125000e+01
3.125000e+01
3.125000e+01
3.125000e+01
3.125000e+01
3.125000e+01
3.125000e+01
3.125000e+01
3.750000e+01
3.750000e+01
3.750000e+01
3.750000e+01
3.750000e+01
3.750000e+01
3.750000e+01
3.750000e+01
3.750000e+01
3.750000e+01
3.750000e+01
3.750000e+01
3.750000e+01
3.750000e+01
3.750000e+01
3.750000e+01
3.750000e+01
3.750000e+01
3.750000e+01
3.750000e+01
3.750000e+01
3.750000e+01
3.750000e+01
3.750000e+01
3.750000e+01
3.750000e+01
3.750000e+01
3.750000e+01
3.750000e+01
3.750000e+01
3.750000e+01
3.750000e+01
3.750000e+01
4.375000e+01
4.375000e+01
4.375000e+01
4.375000e+01
4.375000e+01
4.375000e+01
4.375000e+01
4.375000e+01
4.375000e+01
4.375000e+01
4.375000e+01
4.375000e+01
4.375000e+01
4.375000e+01
4.375000e+01
4.375000e+01
4.375000e+01
4.375000e+01
4.375000e+01
4.375000e+01
4.375000e+01
4.375000e+01
4.375000e+01
4.375000e+01
4.375000e+01
4.375000e+01
4.375000e+01
4.375000e+01
4.375000e+01
4.375000e+01
4.375000e+01
4.375000e+01
4.375000e+01
5.000000e+01
5.000000e+01
5.000000e+01
5.000000e+01
5.000000e+01
5.000000e+01
5.000000e+01
5.000000e+01
5.000000e+01
5.000000e+01
5.000000e+01
5.000000e+01
5.000000e+01
5.000000e+01
5.000000e+01
5.000000e+01
5.000000e+01
5.000000e+01
5.000000e+01
5.000000e+01
5.000000e+01
5.000000e+01
5.000000e+01
5.000000e+01
5.000000e+01
5.000000e+01
5.000000e+01
5.000000e+01
5.000000e+01
5.000000e+01
5.000000e+01
5.000000e+01
5.000000e+01
5.625000e+01
5.625000e+01
5.625000e+01
5.625000e+01
5.625000e+01
5.625000e+01
5.625000e+01
5.625000e+01
5.625000e+01
5.625000e+01
5.625000e+01
5.625000e+01
5.625000e+01
5.625000e+01
5.625000e+01
5.625000e+01
5.625000e+01
5.625000e+01
5.625000e+01
5.625000e+01
5.625000e+01
5.625000e+01
5.625000e+01
5.625000e+01
5.625000e+01
5.625000e+01
5.625000e+01
5.625000e+01
5.625000e+01
5.625000e+01
5.625000e+01
5.625000e+01
5.625000e+01
6.250000e+01
6.250000e+01
6.250000e+01
6.250000e+01
6.250000e+01
6.250000e+01
6.250000e+01
6.250000e+01
6.250000e+01
6.250000e+01
6.250000e+01
6.250000e+01
6.250000e+01
6.250000e+01
6.250000e+01
6.250000e+01
6.250000e+01
6.250000e+01
6.250000e+01
6.250000e+01
6.250000e+01
6.250000e+01
6.250000e+01
6.250000e+01
6.250000e+01
6.250000e+01
6.250000e+01
6.250000e+01
6.250000e+01
6.250000e+01
6.250000e+01
6.250000e+01
6.250000e+01
6.875000e+01
6.875000e+01
6.875000e+01
6.875000e+01
6.875000e+01
6.875000e+01
6.875000e+01
6.875000e+01
6.875000e+01
6.875000e+01
6.875000e+01
6.875000e+01
6.875000e+01
6.875000e+01
6.875000e+01
6.875000e+01
6.875000e+01
6.875000e+01
6.875000e+01
6.875000e+01
6.875000e+01
6.875000e+01
6.875000e+01
6.875000e+01
6.875000e+01
6.875000e+01
6.875000e+01
6.875000e+01
6.875000e+01
6.875000e+01
6.875000e+01
6.875000e+01
6.875000e+01
7.500000e+01
7.500000e+01
7.500000e+01
7.500000e+01
7.500000e+01
7.500000e+01
7.500000e+01
7.500000e+01
7.500000e+01
7.500000e+01
7.500000e+01
7.500000e+01
7.500000e+01
7.500000e+01
7.500000e+01
7.500000e+01
7.500000e+01
7.500000e+01
7.500000e+01
7.500000e+01
7.500000e+01
7.500000e+01
7.500000e+01
7.500000e+01
7.500000e+01
7.500000e+01
7.500000e+01
7.500000e+01
7.500000e+01
7.500000e+01
7.500000e+01
7.500000e+01
7.500000e+01
8.125000e+01
8.125000e+01
8.125000e+01
8.125000e+01
8.125000e+01
8.125000e+01
8.125000e+01
8.125000e+01
8.125000e+01
8.125000e+01
8.125000e+01
8.125000e+01
8.125000e+01
8.125000e+01
8.125000e+01
8.125000e+01
8.125000e+01
8.125000e+01
8.125000e+01
8.125000e+01
8.125000e+01
8.125000e+01
8.125000e+01
8.125000e+01
8.125000e+01
8.125000e+01
8.125000e+01
8.125000e+01
8.125000e+01
8.125000e+01
8.125000e+01
8.125000e+01
8.125000e+01
8.750000e+01
8.750000e+01
8.750000e+01
8.750000e+01
8.750000e+01
8.750000e+01
8.750000e+01
8.750000e+01
8.750000e+01
8.750000e+01
8.750000e+01
8.750000e+01
8.750000e+01
8.750000e+01
8.750000e+01
8.750000e+01
8.750000e+01
8.750000e+01
8.750000e+01
8.750000e+01
8.750000e+01
8.750000e+01
8.750000e+01
8.750000e+01
8.750000e+01
8.750000e+01
8.750000e+01
8.750000e+01
8.750000e+01
8.750000e+01
8.750000e+01
8.750000e+01
8.750000e+01
9.375000e+01
9.375000e+01
9.375000e+01
9.375000e+01
9.375000e+01
9.375000e+01
9.375000e+01
9.375000e+01
9.375000e+01
9.375000e+01
9.375000e+01
9.375000e+01
9.375000e+01
9.375000e+01
9.375000e+01
9.375000e+01
9.375000e+01
9.375000e+01
9.375000e+01
9.375000e+01
9.375000e+01
9.375000e+01
9.375000e+01
9.375000e+01
9.375000e+01
9.375000e+01
9.375000e+01
9.375000e+01
9.375000e+01
9.375000e+01
9.375000e+01
9.375000e+01
9.375000e+01
1.000000e+02
1.000000e+02
1.000000e+02
1.000000e+02
1.000000e+02
1.000000e+02
1.000000e+02
1.000000e+02
1.000000e+02
1.000000e+02
1.000000e+02
1.000000e+02
1.000000e+02
1.000000e+02
1.000000e+02
1.000000e+02
1.000000e+02
1.000000e+02
1.000000e+02
1.000000e+02
1.000000e+02
1.000000e+02
1.000000e+02
1.000000e+02
1.000000e+02
1.000000e+02
1.000000e+02
1.000000e+02
1.000000e+02
1.000000e+02
1.000000e+02
1.000000e+02
1.000000e+02
0.000000e+00
-4.294537e-02
-7.791867e-02
-1.103165e-01
-1.414093e-01
-1.714341e-01
-2.004512e-01
-2.284580e-01
-2.554369e-01
-2.813683e-01
-3.062359e-01
-3.300285e-01
-3.527403e-01
-3.743708e-01
-3.949251e-01
-4.144140e-01
-4.328550e-01
-4.502734e-01
-4.667043e-01
-4.821949e-01
-4.968082e-01
-5.106275e-01
-5.237629e-01
-5.363605e-01
-5.486159e-01
-5.607950e-01
-5.732671e-01
-5.865591e-01
-6.014435e-01
-6.190573e-01
-6.408756e-01
-6.668770e-01
-6.827452e-01
0.000000e+00
-2.879372e-02
-5.990842e-02
-8.924548e-02
-1.171292e-01
-1.438251e-01
-1.694743e-01
-1.941384e-01
-2.178421e-01
-2.405933e-01
-2.623936e-01
-2.832429e-01
-3.031423e-01
-3.220950e-01
-3.401072e-01
-3.571890e-01
-3.733549e-01
-3.886249e-01
-4.030255e-01
-4.165910e-01
-4.293652e-01
-4.414034e-01
-4.527743e-01
-4.635615e-01
-4.738656e-01
-4.838017e-01
-4.934916e-01
-5.030356e-01
-5.124330e-01
-5.213781e-01
-5.288318e-01
-5.331896e-01
-5.392563e-01
0.000000e+00
-2.283925e-02
-4.702008e-02
-7.164002e-02
-9.556297e-02
-1.186043e-01
-1.407493e-01
-1.620190e-01
-1.824321e-01
-2.020016e-01
-2.207357e-01
-2.386403e-01
-2.557203e-01
-2.719808e-01
-2.874278e-01
-3.020688e-01
-3.159133e-01
-3.289733e-01
-3.412634e-01
-3.528011e-01
-3.636067e-01
-3.737020e-01
-3.831084e-01
-3.918428e-01
-3.999085e-01
-4.072796e-01
-4.138719e-01
-4.194914e-01
-4.237578e-01
-4.260552e-01
-4.258538e-01
-4.245637e-01
-4.316481e-01
0.000000e+00
-1.812092e-02
-3.724261e-02
-5.688777e-02
-7.648689e-02
-9.561127e-02
-1.140971e-01
-1.318858e-01
-1.489612e-01
-1.653228e-01
-1.809748e-01
-1.959224e-01
-2.101706e-01
-2.237240e-01
-2.365864e-01
-2.487616e-01
-2.602530e-01
-2.710633e-01
-2.811949e-01
-2.906484e-01
-2.994212e-01
-3.075055e-01
-3.148832e-01
-3.215200e-01
-3.273546e-01
-3.322842e-01
-3.361453e-01
-3.387023e-01
-3.396786e-01
-3.389539e-01
-3.371936e-01
-3.370885e-01
-3.438381e-01
0.000000e+00
-1.406436e-02
-2.879902e-02
-4.400436e-02
-5.933324e-02
-7.447410e-02
-8.921805e-02
-1.034593e-01
-1.171498e-01
-1.302710e-01
-1.428181e-01
-1.547917e-01
-1.661942e-01
-1.770273e-01
-1.872919e-01
-1.969870e-01
-2.061096e-01
-2.146541e-01
-2.226119e-01
-2.299694e-01
-2.367070e-01
-2.427959e-01
-2.481943e-01
-2.528431e-01
-2.566600e-01
-2.595371e-01
-2.613476e-01
-2.619827e-01
-2.614616e-01
-2.601868e-01
-2.593597e-01
-2.612697e-01
-2.670274e-01
0.000000e+00
-1.033649e-02
-2.111583e-02
-3.224148e-02
-4.352119e-02
-5.474442e-02
-6.574401e-02
-7.641130e-02
-8.668666e-02
-9.654108e-02
-1.059623e-01
-1.149461e-01
-1.234909e-01
-1.315951e-01
-1.392557e-01
-1.464673e-01
-1.532212e-01
-1.595052e-01
-1.653022e-01
-1.705896e-01
-1.753375e-01
-1.795076e-01
-1.830510e-01
-1.859083e-01
-1.880117e-01
-1.892951e-01
-1.897209e-01
-1.893388e-01
-1.883970e-01
-1.875009e-01
-1.877191e-01
-1.901540e-01
-1.949181e-01
0.000000e+00
-6.802651e-03
-1.387438e-02
-2.117044e-02
-2.858680e-02
-3.599861e-02
-4.329410e-02
-5.039180e-02
-5.724072e-02
-6.381272e-02
-7.009358e-02
-7.607616e-02
-8.175588e-02
-8.712800e-02
-9.218605e-02
-9.692077e-02
-1.013194e-01
-1.053650e-01
-1.090359e-01
-1.123051e-01
-1.151396e-01
-1.175011e-01
-1.193467e-01
-1.206328e-01
-1.213238e-01
-1.214096e-01
-1.209371e-01
-1.200628e-01
-1.191194e-01
-1.186621e-01
-1.193756e-01
-1.217461e-01
-1.255918e-01
0.000000e+00
-3.378875e-03
-6.885491e-03
-1.050182e-02
-1.418220e-02
-1.786849e-02
-2.150546e-02
-2.504993e-02
-2.847268e-02
-3.175591e-02
-3.488903e-02
-3.786506e-02
-4.067792e-02
-4.332061e-02
-4.578415e-02
-4.805670e-02
-5.012300e-02
-5.196400e-02
-5.355654e-02
-5.487350e-02
-5.588444e-02
-5.655736e-02
-5.686218e-02
-5.677740e-02
-5.630133e-02
-5.547032e-02
-5.438492e-02
-5.324127e-02
-5.235347e-02
-5.213107e-02
-5.296819e-02
-5.503620e-02
-5.808766e-02
0.000000e+00
-5.451484e-06
-1.182037e-05
-1.875384e-05
-2.588718e-05
-3.272866e-05
-3.853719e-05
-4.218661e-05
-4.200702e-05
-3.559380e-05
-1.957714e-05
1.065221e-05
6.126026e-05
1.403234e-04
2.582013e-04
4.278966e-04
6.653463e-04
9.895534e-04
1.422418e-03
1.988050e-03
2.711238e-03
3.614605e-03
4.713823e-03
6.010083e-03
7.479103e-03
9.056534e-03
1.062160e-02
1.198514e-02
1.289536e-02
1.307995e-02
1.233671e-02
1.065352e-02
8.296121e-03
0.000000e+00
3.368607e-03
6.863181e-03
1.046636e-02
1.413313e-02
1.780627e-02
2.143193e-02
2.496901e-02
2.839142e-02
3.168585e-02
3.484803e-02
3.787963e-02
4.078615e-02
4.357583e-02
4.625920e-02
4.884902e-02
5.136025e-02
5.380993e-02
5.621674e-02
5.859992e-02
6.097728e-02
6.336190e-02
6.575719e-02
6.814984e-02
7.050097e-02
7.273638e-02
7.473905e-02
7.634981e-02
7.738476e-02
7.767777e-02
7.714711e-02
7.586847e-02
7.411881e-02
0.000000e+00
6.794263e-03
1.385602e-02
2.114106e-02
2.854582e-02
3.594618e-02
4.323141e-02
5.032171e-02
5.716857e-02
6.374745e-02
7.004925e-02
7.607381e-02
8.182603e-02
8.731363e-02
9.254627e-02
9.753508e-02
1.022925e-01
1.068322e-01
1.111683e-01
1.153140e-01
1.192803e-01
1.230721e-01
1.266842e-01
1.300959e-01
1.332642e-01
1.361189e-01
1.385607e-01
1.404679e-01
1.417161e-01
1.422152e-01
1.419586e-01
1.410738e-01
1.398527e-01
0.000000e+00
1.033114e-02
2.110391e-02
3.222206e-02
4.349363e-02
5.470844e-02
6.569999e-02
7.636063e-02
8.663227e-02
9.648818e-02
1.059194e-01
1.149260e-01
1.235128e-01
1.316863e-01
1.394543e-01
1.468249e-01
1.538070e-01
1.604094e-01
1.666404e-01
1.725074e-01
1.780143e-01
1.831601e-01
1.879345e-01
1.923153e-01
1.962636e-01
1.997220e-01
2.026161e-01
2.048622e-01
2.063854e-01
2.071486e-01
2.071916e-01
2.066725e-01
2.059008e-01
0.000000e+00
1.406303e-02
2.879569e-02
4.399841e-02
5.932404e-02
7.446114e-02
8.920098e-02
1.034381e-01
1.171249e-01
1.302435e-01
1.427901e-01
1.547669e-01
1.661781e-01
1.770286e-01
1.873230e-01
1.970653e-01
2.062594e-01
2.149081e-01
2.230136e-01
2.305763e-01
2.375939e-01
2.440600e-01
2.499620e-01
2.552797e-01
2.599830e-01
2.640327e-01
2.673822e-01
2.699854e-01
2.718098e-01
2.728579e-01
2.731979e-01
2.730030e-01
2.725965e-01
0.000000e+00
1.812428e-02
3.724946e-02
5.689795e-02
7.650012e-02
9.562717e-02
1.141152e-01
1.319050e-01
1.489802e-01
1.653393e-01
1.809851e-01
1.959214e-01
2.101508e-01
2.236750e-01
2.364943e-01
2.486075e-01
2.600124e-01
2.707053e-01
2.806809e-01
2.899321e-01
2.984496e-01
3.062215e-01
3.132330e-01
3.194665e-01
3.249021e-01
3.295193e-01
3.333010e-01
3.362386e-01
3.383409e-01
3.396475e-01
3.402484e-01
3.403201e-01
3.401852e-01
0.000000e+00
2.284746e-02
4.703762e-02
7.166749e-02
9.560090e-02
1.186531e-01
1.408091e-01
1.620891e-01
1.825106e-01
2.020843e-01
2.208156e-01
2.387059e-01
2.557540e-01
2.719568e-01
2.873091e-01
3.018039e-01
3.154324e-01
3.281834e-01
3.400435e-01
3.509968e-01
3.610254e-01
3.701098e-01
3.782301e-01
3.853683e-01
3.915108e-01
3.966529e-01
4.008039e-01
4.039930e-01
4.062755e-01
4.077373e-01
4.085025e-01
4.087517e-01
4.087814e-01
0.000000e+00
2.880605e-02
5.993538e-02
8.928884e-02
1.171911e-01
1.439077e-01
1.695793e-01
1.942669e-01
2.179935e-01
2.407646e-01
2.625777e-01
2.834268e-01
3.033039e-01
3.222000e-01
3.401044e-01
3.570043e-01
3.728843e-01
3.877257e-01
4.015063e-01
4.141999e-01
4.257774e-01
4.362076e-01
4.454597e-01
4.535071e-01
4.603332e-01
4.659382e-01
4.703488e-01
4.736270e-01
4.758790e-01
4.772588e-01
4.779638e-01
4.782194e-01
4.782820e-01
0.000000e+00
4.295888e-02
7.795018e-02
1.103705e-01
1.414901e-01
1.715461e-01
2.005990e-01
2.286459e-01
2.556684e-01
2.816447e-01
3.065550e-01
3.303817e-01
3.531097e-01
3.747244e-01
3.952108e-01
4.145517e-01
4.327265e-01
4.497100e-01
4.654711e-01
4.799724e-01
4.931704e-01
5.050164e-01
5.154596e-01
5.244521e-01
5.319567e-01
5.379584e-01
5.424785e-01
5.455924e-01
5.474484e-01
5.482847e-01
5.484367e-01
5.483108e-01
5.482400e-01
0.000000e+00
-2.653942e-02
-4.631702e-02
-6.789914e-02
-9.193211e-02
-1.190798e-01
-1.495307e-01
-1.833380e-01
-2.204678e-01
-2.608406e-01
-3.043494e-01
-3.508711e-01
-4.002729e-01
-4.524166e-01
-5.071612e-01
-5.643647e-01
-6.238858e-01
-6.855860e-01
-7.493312e-01
-8.149952e-01
-8.824636e-01
-9.516404e-01
-1.022457e+00
-1.094886e+00
-1.168963e+00
-1.244826e+00
-1.322776e+00
-1.403402e+00
-1.487829e+00
-1.578285e+00
-1.679580e+00
-1.803059e+00
-1.973648e+00
0.000000e+00
-1.649324e-02
-3.719517e-02
-5.892288e-02
-8.329083e-02
-1.107334e-01
-1.414803e-01
-1.755834e-01
-2.130121e-01
-2.536866e-01
-2.974995e-01
-3.443266e-01
-3.940341e-01
-4.464825e-01
-5.015295e-01
-5.590317e-01
-6.188461e-01
-6.808321e-01
-7.448529e-01
-8.107794e-01
-8.784930e-01
-9.478929e-01
-1.018904e+00
-1.091491e+00
-1.165680e+00
-1.241596e+00
-1.319525e+00
-1.400037e+00
-1.484234e+00
-1.574306e+00
-1.674819e+00
-1.795549e+00
-1.954923e+00
0.000000e+00
-1.211524e-02
-2.998657e-02
-5.141788e-02
-7.582840e-02
-1.034732e-01
-1.344627e-01
-1.688258e-01
-2.065210e-01
-2.474651e-01
-2.915485e-01
-3.386462e-01
-3.886238e-01
-4.413413e-01
-4.966558e-01
-5.544235e-01
-6.145007e-01
-6.767457e-01
-7.410212e-01
-8.071967e-01
-8.751529e-01
-9.447878e-01
-1.016026e+00
-1.088834e+00
-1.163241e+00
-1.239378e+00
-1.317545e+00
-1.398325e+00
-1.482807e+00
-1.572964e+00
-1.672169e+00
-1.784405e+00
-1.908909e+00
0.000000e+00
-9.701366e-03
-2.539257e-02
-4.568106e-02
-6.977787e-02
-9.741409e-02
-1.285362e-01
-1.630917e-01
-2.010063e-01
-2.421813e-01
-2.865002e-01
-3.338350e-01
-3.840499e-01
-4.370049e-01
-4.925571e-01
-5.505631e-01
-6.108796e-01
-6.733656e-01
-7.378844e-01
-8.043066e-01
-8.725145e-01
-9.424087e-01
-1.013918e+00
-1.087013e+00
-1.161730e+00
-1.238209e+00
-1.316743e+00
-1.397873e+00
-1.482488e+00
-1.571890e+00
-1.667322e+00
-1.767973e+00
-1.861669e+00
0.000000e+00
-8.208951e-03
-2.238826e-02
-4.160724e-02
-6.515475e-02
-9.260977e-02
-1.237436e-01
-1.584114e-01
-1.964880e-01
-2.378489e-01
-2.823648e-01
-3.299016e-01
-3.803212e-01
-4.334829e-01
-4.892448e-01
-5.474641e-01
-6.079991e-01
-6.707104e-01
-7.354631e-01
-8.021300e-01
-8.705961e-01
-9.407648e-01
-1.012568e+00
-1.085978e+00
-1.161030e+00
-1.237845e+00
-1.316662e+00
-1.397871e+00
-1.481984e+00
-1.569412e+00
-1.659740e+00
-1.749651e+00
-1.831250e+00
0.000000e+00
-7.259314e-03
-2.041706e-02
-3.880381e-02
-6.182126e-02
-8.901910e-02
-1.200852e-01
-1.547974e-01
-1.929807e-01
-2.344809e-01
-2.791529e-01
-3.268545e-01
-3.774444e-01
-4.307812e-01
-4.867235e-01
-5.451302e-01
-6.058613e-01
-6.687795e-01
-7.337522e-01
-8.006540e-01
-8.693716e-01
-9.398091e-01
-1.011896e+00
-1.085597e+00
-1.160927e+00
-1.237956e+00
-1.316821e+00
-1.397693e+00
-1.480664e+00
-1.565455e+00
-1.650775e+00
-1.733574e+00
-1.809253e+00
0.000000e+00
-6.669126e-03
-1.917077e-02
-3.698152e-02
-5.958806e-02
-8.655154e-02
-1.175254e-01
-1.522420e-01
-1.904882e-01
-2.320849e-01
-2.768720e-01
-3.246995e-01
-3.754230e-01
-4.289004e-01
-4.849912e-01
-5.435558e-01
-6.044562e-01
-6.675570e-01
-7.327269e-01
-7.998415e-01
-8.687866e-01
-9.394622e-01
-1.011789e+00
-1.085711e+00
-1.161204e+00
-1.238269e+00
-1.316914e+00
-1.397091e+00
-1.478572e+00
-1.560692e+00
-1.642030e+00
-1.720242e+00
-1.792454e+00
0.000000e+00
-6.344809e-03
-1.847923e-02
-3.595463e-02
-5.830752e-02
-8.511420e-02
-1.160170e-01
-1.507259e-01
-1.890062e-01
-2.306626e-01
-2.755250e-01
-3.234384e-01
-3.742563e-01
-4.278366e-01
-4.840399e-01
-5.427280e-01
-6.037646e-01
-6.670155e-01
-7.323499e-01
-7.996421e-01
-8.687737e-01
-9.396361e-01
-1.012133e+00
-1.086180e+00
-1.161705e+00
-1.238628e+00
-1.316836e+00
-1.396117e+00
-1.476047e+00
-1.555840e+00
-1.634215e+00
-1.709407e+00
-1.779456e+00
0.000000e+00
-6.240315e-03
-1.825613e-02
-3.562180e-02
-5.789018e-02
-8.464378e-02
-1.155229e-01
-1.502313e-01
-1.885277e-01
-2.302120e-01
-2.751111e-01
-3.230692e-01
-3.739397e-01
-4.275816e-01
-4.838567e-01
-5.426284e-01
-6.037616e-01
-6.671223e-01
-7.325787e-01
-8.000018e-01
-8.692663e-01
-9.402507e-01
-1.012837e+00
-1.086909e+00
-1.162340e+00
-1.238981e+00
-1.316624e+00
-1.394949e+00
-1.473449e+00
-1.551352e+00
-1.627572e+00
-1.700765e+00
-1.769494e+00
0.000000e+00
-6.341786e-03
-1.847504e-02
-3.595102e-02
-5.830643e-02
-8.511803e-02
-1.160289e-01
-1.507501e-01
-1.890483e-01
-2.307298e-01
-2.756268e-01
-3.235865e-01
-3.744652e-01
-4.281240e-01
-4.844263e-01
-5.432366e-01
-6.044204e-01
-6.678433e-01
-7.333713e-01
-8.008704e-01
-8.702062e-01
-9.412424e-01
-1.013838e+00
-1.087842e+00
-1.163084e+00
-1.239354e+00
-1.316379e+00
-1.393784e+00
-1.471048e+00
-1.547467e+00
-1.622147e+00
-1.694047e+00
-1.762070e+00
0.000000e+00
-6.663326e-03
-1.916272e-02
-3.697456e-02
-5.958588e-02
-8.655874e-02
-1.175480e-01
-1.522881e-01
-1.905686e-01
-2.322135e-01
-2.770667e-01
-3.249831e-01
-3.758234e-01
-4.294515e-01
-4.857325e-01
-5.445320e-01
-6.057155e-01
-6.691474e-01
-7.346909e-01
-8.022060e-01
-8.715485e-01
-9.425669e-01
-1.015098e+00
-1.088961e+00
-1.163946e+00
-1.239801e+00
-1.316213e+00
-1.392785e+00
-1.469018e+00
-1.544294e+00
-1.617892e+00
-1.689008e+00
-1.756800e+00
0.000000e+00
-7.251253e-03
-2.040587e-02
-3.879409e-02
-6.181811e-02
-8.902896e-02
-1.201166e-01
-1.548615e-01
-1.930926e-01
-2.346602e-01
-2.794247e-01
-3.272506e-01
-3.780041e-01
-4.315519e-01
-4.877608e-01
-5.464969e-01
-6.076255e-01
-6.710095e-01
-7.365085e-01
-8.039772e-01
-8.732617e-01
-9.441968e-01
-1.016600e+00
-1.090266e+00
-1.164955e+00
-1.240386e+00
-1.316223e+00
-1.392070e+00
-1.467459e+00
-1.541865e+00
-1.614715e+00
-1.685413e+00
-1.753345e+00
0.000000e+00
-8.199455e-03
-2.237509e-02
-4.159578e-02
-6.515110e-02
-9.262170e-02
-1.237814e-01
-1.584888e-01
-1.966231e-01
-2.380654e-01
-2.826933e-01
-3.303805e-01
-3.809981e-01
-4.344153e-01
-4.904999e-01
-5.491185e-01
-6.101353e-01
-6.734120e-01
-7.388050e-01
-8.061639e-01
-8.753270e-01
-9.461180e-01
-1.018339e+00
-1.091766e+00
-1.166140e+00
-1.241160e+00
-1.316480e+00
-1.391709e+00
-1.466417e+00
-1.540160e+00
-1.612498e+00
-1.683027e+00
-1.751368e+00
0.000000e+00
-9.691605e-03
-2.537905e-02
-4.566941e-02
-6.977474e-02
-9.742810e-02
-1.285788e-01
-1.631781e-01
-2.011566e-01
-2.424216e-01
-2.868643e-01
-3.343653e-01
-3.847990e-01
-4.380359e-01
-4.939443e-01
-5.523906e-01
-6.132383e-01
-6.763474e-01
-7.415722e-01
-8.087579e-01
-8.777376e-01
-9.483267e-01
-1.020318e+00
-1.093473e+00
-1.167522e+00
-1.242153e+00
-1.317016e+00
-1.391728e+00
-1.465892e+00
-1.539126e+00
-1.611104e+00
-1.681602e+00
-1.750506e+00
0.000000e+00
-1.210673e-02
-2.997472e-02
-5.140804e-02
-7.582747e-02
-1.034903e-01
-1.345098e-01
-1.689187e-01
-2.066806e-01
-2.477186e-01
-2.919307e-01
-3.392010e-01
-3.894049e-01
-4.424137e-01
-4.980954e-01
-5.563158e-01
-6.169376e-01
-6.798197e-01
-7.448142e-01
-8.117641e-01
-8.804987e-01
-9.508287e-01
-1.022541e+00
-1.095392e+00
-1.169106e+00
-1.243365e+00
-1.317823e+00
-1.392104e+00
-1.465833e+00
-1.538673e+00
-1.610381e+00
-1.680886e+00
-1.750355e+00
0.000000e+00
-1.648777e-02
-3.718711e-02
-5.891709e-02
-8.329441e-02
-1.107556e-01
-1.415333e-01
-1.756831e-01
-2.131793e-01
-2.539483e-01
-2.978900e-01
-3.448888e-01
-3.948205e-01
-4.475560e-01
-5.029628e-01
-5.609062e-01
-6.212479e-01
-6.838456e-01
-7.485500e-01
-8.152024e-01
-8.836300e-01
-9.536415e-01
-1.025022e+00
-1.097527e+00
-1.170879e+00
-1.244765e+00
-1.318842e+00
-1.392746e+00
-1.466120e+00
-1.538652e+00
-1.610146e+00
-1.680627e+00
-1.750483e+00
0.000000e+00
-2.653864e-02
-4.631433e-02
-6.789965e-02
-9.194295e-02
-1.191103e-01
-1.495930e-01
-1.834478e-01
-2.206456e-01
-2.611126e-01
-3.047485e-01
-3.514383e-01
-4.010577e-01
-4.534775e-01
-5.085648e-01
-5.661839e-01
-6.261958e-01
-6.884565e-01
-7.528152e-01
-8.191115e-01
-8.871710e-01
-9.568015e-01
-1.027788e+00