TITLE = "Solution"
VARIABLES = x, y, u, v, psiu, psiv, t, stress
ZONE T="structure" N=561 E=512 F=FEBLOCK ET=QUADRILATERAL VARLOCATION=([7,8]=cellcentered)
0.000000e+00
6.250000e+00
1.250000e+01
1.875000e+01
2.500000e+01
3.125000e+01
3.750000e+01
4.375000e+01
5.000000e+01
5.625000e+01
6.250000e+01
6.875000e+01
7.500000e+01
8.125000e+01
8.750000e+01
9.375000e+01
1.000000e+02
1.062500e+02
1.125000e+02
1.187500e+02
1.250000e+02
1.312500e+02
1.375000e+02
1.437500e+02
1.500000e+02
1.562500e+02
1.625000e+02
1.687500e+02
1.750000e+02
1.812500e+02
1.875000e+02
1.937500e+02
2.000000e+02
0.000000e+00
6.250000e+00
1.250000e+01
1.875000e+01
2.500000e+01
3.125000e+01
3.750000e+01
4.375000e+01
5.000000e+01
5.625000e+01
6.250000e+01
6.875000e+01
7.500000e+01
8.125000e+01
8.750000e+01
9.375000e+01
1.000000e+02
1.062500e+02
1.125000e+02
1.187500e+02
1.250000e+02
1.312500e+02
1.375000e+02
1.437500e+02
1.500000e+02
1.562500e+02
1.625000e+02
1.687500e+02
1.750000e+02
1.812500e+02
1.875000e+02
1.937500e+02
2.000000e+02
0.000000e+00
6.250000e+00
1.250000e+01
1.875000e+01
2.500000e+01
3.125000e+01
3.750000e+01
4.375000e+01
5.000000e+01
5.625000e+01
6.250000e+01
6.875000e+01
7.500000e+01
8.125000e+01
8.750000e+01
9.375000e+01
1.000000e+02
1.062500e+02
1.125000e+02
1.187500e+02
1.250000e+02
1.312500e+02
1.375000e+02
1.437500e+02
1.500000e+02
1.562500e+02
1.625000e+02
1.687500e+02
1.750000e+02
1.812500e+02
1.875000e+02
1.937500e+02
2.000000e+02
0.000000e+00
6.250000e+00
1.250000e+01
1.875000e+01
2.500000e+01
3.125000e+01
3.750000e+01
4.375000e+01
5.000000e+01
5.625000e+01
6.250000e+01
6.875000e+01
7.500000e+01
8.125000e+01
8.750000e+01
9.375000e+01
1.000000e+02
1.062500e+02
1.125000e+02
1.187500e+02
1.250000e+02
1.312500e+02
1.375000e+02
1.437500e+02
1.500000e+02
1.562500e+02
1.625000e+02
1.687500e+02
1.750000e+02
1.812500e+02
1.875000e+02
1.937500e+02
2.000000e+02
0.000000e+00
6.250000e+00
1.250000e+01
1.875000e+01
2.500000e+01
3.125000e+01
3.750000e+01
4.375000e+01
5.000000e+01
5.625000e+01
6.250000e+01
6.875000e+01
7.500000e+01
8.125000e+01
8.750000e+01
9.375000e+01
1.000000e+02
1.062500e+02
1.125000e+02
1.187500e+02
1.250000e+02
1.312500e+02
1.375000e+02
1.437500e+02
1.500000e+02
1.562500e+02
1.625000e+02
1.687500e+02
1.750000e+02
1.812500e+02
1.875000e+02
1.937500e+02
2.000000e+02
0.000000e+00
6.250000e+00
1.250000e+01
1.875000e+01
2.500000e+01
3.125000e+01
3.750000e+01
4.375000e+01
5.000000e+01
5.625000e+01
6.250000e+01
6.875000e+01
7.500000e+01
8.125000e+01
8.750000e+01
9.375000e+01
1.000000e+02
1.062500e+02
1.125000e+02
1.187500e+02
1.250000e+02
1.312500e+02
1.375000e+02
1.437500e+02
1.500000e+02
1.562500e+02
1.625000e+02
1.687500e+02
1.750000e+02
1.812500e+02
1.875000e+02
1.937500e+02
2.000000e+02
0.000000e+00
6.250000e+00
1.250000e+01
1.875000e+01
2.500000e+01
3.125000e+01
3.750000e+01
4.375000e+01
5.000000e+01
5.625000e+01
6.250000e+01
6.875000e+01
7.500000e+01
8.125000e+01
8.750000e+01
9.375000e+01
1.000000e+02
1.062500e+02
1.125000e+02
1.187500e+02
1.250000e+02
1.312500e+02
1.375000e+02
1.437500e+02
1.500000e+02
1.562500e+02
1.625000e+02
1.687500e+02
1.750000e+02
1.812500e+02
1.875000e+02
1.937500e+02
2.000000e+02
0.000000e+00
6.250000e+00
1.250000e+01
1.875000e+01
2.500000e+01
3.125000e+01
3.750000e+01
4.375000e+01
5.000000e+01
5.625000e+01
6.250000e+01
6.875000e+01
7.500000e+01
8.125000e+01
8.750000e+01
9.375000e+01
1.000000e+02
1.062500e+02
1.125000e+02
1.187500e+02
1.250000e+02
1.312500e+02
1.375000e+02
1.437500e+02
1.500000e+02
1.562500e+02
1.625000e+02
1.687500e+02
1.750000e+02
1.812500e+02
1.875000e+02
1.937500e+02
2.000000e+02
0.000000e+00
6.250000e+00
1.250000e+01
1.875000e+01
2.500000e+01
3.125000e+01
3.750000e+01
4.375000e+01
5.000000e+01
5.625000e+01
6.250000e+01
6.875000e+01
7.500000e+01
8.125000e+01
8.750000e+01
9.375000e+01
1.000000e+02
1.062500e+02
1.125000e+02
1.187500e+02
1.250000e+02
1.312500e+02
1.375000e+02
1.437500e+02
1.500000e+02
1.562500e+02
1.625000e+02
1.687500e+02
1.750000e+02
1.812500e+02
1.875000e+02
1.937500e+02
2.000000e+02
0.000000e+00
6.250000e+00
1.250000e+01
1.875000e+01
2.500000e+01
3.125000e+01
3.750000e+01
4.375000e+01
5.000000e+01
5.625000e+01
6.250000e+01
6.875000e+01
7.500000e+01
8.125000e+01
8.750000e+01
9.375000e+01
1.000000e+02
1.062500e+02
1.125000e+02
1.187500e+02
1.250000e+02
1.312500e+02
1.375000e+02
1.437500e+02
1.500000e+02
1.562500e+02
1.625000e+02
1.687500e+02
1.750000e+02
1.812500e+02
1.875000e+02
1.937500e+02
2.000000e+02
0.000000e+00
6.250000e+00
1.250000e+01
1.875000e+01
2.500000e+01
3.125000e+01
3.750000e+01
4.375000e+01
5.000000e+01
5.625000e+01
6.250000e+01
6.875000e+01
7.500000e+01
8.125000e+01
8.750000e+01
9.375000e+01
1.000000e+02
1.062500e+02
1.125000e+02
1.187500e+02
1.250000e+02
1.312500e+02
1.375000e+02
1.437500e+02
1.500000e+02
1.562500e+02
1.625000e+02
1.687500e+02
1.750000e+02
1.812500e+02
1.875000e+02
1.937500e+02
2.000000e+02
0.000000e+00
6.250000e+00
1.250000e+01
1.875000e+01
2.500000e+01
3.125000e+01
3.750000e+01
4.375000e+01
5.000000e+01
5.625000e+01
6.250000e+01
6.875000e+01
7.500000e+01
8.125000e+01
8.750000e+01
9.375000e+01
1.000000e+02
1.062500e+02
1.125000e+02
1.187500e+02
1.250000e+02
1.312500e+02
1.375000e+02
1.437500e+02
1.500000e+02
1.562500e+02
1.625000e+02
1.687500e+02
1.750000e+02
1.812500e+02
1.875000e+02
1.937500e+02
2.000000e+02
0.000000e+00
6.250000e+00
1.250000e+01
1.875000e+01
2.500000e+01
3.125000e+01
3.750000e+01
4.375000e+01
5.000000e+01
5.625000e+01
6.250000e+01
6.875000e+01
7.500000e+01
8.125000e+01
8.750000e+01
9.375000e+01
1.000000e+02
1.062500e+02
1.125000e+02
1.187500e+02
1.250000e+02
1.312500e+02
1.375000e+02
1.437500e+02
1.500000e+02
1.562500e+02
1.625000e+02
1.687500e+02
1.750000e+02
1.812500e+02
1.875000e+02
1.937500e+02
2.000000e+02
0.000000e+00
6.250000e+00
1.250000e+01
1.875000e+01
2.500000e+01
3.125000e+01
3.750000e+01
4.375000e+01
5.000000e+01
5.625000e+01
6.250000e+01
6.875000e+01
7.500000e+01
8.125000e+01
8.750000e+01
9.375000e+01
1.000000e+02
1.062500e+02
1.125000e+02
1.187500e+02
1.250000e+02
1.312500e+02
1.375000e+02
1.437500e+02
1.500000e+02
1.562500e+02
1.625000e+02
1.687500e+02
1.750000e+02
1.812500e+02
1.875000e+02
1.937500e+02
2.000000e+02
0.000000e+00
6.250000e+00
1.250000e+01
1.875000e+01
2.500000e+01
3.125000e+01
3.750000e+01
4.375000e+01
5.000000e+01
5.625000e+01
6.250000e+01
6.875000e+01
7.500000e+01
8.125000e+01
8.750000e+01
9.375000e+01
1.000000e+02
1.062500e+02
1.125000e+02
1.187500e+02
1.250000e+02
1.312500e+02
1.375000e+02
1.437500e+02
1.500000e+02
1.562500e+02
1.625000e+02
1.687500e+02
1.750000e+02
1.812500e+02
1.875000e+02
1.937500e+02
2.000000e+02
0.000000e+00
6.250000e+00
1.250000e+01
1.875000e+01
2.500000e+01
3.125000e+01
3.750000e+01
4.375000e+01
5.000000e+01
5.625000e+01
6.250000e+01
6.875000e+01
7.500000e+01
8.125000e+01
8.750000e+01
9.375000e+01
1.000000e+02
1.062500e+02
1.125000e+02
1.187500e+02
1.250000e+02
1.312500e+02
1.375000e+02
1.437500e+02
1.500000e+02
1.562500e+02
1.625000e+02
1.687500e+02
1.750000e+02
1.812500e+02
1.875000e+02
1.937500e+02
2.000000e+02
0.000000e+00
6.250000e+00
1.250000e+01
1.875000e+01
2.500000e+01
3.125000e+01
3.750000e+01
4.375000e+01
5.000000e+01
5.625000e+01
6.250000e+01
6.875000e+01
7.500000e+01
8.125000e+01
8.750000e+01
9.375000e+01
1.000000e+02
1.062500e+02
1.125000e+02
1.187500e+02
1.250000e+02
1.312500e+02
1.375000e+02
1.437500e+02
1.500000e+02
1.562500e+02
1.625000e+02
1.687500e+02
1.750000e+02
1.812500e+02
1.875000e+02
1.937500e+02
2.000000e+02
0.000000e+00
0.000000e+00
0.000000e+00
0.000000e+00
0.000000e+00
0.000000e+00
0.000000e+00
0.000000e+00
0.000000e+00
0.000000e+00
0.000000e+00
0.000000e+00
0.000000e+00
0.000000e+00
0.000000e+00
0.000000e+00
0.000000e+00
0.000000e+00
0.000000e+00
0.000000e+00
0.000000e+00
0.000000e+00
0.000000e+00
0.000000e+00
0.000000e+00
0.000000e+00
0.000000e+00
0.000000e+00
0.000000e+00
0.000000e+00
0.000000e+00
0.000000e+00
0.000000e+00
6.250000e+00
6.250000e+00
6.250000e+00
6.250000e+00
6.250000e+00
6.250000e+00
6.250000e+00
6.250000e+00
6.250000e+00
6.250000e+00
6.250000e+00
6.250000e+00
6.250000e+00
6.250000e+00
6.250000e+00
6.250000e+00
6.250000e+00
6.250000e+00
6.250000e+00
6.250000e+00
6.250000e+00
6.250000e+00
6.250000e+00
6.250000e+00
6.250000e+00
6.250000e+00
6.250000e+00
6.250000e+00
6.250000e+00
6.250000e+00
6.250000e+00
6.250000e+00
6.250000e+00
1.250000e+01
1.250000e+01
1.250000e+01
1.250000e+01
1.250000e+01
1.250000e+01
1.250000e+01
1.250000e+01
1.250000e+01
1.250000e+01
1.250000e+01
1.250000e+01
1.250000e+01
1.250000e+01
1.250000e+01
1.250000e+01
1.250000e+01
1.250000e+01
1.250000e+01
1.250000e+01
1.250000e+01
1.250000e+01
1.250000e+01
1.250000e+01
1.250000e+01
1.250000e+01
1.250000e+01
1.250000e+01
1.250000e+01
1.250000e+01
1.250000e+01
1.250000e+01
1.250000e+01
1.875000e+01
1.875000e+01
1.875000e+01
1.875000e+01
1.875000e+01
1.875000e+01
1.875000e+01
1.875000e+01
1.875000e+01
1.875000e+01
1.875000e+01
1.875000e+01
1.875000e+01
1.875000e+01
1.875000e+01
1.875000e+01
1.875000e+01
1.875000e+01
1.875000e+01
1.875000e+01
1.875000e+01
1.875000e+01
1.875000e+01
1.875000e+01
1.875000e+01
1.875000e+01
1.875000e+01
1.875000e+01
1.875000e+01
1.875000e+01
1.875000e+01
1.875000e+01
1.875000e+01
2.500000e+01
2.500000e+01
2.500000e+01
2.500000e+01
2.500000e+01
2.500000e+01
2.500000e+01
2.500000e+01
2.500000e+01
2.500000e+01
2.500000e+01
2.500000e+01
2.500000e+01
2.500000e+01
2.500000e+01
2.500000e+01
2.500000e+01
2.500000e+01
2.500000e+01
2.500000e+01
2.500000e+01
2.500000e+01
2.500000e+01
2.500000e+01
2.500000e+01
2.500000e+01
2.500000e+01
2.500000e+01
2.500000e+01
2.500000e+01
2.500000e+01
2.500000e+01
2.500000e+01
3.125000e+01
3.125000e+01
3.125000e+01
3.125000e+01
3.125000e+01
3.125000e+01
3.125000e+01
3.125000e+01
3.125000e+01
3.125000e+01
3.125000e+01
3.125000e+01
3.125000e+01
3.125000e+01
3.125000e+01
3.125000e+01
3.125000e+01
3.125000e+01
3.125000e+01
3.125000e+01
3.125000e+01
3.125000e+01
3.125000e+01
3.125000e+01
3.125000e+01
3.125000e+01
3.125000e+01
3.125000e+01
3.125000e+01
3.125000e+01
3.125000e+01
3.125000e+01
3.125000e+01
3.750000e+01
3.750000e+01
3.750000e+01
3.750000e+01
3.750000e+01
3.750000e+01
3.750000e+01
3.750000e+01
3.750000e+01
3.750000e+01
3.750000e+01
3.750000e+01
3.750000e+01
3.750000e+01
3.750000e+01
3.750000e+01
3.750000e+01
3.750000e+01
3.750000e+01
3.750000e+01
3.750000e+01
3.750000e+01
3.750000e+01
3.750000e+01
3.750000e+01
3.750000e+01
3.750000e+01
3.750000e+01
3.750000e+01
3.750000e+01
3.750000e+01
3.750000e+01
3.750000e+01
4.375000e+01
4.375000e+01
4.375000e+01
4.375000e+01
4.375000e+01
4.375000e+01
4.375000e+01
4.375000e+01
4.375000e+01
4.375000e+01
4.375000e+01
4.375000e+01
4.375000e+01
4.375000e+01
4.375000e+01
4.375000e+01
4.375000e+01
4.375000e+01
4.375000e+01
4.375000e+01
4.375000e+01
4.375000e+01
4.375000e+01
4.375000e+01
4.375000e+01
4.375000e+01
4.375000e+01
4.375000e+01
4.375000e+01
4.375000e+01
4.375000e+01
4.375000e+01
4.375000e+01
5.000000e+01
5.000000e+01
5.000000e+01
5.000000e+01
5.000000e+01
5.000000e+01
5.000000e+01
5.000000e+01
5.000000e+01
5.000000e+01
5.000000e+01
5.000000e+01
5.000000e+01
5.000000e+01
5.000000e+01
5.000000e+01
5.000000e+01
5.000000e+01
5.000000e+01
5.000000e+01
5.000000e+01
5.000000e+01
5.000000e+01
5.000000e+01
5.000000e+01
5.000000e+01
5.000000e+01
5.000000e+01
5.000000e+01
5.000000e+01
5.000000e+01
5.000000e+01
5.000000e+01
5.625000e+01
5.625000e+01
5.625000e+01
5.625000e+01
5.625000e+01
5.625000e+01
5.625000e+01
5.625000e+01
5.625000e+01
5.625000e+01
5.625000e+01
5.625000e+01
5.625000e+01
5.625000e+01
5.625000e+01
5.625000e+01
5.625000e+01
5.625000e+01
5.625000e+01
5.625000e+01
5.625000e+01
5.625000e+01
5.625000e+01
5.625000e+01
5.625000e+01
5.625000e+01
5.625000e+01
5.625000e+01
5.625000e+01
5.625000e+01
5.625000e+01
5.625000e+01
5.625000e+01
6.250000e+01
6.250000e+01
6.250000e+01
6.250000e+01
6.250000e+01
6.250000e+01
6.250000e+01
6.250000e+01
6.250000e+01
6.250000e+01
6.250000e+01
6.250000e+01
6.250000e+01
6.250000e+01
6.250000e+01
6.250000e+01
6.250000e+01
6.250000e+01
6.250000e+01
6.250000e+01
6.250000e+01
6.250000e+01
6.250000e+01
6.250000e+01
6.250000e+01
6.250000e+01
6.250000e+01
6.250000e+01
6.250000e+01
6.250000e+01
6.250000e+01
6.250000e+01
6.250000e+01
6.875000e+01
6.875000e+01
6.875000e+01
6.875000e+01
6.875000e+01
6.875000e+01
6.875000e+01
6.875000e+01
6.875000e+01
6.875000e+01
6.875000e+01
6.875000e+01
6.875000e+01
6.875000e+01
6.875000e+01
6.875000e+01
6.875000e+01
6.875000e+01
6.875000e+01
6.875000e+01
6.875000e+01
6.875000e+01
6.875000e+01
6.875000e+01
6.875000e+01
6.875000e+01
6.875000e+01
6.875000e+01
6.875000e+01
6.875000e+01
6.875000e+01
6.875000e+01
6.875000e+01
7.500000e+01
7.500000e+01
7.500000e+01
7.500000e+01
7.500000e+01
7.500000e+01
7.500000e+01
7.500000e+01
7.500000e+01
7.500000e+01
7.500000e+01
7.500000e+01
7.500000e+01
7.500000e+01
7.500000e+01
7.500000e+01
7.500000e+01
7.500000e+01
7.500000e+01
7.500000e+01
7.500000e+01
7.500000e+01
7.500000e+01
7.500000e+01
7.500000e+01
7.500000e+01
7.500000e+01
7.500000e+01
7.500000e+01
7.500000e+01
7.500000e+01
7.500000e+01
7.500000e+01
8.125000e+01
8.125000e+01
8.125000e+01
8.125000e+01
8.125000e+01
8.125000e+01
8.125000e+01
8.125000e+01
8.125000e+01
8.125000e+01
8.125000e+01
8.125000e+01
8.125000e+01
8.125000e+01
8.125000e+01
8.125000e+01
8.125000e+01
8.125000e+01
8.125000e+01
8.125000e+01
8.125000e+01
8.125000e+01
8.125000e+01
8.125000e+01
8.125000e+01
8.125000e+01
8.125000e+01
8.125000e+01
8.125000e+01
8.125000e+01
8.125000e+01
8.125000e+01
8.125000e+01
8.750000e+01
8.750000e+01
8.750000e+01
8.750000e+01
8.750000e+01
8.750000e+01
8.750000e+01
8.750000e+01
8.750000e+01
8.750000e+01
8.750000e+01
8.750000e+01
8.750000e+01
8.750000e+01
8.750000e+01
8.750000e+01
8.750000e+01
8.750000e+01
8.750000e+01
8.750000e+01
8.750000e+01
8.750000e+01
8.750000e+01
8.750000e+01
8.750000e+01
8.750000e+01
8.750000e+01
8.750000e+01
8.750000e+01
8.750000e+01
8.750000e+01
8.750000e+01
8.750000e+01
9.375000e+01
9.375000e+01
9.375000e+01
9.375000e+01
9.375000e+01
9.375000e+01
9.375000e+01
9.375000e+01
9.375000e+01
9.375000e+01
9.375000e+01
9.375000e+01
9.375000e+01
9.375000e+01
9.375000e+01
9.375000e+01
9.375000e+01
9.375000e+01
9.375000e+01
9.375000e+01
9.375000e+01
9.375000e+01
9.375000e+01
9.375000e+01
9.375000e+01
9.375000e+01
9.375000e+01
9.375000e+01
9.375000e+01
9.375000e+01
9.375000e+01
9.375000e+01
9.375000e+01
1.000000e+02
1.000000e+02
1.000000e+02
1.000000e+02
1.000000e+02
1.000000e+02
1.000000e+02
1.000000e+02
1.000000e+02
1.000000e+02
1.000000e+02
1.000000e+02
1.000000e+02
1.000000e+02
1.000000e+02
1.000000e+02
1.000000e+02
1.000000e+02
1.000000e+02
1.000000e+02
1.000000e+02
1.000000e+02
1.000000e+02
1.000000e+02
1.000000e+02
1.000000e+02
1.000000e+02
1.000000e+02
1.000000e+02
1.000000e+02
1.000000e+02
1.000000e+02
1.000000e+02
0.000000e+00
-3.969447e-02
-7.202033e-02
-1.019657e-01
-1.307048e-01
-1.584567e-01
-1.852773e-01
-2.111640e-01
-2.361007e-01
-2.600691e-01
-2.830542e-01
-3.050457e-01
-3.260383e-01
-3.460314e-01
-3.650297e-01
-3.830434e-01
-4.000884e-01
-4.161883e-01
-4.313753e-01
-4.456933e-01
-4.592004e-01
-4.719736e-01
-4.841147e-01
-4.957586e-01
-5.070862e-01
-5.183434e-01
-5.298714e-01
-5.421572e-01
-5.559148e-01
-5.721953e-01
-5.923619e-01
-6.163951e-01
-6.310621e-01
0.000000e+00
-2.661407e-02
-5.537344e-02
-8.248973e-02
-1.082627e-01
-1.329378e-01
-1.566453e-01
-1.794424e-01
-2.013518e-01
-2.223807e-01
-2.425307e-01
-2.618018e-01
-2.801948e-01
-2.977128e-01
-3.143615e-01
-3.301502e-01
-3.450924e-01
-3.592065e-01
-3.725169e-01
-3.850555e-01
-3.968627e-01
-4.079897e-01
-4.184998e-01
-4.284704e-01
-4.379944e-01
-4.471784e-01
-4.561348e-01
-4.649563e-01
-4.736424e-01
-4.819103e-01
-4.887998e-01
-4.928277e-01
-4.984352e-01
0.000000e+00
-2.111035e-02
-4.346073e-02
-6.621697e-02
-8.832899e-02
-1.096261e-01
-1.300948e-01
-1.497544e-01
-1.686223e-01
-1.867103e-01
-2.040263e-01
-2.205755e-01
-2.363626e-01
-2.513922e-01
-2.656699e-01
-2.792025e-01
-2.919990e-01
-3.040704e-01
-3.154301e-01
-3.260945e-01
-3.360821e-01
-3.454131e-01
-3.541075e-01
-3.621807e-01
-3.696358e-01
-3.764490e-01
-3.825423e-01
-3.877363e-01
-3.916798e-01
-3.938033e-01
-3.936171e-01
-3.924247e-01
-3.989728e-01
0.000000e+00
-1.674919e-02
-3.442340e-02
-5.258145e-02
-7.069694e-02
-8.837363e-02
-1.054602e-01
-1.219022e-01
-1.376851e-01
-1.528081e-01
-1.672753e-01
-1.810913e-01
-1.942610e-01
-2.067883e-01
-2.186771e-01
-2.299307e-01
-2.405521e-01
-2.505441e-01
-2.599088e-01
-2.686466e-01
-2.767554e-01
-2.842276e-01
-2.910469e-01
-2.971813e-01
-3.025743e-01
-3.071306e-01
-3.106995e-01
-3.130629e-01
-3.139653e-01
-3.132954e-01
-3.116684e-01
-3.115713e-01
-3.178100e-01
0.000000e+00
-1.299971e-02
-2.661897e-02
-4.067330e-02
-5.484180e-02
-6.883652e-02
-8.246437e-02
-9.562758e-02
-1.082817e-01
-1.204097e-01
-1.320069e-01
-1.430742e-01
-1.536135e-01
-1.636266e-01
-1.731141e-01
-1.820753e-01
-1.905073e-01
-1.984051e-01
-2.057604e-01
-2.125610e-01
-2.187886e-01
-2.244165e-01
-2.294063e-01
-2.337032e-01
-2.372312e-01
-2.398904e-01
-2.415638e-01
-2.421509e-01
-2.416693e-01
-2.404909e-01
-2.397264e-01
-2.414918e-01
-2.468137e-01
0.000000e+00
-9.554030e-03
-1.951739e-02
-2.980084e-02
-4.022670e-02
-5.060035e-02
-6.076728e-02
-7.062707e-02
-8.012459e-02
-8.923305e-02
-9.794112e-02
-1.062448e-01
-1.141428e-01
-1.216335e-01
-1.287142e-01
-1.353799e-01
-1.416225e-01
-1.474308e-01
-1.527890e-01
-1.576761e-01
-1.620647e-01
-1.659190e-01
-1.691942e-01
-1.718352e-01
-1.737794e-01
-1.749657e-01
-1.753593e-01
-1.750061e-01
-1.741355e-01
-1.733073e-01
-1.735090e-01
-1.757595e-01
-1.801630e-01
0.000000e+00
-6.287700e-03
-1.282411e-02
-1.956787e-02
-2.642282e-02
-3.327356e-02
-4.001680e-02
-4.657721e-02
-5.290767e-02
-5.898218e-02
-6.478759e-02
-7.031729e-02
-7.556706e-02
-8.053252e-02
-8.520768e-02
-8.958398e-02
-9.364963e-02
-9.738900e-02
-1.007820e-01
-1.038037e-01
-1.064237e-01
-1.086064e-01
-1.103123e-01
-1.115010e-01
-1.121398e-01
-1.122190e-01
-1.117823e-01
-1.109742e-01
-1.101022e-01
-1.096795e-01
-1.103390e-01
-1.125301e-01
-1.160847e-01
0.000000e+00
-3.123099e-03
-6.364269e-03
-9.706851e-03
-1.310863e-02
-1.651587e-02
-1.987753e-02
-2.315368e-02
-2.631734e-02
-2.935203e-02
-3.224798e-02
-3.499873e-02
-3.759865e-02
-4.004130e-02
-4.231835e-02
-4.441886e-02
-4.632875e-02
-4.803039e-02
-4.950237e-02
-5.071964e-02
-5.165405e-02
-5.227603e-02
-5.255778e-02
-5.247941e-02
-5.203939e-02
-5.127128e-02
-5.026805e-02
-4.921097e-02
-4.839037e-02
-4.818481e-02
-4.895856e-02
-5.087003e-02
-5.369049e-02
0.000000e+00
-5.038806e-06
-1.092557e-05
-1.733417e-05
-2.392752e-05
-3.025111e-05
-3.561994e-05
-3.899310e-05
-3.882709e-05
-3.289935e-05
-1.809514e-05
9.845878e-06
5.662294e-05
1.297011e-04
2.386557e-04
3.955052e-04
6.149801e-04
9.146451e-04
1.314742e-03
1.837557e-03
2.505999e-03
3.340982e-03
4.356990e-03
5.555125e-03
6.912941e-03
8.370962e-03
9.817556e-03
1.107788e-02
1.191919e-02
1.208981e-02
1.140283e-02
9.847058e-03
7.668111e-03
0.000000e+00
3.113608e-03
6.343648e-03
9.674069e-03
1.306327e-02
1.645836e-02
1.980956e-02
2.307889e-02
2.624223e-02
2.928727e-02
3.221008e-02
3.501219e-02
3.769869e-02
4.027719e-02
4.275744e-02
4.515121e-02
4.747234e-02
4.973658e-02
5.196120e-02
5.416398e-02
5.636137e-02
5.856548e-02
6.077944e-02
6.299097e-02
6.516412e-02
6.723031e-02
6.908139e-02
7.057021e-02
7.152682e-02
7.179764e-02
7.130715e-02
7.012531e-02
6.850810e-02
0.000000e+00
6.279947e-03
1.280714e-02
1.954071e-02
2.638494e-02
3.322510e-02
3.995885e-02
4.651243e-02
5.284098e-02
5.892185e-02
6.474661e-02
7.031512e-02
7.563190e-02
8.070410e-02
8.554063e-02
9.015179e-02
9.454912e-02
9.874517e-02
1.027530e-01
1.065849e-01
1.102509e-01
1.137557e-01
1.170944e-01
1.202478e-01
1.231763e-01
1.258149e-01
1.280718e-01
1.298346e-01
1.309884e-01
1.314497e-01
1.312125e-01
1.303947e-01
1.292660e-01
0.000000e+00
9.549084e-03
1.950637e-02
2.978290e-02
4.020122e-02
5.056709e-02
6.072659e-02
7.058023e-02
8.007432e-02
8.918415e-02
9.790140e-02
1.062263e-01
1.141630e-01
1.217178e-01
1.288977e-01
1.357105e-01
1.421640e-01
1.482665e-01
1.540259e-01
1.594487e-01
1.645389e-01
1.692950e-01
1.737081e-01
1.777572e-01
1.814066e-01
1.846033e-01
1.872783e-01
1.893543e-01
1.907622e-01
1.914677e-01
1.915074e-01
1.910277e-01
1.903143e-01
0.000000e+00
1.299848e-02
2.661590e-02
4.066780e-02
5.483329e-02
6.882453e-02
8.244859e-02
9.560798e-02
1.082587e-01
1.203842e-01
1.319811e-01
1.430512e-01
1.535986e-01
1.636278e-01
1.731428e-01
1.821477e-01
1.906458e-01
1.986398e-01
2.061318e-01
2.131220e-01
2.196083e-01
2.255849e-01
2.310402e-01
2.359553e-01
2.403026e-01
2.440457e-01
2.471416e-01
2.495478e-01
2.512341e-01
2.522029e-01
2.525171e-01
2.523370e-01
2.519612e-01
0.000000e+00
1.675230e-02
3.442973e-02
5.259086e-02
7.070917e-02
8.838833e-02
1.054768e-01
1.219200e-01
1.377026e-01
1.528233e-01
1.672848e-01
1.810904e-01
1.942427e-01
2.067431e-01
2.185919e-01
2.297882e-01
2.403298e-01
2.502132e-01
2.594337e-01
2.679846e-01
2.758573e-01
2.830409e-01
2.895216e-01
2.952832e-01
3.003073e-01
3.045751e-01
3.080705e-01
3.107857e-01
3.127289e-01
3.139365e-01
3.144920e-01
3.145582e-01
3.144336e-01
0.000000e+00
2.111795e-02
4.347694e-02
6.624237e-02
8.836405e-02
1.096713e-01
1.301501e-01
1.498192e-01
1.686948e-01
1.867868e-01
2.041001e-01
2.206362e-01
2.363938e-01
2.513700e-01
2.655601e-01
2.789577e-01
2.915546e-01
3.033403e-01
3.143026e-01
3.244268e-01
3.336962e-01
3.420929e-01
3.495985e-01
3.561964e-01
3.618739e-01
3.666267e-01
3.704634e-01
3.734112e-01
3.755208e-01
3.768721e-01
3.775793e-01
3.778096e-01
3.778371e-01
0.000000e+00
2.662548e-02
5.539836e-02
8.252980e-02
1.083199e-01
1.330141e-01
1.567423e-01
1.795611e-01
2.014917e-01
2.225391e-01
2.427009e-01
2.619717e-01
2.803442e-01
2.978099e-01
3.143589e-01
3.299795e-01
3.446574e-01
3.583753e-01
3.711127e-01
3.828455e-01
3.935466e-01
4.031872e-01
4.117389e-01
4.191771e-01
4.254864e-01
4.306672e-01
4.347439e-01
4.377740e-01
4.398554e-01
4.411308e-01
4.417824e-01
4.420187e-01
4.420766e-01
0.000000e+00
3.970695e-02
7.204946e-02
1.020156e-01
1.307795e-01
1.585603e-01
1.854139e-01
2.113378e-01
2.363147e-01
2.603246e-01
2.833491e-01
3.053722e-01
3.263797e-01
3.463582e-01
3.652938e-01
3.831706e-01
3.999696e-01
4.156675e-01
4.302355e-01
4.436391e-01
4.558380e-01
4.667872e-01
4.764398e-01
4.847516e-01
4.916882e-01
4.972356e-01
5.014135e-01
5.042917e-01
5.060072e-01
5.067802e-01
5.069206e-01
5.068043e-01
5.067388e-01
0.000000e+00
-2.453042e-02
-4.281088e-02
-6.275926e-02
-8.497297e-02
-1.100656e-01
-1.382114e-01
-1.694595e-01
-2.037786e-01
-2.410953e-01
-2.813105e-01
-3.243106e-01
-3.699727e-01
-4.181692e-01
-4.687697e-01
-5.216429e-01
-5.766584e-01
-6.336880e-01
-6.926077e-01
-7.533010e-01
-8.156621e-01
-8.796024e-01
-9.450581e-01
-1.012004e+00
-1.080474e+00
-1.150594e+00
-1.222643e+00
-1.297166e+00
-1.375202e+00
-1.458811e+00
-1.552438e+00
-1.666569e+00
-1.824245e+00
0.000000e+00
-1.524472e-02
-3.437955e-02
-5.446249e-02
-7.698582e-02
-1.023510e-01
-1.307704e-01
-1.622920e-01
-1.968873e-01
-2.344829e-01
-2.749792e-01
-3.182615e-01
-3.642062e-01
-4.126843e-01
-4.635643e-01
-5.167136e-01
-5.720002e-01
-6.292939e-01
-6.884685e-01
-7.494043e-01
-8.119921e-01
-8.761385e-01
-9.417740e-01
-1.008866e+00
-1.077440e+00
-1.147609e+00
-1.219639e+00
-1.294056e+00
-1.371879e+00
-1.455133e+00
-1.548037e+00
-1.659628e+00
-1.806937e+00
0.000000e+00
-1.119813e-02
-2.771662e-02
-4.752561e-02
-7.008829e-02
-9.564042e-02
-1.242841e-01
-1.560459e-01
-1.908876e-01
-2.287323e-01
-2.694786e-01
-3.130111e-01
-3.592054e-01
-4.079323e-01
-4.590596e-01
-5.124543e-01
-5.679837e-01
-6.255169e-01
-6.849268e-01
-7.460929e-01
-8.089048e-01
-8.732685e-01
-9.391143e-01
-1.006411e+00
-1.075185e+00
-1.145559e+00
-1.217808e+00
-1.292473e+00
-1.370560e+00
-1.453893e+00
-1.545588e+00
-1.649328e+00
-1.764406e+00
0.000000e+00
-8.966985e-03
-2.347039e-02
-4.222306e-02
-6.449578e-02
-9.003997e-02
-1.188062e-01
-1.507459e-01
-1.857904e-01
-2.238485e-01
-2.648125e-01
-3.085641e-01
-3.549778e-01
-4.039241e-01
-4.552711e-01
-5.088861e-01
-5.646367e-01
-6.223926e-01
-6.820275e-01
-7.434216e-01
-8.064662e-01
-8.710694e-01
-9.371652e-01
-1.004727e+00
-1.073789e+00
-1.144478e+00
-1.217067e+00
-1.292055e+00
-1.370266e+00
-1.452899e+00
-1.541108e+00
-1.634139e+00
-1.720743e+00
0.000000e+00
-7.587544e-03
-2.069350e-02
-3.845762e-02
-6.022262e-02
-8.559933e-02
-1.143764e-01
-1.464199e-01
-1.816141e-01
-2.198441e-01
-2.609902e-01
-3.049285e-01
-3.515313e-01
-4.006688e-01
-4.522095e-01
-5.060217e-01
-5.619743e-01
-6.199384e-01
-6.797894e-01
-7.414097e-01
-8.046930e-01
-8.695500e-01
-9.359176e-01
-1.003771e+00
-1.073142e+00
-1.144141e+00
-1.216992e+00
-1.292054e+00
-1.369799e+00
-1.450610e+00
-1.534100e+00
-1.617204e+00
-1.692626e+00
0.000000e+00
-6.709793e-03
-1.887152e-02
-3.586641e-02
-5.714147e-02
-8.228047e-02
-1.109949e-01
-1.430795e-01
-1.783723e-01
-2.167310e-01
-2.580214e-01
-3.021120e-01
-3.488723e-01
-3.981716e-01
-4.498791e-01
-5.038645e-01
-5.599983e-01
-6.181537e-01
-6.782080e-01
-7.400454e-01
-8.035612e-01
-8.686666e-01
-9.352966e-01
-1.003419e+00
-1.073046e+00
-1.144244e+00
-1.217139e+00
-1.291889e+00
-1.368579e+00
-1.446952e+00
-1.525813e+00
-1.602345e+00
-1.672294e+00
0.000000e+00
-6.164281e-03
-1.771957e-02
-3.418207e-02
-5.507732e-02
-7.999970e-02
-1.086289e-01
-1.407174e-01
-1.760685e-01
-2.145164e-01
-2.559131e-01
-3.001202e-01
-3.470039e-01
-3.964332e-01
-4.482780e-01
-5.024093e-01
-5.586996e-01
-6.170237e-01
-6.772603e-01
-7.392944e-01
-8.030204e-01
-8.683460e-01
-9.351973e-01
-1.003524e+00
-1.073302e+00
-1.144534e+00
-1.217225e+00
-1.291333e+00
-1.366646e+00
-1.442549e+00
-1.517730e+00
-1.590022e+00
-1.656767e+00
0.000000e+00
-5.864514e-03
-1.708038e-02
-3.323291e-02
-5.389372e-02
-7.867116e-02
-1.072347e-01
-1.393161e-01
-1.746987e-01
-2.132018e-01
-2.546681e-01
-2.989545e-01
-3.459256e-01
-3.954499e-01
-4.473986e-01
-5.016441e-01
-5.580603e-01
-6.165232e-01
-6.769119e-01
-7.391102e-01
-8.030086e-01
-8.685068e-01
-9.355156e-01
-1.003958e+00
-1.073765e+00
-1.144865e+00
-1.217153e+00
-1.290432e+00
-1.364312e+00
-1.438065e+00
-1.510506e+00
-1.580007e+00
-1.644753e+00
0.000000e+00
-5.767930e-03
-1.687416e-02
-3.292527e-02
-5.350796e-02
-7.823636e-02
-1.067779e-01
-1.388589e-01
-1.742564e-01
-2.127852e-01
-2.542856e-01
-2.986132e-01
-3.456329e-01
-3.952142e-01
-4.472293e-01
-5.015521e-01
-5.580575e-01
-6.166219e-01
-6.771233e-01
-7.394426e-01
-8.034638e-01
-8.690748e-01
-9.361667e-01
-1.004631e+00
-1.074352e+00
-1.145192e+00
-1.216957e+00
-1.289353e+00
-1.361911e+00
-1.433916e+00
-1.504367e+00
-1.572019e+00
-1.635545e+00
0.000000e+00
-5.861720e-03
-1.707650e-02
-3.322957e-02
-5.389271e-02
-7.867471e-02
-1.072457e-01
-1.393385e-01
-1.747376e-01
-2.132639e-01
-2.547622e-01
-2.990914e-01
-3.461187e-01
-3.957156e-01
-4.477558e-01
-5.021142e-01
-5.586665e-01
-6.172883e-01
-6.778559e-01
-7.402455e-01
-8.043326e-01
-8.699914e-01
-9.370917e-01
-1.005494e+00
-1.075040e+00
-1.145536e+00
-1.216730e+00
-1.288276e+00
-1.359691e+00
-1.430325e+00
-1.499352e+00
-1.565810e+00
-1.628683e+00
0.000000e+00
-6.158920e-03
-1.771213e-02
-3.417563e-02
-5.507531e-02
-8.000635e-02
-1.086498e-01
-1.407601e-01
-1.761428e-01
-2.146352e-01
-2.560931e-01
-3.003823e-01
-3.473741e-01
-3.969426e-01
-4.489631e-01
-5.033116e-01
-5.598635e-01
-6.184938e-01
-6.790756e-01
-7.414799e-01
-8.055733e-01
-8.712157e-01
-9.382564e-01
-1.006528e+00
-1.075836e+00
-1.145949e+00
-1.216577e+00
-1.287353e+00
-1.357815e+00
-1.427393e+00
-1.495419e+00
-1.561152e+00
-1.623812e+00
0.000000e+00
-6.702342e-03
-1.886117e-02
-3.585742e-02
-5.713856e-02
-8.228958e-02
-1.110239e-01
-1.431387e-01
-1.784757e-01
-2.168967e-01
-2.582726e-01
-3.024781e-01
-3.493896e-01
-3.988839e-01
-4.508379e-01
-5.051278e-01
-5.616290e-01
-6.202148e-01
-6.807557e-01
-7.431170e-01
-8.071568e-01
-8.727222e-01
-9.396447e-01
-1.007734e+00
-1.076769e+00
-1.146490e+00
-1.216587e+00
-1.286692e+00
-1.356374e+00
-1.425148e+00
-1.492483e+00
-1.557829e+00
-1.620619e+00
0.000000e+00
-7.578767e-03
-2.068133e-02
-3.844703e-02
-6.021925e-02
-8.561036e-02
-1.144113e-01
-1.464914e-01
-1.817390e-01
-2.200442e-01
-2.612938e-01
-3.053711e-01
-3.521570e-01
-4.015306e-01
-4.533697e-01
-5.075508e-01
-5.639488e-01
-6.224355e-01
-6.828784e-01
-7.451382e-01
-8.090658e-01
-8.744979e-01
-9.412522e-01
-1.009121e+00
-1.077865e+00
-1.147206e+00
-1.216824e+00
-1.286358e+00
-1.355411e+00
-1.423572e+00
-1.490434e+00
-1.555623e+00
-1.618791e+00
0.000000e+00
-8.957964e-03
-2.345789e-02
-4.221229e-02
-6.449289e-02
-9.005292e-02
-1.188455e-01
-1.508257e-01
-1.859293e-01
-2.240706e-01
-2.651491e-01
-3.090543e-01
-3.556702e-01
-4.048771e-01
-4.565534e-01
-5.105753e-01
-5.668169e-01
-6.251487e-01
-6.854360e-01
-7.475359e-01
-8.112939e-01
-8.765394e-01
-9.430806e-01
-1.010699e+00
-1.079142e+00
-1.148124e+00
-1.217319e+00
-1.286376e+00
-1.354926e+00
-1.422616e+00
-1.489145e+00
-1.554306e+00
-1.617995e+00
0.000000e+00
-1.119027e-02
-2.770568e-02
-4.751652e-02
-7.008743e-02
-9.565618e-02
-1.243276e-01
-1.561318e-01
-1.910352e-01
-2.289666e-01
-2.698319e-01
-3.135239e-01
-3.599275e-01
-4.089235e-01
-4.603902e-01
-5.142033e-01
-5.702362e-01
-6.283581e-01
-6.884327e-01
-7.503145e-01
-8.138459e-01
-8.788520e-01
-9.451357e-01
-1.012472e+00
-1.080606e+00
-1.149244e+00
-1.218065e+00
-1.286723e+00
-1.354871e+00
-1.422197e+00
-1.488477e+00
-1.553644e+00
-1.617855e+00
0.000000e+00
-1.523967e-02
-3.437210e-02
-5.445714e-02
-7.698913e-02
-1.023716e-01
-1.308194e-01
-1.623841e-01
-1.970419e-01
-2.347247e-01
-2.753401e-01
-3.187811e-01
-3.649331e-01
-4.136765e-01
-4.648891e-01
-5.184462e-01
-5.742202e-01
-6.320793e-01
-6.918857e-01
-7.534925e-01
-8.167402e-01
-8.814520e-01
-9.474290e-01
-1.014445e+00
-1.082245e+00
-1.150538e+00
-1.219007e+00
-1.287317e+00
-1.355136e+00
-1.422178e+00
-1.488260e+00
-1.553405e+00
-1.617974e+00
0.000000e+00
-2.452971e-02
-4.280840e-02
-6.275974e-02
-8.498299e-02
-1.100938e-01
-1.382690e-01
-1.695610e-01
-2.039430e-01
-2.413467e-01
-2.816794e-01
-3.248348e-01
-3.706981e-01
-4.191498e-01
-4.700671e-01
-5.233245e-01
-5.787935e-01
-6.363411e-01
-6.958280e-01
-7.571057e-01
-8.200132e-01
-8.843727e-01
-9.499852e-01