TITLE = "Solution"
VARIABLES = x, y, u, v, psiu, psiv, t, stress
ZONE T="structure" N=561 E=512 F=FEBLOCK ET=QUADRILATERAL VARLOCATION=([7,8]=cellcentered)
0.000000e+00
6.250000e+00
1.250000e+01
1.875000e+01
2.500000e+01
3.125000e+01
3.750000e+01
4.375000e+01
5.000000e+01
5.625000e+01
6.250000e+01
6.875000e+01
7.500000e+01
8.125000e+01
8.750000e+01
9.375000e+01
1.000000e+02
1.062500e+02
1.125000e+02
1.187500e+02
1.250000e+02
1.312500e+02
1.375000e+02
1.437500e+02
1.500000e+02
1.562500e+02
1.625000e+02
1.687500e+02
1.750000e+02
1.812500e+02
1.875000e+02
1.937500e+02
2.000000e+02
0.000000e+00
6.250000e+00
1.250000e+01
1.875000e+01
2.500000e+01
3.125000e+01
3.750000e+01
4.375000e+01
5.000000e+01
5.625000e+01
6.250000e+01
6.875000e+01
7.500000e+01
8.125000e+01
8.750000e+01
9.375000e+01
1.000000e+02
1.062500e+02
1.125000e+02
1.187500e+02
1.250000e+02
1.312500e+02
1.375000e+02
1.437500e+02
1.500000e+02
1.562500e+02
1.625000e+02
1.687500e+02
1.750000e+02
1.812500e+02
1.875000e+02
1.937500e+02
2.000000e+02
0.000000e+00
6.250000e+00
1.250000e+01
1.875000e+01
2.500000e+01
3.125000e+01
3.750000e+01
4.375000e+01
5.000000e+01
5.625000e+01
6.250000e+01
6.875000e+01
7.500000e+01
8.125000e+01
8.750000e+01
9.375000e+01
1.000000e+02
1.062500e+02
1.125000e+02
1.187500e+02
1.250000e+02
1.312500e+02
1.375000e+02
1.437500e+02
1.500000e+02
1.562500e+02
1.625000e+02
1.687500e+02
1.750000e+02
1.812500e+02
1.875000e+02
1.937500e+02
2.000000e+02
0.000000e+00
6.250000e+00
1.250000e+01
1.875000e+01
2.500000e+01
3.125000e+01
3.750000e+01
4.375000e+01
5.000000e+01
5.625000e+01
6.250000e+01
6.875000e+01
7.500000e+01
8.125000e+01
8.750000e+01
9.375000e+01
1.000000e+02
1.062500e+02
1.125000e+02
1.187500e+02
1.250000e+02
1.312500e+02
1.375000e+02
1.437500e+02
1.500000e+02
1.562500e+02
1.625000e+02
1.687500e+02
1.750000e+02
1.812500e+02
1.875000e+02
1.937500e+02
2.000000e+02
0.000000e+00
6.250000e+00
1.250000e+01
1.875000e+01
2.500000e+01
3.125000e+01
3.750000e+01
4.375000e+01
5.000000e+01
5.625000e+01
6.250000e+01
6.875000e+01
7.500000e+01
8.125000e+01
8.750000e+01
9.375000e+01
1.000000e+02
1.062500e+02
1.125000e+02
1.187500e+02
1.250000e+02
1.312500e+02
1.375000e+02
1.437500e+02
1.500000e+02
1.562500e+02
1.625000e+02
1.687500e+02
1.750000e+02
1.812500e+02
1.875000e+02
1.937500e+02
2.000000e+02
0.000000e+00
6.250000e+00
1.250000e+01
1.875000e+01
2.500000e+01
3.125000e+01
3.750000e+01
4.375000e+01
5.000000e+01
5.625000e+01
6.250000e+01
6.875000e+01
7.500000e+01
8.125000e+01
8.750000e+01
9.375000e+01
1.000000e+02
1.062500e+02
1.125000e+02
1.187500e+02
1.250000e+02
1.312500e+02
1.375000e+02
1.437500e+02
1.500000e+02
1.562500e+02
1.625000e+02
1.687500e+02
1.750000e+02
1.812500e+02
1.875000e+02
1.937500e+02
2.000000e+02
0.000000e+00
6.250000e+00
1.250000e+01
1.875000e+01
2.500000e+01
3.125000e+01
3.750000e+01
4.375000e+01
5.000000e+01
5.625000e+01
6.250000e+01
6.875000e+01
7.500000e+01
8.125000e+01
8.750000e+01
9.375000e+01
1.000000e+02
1.062500e+02
1.125000e+02
1.187500e+02
1.250000e+02
1.312500e+02
1.375000e+02
1.437500e+02
1.500000e+02
1.562500e+02
1.625000e+02
1.687500e+02
1.750000e+02
1.812500e+02
1.875000e+02
1.937500e+02
2.000000e+02
0.000000e+00
6.250000e+00
1.250000e+01
1.875000e+01
2.500000e+01
3.125000e+01
3.750000e+01
4.375000e+01
5.000000e+01
5.625000e+01
6.250000e+01
6.875000e+01
7.500000e+01
8.125000e+01
8.750000e+01
9.375000e+01
1.000000e+02
1.062500e+02
1.125000e+02
1.187500e+02
1.250000e+02
1.312500e+02
1.375000e+02
1.437500e+02
1.500000e+02
1.562500e+02
1.625000e+02
1.687500e+02
1.750000e+02
1.812500e+02
1.875000e+02
1.937500e+02
2.000000e+02
0.000000e+00
6.250000e+00
1.250000e+01
1.875000e+01
2.500000e+01
3.125000e+01
3.750000e+01
4.375000e+01
5.000000e+01
5.625000e+01
6.250000e+01
6.875000e+01
7.500000e+01
8.125000e+01
8.750000e+01
9.375000e+01
1.000000e+02
1.062500e+02
1.125000e+02
1.187500e+02
1.250000e+02
1.312500e+02
1.375000e+02
1.437500e+02
1.500000e+02
1.562500e+02
1.625000e+02
1.687500e+02
1.750000e+02
1.812500e+02
1.875000e+02
1.937500e+02
2.000000e+02
0.000000e+00
6.250000e+00
1.250000e+01
1.875000e+01
2.500000e+01
3.125000e+01
3.750000e+01
4.375000e+01
5.000000e+01
5.625000e+01
6.250000e+01
6.875000e+01
7.500000e+01
8.125000e+01
8.750000e+01
9.375000e+01
1.000000e+02
1.062500e+02
1.125000e+02
1.187500e+02
1.250000e+02
1.312500e+02
1.375000e+02
1.437500e+02
1.500000e+02
1.562500e+02
1.625000e+02
1.687500e+02
1.750000e+02
1.812500e+02
1.875000e+02
1.937500e+02
2.000000e+02
0.000000e+00
6.250000e+00
1.250000e+01
1.875000e+01
2.500000e+01
3.125000e+01
3.750000e+01
4.375000e+01
5.000000e+01
5.625000e+01
6.250000e+01
6.875000e+01
7.500000e+01
8.125000e+01
8.750000e+01
9.375000e+01
1.000000e+02
1.062500e+02
1.125000e+02
1.187500e+02
1.250000e+02
1.312500e+02
1.375000e+02
1.437500e+02
1.500000e+02
1.562500e+02
1.625000e+02
1.687500e+02
1.750000e+02
1.812500e+02
1.875000e+02
1.937500e+02
2.000000e+02
0.000000e+00
6.250000e+00
1.250000e+01
1.875000e+01
2.500000e+01
3.125000e+01
3.750000e+01
4.375000e+01
5.000000e+01
5.625000e+01
6.250000e+01
6.875000e+01
7.500000e+01
8.125000e+01
8.750000e+01
9.375000e+01
1.000000e+02
1.062500e+02
1.125000e+02
1.187500e+02
1.250000e+02
1.312500e+02
1.375000e+02
1.437500e+02
1.500000e+02
1.562500e+02
1.625000e+02
1.687500e+02
1.750000e+02
1.812500e+02
1.875000e+02
1.937500e+02
2.000000e+02
0.000000e+00
6.250000e+00
1.250000e+01
1.875000e+01
2.500000e+01
3.125000e+01
3.750000e+01
4.375000e+01
5.000000e+01
5.625000e+01
6.250000e+01
6.875000e+01
7.500000e+01
8.125000e+01
8.750000e+01
9.375000e+01
1.000000e+02
1.062500e+02
1.125000e+02
1.187500e+02
1.250000e+02
1.312500e+02
1.375000e+02
1.437500e+02
1.500000e+02
1.562500e+02
1.625000e+02
1.687500e+02
1.750000e+02
1.812500e+02
1.875000e+02
1.937500e+02
2.000000e+02
0.000000e+00
6.250000e+00
1.250000e+01
1.875000e+01
2.500000e+01
3.125000e+01
3.750000e+01
4.375000e+01
5.000000e+01
5.625000e+01
6.250000e+01
6.875000e+01
7.500000e+01
8.125000e+01
8.750000e+01
9.375000e+01
1.000000e+02
1.062500e+02
1.125000e+02
1.187500e+02
1.250000e+02
1.312500e+02
1.375000e+02
1.437500e+02
1.500000e+02
1.562500e+02
1.625000e+02
1.687500e+02
1.750000e+02
1.812500e+02
1.875000e+02
1.937500e+02
2.000000e+02
0.000000e+00
6.250000e+00
1.250000e+01
1.875000e+01
2.500000e+01
3.125000e+01
3.750000e+01
4.375000e+01
5.000000e+01
5.625000e+01
6.250000e+01
6.875000e+01
7.500000e+01
8.125000e+01
8.750000e+01
9.375000e+01
1.000000e+02
1.062500e+02
1.125000e+02
1.187500e+02
1.250000e+02
1.312500e+02
1.375000e+02
1.437500e+02
1.500000e+02
1.562500e+02
1.625000e+02
1.687500e+02
1.750000e+02
1.812500e+02
1.875000e+02
1.937500e+02
2.000000e+02
0.000000e+00
6.250000e+00
1.250000e+01
1.875000e+01
2.500000e+01
3.125000e+01
3.750000e+01
4.375000e+01
5.000000e+01
5.625000e+01
6.250000e+01
6.875000e+01
7.500000e+01
8.125000e+01
8.750000e+01
9.375000e+01
1.000000e+02
1.062500e+02
1.125000e+02
1.187500e+02
1.250000e+02
1.312500e+02
1.375000e+02
1.437500e+02
1.500000e+02
1.562500e+02
1.625000e+02
1.687500e+02
1.750000e+02
1.812500e+02
1.875000e+02
1.937500e+02
2.000000e+02
0.000000e+00
6.250000e+00
1.250000e+01
1.875000e+01
2.500000e+01
3.125000e+01
3.750000e+01
4.375000e+01
5.000000e+01
5.625000e+01
6.250000e+01
6.875000e+01
7.500000e+01
8.125000e+01
8.750000e+01
9.375000e+01
1.000000e+02
1.062500e+02
1.125000e+02
1.187500e+02
1.250000e+02
1.312500e+02
1.375000e+02
1.437500e+02
1.500000e+02
1.562500e+02
1.625000e+02
1.687500e+02
1.750000e+02
1.812500e+02
1.875000e+02
1.937500e+02
2.000000e+02
0.000000e+00
0.000000e+00
0.000000e+00
0.000000e+00
0.000000e+00
0.000000e+00
0.000000e+00
0.000000e+00
0.000000e+00
0.000000e+00
0.000000e+00
0.000000e+00
0.000000e+00
0.000000e+00
0.000000e+00
0.000000e+00
0.000000e+00
0.000000e+00
0.000000e+00
0.000000e+00
0.000000e+00
0.000000e+00
0.000000e+00
0.000000e+00
0.000000e+00
0.000000e+00
0.000000e+00
0.000000e+00
0.000000e+00
0.000000e+00
0.000000e+00
0.000000e+00
0.000000e+00
6.250000e+00
6.250000e+00
6.250000e+00
6.250000e+00
6.250000e+00
6.250000e+00
6.250000e+00
6.250000e+00
6.250000e+00
6.250000e+00
6.250000e+00
6.250000e+00
6.250000e+00
6.250000e+00
6.250000e+00
6.250000e+00
6.250000e+00
6.250000e+00
6.250000e+00
6.250000e+00
6.250000e+00
6.250000e+00
6.250000e+00
6.250000e+00
6.250000e+00
6.250000e+00
6.250000e+00
6.250000e+00
6.250000e+00
6.250000e+00
6.250000e+00
6.250000e+00
6.250000e+00
1.250000e+01
1.250000e+01
1.250000e+01
1.250000e+01
1.250000e+01
1.250000e+01
1.250000e+01
1.250000e+01
1.250000e+01
1.250000e+01
1.250000e+01
1.250000e+01
1.250000e+01
1.250000e+01
1.250000e+01
1.250000e+01
1.250000e+01
1.250000e+01
1.250000e+01
1.250000e+01
1.250000e+01
1.250000e+01
1.250000e+01
1.250000e+01
1.250000e+01
1.250000e+01
1.250000e+01
1.250000e+01
1.250000e+01
1.250000e+01
1.250000e+01
1.250000e+01
1.250000e+01
1.875000e+01
1.875000e+01
1.875000e+01
1.875000e+01
1.875000e+01
1.875000e+01
1.875000e+01
1.875000e+01
1.875000e+01
1.875000e+01
1.875000e+01
1.875000e+01
1.875000e+01
1.875000e+01
1.875000e+01
1.875000e+01
1.875000e+01
1.875000e+01
1.875000e+01
1.875000e+01
1.875000e+01
1.875000e+01
1.875000e+01
1.875000e+01
1.875000e+01
1.875000e+01
1.875000e+01
1.875000e+01
1.875000e+01
1.875000e+01
1.875000e+01
1.875000e+01
1.875000e+01
2.500000e+01
2.500000e+01
2.500000e+01
2.500000e+01
2.500000e+01
2.500000e+01
2.500000e+01
2.500000e+01
2.500000e+01
2.500000e+01
2.500000e+01
2.500000e+01
2.500000e+01
2.500000e+01
2.500000e+01
2.500000e+01
2.500000e+01
2.500000e+01
2.500000e+01
2.500000e+01
2.500000e+01
2.500000e+01
2.500000e+01
2.500000e+01
2.500000e+01
2.500000e+01
2.500000e+01
2.500000e+01
2.500000e+01
2.500000e+01
2.500000e+01
2.500000e+01
2.500000e+01
3.125000e+01
3.125000e+01
3.125000e+01
3.125000e+01
3.125000e+01
3.125000e+01
3.125000e+01
3.125000e+01
3.125000e+01
3.125000e+01
3.125000e+01
3.125000e+01
3.125000e+01
3.125000e+01
3.125000e+01
3.125000e+01
3.125000e+01
3.125000e+01
3.125000e+01
3.125000e+01
3.125000e+01
3.125000e+01
3.125000e+01
3.125000e+01
3.125000e+01
3.125000e+01
3.125000e+01
3.125000e+01
3.125000e+01
3.125000e+01
3.125000e+01
3.125000e+01
3.125000e+01
3.750000e+01
3.750000e+01
3.750000e+01
3.750000e+01
3.750000e+01
3.750000e+01
3.750000e+01
3.750000e+01
3.750000e+01
3.750000e+01
3.750000e+01
3.750000e+01
3.750000e+01
3.750000e+01
3.750000e+01
3.750000e+01
3.750000e+01
3.750000e+01
3.750000e+01
3.750000e+01
3.750000e+01
3.750000e+01
3.750000e+01
3.750000e+01
3.750000e+01
3.750000e+01
3.750000e+01
3.750000e+01
3.750000e+01
3.750000e+01
3.750000e+01
3.750000e+01
3.750000e+01
4.375000e+01
4.375000e+01
4.375000e+01
4.375000e+01
4.375000e+01
4.375000e+01
4.375000e+01
4.375000e+01
4.375000e+01
4.375000e+01
4.375000e+01
4.375000e+01
4.375000e+01
4.375000e+01
4.375000e+01
4.375000e+01
4.375000e+01
4.375000e+01
4.375000e+01
4.375000e+01
4.375000e+01
4.375000e+01
4.375000e+01
4.375000e+01
4.375000e+01
4.375000e+01
4.375000e+01
4.375000e+01
4.375000e+01
4.375000e+01
4.375000e+01
4.375000e+01
4.375000e+01
5.000000e+01
5.000000e+01
5.000000e+01
5.000000e+01
5.000000e+01
5.000000e+01
5.000000e+01
5.000000e+01
5.000000e+01
5.000000e+01
5.000000e+01
5.000000e+01
5.000000e+01
5.000000e+01
5.000000e+01
5.000000e+01
5.000000e+01
5.000000e+01
5.000000e+01
5.000000e+01
5.000000e+01
5.000000e+01
5.000000e+01
5.000000e+01
5.000000e+01
5.000000e+01
5.000000e+01
5.000000e+01
5.000000e+01
5.000000e+01
5.000000e+01
5.000000e+01
5.000000e+01
5.625000e+01
5.625000e+01
5.625000e+01
5.625000e+01
5.625000e+01
5.625000e+01
5.625000e+01
5.625000e+01
5.625000e+01
5.625000e+01
5.625000e+01
5.625000e+01
5.625000e+01
5.625000e+01
5.625000e+01
5.625000e+01
5.625000e+01
5.625000e+01
5.625000e+01
5.625000e+01
5.625000e+01
5.625000e+01
5.625000e+01
5.625000e+01
5.625000e+01
5.625000e+01
5.625000e+01
5.625000e+01
5.625000e+01
5.625000e+01
5.625000e+01
5.625000e+01
5.625000e+01
6.250000e+01
6.250000e+01
6.250000e+01
6.250000e+01
6.250000e+01
6.250000e+01
6.250000e+01
6.250000e+01
6.250000e+01
6.250000e+01
6.250000e+01
6.250000e+01
6.250000e+01
6.250000e+01
6.250000e+01
6.250000e+01
6.250000e+01
6.250000e+01
6.250000e+01
6.250000e+01
6.250000e+01
6.250000e+01
6.250000e+01
6.250000e+01
6.250000e+01
6.250000e+01
6.250000e+01
6.250000e+01
6.250000e+01
6.250000e+01
6.250000e+01
6.250000e+01
6.250000e+01
6.875000e+01
6.875000e+01
6.875000e+01
6.875000e+01
6.875000e+01
6.875000e+01
6.875000e+01
6.875000e+01
6.875000e+01
6.875000e+01
6.875000e+01
6.875000e+01
6.875000e+01
6.875000e+01
6.875000e+01
6.875000e+01
6.875000e+01
6.875000e+01
6.875000e+01
6.875000e+01
6.875000e+01
6.875000e+01
6.875000e+01
6.875000e+01
6.875000e+01
6.875000e+01
6.875000e+01
6.875000e+01
6.875000e+01
6.875000e+01
6.875000e+01
6.875000e+01
6.875000e+01
7.500000e+01
7.500000e+01
7.500000e+01
7.500000e+01
7.500000e+01
7.500000e+01
7.500000e+01
7.500000e+01
7.500000e+01
7.500000e+01
7.500000e+01
7.500000e+01
7.500000e+01
7.500000e+01
7.500000e+01
7.500000e+01
7.500000e+01
7.500000e+01
7.500000e+01
7.500000e+01
7.500000e+01
7.500000e+01
7.500000e+01
7.500000e+01
7.500000e+01
7.500000e+01
7.500000e+01
7.500000e+01
7.500000e+01
7.500000e+01
7.500000e+01
7.500000e+01
7.500000e+01
8.125000e+01
8.125000e+01
8.125000e+01
8.125000e+01
8.125000e+01
8.125000e+01
8.125000e+01
8.125000e+01
8.125000e+01
8.125000e+01
8.125000e+01
8.125000e+01
8.125000e+01
8.125000e+01
8.125000e+01
8.125000e+01
8.125000e+01
8.125000e+01
8.125000e+01
8.125000e+01
8.125000e+01
8.125000e+01
8.125000e+01
8.125000e+01
8.125000e+01
8.125000e+01
8.125000e+01
8.125000e+01
8.125000e+01
8.125000e+01
8.125000e+01
8.125000e+01
8.125000e+01
8.750000e+01
8.750000e+01
8.750000e+01
8.750000e+01
8.750000e+01
8.750000e+01
8.750000e+01
8.750000e+01
8.750000e+01
8.750000e+01
8.750000e+01
8.750000e+01
8.750000e+01
8.750000e+01
8.750000e+01
8.750000e+01
8.750000e+01
8.750000e+01
8.750000e+01
8.750000e+01
8.750000e+01
8.750000e+01
8.750000e+01
8.750000e+01
8.750000e+01
8.750000e+01
8.750000e+01
8.750000e+01
8.750000e+01
8.750000e+01
8.750000e+01
8.750000e+01
8.750000e+01
9.375000e+01
9.375000e+01
9.375000e+01
9.375000e+01
9.375000e+01
9.375000e+01
9.375000e+01
9.375000e+01
9.375000e+01
9.375000e+01
9.375000e+01
9.375000e+01
9.375000e+01
9.375000e+01
9.375000e+01
9.375000e+01
9.375000e+01
9.375000e+01
9.375000e+01
9.375000e+01
9.375000e+01
9.375000e+01
9.375000e+01
9.375000e+01
9.375000e+01
9.375000e+01
9.375000e+01
9.375000e+01
9.375000e+01
9.375000e+01
9.375000e+01
9.375000e+01
9.375000e+01
1.000000e+02
1.000000e+02
1.000000e+02
1.000000e+02
1.000000e+02
1.000000e+02
1.000000e+02
1.000000e+02
1.000000e+02
1.000000e+02
1.000000e+02
1.000000e+02
1.000000e+02
1.000000e+02
1.000000e+02
1.000000e+02
1.000000e+02
1.000000e+02
1.000000e+02
1.000000e+02
1.000000e+02
1.000000e+02
1.000000e+02
1.000000e+02
1.000000e+02
1.000000e+02
1.000000e+02
1.000000e+02
1.000000e+02
1.000000e+02
1.000000e+02
1.000000e+02
1.000000e+02
0.000000e+00
-3.553367e-01
-6.426279e-01
-9.181094e-01
-1.196325e+00
-1.471994e+00
-1.744303e+00
-2.013858e+00
-2.280338e+00
-2.543000e+00
-2.801120e+00
-3.053977e+00
-3.300772e+00
-3.540651e+00
-3.772769e+00
-3.996357e+00
-4.210766e+00
-4.415528e+00
-4.610395e+00
-4.795382e+00
-4.970798e+00
-5.137281e+00
-5.295852e+00
-5.447995e+00
-5.595778e+00
-5.742024e+00
-5.890600e+00
-6.046882e+00
-6.218562e+00
-6.416299e+00
-6.650304e+00
-6.914271e+00
-7.071238e+00
0.000000e+00
-2.318588e-01
-4.824697e-01
-7.277262e-01
-9.743967e-01
-1.217861e+00
-1.457436e+00
-1.694053e+00
-1.927689e+00
-2.157807e+00
-2.383849e+00
-2.605241e+00
-2.821332e+00
-3.031405e+00
-3.234736e+00
-3.430652e+00
-3.618573e+00
-3.798057e+00
-3.968832e+00
-4.130824e+00
-4.284166e+00
-4.429206e+00
-4.566515e+00
-4.696891e+00
-4.821352e+00
-4.941103e+00
-5.057430e+00
-5.171396e+00
-5.282914e+00
-5.387820e+00
-5.472106e+00
-5.519152e+00
-5.582534e+00
0.000000e+00
-1.802187e-01
-3.729361e-01
-5.775327e-01
-7.866915e-01
-9.946260e-01
-1.200117e+00
-1.403289e+00
-1.603862e+00
-1.801344e+00
-1.995244e+00
-2.185062e+00
-2.370239e+00
-2.550173e+00
-2.724250e+00
-2.891887e+00
-3.052561e+00
-3.205839e+00
-3.351400e+00
-3.489037e+00
-3.618659e+00
-3.740266e+00
-3.853918e+00
-3.959680e+00
-4.057514e+00
-4.147111e+00
-4.227579e+00
-4.296880e+00
-4.350853e+00
-4.382195e+00
-4.384406e+00
-4.373857e+00
-4.445752e+00
0.000000e+00
-1.432437e-01
-2.959561e-01
-4.587869e-01
-6.281783e-01
-7.988680e-01
-9.691139e-01
-1.138091e+00
-1.305119e+00
-1.469621e+00
-1.631105e+00
-1.789089e+00
-1.943081e+00
-2.092570e+00
-2.237036e+00
-2.375974e+00
-2.508909e+00
-2.635409e+00
-2.755096e+00
-2.867634e+00
-2.972718e+00
-3.070039e+00
-3.159234e+00
-3.239801e+00
-3.310988e+00
-3.371619e+00
-3.419895e+00
-3.453199e+00
-3.468308e+00
-3.463406e+00
-3.445965e+00
-3.445812e+00
-3.514805e+00
0.000000e+00
-1.132716e-01
-2.324667e-01
-3.585954e-01
-4.898462e-01
-6.237726e-01
-7.585320e-01
-8.929129e-01
-1.026044e+00
-1.157284e+00
-1.286120e+00
-1.412092e+00
-1.534760e+00
-1.653686e+00
-1.768432e+00
-1.878557e+00
-1.983624e+00
-2.083208e+00
-2.176882e+00
-2.264215e+00
-2.344752e+00
-2.417976e+00
-2.483272e+00
-2.539859e+00
-2.586733e+00
-2.622621e+00
-2.646034e+00
-2.655617e+00
-2.651299e+00
-2.637272e+00
-2.627467e+00
-2.647696e+00
-2.709769e+00
0.000000e+00
-8.450642e-02
-1.728784e-01
-2.655249e-01
-3.618993e-01
-4.606970e-01
-5.606713e-01
-6.607520e-01
-7.601272e-01
-8.581897e-01
-9.544599e-01
-1.048528e+00
-1.140016e+00
-1.228557e+00
-1.313781e+00
-1.395308e+00
-1.472742e+00
-1.545671e+00
-1.613655e+00
-1.676219e+00
-1.732840e+00
-1.782924e+00
-1.825792e+00
-1.860663e+00
-1.886680e+00
-1.903005e+00
-1.909092e+00
-1.905330e+00
-1.894315e+00
-1.882912e+00
-1.883933e+00
-1.910758e+00
-1.965092e+00
0.000000e+00
-5.614340e-02
-1.146570e-01
-1.757708e-01
-2.392202e-01
-3.043721e-01
-3.704700e-01
-4.367994e-01
-5.027640e-01
-5.678949e-01
-6.318156e-01
-6.942045e-01
-7.547661e-01
-8.132109e-01
-8.692402e-01
-9.225359e-01
-9.727533e-01
-1.019515e+00
-1.062404e+00
-1.100960e+00
-1.134673e+00
-1.162990e+00
-1.185318e+00
-1.201073e+00
-1.209764e+00
-1.211185e+00
-1.205768e+00
-1.195186e+00
-1.183203e+00
-1.176428e+00
-1.183444e+00
-1.210658e+00
-1.256206e+00
0.000000e+00
-2.805008e-02
-5.724973e-02
-8.769137e-02
-1.192598e-01
-1.516785e-01
-1.845965e-01
-2.176572e-01
-2.505447e-01
-2.829960e-01
-3.147892e-01
-3.457258e-01
-3.756136e-01
-4.042532e-01
-4.314271e-01
-4.568903e-01
-4.803647e-01
-5.015335e-01
-5.200394e-01
-5.354863e-01
-5.474469e-01
-5.554830e-01
-5.591849e-01
-5.582451e-01
-5.525854e-01
-5.425641e-01
-5.292838e-01
-5.149832e-01
-5.033775e-01
-4.995255e-01
-5.085621e-01
-5.329643e-01
-5.697921e-01
0.000000e+00
-1.074997e-04
-2.231675e-04
-3.421283e-04
-4.591001e-04
-5.674959e-04
-6.581522e-04
-7.177502e-04
-7.269422e-04
-6.580389e-04
-4.721242e-04
-1.156035e-04
4.837849e-04
1.421471e-03
2.820853e-03
4.837879e-03
7.664692e-03
1.153128e-02
1.670350e-02
2.347507e-02
3.214974e-02
4.300821e-02
5.625255e-02
7.191877e-02
8.974830e-02
1.090141e-01
1.283173e-01
1.454159e-01
1.572391e-01
1.603310e-01
1.519689e-01
1.317998e-01
1.031110e-01
0.000000e+00
2.784128e-02
5.681602e-02
8.702628e-02
1.183670e-01
1.505738e-01
1.833130e-01
2.162528e-01
2.491139e-01
2.816850e-01
3.138178e-01
3.454143e-01
3.764182e-01
4.068097e-01
4.366037e-01
4.658499e-01
4.946331e-01
5.230728e-01
5.513181e-01
5.795356e-01
6.078864e-01
6.364877e-01
6.653532e-01
6.943099e-01
7.228900e-01
7.502098e-01
7.748669e-01
7.949249e-01
8.080912e-01
8.122138e-01
8.061343e-01
7.906872e-01
7.693183e-01
0.000000e+00
5.595329e-02
1.142614e-01
1.751633e-01
2.384031e-01
3.033579e-01
3.692847e-01
4.354892e-01
5.014048e-01
5.666056e-01
6.307752e-01
6.936738e-01
7.551171e-01
8.149625e-01
8.731025e-01
9.294620e-01
9.839977e-01
1.036697e+00
1.087573e+00
1.136651e+00
1.183946e+00
1.229429e+00
1.272967e+00
1.314261e+00
1.352762e+00
1.387601e+00
1.417557e+00
1.441117e+00
1.456705e+00
1.463126e+00
1.460207e+00
1.449472e+00
1.434534e+00
0.000000e+00
8.434785e-02
1.725469e-01
2.650141e-01
3.612090e-01
4.598340e-01
5.596515e-01
6.596046e-01
7.589012e-01
8.569633e-01
9.533520e-01
1.047711e+00
1.139736e+00
1.229156e+00
1.315729e+00
1.399235e+00
1.479481e+00
1.556304e+00
1.629563e+00
1.699137e+00
1.764898e+00
1.826692e+00
1.884288e+00
1.937334e+00
1.985303e+00
2.027460e+00
2.062863e+00
2.090452e+00
2.109257e+00
2.118761e+00
2.119397e+00
2.113086e+00
2.103637e+00
0.000000e+00
1.131579e-01
2.322266e-01
3.582225e-01
4.893366e-01
6.231260e-01
7.577533e-01
8.920133e-01
1.025043e+00
1.156214e+00
1.285031e+00
1.411055e+00
1.533873e+00
1.653083e+00
1.768290e+00
1.879111e+00
1.985182e+00
2.086168e+00
2.181764e+00
2.271690e+00
2.355683e+00
2.433479e+00
2.504780e+00
2.569233e+00
2.626399e+00
2.675742e+00
2.716653e+00
2.748526e+00
2.770919e+00
2.783820e+00
2.788030e+00
2.785661e+00
2.780679e+00
0.000000e+00
1.431884e-01
2.958341e-01
4.585931e-01
6.279064e-01
7.985103e-01
9.686674e-01
1.137555e+00
1.304486e+00
1.468885e+00
1.630251e+00
1.788096e+00
1.941903e+00
2.091131e+00
2.235217e+00
2.373595e+00
2.505709e+00
2.631034e+00
2.749085e+00
2.859416e+00
2.961621e+00
3.055326e+00
3.140176e+00
3.215827e+00
3.281944e+00
3.338216e+00
3.384381e+00
3.420297e+00
3.446036e+00
3.462050e+00
3.469423e+00
3.470304e+00
3.468648e+00
0.000000e+00
1.802314e-01
3.729529e-01
5.775495e-01
7.867065e-01
9.946295e-01
1.200106e+00
1.403260e+00
1.603801e+00
1.801217e+00
1.995000e+00
2.184611e+00
2.369428e+00
2.548760e+00
2.721862e+00
2.887971e+00
3.046327e+00
3.196202e+00
3.336916e+00
3.467843e+00
3.588414e+00
3.698121e+00
3.796520e+00
3.883239e+00
3.958010e+00
4.020701e+00
4.071373e+00
4.110347e+00
4.138265e+00
4.156158e+00
4.165528e+00
4.168579e+00
4.168940e+00
0.000000e+00
2.319355e-01
4.826135e-01
7.279449e-01
9.747053e-01
1.218258e+00
1.457932e+00
1.694660e+00
1.928404e+00
2.158605e+00
2.384679e+00
2.606000e+00
2.821826e+00
3.031305e+00
3.233516e+00
3.427502e+00
3.612304e+00
3.786997e+00
3.950699e+00
4.102589e+00
4.241904e+00
4.367954e+00
4.480132e+00
4.577943e+00
4.661064e+00
4.729417e+00
4.783266e+00
4.823329e+00
4.850874e+00
4.867763e+00
4.876398e+00
4.879530e+00
4.880296e+00
0.000000e+00
3.554218e-01
6.428304e-01
9.184681e-01
1.196877e+00
1.472757e+00
1.745312e+00
2.015162e+00
2.281975e+00
2.544993e+00
2.803477e+00
3.056652e+00
3.303626e+00
3.543390e+00
3.774866e+00
3.996938e+00
4.208482e+00
4.408395e+00
4.595613e+00
4.769109e+00
4.927894e+00
5.071026e+00
5.197624e+00
5.306910e+00
5.398295e+00
5.471496e+00
5.526702e+00
5.564783e+00
5.587511e+00
5.597772e+00
5.599652e+00
5.598121e+00
5.597255e+00
0.000000e+00
-2.203725e-01
-3.959738e-01
-5.962717e-01
-8.221199e-01
-1.076931e+00
-1.363377e+00
-1.682586e+00
-2.034669e+00
-2.419470e+00
-2.836640e+00
-3.285611e+00
-3.765622e+00
-4.275756e+00
-4.814964e+00
-5.382085e+00
-5.975874e+00
-6.595026e+00
-7.238218e+00
-7.904154e+00
-8.591624e+00
-9.299592e+00
-1.002731e+01
-1.077448e+01
-1.154154e+01
-1.233003e+01
-1.314328e+01
-1.398761e+01
-1.487456e+01
-1.582598e+01
-1.688901e+01
-1.817521e+01
-1.993640e+01
0.000000e+00
-1.374685e-01
-3.205562e-01
-5.185838e-01
-7.442361e-01
-9.998257e-01
-1.287150e+00
-1.607183e+00
-1.960246e+00
-2.346235e+00
-2.764792e+00
-3.215362e+00
-3.697201e+00
-4.209402e+00
-4.750906e+00
-5.320527e+00
-5.916982e+00
-6.538914e+00
-7.184937e+00
-7.853685e+00
-8.543874e+00
-9.254384e+00
-9.984376e+00
-1.073345e+01
-1.150192e+01
-1.229119e+01
-1.310444e+01
-1.394784e+01
-1.483288e+01
-1.578189e+01
-1.684014e+01
-1.810023e+01
-1.974100e+01
0.000000e+00
-1.020709e-01
-2.613090e-01
-4.548727e-01
-6.783949e-01
-9.337408e-01
-1.221444e+00
-1.542083e+00
-1.895957e+00
-2.282971e+00
-2.702752e+00
-3.154738e+00
-3.638195e+00
-4.152219e+00
-4.695748e+00
-5.267582e+00
-5.866412e+00
-6.490852e+00
-7.139479e+00
-7.810887e+00
-8.503755e+00
-9.216930e+00
-9.949546e+00
-1.070120e+01
-1.147221e+01
-1.226403e+01
-1.307998e+01
-1.392642e+01
-1.481514e+01
-1.576711e+01
-1.681513e+01
-1.799062e+01
-1.927934e+01
0.000000e+00
-8.469434e-02
-2.250659e-01
-4.076434e-01
-6.266627e-01
-8.799732e-01
-1.167027e+00
-1.487743e+00
-1.842119e+00
-2.229935e+00
-2.650756e+00
-3.103987e+00
-3.588879e+00
-4.104524e+00
-4.649855e+00
-5.223671e+00
-5.824656e+00
-6.451414e+00
-7.102514e+00
-7.776541e+00
-8.472171e+00
-9.188257e+00
-9.923952e+00
-1.067889e+01
-1.145343e+01
-1.224909e+01
-1.306913e+01
-1.391955e+01
-1.481043e+01
-1.575635e+01
-1.676810e+01
-1.782890e+01
-1.881227e+01
0.000000e+00
-7.543546e-02
-2.030768e-01
-3.757957e-01
-5.886768e-01
-8.386810e-01
-1.124151e+00
-1.444363e+00
-1.798874e+00
-2.187232e+00
-2.608889e+00
-3.063184e+00
-3.549330e+00
-4.066404e+00
-4.613339e+00
-5.188937e+00
-5.791889e+00
-6.420811e+00
-7.074281e+00
-7.750896e+00
-8.449345e+00
-9.168496e+00
-9.907517e+00
-1.066604e+01
-1.144437e+01
-1.224382e+01
-1.306707e+01
-1.391858e+01
-1.480454e+01
-1.573025e+01
-1.668920e+01
-1.764011e+01
-1.849561e+01
0.000000e+00
-6.945071e-02
-1.891829e-01
-3.547008e-01
-5.622024e-01
-8.087085e-01
-1.092261e+00
-1.411638e+00
-1.766013e+00
-2.154693e+00
-2.576990e+00
-3.032162e+00
-3.519377e+00
-4.037692e+00
-4.586039e+00
-5.163229e+00
-5.767971e+00
-6.398899e+00
-7.054610e+00
-7.733717e+00
-8.434915e+00
-9.157066e+00
-9.899296e+00
-1.066113e+01
-1.144262e+01
-1.224454e+01
-1.306842e+01
-1.391636e+01
-1.478987e+01
-1.568636e+01
-1.658993e+01
-1.746285e+01
-1.825002e+01
0.000000e+00
-6.557006e-02
-1.804309e-01
-3.412230e-01
-5.448176e-01
-7.885524e-01
-1.070417e+00
-1.388961e+00
-1.743106e+00
-2.131971e+00
-2.554747e+00
-3.010618e+00
-3.498714e+00
-4.018073e+00
-4.567632e+00
-5.146216e+00
-5.752551e+00
-6.385291e+00
-7.043049e+00
-7.724443e+00
-8.428149e+00
-9.152975e+00
-9.897927e+00
-1.066229e+01
-1.144569e+01
-1.224808e+01
-1.306953e+01
-1.390968e+01
-1.476618e+01
-1.563162e+01
-1.648860e+01
-1.730763e+01
-1.805268e+01
0.000000e+00
-6.338684e-02
-1.755445e-01
-3.336568e-01
-5.349500e-01
-7.769710e-01
-1.057740e+00
-1.375718e+00
-1.729701e+00
-2.118701e+00
-2.541831e+00
-2.998233e+00
-3.487012e+00
-4.007205e+00
-4.557754e+00
-5.137499e+00
-5.745187e+00
-6.379485e+00
-7.039008e+00
-7.722358e+00
-8.428161e+00
-9.155115e+00
-9.902032e+00
-1.066786e+01
-1.145165e+01
-1.225244e+01
-1.306892e+01
-1.389870e+01
-1.473699e+01
-1.557457e+01
-1.639558e+01
-1.717769e+01
-1.789607e+01
0.000000e+00
-6.267362e-02
-1.739582e-01
-3.312054e-01
-5.317534e-01
-7.732205e-01
-1.053646e+00
-1.371472e+00
-1.725464e+00
-2.114603e+00
-2.537987e+00
-2.994749e+00
-3.484001e+00
-4.004787e+00
-4.556067e+00
-5.136698e+00
-5.745440e+00
-6.380964e+00
-7.041875e+00
-7.726735e+00
-8.434086e+00
-9.162476e+00
-9.910464e+00
-1.067660e+01
-1.145935e+01
-1.225690e+01
-1.306679e+01
-1.388530e+01
-1.470647e+01
-1.552100e+01
-1.631541e+01
-1.707270e+01
-1.777479e+01
0.000000e+00
-6.335735e-02
-1.755069e-01
-3.336332e-01
-5.349652e-01
-7.770542e-01
-1.057928e+00
-1.376058e+00
-1.730256e+00
-2.119552e+00
-2.543084e+00
-3.000024e+00
-3.489510e+00
-4.010617e+00
-4.562324e+00
-5.143508e+00
-5.752937e+00
-6.389278e+00
-7.051112e+00
-7.736941e+00
-8.445202e+00
-9.174268e+00
-9.922427e+00
-1.068783e+01
-1.146840e+01
-1.226161e+01
-1.306421e+01
-1.387173e+01
-1.467793e+01
-1.547422e+01
-1.624948e+01
-1.699065e+01
-1.768403e+01
0.000000e+00
-6.551152e-02
-1.803562e-01
-3.411755e-01
-5.448445e-01
-7.887097e-01
-1.070774e+00
-1.389610e+00
-1.744167e+00
-2.133599e+00
-2.557146e+00
-3.014048e+00
-3.503499e+00
-4.024612e+00
-4.576396e+00
-5.157742e+00
-5.767424e+00
-6.404099e+00
-7.066312e+00
-7.752500e+00
-8.460986e+00
-9.189964e+00
-9.937462e+00
-1.070128e+01
-1.147887e+01
-1.226720e+01
-1.306249e+01
-1.385999e+01
-1.465361e+01
-1.543582e+01
-1.619761e+01
-1.692898e+01
-1.761951e+01
0.000000e+00
-6.936463e-02
-1.890734e-01
-3.546293e-01
-5.622351e-01
-8.089232e-01
-1.092756e+00
-1.412540e+00
-1.767490e+00
-2.156963e+00
-2.580337e+00
-3.036950e+00
-3.526060e+00
-4.046828e+00
-4.598290e+00
-5.179353e+00
-5.788792e+00
-6.425250e+00
-7.087236e+00
-7.773120e+00
-8.481122e+00
-9.209275e+00
-9.955384e+00
-1.071695e+01
-1.149110e+01
-1.227440e+01
-1.306282e+01
-1.385153e+01
-1.463485e+01
-1.540631e+01
-1.615882e+01
-1.688497e+01
-1.757717e+01
0.000000e+00
-7.532564e-02
-2.029380e-01
-3.757026e-01
-5.887094e-01
-8.389331e-01
-1.124741e+00
-1.445445e+00
-1.800651e+00
-2.189969e+00
-2.612928e+00
-3.068964e+00
-3.557403e+00
-4.077444e+00
-4.628149e+00
-5.208438e+00
-5.817083e+00
-6.452713e+00
-7.113810e+00
-7.798688e+00
-8.505483e+00
-9.232103e+00
-9.976183e+00
-1.073501e+01
-1.150545e+01
-1.228387e+01
-1.306607e+01
-1.384728e+01
-1.462228e+01
-1.538556e+01
-1.613172e+01
-1.685573e+01
-1.755293e+01
0.000000e+00
-8.456938e-02
-2.249099e-01
-4.075363e-01
-6.266929e-01
-8.802452e-01
-1.167672e+00
-1.488933e+00
-1.844079e+00
-2.232957e+00
-2.655218e+00
-3.110375e+00
-3.597799e+00
-4.116719e+00
-4.666211e+00
-5.245200e+00
-5.852459e+00
-6.486608e+00
-7.146109e+00
-7.829246e+00
-8.534094e+00
-9.258484e+00
-9.999937e+00
-1.075561e+01
-1.152221e+01
-1.229598e+01
-1.307266e+01
-1.384760e+01
-1.461594e+01
-1.537297e+01
-1.611468e+01
-1.683828e+01
-1.754236e+01
0.000000e+00
-1.019489e-01
-2.611557e-01
-4.547661e-01
-6.784280e-01
-9.340254e-01
-1.222119e+00
-1.543328e+00
-1.898007e+00
-2.286130e+00
-2.707413e+00
-3.161401e+00
-3.647485e+00
-4.164898e+00
-4.712720e+00
-5.289876e+00
-5.895141e+00
-6.527136e+00
-7.184315e+00
-7.864950e+00
-8.567096e+00
-9.288543e+00
-1.002676e+01
-1.077885e+01
-1.154145e+01
-1.231076e+01
-1.308254e+01
-1.385223e+01
-1.461526e+01
-1.536745e+01
-1.610584e+01
-1.682950e+01
-1.754049e+01
0.000000e+00
-1.373718e-01
-3.204241e-01
-5.184953e-01
-7.442878e-01
-1.000132e+00
-1.287855e+00
-1.608468e+00
-1.962347e+00
-2.349455e+00
-2.769523e+00
-3.222095e+00
-3.706550e+00
-4.222105e+00
-4.767830e+00
-5.342648e+00
-5.945337e+00
-6.574523e+00
-7.228671e+00
-7.906056e+00
-8.604736e+00
-9.322499e+00
-1.005681e+01
-1.080477e+01
-1.156303e+01
-1.232783e+01
-1.309500e+01
-1.386010e+01
-1.461878e+01
-1.536721e+01
-1.610296e+01
-1.682633e+01
-1.754205e+01
0.000000e+00
-2.203099e-01
-3.958757e-01
-5.962234e-01
-8.222165e-01
-1.077288e+00
-1.364141e+00
-1.683940e+00
-2.036845e+00
-2.422768e+00
-2.841440e+00
-3.292389e+00
-3.774958e+00
-4.288340e+00
-4.831589e+00
-5.403622e+00
-6.003221e+00
-6.629020e+00
-7.279497e+00
-7.952940e+00
-8.647418e+00
-9.360733e+00
-1.009037e+01