TITLE = "Solution"
VARIABLES = x, y, u, v, psiu, psiv, t, stress
ZONE T="structure" N=561 E=512 F=FEBLOCK ET=QUADRILATERAL VARLOCATION=([7,8]=cellcentered)
0.000000e+00
6.250000e+00
1.250000e+01
1.875000e+01
2.500000e+01
3.125000e+01
3.750000e+01
4.375000e+01
5.000000e+01
5.625000e+01
6.250000e+01
6.875000e+01
7.500000e+01
8.125000e+01
8.750000e+01
9.375000e+01
1.000000e+02
1.062500e+02
1.125000e+02
1.187500e+02
1.250000e+02
1.312500e+02
1.375000e+02
1.437500e+02
1.500000e+02
1.562500e+02
1.625000e+02
1.687500e+02
1.750000e+02
1.812500e+02
1.875000e+02
1.937500e+02
2.000000e+02
0.000000e+00
6.250000e+00
1.250000e+01
1.875000e+01
2.500000e+01
3.125000e+01
3.750000e+01
4.375000e+01
5.000000e+01
5.625000e+01
6.250000e+01
6.875000e+01
7.500000e+01
8.125000e+01
8.750000e+01
9.375000e+01
1.000000e+02
1.062500e+02
1.125000e+02
1.187500e+02
1.250000e+02
1.312500e+02
1.375000e+02
1.437500e+02
1.500000e+02
1.562500e+02
1.625000e+02
1.687500e+02
1.750000e+02
1.812500e+02
1.875000e+02
1.937500e+02
2.000000e+02
0.000000e+00
6.250000e+00
1.250000e+01
1.875000e+01
2.500000e+01
3.125000e+01
3.750000e+01
4.375000e+01
5.000000e+01
5.625000e+01
6.250000e+01
6.875000e+01
7.500000e+01
8.125000e+01
8.750000e+01
9.375000e+01
1.000000e+02
1.062500e+02
1.125000e+02
1.187500e+02
1.250000e+02
1.312500e+02
1.375000e+02
1.437500e+02
1.500000e+02
1.562500e+02
1.625000e+02
1.687500e+02
1.750000e+02
1.812500e+02
1.875000e+02
1.937500e+02
2.000000e+02
0.000000e+00
6.250000e+00
1.250000e+01
1.875000e+01
2.500000e+01
3.125000e+01
3.750000e+01
4.375000e+01
5.000000e+01
5.625000e+01
6.250000e+01
6.875000e+01
7.500000e+01
8.125000e+01
8.750000e+01
9.375000e+01
1.000000e+02
1.062500e+02
1.125000e+02
1.187500e+02
1.250000e+02
1.312500e+02
1.375000e+02
1.437500e+02
1.500000e+02
1.562500e+02
1.625000e+02
1.687500e+02
1.750000e+02
1.812500e+02
1.875000e+02
1.937500e+02
2.000000e+02
0.000000e+00
6.250000e+00
1.250000e+01
1.875000e+01
2.500000e+01
3.125000e+01
3.750000e+01
4.375000e+01
5.000000e+01
5.625000e+01
6.250000e+01
6.875000e+01
7.500000e+01
8.125000e+01
8.750000e+01
9.375000e+01
1.000000e+02
1.062500e+02
1.125000e+02
1.187500e+02
1.250000e+02
1.312500e+02
1.375000e+02
1.437500e+02
1.500000e+02
1.562500e+02
1.625000e+02
1.687500e+02
1.750000e+02
1.812500e+02
1.875000e+02
1.937500e+02
2.000000e+02
0.000000e+00
6.250000e+00
1.250000e+01
1.875000e+01
2.500000e+01
3.125000e+01
3.750000e+01
4.375000e+01
5.000000e+01
5.625000e+01
6.250000e+01
6.875000e+01
7.500000e+01
8.125000e+01
8.750000e+01
9.375000e+01
1.000000e+02
1.062500e+02
1.125000e+02
1.187500e+02
1.250000e+02
1.312500e+02
1.375000e+02
1.437500e+02
1.500000e+02
1.562500e+02
1.625000e+02
1.687500e+02
1.750000e+02
1.812500e+02
1.875000e+02
1.937500e+02
2.000000e+02
0.000000e+00
6.250000e+00
1.250000e+01
1.875000e+01
2.500000e+01
3.125000e+01
3.750000e+01
4.375000e+01
5.000000e+01
5.625000e+01
6.250000e+01
6.875000e+01
7.500000e+01
8.125000e+01
8.750000e+01
9.375000e+01
1.000000e+02
1.062500e+02
1.125000e+02
1.187500e+02
1.250000e+02
1.312500e+02
1.375000e+02
1.437500e+02
1.500000e+02
1.562500e+02
1.625000e+02
1.687500e+02
1.750000e+02
1.812500e+02
1.875000e+02
1.937500e+02
2.000000e+02
0.000000e+00
6.250000e+00
1.250000e+01
1.875000e+01
2.500000e+01
3.125000e+01
3.750000e+01
4.375000e+01
5.000000e+01
5.625000e+01
6.250000e+01
6.875000e+01
7.500000e+01
8.125000e+01
8.750000e+01
9.375000e+01
1.000000e+02
1.062500e+02
1.125000e+02
1.187500e+02
1.250000e+02
1.312500e+02
1.375000e+02
1.437500e+02
1.500000e+02
1.562500e+02
1.625000e+02
1.687500e+02
1.750000e+02
1.812500e+02
1.875000e+02
1.937500e+02
2.000000e+02
0.000000e+00
6.250000e+00
1.250000e+01
1.875000e+01
2.500000e+01
3.125000e+01
3.750000e+01
4.375000e+01
5.000000e+01
5.625000e+01
6.250000e+01
6.875000e+01
7.500000e+01
8.125000e+01
8.750000e+01
9.375000e+01
1.000000e+02
1.062500e+02
1.125000e+02
1.187500e+02
1.250000e+02
1.312500e+02
1.375000e+02
1.437500e+02
1.500000e+02
1.562500e+02
1.625000e+02
1.687500e+02
1.750000e+02
1.812500e+02
1.875000e+02
1.937500e+02
2.000000e+02
0.000000e+00
6.250000e+00
1.250000e+01
1.875000e+01
2.500000e+01
3.125000e+01
3.750000e+01
4.375000e+01
5.000000e+01
5.625000e+01
6.250000e+01
6.875000e+01
7.500000e+01
8.125000e+01
8.750000e+01
9.375000e+01
1.000000e+02
1.062500e+02
1.125000e+02
1.187500e+02
1.250000e+02
1.312500e+02
1.375000e+02
1.437500e+02
1.500000e+02
1.562500e+02
1.625000e+02
1.687500e+02
1.750000e+02
1.812500e+02
1.875000e+02
1.937500e+02
2.000000e+02
0.000000e+00
6.250000e+00
1.250000e+01
1.875000e+01
2.500000e+01
3.125000e+01
3.750000e+01
4.375000e+01
5.000000e+01
5.625000e+01
6.250000e+01
6.875000e+01
7.500000e+01
8.125000e+01
8.750000e+01
9.375000e+01
1.000000e+02
1.062500e+02
1.125000e+02
1.187500e+02
1.250000e+02
1.312500e+02
1.375000e+02
1.437500e+02
1.500000e+02
1.562500e+02
1.625000e+02
1.687500e+02
1.750000e+02
1.812500e+02
1.875000e+02
1.937500e+02
2.000000e+02
0.000000e+00
6.250000e+00
1.250000e+01
1.875000e+01
2.500000e+01
3.125000e+01
3.750000e+01
4.375000e+01
5.000000e+01
5.625000e+01
6.250000e+01
6.875000e+01
7.500000e+01
8.125000e+01
8.750000e+01
9.375000e+01
1.000000e+02
1.062500e+02
1.125000e+02
1.187500e+02
1.250000e+02
1.312500e+02
1.375000e+02
1.437500e+02
1.500000e+02
1.562500e+02
1.625000e+02
1.687500e+02
1.750000e+02
1.812500e+02
1.875000e+02
1.937500e+02
2.000000e+02
0.000000e+00
6.250000e+00
1.250000e+01
1.875000e+01
2.500000e+01
3.125000e+01
3.750000e+01
4.375000e+01
5.000000e+01
5.625000e+01
6.250000e+01
6.875000e+01
7.500000e+01
8.125000e+01
8.750000e+01
9.375000e+01
1.000000e+02
1.062500e+02
1.125000e+02
1.187500e+02
1.250000e+02
1.312500e+02
1.375000e+02
1.437500e+02
1.500000e+02
1.562500e+02
1.625000e+02
1.687500e+02
1.750000e+02
1.812500e+02
1.875000e+02
1.937500e+02
2.000000e+02
0.000000e+00
6.250000e+00
1.250000e+01
1.875000e+01
2.500000e+01
3.125000e+01
3.750000e+01
4.375000e+01
5.000000e+01
5.625000e+01
6.250000e+01
6.875000e+01
7.500000e+01
8.125000e+01
8.750000e+01
9.375000e+01
1.000000e+02
1.062500e+02
1.125000e+02
1.187500e+02
1.250000e+02
1.312500e+02
1.375000e+02
1.437500e+02
1.500000e+02
1.562500e+02
1.625000e+02
1.687500e+02
1.750000e+02
1.812500e+02
1.875000e+02
1.937500e+02
2.000000e+02
0.000000e+00
6.250000e+00
1.250000e+01
1.875000e+01
2.500000e+01
3.125000e+01
3.750000e+01
4.375000e+01
5.000000e+01
5.625000e+01
6.250000e+01
6.875000e+01
7.500000e+01
8.125000e+01
8.750000e+01
9.375000e+01
1.000000e+02
1.062500e+02
1.125000e+02
1.187500e+02
1.250000e+02
1.312500e+02
1.375000e+02
1.437500e+02
1.500000e+02
1.562500e+02
1.625000e+02
1.687500e+02
1.750000e+02
1.812500e+02
1.875000e+02
1.937500e+02
2.000000e+02
0.000000e+00
6.250000e+00
1.250000e+01
1.875000e+01
2.500000e+01
3.125000e+01
3.750000e+01
4.375000e+01
5.000000e+01
5.625000e+01
6.250000e+01
6.875000e+01
7.500000e+01
8.125000e+01
8.750000e+01
9.375000e+01
1.000000e+02
1.062500e+02
1.125000e+02
1.187500e+02
1.250000e+02
1.312500e+02
1.375000e+02
1.437500e+02
1.500000e+02
1.562500e+02
1.625000e+02
1.687500e+02
1.750000e+02
1.812500e+02
1.875000e+02
1.937500e+02
2.000000e+02
0.000000e+00
6.250000e+00
1.250000e+01
1.875000e+01
2.500000e+01
3.125000e+01
3.750000e+01
4.375000e+01
5.000000e+01
5.625000e+01
6.250000e+01
6.875000e+01
7.500000e+01
8.125000e+01
8.750000e+01
9.375000e+01
1.000000e+02
1.062500e+02
1.125000e+02
1.187500e+02
1.250000e+02
1.312500e+02
1.375000e+02
1.437500e+02
1.500000e+02
1.562500e+02
1.625000e+02
1.687500e+02
1.750000e+02
1.812500e+02
1.875000e+02
1.937500e+02
2.000000e+02
0.000000e+00
0.000000e+00
0.000000e+00
0.000000e+00
0.000000e+00
0.000000e+00
0.000000e+00
0.000000e+00
0.000000e+00
0.000000e+00
0.000000e+00
0.000000e+00
0.000000e+00
0.000000e+00
0.000000e+00
0.000000e+00
0.000000e+00
0.000000e+00
0.000000e+00
0.000000e+00
0.000000e+00
0.000000e+00
0.000000e+00
0.000000e+00
0.000000e+00
0.000000e+00
0.000000e+00
0.000000e+00
0.000000e+00
0.000000e+00
0.000000e+00
0.000000e+00
0.000000e+00
6.250000e+00
6.250000e+00
6.250000e+00
6.250000e+00
6.250000e+00
6.250000e+00
6.250000e+00
6.250000e+00
6.250000e+00
6.250000e+00
6.250000e+00
6.250000e+00
6.250000e+00
6.250000e+00
6.250000e+00
6.250000e+00
6.250000e+00
6.250000e+00
6.250000e+00
6.250000e+00
6.250000e+00
6.250000e+00
6.250000e+00
6.250000e+00
6.250000e+00
6.250000e+00
6.250000e+00
6.250000e+00
6.250000e+00
6.250000e+00
6.250000e+00
6.250000e+00
6.250000e+00
1.250000e+01
1.250000e+01
1.250000e+01
1.250000e+01
1.250000e+01
1.250000e+01
1.250000e+01
1.250000e+01
1.250000e+01
1.250000e+01
1.250000e+01
1.250000e+01
1.250000e+01
1.250000e+01
1.250000e+01
1.250000e+01
1.250000e+01
1.250000e+01
1.250000e+01
1.250000e+01
1.250000e+01
1.250000e+01
1.250000e+01
1.250000e+01
1.250000e+01
1.250000e+01
1.250000e+01
1.250000e+01
1.250000e+01
1.250000e+01
1.250000e+01
1.250000e+01
1.250000e+01
1.875000e+01
1.875000e+01
1.875000e+01
1.875000e+01
1.875000e+01
1.875000e+01
1.875000e+01
1.875000e+01
1.875000e+01
1.875000e+01
1.875000e+01
1.875000e+01
1.875000e+01
1.875000e+01
1.875000e+01
1.875000e+01
1.875000e+01
1.875000e+01
1.875000e+01
1.875000e+01
1.875000e+01
1.875000e+01
1.875000e+01
1.875000e+01
1.875000e+01
1.875000e+01
1.875000e+01
1.875000e+01
1.875000e+01
1.875000e+01
1.875000e+01
1.875000e+01
1.875000e+01
2.500000e+01
2.500000e+01
2.500000e+01
2.500000e+01
2.500000e+01
2.500000e+01
2.500000e+01
2.500000e+01
2.500000e+01
2.500000e+01
2.500000e+01
2.500000e+01
2.500000e+01
2.500000e+01
2.500000e+01
2.500000e+01
2.500000e+01
2.500000e+01
2.500000e+01
2.500000e+01
2.500000e+01
2.500000e+01
2.500000e+01
2.500000e+01
2.500000e+01
2.500000e+01
2.500000e+01
2.500000e+01
2.500000e+01
2.500000e+01
2.500000e+01
2.500000e+01
2.500000e+01
3.125000e+01
3.125000e+01
3.125000e+01
3.125000e+01
3.125000e+01
3.125000e+01
3.125000e+01
3.125000e+01
3.125000e+01
3.125000e+01
3.125000e+01
3.125000e+01
3.125000e+01
3.125000e+01
3.125000e+01
3.125000e+01
3.125000e+01
3.125000e+01
3.125000e+01
3.125000e+01
3.125000e+01
3.125000e+01
3.125000e+01
3.125000e+01
3.125000e+01
3.125000e+01
3.125000e+01
3.125000e+01
3.125000e+01
3.125000e+01
3.125000e+01
3.125000e+01
3.125000e+01
3.750000e+01
3.750000e+01
3.750000e+01
3.750000e+01
3.750000e+01
3.750000e+01
3.750000e+01
3.750000e+01
3.750000e+01
3.750000e+01
3.750000e+01
3.750000e+01
3.750000e+01
3.750000e+01
3.750000e+01
3.750000e+01
3.750000e+01
3.750000e+01
3.750000e+01
3.750000e+01
3.750000e+01
3.750000e+01
3.750000e+01
3.750000e+01
3.750000e+01
3.750000e+01
3.750000e+01
3.750000e+01
3.750000e+01
3.750000e+01
3.750000e+01
3.750000e+01
3.750000e+01
4.375000e+01
4.375000e+01
4.375000e+01
4.375000e+01
4.375000e+01
4.375000e+01
4.375000e+01
4.375000e+01
4.375000e+01
4.375000e+01
4.375000e+01
4.375000e+01
4.375000e+01
4.375000e+01
4.375000e+01
4.375000e+01
4.375000e+01
4.375000e+01
4.375000e+01
4.375000e+01
4.375000e+01
4.375000e+01
4.375000e+01
4.375000e+01
4.375000e+01
4.375000e+01
4.375000e+01
4.375000e+01
4.375000e+01
4.375000e+01
4.375000e+01
4.375000e+01
4.375000e+01
5.000000e+01
5.000000e+01
5.000000e+01
5.000000e+01
5.000000e+01
5.000000e+01
5.000000e+01
5.000000e+01
5.000000e+01
5.000000e+01
5.000000e+01
5.000000e+01
5.000000e+01
5.000000e+01
5.000000e+01
5.000000e+01
5.000000e+01
5.000000e+01
5.000000e+01
5.000000e+01
5.000000e+01
5.000000e+01
5.000000e+01
5.000000e+01
5.000000e+01
5.000000e+01
5.000000e+01
5.000000e+01
5.000000e+01
5.000000e+01
5.000000e+01
5.000000e+01
5.000000e+01
5.625000e+01
5.625000e+01
5.625000e+01
5.625000e+01
5.625000e+01
5.625000e+01
5.625000e+01
5.625000e+01
5.625000e+01
5.625000e+01
5.625000e+01
5.625000e+01
5.625000e+01
5.625000e+01
5.625000e+01
5.625000e+01
5.625000e+01
5.625000e+01
5.625000e+01
5.625000e+01
5.625000e+01
5.625000e+01
5.625000e+01
5.625000e+01
5.625000e+01
5.625000e+01
5.625000e+01
5.625000e+01
5.625000e+01
5.625000e+01
5.625000e+01
5.625000e+01
5.625000e+01
6.250000e+01
6.250000e+01
6.250000e+01
6.250000e+01
6.250000e+01
6.250000e+01
6.250000e+01
6.250000e+01
6.250000e+01
6.250000e+01
6.250000e+01
6.250000e+01
6.250000e+01
6.250000e+01
6.250000e+01
6.250000e+01
6.250000e+01
6.250000e+01
6.250000e+01
6.250000e+01
6.250000e+01
6.250000e+01
6.250000e+01
6.250000e+01
6.250000e+01
6.250000e+01
6.250000e+01
6.250000e+01
6.250000e+01
6.250000e+01
6.250000e+01
6.250000e+01
6.250000e+01
6.875000e+01
6.875000e+01
6.875000e+01
6.875000e+01
6.875000e+01
6.875000e+01
6.875000e+01
6.875000e+01
6.875000e+01
6.875000e+01
6.875000e+01
6.875000e+01
6.875000e+01
6.875000e+01
6.875000e+01
6.875000e+01
6.875000e+01
6.875000e+01
6.875000e+01
6.875000e+01
6.875000e+01
6.875000e+01
6.875000e+01
6.875000e+01
6.875000e+01
6.875000e+01
6.875000e+01
6.875000e+01
6.875000e+01
6.875000e+01
6.875000e+01
6.875000e+01
6.875000e+01
7.500000e+01
7.500000e+01
7.500000e+01
7.500000e+01
7.500000e+01
7.500000e+01
7.500000e+01
7.500000e+01
7.500000e+01
7.500000e+01
7.500000e+01
7.500000e+01
7.500000e+01
7.500000e+01
7.500000e+01
7.500000e+01
7.500000e+01
7.500000e+01
7.500000e+01
7.500000e+01
7.500000e+01
7.500000e+01
7.500000e+01
7.500000e+01
7.500000e+01
7.500000e+01
7.500000e+01
7.500000e+01
7.500000e+01
7.500000e+01
7.500000e+01
7.500000e+01
7.500000e+01
8.125000e+01
8.125000e+01
8.125000e+01
8.125000e+01
8.125000e+01
8.125000e+01
8.125000e+01
8.125000e+01
8.125000e+01
8.125000e+01
8.125000e+01
8.125000e+01
8.125000e+01
8.125000e+01
8.125000e+01
8.125000e+01
8.125000e+01
8.125000e+01
8.125000e+01
8.125000e+01
8.125000e+01
8.125000e+01
8.125000e+01
8.125000e+01
8.125000e+01
8.125000e+01
8.125000e+01
8.125000e+01
8.125000e+01
8.125000e+01
8.125000e+01
8.125000e+01
8.125000e+01
8.750000e+01
8.750000e+01
8.750000e+01
8.750000e+01
8.750000e+01
8.750000e+01
8.750000e+01
8.750000e+01
8.750000e+01
8.750000e+01
8.750000e+01
8.750000e+01
8.750000e+01
8.750000e+01
8.750000e+01
8.750000e+01
8.750000e+01
8.750000e+01
8.750000e+01
8.750000e+01
8.750000e+01
8.750000e+01
8.750000e+01
8.750000e+01
8.750000e+01
8.750000e+01
8.750000e+01
8.750000e+01
8.750000e+01
8.750000e+01
8.750000e+01
8.750000e+01
8.750000e+01
9.375000e+01
9.375000e+01
9.375000e+01
9.375000e+01
9.375000e+01
9.375000e+01
9.375000e+01
9.375000e+01
9.375000e+01
9.375000e+01
9.375000e+01
9.375000e+01
9.375000e+01
9.375000e+01
9.375000e+01
9.375000e+01
9.375000e+01
9.375000e+01
9.375000e+01
9.375000e+01
9.375000e+01
9.375000e+01
9.375000e+01
9.375000e+01
9.375000e+01
9.375000e+01
9.375000e+01
9.375000e+01
9.375000e+01
9.375000e+01
9.375000e+01
9.375000e+01
9.375000e+01
1.000000e+02
1.000000e+02
1.000000e+02
1.000000e+02
1.000000e+02
1.000000e+02
1.000000e+02
1.000000e+02
1.000000e+02
1.000000e+02
1.000000e+02
1.000000e+02
1.000000e+02
1.000000e+02
1.000000e+02
1.000000e+02
1.000000e+02
1.000000e+02
1.000000e+02
1.000000e+02
1.000000e+02
1.000000e+02
1.000000e+02
1.000000e+02
1.000000e+02
1.000000e+02
1.000000e+02
1.000000e+02
1.000000e+02
1.000000e+02
1.000000e+02
1.000000e+02
1.000000e+02
0.000000e+00
-3.712493e-01
-6.686808e-01
-9.576291e-01
-1.252478e+00
-1.541706e+00
-1.829215e+00
-2.117098e+00
-2.403762e+00
-2.688747e+00
-2.972305e+00
-3.254219e+00
-3.534034e+00
-3.811278e+00
-4.085307e+00
-4.355201e+00
-4.619793e+00
-4.877769e+00
-5.127825e+00
-5.368865e+00
-5.600196e+00
-5.821682e+00
-6.033830e+00
-6.237875e+00
-6.435870e+00
-6.630803e+00
-6.826764e+00
-7.029293e+00
-7.246207e+00
-7.488352e+00
-7.763019e+00
-8.058160e+00
-8.230572e+00
0.000000e+00
-2.369360e-01
-4.917184e-01
-7.454353e-01
-1.004772e+00
-1.259150e+00
-1.511375e+00
-1.763691e+00
-2.014821e+00
-2.264307e+00
-2.512415e+00
-2.759012e+00
-3.003722e+00
-3.246156e+00
-3.485789e+00
-3.721851e+00
-3.953341e+00
-4.179104e+00
-4.397948e+00
-4.608803e+00
-4.810878e+00
-5.003767e+00
-5.187491e+00
-5.362496e+00
-5.529628e+00
-5.690052e+00
-5.845095e+00
-5.995899e+00
-6.142341e+00
-6.278765e+00
-6.384891e+00
-6.441370e+00
-6.515626e+00
0.000000e+00
-1.786070e-01
-3.704858e-01
-5.795557e-01
-7.971590e-01
-1.013464e+00
-1.229493e+00
-1.445893e+00
-1.661516e+00
-1.875950e+00
-2.089214e+00
-2.301079e+00
-2.511181e+00
-2.719130e+00
-2.924421e+00
-3.126357e+00
-3.324058e+00
-3.516506e+00
-3.702623e+00
-3.881371e+00
-4.051854e+00
-4.213378e+00
-4.365439e+00
-4.507675e+00
-4.639750e+00
-4.761148e+00
-4.870823e+00
-4.966552e+00
-5.043576e+00
-5.092391e+00
-5.102900e+00
-5.095328e+00
-5.173952e+00
0.000000e+00
-1.397241e-01
-2.895120e-01
-4.536979e-01
-6.276759e-01
-8.044243e-01
-9.831615e-01
-1.162918e+00
-1.342570e+00
-1.521628e+00
-1.699799e+00
-1.876708e+00
-2.051953e+00
-2.225108e+00
-2.395658e+00
-2.562959e+00
-2.726235e+00
-2.884593e+00
-3.037065e+00
-3.182657e+00
-3.320398e+00
-3.449360e+00
-3.568629e+00
-3.677235e+00
-3.774023e+00
-3.857459e+00
-3.925375e+00
-3.974669e+00
-4.001275e+00
-4.002013e+00
-3.985192e+00
-3.986457e+00
-4.060348e+00
0.000000e+00
-1.116344e-01
-2.287118e-01
-3.547127e-01
-4.877824e-01
-6.257715e-01
-7.667439e-01
-9.092573e-01
-1.052328e+00
-1.195309e+00
-1.337683e+00
-1.478992e+00
-1.618803e+00
-1.756664e+00
-1.892068e+00
-2.024427e+00
-2.153055e+00
-2.277168e+00
-2.395896e+00
-2.508298e+00
-2.613377e+00
-2.710082e+00
-2.797283e+00
-2.873720e+00
-2.937939e+00
-2.988222e+00
-3.022609e+00
-3.039203e+00
-3.037363e+00
-3.021384e+00
-3.008701e+00
-3.031146e+00
-3.101888e+00
0.000000e+00
-8.386751e-02
-1.712158e-01
-2.633530e-01
-3.606345e-01
-4.619968e-01
-5.662077e-01
-6.720996e-01
-7.788020e-01
-8.856554e-01
-9.921209e-01
-1.097738e+00
-1.202081e+00
-1.304716e+00
-1.405176e+00
-1.502936e+00
-1.597396e+00
-1.687870e+00
-1.773582e+00
-1.853667e+00
-1.927171e+00
-1.993055e+00
-2.050188e+00
-2.097354e+00
-2.133270e+00
-2.156691e+00
-2.166698e+00
-2.163408e+00
-2.149537e+00
-2.133352e+00
-2.131821e+00
-2.163058e+00
-2.229998e+00
0.000000e+00
-5.592007e-02
-1.139276e-01
-1.747790e-01
-2.387135e-01
-3.053975e-01
-3.741413e-01
-4.442188e-01
-5.149960e-01
-5.859512e-01
-6.566478e-01
-7.267042e-01
-7.957613e-01
-8.634532e-01
-9.293850e-01
-9.931141e-01
-1.054135e+00
-1.111863e+00
-1.165632e+00
-1.214688e+00
-1.258194e+00
-1.295245e+00
-1.324895e+00
-1.346212e+00
-1.358391e+00
-1.360972e+00
-1.354264e+00
-1.340093e+00
-1.322995e+00
-1.311575e+00
-1.317891e+00
-1.351557e+00
-1.410790e+00
0.000000e+00
-2.799855e-02
-5.702186e-02
-8.737804e-02
-1.191890e-01
-1.523331e-01
-1.865239e-01
-2.214092e-01
-2.566535e-01
-2.919608e-01
-3.270702e-01
-3.617404e-01
-3.957311e-01
-4.287854e-01
-4.606140e-01
-4.908817e-01
-5.191955e-01
-5.450949e-01
-5.680476e-01
-5.874534e-01
-6.026579e-01
-6.129825e-01
-6.177806e-01
-6.165335e-01
-6.090102e-01
-5.955254e-01
-5.773358e-01
-5.571856e-01
-5.398820e-01
-5.323875e-01
-5.423064e-01
-5.737818e-01
-6.230060e-01
0.000000e+00
-1.589339e-04
-3.195391e-04
-4.748003e-04
-6.159195e-04
-7.320575e-04
-8.092773e-04
-8.288717e-04
-7.653587e-04
-5.838608e-04
-2.365268e-04
3.420940e-04
1.240717e-03
2.578034e-03
4.510310e-03
7.239185e-03
1.101825e-02
1.615642e-02
2.301577e-02
3.200092e-02
4.353513e-02
5.801682e-02
7.574777e-02
9.682172e-02
1.209596e-01
1.472815e-01
1.740241e-01
1.982655e-01
2.158382e-01
2.217875e-01
2.118924e-01
1.852424e-01
1.463755e-01
0.000000e+00
2.768640e-02
5.639349e-02
8.644314e-02
1.179743e-01
1.508868e-01
1.849212e-01
2.197613e-01
2.551200e-01
2.907670e-01
3.265321e-01
3.622977e-01
3.979907e-01
4.335772e-01
4.690619e-01
5.044891e-01
5.399437e-01
5.755486e-01
6.114576e-01
6.478408e-01
6.848568e-01
7.226053e-01
7.610555e-01
7.999424e-01
8.386279e-01
8.759349e-01
9.099902e-01
9.381600e-01
9.572242e-01
9.640004e-01
9.565738e-01
9.358826e-01
9.067401e-01
0.000000e+00
5.562431e-02
1.133304e-01
1.738879e-01
2.375508e-01
3.040051e-01
3.725859e-01
4.425991e-01
5.134511e-01
5.846755e-01
6.559119e-01
7.268818e-01
7.973641e-01
8.671759e-01
9.361624e-01
1.004192e+00
1.071152e+00
1.136940e+00
1.201460e+00
1.264610e+00
1.326260e+00
1.386215e+00
1.444155e+00
1.499557e+00
1.551595e+00
1.599032e+00
1.640163e+00
1.672859e+00
1.694846e+00
1.704298e+00
1.700781e+00
1.686291e+00
1.665853e+00
0.000000e+00
8.359731e-02
1.706686e-01
2.625348e-01
3.595612e-01
4.606990e-01
5.647369e-01
6.705315e-01
7.772416e-01
8.842477e-01
9.910661e-01
1.097310e+00
1.202647e+00
1.306768e+00
1.409364e+00
1.510116e+00
1.608681e+00
1.704692e+00
1.797753e+00
1.887447e+00
1.973333e+00
2.054924e+00
2.131664e+00
2.202871e+00
2.267675e+00
2.324960e+00
2.373351e+00
2.411306e+00
2.437384e+00
2.450739e+00
2.451846e+00
2.443292e+00
2.430342e+00
0.000000e+00
1.114013e-01
2.282374e-01
3.540038e-01
4.868471e-01
6.246269e-01
7.654201e-01
9.077969e-01
1.050790e+00
1.193775e+00
1.336268e+00
1.477847e+00
1.618126e+00
1.756706e+00
1.893144e+00
2.026927e+00
2.157452e+00
2.284034e+00
2.405921e+00
2.522326e+00
2.632459e+00
2.735543e+00
2.830819e+00
2.917515e+00
2.994818e+00
3.061843e+00
3.117643e+00
3.161289e+00
3.192076e+00
3.209891e+00
3.215758e+00
3.212545e+00
3.205707e+00
0.000000e+00
1.395538e-01
2.891578e-01
4.531638e-01
6.269645e-01
8.035387e-01
9.821097e-01
1.161707e+00
1.341210e+00
1.520135e+00
1.698197e+00
1.875025e+00
2.050218e+00
2.223336e+00
2.393831e+00
2.560995e+00
2.723939e+00
2.881604e+00
3.032813e+00
3.176345e+00
3.311014e+00
3.435731e+00
3.549534e+00
3.651585e+00
3.741167e+00
3.817671e+00
3.880617e+00
3.929712e+00
3.964974e+00
3.986952e+00
3.997085e+00
3.998300e+00
3.996019e+00
0.000000e+00
1.785411e-01
3.703343e-01
5.793096e-01
7.968160e-01
1.013019e+00
1.228938e+00
1.445212e+00
1.660687e+00
1.874941e+00
2.087975e+00
2.299540e+00
2.509234e+00
2.716599e+00
2.921012e+00
3.121583e+00
3.317120e+00
3.506155e+00
3.687033e+00
3.858040e+00
4.017544e+00
4.164095e+00
4.296481e+00
4.413757e+00
4.515248e+00
4.600578e+00
4.669698e+00
4.722955e+00
4.761160e+00
4.785674e+00
4.798519e+00
4.802700e+00
4.803188e+00
0.000000e+00
2.369862e-01
4.917928e-01
7.455268e-01
1.004883e+00
1.259273e+00
1.511506e+00
1.763815e+00
2.014916e+00
2.264338e+00
2.512309e+00
2.758659e+00
3.002956e+00
3.244708e+00
3.483208e+00
3.717386e+00
3.945752e+00
4.166433e+00
4.377296e+00
4.576133e+00
4.760836e+00
4.929544e+00
5.080713e+00
5.213160e+00
5.326099e+00
5.419203e+00
5.492695e+00
5.547459e+00
5.585162e+00
5.608308e+00
5.620153e+00
5.624454e+00
5.625504e+00
0.000000e+00
3.713440e-01
6.689016e-01
9.579991e-01
1.253013e+00
1.542410e+00
1.830105e+00
2.118192e+00
2.405082e+00
2.690307e+00
2.974089e+00
3.256182e+00
3.536078e+00
3.813193e+00
4.086676e+00
4.355233e+00
4.617079e+00
4.869978e+00
5.111389e+00
5.338665e+00
5.549255e+00
5.740846e+00
5.911444e+00
6.059423e+00
6.183598e+00
6.283335e+00
6.358727e+00
6.410841e+00
6.442016e+00
6.456136e+00
6.458762e+00
6.456686e+00
6.455505e+00
0.000000e+00
-2.290466e-01
-4.205445e-01
-6.450794e-01
-8.987376e-01
-1.183510e+00
-1.503097e+00
-1.858013e+00
-2.248263e+00
-2.674321e+00
-3.136362e+00
-3.634252e+00
-4.167780e+00
-4.736627e+00
-5.340292e+00
-5.978071e+00
-6.649059e+00
-7.352163e+00
-8.086145e+00
-8.849695e+00
-9.641531e+00
-1.046052e+01
-1.130582e+01
-1.217716e+01
-1.307508e+01
-1.400150e+01
-1.496037e+01
-1.595882e+01
-1.700901e+01
-1.813247e+01
-1.937716e+01
-2.086406e+01
-2.288596e+01
0.000000e+00
-1.426051e-01
-3.425812e-01
-5.636133e-01
-8.169819e-01
-1.102650e+00
-1.422308e+00
-1.777285e+00
-2.167945e+00
-2.594445e+00
-3.056924e+00
-3.555355e+00
-4.089555e+00
-4.659228e+00
-5.263936e+00
-5.903052e+00
-6.575729e+00
-7.280902e+00
-8.017315e+00
-8.783583e+00
-9.578304e+00
-1.040020e+01
-1.124827e+01
-1.212205e+01
-1.302193e+01
-1.394964e+01
-1.490894e+01
-1.590688e+01
-1.695584e+01
-1.807890e+01
-1.932275e+01
-2.078213e+01
-2.265325e+01
0.000000e+00
-1.065616e-01
-2.820776e-01
-4.980656e-01
-7.487459e-01
-1.033701e+00
-1.353020e+00
-1.707843e+00
-2.098650e+00
-2.525469e+00
-2.988359e+00
-3.487317e+00
-4.022186e+00
-4.592688e+00
-5.198428e+00
-5.838833e+00
-6.513110e+00
-7.220224e+00
-7.958924e+00
-8.727794e+00
-9.525375e+00
-1.035031e+01
-1.120153e+01
-1.207851e+01
-1.298159e+01
-1.391249e+01
-1.487508e+01
-1.587674e+01
-1.693085e+01
-1.806085e+01
-1.929913e+01
-2.066755e+01
-2.214578e+01
0.000000e+00
-9.190063e-02
-2.475412e-01
-4.514245e-01
-6.964341e-01
-9.783409e-01
-1.296155e+00
-1.650237e+00
-2.040773e+00
-2.467671e+00
-2.930895e+00
-3.430386e+00
-3.965976e+00
-4.537394e+00
-5.144260e+00
-5.786032e+00
-6.461950e+00
-7.171014e+00
-7.911998e+00
-8.683500e+00
-9.484060e+00
-1.031231e+01
-1.116717e+01
-1.204811e+01
-1.295547e+01
-1.389095e+01
-1.485837e+01
-1.586483e+01
-1.692261e+01
-1.804953e+01
-1.925339e+01
-2.050228e+01
-2.165947e+01
0.000000e+00
-8.691777e-02
-2.297334e-01
-4.225474e-01
-6.596767e-01
-9.368972e-01
-1.252084e+00
-1.604734e+00
-1.994558e+00
-2.421284e+00
-2.884733e+00
-3.384744e+00
-3.921102e+00
-4.493518e+00
-5.101607e+00
-5.744832e+00
-6.422456e+00
-7.133514e+00
-7.876815e+00
-8.651000e+00
-9.454641e+00
-1.028639e+01
-1.114516e+01
-1.203038e+01
-1.294228e+01
-1.388229e+01
-1.485358e+01
-1.586165e+01
-1.691474e+01
-1.802060e+01
-1.916830e+01
-2.030014e+01
-2.131338e+01
0.000000e+00
-8.362924e-02
-2.195697e-01
-4.046141e-01
-6.351161e-01
-9.075776e-01
-1.219854e+00
-1.570782e+00
-1.959689e+00
-2.386108e+00
-2.849705e+00
-3.350207e+00
-3.887340e+00
-4.460782e+00
-5.070131e+00
-5.714847e+00
-6.394207e+00
-7.107274e+00
-7.852899e+00
-8.629764e+00
-9.436472e+00
-1.027167e+01
-1.113422e+01
-1.202341e+01
-1.293913e+01
-1.388216e+01
-1.485433e+01
-1.585844e+01
-1.689720e+01
-1.796859e+01
-1.905091e+01
-2.009190e+01
-2.101890e+01
0.000000e+00
-8.130879e-02
-2.132797e-01
-3.935446e-01
-6.194203e-01
-8.882704e-01
-1.198074e+00
-1.547471e+00
-1.935551e+00
-2.361683e+00
-2.825409e+00
-3.326370e+00
-3.864237e+00
-4.438663e+00
-5.049228e+00
-5.695390e+00
-6.376439e+00
-7.091461e+00
-7.839336e+00
-8.618768e+00
-9.428357e+00
-1.026670e+01
-1.113250e+01
-1.202476e+01
-1.294281e+01
-1.388647e+01
-1.485578e+01
-1.585051e+01
-1.686835e+01
-1.790051e+01
-1.892323e+01
-1.989488e+01
-2.076471e+01
0.000000e+00
-7.996485e-02
-2.097615e-01
-3.874109e-01
-6.106721e-01
-8.773424e-01
-1.185579e+00
-1.533983e+00
-1.921543e+00
-2.347535e+00
-2.811428e+00
-3.312812e+00
-3.851332e+00
-4.426626e+00
-5.038274e+00
-5.685742e+00
-6.368332e+00
-7.085148e+00
-7.835079e+00
-8.616820e+00
-9.428917e+00
-1.026984e+01
-1.113806e+01
-1.203213e+01
-1.295070e+01
-1.389241e+01
-1.485558e+01
-1.583730e+01
-1.683176e+01
-1.782716e+01
-1.880152e+01
-1.972290e+01
-2.055576e+01
0.000000e+00
-7.952293e-02
-2.086248e-01
-3.854523e-01
-6.078926e-01
-8.738775e-01
-1.181632e+00
-1.529764e+00
-1.917241e+00
-2.343315e+00
-2.807440e+00
-3.309201e+00
-3.848248e+00
-4.424231e+00
-5.036747e+00
-5.685281e+00
-6.369158e+00
-7.087488e+00
-7.839150e+00
-8.622794e+00
-9.436863e+00
-1.027963e+01
-1.114926e+01
-1.204379e+01
-1.296110e+01
-1.389876e+01
-1.485356e+01
-1.582071e+01
-1.679258e+01
-1.775676e+01
-1.869439e+01
-1.958117e+01
-2.039137e+01
0.000000e+00
-7.995359e-02
-2.097629e-01
-3.874543e-01
-6.107911e-01
-8.775766e-01
-1.185978e+00
-1.534608e+00
-1.922472e+00
-2.348864e+00
-2.813283e+00
-3.315352e+00
-3.854759e+00
-4.431194e+00
-5.044290e+00
-5.693568e+00
-6.378376e+00
-7.097829e+00
-7.850777e+00
-8.635793e+00
-9.451178e+00
-1.029497e+01
-1.116497e+01
-1.205870e+01
-1.297333e+01
-1.390549e+01
-1.485085e+01
-1.580354e+01
-1.675527e+01
-1.769438e+01
-1.860527e+01
-1.946938e+01
-2.026744e+01
0.000000e+00
-8.128318e-02
-2.132763e-01
-3.936219e-01
-6.196437e-01
-8.887167e-01
-1.198839e+00
-1.548672e+00
-1.937336e+00
-2.364239e+00
-2.828974e+00
-3.331248e+00
-3.870815e+00
-4.447424e+00
-5.060762e+00
-5.710396e+00
-6.395701e+00
-7.115793e+00
-7.869481e+00
-8.655241e+00
-9.471210e+00
-1.031518e+01
-1.118458e+01
-1.207647e+01
-1.298740e+01
-1.391329e+01
-1.484909e+01
-1.578842e+01
-1.672308e+01
-1.764271e+01
-1.853472e+01
-1.938502e+01
-2.017903e+01
0.000000e+00
-8.358253e-02
-2.195499e-01
-4.047075e-01
-6.354168e-01
-9.081941e-01
-1.220920e+00
-1.572465e+00
-1.962194e+00
-2.389694e+00
-2.854705e+00
-3.357043e+00
-3.896549e+00
-4.473038e+00
-5.086258e+00
-5.735825e+00
-6.421143e+00
-7.141323e+00
-7.895126e+00
-8.680926e+00
-9.496692e+00
-1.033998e+01
-1.120792e+01
-1.209715e+01
-1.300376e+01
-1.392317e+01
-1.484990e+01
-1.577743e+01
-1.669804e+01
-1.760279e+01
-1.848181e+01
-1.932470e+01
-2.012093e+01
0.000000e+00
-8.684023e-02
-2.296836e-01
-4.226363e-01
-6.600200e-01
-9.376284e-01
-1.253367e+00
-1.606768e+00
-1.997592e+00
-2.425632e+00
-2.890795e+00
-3.393029e+00
-3.932254e+00
-4.508345e+00
-5.121104e+00
-5.770186e+00
-6.455014e+00
-7.174688e+00
-7.927917e+00
-8.712981e+00
-9.527705e+00
-1.036945e+01
-1.123511e+01
-1.212103e+01
-1.302297e+01
-1.393602e+01
-1.485450e+01
-1.577193e+01
-1.668117e+01
-1.757464e+01
-1.844479e+01
-1.928461e+01
-2.008763e+01
0.000000e+00
-9.178684e-02
-2.474560e-01
-4.514936e-01
-6.967882e-01
-9.791298e-01
-1.297559e+00
-1.652477e+00
-2.044123e+00
-2.472481e+00
-2.937606e+00
-3.439559e+00
-3.978316e+00
-4.553787e+00
-5.165798e+00
-5.814019e+00
-6.497868e+00
-7.216418e+00
-7.968330e+00
-8.751806e+00
-9.564573e+00
-1.040387e+01
-1.126644e+01
-1.214845e+01
-1.304548e+01
-1.395244e+01
-1.486357e+01
-1.577253e+01
-1.667267e+01
-1.755752e+01
-1.842149e+01
-1.926067e+01
-2.007306e+01
0.000000e+00
-1.064312e-01
-2.819743e-01
-4.981181e-01
-7.490949e-01
-1.034506e+00
-1.354468e+00
-1.710164e+00
-2.102130e+00
-2.530474e+00
-2.995349e+00
-3.496872e+00
-4.035035e+00
-4.609742e+00
-5.220804e+00
-5.867860e+00
-6.550282e+00
-7.267097e+00
-8.016915e+00
-8.797893e+00
-9.607716e+00
-1.044358e+01
-1.130219e+01
-1.217964e+01
-1.307147e+01
-1.397252e+01
-1.487707e+01
-1.577893e+01
-1.667182e+01
-1.755002e+01
-1.840939e+01
-1.924862e+01
-2.007046e+01
0.000000e+00
-1.424923e-01
-3.424836e-01
-5.636661e-01
-8.173324e-01
-1.103462e+00
-1.423770e+00
-1.779628e+00
-2.171458e+00
-2.599494e+00
-3.063971e+00
-3.564978e+00
-4.102478e+00
-4.676345e+00
-5.286332e+00
-5.931990e+00
-6.612601e+00
-7.327112e+00
-8.074081e+00
-8.851648e+00
-9.657515e+00
-1.048892e+01
-1.134258e+01
-1.221467e+01
-1.310076e+01
-1.399577e+01
-1.489410e+01
-1.578973e+01
-1.667668e+01
-1.754971e+01
-1.840546e+01
-1.924426e+01
-2.007258e+01
0.000000e+00
-2.289685e-01
-4.204753e-01
-6.451615e-01
-8.991186e-01
-1.184354e+00
-1.504595e+00
-1.860395e+00
-2.251818e+00
-2.679409e+00
-3.143437e+00
-3.643884e+00
-4.180670e+00
-4.753631e+00
-5.362423e+00
-6.006470e+00
-6.684922e+00
-7.396619e+00
-8.140059e+00
-8.913382e+00
-9.714335e+00
-1.054023e+01
-1.138789e+01