TITLE = "Solution"
VARIABLES = x, y, u, v, psiu, psiv, t, stress
ZONE T="structure" N=561 E=512 F=FEBLOCK ET=QUADRILATERAL VARLOCATION=([7,8]=cellcentered)
0.000000e+00
6.250000e+00
1.250000e+01
1.875000e+01
2.500000e+01
3.125000e+01
3.750000e+01
4.375000e+01
5.000000e+01
5.625000e+01
6.250000e+01
6.875000e+01
7.500000e+01
8.125000e+01
8.750000e+01
9.375000e+01
1.000000e+02
1.062500e+02
1.125000e+02
1.187500e+02
1.250000e+02
1.312500e+02
1.375000e+02
1.437500e+02
1.500000e+02
1.562500e+02
1.625000e+02
1.687500e+02
1.750000e+02
1.812500e+02
1.875000e+02
1.937500e+02
2.000000e+02
0.000000e+00
6.250000e+00
1.250000e+01
1.875000e+01
2.500000e+01
3.125000e+01
3.750000e+01
4.375000e+01
5.000000e+01
5.625000e+01
6.250000e+01
6.875000e+01
7.500000e+01
8.125000e+01
8.750000e+01
9.375000e+01
1.000000e+02
1.062500e+02
1.125000e+02
1.187500e+02
1.250000e+02
1.312500e+02
1.375000e+02
1.437500e+02
1.500000e+02
1.562500e+02
1.625000e+02
1.687500e+02
1.750000e+02
1.812500e+02
1.875000e+02
1.937500e+02
2.000000e+02
0.000000e+00
6.250000e+00
1.250000e+01
1.875000e+01
2.500000e+01
3.125000e+01
3.750000e+01
4.375000e+01
5.000000e+01
5.625000e+01
6.250000e+01
6.875000e+01
7.500000e+01
8.125000e+01
8.750000e+01
9.375000e+01
1.000000e+02
1.062500e+02
1.125000e+02
1.187500e+02
1.250000e+02
1.312500e+02
1.375000e+02
1.437500e+02
1.500000e+02
1.562500e+02
1.625000e+02
1.687500e+02
1.750000e+02
1.812500e+02
1.875000e+02
1.937500e+02
2.000000e+02
0.000000e+00
6.250000e+00
1.250000e+01
1.875000e+01
2.500000e+01
3.125000e+01
3.750000e+01
4.375000e+01
5.000000e+01
5.625000e+01
6.250000e+01
6.875000e+01
7.500000e+01
8.125000e+01
8.750000e+01
9.375000e+01
1.000000e+02
1.062500e+02
1.125000e+02
1.187500e+02
1.250000e+02
1.312500e+02
1.375000e+02
1.437500e+02
1.500000e+02
1.562500e+02
1.625000e+02
1.687500e+02
1.750000e+02
1.812500e+02
1.875000e+02
1.937500e+02
2.000000e+02
0.000000e+00
6.250000e+00
1.250000e+01
1.875000e+01
2.500000e+01
3.125000e+01
3.750000e+01
4.375000e+01
5.000000e+01
5.625000e+01
6.250000e+01
6.875000e+01
7.500000e+01
8.125000e+01
8.750000e+01
9.375000e+01
1.000000e+02
1.062500e+02
1.125000e+02
1.187500e+02
1.250000e+02
1.312500e+02
1.375000e+02
1.437500e+02
1.500000e+02
1.562500e+02
1.625000e+02
1.687500e+02
1.750000e+02
1.812500e+02
1.875000e+02
1.937500e+02
2.000000e+02
0.000000e+00
6.250000e+00
1.250000e+01
1.875000e+01
2.500000e+01
3.125000e+01
3.750000e+01
4.375000e+01
5.000000e+01
5.625000e+01
6.250000e+01
6.875000e+01
7.500000e+01
8.125000e+01
8.750000e+01
9.375000e+01
1.000000e+02
1.062500e+02
1.125000e+02
1.187500e+02
1.250000e+02
1.312500e+02
1.375000e+02
1.437500e+02
1.500000e+02
1.562500e+02
1.625000e+02
1.687500e+02
1.750000e+02
1.812500e+02
1.875000e+02
1.937500e+02
2.000000e+02
0.000000e+00
6.250000e+00
1.250000e+01
1.875000e+01
2.500000e+01
3.125000e+01
3.750000e+01
4.375000e+01
5.000000e+01
5.625000e+01
6.250000e+01
6.875000e+01
7.500000e+01
8.125000e+01
8.750000e+01
9.375000e+01
1.000000e+02
1.062500e+02
1.125000e+02
1.187500e+02
1.250000e+02
1.312500e+02
1.375000e+02
1.437500e+02
1.500000e+02
1.562500e+02
1.625000e+02
1.687500e+02
1.750000e+02
1.812500e+02
1.875000e+02
1.937500e+02
2.000000e+02
0.000000e+00
6.250000e+00
1.250000e+01
1.875000e+01
2.500000e+01
3.125000e+01
3.750000e+01
4.375000e+01
5.000000e+01
5.625000e+01
6.250000e+01
6.875000e+01
7.500000e+01
8.125000e+01
8.750000e+01
9.375000e+01
1.000000e+02
1.062500e+02
1.125000e+02
1.187500e+02
1.250000e+02
1.312500e+02
1.375000e+02
1.437500e+02
1.500000e+02
1.562500e+02
1.625000e+02
1.687500e+02
1.750000e+02
1.812500e+02
1.875000e+02
1.937500e+02
2.000000e+02
0.000000e+00
6.250000e+00
1.250000e+01
1.875000e+01
2.500000e+01
3.125000e+01
3.750000e+01
4.375000e+01
5.000000e+01
5.625000e+01
6.250000e+01
6.875000e+01
7.500000e+01
8.125000e+01
8.750000e+01
9.375000e+01
1.000000e+02
1.062500e+02
1.125000e+02
1.187500e+02
1.250000e+02
1.312500e+02
1.375000e+02
1.437500e+02
1.500000e+02
1.562500e+02
1.625000e+02
1.687500e+02
1.750000e+02
1.812500e+02
1.875000e+02
1.937500e+02
2.000000e+02
0.000000e+00
6.250000e+00
1.250000e+01
1.875000e+01
2.500000e+01
3.125000e+01
3.750000e+01
4.375000e+01
5.000000e+01
5.625000e+01
6.250000e+01
6.875000e+01
7.500000e+01
8.125000e+01
8.750000e+01
9.375000e+01
1.000000e+02
1.062500e+02
1.125000e+02
1.187500e+02
1.250000e+02
1.312500e+02
1.375000e+02
1.437500e+02
1.500000e+02
1.562500e+02
1.625000e+02
1.687500e+02
1.750000e+02
1.812500e+02
1.875000e+02
1.937500e+02
2.000000e+02
0.000000e+00
6.250000e+00
1.250000e+01
1.875000e+01
2.500000e+01
3.125000e+01
3.750000e+01
4.375000e+01
5.000000e+01
5.625000e+01
6.250000e+01
6.875000e+01
7.500000e+01
8.125000e+01
8.750000e+01
9.375000e+01
1.000000e+02
1.062500e+02
1.125000e+02
1.187500e+02
1.250000e+02
1.312500e+02
1.375000e+02
1.437500e+02
1.500000e+02
1.562500e+02
1.625000e+02
1.687500e+02
1.750000e+02
1.812500e+02
1.875000e+02
1.937500e+02
2.000000e+02
0.000000e+00
6.250000e+00
1.250000e+01
1.875000e+01
2.500000e+01
3.125000e+01
3.750000e+01
4.375000e+01
5.000000e+01
5.625000e+01
6.250000e+01
6.875000e+01
7.500000e+01
8.125000e+01
8.750000e+01
9.375000e+01
1.000000e+02
1.062500e+02
1.125000e+02
1.187500e+02
1.250000e+02
1.312500e+02
1.375000e+02
1.437500e+02
1.500000e+02
1.562500e+02
1.625000e+02
1.687500e+02
1.750000e+02
1.812500e+02
1.875000e+02
1.937500e+02
2.000000e+02
0.000000e+00
6.250000e+00
1.250000e+01
1.875000e+01
2.500000e+01
3.125000e+01
3.750000e+01
4.375000e+01
5.000000e+01
5.625000e+01
6.250000e+01
6.875000e+01
7.500000e+01
8.125000e+01
8.750000e+01
9.375000e+01
1.000000e+02
1.062500e+02
1.125000e+02
1.187500e+02
1.250000e+02
1.312500e+02
1.375000e+02
1.437500e+02
1.500000e+02
1.562500e+02
1.625000e+02
1.687500e+02
1.750000e+02
1.812500e+02
1.875000e+02
1.937500e+02
2.000000e+02
0.000000e+00
6.250000e+00
1.250000e+01
1.875000e+01
2.500000e+01
3.125000e+01
3.750000e+01
4.375000e+01
5.000000e+01
5.625000e+01
6.250000e+01
6.875000e+01
7.500000e+01
8.125000e+01
8.750000e+01
9.375000e+01
1.000000e+02
1.062500e+02
1.125000e+02
1.187500e+02
1.250000e+02
1.312500e+02
1.375000e+02
1.437500e+02
1.500000e+02
1.562500e+02
1.625000e+02
1.687500e+02
1.750000e+02
1.812500e+02
1.875000e+02
1.937500e+02
2.000000e+02
0.000000e+00
6.250000e+00
1.250000e+01
1.875000e+01
2.500000e+01
3.125000e+01
3.750000e+01
4.375000e+01
5.000000e+01
5.625000e+01
6.250000e+01
6.875000e+01
7.500000e+01
8.125000e+01
8.750000e+01
9.375000e+01
1.000000e+02
1.062500e+02
1.125000e+02
1.187500e+02
1.250000e+02
1.312500e+02
1.375000e+02
1.437500e+02
1.500000e+02
1.562500e+02
1.625000e+02
1.687500e+02
1.750000e+02
1.812500e+02
1.875000e+02
1.937500e+02
2.000000e+02
0.000000e+00
6.250000e+00
1.250000e+01
1.875000e+01
2.500000e+01
3.125000e+01
3.750000e+01
4.375000e+01
5.000000e+01
5.625000e+01
6.250000e+01
6.875000e+01
7.500000e+01
8.125000e+01
8.750000e+01
9.375000e+01
1.000000e+02
1.062500e+02
1.125000e+02
1.187500e+02
1.250000e+02
1.312500e+02
1.375000e+02
1.437500e+02
1.500000e+02
1.562500e+02
1.625000e+02
1.687500e+02
1.750000e+02
1.812500e+02
1.875000e+02
1.937500e+02
2.000000e+02
0.000000e+00
6.250000e+00
1.250000e+01
1.875000e+01
2.500000e+01
3.125000e+01
3.750000e+01
4.375000e+01
5.000000e+01
5.625000e+01
6.250000e+01
6.875000e+01
7.500000e+01
8.125000e+01
8.750000e+01
9.375000e+01
1.000000e+02
1.062500e+02
1.125000e+02
1.187500e+02
1.250000e+02
1.312500e+02
1.375000e+02
1.437500e+02
1.500000e+02
1.562500e+02
1.625000e+02
1.687500e+02
1.750000e+02
1.812500e+02
1.875000e+02
1.937500e+02
2.000000e+02
0.000000e+00
0.000000e+00
0.000000e+00
0.000000e+00
0.000000e+00
0.000000e+00
0.000000e+00
0.000000e+00
0.000000e+00
0.000000e+00
0.000000e+00
0.000000e+00
0.000000e+00
0.000000e+00
0.000000e+00
0.000000e+00
0.000000e+00
0.000000e+00
0.000000e+00
0.000000e+00
0.000000e+00
0.000000e+00
0.000000e+00
0.000000e+00
0.000000e+00
0.000000e+00
0.000000e+00
0.000000e+00
0.000000e+00
0.000000e+00
0.000000e+00
0.000000e+00
0.000000e+00
6.250000e+00
6.250000e+00
6.250000e+00
6.250000e+00
6.250000e+00
6.250000e+00
6.250000e+00
6.250000e+00
6.250000e+00
6.250000e+00
6.250000e+00
6.250000e+00
6.250000e+00
6.250000e+00
6.250000e+00
6.250000e+00
6.250000e+00
6.250000e+00
6.250000e+00
6.250000e+00
6.250000e+00
6.250000e+00
6.250000e+00
6.250000e+00
6.250000e+00
6.250000e+00
6.250000e+00
6.250000e+00
6.250000e+00
6.250000e+00
6.250000e+00
6.250000e+00
6.250000e+00
1.250000e+01
1.250000e+01
1.250000e+01
1.250000e+01
1.250000e+01
1.250000e+01
1.250000e+01
1.250000e+01
1.250000e+01
1.250000e+01
1.250000e+01
1.250000e+01
1.250000e+01
1.250000e+01
1.250000e+01
1.250000e+01
1.250000e+01
1.250000e+01
1.250000e+01
1.250000e+01
1.250000e+01
1.250000e+01
1.250000e+01
1.250000e+01
1.250000e+01
1.250000e+01
1.250000e+01
1.250000e+01
1.250000e+01
1.250000e+01
1.250000e+01
1.250000e+01
1.250000e+01
1.875000e+01
1.875000e+01
1.875000e+01
1.875000e+01
1.875000e+01
1.875000e+01
1.875000e+01
1.875000e+01
1.875000e+01
1.875000e+01
1.875000e+01
1.875000e+01
1.875000e+01
1.875000e+01
1.875000e+01
1.875000e+01
1.875000e+01
1.875000e+01
1.875000e+01
1.875000e+01
1.875000e+01
1.875000e+01
1.875000e+01
1.875000e+01
1.875000e+01
1.875000e+01
1.875000e+01
1.875000e+01
1.875000e+01
1.875000e+01
1.875000e+01
1.875000e+01
1.875000e+01
2.500000e+01
2.500000e+01
2.500000e+01
2.500000e+01
2.500000e+01
2.500000e+01
2.500000e+01
2.500000e+01
2.500000e+01
2.500000e+01
2.500000e+01
2.500000e+01
2.500000e+01
2.500000e+01
2.500000e+01
2.500000e+01
2.500000e+01
2.500000e+01
2.500000e+01
2.500000e+01
2.500000e+01
2.500000e+01
2.500000e+01
2.500000e+01
2.500000e+01
2.500000e+01
2.500000e+01
2.500000e+01
2.500000e+01
2.500000e+01
2.500000e+01
2.500000e+01
2.500000e+01
3.125000e+01
3.125000e+01
3.125000e+01
3.125000e+01
3.125000e+01
3.125000e+01
3.125000e+01
3.125000e+01
3.125000e+01
3.125000e+01
3.125000e+01
3.125000e+01
3.125000e+01
3.125000e+01
3.125000e+01
3.125000e+01
3.125000e+01
3.125000e+01
3.125000e+01
3.125000e+01
3.125000e+01
3.125000e+01
3.125000e+01
3.125000e+01
3.125000e+01
3.125000e+01
3.125000e+01
3.125000e+01
3.125000e+01
3.125000e+01
3.125000e+01
3.125000e+01
3.125000e+01
3.750000e+01
3.750000e+01
3.750000e+01
3.750000e+01
3.750000e+01
3.750000e+01
3.750000e+01
3.750000e+01
3.750000e+01
3.750000e+01
3.750000e+01
3.750000e+01
3.750000e+01
3.750000e+01
3.750000e+01
3.750000e+01
3.750000e+01
3.750000e+01
3.750000e+01
3.750000e+01
3.750000e+01
3.750000e+01
3.750000e+01
3.750000e+01
3.750000e+01
3.750000e+01
3.750000e+01
3.750000e+01
3.750000e+01
3.750000e+01
3.750000e+01
3.750000e+01
3.750000e+01
4.375000e+01
4.375000e+01
4.375000e+01
4.375000e+01
4.375000e+01
4.375000e+01
4.375000e+01
4.375000e+01
4.375000e+01
4.375000e+01
4.375000e+01
4.375000e+01
4.375000e+01
4.375000e+01
4.375000e+01
4.375000e+01
4.375000e+01
4.375000e+01
4.375000e+01
4.375000e+01
4.375000e+01
4.375000e+01
4.375000e+01
4.375000e+01
4.375000e+01
4.375000e+01
4.375000e+01
4.375000e+01
4.375000e+01
4.375000e+01
4.375000e+01
4.375000e+01
4.375000e+01
5.000000e+01
5.000000e+01
5.000000e+01
5.000000e+01
5.000000e+01
5.000000e+01
5.000000e+01
5.000000e+01
5.000000e+01
5.000000e+01
5.000000e+01
5.000000e+01
5.000000e+01
5.000000e+01
5.000000e+01
5.000000e+01
5.000000e+01
5.000000e+01
5.000000e+01
5.000000e+01
5.000000e+01
5.000000e+01
5.000000e+01
5.000000e+01
5.000000e+01
5.000000e+01
5.000000e+01
5.000000e+01
5.000000e+01
5.000000e+01
5.000000e+01
5.000000e+01
5.000000e+01
5.625000e+01
5.625000e+01
5.625000e+01
5.625000e+01
5.625000e+01
5.625000e+01
5.625000e+01
5.625000e+01
5.625000e+01
5.625000e+01
5.625000e+01
5.625000e+01
5.625000e+01
5.625000e+01
5.625000e+01
5.625000e+01
5.625000e+01
5.625000e+01
5.625000e+01
5.625000e+01
5.625000e+01
5.625000e+01
5.625000e+01
5.625000e+01
5.625000e+01
5.625000e+01
5.625000e+01
5.625000e+01
5.625000e+01
5.625000e+01
5.625000e+01
5.625000e+01
5.625000e+01
6.250000e+01
6.250000e+01
6.250000e+01
6.250000e+01
6.250000e+01
6.250000e+01
6.250000e+01
6.250000e+01
6.250000e+01
6.250000e+01
6.250000e+01
6.250000e+01
6.250000e+01
6.250000e+01
6.250000e+01
6.250000e+01
6.250000e+01
6.250000e+01
6.250000e+01
6.250000e+01
6.250000e+01
6.250000e+01
6.250000e+01
6.250000e+01
6.250000e+01
6.250000e+01
6.250000e+01
6.250000e+01
6.250000e+01
6.250000e+01
6.250000e+01
6.250000e+01
6.250000e+01
6.875000e+01
6.875000e+01
6.875000e+01
6.875000e+01
6.875000e+01
6.875000e+01
6.875000e+01
6.875000e+01
6.875000e+01
6.875000e+01
6.875000e+01
6.875000e+01
6.875000e+01
6.875000e+01
6.875000e+01
6.875000e+01
6.875000e+01
6.875000e+01
6.875000e+01
6.875000e+01
6.875000e+01
6.875000e+01
6.875000e+01
6.875000e+01
6.875000e+01
6.875000e+01
6.875000e+01
6.875000e+01
6.875000e+01
6.875000e+01
6.875000e+01
6.875000e+01
6.875000e+01
7.500000e+01
7.500000e+01
7.500000e+01
7.500000e+01
7.500000e+01
7.500000e+01
7.500000e+01
7.500000e+01
7.500000e+01
7.500000e+01
7.500000e+01
7.500000e+01
7.500000e+01
7.500000e+01
7.500000e+01
7.500000e+01
7.500000e+01
7.500000e+01
7.500000e+01
7.500000e+01
7.500000e+01
7.500000e+01
7.500000e+01
7.500000e+01
7.500000e+01
7.500000e+01
7.500000e+01
7.500000e+01
7.500000e+01
7.500000e+01
7.500000e+01
7.500000e+01
7.500000e+01
8.125000e+01
8.125000e+01
8.125000e+01
8.125000e+01
8.125000e+01
8.125000e+01
8.125000e+01
8.125000e+01
8.125000e+01
8.125000e+01
8.125000e+01
8.125000e+01
8.125000e+01
8.125000e+01
8.125000e+01
8.125000e+01
8.125000e+01
8.125000e+01
8.125000e+01
8.125000e+01
8.125000e+01
8.125000e+01
8.125000e+01
8.125000e+01
8.125000e+01
8.125000e+01
8.125000e+01
8.125000e+01
8.125000e+01
8.125000e+01
8.125000e+01
8.125000e+01
8.125000e+01
8.750000e+01
8.750000e+01
8.750000e+01
8.750000e+01
8.750000e+01
8.750000e+01
8.750000e+01
8.750000e+01
8.750000e+01
8.750000e+01
8.750000e+01
8.750000e+01
8.750000e+01
8.750000e+01
8.750000e+01
8.750000e+01
8.750000e+01
8.750000e+01
8.750000e+01
8.750000e+01
8.750000e+01
8.750000e+01
8.750000e+01
8.750000e+01
8.750000e+01
8.750000e+01
8.750000e+01
8.750000e+01
8.750000e+01
8.750000e+01
8.750000e+01
8.750000e+01
8.750000e+01
9.375000e+01
9.375000e+01
9.375000e+01
9.375000e+01
9.375000e+01
9.375000e+01
9.375000e+01
9.375000e+01
9.375000e+01
9.375000e+01
9.375000e+01
9.375000e+01
9.375000e+01
9.375000e+01
9.375000e+01
9.375000e+01
9.375000e+01
9.375000e+01
9.375000e+01
9.375000e+01
9.375000e+01
9.375000e+01
9.375000e+01
9.375000e+01
9.375000e+01
9.375000e+01
9.375000e+01
9.375000e+01
9.375000e+01
9.375000e+01
9.375000e+01
9.375000e+01
9.375000e+01
1.000000e+02
1.000000e+02
1.000000e+02
1.000000e+02
1.000000e+02
1.000000e+02
1.000000e+02
1.000000e+02
1.000000e+02
1.000000e+02
1.000000e+02
1.000000e+02
1.000000e+02
1.000000e+02
1.000000e+02
1.000000e+02
1.000000e+02
1.000000e+02
1.000000e+02
1.000000e+02
1.000000e+02
1.000000e+02
1.000000e+02
1.000000e+02
1.000000e+02
1.000000e+02
1.000000e+02
1.000000e+02
1.000000e+02
1.000000e+02
1.000000e+02
1.000000e+02
1.000000e+02
0.000000e+00
-4.029073e-02
-7.310217e-02
-1.034973e-01
-1.326681e-01
-1.608370e-01
-1.880604e-01
-2.143360e-01
-2.396472e-01
-2.639756e-01
-2.873060e-01
-3.096279e-01
-3.309358e-01
-3.512292e-01
-3.705129e-01
-3.887972e-01
-4.060982e-01
-4.224399e-01
-4.378551e-01
-4.523882e-01
-4.660982e-01
-4.790632e-01
-4.913867e-01
-5.032055e-01
-5.147033e-01
-5.261296e-01
-5.378308e-01
-5.503011e-01
-5.642654e-01
-5.807904e-01
-6.012600e-01
-6.256541e-01
-6.405415e-01
0.000000e+00
-2.701385e-02
-5.620522e-02
-8.372882e-02
-1.098889e-01
-1.349347e-01
-1.589983e-01
-1.821378e-01
-2.043763e-01
-2.257212e-01
-2.461738e-01
-2.657344e-01
-2.844037e-01
-3.021848e-01
-3.190836e-01
-3.351095e-01
-3.502761e-01
-3.646022e-01
-3.781126e-01
-3.908395e-01
-4.028241e-01
-4.141182e-01
-4.247861e-01
-4.349066e-01
-4.445737e-01
-4.538956e-01
-4.629865e-01
-4.719406e-01
-4.807571e-01
-4.891492e-01
-4.961422e-01
-5.002306e-01
-5.059223e-01
0.000000e+00
-2.142745e-02
-4.411356e-02
-6.721163e-02
-8.965580e-02
-1.112729e-01
-1.320490e-01
-1.520039e-01
-1.711552e-01
-1.895150e-01
-2.070910e-01
-2.238888e-01
-2.399130e-01
-2.551684e-01
-2.696605e-01
-2.833965e-01
-2.963852e-01
-3.086379e-01
-3.201683e-01
-3.309928e-01
-3.411304e-01
-3.506017e-01
-3.594267e-01
-3.676211e-01
-3.751882e-01
-3.821037e-01
-3.882885e-01
-3.935606e-01
-3.975633e-01
-3.997187e-01
-3.995297e-01
-3.983194e-01
-4.049658e-01
0.000000e+00
-1.700078e-02
-3.494048e-02
-5.337129e-02
-7.175890e-02
-8.970111e-02
-1.070443e-01
-1.237333e-01
-1.397533e-01
-1.551035e-01
-1.697879e-01
-1.838115e-01
-1.971790e-01
-2.098945e-01
-2.219619e-01
-2.333845e-01
-2.441655e-01
-2.543076e-01
-2.638129e-01
-2.726820e-01
-2.809126e-01
-2.884971e-01
-2.954188e-01
-3.016453e-01
-3.071193e-01
-3.117441e-01
-3.153666e-01
-3.177655e-01
-3.186815e-01
-3.180015e-01
-3.163501e-01
-3.162515e-01
-3.225839e-01
0.000000e+00
-1.319498e-02
-2.701882e-02
-4.128426e-02
-5.566559e-02
-6.987052e-02
-8.370308e-02
-9.706402e-02
-1.099082e-01
-1.222184e-01
-1.339898e-01
-1.452233e-01
-1.559209e-01
-1.660844e-01
-1.757145e-01
-1.848103e-01
-1.933690e-01
-2.013854e-01
-2.088512e-01
-2.157539e-01
-2.220750e-01
-2.277875e-01
-2.328523e-01
-2.372137e-01
-2.407947e-01
-2.434939e-01
-2.451924e-01
-2.457883e-01
-2.452994e-01
-2.441034e-01
-2.433274e-01
-2.451193e-01
-2.505211e-01
0.000000e+00
-9.697543e-03
-1.981057e-02
-3.024849e-02
-4.083095e-02
-5.136043e-02
-6.168008e-02
-7.168797e-02
-8.132816e-02
-9.057343e-02
-9.941232e-02
-1.078408e-01
-1.158573e-01
-1.234606e-01
-1.306477e-01
-1.374134e-01
-1.437499e-01
-1.496454e-01
-1.550841e-01
-1.600446e-01
-1.644991e-01
-1.684114e-01
-1.717357e-01
-1.744164e-01
-1.763898e-01
-1.775939e-01
-1.779934e-01
-1.776349e-01
-1.767513e-01
-1.759106e-01
-1.761153e-01
-1.783996e-01
-1.828693e-01
0.000000e+00
-6.382149e-03
-1.301674e-02
-1.986180e-02
-2.681972e-02
-3.377337e-02
-4.061790e-02
-4.727686e-02
-5.370241e-02
-5.986816e-02
-6.576078e-02
-7.137354e-02
-7.670217e-02
-8.174222e-02
-8.648760e-02
-9.092964e-02
-9.505637e-02
-9.885190e-02
-1.022959e-01
-1.053630e-01
-1.080223e-01
-1.102378e-01
-1.119693e-01
-1.131759e-01
-1.138242e-01
-1.139047e-01
-1.134614e-01
-1.126411e-01
-1.117560e-01
-1.113270e-01
-1.119964e-01
-1.142204e-01
-1.178284e-01
0.000000e+00
-3.170011e-03
-6.459868e-03
-9.852660e-03
-1.330554e-02
-1.676396e-02
-2.017611e-02
-2.350148e-02
-2.671266e-02
-2.979293e-02
-3.273238e-02
-3.552445e-02
-3.816343e-02
-4.064277e-02
-4.295402e-02
-4.508609e-02
-4.702467e-02
-4.875186e-02
-5.024596e-02
-5.148151e-02
-5.242996e-02
-5.306128e-02
-5.334726e-02
-5.326772e-02
-5.282108e-02
-5.204144e-02
-5.102313e-02
-4.995018e-02
-4.911725e-02
-4.890860e-02
-4.969398e-02
-5.163416e-02
-5.449699e-02
0.000000e+00
-5.114496e-06
-1.108969e-05
-1.759456e-05
-2.428695e-05
-3.070552e-05
-3.615499e-05
-3.957882e-05
-3.941033e-05
-3.339354e-05
-1.836695e-05
9.993772e-06
5.747349e-05
1.316493e-04
2.422406e-04
4.014462e-04
6.242179e-04
9.283842e-04
1.334492e-03
1.865159e-03
2.543643e-03
3.391168e-03
4.422438e-03
5.638570e-03
7.016783e-03
8.496704e-03
9.965028e-03
1.124428e-02
1.209824e-02
1.227141e-02
1.157412e-02
9.994973e-03
7.783296e-03
0.000000e+00
3.160378e-03
6.438938e-03
9.819386e-03
1.325950e-02
1.670558e-02
2.010713e-02
2.342556e-02
2.663642e-02
2.972720e-02
3.269391e-02
3.553811e-02
3.826497e-02
4.088220e-02
4.339970e-02
4.582944e-02
4.818543e-02
5.048368e-02
5.274172e-02
5.497759e-02
5.720799e-02
5.944520e-02
6.169243e-02
6.393718e-02
6.614297e-02
6.824020e-02
7.011907e-02
7.163026e-02
7.260124e-02
7.287613e-02
7.237827e-02
7.117867e-02
6.953718e-02
0.000000e+00
6.374279e-03
1.299952e-02
1.983423e-02
2.678128e-02
3.372418e-02
4.055909e-02
4.721110e-02
5.363472e-02
5.980693e-02
6.571918e-02
7.137134e-02
7.676798e-02
8.191637e-02
8.682555e-02
9.150598e-02
9.596936e-02
1.002284e-01
1.042964e-01
1.081859e-01
1.119070e-01
1.154644e-01
1.188533e-01
1.220541e-01
1.250265e-01
1.277048e-01
1.299956e-01
1.317849e-01
1.329560e-01
1.334242e-01
1.331835e-01
1.323534e-01
1.312077e-01
0.000000e+00
9.692523e-03
1.979938e-02
3.023028e-02
4.080510e-02
5.132667e-02
6.163878e-02
7.164043e-02
8.127713e-02
9.052380e-02
9.937200e-02
1.078219e-01
1.158779e-01
1.235461e-01
1.308339e-01
1.377490e-01
1.442995e-01
1.504937e-01
1.563396e-01
1.618439e-01
1.670104e-01
1.718381e-01
1.763174e-01
1.804274e-01
1.841316e-01
1.873762e-01
1.900914e-01
1.921987e-01
1.936277e-01
1.943438e-01
1.943841e-01
1.938971e-01
1.931731e-01
0.000000e+00
1.319373e-02
2.701570e-02
4.127867e-02
5.565696e-02
6.985836e-02
8.368707e-02
9.704413e-02
1.098849e-01
1.221925e-01
1.339636e-01
1.452000e-01
1.559059e-01
1.660857e-01
1.757437e-01
1.848838e-01
1.935095e-01
2.016236e-01
2.092281e-01
2.163233e-01
2.229071e-01
2.289735e-01
2.345107e-01
2.394996e-01
2.439122e-01
2.477115e-01
2.508540e-01
2.532963e-01
2.550079e-01
2.559913e-01
2.563102e-01
2.561274e-01
2.557460e-01
0.000000e+00
1.700394e-02
3.494690e-02
5.338084e-02
7.177131e-02
8.971603e-02
1.070612e-01
1.237514e-01
1.397711e-01
1.551189e-01
1.697976e-01
1.838106e-01
1.971604e-01
2.098486e-01
2.218754e-01
2.332399e-01
2.439398e-01
2.539717e-01
2.633307e-01
2.720100e-01
2.800010e-01
2.872925e-01
2.938706e-01
2.997188e-01
3.048183e-01
3.091502e-01
3.126981e-01
3.154540e-01
3.174265e-01
3.186522e-01
3.192161e-01
3.192833e-01
3.191567e-01
0.000000e+00
2.143516e-02
4.413002e-02
6.723741e-02
8.969138e-02
1.113187e-01
1.321051e-01
1.520697e-01
1.712288e-01
1.895925e-01
2.071660e-01
2.239504e-01
2.399447e-01
2.551459e-01
2.695491e-01
2.831480e-01
2.959341e-01
3.078969e-01
3.190238e-01
3.293001e-01
3.387087e-01
3.472315e-01
3.548499e-01
3.615469e-01
3.673097e-01
3.721339e-01
3.760283e-01
3.790203e-01
3.811616e-01
3.825331e-01
3.832510e-01
3.834848e-01
3.835127e-01
0.000000e+00
2.702542e-02
5.623051e-02
8.376950e-02
1.099470e-01
1.350121e-01
1.590968e-01
1.822583e-01
2.045183e-01
2.258819e-01
2.463466e-01
2.659068e-01
2.845553e-01
3.022834e-01
3.190810e-01
3.349362e-01
3.498346e-01
3.637586e-01
3.766873e-01
3.885963e-01
3.994581e-01
4.092436e-01
4.179237e-01
4.254737e-01
4.318778e-01
4.371364e-01
4.412743e-01
4.443499e-01
4.464626e-01
4.477572e-01
4.484185e-01
4.486584e-01
4.487171e-01
0.000000e+00
4.030340e-02
7.313173e-02
1.035480e-01
1.327439e-01
1.609421e-01
1.881991e-01
2.145123e-01
2.398644e-01
2.642350e-01
2.876054e-01
3.099593e-01
3.312824e-01
3.515610e-01
3.707809e-01
3.889263e-01
4.059776e-01
4.219113e-01
4.366981e-01
4.503031e-01
4.626852e-01
4.737989e-01
4.835966e-01
4.920332e-01
4.990740e-01
5.047047e-01
5.089453e-01
5.118668e-01
5.136080e-01
5.143926e-01
5.145352e-01
5.144171e-01
5.143506e-01
0.000000e+00
-2.489890e-02
-4.345395e-02
-6.370198e-02
-8.624937e-02
-1.117189e-01
-1.402875e-01
-1.720050e-01
-2.068397e-01
-2.447168e-01
-2.855362e-01
-3.291821e-01
-3.755302e-01
-4.244506e-01
-4.758112e-01
-5.294787e-01
-5.853205e-01
-6.432067e-01
-7.030115e-01
-7.646165e-01
-8.279144e-01
-8.928151e-01
-9.592540e-01
-1.027206e+00
-1.096704e+00
-1.167877e+00
-1.241009e+00
-1.316651e+00
-1.395859e+00
-1.480724e+00
-1.575758e+00
-1.691603e+00
-1.851647e+00
0.000000e+00
-1.547372e-02
-3.489597e-02
-5.528059e-02
-7.814224e-02
-1.038885e-01
-1.327347e-01
-1.647298e-01
-1.998448e-01
-2.380051e-01
-2.791097e-01
-3.230422e-01
-3.696770e-01
-4.188833e-01
-4.705276e-01
-5.244753e-01
-5.805923e-01
-6.387466e-01
-6.988101e-01
-7.606613e-01
-8.241892e-01
-8.892992e-01
-9.559206e-01
-1.024021e+00
-1.093624e+00
-1.164847e+00
-1.237959e+00
-1.313494e+00
-1.392486e+00
-1.476991e+00
-1.571291e+00
-1.684557e+00
-1.834080e+00
0.000000e+00
-1.136634e-02
-2.813296e-02
-4.823951e-02
-7.114110e-02
-9.707705e-02
-1.261510e-01
-1.583899e-01
-1.937550e-01
-2.321681e-01
-2.735265e-01
-3.177129e-01
-3.646011e-01
-4.140599e-01
-4.659552e-01
-5.201520e-01
-5.765155e-01
-6.349129e-01
-6.952152e-01
-7.573001e-01
-8.210555e-01
-8.863860e-01
-9.532209e-01
-1.021528e+00
-1.091336e+00
-1.162767e+00
-1.236101e+00
-1.311887e+00
-1.391147e+00
-1.475732e+00
-1.568805e+00
-1.674103e+00
-1.790910e+00
0.000000e+00
-9.101680e-03
-2.382294e-02
-4.285730e-02
-6.546458e-02
-9.139248e-02
-1.205908e-01
-1.530103e-01
-1.885812e-01
-2.272110e-01
-2.687903e-01
-3.131991e-01
-3.603100e-01
-4.099916e-01
-4.621099e-01
-5.165302e-01
-5.731182e-01
-6.317417e-01
-6.922723e-01
-7.545887e-01
-8.185803e-01
-8.841539e-01
-9.512426e-01
-1.019819e+00
-1.089918e+00
-1.161669e+00
-1.235349e+00
-1.311464e+00
-1.390849e+00
-1.474724e+00
-1.564257e+00
-1.658686e+00
-1.746590e+00
0.000000e+00
-7.701519e-03
-2.100434e-02
-3.903530e-02
-6.112723e-02
-8.688513e-02
-1.160944e-01
-1.486193e-01
-1.843422e-01
-2.231464e-01
-2.649106e-01
-3.095089e-01
-3.568118e-01
-4.066873e-01
-4.590023e-01
-5.136228e-01
-5.704158e-01
-6.292506e-01
-6.900007e-01
-7.525466e-01
-8.167804e-01
-8.826117e-01
-9.499763e-01
-1.018849e+00
-1.089261e+00
-1.161328e+00
-1.235273e+00
-1.311462e+00
-1.390375e+00
-1.472399e+00
-1.557144e+00
-1.641497e+00
-1.718052e+00
0.000000e+00
-6.810583e-03
-1.915499e-02
-3.640517e-02
-5.799980e-02
-8.351642e-02
-1.126622e-01
-1.452287e-01
-1.810517e-01
-2.199866e-01
-2.618972e-01
-3.066501e-01
-3.541128e-01
-4.041526e-01
-4.566368e-01
-5.114331e-01
-5.684102e-01
-6.274392e-01
-6.883955e-01
-7.511618e-01
-8.156317e-01
-8.817151e-01
-9.493459e-01
-1.018492e+00
-1.089164e+00
-1.161432e+00
-1.235422e+00
-1.311295e+00
-1.389137e+00
-1.468687e+00
-1.548733e+00
-1.626414e+00
-1.697414e+00
0.000000e+00
-6.256876e-03
-1.798574e-02
-3.469553e-02
-5.590465e-02
-8.120139e-02
-1.102606e-01
-1.428312e-01
-1.787133e-01
-2.177387e-01
-2.597572e-01
-3.046283e-01
-3.522163e-01
-4.023881e-01
-4.550116e-01
-5.099561e-01
-5.670920e-01
-6.262922e-01
-6.874336e-01
-7.503996e-01
-8.150828e-01
-8.813897e-01
-9.492452e-01
-1.018598e+00
-1.089425e+00
-1.161726e+00
-1.235509e+00
-1.310731e+00
-1.387174e+00
-1.464218e+00
-1.540528e+00
-1.613906e+00
-1.681654e+00
0.000000e+00
-5.952606e-03
-1.733695e-02
-3.373211e-02
-5.470327e-02
-7.985290e-02
-1.088455e-01
-1.414088e-01
-1.773229e-01
-2.164043e-01
-2.584935e-01
-3.034452e-01
-3.511218e-01
-4.013901e-01
-4.541191e-01
-5.091794e-01
-5.664431e-01
-6.257842e-01
-6.870799e-01
-7.502125e-01
-8.150707e-01
-8.815528e-01
-9.495682e-01
-1.019039e+00
-1.089894e+00
-1.162062e+00
-1.235436e+00
-1.309816e+00
-1.384805e+00
-1.459666e+00
-1.533196e+00
-1.603740e+00
-1.669459e+00
0.000000e+00
-5.854572e-03
-1.712763e-02
-3.341985e-02
-5.431172e-02
-7.941156e-02
-1.083819e-01
-1.409448e-01
-1.768739e-01
-2.159815e-01
-2.581052e-01
-3.030988e-01
-3.508247e-01
-4.011508e-01
-4.539473e-01
-5.090861e-01
-5.664402e-01
-6.258843e-01
-6.872946e-01
-7.505500e-01
-8.155328e-01
-8.821293e-01
-9.502290e-01
-1.019722e+00
-1.090491e+00
-1.162394e+00
-1.235238e+00
-1.308721e+00
-1.382368e+00
-1.455455e+00
-1.526964e+00
-1.595633e+00
-1.660113e+00
0.000000e+00
-5.949771e-03
-1.733301e-02
-3.372872e-02
-5.470224e-02
-7.985650e-02
-1.088566e-01
-1.414316e-01
-1.773624e-01
-2.164674e-01
-2.585890e-01
-3.035841e-01
-3.513178e-01
-4.016597e-01
-4.544816e-01
-5.096566e-01
-5.670583e-01
-6.265607e-01
-6.880382e-01
-7.513649e-01
-8.164147e-01
-8.830598e-01
-9.511680e-01
-1.020598e+00
-1.091188e+00
-1.162743e+00
-1.235007e+00
-1.307628e+00
-1.380115e+00
-1.451811e+00
-1.521874e+00
-1.589330e+00
-1.653148e+00
0.000000e+00
-6.251434e-03
-1.797819e-02
-3.468899e-02
-5.590260e-02
-8.120814e-02
-1.102819e-01
-1.428745e-01
-1.787887e-01
-2.178593e-01
-2.599399e-01
-3.048944e-01
-3.525920e-01
-4.029051e-01
-4.557071e-01
-5.108720e-01
-5.682734e-01
-6.277843e-01
-6.892762e-01
-7.526179e-01
-8.176740e-01
-8.843024e-01
-9.523501e-01
-1.021647e+00
-1.091997e+00
-1.163163e+00
-1.234851e+00
-1.306691e+00
-1.378211e+00
-1.448834e+00
-1.517882e+00
-1.584602e+00
-1.648204e+00
0.000000e+00
-6.803019e-03
-1.914449e-02
-3.639604e-02
-5.799685e-02
-8.352567e-02
-1.126916e-01
-1.452888e-01
-1.811566e-01
-2.201548e-01
-2.621522e-01
-3.070217e-01
-3.546379e-01
-4.048756e-01
-4.576100e-01
-5.127154e-01
-5.700653e-01
-6.295312e-01
-6.909815e-01
-7.542796e-01
-8.192813e-01
-8.858316e-01
-9.537593e-01
-1.022871e+00
-1.092943e+00
-1.163711e+00
-1.234861e+00
-1.306019e+00
-1.376749e+00
-1.446555e+00
-1.514902e+00
-1.581230e+00
-1.644962e+00
0.000000e+00
-7.692609e-03
-2.099199e-02
-3.902455e-02
-6.112381e-02
-8.689633e-02
-1.161299e-01
-1.486919e-01
-1.844689e-01
-2.233495e-01
-2.652187e-01
-3.099581e-01
-3.574468e-01
-4.075620e-01
-4.601798e-01
-5.151749e-01
-5.724200e-01
-6.317852e-01
-6.931360e-01
-7.563311e-01
-8.212190e-01
-8.876340e-01
-9.553909e-01
-1.024279e+00
-1.094055e+00
-1.164438e+00
-1.235102e+00
-1.305681e+00
-1.375771e+00
-1.444955e+00
-1.512822e+00
-1.578991e+00
-1.643107e+00
0.000000e+00
-9.092523e-03
-2.381026e-02
-4.284637e-02
-6.546165e-02
-9.140562e-02
-1.206307e-01
-1.530913e-01
-1.887222e-01
-2.274364e-01
-2.691319e-01
-3.136967e-01
-3.610128e-01
-4.109589e-01
-4.634113e-01
-5.182447e-01
-5.753312e-01
-6.345392e-01
-6.957321e-01
-7.587648e-01
-8.234805e-01
-8.897061e-01
-9.572469e-01
-1.025881e+00
-1.095352e+00
-1.165370e+00
-1.235605e+00
-1.305699e+00
-1.375278e+00
-1.443985e+00
-1.511514e+00
-1.577654e+00
-1.642299e+00
0.000000e+00
-1.135836e-02
-2.812185e-02
-4.823028e-02
-7.114023e-02
-9.709305e-02
-1.261951e-01
-1.584770e-01
-1.939048e-01
-2.324060e-01
-2.738851e-01
-3.182334e-01
-3.653340e-01
-4.150661e-01
-4.673058e-01
-5.219273e-01
-5.788018e-01
-6.377968e-01
-6.987738e-01
-7.615852e-01
-8.260709e-01
-8.920535e-01
-9.593329e-01
-1.027681e+00
-1.096838e+00
-1.166507e+00
-1.236362e+00
-1.306051e+00
-1.375223e+00
-1.443560e+00
-1.510836e+00
-1.576982e+00
-1.642158e+00
0.000000e+00
-1.546859e-02
-3.488841e-02
-5.527516e-02
-7.814560e-02
-1.039093e-01
-1.327844e-01
-1.648233e-01
-2.000017e-01
-2.382506e-01
-2.794760e-01
-3.235696e-01
-3.704148e-01
-4.198904e-01
-4.718724e-01
-5.262339e-01
-5.828457e-01
-6.415739e-01
-7.022787e-01
-7.648109e-01
-8.290086e-01
-8.946925e-01
-9.616605e-01
-1.029684e+00
-1.098501e+00
-1.167820e+00
-1.237318e+00
-1.306654e+00
-1.375492e+00
-1.443541e+00
-1.510615e+00
-1.576739e+00
-1.642278e+00
0.000000e+00
-2.489817e-02
-4.345143e-02
-6.370246e-02
-8.625954e-02
-1.117475e-01
-1.403460e-01
-1.721081e-01
-2.070065e-01
-2.449720e-01
-2.859106e-01
-3.297142e-01
-3.762665e-01
-4.254459e-01
-4.771280e-01
-5.311855e-01
-5.874877e-01
-6.458997e-01
-7.062802e-01
-7.684783e-01
-8.323308e-01
-8.976571e-01
-9.642552e-01