TITLE = "Solution"
VARIABLES = x, y, u, v, psiu, psiv, t, stress
ZONE T="structure" N=561 E=512 F=FEBLOCK ET=QUADRILATERAL VARLOCATION=([7,8]=cellcentered)
0.000000e+00
6.250000e+00
1.250000e+01
1.875000e+01
2.500000e+01
3.125000e+01
3.750000e+01
4.375000e+01
5.000000e+01
5.625000e+01
6.250000e+01
6.875000e+01
7.500000e+01
8.125000e+01
8.750000e+01
9.375000e+01
1.000000e+02
1.062500e+02
1.125000e+02
1.187500e+02
1.250000e+02
1.312500e+02
1.375000e+02
1.437500e+02
1.500000e+02
1.562500e+02
1.625000e+02
1.687500e+02
1.750000e+02
1.812500e+02
1.875000e+02
1.937500e+02
2.000000e+02
0.000000e+00
6.250000e+00
1.250000e+01
1.875000e+01
2.500000e+01
3.125000e+01
3.750000e+01
4.375000e+01
5.000000e+01
5.625000e+01
6.250000e+01
6.875000e+01
7.500000e+01
8.125000e+01
8.750000e+01
9.375000e+01
1.000000e+02
1.062500e+02
1.125000e+02
1.187500e+02
1.250000e+02
1.312500e+02
1.375000e+02
1.437500e+02
1.500000e+02
1.562500e+02
1.625000e+02
1.687500e+02
1.750000e+02
1.812500e+02
1.875000e+02
1.937500e+02
2.000000e+02
0.000000e+00
6.250000e+00
1.250000e+01
1.875000e+01
2.500000e+01
3.125000e+01
3.750000e+01
4.375000e+01
5.000000e+01
5.625000e+01
6.250000e+01
6.875000e+01
7.500000e+01
8.125000e+01
8.750000e+01
9.375000e+01
1.000000e+02
1.062500e+02
1.125000e+02
1.187500e+02
1.250000e+02
1.312500e+02
1.375000e+02
1.437500e+02
1.500000e+02
1.562500e+02
1.625000e+02
1.687500e+02
1.750000e+02
1.812500e+02
1.875000e+02
1.937500e+02
2.000000e+02
0.000000e+00
6.250000e+00
1.250000e+01
1.875000e+01
2.500000e+01
3.125000e+01
3.750000e+01
4.375000e+01
5.000000e+01
5.625000e+01
6.250000e+01
6.875000e+01
7.500000e+01
8.125000e+01
8.750000e+01
9.375000e+01
1.000000e+02
1.062500e+02
1.125000e+02
1.187500e+02
1.250000e+02
1.312500e+02
1.375000e+02
1.437500e+02
1.500000e+02
1.562500e+02
1.625000e+02
1.687500e+02
1.750000e+02
1.812500e+02
1.875000e+02
1.937500e+02
2.000000e+02
0.000000e+00
6.250000e+00
1.250000e+01
1.875000e+01
2.500000e+01
3.125000e+01
3.750000e+01
4.375000e+01
5.000000e+01
5.625000e+01
6.250000e+01
6.875000e+01
7.500000e+01
8.125000e+01
8.750000e+01
9.375000e+01
1.000000e+02
1.062500e+02
1.125000e+02
1.187500e+02
1.250000e+02
1.312500e+02
1.375000e+02
1.437500e+02
1.500000e+02
1.562500e+02
1.625000e+02
1.687500e+02
1.750000e+02
1.812500e+02
1.875000e+02
1.937500e+02
2.000000e+02
0.000000e+00
6.250000e+00
1.250000e+01
1.875000e+01
2.500000e+01
3.125000e+01
3.750000e+01
4.375000e+01
5.000000e+01
5.625000e+01
6.250000e+01
6.875000e+01
7.500000e+01
8.125000e+01
8.750000e+01
9.375000e+01
1.000000e+02
1.062500e+02
1.125000e+02
1.187500e+02
1.250000e+02
1.312500e+02
1.375000e+02
1.437500e+02
1.500000e+02
1.562500e+02
1.625000e+02
1.687500e+02
1.750000e+02
1.812500e+02
1.875000e+02
1.937500e+02
2.000000e+02
0.000000e+00
6.250000e+00
1.250000e+01
1.875000e+01
2.500000e+01
3.125000e+01
3.750000e+01
4.375000e+01
5.000000e+01
5.625000e+01
6.250000e+01
6.875000e+01
7.500000e+01
8.125000e+01
8.750000e+01
9.375000e+01
1.000000e+02
1.062500e+02
1.125000e+02
1.187500e+02
1.250000e+02
1.312500e+02
1.375000e+02
1.437500e+02
1.500000e+02
1.562500e+02
1.625000e+02
1.687500e+02
1.750000e+02
1.812500e+02
1.875000e+02
1.937500e+02
2.000000e+02
0.000000e+00
6.250000e+00
1.250000e+01
1.875000e+01
2.500000e+01
3.125000e+01
3.750000e+01
4.375000e+01
5.000000e+01
5.625000e+01
6.250000e+01
6.875000e+01
7.500000e+01
8.125000e+01
8.750000e+01
9.375000e+01
1.000000e+02
1.062500e+02
1.125000e+02
1.187500e+02
1.250000e+02
1.312500e+02
1.375000e+02
1.437500e+02
1.500000e+02
1.562500e+02
1.625000e+02
1.687500e+02
1.750000e+02
1.812500e+02
1.875000e+02
1.937500e+02
2.000000e+02
0.000000e+00
6.250000e+00
1.250000e+01
1.875000e+01
2.500000e+01
3.125000e+01
3.750000e+01
4.375000e+01
5.000000e+01
5.625000e+01
6.250000e+01
6.875000e+01
7.500000e+01
8.125000e+01
8.750000e+01
9.375000e+01
1.000000e+02
1.062500e+02
1.125000e+02
1.187500e+02
1.250000e+02
1.312500e+02
1.375000e+02
1.437500e+02
1.500000e+02
1.562500e+02
1.625000e+02
1.687500e+02
1.750000e+02
1.812500e+02
1.875000e+02
1.937500e+02
2.000000e+02
0.000000e+00
6.250000e+00
1.250000e+01
1.875000e+01
2.500000e+01
3.125000e+01
3.750000e+01
4.375000e+01
5.000000e+01
5.625000e+01
6.250000e+01
6.875000e+01
7.500000e+01
8.125000e+01
8.750000e+01
9.375000e+01
1.000000e+02
1.062500e+02
1.125000e+02
1.187500e+02
1.250000e+02
1.312500e+02
1.375000e+02
1.437500e+02
1.500000e+02
1.562500e+02
1.625000e+02
1.687500e+02
1.750000e+02
1.812500e+02
1.875000e+02
1.937500e+02
2.000000e+02
0.000000e+00
6.250000e+00
1.250000e+01
1.875000e+01
2.500000e+01
3.125000e+01
3.750000e+01
4.375000e+01
5.000000e+01
5.625000e+01
6.250000e+01
6.875000e+01
7.500000e+01
8.125000e+01
8.750000e+01
9.375000e+01
1.000000e+02
1.062500e+02
1.125000e+02
1.187500e+02
1.250000e+02
1.312500e+02
1.375000e+02
1.437500e+02
1.500000e+02
1.562500e+02
1.625000e+02
1.687500e+02
1.750000e+02
1.812500e+02
1.875000e+02
1.937500e+02
2.000000e+02
0.000000e+00
6.250000e+00
1.250000e+01
1.875000e+01
2.500000e+01
3.125000e+01
3.750000e+01
4.375000e+01
5.000000e+01
5.625000e+01
6.250000e+01
6.875000e+01
7.500000e+01
8.125000e+01
8.750000e+01
9.375000e+01
1.000000e+02
1.062500e+02
1.125000e+02
1.187500e+02
1.250000e+02
1.312500e+02
1.375000e+02
1.437500e+02
1.500000e+02
1.562500e+02
1.625000e+02
1.687500e+02
1.750000e+02
1.812500e+02
1.875000e+02
1.937500e+02
2.000000e+02
0.000000e+00
6.250000e+00
1.250000e+01
1.875000e+01
2.500000e+01
3.125000e+01
3.750000e+01
4.375000e+01
5.000000e+01
5.625000e+01
6.250000e+01
6.875000e+01
7.500000e+01
8.125000e+01
8.750000e+01
9.375000e+01
1.000000e+02
1.062500e+02
1.125000e+02
1.187500e+02
1.250000e+02
1.312500e+02
1.375000e+02
1.437500e+02
1.500000e+02
1.562500e+02
1.625000e+02
1.687500e+02
1.750000e+02
1.812500e+02
1.875000e+02
1.937500e+02
2.000000e+02
0.000000e+00
6.250000e+00
1.250000e+01
1.875000e+01
2.500000e+01
3.125000e+01
3.750000e+01
4.375000e+01
5.000000e+01
5.625000e+01
6.250000e+01
6.875000e+01
7.500000e+01
8.125000e+01
8.750000e+01
9.375000e+01
1.000000e+02
1.062500e+02
1.125000e+02
1.187500e+02
1.250000e+02
1.312500e+02
1.375000e+02
1.437500e+02
1.500000e+02
1.562500e+02
1.625000e+02
1.687500e+02
1.750000e+02
1.812500e+02
1.875000e+02
1.937500e+02
2.000000e+02
0.000000e+00
6.250000e+00
1.250000e+01
1.875000e+01
2.500000e+01
3.125000e+01
3.750000e+01
4.375000e+01
5.000000e+01
5.625000e+01
6.250000e+01
6.875000e+01
7.500000e+01
8.125000e+01
8.750000e+01
9.375000e+01
1.000000e+02
1.062500e+02
1.125000e+02
1.187500e+02
1.250000e+02
1.312500e+02
1.375000e+02
1.437500e+02
1.500000e+02
1.562500e+02
1.625000e+02
1.687500e+02
1.750000e+02
1.812500e+02
1.875000e+02
1.937500e+02
2.000000e+02
0.000000e+00
6.250000e+00
1.250000e+01
1.875000e+01
2.500000e+01
3.125000e+01
3.750000e+01
4.375000e+01
5.000000e+01
5.625000e+01
6.250000e+01
6.875000e+01
7.500000e+01
8.125000e+01
8.750000e+01
9.375000e+01
1.000000e+02
1.062500e+02
1.125000e+02
1.187500e+02
1.250000e+02
1.312500e+02
1.375000e+02
1.437500e+02
1.500000e+02
1.562500e+02
1.625000e+02
1.687500e+02
1.750000e+02
1.812500e+02
1.875000e+02
1.937500e+02
2.000000e+02
0.000000e+00
6.250000e+00
1.250000e+01
1.875000e+01
2.500000e+01
3.125000e+01
3.750000e+01
4.375000e+01
5.000000e+01
5.625000e+01
6.250000e+01
6.875000e+01
7.500000e+01
8.125000e+01
8.750000e+01
9.375000e+01
1.000000e+02
1.062500e+02
1.125000e+02
1.187500e+02
1.250000e+02
1.312500e+02
1.375000e+02
1.437500e+02
1.500000e+02
1.562500e+02
1.625000e+02
1.687500e+02
1.750000e+02
1.812500e+02
1.875000e+02
1.937500e+02
2.000000e+02
0.000000e+00
0.000000e+00
0.000000e+00
0.000000e+00
0.000000e+00
0.000000e+00
0.000000e+00
0.000000e+00
0.000000e+00
0.000000e+00
0.000000e+00
0.000000e+00
0.000000e+00
0.000000e+00
0.000000e+00
0.000000e+00
0.000000e+00
0.000000e+00
0.000000e+00
0.000000e+00
0.000000e+00
0.000000e+00
0.000000e+00
0.000000e+00
0.000000e+00
0.000000e+00
0.000000e+00
0.000000e+00
0.000000e+00
0.000000e+00
0.000000e+00
0.000000e+00
0.000000e+00
6.250000e+00
6.250000e+00
6.250000e+00
6.250000e+00
6.250000e+00
6.250000e+00
6.250000e+00
6.250000e+00
6.250000e+00
6.250000e+00
6.250000e+00
6.250000e+00
6.250000e+00
6.250000e+00
6.250000e+00
6.250000e+00
6.250000e+00
6.250000e+00
6.250000e+00
6.250000e+00
6.250000e+00
6.250000e+00
6.250000e+00
6.250000e+00
6.250000e+00
6.250000e+00
6.250000e+00
6.250000e+00
6.250000e+00
6.250000e+00
6.250000e+00
6.250000e+00
6.250000e+00
1.250000e+01
1.250000e+01
1.250000e+01
1.250000e+01
1.250000e+01
1.250000e+01
1.250000e+01
1.250000e+01
1.250000e+01
1.250000e+01
1.250000e+01
1.250000e+01
1.250000e+01
1.250000e+01
1.250000e+01
1.250000e+01
1.250000e+01
1.250000e+01
1.250000e+01
1.250000e+01
1.250000e+01
1.250000e+01
1.250000e+01
1.250000e+01
1.250000e+01
1.250000e+01
1.250000e+01
1.250000e+01
1.250000e+01
1.250000e+01
1.250000e+01
1.250000e+01
1.250000e+01
1.875000e+01
1.875000e+01
1.875000e+01
1.875000e+01
1.875000e+01
1.875000e+01
1.875000e+01
1.875000e+01
1.875000e+01
1.875000e+01
1.875000e+01
1.875000e+01
1.875000e+01
1.875000e+01
1.875000e+01
1.875000e+01
1.875000e+01
1.875000e+01
1.875000e+01
1.875000e+01
1.875000e+01
1.875000e+01
1.875000e+01
1.875000e+01
1.875000e+01
1.875000e+01
1.875000e+01
1.875000e+01
1.875000e+01
1.875000e+01
1.875000e+01
1.875000e+01
1.875000e+01
2.500000e+01
2.500000e+01
2.500000e+01
2.500000e+01
2.500000e+01
2.500000e+01
2.500000e+01
2.500000e+01
2.500000e+01
2.500000e+01
2.500000e+01
2.500000e+01
2.500000e+01
2.500000e+01
2.500000e+01
2.500000e+01
2.500000e+01
2.500000e+01
2.500000e+01
2.500000e+01
2.500000e+01
2.500000e+01
2.500000e+01
2.500000e+01
2.500000e+01
2.500000e+01
2.500000e+01
2.500000e+01
2.500000e+01
2.500000e+01
2.500000e+01
2.500000e+01
2.500000e+01
3.125000e+01
3.125000e+01
3.125000e+01
3.125000e+01
3.125000e+01
3.125000e+01
3.125000e+01
3.125000e+01
3.125000e+01
3.125000e+01
3.125000e+01
3.125000e+01
3.125000e+01
3.125000e+01
3.125000e+01
3.125000e+01
3.125000e+01
3.125000e+01
3.125000e+01
3.125000e+01
3.125000e+01
3.125000e+01
3.125000e+01
3.125000e+01
3.125000e+01
3.125000e+01
3.125000e+01
3.125000e+01
3.125000e+01
3.125000e+01
3.125000e+01
3.125000e+01
3.125000e+01
3.750000e+01
3.750000e+01
3.750000e+01
3.750000e+01
3.750000e+01
3.750000e+01
3.750000e+01
3.750000e+01
3.750000e+01
3.750000e+01
3.750000e+01
3.750000e+01
3.750000e+01
3.750000e+01
3.750000e+01
3.750000e+01
3.750000e+01
3.750000e+01
3.750000e+01
3.750000e+01
3.750000e+01
3.750000e+01
3.750000e+01
3.750000e+01
3.750000e+01
3.750000e+01
3.750000e+01
3.750000e+01
3.750000e+01
3.750000e+01
3.750000e+01
3.750000e+01
3.750000e+01
4.375000e+01
4.375000e+01
4.375000e+01
4.375000e+01
4.375000e+01
4.375000e+01
4.375000e+01
4.375000e+01
4.375000e+01
4.375000e+01
4.375000e+01
4.375000e+01
4.375000e+01
4.375000e+01
4.375000e+01
4.375000e+01
4.375000e+01
4.375000e+01
4.375000e+01
4.375000e+01
4.375000e+01
4.375000e+01
4.375000e+01
4.375000e+01
4.375000e+01
4.375000e+01
4.375000e+01
4.375000e+01
4.375000e+01
4.375000e+01
4.375000e+01
4.375000e+01
4.375000e+01
5.000000e+01
5.000000e+01
5.000000e+01
5.000000e+01
5.000000e+01
5.000000e+01
5.000000e+01
5.000000e+01
5.000000e+01
5.000000e+01
5.000000e+01
5.000000e+01
5.000000e+01
5.000000e+01
5.000000e+01
5.000000e+01
5.000000e+01
5.000000e+01
5.000000e+01
5.000000e+01
5.000000e+01
5.000000e+01
5.000000e+01
5.000000e+01
5.000000e+01
5.000000e+01
5.000000e+01
5.000000e+01
5.000000e+01
5.000000e+01
5.000000e+01
5.000000e+01
5.000000e+01
5.625000e+01
5.625000e+01
5.625000e+01
5.625000e+01
5.625000e+01
5.625000e+01
5.625000e+01
5.625000e+01
5.625000e+01
5.625000e+01
5.625000e+01
5.625000e+01
5.625000e+01
5.625000e+01
5.625000e+01
5.625000e+01
5.625000e+01
5.625000e+01
5.625000e+01
5.625000e+01
5.625000e+01
5.625000e+01
5.625000e+01
5.625000e+01
5.625000e+01
5.625000e+01
5.625000e+01
5.625000e+01
5.625000e+01
5.625000e+01
5.625000e+01
5.625000e+01
5.625000e+01
6.250000e+01
6.250000e+01
6.250000e+01
6.250000e+01
6.250000e+01
6.250000e+01
6.250000e+01
6.250000e+01
6.250000e+01
6.250000e+01
6.250000e+01
6.250000e+01
6.250000e+01
6.250000e+01
6.250000e+01
6.250000e+01
6.250000e+01
6.250000e+01
6.250000e+01
6.250000e+01
6.250000e+01
6.250000e+01
6.250000e+01
6.250000e+01
6.250000e+01
6.250000e+01
6.250000e+01
6.250000e+01
6.250000e+01
6.250000e+01
6.250000e+01
6.250000e+01
6.250000e+01
6.875000e+01
6.875000e+01
6.875000e+01
6.875000e+01
6.875000e+01
6.875000e+01
6.875000e+01
6.875000e+01
6.875000e+01
6.875000e+01
6.875000e+01
6.875000e+01
6.875000e+01
6.875000e+01
6.875000e+01
6.875000e+01
6.875000e+01
6.875000e+01
6.875000e+01
6.875000e+01
6.875000e+01
6.875000e+01
6.875000e+01
6.875000e+01
6.875000e+01
6.875000e+01
6.875000e+01
6.875000e+01
6.875000e+01
6.875000e+01
6.875000e+01
6.875000e+01
6.875000e+01
7.500000e+01
7.500000e+01
7.500000e+01
7.500000e+01
7.500000e+01
7.500000e+01
7.500000e+01
7.500000e+01
7.500000e+01
7.500000e+01
7.500000e+01
7.500000e+01
7.500000e+01
7.500000e+01
7.500000e+01
7.500000e+01
7.500000e+01
7.500000e+01
7.500000e+01
7.500000e+01
7.500000e+01
7.500000e+01
7.500000e+01
7.500000e+01
7.500000e+01
7.500000e+01
7.500000e+01
7.500000e+01
7.500000e+01
7.500000e+01
7.500000e+01
7.500000e+01
7.500000e+01
8.125000e+01
8.125000e+01
8.125000e+01
8.125000e+01
8.125000e+01
8.125000e+01
8.125000e+01
8.125000e+01
8.125000e+01
8.125000e+01
8.125000e+01
8.125000e+01
8.125000e+01
8.125000e+01
8.125000e+01
8.125000e+01
8.125000e+01
8.125000e+01
8.125000e+01
8.125000e+01
8.125000e+01
8.125000e+01
8.125000e+01
8.125000e+01
8.125000e+01
8.125000e+01
8.125000e+01
8.125000e+01
8.125000e+01
8.125000e+01
8.125000e+01
8.125000e+01
8.125000e+01
8.750000e+01
8.750000e+01
8.750000e+01
8.750000e+01
8.750000e+01
8.750000e+01
8.750000e+01
8.750000e+01
8.750000e+01
8.750000e+01
8.750000e+01
8.750000e+01
8.750000e+01
8.750000e+01
8.750000e+01
8.750000e+01
8.750000e+01
8.750000e+01
8.750000e+01
8.750000e+01
8.750000e+01
8.750000e+01
8.750000e+01
8.750000e+01
8.750000e+01
8.750000e+01
8.750000e+01
8.750000e+01
8.750000e+01
8.750000e+01
8.750000e+01
8.750000e+01
8.750000e+01
9.375000e+01
9.375000e+01
9.375000e+01
9.375000e+01
9.375000e+01
9.375000e+01
9.375000e+01
9.375000e+01
9.375000e+01
9.375000e+01
9.375000e+01
9.375000e+01
9.375000e+01
9.375000e+01
9.375000e+01
9.375000e+01
9.375000e+01
9.375000e+01
9.375000e+01
9.375000e+01
9.375000e+01
9.375000e+01
9.375000e+01
9.375000e+01
9.375000e+01
9.375000e+01
9.375000e+01
9.375000e+01
9.375000e+01
9.375000e+01
9.375000e+01
9.375000e+01
9.375000e+01
1.000000e+02
1.000000e+02
1.000000e+02
1.000000e+02
1.000000e+02
1.000000e+02
1.000000e+02
1.000000e+02
1.000000e+02
1.000000e+02
1.000000e+02
1.000000e+02
1.000000e+02
1.000000e+02
1.000000e+02
1.000000e+02
1.000000e+02
1.000000e+02
1.000000e+02
1.000000e+02
1.000000e+02
1.000000e+02
1.000000e+02
1.000000e+02
1.000000e+02
1.000000e+02
1.000000e+02
1.000000e+02
1.000000e+02
1.000000e+02
1.000000e+02
1.000000e+02
1.000000e+02
0.000000e+00
-7.805767e-02
-1.416251e-01
-2.005116e-01
-2.570269e-01
-3.116015e-01
-3.643450e-01
-4.152524e-01
-4.642918e-01
-5.114274e-01
-5.566296e-01
-5.998779e-01
-6.411618e-01
-6.804805e-01
-7.178429e-01
-7.532688e-01
-7.867900e-01
-8.184524e-01
-8.483198e-01
-8.764780e-01
-9.030415e-01
-9.281618e-01
-9.520388e-01
-9.749383e-01
-9.972156e-01
-1.019354e+00
-1.042026e+00
-1.066187e+00
-1.093243e+00
-1.125261e+00
-1.164921e+00
-1.212184e+00
-1.241027e+00
0.000000e+00
-5.233530e-02
-1.088891e-01
-1.622122e-01
-2.128944e-01
-2.614183e-01
-3.080398e-01
-3.528713e-01
-3.959574e-01
-4.373123e-01
-4.769390e-01
-5.148373e-01
-5.510090e-01
-5.854600e-01
-6.182015e-01
-6.492520e-01
-6.786376e-01
-7.063948e-01
-7.325715e-01
-7.572303e-01
-7.804508e-01
-8.023335e-01
-8.230030e-01
-8.426117e-01
-8.613420e-01
-8.794035e-01
-8.970175e-01
-9.143663e-01
-9.314485e-01
-9.477085e-01
-9.612574e-01
-9.691786e-01
-9.802063e-01
0.000000e+00
-4.151232e-02
-8.546310e-02
-1.302123e-01
-1.736952e-01
-2.155762e-01
-2.558284e-01
-2.944898e-01
-3.315945e-01
-3.671660e-01
-4.012192e-01
-4.337648e-01
-4.648116e-01
-4.943689e-01
-5.224476e-01
-5.490612e-01
-5.742271e-01
-5.979669e-01
-6.203073e-01
-6.412802e-01
-6.609222e-01
-6.792730e-01
-6.963717e-01
-7.122488e-01
-7.269103e-01
-7.403093e-01
-7.522926e-01
-7.625075e-01
-7.702630e-01
-7.744392e-01
-7.740731e-01
-7.717283e-01
-7.846056e-01
0.000000e+00
-3.293634e-02
-6.769172e-02
-1.033988e-01
-1.390225e-01
-1.737838e-01
-2.073848e-01
-2.397187e-01
-2.707565e-01
-3.004970e-01
-3.289478e-01
-3.561183e-01
-3.820177e-01
-4.066541e-01
-4.300347e-01
-4.521662e-01
-4.730545e-01
-4.927051e-01
-5.111219e-01
-5.283060e-01
-5.442530e-01
-5.589482e-01
-5.723592e-01
-5.844234e-01
-5.950294e-01
-6.039901e-01
-6.110089e-01
-6.156570e-01
-6.174317e-01
-6.161144e-01
-6.129147e-01
-6.127237e-01
-6.249926e-01
0.000000e+00
-2.556326e-02
-5.234487e-02
-7.998215e-02
-1.078442e-01
-1.353648e-01
-1.621642e-01
-1.880501e-01
-2.129350e-01
-2.367854e-01
-2.595924e-01
-2.813571e-01
-3.020836e-01
-3.217754e-01
-3.404337e-01
-3.580569e-01
-3.746395e-01
-3.901714e-01
-4.046366e-01
-4.180108e-01
-4.302582e-01
-4.413263e-01
-4.511394e-01
-4.595898e-01
-4.665281e-01
-4.717580e-01
-4.750490e-01
-4.762035e-01
-4.752565e-01
-4.729391e-01
-4.714357e-01
-4.749075e-01
-4.853735e-01
0.000000e+00
-1.878756e-02
-3.838007e-02
-5.860211e-02
-7.910435e-02
-9.950407e-02
-1.194975e-01
-1.388870e-01
-1.575643e-01
-1.754767e-01
-1.926017e-01
-2.089317e-01
-2.244637e-01
-2.391950e-01
-2.531200e-01
-2.662287e-01
-2.785057e-01
-2.899284e-01
-3.004659e-01
-3.100771e-01
-3.187078e-01
-3.262879e-01
-3.327290e-01
-3.379229e-01
-3.417465e-01
-3.440795e-01
-3.448535e-01
-3.441589e-01
-3.424469e-01
-3.408181e-01
-3.412146e-01
-3.456406e-01
-3.543005e-01
0.000000e+00
-1.236450e-02
-2.521808e-02
-3.847947e-02
-5.195958e-02
-6.543155e-02
-7.869219e-02
-9.159342e-02
-1.040425e-01
-1.159884e-01
-1.274051e-01
-1.382798e-01
-1.486039e-01
-1.583690e-01
-1.675632e-01
-1.761697e-01
-1.841652e-01
-1.915192e-01
-1.981920e-01
-2.041345e-01
-2.092871e-01
-2.135797e-01
-2.169345e-01
-2.192724e-01
-2.205285e-01
-2.206843e-01
-2.198255e-01
-2.182362e-01
-2.165213e-01
-2.156900e-01
-2.169869e-01
-2.212961e-01
-2.282866e-01
0.000000e+00
-6.141449e-03
-1.251509e-02
-1.908818e-02
-2.577772e-02
-3.247803e-02
-3.908877e-02
-4.553140e-02
-5.175287e-02
-5.772074e-02
-6.341583e-02
-6.882540e-02
-7.393838e-02
-7.874208e-02
-8.322014e-02
-8.735104e-02
-9.110706e-02
-9.445353e-02
-9.734837e-02
-9.974228e-02
-1.015799e-01
-1.028031e-01
-1.033572e-01
-1.032031e-01
-1.023377e-01
-1.008272e-01
-9.885415e-02
-9.677526e-02
-9.516141e-02
-9.475711e-02
-9.627878e-02
-1.000379e-01
-1.055848e-01
0.000000e+00
-9.910522e-06
-2.148867e-05
-3.409311e-05
-4.706087e-05
-5.949807e-05
-7.005756e-05
-7.669223e-05
-7.636658e-05
-6.470963e-05
-3.559586e-05
1.935322e-05
1.113459e-04
2.550632e-04
4.693364e-04
7.778014e-04
1.209428e-03
1.798759e-03
2.585604e-03
3.613789e-03
4.928372e-03
6.570480e-03
8.568599e-03
1.092490e-02
1.359523e-02
1.646264e-02
1.930758e-02
2.178619e-02
2.344078e-02
2.377634e-02
2.242532e-02
1.936568e-02
1.508048e-02
0.000000e+00
6.122782e-03
1.247453e-02
1.902370e-02
2.568851e-02
3.236492e-02
3.895509e-02
4.538430e-02
5.160514e-02
5.759338e-02
6.334128e-02
6.885185e-02
7.413510e-02
7.920598e-02
8.408365e-02
8.879127e-02
9.335605e-02
9.780896e-02
1.021840e-01
1.065160e-01
1.108375e-01
1.151722e-01
1.195262e-01
1.238755e-01
1.281493e-01
1.322128e-01
1.358532e-01
1.387812e-01
1.406625e-01
1.411951e-01
1.402305e-01
1.379062e-01
1.347258e-01
0.000000e+00
1.234925e-02
2.518471e-02
3.842605e-02
5.188510e-02
6.533623e-02
7.857822e-02
9.146599e-02
1.039114e-01
1.158697e-01
1.273245e-01
1.382755e-01
1.487314e-01
1.587064e-01
1.682179e-01
1.772863e-01
1.859342e-01
1.941862e-01
2.020681e-01
2.096040e-01
2.168138e-01
2.237063e-01
2.302724e-01
2.364740e-01
2.422333e-01
2.474225e-01
2.518611e-01
2.553279e-01
2.575969e-01
2.585042e-01
2.580377e-01
2.564294e-01
2.542096e-01
0.000000e+00
1.877783e-02
3.835839e-02
5.856682e-02
7.905423e-02
9.943866e-02
1.194174e-01
1.387949e-01
1.574655e-01
1.753805e-01
1.925236e-01
2.088951e-01
2.245035e-01
2.393607e-01
2.534809e-01
2.668789e-01
2.795706e-01
2.915720e-01
3.028985e-01
3.135632e-01
3.235736e-01
3.329273e-01
3.416062e-01
3.495694e-01
3.567464e-01
3.630330e-01
3.682938e-01
3.723767e-01
3.751456e-01
3.765329e-01
3.766110e-01
3.756675e-01
3.742647e-01
0.000000e+00
2.556084e-02
5.233882e-02
7.997133e-02
1.078275e-01
1.353412e-01
1.621331e-01
1.880115e-01
2.128897e-01
2.367354e-01
2.595415e-01
2.813118e-01
3.020544e-01
3.217777e-01
3.404902e-01
3.581993e-01
3.749117e-01
3.906330e-01
4.053669e-01
4.191141e-01
4.318704e-01
4.436241e-01
4.543527e-01
4.640189e-01
4.725685e-01
4.799298e-01
4.860185e-01
4.907505e-01
4.940668e-01
4.959721e-01
4.965901e-01
4.962359e-01
4.954969e-01
0.000000e+00
3.294246e-02
6.770415e-02
1.034173e-01
1.390466e-01
1.738127e-01
2.074175e-01
2.397536e-01
2.707910e-01
3.005269e-01
3.289665e-01
3.561164e-01
3.819817e-01
4.065651e-01
4.298672e-01
4.518860e-01
4.726173e-01
4.920543e-01
5.101875e-01
5.270040e-01
5.424868e-01
5.566143e-01
5.693596e-01
5.806906e-01
5.905712e-01
5.989644e-01
6.058385e-01
6.111783e-01
6.149999e-01
6.173749e-01
6.184674e-01
6.185976e-01
6.183524e-01
0.000000e+00
4.152726e-02
8.549498e-02
1.302622e-01
1.737641e-01
2.156649e-01
2.559371e-01
2.946172e-01
3.317371e-01
3.673163e-01
4.013644e-01
4.338840e-01
4.648729e-01
4.943252e-01
5.222317e-01
5.485797e-01
5.733529e-01
5.965312e-01
6.180900e-01
6.380005e-01
6.562300e-01
6.727433e-01
6.875042e-01
7.004797e-01
7.116454e-01
7.209925e-01
7.285380e-01
7.343351e-01
7.384841e-01
7.411414e-01
7.425323e-01
7.429853e-01
7.430394e-01
0.000000e+00
5.235771e-02
1.089381e-01
1.622910e-01
2.130069e-01
2.615683e-01
3.082306e-01
3.531048e-01
3.962325e-01
4.376237e-01
4.772737e-01
5.151714e-01
5.513027e-01
5.856509e-01
6.181965e-01
6.489162e-01
6.777821e-01
7.047602e-01
7.298099e-01
7.528839e-01
7.739291e-01
7.928888e-01
8.097068e-01
8.243352e-01
8.367434e-01
8.469321e-01
8.549495e-01
8.609085e-01
8.650020e-01
8.675103e-01
8.687917e-01
8.692564e-01
8.693702e-01
0.000000e+00
7.808221e-02
1.416823e-01
2.006098e-01
2.571737e-01
3.118052e-01
3.646136e-01
4.155941e-01
4.647126e-01
5.119299e-01
5.572096e-01
6.005200e-01
6.418333e-01
6.811232e-01
7.183621e-01
7.535190e-01
7.865563e-01
8.174282e-01
8.460781e-01
8.724380e-01
8.964288e-01
9.179620e-01
9.369453e-01
9.532916e-01
9.669333e-01
9.778430e-01
9.860595e-01
9.917199e-01
9.950937e-01
9.966138e-01
9.968901e-01
9.966613e-01
9.965325e-01
0.000000e+00
-4.823818e-02
-8.418651e-02
-1.234152e-01
-1.670989e-01
-2.164440e-01
-2.717935e-01
-3.332436e-01
-4.007330e-01
-4.741173e-01
-5.532018e-01
-6.377629e-01
-7.275593e-01
-8.223397e-01
-9.218478e-01
-1.025826e+00
-1.134016e+00
-1.246168e+00
-1.362037e+00
-1.481394e+00
-1.604031e+00
-1.729773e+00
-1.858496e+00
-1.990149e+00
-2.124800e+00
-2.262696e+00
-2.404386e+00
-2.550940e+00
-2.704403e+00
-2.868827e+00
-3.052952e+00
-3.277399e+00
-3.587480e+00
0.000000e+00
-2.997823e-02
-6.760665e-02
-1.070998e-01
-1.513922e-01
-2.012732e-01
-2.571604e-01
-3.191482e-01
-3.871808e-01
-4.611135e-01
-5.407507e-01
-6.258669e-01
-7.162188e-01
-8.115530e-01
-9.116108e-01
-1.016132e+00
-1.124855e+00
-1.237526e+00
-1.353896e+00
-1.473730e+00
-1.596813e+00
-1.722961e+00
-1.852037e+00
-1.983978e+00
-2.118832e+00
-2.256825e+00
-2.398477e+00
-2.544823e+00
-2.697868e+00
-2.861594e+00
-3.044297e+00
-3.263748e+00
-3.553444e+00
0.000000e+00
-2.202078e-02
-5.450430e-02
-9.345864e-02
-1.378282e-01
-1.880767e-01
-2.444049e-01
-3.068650e-01
-3.753821e-01
-4.498045e-01
-5.299334e-01
-6.155415e-01
-7.063843e-01
-8.022076e-01
-9.027517e-01
-1.007755e+00
-1.116956e+00
-1.230098e+00
-1.346931e+00
-1.467218e+00
-1.590741e+00
-1.717316e+00
-1.846807e+00
-1.979149e+00
-2.114399e+00
-2.252793e+00
-2.394877e+00
-2.541711e+00
-2.695274e+00
-2.859155e+00
-3.039480e+00
-3.243493e+00
-3.469804e+00
0.000000e+00
-1.763342e-02
-4.615431e-02
-8.303137e-02
-1.268307e-01
-1.770634e-01
-2.336324e-01
-2.964424e-01
-3.653581e-01
-4.402002e-01
-5.207572e-01
-6.067961e-01
-6.980703e-01
-7.943252e-01
-8.953014e-01
-1.000738e+00
-1.110374e+00
-1.223954e+00
-1.341229e+00
-1.461964e+00
-1.585946e+00
-1.712992e+00
-1.842973e+00
-1.975838e+00
-2.111652e+00
-2.250667e+00
-2.393420e+00
-2.540889e+00
-2.694695e+00
-2.857201e+00
-3.030670e+00
-3.213624e+00
-3.383936e+00
0.000000e+00
-1.492092e-02
-4.069376e-02
-7.562682e-02
-1.184276e-01
-1.683310e-01
-2.249212e-01
-2.879351e-01
-3.571453e-01
-4.323253e-01
-5.132403e-01
-5.996463e-01
-6.912925e-01
-7.879233e-01
-8.892804e-01
-9.951045e-01
-1.105138e+00
-1.219128e+00
-1.336828e+00
-1.458008e+00
-1.582458e+00
-1.710004e+00
-1.840520e+00
-1.973958e+00
-2.110380e+00
-2.250005e+00
-2.393273e+00
-2.540887e+00
-2.693778e+00
-2.852698e+00
-3.016888e+00
-3.180319e+00
-3.328642e+00
0.000000e+00
-1.319494e-02
-3.711098e-02
-7.053136e-02
-1.123687e-01
-1.618045e-01
-2.182716e-01
-2.813662e-01
-3.507701e-01
-4.262034e-01
-5.074020e-01
-5.941075e-01
-6.860633e-01
-7.830123e-01
-8.846974e-01
-9.908621e-01
-1.101252e+00
-1.215618e+00
-1.333718e+00
-1.455325e+00
-1.580232e+00
-1.708266e+00
-1.839299e+00
-1.973266e+00
-2.110191e+00
-2.250208e+00
-2.393561e+00
-2.540562e+00
-2.691379e+00
-2.845505e+00
-3.000592e+00
-3.151097e+00
-3.288657e+00
0.000000e+00
-1.212226e-02
-3.484577e-02
-6.721922e-02
-1.083096e-01
-1.573194e-01
-2.136188e-01
-2.767213e-01
-3.462397e-01
-4.218482e-01
-5.032559e-01
-5.901904e-01
-6.823890e-01
-7.795936e-01
-8.815486e-01
-9.880004e-01
-1.098698e+00
-1.213396e+00
-1.331854e+00
-1.453848e+00
-1.579169e+00
-1.707636e+00
-1.839103e+00
-1.973472e+00
-2.110696e+00
-2.250777e+00
-2.393729e+00
-2.539469e+00
-2.687577e+00
-2.836846e+00
-2.984695e+00
-3.126861e+00
-3.258121e+00
0.000000e+00
-1.153280e-02
-3.358886e-02
-6.535276e-02
-1.059821e-01
-1.547069e-01
-2.108771e-01
-2.739656e-01
-3.435459e-01
-4.192629e-01
-5.008076e-01
-5.878982e-01
-6.802683e-01
-7.776599e-01
-8.798193e-01
-9.864956e-01
-1.097441e+00
-1.212411e+00
-1.331169e+00
-1.453486e+00
-1.579146e+00
-1.707952e+00
-1.839729e+00
-1.974325e+00
-2.111606e+00
-2.251429e+00
-2.393588e+00
-2.537698e+00
-2.682987e+00
-2.828027e+00
-2.970489e+00
-3.107166e+00
-3.234494e+00
0.000000e+00
-1.134288e-02
-3.318335e-02
-6.474782e-02
-1.052236e-01
-1.538519e-01
-2.099790e-01
-2.730666e-01
-3.426761e-01
-4.184438e-01
-5.000553e-01
-5.872269e-01
-6.796928e-01
-7.771963e-01
-8.794864e-01
-9.863147e-01
-1.097435e+00
-1.212605e+00
-1.331585e+00
-1.454139e+00
-1.580041e+00
-1.709069e+00
-1.841010e+00
-1.975649e+00
-2.112761e+00
-2.252072e+00
-2.393203e+00
-2.535574e+00
-2.678265e+00
-2.819868e+00
-2.958415e+00
-3.091458e+00
-3.216386e+00
0.000000e+00
-1.152731e-02
-3.358124e-02
-6.534619e-02
-1.059802e-01
-1.547139e-01
-2.108988e-01
-2.740096e-01
-3.436224e-01
-4.193851e-01
-5.009925e-01
-5.881673e-01
-6.806481e-01
-7.781824e-01
-8.805217e-01
-9.874202e-01
-1.098633e+00
-1.213916e+00
-1.333026e+00
-1.455718e+00
-1.581750e+00
-1.710872e+00
-1.842829e+00
-1.977346e+00
-2.114113e+00
-2.252749e+00
-2.392757e+00
-2.533457e+00
-2.673900e+00
-2.812806e+00
-2.948553e+00
-3.079245e+00
-3.202890e+00
0.000000e+00
-1.211172e-02
-3.483115e-02
-6.720656e-02
-1.083057e-01
-1.573325e-01
-2.136600e-01
-2.768052e-01
-3.463857e-01
-4.220819e-01
-5.036099e-01
-5.907059e-01
-6.831169e-01
-7.805953e-01
-8.828961e-01
-9.897749e-01
-1.100987e+00
-1.216287e+00
-1.335424e+00
-1.458146e+00
-1.584190e+00
-1.713279e+00
-1.845119e+00
-1.979379e+00
-2.115679e+00
-2.253561e+00
-2.392455e+00
-2.531641e+00
-2.670209e+00
-2.807040e+00
-2.940818e+00
-3.070085e+00
-3.193310e+00
0.000000e+00
-1.318029e-02
-3.709064e-02
-7.051368e-02
-1.123630e-01
-1.618224e-01
-2.183286e-01
-2.814827e-01
-3.509735e-01
-4.265292e-01
-5.078960e-01
-5.948276e-01
-6.870807e-01
-7.844132e-01
-8.865829e-01
-9.933466e-01
-1.104459e+00
-1.219671e+00
-1.338728e+00
-1.461366e+00
-1.587304e+00
-1.716242e+00
-1.847850e+00
-1.981751e+00
-2.117513e+00
-2.254624e+00
-2.392475e+00
-2.530341e+00
-2.667376e+00
-2.802624e+00
-2.935044e+00
-3.063551e+00
-3.187030e+00
0.000000e+00
-1.490366e-02
-4.066982e-02
-7.560599e-02
-1.184210e-01
-1.683527e-01
-2.249899e-01
-2.880758e-01
-3.573908e-01
-4.327189e-01
-5.138373e-01
-6.005167e-01
-6.925229e-01
-7.896181e-01
-8.915620e-01
-9.981118e-01
-1.109021e+00
-1.224039e+00
-1.342903e+00
-1.465340e+00
-1.591058e+00
-1.719734e+00
-1.851011e+00
-1.984479e+00
-2.119668e+00
-2.256032e+00
-2.392941e+00
-2.529684e+00
-2.665483e+00
-2.799524e+00
-2.931013e+00
-3.059213e+00
-3.183436e+00
0.000000e+00
-1.761568e-02
-4.612973e-02
-8.301019e-02
-1.268250e-01
-1.770889e-01
-2.337098e-01
-2.965994e-01
-3.656312e-01
-4.406370e-01
-5.214190e-01
-6.077601e-01
-6.994319e-01
-7.961994e-01
-8.978230e-01
-1.004060e+00
-1.114662e+00
-1.229374e+00
-1.347933e+00
-1.470056e+00
-1.595440e+00
-1.723749e+00
-1.854607e+00
-1.987582e+00
-2.122181e+00
-2.257837e+00
-2.393916e+00
-2.529720e+00
-2.664528e+00
-2.797644e+00
-2.928479e+00
-3.056623e+00
-3.181869e+00
0.000000e+00
-2.200532e-02
-5.448277e-02
-9.344076e-02
-1.378265e-01
-1.881077e-01
-2.444904e-01
-3.070339e-01
-3.756722e-01
-4.502653e-01
-5.306282e-01
-6.165499e-01
-7.078043e-01
-8.041571e-01
-9.053686e-01
-1.011195e+00
-1.121386e+00
-1.235686e+00
-1.353826e+00
-1.475520e+00
-1.600459e+00
-1.728297e+00
-1.858648e+00
-1.991071e+00
-2.125059e+00
-2.260041e+00
-2.395382e+00
-2.530402e+00
-2.664420e+00
-2.796822e+00
-2.927165e+00
-3.055321e+00
-3.181595e+00
0.000000e+00
-2.996829e-02
-6.759200e-02
-1.070893e-01
-1.513987e-01
-2.013136e-01
-2.572567e-01
-3.193294e-01
-3.874847e-01
-4.615891e-01
-5.414605e-01
-6.268888e-01
-7.176483e-01
-8.135044e-01
-9.142163e-01
-1.019539e+00
-1.129221e+00
-1.243004e+00
-1.360617e+00
-1.481770e+00
-1.606151e+00
-1.733410e+00
-1.863158e+00
-1.994951e+00
-2.128282e+00
-2.262585e+00
-2.397235e+00
-2.531571e+00
-2.664942e+00
-2.796783e+00
-2.926738e+00
-3.054850e+00
-3.181828e+00
0.000000e+00
-4.823677e-02
-8.418163e-02
-1.234162e-01
-1.671186e-01
-2.164995e-01
-2.719067e-01
-3.334433e-01
-4.010563e-01
-4.746116e-01
-5.539274e-01
-6.387940e-01
-7.289859e-01
-8.242681e-01
-9.243993e-01
-1.029133e+00
-1.138215e+00
-1.251386e+00
-1.368370e+00
-1.488876e+00
-1.612588e+00
-1.739155e+00
-1.868186e+00