TITLE = "Solution"
VARIABLES = x, y, u, v, psiu, psiv, t, stress
ZONE T="structure" N=561 E=512 F=FEBLOCK ET=QUADRILATERAL VARLOCATION=([7,8]=cellcentered)
0.000000e+00
6.250000e+00
1.250000e+01
1.875000e+01
2.500000e+01
3.125000e+01
3.750000e+01
4.375000e+01
5.000000e+01
5.625000e+01
6.250000e+01
6.875000e+01
7.500000e+01
8.125000e+01
8.750000e+01
9.375000e+01
1.000000e+02
1.062500e+02
1.125000e+02
1.187500e+02
1.250000e+02
1.312500e+02
1.375000e+02
1.437500e+02
1.500000e+02
1.562500e+02
1.625000e+02
1.687500e+02
1.750000e+02
1.812500e+02
1.875000e+02
1.937500e+02
2.000000e+02
0.000000e+00
6.250000e+00
1.250000e+01
1.875000e+01
2.500000e+01
3.125000e+01
3.750000e+01
4.375000e+01
5.000000e+01
5.625000e+01
6.250000e+01
6.875000e+01
7.500000e+01
8.125000e+01
8.750000e+01
9.375000e+01
1.000000e+02
1.062500e+02
1.125000e+02
1.187500e+02
1.250000e+02
1.312500e+02
1.375000e+02
1.437500e+02
1.500000e+02
1.562500e+02
1.625000e+02
1.687500e+02
1.750000e+02
1.812500e+02
1.875000e+02
1.937500e+02
2.000000e+02
0.000000e+00
6.250000e+00
1.250000e+01
1.875000e+01
2.500000e+01
3.125000e+01
3.750000e+01
4.375000e+01
5.000000e+01
5.625000e+01
6.250000e+01
6.875000e+01
7.500000e+01
8.125000e+01
8.750000e+01
9.375000e+01
1.000000e+02
1.062500e+02
1.125000e+02
1.187500e+02
1.250000e+02
1.312500e+02
1.375000e+02
1.437500e+02
1.500000e+02
1.562500e+02
1.625000e+02
1.687500e+02
1.750000e+02
1.812500e+02
1.875000e+02
1.937500e+02
2.000000e+02
0.000000e+00
6.250000e+00
1.250000e+01
1.875000e+01
2.500000e+01
3.125000e+01
3.750000e+01
4.375000e+01
5.000000e+01
5.625000e+01
6.250000e+01
6.875000e+01
7.500000e+01
8.125000e+01
8.750000e+01
9.375000e+01
1.000000e+02
1.062500e+02
1.125000e+02
1.187500e+02
1.250000e+02
1.312500e+02
1.375000e+02
1.437500e+02
1.500000e+02
1.562500e+02
1.625000e+02
1.687500e+02
1.750000e+02
1.812500e+02
1.875000e+02
1.937500e+02
2.000000e+02
0.000000e+00
6.250000e+00
1.250000e+01
1.875000e+01
2.500000e+01
3.125000e+01
3.750000e+01
4.375000e+01
5.000000e+01
5.625000e+01
6.250000e+01
6.875000e+01
7.500000e+01
8.125000e+01
8.750000e+01
9.375000e+01
1.000000e+02
1.062500e+02
1.125000e+02
1.187500e+02
1.250000e+02
1.312500e+02
1.375000e+02
1.437500e+02
1.500000e+02
1.562500e+02
1.625000e+02
1.687500e+02
1.750000e+02
1.812500e+02
1.875000e+02
1.937500e+02
2.000000e+02
0.000000e+00
6.250000e+00
1.250000e+01
1.875000e+01
2.500000e+01
3.125000e+01
3.750000e+01
4.375000e+01
5.000000e+01
5.625000e+01
6.250000e+01
6.875000e+01
7.500000e+01
8.125000e+01
8.750000e+01
9.375000e+01
1.000000e+02
1.062500e+02
1.125000e+02
1.187500e+02
1.250000e+02
1.312500e+02
1.375000e+02
1.437500e+02
1.500000e+02
1.562500e+02
1.625000e+02
1.687500e+02
1.750000e+02
1.812500e+02
1.875000e+02
1.937500e+02
2.000000e+02
0.000000e+00
6.250000e+00
1.250000e+01
1.875000e+01
2.500000e+01
3.125000e+01
3.750000e+01
4.375000e+01
5.000000e+01
5.625000e+01
6.250000e+01
6.875000e+01
7.500000e+01
8.125000e+01
8.750000e+01
9.375000e+01
1.000000e+02
1.062500e+02
1.125000e+02
1.187500e+02
1.250000e+02
1.312500e+02
1.375000e+02
1.437500e+02
1.500000e+02
1.562500e+02
1.625000e+02
1.687500e+02
1.750000e+02
1.812500e+02
1.875000e+02
1.937500e+02
2.000000e+02
0.000000e+00
6.250000e+00
1.250000e+01
1.875000e+01
2.500000e+01
3.125000e+01
3.750000e+01
4.375000e+01
5.000000e+01
5.625000e+01
6.250000e+01
6.875000e+01
7.500000e+01
8.125000e+01
8.750000e+01
9.375000e+01
1.000000e+02
1.062500e+02
1.125000e+02
1.187500e+02
1.250000e+02
1.312500e+02
1.375000e+02
1.437500e+02
1.500000e+02
1.562500e+02
1.625000e+02
1.687500e+02
1.750000e+02
1.812500e+02
1.875000e+02
1.937500e+02
2.000000e+02
0.000000e+00
6.250000e+00
1.250000e+01
1.875000e+01
2.500000e+01
3.125000e+01
3.750000e+01
4.375000e+01
5.000000e+01
5.625000e+01
6.250000e+01
6.875000e+01
7.500000e+01
8.125000e+01
8.750000e+01
9.375000e+01
1.000000e+02
1.062500e+02
1.125000e+02
1.187500e+02
1.250000e+02
1.312500e+02
1.375000e+02
1.437500e+02
1.500000e+02
1.562500e+02
1.625000e+02
1.687500e+02
1.750000e+02
1.812500e+02
1.875000e+02
1.937500e+02
2.000000e+02
0.000000e+00
6.250000e+00
1.250000e+01
1.875000e+01
2.500000e+01
3.125000e+01
3.750000e+01
4.375000e+01
5.000000e+01
5.625000e+01
6.250000e+01
6.875000e+01
7.500000e+01
8.125000e+01
8.750000e+01
9.375000e+01
1.000000e+02
1.062500e+02
1.125000e+02
1.187500e+02
1.250000e+02
1.312500e+02
1.375000e+02
1.437500e+02
1.500000e+02
1.562500e+02
1.625000e+02
1.687500e+02
1.750000e+02
1.812500e+02
1.875000e+02
1.937500e+02
2.000000e+02
0.000000e+00
6.250000e+00
1.250000e+01
1.875000e+01
2.500000e+01
3.125000e+01
3.750000e+01
4.375000e+01
5.000000e+01
5.625000e+01
6.250000e+01
6.875000e+01
7.500000e+01
8.125000e+01
8.750000e+01
9.375000e+01
1.000000e+02
1.062500e+02
1.125000e+02
1.187500e+02
1.250000e+02
1.312500e+02
1.375000e+02
1.437500e+02
1.500000e+02
1.562500e+02
1.625000e+02
1.687500e+02
1.750000e+02
1.812500e+02
1.875000e+02
1.937500e+02
2.000000e+02
0.000000e+00
6.250000e+00
1.250000e+01
1.875000e+01
2.500000e+01
3.125000e+01
3.750000e+01
4.375000e+01
5.000000e+01
5.625000e+01
6.250000e+01
6.875000e+01
7.500000e+01
8.125000e+01
8.750000e+01
9.375000e+01
1.000000e+02
1.062500e+02
1.125000e+02
1.187500e+02
1.250000e+02
1.312500e+02
1.375000e+02
1.437500e+02
1.500000e+02
1.562500e+02
1.625000e+02
1.687500e+02
1.750000e+02
1.812500e+02
1.875000e+02
1.937500e+02
2.000000e+02
0.000000e+00
6.250000e+00
1.250000e+01
1.875000e+01
2.500000e+01
3.125000e+01
3.750000e+01
4.375000e+01
5.000000e+01
5.625000e+01
6.250000e+01
6.875000e+01
7.500000e+01
8.125000e+01
8.750000e+01
9.375000e+01
1.000000e+02
1.062500e+02
1.125000e+02
1.187500e+02
1.250000e+02
1.312500e+02
1.375000e+02
1.437500e+02
1.500000e+02
1.562500e+02
1.625000e+02
1.687500e+02
1.750000e+02
1.812500e+02
1.875000e+02
1.937500e+02
2.000000e+02
0.000000e+00
6.250000e+00
1.250000e+01
1.875000e+01
2.500000e+01
3.125000e+01
3.750000e+01
4.375000e+01
5.000000e+01
5.625000e+01
6.250000e+01
6.875000e+01
7.500000e+01
8.125000e+01
8.750000e+01
9.375000e+01
1.000000e+02
1.062500e+02
1.125000e+02
1.187500e+02
1.250000e+02
1.312500e+02
1.375000e+02
1.437500e+02
1.500000e+02
1.562500e+02
1.625000e+02
1.687500e+02
1.750000e+02
1.812500e+02
1.875000e+02
1.937500e+02
2.000000e+02
0.000000e+00
6.250000e+00
1.250000e+01
1.875000e+01
2.500000e+01
3.125000e+01
3.750000e+01
4.375000e+01
5.000000e+01
5.625000e+01
6.250000e+01
6.875000e+01
7.500000e+01
8.125000e+01
8.750000e+01
9.375000e+01
1.000000e+02
1.062500e+02
1.125000e+02
1.187500e+02
1.250000e+02
1.312500e+02
1.375000e+02
1.437500e+02
1.500000e+02
1.562500e+02
1.625000e+02
1.687500e+02
1.750000e+02
1.812500e+02
1.875000e+02
1.937500e+02
2.000000e+02
0.000000e+00
6.250000e+00
1.250000e+01
1.875000e+01
2.500000e+01
3.125000e+01
3.750000e+01
4.375000e+01
5.000000e+01
5.625000e+01
6.250000e+01
6.875000e+01
7.500000e+01
8.125000e+01
8.750000e+01
9.375000e+01
1.000000e+02
1.062500e+02
1.125000e+02
1.187500e+02
1.250000e+02
1.312500e+02
1.375000e+02
1.437500e+02
1.500000e+02
1.562500e+02
1.625000e+02
1.687500e+02
1.750000e+02
1.812500e+02
1.875000e+02
1.937500e+02
2.000000e+02
0.000000e+00
6.250000e+00
1.250000e+01
1.875000e+01
2.500000e+01
3.125000e+01
3.750000e+01
4.375000e+01
5.000000e+01
5.625000e+01
6.250000e+01
6.875000e+01
7.500000e+01
8.125000e+01
8.750000e+01
9.375000e+01
1.000000e+02
1.062500e+02
1.125000e+02
1.187500e+02
1.250000e+02
1.312500e+02
1.375000e+02
1.437500e+02
1.500000e+02
1.562500e+02
1.625000e+02
1.687500e+02
1.750000e+02
1.812500e+02
1.875000e+02
1.937500e+02
2.000000e+02
0.000000e+00
0.000000e+00
0.000000e+00
0.000000e+00
0.000000e+00
0.000000e+00
0.000000e+00
0.000000e+00
0.000000e+00
0.000000e+00
0.000000e+00
0.000000e+00
0.000000e+00
0.000000e+00
0.000000e+00
0.000000e+00
0.000000e+00
0.000000e+00
0.000000e+00
0.000000e+00
0.000000e+00
0.000000e+00
0.000000e+00
0.000000e+00
0.000000e+00
0.000000e+00
0.000000e+00
0.000000e+00
0.000000e+00
0.000000e+00
0.000000e+00
0.000000e+00
0.000000e+00
6.250000e+00
6.250000e+00
6.250000e+00
6.250000e+00
6.250000e+00
6.250000e+00
6.250000e+00
6.250000e+00
6.250000e+00
6.250000e+00
6.250000e+00
6.250000e+00
6.250000e+00
6.250000e+00
6.250000e+00
6.250000e+00
6.250000e+00
6.250000e+00
6.250000e+00
6.250000e+00
6.250000e+00
6.250000e+00
6.250000e+00
6.250000e+00
6.250000e+00
6.250000e+00
6.250000e+00
6.250000e+00
6.250000e+00
6.250000e+00
6.250000e+00
6.250000e+00
6.250000e+00
1.250000e+01
1.250000e+01
1.250000e+01
1.250000e+01
1.250000e+01
1.250000e+01
1.250000e+01
1.250000e+01
1.250000e+01
1.250000e+01
1.250000e+01
1.250000e+01
1.250000e+01
1.250000e+01
1.250000e+01
1.250000e+01
1.250000e+01
1.250000e+01
1.250000e+01
1.250000e+01
1.250000e+01
1.250000e+01
1.250000e+01
1.250000e+01
1.250000e+01
1.250000e+01
1.250000e+01
1.250000e+01
1.250000e+01
1.250000e+01
1.250000e+01
1.250000e+01
1.250000e+01
1.875000e+01
1.875000e+01
1.875000e+01
1.875000e+01
1.875000e+01
1.875000e+01
1.875000e+01
1.875000e+01
1.875000e+01
1.875000e+01
1.875000e+01
1.875000e+01
1.875000e+01
1.875000e+01
1.875000e+01
1.875000e+01
1.875000e+01
1.875000e+01
1.875000e+01
1.875000e+01
1.875000e+01
1.875000e+01
1.875000e+01
1.875000e+01
1.875000e+01
1.875000e+01
1.875000e+01
1.875000e+01
1.875000e+01
1.875000e+01
1.875000e+01
1.875000e+01
1.875000e+01
2.500000e+01
2.500000e+01
2.500000e+01
2.500000e+01
2.500000e+01
2.500000e+01
2.500000e+01
2.500000e+01
2.500000e+01
2.500000e+01
2.500000e+01
2.500000e+01
2.500000e+01
2.500000e+01
2.500000e+01
2.500000e+01
2.500000e+01
2.500000e+01
2.500000e+01
2.500000e+01
2.500000e+01
2.500000e+01
2.500000e+01
2.500000e+01
2.500000e+01
2.500000e+01
2.500000e+01
2.500000e+01
2.500000e+01
2.500000e+01
2.500000e+01
2.500000e+01
2.500000e+01
3.125000e+01
3.125000e+01
3.125000e+01
3.125000e+01
3.125000e+01
3.125000e+01
3.125000e+01
3.125000e+01
3.125000e+01
3.125000e+01
3.125000e+01
3.125000e+01
3.125000e+01
3.125000e+01
3.125000e+01
3.125000e+01
3.125000e+01
3.125000e+01
3.125000e+01
3.125000e+01
3.125000e+01
3.125000e+01
3.125000e+01
3.125000e+01
3.125000e+01
3.125000e+01
3.125000e+01
3.125000e+01
3.125000e+01
3.125000e+01
3.125000e+01
3.125000e+01
3.125000e+01
3.750000e+01
3.750000e+01
3.750000e+01
3.750000e+01
3.750000e+01
3.750000e+01
3.750000e+01
3.750000e+01
3.750000e+01
3.750000e+01
3.750000e+01
3.750000e+01
3.750000e+01
3.750000e+01
3.750000e+01
3.750000e+01
3.750000e+01
3.750000e+01
3.750000e+01
3.750000e+01
3.750000e+01
3.750000e+01
3.750000e+01
3.750000e+01
3.750000e+01
3.750000e+01
3.750000e+01
3.750000e+01
3.750000e+01
3.750000e+01
3.750000e+01
3.750000e+01
3.750000e+01
4.375000e+01
4.375000e+01
4.375000e+01
4.375000e+01
4.375000e+01
4.375000e+01
4.375000e+01
4.375000e+01
4.375000e+01
4.375000e+01
4.375000e+01
4.375000e+01
4.375000e+01
4.375000e+01
4.375000e+01
4.375000e+01
4.375000e+01
4.375000e+01
4.375000e+01
4.375000e+01
4.375000e+01
4.375000e+01
4.375000e+01
4.375000e+01
4.375000e+01
4.375000e+01
4.375000e+01
4.375000e+01
4.375000e+01
4.375000e+01
4.375000e+01
4.375000e+01
4.375000e+01
5.000000e+01
5.000000e+01
5.000000e+01
5.000000e+01
5.000000e+01
5.000000e+01
5.000000e+01
5.000000e+01
5.000000e+01
5.000000e+01
5.000000e+01
5.000000e+01
5.000000e+01
5.000000e+01
5.000000e+01
5.000000e+01
5.000000e+01
5.000000e+01
5.000000e+01
5.000000e+01
5.000000e+01
5.000000e+01
5.000000e+01
5.000000e+01
5.000000e+01
5.000000e+01
5.000000e+01
5.000000e+01
5.000000e+01
5.000000e+01
5.000000e+01
5.000000e+01
5.000000e+01
5.625000e+01
5.625000e+01
5.625000e+01
5.625000e+01
5.625000e+01
5.625000e+01
5.625000e+01
5.625000e+01
5.625000e+01
5.625000e+01
5.625000e+01
5.625000e+01
5.625000e+01
5.625000e+01
5.625000e+01
5.625000e+01
5.625000e+01
5.625000e+01
5.625000e+01
5.625000e+01
5.625000e+01
5.625000e+01
5.625000e+01
5.625000e+01
5.625000e+01
5.625000e+01
5.625000e+01
5.625000e+01
5.625000e+01
5.625000e+01
5.625000e+01
5.625000e+01
5.625000e+01
6.250000e+01
6.250000e+01
6.250000e+01
6.250000e+01
6.250000e+01
6.250000e+01
6.250000e+01
6.250000e+01
6.250000e+01
6.250000e+01
6.250000e+01
6.250000e+01
6.250000e+01
6.250000e+01
6.250000e+01
6.250000e+01
6.250000e+01
6.250000e+01
6.250000e+01
6.250000e+01
6.250000e+01
6.250000e+01
6.250000e+01
6.250000e+01
6.250000e+01
6.250000e+01
6.250000e+01
6.250000e+01
6.250000e+01
6.250000e+01
6.250000e+01
6.250000e+01
6.250000e+01
6.875000e+01
6.875000e+01
6.875000e+01
6.875000e+01
6.875000e+01
6.875000e+01
6.875000e+01
6.875000e+01
6.875000e+01
6.875000e+01
6.875000e+01
6.875000e+01
6.875000e+01
6.875000e+01
6.875000e+01
6.875000e+01
6.875000e+01
6.875000e+01
6.875000e+01
6.875000e+01
6.875000e+01
6.875000e+01
6.875000e+01
6.875000e+01
6.875000e+01
6.875000e+01
6.875000e+01
6.875000e+01
6.875000e+01
6.875000e+01
6.875000e+01
6.875000e+01
6.875000e+01
7.500000e+01
7.500000e+01
7.500000e+01
7.500000e+01
7.500000e+01
7.500000e+01
7.500000e+01
7.500000e+01
7.500000e+01
7.500000e+01
7.500000e+01
7.500000e+01
7.500000e+01
7.500000e+01
7.500000e+01
7.500000e+01
7.500000e+01
7.500000e+01
7.500000e+01
7.500000e+01
7.500000e+01
7.500000e+01
7.500000e+01
7.500000e+01
7.500000e+01
7.500000e+01
7.500000e+01
7.500000e+01
7.500000e+01
7.500000e+01
7.500000e+01
7.500000e+01
7.500000e+01
8.125000e+01
8.125000e+01
8.125000e+01
8.125000e+01
8.125000e+01
8.125000e+01
8.125000e+01
8.125000e+01
8.125000e+01
8.125000e+01
8.125000e+01
8.125000e+01
8.125000e+01
8.125000e+01
8.125000e+01
8.125000e+01
8.125000e+01
8.125000e+01
8.125000e+01
8.125000e+01
8.125000e+01
8.125000e+01
8.125000e+01
8.125000e+01
8.125000e+01
8.125000e+01
8.125000e+01
8.125000e+01
8.125000e+01
8.125000e+01
8.125000e+01
8.125000e+01
8.125000e+01
8.750000e+01
8.750000e+01
8.750000e+01
8.750000e+01
8.750000e+01
8.750000e+01
8.750000e+01
8.750000e+01
8.750000e+01
8.750000e+01
8.750000e+01
8.750000e+01
8.750000e+01
8.750000e+01
8.750000e+01
8.750000e+01
8.750000e+01
8.750000e+01
8.750000e+01
8.750000e+01
8.750000e+01
8.750000e+01
8.750000e+01
8.750000e+01
8.750000e+01
8.750000e+01
8.750000e+01
8.750000e+01
8.750000e+01
8.750000e+01
8.750000e+01
8.750000e+01
8.750000e+01
9.375000e+01
9.375000e+01
9.375000e+01
9.375000e+01
9.375000e+01
9.375000e+01
9.375000e+01
9.375000e+01
9.375000e+01
9.375000e+01
9.375000e+01
9.375000e+01
9.375000e+01
9.375000e+01
9.375000e+01
9.375000e+01
9.375000e+01
9.375000e+01
9.375000e+01
9.375000e+01
9.375000e+01
9.375000e+01
9.375000e+01
9.375000e+01
9.375000e+01
9.375000e+01
9.375000e+01
9.375000e+01
9.375000e+01
9.375000e+01
9.375000e+01
9.375000e+01
9.375000e+01
1.000000e+02
1.000000e+02
1.000000e+02
1.000000e+02
1.000000e+02
1.000000e+02
1.000000e+02
1.000000e+02
1.000000e+02
1.000000e+02
1.000000e+02
1.000000e+02
1.000000e+02
1.000000e+02
1.000000e+02
1.000000e+02
1.000000e+02
1.000000e+02
1.000000e+02
1.000000e+02
1.000000e+02
1.000000e+02
1.000000e+02
1.000000e+02
1.000000e+02
1.000000e+02
1.000000e+02
1.000000e+02
1.000000e+02
1.000000e+02
1.000000e+02
1.000000e+02
1.000000e+02
0.000000e+00
-4.194065e-01
-7.294392e-01
-1.048164e+00
-1.358723e+00
-1.656310e+00
-1.963475e+00
-2.263612e+00
-2.561618e+00
-2.863043e+00
-3.161523e+00
-3.459983e+00
-3.759193e+00
-4.057152e+00
-4.355253e+00
-4.653400e+00
-4.951063e+00
-5.248808e+00
-5.546575e+00
-5.844284e+00
-6.142239e+00
-6.440678e+00
-6.739891e+00
-7.040591e+00
-7.344195e+00
-7.652092e+00
-7.965504e+00
-8.288559e+00
-8.630041e+00
-9.002044e+00
-9.415709e+00
-9.810258e+00
-1.001723e+01
0.000000e+00
-2.368619e-01
-4.859888e-01
-7.486665e-01
-1.015779e+00
-1.270293e+00
-1.536392e+00
-1.798035e+00
-2.057852e+00
-2.321295e+00
-2.582182e+00
-2.843156e+00
-3.104861e+00
-3.365468e+00
-3.626162e+00
-3.886819e+00
-4.146935e+00
-4.406932e+00
-4.666720e+00
-4.926151e+00
-5.185380e+00
-5.444452e+00
-5.703283e+00
-5.961892e+00
-6.220545e+00
-6.478944e+00
-6.735934e+00
-6.991784e+00
-7.248099e+00
-7.497682e+00
-7.697368e+00
-7.782623e+00
-7.885185e+00
0.000000e+00
-1.461383e-01
-3.121905e-01
-5.132509e-01
-7.257881e-01
-9.340080e-01
-1.156200e+00
-1.377219e+00
-1.598498e+00
-1.823459e+00
-2.047092e+00
-2.271370e+00
-2.496538e+00
-2.721125e+00
-2.945936e+00
-3.170762e+00
-3.395136e+00
-3.619241e+00
-3.842858e+00
-4.065700e+00
-4.287600e+00
-4.508184e+00
-4.726783e+00
-4.942452e+00
-5.153929e+00
-5.359120e+00
-5.554833e+00
-5.737252e+00
-5.900084e+00
-6.027016e+00
-6.081180e+00
-6.081340e+00
-6.172339e+00
0.000000e+00
-1.050391e-01
-2.145600e-01
-3.587324e-01
-5.089675e-01
-6.723538e-01
-8.490846e-01
-1.028112e+00
-1.210793e+00
-1.397169e+00
-1.583939e+00
-1.772130e+00
-1.961396e+00
-2.150646e+00
-2.340244e+00
-2.529799e+00
-2.718849e+00
-2.907274e+00
-3.094630e+00
-3.280388e+00
-3.463941e+00
-3.644370e+00
-3.820373e+00
-3.990162e+00
-4.151372e+00
-4.300841e+00
-4.434322e+00
-4.546200e+00
-4.628408e+00
-4.669391e+00
-4.666945e+00
-4.674446e+00
-4.754583e+00
0.000000e+00
-9.080924e-02
-1.809756e-01
-2.831836e-01
-3.960856e-01
-5.208276e-01
-6.545535e-01
-7.929743e-01
-9.366251e-01
-1.082871e+00
-1.230751e+00
-1.380245e+00
-1.530284e+00
-1.680666e+00
-1.831119e+00
-1.981148e+00
-2.130457e+00
-2.278593e+00
-2.424978e+00
-2.568912e+00
-2.709437e+00
-2.845287e+00
-2.974798e+00
-3.095820e+00
-3.205672e+00
-3.301063e+00
-3.377968e+00
-3.431782e+00
-3.458374e+00
-3.457322e+00
-3.444189e+00
-3.470279e+00
-3.548632e+00
0.000000e+00
-7.162302e-02
-1.428890e-01
-2.178737e-01
-3.008655e-01
-3.907663e-01
-4.869644e-01
-5.884908e-01
-6.934128e-01
-8.010018e-01
-9.103262e-01
-1.020607e+00
-1.131479e+00
-1.242470e+00
-1.353196e+00
-1.463303e+00
-1.572343e+00
-1.679796e+00
-1.785002e+00
-1.887097e+00
-1.984966e+00
-2.077182e+00
-2.161970e+00
-2.237196e+00
-2.300409e+00
-2.348914e+00
-2.379933e+00
-2.391367e+00
-2.383879e+00
-2.364198e+00
-2.357008e+00
-2.390070e+00
-2.465160e+00
0.000000e+00
-4.900393e-02
-9.783539e-02
-1.485350e-01
-2.028469e-01
-2.614798e-01
-3.241103e-01
-3.900988e-01
-4.586541e-01
-5.289543e-01
-6.003881e-01
-6.724182e-01
-7.446072e-01
-8.166005e-01
-8.880398e-01
-9.585556e-01
-1.027722e+00
-1.095007e+00
-1.159732e+00
-1.221022e+00
-1.277761e+00
-1.328560e+00
-1.371765e+00
-1.405507e+00
-1.427848e+00
-1.437020e+00
-1.431845e+00
-1.412717e+00
-1.383488e+00
-1.354912e+00
-1.349309e+00
-1.385244e+00
-1.458483e+00
0.000000e+00
-2.501232e-02
-4.998660e-02
-7.562140e-02
-1.027091e-01
-1.316270e-01
-1.623552e-01
-1.945977e-01
-2.279406e-01
-2.619673e-01
-2.962878e-01
-3.305665e-01
-3.645064e-01
-3.978284e-01
-4.302512e-01
-4.614621e-01
-4.910895e-01
-5.186705e-01
-5.436122e-01
-5.651536e-01
-5.823316e-01
-5.939671e-01
-5.986916e-01
-5.950453e-01
-5.816956e-01
-5.578192e-01
-5.237545e-01
-4.821665e-01
-4.395213e-01
-4.074346e-01
-4.042057e-01
-4.413546e-01
-5.131357e-01
0.000000e+00
-5.370283e-04
-9.723405e-04
-1.277106e-03
-1.410531e-03
-1.320030e-03
-9.422688e-04
-2.035890e-04
9.799570e-04
2.703363e-03
5.073849e-03
8.212591e-03
1.225742e-02
1.736688e-02
2.372670e-02
3.155900e-02
4.113505e-02
5.279280e-02
6.695994e-02
8.418067e-02
1.051391e-01
1.306668e-01
1.617080e-01
1.991880e-01
2.437166e-01
2.950808e-01
3.514389e-01
4.081955e-01
4.573696e-01
4.878407e-01
4.872684e-01
4.500184e-01
3.834332e-01
0.000000e+00
2.394790e-02
4.805392e-02
7.307417e-02
9.988358e-02
1.289635e-01
1.604196e-01
1.941004e-01
2.297571e-01
2.671610e-01
3.061338e-01
3.465796e-01
3.884725e-01
4.318434e-01
4.767709e-01
5.233688e-01
5.717827e-01
6.221893e-01
6.748018e-01
7.298773e-01
7.877216e-01
8.486928e-01
9.131689e-01
9.813740e-01
1.052986e+00
1.126578e+00
1.198958e+00
1.264547e+00
1.315488e+00
1.342972e+00
1.340138e+00
1.306513e+00
1.251375e+00
0.000000e+00
4.796447e-02
9.592855e-02
1.459939e-01
1.999880e-01
2.587223e-01
3.219924e-01
3.892973e-01
4.600031e-01
5.334686e-01
6.092898e-01
6.871610e-01
7.669054e-01
8.484585e-01
9.317866e-01
1.016892e+00
1.103781e+00
1.192444e+00
1.282848e+00
1.374917e+00
1.468490e+00
1.563337e+00
1.659162e+00
1.755399e+00
1.850729e+00
1.942601e+00
2.026970e+00
2.098333e+00
2.150396e+00
2.177503e+00
2.176797e+00
2.151071e+00
2.110574e+00
0.000000e+00
7.061170e-02
1.409917e-01
2.152880e-01
2.978859e-01
3.877611e-01
4.844264e-01
5.870337e-01
6.937905e-01
8.041490e-01
9.173730e-01
1.032911e+00
1.150646e+00
1.270374e+00
1.391984e+00
1.515404e+00
1.640478e+00
1.766990e+00
1.894639e+00
2.022973e+00
2.151301e+00
2.278755e+00
2.404418e+00
2.527020e+00
2.644361e+00
2.753058e+00
2.848810e+00
2.926911e+00
2.982945e+00
3.013797e+00
3.019134e+00
3.003355e+00
2.977132e+00
0.000000e+00
8.980074e-02
1.790251e-01
2.804573e-01
3.928003e-01
5.173171e-01
6.511945e-01
7.902586e-01
9.351817e-01
1.083466e+00
1.234363e+00
1.388060e+00
1.543737e+00
1.701447e+00
1.861142e+00
2.022538e+00
2.185459e+00
2.349486e+00
2.514048e+00
2.678323e+00
2.841119e+00
3.001118e+00
3.156913e+00
3.306470e+00
3.446600e+00
3.573189e+00
3.682032e+00
3.769446e+00
3.832662e+00
3.870359e+00
3.883685e+00
3.877840e+00
3.863827e+00
0.000000e+00
1.039962e-01
2.126275e-01
3.559110e-01
5.054546e-01
6.683180e-01
8.447552e-01
1.023774e+00
1.206813e+00
1.394052e+00
1.582332e+00
1.772888e+00
1.965609e+00
2.159628e+00
2.355546e+00
2.553164e+00
2.752032e+00
2.951924e+00
3.152162e+00
3.351570e+00
3.548768e+00
3.742522e+00
3.930983e+00
4.110516e+00
4.276027e+00
4.422454e+00
4.545903e+00
4.643926e+00
4.715404e+00
4.760620e+00
4.781848e+00
4.784616e+00
4.779873e+00
0.000000e+00
1.454788e-01
3.109461e-01
5.114391e-01
7.234038e-01
9.311288e-01
1.152874e+00
1.373515e+00
1.594522e+00
1.819357e+00
2.043068e+00
2.267720e+00
2.493691e+00
2.719609e+00
2.946421e+00
3.174085e+00
3.402088e+00
3.630553e+00
3.859154e+00
4.086784e+00
4.312450e+00
4.535928e+00
4.755506e+00
4.965220e+00
5.156573e+00
5.322614e+00
5.459583e+00
5.566369e+00
5.643691e+00
5.693722e+00
5.720143e+00
5.728798e+00
5.729744e+00
0.000000e+00
2.367129e-01
4.857639e-01
7.483493e-01
1.015327e+00
1.269706e+00
1.535646e+00
1.797068e+00
2.056621e+00
2.319733e+00
2.580179e+00
2.840585e+00
3.101583e+00
3.361250e+00
3.620721e+00
3.879865e+00
4.137945e+00
4.395275e+00
4.651800e+00
4.906656e+00
5.159443e+00
5.411055e+00
5.660042e+00
5.898051e+00
6.112862e+00
6.295336e+00
6.441575e+00
6.551557e+00
6.627837e+00
6.674997e+00
6.699302e+00
6.708187e+00
6.710343e+00
0.000000e+00
4.199284e-01
7.304612e-01
1.049634e+00
1.360634e+00
1.658627e+00
1.966182e+00
2.266623e+00
2.564855e+00
2.866395e+00
3.164761e+00
3.462818e+00
3.761221e+00
4.057743e+00
4.353605e+00
4.648538e+00
4.941650e+00
5.233344e+00
5.523648e+00
5.811970e+00
6.098420e+00
6.383954e+00
6.665604e+00
6.931815e+00
7.167399e+00
7.361876e+00
7.511075e+00
7.615325e+00
7.678375e+00
7.707380e+00
7.713095e+00
7.709062e+00
7.706691e+00
0.000000e+00
-2.530287e-01
-5.043855e-01
-8.186369e-01
-1.170274e+00
-1.562116e+00
-1.996334e+00
-2.465893e+00
-2.974119e+00
-3.520220e+00
-4.103032e+00
-4.724076e+00
-5.382792e+00
-6.079132e+00
-6.813642e+00
-7.586166e+00
-8.396871e+00
-9.246064e+00
-1.013385e+01
-1.106048e+01
-1.202630e+01
-1.303163e+01
-1.407697e+01
-1.516326e+01
-1.629206e+01
-1.746580e+01
-1.868881e+01
-1.996879e+01
-2.131635e+01
-2.274451e+01
-2.428472e+01
-2.609513e+01
-2.862408e+01
0.000000e+00
-1.585646e-01
-4.238391e-01
-7.323138e-01
-1.087023e+00
-1.478323e+00
-1.911689e+00
-2.382487e+00
-2.890180e+00
-3.436165e+00
-4.019379e+00
-4.640214e+00
-5.299012e+00
-5.995500e+00
-6.729971e+00
-7.502591e+00
-8.313385e+00
-9.162608e+00
-1.005047e+01
-1.097717e+01
-1.194301e+01
-1.294834e+01
-1.399366e+01
-1.507976e+01
-1.620820e+01
-1.738155e+01
-1.860393e+01
-1.988227e+01
-2.122802e+01
-2.265863e+01
-2.421561e+01
-2.600273e+01
-2.826564e+01
0.000000e+00
-1.268902e-01
-3.649685e-01
-6.697385e-01
-1.020658e+00
-1.409823e+00
-1.841727e+00
-2.311871e+00
-2.818801e+00
-3.364480e+00
-3.947514e+00
-4.568123e+00
-5.226903e+00
-5.923380e+00
-6.657876e+00
-7.430617e+00
-8.241564e+00
-9.090995e+00
-9.979146e+00
-1.090621e+01
-1.187250e+01
-1.287846e+01
-1.392461e+01
-1.501180e+01
-1.614171e+01
-1.731709e+01
-1.854208e+01
-1.982400e+01
-2.117716e+01
-2.262901e+01
-2.420961e+01
-2.589286e+01
-2.765815e+01
0.000000e+00
-1.345708e-01
-3.463413e-01
-6.386606e-01
-9.779669e-01
-1.361233e+00
-1.789468e+00
-2.256364e+00
-2.761638e+00
-3.306166e+00
-3.888267e+00
-4.508420e+00
-5.166896e+00
-5.863243e+00
-6.597813e+00
-7.370753e+00
-8.182070e+00
-9.032049e+00
-9.920938e+00
-1.084898e+01
-1.181657e+01
-1.282420e+01
-1.387254e+01
-1.496255e+01
-1.609600e+01
-1.727568e+01
-1.850590e+01
-1.979457e+01
-2.115739e+01
-2.262173e+01
-2.418736e+01
-2.573748e+01
-2.715837e+01
0.000000e+00
-1.521211e-01
-3.587142e-01
-6.347661e-01
-9.616187e-01
-1.335755e+00
-1.756763e+00
-2.218244e+00
-2.720444e+00
-3.262475e+00
-3.842989e+00
-4.462323e+00
-5.120196e+00
-5.816417e+00
-6.551171e+00
-7.324510e+00
-8.136558e+00
-8.987560e+00
-9.877794e+00
-1.080760e+01
-1.177741e+01
-1.278781e+01
-1.383952e+01
-1.493359e+01
-1.607168e+01
-1.725641e+01
-1.849178e+01
-1.978469e+01
-2.114806e+01
-2.259842e+01
-2.410862e+01
-2.553338e+01
-2.678704e+01
0.000000e+00
-1.599804e-01
-3.702209e-01
-6.364299e-01
-9.550878e-01
-1.322124e+00
-1.735809e+00
-2.192843e+00
-2.691548e+00
-3.231064e+00
-3.810214e+00
-4.428654e+00
-5.086143e+00
-5.782434e+00
-6.517574e+00
-7.291635e+00
-8.104758e+00
-8.957209e+00
-9.849315e+00
-1.078149e+01
-1.175422e+01
-1.276810e+01
-1.382383e+01
-1.492232e+01
-1.606490e+01
-1.725359e+01
-1.849126e+01
-1.978173e+01
-2.113122e+01
-2.254531e+01
-2.397443e+01
-2.530519e+01
-2.645931e+01
0.000000e+00
-1.636633e-01
-3.757291e-01
-6.386952e-01
-9.522435e-01
-1.314517e+00
-1.723392e+00
-2.176792e+00
-2.672959e+00
-3.210580e+00
-3.788688e+00
-4.406628e+00
-5.064008e+00
-5.760613e+00
-6.496384e+00
-7.271395e+00
-8.085828e+00
-8.939971e+00
-9.834211e+00
-1.076901e+01
-1.174491e+01
-1.276243e+01
-1.382214e+01
-1.492458e+01
-1.607045e+01
-1.726068e+01
-1.849626e+01
-1.977687e+01
-2.110145e+01
-2.246521e+01
-2.381806e+01
-2.507340e+01
-2.615767e+01
0.000000e+00
-1.653392e-01
-3.782280e-01
-6.401630e-01
-9.513901e-01
-1.310964e+00
-1.717304e+00
-2.168639e+00
-2.663335e+00
-3.200034e+00
-3.777698e+00
-4.395598e+00
-5.053263e+00
-5.750439e+00
-6.487049e+00
-7.263165e+00
-8.078993e+00
-8.934861e+00
-9.831197e+00
-1.076851e+01
-1.174731e+01
-1.276807e+01
-1.383107e+01
-1.493635e+01
-1.608365e+01
-1.727245e+01
-1.850142e+01
-1.976646e+01
-2.106014e+01
-2.237049e+01
-2.365305e+01
-2.484148e+01
-2.586739e+01
0.000000e+00
-1.658971e-01
-3.791400e-01
-6.409582e-01
-9.516813e-01
-1.310624e+00
-1.716402e+00
-2.167368e+00
-2.661930e+00
-3.198732e+00
-3.776718e+00
-4.395132e+00
-5.053484e+00
-5.751506e+00
-6.489118e+00
-7.266400e+00
-8.083574e+00
-8.940988e+00
-9.839099e+00
-1.077843e+01
-1.175946e+01
-1.278254e+01
-1.384765e+01
-1.495422e+01
-1.610090e+01
-1.728544e+01
-1.850413e+01
-1.974980e+01
-2.101074e+01
-2.226956e+01
-2.348892e+01
-2.461587e+01
-2.559271e+01
0.000000e+00
-1.655999e-01
-3.788152e-01
-6.411683e-01
-9.529276e-01
-1.313164e+00
-1.720308e+00
-2.172596e+00
-2.668400e+00
-3.206366e+00
-3.785458e+00
-4.404950e+00
-5.064375e+00
-5.763484e+00
-6.502207e+00
-7.280630e+00
-8.098975e+00
-8.957588e+00
-9.856923e+00
-1.079749e+01
-1.177972e+01
-1.280382e+01
-1.386952e+01
-1.497565e+01
-1.611977e+01
-1.729786e+01
-1.850387e+01
-1.972827e+01
-2.095690e+01
-2.216993e+01
-2.333629e+01
-2.441409e+01
-2.535828e+01
0.000000e+00
-1.641635e-01
-3.768575e-01
-6.406370e-01
-9.552263e-01
-1.318799e+00
-1.729252e+00
-2.184522e+00
-2.682862e+00
-3.222966e+00
-3.803874e+00
-4.424934e+00
-5.085756e+00
-5.786128e+00
-6.526000e+00
-7.305458e+00
-8.124702e+00
-8.984045e+00
-9.883906e+00
-1.082473e+01
-1.180688e+01
-1.283048e+01
-1.389512e+01
-1.499926e+01
-1.613939e+01
-1.730974e+01
-1.850214e+01
-1.970534e+01
-2.090431e+01
-2.207969e+01
-2.320580e+01
-2.425098e+01
-2.518118e+01
0.000000e+00
-1.606717e-01
-3.717853e-01
-6.391658e-01
-9.593242e-01
-1.328238e+00
-1.744219e+00
-2.203961e+00
-2.705816e+00
-3.248936e+00
-3.832145e+00
-4.455105e+00
-5.117570e+00
-5.819280e+00
-6.560271e+00
-7.340609e+00
-8.160423e+00
-9.019972e+00
-9.919611e+00
-1.085967e+01
-1.184038e+01
-1.286192e+01
-1.392411e+01
-1.502522e+01
-1.616070e+01
-1.732302e+01
-1.850222e+01
-1.968603e+01
-2.085968e+01
-2.200575e+01
-2.310373e+01
-2.413055e+01
-2.506185e+01
0.000000e+00
-1.529168e-01
-3.605221e-01
-6.380749e-01
-9.667983e-01
-1.343303e+00
-1.767232e+00
-2.232127e+00
-2.738311e+00
-3.284913e+00
-3.870568e+00
-4.495630e+00
-5.159804e+00
-5.862846e+00
-6.604889e+00
-7.385944e+00
-8.206034e+00
-9.065321e+00
-9.964104e+00
-1.090254e+01
-1.188065e+01
-1.289892e+01
-1.395783e+01
-1.505554e+01
-1.618633e+01
-1.734096e+01
-1.850812e+01
-1.967512e+01
-2.082803e+01
-2.195182e+01
-2.303078e+01
-2.404934e+01
-2.499250e+01
0.000000e+00
-1.353045e-01
-3.481757e-01
-6.421829e-01
-9.836505e-01
-1.369618e+00
-1.801213e+00
-2.272032e+00
-2.781880e+00
-3.331693e+00
-3.919739e+00
-4.546534e+00
-5.212339e+00
-5.916586e+00
-6.659539e+00
-7.441240e+00
-8.261458e+00
-9.120280e+00
-1.001794e+01
-1.095436e+01
-1.192941e+01
-1.294406e+01
-1.399950e+01
-1.509372e+01
-1.621971e+01
-1.736682e+01
-1.852298e+01
-1.967560e+01
-2.081172e+01
-2.191850e+01
-2.298435e+01
-2.400048e+01
-2.496171e+01
0.000000e+00
-1.274819e-01
-3.666869e-01
-6.731812e-01
-1.026372e+00
-1.418366e+00
-1.853787e+00
-2.328065e+00
-2.839814e+00
-3.391096e+00
-3.980459e+00
-4.608175e+00
-5.274841e+00
-5.979836e+00
-6.723376e+00
-7.505513e+00
-8.325857e+00
-9.184373e+00
-1.008113e+01
-1.101591e+01
-1.198860e+01
-1.300041e+01
-1.405272e+01
-1.514304e+01
-1.626332e+01
-1.740227e+01
-1.854783e+01
-1.968788e+01
-2.081033e+01
-2.190394e+01
-2.296016e+01
-2.397580e+01
-2.495580e+01
0.000000e+00
-1.590486e-01
-4.254685e-01
-7.356638e-01
-1.092667e+00
-1.486842e+00
-1.923745e+00
-2.398730e+00
-2.911308e+00
-3.462961e+00
-4.052607e+00
-4.680674e+00
-5.347499e+00
-6.052678e+00
-6.796376e+00
-7.578537e+00
-8.398803e+00
-9.257059e+00
-1.015319e+01
-1.108691e+01
-1.205839e+01
-1.306879e+01
-1.411863e+01
-1.520427e+01
-1.631714e+01
-1.744645e+01
-1.858099e+01
-1.970939e+01
-2.082033e+01
-2.190359e+01
-2.295232e+01
-2.396684e+01
-2.495987e+01
0.000000e+00
-2.535842e-01
-5.060695e-01
-8.220338e-01
-1.175961e+00
-1.570685e+00
-2.008427e+00
-2.482162e+00
-2.995266e+00
-3.547006e+00
-4.136212e+00
-4.764438e+00
-5.431098e+00
-6.136009e+00
-6.879597e+00
-7.661446e+00
-8.481326e+00
-9.339228e+00
-1.023482e+01
-1.116782e+01
-1.213876e+01
-1.314860e+01
-1.419610e+01