TITLE = "Solution"
VARIABLES = x, y, u, v, psiu, psiv, t, stress
ZONE T="structure" N=561 E=512 F=FEBLOCK ET=QUADRILATERAL VARLOCATION=([7,8]=cellcentered)
0.000000e+00
6.250000e+00
1.250000e+01
1.875000e+01
2.500000e+01
3.125000e+01
3.750000e+01
4.375000e+01
5.000000e+01
5.625000e+01
6.250000e+01
6.875000e+01
7.500000e+01
8.125000e+01
8.750000e+01
9.375000e+01
1.000000e+02
1.062500e+02
1.125000e+02
1.187500e+02
1.250000e+02
1.312500e+02
1.375000e+02
1.437500e+02
1.500000e+02
1.562500e+02
1.625000e+02
1.687500e+02
1.750000e+02
1.812500e+02
1.875000e+02
1.937500e+02
2.000000e+02
0.000000e+00
6.250000e+00
1.250000e+01
1.875000e+01
2.500000e+01
3.125000e+01
3.750000e+01
4.375000e+01
5.000000e+01
5.625000e+01
6.250000e+01
6.875000e+01
7.500000e+01
8.125000e+01
8.750000e+01
9.375000e+01
1.000000e+02
1.062500e+02
1.125000e+02
1.187500e+02
1.250000e+02
1.312500e+02
1.375000e+02
1.437500e+02
1.500000e+02
1.562500e+02
1.625000e+02
1.687500e+02
1.750000e+02
1.812500e+02
1.875000e+02
1.937500e+02
2.000000e+02
0.000000e+00
6.250000e+00
1.250000e+01
1.875000e+01
2.500000e+01
3.125000e+01
3.750000e+01
4.375000e+01
5.000000e+01
5.625000e+01
6.250000e+01
6.875000e+01
7.500000e+01
8.125000e+01
8.750000e+01
9.375000e+01
1.000000e+02
1.062500e+02
1.125000e+02
1.187500e+02
1.250000e+02
1.312500e+02
1.375000e+02
1.437500e+02
1.500000e+02
1.562500e+02
1.625000e+02
1.687500e+02
1.750000e+02
1.812500e+02
1.875000e+02
1.937500e+02
2.000000e+02
0.000000e+00
6.250000e+00
1.250000e+01
1.875000e+01
2.500000e+01
3.125000e+01
3.750000e+01
4.375000e+01
5.000000e+01
5.625000e+01
6.250000e+01
6.875000e+01
7.500000e+01
8.125000e+01
8.750000e+01
9.375000e+01
1.000000e+02
1.062500e+02
1.125000e+02
1.187500e+02
1.250000e+02
1.312500e+02
1.375000e+02
1.437500e+02
1.500000e+02
1.562500e+02
1.625000e+02
1.687500e+02
1.750000e+02
1.812500e+02
1.875000e+02
1.937500e+02
2.000000e+02
0.000000e+00
6.250000e+00
1.250000e+01
1.875000e+01
2.500000e+01
3.125000e+01
3.750000e+01
4.375000e+01
5.000000e+01
5.625000e+01
6.250000e+01
6.875000e+01
7.500000e+01
8.125000e+01
8.750000e+01
9.375000e+01
1.000000e+02
1.062500e+02
1.125000e+02
1.187500e+02
1.250000e+02
1.312500e+02
1.375000e+02
1.437500e+02
1.500000e+02
1.562500e+02
1.625000e+02
1.687500e+02
1.750000e+02
1.812500e+02
1.875000e+02
1.937500e+02
2.000000e+02
0.000000e+00
6.250000e+00
1.250000e+01
1.875000e+01
2.500000e+01
3.125000e+01
3.750000e+01
4.375000e+01
5.000000e+01
5.625000e+01
6.250000e+01
6.875000e+01
7.500000e+01
8.125000e+01
8.750000e+01
9.375000e+01
1.000000e+02
1.062500e+02
1.125000e+02
1.187500e+02
1.250000e+02
1.312500e+02
1.375000e+02
1.437500e+02
1.500000e+02
1.562500e+02
1.625000e+02
1.687500e+02
1.750000e+02
1.812500e+02
1.875000e+02
1.937500e+02
2.000000e+02
0.000000e+00
6.250000e+00
1.250000e+01
1.875000e+01
2.500000e+01
3.125000e+01
3.750000e+01
4.375000e+01
5.000000e+01
5.625000e+01
6.250000e+01
6.875000e+01
7.500000e+01
8.125000e+01
8.750000e+01
9.375000e+01
1.000000e+02
1.062500e+02
1.125000e+02
1.187500e+02
1.250000e+02
1.312500e+02
1.375000e+02
1.437500e+02
1.500000e+02
1.562500e+02
1.625000e+02
1.687500e+02
1.750000e+02
1.812500e+02
1.875000e+02
1.937500e+02
2.000000e+02
0.000000e+00
6.250000e+00
1.250000e+01
1.875000e+01
2.500000e+01
3.125000e+01
3.750000e+01
4.375000e+01
5.000000e+01
5.625000e+01
6.250000e+01
6.875000e+01
7.500000e+01
8.125000e+01
8.750000e+01
9.375000e+01
1.000000e+02
1.062500e+02
1.125000e+02
1.187500e+02
1.250000e+02
1.312500e+02
1.375000e+02
1.437500e+02
1.500000e+02
1.562500e+02
1.625000e+02
1.687500e+02
1.750000e+02
1.812500e+02
1.875000e+02
1.937500e+02
2.000000e+02
0.000000e+00
6.250000e+00
1.250000e+01
1.875000e+01
2.500000e+01
3.125000e+01
3.750000e+01
4.375000e+01
5.000000e+01
5.625000e+01
6.250000e+01
6.875000e+01
7.500000e+01
8.125000e+01
8.750000e+01
9.375000e+01
1.000000e+02
1.062500e+02
1.125000e+02
1.187500e+02
1.250000e+02
1.312500e+02
1.375000e+02
1.437500e+02
1.500000e+02
1.562500e+02
1.625000e+02
1.687500e+02
1.750000e+02
1.812500e+02
1.875000e+02
1.937500e+02
2.000000e+02
0.000000e+00
6.250000e+00
1.250000e+01
1.875000e+01
2.500000e+01
3.125000e+01
3.750000e+01
4.375000e+01
5.000000e+01
5.625000e+01
6.250000e+01
6.875000e+01
7.500000e+01
8.125000e+01
8.750000e+01
9.375000e+01
1.000000e+02
1.062500e+02
1.125000e+02
1.187500e+02
1.250000e+02
1.312500e+02
1.375000e+02
1.437500e+02
1.500000e+02
1.562500e+02
1.625000e+02
1.687500e+02
1.750000e+02
1.812500e+02
1.875000e+02
1.937500e+02
2.000000e+02
0.000000e+00
6.250000e+00
1.250000e+01
1.875000e+01
2.500000e+01
3.125000e+01
3.750000e+01
4.375000e+01
5.000000e+01
5.625000e+01
6.250000e+01
6.875000e+01
7.500000e+01
8.125000e+01
8.750000e+01
9.375000e+01
1.000000e+02
1.062500e+02
1.125000e+02
1.187500e+02
1.250000e+02
1.312500e+02
1.375000e+02
1.437500e+02
1.500000e+02
1.562500e+02
1.625000e+02
1.687500e+02
1.750000e+02
1.812500e+02
1.875000e+02
1.937500e+02
2.000000e+02
0.000000e+00
6.250000e+00
1.250000e+01
1.875000e+01
2.500000e+01
3.125000e+01
3.750000e+01
4.375000e+01
5.000000e+01
5.625000e+01
6.250000e+01
6.875000e+01
7.500000e+01
8.125000e+01
8.750000e+01
9.375000e+01
1.000000e+02
1.062500e+02
1.125000e+02
1.187500e+02
1.250000e+02
1.312500e+02
1.375000e+02
1.437500e+02
1.500000e+02
1.562500e+02
1.625000e+02
1.687500e+02
1.750000e+02
1.812500e+02
1.875000e+02
1.937500e+02
2.000000e+02
0.000000e+00
6.250000e+00
1.250000e+01
1.875000e+01
2.500000e+01
3.125000e+01
3.750000e+01
4.375000e+01
5.000000e+01
5.625000e+01
6.250000e+01
6.875000e+01
7.500000e+01
8.125000e+01
8.750000e+01
9.375000e+01
1.000000e+02
1.062500e+02
1.125000e+02
1.187500e+02
1.250000e+02
1.312500e+02
1.375000e+02
1.437500e+02
1.500000e+02
1.562500e+02
1.625000e+02
1.687500e+02
1.750000e+02
1.812500e+02
1.875000e+02
1.937500e+02
2.000000e+02
0.000000e+00
6.250000e+00
1.250000e+01
1.875000e+01
2.500000e+01
3.125000e+01
3.750000e+01
4.375000e+01
5.000000e+01
5.625000e+01
6.250000e+01
6.875000e+01
7.500000e+01
8.125000e+01
8.750000e+01
9.375000e+01
1.000000e+02
1.062500e+02
1.125000e+02
1.187500e+02
1.250000e+02
1.312500e+02
1.375000e+02
1.437500e+02
1.500000e+02
1.562500e+02
1.625000e+02
1.687500e+02
1.750000e+02
1.812500e+02
1.875000e+02
1.937500e+02
2.000000e+02
0.000000e+00
6.250000e+00
1.250000e+01
1.875000e+01
2.500000e+01
3.125000e+01
3.750000e+01
4.375000e+01
5.000000e+01
5.625000e+01
6.250000e+01
6.875000e+01
7.500000e+01
8.125000e+01
8.750000e+01
9.375000e+01
1.000000e+02
1.062500e+02
1.125000e+02
1.187500e+02
1.250000e+02
1.312500e+02
1.375000e+02
1.437500e+02
1.500000e+02
1.562500e+02
1.625000e+02
1.687500e+02
1.750000e+02
1.812500e+02
1.875000e+02
1.937500e+02
2.000000e+02
0.000000e+00
6.250000e+00
1.250000e+01
1.875000e+01
2.500000e+01
3.125000e+01
3.750000e+01
4.375000e+01
5.000000e+01
5.625000e+01
6.250000e+01
6.875000e+01
7.500000e+01
8.125000e+01
8.750000e+01
9.375000e+01
1.000000e+02
1.062500e+02
1.125000e+02
1.187500e+02
1.250000e+02
1.312500e+02
1.375000e+02
1.437500e+02
1.500000e+02
1.562500e+02
1.625000e+02
1.687500e+02
1.750000e+02
1.812500e+02
1.875000e+02
1.937500e+02
2.000000e+02
0.000000e+00
6.250000e+00
1.250000e+01
1.875000e+01
2.500000e+01
3.125000e+01
3.750000e+01
4.375000e+01
5.000000e+01
5.625000e+01
6.250000e+01
6.875000e+01
7.500000e+01
8.125000e+01
8.750000e+01
9.375000e+01
1.000000e+02
1.062500e+02
1.125000e+02
1.187500e+02
1.250000e+02
1.312500e+02
1.375000e+02
1.437500e+02
1.500000e+02
1.562500e+02
1.625000e+02
1.687500e+02
1.750000e+02
1.812500e+02
1.875000e+02
1.937500e+02
2.000000e+02
0.000000e+00
0.000000e+00
0.000000e+00
0.000000e+00
0.000000e+00
0.000000e+00
0.000000e+00
0.000000e+00
0.000000e+00
0.000000e+00
0.000000e+00
0.000000e+00
0.000000e+00
0.000000e+00
0.000000e+00
0.000000e+00
0.000000e+00
0.000000e+00
0.000000e+00
0.000000e+00
0.000000e+00
0.000000e+00
0.000000e+00
0.000000e+00
0.000000e+00
0.000000e+00
0.000000e+00
0.000000e+00
0.000000e+00
0.000000e+00
0.000000e+00
0.000000e+00
0.000000e+00
6.250000e+00
6.250000e+00
6.250000e+00
6.250000e+00
6.250000e+00
6.250000e+00
6.250000e+00
6.250000e+00
6.250000e+00
6.250000e+00
6.250000e+00
6.250000e+00
6.250000e+00
6.250000e+00
6.250000e+00
6.250000e+00
6.250000e+00
6.250000e+00
6.250000e+00
6.250000e+00
6.250000e+00
6.250000e+00
6.250000e+00
6.250000e+00
6.250000e+00
6.250000e+00
6.250000e+00
6.250000e+00
6.250000e+00
6.250000e+00
6.250000e+00
6.250000e+00
6.250000e+00
1.250000e+01
1.250000e+01
1.250000e+01
1.250000e+01
1.250000e+01
1.250000e+01
1.250000e+01
1.250000e+01
1.250000e+01
1.250000e+01
1.250000e+01
1.250000e+01
1.250000e+01
1.250000e+01
1.250000e+01
1.250000e+01
1.250000e+01
1.250000e+01
1.250000e+01
1.250000e+01
1.250000e+01
1.250000e+01
1.250000e+01
1.250000e+01
1.250000e+01
1.250000e+01
1.250000e+01
1.250000e+01
1.250000e+01
1.250000e+01
1.250000e+01
1.250000e+01
1.250000e+01
1.875000e+01
1.875000e+01
1.875000e+01
1.875000e+01
1.875000e+01
1.875000e+01
1.875000e+01
1.875000e+01
1.875000e+01
1.875000e+01
1.875000e+01
1.875000e+01
1.875000e+01
1.875000e+01
1.875000e+01
1.875000e+01
1.875000e+01
1.875000e+01
1.875000e+01
1.875000e+01
1.875000e+01
1.875000e+01
1.875000e+01
1.875000e+01
1.875000e+01
1.875000e+01
1.875000e+01
1.875000e+01
1.875000e+01
1.875000e+01
1.875000e+01
1.875000e+01
1.875000e+01
2.500000e+01
2.500000e+01
2.500000e+01
2.500000e+01
2.500000e+01
2.500000e+01
2.500000e+01
2.500000e+01
2.500000e+01
2.500000e+01
2.500000e+01
2.500000e+01
2.500000e+01
2.500000e+01
2.500000e+01
2.500000e+01
2.500000e+01
2.500000e+01
2.500000e+01
2.500000e+01
2.500000e+01
2.500000e+01
2.500000e+01
2.500000e+01
2.500000e+01
2.500000e+01
2.500000e+01
2.500000e+01
2.500000e+01
2.500000e+01
2.500000e+01
2.500000e+01
2.500000e+01
3.125000e+01
3.125000e+01
3.125000e+01
3.125000e+01
3.125000e+01
3.125000e+01
3.125000e+01
3.125000e+01
3.125000e+01
3.125000e+01
3.125000e+01
3.125000e+01
3.125000e+01
3.125000e+01
3.125000e+01
3.125000e+01
3.125000e+01
3.125000e+01
3.125000e+01
3.125000e+01
3.125000e+01
3.125000e+01
3.125000e+01
3.125000e+01
3.125000e+01
3.125000e+01
3.125000e+01
3.125000e+01
3.125000e+01
3.125000e+01
3.125000e+01
3.125000e+01
3.125000e+01
3.750000e+01
3.750000e+01
3.750000e+01
3.750000e+01
3.750000e+01
3.750000e+01
3.750000e+01
3.750000e+01
3.750000e+01
3.750000e+01
3.750000e+01
3.750000e+01
3.750000e+01
3.750000e+01
3.750000e+01
3.750000e+01
3.750000e+01
3.750000e+01
3.750000e+01
3.750000e+01
3.750000e+01
3.750000e+01
3.750000e+01
3.750000e+01
3.750000e+01
3.750000e+01
3.750000e+01
3.750000e+01
3.750000e+01
3.750000e+01
3.750000e+01
3.750000e+01
3.750000e+01
4.375000e+01
4.375000e+01
4.375000e+01
4.375000e+01
4.375000e+01
4.375000e+01
4.375000e+01
4.375000e+01
4.375000e+01
4.375000e+01
4.375000e+01
4.375000e+01
4.375000e+01
4.375000e+01
4.375000e+01
4.375000e+01
4.375000e+01
4.375000e+01
4.375000e+01
4.375000e+01
4.375000e+01
4.375000e+01
4.375000e+01
4.375000e+01
4.375000e+01
4.375000e+01
4.375000e+01
4.375000e+01
4.375000e+01
4.375000e+01
4.375000e+01
4.375000e+01
4.375000e+01
5.000000e+01
5.000000e+01
5.000000e+01
5.000000e+01
5.000000e+01
5.000000e+01
5.000000e+01
5.000000e+01
5.000000e+01
5.000000e+01
5.000000e+01
5.000000e+01
5.000000e+01
5.000000e+01
5.000000e+01
5.000000e+01
5.000000e+01
5.000000e+01
5.000000e+01
5.000000e+01
5.000000e+01
5.000000e+01
5.000000e+01
5.000000e+01
5.000000e+01
5.000000e+01
5.000000e+01
5.000000e+01
5.000000e+01
5.000000e+01
5.000000e+01
5.000000e+01
5.000000e+01
5.625000e+01
5.625000e+01
5.625000e+01
5.625000e+01
5.625000e+01
5.625000e+01
5.625000e+01
5.625000e+01
5.625000e+01
5.625000e+01
5.625000e+01
5.625000e+01
5.625000e+01
5.625000e+01
5.625000e+01
5.625000e+01
5.625000e+01
5.625000e+01
5.625000e+01
5.625000e+01
5.625000e+01
5.625000e+01
5.625000e+01
5.625000e+01
5.625000e+01
5.625000e+01
5.625000e+01
5.625000e+01
5.625000e+01
5.625000e+01
5.625000e+01
5.625000e+01
5.625000e+01
6.250000e+01
6.250000e+01
6.250000e+01
6.250000e+01
6.250000e+01
6.250000e+01
6.250000e+01
6.250000e+01
6.250000e+01
6.250000e+01
6.250000e+01
6.250000e+01
6.250000e+01
6.250000e+01
6.250000e+01
6.250000e+01
6.250000e+01
6.250000e+01
6.250000e+01
6.250000e+01
6.250000e+01
6.250000e+01
6.250000e+01
6.250000e+01
6.250000e+01
6.250000e+01
6.250000e+01
6.250000e+01
6.250000e+01
6.250000e+01
6.250000e+01
6.250000e+01
6.250000e+01
6.875000e+01
6.875000e+01
6.875000e+01
6.875000e+01
6.875000e+01
6.875000e+01
6.875000e+01
6.875000e+01
6.875000e+01
6.875000e+01
6.875000e+01
6.875000e+01
6.875000e+01
6.875000e+01
6.875000e+01
6.875000e+01
6.875000e+01
6.875000e+01
6.875000e+01
6.875000e+01
6.875000e+01
6.875000e+01
6.875000e+01
6.875000e+01
6.875000e+01
6.875000e+01
6.875000e+01
6.875000e+01
6.875000e+01
6.875000e+01
6.875000e+01
6.875000e+01
6.875000e+01
7.500000e+01
7.500000e+01
7.500000e+01
7.500000e+01
7.500000e+01
7.500000e+01
7.500000e+01
7.500000e+01
7.500000e+01
7.500000e+01
7.500000e+01
7.500000e+01
7.500000e+01
7.500000e+01
7.500000e+01
7.500000e+01
7.500000e+01
7.500000e+01
7.500000e+01
7.500000e+01
7.500000e+01
7.500000e+01
7.500000e+01
7.500000e+01
7.500000e+01
7.500000e+01
7.500000e+01
7.500000e+01
7.500000e+01
7.500000e+01
7.500000e+01
7.500000e+01
7.500000e+01
8.125000e+01
8.125000e+01
8.125000e+01
8.125000e+01
8.125000e+01
8.125000e+01
8.125000e+01
8.125000e+01
8.125000e+01
8.125000e+01
8.125000e+01
8.125000e+01
8.125000e+01
8.125000e+01
8.125000e+01
8.125000e+01
8.125000e+01
8.125000e+01
8.125000e+01
8.125000e+01
8.125000e+01
8.125000e+01
8.125000e+01
8.125000e+01
8.125000e+01
8.125000e+01
8.125000e+01
8.125000e+01
8.125000e+01
8.125000e+01
8.125000e+01
8.125000e+01
8.125000e+01
8.750000e+01
8.750000e+01
8.750000e+01
8.750000e+01
8.750000e+01
8.750000e+01
8.750000e+01
8.750000e+01
8.750000e+01
8.750000e+01
8.750000e+01
8.750000e+01
8.750000e+01
8.750000e+01
8.750000e+01
8.750000e+01
8.750000e+01
8.750000e+01
8.750000e+01
8.750000e+01
8.750000e+01
8.750000e+01
8.750000e+01
8.750000e+01
8.750000e+01
8.750000e+01
8.750000e+01
8.750000e+01
8.750000e+01
8.750000e+01
8.750000e+01
8.750000e+01
8.750000e+01
9.375000e+01
9.375000e+01
9.375000e+01
9.375000e+01
9.375000e+01
9.375000e+01
9.375000e+01
9.375000e+01
9.375000e+01
9.375000e+01
9.375000e+01
9.375000e+01
9.375000e+01
9.375000e+01
9.375000e+01
9.375000e+01
9.375000e+01
9.375000e+01
9.375000e+01
9.375000e+01
9.375000e+01
9.375000e+01
9.375000e+01
9.375000e+01
9.375000e+01
9.375000e+01
9.375000e+01
9.375000e+01
9.375000e+01
9.375000e+01
9.375000e+01
9.375000e+01
9.375000e+01
1.000000e+02
1.000000e+02
1.000000e+02
1.000000e+02
1.000000e+02
1.000000e+02
1.000000e+02
1.000000e+02
1.000000e+02
1.000000e+02
1.000000e+02
1.000000e+02
1.000000e+02
1.000000e+02
1.000000e+02
1.000000e+02
1.000000e+02
1.000000e+02
1.000000e+02
1.000000e+02
1.000000e+02
1.000000e+02
1.000000e+02
1.000000e+02
1.000000e+02
1.000000e+02
1.000000e+02
1.000000e+02
1.000000e+02
1.000000e+02
1.000000e+02
1.000000e+02
1.000000e+02
0.000000e+00
-8.736278e-02
-1.585077e-01
-2.244142e-01
-2.876675e-01
-3.487493e-01
-4.077821e-01
-4.647604e-01
-5.196482e-01
-5.724053e-01
-6.229988e-01
-6.714056e-01
-7.176138e-01
-7.616224e-01
-8.034417e-01
-8.430935e-01
-8.806135e-01
-9.160530e-01
-9.494834e-01
-9.810008e-01
-1.010733e+00
-1.038850e+00
-1.065576e+00
-1.091207e+00
-1.116142e+00
-1.140922e+00
-1.166298e+00
-1.193342e+00
-1.223626e+00
-1.259462e+00
-1.303852e+00
-1.356752e+00
-1.389036e+00
0.000000e+00
-5.857381e-02
-1.218689e-01
-1.815485e-01
-2.382731e-01
-2.925826e-01
-3.447635e-01
-3.949412e-01
-4.431656e-01
-4.894528e-01
-5.338057e-01
-5.762243e-01
-6.167105e-01
-6.552709e-01
-6.919181e-01
-7.266725e-01
-7.595636e-01
-7.906320e-01
-8.199315e-01
-8.475319e-01
-8.735226e-01
-8.980158e-01
-9.211511e-01
-9.430991e-01
-9.640639e-01
-9.842801e-01
-1.003995e+00
-1.023414e+00
-1.042534e+00
-1.060734e+00
-1.075899e+00
-1.084765e+00
-1.097108e+00
0.000000e+00
-4.646055e-02
-9.565022e-02
-1.457338e-01
-1.944007e-01
-2.412752e-01
-2.863271e-01
-3.295989e-01
-3.711286e-01
-4.109425e-01
-4.490572e-01
-4.854846e-01
-5.202347e-01
-5.533176e-01
-5.847457e-01
-6.145340e-01
-6.427020e-01
-6.692738e-01
-6.942793e-01
-7.177542e-01
-7.397393e-01
-7.602794e-01
-7.794180e-01
-7.971891e-01
-8.135997e-01
-8.285973e-01
-8.420102e-01
-8.534437e-01
-8.621245e-01
-8.667989e-01
-8.663894e-01
-8.637649e-01
-8.781781e-01
0.000000e+00
-3.686232e-02
-7.576052e-02
-1.157241e-01
-1.555949e-01
-1.945006e-01
-2.321082e-01
-2.682978e-01
-3.030371e-01
-3.363245e-01
-3.681685e-01
-3.985798e-01
-4.275684e-01
-4.551434e-01
-4.813130e-01
-5.060845e-01
-5.294646e-01
-5.514594e-01
-5.720732e-01
-5.913073e-01
-6.091567e-01
-6.256050e-01
-6.406159e-01
-6.541193e-01
-6.659907e-01
-6.760204e-01
-6.838766e-01
-6.890792e-01
-6.910657e-01
-6.895913e-01
-6.860101e-01
-6.857963e-01
-6.995286e-01
0.000000e+00
-2.861044e-02
-5.858447e-02
-8.951634e-02
-1.207000e-01
-1.515018e-01
-1.814966e-01
-2.104693e-01
-2.383219e-01
-2.650167e-01
-2.905437e-01
-3.149043e-01
-3.381030e-01
-3.601437e-01
-3.810277e-01
-4.007531e-01
-4.193138e-01
-4.366985e-01
-4.528893e-01
-4.678590e-01
-4.815675e-01
-4.939560e-01
-5.049398e-01
-5.143983e-01
-5.221644e-01
-5.280182e-01
-5.317019e-01
-5.329942e-01
-5.319342e-01
-5.293404e-01
-5.276576e-01
-5.315436e-01
-5.432579e-01
0.000000e+00
-2.102711e-02
-4.295514e-02
-6.558786e-02
-8.853430e-02
-1.113662e-01
-1.337435e-01
-1.554451e-01
-1.763497e-01
-1.963982e-01
-2.155657e-01
-2.338433e-01
-2.512279e-01
-2.677164e-01
-2.833024e-01
-2.979749e-01
-3.117163e-01
-3.245016e-01
-3.362963e-01
-3.470540e-01
-3.567143e-01
-3.651987e-01
-3.724082e-01
-3.782218e-01
-3.825014e-01
-3.851128e-01
-3.859792e-01
-3.852018e-01
-3.832856e-01
-3.814624e-01
-3.819062e-01
-3.868601e-01
-3.965531e-01
0.000000e+00
-1.383842e-02
-2.822424e-02
-4.306654e-02
-5.815372e-02
-7.323188e-02
-8.807362e-02
-1.025132e-01
-1.164469e-01
-1.298174e-01
-1.425957e-01
-1.547673e-01
-1.663229e-01
-1.772527e-01
-1.875436e-01
-1.971768e-01
-2.061261e-01
-2.143573e-01
-2.218261e-01
-2.284775e-01
-2.342448e-01
-2.390496e-01
-2.428046e-01
-2.454213e-01
-2.468273e-01
-2.470018e-01
-2.460405e-01
-2.442616e-01
-2.423421e-01
-2.414116e-01
-2.428632e-01
-2.476864e-01
-2.555108e-01
0.000000e+00
-6.873554e-03
-1.400699e-02
-2.136367e-02
-2.885072e-02
-3.634988e-02
-4.374883e-02
-5.095969e-02
-5.792306e-02
-6.460265e-02
-7.097694e-02
-7.703170e-02
-8.275452e-02
-8.813121e-02
-9.314342e-02
-9.776707e-02
-1.019711e-01
-1.057168e-01
-1.089570e-01
-1.116365e-01
-1.136933e-01
-1.150625e-01
-1.156827e-01
-1.155102e-01
-1.145416e-01
-1.128508e-01
-1.106424e-01
-1.083155e-01
-1.065091e-01
-1.060565e-01
-1.077597e-01
-1.119672e-01
-1.181758e-01
0.000000e+00
-1.109378e-05
-2.405415e-05
-3.816328e-05
-5.267912e-05
-6.660109e-05
-7.842132e-05
-8.584844e-05
-8.548483e-05
-7.243807e-05
-3.985191e-05
2.165164e-05
1.246180e-04
2.854794e-04
5.253139e-04
8.705768e-04
1.353694e-03
2.013329e-03
2.894042e-03
4.044886e-03
5.516295e-03
7.354302e-03
9.590793e-03
1.222819e-02
1.521710e-02
1.842659e-02
2.161093e-02
2.438526e-02
2.623726e-02
2.661288e-02
2.510070e-02
2.167605e-02
1.687963e-02
0.000000e+00
6.852659e-03
1.396159e-02
2.129150e-02
2.875086e-02
3.622327e-02
4.359920e-02
5.079503e-02
5.775770e-02
6.446007e-02
7.089348e-02
7.706130e-02
8.297469e-02
8.865042e-02
9.410991e-02
9.937909e-02
1.044884e-01
1.094725e-01
1.143694e-01
1.192182e-01
1.240552e-01
1.289070e-01
1.337805e-01
1.386487e-01
1.434324e-01
1.479806e-01
1.520553e-01
1.553326e-01
1.574384e-01
1.580346e-01
1.569549e-01
1.543534e-01
1.507935e-01
0.000000e+00
1.382135e-02
2.818689e-02
4.300674e-02
5.807034e-02
7.312518e-02
8.794605e-02
1.023706e-01
1.163001e-01
1.296846e-01
1.425055e-01
1.547625e-01
1.664656e-01
1.776304e-01
1.882765e-01
1.984266e-01
2.081061e-01
2.173425e-01
2.261646e-01
2.345996e-01
2.426694e-01
2.503842e-01
2.577336e-01
2.646751e-01
2.711214e-01
2.769297e-01
2.818979e-01
2.857782e-01
2.883180e-01
2.893334e-01
2.888113e-01
2.870112e-01
2.845266e-01
0.000000e+00
2.101622e-02
4.293088e-02
6.554834e-02
8.847820e-02
1.112930e-01
1.336539e-01
1.553420e-01
1.762390e-01
1.962906e-01
2.154783e-01
2.338024e-01
2.512725e-01
2.679019e-01
2.837064e-01
2.987026e-01
3.129082e-01
3.263413e-01
3.390190e-01
3.509560e-01
3.621605e-01
3.726301e-01
3.823444e-01
3.912576e-01
3.992908e-01
4.063274e-01
4.122158e-01
4.167858e-01
4.198850e-01
4.214379e-01
4.215253e-01
4.204693e-01
4.188990e-01
0.000000e+00
2.860773e-02
5.857770e-02
8.950422e-02
1.206813e-01
1.514754e-01
1.814619e-01
2.104261e-01
2.382711e-01
2.649606e-01
2.904867e-01
3.148537e-01
3.380703e-01
3.601463e-01
3.810908e-01
4.009124e-01
4.196185e-01
4.372152e-01
4.537067e-01
4.690939e-01
4.833720e-01
4.965280e-01
5.085364e-01
5.193558e-01
5.289254e-01
5.371649e-01
5.439799e-01
5.492764e-01
5.529884e-01
5.551210e-01
5.558128e-01
5.554163e-01
5.545891e-01
0.000000e+00
3.686916e-02
7.577443e-02
1.157448e-01
1.556217e-01
1.945329e-01
2.321448e-01
2.683369e-01
3.030757e-01
3.363579e-01
3.681894e-01
3.985776e-01
4.275280e-01
4.550438e-01
4.811255e-01
5.057708e-01
5.289752e-01
5.507310e-01
5.710274e-01
5.898499e-01
6.071798e-01
6.229926e-01
6.372584e-01
6.499413e-01
6.610006e-01
6.703951e-01
6.780894e-01
6.840662e-01
6.883437e-01
6.910020e-01
6.922248e-01
6.923706e-01
6.920961e-01
0.000000e+00
4.647727e-02
9.568589e-02
1.457897e-01
1.944779e-01
2.413745e-01
2.864488e-01
3.297415e-01
3.712881e-01
4.111107e-01
4.492196e-01
4.856180e-01
5.203032e-01
5.532687e-01
5.845040e-01
6.139950e-01
6.417235e-01
6.676668e-01
6.917974e-01
7.140831e-01
7.344875e-01
7.529707e-01
7.694926e-01
7.840161e-01
7.965138e-01
8.069760e-01
8.154217e-01
8.219104e-01
8.265544e-01
8.295287e-01
8.310855e-01
8.315926e-01
8.316531e-01
0.000000e+00
5.859891e-02
1.219237e-01
1.816367e-01
2.383990e-01
2.927505e-01
3.449770e-01
3.952025e-01
4.434736e-01
4.898012e-01
5.341802e-01
5.765982e-01
6.170392e-01
6.554846e-01
6.919124e-01
7.262967e-01
7.586060e-01
7.888024e-01
8.168404e-01
8.426671e-01
8.662229e-01
8.874444e-01
9.062688e-01
9.226423e-01
9.365308e-01
9.479351e-01
9.569090e-01
9.635789e-01
9.681607e-01
9.709682e-01
9.724026e-01
9.729226e-01
9.730500e-01
0.000000e+00
8.739025e-02
1.585718e-01
2.245241e-01
2.878318e-01
3.489773e-01
4.080829e-01
4.651428e-01
5.201192e-01
5.729678e-01
6.236479e-01
6.721242e-01
7.183653e-01
7.623418e-01
8.040228e-01
8.433735e-01
8.803519e-01
9.149065e-01
9.469742e-01
9.764788e-01
1.003332e+00
1.027434e+00
1.048682e+00
1.066978e+00
1.082247e+00
1.094458e+00
1.103655e+00
1.109991e+00
1.113767e+00
1.115469e+00
1.115778e+00
1.115522e+00
1.115378e+00
0.000000e+00
-5.398860e-02
-9.422277e-02
-1.381289e-01
-1.870213e-01
-2.422502e-01
-3.041995e-01
-3.729769e-01
-4.485138e-01
-5.306486e-01
-6.191635e-01
-7.138082e-01
-8.143125e-01
-9.203954e-01
-1.031770e+00
-1.148147e+00
-1.269240e+00
-1.394766e+00
-1.524453e+00
-1.658044e+00
-1.795307e+00
-1.936045e+00
-2.080119e+00
-2.227474e+00
-2.378183e+00
-2.532525e+00
-2.691113e+00
-2.855146e+00
-3.026912e+00
-3.210946e+00
-3.417031e+00
-3.668248e+00
-4.015311e+00
0.000000e+00
-3.355193e-02
-7.566649e-02
-1.198684e-01
-1.694419e-01
-2.252705e-01
-2.878215e-01
-3.572006e-01
-4.333453e-01
-5.160939e-01
-6.052273e-01
-7.004933e-01
-8.016194e-01
-9.083220e-01
-1.020312e+00
-1.137297e+00
-1.258986e+00
-1.385094e+00
-1.515342e+00
-1.649467e+00
-1.787228e+00
-1.928420e+00
-2.072890e+00
-2.220567e+00
-2.371504e+00
-2.525954e+00
-2.684499e+00
-2.848300e+00
-3.019597e+00
-3.202851e+00
-3.407344e+00
-3.652969e+00
-3.977215e+00
0.000000e+00
-2.464593e-02
-6.100227e-02
-1.046010e-01
-1.542608e-01
-2.105005e-01
-2.735449e-01
-3.434526e-01
-4.201395e-01
-5.034361e-01
-5.931198e-01
-6.889362e-01
-7.906118e-01
-8.978619e-01
-1.010396e+00
-1.127921e+00
-1.250145e+00
-1.376780e+00
-1.507546e+00
-1.642177e+00
-1.780432e+00
-1.922103e+00
-2.067036e+00
-2.215162e+00
-2.366541e+00
-2.521441e+00
-2.680470e+00
-2.844816e+00
-3.016694e+00
-3.200120e+00
-3.401953e+00
-3.630298e+00
-3.883599e+00
0.000000e+00
-1.973566e-02
-5.165696e-02
-9.293071e-02
-1.419521e-01
-1.981741e-01
-2.614880e-01
-3.317871e-01
-4.089202e-01
-4.926864e-01
-5.828492e-01
-6.791477e-01
-7.813061e-01
-8.890393e-01
-1.002057e+00
-1.120067e+00
-1.242778e+00
-1.369903e+00
-1.501164e+00
-1.636297e+00
-1.775064e+00
-1.917262e+00
-2.062745e+00
-2.211455e+00
-2.363467e+00
-2.519061e+00
-2.678839e+00
-2.843897e+00
-3.016046e+00
-3.197934e+00
-3.392091e+00
-3.596866e+00
-3.787490e+00
0.000000e+00
-1.669992e-02
-4.554556e-02
-8.464352e-02
-1.325473e-01
-1.884005e-01
-2.517381e-01
-3.222654e-01
-3.997280e-01
-4.838724e-01
-5.744358e-01
-6.711452e-01
-7.737199e-01
-8.818738e-01
-9.953177e-01
-1.113762e+00
-1.236917e+00
-1.364500e+00
-1.496237e+00
-1.631869e+00
-1.771161e+00
-1.913917e+00
-2.059999e+00
-2.209351e+00
-2.362043e+00
-2.518321e+00
-2.678674e+00
-2.843893e+00
-3.015020e+00
-3.192893e+00
-3.376666e+00
-3.559589e+00
-3.725602e+00
0.000000e+00
-1.476827e-02
-4.153577e-02
-7.894070e-02
-1.257661e-01
-1.810960e-01
-2.442957e-01
-3.149132e-01
-3.925926e-01
-4.770204e-01
-5.679012e-01
-6.649459e-01
-7.678670e-01
-8.763769e-01
-9.901880e-01
-1.109013e+00
-1.232568e+00
-1.360572e+00
-1.492756e+00
-1.628866e+00
-1.768670e+00
-1.911973e+00
-2.058632e+00
-2.208576e+00
-2.361832e+00
-2.518547e+00
-2.678997e+00
-2.843530e+00
-3.012335e+00
-3.184843e+00
-3.358426e+00
-3.526881e+00
-3.680847e+00
0.000000e+00
-1.356777e-02
-3.900059e-02
-7.523378e-02
-1.212232e-01
-1.760763e-01
-2.390882e-01
-3.097145e-01
-3.875219e-01
-4.721459e-01
-5.632607e-01
-6.605616e-01
-7.637545e-01
-8.725505e-01
-9.866637e-01
-1.105810e+00
-1.229709e+00
-1.358085e+00
-1.490670e+00
-1.627213e+00
-1.767479e+00
-1.911267e+00
-2.058413e+00
-2.208807e+00
-2.362397e+00
-2.519185e+00
-2.679186e+00
-2.842307e+00
-3.008078e+00
-3.175151e+00
-3.340633e+00
-3.499755e+00
-3.646668e+00
0.000000e+00
-1.290807e-02
-3.759388e-02
-7.314485e-02
-1.186183e-01
-1.731524e-01
-2.360197e-01
-3.066303e-01
-3.845070e-01
-4.692524e-01
-5.605204e-01
-6.579960e-01
-7.613809e-01
-8.703862e-01
-9.847281e-01
-1.104126e+00
-1.228302e+00
-1.356983e+00
-1.489903e+00
-1.626807e+00
-1.767453e+00
-1.911621e+00
-2.059114e+00
-2.209762e+00
-2.363415e+00
-2.519914e+00
-2.679028e+00
-2.840324e+00
-3.002941e+00
-3.165280e+00
-3.324732e+00
-3.477709e+00
-3.620222e+00
0.000000e+00
-1.269551e-02
-3.714004e-02
-7.246781e-02
-1.177693e-01
-1.721954e-01
-2.350145e-01
-3.056241e-01
-3.835335e-01
-4.683355e-01
-5.596784e-01
-6.572447e-01
-7.607367e-01
-8.698673e-01
-9.843555e-01
-1.103923e+00
-1.228296e+00
-1.357200e+00
-1.490369e+00
-1.627539e+00
-1.768455e+00
-1.912871e+00
-2.060547e+00
-2.211244e+00
-2.364708e+00
-2.520634e+00
-2.678597e+00
-2.837948e+00
-2.997656e+00
-3.156147e+00
-3.311217e+00
-3.460127e+00
-3.599954e+00
0.000000e+00
-1.290192e-02
-3.758535e-02
-7.313750e-02
-1.186161e-01
-1.731602e-01
-2.360439e-01
-3.066796e-01
-3.845926e-01
-4.693891e-01
-5.607274e-01
-6.582972e-01
-7.618060e-01
-8.709710e-01
-9.855143e-01
-1.105161e+00
-1.229636e+00
-1.358667e+00
-1.491981e+00
-1.629306e+00
-1.770368e+00
-1.914889e+00
-2.062583e+00
-2.213143e+00
-2.366221e+00
-2.521391e+00
-2.678098e+00
-2.835578e+00
-2.992770e+00
-3.148243e+00
-3.300179e+00
-3.446458e+00
-3.584848e+00
0.000000e+00
-1.355596e-02
-3.898422e-02
-7.521961e-02
-1.212188e-01
-1.760910e-01
-2.391343e-01
-3.098084e-01
-3.876855e-01
-4.724075e-01
-5.636570e-01
-6.611386e-01
-7.645692e-01
-8.736718e-01
-9.881719e-01
-1.107796e+00
-1.232271e+00
-1.361321e+00
-1.494666e+00
-1.632023e+00
-1.773099e+00
-1.917584e+00
-2.065147e+00
-2.215419e+00
-2.367975e+00
-2.522300e+00
-2.677760e+00
-2.833546e+00
-2.988639e+00
-3.141789e+00
-3.291522e+00
-3.436205e+00
-3.574125e+00
0.000000e+00
-1.475187e-02
-4.151301e-02
-7.892092e-02
-1.257597e-01
-1.811161e-01
-2.443595e-01
-3.150437e-01
-3.928202e-01
-4.773851e-01
-5.684542e-01
-6.657518e-01
-7.690058e-01
-8.779450e-01
-9.922985e-01
-1.111794e+00
-1.236157e+00
-1.365109e+00
-1.498364e+00
-1.635627e+00
-1.776584e+00
-1.920900e+00
-2.068203e+00
-2.218074e+00
-2.370027e+00
-2.523490e+00
-2.677781e+00
-2.832090e+00
-2.985468e+00
-3.136846e+00
-3.285058e+00
-3.428891e+00
-3.567096e+00
0.000000e+00
-1.668060e-02
-4.551877e-02
-8.462021e-02
-1.325399e-01
-1.884248e-01
-2.518150e-01
-3.224228e-01
-4.000028e-01
-4.843129e-01
-5.751040e-01
-6.721195e-01
-7.750971e-01
-8.837707e-01
-9.978714e-01
-1.117128e+00
-1.241263e+00
-1.369997e+00
-1.503037e+00
-1.640076e+00
-1.780786e+00
-1.924809e+00
-2.071741e+00
-2.221127e+00
-2.372439e+00
-2.525066e+00
-2.678303e+00
-2.831355e+00
-2.983349e+00
-3.133376e+00
-3.280547e+00
-3.424035e+00
-3.563073e+00
0.000000e+00
-1.971580e-02
-5.162945e-02
-9.290701e-02
-1.419457e-01
-1.982026e-01
-2.615746e-01
-3.319628e-01
-4.092258e-01
-4.931754e-01
-5.835899e-01
-6.802267e-01
-7.828301e-01
-8.911370e-01
-1.004879e+00
-1.123785e+00
-1.247577e+00
-1.375970e+00
-1.508667e+00
-1.645354e+00
-1.785691e+00
-1.929303e+00
-2.075766e+00
-2.224600e+00
-2.375251e+00
-2.527087e+00
-2.679394e+00
-2.831395e+00
-2.982280e+00
-3.131272e+00
-3.277711e+00
-3.421136e+00
-3.561320e+00
0.000000e+00
-2.462862e-02
-6.097818e-02
-1.045810e-01
-1.542589e-01
-2.105352e-01
-2.736406e-01
-3.436416e-01
-4.204643e-01
-5.039519e-01
-5.938976e-01
-6.900649e-01
-7.922012e-01
-9.000439e-01
-1.013325e+00
-1.131771e+00
-1.255103e+00
-1.383034e+00
-1.515263e+00
-1.651470e+00
-1.791309e+00
-1.934393e+00
-2.080290e+00
-2.228505e+00
-2.378473e+00
-2.529553e+00
-2.681035e+00
-2.832159e+00
-2.982160e+00
-3.130351e+00
-3.276240e+00
-3.419679e+00
-3.561013e+00
0.000000e+00
-3.354081e-02
-7.565010e-02
-1.198566e-01
-1.694491e-01
-2.253157e-01
-2.879293e-01
-3.574034e-01
-4.336855e-01
-5.166263e-01
-6.060217e-01
-7.016370e-01
-8.032194e-01
-9.105062e-01
-1.023228e+00
-1.141111e+00
-1.263873e+00
-1.391225e+00
-1.522864e+00
-1.658466e+00
-1.797680e+00
-1.940116e+00
-2.085338e+00
-2.232848e+00
-2.382081e+00
-2.532401e+00
-2.683109e+00
-2.833466e+00
-2.982744e+00
-3.130308e+00
-3.275761e+00
-3.419152e+00
-3.561274e+00
0.000000e+00
-5.398702e-02
-9.421731e-02
-1.381299e-01
-1.870433e-01
-2.423123e-01
-3.043263e-01
-3.732004e-01
-4.488756e-01
-5.312019e-01
-6.199756e-01
-7.149622e-01
-8.159093e-01
-9.225539e-01
-1.034626e+00
-1.151849e+00
-1.273940e+00
-1.400607e+00
-1.531542e+00
-1.666419e+00
-1.804884e+00
-1.946546e+00
-2.090965e+00