TITLE = "Solution"
VARIABLES = x, y, u, v, psiu, psiv, t, stress
ZONE T="structure" N=561 E=512 F=FEBLOCK ET=QUADRILATERAL VARLOCATION=([7,8]=cellcentered)
0.000000e+00
6.250000e+00
1.250000e+01
1.875000e+01
2.500000e+01
3.125000e+01
3.750000e+01
4.375000e+01
5.000000e+01
5.625000e+01
6.250000e+01
6.875000e+01
7.500000e+01
8.125000e+01
8.750000e+01
9.375000e+01
1.000000e+02
1.062500e+02
1.125000e+02
1.187500e+02
1.250000e+02
1.312500e+02
1.375000e+02
1.437500e+02
1.500000e+02
1.562500e+02
1.625000e+02
1.687500e+02
1.750000e+02
1.812500e+02
1.875000e+02
1.937500e+02
2.000000e+02
0.000000e+00
6.250000e+00
1.250000e+01
1.875000e+01
2.500000e+01
3.125000e+01
3.750000e+01
4.375000e+01
5.000000e+01
5.625000e+01
6.250000e+01
6.875000e+01
7.500000e+01
8.125000e+01
8.750000e+01
9.375000e+01
1.000000e+02
1.062500e+02
1.125000e+02
1.187500e+02
1.250000e+02
1.312500e+02
1.375000e+02
1.437500e+02
1.500000e+02
1.562500e+02
1.625000e+02
1.687500e+02
1.750000e+02
1.812500e+02
1.875000e+02
1.937500e+02
2.000000e+02
0.000000e+00
6.250000e+00
1.250000e+01
1.875000e+01
2.500000e+01
3.125000e+01
3.750000e+01
4.375000e+01
5.000000e+01
5.625000e+01
6.250000e+01
6.875000e+01
7.500000e+01
8.125000e+01
8.750000e+01
9.375000e+01
1.000000e+02
1.062500e+02
1.125000e+02
1.187500e+02
1.250000e+02
1.312500e+02
1.375000e+02
1.437500e+02
1.500000e+02
1.562500e+02
1.625000e+02
1.687500e+02
1.750000e+02
1.812500e+02
1.875000e+02
1.937500e+02
2.000000e+02
0.000000e+00
6.250000e+00
1.250000e+01
1.875000e+01
2.500000e+01
3.125000e+01
3.750000e+01
4.375000e+01
5.000000e+01
5.625000e+01
6.250000e+01
6.875000e+01
7.500000e+01
8.125000e+01
8.750000e+01
9.375000e+01
1.000000e+02
1.062500e+02
1.125000e+02
1.187500e+02
1.250000e+02
1.312500e+02
1.375000e+02
1.437500e+02
1.500000e+02
1.562500e+02
1.625000e+02
1.687500e+02
1.750000e+02
1.812500e+02
1.875000e+02
1.937500e+02
2.000000e+02
0.000000e+00
6.250000e+00
1.250000e+01
1.875000e+01
2.500000e+01
3.125000e+01
3.750000e+01
4.375000e+01
5.000000e+01
5.625000e+01
6.250000e+01
6.875000e+01
7.500000e+01
8.125000e+01
8.750000e+01
9.375000e+01
1.000000e+02
1.062500e+02
1.125000e+02
1.187500e+02
1.250000e+02
1.312500e+02
1.375000e+02
1.437500e+02
1.500000e+02
1.562500e+02
1.625000e+02
1.687500e+02
1.750000e+02
1.812500e+02
1.875000e+02
1.937500e+02
2.000000e+02
0.000000e+00
6.250000e+00
1.250000e+01
1.875000e+01
2.500000e+01
3.125000e+01
3.750000e+01
4.375000e+01
5.000000e+01
5.625000e+01
6.250000e+01
6.875000e+01
7.500000e+01
8.125000e+01
8.750000e+01
9.375000e+01
1.000000e+02
1.062500e+02
1.125000e+02
1.187500e+02
1.250000e+02
1.312500e+02
1.375000e+02
1.437500e+02
1.500000e+02
1.562500e+02
1.625000e+02
1.687500e+02
1.750000e+02
1.812500e+02
1.875000e+02
1.937500e+02
2.000000e+02
0.000000e+00
6.250000e+00
1.250000e+01
1.875000e+01
2.500000e+01
3.125000e+01
3.750000e+01
4.375000e+01
5.000000e+01
5.625000e+01
6.250000e+01
6.875000e+01
7.500000e+01
8.125000e+01
8.750000e+01
9.375000e+01
1.000000e+02
1.062500e+02
1.125000e+02
1.187500e+02
1.250000e+02
1.312500e+02
1.375000e+02
1.437500e+02
1.500000e+02
1.562500e+02
1.625000e+02
1.687500e+02
1.750000e+02
1.812500e+02
1.875000e+02
1.937500e+02
2.000000e+02
0.000000e+00
6.250000e+00
1.250000e+01
1.875000e+01
2.500000e+01
3.125000e+01
3.750000e+01
4.375000e+01
5.000000e+01
5.625000e+01
6.250000e+01
6.875000e+01
7.500000e+01
8.125000e+01
8.750000e+01
9.375000e+01
1.000000e+02
1.062500e+02
1.125000e+02
1.187500e+02
1.250000e+02
1.312500e+02
1.375000e+02
1.437500e+02
1.500000e+02
1.562500e+02
1.625000e+02
1.687500e+02
1.750000e+02
1.812500e+02
1.875000e+02
1.937500e+02
2.000000e+02
0.000000e+00
6.250000e+00
1.250000e+01
1.875000e+01
2.500000e+01
3.125000e+01
3.750000e+01
4.375000e+01
5.000000e+01
5.625000e+01
6.250000e+01
6.875000e+01
7.500000e+01
8.125000e+01
8.750000e+01
9.375000e+01
1.000000e+02
1.062500e+02
1.125000e+02
1.187500e+02
1.250000e+02
1.312500e+02
1.375000e+02
1.437500e+02
1.500000e+02
1.562500e+02
1.625000e+02
1.687500e+02
1.750000e+02
1.812500e+02
1.875000e+02
1.937500e+02
2.000000e+02
0.000000e+00
6.250000e+00
1.250000e+01
1.875000e+01
2.500000e+01
3.125000e+01
3.750000e+01
4.375000e+01
5.000000e+01
5.625000e+01
6.250000e+01
6.875000e+01
7.500000e+01
8.125000e+01
8.750000e+01
9.375000e+01
1.000000e+02
1.062500e+02
1.125000e+02
1.187500e+02
1.250000e+02
1.312500e+02
1.375000e+02
1.437500e+02
1.500000e+02
1.562500e+02
1.625000e+02
1.687500e+02
1.750000e+02
1.812500e+02
1.875000e+02
1.937500e+02
2.000000e+02
0.000000e+00
6.250000e+00
1.250000e+01
1.875000e+01
2.500000e+01
3.125000e+01
3.750000e+01
4.375000e+01
5.000000e+01
5.625000e+01
6.250000e+01
6.875000e+01
7.500000e+01
8.125000e+01
8.750000e+01
9.375000e+01
1.000000e+02
1.062500e+02
1.125000e+02
1.187500e+02
1.250000e+02
1.312500e+02
1.375000e+02
1.437500e+02
1.500000e+02
1.562500e+02
1.625000e+02
1.687500e+02
1.750000e+02
1.812500e+02
1.875000e+02
1.937500e+02
2.000000e+02
0.000000e+00
6.250000e+00
1.250000e+01
1.875000e+01
2.500000e+01
3.125000e+01
3.750000e+01
4.375000e+01
5.000000e+01
5.625000e+01
6.250000e+01
6.875000e+01
7.500000e+01
8.125000e+01
8.750000e+01
9.375000e+01
1.000000e+02
1.062500e+02
1.125000e+02
1.187500e+02
1.250000e+02
1.312500e+02
1.375000e+02
1.437500e+02
1.500000e+02
1.562500e+02
1.625000e+02
1.687500e+02
1.750000e+02
1.812500e+02
1.875000e+02
1.937500e+02
2.000000e+02
0.000000e+00
6.250000e+00
1.250000e+01
1.875000e+01
2.500000e+01
3.125000e+01
3.750000e+01
4.375000e+01
5.000000e+01
5.625000e+01
6.250000e+01
6.875000e+01
7.500000e+01
8.125000e+01
8.750000e+01
9.375000e+01
1.000000e+02
1.062500e+02
1.125000e+02
1.187500e+02
1.250000e+02
1.312500e+02
1.375000e+02
1.437500e+02
1.500000e+02
1.562500e+02
1.625000e+02
1.687500e+02
1.750000e+02
1.812500e+02
1.875000e+02
1.937500e+02
2.000000e+02
0.000000e+00
6.250000e+00
1.250000e+01
1.875000e+01
2.500000e+01
3.125000e+01
3.750000e+01
4.375000e+01
5.000000e+01
5.625000e+01
6.250000e+01
6.875000e+01
7.500000e+01
8.125000e+01
8.750000e+01
9.375000e+01
1.000000e+02
1.062500e+02
1.125000e+02
1.187500e+02
1.250000e+02
1.312500e+02
1.375000e+02
1.437500e+02
1.500000e+02
1.562500e+02
1.625000e+02
1.687500e+02
1.750000e+02
1.812500e+02
1.875000e+02
1.937500e+02
2.000000e+02
0.000000e+00
6.250000e+00
1.250000e+01
1.875000e+01
2.500000e+01
3.125000e+01
3.750000e+01
4.375000e+01
5.000000e+01
5.625000e+01
6.250000e+01
6.875000e+01
7.500000e+01
8.125000e+01
8.750000e+01
9.375000e+01
1.000000e+02
1.062500e+02
1.125000e+02
1.187500e+02
1.250000e+02
1.312500e+02
1.375000e+02
1.437500e+02
1.500000e+02
1.562500e+02
1.625000e+02
1.687500e+02
1.750000e+02
1.812500e+02
1.875000e+02
1.937500e+02
2.000000e+02
0.000000e+00
6.250000e+00
1.250000e+01
1.875000e+01
2.500000e+01
3.125000e+01
3.750000e+01
4.375000e+01
5.000000e+01
5.625000e+01
6.250000e+01
6.875000e+01
7.500000e+01
8.125000e+01
8.750000e+01
9.375000e+01
1.000000e+02
1.062500e+02
1.125000e+02
1.187500e+02
1.250000e+02
1.312500e+02
1.375000e+02
1.437500e+02
1.500000e+02
1.562500e+02
1.625000e+02
1.687500e+02
1.750000e+02
1.812500e+02
1.875000e+02
1.937500e+02
2.000000e+02
0.000000e+00
6.250000e+00
1.250000e+01
1.875000e+01
2.500000e+01
3.125000e+01
3.750000e+01
4.375000e+01
5.000000e+01
5.625000e+01
6.250000e+01
6.875000e+01
7.500000e+01
8.125000e+01
8.750000e+01
9.375000e+01
1.000000e+02
1.062500e+02
1.125000e+02
1.187500e+02
1.250000e+02
1.312500e+02
1.375000e+02
1.437500e+02
1.500000e+02
1.562500e+02
1.625000e+02
1.687500e+02
1.750000e+02
1.812500e+02
1.875000e+02
1.937500e+02
2.000000e+02
0.000000e+00
0.000000e+00
0.000000e+00
0.000000e+00
0.000000e+00
0.000000e+00
0.000000e+00
0.000000e+00
0.000000e+00
0.000000e+00
0.000000e+00
0.000000e+00
0.000000e+00
0.000000e+00
0.000000e+00
0.000000e+00
0.000000e+00
0.000000e+00
0.000000e+00
0.000000e+00
0.000000e+00
0.000000e+00
0.000000e+00
0.000000e+00
0.000000e+00
0.000000e+00
0.000000e+00
0.000000e+00
0.000000e+00
0.000000e+00
0.000000e+00
0.000000e+00
0.000000e+00
6.250000e+00
6.250000e+00
6.250000e+00
6.250000e+00
6.250000e+00
6.250000e+00
6.250000e+00
6.250000e+00
6.250000e+00
6.250000e+00
6.250000e+00
6.250000e+00
6.250000e+00
6.250000e+00
6.250000e+00
6.250000e+00
6.250000e+00
6.250000e+00
6.250000e+00
6.250000e+00
6.250000e+00
6.250000e+00
6.250000e+00
6.250000e+00
6.250000e+00
6.250000e+00
6.250000e+00
6.250000e+00
6.250000e+00
6.250000e+00
6.250000e+00
6.250000e+00
6.250000e+00
1.250000e+01
1.250000e+01
1.250000e+01
1.250000e+01
1.250000e+01
1.250000e+01
1.250000e+01
1.250000e+01
1.250000e+01
1.250000e+01
1.250000e+01
1.250000e+01
1.250000e+01
1.250000e+01
1.250000e+01
1.250000e+01
1.250000e+01
1.250000e+01
1.250000e+01
1.250000e+01
1.250000e+01
1.250000e+01
1.250000e+01
1.250000e+01
1.250000e+01
1.250000e+01
1.250000e+01
1.250000e+01
1.250000e+01
1.250000e+01
1.250000e+01
1.250000e+01
1.250000e+01
1.875000e+01
1.875000e+01
1.875000e+01
1.875000e+01
1.875000e+01
1.875000e+01
1.875000e+01
1.875000e+01
1.875000e+01
1.875000e+01
1.875000e+01
1.875000e+01
1.875000e+01
1.875000e+01
1.875000e+01
1.875000e+01
1.875000e+01
1.875000e+01
1.875000e+01
1.875000e+01
1.875000e+01
1.875000e+01
1.875000e+01
1.875000e+01
1.875000e+01
1.875000e+01
1.875000e+01
1.875000e+01
1.875000e+01
1.875000e+01
1.875000e+01
1.875000e+01
1.875000e+01
2.500000e+01
2.500000e+01
2.500000e+01
2.500000e+01
2.500000e+01
2.500000e+01
2.500000e+01
2.500000e+01
2.500000e+01
2.500000e+01
2.500000e+01
2.500000e+01
2.500000e+01
2.500000e+01
2.500000e+01
2.500000e+01
2.500000e+01
2.500000e+01
2.500000e+01
2.500000e+01
2.500000e+01
2.500000e+01
2.500000e+01
2.500000e+01
2.500000e+01
2.500000e+01
2.500000e+01
2.500000e+01
2.500000e+01
2.500000e+01
2.500000e+01
2.500000e+01
2.500000e+01
3.125000e+01
3.125000e+01
3.125000e+01
3.125000e+01
3.125000e+01
3.125000e+01
3.125000e+01
3.125000e+01
3.125000e+01
3.125000e+01
3.125000e+01
3.125000e+01
3.125000e+01
3.125000e+01
3.125000e+01
3.125000e+01
3.125000e+01
3.125000e+01
3.125000e+01
3.125000e+01
3.125000e+01
3.125000e+01
3.125000e+01
3.125000e+01
3.125000e+01
3.125000e+01
3.125000e+01
3.125000e+01
3.125000e+01
3.125000e+01
3.125000e+01
3.125000e+01
3.125000e+01
3.750000e+01
3.750000e+01
3.750000e+01
3.750000e+01
3.750000e+01
3.750000e+01
3.750000e+01
3.750000e+01
3.750000e+01
3.750000e+01
3.750000e+01
3.750000e+01
3.750000e+01
3.750000e+01
3.750000e+01
3.750000e+01
3.750000e+01
3.750000e+01
3.750000e+01
3.750000e+01
3.750000e+01
3.750000e+01
3.750000e+01
3.750000e+01
3.750000e+01
3.750000e+01
3.750000e+01
3.750000e+01
3.750000e+01
3.750000e+01
3.750000e+01
3.750000e+01
3.750000e+01
4.375000e+01
4.375000e+01
4.375000e+01
4.375000e+01
4.375000e+01
4.375000e+01
4.375000e+01
4.375000e+01
4.375000e+01
4.375000e+01
4.375000e+01
4.375000e+01
4.375000e+01
4.375000e+01
4.375000e+01
4.375000e+01
4.375000e+01
4.375000e+01
4.375000e+01
4.375000e+01
4.375000e+01
4.375000e+01
4.375000e+01
4.375000e+01
4.375000e+01
4.375000e+01
4.375000e+01
4.375000e+01
4.375000e+01
4.375000e+01
4.375000e+01
4.375000e+01
4.375000e+01
5.000000e+01
5.000000e+01
5.000000e+01
5.000000e+01
5.000000e+01
5.000000e+01
5.000000e+01
5.000000e+01
5.000000e+01
5.000000e+01
5.000000e+01
5.000000e+01
5.000000e+01
5.000000e+01
5.000000e+01
5.000000e+01
5.000000e+01
5.000000e+01
5.000000e+01
5.000000e+01
5.000000e+01
5.000000e+01
5.000000e+01
5.000000e+01
5.000000e+01
5.000000e+01
5.000000e+01
5.000000e+01
5.000000e+01
5.000000e+01
5.000000e+01
5.000000e+01
5.000000e+01
5.625000e+01
5.625000e+01
5.625000e+01
5.625000e+01
5.625000e+01
5.625000e+01
5.625000e+01
5.625000e+01
5.625000e+01
5.625000e+01
5.625000e+01
5.625000e+01
5.625000e+01
5.625000e+01
5.625000e+01
5.625000e+01
5.625000e+01
5.625000e+01
5.625000e+01
5.625000e+01
5.625000e+01
5.625000e+01
5.625000e+01
5.625000e+01
5.625000e+01
5.625000e+01
5.625000e+01
5.625000e+01
5.625000e+01
5.625000e+01
5.625000e+01
5.625000e+01
5.625000e+01
6.250000e+01
6.250000e+01
6.250000e+01
6.250000e+01
6.250000e+01
6.250000e+01
6.250000e+01
6.250000e+01
6.250000e+01
6.250000e+01
6.250000e+01
6.250000e+01
6.250000e+01
6.250000e+01
6.250000e+01
6.250000e+01
6.250000e+01
6.250000e+01
6.250000e+01
6.250000e+01
6.250000e+01
6.250000e+01
6.250000e+01
6.250000e+01
6.250000e+01
6.250000e+01
6.250000e+01
6.250000e+01
6.250000e+01
6.250000e+01
6.250000e+01
6.250000e+01
6.250000e+01
6.875000e+01
6.875000e+01
6.875000e+01
6.875000e+01
6.875000e+01
6.875000e+01
6.875000e+01
6.875000e+01
6.875000e+01
6.875000e+01
6.875000e+01
6.875000e+01
6.875000e+01
6.875000e+01
6.875000e+01
6.875000e+01
6.875000e+01
6.875000e+01
6.875000e+01
6.875000e+01
6.875000e+01
6.875000e+01
6.875000e+01
6.875000e+01
6.875000e+01
6.875000e+01
6.875000e+01
6.875000e+01
6.875000e+01
6.875000e+01
6.875000e+01
6.875000e+01
6.875000e+01
7.500000e+01
7.500000e+01
7.500000e+01
7.500000e+01
7.500000e+01
7.500000e+01
7.500000e+01
7.500000e+01
7.500000e+01
7.500000e+01
7.500000e+01
7.500000e+01
7.500000e+01
7.500000e+01
7.500000e+01
7.500000e+01
7.500000e+01
7.500000e+01
7.500000e+01
7.500000e+01
7.500000e+01
7.500000e+01
7.500000e+01
7.500000e+01
7.500000e+01
7.500000e+01
7.500000e+01
7.500000e+01
7.500000e+01
7.500000e+01
7.500000e+01
7.500000e+01
7.500000e+01
8.125000e+01
8.125000e+01
8.125000e+01
8.125000e+01
8.125000e+01
8.125000e+01
8.125000e+01
8.125000e+01
8.125000e+01
8.125000e+01
8.125000e+01
8.125000e+01
8.125000e+01
8.125000e+01
8.125000e+01
8.125000e+01
8.125000e+01
8.125000e+01
8.125000e+01
8.125000e+01
8.125000e+01
8.125000e+01
8.125000e+01
8.125000e+01
8.125000e+01
8.125000e+01
8.125000e+01
8.125000e+01
8.125000e+01
8.125000e+01
8.125000e+01
8.125000e+01
8.125000e+01
8.750000e+01
8.750000e+01
8.750000e+01
8.750000e+01
8.750000e+01
8.750000e+01
8.750000e+01
8.750000e+01
8.750000e+01
8.750000e+01
8.750000e+01
8.750000e+01
8.750000e+01
8.750000e+01
8.750000e+01
8.750000e+01
8.750000e+01
8.750000e+01
8.750000e+01
8.750000e+01
8.750000e+01
8.750000e+01
8.750000e+01
8.750000e+01
8.750000e+01
8.750000e+01
8.750000e+01
8.750000e+01
8.750000e+01
8.750000e+01
8.750000e+01
8.750000e+01
8.750000e+01
9.375000e+01
9.375000e+01
9.375000e+01
9.375000e+01
9.375000e+01
9.375000e+01
9.375000e+01
9.375000e+01
9.375000e+01
9.375000e+01
9.375000e+01
9.375000e+01
9.375000e+01
9.375000e+01
9.375000e+01
9.375000e+01
9.375000e+01
9.375000e+01
9.375000e+01
9.375000e+01
9.375000e+01
9.375000e+01
9.375000e+01
9.375000e+01
9.375000e+01
9.375000e+01
9.375000e+01
9.375000e+01
9.375000e+01
9.375000e+01
9.375000e+01
9.375000e+01
9.375000e+01
1.000000e+02
1.000000e+02
1.000000e+02
1.000000e+02
1.000000e+02
1.000000e+02
1.000000e+02
1.000000e+02
1.000000e+02
1.000000e+02
1.000000e+02
1.000000e+02
1.000000e+02
1.000000e+02
1.000000e+02
1.000000e+02
1.000000e+02
1.000000e+02
1.000000e+02
1.000000e+02
1.000000e+02
1.000000e+02
1.000000e+02
1.000000e+02
1.000000e+02
1.000000e+02
1.000000e+02
1.000000e+02
1.000000e+02
1.000000e+02
1.000000e+02
1.000000e+02
1.000000e+02
0.000000e+00
-4.637138e-01
-7.745569e-01
-1.111350e+00
-1.414861e+00
-1.709874e+00
-2.019044e+00
-2.309859e+00
-2.611454e+00
-2.906404e+00
-3.205061e+00
-3.504071e+00
-3.802459e+00
-4.103379e+00
-4.402858e+00
-4.704076e+00
-5.004966e+00
-5.306194e+00
-5.607843e+00
-5.909213e+00
-6.211217e+00
-6.512643e+00
-6.813945e+00
-7.112330e+00
-7.412024e+00
-7.714311e+00
-8.020288e+00
-8.346100e+00
-8.669919e+00
-9.032156e+00
-9.510120e+00
-9.926265e+00
-1.013204e+01
0.000000e+00
-2.328618e-01
-4.726022e-01
-7.371840e-01
-1.003669e+00
-1.257162e+00
-1.526375e+00
-1.786734e+00
-2.049215e+00
-2.314064e+00
-2.574183e+00
-2.839037e+00
-3.099894e+00
-3.362788e+00
-3.625052e+00
-3.886443e+00
-4.148960e+00
-4.410218e+00
-4.671878e+00
-4.933451e+00
-5.194312e+00
-5.455534e+00
-5.716631e+00
-5.976805e+00
-6.238850e+00
-6.498694e+00
-6.759406e+00
-7.022474e+00
-7.277764e+00
-7.538511e+00
-7.785618e+00
-7.884034e+00
-7.989723e+00
0.000000e+00
-1.089452e-01
-2.509793e-01
-4.471378e-01
-6.628728e-01
-8.695979e-01
-1.096776e+00
-1.320804e+00
-1.545728e+00
-1.775484e+00
-1.997992e+00
-2.225705e+00
-2.448865e+00
-2.673219e+00
-2.897331e+00
-3.120088e+00
-3.344159e+00
-3.567139e+00
-3.790676e+00
-4.014576e+00
-4.237857e+00
-4.461867e+00
-4.686716e+00
-4.912364e+00
-5.138251e+00
-5.358133e+00
-5.569278e+00
-5.766973e+00
-5.945269e+00
-6.093919e+00
-6.175985e+00
-6.180284e+00
-6.273098e+00
0.000000e+00
-1.025952e-01
-1.889423e-01
-3.379104e-01
-4.618414e-01
-6.194032e-01
-7.953447e-01
-9.659655e-01
-1.153419e+00
-1.333269e+00
-1.518379e+00
-1.702442e+00
-1.887065e+00
-2.072373e+00
-2.257965e+00
-2.444701e+00
-2.632068e+00
-2.820836e+00
-3.010516e+00
-3.201442e+00
-3.393083e+00
-3.584747e+00
-3.776814e+00
-3.965807e+00
-4.148218e+00
-4.318702e+00
-4.469958e+00
-4.600929e+00
-4.701396e+00
-4.762174e+00
-4.775385e+00
-4.791197e+00
-4.872191e+00
0.000000e+00
-9.179015e-02
-1.821758e-01
-2.733137e-01
-3.840992e-01
-5.006918e-01
-6.318495e-01
-7.664113e-01
-9.089452e-01
-1.052245e+00
-1.196950e+00
-1.344120e+00
-1.489600e+00
-1.637505e+00
-1.784822e+00
-1.932924e+00
-2.081929e+00
-2.230864e+00
-2.380339e+00
-2.529403e+00
-2.677275e+00
-2.823052e+00
-2.964829e+00
-3.100188e+00
-3.226081e+00
-3.338661e+00
-3.434134e+00
-3.507271e+00
-3.554330e+00
-3.575688e+00
-3.575853e+00
-3.605347e+00
-3.678395e+00
0.000000e+00
-7.335583e-02
-1.440945e-01
-2.184607e-01
-2.991915e-01
-3.875797e-01
-4.819344e-01
-5.827572e-01
-6.864569e-01
-7.935032e-01
-9.015353e-01
-1.010142e+00
-1.119462e+00
-1.228419e+00
-1.337760e+00
-1.446893e+00
-1.555839e+00
-1.664455e+00
-1.772106e+00
-1.878271e+00
-1.981919e+00
-2.081613e+00
-2.175665e+00
-2.261984e+00
-2.338156e+00
-2.401950e+00
-2.451305e+00
-2.484195e+00
-2.501549e+00
-2.498117e+00
-2.493646e+00
-2.521673e+00
-2.589011e+00
0.000000e+00
-5.058157e-02
-1.006997e-01
-1.520393e-01
-2.068455e-01
-2.655748e-01
-3.284646e-01
-3.946354e-01
-4.635069e-01
-5.339591e-01
-6.053457e-01
-6.770495e-01
-7.486809e-01
-8.201192e-01
-8.911176e-01
-9.616130e-01
-1.031365e+00
-1.100078e+00
-1.167306e+00
-1.232345e+00
-1.294201e+00
-1.351556e+00
-1.402925e+00
-1.446653e+00
-1.481059e+00
-1.504155e+00
-1.515568e+00
-1.515615e+00
-1.497248e+00
-1.468675e+00
-1.458485e+00
-1.484991e+00
-1.551724e+00
0.000000e+00
-2.663524e-02
-5.315576e-02
-8.026589e-02
-1.086746e-01
-1.388475e-01
-1.707382e-01
-2.041328e-01
-2.385513e-01
-2.735691e-01
-3.087266e-01
-3.436974e-01
-3.782425e-01
-4.121725e-01
-4.453586e-01
-4.776192e-01
-5.087410e-01
-5.384412e-01
-5.663641e-01
-5.919932e-01
-6.145215e-01
-6.328428e-01
-6.456735e-01
-6.520403e-01
-6.505928e-01
-6.408715e-01
-6.206811e-01
-5.824315e-01
-5.347104e-01
-4.875661e-01
-4.669710e-01
-4.934981e-01
-5.622170e-01
0.000000e+00
-1.914371e-03
-3.881406e-03
-5.826186e-03
-7.668245e-03
-9.318120e-03
-1.068558e-02
-1.167346e-02
-1.219213e-02
-1.215391e-02
-1.148762e-02
-1.011435e-02
-7.937112e-03
-4.835067e-03
-6.727032e-04
4.729335e-03
1.161005e-02
2.020010e-02
3.067448e-02
4.320585e-02
5.819244e-02
7.641253e-02
9.888936e-02
1.270390e-01
1.605378e-01
2.024676e-01
2.593534e-01
3.281243e-01
3.969529e-01
4.445605e-01
4.577338e-01
4.253906e-01
3.507117e-01
0.000000e+00
2.291105e-02
4.561206e-02
6.896069e-02
9.383947e-02
1.208872e-01
1.502404e-01
1.818334e-01
2.153505e-01
2.504632e-01
2.868263e-01
3.242232e-01
3.626207e-01
4.021082e-01
4.428969e-01
4.852476e-01
5.294532e-01
5.756990e-01
6.239952e-01
6.742266e-01
7.261874e-01
7.801532e-01
8.368374e-01
8.971730e-01
9.665920e-01
1.048028e+00
1.134452e+00
1.220845e+00
1.292101e+00
1.334020e+00
1.333820e+00
1.293329e+00
1.231919e+00
0.000000e+00
4.714697e-02
9.376327e-02
1.417064e-01
1.934288e-01
2.496076e-01
3.105719e-01
3.756343e-01
4.441596e-01
5.151001e-01
5.876554e-01
6.612410e-01
7.355671e-01
8.108190e-01
8.873117e-01
9.656999e-01
1.046332e+00
1.129226e+00
1.214408e+00
1.301878e+00
1.391701e+00
1.483714e+00
1.578027e+00
1.678901e+00
1.784862e+00
1.894270e+00
2.000579e+00
2.089162e+00
2.153139e+00
2.182416e+00
2.177612e+00
2.147867e+00
2.103811e+00
0.000000e+00
7.031242e-02
1.379831e-01
2.094914e-01
2.878368e-01
3.746182e-01
4.683414e-01
5.691661e-01
6.741362e-01
7.827187e-01
8.930126e-01
1.004188e+00
1.116400e+00
1.228878e+00
1.342472e+00
1.457329e+00
1.573931e+00
1.692030e+00
1.811763e+00
1.934507e+00
2.062274e+00
2.197233e+00
2.337277e+00
2.476386e+00
2.610664e+00
2.736283e+00
2.847934e+00
2.937627e+00
2.996136e+00
3.026116e+00
3.030044e+00
3.012284e+00
2.984413e+00
0.000000e+00
8.916193e-02
1.767526e-01
2.655483e-01
3.749104e-01
4.914609e-01
6.229021e-01
7.606932e-01
9.051983e-01
1.052404e+00
1.200398e+00
1.351080e+00
1.501505e+00
1.654931e+00
1.809336e+00
1.966597e+00
2.126214e+00
2.287711e+00
2.451800e+00
2.616795e+00
2.784861e+00
2.953850e+00
3.121125e+00
3.284242e+00
3.436848e+00
3.575156e+00
3.693996e+00
3.787554e+00
3.855378e+00
3.895281e+00
3.908805e+00
3.902396e+00
3.887734e+00
0.000000e+00
1.001860e-01
1.841324e-01
3.302301e-01
4.530526e-01
6.106319e-01
7.889840e-01
9.628187e-01
1.155499e+00
1.338423e+00
1.526684e+00
1.712782e+00
1.900787e+00
2.092208e+00
2.287275e+00
2.486770e+00
2.688957e+00
2.894652e+00
3.103824e+00
3.314716e+00
3.523397e+00
3.726089e+00
3.919444e+00
4.103745e+00
4.278711e+00
4.435777e+00
4.570497e+00
4.677250e+00
4.754317e+00
4.802727e+00
4.825321e+00
4.828289e+00
4.823486e+00
0.000000e+00
1.080875e-01
2.478196e-01
4.399830e-01
6.530057e-01
8.572400e-01
1.083825e+00
1.309788e+00
1.537463e+00
1.770819e+00
1.996133e+00
2.225257e+00
2.450310e+00
2.677660e+00
2.907093e+00
3.137701e+00
3.369296e+00
3.600334e+00
3.833026e+00
4.066351e+00
4.299075e+00
4.526754e+00
4.748351e+00
4.966548e+00
5.173386e+00
5.356164e+00
5.505732e+00
5.621165e+00
5.704180e+00
5.757551e+00
5.785604e+00
5.794803e+00
5.795928e+00
0.000000e+00
2.335007e-01
4.736225e-01
7.379785e-01
1.004079e+00
1.257235e+00
1.525830e+00
1.785855e+00
2.047819e+00
2.312096e+00
2.571885e+00
2.835728e+00
3.095684e+00
3.357176e+00
3.617654e+00
3.877160e+00
4.137036e+00
4.394770e+00
4.652059e+00
4.907779e+00
5.161955e+00
5.415486e+00
5.669427e+00
5.923691e+00
6.159326e+00
6.358205e+00
6.516005e+00
6.633622e+00
6.714572e+00
6.764289e+00
6.789736e+00
6.798970e+00
6.801238e+00
0.000000e+00
4.643723e-01
7.778776e-01
1.118133e+00
1.424916e+00
1.722087e+00
2.032716e+00
2.322236e+00
2.622040e+00
2.914009e+00
3.209952e+00
3.507060e+00
3.802751e+00
4.099550e+00
4.392366e+00
4.683665e+00
4.974160e+00
5.264073e+00
5.552111e+00
5.840178e+00
6.125755e+00
6.414520e+00
6.705908e+00
6.993544e+00
7.251385e+00
7.461123e+00
7.620048e+00
7.729948e+00
7.795586e+00
7.825117e+00
7.830325e+00
7.825678e+00
7.823100e+00
0.000000e+00
-2.758691e-01
-5.783770e-01
-9.631485e-01
-1.384345e+00
-1.844472e+00
-2.345280e+00
-2.877611e+00
-3.447285e+00
-4.050267e+00
-4.688676e+00
-5.363959e+00
-6.075077e+00
-6.824647e+00
-7.611381e+00
-8.436648e+00
-9.300449e+00
-1.020269e+01
-1.114417e+01
-1.212453e+01
-1.314440e+01
-1.420437e+01
-1.530425e+01
-1.644405e+01
-1.762318e+01
-1.884270e+01
-2.010764e+01
-2.142514e+01
-2.280449e+01
-2.426506e+01
-2.582325e+01
-2.763403e+01
-3.017988e+01
0.000000e+00
-1.771718e-01
-4.980970e-01
-8.755418e-01
-1.302659e+00
-1.760040e+00
-2.260984e+00
-2.794642e+00
-3.362881e+00
-3.966997e+00
-4.604445e+00
-5.280170e+00
-5.991143e+00
-6.740541e+00
-7.527547e+00
-8.352545e+00
-9.216506e+00
-1.011870e+01
-1.106014e+01
-1.204057e+01
-1.306032e+01
-1.412021e+01
-1.522033e+01
-1.636007e+01
-1.753918e+01
-1.875846e+01
-2.002159e+01
-2.133830e+01
-2.271714e+01
-2.417026e+01
-2.574855e+01
-2.754505e+01
-2.980297e+01
0.000000e+00
-1.542565e-01
-4.399879e-01
-8.182509e-01
-1.235864e+00
-1.691131e+00
-2.190552e+00
-2.722563e+00
-3.291151e+00
-3.894676e+00
-4.532638e+00
-5.208192e+00
-5.919768e+00
-6.669015e+00
-7.456405e+00
-8.281485e+00
-9.145460e+00
-1.004789e+01
-1.098917e+01
-1.196980e+01
-1.298945e+01
-1.404885e+01
-1.514866e+01
-1.628792e+01
-1.746806e+01
-1.868923e+01
-1.995474e+01
-2.127560e+01
-2.265903e+01
-2.413277e+01
-2.575169e+01
-2.743979e+01
-2.919351e+01
0.000000e+00
-1.944325e-01
-4.384580e-01
-8.103688e-01
-1.198956e+00
-1.645483e+00
-2.142166e+00
-2.665369e+00
-3.236233e+00
-3.836546e+00
-4.475292e+00
-5.150908e+00
-5.862290e+00
-6.612163e+00
-7.399347e+00
-8.224689e+00
-9.088635e+00
-9.991070e+00
-1.093234e+01
-1.191300e+01
-1.293277e+01
-1.399190e+01
-1.509169e+01
-1.623178e+01
-1.741425e+01
-1.864030e+01
-1.991190e+01
-2.123941e+01
-2.263241e+01
-2.412349e+01
-2.573601e+01
-2.728806e+01
-2.869191e+01
0.000000e+00
-2.118937e-01
-4.728897e-01
-8.083730e-01
-1.196009e+00
-1.625851e+00
-2.113164e+00
-2.631210e+00
-3.197091e+00
-3.796935e+00
-4.433844e+00
-5.110447e+00
-5.821194e+00
-6.571861e+00
-7.359072e+00
-8.184487e+00
-9.048706e+00
-9.951007e+00
-1.089256e+01
-1.187341e+01
-1.289365e+01
-1.395375e+01
-1.505467e+01
-1.619713e+01
-1.738275e+01
-1.861305e+01
-1.989107e+01
-2.122306e+01
-2.261806e+01
-2.410137e+01
-2.564034e+01
-2.708568e+01
-2.834824e+01
0.000000e+00
-2.193243e-01
-4.885073e-01
-8.138625e-01
-1.191725e+00
-1.618387e+00
-2.092933e+00
-2.610389e+00
-3.169740e+00
-3.768737e+00
-4.405538e+00
-5.080769e+00
-5.793219e+00
-6.543409e+00
-7.331488e+00
-8.157417e+00
-9.021877e+00
-9.924991e+00
-1.086725e+01
-1.184916e+01
-1.287100e+01
-1.393329e+01
-1.503681e+01
-1.618238e+01
-1.737101e+01
-1.860381e+01
-1.988391e+01
-2.121554e+01
-2.259796e+01
-2.404300e+01
-2.548726e+01
-2.685299e+01
-2.804864e+01
0.000000e+00
-2.230883e-01
-4.945481e-01
-8.170319e-01
-1.190294e+00
-1.612672e+00
-2.082210e+00
-2.596455e+00
-3.153321e+00
-3.750825e+00
-4.387617e+00
-5.062807e+00
-5.775936e+00
-6.526837e+00
-7.315562e+00
-8.142362e+00
-9.007578e+00
-9.911669e+00
-1.085516e+01
-1.183863e+01
-1.286262e+01
-1.392756e+01
-1.503399e+01
-1.618244e+01
-1.737344e+01
-1.860682e+01
-1.988326e+01
-2.120923e+01
-2.256228e+01
-2.395595e+01
-2.533044e+01
-2.662647e+01
-2.776091e+01
0.000000e+00
-2.244928e-01
-4.968184e-01
-8.184741e-01
-1.189774e+00
-1.609873e+00
-2.077208e+00
-2.589813e+00
-3.145654e+00
-3.742865e+00
-4.379916e+00
-5.055759e+00
-5.769738e+00
-6.521562e+00
-7.311229e+00
-8.138974e+00
-9.005192e+00
-9.910370e+00
-1.085512e+01
-1.184019e+01
-1.286625e+01
-1.393369e+01
-1.504255e+01
-1.619306e+01
-1.738504e+01
-1.861759e+01
-1.988535e+01
-2.119287e+01
-2.251274e+01
-2.385334e+01
-2.517431e+01
-2.640925e+01
-2.748620e+01
0.000000e+00
-2.247642e-01
-4.973480e-01
-8.189567e-01
-1.189974e+00
-1.609783e+00
-2.076997e+00
-2.589777e+00
-3.146133e+00
-3.744154e+00
-4.382241e+00
-5.059229e+00
-5.774395e+00
-6.527361e+00
-7.318095e+00
-8.146887e+00
-9.014169e+00
-9.920396e+00
-1.086616e+01
-1.185235e+01
-1.287989e+01
-1.394915e+01
-1.505986e+01
-1.621083e+01
-1.740258e+01
-1.862951e+01
-1.988246e+01
-2.116301e+01
-2.245703e+01
-2.374693e+01
-2.500910e+01
-2.617247e+01
-2.717113e+01
0.000000e+00
-2.242568e-01
-4.966792e-01
-8.187881e-01
-1.190937e+00
-1.612313e+00
-2.081365e+00
-2.596129e+00
-3.154498e+00
-3.754465e+00
-4.394332e+00
-5.072939e+00
-5.789582e+00
-6.543866e+00
-7.335739e+00
-8.165627e+00
-9.034030e+00
-9.941235e+00
-1.088766e+01
-1.187415e+01
-1.290203e+01
-1.397210e+01
-1.508317e+01
-1.623442e+01
-1.741911e+01
-1.863473e+01
-1.987158e+01
-2.112897e+01
-2.239437e+01
-2.364545e+01
-2.484746e+01
-2.594933e+01
-2.690944e+01
0.000000e+00
-2.226366e-01
-4.942889e-01
-8.176824e-01
-1.192678e+00
-1.617632e+00
-2.090617e+00
-2.609172e+00
-3.171036e+00
-3.773946e+00
-4.416179e+00
-5.096661e+00
-5.814891e+00
-6.570525e+00
-7.363549e+00
-8.194626e+00
-9.064262e+00
-9.972401e+00
-1.091915e+01
-1.190518e+01
-1.293184e+01
-1.400131e+01
-1.511036e+01
-1.625625e+01
-1.743065e+01
-1.863283e+01
-1.985811e+01
-2.109474e+01
-2.233316e+01
-2.354578e+01
-2.470281e+01
-2.577081e+01
-2.671768e+01
0.000000e+00
-2.186581e-01
-4.881355e-01
-8.148614e-01
-1.195406e+00
-1.626144e+00
-2.105755e+00
-2.629836e+00
-3.196553e+00
-3.803359e+00
-4.448034e+00
-5.130545e+00
-5.850087e+00
-6.606852e+00
-7.400987e+00
-8.233317e+00
-9.104175e+00
-1.001277e+01
-1.095943e+01
-1.194403e+01
-1.296870e+01
-1.403422e+01
-1.513702e+01
-1.627386e+01
-1.743944e+01
-1.863153e+01
-1.984573e+01
-2.106809e+01
-2.227993e+01
-2.346271e+01
-2.459052e+01
-2.564136e+01
-2.659093e+01
0.000000e+00
-2.108832e-01
-4.722824e-01
-8.096677e-01
-1.201022e+00
-1.637000e+00
-2.130457e+00
-2.658407e+00
-3.233030e+00
-3.843335e+00
-4.489967e+00
-5.175246e+00
-5.894935e+00
-6.653555e+00
-7.448530e+00
-8.282403e+00
-9.153918e+00
-1.006160e+01
-1.100690e+01
-1.198865e+01
-1.300992e+01
-1.406901e+01
-1.516314e+01
-1.629163e+01
-1.745121e+01
-1.863823e+01
-1.984491e+01
-2.105289e+01
-2.224432e+01
-2.340276e+01
-2.451155e+01
-2.555499e+01
-2.651858e+01
0.000000e+00
-1.927299e-01
-4.371414e-01
-8.114862e-01
-1.205316e+00
-1.659133e+00
-2.165427e+00
-2.699267e+00
-3.281956e+00
-3.893120e+00
-4.542882e+00
-5.228297e+00
-5.949847e+00
-6.709699e+00
-7.506639e+00
-8.341648e+00
-9.212749e+00
-1.011932e+01
-1.106196e+01
-1.204057e+01
-1.305625e+01
-1.410767e+01
-1.519342e+01
-1.631612e+01
-1.747554e+01
-1.866085e+01
-1.985997e+01
-2.105298e+01
-2.222638e+01
-2.336652e+01
-2.446173e+01
-2.550346e+01
-2.648719e+01
0.000000e+00
-1.518600e-01
-4.373927e-01
-8.179673e-01
-1.241647e+00
-1.705553e+00
-2.216342e+00
-2.760510e+00
-3.341537e+00
-3.956252e+00
-4.604825e+00
-5.290639e+00
-6.013074e+00
-6.773765e+00
-7.572328e+00
-8.407151e+00
-9.277832e+00
-1.018358e+01
-1.112472e+01
-1.210078e+01
-1.311140e+01
-1.415616e+01
-1.523659e+01
-1.635892e+01
-1.751868e+01
-1.870020e+01
-1.988737e+01
-2.106648e+01
-2.222478e+01
-2.335079e+01
-2.443596e+01
-2.547761e+01
-2.648178e+01
0.000000e+00
-1.746907e-01
-4.950771e-01
-8.748215e-01
-1.308033e+00
-1.774674e+00
-2.287349e+00
-2.833911e+00
-3.414503e+00
-4.030134e+00
-4.677849e+00
-5.363911e+00
-6.086043e+00
-6.847292e+00
-7.645926e+00
-8.480328e+00
-9.350312e+00
-1.025521e+01
-1.119547e+01
-1.216999e+01
-1.317817e+01
-1.422037e+01
-1.530058e+01
-1.642275e+01
-1.757769e+01
-1.874902e+01
-1.992356e+01
-2.108962e+01
-2.223536e+01
-2.335027e+01
-2.442760e+01
-2.546830e+01
-2.648647e+01
0.000000e+00
-2.737966e-01
-5.759224e-01
-9.629391e-01
-1.390135e+00
-1.859418e+00
-2.371735e+00
-2.916698e+00
-3.498655e+00
-4.113056e+00
-4.761850e+00
-5.447486e+00
-6.169623e+00
-6.930725e+00
-7.728570e+00
-8.562709e+00
-9.432134e+00
-1.033657e+01
-1.127609e+01
-1.224999e+01
-1.325752e+01
-1.430030e+01