TITLE = "Solution"
VARIABLES = x, y, u, v, psiu, psiv, t, stress
ZONE T="structure" N=561 E=512 F=FEBLOCK ET=QUADRILATERAL VARLOCATION=([7,8]=cellcentered)
0.000000e+00
6.250000e+00
1.250000e+01
1.875000e+01
2.500000e+01
3.125000e+01
3.750000e+01
4.375000e+01
5.000000e+01
5.625000e+01
6.250000e+01
6.875000e+01
7.500000e+01
8.125000e+01
8.750000e+01
9.375000e+01
1.000000e+02
1.062500e+02
1.125000e+02
1.187500e+02
1.250000e+02
1.312500e+02
1.375000e+02
1.437500e+02
1.500000e+02
1.562500e+02
1.625000e+02
1.687500e+02
1.750000e+02
1.812500e+02
1.875000e+02
1.937500e+02
2.000000e+02
0.000000e+00
6.250000e+00
1.250000e+01
1.875000e+01
2.500000e+01
3.125000e+01
3.750000e+01
4.375000e+01
5.000000e+01
5.625000e+01
6.250000e+01
6.875000e+01
7.500000e+01
8.125000e+01
8.750000e+01
9.375000e+01
1.000000e+02
1.062500e+02
1.125000e+02
1.187500e+02
1.250000e+02
1.312500e+02
1.375000e+02
1.437500e+02
1.500000e+02
1.562500e+02
1.625000e+02
1.687500e+02
1.750000e+02
1.812500e+02
1.875000e+02
1.937500e+02
2.000000e+02
0.000000e+00
6.250000e+00
1.250000e+01
1.875000e+01
2.500000e+01
3.125000e+01
3.750000e+01
4.375000e+01
5.000000e+01
5.625000e+01
6.250000e+01
6.875000e+01
7.500000e+01
8.125000e+01
8.750000e+01
9.375000e+01
1.000000e+02
1.062500e+02
1.125000e+02
1.187500e+02
1.250000e+02
1.312500e+02
1.375000e+02
1.437500e+02
1.500000e+02
1.562500e+02
1.625000e+02
1.687500e+02
1.750000e+02
1.812500e+02
1.875000e+02
1.937500e+02
2.000000e+02
0.000000e+00
6.250000e+00
1.250000e+01
1.875000e+01
2.500000e+01
3.125000e+01
3.750000e+01
4.375000e+01
5.000000e+01
5.625000e+01
6.250000e+01
6.875000e+01
7.500000e+01
8.125000e+01
8.750000e+01
9.375000e+01
1.000000e+02
1.062500e+02
1.125000e+02
1.187500e+02
1.250000e+02
1.312500e+02
1.375000e+02
1.437500e+02
1.500000e+02
1.562500e+02
1.625000e+02
1.687500e+02
1.750000e+02
1.812500e+02
1.875000e+02
1.937500e+02
2.000000e+02
0.000000e+00
6.250000e+00
1.250000e+01
1.875000e+01
2.500000e+01
3.125000e+01
3.750000e+01
4.375000e+01
5.000000e+01
5.625000e+01
6.250000e+01
6.875000e+01
7.500000e+01
8.125000e+01
8.750000e+01
9.375000e+01
1.000000e+02
1.062500e+02
1.125000e+02
1.187500e+02
1.250000e+02
1.312500e+02
1.375000e+02
1.437500e+02
1.500000e+02
1.562500e+02
1.625000e+02
1.687500e+02
1.750000e+02
1.812500e+02
1.875000e+02
1.937500e+02
2.000000e+02
0.000000e+00
6.250000e+00
1.250000e+01
1.875000e+01
2.500000e+01
3.125000e+01
3.750000e+01
4.375000e+01
5.000000e+01
5.625000e+01
6.250000e+01
6.875000e+01
7.500000e+01
8.125000e+01
8.750000e+01
9.375000e+01
1.000000e+02
1.062500e+02
1.125000e+02
1.187500e+02
1.250000e+02
1.312500e+02
1.375000e+02
1.437500e+02
1.500000e+02
1.562500e+02
1.625000e+02
1.687500e+02
1.750000e+02
1.812500e+02
1.875000e+02
1.937500e+02
2.000000e+02
0.000000e+00
6.250000e+00
1.250000e+01
1.875000e+01
2.500000e+01
3.125000e+01
3.750000e+01
4.375000e+01
5.000000e+01
5.625000e+01
6.250000e+01
6.875000e+01
7.500000e+01
8.125000e+01
8.750000e+01
9.375000e+01
1.000000e+02
1.062500e+02
1.125000e+02
1.187500e+02
1.250000e+02
1.312500e+02
1.375000e+02
1.437500e+02
1.500000e+02
1.562500e+02
1.625000e+02
1.687500e+02
1.750000e+02
1.812500e+02
1.875000e+02
1.937500e+02
2.000000e+02
0.000000e+00
6.250000e+00
1.250000e+01
1.875000e+01
2.500000e+01
3.125000e+01
3.750000e+01
4.375000e+01
5.000000e+01
5.625000e+01
6.250000e+01
6.875000e+01
7.500000e+01
8.125000e+01
8.750000e+01
9.375000e+01
1.000000e+02
1.062500e+02
1.125000e+02
1.187500e+02
1.250000e+02
1.312500e+02
1.375000e+02
1.437500e+02
1.500000e+02
1.562500e+02
1.625000e+02
1.687500e+02
1.750000e+02
1.812500e+02
1.875000e+02
1.937500e+02
2.000000e+02
0.000000e+00
6.250000e+00
1.250000e+01
1.875000e+01
2.500000e+01
3.125000e+01
3.750000e+01
4.375000e+01
5.000000e+01
5.625000e+01
6.250000e+01
6.875000e+01
7.500000e+01
8.125000e+01
8.750000e+01
9.375000e+01
1.000000e+02
1.062500e+02
1.125000e+02
1.187500e+02
1.250000e+02
1.312500e+02
1.375000e+02
1.437500e+02
1.500000e+02
1.562500e+02
1.625000e+02
1.687500e+02
1.750000e+02
1.812500e+02
1.875000e+02
1.937500e+02
2.000000e+02
0.000000e+00
6.250000e+00
1.250000e+01
1.875000e+01
2.500000e+01
3.125000e+01
3.750000e+01
4.375000e+01
5.000000e+01
5.625000e+01
6.250000e+01
6.875000e+01
7.500000e+01
8.125000e+01
8.750000e+01
9.375000e+01
1.000000e+02
1.062500e+02
1.125000e+02
1.187500e+02
1.250000e+02
1.312500e+02
1.375000e+02
1.437500e+02
1.500000e+02
1.562500e+02
1.625000e+02
1.687500e+02
1.750000e+02
1.812500e+02
1.875000e+02
1.937500e+02
2.000000e+02
0.000000e+00
6.250000e+00
1.250000e+01
1.875000e+01
2.500000e+01
3.125000e+01
3.750000e+01
4.375000e+01
5.000000e+01
5.625000e+01
6.250000e+01
6.875000e+01
7.500000e+01
8.125000e+01
8.750000e+01
9.375000e+01
1.000000e+02
1.062500e+02
1.125000e+02
1.187500e+02
1.250000e+02
1.312500e+02
1.375000e+02
1.437500e+02
1.500000e+02
1.562500e+02
1.625000e+02
1.687500e+02
1.750000e+02
1.812500e+02
1.875000e+02
1.937500e+02
2.000000e+02
0.000000e+00
6.250000e+00
1.250000e+01
1.875000e+01
2.500000e+01
3.125000e+01
3.750000e+01
4.375000e+01
5.000000e+01
5.625000e+01
6.250000e+01
6.875000e+01
7.500000e+01
8.125000e+01
8.750000e+01
9.375000e+01
1.000000e+02
1.062500e+02
1.125000e+02
1.187500e+02
1.250000e+02
1.312500e+02
1.375000e+02
1.437500e+02
1.500000e+02
1.562500e+02
1.625000e+02
1.687500e+02
1.750000e+02
1.812500e+02
1.875000e+02
1.937500e+02
2.000000e+02
0.000000e+00
6.250000e+00
1.250000e+01
1.875000e+01
2.500000e+01
3.125000e+01
3.750000e+01
4.375000e+01
5.000000e+01
5.625000e+01
6.250000e+01
6.875000e+01
7.500000e+01
8.125000e+01
8.750000e+01
9.375000e+01
1.000000e+02
1.062500e+02
1.125000e+02
1.187500e+02
1.250000e+02
1.312500e+02
1.375000e+02
1.437500e+02
1.500000e+02
1.562500e+02
1.625000e+02
1.687500e+02
1.750000e+02
1.812500e+02
1.875000e+02
1.937500e+02
2.000000e+02
0.000000e+00
6.250000e+00
1.250000e+01
1.875000e+01
2.500000e+01
3.125000e+01
3.750000e+01
4.375000e+01
5.000000e+01
5.625000e+01
6.250000e+01
6.875000e+01
7.500000e+01
8.125000e+01
8.750000e+01
9.375000e+01
1.000000e+02
1.062500e+02
1.125000e+02
1.187500e+02
1.250000e+02
1.312500e+02
1.375000e+02
1.437500e+02
1.500000e+02
1.562500e+02
1.625000e+02
1.687500e+02
1.750000e+02
1.812500e+02
1.875000e+02
1.937500e+02
2.000000e+02
0.000000e+00
6.250000e+00
1.250000e+01
1.875000e+01
2.500000e+01
3.125000e+01
3.750000e+01
4.375000e+01
5.000000e+01
5.625000e+01
6.250000e+01
6.875000e+01
7.500000e+01
8.125000e+01
8.750000e+01
9.375000e+01
1.000000e+02
1.062500e+02
1.125000e+02
1.187500e+02
1.250000e+02
1.312500e+02
1.375000e+02
1.437500e+02
1.500000e+02
1.562500e+02
1.625000e+02
1.687500e+02
1.750000e+02
1.812500e+02
1.875000e+02
1.937500e+02
2.000000e+02
0.000000e+00
6.250000e+00
1.250000e+01
1.875000e+01
2.500000e+01
3.125000e+01
3.750000e+01
4.375000e+01
5.000000e+01
5.625000e+01
6.250000e+01
6.875000e+01
7.500000e+01
8.125000e+01
8.750000e+01
9.375000e+01
1.000000e+02
1.062500e+02
1.125000e+02
1.187500e+02
1.250000e+02
1.312500e+02
1.375000e+02
1.437500e+02
1.500000e+02
1.562500e+02
1.625000e+02
1.687500e+02
1.750000e+02
1.812500e+02
1.875000e+02
1.937500e+02
2.000000e+02
0.000000e+00
6.250000e+00
1.250000e+01
1.875000e+01
2.500000e+01
3.125000e+01
3.750000e+01
4.375000e+01
5.000000e+01
5.625000e+01
6.250000e+01
6.875000e+01
7.500000e+01
8.125000e+01
8.750000e+01
9.375000e+01
1.000000e+02
1.062500e+02
1.125000e+02
1.187500e+02
1.250000e+02
1.312500e+02
1.375000e+02
1.437500e+02
1.500000e+02
1.562500e+02
1.625000e+02
1.687500e+02
1.750000e+02
1.812500e+02
1.875000e+02
1.937500e+02
2.000000e+02
0.000000e+00
0.000000e+00
0.000000e+00
0.000000e+00
0.000000e+00
0.000000e+00
0.000000e+00
0.000000e+00
0.000000e+00
0.000000e+00
0.000000e+00
0.000000e+00
0.000000e+00
0.000000e+00
0.000000e+00
0.000000e+00
0.000000e+00
0.000000e+00
0.000000e+00
0.000000e+00
0.000000e+00
0.000000e+00
0.000000e+00
0.000000e+00
0.000000e+00
0.000000e+00
0.000000e+00
0.000000e+00
0.000000e+00
0.000000e+00
0.000000e+00
0.000000e+00
0.000000e+00
6.250000e+00
6.250000e+00
6.250000e+00
6.250000e+00
6.250000e+00
6.250000e+00
6.250000e+00
6.250000e+00
6.250000e+00
6.250000e+00
6.250000e+00
6.250000e+00
6.250000e+00
6.250000e+00
6.250000e+00
6.250000e+00
6.250000e+00
6.250000e+00
6.250000e+00
6.250000e+00
6.250000e+00
6.250000e+00
6.250000e+00
6.250000e+00
6.250000e+00
6.250000e+00
6.250000e+00
6.250000e+00
6.250000e+00
6.250000e+00
6.250000e+00
6.250000e+00
6.250000e+00
1.250000e+01
1.250000e+01
1.250000e+01
1.250000e+01
1.250000e+01
1.250000e+01
1.250000e+01
1.250000e+01
1.250000e+01
1.250000e+01
1.250000e+01
1.250000e+01
1.250000e+01
1.250000e+01
1.250000e+01
1.250000e+01
1.250000e+01
1.250000e+01
1.250000e+01
1.250000e+01
1.250000e+01
1.250000e+01
1.250000e+01
1.250000e+01
1.250000e+01
1.250000e+01
1.250000e+01
1.250000e+01
1.250000e+01
1.250000e+01
1.250000e+01
1.250000e+01
1.250000e+01
1.875000e+01
1.875000e+01
1.875000e+01
1.875000e+01
1.875000e+01
1.875000e+01
1.875000e+01
1.875000e+01
1.875000e+01
1.875000e+01
1.875000e+01
1.875000e+01
1.875000e+01
1.875000e+01
1.875000e+01
1.875000e+01
1.875000e+01
1.875000e+01
1.875000e+01
1.875000e+01
1.875000e+01
1.875000e+01
1.875000e+01
1.875000e+01
1.875000e+01
1.875000e+01
1.875000e+01
1.875000e+01
1.875000e+01
1.875000e+01
1.875000e+01
1.875000e+01
1.875000e+01
2.500000e+01
2.500000e+01
2.500000e+01
2.500000e+01
2.500000e+01
2.500000e+01
2.500000e+01
2.500000e+01
2.500000e+01
2.500000e+01
2.500000e+01
2.500000e+01
2.500000e+01
2.500000e+01
2.500000e+01
2.500000e+01
2.500000e+01
2.500000e+01
2.500000e+01
2.500000e+01
2.500000e+01
2.500000e+01
2.500000e+01
2.500000e+01
2.500000e+01
2.500000e+01
2.500000e+01
2.500000e+01
2.500000e+01
2.500000e+01
2.500000e+01
2.500000e+01
2.500000e+01
3.125000e+01
3.125000e+01
3.125000e+01
3.125000e+01
3.125000e+01
3.125000e+01
3.125000e+01
3.125000e+01
3.125000e+01
3.125000e+01
3.125000e+01
3.125000e+01
3.125000e+01
3.125000e+01
3.125000e+01
3.125000e+01
3.125000e+01
3.125000e+01
3.125000e+01
3.125000e+01
3.125000e+01
3.125000e+01
3.125000e+01
3.125000e+01
3.125000e+01
3.125000e+01
3.125000e+01
3.125000e+01
3.125000e+01
3.125000e+01
3.125000e+01
3.125000e+01
3.125000e+01
3.750000e+01
3.750000e+01
3.750000e+01
3.750000e+01
3.750000e+01
3.750000e+01
3.750000e+01
3.750000e+01
3.750000e+01
3.750000e+01
3.750000e+01
3.750000e+01
3.750000e+01
3.750000e+01
3.750000e+01
3.750000e+01
3.750000e+01
3.750000e+01
3.750000e+01
3.750000e+01
3.750000e+01
3.750000e+01
3.750000e+01
3.750000e+01
3.750000e+01
3.750000e+01
3.750000e+01
3.750000e+01
3.750000e+01
3.750000e+01
3.750000e+01
3.750000e+01
3.750000e+01
4.375000e+01
4.375000e+01
4.375000e+01
4.375000e+01
4.375000e+01
4.375000e+01
4.375000e+01
4.375000e+01
4.375000e+01
4.375000e+01
4.375000e+01
4.375000e+01
4.375000e+01
4.375000e+01
4.375000e+01
4.375000e+01
4.375000e+01
4.375000e+01
4.375000e+01
4.375000e+01
4.375000e+01
4.375000e+01
4.375000e+01
4.375000e+01
4.375000e+01
4.375000e+01
4.375000e+01
4.375000e+01
4.375000e+01
4.375000e+01
4.375000e+01
4.375000e+01
4.375000e+01
5.000000e+01
5.000000e+01
5.000000e+01
5.000000e+01
5.000000e+01
5.000000e+01
5.000000e+01
5.000000e+01
5.000000e+01
5.000000e+01
5.000000e+01
5.000000e+01
5.000000e+01
5.000000e+01
5.000000e+01
5.000000e+01
5.000000e+01
5.000000e+01
5.000000e+01
5.000000e+01
5.000000e+01
5.000000e+01
5.000000e+01
5.000000e+01
5.000000e+01
5.000000e+01
5.000000e+01
5.000000e+01
5.000000e+01
5.000000e+01
5.000000e+01
5.000000e+01
5.000000e+01
5.625000e+01
5.625000e+01
5.625000e+01
5.625000e+01
5.625000e+01
5.625000e+01
5.625000e+01
5.625000e+01
5.625000e+01
5.625000e+01
5.625000e+01
5.625000e+01
5.625000e+01
5.625000e+01
5.625000e+01
5.625000e+01
5.625000e+01
5.625000e+01
5.625000e+01
5.625000e+01
5.625000e+01
5.625000e+01
5.625000e+01
5.625000e+01
5.625000e+01
5.625000e+01
5.625000e+01
5.625000e+01
5.625000e+01
5.625000e+01
5.625000e+01
5.625000e+01
5.625000e+01
6.250000e+01
6.250000e+01
6.250000e+01
6.250000e+01
6.250000e+01
6.250000e+01
6.250000e+01
6.250000e+01
6.250000e+01
6.250000e+01
6.250000e+01
6.250000e+01
6.250000e+01
6.250000e+01
6.250000e+01
6.250000e+01
6.250000e+01
6.250000e+01
6.250000e+01
6.250000e+01
6.250000e+01
6.250000e+01
6.250000e+01
6.250000e+01
6.250000e+01
6.250000e+01
6.250000e+01
6.250000e+01
6.250000e+01
6.250000e+01
6.250000e+01
6.250000e+01
6.250000e+01
6.875000e+01
6.875000e+01
6.875000e+01
6.875000e+01
6.875000e+01
6.875000e+01
6.875000e+01
6.875000e+01
6.875000e+01
6.875000e+01
6.875000e+01
6.875000e+01
6.875000e+01
6.875000e+01
6.875000e+01
6.875000e+01
6.875000e+01
6.875000e+01
6.875000e+01
6.875000e+01
6.875000e+01
6.875000e+01
6.875000e+01
6.875000e+01
6.875000e+01
6.875000e+01
6.875000e+01
6.875000e+01
6.875000e+01
6.875000e+01
6.875000e+01
6.875000e+01
6.875000e+01
7.500000e+01
7.500000e+01
7.500000e+01
7.500000e+01
7.500000e+01
7.500000e+01
7.500000e+01
7.500000e+01
7.500000e+01
7.500000e+01
7.500000e+01
7.500000e+01
7.500000e+01
7.500000e+01
7.500000e+01
7.500000e+01
7.500000e+01
7.500000e+01
7.500000e+01
7.500000e+01
7.500000e+01
7.500000e+01
7.500000e+01
7.500000e+01
7.500000e+01
7.500000e+01
7.500000e+01
7.500000e+01
7.500000e+01
7.500000e+01
7.500000e+01
7.500000e+01
7.500000e+01
8.125000e+01
8.125000e+01
8.125000e+01
8.125000e+01
8.125000e+01
8.125000e+01
8.125000e+01
8.125000e+01
8.125000e+01
8.125000e+01
8.125000e+01
8.125000e+01
8.125000e+01
8.125000e+01
8.125000e+01
8.125000e+01
8.125000e+01
8.125000e+01
8.125000e+01
8.125000e+01
8.125000e+01
8.125000e+01
8.125000e+01
8.125000e+01
8.125000e+01
8.125000e+01
8.125000e+01
8.125000e+01
8.125000e+01
8.125000e+01
8.125000e+01
8.125000e+01
8.125000e+01
8.750000e+01
8.750000e+01
8.750000e+01
8.750000e+01
8.750000e+01
8.750000e+01
8.750000e+01
8.750000e+01
8.750000e+01
8.750000e+01
8.750000e+01
8.750000e+01
8.750000e+01
8.750000e+01
8.750000e+01
8.750000e+01
8.750000e+01
8.750000e+01
8.750000e+01
8.750000e+01
8.750000e+01
8.750000e+01
8.750000e+01
8.750000e+01
8.750000e+01
8.750000e+01
8.750000e+01
8.750000e+01
8.750000e+01
8.750000e+01
8.750000e+01
8.750000e+01
8.750000e+01
9.375000e+01
9.375000e+01
9.375000e+01
9.375000e+01
9.375000e+01
9.375000e+01
9.375000e+01
9.375000e+01
9.375000e+01
9.375000e+01
9.375000e+01
9.375000e+01
9.375000e+01
9.375000e+01
9.375000e+01
9.375000e+01
9.375000e+01
9.375000e+01
9.375000e+01
9.375000e+01
9.375000e+01
9.375000e+01
9.375000e+01
9.375000e+01
9.375000e+01
9.375000e+01
9.375000e+01
9.375000e+01
9.375000e+01
9.375000e+01
9.375000e+01
9.375000e+01
9.375000e+01
1.000000e+02
1.000000e+02
1.000000e+02
1.000000e+02
1.000000e+02
1.000000e+02
1.000000e+02
1.000000e+02
1.000000e+02
1.000000e+02
1.000000e+02
1.000000e+02
1.000000e+02
1.000000e+02
1.000000e+02
1.000000e+02
1.000000e+02
1.000000e+02
1.000000e+02
1.000000e+02
1.000000e+02
1.000000e+02
1.000000e+02
1.000000e+02
1.000000e+02
1.000000e+02
1.000000e+02
1.000000e+02
1.000000e+02
1.000000e+02
1.000000e+02
1.000000e+02
1.000000e+02
0.000000e+00
-7.104481e-02
-1.289013e-01
-1.824973e-01
-2.339347e-01
-2.836057e-01
-3.316098e-01
-3.779428e-01
-4.225754e-01
-4.654752e-01
-5.066153e-01
-5.459770e-01
-5.835507e-01
-6.193357e-01
-6.533403e-01
-6.855824e-01
-7.160909e-01
-7.449076e-01
-7.720906e-01
-7.977181e-01
-8.218942e-01
-8.447567e-01
-8.664878e-01
-8.873290e-01
-9.076042e-01
-9.277532e-01
-9.483870e-01
-9.703770e-01
-9.950014e-01
-1.024141e+00
-1.060237e+00
-1.103253e+00
-1.129504e+00
0.000000e+00
-4.763349e-02
-9.910655e-02
-1.476390e-01
-1.937676e-01
-2.379315e-01
-2.803638e-01
-3.211668e-01
-3.603811e-01
-3.980197e-01
-4.340853e-01
-4.685778e-01
-5.014987e-01
-5.328535e-01
-5.626526e-01
-5.909124e-01
-6.176570e-01
-6.429195e-01
-6.667436e-01
-6.891861e-01
-7.103197e-01
-7.302356e-01
-7.490473e-01
-7.668937e-01
-7.839406e-01
-8.003787e-01
-8.164097e-01
-8.321992e-01
-8.477461e-01
-8.625447e-01
-8.748760e-01
-8.820853e-01
-8.921220e-01
0.000000e+00
-3.778292e-02
-7.778523e-02
-1.185141e-01
-1.580902e-01
-1.962082e-01
-2.328435e-01
-2.680308e-01
-3.018013e-01
-3.341762e-01
-3.651692e-01
-3.947900e-01
-4.230467e-01
-4.499476e-01
-4.755028e-01
-4.997246e-01
-5.226287e-01
-5.442349e-01
-5.645675e-01
-5.836554e-01
-6.015320e-01
-6.182335e-01
-6.337954e-01
-6.482455e-01
-6.615892e-01
-6.737840e-01
-6.846903e-01
-6.939870e-01
-7.010455e-01
-7.048463e-01
-7.045131e-01
-7.023789e-01
-7.140990e-01
0.000000e+00
-2.997739e-02
-6.161039e-02
-9.410947e-02
-1.265326e-01
-1.581705e-01
-1.887524e-01
-2.181808e-01
-2.464296e-01
-2.734975e-01
-2.993916e-01
-3.241203e-01
-3.476922e-01
-3.701145e-01
-3.913938e-01
-4.115363e-01
-4.305473e-01
-4.484318e-01
-4.651934e-01
-4.808330e-01
-4.953467e-01
-5.087212e-01
-5.209268e-01
-5.319067e-01
-5.415595e-01
-5.497149e-01
-5.561028e-01
-5.603331e-01
-5.619483e-01
-5.607493e-01
-5.578372e-01
-5.576633e-01
-5.688297e-01
0.000000e+00
-2.326667e-02
-4.764223e-02
-7.279653e-02
-9.815531e-02
-1.232032e-01
-1.475946e-01
-1.711545e-01
-1.938033e-01
-2.155104e-01
-2.362678e-01
-2.560766e-01
-2.749404e-01
-2.928625e-01
-3.098440e-01
-3.258833e-01
-3.409756e-01
-3.551116e-01
-3.682767e-01
-3.804489e-01
-3.915955e-01
-4.016689e-01
-4.106000e-01
-4.182909e-01
-4.246056e-01
-4.293655e-01
-4.323607e-01
-4.334114e-01
-4.325494e-01
-4.304403e-01
-4.290720e-01
-4.322318e-01
-4.417572e-01
0.000000e+00
-1.709968e-02
-3.493198e-02
-5.333723e-02
-7.199742e-02
-9.056426e-02
-1.087612e-01
-1.264085e-01
-1.434075e-01
-1.597102e-01
-1.752963e-01
-1.901588e-01
-2.042949e-01
-2.177023e-01
-2.303759e-01
-2.423065e-01
-2.534801e-01
-2.638762e-01
-2.734667e-01
-2.822141e-01
-2.900690e-01
-2.969679e-01
-3.028301e-01
-3.075572e-01
-3.110370e-01
-3.131604e-01
-3.138648e-01
-3.132327e-01
-3.116745e-01
-3.101921e-01
-3.105530e-01
-3.145812e-01
-3.224628e-01
0.000000e+00
-1.125365e-02
-2.295245e-02
-3.502239e-02
-4.729138e-02
-5.955291e-02
-7.162206e-02
-8.336405e-02
-9.469451e-02
-1.055669e-01
-1.159577e-01
-1.258551e-01
-1.352514e-01
-1.441389e-01
-1.525068e-01
-1.603398e-01
-1.676168e-01
-1.743098e-01
-1.803829e-01
-1.857913e-01
-1.904808e-01
-1.943876e-01
-1.974409e-01
-1.995686e-01
-2.007119e-01
-2.008537e-01
-2.000721e-01
-1.986256e-01
-1.970648e-01
-1.963082e-01
-1.974886e-01
-2.014105e-01
-2.077727e-01
0.000000e+00
-5.589691e-03
-1.139071e-02
-1.737325e-02
-2.346176e-02
-2.956006e-02
-3.557681e-02
-4.144054e-02
-4.710296e-02
-5.253456e-02
-5.771787e-02
-6.264130e-02
-6.729479e-02
-7.166679e-02
-7.574241e-02
-7.950205e-02
-8.292051e-02
-8.596622e-02
-8.860089e-02
-9.077964e-02
-9.245213e-02
-9.356539e-02
-9.406970e-02
-9.392943e-02
-9.314184e-02
-9.176702e-02
-8.997134e-02
-8.807930e-02
-8.661050e-02
-8.624256e-02
-8.762747e-02
-9.104876e-02
-9.609706e-02
0.000000e+00
-9.019404e-06
-1.955655e-05
-3.102772e-05
-4.282957e-05
-5.414855e-05
-6.375860e-05
-6.979660e-05
-6.949989e-05
-5.889032e-05
-3.239291e-05
1.761782e-05
1.013428e-04
2.321436e-04
4.271590e-04
7.079005e-04
1.100734e-03
1.637098e-03
2.353225e-03
3.289000e-03
4.485432e-03
5.979953e-03
7.798487e-03
9.943007e-03
1.237334e-02
1.498303e-02
1.757227e-02
1.982810e-02
2.133397e-02
2.163937e-02
2.040977e-02
1.762512e-02
1.372506e-02
0.000000e+00
5.572703e-03
1.135380e-02
1.731457e-02
2.338057e-02
2.945712e-02
3.545515e-02
4.130666e-02
4.696852e-02
5.241865e-02
5.765002e-02
6.266539e-02
6.747384e-02
7.208900e-02
7.652831e-02
8.081285e-02
8.496737e-02
8.902009e-02
9.300188e-02
9.694459e-02
1.008777e-01
1.048227e-01
1.087855e-01
1.127439e-01
1.166336e-01
1.203318e-01
1.236450e-01
1.263098e-01
1.280221e-01
1.285068e-01
1.276289e-01
1.255135e-01
1.226189e-01
0.000000e+00
1.123978e-02
2.292209e-02
3.497378e-02
4.722359e-02
5.946616e-02
7.151834e-02
8.324808e-02
9.457513e-02
1.054589e-01
1.158843e-01
1.258512e-01
1.353674e-01
1.444460e-01
1.531027e-01
1.613561e-01
1.692267e-01
1.767372e-01
1.839106e-01
1.907693e-01
1.973310e-01
2.036041e-01
2.095800e-01
2.152243e-01
2.204659e-01
2.251887e-01
2.292284e-01
2.323836e-01
2.344487e-01
2.352744e-01
2.348498e-01
2.333861e-01
2.313658e-01
0.000000e+00
1.709082e-02
3.491225e-02
5.330511e-02
7.195182e-02
9.050473e-02
1.086884e-01
1.263247e-01
1.433175e-01
1.596227e-01
1.752252e-01
1.901255e-01
2.043312e-01
2.178532e-01
2.307044e-01
2.428983e-01
2.544493e-01
2.653721e-01
2.756806e-01
2.853868e-01
2.944975e-01
3.030105e-01
3.109094e-01
3.181569e-01
3.246888e-01
3.304104e-01
3.351984e-01
3.389143e-01
3.414343e-01
3.426970e-01
3.427680e-01
3.419094e-01
3.406326e-01
0.000000e+00
2.326447e-02
4.763673e-02
7.278668e-02
9.814009e-02
1.231817e-01
1.475663e-01
1.711194e-01
1.937620e-01
2.154649e-01
2.362215e-01
2.560354e-01
2.749139e-01
2.928646e-01
3.098954e-01
3.260129e-01
3.412234e-01
3.555317e-01
3.689414e-01
3.814530e-01
3.930628e-01
4.037602e-01
4.135245e-01
4.223219e-01
4.301031e-01
4.368028e-01
4.423442e-01
4.466509e-01
4.496692e-01
4.514033e-01
4.519657e-01
4.516433e-01
4.509707e-01
0.000000e+00
2.998296e-02
6.162171e-02
9.412631e-02
1.265545e-01
1.581968e-01
1.887822e-01
2.182126e-01
2.464610e-01
2.735247e-01
2.994086e-01
3.241186e-01
3.476594e-01
3.700335e-01
3.912413e-01
4.112812e-01
4.301493e-01
4.478395e-01
4.643430e-01
4.796480e-01
4.937393e-01
5.065970e-01
5.181968e-01
5.285095e-01
5.375020e-01
5.451408e-01
5.513971e-01
5.562570e-01
5.597351e-01
5.618967e-01
5.628909e-01
5.630095e-01
5.627863e-01
0.000000e+00
3.779652e-02
7.781425e-02
1.185595e-01
1.581530e-01
1.962889e-01
2.329424e-01
2.681468e-01
3.019311e-01
3.343130e-01
3.653014e-01
3.948985e-01
4.231024e-01
4.499079e-01
4.753063e-01
4.992863e-01
5.218331e-01
5.429282e-01
5.625494e-01
5.806704e-01
5.972616e-01
6.122906e-01
6.257249e-01
6.375342e-01
6.476963e-01
6.562033e-01
6.630706e-01
6.683467e-01
6.721228e-01
6.745413e-01
6.758072e-01
6.762195e-01
6.762687e-01
0.000000e+00
4.765390e-02
9.915114e-02
1.477107e-01
1.938700e-01
2.380680e-01
2.805375e-01
3.213793e-01
3.606315e-01
3.983031e-01
4.343899e-01
4.688819e-01
5.017661e-01
5.330273e-01
5.626480e-01
5.906068e-01
6.168784e-01
6.414318e-01
6.642302e-01
6.852304e-01
7.043841e-01
7.216397e-01
7.369462e-01
7.502598e-01
7.615527e-01
7.708258e-01
7.781226e-01
7.835460e-01
7.872716e-01
7.895544e-01
7.907207e-01
7.911435e-01
7.912471e-01
0.000000e+00
7.106715e-02
1.289534e-01
1.825866e-01
2.340684e-01
2.837910e-01
3.318544e-01
3.782537e-01
4.229584e-01
4.659326e-01
5.071431e-01
5.465613e-01
5.841619e-01
6.199207e-01
6.538129e-01
6.858101e-01
7.158782e-01
7.439754e-01
7.700504e-01
7.940412e-01
8.158758e-01
8.354737e-01
8.527508e-01
8.676279e-01
8.800435e-01
8.899727e-01
8.974507e-01
9.026023e-01
9.056729e-01
9.070564e-01
9.073079e-01
9.070996e-01
9.069824e-01
0.000000e+00
-4.390435e-02
-7.662281e-02
-1.123268e-01
-1.520853e-01
-1.969966e-01
-2.473727e-01
-3.033012e-01
-3.647264e-01
-4.315167e-01
-5.034950e-01
-5.804577e-01
-6.621852e-01
-7.484489e-01
-8.390154e-01
-9.336498e-01
-1.032118e+00
-1.134192e+00
-1.239649e+00
-1.348280e+00
-1.459897e+00
-1.574340e+00
-1.691495e+00
-1.811318e+00
-1.933868e+00
-2.059373e+00
-2.188330e+00
-2.321714e+00
-2.461386e+00
-2.611034e+00
-2.778613e+00
-2.982891e+00
-3.265106e+00
0.000000e+00
-2.728490e-02
-6.153250e-02
-9.747721e-02
-1.377898e-01
-1.831889e-01
-2.340545e-01
-2.904724e-01
-3.523920e-01
-4.196815e-01
-4.921629e-01
-5.696308e-01
-6.518640e-01
-7.386316e-01
-8.296984e-01
-9.248269e-01
-1.023781e+00
-1.126327e+00
-1.232240e+00
-1.341306e+00
-1.453328e+00
-1.568140e+00
-1.685617e+00
-1.805702e+00
-1.928437e+00
-2.054029e+00
-2.182952e+00
-2.316147e+00
-2.455439e+00
-2.604452e+00
-2.770736e+00
-2.970466e+00
-3.234128e+00
0.000000e+00
-2.004236e-02
-4.960728e-02
-8.506161e-02
-1.254446e-01
-1.711782e-01
-2.224451e-01
-2.792930e-01
-3.416535e-01
-4.093887e-01
-4.823176e-01
-5.602333e-01
-6.429133e-01
-7.301261e-01
-8.216355e-01
-9.172032e-01
-1.016592e+00
-1.119567e+00
-1.225901e+00
-1.335379e+00
-1.447802e+00
-1.563003e+00
-1.680857e+00
-1.801307e+00
-1.924402e+00
-2.050360e+00
-2.179676e+00
-2.313314e+00
-2.453078e+00
-2.602231e+00
-2.766352e+00
-2.952031e+00
-3.158004e+00
0.000000e+00
-1.604913e-02
-4.200744e-02
-7.557115e-02
-1.154351e-01
-1.611544e-01
-2.126406e-01
-2.698069e-01
-3.325303e-01
-4.006475e-01
-4.739660e-01
-5.522738e-01
-6.353465e-01
-7.229521e-01
-8.148547e-01
-9.108166e-01
-1.010601e+00
-1.113975e+00
-1.220712e+00
-1.330597e+00
-1.443437e+00
-1.559067e+00
-1.677368e+00
-1.798293e+00
-1.921903e+00
-2.048425e+00
-2.178350e+00
-2.312567e+00
-2.452551e+00
-2.600453e+00
-2.758333e+00
-2.924846e+00
-3.079853e+00
0.000000e+00
-1.358028e-02
-3.703745e-02
-6.883182e-02
-1.077870e-01
-1.532065e-01
-2.047121e-01
-2.620641e-01
-3.250555e-01
-3.934803e-01
-4.671246e-01
-5.457665e-01
-6.291777e-01
-7.171255e-01
-8.093748e-01
-9.056897e-01
-1.005836e+00
-1.109582e+00
-1.216706e+00
-1.326996e+00
-1.440263e+00
-1.556347e+00
-1.675135e+00
-1.796582e+00
-1.920745e+00
-2.047823e+00
-2.178216e+00
-2.312564e+00
-2.451717e+00
-2.596355e+00
-2.745790e+00
-2.894534e+00
-3.029529e+00
0.000000e+00
-1.200933e-02
-3.377652e-02
-6.419412e-02
-1.022724e-01
-1.472665e-01
-1.986600e-01
-2.560854e-01
-3.192532e-01
-3.879085e-01
-4.618110e-01
-5.407255e-01
-6.244184e-01
-7.126558e-01
-8.052037e-01
-9.018286e-01
-1.002299e+00
-1.106388e+00
-1.213875e+00
-1.324554e+00
-1.438238e+00
-1.554766e+00
-1.674023e+00
-1.795952e+00
-1.920573e+00
-2.048007e+00
-2.178478e+00
-2.312269e+00
-2.449533e+00
-2.589809e+00
-2.730958e+00
-2.867938e+00
-2.993137e+00
0.000000e+00
-1.103300e-02
-3.171480e-02
-6.117953e-02
-9.857803e-02
-1.431843e-01
-1.944252e-01
-2.518578e-01
-3.151298e-01
-3.839447e-01
-4.580375e-01
-5.371604e-01
-6.210743e-01
-7.095444e-01
-8.023379e-01
-8.992240e-01
-9.999745e-01
-1.104365e+00
-1.212179e+00
-1.323210e+00
-1.437270e+00
-1.554192e+00
-1.673846e+00
-1.796140e+00
-1.921032e+00
-2.048526e+00
-2.178631e+00
-2.311274e+00
-2.446072e+00
-2.581928e+00
-2.716491e+00
-2.845881e+00
-2.965345e+00
0.000000e+00
-1.049649e-02
-3.057080e-02
-5.948074e-02
-9.645963e-02
-1.408065e-01
-1.919298e-01
-2.493498e-01
-3.126781e-01
-3.815917e-01
-4.558091e-01
-5.350741e-01
-6.191442e-01
-7.077845e-01
-8.007640e-01
-8.978545e-01
-9.988303e-01
-1.103469e+00
-1.211555e+00
-1.322880e+00
-1.437248e+00
-1.554480e+00
-1.674415e+00
-1.796916e+00
-1.921860e+00
-2.049118e+00
-2.178503e+00
-2.309662e+00
-2.441895e+00
-2.573901e+00
-2.703561e+00
-2.827956e+00
-2.943841e+00
0.000000e+00
-1.032363e-02
-3.020172e-02
-5.893015e-02
-9.576922e-02
-1.400283e-01
-1.911124e-01
-2.485315e-01
-3.118865e-01
-3.808461e-01
-4.551244e-01
-5.344632e-01
-6.186204e-01
-7.073625e-01
-8.004610e-01
-8.976898e-01
-9.988253e-01
-1.103646e+00
-1.211934e+00
-1.323476e+00
-1.438063e+00
-1.555497e+00
-1.675581e+00
-1.798121e+00
-1.922912e+00
-2.049704e+00
-2.178153e+00
-2.307730e+00
-2.437597e+00
-2.566476e+00
-2.692572e+00
-2.813659e+00
-2.927361e+00
0.000000e+00
-1.049149e-02
-3.056386e-02
-5.947477e-02
-9.645783e-02
-1.408129e-01
-1.919496e-01
-2.493898e-01
-3.127477e-01
-3.817029e-01
-4.559774e-01
-5.353191e-01
-6.194899e-01
-7.082599e-01
-8.014033e-01
-8.986959e-01
-9.999152e-01
-1.104839e+00
-1.213245e+00
-1.324913e+00
-1.439618e+00
-1.557137e+00
-1.677236e+00
-1.799666e+00
-1.924142e+00
-2.050320e+00
-2.177747e+00
-2.305802e+00
-2.433625e+00
-2.560049e+00
-2.683596e+00
-2.802545e+00
-2.915078e+00
0.000000e+00
-1.102340e-02
-3.170149e-02
-6.116801e-02
-9.857442e-02
-1.431963e-01
-1.944627e-01
-2.519342e-01
-3.152627e-01
-3.841573e-01
-4.583596e-01
-5.376296e-01
-6.217368e-01
-7.104561e-01
-8.035642e-01
-9.008390e-01
-1.002058e+00
-1.106996e+00
-1.215428e+00
-1.327122e+00
-1.441839e+00
-1.559329e+00
-1.679321e+00
-1.801516e+00
-1.925568e+00
-2.051059e+00
-2.177472e+00
-2.304150e+00
-2.430266e+00
-2.554800e+00
-2.676557e+00
-2.794208e+00
-2.906359e+00
0.000000e+00
-1.199599e-02
-3.375801e-02
-6.417803e-02
-1.022672e-01
-1.472828e-01
-1.987118e-01
-2.561914e-01
-3.194383e-01
-3.882050e-01
-4.622606e-01
-5.413808e-01
-6.253444e-01
-7.139308e-01
-8.069197e-01
-9.040897e-01
-1.005218e+00
-1.110077e+00
-1.218435e+00
-1.330052e+00
-1.444673e+00
-1.562025e+00
-1.681806e+00
-1.803675e+00
-1.927237e+00
-2.052027e+00
-2.177490e+00
-2.302966e+00
-2.427687e+00
-2.550781e+00
-2.671302e+00
-2.788261e+00
-2.900643e+00
0.000000e+00
-1.356457e-02
-3.701566e-02
-6.881286e-02
-1.077810e-01
-1.532263e-01
-2.047746e-01
-2.621921e-01
-3.252790e-01
-3.938385e-01
-4.676680e-01
-5.465588e-01
-6.302975e-01
-7.186680e-01
-8.114513e-01
-9.084267e-01
-1.009370e+00
-1.114052e+00
-1.222235e+00
-1.333670e+00
-1.448090e+00
-1.565203e+00
-1.684683e+00
-1.806158e+00
-1.929198e+00
-2.053308e+00
-2.177914e+00
-2.302369e+00
-2.425964e+00
-2.547960e+00
-2.667633e+00
-2.784313e+00
-2.897373e+00
0.000000e+00
-1.603298e-02
-4.198508e-02
-7.555187e-02
-1.154299e-01
-1.611776e-01
-2.127111e-01
-2.699498e-01
-3.327789e-01
-4.010451e-01
-4.745684e-01
-5.531512e-01
-6.365856e-01
-7.246578e-01
-8.171497e-01
-9.138400e-01
-1.014503e+00
-1.118908e+00
-1.226813e+00
-1.337961e+00
-1.452078e+00
-1.568858e+00
-1.687956e+00
-1.808982e+00
-1.931485e+00
-2.054951e+00
-2.178801e+00
-2.302401e+00
-2.425095e+00
-2.546249e+00
-2.665327e+00
-2.781955e+00
-2.895947e+00
0.000000e+00
-2.002828e-02
-4.958769e-02
-8.504534e-02
-1.254430e-01
-1.712064e-01
-2.225229e-01
-2.794467e-01
-3.419176e-01
-4.098082e-01
-4.829500e-01
-5.611511e-01
-6.442056e-01
-7.319004e-01
-8.240171e-01
-9.203338e-01
-1.020623e+00
-1.124652e+00
-1.232176e+00
-1.342935e+00
-1.456646e+00
-1.572997e+00
-1.691634e+00
-1.812157e+00
-1.934104e+00
-2.056957e+00
-2.180135e+00
-2.303023e+00
-2.424997e+00
-2.545500e+00
-2.664131e+00
-2.780770e+00
-2.895698e+00
0.000000e+00
-2.727586e-02
-6.151917e-02
-9.746763e-02
-1.377957e-01
-1.832257e-01
-2.341421e-01
-2.906374e-01
-3.526686e-01
-4.201144e-01
-4.928088e-01
-5.705608e-01
-6.531650e-01
-7.404076e-01
-8.320697e-01
-9.279281e-01
-1.027754e+00
-1.131313e+00
-1.238357e+00
-1.348623e+00
-1.461826e+00
-1.577650e+00
-1.695739e+00
-1.815688e+00
-1.937038e+00
-2.059272e+00
-2.181822e+00
-2.304086e+00
-2.425472e+00
-2.545465e+00
-2.663742e+00
-2.780342e+00
-2.895910e+00
0.000000e+00
-4.390307e-02
-7.661837e-02
-1.123276e-01
-1.521032e-01
-1.970471e-01
-2.474758e-01
-3.034829e-01
-3.650206e-01
-4.319666e-01
-5.041553e-01
-5.813961e-01
-6.634836e-01
-7.502040e-01
-8.413375e-01
-9.366595e-01
-1.035940e+00
-1.138941e+00
-1.245413e+00
-1.355090e+00
-1.467685e+00
-1.582878e+00
-1.700314e+00