TITLE = "Solution"
VARIABLES = x, y, u, v, psiu, psiv, t, stress
ZONE T="structure" N=561 E=512 F=FEBLOCK ET=QUADRILATERAL VARLOCATION=([7,8]=cellcentered)
0.000000e+00
6.250000e+00
1.250000e+01
1.875000e+01
2.500000e+01
3.125000e+01
3.750000e+01
4.375000e+01
5.000000e+01
5.625000e+01
6.250000e+01
6.875000e+01
7.500000e+01
8.125000e+01
8.750000e+01
9.375000e+01
1.000000e+02
1.062500e+02
1.125000e+02
1.187500e+02
1.250000e+02
1.312500e+02
1.375000e+02
1.437500e+02
1.500000e+02
1.562500e+02
1.625000e+02
1.687500e+02
1.750000e+02
1.812500e+02
1.875000e+02
1.937500e+02
2.000000e+02
0.000000e+00
6.250000e+00
1.250000e+01
1.875000e+01
2.500000e+01
3.125000e+01
3.750000e+01
4.375000e+01
5.000000e+01
5.625000e+01
6.250000e+01
6.875000e+01
7.500000e+01
8.125000e+01
8.750000e+01
9.375000e+01
1.000000e+02
1.062500e+02
1.125000e+02
1.187500e+02
1.250000e+02
1.312500e+02
1.375000e+02
1.437500e+02
1.500000e+02
1.562500e+02
1.625000e+02
1.687500e+02
1.750000e+02
1.812500e+02
1.875000e+02
1.937500e+02
2.000000e+02
0.000000e+00
6.250000e+00
1.250000e+01
1.875000e+01
2.500000e+01
3.125000e+01
3.750000e+01
4.375000e+01
5.000000e+01
5.625000e+01
6.250000e+01
6.875000e+01
7.500000e+01
8.125000e+01
8.750000e+01
9.375000e+01
1.000000e+02
1.062500e+02
1.125000e+02
1.187500e+02
1.250000e+02
1.312500e+02
1.375000e+02
1.437500e+02
1.500000e+02
1.562500e+02
1.625000e+02
1.687500e+02
1.750000e+02
1.812500e+02
1.875000e+02
1.937500e+02
2.000000e+02
0.000000e+00
6.250000e+00
1.250000e+01
1.875000e+01
2.500000e+01
3.125000e+01
3.750000e+01
4.375000e+01
5.000000e+01
5.625000e+01
6.250000e+01
6.875000e+01
7.500000e+01
8.125000e+01
8.750000e+01
9.375000e+01
1.000000e+02
1.062500e+02
1.125000e+02
1.187500e+02
1.250000e+02
1.312500e+02
1.375000e+02
1.437500e+02
1.500000e+02
1.562500e+02
1.625000e+02
1.687500e+02
1.750000e+02
1.812500e+02
1.875000e+02
1.937500e+02
2.000000e+02
0.000000e+00
6.250000e+00
1.250000e+01
1.875000e+01
2.500000e+01
3.125000e+01
3.750000e+01
4.375000e+01
5.000000e+01
5.625000e+01
6.250000e+01
6.875000e+01
7.500000e+01
8.125000e+01
8.750000e+01
9.375000e+01
1.000000e+02
1.062500e+02
1.125000e+02
1.187500e+02
1.250000e+02
1.312500e+02
1.375000e+02
1.437500e+02
1.500000e+02
1.562500e+02
1.625000e+02
1.687500e+02
1.750000e+02
1.812500e+02
1.875000e+02
1.937500e+02
2.000000e+02
0.000000e+00
6.250000e+00
1.250000e+01
1.875000e+01
2.500000e+01
3.125000e+01
3.750000e+01
4.375000e+01
5.000000e+01
5.625000e+01
6.250000e+01
6.875000e+01
7.500000e+01
8.125000e+01
8.750000e+01
9.375000e+01
1.000000e+02
1.062500e+02
1.125000e+02
1.187500e+02
1.250000e+02
1.312500e+02
1.375000e+02
1.437500e+02
1.500000e+02
1.562500e+02
1.625000e+02
1.687500e+02
1.750000e+02
1.812500e+02
1.875000e+02
1.937500e+02
2.000000e+02
0.000000e+00
6.250000e+00
1.250000e+01
1.875000e+01
2.500000e+01
3.125000e+01
3.750000e+01
4.375000e+01
5.000000e+01
5.625000e+01
6.250000e+01
6.875000e+01
7.500000e+01
8.125000e+01
8.750000e+01
9.375000e+01
1.000000e+02
1.062500e+02
1.125000e+02
1.187500e+02
1.250000e+02
1.312500e+02
1.375000e+02
1.437500e+02
1.500000e+02
1.562500e+02
1.625000e+02
1.687500e+02
1.750000e+02
1.812500e+02
1.875000e+02
1.937500e+02
2.000000e+02
0.000000e+00
6.250000e+00
1.250000e+01
1.875000e+01
2.500000e+01
3.125000e+01
3.750000e+01
4.375000e+01
5.000000e+01
5.625000e+01
6.250000e+01
6.875000e+01
7.500000e+01
8.125000e+01
8.750000e+01
9.375000e+01
1.000000e+02
1.062500e+02
1.125000e+02
1.187500e+02
1.250000e+02
1.312500e+02
1.375000e+02
1.437500e+02
1.500000e+02
1.562500e+02
1.625000e+02
1.687500e+02
1.750000e+02
1.812500e+02
1.875000e+02
1.937500e+02
2.000000e+02
0.000000e+00
6.250000e+00
1.250000e+01
1.875000e+01
2.500000e+01
3.125000e+01
3.750000e+01
4.375000e+01
5.000000e+01
5.625000e+01
6.250000e+01
6.875000e+01
7.500000e+01
8.125000e+01
8.750000e+01
9.375000e+01
1.000000e+02
1.062500e+02
1.125000e+02
1.187500e+02
1.250000e+02
1.312500e+02
1.375000e+02
1.437500e+02
1.500000e+02
1.562500e+02
1.625000e+02
1.687500e+02
1.750000e+02
1.812500e+02
1.875000e+02
1.937500e+02
2.000000e+02
0.000000e+00
6.250000e+00
1.250000e+01
1.875000e+01
2.500000e+01
3.125000e+01
3.750000e+01
4.375000e+01
5.000000e+01
5.625000e+01
6.250000e+01
6.875000e+01
7.500000e+01
8.125000e+01
8.750000e+01
9.375000e+01
1.000000e+02
1.062500e+02
1.125000e+02
1.187500e+02
1.250000e+02
1.312500e+02
1.375000e+02
1.437500e+02
1.500000e+02
1.562500e+02
1.625000e+02
1.687500e+02
1.750000e+02
1.812500e+02
1.875000e+02
1.937500e+02
2.000000e+02
0.000000e+00
6.250000e+00
1.250000e+01
1.875000e+01
2.500000e+01
3.125000e+01
3.750000e+01
4.375000e+01
5.000000e+01
5.625000e+01
6.250000e+01
6.875000e+01
7.500000e+01
8.125000e+01
8.750000e+01
9.375000e+01
1.000000e+02
1.062500e+02
1.125000e+02
1.187500e+02
1.250000e+02
1.312500e+02
1.375000e+02
1.437500e+02
1.500000e+02
1.562500e+02
1.625000e+02
1.687500e+02
1.750000e+02
1.812500e+02
1.875000e+02
1.937500e+02
2.000000e+02
0.000000e+00
6.250000e+00
1.250000e+01
1.875000e+01
2.500000e+01
3.125000e+01
3.750000e+01
4.375000e+01
5.000000e+01
5.625000e+01
6.250000e+01
6.875000e+01
7.500000e+01
8.125000e+01
8.750000e+01
9.375000e+01
1.000000e+02
1.062500e+02
1.125000e+02
1.187500e+02
1.250000e+02
1.312500e+02
1.375000e+02
1.437500e+02
1.500000e+02
1.562500e+02
1.625000e+02
1.687500e+02
1.750000e+02
1.812500e+02
1.875000e+02
1.937500e+02
2.000000e+02
0.000000e+00
6.250000e+00
1.250000e+01
1.875000e+01
2.500000e+01
3.125000e+01
3.750000e+01
4.375000e+01
5.000000e+01
5.625000e+01
6.250000e+01
6.875000e+01
7.500000e+01
8.125000e+01
8.750000e+01
9.375000e+01
1.000000e+02
1.062500e+02
1.125000e+02
1.187500e+02
1.250000e+02
1.312500e+02
1.375000e+02
1.437500e+02
1.500000e+02
1.562500e+02
1.625000e+02
1.687500e+02
1.750000e+02
1.812500e+02
1.875000e+02
1.937500e+02
2.000000e+02
0.000000e+00
6.250000e+00
1.250000e+01
1.875000e+01
2.500000e+01
3.125000e+01
3.750000e+01
4.375000e+01
5.000000e+01
5.625000e+01
6.250000e+01
6.875000e+01
7.500000e+01
8.125000e+01
8.750000e+01
9.375000e+01
1.000000e+02
1.062500e+02
1.125000e+02
1.187500e+02
1.250000e+02
1.312500e+02
1.375000e+02
1.437500e+02
1.500000e+02
1.562500e+02
1.625000e+02
1.687500e+02
1.750000e+02
1.812500e+02
1.875000e+02
1.937500e+02
2.000000e+02
0.000000e+00
6.250000e+00
1.250000e+01
1.875000e+01
2.500000e+01
3.125000e+01
3.750000e+01
4.375000e+01
5.000000e+01
5.625000e+01
6.250000e+01
6.875000e+01
7.500000e+01
8.125000e+01
8.750000e+01
9.375000e+01
1.000000e+02
1.062500e+02
1.125000e+02
1.187500e+02
1.250000e+02
1.312500e+02
1.375000e+02
1.437500e+02
1.500000e+02
1.562500e+02
1.625000e+02
1.687500e+02
1.750000e+02
1.812500e+02
1.875000e+02
1.937500e+02
2.000000e+02
0.000000e+00
6.250000e+00
1.250000e+01
1.875000e+01
2.500000e+01
3.125000e+01
3.750000e+01
4.375000e+01
5.000000e+01
5.625000e+01
6.250000e+01
6.875000e+01
7.500000e+01
8.125000e+01
8.750000e+01
9.375000e+01
1.000000e+02
1.062500e+02
1.125000e+02
1.187500e+02
1.250000e+02
1.312500e+02
1.375000e+02
1.437500e+02
1.500000e+02
1.562500e+02
1.625000e+02
1.687500e+02
1.750000e+02
1.812500e+02
1.875000e+02
1.937500e+02
2.000000e+02
0.000000e+00
6.250000e+00
1.250000e+01
1.875000e+01
2.500000e+01
3.125000e+01
3.750000e+01
4.375000e+01
5.000000e+01
5.625000e+01
6.250000e+01
6.875000e+01
7.500000e+01
8.125000e+01
8.750000e+01
9.375000e+01
1.000000e+02
1.062500e+02
1.125000e+02
1.187500e+02
1.250000e+02
1.312500e+02
1.375000e+02
1.437500e+02
1.500000e+02
1.562500e+02
1.625000e+02
1.687500e+02
1.750000e+02
1.812500e+02
1.875000e+02
1.937500e+02
2.000000e+02
0.000000e+00
0.000000e+00
0.000000e+00
0.000000e+00
0.000000e+00
0.000000e+00
0.000000e+00
0.000000e+00
0.000000e+00
0.000000e+00
0.000000e+00
0.000000e+00
0.000000e+00
0.000000e+00
0.000000e+00
0.000000e+00
0.000000e+00
0.000000e+00
0.000000e+00
0.000000e+00
0.000000e+00
0.000000e+00
0.000000e+00
0.000000e+00
0.000000e+00
0.000000e+00
0.000000e+00
0.000000e+00
0.000000e+00
0.000000e+00
0.000000e+00
0.000000e+00
0.000000e+00
6.250000e+00
6.250000e+00
6.250000e+00
6.250000e+00
6.250000e+00
6.250000e+00
6.250000e+00
6.250000e+00
6.250000e+00
6.250000e+00
6.250000e+00
6.250000e+00
6.250000e+00
6.250000e+00
6.250000e+00
6.250000e+00
6.250000e+00
6.250000e+00
6.250000e+00
6.250000e+00
6.250000e+00
6.250000e+00
6.250000e+00
6.250000e+00
6.250000e+00
6.250000e+00
6.250000e+00
6.250000e+00
6.250000e+00
6.250000e+00
6.250000e+00
6.250000e+00
6.250000e+00
1.250000e+01
1.250000e+01
1.250000e+01
1.250000e+01
1.250000e+01
1.250000e+01
1.250000e+01
1.250000e+01
1.250000e+01
1.250000e+01
1.250000e+01
1.250000e+01
1.250000e+01
1.250000e+01
1.250000e+01
1.250000e+01
1.250000e+01
1.250000e+01
1.250000e+01
1.250000e+01
1.250000e+01
1.250000e+01
1.250000e+01
1.250000e+01
1.250000e+01
1.250000e+01
1.250000e+01
1.250000e+01
1.250000e+01
1.250000e+01
1.250000e+01
1.250000e+01
1.250000e+01
1.875000e+01
1.875000e+01
1.875000e+01
1.875000e+01
1.875000e+01
1.875000e+01
1.875000e+01
1.875000e+01
1.875000e+01
1.875000e+01
1.875000e+01
1.875000e+01
1.875000e+01
1.875000e+01
1.875000e+01
1.875000e+01
1.875000e+01
1.875000e+01
1.875000e+01
1.875000e+01
1.875000e+01
1.875000e+01
1.875000e+01
1.875000e+01
1.875000e+01
1.875000e+01
1.875000e+01
1.875000e+01
1.875000e+01
1.875000e+01
1.875000e+01
1.875000e+01
1.875000e+01
2.500000e+01
2.500000e+01
2.500000e+01
2.500000e+01
2.500000e+01
2.500000e+01
2.500000e+01
2.500000e+01
2.500000e+01
2.500000e+01
2.500000e+01
2.500000e+01
2.500000e+01
2.500000e+01
2.500000e+01
2.500000e+01
2.500000e+01
2.500000e+01
2.500000e+01
2.500000e+01
2.500000e+01
2.500000e+01
2.500000e+01
2.500000e+01
2.500000e+01
2.500000e+01
2.500000e+01
2.500000e+01
2.500000e+01
2.500000e+01
2.500000e+01
2.500000e+01
2.500000e+01
3.125000e+01
3.125000e+01
3.125000e+01
3.125000e+01
3.125000e+01
3.125000e+01
3.125000e+01
3.125000e+01
3.125000e+01
3.125000e+01
3.125000e+01
3.125000e+01
3.125000e+01
3.125000e+01
3.125000e+01
3.125000e+01
3.125000e+01
3.125000e+01
3.125000e+01
3.125000e+01
3.125000e+01
3.125000e+01
3.125000e+01
3.125000e+01
3.125000e+01
3.125000e+01
3.125000e+01
3.125000e+01
3.125000e+01
3.125000e+01
3.125000e+01
3.125000e+01
3.125000e+01
3.750000e+01
3.750000e+01
3.750000e+01
3.750000e+01
3.750000e+01
3.750000e+01
3.750000e+01
3.750000e+01
3.750000e+01
3.750000e+01
3.750000e+01
3.750000e+01
3.750000e+01
3.750000e+01
3.750000e+01
3.750000e+01
3.750000e+01
3.750000e+01
3.750000e+01
3.750000e+01
3.750000e+01
3.750000e+01
3.750000e+01
3.750000e+01
3.750000e+01
3.750000e+01
3.750000e+01
3.750000e+01
3.750000e+01
3.750000e+01
3.750000e+01
3.750000e+01
3.750000e+01
4.375000e+01
4.375000e+01
4.375000e+01
4.375000e+01
4.375000e+01
4.375000e+01
4.375000e+01
4.375000e+01
4.375000e+01
4.375000e+01
4.375000e+01
4.375000e+01
4.375000e+01
4.375000e+01
4.375000e+01
4.375000e+01
4.375000e+01
4.375000e+01
4.375000e+01
4.375000e+01
4.375000e+01
4.375000e+01
4.375000e+01
4.375000e+01
4.375000e+01
4.375000e+01
4.375000e+01
4.375000e+01
4.375000e+01
4.375000e+01
4.375000e+01
4.375000e+01
4.375000e+01
5.000000e+01
5.000000e+01
5.000000e+01
5.000000e+01
5.000000e+01
5.000000e+01
5.000000e+01
5.000000e+01
5.000000e+01
5.000000e+01
5.000000e+01
5.000000e+01
5.000000e+01
5.000000e+01
5.000000e+01
5.000000e+01
5.000000e+01
5.000000e+01
5.000000e+01
5.000000e+01
5.000000e+01
5.000000e+01
5.000000e+01
5.000000e+01
5.000000e+01
5.000000e+01
5.000000e+01
5.000000e+01
5.000000e+01
5.000000e+01
5.000000e+01
5.000000e+01
5.000000e+01
5.625000e+01
5.625000e+01
5.625000e+01
5.625000e+01
5.625000e+01
5.625000e+01
5.625000e+01
5.625000e+01
5.625000e+01
5.625000e+01
5.625000e+01
5.625000e+01
5.625000e+01
5.625000e+01
5.625000e+01
5.625000e+01
5.625000e+01
5.625000e+01
5.625000e+01
5.625000e+01
5.625000e+01
5.625000e+01
5.625000e+01
5.625000e+01
5.625000e+01
5.625000e+01
5.625000e+01
5.625000e+01
5.625000e+01
5.625000e+01
5.625000e+01
5.625000e+01
5.625000e+01
6.250000e+01
6.250000e+01
6.250000e+01
6.250000e+01
6.250000e+01
6.250000e+01
6.250000e+01
6.250000e+01
6.250000e+01
6.250000e+01
6.250000e+01
6.250000e+01
6.250000e+01
6.250000e+01
6.250000e+01
6.250000e+01
6.250000e+01
6.250000e+01
6.250000e+01
6.250000e+01
6.250000e+01
6.250000e+01
6.250000e+01
6.250000e+01
6.250000e+01
6.250000e+01
6.250000e+01
6.250000e+01
6.250000e+01
6.250000e+01
6.250000e+01
6.250000e+01
6.250000e+01
6.875000e+01
6.875000e+01
6.875000e+01
6.875000e+01
6.875000e+01
6.875000e+01
6.875000e+01
6.875000e+01
6.875000e+01
6.875000e+01
6.875000e+01
6.875000e+01
6.875000e+01
6.875000e+01
6.875000e+01
6.875000e+01
6.875000e+01
6.875000e+01
6.875000e+01
6.875000e+01
6.875000e+01
6.875000e+01
6.875000e+01
6.875000e+01
6.875000e+01
6.875000e+01
6.875000e+01
6.875000e+01
6.875000e+01
6.875000e+01
6.875000e+01
6.875000e+01
6.875000e+01
7.500000e+01
7.500000e+01
7.500000e+01
7.500000e+01
7.500000e+01
7.500000e+01
7.500000e+01
7.500000e+01
7.500000e+01
7.500000e+01
7.500000e+01
7.500000e+01
7.500000e+01
7.500000e+01
7.500000e+01
7.500000e+01
7.500000e+01
7.500000e+01
7.500000e+01
7.500000e+01
7.500000e+01
7.500000e+01
7.500000e+01
7.500000e+01
7.500000e+01
7.500000e+01
7.500000e+01
7.500000e+01
7.500000e+01
7.500000e+01
7.500000e+01
7.500000e+01
7.500000e+01
8.125000e+01
8.125000e+01
8.125000e+01
8.125000e+01
8.125000e+01
8.125000e+01
8.125000e+01
8.125000e+01
8.125000e+01
8.125000e+01
8.125000e+01
8.125000e+01
8.125000e+01
8.125000e+01
8.125000e+01
8.125000e+01
8.125000e+01
8.125000e+01
8.125000e+01
8.125000e+01
8.125000e+01
8.125000e+01
8.125000e+01
8.125000e+01
8.125000e+01
8.125000e+01
8.125000e+01
8.125000e+01
8.125000e+01
8.125000e+01
8.125000e+01
8.125000e+01
8.125000e+01
8.750000e+01
8.750000e+01
8.750000e+01
8.750000e+01
8.750000e+01
8.750000e+01
8.750000e+01
8.750000e+01
8.750000e+01
8.750000e+01
8.750000e+01
8.750000e+01
8.750000e+01
8.750000e+01
8.750000e+01
8.750000e+01
8.750000e+01
8.750000e+01
8.750000e+01
8.750000e+01
8.750000e+01
8.750000e+01
8.750000e+01
8.750000e+01
8.750000e+01
8.750000e+01
8.750000e+01
8.750000e+01
8.750000e+01
8.750000e+01
8.750000e+01
8.750000e+01
8.750000e+01
9.375000e+01
9.375000e+01
9.375000e+01
9.375000e+01
9.375000e+01
9.375000e+01
9.375000e+01
9.375000e+01
9.375000e+01
9.375000e+01
9.375000e+01
9.375000e+01
9.375000e+01
9.375000e+01
9.375000e+01
9.375000e+01
9.375000e+01
9.375000e+01
9.375000e+01
9.375000e+01
9.375000e+01
9.375000e+01
9.375000e+01
9.375000e+01
9.375000e+01
9.375000e+01
9.375000e+01
9.375000e+01
9.375000e+01
9.375000e+01
9.375000e+01
9.375000e+01
9.375000e+01
1.000000e+02
1.000000e+02
1.000000e+02
1.000000e+02
1.000000e+02
1.000000e+02
1.000000e+02
1.000000e+02
1.000000e+02
1.000000e+02
1.000000e+02
1.000000e+02
1.000000e+02
1.000000e+02
1.000000e+02
1.000000e+02
1.000000e+02
1.000000e+02
1.000000e+02
1.000000e+02
1.000000e+02
1.000000e+02
1.000000e+02
1.000000e+02
1.000000e+02
1.000000e+02
1.000000e+02
1.000000e+02
1.000000e+02
1.000000e+02
1.000000e+02
1.000000e+02
1.000000e+02
0.000000e+00
-5.198102e-02
-9.431263e-02
-1.335269e-01
-1.711616e-01
-2.075036e-01
-2.426259e-01
-2.765255e-01
-3.091808e-01
-3.405682e-01
-3.706680e-01
-3.994666e-01
-4.269571e-01
-4.531387e-01
-4.780177e-01
-5.016072e-01
-5.239283e-01
-5.450116e-01
-5.648996e-01
-5.836495e-01
-6.013375e-01
-6.180645e-01
-6.339636e-01
-6.492118e-01
-6.640457e-01
-6.787874e-01
-6.938837e-01
-7.099724e-01
-7.279885e-01
-7.493083e-01
-7.757172e-01
-8.071894e-01
-8.263964e-01
0.000000e+00
-3.485186e-02
-7.251304e-02
-1.080226e-01
-1.417730e-01
-1.740858e-01
-2.051315e-01
-2.349850e-01
-2.636760e-01
-2.912142e-01
-3.176013e-01
-3.428374e-01
-3.669236e-01
-3.898640e-01
-4.116661e-01
-4.323419e-01
-4.519093e-01
-4.703921e-01
-4.878226e-01
-5.042423e-01
-5.197043e-01
-5.342755e-01
-5.480388e-01
-5.610957e-01
-5.735678e-01
-5.855945e-01
-5.973232e-01
-6.088753e-01
-6.202500e-01
-6.310771e-01
-6.400991e-01
-6.453738e-01
-6.527170e-01
0.000000e+00
-2.764458e-02
-5.691301e-02
-8.671294e-02
-1.156693e-01
-1.435585e-01
-1.703629e-01
-1.961077e-01
-2.208158e-01
-2.445027e-01
-2.671785e-01
-2.888503e-01
-3.095240e-01
-3.292058e-01
-3.479029e-01
-3.656244e-01
-3.823818e-01
-3.981897e-01
-4.130657e-01
-4.270310e-01
-4.401101e-01
-4.523295e-01
-4.637151e-01
-4.742872e-01
-4.840499e-01
-4.929720e-01
-5.009514e-01
-5.077532e-01
-5.129173e-01
-5.156981e-01
-5.154543e-01
-5.138928e-01
-5.224677e-01
0.000000e+00
-2.193352e-02
-4.507838e-02
-6.885685e-02
-9.257961e-02
-1.157278e-01
-1.381031e-01
-1.596344e-01
-1.803026e-01
-2.001067e-01
-2.190519e-01
-2.371445e-01
-2.543906e-01
-2.707956e-01
-2.863644e-01
-3.011013e-01
-3.150105e-01
-3.280954e-01
-3.403587e-01
-3.518012e-01
-3.624199e-01
-3.722051e-01
-3.811351e-01
-3.891684e-01
-3.962307e-01
-4.021974e-01
-4.068710e-01
-4.099659e-01
-4.111477e-01
-4.102704e-01
-4.081398e-01
-4.080126e-01
-4.161823e-01
0.000000e+00
-1.702347e-02
-3.485828e-02
-5.326280e-02
-7.181686e-02
-9.014336e-02
-1.079894e-01
-1.252271e-01
-1.417981e-01
-1.576800e-01
-1.728670e-01
-1.873600e-01
-2.011615e-01
-2.142740e-01
-2.266983e-01
-2.384332e-01
-2.494752e-01
-2.598176e-01
-2.694497e-01
-2.783553e-01
-2.865105e-01
-2.938805e-01
-3.004148e-01
-3.060417e-01
-3.106618e-01
-3.141442e-01
-3.163356e-01
-3.171043e-01
-3.164736e-01
-3.149305e-01
-3.139294e-01
-3.162413e-01
-3.232104e-01
0.000000e+00
-1.251127e-02
-2.555856e-02
-3.902503e-02
-5.267799e-02
-6.626259e-02
-7.957649e-02
-9.248819e-02
-1.049255e-01
-1.168533e-01
-1.282568e-01
-1.391308e-01
-1.494734e-01
-1.592828e-01
-1.685552e-01
-1.772841e-01
-1.854591e-01
-1.930652e-01
-2.000820e-01
-2.064819e-01
-2.122288e-01
-2.172762e-01
-2.215652e-01
-2.250237e-01
-2.275697e-01
-2.291232e-01
-2.296385e-01
-2.291760e-01
-2.280360e-01
-2.269514e-01
-2.272155e-01
-2.301627e-01
-2.359292e-01
0.000000e+00
-8.233918e-03
-1.679353e-02
-2.562467e-02
-3.460142e-02
-4.357268e-02
-5.240314e-02
-6.099421e-02
-6.928414e-02
-7.723890e-02
-8.484127e-02
-9.208261e-02
-9.895735e-02
-1.054598e-01
-1.115821e-01
-1.173130e-01
-1.226371e-01
-1.275339e-01
-1.319772e-01
-1.359342e-01
-1.393652e-01
-1.422236e-01
-1.444574e-01
-1.460141e-01
-1.468506e-01
-1.469543e-01
-1.463825e-01
-1.453242e-01
-1.441823e-01
-1.436287e-01
-1.444924e-01
-1.473617e-01
-1.520166e-01
0.000000e+00
-4.089785e-03
-8.334188e-03
-1.271139e-02
-1.716612e-02
-2.162800e-02
-2.603020e-02
-3.032041e-02
-3.446333e-02
-3.843734e-02
-4.222968e-02
-4.583188e-02
-4.923657e-02
-5.243530e-02
-5.541717e-02
-5.816787e-02
-6.066894e-02
-6.289728e-02
-6.482490e-02
-6.641895e-02
-6.764260e-02
-6.845710e-02
-6.882607e-02
-6.872344e-02
-6.814721e-02
-6.714135e-02
-6.582758e-02
-6.444330e-02
-6.336869e-02
-6.309950e-02
-6.411276e-02
-6.661589e-02
-7.030939e-02
0.000000e+00
-6.598543e-06
-1.430751e-05
-2.269985e-05
-3.133412e-05
-3.961511e-05
-4.664582e-05
-5.106313e-05
-5.084577e-05
-4.308321e-05
-2.369660e-05
1.289312e-05
7.414931e-05
1.698477e-04
3.125276e-04
5.179275e-04
8.053376e-04
1.197759e-03
1.721701e-03
2.406345e-03
3.281694e-03
4.375134e-03
5.705632e-03
7.274631e-03
9.052741e-03
1.096207e-02
1.285644e-02
1.450687e-02
1.560861e-02
1.583203e-02
1.493242e-02
1.289507e-02
1.004167e-02
0.000000e+00
4.077356e-03
8.307184e-03
1.266846e-02
1.710673e-02
2.155269e-02
2.594119e-02
3.022247e-02
3.436497e-02
3.835254e-02
4.218006e-02
4.584951e-02
4.936757e-02
5.274421e-02
5.599217e-02
5.912690e-02
6.216650e-02
6.513160e-02
6.804482e-02
7.092944e-02
7.380700e-02
7.669336e-02
7.959262e-02
8.248870e-02
8.533452e-02
8.804027e-02
9.046431e-02
9.241398e-02
9.366669e-02
9.402135e-02
9.337903e-02
9.183136e-02
8.971357e-02
0.000000e+00
8.223765e-03
1.677131e-02
2.558910e-02
3.455183e-02
4.350921e-02
5.232726e-02
6.090937e-02
6.919681e-02
7.715990e-02
8.478761e-02
9.207976e-02
9.904226e-02
1.056845e-01
1.120181e-01
1.180565e-01
1.238150e-01
1.293099e-01
1.345582e-01
1.395763e-01
1.443770e-01
1.489666e-01
1.533388e-01
1.574683e-01
1.613033e-01
1.647586e-01
1.677142e-01
1.700226e-01
1.715335e-01
1.721376e-01
1.718270e-01
1.707561e-01
1.692780e-01
0.000000e+00
1.250479e-02
2.554413e-02
3.900154e-02
5.264463e-02
6.621904e-02
7.952320e-02
9.242685e-02
1.048597e-01
1.167893e-01
1.282048e-01
1.391065e-01
1.494999e-01
1.593932e-01
1.687955e-01
1.777171e-01
1.861682e-01
1.941597e-01
2.017018e-01
2.088032e-01
2.154688e-01
2.216972e-01
2.274763e-01
2.327788e-01
2.375578e-01
2.417439e-01
2.452469e-01
2.479656e-01
2.498093e-01
2.507331e-01
2.507851e-01
2.501569e-01
2.492227e-01
0.000000e+00
1.702186e-02
3.485425e-02
5.325560e-02
7.180573e-02
9.012767e-02
1.079688e-01
1.252014e-01
1.417679e-01
1.576467e-01
1.728331e-01
1.873299e-01
2.011421e-01
2.142756e-01
2.267359e-01
2.385281e-01
2.496565e-01
2.601250e-01
2.699360e-01
2.790899e-01
2.875841e-01
2.954106e-01
3.025545e-01
3.089909e-01
3.146839e-01
3.195856e-01
3.236399e-01
3.267908e-01
3.289991e-01
3.302678e-01
3.306793e-01
3.304434e-01
3.299513e-01
0.000000e+00
2.193759e-02
4.508667e-02
6.886917e-02
9.259562e-02
1.157470e-01
1.381249e-01
1.596577e-01
1.803256e-01
2.001266e-01
2.190644e-01
2.371433e-01
2.543666e-01
2.707364e-01
2.862528e-01
3.009148e-01
3.147193e-01
3.276620e-01
3.397365e-01
3.509342e-01
3.612438e-01
3.706510e-01
3.791378e-01
3.866828e-01
3.932621e-01
3.988508e-01
4.034282e-01
4.069838e-01
4.095285e-01
4.111099e-01
4.118374e-01
4.119241e-01
4.117608e-01
0.000000e+00
2.765452e-02
5.693424e-02
8.674619e-02
1.157152e-01
1.436176e-01
1.704353e-01
1.961926e-01
2.209107e-01
2.446028e-01
2.672752e-01
2.889297e-01
3.095648e-01
3.291767e-01
3.477591e-01
3.653038e-01
3.817998e-01
3.972337e-01
4.115892e-01
4.248471e-01
4.369857e-01
4.479815e-01
4.578104e-01
4.664505e-01
4.738854e-01
4.801094e-01
4.851337e-01
4.889939e-01
4.917566e-01
4.935260e-01
4.944522e-01
4.947538e-01
4.947898e-01
0.000000e+00
3.486679e-02
7.254567e-02
1.080751e-01
1.418479e-01
1.741857e-01
2.052586e-01
2.351405e-01
2.638593e-01
2.914215e-01
3.178241e-01
3.430599e-01
3.671192e-01
3.899912e-01
4.116627e-01
4.321184e-01
4.513396e-01
4.693037e-01
4.859838e-01
5.013482e-01
5.153617e-01
5.279864e-01
5.391852e-01
5.489258e-01
5.571881e-01
5.639725e-01
5.693111e-01
5.732791e-01
5.760048e-01
5.776750e-01
5.785283e-01
5.788377e-01
5.789134e-01
0.000000e+00
5.199736e-02
9.435078e-02
1.335923e-01
1.712594e-01
2.076392e-01
2.428049e-01
2.767530e-01
3.094610e-01
3.409028e-01
3.710542e-01
3.998942e-01
4.274042e-01
4.535667e-01
4.783635e-01
5.017738e-01
5.237727e-01
5.443296e-01
5.634069e-01
5.809594e-01
5.969343e-01
6.112727e-01
6.239132e-01
6.347977e-01
6.438814e-01
6.511459e-01
6.566170e-01
6.603861e-01
6.626326e-01
6.636449e-01
6.638289e-01
6.636765e-01
6.635907e-01
0.000000e+00
-3.212328e-02
-5.606207e-02
-8.218507e-02
-1.112746e-01
-1.441341e-01
-1.809920e-01
-2.219123e-01
-2.668543e-01
-3.157215e-01
-3.683846e-01
-4.246945e-01
-4.844905e-01
-5.476054e-01
-6.138683e-01
-6.831075e-01
-7.551520e-01
-8.298340e-01
-9.069913e-01
-9.864711e-01
-1.068135e+00
-1.151867e+00
-1.237583e+00
-1.325251e+00
-1.414914e+00
-1.506739e+00
-1.601090e+00
-1.698680e+00
-1.800870e+00
-1.910359e+00
-2.032967e+00
-2.182425e+00
-2.388907e+00
0.000000e+00
-1.996339e-02
-4.502100e-02
-7.132022e-02
-1.008152e-01
-1.340317e-01
-1.712477e-01
-2.125262e-01
-2.578298e-01
-3.070624e-01
-3.600936e-01
-4.167731e-01
-4.769391e-01
-5.404227e-01
-6.070516e-01
-6.766524e-01
-7.490519e-01
-8.240798e-01
-9.015708e-01
-9.813682e-01
-1.063329e+00
-1.147331e+00
-1.233283e+00
-1.321142e+00
-1.410941e+00
-1.502830e+00
-1.597155e+00
-1.694607e+00
-1.796519e+00
-1.905543e+00
-2.027204e+00
-2.173335e+00
-2.366242e+00
0.000000e+00
-1.466427e-02
-3.629572e-02
-6.223618e-02
-9.178267e-02
-1.252439e-01
-1.627537e-01
-2.043468e-01
-2.499731e-01
-2.995318e-01
-3.528904e-01
-4.098975e-01
-4.703904e-01
-5.341997e-01
-6.011525e-01
-6.710746e-01
-7.437921e-01
-8.191337e-01
-8.969329e-01
-9.770318e-01
-1.059286e+00
-1.143572e+00
-1.229800e+00
-1.317926e+00
-1.407989e+00
-1.500145e+00
-1.594758e+00
-1.692534e+00
-1.794792e+00
-1.903919e+00
-2.023996e+00
-2.159847e+00
-2.310546e+00
0.000000e+00
-1.174253e-02
-3.073516e-02
-5.529234e-02
-8.445912e-02
-1.179100e-01
-1.555802e-01
-1.974062e-01
-2.432981e-01
-2.931363e-01
-3.467800e-01
-4.040740e-01
-4.648542e-01
-5.289509e-01
-5.961915e-01
-6.664019e-01
-7.394091e-01
-8.150423e-01
-8.931361e-01
-9.735336e-01
-1.056093e+00
-1.140693e+00
-1.227247e+00
-1.315721e+00
-1.406160e+00
-1.498730e+00
-1.593788e+00
-1.691987e+00
-1.794406e+00
-1.902618e+00
-2.018129e+00
-2.139958e+00
-2.253367e+00
0.000000e+00
-9.936114e-03
-2.709875e-02
-5.036139e-02
-7.886329e-02
-1.120948e-01
-1.497792e-01
-1.917412e-01
-2.378291e-01
-2.878924e-01
-3.417745e-01
-3.993130e-01
-4.603409e-01
-5.246880e-01
-5.921822e-01
-6.626509e-01
-7.359226e-01
-8.118284e-01
-8.902052e-01
-9.708990e-01
-1.053770e+00
-1.138703e+00
-1.225613e+00
-1.314470e+00
-1.405313e+00
-1.498289e+00
-1.593690e+00
-1.691986e+00
-1.793795e+00
-1.899619e+00
-2.008952e+00
-2.117780e+00
-2.216548e+00
0.000000e+00
-8.786678e-03
-2.471281e-02
-4.696813e-02
-7.482844e-02
-1.077487e-01
-1.453511e-01
-1.873668e-01
-2.335838e-01
-2.838158e-01
-3.378868e-01
-3.956248e-01
-4.568588e-01
-5.214178e-01
-5.891304e-01
-6.598259e-01
-7.333350e-01
-8.094914e-01
-8.881343e-01
-9.691124e-01
-1.052288e+00
-1.137546e+00
-1.224800e+00
-1.314009e+00
-1.405187e+00
-1.498424e+00
-1.593882e+00
-1.691769e+00
-1.792198e+00
-1.894830e+00
-1.998101e+00
-2.098321e+00
-2.189923e+00
0.000000e+00
-8.072317e-03
-2.320431e-02
-4.476244e-02
-7.212539e-02
-1.047620e-01
-1.422527e-01
-1.842737e-01
-2.305670e-01
-2.809156e-01
-3.351259e-01
-3.930164e-01
-4.544121e-01
-5.191413e-01
-5.870337e-01
-6.579203e-01
-7.316343e-01
-8.080116e-01
-8.868933e-01
-9.681290e-01
-1.051580e+00
-1.137126e+00
-1.224670e+00
-1.314146e+00
-1.405523e+00
-1.498803e+00
-1.593994e+00
-1.691042e+00
-1.789666e+00
-1.889064e+00
-1.987516e+00
-2.082184e+00
-2.169589e+00
0.000000e+00
-7.679765e-03
-2.236727e-02
-4.351948e-02
-7.057542e-02
-1.030222e-01
-1.404270e-01
-1.824386e-01
-2.287731e-01
-2.791941e-01
-3.334955e-01
-3.914900e-01
-4.530000e-01
-5.178537e-01
-5.858821e-01
-6.569183e-01
-7.307971e-01
-8.073562e-01
-8.864371e-01
-9.678877e-01
-1.051565e+00
-1.137337e+00
-1.225087e+00
-1.314714e+00
-1.406129e+00
-1.499237e+00
-1.593900e+00
-1.689862e+00
-1.786610e+00
-1.883191e+00
-1.978056e+00
-2.069069e+00
-2.153856e+00
0.000000e+00
-7.553286e-03
-2.209723e-02
-4.311663e-02
-7.007027e-02
-1.024528e-01
-1.398289e-01
-1.818399e-01
-2.281939e-01
-2.786486e-01
-3.329946e-01
-3.910430e-01
-4.526167e-01
-5.175450e-01
-5.856604e-01
-6.567979e-01
-7.307935e-01
-8.074854e-01
-8.867139e-01
-9.683230e-01
-1.052161e+00
-1.138081e+00
-1.225939e+00
-1.315596e+00
-1.406898e+00
-1.499665e+00
-1.593644e+00
-1.688448e+00
-1.783465e+00
-1.877759e+00
-1.970016e+00
-2.058609e+00
-2.141799e+00
0.000000e+00
-7.676106e-03
-2.236220e-02
-4.351511e-02
-7.057410e-02
-1.030269e-01
-1.404414e-01
-1.824679e-01
-2.288241e-01
-2.792754e-01
-3.336187e-01
-3.916692e-01
-4.532529e-01
-5.182016e-01
-5.863499e-01
-6.575340e-01
-7.315909e-01
-8.083581e-01
-8.876733e-01
-9.693744e-01
-1.053299e+00
-1.139281e+00
-1.227151e+00
-1.316726e+00
-1.407798e+00
-1.500115e+00
-1.593347e+00
-1.687038e+00
-1.780559e+00
-1.873056e+00
-1.963449e+00
-2.050477e+00
-2.132812e+00
0.000000e+00
-8.065296e-03
-2.319457e-02
-4.475401e-02
-7.212275e-02
-1.047707e-01
-1.422801e-01
-1.843295e-01
-2.306642e-01
-2.810713e-01
-3.353616e-01
-3.933596e-01
-4.548968e-01
-5.198083e-01
-5.879309e-01
-6.591019e-01
-7.331585e-01
-8.099367e-01
-8.892706e-01
-9.709910e-01
-1.054923e+00
-1.140884e+00
-1.228676e+00
-1.318080e+00
-1.408841e+00
-1.500657e+00
-1.593146e+00
-1.685829e+00
-1.778101e+00
-1.869216e+00
-1.958299e+00
-2.044378e+00
-2.126433e+00
0.000000e+00
-8.776920e-03
-2.469927e-02
-4.695636e-02
-7.482463e-02
-1.077606e-01
-1.453891e-01
-1.874444e-01
-2.337193e-01
-2.840327e-01
-3.382157e-01
-3.961042e-01
-4.575363e-01
-5.223506e-01
-5.903859e-01
-6.614803e-01
-7.354704e-01
-8.121905e-01
-8.914707e-01
-9.731348e-01
-1.056997e+00
-1.142857e+00
-1.230494e+00
-1.319659e+00
-1.410063e+00
-1.501364e+00
-1.593159e+00
-1.684963e+00
-1.776215e+00
-1.866276e+00
-1.954454e+00
-2.040027e+00
-2.122251e+00
0.000000e+00
-9.924620e-03
-2.708281e-02
-5.034752e-02
-7.885888e-02
-1.121093e-01
-1.498250e-01
-1.918348e-01
-2.379926e-01
-2.881545e-01
-3.421720e-01
-3.998926e-01
-4.611602e-01
-5.258165e-01
-5.937014e-01
-6.646534e-01
-7.385083e-01
-8.150985e-01
-8.942504e-01
-9.757816e-01
-1.059497e+00
-1.145182e+00
-1.232599e+00
-1.321475e+00
-1.411497e+00
-1.502302e+00
-1.593469e+00
-1.684526e+00
-1.774954e+00
-1.864212e+00
-1.951770e+00
-2.037138e+00
-2.119858e+00
0.000000e+00
-1.173071e-02
-3.071879e-02
-5.527823e-02
-8.445533e-02
-1.179270e-01
-1.556317e-01
-1.975108e-01
-2.434799e-01
-2.934272e-01
-3.472207e-01
-4.047159e-01
-4.657609e-01
-5.301989e-01
-5.978706e-01
-6.686140e-01
-7.422641e-01
-8.186516e-01
-8.975997e-01
-9.789215e-01
-1.062415e+00
-1.147856e+00
-1.234994e+00
-1.323542e+00
-1.413170e+00
-1.503504e+00
-1.594118e+00
-1.684550e+00
-1.774318e+00
-1.862960e+00
-1.950083e+00
-2.035414e+00
-2.118815e+00
0.000000e+00
-1.465397e-02
-3.628139e-02
-6.222427e-02
-9.178154e-02
-1.252646e-01
-1.628106e-01
-2.044592e-01
-2.501663e-01
-2.998386e-01
-3.533531e-01
-4.105690e-01
-4.713359e-01
-5.354978e-01
-6.028950e-01
-6.733650e-01
-7.467418e-01
-8.228544e-01
-9.015239e-01
-9.825602e-01
-1.065757e+00
-1.150884e+00
-1.237685e+00
-1.325864e+00
-1.415087e+00
-1.504971e+00
-1.595094e+00
-1.685004e+00
-1.774247e+00
-1.862412e+00
-1.949208e+00
-2.034547e+00
-2.118633e+00
0.000000e+00
-1.995678e-02
-4.501125e-02
-7.131321e-02
-1.008195e-01
-1.340586e-01
-1.713119e-01
-2.126468e-01
-2.580322e-01
-3.073791e-01
-3.605661e-01
-4.174535e-01
-4.778910e-01
-5.417220e-01
-6.087866e-01
-6.789213e-01
-7.519590e-01
-8.277273e-01
-9.060457e-01
-9.867219e-01
-1.069547e+00
-1.154289e+00
-1.240688e+00
-1.328448e+00
-1.417233e+00
-1.506665e+00
-1.596328e+00
-1.685782e+00
-1.774594e+00
-1.862387e+00
-1.948923e+00
-2.034233e+00
-2.118788e+00
0.000000e+00
-3.212234e-02
-5.605882e-02
-8.218570e-02
-1.112877e-01
-1.441711e-01
-1.810674e-01
-2.220453e-01
-2.670695e-01
-3.160507e-01
-3.688678e-01
-4.253811e-01
-4.854405e-01
-5.488894e-01
-6.155672e-01
-6.853095e-01
-7.579480e-01
-8.333084e-01
-9.112083e-01
-9.914534e-01
-1.073833e+00
-1.158114e+00
-1.244035e+00