TITLE = "Solution"
VARIABLES = x, y, u, v, psiu, psiv, t, stress
ZONE T="structure" N=561 E=512 F=FEBLOCK ET=QUADRILATERAL VARLOCATION=([7,8]=cellcentered)
0.000000e+00
6.250000e+00
1.250000e+01
1.875000e+01
2.500000e+01
3.125000e+01
3.750000e+01
4.375000e+01
5.000000e+01
5.625000e+01
6.250000e+01
6.875000e+01
7.500000e+01
8.125000e+01
8.750000e+01
9.375000e+01
1.000000e+02
1.062500e+02
1.125000e+02
1.187500e+02
1.250000e+02
1.312500e+02
1.375000e+02
1.437500e+02
1.500000e+02
1.562500e+02
1.625000e+02
1.687500e+02
1.750000e+02
1.812500e+02
1.875000e+02
1.937500e+02
2.000000e+02
0.000000e+00
6.250000e+00
1.250000e+01
1.875000e+01
2.500000e+01
3.125000e+01
3.750000e+01
4.375000e+01
5.000000e+01
5.625000e+01
6.250000e+01
6.875000e+01
7.500000e+01
8.125000e+01
8.750000e+01
9.375000e+01
1.000000e+02
1.062500e+02
1.125000e+02
1.187500e+02
1.250000e+02
1.312500e+02
1.375000e+02
1.437500e+02
1.500000e+02
1.562500e+02
1.625000e+02
1.687500e+02
1.750000e+02
1.812500e+02
1.875000e+02
1.937500e+02
2.000000e+02
0.000000e+00
6.250000e+00
1.250000e+01
1.875000e+01
2.500000e+01
3.125000e+01
3.750000e+01
4.375000e+01
5.000000e+01
5.625000e+01
6.250000e+01
6.875000e+01
7.500000e+01
8.125000e+01
8.750000e+01
9.375000e+01
1.000000e+02
1.062500e+02
1.125000e+02
1.187500e+02
1.250000e+02
1.312500e+02
1.375000e+02
1.437500e+02
1.500000e+02
1.562500e+02
1.625000e+02
1.687500e+02
1.750000e+02
1.812500e+02
1.875000e+02
1.937500e+02
2.000000e+02
0.000000e+00
6.250000e+00
1.250000e+01
1.875000e+01
2.500000e+01
3.125000e+01
3.750000e+01
4.375000e+01
5.000000e+01
5.625000e+01
6.250000e+01
6.875000e+01
7.500000e+01
8.125000e+01
8.750000e+01
9.375000e+01
1.000000e+02
1.062500e+02
1.125000e+02
1.187500e+02
1.250000e+02
1.312500e+02
1.375000e+02
1.437500e+02
1.500000e+02
1.562500e+02
1.625000e+02
1.687500e+02
1.750000e+02
1.812500e+02
1.875000e+02
1.937500e+02
2.000000e+02
0.000000e+00
6.250000e+00
1.250000e+01
1.875000e+01
2.500000e+01
3.125000e+01
3.750000e+01
4.375000e+01
5.000000e+01
5.625000e+01
6.250000e+01
6.875000e+01
7.500000e+01
8.125000e+01
8.750000e+01
9.375000e+01
1.000000e+02
1.062500e+02
1.125000e+02
1.187500e+02
1.250000e+02
1.312500e+02
1.375000e+02
1.437500e+02
1.500000e+02
1.562500e+02
1.625000e+02
1.687500e+02
1.750000e+02
1.812500e+02
1.875000e+02
1.937500e+02
2.000000e+02
0.000000e+00
6.250000e+00
1.250000e+01
1.875000e+01
2.500000e+01
3.125000e+01
3.750000e+01
4.375000e+01
5.000000e+01
5.625000e+01
6.250000e+01
6.875000e+01
7.500000e+01
8.125000e+01
8.750000e+01
9.375000e+01
1.000000e+02
1.062500e+02
1.125000e+02
1.187500e+02
1.250000e+02
1.312500e+02
1.375000e+02
1.437500e+02
1.500000e+02
1.562500e+02
1.625000e+02
1.687500e+02
1.750000e+02
1.812500e+02
1.875000e+02
1.937500e+02
2.000000e+02
0.000000e+00
6.250000e+00
1.250000e+01
1.875000e+01
2.500000e+01
3.125000e+01
3.750000e+01
4.375000e+01
5.000000e+01
5.625000e+01
6.250000e+01
6.875000e+01
7.500000e+01
8.125000e+01
8.750000e+01
9.375000e+01
1.000000e+02
1.062500e+02
1.125000e+02
1.187500e+02
1.250000e+02
1.312500e+02
1.375000e+02
1.437500e+02
1.500000e+02
1.562500e+02
1.625000e+02
1.687500e+02
1.750000e+02
1.812500e+02
1.875000e+02
1.937500e+02
2.000000e+02
0.000000e+00
6.250000e+00
1.250000e+01
1.875000e+01
2.500000e+01
3.125000e+01
3.750000e+01
4.375000e+01
5.000000e+01
5.625000e+01
6.250000e+01
6.875000e+01
7.500000e+01
8.125000e+01
8.750000e+01
9.375000e+01
1.000000e+02
1.062500e+02
1.125000e+02
1.187500e+02
1.250000e+02
1.312500e+02
1.375000e+02
1.437500e+02
1.500000e+02
1.562500e+02
1.625000e+02
1.687500e+02
1.750000e+02
1.812500e+02
1.875000e+02
1.937500e+02
2.000000e+02
0.000000e+00
6.250000e+00
1.250000e+01
1.875000e+01
2.500000e+01
3.125000e+01
3.750000e+01
4.375000e+01
5.000000e+01
5.625000e+01
6.250000e+01
6.875000e+01
7.500000e+01
8.125000e+01
8.750000e+01
9.375000e+01
1.000000e+02
1.062500e+02
1.125000e+02
1.187500e+02
1.250000e+02
1.312500e+02
1.375000e+02
1.437500e+02
1.500000e+02
1.562500e+02
1.625000e+02
1.687500e+02
1.750000e+02
1.812500e+02
1.875000e+02
1.937500e+02
2.000000e+02
0.000000e+00
6.250000e+00
1.250000e+01
1.875000e+01
2.500000e+01
3.125000e+01
3.750000e+01
4.375000e+01
5.000000e+01
5.625000e+01
6.250000e+01
6.875000e+01
7.500000e+01
8.125000e+01
8.750000e+01
9.375000e+01
1.000000e+02
1.062500e+02
1.125000e+02
1.187500e+02
1.250000e+02
1.312500e+02
1.375000e+02
1.437500e+02
1.500000e+02
1.562500e+02
1.625000e+02
1.687500e+02
1.750000e+02
1.812500e+02
1.875000e+02
1.937500e+02
2.000000e+02
0.000000e+00
6.250000e+00
1.250000e+01
1.875000e+01
2.500000e+01
3.125000e+01
3.750000e+01
4.375000e+01
5.000000e+01
5.625000e+01
6.250000e+01
6.875000e+01
7.500000e+01
8.125000e+01
8.750000e+01
9.375000e+01
1.000000e+02
1.062500e+02
1.125000e+02
1.187500e+02
1.250000e+02
1.312500e+02
1.375000e+02
1.437500e+02
1.500000e+02
1.562500e+02
1.625000e+02
1.687500e+02
1.750000e+02
1.812500e+02
1.875000e+02
1.937500e+02
2.000000e+02
0.000000e+00
6.250000e+00
1.250000e+01
1.875000e+01
2.500000e+01
3.125000e+01
3.750000e+01
4.375000e+01
5.000000e+01
5.625000e+01
6.250000e+01
6.875000e+01
7.500000e+01
8.125000e+01
8.750000e+01
9.375000e+01
1.000000e+02
1.062500e+02
1.125000e+02
1.187500e+02
1.250000e+02
1.312500e+02
1.375000e+02
1.437500e+02
1.500000e+02
1.562500e+02
1.625000e+02
1.687500e+02
1.750000e+02
1.812500e+02
1.875000e+02
1.937500e+02
2.000000e+02
0.000000e+00
6.250000e+00
1.250000e+01
1.875000e+01
2.500000e+01
3.125000e+01
3.750000e+01
4.375000e+01
5.000000e+01
5.625000e+01
6.250000e+01
6.875000e+01
7.500000e+01
8.125000e+01
8.750000e+01
9.375000e+01
1.000000e+02
1.062500e+02
1.125000e+02
1.187500e+02
1.250000e+02
1.312500e+02
1.375000e+02
1.437500e+02
1.500000e+02
1.562500e+02
1.625000e+02
1.687500e+02
1.750000e+02
1.812500e+02
1.875000e+02
1.937500e+02
2.000000e+02
0.000000e+00
6.250000e+00
1.250000e+01
1.875000e+01
2.500000e+01
3.125000e+01
3.750000e+01
4.375000e+01
5.000000e+01
5.625000e+01
6.250000e+01
6.875000e+01
7.500000e+01
8.125000e+01
8.750000e+01
9.375000e+01
1.000000e+02
1.062500e+02
1.125000e+02
1.187500e+02
1.250000e+02
1.312500e+02
1.375000e+02
1.437500e+02
1.500000e+02
1.562500e+02
1.625000e+02
1.687500e+02
1.750000e+02
1.812500e+02
1.875000e+02
1.937500e+02
2.000000e+02
0.000000e+00
6.250000e+00
1.250000e+01
1.875000e+01
2.500000e+01
3.125000e+01
3.750000e+01
4.375000e+01
5.000000e+01
5.625000e+01
6.250000e+01
6.875000e+01
7.500000e+01
8.125000e+01
8.750000e+01
9.375000e+01
1.000000e+02
1.062500e+02
1.125000e+02
1.187500e+02
1.250000e+02
1.312500e+02
1.375000e+02
1.437500e+02
1.500000e+02
1.562500e+02
1.625000e+02
1.687500e+02
1.750000e+02
1.812500e+02
1.875000e+02
1.937500e+02
2.000000e+02
0.000000e+00
6.250000e+00
1.250000e+01
1.875000e+01
2.500000e+01
3.125000e+01
3.750000e+01
4.375000e+01
5.000000e+01
5.625000e+01
6.250000e+01
6.875000e+01
7.500000e+01
8.125000e+01
8.750000e+01
9.375000e+01
1.000000e+02
1.062500e+02
1.125000e+02
1.187500e+02
1.250000e+02
1.312500e+02
1.375000e+02
1.437500e+02
1.500000e+02
1.562500e+02
1.625000e+02
1.687500e+02
1.750000e+02
1.812500e+02
1.875000e+02
1.937500e+02
2.000000e+02
0.000000e+00
6.250000e+00
1.250000e+01
1.875000e+01
2.500000e+01
3.125000e+01
3.750000e+01
4.375000e+01
5.000000e+01
5.625000e+01
6.250000e+01
6.875000e+01
7.500000e+01
8.125000e+01
8.750000e+01
9.375000e+01
1.000000e+02
1.062500e+02
1.125000e+02
1.187500e+02
1.250000e+02
1.312500e+02
1.375000e+02
1.437500e+02
1.500000e+02
1.562500e+02
1.625000e+02
1.687500e+02
1.750000e+02
1.812500e+02
1.875000e+02
1.937500e+02
2.000000e+02
0.000000e+00
0.000000e+00
0.000000e+00
0.000000e+00
0.000000e+00
0.000000e+00
0.000000e+00
0.000000e+00
0.000000e+00
0.000000e+00
0.000000e+00
0.000000e+00
0.000000e+00
0.000000e+00
0.000000e+00
0.000000e+00
0.000000e+00
0.000000e+00
0.000000e+00
0.000000e+00
0.000000e+00
0.000000e+00
0.000000e+00
0.000000e+00
0.000000e+00
0.000000e+00
0.000000e+00
0.000000e+00
0.000000e+00
0.000000e+00
0.000000e+00
0.000000e+00
0.000000e+00
6.250000e+00
6.250000e+00
6.250000e+00
6.250000e+00
6.250000e+00
6.250000e+00
6.250000e+00
6.250000e+00
6.250000e+00
6.250000e+00
6.250000e+00
6.250000e+00
6.250000e+00
6.250000e+00
6.250000e+00
6.250000e+00
6.250000e+00
6.250000e+00
6.250000e+00
6.250000e+00
6.250000e+00
6.250000e+00
6.250000e+00
6.250000e+00
6.250000e+00
6.250000e+00
6.250000e+00
6.250000e+00
6.250000e+00
6.250000e+00
6.250000e+00
6.250000e+00
6.250000e+00
1.250000e+01
1.250000e+01
1.250000e+01
1.250000e+01
1.250000e+01
1.250000e+01
1.250000e+01
1.250000e+01
1.250000e+01
1.250000e+01
1.250000e+01
1.250000e+01
1.250000e+01
1.250000e+01
1.250000e+01
1.250000e+01
1.250000e+01
1.250000e+01
1.250000e+01
1.250000e+01
1.250000e+01
1.250000e+01
1.250000e+01
1.250000e+01
1.250000e+01
1.250000e+01
1.250000e+01
1.250000e+01
1.250000e+01
1.250000e+01
1.250000e+01
1.250000e+01
1.250000e+01
1.875000e+01
1.875000e+01
1.875000e+01
1.875000e+01
1.875000e+01
1.875000e+01
1.875000e+01
1.875000e+01
1.875000e+01
1.875000e+01
1.875000e+01
1.875000e+01
1.875000e+01
1.875000e+01
1.875000e+01
1.875000e+01
1.875000e+01
1.875000e+01
1.875000e+01
1.875000e+01
1.875000e+01
1.875000e+01
1.875000e+01
1.875000e+01
1.875000e+01
1.875000e+01
1.875000e+01
1.875000e+01
1.875000e+01
1.875000e+01
1.875000e+01
1.875000e+01
1.875000e+01
2.500000e+01
2.500000e+01
2.500000e+01
2.500000e+01
2.500000e+01
2.500000e+01
2.500000e+01
2.500000e+01
2.500000e+01
2.500000e+01
2.500000e+01
2.500000e+01
2.500000e+01
2.500000e+01
2.500000e+01
2.500000e+01
2.500000e+01
2.500000e+01
2.500000e+01
2.500000e+01
2.500000e+01
2.500000e+01
2.500000e+01
2.500000e+01
2.500000e+01
2.500000e+01
2.500000e+01
2.500000e+01
2.500000e+01
2.500000e+01
2.500000e+01
2.500000e+01
2.500000e+01
3.125000e+01
3.125000e+01
3.125000e+01
3.125000e+01
3.125000e+01
3.125000e+01
3.125000e+01
3.125000e+01
3.125000e+01
3.125000e+01
3.125000e+01
3.125000e+01
3.125000e+01
3.125000e+01
3.125000e+01
3.125000e+01
3.125000e+01
3.125000e+01
3.125000e+01
3.125000e+01
3.125000e+01
3.125000e+01
3.125000e+01
3.125000e+01
3.125000e+01
3.125000e+01
3.125000e+01
3.125000e+01
3.125000e+01
3.125000e+01
3.125000e+01
3.125000e+01
3.125000e+01
3.750000e+01
3.750000e+01
3.750000e+01
3.750000e+01
3.750000e+01
3.750000e+01
3.750000e+01
3.750000e+01
3.750000e+01
3.750000e+01
3.750000e+01
3.750000e+01
3.750000e+01
3.750000e+01
3.750000e+01
3.750000e+01
3.750000e+01
3.750000e+01
3.750000e+01
3.750000e+01
3.750000e+01
3.750000e+01
3.750000e+01
3.750000e+01
3.750000e+01
3.750000e+01
3.750000e+01
3.750000e+01
3.750000e+01
3.750000e+01
3.750000e+01
3.750000e+01
3.750000e+01
4.375000e+01
4.375000e+01
4.375000e+01
4.375000e+01
4.375000e+01
4.375000e+01
4.375000e+01
4.375000e+01
4.375000e+01
4.375000e+01
4.375000e+01
4.375000e+01
4.375000e+01
4.375000e+01
4.375000e+01
4.375000e+01
4.375000e+01
4.375000e+01
4.375000e+01
4.375000e+01
4.375000e+01
4.375000e+01
4.375000e+01
4.375000e+01
4.375000e+01
4.375000e+01
4.375000e+01
4.375000e+01
4.375000e+01
4.375000e+01
4.375000e+01
4.375000e+01
4.375000e+01
5.000000e+01
5.000000e+01
5.000000e+01
5.000000e+01
5.000000e+01
5.000000e+01
5.000000e+01
5.000000e+01
5.000000e+01
5.000000e+01
5.000000e+01
5.000000e+01
5.000000e+01
5.000000e+01
5.000000e+01
5.000000e+01
5.000000e+01
5.000000e+01
5.000000e+01
5.000000e+01
5.000000e+01
5.000000e+01
5.000000e+01
5.000000e+01
5.000000e+01
5.000000e+01
5.000000e+01
5.000000e+01
5.000000e+01
5.000000e+01
5.000000e+01
5.000000e+01
5.000000e+01
5.625000e+01
5.625000e+01
5.625000e+01
5.625000e+01
5.625000e+01
5.625000e+01
5.625000e+01
5.625000e+01
5.625000e+01
5.625000e+01
5.625000e+01
5.625000e+01
5.625000e+01
5.625000e+01
5.625000e+01
5.625000e+01
5.625000e+01
5.625000e+01
5.625000e+01
5.625000e+01
5.625000e+01
5.625000e+01
5.625000e+01
5.625000e+01
5.625000e+01
5.625000e+01
5.625000e+01
5.625000e+01
5.625000e+01
5.625000e+01
5.625000e+01
5.625000e+01
5.625000e+01
6.250000e+01
6.250000e+01
6.250000e+01
6.250000e+01
6.250000e+01
6.250000e+01
6.250000e+01
6.250000e+01
6.250000e+01
6.250000e+01
6.250000e+01
6.250000e+01
6.250000e+01
6.250000e+01
6.250000e+01
6.250000e+01
6.250000e+01
6.250000e+01
6.250000e+01
6.250000e+01
6.250000e+01
6.250000e+01
6.250000e+01
6.250000e+01
6.250000e+01
6.250000e+01
6.250000e+01
6.250000e+01
6.250000e+01
6.250000e+01
6.250000e+01
6.250000e+01
6.250000e+01
6.875000e+01
6.875000e+01
6.875000e+01
6.875000e+01
6.875000e+01
6.875000e+01
6.875000e+01
6.875000e+01
6.875000e+01
6.875000e+01
6.875000e+01
6.875000e+01
6.875000e+01
6.875000e+01
6.875000e+01
6.875000e+01
6.875000e+01
6.875000e+01
6.875000e+01
6.875000e+01
6.875000e+01
6.875000e+01
6.875000e+01
6.875000e+01
6.875000e+01
6.875000e+01
6.875000e+01
6.875000e+01
6.875000e+01
6.875000e+01
6.875000e+01
6.875000e+01
6.875000e+01
7.500000e+01
7.500000e+01
7.500000e+01
7.500000e+01
7.500000e+01
7.500000e+01
7.500000e+01
7.500000e+01
7.500000e+01
7.500000e+01
7.500000e+01
7.500000e+01
7.500000e+01
7.500000e+01
7.500000e+01
7.500000e+01
7.500000e+01
7.500000e+01
7.500000e+01
7.500000e+01
7.500000e+01
7.500000e+01
7.500000e+01
7.500000e+01
7.500000e+01
7.500000e+01
7.500000e+01
7.500000e+01
7.500000e+01
7.500000e+01
7.500000e+01
7.500000e+01
7.500000e+01
8.125000e+01
8.125000e+01
8.125000e+01
8.125000e+01
8.125000e+01
8.125000e+01
8.125000e+01
8.125000e+01
8.125000e+01
8.125000e+01
8.125000e+01
8.125000e+01
8.125000e+01
8.125000e+01
8.125000e+01
8.125000e+01
8.125000e+01
8.125000e+01
8.125000e+01
8.125000e+01
8.125000e+01
8.125000e+01
8.125000e+01
8.125000e+01
8.125000e+01
8.125000e+01
8.125000e+01
8.125000e+01
8.125000e+01
8.125000e+01
8.125000e+01
8.125000e+01
8.125000e+01
8.750000e+01
8.750000e+01
8.750000e+01
8.750000e+01
8.750000e+01
8.750000e+01
8.750000e+01
8.750000e+01
8.750000e+01
8.750000e+01
8.750000e+01
8.750000e+01
8.750000e+01
8.750000e+01
8.750000e+01
8.750000e+01
8.750000e+01
8.750000e+01
8.750000e+01
8.750000e+01
8.750000e+01
8.750000e+01
8.750000e+01
8.750000e+01
8.750000e+01
8.750000e+01
8.750000e+01
8.750000e+01
8.750000e+01
8.750000e+01
8.750000e+01
8.750000e+01
8.750000e+01
9.375000e+01
9.375000e+01
9.375000e+01
9.375000e+01
9.375000e+01
9.375000e+01
9.375000e+01
9.375000e+01
9.375000e+01
9.375000e+01
9.375000e+01
9.375000e+01
9.375000e+01
9.375000e+01
9.375000e+01
9.375000e+01
9.375000e+01
9.375000e+01
9.375000e+01
9.375000e+01
9.375000e+01
9.375000e+01
9.375000e+01
9.375000e+01
9.375000e+01
9.375000e+01
9.375000e+01
9.375000e+01
9.375000e+01
9.375000e+01
9.375000e+01
9.375000e+01
9.375000e+01
1.000000e+02
1.000000e+02
1.000000e+02
1.000000e+02
1.000000e+02
1.000000e+02
1.000000e+02
1.000000e+02
1.000000e+02
1.000000e+02
1.000000e+02
1.000000e+02
1.000000e+02
1.000000e+02
1.000000e+02
1.000000e+02
1.000000e+02
1.000000e+02
1.000000e+02
1.000000e+02
1.000000e+02
1.000000e+02
1.000000e+02
1.000000e+02
1.000000e+02
1.000000e+02
1.000000e+02
1.000000e+02
1.000000e+02
1.000000e+02
1.000000e+02
1.000000e+02
1.000000e+02
0.000000e+00
-4.393328e-02
-7.971110e-02
-1.128542e-01
-1.446622e-01
-1.753777e-01
-2.050623e-01
-2.337134e-01
-2.613130e-01
-2.878409e-01
-3.132805e-01
-3.376205e-01
-3.608547e-01
-3.829828e-01
-4.040100e-01
-4.239472e-01
-4.428124e-01
-4.606316e-01
-4.774404e-01
-4.932874e-01
-5.082368e-01
-5.223741e-01
-5.358116e-01
-5.486990e-01
-5.612363e-01
-5.736955e-01
-5.864546e-01
-6.000523e-01
-6.152791e-01
-6.332981e-01
-6.556183e-01
-6.822178e-01
-6.984512e-01
0.000000e+00
-2.945608e-02
-6.128655e-02
-9.129848e-02
-1.198237e-01
-1.471337e-01
-1.733729e-01
-1.986044e-01
-2.228534e-01
-2.461279e-01
-2.684297e-01
-2.897587e-01
-3.101158e-01
-3.295045e-01
-3.479310e-01
-3.654058e-01
-3.819436e-01
-3.975649e-01
-4.122967e-01
-4.261743e-01
-4.392424e-01
-4.515575e-01
-4.631899e-01
-4.742253e-01
-4.847664e-01
-4.949311e-01
-5.048439e-01
-5.146075e-01
-5.242211e-01
-5.333719e-01
-5.409971e-01
-5.454551e-01
-5.516614e-01
0.000000e+00
-2.336464e-02
-4.810173e-02
-7.328801e-02
-9.776129e-02
-1.213327e-01
-1.439871e-01
-1.657461e-01
-1.866288e-01
-2.066484e-01
-2.258135e-01
-2.441300e-01
-2.616029e-01
-2.782375e-01
-2.940398e-01
-3.090176e-01
-3.231806e-01
-3.365410e-01
-3.491138e-01
-3.609170e-01
-3.719711e-01
-3.822986e-01
-3.919215e-01
-4.008568e-01
-4.091080e-01
-4.166487e-01
-4.233927e-01
-4.291414e-01
-4.335060e-01
-4.358562e-01
-4.356502e-01
-4.343304e-01
-4.415777e-01
0.000000e+00
-1.853777e-02
-3.809934e-02
-5.819641e-02
-7.824639e-02
-9.781071e-02
-1.167218e-01
-1.349197e-01
-1.523879e-01
-1.691259e-01
-1.851380e-01
-2.004294e-01
-2.150054e-01
-2.288705e-01
-2.420289e-01
-2.544842e-01
-2.662398e-01
-2.772989e-01
-2.876635e-01
-2.973345e-01
-3.063091e-01
-3.145793e-01
-3.221268e-01
-3.289163e-01
-3.348851e-01
-3.399281e-01
-3.438781e-01
-3.464939e-01
-3.474926e-01
-3.467512e-01
-3.449504e-01
-3.448429e-01
-3.517478e-01
0.000000e+00
-1.438789e-02
-2.946151e-02
-4.501663e-02
-6.069813e-02
-7.618730e-02
-9.127042e-02
-1.058393e-01
-1.198447e-01
-1.332678e-01
-1.461035e-01
-1.583526e-01
-1.700173e-01
-1.810997e-01
-1.916004e-01
-2.015185e-01
-2.108509e-01
-2.195921e-01
-2.277328e-01
-2.352596e-01
-2.421522e-01
-2.483812e-01
-2.539038e-01
-2.586595e-01
-2.625643e-01
-2.655075e-01
-2.673596e-01
-2.680093e-01
-2.674763e-01
-2.661721e-01
-2.653260e-01
-2.672799e-01
-2.731701e-01
0.000000e+00
-1.057427e-02
-2.160158e-02
-3.298316e-02
-4.452235e-02
-5.600376e-02
-6.725638e-02
-7.816906e-02
-8.868079e-02
-9.876191e-02
-1.083999e-01
-1.175903e-01
-1.263316e-01
-1.346223e-01
-1.424591e-01
-1.498366e-01
-1.567459e-01
-1.631744e-01
-1.691048e-01
-1.745138e-01
-1.793710e-01
-1.836370e-01
-1.872619e-01
-1.901849e-01
-1.923367e-01
-1.936497e-01
-1.940853e-01
-1.936944e-01
-1.927309e-01
-1.918142e-01
-1.920374e-01
-1.945283e-01
-1.994020e-01
0.000000e+00
-6.959138e-03
-1.419354e-02
-2.165744e-02
-2.924440e-02
-3.682672e-02
-4.429004e-02
-5.155102e-02
-5.855748e-02
-6.528066e-02
-7.170601e-02
-7.782622e-02
-8.363659e-02
-8.913230e-02
-9.430670e-02
-9.915034e-02
-1.036501e-01
-1.077888e-01
-1.115442e-01
-1.148885e-01
-1.177883e-01
-1.202041e-01
-1.220922e-01
-1.234079e-01
-1.241148e-01
-1.242025e-01
-1.237191e-01
-1.228247e-01
-1.218596e-01
-1.213918e-01
-1.221217e-01
-1.245468e-01
-1.284810e-01
0.000000e+00
-3.456602e-03
-7.043884e-03
-1.074341e-02
-1.450845e-02
-1.827953e-02
-2.200017e-02
-2.562617e-02
-2.912767e-02
-3.248642e-02
-3.569162e-02
-3.873611e-02
-4.161367e-02
-4.431716e-02
-4.683737e-02
-4.916219e-02
-5.127604e-02
-5.315938e-02
-5.478856e-02
-5.613581e-02
-5.717001e-02
-5.785840e-02
-5.817024e-02
-5.808351e-02
-5.759649e-02
-5.674636e-02
-5.563600e-02
-5.446604e-02
-5.355781e-02
-5.333029e-02
-5.418667e-02
-5.630226e-02
-5.942391e-02
0.000000e+00
-5.576893e-06
-1.209229e-05
-1.918526e-05
-2.648270e-05
-3.348157e-05
-3.942372e-05
-4.315710e-05
-4.297337e-05
-3.641263e-05
-2.002752e-05
1.089723e-05
6.266948e-05
1.435514e-04
2.641410e-04
4.377400e-04
6.806520e-04
1.012317e-03
1.455140e-03
2.033784e-03
2.773608e-03
3.697756e-03
4.822260e-03
6.148340e-03
7.651154e-03
9.264872e-03
1.086594e-02
1.226085e-02
1.319201e-02
1.338084e-02
1.262051e-02
1.089860e-02
8.486967e-03
0.000000e+00
3.446098e-03
7.021061e-03
1.070713e-02
1.445825e-02
1.821588e-02
2.192495e-02
2.554339e-02
2.904454e-02
3.241475e-02
3.564967e-02
3.875101e-02
4.172439e-02
4.457824e-02
4.732335e-02
4.997275e-02
5.254174e-02
5.504777e-02
5.750996e-02
5.994796e-02
6.238001e-02
6.481949e-02
6.726987e-02
6.971757e-02
7.212278e-02
7.440961e-02
7.645836e-02
7.810617e-02
7.916493e-02
7.946468e-02
7.892181e-02
7.761375e-02
7.582385e-02
0.000000e+00
6.950558e-03
1.417477e-02
2.162738e-02
2.920249e-02
3.677308e-02
4.422591e-02
5.147931e-02
5.848367e-02
6.521390e-02
7.166066e-02
7.782381e-02
8.370835e-02
8.932220e-02
9.467520e-02
9.977878e-02
1.046457e-01
1.092898e-01
1.137256e-01
1.179667e-01
1.220242e-01
1.259032e-01
1.295985e-01
1.330886e-01
1.363298e-01
1.392502e-01
1.417482e-01
1.436992e-01
1.449762e-01
1.454868e-01
1.452242e-01
1.443191e-01
1.430699e-01
0.000000e+00
1.056879e-02
2.158938e-02
3.296330e-02
4.449415e-02
5.596695e-02
6.721135e-02
7.811722e-02
8.862515e-02
9.870779e-02
1.083559e-01
1.175698e-01
1.263541e-01
1.347156e-01
1.426623e-01
1.502025e-01
1.573452e-01
1.640994e-01
1.704738e-01
1.764757e-01
1.821094e-01
1.873735e-01
1.922578e-01
1.967393e-01
2.007784e-01
2.043164e-01
2.072771e-01
2.095748e-01
2.111331e-01
2.119139e-01
2.119578e-01
2.114269e-01
2.106373e-01
0.000000e+00
1.438653e-02
2.945810e-02
4.501055e-02
6.068872e-02
7.617403e-02
9.125296e-02
1.058176e-01
1.198192e-01
1.332396e-01
1.460748e-01
1.583271e-01
1.700009e-01
1.811010e-01
1.916322e-01
2.015986e-01
2.110042e-01
2.198519e-01
2.281438e-01
2.358805e-01
2.430596e-01
2.496744e-01
2.557122e-01
2.611521e-01
2.659637e-01
2.701065e-01
2.735331e-01
2.761961e-01
2.780625e-01
2.791348e-01
2.794826e-01
2.792832e-01
2.788673e-01
0.000000e+00
1.854121e-02
3.810634e-02
5.820683e-02
7.825992e-02
9.782697e-02
1.167403e-01
1.349393e-01
1.524074e-01
1.691427e-01
1.851485e-01
2.004283e-01
2.149851e-01
2.288204e-01
2.419346e-01
2.543265e-01
2.659938e-01
2.769326e-01
2.871377e-01
2.966017e-01
3.053151e-01
3.132658e-01
3.204386e-01
3.268155e-01
3.323761e-01
3.370996e-01
3.409683e-01
3.439734e-01
3.461241e-01
3.474607e-01
3.480755e-01
3.481488e-01
3.480109e-01
0.000000e+00
2.337305e-02
4.811967e-02
7.331612e-02
9.780009e-02
1.213826e-01
1.440483e-01
1.658178e-01
1.867090e-01
2.067330e-01
2.258952e-01
2.441971e-01
2.616374e-01
2.782129e-01
2.939183e-01
3.087466e-01
3.226886e-01
3.357330e-01
3.478659e-01
3.590712e-01
3.693305e-01
3.786238e-01
3.869310e-01
3.942334e-01
4.005171e-01
4.057775e-01
4.100240e-01
4.132865e-01
4.156215e-01
4.171169e-01
4.178997e-01
4.181546e-01
4.181851e-01
0.000000e+00
2.946870e-02
6.131412e-02
9.134283e-02
1.198870e-01
1.472181e-01
1.734802e-01
1.987358e-01
2.230082e-01
2.463032e-01
2.686181e-01
2.899467e-01
3.102811e-01
3.296119e-01
3.479282e-01
3.652169e-01
3.814622e-01
3.966450e-01
4.107425e-01
4.237282e-01
4.355721e-01
4.462422e-01
4.557071e-01
4.639396e-01
4.709227e-01
4.766567e-01
4.811688e-01
4.845224e-01
4.868261e-01
4.882377e-01
4.889589e-01
4.892204e-01
4.892844e-01
0.000000e+00
4.394710e-02
7.974334e-02
1.129094e-01
1.447449e-01
1.754923e-01
2.052136e-01
2.339057e-01
2.615498e-01
2.881237e-01
3.136070e-01
3.379818e-01
3.612326e-01
3.833446e-01
4.043022e-01
4.240880e-01
4.426810e-01
4.600551e-01
4.761788e-01
4.910137e-01
5.045153e-01
5.166338e-01
5.273172e-01
5.365166e-01
5.441939e-01
5.503337e-01
5.549577e-01
5.581433e-01
5.600420e-01
5.608975e-01
5.610530e-01
5.609242e-01
5.608517e-01
0.000000e+00
-2.714993e-02
-4.738249e-02
-6.946109e-02
-9.404692e-02
-1.218191e-01
-1.529705e-01
-1.875555e-01
-2.255394e-01
-2.668410e-01
-3.113507e-01
-3.589425e-01
-4.094808e-01
-4.628240e-01
-5.188279e-01
-5.773473e-01
-6.382377e-01
-7.013573e-01
-7.665689e-01
-8.337434e-01
-9.027638e-01
-9.735320e-01
-1.045978e+00
-1.120072e+00
-1.195854e+00
-1.273462e+00
-1.353205e+00
-1.435686e+00
-1.522055e+00
-1.614592e+00
-1.718218e+00
-1.844536e+00
-2.019050e+00
0.000000e+00
-1.687265e-02
-3.805080e-02
-6.027834e-02
-8.520685e-02
-1.132807e-01
-1.447349e-01
-1.796225e-01
-2.179122e-01
-2.595224e-01
-3.043432e-01
-3.522475e-01
-4.030985e-01
-4.567534e-01
-5.130667e-01
-5.718916e-01
-6.330821e-01
-6.964939e-01
-7.619876e-01
-8.294306e-01
-8.987019e-01
-9.696982e-01
-1.042343e+00
-1.116600e+00
-1.192496e+00
-1.270158e+00
-1.349879e+00
-1.432243e+00
-1.518377e+00
-1.610522e+00
-1.713347e+00
-1.836854e+00
-1.999894e+00
0.000000e+00
-1.239393e-02
-3.067638e-02
-5.260069e-02
-7.757276e-02
-1.058535e-01
-1.375559e-01
-1.727095e-01
-2.112718e-01
-2.531577e-01
-2.982553e-01
-3.464364e-01
-3.975637e-01
-4.514939e-01
-5.080809e-01
-5.671775e-01
-6.286366e-01
-6.923136e-01
-7.580677e-01
-8.257655e-01
-8.952849e-01
-9.665217e-01
-1.039399e+00
-1.113882e+00
-1.190000e+00
-1.267889e+00
-1.347854e+00
-1.430492e+00
-1.516917e+00
-1.609149e+00
-1.710636e+00
-1.825454e+00
-1.952821e+00
0.000000e+00
-9.924535e-03
-2.597670e-02
-4.673190e-02
-7.138304e-02
-9.965500e-02
-1.314930e-01
-1.668435e-01
-2.056303e-01
-2.477524e-01
-2.930909e-01
-3.415145e-01
-3.928846e-01
-4.470577e-01
-5.038879e-01
-5.632282e-01
-6.249323e-01
-6.888557e-01
-7.548588e-01
-8.228089e-01
-8.925859e-01
-9.640879e-01
-1.037242e+00
-1.112018e+00
-1.188455e+00
-1.266692e+00
-1.347034e+00
-1.430030e+00
-1.516591e+00
-1.608050e+00
-1.705677e+00
-1.808644e+00
-1.904495e+00
0.000000e+00
-8.397790e-03
-2.290328e-02
-4.256437e-02
-6.665356e-02
-9.474016e-02
-1.265902e-01
-1.620555e-01
-2.010080e-01
-2.433204e-01
-2.888604e-01
-3.374907e-01
-3.890701e-01
-4.434548e-01
-5.004994e-01
-5.600579e-01
-6.219855e-01
-6.861394e-01
-7.523817e-01
-8.205822e-01
-8.906233e-01
-9.624062e-01
-1.035861e+00
-1.110960e+00
-1.187739e+00
-1.266320e+00
-1.346951e+00
-1.430028e+00
-1.516075e+00
-1.605515e+00
-1.697921e+00
-1.789900e+00
-1.873376e+00
0.000000e+00
-7.426308e-03
-2.088674e-02
-3.969645e-02
-6.324339e-02
-9.106689e-02
-1.228477e-01
-1.583584e-01
-1.974200e-01
-2.398749e-01
-2.855746e-01
-3.343735e-01
-3.861271e-01
-4.406909e-01
-4.979201e-01
-5.576703e-01
-6.197985e-01
-6.841642e-01
-7.506314e-01
-8.190723e-01
-8.893707e-01
-9.614285e-01
-1.035174e+00
-1.110571e+00
-1.187633e+00
-1.266434e+00
-1.347113e+00
-1.429845e+00
-1.514725e+00
-1.601467e+00
-1.688750e+00
-1.773454e+00
-1.850873e+00
0.000000e+00
-6.822543e-03
-1.961178e-02
-3.783225e-02
-6.095883e-02
-8.854256e-02
-1.202290e-01
-1.557441e-01
-1.948702e-01
-2.374238e-01
-2.832411e-01
-3.321689e-01
-3.840592e-01
-4.387668e-01
-4.961480e-01
-5.560598e-01
-6.183611e-01
-6.829135e-01
-7.495826e-01
-8.182411e-01
-8.887722e-01
-9.610737e-01
-1.035064e+00
-1.110687e+00
-1.187917e+00
-1.266755e+00
-1.347208e+00
-1.429230e+00
-1.512585e+00
-1.596594e+00
-1.679803e+00
-1.759815e+00
-1.833688e+00
0.000000e+00
-6.490765e-03
-1.890433e-02
-3.678173e-02
-5.964883e-02
-8.707216e-02
-1.186859e-01
-1.541932e-01
-1.933541e-01
-2.359688e-01
-2.818632e-01
-3.308788e-01
-3.828657e-01
-4.376786e-01
-4.951747e-01
-5.552129e-01
-6.176536e-01
-6.823596e-01
-7.491969e-01
-8.180371e-01
-8.887590e-01
-9.612516e-01
-1.035416e+00
-1.111167e+00
-1.188429e+00
-1.267121e+00
-1.347129e+00
-1.428233e+00
-1.510002e+00
-1.591631e+00
-1.671808e+00
-1.748730e+00
-1.820391e+00
0.000000e+00
-6.383867e-03
-1.867609e-02
-3.644124e-02
-5.922188e-02
-8.659093e-02
-1.181804e-01
-1.536872e-01
-1.928646e-01
-2.355078e-01
-2.814398e-01
-3.305010e-01
-3.825418e-01
-4.374177e-01
-4.949873e-01
-5.551111e-01
-6.176505e-01
-6.824687e-01
-7.494309e-01
-8.184051e-01
-8.892629e-01
-9.618802e-01
-1.036137e+00
-1.111912e+00
-1.189079e+00
-1.267483e+00
-1.346912e+00
-1.427038e+00
-1.507344e+00
-1.587039e+00
-1.665013e+00
-1.739890e+00
-1.810200e+00
0.000000e+00
-6.487673e-03
-1.890004e-02
-3.677803e-02
-5.964771e-02
-8.707609e-02
-1.186980e-01
-1.542180e-01
-1.933972e-01
-2.360376e-01
-2.819673e-01
-3.310303e-01
-3.830794e-01
-4.379726e-01
-4.955700e-01
-5.557332e-01
-6.183245e-01
-6.832063e-01
-7.502418e-01
-8.192937e-01
-8.902245e-01
-9.628948e-01
-1.037160e+00
-1.112867e+00
-1.189839e+00
-1.267864e+00
-1.346661e+00
-1.425847e+00
-1.504888e+00
-1.583065e+00
-1.659463e+00
-1.733017e+00
-1.802605e+00
0.000000e+00
-6.816609e-03
-1.960354e-02
-3.782512e-02
-6.095659e-02
-8.854993e-02
-1.202521e-01
-1.557913e-01
-1.949524e-01
-2.375553e-01
-2.834404e-01
-3.324590e-01
-3.844689e-01
-4.393306e-01
-4.969063e-01
-5.570584e-01
-6.196494e-01
-6.845405e-01
-7.515917e-01
-8.206600e-01
-8.915977e-01
-9.642498e-01
-1.038449e+00
-1.114011e+00
-1.190721e+00
-1.268321e+00
-1.346491e+00
-1.424825e+00
-1.502811e+00
-1.579819e+00
-1.655110e+00
-1.727862e+00
-1.797213e+00
0.000000e+00
-7.418061e-03
-2.087529e-02
-3.968650e-02
-6.324017e-02
-9.107698e-02
-1.228797e-01
-1.584240e-01
-1.975345e-01
-2.400583e-01
-2.858526e-01
-3.347787e-01
-3.866997e-01
-4.414793e-01
-4.989812e-01
-5.590686e-01
-6.216033e-01
-6.864454e-01
-7.534512e-01
-8.224719e-01
-8.933502e-01
-9.659171e-01
-1.039986e+00
-1.115346e+00
-1.191753e+00
-1.268919e+00
-1.346502e+00
-1.424093e+00
-1.501217e+00
-1.577334e+00
-1.651860e+00
-1.724185e+00
-1.793679e+00
0.000000e+00
-8.388075e-03
-2.288981e-02
-4.255265e-02
-6.664984e-02
-9.475237e-02
-1.266288e-01
-1.621346e-01
-2.011462e-01
-2.435419e-01
-2.891964e-01
-3.379805e-01
-3.897625e-01
-4.444086e-01
-5.017834e-01
-5.617504e-01
-6.241709e-01
-6.889032e-01
-7.558005e-01
-8.247089e-01
-8.954631e-01
-9.678825e-01
-1.041765e+00
-1.116881e+00
-1.192966e+00
-1.269712e+00
-1.346764e+00
-1.423724e+00
-1.500151e+00
-1.575590e+00
-1.649592e+00
-1.721743e+00
-1.791656e+00
0.000000e+00
-9.914551e-03
-2.596287e-02
-4.671998e-02
-7.137984e-02
-9.966933e-02
-1.315366e-01
-1.669318e-01
-2.057840e-01
-2.479983e-01
-2.934634e-01
-3.420571e-01
-3.936509e-01
-4.481125e-01
-5.053070e-01
-5.650978e-01
-6.273452e-01
-6.919061e-01
-7.586313e-01
-8.273626e-01
-8.979291e-01
-9.701420e-01
-1.043789e+00
-1.118628e+00
-1.194380e+00
-1.270728e+00
-1.347313e+00
-1.423744e+00
-1.499614e+00
-1.574532e+00
-1.648166e+00
-1.720285e+00
-1.790775e+00
0.000000e+00
-1.238523e-02
-3.066426e-02
-5.259063e-02
-7.757180e-02
-1.058709e-01
-1.376040e-01
-1.728045e-01
-2.114351e-01
-2.534171e-01
-2.986463e-01
-3.470039e-01
-3.983628e-01
-4.525910e-01
-5.095536e-01
-5.691133e-01
-6.311297e-01
-6.954583e-01
-7.619480e-01
-8.304380e-01
-9.007537e-01
-9.727016e-01
-1.046063e+00
-1.120591e+00
-1.196000e+00
-1.271968e+00
-1.348138e+00
-1.424128e+00
-1.499553e+00
-1.574069e+00
-1.647427e+00
-1.719553e+00
-1.790621e+00
0.000000e+00
-1.686706e-02
-3.804256e-02
-6.027242e-02
-8.521051e-02
-1.133035e-01
-1.447891e-01
-1.797245e-01
-2.180832e-01
-2.597901e-01
-3.047426e-01
-3.528226e-01
-4.039030e-01
-4.578515e-01
-5.145330e-01
-5.738093e-01
-6.355391e-01
-6.995768e-01
-7.657697e-01
-8.339553e-01
-9.039570e-01
-9.755791e-01
-1.048602e+00
-1.122775e+00
-1.197814e+00
-1.273400e+00
-1.349181e+00
-1.424785e+00
-1.499847e+00
-1.574047e+00
-1.647186e+00
-1.719288e+00
-1.790752e+00
0.000000e+00
-2.714914e-02
-4.737974e-02
-6.946161e-02
-9.405801e-02
-1.218503e-01
-1.530343e-01
-1.876678e-01
-2.257213e-01
-2.671192e-01
-3.117590e-01
-3.595228e-01
-4.102836e-01
-4.639093e-01
-5.202638e-01
-5.792085e-01
-6.406008e-01
-7.042937e-01
-7.701330e-01
-8.379543e-01
-9.075795e-01
-9.788118e-01
-1.051431e+00