TITLE = "Solution"
VARIABLES = x, y, u, v, psiu, psiv, t, stress
ZONE T="structure" N=561 E=512 F=FEBLOCK ET=QUADRILATERAL VARLOCATION=([7,8]=cellcentered)
0.000000e+00
6.250000e+00
1.250000e+01
1.875000e+01
2.500000e+01
3.125000e+01
3.750000e+01
4.375000e+01
5.000000e+01
5.625000e+01
6.250000e+01
6.875000e+01
7.500000e+01
8.125000e+01
8.750000e+01
9.375000e+01
1.000000e+02
1.062500e+02
1.125000e+02
1.187500e+02
1.250000e+02
1.312500e+02
1.375000e+02
1.437500e+02
1.500000e+02
1.562500e+02
1.625000e+02
1.687500e+02
1.750000e+02
1.812500e+02
1.875000e+02
1.937500e+02
2.000000e+02
0.000000e+00
6.250000e+00
1.250000e+01
1.875000e+01
2.500000e+01
3.125000e+01
3.750000e+01
4.375000e+01
5.000000e+01
5.625000e+01
6.250000e+01
6.875000e+01
7.500000e+01
8.125000e+01
8.750000e+01
9.375000e+01
1.000000e+02
1.062500e+02
1.125000e+02
1.187500e+02
1.250000e+02
1.312500e+02
1.375000e+02
1.437500e+02
1.500000e+02
1.562500e+02
1.625000e+02
1.687500e+02
1.750000e+02
1.812500e+02
1.875000e+02
1.937500e+02
2.000000e+02
0.000000e+00
6.250000e+00
1.250000e+01
1.875000e+01
2.500000e+01
3.125000e+01
3.750000e+01
4.375000e+01
5.000000e+01
5.625000e+01
6.250000e+01
6.875000e+01
7.500000e+01
8.125000e+01
8.750000e+01
9.375000e+01
1.000000e+02
1.062500e+02
1.125000e+02
1.187500e+02
1.250000e+02
1.312500e+02
1.375000e+02
1.437500e+02
1.500000e+02
1.562500e+02
1.625000e+02
1.687500e+02
1.750000e+02
1.812500e+02
1.875000e+02
1.937500e+02
2.000000e+02
0.000000e+00
6.250000e+00
1.250000e+01
1.875000e+01
2.500000e+01
3.125000e+01
3.750000e+01
4.375000e+01
5.000000e+01
5.625000e+01
6.250000e+01
6.875000e+01
7.500000e+01
8.125000e+01
8.750000e+01
9.375000e+01
1.000000e+02
1.062500e+02
1.125000e+02
1.187500e+02
1.250000e+02
1.312500e+02
1.375000e+02
1.437500e+02
1.500000e+02
1.562500e+02
1.625000e+02
1.687500e+02
1.750000e+02
1.812500e+02
1.875000e+02
1.937500e+02
2.000000e+02
0.000000e+00
6.250000e+00
1.250000e+01
1.875000e+01
2.500000e+01
3.125000e+01
3.750000e+01
4.375000e+01
5.000000e+01
5.625000e+01
6.250000e+01
6.875000e+01
7.500000e+01
8.125000e+01
8.750000e+01
9.375000e+01
1.000000e+02
1.062500e+02
1.125000e+02
1.187500e+02
1.250000e+02
1.312500e+02
1.375000e+02
1.437500e+02
1.500000e+02
1.562500e+02
1.625000e+02
1.687500e+02
1.750000e+02
1.812500e+02
1.875000e+02
1.937500e+02
2.000000e+02
0.000000e+00
6.250000e+00
1.250000e+01
1.875000e+01
2.500000e+01
3.125000e+01
3.750000e+01
4.375000e+01
5.000000e+01
5.625000e+01
6.250000e+01
6.875000e+01
7.500000e+01
8.125000e+01
8.750000e+01
9.375000e+01
1.000000e+02
1.062500e+02
1.125000e+02
1.187500e+02
1.250000e+02
1.312500e+02
1.375000e+02
1.437500e+02
1.500000e+02
1.562500e+02
1.625000e+02
1.687500e+02
1.750000e+02
1.812500e+02
1.875000e+02
1.937500e+02
2.000000e+02
0.000000e+00
6.250000e+00
1.250000e+01
1.875000e+01
2.500000e+01
3.125000e+01
3.750000e+01
4.375000e+01
5.000000e+01
5.625000e+01
6.250000e+01
6.875000e+01
7.500000e+01
8.125000e+01
8.750000e+01
9.375000e+01
1.000000e+02
1.062500e+02
1.125000e+02
1.187500e+02
1.250000e+02
1.312500e+02
1.375000e+02
1.437500e+02
1.500000e+02
1.562500e+02
1.625000e+02
1.687500e+02
1.750000e+02
1.812500e+02
1.875000e+02
1.937500e+02
2.000000e+02
0.000000e+00
6.250000e+00
1.250000e+01
1.875000e+01
2.500000e+01
3.125000e+01
3.750000e+01
4.375000e+01
5.000000e+01
5.625000e+01
6.250000e+01
6.875000e+01
7.500000e+01
8.125000e+01
8.750000e+01
9.375000e+01
1.000000e+02
1.062500e+02
1.125000e+02
1.187500e+02
1.250000e+02
1.312500e+02
1.375000e+02
1.437500e+02
1.500000e+02
1.562500e+02
1.625000e+02
1.687500e+02
1.750000e+02
1.812500e+02
1.875000e+02
1.937500e+02
2.000000e+02
0.000000e+00
6.250000e+00
1.250000e+01
1.875000e+01
2.500000e+01
3.125000e+01
3.750000e+01
4.375000e+01
5.000000e+01
5.625000e+01
6.250000e+01
6.875000e+01
7.500000e+01
8.125000e+01
8.750000e+01
9.375000e+01
1.000000e+02
1.062500e+02
1.125000e+02
1.187500e+02
1.250000e+02
1.312500e+02
1.375000e+02
1.437500e+02
1.500000e+02
1.562500e+02
1.625000e+02
1.687500e+02
1.750000e+02
1.812500e+02
1.875000e+02
1.937500e+02
2.000000e+02
0.000000e+00
6.250000e+00
1.250000e+01
1.875000e+01
2.500000e+01
3.125000e+01
3.750000e+01
4.375000e+01
5.000000e+01
5.625000e+01
6.250000e+01
6.875000e+01
7.500000e+01
8.125000e+01
8.750000e+01
9.375000e+01
1.000000e+02
1.062500e+02
1.125000e+02
1.187500e+02
1.250000e+02
1.312500e+02
1.375000e+02
1.437500e+02
1.500000e+02
1.562500e+02
1.625000e+02
1.687500e+02
1.750000e+02
1.812500e+02
1.875000e+02
1.937500e+02
2.000000e+02
0.000000e+00
6.250000e+00
1.250000e+01
1.875000e+01
2.500000e+01
3.125000e+01
3.750000e+01
4.375000e+01
5.000000e+01
5.625000e+01
6.250000e+01
6.875000e+01
7.500000e+01
8.125000e+01
8.750000e+01
9.375000e+01
1.000000e+02
1.062500e+02
1.125000e+02
1.187500e+02
1.250000e+02
1.312500e+02
1.375000e+02
1.437500e+02
1.500000e+02
1.562500e+02
1.625000e+02
1.687500e+02
1.750000e+02
1.812500e+02
1.875000e+02
1.937500e+02
2.000000e+02
0.000000e+00
6.250000e+00
1.250000e+01
1.875000e+01
2.500000e+01
3.125000e+01
3.750000e+01
4.375000e+01
5.000000e+01
5.625000e+01
6.250000e+01
6.875000e+01
7.500000e+01
8.125000e+01
8.750000e+01
9.375000e+01
1.000000e+02
1.062500e+02
1.125000e+02
1.187500e+02
1.250000e+02
1.312500e+02
1.375000e+02
1.437500e+02
1.500000e+02
1.562500e+02
1.625000e+02
1.687500e+02
1.750000e+02
1.812500e+02
1.875000e+02
1.937500e+02
2.000000e+02
0.000000e+00
6.250000e+00
1.250000e+01
1.875000e+01
2.500000e+01
3.125000e+01
3.750000e+01
4.375000e+01
5.000000e+01
5.625000e+01
6.250000e+01
6.875000e+01
7.500000e+01
8.125000e+01
8.750000e+01
9.375000e+01
1.000000e+02
1.062500e+02
1.125000e+02
1.187500e+02
1.250000e+02
1.312500e+02
1.375000e+02
1.437500e+02
1.500000e+02
1.562500e+02
1.625000e+02
1.687500e+02
1.750000e+02
1.812500e+02
1.875000e+02
1.937500e+02
2.000000e+02
0.000000e+00
6.250000e+00
1.250000e+01
1.875000e+01
2.500000e+01
3.125000e+01
3.750000e+01
4.375000e+01
5.000000e+01
5.625000e+01
6.250000e+01
6.875000e+01
7.500000e+01
8.125000e+01
8.750000e+01
9.375000e+01
1.000000e+02
1.062500e+02
1.125000e+02
1.187500e+02
1.250000e+02
1.312500e+02
1.375000e+02
1.437500e+02
1.500000e+02
1.562500e+02
1.625000e+02
1.687500e+02
1.750000e+02
1.812500e+02
1.875000e+02
1.937500e+02
2.000000e+02
0.000000e+00
6.250000e+00
1.250000e+01
1.875000e+01
2.500000e+01
3.125000e+01
3.750000e+01
4.375000e+01
5.000000e+01
5.625000e+01
6.250000e+01
6.875000e+01
7.500000e+01
8.125000e+01
8.750000e+01
9.375000e+01
1.000000e+02
1.062500e+02
1.125000e+02
1.187500e+02
1.250000e+02
1.312500e+02
1.375000e+02
1.437500e+02
1.500000e+02
1.562500e+02
1.625000e+02
1.687500e+02
1.750000e+02
1.812500e+02
1.875000e+02
1.937500e+02
2.000000e+02
0.000000e+00
6.250000e+00
1.250000e+01
1.875000e+01
2.500000e+01
3.125000e+01
3.750000e+01
4.375000e+01
5.000000e+01
5.625000e+01
6.250000e+01
6.875000e+01
7.500000e+01
8.125000e+01
8.750000e+01
9.375000e+01
1.000000e+02
1.062500e+02
1.125000e+02
1.187500e+02
1.250000e+02
1.312500e+02
1.375000e+02
1.437500e+02
1.500000e+02
1.562500e+02
1.625000e+02
1.687500e+02
1.750000e+02
1.812500e+02
1.875000e+02
1.937500e+02
2.000000e+02
0.000000e+00
6.250000e+00
1.250000e+01
1.875000e+01
2.500000e+01
3.125000e+01
3.750000e+01
4.375000e+01
5.000000e+01
5.625000e+01
6.250000e+01
6.875000e+01
7.500000e+01
8.125000e+01
8.750000e+01
9.375000e+01
1.000000e+02
1.062500e+02
1.125000e+02
1.187500e+02
1.250000e+02
1.312500e+02
1.375000e+02
1.437500e+02
1.500000e+02
1.562500e+02
1.625000e+02
1.687500e+02
1.750000e+02
1.812500e+02
1.875000e+02
1.937500e+02
2.000000e+02
0.000000e+00
0.000000e+00
0.000000e+00
0.000000e+00
0.000000e+00
0.000000e+00
0.000000e+00
0.000000e+00
0.000000e+00
0.000000e+00
0.000000e+00
0.000000e+00
0.000000e+00
0.000000e+00
0.000000e+00
0.000000e+00
0.000000e+00
0.000000e+00
0.000000e+00
0.000000e+00
0.000000e+00
0.000000e+00
0.000000e+00
0.000000e+00
0.000000e+00
0.000000e+00
0.000000e+00
0.000000e+00
0.000000e+00
0.000000e+00
0.000000e+00
0.000000e+00
0.000000e+00
6.250000e+00
6.250000e+00
6.250000e+00
6.250000e+00
6.250000e+00
6.250000e+00
6.250000e+00
6.250000e+00
6.250000e+00
6.250000e+00
6.250000e+00
6.250000e+00
6.250000e+00
6.250000e+00
6.250000e+00
6.250000e+00
6.250000e+00
6.250000e+00
6.250000e+00
6.250000e+00
6.250000e+00
6.250000e+00
6.250000e+00
6.250000e+00
6.250000e+00
6.250000e+00
6.250000e+00
6.250000e+00
6.250000e+00
6.250000e+00
6.250000e+00
6.250000e+00
6.250000e+00
1.250000e+01
1.250000e+01
1.250000e+01
1.250000e+01
1.250000e+01
1.250000e+01
1.250000e+01
1.250000e+01
1.250000e+01
1.250000e+01
1.250000e+01
1.250000e+01
1.250000e+01
1.250000e+01
1.250000e+01
1.250000e+01
1.250000e+01
1.250000e+01
1.250000e+01
1.250000e+01
1.250000e+01
1.250000e+01
1.250000e+01
1.250000e+01
1.250000e+01
1.250000e+01
1.250000e+01
1.250000e+01
1.250000e+01
1.250000e+01
1.250000e+01
1.250000e+01
1.250000e+01
1.875000e+01
1.875000e+01
1.875000e+01
1.875000e+01
1.875000e+01
1.875000e+01
1.875000e+01
1.875000e+01
1.875000e+01
1.875000e+01
1.875000e+01
1.875000e+01
1.875000e+01
1.875000e+01
1.875000e+01
1.875000e+01
1.875000e+01
1.875000e+01
1.875000e+01
1.875000e+01
1.875000e+01
1.875000e+01
1.875000e+01
1.875000e+01
1.875000e+01
1.875000e+01
1.875000e+01
1.875000e+01
1.875000e+01
1.875000e+01
1.875000e+01
1.875000e+01
1.875000e+01
2.500000e+01
2.500000e+01
2.500000e+01
2.500000e+01
2.500000e+01
2.500000e+01
2.500000e+01
2.500000e+01
2.500000e+01
2.500000e+01
2.500000e+01
2.500000e+01
2.500000e+01
2.500000e+01
2.500000e+01
2.500000e+01
2.500000e+01
2.500000e+01
2.500000e+01
2.500000e+01
2.500000e+01
2.500000e+01
2.500000e+01
2.500000e+01
2.500000e+01
2.500000e+01
2.500000e+01
2.500000e+01
2.500000e+01
2.500000e+01
2.500000e+01
2.500000e+01
2.500000e+01
3.125000e+01
3.125000e+01
3.125000e+01
3.125000e+01
3.125000e+01
3.125000e+01
3.125000e+01
3.125000e+01
3.125000e+01
3.125000e+01
3.125000e+01
3.125000e+01
3.125000e+01
3.125000e+01
3.125000e+01
3.125000e+01
3.125000e+01
3.125000e+01
3.125000e+01
3.125000e+01
3.125000e+01
3.125000e+01
3.125000e+01
3.125000e+01
3.125000e+01
3.125000e+01
3.125000e+01
3.125000e+01
3.125000e+01
3.125000e+01
3.125000e+01
3.125000e+01
3.125000e+01
3.750000e+01
3.750000e+01
3.750000e+01
3.750000e+01
3.750000e+01
3.750000e+01
3.750000e+01
3.750000e+01
3.750000e+01
3.750000e+01
3.750000e+01
3.750000e+01
3.750000e+01
3.750000e+01
3.750000e+01
3.750000e+01
3.750000e+01
3.750000e+01
3.750000e+01
3.750000e+01
3.750000e+01
3.750000e+01
3.750000e+01
3.750000e+01
3.750000e+01
3.750000e+01
3.750000e+01
3.750000e+01
3.750000e+01
3.750000e+01
3.750000e+01
3.750000e+01
3.750000e+01
4.375000e+01
4.375000e+01
4.375000e+01
4.375000e+01
4.375000e+01
4.375000e+01
4.375000e+01
4.375000e+01
4.375000e+01
4.375000e+01
4.375000e+01
4.375000e+01
4.375000e+01
4.375000e+01
4.375000e+01
4.375000e+01
4.375000e+01
4.375000e+01
4.375000e+01
4.375000e+01
4.375000e+01
4.375000e+01
4.375000e+01
4.375000e+01
4.375000e+01
4.375000e+01
4.375000e+01
4.375000e+01
4.375000e+01
4.375000e+01
4.375000e+01
4.375000e+01
4.375000e+01
5.000000e+01
5.000000e+01
5.000000e+01
5.000000e+01
5.000000e+01
5.000000e+01
5.000000e+01
5.000000e+01
5.000000e+01
5.000000e+01
5.000000e+01
5.000000e+01
5.000000e+01
5.000000e+01
5.000000e+01
5.000000e+01
5.000000e+01
5.000000e+01
5.000000e+01
5.000000e+01
5.000000e+01
5.000000e+01
5.000000e+01
5.000000e+01
5.000000e+01
5.000000e+01
5.000000e+01
5.000000e+01
5.000000e+01
5.000000e+01
5.000000e+01
5.000000e+01
5.000000e+01
5.625000e+01
5.625000e+01
5.625000e+01
5.625000e+01
5.625000e+01
5.625000e+01
5.625000e+01
5.625000e+01
5.625000e+01
5.625000e+01
5.625000e+01
5.625000e+01
5.625000e+01
5.625000e+01
5.625000e+01
5.625000e+01
5.625000e+01
5.625000e+01
5.625000e+01
5.625000e+01
5.625000e+01
5.625000e+01
5.625000e+01
5.625000e+01
5.625000e+01
5.625000e+01
5.625000e+01
5.625000e+01
5.625000e+01
5.625000e+01
5.625000e+01
5.625000e+01
5.625000e+01
6.250000e+01
6.250000e+01
6.250000e+01
6.250000e+01
6.250000e+01
6.250000e+01
6.250000e+01
6.250000e+01
6.250000e+01
6.250000e+01
6.250000e+01
6.250000e+01
6.250000e+01
6.250000e+01
6.250000e+01
6.250000e+01
6.250000e+01
6.250000e+01
6.250000e+01
6.250000e+01
6.250000e+01
6.250000e+01
6.250000e+01
6.250000e+01
6.250000e+01
6.250000e+01
6.250000e+01
6.250000e+01
6.250000e+01
6.250000e+01
6.250000e+01
6.250000e+01
6.250000e+01
6.875000e+01
6.875000e+01
6.875000e+01
6.875000e+01
6.875000e+01
6.875000e+01
6.875000e+01
6.875000e+01
6.875000e+01
6.875000e+01
6.875000e+01
6.875000e+01
6.875000e+01
6.875000e+01
6.875000e+01
6.875000e+01
6.875000e+01
6.875000e+01
6.875000e+01
6.875000e+01
6.875000e+01
6.875000e+01
6.875000e+01
6.875000e+01
6.875000e+01
6.875000e+01
6.875000e+01
6.875000e+01
6.875000e+01
6.875000e+01
6.875000e+01
6.875000e+01
6.875000e+01
7.500000e+01
7.500000e+01
7.500000e+01
7.500000e+01
7.500000e+01
7.500000e+01
7.500000e+01
7.500000e+01
7.500000e+01
7.500000e+01
7.500000e+01
7.500000e+01
7.500000e+01
7.500000e+01
7.500000e+01
7.500000e+01
7.500000e+01
7.500000e+01
7.500000e+01
7.500000e+01
7.500000e+01
7.500000e+01
7.500000e+01
7.500000e+01
7.500000e+01
7.500000e+01
7.500000e+01
7.500000e+01
7.500000e+01
7.500000e+01
7.500000e+01
7.500000e+01
7.500000e+01
8.125000e+01
8.125000e+01
8.125000e+01
8.125000e+01
8.125000e+01
8.125000e+01
8.125000e+01
8.125000e+01
8.125000e+01
8.125000e+01
8.125000e+01
8.125000e+01
8.125000e+01
8.125000e+01
8.125000e+01
8.125000e+01
8.125000e+01
8.125000e+01
8.125000e+01
8.125000e+01
8.125000e+01
8.125000e+01
8.125000e+01
8.125000e+01
8.125000e+01
8.125000e+01
8.125000e+01
8.125000e+01
8.125000e+01
8.125000e+01
8.125000e+01
8.125000e+01
8.125000e+01
8.750000e+01
8.750000e+01
8.750000e+01
8.750000e+01
8.750000e+01
8.750000e+01
8.750000e+01
8.750000e+01
8.750000e+01
8.750000e+01
8.750000e+01
8.750000e+01
8.750000e+01
8.750000e+01
8.750000e+01
8.750000e+01
8.750000e+01
8.750000e+01
8.750000e+01
8.750000e+01
8.750000e+01
8.750000e+01
8.750000e+01
8.750000e+01
8.750000e+01
8.750000e+01
8.750000e+01
8.750000e+01
8.750000e+01
8.750000e+01
8.750000e+01
8.750000e+01
8.750000e+01
9.375000e+01
9.375000e+01
9.375000e+01
9.375000e+01
9.375000e+01
9.375000e+01
9.375000e+01
9.375000e+01
9.375000e+01
9.375000e+01
9.375000e+01
9.375000e+01
9.375000e+01
9.375000e+01
9.375000e+01
9.375000e+01
9.375000e+01
9.375000e+01
9.375000e+01
9.375000e+01
9.375000e+01
9.375000e+01
9.375000e+01
9.375000e+01
9.375000e+01
9.375000e+01
9.375000e+01
9.375000e+01
9.375000e+01
9.375000e+01
9.375000e+01
9.375000e+01
9.375000e+01
1.000000e+02
1.000000e+02
1.000000e+02
1.000000e+02
1.000000e+02
1.000000e+02
1.000000e+02
1.000000e+02
1.000000e+02
1.000000e+02
1.000000e+02
1.000000e+02
1.000000e+02
1.000000e+02
1.000000e+02
1.000000e+02
1.000000e+02
1.000000e+02
1.000000e+02
1.000000e+02
1.000000e+02
1.000000e+02
1.000000e+02
1.000000e+02
1.000000e+02
1.000000e+02
1.000000e+02
1.000000e+02
1.000000e+02
1.000000e+02
1.000000e+02
1.000000e+02
1.000000e+02
0.000000e+00
-4.716988e-01
-7.821794e-01
-1.122018e+00
-1.423862e+00
-1.715959e+00
-2.027556e+00
-2.315269e+00
-2.615139e+00
-2.908788e+00
-3.206079e+00
-3.504981e+00
-3.804162e+00
-4.104141e+00
-4.404062e+00
-4.705635e+00
-5.007824e+00
-5.310787e+00
-5.613340e+00
-5.915450e+00
-6.217790e+00
-6.519618e+00
-6.822074e+00
-7.120021e+00
-7.413744e+00
-7.718393e+00
-8.018000e+00
-8.348366e+00
-8.667921e+00
-9.021736e+00
-9.509806e+00
-9.926464e+00
-1.013075e+01
0.000000e+00
-2.334621e-01
-4.703766e-01
-7.358365e-01
-1.001868e+00
-1.254631e+00
-1.524476e+00
-1.784796e+00
-2.047276e+00
-2.312324e+00
-2.572712e+00
-2.837889e+00
-3.098300e+00
-3.362115e+00
-3.623596e+00
-3.885725e+00
-4.148266e+00
-4.408916e+00
-4.671764e+00
-4.931975e+00
-5.194210e+00
-5.454517e+00
-5.716074e+00
-5.976237e+00
-6.237540e+00
-6.498470e+00
-6.758082e+00
-7.022132e+00
-7.276657e+00
-7.533817e+00
-7.787681e+00
-7.888625e+00
-7.994436e+00
0.000000e+00
-1.031972e-01
-2.386636e-01
-4.350780e-01
-6.534634e-01
-8.607936e-01
-1.086849e+00
-1.314013e+00
-1.541084e+00
-1.772686e+00
-1.996400e+00
-2.223966e+00
-2.446200e+00
-2.671287e+00
-2.894838e+00
-3.117143e+00
-3.339914e+00
-3.560768e+00
-3.784384e+00
-4.006803e+00
-4.231513e+00
-4.454753e+00
-4.678990e+00
-4.907422e+00
-5.137265e+00
-5.360174e+00
-5.572693e+00
-5.770194e+00
-5.949756e+00
-6.098792e+00
-6.185934e+00
-6.191391e+00
-6.284283e+00
0.000000e+00
-1.024854e-01
-1.860319e-01
-3.407536e-01
-4.637340e-01
-6.187044e-01
-7.957158e-01
-9.652096e-01
-1.158095e+00
-1.335934e+00
-1.521058e+00
-1.703935e+00
-1.886017e+00
-2.071549e+00
-2.255480e+00
-2.440998e+00
-2.626231e+00
-2.813551e+00
-3.003287e+00
-3.194583e+00
-3.388348e+00
-3.581494e+00
-3.775576e+00
-3.970174e+00
-4.156114e+00
-4.330327e+00
-4.480116e+00
-4.612474e+00
-4.713399e+00
-4.776692e+00
-4.791781e+00
-4.809013e+00
-4.889540e+00
0.000000e+00
-9.293831e-02
-1.843981e-01
-2.753486e-01
-3.886170e-01
-5.044033e-01
-6.365524e-01
-7.708602e-01
-9.156941e-01
-1.056924e+00
-1.202930e+00
-1.348564e+00
-1.492130e+00
-1.641280e+00
-1.784858e+00
-1.934505e+00
-2.080757e+00
-2.230029e+00
-2.379758e+00
-2.528470e+00
-2.678699e+00
-2.824934e+00
-2.969255e+00
-3.106537e+00
-3.234868e+00
-3.348993e+00
-3.446088e+00
-3.520214e+00
-3.568758e+00
-3.593109e+00
-3.596442e+00
-3.626333e+00
-3.697875e+00
0.000000e+00
-7.435552e-02
-1.457748e-01
-2.207332e-01
-3.021215e-01
-3.915579e-01
-4.863044e-01
-5.875457e-01
-6.912658e-01
-7.990499e-01
-9.065549e-01
-1.015303e+00
-1.124130e+00
-1.232239e+00
-1.341617e+00
-1.449786e+00
-1.559014e+00
-1.667199e+00
-1.775056e+00
-1.881658e+00
-1.985683e+00
-2.086568e+00
-2.181441e+00
-2.269009e+00
-2.346559e+00
-2.412167e+00
-2.463524e+00
-2.498523e+00
-2.521002e+00
-2.521278e+00
-2.516656e+00
-2.543264e+00
-2.609131e+00
0.000000e+00
-5.123024e-02
-1.019160e-01
-1.537291e-01
-2.091330e-01
-2.684298e-01
-3.317984e-01
-3.981871e-01
-4.673732e-01
-5.380260e-01
-6.096747e-01
-6.814325e-01
-7.530050e-01
-8.243758e-01
-8.952392e-01
-9.658781e-01
-1.035718e+00
-1.104697e+00
-1.172163e+00
-1.237510e+00
-1.299859e+00
-1.357820e+00
-1.410002e+00
-1.454581e+00
-1.490481e+00
-1.515498e+00
-1.529342e+00
-1.534502e+00
-1.518239e+00
-1.488733e+00
-1.477657e+00
-1.501176e+00
-1.565608e+00
0.000000e+00
-2.700261e-02
-5.385438e-02
-8.128111e-02
-1.099934e-01
-1.404442e-01
-1.725197e-01
-2.060676e-01
-2.406601e-01
-2.759637e-01
-3.114406e-01
-3.467431e-01
-3.815845e-01
-4.157930e-01
-4.493306e-01
-4.820179e-01
-5.136656e-01
-5.438621e-01
-5.722586e-01
-5.983420e-01
-6.214106e-01
-6.406043e-01
-6.546728e-01
-6.626798e-01
-6.629880e-01
-6.562136e-01
-6.401729e-01
-6.018351e-01
-5.521529e-01
-5.009307e-01
-4.746032e-01
-4.979460e-01
-5.650289e-01
0.000000e+00
-1.984133e-03
-4.015243e-03
-6.007694e-03
-7.850155e-03
-9.419014e-03
-1.064832e-02
-1.153543e-02
-1.212194e-02
-1.238464e-02
-1.223062e-02
-1.151640e-02
-1.009586e-02
-7.800222e-03
-4.413696e-03
1.835404e-04
6.239259e-03
1.415675e-02
2.403522e-02
3.580107e-02
4.995591e-02
6.689932e-02
8.648784e-02
1.112706e-01
1.418938e-01
1.828856e-01
2.427717e-01
3.147372e-01
3.879506e-01
4.390582e-01
4.548396e-01
4.225832e-01
3.431117e-01
0.000000e+00
2.318232e-02
4.613944e-02
6.974566e-02
9.495479e-02
1.224735e-01
1.523550e-01
1.843538e-01
2.179346e-01
2.526601e-01
2.881649e-01
3.243011e-01
3.610602e-01
3.988455e-01
4.381668e-01
4.793909e-01
5.229655e-01
5.687694e-01
6.166722e-01
6.660752e-01
7.161474e-01
7.676180e-01
8.229183e-01
8.820985e-01
9.496994e-01
1.032887e+00
1.122570e+00
1.213886e+00
1.288128e+00
1.331949e+00
1.329370e+00
1.283921e+00
1.221138e+00
0.000000e+00
4.780851e-02
9.508456e-02
1.435967e-01
1.960360e-01
2.531275e-01
3.150482e-01
3.807245e-01
4.493612e-01
5.196513e-01
5.907529e-01
6.618429e-01
7.329503e-01
8.047458e-01
8.783373e-01
9.553650e-01
1.036250e+00
1.120045e+00
1.205526e+00
1.292428e+00
1.381756e+00
1.471462e+00
1.563725e+00
1.666275e+00
1.775013e+00
1.885849e+00
1.995354e+00
2.084596e+00
2.148809e+00
2.175481e+00
2.167867e+00
2.137837e+00
2.093743e+00
0.000000e+00
7.138091e-02
1.400743e-01
2.127069e-01
2.922468e-01
3.807272e-01
4.758223e-01
5.771430e-01
6.817274e-01
7.895970e-01
8.979610e-01
1.006830e+00
1.115347e+00
1.224222e+00
1.334053e+00
1.444672e+00
1.558727e+00
1.675801e+00
1.795197e+00
1.917851e+00
2.046398e+00
2.182565e+00
2.324685e+00
2.466899e+00
2.604995e+00
2.734119e+00
2.846317e+00
2.935509e+00
2.991324e+00
3.019475e+00
3.022979e+00
3.004943e+00
2.977373e+00
0.000000e+00
9.016568e-02
1.790583e-01
2.689957e-01
3.829246e-01
5.018773e-01
6.345065e-01
7.722739e-01
9.160587e-01
1.059819e+00
1.206531e+00
1.353280e+00
1.500700e+00
1.651944e+00
1.803017e+00
1.957992e+00
2.113842e+00
2.274015e+00
2.439078e+00
2.605391e+00
2.774489e+00
2.946210e+00
3.116233e+00
3.280848e+00
3.434128e+00
3.574999e+00
3.695677e+00
3.786789e+00
3.853455e+00
3.892696e+00
3.905666e+00
3.899151e+00
3.884638e+00
0.000000e+00
9.878215e-02
1.797693e-01
3.319327e-01
4.590303e-01
6.218993e-01
8.041933e-01
9.740514e-01
1.167626e+00
1.345301e+00
1.528797e+00
1.709141e+00
1.891979e+00
2.081562e+00
2.275665e+00
2.476720e+00
2.680246e+00
2.886027e+00
3.096319e+00
3.309490e+00
3.519978e+00
3.724608e+00
3.920831e+00
4.105347e+00
4.280084e+00
4.437612e+00
4.572865e+00
4.679797e+00
4.756393e+00
4.804217e+00
4.826444e+00
4.829268e+00
4.824532e+00
0.000000e+00
1.009318e-01
2.322265e-01
4.209347e-01
6.377985e-01
8.475943e-01
1.078881e+00
1.309753e+00
1.539428e+00
1.774225e+00
1.998262e+00
2.224493e+00
2.446356e+00
2.672731e+00
2.901049e+00
3.132441e+00
3.365776e+00
3.596694e+00
3.828429e+00
4.061046e+00
4.295298e+00
4.524255e+00
4.744981e+00
4.966176e+00
5.176773e+00
5.363081e+00
5.512753e+00
5.627554e+00
5.710083e+00
5.762989e+00
5.790704e+00
5.799767e+00
5.800882e+00
0.000000e+00
2.337714e-01
4.716573e-01
7.364370e-01
1.001859e+00
1.254123e+00
1.523213e+00
1.783851e+00
2.045762e+00
2.310412e+00
2.570311e+00
2.834470e+00
3.093970e+00
3.355904e+00
3.615770e+00
3.875533e+00
4.135420e+00
4.392857e+00
4.650571e+00
4.904686e+00
5.159965e+00
5.413488e+00
5.666795e+00
5.925092e+00
6.168530e+00
6.369314e+00
6.526883e+00
6.643785e+00
6.724047e+00
6.773283e+00
6.798437e+00
6.807548e+00
6.809787e+00
0.000000e+00
4.729070e-01
7.892968e-01
1.134399e+00
1.439250e+00
1.729564e+00
2.037719e+00
2.322635e+00
2.619729e+00
2.910437e+00
3.205990e+00
3.505155e+00
3.802544e+00
4.100174e+00
4.393181e+00
4.684201e+00
4.972419e+00
5.261881e+00
5.552174e+00
5.840249e+00
6.127439e+00
6.415997e+00
6.707345e+00
7.000070e+00
7.265016e+00
7.475858e+00
7.634128e+00
7.743101e+00
7.808023e+00
7.837155e+00
7.842236e+00
7.837603e+00
7.835046e+00
0.000000e+00
-2.790531e-01
-5.889992e-01
-9.852366e-01
-1.417002e+00
-1.886280e+00
-2.396124e+00
-2.936634e+00
-3.512881e+00
-4.120702e+00
-4.762578e+00
-5.440486e+00
-6.154618e+00
-6.906988e+00
-7.696180e+00
-8.524161e+00
-9.390631e+00
-1.029697e+01
-1.124314e+01
-1.222873e+01
-1.325430e+01
-1.431967e+01
-1.542633e+01
-1.657306e+01
-1.775762e+01
-1.898136e+01
-2.024860e+01
-2.156955e+01
-2.295117e+01
-2.441373e+01
-2.597423e+01
-2.778223e+01
-3.032032e+01
0.000000e+00
-1.800407e-01
-5.085706e-01
-8.974734e-01
-1.336015e+00
-1.801868e+00
-2.311592e+00
-2.854151e+00
-3.428650e+00
-4.037581e+00
-4.678395e+00
-5.356695e+00
-6.070527e+00
-6.823063e+00
-7.612294e+00
-8.439945e+00
-9.306629e+00
-1.021266e+01
-1.115914e+01
-1.214458e+01
-1.317026e+01
-1.423532e+01
-1.534207e+01
-1.648950e+01
-1.767390e+01
-1.889718e+01
-2.016287e+01
-2.148222e+01
-2.286521e+01
-2.431885e+01
-2.589870e+01
-2.769383e+01
-2.994511e+01
0.000000e+00
-1.590006e-01
-4.495707e-01
-8.409538e-01
-1.269400e+00
-1.732961e+00
-2.240764e+00
-2.781136e+00
-3.356916e+00
-3.964699e+00
-4.606538e+00
-5.284946e+00
-5.999051e+00
-6.751649e+00
-7.541492e+00
-8.369178e+00
-9.236246e+00
-1.014211e+01
-1.108846e+01
-1.207382e+01
-1.309940e+01
-1.416413e+01
-1.526948e+01
-1.641617e+01
-1.760148e+01
-1.882752e+01
-2.009511e+01
-2.141953e+01
-2.280638e+01
-2.428052e+01
-2.590319e+01
-2.758796e+01
-2.933645e+01
0.000000e+00
-2.041112e-01
-4.495901e-01
-8.372889e-01
-1.234515e+00
-1.687240e+00
-2.193554e+00
-2.721112e+00
-3.303074e+00
-3.905204e+00
-4.549861e+00
-5.228562e+00
-5.941251e+00
-6.696314e+00
-7.484211e+00
-8.314308e+00
-9.180071e+00
-1.008628e+01
-1.103234e+01
-1.201665e+01
-1.304310e+01
-1.410676e+01
-1.521128e+01
-1.635771e+01
-1.754521e+01
-1.877736e+01
-2.005107e+01
-2.138272e+01
-2.277841e+01
-2.427194e+01
-2.588749e+01
-2.743712e+01
-2.883622e+01
0.000000e+00
-2.203179e-01
-4.881420e-01
-8.327788e-01
-1.232341e+00
-1.667691e+00
-2.164413e+00
-2.686336e+00
-3.263229e+00
-3.865280e+00
-4.508811e+00
-5.189296e+00
-5.900615e+00
-6.658091e+00
-7.444361e+00
-8.276230e+00
-9.141266e+00
-1.004744e+01
-1.099355e+01
-1.197710e+01
-1.300403e+01
-1.406769e+01
-1.517351e+01
-1.632084e+01
-1.751185e+01
-1.874727e+01
-2.002907e+01
-2.136442e+01
-2.276268e+01
-2.425167e+01
-2.578752e+01
-2.723606e+01
-2.850207e+01
0.000000e+00
-2.272745e-01
-5.045210e-01
-8.387266e-01
-1.226028e+00
-1.660858e+00
-2.142852e+00
-2.667113e+00
-3.233774e+00
-3.838365e+00
-4.480203e+00
-5.159752e+00
-5.875040e+00
-6.628888e+00
-7.419568e+00
-8.248644e+00
-9.116048e+00
-1.002217e+01
-1.096834e+01
-1.195405e+01
-1.298054e+01
-1.404726e+01
-1.515502e+01
-1.630509e+01
-1.749829e+01
-1.873556e+01
-2.001982e+01
-2.135467e+01
-2.274213e+01
-2.419082e+01
-2.563226e+01
-2.700056e+01
-2.820480e+01
0.000000e+00
-2.309693e-01
-5.107206e-01
-8.419398e-01
-1.224051e+00
-1.654823e+00
-2.132116e+00
-2.653607e+00
-3.217236e+00
-3.820729e+00
-4.462695e+00
-5.142166e+00
-5.858886e+00
-6.612899e+00
-7.404458e+00
-8.234025e+00
-9.102090e+00
-1.000939e+01
-1.095649e+01
-1.194398e+01
-1.297221e+01
-1.404146e+01
-1.515209e+01
-1.630439e+01
-1.749899e+01
-1.873647e+01
-2.001681e+01
-2.134808e+01
-2.270369e+01
-2.410113e+01
-2.547703e+01
-2.677748e+01
-2.791928e+01
0.000000e+00
-2.323673e-01
-5.130402e-01
-8.433900e-01
-1.223471e+00
-1.652085e+00
-2.127424e+00
-2.647422e+00
-3.210010e+00
-3.813247e+00
-4.455543e+00
-5.135818e+00
-5.853442e+00
-6.608292e+00
-7.400556e+00
-8.230792e+00
-9.099754e+00
-1.000815e+01
-1.095664e+01
-1.194579e+01
-1.297605e+01
-1.404765e+01
-1.516054e+01
-1.631471e+01
-1.750857e+01
-1.874575e+01
-2.001840e+01
-2.133045e+01
-2.265149e+01
-2.399596e+01
-2.532544e+01
-2.656824e+01
-2.765426e+01
0.000000e+00
-2.326561e-01
-5.136335e-01
-8.440116e-01
-1.223944e+00
-1.652480e+00
-2.127904e+00
-2.648174e+00
-3.211250e+00
-3.815265e+00
-4.458622e+00
-5.140066e+00
-5.858824e+00
-6.614641e+00
-7.407672e+00
-8.238554e+00
-9.108425e+00
-1.001801e+01
-1.096768e+01
-1.195816e+01
-1.299012e+01
-1.406315e+01
-1.517739e+01
-1.633204e+01
-1.752524e+01
-1.875691e+01
-2.001524e+01
-2.129823e+01
-2.259493e+01
-2.388866e+01
-2.515903e+01
-2.632665e+01
-2.731916e+01
0.000000e+00
-2.322018e-01
-5.130916e-01
-8.441300e-01
-1.225493e+00
-1.655952e+00
-2.133464e+00
-2.655752e+00
-3.220701e+00
-3.826498e+00
-4.471577e+00
-5.154554e+00
-5.874560e+00
-6.631502e+00
-7.425460e+00
-8.256822e+00
-9.127779e+00
-1.003866e+01
-1.098927e+01
-1.197995e+01
-1.301320e+01
-1.408642e+01
-1.519901e+01
-1.635541e+01
-1.754144e+01
-1.876127e+01
-2.000238e+01
-2.126257e+01
-2.253002e+01
-2.378662e+01
-2.499178e+01
-2.609279e+01
-2.705174e+01
0.000000e+00
-2.307232e-01
-5.108858e-01
-8.434120e-01
-1.228140e+00
-1.662764e+00
-2.144529e+00
-2.670551e+00
-3.238670e+00
-3.847028e+00
-4.494264e+00
-5.178788e+00
-5.899797e+00
-6.658047e+00
-7.453007e+00
-8.285440e+00
-9.157805e+00
-1.007006e+01
-1.102152e+01
-1.201132e+01
-1.304379e+01
-1.411500e+01
-1.522545e+01
-1.637545e+01
-1.755278e+01
-1.875737e+01
-1.998716e+01
-2.122529e+01
-2.246710e+01
-2.368280e+01
-2.484223e+01
-2.591125e+01
-2.685958e+01
0.000000e+00
-2.270610e-01
-5.049534e-01
-8.409676e-01
-1.232170e+00
-1.673558e+00
-2.162254e+00
-2.693371e+00
-3.266151e+00
-3.877567e+00
-4.526819e+00
-5.212644e+00
-5.933869e+00
-6.693137e+00
-7.489242e+00
-8.323891e+00
-9.198123e+00
-1.011134e+01
-1.106285e+01
-1.205150e+01
-1.307965e+01
-1.414674e+01
-1.525148e+01
-1.639150e+01
-1.755953e+01
-1.875461e+01
-1.997248e+01
-2.119766e+01
-2.241255e+01
-2.359894e+01
-2.472895e+01
-2.578200e+01
-2.673430e+01
0.000000e+00
-2.199955e-01
-4.889235e-01
-8.361741e-01
-1.240514e+00
-1.687164e+00
-2.190915e+00
-2.723721e+00
-3.305655e+00
-3.917776e+00
-4.569516e+00
-5.256171e+00
-5.976658e+00
-6.738579e+00
-7.535039e+00
-8.373246e+00
-9.248464e+00
-1.016075e+01
-1.111067e+01
-1.209599e+01
-1.311924e+01
-1.418053e+01
-1.527729e+01
-1.640791e+01
-1.756874e+01
-1.876006e+01
-1.997214e+01
-2.118258e+01
-2.237757e+01
-2.353873e+01
-2.465012e+01
-2.569620e+01
-2.666323e+01
0.000000e+00
-2.028103e-01
-4.502160e-01
-8.415236e-01
-1.247457e+00
-1.712886e+00
-2.230340e+00
-2.766622e+00
-3.356390e+00
-3.967921e+00
-4.620712e+00
-5.306742e+00
-6.029548e+00
-6.793353e+00
-7.593178e+00
-8.432960e+00
-9.308131e+00
-1.021861e+01
-1.116515e+01
-1.214664e+01
-1.316460e+01
-1.421866e+01
-1.530669e+01
-1.643010e+01
-1.759216e+01
-1.878347e+01
-1.998846e+01
-2.118373e+01
-2.235980e+01
-2.350259e+01
-2.460047e+01
-2.564517e+01
-2.663248e+01
0.000000e+00
-1.561644e-01
-4.481634e-01
-8.445819e-01
-1.284865e+00
-1.761973e+00
-2.282093e+00
-2.831360e+00
-3.415705e+00
-4.031313e+00
-4.680240e+00
-5.366955e+00
-6.091476e+00
-6.856395e+00
-7.659186e+00
-8.498726e+00
-9.373594e+00
-1.028228e+01
-1.122680e+01
-1.220556e+01
-1.321909e+01
-1.426670e+01
-1.534758e+01
-1.647202e+01
-1.763658e+01
-1.882508e+01
-2.001598e+01
-2.119772e+01
-2.235835e+01
-2.348692e+01
-2.457485e+01
-2.561959e+01
-2.662728e+01
0.000000e+00
-1.766873e-01
-5.061965e-01
-9.013474e-01
-1.352238e+00
-1.832232e+00
-2.353964e+00
-2.906213e+00
-3.488924e+00
-4.105254e+00
-4.752644e+00
-5.439356e+00
-6.164024e+00
-6.929507e+00
-7.732640e+00
-8.572110e+00
-9.445957e+00
-1.035322e+01
-1.129658e+01
-1.227399e+01
-1.328573e+01
-1.433022e+01
-1.541160e+01
-1.653716e+01
-1.769829e+01
-1.887442e+01
-2.005212e+01
-2.122077e+01
-2.236893e+01
-2.348638e+01
-2.456654e+01
-2.561039e+01
-2.663197e+01
0.000000e+00
-2.765053e-01
-5.877226e-01
-9.899301e-01
-1.433422e+00
-1.916150e+00
-2.438087e+00
-2.988469e+00
-3.572888e+00
-4.188020e+00
-4.836765e+00
-5.523151e+00
-6.247811e+00
-7.012876e+00
-7.815241e+00
-8.654298e+00
-9.527283e+00
-1.043451e+01
-1.137696e+01
-1.235389e+01
-1.336517e+01
-1.440991e+01