TITLE = "Solution"
VARIABLES = x, y, u, v, psiu, psiv, t, stress
ZONE T="structure" N=561 E=512 F=FEBLOCK ET=QUADRILATERAL VARLOCATION=([7,8]=cellcentered)
0.000000e+00
6.250000e+00
1.250000e+01
1.875000e+01
2.500000e+01
3.125000e+01
3.750000e+01
4.375000e+01
5.000000e+01
5.625000e+01
6.250000e+01
6.875000e+01
7.500000e+01
8.125000e+01
8.750000e+01
9.375000e+01
1.000000e+02
1.062500e+02
1.125000e+02
1.187500e+02
1.250000e+02
1.312500e+02
1.375000e+02
1.437500e+02
1.500000e+02
1.562500e+02
1.625000e+02
1.687500e+02
1.750000e+02
1.812500e+02
1.875000e+02
1.937500e+02
2.000000e+02
0.000000e+00
6.250000e+00
1.250000e+01
1.875000e+01
2.500000e+01
3.125000e+01
3.750000e+01
4.375000e+01
5.000000e+01
5.625000e+01
6.250000e+01
6.875000e+01
7.500000e+01
8.125000e+01
8.750000e+01
9.375000e+01
1.000000e+02
1.062500e+02
1.125000e+02
1.187500e+02
1.250000e+02
1.312500e+02
1.375000e+02
1.437500e+02
1.500000e+02
1.562500e+02
1.625000e+02
1.687500e+02
1.750000e+02
1.812500e+02
1.875000e+02
1.937500e+02
2.000000e+02
0.000000e+00
6.250000e+00
1.250000e+01
1.875000e+01
2.500000e+01
3.125000e+01
3.750000e+01
4.375000e+01
5.000000e+01
5.625000e+01
6.250000e+01
6.875000e+01
7.500000e+01
8.125000e+01
8.750000e+01
9.375000e+01
1.000000e+02
1.062500e+02
1.125000e+02
1.187500e+02
1.250000e+02
1.312500e+02
1.375000e+02
1.437500e+02
1.500000e+02
1.562500e+02
1.625000e+02
1.687500e+02
1.750000e+02
1.812500e+02
1.875000e+02
1.937500e+02
2.000000e+02
0.000000e+00
6.250000e+00
1.250000e+01
1.875000e+01
2.500000e+01
3.125000e+01
3.750000e+01
4.375000e+01
5.000000e+01
5.625000e+01
6.250000e+01
6.875000e+01
7.500000e+01
8.125000e+01
8.750000e+01
9.375000e+01
1.000000e+02
1.062500e+02
1.125000e+02
1.187500e+02
1.250000e+02
1.312500e+02
1.375000e+02
1.437500e+02
1.500000e+02
1.562500e+02
1.625000e+02
1.687500e+02
1.750000e+02
1.812500e+02
1.875000e+02
1.937500e+02
2.000000e+02
0.000000e+00
6.250000e+00
1.250000e+01
1.875000e+01
2.500000e+01
3.125000e+01
3.750000e+01
4.375000e+01
5.000000e+01
5.625000e+01
6.250000e+01
6.875000e+01
7.500000e+01
8.125000e+01
8.750000e+01
9.375000e+01
1.000000e+02
1.062500e+02
1.125000e+02
1.187500e+02
1.250000e+02
1.312500e+02
1.375000e+02
1.437500e+02
1.500000e+02
1.562500e+02
1.625000e+02
1.687500e+02
1.750000e+02
1.812500e+02
1.875000e+02
1.937500e+02
2.000000e+02
0.000000e+00
6.250000e+00
1.250000e+01
1.875000e+01
2.500000e+01
3.125000e+01
3.750000e+01
4.375000e+01
5.000000e+01
5.625000e+01
6.250000e+01
6.875000e+01
7.500000e+01
8.125000e+01
8.750000e+01
9.375000e+01
1.000000e+02
1.062500e+02
1.125000e+02
1.187500e+02
1.250000e+02
1.312500e+02
1.375000e+02
1.437500e+02
1.500000e+02
1.562500e+02
1.625000e+02
1.687500e+02
1.750000e+02
1.812500e+02
1.875000e+02
1.937500e+02
2.000000e+02
0.000000e+00
6.250000e+00
1.250000e+01
1.875000e+01
2.500000e+01
3.125000e+01
3.750000e+01
4.375000e+01
5.000000e+01
5.625000e+01
6.250000e+01
6.875000e+01
7.500000e+01
8.125000e+01
8.750000e+01
9.375000e+01
1.000000e+02
1.062500e+02
1.125000e+02
1.187500e+02
1.250000e+02
1.312500e+02
1.375000e+02
1.437500e+02
1.500000e+02
1.562500e+02
1.625000e+02
1.687500e+02
1.750000e+02
1.812500e+02
1.875000e+02
1.937500e+02
2.000000e+02
0.000000e+00
6.250000e+00
1.250000e+01
1.875000e+01
2.500000e+01
3.125000e+01
3.750000e+01
4.375000e+01
5.000000e+01
5.625000e+01
6.250000e+01
6.875000e+01
7.500000e+01
8.125000e+01
8.750000e+01
9.375000e+01
1.000000e+02
1.062500e+02
1.125000e+02
1.187500e+02
1.250000e+02
1.312500e+02
1.375000e+02
1.437500e+02
1.500000e+02
1.562500e+02
1.625000e+02
1.687500e+02
1.750000e+02
1.812500e+02
1.875000e+02
1.937500e+02
2.000000e+02
0.000000e+00
6.250000e+00
1.250000e+01
1.875000e+01
2.500000e+01
3.125000e+01
3.750000e+01
4.375000e+01
5.000000e+01
5.625000e+01
6.250000e+01
6.875000e+01
7.500000e+01
8.125000e+01
8.750000e+01
9.375000e+01
1.000000e+02
1.062500e+02
1.125000e+02
1.187500e+02
1.250000e+02
1.312500e+02
1.375000e+02
1.437500e+02
1.500000e+02
1.562500e+02
1.625000e+02
1.687500e+02
1.750000e+02
1.812500e+02
1.875000e+02
1.937500e+02
2.000000e+02
0.000000e+00
6.250000e+00
1.250000e+01
1.875000e+01
2.500000e+01
3.125000e+01
3.750000e+01
4.375000e+01
5.000000e+01
5.625000e+01
6.250000e+01
6.875000e+01
7.500000e+01
8.125000e+01
8.750000e+01
9.375000e+01
1.000000e+02
1.062500e+02
1.125000e+02
1.187500e+02
1.250000e+02
1.312500e+02
1.375000e+02
1.437500e+02
1.500000e+02
1.562500e+02
1.625000e+02
1.687500e+02
1.750000e+02
1.812500e+02
1.875000e+02
1.937500e+02
2.000000e+02
0.000000e+00
6.250000e+00
1.250000e+01
1.875000e+01
2.500000e+01
3.125000e+01
3.750000e+01
4.375000e+01
5.000000e+01
5.625000e+01
6.250000e+01
6.875000e+01
7.500000e+01
8.125000e+01
8.750000e+01
9.375000e+01
1.000000e+02
1.062500e+02
1.125000e+02
1.187500e+02
1.250000e+02
1.312500e+02
1.375000e+02
1.437500e+02
1.500000e+02
1.562500e+02
1.625000e+02
1.687500e+02
1.750000e+02
1.812500e+02
1.875000e+02
1.937500e+02
2.000000e+02
0.000000e+00
6.250000e+00
1.250000e+01
1.875000e+01
2.500000e+01
3.125000e+01
3.750000e+01
4.375000e+01
5.000000e+01
5.625000e+01
6.250000e+01
6.875000e+01
7.500000e+01
8.125000e+01
8.750000e+01
9.375000e+01
1.000000e+02
1.062500e+02
1.125000e+02
1.187500e+02
1.250000e+02
1.312500e+02
1.375000e+02
1.437500e+02
1.500000e+02
1.562500e+02
1.625000e+02
1.687500e+02
1.750000e+02
1.812500e+02
1.875000e+02
1.937500e+02
2.000000e+02
0.000000e+00
6.250000e+00
1.250000e+01
1.875000e+01
2.500000e+01
3.125000e+01
3.750000e+01
4.375000e+01
5.000000e+01
5.625000e+01
6.250000e+01
6.875000e+01
7.500000e+01
8.125000e+01
8.750000e+01
9.375000e+01
1.000000e+02
1.062500e+02
1.125000e+02
1.187500e+02
1.250000e+02
1.312500e+02
1.375000e+02
1.437500e+02
1.500000e+02
1.562500e+02
1.625000e+02
1.687500e+02
1.750000e+02
1.812500e+02
1.875000e+02
1.937500e+02
2.000000e+02
0.000000e+00
6.250000e+00
1.250000e+01
1.875000e+01
2.500000e+01
3.125000e+01
3.750000e+01
4.375000e+01
5.000000e+01
5.625000e+01
6.250000e+01
6.875000e+01
7.500000e+01
8.125000e+01
8.750000e+01
9.375000e+01
1.000000e+02
1.062500e+02
1.125000e+02
1.187500e+02
1.250000e+02
1.312500e+02
1.375000e+02
1.437500e+02
1.500000e+02
1.562500e+02
1.625000e+02
1.687500e+02
1.750000e+02
1.812500e+02
1.875000e+02
1.937500e+02
2.000000e+02
0.000000e+00
6.250000e+00
1.250000e+01
1.875000e+01
2.500000e+01
3.125000e+01
3.750000e+01
4.375000e+01
5.000000e+01
5.625000e+01
6.250000e+01
6.875000e+01
7.500000e+01
8.125000e+01
8.750000e+01
9.375000e+01
1.000000e+02
1.062500e+02
1.125000e+02
1.187500e+02
1.250000e+02
1.312500e+02
1.375000e+02
1.437500e+02
1.500000e+02
1.562500e+02
1.625000e+02
1.687500e+02
1.750000e+02
1.812500e+02
1.875000e+02
1.937500e+02
2.000000e+02
0.000000e+00
6.250000e+00
1.250000e+01
1.875000e+01
2.500000e+01
3.125000e+01
3.750000e+01
4.375000e+01
5.000000e+01
5.625000e+01
6.250000e+01
6.875000e+01
7.500000e+01
8.125000e+01
8.750000e+01
9.375000e+01
1.000000e+02
1.062500e+02
1.125000e+02
1.187500e+02
1.250000e+02
1.312500e+02
1.375000e+02
1.437500e+02
1.500000e+02
1.562500e+02
1.625000e+02
1.687500e+02
1.750000e+02
1.812500e+02
1.875000e+02
1.937500e+02
2.000000e+02
0.000000e+00
6.250000e+00
1.250000e+01
1.875000e+01
2.500000e+01
3.125000e+01
3.750000e+01
4.375000e+01
5.000000e+01
5.625000e+01
6.250000e+01
6.875000e+01
7.500000e+01
8.125000e+01
8.750000e+01
9.375000e+01
1.000000e+02
1.062500e+02
1.125000e+02
1.187500e+02
1.250000e+02
1.312500e+02
1.375000e+02
1.437500e+02
1.500000e+02
1.562500e+02
1.625000e+02
1.687500e+02
1.750000e+02
1.812500e+02
1.875000e+02
1.937500e+02
2.000000e+02
0.000000e+00
0.000000e+00
0.000000e+00
0.000000e+00
0.000000e+00
0.000000e+00
0.000000e+00
0.000000e+00
0.000000e+00
0.000000e+00
0.000000e+00
0.000000e+00
0.000000e+00
0.000000e+00
0.000000e+00
0.000000e+00
0.000000e+00
0.000000e+00
0.000000e+00
0.000000e+00
0.000000e+00
0.000000e+00
0.000000e+00
0.000000e+00
0.000000e+00
0.000000e+00
0.000000e+00
0.000000e+00
0.000000e+00
0.000000e+00
0.000000e+00
0.000000e+00
0.000000e+00
6.250000e+00
6.250000e+00
6.250000e+00
6.250000e+00
6.250000e+00
6.250000e+00
6.250000e+00
6.250000e+00
6.250000e+00
6.250000e+00
6.250000e+00
6.250000e+00
6.250000e+00
6.250000e+00
6.250000e+00
6.250000e+00
6.250000e+00
6.250000e+00
6.250000e+00
6.250000e+00
6.250000e+00
6.250000e+00
6.250000e+00
6.250000e+00
6.250000e+00
6.250000e+00
6.250000e+00
6.250000e+00
6.250000e+00
6.250000e+00
6.250000e+00
6.250000e+00
6.250000e+00
1.250000e+01
1.250000e+01
1.250000e+01
1.250000e+01
1.250000e+01
1.250000e+01
1.250000e+01
1.250000e+01
1.250000e+01
1.250000e+01
1.250000e+01
1.250000e+01
1.250000e+01
1.250000e+01
1.250000e+01
1.250000e+01
1.250000e+01
1.250000e+01
1.250000e+01
1.250000e+01
1.250000e+01
1.250000e+01
1.250000e+01
1.250000e+01
1.250000e+01
1.250000e+01
1.250000e+01
1.250000e+01
1.250000e+01
1.250000e+01
1.250000e+01
1.250000e+01
1.250000e+01
1.875000e+01
1.875000e+01
1.875000e+01
1.875000e+01
1.875000e+01
1.875000e+01
1.875000e+01
1.875000e+01
1.875000e+01
1.875000e+01
1.875000e+01
1.875000e+01
1.875000e+01
1.875000e+01
1.875000e+01
1.875000e+01
1.875000e+01
1.875000e+01
1.875000e+01
1.875000e+01
1.875000e+01
1.875000e+01
1.875000e+01
1.875000e+01
1.875000e+01
1.875000e+01
1.875000e+01
1.875000e+01
1.875000e+01
1.875000e+01
1.875000e+01
1.875000e+01
1.875000e+01
2.500000e+01
2.500000e+01
2.500000e+01
2.500000e+01
2.500000e+01
2.500000e+01
2.500000e+01
2.500000e+01
2.500000e+01
2.500000e+01
2.500000e+01
2.500000e+01
2.500000e+01
2.500000e+01
2.500000e+01
2.500000e+01
2.500000e+01
2.500000e+01
2.500000e+01
2.500000e+01
2.500000e+01
2.500000e+01
2.500000e+01
2.500000e+01
2.500000e+01
2.500000e+01
2.500000e+01
2.500000e+01
2.500000e+01
2.500000e+01
2.500000e+01
2.500000e+01
2.500000e+01
3.125000e+01
3.125000e+01
3.125000e+01
3.125000e+01
3.125000e+01
3.125000e+01
3.125000e+01
3.125000e+01
3.125000e+01
3.125000e+01
3.125000e+01
3.125000e+01
3.125000e+01
3.125000e+01
3.125000e+01
3.125000e+01
3.125000e+01
3.125000e+01
3.125000e+01
3.125000e+01
3.125000e+01
3.125000e+01
3.125000e+01
3.125000e+01
3.125000e+01
3.125000e+01
3.125000e+01
3.125000e+01
3.125000e+01
3.125000e+01
3.125000e+01
3.125000e+01
3.125000e+01
3.750000e+01
3.750000e+01
3.750000e+01
3.750000e+01
3.750000e+01
3.750000e+01
3.750000e+01
3.750000e+01
3.750000e+01
3.750000e+01
3.750000e+01
3.750000e+01
3.750000e+01
3.750000e+01
3.750000e+01
3.750000e+01
3.750000e+01
3.750000e+01
3.750000e+01
3.750000e+01
3.750000e+01
3.750000e+01
3.750000e+01
3.750000e+01
3.750000e+01
3.750000e+01
3.750000e+01
3.750000e+01
3.750000e+01
3.750000e+01
3.750000e+01
3.750000e+01
3.750000e+01
4.375000e+01
4.375000e+01
4.375000e+01
4.375000e+01
4.375000e+01
4.375000e+01
4.375000e+01
4.375000e+01
4.375000e+01
4.375000e+01
4.375000e+01
4.375000e+01
4.375000e+01
4.375000e+01
4.375000e+01
4.375000e+01
4.375000e+01
4.375000e+01
4.375000e+01
4.375000e+01
4.375000e+01
4.375000e+01
4.375000e+01
4.375000e+01
4.375000e+01
4.375000e+01
4.375000e+01
4.375000e+01
4.375000e+01
4.375000e+01
4.375000e+01
4.375000e+01
4.375000e+01
5.000000e+01
5.000000e+01
5.000000e+01
5.000000e+01
5.000000e+01
5.000000e+01
5.000000e+01
5.000000e+01
5.000000e+01
5.000000e+01
5.000000e+01
5.000000e+01
5.000000e+01
5.000000e+01
5.000000e+01
5.000000e+01
5.000000e+01
5.000000e+01
5.000000e+01
5.000000e+01
5.000000e+01
5.000000e+01
5.000000e+01
5.000000e+01
5.000000e+01
5.000000e+01
5.000000e+01
5.000000e+01
5.000000e+01
5.000000e+01
5.000000e+01
5.000000e+01
5.000000e+01
5.625000e+01
5.625000e+01
5.625000e+01
5.625000e+01
5.625000e+01
5.625000e+01
5.625000e+01
5.625000e+01
5.625000e+01
5.625000e+01
5.625000e+01
5.625000e+01
5.625000e+01
5.625000e+01
5.625000e+01
5.625000e+01
5.625000e+01
5.625000e+01
5.625000e+01
5.625000e+01
5.625000e+01
5.625000e+01
5.625000e+01
5.625000e+01
5.625000e+01
5.625000e+01
5.625000e+01
5.625000e+01
5.625000e+01
5.625000e+01
5.625000e+01
5.625000e+01
5.625000e+01
6.250000e+01
6.250000e+01
6.250000e+01
6.250000e+01
6.250000e+01
6.250000e+01
6.250000e+01
6.250000e+01
6.250000e+01
6.250000e+01
6.250000e+01
6.250000e+01
6.250000e+01
6.250000e+01
6.250000e+01
6.250000e+01
6.250000e+01
6.250000e+01
6.250000e+01
6.250000e+01
6.250000e+01
6.250000e+01
6.250000e+01
6.250000e+01
6.250000e+01
6.250000e+01
6.250000e+01
6.250000e+01
6.250000e+01
6.250000e+01
6.250000e+01
6.250000e+01
6.250000e+01
6.875000e+01
6.875000e+01
6.875000e+01
6.875000e+01
6.875000e+01
6.875000e+01
6.875000e+01
6.875000e+01
6.875000e+01
6.875000e+01
6.875000e+01
6.875000e+01
6.875000e+01
6.875000e+01
6.875000e+01
6.875000e+01
6.875000e+01
6.875000e+01
6.875000e+01
6.875000e+01
6.875000e+01
6.875000e+01
6.875000e+01
6.875000e+01
6.875000e+01
6.875000e+01
6.875000e+01
6.875000e+01
6.875000e+01
6.875000e+01
6.875000e+01
6.875000e+01
6.875000e+01
7.500000e+01
7.500000e+01
7.500000e+01
7.500000e+01
7.500000e+01
7.500000e+01
7.500000e+01
7.500000e+01
7.500000e+01
7.500000e+01
7.500000e+01
7.500000e+01
7.500000e+01
7.500000e+01
7.500000e+01
7.500000e+01
7.500000e+01
7.500000e+01
7.500000e+01
7.500000e+01
7.500000e+01
7.500000e+01
7.500000e+01
7.500000e+01
7.500000e+01
7.500000e+01
7.500000e+01
7.500000e+01
7.500000e+01
7.500000e+01
7.500000e+01
7.500000e+01
7.500000e+01
8.125000e+01
8.125000e+01
8.125000e+01
8.125000e+01
8.125000e+01
8.125000e+01
8.125000e+01
8.125000e+01
8.125000e+01
8.125000e+01
8.125000e+01
8.125000e+01
8.125000e+01
8.125000e+01
8.125000e+01
8.125000e+01
8.125000e+01
8.125000e+01
8.125000e+01
8.125000e+01
8.125000e+01
8.125000e+01
8.125000e+01
8.125000e+01
8.125000e+01
8.125000e+01
8.125000e+01
8.125000e+01
8.125000e+01
8.125000e+01
8.125000e+01
8.125000e+01
8.125000e+01
8.750000e+01
8.750000e+01
8.750000e+01
8.750000e+01
8.750000e+01
8.750000e+01
8.750000e+01
8.750000e+01
8.750000e+01
8.750000e+01
8.750000e+01
8.750000e+01
8.750000e+01
8.750000e+01
8.750000e+01
8.750000e+01
8.750000e+01
8.750000e+01
8.750000e+01
8.750000e+01
8.750000e+01
8.750000e+01
8.750000e+01
8.750000e+01
8.750000e+01
8.750000e+01
8.750000e+01
8.750000e+01
8.750000e+01
8.750000e+01
8.750000e+01
8.750000e+01
8.750000e+01
9.375000e+01
9.375000e+01
9.375000e+01
9.375000e+01
9.375000e+01
9.375000e+01
9.375000e+01
9.375000e+01
9.375000e+01
9.375000e+01
9.375000e+01
9.375000e+01
9.375000e+01
9.375000e+01
9.375000e+01
9.375000e+01
9.375000e+01
9.375000e+01
9.375000e+01
9.375000e+01
9.375000e+01
9.375000e+01
9.375000e+01
9.375000e+01
9.375000e+01
9.375000e+01
9.375000e+01
9.375000e+01
9.375000e+01
9.375000e+01
9.375000e+01
9.375000e+01
9.375000e+01
1.000000e+02
1.000000e+02
1.000000e+02
1.000000e+02
1.000000e+02
1.000000e+02
1.000000e+02
1.000000e+02
1.000000e+02
1.000000e+02
1.000000e+02
1.000000e+02
1.000000e+02
1.000000e+02
1.000000e+02
1.000000e+02
1.000000e+02
1.000000e+02
1.000000e+02
1.000000e+02
1.000000e+02
1.000000e+02
1.000000e+02
1.000000e+02
1.000000e+02
1.000000e+02
1.000000e+02
1.000000e+02
1.000000e+02
1.000000e+02
1.000000e+02
1.000000e+02
1.000000e+02
0.000000e+00
-1.586687e-01
-2.878678e-01
-4.075824e-01
-5.225357e-01
-6.335900e-01
-7.409545e-01
-8.446116e-01
-9.444900e-01
-1.040512e+00
-1.132615e+00
-1.220751e+00
-1.304898e+00
-1.385049e+00
-1.461222e+00
-1.533454e+00
-1.601807e+00
-1.666375e+00
-1.727285e+00
-1.784712e+00
-1.838889e+00
-1.890123e+00
-1.938822e+00
-1.985527e+00
-2.030963e+00
-2.076116e+00
-2.122352e+00
-2.171622e+00
-2.226789e+00
-2.292061e+00
-2.372886e+00
-2.469170e+00
-2.527918e+00
0.000000e+00
-1.063612e-01
-2.212875e-01
-3.296751e-01
-4.327526e-01
-5.314877e-01
-6.263870e-01
-7.176705e-01
-8.054229e-01
-8.896691e-01
-9.704109e-01
-1.047645e+00
-1.121372e+00
-1.191601e+00
-1.258353e+00
-1.321663e+00
-1.381584e+00
-1.438188e+00
-1.491572e+00
-1.541862e+00
-1.589221e+00
-1.633852e+00
-1.676009e+00
-1.716003e+00
-1.754205e+00
-1.791042e+00
-1.826966e+00
-1.862348e+00
-1.897184e+00
-1.930341e+00
-1.957962e+00
-1.974105e+00
-1.996573e+00
0.000000e+00
-8.435321e-02
-1.736619e-01
-2.646191e-01
-3.530476e-01
-4.382577e-01
-5.201853e-01
-5.989007e-01
-6.744680e-01
-7.469301e-01
-8.163141e-01
-8.826385e-01
-9.459187e-01
-1.006171e+00
-1.063416e+00
-1.117680e+00
-1.168995e+00
-1.217407e+00
-1.262967e+00
-1.305739e+00
-1.345799e+00
-1.383227e+00
-1.418102e+00
-1.450485e+00
-1.480389e+00
-1.507719e+00
-1.532161e+00
-1.552998e+00
-1.568820e+00
-1.577344e+00
-1.576607e+00
-1.571835e+00
-1.598070e+00
0.000000e+00
-6.692686e-02
-1.375525e-01
-2.101322e-01
-2.825743e-01
-3.532919e-01
-4.216750e-01
-4.875017e-01
-5.507086e-01
-6.112892e-01
-6.692555e-01
-7.246240e-01
-7.774109e-01
-8.276307e-01
-8.752964e-01
-9.204201e-01
-9.630127e-01
-1.003084e+00
-1.040642e+00
-1.075688e+00
-1.108211e+00
-1.138183e+00
-1.165536e+00
-1.190143e+00
-1.211777e+00
-1.230055e+00
-1.244374e+00
-1.253858e+00
-1.257484e+00
-1.254805e+00
-1.248286e+00
-1.247899e+00
-1.272897e+00
0.000000e+00
-5.195011e-02
-1.063781e-01
-1.625580e-01
-2.192147e-01
-2.751976e-01
-3.297331e-01
-3.824277e-01
-4.331003e-01
-4.816793e-01
-5.281439e-01
-5.724940e-01
-6.147359e-01
-6.548748e-01
-6.929120e-01
-7.288426e-01
-7.626545e-01
-7.943265e-01
-8.238252e-01
-8.511004e-01
-8.760786e-01
-8.986525e-01
-9.186676e-01
-9.359039e-01
-9.500568e-01
-9.607259e-01
-9.674413e-01
-9.697998e-01
-9.678721e-01
-9.631485e-01
-9.600828e-01
-9.671585e-01
-9.884896e-01
0.000000e+00
-3.818448e-02
-7.800676e-02
-1.191161e-01
-1.608069e-01
-2.023025e-01
-2.429852e-01
-2.824523e-01
-3.204815e-01
-3.569631e-01
-3.918498e-01
-4.251236e-01
-4.567773e-01
-4.868037e-01
-5.151903e-01
-5.419159e-01
-5.669480e-01
-5.902401e-01
-6.117287e-01
-6.313292e-01
-6.489310e-01
-6.643910e-01
-6.775284e-01
-6.881227e-01
-6.959224e-01
-7.006825e-01
-7.022632e-01
-7.008483e-01
-6.973574e-01
-6.940344e-01
-6.948404e-01
-7.038624e-01
-7.215183e-01
0.000000e+00
-2.513206e-02
-5.125968e-02
-7.822050e-02
-1.056325e-01
-1.330356e-01
-1.600173e-01
-1.862761e-01
-2.116223e-01
-2.359508e-01
-2.592074e-01
-2.813645e-01
-3.024039e-01
-3.223070e-01
-3.410491e-01
-3.585951e-01
-3.748972e-01
-3.898923e-01
-4.034994e-01
-4.156181e-01
-4.261263e-01
-4.348813e-01
-4.417240e-01
-4.464927e-01
-4.490555e-01
-4.493742e-01
-4.476232e-01
-4.443818e-01
-4.408830e-01
-4.391851e-01
-4.418274e-01
-4.506133e-01
-4.648688e-01
0.000000e+00
-1.248378e-02
-2.544034e-02
-3.880429e-02
-5.240785e-02
-6.603686e-02
-7.948763e-02
-9.260037e-02
-1.052668e-01
-1.174203e-01
-1.290211e-01
-1.400427e-01
-1.504620e-01
-1.602526e-01
-1.693808e-01
-1.778021e-01
-1.854600e-01
-1.922835e-01
-1.981864e-01
-2.030682e-01
-2.068159e-01
-2.093106e-01
-2.104408e-01
-2.101267e-01
-2.083620e-01
-2.052811e-01
-2.012567e-01
-1.970157e-01
-1.937224e-01
-1.928956e-01
-1.959970e-01
-2.036628e-01
-2.149757e-01
0.000000e+00
-2.031611e-05
-4.402975e-05
-6.983156e-05
-9.636790e-05
-1.218149e-04
-1.434247e-04
-1.570222e-04
-1.564175e-04
-1.326972e-04
-7.337007e-05
3.865017e-05
2.262210e-04
5.192823e-04
9.562393e-04
1.585297e-03
2.465539e-03
3.667420e-03
5.272136e-03
7.369077e-03
1.005015e-02
1.339925e-02
1.747451e-02
2.228039e-02
2.772693e-02
3.357566e-02
3.937895e-02
4.443554e-02
4.781186e-02
4.849796e-02
4.574369e-02
3.950370e-02
3.076337e-02
0.000000e+00
1.244550e-02
2.535721e-02
3.867219e-02
5.222513e-02
6.580523e-02
7.921390e-02
9.229912e-02
1.049641e-01
1.171591e-01
1.288675e-01
1.400951e-01
1.508616e-01
1.611970e-01
1.711400e-01
1.807376e-01
1.900448e-01
1.991247e-01
2.080464e-01
2.168809e-01
2.256943e-01
2.345349e-01
2.434153e-01
2.522862e-01
2.610034e-01
2.692918e-01
2.767177e-01
2.826908e-01
2.865292e-01
2.876168e-01
2.856500e-01
2.809095e-01
2.744223e-01
0.000000e+00
2.510074e-02
5.119119e-02
7.811092e-02
1.054798e-01
1.328402e-01
1.597837e-01
1.860149e-01
2.113534e-01
2.357073e-01
2.590415e-01
2.813541e-01
3.026622e-01
3.229935e-01
3.423828e-01
3.608708e-01
3.785033e-01
3.953300e-01
4.114029e-01
4.267715e-01
4.414753e-01
4.555327e-01
4.689246e-01
4.815736e-01
4.933207e-01
5.039053e-01
5.129592e-01
5.200310e-01
5.246600e-01
5.265112e-01
5.255602e-01
5.222798e-01
5.177521e-01
0.000000e+00
3.816440e-02
7.796210e-02
1.190435e-01
1.607038e-01
2.021680e-01
2.428207e-01
2.822631e-01
3.202783e-01
3.567653e-01
3.916888e-01
4.250474e-01
4.568568e-01
4.871401e-01
5.159248e-01
5.432404e-01
5.691184e-01
5.935908e-01
6.166887e-01
6.384379e-01
6.588537e-01
6.779308e-01
6.956321e-01
7.118741e-01
7.265129e-01
7.393358e-01
7.500666e-01
7.583950e-01
7.640431e-01
7.668734e-01
7.670328e-01
7.651085e-01
7.622469e-01
0.000000e+00
5.194494e-02
1.063653e-01
1.625352e-01
2.191796e-01
2.751483e-01
3.296684e-01
3.823475e-01
4.330061e-01
4.815754e-01
5.280381e-01
5.723998e-01
6.146744e-01
6.548777e-01
6.930254e-01
7.291314e-01
7.632085e-01
7.952670e-01
8.253138e-01
8.533498e-01
8.793662e-01
9.033385e-01
9.252205e-01
9.449362e-01
9.623747e-01
9.773896e-01
9.898088e-01
9.994611e-01
1.006226e+00
1.010112e+00
1.011373e+00
1.010650e+00
1.009143e+00
0.000000e+00
6.693909e-02
1.375773e-01
2.101691e-01
2.826223e-01
3.533494e-01
4.217402e-01
4.875712e-01
5.507770e-01
6.113478e-01
6.692913e-01
7.246178e-01
7.773352e-01
8.274471e-01
8.749527e-01
9.198468e-01
9.621195e-01
1.001756e+00
1.038736e+00
1.073032e+00
1.104609e+00
1.133423e+00
1.159419e+00
1.182530e+00
1.202684e+00
1.219803e+00
1.233825e+00
1.244717e+00
1.252512e+00
1.257356e+00
1.259585e+00
1.259851e+00
1.259350e+00
0.000000e+00
8.438344e-02
1.737264e-01
2.647200e-01
3.531870e-01
4.384372e-01
5.204052e-01
5.991585e-01
6.747563e-01
7.472341e-01
8.166075e-01
8.828789e-01
9.460410e-01
1.006079e+00
1.062973e+00
1.116695e+00
1.167211e+00
1.214477e+00
1.258443e+00
1.299050e+00
1.336230e+00
1.369910e+00
1.400017e+00
1.426483e+00
1.449258e+00
1.468323e+00
1.483714e+00
1.495539e+00
1.504002e+00
1.509422e+00
1.512259e+00
1.513183e+00
1.513293e+00
0.000000e+00
1.064067e-01
2.213868e-01
3.298349e-01
4.329807e-01
5.317920e-01
6.267742e-01
7.181443e-01
8.059815e-01
8.903013e-01
9.710905e-01
1.048323e+00
1.121968e+00
1.191987e+00
1.258340e+00
1.320976e+00
1.379837e+00
1.434853e+00
1.485939e+00
1.532997e+00
1.575920e+00
1.614590e+00
1.648893e+00
1.678730e+00
1.704039e+00
1.724821e+00
1.741175e+00
1.753330e+00
1.761679e+00
1.766796e+00
1.769409e+00
1.770357e+00
1.770589e+00
0.000000e+00
1.587185e-01
2.879841e-01
4.077816e-01
5.228340e-01
6.340037e-01
7.415006e-01
8.453061e-01
9.453456e-01
1.041534e+00
1.133794e+00
1.222058e+00
1.306264e+00
1.386357e+00
1.462278e+00
1.533961e+00
1.601328e+00
1.664284e+00
1.722712e+00
1.776472e+00
1.825402e+00
1.869322e+00
1.908041e+00
1.941382e+00
1.969207e+00
1.991459e+00
2.008219e+00
2.019765e+00
2.026646e+00
2.029747e+00
2.030311e+00
2.029844e+00
2.029581e+00
0.000000e+00
-9.805723e-02
-1.711692e-01
-2.509865e-01
-3.398834e-01
-4.403036e-01
-5.529455e-01
-6.780075e-01
-8.153677e-01
-9.647340e-01
-1.125713e+00
-1.297850e+00
-1.480656e+00
-1.673621e+00
-1.876223e+00
-2.087937e+00
-2.308241e+00
-2.536622e+00
-2.772583e+00
-3.015657e+00
-3.265420e+00
-3.521517e+00
-3.783693e+00
-4.051846e+00
-4.326111e+00
-4.606996e+00
-4.895618e+00
-5.194157e+00
-5.506782e+00
-5.841745e+00
-6.216850e+00
-6.674099e+00
-7.305783e+00
0.000000e+00
-6.094190e-02
-1.374700e-01
-2.178116e-01
-3.079302e-01
-4.094283e-01
-5.231549e-01
-6.493037e-01
-7.877631e-01
-9.382408e-01
-1.100341e+00
-1.273605e+00
-1.457540e+00
-1.651631e+00
-1.855351e+00
-2.068171e+00
-2.289560e+00
-2.518999e+00
-2.755981e+00
-3.000028e+00
-3.250700e+00
-3.507623e+00
-3.770520e+00
-4.039260e+00
-4.313940e+00
-4.595022e+00
-4.883566e+00
-5.181684e+00
-5.493457e+00
-5.827002e+00
-6.199217e+00
-6.646292e+00
-7.236437e+00
0.000000e+00
-4.476934e-02
-1.108392e-01
-1.900775e-01
-2.803408e-01
-3.825752e-01
-4.971900e-01
-6.242927e-01
-7.637323e-01
-9.152021e-01
-1.078299e+00
-1.252562e+00
-1.437495e+00
-1.632580e+00
-1.837290e+00
-2.051091e+00
-2.273453e+00
-2.503852e+00
-2.741777e+00
-2.986746e+00
-3.238316e+00
-3.496111e+00
-3.759851e+00
-4.029410e+00
-4.304897e+00
-4.586799e+00
-4.876223e+00
-5.175334e+00
-5.488167e+00
-5.822030e+00
-6.189408e+00
-6.605034e+00
-7.066059e+00
0.000000e+00
-3.585845e-02
-9.387071e-02
-1.688804e-01
-2.579765e-01
-3.601701e-01
-4.752668e-01
-6.030743e-01
-7.433196e-01
-8.956390e-01
-1.059604e+00
-1.234741e+00
-1.420550e+00
-1.616513e+00
-1.822101e+00
-2.036784e+00
-2.260032e+00
-2.491322e+00
-2.730149e+00
-2.976032e+00
-3.228535e+00
-3.487291e+00
-3.752033e+00
-4.022656e+00
-4.299294e+00
-4.582461e+00
-4.873250e+00
-5.173657e+00
-5.486985e+00
-5.818051e+00
-6.171461e+00
-6.544189e+00
-6.891143e+00
0.000000e+00
-3.035342e-02
-8.277785e-02
-1.538319e-01
-2.408926e-01
-3.424101e-01
-4.575432e-01
-5.857597e-01
-7.265987e-01
-8.796017e-01
-1.044292e+00
-1.220174e+00
-1.406738e+00
-1.603465e+00
-1.809828e+00
-2.025300e+00
-2.249357e+00
-2.481481e+00
-2.721174e+00
-2.967963e+00
-3.221423e+00
-3.481196e+00
-3.747029e+00
-4.018821e+00
-4.296698e+00
-4.581110e+00
-4.872948e+00
-5.173650e+00
-5.485115e+00
-5.808874e+00
-6.143377e+00
-6.476326e+00
-6.778471e+00
0.000000e+00
-2.685081e-02
-7.550096e-02
-1.434783e-01
-2.285774e-01
-3.291400e-01
-4.440179e-01
-5.723934e-01
-7.136223e-01
-8.671369e-01
-1.032401e+00
-1.208891e+00
-1.396083e+00
-1.593456e+00
-1.800487e+00
-2.016652e+00
-2.241435e+00
-2.474325e+00
-2.714832e+00
-2.962492e+00
-3.216884e+00
-3.477653e+00
-3.744537e+00
-4.017408e+00
-4.296313e+00
-4.581521e+00
-4.873535e+00
-5.172987e+00
-5.480225e+00
-5.794212e+00
-6.110158e+00
-6.416759e+00
-6.696960e+00
0.000000e+00
-2.467365e-02
-7.090039e-02
-1.367492e-01
-2.203285e-01
-3.200225e-01
-4.345561e-01
-5.629442e-01
-7.044028e-01
-8.582713e-01
-1.023959e+00
-1.200913e+00
-1.388598e+00
-1.586491e+00
-1.794070e+00
-2.010820e+00
-2.236228e+00
-2.469795e+00
-2.711033e+00
-2.959481e+00
-3.214716e+00
-3.476367e+00
-3.744139e+00
-4.017828e+00
-4.297342e+00
-4.582683e+00
-4.873878e+00
-5.170760e+00
-5.472472e+00
-5.776557e+00
-6.077746e+00
-6.367343e+00
-6.634693e+00
0.000000e+00
-2.347711e-02
-6.834762e-02
-1.329573e-01
-2.155989e-01
-3.147123e-01
-4.289815e-01
-5.573394e-01
-6.989219e-01
-8.530093e-01
-1.018974e+00
-1.196244e+00
-1.384279e+00
-1.582551e+00
-1.790546e+00
-2.007753e+00
-2.233666e+00
-2.467789e+00
-2.709636e+00
-2.958742e+00
-3.214668e+00
-3.477012e+00
-3.745415e+00
-4.019569e+00
-4.299197e+00
-4.584011e+00
-4.873591e+00
-5.167149e+00
-5.463114e+00
-5.758573e+00
-6.048774e+00
-6.327175e+00
-6.586505e+00
0.000000e+00
-2.309154e-02
-6.752401e-02
-1.317284e-01
-2.140575e-01
-3.129745e-01
-4.271556e-01
-5.555109e-01
-6.971525e-01
-8.513424e-01
-1.017443e+00
-1.194878e+00
-1.383107e+00
-1.581607e+00
-1.789868e+00
-2.007385e+00
-2.233656e+00
-2.468185e+00
-2.710484e+00
-2.960076e+00
-3.216494e+00
-3.479290e+00
-3.748027e+00
-4.022269e+00
-4.301553e+00
-4.585323e+00
-4.872807e+00
-5.162820e+00
-5.453484e+00
-5.741934e+00
-6.024148e+00
-6.295137e+00
-6.549571e+00
0.000000e+00
-2.346591e-02
-6.833209e-02
-1.329440e-01
-2.155949e-01
-3.147265e-01
-4.290258e-01
-5.574292e-01
-6.990780e-01
-8.532586e-01
-1.019351e+00
-1.196793e+00
-1.385053e+00
-1.583617e+00
-1.791979e+00
-2.009639e+00
-2.236097e+00
-2.470857e+00
-2.713422e+00
-2.963296e+00
-3.219979e+00
-3.482967e+00
-3.751737e+00
-4.025729e+00
-4.304310e+00
-4.586704e+00
-4.871898e+00
-5.158502e+00
-5.444583e+00
-5.727531e+00
-6.004033e+00
-6.270227e+00
-6.522044e+00
0.000000e+00
-2.465216e-02
-7.087058e-02
-1.367234e-01
-2.203204e-01
-3.200493e-01
-4.346402e-01
-5.631155e-01
-7.047009e-01
-8.587480e-01
-1.024681e+00
-1.201964e+00
-1.390083e+00
-1.588534e+00
-1.796818e+00
-2.014438e+00
-2.240896e+00
-2.475691e+00
-2.718313e+00
-2.968246e+00
-3.224955e+00
-3.487877e+00
-3.756408e+00
-4.029877e+00
-4.307506e+00
-4.588361e+00
-4.871283e+00
-5.154800e+00
-5.437056e+00
-5.715769e+00
-5.988257e+00
-6.251542e+00
-6.502503e+00
0.000000e+00
-2.682093e-02
-7.545950e-02
-1.434423e-01
-2.285658e-01
-3.291767e-01
-4.441342e-01
-5.726313e-01
-7.140373e-01
-8.678016e-01
-1.033409e+00
-1.210359e+00
-1.398158e+00
-1.596313e+00
-1.804332e+00
-2.021719e+00
-2.247974e+00
-2.482591e+00
-2.725050e+00
-2.974811e+00
-3.231305e+00
-3.493919e+00
-3.761976e+00
-4.034714e+00
-4.311246e+00
-4.590530e+00
-4.871323e+00
-5.152147e+00
-5.431278e+00
-5.706762e+00
-5.976479e+00
-6.238215e+00
-6.489693e+00
0.000000e+00
-3.031820e-02
-8.272903e-02
-1.537894e-01
-2.408792e-01
-3.424545e-01
-4.576835e-01
-5.860466e-01
-7.270997e-01
-8.804045e-01
-1.045509e+00
-1.221949e+00
-1.409247e+00
-1.606921e+00
-1.814481e+00
-2.031433e+00
-2.257276e+00
-2.491496e+00
-2.733562e+00
-2.982917e+00
-3.238961e+00
-3.501041e+00
-3.768424e+00
-4.040278e+00
-4.315641e+00
-4.593401e+00
-4.872274e+00
-5.150809e+00
-5.427416e+00
-5.700440e+00
-5.968258e+00
-6.229365e+00
-6.482362e+00
0.000000e+00
-3.582222e-02
-9.382056e-02
-1.688373e-01
-2.579649e-01
-3.602222e-01
-4.754248e-01
-6.033947e-01
-7.438767e-01
-8.965301e-01
-1.060954e+00
-1.236707e+00
-1.423327e+00
-1.620335e+00
-1.827243e+00
-2.043559e+00
-2.268776e+00
-2.502376e+00
-2.743819e+00
-2.992533e+00
-3.247897e+00
-3.509229e+00
-3.775758e+00
-4.046606e+00
-4.320766e+00
-4.597084e+00
-4.874262e+00
-5.150881e+00
-5.425468e+00
-5.696606e+00
-5.963089e+00
-6.224082e+00
-6.479167e+00
0.000000e+00
-4.473773e-02
-1.107952e-01
-1.900410e-01
-2.803374e-01
-3.826385e-01
-4.973644e-01
-6.246372e-01
-7.643241e-01
-9.161421e-01
-1.079716e+00
-1.254619e+00
-1.440391e+00
-1.636556e+00
-1.842626e+00
-2.058106e+00
-2.282487e+00
-2.515247e+00
-2.755837e+00
-3.003677e+00
-3.258133e+00
-3.518505e+00
-3.784001e+00
-4.053722e+00
-4.326636e+00
-4.601579e+00
-4.877253e+00
-5.152273e+00
-5.425249e+00
-5.694927e+00
-5.960409e+00
-6.221426e+00
-6.478608e+00
0.000000e+00
-6.092154e-02
-1.374401e-01
-2.177900e-01
-3.079434e-01
-4.095107e-01
-5.233513e-01
-6.496733e-01
-7.883830e-01
-9.392109e-01
-1.101788e+00
-1.275689e+00
-1.460456e+00
-1.655610e+00
-1.860665e+00
-2.075119e+00
-2.298464e+00
-2.530170e+00
-2.769686e+00
-3.016424e+00
-3.269742e+00
-3.528934e+00
-3.793200e+00
-4.061636e+00
-4.333211e+00
-4.606768e+00
-4.881032e+00
-5.154657e+00
-5.426314e+00
-5.694849e+00
-5.959536e+00
-6.220467e+00
-6.479083e+00
0.000000e+00
-9.805418e-02
-1.711591e-01
-2.509882e-01
-3.399234e-01
-4.404166e-01
-5.531764e-01
-6.784147e-01
-8.160269e-01
-9.657422e-01
-1.127192e+00
-1.299953e+00
-1.483566e+00
-1.677554e+00
-1.881426e+00
-2.094681e+00
-2.316804e+00
-2.547263e+00
-2.785498e+00
-3.030916e+00
-3.282871e+00
-3.540649e+00
-3.803454e+00