TITLE = "Solution"
VARIABLES = x, y, u, v, psiu, psiv, t, stress
ZONE T="structure" N=561 E=512 F=FEBLOCK ET=QUADRILATERAL VARLOCATION=([7,8]=cellcentered)
0.000000e+00
6.250000e+00
1.250000e+01
1.875000e+01
2.500000e+01
3.125000e+01
3.750000e+01
4.375000e+01
5.000000e+01
5.625000e+01
6.250000e+01
6.875000e+01
7.500000e+01
8.125000e+01
8.750000e+01
9.375000e+01
1.000000e+02
1.062500e+02
1.125000e+02
1.187500e+02
1.250000e+02
1.312500e+02
1.375000e+02
1.437500e+02
1.500000e+02
1.562500e+02
1.625000e+02
1.687500e+02
1.750000e+02
1.812500e+02
1.875000e+02
1.937500e+02
2.000000e+02
0.000000e+00
6.250000e+00
1.250000e+01
1.875000e+01
2.500000e+01
3.125000e+01
3.750000e+01
4.375000e+01
5.000000e+01
5.625000e+01
6.250000e+01
6.875000e+01
7.500000e+01
8.125000e+01
8.750000e+01
9.375000e+01
1.000000e+02
1.062500e+02
1.125000e+02
1.187500e+02
1.250000e+02
1.312500e+02
1.375000e+02
1.437500e+02
1.500000e+02
1.562500e+02
1.625000e+02
1.687500e+02
1.750000e+02
1.812500e+02
1.875000e+02
1.937500e+02
2.000000e+02
0.000000e+00
6.250000e+00
1.250000e+01
1.875000e+01
2.500000e+01
3.125000e+01
3.750000e+01
4.375000e+01
5.000000e+01
5.625000e+01
6.250000e+01
6.875000e+01
7.500000e+01
8.125000e+01
8.750000e+01
9.375000e+01
1.000000e+02
1.062500e+02
1.125000e+02
1.187500e+02
1.250000e+02
1.312500e+02
1.375000e+02
1.437500e+02
1.500000e+02
1.562500e+02
1.625000e+02
1.687500e+02
1.750000e+02
1.812500e+02
1.875000e+02
1.937500e+02
2.000000e+02
0.000000e+00
6.250000e+00
1.250000e+01
1.875000e+01
2.500000e+01
3.125000e+01
3.750000e+01
4.375000e+01
5.000000e+01
5.625000e+01
6.250000e+01
6.875000e+01
7.500000e+01
8.125000e+01
8.750000e+01
9.375000e+01
1.000000e+02
1.062500e+02
1.125000e+02
1.187500e+02
1.250000e+02
1.312500e+02
1.375000e+02
1.437500e+02
1.500000e+02
1.562500e+02
1.625000e+02
1.687500e+02
1.750000e+02
1.812500e+02
1.875000e+02
1.937500e+02
2.000000e+02
0.000000e+00
6.250000e+00
1.250000e+01
1.875000e+01
2.500000e+01
3.125000e+01
3.750000e+01
4.375000e+01
5.000000e+01
5.625000e+01
6.250000e+01
6.875000e+01
7.500000e+01
8.125000e+01
8.750000e+01
9.375000e+01
1.000000e+02
1.062500e+02
1.125000e+02
1.187500e+02
1.250000e+02
1.312500e+02
1.375000e+02
1.437500e+02
1.500000e+02
1.562500e+02
1.625000e+02
1.687500e+02
1.750000e+02
1.812500e+02
1.875000e+02
1.937500e+02
2.000000e+02
0.000000e+00
6.250000e+00
1.250000e+01
1.875000e+01
2.500000e+01
3.125000e+01
3.750000e+01
4.375000e+01
5.000000e+01
5.625000e+01
6.250000e+01
6.875000e+01
7.500000e+01
8.125000e+01
8.750000e+01
9.375000e+01
1.000000e+02
1.062500e+02
1.125000e+02
1.187500e+02
1.250000e+02
1.312500e+02
1.375000e+02
1.437500e+02
1.500000e+02
1.562500e+02
1.625000e+02
1.687500e+02
1.750000e+02
1.812500e+02
1.875000e+02
1.937500e+02
2.000000e+02
0.000000e+00
6.250000e+00
1.250000e+01
1.875000e+01
2.500000e+01
3.125000e+01
3.750000e+01
4.375000e+01
5.000000e+01
5.625000e+01
6.250000e+01
6.875000e+01
7.500000e+01
8.125000e+01
8.750000e+01
9.375000e+01
1.000000e+02
1.062500e+02
1.125000e+02
1.187500e+02
1.250000e+02
1.312500e+02
1.375000e+02
1.437500e+02
1.500000e+02
1.562500e+02
1.625000e+02
1.687500e+02
1.750000e+02
1.812500e+02
1.875000e+02
1.937500e+02
2.000000e+02
0.000000e+00
6.250000e+00
1.250000e+01
1.875000e+01
2.500000e+01
3.125000e+01
3.750000e+01
4.375000e+01
5.000000e+01
5.625000e+01
6.250000e+01
6.875000e+01
7.500000e+01
8.125000e+01
8.750000e+01
9.375000e+01
1.000000e+02
1.062500e+02
1.125000e+02
1.187500e+02
1.250000e+02
1.312500e+02
1.375000e+02
1.437500e+02
1.500000e+02
1.562500e+02
1.625000e+02
1.687500e+02
1.750000e+02
1.812500e+02
1.875000e+02
1.937500e+02
2.000000e+02
0.000000e+00
6.250000e+00
1.250000e+01
1.875000e+01
2.500000e+01
3.125000e+01
3.750000e+01
4.375000e+01
5.000000e+01
5.625000e+01
6.250000e+01
6.875000e+01
7.500000e+01
8.125000e+01
8.750000e+01
9.375000e+01
1.000000e+02
1.062500e+02
1.125000e+02
1.187500e+02
1.250000e+02
1.312500e+02
1.375000e+02
1.437500e+02
1.500000e+02
1.562500e+02
1.625000e+02
1.687500e+02
1.750000e+02
1.812500e+02
1.875000e+02
1.937500e+02
2.000000e+02
0.000000e+00
6.250000e+00
1.250000e+01
1.875000e+01
2.500000e+01
3.125000e+01
3.750000e+01
4.375000e+01
5.000000e+01
5.625000e+01
6.250000e+01
6.875000e+01
7.500000e+01
8.125000e+01
8.750000e+01
9.375000e+01
1.000000e+02
1.062500e+02
1.125000e+02
1.187500e+02
1.250000e+02
1.312500e+02
1.375000e+02
1.437500e+02
1.500000e+02
1.562500e+02
1.625000e+02
1.687500e+02
1.750000e+02
1.812500e+02
1.875000e+02
1.937500e+02
2.000000e+02
0.000000e+00
6.250000e+00
1.250000e+01
1.875000e+01
2.500000e+01
3.125000e+01
3.750000e+01
4.375000e+01
5.000000e+01
5.625000e+01
6.250000e+01
6.875000e+01
7.500000e+01
8.125000e+01
8.750000e+01
9.375000e+01
1.000000e+02
1.062500e+02
1.125000e+02
1.187500e+02
1.250000e+02
1.312500e+02
1.375000e+02
1.437500e+02
1.500000e+02
1.562500e+02
1.625000e+02
1.687500e+02
1.750000e+02
1.812500e+02
1.875000e+02
1.937500e+02
2.000000e+02
0.000000e+00
6.250000e+00
1.250000e+01
1.875000e+01
2.500000e+01
3.125000e+01
3.750000e+01
4.375000e+01
5.000000e+01
5.625000e+01
6.250000e+01
6.875000e+01
7.500000e+01
8.125000e+01
8.750000e+01
9.375000e+01
1.000000e+02
1.062500e+02
1.125000e+02
1.187500e+02
1.250000e+02
1.312500e+02
1.375000e+02
1.437500e+02
1.500000e+02
1.562500e+02
1.625000e+02
1.687500e+02
1.750000e+02
1.812500e+02
1.875000e+02
1.937500e+02
2.000000e+02
0.000000e+00
6.250000e+00
1.250000e+01
1.875000e+01
2.500000e+01
3.125000e+01
3.750000e+01
4.375000e+01
5.000000e+01
5.625000e+01
6.250000e+01
6.875000e+01
7.500000e+01
8.125000e+01
8.750000e+01
9.375000e+01
1.000000e+02
1.062500e+02
1.125000e+02
1.187500e+02
1.250000e+02
1.312500e+02
1.375000e+02
1.437500e+02
1.500000e+02
1.562500e+02
1.625000e+02
1.687500e+02
1.750000e+02
1.812500e+02
1.875000e+02
1.937500e+02
2.000000e+02
0.000000e+00
6.250000e+00
1.250000e+01
1.875000e+01
2.500000e+01
3.125000e+01
3.750000e+01
4.375000e+01
5.000000e+01
5.625000e+01
6.250000e+01
6.875000e+01
7.500000e+01
8.125000e+01
8.750000e+01
9.375000e+01
1.000000e+02
1.062500e+02
1.125000e+02
1.187500e+02
1.250000e+02
1.312500e+02
1.375000e+02
1.437500e+02
1.500000e+02
1.562500e+02
1.625000e+02
1.687500e+02
1.750000e+02
1.812500e+02
1.875000e+02
1.937500e+02
2.000000e+02
0.000000e+00
6.250000e+00
1.250000e+01
1.875000e+01
2.500000e+01
3.125000e+01
3.750000e+01
4.375000e+01
5.000000e+01
5.625000e+01
6.250000e+01
6.875000e+01
7.500000e+01
8.125000e+01
8.750000e+01
9.375000e+01
1.000000e+02
1.062500e+02
1.125000e+02
1.187500e+02
1.250000e+02
1.312500e+02
1.375000e+02
1.437500e+02
1.500000e+02
1.562500e+02
1.625000e+02
1.687500e+02
1.750000e+02
1.812500e+02
1.875000e+02
1.937500e+02
2.000000e+02
0.000000e+00
6.250000e+00
1.250000e+01
1.875000e+01
2.500000e+01
3.125000e+01
3.750000e+01
4.375000e+01
5.000000e+01
5.625000e+01
6.250000e+01
6.875000e+01
7.500000e+01
8.125000e+01
8.750000e+01
9.375000e+01
1.000000e+02
1.062500e+02
1.125000e+02
1.187500e+02
1.250000e+02
1.312500e+02
1.375000e+02
1.437500e+02
1.500000e+02
1.562500e+02
1.625000e+02
1.687500e+02
1.750000e+02
1.812500e+02
1.875000e+02
1.937500e+02
2.000000e+02
0.000000e+00
6.250000e+00
1.250000e+01
1.875000e+01
2.500000e+01
3.125000e+01
3.750000e+01
4.375000e+01
5.000000e+01
5.625000e+01
6.250000e+01
6.875000e+01
7.500000e+01
8.125000e+01
8.750000e+01
9.375000e+01
1.000000e+02
1.062500e+02
1.125000e+02
1.187500e+02
1.250000e+02
1.312500e+02
1.375000e+02
1.437500e+02
1.500000e+02
1.562500e+02
1.625000e+02
1.687500e+02
1.750000e+02
1.812500e+02
1.875000e+02
1.937500e+02
2.000000e+02
0.000000e+00
0.000000e+00
0.000000e+00
0.000000e+00
0.000000e+00
0.000000e+00
0.000000e+00
0.000000e+00
0.000000e+00
0.000000e+00
0.000000e+00
0.000000e+00
0.000000e+00
0.000000e+00
0.000000e+00
0.000000e+00
0.000000e+00
0.000000e+00
0.000000e+00
0.000000e+00
0.000000e+00
0.000000e+00
0.000000e+00
0.000000e+00
0.000000e+00
0.000000e+00
0.000000e+00
0.000000e+00
0.000000e+00
0.000000e+00
0.000000e+00
0.000000e+00
0.000000e+00
6.250000e+00
6.250000e+00
6.250000e+00
6.250000e+00
6.250000e+00
6.250000e+00
6.250000e+00
6.250000e+00
6.250000e+00
6.250000e+00
6.250000e+00
6.250000e+00
6.250000e+00
6.250000e+00
6.250000e+00
6.250000e+00
6.250000e+00
6.250000e+00
6.250000e+00
6.250000e+00
6.250000e+00
6.250000e+00
6.250000e+00
6.250000e+00
6.250000e+00
6.250000e+00
6.250000e+00
6.250000e+00
6.250000e+00
6.250000e+00
6.250000e+00
6.250000e+00
6.250000e+00
1.250000e+01
1.250000e+01
1.250000e+01
1.250000e+01
1.250000e+01
1.250000e+01
1.250000e+01
1.250000e+01
1.250000e+01
1.250000e+01
1.250000e+01
1.250000e+01
1.250000e+01
1.250000e+01
1.250000e+01
1.250000e+01
1.250000e+01
1.250000e+01
1.250000e+01
1.250000e+01
1.250000e+01
1.250000e+01
1.250000e+01
1.250000e+01
1.250000e+01
1.250000e+01
1.250000e+01
1.250000e+01
1.250000e+01
1.250000e+01
1.250000e+01
1.250000e+01
1.250000e+01
1.875000e+01
1.875000e+01
1.875000e+01
1.875000e+01
1.875000e+01
1.875000e+01
1.875000e+01
1.875000e+01
1.875000e+01
1.875000e+01
1.875000e+01
1.875000e+01
1.875000e+01
1.875000e+01
1.875000e+01
1.875000e+01
1.875000e+01
1.875000e+01
1.875000e+01
1.875000e+01
1.875000e+01
1.875000e+01
1.875000e+01
1.875000e+01
1.875000e+01
1.875000e+01
1.875000e+01
1.875000e+01
1.875000e+01
1.875000e+01
1.875000e+01
1.875000e+01
1.875000e+01
2.500000e+01
2.500000e+01
2.500000e+01
2.500000e+01
2.500000e+01
2.500000e+01
2.500000e+01
2.500000e+01
2.500000e+01
2.500000e+01
2.500000e+01
2.500000e+01
2.500000e+01
2.500000e+01
2.500000e+01
2.500000e+01
2.500000e+01
2.500000e+01
2.500000e+01
2.500000e+01
2.500000e+01
2.500000e+01
2.500000e+01
2.500000e+01
2.500000e+01
2.500000e+01
2.500000e+01
2.500000e+01
2.500000e+01
2.500000e+01
2.500000e+01
2.500000e+01
2.500000e+01
3.125000e+01
3.125000e+01
3.125000e+01
3.125000e+01
3.125000e+01
3.125000e+01
3.125000e+01
3.125000e+01
3.125000e+01
3.125000e+01
3.125000e+01
3.125000e+01
3.125000e+01
3.125000e+01
3.125000e+01
3.125000e+01
3.125000e+01
3.125000e+01
3.125000e+01
3.125000e+01
3.125000e+01
3.125000e+01
3.125000e+01
3.125000e+01
3.125000e+01
3.125000e+01
3.125000e+01
3.125000e+01
3.125000e+01
3.125000e+01
3.125000e+01
3.125000e+01
3.125000e+01
3.750000e+01
3.750000e+01
3.750000e+01
3.750000e+01
3.750000e+01
3.750000e+01
3.750000e+01
3.750000e+01
3.750000e+01
3.750000e+01
3.750000e+01
3.750000e+01
3.750000e+01
3.750000e+01
3.750000e+01
3.750000e+01
3.750000e+01
3.750000e+01
3.750000e+01
3.750000e+01
3.750000e+01
3.750000e+01
3.750000e+01
3.750000e+01
3.750000e+01
3.750000e+01
3.750000e+01
3.750000e+01
3.750000e+01
3.750000e+01
3.750000e+01
3.750000e+01
3.750000e+01
4.375000e+01
4.375000e+01
4.375000e+01
4.375000e+01
4.375000e+01
4.375000e+01
4.375000e+01
4.375000e+01
4.375000e+01
4.375000e+01
4.375000e+01
4.375000e+01
4.375000e+01
4.375000e+01
4.375000e+01
4.375000e+01
4.375000e+01
4.375000e+01
4.375000e+01
4.375000e+01
4.375000e+01
4.375000e+01
4.375000e+01
4.375000e+01
4.375000e+01
4.375000e+01
4.375000e+01
4.375000e+01
4.375000e+01
4.375000e+01
4.375000e+01
4.375000e+01
4.375000e+01
5.000000e+01
5.000000e+01
5.000000e+01
5.000000e+01
5.000000e+01
5.000000e+01
5.000000e+01
5.000000e+01
5.000000e+01
5.000000e+01
5.000000e+01
5.000000e+01
5.000000e+01
5.000000e+01
5.000000e+01
5.000000e+01
5.000000e+01
5.000000e+01
5.000000e+01
5.000000e+01
5.000000e+01
5.000000e+01
5.000000e+01
5.000000e+01
5.000000e+01
5.000000e+01
5.000000e+01
5.000000e+01
5.000000e+01
5.000000e+01
5.000000e+01
5.000000e+01
5.000000e+01
5.625000e+01
5.625000e+01
5.625000e+01
5.625000e+01
5.625000e+01
5.625000e+01
5.625000e+01
5.625000e+01
5.625000e+01
5.625000e+01
5.625000e+01
5.625000e+01
5.625000e+01
5.625000e+01
5.625000e+01
5.625000e+01
5.625000e+01
5.625000e+01
5.625000e+01
5.625000e+01
5.625000e+01
5.625000e+01
5.625000e+01
5.625000e+01
5.625000e+01
5.625000e+01
5.625000e+01
5.625000e+01
5.625000e+01
5.625000e+01
5.625000e+01
5.625000e+01
5.625000e+01
6.250000e+01
6.250000e+01
6.250000e+01
6.250000e+01
6.250000e+01
6.250000e+01
6.250000e+01
6.250000e+01
6.250000e+01
6.250000e+01
6.250000e+01
6.250000e+01
6.250000e+01
6.250000e+01
6.250000e+01
6.250000e+01
6.250000e+01
6.250000e+01
6.250000e+01
6.250000e+01
6.250000e+01
6.250000e+01
6.250000e+01
6.250000e+01
6.250000e+01
6.250000e+01
6.250000e+01
6.250000e+01
6.250000e+01
6.250000e+01
6.250000e+01
6.250000e+01
6.250000e+01
6.875000e+01
6.875000e+01
6.875000e+01
6.875000e+01
6.875000e+01
6.875000e+01
6.875000e+01
6.875000e+01
6.875000e+01
6.875000e+01
6.875000e+01
6.875000e+01
6.875000e+01
6.875000e+01
6.875000e+01
6.875000e+01
6.875000e+01
6.875000e+01
6.875000e+01
6.875000e+01
6.875000e+01
6.875000e+01
6.875000e+01
6.875000e+01
6.875000e+01
6.875000e+01
6.875000e+01
6.875000e+01
6.875000e+01
6.875000e+01
6.875000e+01
6.875000e+01
6.875000e+01
7.500000e+01
7.500000e+01
7.500000e+01
7.500000e+01
7.500000e+01
7.500000e+01
7.500000e+01
7.500000e+01
7.500000e+01
7.500000e+01
7.500000e+01
7.500000e+01
7.500000e+01
7.500000e+01
7.500000e+01
7.500000e+01
7.500000e+01
7.500000e+01
7.500000e+01
7.500000e+01
7.500000e+01
7.500000e+01
7.500000e+01
7.500000e+01
7.500000e+01
7.500000e+01
7.500000e+01
7.500000e+01
7.500000e+01
7.500000e+01
7.500000e+01
7.500000e+01
7.500000e+01
8.125000e+01
8.125000e+01
8.125000e+01
8.125000e+01
8.125000e+01
8.125000e+01
8.125000e+01
8.125000e+01
8.125000e+01
8.125000e+01
8.125000e+01
8.125000e+01
8.125000e+01
8.125000e+01
8.125000e+01
8.125000e+01
8.125000e+01
8.125000e+01
8.125000e+01
8.125000e+01
8.125000e+01
8.125000e+01
8.125000e+01
8.125000e+01
8.125000e+01
8.125000e+01
8.125000e+01
8.125000e+01
8.125000e+01
8.125000e+01
8.125000e+01
8.125000e+01
8.125000e+01
8.750000e+01
8.750000e+01
8.750000e+01
8.750000e+01
8.750000e+01
8.750000e+01
8.750000e+01
8.750000e+01
8.750000e+01
8.750000e+01
8.750000e+01
8.750000e+01
8.750000e+01
8.750000e+01
8.750000e+01
8.750000e+01
8.750000e+01
8.750000e+01
8.750000e+01
8.750000e+01
8.750000e+01
8.750000e+01
8.750000e+01
8.750000e+01
8.750000e+01
8.750000e+01
8.750000e+01
8.750000e+01
8.750000e+01
8.750000e+01
8.750000e+01
8.750000e+01
8.750000e+01
9.375000e+01
9.375000e+01
9.375000e+01
9.375000e+01
9.375000e+01
9.375000e+01
9.375000e+01
9.375000e+01
9.375000e+01
9.375000e+01
9.375000e+01
9.375000e+01
9.375000e+01
9.375000e+01
9.375000e+01
9.375000e+01
9.375000e+01
9.375000e+01
9.375000e+01
9.375000e+01
9.375000e+01
9.375000e+01
9.375000e+01
9.375000e+01
9.375000e+01
9.375000e+01
9.375000e+01
9.375000e+01
9.375000e+01
9.375000e+01
9.375000e+01
9.375000e+01
9.375000e+01
1.000000e+02
1.000000e+02
1.000000e+02
1.000000e+02
1.000000e+02
1.000000e+02
1.000000e+02
1.000000e+02
1.000000e+02
1.000000e+02
1.000000e+02
1.000000e+02
1.000000e+02
1.000000e+02
1.000000e+02
1.000000e+02
1.000000e+02
1.000000e+02
1.000000e+02
1.000000e+02
1.000000e+02
1.000000e+02
1.000000e+02
1.000000e+02
1.000000e+02
1.000000e+02
1.000000e+02
1.000000e+02
1.000000e+02
1.000000e+02
1.000000e+02
1.000000e+02
1.000000e+02
0.000000e+00
-1.004379e-01
-1.822301e-01
-2.580010e-01
-3.307235e-01
-4.009512e-01
-4.688243e-01
-5.343364e-01
-5.974456e-01
-6.581059e-01
-7.162790e-01
-7.719384e-01
-8.250704e-01
-8.756736e-01
-9.237596e-01
-9.693538e-01
-1.012497e+00
-1.053248e+00
-1.091688e+00
-1.127930e+00
-1.162118e+00
-1.194450e+00
-1.225181e+00
-1.254654e+00
-1.283326e+00
-1.311820e+00
-1.340999e+00
-1.372097e+00
-1.406919e+00
-1.448126e+00
-1.499167e+00
-1.559992e+00
-1.597112e+00
0.000000e+00
-6.733946e-02
-1.401064e-01
-2.087178e-01
-2.739339e-01
-3.363750e-01
-3.963700e-01
-4.540629e-01
-5.095107e-01
-5.627317e-01
-6.137293e-01
-6.625034e-01
-7.090560e-01
-7.533946e-01
-7.955335e-01
-8.354962e-01
-8.733166e-01
-9.090413e-01
-9.427320e-01
-9.744692e-01
-1.004355e+00
-1.032520e+00
-1.059123e+00
-1.084360e+00
-1.108467e+00
-1.131714e+00
-1.154384e+00
-1.176713e+00
-1.198699e+00
-1.219626e+00
-1.237064e+00
-1.247258e+00
-1.261450e+00
0.000000e+00
-5.341299e-02
-1.099635e-01
-1.675426e-01
-2.234945e-01
-2.773871e-01
-3.291853e-01
-3.789377e-01
-4.266880e-01
-4.724659e-01
-5.162908e-01
-5.581760e-01
-5.981329e-01
-6.361732e-01
-6.723109e-01
-7.065633e-01
-7.389527e-01
-7.695069e-01
-7.982601e-01
-8.252533e-01
-8.505336e-01
-8.741523e-01
-8.961594e-01
-9.165942e-01
-9.354645e-01
-9.527100e-01
-9.681334e-01
-9.812807e-01
-9.912628e-01
-9.966380e-01
-9.961674e-01
-9.931499e-01
-1.009722e+00
0.000000e+00
-4.237846e-02
-8.709752e-02
-1.330421e-01
-1.788810e-01
-2.236116e-01
-2.668504e-01
-3.084598e-01
-3.484024e-01
-3.866761e-01
-4.232907e-01
-4.582583e-01
-4.915904e-01
-5.232974e-01
-5.533886e-01
-5.818723e-01
-6.087563e-01
-6.340474e-01
-6.577507e-01
-6.798676e-01
-7.003922e-01
-7.193059e-01
-7.365666e-01
-7.520940e-01
-7.657448e-01
-7.772779e-01
-7.863117e-01
-7.922943e-01
-7.945788e-01
-7.928836e-01
-7.887659e-01
-7.885202e-01
-8.043098e-01
0.000000e+00
-3.289193e-02
-6.735157e-02
-1.029128e-01
-1.387643e-01
-1.741774e-01
-2.086634e-01
-2.419749e-01
-2.739991e-01
-3.046925e-01
-3.340437e-01
-3.620541e-01
-3.887287e-01
-4.140719e-01
-4.380854e-01
-4.607668e-01
-4.821090e-01
-5.020992e-01
-5.207166e-01
-5.379299e-01
-5.536929e-01
-5.679383e-01
-5.805684e-01
-5.914447e-01
-6.003748e-01
-6.071061e-01
-6.113420e-01
-6.128281e-01
-6.116094e-01
-6.086269e-01
-6.066919e-01
-6.111601e-01
-6.246297e-01
0.000000e+00
-2.417391e-02
-4.938362e-02
-7.540373e-02
-1.017850e-01
-1.280349e-01
-1.537627e-01
-1.787142e-01
-2.027497e-01
-2.258012e-01
-2.478401e-01
-2.688560e-01
-2.888453e-01
-3.078043e-01
-3.257259e-01
-3.425971e-01
-3.583978e-01
-3.730993e-01
-3.866616e-01
-3.990316e-01
-4.101398e-01
-4.198959e-01
-4.281859e-01
-4.348709e-01
-4.397921e-01
-4.427949e-01
-4.437912e-01
-4.428973e-01
-4.406939e-01
-4.385975e-01
-4.391077e-01
-4.448039e-01
-4.559495e-01
0.000000e+00
-1.590946e-02
-3.244830e-02
-4.951208e-02
-6.685763e-02
-8.419307e-02
-1.012570e-01
-1.178589e-01
-1.338793e-01
-1.492525e-01
-1.639451e-01
-1.779402e-01
-1.912270e-01
-2.037946e-01
-2.156275e-01
-2.267042e-01
-2.369947e-01
-2.464594e-01
-2.550476e-01
-2.626959e-01
-2.693275e-01
-2.748525e-01
-2.791703e-01
-2.821793e-01
-2.837960e-01
-2.839967e-01
-2.828913e-01
-2.808458e-01
-2.786386e-01
-2.775685e-01
-2.792376e-01
-2.847835e-01
-2.937807e-01
0.000000e+00
-7.902266e-03
-1.610333e-02
-2.456113e-02
-3.316891e-02
-4.179074e-02
-5.029750e-02
-5.858814e-02
-6.659437e-02
-7.427443e-02
-8.160358e-02
-8.856542e-02
-9.514566e-02
-1.013280e-01
-1.070912e-01
-1.124077e-01
-1.172418e-01
-1.215488e-01
-1.252746e-01
-1.283556e-01
-1.307208e-01
-1.322951e-01
-1.330083e-01
-1.328099e-01
-1.316962e-01
-1.297519e-01
-1.272125e-01
-1.245368e-01
-1.224596e-01
-1.219391e-01
-1.238975e-01
-1.287357e-01
-1.358748e-01
0.000000e+00
-1.275984e-05
-2.766603e-05
-4.389307e-05
-6.058761e-05
-7.659909e-05
-9.019348e-05
-9.873590e-05
-9.831955e-05
-8.331889e-05
-4.585010e-05
2.487026e-05
1.432678e-04
3.282376e-04
6.040167e-04
1.001026e-03
1.556550e-03
2.315050e-03
3.327762e-03
4.651094e-03
6.343038e-03
8.456530e-03
1.102823e-02
1.406094e-02
1.749784e-02
2.118840e-02
2.485006e-02
2.804025e-02
3.016990e-02
3.060188e-02
2.886310e-02
2.492517e-02
1.940982e-02
0.000000e+00
7.878233e-03
1.605112e-02
2.447812e-02
3.305406e-02
4.164512e-02
5.012540e-02
5.839875e-02
6.640417e-02
7.411044e-02
8.150756e-02
8.859940e-02
9.539877e-02
1.019249e-01
1.082025e-01
1.142613e-01
1.201363e-01
1.258673e-01
1.314982e-01
1.370737e-01
1.426357e-01
1.482147e-01
1.538186e-01
1.594164e-01
1.649171e-01
1.701471e-01
1.748325e-01
1.786011e-01
1.810226e-01
1.817082e-01
1.804667e-01
1.774752e-01
1.733817e-01
0.000000e+00
1.588983e-02
3.240534e-02
4.944330e-02
6.676173e-02
8.407035e-02
1.011103e-01
1.176948e-01
1.337104e-01
1.490997e-01
1.638412e-01
1.779346e-01
1.913910e-01
2.042288e-01
2.164702e-01
2.281413e-01
2.392713e-01
2.498920e-01
2.600363e-01
2.697355e-01
2.790148e-01
2.878859e-01
2.963368e-01
3.043187e-01
3.117313e-01
3.184102e-01
3.241230e-01
3.285850e-01
3.315055e-01
3.326732e-01
3.320728e-01
3.300029e-01
3.271459e-01
0.000000e+00
2.416138e-02
4.935570e-02
7.535828e-02
1.017204e-01
1.279507e-01
1.536597e-01
1.785956e-01
2.026223e-01
2.256773e-01
2.477394e-01
2.688089e-01
2.888964e-01
3.080176e-01
3.261903e-01
3.434338e-01
3.597684e-01
3.752146e-01
3.897924e-01
4.035184e-01
4.164023e-01
4.284410e-01
4.396113e-01
4.498605e-01
4.590978e-01
4.671891e-01
4.739601e-01
4.792151e-01
4.827788e-01
4.845645e-01
4.846650e-01
4.834507e-01
4.816451e-01
0.000000e+00
3.288881e-02
6.734376e-02
1.028989e-01
1.387427e-01
1.741470e-01
2.086234e-01
2.419252e-01
2.739407e-01
3.046280e-01
3.339781e-01
3.619958e-01
3.886910e-01
4.140748e-01
4.381579e-01
4.609499e-01
4.824594e-01
5.026933e-01
5.216565e-01
5.393498e-01
5.557679e-01
5.708957e-01
5.847040e-01
5.971451e-01
6.081490e-01
6.176235e-01
6.254601e-01
6.315505e-01
6.358189e-01
6.382712e-01
6.390666e-01
6.386107e-01
6.376595e-01
0.000000e+00
4.238631e-02
8.711350e-02
1.330658e-01
1.789119e-01
2.236487e-01
2.668925e-01
3.085047e-01
3.484467e-01
3.867144e-01
4.233147e-01
4.582557e-01
4.915439e-01
5.231828e-01
5.531729e-01
5.815116e-01
6.081935e-01
6.332098e-01
6.565481e-01
6.781918e-01
6.981190e-01
7.163020e-01
7.327060e-01
7.472898e-01
7.600068e-01
7.708094e-01
7.796570e-01
7.865296e-01
7.914483e-01
7.945051e-01
7.959112e-01
7.960788e-01
7.957632e-01
0.000000e+00
5.343220e-02
1.100045e-01
1.676068e-01
2.235832e-01
2.775013e-01
3.293251e-01
3.791016e-01
4.268713e-01
4.726593e-01
5.164775e-01
5.583293e-01
5.982116e-01
6.361168e-01
6.720329e-01
7.059435e-01
7.378275e-01
7.676589e-01
7.954061e-01
8.210321e-01
8.444946e-01
8.657482e-01
8.847464e-01
9.014468e-01
9.158178e-01
9.278481e-01
9.375598e-01
9.450211e-01
9.503611e-01
9.537813e-01
9.555715e-01
9.561545e-01
9.562241e-01
0.000000e+00
6.736831e-02
1.401694e-01
2.088191e-01
2.740786e-01
3.365680e-01
3.966155e-01
4.543632e-01
5.098647e-01
5.631323e-01
6.141600e-01
6.629333e-01
7.094339e-01
7.536402e-01
7.955268e-01
8.350640e-01
8.722155e-01
9.069374e-01
9.391777e-01
9.688752e-01
9.959616e-01
1.020364e+00
1.042010e+00
1.060838e+00
1.076808e+00
1.089921e+00
1.100240e+00
1.107910e+00
1.113179e+00
1.116407e+00
1.118056e+00
1.118654e+00
1.118801e+00
0.000000e+00
1.004694e-01
1.823038e-01
2.581272e-01
3.309124e-01
4.012133e-01
4.691701e-01
5.347760e-01
5.979871e-01
6.587525e-01
7.170253e-01
7.727647e-01
8.259345e-01
8.765006e-01
9.244278e-01
9.696756e-01
1.012196e+00
1.051929e+00
1.088803e+00
1.122730e+00
1.153607e+00
1.181322e+00
1.205755e+00
1.226793e+00
1.244351e+00
1.258393e+00
1.268968e+00
1.276253e+00
1.280596e+00
1.282552e+00
1.282908e+00
1.282613e+00
1.282448e+00
0.000000e+00
-6.206886e-02
-1.083260e-01
-1.588060e-01
-2.150194e-01
-2.785182e-01
-3.497437e-01
-4.288199e-01
-5.156681e-01
-6.101024e-01
-7.118726e-01
-8.206909e-01
-9.362468e-01
-1.058217e+00
-1.186272e+00
-1.320079e+00
-1.459309e+00
-1.603636e+00
-1.752748e+00
-1.906349e+00
-2.064171e+00
-2.225991e+00
-2.391646e+00
-2.561073e+00
-2.734358e+00
-2.911820e+00
-3.094165e+00
-3.282770e+00
-3.480267e+00
-3.691870e+00
-3.928828e+00
-4.217680e+00
-4.616735e+00
0.000000e+00
-3.857362e-02
-8.699265e-02
-1.378122e-01
-1.948081e-01
-2.589959e-01
-3.309129e-01
-4.106806e-01
-4.982275e-01
-5.933673e-01
-6.958485e-01
-8.053810e-01
-9.216517e-01
-1.044335e+00
-1.173097e+00
-1.307603e+00
-1.447518e+00
-1.592514e+00
-1.742271e+00
-1.896486e+00
-2.054882e+00
-2.217223e+00
-2.383334e+00
-2.553131e+00
-2.726678e+00
-2.904264e+00
-3.086559e+00
-3.274898e+00
-3.471856e+00
-3.682562e+00
-3.917690e+00
-4.200112e+00
-4.572931e+00
0.000000e+00
-2.833480e-02
-7.013381e-02
-1.202597e-01
-1.773543e-01
-2.420144e-01
-3.144984e-01
-3.948736e-01
-4.830436e-01
-5.788133e-01
-6.819271e-01
-7.920924e-01
-9.089948e-01
-1.032307e+00
-1.161695e+00
-1.296822e+00
-1.437352e+00
-1.582954e+00
-1.733307e+00
-1.888104e+00
-2.047067e+00
-2.209958e+00
-2.376601e+00
-2.546916e+00
-2.720971e+00
-2.899075e+00
-3.081926e+00
-3.270891e+00
-3.468518e+00
-3.679422e+00
-3.911492e+00
-4.174045e+00
-4.465292e+00
0.000000e+00
-2.268990e-02
-5.939002e-02
-1.068427e-01
-1.632031e-01
-2.278426e-01
-3.006361e-01
-3.814611e-01
-4.701438e-01
-5.664534e-01
-6.701178e-01
-7.808374e-01
-8.982948e-01
-1.022162e+00
-1.152106e+00
-1.287791e+00
-1.428881e+00
-1.575046e+00
-1.725968e+00
-1.881342e+00
-2.040895e+00
-2.204392e+00
-2.371668e+00
-2.542654e+00
-2.717436e+00
-2.896338e+00
-3.080051e+00
-3.269834e+00
-3.467773e+00
-3.676908e+00
-3.900153e+00
-4.135605e+00
-4.354785e+00
0.000000e+00
-1.920014e-02
-5.236422e-02
-9.731537e-02
-1.523907e-01
-2.166060e-01
-2.894264e-01
-3.705136e-01
-4.595749e-01
-5.563192e-01
-6.604441e-01
-7.716359e-01
-8.895720e-01
-1.013923e+00
-1.144357e+00
-1.280541e+00
-1.422142e+00
-1.568834e+00
-1.720303e+00
-1.876250e+00
-2.036406e+00
-2.200546e+00
-2.368510e+00
-2.540234e+00
-2.715798e+00
-2.895486e+00
-3.079861e+00
-3.269830e+00
-3.466592e+00
-3.671113e+00
-3.882416e+00
-4.092743e+00
-4.283624e+00
0.000000e+00
-1.697961e-02
-4.775453e-02
-9.075920e-02
-1.445947e-01
-2.082081e-01
-2.808699e-01
-3.620606e-01
-4.513710e-01
-5.484410e-01
-6.529308e-01
-7.645080e-01
-8.828422e-01
-1.007603e+00
-1.138459e+00
-1.275081e+00
-1.417141e+00
-1.564317e+00
-1.716300e+00
-1.872797e+00
-2.033542e+00
-2.198310e+00
-2.366938e+00
-2.539343e+00
-2.715556e+00
-2.895747e+00
-3.080232e+00
-3.269412e+00
-3.463505e+00
-3.661856e+00
-3.861443e+00
-4.055133e+00
-4.232163e+00
0.000000e+00
-1.559956e-02
-4.484008e-02
-8.649761e-02
-1.393720e-01
-2.024371e-01
-2.748829e-01
-3.560836e-01
-4.455411e-01
-5.428365e-01
-6.475952e-01
-7.594670e-01
-8.781136e-01
-1.003203e+00
-1.134407e+00
-1.271398e+00
-1.413853e+00
-1.561457e+00
-1.713902e+00
-1.870896e+00
-2.032173e+00
-2.197499e+00
-2.366687e+00
-2.539609e+00
-2.716206e+00
-2.896480e+00
-3.080449e+00
-3.268006e+00
-3.458611e+00
-3.650711e+00
-3.840984e+00
-4.023942e+00
-4.192862e+00
0.000000e+00
-1.484119e-02
-4.322291e-02
-8.409613e-02
-1.363772e-01
-1.990756e-01
-2.713551e-01
-3.525377e-01
-4.420748e-01
-5.395096e-01
-6.444446e-01
-7.565171e-01
-8.753845e-01
-1.000715e+00
-1.132181e+00
-1.269461e+00
-1.412236e+00
-1.560190e+00
-1.713020e+00
-1.870430e+00
-2.032143e+00
-2.197906e+00
-2.367492e+00
-2.540707e+00
-2.717376e+00
-2.897318e+00
-3.080268e+00
-3.265726e+00
-3.452703e+00
-3.639361e+00
-3.822699e+00
-3.998592e+00
-4.162452e+00
0.000000e+00
-1.459685e-02
-4.270118e-02
-8.331779e-02
-1.354012e-01
-1.979754e-01
-2.701994e-01
-3.513808e-01
-4.409556e-01
-5.384556e-01
-6.434764e-01
-7.556533e-01
-8.746438e-01
-1.000118e+00
-1.131753e+00
-1.269228e+00
-1.412228e+00
-1.560440e+00
-1.713555e+00
-1.871271e+00
-2.033295e+00
-2.199343e+00
-2.369140e+00
-2.542411e+00
-2.718863e+00
-2.898146e+00
-3.079772e+00
-3.262994e+00
-3.446626e+00
-3.628860e+00
-3.807159e+00
-3.978375e+00
-4.139146e+00
0.000000e+00
-1.483412e-02
-4.321311e-02
-8.408768e-02
-1.363747e-01
-1.990846e-01
-2.713830e-01
-3.525943e-01
-4.421732e-01
-5.396669e-01
-6.446826e-01
-7.568634e-01
-8.758733e-01
-1.001387e+00
-1.133085e+00
-1.270651e+00
-1.413770e+00
-1.562127e+00
-1.715409e+00
-1.873303e+00
-2.035494e+00
-2.201664e+00
-2.371482e+00
-2.544595e+00
-2.720603e+00
-2.899017e+00
-3.079198e+00
-3.260268e+00
-3.441008e+00
-3.619771e+00
-3.794466e+00
-3.962657e+00
-4.121776e+00
0.000000e+00
-1.558599e-02
-4.482125e-02
-8.648132e-02
-1.393669e-01
-2.024540e-01
-2.749359e-01
-3.561916e-01
-4.457292e-01
-5.431373e-01
-6.480509e-01
-7.601305e-01
-8.790505e-01
-1.004492e+00
-1.136141e+00
-1.273682e+00
-1.416800e+00
-1.565178e+00
-1.718497e+00
-1.876428e+00
-2.038635e+00
-2.204763e+00
-2.374430e+00
-2.547212e+00
-2.722619e+00
-2.900063e+00
-3.078810e+00
-3.257932e+00
-3.436258e+00
-3.612349e+00
-3.784511e+00
-3.950867e+00
-4.109446e+00
0.000000e+00
-1.696075e-02
-4.772835e-02
-9.073645e-02
-1.445873e-01
-2.082312e-01
-2.809432e-01
-3.622106e-01
-4.516328e-01
-5.488603e-01
-6.535666e-01
-7.654347e-01
-8.841517e-01
-1.009406e+00
-1.140886e+00
-1.278278e+00
-1.421268e+00
-1.569534e+00
-1.722749e+00
-1.880572e+00
-2.042643e+00
-2.208576e+00
-2.377944e+00
-2.550264e+00
-2.724980e+00
-2.901431e+00
-3.078835e+00
-3.256258e+00
-3.432612e+00
-3.606665e+00
-3.777079e+00
-3.942457e+00
-4.101363e+00
0.000000e+00
-1.917792e-02
-5.233341e-02
-9.728856e-02
-1.523822e-01
-2.166339e-01
-2.895148e-01
-3.706946e-01
-4.598910e-01
-5.568257e-01
-6.612125e-01
-7.727563e-01
-8.911556e-01
-1.016104e+00
-1.147294e+00
-1.284411e+00
-1.427140e+00
-1.575155e+00
-1.728122e+00
-1.885688e+00
-2.047475e+00
-2.213070e+00
-2.382012e+00
-2.553775e+00
-2.727753e+00
-2.903243e+00
-3.079435e+00
-3.255413e+00
-3.430175e+00
-3.602676e+00
-3.771892e+00
-3.936873e+00
-4.096737e+00
0.000000e+00
-2.266706e-02
-5.935838e-02
-1.068155e-01
-1.631958e-01
-2.278754e-01
-3.007357e-01
-3.816632e-01
-4.704953e-01
-5.670156e-01
-6.709696e-01
-7.820781e-01
-9.000472e-01
-1.024574e+00
-1.155352e+00
-1.292066e+00
-1.434399e+00
-1.582022e+00
-1.734595e+00
-1.891756e+00
-2.053114e+00
-2.218238e+00
-2.386641e+00
-2.557769e+00
-2.730987e+00
-2.905567e+00
-3.080689e+00
-3.255459e+00
-3.428946e+00
-3.600256e+00
-3.768630e+00
-3.933540e+00
-4.094721e+00
0.000000e+00
-2.831489e-02
-7.010611e-02
-1.202367e-01
-1.773521e-01
-2.420543e-01
-3.146084e-01
-3.950910e-01
-4.834170e-01
-5.794065e-01
-6.828214e-01
-7.933903e-01
-9.108224e-01
-1.034816e+00
-1.165063e+00
-1.301249e+00
-1.443054e+00
-1.590146e+00
-1.742180e+00
-1.898790e+00
-2.059574e+00
-2.224091e+00
-2.391842e+00
-2.562259e+00
-2.734691e+00
-2.908403e+00
-3.082576e+00
-3.256337e+00
-3.428808e+00
-3.599197e+00
-3.766939e+00
-3.931864e+00
-4.094368e+00
0.000000e+00
-3.856082e-02
-8.697379e-02
-1.377987e-01
-1.948164e-01
-2.590479e-01
-3.310369e-01
-4.109139e-01
-4.986187e-01
-5.939795e-01
-6.967620e-01
-8.066962e-01
-9.234916e-01
-1.046846e+00
-1.176450e+00
-1.311988e+00
-1.453138e+00
-1.599565e+00
-1.750920e+00
-1.906834e+00
-2.066900e+00
-2.230672e+00
-2.397647e+00
-2.567253e+00
-2.738840e+00
-2.911677e+00
-3.084961e+00
-3.257841e+00
-3.429479e+00
-3.599148e+00
-3.766388e+00
-3.931258e+00
-4.094668e+00
0.000000e+00
-6.206703e-02
-1.083197e-01
-1.588072e-01
-2.150448e-01
-2.785896e-01
-3.498895e-01
-4.290769e-01
-5.160842e-01
-6.107387e-01
-7.128064e-01
-8.220179e-01
-9.380830e-01
-1.060699e+00
-1.189556e+00
-1.324336e+00
-1.464713e+00
-1.610352e+00
-1.760899e+00
-1.915979e+00
-2.075185e+00
-2.238065e+00
-2.404117e+00