TITLE = "Solution"
VARIABLES = x, y, u, v, psiu, psiv, t, stress
ZONE T="structure" N=561 E=512 F=FEBLOCK ET=QUADRILATERAL VARLOCATION=([7,8]=cellcentered)
0.000000e+00
6.250000e+00
1.250000e+01
1.875000e+01
2.500000e+01
3.125000e+01
3.750000e+01
4.375000e+01
5.000000e+01
5.625000e+01
6.250000e+01
6.875000e+01
7.500000e+01
8.125000e+01
8.750000e+01
9.375000e+01
1.000000e+02
1.062500e+02
1.125000e+02
1.187500e+02
1.250000e+02
1.312500e+02
1.375000e+02
1.437500e+02
1.500000e+02
1.562500e+02
1.625000e+02
1.687500e+02
1.750000e+02
1.812500e+02
1.875000e+02
1.937500e+02
2.000000e+02
0.000000e+00
6.250000e+00
1.250000e+01
1.875000e+01
2.500000e+01
3.125000e+01
3.750000e+01
4.375000e+01
5.000000e+01
5.625000e+01
6.250000e+01
6.875000e+01
7.500000e+01
8.125000e+01
8.750000e+01
9.375000e+01
1.000000e+02
1.062500e+02
1.125000e+02
1.187500e+02
1.250000e+02
1.312500e+02
1.375000e+02
1.437500e+02
1.500000e+02
1.562500e+02
1.625000e+02
1.687500e+02
1.750000e+02
1.812500e+02
1.875000e+02
1.937500e+02
2.000000e+02
0.000000e+00
6.250000e+00
1.250000e+01
1.875000e+01
2.500000e+01
3.125000e+01
3.750000e+01
4.375000e+01
5.000000e+01
5.625000e+01
6.250000e+01
6.875000e+01
7.500000e+01
8.125000e+01
8.750000e+01
9.375000e+01
1.000000e+02
1.062500e+02
1.125000e+02
1.187500e+02
1.250000e+02
1.312500e+02
1.375000e+02
1.437500e+02
1.500000e+02
1.562500e+02
1.625000e+02
1.687500e+02
1.750000e+02
1.812500e+02
1.875000e+02
1.937500e+02
2.000000e+02
0.000000e+00
6.250000e+00
1.250000e+01
1.875000e+01
2.500000e+01
3.125000e+01
3.750000e+01
4.375000e+01
5.000000e+01
5.625000e+01
6.250000e+01
6.875000e+01
7.500000e+01
8.125000e+01
8.750000e+01
9.375000e+01
1.000000e+02
1.062500e+02
1.125000e+02
1.187500e+02
1.250000e+02
1.312500e+02
1.375000e+02
1.437500e+02
1.500000e+02
1.562500e+02
1.625000e+02
1.687500e+02
1.750000e+02
1.812500e+02
1.875000e+02
1.937500e+02
2.000000e+02
0.000000e+00
6.250000e+00
1.250000e+01
1.875000e+01
2.500000e+01
3.125000e+01
3.750000e+01
4.375000e+01
5.000000e+01
5.625000e+01
6.250000e+01
6.875000e+01
7.500000e+01
8.125000e+01
8.750000e+01
9.375000e+01
1.000000e+02
1.062500e+02
1.125000e+02
1.187500e+02
1.250000e+02
1.312500e+02
1.375000e+02
1.437500e+02
1.500000e+02
1.562500e+02
1.625000e+02
1.687500e+02
1.750000e+02
1.812500e+02
1.875000e+02
1.937500e+02
2.000000e+02
0.000000e+00
6.250000e+00
1.250000e+01
1.875000e+01
2.500000e+01
3.125000e+01
3.750000e+01
4.375000e+01
5.000000e+01
5.625000e+01
6.250000e+01
6.875000e+01
7.500000e+01
8.125000e+01
8.750000e+01
9.375000e+01
1.000000e+02
1.062500e+02
1.125000e+02
1.187500e+02
1.250000e+02
1.312500e+02
1.375000e+02
1.437500e+02
1.500000e+02
1.562500e+02
1.625000e+02
1.687500e+02
1.750000e+02
1.812500e+02
1.875000e+02
1.937500e+02
2.000000e+02
0.000000e+00
6.250000e+00
1.250000e+01
1.875000e+01
2.500000e+01
3.125000e+01
3.750000e+01
4.375000e+01
5.000000e+01
5.625000e+01
6.250000e+01
6.875000e+01
7.500000e+01
8.125000e+01
8.750000e+01
9.375000e+01
1.000000e+02
1.062500e+02
1.125000e+02
1.187500e+02
1.250000e+02
1.312500e+02
1.375000e+02
1.437500e+02
1.500000e+02
1.562500e+02
1.625000e+02
1.687500e+02
1.750000e+02
1.812500e+02
1.875000e+02
1.937500e+02
2.000000e+02
0.000000e+00
6.250000e+00
1.250000e+01
1.875000e+01
2.500000e+01
3.125000e+01
3.750000e+01
4.375000e+01
5.000000e+01
5.625000e+01
6.250000e+01
6.875000e+01
7.500000e+01
8.125000e+01
8.750000e+01
9.375000e+01
1.000000e+02
1.062500e+02
1.125000e+02
1.187500e+02
1.250000e+02
1.312500e+02
1.375000e+02
1.437500e+02
1.500000e+02
1.562500e+02
1.625000e+02
1.687500e+02
1.750000e+02
1.812500e+02
1.875000e+02
1.937500e+02
2.000000e+02
0.000000e+00
6.250000e+00
1.250000e+01
1.875000e+01
2.500000e+01
3.125000e+01
3.750000e+01
4.375000e+01
5.000000e+01
5.625000e+01
6.250000e+01
6.875000e+01
7.500000e+01
8.125000e+01
8.750000e+01
9.375000e+01
1.000000e+02
1.062500e+02
1.125000e+02
1.187500e+02
1.250000e+02
1.312500e+02
1.375000e+02
1.437500e+02
1.500000e+02
1.562500e+02
1.625000e+02
1.687500e+02
1.750000e+02
1.812500e+02
1.875000e+02
1.937500e+02
2.000000e+02
0.000000e+00
6.250000e+00
1.250000e+01
1.875000e+01
2.500000e+01
3.125000e+01
3.750000e+01
4.375000e+01
5.000000e+01
5.625000e+01
6.250000e+01
6.875000e+01
7.500000e+01
8.125000e+01
8.750000e+01
9.375000e+01
1.000000e+02
1.062500e+02
1.125000e+02
1.187500e+02
1.250000e+02
1.312500e+02
1.375000e+02
1.437500e+02
1.500000e+02
1.562500e+02
1.625000e+02
1.687500e+02
1.750000e+02
1.812500e+02
1.875000e+02
1.937500e+02
2.000000e+02
0.000000e+00
6.250000e+00
1.250000e+01
1.875000e+01
2.500000e+01
3.125000e+01
3.750000e+01
4.375000e+01
5.000000e+01
5.625000e+01
6.250000e+01
6.875000e+01
7.500000e+01
8.125000e+01
8.750000e+01
9.375000e+01
1.000000e+02
1.062500e+02
1.125000e+02
1.187500e+02
1.250000e+02
1.312500e+02
1.375000e+02
1.437500e+02
1.500000e+02
1.562500e+02
1.625000e+02
1.687500e+02
1.750000e+02
1.812500e+02
1.875000e+02
1.937500e+02
2.000000e+02
0.000000e+00
6.250000e+00
1.250000e+01
1.875000e+01
2.500000e+01
3.125000e+01
3.750000e+01
4.375000e+01
5.000000e+01
5.625000e+01
6.250000e+01
6.875000e+01
7.500000e+01
8.125000e+01
8.750000e+01
9.375000e+01
1.000000e+02
1.062500e+02
1.125000e+02
1.187500e+02
1.250000e+02
1.312500e+02
1.375000e+02
1.437500e+02
1.500000e+02
1.562500e+02
1.625000e+02
1.687500e+02
1.750000e+02
1.812500e+02
1.875000e+02
1.937500e+02
2.000000e+02
0.000000e+00
6.250000e+00
1.250000e+01
1.875000e+01
2.500000e+01
3.125000e+01
3.750000e+01
4.375000e+01
5.000000e+01
5.625000e+01
6.250000e+01
6.875000e+01
7.500000e+01
8.125000e+01
8.750000e+01
9.375000e+01
1.000000e+02
1.062500e+02
1.125000e+02
1.187500e+02
1.250000e+02
1.312500e+02
1.375000e+02
1.437500e+02
1.500000e+02
1.562500e+02
1.625000e+02
1.687500e+02
1.750000e+02
1.812500e+02
1.875000e+02
1.937500e+02
2.000000e+02
0.000000e+00
6.250000e+00
1.250000e+01
1.875000e+01
2.500000e+01
3.125000e+01
3.750000e+01
4.375000e+01
5.000000e+01
5.625000e+01
6.250000e+01
6.875000e+01
7.500000e+01
8.125000e+01
8.750000e+01
9.375000e+01
1.000000e+02
1.062500e+02
1.125000e+02
1.187500e+02
1.250000e+02
1.312500e+02
1.375000e+02
1.437500e+02
1.500000e+02
1.562500e+02
1.625000e+02
1.687500e+02
1.750000e+02
1.812500e+02
1.875000e+02
1.937500e+02
2.000000e+02
0.000000e+00
6.250000e+00
1.250000e+01
1.875000e+01
2.500000e+01
3.125000e+01
3.750000e+01
4.375000e+01
5.000000e+01
5.625000e+01
6.250000e+01
6.875000e+01
7.500000e+01
8.125000e+01
8.750000e+01
9.375000e+01
1.000000e+02
1.062500e+02
1.125000e+02
1.187500e+02
1.250000e+02
1.312500e+02
1.375000e+02
1.437500e+02
1.500000e+02
1.562500e+02
1.625000e+02
1.687500e+02
1.750000e+02
1.812500e+02
1.875000e+02
1.937500e+02
2.000000e+02
0.000000e+00
6.250000e+00
1.250000e+01
1.875000e+01
2.500000e+01
3.125000e+01
3.750000e+01
4.375000e+01
5.000000e+01
5.625000e+01
6.250000e+01
6.875000e+01
7.500000e+01
8.125000e+01
8.750000e+01
9.375000e+01
1.000000e+02
1.062500e+02
1.125000e+02
1.187500e+02
1.250000e+02
1.312500e+02
1.375000e+02
1.437500e+02
1.500000e+02
1.562500e+02
1.625000e+02
1.687500e+02
1.750000e+02
1.812500e+02
1.875000e+02
1.937500e+02
2.000000e+02
0.000000e+00
6.250000e+00
1.250000e+01
1.875000e+01
2.500000e+01
3.125000e+01
3.750000e+01
4.375000e+01
5.000000e+01
5.625000e+01
6.250000e+01
6.875000e+01
7.500000e+01
8.125000e+01
8.750000e+01
9.375000e+01
1.000000e+02
1.062500e+02
1.125000e+02
1.187500e+02
1.250000e+02
1.312500e+02
1.375000e+02
1.437500e+02
1.500000e+02
1.562500e+02
1.625000e+02
1.687500e+02
1.750000e+02
1.812500e+02
1.875000e+02
1.937500e+02
2.000000e+02
0.000000e+00
0.000000e+00
0.000000e+00
0.000000e+00
0.000000e+00
0.000000e+00
0.000000e+00
0.000000e+00
0.000000e+00
0.000000e+00
0.000000e+00
0.000000e+00
0.000000e+00
0.000000e+00
0.000000e+00
0.000000e+00
0.000000e+00
0.000000e+00
0.000000e+00
0.000000e+00
0.000000e+00
0.000000e+00
0.000000e+00
0.000000e+00
0.000000e+00
0.000000e+00
0.000000e+00
0.000000e+00
0.000000e+00
0.000000e+00
0.000000e+00
0.000000e+00
0.000000e+00
6.250000e+00
6.250000e+00
6.250000e+00
6.250000e+00
6.250000e+00
6.250000e+00
6.250000e+00
6.250000e+00
6.250000e+00
6.250000e+00
6.250000e+00
6.250000e+00
6.250000e+00
6.250000e+00
6.250000e+00
6.250000e+00
6.250000e+00
6.250000e+00
6.250000e+00
6.250000e+00
6.250000e+00
6.250000e+00
6.250000e+00
6.250000e+00
6.250000e+00
6.250000e+00
6.250000e+00
6.250000e+00
6.250000e+00
6.250000e+00
6.250000e+00
6.250000e+00
6.250000e+00
1.250000e+01
1.250000e+01
1.250000e+01
1.250000e+01
1.250000e+01
1.250000e+01
1.250000e+01
1.250000e+01
1.250000e+01
1.250000e+01
1.250000e+01
1.250000e+01
1.250000e+01
1.250000e+01
1.250000e+01
1.250000e+01
1.250000e+01
1.250000e+01
1.250000e+01
1.250000e+01
1.250000e+01
1.250000e+01
1.250000e+01
1.250000e+01
1.250000e+01
1.250000e+01
1.250000e+01
1.250000e+01
1.250000e+01
1.250000e+01
1.250000e+01
1.250000e+01
1.250000e+01
1.875000e+01
1.875000e+01
1.875000e+01
1.875000e+01
1.875000e+01
1.875000e+01
1.875000e+01
1.875000e+01
1.875000e+01
1.875000e+01
1.875000e+01
1.875000e+01
1.875000e+01
1.875000e+01
1.875000e+01
1.875000e+01
1.875000e+01
1.875000e+01
1.875000e+01
1.875000e+01
1.875000e+01
1.875000e+01
1.875000e+01
1.875000e+01
1.875000e+01
1.875000e+01
1.875000e+01
1.875000e+01
1.875000e+01
1.875000e+01
1.875000e+01
1.875000e+01
1.875000e+01
2.500000e+01
2.500000e+01
2.500000e+01
2.500000e+01
2.500000e+01
2.500000e+01
2.500000e+01
2.500000e+01
2.500000e+01
2.500000e+01
2.500000e+01
2.500000e+01
2.500000e+01
2.500000e+01
2.500000e+01
2.500000e+01
2.500000e+01
2.500000e+01
2.500000e+01
2.500000e+01
2.500000e+01
2.500000e+01
2.500000e+01
2.500000e+01
2.500000e+01
2.500000e+01
2.500000e+01
2.500000e+01
2.500000e+01
2.500000e+01
2.500000e+01
2.500000e+01
2.500000e+01
3.125000e+01
3.125000e+01
3.125000e+01
3.125000e+01
3.125000e+01
3.125000e+01
3.125000e+01
3.125000e+01
3.125000e+01
3.125000e+01
3.125000e+01
3.125000e+01
3.125000e+01
3.125000e+01
3.125000e+01
3.125000e+01
3.125000e+01
3.125000e+01
3.125000e+01
3.125000e+01
3.125000e+01
3.125000e+01
3.125000e+01
3.125000e+01
3.125000e+01
3.125000e+01
3.125000e+01
3.125000e+01
3.125000e+01
3.125000e+01
3.125000e+01
3.125000e+01
3.125000e+01
3.750000e+01
3.750000e+01
3.750000e+01
3.750000e+01
3.750000e+01
3.750000e+01
3.750000e+01
3.750000e+01
3.750000e+01
3.750000e+01
3.750000e+01
3.750000e+01
3.750000e+01
3.750000e+01
3.750000e+01
3.750000e+01
3.750000e+01
3.750000e+01
3.750000e+01
3.750000e+01
3.750000e+01
3.750000e+01
3.750000e+01
3.750000e+01
3.750000e+01
3.750000e+01
3.750000e+01
3.750000e+01
3.750000e+01
3.750000e+01
3.750000e+01
3.750000e+01
3.750000e+01
4.375000e+01
4.375000e+01
4.375000e+01
4.375000e+01
4.375000e+01
4.375000e+01
4.375000e+01
4.375000e+01
4.375000e+01
4.375000e+01
4.375000e+01
4.375000e+01
4.375000e+01
4.375000e+01
4.375000e+01
4.375000e+01
4.375000e+01
4.375000e+01
4.375000e+01
4.375000e+01
4.375000e+01
4.375000e+01
4.375000e+01
4.375000e+01
4.375000e+01
4.375000e+01
4.375000e+01
4.375000e+01
4.375000e+01
4.375000e+01
4.375000e+01
4.375000e+01
4.375000e+01
5.000000e+01
5.000000e+01
5.000000e+01
5.000000e+01
5.000000e+01
5.000000e+01
5.000000e+01
5.000000e+01
5.000000e+01
5.000000e+01
5.000000e+01
5.000000e+01
5.000000e+01
5.000000e+01
5.000000e+01
5.000000e+01
5.000000e+01
5.000000e+01
5.000000e+01
5.000000e+01
5.000000e+01
5.000000e+01
5.000000e+01
5.000000e+01
5.000000e+01
5.000000e+01
5.000000e+01
5.000000e+01
5.000000e+01
5.000000e+01
5.000000e+01
5.000000e+01
5.000000e+01
5.625000e+01
5.625000e+01
5.625000e+01
5.625000e+01
5.625000e+01
5.625000e+01
5.625000e+01
5.625000e+01
5.625000e+01
5.625000e+01
5.625000e+01
5.625000e+01
5.625000e+01
5.625000e+01
5.625000e+01
5.625000e+01
5.625000e+01
5.625000e+01
5.625000e+01
5.625000e+01
5.625000e+01
5.625000e+01
5.625000e+01
5.625000e+01
5.625000e+01
5.625000e+01
5.625000e+01
5.625000e+01
5.625000e+01
5.625000e+01
5.625000e+01
5.625000e+01
5.625000e+01
6.250000e+01
6.250000e+01
6.250000e+01
6.250000e+01
6.250000e+01
6.250000e+01
6.250000e+01
6.250000e+01
6.250000e+01
6.250000e+01
6.250000e+01
6.250000e+01
6.250000e+01
6.250000e+01
6.250000e+01
6.250000e+01
6.250000e+01
6.250000e+01
6.250000e+01
6.250000e+01
6.250000e+01
6.250000e+01
6.250000e+01
6.250000e+01
6.250000e+01
6.250000e+01
6.250000e+01
6.250000e+01
6.250000e+01
6.250000e+01
6.250000e+01
6.250000e+01
6.250000e+01
6.875000e+01
6.875000e+01
6.875000e+01
6.875000e+01
6.875000e+01
6.875000e+01
6.875000e+01
6.875000e+01
6.875000e+01
6.875000e+01
6.875000e+01
6.875000e+01
6.875000e+01
6.875000e+01
6.875000e+01
6.875000e+01
6.875000e+01
6.875000e+01
6.875000e+01
6.875000e+01
6.875000e+01
6.875000e+01
6.875000e+01
6.875000e+01
6.875000e+01
6.875000e+01
6.875000e+01
6.875000e+01
6.875000e+01
6.875000e+01
6.875000e+01
6.875000e+01
6.875000e+01
7.500000e+01
7.500000e+01
7.500000e+01
7.500000e+01
7.500000e+01
7.500000e+01
7.500000e+01
7.500000e+01
7.500000e+01
7.500000e+01
7.500000e+01
7.500000e+01
7.500000e+01
7.500000e+01
7.500000e+01
7.500000e+01
7.500000e+01
7.500000e+01
7.500000e+01
7.500000e+01
7.500000e+01
7.500000e+01
7.500000e+01
7.500000e+01
7.500000e+01
7.500000e+01
7.500000e+01
7.500000e+01
7.500000e+01
7.500000e+01
7.500000e+01
7.500000e+01
7.500000e+01
8.125000e+01
8.125000e+01
8.125000e+01
8.125000e+01
8.125000e+01
8.125000e+01
8.125000e+01
8.125000e+01
8.125000e+01
8.125000e+01
8.125000e+01
8.125000e+01
8.125000e+01
8.125000e+01
8.125000e+01
8.125000e+01
8.125000e+01
8.125000e+01
8.125000e+01
8.125000e+01
8.125000e+01
8.125000e+01
8.125000e+01
8.125000e+01
8.125000e+01
8.125000e+01
8.125000e+01
8.125000e+01
8.125000e+01
8.125000e+01
8.125000e+01
8.125000e+01
8.125000e+01
8.750000e+01
8.750000e+01
8.750000e+01
8.750000e+01
8.750000e+01
8.750000e+01
8.750000e+01
8.750000e+01
8.750000e+01
8.750000e+01
8.750000e+01
8.750000e+01
8.750000e+01
8.750000e+01
8.750000e+01
8.750000e+01
8.750000e+01
8.750000e+01
8.750000e+01
8.750000e+01
8.750000e+01
8.750000e+01
8.750000e+01
8.750000e+01
8.750000e+01
8.750000e+01
8.750000e+01
8.750000e+01
8.750000e+01
8.750000e+01
8.750000e+01
8.750000e+01
8.750000e+01
9.375000e+01
9.375000e+01
9.375000e+01
9.375000e+01
9.375000e+01
9.375000e+01
9.375000e+01
9.375000e+01
9.375000e+01
9.375000e+01
9.375000e+01
9.375000e+01
9.375000e+01
9.375000e+01
9.375000e+01
9.375000e+01
9.375000e+01
9.375000e+01
9.375000e+01
9.375000e+01
9.375000e+01
9.375000e+01
9.375000e+01
9.375000e+01
9.375000e+01
9.375000e+01
9.375000e+01
9.375000e+01
9.375000e+01
9.375000e+01
9.375000e+01
9.375000e+01
9.375000e+01
1.000000e+02
1.000000e+02
1.000000e+02
1.000000e+02
1.000000e+02
1.000000e+02
1.000000e+02
1.000000e+02
1.000000e+02
1.000000e+02
1.000000e+02
1.000000e+02
1.000000e+02
1.000000e+02
1.000000e+02
1.000000e+02
1.000000e+02
1.000000e+02
1.000000e+02
1.000000e+02
1.000000e+02
1.000000e+02
1.000000e+02
1.000000e+02
1.000000e+02
1.000000e+02
1.000000e+02
1.000000e+02
1.000000e+02
1.000000e+02
1.000000e+02
1.000000e+02
1.000000e+02
0.000000e+00
-6.114184e-02
-1.109337e-01
-1.570589e-01
-2.013262e-01
-2.440731e-01
-2.853854e-01
-3.252594e-01
-3.636700e-01
-4.005892e-01
-4.359940e-01
-4.698683e-01
-5.022038e-01
-5.329999e-01
-5.622638e-01
-5.900108e-01
-6.162659e-01
-6.410652e-01
-6.644584e-01
-6.865130e-01
-7.073185e-01
-7.269936e-01
-7.456950e-01
-7.636306e-01
-7.810790e-01
-7.984189e-01
-8.161760e-01
-8.351002e-01
-8.562916e-01
-8.813690e-01
-9.124324e-01
-9.494514e-01
-9.720435e-01
0.000000e+00
-4.099391e-02
-8.529223e-02
-1.270597e-01
-1.667583e-01
-2.047658e-01
-2.412830e-01
-2.763979e-01
-3.101455e-01
-3.425371e-01
-3.735748e-01
-4.032586e-01
-4.315900e-01
-4.585736e-01
-4.842182e-01
-5.085381e-01
-5.315542e-01
-5.532946e-01
-5.737972e-01
-5.931109e-01
-6.112981e-01
-6.284374e-01
-6.446265e-01
-6.599847e-01
-6.746549e-01
-6.888013e-01
-7.025973e-01
-7.161854e-01
-7.295649e-01
-7.423003e-01
-7.529124e-01
-7.591167e-01
-7.677541e-01
0.000000e+00
-3.251645e-02
-6.694293e-02
-1.019946e-01
-1.360541e-01
-1.688585e-01
-2.003868e-01
-2.306689e-01
-2.597317e-01
-2.875933e-01
-3.142656e-01
-3.397569e-01
-3.640742e-01
-3.872249e-01
-4.092173e-01
-4.300622e-01
-4.497731e-01
-4.683671e-01
-4.858649e-01
-5.022917e-01
-5.176760e-01
-5.320490e-01
-5.454413e-01
-5.578768e-01
-5.693602e-01
-5.798548e-01
-5.892405e-01
-5.972411e-01
-6.033155e-01
-6.065864e-01
-6.062996e-01
-6.044629e-01
-6.145491e-01
0.000000e+00
-2.579892e-02
-5.302266e-02
-8.099169e-02
-1.088952e-01
-1.361230e-01
-1.624417e-01
-1.877678e-01
-2.120785e-01
-2.353730e-01
-2.576572e-01
-2.789385e-01
-2.992242e-01
-3.185205e-01
-3.368332e-01
-3.541675e-01
-3.705281e-01
-3.859192e-01
-4.003440e-01
-4.138032e-01
-4.262935e-01
-4.378033e-01
-4.483072e-01
-4.577563e-01
-4.660634e-01
-4.730817e-01
-4.785790e-01
-4.822195e-01
-4.836095e-01
-4.825776e-01
-4.800715e-01
-4.799219e-01
-4.895315e-01
0.000000e+00
-2.002357e-02
-4.100145e-02
-6.264948e-02
-8.447342e-02
-1.060297e-01
-1.270210e-01
-1.472966e-01
-1.667881e-01
-1.854691e-01
-2.033327e-01
-2.203800e-01
-2.366140e-01
-2.520375e-01
-2.666516e-01
-2.804548e-01
-2.934429e-01
-3.056081e-01
-3.169379e-01
-3.274130e-01
-3.370056e-01
-3.456746e-01
-3.533606e-01
-3.599792e-01
-3.654135e-01
-3.695098e-01
-3.720874e-01
-3.729916e-01
-3.722498e-01
-3.704347e-01
-3.692572e-01
-3.719765e-01
-3.801739e-01
0.000000e+00
-1.471617e-02
-3.006283e-02
-4.590256e-02
-6.196165e-02
-7.794036e-02
-9.360068e-02
-1.087879e-01
-1.234172e-01
-1.374472e-01
-1.508605e-01
-1.636510e-01
-1.758164e-01
-1.873547e-01
-1.982613e-01
-2.085287e-01
-2.181445e-01
-2.270912e-01
-2.353447e-01
-2.428725e-01
-2.496324e-01
-2.555694e-01
-2.606143e-01
-2.646823e-01
-2.676770e-01
-2.695043e-01
-2.701106e-01
-2.695665e-01
-2.682256e-01
-2.669499e-01
-2.672605e-01
-2.707271e-01
-2.775099e-01
0.000000e+00
-9.685011e-03
-1.975311e-02
-3.014061e-02
-4.069938e-02
-5.125170e-02
-6.163844e-02
-7.174359e-02
-8.149455e-02
-9.085128e-02
-9.979352e-02
-1.083111e-01
-1.163975e-01
-1.240460e-01
-1.312473e-01
-1.379883e-01
-1.442507e-01
-1.500106e-01
-1.552370e-01
-1.598914e-01
-1.639271e-01
-1.672893e-01
-1.699169e-01
-1.717480e-01
-1.727318e-01
-1.728539e-01
-1.721812e-01
-1.709364e-01
-1.695932e-01
-1.689421e-01
-1.699580e-01
-1.733330e-01
-1.788083e-01
0.000000e+00
-4.810543e-03
-9.802954e-03
-1.495158e-02
-2.019139e-02
-2.543961e-02
-3.061764e-02
-3.566397e-02
-4.053703e-02
-4.521144e-02
-4.967216e-02
-5.390922e-02
-5.791397e-02
-6.167646e-02
-6.518388e-02
-6.841938e-02
-7.136126e-02
-7.398235e-02
-7.624970e-02
-7.812471e-02
-7.956403e-02
-8.052208e-02
-8.095607e-02
-8.083536e-02
-8.015757e-02
-7.897442e-02
-7.742910e-02
-7.580084e-02
-7.453683e-02
-7.422019e-02
-7.541203e-02
-7.835634e-02
-8.270081e-02
0.000000e+00
-7.761676e-06
-1.682949e-05
-2.670111e-05
-3.685728e-05
-4.659791e-05
-5.486789e-05
-6.006384e-05
-5.980827e-05
-5.067764e-05
-2.787422e-05
1.516434e-05
8.721683e-05
1.997819e-04
3.676090e-04
6.092106e-04
9.472765e-04
1.408862e-03
2.025149e-03
2.830461e-03
3.860090e-03
5.146248e-03
6.711246e-03
8.556782e-03
1.064828e-02
1.289413e-02
1.512238e-02
1.706371e-02
1.835963e-02
1.862244e-02
1.756426e-02
1.516784e-02
1.181152e-02
0.000000e+00
4.795924e-03
9.771191e-03
1.490108e-02
2.012152e-02
2.535103e-02
3.051295e-02
3.554876e-02
4.042134e-02
4.511169e-02
4.961378e-02
5.392996e-02
5.806806e-02
6.203981e-02
6.586022e-02
6.954744e-02
7.312276e-02
7.661046e-02
8.003713e-02
8.343016e-02
8.681489e-02
9.020997e-02
9.362023e-02
9.702674e-02
1.003741e-01
1.035568e-01
1.064081e-01
1.087014e-01
1.101749e-01
1.105920e-01
1.098365e-01
1.080161e-01
1.055250e-01
0.000000e+00
9.673068e-03
1.972698e-02
3.009877e-02
4.064105e-02
5.117705e-02
6.154918e-02
7.164380e-02
8.139183e-02
9.075836e-02
9.973040e-02
1.083077e-01
1.164974e-01
1.243102e-01
1.317601e-01
1.388629e-01
1.456362e-01
1.520996e-01
1.582729e-01
1.641754e-01
1.698223e-01
1.752208e-01
1.803636e-01
1.852209e-01
1.897318e-01
1.937962e-01
1.972726e-01
1.999879e-01
2.017651e-01
2.024757e-01
2.021103e-01
2.008507e-01
1.991121e-01
0.000000e+00
1.470855e-02
3.004586e-02
4.587492e-02
6.192241e-02
7.788913e-02
9.353800e-02
1.087158e-01
1.233398e-01
1.373719e-01
1.507993e-01
1.636224e-01
1.758476e-01
1.874845e-01
1.985440e-01
2.090380e-01
2.189786e-01
2.283786e-01
2.372500e-01
2.456029e-01
2.534434e-01
2.607696e-01
2.675672e-01
2.738043e-01
2.794256e-01
2.843495e-01
2.884699e-01
2.916677e-01
2.938364e-01
2.949230e-01
2.949842e-01
2.942452e-01
2.931464e-01
0.000000e+00
2.002168e-02
4.099672e-02
6.264101e-02
8.446032e-02
1.060113e-01
1.269967e-01
1.472664e-01
1.667526e-01
1.854299e-01
2.032929e-01
2.203446e-01
2.365911e-01
2.520394e-01
2.666958e-01
2.805663e-01
2.936562e-01
3.059697e-01
3.175099e-01
3.282772e-01
3.382684e-01
3.474743e-01
3.558773e-01
3.634482e-01
3.701446e-01
3.759102e-01
3.806790e-01
3.843853e-01
3.869828e-01
3.884751e-01
3.889591e-01
3.886817e-01
3.881028e-01
0.000000e+00
2.580371e-02
5.303240e-02
8.100618e-02
1.089141e-01
1.361456e-01
1.624673e-01
1.877952e-01
2.121056e-01
2.353964e-01
2.576719e-01
2.789371e-01
2.991960e-01
3.184508e-01
3.367020e-01
3.539481e-01
3.701857e-01
3.854095e-01
3.996122e-01
4.127834e-01
4.249101e-01
4.359752e-01
4.459578e-01
4.548327e-01
4.625715e-01
4.691453e-01
4.745294e-01
4.787117e-01
4.817049e-01
4.835651e-01
4.844208e-01
4.845228e-01
4.843307e-01
0.000000e+00
3.252815e-02
6.696790e-02
1.020337e-01
1.361081e-01
1.689280e-01
2.004720e-01
2.307688e-01
2.598433e-01
2.877110e-01
3.143793e-01
3.398503e-01
3.641223e-01
3.871907e-01
4.090482e-01
4.296851e-01
4.490885e-01
4.672426e-01
4.841282e-01
4.997228e-01
5.140009e-01
5.269347e-01
5.384959e-01
5.486588e-01
5.574041e-01
5.647251e-01
5.706350e-01
5.751755e-01
5.784251e-01
5.805065e-01
5.815958e-01
5.819507e-01
5.819930e-01
0.000000e+00
4.101147e-02
8.533060e-02
1.271215e-01
1.668464e-01
2.048833e-01
2.414325e-01
2.765808e-01
3.103610e-01
3.427809e-01
3.738369e-01
4.035203e-01
4.318201e-01
4.587231e-01
4.842142e-01
5.082752e-01
5.308841e-01
5.520144e-01
5.716343e-01
5.897067e-01
6.061901e-01
6.210399e-01
6.342124e-01
6.456698e-01
6.553884e-01
6.633685e-01
6.696481e-01
6.743154e-01
6.775215e-01
6.794861e-01
6.804897e-01
6.808537e-01
6.809428e-01
0.000000e+00
6.116107e-02
1.109786e-01
1.571358e-01
2.014412e-01
2.442326e-01
2.855958e-01
3.255270e-01
3.639996e-01
4.009828e-01
4.364483e-01
4.703712e-01
5.027297e-01
5.335033e-01
5.626705e-01
5.902068e-01
6.160829e-01
6.402630e-01
6.627026e-01
6.833487e-01
7.021392e-01
7.190048e-01
7.338731e-01
7.466761e-01
7.573608e-01
7.659056e-01
7.723411e-01
7.767745e-01
7.794169e-01
7.806076e-01
7.808240e-01
7.806447e-01
7.805439e-01
0.000000e+00
-3.778450e-02
-6.594217e-02
-9.666906e-02
-1.308853e-01
-1.695360e-01
-2.128896e-01
-2.610217e-01
-3.138842e-01
-3.713639e-01
-4.333084e-01
-4.995423e-01
-5.698768e-01
-6.441151e-01
-7.220563e-01
-8.034983e-01
-8.882401e-01
-9.760842e-01
-1.066840e+00
-1.160327e+00
-1.256384e+00
-1.354873e+00
-1.455696e+00
-1.558815e+00
-1.664281e+00
-1.772289e+00
-1.883269e+00
-1.998058e+00
-2.118259e+00
-2.247045e+00
-2.391261e+00
-2.567061e+00
-2.809934e+00
0.000000e+00
-2.348163e-02
-5.295530e-02
-8.388943e-02
-1.185825e-01
-1.576531e-01
-2.014280e-01
-2.499814e-01
-3.032693e-01
-3.611786e-01
-4.235560e-01
-4.902248e-01
-5.609945e-01
-6.356665e-01
-7.140382e-01
-7.959055e-01
-8.810649e-01
-9.693158e-01
-1.060464e+00
-1.154325e+00
-1.250731e+00
-1.349537e+00
-1.450638e+00
-1.553982e+00
-1.659607e+00
-1.767691e+00
-1.878640e+00
-1.993267e+00
-2.113141e+00
-2.241380e+00
-2.384483e+00
-2.556369e+00
-2.783274e+00
0.000000e+00
-1.724862e-02
-4.269233e-02
-7.320446e-02
-1.079582e-01
-1.473166e-01
-1.914370e-01
-2.403604e-01
-2.940279e-01
-3.523208e-01
-4.150833e-01
-4.821374e-01
-5.532916e-01
-6.283467e-01
-7.070994e-01
-7.893447e-01
-8.748781e-01
-9.634980e-01
-1.055009e+00
-1.149224e+00
-1.245975e+00
-1.345117e+00
-1.446541e+00
-1.550199e+00
-1.656134e+00
-1.764533e+00
-1.875821e+00
-1.990829e+00
-2.111109e+00
-2.239469e+00
-2.380710e+00
-2.540504e+00
-2.717763e+00
0.000000e+00
-1.381198e-02
-3.615182e-02
-6.503688e-02
-9.934394e-02
-1.386901e-01
-1.829993e-01
-2.321967e-01
-2.861765e-01
-3.447981e-01
-4.078960e-01
-4.752875e-01
-5.467797e-01
-6.221729e-01
-7.012640e-01
-7.838485e-01
-8.697226e-01
-9.586856e-01
-1.050543e+00
-1.145110e+00
-1.242219e+00
-1.341729e+00
-1.443538e+00
-1.547606e+00
-1.653983e+00
-1.762868e+00
-1.874680e+00
-1.990186e+00
-2.110656e+00
-2.237939e+00
-2.373809e+00
-2.517109e+00
-2.650506e+00
0.000000e+00
-1.168723e-02
-3.187457e-02
-5.923694e-02
-9.276194e-02
-1.318501e-01
-1.761759e-01
-2.255332e-01
-2.797437e-01
-3.386300e-01
-4.020083e-01
-4.696874e-01
-5.414709e-01
-6.171586e-01
-6.965481e-01
-7.794363e-01
-8.656215e-01
-9.549052e-01
-1.047095e+00
-1.142011e+00
-1.239488e+00
-1.339389e+00
-1.441617e+00
-1.546133e+00
-1.652987e+00
-1.762350e+00
-1.874565e+00
-1.990184e+00
-2.109937e+00
-2.234412e+00
-2.363014e+00
-2.491023e+00
-2.607198e+00
0.000000e+00
-1.033524e-02
-2.906815e-02
-5.524568e-02
-8.801601e-02
-1.267381e-01
-1.709675e-01
-2.203879e-01
-2.747502e-01
-3.338349e-01
-3.974354e-01
-4.653492e-01
-5.373752e-01
-6.133120e-01
-6.929584e-01
-7.761135e-01
-8.625779e-01
-9.521562e-01
-1.044659e+00
-1.139909e+00
-1.237744e+00
-1.338028e+00
-1.440660e+00
-1.545591e+00
-1.652839e+00
-1.762508e+00
-1.874791e+00
-1.989930e+00
-2.108058e+00
-2.228778e+00
-2.350250e+00
-2.468134e+00
-2.575880e+00
0.000000e+00
-9.494985e-03
-2.729381e-02
-5.265128e-02
-8.483659e-02
-1.232250e-01
-1.673230e-01
-2.167496e-01
-2.712016e-01
-3.304237e-01
-3.941880e-01
-4.622811e-01
-5.344972e-01
-6.106343e-01
-6.904921e-01
-7.738720e-01
-8.605775e-01
-9.504156e-01
-1.043200e+00
-1.138753e+00
-1.236911e+00
-1.337534e+00
-1.440507e+00
-1.545753e+00
-1.653235e+00
-1.762954e+00
-1.874922e+00
-1.989074e+00
-2.105080e+00
-2.221996e+00
-2.337800e+00
-2.449152e+00
-2.551962e+00
0.000000e+00
-9.033255e-03
-2.630926e-02
-5.118928e-02
-8.301347e-02
-1.211786e-01
-1.651755e-01
-2.145912e-01
-2.690916e-01
-3.283987e-01
-3.922703e-01
-4.604856e-01
-5.328362e-01
-6.091198e-01
-6.891377e-01
-7.726934e-01
-8.595928e-01
-9.496447e-01
-1.042663e+00
-1.138469e+00
-1.236893e+00
-1.337782e+00
-1.440998e+00
-1.546421e+00
-1.653947e+00
-1.763464e+00
-1.874812e+00
-1.987686e+00
-2.101485e+00
-2.215089e+00
-2.326673e+00
-2.433726e+00
-2.533457e+00
0.000000e+00
-8.884487e-03
-2.599162e-02
-5.071543e-02
-8.241929e-02
-1.205089e-01
-1.644720e-01
-2.138870e-01
-2.684104e-01
-3.277571e-01
-3.916810e-01
-4.599599e-01
-5.323854e-01
-6.087566e-01
-6.888769e-01
-7.725517e-01
-8.595885e-01
-9.497967e-01
-1.042989e+00
-1.138981e+00
-1.237594e+00
-1.338657e+00
-1.442000e+00
-1.547458e+00
-1.654852e+00
-1.763968e+00
-1.874510e+00
-1.986023e+00
-2.097786e+00
-2.208698e+00
-2.317216e+00
-2.421423e+00
-2.519274e+00
0.000000e+00
-9.028951e-03
-2.630329e-02
-5.118413e-02
-8.301192e-02
-1.211841e-01
-1.651924e-01
-2.146257e-01
-2.691515e-01
-3.284944e-01
-3.924151e-01
-4.606964e-01
-5.331337e-01
-6.095290e-01
-6.896878e-01
-7.734175e-01
-8.605264e-01
-9.508232e-01
-1.044117e+00
-1.140217e+00
-1.238933e+00
-1.340069e+00
-1.443425e+00
-1.548787e+00
-1.655910e+00
-1.764498e+00
-1.874161e+00
-1.984365e+00
-2.094368e+00
-2.203167e+00
-2.309492e+00
-2.411858e+00
-2.508704e+00
0.000000e+00
-9.486727e-03
-2.728235e-02
-5.264136e-02
-8.483348e-02
-1.232352e-01
-1.673553e-01
-2.168153e-01
-2.713160e-01
-3.306067e-01
-3.944652e-01
-4.626848e-01
-5.350674e-01
-6.114189e-01
-6.915475e-01
-7.752619e-01
-8.623703e-01
-9.526800e-01
-1.045996e+00
-1.142119e+00
-1.240844e+00
-1.341955e+00
-1.445219e+00
-1.550380e+00
-1.657138e+00
-1.765135e+00
-1.873925e+00
-1.982943e+00
-2.091477e+00
-2.198651e+00
-2.303434e+00
-2.404683e+00
-2.501200e+00
0.000000e+00
-1.032376e-02
-2.905222e-02
-5.523183e-02
-8.801153e-02
-1.267521e-01
-1.710121e-01
-2.204792e-01
-2.749095e-01
-3.340901e-01
-3.978223e-01
-4.659131e-01
-5.381720e-01
-6.144093e-01
-6.944352e-01
-7.780594e-01
-8.650896e-01
-9.553310e-01
-1.048584e+00
-1.144641e+00
-1.243283e+00
-1.344275e+00
-1.447358e+00
-1.552237e+00
-1.658574e+00
-1.765967e+00
-1.873940e+00
-1.981924e+00
-2.089258e+00
-2.195192e+00
-2.298911e+00
-2.399566e+00
-2.496281e+00
0.000000e+00
-1.167371e-02
-3.185581e-02
-5.922063e-02
-9.275675e-02
-1.318671e-01
-1.762297e-01
-2.256433e-01
-2.799360e-01
-3.389383e-01
-4.024759e-01
-4.703692e-01
-5.424347e-01
-6.184860e-01
-6.983351e-01
-7.817917e-01
-8.686630e-01
-9.587516e-01
-1.051853e+00
-1.147754e+00
-1.246223e+00
-1.347010e+00
-1.449834e+00
-1.554374e+00
-1.660262e+00
-1.767070e+00
-1.874305e+00
-1.981410e+00
-2.087775e+00
-2.192764e+00
-2.295754e+00
-2.396168e+00
-2.493467e+00
0.000000e+00
-1.379808e-02
-3.613257e-02
-6.502029e-02
-9.933949e-02
-1.387101e-01
-1.830599e-01
-2.323196e-01
-2.863904e-01
-3.451403e-01
-4.084143e-01
-4.760426e-01
-5.478461e-01
-6.236408e-01
-7.032390e-01
-7.864504e-01
-8.730808e-01
-9.629309e-01
-1.055793e+00
-1.151447e+00
-1.249655e+00
-1.350155e+00
-1.452650e+00
-1.556804e+00
-1.662230e+00
-1.768484e+00
-1.875068e+00
-1.981438e+00
-2.087027e+00
-2.191292e+00
-2.293769e+00
-2.394139e+00
-2.492240e+00
0.000000e+00
-1.723651e-02
-4.267547e-02
-7.319046e-02
-1.079568e-01
-1.473409e-01
-1.915040e-01
-2.404926e-01
-2.942551e-01
-3.526817e-01
-4.156275e-01
-4.829272e-01
-5.544038e-01
-6.298737e-01
-7.091491e-01
-7.920388e-01
-8.783477e-01
-9.678745e-01
-1.060409e+00
-1.155727e+00
-1.253586e+00
-1.353717e+00
-1.455816e+00
-1.559537e+00
-1.664484e+00
-1.770210e+00
-1.876217e+00
-1.981973e+00
-2.086943e+00
-2.190647e+00
-2.292740e+00
-2.393119e+00
-2.492025e+00
0.000000e+00
-2.347385e-02
-5.294383e-02
-8.388119e-02
-1.185876e-01
-1.576847e-01
-2.015035e-01
-2.501233e-01
-3.035074e-01
-3.615511e-01
-4.241119e-01
-4.910252e-01
-5.621141e-01
-6.371948e-01
-7.160789e-01
-7.985743e-01
-8.844844e-01
-9.736063e-01
-1.065728e+00
-1.160622e+00
-1.258045e+00
-1.357722e+00
-1.459348e+00
-1.562576e+00
-1.667009e+00
-1.772202e+00
-1.877668e+00
-1.982888e+00
-2.087352e+00
-2.190617e+00
-2.292405e+00
-2.392751e+00
-2.492207e+00
0.000000e+00
-3.778339e-02
-6.593835e-02
-9.666979e-02
-1.309007e-01
-1.695794e-01
-2.129783e-01
-2.611781e-01
-3.141374e-01
-3.717511e-01
-4.338766e-01
-5.003499e-01
-5.709942e-01
-6.456255e-01
-7.240547e-01
-8.060885e-01
-8.915289e-01
-9.801710e-01
-1.071800e+00
-1.166188e+00
-1.263086e+00
-1.362221e+00
-1.463286e+00