TITLE = "Solution"
VARIABLES = x, y, u, v, psiu, psiv, t, stress
ZONE T="structure" N=561 E=512 F=FEBLOCK ET=QUADRILATERAL VARLOCATION=([7,8]=cellcentered)
0.000000e+00
6.250000e+00
1.250000e+01
1.875000e+01
2.500000e+01
3.125000e+01
3.750000e+01
4.375000e+01
5.000000e+01
5.625000e+01
6.250000e+01
6.875000e+01
7.500000e+01
8.125000e+01
8.750000e+01
9.375000e+01
1.000000e+02
1.062500e+02
1.125000e+02
1.187500e+02
1.250000e+02
1.312500e+02
1.375000e+02
1.437500e+02
1.500000e+02
1.562500e+02
1.625000e+02
1.687500e+02
1.750000e+02
1.812500e+02
1.875000e+02
1.937500e+02
2.000000e+02
0.000000e+00
6.250000e+00
1.250000e+01
1.875000e+01
2.500000e+01
3.125000e+01
3.750000e+01
4.375000e+01
5.000000e+01
5.625000e+01
6.250000e+01
6.875000e+01
7.500000e+01
8.125000e+01
8.750000e+01
9.375000e+01
1.000000e+02
1.062500e+02
1.125000e+02
1.187500e+02
1.250000e+02
1.312500e+02
1.375000e+02
1.437500e+02
1.500000e+02
1.562500e+02
1.625000e+02
1.687500e+02
1.750000e+02
1.812500e+02
1.875000e+02
1.937500e+02
2.000000e+02
0.000000e+00
6.250000e+00
1.250000e+01
1.875000e+01
2.500000e+01
3.125000e+01
3.750000e+01
4.375000e+01
5.000000e+01
5.625000e+01
6.250000e+01
6.875000e+01
7.500000e+01
8.125000e+01
8.750000e+01
9.375000e+01
1.000000e+02
1.062500e+02
1.125000e+02
1.187500e+02
1.250000e+02
1.312500e+02
1.375000e+02
1.437500e+02
1.500000e+02
1.562500e+02
1.625000e+02
1.687500e+02
1.750000e+02
1.812500e+02
1.875000e+02
1.937500e+02
2.000000e+02
0.000000e+00
6.250000e+00
1.250000e+01
1.875000e+01
2.500000e+01
3.125000e+01
3.750000e+01
4.375000e+01
5.000000e+01
5.625000e+01
6.250000e+01
6.875000e+01
7.500000e+01
8.125000e+01
8.750000e+01
9.375000e+01
1.000000e+02
1.062500e+02
1.125000e+02
1.187500e+02
1.250000e+02
1.312500e+02
1.375000e+02
1.437500e+02
1.500000e+02
1.562500e+02
1.625000e+02
1.687500e+02
1.750000e+02
1.812500e+02
1.875000e+02
1.937500e+02
2.000000e+02
0.000000e+00
6.250000e+00
1.250000e+01
1.875000e+01
2.500000e+01
3.125000e+01
3.750000e+01
4.375000e+01
5.000000e+01
5.625000e+01
6.250000e+01
6.875000e+01
7.500000e+01
8.125000e+01
8.750000e+01
9.375000e+01
1.000000e+02
1.062500e+02
1.125000e+02
1.187500e+02
1.250000e+02
1.312500e+02
1.375000e+02
1.437500e+02
1.500000e+02
1.562500e+02
1.625000e+02
1.687500e+02
1.750000e+02
1.812500e+02
1.875000e+02
1.937500e+02
2.000000e+02
0.000000e+00
6.250000e+00
1.250000e+01
1.875000e+01
2.500000e+01
3.125000e+01
3.750000e+01
4.375000e+01
5.000000e+01
5.625000e+01
6.250000e+01
6.875000e+01
7.500000e+01
8.125000e+01
8.750000e+01
9.375000e+01
1.000000e+02
1.062500e+02
1.125000e+02
1.187500e+02
1.250000e+02
1.312500e+02
1.375000e+02
1.437500e+02
1.500000e+02
1.562500e+02
1.625000e+02
1.687500e+02
1.750000e+02
1.812500e+02
1.875000e+02
1.937500e+02
2.000000e+02
0.000000e+00
6.250000e+00
1.250000e+01
1.875000e+01
2.500000e+01
3.125000e+01
3.750000e+01
4.375000e+01
5.000000e+01
5.625000e+01
6.250000e+01
6.875000e+01
7.500000e+01
8.125000e+01
8.750000e+01
9.375000e+01
1.000000e+02
1.062500e+02
1.125000e+02
1.187500e+02
1.250000e+02
1.312500e+02
1.375000e+02
1.437500e+02
1.500000e+02
1.562500e+02
1.625000e+02
1.687500e+02
1.750000e+02
1.812500e+02
1.875000e+02
1.937500e+02
2.000000e+02
0.000000e+00
6.250000e+00
1.250000e+01
1.875000e+01
2.500000e+01
3.125000e+01
3.750000e+01
4.375000e+01
5.000000e+01
5.625000e+01
6.250000e+01
6.875000e+01
7.500000e+01
8.125000e+01
8.750000e+01
9.375000e+01
1.000000e+02
1.062500e+02
1.125000e+02
1.187500e+02
1.250000e+02
1.312500e+02
1.375000e+02
1.437500e+02
1.500000e+02
1.562500e+02
1.625000e+02
1.687500e+02
1.750000e+02
1.812500e+02
1.875000e+02
1.937500e+02
2.000000e+02
0.000000e+00
6.250000e+00
1.250000e+01
1.875000e+01
2.500000e+01
3.125000e+01
3.750000e+01
4.375000e+01
5.000000e+01
5.625000e+01
6.250000e+01
6.875000e+01
7.500000e+01
8.125000e+01
8.750000e+01
9.375000e+01
1.000000e+02
1.062500e+02
1.125000e+02
1.187500e+02
1.250000e+02
1.312500e+02
1.375000e+02
1.437500e+02
1.500000e+02
1.562500e+02
1.625000e+02
1.687500e+02
1.750000e+02
1.812500e+02
1.875000e+02
1.937500e+02
2.000000e+02
0.000000e+00
6.250000e+00
1.250000e+01
1.875000e+01
2.500000e+01
3.125000e+01
3.750000e+01
4.375000e+01
5.000000e+01
5.625000e+01
6.250000e+01
6.875000e+01
7.500000e+01
8.125000e+01
8.750000e+01
9.375000e+01
1.000000e+02
1.062500e+02
1.125000e+02
1.187500e+02
1.250000e+02
1.312500e+02
1.375000e+02
1.437500e+02
1.500000e+02
1.562500e+02
1.625000e+02
1.687500e+02
1.750000e+02
1.812500e+02
1.875000e+02
1.937500e+02
2.000000e+02
0.000000e+00
6.250000e+00
1.250000e+01
1.875000e+01
2.500000e+01
3.125000e+01
3.750000e+01
4.375000e+01
5.000000e+01
5.625000e+01
6.250000e+01
6.875000e+01
7.500000e+01
8.125000e+01
8.750000e+01
9.375000e+01
1.000000e+02
1.062500e+02
1.125000e+02
1.187500e+02
1.250000e+02
1.312500e+02
1.375000e+02
1.437500e+02
1.500000e+02
1.562500e+02
1.625000e+02
1.687500e+02
1.750000e+02
1.812500e+02
1.875000e+02
1.937500e+02
2.000000e+02
0.000000e+00
6.250000e+00
1.250000e+01
1.875000e+01
2.500000e+01
3.125000e+01
3.750000e+01
4.375000e+01
5.000000e+01
5.625000e+01
6.250000e+01
6.875000e+01
7.500000e+01
8.125000e+01
8.750000e+01
9.375000e+01
1.000000e+02
1.062500e+02
1.125000e+02
1.187500e+02
1.250000e+02
1.312500e+02
1.375000e+02
1.437500e+02
1.500000e+02
1.562500e+02
1.625000e+02
1.687500e+02
1.750000e+02
1.812500e+02
1.875000e+02
1.937500e+02
2.000000e+02
0.000000e+00
6.250000e+00
1.250000e+01
1.875000e+01
2.500000e+01
3.125000e+01
3.750000e+01
4.375000e+01
5.000000e+01
5.625000e+01
6.250000e+01
6.875000e+01
7.500000e+01
8.125000e+01
8.750000e+01
9.375000e+01
1.000000e+02
1.062500e+02
1.125000e+02
1.187500e+02
1.250000e+02
1.312500e+02
1.375000e+02
1.437500e+02
1.500000e+02
1.562500e+02
1.625000e+02
1.687500e+02
1.750000e+02
1.812500e+02
1.875000e+02
1.937500e+02
2.000000e+02
0.000000e+00
6.250000e+00
1.250000e+01
1.875000e+01
2.500000e+01
3.125000e+01
3.750000e+01
4.375000e+01
5.000000e+01
5.625000e+01
6.250000e+01
6.875000e+01
7.500000e+01
8.125000e+01
8.750000e+01
9.375000e+01
1.000000e+02
1.062500e+02
1.125000e+02
1.187500e+02
1.250000e+02
1.312500e+02
1.375000e+02
1.437500e+02
1.500000e+02
1.562500e+02
1.625000e+02
1.687500e+02
1.750000e+02
1.812500e+02
1.875000e+02
1.937500e+02
2.000000e+02
0.000000e+00
6.250000e+00
1.250000e+01
1.875000e+01
2.500000e+01
3.125000e+01
3.750000e+01
4.375000e+01
5.000000e+01
5.625000e+01
6.250000e+01
6.875000e+01
7.500000e+01
8.125000e+01
8.750000e+01
9.375000e+01
1.000000e+02
1.062500e+02
1.125000e+02
1.187500e+02
1.250000e+02
1.312500e+02
1.375000e+02
1.437500e+02
1.500000e+02
1.562500e+02
1.625000e+02
1.687500e+02
1.750000e+02
1.812500e+02
1.875000e+02
1.937500e+02
2.000000e+02
0.000000e+00
6.250000e+00
1.250000e+01
1.875000e+01
2.500000e+01
3.125000e+01
3.750000e+01
4.375000e+01
5.000000e+01
5.625000e+01
6.250000e+01
6.875000e+01
7.500000e+01
8.125000e+01
8.750000e+01
9.375000e+01
1.000000e+02
1.062500e+02
1.125000e+02
1.187500e+02
1.250000e+02
1.312500e+02
1.375000e+02
1.437500e+02
1.500000e+02
1.562500e+02
1.625000e+02
1.687500e+02
1.750000e+02
1.812500e+02
1.875000e+02
1.937500e+02
2.000000e+02
0.000000e+00
6.250000e+00
1.250000e+01
1.875000e+01
2.500000e+01
3.125000e+01
3.750000e+01
4.375000e+01
5.000000e+01
5.625000e+01
6.250000e+01
6.875000e+01
7.500000e+01
8.125000e+01
8.750000e+01
9.375000e+01
1.000000e+02
1.062500e+02
1.125000e+02
1.187500e+02
1.250000e+02
1.312500e+02
1.375000e+02
1.437500e+02
1.500000e+02
1.562500e+02
1.625000e+02
1.687500e+02
1.750000e+02
1.812500e+02
1.875000e+02
1.937500e+02
2.000000e+02
0.000000e+00
0.000000e+00
0.000000e+00
0.000000e+00
0.000000e+00
0.000000e+00
0.000000e+00
0.000000e+00
0.000000e+00
0.000000e+00
0.000000e+00
0.000000e+00
0.000000e+00
0.000000e+00
0.000000e+00
0.000000e+00
0.000000e+00
0.000000e+00
0.000000e+00
0.000000e+00
0.000000e+00
0.000000e+00
0.000000e+00
0.000000e+00
0.000000e+00
0.000000e+00
0.000000e+00
0.000000e+00
0.000000e+00
0.000000e+00
0.000000e+00
0.000000e+00
0.000000e+00
6.250000e+00
6.250000e+00
6.250000e+00
6.250000e+00
6.250000e+00
6.250000e+00
6.250000e+00
6.250000e+00
6.250000e+00
6.250000e+00
6.250000e+00
6.250000e+00
6.250000e+00
6.250000e+00
6.250000e+00
6.250000e+00
6.250000e+00
6.250000e+00
6.250000e+00
6.250000e+00
6.250000e+00
6.250000e+00
6.250000e+00
6.250000e+00
6.250000e+00
6.250000e+00
6.250000e+00
6.250000e+00
6.250000e+00
6.250000e+00
6.250000e+00
6.250000e+00
6.250000e+00
1.250000e+01
1.250000e+01
1.250000e+01
1.250000e+01
1.250000e+01
1.250000e+01
1.250000e+01
1.250000e+01
1.250000e+01
1.250000e+01
1.250000e+01
1.250000e+01
1.250000e+01
1.250000e+01
1.250000e+01
1.250000e+01
1.250000e+01
1.250000e+01
1.250000e+01
1.250000e+01
1.250000e+01
1.250000e+01
1.250000e+01
1.250000e+01
1.250000e+01
1.250000e+01
1.250000e+01
1.250000e+01
1.250000e+01
1.250000e+01
1.250000e+01
1.250000e+01
1.250000e+01
1.875000e+01
1.875000e+01
1.875000e+01
1.875000e+01
1.875000e+01
1.875000e+01
1.875000e+01
1.875000e+01
1.875000e+01
1.875000e+01
1.875000e+01
1.875000e+01
1.875000e+01
1.875000e+01
1.875000e+01
1.875000e+01
1.875000e+01
1.875000e+01
1.875000e+01
1.875000e+01
1.875000e+01
1.875000e+01
1.875000e+01
1.875000e+01
1.875000e+01
1.875000e+01
1.875000e+01
1.875000e+01
1.875000e+01
1.875000e+01
1.875000e+01
1.875000e+01
1.875000e+01
2.500000e+01
2.500000e+01
2.500000e+01
2.500000e+01
2.500000e+01
2.500000e+01
2.500000e+01
2.500000e+01
2.500000e+01
2.500000e+01
2.500000e+01
2.500000e+01
2.500000e+01
2.500000e+01
2.500000e+01
2.500000e+01
2.500000e+01
2.500000e+01
2.500000e+01
2.500000e+01
2.500000e+01
2.500000e+01
2.500000e+01
2.500000e+01
2.500000e+01
2.500000e+01
2.500000e+01
2.500000e+01
2.500000e+01
2.500000e+01
2.500000e+01
2.500000e+01
2.500000e+01
3.125000e+01
3.125000e+01
3.125000e+01
3.125000e+01
3.125000e+01
3.125000e+01
3.125000e+01
3.125000e+01
3.125000e+01
3.125000e+01
3.125000e+01
3.125000e+01
3.125000e+01
3.125000e+01
3.125000e+01
3.125000e+01
3.125000e+01
3.125000e+01
3.125000e+01
3.125000e+01
3.125000e+01
3.125000e+01
3.125000e+01
3.125000e+01
3.125000e+01
3.125000e+01
3.125000e+01
3.125000e+01
3.125000e+01
3.125000e+01
3.125000e+01
3.125000e+01
3.125000e+01
3.750000e+01
3.750000e+01
3.750000e+01
3.750000e+01
3.750000e+01
3.750000e+01
3.750000e+01
3.750000e+01
3.750000e+01
3.750000e+01
3.750000e+01
3.750000e+01
3.750000e+01
3.750000e+01
3.750000e+01
3.750000e+01
3.750000e+01
3.750000e+01
3.750000e+01
3.750000e+01
3.750000e+01
3.750000e+01
3.750000e+01
3.750000e+01
3.750000e+01
3.750000e+01
3.750000e+01
3.750000e+01
3.750000e+01
3.750000e+01
3.750000e+01
3.750000e+01
3.750000e+01
4.375000e+01
4.375000e+01
4.375000e+01
4.375000e+01
4.375000e+01
4.375000e+01
4.375000e+01
4.375000e+01
4.375000e+01
4.375000e+01
4.375000e+01
4.375000e+01
4.375000e+01
4.375000e+01
4.375000e+01
4.375000e+01
4.375000e+01
4.375000e+01
4.375000e+01
4.375000e+01
4.375000e+01
4.375000e+01
4.375000e+01
4.375000e+01
4.375000e+01
4.375000e+01
4.375000e+01
4.375000e+01
4.375000e+01
4.375000e+01
4.375000e+01
4.375000e+01
4.375000e+01
5.000000e+01
5.000000e+01
5.000000e+01
5.000000e+01
5.000000e+01
5.000000e+01
5.000000e+01
5.000000e+01
5.000000e+01
5.000000e+01
5.000000e+01
5.000000e+01
5.000000e+01
5.000000e+01
5.000000e+01
5.000000e+01
5.000000e+01
5.000000e+01
5.000000e+01
5.000000e+01
5.000000e+01
5.000000e+01
5.000000e+01
5.000000e+01
5.000000e+01
5.000000e+01
5.000000e+01
5.000000e+01
5.000000e+01
5.000000e+01
5.000000e+01
5.000000e+01
5.000000e+01
5.625000e+01
5.625000e+01
5.625000e+01
5.625000e+01
5.625000e+01
5.625000e+01
5.625000e+01
5.625000e+01
5.625000e+01
5.625000e+01
5.625000e+01
5.625000e+01
5.625000e+01
5.625000e+01
5.625000e+01
5.625000e+01
5.625000e+01
5.625000e+01
5.625000e+01
5.625000e+01
5.625000e+01
5.625000e+01
5.625000e+01
5.625000e+01
5.625000e+01
5.625000e+01
5.625000e+01
5.625000e+01
5.625000e+01
5.625000e+01
5.625000e+01
5.625000e+01
5.625000e+01
6.250000e+01
6.250000e+01
6.250000e+01
6.250000e+01
6.250000e+01
6.250000e+01
6.250000e+01
6.250000e+01
6.250000e+01
6.250000e+01
6.250000e+01
6.250000e+01
6.250000e+01
6.250000e+01
6.250000e+01
6.250000e+01
6.250000e+01
6.250000e+01
6.250000e+01
6.250000e+01
6.250000e+01
6.250000e+01
6.250000e+01
6.250000e+01
6.250000e+01
6.250000e+01
6.250000e+01
6.250000e+01
6.250000e+01
6.250000e+01
6.250000e+01
6.250000e+01
6.250000e+01
6.875000e+01
6.875000e+01
6.875000e+01
6.875000e+01
6.875000e+01
6.875000e+01
6.875000e+01
6.875000e+01
6.875000e+01
6.875000e+01
6.875000e+01
6.875000e+01
6.875000e+01
6.875000e+01
6.875000e+01
6.875000e+01
6.875000e+01
6.875000e+01
6.875000e+01
6.875000e+01
6.875000e+01
6.875000e+01
6.875000e+01
6.875000e+01
6.875000e+01
6.875000e+01
6.875000e+01
6.875000e+01
6.875000e+01
6.875000e+01
6.875000e+01
6.875000e+01
6.875000e+01
7.500000e+01
7.500000e+01
7.500000e+01
7.500000e+01
7.500000e+01
7.500000e+01
7.500000e+01
7.500000e+01
7.500000e+01
7.500000e+01
7.500000e+01
7.500000e+01
7.500000e+01
7.500000e+01
7.500000e+01
7.500000e+01
7.500000e+01
7.500000e+01
7.500000e+01
7.500000e+01
7.500000e+01
7.500000e+01
7.500000e+01
7.500000e+01
7.500000e+01
7.500000e+01
7.500000e+01
7.500000e+01
7.500000e+01
7.500000e+01
7.500000e+01
7.500000e+01
7.500000e+01
8.125000e+01
8.125000e+01
8.125000e+01
8.125000e+01
8.125000e+01
8.125000e+01
8.125000e+01
8.125000e+01
8.125000e+01
8.125000e+01
8.125000e+01
8.125000e+01
8.125000e+01
8.125000e+01
8.125000e+01
8.125000e+01
8.125000e+01
8.125000e+01
8.125000e+01
8.125000e+01
8.125000e+01
8.125000e+01
8.125000e+01
8.125000e+01
8.125000e+01
8.125000e+01
8.125000e+01
8.125000e+01
8.125000e+01
8.125000e+01
8.125000e+01
8.125000e+01
8.125000e+01
8.750000e+01
8.750000e+01
8.750000e+01
8.750000e+01
8.750000e+01
8.750000e+01
8.750000e+01
8.750000e+01
8.750000e+01
8.750000e+01
8.750000e+01
8.750000e+01
8.750000e+01
8.750000e+01
8.750000e+01
8.750000e+01
8.750000e+01
8.750000e+01
8.750000e+01
8.750000e+01
8.750000e+01
8.750000e+01
8.750000e+01
8.750000e+01
8.750000e+01
8.750000e+01
8.750000e+01
8.750000e+01
8.750000e+01
8.750000e+01
8.750000e+01
8.750000e+01
8.750000e+01
9.375000e+01
9.375000e+01
9.375000e+01
9.375000e+01
9.375000e+01
9.375000e+01
9.375000e+01
9.375000e+01
9.375000e+01
9.375000e+01
9.375000e+01
9.375000e+01
9.375000e+01
9.375000e+01
9.375000e+01
9.375000e+01
9.375000e+01
9.375000e+01
9.375000e+01
9.375000e+01
9.375000e+01
9.375000e+01
9.375000e+01
9.375000e+01
9.375000e+01
9.375000e+01
9.375000e+01
9.375000e+01
9.375000e+01
9.375000e+01
9.375000e+01
9.375000e+01
9.375000e+01
1.000000e+02
1.000000e+02
1.000000e+02
1.000000e+02
1.000000e+02
1.000000e+02
1.000000e+02
1.000000e+02
1.000000e+02
1.000000e+02
1.000000e+02
1.000000e+02
1.000000e+02
1.000000e+02
1.000000e+02
1.000000e+02
1.000000e+02
1.000000e+02
1.000000e+02
1.000000e+02
1.000000e+02
1.000000e+02
1.000000e+02
1.000000e+02
1.000000e+02
1.000000e+02
1.000000e+02
1.000000e+02
1.000000e+02
1.000000e+02
1.000000e+02
1.000000e+02
1.000000e+02
0.000000e+00
-2.859332e-01
-5.184423e-01
-7.346686e-01
-9.438197e-01
-1.147097e+00
-1.344539e+00
-1.535908e+00
-1.720928e+00
-1.899346e+00
-2.070947e+00
-2.235558e+00
-2.393048e+00
-2.543332e+00
-2.686373e+00
-2.822184e+00
-2.950831e+00
-3.072453e+00
-3.187263e+00
-3.295561e+00
-3.397767e+00
-3.494444e+00
-3.586346e+00
-3.674480e+00
-3.760200e+00
-3.845344e+00
-3.932462e+00
-4.025186e+00
-4.128829e+00
-4.251145e+00
-4.401931e+00
-4.580568e+00
-4.689256e+00
0.000000e+00
-1.911247e-01
-3.974934e-01
-5.928488e-01
-7.801144e-01
-9.606861e-01
-1.135115e+00
-1.303591e+00
-1.466124e+00
-1.622651e+00
-1.773085e+00
-1.917337e+00
-2.055330e+00
-2.187015e+00
-2.312371e+00
-2.431412e+00
-2.544193e+00
-2.650818e+00
-2.751443e+00
-2.846285e+00
-2.935630e+00
-3.019849e+00
-3.099409e+00
-3.174886e+00
-3.246971e+00
-3.316460e+00
-3.384197e+00
-3.450875e+00
-3.516486e+00
-3.578853e+00
-3.630618e+00
-3.660731e+00
-3.702503e+00
0.000000e+00
-1.512684e-01
-3.114848e-01
-4.753645e-01
-6.358473e-01
-7.914761e-01
-9.418913e-01
-1.087048e+00
-1.226927e+00
-1.361501e+00
-1.490732e+00
-1.614577e+00
-1.732993e+00
-1.845951e+00
-1.953437e+00
-2.055455e+00
-2.152030e+00
-2.243214e+00
-2.329085e+00
-2.409745e+00
-2.485319e+00
-2.555946e+00
-2.621766e+00
-2.682892e+00
-2.739343e+00
-2.790939e+00
-2.837097e+00
-2.876478e+00
-2.906447e+00
-2.922701e+00
-2.921548e+00
-2.912831e+00
-2.961536e+00
0.000000e+00
-1.200337e-01
-2.468002e-01
-3.776156e-01
-5.089912e-01
-6.379733e-01
-7.633426e-01
-8.845822e-01
-1.001467e+00
-1.113888e+00
-1.221785e+00
-1.325117e+00
-1.423851e+00
-1.517962e+00
-1.607430e+00
-1.692238e+00
-1.772376e+00
-1.847836e+00
-1.918613e+00
-1.984692e+00
-2.046042e+00
-2.102598e+00
-2.154228e+00
-2.200688e+00
-2.241549e+00
-2.276096e+00
-2.303197e+00
-2.321215e+00
-2.328223e+00
-2.323361e+00
-2.311264e+00
-2.310603e+00
-2.357081e+00
0.000000e+00
-9.332868e-02
-1.911791e-01
-2.925181e-01
-3.952176e-01
-4.972075e-01
-5.970514e-01
-6.939741e-01
-7.875697e-01
-8.776298e-01
-9.640448e-01
-1.046753e+00
-1.125713e+00
-1.200889e+00
-1.272248e+00
-1.339749e+00
-1.403342e+00
-1.462967e+00
-1.518542e+00
-1.569959e+00
-1.617070e+00
-1.659664e+00
-1.697447e+00
-1.730001e+00
-1.756751e+00
-1.776944e+00
-1.789697e+00
-1.794247e+00
-1.790713e+00
-1.781876e+00
-1.776109e+00
-1.789312e+00
-1.829155e+00
0.000000e+00
-6.871499e-02
-1.404313e-01
-2.146574e-01
-2.902272e-01
-3.657718e-01
-4.401773e-01
-5.126878e-01
-5.828536e-01
-6.504205e-01
-7.152472e-01
-7.772522e-01
-8.363803e-01
-8.925836e-01
-9.458095e-01
-9.959939e-01
-1.043056e+00
-1.086890e+00
-1.127363e+00
-1.164305e+00
-1.197498e+00
-1.226668e+00
-1.251470e+00
-1.271486e+00
-1.286240e+00
-1.295268e+00
-1.298303e+00
-1.295680e+00
-1.289116e+00
-1.282823e+00
-1.284267e+00
-1.301154e+00
-1.334286e+00
0.000000e+00
-4.528349e-02
-9.239969e-02
-1.411236e-01
-1.908225e-01
-2.406970e-01
-2.900137e-01
-3.382189e-01
-3.849449e-01
-4.299670e-01
-4.731514e-01
-5.144137e-01
-5.536917e-01
-5.909267e-01
-6.260521e-01
-6.589856e-01
-6.896232e-01
-7.178337e-01
-7.434553e-01
-7.662904e-01
-7.861038e-01
-8.026222e-01
-8.155426e-01
-8.245576e-01
-8.294151e-01
-8.300397e-01
-8.267538e-01
-8.206395e-01
-8.140108e-01
-8.107465e-01
-8.156521e-01
-8.321526e-01
-8.589918e-01
0.000000e+00
-2.251166e-02
-4.589686e-02
-7.006438e-02
-9.473525e-02
-1.195397e-01
-1.441180e-01
-1.681796e-01
-1.915182e-01
-2.139974e-01
-2.355275e-01
-2.560429e-01
-2.754856e-01
-2.937938e-01
-3.108939e-01
-3.266941e-01
-3.410801e-01
-3.539120e-01
-3.650227e-01
-3.742184e-01
-3.812830e-01
-3.859903e-01
-3.881277e-01
-3.875423e-01
-3.842195e-01
-3.784094e-01
-3.708093e-01
-3.627839e-01
-3.565264e-01
-3.549080e-01
-3.607051e-01
-3.751363e-01
-3.964735e-01
0.000000e+00
-4.018675e-05
-8.674409e-05
-1.371444e-04
-1.887040e-04
-2.379100e-04
-2.795591e-04
-3.057854e-04
-3.049565e-04
-2.603296e-04
-1.484274e-04
6.288845e-05
4.166373e-04
9.691867e-04
1.792885e-03
2.978635e-03
4.637966e-03
6.903922e-03
9.929772e-03
1.388417e-02
1.894058e-02
2.525764e-02
3.294565e-02
4.201401e-02
5.229464e-02
6.334028e-02
7.430956e-02
8.388171e-02
9.029377e-02
9.163170e-02
8.646646e-02
7.470296e-02
5.820396e-02
0.000000e+00
2.243557e-02
4.573257e-02
6.980439e-02
9.437678e-02
1.190865e-01
1.435836e-01
1.675919e-01
1.909269e-01
2.134838e-01
2.352171e-01
2.561215e-01
2.762198e-01
2.955559e-01
3.141927e-01
3.322102e-01
3.497056e-01
3.667919e-01
3.835947e-01
4.002447e-01
4.168632e-01
4.335397e-01
4.502965e-01
4.670401e-01
4.834985e-01
4.991540e-01
5.131891e-01
5.244896e-01
5.317657e-01
5.338471e-01
5.301532e-01
5.212097e-01
5.089593e-01
0.000000e+00
4.521979e-02
9.226210e-02
1.409054e-01
1.905199e-01
2.403114e-01
2.895541e-01
3.377056e-01
3.844152e-01
4.294843e-01
4.728152e-01
5.143729e-01
5.541603e-01
5.922049e-01
6.285523e-01
6.632628e-01
6.964091e-01
7.280738e-01
7.583454e-01
7.873100e-01
8.150368e-01
8.415561e-01
8.668281e-01
8.907044e-01
9.128840e-01
9.328751e-01
9.499824e-01
9.633524e-01
9.721124e-01
9.756252e-01
9.738402e-01
9.676489e-01
9.590973e-01
0.000000e+00
6.867113e-02
1.403365e-01
2.145064e-01
2.900153e-01
3.654978e-01
4.398445e-01
5.123061e-01
5.824434e-01
6.500190e-01
7.149155e-01
7.770832e-01
8.365090e-01
8.932010e-01
9.471806e-01
9.984802e-01
1.047139e+00
1.093202e+00
1.136712e+00
1.177708e+00
1.216210e+00
1.252203e+00
1.285610e+00
1.316271e+00
1.343911e+00
1.368127e+00
1.388398e+00
1.404136e+00
1.414814e+00
1.420169e+00
1.420476e+00
1.416843e+00
1.411438e+00
0.000000e+00
9.331179e-02
1.911424e-01
2.924581e-01
3.951298e-01
4.970885e-01
5.968998e-01
6.937901e-01
7.873572e-01
8.773980e-01
9.638104e-01
1.046543e+00
1.125569e+00
1.200872e+00
1.272443e+00
1.340279e+00
1.404378e+00
1.464737e+00
1.521352e+00
1.574209e+00
1.623283e+00
1.668518e+00
1.709820e+00
1.747040e+00
1.779967e+00
1.808323e+00
1.831781e+00
1.850016e+00
1.862798e+00
1.870144e+00
1.872528e+00
1.871164e+00
1.868316e+00
0.000000e+00
1.200493e-01
2.468338e-01
3.776669e-01
5.090573e-01
6.380513e-01
7.634280e-01
8.846694e-01
1.001550e+00
1.113953e+00
1.221809e+00
1.325065e+00
1.423672e+00
1.517584e+00
1.606753e+00
1.691134e+00
1.770678e+00
1.845329e+00
1.915026e+00
1.979701e+00
2.039275e+00
2.093654e+00
2.142726e+00
2.186361e+00
2.224416e+00
2.256746e+00
2.283229e+00
2.303803e+00
2.318529e+00
2.327682e+00
2.331892e+00
2.332394e+00
2.331449e+00
0.000000e+00
1.513172e-01
3.115921e-01
4.755359e-01
6.360862e-01
7.917839e-01
9.422641e-01
1.087480e+00
1.227412e+00
1.362019e+00
1.491234e+00
1.614981e+00
1.733178e+00
1.845734e+00
1.952561e+00
2.053566e+00
2.148645e+00
2.237686e+00
2.320567e+00
2.397156e+00
2.467310e+00
2.530879e+00
2.587716e+00
2.637686e+00
2.680692e+00
2.716698e+00
2.745767e+00
2.768101e+00
2.784087e+00
2.794326e+00
2.799685e+00
2.801431e+00
2.801639e+00
0.000000e+00
1.912004e-01
3.976633e-01
5.931293e-01
7.805219e-01
9.612322e-01
1.135803e+00
1.304424e+00
1.467110e+00
1.623779e+00
1.774307e+00
1.918559e+00
2.056399e+00
2.187689e+00
2.312294e+00
2.430074e+00
2.540874e+00
2.644522e+00
2.740832e+00
2.829597e+00
2.910592e+00
2.983582e+00
3.048340e+00
3.104676e+00
3.152468e+00
3.191716e+00
3.222602e+00
3.245560e+00
3.261332e+00
3.270996e+00
3.275933e+00
3.277724e+00
3.278162e+00
0.000000e+00
2.860147e-01
5.186423e-01
7.350229e-01
9.443607e-01
1.147852e+00
1.345527e+00
1.537156e+00
1.722471e+00
1.901205e+00
2.073108e+00
2.237959e+00
2.395562e+00
2.545736e+00
2.688305e+00
2.823092e+00
2.949898e+00
3.068502e+00
3.178650e+00
3.280052e+00
3.372380e+00
3.455274e+00
3.528366e+00
3.591316e+00
3.643858e+00
3.685883e+00
3.717536e+00
3.739345e+00
3.752344e+00
3.758202e+00
3.759267e+00
3.758385e+00
3.757889e+00
0.000000e+00
-1.767953e-01
-3.095729e-01
-4.553669e-01
-6.181250e-01
-8.020436e-01
-1.008417e+00
-1.237680e+00
-1.489673e+00
-1.763920e+00
-2.059748e+00
-2.376365e+00
-2.712903e+00
-3.068448e+00
-3.442055e+00
-3.832767e+00
-4.239623e+00
-4.661675e+00
-5.098001e+00
-5.547730e+00
-6.010072e+00
-6.484359e+00
-6.970115e+00
-7.467149e+00
-7.975713e+00
-8.496756e+00
-9.032372e+00
-9.586629e+00
-1.016728e+01
-1.078962e+01
-1.148661e+01
-1.233597e+01
-1.350859e+01
0.000000e+00
-1.099543e-01
-2.488937e-01
-3.952870e-01
-5.598523e-01
-7.454243e-01
-9.535456e-01
-1.184612e+00
-1.438469e+00
-1.714633e+00
-2.012423e+00
-2.331038e+00
-2.669601e+00
-3.027186e+00
-3.402838e+00
-3.795584e+00
-4.204450e+00
-4.628469e+00
-5.066701e+00
-5.518251e+00
-5.982298e+00
-6.458140e+00
-6.945255e+00
-7.443398e+00
-7.952750e+00
-8.474176e+00
-9.009660e+00
-9.563146e+00
-1.014224e+01
-1.076203e+01
-1.145385e+01
-1.228445e+01
-1.337974e+01
0.000000e+00
-8.087743e-02
-2.009486e-01
-3.451395e-01
-5.096551e-01
-6.962866e-01
-9.058053e-01
-1.138437e+00
-1.393945e+00
-1.671812e+00
-1.971342e+00
-2.291724e+00
-2.632073e+00
-2.991457e+00
-3.368914e+00
-3.763467e+00
-4.174132e+00
-4.599935e+00
-5.039926e+00
-5.493202e+00
-5.958935e+00
-6.436414e+00
-6.925117e+00
-7.424802e+00
-7.935673e+00
-8.458642e+00
-8.995779e+00
-9.551132e+00
-1.013224e+01
-1.075274e+01
-1.143574e+01
-1.220806e+01
-1.306395e+01
0.000000e+00
-6.499984e-02
-1.704744e-01
-3.068857e-01
-4.690902e-01
-6.554292e-01
-8.656234e-01
-1.099370e+00
-1.356211e+00
-1.635523e+00
-1.936557e+00
-2.258479e+00
-2.600391e+00
-2.961358e+00
-3.340415e+00
-3.736586e+00
-4.148887e+00
-4.576347e+00
-5.018018e+00
-5.473004e+00
-5.940485e+00
-6.419768e+00
-6.910354e+00
-7.412038e+00
-7.925074e+00
-8.450415e+00
-8.990111e+00
-9.547900e+00
-1.012998e+01
-1.074536e+01
-1.140250e+01
-1.209530e+01
-1.273982e+01
0.000000e+00
-5.528995e-02
-1.506450e-01
-2.798222e-01
-4.382175e-01
-6.231717e-01
-8.332649e-01
-1.067602e+00
-1.325397e+00
-1.605853e+00
-1.908134e+00
-2.231360e+00
-2.574615e+00
-2.936956e+00
-3.317420e+00
-3.715036e+00
-4.128829e+00
-4.557836e+00
-5.001121e+00
-5.457802e+00
-5.927075e+00
-6.408267e+00
-6.900900e+00
-7.404781e+00
-7.920142e+00
-8.447820e+00
-8.989486e+00
-9.547842e+00
-1.012647e+01
-1.072826e+01
-1.135019e+01
-1.196902e+01
-1.253001e+01
0.000000e+00
-4.911296e-02
-1.376679e-01
-2.612568e-01
-4.160370e-01
-5.991577e-01
-8.086643e-01
-1.043167e+00
-1.301562e+00
-1.582861e+00
-1.886121e+00
-2.210405e+00
-2.554773e+00
-2.918274e+00
-3.299949e+00
-3.698833e+00
-4.113964e+00
-4.544392e+00
-4.989195e+00
-5.447502e+00
-5.918521e+00
-6.401582e+00
-6.896190e+00
-7.402097e+00
-7.919388e+00
-8.448563e+00
-8.990566e+00
-9.546592e+00
-1.011731e+01
-1.070081e+01
-1.128801e+01
-1.185756e+01
-1.237734e+01
0.000000e+00
-4.526122e-02
-1.294662e-01
-2.492106e-01
-4.012144e-01
-5.827043e-01
-7.915075e-01
-1.025947e+00
-1.284678e+00
-1.566553e+00
-1.870530e+00
-2.195622e+00
-2.540863e+00
-2.905297e+00
-3.287969e+00
-3.687923e+00
-4.104211e+00
-4.535893e+00
-4.982059e+00
-5.441841e+00
-5.914439e+00
-6.399156e+00
-6.895431e+00
-7.402878e+00
-7.921314e+00
-8.450741e+00
-8.991213e+00
-9.542421e+00
-1.010277e+01
-1.066765e+01
-1.122711e+01
-1.176467e+01
-1.226021e+01
0.000000e+00
-4.313865e-02
-1.249133e-01
-2.424274e-01
-3.927270e-01
-5.731388e-01
-7.814210e-01
-1.015756e+00
-1.274664e+00
-1.556895e+00
-1.861345e+00
-2.186990e+00
-2.532852e+00
-2.897973e+00
-3.281404e+00
-3.682200e+00
-4.099422e+00
-4.532140e+00
-4.979445e+00
-5.440459e+00
-5.914355e+00
-6.400373e+00
-6.897836e+00
-7.406156e+00
-7.924808e+00
-8.453249e+00
-8.990690e+00
-9.535650e+00
-1.008519e+01
-1.063381e+01
-1.117253e+01
-1.168897e+01
-1.216934e+01
0.000000e+00
-4.245342e-02
-1.234435e-01
-2.402292e-01
-3.899629e-01
-5.700120e-01
-7.781225e-01
-1.012439e+00
-1.271439e+00
-1.553844e+00
-1.858531e+00
-2.184473e+00
-2.530689e+00
-2.896229e+00
-3.280153e+00
-3.681526e+00
-4.099415e+00
-4.532895e+00
-4.981049e+00
-5.442976e+00
-5.917798e+00
-6.404668e+00
-6.902760e+00
-7.411249e+00
-7.929258e+00
-8.455737e+00
-8.989234e+00
-9.527520e+00
-1.006706e+01
-1.060245e+01
-1.112608e+01
-1.162850e+01
-1.209962e+01
0.000000e+00
-4.311770e-02
-1.248844e-01
-2.424030e-01
-3.927209e-01
-5.731675e-01
-7.815066e-01
-1.015928e+00
-1.274960e+00
-1.557366e+00
-1.862056e+00
-2.188025e+00
-2.534313e+00
-2.899981e+00
-3.284103e+00
-3.685752e+00
-4.104001e+00
-4.537920e+00
-4.986577e+00
-5.449038e+00
-5.924363e+00
-6.411598e+00
-6.909757e+00
-7.417778e+00
-7.934464e+00
-8.458354e+00
-8.987541e+00
-9.519401e+00
-1.005029e+01
-1.057529e+01
-1.108811e+01
-1.158146e+01
-1.204764e+01
0.000000e+00
-4.522086e-02
-1.294105e-01
-2.491636e-01
-4.012020e-01
-5.827584e-01
-7.916703e-01
-1.026274e+00
-1.285243e+00
-1.567453e+00
-1.871892e+00
-2.197604e+00
-2.543662e+00
-2.909148e+00
-3.293146e+00
-3.694740e+00
-4.113003e+00
-4.546998e+00
-4.995774e+00
-5.458356e+00
-5.933735e+00
-6.420853e+00
-6.918566e+00
-7.425604e+00
-7.940500e+00
-8.461494e+00
-8.986397e+00
-9.512434e+00
-1.003610e+01
-1.055309e+01
-1.105833e+01
-1.154617e+01
-1.201073e+01
0.000000e+00
-4.905642e-02
-1.375899e-01
-2.611907e-01
-4.160187e-01
-5.992320e-01
-8.088897e-01
-1.043621e+00
-1.302348e+00
-1.584116e+00
-1.888022e+00
-2.213175e+00
-2.558685e+00
-2.923659e+00
-3.307193e+00
-3.708376e+00
-4.126280e+00
-4.559961e+00
-5.008443e+00
-5.470712e+00
-5.945697e+00
-6.432241e+00
-6.929067e+00
-7.434731e+00
-7.947564e+00
-8.465596e+00
-8.986484e+00
-9.507439e+00
-1.002520e+01
-1.053609e+01
-1.103608e+01
-1.152100e+01
-1.198653e+01
0.000000e+00
-5.522270e-02
-1.505525e-01
-2.797434e-01
-4.381957e-01
-6.232614e-01
-8.335368e-01
-1.068149e+00
-1.326345e+00
-1.607368e+00
-1.910431e+00
-2.234708e+00
-2.579346e+00
-2.943469e+00
-3.326185e+00
-3.726585e+00
-4.143741e+00
-4.576696e+00
-5.024457e+00
-5.485974e+00
-5.960122e+00
-6.445668e+00
-6.941228e+00
-7.445231e+00
-7.955862e+00
-8.471022e+00
-8.988289e+00
-9.504921e+00
-1.001792e+01
-1.052415e+01
-1.102056e+01
-1.150428e+01
-1.197268e+01
0.000000e+00
-6.493018e-02
-1.703785e-01
-3.068043e-01
-4.690708e-01
-6.555333e-01
-8.659295e-01
-1.099980e+00
-1.357264e+00
-1.637204e+00
-1.939103e+00
-2.262186e+00
-2.605626e+00
-2.968560e+00
-3.350101e+00
-3.749341e+00
-4.165351e+00
-4.597163e+00
-5.043767e+00
-5.504091e+00
-5.976968e+00
-6.461111e+00
-6.955065e+00
-7.457175e+00
-7.965538e+00
-8.477978e+00
-8.992046e+00
-9.505064e+00
-1.001425e+01
-1.051691e+01
-1.101079e+01
-1.149430e+01
-1.196665e+01
0.000000e+00
-8.081604e-02
-2.008633e-01
-3.450690e-01
-5.096491e-01
-6.964102e-01
-9.061413e-01
-1.139092e+00
-1.395064e+00
-1.673586e+00
-1.974015e+00
-2.295602e+00
-2.637532e+00
-2.998947e+00
-3.378964e+00
-3.776674e+00
-4.191142e+00
-4.621394e+00
-5.066410e+00
-5.525100e+00
-5.996274e+00
-6.478612e+00
-6.970623e+00
-7.470607e+00
-7.976622e+00
-8.486468e+00
-8.997697e+00
-9.507696e+00
-1.001383e+01
-1.051374e+01
-1.100573e+01
-1.148928e+01
-1.196559e+01
0.000000e+00
-1.099130e-01
-2.488334e-01
-3.952433e-01
-5.598760e-01
-7.455813e-01
-9.539198e-01
-1.185312e+00
-1.439641e+00
-1.716464e+00
-2.015154e+00
-2.334969e+00
-2.675097e+00
-3.034683e+00
-3.412844e+00
-3.808669e+00
-4.221217e+00
-4.649509e+00
-5.092518e+00
-5.549141e+00
-6.018178e+00
-6.498294e+00
-6.987987e+00
-7.485549e+00
-7.989038e+00
-8.496269e+00
-9.004836e+00
-9.512198e+00
-1.001585e+01
-1.051360e+01
-1.100408e+01
-1.148747e+01
-1.196649e+01
0.000000e+00
-1.767841e-01
-3.095485e-01
-4.553666e-01
-6.181986e-01
-8.022554e-01
-1.008851e+00
-1.238447e+00
-1.490918e+00
-1.765825e+00
-2.062541e+00
-2.380331e+00
-2.718387e+00
-3.075856e+00
-3.451855e+00
-3.845470e+00
-4.255753e+00
-4.681720e+00
-5.122334e+00
-5.576481e+00
-6.042953e+00
-6.520409e+00
-7.007345e+00