TITLE = "Solution"
VARIABLES = x, y, u, v, psiu, psiv, t, stress
ZONE T="structure" N=561 E=512 F=FEBLOCK ET=QUADRILATERAL VARLOCATION=([7,8]=cellcentered)
0.000000e+00
6.250000e+00
1.250000e+01
1.875000e+01
2.500000e+01
3.125000e+01
3.750000e+01
4.375000e+01
5.000000e+01
5.625000e+01
6.250000e+01
6.875000e+01
7.500000e+01
8.125000e+01
8.750000e+01
9.375000e+01
1.000000e+02
1.062500e+02
1.125000e+02
1.187500e+02
1.250000e+02
1.312500e+02
1.375000e+02
1.437500e+02
1.500000e+02
1.562500e+02
1.625000e+02
1.687500e+02
1.750000e+02
1.812500e+02
1.875000e+02
1.937500e+02
2.000000e+02
0.000000e+00
6.250000e+00
1.250000e+01
1.875000e+01
2.500000e+01
3.125000e+01
3.750000e+01
4.375000e+01
5.000000e+01
5.625000e+01
6.250000e+01
6.875000e+01
7.500000e+01
8.125000e+01
8.750000e+01
9.375000e+01
1.000000e+02
1.062500e+02
1.125000e+02
1.187500e+02
1.250000e+02
1.312500e+02
1.375000e+02
1.437500e+02
1.500000e+02
1.562500e+02
1.625000e+02
1.687500e+02
1.750000e+02
1.812500e+02
1.875000e+02
1.937500e+02
2.000000e+02
0.000000e+00
6.250000e+00
1.250000e+01
1.875000e+01
2.500000e+01
3.125000e+01
3.750000e+01
4.375000e+01
5.000000e+01
5.625000e+01
6.250000e+01
6.875000e+01
7.500000e+01
8.125000e+01
8.750000e+01
9.375000e+01
1.000000e+02
1.062500e+02
1.125000e+02
1.187500e+02
1.250000e+02
1.312500e+02
1.375000e+02
1.437500e+02
1.500000e+02
1.562500e+02
1.625000e+02
1.687500e+02
1.750000e+02
1.812500e+02
1.875000e+02
1.937500e+02
2.000000e+02
0.000000e+00
6.250000e+00
1.250000e+01
1.875000e+01
2.500000e+01
3.125000e+01
3.750000e+01
4.375000e+01
5.000000e+01
5.625000e+01
6.250000e+01
6.875000e+01
7.500000e+01
8.125000e+01
8.750000e+01
9.375000e+01
1.000000e+02
1.062500e+02
1.125000e+02
1.187500e+02
1.250000e+02
1.312500e+02
1.375000e+02
1.437500e+02
1.500000e+02
1.562500e+02
1.625000e+02
1.687500e+02
1.750000e+02
1.812500e+02
1.875000e+02
1.937500e+02
2.000000e+02
0.000000e+00
6.250000e+00
1.250000e+01
1.875000e+01
2.500000e+01
3.125000e+01
3.750000e+01
4.375000e+01
5.000000e+01
5.625000e+01
6.250000e+01
6.875000e+01
7.500000e+01
8.125000e+01
8.750000e+01
9.375000e+01
1.000000e+02
1.062500e+02
1.125000e+02
1.187500e+02
1.250000e+02
1.312500e+02
1.375000e+02
1.437500e+02
1.500000e+02
1.562500e+02
1.625000e+02
1.687500e+02
1.750000e+02
1.812500e+02
1.875000e+02
1.937500e+02
2.000000e+02
0.000000e+00
6.250000e+00
1.250000e+01
1.875000e+01
2.500000e+01
3.125000e+01
3.750000e+01
4.375000e+01
5.000000e+01
5.625000e+01
6.250000e+01
6.875000e+01
7.500000e+01
8.125000e+01
8.750000e+01
9.375000e+01
1.000000e+02
1.062500e+02
1.125000e+02
1.187500e+02
1.250000e+02
1.312500e+02
1.375000e+02
1.437500e+02
1.500000e+02
1.562500e+02
1.625000e+02
1.687500e+02
1.750000e+02
1.812500e+02
1.875000e+02
1.937500e+02
2.000000e+02
0.000000e+00
6.250000e+00
1.250000e+01
1.875000e+01
2.500000e+01
3.125000e+01
3.750000e+01
4.375000e+01
5.000000e+01
5.625000e+01
6.250000e+01
6.875000e+01
7.500000e+01
8.125000e+01
8.750000e+01
9.375000e+01
1.000000e+02
1.062500e+02
1.125000e+02
1.187500e+02
1.250000e+02
1.312500e+02
1.375000e+02
1.437500e+02
1.500000e+02
1.562500e+02
1.625000e+02
1.687500e+02
1.750000e+02
1.812500e+02
1.875000e+02
1.937500e+02
2.000000e+02
0.000000e+00
6.250000e+00
1.250000e+01
1.875000e+01
2.500000e+01
3.125000e+01
3.750000e+01
4.375000e+01
5.000000e+01
5.625000e+01
6.250000e+01
6.875000e+01
7.500000e+01
8.125000e+01
8.750000e+01
9.375000e+01
1.000000e+02
1.062500e+02
1.125000e+02
1.187500e+02
1.250000e+02
1.312500e+02
1.375000e+02
1.437500e+02
1.500000e+02
1.562500e+02
1.625000e+02
1.687500e+02
1.750000e+02
1.812500e+02
1.875000e+02
1.937500e+02
2.000000e+02
0.000000e+00
6.250000e+00
1.250000e+01
1.875000e+01
2.500000e+01
3.125000e+01
3.750000e+01
4.375000e+01
5.000000e+01
5.625000e+01
6.250000e+01
6.875000e+01
7.500000e+01
8.125000e+01
8.750000e+01
9.375000e+01
1.000000e+02
1.062500e+02
1.125000e+02
1.187500e+02
1.250000e+02
1.312500e+02
1.375000e+02
1.437500e+02
1.500000e+02
1.562500e+02
1.625000e+02
1.687500e+02
1.750000e+02
1.812500e+02
1.875000e+02
1.937500e+02
2.000000e+02
0.000000e+00
6.250000e+00
1.250000e+01
1.875000e+01
2.500000e+01
3.125000e+01
3.750000e+01
4.375000e+01
5.000000e+01
5.625000e+01
6.250000e+01
6.875000e+01
7.500000e+01
8.125000e+01
8.750000e+01
9.375000e+01
1.000000e+02
1.062500e+02
1.125000e+02
1.187500e+02
1.250000e+02
1.312500e+02
1.375000e+02
1.437500e+02
1.500000e+02
1.562500e+02
1.625000e+02
1.687500e+02
1.750000e+02
1.812500e+02
1.875000e+02
1.937500e+02
2.000000e+02
0.000000e+00
6.250000e+00
1.250000e+01
1.875000e+01
2.500000e+01
3.125000e+01
3.750000e+01
4.375000e+01
5.000000e+01
5.625000e+01
6.250000e+01
6.875000e+01
7.500000e+01
8.125000e+01
8.750000e+01
9.375000e+01
1.000000e+02
1.062500e+02
1.125000e+02
1.187500e+02
1.250000e+02
1.312500e+02
1.375000e+02
1.437500e+02
1.500000e+02
1.562500e+02
1.625000e+02
1.687500e+02
1.750000e+02
1.812500e+02
1.875000e+02
1.937500e+02
2.000000e+02
0.000000e+00
6.250000e+00
1.250000e+01
1.875000e+01
2.500000e+01
3.125000e+01
3.750000e+01
4.375000e+01
5.000000e+01
5.625000e+01
6.250000e+01
6.875000e+01
7.500000e+01
8.125000e+01
8.750000e+01
9.375000e+01
1.000000e+02
1.062500e+02
1.125000e+02
1.187500e+02
1.250000e+02
1.312500e+02
1.375000e+02
1.437500e+02
1.500000e+02
1.562500e+02
1.625000e+02
1.687500e+02
1.750000e+02
1.812500e+02
1.875000e+02
1.937500e+02
2.000000e+02
0.000000e+00
6.250000e+00
1.250000e+01
1.875000e+01
2.500000e+01
3.125000e+01
3.750000e+01
4.375000e+01
5.000000e+01
5.625000e+01
6.250000e+01
6.875000e+01
7.500000e+01
8.125000e+01
8.750000e+01
9.375000e+01
1.000000e+02
1.062500e+02
1.125000e+02
1.187500e+02
1.250000e+02
1.312500e+02
1.375000e+02
1.437500e+02
1.500000e+02
1.562500e+02
1.625000e+02
1.687500e+02
1.750000e+02
1.812500e+02
1.875000e+02
1.937500e+02
2.000000e+02
0.000000e+00
6.250000e+00
1.250000e+01
1.875000e+01
2.500000e+01
3.125000e+01
3.750000e+01
4.375000e+01
5.000000e+01
5.625000e+01
6.250000e+01
6.875000e+01
7.500000e+01
8.125000e+01
8.750000e+01
9.375000e+01
1.000000e+02
1.062500e+02
1.125000e+02
1.187500e+02
1.250000e+02
1.312500e+02
1.375000e+02
1.437500e+02
1.500000e+02
1.562500e+02
1.625000e+02
1.687500e+02
1.750000e+02
1.812500e+02
1.875000e+02
1.937500e+02
2.000000e+02
0.000000e+00
6.250000e+00
1.250000e+01
1.875000e+01
2.500000e+01
3.125000e+01
3.750000e+01
4.375000e+01
5.000000e+01
5.625000e+01
6.250000e+01
6.875000e+01
7.500000e+01
8.125000e+01
8.750000e+01
9.375000e+01
1.000000e+02
1.062500e+02
1.125000e+02
1.187500e+02
1.250000e+02
1.312500e+02
1.375000e+02
1.437500e+02
1.500000e+02
1.562500e+02
1.625000e+02
1.687500e+02
1.750000e+02
1.812500e+02
1.875000e+02
1.937500e+02
2.000000e+02
0.000000e+00
6.250000e+00
1.250000e+01
1.875000e+01
2.500000e+01
3.125000e+01
3.750000e+01
4.375000e+01
5.000000e+01
5.625000e+01
6.250000e+01
6.875000e+01
7.500000e+01
8.125000e+01
8.750000e+01
9.375000e+01
1.000000e+02
1.062500e+02
1.125000e+02
1.187500e+02
1.250000e+02
1.312500e+02
1.375000e+02
1.437500e+02
1.500000e+02
1.562500e+02
1.625000e+02
1.687500e+02
1.750000e+02
1.812500e+02
1.875000e+02
1.937500e+02
2.000000e+02
0.000000e+00
6.250000e+00
1.250000e+01
1.875000e+01
2.500000e+01
3.125000e+01
3.750000e+01
4.375000e+01
5.000000e+01
5.625000e+01
6.250000e+01
6.875000e+01
7.500000e+01
8.125000e+01
8.750000e+01
9.375000e+01
1.000000e+02
1.062500e+02
1.125000e+02
1.187500e+02
1.250000e+02
1.312500e+02
1.375000e+02
1.437500e+02
1.500000e+02
1.562500e+02
1.625000e+02
1.687500e+02
1.750000e+02
1.812500e+02
1.875000e+02
1.937500e+02
2.000000e+02
0.000000e+00
0.000000e+00
0.000000e+00
0.000000e+00
0.000000e+00
0.000000e+00
0.000000e+00
0.000000e+00
0.000000e+00
0.000000e+00
0.000000e+00
0.000000e+00
0.000000e+00
0.000000e+00
0.000000e+00
0.000000e+00
0.000000e+00
0.000000e+00
0.000000e+00
0.000000e+00
0.000000e+00
0.000000e+00
0.000000e+00
0.000000e+00
0.000000e+00
0.000000e+00
0.000000e+00
0.000000e+00
0.000000e+00
0.000000e+00
0.000000e+00
0.000000e+00
0.000000e+00
6.250000e+00
6.250000e+00
6.250000e+00
6.250000e+00
6.250000e+00
6.250000e+00
6.250000e+00
6.250000e+00
6.250000e+00
6.250000e+00
6.250000e+00
6.250000e+00
6.250000e+00
6.250000e+00
6.250000e+00
6.250000e+00
6.250000e+00
6.250000e+00
6.250000e+00
6.250000e+00
6.250000e+00
6.250000e+00
6.250000e+00
6.250000e+00
6.250000e+00
6.250000e+00
6.250000e+00
6.250000e+00
6.250000e+00
6.250000e+00
6.250000e+00
6.250000e+00
6.250000e+00
1.250000e+01
1.250000e+01
1.250000e+01
1.250000e+01
1.250000e+01
1.250000e+01
1.250000e+01
1.250000e+01
1.250000e+01
1.250000e+01
1.250000e+01
1.250000e+01
1.250000e+01
1.250000e+01
1.250000e+01
1.250000e+01
1.250000e+01
1.250000e+01
1.250000e+01
1.250000e+01
1.250000e+01
1.250000e+01
1.250000e+01
1.250000e+01
1.250000e+01
1.250000e+01
1.250000e+01
1.250000e+01
1.250000e+01
1.250000e+01
1.250000e+01
1.250000e+01
1.250000e+01
1.875000e+01
1.875000e+01
1.875000e+01
1.875000e+01
1.875000e+01
1.875000e+01
1.875000e+01
1.875000e+01
1.875000e+01
1.875000e+01
1.875000e+01
1.875000e+01
1.875000e+01
1.875000e+01
1.875000e+01
1.875000e+01
1.875000e+01
1.875000e+01
1.875000e+01
1.875000e+01
1.875000e+01
1.875000e+01
1.875000e+01
1.875000e+01
1.875000e+01
1.875000e+01
1.875000e+01
1.875000e+01
1.875000e+01
1.875000e+01
1.875000e+01
1.875000e+01
1.875000e+01
2.500000e+01
2.500000e+01
2.500000e+01
2.500000e+01
2.500000e+01
2.500000e+01
2.500000e+01
2.500000e+01
2.500000e+01
2.500000e+01
2.500000e+01
2.500000e+01
2.500000e+01
2.500000e+01
2.500000e+01
2.500000e+01
2.500000e+01
2.500000e+01
2.500000e+01
2.500000e+01
2.500000e+01
2.500000e+01
2.500000e+01
2.500000e+01
2.500000e+01
2.500000e+01
2.500000e+01
2.500000e+01
2.500000e+01
2.500000e+01
2.500000e+01
2.500000e+01
2.500000e+01
3.125000e+01
3.125000e+01
3.125000e+01
3.125000e+01
3.125000e+01
3.125000e+01
3.125000e+01
3.125000e+01
3.125000e+01
3.125000e+01
3.125000e+01
3.125000e+01
3.125000e+01
3.125000e+01
3.125000e+01
3.125000e+01
3.125000e+01
3.125000e+01
3.125000e+01
3.125000e+01
3.125000e+01
3.125000e+01
3.125000e+01
3.125000e+01
3.125000e+01
3.125000e+01
3.125000e+01
3.125000e+01
3.125000e+01
3.125000e+01
3.125000e+01
3.125000e+01
3.125000e+01
3.750000e+01
3.750000e+01
3.750000e+01
3.750000e+01
3.750000e+01
3.750000e+01
3.750000e+01
3.750000e+01
3.750000e+01
3.750000e+01
3.750000e+01
3.750000e+01
3.750000e+01
3.750000e+01
3.750000e+01
3.750000e+01
3.750000e+01
3.750000e+01
3.750000e+01
3.750000e+01
3.750000e+01
3.750000e+01
3.750000e+01
3.750000e+01
3.750000e+01
3.750000e+01
3.750000e+01
3.750000e+01
3.750000e+01
3.750000e+01
3.750000e+01
3.750000e+01
3.750000e+01
4.375000e+01
4.375000e+01
4.375000e+01
4.375000e+01
4.375000e+01
4.375000e+01
4.375000e+01
4.375000e+01
4.375000e+01
4.375000e+01
4.375000e+01
4.375000e+01
4.375000e+01
4.375000e+01
4.375000e+01
4.375000e+01
4.375000e+01
4.375000e+01
4.375000e+01
4.375000e+01
4.375000e+01
4.375000e+01
4.375000e+01
4.375000e+01
4.375000e+01
4.375000e+01
4.375000e+01
4.375000e+01
4.375000e+01
4.375000e+01
4.375000e+01
4.375000e+01
4.375000e+01
5.000000e+01
5.000000e+01
5.000000e+01
5.000000e+01
5.000000e+01
5.000000e+01
5.000000e+01
5.000000e+01
5.000000e+01
5.000000e+01
5.000000e+01
5.000000e+01
5.000000e+01
5.000000e+01
5.000000e+01
5.000000e+01
5.000000e+01
5.000000e+01
5.000000e+01
5.000000e+01
5.000000e+01
5.000000e+01
5.000000e+01
5.000000e+01
5.000000e+01
5.000000e+01
5.000000e+01
5.000000e+01
5.000000e+01
5.000000e+01
5.000000e+01
5.000000e+01
5.000000e+01
5.625000e+01
5.625000e+01
5.625000e+01
5.625000e+01
5.625000e+01
5.625000e+01
5.625000e+01
5.625000e+01
5.625000e+01
5.625000e+01
5.625000e+01
5.625000e+01
5.625000e+01
5.625000e+01
5.625000e+01
5.625000e+01
5.625000e+01
5.625000e+01
5.625000e+01
5.625000e+01
5.625000e+01
5.625000e+01
5.625000e+01
5.625000e+01
5.625000e+01
5.625000e+01
5.625000e+01
5.625000e+01
5.625000e+01
5.625000e+01
5.625000e+01
5.625000e+01
5.625000e+01
6.250000e+01
6.250000e+01
6.250000e+01
6.250000e+01
6.250000e+01
6.250000e+01
6.250000e+01
6.250000e+01
6.250000e+01
6.250000e+01
6.250000e+01
6.250000e+01
6.250000e+01
6.250000e+01
6.250000e+01
6.250000e+01
6.250000e+01
6.250000e+01
6.250000e+01
6.250000e+01
6.250000e+01
6.250000e+01
6.250000e+01
6.250000e+01
6.250000e+01
6.250000e+01
6.250000e+01
6.250000e+01
6.250000e+01
6.250000e+01
6.250000e+01
6.250000e+01
6.250000e+01
6.875000e+01
6.875000e+01
6.875000e+01
6.875000e+01
6.875000e+01
6.875000e+01
6.875000e+01
6.875000e+01
6.875000e+01
6.875000e+01
6.875000e+01
6.875000e+01
6.875000e+01
6.875000e+01
6.875000e+01
6.875000e+01
6.875000e+01
6.875000e+01
6.875000e+01
6.875000e+01
6.875000e+01
6.875000e+01
6.875000e+01
6.875000e+01
6.875000e+01
6.875000e+01
6.875000e+01
6.875000e+01
6.875000e+01
6.875000e+01
6.875000e+01
6.875000e+01
6.875000e+01
7.500000e+01
7.500000e+01
7.500000e+01
7.500000e+01
7.500000e+01
7.500000e+01
7.500000e+01
7.500000e+01
7.500000e+01
7.500000e+01
7.500000e+01
7.500000e+01
7.500000e+01
7.500000e+01
7.500000e+01
7.500000e+01
7.500000e+01
7.500000e+01
7.500000e+01
7.500000e+01
7.500000e+01
7.500000e+01
7.500000e+01
7.500000e+01
7.500000e+01
7.500000e+01
7.500000e+01
7.500000e+01
7.500000e+01
7.500000e+01
7.500000e+01
7.500000e+01
7.500000e+01
8.125000e+01
8.125000e+01
8.125000e+01
8.125000e+01
8.125000e+01
8.125000e+01
8.125000e+01
8.125000e+01
8.125000e+01
8.125000e+01
8.125000e+01
8.125000e+01
8.125000e+01
8.125000e+01
8.125000e+01
8.125000e+01
8.125000e+01
8.125000e+01
8.125000e+01
8.125000e+01
8.125000e+01
8.125000e+01
8.125000e+01
8.125000e+01
8.125000e+01
8.125000e+01
8.125000e+01
8.125000e+01
8.125000e+01
8.125000e+01
8.125000e+01
8.125000e+01
8.125000e+01
8.750000e+01
8.750000e+01
8.750000e+01
8.750000e+01
8.750000e+01
8.750000e+01
8.750000e+01
8.750000e+01
8.750000e+01
8.750000e+01
8.750000e+01
8.750000e+01
8.750000e+01
8.750000e+01
8.750000e+01
8.750000e+01
8.750000e+01
8.750000e+01
8.750000e+01
8.750000e+01
8.750000e+01
8.750000e+01
8.750000e+01
8.750000e+01
8.750000e+01
8.750000e+01
8.750000e+01
8.750000e+01
8.750000e+01
8.750000e+01
8.750000e+01
8.750000e+01
8.750000e+01
9.375000e+01
9.375000e+01
9.375000e+01
9.375000e+01
9.375000e+01
9.375000e+01
9.375000e+01
9.375000e+01
9.375000e+01
9.375000e+01
9.375000e+01
9.375000e+01
9.375000e+01
9.375000e+01
9.375000e+01
9.375000e+01
9.375000e+01
9.375000e+01
9.375000e+01
9.375000e+01
9.375000e+01
9.375000e+01
9.375000e+01
9.375000e+01
9.375000e+01
9.375000e+01
9.375000e+01
9.375000e+01
9.375000e+01
9.375000e+01
9.375000e+01
9.375000e+01
9.375000e+01
1.000000e+02
1.000000e+02
1.000000e+02
1.000000e+02
1.000000e+02
1.000000e+02
1.000000e+02
1.000000e+02
1.000000e+02
1.000000e+02
1.000000e+02
1.000000e+02
1.000000e+02
1.000000e+02
1.000000e+02
1.000000e+02
1.000000e+02
1.000000e+02
1.000000e+02
1.000000e+02
1.000000e+02
1.000000e+02
1.000000e+02
1.000000e+02
1.000000e+02
1.000000e+02
1.000000e+02
1.000000e+02
1.000000e+02
1.000000e+02
1.000000e+02
1.000000e+02
1.000000e+02
0.000000e+00
-4.078469e-02
-7.399840e-02
-1.047662e-01
-1.342946e-01
-1.628088e-01
-1.903660e-01
-2.169637e-01
-2.425853e-01
-2.672120e-01
-2.908284e-01
-3.134239e-01
-3.349930e-01
-3.555353e-01
-3.750554e-01
-3.935638e-01
-4.110770e-01
-4.276190e-01
-4.432232e-01
-4.579345e-01
-4.718125e-01
-4.849366e-01
-4.974111e-01
-5.093748e-01
-5.210136e-01
-5.325799e-01
-5.444246e-01
-5.570478e-01
-5.711833e-01
-5.879109e-01
-6.086314e-01
-6.333246e-01
-6.483946e-01
0.000000e+00
-2.734504e-02
-5.689429e-02
-8.475534e-02
-1.112362e-01
-1.365890e-01
-1.609476e-01
-1.843709e-01
-2.068820e-01
-2.284885e-01
-2.491919e-01
-2.689923e-01
-2.878905e-01
-3.058896e-01
-3.229955e-01
-3.392179e-01
-3.545705e-01
-3.690722e-01
-3.827483e-01
-3.956312e-01
-4.077628e-01
-4.191953e-01
-4.299940e-01
-4.402386e-01
-4.500242e-01
-4.594603e-01
-4.686628e-01
-4.777266e-01
-4.866512e-01
-4.951462e-01
-5.022249e-01
-5.063634e-01
-5.121249e-01
0.000000e+00
-2.169015e-02
-4.465439e-02
-6.803564e-02
-9.075498e-02
-1.126371e-01
-1.336679e-01
-1.538674e-01
-1.732535e-01
-1.918384e-01
-2.096300e-01
-2.266337e-01
-2.428544e-01
-2.582968e-01
-2.729666e-01
-2.868710e-01
-3.000189e-01
-3.124218e-01
-3.240935e-01
-3.350508e-01
-3.453127e-01
-3.549001e-01
-3.638333e-01
-3.721282e-01
-3.797880e-01
-3.867883e-01
-3.930490e-01
-3.983857e-01
-4.024375e-01
-4.046193e-01
-4.044280e-01
-4.032028e-01
-4.099307e-01
0.000000e+00
-1.720921e-02
-3.536885e-02
-5.402562e-02
-7.263866e-02
-9.080085e-02
-1.083567e-01
-1.252503e-01
-1.414666e-01
-1.570051e-01
-1.718695e-01
-1.860651e-01
-1.995964e-01
-2.124679e-01
-2.246832e-01
-2.362458e-01
-2.471590e-01
-2.574254e-01
-2.670473e-01
-2.760251e-01
-2.843566e-01
-2.920341e-01
-2.990406e-01
-3.053435e-01
-3.108846e-01
-3.155661e-01
-3.192330e-01
-3.216613e-01
-3.225885e-01
-3.219002e-01
-3.202285e-01
-3.201287e-01
-3.265387e-01
0.000000e+00
-1.335675e-02
-2.735007e-02
-4.179040e-02
-5.634804e-02
-7.072714e-02
-8.472928e-02
-9.825403e-02
-1.112557e-01
-1.237168e-01
-1.356326e-01
-1.470038e-01
-1.578325e-01
-1.681206e-01
-1.778688e-01
-1.870761e-01
-1.957397e-01
-2.038543e-01
-2.114117e-01
-2.183991e-01
-2.247977e-01
-2.305802e-01
-2.357070e-01
-2.401219e-01
-2.437468e-01
-2.464791e-01
-2.481985e-01
-2.488016e-01
-2.483068e-01
-2.470961e-01
-2.463106e-01
-2.481245e-01
-2.535925e-01
0.000000e+00
-9.816434e-03
-2.005344e-02
-3.061933e-02
-4.133154e-02
-5.199010e-02
-6.243627e-02
-7.256687e-02
-8.232524e-02
-9.168387e-02
-1.006311e-01
-1.091629e-01
-1.172777e-01
-1.249742e-01
-1.322494e-01
-1.390981e-01
-1.455123e-01
-1.514801e-01
-1.569854e-01
-1.620068e-01
-1.665158e-01
-1.704761e-01
-1.738412e-01
-1.765548e-01
-1.785523e-01
-1.797712e-01
-1.801756e-01
-1.798127e-01
-1.789183e-01
-1.780673e-01
-1.782745e-01
-1.805868e-01
-1.851112e-01
0.000000e+00
-6.460394e-03
-1.317633e-02
-2.010531e-02
-2.714853e-02
-3.418744e-02
-4.111587e-02
-4.785647e-02
-5.436080e-02
-6.060214e-02
-6.656700e-02
-7.224859e-02
-7.764254e-02
-8.274438e-02
-8.754794e-02
-9.204444e-02
-9.622176e-02
-1.000638e-01
-1.035500e-01
-1.066547e-01
-1.093467e-01
-1.115894e-01
-1.133421e-01
-1.145635e-01
-1.152197e-01
-1.153011e-01
-1.148524e-01
-1.140221e-01
-1.131262e-01
-1.126919e-01
-1.133695e-01
-1.156208e-01
-1.192730e-01
0.000000e+00
-3.208876e-03
-6.539066e-03
-9.973453e-03
-1.346866e-02
-1.696948e-02
-2.042347e-02
-2.378960e-02
-2.704016e-02
-3.015819e-02
-3.313368e-02
-3.595998e-02
-3.863131e-02
-4.114105e-02
-4.348064e-02
-4.563884e-02
-4.760119e-02
-4.934956e-02
-5.086197e-02
-5.211267e-02
-5.307275e-02
-5.371181e-02
-5.400130e-02
-5.392078e-02
-5.346867e-02
-5.267947e-02
-5.164868e-02
-5.056257e-02
-4.971943e-02
-4.950822e-02
-5.030323e-02
-5.226719e-02
-5.516512e-02
0.000000e+00
-5.177201e-06
-1.122565e-05
-1.781027e-05
-2.458471e-05
-3.108197e-05
-3.659826e-05
-4.006407e-05
-3.989350e-05
-3.380296e-05
-1.859214e-05
1.011629e-05
5.817811e-05
1.332634e-04
2.452105e-04
4.063680e-04
6.318709e-04
9.397662e-04
1.350853e-03
1.888026e-03
2.574828e-03
3.432744e-03
4.476657e-03
5.707699e-03
7.102809e-03
8.600874e-03
1.008720e-02
1.138214e-02
1.224656e-02
1.242186e-02
1.171602e-02
1.011751e-02
7.878720e-03
0.000000e+00
3.199124e-03
6.517879e-03
9.939771e-03
1.342206e-02
1.691039e-02
2.035364e-02
2.371276e-02
2.696298e-02
3.009166e-02
3.309474e-02
3.597381e-02
3.873410e-02
4.138342e-02
4.393179e-02
4.639131e-02
4.877618e-02
5.110262e-02
5.338834e-02
5.565161e-02
5.790936e-02
6.017400e-02
6.244878e-02
6.472105e-02
6.695389e-02
6.907682e-02
7.097874e-02
7.250845e-02
7.349133e-02
7.376960e-02
7.326563e-02
7.205133e-02
7.038970e-02
0.000000e+00
6.452428e-03
1.315890e-02
2.007740e-02
2.710962e-02
3.413764e-02
4.105634e-02
4.778991e-02
5.429228e-02
6.054016e-02
6.652490e-02
7.224635e-02
7.770916e-02
8.292067e-02
8.789004e-02
9.262784e-02
9.714595e-02
1.014572e-01
1.055751e-01
1.095123e-01
1.132790e-01
1.168800e-01
1.203104e-01
1.235504e-01
1.265594e-01
1.292704e-01
1.315894e-01
1.334006e-01
1.345860e-01
1.350600e-01
1.348163e-01
1.339761e-01
1.328163e-01
0.000000e+00
9.811353e-03
2.004212e-02
3.060090e-02
4.130537e-02
5.195593e-02
6.239447e-02
7.251874e-02
8.227359e-02
9.163362e-02
1.005903e-01
1.091438e-01
1.172985e-01
1.250608e-01
1.324380e-01
1.394378e-01
1.460686e-01
1.523388e-01
1.582563e-01
1.638281e-01
1.690580e-01
1.739448e-01
1.784791e-01
1.826394e-01
1.863890e-01
1.896735e-01
1.924219e-01
1.945550e-01
1.960016e-01
1.967264e-01
1.967672e-01
1.962743e-01
1.955414e-01
0.000000e+00
1.335549e-02
2.734692e-02
4.178475e-02
5.633931e-02
7.071482e-02
8.471307e-02
9.823389e-02
1.112320e-01
1.236906e-01
1.356060e-01
1.469802e-01
1.578173e-01
1.681219e-01
1.778983e-01
1.871505e-01
1.958819e-01
2.040955e-01
2.117932e-01
2.189754e-01
2.256400e-01
2.317807e-01
2.373858e-01
2.424359e-01
2.469026e-01
2.507485e-01
2.539295e-01
2.564017e-01
2.581343e-01
2.591297e-01
2.594526e-01
2.592675e-01
2.588814e-01
0.000000e+00
1.721241e-02
3.537535e-02
5.403529e-02
7.265122e-02
9.081595e-02
1.083738e-01
1.252686e-01
1.414847e-01
1.570206e-01
1.718793e-01
1.860641e-01
1.995776e-01
2.124214e-01
2.245956e-01
2.360994e-01
2.469305e-01
2.570854e-01
2.665591e-01
2.753449e-01
2.834338e-01
2.908147e-01
2.974735e-01
3.033933e-01
3.085554e-01
3.129404e-01
3.165318e-01
3.193215e-01
3.213181e-01
3.225589e-01
3.231297e-01
3.231977e-01
3.230696e-01
0.000000e+00
2.169796e-02
4.467105e-02
6.806173e-02
9.079099e-02
1.126834e-01
1.337247e-01
1.539340e-01
1.733280e-01
1.919170e-01
2.097058e-01
2.266960e-01
2.428864e-01
2.582740e-01
2.728538e-01
2.866194e-01
2.995622e-01
3.116717e-01
3.229351e-01
3.333373e-01
3.428613e-01
3.514886e-01
3.592004e-01
3.659794e-01
3.718129e-01
3.766963e-01
3.806384e-01
3.836671e-01
3.858347e-01
3.872230e-01
3.879497e-01
3.881863e-01
3.882146e-01
0.000000e+00
2.735675e-02
5.691989e-02
8.479651e-02
1.112949e-01
1.366673e-01
1.610473e-01
1.844928e-01
2.070257e-01
2.286512e-01
2.493668e-01
2.691669e-01
2.880440e-01
3.059894e-01
3.229929e-01
3.390425e-01
3.541236e-01
3.682183e-01
3.813055e-01
3.933605e-01
4.043555e-01
4.142609e-01
4.230475e-01
4.306900e-01
4.371726e-01
4.424957e-01
4.466844e-01
4.497976e-01
4.519363e-01
4.532467e-01
4.539162e-01
4.541589e-01
4.542184e-01
0.000000e+00
4.079752e-02
7.402833e-02
1.048175e-01
1.343714e-01
1.629152e-01
1.905064e-01
2.171422e-01
2.428051e-01
2.674745e-01
2.911314e-01
3.137594e-01
3.353439e-01
3.558711e-01
3.753267e-01
3.936945e-01
4.109549e-01
4.270839e-01
4.420521e-01
4.558238e-01
4.683577e-01
4.796077e-01
4.895255e-01
4.980655e-01
5.051926e-01
5.108924e-01
5.151850e-01
5.181423e-01
5.199049e-01
5.206991e-01
5.208434e-01
5.207239e-01
5.206566e-01
0.000000e+00
-2.520416e-02
-4.398670e-02
-6.448297e-02
-8.730679e-02
-1.130886e-01
-1.420075e-01
-1.741138e-01
-2.093755e-01
-2.477171e-01
-2.890368e-01
-3.332179e-01
-3.801342e-01
-4.296544e-01
-4.816446e-01
-5.359701e-01
-5.924966e-01
-6.510925e-01
-7.116305e-01
-7.739907e-01
-8.380646e-01
-9.037610e-01
-9.710145e-01
-1.039799e+00
-1.110149e+00
-1.182195e+00
-1.256224e+00
-1.332793e+00
-1.412972e+00
-1.498878e+00
-1.595076e+00
-1.712342e+00
-1.874348e+00
0.000000e+00
-1.566343e-02
-3.532379e-02
-5.595833e-02
-7.910027e-02
-1.051621e-01
-1.343621e-01
-1.667494e-01
-2.022949e-01
-2.409230e-01
-2.825316e-01
-3.270027e-01
-3.742093e-01
-4.240188e-01
-4.762963e-01
-5.309054e-01
-5.877104e-01
-6.465777e-01
-7.073775e-01
-7.699870e-01
-8.342938e-01
-9.002020e-01
-9.676402e-01
-1.036575e+00
-1.107032e+00
-1.179128e+00
-1.253136e+00
-1.329598e+00
-1.409558e+00
-1.495099e+00
-1.590555e+00
-1.705210e+00
-1.856565e+00
0.000000e+00
-1.150569e-02
-2.847787e-02
-4.883092e-02
-7.201329e-02
-9.826722e-02
-1.276976e-01
-1.603318e-01
-1.961304e-01
-2.350145e-01
-2.768800e-01
-3.216081e-01
-3.690711e-01
-4.191363e-01
-4.716678e-01
-5.265291e-01
-5.835836e-01
-6.426970e-01
-7.037386e-01
-7.665846e-01
-8.311217e-01
-8.972531e-01
-9.649075e-01
-1.034052e+00
-1.104715e+00
-1.177022e+00
-1.251256e+00
-1.327971e+00
-1.408203e+00
-1.493824e+00
-1.588038e+00
-1.694627e+00
-1.812867e+00
0.000000e+00
-9.213267e-03
-2.411501e-02
-4.338273e-02
-6.626718e-02
-9.251295e-02
-1.220692e-01
-1.548862e-01
-1.908932e-01
-2.299966e-01
-2.720857e-01
-3.170389e-01
-3.647274e-01
-4.150181e-01
-4.677753e-01
-5.228629e-01
-5.801447e-01
-6.394869e-01
-7.007596e-01
-7.638399e-01
-8.286161e-01
-8.949937e-01
-9.629048e-01
-1.032322e+00
-1.103281e+00
-1.175911e+00
-1.250495e+00
-1.327542e+00
-1.407900e+00
-1.492804e+00
-1.583435e+00
-1.679022e+00
-1.768004e+00
0.000000e+00
-7.795939e-03
-2.126186e-02
-3.951388e-02
-6.187665e-02
-8.795035e-02
-1.175177e-01
-1.504413e-01
-1.866022e-01
-2.258822e-01
-2.681584e-01
-3.133034e-01
-3.611863e-01
-4.116733e-01
-4.646296e-01
-5.199198e-01
-5.774091e-01
-6.369652e-01
-6.984601e-01
-7.617728e-01
-8.267942e-01
-8.934326e-01
-9.616230e-01
-1.031340e+00
-1.102616e+00
-1.175565e+00
-1.250418e+00
-1.327541e+00
-1.407421e+00
-1.490451e+00
-1.576234e+00
-1.661621e+00
-1.739115e+00
0.000000e+00
-6.894080e-03
-1.938983e-02
-3.685150e-02
-5.871088e-02
-8.454033e-02
-1.140434e-01
-1.470092e-01
-1.832714e-01
-2.226836e-01
-2.651081e-01
-3.104097e-01
-3.584542e-01
-4.091075e-01
-4.622352e-01
-5.177033e-01
-5.753789e-01
-6.351316e-01
-6.968353e-01
-7.603711e-01
-8.256313e-01
-8.925249e-01
-9.609850e-01
-1.030978e+00
-1.102517e+00
-1.175671e+00
-1.250568e+00
-1.327371e+00
-1.406168e+00
-1.486693e+00
-1.567720e+00
-1.646354e+00
-1.718225e+00
0.000000e+00
-6.333586e-03
-1.820624e-02
-3.512089e-02
-5.659004e-02
-8.219692e-02
-1.116124e-01
-1.445823e-01
-1.809043e-01
-2.204082e-01
-2.629419e-01
-3.083631e-01
-3.565345e-01
-4.073214e-01
-4.605901e-01
-5.162082e-01
-5.740445e-01
-6.339705e-01
-6.958616e-01
-7.595995e-01
-8.250757e-01
-8.921955e-01
-9.608829e-01
-1.031086e+00
-1.102781e+00
-1.175969e+00
-1.250656e+00
-1.326800e+00
-1.404181e+00
-1.482169e+00
-1.559415e+00
-1.633692e+00
-1.702271e+00
0.000000e+00
-6.025585e-03
-1.754950e-02
-3.414566e-02
-5.537393e-02
-8.083190e-02
-1.101799e-01
-1.431425e-01
-1.794969e-01
-2.190574e-01
-2.616627e-01
-3.071654e-01
-3.554265e-01
-4.063111e-01
-4.596866e-01
-5.154220e-01
-5.733877e-01
-6.334563e-01
-6.955036e-01
-7.594101e-01
-8.250635e-01
-8.923607e-01
-9.612100e-01
-1.031532e+00
-1.103256e+00
-1.176309e+00
-1.250583e+00
-1.325875e+00
-1.401783e+00
-1.477562e+00
-1.551993e+00
-1.623402e+00
-1.689927e+00
0.000000e+00
-5.926349e-03
-1.733762e-02
-3.382958e-02
-5.497758e-02
-8.038515e-02
-1.097106e-01
-1.426728e-01
-1.790424e-01
-2.186294e-01
-2.612696e-01
-3.068147e-01
-3.551258e-01
-4.060689e-01
-4.595127e-01
-5.153275e-01
-5.733848e-01
-6.335577e-01
-6.957208e-01
-7.597517e-01
-8.255313e-01
-8.929443e-01
-9.618789e-01
-1.032224e+00
-1.103860e+00
-1.176645e+00
-1.250382e+00
-1.324766e+00
-1.399316e+00
-1.473299e+00
-1.545685e+00
-1.615196e+00
-1.680466e+00
0.000000e+00
-6.022715e-03
-1.754552e-02
-3.414223e-02
-5.537289e-02
-8.083554e-02
-1.101912e-01
-1.431655e-01
-1.795368e-01
-2.191213e-01
-2.617593e-01
-3.073060e-01
-3.556250e-01
-4.065841e-01
-4.600536e-01
-5.159050e-01
-5.740105e-01
-6.342424e-01
-6.964735e-01
-7.605766e-01
-8.264240e-01
-8.938861e-01
-9.628293e-01
-1.033110e+00
-1.104566e+00
-1.176999e+00
-1.250149e+00
-1.323659e+00
-1.397036e+00
-1.469610e+00
-1.540533e+00
-1.608815e+00
-1.673416e+00
0.000000e+00
-6.328077e-03
-1.819860e-02
-3.511428e-02
-5.658797e-02
-8.220376e-02
-1.116339e-01
-1.446261e-01
-1.809806e-01
-2.205303e-01
-2.631268e-01
-3.086324e-01
-3.569148e-01
-4.078447e-01
-4.612941e-01
-5.171353e-01
-5.752404e-01
-6.354810e-01
-6.977267e-01
-7.618450e-01
-8.276987e-01
-8.951440e-01
-9.640260e-01
-1.034172e+00
-1.105385e+00
-1.177423e+00
-1.249991e+00
-1.322711e+00
-1.395108e+00
-1.466597e+00
-1.536492e+00
-1.604030e+00
-1.668411e+00
0.000000e+00
-6.886424e-03
-1.937920e-02
-3.684226e-02
-5.870789e-02
-8.454969e-02
-1.140732e-01
-1.470701e-01
-1.833776e-01
-2.228539e-01
-2.653662e-01
-3.107858e-01
-3.589858e-01
-4.098394e-01
-4.632203e-01
-5.190013e-01
-5.770543e-01
-6.372493e-01
-6.994530e-01
-7.635270e-01
-8.293257e-01
-8.966919e-01
-9.654524e-01
-1.035412e+00
-1.106343e+00
-1.177979e+00
-1.250001e+00
-1.322031e+00
-1.393627e+00
-1.464290e+00
-1.533475e+00
-1.600616e+00
-1.665130e+00
0.000000e+00
-7.786920e-03
-2.124935e-02
-3.950299e-02
-6.187319e-02
-8.796168e-02
-1.175536e-01
-1.505148e-01
-1.867305e-01
-2.260878e-01
-2.684703e-01
-3.137582e-01
-3.618291e-01
-4.125588e-01
-4.658217e-01
-5.214909e-01
-5.794379e-01
-6.395309e-01
-7.016339e-01
-7.656037e-01
-8.312871e-01
-8.985164e-01
-9.671041e-01
-1.036837e+00
-1.107469e+00
-1.178714e+00
-1.250245e+00
-1.321688e+00
-1.392638e+00
-1.462671e+00
-1.531369e+00
-1.598349e+00
-1.663252e+00
0.000000e+00
-9.203998e-03
-2.410217e-02
-4.337167e-02
-6.626421e-02
-9.252626e-02
-1.221097e-01
-1.549682e-01
-1.910359e-01
-2.302248e-01
-2.724315e-01
-3.175426e-01
-3.654388e-01
-4.159972e-01
-4.690928e-01
-5.245984e-01
-5.823847e-01
-6.423187e-01
-7.042618e-01
-7.680673e-01
-8.335764e-01
-9.006140e-01
-9.689828e-01
-1.038458e+00
-1.108781e+00
-1.179657e+00
-1.250754e+00
-1.321707e+00
-1.392139e+00
-1.461688e+00
-1.530045e+00
-1.596996e+00
-1.662434e+00
0.000000e+00
-1.149761e-02
-2.846662e-02
-4.882158e-02
-7.201241e-02
-9.828342e-02
-1.277423e-01
-1.604200e-01
-1.962820e-01
-2.352553e-01
-2.772430e-01
-3.221349e-01
-3.698130e-01
-4.201548e-01
-4.730350e-01
-5.283261e-01
-5.858979e-01
-6.456162e-01
-7.073408e-01
-7.709222e-01
-8.361985e-01
-9.029901e-01
-9.710943e-01
-1.040280e+00
-1.110285e+00
-1.180809e+00
-1.251520e+00
-1.322063e+00
-1.392083e+00
-1.461259e+00
-1.529359e+00
-1.596316e+00
-1.662290e+00
0.000000e+00
-1.565823e-02
-3.531614e-02
-5.595283e-02
-7.910367e-02
-1.051833e-01
-1.344124e-01
-1.668440e-01
-2.024537e-01
-2.411715e-01
-2.829024e-01
-3.275366e-01
-3.749561e-01
-4.250383e-01
-4.776575e-01
-5.326856e-01
-5.899914e-01
-6.494396e-01
-7.108886e-01
-7.741875e-01
-8.391723e-01
-9.056614e-01
-9.734505e-01
-1.042308e+00
-1.111969e+00
-1.182138e+00
-1.252488e+00
-1.322674e+00
-1.392356e+00
-1.461238e+00
-1.529135e+00
-1.596070e+00
-1.662412e+00
0.000000e+00
-2.520342e-02
-4.398415e-02
-6.448346e-02
-8.731708e-02
-1.131175e-01
-1.420666e-01
-1.742181e-01
-2.095444e-01
-2.479753e-01
-2.894159e-01
-3.337565e-01
-3.808795e-01
-4.306619e-01
-4.829776e-01
-5.376978e-01
-5.946903e-01
-6.538185e-01
-7.149392e-01
-7.778999e-01
-8.425352e-01
-9.086624e-01
-9.760770e-01