TITLE = "Solution"
VARIABLES = x, y, u, v, psiu, psiv, t, stress
ZONE T="structure" N=561 E=512 F=FEBLOCK ET=QUADRILATERAL VARLOCATION=([7,8]=cellcentered)
0.000000e+00
6.250000e+00
1.250000e+01
1.875000e+01
2.500000e+01
3.125000e+01
3.750000e+01
4.375000e+01
5.000000e+01
5.625000e+01
6.250000e+01
6.875000e+01
7.500000e+01
8.125000e+01
8.750000e+01
9.375000e+01
1.000000e+02
1.062500e+02
1.125000e+02
1.187500e+02
1.250000e+02
1.312500e+02
1.375000e+02
1.437500e+02
1.500000e+02
1.562500e+02
1.625000e+02
1.687500e+02
1.750000e+02
1.812500e+02
1.875000e+02
1.937500e+02
2.000000e+02
0.000000e+00
6.250000e+00
1.250000e+01
1.875000e+01
2.500000e+01
3.125000e+01
3.750000e+01
4.375000e+01
5.000000e+01
5.625000e+01
6.250000e+01
6.875000e+01
7.500000e+01
8.125000e+01
8.750000e+01
9.375000e+01
1.000000e+02
1.062500e+02
1.125000e+02
1.187500e+02
1.250000e+02
1.312500e+02
1.375000e+02
1.437500e+02
1.500000e+02
1.562500e+02
1.625000e+02
1.687500e+02
1.750000e+02
1.812500e+02
1.875000e+02
1.937500e+02
2.000000e+02
0.000000e+00
6.250000e+00
1.250000e+01
1.875000e+01
2.500000e+01
3.125000e+01
3.750000e+01
4.375000e+01
5.000000e+01
5.625000e+01
6.250000e+01
6.875000e+01
7.500000e+01
8.125000e+01
8.750000e+01
9.375000e+01
1.000000e+02
1.062500e+02
1.125000e+02
1.187500e+02
1.250000e+02
1.312500e+02
1.375000e+02
1.437500e+02
1.500000e+02
1.562500e+02
1.625000e+02
1.687500e+02
1.750000e+02
1.812500e+02
1.875000e+02
1.937500e+02
2.000000e+02
0.000000e+00
6.250000e+00
1.250000e+01
1.875000e+01
2.500000e+01
3.125000e+01
3.750000e+01
4.375000e+01
5.000000e+01
5.625000e+01
6.250000e+01
6.875000e+01
7.500000e+01
8.125000e+01
8.750000e+01
9.375000e+01
1.000000e+02
1.062500e+02
1.125000e+02
1.187500e+02
1.250000e+02
1.312500e+02
1.375000e+02
1.437500e+02
1.500000e+02
1.562500e+02
1.625000e+02
1.687500e+02
1.750000e+02
1.812500e+02
1.875000e+02
1.937500e+02
2.000000e+02
0.000000e+00
6.250000e+00
1.250000e+01
1.875000e+01
2.500000e+01
3.125000e+01
3.750000e+01
4.375000e+01
5.000000e+01
5.625000e+01
6.250000e+01
6.875000e+01
7.500000e+01
8.125000e+01
8.750000e+01
9.375000e+01
1.000000e+02
1.062500e+02
1.125000e+02
1.187500e+02
1.250000e+02
1.312500e+02
1.375000e+02
1.437500e+02
1.500000e+02
1.562500e+02
1.625000e+02
1.687500e+02
1.750000e+02
1.812500e+02
1.875000e+02
1.937500e+02
2.000000e+02
0.000000e+00
6.250000e+00
1.250000e+01
1.875000e+01
2.500000e+01
3.125000e+01
3.750000e+01
4.375000e+01
5.000000e+01
5.625000e+01
6.250000e+01
6.875000e+01
7.500000e+01
8.125000e+01
8.750000e+01
9.375000e+01
1.000000e+02
1.062500e+02
1.125000e+02
1.187500e+02
1.250000e+02
1.312500e+02
1.375000e+02
1.437500e+02
1.500000e+02
1.562500e+02
1.625000e+02
1.687500e+02
1.750000e+02
1.812500e+02
1.875000e+02
1.937500e+02
2.000000e+02
0.000000e+00
6.250000e+00
1.250000e+01
1.875000e+01
2.500000e+01
3.125000e+01
3.750000e+01
4.375000e+01
5.000000e+01
5.625000e+01
6.250000e+01
6.875000e+01
7.500000e+01
8.125000e+01
8.750000e+01
9.375000e+01
1.000000e+02
1.062500e+02
1.125000e+02
1.187500e+02
1.250000e+02
1.312500e+02
1.375000e+02
1.437500e+02
1.500000e+02
1.562500e+02
1.625000e+02
1.687500e+02
1.750000e+02
1.812500e+02
1.875000e+02
1.937500e+02
2.000000e+02
0.000000e+00
6.250000e+00
1.250000e+01
1.875000e+01
2.500000e+01
3.125000e+01
3.750000e+01
4.375000e+01
5.000000e+01
5.625000e+01
6.250000e+01
6.875000e+01
7.500000e+01
8.125000e+01
8.750000e+01
9.375000e+01
1.000000e+02
1.062500e+02
1.125000e+02
1.187500e+02
1.250000e+02
1.312500e+02
1.375000e+02
1.437500e+02
1.500000e+02
1.562500e+02
1.625000e+02
1.687500e+02
1.750000e+02
1.812500e+02
1.875000e+02
1.937500e+02
2.000000e+02
0.000000e+00
6.250000e+00
1.250000e+01
1.875000e+01
2.500000e+01
3.125000e+01
3.750000e+01
4.375000e+01
5.000000e+01
5.625000e+01
6.250000e+01
6.875000e+01
7.500000e+01
8.125000e+01
8.750000e+01
9.375000e+01
1.000000e+02
1.062500e+02
1.125000e+02
1.187500e+02
1.250000e+02
1.312500e+02
1.375000e+02
1.437500e+02
1.500000e+02
1.562500e+02
1.625000e+02
1.687500e+02
1.750000e+02
1.812500e+02
1.875000e+02
1.937500e+02
2.000000e+02
0.000000e+00
6.250000e+00
1.250000e+01
1.875000e+01
2.500000e+01
3.125000e+01
3.750000e+01
4.375000e+01
5.000000e+01
5.625000e+01
6.250000e+01
6.875000e+01
7.500000e+01
8.125000e+01
8.750000e+01
9.375000e+01
1.000000e+02
1.062500e+02
1.125000e+02
1.187500e+02
1.250000e+02
1.312500e+02
1.375000e+02
1.437500e+02
1.500000e+02
1.562500e+02
1.625000e+02
1.687500e+02
1.750000e+02
1.812500e+02
1.875000e+02
1.937500e+02
2.000000e+02
0.000000e+00
6.250000e+00
1.250000e+01
1.875000e+01
2.500000e+01
3.125000e+01
3.750000e+01
4.375000e+01
5.000000e+01
5.625000e+01
6.250000e+01
6.875000e+01
7.500000e+01
8.125000e+01
8.750000e+01
9.375000e+01
1.000000e+02
1.062500e+02
1.125000e+02
1.187500e+02
1.250000e+02
1.312500e+02
1.375000e+02
1.437500e+02
1.500000e+02
1.562500e+02
1.625000e+02
1.687500e+02
1.750000e+02
1.812500e+02
1.875000e+02
1.937500e+02
2.000000e+02
0.000000e+00
6.250000e+00
1.250000e+01
1.875000e+01
2.500000e+01
3.125000e+01
3.750000e+01
4.375000e+01
5.000000e+01
5.625000e+01
6.250000e+01
6.875000e+01
7.500000e+01
8.125000e+01
8.750000e+01
9.375000e+01
1.000000e+02
1.062500e+02
1.125000e+02
1.187500e+02
1.250000e+02
1.312500e+02
1.375000e+02
1.437500e+02
1.500000e+02
1.562500e+02
1.625000e+02
1.687500e+02
1.750000e+02
1.812500e+02
1.875000e+02
1.937500e+02
2.000000e+02
0.000000e+00
6.250000e+00
1.250000e+01
1.875000e+01
2.500000e+01
3.125000e+01
3.750000e+01
4.375000e+01
5.000000e+01
5.625000e+01
6.250000e+01
6.875000e+01
7.500000e+01
8.125000e+01
8.750000e+01
9.375000e+01
1.000000e+02
1.062500e+02
1.125000e+02
1.187500e+02
1.250000e+02
1.312500e+02
1.375000e+02
1.437500e+02
1.500000e+02
1.562500e+02
1.625000e+02
1.687500e+02
1.750000e+02
1.812500e+02
1.875000e+02
1.937500e+02
2.000000e+02
0.000000e+00
6.250000e+00
1.250000e+01
1.875000e+01
2.500000e+01
3.125000e+01
3.750000e+01
4.375000e+01
5.000000e+01
5.625000e+01
6.250000e+01
6.875000e+01
7.500000e+01
8.125000e+01
8.750000e+01
9.375000e+01
1.000000e+02
1.062500e+02
1.125000e+02
1.187500e+02
1.250000e+02
1.312500e+02
1.375000e+02
1.437500e+02
1.500000e+02
1.562500e+02
1.625000e+02
1.687500e+02
1.750000e+02
1.812500e+02
1.875000e+02
1.937500e+02
2.000000e+02
0.000000e+00
6.250000e+00
1.250000e+01
1.875000e+01
2.500000e+01
3.125000e+01
3.750000e+01
4.375000e+01
5.000000e+01
5.625000e+01
6.250000e+01
6.875000e+01
7.500000e+01
8.125000e+01
8.750000e+01
9.375000e+01
1.000000e+02
1.062500e+02
1.125000e+02
1.187500e+02
1.250000e+02
1.312500e+02
1.375000e+02
1.437500e+02
1.500000e+02
1.562500e+02
1.625000e+02
1.687500e+02
1.750000e+02
1.812500e+02
1.875000e+02
1.937500e+02
2.000000e+02
0.000000e+00
6.250000e+00
1.250000e+01
1.875000e+01
2.500000e+01
3.125000e+01
3.750000e+01
4.375000e+01
5.000000e+01
5.625000e+01
6.250000e+01
6.875000e+01
7.500000e+01
8.125000e+01
8.750000e+01
9.375000e+01
1.000000e+02
1.062500e+02
1.125000e+02
1.187500e+02
1.250000e+02
1.312500e+02
1.375000e+02
1.437500e+02
1.500000e+02
1.562500e+02
1.625000e+02
1.687500e+02
1.750000e+02
1.812500e+02
1.875000e+02
1.937500e+02
2.000000e+02
0.000000e+00
6.250000e+00
1.250000e+01
1.875000e+01
2.500000e+01
3.125000e+01
3.750000e+01
4.375000e+01
5.000000e+01
5.625000e+01
6.250000e+01
6.875000e+01
7.500000e+01
8.125000e+01
8.750000e+01
9.375000e+01
1.000000e+02
1.062500e+02
1.125000e+02
1.187500e+02
1.250000e+02
1.312500e+02
1.375000e+02
1.437500e+02
1.500000e+02
1.562500e+02
1.625000e+02
1.687500e+02
1.750000e+02
1.812500e+02
1.875000e+02
1.937500e+02
2.000000e+02
0.000000e+00
0.000000e+00
0.000000e+00
0.000000e+00
0.000000e+00
0.000000e+00
0.000000e+00
0.000000e+00
0.000000e+00
0.000000e+00
0.000000e+00
0.000000e+00
0.000000e+00
0.000000e+00
0.000000e+00
0.000000e+00
0.000000e+00
0.000000e+00
0.000000e+00
0.000000e+00
0.000000e+00
0.000000e+00
0.000000e+00
0.000000e+00
0.000000e+00
0.000000e+00
0.000000e+00
0.000000e+00
0.000000e+00
0.000000e+00
0.000000e+00
0.000000e+00
0.000000e+00
6.250000e+00
6.250000e+00
6.250000e+00
6.250000e+00
6.250000e+00
6.250000e+00
6.250000e+00
6.250000e+00
6.250000e+00
6.250000e+00
6.250000e+00
6.250000e+00
6.250000e+00
6.250000e+00
6.250000e+00
6.250000e+00
6.250000e+00
6.250000e+00
6.250000e+00
6.250000e+00
6.250000e+00
6.250000e+00
6.250000e+00
6.250000e+00
6.250000e+00
6.250000e+00
6.250000e+00
6.250000e+00
6.250000e+00
6.250000e+00
6.250000e+00
6.250000e+00
6.250000e+00
1.250000e+01
1.250000e+01
1.250000e+01
1.250000e+01
1.250000e+01
1.250000e+01
1.250000e+01
1.250000e+01
1.250000e+01
1.250000e+01
1.250000e+01
1.250000e+01
1.250000e+01
1.250000e+01
1.250000e+01
1.250000e+01
1.250000e+01
1.250000e+01
1.250000e+01
1.250000e+01
1.250000e+01
1.250000e+01
1.250000e+01
1.250000e+01
1.250000e+01
1.250000e+01
1.250000e+01
1.250000e+01
1.250000e+01
1.250000e+01
1.250000e+01
1.250000e+01
1.250000e+01
1.875000e+01
1.875000e+01
1.875000e+01
1.875000e+01
1.875000e+01
1.875000e+01
1.875000e+01
1.875000e+01
1.875000e+01
1.875000e+01
1.875000e+01
1.875000e+01
1.875000e+01
1.875000e+01
1.875000e+01
1.875000e+01
1.875000e+01
1.875000e+01
1.875000e+01
1.875000e+01
1.875000e+01
1.875000e+01
1.875000e+01
1.875000e+01
1.875000e+01
1.875000e+01
1.875000e+01
1.875000e+01
1.875000e+01
1.875000e+01
1.875000e+01
1.875000e+01
1.875000e+01
2.500000e+01
2.500000e+01
2.500000e+01
2.500000e+01
2.500000e+01
2.500000e+01
2.500000e+01
2.500000e+01
2.500000e+01
2.500000e+01
2.500000e+01
2.500000e+01
2.500000e+01
2.500000e+01
2.500000e+01
2.500000e+01
2.500000e+01
2.500000e+01
2.500000e+01
2.500000e+01
2.500000e+01
2.500000e+01
2.500000e+01
2.500000e+01
2.500000e+01
2.500000e+01
2.500000e+01
2.500000e+01
2.500000e+01
2.500000e+01
2.500000e+01
2.500000e+01
2.500000e+01
3.125000e+01
3.125000e+01
3.125000e+01
3.125000e+01
3.125000e+01
3.125000e+01
3.125000e+01
3.125000e+01
3.125000e+01
3.125000e+01
3.125000e+01
3.125000e+01
3.125000e+01
3.125000e+01
3.125000e+01
3.125000e+01
3.125000e+01
3.125000e+01
3.125000e+01
3.125000e+01
3.125000e+01
3.125000e+01
3.125000e+01
3.125000e+01
3.125000e+01
3.125000e+01
3.125000e+01
3.125000e+01
3.125000e+01
3.125000e+01
3.125000e+01
3.125000e+01
3.125000e+01
3.750000e+01
3.750000e+01
3.750000e+01
3.750000e+01
3.750000e+01
3.750000e+01
3.750000e+01
3.750000e+01
3.750000e+01
3.750000e+01
3.750000e+01
3.750000e+01
3.750000e+01
3.750000e+01
3.750000e+01
3.750000e+01
3.750000e+01
3.750000e+01
3.750000e+01
3.750000e+01
3.750000e+01
3.750000e+01
3.750000e+01
3.750000e+01
3.750000e+01
3.750000e+01
3.750000e+01
3.750000e+01
3.750000e+01
3.750000e+01
3.750000e+01
3.750000e+01
3.750000e+01
4.375000e+01
4.375000e+01
4.375000e+01
4.375000e+01
4.375000e+01
4.375000e+01
4.375000e+01
4.375000e+01
4.375000e+01
4.375000e+01
4.375000e+01
4.375000e+01
4.375000e+01
4.375000e+01
4.375000e+01
4.375000e+01
4.375000e+01
4.375000e+01
4.375000e+01
4.375000e+01
4.375000e+01
4.375000e+01
4.375000e+01
4.375000e+01
4.375000e+01
4.375000e+01
4.375000e+01
4.375000e+01
4.375000e+01
4.375000e+01
4.375000e+01
4.375000e+01
4.375000e+01
5.000000e+01
5.000000e+01
5.000000e+01
5.000000e+01
5.000000e+01
5.000000e+01
5.000000e+01
5.000000e+01
5.000000e+01
5.000000e+01
5.000000e+01
5.000000e+01
5.000000e+01
5.000000e+01
5.000000e+01
5.000000e+01
5.000000e+01
5.000000e+01
5.000000e+01
5.000000e+01
5.000000e+01
5.000000e+01
5.000000e+01
5.000000e+01
5.000000e+01
5.000000e+01
5.000000e+01
5.000000e+01
5.000000e+01
5.000000e+01
5.000000e+01
5.000000e+01
5.000000e+01
5.625000e+01
5.625000e+01
5.625000e+01
5.625000e+01
5.625000e+01
5.625000e+01
5.625000e+01
5.625000e+01
5.625000e+01
5.625000e+01
5.625000e+01
5.625000e+01
5.625000e+01
5.625000e+01
5.625000e+01
5.625000e+01
5.625000e+01
5.625000e+01
5.625000e+01
5.625000e+01
5.625000e+01
5.625000e+01
5.625000e+01
5.625000e+01
5.625000e+01
5.625000e+01
5.625000e+01
5.625000e+01
5.625000e+01
5.625000e+01
5.625000e+01
5.625000e+01
5.625000e+01
6.250000e+01
6.250000e+01
6.250000e+01
6.250000e+01
6.250000e+01
6.250000e+01
6.250000e+01
6.250000e+01
6.250000e+01
6.250000e+01
6.250000e+01
6.250000e+01
6.250000e+01
6.250000e+01
6.250000e+01
6.250000e+01
6.250000e+01
6.250000e+01
6.250000e+01
6.250000e+01
6.250000e+01
6.250000e+01
6.250000e+01
6.250000e+01
6.250000e+01
6.250000e+01
6.250000e+01
6.250000e+01
6.250000e+01
6.250000e+01
6.250000e+01
6.250000e+01
6.250000e+01
6.875000e+01
6.875000e+01
6.875000e+01
6.875000e+01
6.875000e+01
6.875000e+01
6.875000e+01
6.875000e+01
6.875000e+01
6.875000e+01
6.875000e+01
6.875000e+01
6.875000e+01
6.875000e+01
6.875000e+01
6.875000e+01
6.875000e+01
6.875000e+01
6.875000e+01
6.875000e+01
6.875000e+01
6.875000e+01
6.875000e+01
6.875000e+01
6.875000e+01
6.875000e+01
6.875000e+01
6.875000e+01
6.875000e+01
6.875000e+01
6.875000e+01
6.875000e+01
6.875000e+01
7.500000e+01
7.500000e+01
7.500000e+01
7.500000e+01
7.500000e+01
7.500000e+01
7.500000e+01
7.500000e+01
7.500000e+01
7.500000e+01
7.500000e+01
7.500000e+01
7.500000e+01
7.500000e+01
7.500000e+01
7.500000e+01
7.500000e+01
7.500000e+01
7.500000e+01
7.500000e+01
7.500000e+01
7.500000e+01
7.500000e+01
7.500000e+01
7.500000e+01
7.500000e+01
7.500000e+01
7.500000e+01
7.500000e+01
7.500000e+01
7.500000e+01
7.500000e+01
7.500000e+01
8.125000e+01
8.125000e+01
8.125000e+01
8.125000e+01
8.125000e+01
8.125000e+01
8.125000e+01
8.125000e+01
8.125000e+01
8.125000e+01
8.125000e+01
8.125000e+01
8.125000e+01
8.125000e+01
8.125000e+01
8.125000e+01
8.125000e+01
8.125000e+01
8.125000e+01
8.125000e+01
8.125000e+01
8.125000e+01
8.125000e+01
8.125000e+01
8.125000e+01
8.125000e+01
8.125000e+01
8.125000e+01
8.125000e+01
8.125000e+01
8.125000e+01
8.125000e+01
8.125000e+01
8.750000e+01
8.750000e+01
8.750000e+01
8.750000e+01
8.750000e+01
8.750000e+01
8.750000e+01
8.750000e+01
8.750000e+01
8.750000e+01
8.750000e+01
8.750000e+01
8.750000e+01
8.750000e+01
8.750000e+01
8.750000e+01
8.750000e+01
8.750000e+01
8.750000e+01
8.750000e+01
8.750000e+01
8.750000e+01
8.750000e+01
8.750000e+01
8.750000e+01
8.750000e+01
8.750000e+01
8.750000e+01
8.750000e+01
8.750000e+01
8.750000e+01
8.750000e+01
8.750000e+01
9.375000e+01
9.375000e+01
9.375000e+01
9.375000e+01
9.375000e+01
9.375000e+01
9.375000e+01
9.375000e+01
9.375000e+01
9.375000e+01
9.375000e+01
9.375000e+01
9.375000e+01
9.375000e+01
9.375000e+01
9.375000e+01
9.375000e+01
9.375000e+01
9.375000e+01
9.375000e+01
9.375000e+01
9.375000e+01
9.375000e+01
9.375000e+01
9.375000e+01
9.375000e+01
9.375000e+01
9.375000e+01
9.375000e+01
9.375000e+01
9.375000e+01
9.375000e+01
9.375000e+01
1.000000e+02
1.000000e+02
1.000000e+02
1.000000e+02
1.000000e+02
1.000000e+02
1.000000e+02
1.000000e+02
1.000000e+02
1.000000e+02
1.000000e+02
1.000000e+02
1.000000e+02
1.000000e+02
1.000000e+02
1.000000e+02
1.000000e+02
1.000000e+02
1.000000e+02
1.000000e+02
1.000000e+02
1.000000e+02
1.000000e+02
1.000000e+02
1.000000e+02
1.000000e+02
1.000000e+02
1.000000e+02
1.000000e+02
1.000000e+02
1.000000e+02
1.000000e+02
1.000000e+02
0.000000e+00
-4.667930e-01
-7.777014e-01
-1.115760e+00
-1.418708e+00
-1.712722e+00
-2.022348e+00
-2.312139e+00
-2.613450e+00
-2.907623e+00
-3.206190e+00
-3.504740e+00
-3.803156e+00
-4.104386e+00
-4.403682e+00
-4.705596e+00
-5.006566e+00
-5.308224e+00
-5.610330e+00
-5.911590e+00
-6.214068e+00
-6.515506e+00
-6.817158e+00
-7.115670e+00
-7.413303e+00
-7.716475e+00
-8.020115e+00
-8.346940e+00
-8.670007e+00
-9.028785e+00
-9.509808e+00
-9.926164e+00
-1.013141e+01
0.000000e+00
-2.329623e-01
-4.717178e-01
-7.365621e-01
-1.002897e+00
-1.256152e+00
-1.525550e+00
-1.785957e+00
-2.048410e+00
-2.313410e+00
-2.573527e+00
-2.838592e+00
-3.099279e+00
-3.362484e+00
-3.624543e+00
-3.886140e+00
-4.148637e+00
-4.409845e+00
-4.671741e+00
-4.933067e+00
-5.194289e+00
-5.455245e+00
-5.716557e+00
-5.976674e+00
-6.238498e+00
-6.498762e+00
-6.759068e+00
-7.022385e+00
-7.277818e+00
-7.537335e+00
-7.786551e+00
-7.885916e+00
-7.991658e+00
0.000000e+00
-1.065557e-01
-2.461173e-01
-4.421489e-01
-6.586739e-01
-8.657172e-01
-1.092940e+00
-1.317896e+00
-1.543366e+00
-1.773941e+00
-1.996548e+00
-2.224772e+00
-2.447588e+00
-2.671922e+00
-2.895718e+00
-3.118155e+00
-3.341926e+00
-3.564513e+00
-3.787962e+00
-4.011657e+00
-4.235212e+00
-4.458996e+00
-4.683825e+00
-4.910171e+00
-5.137384e+00
-5.358449e+00
-5.570381e+00
-5.768267e+00
-5.947242e+00
-6.096221e+00
-6.180179e+00
-6.184915e+00
-6.277760e+00
0.000000e+00
-1.025142e-01
-1.876103e-01
-3.382824e-01
-4.615300e-01
-6.185679e-01
-7.950196e-01
-9.649448e-01
-1.154034e+00
-1.333100e+00
-1.518412e+00
-1.702092e+00
-1.886051e+00
-2.070906e+00
-2.255725e+00
-2.442119e+00
-2.628856e+00
-2.817458e+00
-3.007197e+00
-3.198293e+00
-3.390702e+00
-3.582842e+00
-3.775776e+00
-3.966643e+00
-4.150337e+00
-4.322527e+00
-4.473743e+00
-4.605419e+00
-4.706348e+00
-4.768172e+00
-4.782244e+00
-4.798655e+00
-4.879482e+00
0.000000e+00
-9.215762e-02
-1.828505e-01
-2.737880e-01
-3.853476e-01
-5.016100e-01
-6.331532e-01
-7.675061e-01
-9.106208e-01
-1.053401e+00
-1.198231e+00
-1.345026e+00
-1.489903e+00
-1.637665e+00
-1.784236e+00
-1.932272e+00
-2.080862e+00
-2.229844e+00
-2.379469e+00
-2.528726e+00
-2.677233e+00
-2.823448e+00
-2.966076e+00
-3.102221e+00
-3.229091e+00
-3.342429e+00
-3.438769e+00
-3.512521e+00
-3.560394e+00
-3.583139e+00
-3.584575e+00
-3.614227e+00
-3.686666e+00
0.000000e+00
-7.368124e-02
-1.446241e-01
-2.191692e-01
-3.000686e-01
-3.887459e-01
-4.831907e-01
-5.841574e-01
-6.878113e-01
-7.950035e-01
-9.028509e-01
-1.011367e+00
-1.120494e+00
-1.229181e+00
-1.338390e+00
-1.447319e+00
-1.556273e+00
-1.664898e+00
-1.772712e+00
-1.879124e+00
-1.983074e+00
-2.083236e+00
-2.177723e+00
-2.264588e+00
-2.341351e+00
-2.405913e+00
-2.456240e+00
-2.490355e+00
-2.509823e+00
-2.507837e+00
-2.503326e+00
-2.530799e+00
-2.597617e+00
0.000000e+00
-5.079239e-02
-1.010942e-01
-1.525766e-01
-2.075524e-01
-2.664303e-01
-3.294523e-01
-3.956700e-01
-4.645966e-01
-5.350531e-01
-6.064417e-01
-6.780961e-01
-7.496649e-01
-8.210438e-01
-8.919946e-01
-9.625172e-01
-1.032341e+00
-1.101199e+00
-1.168618e+00
-1.233900e+00
-1.296071e+00
-1.353793e+00
-1.405603e+00
-1.449837e+00
-1.484915e+00
-1.508758e+00
-1.521181e+00
-1.523214e+00
-1.505858e+00
-1.477090e+00
-1.466615e+00
-1.492106e+00
-1.557951e+00
0.000000e+00
-2.674760e-02
-5.336729e-02
-8.056696e-02
-1.090534e-01
-1.392915e-01
-1.712136e-01
-2.046196e-01
-2.390373e-01
-2.740712e-01
-3.092531e-01
-3.442642e-01
-3.788582e-01
-4.128530e-01
-4.461428e-01
-4.785590e-01
-5.098903e-01
-5.398261e-01
-5.680086e-01
-5.939391e-01
-6.168351e-01
-6.356241e-01
-6.490348e-01
-6.561687e-01
-6.556237e-01
-6.472322e-01
-6.286927e-01
-5.905028e-01
-5.421176e-01
-4.935437e-01
-4.708563e-01
-4.961636e-01
-5.642767e-01
0.000000e+00
-1.915897e-03
-3.881549e-03
-5.817452e-03
-7.633278e-03
-9.228611e-03
-1.051676e-02
-1.142142e-02
-1.188834e-02
-1.185595e-02
-1.126730e-02
-1.004069e-02
-8.063778e-03
-5.192474e-03
-1.289846e-03
3.801403e-03
1.034570e-02
1.862635e-02
2.880471e-02
4.098021e-02
5.549044e-02
7.309104e-02
9.469122e-02
1.218471e-01
1.540938e-01
1.949209e-01
2.520758e-01
3.218663e-01
3.925161e-01
4.415479e-01
4.557512e-01
4.235669e-01
3.473687e-01
0.000000e+00
2.303592e-02
4.585796e-02
6.933166e-02
9.435940e-02
1.216014e-01
1.511721e-01
1.829593e-01
2.165854e-01
2.516758e-01
2.878569e-01
3.249073e-01
3.628257e-01
4.017847e-01
4.420538e-01
4.839313e-01
5.277695e-01
5.737552e-01
6.218231e-01
6.717095e-01
7.230889e-01
7.762380e-01
8.319484e-01
8.909661e-01
9.595196e-01
1.041694e+00
1.129378e+00
1.217485e+00
1.290000e+00
1.332879e+00
1.332075e+00
1.289929e+00
1.227944e+00
0.000000e+00
4.740897e-02
9.428870e-02
1.424713e-01
1.944996e-01
2.510435e-01
3.123939e-01
3.777576e-01
4.464265e-01
5.172674e-01
5.894381e-01
6.623111e-01
7.356386e-01
8.097243e-01
8.851212e-01
9.628085e-01
1.043262e+00
1.126225e+00
1.211302e+00
1.298518e+00
1.387820e+00
1.478905e+00
1.572079e+00
1.672955e+00
1.779731e+00
1.890185e+00
1.998148e+00
2.087495e+00
2.151709e+00
2.180130e+00
2.174256e+00
2.144301e+00
2.100200e+00
0.000000e+00
7.071193e-02
1.387425e-01
2.106748e-01
2.894966e-01
3.769888e-01
4.712924e-01
5.724854e-01
6.775943e-01
7.859968e-01
8.956809e-01
1.006026e+00
1.117040e+00
1.228087e+00
1.340059e+00
1.453315e+00
1.568928e+00
1.686329e+00
1.805492e+00
1.927702e+00
2.055205e+00
2.190938e+00
2.332033e+00
2.472310e+00
2.608146e+00
2.735025e+00
2.847061e+00
2.936966e+00
2.994516e+00
3.023822e+00
3.027549e+00
3.009677e+00
2.981900e+00
0.000000e+00
8.953125e-02
1.775425e-01
2.665920e-01
3.776338e-01
4.950523e-01
6.273100e-01
7.657475e-01
9.101504e-01
1.056693e+00
1.203979e+00
1.353236e+00
1.502351e+00
1.654691e+00
1.807495e+00
1.963537e+00
2.121992e+00
2.282889e+00
2.446914e+00
2.612298e+00
2.780604e+00
2.950542e+00
3.118938e+00
3.282632e+00
3.435995e+00
3.575358e+00
3.694276e+00
3.787115e+00
3.854684e+00
3.894420e+00
3.907755e+00
3.901305e+00
3.886701e+00
0.000000e+00
9.969633e-02
1.822641e-01
3.303800e-01
4.540204e-01
6.133847e-01
7.939890e-01
9.674146e-01
1.161180e+00
1.342467e+00
1.529657e+00
1.713511e+00
1.899176e+00
2.089487e+00
2.283939e+00
2.483497e+00
2.685648e+00
2.891270e+00
3.100772e+00
3.312642e+00
3.522070e+00
3.725422e+00
3.919501e+00
4.103660e+00
4.278749e+00
4.436313e+00
4.571419e+00
4.678270e+00
4.755186e+00
4.803434e+00
4.825918e+00
4.828839e+00
4.824066e+00
0.000000e+00
1.051898e-01
2.415965e-01
4.323187e-01
6.464546e-01
8.519661e-01
1.080358e+00
1.308540e+00
1.537283e+00
1.771743e+00
1.997211e+00
2.225699e+00
2.449429e+00
2.676096e+00
2.905360e+00
3.136263e+00
3.368105e+00
3.598892e+00
3.831184e+00
4.064200e+00
4.297435e+00
4.525349e+00
4.746908e+00
4.966153e+00
5.174554e+00
5.358600e+00
5.508400e+00
5.623756e+00
5.706643e+00
5.759865e+00
5.787809e+00
5.796963e+00
5.798089e+00
0.000000e+00
2.336012e-01
4.729008e-01
7.373514e-01
1.003233e+00
1.256081e+00
1.524794e+00
1.784975e+00
2.046941e+00
2.311361e+00
2.571206e+00
2.835143e+00
3.095008e+00
3.356598e+00
3.616867e+00
3.876506e+00
4.136327e+00
4.393968e+00
4.651342e+00
4.906457e+00
5.160973e+00
5.414550e+00
5.668437e+00
5.924522e+00
6.162754e+00
6.362491e+00
6.520356e+00
6.637805e+00
6.718553e+00
6.768108e+00
6.793449e+00
6.802638e+00
6.804895e+00
0.000000e+00
4.677759e-01
7.824610e-01
1.124790e+00
1.431153e+00
1.726404e+00
2.036199e+00
2.323600e+00
2.622437e+00
2.913295e+00
3.208751e+00
3.506122e+00
3.802509e+00
4.099861e+00
4.392346e+00
4.683403e+00
4.973272e+00
5.263104e+00
5.551858e+00
5.840163e+00
6.126114e+00
6.415310e+00
6.706624e+00
6.996521e+00
7.256792e+00
7.467094e+00
7.625891e+00
7.735510e+00
7.800903e+00
7.830277e+00
7.835417e+00
7.830761e+00
7.828186e+00
0.000000e+00
-2.772317e-01
-5.828708e-01
-9.723729e-01
-1.398114e+00
-1.862310e+00
-2.366972e+00
-2.902704e+00
-3.475325e+00
-4.080652e+00
-4.721014e+00
-5.397884e+00
-6.110438e+00
-6.861497e+00
-7.649655e+00
-8.476602e+00
-9.342117e+00
-1.024636e+01
-1.118997e+01
-1.217256e+01
-1.319476e+01
-1.425704e+01
-1.535959e+01
-1.650213e+01
-1.768361e+01
-1.890512e+01
-2.017131e+01
-2.149033e+01
-2.287078e+01
-2.433213e+01
-2.589112e+01
-2.770062e+01
-3.024333e+01
0.000000e+00
-1.783721e-01
-5.025299e-01
-8.846922e-01
-1.316656e+00
-1.777914e+00
-2.282639e+00
-2.819863e+00
-3.390960e+00
-3.997454e+00
-4.636765e+00
-5.314170e+00
-6.026445e+00
-6.777397e+00
-7.565811e+00
-8.392430e+00
-9.258180e+00
-1.016228e+01
-1.110594e+01
-1.208857e+01
-1.311067e+01
-1.417283e+01
-1.527556e+01
-1.641826e+01
-1.759969e+01
-1.882089e+01
-2.008543e+01
-2.140328e+01
-2.278381e+01
-2.423739e+01
-2.581615e+01
-2.761187e+01
-2.986697e+01
0.000000e+00
-1.561881e-01
-4.441852e-01
-8.277475e-01
-1.249858e+00
-1.708966e+00
-2.212103e+00
-2.747500e+00
-3.319204e+00
-3.924967e+00
-4.564904e+00
-5.242208e+00
-5.955140e+00
-6.705944e+00
-7.494798e+00
-8.321509e+00
-9.187244e+00
-1.009158e+01
-1.103503e+01
-1.201778e+01
-1.303986e+01
-1.410146e+01
-1.520367e+01
-1.634573e+01
-1.752806e+01
-1.875145e+01
-2.001820e+01
-2.134050e+01
-2.272541e+01
-2.419948e+01
-2.581980e+01
-2.750638e+01
-2.925782e+01
0.000000e+00
-1.984387e-01
-4.434724e-01
-8.216076e-01
-1.213556e+00
-1.663242e+00
-2.164210e+00
-2.689478e+00
-3.264639e+00
-3.866458e+00
-4.507713e+00
-5.185111e+00
-5.897852e+00
-6.649546e+00
-7.437946e+00
-8.265202e+00
-9.130642e+00
-1.003502e+01
-1.097836e+01
-1.196093e+01
-1.298327e+01
-1.404441e+01
-1.514630e+01
-1.628888e+01
-1.747335e+01
-1.870195e+01
-1.997481e+01
-2.130402e+01
-2.269830e+01
-2.419031e+01
-2.580410e+01
-2.735498e+01
-2.875674e+01
0.000000e+00
-2.154977e-01
-4.795368e-01
-8.188313e-01
-1.211096e+00
-1.643614e+00
-2.135167e+00
-2.655265e+00
-3.225303e+00
-3.826917e+00
-4.466420e+00
-5.145081e+00
-5.857158e+00
-6.609927e+00
-7.398189e+00
-8.225602e+00
-9.091187e+00
-9.995314e+00
-1.093884e+01
-1.192143e+01
-1.294410e+01
-1.400605e+01
-1.510899e+01
-1.625348e+01
-1.744119e+01
-1.867361e+01
-1.995343e+01
-2.128700e+01
-2.268337e+01
-2.416877e+01
-2.570665e+01
-2.715306e+01
-2.841689e+01
0.000000e+00
-2.227724e-01
-4.954341e-01
-8.244996e-01
-1.206258e+00
-1.636484e+00
-2.114444e+00
-2.634997e+00
-3.197481e+00
-3.799120e+00
-4.438264e+00
-5.115638e+00
-5.829824e+00
-6.581717e+00
-7.371303e+00
-8.198777e+00
-9.064794e+00
-9.969548e+00
-1.091362e+01
-1.189740e+01
-1.292127e+01
-1.398553e+01
-1.509093e+01
-1.623836e+01
-1.742882e+01
-1.866344e+01
-1.994538e+01
-2.127883e+01
-2.266297e+01
-2.410943e+01
-2.555266e+01
-2.691928e+01
-2.811810e+01
0.000000e+00
-2.265087e-01
-5.015222e-01
-8.277032e-01
-1.204716e+00
-1.630740e+00
-2.103741e+00
-2.621247e+00
-3.181162e+00
-3.781418e+00
-4.420653e+00
-5.097978e+00
-5.812971e+00
-6.565517e+00
-7.355746e+00
-8.183998e+00
-9.050698e+00
-9.956385e+00
-1.090161e+01
-1.188694e+01
-1.291287e+01
-1.397975e+01
-1.508801e+01
-1.623811e+01
-1.743070e+01
-1.866572e+01
-1.994376e+01
-2.127246e+01
-2.262633e+01
-2.402134e+01
-2.539644e+01
-2.669401e+01
-2.783130e+01
0.000000e+00
-2.279039e-01
-5.038058e-01
-8.291629e-01
-1.204215e+00
-1.628011e+00
-2.098896e+00
-2.614842e+00
-3.173772e+00
-3.773780e+00
-4.413313e+00
-5.091323e+00
-5.807169e+00
-6.560605e+00
-7.351693e+00
-8.180781e+00
-9.048402e+00
-9.955130e+00
-1.090160e+01
-1.188851e+01
-1.291650e+01
-1.398587e+01
-1.509648e+01
-1.624845e+01
-1.744169e+01
-1.867611e+01
-1.994560e+01
-2.125537e+01
-2.257585e+01
-2.391770e+01
-2.524184e+01
-2.647989e+01
-2.756033e+01
0.000000e+00
-2.281786e-01
-5.043580e-01
-8.297030e-01
-1.204531e+00
-1.628122e+00
-2.098981e+00
-2.615177e+00
-3.174664e+00
-3.775505e+00
-4.416085e+00
-5.095232e+00
-5.812242e+00
-6.566758e+00
-7.358784e+00
-8.188761e+00
-9.057355e+00
-9.965128e+00
-1.091263e+01
-1.190066e+01
-1.293015e+01
-1.400134e+01
-1.511368e+01
-1.626583e+01
-1.745897e+01
-1.868785e+01
-1.994248e+01
-2.122419e+01
-2.251969e+01
-2.381112e+01
-2.507622e+01
-2.624133e+01
-2.723861e+01
0.000000e+00
-2.276915e-01
-5.037385e-01
-8.296422e-01
-1.205705e+00
-1.630996e+00
-2.103813e+00
-2.622066e+00
-3.183588e+00
-3.786364e+00
-4.428689e+00
-5.109395e+00
-5.827821e+00
-6.583596e+00
-7.376602e+00
-8.207450e+00
-9.077111e+00
-9.985942e+00
-1.093415e+01
-1.192248e+01
-1.295232e+01
-1.402437e+01
-1.513665e+01
-1.628935e+01
-1.747521e+01
-1.869254e+01
-1.993081e+01
-2.118941e+01
-2.245613e+01
-2.370967e+01
-2.491308e+01
-2.601478e+01
-2.697463e+01
0.000000e+00
-2.261232e-01
-5.014200e-01
-8.286841e-01
-1.207767e+00
-1.636833e+00
-2.113735e+00
-2.635844e+00
-3.200844e+00
-3.806488e+00
-4.451076e+00
-5.133495e+00
-5.853379e+00
-6.610451e+00
-7.404448e+00
-8.236327e+00
-9.107305e+00
-1.001726e+01
-1.096584e+01
-1.195372e+01
-1.298212e+01
-1.405356e+01
-1.516363e+01
-1.631057e+01
-1.748624e+01
-1.868970e+01
-1.991659e+01
-2.115433e+01
-2.239427e+01
-2.360864e+01
-2.476667e+01
-2.583511e+01
-2.678257e+01
0.000000e+00
-2.222448e-01
-4.953406e-01
-8.260078e-01
-1.210969e+00
-1.646114e+00
-2.129784e+00
-2.657462e+00
-3.227290e+00
-3.836594e+00
-4.483465e+00
-5.167649e+00
-5.888497e+00
-6.646581e+00
-7.441559e+00
-8.274824e+00
-9.147407e+00
-1.005791e+01
-1.100645e+01
-1.199297e+01
-1.301886e+01
-1.408607e+01
-1.518987e+01
-1.632737e+01
-1.749419e+01
-1.868779e+01
-1.990327e+01
-2.112746e+01
-2.234054e+01
-2.352506e+01
-2.465390e+01
-2.570564e+01
-2.665627e+01
0.000000e+00
-2.146872e-01
-4.793535e-01
-8.209278e-01
-1.217603e+00
-1.657844e+00
-2.155888e+00
-2.687100e+00
-3.265008e+00
-3.877099e+00
-4.525913e+00
-5.212400e+00
-5.932871e+00
-6.692854e+00
-7.488499e+00
-8.323978e+00
-9.197354e+00
-1.010696e+01
-1.105400e+01
-1.203748e+01
-1.305979e+01
-1.412025e+01
-1.521556e+01
-1.634447e+01
-1.750501e+01
-1.869407e+01
-1.990249e+01
-2.111221e+01
-2.230518e+01
-2.346492e+01
-2.457489e+01
-2.561944e+01
-2.658437e+01
0.000000e+00
-1.968245e-01
-4.425792e-01
-8.239482e-01
-1.222534e+00
-1.681172e+00
-2.192803e+00
-2.728986e+00
-3.315220e+00
-3.927289e+00
-4.578812e+00
-5.264920e+00
-5.987106e+00
-6.748372e+00
-7.546557e+00
-8.383497e+00
-9.256379e+00
-1.016467e+01
-1.110886e+01
-1.208893e+01
-1.310573e+01
-1.415837e+01
-1.524512e+01
-1.636809e+01
-1.752899e+01
-1.871688e+01
-1.991815e+01
-2.111256e+01
-2.228732e+01
-2.342869e+01
-2.452510e+01
-2.556808e+01
-2.655324e+01
0.000000e+00
-1.534753e-01
-4.416458e-01
-8.286036e-01
-1.258916e+00
-1.728550e+00
-2.244283e+00
-2.791707e+00
-3.375093e+00
-3.990939e+00
-4.640270e+00
-5.326562e+00
-6.049759e+00
-6.812053e+00
-7.612392e+00
-8.449075e+00
-9.321423e+00
-1.022854e+01
-1.117121e+01
-1.214855e+01
-1.316048e+01
-1.420639e+01
-1.528733e+01
-1.641065e+01
-1.757267e+01
-1.875691e+01
-1.994579e+01
-2.112624e+01
-2.228575e+01
-2.341297e+01
-2.449936e+01
-2.554232e+01
-2.654793e+01
0.000000e+00
-1.754001e-01
-4.994138e-01
-8.852300e-01
-1.325545e+00
-1.798131e+00
-2.315673e+00
-2.865714e+00
-3.448259e+00
-4.065085e+00
-4.713170e+00
-5.399565e+00
-6.122529e+00
-6.885480e+00
-7.686007e+00
-8.522272e+00
-9.393758e+00
-1.029985e+01
-1.124151e+01
-1.221738e+01
-1.322706e+01
-1.427033e+01
-1.535134e+01
-1.647510e+01
-1.763255e+01
-1.880598e+01
-1.998204e+01
-2.114938e+01
-2.229633e+01
-2.341243e+01
-2.449101e+01
-2.553305e+01
-2.655264e+01
0.000000e+00
-2.748184e-01
-5.805170e-01
-9.735418e-01
-1.407384e+00
-1.882671e+00
-2.399918e+00
-2.948261e+00
-3.532331e+00
-4.147881e+00
-4.797160e+00
-5.483187e+00
-6.206227e+00
-6.968909e+00
-7.768585e+00
-8.604570e+00
-9.475419e+00
-1.038115e+01
-1.132200e+01
-1.229732e+01
-1.330640e+01
-1.435025e+01