TITLE = "Solution"
VARIABLES = x, y, u, v, psiu, psiv, t, stress
ZONE T="structure" N=561 E=512 F=FEBLOCK ET=QUADRILATERAL VARLOCATION=([7,8]=cellcentered)
0.000000e+00
6.250000e+00
1.250000e+01
1.875000e+01
2.500000e+01
3.125000e+01
3.750000e+01
4.375000e+01
5.000000e+01
5.625000e+01
6.250000e+01
6.875000e+01
7.500000e+01
8.125000e+01
8.750000e+01
9.375000e+01
1.000000e+02
1.062500e+02
1.125000e+02
1.187500e+02
1.250000e+02
1.312500e+02
1.375000e+02
1.437500e+02
1.500000e+02
1.562500e+02
1.625000e+02
1.687500e+02
1.750000e+02
1.812500e+02
1.875000e+02
1.937500e+02
2.000000e+02
0.000000e+00
6.250000e+00
1.250000e+01
1.875000e+01
2.500000e+01
3.125000e+01
3.750000e+01
4.375000e+01
5.000000e+01
5.625000e+01
6.250000e+01
6.875000e+01
7.500000e+01
8.125000e+01
8.750000e+01
9.375000e+01
1.000000e+02
1.062500e+02
1.125000e+02
1.187500e+02
1.250000e+02
1.312500e+02
1.375000e+02
1.437500e+02
1.500000e+02
1.562500e+02
1.625000e+02
1.687500e+02
1.750000e+02
1.812500e+02
1.875000e+02
1.937500e+02
2.000000e+02
0.000000e+00
6.250000e+00
1.250000e+01
1.875000e+01
2.500000e+01
3.125000e+01
3.750000e+01
4.375000e+01
5.000000e+01
5.625000e+01
6.250000e+01
6.875000e+01
7.500000e+01
8.125000e+01
8.750000e+01
9.375000e+01
1.000000e+02
1.062500e+02
1.125000e+02
1.187500e+02
1.250000e+02
1.312500e+02
1.375000e+02
1.437500e+02
1.500000e+02
1.562500e+02
1.625000e+02
1.687500e+02
1.750000e+02
1.812500e+02
1.875000e+02
1.937500e+02
2.000000e+02
0.000000e+00
6.250000e+00
1.250000e+01
1.875000e+01
2.500000e+01
3.125000e+01
3.750000e+01
4.375000e+01
5.000000e+01
5.625000e+01
6.250000e+01
6.875000e+01
7.500000e+01
8.125000e+01
8.750000e+01
9.375000e+01
1.000000e+02
1.062500e+02
1.125000e+02
1.187500e+02
1.250000e+02
1.312500e+02
1.375000e+02
1.437500e+02
1.500000e+02
1.562500e+02
1.625000e+02
1.687500e+02
1.750000e+02
1.812500e+02
1.875000e+02
1.937500e+02
2.000000e+02
0.000000e+00
6.250000e+00
1.250000e+01
1.875000e+01
2.500000e+01
3.125000e+01
3.750000e+01
4.375000e+01
5.000000e+01
5.625000e+01
6.250000e+01
6.875000e+01
7.500000e+01
8.125000e+01
8.750000e+01
9.375000e+01
1.000000e+02
1.062500e+02
1.125000e+02
1.187500e+02
1.250000e+02
1.312500e+02
1.375000e+02
1.437500e+02
1.500000e+02
1.562500e+02
1.625000e+02
1.687500e+02
1.750000e+02
1.812500e+02
1.875000e+02
1.937500e+02
2.000000e+02
0.000000e+00
6.250000e+00
1.250000e+01
1.875000e+01
2.500000e+01
3.125000e+01
3.750000e+01
4.375000e+01
5.000000e+01
5.625000e+01
6.250000e+01
6.875000e+01
7.500000e+01
8.125000e+01
8.750000e+01
9.375000e+01
1.000000e+02
1.062500e+02
1.125000e+02
1.187500e+02
1.250000e+02
1.312500e+02
1.375000e+02
1.437500e+02
1.500000e+02
1.562500e+02
1.625000e+02
1.687500e+02
1.750000e+02
1.812500e+02
1.875000e+02
1.937500e+02
2.000000e+02
0.000000e+00
6.250000e+00
1.250000e+01
1.875000e+01
2.500000e+01
3.125000e+01
3.750000e+01
4.375000e+01
5.000000e+01
5.625000e+01
6.250000e+01
6.875000e+01
7.500000e+01
8.125000e+01
8.750000e+01
9.375000e+01
1.000000e+02
1.062500e+02
1.125000e+02
1.187500e+02
1.250000e+02
1.312500e+02
1.375000e+02
1.437500e+02
1.500000e+02
1.562500e+02
1.625000e+02
1.687500e+02
1.750000e+02
1.812500e+02
1.875000e+02
1.937500e+02
2.000000e+02
0.000000e+00
6.250000e+00
1.250000e+01
1.875000e+01
2.500000e+01
3.125000e+01
3.750000e+01
4.375000e+01
5.000000e+01
5.625000e+01
6.250000e+01
6.875000e+01
7.500000e+01
8.125000e+01
8.750000e+01
9.375000e+01
1.000000e+02
1.062500e+02
1.125000e+02
1.187500e+02
1.250000e+02
1.312500e+02
1.375000e+02
1.437500e+02
1.500000e+02
1.562500e+02
1.625000e+02
1.687500e+02
1.750000e+02
1.812500e+02
1.875000e+02
1.937500e+02
2.000000e+02
0.000000e+00
6.250000e+00
1.250000e+01
1.875000e+01
2.500000e+01
3.125000e+01
3.750000e+01
4.375000e+01
5.000000e+01
5.625000e+01
6.250000e+01
6.875000e+01
7.500000e+01
8.125000e+01
8.750000e+01
9.375000e+01
1.000000e+02
1.062500e+02
1.125000e+02
1.187500e+02
1.250000e+02
1.312500e+02
1.375000e+02
1.437500e+02
1.500000e+02
1.562500e+02
1.625000e+02
1.687500e+02
1.750000e+02
1.812500e+02
1.875000e+02
1.937500e+02
2.000000e+02
0.000000e+00
6.250000e+00
1.250000e+01
1.875000e+01
2.500000e+01
3.125000e+01
3.750000e+01
4.375000e+01
5.000000e+01
5.625000e+01
6.250000e+01
6.875000e+01
7.500000e+01
8.125000e+01
8.750000e+01
9.375000e+01
1.000000e+02
1.062500e+02
1.125000e+02
1.187500e+02
1.250000e+02
1.312500e+02
1.375000e+02
1.437500e+02
1.500000e+02
1.562500e+02
1.625000e+02
1.687500e+02
1.750000e+02
1.812500e+02
1.875000e+02
1.937500e+02
2.000000e+02
0.000000e+00
6.250000e+00
1.250000e+01
1.875000e+01
2.500000e+01
3.125000e+01
3.750000e+01
4.375000e+01
5.000000e+01
5.625000e+01
6.250000e+01
6.875000e+01
7.500000e+01
8.125000e+01
8.750000e+01
9.375000e+01
1.000000e+02
1.062500e+02
1.125000e+02
1.187500e+02
1.250000e+02
1.312500e+02
1.375000e+02
1.437500e+02
1.500000e+02
1.562500e+02
1.625000e+02
1.687500e+02
1.750000e+02
1.812500e+02
1.875000e+02
1.937500e+02
2.000000e+02
0.000000e+00
6.250000e+00
1.250000e+01
1.875000e+01
2.500000e+01
3.125000e+01
3.750000e+01
4.375000e+01
5.000000e+01
5.625000e+01
6.250000e+01
6.875000e+01
7.500000e+01
8.125000e+01
8.750000e+01
9.375000e+01
1.000000e+02
1.062500e+02
1.125000e+02
1.187500e+02
1.250000e+02
1.312500e+02
1.375000e+02
1.437500e+02
1.500000e+02
1.562500e+02
1.625000e+02
1.687500e+02
1.750000e+02
1.812500e+02
1.875000e+02
1.937500e+02
2.000000e+02
0.000000e+00
6.250000e+00
1.250000e+01
1.875000e+01
2.500000e+01
3.125000e+01
3.750000e+01
4.375000e+01
5.000000e+01
5.625000e+01
6.250000e+01
6.875000e+01
7.500000e+01
8.125000e+01
8.750000e+01
9.375000e+01
1.000000e+02
1.062500e+02
1.125000e+02
1.187500e+02
1.250000e+02
1.312500e+02
1.375000e+02
1.437500e+02
1.500000e+02
1.562500e+02
1.625000e+02
1.687500e+02
1.750000e+02
1.812500e+02
1.875000e+02
1.937500e+02
2.000000e+02
0.000000e+00
6.250000e+00
1.250000e+01
1.875000e+01
2.500000e+01
3.125000e+01
3.750000e+01
4.375000e+01
5.000000e+01
5.625000e+01
6.250000e+01
6.875000e+01
7.500000e+01
8.125000e+01
8.750000e+01
9.375000e+01
1.000000e+02
1.062500e+02
1.125000e+02
1.187500e+02
1.250000e+02
1.312500e+02
1.375000e+02
1.437500e+02
1.500000e+02
1.562500e+02
1.625000e+02
1.687500e+02
1.750000e+02
1.812500e+02
1.875000e+02
1.937500e+02
2.000000e+02
0.000000e+00
6.250000e+00
1.250000e+01
1.875000e+01
2.500000e+01
3.125000e+01
3.750000e+01
4.375000e+01
5.000000e+01
5.625000e+01
6.250000e+01
6.875000e+01
7.500000e+01
8.125000e+01
8.750000e+01
9.375000e+01
1.000000e+02
1.062500e+02
1.125000e+02
1.187500e+02
1.250000e+02
1.312500e+02
1.375000e+02
1.437500e+02
1.500000e+02
1.562500e+02
1.625000e+02
1.687500e+02
1.750000e+02
1.812500e+02
1.875000e+02
1.937500e+02
2.000000e+02
0.000000e+00
6.250000e+00
1.250000e+01
1.875000e+01
2.500000e+01
3.125000e+01
3.750000e+01
4.375000e+01
5.000000e+01
5.625000e+01
6.250000e+01
6.875000e+01
7.500000e+01
8.125000e+01
8.750000e+01
9.375000e+01
1.000000e+02
1.062500e+02
1.125000e+02
1.187500e+02
1.250000e+02
1.312500e+02
1.375000e+02
1.437500e+02
1.500000e+02
1.562500e+02
1.625000e+02
1.687500e+02
1.750000e+02
1.812500e+02
1.875000e+02
1.937500e+02
2.000000e+02
0.000000e+00
6.250000e+00
1.250000e+01
1.875000e+01
2.500000e+01
3.125000e+01
3.750000e+01
4.375000e+01
5.000000e+01
5.625000e+01
6.250000e+01
6.875000e+01
7.500000e+01
8.125000e+01
8.750000e+01
9.375000e+01
1.000000e+02
1.062500e+02
1.125000e+02
1.187500e+02
1.250000e+02
1.312500e+02
1.375000e+02
1.437500e+02
1.500000e+02
1.562500e+02
1.625000e+02
1.687500e+02
1.750000e+02
1.812500e+02
1.875000e+02
1.937500e+02
2.000000e+02
0.000000e+00
0.000000e+00
0.000000e+00
0.000000e+00
0.000000e+00
0.000000e+00
0.000000e+00
0.000000e+00
0.000000e+00
0.000000e+00
0.000000e+00
0.000000e+00
0.000000e+00
0.000000e+00
0.000000e+00
0.000000e+00
0.000000e+00
0.000000e+00
0.000000e+00
0.000000e+00
0.000000e+00
0.000000e+00
0.000000e+00
0.000000e+00
0.000000e+00
0.000000e+00
0.000000e+00
0.000000e+00
0.000000e+00
0.000000e+00
0.000000e+00
0.000000e+00
0.000000e+00
6.250000e+00
6.250000e+00
6.250000e+00
6.250000e+00
6.250000e+00
6.250000e+00
6.250000e+00
6.250000e+00
6.250000e+00
6.250000e+00
6.250000e+00
6.250000e+00
6.250000e+00
6.250000e+00
6.250000e+00
6.250000e+00
6.250000e+00
6.250000e+00
6.250000e+00
6.250000e+00
6.250000e+00
6.250000e+00
6.250000e+00
6.250000e+00
6.250000e+00
6.250000e+00
6.250000e+00
6.250000e+00
6.250000e+00
6.250000e+00
6.250000e+00
6.250000e+00
6.250000e+00
1.250000e+01
1.250000e+01
1.250000e+01
1.250000e+01
1.250000e+01
1.250000e+01
1.250000e+01
1.250000e+01
1.250000e+01
1.250000e+01
1.250000e+01
1.250000e+01
1.250000e+01
1.250000e+01
1.250000e+01
1.250000e+01
1.250000e+01
1.250000e+01
1.250000e+01
1.250000e+01
1.250000e+01
1.250000e+01
1.250000e+01
1.250000e+01
1.250000e+01
1.250000e+01
1.250000e+01
1.250000e+01
1.250000e+01
1.250000e+01
1.250000e+01
1.250000e+01
1.250000e+01
1.875000e+01
1.875000e+01
1.875000e+01
1.875000e+01
1.875000e+01
1.875000e+01
1.875000e+01
1.875000e+01
1.875000e+01
1.875000e+01
1.875000e+01
1.875000e+01
1.875000e+01
1.875000e+01
1.875000e+01
1.875000e+01
1.875000e+01
1.875000e+01
1.875000e+01
1.875000e+01
1.875000e+01
1.875000e+01
1.875000e+01
1.875000e+01
1.875000e+01
1.875000e+01
1.875000e+01
1.875000e+01
1.875000e+01
1.875000e+01
1.875000e+01
1.875000e+01
1.875000e+01
2.500000e+01
2.500000e+01
2.500000e+01
2.500000e+01
2.500000e+01
2.500000e+01
2.500000e+01
2.500000e+01
2.500000e+01
2.500000e+01
2.500000e+01
2.500000e+01
2.500000e+01
2.500000e+01
2.500000e+01
2.500000e+01
2.500000e+01
2.500000e+01
2.500000e+01
2.500000e+01
2.500000e+01
2.500000e+01
2.500000e+01
2.500000e+01
2.500000e+01
2.500000e+01
2.500000e+01
2.500000e+01
2.500000e+01
2.500000e+01
2.500000e+01
2.500000e+01
2.500000e+01
3.125000e+01
3.125000e+01
3.125000e+01
3.125000e+01
3.125000e+01
3.125000e+01
3.125000e+01
3.125000e+01
3.125000e+01
3.125000e+01
3.125000e+01
3.125000e+01
3.125000e+01
3.125000e+01
3.125000e+01
3.125000e+01
3.125000e+01
3.125000e+01
3.125000e+01
3.125000e+01
3.125000e+01
3.125000e+01
3.125000e+01
3.125000e+01
3.125000e+01
3.125000e+01
3.125000e+01
3.125000e+01
3.125000e+01
3.125000e+01
3.125000e+01
3.125000e+01
3.125000e+01
3.750000e+01
3.750000e+01
3.750000e+01
3.750000e+01
3.750000e+01
3.750000e+01
3.750000e+01
3.750000e+01
3.750000e+01
3.750000e+01
3.750000e+01
3.750000e+01
3.750000e+01
3.750000e+01
3.750000e+01
3.750000e+01
3.750000e+01
3.750000e+01
3.750000e+01
3.750000e+01
3.750000e+01
3.750000e+01
3.750000e+01
3.750000e+01
3.750000e+01
3.750000e+01
3.750000e+01
3.750000e+01
3.750000e+01
3.750000e+01
3.750000e+01
3.750000e+01
3.750000e+01
4.375000e+01
4.375000e+01
4.375000e+01
4.375000e+01
4.375000e+01
4.375000e+01
4.375000e+01
4.375000e+01
4.375000e+01
4.375000e+01
4.375000e+01
4.375000e+01
4.375000e+01
4.375000e+01
4.375000e+01
4.375000e+01
4.375000e+01
4.375000e+01
4.375000e+01
4.375000e+01
4.375000e+01
4.375000e+01
4.375000e+01
4.375000e+01
4.375000e+01
4.375000e+01
4.375000e+01
4.375000e+01
4.375000e+01
4.375000e+01
4.375000e+01
4.375000e+01
4.375000e+01
5.000000e+01
5.000000e+01
5.000000e+01
5.000000e+01
5.000000e+01
5.000000e+01
5.000000e+01
5.000000e+01
5.000000e+01
5.000000e+01
5.000000e+01
5.000000e+01
5.000000e+01
5.000000e+01
5.000000e+01
5.000000e+01
5.000000e+01
5.000000e+01
5.000000e+01
5.000000e+01
5.000000e+01
5.000000e+01
5.000000e+01
5.000000e+01
5.000000e+01
5.000000e+01
5.000000e+01
5.000000e+01
5.000000e+01
5.000000e+01
5.000000e+01
5.000000e+01
5.000000e+01
5.625000e+01
5.625000e+01
5.625000e+01
5.625000e+01
5.625000e+01
5.625000e+01
5.625000e+01
5.625000e+01
5.625000e+01
5.625000e+01
5.625000e+01
5.625000e+01
5.625000e+01
5.625000e+01
5.625000e+01
5.625000e+01
5.625000e+01
5.625000e+01
5.625000e+01
5.625000e+01
5.625000e+01
5.625000e+01
5.625000e+01
5.625000e+01
5.625000e+01
5.625000e+01
5.625000e+01
5.625000e+01
5.625000e+01
5.625000e+01
5.625000e+01
5.625000e+01
5.625000e+01
6.250000e+01
6.250000e+01
6.250000e+01
6.250000e+01
6.250000e+01
6.250000e+01
6.250000e+01
6.250000e+01
6.250000e+01
6.250000e+01
6.250000e+01
6.250000e+01
6.250000e+01
6.250000e+01
6.250000e+01
6.250000e+01
6.250000e+01
6.250000e+01
6.250000e+01
6.250000e+01
6.250000e+01
6.250000e+01
6.250000e+01
6.250000e+01
6.250000e+01
6.250000e+01
6.250000e+01
6.250000e+01
6.250000e+01
6.250000e+01
6.250000e+01
6.250000e+01
6.250000e+01
6.875000e+01
6.875000e+01
6.875000e+01
6.875000e+01
6.875000e+01
6.875000e+01
6.875000e+01
6.875000e+01
6.875000e+01
6.875000e+01
6.875000e+01
6.875000e+01
6.875000e+01
6.875000e+01
6.875000e+01
6.875000e+01
6.875000e+01
6.875000e+01
6.875000e+01
6.875000e+01
6.875000e+01
6.875000e+01
6.875000e+01
6.875000e+01
6.875000e+01
6.875000e+01
6.875000e+01
6.875000e+01
6.875000e+01
6.875000e+01
6.875000e+01
6.875000e+01
6.875000e+01
7.500000e+01
7.500000e+01
7.500000e+01
7.500000e+01
7.500000e+01
7.500000e+01
7.500000e+01
7.500000e+01
7.500000e+01
7.500000e+01
7.500000e+01
7.500000e+01
7.500000e+01
7.500000e+01
7.500000e+01
7.500000e+01
7.500000e+01
7.500000e+01
7.500000e+01
7.500000e+01
7.500000e+01
7.500000e+01
7.500000e+01
7.500000e+01
7.500000e+01
7.500000e+01
7.500000e+01
7.500000e+01
7.500000e+01
7.500000e+01
7.500000e+01
7.500000e+01
7.500000e+01
8.125000e+01
8.125000e+01
8.125000e+01
8.125000e+01
8.125000e+01
8.125000e+01
8.125000e+01
8.125000e+01
8.125000e+01
8.125000e+01
8.125000e+01
8.125000e+01
8.125000e+01
8.125000e+01
8.125000e+01
8.125000e+01
8.125000e+01
8.125000e+01
8.125000e+01
8.125000e+01
8.125000e+01
8.125000e+01
8.125000e+01
8.125000e+01
8.125000e+01
8.125000e+01
8.125000e+01
8.125000e+01
8.125000e+01
8.125000e+01
8.125000e+01
8.125000e+01
8.125000e+01
8.750000e+01
8.750000e+01
8.750000e+01
8.750000e+01
8.750000e+01
8.750000e+01
8.750000e+01
8.750000e+01
8.750000e+01
8.750000e+01
8.750000e+01
8.750000e+01
8.750000e+01
8.750000e+01
8.750000e+01
8.750000e+01
8.750000e+01
8.750000e+01
8.750000e+01
8.750000e+01
8.750000e+01
8.750000e+01
8.750000e+01
8.750000e+01
8.750000e+01
8.750000e+01
8.750000e+01
8.750000e+01
8.750000e+01
8.750000e+01
8.750000e+01
8.750000e+01
8.750000e+01
9.375000e+01
9.375000e+01
9.375000e+01
9.375000e+01
9.375000e+01
9.375000e+01
9.375000e+01
9.375000e+01
9.375000e+01
9.375000e+01
9.375000e+01
9.375000e+01
9.375000e+01
9.375000e+01
9.375000e+01
9.375000e+01
9.375000e+01
9.375000e+01
9.375000e+01
9.375000e+01
9.375000e+01
9.375000e+01
9.375000e+01
9.375000e+01
9.375000e+01
9.375000e+01
9.375000e+01
9.375000e+01
9.375000e+01
9.375000e+01
9.375000e+01
9.375000e+01
9.375000e+01
1.000000e+02
1.000000e+02
1.000000e+02
1.000000e+02
1.000000e+02
1.000000e+02
1.000000e+02
1.000000e+02
1.000000e+02
1.000000e+02
1.000000e+02
1.000000e+02
1.000000e+02
1.000000e+02
1.000000e+02
1.000000e+02
1.000000e+02
1.000000e+02
1.000000e+02
1.000000e+02
1.000000e+02
1.000000e+02
1.000000e+02
1.000000e+02
1.000000e+02
1.000000e+02
1.000000e+02
1.000000e+02
1.000000e+02
1.000000e+02
1.000000e+02
1.000000e+02
1.000000e+02
0.000000e+00
-4.492307e-01
-7.585804e-01
-1.089338e+00
-1.395397e+00
-1.693179e+00
-2.002189e+00
-2.297536e+00
-2.598279e+00
-2.897874e+00
-3.195973e+00
-3.496532e+00
-3.795609e+00
-4.095058e+00
-4.395145e+00
-4.694496e+00
-4.994363e+00
-5.294155e+00
-5.593772e+00
-5.893740e+00
-6.193538e+00
-6.493648e+00
-6.793352e+00
-7.093951e+00
-7.396296e+00
-7.700466e+00
-8.014722e+00
-8.336066e+00
-8.665212e+00
-9.042116e+00
-9.506318e+00
-9.920647e+00
-1.012799e+01
0.000000e+00
-2.335844e-01
-4.768317e-01
-7.408343e-01
-1.007848e+00
-1.261773e+00
-1.530362e+00
-1.790723e+00
-2.052643e+00
-2.317080e+00
-2.577363e+00
-2.840993e+00
-3.102618e+00
-3.364332e+00
-3.626729e+00
-3.887915e+00
-4.149747e+00
-4.411105e+00
-4.672239e+00
-4.933403e+00
-5.194178e+00
-5.455105e+00
-5.715465e+00
-5.976390e+00
-6.237169e+00
-6.496846e+00
-6.759226e+00
-7.018599e+00
-7.273954e+00
-7.538582e+00
-7.775512e+00
-7.870033e+00
-7.975380e+00
0.000000e+00
-1.214745e-01
-2.736791e-01
-4.715990e-01
-6.847549e-01
-8.903955e-01
-1.115387e+00
-1.336622e+00
-1.559599e+00
-1.786043e+00
-2.008648e+00
-2.234374e+00
-2.458633e+00
-2.683016e+00
-2.908073e+00
-3.132300e+00
-3.357190e+00
-3.581867e+00
-3.806470e+00
-4.031120e+00
-4.255420e+00
-4.479672e+00
-4.703179e+00
-4.925831e+00
-5.145833e+00
-5.360098e+00
-5.566793e+00
-5.760035e+00
-5.934153e+00
-6.079165e+00
-6.152568e+00
-6.155030e+00
-6.247578e+00
0.000000e+00
-1.024770e-01
-1.957834e-01
-3.404068e-01
-4.706441e-01
-6.289321e-01
-8.030187e-01
-9.766589e-01
-1.159585e+00
-1.342328e+00
-1.526838e+00
-1.713257e+00
-1.900019e+00
-2.087688e+00
-2.276326e+00
-2.465247e+00
-2.655085e+00
-2.845352e+00
-3.035819e+00
-3.226414e+00
-3.416307e+00
-3.605092e+00
-3.791201e+00
-3.972730e+00
-4.146993e+00
-4.309421e+00
-4.456191e+00
-4.581717e+00
-4.677483e+00
-4.732304e+00
-4.740158e+00
-4.752569e+00
-4.834000e+00
0.000000e+00
-9.040858e-02
-1.797073e-01
-2.730327e-01
-3.820029e-01
-5.003412e-01
-6.307107e-01
-7.658238e-01
-9.078387e-01
-1.051931e+00
-1.197828e+00
-1.346097e+00
-1.494076e+00
-1.643598e+00
-1.793201e+00
-1.943033e+00
-2.093296e+00
-2.243034e+00
-2.392457e+00
-2.540586e+00
-2.686618e+00
-2.829419e+00
-2.967061e+00
-3.097505e+00
-3.217902e+00
-3.324966e+00
-3.414693e+00
-3.482293e+00
-3.522920e+00
-3.535834e+00
-3.529843e+00
-3.558391e+00
-3.634103e+00
0.000000e+00
-7.212322e-02
-1.422326e-01
-2.159823e-01
-2.965124e-01
-3.842736e-01
-4.784688e-01
-5.788459e-01
-6.826390e-01
-7.896425e-01
-8.982273e-01
-1.007685e+00
-1.117959e+00
-1.228208e+00
-1.338592e+00
-1.448706e+00
-1.558275e+00
-1.667083e+00
-1.774473e+00
-1.879816e+00
-1.982001e+00
-2.079610e+00
-2.170901e+00
-2.253732e+00
-2.325847e+00
-2.384809e+00
-2.428110e+00
-2.453378e+00
-2.460249e+00
-2.449637e+00
-2.444204e+00
-2.474525e+00
-2.544490e+00
0.000000e+00
-4.970762e-02
-9.901587e-02
-1.497359e-01
-2.038962e-01
-2.621043e-01
-3.244628e-01
-3.903018e-01
-4.589247e-01
-5.293431e-01
-6.008844e-01
-6.729467e-01
-7.450851e-01
-8.170456e-01
-8.885235e-01
-9.593099e-01
-1.029120e+00
-1.097586e+00
-1.164224e+00
-1.228291e+00
-1.288774e+00
-1.344313e+00
-1.393264e+00
-1.433813e+00
-1.464116e+00
-1.482497e+00
-1.487707e+00
-1.478673e+00
-1.455302e+00
-1.426765e+00
-1.417580e+00
-1.447905e+00
-1.517747e+00
0.000000e+00
-2.602880e-02
-5.196679e-02
-7.851450e-02
-1.064072e-01
-1.360900e-01
-1.675698e-01
-2.006268e-01
-2.348214e-01
-2.697110e-01
-3.048421e-01
-3.398501e-01
-3.744422e-01
-4.083665e-01
-4.414119e-01
-4.733489e-01
-5.039293e-01
-5.328483e-01
-5.596982e-01
-5.839078e-01
-6.046497e-01
-6.207964e-01
-6.309728e-01
-6.337201e-01
-6.275872e-01
-6.112414e-01
-5.831922e-01
-5.425208e-01
-4.959493e-01
-4.546879e-01
-4.424172e-01
-4.738346e-01
-5.444901e-01
0.000000e+00
-1.645156e-03
-3.323321e-03
-4.976005e-03
-6.540376e-03
-7.942347e-03
-9.095640e-03
-9.901277e-03
-1.025231e-02
-1.003488e-02
-9.129453e-03
-7.410822e-03
-4.746600e-03
-9.933482e-04
4.010722e-03
1.044909e-02
1.852726e-02
2.847472e-02
4.056035e-02
5.513740e-02
7.272694e-02
9.409525e-02
1.202710e-01
1.523840e-01
1.915568e-01
2.396139e-01
2.980488e-01
3.632446e-01
4.242862e-01
4.660097e-01
4.743819e-01
4.403964e-01
3.703145e-01
0.000000e+00
2.280180e-02
4.544749e-02
6.875308e-02
9.358351e-02
1.205296e-01
1.497784e-01
1.813062e-01
2.148821e-01
2.502745e-01
2.872451e-01
3.256508e-01
3.654328e-01
4.066041e-01
4.492617e-01
4.935397e-01
5.396109e-01
5.876652e-01
6.378980e-01
6.905208e-01
7.457909e-01
8.040804e-01
8.659121e-01
9.321452e-01
1.004273e+00
1.082704e+00
1.164553e+00
1.243499e+00
1.307522e+00
1.344290e+00
1.344965e+00
1.309502e+00
1.250415e+00
0.000000e+00
4.666553e-02
9.285664e-02
1.405206e-01
1.917960e-01
2.474626e-01
3.078095e-01
3.723915e-01
4.407043e-01
5.119450e-01
5.856039e-01
6.612142e-01
7.384691e-01
8.172706e-01
8.975380e-01
9.793479e-01
1.062806e+00
1.148102e+00
1.235521e+00
1.325403e+00
1.418113e+00
1.513776e+00
1.612341e+00
1.713680e+00
1.816884e+00
1.919845e+00
2.017413e+00
2.100810e+00
2.161665e+00
2.192480e+00
2.191176e+00
2.162940e+00
2.119510e+00
0.000000e+00
6.936542e-02
1.366331e-01
2.075578e-01
2.854797e-01
3.709091e-01
4.634282e-01
5.629732e-01
6.670083e-01
7.755251e-01
8.870348e-01
1.000912e+00
1.117108e+00
1.234837e+00
1.354248e+00
1.475023e+00
1.596986e+00
1.720244e+00
1.844901e+00
1.971600e+00
2.101134e+00
2.233662e+00
2.367845e+00
2.500696e+00
2.629183e+00
2.749858e+00
2.856970e+00
2.943583e+00
3.003906e+00
3.036033e+00
3.040930e+00
3.023665e+00
2.995638e+00
0.000000e+00
8.808087e-02
1.747809e-01
2.656611e-01
3.719441e-01
4.882735e-01
6.171698e-01
7.517800e-01
8.945109e-01
1.040792e+00
1.190535e+00
1.344347e+00
1.499810e+00
1.658559e+00
1.819270e+00
1.981810e+00
2.146148e+00
2.311327e+00
2.477295e+00
2.643782e+00
2.810517e+00
2.976136e+00
3.138959e+00
3.296635e+00
3.445523e+00
3.581385e+00
3.698931e+00
3.792885e+00
3.860412e+00
3.900383e+00
3.914318e+00
3.907986e+00
3.893098e+00
0.000000e+00
1.007296e-01
1.925435e-01
3.343790e-01
4.623500e-01
6.182389e-01
7.907298e-01
9.635428e-01
1.146672e+00
1.331020e+00
1.518731e+00
1.710034e+00
1.903641e+00
2.100357e+00
2.300192e+00
2.502294e+00
2.706992e+00
2.913533e+00
3.120899e+00
3.328331e+00
3.533207e+00
3.732772e+00
3.925587e+00
4.110197e+00
4.283014e+00
4.438353e+00
4.570764e+00
4.676192e+00
4.752919e+00
4.801325e+00
4.824017e+00
4.827013e+00
4.822039e+00
0.000000e+00
1.214990e-01
2.734502e-01
4.701695e-01
6.811433e-01
8.848029e-01
1.107897e+00
1.327653e+00
1.549695e+00
1.776031e+00
1.999316e+00
2.226770e+00
2.453844e+00
2.682347e+00
2.912940e+00
3.143717e+00
3.376152e+00
3.609116e+00
3.842206e+00
4.075403e+00
4.306130e+00
4.532507e+00
4.754811e+00
4.970911e+00
5.172639e+00
5.350316e+00
5.497533e+00
5.612240e+00
5.695153e+00
5.748704e+00
5.776951e+00
5.786220e+00
5.787282e+00
0.000000e+00
2.337582e-01
4.771850e-01
7.411626e-01
1.007977e+00
1.261761e+00
1.530005e+00
1.789989e+00
2.051559e+00
2.315461e+00
2.575124e+00
2.838048e+00
3.098753e+00
3.359328e+00
3.620385e+00
3.879728e+00
4.139302e+00
4.397817e+00
4.654928e+00
4.911503e+00
5.166023e+00
5.418713e+00
5.671407e+00
5.919103e+00
6.147135e+00
6.342223e+00
6.498728e+00
6.616291e+00
6.697668e+00
6.747872e+00
6.773689e+00
6.783106e+00
6.785401e+00
0.000000e+00
4.489763e-01
7.589558e-01
1.090668e+00
1.398523e+00
1.698253e+00
2.008974e+00
2.305751e+00
2.607659e+00
2.907524e+00
3.205188e+00
3.504436e+00
3.800847e+00
4.096325e+00
4.390781e+00
4.682815e+00
4.973914e+00
5.263378e+00
5.550783e+00
5.837792e+00
6.123849e+00
6.410581e+00
6.698483e+00
6.977681e+00
7.228043e+00
7.435146e+00
7.593872e+00
7.704505e+00
7.771132e+00
7.801528e+00
7.807272e+00
7.802822e+00
7.800269e+00
0.000000e+00
-2.686675e-01
-5.546205e-01
-9.156679e-01
-1.313315e+00
-1.751441e+00
-2.231726e+00
-2.745735e+00
-3.298443e+00
-3.886997e+00
-4.512117e+00
-5.175347e+00
-5.875268e+00
-6.613360e+00
-7.389163e+00
-8.202796e+00
-9.054737e+00
-9.944698e+00
-1.087308e+01
-1.184002e+01
-1.284578e+01
-1.389067e+01
-1.497494e+01
-1.609921e+01
-1.726396e+01
-1.847183e+01
-1.972723e+01
-2.103559e+01
-2.240916e+01
-2.386516e+01
-2.542089e+01
-2.723831e+01
-2.979541e+01
0.000000e+00
-1.711585e-01
-4.745455e-01
-8.283977e-01
-1.230881e+00
-1.666954e+00
-2.147263e+00
-2.662472e+00
-3.214037e+00
-3.803270e+00
-4.428119e+00
-5.091269e+00
-5.791448e+00
-6.529350e+00
-7.305275e+00
-8.118935e+00
-8.970853e+00
-9.860894e+00
-1.078927e+01
-1.175623e+01
-1.276196e+01
-1.380689e+01
-1.489111e+01
-1.601518e+01
-1.717996e+01
-1.838691e+01
-1.964118e+01
-2.094954e+01
-2.232017e+01
-2.377067e+01
-2.534739e+01
-2.714817e+01
-2.941868e+01
0.000000e+00
-1.449253e-01
-4.166772e-01
-7.692620e-01
-1.164371e+00
-1.598417e+00
-2.077209e+00
-2.591375e+00
-3.142587e+00
-3.731538e+00
-4.356379e+00
-5.019399e+00
-5.719746e+00
-6.457562e+00
-7.233633e+00
-8.047317e+00
-8.899279e+00
-9.789440e+00
-1.071787e+01
-1.168496e+01
-1.269075e+01
-1.373583e+01
-1.482022e+01
-1.594478e+01
-1.711077e+01
-1.831926e+01
-1.957614e+01
-2.088796e+01
-2.226385e+01
-2.373542e+01
-2.534808e+01
-2.704310e+01
-2.880798e+01
0.000000e+00
-1.738514e-01
-4.095736e-01
-7.527168e-01
-1.125537e+00
-1.552703e+00
-2.027415e+00
-2.536195e+00
-3.087008e+00
-3.674199e+00
-4.298451e+00
-4.961414e+00
-5.661253e+00
-6.399197e+00
-7.175209e+00
-7.988842e+00
-8.840975e+00
-9.731184e+00
-1.065989e+01
-1.162736e+01
-1.263365e+01
-1.367954e+01
-1.476515e+01
-1.589163e+01
-1.706059e+01
-1.827354e+01
-1.953576e+01
-2.085378e+01
-2.223977e+01
-2.372679e+01
-2.533215e+01
-2.689007e+01
-2.830445e+01
0.000000e+00
-1.926305e-01
-4.364133e-01
-7.525988e-01
-1.119207e+00
-1.532667e+00
-1.998674e+00
-2.501592e+00
-3.048535e+00
-3.633611e+00
-4.256266e+00
-4.918865e+00
-5.618032e+00
-6.356106e+00
-7.132070e+00
-7.945829e+00
-8.798299e+00
-9.688799e+00
-1.061818e+01
-1.158652e+01
-1.259415e+01
-1.364184e+01
-1.472993e+01
-1.585961e+01
-1.703234e+01
-1.825028e+01
-1.951765e+01
-2.084031e+01
-2.222823e+01
-2.370347e+01
-2.524532e+01
-2.668641e+01
-2.794459e+01
0.000000e+00
-2.006387e-01
-4.510915e-01
-7.574105e-01
-1.115948e+00
-1.523842e+00
-1.979783e+00
-2.479556e+00
-3.021643e+00
-3.604534e+00
-4.226556e+00
-4.887834e+00
-5.587510e+00
-6.325504e+00
-7.101857e+00
-7.916343e+00
-8.769309e+00
-9.660862e+00
-1.059137e+01
-1.156132e+01
-1.257118e+01
-1.362158e+01
-1.471311e+01
-1.584651e+01
-1.702289e+01
-1.824417e+01
-1.951373e+01
-2.083519e+01
-2.221010e+01
-2.364853e+01
-2.509788e+01
-2.645778e+01
-2.763811e+01
0.000000e+00
-2.045563e-01
-4.571900e-01
-7.606006e-01
-1.114719e+00
-1.518135e+00
-1.969041e+00
-2.465205e+00
-3.004664e+00
-3.585739e+00
-4.207211e+00
-4.868221e+00
-5.568204e+00
-6.306807e+00
-7.083849e+00
-7.899310e+00
-8.753302e+00
-9.646102e+00
-1.057815e+01
-1.155003e+01
-1.256241e+01
-1.361590e+01
-1.471095e+01
-1.584785e+01
-1.702695e+01
-1.824904e+01
-1.951617e+01
-2.082926e+01
-2.217827e+01
-2.356604e+01
-2.493868e+01
-2.622708e+01
-2.734694e+01
0.000000e+00
-2.060940e-01
-4.596015e-01
-7.621662e-01
-1.114265e+00
-1.515247e+00
-1.963727e+00
-2.457933e+00
-2.996058e+00
-3.576485e+00
-4.197891e+00
-4.859294e+00
-5.559987e+00
-6.299519e+00
-7.077642e+00
-7.894283e+00
-8.749541e+00
-9.643701e+00
-1.057727e+01
-1.155098e+01
-1.256565e+01
-1.362193e+01
-1.472001e+01
-1.585955e+01
-1.703978e+01
-1.825984e+01
-1.951942e+01
-2.081616e+01
-2.213314e+01
-2.346888e+01
-2.477771e+01
-2.599921e+01
-2.706042e+01
0.000000e+00
-2.064313e-01
-4.601965e-01
-7.626497e-01
-1.114336e+00
-1.514818e+00
-1.962892e+00
-2.456927e+00
-2.995191e+00
-3.576081e+00
-4.198253e+00
-4.860654e+00
-5.562517e+00
-6.303330e+00
-7.082799e+00
-7.900810e+00
-8.757414e+00
-9.652865e+00
-1.058769e+01
-1.156273e+01
-1.257899e+01
-1.363722e+01
-1.473735e+01
-1.587805e+01
-1.705715e+01
-1.827162e+01
-1.951855e+01
-2.079333e+01
-2.207994e+01
-2.336439e+01
-2.461455e+01
-2.576931e+01
-2.676841e+01
0.000000e+00
-2.059059e-01
-4.594547e-01
-7.622927e-01
-1.114911e+00
-1.516688e+00
-1.966268e+00
-2.461899e+00
-3.001781e+00
-3.584286e+00
-4.208061e+00
-4.872067e+00
-5.575523e+00
-6.317912e+00
-7.098925e+00
-7.918405e+00
-8.776337e+00
-9.672892e+00
-1.060855e+01
-1.158418e+01
-1.260101e+01
-1.365993e+01
-1.476058e+01
-1.590016e+01
-1.707444e+01
-1.827993e+01
-1.951213e+01
-2.076441e+01
-2.202105e+01
-2.326183e+01
-2.445674e+01
-2.555647e+01
-2.651562e+01
0.000000e+00
-2.041746e-01
-4.568890e-01
-7.608371e-01
-1.115974e+00
-1.520963e+00
-1.974066e+00
-2.473077e+00
-3.016033e+00
-3.601232e+00
-4.227380e+00
-4.893495e+00
-5.598866e+00
-6.343011e+00
-7.125634e+00
-7.946550e+00
-8.805654e+00
-9.703016e+00
-1.063899e+01
-1.161445e+01
-1.263071e+01
-1.368864e+01
-1.478717e+01
-1.592221e+01
-1.708904e+01
-1.828445e+01
-1.950299e+01
-2.073409e+01
-2.196259e+01
-2.316602e+01
-2.431767e+01
-2.538259e+01
-2.632617e+01
0.000000e+00
-2.000429e-01
-4.505991e-01
-7.577190e-01
-1.117705e+00
-1.527911e+00
-1.987169e+00
-2.491207e+00
-3.038530e+00
-3.627563e+00
-4.256499e+00
-4.925240e+00
-5.632716e+00
-6.378630e+00
-7.162855e+00
-7.984909e+00
-8.844795e+00
-9.742416e+00
-1.067798e+01
-1.165242e+01
-1.266689e+01
-1.372144e+01
-1.481464e+01
-1.594301e+01
-1.710245e+01
-1.828912e+01
-1.949549e+01
-2.070864e+01
-2.191188e+01
-2.308574e+01
-2.420790e+01
-2.525406e+01
-2.619886e+01
0.000000e+00
-1.917552e-01
-4.356376e-01
-7.528992e-01
-1.121146e+00
-1.537700e+00
-2.008136e+00
-2.516726e+00
-3.070658e+00
-3.663889e+00
-4.295655e+00
-4.967935e+00
-5.677189e+00
-6.425219e+00
-7.210946e+00
-8.033732e+00
-8.893977e+00
-9.790994e+00
-1.072515e+01
-1.169741e+01
-1.270841e+01
-1.375730e+01
-1.484344e+01
-1.596538e+01
-1.711944e+01
-1.829981e+01
-1.949628e+01
-2.069378e+01
-2.187624e+01
-2.302709e+01
-2.412959e+01
-2.516749e+01
-2.612516e+01
0.000000e+00
-1.726096e-01
-4.087237e-01
-7.524435e-01
-1.127390e+00
-1.558070e+00
-2.038220e+00
-2.553924e+00
-3.113322e+00
-3.710464e+00
-4.345746e+00
-5.020437e+00
-5.732271e+00
-6.482016e+00
-7.269227e+00
-8.092731e+00
-8.952879e+00
-9.849043e+00
-1.078112e+01
-1.175026e+01
-1.275629e+01
-1.379851e+01
-1.487803e+01
-1.599547e+01
-1.714675e+01
-1.832254e+01
-1.950976e+01
-2.069309e+01
-2.185811e+01
-2.299111e+01
-2.407993e+01
-2.511552e+01
-2.609268e+01
0.000000e+00
-1.441535e-01
-4.158543e-01
-7.688172e-01
-1.165733e+00
-1.603526e+00
-2.088073e+00
-2.609793e+00
-3.170352e+00
-3.770203e+00
-4.407010e+00
-5.082858e+00
-5.796292e+00
-6.546952e+00
-7.335060e+00
-8.159033e+00
-9.019139e+00
-9.914776e+00
-1.084542e+01
-1.181183e+01
-1.281348e+01
-1.385048e+01
-1.492571e+01
-1.604072e+01
-1.718930e+01
-1.835904e+01
-1.953583e+01
-2.070598e+01
-2.185646e+01
-2.297546e+01
-2.405412e+01
-2.508934e+01
-2.608665e+01
0.000000e+00
-1.706078e-01
-4.735996e-01
-8.277275e-01
-1.231899e+00
-1.671785e+00
-2.157904e+00
-2.680869e+00
-3.242038e+00
-3.842444e+00
-4.479580e+00
-5.155907e+00
-5.869533e+00
-6.620608e+00
-7.408759e+00
-8.232742e+00
-9.092663e+00
-9.987753e+00
-1.091761e+01
-1.188238e+01
-1.288166e+01
-1.391660e+01
-1.499041e+01
-1.610297e+01
-1.724587e+01
-1.840620e+01
-1.957131e+01
-2.072894e+01
-2.186709e+01
-2.297505e+01
-2.404577e+01
-2.507986e+01
-2.609113e+01
0.000000e+00
-2.681888e-01
-5.538084e-01
-9.151639e-01
-1.314615e+00
-1.756517e+00
-2.242556e+00
-2.764318e+00
-3.326573e+00
-3.926174e+00
-4.563519e+00
-5.239775e+00
-5.952957e+00
-6.704013e+00
-7.491719e+00
-8.315358e+00
-9.174935e+00
-1.006943e+01
-1.099877e+01
-1.196289e+01
-1.296147e+01
-1.399646e+01