TITLE = "Solution"
VARIABLES = x, y, u, v, psiu, psiv, t, stress
ZONE T="structure" N=561 E=512 F=FEBLOCK ET=QUADRILATERAL VARLOCATION=([7,8]=cellcentered)
0.000000e+00
6.250000e+00
1.250000e+01
1.875000e+01
2.500000e+01
3.125000e+01
3.750000e+01
4.375000e+01
5.000000e+01
5.625000e+01
6.250000e+01
6.875000e+01
7.500000e+01
8.125000e+01
8.750000e+01
9.375000e+01
1.000000e+02
1.062500e+02
1.125000e+02
1.187500e+02
1.250000e+02
1.312500e+02
1.375000e+02
1.437500e+02
1.500000e+02
1.562500e+02
1.625000e+02
1.687500e+02
1.750000e+02
1.812500e+02
1.875000e+02
1.937500e+02
2.000000e+02
0.000000e+00
6.250000e+00
1.250000e+01
1.875000e+01
2.500000e+01
3.125000e+01
3.750000e+01
4.375000e+01
5.000000e+01
5.625000e+01
6.250000e+01
6.875000e+01
7.500000e+01
8.125000e+01
8.750000e+01
9.375000e+01
1.000000e+02
1.062500e+02
1.125000e+02
1.187500e+02
1.250000e+02
1.312500e+02
1.375000e+02
1.437500e+02
1.500000e+02
1.562500e+02
1.625000e+02
1.687500e+02
1.750000e+02
1.812500e+02
1.875000e+02
1.937500e+02
2.000000e+02
0.000000e+00
6.250000e+00
1.250000e+01
1.875000e+01
2.500000e+01
3.125000e+01
3.750000e+01
4.375000e+01
5.000000e+01
5.625000e+01
6.250000e+01
6.875000e+01
7.500000e+01
8.125000e+01
8.750000e+01
9.375000e+01
1.000000e+02
1.062500e+02
1.125000e+02
1.187500e+02
1.250000e+02
1.312500e+02
1.375000e+02
1.437500e+02
1.500000e+02
1.562500e+02
1.625000e+02
1.687500e+02
1.750000e+02
1.812500e+02
1.875000e+02
1.937500e+02
2.000000e+02
0.000000e+00
6.250000e+00
1.250000e+01
1.875000e+01
2.500000e+01
3.125000e+01
3.750000e+01
4.375000e+01
5.000000e+01
5.625000e+01
6.250000e+01
6.875000e+01
7.500000e+01
8.125000e+01
8.750000e+01
9.375000e+01
1.000000e+02
1.062500e+02
1.125000e+02
1.187500e+02
1.250000e+02
1.312500e+02
1.375000e+02
1.437500e+02
1.500000e+02
1.562500e+02
1.625000e+02
1.687500e+02
1.750000e+02
1.812500e+02
1.875000e+02
1.937500e+02
2.000000e+02
0.000000e+00
6.250000e+00
1.250000e+01
1.875000e+01
2.500000e+01
3.125000e+01
3.750000e+01
4.375000e+01
5.000000e+01
5.625000e+01
6.250000e+01
6.875000e+01
7.500000e+01
8.125000e+01
8.750000e+01
9.375000e+01
1.000000e+02
1.062500e+02
1.125000e+02
1.187500e+02
1.250000e+02
1.312500e+02
1.375000e+02
1.437500e+02
1.500000e+02
1.562500e+02
1.625000e+02
1.687500e+02
1.750000e+02
1.812500e+02
1.875000e+02
1.937500e+02
2.000000e+02
0.000000e+00
6.250000e+00
1.250000e+01
1.875000e+01
2.500000e+01
3.125000e+01
3.750000e+01
4.375000e+01
5.000000e+01
5.625000e+01
6.250000e+01
6.875000e+01
7.500000e+01
8.125000e+01
8.750000e+01
9.375000e+01
1.000000e+02
1.062500e+02
1.125000e+02
1.187500e+02
1.250000e+02
1.312500e+02
1.375000e+02
1.437500e+02
1.500000e+02
1.562500e+02
1.625000e+02
1.687500e+02
1.750000e+02
1.812500e+02
1.875000e+02
1.937500e+02
2.000000e+02
0.000000e+00
6.250000e+00
1.250000e+01
1.875000e+01
2.500000e+01
3.125000e+01
3.750000e+01
4.375000e+01
5.000000e+01
5.625000e+01
6.250000e+01
6.875000e+01
7.500000e+01
8.125000e+01
8.750000e+01
9.375000e+01
1.000000e+02
1.062500e+02
1.125000e+02
1.187500e+02
1.250000e+02
1.312500e+02
1.375000e+02
1.437500e+02
1.500000e+02
1.562500e+02
1.625000e+02
1.687500e+02
1.750000e+02
1.812500e+02
1.875000e+02
1.937500e+02
2.000000e+02
0.000000e+00
6.250000e+00
1.250000e+01
1.875000e+01
2.500000e+01
3.125000e+01
3.750000e+01
4.375000e+01
5.000000e+01
5.625000e+01
6.250000e+01
6.875000e+01
7.500000e+01
8.125000e+01
8.750000e+01
9.375000e+01
1.000000e+02
1.062500e+02
1.125000e+02
1.187500e+02
1.250000e+02
1.312500e+02
1.375000e+02
1.437500e+02
1.500000e+02
1.562500e+02
1.625000e+02
1.687500e+02
1.750000e+02
1.812500e+02
1.875000e+02
1.937500e+02
2.000000e+02
0.000000e+00
6.250000e+00
1.250000e+01
1.875000e+01
2.500000e+01
3.125000e+01
3.750000e+01
4.375000e+01
5.000000e+01
5.625000e+01
6.250000e+01
6.875000e+01
7.500000e+01
8.125000e+01
8.750000e+01
9.375000e+01
1.000000e+02
1.062500e+02
1.125000e+02
1.187500e+02
1.250000e+02
1.312500e+02
1.375000e+02
1.437500e+02
1.500000e+02
1.562500e+02
1.625000e+02
1.687500e+02
1.750000e+02
1.812500e+02
1.875000e+02
1.937500e+02
2.000000e+02
0.000000e+00
6.250000e+00
1.250000e+01
1.875000e+01
2.500000e+01
3.125000e+01
3.750000e+01
4.375000e+01
5.000000e+01
5.625000e+01
6.250000e+01
6.875000e+01
7.500000e+01
8.125000e+01
8.750000e+01
9.375000e+01
1.000000e+02
1.062500e+02
1.125000e+02
1.187500e+02
1.250000e+02
1.312500e+02
1.375000e+02
1.437500e+02
1.500000e+02
1.562500e+02
1.625000e+02
1.687500e+02
1.750000e+02
1.812500e+02
1.875000e+02
1.937500e+02
2.000000e+02
0.000000e+00
6.250000e+00
1.250000e+01
1.875000e+01
2.500000e+01
3.125000e+01
3.750000e+01
4.375000e+01
5.000000e+01
5.625000e+01
6.250000e+01
6.875000e+01
7.500000e+01
8.125000e+01
8.750000e+01
9.375000e+01
1.000000e+02
1.062500e+02
1.125000e+02
1.187500e+02
1.250000e+02
1.312500e+02
1.375000e+02
1.437500e+02
1.500000e+02
1.562500e+02
1.625000e+02
1.687500e+02
1.750000e+02
1.812500e+02
1.875000e+02
1.937500e+02
2.000000e+02
0.000000e+00
6.250000e+00
1.250000e+01
1.875000e+01
2.500000e+01
3.125000e+01
3.750000e+01
4.375000e+01
5.000000e+01
5.625000e+01
6.250000e+01
6.875000e+01
7.500000e+01
8.125000e+01
8.750000e+01
9.375000e+01
1.000000e+02
1.062500e+02
1.125000e+02
1.187500e+02
1.250000e+02
1.312500e+02
1.375000e+02
1.437500e+02
1.500000e+02
1.562500e+02
1.625000e+02
1.687500e+02
1.750000e+02
1.812500e+02
1.875000e+02
1.937500e+02
2.000000e+02
0.000000e+00
6.250000e+00
1.250000e+01
1.875000e+01
2.500000e+01
3.125000e+01
3.750000e+01
4.375000e+01
5.000000e+01
5.625000e+01
6.250000e+01
6.875000e+01
7.500000e+01
8.125000e+01
8.750000e+01
9.375000e+01
1.000000e+02
1.062500e+02
1.125000e+02
1.187500e+02
1.250000e+02
1.312500e+02
1.375000e+02
1.437500e+02
1.500000e+02
1.562500e+02
1.625000e+02
1.687500e+02
1.750000e+02
1.812500e+02
1.875000e+02
1.937500e+02
2.000000e+02
0.000000e+00
6.250000e+00
1.250000e+01
1.875000e+01
2.500000e+01
3.125000e+01
3.750000e+01
4.375000e+01
5.000000e+01
5.625000e+01
6.250000e+01
6.875000e+01
7.500000e+01
8.125000e+01
8.750000e+01
9.375000e+01
1.000000e+02
1.062500e+02
1.125000e+02
1.187500e+02
1.250000e+02
1.312500e+02
1.375000e+02
1.437500e+02
1.500000e+02
1.562500e+02
1.625000e+02
1.687500e+02
1.750000e+02
1.812500e+02
1.875000e+02
1.937500e+02
2.000000e+02
0.000000e+00
6.250000e+00
1.250000e+01
1.875000e+01
2.500000e+01
3.125000e+01
3.750000e+01
4.375000e+01
5.000000e+01
5.625000e+01
6.250000e+01
6.875000e+01
7.500000e+01
8.125000e+01
8.750000e+01
9.375000e+01
1.000000e+02
1.062500e+02
1.125000e+02
1.187500e+02
1.250000e+02
1.312500e+02
1.375000e+02
1.437500e+02
1.500000e+02
1.562500e+02
1.625000e+02
1.687500e+02
1.750000e+02
1.812500e+02
1.875000e+02
1.937500e+02
2.000000e+02
0.000000e+00
6.250000e+00
1.250000e+01
1.875000e+01
2.500000e+01
3.125000e+01
3.750000e+01
4.375000e+01
5.000000e+01
5.625000e+01
6.250000e+01
6.875000e+01
7.500000e+01
8.125000e+01
8.750000e+01
9.375000e+01
1.000000e+02
1.062500e+02
1.125000e+02
1.187500e+02
1.250000e+02
1.312500e+02
1.375000e+02
1.437500e+02
1.500000e+02
1.562500e+02
1.625000e+02
1.687500e+02
1.750000e+02
1.812500e+02
1.875000e+02
1.937500e+02
2.000000e+02
0.000000e+00
6.250000e+00
1.250000e+01
1.875000e+01
2.500000e+01
3.125000e+01
3.750000e+01
4.375000e+01
5.000000e+01
5.625000e+01
6.250000e+01
6.875000e+01
7.500000e+01
8.125000e+01
8.750000e+01
9.375000e+01
1.000000e+02
1.062500e+02
1.125000e+02
1.187500e+02
1.250000e+02
1.312500e+02
1.375000e+02
1.437500e+02
1.500000e+02
1.562500e+02
1.625000e+02
1.687500e+02
1.750000e+02
1.812500e+02
1.875000e+02
1.937500e+02
2.000000e+02
0.000000e+00
0.000000e+00
0.000000e+00
0.000000e+00
0.000000e+00
0.000000e+00
0.000000e+00
0.000000e+00
0.000000e+00
0.000000e+00
0.000000e+00
0.000000e+00
0.000000e+00
0.000000e+00
0.000000e+00
0.000000e+00
0.000000e+00
0.000000e+00
0.000000e+00
0.000000e+00
0.000000e+00
0.000000e+00
0.000000e+00
0.000000e+00
0.000000e+00
0.000000e+00
0.000000e+00
0.000000e+00
0.000000e+00
0.000000e+00
0.000000e+00
0.000000e+00
0.000000e+00
6.250000e+00
6.250000e+00
6.250000e+00
6.250000e+00
6.250000e+00
6.250000e+00
6.250000e+00
6.250000e+00
6.250000e+00
6.250000e+00
6.250000e+00
6.250000e+00
6.250000e+00
6.250000e+00
6.250000e+00
6.250000e+00
6.250000e+00
6.250000e+00
6.250000e+00
6.250000e+00
6.250000e+00
6.250000e+00
6.250000e+00
6.250000e+00
6.250000e+00
6.250000e+00
6.250000e+00
6.250000e+00
6.250000e+00
6.250000e+00
6.250000e+00
6.250000e+00
6.250000e+00
1.250000e+01
1.250000e+01
1.250000e+01
1.250000e+01
1.250000e+01
1.250000e+01
1.250000e+01
1.250000e+01
1.250000e+01
1.250000e+01
1.250000e+01
1.250000e+01
1.250000e+01
1.250000e+01
1.250000e+01
1.250000e+01
1.250000e+01
1.250000e+01
1.250000e+01
1.250000e+01
1.250000e+01
1.250000e+01
1.250000e+01
1.250000e+01
1.250000e+01
1.250000e+01
1.250000e+01
1.250000e+01
1.250000e+01
1.250000e+01
1.250000e+01
1.250000e+01
1.250000e+01
1.875000e+01
1.875000e+01
1.875000e+01
1.875000e+01
1.875000e+01
1.875000e+01
1.875000e+01
1.875000e+01
1.875000e+01
1.875000e+01
1.875000e+01
1.875000e+01
1.875000e+01
1.875000e+01
1.875000e+01
1.875000e+01
1.875000e+01
1.875000e+01
1.875000e+01
1.875000e+01
1.875000e+01
1.875000e+01
1.875000e+01
1.875000e+01
1.875000e+01
1.875000e+01
1.875000e+01
1.875000e+01
1.875000e+01
1.875000e+01
1.875000e+01
1.875000e+01
1.875000e+01
2.500000e+01
2.500000e+01
2.500000e+01
2.500000e+01
2.500000e+01
2.500000e+01
2.500000e+01
2.500000e+01
2.500000e+01
2.500000e+01
2.500000e+01
2.500000e+01
2.500000e+01
2.500000e+01
2.500000e+01
2.500000e+01
2.500000e+01
2.500000e+01
2.500000e+01
2.500000e+01
2.500000e+01
2.500000e+01
2.500000e+01
2.500000e+01
2.500000e+01
2.500000e+01
2.500000e+01
2.500000e+01
2.500000e+01
2.500000e+01
2.500000e+01
2.500000e+01
2.500000e+01
3.125000e+01
3.125000e+01
3.125000e+01
3.125000e+01
3.125000e+01
3.125000e+01
3.125000e+01
3.125000e+01
3.125000e+01
3.125000e+01
3.125000e+01
3.125000e+01
3.125000e+01
3.125000e+01
3.125000e+01
3.125000e+01
3.125000e+01
3.125000e+01
3.125000e+01
3.125000e+01
3.125000e+01
3.125000e+01
3.125000e+01
3.125000e+01
3.125000e+01
3.125000e+01
3.125000e+01
3.125000e+01
3.125000e+01
3.125000e+01
3.125000e+01
3.125000e+01
3.125000e+01
3.750000e+01
3.750000e+01
3.750000e+01
3.750000e+01
3.750000e+01
3.750000e+01
3.750000e+01
3.750000e+01
3.750000e+01
3.750000e+01
3.750000e+01
3.750000e+01
3.750000e+01
3.750000e+01
3.750000e+01
3.750000e+01
3.750000e+01
3.750000e+01
3.750000e+01
3.750000e+01
3.750000e+01
3.750000e+01
3.750000e+01
3.750000e+01
3.750000e+01
3.750000e+01
3.750000e+01
3.750000e+01
3.750000e+01
3.750000e+01
3.750000e+01
3.750000e+01
3.750000e+01
4.375000e+01
4.375000e+01
4.375000e+01
4.375000e+01
4.375000e+01
4.375000e+01
4.375000e+01
4.375000e+01
4.375000e+01
4.375000e+01
4.375000e+01
4.375000e+01
4.375000e+01
4.375000e+01
4.375000e+01
4.375000e+01
4.375000e+01
4.375000e+01
4.375000e+01
4.375000e+01
4.375000e+01
4.375000e+01
4.375000e+01
4.375000e+01
4.375000e+01
4.375000e+01
4.375000e+01
4.375000e+01
4.375000e+01
4.375000e+01
4.375000e+01
4.375000e+01
4.375000e+01
5.000000e+01
5.000000e+01
5.000000e+01
5.000000e+01
5.000000e+01
5.000000e+01
5.000000e+01
5.000000e+01
5.000000e+01
5.000000e+01
5.000000e+01
5.000000e+01
5.000000e+01
5.000000e+01
5.000000e+01
5.000000e+01
5.000000e+01
5.000000e+01
5.000000e+01
5.000000e+01
5.000000e+01
5.000000e+01
5.000000e+01
5.000000e+01
5.000000e+01
5.000000e+01
5.000000e+01
5.000000e+01
5.000000e+01
5.000000e+01
5.000000e+01
5.000000e+01
5.000000e+01
5.625000e+01
5.625000e+01
5.625000e+01
5.625000e+01
5.625000e+01
5.625000e+01
5.625000e+01
5.625000e+01
5.625000e+01
5.625000e+01
5.625000e+01
5.625000e+01
5.625000e+01
5.625000e+01
5.625000e+01
5.625000e+01
5.625000e+01
5.625000e+01
5.625000e+01
5.625000e+01
5.625000e+01
5.625000e+01
5.625000e+01
5.625000e+01
5.625000e+01
5.625000e+01
5.625000e+01
5.625000e+01
5.625000e+01
5.625000e+01
5.625000e+01
5.625000e+01
5.625000e+01
6.250000e+01
6.250000e+01
6.250000e+01
6.250000e+01
6.250000e+01
6.250000e+01
6.250000e+01
6.250000e+01
6.250000e+01
6.250000e+01
6.250000e+01
6.250000e+01
6.250000e+01
6.250000e+01
6.250000e+01
6.250000e+01
6.250000e+01
6.250000e+01
6.250000e+01
6.250000e+01
6.250000e+01
6.250000e+01
6.250000e+01
6.250000e+01
6.250000e+01
6.250000e+01
6.250000e+01
6.250000e+01
6.250000e+01
6.250000e+01
6.250000e+01
6.250000e+01
6.250000e+01
6.875000e+01
6.875000e+01
6.875000e+01
6.875000e+01
6.875000e+01
6.875000e+01
6.875000e+01
6.875000e+01
6.875000e+01
6.875000e+01
6.875000e+01
6.875000e+01
6.875000e+01
6.875000e+01
6.875000e+01
6.875000e+01
6.875000e+01
6.875000e+01
6.875000e+01
6.875000e+01
6.875000e+01
6.875000e+01
6.875000e+01
6.875000e+01
6.875000e+01
6.875000e+01
6.875000e+01
6.875000e+01
6.875000e+01
6.875000e+01
6.875000e+01
6.875000e+01
6.875000e+01
7.500000e+01
7.500000e+01
7.500000e+01
7.500000e+01
7.500000e+01
7.500000e+01
7.500000e+01
7.500000e+01
7.500000e+01
7.500000e+01
7.500000e+01
7.500000e+01
7.500000e+01
7.500000e+01
7.500000e+01
7.500000e+01
7.500000e+01
7.500000e+01
7.500000e+01
7.500000e+01
7.500000e+01
7.500000e+01
7.500000e+01
7.500000e+01
7.500000e+01
7.500000e+01
7.500000e+01
7.500000e+01
7.500000e+01
7.500000e+01
7.500000e+01
7.500000e+01
7.500000e+01
8.125000e+01
8.125000e+01
8.125000e+01
8.125000e+01
8.125000e+01
8.125000e+01
8.125000e+01
8.125000e+01
8.125000e+01
8.125000e+01
8.125000e+01
8.125000e+01
8.125000e+01
8.125000e+01
8.125000e+01
8.125000e+01
8.125000e+01
8.125000e+01
8.125000e+01
8.125000e+01
8.125000e+01
8.125000e+01
8.125000e+01
8.125000e+01
8.125000e+01
8.125000e+01
8.125000e+01
8.125000e+01
8.125000e+01
8.125000e+01
8.125000e+01
8.125000e+01
8.125000e+01
8.750000e+01
8.750000e+01
8.750000e+01
8.750000e+01
8.750000e+01
8.750000e+01
8.750000e+01
8.750000e+01
8.750000e+01
8.750000e+01
8.750000e+01
8.750000e+01
8.750000e+01
8.750000e+01
8.750000e+01
8.750000e+01
8.750000e+01
8.750000e+01
8.750000e+01
8.750000e+01
8.750000e+01
8.750000e+01
8.750000e+01
8.750000e+01
8.750000e+01
8.750000e+01
8.750000e+01
8.750000e+01
8.750000e+01
8.750000e+01
8.750000e+01
8.750000e+01
8.750000e+01
9.375000e+01
9.375000e+01
9.375000e+01
9.375000e+01
9.375000e+01
9.375000e+01
9.375000e+01
9.375000e+01
9.375000e+01
9.375000e+01
9.375000e+01
9.375000e+01
9.375000e+01
9.375000e+01
9.375000e+01
9.375000e+01
9.375000e+01
9.375000e+01
9.375000e+01
9.375000e+01
9.375000e+01
9.375000e+01
9.375000e+01
9.375000e+01
9.375000e+01
9.375000e+01
9.375000e+01
9.375000e+01
9.375000e+01
9.375000e+01
9.375000e+01
9.375000e+01
9.375000e+01
1.000000e+02
1.000000e+02
1.000000e+02
1.000000e+02
1.000000e+02
1.000000e+02
1.000000e+02
1.000000e+02
1.000000e+02
1.000000e+02
1.000000e+02
1.000000e+02
1.000000e+02
1.000000e+02
1.000000e+02
1.000000e+02
1.000000e+02
1.000000e+02
1.000000e+02
1.000000e+02
1.000000e+02
1.000000e+02
1.000000e+02
1.000000e+02
1.000000e+02
1.000000e+02
1.000000e+02
1.000000e+02
1.000000e+02
1.000000e+02
1.000000e+02
1.000000e+02
1.000000e+02
0.000000e+00
-3.982130e-02
-7.225045e-02
-1.022915e-01
-1.311224e-01
-1.589630e-01
-1.858692e-01
-2.118387e-01
-2.368550e-01
-2.609000e-01
-2.839586e-01
-3.060204e-01
-3.270800e-01
-3.471370e-01
-3.661960e-01
-3.842672e-01
-4.013667e-01
-4.175180e-01
-4.327536e-01
-4.471173e-01
-4.606676e-01
-4.734816e-01
-4.856614e-01
-4.973426e-01
-5.087064e-01
-5.199996e-01
-5.315644e-01
-5.438894e-01
-5.576910e-01
-5.740235e-01
-5.942546e-01
-6.183645e-01
-6.330784e-01
0.000000e+00
-2.669911e-02
-5.555037e-02
-8.275329e-02
-1.086086e-01
-1.333625e-01
-1.571458e-01
-1.800157e-01
-2.019951e-01
-2.230913e-01
-2.433056e-01
-2.626383e-01
-2.810901e-01
-2.986640e-01
-3.153659e-01
-3.312051e-01
-3.461950e-01
-3.603542e-01
-3.737072e-01
-3.862858e-01
-3.981308e-01
-4.092933e-01
-4.198369e-01
-4.298394e-01
-4.393939e-01
-4.486072e-01
-4.575922e-01
-4.664419e-01
-4.751557e-01
-4.834501e-01
-4.903616e-01
-4.944023e-01
-5.000277e-01
0.000000e+00
-2.117780e-02
-4.359959e-02
-6.642854e-02
-8.861121e-02
-1.099764e-01
-1.305105e-01
-1.502329e-01
-1.691610e-01
-1.873069e-01
-2.046782e-01
-2.212803e-01
-2.371178e-01
-2.521954e-01
-2.665187e-01
-2.800946e-01
-2.929320e-01
-3.050419e-01
-3.164379e-01
-3.271364e-01
-3.371559e-01
-3.465168e-01
-3.552389e-01
-3.633379e-01
-3.708168e-01
-3.776518e-01
-3.837645e-01
-3.889752e-01
-3.929313e-01
-3.950615e-01
-3.948748e-01
-3.936785e-01
-4.002475e-01
0.000000e+00
-1.680271e-02
-3.453339e-02
-5.274945e-02
-7.092283e-02
-8.865600e-02
-1.057971e-01
-1.222917e-01
-1.381250e-01
-1.532964e-01
-1.678097e-01
-1.816699e-01
-1.948816e-01
-2.074490e-01
-2.193758e-01
-2.306653e-01
-2.413207e-01
-2.513446e-01
-2.607392e-01
-2.695050e-01
-2.776396e-01
-2.851358e-01
-2.919768e-01
-2.981308e-01
-3.035410e-01
-3.081119e-01
-3.116922e-01
-3.140632e-01
-3.149685e-01
-3.142964e-01
-3.126642e-01
-3.125668e-01
-3.188254e-01
0.000000e+00
-1.304124e-02
-2.670402e-02
-4.080325e-02
-5.501702e-02
-6.905646e-02
-8.272785e-02
-9.593312e-02
-1.086277e-01
-1.207944e-01
-1.324287e-01
-1.435313e-01
-1.541043e-01
-1.641494e-01
-1.736673e-01
-1.826571e-01
-1.911160e-01
-1.990390e-01
-2.064178e-01
-2.132401e-01
-2.194876e-01
-2.251335e-01
-2.301393e-01
-2.344499e-01
-2.379891e-01
-2.406569e-01
-2.423357e-01
-2.429245e-01
-2.424414e-01
-2.412593e-01
-2.404924e-01
-2.422634e-01
-2.476023e-01
0.000000e+00
-9.584556e-03
-1.957975e-02
-2.989606e-02
-4.035523e-02
-5.076202e-02
-6.096144e-02
-7.085273e-02
-8.038060e-02
-8.951815e-02
-9.825406e-02
-1.065843e-01
-1.145075e-01
-1.220221e-01
-1.291255e-01
-1.358124e-01
-1.420750e-01
-1.479019e-01
-1.532772e-01
-1.581799e-01
-1.625825e-01
-1.664492e-01
-1.697348e-01
-1.723843e-01
-1.743346e-01
-1.755247e-01
-1.759196e-01
-1.755652e-01
-1.746919e-01
-1.738610e-01
-1.740633e-01
-1.763211e-01
-1.807386e-01
0.000000e+00
-6.307790e-03
-1.286508e-02
-1.963039e-02
-2.650724e-02
-3.337988e-02
-4.014466e-02
-4.672603e-02
-5.307672e-02
-5.917063e-02
-6.499459e-02
-7.054196e-02
-7.580850e-02
-8.078983e-02
-8.547992e-02
-8.987021e-02
-9.394885e-02
-9.770016e-02
-1.011040e-01
-1.041354e-01
-1.067637e-01
-1.089534e-01
-1.106648e-01
-1.118573e-01
-1.124981e-01
-1.125775e-01
-1.121395e-01
-1.113288e-01
-1.104540e-01
-1.100299e-01
-1.106915e-01
-1.128896e-01
-1.164556e-01
0.000000e+00
-3.133077e-03
-6.384603e-03
-9.737866e-03
-1.315051e-02
-1.656864e-02
-1.994104e-02
-2.322766e-02
-2.640143e-02
-2.944581e-02
-3.235101e-02
-3.511055e-02
-3.771878e-02
-4.016923e-02
-4.245356e-02
-4.456078e-02
-4.647678e-02
-4.818385e-02
-4.966054e-02
-5.088169e-02
-5.181909e-02
-5.244306e-02
-5.272571e-02
-5.264709e-02
-5.220566e-02
-5.143510e-02
-5.042866e-02
-4.936820e-02
-4.854498e-02
-4.833876e-02
-4.911499e-02
-5.103256e-02
-5.386204e-02
0.000000e+00
-5.054906e-06
-1.096048e-05
-1.738956e-05
-2.400397e-05
-3.034776e-05
-3.573374e-05
-3.911768e-05
-3.895115e-05
-3.300447e-05
-1.815295e-05
9.877337e-06
5.680386e-05
1.301155e-04
2.394182e-04
3.967689e-04
6.169451e-04
9.175674e-04
1.318943e-03
1.843428e-03
2.514006e-03
3.351657e-03
4.370911e-03
5.572874e-03
6.935029e-03
8.397708e-03
9.848924e-03
1.111327e-02
1.195728e-02
1.212844e-02
1.143927e-02
9.878520e-03
7.692611e-03
0.000000e+00
3.123556e-03
6.363917e-03
9.704979e-03
1.310501e-02
1.651095e-02
1.987286e-02
2.315263e-02
2.632608e-02
2.938085e-02
3.231299e-02
3.512406e-02
3.781914e-02
4.040588e-02
4.289405e-02
4.529547e-02
4.762402e-02
4.989549e-02
5.212722e-02
5.433704e-02
5.654145e-02
5.875260e-02
6.097364e-02
6.319224e-02
6.537233e-02
6.744512e-02
6.930211e-02
7.079569e-02
7.175535e-02
7.202704e-02
7.153498e-02
7.034936e-02
6.872699e-02
0.000000e+00
6.300012e-03
1.284806e-02
1.960314e-02
2.646925e-02
3.333126e-02
4.008653e-02
4.666104e-02
5.300981e-02
5.911011e-02
6.495348e-02
7.053978e-02
7.587355e-02
8.096195e-02
8.581394e-02
9.043983e-02
9.485121e-02
9.906067e-02
1.030813e-01
1.069254e-01
1.106032e-01
1.141191e-01
1.174685e-01
1.206320e-01
1.235698e-01
1.262169e-01
1.284810e-01
1.302495e-01
1.314069e-01
1.318697e-01
1.316317e-01
1.308113e-01
1.296790e-01
0.000000e+00
9.579595e-03
1.956870e-02
2.987806e-02
4.032967e-02
5.072866e-02
6.092062e-02
7.080574e-02
8.033017e-02
8.946910e-02
9.821421e-02
1.065657e-01
1.145278e-01
1.221067e-01
1.293096e-01
1.361441e-01
1.426182e-01
1.487403e-01
1.545181e-01
1.599582e-01
1.650646e-01
1.698360e-01
1.742631e-01
1.783252e-01
1.819862e-01
1.851931e-01
1.878766e-01
1.899593e-01
1.913717e-01
1.920795e-01
1.921193e-01
1.916380e-01
1.909224e-01
0.000000e+00
1.304001e-02
2.670094e-02
4.079773e-02
5.500849e-02
6.904443e-02
8.271202e-02
9.591346e-02
1.086046e-01
1.207689e-01
1.324028e-01
1.435083e-01
1.540894e-01
1.641506e-01
1.736961e-01
1.827297e-01
1.912549e-01
1.992745e-01
2.067904e-01
2.138029e-01
2.203100e-01
2.263057e-01
2.317784e-01
2.367092e-01
2.410704e-01
2.448254e-01
2.479313e-01
2.503451e-01
2.520368e-01
2.530087e-01
2.533239e-01
2.531432e-01
2.527663e-01
0.000000e+00
1.680583e-02
3.453973e-02
5.275889e-02
7.093509e-02
8.867074e-02
1.058138e-01
1.223095e-01
1.381426e-01
1.533116e-01
1.678193e-01
1.816690e-01
1.948633e-01
2.074037e-01
2.192903e-01
2.305224e-01
2.410977e-01
2.510127e-01
2.602626e-01
2.688408e-01
2.767387e-01
2.839452e-01
2.904467e-01
2.962267e-01
3.012669e-01
3.055482e-01
3.090548e-01
3.117786e-01
3.137281e-01
3.149396e-01
3.154968e-01
3.155633e-01
3.154382e-01
0.000000e+00
2.118542e-02
4.361586e-02
6.645402e-02
8.864638e-02
1.100217e-01
1.305659e-01
1.502979e-01
1.692338e-01
1.873836e-01
2.047522e-01
2.213411e-01
2.371491e-01
2.521731e-01
2.664086e-01
2.798490e-01
2.924861e-01
3.043095e-01
3.153068e-01
3.254634e-01
3.347624e-01
3.431859e-01
3.507155e-01
3.573344e-01
3.630301e-01
3.677981e-01
3.716471e-01
3.746043e-01
3.767207e-01
3.780762e-01
3.787857e-01
3.790168e-01
3.790443e-01
0.000000e+00
2.671055e-02
5.557536e-02
8.279349e-02
1.086660e-01
1.334391e-01
1.572431e-01
1.801348e-01
2.021355e-01
2.232501e-01
2.434764e-01
2.628087e-01
2.812399e-01
2.987614e-01
3.153633e-01
3.310338e-01
3.457586e-01
3.595204e-01
3.722984e-01
3.840687e-01
3.948040e-01
4.044754e-01
4.130544e-01
4.205164e-01
4.268459e-01
4.320433e-01
4.361330e-01
4.391727e-01
4.412608e-01
4.425403e-01
4.431940e-01
4.434310e-01
4.434890e-01
0.000000e+00
3.983382e-02
7.227967e-02
1.023415e-01
1.311973e-01
1.590669e-01
1.860063e-01
2.120130e-01
2.370697e-01
2.611564e-01
2.842545e-01
3.063479e-01
3.274225e-01
3.474649e-01
3.664609e-01
3.843949e-01
4.012475e-01
4.169955e-01
4.316101e-01
4.450565e-01
4.572944e-01
4.682786e-01
4.779621e-01
4.863004e-01
4.932592e-01
4.988243e-01
5.030156e-01
5.059029e-01
5.076239e-01
5.083994e-01
5.085403e-01
5.084236e-01
5.083579e-01
0.000000e+00
-2.460880e-02
-4.294767e-02
-6.295978e-02
-8.524447e-02
-1.104172e-01
-1.386530e-01
-1.700010e-01
-2.044297e-01
-2.418656e-01
-2.822093e-01
-3.253468e-01
-3.711548e-01
-4.195053e-01
-4.702675e-01
-5.233096e-01
-5.785009e-01
-6.357127e-01
-6.948207e-01
-7.557079e-01
-8.182683e-01
-8.824128e-01
-9.480776e-01
-1.015237e+00
-1.083926e+00
-1.154270e+00
-1.226550e+00
-1.301310e+00
-1.379596e+00
-1.463472e+00
-1.557398e+00
-1.671894e+00
-1.830073e+00
0.000000e+00
-1.529343e-02
-3.448939e-02
-5.463651e-02
-7.723180e-02
-1.026781e-01
-1.311882e-01
-1.628105e-01
-1.975164e-01
-2.352321e-01
-2.758578e-01
-3.192784e-01
-3.653699e-01
-4.140029e-01
-4.650454e-01
-5.183646e-01
-5.738278e-01
-6.313045e-01
-6.906682e-01
-7.517987e-01
-8.145865e-01
-8.789378e-01
-9.447831e-01
-1.012090e+00
-1.080882e+00
-1.151275e+00
-1.223535e+00
-1.298190e+00
-1.376262e+00
-1.459782e+00
-1.552983e+00
-1.664930e+00
-1.812710e+00
0.000000e+00
-1.123391e-02
-2.780518e-02
-4.767746e-02
-7.031223e-02
-9.594600e-02
-1.246812e-01
-1.565445e-01
-1.914975e-01
-2.294631e-01
-2.703396e-01
-3.140112e-01
-3.603531e-01
-4.092356e-01
-4.605263e-01
-5.140916e-01
-5.697984e-01
-6.275155e-01
-6.871152e-01
-7.484767e-01
-8.114893e-01
-8.760586e-01
-9.421149e-01
-1.009626e+00
-1.078620e+00
-1.149219e+00
-1.221699e+00
-1.296603e+00
-1.374939e+00
-1.458538e+00
-1.550526e+00
-1.654598e+00
-1.770044e+00
0.000000e+00
-8.995636e-03
-2.354538e-02
-4.235797e-02
-6.470185e-02
-9.032765e-02
-1.191858e-01
-1.512275e-01
-1.863840e-01
-2.245637e-01
-2.656586e-01
-3.095500e-01
-3.561120e-01
-4.052147e-01
-4.567258e-01
-5.105120e-01
-5.664408e-01
-6.243812e-01
-6.842066e-01
-7.457969e-01
-8.090429e-01
-8.738526e-01
-9.401595e-01
-1.007937e+00
-1.077219e+00
-1.148134e+00
-1.220956e+00
-1.296184e+00
-1.374644e+00
-1.457542e+00
-1.546032e+00
-1.639361e+00
-1.726241e+00
0.000000e+00
-7.611787e-03
-2.075962e-02
-3.858050e-02
-6.041503e-02
-8.587283e-02
-1.147418e-01
-1.468877e-01
-1.821944e-01
-2.205465e-01
-2.618241e-01
-3.059027e-01
-3.526545e-01
-4.019490e-01
-4.536544e-01
-5.076385e-01
-5.637698e-01
-6.219191e-01
-6.819614e-01
-7.437786e-01
-8.072640e-01
-8.723283e-01
-9.389080e-01
-1.006978e+00
-1.076570e+00
-1.147797e+00
-1.220881e+00
-1.296182e+00
-1.374176e+00
-1.455244e+00
-1.539001e+00
-1.622371e+00
-1.698034e+00
0.000000e+00
-6.731232e-03
-1.893181e-02
-3.598101e-02
-5.732404e-02
-8.254336e-02
-1.113496e-01
-1.435366e-01
-1.789422e-01
-2.174235e-01
-2.588458e-01
-3.030773e-01
-3.499870e-01
-3.994438e-01
-4.513165e-01
-5.054744e-01
-5.617876e-01
-6.201288e-01
-6.803749e-01
-7.424099e-01
-8.061286e-01
-8.714421e-01
-9.382850e-01
-1.006625e+00
-1.076474e+00
-1.147900e+00
-1.221028e+00
-1.296017e+00
-1.372952e+00
-1.451575e+00
-1.530688e+00
-1.607464e+00
-1.677637e+00
0.000000e+00
-6.183976e-03
-1.777619e-02
-3.429128e-02
-5.525330e-02
-8.025530e-02
-1.089760e-01
-1.411670e-01
-1.766311e-01
-2.152018e-01
-2.567308e-01
-3.010791e-01
-3.481126e-01
-3.976998e-01
-4.497103e-01
-5.040145e-01
-5.604847e-01
-6.189952e-01
-6.794242e-01
-7.416566e-01
-8.055862e-01
-8.711205e-01
-9.381854e-01
-1.006730e+00
-1.076732e+00
-1.148191e+00
-1.221114e+00
-1.295459e+00
-1.371012e+00
-1.447158e+00
-1.522580e+00
-1.595102e+00
-1.662061e+00
0.000000e+00
-5.883252e-03
-1.713495e-02
-3.333909e-02
-5.406591e-02
-7.892253e-02
-1.075773e-01
-1.397613e-01
-1.752569e-01
-2.138830e-01
-2.554818e-01
-2.999097e-01
-3.470308e-01
-3.967134e-01
-4.488281e-01
-5.032469e-01
-5.598434e-01
-6.184931e-01
-6.790747e-01
-7.414717e-01
-8.055742e-01
-8.712817e-01
-9.385047e-01
-1.007166e+00
-1.077196e+00
-1.148523e+00
-1.221042e+00
-1.294556e+00
-1.368671e+00
-1.442659e+00
-1.515333e+00
-1.585055e+00
-1.650008e+00
0.000000e+00
-5.786359e-03
-1.692807e-02
-3.303047e-02
-5.367893e-02
-7.848633e-02
-1.071191e-01
-1.393026e-01
-1.748132e-01
-2.134651e-01
-2.550980e-01
-2.995673e-01
-3.467372e-01
-3.964769e-01
-4.486583e-01
-5.031546e-01
-5.598406e-01
-6.185921e-01
-6.792868e-01
-7.418052e-01
-8.060310e-01
-8.718515e-01
-9.391578e-01
-1.007841e+00
-1.077785e+00
-1.148851e+00
-1.220846e+00
-1.293472e+00
-1.366262e+00
-1.438498e+00
-1.509174e+00
-1.577042e+00
-1.640771e+00
0.000000e+00
-5.880449e-03
-1.713106e-02
-3.333574e-02
-5.406490e-02
-7.892608e-02
-1.075883e-01
-1.397837e-01
-1.752959e-01
-2.139453e-01
-2.555761e-01
-3.000470e-01
-3.472246e-01
-3.969799e-01
-4.491864e-01
-5.037185e-01
-5.604515e-01
-6.192606e-01
-6.800217e-01
-7.426106e-01
-8.069025e-01
-8.727711e-01
-9.400858e-01
-1.008706e+00
-1.078474e+00
-1.149196e+00
-1.220618e+00
-1.292392e+00
-1.364036e+00
-1.434895e+00
-1.504143e+00
-1.570813e+00
-1.633887e+00
0.000000e+00
-6.178598e-03
-1.776872e-02
-3.428483e-02
-5.525128e-02
-8.026198e-02
-1.089970e-01
-1.412098e-01
-1.767056e-01
-2.153210e-01
-2.569114e-01
-3.013420e-01
-3.484840e-01
-3.982108e-01
-4.503976e-01
-5.049197e-01
-5.616524e-01
-6.204699e-01
-6.812453e-01
-7.438490e-01
-8.081472e-01
-8.739993e-01
-9.412542e-01
-1.009744e+00
-1.079274e+00
-1.149611e+00
-1.220464e+00
-1.291466e+00
-1.362153e+00
-1.431954e+00
-1.500197e+00
-1.566140e+00
-1.629000e+00
0.000000e+00
-6.723756e-03
-1.892144e-02
-3.597199e-02
-5.732112e-02
-8.255250e-02
-1.113786e-01
-1.435961e-01
-1.790460e-01
-2.175897e-01
-2.590978e-01
-3.034446e-01
-3.505060e-01
-4.001584e-01
-4.522783e-01
-5.067417e-01
-5.634234e-01
-6.221965e-01
-6.829308e-01
-7.454914e-01
-8.097357e-01
-8.755106e-01
-9.426469e-01
-1.010954e+00
-1.080209e+00
-1.150153e+00
-1.220474e+00
-1.290803e+00
-1.360708e+00
-1.429701e+00
-1.497252e+00
-1.562807e+00
-1.625797e+00
0.000000e+00
-7.602981e-03
-2.074741e-02
-3.856987e-02
-6.041165e-02
-8.588389e-02
-1.147768e-01
-1.469594e-01
-1.823197e-01
-2.207473e-01
-2.621286e-01
-3.063468e-01
-3.532821e-01
-4.028135e-01
-4.548182e-01
-5.091725e-01
-5.657507e-01
-6.244242e-01
-6.850602e-01
-7.475190e-01
-8.116508e-01
-8.772920e-01
-9.442596e-01
-1.012345e+00
-1.081308e+00
-1.150871e+00
-1.220712e+00
-1.290468e+00
-1.359742e+00
-1.428120e+00
-1.495196e+00
-1.560594e+00
-1.623963e+00
0.000000e+00
-8.986585e-03
-2.353284e-02
-4.234717e-02
-6.469895e-02
-9.034065e-02
-1.192253e-01
-1.513076e-01
-1.865233e-01
-2.247865e-01
-2.659962e-01
-3.100417e-01
-3.568066e-01
-4.061707e-01
-4.580121e-01
-5.122066e-01
-5.686279e-01
-6.271461e-01
-6.876261e-01
-7.499243e-01
-8.138860e-01
-8.793401e-01
-9.460939e-01
-1.013928e+00
-1.082590e+00
-1.151792e+00
-1.221209e+00
-1.290486e+00
-1.359255e+00
-1.427161e+00
-1.493903e+00
-1.559273e+00
-1.623164e+00
0.000000e+00
-1.122602e-02
-2.779420e-02
-4.766834e-02
-7.031136e-02
-9.596181e-02
-1.247248e-01
-1.566306e-01
-1.916456e-01
-2.296982e-01
-2.706941e-01
-3.145256e-01
-3.610775e-01
-4.102301e-01
-4.618612e-01
-5.158463e-01
-5.720581e-01
-6.303658e-01
-6.906323e-01
-7.527119e-01
-8.164462e-01
-8.816600e-01
-9.481555e-01
-1.015707e+00
-1.084058e+00
-1.152916e+00
-1.221957e+00
-1.290834e+00
-1.359200e+00
-1.426741e+00
-1.493233e+00
-1.558608e+00
-1.623025e+00
0.000000e+00
-1.528836e-02
-3.448192e-02
-5.463114e-02
-7.723512e-02
-1.026987e-01
-1.312374e-01
-1.629029e-01
-1.976714e-01
-2.354747e-01
-2.762198e-01
-3.197997e-01
-3.660991e-01
-4.149983e-01
-4.663745e-01
-5.201027e-01
-5.760549e-01
-6.340988e-01
-6.940963e-01
-7.559000e-01
-8.193498e-01
-8.842683e-01
-9.504561e-01
-1.017687e+00
-1.085702e+00
-1.154214e+00
-1.222902e+00
-1.291430e+00
-1.359466e+00
-1.426722e+00
-1.493015e+00
-1.558368e+00
-1.623143e+00
0.000000e+00
-2.460808e-02
-4.294518e-02
-6.296026e-02
-8.525452e-02
-1.104455e-01
-1.387108e-01
-1.701028e-01
-2.045946e-01
-2.421178e-01
-2.825794e-01
-3.258727e-01
-3.718825e-01
-4.204890e-01
-4.715690e-01
-5.249966e-01
-5.806428e-01
-6.383743e-01
-6.980512e-01
-7.595247e-01
-8.226332e-01
-8.871984e-01
-9.530205e-01