TITLE = "Solution"
VARIABLES = x, y, u, v, psiu, psiv, t, stress
ZONE T="structure" N=561 E=512 F=FEBLOCK ET=QUADRILATERAL VARLOCATION=([7,8]=cellcentered)
0.000000e+00
6.250000e+00
1.250000e+01
1.875000e+01
2.500000e+01
3.125000e+01
3.750000e+01
4.375000e+01
5.000000e+01
5.625000e+01
6.250000e+01
6.875000e+01
7.500000e+01
8.125000e+01
8.750000e+01
9.375000e+01
1.000000e+02
1.062500e+02
1.125000e+02
1.187500e+02
1.250000e+02
1.312500e+02
1.375000e+02
1.437500e+02
1.500000e+02
1.562500e+02
1.625000e+02
1.687500e+02
1.750000e+02
1.812500e+02
1.875000e+02
1.937500e+02
2.000000e+02
0.000000e+00
6.250000e+00
1.250000e+01
1.875000e+01
2.500000e+01
3.125000e+01
3.750000e+01
4.375000e+01
5.000000e+01
5.625000e+01
6.250000e+01
6.875000e+01
7.500000e+01
8.125000e+01
8.750000e+01
9.375000e+01
1.000000e+02
1.062500e+02
1.125000e+02
1.187500e+02
1.250000e+02
1.312500e+02
1.375000e+02
1.437500e+02
1.500000e+02
1.562500e+02
1.625000e+02
1.687500e+02
1.750000e+02
1.812500e+02
1.875000e+02
1.937500e+02
2.000000e+02
0.000000e+00
6.250000e+00
1.250000e+01
1.875000e+01
2.500000e+01
3.125000e+01
3.750000e+01
4.375000e+01
5.000000e+01
5.625000e+01
6.250000e+01
6.875000e+01
7.500000e+01
8.125000e+01
8.750000e+01
9.375000e+01
1.000000e+02
1.062500e+02
1.125000e+02
1.187500e+02
1.250000e+02
1.312500e+02
1.375000e+02
1.437500e+02
1.500000e+02
1.562500e+02
1.625000e+02
1.687500e+02
1.750000e+02
1.812500e+02
1.875000e+02
1.937500e+02
2.000000e+02
0.000000e+00
6.250000e+00
1.250000e+01
1.875000e+01
2.500000e+01
3.125000e+01
3.750000e+01
4.375000e+01
5.000000e+01
5.625000e+01
6.250000e+01
6.875000e+01
7.500000e+01
8.125000e+01
8.750000e+01
9.375000e+01
1.000000e+02
1.062500e+02
1.125000e+02
1.187500e+02
1.250000e+02
1.312500e+02
1.375000e+02
1.437500e+02
1.500000e+02
1.562500e+02
1.625000e+02
1.687500e+02
1.750000e+02
1.812500e+02
1.875000e+02
1.937500e+02
2.000000e+02
0.000000e+00
6.250000e+00
1.250000e+01
1.875000e+01
2.500000e+01
3.125000e+01
3.750000e+01
4.375000e+01
5.000000e+01
5.625000e+01
6.250000e+01
6.875000e+01
7.500000e+01
8.125000e+01
8.750000e+01
9.375000e+01
1.000000e+02
1.062500e+02
1.125000e+02
1.187500e+02
1.250000e+02
1.312500e+02
1.375000e+02
1.437500e+02
1.500000e+02
1.562500e+02
1.625000e+02
1.687500e+02
1.750000e+02
1.812500e+02
1.875000e+02
1.937500e+02
2.000000e+02
0.000000e+00
6.250000e+00
1.250000e+01
1.875000e+01
2.500000e+01
3.125000e+01
3.750000e+01
4.375000e+01
5.000000e+01
5.625000e+01
6.250000e+01
6.875000e+01
7.500000e+01
8.125000e+01
8.750000e+01
9.375000e+01
1.000000e+02
1.062500e+02
1.125000e+02
1.187500e+02
1.250000e+02
1.312500e+02
1.375000e+02
1.437500e+02
1.500000e+02
1.562500e+02
1.625000e+02
1.687500e+02
1.750000e+02
1.812500e+02
1.875000e+02
1.937500e+02
2.000000e+02
0.000000e+00
6.250000e+00
1.250000e+01
1.875000e+01
2.500000e+01
3.125000e+01
3.750000e+01
4.375000e+01
5.000000e+01
5.625000e+01
6.250000e+01
6.875000e+01
7.500000e+01
8.125000e+01
8.750000e+01
9.375000e+01
1.000000e+02
1.062500e+02
1.125000e+02
1.187500e+02
1.250000e+02
1.312500e+02
1.375000e+02
1.437500e+02
1.500000e+02
1.562500e+02
1.625000e+02
1.687500e+02
1.750000e+02
1.812500e+02
1.875000e+02
1.937500e+02
2.000000e+02
0.000000e+00
6.250000e+00
1.250000e+01
1.875000e+01
2.500000e+01
3.125000e+01
3.750000e+01
4.375000e+01
5.000000e+01
5.625000e+01
6.250000e+01
6.875000e+01
7.500000e+01
8.125000e+01
8.750000e+01
9.375000e+01
1.000000e+02
1.062500e+02
1.125000e+02
1.187500e+02
1.250000e+02
1.312500e+02
1.375000e+02
1.437500e+02
1.500000e+02
1.562500e+02
1.625000e+02
1.687500e+02
1.750000e+02
1.812500e+02
1.875000e+02
1.937500e+02
2.000000e+02
0.000000e+00
6.250000e+00
1.250000e+01
1.875000e+01
2.500000e+01
3.125000e+01
3.750000e+01
4.375000e+01
5.000000e+01
5.625000e+01
6.250000e+01
6.875000e+01
7.500000e+01
8.125000e+01
8.750000e+01
9.375000e+01
1.000000e+02
1.062500e+02
1.125000e+02
1.187500e+02
1.250000e+02
1.312500e+02
1.375000e+02
1.437500e+02
1.500000e+02
1.562500e+02
1.625000e+02
1.687500e+02
1.750000e+02
1.812500e+02
1.875000e+02
1.937500e+02
2.000000e+02
0.000000e+00
6.250000e+00
1.250000e+01
1.875000e+01
2.500000e+01
3.125000e+01
3.750000e+01
4.375000e+01
5.000000e+01
5.625000e+01
6.250000e+01
6.875000e+01
7.500000e+01
8.125000e+01
8.750000e+01
9.375000e+01
1.000000e+02
1.062500e+02
1.125000e+02
1.187500e+02
1.250000e+02
1.312500e+02
1.375000e+02
1.437500e+02
1.500000e+02
1.562500e+02
1.625000e+02
1.687500e+02
1.750000e+02
1.812500e+02
1.875000e+02
1.937500e+02
2.000000e+02
0.000000e+00
6.250000e+00
1.250000e+01
1.875000e+01
2.500000e+01
3.125000e+01
3.750000e+01
4.375000e+01
5.000000e+01
5.625000e+01
6.250000e+01
6.875000e+01
7.500000e+01
8.125000e+01
8.750000e+01
9.375000e+01
1.000000e+02
1.062500e+02
1.125000e+02
1.187500e+02
1.250000e+02
1.312500e+02
1.375000e+02
1.437500e+02
1.500000e+02
1.562500e+02
1.625000e+02
1.687500e+02
1.750000e+02
1.812500e+02
1.875000e+02
1.937500e+02
2.000000e+02
0.000000e+00
6.250000e+00
1.250000e+01
1.875000e+01
2.500000e+01
3.125000e+01
3.750000e+01
4.375000e+01
5.000000e+01
5.625000e+01
6.250000e+01
6.875000e+01
7.500000e+01
8.125000e+01
8.750000e+01
9.375000e+01
1.000000e+02
1.062500e+02
1.125000e+02
1.187500e+02
1.250000e+02
1.312500e+02
1.375000e+02
1.437500e+02
1.500000e+02
1.562500e+02
1.625000e+02
1.687500e+02
1.750000e+02
1.812500e+02
1.875000e+02
1.937500e+02
2.000000e+02
0.000000e+00
6.250000e+00
1.250000e+01
1.875000e+01
2.500000e+01
3.125000e+01
3.750000e+01
4.375000e+01
5.000000e+01
5.625000e+01
6.250000e+01
6.875000e+01
7.500000e+01
8.125000e+01
8.750000e+01
9.375000e+01
1.000000e+02
1.062500e+02
1.125000e+02
1.187500e+02
1.250000e+02
1.312500e+02
1.375000e+02
1.437500e+02
1.500000e+02
1.562500e+02
1.625000e+02
1.687500e+02
1.750000e+02
1.812500e+02
1.875000e+02
1.937500e+02
2.000000e+02
0.000000e+00
6.250000e+00
1.250000e+01
1.875000e+01
2.500000e+01
3.125000e+01
3.750000e+01
4.375000e+01
5.000000e+01
5.625000e+01
6.250000e+01
6.875000e+01
7.500000e+01
8.125000e+01
8.750000e+01
9.375000e+01
1.000000e+02
1.062500e+02
1.125000e+02
1.187500e+02
1.250000e+02
1.312500e+02
1.375000e+02
1.437500e+02
1.500000e+02
1.562500e+02
1.625000e+02
1.687500e+02
1.750000e+02
1.812500e+02
1.875000e+02
1.937500e+02
2.000000e+02
0.000000e+00
6.250000e+00
1.250000e+01
1.875000e+01
2.500000e+01
3.125000e+01
3.750000e+01
4.375000e+01
5.000000e+01
5.625000e+01
6.250000e+01
6.875000e+01
7.500000e+01
8.125000e+01
8.750000e+01
9.375000e+01
1.000000e+02
1.062500e+02
1.125000e+02
1.187500e+02
1.250000e+02
1.312500e+02
1.375000e+02
1.437500e+02
1.500000e+02
1.562500e+02
1.625000e+02
1.687500e+02
1.750000e+02
1.812500e+02
1.875000e+02
1.937500e+02
2.000000e+02
0.000000e+00
6.250000e+00
1.250000e+01
1.875000e+01
2.500000e+01
3.125000e+01
3.750000e+01
4.375000e+01
5.000000e+01
5.625000e+01
6.250000e+01
6.875000e+01
7.500000e+01
8.125000e+01
8.750000e+01
9.375000e+01
1.000000e+02
1.062500e+02
1.125000e+02
1.187500e+02
1.250000e+02
1.312500e+02
1.375000e+02
1.437500e+02
1.500000e+02
1.562500e+02
1.625000e+02
1.687500e+02
1.750000e+02
1.812500e+02
1.875000e+02
1.937500e+02
2.000000e+02
0.000000e+00
6.250000e+00
1.250000e+01
1.875000e+01
2.500000e+01
3.125000e+01
3.750000e+01
4.375000e+01
5.000000e+01
5.625000e+01
6.250000e+01
6.875000e+01
7.500000e+01
8.125000e+01
8.750000e+01
9.375000e+01
1.000000e+02
1.062500e+02
1.125000e+02
1.187500e+02
1.250000e+02
1.312500e+02
1.375000e+02
1.437500e+02
1.500000e+02
1.562500e+02
1.625000e+02
1.687500e+02
1.750000e+02
1.812500e+02
1.875000e+02
1.937500e+02
2.000000e+02
0.000000e+00
0.000000e+00
0.000000e+00
0.000000e+00
0.000000e+00
0.000000e+00
0.000000e+00
0.000000e+00
0.000000e+00
0.000000e+00
0.000000e+00
0.000000e+00
0.000000e+00
0.000000e+00
0.000000e+00
0.000000e+00
0.000000e+00
0.000000e+00
0.000000e+00
0.000000e+00
0.000000e+00
0.000000e+00
0.000000e+00
0.000000e+00
0.000000e+00
0.000000e+00
0.000000e+00
0.000000e+00
0.000000e+00
0.000000e+00
0.000000e+00
0.000000e+00
0.000000e+00
6.250000e+00
6.250000e+00
6.250000e+00
6.250000e+00
6.250000e+00
6.250000e+00
6.250000e+00
6.250000e+00
6.250000e+00
6.250000e+00
6.250000e+00
6.250000e+00
6.250000e+00
6.250000e+00
6.250000e+00
6.250000e+00
6.250000e+00
6.250000e+00
6.250000e+00
6.250000e+00
6.250000e+00
6.250000e+00
6.250000e+00
6.250000e+00
6.250000e+00
6.250000e+00
6.250000e+00
6.250000e+00
6.250000e+00
6.250000e+00
6.250000e+00
6.250000e+00
6.250000e+00
1.250000e+01
1.250000e+01
1.250000e+01
1.250000e+01
1.250000e+01
1.250000e+01
1.250000e+01
1.250000e+01
1.250000e+01
1.250000e+01
1.250000e+01
1.250000e+01
1.250000e+01
1.250000e+01
1.250000e+01
1.250000e+01
1.250000e+01
1.250000e+01
1.250000e+01
1.250000e+01
1.250000e+01
1.250000e+01
1.250000e+01
1.250000e+01
1.250000e+01
1.250000e+01
1.250000e+01
1.250000e+01
1.250000e+01
1.250000e+01
1.250000e+01
1.250000e+01
1.250000e+01
1.875000e+01
1.875000e+01
1.875000e+01
1.875000e+01
1.875000e+01
1.875000e+01
1.875000e+01
1.875000e+01
1.875000e+01
1.875000e+01
1.875000e+01
1.875000e+01
1.875000e+01
1.875000e+01
1.875000e+01
1.875000e+01
1.875000e+01
1.875000e+01
1.875000e+01
1.875000e+01
1.875000e+01
1.875000e+01
1.875000e+01
1.875000e+01
1.875000e+01
1.875000e+01
1.875000e+01
1.875000e+01
1.875000e+01
1.875000e+01
1.875000e+01
1.875000e+01
1.875000e+01
2.500000e+01
2.500000e+01
2.500000e+01
2.500000e+01
2.500000e+01
2.500000e+01
2.500000e+01
2.500000e+01
2.500000e+01
2.500000e+01
2.500000e+01
2.500000e+01
2.500000e+01
2.500000e+01
2.500000e+01
2.500000e+01
2.500000e+01
2.500000e+01
2.500000e+01
2.500000e+01
2.500000e+01
2.500000e+01
2.500000e+01
2.500000e+01
2.500000e+01
2.500000e+01
2.500000e+01
2.500000e+01
2.500000e+01
2.500000e+01
2.500000e+01
2.500000e+01
2.500000e+01
3.125000e+01
3.125000e+01
3.125000e+01
3.125000e+01
3.125000e+01
3.125000e+01
3.125000e+01
3.125000e+01
3.125000e+01
3.125000e+01
3.125000e+01
3.125000e+01
3.125000e+01
3.125000e+01
3.125000e+01
3.125000e+01
3.125000e+01
3.125000e+01
3.125000e+01
3.125000e+01
3.125000e+01
3.125000e+01
3.125000e+01
3.125000e+01
3.125000e+01
3.125000e+01
3.125000e+01
3.125000e+01
3.125000e+01
3.125000e+01
3.125000e+01
3.125000e+01
3.125000e+01
3.750000e+01
3.750000e+01
3.750000e+01
3.750000e+01
3.750000e+01
3.750000e+01
3.750000e+01
3.750000e+01
3.750000e+01
3.750000e+01
3.750000e+01
3.750000e+01
3.750000e+01
3.750000e+01
3.750000e+01
3.750000e+01
3.750000e+01
3.750000e+01
3.750000e+01
3.750000e+01
3.750000e+01
3.750000e+01
3.750000e+01
3.750000e+01
3.750000e+01
3.750000e+01
3.750000e+01
3.750000e+01
3.750000e+01
3.750000e+01
3.750000e+01
3.750000e+01
3.750000e+01
4.375000e+01
4.375000e+01
4.375000e+01
4.375000e+01
4.375000e+01
4.375000e+01
4.375000e+01
4.375000e+01
4.375000e+01
4.375000e+01
4.375000e+01
4.375000e+01
4.375000e+01
4.375000e+01
4.375000e+01
4.375000e+01
4.375000e+01
4.375000e+01
4.375000e+01
4.375000e+01
4.375000e+01
4.375000e+01
4.375000e+01
4.375000e+01
4.375000e+01
4.375000e+01
4.375000e+01
4.375000e+01
4.375000e+01
4.375000e+01
4.375000e+01
4.375000e+01
4.375000e+01
5.000000e+01
5.000000e+01
5.000000e+01
5.000000e+01
5.000000e+01
5.000000e+01
5.000000e+01
5.000000e+01
5.000000e+01
5.000000e+01
5.000000e+01
5.000000e+01
5.000000e+01
5.000000e+01
5.000000e+01
5.000000e+01
5.000000e+01
5.000000e+01
5.000000e+01
5.000000e+01
5.000000e+01
5.000000e+01
5.000000e+01
5.000000e+01
5.000000e+01
5.000000e+01
5.000000e+01
5.000000e+01
5.000000e+01
5.000000e+01
5.000000e+01
5.000000e+01
5.000000e+01
5.625000e+01
5.625000e+01
5.625000e+01
5.625000e+01
5.625000e+01
5.625000e+01
5.625000e+01
5.625000e+01
5.625000e+01
5.625000e+01
5.625000e+01
5.625000e+01
5.625000e+01
5.625000e+01
5.625000e+01
5.625000e+01
5.625000e+01
5.625000e+01
5.625000e+01
5.625000e+01
5.625000e+01
5.625000e+01
5.625000e+01
5.625000e+01
5.625000e+01
5.625000e+01
5.625000e+01
5.625000e+01
5.625000e+01
5.625000e+01
5.625000e+01
5.625000e+01
5.625000e+01
6.250000e+01
6.250000e+01
6.250000e+01
6.250000e+01
6.250000e+01
6.250000e+01
6.250000e+01
6.250000e+01
6.250000e+01
6.250000e+01
6.250000e+01
6.250000e+01
6.250000e+01
6.250000e+01
6.250000e+01
6.250000e+01
6.250000e+01
6.250000e+01
6.250000e+01
6.250000e+01
6.250000e+01
6.250000e+01
6.250000e+01
6.250000e+01
6.250000e+01
6.250000e+01
6.250000e+01
6.250000e+01
6.250000e+01
6.250000e+01
6.250000e+01
6.250000e+01
6.250000e+01
6.875000e+01
6.875000e+01
6.875000e+01
6.875000e+01
6.875000e+01
6.875000e+01
6.875000e+01
6.875000e+01
6.875000e+01
6.875000e+01
6.875000e+01
6.875000e+01
6.875000e+01
6.875000e+01
6.875000e+01
6.875000e+01
6.875000e+01
6.875000e+01
6.875000e+01
6.875000e+01
6.875000e+01
6.875000e+01
6.875000e+01
6.875000e+01
6.875000e+01
6.875000e+01
6.875000e+01
6.875000e+01
6.875000e+01
6.875000e+01
6.875000e+01
6.875000e+01
6.875000e+01
7.500000e+01
7.500000e+01
7.500000e+01
7.500000e+01
7.500000e+01
7.500000e+01
7.500000e+01
7.500000e+01
7.500000e+01
7.500000e+01
7.500000e+01
7.500000e+01
7.500000e+01
7.500000e+01
7.500000e+01
7.500000e+01
7.500000e+01
7.500000e+01
7.500000e+01
7.500000e+01
7.500000e+01
7.500000e+01
7.500000e+01
7.500000e+01
7.500000e+01
7.500000e+01
7.500000e+01
7.500000e+01
7.500000e+01
7.500000e+01
7.500000e+01
7.500000e+01
7.500000e+01
8.125000e+01
8.125000e+01
8.125000e+01
8.125000e+01
8.125000e+01
8.125000e+01
8.125000e+01
8.125000e+01
8.125000e+01
8.125000e+01
8.125000e+01
8.125000e+01
8.125000e+01
8.125000e+01
8.125000e+01
8.125000e+01
8.125000e+01
8.125000e+01
8.125000e+01
8.125000e+01
8.125000e+01
8.125000e+01
8.125000e+01
8.125000e+01
8.125000e+01
8.125000e+01
8.125000e+01
8.125000e+01
8.125000e+01
8.125000e+01
8.125000e+01
8.125000e+01
8.125000e+01
8.750000e+01
8.750000e+01
8.750000e+01
8.750000e+01
8.750000e+01
8.750000e+01
8.750000e+01
8.750000e+01
8.750000e+01
8.750000e+01
8.750000e+01
8.750000e+01
8.750000e+01
8.750000e+01
8.750000e+01
8.750000e+01
8.750000e+01
8.750000e+01
8.750000e+01
8.750000e+01
8.750000e+01
8.750000e+01
8.750000e+01
8.750000e+01
8.750000e+01
8.750000e+01
8.750000e+01
8.750000e+01
8.750000e+01
8.750000e+01
8.750000e+01
8.750000e+01
8.750000e+01
9.375000e+01
9.375000e+01
9.375000e+01
9.375000e+01
9.375000e+01
9.375000e+01
9.375000e+01
9.375000e+01
9.375000e+01
9.375000e+01
9.375000e+01
9.375000e+01
9.375000e+01
9.375000e+01
9.375000e+01
9.375000e+01
9.375000e+01
9.375000e+01
9.375000e+01
9.375000e+01
9.375000e+01
9.375000e+01
9.375000e+01
9.375000e+01
9.375000e+01
9.375000e+01
9.375000e+01
9.375000e+01
9.375000e+01
9.375000e+01
9.375000e+01
9.375000e+01
9.375000e+01
1.000000e+02
1.000000e+02
1.000000e+02
1.000000e+02
1.000000e+02
1.000000e+02
1.000000e+02
1.000000e+02
1.000000e+02
1.000000e+02
1.000000e+02
1.000000e+02
1.000000e+02
1.000000e+02
1.000000e+02
1.000000e+02
1.000000e+02
1.000000e+02
1.000000e+02
1.000000e+02
1.000000e+02
1.000000e+02
1.000000e+02
1.000000e+02
1.000000e+02
1.000000e+02
1.000000e+02
1.000000e+02
1.000000e+02
1.000000e+02
1.000000e+02
1.000000e+02
1.000000e+02
0.000000e+00
-6.555527e-02
-1.189413e-01
-1.683959e-01
-2.158587e-01
-2.616914e-01
-3.059859e-01
-3.487384e-01
-3.899219e-01
-4.295064e-01
-4.674671e-01
-5.037868e-01
-5.384567e-01
-5.714761e-01
-6.028527e-01
-6.326029e-01
-6.607535e-01
-6.873431e-01
-7.124252e-01
-7.360720e-01
-7.583796e-01
-7.794752e-01
-7.995267e-01
-8.187572e-01
-8.374653e-01
-8.560571e-01
-8.750961e-01
-8.953866e-01
-9.181079e-01
-9.449958e-01
-9.783017e-01
-1.017993e+00
-1.042216e+00
0.000000e+00
-4.395297e-02
-9.144884e-02
-1.362313e-01
-1.787954e-01
-2.195466e-01
-2.586999e-01
-2.963498e-01
-3.325336e-01
-3.672635e-01
-4.005419e-01
-4.323687e-01
-4.627454e-01
-4.916770e-01
-5.191730e-01
-5.452488e-01
-5.699264e-01
-5.932364e-01
-6.152192e-01
-6.359273e-01
-6.554275e-01
-6.738042e-01
-6.911620e-01
-7.076291e-01
-7.233584e-01
-7.385261e-01
-7.533181e-01
-7.678872e-01
-7.822326e-01
-7.958875e-01
-8.072657e-01
-8.139179e-01
-8.231789e-01
0.000000e+00
-3.486356e-02
-7.177502e-02
-1.093568e-01
-1.458749e-01
-1.810473e-01
-2.148516e-01
-2.473198e-01
-2.784806e-01
-3.083535e-01
-3.369513e-01
-3.642829e-01
-3.903558e-01
-4.151778e-01
-4.387579e-01
-4.611077e-01
-4.822416e-01
-5.021780e-01
-5.209391e-01
-5.385518e-01
-5.550468e-01
-5.704575e-01
-5.848167e-01
-5.981499e-01
-6.104624e-01
-6.217147e-01
-6.317780e-01
-6.403562e-01
-6.468691e-01
-6.503761e-01
-6.500687e-01
-6.480994e-01
-6.589138e-01
0.000000e+00
-2.766114e-02
-5.684995e-02
-8.683788e-02
-1.167556e-01
-1.459488e-01
-1.741674e-01
-2.013218e-01
-2.273875e-01
-2.523637e-01
-2.762566e-01
-2.990742e-01
-3.208244e-01
-3.415138e-01
-3.611486e-01
-3.797343e-01
-3.972761e-01
-4.137783e-01
-4.292445e-01
-4.436754e-01
-4.570674e-01
-4.694082e-01
-4.806704e-01
-4.908017e-01
-4.997085e-01
-5.072335e-01
-5.131277e-01
-5.170310e-01
-5.185214e-01
-5.174151e-01
-5.147280e-01
-5.145676e-01
-5.248710e-01
0.000000e+00
-2.146892e-02
-4.396104e-02
-6.717170e-02
-9.057099e-02
-1.136834e-01
-1.361899e-01
-1.579292e-01
-1.788277e-01
-1.988574e-01
-2.180106e-01
-2.362885e-01
-2.536945e-01
-2.702315e-01
-2.859006e-01
-3.007003e-01
-3.146262e-01
-3.276696e-01
-3.398173e-01
-3.510488e-01
-3.613339e-01
-3.706287e-01
-3.788696e-01
-3.859661e-01
-3.917927e-01
-3.961847e-01
-3.989484e-01
-3.999179e-01
-3.991225e-01
-3.971764e-01
-3.959139e-01
-3.988295e-01
-4.076187e-01
0.000000e+00
-1.577842e-02
-3.223286e-02
-4.921595e-02
-6.643427e-02
-8.356640e-02
-1.003572e-01
-1.166408e-01
-1.323261e-01
-1.473690e-01
-1.617506e-01
-1.754644e-01
-1.885081e-01
-2.008794e-01
-2.125734e-01
-2.235820e-01
-2.338921e-01
-2.434847e-01
-2.523340e-01
-2.604053e-01
-2.676532e-01
-2.740188e-01
-2.794279e-01
-2.837897e-01
-2.870006e-01
-2.889598e-01
-2.896098e-01
-2.890265e-01
-2.875888e-01
-2.862209e-01
-2.865540e-01
-2.902708e-01
-2.975433e-01
0.000000e+00
-1.038411e-02
-2.117896e-02
-3.231626e-02
-4.363722e-02
-5.495127e-02
-6.608779e-02
-7.692241e-02
-8.737728e-02
-9.740947e-02
-1.069973e-01
-1.161297e-01
-1.247999e-01
-1.330005e-01
-1.407217e-01
-1.479494e-01
-1.546640e-01
-1.608397e-01
-1.664434e-01
-1.714338e-01
-1.757609e-01
-1.793658e-01
-1.821831e-01
-1.841464e-01
-1.852012e-01
-1.853321e-01
-1.846109e-01
-1.832762e-01
-1.818361e-01
-1.811380e-01
-1.822271e-01
-1.858459e-01
-1.917164e-01
0.000000e+00
-5.157784e-03
-1.051057e-02
-1.603084e-02
-2.164888e-02
-2.727595e-02
-3.282777e-02
-3.823838e-02
-4.346322e-02
-4.847508e-02
-5.325781e-02
-5.780076e-02
-6.209462e-02
-6.612874e-02
-6.988937e-02
-7.335846e-02
-7.651272e-02
-7.932303e-02
-8.175408e-02
-8.376445e-02
-8.530768e-02
-8.633490e-02
-8.680023e-02
-8.667080e-02
-8.594408e-02
-8.467551e-02
-8.301862e-02
-8.127281e-02
-7.991754e-02
-7.957804e-02
-8.085592e-02
-8.401279e-02
-8.867092e-02
0.000000e+00
-8.322130e-06
-1.804470e-05
-2.862910e-05
-3.951862e-05
-4.996259e-05
-5.882972e-05
-6.440090e-05
-6.412696e-05
-5.433723e-05
-2.988758e-05
1.625810e-05
9.351238e-05
2.142041e-04
3.941475e-04
6.531914e-04
1.015664e-03
1.510574e-03
2.171354e-03
3.034805e-03
4.138769e-03
5.517783e-03
7.195767e-03
9.174542e-03
1.141704e-02
1.382503e-02
1.621415e-02
1.829564e-02
1.968512e-02
1.996690e-02
1.883234e-02
1.626290e-02
1.266427e-02
0.000000e+00
5.142109e-03
1.047651e-02
1.597669e-02
2.157397e-02
2.718097e-02
3.271552e-02
3.811485e-02
4.333917e-02
4.836813e-02
5.319522e-02
5.782299e-02
6.225983e-02
6.651832e-02
7.061454e-02
7.456795e-02
7.840139e-02
8.214089e-02
8.581494e-02
8.945293e-02
9.308202e-02
9.672221e-02
1.003787e-01
1.040311e-01
1.076202e-01
1.110326e-01
1.140897e-01
1.165486e-01
1.181285e-01
1.185758e-01
1.177657e-01
1.158138e-01
1.131429e-01
0.000000e+00
1.037130e-02
2.115094e-02
3.227140e-02
4.357467e-02
5.487123e-02
6.599209e-02
7.681541e-02
8.726714e-02
9.730984e-02
1.069296e-01
1.161261e-01
1.249070e-01
1.332839e-01
1.412716e-01
1.488871e-01
1.561495e-01
1.630795e-01
1.696985e-01
1.760271e-01
1.820817e-01
1.878700e-01
1.933840e-01
1.985920e-01
2.034285e-01
2.077863e-01
2.115138e-01
2.144251e-01
2.163306e-01
2.170925e-01
2.167008e-01
2.153502e-01
2.134860e-01
0.000000e+00
1.577025e-02
3.221466e-02
4.918631e-02
6.639219e-02
8.351148e-02
1.002900e-01
1.165634e-01
1.322431e-01
1.472882e-01
1.616850e-01
1.754338e-01
1.885416e-01
2.010186e-01
2.128765e-01
2.241280e-01
2.347863e-01
2.448649e-01
2.543768e-01
2.633328e-01
2.717394e-01
2.795945e-01
2.868828e-01
2.935702e-01
2.995973e-01
3.048767e-01
3.092946e-01
3.127233e-01
3.150485e-01
3.162136e-01
3.162792e-01
3.154869e-01
3.143088e-01
0.000000e+00
2.146689e-02
4.395596e-02
6.716261e-02
9.055695e-02
1.136636e-01
1.361639e-01
1.578968e-01
1.787897e-01
1.988153e-01
2.179679e-01
2.362506e-01
2.536700e-01
2.702335e-01
2.859480e-01
3.008199e-01
3.148548e-01
3.280573e-01
3.404306e-01
3.519752e-01
3.626878e-01
3.725584e-01
3.815680e-01
3.896855e-01
3.968653e-01
4.030472e-01
4.081603e-01
4.121342e-01
4.149192e-01
4.165192e-01
4.170382e-01
4.167407e-01
4.161201e-01
0.000000e+00
2.766628e-02
5.686040e-02
8.685342e-02
1.167758e-01
1.459731e-01
1.741949e-01
2.013511e-01
2.274165e-01
2.523887e-01
2.762723e-01
2.990727e-01
3.207941e-01
3.414391e-01
3.610079e-01
3.794990e-01
3.969089e-01
4.132318e-01
4.284598e-01
4.425820e-01
4.555841e-01
4.674481e-01
4.781514e-01
4.876670e-01
4.959646e-01
5.030130e-01
5.087858e-01
5.132700e-01
5.164793e-01
5.184738e-01
5.193912e-01
5.195006e-01
5.192947e-01
0.000000e+00
3.487610e-02
7.180179e-02
1.093988e-01
1.459328e-01
1.811218e-01
2.149429e-01
2.474268e-01
2.786003e-01
3.084797e-01
3.370732e-01
3.643830e-01
3.904073e-01
4.151411e-01
4.385766e-01
4.607033e-01
4.815076e-01
5.009723e-01
5.190770e-01
5.357975e-01
5.511064e-01
5.649739e-01
5.773699e-01
5.882665e-01
5.976431e-01
6.054927e-01
6.118292e-01
6.166976e-01
6.201818e-01
6.224134e-01
6.235814e-01
6.239618e-01
6.240072e-01
0.000000e+00
4.397180e-02
9.148999e-02
1.362975e-01
1.788899e-01
2.196726e-01
2.588602e-01
2.965458e-01
3.327647e-01
3.675250e-01
4.008230e-01
4.326493e-01
4.629921e-01
4.918374e-01
5.191688e-01
5.449668e-01
5.692080e-01
5.918638e-01
6.129001e-01
6.322773e-01
6.499507e-01
6.658726e-01
6.799961e-01
6.922807e-01
7.027009e-01
7.112572e-01
7.179901e-01
7.229943e-01
7.264320e-01
7.285383e-01
7.296145e-01
7.300047e-01
7.301002e-01
0.000000e+00
6.557588e-02
1.189894e-01
1.684784e-01
2.159821e-01
2.618624e-01
3.062116e-01
3.490254e-01
3.902753e-01
4.299284e-01
4.679541e-01
5.043260e-01
5.390206e-01
5.720159e-01
6.032887e-01
6.328130e-01
6.605573e-01
6.864830e-01
7.105427e-01
7.326794e-01
7.528264e-01
7.709096e-01
7.868514e-01
8.005787e-01
8.120348e-01
8.211965e-01
8.280966e-01
8.328500e-01
8.356833e-01
8.369599e-01
8.371919e-01
8.369997e-01
8.368916e-01
0.000000e+00
-4.051192e-02
-7.070217e-02
-1.036471e-01
-1.403334e-01
-1.817741e-01
-2.282574e-01
-2.798640e-01
-3.365426e-01
-3.981716e-01
-4.645877e-01
-5.356030e-01
-6.110149e-01
-6.906123e-01
-7.741800e-01
-8.615013e-01
-9.523606e-01
-1.046546e+00
-1.143853e+00
-1.244090e+00
-1.347081e+00
-1.452680e+00
-1.560781e+00
-1.671344e+00
-1.784424e+00
-1.900229e+00
-2.019221e+00
-2.142297e+00
-2.271175e+00
-2.409258e+00
-2.563886e+00
-2.752377e+00
-3.012783e+00
0.000000e+00
-2.517662e-02
-5.677786e-02
-8.994501e-02
-1.271425e-01
-1.690335e-01
-2.159684e-01
-2.680266e-01
-3.251614e-01
-3.872510e-01
-4.541313e-01
-5.256128e-01
-6.014913e-01
-6.815538e-01
-7.655831e-01
-8.533603e-01
-9.446673e-01
-1.039289e+00
-1.137017e+00
-1.237654e+00
-1.341020e+00
-1.446959e+00
-1.555358e+00
-1.666162e+00
-1.779413e+00
-1.895299e+00
-2.014258e+00
-2.137160e+00
-2.265687e+00
-2.403184e+00
-2.556618e+00
-2.740913e+00
-2.984199e+00
0.000000e+00
-1.849369e-02
-4.577408e-02
-7.848876e-02
-1.157512e-01
-1.579508e-01
-2.052561e-01
-2.577111e-01
-3.152527e-01
-3.777537e-01
-4.450470e-01
-5.169416e-01
-5.932323e-01
-6.737056e-01
-7.581434e-01
-8.463259e-01
-9.380339e-01
-1.033051e+00
-1.131168e+00
-1.232185e+00
-1.335921e+00
-1.442219e+00
-1.550965e+00
-1.662107e+00
-1.775689e+00
-1.891914e+00
-2.011235e+00
-2.134546e+00
-2.263509e+00
-2.401136e+00
-2.552573e+00
-2.723903e+00
-2.913958e+00
0.000000e+00
-1.480900e-02
-3.876146e-02
-6.973161e-02
-1.065152e-01
-1.487016e-01
-1.962093e-01
-2.489581e-01
-3.068346e-01
-3.696880e-01
-4.373408e-01
-5.095972e-01
-5.862503e-01
-6.670860e-01
-7.518866e-01
-8.404328e-01
-9.325062e-01
-1.027891e+00
-1.126380e+00
-1.227774e+00
-1.331893e+00
-1.438587e+00
-1.547746e+00
-1.659326e+00
-1.773383e+00
-1.890128e+00
-2.010012e+00
-2.133857e+00
-2.263023e+00
-2.399495e+00
-2.545174e+00
-2.698819e+00
-2.841846e+00
0.000000e+00
-1.253089e-02
-3.417546e-02
-6.351301e-02
-9.945804e-02
-1.413679e-01
-1.888934e-01
-2.418136e-01
-2.999374e-01
-3.630746e-01
-4.310280e-01
-5.035928e-01
-5.805583e-01
-6.617098e-01
-7.468303e-01
-8.357022e-01
-9.281090e-01
-1.023838e+00
-1.122683e+00
-1.224451e+00
-1.328965e+00
-1.436078e+00
-1.545686e+00
-1.657747e+00
-1.772314e+00
-1.889572e+00
-2.009888e+00
-2.133854e+00
-2.262253e+00
-2.395713e+00
-2.533600e+00
-2.670849e+00
-2.795411e+00
0.000000e+00
-1.108131e-02
-3.116649e-02
-5.923366e-02
-9.436954e-02
-1.358868e-01
-1.833089e-01
-2.362969e-01
-2.945834e-01
-3.579334e-01
-4.261250e-01
-4.989414e-01
-5.761668e-01
-6.575855e-01
-7.429815e-01
-8.321394e-01
-9.248457e-01
-1.020891e+00
-1.120072e+00
-1.222198e+00
-1.327095e+00
-1.434619e+00
-1.544660e+00
-1.657166e+00
-1.772156e+00
-1.889742e+00
-2.010130e+00
-2.133582e+00
-2.260238e+00
-2.389673e+00
-2.519914e+00
-2.646309e+00
-2.761832e+00
0.000000e+00
-1.018041e-02
-2.926407e-02
-5.645199e-02
-9.096063e-02
-1.321201e-01
-1.794014e-01
-2.323960e-01
-2.907787e-01
-3.542759e-01
-4.226432e-01
-4.956518e-01
-5.730811e-01
-6.547145e-01
-7.403371e-01
-8.297362e-01
-9.227008e-01
-1.019024e+00
-1.118507e+00
-1.220957e+00
-1.326202e+00
-1.434089e+00
-1.544496e+00
-1.657339e+00
-1.772580e+00
-1.890221e+00
-2.010272e+00
-2.132664e+00
-2.257045e+00
-2.382401e+00
-2.506565e+00
-2.625956e+00
-2.736188e+00
0.000000e+00
-9.685356e-03
-2.820845e-02
-5.488446e-02
-8.900591e-02
-1.299260e-01
-1.770989e-01
-2.300817e-01
-2.885164e-01
-3.521047e-01
-4.205870e-01
-4.937267e-01
-5.713002e-01
-6.530906e-01
-7.388849e-01
-8.284724e-01
-9.216450e-01
-1.018198e+00
-1.117931e+00
-1.220653e+00
-1.326183e+00
-1.434355e+00
-1.545022e+00
-1.658056e+00
-1.773344e+00
-1.890767e+00
-2.010153e+00
-2.131176e+00
-2.253190e+00
-2.374995e+00
-2.494634e+00
-2.609416e+00
-2.716346e+00
0.000000e+00
-9.525850e-03
-2.786789e-02
-5.437641e-02
-8.836884e-02
-1.292079e-01
-1.763446e-01
-2.293267e-01
-2.877860e-01
-3.514168e-01
-4.199552e-01
-4.931630e-01
-5.708168e-01
-6.527012e-01
-7.386053e-01
-8.283205e-01
-9.216404e-01
-1.018361e+00
-1.118280e+00
-1.221202e+00
-1.326935e+00
-1.435293e+00
-1.546097e+00
-1.659168e+00
-1.774314e+00
-1.891308e+00
-2.009830e+00
-2.129393e+00
-2.249225e+00
-2.368144e+00
-2.484495e+00
-2.596225e+00
-2.701140e+00
0.000000e+00
-9.680742e-03
-2.820205e-02
-5.487894e-02
-8.900424e-02
-1.299319e-01
-1.771171e-01
-2.301187e-01
-2.885806e-01
-3.522073e-01
-4.207423e-01
-4.939527e-01
-5.716191e-01
-6.535293e-01
-7.394748e-01
-8.292489e-01
-9.226461e-01
-1.019461e+00
-1.119490e+00
-1.222528e+00
-1.328370e+00
-1.436807e+00
-1.547625e+00
-1.660592e+00
-1.775449e+00
-1.891876e+00
-2.009455e+00
-2.127615e+00
-2.245559e+00
-2.362213e+00
-2.476213e+00
-2.585969e+00
-2.689806e+00
0.000000e+00
-1.017156e-02
-2.925178e-02
-5.644136e-02
-9.095729e-02
-1.321311e-01
-1.794360e-01
-2.324664e-01
-2.909014e-01
-3.544721e-01
-4.229404e-01
-4.960847e-01
-5.736924e-01
-6.555557e-01
-7.414687e-01
-8.312264e-01
-9.246231e-01
-1.021452e+00
-1.121505e+00
-1.224567e+00
-1.330419e+00
-1.438829e+00
-1.549548e+00
-1.662300e+00
-1.776765e+00
-1.892558e+00
-2.009202e+00
-2.126090e+00
-2.242460e+00
-2.357370e+00
-2.469718e+00
-2.578276e+00
-2.681761e+00
0.000000e+00
-1.106900e-02
-3.114941e-02
-5.921881e-02
-9.436474e-02
-1.359018e-01
-1.833568e-01
-2.363948e-01
-2.947542e-01
-3.582070e-01
-4.265399e-01
-4.995461e-01
-5.770212e-01
-6.587620e-01
-7.445649e-01
-8.342258e-01
-9.275388e-01
-1.024295e+00
-1.124279e+00
-1.227271e+00
-1.333034e+00
-1.441317e+00
-1.551841e+00
-1.664292e+00
-1.778305e+00
-1.893451e+00
-2.009218e+00
-2.124998e+00
-2.240081e+00
-2.353662e+00
-2.464868e+00
-2.572789e+00
-2.676487e+00
0.000000e+00
-1.251639e-02
-3.415536e-02
-6.349552e-02
-9.945248e-02
-1.413861e-01
-1.889511e-01
-2.419317e-01
-3.001436e-01
-3.634051e-01
-4.315294e-01
-5.043238e-01
-5.815916e-01
-6.631330e-01
-7.487463e-01
-8.382276e-01
-9.313701e-01
-1.027962e+00
-1.127785e+00
-1.230609e+00
-1.336187e+00
-1.444249e+00
-1.554496e+00
-1.666583e+00
-1.780115e+00
-1.894633e+00
-2.009610e+00
-2.124447e+00
-2.238491e+00
-2.351059e+00
-2.461484e+00
-2.569146e+00
-2.673469e+00
0.000000e+00
-1.479410e-02
-3.874082e-02
-6.971383e-02
-1.065104e-01
-1.487230e-01
-1.962743e-01
-2.490899e-01
-3.070639e-01
-3.700548e-01
-4.378965e-01
-5.104068e-01
-5.873937e-01
-6.686599e-01
-7.540043e-01
-8.432226e-01
-9.361068e-01
-1.032443e+00
-1.132009e+00
-1.234569e+00
-1.339866e+00
-1.447621e+00
-1.557516e+00
-1.669188e+00
-1.782225e+00
-1.896149e+00
-2.010428e+00
-2.124477e+00
-2.237689e+00
-2.349480e+00
-2.459356e+00
-2.566971e+00
-2.672154e+00
0.000000e+00
-1.848071e-02
-4.575600e-02
-7.847374e-02
-1.157498e-01
-1.579768e-01
-2.053279e-01
-2.578530e-01
-3.154964e-01
-3.781407e-01
-4.456305e-01
-5.177884e-01
-5.944248e-01
-6.753427e-01
-7.603410e-01
-8.492145e-01
-9.417539e-01
-1.037744e+00
-1.136958e+00
-1.239158e+00
-1.344081e+00
-1.451440e+00
-1.560910e+00
-1.672118e+00
-1.784642e+00
-1.898000e+00
-2.011659e+00
-2.125050e+00
-2.237599e+00
-2.348789e+00
-2.458252e+00
-2.565877e+00
-2.671924e+00
0.000000e+00
-2.516828e-02
-5.676556e-02
-8.993617e-02
-1.271480e-01
-1.690674e-01
-2.160493e-01
-2.681788e-01
-3.254166e-01
-3.876504e-01
-4.547273e-01
-5.264710e-01
-6.026917e-01
-6.831925e-01
-7.677712e-01
-8.562218e-01
-9.483337e-01
-1.043889e+00
-1.142661e+00
-1.244406e+00
-1.348861e+00
-1.455734e+00
-1.564697e+00
-1.675376e+00
-1.787349e+00
-1.900136e+00
-2.013215e+00
-2.126031e+00
-2.238037e+00
-2.348757e+00
-2.457893e+00
-2.565482e+00
-2.672119e+00
0.000000e+00
-4.051073e-02
-7.069807e-02
-1.036479e-01
-1.403499e-01
-1.818207e-01
-2.283525e-01
-2.800317e-01
-3.368140e-01
-3.985867e-01
-4.651970e-01
-5.364689e-01
-6.122129e-01
-6.922318e-01
-7.763227e-01
-8.642785e-01
-9.558867e-01
-1.050928e+00
-1.149172e+00
-1.250373e+00
-1.354267e+00
-1.460558e+00
-1.568919e+00