TITLE = "Solution"
VARIABLES = x, y, u, v, psiu, psiv, t, stress
ZONE T="structure" N=153 E=128 F=FEBLOCK ET=QUADRILATERAL VARLOCATION=([7,8]=cellcentered)
0.000000e+00
1.250000e+01
2.500000e+01
3.750000e+01
5.000000e+01
6.250000e+01
7.500000e+01
8.750000e+01
1.000000e+02
1.125000e+02
1.250000e+02
1.375000e+02
1.500000e+02
1.625000e+02
1.750000e+02
1.875000e+02
2.000000e+02
0.000000e+00
1.250000e+01
2.500000e+01
3.750000e+01
5.000000e+01
6.250000e+01
7.500000e+01
8.750000e+01
1.000000e+02
1.125000e+02
1.250000e+02
1.375000e+02
1.500000e+02
1.625000e+02
1.750000e+02
1.875000e+02
2.000000e+02
0.000000e+00
1.250000e+01
2.500000e+01
3.750000e+01
5.000000e+01
6.250000e+01
7.500000e+01
8.750000e+01
1.000000e+02
1.125000e+02
1.250000e+02
1.375000e+02
1.500000e+02
1.625000e+02
1.750000e+02
1.875000e+02
2.000000e+02
0.000000e+00
1.250000e+01
2.500000e+01
3.750000e+01
5.000000e+01
6.250000e+01
7.500000e+01
8.750000e+01
1.000000e+02
1.125000e+02
1.250000e+02
1.375000e+02
1.500000e+02
1.625000e+02
1.750000e+02
1.875000e+02
2.000000e+02
0.000000e+00
1.250000e+01
2.500000e+01
3.750000e+01
5.000000e+01
6.250000e+01
7.500000e+01
8.750000e+01
1.000000e+02
1.125000e+02
1.250000e+02
1.375000e+02
1.500000e+02
1.625000e+02
1.750000e+02
1.875000e+02
2.000000e+02
0.000000e+00
1.250000e+01
2.500000e+01
3.750000e+01
5.000000e+01
6.250000e+01
7.500000e+01
8.750000e+01
1.000000e+02
1.125000e+02
1.250000e+02
1.375000e+02
1.500000e+02
1.625000e+02
1.750000e+02
1.875000e+02
2.000000e+02
0.000000e+00
1.250000e+01
2.500000e+01
3.750000e+01
5.000000e+01
6.250000e+01
7.500000e+01
8.750000e+01
1.000000e+02
1.125000e+02
1.250000e+02
1.375000e+02
1.500000e+02
1.625000e+02
1.750000e+02
1.875000e+02
2.000000e+02
0.000000e+00
1.250000e+01
2.500000e+01
3.750000e+01
5.000000e+01
6.250000e+01
7.500000e+01
8.750000e+01
1.000000e+02
1.125000e+02
1.250000e+02
1.375000e+02
1.500000e+02
1.625000e+02
1.750000e+02
1.875000e+02
2.000000e+02
0.000000e+00
1.250000e+01
2.500000e+01
3.750000e+01
5.000000e+01
6.250000e+01
7.500000e+01
8.750000e+01
1.000000e+02
1.125000e+02
1.250000e+02
1.375000e+02
1.500000e+02
1.625000e+02
1.750000e+02
1.875000e+02
2.000000e+02
0.000000e+00
0.000000e+00
0.000000e+00
0.000000e+00
0.000000e+00
0.000000e+00
0.000000e+00
0.000000e+00
0.000000e+00
0.000000e+00
0.000000e+00
0.000000e+00
0.000000e+00
0.000000e+00
0.000000e+00
0.000000e+00
0.000000e+00
1.250000e+01
1.250000e+01
1.250000e+01
1.250000e+01
1.250000e+01
1.250000e+01
1.250000e+01
1.250000e+01
1.250000e+01
1.250000e+01
1.250000e+01
1.250000e+01
1.250000e+01
1.250000e+01
1.250000e+01
1.250000e+01
1.250000e+01
2.500000e+01
2.500000e+01
2.500000e+01
2.500000e+01
2.500000e+01
2.500000e+01
2.500000e+01
2.500000e+01
2.500000e+01
2.500000e+01
2.500000e+01
2.500000e+01
2.500000e+01
2.500000e+01
2.500000e+01
2.500000e+01
2.500000e+01
3.750000e+01
3.750000e+01
3.750000e+01
3.750000e+01
3.750000e+01
3.750000e+01
3.750000e+01
3.750000e+01
3.750000e+01
3.750000e+01
3.750000e+01
3.750000e+01
3.750000e+01
3.750000e+01
3.750000e+01
3.750000e+01
3.750000e+01
5.000000e+01
5.000000e+01
5.000000e+01
5.000000e+01
5.000000e+01
5.000000e+01
5.000000e+01
5.000000e+01
5.000000e+01
5.000000e+01
5.000000e+01
5.000000e+01
5.000000e+01
5.000000e+01
5.000000e+01
5.000000e+01
5.000000e+01
6.250000e+01
6.250000e+01
6.250000e+01
6.250000e+01
6.250000e+01
6.250000e+01
6.250000e+01
6.250000e+01
6.250000e+01
6.250000e+01
6.250000e+01
6.250000e+01
6.250000e+01
6.250000e+01
6.250000e+01
6.250000e+01
6.250000e+01
7.500000e+01
7.500000e+01
7.500000e+01
7.500000e+01
7.500000e+01
7.500000e+01
7.500000e+01
7.500000e+01
7.500000e+01
7.500000e+01
7.500000e+01
7.500000e+01
7.500000e+01
7.500000e+01
7.500000e+01
7.500000e+01
7.500000e+01
8.750000e+01
8.750000e+01
8.750000e+01
8.750000e+01
8.750000e+01
8.750000e+01
8.750000e+01
8.750000e+01
8.750000e+01
8.750000e+01
8.750000e+01
8.750000e+01
8.750000e+01
8.750000e+01
8.750000e+01
8.750000e+01
8.750000e+01
1.000000e+02
1.000000e+02
1.000000e+02
1.000000e+02
1.000000e+02
1.000000e+02
1.000000e+02
1.000000e+02
1.000000e+02
1.000000e+02
1.000000e+02
1.000000e+02
1.000000e+02
1.000000e+02
1.000000e+02
1.000000e+02
1.000000e+02
0.000000e+00
-5.870558e-01
-1.092348e+00
-1.530684e+00
-1.986080e+00
-2.397857e+00
-2.778570e+00
-3.128310e+00
-3.446322e+00
-3.732500e+00
-3.988410e+00
-4.218255e+00
-4.430183e+00
-4.638797e+00
-4.869490e+00
-5.152169e+00
-5.363991e+00
0.000000e+00
-3.857225e-01
-7.533086e-01
-1.064505e+00
-1.376319e+00
-1.698687e+00
-1.991134e+00
-2.256899e+00
-2.497096e+00
-2.711979e+00
-2.902120e+00
-3.068498e+00
-3.211913e+00
-3.330704e+00
-3.414442e+00
-3.432798e+00
-3.498367e+00
0.000000e+00
-2.595288e-01
-4.712045e-01
-6.500886e-01
-8.403969e-01
-1.061979e+00
-1.264870e+00
-1.446157e+00
-1.607282e+00
-1.748488e+00
-1.869171e+00
-1.967670e+00
-2.040462e+00
-2.081130e+00
-2.082332e+00
-2.066204e+00
-2.133122e+00
0.000000e+00
-1.105610e-01
-2.024269e-01
-2.803306e-01
-3.718197e-01
-4.816056e-01
-5.873739e-01
-6.804607e-01
-7.608955e-01
-8.282934e-01
-8.813092e-01
-9.176931e-01
-9.346377e-01
-9.308535e-01
-9.148726e-01
-9.192409e-01
-9.691349e-01
0.000000e+00
1.972778e-02
3.941606e-02
5.197704e-02
5.980972e-02
6.069382e-02
5.997382e-02
5.877747e-02
5.977010e-02
6.457612e-02
7.472217e-02
9.166042e-02
1.156694e-01
1.430248e-01
1.619805e-01
1.567943e-01
1.237157e-01
0.000000e+00
1.208654e-01
2.472673e-01
3.694315e-01
4.911051e-01
6.037093e-01
7.039487e-01
7.940670e-01
8.756915e-01
9.503625e-01
1.019176e+00
1.082556e+00
1.139262e+00
1.184839e+00
1.211684e+00
1.213822e+00
1.197023e+00
0.000000e+00
2.315650e-01
4.750257e-01
7.212074e-01
9.547607e-01
1.171761e+00
1.370292e+00
1.549777e+00
1.710690e+00
1.853362e+00
1.977893e+00
2.083882e+00
2.170009e+00
2.233732e+00
2.271997e+00
2.284427e+00
2.280515e+00
0.000000e+00
3.636154e-01
7.561000e-01
1.122584e+00
1.466351e+00
1.786722e+00
2.081931e+00
2.350253e+00
2.590253e+00
2.800691e+00
2.980265e+00
3.127583e+00
3.241403e+00
3.321332e+00
3.369006e+00
3.389331e+00
3.393065e+00
0.000000e+00
6.057158e-01
1.115153e+00
1.589953e+00
2.041425e+00
2.466391e+00
2.860323e+00
3.219318e+00
3.540358e+00
3.820821e+00
4.057905e+00
4.248352e+00
4.389048e+00
4.478925e+00
4.522362e+00
4.533061e+00
4.532846e+00
0.000000e+00
-3.647685e-01
-6.820473e-01
-1.114848e+00
-1.686205e+00
-2.372716e+00
-3.150045e+00
-4.015434e+00
-4.962262e+00
-5.982545e+00
-7.068236e+00
-8.212615e+00
-9.412889e+00
-1.067566e+01
-1.203475e+01
-1.359625e+01
-1.585861e+01
0.000000e+00
-2.295247e-01
-5.669705e-01
-1.002172e+00
-1.571216e+00
-2.266839e+00
-3.053073e+00
-3.927331e+00
-4.883040e+00
-5.912164e+00
-7.006290e+00
-8.158308e+00
-9.364931e+00
-1.063258e+01
-1.199124e+01
-1.354311e+01
-1.545380e+01
0.000000e+00
-1.746627e-01
-4.963919e-01
-9.304153e-01
-1.490993e+00
-2.187041e+00
-2.981810e+00
-3.863609e+00
-4.827194e+00
-5.864432e+00
-6.967099e+00
-8.128341e+00
-9.345194e+00
-1.062303e+01
-1.198299e+01
-1.345117e+01
-1.487037e+01
0.000000e+00
-1.486586e-01
-4.640786e-01
-8.931009e-01
-1.446212e+00
-2.139975e+00
-2.937602e+00
-3.825350e+00
-4.795505e+00
-5.840028e+00
-6.950845e+00
-8.120983e+00
-9.346071e+00
-1.062549e+01
-1.195739e+01
-1.330280e+01
-1.453839e+01
0.000000e+00
-1.446294e-01
-4.533412e-01
-8.831027e-01
-1.438742e+00
-2.128277e+00
-2.923709e+00
-3.813729e+00
-4.787857e+00
-5.837505e+00
-6.954165e+00
-8.129644e+00
-9.356089e+00
-1.062408e+01
-1.191384e+01
-1.317952e+01
-1.434157e+01
0.000000e+00
-1.510920e-01
-4.628893e-01
-9.013939e-01
-1.465897e+00
-2.148908e+00
-2.940642e+00
-3.828738e+00
-4.803240e+00
-5.854547e+00
-6.973181e+00
-8.149020e+00
-9.370224e+00
-1.062062e+01
-1.187521e+01
-1.309585e+01
-1.423207e+01
0.000000e+00
-1.725296e-01
-5.028974e-01
-9.552260e-01
-1.521326e+00
-2.200190e+00
-2.985830e+00
-3.869201e+00
-4.840297e+00
-5.889150e+00
-7.005299e+00
-8.176894e+00
-9.389172e+00
-1.062263e+01
-1.185200e+01
-1.304830e+01
-1.418377e+01
0.000000e+00
-2.263824e-01
-5.897868e-01
-1.043784e+00
-1.606855e+00
-2.279643e+00
-3.057999e+00
-3.934029e+00
-4.898229e+00
-5.940405e+00
-7.049580e+00
-8.212989e+00
-9.414587e+00
-1.063380e+01
-1.184617e+01
-1.302864e+01
-1.417245e+01
0.000000e+00
-3.670375e-01
-7.160508e-01
-1.166812e+00
-1.722998e+00
-2.387908e+00
-3.157237e+00
-4.023543e+00
-4.977545e+00
-6.009050e+00
-7.106880e+00
-8.258011e+00
-9.446296e+00
-1.065162e+01
-1.185110e+01
-1.302504e+01
-1.417264e+01


0.000000e+00
1.280781e-06
2.371954e-06
3.010322e-06
3.663455e-06
4.346466e-06
4.962500e-06
5.446503e-06
5.802407e-06
6.055855e-06
6.232051e-06
6.353046e-06
6.438161e-06
6.504638e-06
6.568120e-06
6.649531e-06
6.749694e-06
0.000000e+00
1.007321e-06
1.823887e-06
2.180580e-06
2.550859e-06
3.072489e-06
3.557928e-06
3.924306e-06
4.180109e-06
4.354468e-06
4.470191e-06
4.543519e-06
4.585630e-06
4.605402e-06
4.625967e-06
4.692394e-06
4.795337e-06
0.000000e+00
6.685781e-07
1.103025e-06
1.304690e-06
1.517296e-06
1.837355e-06
2.140721e-06
2.369832e-06
2.527392e-06
2.630557e-06
2.694274e-06
2.729473e-06
2.744661e-06
2.750221e-06
2.765595e-06
2.818065e-06
2.901032e-06
0.000000e+00
2.111280e-07
3.397575e-07
4.123114e-07
4.844792e-07
5.825406e-07
6.881219e-07
7.759066e-07
8.396669e-07
8.814499e-07
9.057098e-07
9.174324e-07
9.224760e-07
9.284122e-07
9.427510e-07
9.743974e-07
1.024621e-06
0.000000e+00
-1.829640e-07
-3.454235e-07
-4.763686e-07
-6.005005e-07
-7.061788e-07
-7.778599e-07
-8.207228e-07
-8.454913e-07
-8.602827e-07
-8.697664e-07
-8.756082e-07
-8.771741e-07
-8.731652e-07
-8.641319e-07
-8.491694e-07
-8.236052e-07
0.000000e+00
-5.008995e-07
-9.920194e-07
-1.414835e-06
-1.780036e-06
-2.068338e-06
-2.283275e-06
-2.433954e-06
-2.533884e-06
-2.597423e-06
-2.636086e-06
-2.657883e-06
-2.668108e-06
-2.670881e-06
-2.670276e-06
-2.666657e-06
-2.655860e-06
0.000000e+00
-7.979368e-07
-1.704155e-06
-2.439008e-06
-3.025394e-06
-3.479865e-06
-3.819237e-06
-4.061613e-06
-4.227186e-06
-4.335528e-06
-4.403230e-06
-4.443231e-06
-4.465367e-06
-4.477104e-06
-4.483574e-06
-4.485905e-06
-4.482862e-06
0.000000e+00
-9.985545e-07
-2.325239e-06
-3.356365e-06
-4.162844e-06
-4.791755e-06
-5.269308e-06
-5.619802e-06
-5.868353e-06
-6.038632e-06
-6.151023e-06
-6.222229e-06
-6.265498e-06
-6.290836e-06
-6.305051e-06
-6.311648e-06
-6.312612e-06
0.000000e+00
-1.360435e-06
-2.819117e-06
-4.073161e-06
-5.109153e-06
-5.942597e-06
-6.593647e-06
-7.087189e-06
-7.449444e-06
-7.706457e-06
-7.882441e-06
-7.998515e-06
-8.071938e-06
-8.115771e-06
-8.139058e-06
-8.148092e-06
-8.149715e-06
0.000000e+00
1.010809e-06
1.571138e-06
2.317110e-06
3.479704e-06
4.879611e-06
6.372395e-06
7.947059e-06
9.607609e-06
1.133865e-05
1.312065e-05
1.493929e-05
1.678888e-05
1.868194e-05
2.067284e-05
2.279327e-05
2.494467e-05
0.000000e+00
5.442596e-07
1.258388e-06
2.092322e-06
3.206530e-06
4.594900e-06
6.130679e-06
7.768607e-06
9.482545e-06
1.125351e-05
1.306443e-05
1.490339e-05
1.676581e-05
1.865818e-05
2.060624e-05
2.266338e-05
2.477730e-05
0.000000e+00
2.992610e-07
1.035109e-06
1.943133e-06
3.032232e-06
4.391198e-06
5.955835e-06
7.638688e-06
9.393219e-06
1.119475e-05
1.302786e-05
1.488252e-05
1.675386e-05
1.863936e-05
2.054095e-05
2.252593e-05
2.457995e-05
0.000000e+00
2.042381e-07
9.209992e-07
1.853433e-06
2.962486e-06
4.322984e-06
5.890754e-06
7.586031e-06
9.355657e-06
1.117053e-05
1.301386e-05
1.487525e-05
1.674776e-05
1.862378e-05
2.050101e-05
2.242997e-05
2.440955e-05
0.000000e+00
1.867085e-07
8.685282e-07
1.817820e-06
2.973468e-06
4.350327e-06
5.907638e-06
7.593025e-06
9.357960e-06
1.117168e-05
1.301512e-05
1.487597e-05
1.674534e-05
1.861521e-05
2.048290e-05
2.237688e-05
2.429028e-05
0.000000e+00
2.104765e-07
8.984441e-07
1.879563e-06
3.068107e-06
4.444226e-06
5.983248e-06
7.645644e-06
9.392560e-06
1.119414e-05
1.302968e-05
1.488481e-05
1.674912e-05
1.861483e-05
2.047907e-05
2.235185e-05
2.422231e-05
0.000000e+00
3.361998e-07
1.099867e-06
2.092066e-06
3.261414e-06
4.607975e-06
6.111183e-06
7.738242e-06
9.455930e-06
1.123606e-05
1.305672e-05
1.490160e-05
1.675875e-05
1.861982e-05
2.048039e-05
2.234061e-05
2.419052e-05
0.000000e+00
6.911436e-07
1.581599e-06
2.510002e-06
3.604554e-06
4.878539e-06
6.315205e-06
7.884982e-06
9.557032e-06
1.130306e-05
1.309936e-05
1.492740e-05
1.677335e-05
1.862742e-05
2.048317e-05
2.233617e-05
2.417977e-05
0.000000e+00
1.303780e-06
2.206606e-06
3.049473e-06
4.042132e-06
5.220374e-06
6.571866e-06
8.070763e-06
9.686675e-06
1.139013e-05
1.315533e-05
1.496146e-05
1.679268e-05
1.863739e-05
2.048729e-05
2.233583e-05
2.417806e-05


1.843471e+00
1.874090e+00
1.867203e+00
1.906792e+00
1.888125e+00
1.878212e+00
1.881102e+00
1.888372e+00
1.894892e+00
1.899496e+00
1.902414e+00
1.904032e+00
1.904284e+00
1.902058e+00
1.897663e+00
1.894370e+00
1.859105e+00
1.771329e+00
1.741691e+00
1.799709e+00
1.893369e+00
1.883034e+00
1.885165e+00
1.891493e+00
1.897090e+00
1.900947e+00
1.903322e+00
1.904567e+00
1.904571e+00
1.902192e+00
1.897844e+00
1.894636e+00
1.843019e+00
1.728527e+00
1.608900e+00
1.746118e+00
1.871362e+00
1.891395e+00
1.892758e+00
1.897083e+00
1.900779e+00
1.903219e+00
1.904624e+00
1.905264e+00
1.905023e+00
1.902983e+00
1.899454e+00
1.896950e+00
1.893160e+00
1.789586e+00
1.741909e+00
1.797803e+00
1.900733e+00
1.897247e+00
1.898622e+00
1.901243e+00
1.903328e+00
1.904632e+00
1.905327e+00
1.905564e+00
1.905320e+00
1.904087e+00
1.902043e+00
1.900620e+00
1.881349e+00
1.884587e+00
1.861849e+00
1.893039e+00
1.893833e+00
1.895716e+00
1.898693e+00
1.901415e+00
1.903347e+00
1.904563e+00
1.905216e+00
1.905490e+00
1.905457e+00
1.904968e+00
1.904126e+00
1.903418e+00
1.846201e+00
1.846986e+00
1.855139e+00
1.867196e+00
1.877156e+00
1.885370e+00
1.892121e+00
1.897237e+00
1.900807e+00
1.903103e+00
1.904466e+00
1.905192e+00
1.905523e+00
1.905538e+00
1.904975e+00
1.904430e+00
1.804866e+00
1.805424e+00
1.817927e+00
1.838710e+00
1.856823e+00
1.871165e+00
1.882446e+00
1.890951e+00
1.896958e+00
1.900929e+00
1.903366e+00
1.904763e+00
1.905500e+00
1.905740e+00
1.905358e+00
1.904496e+00
1.782248e+00
1.782848e+00
1.798183e+00
1.823285e+00
1.845313e+00
1.862828e+00
1.876619e+00
1.887079e+00
1.894553e+00
1.899550e+00
1.902672e+00
1.904488e+00
1.905470e+00
1.905959e+00
1.905645e+00
1.905170e+00


1.539234e-01
3.349777e-01
5.082509e-01
4.863753e-01
5.282519e-01
6.027382e-01
6.673584e-01
7.260009e-01
7.789811e-01
8.248740e-01
8.622250e-01
8.899961e-01
9.074735e-01
9.139617e-01
9.188522e-01
6.427849e-01
6.257196e-01
6.921519e-01
7.801087e-01
7.676836e-01
7.243567e-01
7.674150e-01
8.072044e-01
8.413297e-01
8.724299e-01
9.010416e-01
9.273863e-01
9.515055e-01
9.727080e-01
9.866673e-01
9.517606e-01
4.784392e-01
8.749762e-01
9.040433e-01
9.237559e-01
9.017731e-01
8.603437e-01
8.739017e-01
8.932316e-01
9.093997e-01
9.241737e-01
9.383067e-01
9.514752e-01
9.616877e-01
9.637858e-01
9.452235e-01
8.781723e-01
7.577071e-01
9.829011e-01
9.710629e-01
9.649314e-01
9.481360e-01
9.252947e-01
9.274336e-01
9.331933e-01
9.375063e-01
9.407217e-01
9.430625e-01
9.436481e-01
9.403177e-01
9.299186e-01
9.113888e-01
8.958167e-01
8.919675e-01
9.690066e-01
9.448051e-01
9.392348e-01
9.317037e-01
9.267171e-01
9.291208e-01
9.314103e-01
9.327921e-01
9.325539e-01
9.306409e-01
9.268795e-01
9.214313e-01
9.162496e-01
9.172875e-01
9.319048e-01
9.571359e-01
8.797459e-01
8.501502e-01
8.464652e-01
8.513044e-01
8.621820e-01
8.759442e-01
8.889726e-01
8.996075e-01
9.075731e-01
9.129223e-01
9.163298e-01
9.197073e-01
9.268073e-01
9.416523e-01
9.639168e-01
9.868938e-01
6.793832e-01
6.273553e-01
6.555461e-01
6.913913e-01
7.280749e-01
7.651832e-01
8.012136e-01
8.344104e-01
8.639634e-01
8.895545e-01
9.113920e-01
9.305447e-01
9.490040e-01
9.683325e-01
9.863806e-01
9.977252e-01
1.707804e-01
2.878496e-01
3.820798e-01
4.466411e-01
5.131824e-01
5.829902e-01
6.535802e-01
7.219016e-01
7.858083e-01
8.440070e-01
8.952759e-01
9.378301e-01
9.694701e-01
9.889757e-01
9.978429e-01
9.999545e-01
1 2 19 18
2 3 20 19
3 4 21 20
4 5 22 21
5 6 23 22
6 7 24 23
7 8 25 24
8 9 26 25
9 10 27 26
10 11 28 27
11 12 29 28
12 13 30 29
13 14 31 30
14 15 32 31
15 16 33 32
16 17 34 33
18 19 36 35
19 20 37 36
20 21 38 37
21 22 39 38
22 23 40 39
23 24 41 40
24 25 42 41
25 26 43 42
26 27 44 43
27 28 45 44
28 29 46 45
29 30 47 46
30 31 48 47
31 32 49 48
32 33 50 49
33 34 51 50
35 36 53 52
36 37 54 53
37 38 55 54
38 39 56 55
39 40 57 56
40 41 58 57
41 42 59 58
42 43 60 59
43 44 61 60
44 45 62 61
45 46 63 62
46 47 64 63
47 48 65 64
48 49 66 65
49 50 67 66
50 51 68 67
52 53 70 69
53 54 71 70
54 55 72 71
55 56 73 72
56 57 74 73
57 58 75 74
58 59 76 75
59 60 77 76
60 61 78 77
61 62 79 78
62 63 80 79
63 64 81 80
64 65 82 81
65 66 83 82
66 67 84 83
67 68 85 84
69 70 87 86
70 71 88 87
71 72 89 88
72 73 90 89
73 74 91 90
74 75 92 91
75 76 93 92
76 77 94 93
77 78 95 94
78 79 96 95
79 80 97 96
80 81 98 97
81 82 99 98
82 83 100 99
83 84 101 100
84 85 102 101
86 87 104 103
87 88 105 104
88 89 106 105
89 90 107 106
90 91 108 107
91 92 109 108
92 93 110 109
93 94 111 110
94 95 112 111
95 96 113 112
96 97 114 113
97 98 115 114
98 99 116 115
99 100 117 116
100 101 118 117
101 102 119 118
103 104 121 120
104 105 122 121
105 106 123 122
106 107 124 123
107 108 125 124
108 109 126 125
109 110 127 126
110 111 128 127
111 112 129 128
112 113 130 129
113 114 131 130
114 115 132 131
115 116 133 132
116 117 134 133
117 118 135 134
118 119 136 135
120 121 138 137
121 122 139 138
122 123 140 139
123 124 141 140
124 125 142 141
125 126 143 142
126 127 144 143
127 128 145 144
128 129 146 145
129 130 147 146
130 131 148 147
131 132 149 148
132 133 150 149
133 134 151 150
134 135 152 151
135 136 153 152
