TITLE = "Solution"
VARIABLES = x, y, u, v, psiu, psiv, t, stress
ZONE T="structure" N=153 E=128 F=FEBLOCK ET=QUADRILATERAL VARLOCATION=([7,8]=cellcentered)
0.000000e+00
1.250000e+01
2.500000e+01
3.750000e+01
5.000000e+01
6.250000e+01
7.500000e+01
8.750000e+01
1.000000e+02
1.125000e+02
1.250000e+02
1.375000e+02
1.500000e+02
1.625000e+02
1.750000e+02
1.875000e+02
2.000000e+02
0.000000e+00
1.250000e+01
2.500000e+01
3.750000e+01
5.000000e+01
6.250000e+01
7.500000e+01
8.750000e+01
1.000000e+02
1.125000e+02
1.250000e+02
1.375000e+02
1.500000e+02
1.625000e+02
1.750000e+02
1.875000e+02
2.000000e+02
0.000000e+00
1.250000e+01
2.500000e+01
3.750000e+01
5.000000e+01
6.250000e+01
7.500000e+01
8.750000e+01
1.000000e+02
1.125000e+02
1.250000e+02
1.375000e+02
1.500000e+02
1.625000e+02
1.750000e+02
1.875000e+02
2.000000e+02
0.000000e+00
1.250000e+01
2.500000e+01
3.750000e+01
5.000000e+01
6.250000e+01
7.500000e+01
8.750000e+01
1.000000e+02
1.125000e+02
1.250000e+02
1.375000e+02
1.500000e+02
1.625000e+02
1.750000e+02
1.875000e+02
2.000000e+02
0.000000e+00
1.250000e+01
2.500000e+01
3.750000e+01
5.000000e+01
6.250000e+01
7.500000e+01
8.750000e+01
1.000000e+02
1.125000e+02
1.250000e+02
1.375000e+02
1.500000e+02
1.625000e+02
1.750000e+02
1.875000e+02
2.000000e+02
0.000000e+00
1.250000e+01
2.500000e+01
3.750000e+01
5.000000e+01
6.250000e+01
7.500000e+01
8.750000e+01
1.000000e+02
1.125000e+02
1.250000e+02
1.375000e+02
1.500000e+02
1.625000e+02
1.750000e+02
1.875000e+02
2.000000e+02
0.000000e+00
1.250000e+01
2.500000e+01
3.750000e+01
5.000000e+01
6.250000e+01
7.500000e+01
8.750000e+01
1.000000e+02
1.125000e+02
1.250000e+02
1.375000e+02
1.500000e+02
1.625000e+02
1.750000e+02
1.875000e+02
2.000000e+02
0.000000e+00
1.250000e+01
2.500000e+01
3.750000e+01
5.000000e+01
6.250000e+01
7.500000e+01
8.750000e+01
1.000000e+02
1.125000e+02
1.250000e+02
1.375000e+02
1.500000e+02
1.625000e+02
1.750000e+02
1.875000e+02
2.000000e+02
0.000000e+00
1.250000e+01
2.500000e+01
3.750000e+01
5.000000e+01
6.250000e+01
7.500000e+01
8.750000e+01
1.000000e+02
1.125000e+02
1.250000e+02
1.375000e+02
1.500000e+02
1.625000e+02
1.750000e+02
1.875000e+02
2.000000e+02
0.000000e+00
0.000000e+00
0.000000e+00
0.000000e+00
0.000000e+00
0.000000e+00
0.000000e+00
0.000000e+00
0.000000e+00
0.000000e+00
0.000000e+00
0.000000e+00
0.000000e+00
0.000000e+00
0.000000e+00
0.000000e+00
0.000000e+00
1.250000e+01
1.250000e+01
1.250000e+01
1.250000e+01
1.250000e+01
1.250000e+01
1.250000e+01
1.250000e+01
1.250000e+01
1.250000e+01
1.250000e+01
1.250000e+01
1.250000e+01
1.250000e+01
1.250000e+01
1.250000e+01
1.250000e+01
2.500000e+01
2.500000e+01
2.500000e+01
2.500000e+01
2.500000e+01
2.500000e+01
2.500000e+01
2.500000e+01
2.500000e+01
2.500000e+01
2.500000e+01
2.500000e+01
2.500000e+01
2.500000e+01
2.500000e+01
2.500000e+01
2.500000e+01
3.750000e+01
3.750000e+01
3.750000e+01
3.750000e+01
3.750000e+01
3.750000e+01
3.750000e+01
3.750000e+01
3.750000e+01
3.750000e+01
3.750000e+01
3.750000e+01
3.750000e+01
3.750000e+01
3.750000e+01
3.750000e+01
3.750000e+01
5.000000e+01
5.000000e+01
5.000000e+01
5.000000e+01
5.000000e+01
5.000000e+01
5.000000e+01
5.000000e+01
5.000000e+01
5.000000e+01
5.000000e+01
5.000000e+01
5.000000e+01
5.000000e+01
5.000000e+01
5.000000e+01
5.000000e+01
6.250000e+01
6.250000e+01
6.250000e+01
6.250000e+01
6.250000e+01
6.250000e+01
6.250000e+01
6.250000e+01
6.250000e+01
6.250000e+01
6.250000e+01
6.250000e+01
6.250000e+01
6.250000e+01
6.250000e+01
6.250000e+01
6.250000e+01
7.500000e+01
7.500000e+01
7.500000e+01
7.500000e+01
7.500000e+01
7.500000e+01
7.500000e+01
7.500000e+01
7.500000e+01
7.500000e+01
7.500000e+01
7.500000e+01
7.500000e+01
7.500000e+01
7.500000e+01
7.500000e+01
7.500000e+01
8.750000e+01
8.750000e+01
8.750000e+01
8.750000e+01
8.750000e+01
8.750000e+01
8.750000e+01
8.750000e+01
8.750000e+01
8.750000e+01
8.750000e+01
8.750000e+01
8.750000e+01
8.750000e+01
8.750000e+01
8.750000e+01
8.750000e+01
1.000000e+02
1.000000e+02
1.000000e+02
1.000000e+02
1.000000e+02
1.000000e+02
1.000000e+02
1.000000e+02
1.000000e+02
1.000000e+02
1.000000e+02
1.000000e+02
1.000000e+02
1.000000e+02
1.000000e+02
1.000000e+02
1.000000e+02
0.000000e+00
-7.198897e-02
-1.325545e-01
-1.882826e-01
-2.401812e-01
-2.881407e-01
-3.320581e-01
-3.718995e-01
-4.077227e-01
-4.396928e-01
-4.681267e-01
-4.935801e-01
-5.170090e-01
-5.400651e-01
-5.655966e-01
-5.969526e-01
-6.204818e-01
0.000000e+00
-4.299050e-02
-8.930440e-02
-1.320724e-01
-1.714748e-01
-2.076617e-01
-2.407078e-01
-2.706577e-01
-2.975651e-01
-3.215130e-01
-3.426230e-01
-3.610471e-01
-3.769030e-01
-3.900273e-01
-3.992847e-01
-4.013137e-01
-4.085884e-01
0.000000e+00
-2.688501e-02
-5.528232e-02
-8.361286e-02
-1.100586e-01
-1.343395e-01
-1.564359e-01
-1.763727e-01
-1.941549e-01
-2.097528e-01
-2.230825e-01
-2.339578e-01
-2.419909e-01
-2.464751e-01
-2.465996e-01
-2.448082e-01
-2.522278e-01
0.000000e+00
-1.297636e-02
-2.671359e-02
-4.053758e-02
-5.375584e-02
-6.593069e-02
-7.696601e-02
-8.682966e-02
-9.546516e-02
-1.027601e-01
-1.085282e-01
-1.124970e-01
-1.143417e-01
-1.139107e-01
-1.121401e-01
-1.126243e-01
-1.181490e-01
0.000000e+00
-1.195402e-05
-2.717522e-05
-4.234646e-05
-5.039828e-05
-3.556607e-05
3.344094e-05
2.127702e-04
5.945393e-04
1.315962e-03
2.556055e-03
4.494653e-03
7.180349e-03
1.021532e-02
1.231179e-02
1.173680e-02
8.078998e-03
0.000000e+00
1.295797e-02
2.667089e-02
4.046928e-02
5.367088e-02
6.586159e-02
7.699282e-02
8.711900e-02
9.632793e-02
1.047264e-01
1.124242e-01
1.194783e-01
1.257661e-01
1.308082e-01
1.337743e-01
1.340095e-01
1.321530e-01
0.000000e+00
2.688199e-02
5.527312e-02
8.359455e-02
1.100300e-01
1.343039e-01
1.564063e-01
1.763823e-01
1.942731e-01
2.101105e-01
2.239085e-01
2.356331e-01
2.451496e-01
2.521855e-01
2.564087e-01
2.577799e-01
2.573470e-01
0.000000e+00
4.300814e-02
8.934275e-02
1.321335e-01
1.715568e-01
2.077494e-01
2.407571e-01
2.705676e-01
2.971356e-01
3.203843e-01
3.402033e-01
3.564558e-01
3.690116e-01
3.778292e-01
3.830891e-01
3.853321e-01
3.857441e-01
0.000000e+00
7.201846e-02
1.326323e-01
1.884284e-01
2.404140e-01
2.884681e-01
3.324487e-01
3.722279e-01
4.076727e-01
4.385989e-01
4.647382e-01
4.857422e-01
5.012659e-01
5.111872e-01
5.159853e-01
5.171696e-01
5.171468e-01
0.000000e+00
-4.357691e-02
-8.554659e-02
-1.399295e-01
-2.066733e-01
-2.856532e-01
-3.760041e-01
-4.767149e-01
-5.867147e-01
-7.049469e-01
-8.304353e-01
-9.624030e-01
-1.100532e+00
-1.245559e+00
-1.401248e+00
-1.579384e+00
-1.835334e+00
0.000000e+00
-2.682675e-02
-7.060802e-02
-1.256653e-01
-1.934999e-01
-2.735576e-01
-3.650030e-01
-4.668004e-01
-5.778663e-01
-6.971252e-01
-8.235737e-01
-9.563994e-01
-1.095235e+00
-1.240798e+00
-1.396426e+00
-1.573481e+00
-1.790393e+00
0.000000e+00
-2.024318e-02
-6.025185e-02
-1.155124e-01
-1.839883e-01
-2.648700e-01
-3.571559e-01
-4.598003e-01
-5.717272e-01
-6.918761e-01
-8.192633e-01
-9.531041e-01
-1.093066e+00
-1.239749e+00
-1.395510e+00
-1.563276e+00
-1.725638e+00
0.000000e+00
-1.744415e-02
-5.510283e-02
-1.095528e-01
-1.782763e-01
-2.596558e-01
-3.525172e-01
-4.557747e-01
-5.683727e-01
-6.892794e-01
-8.175324e-01
-9.523319e-01
-1.093187e+00
-1.240032e+00
-1.392678e+00
-1.546831e+00
-1.688842e+00
0.000000e+00
-1.663781e-02
-5.354449e-02
-1.076517e-01
-1.763939e-01
-2.579760e-01
-3.511043e-01
-4.546942e-01
-5.677101e-01
-6.891371e-01
-8.179913e-01
-9.533463e-01
-1.094327e+00
-1.239894e+00
-1.387868e+00
-1.533189e+00
-1.667065e+00
0.000000e+00
-1.743380e-02
-5.509546e-02
-1.095660e-01
-1.783408e-01
-2.598255e-01
-3.528802e-01
-4.564622e-01
-5.695579e-01
-6.911476e-01
-8.201836e-01
-9.555449e-01
-1.095922e+00
-1.239529e+00
-1.383607e+00
-1.523944e+00
-1.654963e+00
0.000000e+00
-2.022629e-02
-6.023964e-02
-1.155342e-01
-1.840968e-01
-2.651571e-01
-3.577714e-01
-4.609677e-01
-5.737425e-01
-6.950585e-01
-8.237974e-01
-9.586660e-01
-1.098039e+00
-1.239764e+00
-1.381049e+00
-1.518693e+00
-1.649625e+00
0.000000e+00
-2.681092e-02
-7.059738e-02
-1.256944e-01
-1.936303e-01
-2.738952e-01
-3.657194e-01
-4.681496e-01
-5.801814e-01
-7.007583e-01
-8.287164e-01
-9.626700e-01
-1.100856e+00
-1.241003e+00
-1.380408e+00
-1.516522e+00
-1.648372e+00
0.000000e+00
-4.357037e-02
-8.554751e-02
-1.399745e-01
-2.068244e-01
-2.860139e-01
-3.767371e-01
-4.780523e-01
-5.889445e-01
-7.083388e-01
-8.350430e-01
-9.676410e-01
-1.104357e+00
-1.242971e+00
-1.380953e+00
-1.516125e+00
-1.648392e+00


0.000000e+00
9.152309e-08
1.833915e-07
2.687058e-07
3.487054e-07
4.229386e-07
4.910956e-07
5.531598e-07
6.092583e-07
6.596286e-07
7.046065e-07
7.445653e-07
7.797242e-07
8.098083e-07
8.344326e-07
8.554775e-07
8.742056e-07
0.000000e+00
5.148514e-08
1.252770e-07
1.916215e-07
2.524436e-07
3.085010e-07
3.597451e-07
4.061784e-07
4.478401e-07
4.847620e-07
5.169343e-07
5.442636e-07
5.666122e-07
5.844408e-07
6.007256e-07
6.200582e-07
6.399595e-07
0.000000e+00
3.244871e-08
7.918107e-08
1.230217e-07
1.638849e-07
2.014623e-07
2.356081e-07
2.662830e-07
2.934421e-07
3.169950e-07
3.368082e-07
3.527865e-07
3.651810e-07
3.752647e-07
3.859016e-07
4.002767e-07
4.168884e-07
0.000000e+00
1.585396e-08
3.796100e-08
5.943239e-08
7.986614e-08
9.863504e-08
1.155373e-07
1.304967e-07
1.434264e-07
1.542146e-07
1.627682e-07
1.691384e-07
1.737561e-07
1.777104e-07
1.828058e-07
1.911845e-07
2.027165e-07
0.000000e+00
1.652564e-11
2.042382e-11
-8.894508e-12
-9.956693e-11
-2.964831e-10
-6.654589e-10
-1.294079e-09
-2.283963e-09
-3.725490e-09
-5.642377e-09
-7.899078e-09
-1.009237e-08
-1.148326e-08
-1.093397e-08
-6.990164e-09
5.846965e-10
0.000000e+00
-1.582307e-08
-3.791959e-08
-5.943425e-08
-8.001122e-08
-9.909848e-08
-1.166065e-07
-1.326108e-07
-1.472048e-07
-1.604467e-07
-1.723107e-07
-1.826354e-07
-1.910908e-07
-1.971843e-07
-2.003067e-07
-1.997110e-07
-1.955621e-07
0.000000e+00
-3.242925e-08
-7.915236e-08
-1.230047e-07
-1.639192e-07
-2.016230e-07
-2.360259e-07
-2.671679e-07
-2.951047e-07
-3.198547e-07
-3.413586e-07
-3.594473e-07
-3.738346e-07
-3.841846e-07
-3.903262e-07
-3.923715e-07
-3.911465e-07
0.000000e+00
-5.150471e-08
-1.253160e-07
-1.916569e-07
-2.524373e-07
-3.083881e-07
-3.594189e-07
-4.054741e-07
-4.465191e-07
-4.825035e-07
-5.133471e-07
-5.389292e-07
-5.590922e-07
-5.737031e-07
-5.828913e-07
-5.874087e-07
-5.885000e-07
0.000000e+00
-9.163117e-08
-1.835830e-07
-2.689427e-07
-3.489079e-07
-4.229404e-07
-4.905819e-07
-5.515864e-07
-6.057566e-07
-6.529126e-07
-6.929129e-07
-7.256955e-07
-7.513178e-07
-7.699917e-07
-7.821545e-07
-7.884416e-07
-7.904610e-07
0.000000e+00
8.285470e-08
1.616264e-07
2.500137e-07
3.554321e-07
4.789694e-07
6.198145e-07
7.766645e-07
9.480183e-07
1.132419e-06
1.328618e-06
1.535846e-06
1.754522e-06
1.987787e-06
2.241403e-06
2.510800e-06
2.778084e-06
0.000000e+00
5.011599e-08
1.266757e-07
2.157584e-07
3.232319e-07
4.492545e-07
5.927675e-07
7.522978e-07
9.263059e-07
1.113314e-06
1.312052e-06
1.521693e-06
1.742254e-06
1.975118e-06
2.222561e-06
2.485126e-06
2.748891e-06
0.000000e+00
3.191877e-08
9.865748e-08
1.876448e-07
2.966691e-07
4.248459e-07
5.706801e-07
7.325838e-07
9.089909e-07
1.098418e-06
1.299549e-06
1.511354e-06
1.733122e-06
1.964202e-06
2.204214e-06
2.457191e-06
2.712456e-06
0.000000e+00
2.341748e-08
8.391875e-08
1.712525e-07
2.809921e-07
4.105036e-07
5.578487e-07
7.213387e-07
8.993863e-07
1.090481e-06
1.293200e-06
1.506189e-06
1.728020e-06
1.956908e-06
2.191422e-06
2.434645e-06
2.677198e-06
0.000000e+00
2.097458e-08
7.945015e-08
1.659796e-07
2.759123e-07
4.059582e-07
5.539551e-07
7.181691e-07
8.969929e-07
1.088859e-06
1.292198e-06
1.505355e-06
1.726425e-06
1.953043e-06
2.182884e-06
2.417381e-06
2.647431e-06
0.000000e+00
2.343641e-08
8.398969e-08
1.714279e-07
2.813408e-07
4.111190e-07
5.588474e-07
7.228439e-07
9.014839e-07
1.093129e-06
1.296068e-06
1.508426e-06
1.728021e-06
1.952163e-06
2.177944e-06
2.405156e-06
2.626086e-06
0.000000e+00
3.194930e-08
9.878108e-08
1.879522e-07
2.972805e-07
4.259264e-07
5.724358e-07
7.352325e-07
9.126853e-07
1.103087e-06
1.304606e-06
1.515217e-06
1.732585e-06
1.953902e-06
2.176069e-06
2.397830e-06
2.613082e-06
0.000000e+00
5.015475e-08
1.268325e-07
2.161371e-07
3.239780e-07
4.505665e-07
5.948905e-07
7.554853e-07
9.307226e-07
1.118839e-06
1.317909e-06
1.525797e-06
1.740088e-06
1.958022e-06
2.176742e-06
2.394537e-06
2.606875e-06
0.000000e+00
8.291892e-08
1.618097e-07
2.504221e-07
3.562090e-07
4.803042e-07
6.219311e-07
7.797746e-07
9.522118e-07
1.137450e-06
1.333517e-06
1.538222e-06
1.749126e-06
1.963581e-06
2.179071e-06
2.394001e-06
2.605065e-06


2.103451e-01
2.103450e-01
2.103452e-01
2.103457e-01
2.103461e-01
2.103465e-01
2.103468e-01
2.103471e-01
2.103474e-01
2.103476e-01
2.103478e-01
2.103480e-01
2.103481e-01
2.103480e-01
2.103478e-01
2.103476e-01
2.103458e-01
2.103457e-01
2.103458e-01
2.103462e-01
2.103465e-01
2.103468e-01
2.103471e-01
2.103473e-01
2.103475e-01
2.103477e-01
2.103479e-01
2.103480e-01
2.103481e-01
2.103480e-01
2.103477e-01
2.103476e-01
2.103469e-01
2.103468e-01
2.103469e-01
2.103470e-01
2.103472e-01
2.103474e-01
2.103475e-01
2.103477e-01
2.103478e-01
2.103479e-01
2.103480e-01
2.103481e-01
2.103481e-01
2.103480e-01
2.103478e-01
2.103477e-01
2.103477e-01
2.103476e-01
2.103476e-01
2.103476e-01
2.103477e-01
2.103478e-01
2.103479e-01
2.103479e-01
2.103480e-01
2.103480e-01
2.103481e-01
2.103481e-01
2.103481e-01
2.103480e-01
2.103479e-01
2.103479e-01
2.103477e-01
2.103476e-01
2.103476e-01
2.103476e-01
2.103477e-01
2.103478e-01
2.103478e-01
2.103479e-01
2.103480e-01
2.103480e-01
2.103480e-01
2.103481e-01
2.103481e-01
2.103481e-01
2.103481e-01
2.103481e-01
2.103469e-01
2.103468e-01
2.103469e-01
2.103470e-01
2.103472e-01
2.103474e-01
2.103475e-01
2.103477e-01
2.103478e-01
2.103479e-01
2.103480e-01
2.103480e-01
2.103481e-01
2.103482e-01
2.103482e-01
2.103483e-01
2.103458e-01
2.103457e-01
2.103458e-01
2.103462e-01
2.103465e-01
2.103468e-01
2.103471e-01
2.103473e-01
2.103475e-01
2.103477e-01
2.103479e-01
2.103480e-01
2.103481e-01
2.103482e-01
2.103483e-01
2.103484e-01
2.103451e-01
2.103450e-01
2.103452e-01
2.103457e-01
2.103461e-01
2.103465e-01
2.103468e-01
2.103471e-01
2.103474e-01
2.103477e-01
2.103479e-01
2.103480e-01
2.103482e-01
2.103483e-01
2.103484e-01
2.103484e-01


9.883405e-01
9.899939e-01
9.915234e-01
9.927008e-01
9.937937e-01
9.948014e-01
9.957196e-01
9.965373e-01
9.972460e-01
9.978388e-01
9.983102e-01
9.986555e-01
9.988701e-01
9.989467e-01
9.990020e-01
9.955944e-01
9.955890e-01
9.948313e-01
9.953188e-01
9.959550e-01
9.965482e-01
9.970873e-01
9.975753e-01
9.980174e-01
9.984176e-01
9.987802e-01
9.991091e-01
9.994070e-01
9.996668e-01
9.998370e-01
9.994067e-01
9.935737e-01
9.984674e-01
9.980322e-01
9.979147e-01
9.980800e-01
9.982973e-01
9.985079e-01
9.987034e-01
9.988881e-01
9.990671e-01
9.992416e-01
9.994045e-01
9.995307e-01
9.995570e-01
9.993298e-01
9.985056e-01
9.970233e-01
9.996881e-01
9.993707e-01
9.991746e-01
9.991249e-01
9.991447e-01
9.991781e-01
9.992113e-01
9.992439e-01
9.992758e-01
9.993025e-01
9.993099e-01
9.992702e-01
9.991442e-01
9.989180e-01
9.987262e-01
9.986776e-01
9.996892e-01
9.993723e-01
9.991761e-01
9.991246e-01
9.991398e-01
9.991638e-01
9.991805e-01
9.991861e-01
9.991785e-01
9.991539e-01
9.991081e-01
9.990422e-01
9.989794e-01
9.989919e-01
9.991694e-01
9.994767e-01
9.984696e-01
9.980355e-01
9.979179e-01
9.980800e-01
9.982889e-01
9.984819e-01
9.986451e-01
9.987763e-01
9.988746e-01
9.989408e-01
9.989826e-01
9.990235e-01
9.991095e-01
9.992896e-01
9.995603e-01
9.998401e-01
9.955886e-01
9.948310e-01
9.953181e-01
9.959532e-01
9.965435e-01
9.970767e-01
9.975533e-01
9.979754e-01
9.983432e-01
9.986575e-01
9.989237e-01
9.991561e-01
9.993799e-01
9.996146e-01
9.998340e-01
9.999722e-01
9.883325e-01
9.899814e-01
9.915081e-01
9.926837e-01
9.937783e-01
9.947958e-01
9.957385e-01
9.966041e-01
9.973928e-01
9.981031e-01
9.987265e-01
9.992436e-01
9.996283e-01
9.998657e-01
9.999737e-01
9.999994e-01
1 2 19 18
2 3 20 19
3 4 21 20
4 5 22 21
5 6 23 22
6 7 24 23
7 8 25 24
8 9 26 25
9 10 27 26
10 11 28 27
11 12 29 28
12 13 30 29
13 14 31 30
14 15 32 31
15 16 33 32
16 17 34 33
18 19 36 35
19 20 37 36
20 21 38 37
21 22 39 38
22 23 40 39
23 24 41 40
24 25 42 41
25 26 43 42
26 27 44 43
27 28 45 44
28 29 46 45
29 30 47 46
30 31 48 47
31 32 49 48
32 33 50 49
33 34 51 50
35 36 53 52
36 37 54 53
37 38 55 54
38 39 56 55
39 40 57 56
40 41 58 57
41 42 59 58
42 43 60 59
43 44 61 60
44 45 62 61
45 46 63 62
46 47 64 63
47 48 65 64
48 49 66 65
49 50 67 66
50 51 68 67
52 53 70 69
53 54 71 70
54 55 72 71
55 56 73 72
56 57 74 73
57 58 75 74
58 59 76 75
59 60 77 76
60 61 78 77
61 62 79 78
62 63 80 79
63 64 81 80
64 65 82 81
65 66 83 82
66 67 84 83
67 68 85 84
69 70 87 86
70 71 88 87
71 72 89 88
72 73 90 89
73 74 91 90
74 75 92 91
75 76 93 92
76 77 94 93
77 78 95 94
78 79 96 95
79 80 97 96
80 81 98 97
81 82 99 98
82 83 100 99
83 84 101 100
84 85 102 101
86 87 104 103
87 88 105 104
88 89 106 105
89 90 107 106
90 91 108 107
91 92 109 108
92 93 110 109
93 94 111 110
94 95 112 111
95 96 113 112
96 97 114 113
97 98 115 114
98 99 116 115
99 100 117 116
100 101 118 117
101 102 119 118
103 104 121 120
104 105 122 121
105 106 123 122
106 107 124 123
107 108 125 124
108 109 126 125
109 110 127 126
110 111 128 127
111 112 129 128
112 113 130 129
113 114 131 130
114 115 132 131
115 116 133 132
116 117 134 133
117 118 135 134
118 119 136 135
120 121 138 137
121 122 139 138
122 123 140 139
123 124 141 140
124 125 142 141
125 126 143 142
126 127 144 143
127 128 145 144
128 129 146 145
129 130 147 146
130 131 148 147
131 132 149 148
132 133 150 149
133 134 151 150
134 135 152 151
135 136 153 152
