TITLE = "Solution"
VARIABLES = x, y, u, v, psiu, psiv, t, stress
ZONE T="structure" N=153 E=128 F=FEBLOCK ET=QUADRILATERAL VARLOCATION=([7,8]=cellcentered)
0.000000e+00
1.250000e+01
2.500000e+01
3.750000e+01
5.000000e+01
6.250000e+01
7.500000e+01
8.750000e+01
1.000000e+02
1.125000e+02
1.250000e+02
1.375000e+02
1.500000e+02
1.625000e+02
1.750000e+02
1.875000e+02
2.000000e+02
0.000000e+00
1.250000e+01
2.500000e+01
3.750000e+01
5.000000e+01
6.250000e+01
7.500000e+01
8.750000e+01
1.000000e+02
1.125000e+02
1.250000e+02
1.375000e+02
1.500000e+02
1.625000e+02
1.750000e+02
1.875000e+02
2.000000e+02
0.000000e+00
1.250000e+01
2.500000e+01
3.750000e+01
5.000000e+01
6.250000e+01
7.500000e+01
8.750000e+01
1.000000e+02
1.125000e+02
1.250000e+02
1.375000e+02
1.500000e+02
1.625000e+02
1.750000e+02
1.875000e+02
2.000000e+02
0.000000e+00
1.250000e+01
2.500000e+01
3.750000e+01
5.000000e+01
6.250000e+01
7.500000e+01
8.750000e+01
1.000000e+02
1.125000e+02
1.250000e+02
1.375000e+02
1.500000e+02
1.625000e+02
1.750000e+02
1.875000e+02
2.000000e+02
0.000000e+00
1.250000e+01
2.500000e+01
3.750000e+01
5.000000e+01
6.250000e+01
7.500000e+01
8.750000e+01
1.000000e+02
1.125000e+02
1.250000e+02
1.375000e+02
1.500000e+02
1.625000e+02
1.750000e+02
1.875000e+02
2.000000e+02
0.000000e+00
1.250000e+01
2.500000e+01
3.750000e+01
5.000000e+01
6.250000e+01
7.500000e+01
8.750000e+01
1.000000e+02
1.125000e+02
1.250000e+02
1.375000e+02
1.500000e+02
1.625000e+02
1.750000e+02
1.875000e+02
2.000000e+02
0.000000e+00
1.250000e+01
2.500000e+01
3.750000e+01
5.000000e+01
6.250000e+01
7.500000e+01
8.750000e+01
1.000000e+02
1.125000e+02
1.250000e+02
1.375000e+02
1.500000e+02
1.625000e+02
1.750000e+02
1.875000e+02
2.000000e+02
0.000000e+00
1.250000e+01
2.500000e+01
3.750000e+01
5.000000e+01
6.250000e+01
7.500000e+01
8.750000e+01
1.000000e+02
1.125000e+02
1.250000e+02
1.375000e+02
1.500000e+02
1.625000e+02
1.750000e+02
1.875000e+02
2.000000e+02
0.000000e+00
1.250000e+01
2.500000e+01
3.750000e+01
5.000000e+01
6.250000e+01
7.500000e+01
8.750000e+01
1.000000e+02
1.125000e+02
1.250000e+02
1.375000e+02
1.500000e+02
1.625000e+02
1.750000e+02
1.875000e+02
2.000000e+02
0.000000e+00
0.000000e+00
0.000000e+00
0.000000e+00
0.000000e+00
0.000000e+00
0.000000e+00
0.000000e+00
0.000000e+00
0.000000e+00
0.000000e+00
0.000000e+00
0.000000e+00
0.000000e+00
0.000000e+00
0.000000e+00
0.000000e+00
1.250000e+01
1.250000e+01
1.250000e+01
1.250000e+01
1.250000e+01
1.250000e+01
1.250000e+01
1.250000e+01
1.250000e+01
1.250000e+01
1.250000e+01
1.250000e+01
1.250000e+01
1.250000e+01
1.250000e+01
1.250000e+01
1.250000e+01
2.500000e+01
2.500000e+01
2.500000e+01
2.500000e+01
2.500000e+01
2.500000e+01
2.500000e+01
2.500000e+01
2.500000e+01
2.500000e+01
2.500000e+01
2.500000e+01
2.500000e+01
2.500000e+01
2.500000e+01
2.500000e+01
2.500000e+01
3.750000e+01
3.750000e+01
3.750000e+01
3.750000e+01
3.750000e+01
3.750000e+01
3.750000e+01
3.750000e+01
3.750000e+01
3.750000e+01
3.750000e+01
3.750000e+01
3.750000e+01
3.750000e+01
3.750000e+01
3.750000e+01
3.750000e+01
5.000000e+01
5.000000e+01
5.000000e+01
5.000000e+01
5.000000e+01
5.000000e+01
5.000000e+01
5.000000e+01
5.000000e+01
5.000000e+01
5.000000e+01
5.000000e+01
5.000000e+01
5.000000e+01
5.000000e+01
5.000000e+01
5.000000e+01
6.250000e+01
6.250000e+01
6.250000e+01
6.250000e+01
6.250000e+01
6.250000e+01
6.250000e+01
6.250000e+01
6.250000e+01
6.250000e+01
6.250000e+01
6.250000e+01
6.250000e+01
6.250000e+01
6.250000e+01
6.250000e+01
6.250000e+01
7.500000e+01
7.500000e+01
7.500000e+01
7.500000e+01
7.500000e+01
7.500000e+01
7.500000e+01
7.500000e+01
7.500000e+01
7.500000e+01
7.500000e+01
7.500000e+01
7.500000e+01
7.500000e+01
7.500000e+01
7.500000e+01
7.500000e+01
8.750000e+01
8.750000e+01
8.750000e+01
8.750000e+01
8.750000e+01
8.750000e+01
8.750000e+01
8.750000e+01
8.750000e+01
8.750000e+01
8.750000e+01
8.750000e+01
8.750000e+01
8.750000e+01
8.750000e+01
8.750000e+01
8.750000e+01
1.000000e+02
1.000000e+02
1.000000e+02
1.000000e+02
1.000000e+02
1.000000e+02
1.000000e+02
1.000000e+02
1.000000e+02
1.000000e+02
1.000000e+02
1.000000e+02
1.000000e+02
1.000000e+02
1.000000e+02
1.000000e+02
1.000000e+02
0.000000e+00
-7.374468e-02
-1.357873e-01
-1.928746e-01
-2.460390e-01
-2.951683e-01
-3.401570e-01
-3.809703e-01
-4.176674e-01
-4.504175e-01
-4.795451e-01
-5.056194e-01
-5.296200e-01
-5.532385e-01
-5.793930e-01
-6.115140e-01
-6.356172e-01
0.000000e+00
-4.403895e-02
-9.148236e-02
-1.352934e-01
-1.756569e-01
-2.127264e-01
-2.465787e-01
-2.772591e-01
-3.048229e-01
-3.293551e-01
-3.509800e-01
-3.698536e-01
-3.860964e-01
-3.995410e-01
-4.090242e-01
-4.111027e-01
-4.185549e-01
0.000000e+00
-2.754066e-02
-5.663051e-02
-8.565200e-02
-1.127427e-01
-1.376159e-01
-1.602513e-01
-1.806744e-01
-1.988905e-01
-2.148689e-01
-2.285238e-01
-2.396644e-01
-2.478935e-01
-2.524871e-01
-2.526146e-01
-2.507796e-01
-2.583802e-01
0.000000e+00
-1.329281e-02
-2.736505e-02
-4.152620e-02
-5.506685e-02
-6.753867e-02
-7.884318e-02
-8.894743e-02
-9.779359e-02
-1.052666e-01
-1.111753e-01
-1.152409e-01
-1.171307e-01
-1.166892e-01
-1.148753e-01
-1.153714e-01
-1.210308e-01
0.000000e+00
-1.224578e-05
-2.783846e-05
-4.338000e-05
-5.162845e-05
-3.643461e-05
3.425571e-05
2.179599e-04
6.090428e-04
1.348067e-03
2.618414e-03
4.604310e-03
7.355533e-03
1.046455e-02
1.261217e-02
1.202316e-02
8.276113e-03
0.000000e+00
1.327397e-02
2.732131e-02
4.145623e-02
5.497982e-02
6.746788e-02
7.887063e-02
8.924383e-02
9.867741e-02
1.072808e-01
1.151664e-01
1.223926e-01
1.288338e-01
1.339989e-01
1.370373e-01
1.372783e-01
1.353765e-01
0.000000e+00
2.753757e-02
5.662108e-02
8.563325e-02
1.127135e-01
1.375794e-01
1.602210e-01
1.806843e-01
1.990115e-01
2.152353e-01
2.293699e-01
2.413806e-01
2.511293e-01
2.583369e-01
2.626630e-01
2.640677e-01
2.636242e-01
0.000000e+00
4.405702e-02
9.152164e-02
1.353560e-01
1.757409e-01
2.128163e-01
2.466291e-01
2.771668e-01
3.043829e-01
3.281988e-01
3.485014e-01
3.651503e-01
3.780124e-01
3.870452e-01
3.924334e-01
3.947312e-01
3.951532e-01
0.000000e+00
7.377489e-02
1.358670e-01
1.930239e-01
2.462775e-01
2.955037e-01
3.405572e-01
3.813068e-01
4.176162e-01
4.492968e-01
4.760739e-01
4.975903e-01
5.134928e-01
5.236562e-01
5.285713e-01
5.297845e-01
5.297611e-01
0.000000e+00
-4.463971e-02
-8.763302e-02
-1.433424e-01
-2.117141e-01
-2.926203e-01
-3.851749e-01
-4.883422e-01
-6.010251e-01
-7.221412e-01
-8.506905e-01
-9.858772e-01
-1.127375e+00
-1.275940e+00
-1.435427e+00
-1.617908e+00
-1.880102e+00
0.000000e+00
-2.748103e-02
-7.233012e-02
-1.287303e-01
-1.982194e-01
-2.802296e-01
-3.739055e-01
-4.781858e-01
-5.919609e-01
-7.141286e-01
-8.436615e-01
-9.797271e-01
-1.121949e+00
-1.271063e+00
-1.430487e+00
-1.611862e+00
-1.834064e+00
0.000000e+00
-2.073691e-02
-6.172138e-02
-1.183297e-01
-1.884757e-01
-2.713301e-01
-3.658670e-01
-4.710150e-01
-5.856719e-01
-7.087515e-01
-8.392459e-01
-9.763514e-01
-1.119727e+00
-1.269988e+00
-1.429549e+00
-1.601408e+00
-1.767730e+00
0.000000e+00
-1.786963e-02
-5.644679e-02
-1.122248e-01
-1.826245e-01
-2.659888e-01
-3.611151e-01
-4.668912e-01
-5.822356e-01
-7.060914e-01
-8.374728e-01
-9.755604e-01
-1.119852e+00
-1.270278e+00
-1.426647e+00
-1.584561e+00
-1.730036e+00
0.000000e+00
-1.704363e-02
-5.485046e-02
-1.102773e-01
-1.806961e-01
-2.642680e-01
-3.596678e-01
-4.657843e-01
-5.815568e-01
-7.059457e-01
-8.379429e-01
-9.765995e-01
-1.121019e+00
-1.270137e+00
-1.421720e+00
-1.570586e+00
-1.707728e+00
0.000000e+00
-1.785902e-02
-5.643924e-02
-1.122383e-01
-1.826905e-01
-2.661627e-01
-3.614870e-01
-4.675954e-01
-5.834498e-01
-7.080052e-01
-8.401886e-01
-9.788518e-01
-1.122653e+00
-1.269763e+00
-1.417355e+00
-1.561116e+00
-1.695330e+00
0.000000e+00
-2.071960e-02
-6.170888e-02
-1.183521e-01
-1.885869e-01
-2.716242e-01
-3.664975e-01
-4.722108e-01
-5.877364e-01
-7.120115e-01
-8.438906e-01
-9.820490e-01
-1.124822e+00
-1.270004e+00
-1.414735e+00
-1.555737e+00
-1.689862e+00
0.000000e+00
-2.746481e-02
-7.231922e-02
-1.287600e-01
-1.983529e-01
-2.805755e-01
-3.746394e-01
-4.795680e-01
-5.943324e-01
-7.178504e-01
-8.489296e-01
-9.861506e-01
-1.127707e+00
-1.271273e+00
-1.414079e+00
-1.553513e+00
-1.688579e+00
0.000000e+00
-4.463300e-02
-8.763396e-02
-1.433884e-01
-2.118688e-01
-2.929899e-01
-3.859258e-01
-4.897123e-01
-6.033093e-01
-7.256158e-01
-8.554106e-01
-9.912430e-01
-1.131294e+00
-1.273289e+00
-1.414636e+00
-1.553106e+00
-1.688599e+00


0.000000e+00
6.868328e-08
1.376463e-07
2.016748e-07
2.616864e-07
3.173428e-07
3.684165e-07
4.149011e-07
4.568979e-07
4.945906e-07
5.282358e-07
5.581174e-07
5.844038e-07
6.068942e-07
6.253050e-07
6.410463e-07
6.550615e-07
0.000000e+00
3.867456e-08
9.408873e-08
1.438854e-07
1.895095e-07
2.315342e-07
2.699289e-07
3.047011e-07
3.358857e-07
3.635110e-07
3.875741e-07
4.080085e-07
4.247140e-07
4.380372e-07
4.502073e-07
4.646656e-07
4.795579e-07
0.000000e+00
2.439967e-08
5.950066e-08
9.240978e-08
1.230630e-07
1.512322e-07
1.768133e-07
1.997818e-07
2.201081e-07
2.377282e-07
2.525451e-07
2.644900e-07
2.737525e-07
2.812863e-07
2.892358e-07
2.999874e-07
3.124173e-07
0.000000e+00
1.192888e-08
2.853271e-08
4.465198e-08
5.998140e-08
7.405167e-08
8.671434e-08
9.791529e-08
1.075917e-07
1.156620e-07
1.220582e-07
1.268198e-07
1.302704e-07
1.332255e-07
1.370352e-07
1.433022e-07
1.519295e-07
0.000000e+00
1.225808e-11
1.504510e-11
-7.024973e-12
-7.500479e-11
-2.224636e-10
-4.985996e-10
-9.689152e-10
-1.709342e-09
-2.787401e-09
-4.220717e-09
-5.907660e-09
-7.546485e-09
-8.584554e-09
-8.171968e-09
-5.222039e-09
4.430392e-10
0.000000e+00
-1.190598e-08
-2.850215e-08
-4.465402e-08
-6.009082e-08
-7.439943e-08
-8.751541e-08
-9.949795e-08
-1.104192e-07
-1.203243e-07
-1.291955e-07
-1.369134e-07
-1.432322e-07
-1.477848e-07
-1.501170e-07
-1.496710e-07
-1.465690e-07
0.000000e+00
-2.438520e-08
-5.947941e-08
-9.239748e-08
-1.230893e-07
-1.513532e-07
-1.771267e-07
-2.004445e-07
-2.213523e-07
-2.398672e-07
-2.559479e-07
-2.694706e-07
-2.802237e-07
-2.879581e-07
-2.925475e-07
-2.940758e-07
-2.931599e-07
0.000000e+00
-3.868921e-08
-9.411798e-08
-1.439121e-07
-1.895052e-07
-2.314503e-07
-2.696856e-07
-3.041752e-07
-3.348986e-07
-3.618230e-07
-3.848926e-07
-4.040212e-07
-4.190942e-07
-4.300149e-07
-4.368820e-07
-4.402580e-07
-4.410734e-07
0.000000e+00
-6.876413e-08
-1.377895e-07
-2.018519e-07
-2.618378e-07
-3.173441e-07
-3.680324e-07
-4.137247e-07
-4.542800e-07
-4.895701e-07
-5.194948e-07
-5.440130e-07
-5.631714e-07
-5.771318e-07
-5.862230e-07
-5.909216e-07
-5.924304e-07
0.000000e+00
6.217921e-08
1.212497e-07
1.875140e-07
2.665486e-07
3.591688e-07
4.647620e-07
5.823457e-07
7.107900e-07
8.489994e-07
9.960359e-07
1.151321e-06
1.315166e-06
1.489921e-06
1.679903e-06
1.881707e-06
2.081939e-06
0.000000e+00
3.759055e-08
9.500350e-08
1.618036e-07
2.423954e-07
3.368934e-07
4.444980e-07
5.640993e-07
6.945388e-07
8.347060e-07
9.836466e-07
1.140739e-06
1.305996e-06
1.480451e-06
1.665812e-06
1.862495e-06
2.060090e-06
0.000000e+00
2.391887e-08
7.396556e-08
1.407078e-07
2.224760e-07
3.186006e-07
4.279541e-07
5.493403e-07
6.815815e-07
8.235627e-07
9.742970e-07
1.133010e-06
1.299171e-06
1.472292e-06
1.652090e-06
1.841593e-06
2.032823e-06
0.000000e+00
1.753561e-08
6.290470e-08
1.284130e-07
2.107250e-07
3.078562e-07
4.183463e-07
5.409240e-07
6.743957e-07
8.176268e-07
9.695495e-07
1.129150e-06
1.295359e-06
1.466840e-06
1.642524e-06
1.824727e-06
2.006442e-06
0.000000e+00
1.570246e-08
5.955276e-08
1.244591e-07
2.069180e-07
3.044515e-07
4.154310e-07
5.385516e-07
6.726048e-07
8.164136e-07
9.688008e-07
1.128527e-06
1.294166e-06
1.463951e-06
1.636141e-06
1.811817e-06
1.984176e-06
0.000000e+00
1.754981e-08
6.295776e-08
1.285441e-07
2.109856e-07
3.083161e-07
4.190927e-07
5.420490e-07
6.759636e-07
8.196066e-07
9.716943e-07
1.130823e-06
1.295360e-06
1.463293e-06
1.632450e-06
1.802678e-06
1.968213e-06
0.000000e+00
2.394176e-08
7.405802e-08
1.409376e-07
2.229330e-07
3.194083e-07
4.292664e-07
5.513202e-07
6.843433e-07
8.270533e-07
9.780779e-07
1.135899e-06
1.298771e-06
1.464594e-06
1.631050e-06
1.797203e-06
1.958491e-06
0.000000e+00
3.761963e-08
9.512087e-08
1.620868e-07
2.429532e-07
3.378741e-07
4.460850e-07
5.664821e-07
6.978407e-07
8.388362e-07
9.880260e-07
1.143810e-06
1.304380e-06
1.467673e-06
1.631553e-06
1.794742e-06
1.953851e-06
0.000000e+00
6.222737e-08
1.213870e-07
1.878196e-07
2.671296e-07
3.601668e-07
4.663443e-07
5.846706e-07
7.139250e-07
8.527610e-07
9.996995e-07
1.153100e-06
1.311136e-06
1.471828e-06
1.633294e-06
1.794341e-06
1.952499e-06


2.154746e-01
2.154746e-01
2.154750e-01
2.154759e-01
2.154766e-01
2.154773e-01
2.154779e-01
2.154785e-01
2.154789e-01
2.154793e-01
2.154797e-01
2.154800e-01
2.154801e-01
2.154800e-01
2.154797e-01
2.154795e-01
2.154759e-01
2.154758e-01
2.154761e-01
2.154767e-01
2.154773e-01
2.154779e-01
2.154784e-01
2.154788e-01
2.154792e-01
2.154795e-01
2.154798e-01
2.154800e-01
2.154801e-01
2.154800e-01
2.154797e-01
2.154794e-01
2.154780e-01
2.154779e-01
2.154779e-01
2.154782e-01
2.154786e-01
2.154789e-01
2.154792e-01
2.154794e-01
2.154796e-01
2.154798e-01
2.154800e-01
2.154801e-01
2.154802e-01
2.154800e-01
2.154797e-01
2.154795e-01
2.154794e-01
2.154793e-01
2.154792e-01
2.154793e-01
2.154794e-01
2.154796e-01
2.154797e-01
2.154798e-01
2.154799e-01
2.154800e-01
2.154801e-01
2.154801e-01
2.154801e-01
2.154801e-01
2.154799e-01
2.154799e-01
2.154794e-01
2.154793e-01
2.154792e-01
2.154793e-01
2.154794e-01
2.154796e-01
2.154797e-01
2.154798e-01
2.154799e-01
2.154800e-01
2.154800e-01
2.154801e-01
2.154801e-01
2.154801e-01
2.154802e-01
2.154802e-01
2.154780e-01
2.154779e-01
2.154779e-01
2.154782e-01
2.154786e-01
2.154789e-01
2.154791e-01
2.154794e-01
2.154796e-01
2.154797e-01
2.154799e-01
2.154800e-01
2.154802e-01
2.154803e-01
2.154804e-01
2.154804e-01
2.154759e-01
2.154758e-01
2.154761e-01
2.154767e-01
2.154773e-01
2.154779e-01
2.154784e-01
2.154788e-01
2.154792e-01
2.154795e-01
2.154798e-01
2.154800e-01
2.154802e-01
2.154804e-01
2.154805e-01
2.154806e-01
2.154746e-01
2.154746e-01
2.154750e-01
2.154759e-01
2.154766e-01
2.154773e-01
2.154779e-01
2.154785e-01
2.154790e-01
2.154794e-01
2.154798e-01
2.154801e-01
2.154803e-01
2.154805e-01
2.154806e-01
2.154807e-01


9.877648e-01
9.894998e-01
9.911049e-01
9.923404e-01
9.934872e-01
9.945447e-01
9.955082e-01
9.963663e-01
9.971100e-01
9.977321e-01
9.982267e-01
9.985891e-01
9.988143e-01
9.988947e-01
9.989527e-01
9.953769e-01
9.953712e-01
9.945761e-01
9.950876e-01
9.957553e-01
9.963777e-01
9.969434e-01
9.974556e-01
9.979195e-01
9.983395e-01
9.987199e-01
9.990651e-01
9.993777e-01
9.996504e-01
9.998290e-01
9.993774e-01
9.932563e-01
9.983917e-01
9.979350e-01
9.978117e-01
9.979852e-01
9.982133e-01
9.984342e-01
9.986394e-01
9.988332e-01
9.990210e-01
9.992041e-01
9.993751e-01
9.995075e-01
9.995351e-01
9.992967e-01
9.984318e-01
9.968763e-01
9.996727e-01
9.993396e-01
9.991339e-01
9.990817e-01
9.991025e-01
9.991375e-01
9.991724e-01
9.992065e-01
9.992400e-01
9.992680e-01
9.992758e-01
9.992342e-01
9.991019e-01
9.988646e-01
9.986633e-01
9.986123e-01
9.996739e-01
9.993413e-01
9.991354e-01
9.990813e-01
9.990973e-01
9.991225e-01
9.991400e-01
9.991459e-01
9.991379e-01
9.991121e-01
9.990641e-01
9.989949e-01
9.989290e-01
9.989421e-01
9.991284e-01
9.994508e-01
9.983940e-01
9.979385e-01
9.978151e-01
9.979852e-01
9.982044e-01
9.984069e-01
9.985782e-01
9.987159e-01
9.988190e-01
9.988885e-01
9.989324e-01
9.989753e-01
9.990655e-01
9.992545e-01
9.995385e-01
9.998322e-01
9.953708e-01
9.945758e-01
9.950869e-01
9.957534e-01
9.963728e-01
9.969323e-01
9.974325e-01
9.978754e-01
9.982613e-01
9.985912e-01
9.988705e-01
9.991144e-01
9.993493e-01
9.995955e-01
9.998258e-01
9.999708e-01
9.877565e-01
9.894868e-01
9.910888e-01
9.923224e-01
9.934711e-01
9.945389e-01
9.955281e-01
9.964364e-01
9.972640e-01
9.980094e-01
9.986636e-01
9.992063e-01
9.996100e-01
9.998591e-01
9.999724e-01
9.999994e-01
1 2 19 18
2 3 20 19
3 4 21 20
4 5 22 21
5 6 23 22
6 7 24 23
7 8 25 24
8 9 26 25
9 10 27 26
10 11 28 27
11 12 29 28
12 13 30 29
13 14 31 30
14 15 32 31
15 16 33 32
16 17 34 33
18 19 36 35
19 20 37 36
20 21 38 37
21 22 39 38
22 23 40 39
23 24 41 40
24 25 42 41
25 26 43 42
26 27 44 43
27 28 45 44
28 29 46 45
29 30 47 46
30 31 48 47
31 32 49 48
32 33 50 49
33 34 51 50
35 36 53 52
36 37 54 53
37 38 55 54
38 39 56 55
39 40 57 56
40 41 58 57
41 42 59 58
42 43 60 59
43 44 61 60
44 45 62 61
45 46 63 62
46 47 64 63
47 48 65 64
48 49 66 65
49 50 67 66
50 51 68 67
52 53 70 69
53 54 71 70
54 55 72 71
55 56 73 72
56 57 74 73
57 58 75 74
58 59 76 75
59 60 77 76
60 61 78 77
61 62 79 78
62 63 80 79
63 64 81 80
64 65 82 81
65 66 83 82
66 67 84 83
67 68 85 84
69 70 87 86
70 71 88 87
71 72 89 88
72 73 90 89
73 74 91 90
74 75 92 91
75 76 93 92
76 77 94 93
77 78 95 94
78 79 96 95
79 80 97 96
80 81 98 97
81 82 99 98
82 83 100 99
83 84 101 100
84 85 102 101
86 87 104 103
87 88 105 104
88 89 106 105
89 90 107 106
90 91 108 107
91 92 109 108
92 93 110 109
93 94 111 110
94 95 112 111
95 96 113 112
96 97 114 113
97 98 115 114
98 99 116 115
99 100 117 116
100 101 118 117
101 102 119 118
103 104 121 120
104 105 122 121
105 106 123 122
106 107 124 123
107 108 125 124
108 109 126 125
109 110 127 126
110 111 128 127
111 112 129 128
112 113 130 129
113 114 131 130
114 115 132 131
115 116 133 132
116 117 134 133
117 118 135 134
118 119 136 135
120 121 138 137
121 122 139 138
122 123 140 139
123 124 141 140
124 125 142 141
125 126 143 142
126 127 144 143
127 128 145 144
128 129 146 145
129 130 147 146
130 131 148 147
131 132 149 148
132 133 150 149
133 134 151 150
134 135 152 151
135 136 153 152
