TITLE = "Solution"
VARIABLES = x, y, u, v, psiu, psiv, t, stress
ZONE T="structure" N=153 E=128 F=FEBLOCK ET=QUADRILATERAL VARLOCATION=([7,8]=cellcentered)
0.000000e+00
1.250000e+01
2.500000e+01
3.750000e+01
5.000000e+01
6.250000e+01
7.500000e+01
8.750000e+01
1.000000e+02
1.125000e+02
1.250000e+02
1.375000e+02
1.500000e+02
1.625000e+02
1.750000e+02
1.875000e+02
2.000000e+02
0.000000e+00
1.250000e+01
2.500000e+01
3.750000e+01
5.000000e+01
6.250000e+01
7.500000e+01
8.750000e+01
1.000000e+02
1.125000e+02
1.250000e+02
1.375000e+02
1.500000e+02
1.625000e+02
1.750000e+02
1.875000e+02
2.000000e+02
0.000000e+00
1.250000e+01
2.500000e+01
3.750000e+01
5.000000e+01
6.250000e+01
7.500000e+01
8.750000e+01
1.000000e+02
1.125000e+02
1.250000e+02
1.375000e+02
1.500000e+02
1.625000e+02
1.750000e+02
1.875000e+02
2.000000e+02
0.000000e+00
1.250000e+01
2.500000e+01
3.750000e+01
5.000000e+01
6.250000e+01
7.500000e+01
8.750000e+01
1.000000e+02
1.125000e+02
1.250000e+02
1.375000e+02
1.500000e+02
1.625000e+02
1.750000e+02
1.875000e+02
2.000000e+02
0.000000e+00
1.250000e+01
2.500000e+01
3.750000e+01
5.000000e+01
6.250000e+01
7.500000e+01
8.750000e+01
1.000000e+02
1.125000e+02
1.250000e+02
1.375000e+02
1.500000e+02
1.625000e+02
1.750000e+02
1.875000e+02
2.000000e+02
0.000000e+00
1.250000e+01
2.500000e+01
3.750000e+01
5.000000e+01
6.250000e+01
7.500000e+01
8.750000e+01
1.000000e+02
1.125000e+02
1.250000e+02
1.375000e+02
1.500000e+02
1.625000e+02
1.750000e+02
1.875000e+02
2.000000e+02
0.000000e+00
1.250000e+01
2.500000e+01
3.750000e+01
5.000000e+01
6.250000e+01
7.500000e+01
8.750000e+01
1.000000e+02
1.125000e+02
1.250000e+02
1.375000e+02
1.500000e+02
1.625000e+02
1.750000e+02
1.875000e+02
2.000000e+02
0.000000e+00
1.250000e+01
2.500000e+01
3.750000e+01
5.000000e+01
6.250000e+01
7.500000e+01
8.750000e+01
1.000000e+02
1.125000e+02
1.250000e+02
1.375000e+02
1.500000e+02
1.625000e+02
1.750000e+02
1.875000e+02
2.000000e+02
0.000000e+00
1.250000e+01
2.500000e+01
3.750000e+01
5.000000e+01
6.250000e+01
7.500000e+01
8.750000e+01
1.000000e+02
1.125000e+02
1.250000e+02
1.375000e+02
1.500000e+02
1.625000e+02
1.750000e+02
1.875000e+02
2.000000e+02
0.000000e+00
0.000000e+00
0.000000e+00
0.000000e+00
0.000000e+00
0.000000e+00
0.000000e+00
0.000000e+00
0.000000e+00
0.000000e+00
0.000000e+00
0.000000e+00
0.000000e+00
0.000000e+00
0.000000e+00
0.000000e+00
0.000000e+00
1.250000e+01
1.250000e+01
1.250000e+01
1.250000e+01
1.250000e+01
1.250000e+01
1.250000e+01
1.250000e+01
1.250000e+01
1.250000e+01
1.250000e+01
1.250000e+01
1.250000e+01
1.250000e+01
1.250000e+01
1.250000e+01
1.250000e+01
2.500000e+01
2.500000e+01
2.500000e+01
2.500000e+01
2.500000e+01
2.500000e+01
2.500000e+01
2.500000e+01
2.500000e+01
2.500000e+01
2.500000e+01
2.500000e+01
2.500000e+01
2.500000e+01
2.500000e+01
2.500000e+01
2.500000e+01
3.750000e+01
3.750000e+01
3.750000e+01
3.750000e+01
3.750000e+01
3.750000e+01
3.750000e+01
3.750000e+01
3.750000e+01
3.750000e+01
3.750000e+01
3.750000e+01
3.750000e+01
3.750000e+01
3.750000e+01
3.750000e+01
3.750000e+01
5.000000e+01
5.000000e+01
5.000000e+01
5.000000e+01
5.000000e+01
5.000000e+01
5.000000e+01
5.000000e+01
5.000000e+01
5.000000e+01
5.000000e+01
5.000000e+01
5.000000e+01
5.000000e+01
5.000000e+01
5.000000e+01
5.000000e+01
6.250000e+01
6.250000e+01
6.250000e+01
6.250000e+01
6.250000e+01
6.250000e+01
6.250000e+01
6.250000e+01
6.250000e+01
6.250000e+01
6.250000e+01
6.250000e+01
6.250000e+01
6.250000e+01
6.250000e+01
6.250000e+01
6.250000e+01
7.500000e+01
7.500000e+01
7.500000e+01
7.500000e+01
7.500000e+01
7.500000e+01
7.500000e+01
7.500000e+01
7.500000e+01
7.500000e+01
7.500000e+01
7.500000e+01
7.500000e+01
7.500000e+01
7.500000e+01
7.500000e+01
7.500000e+01
8.750000e+01
8.750000e+01
8.750000e+01
8.750000e+01
8.750000e+01
8.750000e+01
8.750000e+01
8.750000e+01
8.750000e+01
8.750000e+01
8.750000e+01
8.750000e+01
8.750000e+01
8.750000e+01
8.750000e+01
8.750000e+01
8.750000e+01
1.000000e+02
1.000000e+02
1.000000e+02
1.000000e+02
1.000000e+02
1.000000e+02
1.000000e+02
1.000000e+02
1.000000e+02
1.000000e+02
1.000000e+02
1.000000e+02
1.000000e+02
1.000000e+02
1.000000e+02
1.000000e+02
1.000000e+02
0.000000e+00
-7.897149e-01
-1.445378e+00
-2.074412e+00
-2.707809e+00
-3.331511e+00
-3.938298e+00
-4.522787e+00
-5.076767e+00
-5.592046e+00
-6.064137e+00
-6.494923e+00
-6.895208e+00
-7.288230e+00
-7.714569e+00
-8.222073e+00
-8.595596e+00
0.000000e+00
-4.515622e-01
-9.410703e-01
-1.415779e+00
-1.891786e+00
-2.359707e+00
-2.814364e+00
-3.252180e+00
-3.667105e+00
-4.052286e+00
-4.402316e+00
-4.714098e+00
-4.985786e+00
-5.211633e+00
-5.369230e+00
-5.403877e+00
-5.521375e+00
0.000000e+00
-2.685205e-01
-5.601995e-01
-8.734395e-01
-1.191566e+00
-1.504806e+00
-1.808883e+00
-2.100251e+00
-2.373952e+00
-2.624091e+00
-2.844417e+00
-3.028039e+00
-3.165809e+00
-3.243958e+00
-3.247880e+00
-3.219385e+00
-3.340280e+00
0.000000e+00
-1.250519e-01
-2.636803e-01
-4.163148e-01
-5.750905e-01
-7.321940e-01
-8.842770e-01
-1.028365e+00
-1.160815e+00
-1.277085e+00
-1.371644e+00
-1.437963e+00
-1.469134e+00
-1.461679e+00
-1.431289e+00
-1.438744e+00
-1.530412e+00
0.000000e+00
-3.567554e-04
-7.677558e-04
-1.169445e-03
-1.438329e-03
-1.309441e-03
-2.560783e-04
2.680314e-03
9.095276e-03
2.138684e-02
4.269812e-02
7.620824e-02
1.228526e-01
1.758459e-01
2.129353e-01
2.042078e-01
1.424709e-01
0.000000e+00
1.244568e-01
2.623821e-01
4.142939e-01
5.725075e-01
7.296234e-01
8.831100e-01
1.031480e+00
1.173583e+00
1.308683e+00
1.436410e+00
1.555976e+00
1.664041e+00
1.751514e+00
1.803458e+00
1.808189e+00
1.776551e+00
0.000000e+00
2.682427e-01
5.595503e-01
8.723296e-01
1.189953e+00
1.502781e+00
1.806782e+00
2.098794e+00
2.374464e+00
2.628877e+00
2.857362e+00
3.055537e+00
3.218488e+00
3.339909e+00
3.413141e+00
3.437075e+00
3.429721e+00
0.000000e+00
4.516767e-01
9.412534e-01
1.415982e+00
1.891926e+00
2.359591e+00
2.813484e+00
3.249179e+00
3.658862e+00
4.032699e+00
4.361012e+00
4.635520e+00
4.850094e+00
5.001774e+00
5.092550e+00
5.131311e+00
5.138450e+00
0.000000e+00
7.900219e-01
1.446210e+00
2.075966e+00
2.710326e+00
3.335180e+00
3.942906e+00
4.526721e+00
5.075079e+00
5.573461e+00
6.006935e+00
6.361691e+00
6.626688e+00
6.796950e+00
6.879403e+00
6.899665e+00
6.899217e+00
0.000000e+00
-4.829445e-01
-9.760592e-01
-1.627541e+00
-2.434949e+00
-3.400087e+00
-4.521559e+00
-5.794197e+00
-7.209080e+00
-8.755045e+00
-1.042012e+01
-1.219389e+01
-1.407212e+01
-1.606635e+01
-1.823611e+01
-2.076912e+01
-2.454559e+01
0.000000e+00
-3.007839e-01
-8.136624e-01
-1.461763e+00
-2.270005e+00
-3.238700e+00
-4.365459e+00
-5.645217e+00
-7.069613e+00
-8.627210e+00
-1.030508e+01
-1.209158e+01
-1.398121e+01
-1.598545e+01
-1.815707e+01
-2.067528e+01
-2.382656e+01
0.000000e+00
-2.353960e-01
-7.029704e-01
-1.346340e+00
-2.153422e+00
-3.124471e+00
-4.255566e+00
-5.541489e+00
-6.974174e+00
-8.542437e+00
-1.023341e+01
-1.203551e+01
-1.394356e+01
-1.596720e+01
-1.814273e+01
-2.051167e+01
-2.278626e+01
0.000000e+00
-2.155897e-01
-6.520225e-01
-1.280632e+00
-2.085229e+00
-3.057400e+00
-4.192015e+00
-5.483352e+00
-6.923524e+00
-8.501780e+00
-1.020553e+01
-1.202274e+01
-1.394542e+01
-1.597190e+01
-1.809637e+01
-2.024303e+01
-2.218366e+01
0.000000e+00
-2.119536e-01
-6.379915e-01
-1.260500e+00
-2.063335e+00
-3.036438e+00
-4.173445e+00
-5.468720e+00
-6.914641e+00
-8.500730e+00
-1.021403e+01
-1.204031e+01
-1.396492e+01
-1.596960e+01
-1.801556e+01
-2.001491e+01
-2.181791e+01
0.000000e+00
-2.153976e-01
-6.519179e-01
-1.280931e+00
-2.086429e+00
-3.060362e+00
-4.198172e+00
-5.494909e+00
-6.943462e+00
-8.533335e+00
-1.025050e+01
-1.207744e+01
-1.399204e+01
-1.596327e+01
-1.794282e+01
-1.985752e+01
-2.161131e+01
0.000000e+00
-2.350772e-01
-7.027824e-01
-1.346795e+00
-2.155362e+00
-3.129352e+00
-4.265817e+00
-5.560868e+00
-7.007791e+00
-8.595887e+00
-1.031002e+01
-1.212983e+01
-1.402795e+01
-1.596712e+01
-1.789875e+01
-1.976725e+01
-2.151963e+01
0.000000e+00
-3.004631e-01
-8.134576e-01
-1.462272e+00
-2.272212e+00
-3.244292e+00
-4.377222e+00
-5.667417e+00
-7.107987e+00
-8.687928e+00
-1.039158e+01
-1.219739e+01
-1.407594e+01
-1.598829e+01
-1.788761e+01
-1.972978e+01
-2.149817e+01
0.000000e+00
-4.827260e-01
-9.759610e-01
-1.628197e+00
-2.437370e+00
-3.405962e+00
-4.533575e+00
-5.816255e+00
-7.246097e+00
-8.811685e+00
-1.049737e+01
-1.228176e+01
-1.413588e+01
-1.602209e+01
-1.789693e+01
-1.972290e+01
-2.149856e+01


0.000000e+00
7.383580e-06
1.488751e-05
2.170908e-05
2.813789e-05
3.397663e-05
3.893210e-05
4.288327e-05
4.586348e-05
4.800074e-05
4.947017e-05
5.045646e-05
5.113489e-05
5.166868e-05
5.220315e-05
5.295898e-05
5.395282e-05
0.000000e+00
5.389439e-06
1.194701e-05
1.716941e-05
2.197973e-05
2.634264e-05
2.999116e-05
3.282462e-05
3.489703e-05
3.632800e-05
3.726088e-05
3.783069e-05
3.813642e-05
3.824534e-05
3.836486e-05
3.897523e-05
3.999515e-05
0.000000e+00
3.999370e-06
8.270115e-06
1.180673e-05
1.505658e-05
1.791278e-05
2.027173e-05
2.209193e-05
2.340632e-05
2.428608e-05
2.482137e-05
2.510097e-05
2.520188e-05
2.521707e-05
2.532566e-05
2.581569e-05
2.663001e-05
0.000000e+00
1.997273e-06
3.866834e-06
5.750514e-06
7.419288e-06
8.837337e-06
1.000378e-05
1.091507e-05
1.157506e-05
1.200823e-05
1.225626e-05
1.237116e-05
1.241582e-05
1.246779e-05
1.259453e-05
1.287833e-05
1.334328e-05
0.000000e+00
-3.953126e-09
-8.412512e-09
-1.335720e-08
-1.925602e-08
-2.719951e-08
-3.912588e-08
-5.738558e-08
-8.382942e-08
-1.183882e-07
-1.569044e-07
-1.879048e-07
-1.908698e-07
-1.470138e-07
-6.697738e-08
5.000509e-08
2.614557e-07
0.000000e+00
-2.004466e-06
-3.881671e-06
-5.774428e-06
-7.453855e-06
-8.885330e-06
-1.007012e-05
-1.100754e-05
-1.170414e-05
-1.218581e-05
-1.249191e-05
-1.266403e-05
-1.273914e-05
-1.275360e-05
-1.274944e-05
-1.273173e-05
-1.265210e-05
0.000000e+00
-4.003489e-06
-8.280193e-06
-1.182482e-05
-1.508550e-05
-1.795394e-05
-2.032329e-05
-2.214865e-05
-2.346280e-05
-2.434149e-05
-2.488400e-05
-2.519179e-05
-2.535272e-05
-2.543556e-05
-2.548570e-05
-2.550942e-05
-2.548916e-05
0.000000e+00
-5.390651e-06
-1.195226e-05
-1.718073e-05
-2.200139e-05
-2.637612e-05
-3.002951e-05
-3.285070e-05
-3.488933e-05
-3.627041e-05
-3.715067e-05
-3.768380e-05
-3.799567e-05
-3.817601e-05
-3.827962e-05
-3.832967e-05
-3.833726e-05
0.000000e+00
-7.386915e-06
-1.489208e-05
-2.171575e-05
-2.814936e-05
-3.399281e-05
-3.894388e-05
-4.287048e-05
-4.580014e-05
-4.786399e-05
-4.924470e-05
-5.012885e-05
-5.067366e-05
-5.099396e-05
-5.116338e-05
-5.122859e-05
-5.123976e-05
0.000000e+00
6.548099e-06
1.134950e-05
1.684000e-05
2.387130e-05
3.223205e-05
4.172199e-05
5.218757e-05
6.344971e-05
7.532405e-05
8.765133e-05
1.003113e-04
1.132444e-04
1.265500e-04
1.407890e-04
1.563761e-04
1.723249e-04
0.000000e+00
3.339549e-06
8.223216e-06
1.388927e-05
2.110934e-05
2.980325e-05
3.974993e-05
5.068859e-05
6.237633e-05
7.459755e-05
8.718492e-05
1.000264e-04
1.130739e-04
1.263787e-04
1.401776e-04
1.550904e-04
1.706418e-04
0.000000e+00
1.458245e-06
5.788603e-06
1.172396e-05
1.912599e-05
2.807695e-05
3.834446e-05
4.961861e-05
6.161228e-05
7.408960e-05
8.687561e-05
9.986084e-05
1.129940e-04
1.262416e-04
1.395748e-04
1.537410e-04
1.686860e-04
0.000000e+00
8.387577e-07
4.715657e-06
1.066236e-05
1.821765e-05
2.729991e-05
3.769325e-05
4.910267e-05
6.123385e-05
7.383804e-05
8.672951e-05
9.978859e-05
1.129418e-04
1.261086e-04
1.392303e-04
1.528551e-04
1.670724e-04
0.000000e+00
7.198762e-07
4.429643e-06
1.031917e-05
1.794263e-05
2.707046e-05
3.749887e-05
4.894689e-05
6.112212e-05
7.376972e-05
8.669634e-05
9.977155e-05
1.129076e-04
1.260289e-04
1.391061e-04
1.524343e-04
1.660147e-04
0.000000e+00
8.397021e-07
4.715827e-06
1.066088e-05
1.821487e-05
2.729871e-05
3.769856e-05
4.911965e-05
6.126584e-05
7.388450e-05
8.678246e-05
9.982626e-05
1.129267e-04
1.260225e-04
1.391019e-04
1.522681e-04
1.654479e-04
0.000000e+00
1.459632e-06
5.789086e-06
1.172231e-05
1.912281e-05
2.807736e-05
3.835715e-05
4.965282e-05
6.167437e-05
7.417972e-05
8.698244e-05
9.995098e-05
1.129966e-04
1.260626e-04
1.391260e-04
1.521969e-04
1.651954e-04
0.000000e+00
3.342104e-06
8.226480e-06
1.389202e-05
2.111260e-05
2.981153e-05
3.977079e-05
5.073074e-05
6.244719e-05
7.469970e-05
8.731005e-05
1.001436e-04
1.131025e-04
1.261192e-04
1.391513e-04
1.521671e-04
1.651137e-04
0.000000e+00
6.553112e-06
1.135659e-05
1.684922e-05
2.388390e-05
3.224965e-05
4.174675e-05
5.222324e-05
6.350236e-05
7.539902e-05
8.774527e-05
1.003982e-04
1.132424e-04
1.261908e-04
1.391818e-04
1.521649e-04
1.651016e-04


2.117372e+00
2.100913e+00
2.225680e+00
2.436083e+00
2.623375e+00
2.815277e+00
3.014402e+00
3.198751e+00
3.351124e+00
3.465535e+00
3.543920e+00
3.590991e+00
3.603224e+00
3.551580e+00
3.442384e+00
3.358722e+00
2.467451e+00
2.448318e+00
2.536147e+00
2.695274e+00
2.839249e+00
2.988846e+00
3.145740e+00
3.291707e+00
3.412850e+00
3.504017e+00
3.566279e+00
3.602819e+00
3.608610e+00
3.553854e+00
3.447085e+00
3.366481e+00
3.018462e+00
2.999887e+00
3.040046e+00
3.119013e+00
3.192444e+00
3.273599e+00
3.360249e+00
3.441882e+00
3.510512e+00
3.562563e+00
3.597918e+00
3.617786e+00
3.617240e+00
3.572288e+00
3.488410e+00
3.427291e+00
3.387688e+00
3.373724e+00
3.381518e+00
3.404636e+00
3.432798e+00
3.467021e+00
3.504542e+00
3.540899e+00
3.572413e+00
3.596797e+00
3.613439e+00
3.622788e+00
3.622200e+00
3.598522e+00
3.553732e+00
3.521233e+00
3.387619e+00
3.373599e+00
3.381265e+00
3.404160e+00
3.431998e+00
3.465788e+00
3.502724e+00
3.538304e+00
3.568898e+00
3.592461e+00
3.608851e+00
3.619389e+00
3.624288e+00
3.619174e+00
3.604561e+00
3.593515e+00
3.018096e+00
2.999331e+00
3.039112e+00
3.117537e+00
3.190363e+00
3.270949e+00
3.356965e+00
3.437624e+00
3.504796e+00
3.555257e+00
3.589950e+00
3.612408e+00
3.626267e+00
3.632790e+00
3.633600e+00
3.632869e+00
2.466577e+00
2.447123e+00
2.534405e+00
2.692958e+00
2.836696e+00
2.986755e+00
3.144693e+00
3.291625e+00
3.412949e+00
3.503427e+00
3.565118e+00
3.604192e+00
3.627655e+00
3.640884e+00
3.647550e+00
3.650193e+00
2.116119e+00
2.099271e+00
2.223450e+00
2.433389e+00
2.620912e+00
2.814307e+00
3.016071e+00
3.203292e+00
3.357645e+00
3.472630e+00
3.550868e+00
3.599997e+00
3.628850e+00
3.644818e+00
3.652924e+00
3.656302e+00


-3.585923e-01
-1.531703e-01
-6.720931e-02
-7.893920e-02
-4.581096e-02
9.943787e-03
8.059168e-02
1.732668e-01
2.854647e-01
4.046806e-01
5.158327e-01
6.064207e-01
6.694286e-01
7.036731e-01
7.368655e-01
-1.176916e-01
5.227791e-01
4.159357e-01
4.097424e-01
3.987821e-01
4.122951e-01
4.384526e-01
4.737951e-01
5.232044e-01
5.875721e-01
6.630112e-01
7.438881e-01
8.249307e-01
9.002619e-01
9.522883e-01
8.431438e-01
-6.531236e-01
8.352914e-01
7.622474e-01
7.107479e-01
6.915544e-01
6.896066e-01
6.948543e-01
7.058509e-01
7.246069e-01
7.524494e-01
7.884043e-01
8.281778e-01
8.619999e-01
8.696445e-01
8.078062e-01
5.903550e-01
2.022066e-01
9.515152e-01
8.967858e-01
8.532177e-01
8.303339e-01
8.200632e-01
8.137104e-01
8.087281e-01
8.052128e-01
8.038035e-01
8.037087e-01
8.008161e-01
7.863839e-01
7.484063e-01
6.845156e-01
6.358951e-01
6.271394e-01
9.518570e-01
8.972356e-01
8.536577e-01
8.304003e-01
8.190545e-01
8.103938e-01
8.010350e-01
7.900287e-01
7.771186e-01
7.616271e-01
7.422871e-01
7.189911e-01
6.982901e-01
7.019395e-01
7.559271e-01
8.473083e-01
8.360548e-01
7.632885e-01
7.118428e-01
6.920203e-01
6.880838e-01
6.888826e-01
6.912629e-01
6.950326e-01
6.994385e-01
7.030675e-01
7.059104e-01
7.127160e-01
7.356202e-01
7.884722e-01
8.692030e-01
9.526323e-01
5.232546e-01
4.166410e-01
4.105225e-01
3.993849e-01
4.120611e-01
4.362408e-01
4.679264e-01
5.113022e-01
5.662547e-01
6.278295e-01
6.904380e-01
7.520642e-01
8.158379e-01
8.850581e-01
9.505030e-01
9.917515e-01
-3.592176e-01
-1.542927e-01
-6.859081e-02
-8.069177e-02
-4.768700e-02
9.062957e-03
8.418272e-02
1.885651e-01
3.234763e-01
4.783071e-01
6.363366e-01
7.791404e-01
8.901726e-01
9.601100e-01
9.921852e-01
9.998367e-01
1 2 19 18
2 3 20 19
3 4 21 20
4 5 22 21
5 6 23 22
6 7 24 23
7 8 25 24
8 9 26 25
9 10 27 26
10 11 28 27
11 12 29 28
12 13 30 29
13 14 31 30
14 15 32 31
15 16 33 32
16 17 34 33
18 19 36 35
19 20 37 36
20 21 38 37
21 22 39 38
22 23 40 39
23 24 41 40
24 25 42 41
25 26 43 42
26 27 44 43
27 28 45 44
28 29 46 45
29 30 47 46
30 31 48 47
31 32 49 48
32 33 50 49
33 34 51 50
35 36 53 52
36 37 54 53
37 38 55 54
38 39 56 55
39 40 57 56
40 41 58 57
41 42 59 58
42 43 60 59
43 44 61 60
44 45 62 61
45 46 63 62
46 47 64 63
47 48 65 64
48 49 66 65
49 50 67 66
50 51 68 67
52 53 70 69
53 54 71 70
54 55 72 71
55 56 73 72
56 57 74 73
57 58 75 74
58 59 76 75
59 60 77 76
60 61 78 77
61 62 79 78
62 63 80 79
63 64 81 80
64 65 82 81
65 66 83 82
66 67 84 83
67 68 85 84
69 70 87 86
70 71 88 87
71 72 89 88
72 73 90 89
73 74 91 90
74 75 92 91
75 76 93 92
76 77 94 93
77 78 95 94
78 79 96 95
79 80 97 96
80 81 98 97
81 82 99 98
82 83 100 99
83 84 101 100
84 85 102 101
86 87 104 103
87 88 105 104
88 89 106 105
89 90 107 106
90 91 108 107
91 92 109 108
92 93 110 109
93 94 111 110
94 95 112 111
95 96 113 112
96 97 114 113
97 98 115 114
98 99 116 115
99 100 117 116
100 101 118 117
101 102 119 118
103 104 121 120
104 105 122 121
105 106 123 122
106 107 124 123
107 108 125 124
108 109 126 125
109 110 127 126
110 111 128 127
111 112 129 128
112 113 130 129
113 114 131 130
114 115 132 131
115 116 133 132
116 117 134 133
117 118 135 134
118 119 136 135
120 121 138 137
121 122 139 138
122 123 140 139
123 124 141 140
124 125 142 141
125 126 143 142
126 127 144 143
127 128 145 144
128 129 146 145
129 130 147 146
130 131 148 147
131 132 149 148
132 133 150 149
133 134 151 150
134 135 152 151
135 136 153 152
