TITLE = "Solution"
VARIABLES = x, y, u, v, psiu, psiv, t, stress
ZONE T="structure" N=153 E=128 F=FEBLOCK ET=QUADRILATERAL VARLOCATION=([7,8]=cellcentered)
0.000000e+00
1.250000e+01
2.500000e+01
3.750000e+01
5.000000e+01
6.250000e+01
7.500000e+01
8.750000e+01
1.000000e+02
1.125000e+02
1.250000e+02
1.375000e+02
1.500000e+02
1.625000e+02
1.750000e+02
1.875000e+02
2.000000e+02
0.000000e+00
1.250000e+01
2.500000e+01
3.750000e+01
5.000000e+01
6.250000e+01
7.500000e+01
8.750000e+01
1.000000e+02
1.125000e+02
1.250000e+02
1.375000e+02
1.500000e+02
1.625000e+02
1.750000e+02
1.875000e+02
2.000000e+02
0.000000e+00
1.250000e+01
2.500000e+01
3.750000e+01
5.000000e+01
6.250000e+01
7.500000e+01
8.750000e+01
1.000000e+02
1.125000e+02
1.250000e+02
1.375000e+02
1.500000e+02
1.625000e+02
1.750000e+02
1.875000e+02
2.000000e+02
0.000000e+00
1.250000e+01
2.500000e+01
3.750000e+01
5.000000e+01
6.250000e+01
7.500000e+01
8.750000e+01
1.000000e+02
1.125000e+02
1.250000e+02
1.375000e+02
1.500000e+02
1.625000e+02
1.750000e+02
1.875000e+02
2.000000e+02
0.000000e+00
1.250000e+01
2.500000e+01
3.750000e+01
5.000000e+01
6.250000e+01
7.500000e+01
8.750000e+01
1.000000e+02
1.125000e+02
1.250000e+02
1.375000e+02
1.500000e+02
1.625000e+02
1.750000e+02
1.875000e+02
2.000000e+02
0.000000e+00
1.250000e+01
2.500000e+01
3.750000e+01
5.000000e+01
6.250000e+01
7.500000e+01
8.750000e+01
1.000000e+02
1.125000e+02
1.250000e+02
1.375000e+02
1.500000e+02
1.625000e+02
1.750000e+02
1.875000e+02
2.000000e+02
0.000000e+00
1.250000e+01
2.500000e+01
3.750000e+01
5.000000e+01
6.250000e+01
7.500000e+01
8.750000e+01
1.000000e+02
1.125000e+02
1.250000e+02
1.375000e+02
1.500000e+02
1.625000e+02
1.750000e+02
1.875000e+02
2.000000e+02
0.000000e+00
1.250000e+01
2.500000e+01
3.750000e+01
5.000000e+01
6.250000e+01
7.500000e+01
8.750000e+01
1.000000e+02
1.125000e+02
1.250000e+02
1.375000e+02
1.500000e+02
1.625000e+02
1.750000e+02
1.875000e+02
2.000000e+02
0.000000e+00
1.250000e+01
2.500000e+01
3.750000e+01
5.000000e+01
6.250000e+01
7.500000e+01
8.750000e+01
1.000000e+02
1.125000e+02
1.250000e+02
1.375000e+02
1.500000e+02
1.625000e+02
1.750000e+02
1.875000e+02
2.000000e+02
0.000000e+00
0.000000e+00
0.000000e+00
0.000000e+00
0.000000e+00
0.000000e+00
0.000000e+00
0.000000e+00
0.000000e+00
0.000000e+00
0.000000e+00
0.000000e+00
0.000000e+00
0.000000e+00
0.000000e+00
0.000000e+00
0.000000e+00
1.250000e+01
1.250000e+01
1.250000e+01
1.250000e+01
1.250000e+01
1.250000e+01
1.250000e+01
1.250000e+01
1.250000e+01
1.250000e+01
1.250000e+01
1.250000e+01
1.250000e+01
1.250000e+01
1.250000e+01
1.250000e+01
1.250000e+01
2.500000e+01
2.500000e+01
2.500000e+01
2.500000e+01
2.500000e+01
2.500000e+01
2.500000e+01
2.500000e+01
2.500000e+01
2.500000e+01
2.500000e+01
2.500000e+01
2.500000e+01
2.500000e+01
2.500000e+01
2.500000e+01
2.500000e+01
3.750000e+01
3.750000e+01
3.750000e+01
3.750000e+01
3.750000e+01
3.750000e+01
3.750000e+01
3.750000e+01
3.750000e+01
3.750000e+01
3.750000e+01
3.750000e+01
3.750000e+01
3.750000e+01
3.750000e+01
3.750000e+01
3.750000e+01
5.000000e+01
5.000000e+01
5.000000e+01
5.000000e+01
5.000000e+01
5.000000e+01
5.000000e+01
5.000000e+01
5.000000e+01
5.000000e+01
5.000000e+01
5.000000e+01
5.000000e+01
5.000000e+01
5.000000e+01
5.000000e+01
5.000000e+01
6.250000e+01
6.250000e+01
6.250000e+01
6.250000e+01
6.250000e+01
6.250000e+01
6.250000e+01
6.250000e+01
6.250000e+01
6.250000e+01
6.250000e+01
6.250000e+01
6.250000e+01
6.250000e+01
6.250000e+01
6.250000e+01
6.250000e+01
7.500000e+01
7.500000e+01
7.500000e+01
7.500000e+01
7.500000e+01
7.500000e+01
7.500000e+01
7.500000e+01
7.500000e+01
7.500000e+01
7.500000e+01
7.500000e+01
7.500000e+01
7.500000e+01
7.500000e+01
7.500000e+01
7.500000e+01
8.750000e+01
8.750000e+01
8.750000e+01
8.750000e+01
8.750000e+01
8.750000e+01
8.750000e+01
8.750000e+01
8.750000e+01
8.750000e+01
8.750000e+01
8.750000e+01
8.750000e+01
8.750000e+01
8.750000e+01
8.750000e+01
8.750000e+01
1.000000e+02
1.000000e+02
1.000000e+02
1.000000e+02
1.000000e+02
1.000000e+02
1.000000e+02
1.000000e+02
1.000000e+02
1.000000e+02
1.000000e+02
1.000000e+02
1.000000e+02
1.000000e+02
1.000000e+02
1.000000e+02
1.000000e+02
0.000000e+00
-9.966418e-01
-1.679443e+00
-2.432111e+00
-3.118815e+00
-3.751264e+00
-4.459575e+00
-5.087679e+00
-5.763708e+00
-6.405615e+00
-7.055447e+00
-7.723274e+00
-8.375917e+00
-9.145904e+00
-1.007734e+01
-1.083346e+01
-1.128332e+01
0.000000e+00
-4.461044e-01
-9.061625e-01
-1.418824e+00
-1.930432e+00
-2.410041e+00
-2.923994e+00
-3.422167e+00
-3.918132e+00
-4.421034e+00
-4.913677e+00
-5.416905e+00
-5.901765e+00
-6.421380e+00
-6.897515e+00
-7.023768e+00
-7.202623e+00
0.000000e+00
-1.456891e-01
-3.479456e-01
-6.383323e-01
-9.759715e-01
-1.300788e+00
-1.653842e+00
-2.011255e+00
-2.354538e+00
-2.717215e+00
-3.056305e+00
-3.391226e+00
-3.687352e+00
-3.927888e+00
-4.036865e+00
-4.034806e+00
-4.183424e+00
0.000000e+00
-7.851949e-02
-1.611220e-01
-3.079856e-01
-4.526203e-01
-6.254858e-01
-8.117878e-01
-9.765411e-01
-1.163536e+00
-1.325455e+00
-1.488042e+00
-1.627798e+00
-1.721861e+00
-1.730638e+00
-1.657630e+00
-1.636891e+00
-1.753919e+00
0.000000e+00
-2.974210e-03
-6.511397e-03
-1.004023e-02
-1.307764e-02
-1.493338e-02
-1.482302e-02
-1.097025e-02
-2.757004e-03
1.236910e-02
3.434930e-02
7.648111e-02
1.593516e-01
2.752741e-01
3.954910e-01
4.357816e-01
3.377175e-01
0.000000e+00
7.335663e-02
1.504250e-01
2.904153e-01
4.292838e-01
5.985896e-01
7.860202e-01
9.575522e-01
1.158564e+00
1.346108e+00
1.562087e+00
1.784965e+00
2.008733e+00
2.216387e+00
2.353178e+00
2.386295e+00
2.320874e+00
0.000000e+00
1.437743e-01
3.430426e-01
6.290758e-01
9.616262e-01
1.282647e+00
1.636080e+00
2.004892e+00
2.369229e+00
2.766395e+00
3.143659e+00
3.512962e+00
3.846050e+00
4.120168e+00
4.297146e+00
4.351694e+00
4.329156e+00
0.000000e+00
4.472476e-01
9.069489e-01
1.419509e+00
1.930237e+00
2.407741e+00
2.918437e+00
3.412797e+00
3.902016e+00
4.396922e+00
4.873048e+00
5.348886e+00
5.779173e+00
6.126949e+00
6.344055e+00
6.439772e+00
6.457532e+00
0.000000e+00
9.989955e-01
1.683859e+00
2.441324e+00
3.133586e+00
3.768870e+00
4.476014e+00
5.091913e+00
5.735109e+00
6.330730e+00
6.900505e+00
7.504740e+00
8.036441e+00
8.449656e+00
8.651105e+00
8.703554e+00
8.703980e+00
0.000000e+00
-6.191407e-01
-1.362776e+00
-2.365336e+00
-3.541024e+00
-4.886337e+00
-6.420251e+00
-8.108557e+00
-9.970795e+00
-1.199513e+01
-1.417980e+01
-1.653002e+01
-1.904292e+01
-2.177334e+01
-2.473684e+01
-2.809624e+01
-3.311078e+01
0.000000e+00
-4.163291e-01
-1.194456e+00
-2.179001e+00
-3.371987e+00
-4.712304e+00
-6.242682e+00
-7.940188e+00
-9.794498e+00
-1.182768e+01
-1.400745e+01
-1.636227e+01
-1.886999e+01
-2.158076e+01
-2.459665e+01
-2.801232e+01
-3.206236e+01
0.000000e+00
-3.909022e-01
-1.092647e+00
-2.075603e+00
-3.252842e+00
-4.586077e+00
-6.123121e+00
-7.810637e+00
-9.676113e+00
-1.170604e+01
-1.389666e+01
-1.626251e+01
-1.878037e+01
-2.151888e+01
-2.458668e+01
-2.785989e+01
-3.089258e+01
0.000000e+00
-4.500085e-01
-1.089143e+00
-2.049435e+00
-3.190095e+00
-4.515371e+00
-6.061387e+00
-7.735405e+00
-9.620937e+00
-1.164763e+01
-1.385930e+01
-1.624457e+01
-1.878750e+01
-2.152940e+01
-2.451745e+01
-2.754925e+01
-3.017528e+01
0.000000e+00
-4.569166e-01
-1.111597e+00
-2.034045e+00
-3.175467e+00
-4.504744e+00
-6.038417e+00
-7.736893e+00
-9.614998e+00
-1.165865e+01
-1.388463e+01
-1.627753e+01
-1.882791e+01
-2.152987e+01
-2.436814e+01
-2.718324e+01
-2.957133e+01
0.000000e+00
-4.486917e-01
-1.088416e+00
-2.051302e+00
-3.197970e+00
-4.530364e+00
-6.088806e+00
-7.779241e+00
-9.679493e+00
-1.172298e+01
-1.395106e+01
-1.633038e+01
-1.885835e+01
-2.151891e+01
-2.423362e+01
-2.686511e+01
-2.913449e+01
0.000000e+00
-3.889976e-01
-1.091578e+00
-2.078881e+00
-3.265843e+00
-4.614829e+00
-6.174195e+00
-7.891708e+00
-9.782486e+00
-1.183705e+01
-1.403692e+01
-1.639692e+01
-1.889822e+01
-2.151801e+01
-2.415072e+01
-2.665837e+01
-2.890096e+01
0.000000e+00
-4.144880e-01
-1.193219e+00
-2.182222e+00
-3.386024e+00
-4.744700e+00
-6.302316e+00
-8.033416e+00
-9.918331e+00
-1.197452e+01
-1.415315e+01
-1.649376e+01
-1.897611e+01
-2.155963e+01
-2.412942e+01
-2.657091e+01
-2.884077e+01
0.000000e+00
-6.177473e-01
-1.362074e+00
-2.369422e+00
-3.555848e+00
-4.919335e+00
-6.480135e+00
-8.199355e+00
-1.009041e+01
-1.213221e+01
-1.430745e+01
-1.664256e+01
-1.909982e+01
-2.164220e+01
-2.415367e+01
-2.655600e+01
-2.883972e+01


0.000000e+00
1.536195e-05
2.492113e-05
3.715728e-05
5.303689e-05
6.645045e-05
8.264122e-05
9.700647e-05
1.120229e-04
1.260722e-04
1.412109e-04
1.554200e-04
1.718662e-04
1.876627e-04
1.977857e-04
2.035482e-04
2.104680e-04
0.000000e+00
1.148222e-05
1.979567e-05
2.855860e-05
4.121875e-05
5.200486e-05
6.226116e-05
7.339800e-05
8.332310e-05
9.441263e-05
1.050799e-04
1.155324e-04
1.264700e-04
1.359018e-04
1.375478e-04
1.413051e-04
1.471212e-04
0.000000e+00
9.666562e-06
1.535137e-05
2.084773e-05
2.981915e-05
3.654752e-05
4.221553e-05
4.944239e-05
5.490711e-05
6.181375e-05
6.790433e-05
7.370380e-05
7.862956e-05
8.098582e-05
8.028739e-05
8.266749e-05
8.689215e-05
0.000000e+00
5.353283e-06
7.243247e-06
1.046960e-05
1.447850e-05
1.555321e-05
1.797716e-05
1.881040e-05
2.095284e-05
2.326384e-05
2.732378e-05
2.878663e-05
2.853568e-05
2.724505e-05
2.695238e-05
2.993767e-05
3.560702e-05
0.000000e+00
-1.159488e-07
-2.956659e-07
-5.587183e-07
-1.030093e-06
-1.948377e-06
-3.101225e-06
-5.470768e-06
-7.690790e-06
-8.513077e-06
-9.159698e-06
-1.186018e-05
-1.460103e-05
-1.606417e-05
-1.576525e-05
-1.365823e-05
-9.696454e-06
0.000000e+00
-5.515442e-06
-7.637218e-06
-1.131184e-05
-1.584852e-05
-1.741337e-05
-2.117803e-05
-2.388033e-05
-2.953470e-05
-3.297867e-05
-3.683759e-05
-4.183115e-05
-4.728818e-05
-4.921839e-05
-4.977378e-05
-5.025424e-05
-4.850599e-05
0.000000e+00
-9.610760e-06
-1.535395e-05
-2.101395e-05
-3.005697e-05
-3.695523e-05
-4.215684e-05
-4.951080e-05
-5.578116e-05
-6.283878e-05
-6.838336e-05
-7.371956e-05
-7.811783e-05
-8.179808e-05
-8.367150e-05
-8.557076e-05
-8.631627e-05
0.000000e+00
-1.139583e-05
-1.969118e-05
-2.845953e-05
-4.102426e-05
-5.186542e-05
-6.207259e-05
-7.334715e-05
-8.335904e-05
-9.434453e-05
-1.051022e-04
-1.137756e-04
-1.185441e-04
-1.235624e-04
-1.271949e-04
-1.285031e-04
-1.285889e-04
0.000000e+00
-1.539743e-05
-2.489630e-05
-3.702236e-05
-5.272350e-05
-6.605927e-05
-8.221875e-05
-9.594861e-05
-1.102814e-04
-1.235644e-04
-1.410561e-04
-1.569975e-04
-1.668054e-04
-1.719709e-04
-1.741964e-04
-1.744476e-04
-1.742774e-04
0.000000e+00
1.261468e-05
1.992408e-05
3.211219e-05
4.783501e-05
6.496460e-05
8.810161e-05
1.157814e-04
1.487087e-04
1.860636e-04
2.270520e-04
2.714856e-04
3.215025e-04
3.755569e-04
4.370143e-04
5.078535e-04
5.812511e-04
0.000000e+00
7.702438e-06
1.603586e-05
2.602103e-05
4.141579e-05
5.902486e-05
8.156164e-05
1.097907e-04
1.425153e-04
1.800478e-04
2.207674e-04
2.652929e-04
3.149072e-04
3.705740e-04
4.317464e-04
5.004869e-04
5.709292e-04
0.000000e+00
4.297589e-06
1.214444e-05
2.134926e-05
3.573275e-05
5.408468e-05
7.616248e-05
1.045015e-04
1.384011e-04
1.760039e-04
2.164757e-04
2.607637e-04
3.110467e-04
3.680696e-04
4.275676e-04
4.930025e-04
5.612725e-04
0.000000e+00
3.061487e-06
1.027556e-05
1.959125e-05
3.399574e-05
5.197656e-05
7.286180e-05
1.015253e-04
1.383402e-04
1.760605e-04
2.148261e-04
2.591162e-04
3.101393e-04
3.665381e-04
4.247884e-04
4.851776e-04
5.471168e-04
0.000000e+00
2.607978e-06
9.836511e-06
1.937022e-05
3.389443e-05
5.167744e-05
7.143688e-05
1.007156e-04
1.397754e-04
1.773652e-04
2.132063e-04
2.588835e-04
3.102780e-04
3.666153e-04
4.236237e-04
4.788436e-04
5.310254e-04
0.000000e+00
3.185101e-06
1.043762e-05
1.987155e-05
3.438018e-05
5.223069e-05
7.276339e-05
1.021098e-04
1.410292e-04
1.771376e-04
2.133426e-04
2.602777e-04
3.126893e-04
3.669872e-04
4.235318e-04
4.765484e-04
5.200285e-04
0.000000e+00
4.440142e-06
1.238250e-05
2.174140e-05
3.605105e-05
5.443092e-05
7.609997e-05
1.055141e-04
1.405094e-04
1.768141e-04
2.153204e-04
2.636011e-04
3.163234e-04
3.692202e-04
4.226562e-04
4.737823e-04
5.165340e-04
0.000000e+00
7.818081e-06
1.630623e-05
2.640917e-05
4.177791e-05
5.932208e-05
8.201975e-05
1.107589e-04
1.437426e-04
1.799489e-04
2.200641e-04
2.675398e-04
3.195004e-04
3.715172e-04
4.228597e-04
4.717303e-04
5.169884e-04
0.000000e+00
1.271817e-05
2.019492e-05
3.249129e-05
4.820696e-05
6.535569e-05
8.872714e-05
1.167555e-04
1.496918e-04
1.859373e-04
2.274023e-04
2.721071e-04
3.218068e-04
3.726985e-04
4.231981e-04
4.712454e-04
5.172454e-04


5.691893e+00
6.146598e+00
6.869928e+00
5.959312e+00
5.860412e+00
6.807235e+00
6.609697e+00
6.553265e+00
6.024995e+00
5.919815e+00
6.286572e+00
7.151422e+00
8.849370e+00
9.831299e+00
9.151650e+00
8.003321e+00
8.091194e+00
8.465128e+00
8.663492e+00
8.359083e+00
8.298073e+00
8.603760e+00
8.762637e+00
8.468384e+00
8.429416e+00
8.273807e+00
8.419682e+00
8.845084e+00
9.508238e+00
9.843781e+00
8.395591e+00
6.479091e+00
9.844872e+00
9.824311e+00
9.999986e+00
9.838505e+00
9.836579e+00
9.985754e+00
9.836247e+00
9.955080e+00
9.849581e+00
9.882121e+00
9.899049e+00
9.877111e+00
9.897581e+00
9.387132e+00
7.989879e+00
6.188191e+00
9.999993e+00
9.999993e+00
9.999993e+00
9.999992e+00
9.999992e+00
9.999991e+00
9.999988e+00
9.999986e+00
9.999986e+00
9.999986e+00
9.999981e+00
9.487183e+00
8.851084e+00
8.366197e+00
7.966947e+00
7.907523e+00
9.999993e+00
9.999993e+00
9.999993e+00
9.999992e+00
9.999991e+00
9.999990e+00
9.999984e+00
9.999972e+00
9.925423e+00
9.933446e+00
9.345661e+00
8.609979e+00
7.764665e+00
7.784152e+00
8.641268e+00
9.158650e+00
9.846646e+00
9.824255e+00
9.999985e+00
9.838595e+00
9.836222e+00
9.999447e+00
9.835764e+00
9.666551e+00
9.142777e+00
8.647540e+00
8.368333e+00
7.918717e+00
8.280126e+00
8.812301e+00
9.455526e+00
9.999970e+00
8.101814e+00
8.470060e+00
8.663639e+00
8.358223e+00
8.351118e+00
8.684384e+00
8.756804e+00
7.978491e+00
7.222200e+00
6.954708e+00
7.407546e+00
8.536156e+00
9.332871e+00
9.885110e+00
9.999983e+00
9.999991e+00
5.718171e+00
6.156803e+00
6.871520e+00
5.976516e+00
5.968118e+00
7.014055e+00
6.755296e+00
6.293311e+00
5.513930e+00
5.827473e+00
7.752557e+00
9.093521e+00
9.999841e+00
9.999988e+00
9.999992e+00
9.999993e+00


-8.210411e-01
-1.659658e-01
-3.986792e-01
-2.597792e-01
-9.078987e-02
-3.081002e-01
-1.217242e-01
-2.097807e-01
-1.617833e-01
-1.576482e-01
-2.152053e-01
-1.491783e-01
-4.612845e-01
-6.864878e-01
3.163346e-01
-8.446389e-01
6.108603e-01
4.825573e-01
2.953035e-01
2.253388e-01
2.912719e-01
1.667692e-01
1.731765e-01
1.729383e-01
1.087674e-01
1.494439e-01
1.285526e-01
2.419102e-01
3.015733e-01
5.103115e-01
6.952909e-01
-9.382333e-01
7.223472e-01
4.714797e-01
5.568362e-02
-2.369576e-02
-3.684125e-02
-1.957544e-01
-8.614692e-02
-1.392157e-01
-7.230243e-02
-1.537222e-02
3.436643e-02
1.881133e-01
2.763556e-01
1.502595e-01
-2.379730e-02
-1.723332e-01
7.271696e-01
5.554505e-01
1.903024e-01
5.933219e-02
-2.057632e-02
-1.099846e-01
-2.352026e-02
-6.281646e-02
2.696355e-02
1.993503e-02
5.803165e-02
1.164157e-01
5.270169e-02
-2.601824e-01
-3.725746e-01
-7.534893e-02
7.299033e-01
5.591175e-01
1.961421e-01
6.085732e-02
-2.112938e-02
-1.205643e-01
-4.481807e-02
-9.386822e-02
-2.480297e-02
-3.816647e-02
2.139528e-02
2.530002e-02
-4.195383e-02
-1.346241e-01
-9.352646e-02
3.158703e-01
7.287728e-01
4.817711e-01
7.158141e-02
-1.406957e-02
-4.012016e-02
-2.260420e-01
-1.448984e-01
-1.986425e-01
-1.406727e-01
-9.817582e-02
-9.054437e-02
-8.877485e-02
-1.079034e-01
3.985894e-02
3.363114e-01
7.249558e-01
6.142664e-01
4.896846e-01
3.044836e-01
2.350526e-01
2.955209e-01
1.553143e-01
1.249455e-01
8.840104e-02
-4.220779e-02
-3.475108e-02
-1.087331e-01
-6.453010e-02
5.825488e-02
3.613149e-01
7.132660e-01
9.480770e-01
-8.277718e-01
-1.690746e-01
-4.085521e-01
-2.694203e-01
-9.292636e-02
-3.015183e-01
-9.607359e-02
-1.432393e-01
-7.944299e-02
-1.179733e-02
-1.016458e-01
9.240393e-02
3.863306e-01
7.712981e-01
9.530335e-01
9.987536e-01
1 2 19 18
2 3 20 19
3 4 21 20
4 5 22 21
5 6 23 22
6 7 24 23
7 8 25 24
8 9 26 25
9 10 27 26
10 11 28 27
11 12 29 28
12 13 30 29
13 14 31 30
14 15 32 31
15 16 33 32
16 17 34 33
18 19 36 35
19 20 37 36
20 21 38 37
21 22 39 38
22 23 40 39
23 24 41 40
24 25 42 41
25 26 43 42
26 27 44 43
27 28 45 44
28 29 46 45
29 30 47 46
30 31 48 47
31 32 49 48
32 33 50 49
33 34 51 50
35 36 53 52
36 37 54 53
37 38 55 54
38 39 56 55
39 40 57 56
40 41 58 57
41 42 59 58
42 43 60 59
43 44 61 60
44 45 62 61
45 46 63 62
46 47 64 63
47 48 65 64
48 49 66 65
49 50 67 66
50 51 68 67
52 53 70 69
53 54 71 70
54 55 72 71
55 56 73 72
56 57 74 73
57 58 75 74
58 59 76 75
59 60 77 76
60 61 78 77
61 62 79 78
62 63 80 79
63 64 81 80
64 65 82 81
65 66 83 82
66 67 84 83
67 68 85 84
69 70 87 86
70 71 88 87
71 72 89 88
72 73 90 89
73 74 91 90
74 75 92 91
75 76 93 92
76 77 94 93
77 78 95 94
78 79 96 95
79 80 97 96
80 81 98 97
81 82 99 98
82 83 100 99
83 84 101 100
84 85 102 101
86 87 104 103
87 88 105 104
88 89 106 105
89 90 107 106
90 91 108 107
91 92 109 108
92 93 110 109
93 94 111 110
94 95 112 111
95 96 113 112
96 97 114 113
97 98 115 114
98 99 116 115
99 100 117 116
100 101 118 117
101 102 119 118
103 104 121 120
104 105 122 121
105 106 123 122
106 107 124 123
107 108 125 124
108 109 126 125
109 110 127 126
110 111 128 127
111 112 129 128
112 113 130 129
113 114 131 130
114 115 132 131
115 116 133 132
116 117 134 133
117 118 135 134
118 119 136 135
120 121 138 137
121 122 139 138
122 123 140 139
123 124 141 140
124 125 142 141
125 126 143 142
126 127 144 143
127 128 145 144
128 129 146 145
129 130 147 146
130 131 148 147
131 132 149 148
132 133 150 149
133 134 151 150
134 135 152 151
135 136 153 152
