TITLE = "Solution"
VARIABLES = x, y, u, v, psiu, psiv, t, stress
ZONE T="structure" N=153 E=128 F=FEBLOCK ET=QUADRILATERAL VARLOCATION=([7,8]=cellcentered)
0.000000e+00
1.250000e+01
2.500000e+01
3.750000e+01
5.000000e+01
6.250000e+01
7.500000e+01
8.750000e+01
1.000000e+02
1.125000e+02
1.250000e+02
1.375000e+02
1.500000e+02
1.625000e+02
1.750000e+02
1.875000e+02
2.000000e+02
0.000000e+00
1.250000e+01
2.500000e+01
3.750000e+01
5.000000e+01
6.250000e+01
7.500000e+01
8.750000e+01
1.000000e+02
1.125000e+02
1.250000e+02
1.375000e+02
1.500000e+02
1.625000e+02
1.750000e+02
1.875000e+02
2.000000e+02
0.000000e+00
1.250000e+01
2.500000e+01
3.750000e+01
5.000000e+01
6.250000e+01
7.500000e+01
8.750000e+01
1.000000e+02
1.125000e+02
1.250000e+02
1.375000e+02
1.500000e+02
1.625000e+02
1.750000e+02
1.875000e+02
2.000000e+02
0.000000e+00
1.250000e+01
2.500000e+01
3.750000e+01
5.000000e+01
6.250000e+01
7.500000e+01
8.750000e+01
1.000000e+02
1.125000e+02
1.250000e+02
1.375000e+02
1.500000e+02
1.625000e+02
1.750000e+02
1.875000e+02
2.000000e+02
0.000000e+00
1.250000e+01
2.500000e+01
3.750000e+01
5.000000e+01
6.250000e+01
7.500000e+01
8.750000e+01
1.000000e+02
1.125000e+02
1.250000e+02
1.375000e+02
1.500000e+02
1.625000e+02
1.750000e+02
1.875000e+02
2.000000e+02
0.000000e+00
1.250000e+01
2.500000e+01
3.750000e+01
5.000000e+01
6.250000e+01
7.500000e+01
8.750000e+01
1.000000e+02
1.125000e+02
1.250000e+02
1.375000e+02
1.500000e+02
1.625000e+02
1.750000e+02
1.875000e+02
2.000000e+02
0.000000e+00
1.250000e+01
2.500000e+01
3.750000e+01
5.000000e+01
6.250000e+01
7.500000e+01
8.750000e+01
1.000000e+02
1.125000e+02
1.250000e+02
1.375000e+02
1.500000e+02
1.625000e+02
1.750000e+02
1.875000e+02
2.000000e+02
0.000000e+00
1.250000e+01
2.500000e+01
3.750000e+01
5.000000e+01
6.250000e+01
7.500000e+01
8.750000e+01
1.000000e+02
1.125000e+02
1.250000e+02
1.375000e+02
1.500000e+02
1.625000e+02
1.750000e+02
1.875000e+02
2.000000e+02
0.000000e+00
1.250000e+01
2.500000e+01
3.750000e+01
5.000000e+01
6.250000e+01
7.500000e+01
8.750000e+01
1.000000e+02
1.125000e+02
1.250000e+02
1.375000e+02
1.500000e+02
1.625000e+02
1.750000e+02
1.875000e+02
2.000000e+02
0.000000e+00
0.000000e+00
0.000000e+00
0.000000e+00
0.000000e+00
0.000000e+00
0.000000e+00
0.000000e+00
0.000000e+00
0.000000e+00
0.000000e+00
0.000000e+00
0.000000e+00
0.000000e+00
0.000000e+00
0.000000e+00
0.000000e+00
1.250000e+01
1.250000e+01
1.250000e+01
1.250000e+01
1.250000e+01
1.250000e+01
1.250000e+01
1.250000e+01
1.250000e+01
1.250000e+01
1.250000e+01
1.250000e+01
1.250000e+01
1.250000e+01
1.250000e+01
1.250000e+01
1.250000e+01
2.500000e+01
2.500000e+01
2.500000e+01
2.500000e+01
2.500000e+01
2.500000e+01
2.500000e+01
2.500000e+01
2.500000e+01
2.500000e+01
2.500000e+01
2.500000e+01
2.500000e+01
2.500000e+01
2.500000e+01
2.500000e+01
2.500000e+01
3.750000e+01
3.750000e+01
3.750000e+01
3.750000e+01
3.750000e+01
3.750000e+01
3.750000e+01
3.750000e+01
3.750000e+01
3.750000e+01
3.750000e+01
3.750000e+01
3.750000e+01
3.750000e+01
3.750000e+01
3.750000e+01
3.750000e+01
5.000000e+01
5.000000e+01
5.000000e+01
5.000000e+01
5.000000e+01
5.000000e+01
5.000000e+01
5.000000e+01
5.000000e+01
5.000000e+01
5.000000e+01
5.000000e+01
5.000000e+01
5.000000e+01
5.000000e+01
5.000000e+01
5.000000e+01
6.250000e+01
6.250000e+01
6.250000e+01
6.250000e+01
6.250000e+01
6.250000e+01
6.250000e+01
6.250000e+01
6.250000e+01
6.250000e+01
6.250000e+01
6.250000e+01
6.250000e+01
6.250000e+01
6.250000e+01
6.250000e+01
6.250000e+01
7.500000e+01
7.500000e+01
7.500000e+01
7.500000e+01
7.500000e+01
7.500000e+01
7.500000e+01
7.500000e+01
7.500000e+01
7.500000e+01
7.500000e+01
7.500000e+01
7.500000e+01
7.500000e+01
7.500000e+01
7.500000e+01
7.500000e+01
8.750000e+01
8.750000e+01
8.750000e+01
8.750000e+01
8.750000e+01
8.750000e+01
8.750000e+01
8.750000e+01
8.750000e+01
8.750000e+01
8.750000e+01
8.750000e+01
8.750000e+01
8.750000e+01
8.750000e+01
8.750000e+01
8.750000e+01
1.000000e+02
1.000000e+02
1.000000e+02
1.000000e+02
1.000000e+02
1.000000e+02
1.000000e+02
1.000000e+02
1.000000e+02
1.000000e+02
1.000000e+02
1.000000e+02
1.000000e+02
1.000000e+02
1.000000e+02
1.000000e+02
1.000000e+02
0.000000e+00
-7.019039e-01
-1.291995e+00
-1.846145e+00
-2.380889e+00
-2.890231e+00
-3.367893e+00
-3.809403e+00
-4.212049e+00
-4.575073e+00
-4.900207e+00
-5.192553e+00
-5.462251e+00
-5.727592e+00
-6.020286e+00
-6.377632e+00
-6.644806e+00
0.000000e+00
-4.131661e-01
-8.606594e-01
-1.283323e+00
-1.687692e+00
-2.071214e+00
-2.430247e+00
-2.761939e+00
-3.064261e+00
-3.336128e+00
-3.577481e+00
-3.789101e+00
-3.971733e+00
-4.123056e+00
-4.229579e+00
-4.252948e+00
-4.335827e+00
0.000000e+00
-2.548932e-01
-5.272948e-01
-8.071701e-01
-1.078078e+00
-1.334796e+00
-1.574426e+00
-1.794935e+00
-1.994521e+00
-2.171440e+00
-2.323728e+00
-2.448581e+00
-2.541123e+00
-2.592955e+00
-2.594627e+00
-2.574284e+00
-2.658943e+00
0.000000e+00
-1.220380e-01
-2.534005e-01
-3.900828e-01
-5.254170e-01
-6.539024e-01
-7.733519e-01
-8.822589e-01
-9.790184e-01
-1.061614e+00
-1.127384e+00
-1.172843e+00
-1.194027e+00
-1.189052e+00
-1.168648e+00
-1.174116e+00
-1.237362e+00
0.000000e+00
-1.772366e-04
-3.914476e-04
-6.035474e-04
-7.329933e-04
-5.992684e-04
1.579393e-04
2.187039e-03
6.553396e-03
1.484503e-02
2.913452e-02
5.150639e-02
8.253334e-02
1.176344e-01
1.419461e-01
1.354749e-01
9.346420e-02
0.000000e+00
1.217502e-01
2.527561e-01
3.890688e-01
5.241378e-01
6.527341e-01
7.732194e-01
8.850876e-01
9.884010e-01
1.083678e+00
1.171680e+00
1.252731e+00
1.325207e+00
1.383446e+00
1.417775e+00
1.420584e+00
1.399220e+00
0.000000e+00
2.547873e-01
5.270390e-01
8.067286e-01
1.077443e+00
1.334017e+00
1.573672e+00
1.794604e+00
1.995430e+00
2.175107e+00
2.332790e+00
2.467419e+00
2.577019e+00
2.658195e+00
2.706972e+00
2.722834e+00
2.717855e+00
0.000000e+00
4.132964e-01
8.609328e-01
1.283759e+00
1.688285e+00
2.071821e+00
2.430401e+00
2.760519e+00
3.058990e+00
3.322863e+00
3.549377e+00
3.735956e+00
3.880487e+00
3.982145e+00
4.042833e+00
4.068723e+00
4.073481e+00
0.000000e+00
7.021572e-01
1.292699e+00
1.847513e+00
2.383161e+00
2.893537e+00
3.371927e+00
3.812785e+00
4.211178e+00
4.562288e+00
4.861062e+00
5.102165e+00
5.280808e+00
5.395128e+00
5.450439e+00
5.464080e+00
5.463809e+00
0.000000e+00
-4.266612e-01
-8.471026e-01
-1.396920e+00
-2.075611e+00
-2.883217e+00
-3.813277e+00
-4.857151e+00
-6.004682e+00
-7.245165e+00
-8.568282e+00
-9.965620e+00
-1.143374e+01
-1.298103e+01
-1.465019e+01
-1.657516e+01
-1.938479e+01
0.000000e+00
-2.635551e-01
-7.009062e-01
-1.253049e+00
-1.938087e+00
-2.753379e+00
-3.692589e+00
-4.746547e+00
-5.904743e+00
-7.156046e+00
-8.489641e+00
-9.896556e+00
-1.137270e+01
-1.292627e+01
-1.459511e+01
-1.650811e+01
-1.887371e+01
0.000000e+00
-2.010964e-01
-6.000098e-01
-1.151410e+00
-1.839705e+00
-2.660844e+00
-3.607025e+00
-4.668832e+00
-5.835667e+00
-7.096411e+00
-8.440330e+00
-9.858662e+00
-1.134766e+01
-1.291414e+01
-1.458474e+01
-1.639202e+01
-1.813681e+01
0.000000e+00
-1.766514e-01
-5.508125e-01
-1.092276e+00
-1.781297e+00
-2.605949e+00
-3.556962e+00
-4.624543e+00
-5.798230e+00
-7.067133e+00
-8.420673e+00
-9.849841e+00
-1.134903e+01
-1.291739e+01
-1.455240e+01
-1.620430e+01
-1.771659e+01
0.000000e+00
-1.701565e-01
-5.362445e-01
-1.073609e+00
-1.762235e+00
-2.588473e+00
-3.541927e+00
-4.612868e+00
-5.791046e+00
-7.065728e+00
-8.426060e+00
-9.861554e+00
-1.136215e+01
-1.291581e+01
-1.449721e+01
-1.604790e+01
-1.746671e+01
0.000000e+00
-1.765270e-01
-5.507255e-01
-1.092429e+00
-1.782037e+00
-2.607890e+00
-3.561113e+00
-4.632412e+00
-5.811818e+00
-7.088579e+00
-8.451139e+00
-9.886794e+00
-1.138049e+01
-1.291159e+01
-1.444816e+01
-1.594154e+01
-1.732740e+01
0.000000e+00
-2.008917e-01
-5.998620e-01
-1.151654e+00
-1.840934e+00
-2.664103e+00
-3.614028e+00
-4.682151e+00
-5.858720e+00
-7.132891e+00
-8.492385e+00
-9.922576e+00
-1.140482e+01
-1.291427e+01
-1.441866e+01
-1.588101e+01
-1.726587e+01
0.000000e+00
-2.633545e-01
-7.007616e-01
-1.253357e+00
-1.939542e+00
-2.757186e+00
-3.700709e+00
-4.761903e+00
-5.931178e+00
-7.197639e+00
-8.548617e+00
-9.968532e+00
-1.143722e+01
-1.292853e+01
-1.441125e+01
-1.585596e+01
-1.725143e+01
0.000000e+00
-4.265447e-01
-8.470626e-01
-1.397382e+00
-2.077281e+00
-2.887275e+00
-3.821584e+00
-4.872375e+00
-6.030140e+00
-7.283975e+00
-8.621076e+00
-1.002566e+01
-1.147754e+01
-1.295122e+01
-1.441752e+01
-1.585137e+01
-1.725167e+01


0.000000e+00
3.245784e-06
6.665499e-06
9.611679e-06
1.204985e-05
1.400346e-05
1.551427e-05
1.664416e-05
1.746316e-05
1.804025e-05
1.843727e-05
1.870706e-05
1.889501e-05
1.904127e-05
1.918201e-05
1.936636e-05
1.959700e-05
0.000000e+00
2.327668e-06
5.302670e-06
7.593032e-06
9.394206e-06
1.080664e-05
1.188069e-05
1.266816e-05
1.322587e-05
1.360780e-05
1.385993e-05
1.401819e-05
1.410770e-05
1.414763e-05
1.418970e-05
1.433925e-05
1.457582e-05
0.000000e+00
1.712713e-06
3.624666e-06
5.158598e-06
6.383559e-06
7.325082e-06
8.025749e-06
8.527884e-06
8.873281e-06
9.099579e-06
9.237967e-06
9.312688e-06
9.343072e-06
9.352400e-06
9.384429e-06
9.502551e-06
9.692157e-06
0.000000e+00
8.686020e-07
1.718443e-06
2.501967e-06
3.143240e-06
3.632515e-06
3.991192e-06
4.244266e-06
4.414136e-06
4.520257e-06
4.579405e-06
4.606507e-06
4.617030e-06
4.629325e-06
4.660524e-06
4.730743e-06
4.843495e-06
0.000000e+00
-1.441813e-09
-3.077160e-09
-5.000773e-09
-7.428867e-09
-1.065252e-08
-1.507080e-08
-2.114017e-08
-2.922867e-08
-3.930514e-08
-5.037390e-08
-5.964669e-08
-6.212800e-08
-5.311035e-08
-3.351086e-08
-1.523938e-09
5.409026e-08
0.000000e+00
-8.713387e-07
-1.724142e-06
-2.511244e-06
-3.156851e-06
-3.651550e-06
-4.017222e-06
-4.279471e-06
-4.461315e-06
-4.582529e-06
-4.659263e-06
-4.703708e-06
-4.724748e-06
-4.730328e-06
-4.729316e-06
-4.722438e-06
-4.699744e-06
0.000000e+00
-1.714777e-06
-3.629593e-06
-5.166806e-06
-6.395428e-06
-7.340711e-06
-8.044953e-06
-8.550302e-06
-8.898711e-06
-9.128539e-06
-9.272461e-06
-9.357074e-06
-9.403429e-06
-9.427884e-06
-9.441707e-06
-9.447130e-06
-9.440958e-06
0.000000e+00
-2.329014e-06
-5.307044e-06
-7.600506e-06
-9.404707e-06
-1.081936e-05
-1.189383e-05
-1.267905e-05
-1.323141e-05
-1.360532e-05
-1.384832e-05
-1.399959e-05
-1.409001e-05
-1.414240e-05
-1.417180e-05
-1.418556e-05
-1.418757e-05
0.000000e+00
-3.248017e-06
-6.670143e-06
-9.618580e-06
-1.205841e-05
-1.401214e-05
-1.552037e-05
-1.664394e-05
-1.745231e-05
-1.801435e-05
-1.839191e-05
-1.863673e-05
-1.878950e-05
-1.887990e-05
-1.892774e-05
-1.894622e-05
-1.894947e-05
0.000000e+00
2.912000e-06
5.076129e-06
7.366136e-06
1.017151e-05
1.348559e-05
1.722061e-05
2.128499e-05
2.559602e-05
3.008556e-05
3.470087e-05
3.940555e-05
4.418324e-05
4.905931e-05
5.415876e-05
5.956047e-05
6.503774e-05
0.000000e+00
1.495404e-06
3.674953e-06
6.167488e-06
9.203460e-06
1.273190e-05
1.665704e-05
2.087818e-05
2.531223e-05
2.989409e-05
3.457608e-05
3.932704e-05
4.413376e-05
4.900865e-05
5.400900e-05
5.926226e-05
6.465124e-05
0.000000e+00
6.818578e-07
2.604614e-06
5.266974e-06
8.480787e-06
1.217572e-05
1.624351e-05
2.058234e-05
2.510902e-05
2.976102e-05
3.449438e-05
3.928156e-05
4.410892e-05
4.896883e-05
5.386242e-05
5.894815e-05
6.419835e-05
0.000000e+00
3.970752e-07
2.136357e-06
4.808771e-06
8.110876e-06
1.189273e-05
1.603384e-05
2.043271e-05
2.500755e-05
2.969702e-05
3.445822e-05
3.926357e-05
4.409527e-05
4.893469e-05
5.377450e-05
5.873281e-05
6.381275e-05
0.000000e+00
3.374705e-07
2.014604e-06
4.665357e-06
7.993610e-06
1.180381e-05
1.596884e-05
2.038730e-05
2.497839e-05
2.968091e-05
3.445147e-05
3.926082e-05
4.408824e-05
4.891554e-05
5.373679e-05
5.861820e-05
6.354818e-05
0.000000e+00
3.973842e-07
2.136680e-06
4.809173e-06
8.111559e-06
1.189422e-05
1.603696e-05
2.043846e-05
2.501682e-05
2.970999e-05
3.447327e-05
3.927546e-05
4.409454e-05
4.891451e-05
5.373063e-05
5.856672e-05
6.340049e-05
0.000000e+00
6.824012e-07
2.605361e-06
5.268064e-06
8.482568e-06
1.217917e-05
1.625014e-05
2.059393e-05
2.512722e-05
2.978639e-05
3.452463e-05
3.930837e-05
4.411391e-05
4.892526e-05
5.373479e-05
5.854424e-05
6.333271e-05
0.000000e+00
1.496754e-06
3.677247e-06
6.170520e-06
9.207586e-06
1.273807e-05
1.666678e-05
2.089341e-05
2.533478e-05
2.992481e-05
3.461296e-05
3.936175e-05
4.414409e-05
4.894123e-05
5.374115e-05
5.853538e-05
6.331021e-05
0.000000e+00
2.915000e-06
5.080666e-06
7.371781e-06
1.017832e-05
1.349401e-05
1.723157e-05
2.129988e-05
2.561636e-05
3.011213e-05
3.473193e-05
3.943322e-05
4.418419e-05
4.896182e-05
5.374974e-05
5.853475e-05
6.330674e-05


1.981063e+00
1.984234e+00
2.038922e+00
2.127113e+00
2.204259e+00
2.266541e+00
2.316196e+00
2.354249e+00
2.381931e+00
2.401032e+00
2.413483e+00
2.420821e+00
2.422979e+00
2.416301e+00
2.401919e+00
2.390978e+00
2.075880e+00
2.076793e+00
2.118193e+00
2.187915e+00
2.249510e+00
2.299359e+00
2.339181e+00
2.369662e+00
2.391809e+00
2.407067e+00
2.416959e+00
2.422652e+00
2.423782e+00
2.416550e+00
2.402393e+00
2.391815e+00
2.231943e+00
2.230076e+00
2.251937e+00
2.290422e+00
2.325020e+00
2.353862e+00
2.377011e+00
2.394697e+00
2.407519e+00
2.416310e+00
2.421929e+00
2.424994e+00
2.425015e+00
2.418892e+00
2.407635e+00
2.399566e+00
2.341327e+00
2.338789e+00
2.346394e+00
2.361725e+00
2.377464e+00
2.391392e+00
2.402717e+00
2.411342e+00
2.417557e+00
2.421771e+00
2.424407e+00
2.425793e+00
2.425668e+00
2.422328e+00
2.416242e+00
2.411948e+00
2.341270e+00
2.338718e+00
2.346301e+00
2.361598e+00
2.377286e+00
2.391142e+00
2.402366e+00
2.410864e+00
2.416939e+00
2.421038e+00
2.423651e+00
2.425234e+00
2.425931e+00
2.425215e+00
2.423273e+00
2.421875e+00
2.231729e+00
2.229818e+00
2.251623e+00
2.290050e+00
2.324576e+00
2.353322e+00
2.376332e+00
2.393823e+00
2.406406e+00
2.414983e+00
2.420556e+00
2.424075e+00
2.426238e+00
2.427304e+00
2.427567e+00
2.427586e+00
2.075470e+00
2.076317e+00
2.117656e+00
2.187366e+00
2.248994e+00
2.298913e+00
2.338817e+00
2.369343e+00
2.391467e+00
2.406657e+00
2.416567e+00
2.422756e+00
2.426492e+00
2.428638e+00
2.429766e+00
2.430240e+00
1.980532e+00
1.983624e+00
2.038263e+00
2.126496e+00
2.203779e+00
2.266298e+00
2.316256e+00
2.354610e+00
2.382520e+00
2.401752e+00
2.414316e+00
2.422112e+00
2.426720e+00
2.429308e+00
2.430644e+00
2.431211e+00


-9.666514e-02
5.562658e-02
1.654299e-01
2.273760e-01
3.009779e-01
3.854239e-01
4.744993e-01
5.626129e-01
6.449405e-01
7.174325e-01
7.770595e-01
8.217340e-01
8.501514e-01
8.613358e-01
8.702146e-01
4.312408e-01
5.944058e-01
5.148361e-01
5.387891e-01
5.714635e-01
6.106045e-01
6.549157e-01
7.016998e-01
7.491422e-01
7.957440e-01
8.403804e-01
8.823669e-01
9.212336e-01
9.556125e-01
9.783760e-01
9.228143e-01
1.682749e-01
8.593144e-01
8.115766e-01
7.888305e-01
7.926801e-01
8.053754e-01
8.214022e-01
8.392339e-01
8.585394e-01
8.791398e-01
9.005408e-01
9.212966e-01
9.377016e-01
9.411732e-01
9.114511e-01
8.042750e-01
6.118223e-01
9.680822e-01
9.339545e-01
9.104315e-01
9.011129e-01
8.992873e-01
8.996595e-01
9.009644e-01
9.030552e-01
9.057768e-01
9.083586e-01
9.087845e-01
9.032214e-01
8.863925e-01
8.565972e-01
8.318380e-01
8.259070e-01
9.682447e-01
9.341753e-01
9.106372e-01
9.011113e-01
8.987188e-01
8.979130e-01
8.970679e-01
8.956191e-01
8.930853e-01
8.888130e-01
8.820884e-01
8.729283e-01
8.643676e-01
8.660167e-01
8.897449e-01
9.306343e-01
8.596561e-01
8.120575e-01
7.893060e-01
7.927844e-01
8.044310e-01
8.182124e-01
8.318550e-01
8.441192e-01
8.540152e-01
8.609658e-01
8.654962e-01
8.703819e-01
8.815462e-01
9.054434e-01
9.414770e-01
9.787343e-01
5.945306e-01
5.150166e-01
5.389262e-01
5.714240e-01
6.101525e-01
6.536348e-01
6.988859e-01
7.436732e-01
7.859779e-01
8.242342e-01
8.578806e-01
8.880230e-01
9.175136e-01
9.486772e-01
9.778953e-01
9.963032e-01
-9.724420e-02
5.459288e-02
1.640543e-01
2.256418e-01
2.992635e-01
3.847351e-01
4.767920e-01
5.710627e-01
6.639507e-01
7.521397e-01
8.321417e-01
8.997850e-01
9.506168e-01
9.821319e-01
9.964980e-01
9.999259e-01
1 2 19 18
2 3 20 19
3 4 21 20
4 5 22 21
5 6 23 22
6 7 24 23
7 8 25 24
8 9 26 25
9 10 27 26
10 11 28 27
11 12 29 28
12 13 30 29
13 14 31 30
14 15 32 31
15 16 33 32
16 17 34 33
18 19 36 35
19 20 37 36
20 21 38 37
21 22 39 38
22 23 40 39
23 24 41 40
24 25 42 41
25 26 43 42
26 27 44 43
27 28 45 44
28 29 46 45
29 30 47 46
30 31 48 47
31 32 49 48
32 33 50 49
33 34 51 50
35 36 53 52
36 37 54 53
37 38 55 54
38 39 56 55
39 40 57 56
40 41 58 57
41 42 59 58
42 43 60 59
43 44 61 60
44 45 62 61
45 46 63 62
46 47 64 63
47 48 65 64
48 49 66 65
49 50 67 66
50 51 68 67
52 53 70 69
53 54 71 70
54 55 72 71
55 56 73 72
56 57 74 73
57 58 75 74
58 59 76 75
59 60 77 76
60 61 78 77
61 62 79 78
62 63 80 79
63 64 81 80
64 65 82 81
65 66 83 82
66 67 84 83
67 68 85 84
69 70 87 86
70 71 88 87
71 72 89 88
72 73 90 89
73 74 91 90
74 75 92 91
75 76 93 92
76 77 94 93
77 78 95 94
78 79 96 95
79 80 97 96
80 81 98 97
81 82 99 98
82 83 100 99
83 84 101 100
84 85 102 101
86 87 104 103
87 88 105 104
88 89 106 105
89 90 107 106
90 91 108 107
91 92 109 108
92 93 110 109
93 94 111 110
94 95 112 111
95 96 113 112
96 97 114 113
97 98 115 114
98 99 116 115
99 100 117 116
100 101 118 117
101 102 119 118
103 104 121 120
104 105 122 121
105 106 123 122
106 107 124 123
107 108 125 124
108 109 126 125
109 110 127 126
110 111 128 127
111 112 129 128
112 113 130 129
113 114 131 130
114 115 132 131
115 116 133 132
116 117 134 133
117 118 135 134
118 119 136 135
120 121 138 137
121 122 139 138
122 123 140 139
123 124 141 140
124 125 142 141
125 126 143 142
126 127 144 143
127 128 145 144
128 129 146 145
129 130 147 146
130 131 148 147
131 132 149 148
132 133 150 149
133 134 151 150
134 135 152 151
135 136 153 152
