TITLE = "Solution"
VARIABLES = x, y, u, v, psiu, psiv, t, stress
ZONE T="structure" N=153 E=128 F=FEBLOCK ET=QUADRILATERAL VARLOCATION=([7,8]=cellcentered)
0.000000e+00
1.250000e+01
2.500000e+01
3.750000e+01
5.000000e+01
6.250000e+01
7.500000e+01
8.750000e+01
1.000000e+02
1.125000e+02
1.250000e+02
1.375000e+02
1.500000e+02
1.625000e+02
1.750000e+02
1.875000e+02
2.000000e+02
0.000000e+00
1.250000e+01
2.500000e+01
3.750000e+01
5.000000e+01
6.250000e+01
7.500000e+01
8.750000e+01
1.000000e+02
1.125000e+02
1.250000e+02
1.375000e+02
1.500000e+02
1.625000e+02
1.750000e+02
1.875000e+02
2.000000e+02
0.000000e+00
1.250000e+01
2.500000e+01
3.750000e+01
5.000000e+01
6.250000e+01
7.500000e+01
8.750000e+01
1.000000e+02
1.125000e+02
1.250000e+02
1.375000e+02
1.500000e+02
1.625000e+02
1.750000e+02
1.875000e+02
2.000000e+02
0.000000e+00
1.250000e+01
2.500000e+01
3.750000e+01
5.000000e+01
6.250000e+01
7.500000e+01
8.750000e+01
1.000000e+02
1.125000e+02
1.250000e+02
1.375000e+02
1.500000e+02
1.625000e+02
1.750000e+02
1.875000e+02
2.000000e+02
0.000000e+00
1.250000e+01
2.500000e+01
3.750000e+01
5.000000e+01
6.250000e+01
7.500000e+01
8.750000e+01
1.000000e+02
1.125000e+02
1.250000e+02
1.375000e+02
1.500000e+02
1.625000e+02
1.750000e+02
1.875000e+02
2.000000e+02
0.000000e+00
1.250000e+01
2.500000e+01
3.750000e+01
5.000000e+01
6.250000e+01
7.500000e+01
8.750000e+01
1.000000e+02
1.125000e+02
1.250000e+02
1.375000e+02
1.500000e+02
1.625000e+02
1.750000e+02
1.875000e+02
2.000000e+02
0.000000e+00
1.250000e+01
2.500000e+01
3.750000e+01
5.000000e+01
6.250000e+01
7.500000e+01
8.750000e+01
1.000000e+02
1.125000e+02
1.250000e+02
1.375000e+02
1.500000e+02
1.625000e+02
1.750000e+02
1.875000e+02
2.000000e+02
0.000000e+00
1.250000e+01
2.500000e+01
3.750000e+01
5.000000e+01
6.250000e+01
7.500000e+01
8.750000e+01
1.000000e+02
1.125000e+02
1.250000e+02
1.375000e+02
1.500000e+02
1.625000e+02
1.750000e+02
1.875000e+02
2.000000e+02
0.000000e+00
1.250000e+01
2.500000e+01
3.750000e+01
5.000000e+01
6.250000e+01
7.500000e+01
8.750000e+01
1.000000e+02
1.125000e+02
1.250000e+02
1.375000e+02
1.500000e+02
1.625000e+02
1.750000e+02
1.875000e+02
2.000000e+02
0.000000e+00
0.000000e+00
0.000000e+00
0.000000e+00
0.000000e+00
0.000000e+00
0.000000e+00
0.000000e+00
0.000000e+00
0.000000e+00
0.000000e+00
0.000000e+00
0.000000e+00
0.000000e+00
0.000000e+00
0.000000e+00
0.000000e+00
1.250000e+01
1.250000e+01
1.250000e+01
1.250000e+01
1.250000e+01
1.250000e+01
1.250000e+01
1.250000e+01
1.250000e+01
1.250000e+01
1.250000e+01
1.250000e+01
1.250000e+01
1.250000e+01
1.250000e+01
1.250000e+01
1.250000e+01
2.500000e+01
2.500000e+01
2.500000e+01
2.500000e+01
2.500000e+01
2.500000e+01
2.500000e+01
2.500000e+01
2.500000e+01
2.500000e+01
2.500000e+01
2.500000e+01
2.500000e+01
2.500000e+01
2.500000e+01
2.500000e+01
2.500000e+01
3.750000e+01
3.750000e+01
3.750000e+01
3.750000e+01
3.750000e+01
3.750000e+01
3.750000e+01
3.750000e+01
3.750000e+01
3.750000e+01
3.750000e+01
3.750000e+01
3.750000e+01
3.750000e+01
3.750000e+01
3.750000e+01
3.750000e+01
5.000000e+01
5.000000e+01
5.000000e+01
5.000000e+01
5.000000e+01
5.000000e+01
5.000000e+01
5.000000e+01
5.000000e+01
5.000000e+01
5.000000e+01
5.000000e+01
5.000000e+01
5.000000e+01
5.000000e+01
5.000000e+01
5.000000e+01
6.250000e+01
6.250000e+01
6.250000e+01
6.250000e+01
6.250000e+01
6.250000e+01
6.250000e+01
6.250000e+01
6.250000e+01
6.250000e+01
6.250000e+01
6.250000e+01
6.250000e+01
6.250000e+01
6.250000e+01
6.250000e+01
6.250000e+01
7.500000e+01
7.500000e+01
7.500000e+01
7.500000e+01
7.500000e+01
7.500000e+01
7.500000e+01
7.500000e+01
7.500000e+01
7.500000e+01
7.500000e+01
7.500000e+01
7.500000e+01
7.500000e+01
7.500000e+01
7.500000e+01
7.500000e+01
8.750000e+01
8.750000e+01
8.750000e+01
8.750000e+01
8.750000e+01
8.750000e+01
8.750000e+01
8.750000e+01
8.750000e+01
8.750000e+01
8.750000e+01
8.750000e+01
8.750000e+01
8.750000e+01
8.750000e+01
8.750000e+01
8.750000e+01
1.000000e+02
1.000000e+02
1.000000e+02
1.000000e+02
1.000000e+02
1.000000e+02
1.000000e+02
1.000000e+02
1.000000e+02
1.000000e+02
1.000000e+02
1.000000e+02
1.000000e+02
1.000000e+02
1.000000e+02
1.000000e+02
1.000000e+02
0.000000e+00
-7.160684e-02
-1.318509e-01
-1.872832e-01
-2.389063e-01
-2.866111e-01
-3.302954e-01
-3.699252e-01
-4.055583e-01
-4.373586e-01
-4.656415e-01
-4.909598e-01
-5.142643e-01
-5.371979e-01
-5.625939e-01
-5.937833e-01
-6.171876e-01
0.000000e+00
-4.276231e-02
-8.883037e-02
-1.313713e-01
-1.705646e-01
-2.065593e-01
-2.394301e-01
-2.692209e-01
-2.959855e-01
-3.198062e-01
-3.408041e-01
-3.591303e-01
-3.749020e-01
-3.879567e-01
-3.971649e-01
-3.991832e-01
-4.064192e-01
0.000000e+00
-2.674231e-02
-5.498888e-02
-8.316904e-02
-1.094744e-01
-1.336264e-01
-1.556054e-01
-1.754364e-01
-1.931242e-01
-2.086393e-01
-2.218982e-01
-2.327157e-01
-2.407062e-01
-2.451666e-01
-2.452904e-01
-2.435086e-01
-2.508888e-01
0.000000e+00
-1.290749e-02
-2.657180e-02
-4.032241e-02
-5.347050e-02
-6.558072e-02
-7.655746e-02
-8.636873e-02
-9.495838e-02
-1.022146e-01
-1.079520e-01
-1.118998e-01
-1.137347e-01
-1.133060e-01
-1.115448e-01
-1.120264e-01
-1.175217e-01
0.000000e+00
-1.189051e-05
-2.703084e-05
-4.212147e-05
-5.013048e-05
-3.537697e-05
3.326368e-05
2.116408e-04
5.913827e-04
1.308975e-03
2.542482e-03
4.470786e-03
7.142221e-03
1.016108e-02
1.224641e-02
1.167447e-02
8.036095e-03
0.000000e+00
1.288919e-02
2.652932e-02
4.025447e-02
5.338600e-02
6.551199e-02
7.658412e-02
8.665653e-02
9.581657e-02
1.041705e-01
1.118274e-01
1.188440e-01
1.250984e-01
1.301138e-01
1.330641e-01
1.332981e-01
1.314514e-01
0.000000e+00
2.673931e-02
5.497973e-02
8.315084e-02
1.094459e-01
1.335910e-01
1.555761e-01
1.754460e-01
1.932418e-01
2.089951e-01
2.227198e-01
2.343822e-01
2.438482e-01
2.508467e-01
2.550474e-01
2.564114e-01
2.559807e-01
0.000000e+00
4.277985e-02
8.886852e-02
1.314321e-01
1.706462e-01
2.066467e-01
2.394791e-01
2.691313e-01
2.955582e-01
3.186834e-01
3.383973e-01
3.545634e-01
3.670525e-01
3.758233e-01
3.810553e-01
3.832864e-01
3.836962e-01
0.000000e+00
7.163617e-02
1.319283e-01
1.874282e-01
2.391378e-01
2.869368e-01
3.306839e-01
3.702519e-01
4.055086e-01
4.362705e-01
4.622710e-01
4.831635e-01
4.986048e-01
5.084734e-01
5.132460e-01
5.144240e-01
5.144013e-01
0.000000e+00
-4.334560e-02
-8.509248e-02
-1.391867e-01
-2.055762e-01
-2.841368e-01
-3.740080e-01
-4.741842e-01
-5.836001e-01
-7.012046e-01
-8.260268e-01
-9.572939e-01
-1.094690e+00
-1.238947e+00
-1.393809e+00
-1.570999e+00
-1.825591e+00
0.000000e+00
-2.668435e-02
-7.023320e-02
-1.249982e-01
-1.924728e-01
-2.721054e-01
-3.630654e-01
-4.643224e-01
-5.747987e-01
-6.934244e-01
-8.192016e-01
-9.513222e-01
-1.089421e+00
-1.234211e+00
-1.389013e+00
-1.565128e+00
-1.780888e+00
0.000000e+00
-2.013572e-02
-5.993201e-02
-1.148992e-01
-1.830116e-01
-2.634639e-01
-3.552600e-01
-4.573595e-01
-5.686921e-01
-6.882032e-01
-8.149141e-01
-9.480444e-01
-1.087263e+00
-1.233167e+00
-1.388102e+00
-1.554977e+00
-1.716477e+00
0.000000e+00
-1.735155e-02
-5.481031e-02
-1.089713e-01
-1.773300e-01
-2.582775e-01
-3.506458e-01
-4.533552e-01
-5.653554e-01
-6.856203e-01
-8.131924e-01
-9.472763e-01
-1.087384e+00
-1.233449e+00
-1.385284e+00
-1.538619e+00
-1.679876e+00
0.000000e+00
-1.654949e-02
-5.326025e-02
-1.070803e-01
-1.754575e-01
-2.566065e-01
-3.492405e-01
-4.522804e-01
-5.646964e-01
-6.854788e-01
-8.136489e-01
-9.482853e-01
-1.088518e+00
-1.233312e+00
-1.380500e+00
-1.525049e+00
-1.658215e+00
0.000000e+00
-1.734125e-02
-5.480299e-02
-1.089843e-01
-1.773941e-01
-2.584463e-01
-3.510069e-01
-4.540390e-01
-5.665344e-01
-6.874786e-01
-8.158295e-01
-9.504722e-01
-1.090104e+00
-1.232949e+00
-1.376261e+00
-1.515854e+00
-1.646177e+00
0.000000e+00
-2.011892e-02
-5.991986e-02
-1.149209e-01
-1.831196e-01
-2.637495e-01
-3.558721e-01
-4.585206e-01
-5.706968e-01
-6.913687e-01
-8.194241e-01
-9.535767e-01
-1.092210e+00
-1.233183e+00
-1.373717e+00
-1.510631e+00
-1.640867e+00
0.000000e+00
-2.666860e-02
-7.022263e-02
-1.250271e-01
-1.926024e-01
-2.724412e-01
-3.637780e-01
-4.656644e-01
-5.771015e-01
-6.970383e-01
-8.243170e-01
-9.575594e-01
-1.095012e+00
-1.234415e+00
-1.373080e+00
-1.508471e+00
-1.639621e+00
0.000000e+00
-4.333909e-02
-8.509339e-02
-1.392315e-01
-2.057265e-01
-2.844956e-01
-3.747372e-01
-4.755146e-01
-5.858180e-01
-7.045784e-01
-8.306100e-01
-9.625041e-01
-1.098495e+00
-1.236373e+00
-1.373621e+00
-1.508076e+00
-1.639641e+00


0.000000e+00
9.520165e-08
1.907586e-07
2.795011e-07
3.627207e-07
4.399472e-07
5.108578e-07
5.754338e-07
6.338064e-07
6.862216e-07
7.330278e-07
7.746127e-07
8.112033e-07
8.425129e-07
8.681398e-07
8.900404e-07
9.095287e-07
0.000000e+00
5.354733e-08
1.302980e-07
1.993075e-07
2.625779e-07
3.208966e-07
3.742120e-07
4.225255e-07
4.658770e-07
5.042984e-07
5.377791e-07
5.662210e-07
5.894804e-07
6.080362e-07
6.249852e-07
6.451042e-07
6.658135e-07
0.000000e+00
3.374370e-08
8.234853e-08
1.279496e-07
1.704575e-07
2.095510e-07
2.450775e-07
2.769951e-07
3.052562e-07
3.297662e-07
3.503856e-07
3.670148e-07
3.799148e-07
3.904101e-07
4.014808e-07
4.164406e-07
4.337268e-07
0.000000e+00
1.648524e-08
3.947823e-08
6.181147e-08
8.306745e-08
1.025935e-07
1.201792e-07
1.357447e-07
1.491991e-07
1.604257e-07
1.693275e-07
1.759573e-07
1.807634e-07
1.848790e-07
1.901818e-07
1.989013e-07
2.109018e-07
0.000000e+00
1.721856e-11
2.129997e-11
-9.182643e-12
-1.035111e-10
-3.084016e-10
-6.923496e-10
-1.346507e-09
-2.376636e-09
-3.876806e-09
-5.871726e-09
-8.220377e-09
-1.050318e-08
-1.195106e-08
-1.137976e-08
-7.275611e-09
6.073942e-10
0.000000e+00
-1.645305e-08
-3.943507e-08
-6.181328e-08
-8.321826e-08
-1.030756e-07
-1.212916e-07
-1.379445e-07
-1.531309e-07
-1.669111e-07
-1.792580e-07
-1.900034e-07
-1.988038e-07
-2.051460e-07
-2.083960e-07
-2.077761e-07
-2.034583e-07
0.000000e+00
-3.372343e-08
-8.231860e-08
-1.279318e-07
-1.704931e-07
-2.097181e-07
-2.455121e-07
-2.779157e-07
-3.069863e-07
-3.327422e-07
-3.551212e-07
-3.739466e-07
-3.889206e-07
-3.996927e-07
-4.060849e-07
-4.082137e-07
-4.069387e-07
0.000000e+00
-5.356769e-08
-1.303386e-07
-1.993443e-07
-2.625713e-07
-3.207791e-07
-3.738724e-07
-4.217924e-07
-4.645020e-07
-5.019479e-07
-5.340457e-07
-5.606692e-07
-5.816537e-07
-5.968601e-07
-6.064230e-07
-6.111246e-07
-6.122605e-07
0.000000e+00
-9.531412e-08
-1.909579e-07
-2.797476e-07
-3.629313e-07
-4.399491e-07
-5.103232e-07
-5.737963e-07
-6.301621e-07
-6.792320e-07
-7.208576e-07
-7.549737e-07
-7.816390e-07
-8.010736e-07
-8.137321e-07
-8.202757e-07
-8.223774e-07
0.000000e+00
8.618465e-08
1.681306e-07
2.600829e-07
3.697528e-07
4.982721e-07
6.447979e-07
8.079756e-07
9.862445e-07
1.178090e-06
1.382212e-06
1.597813e-06
1.825327e-06
2.068025e-06
2.331898e-06
2.612193e-06
2.890286e-06
0.000000e+00
5.213386e-08
1.317785e-07
2.244515e-07
3.362563e-07
4.673584e-07
6.166574e-07
7.826220e-07
9.636514e-07
1.158209e-06
1.364973e-06
1.583083e-06
1.812559e-06
2.054839e-06
2.312291e-06
2.585476e-06
2.859909e-06
0.000000e+00
3.320821e-08
1.026364e-07
1.952076e-07
3.086230e-07
4.419641e-07
5.936763e-07
7.621090e-07
9.456335e-07
1.142707e-06
1.351961e-06
1.572323e-06
1.803055e-06
2.043478e-06
2.293197e-06
2.556407e-06
2.821995e-06
0.000000e+00
2.436588e-08
8.730529e-08
1.781551e-07
2.923134e-07
4.270417e-07
5.803251e-07
7.504077e-07
9.356388e-07
1.134447e-06
1.345353e-06
1.566947e-06
1.797745e-06
2.035887e-06
2.279884e-06
2.532944e-06
2.785305e-06
0.000000e+00
2.182477e-08
8.265680e-08
1.726696e-07
2.870285e-07
4.223124e-07
5.762737e-07
7.471095e-07
9.331481e-07
1.132760e-06
1.344311e-06
1.566080e-06
1.796085e-06
2.031865e-06
2.270999e-06
2.514979e-06
2.754328e-06
0.000000e+00
2.438557e-08
8.737911e-08
1.783377e-07
2.926763e-07
4.276822e-07
5.813645e-07
7.519742e-07
9.378218e-07
1.137203e-06
1.348338e-06
1.569276e-06
1.797746e-06
2.030948e-06
2.265857e-06
2.502255e-06
2.732114e-06
0.000000e+00
3.323996e-08
1.027650e-07
1.955275e-07
3.092594e-07
4.430886e-07
5.955036e-07
7.648656e-07
9.494784e-07
1.147566e-06
1.357224e-06
1.576343e-06
1.802495e-06
2.032759e-06
2.263905e-06
2.494630e-06
2.718581e-06
0.000000e+00
5.217418e-08
1.319417e-07
2.248456e-07
3.370328e-07
4.687238e-07
6.188669e-07
7.859394e-07
9.682480e-07
1.163958e-06
1.371068e-06
1.587355e-06
1.810304e-06
2.037046e-06
2.264606e-06
2.491203e-06
2.712120e-06
0.000000e+00
8.625145e-08
1.683214e-07
2.605079e-07
3.705614e-07
4.996613e-07
6.470007e-07
8.112123e-07
9.906089e-07
1.183326e-06
1.387311e-06
1.600285e-06
1.819711e-06
2.042832e-06
2.267030e-06
2.490645e-06
2.710236e-06


2.092286e-01
2.092286e-01
2.092287e-01
2.092291e-01
2.092295e-01
2.092298e-01
2.092300e-01
2.092303e-01
2.092305e-01
2.092307e-01
2.092309e-01
2.092310e-01
2.092311e-01
2.092310e-01
2.092308e-01
2.092307e-01
2.092292e-01
2.092291e-01
2.092292e-01
2.092295e-01
2.092298e-01
2.092300e-01
2.092303e-01
2.092305e-01
2.092306e-01
2.092308e-01
2.092309e-01
2.092310e-01
2.092311e-01
2.092310e-01
2.092308e-01
2.092307e-01
2.092302e-01
2.092301e-01
2.092301e-01
2.092302e-01
2.092304e-01
2.092305e-01
2.092306e-01
2.092308e-01
2.092309e-01
2.092310e-01
2.092310e-01
2.092311e-01
2.092311e-01
2.092310e-01
2.092308e-01
2.092307e-01
2.092308e-01
2.092307e-01
2.092307e-01
2.092307e-01
2.092308e-01
2.092308e-01
2.092309e-01
2.092310e-01
2.092310e-01
2.092310e-01
2.092311e-01
2.092311e-01
2.092311e-01
2.092310e-01
2.092310e-01
2.092309e-01
2.092308e-01
2.092307e-01
2.092307e-01
2.092307e-01
2.092308e-01
2.092308e-01
2.092309e-01
2.092309e-01
2.092310e-01
2.092310e-01
2.092310e-01
2.092311e-01
2.092311e-01
2.092311e-01
2.092311e-01
2.092311e-01
2.092302e-01
2.092301e-01
2.092301e-01
2.092302e-01
2.092304e-01
2.092305e-01
2.092306e-01
2.092307e-01
2.092308e-01
2.092309e-01
2.092310e-01
2.092310e-01
2.092311e-01
2.092311e-01
2.092312e-01
2.092312e-01
2.092292e-01
2.092291e-01
2.092292e-01
2.092295e-01
2.092298e-01
2.092300e-01
2.092303e-01
2.092305e-01
2.092306e-01
2.092308e-01
2.092309e-01
2.092310e-01
2.092311e-01
2.092312e-01
2.092313e-01
2.092313e-01
2.092286e-01
2.092286e-01
2.092287e-01
2.092291e-01
2.092295e-01
2.092298e-01
2.092301e-01
2.092303e-01
2.092305e-01
2.092307e-01
2.092309e-01
2.092311e-01
2.092312e-01
2.092313e-01
2.092313e-01
2.092314e-01


9.884639e-01
9.900998e-01
9.916131e-01
9.927781e-01
9.938594e-01
9.948565e-01
9.957649e-01
9.965740e-01
9.972752e-01
9.978617e-01
9.983281e-01
9.986697e-01
9.988821e-01
9.989579e-01
9.990125e-01
9.956411e-01
9.956357e-01
9.948860e-01
9.953683e-01
9.959978e-01
9.965847e-01
9.971181e-01
9.976010e-01
9.980384e-01
9.984344e-01
9.987931e-01
9.991185e-01
9.994133e-01
9.996704e-01
9.998387e-01
9.994130e-01
9.936418e-01
9.984836e-01
9.980530e-01
9.979368e-01
9.981003e-01
9.983154e-01
9.985237e-01
9.987171e-01
9.988999e-01
9.990770e-01
9.992496e-01
9.994108e-01
9.995356e-01
9.995617e-01
9.993369e-01
9.985214e-01
9.970548e-01
9.996914e-01
9.993773e-01
9.991834e-01
9.991341e-01
9.991538e-01
9.991868e-01
9.992197e-01
9.992519e-01
9.992834e-01
9.993099e-01
9.993172e-01
9.992779e-01
9.991533e-01
9.989295e-01
9.987397e-01
9.986916e-01
9.996925e-01
9.993790e-01
9.991848e-01
9.991338e-01
9.991489e-01
9.991727e-01
9.991892e-01
9.991947e-01
9.991872e-01
9.991629e-01
9.991176e-01
9.990523e-01
9.989902e-01
9.990026e-01
9.991782e-01
9.994822e-01
9.984858e-01
9.980563e-01
9.979399e-01
9.981003e-01
9.983070e-01
9.984979e-01
9.986595e-01
9.987893e-01
9.988865e-01
9.989520e-01
9.989934e-01
9.990339e-01
9.991189e-01
9.992972e-01
9.995649e-01
9.998418e-01
9.956353e-01
9.948857e-01
9.953677e-01
9.959960e-01
9.965801e-01
9.971076e-01
9.975793e-01
9.979968e-01
9.983607e-01
9.986718e-01
9.989351e-01
9.991650e-01
9.993865e-01
9.996187e-01
9.998358e-01
9.999725e-01
9.884560e-01
9.900875e-01
9.915980e-01
9.927611e-01
9.938442e-01
9.948510e-01
9.957837e-01
9.966401e-01
9.974204e-01
9.981232e-01
9.987400e-01
9.992516e-01
9.996323e-01
9.998671e-01
9.999740e-01
9.999994e-01
1 2 19 18
2 3 20 19
3 4 21 20
4 5 22 21
5 6 23 22
6 7 24 23
7 8 25 24
8 9 26 25
9 10 27 26
10 11 28 27
11 12 29 28
12 13 30 29
13 14 31 30
14 15 32 31
15 16 33 32
16 17 34 33
18 19 36 35
19 20 37 36
20 21 38 37
21 22 39 38
22 23 40 39
23 24 41 40
24 25 42 41
25 26 43 42
26 27 44 43
27 28 45 44
28 29 46 45
29 30 47 46
30 31 48 47
31 32 49 48
32 33 50 49
33 34 51 50
35 36 53 52
36 37 54 53
37 38 55 54
38 39 56 55
39 40 57 56
40 41 58 57
41 42 59 58
42 43 60 59
43 44 61 60
44 45 62 61
45 46 63 62
46 47 64 63
47 48 65 64
48 49 66 65
49 50 67 66
50 51 68 67
52 53 70 69
53 54 71 70
54 55 72 71
55 56 73 72
56 57 74 73
57 58 75 74
58 59 76 75
59 60 77 76
60 61 78 77
61 62 79 78
62 63 80 79
63 64 81 80
64 65 82 81
65 66 83 82
66 67 84 83
67 68 85 84
69 70 87 86
70 71 88 87
71 72 89 88
72 73 90 89
73 74 91 90
74 75 92 91
75 76 93 92
76 77 94 93
77 78 95 94
78 79 96 95
79 80 97 96
80 81 98 97
81 82 99 98
82 83 100 99
83 84 101 100
84 85 102 101
86 87 104 103
87 88 105 104
88 89 106 105
89 90 107 106
90 91 108 107
91 92 109 108
92 93 110 109
93 94 111 110
94 95 112 111
95 96 113 112
96 97 114 113
97 98 115 114
98 99 116 115
99 100 117 116
100 101 118 117
101 102 119 118
103 104 121 120
104 105 122 121
105 106 123 122
106 107 124 123
107 108 125 124
108 109 126 125
109 110 127 126
110 111 128 127
111 112 129 128
112 113 130 129
113 114 131 130
114 115 132 131
115 116 133 132
116 117 134 133
117 118 135 134
118 119 136 135
120 121 138 137
121 122 139 138
122 123 140 139
123 124 141 140
124 125 142 141
125 126 143 142
126 127 144 143
127 128 145 144
128 129 146 145
129 130 147 146
130 131 148 147
131 132 149 148
132 133 150 149
133 134 151 150
134 135 152 151
135 136 153 152
