TITLE = "Solution"
VARIABLES = x, y, u, v, psiu, psiv, t, stress
ZONE T="structure" N=153 E=128 F=FEBLOCK ET=QUADRILATERAL VARLOCATION=([7,8]=cellcentered)
0.000000e+00
1.250000e+01
2.500000e+01
3.750000e+01
5.000000e+01
6.250000e+01
7.500000e+01
8.750000e+01
1.000000e+02
1.125000e+02
1.250000e+02
1.375000e+02
1.500000e+02
1.625000e+02
1.750000e+02
1.875000e+02
2.000000e+02
0.000000e+00
1.250000e+01
2.500000e+01
3.750000e+01
5.000000e+01
6.250000e+01
7.500000e+01
8.750000e+01
1.000000e+02
1.125000e+02
1.250000e+02
1.375000e+02
1.500000e+02
1.625000e+02
1.750000e+02
1.875000e+02
2.000000e+02
0.000000e+00
1.250000e+01
2.500000e+01
3.750000e+01
5.000000e+01
6.250000e+01
7.500000e+01
8.750000e+01
1.000000e+02
1.125000e+02
1.250000e+02
1.375000e+02
1.500000e+02
1.625000e+02
1.750000e+02
1.875000e+02
2.000000e+02
0.000000e+00
1.250000e+01
2.500000e+01
3.750000e+01
5.000000e+01
6.250000e+01
7.500000e+01
8.750000e+01
1.000000e+02
1.125000e+02
1.250000e+02
1.375000e+02
1.500000e+02
1.625000e+02
1.750000e+02
1.875000e+02
2.000000e+02
0.000000e+00
1.250000e+01
2.500000e+01
3.750000e+01
5.000000e+01
6.250000e+01
7.500000e+01
8.750000e+01
1.000000e+02
1.125000e+02
1.250000e+02
1.375000e+02
1.500000e+02
1.625000e+02
1.750000e+02
1.875000e+02
2.000000e+02
0.000000e+00
1.250000e+01
2.500000e+01
3.750000e+01
5.000000e+01
6.250000e+01
7.500000e+01
8.750000e+01
1.000000e+02
1.125000e+02
1.250000e+02
1.375000e+02
1.500000e+02
1.625000e+02
1.750000e+02
1.875000e+02
2.000000e+02
0.000000e+00
1.250000e+01
2.500000e+01
3.750000e+01
5.000000e+01
6.250000e+01
7.500000e+01
8.750000e+01
1.000000e+02
1.125000e+02
1.250000e+02
1.375000e+02
1.500000e+02
1.625000e+02
1.750000e+02
1.875000e+02
2.000000e+02
0.000000e+00
1.250000e+01
2.500000e+01
3.750000e+01
5.000000e+01
6.250000e+01
7.500000e+01
8.750000e+01
1.000000e+02
1.125000e+02
1.250000e+02
1.375000e+02
1.500000e+02
1.625000e+02
1.750000e+02
1.875000e+02
2.000000e+02
0.000000e+00
1.250000e+01
2.500000e+01
3.750000e+01
5.000000e+01
6.250000e+01
7.500000e+01
8.750000e+01
1.000000e+02
1.125000e+02
1.250000e+02
1.375000e+02
1.500000e+02
1.625000e+02
1.750000e+02
1.875000e+02
2.000000e+02
0.000000e+00
0.000000e+00
0.000000e+00
0.000000e+00
0.000000e+00
0.000000e+00
0.000000e+00
0.000000e+00
0.000000e+00
0.000000e+00
0.000000e+00
0.000000e+00
0.000000e+00
0.000000e+00
0.000000e+00
0.000000e+00
0.000000e+00
1.250000e+01
1.250000e+01
1.250000e+01
1.250000e+01
1.250000e+01
1.250000e+01
1.250000e+01
1.250000e+01
1.250000e+01
1.250000e+01
1.250000e+01
1.250000e+01
1.250000e+01
1.250000e+01
1.250000e+01
1.250000e+01
1.250000e+01
2.500000e+01
2.500000e+01
2.500000e+01
2.500000e+01
2.500000e+01
2.500000e+01
2.500000e+01
2.500000e+01
2.500000e+01
2.500000e+01
2.500000e+01
2.500000e+01
2.500000e+01
2.500000e+01
2.500000e+01
2.500000e+01
2.500000e+01
3.750000e+01
3.750000e+01
3.750000e+01
3.750000e+01
3.750000e+01
3.750000e+01
3.750000e+01
3.750000e+01
3.750000e+01
3.750000e+01
3.750000e+01
3.750000e+01
3.750000e+01
3.750000e+01
3.750000e+01
3.750000e+01
3.750000e+01
5.000000e+01
5.000000e+01
5.000000e+01
5.000000e+01
5.000000e+01
5.000000e+01
5.000000e+01
5.000000e+01
5.000000e+01
5.000000e+01
5.000000e+01
5.000000e+01
5.000000e+01
5.000000e+01
5.000000e+01
5.000000e+01
5.000000e+01
6.250000e+01
6.250000e+01
6.250000e+01
6.250000e+01
6.250000e+01
6.250000e+01
6.250000e+01
6.250000e+01
6.250000e+01
6.250000e+01
6.250000e+01
6.250000e+01
6.250000e+01
6.250000e+01
6.250000e+01
6.250000e+01
6.250000e+01
7.500000e+01
7.500000e+01
7.500000e+01
7.500000e+01
7.500000e+01
7.500000e+01
7.500000e+01
7.500000e+01
7.500000e+01
7.500000e+01
7.500000e+01
7.500000e+01
7.500000e+01
7.500000e+01
7.500000e+01
7.500000e+01
7.500000e+01
8.750000e+01
8.750000e+01
8.750000e+01
8.750000e+01
8.750000e+01
8.750000e+01
8.750000e+01
8.750000e+01
8.750000e+01
8.750000e+01
8.750000e+01
8.750000e+01
8.750000e+01
8.750000e+01
8.750000e+01
8.750000e+01
8.750000e+01
1.000000e+02
1.000000e+02
1.000000e+02
1.000000e+02
1.000000e+02
1.000000e+02
1.000000e+02
1.000000e+02
1.000000e+02
1.000000e+02
1.000000e+02
1.000000e+02
1.000000e+02
1.000000e+02
1.000000e+02
1.000000e+02
1.000000e+02
0.000000e+00
-7.255321e-02
-1.335934e-01
-1.897584e-01
-2.420638e-01
-2.903992e-01
-3.346609e-01
-3.748146e-01
-4.109187e-01
-4.431395e-01
-4.717963e-01
-4.974493e-01
-5.210619e-01
-5.442987e-01
-5.700305e-01
-6.016323e-01
-6.253460e-01
0.000000e+00
-4.332745e-02
-9.000435e-02
-1.331075e-01
-1.728189e-01
-2.092893e-01
-2.425946e-01
-2.727792e-01
-2.998976e-01
-3.240333e-01
-3.453087e-01
-3.638773e-01
-3.798575e-01
-3.930848e-01
-4.024147e-01
-4.044597e-01
-4.117914e-01
0.000000e+00
-2.709572e-02
-5.571559e-02
-8.426819e-02
-1.109212e-01
-1.353924e-01
-1.576620e-01
-1.777552e-01
-1.956768e-01
-2.113970e-01
-2.248312e-01
-2.357917e-01
-2.438878e-01
-2.484072e-01
-2.485327e-01
-2.467273e-01
-2.542050e-01
0.000000e+00
-1.307806e-02
-2.692295e-02
-4.085530e-02
-5.417717e-02
-6.644746e-02
-7.756929e-02
-8.751026e-02
-9.621346e-02
-1.035656e-01
-1.093789e-01
-1.133788e-01
-1.152380e-01
-1.148037e-01
-1.130191e-01
-1.135071e-01
-1.190751e-01
0.000000e+00
-1.204780e-05
-2.738839e-05
-4.267864e-05
-5.079367e-05
-3.584524e-05
3.370274e-05
2.144380e-04
5.992003e-04
1.326280e-03
2.576096e-03
4.529894e-03
7.236650e-03
1.029542e-02
1.240833e-02
1.182883e-02
8.142347e-03
0.000000e+00
1.305953e-02
2.687992e-02
4.078646e-02
5.409154e-02
6.637782e-02
7.759630e-02
8.780187e-02
9.708300e-02
1.055473e-01
1.133055e-01
1.204149e-01
1.267520e-01
1.318337e-01
1.348229e-01
1.350600e-01
1.331889e-01
0.000000e+00
2.709268e-02
5.570632e-02
8.424974e-02
1.108924e-01
1.353566e-01
1.576323e-01
1.777648e-01
1.957959e-01
2.117575e-01
2.256636e-01
2.374802e-01
2.470714e-01
2.541624e-01
2.584187e-01
2.598007e-01
2.593643e-01
0.000000e+00
4.334522e-02
9.004299e-02
1.331691e-01
1.729015e-01
2.093778e-01
2.426442e-01
2.726885e-01
2.994647e-01
3.228957e-01
3.428701e-01
3.592500e-01
3.719042e-01
3.807910e-01
3.860921e-01
3.883528e-01
3.887680e-01
0.000000e+00
7.258294e-02
1.336719e-01
1.899053e-01
2.422984e-01
2.907292e-01
3.350546e-01
3.751456e-01
4.108683e-01
4.420369e-01
4.683812e-01
4.895499e-01
5.051953e-01
5.151945e-01
5.200302e-01
5.212238e-01
5.212007e-01
0.000000e+00
-4.391847e-02
-8.621712e-02
-1.410263e-01
-2.082933e-01
-2.878922e-01
-3.789514e-01
-4.804516e-01
-5.913137e-01
-7.104727e-01
-8.369448e-01
-9.699471e-01
-1.109159e+00
-1.255323e+00
-1.412232e+00
-1.591765e+00
-1.849722e+00
0.000000e+00
-2.703702e-02
-7.116146e-02
-1.266503e-01
-1.950167e-01
-2.757018e-01
-3.678641e-01
-4.704594e-01
-5.823960e-01
-7.025897e-01
-8.300294e-01
-9.638964e-01
-1.103820e+00
-1.250525e+00
-1.407372e+00
-1.585816e+00
-1.804428e+00
0.000000e+00
-2.040185e-02
-6.072413e-02
-1.164178e-01
-1.854305e-01
-2.669461e-01
-3.599555e-01
-4.634045e-01
-5.762087e-01
-6.972994e-01
-8.256852e-01
-9.605752e-01
-1.101634e+00
-1.249467e+00
-1.406450e+00
-1.575531e+00
-1.739166e+00
0.000000e+00
-1.758089e-02
-5.553475e-02
-1.104116e-01
-1.796737e-01
-2.616911e-01
-3.552803e-01
-4.593472e-01
-5.728279e-01
-6.946824e-01
-8.239408e-01
-9.597970e-01
-1.101757e+00
-1.249752e+00
-1.403595e+00
-1.558956e+00
-1.702080e+00
0.000000e+00
-1.676824e-02
-5.396420e-02
-1.084955e-01
-1.777765e-01
-2.599981e-01
-3.538564e-01
-4.582583e-01
-5.721601e-01
-6.945390e-01
-8.244033e-01
-9.608193e-01
-1.102905e+00
-1.249613e+00
-1.398747e+00
-1.545207e+00
-1.680133e+00
0.000000e+00
-1.757046e-02
-5.552732e-02
-1.104248e-01
-1.797387e-01
-2.618621e-01
-3.556462e-01
-4.600401e-01
-5.740224e-01
-6.965653e-01
-8.266127e-01
-9.630352e-01
-1.104513e+00
-1.249246e+00
-1.394452e+00
-1.535890e+00
-1.667936e+00
0.000000e+00
-2.038483e-02
-6.071182e-02
-1.164398e-01
-1.855399e-01
-2.672355e-01
-3.605757e-01
-4.645810e-01
-5.782398e-01
-7.005068e-01
-8.302549e-01
-9.661807e-01
-1.106647e+00
-1.249483e+00
-1.391875e+00
-1.530598e+00
-1.662556e+00
0.000000e+00
-2.702106e-02
-7.115074e-02
-1.266796e-01
-1.951480e-01
-2.760420e-01
-3.685861e-01
-4.718192e-01
-5.847292e-01
-7.062513e-01
-8.352124e-01
-9.702161e-01
-1.109485e+00
-1.250731e+00
-1.391229e+00
-1.528410e+00
-1.661293e+00
0.000000e+00
-4.391188e-02
-8.621804e-02
-1.410717e-01
-2.084456e-01
-2.882558e-01
-3.796901e-01
-4.817996e-01
-5.935610e-01
-7.138912e-01
-8.415887e-01
-9.752262e-01
-1.113014e+00
-1.252715e+00
-1.391778e+00
-1.528010e+00
-1.661313e+00


0.000000e+00
8.476176e-08
1.698498e-07
2.488630e-07
3.229449e-07
3.916777e-07
4.547760e-07
5.122262e-07
5.641479e-07
6.107631e-07
6.523838e-07
6.893573e-07
7.218876e-07
7.497219e-07
7.725053e-07
7.919791e-07
8.093113e-07
0.000000e+00
4.769357e-08
1.160458e-07
1.774918e-07
2.338144e-07
2.857167e-07
3.331556e-07
3.761354e-07
4.146939e-07
4.488619e-07
4.786320e-07
5.039186e-07
5.245953e-07
5.410890e-07
5.561547e-07
5.740433e-07
5.924608e-07
0.000000e+00
3.006694e-08
7.335667e-08
1.139614e-07
1.518018e-07
1.865935e-07
2.182029e-07
2.465955e-07
2.717306e-07
2.935261e-07
3.118592e-07
3.266425e-07
3.381090e-07
3.474371e-07
3.572778e-07
3.705795e-07
3.859524e-07
0.000000e+00
1.469266e-08
3.517085e-08
5.505797e-08
7.398056e-08
9.135820e-08
1.070050e-07
1.208512e-07
1.328173e-07
1.428003e-07
1.507148e-07
1.566084e-07
1.608803e-07
1.645386e-07
1.692531e-07
1.770062e-07
1.876777e-07
0.000000e+00
1.525677e-11
1.882253e-11
-8.353490e-12
-9.230790e-11
-2.745767e-10
-6.160566e-10
-1.197783e-09
-2.113772e-09
-3.447626e-09
-5.221248e-09
-7.309148e-09
-9.338143e-09
-1.062446e-08
-1.011562e-08
-6.466242e-09
5.428465e-10
0.000000e+00
-1.466414e-08
-3.513267e-08
-5.505990e-08
-7.411511e-08
-9.178741e-08
-1.079948e-07
-1.228079e-07
-1.363141e-07
-1.485675e-07
-1.595448e-07
-1.690971e-07
-1.769196e-07
-1.825564e-07
-1.854447e-07
-1.848933e-07
-1.810546e-07
0.000000e+00
-3.004897e-08
-7.333018e-08
-1.139458e-07
-1.518338e-07
-1.867425e-07
-2.185898e-07
-2.474145e-07
-2.732693e-07
-2.961723e-07
-3.160696e-07
-3.328055e-07
-3.461161e-07
-3.556911e-07
-3.613728e-07
-3.632649e-07
-3.621315e-07
0.000000e+00
-4.771168e-08
-1.160819e-07
-1.775246e-07
-2.338087e-07
-2.856125e-07
-3.328541e-07
-3.754839e-07
-4.134718e-07
-4.467725e-07
-4.753132e-07
-4.989834e-07
-5.176383e-07
-5.311559e-07
-5.396564e-07
-5.438357e-07
-5.448452e-07
0.000000e+00
-8.486179e-08
-1.700270e-07
-2.490821e-07
-3.231323e-07
-3.916793e-07
-4.543007e-07
-5.107704e-07
-5.609081e-07
-6.045494e-07
-6.415650e-07
-6.718994e-07
-6.956068e-07
-7.128842e-07
-7.241370e-07
-7.299534e-07
-7.318215e-07
0.000000e+00
7.673411e-08
1.496727e-07
2.315095e-07
3.291159e-07
4.434989e-07
5.739061e-07
7.191294e-07
8.777774e-07
1.048500e-06
1.230141e-06
1.421988e-06
1.624427e-06
1.840365e-06
2.075136e-06
2.324515e-06
2.571943e-06
0.000000e+00
4.640768e-08
1.172985e-07
1.997838e-07
2.992980e-07
4.159868e-07
5.488677e-07
6.965753e-07
8.576826e-07
1.030821e-06
1.214813e-06
1.408893e-06
1.613076e-06
1.828643e-06
2.057701e-06
2.300755e-06
2.544925e-06
0.000000e+00
2.954984e-08
9.134640e-08
1.737477e-07
2.747022e-07
3.933892e-07
5.284220e-07
6.783288e-07
8.416584e-07
1.017036e-06
1.203244e-06
1.399327e-06
1.604628e-06
1.818545e-06
2.040724e-06
2.274904e-06
2.511206e-06
0.000000e+00
2.167549e-08
7.769644e-08
1.585685e-07
2.601878e-07
3.801124e-07
5.165454e-07
6.679217e-07
8.327703e-07
1.009692e-06
1.197369e-06
1.394549e-06
1.599908e-06
1.811796e-06
2.028888e-06
2.254040e-06
2.478577e-06
0.000000e+00
1.941309e-08
7.355844e-08
1.536861e-07
2.554849e-07
3.759048e-07
5.129415e-07
6.649882e-07
8.305554e-07
1.008191e-06
1.196443e-06
1.393777e-06
1.598433e-06
1.808220e-06
2.020989e-06
2.238067e-06
2.451032e-06
0.000000e+00
2.169301e-08
7.776208e-08
1.587308e-07
2.605103e-07
3.806817e-07
5.174693e-07
6.693142e-07
8.347110e-07
1.012142e-06
1.200023e-06
1.396619e-06
1.599909e-06
1.807406e-06
2.016418e-06
2.226755e-06
2.431281e-06
0.000000e+00
2.957811e-08
9.146078e-08
1.740321e-07
2.752679e-07
3.943889e-07
5.300464e-07
6.807794e-07
8.450765e-07
1.021356e-06
1.207923e-06
1.402901e-06
1.604131e-06
1.809015e-06
2.014684e-06
2.219978e-06
2.419250e-06
0.000000e+00
4.644357e-08
1.174436e-07
2.001341e-07
2.999884e-07
4.172006e-07
5.508319e-07
6.995244e-07
8.617691e-07
1.035932e-06
1.220232e-06
1.412691e-06
1.611073e-06
1.812827e-06
2.015307e-06
2.216931e-06
2.413507e-06
0.000000e+00
7.679358e-08
1.498424e-07
2.318875e-07
3.298348e-07
4.447339e-07
5.758644e-07
7.220068e-07
8.816573e-07
1.053155e-06
1.234675e-06
1.424187e-06
1.619435e-06
1.817970e-06
2.017462e-06
2.216435e-06
2.411832e-06


2.119936e-01
2.119935e-01
2.119938e-01
2.119944e-01
2.119949e-01
2.119954e-01
2.119958e-01
2.119962e-01
2.119966e-01
2.119968e-01
2.119971e-01
2.119973e-01
2.119974e-01
2.119973e-01
2.119970e-01
2.119968e-01
2.119945e-01
2.119944e-01
2.119946e-01
2.119950e-01
2.119954e-01
2.119958e-01
2.119962e-01
2.119965e-01
2.119967e-01
2.119970e-01
2.119972e-01
2.119973e-01
2.119974e-01
2.119973e-01
2.119970e-01
2.119968e-01
2.119960e-01
2.119958e-01
2.119959e-01
2.119961e-01
2.119963e-01
2.119965e-01
2.119967e-01
2.119969e-01
2.119971e-01
2.119972e-01
2.119973e-01
2.119974e-01
2.119974e-01
2.119973e-01
2.119971e-01
2.119969e-01
2.119970e-01
2.119969e-01
2.119968e-01
2.119969e-01
2.119969e-01
2.119970e-01
2.119971e-01
2.119972e-01
2.119973e-01
2.119973e-01
2.119974e-01
2.119974e-01
2.119974e-01
2.119973e-01
2.119972e-01
2.119972e-01
2.119970e-01
2.119969e-01
2.119968e-01
2.119969e-01
2.119969e-01
2.119970e-01
2.119971e-01
2.119972e-01
2.119973e-01
2.119973e-01
2.119973e-01
2.119974e-01
2.119974e-01
2.119974e-01
2.119974e-01
2.119974e-01
2.119960e-01
2.119958e-01
2.119959e-01
2.119961e-01
2.119963e-01
2.119965e-01
2.119967e-01
2.119969e-01
2.119970e-01
2.119971e-01
2.119972e-01
2.119973e-01
2.119974e-01
2.119975e-01
2.119976e-01
2.119976e-01
2.119945e-01
2.119944e-01
2.119946e-01
2.119950e-01
2.119954e-01
2.119958e-01
2.119961e-01
2.119965e-01
2.119967e-01
2.119970e-01
2.119972e-01
2.119973e-01
2.119975e-01
2.119976e-01
2.119977e-01
2.119978e-01
2.119936e-01
2.119935e-01
2.119938e-01
2.119944e-01
2.119949e-01
2.119954e-01
2.119958e-01
2.119962e-01
2.119966e-01
2.119969e-01
2.119971e-01
2.119974e-01
2.119975e-01
2.119977e-01
2.119978e-01
2.119978e-01


9.881570e-01
9.898364e-01
9.913900e-01
9.925859e-01
9.936960e-01
9.947196e-01
9.956522e-01
9.964828e-01
9.972027e-01
9.978048e-01
9.982836e-01
9.986343e-01
9.988523e-01
9.989301e-01
9.989862e-01
9.955251e-01
9.955195e-01
9.947499e-01
9.952451e-01
9.958913e-01
9.964938e-01
9.970414e-01
9.975372e-01
9.979862e-01
9.983927e-01
9.987609e-01
9.990951e-01
9.993976e-01
9.996616e-01
9.998345e-01
9.993973e-01
9.934725e-01
9.984432e-01
9.980012e-01
9.978819e-01
9.980497e-01
9.982705e-01
9.984844e-01
9.986830e-01
9.988706e-01
9.990524e-01
9.992296e-01
9.993951e-01
9.995233e-01
9.995500e-01
9.993192e-01
9.984821e-01
9.969764e-01
9.996832e-01
9.993608e-01
9.991616e-01
9.991111e-01
9.991313e-01
9.991651e-01
9.991989e-01
9.992320e-01
9.992644e-01
9.992915e-01
9.992991e-01
9.992587e-01
9.991307e-01
9.989010e-01
9.987061e-01
9.986568e-01
9.996844e-01
9.993625e-01
9.991631e-01
9.991108e-01
9.991263e-01
9.991507e-01
9.991676e-01
9.991733e-01
9.991655e-01
9.991406e-01
9.990941e-01
9.990271e-01
9.989633e-01
9.989760e-01
9.991563e-01
9.994684e-01
9.984455e-01
9.980046e-01
9.978851e-01
9.980498e-01
9.982620e-01
9.984580e-01
9.986238e-01
9.987571e-01
9.988569e-01
9.989241e-01
9.989666e-01
9.990082e-01
9.990955e-01
9.992784e-01
9.995533e-01
9.998376e-01
9.955191e-01
9.947496e-01
9.952444e-01
9.958895e-01
9.964891e-01
9.970307e-01
9.975148e-01
9.979435e-01
9.983171e-01
9.986364e-01
9.989067e-01
9.991428e-01
9.993702e-01
9.996085e-01
9.998314e-01
9.999718e-01
9.881489e-01
9.898238e-01
9.913745e-01
9.925685e-01
9.936804e-01
9.947139e-01
9.956714e-01
9.965507e-01
9.973518e-01
9.980732e-01
9.987064e-01
9.992317e-01
9.996225e-01
9.998636e-01
9.999733e-01
9.999994e-01
1 2 19 18
2 3 20 19
3 4 21 20
4 5 22 21
5 6 23 22
6 7 24 23
7 8 25 24
8 9 26 25
9 10 27 26
10 11 28 27
11 12 29 28
12 13 30 29
13 14 31 30
14 15 32 31
15 16 33 32
16 17 34 33
18 19 36 35
19 20 37 36
20 21 38 37
21 22 39 38
22 23 40 39
23 24 41 40
24 25 42 41
25 26 43 42
26 27 44 43
27 28 45 44
28 29 46 45
29 30 47 46
30 31 48 47
31 32 49 48
32 33 50 49
33 34 51 50
35 36 53 52
36 37 54 53
37 38 55 54
38 39 56 55
39 40 57 56
40 41 58 57
41 42 59 58
42 43 60 59
43 44 61 60
44 45 62 61
45 46 63 62
46 47 64 63
47 48 65 64
48 49 66 65
49 50 67 66
50 51 68 67
52 53 70 69
53 54 71 70
54 55 72 71
55 56 73 72
56 57 74 73
57 58 75 74
58 59 76 75
59 60 77 76
60 61 78 77
61 62 79 78
62 63 80 79
63 64 81 80
64 65 82 81
65 66 83 82
66 67 84 83
67 68 85 84
69 70 87 86
70 71 88 87
71 72 89 88
72 73 90 89
73 74 91 90
74 75 92 91
75 76 93 92
76 77 94 93
77 78 95 94
78 79 96 95
79 80 97 96
80 81 98 97
81 82 99 98
82 83 100 99
83 84 101 100
84 85 102 101
86 87 104 103
87 88 105 104
88 89 106 105
89 90 107 106
90 91 108 107
91 92 109 108
92 93 110 109
93 94 111 110
94 95 112 111
95 96 113 112
96 97 114 113
97 98 115 114
98 99 116 115
99 100 117 116
100 101 118 117
101 102 119 118
103 104 121 120
104 105 122 121
105 106 123 122
106 107 124 123
107 108 125 124
108 109 126 125
109 110 127 126
110 111 128 127
111 112 129 128
112 113 130 129
113 114 131 130
114 115 132 131
115 116 133 132
116 117 134 133
117 118 135 134
118 119 136 135
120 121 138 137
121 122 139 138
122 123 140 139
123 124 141 140
124 125 142 141
125 126 143 142
126 127 144 143
127 128 145 144
128 129 146 145
129 130 147 146
130 131 148 147
131 132 149 148
132 133 150 149
133 134 151 150
134 135 152 151
135 136 153 152
