TITLE = "Solution"
VARIABLES = x, y, u, v, psiu, psiv, t, stress
ZONE T="structure" N=153 E=128 F=FEBLOCK ET=QUADRILATERAL VARLOCATION=([7,8]=cellcentered)
0.000000e+00
1.250000e+01
2.500000e+01
3.750000e+01
5.000000e+01
6.250000e+01
7.500000e+01
8.750000e+01
1.000000e+02
1.125000e+02
1.250000e+02
1.375000e+02
1.500000e+02
1.625000e+02
1.750000e+02
1.875000e+02
2.000000e+02
0.000000e+00
1.250000e+01
2.500000e+01
3.750000e+01
5.000000e+01
6.250000e+01
7.500000e+01
8.750000e+01
1.000000e+02
1.125000e+02
1.250000e+02
1.375000e+02
1.500000e+02
1.625000e+02
1.750000e+02
1.875000e+02
2.000000e+02
0.000000e+00
1.250000e+01
2.500000e+01
3.750000e+01
5.000000e+01
6.250000e+01
7.500000e+01
8.750000e+01
1.000000e+02
1.125000e+02
1.250000e+02
1.375000e+02
1.500000e+02
1.625000e+02
1.750000e+02
1.875000e+02
2.000000e+02
0.000000e+00
1.250000e+01
2.500000e+01
3.750000e+01
5.000000e+01
6.250000e+01
7.500000e+01
8.750000e+01
1.000000e+02
1.125000e+02
1.250000e+02
1.375000e+02
1.500000e+02
1.625000e+02
1.750000e+02
1.875000e+02
2.000000e+02
0.000000e+00
1.250000e+01
2.500000e+01
3.750000e+01
5.000000e+01
6.250000e+01
7.500000e+01
8.750000e+01
1.000000e+02
1.125000e+02
1.250000e+02
1.375000e+02
1.500000e+02
1.625000e+02
1.750000e+02
1.875000e+02
2.000000e+02
0.000000e+00
1.250000e+01
2.500000e+01
3.750000e+01
5.000000e+01
6.250000e+01
7.500000e+01
8.750000e+01
1.000000e+02
1.125000e+02
1.250000e+02
1.375000e+02
1.500000e+02
1.625000e+02
1.750000e+02
1.875000e+02
2.000000e+02
0.000000e+00
1.250000e+01
2.500000e+01
3.750000e+01
5.000000e+01
6.250000e+01
7.500000e+01
8.750000e+01
1.000000e+02
1.125000e+02
1.250000e+02
1.375000e+02
1.500000e+02
1.625000e+02
1.750000e+02
1.875000e+02
2.000000e+02
0.000000e+00
1.250000e+01
2.500000e+01
3.750000e+01
5.000000e+01
6.250000e+01
7.500000e+01
8.750000e+01
1.000000e+02
1.125000e+02
1.250000e+02
1.375000e+02
1.500000e+02
1.625000e+02
1.750000e+02
1.875000e+02
2.000000e+02
0.000000e+00
1.250000e+01
2.500000e+01
3.750000e+01
5.000000e+01
6.250000e+01
7.500000e+01
8.750000e+01
1.000000e+02
1.125000e+02
1.250000e+02
1.375000e+02
1.500000e+02
1.625000e+02
1.750000e+02
1.875000e+02
2.000000e+02
0.000000e+00
0.000000e+00
0.000000e+00
0.000000e+00
0.000000e+00
0.000000e+00
0.000000e+00
0.000000e+00
0.000000e+00
0.000000e+00
0.000000e+00
0.000000e+00
0.000000e+00
0.000000e+00
0.000000e+00
0.000000e+00
0.000000e+00
1.250000e+01
1.250000e+01
1.250000e+01
1.250000e+01
1.250000e+01
1.250000e+01
1.250000e+01
1.250000e+01
1.250000e+01
1.250000e+01
1.250000e+01
1.250000e+01
1.250000e+01
1.250000e+01
1.250000e+01
1.250000e+01
1.250000e+01
2.500000e+01
2.500000e+01
2.500000e+01
2.500000e+01
2.500000e+01
2.500000e+01
2.500000e+01
2.500000e+01
2.500000e+01
2.500000e+01
2.500000e+01
2.500000e+01
2.500000e+01
2.500000e+01
2.500000e+01
2.500000e+01
2.500000e+01
3.750000e+01
3.750000e+01
3.750000e+01
3.750000e+01
3.750000e+01
3.750000e+01
3.750000e+01
3.750000e+01
3.750000e+01
3.750000e+01
3.750000e+01
3.750000e+01
3.750000e+01
3.750000e+01
3.750000e+01
3.750000e+01
3.750000e+01
5.000000e+01
5.000000e+01
5.000000e+01
5.000000e+01
5.000000e+01
5.000000e+01
5.000000e+01
5.000000e+01
5.000000e+01
5.000000e+01
5.000000e+01
5.000000e+01
5.000000e+01
5.000000e+01
5.000000e+01
5.000000e+01
5.000000e+01
6.250000e+01
6.250000e+01
6.250000e+01
6.250000e+01
6.250000e+01
6.250000e+01
6.250000e+01
6.250000e+01
6.250000e+01
6.250000e+01
6.250000e+01
6.250000e+01
6.250000e+01
6.250000e+01
6.250000e+01
6.250000e+01
6.250000e+01
7.500000e+01
7.500000e+01
7.500000e+01
7.500000e+01
7.500000e+01
7.500000e+01
7.500000e+01
7.500000e+01
7.500000e+01
7.500000e+01
7.500000e+01
7.500000e+01
7.500000e+01
7.500000e+01
7.500000e+01
7.500000e+01
7.500000e+01
8.750000e+01
8.750000e+01
8.750000e+01
8.750000e+01
8.750000e+01
8.750000e+01
8.750000e+01
8.750000e+01
8.750000e+01
8.750000e+01
8.750000e+01
8.750000e+01
8.750000e+01
8.750000e+01
8.750000e+01
8.750000e+01
8.750000e+01
1.000000e+02
1.000000e+02
1.000000e+02
1.000000e+02
1.000000e+02
1.000000e+02
1.000000e+02
1.000000e+02
1.000000e+02
1.000000e+02
1.000000e+02
1.000000e+02
1.000000e+02
1.000000e+02
1.000000e+02
1.000000e+02
1.000000e+02
0.000000e+00
-8.187609e-01
-1.489270e+00
-2.137717e+00
-2.797242e+00
-3.446235e+00
-4.085106e+00
-4.715996e+00
-5.332278e+00
-5.923244e+00
-6.479148e+00
-6.996063e+00
-7.480900e+00
-7.955349e+00
-8.457197e+00
-9.031552e+00
-9.444105e+00
0.000000e+00
-4.578255e-01
-9.529803e-01
-1.438913e+00
-1.933368e+00
-2.419721e+00
-2.897629e+00
-3.369107e+00
-3.829461e+00
-4.270043e+00
-4.681341e+00
-5.055225e+00
-5.385382e+00
-5.661212e+00
-5.851307e+00
-5.893258e+00
-6.025936e+00
0.000000e+00
-2.631710e-01
-5.520166e-01
-8.702546e-01
-1.199347e+00
-1.525568e+00
-1.847077e+00
-2.162475e+00
-2.466969e+00
-2.753125e+00
-3.011576e+00
-3.231384e+00
-3.399066e+00
-3.496011e+00
-3.503484e+00
-3.472003e+00
-3.609832e+00
0.000000e+00
-1.192086e-01
-2.538777e-01
-4.075904e-01
-5.709303e-01
-7.351643e-01
-8.972036e-01
-1.054108e+00
-1.201785e+00
-1.334519e+00
-1.444766e+00
-1.523380e+00
-1.560744e+00
-1.551621e+00
-1.514582e+00
-1.522364e+00
-1.629373e+00
0.000000e+00
-4.781615e-04
-1.012697e-03
-1.517954e-03
-1.827837e-03
-1.615829e-03
-2.581568e-04
3.380609e-03
1.122486e-02
2.621801e-02
5.226666e-02
9.337692e-02
1.508654e-01
2.166017e-01
2.633401e-01
2.543896e-01
1.807237e-01
0.000000e+00
1.184060e-01
2.521551e-01
4.049489e-01
5.676122e-01
7.319334e-01
8.958135e-01
1.058104e+00
1.217721e+00
1.373578e+00
1.524460e+00
1.668330e+00
1.800079e+00
1.907764e+00
1.972384e+00
1.979097e+00
1.940906e+00
0.000000e+00
2.627775e-01
5.511185e-01
8.687467e-01
1.197166e+00
1.522829e+00
1.844277e+00
2.160723e+00
2.468166e+00
2.760218e+00
3.029164e+00
3.266860e+00
3.464774e+00
3.613401e+00
3.703483e+00
3.733119e+00
3.724272e+00
0.000000e+00
4.579333e-01
9.531288e-01
1.439026e+00
1.933260e+00
2.419050e+00
2.895871e+00
3.365106e+00
3.820143e+00
4.248410e+00
4.634525e+00
4.963491e+00
5.223643e+00
5.408726e+00
5.519832e+00
5.567327e+00
5.576097e+00
0.000000e+00
8.191425e-01
1.490265e+00
2.139522e+00
2.799989e+00
3.449927e+00
4.089555e+00
4.719906e+00
5.330656e+00
5.903033e+00
6.413697e+00
6.839070e+00
7.160120e+00
7.367418e+00
7.467899e+00
7.492462e+00
7.491841e+00
0.000000e+00
-5.024190e-01
-1.026788e+00
-1.721422e+00
-2.579007e+00
-3.600577e+00
-4.789009e+00
-6.142918e+00
-7.656665e+00
-9.321625e+00
-1.112701e+01
-1.306254e+01
-1.512396e+01
-1.732327e+01
-1.972539e+01
-2.253825e+01
-2.673634e+01
0.000000e+00
-3.149989e-01
-8.612858e-01
-1.550170e+00
-2.407670e+00
-3.432028e+00
-4.622950e+00
-5.980012e+00
-7.499439e+00
-9.173272e+00
-1.099030e+01
-1.293893e+01
-1.501329e+01
-1.722596e+01
-1.963450e+01
-2.243456e+01
-2.593379e+01
0.000000e+00
-2.515473e-01
-7.499675e-01
-1.432575e+00
-2.287246e+00
-3.312519e+00
-4.505941e+00
-5.866918e+00
-7.392531e+00
-9.075705e+00
-1.090573e+01
-1.287123e+01
-1.496678e+01
-1.720328e+01
-1.961898e+01
-2.225200e+01
-2.476830e+01
0.000000e+00
-2.377258e-01
-7.020381e-01
-1.367445e+00
-2.217411e+00
-3.242186e+00
-4.438180e+00
-5.803917e+00
-7.336638e+00
-9.029970e+00
-1.087374e+01
-1.285622e+01
-1.496868e+01
-1.720870e+01
-1.956584e+01
-2.194479e+01
-2.407648e+01
0.000000e+00
-2.370568e-01
-6.901091e-01
-1.348235e+00
-2.195313e+00
-3.220438e+00
-4.418755e+00
-5.788696e+00
-7.327762e+00
-9.029954e+00
-1.088474e+01
-1.287778e+01
-1.499236e+01
-1.720606e+01
-1.946999e+01
-2.167574e+01
-2.364256e+01
0.000000e+00
-2.375151e-01
-7.019842e-01
-1.367968e+00
-2.219131e+00
-3.246083e+00
-4.445853e+00
-5.817920e+00
-7.360574e+00
-9.067858e+00
-1.092791e+01
-1.292231e+01
-1.502514e+01
-1.719839e+01
-1.938207e+01
-2.148591e+01
-2.339256e+01
0.000000e+00
-2.511934e-01
-7.498531e-01
-1.433373e+00
-2.289989e+00
-3.318856e+00
-4.518575e+00
-5.890196e+00
-7.432625e+00
-9.139573e+00
-1.099764e+01
-1.298475e+01
-1.506838e+01
-1.720290e+01
-1.932823e+01
-2.137586e+01
-2.328094e+01
0.000000e+00
-3.146422e-01
-8.611594e-01
-1.551040e+00
-2.410726e+00
-3.439181e+00
-4.637321e+00
-6.006554e+00
-7.545068e+00
-9.245612e+00
-1.109370e+01
-1.306562e+01
-1.512642e+01
-1.722856e+01
-1.931448e+01
-2.132999e+01
-2.325491e+01
0.000000e+00
-5.021839e-01
-1.026784e+00
-1.722444e+00
-2.582244e+00
-3.607959e+00
-4.803634e+00
-6.169412e+00
-7.700943e+00
-9.389317e+00
-1.121928e+01
-1.316724e+01
-1.519920e+01
-1.726975e+01
-1.932580e+01
-2.132153e+01
-2.325547e+01


0.000000e+00
9.439787e-06
1.858916e-05
2.718189e-05
3.596786e-05
4.444305e-05
5.206969e-05
5.863538e-05
6.398240e-05
6.802312e-05
7.086364e-05
7.277046e-05
7.407125e-05
7.509881e-05
7.612960e-05
7.762164e-05
7.960176e-05
0.000000e+00
6.930360e-06
1.497191e-05
2.148820e-05
2.813458e-05
3.457119e-05
4.026743e-05
4.506805e-05
4.889112e-05
5.167058e-05
5.350369e-05
5.460621e-05
5.517228e-05
5.532679e-05
5.549368e-05
5.670051e-05
5.876413e-05
0.000000e+00
5.194974e-06
1.052812e-05
1.499544e-05
1.948538e-05
2.367813e-05
2.735075e-05
3.041638e-05
3.282044e-05
3.452864e-05
3.560058e-05
3.616212e-05
3.635141e-05
3.635281e-05
3.653511e-05
3.753440e-05
3.922642e-05
0.000000e+00
2.592305e-06
4.924464e-06
7.398901e-06
9.665735e-06
1.169501e-05
1.347844e-05
1.497896e-05
1.615047e-05
1.697870e-05
1.748547e-05
1.773342e-05
1.783362e-05
1.794441e-05
1.820522e-05
1.879027e-05
1.975021e-05
0.000000e+00
-5.618177e-09
-1.177910e-08
-1.827441e-08
-2.539417e-08
-3.436212e-08
-4.864020e-08
-7.424071e-08
-1.172257e-07
-1.788313e-07
-2.506652e-07
-3.085989e-07
-3.091865e-07
-2.113000e-07
-4.653879e-08
1.749534e-07
5.884114e-07
0.000000e+00
-2.602351e-06
-4.944815e-06
-7.431079e-06
-9.710576e-06
-1.175415e-05
-1.355753e-05
-1.509096e-05
-1.631606e-05
-1.722328e-05
-1.783057e-05
-1.818050e-05
-1.833165e-05
-1.835745e-05
-1.835257e-05
-1.833314e-05
-1.818929e-05
0.000000e+00
-5.199995e-06
-1.054065e-05
-1.501788e-05
-1.952053e-05
-2.372838e-05
-2.741523e-05
-3.048268e-05
-3.286604e-05
-3.453987e-05
-3.559297e-05
-3.618803e-05
-3.649355e-05
-3.664964e-05
-3.674893e-05
-3.680220e-05
-3.676835e-05
0.000000e+00
-6.930784e-06
-1.497590e-05
-2.149766e-05
-2.815363e-05
-3.460559e-05
-4.031636e-05
-4.510080e-05
-4.884205e-05
-5.147791e-05
-5.315492e-05
-5.415035e-05
-5.472331e-05
-5.505492e-05
-5.524911e-05
-5.534508e-05
-5.536028e-05
0.000000e+00
-9.442311e-06
-1.858975e-05
-2.718002e-05
-3.596488e-05
-4.444233e-05
-5.206797e-05
-5.859923e-05
-6.383966e-05
-6.769792e-05
-7.031511e-05
-7.198536e-05
-7.300639e-05
-7.360285e-05
-7.391684e-05
-7.403658e-05
-7.405655e-05
0.000000e+00
8.285066e-06
1.424323e-05
2.140235e-05
3.081669e-05
4.205020e-05
5.498485e-05
6.951223e-05
8.533379e-05
1.021443e-04
1.197301e-04
1.379305e-04
1.566555e-04
1.761046e-04
1.974684e-04
2.216355e-04
2.464933e-04
0.000000e+00
4.279744e-06
1.042965e-05
1.755413e-05
2.690716e-05
3.839673e-05
5.180465e-05
6.688030e-05
8.330598e-05
1.007163e-04
1.188073e-04
1.373766e-04
1.563395e-04
1.758062e-04
1.962511e-04
2.190286e-04
2.431074e-04
0.000000e+00
1.869736e-06
7.367276e-06
1.473321e-05
2.411391e-05
3.581362e-05
4.956989e-05
6.504570e-05
8.189560e-05
9.973045e-05
1.181939e-04
1.370517e-04
1.561999e-04
1.755587e-04
1.950144e-04
2.162234e-04
2.390890e-04
0.000000e+00
1.070542e-06
5.964430e-06
1.336631e-05
2.291022e-05
3.472272e-05
4.860300e-05
6.423251e-05
8.125135e-05
9.926410e-05
1.179020e-04
1.369000e-04
1.560925e-04
1.752964e-04
1.943150e-04
2.143848e-04
2.357858e-04
0.000000e+00
9.151632e-07
5.573819e-06
1.291156e-05
2.255836e-05
3.441063e-05
4.832271e-05
6.399803e-05
8.107150e-05
9.914153e-05
1.178327e-04
1.368568e-04
1.560128e-04
1.751253e-04
1.941036e-04
2.135865e-04
2.336654e-04
0.000000e+00
1.071440e-06
5.963439e-06
1.336146e-05
2.290054e-05
3.471154e-05
4.860121e-05
6.425592e-05
8.131035e-05
9.935519e-05
1.180042e-04
1.369662e-04
1.560453e-04
1.751063e-04
1.941230e-04
2.133112e-04
2.325540e-04
0.000000e+00
1.870898e-06
7.365833e-06
1.472625e-05
2.409962e-05
3.579770e-05
4.957123e-05
6.509228e-05
8.200702e-05
9.990335e-05
1.183978e-04
1.372162e-04
1.561821e-04
1.751844e-04
1.941801e-04
2.131928e-04
2.320691e-04
0.000000e+00
4.282002e-06
1.043100e-05
1.755141e-05
2.689947e-05
3.839022e-05
5.181615e-05
6.693344e-05
8.341925e-05
1.008932e-04
1.190297e-04
1.375857e-04
1.563819e-04
1.752908e-04
1.942304e-04
2.131391e-04
2.319158e-04
0.000000e+00
8.289472e-06
1.424797e-05
2.140571e-05
3.081923e-05
4.205759e-05
5.500493e-05
6.954964e-05
8.539376e-05
1.022388e-04
1.198641e-04
1.380654e-04
1.566410e-04
1.754226e-04
1.942868e-04
2.131348e-04
2.318938e-04


2.155540e+00
2.114069e+00
2.254773e+00
2.482693e+00
2.671759e+00
2.909615e+00
3.203356e+00
3.513578e+00
3.805555e+00
4.051264e+00
4.233519e+00
4.348011e+00
4.378867e+00
4.248375e+00
3.965667e+00
3.745074e+00
2.726815e+00
2.684163e+00
2.775515e+00
2.939254e+00
3.077524e+00
3.256987e+00
3.482516e+00
3.722818e+00
3.951155e+00
4.144785e+00
4.288553e+00
4.377096e+00
4.391633e+00
4.252202e+00
3.974275e+00
3.759988e+00
3.589708e+00
3.555703e+00
3.591002e+00
3.662154e+00
3.723437e+00
3.813239e+00
3.929228e+00
4.055695e+00
4.179159e+00
4.286022e+00
4.365807e+00
4.413485e+00
4.412633e+00
4.298655e+00
4.080323e+00
3.918064e+00
4.144508e+00
4.122210e+00
4.122634e+00
4.133435e+00
4.150557e+00
4.181323e+00
4.223109e+00
4.271566e+00
4.322020e+00
4.367838e+00
4.403174e+00
4.425134e+00
4.424665e+00
4.365943e+00
4.250692e+00
4.164911e+00
4.144507e+00
4.122139e+00
4.122387e+00
4.132817e+00
4.149278e+00
4.179049e+00
4.219517e+00
4.266257e+00
4.314539e+00
4.358149e+00
4.392444e+00
4.416835e+00
4.429534e+00
4.417605e+00
4.380312e+00
4.350996e+00
3.589470e+00
3.555233e+00
3.590008e+00
3.660196e+00
3.720058e+00
3.808354e+00
3.923102e+00
4.048093e+00
4.168727e+00
4.271435e+00
4.348347e+00
4.400759e+00
4.434216e+00
4.450195e+00
4.451561e+00
4.448882e+00
2.725958e+00
2.682917e+00
2.773510e+00
2.936124e+00
3.073406e+00
3.253410e+00
3.482041e+00
3.726723e+00
3.957436e+00
4.149452e+00
4.289873e+00
4.381798e+00
4.437588e+00
4.469035e+00
4.484619e+00
4.490575e+00
2.154147e+00
2.112213e+00
2.252109e+00
2.479049e+00
2.667918e+00
2.908530e+00
3.209495e+00
3.529557e+00
3.829130e+00
4.076571e+00
4.256111e+00
4.372038e+00
4.440456e+00
4.478164e+00
4.497167e+00
4.505023e+00


-4.363720e-01
-1.967166e-01
-1.279417e-01
-1.674295e-01
-1.319134e-01
-9.683482e-02
-6.991243e-02
-2.158593e-02
6.166629e-02
1.756032e-01
3.028876e-01
4.206715e-01
5.141111e-01
5.846597e-01
6.600980e-01
-3.755479e-01
5.164810e-01
4.017047e-01
3.779000e-01
3.471471e-01
3.573393e-01
3.695836e-01
3.802911e-01
4.055393e-01
4.553628e-01
5.318433e-01
6.299131e-01
7.397393e-01
8.492752e-01
9.297798e-01
7.970980e-01
-1.065402e+00
8.328476e-01
7.460123e-01
6.771474e-01
6.455048e-01
6.376907e-01
6.346674e-01
6.348089e-01
6.432799e-01
6.650163e-01
7.021352e-01
7.505958e-01
7.959725e-01
8.073781e-01
7.247380e-01
4.451878e-01
-5.018023e-02
9.390955e-01
8.697233e-01
8.092346e-01
7.756592e-01
7.610131e-01
7.523594e-01
7.441452e-01
7.354444e-01
7.274646e-01
7.206161e-01
7.107319e-01
6.858613e-01
6.284922e-01
5.384641e-01
4.796686e-01
4.757003e-01
9.395403e-01
8.702920e-01
8.097644e-01
7.756291e-01
7.594842e-01
7.477114e-01
7.335542e-01
7.144399e-01
6.899688e-01
6.603208e-01
6.252413e-01
5.855871e-01
5.515488e-01
5.567605e-01
6.394113e-01
7.761618e-01
8.338613e-01
7.473508e-01
6.785090e-01
6.459544e-01
6.354178e-01
6.263708e-01
6.146501e-01
6.020498e-01
5.900698e-01
5.795173e-01
5.721238e-01
5.749233e-01
6.051942e-01
6.830660e-01
8.042361e-01
9.294373e-01
5.171692e-01
4.026766e-01
3.789634e-01
3.480892e-01
3.573148e-01
3.667240e-01
3.715602e-01
3.871565e-01
4.229280e-01
4.796981e-01
5.518464e-01
6.334699e-01
7.248089e-01
8.275456e-01
9.257638e-01
9.876929e-01
-4.371148e-01
-1.979797e-01
-1.294308e-01
-1.689123e-01
-1.329197e-01
-9.694673e-02
-6.640458e-02
-5.290975e-03
1.086420e-01
2.762904e-01
4.768790e-01
6.752717e-01
8.366604e-01
9.404006e-01
9.883360e-01
9.997605e-01
1 2 19 18
2 3 20 19
3 4 21 20
4 5 22 21
5 6 23 22
6 7 24 23
7 8 25 24
8 9 26 25
9 10 27 26
10 11 28 27
11 12 29 28
12 13 30 29
13 14 31 30
14 15 32 31
15 16 33 32
16 17 34 33
18 19 36 35
19 20 37 36
20 21 38 37
21 22 39 38
22 23 40 39
23 24 41 40
24 25 42 41
25 26 43 42
26 27 44 43
27 28 45 44
28 29 46 45
29 30 47 46
30 31 48 47
31 32 49 48
32 33 50 49
33 34 51 50
35 36 53 52
36 37 54 53
37 38 55 54
38 39 56 55
39 40 57 56
40 41 58 57
41 42 59 58
42 43 60 59
43 44 61 60
44 45 62 61
45 46 63 62
46 47 64 63
47 48 65 64
48 49 66 65
49 50 67 66
50 51 68 67
52 53 70 69
53 54 71 70
54 55 72 71
55 56 73 72
56 57 74 73
57 58 75 74
58 59 76 75
59 60 77 76
60 61 78 77
61 62 79 78
62 63 80 79
63 64 81 80
64 65 82 81
65 66 83 82
66 67 84 83
67 68 85 84
69 70 87 86
70 71 88 87
71 72 89 88
72 73 90 89
73 74 91 90
74 75 92 91
75 76 93 92
76 77 94 93
77 78 95 94
78 79 96 95
79 80 97 96
80 81 98 97
81 82 99 98
82 83 100 99
83 84 101 100
84 85 102 101
86 87 104 103
87 88 105 104
88 89 106 105
89 90 107 106
90 91 108 107
91 92 109 108
92 93 110 109
93 94 111 110
94 95 112 111
95 96 113 112
96 97 114 113
97 98 115 114
98 99 116 115
99 100 117 116
100 101 118 117
101 102 119 118
103 104 121 120
104 105 122 121
105 106 123 122
106 107 124 123
107 108 125 124
108 109 126 125
109 110 127 126
110 111 128 127
111 112 129 128
112 113 130 129
113 114 131 130
114 115 132 131
115 116 133 132
116 117 134 133
117 118 135 134
118 119 136 135
120 121 138 137
121 122 139 138
122 123 140 139
123 124 141 140
124 125 142 141
125 126 143 142
126 127 144 143
127 128 145 144
128 129 146 145
129 130 147 146
130 131 148 147
131 132 149 148
132 133 150 149
133 134 151 150
134 135 152 151
135 136 153 152
