TITLE = "Solution"
VARIABLES = x, y, u, v, psiu, psiv, t, stress
ZONE T="structure" N=153 E=128 F=FEBLOCK ET=QUADRILATERAL VARLOCATION=([7,8]=cellcentered)
0.000000e+00
1.250000e+01
2.500000e+01
3.750000e+01
5.000000e+01
6.250000e+01
7.500000e+01
8.750000e+01
1.000000e+02
1.125000e+02
1.250000e+02
1.375000e+02
1.500000e+02
1.625000e+02
1.750000e+02
1.875000e+02
2.000000e+02
0.000000e+00
1.250000e+01
2.500000e+01
3.750000e+01
5.000000e+01
6.250000e+01
7.500000e+01
8.750000e+01
1.000000e+02
1.125000e+02
1.250000e+02
1.375000e+02
1.500000e+02
1.625000e+02
1.750000e+02
1.875000e+02
2.000000e+02
0.000000e+00
1.250000e+01
2.500000e+01
3.750000e+01
5.000000e+01
6.250000e+01
7.500000e+01
8.750000e+01
1.000000e+02
1.125000e+02
1.250000e+02
1.375000e+02
1.500000e+02
1.625000e+02
1.750000e+02
1.875000e+02
2.000000e+02
0.000000e+00
1.250000e+01
2.500000e+01
3.750000e+01
5.000000e+01
6.250000e+01
7.500000e+01
8.750000e+01
1.000000e+02
1.125000e+02
1.250000e+02
1.375000e+02
1.500000e+02
1.625000e+02
1.750000e+02
1.875000e+02
2.000000e+02
0.000000e+00
1.250000e+01
2.500000e+01
3.750000e+01
5.000000e+01
6.250000e+01
7.500000e+01
8.750000e+01
1.000000e+02
1.125000e+02
1.250000e+02
1.375000e+02
1.500000e+02
1.625000e+02
1.750000e+02
1.875000e+02
2.000000e+02
0.000000e+00
1.250000e+01
2.500000e+01
3.750000e+01
5.000000e+01
6.250000e+01
7.500000e+01
8.750000e+01
1.000000e+02
1.125000e+02
1.250000e+02
1.375000e+02
1.500000e+02
1.625000e+02
1.750000e+02
1.875000e+02
2.000000e+02
0.000000e+00
1.250000e+01
2.500000e+01
3.750000e+01
5.000000e+01
6.250000e+01
7.500000e+01
8.750000e+01
1.000000e+02
1.125000e+02
1.250000e+02
1.375000e+02
1.500000e+02
1.625000e+02
1.750000e+02
1.875000e+02
2.000000e+02
0.000000e+00
1.250000e+01
2.500000e+01
3.750000e+01
5.000000e+01
6.250000e+01
7.500000e+01
8.750000e+01
1.000000e+02
1.125000e+02
1.250000e+02
1.375000e+02
1.500000e+02
1.625000e+02
1.750000e+02
1.875000e+02
2.000000e+02
0.000000e+00
1.250000e+01
2.500000e+01
3.750000e+01
5.000000e+01
6.250000e+01
7.500000e+01
8.750000e+01
1.000000e+02
1.125000e+02
1.250000e+02
1.375000e+02
1.500000e+02
1.625000e+02
1.750000e+02
1.875000e+02
2.000000e+02
0.000000e+00
0.000000e+00
0.000000e+00
0.000000e+00
0.000000e+00
0.000000e+00
0.000000e+00
0.000000e+00
0.000000e+00
0.000000e+00
0.000000e+00
0.000000e+00
0.000000e+00
0.000000e+00
0.000000e+00
0.000000e+00
0.000000e+00
1.250000e+01
1.250000e+01
1.250000e+01
1.250000e+01
1.250000e+01
1.250000e+01
1.250000e+01
1.250000e+01
1.250000e+01
1.250000e+01
1.250000e+01
1.250000e+01
1.250000e+01
1.250000e+01
1.250000e+01
1.250000e+01
1.250000e+01
2.500000e+01
2.500000e+01
2.500000e+01
2.500000e+01
2.500000e+01
2.500000e+01
2.500000e+01
2.500000e+01
2.500000e+01
2.500000e+01
2.500000e+01
2.500000e+01
2.500000e+01
2.500000e+01
2.500000e+01
2.500000e+01
2.500000e+01
3.750000e+01
3.750000e+01
3.750000e+01
3.750000e+01
3.750000e+01
3.750000e+01
3.750000e+01
3.750000e+01
3.750000e+01
3.750000e+01
3.750000e+01
3.750000e+01
3.750000e+01
3.750000e+01
3.750000e+01
3.750000e+01
3.750000e+01
5.000000e+01
5.000000e+01
5.000000e+01
5.000000e+01
5.000000e+01
5.000000e+01
5.000000e+01
5.000000e+01
5.000000e+01
5.000000e+01
5.000000e+01
5.000000e+01
5.000000e+01
5.000000e+01
5.000000e+01
5.000000e+01
5.000000e+01
6.250000e+01
6.250000e+01
6.250000e+01
6.250000e+01
6.250000e+01
6.250000e+01
6.250000e+01
6.250000e+01
6.250000e+01
6.250000e+01
6.250000e+01
6.250000e+01
6.250000e+01
6.250000e+01
6.250000e+01
6.250000e+01
6.250000e+01
7.500000e+01
7.500000e+01
7.500000e+01
7.500000e+01
7.500000e+01
7.500000e+01
7.500000e+01
7.500000e+01
7.500000e+01
7.500000e+01
7.500000e+01
7.500000e+01
7.500000e+01
7.500000e+01
7.500000e+01
7.500000e+01
7.500000e+01
8.750000e+01
8.750000e+01
8.750000e+01
8.750000e+01
8.750000e+01
8.750000e+01
8.750000e+01
8.750000e+01
8.750000e+01
8.750000e+01
8.750000e+01
8.750000e+01
8.750000e+01
8.750000e+01
8.750000e+01
8.750000e+01
8.750000e+01
1.000000e+02
1.000000e+02
1.000000e+02
1.000000e+02
1.000000e+02
1.000000e+02
1.000000e+02
1.000000e+02
1.000000e+02
1.000000e+02
1.000000e+02
1.000000e+02
1.000000e+02
1.000000e+02
1.000000e+02
1.000000e+02
1.000000e+02
0.000000e+00
-8.732800e-01
-1.557199e+00
-2.235006e+00
-2.920610e+00
-3.581862e+00
-4.245140e+00
-4.910744e+00
-5.569060e+00
-6.226584e+00
-6.889640e+00
-7.553028e+00
-8.206355e+00
-8.848965e+00
-9.489312e+00
-1.013480e+01
-1.056787e+01
0.000000e+00
-4.579327e-01
-9.503370e-01
-1.448088e+00
-1.961490e+00
-2.456612e+00
-2.952389e+00
-3.450225e+00
-3.941705e+00
-4.429928e+00
-4.917334e+00
-5.395289e+00
-5.844811e+00
-6.235479e+00
-6.502346e+00
-6.564960e+00
-6.716297e+00
0.000000e+00
-2.363108e-01
-5.062998e-01
-8.232327e-01
-1.160321e+00
-1.492786e+00
-1.828545e+00
-2.164373e+00
-2.494570e+00
-2.817428e+00
-3.127145e+00
-3.409231e+00
-3.639997e+00
-3.785955e+00
-3.812590e+00
-3.783026e+00
-3.935627e+00
0.000000e+00
-1.015045e-01
-2.197874e-01
-3.679034e-01
-5.290114e-01
-6.965189e-01
-8.662304e-01
-1.033847e+00
-1.195889e+00
-1.347234e+00
-1.478918e+00
-1.577470e+00
-1.626502e+00
-1.614018e+00
-1.561244e+00
-1.565107e+00
-1.692441e+00
0.000000e+00
-8.520023e-04
-1.696679e-03
-2.350341e-03
-2.504508e-03
-1.625472e-03
1.224729e-03
7.530837e-03
1.960215e-02
4.119777e-02
7.792334e-02
1.361594e-01
2.190893e-01
3.169054e-01
3.910901e-01
3.882081e-01
2.929687e-01
0.000000e+00
1.000375e-01
2.168542e-01
3.637144e-01
5.242880e-01
6.928877e-01
8.668288e-01
1.044206e+00
1.225415e+00
1.411483e+00
1.602056e+00
1.793693e+00
1.977200e+00
2.132950e+00
2.230470e+00
2.245097e+00
2.193290e+00
0.000000e+00
2.355267e-01
5.046625e-01
8.206530e-01
1.156863e+00
1.489078e+00
1.825677e+00
2.164088e+00
2.500811e+00
2.837220e+00
3.168794e+00
3.480881e+00
3.753022e+00
3.963685e+00
4.093953e+00
4.137829e+00
4.125910e+00
0.000000e+00
4.579711e-01
9.503576e-01
1.447866e+00
1.960634e+00
2.454946e+00
2.949007e+00
3.442754e+00
3.928277e+00
4.408340e+00
4.876136e+00
5.304564e+00
5.660074e+00
5.919743e+00
6.077615e+00
6.145426e+00
6.158041e+00
0.000000e+00
8.739610e-01
1.558818e+00
2.237632e+00
2.924040e+00
3.585993e+00
4.248804e+00
4.910513e+00
5.561297e+00
6.204280e+00
6.825550e+00
7.381024e+00
7.819190e+00
8.108243e+00
8.249251e+00
8.283280e+00
8.282113e+00
0.000000e+00
-5.399904e-01
-1.132685e+00
-1.919591e+00
-2.874931e+00
-3.997146e+00
-5.295769e+00
-6.768224e+00
-8.412990e+00
-1.023293e+01
-1.222864e+01
-1.439694e+01
-1.673541e+01
-1.925119e+01
-2.200014e+01
-2.519440e+01
-2.988758e+01
0.000000e+00
-3.451415e-01
-9.650924e-01
-1.741782e+00
-2.699441e+00
-3.824228e+00
-5.122003e+00
-6.595565e+00
-8.242247e+00
-1.006280e+01
-1.205983e+01
-1.423329e+01
-1.658224e+01
-1.911855e+01
-2.189296e+01
-2.508998e+01
-2.899911e+01
0.000000e+00
-2.906402e-01
-8.566606e-01
-1.625199e+00
-2.577365e+00
-3.701470e+00
-4.999831e+00
-6.475118e+00
-8.125088e+00
-9.950878e+00
-1.195646e+01
-1.414375e+01
-1.651453e+01
-1.908335e+01
-2.188032e+01
-2.490417e+01
-2.776209e+01
0.000000e+00
-2.953356e-01
-8.207990e-01
-1.567713e+00
-2.508981e+00
-3.630238e+00
-4.929907e+00
-6.408034e+00
-8.063764e+00
-9.899625e+00
-1.191989e+01
-1.412579e+01
-1.651593e+01
-1.909005e+01
-2.182346e+01
-2.456660e+01
-2.698172e+01
0.000000e+00
-3.015465e-01
-8.165782e-01
-1.552921e+00
-2.489128e+00
-3.609769e+00
-4.911825e+00
-6.393909e+00
-8.056212e+00
-9.902513e+00
-1.193672e+01
-1.415640e+01
-1.654945e+01
-1.908922e+01
-2.170330e+01
-2.423343e+01
-2.642954e+01
0.000000e+00
-2.952292e-01
-8.212408e-01
-1.569437e+00
-2.512910e+00
-3.637795e+00
-4.943122e+00
-6.429191e+00
-8.096092e+00
-9.948564e+00
-1.199058e+01
-1.421449e+01
-1.659438e+01
-1.908029e+01
-2.158514e+01
-2.397676e+01
-2.608614e+01
0.000000e+00
-2.904407e-01
-8.573271e-01
-1.627893e+00
-2.583623e+00
-3.713626e+00
-5.021255e+00
-6.509705e+00
-8.178346e+00
-1.003210e+01
-1.207482e+01
-1.429392e+01
-1.665212e+01
-1.908652e+01
-2.150994e+01
-2.382207e+01
-2.592946e+01
0.000000e+00
-3.449462e-01
-9.658035e-01
-1.744696e+00
-2.706365e+00
-3.837766e+00
-5.145829e+00
-6.634258e+00
-8.302390e+00
-1.015462e+01
-1.219240e+01
-1.439865e+01
-1.673066e+01
-1.912207e+01
-2.149020e+01
-2.375675e+01
-2.589334e+01
0.000000e+00
-5.399782e-01
-1.133564e+00
-1.922656e+00
-2.882036e+00
-4.010867e+00
-5.319384e+00
-6.806193e+00
-8.472112e+00
-1.032159e+01
-1.234976e+01
-1.453374e+01
-1.683090e+01
-1.917977e+01
-2.150597e+01
-2.374457e+01
-2.589442e+01


0.000000e+00
1.258326e-05
2.312492e-05
3.401666e-05
4.678063e-05
5.902967e-05
7.052059e-05
8.183738e-05
9.272452e-05
1.028189e-04
1.115791e-04
1.182123e-04
1.226828e-04
1.258972e-04
1.285662e-04
1.316256e-04
1.351998e-04
0.000000e+00
9.276284e-06
1.865031e-05
2.675716e-05
3.675966e-05
4.627183e-05
5.477140e-05
6.319049e-05
7.136737e-05
7.880987e-05
8.498688e-05
8.917848e-05
9.121133e-05
9.158270e-05
9.172914e-05
9.423050e-05
9.837409e-05
0.000000e+00
7.199771e-06
1.368377e-05
1.926080e-05
2.601725e-05
3.226318e-05
3.786483e-05
4.334452e-05
4.848801e-05
5.295557e-05
5.642239e-05
5.852457e-05
5.923813e-05
5.907338e-05
5.924991e-05
6.164198e-05
6.569632e-05
0.000000e+00
3.659191e-06
6.451841e-06
9.796125e-06
1.299342e-05
1.593630e-05
1.879847e-05
2.146000e-05
2.378920e-05
2.571092e-05
2.709953e-05
2.788708e-05
2.822657e-05
2.851068e-05
2.921671e-05
3.102985e-05
3.385594e-05
0.000000e+00
-1.722705e-08
-3.637255e-08
-5.551752e-08
-7.411709e-08
-9.258401e-08
-1.137974e-07
-1.467487e-07
-2.210811e-07
-3.879184e-07
-6.597266e-07
-9.398376e-07
-1.051253e-06
-7.939353e-07
-2.143068e-07
5.793739e-07
1.889655e-06
0.000000e+00
-3.690018e-06
-6.514450e-06
-9.894065e-06
-1.312374e-05
-1.609873e-05
-1.898603e-05
-2.166469e-05
-2.405678e-05
-2.615338e-05
-2.783818e-05
-2.901545e-05
-2.963187e-05
-2.977905e-05
-2.978029e-05
-2.975990e-05
-2.937039e-05
0.000000e+00
-7.216157e-06
-1.372072e-05
-1.932311e-05
-2.611645e-05
-3.239745e-05
-3.800120e-05
-4.347249e-05
-4.861477e-05
-5.292417e-05
-5.600669e-05
-5.783745e-05
-5.879924e-05
-5.930739e-05
-5.964360e-05
-5.985874e-05
-5.980874e-05
0.000000e+00
-9.276573e-06
-1.865326e-05
-2.676326e-05
-3.678592e-05
-4.632154e-05
-5.479779e-05
-6.320944e-05
-7.144513e-05
-7.860640e-05
-8.379165e-05
-8.683573e-05
-8.846129e-05
-8.938183e-05
-8.993708e-05
-9.022064e-05
-9.027296e-05
0.000000e+00
-1.257893e-05
-2.310318e-05
-3.396859e-05
-4.670514e-05
-5.892665e-05
-7.035107e-05
-8.161323e-05
-9.252744e-05
-1.023613e-04
-1.100647e-04
-1.152007e-04
-1.182546e-04
-1.199362e-04
-1.207541e-04
-1.210335e-04
-1.210719e-04
0.000000e+00
1.076619e-05
1.805351e-05
2.787397e-05
4.096015e-05
5.602407e-05
7.405884e-05
9.540137e-05
1.194369e-04
1.457725e-04
1.739143e-04
2.033294e-04
2.340779e-04
2.669763e-04
3.048526e-04
3.489004e-04
3.935157e-04
0.000000e+00
5.870425e-06
1.368422e-05
2.267691e-05
3.526577e-05
5.072470e-05
6.902438e-05
9.044906e-05
1.147590e-04
1.416256e-04
1.706537e-04
2.012355e-04
2.329911e-04
2.662696e-04
3.022434e-04
3.437498e-04
3.871389e-04
0.000000e+00
2.722499e-06
9.850688e-06
1.881267e-05
3.102228e-05
4.678372e-05
6.543092e-05
8.699570e-05
1.115657e-04
1.389054e-04
1.685997e-04
2.000076e-04
2.325274e-04
2.656684e-04
2.990117e-04
3.370416e-04
3.783236e-04
0.000000e+00
1.611747e-06
7.925626e-06
1.704799e-05
2.932566e-05
4.511127e-05
6.390263e-05
8.564744e-05
1.104027e-04
1.379616e-04
1.678847e-04
1.995211e-04
2.321782e-04
2.649746e-04
2.967307e-04
3.315181e-04
3.698238e-04
0.000000e+00
1.352894e-06
7.349268e-06
1.645695e-05
2.886981e-05
4.459952e-05
6.342070e-05
8.526792e-05
1.101369e-04
1.378213e-04
1.678209e-04
1.994347e-04
2.319284e-04
2.644512e-04
2.960510e-04
3.288968e-04
3.638063e-04
0.000000e+00
1.616537e-06
7.925868e-06
1.703355e-05
2.929097e-05
4.505987e-05
6.383545e-05
8.558979e-05
1.104680e-04
1.382646e-04
1.683397e-04
1.998662e-04
2.320987e-04
2.643363e-04
2.961813e-04
3.282450e-04
3.605885e-04
0.000000e+00
2.730357e-06
9.852686e-06
1.879269e-05
3.097114e-05
4.670446e-05
6.531918e-05
8.689455e-05
1.116830e-04
1.394469e-04
1.694449e-04
2.007374e-04
2.326049e-04
2.645632e-04
2.963377e-04
3.280004e-04
3.592328e-04
0.000000e+00
5.881142e-06
1.369147e-05
2.266666e-05
3.522663e-05
5.064434e-05
6.890145e-05
9.035408e-05
1.148801e-04
1.421036e-04
1.713699e-04
2.019214e-04
2.332266e-04
2.648517e-04
2.964587e-04
3.278615e-04
3.588463e-04
0.000000e+00
1.077826e-05
1.806263e-05
2.787122e-05
4.093641e-05
5.595019e-05
7.393219e-05
9.533440e-05
1.195462e-04
1.459571e-04
1.740085e-04
2.034146e-04
2.339709e-04
2.651960e-04
2.965938e-04
3.278433e-04
3.588017e-04


2.434335e+00
2.328598e+00
2.438344e+00
2.573735e+00
2.683078e+00
2.954388e+00
3.269776e+00
3.623151e+00
4.108527e+00
4.721978e+00
5.351796e+00
5.856153e+00
6.101406e+00
5.830515e+00
4.988788e+00
4.264086e+00
3.652814e+00
3.549139e+00
3.589833e+00
3.658241e+00
3.713961e+00
3.898120e+00
4.117215e+00
4.363995e+00
4.712618e+00
5.162553e+00
5.630178e+00
6.002979e+00
6.148820e+00
5.779160e+00
4.868253e+00
4.080878e+00
5.253487e+00
5.190118e+00
5.186130e+00
5.182506e+00
5.183821e+00
5.257000e+00
5.341390e+00
5.436875e+00
5.583713e+00
5.785456e+00
6.003619e+00
6.178469e+00
6.214279e+00
5.862291e+00
5.086494e+00
4.462950e+00
6.144582e+00
6.113189e+00
6.094966e+00
6.061562e+00
6.047565e+00
6.056200e+00
6.061609e+00
6.065573e+00
6.083373e+00
6.121947e+00
6.175073e+00
6.226722e+00
6.231370e+00
6.042930e+00
5.635653e+00
5.309812e+00
6.144435e+00
6.112811e+00
6.094089e+00
6.059800e+00
6.044505e+00
6.050383e+00
6.049703e+00
6.044996e+00
6.054773e+00
6.085841e+00
6.131550e+00
6.185024e+00
6.230427e+00
6.205641e+00
6.089674e+00
5.989158e+00
5.252750e+00
5.188790e+00
5.183254e+00
5.177240e+00
5.175721e+00
5.242643e+00
5.313990e+00
5.398035e+00
5.545560e+00
5.748981e+00
5.954481e+00
6.123528e+00
6.249980e+00
6.325158e+00
6.346779e+00
6.345672e+00
3.651338e+00
3.547017e+00
3.585850e+00
3.651807e+00
3.706146e+00
3.886590e+00
4.099593e+00
4.360122e+00
4.756912e+00
5.251605e+00
5.714303e+00
6.056588e+00
6.275282e+00
6.403186e+00
6.469171e+00
6.495072e+00
2.432475e+00
2.326457e+00
2.434801e+00
2.568831e+00
2.679755e+00
2.953004e+00
3.274120e+00
3.668532e+00
4.245626e+00
4.940886e+00
5.572699e+00
6.023835e+00
6.295340e+00
6.443091e+00
6.516501e+00
6.546378e+00


-5.595506e-01
-2.237823e-01
-2.117424e-01
-2.601949e-01
-1.757396e-01
-1.821040e-01
-1.923363e-01
-1.669826e-01
-1.604097e-01
-1.696303e-01
-1.478327e-01
-6.467565e-02
7.673204e-02
2.911129e-01
5.528532e-01
-5.750339e-01
5.350631e-01
4.046212e-01
3.398559e-01
2.845549e-01
3.139341e-01
2.991476e-01
2.845474e-01
2.917735e-01
2.981191e-01
3.141614e-01
3.739061e-01
4.991073e-01
6.797204e-01
8.559537e-01
7.501403e-01
-1.269954e+00
8.262700e-01
7.016860e-01
5.866912e-01
5.361914e-01
5.256034e-01
5.069510e-01
4.954477e-01
4.952608e-01
5.006440e-01
5.178391e-01
5.571343e-01
6.111166e-01
6.305848e-01
5.233657e-01
2.179464e-01
-3.223551e-01
8.959929e-01
7.867923e-01
6.687672e-01
6.026445e-01
5.737540e-01
5.587390e-01
5.507820e-01
5.459715e-01
5.366145e-01
5.163412e-01
4.807327e-01
4.167364e-01
2.979743e-01
1.438336e-01
1.064548e-01
1.553864e-01
8.966557e-01
7.874982e-01
6.691381e-01
6.015458e-01
5.693744e-01
5.483184e-01
5.304959e-01
5.093992e-01
4.728359e-01
4.114658e-01
3.253074e-01
2.231723e-01
1.320411e-01
1.315417e-01
3.020342e-01
5.767837e-01
8.278711e-01
7.034613e-01
5.879979e-01
5.350208e-01
5.183712e-01
4.882495e-01
4.572548e-01
4.230293e-01
3.697903e-01
2.989635e-01
2.298115e-01
1.905390e-01
2.205008e-01
3.623889e-01
6.045964e-01
8.591281e-01
5.363075e-01
4.059836e-01
3.412754e-01
2.854036e-01
3.117525e-01
2.919299e-01
2.691699e-01
2.566947e-01
2.253342e-01
1.945981e-01
2.130719e-01
3.021275e-01
4.532574e-01
6.508164e-01
8.491205e-01
9.753117e-01
-5.608490e-01
-2.256436e-01
-2.133356e-01
-2.607936e-01
-1.760969e-01
-1.790118e-01
-1.791681e-01
-1.461433e-01
-1.273354e-01
-7.194142e-02
1.064035e-01
3.922129e-01
6.794715e-01
8.806432e-01
9.766119e-01
9.995417e-01
1 2 19 18
2 3 20 19
3 4 21 20
4 5 22 21
5 6 23 22
6 7 24 23
7 8 25 24
8 9 26 25
9 10 27 26
10 11 28 27
11 12 29 28
12 13 30 29
13 14 31 30
14 15 32 31
15 16 33 32
16 17 34 33
18 19 36 35
19 20 37 36
20 21 38 37
21 22 39 38
22 23 40 39
23 24 41 40
24 25 42 41
25 26 43 42
26 27 44 43
27 28 45 44
28 29 46 45
29 30 47 46
30 31 48 47
31 32 49 48
32 33 50 49
33 34 51 50
35 36 53 52
36 37 54 53
37 38 55 54
38 39 56 55
39 40 57 56
40 41 58 57
41 42 59 58
42 43 60 59
43 44 61 60
44 45 62 61
45 46 63 62
46 47 64 63
47 48 65 64
48 49 66 65
49 50 67 66
50 51 68 67
52 53 70 69
53 54 71 70
54 55 72 71
55 56 73 72
56 57 74 73
57 58 75 74
58 59 76 75
59 60 77 76
60 61 78 77
61 62 79 78
62 63 80 79
63 64 81 80
64 65 82 81
65 66 83 82
66 67 84 83
67 68 85 84
69 70 87 86
70 71 88 87
71 72 89 88
72 73 90 89
73 74 91 90
74 75 92 91
75 76 93 92
76 77 94 93
77 78 95 94
78 79 96 95
79 80 97 96
80 81 98 97
81 82 99 98
82 83 100 99
83 84 101 100
84 85 102 101
86 87 104 103
87 88 105 104
88 89 106 105
89 90 107 106
90 91 108 107
91 92 109 108
92 93 110 109
93 94 111 110
94 95 112 111
95 96 113 112
96 97 114 113
97 98 115 114
98 99 116 115
99 100 117 116
100 101 118 117
101 102 119 118
103 104 121 120
104 105 122 121
105 106 123 122
106 107 124 123
107 108 125 124
108 109 126 125
109 110 127 126
110 111 128 127
111 112 129 128
112 113 130 129
113 114 131 130
114 115 132 131
115 116 133 132
116 117 134 133
117 118 135 134
118 119 136 135
120 121 138 137
121 122 139 138
122 123 140 139
123 124 141 140
124 125 142 141
125 126 143 142
126 127 144 143
127 128 145 144
128 129 146 145
129 130 147 146
130 131 148 147
131 132 149 148
132 133 150 149
133 134 151 150
134 135 152 151
135 136 153 152
