TITLE = "Solution"
VARIABLES = x, y, u, v, psiu, psiv, t, stress
ZONE T="structure" N=153 E=128 F=FEBLOCK ET=QUADRILATERAL VARLOCATION=([7,8]=cellcentered)
0.000000e+00
1.250000e+01
2.500000e+01
3.750000e+01
5.000000e+01
6.250000e+01
7.500000e+01
8.750000e+01
1.000000e+02
1.125000e+02
1.250000e+02
1.375000e+02
1.500000e+02
1.625000e+02
1.750000e+02
1.875000e+02
2.000000e+02
0.000000e+00
1.250000e+01
2.500000e+01
3.750000e+01
5.000000e+01
6.250000e+01
7.500000e+01
8.750000e+01
1.000000e+02
1.125000e+02
1.250000e+02
1.375000e+02
1.500000e+02
1.625000e+02
1.750000e+02
1.875000e+02
2.000000e+02
0.000000e+00
1.250000e+01
2.500000e+01
3.750000e+01
5.000000e+01
6.250000e+01
7.500000e+01
8.750000e+01
1.000000e+02
1.125000e+02
1.250000e+02
1.375000e+02
1.500000e+02
1.625000e+02
1.750000e+02
1.875000e+02
2.000000e+02
0.000000e+00
1.250000e+01
2.500000e+01
3.750000e+01
5.000000e+01
6.250000e+01
7.500000e+01
8.750000e+01
1.000000e+02
1.125000e+02
1.250000e+02
1.375000e+02
1.500000e+02
1.625000e+02
1.750000e+02
1.875000e+02
2.000000e+02
0.000000e+00
1.250000e+01
2.500000e+01
3.750000e+01
5.000000e+01
6.250000e+01
7.500000e+01
8.750000e+01
1.000000e+02
1.125000e+02
1.250000e+02
1.375000e+02
1.500000e+02
1.625000e+02
1.750000e+02
1.875000e+02
2.000000e+02
0.000000e+00
1.250000e+01
2.500000e+01
3.750000e+01
5.000000e+01
6.250000e+01
7.500000e+01
8.750000e+01
1.000000e+02
1.125000e+02
1.250000e+02
1.375000e+02
1.500000e+02
1.625000e+02
1.750000e+02
1.875000e+02
2.000000e+02
0.000000e+00
1.250000e+01
2.500000e+01
3.750000e+01
5.000000e+01
6.250000e+01
7.500000e+01
8.750000e+01
1.000000e+02
1.125000e+02
1.250000e+02
1.375000e+02
1.500000e+02
1.625000e+02
1.750000e+02
1.875000e+02
2.000000e+02
0.000000e+00
1.250000e+01
2.500000e+01
3.750000e+01
5.000000e+01
6.250000e+01
7.500000e+01
8.750000e+01
1.000000e+02
1.125000e+02
1.250000e+02
1.375000e+02
1.500000e+02
1.625000e+02
1.750000e+02
1.875000e+02
2.000000e+02
0.000000e+00
1.250000e+01
2.500000e+01
3.750000e+01
5.000000e+01
6.250000e+01
7.500000e+01
8.750000e+01
1.000000e+02
1.125000e+02
1.250000e+02
1.375000e+02
1.500000e+02
1.625000e+02
1.750000e+02
1.875000e+02
2.000000e+02
0.000000e+00
0.000000e+00
0.000000e+00
0.000000e+00
0.000000e+00
0.000000e+00
0.000000e+00
0.000000e+00
0.000000e+00
0.000000e+00
0.000000e+00
0.000000e+00
0.000000e+00
0.000000e+00
0.000000e+00
0.000000e+00
0.000000e+00
1.250000e+01
1.250000e+01
1.250000e+01
1.250000e+01
1.250000e+01
1.250000e+01
1.250000e+01
1.250000e+01
1.250000e+01
1.250000e+01
1.250000e+01
1.250000e+01
1.250000e+01
1.250000e+01
1.250000e+01
1.250000e+01
1.250000e+01
2.500000e+01
2.500000e+01
2.500000e+01
2.500000e+01
2.500000e+01
2.500000e+01
2.500000e+01
2.500000e+01
2.500000e+01
2.500000e+01
2.500000e+01
2.500000e+01
2.500000e+01
2.500000e+01
2.500000e+01
2.500000e+01
2.500000e+01
3.750000e+01
3.750000e+01
3.750000e+01
3.750000e+01
3.750000e+01
3.750000e+01
3.750000e+01
3.750000e+01
3.750000e+01
3.750000e+01
3.750000e+01
3.750000e+01
3.750000e+01
3.750000e+01
3.750000e+01
3.750000e+01
3.750000e+01
5.000000e+01
5.000000e+01
5.000000e+01
5.000000e+01
5.000000e+01
5.000000e+01
5.000000e+01
5.000000e+01
5.000000e+01
5.000000e+01
5.000000e+01
5.000000e+01
5.000000e+01
5.000000e+01
5.000000e+01
5.000000e+01
5.000000e+01
6.250000e+01
6.250000e+01
6.250000e+01
6.250000e+01
6.250000e+01
6.250000e+01
6.250000e+01
6.250000e+01
6.250000e+01
6.250000e+01
6.250000e+01
6.250000e+01
6.250000e+01
6.250000e+01
6.250000e+01
6.250000e+01
6.250000e+01
7.500000e+01
7.500000e+01
7.500000e+01
7.500000e+01
7.500000e+01
7.500000e+01
7.500000e+01
7.500000e+01
7.500000e+01
7.500000e+01
7.500000e+01
7.500000e+01
7.500000e+01
7.500000e+01
7.500000e+01
7.500000e+01
7.500000e+01
8.750000e+01
8.750000e+01
8.750000e+01
8.750000e+01
8.750000e+01
8.750000e+01
8.750000e+01
8.750000e+01
8.750000e+01
8.750000e+01
8.750000e+01
8.750000e+01
8.750000e+01
8.750000e+01
8.750000e+01
8.750000e+01
8.750000e+01
1.000000e+02
1.000000e+02
1.000000e+02
1.000000e+02
1.000000e+02
1.000000e+02
1.000000e+02
1.000000e+02
1.000000e+02
1.000000e+02
1.000000e+02
1.000000e+02
1.000000e+02
1.000000e+02
1.000000e+02
1.000000e+02
1.000000e+02
0.000000e+00
-7.110489e-02
-1.309266e-01
-1.859704e-01
-2.372315e-01
-2.846020e-01
-3.279800e-01
-3.673320e-01
-4.027151e-01
-4.342925e-01
-4.623771e-01
-4.875178e-01
-5.106589e-01
-5.334317e-01
-5.586496e-01
-5.896203e-01
-6.128605e-01
0.000000e+00
-4.246256e-02
-8.820771e-02
-1.304505e-01
-1.693690e-01
-2.051114e-01
-2.377517e-01
-2.673336e-01
-2.939105e-01
-3.175642e-01
-3.384148e-01
-3.566126e-01
-3.722737e-01
-3.852368e-01
-3.943805e-01
-3.963846e-01
-4.035699e-01
0.000000e+00
-2.655487e-02
-5.460344e-02
-8.258607e-02
-1.087070e-01
-1.326897e-01
-1.545147e-01
-1.742066e-01
-1.917704e-01
-2.071767e-01
-2.203426e-01
-2.310843e-01
-2.390187e-01
-2.434478e-01
-2.435708e-01
-2.418014e-01
-2.491299e-01
0.000000e+00
-1.281702e-02
-2.638555e-02
-4.003977e-02
-5.309569e-02
-6.512101e-02
-7.602079e-02
-8.576327e-02
-9.429270e-02
-1.014981e-01
-1.071952e-01
-1.111153e-01
-1.129374e-01
-1.125117e-01
-1.107628e-01
-1.112411e-01
-1.166978e-01
0.000000e+00
-1.180708e-05
-2.684118e-05
-4.182592e-05
-4.977870e-05
-3.512855e-05
3.303087e-05
2.101572e-04
5.872363e-04
1.299797e-03
2.524654e-03
4.439435e-03
7.092136e-03
1.008982e-02
1.216053e-02
1.159260e-02
7.979740e-03
0.000000e+00
1.279885e-02
2.634337e-02
3.997231e-02
5.301178e-02
6.505276e-02
7.604726e-02
8.604906e-02
9.514487e-02
1.034402e-01
1.110434e-01
1.180108e-01
1.242214e-01
1.292016e-01
1.321312e-01
1.323635e-01
1.305298e-01
0.000000e+00
2.655188e-02
5.459436e-02
8.256799e-02
1.086788e-01
1.326545e-01
1.544855e-01
1.742161e-01
1.918871e-01
2.075300e-01
2.211584e-01
2.327390e-01
2.421386e-01
2.490881e-01
2.532593e-01
2.546137e-01
2.541861e-01
0.000000e+00
4.247998e-02
8.824558e-02
1.305108e-01
1.694500e-01
2.051981e-01
2.378003e-01
2.672447e-01
2.934863e-01
3.164493e-01
3.360249e-01
3.520777e-01
3.644792e-01
3.731885e-01
3.783838e-01
3.805993e-01
3.810062e-01
0.000000e+00
7.113402e-02
1.310035e-01
1.861143e-01
2.374615e-01
2.849254e-01
3.283658e-01
3.676564e-01
4.026658e-01
4.332120e-01
4.590302e-01
4.797762e-01
4.951092e-01
5.049086e-01
5.096477e-01
5.108175e-01
5.107949e-01
0.000000e+00
-4.304175e-02
-8.449598e-02
-1.382110e-01
-2.041351e-01
-2.821449e-01
-3.713861e-01
-4.708600e-01
-5.795088e-01
-6.962889e-01
-8.202360e-01
-9.505828e-01
-1.087015e+00
-1.230261e+00
-1.384037e+00
-1.559986e+00
-1.812792e+00
0.000000e+00
-2.649730e-02
-6.974086e-02
-1.241220e-01
-1.911235e-01
-2.701979e-01
-3.605202e-01
-4.610673e-01
-5.707692e-01
-6.885632e-01
-8.134587e-01
-9.446530e-01
-1.081783e+00
-1.225559e+00
-1.379275e+00
-1.554155e+00
-1.768402e+00
0.000000e+00
-1.999457e-02
-5.951188e-02
-1.140937e-01
-1.817287e-01
-2.616170e-01
-3.527695e-01
-4.541533e-01
-5.647054e-01
-6.833786e-01
-8.092012e-01
-9.413981e-01
-1.079641e+00
-1.224522e+00
-1.378370e+00
-1.544076e+00
-1.704444e+00
0.000000e+00
-1.722990e-02
-5.442608e-02
-1.082074e-01
-1.760869e-01
-2.564669e-01
-3.481878e-01
-4.501771e-01
-5.613921e-01
-6.808139e-01
-8.074916e-01
-9.406354e-01
-1.079761e+00
-1.224802e+00
-1.375572e+00
-1.527832e+00
-1.668099e+00
0.000000e+00
-1.643346e-02
-5.288688e-02
-1.063296e-01
-1.742276e-01
-2.548077e-01
-3.467922e-01
-4.491098e-01
-5.607377e-01
-6.806733e-01
-8.079449e-01
-9.416374e-01
-1.080887e+00
-1.224665e+00
-1.370822e+00
-1.514358e+00
-1.646590e+00
0.000000e+00
-1.721968e-02
-5.441880e-02
-1.082203e-01
-1.761505e-01
-2.566345e-01
-3.485463e-01
-4.508561e-01
-5.625628e-01
-6.826591e-01
-8.101102e-01
-9.438090e-01
-1.082462e+00
-1.224305e+00
-1.366613e+00
-1.505227e+00
-1.634636e+00
0.000000e+00
-1.997788e-02
-5.949982e-02
-1.141153e-01
-1.818359e-01
-2.619006e-01
-3.533774e-01
-4.553063e-01
-5.666960e-01
-6.865219e-01
-8.136796e-01
-9.468917e-01
-1.084553e+00
-1.224537e+00
-1.364087e+00
-1.500040e+00
-1.629364e+00
0.000000e+00
-2.648165e-02
-6.973036e-02
-1.241507e-01
-1.912522e-01
-2.705313e-01
-3.612278e-01
-4.624000e-01
-5.730558e-01
-6.921517e-01
-8.185382e-01
-9.508465e-01
-1.087335e+00
-1.225761e+00
-1.363454e+00
-1.497896e+00
-1.628126e+00
0.000000e+00
-4.303529e-02
-8.449689e-02
-1.382554e-01
-2.042843e-01
-2.825013e-01
-3.721102e-01
-4.721811e-01
-5.817113e-01
-6.996391e-01
-8.247871e-01
-9.557565e-01
-1.090794e+00
-1.227705e+00
-1.363991e+00
-1.497504e+00
-1.628146e+00


0.000000e+00
9.842782e-08
1.972191e-07
2.889681e-07
3.750122e-07
4.548654e-07
5.281929e-07
5.949743e-07
6.553440e-07
7.095556e-07
7.579682e-07
8.009819e-07
8.388309e-07
8.712176e-07
8.977257e-07
9.203781e-07
9.405342e-07
0.000000e+00
5.535489e-08
1.346995e-07
2.060460e-07
2.714641e-07
3.317673e-07
3.869008e-07
4.368652e-07
4.817008e-07
5.214397e-07
5.560700e-07
5.854897e-07
6.095496e-07
6.287447e-07
6.462776e-07
6.670877e-07
6.885067e-07
0.000000e+00
3.487812e-08
8.512429e-08
1.322690e-07
1.762197e-07
2.166438e-07
2.533822e-07
2.863911e-07
3.156201e-07
3.409710e-07
3.622988e-07
3.795001e-07
3.928446e-07
4.037019e-07
4.151538e-07
4.306273e-07
4.485060e-07
0.000000e+00
1.703803e-08
4.080766e-08
6.389658e-08
8.587382e-08
1.060644e-07
1.242500e-07
1.403477e-07
1.542630e-07
1.658749e-07
1.750826e-07
1.819406e-07
1.869123e-07
1.911696e-07
1.966548e-07
2.056736e-07
2.180859e-07
0.000000e+00
1.783032e-11
2.207619e-11
-9.425507e-12
-1.069620e-10
-3.188547e-10
-7.159535e-10
-1.392546e-09
-2.458035e-09
-4.009736e-09
-6.073233e-09
-8.502702e-09
-1.086419e-08
-1.236222e-08
-1.177163e-08
-7.526589e-09
6.271882e-10
0.000000e+00
-1.700470e-08
-4.076293e-08
-6.389832e-08
-8.602962e-08
-1.065627e-07
-1.254003e-07
-1.426227e-07
-1.583296e-07
-1.725828e-07
-1.853540e-07
-1.964692e-07
-2.055728e-07
-2.121337e-07
-2.154959e-07
-2.148547e-07
-2.103885e-07
0.000000e+00
-3.485713e-08
-8.509329e-08
-1.322505e-07
-1.762564e-07
-2.168165e-07
-2.538316e-07
-2.873431e-07
-3.174095e-07
-3.440492e-07
-3.671971e-07
-3.866703e-07
-4.021598e-07
-4.133031e-07
-4.199156e-07
-4.221177e-07
-4.207989e-07
0.000000e+00
-5.537595e-08
-1.347414e-07
-2.060840e-07
-2.714573e-07
-3.316456e-07
-3.865495e-07
-4.361068e-07
-4.802784e-07
-5.190083e-07
-5.522081e-07
-5.797468e-07
-6.014532e-07
-6.171832e-07
-6.270754e-07
-6.319389e-07
-6.331139e-07
0.000000e+00
-9.854415e-08
-1.974252e-07
-2.892230e-07
-3.752301e-07
-4.548674e-07
-5.276400e-07
-5.932805e-07
-6.515744e-07
-7.023254e-07
-7.453791e-07
-7.806668e-07
-8.082488e-07
-8.283520e-07
-8.414462e-07
-8.482151e-07
-8.503894e-07
0.000000e+00
8.910503e-08
1.738361e-07
2.689167e-07
3.823174e-07
5.152083e-07
6.667189e-07
8.354495e-07
1.019787e-06
1.218166e-06
1.429243e-06
1.652193e-06
1.887465e-06
2.138443e-06
2.411323e-06
2.701184e-06
2.988767e-06
0.000000e+00
5.390408e-08
1.362554e-07
2.320785e-07
3.476836e-07
4.832425e-07
6.376186e-07
8.092293e-07
9.964203e-07
1.197603e-06
1.411412e-06
1.636956e-06
1.874258e-06
2.124803e-06
2.391042e-06
2.673551e-06
2.957349e-06
0.000000e+00
3.434000e-08
1.061279e-07
2.018432e-07
3.191112e-07
4.569830e-07
6.138528e-07
7.880145e-07
9.777850e-07
1.181569e-06
1.397953e-06
1.625826e-06
1.864426e-06
2.113052e-06
2.371292e-06
2.643485e-06
2.918136e-06
0.000000e+00
2.519867e-08
9.027729e-08
1.842116e-07
3.022463e-07
4.415515e-07
6.000451e-07
7.759125e-07
9.674475e-07
1.173026e-06
1.391117e-06
1.620265e-06
1.858933e-06
2.105199e-06
2.357522e-06
2.619218e-06
2.880188e-06
0.000000e+00
2.257143e-08
8.547099e-08
1.785397e-07
2.967813e-07
4.366608e-07
5.958552e-07
7.725014e-07
9.648715e-07
1.171280e-06
1.390039e-06
1.619368e-06
1.857216e-06
2.101038e-06
2.348331e-06
2.600635e-06
2.848148e-06
0.000000e+00
2.521903e-08
9.035365e-08
1.844004e-07
3.026216e-07
4.422140e-07
6.011203e-07
7.775329e-07
9.697056e-07
1.175877e-06
1.394205e-06
1.622674e-06
1.858934e-06
2.100090e-06
2.343012e-06
2.587473e-06
2.825170e-06
0.000000e+00
3.437283e-08
1.062609e-07
2.021741e-07
3.197694e-07
4.581463e-07
6.157430e-07
7.908660e-07
9.817622e-07
1.186595e-06
1.403396e-06
1.629984e-06
1.863847e-06
2.101963e-06
2.340993e-06
2.579586e-06
2.811172e-06
0.000000e+00
5.394577e-08
1.364242e-07
2.324861e-07
3.484868e-07
4.846549e-07
6.399041e-07
8.126608e-07
1.001175e-06
1.203550e-06
1.417716e-06
1.641375e-06
1.871925e-06
2.106398e-06
2.341717e-06
2.576041e-06
2.804489e-06
0.000000e+00
8.917411e-08
1.740334e-07
2.693563e-07
3.831537e-07
5.166453e-07
6.689975e-07
8.387976e-07
1.024302e-06
1.223582e-06
1.434517e-06
1.654749e-06
1.881655e-06
2.112383e-06
2.344225e-06
2.575463e-06
2.802540e-06


2.077621e-01
2.077621e-01
2.077622e-01
2.077624e-01
2.077627e-01
2.077629e-01
2.077631e-01
2.077633e-01
2.077634e-01
2.077636e-01
2.077637e-01
2.077638e-01
2.077638e-01
2.077638e-01
2.077637e-01
2.077636e-01
2.077625e-01
2.077625e-01
2.077625e-01
2.077627e-01
2.077629e-01
2.077631e-01
2.077633e-01
2.077634e-01
2.077635e-01
2.077636e-01
2.077637e-01
2.077638e-01
2.077638e-01
2.077638e-01
2.077636e-01
2.077635e-01
2.077632e-01
2.077631e-01
2.077631e-01
2.077632e-01
2.077633e-01
2.077634e-01
2.077635e-01
2.077636e-01
2.077637e-01
2.077638e-01
2.077638e-01
2.077639e-01
2.077639e-01
2.077638e-01
2.077637e-01
2.077636e-01
2.077637e-01
2.077636e-01
2.077636e-01
2.077636e-01
2.077636e-01
2.077637e-01
2.077637e-01
2.077638e-01
2.077638e-01
2.077638e-01
2.077638e-01
2.077639e-01
2.077639e-01
2.077638e-01
2.077638e-01
2.077637e-01
2.077637e-01
2.077636e-01
2.077636e-01
2.077636e-01
2.077636e-01
2.077637e-01
2.077637e-01
2.077637e-01
2.077638e-01
2.077638e-01
2.077638e-01
2.077638e-01
2.077638e-01
2.077638e-01
2.077638e-01
2.077638e-01
2.077632e-01
2.077631e-01
2.077631e-01
2.077632e-01
2.077633e-01
2.077634e-01
2.077635e-01
2.077636e-01
2.077637e-01
2.077637e-01
2.077638e-01
2.077638e-01
2.077639e-01
2.077639e-01
2.077639e-01
2.077640e-01
2.077625e-01
2.077625e-01
2.077625e-01
2.077627e-01
2.077629e-01
2.077631e-01
2.077633e-01
2.077634e-01
2.077635e-01
2.077636e-01
2.077637e-01
2.077638e-01
2.077639e-01
2.077639e-01
2.077640e-01
2.077640e-01
2.077621e-01
2.077621e-01
2.077622e-01
2.077624e-01
2.077627e-01
2.077629e-01
2.077631e-01
2.077633e-01
2.077635e-01
2.077636e-01
2.077637e-01
2.077638e-01
2.077639e-01
2.077640e-01
2.077640e-01
2.077641e-01


9.886251e-01
9.902381e-01
9.917303e-01
9.928790e-01
9.939452e-01
9.949284e-01
9.958241e-01
9.966218e-01
9.973133e-01
9.978916e-01
9.983515e-01
9.986883e-01
9.988977e-01
9.989724e-01
9.990263e-01
9.957020e-01
9.956966e-01
9.949575e-01
9.954330e-01
9.960537e-01
9.966324e-01
9.971584e-01
9.976345e-01
9.980658e-01
9.984562e-01
9.988099e-01
9.991309e-01
9.994215e-01
9.996750e-01
9.998410e-01
9.994212e-01
9.937306e-01
9.985048e-01
9.980802e-01
9.979656e-01
9.981268e-01
9.983389e-01
9.985443e-01
9.987351e-01
9.989153e-01
9.990899e-01
9.992601e-01
9.994190e-01
9.995421e-01
9.995678e-01
9.993462e-01
9.985421e-01
9.970960e-01
9.996957e-01
9.993860e-01
9.991948e-01
9.991462e-01
9.991656e-01
9.991981e-01
9.992306e-01
9.992623e-01
9.992935e-01
9.993195e-01
9.993268e-01
9.992880e-01
9.991651e-01
9.989444e-01
9.987573e-01
9.987099e-01
9.996968e-01
9.993877e-01
9.991962e-01
9.991459e-01
9.991608e-01
9.991842e-01
9.992005e-01
9.992060e-01
9.991985e-01
9.991746e-01
9.991299e-01
9.990656e-01
9.990043e-01
9.990165e-01
9.991897e-01
9.994894e-01
9.985069e-01
9.980835e-01
9.979687e-01
9.981269e-01
9.983307e-01
9.985189e-01
9.986782e-01
9.988062e-01
9.989021e-01
9.989666e-01
9.990075e-01
9.990474e-01
9.991312e-01
9.993070e-01
9.995710e-01
9.998440e-01
9.956962e-01
9.949572e-01
9.954324e-01
9.960520e-01
9.966279e-01
9.971480e-01
9.976131e-01
9.980248e-01
9.983836e-01
9.986903e-01
9.989499e-01
9.991767e-01
9.993951e-01
9.996240e-01
9.998381e-01
9.999729e-01
9.886173e-01
9.902260e-01
9.917154e-01
9.928623e-01
9.939302e-01
9.949229e-01
9.958426e-01
9.966870e-01
9.974565e-01
9.981494e-01
9.987576e-01
9.992621e-01
9.996374e-01
9.998690e-01
9.999743e-01
9.999995e-01
1 2 19 18
2 3 20 19
3 4 21 20
4 5 22 21
5 6 23 22
6 7 24 23
7 8 25 24
8 9 26 25
9 10 27 26
10 11 28 27
11 12 29 28
12 13 30 29
13 14 31 30
14 15 32 31
15 16 33 32
16 17 34 33
18 19 36 35
19 20 37 36
20 21 38 37
21 22 39 38
22 23 40 39
23 24 41 40
24 25 42 41
25 26 43 42
26 27 44 43
27 28 45 44
28 29 46 45
29 30 47 46
30 31 48 47
31 32 49 48
32 33 50 49
33 34 51 50
35 36 53 52
36 37 54 53
37 38 55 54
38 39 56 55
39 40 57 56
40 41 58 57
41 42 59 58
42 43 60 59
43 44 61 60
44 45 62 61
45 46 63 62
46 47 64 63
47 48 65 64
48 49 66 65
49 50 67 66
50 51 68 67
52 53 70 69
53 54 71 70
54 55 72 71
55 56 73 72
56 57 74 73
57 58 75 74
58 59 76 75
59 60 77 76
60 61 78 77
61 62 79 78
62 63 80 79
63 64 81 80
64 65 82 81
65 66 83 82
66 67 84 83
67 68 85 84
69 70 87 86
70 71 88 87
71 72 89 88
72 73 90 89
73 74 91 90
74 75 92 91
75 76 93 92
76 77 94 93
77 78 95 94
78 79 96 95
79 80 97 96
80 81 98 97
81 82 99 98
82 83 100 99
83 84 101 100
84 85 102 101
86 87 104 103
87 88 105 104
88 89 106 105
89 90 107 106
90 91 108 107
91 92 109 108
92 93 110 109
93 94 111 110
94 95 112 111
95 96 113 112
96 97 114 113
97 98 115 114
98 99 116 115
99 100 117 116
100 101 118 117
101 102 119 118
103 104 121 120
104 105 122 121
105 106 123 122
106 107 124 123
107 108 125 124
108 109 126 125
109 110 127 126
110 111 128 127
111 112 129 128
112 113 130 129
113 114 131 130
114 115 132 131
115 116 133 132
116 117 134 133
117 118 135 134
118 119 136 135
120 121 138 137
121 122 139 138
122 123 140 139
123 124 141 140
124 125 142 141
125 126 143 142
126 127 144 143
127 128 145 144
128 129 146 145
129 130 147 146
130 131 148 147
131 132 149 148
132 133 150 149
133 134 151 150
134 135 152 151
135 136 153 152
