TITLE = "Solution"
VARIABLES = x, y, u, v, psiu, psiv, t, stress
ZONE T="structure" N=153 E=128 F=FEBLOCK ET=QUADRILATERAL VARLOCATION=([7,8]=cellcentered)
0.000000e+00
1.250000e+01
2.500000e+01
3.750000e+01
5.000000e+01
6.250000e+01
7.500000e+01
8.750000e+01
1.000000e+02
1.125000e+02
1.250000e+02
1.375000e+02
1.500000e+02
1.625000e+02
1.750000e+02
1.875000e+02
2.000000e+02
0.000000e+00
1.250000e+01
2.500000e+01
3.750000e+01
5.000000e+01
6.250000e+01
7.500000e+01
8.750000e+01
1.000000e+02
1.125000e+02
1.250000e+02
1.375000e+02
1.500000e+02
1.625000e+02
1.750000e+02
1.875000e+02
2.000000e+02
0.000000e+00
1.250000e+01
2.500000e+01
3.750000e+01
5.000000e+01
6.250000e+01
7.500000e+01
8.750000e+01
1.000000e+02
1.125000e+02
1.250000e+02
1.375000e+02
1.500000e+02
1.625000e+02
1.750000e+02
1.875000e+02
2.000000e+02
0.000000e+00
1.250000e+01
2.500000e+01
3.750000e+01
5.000000e+01
6.250000e+01
7.500000e+01
8.750000e+01
1.000000e+02
1.125000e+02
1.250000e+02
1.375000e+02
1.500000e+02
1.625000e+02
1.750000e+02
1.875000e+02
2.000000e+02
0.000000e+00
1.250000e+01
2.500000e+01
3.750000e+01
5.000000e+01
6.250000e+01
7.500000e+01
8.750000e+01
1.000000e+02
1.125000e+02
1.250000e+02
1.375000e+02
1.500000e+02
1.625000e+02
1.750000e+02
1.875000e+02
2.000000e+02
0.000000e+00
1.250000e+01
2.500000e+01
3.750000e+01
5.000000e+01
6.250000e+01
7.500000e+01
8.750000e+01
1.000000e+02
1.125000e+02
1.250000e+02
1.375000e+02
1.500000e+02
1.625000e+02
1.750000e+02
1.875000e+02
2.000000e+02
0.000000e+00
1.250000e+01
2.500000e+01
3.750000e+01
5.000000e+01
6.250000e+01
7.500000e+01
8.750000e+01
1.000000e+02
1.125000e+02
1.250000e+02
1.375000e+02
1.500000e+02
1.625000e+02
1.750000e+02
1.875000e+02
2.000000e+02
0.000000e+00
1.250000e+01
2.500000e+01
3.750000e+01
5.000000e+01
6.250000e+01
7.500000e+01
8.750000e+01
1.000000e+02
1.125000e+02
1.250000e+02
1.375000e+02
1.500000e+02
1.625000e+02
1.750000e+02
1.875000e+02
2.000000e+02
0.000000e+00
1.250000e+01
2.500000e+01
3.750000e+01
5.000000e+01
6.250000e+01
7.500000e+01
8.750000e+01
1.000000e+02
1.125000e+02
1.250000e+02
1.375000e+02
1.500000e+02
1.625000e+02
1.750000e+02
1.875000e+02
2.000000e+02
0.000000e+00
0.000000e+00
0.000000e+00
0.000000e+00
0.000000e+00
0.000000e+00
0.000000e+00
0.000000e+00
0.000000e+00
0.000000e+00
0.000000e+00
0.000000e+00
0.000000e+00
0.000000e+00
0.000000e+00
0.000000e+00
0.000000e+00
1.250000e+01
1.250000e+01
1.250000e+01
1.250000e+01
1.250000e+01
1.250000e+01
1.250000e+01
1.250000e+01
1.250000e+01
1.250000e+01
1.250000e+01
1.250000e+01
1.250000e+01
1.250000e+01
1.250000e+01
1.250000e+01
1.250000e+01
2.500000e+01
2.500000e+01
2.500000e+01
2.500000e+01
2.500000e+01
2.500000e+01
2.500000e+01
2.500000e+01
2.500000e+01
2.500000e+01
2.500000e+01
2.500000e+01
2.500000e+01
2.500000e+01
2.500000e+01
2.500000e+01
2.500000e+01
3.750000e+01
3.750000e+01
3.750000e+01
3.750000e+01
3.750000e+01
3.750000e+01
3.750000e+01
3.750000e+01
3.750000e+01
3.750000e+01
3.750000e+01
3.750000e+01
3.750000e+01
3.750000e+01
3.750000e+01
3.750000e+01
3.750000e+01
5.000000e+01
5.000000e+01
5.000000e+01
5.000000e+01
5.000000e+01
5.000000e+01
5.000000e+01
5.000000e+01
5.000000e+01
5.000000e+01
5.000000e+01
5.000000e+01
5.000000e+01
5.000000e+01
5.000000e+01
5.000000e+01
5.000000e+01
6.250000e+01
6.250000e+01
6.250000e+01
6.250000e+01
6.250000e+01
6.250000e+01
6.250000e+01
6.250000e+01
6.250000e+01
6.250000e+01
6.250000e+01
6.250000e+01
6.250000e+01
6.250000e+01
6.250000e+01
6.250000e+01
6.250000e+01
7.500000e+01
7.500000e+01
7.500000e+01
7.500000e+01
7.500000e+01
7.500000e+01
7.500000e+01
7.500000e+01
7.500000e+01
7.500000e+01
7.500000e+01
7.500000e+01
7.500000e+01
7.500000e+01
7.500000e+01
7.500000e+01
7.500000e+01
8.750000e+01
8.750000e+01
8.750000e+01
8.750000e+01
8.750000e+01
8.750000e+01
8.750000e+01
8.750000e+01
8.750000e+01
8.750000e+01
8.750000e+01
8.750000e+01
8.750000e+01
8.750000e+01
8.750000e+01
8.750000e+01
8.750000e+01
1.000000e+02
1.000000e+02
1.000000e+02
1.000000e+02
1.000000e+02
1.000000e+02
1.000000e+02
1.000000e+02
1.000000e+02
1.000000e+02
1.000000e+02
1.000000e+02
1.000000e+02
1.000000e+02
1.000000e+02
1.000000e+02
1.000000e+02
0.000000e+00
-7.739048e-02
-1.425004e-01
-2.024101e-01
-2.582031e-01
-3.097616e-01
-3.569749e-01
-3.998063e-01
-4.383182e-01
-4.726878e-01
-5.032558e-01
-5.306197e-01
-5.558072e-01
-5.805939e-01
-6.080419e-01
-6.417514e-01
-6.670467e-01
0.000000e+00
-4.621609e-02
-9.600498e-02
-1.419820e-01
-1.843412e-01
-2.232436e-01
-2.587698e-01
-2.909673e-01
-3.198942e-01
-3.456395e-01
-3.683339e-01
-3.881409e-01
-4.051869e-01
-4.192964e-01
-4.292487e-01
-4.314300e-01
-4.392507e-01
0.000000e+00
-2.890215e-02
-5.943011e-02
-8.988640e-02
-1.183166e-01
-1.444196e-01
-1.681742e-01
-1.896073e-01
-2.087241e-01
-2.254927e-01
-2.398229e-01
-2.515144e-01
-2.601505e-01
-2.649713e-01
-2.651051e-01
-2.631793e-01
-2.711558e-01
0.000000e+00
-1.394994e-02
-2.871786e-02
-4.357912e-02
-5.778926e-02
-7.087774e-02
-8.274122e-02
-9.334512e-02
-1.026287e-01
-1.104712e-01
-1.166722e-01
-1.209389e-01
-1.229221e-01
-1.224588e-01
-1.205552e-01
-1.210758e-01
-1.270151e-01
0.000000e+00
-1.285145e-05
-2.921537e-05
-4.552565e-05
-5.418223e-05
-3.823727e-05
3.594865e-05
2.287374e-04
6.391610e-04
1.414733e-03
2.747906e-03
4.832016e-03
7.719303e-03
1.098209e-02
1.323592e-02
1.261777e-02
8.685417e-03
0.000000e+00
1.393017e-02
2.867196e-02
4.350569e-02
5.769792e-02
7.080345e-02
8.277003e-02
9.365617e-02
1.035563e-01
1.125851e-01
1.208607e-01
1.284442e-01
1.352040e-01
1.406246e-01
1.438132e-01
1.440662e-01
1.420702e-01
0.000000e+00
2.889891e-02
5.942022e-02
8.986672e-02
1.182858e-01
1.443813e-01
1.681425e-01
1.896176e-01
2.088511e-01
2.258773e-01
2.407108e-01
2.533155e-01
2.635463e-01
2.711104e-01
2.756504e-01
2.771246e-01
2.766592e-01
0.000000e+00
4.623505e-02
9.604621e-02
1.420477e-01
1.844294e-01
2.233380e-01
2.588227e-01
2.908705e-01
3.194324e-01
3.444260e-01
3.657327e-01
3.832050e-01
3.967032e-01
4.061827e-01
4.118374e-01
4.142488e-01
4.146917e-01
0.000000e+00
7.742219e-02
1.425840e-01
2.025668e-01
2.584534e-01
3.101136e-01
3.573948e-01
4.001594e-01
4.382645e-01
4.715117e-01
4.996130e-01
5.221935e-01
5.388824e-01
5.495485e-01
5.547067e-01
5.559799e-01
5.559553e-01
0.000000e+00
-4.684664e-02
-9.196558e-02
-1.504293e-01
-2.221815e-01
-3.070878e-01
-4.042186e-01
-5.124868e-01
-6.307412e-01
-7.578459e-01
-8.927513e-01
-1.034622e+00
-1.183117e+00
-1.339028e+00
-1.506401e+00
-1.697906e+00
-1.973065e+00
0.000000e+00
-2.883967e-02
-7.590612e-02
-1.350947e-01
-2.080195e-01
-2.940845e-01
-3.923920e-01
-5.018283e-01
-6.212288e-01
-7.494371e-01
-8.853747e-01
-1.028168e+00
-1.177423e+00
-1.333910e+00
-1.501217e+00
-1.691560e+00
-1.924751e+00
0.000000e+00
-2.176214e-02
-6.477292e-02
-1.241800e-01
-1.977941e-01
-2.847450e-01
-3.839560e-01
-4.943029e-01
-6.146289e-01
-7.437940e-01
-8.807408e-01
-1.024626e+00
-1.175091e+00
-1.332781e+00
-1.500232e+00
-1.680589e+00
-1.855136e+00
0.000000e+00
-1.875314e-02
-5.923757e-02
-1.177733e-01
-1.916535e-01
-2.791396e-01
-3.789691e-01
-4.899751e-01
-6.110226e-01
-7.410025e-01
-8.788800e-01
-1.023795e+00
-1.175221e+00
-1.333086e+00
-1.497187e+00
-1.662909e+00
-1.815577e+00
0.000000e+00
-1.788633e-02
-5.756233e-02
-1.157295e-01
-1.896299e-01
-2.773336e-01
-3.774502e-01
-4.888135e-01
-6.103103e-01
-7.408495e-01
-8.793734e-01
-1.024886e+00
-1.176447e+00
-1.332938e+00
-1.492017e+00
-1.648243e+00
-1.792166e+00
0.000000e+00
-1.874201e-02
-5.922965e-02
-1.177874e-01
-1.917228e-01
-2.793220e-01
-3.793594e-01
-4.907142e-01
-6.122968e-01
-7.430109e-01
-8.817301e-01
-1.027250e+00
-1.178161e+00
-1.332545e+00
-1.487435e+00
-1.638304e+00
-1.779155e+00
0.000000e+00
-2.174398e-02
-6.475979e-02
-1.242035e-01
-1.979108e-01
-2.850536e-01
-3.846176e-01
-4.955578e-01
-6.167954e-01
-7.472153e-01
-8.856152e-01
-1.030605e+00
-1.180438e+00
-1.332798e+00
-1.484686e+00
-1.632659e+00
-1.773417e+00
0.000000e+00
-2.882265e-02
-7.589469e-02
-1.351260e-01
-2.081596e-01
-2.944475e-01
-3.931621e-01
-5.032788e-01
-6.237176e-01
-7.533429e-01
-8.909034e-01
-1.034909e+00
-1.183465e+00
-1.334130e+00
-1.483997e+00
-1.630325e+00
-1.772070e+00
0.000000e+00
-4.683960e-02
-9.196657e-02
-1.504776e-01
-2.223439e-01
-3.074757e-01
-4.050067e-01
-5.139247e-01
-6.331384e-01
-7.614923e-01
-8.977049e-01
-1.040254e+00
-1.187230e+00
-1.336246e+00
-1.484582e+00
-1.629898e+00
-1.772091e+00


0.000000e+00
2.937463e-08
5.891157e-08
8.630452e-08
1.119202e-07
1.356154e-07
1.573031e-07
1.769931e-07
1.947414e-07
2.106378e-07
2.248014e-07
2.373617e-07
2.483989e-07
2.578382e-07
2.655696e-07
2.721940e-07
2.781060e-07
0.000000e+00
1.661875e-08
4.039579e-08
6.171062e-08
8.118196e-08
9.906436e-08
1.153570e-07
1.300751e-07
1.432446e-07
1.548874e-07
1.650109e-07
1.735946e-07
1.806021e-07
1.861830e-07
1.912821e-07
1.973620e-07
2.036422e-07
0.000000e+00
1.053636e-08
2.561238e-08
3.970559e-08
5.278929e-08
6.477276e-08
7.562254e-08
8.533847e-08
9.391673e-08
1.013377e-07
1.075666e-07
1.125796e-07
1.164600e-07
1.196123e-07
1.229438e-07
1.274664e-07
1.327068e-07
0.000000e+00
5.166857e-09
1.229635e-08
1.920288e-08
2.574844e-08
3.173506e-08
3.710568e-08
4.184329e-08
4.592633e-08
4.932443e-08
5.201226e-08
5.400936e-08
5.545437e-08
5.669259e-08
5.829274e-08
6.092968e-08
6.456334e-08
0.000000e+00
4.926847e-12
5.826941e-12
-3.766627e-12
-3.271100e-11
-9.511739e-11
-2.116517e-10
-4.098107e-10
-7.214327e-10
-1.174745e-09
-1.776873e-09
-2.484634e-09
-3.170638e-09
-3.602656e-09
-3.425393e-09
-2.183962e-09
1.982976e-10
0.000000e+00
-5.157617e-09
-1.228435e-08
-1.920513e-08
-2.579644e-08
-3.188391e-08
-3.744571e-08
-4.251239e-08
-4.711895e-08
-5.128810e-08
-5.501537e-08
-5.825306e-08
-6.090023e-08
-6.280503e-08
-6.377971e-08
-6.359119e-08
-6.228850e-08
0.000000e+00
-1.053048e-08
-2.560398e-08
-3.970133e-08
-5.280169e-08
-6.482540e-08
-7.575637e-08
-8.561918e-08
-9.444156e-08
-1.022379e-07
-1.089969e-07
-1.146722e-07
-1.191799e-07
-1.224198e-07
-1.243418e-07
-1.249819e-07
-1.245973e-07
0.000000e+00
-1.662493e-08
-4.040831e-08
-6.172229e-08
-8.118087e-08
-9.903015e-08
-1.152561e-07
-1.298557e-07
-1.428315e-07
-1.541799e-07
-1.638863e-07
-1.719226e-07
-1.782477e-07
-1.828267e-07
-1.857049e-07
-1.871197e-07
-1.874610e-07
0.000000e+00
-2.940871e-08
-5.897192e-08
-8.637907e-08
-1.119839e-07
-1.356160e-07
-1.571417e-07
-1.764991e-07
-1.936425e-07
-2.085313e-07
-2.211351e-07
-2.314472e-07
-2.394957e-07
-2.453551e-07
-2.491679e-07
-2.511366e-07
-2.517681e-07
0.000000e+00
2.659525e-08
5.176798e-08
7.997125e-08
1.136136e-07
1.530420e-07
1.979858e-07
2.480155e-07
3.026406e-07
3.613882e-07
4.238549e-07
4.897911e-07
5.593234e-07
6.334411e-07
7.139773e-07
7.995240e-07
8.844296e-07
0.000000e+00
1.603763e-08
4.050658e-08
6.896806e-08
1.033075e-07
1.435653e-07
1.893890e-07
2.402944e-07
2.957796e-07
3.553660e-07
4.186442e-07
4.853469e-07
5.554767e-07
6.294688e-07
7.080507e-07
7.914240e-07
8.752073e-07
0.000000e+00
1.015807e-08
3.148475e-08
5.994987e-08
9.481893e-08
1.357933e-07
1.823791e-07
2.340559e-07
2.903144e-07
3.506749e-07
4.147149e-07
4.821040e-07
5.526169e-07
6.260478e-07
7.022791e-07
7.826129e-07
8.637040e-07
0.000000e+00
7.420848e-09
2.675382e-08
5.470585e-08
8.982194e-08
1.312372e-07
1.783151e-07
2.305034e-07
2.872868e-07
3.481782e-07
4.127213e-07
4.804857e-07
5.510197e-07
6.237600e-07
6.982585e-07
7.755102e-07
8.525841e-07
0.000000e+00
6.637090e-09
2.532343e-08
5.302140e-08
8.820446e-08
1.297943e-07
1.770821e-07
2.295017e-07
2.865317e-07
3.476674e-07
4.124069e-07
4.802248e-07
5.505197e-07
6.225477e-07
6.955804e-07
7.700841e-07
8.432109e-07
0.000000e+00
7.426905e-09
2.677617e-08
5.476089e-08
8.993117e-08
1.314300e-07
1.786279e-07
2.309751e-07
2.879445e-07
3.490090e-07
4.136218e-07
4.811884e-07
5.510204e-07
6.222726e-07
6.940351e-07
7.662497e-07
8.365008e-07
0.000000e+00
1.016783e-08
3.152370e-08
6.004639e-08
9.501061e-08
1.361320e-07
1.829294e-07
2.348864e-07
2.914733e-07
3.521404e-07
4.163032e-07
4.833190e-07
5.524517e-07
6.228193e-07
6.934507e-07
7.639549e-07
8.324196e-07
0.000000e+00
1.605005e-08
4.055615e-08
6.908716e-08
1.035417e-07
1.439769e-07
1.900549e-07
2.412943e-07
2.971656e-07
3.571005e-07
4.204845e-07
4.866400e-07
5.548044e-07
6.241108e-07
6.936629e-07
7.629238e-07
8.304745e-07
0.000000e+00
2.661582e-08
5.182612e-08
8.010002e-08
1.138579e-07
1.534611e-07
1.986499e-07
2.489912e-07
3.039565e-07
3.629678e-07
4.253949e-07
4.905422e-07
5.576394e-07
6.258532e-07
6.943928e-07
7.627562e-07
8.299083e-07


2.261265e-01
2.261265e-01
2.261275e-01
2.261291e-01
2.261306e-01
2.261318e-01
2.261329e-01
2.261339e-01
2.261348e-01
2.261355e-01
2.261361e-01
2.261366e-01
2.261369e-01
2.261369e-01
2.261365e-01
2.261362e-01
2.261289e-01
2.261288e-01
2.261294e-01
2.261307e-01
2.261318e-01
2.261328e-01
2.261337e-01
2.261345e-01
2.261352e-01
2.261358e-01
2.261363e-01
2.261367e-01
2.261369e-01
2.261368e-01
2.261364e-01
2.261362e-01
2.261327e-01
2.261325e-01
2.261328e-01
2.261334e-01
2.261339e-01
2.261345e-01
2.261350e-01
2.261355e-01
2.261359e-01
2.261363e-01
2.261366e-01
2.261368e-01
2.261369e-01
2.261368e-01
2.261365e-01
2.261363e-01
2.261354e-01
2.261352e-01
2.261351e-01
2.261352e-01
2.261355e-01
2.261357e-01
2.261360e-01
2.261362e-01
2.261364e-01
2.261366e-01
2.261367e-01
2.261368e-01
2.261369e-01
2.261368e-01
2.261367e-01
2.261367e-01
2.261354e-01
2.261352e-01
2.261351e-01
2.261352e-01
2.261355e-01
2.261357e-01
2.261359e-01
2.261362e-01
2.261363e-01
2.261365e-01
2.261366e-01
2.261367e-01
2.261369e-01
2.261369e-01
2.261370e-01
2.261371e-01
2.261327e-01
2.261325e-01
2.261328e-01
2.261333e-01
2.261339e-01
2.261345e-01
2.261350e-01
2.261354e-01
2.261358e-01
2.261361e-01
2.261364e-01
2.261367e-01
2.261369e-01
2.261371e-01
2.261373e-01
2.261374e-01
2.261289e-01
2.261288e-01
2.261294e-01
2.261307e-01
2.261318e-01
2.261328e-01
2.261337e-01
2.261345e-01
2.261352e-01
2.261358e-01
2.261363e-01
2.261367e-01
2.261370e-01
2.261373e-01
2.261375e-01
2.261376e-01
2.261265e-01
2.261265e-01
2.261275e-01
2.261291e-01
2.261306e-01
2.261318e-01
2.261329e-01
2.261339e-01
2.261348e-01
2.261356e-01
2.261362e-01
2.261367e-01
2.261371e-01
2.261374e-01
2.261377e-01
2.261378e-01


9.865251e-01
9.884360e-01
9.902036e-01
9.915642e-01
9.928272e-01
9.939919e-01
9.950530e-01
9.959980e-01
9.968171e-01
9.975022e-01
9.980470e-01
9.984461e-01
9.986941e-01
9.987826e-01
9.988465e-01
9.949083e-01
9.949022e-01
9.940266e-01
9.945899e-01
9.953251e-01
9.960106e-01
9.966337e-01
9.971977e-01
9.977086e-01
9.981712e-01
9.985902e-01
9.989703e-01
9.993146e-01
9.996150e-01
9.998116e-01
9.993143e-01
9.925728e-01
9.982287e-01
9.977258e-01
9.975900e-01
9.977810e-01
9.980322e-01
9.982756e-01
9.985015e-01
9.987150e-01
9.989218e-01
9.991234e-01
9.993117e-01
9.994575e-01
9.994880e-01
9.992254e-01
9.982729e-01
9.965596e-01
9.996395e-01
9.992727e-01
9.990461e-01
9.989886e-01
9.990115e-01
9.990501e-01
9.990885e-01
9.991261e-01
9.991630e-01
9.991939e-01
9.992025e-01
9.991565e-01
9.990109e-01
9.987495e-01
9.985278e-01
9.984717e-01
9.996409e-01
9.992746e-01
9.990478e-01
9.989882e-01
9.990058e-01
9.990336e-01
9.990529e-01
9.990594e-01
9.990505e-01
9.990221e-01
9.989692e-01
9.988930e-01
9.988204e-01
9.988349e-01
9.990400e-01
9.993951e-01
9.982313e-01
9.977296e-01
9.975937e-01
9.977810e-01
9.980224e-01
9.982454e-01
9.984341e-01
9.985858e-01
9.986993e-01
9.987758e-01
9.988242e-01
9.988714e-01
9.989708e-01
9.991790e-01
9.994918e-01
9.998152e-01
9.949017e-01
9.940262e-01
9.945891e-01
9.953230e-01
9.960053e-01
9.966214e-01
9.971723e-01
9.976601e-01
9.980851e-01
9.984485e-01
9.987560e-01
9.990246e-01
9.992833e-01
9.995545e-01
9.998082e-01
9.999679e-01
9.865159e-01
9.884216e-01
9.901859e-01
9.915444e-01
9.928095e-01
9.939854e-01
9.950749e-01
9.960752e-01
9.969868e-01
9.978076e-01
9.985281e-01
9.991258e-01
9.995705e-01
9.998448e-01
9.999696e-01
9.999994e-01
1 2 19 18
2 3 20 19
3 4 21 20
4 5 22 21
5 6 23 22
6 7 24 23
7 8 25 24
8 9 26 25
9 10 27 26
10 11 28 27
11 12 29 28
12 13 30 29
13 14 31 30
14 15 32 31
15 16 33 32
16 17 34 33
18 19 36 35
19 20 37 36
20 21 38 37
21 22 39 38
22 23 40 39
23 24 41 40
24 25 42 41
25 26 43 42
26 27 44 43
27 28 45 44
28 29 46 45
29 30 47 46
30 31 48 47
31 32 49 48
32 33 50 49
33 34 51 50
35 36 53 52
36 37 54 53
37 38 55 54
38 39 56 55
39 40 57 56
40 41 58 57
41 42 59 58
42 43 60 59
43 44 61 60
44 45 62 61
45 46 63 62
46 47 64 63
47 48 65 64
48 49 66 65
49 50 67 66
50 51 68 67
52 53 70 69
53 54 71 70
54 55 72 71
55 56 73 72
56 57 74 73
57 58 75 74
58 59 76 75
59 60 77 76
60 61 78 77
61 62 79 78
62 63 80 79
63 64 81 80
64 65 82 81
65 66 83 82
66 67 84 83
67 68 85 84
69 70 87 86
70 71 88 87
71 72 89 88
72 73 90 89
73 74 91 90
74 75 92 91
75 76 93 92
76 77 94 93
77 78 95 94
78 79 96 95
79 80 97 96
80 81 98 97
81 82 99 98
82 83 100 99
83 84 101 100
84 85 102 101
86 87 104 103
87 88 105 104
88 89 106 105
89 90 107 106
90 91 108 107
91 92 109 108
92 93 110 109
93 94 111 110
94 95 112 111
95 96 113 112
96 97 114 113
97 98 115 114
98 99 116 115
99 100 117 116
100 101 118 117
101 102 119 118
103 104 121 120
104 105 122 121
105 106 123 122
106 107 124 123
107 108 125 124
108 109 126 125
109 110 127 126
110 111 128 127
111 112 129 128
112 113 130 129
113 114 131 130
114 115 132 131
115 116 133 132
116 117 134 133
117 118 135 134
118 119 136 135
120 121 138 137
121 122 139 138
122 123 140 139
123 124 141 140
124 125 142 141
125 126 143 142
126 127 144 143
127 128 145 144
128 129 146 145
129 130 147 146
130 131 148 147
131 132 149 148
132 133 150 149
133 134 151 150
134 135 152 151
135 136 153 152
