TITLE = "Solution"
VARIABLES = x, y, u, v, psiu, psiv, t, stress
ZONE T="structure" N=153 E=128 F=FEBLOCK ET=QUADRILATERAL VARLOCATION=([7,8]=cellcentered)
0.000000e+00
1.250000e+01
2.500000e+01
3.750000e+01
5.000000e+01
6.250000e+01
7.500000e+01
8.750000e+01
1.000000e+02
1.125000e+02
1.250000e+02
1.375000e+02
1.500000e+02
1.625000e+02
1.750000e+02
1.875000e+02
2.000000e+02
0.000000e+00
1.250000e+01
2.500000e+01
3.750000e+01
5.000000e+01
6.250000e+01
7.500000e+01
8.750000e+01
1.000000e+02
1.125000e+02
1.250000e+02
1.375000e+02
1.500000e+02
1.625000e+02
1.750000e+02
1.875000e+02
2.000000e+02
0.000000e+00
1.250000e+01
2.500000e+01
3.750000e+01
5.000000e+01
6.250000e+01
7.500000e+01
8.750000e+01
1.000000e+02
1.125000e+02
1.250000e+02
1.375000e+02
1.500000e+02
1.625000e+02
1.750000e+02
1.875000e+02
2.000000e+02
0.000000e+00
1.250000e+01
2.500000e+01
3.750000e+01
5.000000e+01
6.250000e+01
7.500000e+01
8.750000e+01
1.000000e+02
1.125000e+02
1.250000e+02
1.375000e+02
1.500000e+02
1.625000e+02
1.750000e+02
1.875000e+02
2.000000e+02
0.000000e+00
1.250000e+01
2.500000e+01
3.750000e+01
5.000000e+01
6.250000e+01
7.500000e+01
8.750000e+01
1.000000e+02
1.125000e+02
1.250000e+02
1.375000e+02
1.500000e+02
1.625000e+02
1.750000e+02
1.875000e+02
2.000000e+02
0.000000e+00
1.250000e+01
2.500000e+01
3.750000e+01
5.000000e+01
6.250000e+01
7.500000e+01
8.750000e+01
1.000000e+02
1.125000e+02
1.250000e+02
1.375000e+02
1.500000e+02
1.625000e+02
1.750000e+02
1.875000e+02
2.000000e+02
0.000000e+00
1.250000e+01
2.500000e+01
3.750000e+01
5.000000e+01
6.250000e+01
7.500000e+01
8.750000e+01
1.000000e+02
1.125000e+02
1.250000e+02
1.375000e+02
1.500000e+02
1.625000e+02
1.750000e+02
1.875000e+02
2.000000e+02
0.000000e+00
1.250000e+01
2.500000e+01
3.750000e+01
5.000000e+01
6.250000e+01
7.500000e+01
8.750000e+01
1.000000e+02
1.125000e+02
1.250000e+02
1.375000e+02
1.500000e+02
1.625000e+02
1.750000e+02
1.875000e+02
2.000000e+02
0.000000e+00
1.250000e+01
2.500000e+01
3.750000e+01
5.000000e+01
6.250000e+01
7.500000e+01
8.750000e+01
1.000000e+02
1.125000e+02
1.250000e+02
1.375000e+02
1.500000e+02
1.625000e+02
1.750000e+02
1.875000e+02
2.000000e+02
0.000000e+00
0.000000e+00
0.000000e+00
0.000000e+00
0.000000e+00
0.000000e+00
0.000000e+00
0.000000e+00
0.000000e+00
0.000000e+00
0.000000e+00
0.000000e+00
0.000000e+00
0.000000e+00
0.000000e+00
0.000000e+00
0.000000e+00
1.250000e+01
1.250000e+01
1.250000e+01
1.250000e+01
1.250000e+01
1.250000e+01
1.250000e+01
1.250000e+01
1.250000e+01
1.250000e+01
1.250000e+01
1.250000e+01
1.250000e+01
1.250000e+01
1.250000e+01
1.250000e+01
1.250000e+01
2.500000e+01
2.500000e+01
2.500000e+01
2.500000e+01
2.500000e+01
2.500000e+01
2.500000e+01
2.500000e+01
2.500000e+01
2.500000e+01
2.500000e+01
2.500000e+01
2.500000e+01
2.500000e+01
2.500000e+01
2.500000e+01
2.500000e+01
3.750000e+01
3.750000e+01
3.750000e+01
3.750000e+01
3.750000e+01
3.750000e+01
3.750000e+01
3.750000e+01
3.750000e+01
3.750000e+01
3.750000e+01
3.750000e+01
3.750000e+01
3.750000e+01
3.750000e+01
3.750000e+01
3.750000e+01
5.000000e+01
5.000000e+01
5.000000e+01
5.000000e+01
5.000000e+01
5.000000e+01
5.000000e+01
5.000000e+01
5.000000e+01
5.000000e+01
5.000000e+01
5.000000e+01
5.000000e+01
5.000000e+01
5.000000e+01
5.000000e+01
5.000000e+01
6.250000e+01
6.250000e+01
6.250000e+01
6.250000e+01
6.250000e+01
6.250000e+01
6.250000e+01
6.250000e+01
6.250000e+01
6.250000e+01
6.250000e+01
6.250000e+01
6.250000e+01
6.250000e+01
6.250000e+01
6.250000e+01
6.250000e+01
7.500000e+01
7.500000e+01
7.500000e+01
7.500000e+01
7.500000e+01
7.500000e+01
7.500000e+01
7.500000e+01
7.500000e+01
7.500000e+01
7.500000e+01
7.500000e+01
7.500000e+01
7.500000e+01
7.500000e+01
7.500000e+01
7.500000e+01
8.750000e+01
8.750000e+01
8.750000e+01
8.750000e+01
8.750000e+01
8.750000e+01
8.750000e+01
8.750000e+01
8.750000e+01
8.750000e+01
8.750000e+01
8.750000e+01
8.750000e+01
8.750000e+01
8.750000e+01
8.750000e+01
8.750000e+01
1.000000e+02
1.000000e+02
1.000000e+02
1.000000e+02
1.000000e+02
1.000000e+02
1.000000e+02
1.000000e+02
1.000000e+02
1.000000e+02
1.000000e+02
1.000000e+02
1.000000e+02
1.000000e+02
1.000000e+02
1.000000e+02
1.000000e+02
0.000000e+00
-8.051549e-01
-1.469369e+00
-2.109124e+00
-2.757309e+00
-3.396504e+00
-4.022933e+00
-4.634650e+00
-5.223614e+00
-5.779555e+00
-6.295024e+00
-6.769282e+00
-7.211738e+00
-7.645499e+00
-8.110873e+00
-8.655549e+00
-9.052233e+00
0.000000e+00
-4.554781e-01
-9.487065e-01
-1.429861e+00
-1.916325e+00
-2.395535e+00
-2.864459e+00
-3.322091e+00
-3.762630e+00
-4.177706e+00
-4.559558e+00
-4.902727e+00
-5.203469e+00
-5.453971e+00
-5.627792e+00
-5.666054e+00
-5.792015e+00
0.000000e+00
-2.665604e-01
-5.575310e-01
-8.740021e-01
-1.198585e+00
-1.519731e+00
-1.834212e+00
-2.139435e+00
-2.430277e+00
-2.699742e+00
-2.939864e+00
-3.141795e+00
-3.294394e+00
-3.381654e+00
-3.387041e+00
-3.356751e+00
-3.486952e+00
0.000000e+00
-1.225110e-01
-2.596067e-01
-4.132609e-01
-5.749499e-01
-7.363470e-01
-8.942073e-01
-1.045535e+00
-1.186363e+00
-1.311446e+00
-1.414194e+00
-1.486803e+00
-1.521098e+00
-1.512819e+00
-1.479147e+00
-1.486903e+00
-1.586635e+00
0.000000e+00
-4.179236e-04
-8.932526e-04
-1.352111e-03
-1.652041e-03
-1.499334e-03
-3.183110e-04
2.941714e-03
1.004458e-02
2.366006e-02
4.730370e-02
8.454990e-02
1.365007e-01
1.956836e-01
2.373845e-01
2.283678e-01
1.605714e-01
0.000000e+00
1.218122e-01
2.580927e-01
4.109169e-01
5.719682e-01
7.333849e-01
8.928248e-01
1.048932e+00
1.200493e+00
1.346484e+00
1.486057e+00
1.617817e+00
1.737602e+00
1.834973e+00
1.893057e+00
1.898672e+00
1.863756e+00
0.000000e+00
2.662270e-01
5.567591e-01
8.726883e-01
1.196669e+00
1.517316e+00
1.831712e+00
2.137739e+00
2.430951e+00
2.705379e+00
2.954715e+00
3.172807e+00
3.353132e+00
3.487958e+00
3.569449e+00
3.596159e+00
3.588056e+00
0.000000e+00
4.555921e-01
9.488772e-01
1.430017e+00
1.916329e+00
2.395135e+00
2.863157e+00
3.318594e+00
3.753733e+00
4.156769e+00
4.514976e+00
4.816974e+00
5.054239e+00
5.222430e+00
5.323222e+00
5.366281e+00
5.374220e+00
0.000000e+00
8.054966e-01
1.470281e+00
2.110794e+00
2.759921e+00
3.400187e+00
4.027522e+00
4.638645e+00
5.221899e+00
5.759835e+00
6.233126e+00
6.623487e+00
6.916400e+00
7.105005e+00
7.196378e+00
7.218780e+00
7.218254e+00
0.000000e+00
-4.932308e-01
-1.002366e+00
-1.676039e+00
-2.509733e+00
-3.505104e+00
-4.662981e+00
-5.980154e+00
-7.449162e+00
-9.059781e+00
-1.080036e+01
-1.266040e+01
-1.463562e+01
-1.673802e+01
-1.903054e+01
-2.171287e+01
-2.572058e+01
0.000000e+00
-3.081680e-01
-8.381272e-01
-1.507181e+00
-2.341002e+00
-3.339298e+00
-4.500902e+00
-5.823166e+00
-7.299923e+00
-8.921112e+00
-1.067424e+01
-1.254743e+01
-1.453492e+01
-1.664888e+01
-1.894512e+01
-2.161315e+01
-2.495364e+01
0.000000e+00
-2.435404e-01
-7.268710e-01
-1.390351e+00
-2.222070e+00
-3.221872e+00
-4.386803e+00
-5.714088e+00
-7.198167e+00
-8.829536e+00
-1.059593e+01
-1.248554e+01
-1.449296e+01
-1.662849e+01
-1.893001e+01
-2.143854e+01
-2.384177e+01
0.000000e+00
-2.265210e-01
-6.771786e-01
-1.324625e+00
-2.152765e+00
-3.152865e+00
-4.320822e+00
-5.653194e+00
-7.144595e+00
-8.786101e+00
-1.056585e+01
-1.247162e+01
-1.449487e+01
-1.663358e+01
-1.887994e+01
-2.114881e+01
-2.319084e+01
0.000000e+00
-2.243032e-01
-6.640683e-01
-1.304817e+00
-2.130649e+00
-3.131401e+00
-4.301718e+00
-5.638167e+00
-7.135622e+00
-8.785488e+00
-1.057554e+01
-1.249115e+01
-1.451644e+01
-1.663108e+01
-1.879142e+01
-2.089954e+01
-2.279020e+01
0.000000e+00
-2.263142e-01
-6.770891e-01
-1.325017e+00
-2.154191e+00
-3.156248e+00
-4.327693e+00
-5.665952e+00
-7.166538e+00
-8.820843e+00
-1.061544e+01
-1.253200e+01
-1.454638e+01
-1.662408e+01
-1.871109e+01
-2.072590e+01
-2.256197e+01
0.000000e+00
-2.431959e-01
-7.267033e-01
-1.390947e+00
-2.224358e+00
-3.227408e+00
-4.398181e+00
-5.735392e+00
-7.235050e+00
-8.888255e+00
-1.068024e+01
-1.258950e+01
-1.458596e+01
-1.662827e+01
-1.866219e+01
-2.062586e+01
-2.246041e+01
0.000000e+00
-3.078213e-01
-8.379427e-01
-1.507835e+00
-2.343574e+00
-3.345592e+00
-4.513903e+00
-5.847514e+00
-7.341957e+00
-8.987713e+00
-1.076928e+01
-1.266378e+01
-1.463898e+01
-1.665166e+01
-1.864978e+01
-2.058425e+01
-2.243669e+01
0.000000e+00
-4.929965e-01
-1.002295e+00
-1.676840e+00
-2.512502e+00
-3.511664e+00
-4.676245e+00
-6.004395e+00
-7.489798e+00
-9.121963e+00
-1.088518e+01
-1.275680e+01
-1.470529e+01
-1.668913e+01
-1.866009e+01
-2.057660e+01
-2.243715e+01


0.000000e+00
8.467652e-06
1.688742e-05
2.466580e-05
3.231751e-05
3.952323e-05
4.584294e-05
5.106569e-05
5.513459e-05
5.811371e-05
6.017836e-05
6.156302e-05
6.251206e-05
6.326135e-05
6.401657e-05
6.510525e-05
6.655157e-05
0.000000e+00
6.200982e-06
1.357839e-05
1.950457e-05
2.526009e-05
3.069427e-05
3.538897e-05
3.917260e-05
4.203762e-05
4.405491e-05
4.537399e-05
4.617333e-05
4.659330e-05
4.672586e-05
4.687176e-05
4.775153e-05
4.924293e-05
0.000000e+00
4.623263e-06
9.470099e-06
1.351001e-05
1.739794e-05
2.094111e-05
2.396574e-05
2.638752e-05
2.820049e-05
2.944507e-05
3.021152e-05
3.061136e-05
3.075052e-05
3.076211e-05
3.090714e-05
3.162170e-05
3.282142e-05
0.000000e+00
2.306482e-06
4.427348e-06
6.621041e-06
8.601592e-06
1.033409e-05
1.181075e-05
1.300956e-05
1.391064e-05
1.452274e-05
1.488350e-05
1.505456e-05
1.512230e-05
1.519972e-05
1.538452e-05
1.579757e-05
1.647672e-05
0.000000e+00
-4.743451e-09
-1.005146e-08
-1.580652e-08
-2.241303e-08
-3.114299e-08
-4.476198e-08
-6.712238e-08
-1.015367e-07
-1.482512e-07
-2.012621e-07
-2.437420e-07
-2.454826e-07
-1.786116e-07
-6.230898e-08
1.005444e-07
4.003154e-07
0.000000e+00
-2.315032e-06
-4.444863e-06
-6.649042e-06
-8.641422e-06
-1.038838e-05
-1.188526e-05
-1.311466e-05
-1.406132e-05
-1.473646e-05
-1.517462e-05
-1.542277e-05
-1.552988e-05
-1.554899e-05
-1.554423e-05
-1.552466e-05
-1.541586e-05
0.000000e+00
-4.627855e-06
-9.481308e-06
-1.353004e-05
-1.743014e-05
-2.098773e-05
-2.402475e-05
-2.645006e-05
-2.825506e-05
-2.948742e-05
-3.025368e-05
-3.068669e-05
-3.091068e-05
-3.102550e-05
-3.109686e-05
-3.113290e-05
-3.110616e-05
0.000000e+00
-6.201971e-06
-1.358306e-05
-1.951480e-05
-2.528111e-05
-3.073020e-05
-3.543366e-05
-3.920072e-05
-4.201061e-05
-4.394200e-05
-4.517056e-05
-4.590779e-05
-4.633590e-05
-4.658363e-05
-4.672735e-05
-4.679761e-05
-4.680847e-05
0.000000e+00
-8.470950e-06
-1.689045e-05
-2.466873e-05
-3.232337e-05
-3.953420e-05
-4.585061e-05
-5.104145e-05
-5.503401e-05
-5.789600e-05
-5.982005e-05
-6.104976e-05
-6.180490e-05
-6.224786e-05
-6.248192e-05
-6.257176e-05
-6.258697e-05
0.000000e+00
7.472121e-06
1.290340e-05
1.927221e-05
2.755116e-05
3.742488e-05
4.870061e-05
6.123108e-05
7.479229e-05
8.915144e-05
1.041178e-04
1.195443e-04
1.353542e-04
1.516907e-04
1.693913e-04
1.890880e-04
2.093100e-04
0.000000e+00
3.830722e-06
9.392732e-06
1.584547e-05
2.419401e-05
3.436325e-05
4.612442e-05
5.919837e-05
7.329299e-05
8.812161e-05
1.034560e-04
1.191436e-04
1.351198e-04
1.514605e-04
1.685083e-04
1.872062e-04
2.068501e-04
0.000000e+00
1.669279e-06
6.619462e-06
1.333412e-05
2.179496e-05
3.219970e-05
4.430505e-05
5.776463e-05
7.223632e-05
8.740443e-05
1.030157e-04
1.189096e-04
1.350129e-04
1.512736e-04
1.676290e-04
1.852176e-04
2.039769e-04
0.000000e+00
9.567405e-07
5.374806e-06
1.210994e-05
2.073266e-05
3.126282e-05
4.349354e-05
5.709922e-05
7.172899e-05
8.705389e-05
1.028055e-04
1.188036e-04
1.349370e-04
1.510832e-04
1.671325e-04
1.839223e-04
2.016211e-04
0.000000e+00
8.198298e-07
5.035812e-06
1.170835e-05
2.041698e-05
3.099219e-05
4.325576e-05
5.690209e-05
7.158180e-05
8.695901e-05
1.027560e-04
1.187756e-04
1.348839e-04
1.509650e-04
1.669682e-04
1.833350e-04
2.000973e-04
0.000000e+00
9.577624e-07
5.374626e-06
1.210706e-05
2.072690e-05
3.125779e-05
4.349697e-05
5.712008e-05
7.177282e-05
8.711904e-05
1.028792e-04
1.188536e-04
1.349088e-04
1.509540e-04
1.669727e-04
1.831170e-04
1.992911e-04
0.000000e+00
1.670699e-06
6.619329e-06
1.333022e-05
2.178698e-05
3.219395e-05
4.431504e-05
5.780639e-05
7.232042e-05
8.752975e-05
1.031640e-04
1.190320e-04
1.350076e-04
1.510109e-04
1.670110e-04
1.830235e-04
1.989358e-04
0.000000e+00
3.833263e-06
9.395338e-06
1.584603e-05
2.419301e-05
3.436658e-05
4.614371e-05
5.924779e-05
7.338402e-05
8.825755e-05
1.036247e-04
1.193018e-04
1.351547e-04
1.510896e-04
1.670473e-04
1.829830e-04
1.988220e-04
0.000000e+00
7.477019e-06
1.290957e-05
1.927925e-05
2.756070e-05
3.744022e-05
4.872535e-05
6.126916e-05
7.485089e-05
8.923952e-05
1.042341e-04
1.196554e-04
1.353475e-04
1.511881e-04
1.670895e-04
1.829799e-04
1.988054e-04


2.134542e+00
2.106271e+00
2.240960e+00
2.465116e+00
2.659506e+00
2.879906e+00
3.131412e+00
3.380680e+00
3.599259e+00
3.771671e+00
3.893871e+00
3.968605e+00
3.987846e+00
3.902339e+00
3.720499e+00
3.580197e+00
2.589458e+00
2.559140e+00
2.650617e+00
2.816318e+00
2.962581e+00
3.131858e+00
3.327767e+00
3.523310e+00
3.695925e+00
3.832723e+00
3.929545e+00
3.987484e+00
3.996395e+00
3.905789e+00
3.727886e+00
3.592435e+00
3.291754e+00
3.265585e+00
3.304441e+00
3.382127e+00
3.452440e+00
3.540944e+00
3.645768e+00
3.752322e+00
3.848249e+00
3.925317e+00
3.979829e+00
4.011246e+00
4.010289e+00
3.936351e+00
3.796868e+00
3.694341e+00
3.753394e+00
3.735121e+00
3.739601e+00
3.757721e+00
3.781627e+00
3.815773e+00
3.857732e+00
3.902310e+00
3.944342e+00
3.979227e+00
4.004319e+00
4.019036e+00
4.018334e+00
3.979870e+00
3.905841e+00
3.851466e+00
3.753357e+00
3.735018e+00
3.739339e+00
3.757153e+00
3.780581e+00
3.814061e+00
3.855129e+00
3.898515e+00
3.939083e+00
3.972586e+00
3.997155e+00
4.013643e+00
4.021679e+00
4.013542e+00
3.989420e+00
3.970837e+00
3.291440e+00
3.265054e+00
3.303433e+00
3.380345e+00
3.449696e+00
3.537285e+00
3.641226e+00
3.746480e+00
3.840232e+00
3.914631e+00
3.967716e+00
4.002837e+00
4.024801e+00
4.035145e+00
4.036129e+00
4.034596e+00
2.588570e+00
2.557887e+00
2.648667e+00
2.813485e+00
2.959214e+00
3.129103e+00
3.326913e+00
3.524567e+00
3.697919e+00
3.833536e+00
3.928855e+00
3.990081e+00
4.026985e+00
4.047756e+00
4.058117e+00
4.062143e+00
2.133191e+00
2.104482e+00
2.238418e+00
2.461807e+00
2.656289e+00
2.878867e+00
3.134904e+00
3.389549e+00
3.611937e+00
3.785230e+00
3.906481e+00
3.983533e+00
4.028850e+00
4.053862e+00
4.066506e+00
4.071754e+00


-4.010229e-01
-1.789342e-01
-1.010268e-01
-1.286647e-01
-9.808929e-02
-5.475599e-02
-6.375570e-03
6.629130e-02
1.688669e-01
2.906401e-01
4.131711e-01
5.184328e-01
5.958731e-01
6.452060e-01
6.958321e-01
-2.652677e-01
5.177970e-01
4.066471e-01
3.916594e-01
3.698963e-01
3.798591e-01
3.980669e-01
4.209851e-01
4.595293e-01
5.192250e-01
5.979542e-01
6.891151e-01
7.848843e-01
8.766124e-01
9.416677e-01
8.184668e-01
-8.848390e-01
8.336387e-01
7.537425e-01
6.936293e-01
6.679088e-01
6.624308e-01
6.632137e-01
6.687319e-01
6.827814e-01
7.085672e-01
7.462309e-01
7.910687e-01
8.308347e-01
8.402428e-01
7.676153e-01
5.164180e-01
6.956030e-02
9.456930e-01
8.839207e-01
8.325059e-01
8.046185e-01
7.921264e-01
7.843428e-01
7.773804e-01
7.710575e-01
7.665123e-01
7.635326e-01
7.577633e-01
7.387342e-01
6.917386e-01
6.150594e-01
5.602352e-01
5.527856e-01
9.460894e-01
8.844366e-01
8.330050e-01
8.046669e-01
7.909067e-01
7.804239e-01
7.683122e-01
7.530579e-01
7.345865e-01
7.126854e-01
6.864027e-01
6.558890e-01
6.292823e-01
6.337309e-01
7.009579e-01
8.135602e-01
8.345317e-01
7.549459e-01
6.948891e-01
6.684294e-01
6.606239e-01
6.561925e-01
6.515117e-01
6.476135e-01
6.449899e-01
6.430054e-01
6.420451e-01
6.477027e-01
6.744908e-01
7.392037e-01
8.388254e-01
9.417526e-01
5.183776e-01
4.074921e-01
3.926113e-01
3.707237e-01
3.797686e-01
3.955504e-01
4.138017e-01
4.447373e-01
4.929104e-01
5.549250e-01
6.240141e-01
6.960855e-01
7.731992e-01
8.581999e-01
9.389490e-01
9.898493e-01
-4.017043e-01
-1.801320e-01
-1.024331e-01
-1.302456e-01
-9.959654e-02
-5.541435e-02
-2.788209e-03
8.266126e-02
2.122515e-01
3.781797e-01
5.595591e-01
7.299425e-01
8.650333e-01
9.508808e-01
9.903816e-01
9.998005e-01
1 2 19 18
2 3 20 19
3 4 21 20
4 5 22 21
5 6 23 22
6 7 24 23
7 8 25 24
8 9 26 25
9 10 27 26
10 11 28 27
11 12 29 28
12 13 30 29
13 14 31 30
14 15 32 31
15 16 33 32
16 17 34 33
18 19 36 35
19 20 37 36
20 21 38 37
21 22 39 38
22 23 40 39
23 24 41 40
24 25 42 41
25 26 43 42
26 27 44 43
27 28 45 44
28 29 46 45
29 30 47 46
30 31 48 47
31 32 49 48
32 33 50 49
33 34 51 50
35 36 53 52
36 37 54 53
37 38 55 54
38 39 56 55
39 40 57 56
40 41 58 57
41 42 59 58
42 43 60 59
43 44 61 60
44 45 62 61
45 46 63 62
46 47 64 63
47 48 65 64
48 49 66 65
49 50 67 66
50 51 68 67
52 53 70 69
53 54 71 70
54 55 72 71
55 56 73 72
56 57 74 73
57 58 75 74
58 59 76 75
59 60 77 76
60 61 78 77
61 62 79 78
62 63 80 79
63 64 81 80
64 65 82 81
65 66 83 82
66 67 84 83
67 68 85 84
69 70 87 86
70 71 88 87
71 72 89 88
72 73 90 89
73 74 91 90
74 75 92 91
75 76 93 92
76 77 94 93
77 78 95 94
78 79 96 95
79 80 97 96
80 81 98 97
81 82 99 98
82 83 100 99
83 84 101 100
84 85 102 101
86 87 104 103
87 88 105 104
88 89 106 105
89 90 107 106
90 91 108 107
91 92 109 108
92 93 110 109
93 94 111 110
94 95 112 111
95 96 113 112
96 97 114 113
97 98 115 114
98 99 116 115
99 100 117 116
100 101 118 117
101 102 119 118
103 104 121 120
104 105 122 121
105 106 123 122
106 107 124 123
107 108 125 124
108 109 126 125
109 110 127 126
110 111 128 127
111 112 129 128
112 113 130 129
113 114 131 130
114 115 132 131
115 116 133 132
116 117 134 133
117 118 135 134
118 119 136 135
120 121 138 137
121 122 139 138
122 123 140 139
123 124 141 140
124 125 142 141
125 126 143 142
126 127 144 143
127 128 145 144
128 129 146 145
129 130 147 146
130 131 148 147
131 132 149 148
132 133 150 149
133 134 151 150
134 135 152 151
135 136 153 152
