TITLE = "Solution"
VARIABLES = x, y, u, v, psiu, psiv, t, stress
ZONE T="structure" N=153 E=128 F=FEBLOCK ET=QUADRILATERAL VARLOCATION=([7,8]=cellcentered)
0.000000e+00
1.250000e+01
2.500000e+01
3.750000e+01
5.000000e+01
6.250000e+01
7.500000e+01
8.750000e+01
1.000000e+02
1.125000e+02
1.250000e+02
1.375000e+02
1.500000e+02
1.625000e+02
1.750000e+02
1.875000e+02
2.000000e+02
0.000000e+00
1.250000e+01
2.500000e+01
3.750000e+01
5.000000e+01
6.250000e+01
7.500000e+01
8.750000e+01
1.000000e+02
1.125000e+02
1.250000e+02
1.375000e+02
1.500000e+02
1.625000e+02
1.750000e+02
1.875000e+02
2.000000e+02
0.000000e+00
1.250000e+01
2.500000e+01
3.750000e+01
5.000000e+01
6.250000e+01
7.500000e+01
8.750000e+01
1.000000e+02
1.125000e+02
1.250000e+02
1.375000e+02
1.500000e+02
1.625000e+02
1.750000e+02
1.875000e+02
2.000000e+02
0.000000e+00
1.250000e+01
2.500000e+01
3.750000e+01
5.000000e+01
6.250000e+01
7.500000e+01
8.750000e+01
1.000000e+02
1.125000e+02
1.250000e+02
1.375000e+02
1.500000e+02
1.625000e+02
1.750000e+02
1.875000e+02
2.000000e+02
0.000000e+00
1.250000e+01
2.500000e+01
3.750000e+01
5.000000e+01
6.250000e+01
7.500000e+01
8.750000e+01
1.000000e+02
1.125000e+02
1.250000e+02
1.375000e+02
1.500000e+02
1.625000e+02
1.750000e+02
1.875000e+02
2.000000e+02
0.000000e+00
1.250000e+01
2.500000e+01
3.750000e+01
5.000000e+01
6.250000e+01
7.500000e+01
8.750000e+01
1.000000e+02
1.125000e+02
1.250000e+02
1.375000e+02
1.500000e+02
1.625000e+02
1.750000e+02
1.875000e+02
2.000000e+02
0.000000e+00
1.250000e+01
2.500000e+01
3.750000e+01
5.000000e+01
6.250000e+01
7.500000e+01
8.750000e+01
1.000000e+02
1.125000e+02
1.250000e+02
1.375000e+02
1.500000e+02
1.625000e+02
1.750000e+02
1.875000e+02
2.000000e+02
0.000000e+00
1.250000e+01
2.500000e+01
3.750000e+01
5.000000e+01
6.250000e+01
7.500000e+01
8.750000e+01
1.000000e+02
1.125000e+02
1.250000e+02
1.375000e+02
1.500000e+02
1.625000e+02
1.750000e+02
1.875000e+02
2.000000e+02
0.000000e+00
1.250000e+01
2.500000e+01
3.750000e+01
5.000000e+01
6.250000e+01
7.500000e+01
8.750000e+01
1.000000e+02
1.125000e+02
1.250000e+02
1.375000e+02
1.500000e+02
1.625000e+02
1.750000e+02
1.875000e+02
2.000000e+02
0.000000e+00
0.000000e+00
0.000000e+00
0.000000e+00
0.000000e+00
0.000000e+00
0.000000e+00
0.000000e+00
0.000000e+00
0.000000e+00
0.000000e+00
0.000000e+00
0.000000e+00
0.000000e+00
0.000000e+00
0.000000e+00
0.000000e+00
1.250000e+01
1.250000e+01
1.250000e+01
1.250000e+01
1.250000e+01
1.250000e+01
1.250000e+01
1.250000e+01
1.250000e+01
1.250000e+01
1.250000e+01
1.250000e+01
1.250000e+01
1.250000e+01
1.250000e+01
1.250000e+01
1.250000e+01
2.500000e+01
2.500000e+01
2.500000e+01
2.500000e+01
2.500000e+01
2.500000e+01
2.500000e+01
2.500000e+01
2.500000e+01
2.500000e+01
2.500000e+01
2.500000e+01
2.500000e+01
2.500000e+01
2.500000e+01
2.500000e+01
2.500000e+01
3.750000e+01
3.750000e+01
3.750000e+01
3.750000e+01
3.750000e+01
3.750000e+01
3.750000e+01
3.750000e+01
3.750000e+01
3.750000e+01
3.750000e+01
3.750000e+01
3.750000e+01
3.750000e+01
3.750000e+01
3.750000e+01
3.750000e+01
5.000000e+01
5.000000e+01
5.000000e+01
5.000000e+01
5.000000e+01
5.000000e+01
5.000000e+01
5.000000e+01
5.000000e+01
5.000000e+01
5.000000e+01
5.000000e+01
5.000000e+01
5.000000e+01
5.000000e+01
5.000000e+01
5.000000e+01
6.250000e+01
6.250000e+01
6.250000e+01
6.250000e+01
6.250000e+01
6.250000e+01
6.250000e+01
6.250000e+01
6.250000e+01
6.250000e+01
6.250000e+01
6.250000e+01
6.250000e+01
6.250000e+01
6.250000e+01
6.250000e+01
6.250000e+01
7.500000e+01
7.500000e+01
7.500000e+01
7.500000e+01
7.500000e+01
7.500000e+01
7.500000e+01
7.500000e+01
7.500000e+01
7.500000e+01
7.500000e+01
7.500000e+01
7.500000e+01
7.500000e+01
7.500000e+01
7.500000e+01
7.500000e+01
8.750000e+01
8.750000e+01
8.750000e+01
8.750000e+01
8.750000e+01
8.750000e+01
8.750000e+01
8.750000e+01
8.750000e+01
8.750000e+01
8.750000e+01
8.750000e+01
8.750000e+01
8.750000e+01
8.750000e+01
8.750000e+01
8.750000e+01
1.000000e+02
1.000000e+02
1.000000e+02
1.000000e+02
1.000000e+02
1.000000e+02
1.000000e+02
1.000000e+02
1.000000e+02
1.000000e+02
1.000000e+02
1.000000e+02
1.000000e+02
1.000000e+02
1.000000e+02
1.000000e+02
1.000000e+02
0.000000e+00
-9.254119e-02
-1.703977e-01
-2.420365e-01
-3.087532e-01
-3.704068e-01
-4.268648e-01
-4.780833e-01
-5.241365e-01
-5.652366e-01
-6.017908e-01
-6.345135e-01
-6.646337e-01
-6.942746e-01
-7.270980e-01
-7.674094e-01
-7.976586e-01
0.000000e+00
-5.526355e-02
-1.147995e-01
-1.697778e-01
-2.204304e-01
-2.669498e-01
-3.094323e-01
-3.479346e-01
-3.825259e-01
-4.133128e-01
-4.404515e-01
-4.641374e-01
-4.845216e-01
-5.013943e-01
-5.132956e-01
-5.159042e-01
-5.252565e-01
0.000000e+00
-3.456005e-02
-7.106432e-02
-1.074832e-01
-1.414797e-01
-1.726936e-01
-2.010995e-01
-2.267295e-01
-2.495897e-01
-2.696421e-01
-2.867785e-01
-3.007596e-01
-3.110870e-01
-3.168519e-01
-3.170119e-01
-3.147089e-01
-3.242476e-01
0.000000e+00
-1.668076e-02
-3.433971e-02
-5.211044e-02
-6.910273e-02
-8.475389e-02
-9.894031e-02
-1.116206e-01
-1.227221e-01
-1.321004e-01
-1.395157e-01
-1.446179e-01
-1.469895e-01
-1.464354e-01
-1.441591e-01
-1.447816e-01
-1.518840e-01
0.000000e+00
-1.536805e-05
-3.493656e-05
-5.444113e-05
-6.479342e-05
-4.572665e-05
4.298634e-05
2.735285e-04
7.643259e-04
1.691781e-03
3.286038e-03
5.778294e-03
9.231025e-03
1.313279e-02
1.582802e-02
1.508882e-02
1.038634e-02
0.000000e+00
1.665712e-02
3.428482e-02
5.202263e-02
6.899350e-02
8.466505e-02
9.897476e-02
1.119926e-01
1.238313e-01
1.346282e-01
1.445244e-01
1.535930e-01
1.616766e-01
1.681588e-01
1.719719e-01
1.722744e-01
1.698876e-01
0.000000e+00
3.455617e-02
7.105250e-02
1.074597e-01
1.414429e-01
1.726478e-01
2.010616e-01
2.267418e-01
2.497417e-01
2.701020e-01
2.878403e-01
3.029134e-01
3.151478e-01
3.241932e-01
3.296224e-01
3.313853e-01
3.308287e-01
0.000000e+00
5.528623e-02
1.148488e-01
1.698564e-01
2.205358e-01
2.670627e-01
3.094956e-01
3.478188e-01
3.819737e-01
4.118617e-01
4.373408e-01
4.582348e-01
4.743765e-01
4.857124e-01
4.924745e-01
4.953581e-01
4.958878e-01
0.000000e+00
9.257911e-02
1.704977e-01
2.422239e-01
3.090525e-01
3.708278e-01
4.273670e-01
4.785055e-01
5.240723e-01
5.638303e-01
5.974346e-01
6.244372e-01
6.443944e-01
6.571492e-01
6.633176e-01
6.648402e-01
6.648108e-01
0.000000e+00
-5.601789e-02
-1.099703e-01
-1.798803e-01
-2.656805e-01
-3.672104e-01
-4.833584e-01
-6.128246e-01
-7.542324e-01
-9.062237e-01
-1.067543e+00
-1.237193e+00
-1.414763e+00
-1.601202e+00
-1.801347e+00
-2.030351e+00
-2.359392e+00
0.000000e+00
-3.448570e-02
-9.076682e-02
-1.615435e-01
-2.487457e-01
-3.516610e-01
-4.692159e-01
-6.000789e-01
-7.428572e-01
-8.961682e-01
-1.058722e+00
-1.229475e+00
-1.407953e+00
-1.595081e+00
-1.795148e+00
-2.022762e+00
-2.301615e+00
0.000000e+00
-2.602267e-02
-7.745407e-02
-1.484918e-01
-2.365183e-01
-3.404928e-01
-4.591281e-01
-5.910799e-01
-7.349649e-01
-8.894201e-01
-1.053181e+00
-1.225238e+00
-1.405165e+00
-1.593732e+00
-1.793971e+00
-2.009643e+00
-2.218367e+00
0.000000e+00
-2.242472e-02
-7.083511e-02
-1.408309e-01
-2.291755e-01
-3.337899e-01
-4.531648e-01
-5.859047e-01
-7.306525e-01
-8.860819e-01
-1.050956e+00
-1.224245e+00
-1.405321e+00
-1.594096e+00
-1.790329e+00
-1.988500e+00
-2.171061e+00
0.000000e+00
-2.138826e-02
-6.883193e-02
-1.383870e-01
-2.267556e-01
-3.316303e-01
-4.513485e-01
-5.845157e-01
-7.298007e-01
-8.858990e-01
-1.051546e+00
-1.225550e+00
-1.406786e+00
-1.593919e+00
-1.784146e+00
-1.970962e+00
-2.143065e+00
0.000000e+00
-2.241141e-02
-7.082564e-02
-1.408477e-01
-2.292583e-01
-3.340080e-01
-4.536314e-01
-5.867885e-01
-7.321762e-01
-8.884836e-01
-1.054364e+00
-1.228376e+00
-1.408837e+00
-1.593449e+00
-1.778667e+00
-1.959077e+00
-2.127507e+00
0.000000e+00
-2.600096e-02
-7.743837e-02
-1.485199e-01
-2.366578e-01
-3.408619e-01
-4.599193e-01
-5.925806e-01
-7.375558e-01
-8.935113e-01
-1.059010e+00
-1.232388e+00
-1.411559e+00
-1.593752e+00
-1.775379e+00
-1.952326e+00
-2.120644e+00
0.000000e+00
-3.446534e-02
-9.075316e-02
-1.615808e-01
-2.489132e-01
-3.520950e-01
-4.701369e-01
-6.018135e-01
-7.458334e-01
-9.008389e-01
-1.065333e+00
-1.237536e+00
-1.415179e+00
-1.595344e+00
-1.774555e+00
-1.949535e+00
-2.119033e+00
0.000000e+00
-5.600948e-02
-1.099715e-01
-1.799381e-01
-2.658747e-01
-3.676742e-01
-4.843008e-01
-6.145440e-01
-7.570991e-01
-9.105842e-01
-1.073467e+00
-1.243927e+00
-1.419681e+00
-1.597875e+00
-1.775255e+00
-1.949025e+00
-2.119058e+00


0.000000e+00
-1.340141e-08
-2.674603e-08
-3.921628e-08
-5.105831e-08
-6.220202e-08
-7.257623e-08
-8.214615e-08
-9.089872e-08
-9.884041e-08
-1.059966e-07
-1.124018e-07
-1.180674e-07
-1.229254e-07
-1.268907e-07
-1.302449e-07
-1.331947e-07
0.000000e+00
-7.341283e-09
-1.795157e-08
-2.762236e-08
-3.663352e-08
-4.507205e-08
-5.289977e-08
-6.008649e-08
-6.661032e-08
-7.245129e-08
-7.758592e-08
-8.198071e-08
-8.559930e-08
-8.850535e-08
-9.115665e-08
-9.424929e-08
-9.738836e-08
0.000000e+00
-4.496734e-09
-1.117866e-08
-1.755185e-08
-2.360189e-08
-2.926644e-08
-3.449601e-08
-3.925887e-08
-4.352600e-08
-4.726475e-08
-5.043847e-08
-5.301954e-08
-5.503864e-08
-5.669102e-08
-5.842114e-08
-6.071696e-08
-6.334062e-08
0.000000e+00
-2.157565e-09
-5.323408e-09
-8.435875e-09
-1.145490e-08
-1.428164e-08
-1.687036e-08
-1.919434e-08
-2.122749e-08
-2.294205e-08
-2.431483e-08
-2.534686e-08
-2.610052e-08
-2.674417e-08
-2.756402e-08
-2.890037e-08
-3.073066e-08
0.000000e+00
-3.216961e-12
-4.522735e-12
-6.183340e-13
1.298825e-11
4.349042e-11
1.014702e-10
2.010631e-10
3.587494e-10
5.894048e-10
8.975443e-10
1.262588e-09
1.621304e-09
1.855064e-09
1.776610e-09
1.148097e-09
-6.359066e-11
0.000000e+00
2.151637e-09
5.314635e-09
8.432677e-09
1.147312e-08
1.434922e-08
1.703342e-08
1.952354e-08
2.182278e-08
2.393112e-08
2.583686e-08
2.750782e-08
2.888537e-08
2.988411e-08
3.039877e-08
3.030586e-08
2.963785e-08
0.000000e+00
4.493093e-09
1.117274e-08
1.754684e-08
2.360402e-08
2.928776e-08
3.455774e-08
3.939524e-08
4.378782e-08
4.772040e-08
5.116787e-08
5.408923e-08
5.642601e-08
5.811318e-08
5.911535e-08
5.944901e-08
5.925154e-08
0.000000e+00
7.344365e-09
1.795724e-08
2.762687e-08
3.663063e-08
4.505127e-08
5.284402e-08
5.996947e-08
6.639401e-08
7.208429e-08
7.700470e-08
8.111566e-08
8.437418e-08
8.674453e-08
8.823802e-08
8.897303e-08
8.915153e-08
0.000000e+00
1.341848e-08
2.677640e-08
3.925397e-08
5.109061e-08
6.220224e-08
7.249362e-08
8.189271e-08
9.033356e-08
9.775438e-08
1.041024e-07
1.093417e-07
1.134599e-07
1.164749e-07
1.184461e-07
1.194695e-07
1.198000e-07
0.000000e+00
-1.212641e-08
-2.388964e-08
-3.717757e-08
-5.301638e-08
-7.156983e-08
-9.274080e-08
-1.163622e-07
-1.422323e-07
-1.701487e-07
-1.999345e-07
-2.314829e-07
-2.648707e-07
-3.005984e-07
-3.395425e-07
-3.809132e-07
-4.218973e-07
0.000000e+00
-7.437120e-09
-1.886341e-08
-3.217965e-08
-4.824071e-08
-6.709163e-08
-8.860380e-08
-1.125854e-07
-1.388272e-07
-1.671219e-07
-1.972870e-07
-2.292043e-07
-2.628842e-07
-2.985464e-07
-3.365311e-07
-3.768598e-07
-4.173134e-07
0.000000e+00
-4.854190e-09
-1.482172e-08
-2.805219e-08
-4.427352e-08
-6.338714e-08
-8.520353e-08
-1.095125e-07
-1.360989e-07
-1.647522e-07
-1.952812e-07
-2.275325e-07
-2.613982e-07
-2.967757e-07
-3.335990e-07
-3.724448e-07
-4.115784e-07
0.000000e+00
-3.627467e-09
-1.266442e-08
-2.561584e-08
-4.190547e-08
-6.118824e-08
-8.321101e-08
-1.077474e-07
-1.345772e-07
-1.634842e-07
-1.942583e-07
-2.266938e-07
-2.605672e-07
-2.955961e-07
-3.315478e-07
-3.688634e-07
-4.060037e-07
0.000000e+00
-3.269110e-09
-1.200205e-08
-2.482715e-08
-4.113460e-08
-6.048934e-08
-8.260582e-08
-1.072505e-07
-1.341993e-07
-1.632261e-07
-1.940971e-07
-2.265579e-07
-2.603084e-07
-2.949713e-07
-3.301676e-07
-3.660953e-07
-4.012663e-07
0.000000e+00
-3.630277e-09
-1.267568e-08
-2.564416e-08
-4.196208e-08
-6.128831e-08
-8.337330e-08
-1.079916e-07
-1.349168e-07
-1.639120e-07
-1.947208e-07
-2.270538e-07
-2.605663e-07
-2.948265e-07
-3.293598e-07
-3.641179e-07
-3.978455e-07
0.000000e+00
-4.858729e-09
-1.484131e-08
-2.810169e-08
-4.437255e-08
-6.356243e-08
-8.548821e-08
-1.099413e-07
-1.366958e-07
-1.655048e-07
-1.960939e-07
-2.281501e-07
-2.613043e-07
-2.951056e-07
-3.290490e-07
-3.629273e-07
-3.957480e-07
0.000000e+00
-7.442822e-09
-1.888796e-08
-3.224013e-08
-4.836087e-08
-6.730360e-08
-8.894709e-08
-1.131005e-07
-1.395400e-07
-1.680115e-07
-1.982268e-07
-2.298564e-07
-2.625191e-07
-2.957731e-07
-3.291557e-07
-3.623909e-07
-3.947404e-07
0.000000e+00
-1.213589e-08
-2.391797e-08
-3.724221e-08
-5.314078e-08
-7.178474e-08
-9.308241e-08
-1.168644e-07
-1.429091e-07
-1.709590e-07
-2.007198e-07
-2.318546e-07
-2.639802e-07
-2.966746e-07
-3.295336e-07
-3.623030e-07
-3.944445e-07


2.703919e-01
2.703925e-01
2.703961e-01
2.704012e-01
2.704054e-01
2.704091e-01
2.704123e-01
2.704151e-01
2.704175e-01
2.704195e-01
2.704212e-01
2.704225e-01
2.704234e-01
2.704238e-01
2.704238e-01
2.704236e-01
2.703989e-01
2.703991e-01
2.704016e-01
2.704054e-01
2.704087e-01
2.704116e-01
2.704142e-01
2.704165e-01
2.704185e-01
2.704201e-01
2.704215e-01
2.704226e-01
2.704234e-01
2.704237e-01
2.704236e-01
2.704235e-01
2.704102e-01
2.704099e-01
2.704109e-01
2.704127e-01
2.704145e-01
2.704161e-01
2.704176e-01
2.704190e-01
2.704202e-01
2.704212e-01
2.704221e-01
2.704228e-01
2.704233e-01
2.704235e-01
2.704236e-01
2.704236e-01
2.704179e-01
2.704174e-01
2.704174e-01
2.704179e-01
2.704186e-01
2.704193e-01
2.704200e-01
2.704207e-01
2.704213e-01
2.704219e-01
2.704224e-01
2.704228e-01
2.704232e-01
2.704234e-01
2.704237e-01
2.704239e-01
2.704179e-01
2.704174e-01
2.704174e-01
2.704179e-01
2.704186e-01
2.704193e-01
2.704200e-01
2.704206e-01
2.704212e-01
2.704217e-01
2.704222e-01
2.704226e-01
2.704231e-01
2.704235e-01
2.704240e-01
2.704243e-01
2.704102e-01
2.704099e-01
2.704109e-01
2.704127e-01
2.704145e-01
2.704161e-01
2.704176e-01
2.704188e-01
2.704200e-01
2.704209e-01
2.704218e-01
2.704225e-01
2.704231e-01
2.704238e-01
2.704243e-01
2.704246e-01
2.703989e-01
2.703991e-01
2.704016e-01
2.704054e-01
2.704087e-01
2.704116e-01
2.704142e-01
2.704164e-01
2.704184e-01
2.704200e-01
2.704214e-01
2.704225e-01
2.704234e-01
2.704241e-01
2.704246e-01
2.704249e-01
2.703919e-01
2.703925e-01
2.703960e-01
2.704012e-01
2.704054e-01
2.704090e-01
2.704123e-01
2.704151e-01
2.704176e-01
2.704196e-01
2.704213e-01
2.704226e-01
2.704236e-01
2.704244e-01
2.704248e-01
2.704251e-01


9.807328e-01
9.834650e-01
9.859922e-01
9.879376e-01
9.897434e-01
9.914087e-01
9.929259e-01
9.942772e-01
9.954485e-01
9.964282e-01
9.972072e-01
9.977778e-01
9.981326e-01
9.982591e-01
9.983505e-01
9.927186e-01
9.927109e-01
9.914588e-01
9.922642e-01
9.933154e-01
9.942955e-01
9.951863e-01
9.959928e-01
9.967233e-01
9.973848e-01
9.979839e-01
9.985276e-01
9.990199e-01
9.994494e-01
9.997306e-01
9.990194e-01
9.893788e-01
9.974674e-01
9.967482e-01
9.965540e-01
9.968270e-01
9.971862e-01
9.975341e-01
9.978572e-01
9.981624e-01
9.984581e-01
9.987465e-01
9.990158e-01
9.992243e-01
9.992678e-01
9.988923e-01
9.975301e-01
9.950801e-01
9.994845e-01
9.989600e-01
9.986360e-01
9.985538e-01
9.985865e-01
9.986416e-01
9.986966e-01
9.987503e-01
9.988031e-01
9.988472e-01
9.988595e-01
9.987938e-01
9.985855e-01
9.982117e-01
9.978947e-01
9.978144e-01
9.994865e-01
9.989628e-01
9.986384e-01
9.985532e-01
9.985784e-01
9.986181e-01
9.986456e-01
9.986549e-01
9.986422e-01
9.986016e-01
9.985260e-01
9.984170e-01
9.983132e-01
9.983338e-01
9.986272e-01
9.991350e-01
9.974710e-01
9.967537e-01
9.965592e-01
9.968270e-01
9.971722e-01
9.974910e-01
9.977608e-01
9.979776e-01
9.981400e-01
9.982494e-01
9.983185e-01
9.983861e-01
9.985282e-01
9.988259e-01
9.992732e-01
9.997357e-01
9.927102e-01
9.914583e-01
9.922631e-01
9.933124e-01
9.942878e-01
9.951688e-01
9.959565e-01
9.966540e-01
9.972617e-01
9.977813e-01
9.982211e-01
9.986052e-01
9.989751e-01
9.993630e-01
9.997257e-01
9.999541e-01
9.807197e-01
9.834444e-01
9.859670e-01
9.879093e-01
9.897180e-01
9.913994e-01
9.929572e-01
9.943877e-01
9.956911e-01
9.968649e-01
9.978952e-01
9.987499e-01
9.993857e-01
9.997780e-01
9.999565e-01
9.999991e-01
1 2 19 18
2 3 20 19
3 4 21 20
4 5 22 21
5 6 23 22
6 7 24 23
7 8 25 24
8 9 26 25
9 10 27 26
10 11 28 27
11 12 29 28
12 13 30 29
13 14 31 30
14 15 32 31
15 16 33 32
16 17 34 33
18 19 36 35
19 20 37 36
20 21 38 37
21 22 39 38
22 23 40 39
23 24 41 40
24 25 42 41
25 26 43 42
26 27 44 43
27 28 45 44
28 29 46 45
29 30 47 46
30 31 48 47
31 32 49 48
32 33 50 49
33 34 51 50
35 36 53 52
36 37 54 53
37 38 55 54
38 39 56 55
39 40 57 56
40 41 58 57
41 42 59 58
42 43 60 59
43 44 61 60
44 45 62 61
45 46 63 62
46 47 64 63
47 48 65 64
48 49 66 65
49 50 67 66
50 51 68 67
52 53 70 69
53 54 71 70
54 55 72 71
55 56 73 72
56 57 74 73
57 58 75 74
58 59 76 75
59 60 77 76
60 61 78 77
61 62 79 78
62 63 80 79
63 64 81 80
64 65 82 81
65 66 83 82
66 67 84 83
67 68 85 84
69 70 87 86
70 71 88 87
71 72 89 88
72 73 90 89
73 74 91 90
74 75 92 91
75 76 93 92
76 77 94 93
77 78 95 94
78 79 96 95
79 80 97 96
80 81 98 97
81 82 99 98
82 83 100 99
83 84 101 100
84 85 102 101
86 87 104 103
87 88 105 104
88 89 106 105
89 90 107 106
90 91 108 107
91 92 109 108
92 93 110 109
93 94 111 110
94 95 112 111
95 96 113 112
96 97 114 113
97 98 115 114
98 99 116 115
99 100 117 116
100 101 118 117
101 102 119 118
103 104 121 120
104 105 122 121
105 106 123 122
106 107 124 123
107 108 125 124
108 109 126 125
109 110 127 126
110 111 128 127
111 112 129 128
112 113 130 129
113 114 131 130
114 115 132 131
115 116 133 132
116 117 134 133
117 118 135 134
118 119 136 135
120 121 138 137
121 122 139 138
122 123 140 139
123 124 141 140
124 125 142 141
125 126 143 142
126 127 144 143
127 128 145 144
128 129 146 145
129 130 147 146
130 131 148 147
131 132 149 148
132 133 150 149
133 134 151 150
134 135 152 151
135 136 153 152
