TITLE = "Solution"
VARIABLES = x, y, u, v, psiu, psiv, t, stress
ZONE T="structure" N=153 E=128 F=FEBLOCK ET=QUADRILATERAL VARLOCATION=([7,8]=cellcentered)
0.000000e+00
1.250000e+01
2.500000e+01
3.750000e+01
5.000000e+01
6.250000e+01
7.500000e+01
8.750000e+01
1.000000e+02
1.125000e+02
1.250000e+02
1.375000e+02
1.500000e+02
1.625000e+02
1.750000e+02
1.875000e+02
2.000000e+02
0.000000e+00
1.250000e+01
2.500000e+01
3.750000e+01
5.000000e+01
6.250000e+01
7.500000e+01
8.750000e+01
1.000000e+02
1.125000e+02
1.250000e+02
1.375000e+02
1.500000e+02
1.625000e+02
1.750000e+02
1.875000e+02
2.000000e+02
0.000000e+00
1.250000e+01
2.500000e+01
3.750000e+01
5.000000e+01
6.250000e+01
7.500000e+01
8.750000e+01
1.000000e+02
1.125000e+02
1.250000e+02
1.375000e+02
1.500000e+02
1.625000e+02
1.750000e+02
1.875000e+02
2.000000e+02
0.000000e+00
1.250000e+01
2.500000e+01
3.750000e+01
5.000000e+01
6.250000e+01
7.500000e+01
8.750000e+01
1.000000e+02
1.125000e+02
1.250000e+02
1.375000e+02
1.500000e+02
1.625000e+02
1.750000e+02
1.875000e+02
2.000000e+02
0.000000e+00
1.250000e+01
2.500000e+01
3.750000e+01
5.000000e+01
6.250000e+01
7.500000e+01
8.750000e+01
1.000000e+02
1.125000e+02
1.250000e+02
1.375000e+02
1.500000e+02
1.625000e+02
1.750000e+02
1.875000e+02
2.000000e+02
0.000000e+00
1.250000e+01
2.500000e+01
3.750000e+01
5.000000e+01
6.250000e+01
7.500000e+01
8.750000e+01
1.000000e+02
1.125000e+02
1.250000e+02
1.375000e+02
1.500000e+02
1.625000e+02
1.750000e+02
1.875000e+02
2.000000e+02
0.000000e+00
1.250000e+01
2.500000e+01
3.750000e+01
5.000000e+01
6.250000e+01
7.500000e+01
8.750000e+01
1.000000e+02
1.125000e+02
1.250000e+02
1.375000e+02
1.500000e+02
1.625000e+02
1.750000e+02
1.875000e+02
2.000000e+02
0.000000e+00
1.250000e+01
2.500000e+01
3.750000e+01
5.000000e+01
6.250000e+01
7.500000e+01
8.750000e+01
1.000000e+02
1.125000e+02
1.250000e+02
1.375000e+02
1.500000e+02
1.625000e+02
1.750000e+02
1.875000e+02
2.000000e+02
0.000000e+00
1.250000e+01
2.500000e+01
3.750000e+01
5.000000e+01
6.250000e+01
7.500000e+01
8.750000e+01
1.000000e+02
1.125000e+02
1.250000e+02
1.375000e+02
1.500000e+02
1.625000e+02
1.750000e+02
1.875000e+02
2.000000e+02
0.000000e+00
0.000000e+00
0.000000e+00
0.000000e+00
0.000000e+00
0.000000e+00
0.000000e+00
0.000000e+00
0.000000e+00
0.000000e+00
0.000000e+00
0.000000e+00
0.000000e+00
0.000000e+00
0.000000e+00
0.000000e+00
0.000000e+00
1.250000e+01
1.250000e+01
1.250000e+01
1.250000e+01
1.250000e+01
1.250000e+01
1.250000e+01
1.250000e+01
1.250000e+01
1.250000e+01
1.250000e+01
1.250000e+01
1.250000e+01
1.250000e+01
1.250000e+01
1.250000e+01
1.250000e+01
2.500000e+01
2.500000e+01
2.500000e+01
2.500000e+01
2.500000e+01
2.500000e+01
2.500000e+01
2.500000e+01
2.500000e+01
2.500000e+01
2.500000e+01
2.500000e+01
2.500000e+01
2.500000e+01
2.500000e+01
2.500000e+01
2.500000e+01
3.750000e+01
3.750000e+01
3.750000e+01
3.750000e+01
3.750000e+01
3.750000e+01
3.750000e+01
3.750000e+01
3.750000e+01
3.750000e+01
3.750000e+01
3.750000e+01
3.750000e+01
3.750000e+01
3.750000e+01
3.750000e+01
3.750000e+01
5.000000e+01
5.000000e+01
5.000000e+01
5.000000e+01
5.000000e+01
5.000000e+01
5.000000e+01
5.000000e+01
5.000000e+01
5.000000e+01
5.000000e+01
5.000000e+01
5.000000e+01
5.000000e+01
5.000000e+01
5.000000e+01
5.000000e+01
6.250000e+01
6.250000e+01
6.250000e+01
6.250000e+01
6.250000e+01
6.250000e+01
6.250000e+01
6.250000e+01
6.250000e+01
6.250000e+01
6.250000e+01
6.250000e+01
6.250000e+01
6.250000e+01
6.250000e+01
6.250000e+01
6.250000e+01
7.500000e+01
7.500000e+01
7.500000e+01
7.500000e+01
7.500000e+01
7.500000e+01
7.500000e+01
7.500000e+01
7.500000e+01
7.500000e+01
7.500000e+01
7.500000e+01
7.500000e+01
7.500000e+01
7.500000e+01
7.500000e+01
7.500000e+01
8.750000e+01
8.750000e+01
8.750000e+01
8.750000e+01
8.750000e+01
8.750000e+01
8.750000e+01
8.750000e+01
8.750000e+01
8.750000e+01
8.750000e+01
8.750000e+01
8.750000e+01
8.750000e+01
8.750000e+01
8.750000e+01
8.750000e+01
1.000000e+02
1.000000e+02
1.000000e+02
1.000000e+02
1.000000e+02
1.000000e+02
1.000000e+02
1.000000e+02
1.000000e+02
1.000000e+02
1.000000e+02
1.000000e+02
1.000000e+02
1.000000e+02
1.000000e+02
1.000000e+02
1.000000e+02
0.000000e+00
-9.744961e-01
-1.665183e+00
-2.403252e+00
-3.083626e+00
-3.736207e+00
-4.422155e+00
-5.075248e+00
-5.732006e+00
-6.385520e+00
-7.046135e+00
-7.698561e+00
-8.384064e+00
-9.168228e+00
-1.004444e+01
-1.078389e+01
-1.123571e+01
0.000000e+00
-4.447488e-01
-9.155879e-01
-1.422337e+00
-1.936129e+00
-2.421579e+00
-2.933539e+00
-3.434536e+00
-3.927408e+00
-4.429066e+00
-4.928463e+00
-5.419435e+00
-5.913563e+00
-6.433022e+00
-6.864149e+00
-6.977578e+00
-7.154248e+00
0.000000e+00
-1.592073e-01
-3.741710e-01
-6.682907e-01
-1.008386e+00
-1.335063e+00
-1.688709e+00
-2.039062e+00
-2.384724e+00
-2.737184e+00
-3.077377e+00
-3.399889e+00
-3.687146e+00
-3.911797e+00
-4.002125e+00
-3.992744e+00
-4.142951e+00
0.000000e+00
-8.039248e-02
-1.675060e-01
-3.121384e-01
-4.572444e-01
-6.311799e-01
-8.072790e-01
-9.798698e-01
-1.156563e+00
-1.322105e+00
-1.479311e+00
-1.609639e+00
-1.688536e+00
-1.687664e+00
-1.616729e+00
-1.603283e+00
-1.726809e+00
0.000000e+00
-2.589761e-03
-5.561866e-03
-8.332550e-03
-1.066641e-02
-1.158518e-02
-9.769413e-03
-3.965893e-03
7.253623e-03
2.725172e-02
5.818523e-02
1.102629e-01
1.954766e-01
3.115515e-01
4.257357e-01
4.561978e-01
3.561987e-01
0.000000e+00
7.597040e-02
1.585684e-01
2.976829e-01
4.384273e-01
6.099333e-01
7.889409e-01
9.714535e-01
1.170487e+00
1.372589e+00
1.589575e+00
1.815316e+00
2.034379e+00
2.226694e+00
2.357777e+00
2.388549e+00
2.324171e+00
0.000000e+00
1.575146e-01
3.705732e-01
6.619609e-01
9.982339e-01
1.323337e+00
1.676973e+00
2.032995e+00
2.398160e+00
2.779747e+00
3.153669e+00
3.525248e+00
3.861317e+00
4.124484e+00
4.291544e+00
4.346591e+00
4.326816e+00
0.000000e+00
4.448752e-01
9.163037e-01
1.422928e+00
1.934734e+00
2.420241e+00
2.929783e+00
3.423683e+00
3.914157e+00
4.405176e+00
4.880796e+00
5.355390e+00
5.793490e+00
6.130429e+00
6.340716e+00
6.432557e+00
6.448992e+00
0.000000e+00
9.754404e-01
1.668990e+00
2.409973e+00
3.092447e+00
3.748817e+00
4.436027e+00
5.076162e+00
5.716147e+00
6.329489e+00
6.919502e+00
7.513444e+00
8.049452e+00
8.435984e+00
8.635228e+00
8.689160e+00
8.689917e+00
0.000000e+00
-6.070725e-01
-1.330593e+00
-2.300385e+00
-3.442343e+00
-4.754874e+00
-6.250040e+00
-7.906509e+00
-9.733153e+00
-1.172903e+01
-1.388835e+01
-1.620989e+01
-1.871328e+01
-2.143130e+01
-2.438036e+01
-2.774467e+01
-3.275548e+01
0.000000e+00
-4.037845e-01
-1.162139e+00
-2.116066e+00
-3.271559e+00
-4.579458e+00
-6.073510e+00
-7.735409e+00
-9.560189e+00
-1.155756e+01
-1.371823e+01
-1.604197e+01
-1.853460e+01
-2.124604e+01
-2.424710e+01
-2.765657e+01
-3.171946e+01
0.000000e+00
-3.734642e-01
-1.060780e+00
-2.010149e+00
-3.150626e+00
-4.455721e+00
-5.949434e+00
-7.610062e+00
-9.438767e+00
-1.143836e+01
-1.360879e+01
-1.594360e+01
-1.844939e+01
-2.118605e+01
-2.423987e+01
-2.749868e+01
-3.052584e+01
0.000000e+00
-4.247662e-01
-1.052857e+00
-1.979600e+00
-3.084559e+00
-4.388754e+00
-5.880347e+00
-7.538562e+00
-9.377217e+00
-1.138298e+01
-1.356951e+01
-1.592831e+01
-1.845873e+01
-2.119314e+01
-2.417850e+01
-2.718519e+01
-2.978358e+01
0.000000e+00
-4.336423e-01
-1.070538e+00
-1.964697e+00
-3.072357e+00
-4.371602e+00
-5.863957e+00
-7.529495e+00
-9.373056e+00
-1.139226e+01
-1.358849e+01
-1.596584e+01
-1.850256e+01
-2.119589e+01
-2.403195e+01
-2.682390e+01
-2.918277e+01
0.000000e+00
-4.236738e-01
-1.052881e+00
-1.982089e+00
-3.091307e+00
-4.402120e+00
-5.904963e+00
-7.573442e+00
-9.429858e+00
-1.145407e+01
-1.364957e+01
-1.602135e+01
-1.854501e+01
-2.118741e+01
-2.389366e+01
-2.650941e+01
-2.875595e+01
0.000000e+00
-3.721004e-01
-1.060955e+00
-2.014535e+00
-3.161684e+00
-4.479387e+00
-5.992174e+00
-7.673732e+00
-9.531463e+00
-1.155838e+01
-1.373932e+01
-1.609205e+01
-1.859538e+01
-2.119269e+01
-2.380659e+01
-2.630625e+01
-2.853824e+01
0.000000e+00
-4.025819e-01
-1.162305e+00
-2.120507e+00
-3.283778e+00
-4.605779e+00
-6.121511e+00
-7.809745e+00
-9.665906e+00
-1.169067e+01
-1.386058e+01
-1.619554e+01
-1.867751e+01
-2.123671e+01
-2.378532e+01
-2.621812e+01
-2.848112e+01
0.000000e+00
-6.063787e-01
-1.331345e+00
-2.305030e+00
-3.455227e+00
-4.782072e+00
-6.297502e+00
-7.979691e+00
-9.835936e+00
-1.185220e+01
-1.401837e+01
-1.634574e+01
-1.880069e+01
-2.131532e+01
-2.380984e+01
-2.620251e+01
-2.848018e+01


0.000000e+00
1.510234e-05
2.495066e-05
3.706363e-05
5.253928e-05
6.584340e-05
8.046790e-05
9.532125e-05
1.091801e-04
1.244354e-04
1.392374e-04
1.534678e-04
1.709853e-04
1.843850e-04
1.913540e-04
1.961025e-04
2.025309e-04
0.000000e+00
1.121838e-05
1.979806e-05
2.854137e-05
4.128365e-05
5.187200e-05
6.226191e-05
7.352923e-05
8.370392e-05
9.467778e-05
1.046880e-04
1.142239e-04
1.255429e-04
1.326979e-04
1.323726e-04
1.358403e-04
1.415517e-04
0.000000e+00
9.372697e-06
1.529062e-05
2.098305e-05
3.028133e-05
3.724524e-05
4.375896e-05
5.118831e-05
5.728267e-05
6.368372e-05
6.906229e-05
7.340901e-05
7.769918e-05
7.860783e-05
7.737310e-05
7.975419e-05
8.412754e-05
0.000000e+00
5.114101e-06
7.259011e-06
1.078528e-05
1.512664e-05
1.768452e-05
2.129549e-05
2.437966e-05
2.651132e-05
2.883410e-05
3.012102e-05
2.985164e-05
2.852186e-05
2.674988e-05
2.684322e-05
2.998572e-05
3.546850e-05
0.000000e+00
-7.864749e-08
-2.012384e-07
-3.690084e-07
-5.993104e-07
-8.960745e-07
-1.265725e-06
-1.793389e-06
-2.538659e-06
-3.925614e-06
-6.247625e-06
-9.733733e-06
-1.269994e-05
-1.423645e-05
-1.375530e-05
-1.140358e-05
-7.709439e-06
0.000000e+00
-5.226853e-06
-7.551607e-06
-1.137547e-05
-1.609405e-05
-1.915032e-05
-2.339734e-05
-2.702830e-05
-3.024580e-05
-3.320410e-05
-3.649742e-05
-4.090025e-05
-4.478455e-05
-4.612041e-05
-4.678449e-05
-4.728156e-05
-4.596375e-05
0.000000e+00
-9.354921e-06
-1.531947e-05
-2.115907e-05
-3.069763e-05
-3.801075e-05
-4.475096e-05
-5.262723e-05
-5.854843e-05
-6.371501e-05
-6.851546e-05
-7.293700e-05
-7.680836e-05
-7.963548e-05
-8.146798e-05
-8.319327e-05
-8.386103e-05
0.000000e+00
-1.116478e-05
-1.972073e-05
-2.845236e-05
-4.122019e-05
-5.189725e-05
-6.219089e-05
-7.371646e-05
-8.386249e-05
-9.415682e-05
-1.042599e-04
-1.119571e-04
-1.172977e-04
-1.216853e-04
-1.245179e-04
-1.255099e-04
-1.256278e-04
0.000000e+00
-1.513405e-05
-2.493221e-05
-3.690687e-05
-5.218706e-05
-6.525361e-05
-7.949953e-05
-9.391771e-05
-1.079626e-04
-1.232960e-04
-1.402704e-04
-1.545539e-04
-1.638653e-04
-1.685599e-04
-1.704201e-04
-1.704623e-04
-1.702537e-04
0.000000e+00
1.249337e-05
1.997906e-05
3.209967e-05
4.762629e-05
6.434677e-05
8.609361e-05
1.117146e-04
1.408995e-04
1.752256e-04
2.133180e-04
2.567914e-04
3.068556e-04
3.590899e-04
4.191529e-04
4.882288e-04
5.591124e-04
0.000000e+00
7.512679e-06
1.597473e-05
2.603157e-05
4.120925e-05
5.850976e-05
7.975097e-05
1.056009e-04
1.348146e-04
1.689323e-04
2.075041e-04
2.505678e-04
3.005269e-04
3.555555e-04
4.148765e-04
4.811782e-04
5.490277e-04
0.000000e+00
4.082079e-06
1.199543e-05
2.120853e-05
3.562310e-05
5.355474e-05
7.498192e-05
1.007302e-04
1.302553e-04
1.645675e-04
2.032923e-04
2.467483e-04
2.970839e-04
3.539961e-04
4.113491e-04
4.737883e-04
5.390587e-04
0.000000e+00
2.806345e-06
9.902069e-06
1.915792e-05
3.335848e-05
5.148391e-05
7.308439e-05
9.903615e-05
1.287615e-04
1.628680e-04
2.017863e-04
2.458693e-04
2.966848e-04
3.528216e-04
4.089022e-04
4.660741e-04
5.249039e-04
0.000000e+00
2.361962e-06
9.335181e-06
1.870735e-05
3.282366e-05
5.093150e-05
7.255428e-05
9.857248e-05
1.284855e-04
1.623005e-04
2.008579e-04
2.464451e-04
2.972795e-04
3.530140e-04
4.078550e-04
4.598853e-04
5.099640e-04
0.000000e+00
2.908065e-06
1.004755e-05
1.933854e-05
3.351103e-05
5.156365e-05
7.302440e-05
9.879211e-05
1.286173e-04
1.621904e-04
2.012381e-04
2.483110e-04
2.997459e-04
3.533689e-04
4.078904e-04
4.576896e-04
5.003877e-04
0.000000e+00
4.218130e-06
1.222915e-05
2.151773e-05
3.587965e-05
5.370218e-05
7.475251e-05
1.001806e-04
1.293733e-04
1.631784e-04
2.033336e-04
2.515266e-04
3.032046e-04
3.550528e-04
4.069761e-04
4.555487e-04
4.976861e-04
0.000000e+00
7.633651e-06
1.623760e-05
2.640202e-05
4.156915e-05
5.869650e-05
7.961852e-05
1.049296e-04
1.334173e-04
1.672204e-04
2.077496e-04
2.550883e-04
3.061699e-04
3.568014e-04
4.067472e-04
4.540046e-04
4.981752e-04
0.000000e+00
1.260919e-05
2.023652e-05
3.247558e-05
4.801510e-05
6.454840e-05
8.600863e-05
1.111365e-04
1.395104e-04
1.736785e-04
2.140808e-04
2.591461e-04
3.083761e-04
3.578582e-04
4.068707e-04
4.535886e-04
4.984491e-04


4.696516e+00
4.904127e+00
5.260694e+00
4.598892e+00
4.105219e+00
4.214034e+00
4.322982e+00
4.537035e+00
4.827806e+00
5.230614e+00
5.697324e+00
6.720257e+00
8.182498e+00
8.934849e+00
8.149966e+00
6.976326e+00
7.118533e+00
7.261985e+00
7.316404e+00
7.040211e+00
6.685987e+00
6.770396e+00
6.847638e+00
6.912050e+00
7.102586e+00
7.272964e+00
7.502398e+00
8.009164e+00
8.725117e+00
8.863294e+00
7.473397e+00
5.676726e+00
9.099649e+00
9.076716e+00
9.134599e+00
8.960450e+00
8.910860e+00
8.934592e+00
8.925730e+00
8.950595e+00
8.960714e+00
8.996855e+00
8.977554e+00
8.981753e+00
8.989131e+00
8.543337e+00
7.054953e+00
5.438457e+00
9.546535e+00
9.539169e+00
9.535147e+00
9.504476e+00
9.493078e+00
9.490193e+00
9.478254e+00
9.463294e+00
9.427514e+00
9.340115e+00
9.113265e+00
8.600162e+00
8.117709e+00
7.749868e+00
7.213391e+00
6.765127e+00
9.545601e+00
9.536994e+00
9.531343e+00
9.496440e+00
9.480851e+00
9.473694e+00
9.451945e+00
9.423114e+00
9.335088e+00
9.072509e+00
8.495542e+00
7.659745e+00
7.077261e+00
7.241297e+00
7.821811e+00
8.144727e+00
9.093646e+00
9.067330e+00
9.112047e+00
8.914333e+00
8.840438e+00
8.837494e+00
8.789515e+00
8.747350e+00
8.484418e+00
8.026205e+00
7.600903e+00
7.219788e+00
7.305963e+00
7.930642e+00
8.684364e+00
9.127291e+00
7.106479e+00
7.245830e+00
7.282713e+00
6.968004e+00
6.584545e+00
6.627532e+00
6.653938e+00
6.612856e+00
6.463856e+00
6.388136e+00
6.839222e+00
7.654606e+00
8.340001e+00
8.952250e+00
9.337968e+00
9.489485e+00
4.681302e+00
4.893586e+00
5.240267e+00
4.552289e+00
4.046790e+00
4.139976e+00
4.220234e+00
4.418399e+00
4.570570e+00
5.202688e+00
6.690257e+00
8.144092e+00
9.020418e+00
9.381022e+00
9.525857e+00
9.582165e+00


-7.643520e-01
-2.019169e-01
-3.547839e-01
-2.518468e-01
-1.399837e-01
-2.600408e-01
-1.746876e-01
-1.673640e-01
-1.823414e-01
-1.927434e-01
-1.605661e-01
-2.323960e-01
-4.868086e-01
-4.569311e-01
3.591200e-01
-8.403492e-01
6.047576e-01
4.571966e-01
3.076592e-01
2.278958e-01
2.865497e-01
1.845411e-01
1.906145e-01
1.911919e-01
1.447065e-01
1.528315e-01
1.937292e-01
2.623142e-01
3.451610e-01
5.999500e-01
7.094902e-01
-1.018199e+00
7.486006e-01
5.110150e-01
1.739818e-01
1.097925e-01
7.571662e-02
2.041035e-03
3.049927e-02
3.035385e-02
5.540711e-02
9.427131e-02
1.713007e-01
2.873294e-01
3.553099e-01
2.072133e-01
2.278160e-02
-2.150210e-01
7.585613e-01
5.860443e-01
2.719455e-01
1.552111e-01
6.088934e-02
2.542711e-02
4.765047e-02
5.754698e-02
9.873538e-02
1.205827e-01
1.463984e-01
1.668353e-01
6.524543e-02
-2.732432e-01
-3.314079e-01
-4.251075e-02
7.609076e-01
5.889407e-01
2.766237e-01
1.575164e-01
5.858797e-02
1.113080e-02
2.571882e-02
1.488120e-02
3.965741e-02
5.258943e-02
4.370869e-02
2.955785e-02
-4.591621e-02
-1.829089e-01
-9.745600e-02
3.427705e-01
7.538844e-01
5.185242e-01
1.867477e-01
1.216086e-01
7.531353e-02
-2.126935e-02
-1.676036e-02
-7.016850e-02
-7.990352e-02
-7.154647e-02
-1.201532e-01
-1.189041e-01
-5.932447e-02
6.109176e-02
3.422127e-01
7.473349e-01
6.079853e-01
4.601929e-01
3.126626e-01
2.362013e-01
2.838239e-01
1.738827e-01
1.633453e-01
1.056820e-01
1.471678e-02
-1.354846e-02
-1.090031e-01
-8.828927e-02
1.223747e-01
4.081470e-01
7.245075e-01
9.507035e-01
-7.659350e-01
-2.088022e-01
-3.606381e-01
-2.524215e-01
-1.483276e-01
-2.594699e-01
-1.401200e-01
-1.393083e-01
-1.008170e-01
-4.286399e-02
-7.339000e-02
7.444503e-02
4.466211e-01
7.807811e-01
9.533266e-01
9.987745e-01
1 2 19 18
2 3 20 19
3 4 21 20
4 5 22 21
5 6 23 22
6 7 24 23
7 8 25 24
8 9 26 25
9 10 27 26
10 11 28 27
11 12 29 28
12 13 30 29
13 14 31 30
14 15 32 31
15 16 33 32
16 17 34 33
18 19 36 35
19 20 37 36
20 21 38 37
21 22 39 38
22 23 40 39
23 24 41 40
24 25 42 41
25 26 43 42
26 27 44 43
27 28 45 44
28 29 46 45
29 30 47 46
30 31 48 47
31 32 49 48
32 33 50 49
33 34 51 50
35 36 53 52
36 37 54 53
37 38 55 54
38 39 56 55
39 40 57 56
40 41 58 57
41 42 59 58
42 43 60 59
43 44 61 60
44 45 62 61
45 46 63 62
46 47 64 63
47 48 65 64
48 49 66 65
49 50 67 66
50 51 68 67
52 53 70 69
53 54 71 70
54 55 72 71
55 56 73 72
56 57 74 73
57 58 75 74
58 59 76 75
59 60 77 76
60 61 78 77
61 62 79 78
62 63 80 79
63 64 81 80
64 65 82 81
65 66 83 82
66 67 84 83
67 68 85 84
69 70 87 86
70 71 88 87
71 72 89 88
72 73 90 89
73 74 91 90
74 75 92 91
75 76 93 92
76 77 94 93
77 78 95 94
78 79 96 95
79 80 97 96
80 81 98 97
81 82 99 98
82 83 100 99
83 84 101 100
84 85 102 101
86 87 104 103
87 88 105 104
88 89 106 105
89 90 107 106
90 91 108 107
91 92 109 108
92 93 110 109
93 94 111 110
94 95 112 111
95 96 113 112
96 97 114 113
97 98 115 114
98 99 116 115
99 100 117 116
100 101 118 117
101 102 119 118
103 104 121 120
104 105 122 121
105 106 123 122
106 107 124 123
107 108 125 124
108 109 126 125
109 110 127 126
110 111 128 127
111 112 129 128
112 113 130 129
113 114 131 130
114 115 132 131
115 116 133 132
116 117 134 133
117 118 135 134
118 119 136 135
120 121 138 137
121 122 139 138
122 123 140 139
123 124 141 140
124 125 142 141
125 126 143 142
126 127 144 143
127 128 145 144
128 129 146 145
129 130 147 146
130 131 148 147
131 132 149 148
132 133 150 149
133 134 151 150
134 135 152 151
135 136 153 152
