TITLE = "Solution"
VARIABLES = x, y, u, v, psiu, psiv, t, stress
ZONE T="structure" N=153 E=128 F=FEBLOCK ET=QUADRILATERAL VARLOCATION=([7,8]=cellcentered)
0.000000e+00
1.250000e+01
2.500000e+01
3.750000e+01
5.000000e+01
6.250000e+01
7.500000e+01
8.750000e+01
1.000000e+02
1.125000e+02
1.250000e+02
1.375000e+02
1.500000e+02
1.625000e+02
1.750000e+02
1.875000e+02
2.000000e+02
0.000000e+00
1.250000e+01
2.500000e+01
3.750000e+01
5.000000e+01
6.250000e+01
7.500000e+01
8.750000e+01
1.000000e+02
1.125000e+02
1.250000e+02
1.375000e+02
1.500000e+02
1.625000e+02
1.750000e+02
1.875000e+02
2.000000e+02
0.000000e+00
1.250000e+01
2.500000e+01
3.750000e+01
5.000000e+01
6.250000e+01
7.500000e+01
8.750000e+01
1.000000e+02
1.125000e+02
1.250000e+02
1.375000e+02
1.500000e+02
1.625000e+02
1.750000e+02
1.875000e+02
2.000000e+02
0.000000e+00
1.250000e+01
2.500000e+01
3.750000e+01
5.000000e+01
6.250000e+01
7.500000e+01
8.750000e+01
1.000000e+02
1.125000e+02
1.250000e+02
1.375000e+02
1.500000e+02
1.625000e+02
1.750000e+02
1.875000e+02
2.000000e+02
0.000000e+00
1.250000e+01
2.500000e+01
3.750000e+01
5.000000e+01
6.250000e+01
7.500000e+01
8.750000e+01
1.000000e+02
1.125000e+02
1.250000e+02
1.375000e+02
1.500000e+02
1.625000e+02
1.750000e+02
1.875000e+02
2.000000e+02
0.000000e+00
1.250000e+01
2.500000e+01
3.750000e+01
5.000000e+01
6.250000e+01
7.500000e+01
8.750000e+01
1.000000e+02
1.125000e+02
1.250000e+02
1.375000e+02
1.500000e+02
1.625000e+02
1.750000e+02
1.875000e+02
2.000000e+02
0.000000e+00
1.250000e+01
2.500000e+01
3.750000e+01
5.000000e+01
6.250000e+01
7.500000e+01
8.750000e+01
1.000000e+02
1.125000e+02
1.250000e+02
1.375000e+02
1.500000e+02
1.625000e+02
1.750000e+02
1.875000e+02
2.000000e+02
0.000000e+00
1.250000e+01
2.500000e+01
3.750000e+01
5.000000e+01
6.250000e+01
7.500000e+01
8.750000e+01
1.000000e+02
1.125000e+02
1.250000e+02
1.375000e+02
1.500000e+02
1.625000e+02
1.750000e+02
1.875000e+02
2.000000e+02
0.000000e+00
1.250000e+01
2.500000e+01
3.750000e+01
5.000000e+01
6.250000e+01
7.500000e+01
8.750000e+01
1.000000e+02
1.125000e+02
1.250000e+02
1.375000e+02
1.500000e+02
1.625000e+02
1.750000e+02
1.875000e+02
2.000000e+02
0.000000e+00
0.000000e+00
0.000000e+00
0.000000e+00
0.000000e+00
0.000000e+00
0.000000e+00
0.000000e+00
0.000000e+00
0.000000e+00
0.000000e+00
0.000000e+00
0.000000e+00
0.000000e+00
0.000000e+00
0.000000e+00
0.000000e+00
1.250000e+01
1.250000e+01
1.250000e+01
1.250000e+01
1.250000e+01
1.250000e+01
1.250000e+01
1.250000e+01
1.250000e+01
1.250000e+01
1.250000e+01
1.250000e+01
1.250000e+01
1.250000e+01
1.250000e+01
1.250000e+01
1.250000e+01
2.500000e+01
2.500000e+01
2.500000e+01
2.500000e+01
2.500000e+01
2.500000e+01
2.500000e+01
2.500000e+01
2.500000e+01
2.500000e+01
2.500000e+01
2.500000e+01
2.500000e+01
2.500000e+01
2.500000e+01
2.500000e+01
2.500000e+01
3.750000e+01
3.750000e+01
3.750000e+01
3.750000e+01
3.750000e+01
3.750000e+01
3.750000e+01
3.750000e+01
3.750000e+01
3.750000e+01
3.750000e+01
3.750000e+01
3.750000e+01
3.750000e+01
3.750000e+01
3.750000e+01
3.750000e+01
5.000000e+01
5.000000e+01
5.000000e+01
5.000000e+01
5.000000e+01
5.000000e+01
5.000000e+01
5.000000e+01
5.000000e+01
5.000000e+01
5.000000e+01
5.000000e+01
5.000000e+01
5.000000e+01
5.000000e+01
5.000000e+01
5.000000e+01
6.250000e+01
6.250000e+01
6.250000e+01
6.250000e+01
6.250000e+01
6.250000e+01
6.250000e+01
6.250000e+01
6.250000e+01
6.250000e+01
6.250000e+01
6.250000e+01
6.250000e+01
6.250000e+01
6.250000e+01
6.250000e+01
6.250000e+01
7.500000e+01
7.500000e+01
7.500000e+01
7.500000e+01
7.500000e+01
7.500000e+01
7.500000e+01
7.500000e+01
7.500000e+01
7.500000e+01
7.500000e+01
7.500000e+01
7.500000e+01
7.500000e+01
7.500000e+01
7.500000e+01
7.500000e+01
8.750000e+01
8.750000e+01
8.750000e+01
8.750000e+01
8.750000e+01
8.750000e+01
8.750000e+01
8.750000e+01
8.750000e+01
8.750000e+01
8.750000e+01
8.750000e+01
8.750000e+01
8.750000e+01
8.750000e+01
8.750000e+01
8.750000e+01
1.000000e+02
1.000000e+02
1.000000e+02
1.000000e+02
1.000000e+02
1.000000e+02
1.000000e+02
1.000000e+02
1.000000e+02
1.000000e+02
1.000000e+02
1.000000e+02
1.000000e+02
1.000000e+02
1.000000e+02
1.000000e+02
1.000000e+02
0.000000e+00
-8.176172e-02
-1.505492e-01
-2.138430e-01
-2.727876e-01
-3.272587e-01
-3.771393e-01
-4.223905e-01
-4.630781e-01
-4.993896e-01
-5.316847e-01
-5.605947e-01
-5.872053e-01
-6.133924e-01
-6.423913e-01
-6.780055e-01
-7.047301e-01
0.000000e+00
-4.882645e-02
-1.014275e-01
-1.500016e-01
-1.947535e-01
-2.358536e-01
-2.733867e-01
-3.074033e-01
-3.379644e-01
-3.651643e-01
-3.891409e-01
-4.100670e-01
-4.280762e-01
-4.429829e-01
-4.534975e-01
-4.558021e-01
-4.640647e-01
0.000000e+00
-3.053456e-02
-6.278678e-02
-9.496339e-02
-1.249995e-01
-1.525771e-01
-1.776737e-01
-2.003176e-01
-2.205145e-01
-2.382305e-01
-2.533703e-01
-2.657224e-01
-2.748464e-01
-2.799396e-01
-2.800810e-01
-2.780464e-01
-2.864736e-01
0.000000e+00
-1.473783e-02
-3.033987e-02
-4.604056e-02
-6.105338e-02
-7.488124e-02
-8.741492e-02
-9.861789e-02
-1.084260e-01
-1.167116e-01
-1.232629e-01
-1.277707e-01
-1.298659e-01
-1.293764e-01
-1.273653e-01
-1.279152e-01
-1.341902e-01
0.000000e+00
-1.357754e-05
-3.086603e-05
-4.809792e-05
-5.724374e-05
-4.039810e-05
3.797906e-05
2.416602e-04
6.752726e-04
1.494665e-03
2.903164e-03
5.105029e-03
8.155454e-03
1.160259e-02
1.398377e-02
1.333070e-02
9.176155e-03
0.000000e+00
1.471694e-02
3.029137e-02
4.596298e-02
6.095689e-02
7.480275e-02
8.744536e-02
9.894651e-02
1.094059e-01
1.189449e-01
1.276880e-01
1.357000e-01
1.428418e-01
1.485686e-01
1.519374e-01
1.522046e-01
1.500960e-01
0.000000e+00
3.053113e-02
6.277634e-02
9.494260e-02
1.249670e-01
1.525367e-01
1.776402e-01
2.003285e-01
2.206487e-01
2.386368e-01
2.543084e-01
2.676252e-01
2.784341e-01
2.864255e-01
2.912222e-01
2.927796e-01
2.922879e-01
0.000000e+00
4.884648e-02
1.014711e-01
1.500710e-01
1.948467e-01
2.359533e-01
2.734427e-01
3.073010e-01
3.374766e-01
3.638823e-01
3.863927e-01
4.048522e-01
4.191131e-01
4.291282e-01
4.351024e-01
4.376500e-01
4.381180e-01
0.000000e+00
8.179522e-02
1.506376e-01
2.140085e-01
2.730520e-01
3.276306e-01
3.775829e-01
4.227635e-01
4.630213e-01
4.981471e-01
5.278360e-01
5.516924e-01
5.693242e-01
5.805929e-01
5.860426e-01
5.873877e-01
5.873618e-01
0.000000e+00
-4.949270e-02
-9.716024e-02
-1.589264e-01
-2.347316e-01
-3.244342e-01
-4.270517e-01
-5.414359e-01
-6.663704e-01
-8.006552e-01
-9.431815e-01
-1.093067e+00
-1.249951e+00
-1.414669e+00
-1.591497e+00
-1.793821e+00
-2.084526e+00
0.000000e+00
-3.046865e-02
-8.019368e-02
-1.427256e-01
-2.197697e-01
-3.106963e-01
-4.145569e-01
-5.301751e-01
-6.563205e-01
-7.917713e-01
-9.353881e-01
-1.086248e+00
-1.243934e+00
-1.409262e+00
-1.586020e+00
-1.787117e+00
-2.033482e+00
0.000000e+00
-2.299138e-02
-6.843164e-02
-1.311943e-01
-2.089667e-01
-3.008291e-01
-4.056444e-01
-5.222246e-01
-6.493477e-01
-7.858094e-01
-9.304924e-01
-1.082505e+00
-1.241471e+00
-1.408070e+00
-1.584980e+00
-1.775526e+00
-1.959933e+00
0.000000e+00
-1.981245e-02
-6.258366e-02
-1.244258e-01
-2.024792e-01
-2.949071e-01
-4.003758e-01
-5.176523e-01
-6.455377e-01
-7.828602e-01
-9.285265e-01
-1.081628e+00
-1.241608e+00
-1.408391e+00
-1.581763e+00
-1.756847e+00
-1.918140e+00
0.000000e+00
-1.889669e-02
-6.081379e-02
-1.222666e-01
-2.003412e-01
-2.929991e-01
-3.987710e-01
-5.164251e-01
-6.447852e-01
-7.826985e-01
-9.290477e-01
-1.082781e+00
-1.242903e+00
-1.408235e+00
-1.576300e+00
-1.741352e+00
-1.893406e+00
0.000000e+00
-1.980069e-02
-6.257529e-02
-1.244407e-01
-2.025524e-01
-2.950998e-01
-4.007881e-01
-5.184332e-01
-6.468839e-01
-7.849821e-01
-9.315377e-01
-1.085278e+00
-1.244715e+00
-1.407820e+00
-1.571460e+00
-1.730852e+00
-1.879660e+00
0.000000e+00
-2.297219e-02
-6.841777e-02
-1.312192e-01
-2.090900e-01
-3.011552e-01
-4.063434e-01
-5.235504e-01
-6.516367e-01
-7.894240e-01
-9.356422e-01
-1.088823e+00
-1.247120e+00
-1.408087e+00
-1.568555e+00
-1.724888e+00
-1.873597e+00
0.000000e+00
-3.045066e-02
-8.018161e-02
-1.427587e-01
-2.199177e-01
-3.110797e-01
-4.153706e-01
-5.317076e-01
-6.589499e-01
-7.958978e-01
-9.412292e-01
-1.093370e+00
-1.250318e+00
-1.409494e+00
-1.567827e+00
-1.722422e+00
-1.872174e+00
0.000000e+00
-4.948527e-02
-9.716129e-02
-1.589775e-01
-2.349032e-01
-3.248439e-01
-4.278843e-01
-5.429550e-01
-6.689030e-01
-8.045077e-01
-9.484150e-01
-1.099016e+00
-1.254296e+00
-1.411730e+00
-1.568446e+00
-1.721971e+00
-1.872196e+00


0.000000e+00
6.628344e-09
1.335313e-08
1.954685e-08
2.525627e-08
3.045118e-08
3.512623e-08
3.930160e-08
4.300751e-08
4.627995e-08
4.915905e-08
5.168523e-08
5.388808e-08
5.576629e-08
5.731095e-08
5.865426e-08
5.987308e-08
0.000000e+00
3.859845e-09
9.333549e-09
1.416782e-08
1.850334e-08
2.241083e-08
2.590730e-08
2.901319e-08
3.174964e-08
3.413530e-08
3.618413e-08
3.790251e-08
3.929127e-08
4.038627e-08
4.138855e-08
4.261497e-08
4.390716e-08
0.000000e+00
2.519188e-09
6.010691e-09
9.216707e-09
1.213222e-08
1.474631e-08
1.706703e-08
1.910877e-08
2.088314e-08
2.239652e-08
2.365057e-08
2.464750e-08
2.540953e-08
2.602303e-08
2.667878e-08
2.759324e-08
2.866951e-08
0.000000e+00
1.257115e-09
2.905555e-09
4.481625e-09
5.943724e-09
7.251071e-09
8.399766e-09
9.394631e-09
1.023822e-08
1.093003e-08
1.146965e-08
1.186509e-08
1.214805e-08
1.239150e-08
1.271157e-08
1.324577e-08
1.398699e-08
0.000000e+00
6.690784e-13
4.631521e-13
-1.917852e-12
-8.266698e-12
-2.142271e-11
-4.552253e-11
-8.604464e-11
-1.492809e-10
-2.406886e-10
-3.612975e-10
-5.017635e-10
-6.356726e-10
-7.164092e-10
-6.752932e-10
-4.235187e-10
5.706682e-11
0.000000e+00
-1.255812e-09
-2.904356e-09
-4.484062e-09
-5.956236e-09
-7.284805e-09
-8.472878e-09
-9.534696e-09
-1.048398e-08
-1.133060e-08
-1.207795e-08
-1.272003e-08
-1.323982e-08
-1.361040e-08
-1.379837e-08
-1.375898e-08
-1.349866e-08
0.000000e+00
-2.518301e-09
-6.009748e-09
-9.217144e-09
-1.213663e-08
-1.475942e-08
-1.709692e-08
-1.916833e-08
-2.099136e-08
-2.257912e-08
-2.393823e-08
-2.506722e-08
-2.595643e-08
-2.659202e-08
-2.696851e-08
-2.709394e-08
-2.701722e-08
0.000000e+00
-3.861120e-09
-9.336390e-09
-1.417082e-08
-1.850419e-08
-2.240547e-08
-2.588898e-08
-2.897138e-08
-3.166913e-08
-3.399583e-08
-3.596146e-08
-3.757189e-08
-3.882894e-08
-3.973378e-08
-4.030090e-08
-4.057923e-08
-4.064584e-08
0.000000e+00
-6.635337e-09
-1.336545e-08
-1.956200e-08
-2.526915e-08
-3.045133e-08
-3.509392e-08
-3.920294e-08
-4.278869e-08
-4.586168e-08
-4.843288e-08
-5.051575e-08
-5.212820e-08
-5.329438e-08
-5.404889e-08
-5.443601e-08
-5.455912e-08
0.000000e+00
6.004392e-09
1.155736e-08
1.772934e-08
2.509698e-08
3.373611e-08
4.357360e-08
5.449937e-08
6.639267e-08
7.914071e-08
9.264911e-08
1.068584e-07
1.217884e-07
1.376400e-07
1.548084e-07
1.730434e-07
1.911768e-07
0.000000e+00
3.563911e-09
8.965272e-09
1.523633e-08
2.280498e-08
3.166820e-08
4.173175e-08
5.287311e-08
6.496994e-08
7.790929e-08
9.159665e-08
1.059702e-07
1.210261e-07
1.368531e-07
1.536114e-07
1.713790e-07
1.892675e-07
0.000000e+00
2.191754e-09
6.895527e-09
1.320730e-08
2.093259e-08
2.998683e-08
4.024220e-08
5.156885e-08
6.384394e-08
7.695545e-08
9.080732e-08
1.053262e-07
1.204636e-07
1.361769e-07
1.524455e-07
1.695710e-07
1.868939e-07
0.000000e+00
1.564010e-09
5.827477e-09
1.204400e-08
1.984530e-08
2.901364e-08
3.938830e-08
5.083309e-08
6.322486e-08
7.645094e-08
9.040924e-08
1.050069e-07
1.201499e-07
1.357227e-07
1.516372e-07
1.681238e-07
1.846134e-07
0.000000e+00
1.387510e-09
5.509173e-09
1.167312e-08
1.949534e-08
2.870656e-08
3.912957e-08
5.062528e-08
6.306974e-08
7.634712e-08
9.034639e-08
1.049557e-07
1.200511e-07
1.354819e-07
1.511052e-07
1.670330e-07
1.827088e-07
0.000000e+00
1.565355e-09
5.832035e-09
1.205495e-08
1.986685e-08
2.905159e-08
3.944996e-08
5.092629e-08
6.335521e-08
7.661613e-08
9.058884e-08
1.051474e-07
1.201506e-07
1.354286e-07
1.508035e-07
1.662719e-07
1.813587e-07
0.000000e+00
2.193918e-09
6.903486e-09
1.322658e-08
2.097056e-08
3.005375e-08
4.035102e-08
5.173345e-08
6.407432e-08
7.724778e-08
9.112549e-08
1.055715e-07
1.204348e-07
1.355385e-07
1.506918e-07
1.658196e-07
1.805453e-07
0.000000e+00
3.566700e-09
8.975570e-09
1.526040e-08
2.285177e-08
3.175002e-08
4.186396e-08
5.307181e-08
6.524592e-08
7.825575e-08
9.196618e-08
1.062336e-07
1.209011e-07
1.357942e-07
1.507351e-07
1.656171e-07
1.801613e-07
0.000000e+00
6.008989e-09
1.156965e-08
1.775571e-08
2.514619e-08
3.381986e-08
4.370585e-08
5.469347e-08
6.665471e-08
7.945621e-08
9.295883e-08
1.070146e-07
1.214642e-07
1.361387e-07
1.508794e-07
1.655845e-07
1.800507e-07


2.388979e-01
2.388980e-01
2.388997e-01
2.389023e-01
2.389045e-01
2.389064e-01
2.389081e-01
2.389096e-01
2.389109e-01
2.389120e-01
2.389129e-01
2.389136e-01
2.389141e-01
2.389142e-01
2.389139e-01
2.389136e-01
2.389015e-01
2.389015e-01
2.389027e-01
2.389046e-01
2.389064e-01
2.389079e-01
2.389092e-01
2.389104e-01
2.389115e-01
2.389124e-01
2.389131e-01
2.389137e-01
2.389141e-01
2.389141e-01
2.389138e-01
2.389135e-01
2.389074e-01
2.389072e-01
2.389076e-01
2.389086e-01
2.389095e-01
2.389104e-01
2.389112e-01
2.389119e-01
2.389125e-01
2.389131e-01
2.389135e-01
2.389139e-01
2.389141e-01
2.389141e-01
2.389138e-01
2.389137e-01
2.389115e-01
2.389112e-01
2.389111e-01
2.389114e-01
2.389117e-01
2.389121e-01
2.389125e-01
2.389128e-01
2.389132e-01
2.389134e-01
2.389137e-01
2.389139e-01
2.389140e-01
2.389141e-01
2.389140e-01
2.389140e-01
2.389115e-01
2.389112e-01
2.389111e-01
2.389114e-01
2.389117e-01
2.389121e-01
2.389125e-01
2.389128e-01
2.389131e-01
2.389133e-01
2.389136e-01
2.389138e-01
2.389140e-01
2.389141e-01
2.389143e-01
2.389145e-01
2.389074e-01
2.389072e-01
2.389076e-01
2.389086e-01
2.389095e-01
2.389103e-01
2.389111e-01
2.389118e-01
2.389124e-01
2.389129e-01
2.389133e-01
2.389137e-01
2.389140e-01
2.389143e-01
2.389146e-01
2.389148e-01
2.389015e-01
2.389015e-01
2.389027e-01
2.389046e-01
2.389063e-01
2.389079e-01
2.389092e-01
2.389104e-01
2.389114e-01
2.389123e-01
2.389131e-01
2.389137e-01
2.389142e-01
2.389146e-01
2.389149e-01
2.389151e-01
2.388979e-01
2.388980e-01
2.388997e-01
2.389023e-01
2.389045e-01
2.389064e-01
2.389081e-01
2.389097e-01
2.389110e-01
2.389121e-01
2.389130e-01
2.389138e-01
2.389143e-01
2.389148e-01
2.389150e-01
2.389152e-01


9.849600e-01
9.870927e-01
9.890656e-01
9.905843e-01
9.919940e-01
9.932939e-01
9.944782e-01
9.955330e-01
9.964473e-01
9.972120e-01
9.978201e-01
9.982655e-01
9.985424e-01
9.986412e-01
9.987125e-01
9.943166e-01
9.943101e-01
9.933327e-01
9.939615e-01
9.947821e-01
9.955472e-01
9.962426e-01
9.968721e-01
9.974424e-01
9.979587e-01
9.984264e-01
9.988507e-01
9.992350e-01
9.995702e-01
9.997897e-01
9.992346e-01
9.917098e-01
9.980230e-01
9.974616e-01
9.973101e-01
9.975232e-01
9.978036e-01
9.980752e-01
9.983274e-01
9.985657e-01
9.987965e-01
9.990216e-01
9.992318e-01
9.993945e-01
9.994285e-01
9.991354e-01
9.980722e-01
9.961599e-01
9.995976e-01
9.991882e-01
9.989353e-01
9.988711e-01
9.988967e-01
9.989397e-01
9.989826e-01
9.990246e-01
9.990657e-01
9.991002e-01
9.991098e-01
9.990585e-01
9.988960e-01
9.986042e-01
9.983567e-01
9.982941e-01
9.995991e-01
9.991903e-01
9.989372e-01
9.988707e-01
9.988903e-01
9.989213e-01
9.989428e-01
9.989501e-01
9.989402e-01
9.989085e-01
9.988495e-01
9.987644e-01
9.986834e-01
9.986995e-01
9.989285e-01
9.993249e-01
9.980258e-01
9.974659e-01
9.973142e-01
9.975232e-01
9.977927e-01
9.980416e-01
9.982522e-01
9.984214e-01
9.985482e-01
9.986336e-01
9.986875e-01
9.987403e-01
9.988512e-01
9.990836e-01
9.994327e-01
9.997937e-01
9.943096e-01
9.933323e-01
9.939606e-01
9.947797e-01
9.955412e-01
9.962289e-01
9.968438e-01
9.973882e-01
9.978626e-01
9.982682e-01
9.986115e-01
9.989113e-01
9.992001e-01
9.995028e-01
9.997859e-01
9.999642e-01
9.849497e-01
9.870767e-01
9.890459e-01
9.905622e-01
9.919741e-01
9.932867e-01
9.945027e-01
9.956193e-01
9.966367e-01
9.975529e-01
9.983571e-01
9.990242e-01
9.995205e-01
9.998267e-01
9.999660e-01
9.999993e-01
1 2 19 18
2 3 20 19
3 4 21 20
4 5 22 21
5 6 23 22
6 7 24 23
7 8 25 24
8 9 26 25
9 10 27 26
10 11 28 27
11 12 29 28
12 13 30 29
13 14 31 30
14 15 32 31
15 16 33 32
16 17 34 33
18 19 36 35
19 20 37 36
20 21 38 37
21 22 39 38
22 23 40 39
23 24 41 40
24 25 42 41
25 26 43 42
26 27 44 43
27 28 45 44
28 29 46 45
29 30 47 46
30 31 48 47
31 32 49 48
32 33 50 49
33 34 51 50
35 36 53 52
36 37 54 53
37 38 55 54
38 39 56 55
39 40 57 56
40 41 58 57
41 42 59 58
42 43 60 59
43 44 61 60
44 45 62 61
45 46 63 62
46 47 64 63
47 48 65 64
48 49 66 65
49 50 67 66
50 51 68 67
52 53 70 69
53 54 71 70
54 55 72 71
55 56 73 72
56 57 74 73
57 58 75 74
58 59 76 75
59 60 77 76
60 61 78 77
61 62 79 78
62 63 80 79
63 64 81 80
64 65 82 81
65 66 83 82
66 67 84 83
67 68 85 84
69 70 87 86
70 71 88 87
71 72 89 88
72 73 90 89
73 74 91 90
74 75 92 91
75 76 93 92
76 77 94 93
77 78 95 94
78 79 96 95
79 80 97 96
80 81 98 97
81 82 99 98
82 83 100 99
83 84 101 100
84 85 102 101
86 87 104 103
87 88 105 104
88 89 106 105
89 90 107 106
90 91 108 107
91 92 109 108
92 93 110 109
93 94 111 110
94 95 112 111
95 96 113 112
96 97 114 113
97 98 115 114
98 99 116 115
99 100 117 116
100 101 118 117
101 102 119 118
103 104 121 120
104 105 122 121
105 106 123 122
106 107 124 123
107 108 125 124
108 109 126 125
109 110 127 126
110 111 128 127
111 112 129 128
112 113 130 129
113 114 131 130
114 115 132 131
115 116 133 132
116 117 134 133
117 118 135 134
118 119 136 135
120 121 138 137
121 122 139 138
122 123 140 139
123 124 141 140
124 125 142 141
125 126 143 142
126 127 144 143
127 128 145 144
128 129 146 145
129 130 147 146
130 131 148 147
131 132 149 148
132 133 150 149
133 134 151 150
134 135 152 151
135 136 153 152
