TITLE = "Solution"
VARIABLES = x, y, u, v, psiu, psiv, t, stress
ZONE T="structure" N=153 E=128 F=FEBLOCK ET=QUADRILATERAL VARLOCATION=([7,8]=cellcentered)
0.000000e+00
1.250000e+01
2.500000e+01
3.750000e+01
5.000000e+01
6.250000e+01
7.500000e+01
8.750000e+01
1.000000e+02
1.125000e+02
1.250000e+02
1.375000e+02
1.500000e+02
1.625000e+02
1.750000e+02
1.875000e+02
2.000000e+02
0.000000e+00
1.250000e+01
2.500000e+01
3.750000e+01
5.000000e+01
6.250000e+01
7.500000e+01
8.750000e+01
1.000000e+02
1.125000e+02
1.250000e+02
1.375000e+02
1.500000e+02
1.625000e+02
1.750000e+02
1.875000e+02
2.000000e+02
0.000000e+00
1.250000e+01
2.500000e+01
3.750000e+01
5.000000e+01
6.250000e+01
7.500000e+01
8.750000e+01
1.000000e+02
1.125000e+02
1.250000e+02
1.375000e+02
1.500000e+02
1.625000e+02
1.750000e+02
1.875000e+02
2.000000e+02
0.000000e+00
1.250000e+01
2.500000e+01
3.750000e+01
5.000000e+01
6.250000e+01
7.500000e+01
8.750000e+01
1.000000e+02
1.125000e+02
1.250000e+02
1.375000e+02
1.500000e+02
1.625000e+02
1.750000e+02
1.875000e+02
2.000000e+02
0.000000e+00
1.250000e+01
2.500000e+01
3.750000e+01
5.000000e+01
6.250000e+01
7.500000e+01
8.750000e+01
1.000000e+02
1.125000e+02
1.250000e+02
1.375000e+02
1.500000e+02
1.625000e+02
1.750000e+02
1.875000e+02
2.000000e+02
0.000000e+00
1.250000e+01
2.500000e+01
3.750000e+01
5.000000e+01
6.250000e+01
7.500000e+01
8.750000e+01
1.000000e+02
1.125000e+02
1.250000e+02
1.375000e+02
1.500000e+02
1.625000e+02
1.750000e+02
1.875000e+02
2.000000e+02
0.000000e+00
1.250000e+01
2.500000e+01
3.750000e+01
5.000000e+01
6.250000e+01
7.500000e+01
8.750000e+01
1.000000e+02
1.125000e+02
1.250000e+02
1.375000e+02
1.500000e+02
1.625000e+02
1.750000e+02
1.875000e+02
2.000000e+02
0.000000e+00
1.250000e+01
2.500000e+01
3.750000e+01
5.000000e+01
6.250000e+01
7.500000e+01
8.750000e+01
1.000000e+02
1.125000e+02
1.250000e+02
1.375000e+02
1.500000e+02
1.625000e+02
1.750000e+02
1.875000e+02
2.000000e+02
0.000000e+00
1.250000e+01
2.500000e+01
3.750000e+01
5.000000e+01
6.250000e+01
7.500000e+01
8.750000e+01
1.000000e+02
1.125000e+02
1.250000e+02
1.375000e+02
1.500000e+02
1.625000e+02
1.750000e+02
1.875000e+02
2.000000e+02
0.000000e+00
0.000000e+00
0.000000e+00
0.000000e+00
0.000000e+00
0.000000e+00
0.000000e+00
0.000000e+00
0.000000e+00
0.000000e+00
0.000000e+00
0.000000e+00
0.000000e+00
0.000000e+00
0.000000e+00
0.000000e+00
0.000000e+00
1.250000e+01
1.250000e+01
1.250000e+01
1.250000e+01
1.250000e+01
1.250000e+01
1.250000e+01
1.250000e+01
1.250000e+01
1.250000e+01
1.250000e+01
1.250000e+01
1.250000e+01
1.250000e+01
1.250000e+01
1.250000e+01
1.250000e+01
2.500000e+01
2.500000e+01
2.500000e+01
2.500000e+01
2.500000e+01
2.500000e+01
2.500000e+01
2.500000e+01
2.500000e+01
2.500000e+01
2.500000e+01
2.500000e+01
2.500000e+01
2.500000e+01
2.500000e+01
2.500000e+01
2.500000e+01
3.750000e+01
3.750000e+01
3.750000e+01
3.750000e+01
3.750000e+01
3.750000e+01
3.750000e+01
3.750000e+01
3.750000e+01
3.750000e+01
3.750000e+01
3.750000e+01
3.750000e+01
3.750000e+01
3.750000e+01
3.750000e+01
3.750000e+01
5.000000e+01
5.000000e+01
5.000000e+01
5.000000e+01
5.000000e+01
5.000000e+01
5.000000e+01
5.000000e+01
5.000000e+01
5.000000e+01
5.000000e+01
5.000000e+01
5.000000e+01
5.000000e+01
5.000000e+01
5.000000e+01
5.000000e+01
6.250000e+01
6.250000e+01
6.250000e+01
6.250000e+01
6.250000e+01
6.250000e+01
6.250000e+01
6.250000e+01
6.250000e+01
6.250000e+01
6.250000e+01
6.250000e+01
6.250000e+01
6.250000e+01
6.250000e+01
6.250000e+01
6.250000e+01
7.500000e+01
7.500000e+01
7.500000e+01
7.500000e+01
7.500000e+01
7.500000e+01
7.500000e+01
7.500000e+01
7.500000e+01
7.500000e+01
7.500000e+01
7.500000e+01
7.500000e+01
7.500000e+01
7.500000e+01
7.500000e+01
7.500000e+01
8.750000e+01
8.750000e+01
8.750000e+01
8.750000e+01
8.750000e+01
8.750000e+01
8.750000e+01
8.750000e+01
8.750000e+01
8.750000e+01
8.750000e+01
8.750000e+01
8.750000e+01
8.750000e+01
8.750000e+01
8.750000e+01
8.750000e+01
1.000000e+02
1.000000e+02
1.000000e+02
1.000000e+02
1.000000e+02
1.000000e+02
1.000000e+02
1.000000e+02
1.000000e+02
1.000000e+02
1.000000e+02
1.000000e+02
1.000000e+02
1.000000e+02
1.000000e+02
1.000000e+02
1.000000e+02
0.000000e+00
-6.452286e-01
-1.188199e+00
-1.693758e+00
-2.174613e+00
-2.626742e+00
-3.046490e+00
-3.431357e+00
-3.780169e+00
-4.093234e+00
-4.372751e+00
-4.623586e+00
-4.854763e+00
-5.082238e+00
-5.333619e+00
-5.641372e+00
-5.871858e+00
0.000000e+00
-3.824618e-01
-7.956458e-01
-1.182096e+00
-1.546132e+00
-1.886968e+00
-2.202682e+00
-2.491937e+00
-2.753903e+00
-2.988390e+00
-3.195897e+00
-3.377466e+00
-3.533968e+00
-3.663584e+00
-3.754914e+00
-3.774942e+00
-3.846330e+00
0.000000e+00
-2.376256e-01
-4.899329e-01
-7.455916e-01
-9.895215e-01
-1.217960e+00
-1.428896e+00
-1.621335e+00
-1.794380e+00
-1.947047e+00
-2.078030e+00
-2.185180e+00
-2.264478e+00
-2.308824e+00
-2.310163e+00
-2.292615e+00
-2.365483e+00
0.000000e+00
-1.141508e-01
-2.359279e-01
-3.606558e-01
-4.825441e-01
-5.969869e-01
-7.022657e-01
-7.974148e-01
-8.813936e-01
-9.527399e-01
-1.009368e+00
-1.048428e+00
-1.066609e+00
-1.062351e+00
-1.044870e+00
-1.049599e+00
-1.103951e+00
0.000000e+00
-6.762419e-05
-1.447770e-04
-2.617080e-04
-3.458549e-04
-2.572185e-04
3.579440e-04
2.064671e-03
5.784474e-03
1.287485e-02
2.510465e-02
4.425216e-02
7.080091e-02
1.008232e-01
1.215925e-01
1.159875e-01
7.993882e-02
0.000000e+00
1.138672e-01
2.354843e-01
3.601873e-01
4.819762e-01
5.964615e-01
7.025473e-01
8.001789e-01
8.897390e-01
9.719283e-01
1.047586e+00
1.117112e+00
1.179198e+00
1.229041e+00
1.258395e+00
1.260763e+00
1.242447e+00
0.000000e+00
2.372508e-01
4.894869e-01
7.453910e-01
9.893566e-01
1.217587e+00
1.428503e+00
1.621284e+00
1.795377e+00
1.950395e+00
2.085993e+00
2.201520e+00
2.295444e+00
2.364955e+00
2.406703e+00
2.420270e+00
2.416000e+00
0.000000e+00
3.824210e-01
7.957363e-01
1.182487e+00
1.546728e+00
1.887543e+00
2.202904e+00
2.490837e+00
2.749505e+00
2.977133e+00
3.171919e+00
3.332042e+00
3.455931e+00
3.543009e+00
3.594977e+00
3.617142e+00
3.621215e+00
0.000000e+00
6.455803e-01
1.188834e+00
1.694933e+00
2.176377e+00
2.629463e+00
3.049956e+00
3.434335e+00
3.779518e+00
4.082358e+00
4.339271e+00
4.546196e+00
4.699344e+00
4.797293e+00
4.844674e+00
4.856365e+00
4.856136e+00
0.000000e+00
-3.916061e-01
-7.735384e-01
-1.271209e+00
-1.884326e+00
-2.612270e+00
-3.448157e+00
-4.383555e+00
-5.409000e+00
-6.514794e+00
-7.691757e+00
-8.932480e+00
-1.023393e+01
-1.160334e+01
-1.307757e+01
-1.477209e+01
-1.722937e+01
0.000000e+00
-2.415598e-01
-6.392873e-01
-1.140724e+00
-1.761342e+00
-2.497521e+00
-3.342482e+00
-4.287414e+00
-5.322605e+00
-6.438053e+00
-7.624217e+00
-8.873264e+00
-1.018164e+01
-1.155638e+01
-1.303018e+01
-1.471426e+01
-1.678878e+01
0.000000e+00
-1.834068e-01
-5.465370e-01
-1.048306e+00
-1.673024e+00
-2.415440e+00
-3.267345e+00
-4.219703e+00
-5.262778e+00
-6.386628e+00
-7.581828e+00
-8.840765e+00
-1.016020e+01
-1.154601e+01
-1.302122e+01
-1.461420e+01
-1.615372e+01
0.000000e+00
-1.597316e-01
-5.009382e-01
-9.943788e-01
-1.620350e+00
-2.366495e+00
-3.223163e+00
-4.180942e+00
-5.230221e+00
-6.361284e+00
-7.564868e+00
-8.833174e+00
-1.016138e+01
-1.154880e+01
-1.299340e+01
-1.445266e+01
-1.579218e+01
0.000000e+00
-1.532140e-01
-4.872850e-01
-9.773022e-01
-1.603133e+00
-2.350836e+00
-3.209792e+00
-4.170618e+00
-5.223872e+00
-6.359974e+00
-7.569435e+00
-8.843194e+00
-1.017263e+01
-1.154744e+01
-1.294602e+01
-1.431834e+01
-1.557768e+01
0.000000e+00
-1.596378e-01
-5.008485e-01
-9.945896e-01
-1.621100e+00
-2.368167e+00
-3.226685e+00
-4.187651e+00
-5.241846e+00
-6.379659e+00
-7.590982e+00
-8.864849e+00
-1.018835e+01
-1.154382e+01
-1.290397e+01
-1.422715e+01
-1.545826e+01
0.000000e+00
-1.831975e-01
-5.464519e-01
-1.048711e+00
-1.674244e+00
-2.418240e+00
-3.273291e+00
-4.231073e+00
-5.282520e+00
-6.417904e+00
-7.626466e+00
-8.895571e+00
-1.020922e+01
-1.154613e+01
-1.287870e+01
-1.417529e+01
-1.540555e+01
0.000000e+00
-2.413381e-01
-6.393028e-01
-1.141259e+00
-1.762767e+00
-2.500783e+00
-3.349391e+00
-4.300539e+00
-5.345261e+00
-6.473732e+00
-7.674814e+00
-8.935013e+00
-1.023700e+01
-1.155835e+01
-1.287237e+01
-1.415384e+01
-1.539318e+01
0.000000e+00
-3.914803e-01
-7.736609e-01
-1.271878e+00
-1.885922e+00
-2.615769e+00
-3.455248e+00
-4.396578e+00
-5.430822e+00
-6.548091e+00
-7.737065e+00
-8.984019e+00
-1.027155e+01
-1.157779e+01
-1.287774e+01
-1.414992e+01
-1.539337e+01


0.000000e+00
2.020019e-06
4.152168e-06
5.975377e-06
7.465734e-06
8.644924e-06
9.548646e-06
1.022177e-05
1.070999e-05
1.105540e-05
1.129452e-05
1.145824e-05
1.157302e-05
1.166230e-05
1.174728e-05
1.185643e-05
1.199117e-05
0.000000e+00
1.436071e-06
3.287868e-06
4.710454e-06
5.811333e-06
6.662180e-06
7.302581e-06
7.770656e-06
8.103144e-06
8.332378e-06
8.485027e-06
8.581823e-06
8.637360e-06
8.663184e-06
8.690050e-06
8.778832e-06
8.917184e-06
0.000000e+00
1.057947e-06
2.250926e-06
3.203170e-06
3.950708e-06
4.516891e-06
4.932842e-06
5.229230e-06
5.433395e-06
5.568086e-06
5.651352e-06
5.697026e-06
5.716274e-06
5.722880e-06
5.742777e-06
5.812720e-06
5.923908e-06
0.000000e+00
5.409971e-07
1.076655e-06
1.558856e-06
1.948298e-06
2.241032e-06
2.452569e-06
2.600387e-06
2.699311e-06
2.761311e-06
2.796143e-06
2.812315e-06
2.818729e-06
2.826120e-06
2.844751e-06
2.886582e-06
2.953379e-06
0.000000e+00
-3.107128e-09
-6.364081e-09
-9.564114e-09
-1.291054e-08
-1.635653e-08
-2.007052e-08
-2.434770e-08
-2.956961e-08
-3.585867e-08
-4.270870e-08
-4.850666e-08
-5.030055e-08
-4.525899e-08
-3.368922e-08
-1.429969e-08
1.923710e-08
0.000000e+00
-5.458512e-07
-1.088167e-06
-1.578416e-06
-1.974797e-06
-2.273418e-06
-2.490695e-06
-2.644938e-06
-2.751634e-06
-2.823130e-06
-2.868919e-06
-2.895916e-06
-2.909098e-06
-2.912948e-06
-2.912509e-06
-2.908148e-06
-2.894236e-06
0.000000e+00
-1.059168e-06
-2.259961e-06
-3.223958e-06
-3.979705e-06
-4.549379e-06
-4.967652e-06
-5.266191e-06
-5.472518e-06
-5.609742e-06
-5.696732e-06
-5.748647e-06
-5.777555e-06
-5.792972e-06
-5.801579e-06
-5.804817e-06
-5.800988e-06
0.000000e+00
-1.434263e-06
-3.294084e-06
-4.730823e-06
-5.840961e-06
-6.693807e-06
-7.333792e-06
-7.800378e-06
-8.129962e-06
-8.354830e-06
-8.502384e-06
-8.595147e-06
-8.651037e-06
-8.683536e-06
-8.701719e-06
-8.710175e-06
-8.711414e-06
0.000000e+00
-2.020065e-06
-4.158207e-06
-5.993429e-06
-7.491194e-06
-8.672220e-06
-9.574566e-06
-1.024413e-05
-1.072639e-05
-1.106322e-05
-1.129094e-05
-1.143963e-05
-1.153298e-05
-1.158844e-05
-1.161785e-05
-1.162925e-05
-1.163129e-05
0.000000e+00
1.816316e-06
3.174978e-06
4.596785e-06
6.330230e-06
8.376584e-06
1.068072e-05
1.318496e-05
1.583750e-05
1.859646e-05
2.143021e-05
2.431725e-05
2.724821e-05
3.023846e-05
3.336052e-05
3.665769e-05
3.999722e-05
0.000000e+00
9.425731e-07
2.307150e-06
3.861719e-06
5.745121e-06
7.926704e-06
1.034665e-05
1.294405e-05
1.566875e-05
1.848179e-05
2.135479e-05
2.426930e-05
2.721759e-05
3.020712e-05
3.327159e-05
3.648321e-05
3.977197e-05
0.000000e+00
4.394671e-07
1.642018e-06
3.304135e-06
5.304101e-06
7.592010e-06
1.010046e-05
1.276861e-05
1.554799e-05
1.840217e-05
2.130540e-05
2.424137e-05
2.720189e-05
3.018248e-05
3.318459e-05
3.629901e-05
3.950711e-05
0.000000e+00
2.551560e-07
1.345996e-06
3.017326e-06
5.075319e-06
7.419968e-06
9.975088e-06
1.268016e-05
1.548824e-05
1.836439e-05
2.128386e-05
2.423046e-05
2.719348e-05
3.016188e-05
3.313183e-05
3.617135e-05
3.927978e-05
0.000000e+00
2.144675e-07
1.267683e-06
2.928045e-06
5.003401e-06
7.366662e-06
9.936905e-06
1.265390e-05
1.547154e-05
1.835523e-05
2.128010e-05
2.422898e-05
2.718942e-05
3.015046e-05
3.310846e-05
3.610180e-05
3.912203e-05
0.000000e+00
2.554020e-07
1.345222e-06
3.017513e-06
5.077338e-06
7.422875e-06
9.978464e-06
1.268452e-05
1.549434e-05
1.837251e-05
2.129318e-05
2.423793e-05
2.719344e-05
3.014990e-05
3.310405e-05
3.606973e-05
3.903305e-05
0.000000e+00
4.400611e-07
1.642346e-06
3.306426e-06
5.308683e-06
7.597592e-06
1.010688e-05
1.277707e-05
1.555981e-05
1.841800e-05
2.132406e-05
2.425798e-05
2.720541e-05
3.015647e-05
3.310624e-05
3.605559e-05
3.899188e-05
0.000000e+00
9.446799e-07
2.312298e-06
3.869723e-06
5.753668e-06
7.934628e-06
1.035525e-05
1.295497e-05
1.568348e-05
1.850108e-05
2.137762e-05
2.429072e-05
2.722410e-05
3.016634e-05
3.311005e-05
3.605007e-05
3.897811e-05
0.000000e+00
1.820634e-06
3.186359e-06
4.611734e-06
6.342820e-06
8.386288e-06
1.069010e-05
1.319590e-05
1.585120e-05
1.861356e-05
2.144975e-05
2.433447e-05
2.724883e-05
3.017907e-05
3.311533e-05
3.604966e-05
3.897595e-05


1.848911e+00
1.851842e+00
1.880651e+00
1.928370e+00
1.968590e+00
2.000394e+00
2.025105e+00
2.043590e+00
2.056818e+00
2.065875e+00
2.071773e+00
2.075265e+00
2.076330e+00
2.073290e+00
2.066682e+00
2.061656e+00
1.897030e+00
1.895451e+00
1.916751e+00
1.955448e+00
1.990737e+00
2.016226e+00
2.036075e+00
2.050901e+00
2.061492e+00
2.068731e+00
2.073420e+00
2.076131e+00
2.076704e+00
2.073388e+00
2.066871e+00
2.062004e+00
1.975692e+00
1.971781e+00
1.980351e+00
2.004920e+00
2.026988e+00
2.042575e+00
2.054168e+00
2.062802e+00
2.068945e+00
2.073118e+00
2.075782e+00
2.077241e+00
2.077271e+00
2.074443e+00
2.069246e+00
2.065530e+00
2.032995e+00
2.028935e+00
2.031947e+00
2.042050e+00
2.053516e+00
2.060759e+00
2.066491e+00
2.070731e+00
2.073716e+00
2.075713e+00
2.076958e+00
2.077614e+00
2.077560e+00
2.076010e+00
2.073200e+00
2.071228e+00
2.032770e+00
2.031656e+00
2.035329e+00
2.044697e+00
2.053283e+00
2.060603e+00
2.066314e+00
2.070492e+00
2.073408e+00
2.075349e+00
2.076584e+00
2.077336e+00
2.077673e+00
2.077353e+00
2.076471e+00
2.075844e+00
1.976041e+00
1.975296e+00
1.987308e+00
2.008306e+00
2.027061e+00
2.042177e+00
2.053795e+00
2.062342e+00
2.068369e+00
2.072443e+00
2.075092e+00
2.076775e+00
2.077821e+00
2.078352e+00
2.078505e+00
2.078536e+00
1.895869e+00
1.896682e+00
1.919029e+00
1.956578e+00
1.989679e+00
2.015741e+00
2.035787e+00
2.050661e+00
2.061252e+00
2.068473e+00
2.073189e+00
2.076152e+00
2.077957e+00
2.079006e+00
2.079566e+00
2.079806e+00
1.847566e+00
1.849612e+00
1.878905e+00
1.926129e+00
1.967413e+00
1.999930e+00
2.024973e+00
2.043645e+00
2.057003e+00
2.066148e+00
2.072126e+00
2.075857e+00
2.078080e+00
2.079339e+00
2.079995e+00
2.080275e+00


6.840263e-02
1.985546e-01
3.043646e-01
3.747777e-01
4.487464e-01
5.252139e-01
6.005956e-01
6.717099e-01
7.359246e-01
7.911536e-01
8.358845e-01
8.690567e-01
8.899365e-01
8.977982e-01
9.037935e-01
5.769674e-01
6.514867e-01
5.874248e-01
6.162939e-01
6.538076e-01
6.930397e-01
7.335892e-01
7.734556e-01
8.118386e-01
8.481586e-01
8.820654e-01
9.134377e-01
9.421907e-01
9.674670e-01
9.841197e-01
9.427966e-01
3.821192e-01
8.790068e-01
8.414154e-01
8.268352e-01
8.340960e-01
8.474758e-01
8.627314e-01
8.783243e-01
8.941521e-01
9.102968e-01
9.265845e-01
9.421088e-01
9.542636e-01
9.568177e-01
9.348474e-01
8.554036e-01
7.126467e-01
9.739212e-01
9.466700e-01
9.287236e-01
9.224081e-01
9.221151e-01
9.235592e-01
9.254706e-01
9.277095e-01
9.301979e-01
9.324104e-01
9.329082e-01
9.289187e-01
9.165947e-01
8.946402e-01
8.762239e-01
8.716972e-01
9.739917e-01
9.466592e-01
9.286522e-01
9.223051e-01
9.217090e-01
9.222589e-01
9.225543e-01
9.221761e-01
9.208043e-01
9.179993e-01
9.132771e-01
9.066859e-01
9.004745e-01
9.016861e-01
9.190505e-01
9.490374e-01
8.794254e-01
8.415091e-01
8.265292e-01
8.338542e-01
8.468153e-01
8.603446e-01
8.727932e-01
8.834207e-01
8.917038e-01
8.974081e-01
9.010718e-01
9.048381e-01
9.131143e-01
9.306641e-01
9.570825e-01
9.843989e-01
6.520779e-01
5.874661e-01
6.156929e-01
6.534237e-01
6.927702e-01
7.325839e-01
7.713043e-01
8.077540e-01
8.409298e-01
8.701571e-01
8.954122e-01
9.177749e-01
9.394978e-01
9.623722e-01
9.837941e-01
9.972887e-01
6.807612e-02
1.978780e-01
3.030822e-01
3.735982e-01
4.473820e-01
5.244877e-01
6.021855e-01
6.779590e-01
7.499936e-01
8.167386e-01
8.763751e-01
9.263644e-01
9.637600e-01
9.868948e-01
9.974315e-01
9.999456e-01
1 2 19 18
2 3 20 19
3 4 21 20
4 5 22 21
5 6 23 22
6 7 24 23
7 8 25 24
8 9 26 25
9 10 27 26
10 11 28 27
11 12 29 28
12 13 30 29
13 14 31 30
14 15 32 31
15 16 33 32
16 17 34 33
18 19 36 35
19 20 37 36
20 21 38 37
21 22 39 38
22 23 40 39
23 24 41 40
24 25 42 41
25 26 43 42
26 27 44 43
27 28 45 44
28 29 46 45
29 30 47 46
30 31 48 47
31 32 49 48
32 33 50 49
33 34 51 50
35 36 53 52
36 37 54 53
37 38 55 54
38 39 56 55
39 40 57 56
40 41 58 57
41 42 59 58
42 43 60 59
43 44 61 60
44 45 62 61
45 46 63 62
46 47 64 63
47 48 65 64
48 49 66 65
49 50 67 66
50 51 68 67
52 53 70 69
53 54 71 70
54 55 72 71
55 56 73 72
56 57 74 73
57 58 75 74
58 59 76 75
59 60 77 76
60 61 78 77
61 62 79 78
62 63 80 79
63 64 81 80
64 65 82 81
65 66 83 82
66 67 84 83
67 68 85 84
69 70 87 86
70 71 88 87
71 72 89 88
72 73 90 89
73 74 91 90
74 75 92 91
75 76 93 92
76 77 94 93
77 78 95 94
78 79 96 95
79 80 97 96
80 81 98 97
81 82 99 98
82 83 100 99
83 84 101 100
84 85 102 101
86 87 104 103
87 88 105 104
88 89 106 105
89 90 107 106
90 91 108 107
91 92 109 108
92 93 110 109
93 94 111 110
94 95 112 111
95 96 113 112
96 97 114 113
97 98 115 114
98 99 116 115
99 100 117 116
100 101 118 117
101 102 119 118
103 104 121 120
104 105 122 121
105 106 123 122
106 107 124 123
107 108 125 124
108 109 126 125
109 110 127 126
110 111 128 127
111 112 129 128
112 113 130 129
113 114 131 130
114 115 132 131
115 116 133 132
116 117 134 133
117 118 135 134
118 119 136 135
120 121 138 137
121 122 139 138
122 123 140 139
123 124 141 140
124 125 142 141
125 126 143 142
126 127 144 143
127 128 145 144
128 129 146 145
129 130 147 146
130 131 148 147
131 132 149 148
132 133 150 149
133 134 151 150
134 135 152 151
135 136 153 152
