TITLE = "Solution"
VARIABLES = x, y, u, v, psiu, psiv, t, stress
ZONE T="structure" N=153 E=128 F=FEBLOCK ET=QUADRILATERAL VARLOCATION=([7,8]=cellcentered)
0.000000e+00
1.250000e+01
2.500000e+01
3.750000e+01
5.000000e+01
6.250000e+01
7.500000e+01
8.750000e+01
1.000000e+02
1.125000e+02
1.250000e+02
1.375000e+02
1.500000e+02
1.625000e+02
1.750000e+02
1.875000e+02
2.000000e+02
0.000000e+00
1.250000e+01
2.500000e+01
3.750000e+01
5.000000e+01
6.250000e+01
7.500000e+01
8.750000e+01
1.000000e+02
1.125000e+02
1.250000e+02
1.375000e+02
1.500000e+02
1.625000e+02
1.750000e+02
1.875000e+02
2.000000e+02
0.000000e+00
1.250000e+01
2.500000e+01
3.750000e+01
5.000000e+01
6.250000e+01
7.500000e+01
8.750000e+01
1.000000e+02
1.125000e+02
1.250000e+02
1.375000e+02
1.500000e+02
1.625000e+02
1.750000e+02
1.875000e+02
2.000000e+02
0.000000e+00
1.250000e+01
2.500000e+01
3.750000e+01
5.000000e+01
6.250000e+01
7.500000e+01
8.750000e+01
1.000000e+02
1.125000e+02
1.250000e+02
1.375000e+02
1.500000e+02
1.625000e+02
1.750000e+02
1.875000e+02
2.000000e+02
0.000000e+00
1.250000e+01
2.500000e+01
3.750000e+01
5.000000e+01
6.250000e+01
7.500000e+01
8.750000e+01
1.000000e+02
1.125000e+02
1.250000e+02
1.375000e+02
1.500000e+02
1.625000e+02
1.750000e+02
1.875000e+02
2.000000e+02
0.000000e+00
1.250000e+01
2.500000e+01
3.750000e+01
5.000000e+01
6.250000e+01
7.500000e+01
8.750000e+01
1.000000e+02
1.125000e+02
1.250000e+02
1.375000e+02
1.500000e+02
1.625000e+02
1.750000e+02
1.875000e+02
2.000000e+02
0.000000e+00
1.250000e+01
2.500000e+01
3.750000e+01
5.000000e+01
6.250000e+01
7.500000e+01
8.750000e+01
1.000000e+02
1.125000e+02
1.250000e+02
1.375000e+02
1.500000e+02
1.625000e+02
1.750000e+02
1.875000e+02
2.000000e+02
0.000000e+00
1.250000e+01
2.500000e+01
3.750000e+01
5.000000e+01
6.250000e+01
7.500000e+01
8.750000e+01
1.000000e+02
1.125000e+02
1.250000e+02
1.375000e+02
1.500000e+02
1.625000e+02
1.750000e+02
1.875000e+02
2.000000e+02
0.000000e+00
1.250000e+01
2.500000e+01
3.750000e+01
5.000000e+01
6.250000e+01
7.500000e+01
8.750000e+01
1.000000e+02
1.125000e+02
1.250000e+02
1.375000e+02
1.500000e+02
1.625000e+02
1.750000e+02
1.875000e+02
2.000000e+02
0.000000e+00
0.000000e+00
0.000000e+00
0.000000e+00
0.000000e+00
0.000000e+00
0.000000e+00
0.000000e+00
0.000000e+00
0.000000e+00
0.000000e+00
0.000000e+00
0.000000e+00
0.000000e+00
0.000000e+00
0.000000e+00
0.000000e+00
1.250000e+01
1.250000e+01
1.250000e+01
1.250000e+01
1.250000e+01
1.250000e+01
1.250000e+01
1.250000e+01
1.250000e+01
1.250000e+01
1.250000e+01
1.250000e+01
1.250000e+01
1.250000e+01
1.250000e+01
1.250000e+01
1.250000e+01
2.500000e+01
2.500000e+01
2.500000e+01
2.500000e+01
2.500000e+01
2.500000e+01
2.500000e+01
2.500000e+01
2.500000e+01
2.500000e+01
2.500000e+01
2.500000e+01
2.500000e+01
2.500000e+01
2.500000e+01
2.500000e+01
2.500000e+01
3.750000e+01
3.750000e+01
3.750000e+01
3.750000e+01
3.750000e+01
3.750000e+01
3.750000e+01
3.750000e+01
3.750000e+01
3.750000e+01
3.750000e+01
3.750000e+01
3.750000e+01
3.750000e+01
3.750000e+01
3.750000e+01
3.750000e+01
5.000000e+01
5.000000e+01
5.000000e+01
5.000000e+01
5.000000e+01
5.000000e+01
5.000000e+01
5.000000e+01
5.000000e+01
5.000000e+01
5.000000e+01
5.000000e+01
5.000000e+01
5.000000e+01
5.000000e+01
5.000000e+01
5.000000e+01
6.250000e+01
6.250000e+01
6.250000e+01
6.250000e+01
6.250000e+01
6.250000e+01
6.250000e+01
6.250000e+01
6.250000e+01
6.250000e+01
6.250000e+01
6.250000e+01
6.250000e+01
6.250000e+01
6.250000e+01
6.250000e+01
6.250000e+01
7.500000e+01
7.500000e+01
7.500000e+01
7.500000e+01
7.500000e+01
7.500000e+01
7.500000e+01
7.500000e+01
7.500000e+01
7.500000e+01
7.500000e+01
7.500000e+01
7.500000e+01
7.500000e+01
7.500000e+01
7.500000e+01
7.500000e+01
8.750000e+01
8.750000e+01
8.750000e+01
8.750000e+01
8.750000e+01
8.750000e+01
8.750000e+01
8.750000e+01
8.750000e+01
8.750000e+01
8.750000e+01
8.750000e+01
8.750000e+01
8.750000e+01
8.750000e+01
8.750000e+01
8.750000e+01
1.000000e+02
1.000000e+02
1.000000e+02
1.000000e+02
1.000000e+02
1.000000e+02
1.000000e+02
1.000000e+02
1.000000e+02
1.000000e+02
1.000000e+02
1.000000e+02
1.000000e+02
1.000000e+02
1.000000e+02
1.000000e+02
1.000000e+02
0.000000e+00
-9.536826e-01
-1.642096e+00
-2.365920e+00
-3.048553e+00
-3.702871e+00
-4.385647e+00
-5.046467e+00
-5.701191e+00
-6.365235e+00
-7.024508e+00
-7.686260e+00
-8.397290e+00
-9.173957e+00
-9.996663e+00
-1.071980e+01
-1.117212e+01
0.000000e+00
-4.477198e-01
-9.233667e-01
-1.428860e+00
-1.944607e+00
-2.432272e+00
-2.943232e+00
-3.445075e+00
-3.938258e+00
-4.440791e+00
-4.937386e+00
-5.427957e+00
-5.930698e+00
-6.434299e+00
-6.825512e+00
-6.927554e+00
-7.101009e+00
0.000000e+00
-1.767827e-01
-4.050669e-01
-7.062392e-01
-1.046654e+00
-1.375299e+00
-1.725421e+00
-2.072214e+00
-2.414900e+00
-2.760680e+00
-3.095183e+00
-3.409220e+00
-3.687766e+00
-3.895406e+00
-3.969303e+00
-3.953822e+00
-4.105032e+00
0.000000e+00
-8.353492e-02
-1.762271e-01
-3.196203e-01
-4.678231e-01
-6.385825e-01
-8.121655e-01
-9.837137e-01
-1.155215e+00
-1.318912e+00
-1.469253e+00
-1.590061e+00
-1.657385e+00
-1.650433e+00
-1.581920e+00
-1.573026e+00
-1.699839e+00
0.000000e+00
-2.173164e-03
-4.531564e-03
-6.573358e-03
-8.053068e-03
-8.033882e-03
-5.121704e-03
2.126832e-03
1.619742e-02
4.042644e-02
7.850993e-02
1.392606e-01
2.303592e-01
3.481191e-01
4.564199e-01
4.778580e-01
3.749925e-01
0.000000e+00
7.981174e-02
1.689029e-01
3.082629e-01
4.535042e-01
6.238087e-01
8.014350e-01
9.847647e-01
1.181167e+00
1.386997e+00
1.606427e+00
1.832976e+00
2.049717e+00
2.237568e+00
2.364398e+00
2.391690e+00
2.327966e+00
0.000000e+00
1.752175e-01
4.021121e-01
7.011876e-01
1.039146e+00
1.367220e+00
1.717762e+00
2.069626e+00
2.426206e+00
2.793208e+00
3.162111e+00
3.529558e+00
3.860361e+00
4.118012e+00
4.280984e+00
4.335784e+00
4.317953e+00
0.000000e+00
4.474774e-01
9.238827e-01
1.428769e+00
1.942914e+00
2.430823e+00
2.938320e+00
3.435057e+00
3.924667e+00
4.411889e+00
4.888712e+00
5.362030e+00
5.792820e+00
6.119943e+00
6.323504e+00
6.412148e+00
6.428091e+00
0.000000e+00
9.542482e-01
1.645392e+00
2.370881e+00
3.054268e+00
3.711996e+00
4.392919e+00
5.045000e+00
5.689116e+00
6.317225e+00
6.923796e+00
7.519707e+00
8.044689e+00
8.413871e+00
8.604124e+00
8.654880e+00
8.655117e+00
0.000000e+00
-5.935469e-01
-1.289797e+00
-2.219955e+00
-3.319800e+00
-4.588581e+00
-6.038954e+00
-7.653963e+00
-9.440304e+00
-1.140051e+01
-1.352659e+01
-1.582402e+01
-1.831323e+01
-2.101072e+01
-2.394277e+01
-2.730370e+01
-3.229540e+01
0.000000e+00
-3.917608e-01
-1.121778e+00
-2.036834e+00
-3.147799e+00
-4.413418e+00
-5.862261e+00
-7.481946e+00
-9.267249e+00
-1.122801e+01
-1.335706e+01
-1.565268e+01
-1.813313e+01
-2.083510e+01
-2.381532e+01
-2.721124e+01
-3.127851e+01
0.000000e+00
-3.559380e-01
-1.019346e+00
-1.927911e+00
-3.026594e+00
-4.289772e+00
-5.738116e+00
-7.357799e+00
-9.145637e+00
-1.111039e+01
-1.324801e+01
-1.555563e+01
-1.805033e+01
-2.077922e+01
-2.380796e+01
-2.704774e+01
-3.006710e+01
0.000000e+00
-3.966432e-01
-1.005804e+00
-1.890465e+00
-2.960339e+00
-4.222122e+00
-5.668446e+00
-7.287760e+00
-9.082633e+00
-1.105501e+01
-1.320816e+01
-1.554101e+01
-1.805774e+01
-2.078521e+01
-2.375091e+01
-2.673028e+01
-2.931020e+01
0.000000e+00
-4.062433e-01
-1.018140e+00
-1.877366e+00
-2.946316e+00
-4.204612e+00
-5.652615e+00
-7.276696e+00
-9.078590e+00
-1.106047e+01
-1.322644e+01
-1.557913e+01
-1.810175e+01
-2.078887e+01
-2.361086e+01
-2.637162e+01
-2.870748e+01
0.000000e+00
-3.959542e-01
-1.006405e+00
-1.893417e+00
-2.966693e+00
-4.234965e+00
-5.690014e+00
-7.319557e+00
-9.130537e+00
-1.111752e+01
-1.328525e+01
-1.563849e+01
-1.814967e+01
-2.078215e+01
-2.347294e+01
-2.606045e+01
-2.828466e+01
0.000000e+00
-3.551450e-01
-1.020492e+00
-1.932846e+00
-3.037176e+00
-4.311277e+00
-5.774393e+00
-7.412360e+00
-9.226306e+00
-1.121564e+01
-1.337532e+01
-1.571483e+01
-1.820674e+01
-2.079001e+01
-2.338488e+01
-2.586195e+01
-2.807639e+01
0.000000e+00
-3.911228e-01
-1.122953e+00
-2.042021e+00
-3.159623e+00
-4.436992e+00
-5.902842e+00
-7.544005e+00
-9.357255e+00
-1.134558e+01
-1.349833e+01
-1.582273e+01
-1.829244e+01
-2.083454e+01
-2.336294e+01
-2.577618e+01
-2.802328e+01
0.000000e+00
-5.933852e-01
-1.291405e+00
-2.225189e+00
-3.332173e+00
-4.612574e+00
-6.078886e+00
-7.715346e+00
-9.527197e+00
-1.151028e+01
-1.365889e+01
-1.597324e+01
-1.841359e+01
-2.090992e+01
-2.338594e+01
-2.576069e+01
-2.802295e+01


0.000000e+00
1.471999e-05
2.479238e-05
3.686979e-05
5.206275e-05
6.538623e-05
7.945455e-05
9.397534e-05
1.076730e-04
1.221251e-04
1.363140e-04
1.505960e-04
1.659934e-04
1.766749e-04
1.822344e-04
1.863768e-04
1.919729e-04
0.000000e+00
1.085914e-05
1.971117e-05
2.849171e-05
4.093809e-05
5.146778e-05
6.152208e-05
7.255027e-05
8.280621e-05
9.308128e-05
1.028915e-04
1.125895e-04
1.221813e-04
1.268994e-04
1.265194e-04
1.297616e-04
1.351295e-04
0.000000e+00
8.934285e-06
1.510484e-05
2.090484e-05
2.978638e-05
3.674325e-05
4.314747e-05
5.037954e-05
5.668076e-05
6.265465e-05
6.791272e-05
7.240814e-05
7.586733e-05
7.611243e-05
7.534374e-05
7.787255e-05
8.243673e-05
0.000000e+00
4.811853e-06
7.161045e-06
1.079195e-05
1.486206e-05
1.772494e-05
2.123340e-05
2.435990e-05
2.681925e-05
2.911383e-05
3.033891e-05
3.021953e-05
2.912552e-05
2.803437e-05
2.873557e-05
3.210544e-05
3.727506e-05
0.000000e+00
-6.118098e-08
-1.510495e-07
-2.688545e-07
-4.213618e-07
-6.088484e-07
-8.553519e-07
-1.167700e-06
-1.653106e-06
-2.512988e-06
-4.017637e-06
-6.269822e-06
-8.897199e-06
-1.061660e-05
-9.941282e-06
-7.443975e-06
-4.007165e-06
0.000000e+00
-4.908253e-06
-7.399266e-06
-1.122857e-05
-1.555112e-05
-1.877159e-05
-2.259449e-05
-2.617595e-05
-2.922344e-05
-3.199048e-05
-3.453370e-05
-3.714211e-05
-3.987237e-05
-4.178975e-05
-4.309334e-05
-4.357960e-05
-4.269381e-05
0.000000e+00
-8.956308e-06
-1.517014e-05
-2.106394e-05
-3.015951e-05
-3.729999e-05
-4.387515e-05
-5.144909e-05
-5.755784e-05
-6.289558e-05
-6.795009e-05
-7.151509e-05
-7.402808e-05
-7.636907e-05
-7.838117e-05
-8.004232e-05
-8.060288e-05
0.000000e+00
-1.084122e-05
-1.967573e-05
-2.842908e-05
-4.094720e-05
-5.148542e-05
-6.148811e-05
-7.279892e-05
-8.282267e-05
-9.265166e-05
-1.028651e-04
-1.108391e-04
-1.153256e-04
-1.183292e-04
-1.201187e-04
-1.208317e-04
-1.210425e-04
0.000000e+00
-1.473908e-05
-2.476725e-05
-3.671748e-05
-5.178080e-05
-6.494701e-05
-7.865696e-05
-9.306250e-05
-1.066637e-04
-1.209228e-04
-1.368116e-04
-1.504006e-04
-1.592636e-04
-1.632162e-04
-1.640802e-04
-1.636976e-04
-1.634370e-04
0.000000e+00
1.224748e-05
1.984568e-05
3.171431e-05
4.696872e-05
6.357200e-05
8.483999e-05
1.101197e-04
1.386647e-04
1.716842e-04
2.086960e-04
2.505477e-04
2.971951e-04
3.463470e-04
4.032393e-04
4.681748e-04
5.344769e-04
0.000000e+00
7.239678e-06
1.571305e-05
2.571279e-05
4.057848e-05
5.778029e-05
7.866514e-05
1.039982e-04
1.327108e-04
1.656702e-04
2.028866e-04
2.445801e-04
2.920635e-04
3.438157e-04
3.995124e-04
4.616662e-04
5.252801e-04
0.000000e+00
3.814392e-06
1.168654e-05
2.100541e-05
3.518337e-05
5.300506e-05
7.408625e-05
9.927716e-05
1.283825e-04
1.616127e-04
1.988989e-04
2.409131e-04
2.891757e-04
3.429680e-04
3.959448e-04
4.541703e-04
5.152630e-04
0.000000e+00
2.543862e-06
9.554635e-06
1.899942e-05
3.300425e-05
5.097510e-05
7.225700e-05
9.761196e-05
1.269086e-04
1.602638e-04
1.977939e-04
2.396076e-04
2.885046e-04
3.422097e-04
3.934312e-04
4.461136e-04
5.017230e-04
0.000000e+00
2.131188e-06
8.958779e-06
1.848241e-05
3.247732e-05
5.038639e-05
7.171129e-05
9.716382e-05
1.265705e-04
1.599513e-04
1.974820e-04
2.396521e-04
2.886210e-04
3.427584e-04
3.926364e-04
4.399033e-04
4.883478e-04
0.000000e+00
2.614242e-06
9.658824e-06
1.910367e-05
3.308527e-05
5.101115e-05
7.214293e-05
9.744079e-05
1.267590e-04
1.599318e-04
1.978870e-04
2.411323e-04
2.905149e-04
3.433229e-04
3.932675e-04
4.381047e-04
4.803109e-04
0.000000e+00
3.915216e-06
1.185344e-05
2.117992e-05
3.534229e-05
5.304654e-05
7.385202e-05
9.893466e-05
1.277857e-04
1.608467e-04
1.995161e-04
2.440976e-04
2.933597e-04
3.443003e-04
3.928038e-04
4.371015e-04
4.781284e-04
0.000000e+00
7.336066e-06
1.589585e-05
2.594462e-05
4.079028e-05
5.784827e-05
7.849751e-05
1.035513e-04
1.318024e-04
1.646965e-04
2.035929e-04
2.478679e-04
2.957766e-04
3.450729e-04
3.922829e-04
4.364810e-04
4.784789e-04
0.000000e+00
1.234365e-05
2.001995e-05
3.195786e-05
4.721114e-05
6.364161e-05
8.473304e-05
1.097521e-04
1.376670e-04
1.708444e-04
2.097107e-04
2.520213e-04
2.979226e-04
3.455514e-04
3.921733e-04
4.362286e-04
4.787495e-04


3.943265e+00
3.923268e+00
4.045799e+00
3.681818e+00
3.455054e+00
3.635313e+00
3.768991e+00
4.015565e+00
4.406126e+00
4.846678e+00
5.519726e+00
6.642126e+00
7.790195e+00
8.193028e+00
7.288117e+00
6.140231e+00
6.155595e+00
6.120605e+00
6.086556e+00
5.873181e+00
5.671676e+00
5.784557e+00
5.864051e+00
5.990907e+00
6.234233e+00
6.482264e+00
6.859051e+00
7.475275e+00
8.107295e+00
8.051721e+00
6.708076e+00
5.095744e+00
8.226044e+00
8.177838e+00
8.164605e+00
8.013325e+00
7.951403e+00
7.984421e+00
7.986350e+00
8.014225e+00
8.069863e+00
8.113875e+00
8.128326e+00
8.171567e+00
8.202997e+00
7.826536e+00
6.473408e+00
5.066303e+00
8.924934e+00
8.907533e+00
8.894939e+00
8.844012e+00
8.825685e+00
8.821194e+00
8.799867e+00
8.773322e+00
8.725798e+00
8.614213e+00
8.352914e+00
7.920038e+00
7.611274e+00
7.407516e+00
6.922710e+00
6.384638e+00
8.923550e+00
8.904805e+00
8.890048e+00
8.834724e+00
8.812318e+00
8.801634e+00
8.769348e+00
8.725444e+00
8.626932e+00
8.405925e+00
7.971660e+00
7.348829e+00
7.009132e+00
7.231448e+00
7.594269e+00
7.723138e+00
8.218504e+00
8.166899e+00
8.141311e+00
7.971050e+00
7.889599e+00
7.895186e+00
7.863603e+00
7.834272e+00
7.729584e+00
7.575380e+00
7.421847e+00
7.208294e+00
7.256222e+00
7.730807e+00
8.282555e+00
8.561101e+00
6.140681e+00
6.103087e+00
6.054188e+00
5.814114e+00
5.586194e+00
5.660004e+00
5.710955e+00
5.778038e+00
5.875096e+00
6.152279e+00
6.772328e+00
7.442202e+00
7.950783e+00
8.428481e+00
8.772828e+00
8.925429e+00
3.924245e+00
3.910957e+00
4.026704e+00
3.645707e+00
3.405650e+00
3.561551e+00
3.696015e+00
3.952796e+00
4.309601e+00
5.060613e+00
6.381939e+00
7.622758e+00
8.370824e+00
8.768459e+00
8.965026e+00
9.043734e+00


-7.220308e-01
-2.056238e-01
-3.222614e-01
-2.601635e-01
-1.479301e-01
-2.519114e-01
-1.916026e-01
-1.647781e-01
-2.046332e-01
-1.846919e-01
-1.782964e-01
-3.007506e-01
-4.290233e-01
-2.583679e-01
3.984515e-01
-8.204214e-01
5.895448e-01
4.424635e-01
3.105826e-01
2.354806e-01
2.922238e-01
2.077257e-01
2.119760e-01
2.158117e-01
1.763305e-01
1.908958e-01
2.328705e-01
2.853163e-01
4.121929e-01
6.746312e-01
7.202319e-01
-1.089212e+00
7.730242e-01
5.635113e-01
2.999690e-01
2.389463e-01
2.201201e-01
1.657972e-01
1.771027e-01
1.843111e-01
1.893362e-01
2.241608e-01
2.907207e-01
3.789500e-01
4.268636e-01
2.806200e-01
6.800155e-02
-2.445874e-01
7.924667e-01
6.296088e-01
3.695214e-01
2.598763e-01
1.853013e-01
1.551596e-01
1.641028e-01
1.784024e-01
2.004317e-01
2.179813e-01
2.270685e-01
2.121351e-01
8.292253e-02
-2.292247e-01
-2.628435e-01
-2.766943e-02
7.942848e-01
6.316847e-01
3.726149e-01
2.611486e-01
1.807113e-01
1.412037e-01
1.371748e-01
1.280200e-01
1.280125e-01
1.140240e-01
7.203204e-02
2.147640e-02
-8.063220e-02
-2.047801e-01
-7.288931e-02
3.575737e-01
7.771543e-01
5.686246e-01
3.084618e-01
2.462791e-01
2.150323e-01
1.443214e-01
1.269298e-01
8.005178e-02
3.015177e-02
-2.512070e-02
-1.069507e-01
-1.205225e-01
-6.374742e-02
6.547086e-02
3.631317e-01
7.623822e-01
5.924250e-01
4.436499e-01
3.143468e-01
2.400207e-01
2.870348e-01
1.989849e-01
1.851425e-01
1.481197e-01
7.655735e-02
1.557410e-02
-8.118594e-02
-4.972006e-02
1.621911e-01
4.389479e-01
7.414170e-01
9.547561e-01
-7.222639e-01
-2.126702e-01
-3.245655e-01
-2.589507e-01
-1.558409e-01
-2.430079e-01
-1.684403e-01
-1.444756e-01
-1.188165e-01
-7.292103e-02
-6.889917e-02
1.127225e-01
4.869977e-01
7.961173e-01
9.568514e-01
9.989384e-01
1 2 19 18
2 3 20 19
3 4 21 20
4 5 22 21
5 6 23 22
6 7 24 23
7 8 25 24
8 9 26 25
9 10 27 26
10 11 28 27
11 12 29 28
12 13 30 29
13 14 31 30
14 15 32 31
15 16 33 32
16 17 34 33
18 19 36 35
19 20 37 36
20 21 38 37
21 22 39 38
22 23 40 39
23 24 41 40
24 25 42 41
25 26 43 42
26 27 44 43
27 28 45 44
28 29 46 45
29 30 47 46
30 31 48 47
31 32 49 48
32 33 50 49
33 34 51 50
35 36 53 52
36 37 54 53
37 38 55 54
38 39 56 55
39 40 57 56
40 41 58 57
41 42 59 58
42 43 60 59
43 44 61 60
44 45 62 61
45 46 63 62
46 47 64 63
47 48 65 64
48 49 66 65
49 50 67 66
50 51 68 67
52 53 70 69
53 54 71 70
54 55 72 71
55 56 73 72
56 57 74 73
57 58 75 74
58 59 76 75
59 60 77 76
60 61 78 77
61 62 79 78
62 63 80 79
63 64 81 80
64 65 82 81
65 66 83 82
66 67 84 83
67 68 85 84
69 70 87 86
70 71 88 87
71 72 89 88
72 73 90 89
73 74 91 90
74 75 92 91
75 76 93 92
76 77 94 93
77 78 95 94
78 79 96 95
79 80 97 96
80 81 98 97
81 82 99 98
82 83 100 99
83 84 101 100
84 85 102 101
86 87 104 103
87 88 105 104
88 89 106 105
89 90 107 106
90 91 108 107
91 92 109 108
92 93 110 109
93 94 111 110
94 95 112 111
95 96 113 112
96 97 114 113
97 98 115 114
98 99 116 115
99 100 117 116
100 101 118 117
101 102 119 118
103 104 121 120
104 105 122 121
105 106 123 122
106 107 124 123
107 108 125 124
108 109 126 125
109 110 127 126
110 111 128 127
111 112 129 128
112 113 130 129
113 114 131 130
114 115 132 131
115 116 133 132
116 117 134 133
117 118 135 134
118 119 136 135
120 121 138 137
121 122 139 138
122 123 140 139
123 124 141 140
124 125 142 141
125 126 143 142
126 127 144 143
127 128 145 144
128 129 146 145
129 130 147 146
130 131 148 147
131 132 149 148
132 133 150 149
133 134 151 150
134 135 152 151
135 136 153 152
