TITLE = "Solution"
VARIABLES = x, y, u, v, psiu, psiv, t, stress
ZONE T="structure" N=153 E=128 F=FEBLOCK ET=QUADRILATERAL VARLOCATION=([7,8]=cellcentered)
0.000000e+00
1.250000e+01
2.500000e+01
3.750000e+01
5.000000e+01
6.250000e+01
7.500000e+01
8.750000e+01
1.000000e+02
1.125000e+02
1.250000e+02
1.375000e+02
1.500000e+02
1.625000e+02
1.750000e+02
1.875000e+02
2.000000e+02
0.000000e+00
1.250000e+01
2.500000e+01
3.750000e+01
5.000000e+01
6.250000e+01
7.500000e+01
8.750000e+01
1.000000e+02
1.125000e+02
1.250000e+02
1.375000e+02
1.500000e+02
1.625000e+02
1.750000e+02
1.875000e+02
2.000000e+02
0.000000e+00
1.250000e+01
2.500000e+01
3.750000e+01
5.000000e+01
6.250000e+01
7.500000e+01
8.750000e+01
1.000000e+02
1.125000e+02
1.250000e+02
1.375000e+02
1.500000e+02
1.625000e+02
1.750000e+02
1.875000e+02
2.000000e+02
0.000000e+00
1.250000e+01
2.500000e+01
3.750000e+01
5.000000e+01
6.250000e+01
7.500000e+01
8.750000e+01
1.000000e+02
1.125000e+02
1.250000e+02
1.375000e+02
1.500000e+02
1.625000e+02
1.750000e+02
1.875000e+02
2.000000e+02
0.000000e+00
1.250000e+01
2.500000e+01
3.750000e+01
5.000000e+01
6.250000e+01
7.500000e+01
8.750000e+01
1.000000e+02
1.125000e+02
1.250000e+02
1.375000e+02
1.500000e+02
1.625000e+02
1.750000e+02
1.875000e+02
2.000000e+02
0.000000e+00
1.250000e+01
2.500000e+01
3.750000e+01
5.000000e+01
6.250000e+01
7.500000e+01
8.750000e+01
1.000000e+02
1.125000e+02
1.250000e+02
1.375000e+02
1.500000e+02
1.625000e+02
1.750000e+02
1.875000e+02
2.000000e+02
0.000000e+00
1.250000e+01
2.500000e+01
3.750000e+01
5.000000e+01
6.250000e+01
7.500000e+01
8.750000e+01
1.000000e+02
1.125000e+02
1.250000e+02
1.375000e+02
1.500000e+02
1.625000e+02
1.750000e+02
1.875000e+02
2.000000e+02
0.000000e+00
1.250000e+01
2.500000e+01
3.750000e+01
5.000000e+01
6.250000e+01
7.500000e+01
8.750000e+01
1.000000e+02
1.125000e+02
1.250000e+02
1.375000e+02
1.500000e+02
1.625000e+02
1.750000e+02
1.875000e+02
2.000000e+02
0.000000e+00
1.250000e+01
2.500000e+01
3.750000e+01
5.000000e+01
6.250000e+01
7.500000e+01
8.750000e+01
1.000000e+02
1.125000e+02
1.250000e+02
1.375000e+02
1.500000e+02
1.625000e+02
1.750000e+02
1.875000e+02
2.000000e+02
0.000000e+00
0.000000e+00
0.000000e+00
0.000000e+00
0.000000e+00
0.000000e+00
0.000000e+00
0.000000e+00
0.000000e+00
0.000000e+00
0.000000e+00
0.000000e+00
0.000000e+00
0.000000e+00
0.000000e+00
0.000000e+00
0.000000e+00
1.250000e+01
1.250000e+01
1.250000e+01
1.250000e+01
1.250000e+01
1.250000e+01
1.250000e+01
1.250000e+01
1.250000e+01
1.250000e+01
1.250000e+01
1.250000e+01
1.250000e+01
1.250000e+01
1.250000e+01
1.250000e+01
1.250000e+01
2.500000e+01
2.500000e+01
2.500000e+01
2.500000e+01
2.500000e+01
2.500000e+01
2.500000e+01
2.500000e+01
2.500000e+01
2.500000e+01
2.500000e+01
2.500000e+01
2.500000e+01
2.500000e+01
2.500000e+01
2.500000e+01
2.500000e+01
3.750000e+01
3.750000e+01
3.750000e+01
3.750000e+01
3.750000e+01
3.750000e+01
3.750000e+01
3.750000e+01
3.750000e+01
3.750000e+01
3.750000e+01
3.750000e+01
3.750000e+01
3.750000e+01
3.750000e+01
3.750000e+01
3.750000e+01
5.000000e+01
5.000000e+01
5.000000e+01
5.000000e+01
5.000000e+01
5.000000e+01
5.000000e+01
5.000000e+01
5.000000e+01
5.000000e+01
5.000000e+01
5.000000e+01
5.000000e+01
5.000000e+01
5.000000e+01
5.000000e+01
5.000000e+01
6.250000e+01
6.250000e+01
6.250000e+01
6.250000e+01
6.250000e+01
6.250000e+01
6.250000e+01
6.250000e+01
6.250000e+01
6.250000e+01
6.250000e+01
6.250000e+01
6.250000e+01
6.250000e+01
6.250000e+01
6.250000e+01
6.250000e+01
7.500000e+01
7.500000e+01
7.500000e+01
7.500000e+01
7.500000e+01
7.500000e+01
7.500000e+01
7.500000e+01
7.500000e+01
7.500000e+01
7.500000e+01
7.500000e+01
7.500000e+01
7.500000e+01
7.500000e+01
7.500000e+01
7.500000e+01
8.750000e+01
8.750000e+01
8.750000e+01
8.750000e+01
8.750000e+01
8.750000e+01
8.750000e+01
8.750000e+01
8.750000e+01
8.750000e+01
8.750000e+01
8.750000e+01
8.750000e+01
8.750000e+01
8.750000e+01
8.750000e+01
8.750000e+01
1.000000e+02
1.000000e+02
1.000000e+02
1.000000e+02
1.000000e+02
1.000000e+02
1.000000e+02
1.000000e+02
1.000000e+02
1.000000e+02
1.000000e+02
1.000000e+02
1.000000e+02
1.000000e+02
1.000000e+02
1.000000e+02
1.000000e+02
0.000000e+00
-6.337678e-01
-1.179161e+00
-1.648399e+00
-2.168118e+00
-2.648209e+00
-3.096045e+00
-3.504448e+00
-3.884491e+00
-4.252594e+00
-4.597417e+00
-4.901792e+00
-5.168248e+00
-5.419414e+00
-5.690178e+00
-6.014326e+00
-6.253538e+00
0.000000e+00
-4.188969e-01
-8.112115e-01
-1.140701e+00
-1.485815e+00
-1.867662e+00
-2.211916e+00
-2.517201e+00
-2.791925e+00
-3.063350e+00
-3.323960e+00
-3.553449e+00
-3.742305e+00
-3.885754e+00
-3.981490e+00
-4.004388e+00
-4.076260e+00
0.000000e+00
-2.844911e-01
-5.056477e-01
-6.895911e-01
-8.956766e-01
-1.160884e+00
-1.401445e+00
-1.601886e+00
-1.777577e+00
-1.953992e+00
-2.127370e+00
-2.268241e+00
-2.367319e+00
-2.415483e+00
-2.416504e+00
-2.397820e+00
-2.471934e+00
0.000000e+00
-1.178534e-01
-2.117887e-01
-2.888425e-01
-3.896871e-01
-5.272431e-01
-6.552338e-01
-7.555337e-01
-8.414949e-01
-9.269165e-01
-1.006147e+00
-1.054042e+00
-1.070557e+00
-1.059286e+00
-1.037024e+00
-1.040301e+00
-1.099837e+00
0.000000e+00
2.318648e-02
4.182784e-02
4.933149e-02
5.216944e-02
5.244088e-02
5.633979e-02
5.888647e-02
6.077862e-02
6.360015e-02
7.667044e-02
1.029921e-01
1.425607e-01
1.859058e-01
2.155134e-01
2.134489e-01
1.714385e-01
0.000000e+00
1.182078e-01
2.469361e-01
3.599235e-01
4.785397e-01
6.079027e-01
7.377055e-01
8.528320e-01
9.557606e-01
1.055513e+00
1.152564e+00
1.241761e+00
1.320684e+00
1.385633e+00
1.423897e+00
1.429312e+00
1.408528e+00
0.000000e+00
2.442296e-01
5.009758e-01
7.408052e-01
9.659127e-01
1.201728e+00
1.437859e+00
1.658048e+00
1.861617e+00
2.057758e+00
2.238264e+00
2.391306e+00
2.512185e+00
2.602113e+00
2.655311e+00
2.671378e+00
2.667027e+00
0.000000e+00
3.883118e-01
8.026645e-01
1.176394e+00
1.530179e+00
1.888156e+00
2.230916e+00
2.540434e+00
2.825419e+00
3.100979e+00
3.360953e+00
3.580470e+00
3.745348e+00
3.859932e+00
3.928075e+00
3.955257e+00
3.959701e+00
0.000000e+00
6.448204e-01
1.185467e+00
1.681731e+00
2.176148e+00
2.662047e+00
3.114252e+00
3.518619e+00
3.890182e+00
4.249727e+00
4.587028e+00
4.869965e+00
5.073844e+00
5.204964e+00
5.267007e+00
5.281613e+00
5.281570e+00
0.000000e+00
-4.027244e-01
-7.505584e-01
-1.224708e+00
-1.861607e+00
-2.629130e+00
-3.492194e+00
-4.456336e+00
-5.531767e+00
-6.720177e+00
-8.000622e+00
-9.350233e+00
-1.075954e+01
-1.223781e+01
-1.383024e+01
-1.566292e+01
-1.828081e+01
0.000000e+00
-2.577697e-01
-6.286434e-01
-1.102622e+00
-1.728722e+00
-2.505526e+00
-3.379832e+00
-4.353784e+00
-5.433019e+00
-6.625707e+00
-7.916480e+00
-9.278734e+00
-1.070072e+01
-1.218785e+01
-1.377910e+01
-1.559917e+01
-1.783994e+01
0.000000e+00
-2.001690e-01
-5.572348e-01
-1.027677e+00
-1.637998e+00
-2.413381e+00
-3.300584e+00
-4.281124e+00
-5.361519e+00
-6.557555e+00
-7.862335e+00
-9.237611e+00
-1.067702e+01
-1.217802e+01
-1.376644e+01
-1.549076e+01
-1.717815e+01
0.000000e+00
-1.756101e-01
-5.293809e-01
-9.911749e-01
-1.587211e+00
-2.359935e+00
-3.252614e+00
-4.239036e+00
-5.319792e+00
-6.520356e+00
-7.840659e+00
-9.227886e+00
-1.067844e+01
-1.218150e+01
-1.373546e+01
-1.531962e+01
-1.678769e+01
0.000000e+00
-1.749530e-01
-5.235058e-01
-9.845973e-01
-1.579616e+00
-2.345368e+00
-3.236509e+00
-4.226320e+00
-5.312187e+00
-6.518335e+00
-7.844776e+00
-9.237922e+00
-1.068679e+01
-1.217769e+01
-1.368248e+01
-1.516708e+01
-1.653440e+01
0.000000e+00
-1.730563e-01
-5.298227e-01
-1.004336e+00
-1.610726e+00
-2.365257e+00
-3.255243e+00
-4.246884e+00
-5.338830e+00
-6.546878e+00
-7.866696e+00
-9.257668e+00
-1.069663e+01
-1.216907e+01
-1.363626e+01
-1.505869e+01
-1.638182e+01
0.000000e+00
-1.918061e-01
-5.642397e-01
-1.054462e+00
-1.666824e+00
-2.421883e+00
-3.309436e+00
-4.303213e+00
-5.395668e+00
-6.598396e+00
-7.905014e+00
-9.287435e+00
-1.071492e+01
-1.216812e+01
-1.361091e+01
-1.500352e+01
-1.632262e+01
0.000000e+00
-2.504369e-01
-6.494781e-01
-1.139753e+00
-1.755517e+00
-2.512313e+00
-3.395458e+00
-4.384916e+00
-5.474610e+00
-6.669383e+00
-7.963625e+00
-9.332807e+00
-1.074675e+01
-1.218164e+01
-1.360509e+01
-1.498222e+01
-1.630943e+01
0.000000e+00
-4.004154e-01
-7.797073e-01
-1.266995e+00
-1.883342e+00
-2.636807e+00
-3.509426e+00
-4.488745e+00
-5.573144e+00
-6.762904e+00
-8.045698e+00
-9.396929e+00
-1.079128e+01
-1.220704e+01
-1.361172e+01
-1.497798e+01
-1.630943e+01


0.000000e+00
-1.700759e-06
-4.055360e-06
-6.361746e-06
-8.415528e-06
-9.705553e-06
-1.065042e-05
-1.156572e-05
-1.271459e-05
-1.420741e-05
-1.577143e-05
-1.699767e-05
-1.774138e-05
-1.810521e-05
-1.825260e-05
-1.836707e-05
-1.852992e-05
0.000000e+00
-1.140126e-06
-3.100902e-06
-5.070779e-06
-6.808315e-06
-8.033424e-06
-8.726087e-06
-9.266309e-06
-9.994554e-06
-1.112626e-05
-1.240920e-05
-1.334895e-05
-1.378784e-05
-1.387645e-05
-1.383299e-05
-1.386378e-05
-1.401798e-05
0.000000e+00
-9.616523e-07
-2.334003e-06
-3.695375e-06
-5.017825e-06
-6.080714e-06
-6.617420e-06
-6.941603e-06
-7.357495e-06
-8.065618e-06
-8.909372e-06
-9.447547e-06
-9.613495e-06
-9.577068e-06
-9.511765e-06
-9.530441e-06
-9.662680e-06
0.000000e+00
-6.680506e-07
-1.492159e-06
-2.311836e-06
-3.171854e-06
-3.856291e-06
-4.189853e-06
-4.368764e-06
-4.556311e-06
-4.850544e-06
-5.181013e-06
-5.343528e-06
-5.351028e-06
-5.305405e-06
-5.276124e-06
-5.306924e-06
-5.415258e-06
0.000000e+00
-3.363501e-07
-6.715907e-07
-9.829778e-07
-1.243110e-06
-1.432734e-06
-1.527846e-06
-1.576760e-06
-1.592684e-06
-1.576615e-06
-1.517081e-06
-1.425246e-06
-1.322761e-06
-1.247109e-06
-1.225300e-06
-1.257818e-06
-1.340546e-06
0.000000e+00
1.090052e-07
3.278016e-07
5.873498e-07
8.295855e-07
1.010521e-06
1.131293e-06
1.239369e-06
1.401907e-06
1.658706e-06
1.969780e-06
2.239314e-06
2.433038e-06
2.553014e-06
2.598843e-06
2.590222e-06
2.546261e-06
0.000000e+00
6.402585e-07
1.518440e-06
2.249090e-06
2.781724e-06
3.176440e-06
3.495484e-06
3.805559e-06
4.206327e-06
4.749614e-06
5.334886e-06
5.819654e-06
6.137475e-06
6.305622e-06
6.369747e-06
6.382987e-06
6.374152e-06
0.000000e+00
1.064205e-06
2.528939e-06
3.690966e-06
4.511889e-06
5.112956e-06
5.612574e-06
6.122215e-06
6.771394e-06
7.615349e-06
8.541297e-06
9.339252e-06
9.872129e-06
1.014066e-05
1.023508e-05
1.026156e-05
1.026620e-05
0.000000e+00
1.705368e-06
3.521401e-06
5.038563e-06
6.184139e-06
7.033676e-06
7.752157e-06
8.493424e-06
9.396282e-06
1.050958e-05
1.172219e-05
1.282989e-05
1.363336e-05
1.407545e-05
1.422023e-05
1.422896e-05
1.422130e-05
0.000000e+00
-1.859968e-06
-3.686058e-06
-5.550806e-06
-7.459589e-06
-9.197051e-06
-1.103789e-05
-1.330742e-05
-1.619699e-05
-1.968409e-05
-2.345465e-05
-2.725924e-05
-3.114710e-05
-3.523134e-05
-3.960934e-05
-4.434658e-05
-4.922898e-05
0.000000e+00
-1.064428e-06
-2.625225e-06
-4.502835e-06
-6.639379e-06
-8.679876e-06
-1.064497e-05
-1.288826e-05
-1.562161e-05
-1.898131e-05
-2.282813e-05
-2.685958e-05
-3.096970e-05
-3.519001e-05
-3.955180e-05
-4.416065e-05
-4.894573e-05
0.000000e+00
-5.503193e-07
-1.856432e-06
-3.726400e-06
-5.977565e-06
-8.219687e-06
-1.034273e-05
-1.260353e-05
-1.521715e-05
-1.844068e-05
-2.234242e-05
-2.657086e-05
-3.087629e-05
-3.519787e-05
-3.951687e-05
-4.396526e-05
-4.859973e-05
0.000000e+00
-2.479087e-07
-1.450075e-06
-3.300054e-06
-5.592206e-06
-7.931083e-06
-1.016226e-05
-1.247673e-05
-1.506401e-05
-1.820751e-05
-2.211032e-05
-2.642541e-05
-3.082931e-05
-3.520429e-05
-3.950479e-05
-4.381573e-05
-4.823588e-05
0.000000e+00
-1.310625e-07
-1.275439e-06
-3.147261e-06
-5.437432e-06
-7.776804e-06
-1.005068e-05
-1.240837e-05
-1.502430e-05
-1.817397e-05
-2.205686e-05
-2.636819e-05
-3.079642e-05
-3.521107e-05
-3.950855e-05
-4.371227e-05
-4.789358e-05
0.000000e+00
-1.730703e-07
-1.352349e-06
-3.229293e-06
-5.439184e-06
-7.708220e-06
-9.984792e-06
-1.237004e-05
-1.503816e-05
-1.824668e-05
-2.211701e-05
-2.640009e-05
-3.081862e-05
-3.524100e-05
-3.952535e-05
-4.364254e-05
-4.763410e-05
0.000000e+00
-3.686435e-07
-1.638482e-06
-3.460701e-06
-5.549602e-06
-7.745921e-06
-1.001237e-05
-1.243239e-05
-1.517469e-05
-1.844388e-05
-2.229563e-05
-2.653700e-05
-3.092385e-05
-3.530416e-05
-3.953693e-05
-4.359183e-05
-4.752189e-05
0.000000e+00
-7.840750e-07
-2.175237e-06
-3.867685e-06
-5.818371e-06
-7.941710e-06
-1.020559e-05
-1.268094e-05
-1.551365e-05
-1.883787e-05
-2.265643e-05
-2.681556e-05
-3.111287e-05
-3.539222e-05
-3.954453e-05
-4.356162e-05
-4.750259e-05
0.000000e+00
-1.459624e-06
-2.854767e-06
-4.415354e-06
-6.219172e-06
-8.254910e-06
-1.050476e-05
-1.303366e-05
-1.596424e-05
-1.936390e-05
-2.316534e-05
-2.721300e-05
-3.135560e-05
-3.549056e-05
-3.955607e-05
-4.355043e-05
-4.750616e-05


1.965289e+00
2.025245e+00
2.041197e+00
2.181830e+00
2.222033e+00
2.204140e+00
2.136988e+00
2.123453e+00
2.304923e+00
2.462397e+00
2.427265e+00
2.364357e+00
2.339914e+00
2.360720e+00
2.227245e+00
2.139420e+00
2.101274e+00
2.009109e+00
1.981890e+00
2.078334e+00
2.292269e+00
2.266634e+00
2.225788e+00
2.305449e+00
2.739020e+00
2.968022e+00
2.832640e+00
2.544805e+00
2.291248e+00
2.090817e+00
2.164206e+00
2.242892e+00
2.530356e+00
2.382903e+00
2.200419e+00
2.307583e+00
2.505287e+00
2.410643e+00
2.242081e+00
2.544882e+00
3.275262e+00
3.645516e+00
3.256274e+00
2.834248e+00
2.376855e+00
2.088348e+00
2.155084e+00
2.525412e+00
3.160965e+00
3.304027e+00
3.148123e+00
3.080473e+00
2.895244e+00
2.560379e+00
2.255369e+00
2.490093e+00
3.215717e+00
3.495254e+00
3.136649e+00
2.753257e+00
2.478065e+00
2.260551e+00
2.809681e+00
3.501462e+00
3.371015e+00
3.619138e+00
3.661056e+00
3.189082e+00
2.973620e+00
2.758295e+00
2.537662e+00
2.657109e+00
2.910221e+00
3.002774e+00
2.715298e+00
2.508492e+00
2.423709e+00
2.534239e+00
3.202355e+00
4.509148e+00
2.618865e+00
2.961385e+00
2.716169e+00
2.474528e+00
2.456153e+00
2.702005e+00
2.746152e+00
2.767883e+00
2.820245e+00
2.741299e+00
2.577162e+00
2.430658e+00
2.650521e+00
2.742504e+00
3.200003e+00
3.628294e+00
2.077239e+00
2.037959e+00
2.002332e+00
1.849356e+00
2.153070e+00
2.332722e+00
2.404267e+00
2.467449e+00
2.631179e+00
2.785559e+00
2.828233e+00
2.919418e+00
3.170079e+00
3.441886e+00
3.085190e+00
2.933278e+00
1.812367e+00
1.864483e+00
1.841779e+00
1.947048e+00
2.055302e+00
2.103022e+00
2.077787e+00
2.198229e+00
2.585313e+00
3.049566e+00
3.380797e+00
3.519240e+00
3.796196e+00
3.744784e+00
3.513154e+00
3.063637e+00


2.557049e-03
2.319089e-01
4.408741e-01
3.478705e-01
3.509402e-01
4.519187e-01
5.543563e-01
6.231309e-01
6.395732e-01
6.768350e-01
7.494945e-01
8.192146e-01
8.657101e-01
8.828363e-01
8.918755e-01
5.518482e-01
5.503083e-01
6.505120e-01
7.581967e-01
7.205466e-01
6.127741e-01
6.799013e-01
7.569475e-01
8.012036e-01
7.972051e-01
8.047677e-01
8.572684e-01
9.141209e-01
9.614056e-01
9.839886e-01
9.341256e-01
3.034313e-01
8.492043e-01
8.928933e-01
9.200627e-01
8.837752e-01
7.965171e-01
8.210354e-01
8.670420e-01
8.843589e-01
8.676112e-01
8.579307e-01
8.997418e-01
9.334196e-01
9.511728e-01
9.349814e-01
8.392375e-01
6.616361e-01
9.755881e-01
9.587162e-01
9.535722e-01
9.267008e-01
8.809765e-01
8.930687e-01
9.133274e-01
9.157219e-01
8.922413e-01
8.692329e-01
8.864644e-01
8.910349e-01
8.866123e-01
8.730634e-01
8.426930e-01
8.220925e-01
9.586089e-01
9.185415e-01
9.195709e-01
9.029164e-01
8.725547e-01
8.699710e-01
8.887088e-01
8.971917e-01
8.818910e-01
8.590936e-01
8.626613e-01
8.619925e-01
8.577498e-01
8.703277e-01
8.899573e-01
9.202153e-01
8.692762e-01
8.294147e-01
8.520130e-01
8.491734e-01
8.124346e-01
7.928089e-01
8.116112e-01
8.286922e-01
8.235097e-01
8.200585e-01
8.373346e-01
8.593007e-01
8.765345e-01
9.096479e-01
9.489298e-01
9.811805e-01
6.345639e-01
5.786858e-01
6.522251e-01
6.878624e-01
6.662633e-01
6.746694e-01
7.171000e-01
7.456464e-01
7.456524e-01
7.582733e-01
8.053904e-01
8.618374e-01
9.036423e-01
9.442679e-01
9.801433e-01
9.971301e-01
5.210718e-02
2.003225e-01
3.387391e-01
3.705606e-01
3.767702e-01
4.457399e-01
5.506035e-01
6.164716e-01
6.369515e-01
6.742450e-01
7.647138e-01
8.678210e-01
9.356270e-01
9.775112e-01
9.961978e-01
9.999247e-01
1 2 19 18
2 3 20 19
3 4 21 20
4 5 22 21
5 6 23 22
6 7 24 23
7 8 25 24
8 9 26 25
9 10 27 26
10 11 28 27
11 12 29 28
12 13 30 29
13 14 31 30
14 15 32 31
15 16 33 32
16 17 34 33
18 19 36 35
19 20 37 36
20 21 38 37
21 22 39 38
22 23 40 39
23 24 41 40
24 25 42 41
25 26 43 42
26 27 44 43
27 28 45 44
28 29 46 45
29 30 47 46
30 31 48 47
31 32 49 48
32 33 50 49
33 34 51 50
35 36 53 52
36 37 54 53
37 38 55 54
38 39 56 55
39 40 57 56
40 41 58 57
41 42 59 58
42 43 60 59
43 44 61 60
44 45 62 61
45 46 63 62
46 47 64 63
47 48 65 64
48 49 66 65
49 50 67 66
50 51 68 67
52 53 70 69
53 54 71 70
54 55 72 71
55 56 73 72
56 57 74 73
57 58 75 74
58 59 76 75
59 60 77 76
60 61 78 77
61 62 79 78
62 63 80 79
63 64 81 80
64 65 82 81
65 66 83 82
66 67 84 83
67 68 85 84
69 70 87 86
70 71 88 87
71 72 89 88
72 73 90 89
73 74 91 90
74 75 92 91
75 76 93 92
76 77 94 93
77 78 95 94
78 79 96 95
79 80 97 96
80 81 98 97
81 82 99 98
82 83 100 99
83 84 101 100
84 85 102 101
86 87 104 103
87 88 105 104
88 89 106 105
89 90 107 106
90 91 108 107
91 92 109 108
92 93 110 109
93 94 111 110
94 95 112 111
95 96 113 112
96 97 114 113
97 98 115 114
98 99 116 115
99 100 117 116
100 101 118 117
101 102 119 118
103 104 121 120
104 105 122 121
105 106 123 122
106 107 124 123
107 108 125 124
108 109 126 125
109 110 127 126
110 111 128 127
111 112 129 128
112 113 130 129
113 114 131 130
114 115 132 131
115 116 133 132
116 117 134 133
117 118 135 134
118 119 136 135
120 121 138 137
121 122 139 138
122 123 140 139
123 124 141 140
124 125 142 141
125 126 143 142
126 127 144 143
127 128 145 144
128 129 146 145
129 130 147 146
130 131 148 147
131 132 149 148
132 133 150 149
133 134 151 150
134 135 152 151
135 136 153 152
