TITLE = "Solution"
VARIABLES = x, y, u, v, psiu, psiv, t, stress
ZONE T="structure" N=153 E=128 F=FEBLOCK ET=QUADRILATERAL VARLOCATION=([7,8]=cellcentered)
0.000000e+00
1.250000e+01
2.500000e+01
3.750000e+01
5.000000e+01
6.250000e+01
7.500000e+01
8.750000e+01
1.000000e+02
1.125000e+02
1.250000e+02
1.375000e+02
1.500000e+02
1.625000e+02
1.750000e+02
1.875000e+02
2.000000e+02
0.000000e+00
1.250000e+01
2.500000e+01
3.750000e+01
5.000000e+01
6.250000e+01
7.500000e+01
8.750000e+01
1.000000e+02
1.125000e+02
1.250000e+02
1.375000e+02
1.500000e+02
1.625000e+02
1.750000e+02
1.875000e+02
2.000000e+02
0.000000e+00
1.250000e+01
2.500000e+01
3.750000e+01
5.000000e+01
6.250000e+01
7.500000e+01
8.750000e+01
1.000000e+02
1.125000e+02
1.250000e+02
1.375000e+02
1.500000e+02
1.625000e+02
1.750000e+02
1.875000e+02
2.000000e+02
0.000000e+00
1.250000e+01
2.500000e+01
3.750000e+01
5.000000e+01
6.250000e+01
7.500000e+01
8.750000e+01
1.000000e+02
1.125000e+02
1.250000e+02
1.375000e+02
1.500000e+02
1.625000e+02
1.750000e+02
1.875000e+02
2.000000e+02
0.000000e+00
1.250000e+01
2.500000e+01
3.750000e+01
5.000000e+01
6.250000e+01
7.500000e+01
8.750000e+01
1.000000e+02
1.125000e+02
1.250000e+02
1.375000e+02
1.500000e+02
1.625000e+02
1.750000e+02
1.875000e+02
2.000000e+02
0.000000e+00
1.250000e+01
2.500000e+01
3.750000e+01
5.000000e+01
6.250000e+01
7.500000e+01
8.750000e+01
1.000000e+02
1.125000e+02
1.250000e+02
1.375000e+02
1.500000e+02
1.625000e+02
1.750000e+02
1.875000e+02
2.000000e+02
0.000000e+00
1.250000e+01
2.500000e+01
3.750000e+01
5.000000e+01
6.250000e+01
7.500000e+01
8.750000e+01
1.000000e+02
1.125000e+02
1.250000e+02
1.375000e+02
1.500000e+02
1.625000e+02
1.750000e+02
1.875000e+02
2.000000e+02
0.000000e+00
1.250000e+01
2.500000e+01
3.750000e+01
5.000000e+01
6.250000e+01
7.500000e+01
8.750000e+01
1.000000e+02
1.125000e+02
1.250000e+02
1.375000e+02
1.500000e+02
1.625000e+02
1.750000e+02
1.875000e+02
2.000000e+02
0.000000e+00
1.250000e+01
2.500000e+01
3.750000e+01
5.000000e+01
6.250000e+01
7.500000e+01
8.750000e+01
1.000000e+02
1.125000e+02
1.250000e+02
1.375000e+02
1.500000e+02
1.625000e+02
1.750000e+02
1.875000e+02
2.000000e+02
0.000000e+00
0.000000e+00
0.000000e+00
0.000000e+00
0.000000e+00
0.000000e+00
0.000000e+00
0.000000e+00
0.000000e+00
0.000000e+00
0.000000e+00
0.000000e+00
0.000000e+00
0.000000e+00
0.000000e+00
0.000000e+00
0.000000e+00
1.250000e+01
1.250000e+01
1.250000e+01
1.250000e+01
1.250000e+01
1.250000e+01
1.250000e+01
1.250000e+01
1.250000e+01
1.250000e+01
1.250000e+01
1.250000e+01
1.250000e+01
1.250000e+01
1.250000e+01
1.250000e+01
1.250000e+01
2.500000e+01
2.500000e+01
2.500000e+01
2.500000e+01
2.500000e+01
2.500000e+01
2.500000e+01
2.500000e+01
2.500000e+01
2.500000e+01
2.500000e+01
2.500000e+01
2.500000e+01
2.500000e+01
2.500000e+01
2.500000e+01
2.500000e+01
3.750000e+01
3.750000e+01
3.750000e+01
3.750000e+01
3.750000e+01
3.750000e+01
3.750000e+01
3.750000e+01
3.750000e+01
3.750000e+01
3.750000e+01
3.750000e+01
3.750000e+01
3.750000e+01
3.750000e+01
3.750000e+01
3.750000e+01
5.000000e+01
5.000000e+01
5.000000e+01
5.000000e+01
5.000000e+01
5.000000e+01
5.000000e+01
5.000000e+01
5.000000e+01
5.000000e+01
5.000000e+01
5.000000e+01
5.000000e+01
5.000000e+01
5.000000e+01
5.000000e+01
5.000000e+01
6.250000e+01
6.250000e+01
6.250000e+01
6.250000e+01
6.250000e+01
6.250000e+01
6.250000e+01
6.250000e+01
6.250000e+01
6.250000e+01
6.250000e+01
6.250000e+01
6.250000e+01
6.250000e+01
6.250000e+01
6.250000e+01
6.250000e+01
7.500000e+01
7.500000e+01
7.500000e+01
7.500000e+01
7.500000e+01
7.500000e+01
7.500000e+01
7.500000e+01
7.500000e+01
7.500000e+01
7.500000e+01
7.500000e+01
7.500000e+01
7.500000e+01
7.500000e+01
7.500000e+01
7.500000e+01
8.750000e+01
8.750000e+01
8.750000e+01
8.750000e+01
8.750000e+01
8.750000e+01
8.750000e+01
8.750000e+01
8.750000e+01
8.750000e+01
8.750000e+01
8.750000e+01
8.750000e+01
8.750000e+01
8.750000e+01
8.750000e+01
8.750000e+01
1.000000e+02
1.000000e+02
1.000000e+02
1.000000e+02
1.000000e+02
1.000000e+02
1.000000e+02
1.000000e+02
1.000000e+02
1.000000e+02
1.000000e+02
1.000000e+02
1.000000e+02
1.000000e+02
1.000000e+02
1.000000e+02
1.000000e+02
0.000000e+00
-7.178572e-02
-1.321803e-01
-1.877511e-01
-2.395031e-01
-2.873271e-01
-3.311206e-01
-3.708494e-01
-4.065715e-01
-4.384513e-01
-4.668049e-01
-4.921864e-01
-5.155491e-01
-5.385401e-01
-5.639995e-01
-5.952669e-01
-6.187297e-01
0.000000e+00
-4.286913e-02
-8.905227e-02
-1.316995e-01
-1.709907e-01
-2.070754e-01
-2.400282e-01
-2.698935e-01
-2.967249e-01
-3.206052e-01
-3.416555e-01
-3.600276e-01
-3.758387e-01
-3.889260e-01
-3.981572e-01
-4.001805e-01
-4.074347e-01
0.000000e+00
-2.680911e-02
-5.512624e-02
-8.337680e-02
-1.097479e-01
-1.339602e-01
-1.559942e-01
-1.758747e-01
-1.936067e-01
-2.091606e-01
-2.224526e-01
-2.332972e-01
-2.413076e-01
-2.457792e-01
-2.459033e-01
-2.441170e-01
-2.515156e-01
0.000000e+00
-1.293973e-02
-2.663817e-02
-4.042314e-02
-5.360407e-02
-6.574455e-02
-7.674871e-02
-8.658450e-02
-9.519561e-02
-1.024700e-01
-1.082217e-01
-1.121793e-01
-1.140189e-01
-1.135891e-01
-1.118235e-01
-1.123063e-01
-1.178153e-01
0.000000e+00
-1.192024e-05
-2.709843e-05
-4.222679e-05
-5.025584e-05
-3.546549e-05
3.334666e-05
2.121695e-04
5.928603e-04
1.312246e-03
2.548836e-03
4.481958e-03
7.160069e-03
1.018647e-02
1.227702e-02
1.170365e-02
8.056179e-03
0.000000e+00
1.292139e-02
2.659559e-02
4.035503e-02
5.351936e-02
6.567564e-02
7.677544e-02
8.687302e-02
9.605595e-02
1.044307e-01
1.121068e-01
1.191409e-01
1.254110e-01
1.304389e-01
1.333965e-01
1.336311e-01
1.317798e-01
0.000000e+00
2.680610e-02
5.511707e-02
8.335855e-02
1.097193e-01
1.339247e-01
1.559648e-01
1.758843e-01
1.937245e-01
2.095173e-01
2.232762e-01
2.349678e-01
2.444574e-01
2.514735e-01
2.556846e-01
2.570520e-01
2.566203e-01
0.000000e+00
4.288672e-02
8.909051e-02
1.317605e-01
1.710725e-01
2.071629e-01
2.400774e-01
2.698037e-01
2.962966e-01
3.194796e-01
3.392427e-01
3.554493e-01
3.679696e-01
3.767623e-01
3.820073e-01
3.842440e-01
3.846549e-01
0.000000e+00
7.181513e-02
1.322578e-01
1.878964e-01
2.397352e-01
2.876536e-01
3.315101e-01
3.711769e-01
4.065216e-01
4.373604e-01
4.634259e-01
4.843706e-01
4.998505e-01
5.097438e-01
5.145283e-01
5.157093e-01
5.156865e-01
0.000000e+00
-4.345388e-02
-8.530506e-02
-1.395344e-01
-2.060898e-01
-2.848466e-01
-3.749424e-01
-4.753688e-01
-5.850581e-01
-7.029564e-01
-8.280905e-01
-9.596856e-01
-1.097424e+00
-1.242042e+00
-1.397291e+00
-1.574924e+00
-1.830152e+00
0.000000e+00
-2.675101e-02
-7.040866e-02
-1.253105e-01
-1.929536e-01
-2.727852e-01
-3.639724e-01
-4.654824e-01
-5.762347e-01
-6.951568e-01
-8.212483e-01
-9.536990e-01
-1.092142e+00
-1.237295e+00
-1.392483e+00
-1.569038e+00
-1.785337e+00
0.000000e+00
-2.018602e-02
-6.008173e-02
-1.151862e-01
-1.834688e-01
-2.641221e-01
-3.561475e-01
-4.585021e-01
-5.701129e-01
-6.899226e-01
-8.169500e-01
-9.504129e-01
-1.089980e+00
-1.236248e+00
-1.391570e+00
-1.558862e+00
-1.720766e+00
0.000000e+00
-1.739490e-02
-5.494725e-02
-1.092435e-01
-1.777730e-01
-2.589227e-01
-3.515219e-01
-4.544878e-01
-5.667678e-01
-6.873332e-01
-8.152241e-01
-9.496429e-01
-1.090100e+00
-1.236531e+00
-1.388745e+00
-1.542463e+00
-1.684073e+00
0.000000e+00
-1.659083e-02
-5.339331e-02
-1.073478e-01
-1.758959e-01
-2.572476e-01
-3.501129e-01
-4.534104e-01
-5.661071e-01
-6.871913e-01
-8.156817e-01
-9.506545e-01
-1.091237e+00
-1.236393e+00
-1.383949e+00
-1.528860e+00
-1.662358e+00
0.000000e+00
-1.738457e-02
-5.493990e-02
-1.092566e-01
-1.778372e-01
-2.590919e-01
-3.518838e-01
-4.551733e-01
-5.679498e-01
-6.891961e-01
-8.178677e-01
-9.528469e-01
-1.092828e+00
-1.236029e+00
-1.379700e+00
-1.519641e+00
-1.650290e+00
0.000000e+00
-2.016918e-02
-6.006956e-02
-1.152080e-01
-1.835771e-01
-2.644084e-01
-3.567612e-01
-4.596661e-01
-5.721225e-01
-6.930959e-01
-8.214713e-01
-9.559591e-01
-1.094939e+00
-1.236264e+00
-1.377149e+00
-1.514405e+00
-1.644967e+00
0.000000e+00
-2.673522e-02
-7.039806e-02
-1.253395e-01
-1.930836e-01
-2.731218e-01
-3.646868e-01
-4.668278e-01
-5.785432e-01
-6.987797e-01
-8.263764e-01
-9.599518e-01
-1.097747e+00
-1.237499e+00
-1.376510e+00
-1.512240e+00
-1.643718e+00
0.000000e+00
-4.344736e-02
-8.530597e-02
-1.395793e-01
-2.062404e-01
-2.852064e-01
-3.756734e-01
-4.767025e-01
-5.872816e-01
-7.063387e-01
-8.326852e-01
-9.649088e-01
-1.101239e+00
-1.239462e+00
-1.377053e+00
-1.511844e+00
-1.643737e+00


0.000000e+00
9.359539e-08
1.875417e-07
2.747874e-07
3.566009e-07
4.325202e-07
5.022283e-07
5.657073e-07
6.230866e-07
6.746087e-07
7.206163e-07
7.614910e-07
7.974561e-07
8.282305e-07
8.534194e-07
8.749462e-07
8.941025e-07
0.000000e+00
5.264696e-08
1.281057e-07
1.959516e-07
2.581529e-07
3.154841e-07
3.678949e-07
4.153872e-07
4.580007e-07
4.957672e-07
5.286764e-07
5.566323e-07
5.794938e-07
5.977319e-07
6.143908e-07
6.341663e-07
6.545227e-07
0.000000e+00
3.317835e-08
8.096563e-08
1.257980e-07
1.675877e-07
2.060192e-07
2.409426e-07
2.723175e-07
3.000973e-07
3.241893e-07
3.444565e-07
3.608013e-07
3.734805e-07
3.837961e-07
3.946772e-07
4.093817e-07
4.263732e-07
0.000000e+00
1.620966e-08
3.881583e-08
6.077276e-08
8.166970e-08
1.008651e-07
1.181523e-07
1.334532e-07
1.466783e-07
1.577135e-07
1.664631e-07
1.729796e-07
1.777034e-07
1.817485e-07
1.869607e-07
1.955313e-07
2.073272e-07
0.000000e+00
1.691565e-11
2.091673e-11
-9.057666e-12
-1.017896e-10
-3.031973e-10
-6.806059e-10
-1.323609e-09
-2.336160e-09
-3.810714e-09
-5.771549e-09
-8.080035e-09
-1.032373e-08
-1.174672e-08
-1.118503e-08
-7.150915e-09
5.974928e-10
0.000000e+00
-1.617804e-08
-3.877344e-08
-6.077459e-08
-8.181800e-08
-1.013390e-07
-1.192459e-07
-1.356155e-07
-1.505432e-07
-1.640883e-07
-1.762242e-07
-1.867858e-07
-1.954355e-07
-2.016691e-07
-2.048633e-07
-2.042540e-07
-2.000100e-07
0.000000e+00
-3.315844e-08
-8.093623e-08
-1.257806e-07
-1.676227e-07
-2.061835e-07
-2.413699e-07
-2.732225e-07
-3.017979e-07
-3.271144e-07
-3.491112e-07
-3.676148e-07
-3.823325e-07
-3.929202e-07
-3.992030e-07
-4.012953e-07
-4.000421e-07
0.000000e+00
-5.266697e-08
-1.281456e-07
-1.959878e-07
-2.581464e-07
-3.153686e-07
-3.675612e-07
-4.146667e-07
-4.566493e-07
-4.934569e-07
-5.250068e-07
-5.511754e-07
-5.718010e-07
-5.867473e-07
-5.961466e-07
-6.007677e-07
-6.018841e-07
0.000000e+00
-9.370595e-08
-1.877376e-07
-2.750297e-07
-3.568079e-07
-4.325221e-07
-5.017028e-07
-5.640978e-07
-6.195047e-07
-6.677386e-07
-7.086543e-07
-7.421879e-07
-7.683977e-07
-7.875000e-07
-7.999419e-07
-8.063735e-07
-8.084393e-07
0.000000e+00
8.473062e-08
1.652904e-07
2.556859e-07
3.634992e-07
4.898429e-07
6.338880e-07
7.943024e-07
9.695514e-07
1.158145e-06
1.358808e-06
1.570752e-06
1.794406e-06
2.032985e-06
2.292378e-06
2.567913e-06
2.841286e-06
0.000000e+00
5.125271e-08
1.295502e-07
2.206554e-07
3.305687e-07
4.594527e-07
6.062250e-07
7.693798e-07
9.473429e-07
1.138604e-06
1.341863e-06
1.556274e-06
1.781857e-06
2.020024e-06
2.273105e-06
2.541652e-06
2.811426e-06
0.000000e+00
3.264509e-08
1.008988e-07
1.919050e-07
3.034029e-07
4.344889e-07
5.836342e-07
7.492157e-07
9.296321e-07
1.123366e-06
1.329073e-06
1.545698e-06
1.772515e-06
2.008858e-06
2.254337e-06
2.513078e-06
2.774158e-06
0.000000e+00
2.395167e-08
8.582638e-08
1.751408e-07
2.873696e-07
4.198198e-07
5.705100e-07
7.377137e-07
9.198078e-07
1.115248e-06
1.322578e-06
1.540414e-06
1.767296e-06
2.001397e-06
2.241252e-06
2.490016e-06
2.738094e-06
0.000000e+00
2.145344e-08
8.125645e-08
1.697482e-07
2.821743e-07
4.151708e-07
5.665276e-07
7.344717e-07
9.173596e-07
1.113589e-06
1.321553e-06
1.539562e-06
1.765664e-06
1.997443e-06
2.232519e-06
2.472357e-06
2.707645e-06
0.000000e+00
2.397103e-08
8.589894e-08
1.753203e-07
2.877262e-07
4.204493e-07
5.715317e-07
7.392534e-07
9.219535e-07
1.117957e-06
1.325512e-06
1.542703e-06
1.767297e-06
1.996542e-06
2.227465e-06
2.459851e-06
2.685811e-06
0.000000e+00
3.267631e-08
1.010252e-07
1.922194e-07
3.040284e-07
4.355942e-07
5.854303e-07
7.519252e-07
9.334113e-07
1.128142e-06
1.334246e-06
1.549649e-06
1.771965e-06
1.998322e-06
2.225547e-06
2.452357e-06
2.672509e-06
0.000000e+00
5.129235e-08
1.297106e-07
2.210427e-07
3.313320e-07
4.607948e-07
6.083967e-07
7.726404e-07
9.518610e-07
1.144255e-06
1.347854e-06
1.560473e-06
1.779641e-06
2.002536e-06
2.226235e-06
2.448988e-06
2.666159e-06
0.000000e+00
8.479629e-08
1.654780e-07
2.561037e-07
3.642940e-07
4.912083e-07
6.360531e-07
7.974838e-07
9.738411e-07
1.163292e-06
1.363819e-06
1.573182e-06
1.788886e-06
2.008223e-06
2.228618e-06
2.448440e-06
2.664307e-06


2.097512e-01
2.097512e-01
2.097514e-01
2.097518e-01
2.097522e-01
2.097525e-01
2.097528e-01
2.097531e-01
2.097533e-01
2.097536e-01
2.097537e-01
2.097539e-01
2.097540e-01
2.097539e-01
2.097537e-01
2.097535e-01
2.097519e-01
2.097518e-01
2.097519e-01
2.097522e-01
2.097526e-01
2.097528e-01
2.097531e-01
2.097533e-01
2.097535e-01
2.097537e-01
2.097538e-01
2.097539e-01
2.097540e-01
2.097539e-01
2.097537e-01
2.097535e-01
2.097529e-01
2.097529e-01
2.097529e-01
2.097530e-01
2.097532e-01
2.097533e-01
2.097535e-01
2.097536e-01
2.097537e-01
2.097538e-01
2.097539e-01
2.097540e-01
2.097540e-01
2.097539e-01
2.097537e-01
2.097536e-01
2.097537e-01
2.097536e-01
2.097535e-01
2.097536e-01
2.097536e-01
2.097537e-01
2.097538e-01
2.097538e-01
2.097539e-01
2.097539e-01
2.097540e-01
2.097540e-01
2.097540e-01
2.097539e-01
2.097538e-01
2.097538e-01
2.097537e-01
2.097536e-01
2.097535e-01
2.097536e-01
2.097536e-01
2.097537e-01
2.097538e-01
2.097538e-01
2.097539e-01
2.097539e-01
2.097539e-01
2.097540e-01
2.097540e-01
2.097540e-01
2.097540e-01
2.097540e-01
2.097529e-01
2.097529e-01
2.097529e-01
2.097530e-01
2.097532e-01
2.097533e-01
2.097535e-01
2.097536e-01
2.097537e-01
2.097538e-01
2.097539e-01
2.097539e-01
2.097540e-01
2.097540e-01
2.097541e-01
2.097541e-01
2.097519e-01
2.097518e-01
2.097519e-01
2.097522e-01
2.097525e-01
2.097528e-01
2.097531e-01
2.097533e-01
2.097535e-01
2.097536e-01
2.097538e-01
2.097539e-01
2.097540e-01
2.097541e-01
2.097542e-01
2.097542e-01
2.097512e-01
2.097512e-01
2.097514e-01
2.097518e-01
2.097522e-01
2.097525e-01
2.097528e-01
2.097531e-01
2.097534e-01
2.097536e-01
2.097538e-01
2.097539e-01
2.097541e-01
2.097542e-01
2.097542e-01
2.097543e-01


9.884062e-01
9.900503e-01
9.915712e-01
9.927419e-01
9.938287e-01
9.948307e-01
9.957437e-01
9.965568e-01
9.972616e-01
9.978510e-01
9.983197e-01
9.986631e-01
9.988765e-01
9.989526e-01
9.990076e-01
9.956193e-01
9.956138e-01
9.948604e-01
9.953452e-01
9.959778e-01
9.965676e-01
9.971037e-01
9.975890e-01
9.980285e-01
9.984265e-01
9.987870e-01
9.991141e-01
9.994103e-01
9.996687e-01
9.998379e-01
9.994100e-01
9.936100e-01
9.984760e-01
9.980433e-01
9.979265e-01
9.980908e-01
9.983069e-01
9.985163e-01
9.987107e-01
9.988944e-01
9.990723e-01
9.992458e-01
9.994079e-01
9.995333e-01
9.995595e-01
9.993336e-01
9.985140e-01
9.970401e-01
9.996898e-01
9.993742e-01
9.991793e-01
9.991298e-01
9.991496e-01
9.991827e-01
9.992158e-01
9.992481e-01
9.992799e-01
9.993064e-01
9.993138e-01
9.992743e-01
9.991490e-01
9.989241e-01
9.987334e-01
9.986851e-01
9.996910e-01
9.993759e-01
9.991807e-01
9.991295e-01
9.991446e-01
9.991685e-01
9.991851e-01
9.991907e-01
9.991831e-01
9.991587e-01
9.991132e-01
9.990476e-01
9.989852e-01
9.989976e-01
9.991741e-01
9.994796e-01
9.984782e-01
9.980466e-01
9.979296e-01
9.980908e-01
9.982985e-01
9.984904e-01
9.986527e-01
9.987832e-01
9.988809e-01
9.989468e-01
9.989884e-01
9.990290e-01
9.991145e-01
9.992936e-01
9.995627e-01
9.998410e-01
9.956134e-01
9.948601e-01
9.953445e-01
9.959760e-01
9.965630e-01
9.970932e-01
9.975671e-01
9.979868e-01
9.983525e-01
9.986651e-01
9.989297e-01
9.991609e-01
9.993834e-01
9.996167e-01
9.998349e-01
9.999724e-01
9.883983e-01
9.900379e-01
9.915560e-01
9.927249e-01
9.938134e-01
9.948252e-01
9.957626e-01
9.966233e-01
9.974075e-01
9.981138e-01
9.987337e-01
9.992479e-01
9.996304e-01
9.998665e-01
9.999738e-01
9.999994e-01
1 2 19 18
2 3 20 19
3 4 21 20
4 5 22 21
5 6 23 22
6 7 24 23
7 8 25 24
8 9 26 25
9 10 27 26
10 11 28 27
11 12 29 28
12 13 30 29
13 14 31 30
14 15 32 31
15 16 33 32
16 17 34 33
18 19 36 35
19 20 37 36
20 21 38 37
21 22 39 38
22 23 40 39
23 24 41 40
24 25 42 41
25 26 43 42
26 27 44 43
27 28 45 44
28 29 46 45
29 30 47 46
30 31 48 47
31 32 49 48
32 33 50 49
33 34 51 50
35 36 53 52
36 37 54 53
37 38 55 54
38 39 56 55
39 40 57 56
40 41 58 57
41 42 59 58
42 43 60 59
43 44 61 60
44 45 62 61
45 46 63 62
46 47 64 63
47 48 65 64
48 49 66 65
49 50 67 66
50 51 68 67
52 53 70 69
53 54 71 70
54 55 72 71
55 56 73 72
56 57 74 73
57 58 75 74
58 59 76 75
59 60 77 76
60 61 78 77
61 62 79 78
62 63 80 79
63 64 81 80
64 65 82 81
65 66 83 82
66 67 84 83
67 68 85 84
69 70 87 86
70 71 88 87
71 72 89 88
72 73 90 89
73 74 91 90
74 75 92 91
75 76 93 92
76 77 94 93
77 78 95 94
78 79 96 95
79 80 97 96
80 81 98 97
81 82 99 98
82 83 100 99
83 84 101 100
84 85 102 101
86 87 104 103
87 88 105 104
88 89 106 105
89 90 107 106
90 91 108 107
91 92 109 108
92 93 110 109
93 94 111 110
94 95 112 111
95 96 113 112
96 97 114 113
97 98 115 114
98 99 116 115
99 100 117 116
100 101 118 117
101 102 119 118
103 104 121 120
104 105 122 121
105 106 123 122
106 107 124 123
107 108 125 124
108 109 126 125
109 110 127 126
110 111 128 127
111 112 129 128
112 113 130 129
113 114 131 130
114 115 132 131
115 116 133 132
116 117 134 133
117 118 135 134
118 119 136 135
120 121 138 137
121 122 139 138
122 123 140 139
123 124 141 140
124 125 142 141
125 126 143 142
126 127 144 143
127 128 145 144
128 129 146 145
129 130 147 146
130 131 148 147
131 132 149 148
132 133 150 149
133 134 151 150
134 135 152 151
135 136 153 152
