TITLE = "Solution"
VARIABLES = x, y, u, v, psiu, psiv, t, stress
ZONE T="structure" N=153 E=128 F=FEBLOCK ET=QUADRILATERAL VARLOCATION=([7,8]=cellcentered)
0.000000e+00
1.250000e+01
2.500000e+01
3.750000e+01
5.000000e+01
6.250000e+01
7.500000e+01
8.750000e+01
1.000000e+02
1.125000e+02
1.250000e+02
1.375000e+02
1.500000e+02
1.625000e+02
1.750000e+02
1.875000e+02
2.000000e+02
0.000000e+00
1.250000e+01
2.500000e+01
3.750000e+01
5.000000e+01
6.250000e+01
7.500000e+01
8.750000e+01
1.000000e+02
1.125000e+02
1.250000e+02
1.375000e+02
1.500000e+02
1.625000e+02
1.750000e+02
1.875000e+02
2.000000e+02
0.000000e+00
1.250000e+01
2.500000e+01
3.750000e+01
5.000000e+01
6.250000e+01
7.500000e+01
8.750000e+01
1.000000e+02
1.125000e+02
1.250000e+02
1.375000e+02
1.500000e+02
1.625000e+02
1.750000e+02
1.875000e+02
2.000000e+02
0.000000e+00
1.250000e+01
2.500000e+01
3.750000e+01
5.000000e+01
6.250000e+01
7.500000e+01
8.750000e+01
1.000000e+02
1.125000e+02
1.250000e+02
1.375000e+02
1.500000e+02
1.625000e+02
1.750000e+02
1.875000e+02
2.000000e+02
0.000000e+00
1.250000e+01
2.500000e+01
3.750000e+01
5.000000e+01
6.250000e+01
7.500000e+01
8.750000e+01
1.000000e+02
1.125000e+02
1.250000e+02
1.375000e+02
1.500000e+02
1.625000e+02
1.750000e+02
1.875000e+02
2.000000e+02
0.000000e+00
1.250000e+01
2.500000e+01
3.750000e+01
5.000000e+01
6.250000e+01
7.500000e+01
8.750000e+01
1.000000e+02
1.125000e+02
1.250000e+02
1.375000e+02
1.500000e+02
1.625000e+02
1.750000e+02
1.875000e+02
2.000000e+02
0.000000e+00
1.250000e+01
2.500000e+01
3.750000e+01
5.000000e+01
6.250000e+01
7.500000e+01
8.750000e+01
1.000000e+02
1.125000e+02
1.250000e+02
1.375000e+02
1.500000e+02
1.625000e+02
1.750000e+02
1.875000e+02
2.000000e+02
0.000000e+00
1.250000e+01
2.500000e+01
3.750000e+01
5.000000e+01
6.250000e+01
7.500000e+01
8.750000e+01
1.000000e+02
1.125000e+02
1.250000e+02
1.375000e+02
1.500000e+02
1.625000e+02
1.750000e+02
1.875000e+02
2.000000e+02
0.000000e+00
1.250000e+01
2.500000e+01
3.750000e+01
5.000000e+01
6.250000e+01
7.500000e+01
8.750000e+01
1.000000e+02
1.125000e+02
1.250000e+02
1.375000e+02
1.500000e+02
1.625000e+02
1.750000e+02
1.875000e+02
2.000000e+02
0.000000e+00
0.000000e+00
0.000000e+00
0.000000e+00
0.000000e+00
0.000000e+00
0.000000e+00
0.000000e+00
0.000000e+00
0.000000e+00
0.000000e+00
0.000000e+00
0.000000e+00
0.000000e+00
0.000000e+00
0.000000e+00
0.000000e+00
1.250000e+01
1.250000e+01
1.250000e+01
1.250000e+01
1.250000e+01
1.250000e+01
1.250000e+01
1.250000e+01
1.250000e+01
1.250000e+01
1.250000e+01
1.250000e+01
1.250000e+01
1.250000e+01
1.250000e+01
1.250000e+01
1.250000e+01
2.500000e+01
2.500000e+01
2.500000e+01
2.500000e+01
2.500000e+01
2.500000e+01
2.500000e+01
2.500000e+01
2.500000e+01
2.500000e+01
2.500000e+01
2.500000e+01
2.500000e+01
2.500000e+01
2.500000e+01
2.500000e+01
2.500000e+01
3.750000e+01
3.750000e+01
3.750000e+01
3.750000e+01
3.750000e+01
3.750000e+01
3.750000e+01
3.750000e+01
3.750000e+01
3.750000e+01
3.750000e+01
3.750000e+01
3.750000e+01
3.750000e+01
3.750000e+01
3.750000e+01
3.750000e+01
5.000000e+01
5.000000e+01
5.000000e+01
5.000000e+01
5.000000e+01
5.000000e+01
5.000000e+01
5.000000e+01
5.000000e+01
5.000000e+01
5.000000e+01
5.000000e+01
5.000000e+01
5.000000e+01
5.000000e+01
5.000000e+01
5.000000e+01
6.250000e+01
6.250000e+01
6.250000e+01
6.250000e+01
6.250000e+01
6.250000e+01
6.250000e+01
6.250000e+01
6.250000e+01
6.250000e+01
6.250000e+01
6.250000e+01
6.250000e+01
6.250000e+01
6.250000e+01
6.250000e+01
6.250000e+01
7.500000e+01
7.500000e+01
7.500000e+01
7.500000e+01
7.500000e+01
7.500000e+01
7.500000e+01
7.500000e+01
7.500000e+01
7.500000e+01
7.500000e+01
7.500000e+01
7.500000e+01
7.500000e+01
7.500000e+01
7.500000e+01
7.500000e+01
8.750000e+01
8.750000e+01
8.750000e+01
8.750000e+01
8.750000e+01
8.750000e+01
8.750000e+01
8.750000e+01
8.750000e+01
8.750000e+01
8.750000e+01
8.750000e+01
8.750000e+01
8.750000e+01
8.750000e+01
8.750000e+01
8.750000e+01
1.000000e+02
1.000000e+02
1.000000e+02
1.000000e+02
1.000000e+02
1.000000e+02
1.000000e+02
1.000000e+02
1.000000e+02
1.000000e+02
1.000000e+02
1.000000e+02
1.000000e+02
1.000000e+02
1.000000e+02
1.000000e+02
1.000000e+02
0.000000e+00
-8.315712e-01
-1.506868e+00
-2.162838e+00
-2.831425e+00
-3.486705e+00
-4.133626e+00
-4.777401e+00
-5.413173e+00
-6.032270e+00
-6.624542e+00
-7.182770e+00
-7.710119e+00
-8.225349e+00
-8.761464e+00
-9.358576e+00
-9.780504e+00
0.000000e+00
-4.590855e-01
-9.549173e-01
-1.444550e+00
-1.945390e+00
-2.436340e+00
-2.920081e+00
-3.400886e+00
-3.875281e+00
-4.336106e+00
-4.773617e+00
-5.177126e+00
-5.537033e+00
-5.839099e+00
-6.045834e+00
-6.091719e+00
-6.229619e+00
0.000000e+00
-2.585858e-01
-5.442265e-01
-8.632085e-01
-1.195509e+00
-1.524961e+00
-1.851304e+00
-2.173982e+00
-2.488714e+00
-2.788551e+00
-3.063472e+00
-3.300524e+00
-3.483561e+00
-3.590939e+00
-3.601299e+00
-3.569285e+00
-3.713002e+00
0.000000e+00
-1.153478e-01
-2.468903e-01
-3.999567e-01
-5.639831e-01
-7.300104e-01
-8.950437e-01
-1.056123e+00
-1.209180e+00
-1.348327e+00
-1.465271e+00
-1.549534e+00
-1.589901e+00
-1.579916e+00
-1.539380e+00
-1.546855e+00
-1.660269e+00
0.000000e+00
-5.409336e-04
-1.131156e-03
-1.671289e-03
-1.966307e-03
-1.649351e-03
-4.538612e-05
4.056294e-03
1.272407e-02
2.916971e-02
5.771075e-02
1.028310e-01
1.661278e-01
2.388646e-01
2.911803e-01
2.827420e-01
2.034119e-01
0.000000e+00
1.144357e-01
2.449574e-01
3.970331e-01
5.603864e-01
7.266462e-01
8.938983e-01
1.061125e+00
1.227513e+00
1.392195e+00
1.553798e+00
1.709672e+00
1.853670e+00
1.972172e+00
2.043822e+00
2.051900e+00
2.010425e+00
0.000000e+00
2.581280e-01
5.431933e-01
8.615014e-01
1.193091e+00
1.521975e+00
1.848317e+00
2.172357e+00
2.490828e+00
2.797860e+00
3.084941e+00
3.341845e+00
3.557599e+00
3.720510e+00
3.819596e+00
3.852340e+00
3.842752e+00
0.000000e+00
4.591909e-01
9.550358e-01
1.444603e+00
1.945184e+00
2.435431e+00
2.917820e+00
3.396254e+00
3.865632e+00
4.314490e+00
4.725996e+00
5.081235e+00
5.364505e+00
5.566952e+00
5.688746e+00
5.740849e+00
5.750486e+00
0.000000e+00
8.320142e-01
1.507960e+00
2.164789e+00
2.834347e+00
3.490435e+00
4.137792e+00
4.780887e+00
5.411514e+00
6.012215e+00
6.557113e+00
7.016706e+00
7.366161e+00
7.592595e+00
7.702433e+00
7.729191e+00
7.728458e+00
0.000000e+00
-5.111650e-01
-1.050737e+00
-1.766153e+00
-2.646716e+00
-3.692578e+00
-4.908330e+00
-6.293798e+00
-7.845239e+00
-9.556397e+00
-1.141804e+01
-1.342046e+01
-1.555948e+01
-1.784665e+01
-2.034719e+01
-2.327378e+01
-2.762585e+01
0.000000e+00
-3.217143e-01
-8.843613e-01
-1.592938e+00
-2.473528e+00
-3.522292e+00
-4.739649e+00
-6.126821e+00
-7.681989e+00
-9.399825e+00
-1.127143e+01
-1.328629e+01
-1.543863e+01
-1.774113e+01
-2.025168e+01
-2.316795e+01
-2.679813e+01
0.000000e+00
-2.598114e-01
-7.733415e-01
-1.475036e+00
-2.352175e+00
-3.401426e+00
-4.620667e+00
-6.010849e+00
-7.571100e+00
-9.297199e+00
-1.118112e+01
-1.321284e+01
-1.538732e+01
-1.771594e+01
-2.023617e+01
-2.298057e+01
-2.559650e+01
0.000000e+00
-2.496131e-01
-7.276172e-01
-1.411007e+00
-2.282258e+00
-3.330270e+00
-4.551666e+00
-5.946255e+00
-7.513385e+00
-9.249628e+00
-1.114755e+01
-1.319686e+01
-1.538912e+01
-1.772164e+01
-2.018069e+01
-2.265986e+01
-2.487168e+01
0.000000e+00
-2.505923e-01
-7.171149e-01
-1.392625e+00
-2.260399e+00
-3.308466e+00
-4.532135e+00
-5.930995e+00
-7.504730e+00
-9.250337e+00
-1.115996e+01
-1.322054e+01
-1.541499e+01
-1.771897e+01
-2.007798e+01
-2.237255e+01
-2.440616e+01
0.000000e+00
-2.494140e-01
-7.276300e-01
-1.411711e+00
-2.284356e+00
-3.334813e+00
-4.560283e+00
-5.961583e+00
-7.539293e+00
-9.290575e+00
-1.120623e+01
-1.326867e+01
-1.545065e+01
-1.771070e+01
-1.998250e+01
-2.216651e+01
-2.413411e+01
0.000000e+00
-2.594714e-01
-7.733301e-01
-1.476114e+00
-2.355510e+00
-3.408776e+00
-4.634787e+00
-6.036216e+00
-7.614329e+00
-9.366013e+00
-1.128043e+01
-1.333584e+01
-1.549753e+01
-1.771553e+01
-1.992358e+01
-2.204616e+01
-2.401215e+01
0.000000e+00
-3.213713e-01
-8.843467e-01
-1.594116e+00
-2.477225e+00
-3.530530e+00
-4.755625e+00
-6.155673e+00
-7.731136e+00
-9.477685e+00
-1.138296e+01
-1.342310e+01
-1.556063e+01
-1.774350e+01
-1.990843e+01
-2.199586e+01
-2.398380e+01
0.000000e+00
-5.109529e-01
-1.050851e+00
-1.767495e+00
-2.650587e+00
-3.700993e+00
-4.924501e+00
-6.322648e+00
-7.893188e+00
-9.629572e+00
-1.151767e+01
-1.353324e+01
-1.563997e+01
-1.778851e+01
-1.992078e+01
-2.198657e+01
-2.398446e+01


0.000000e+00
1.031942e-05
2.003312e-05
2.932538e-05
3.917660e-05
4.879277e-05
5.758550e-05
6.547154e-05
7.224344e-05
7.758891e-05
8.143757e-05
8.403408e-05
8.579467e-05
8.717888e-05
8.853860e-05
9.046882e-05
9.298814e-05
0.000000e+00
7.590283e-06
1.615525e-05
2.317090e-05
3.067461e-05
3.801933e-05
4.459597e-05
5.040353e-05
5.532600e-05
5.907496e-05
6.159527e-05
6.310464e-05
6.386108e-05
6.403780e-05
6.421671e-05
6.577834e-05
6.845355e-05
0.000000e+00
5.725702e-06
1.146280e-05
1.629172e-05
2.135774e-05
2.614657e-05
3.040794e-05
3.412174e-05
3.719651e-05
3.947859e-05
4.094938e-05
4.172811e-05
4.198423e-05
4.196533e-05
4.217762e-05
4.351000e-05
4.577983e-05
0.000000e+00
2.861864e-06
5.367684e-06
8.095357e-06
1.062288e-05
1.292569e-05
1.500370e-05
1.680802e-05
1.826861e-05
1.934533e-05
2.003319e-05
2.038277e-05
2.052663e-05
2.067758e-05
2.103279e-05
2.184040e-05
2.315238e-05
0.000000e+00
-6.859740e-09
-1.418550e-08
-2.163587e-08
-2.941628e-08
-3.847291e-08
-5.240889e-08
-7.978968e-08
-1.315565e-07
-2.117532e-07
-3.090638e-07
-3.893764e-07
-3.913211e-07
-2.542768e-07
-2.533455e-08
2.730427e-07
8.310044e-07
0.000000e+00
-2.874106e-06
-5.392087e-06
-8.133388e-06
-1.067487e-05
-1.299140e-05
-1.508693e-05
-1.692356e-05
-1.844415e-05
-1.961751e-05
-2.043473e-05
-2.091912e-05
-2.113148e-05
-2.116751e-05
-2.116244e-05
-2.114477e-05
-2.095946e-05
0.000000e+00
-5.731456e-06
-1.147741e-05
-1.631847e-05
-2.139811e-05
-2.620072e-05
-3.047747e-05
-3.419428e-05
-3.723374e-05
-3.944477e-05
-4.085828e-05
-4.166008e-05
-4.207026e-05
-4.227927e-05
-4.241441e-05
-4.249086e-05
-4.244974e-05
0.000000e+00
-7.589888e-06
-1.615829e-05
-2.318069e-05
-3.069272e-05
-3.804860e-05
-4.464487e-05
-5.044792e-05
-5.526741e-05
-5.879009e-05
-6.104255e-05
-6.236303e-05
-6.311447e-05
-6.354889e-05
-6.380536e-05
-6.393330e-05
-6.395414e-05
0.000000e+00
-1.032040e-05
-2.002986e-05
-2.931753e-05
-3.916253e-05
-4.877286e-05
-5.756494e-05
-6.542493e-05
-7.206796e-05
-7.714360e-05
-8.063852e-05
-8.286820e-05
-8.422285e-05
-8.500850e-05
-8.541882e-05
-8.557352e-05
-8.559877e-05
0.000000e+00
9.004855e-06
1.540196e-05
2.328420e-05
3.373168e-05
4.615226e-05
6.058497e-05
7.701749e-05
9.505514e-05
1.142806e-04
1.344528e-04
1.554164e-04
1.770828e-04
1.997221e-04
2.249310e-04
2.538446e-04
2.835595e-04
0.000000e+00
4.697215e-06
1.135668e-05
1.905619e-05
2.931395e-05
4.197813e-05
5.684858e-05
7.375643e-05
9.239856e-05
1.123376e-04
1.331794e-04
1.546574e-04
1.766609e-04
1.993468e-04
2.233430e-04
2.504629e-04
2.792193e-04
0.000000e+00
2.066918e-06
8.048095e-06
1.595291e-05
2.614568e-05
3.900842e-05
5.422315e-05
7.150339e-05
9.057629e-05
1.110135e-04
1.323379e-04
1.542107e-04
1.764812e-04
1.990266e-04
2.216723e-04
2.467000e-04
2.739083e-04
0.000000e+00
1.185737e-06
6.499410e-06
1.446283e-05
2.481115e-05
3.776695e-05
5.310675e-05
7.055069e-05
8.979648e-05
1.104206e-04
1.319471e-04
1.539993e-04
1.763327e-04
1.986793e-04
2.207041e-04
2.441668e-04
2.694757e-04
0.000000e+00
1.010266e-06
6.058865e-06
1.396183e-05
2.442753e-05
3.740979e-05
5.278154e-05
7.028384e-05
8.959187e-05
1.102747e-04
1.318575e-04
1.539373e-04
1.762186e-04
1.984384e-04
2.204344e-04
2.430995e-04
2.666254e-04
0.000000e+00
1.186481e-06
6.497168e-06
1.445531e-05
2.479680e-05
3.774727e-05
5.309444e-05
7.057232e-05
8.987379e-05
1.105488e-04
1.320912e-04
1.540900e-04
1.762618e-04
1.984059e-04
2.204738e-04
2.427608e-04
2.651378e-04
0.000000e+00
2.067866e-06
8.044739e-06
1.594190e-05
2.612403e-05
3.897839e-05
5.420656e-05
7.154683e-05
9.071968e-05
1.112527e-04
1.326209e-04
1.544347e-04
1.764493e-04
1.985096e-04
2.205538e-04
2.426152e-04
2.644943e-04
0.000000e+00
4.699300e-06
1.135650e-05
1.904949e-05
2.929771e-05
4.195631e-05
5.684282e-05
7.380604e-05
9.253628e-05
1.125665e-04
1.334705e-04
1.549318e-04
1.767157e-04
1.986496e-04
2.206205e-04
2.425459e-04
2.642940e-04
0.000000e+00
9.008731e-06
1.540530e-05
2.328353e-05
3.372400e-05
4.614401e-05
6.059296e-05
7.705243e-05
9.511556e-05
1.143738e-04
1.345944e-04
1.555714e-04
1.770569e-04
1.988215e-04
2.206938e-04
2.425398e-04
2.642661e-04


2.186330e+00
2.130357e+00
2.272721e+00
2.495882e+00
2.672277e+00
2.919727e+00
3.240078e+00
3.596650e+00
3.962018e+00
4.295838e+00
4.557987e+00
4.728542e+00
4.779520e+00
4.597464e+00
4.188669e+00
3.864731e+00
2.887651e+00
2.831371e+00
2.918649e+00
3.073133e+00
3.197248e+00
3.380017e+00
3.621598e+00
3.893266e+00
4.175242e+00
4.435708e+00
4.640995e+00
4.772229e+00
4.797516e+00
4.598751e+00
4.192486e+00
3.873656e+00
3.920417e+00
3.878522e+00
3.908020e+00
3.968298e+00
4.017180e+00
4.104084e+00
4.222305e+00
4.358868e+00
4.505836e+00
4.645483e+00
4.756865e+00
4.826455e+00
4.827215e+00
4.662679e+00
4.340944e+00
4.098656e+00
4.567619e+00
4.541759e+00
4.537643e+00
4.539376e+00
4.548571e+00
4.573913e+00
4.610634e+00
4.656660e+00
4.710904e+00
4.766120e+00
4.812467e+00
4.843269e+00
4.843548e+00
4.759125e+00
4.590006e+00
4.462316e+00
4.567655e+00
4.541706e+00
4.537390e+00
4.538712e+00
4.547065e+00
4.570966e+00
4.605737e+00
4.649370e+00
4.700605e+00
4.752511e+00
4.796924e+00
4.830759e+00
4.849820e+00
4.833689e+00
4.779735e+00
4.736461e+00
3.920270e+00
3.878085e+00
3.907002e+00
3.966219e+00
4.013192e+00
4.097598e+00
4.213813e+00
4.348933e+00
4.492947e+00
4.626823e+00
4.732933e+00
4.807672e+00
4.856587e+00
4.880643e+00
4.883070e+00
4.879138e+00
2.886884e+00
2.830131e+00
2.916607e+00
3.069897e+00
3.192495e+00
3.375157e+00
3.620967e+00
3.900903e+00
4.189331e+00
4.448741e+00
4.647628e+00
4.780593e+00
4.861869e+00
4.907844e+00
4.930610e+00
4.939236e+00
2.184990e+00
2.128470e+00
2.270023e+00
2.492227e+00
2.668075e+00
2.918299e+00
3.248968e+00
3.622731e+00
4.003477e+00
4.341809e+00
4.598204e+00
4.766666e+00
4.866321e+00
4.921107e+00
4.948630e+00
4.959962e+00


-4.678044e-01
-2.090136e-01
-1.506095e-01
-1.988401e-01
-1.540078e-01
-1.245941e-01
-1.138262e-01
-8.670763e-02
-2.890401e-02
6.507478e-02
1.870937e-01
3.130215e-01
4.233594e-01
5.219232e-01
6.301711e-01
-4.484756e-01
5.178061e-01
3.996913e-01
3.668692e-01
3.283324e-01
3.411602e-01
3.487806e-01
3.497765e-01
3.630406e-01
3.995896e-01
4.673626e-01
5.671201e-01
6.890757e-01
8.174728e-01
9.162931e-01
7.799182e-01
-1.187225e+00
8.323160e-01
7.381150e-01
6.600386e-01
6.229115e-01
6.135847e-01
6.072432e-01
6.029311e-01
6.063298e-01
6.228139e-01
6.569434e-01
7.069478e-01
7.571561e-01
7.707653e-01
6.794524e-01
3.790933e-01
-1.512310e-01
9.314045e-01
8.537309e-01
7.826586e-01
7.425499e-01
7.254771e-01
7.161420e-01
7.074929e-01
6.974878e-01
6.865070e-01
6.751519e-01
6.598438e-01
6.276561e-01
5.583295e-01
4.544289e-01
3.947042e-01
3.970550e-01
9.318923e-01
8.543376e-01
7.831861e-01
7.423620e-01
7.234953e-01
7.105676e-01
6.951544e-01
6.732327e-01
6.431047e-01
6.047660e-01
5.589411e-01
5.078387e-01
4.643779e-01
4.700871e-01
5.705685e-01
7.347751e-01
8.334415e-01
7.395629e-01
6.614381e-01
6.231269e-01
6.105719e-01
5.973252e-01
5.794039e-01
5.584452e-01
5.355954e-01
5.133955e-01
4.963132e-01
4.939171e-01
5.268727e-01
6.191596e-01
7.648314e-01
9.154860e-01
5.185905e-01
4.007911e-01
3.680183e-01
3.292438e-01
3.410232e-01
3.455358e-01
3.393781e-01
3.402986e-01
3.594321e-01
4.041993e-01
4.744089e-01
5.637939e-01
6.700085e-01
7.925780e-01
9.107115e-01
9.852472e-01
-4.686731e-01
-2.103035e-01
-1.521626e-01
-2.003474e-01
-1.545190e-01
-1.236584e-01
-1.099350e-01
-7.159446e-02
1.863625e-02
1.762550e-01
3.891818e-01
6.148738e-01
8.047077e-01
9.285071e-01
9.860157e-01
9.997161e-01
1 2 19 18
2 3 20 19
3 4 21 20
4 5 22 21
5 6 23 22
6 7 24 23
7 8 25 24
8 9 26 25
9 10 27 26
10 11 28 27
11 12 29 28
12 13 30 29
13 14 31 30
14 15 32 31
15 16 33 32
16 17 34 33
18 19 36 35
19 20 37 36
20 21 38 37
21 22 39 38
22 23 40 39
23 24 41 40
24 25 42 41
25 26 43 42
26 27 44 43
27 28 45 44
28 29 46 45
29 30 47 46
30 31 48 47
31 32 49 48
32 33 50 49
33 34 51 50
35 36 53 52
36 37 54 53
37 38 55 54
38 39 56 55
39 40 57 56
40 41 58 57
41 42 59 58
42 43 60 59
43 44 61 60
44 45 62 61
45 46 63 62
46 47 64 63
47 48 65 64
48 49 66 65
49 50 67 66
50 51 68 67
52 53 70 69
53 54 71 70
54 55 72 71
55 56 73 72
56 57 74 73
57 58 75 74
58 59 76 75
59 60 77 76
60 61 78 77
61 62 79 78
62 63 80 79
63 64 81 80
64 65 82 81
65 66 83 82
66 67 84 83
67 68 85 84
69 70 87 86
70 71 88 87
71 72 89 88
72 73 90 89
73 74 91 90
74 75 92 91
75 76 93 92
76 77 94 93
77 78 95 94
78 79 96 95
79 80 97 96
80 81 98 97
81 82 99 98
82 83 100 99
83 84 101 100
84 85 102 101
86 87 104 103
87 88 105 104
88 89 106 105
89 90 107 106
90 91 108 107
91 92 109 108
92 93 110 109
93 94 111 110
94 95 112 111
95 96 113 112
96 97 114 113
97 98 115 114
98 99 116 115
99 100 117 116
100 101 118 117
101 102 119 118
103 104 121 120
104 105 122 121
105 106 123 122
106 107 124 123
107 108 125 124
108 109 126 125
109 110 127 126
110 111 128 127
111 112 129 128
112 113 130 129
113 114 131 130
114 115 132 131
115 116 133 132
116 117 134 133
117 118 135 134
118 119 136 135
120 121 138 137
121 122 139 138
122 123 140 139
123 124 141 140
124 125 142 141
125 126 143 142
126 127 144 143
127 128 145 144
128 129 146 145
129 130 147 146
130 131 148 147
131 132 149 148
132 133 150 149
133 134 151 150
134 135 152 151
135 136 153 152
