TITLE = "Solution"
VARIABLES = x, y, u, v, psiu, psiv, t, stress
ZONE T="structure" N=153 E=128 F=FEBLOCK ET=QUADRILATERAL VARLOCATION=([7,8]=cellcentered)
0.000000e+00
1.250000e+01
2.500000e+01
3.750000e+01
5.000000e+01
6.250000e+01
7.500000e+01
8.750000e+01
1.000000e+02
1.125000e+02
1.250000e+02
1.375000e+02
1.500000e+02
1.625000e+02
1.750000e+02
1.875000e+02
2.000000e+02
0.000000e+00
1.250000e+01
2.500000e+01
3.750000e+01
5.000000e+01
6.250000e+01
7.500000e+01
8.750000e+01
1.000000e+02
1.125000e+02
1.250000e+02
1.375000e+02
1.500000e+02
1.625000e+02
1.750000e+02
1.875000e+02
2.000000e+02
0.000000e+00
1.250000e+01
2.500000e+01
3.750000e+01
5.000000e+01
6.250000e+01
7.500000e+01
8.750000e+01
1.000000e+02
1.125000e+02
1.250000e+02
1.375000e+02
1.500000e+02
1.625000e+02
1.750000e+02
1.875000e+02
2.000000e+02
0.000000e+00
1.250000e+01
2.500000e+01
3.750000e+01
5.000000e+01
6.250000e+01
7.500000e+01
8.750000e+01
1.000000e+02
1.125000e+02
1.250000e+02
1.375000e+02
1.500000e+02
1.625000e+02
1.750000e+02
1.875000e+02
2.000000e+02
0.000000e+00
1.250000e+01
2.500000e+01
3.750000e+01
5.000000e+01
6.250000e+01
7.500000e+01
8.750000e+01
1.000000e+02
1.125000e+02
1.250000e+02
1.375000e+02
1.500000e+02
1.625000e+02
1.750000e+02
1.875000e+02
2.000000e+02
0.000000e+00
1.250000e+01
2.500000e+01
3.750000e+01
5.000000e+01
6.250000e+01
7.500000e+01
8.750000e+01
1.000000e+02
1.125000e+02
1.250000e+02
1.375000e+02
1.500000e+02
1.625000e+02
1.750000e+02
1.875000e+02
2.000000e+02
0.000000e+00
1.250000e+01
2.500000e+01
3.750000e+01
5.000000e+01
6.250000e+01
7.500000e+01
8.750000e+01
1.000000e+02
1.125000e+02
1.250000e+02
1.375000e+02
1.500000e+02
1.625000e+02
1.750000e+02
1.875000e+02
2.000000e+02
0.000000e+00
1.250000e+01
2.500000e+01
3.750000e+01
5.000000e+01
6.250000e+01
7.500000e+01
8.750000e+01
1.000000e+02
1.125000e+02
1.250000e+02
1.375000e+02
1.500000e+02
1.625000e+02
1.750000e+02
1.875000e+02
2.000000e+02
0.000000e+00
1.250000e+01
2.500000e+01
3.750000e+01
5.000000e+01
6.250000e+01
7.500000e+01
8.750000e+01
1.000000e+02
1.125000e+02
1.250000e+02
1.375000e+02
1.500000e+02
1.625000e+02
1.750000e+02
1.875000e+02
2.000000e+02
0.000000e+00
0.000000e+00
0.000000e+00
0.000000e+00
0.000000e+00
0.000000e+00
0.000000e+00
0.000000e+00
0.000000e+00
0.000000e+00
0.000000e+00
0.000000e+00
0.000000e+00
0.000000e+00
0.000000e+00
0.000000e+00
0.000000e+00
1.250000e+01
1.250000e+01
1.250000e+01
1.250000e+01
1.250000e+01
1.250000e+01
1.250000e+01
1.250000e+01
1.250000e+01
1.250000e+01
1.250000e+01
1.250000e+01
1.250000e+01
1.250000e+01
1.250000e+01
1.250000e+01
1.250000e+01
2.500000e+01
2.500000e+01
2.500000e+01
2.500000e+01
2.500000e+01
2.500000e+01
2.500000e+01
2.500000e+01
2.500000e+01
2.500000e+01
2.500000e+01
2.500000e+01
2.500000e+01
2.500000e+01
2.500000e+01
2.500000e+01
2.500000e+01
3.750000e+01
3.750000e+01
3.750000e+01
3.750000e+01
3.750000e+01
3.750000e+01
3.750000e+01
3.750000e+01
3.750000e+01
3.750000e+01
3.750000e+01
3.750000e+01
3.750000e+01
3.750000e+01
3.750000e+01
3.750000e+01
3.750000e+01
5.000000e+01
5.000000e+01
5.000000e+01
5.000000e+01
5.000000e+01
5.000000e+01
5.000000e+01
5.000000e+01
5.000000e+01
5.000000e+01
5.000000e+01
5.000000e+01
5.000000e+01
5.000000e+01
5.000000e+01
5.000000e+01
5.000000e+01
6.250000e+01
6.250000e+01
6.250000e+01
6.250000e+01
6.250000e+01
6.250000e+01
6.250000e+01
6.250000e+01
6.250000e+01
6.250000e+01
6.250000e+01
6.250000e+01
6.250000e+01
6.250000e+01
6.250000e+01
6.250000e+01
6.250000e+01
7.500000e+01
7.500000e+01
7.500000e+01
7.500000e+01
7.500000e+01
7.500000e+01
7.500000e+01
7.500000e+01
7.500000e+01
7.500000e+01
7.500000e+01
7.500000e+01
7.500000e+01
7.500000e+01
7.500000e+01
7.500000e+01
7.500000e+01
8.750000e+01
8.750000e+01
8.750000e+01
8.750000e+01
8.750000e+01
8.750000e+01
8.750000e+01
8.750000e+01
8.750000e+01
8.750000e+01
8.750000e+01
8.750000e+01
8.750000e+01
8.750000e+01
8.750000e+01
8.750000e+01
8.750000e+01
1.000000e+02
1.000000e+02
1.000000e+02
1.000000e+02
1.000000e+02
1.000000e+02
1.000000e+02
1.000000e+02
1.000000e+02
1.000000e+02
1.000000e+02
1.000000e+02
1.000000e+02
1.000000e+02
1.000000e+02
1.000000e+02
1.000000e+02
0.000000e+00
-1.000410e+00
-1.677930e+00
-2.431702e+00
-3.123073e+00
-3.748446e+00
-4.459844e+00
-5.093118e+00
-5.755132e+00
-6.416745e+00
-7.056444e+00
-7.722199e+00
-8.380531e+00
-9.148374e+00
-1.006934e+01
-1.083139e+01
-1.128573e+01
0.000000e+00
-4.481748e-01
-9.046565e-01
-1.418051e+00
-1.932295e+00
-2.406198e+00
-2.922907e+00
-3.420752e+00
-3.912259e+00
-4.421728e+00
-4.914556e+00
-5.411249e+00
-5.901047e+00
-6.419240e+00
-6.896877e+00
-7.024247e+00
-7.203618e+00
0.000000e+00
-1.455047e-01
-3.465578e-01
-6.369062e-01
-9.751890e-01
-1.297021e+00
-1.650786e+00
-2.007764e+00
-2.350639e+00
-2.713385e+00
-3.054287e+00
-3.384155e+00
-3.681310e+00
-3.918058e+00
-4.031976e+00
-4.032875e+00
-4.179616e+00
0.000000e+00
-7.818237e-02
-1.599555e-01
-3.066320e-01
-4.510096e-01
-6.220482e-01
-8.083658e-01
-9.734729e-01
-1.157989e+00
-1.322866e+00
-1.479573e+00
-1.620047e+00
-1.715291e+00
-1.725341e+00
-1.650085e+00
-1.628555e+00
-1.745184e+00
0.000000e+00
-2.579570e-03
-5.959091e-03
-8.419402e-03
-1.154020e-02
-1.358325e-02
-1.097151e-02
-6.494580e-03
3.066342e-03
2.093350e-02
4.289956e-02
8.422901e-02
1.612730e-01
2.674611e-01
3.825151e-01
4.290543e-01
3.299886e-01
0.000000e+00
7.363592e-02
1.514692e-01
2.912088e-01
4.293496e-01
5.998434e-01
7.841451e-01
9.605246e-01
1.170451e+00
1.361349e+00
1.571446e+00
1.782393e+00
2.007575e+00
2.212856e+00
2.340393e+00
2.369260e+00
2.302286e+00
0.000000e+00
1.439137e-01
3.444168e-01
6.295908e-01
9.614279e-01
1.282090e+00
1.631457e+00
1.992110e+00
2.355935e+00
2.767009e+00
3.149420e+00
3.507619e+00
3.837831e+00
4.118830e+00
4.294079e+00
4.346533e+00
4.321544e+00
0.000000e+00
4.449149e-01
9.088132e-01
1.419662e+00
1.929112e+00
2.410604e+00
2.918230e+00
3.413126e+00
3.901198e+00
4.391429e+00
4.875474e+00
5.349324e+00
5.766393e+00
6.117597e+00
6.335375e+00
6.432468e+00
6.450471e+00
0.000000e+00
9.947188e-01
1.685811e+00
2.441907e+00
3.130202e+00
3.776520e+00
4.481993e+00
5.108049e+00
5.757055e+00
6.331894e+00
6.903092e+00
7.504094e+00
8.021067e+00
8.436402e+00
8.638698e+00
8.693127e+00
8.694277e+00
0.000000e+00
-6.199915e-01
-1.362975e+00
-2.367138e+00
-3.543668e+00
-4.889319e+00
-6.427019e+00
-8.118693e+00
-9.983265e+00
-1.201701e+01
-1.420428e+01
-1.655778e+01
-1.907724e+01
-2.181176e+01
-2.478011e+01
-2.813275e+01
-3.316067e+01
0.000000e+00
-4.178599e-01
-1.195319e+00
-2.179730e+00
-3.375444e+00
-4.715831e+00
-6.248585e+00
-7.951066e+00
-9.807079e+00
-1.184695e+01
-1.403519e+01
-1.638903e+01
-1.890398e+01
-2.161869e+01
-2.464011e+01
-2.805182e+01
-3.209137e+01
0.000000e+00
-3.925974e-01
-1.093187e+00
-2.075966e+00
-3.257424e+00
-4.588814e+00
-6.129048e+00
-7.822218e+00
-9.686963e+00
-1.172738e+01
-1.392390e+01
-1.629143e+01
-1.881552e+01
-2.155202e+01
-2.462929e+01
-2.790801e+01
-3.093163e+01
0.000000e+00
-4.513176e-01
-1.089254e+00
-2.049750e+00
-3.194222e+00
-4.517945e+00
-6.065844e+00
-7.746681e+00
-9.630073e+00
-1.167335e+01
-1.388675e+01
-1.627524e+01
-1.882715e+01
-2.156018e+01
-2.455360e+01
-2.760748e+01
-3.023251e+01
0.000000e+00
-4.569285e-01
-1.111849e+00
-2.034657e+00
-3.176906e+00
-4.508013e+00
-6.042676e+00
-7.743342e+00
-9.626570e+00
-1.168500e+01
-1.391920e+01
-1.630682e+01
-1.887025e+01
-2.156479e+01
-2.439036e+01
-2.722790e+01
-2.961984e+01
0.000000e+00
-4.472674e-01
-1.088706e+00
-2.052052e+00
-3.195458e+00
-4.534836e+00
-6.091484e+00
-7.783378e+00
-9.692584e+00
-1.175263e+01
-1.399267e+01
-1.636084e+01
-1.889681e+01
-2.155861e+01
-2.425475e+01
-2.688981e+01
-2.916594e+01
0.000000e+00
-3.870134e-01
-1.091245e+00
-2.078360e+00
-3.262401e+00
-4.615439e+00
-6.174683e+00
-7.897150e+00
-9.802268e+00
-1.187226e+01
-1.407968e+01
-1.643102e+01
-1.893159e+01
-2.155741e+01
-2.417656e+01
-2.668282e+01
-2.892992e+01
0.000000e+00
-4.126688e-01
-1.192241e+00
-2.181196e+00
-3.382838e+00
-4.742549e+00
-6.301675e+00
-8.039662e+00
-9.942641e+00
-1.201188e+01
-1.419435e+01
-1.653123e+01
-1.900626e+01
-2.159528e+01
-2.415708e+01
-2.659623e+01
-2.886579e+01
0.000000e+00
-6.167554e-01
-1.361686e+00
-2.367506e+00
-3.553388e+00
-4.917981e+00
-6.479603e+00
-8.207893e+00
-1.011413e+01
-1.216693e+01
-1.434941e+01
-1.667845e+01
-1.912843e+01
-2.167592e+01
-2.418283e+01
-2.658194e+01
-2.886383e+01


0.000000e+00
1.532415e-05
2.477891e-05
3.692105e-05
5.243895e-05
6.529027e-05
8.109763e-05
9.480345e-05
1.103597e-04
1.247403e-04
1.405716e-04
1.555349e-04
1.717363e-04
1.877516e-04
1.979938e-04
2.038113e-04
2.110453e-04
0.000000e+00
1.144661e-05
1.980352e-05
2.868855e-05
4.131908e-05
5.237172e-05
6.285511e-05
7.426810e-05
8.453331e-05
9.550687e-05
1.055767e-04
1.158328e-04
1.261271e-04
1.356402e-04
1.379439e-04
1.417784e-04
1.477041e-04
0.000000e+00
9.683733e-06
1.557050e-05
2.145581e-05
3.082334e-05
3.849272e-05
4.485589e-05
5.260253e-05
5.839809e-05
6.490998e-05
7.001775e-05
7.497196e-05
7.863084e-05
8.072188e-05
8.044901e-05
8.301291e-05
8.729228e-05
0.000000e+00
5.445534e-06
7.478073e-06
1.117698e-05
1.588499e-05
1.813458e-05
2.272669e-05
2.456818e-05
2.790073e-05
2.880214e-05
3.090091e-05
2.990399e-05
2.830800e-05
2.656272e-05
2.673008e-05
3.024954e-05
3.591052e-05
0.000000e+00
-9.341423e-08
-2.338665e-07
-4.413982e-07
-6.725887e-07
-9.638560e-07
-1.379223e-06
-1.718549e-06
-2.707120e-06
-4.112474e-06
-7.480024e-06
-1.177903e-05
-1.459281e-05
-1.546625e-05
-1.505569e-05
-1.273447e-05
-8.551375e-06
0.000000e+00
-5.577117e-06
-7.863106e-06
-1.179418e-05
-1.703235e-05
-1.992719e-05
-2.468772e-05
-2.790643e-05
-3.098488e-05
-3.318072e-05
-3.703942e-05
-4.228927e-05
-4.642482e-05
-4.752147e-05
-4.808983e-05
-4.858648e-05
-4.695661e-05
0.000000e+00
-9.759458e-06
-1.560327e-05
-2.154927e-05
-3.150521e-05
-3.922729e-05
-4.615987e-05
-5.423284e-05
-5.939965e-05
-6.414378e-05
-6.857772e-05
-7.323294e-05
-7.716517e-05
-8.000502e-05
-8.221926e-05
-8.418488e-05
-8.490326e-05
0.000000e+00
-1.145446e-05
-1.975957e-05
-2.851324e-05
-4.140384e-05
-5.228549e-05
-6.286659e-05
-7.454689e-05
-8.456627e-05
-9.510934e-05
-1.054544e-04
-1.127964e-04
-1.176121e-04
-1.224149e-04
-1.257256e-04
-1.269616e-04
-1.270996e-04
0.000000e+00
-1.538739e-05
-2.487084e-05
-3.673057e-05
-5.207569e-05
-6.476028e-05
-7.963140e-05
-9.370758e-05
-1.085679e-04
-1.245099e-04
-1.426465e-04
-1.573632e-04
-1.654775e-04
-1.704474e-04
-1.726513e-04
-1.727639e-04
-1.725535e-04
0.000000e+00
1.261513e-05
1.992011e-05
3.198613e-05
4.733224e-05
6.365730e-05
8.509742e-05
1.098480e-04
1.392340e-04
1.729276e-04
2.120879e-04
2.564304e-04
3.068879e-04
3.622416e-04
4.243026e-04
4.950353e-04
5.685312e-04
0.000000e+00
7.717860e-06
1.601823e-05
2.590435e-05
4.096108e-05
5.775714e-05
7.862639e-05
1.038758e-04
1.328033e-04
1.668972e-04
2.057429e-04
2.503661e-04
3.005138e-04
3.571517e-04
4.188188e-04
4.873475e-04
5.577299e-04
0.000000e+00
4.263823e-06
1.202032e-05
2.111760e-05
3.504503e-05
5.283398e-05
7.354799e-05
9.898221e-05
1.281239e-04
1.621705e-04
2.014227e-04
2.461968e-04
2.971932e-04
3.550553e-04
4.146043e-04
4.799400e-04
5.478534e-04
0.000000e+00
2.940642e-06
9.935834e-06
1.895499e-05
3.290722e-05
5.049356e-05
7.194864e-05
9.704052e-05
1.266954e-04
1.600635e-04
1.995225e-04
2.454451e-04
2.973145e-04
3.542787e-04
4.119156e-04
4.721241e-04
5.339248e-04
0.000000e+00
2.434828e-06
9.400579e-06
1.847014e-05
3.237136e-05
4.999281e-05
7.125562e-05
9.675366e-05
1.261883e-04
1.589739e-04
1.983662e-04
2.463694e-04
2.985167e-04
3.547478e-04
4.108349e-04
4.652745e-04
5.174759e-04
0.000000e+00
3.054902e-06
1.014479e-05
1.908871e-05
3.303681e-05
5.056390e-05
7.154704e-05
9.680972e-05
1.260196e-04
1.583688e-04
1.991838e-04
2.490379e-04
3.011248e-04
3.548626e-04
4.107315e-04
4.626479e-04
5.061350e-04
0.000000e+00
4.425974e-06
1.232595e-05
2.136835e-05
3.538396e-05
5.272491e-05
7.304134e-05
9.788688e-05
1.262014e-04
1.595772e-04
2.017565e-04
2.526067e-04
3.044667e-04
3.563764e-04
4.097808e-04
4.600392e-04
5.027784e-04
0.000000e+00
7.846358e-06
1.632184e-05
2.630488e-05
4.130325e-05
5.781503e-05
7.811017e-05
1.025557e-04
1.302787e-04
1.641913e-04
2.061671e-04
2.556909e-04
3.072622e-04
3.582797e-04
4.097052e-04
4.582129e-04
5.032216e-04
0.000000e+00
1.276657e-05
2.019686e-05
3.239529e-05
4.772135e-05
6.369249e-05
8.464258e-05
1.086782e-04
1.366041e-04
1.709627e-04
2.126504e-04
2.593567e-04
3.090156e-04
3.596173e-04
4.098777e-04
4.577569e-04
5.035011e-04


5.851955e+00
6.210967e+00
6.887145e+00
5.987242e+00
5.972461e+00
6.932684e+00
6.200495e+00
5.623942e+00
5.523378e+00
5.825758e+00
6.453289e+00
7.275900e+00
8.868266e+00
9.829950e+00
9.160452e+00
8.004305e+00
8.156005e+00
8.495668e+00
8.667404e+00
8.361864e+00
8.352943e+00
8.692009e+00
8.555302e+00
8.102221e+00
8.157764e+00
8.294960e+00
8.468976e+00
8.918051e+00
9.504250e+00
9.845422e+00
8.465129e+00
6.427547e+00
9.855603e+00
9.824106e+00
1.000000e+01
9.839703e+00
9.835474e+00
1.000000e+01
9.837698e+00
9.886869e+00
9.860869e+00
9.865282e+00
9.918824e+00
9.876127e+00
9.912858e+00
9.725604e+00
8.508727e+00
6.566056e+00
1.000000e+01
1.000000e+01
1.000000e+01
1.000000e+01
1.000000e+01
1.000000e+01
1.000000e+01
1.000000e+01
1.000000e+01
1.000000e+01
1.000000e+01
9.555909e+00
8.967312e+00
8.879037e+00
8.901845e+00
8.600400e+00
1.000000e+01
1.000000e+01
1.000000e+01
1.000000e+01
1.000000e+01
1.000000e+01
1.000000e+01
1.000000e+01
1.000000e+01
9.985889e+00
9.381178e+00
8.737087e+00
7.863216e+00
8.049737e+00
9.118153e+00
9.623316e+00
9.836150e+00
9.824533e+00
1.000000e+01
9.837155e+00
9.838541e+00
9.914656e+00
9.836670e+00
1.000000e+01
9.788616e+00
9.243208e+00
8.541998e+00
8.019955e+00
8.357015e+00
8.777321e+00
9.480672e+00
1.000000e+01
8.038602e+00
8.440489e+00
8.658886e+00
8.358574e+00
8.019944e+00
8.178576e+00
8.660225e+00
8.707872e+00
8.619599e+00
8.095307e+00
7.820579e+00
8.556954e+00
9.369658e+00
9.867820e+00
1.000000e+01
1.000000e+01
5.561891e+00
6.094146e+00
6.854372e+00
5.857463e+00
5.293446e+00
5.812556e+00
6.394977e+00
7.182251e+00
6.919701e+00
7.107688e+00
8.197063e+00
9.077324e+00
1.000000e+01
1.000000e+01
1.000000e+01
1.000000e+01


-8.350755e-01
-1.484782e-01
-4.028228e-01
-2.742898e-01
-6.684762e-02
-3.204566e-01
-1.306862e-01
-1.744252e-01
-2.138929e-01
-1.390496e-01
-1.974146e-01
-1.702484e-01
-4.538213e-01
-6.668629e-01
3.068521e-01
-8.855103e-01
6.086226e-01
4.896038e-01
2.946318e-01
2.191943e-01
3.047280e-01
1.596665e-01
1.708664e-01
1.787407e-01
9.038990e-02
1.428274e-01
1.470517e-01
2.309003e-01
3.137390e-01
5.020190e-01
6.997549e-01
-8.757377e-01
7.208836e-01
4.744716e-01
5.549296e-02
-3.230556e-02
-2.866377e-02
-2.027630e-01
-1.008211e-01
-1.322141e-01
-1.052269e-01
-1.429231e-02
4.025266e-02
1.719737e-01
2.842629e-01
1.299863e-01
-4.333346e-02
-1.112140e-01
7.264817e-01
5.559915e-01
1.895955e-01
5.397419e-02
-2.318067e-02
-1.150783e-01
-3.250299e-02
-6.331269e-02
-3.926928e-03
1.590494e-02
5.967838e-02
8.464128e-02
5.232525e-02
-2.981460e-01
-5.072367e-01
-1.343225e-01
7.306213e-01
5.576185e-01
1.946833e-01
6.138080e-02
-3.417671e-02
-1.268535e-01
-5.954253e-02
-1.094417e-01
-5.075887e-02
-5.370417e-02
3.344212e-02
-1.318303e-02
-2.664326e-02
-8.219258e-02
-1.537273e-01
2.503488e-01
7.304837e-01
4.780324e-01
7.211948e-02
-6.364412e-03
-5.477878e-02
-2.216929e-01
-1.711136e-01
-2.864998e-01
-2.443865e-01
-1.414362e-01
-5.484101e-02
-1.067519e-01
-1.259998e-01
9.666872e-02
3.578864e-01
7.273464e-01
6.169286e-01
4.817234e-01
3.082887e-01
2.397038e-01
2.903683e-01
1.700981e-01
1.390315e-01
8.432157e-02
-7.444030e-02
-6.980262e-02
-7.833907e-02
-3.601928e-02
2.472637e-02
3.689928e-01
7.114403e-01
9.459942e-01
-8.118966e-01
-1.897373e-01
-4.017338e-01
-2.589881e-01
-1.209266e-01
-2.912302e-01
-1.155606e-01
-1.515073e-01
-3.208006e-02
-2.832525e-02
-8.882126e-02
1.410311e-01
3.729561e-01
7.720183e-01
9.519288e-01
9.985865e-01
1 2 19 18
2 3 20 19
3 4 21 20
4 5 22 21
5 6 23 22
6 7 24 23
7 8 25 24
8 9 26 25
9 10 27 26
10 11 28 27
11 12 29 28
12 13 30 29
13 14 31 30
14 15 32 31
15 16 33 32
16 17 34 33
18 19 36 35
19 20 37 36
20 21 38 37
21 22 39 38
22 23 40 39
23 24 41 40
24 25 42 41
25 26 43 42
26 27 44 43
27 28 45 44
28 29 46 45
29 30 47 46
30 31 48 47
31 32 49 48
32 33 50 49
33 34 51 50
35 36 53 52
36 37 54 53
37 38 55 54
38 39 56 55
39 40 57 56
40 41 58 57
41 42 59 58
42 43 60 59
43 44 61 60
44 45 62 61
45 46 63 62
46 47 64 63
47 48 65 64
48 49 66 65
49 50 67 66
50 51 68 67
52 53 70 69
53 54 71 70
54 55 72 71
55 56 73 72
56 57 74 73
57 58 75 74
58 59 76 75
59 60 77 76
60 61 78 77
61 62 79 78
62 63 80 79
63 64 81 80
64 65 82 81
65 66 83 82
66 67 84 83
67 68 85 84
69 70 87 86
70 71 88 87
71 72 89 88
72 73 90 89
73 74 91 90
74 75 92 91
75 76 93 92
76 77 94 93
77 78 95 94
78 79 96 95
79 80 97 96
80 81 98 97
81 82 99 98
82 83 100 99
83 84 101 100
84 85 102 101
86 87 104 103
87 88 105 104
88 89 106 105
89 90 107 106
90 91 108 107
91 92 109 108
92 93 110 109
93 94 111 110
94 95 112 111
95 96 113 112
96 97 114 113
97 98 115 114
98 99 116 115
99 100 117 116
100 101 118 117
101 102 119 118
103 104 121 120
104 105 122 121
105 106 123 122
106 107 124 123
107 108 125 124
108 109 126 125
109 110 127 126
110 111 128 127
111 112 129 128
112 113 130 129
113 114 131 130
114 115 132 131
115 116 133 132
116 117 134 133
117 118 135 134
118 119 136 135
120 121 138 137
121 122 139 138
122 123 140 139
123 124 141 140
124 125 142 141
125 126 143 142
126 127 144 143
127 128 145 144
128 129 146 145
129 130 147 146
130 131 148 147
131 132 149 148
132 133 150 149
133 134 151 150
134 135 152 151
135 136 153 152
