TITLE = "Solution"
VARIABLES = x, y, u, v, psiu, psiv, t, stress
ZONE T="structure" N=153 E=128 F=FEBLOCK ET=QUADRILATERAL VARLOCATION=([7,8]=cellcentered)
0.000000e+00
1.250000e+01
2.500000e+01
3.750000e+01
5.000000e+01
6.250000e+01
7.500000e+01
8.750000e+01
1.000000e+02
1.125000e+02
1.250000e+02
1.375000e+02
1.500000e+02
1.625000e+02
1.750000e+02
1.875000e+02
2.000000e+02
0.000000e+00
1.250000e+01
2.500000e+01
3.750000e+01
5.000000e+01
6.250000e+01
7.500000e+01
8.750000e+01
1.000000e+02
1.125000e+02
1.250000e+02
1.375000e+02
1.500000e+02
1.625000e+02
1.750000e+02
1.875000e+02
2.000000e+02
0.000000e+00
1.250000e+01
2.500000e+01
3.750000e+01
5.000000e+01
6.250000e+01
7.500000e+01
8.750000e+01
1.000000e+02
1.125000e+02
1.250000e+02
1.375000e+02
1.500000e+02
1.625000e+02
1.750000e+02
1.875000e+02
2.000000e+02
0.000000e+00
1.250000e+01
2.500000e+01
3.750000e+01
5.000000e+01
6.250000e+01
7.500000e+01
8.750000e+01
1.000000e+02
1.125000e+02
1.250000e+02
1.375000e+02
1.500000e+02
1.625000e+02
1.750000e+02
1.875000e+02
2.000000e+02
0.000000e+00
1.250000e+01
2.500000e+01
3.750000e+01
5.000000e+01
6.250000e+01
7.500000e+01
8.750000e+01
1.000000e+02
1.125000e+02
1.250000e+02
1.375000e+02
1.500000e+02
1.625000e+02
1.750000e+02
1.875000e+02
2.000000e+02
0.000000e+00
1.250000e+01
2.500000e+01
3.750000e+01
5.000000e+01
6.250000e+01
7.500000e+01
8.750000e+01
1.000000e+02
1.125000e+02
1.250000e+02
1.375000e+02
1.500000e+02
1.625000e+02
1.750000e+02
1.875000e+02
2.000000e+02
0.000000e+00
1.250000e+01
2.500000e+01
3.750000e+01
5.000000e+01
6.250000e+01
7.500000e+01
8.750000e+01
1.000000e+02
1.125000e+02
1.250000e+02
1.375000e+02
1.500000e+02
1.625000e+02
1.750000e+02
1.875000e+02
2.000000e+02
0.000000e+00
1.250000e+01
2.500000e+01
3.750000e+01
5.000000e+01
6.250000e+01
7.500000e+01
8.750000e+01
1.000000e+02
1.125000e+02
1.250000e+02
1.375000e+02
1.500000e+02
1.625000e+02
1.750000e+02
1.875000e+02
2.000000e+02
0.000000e+00
1.250000e+01
2.500000e+01
3.750000e+01
5.000000e+01
6.250000e+01
7.500000e+01
8.750000e+01
1.000000e+02
1.125000e+02
1.250000e+02
1.375000e+02
1.500000e+02
1.625000e+02
1.750000e+02
1.875000e+02
2.000000e+02
0.000000e+00
0.000000e+00
0.000000e+00
0.000000e+00
0.000000e+00
0.000000e+00
0.000000e+00
0.000000e+00
0.000000e+00
0.000000e+00
0.000000e+00
0.000000e+00
0.000000e+00
0.000000e+00
0.000000e+00
0.000000e+00
0.000000e+00
1.250000e+01
1.250000e+01
1.250000e+01
1.250000e+01
1.250000e+01
1.250000e+01
1.250000e+01
1.250000e+01
1.250000e+01
1.250000e+01
1.250000e+01
1.250000e+01
1.250000e+01
1.250000e+01
1.250000e+01
1.250000e+01
1.250000e+01
2.500000e+01
2.500000e+01
2.500000e+01
2.500000e+01
2.500000e+01
2.500000e+01
2.500000e+01
2.500000e+01
2.500000e+01
2.500000e+01
2.500000e+01
2.500000e+01
2.500000e+01
2.500000e+01
2.500000e+01
2.500000e+01
2.500000e+01
3.750000e+01
3.750000e+01
3.750000e+01
3.750000e+01
3.750000e+01
3.750000e+01
3.750000e+01
3.750000e+01
3.750000e+01
3.750000e+01
3.750000e+01
3.750000e+01
3.750000e+01
3.750000e+01
3.750000e+01
3.750000e+01
3.750000e+01
5.000000e+01
5.000000e+01
5.000000e+01
5.000000e+01
5.000000e+01
5.000000e+01
5.000000e+01
5.000000e+01
5.000000e+01
5.000000e+01
5.000000e+01
5.000000e+01
5.000000e+01
5.000000e+01
5.000000e+01
5.000000e+01
5.000000e+01
6.250000e+01
6.250000e+01
6.250000e+01
6.250000e+01
6.250000e+01
6.250000e+01
6.250000e+01
6.250000e+01
6.250000e+01
6.250000e+01
6.250000e+01
6.250000e+01
6.250000e+01
6.250000e+01
6.250000e+01
6.250000e+01
6.250000e+01
7.500000e+01
7.500000e+01
7.500000e+01
7.500000e+01
7.500000e+01
7.500000e+01
7.500000e+01
7.500000e+01
7.500000e+01
7.500000e+01
7.500000e+01
7.500000e+01
7.500000e+01
7.500000e+01
7.500000e+01
7.500000e+01
7.500000e+01
8.750000e+01
8.750000e+01
8.750000e+01
8.750000e+01
8.750000e+01
8.750000e+01
8.750000e+01
8.750000e+01
8.750000e+01
8.750000e+01
8.750000e+01
8.750000e+01
8.750000e+01
8.750000e+01
8.750000e+01
8.750000e+01
8.750000e+01
1.000000e+02
1.000000e+02
1.000000e+02
1.000000e+02
1.000000e+02
1.000000e+02
1.000000e+02
1.000000e+02
1.000000e+02
1.000000e+02
1.000000e+02
1.000000e+02
1.000000e+02
1.000000e+02
1.000000e+02
1.000000e+02
1.000000e+02
0.000000e+00
-9.901772e-01
-1.679974e+00
-2.429613e+00
-3.111159e+00
-3.755063e+00
-4.453477e+00
-5.087971e+00
-5.762386e+00
-6.402942e+00
-7.058499e+00
-7.719742e+00
-8.376532e+00
-9.152236e+00
-1.007612e+01
-1.082976e+01
-1.128016e+01
0.000000e+00
-4.437777e-01
-9.091176e-01
-1.419254e+00
-1.929881e+00
-2.413852e+00
-2.926258e+00
-3.424316e+00
-3.921256e+00
-4.422031e+00
-4.917185e+00
-5.417400e+00
-5.902380e+00
-6.425132e+00
-6.895170e+00
-7.019453e+00
-7.198120e+00
0.000000e+00
-1.472555e-01
-3.521091e-01
-6.421019e-01
-9.800706e-01
-1.306330e+00
-1.660232e+00
-2.014809e+00
-2.360163e+00
-2.719748e+00
-3.059499e+00
-3.392672e+00
-3.686988e+00
-3.926301e+00
-4.033117e+00
-4.030214e+00
-4.179106e+00
0.000000e+00
-7.871394e-02
-1.624269e-01
-3.088846e-01
-4.533823e-01
-6.283213e-01
-8.103987e-01
-9.783889e-01
-1.163004e+00
-1.325279e+00
-1.486938e+00
-1.624961e+00
-1.717355e+00
-1.724658e+00
-1.652245e+00
-1.633190e+00
-1.751488e+00
0.000000e+00
-2.937588e-03
-6.428078e-03
-1.003503e-02
-1.337655e-02
-1.545205e-02
-1.505232e-02
-1.085790e-02
-1.698871e-03
1.511177e-02
3.940594e-02
8.327184e-02
1.646558e-01
2.788536e-01
3.974387e-01
4.365797e-01
3.382658e-01
0.000000e+00
7.366704e-02
1.519388e-01
2.916582e-01
4.302984e-01
6.006082e-01
7.821193e-01
9.578641e-01
1.161526e+00
1.354198e+00
1.567810e+00
1.788085e+00
2.012300e+00
2.215976e+00
2.350918e+00
2.383862e+00
2.318673e+00
0.000000e+00
1.453982e-01
3.474459e-01
6.336850e-01
9.675612e-01
1.290542e+00
1.643348e+00
2.003053e+00
2.369438e+00
2.769696e+00
3.146533e+00
3.513720e+00
3.847839e+00
4.120372e+00
4.294807e+00
4.349733e+00
4.327557e+00
0.000000e+00
4.449137e-01
9.097309e-01
1.419855e+00
1.929963e+00
2.411463e+00
2.921160e+00
3.415119e+00
3.904604e+00
4.397349e+00
4.875661e+00
5.350754e+00
5.782081e+00
6.128180e+00
6.343875e+00
6.438891e+00
6.456322e+00
0.000000e+00
9.926043e-01
1.684000e+00
2.437815e+00
3.124008e+00
3.769830e+00
4.469852e+00
5.097067e+00
5.741264e+00
6.329537e+00
6.906128e+00
7.505943e+00
8.039367e+00
8.447382e+00
8.649370e+00
8.702826e+00
8.703456e+00
0.000000e+00
-6.166496e-01
-1.358627e+00
-2.356298e+00
-3.528032e+00
-4.870907e+00
-6.398604e+00
-8.083382e+00
-9.941999e+00
-1.196310e+01
-1.414717e+01
-1.649389e+01
-1.900653e+01
-2.173725e+01
-2.469894e+01
-2.805944e+01
-3.307549e+01
0.000000e+00
-4.129259e-01
-1.189712e+00
-2.171013e+00
-3.358206e+00
-4.695882e+00
-6.222060e+00
-7.913701e+00
-9.766652e+00
-1.179498e+01
-1.397491e+01
-1.632708e+01
-1.883228e+01
-2.154516e+01
-2.455991e+01
-2.797508e+01
-3.202729e+01
0.000000e+00
-3.866642e-01
-1.088438e+00
-2.067466e+00
-3.237896e+00
-4.571035e+00
-6.100721e+00
-7.785189e+00
-9.647453e+00
-1.167359e+01
-1.386484e+01
-1.622751e+01
-1.874391e+01
-2.148310e+01
-2.455062e+01
-2.782215e+01
-3.085374e+01
0.000000e+00
-4.450800e-01
-1.084450e+00
-2.041001e+00
-3.173842e+00
-4.502432e+00
-6.036178e+00
-7.710730e+00
-9.590006e+00
-1.161630e+01
-1.382786e+01
-1.620996e+01
-1.875311e+01
-2.149264e+01
-2.448243e+01
-2.751160e+01
-3.013261e+01
0.000000e+00
-4.528520e-01
-1.105997e+00
-2.024806e+00
-3.161223e+00
-4.489150e+00
-6.015837e+00
-7.708212e+00
-9.582766e+00
-1.162973e+01
-1.385200e+01
-1.624453e+01
-1.879483e+01
-2.149379e+01
-2.433160e+01
-2.714617e+01
-2.952944e+01
0.000000e+00
-4.439185e-01
-1.083779e+00
-2.042656e+00
-3.181152e+00
-4.517331e+00
-6.062855e+00
-7.749858e+00
-9.645743e+00
-1.169573e+01
-1.391969e+01
-1.629675e+01
-1.882770e+01
-2.148347e+01
-2.419525e+01
-2.682758e+01
-2.909420e+01
0.000000e+00
-3.850617e-01
-1.087654e+00
-2.070694e+00
-3.250251e+00
-4.597651e+00
-6.147855e+00
-7.859627e+00
-9.752081e+00
-1.180934e+01
-1.400675e+01
-1.636367e+01
-1.886852e+01
-2.148395e+01
-2.411161e+01
-2.662097e+01
-2.886351e+01
0.000000e+00
-4.114204e-01
-1.188892e+00
-2.174461e+00
-3.371545e+00
-4.725099e+00
-6.275683e+00
-8.000818e+00
-9.890070e+00
-1.194561e+01
-1.412337e+01
-1.646265e+01
-1.894590e+01
-2.152580e+01
-2.409096e+01
-2.653298e+01
-2.880349e+01
0.000000e+00
-6.155395e-01
-1.358270e+00
-2.360579e+00
-3.541896e+00
-4.900574e+00
-6.452863e+00
-8.169141e+00
-1.006123e+01
-1.210245e+01
-1.427910e+01
-1.661141e+01
-1.906949e+01
-2.160720e+01
-2.411581e+01
-2.651786e+01
-2.880236e+01


0.000000e+00
1.538397e-05
2.510472e-05
3.737698e-05
5.334440e-05
6.688678e-05
8.232872e-05
9.676135e-05
1.109548e-04
1.254491e-04
1.405999e-04
1.548704e-04
1.719737e-04
1.871947e-04
1.962335e-04
2.016703e-04
2.085432e-04
0.000000e+00
1.146089e-05
1.977097e-05
2.838945e-05
4.112145e-05
5.173747e-05
6.197332e-05
7.322528e-05
8.335069e-05
9.466317e-05
1.052770e-04
1.152444e-04
1.264919e-04
1.353609e-04
1.361272e-04
1.398071e-04
1.456432e-04
0.000000e+00
9.574463e-06
1.510385e-05
2.034564e-05
2.931631e-05
3.599982e-05
4.202851e-05
4.950007e-05
5.549181e-05
6.258076e-05
6.882300e-05
7.389032e-05
7.859858e-05
8.036797e-05
7.930874e-05
8.168914e-05
8.595808e-05
0.000000e+00
5.199289e-06
6.967117e-06
9.868365e-06
1.362389e-05
1.469035e-05
1.741513e-05
1.967904e-05
2.264832e-05
2.596723e-05
2.875740e-05
2.923276e-05
2.833983e-05
2.667910e-05
2.655691e-05
2.964831e-05
3.530392e-05
0.000000e+00
-1.455857e-07
-3.663412e-07
-7.184523e-07
-1.412116e-06
-2.315852e-06
-3.907671e-06
-5.573329e-06
-6.073842e-06
-6.630259e-06
-8.278072e-06
-1.180849e-05
-1.460902e-05
-1.588311e-05
-1.550227e-05
-1.327762e-05
-9.330364e-06
0.000000e+00
-5.412088e-06
-7.452669e-06
-1.083549e-05
-1.502274e-05
-1.693926e-05
-2.149277e-05
-2.548484e-05
-3.045686e-05
-3.342673e-05
-3.734913e-05
-4.223062e-05
-4.694001e-05
-4.839312e-05
-4.891062e-05
-4.941309e-05
-4.777816e-05
0.000000e+00
-9.544031e-06
-1.514119e-05
-2.050317e-05
-2.942883e-05
-3.603997e-05
-4.197160e-05
-5.018729e-05
-5.700780e-05
-6.369897e-05
-6.869653e-05
-7.352372e-05
-7.767099e-05
-8.091517e-05
-8.281658e-05
-8.470408e-05
-8.544702e-05
0.000000e+00
-1.138176e-05
-1.967993e-05
-2.829658e-05
-4.090302e-05
-5.169539e-05
-6.175300e-05
-7.312167e-05
-8.348333e-05
-9.458509e-05
-1.050768e-04
-1.129224e-04
-1.178501e-04
-1.227835e-04
-1.262360e-04
-1.274652e-04
-1.275620e-04
0.000000e+00
-1.540146e-05
-2.505571e-05
-3.724737e-05
-5.311875e-05
-6.660449e-05
-8.187706e-05
-9.531238e-05
-1.092869e-04
-1.236173e-04
-1.412495e-04
-1.564438e-04
-1.657533e-04
-1.708130e-04
-1.730215e-04
-1.732111e-04
-1.730205e-04
0.000000e+00
1.261432e-05
2.001304e-05
3.241426e-05
4.860110e-05
6.637409e-05
9.015371e-05
1.181521e-04
1.500374e-04
1.861630e-04
2.257102e-04
2.696498e-04
3.200836e-04
3.738441e-04
4.350949e-04
5.057255e-04
5.786744e-04
0.000000e+00
7.672745e-06
1.611934e-05
2.631613e-05
4.213064e-05
6.046507e-05
8.372346e-05
1.121922e-04
1.439013e-04
1.798838e-04
2.195431e-04
2.634059e-04
3.134597e-04
3.693040e-04
4.301283e-04
4.983798e-04
5.682892e-04
0.000000e+00
4.307055e-06
1.228634e-05
2.160123e-05
3.635893e-05
5.524874e-05
7.852229e-05
1.076249e-04
1.395760e-04
1.753524e-04
2.149591e-04
2.591196e-04
3.097283e-04
3.671604e-04
4.261993e-04
4.909207e-04
5.585065e-04
0.000000e+00
3.142799e-06
1.049220e-05
1.983075e-05
3.419133e-05
5.199853e-05
7.592469e-05
1.066336e-04
1.394235e-04
1.736246e-04
2.129614e-04
2.578746e-04
3.092035e-04
3.658077e-04
4.235540e-04
4.831180e-04
5.442862e-04
0.000000e+00
2.737484e-06
1.009623e-05
1.968935e-05
3.377798e-05
5.085183e-05
7.507873e-05
1.072871e-04
1.401753e-04
1.731055e-04
2.114099e-04
2.582091e-04
3.097167e-04
3.658740e-04
4.223882e-04
4.767607e-04
5.283307e-04
0.000000e+00
3.270550e-06
1.066072e-05
2.015998e-05
3.445966e-05
5.185407e-05
7.646919e-05
1.079029e-04
1.405507e-04
1.729488e-04
2.118628e-04
2.600342e-04
3.121662e-04
3.660572e-04
4.222294e-04
4.744417e-04
5.175840e-04
0.000000e+00
4.444698e-06
1.250298e-05
2.194533e-05
3.659905e-05
5.534938e-05
7.917613e-05
1.088017e-04
1.403148e-04
1.741870e-04
2.142566e-04
2.632872e-04
3.156285e-04
3.679590e-04
4.212299e-04
4.717761e-04
5.143039e-04
0.000000e+00
7.784286e-06
1.635182e-05
2.662386e-05
4.239940e-05
6.082249e-05
8.442461e-05
1.131252e-04
1.439914e-04
1.785957e-04
2.188596e-04
2.667821e-04
3.185947e-04
3.700760e-04
4.212610e-04
4.698119e-04
5.148069e-04
0.000000e+00
1.271318e-05
2.024692e-05
3.271001e-05
4.892835e-05
6.683179e-05
9.089182e-05
1.189324e-04
1.501508e-04
1.850297e-04
2.257489e-04
2.708775e-04
3.207049e-04
3.713104e-04
4.215210e-04
4.693307e-04
5.150812e-04


5.423227e+00
5.921087e+00
6.628285e+00
5.669215e+00
5.033352e+00
5.315504e+00
5.502528e+00
5.834054e+00
5.697313e+00
5.819717e+00
6.148902e+00
7.045033e+00
8.738619e+00
9.698615e+00
9.008872e+00
7.856995e+00
7.915381e+00
8.284835e+00
8.484964e+00
8.191389e+00
7.798351e+00
7.908531e+00
8.105730e+00
8.103449e+00
8.167771e+00
8.135662e+00
8.276622e+00
8.703028e+00
9.401282e+00
9.704751e+00
8.264582e+00
6.355660e+00
9.747456e+00
9.737270e+00
9.897052e+00
9.733502e+00
9.724730e+00
9.769595e+00
9.705418e+00
9.787785e+00
9.724212e+00
9.769800e+00
9.770663e+00
9.762528e+00
9.780638e+00
9.281245e+00
7.841288e+00
6.049662e+00
9.949228e+00
9.948345e+00
9.947914e+00
9.943010e+00
9.937645e+00
9.929531e+00
9.921342e+00
9.921786e+00
9.923910e+00
9.915836e+00
9.874602e+00
9.361494e+00
8.720367e+00
8.261854e+00
7.813258e+00
7.659820e+00
9.949013e+00
9.947845e+00
9.946997e+00
9.940734e+00
9.932147e+00
9.917722e+00
9.888129e+00
9.893664e+00
9.893351e+00
9.790502e+00
9.220520e+00
8.369349e+00
7.498541e+00
7.559006e+00
8.443225e+00
8.939548e+00
9.747886e+00
9.735222e+00
9.892405e+00
9.721273e+00
9.692851e+00
9.649458e+00
9.491701e+00
9.545183e+00
9.258127e+00
8.678441e+00
8.149428e+00
7.666389e+00
7.855362e+00
8.493048e+00
9.279497e+00
9.841206e+00
7.923238e+00
8.286065e+00
8.477788e+00
8.169788e+00
7.739193e+00
7.724275e+00
7.732833e+00
7.624017e+00
7.440328e+00
7.072079e+00
7.303087e+00
8.273076e+00
9.038621e+00
9.643727e+00
9.902779e+00
9.938092e+00
5.445684e+00
5.928275e+00
6.625152e+00
5.656899e+00
5.010588e+00
5.188920e+00
5.215847e+00
5.519479e+00
5.493142e+00
6.033494e+00
7.586744e+00
8.952213e+00
9.826240e+00
9.921641e+00
9.944361e+00
9.952573e+00


-7.997301e-01
-1.901663e-01
-3.866190e-01
-2.477551e-01
-1.206384e-01
-2.851162e-01
-1.334984e-01
-2.089300e-01
-1.551955e-01
-1.739569e-01
-1.962046e-01
-1.574922e-01
-4.803051e-01
-6.542154e-01
3.227265e-01
-8.469414e-01
6.130900e-01
4.720822e-01
3.004920e-01
2.281393e-01
2.819901e-01
1.706524e-01
1.788830e-01
1.692222e-01
1.187713e-01
1.441499e-01
1.386340e-01
2.468138e-01
3.013785e-01
5.228180e-01
6.983721e-01
-9.483461e-01
7.280234e-01
4.731625e-01
7.096548e-02
-5.776407e-04
-3.638944e-02
-1.567953e-01
-7.311153e-02
-1.188589e-01
-5.527818e-02
-7.792771e-03
5.340222e-02
2.001872e-01
2.878035e-01
1.555453e-01
-1.702800e-02
-1.769706e-01
7.330258e-01
5.576935e-01
2.010909e-01
7.620000e-02
-2.024089e-02
-8.297883e-02
-1.697611e-02
-4.629179e-02
2.748890e-02
3.316496e-02
7.223058e-02
1.214213e-01
5.717664e-02
-2.694309e-01
-3.771524e-01
-7.025711e-02
7.356564e-01
5.615163e-01
2.076073e-01
7.976858e-02
-1.958589e-02
-9.458838e-02
-3.800955e-02
-8.201688e-02
-3.020477e-02
-2.175852e-02
2.122366e-02
1.584871e-02
-3.641654e-02
-1.395900e-01
-1.042578e-01
3.181783e-01
7.340689e-01
4.834739e-01
8.747907e-02
1.167309e-02
-3.221693e-02
-1.720235e-01
-1.187011e-01
-2.057743e-01
-1.684545e-01
-9.686752e-02
-8.614753e-02
-1.023901e-01
-9.405897e-02
5.213079e-02
3.339138e-01
7.287512e-01
6.161571e-01
4.789755e-01
3.082513e-01
2.354364e-01
2.864309e-01
1.625646e-01
1.450865e-01
8.493592e-02
-4.575676e-02
-3.677715e-02
-1.008488e-01
-6.952782e-02
7.146302e-02
3.752516e-01
7.140014e-01
9.481870e-01
-8.067637e-01
-1.920986e-01
-3.954376e-01
-2.562780e-01
-1.202723e-01
-2.849603e-01
-1.161860e-01
-1.459993e-01
-6.109120e-02
-2.716157e-02
-9.065754e-02
8.716309e-02
3.971702e-01
7.728071e-01
9.526112e-01
9.987290e-01
1 2 19 18
2 3 20 19
3 4 21 20
4 5 22 21
5 6 23 22
6 7 24 23
7 8 25 24
8 9 26 25
9 10 27 26
10 11 28 27
11 12 29 28
12 13 30 29
13 14 31 30
14 15 32 31
15 16 33 32
16 17 34 33
18 19 36 35
19 20 37 36
20 21 38 37
21 22 39 38
22 23 40 39
23 24 41 40
24 25 42 41
25 26 43 42
26 27 44 43
27 28 45 44
28 29 46 45
29 30 47 46
30 31 48 47
31 32 49 48
32 33 50 49
33 34 51 50
35 36 53 52
36 37 54 53
37 38 55 54
38 39 56 55
39 40 57 56
40 41 58 57
41 42 59 58
42 43 60 59
43 44 61 60
44 45 62 61
45 46 63 62
46 47 64 63
47 48 65 64
48 49 66 65
49 50 67 66
50 51 68 67
52 53 70 69
53 54 71 70
54 55 72 71
55 56 73 72
56 57 74 73
57 58 75 74
58 59 76 75
59 60 77 76
60 61 78 77
61 62 79 78
62 63 80 79
63 64 81 80
64 65 82 81
65 66 83 82
66 67 84 83
67 68 85 84
69 70 87 86
70 71 88 87
71 72 89 88
72 73 90 89
73 74 91 90
74 75 92 91
75 76 93 92
76 77 94 93
77 78 95 94
78 79 96 95
79 80 97 96
80 81 98 97
81 82 99 98
82 83 100 99
83 84 101 100
84 85 102 101
86 87 104 103
87 88 105 104
88 89 106 105
89 90 107 106
90 91 108 107
91 92 109 108
92 93 110 109
93 94 111 110
94 95 112 111
95 96 113 112
96 97 114 113
97 98 115 114
98 99 116 115
99 100 117 116
100 101 118 117
101 102 119 118
103 104 121 120
104 105 122 121
105 106 123 122
106 107 124 123
107 108 125 124
108 109 126 125
109 110 127 126
110 111 128 127
111 112 129 128
112 113 130 129
113 114 131 130
114 115 132 131
115 116 133 132
116 117 134 133
117 118 135 134
118 119 136 135
120 121 138 137
121 122 139 138
122 123 140 139
123 124 141 140
124 125 142 141
125 126 143 142
126 127 144 143
127 128 145 144
128 129 146 145
129 130 147 146
130 131 148 147
131 132 149 148
132 133 150 149
133 134 151 150
134 135 152 151
135 136 153 152
