TITLE = "Solution"
VARIABLES = x, y, u, v, psiu, psiv, t, stress
ZONE T="structure" N=153 E=128 F=FEBLOCK ET=QUADRILATERAL VARLOCATION=([7,8]=cellcentered)
0.000000e+00
1.250000e+01
2.500000e+01
3.750000e+01
5.000000e+01
6.250000e+01
7.500000e+01
8.750000e+01
1.000000e+02
1.125000e+02
1.250000e+02
1.375000e+02
1.500000e+02
1.625000e+02
1.750000e+02
1.875000e+02
2.000000e+02
0.000000e+00
1.250000e+01
2.500000e+01
3.750000e+01
5.000000e+01
6.250000e+01
7.500000e+01
8.750000e+01
1.000000e+02
1.125000e+02
1.250000e+02
1.375000e+02
1.500000e+02
1.625000e+02
1.750000e+02
1.875000e+02
2.000000e+02
0.000000e+00
1.250000e+01
2.500000e+01
3.750000e+01
5.000000e+01
6.250000e+01
7.500000e+01
8.750000e+01
1.000000e+02
1.125000e+02
1.250000e+02
1.375000e+02
1.500000e+02
1.625000e+02
1.750000e+02
1.875000e+02
2.000000e+02
0.000000e+00
1.250000e+01
2.500000e+01
3.750000e+01
5.000000e+01
6.250000e+01
7.500000e+01
8.750000e+01
1.000000e+02
1.125000e+02
1.250000e+02
1.375000e+02
1.500000e+02
1.625000e+02
1.750000e+02
1.875000e+02
2.000000e+02
0.000000e+00
1.250000e+01
2.500000e+01
3.750000e+01
5.000000e+01
6.250000e+01
7.500000e+01
8.750000e+01
1.000000e+02
1.125000e+02
1.250000e+02
1.375000e+02
1.500000e+02
1.625000e+02
1.750000e+02
1.875000e+02
2.000000e+02
0.000000e+00
1.250000e+01
2.500000e+01
3.750000e+01
5.000000e+01
6.250000e+01
7.500000e+01
8.750000e+01
1.000000e+02
1.125000e+02
1.250000e+02
1.375000e+02
1.500000e+02
1.625000e+02
1.750000e+02
1.875000e+02
2.000000e+02
0.000000e+00
1.250000e+01
2.500000e+01
3.750000e+01
5.000000e+01
6.250000e+01
7.500000e+01
8.750000e+01
1.000000e+02
1.125000e+02
1.250000e+02
1.375000e+02
1.500000e+02
1.625000e+02
1.750000e+02
1.875000e+02
2.000000e+02
0.000000e+00
1.250000e+01
2.500000e+01
3.750000e+01
5.000000e+01
6.250000e+01
7.500000e+01
8.750000e+01
1.000000e+02
1.125000e+02
1.250000e+02
1.375000e+02
1.500000e+02
1.625000e+02
1.750000e+02
1.875000e+02
2.000000e+02
0.000000e+00
1.250000e+01
2.500000e+01
3.750000e+01
5.000000e+01
6.250000e+01
7.500000e+01
8.750000e+01
1.000000e+02
1.125000e+02
1.250000e+02
1.375000e+02
1.500000e+02
1.625000e+02
1.750000e+02
1.875000e+02
2.000000e+02
0.000000e+00
0.000000e+00
0.000000e+00
0.000000e+00
0.000000e+00
0.000000e+00
0.000000e+00
0.000000e+00
0.000000e+00
0.000000e+00
0.000000e+00
0.000000e+00
0.000000e+00
0.000000e+00
0.000000e+00
0.000000e+00
0.000000e+00
1.250000e+01
1.250000e+01
1.250000e+01
1.250000e+01
1.250000e+01
1.250000e+01
1.250000e+01
1.250000e+01
1.250000e+01
1.250000e+01
1.250000e+01
1.250000e+01
1.250000e+01
1.250000e+01
1.250000e+01
1.250000e+01
1.250000e+01
2.500000e+01
2.500000e+01
2.500000e+01
2.500000e+01
2.500000e+01
2.500000e+01
2.500000e+01
2.500000e+01
2.500000e+01
2.500000e+01
2.500000e+01
2.500000e+01
2.500000e+01
2.500000e+01
2.500000e+01
2.500000e+01
2.500000e+01
3.750000e+01
3.750000e+01
3.750000e+01
3.750000e+01
3.750000e+01
3.750000e+01
3.750000e+01
3.750000e+01
3.750000e+01
3.750000e+01
3.750000e+01
3.750000e+01
3.750000e+01
3.750000e+01
3.750000e+01
3.750000e+01
3.750000e+01
5.000000e+01
5.000000e+01
5.000000e+01
5.000000e+01
5.000000e+01
5.000000e+01
5.000000e+01
5.000000e+01
5.000000e+01
5.000000e+01
5.000000e+01
5.000000e+01
5.000000e+01
5.000000e+01
5.000000e+01
5.000000e+01
5.000000e+01
6.250000e+01
6.250000e+01
6.250000e+01
6.250000e+01
6.250000e+01
6.250000e+01
6.250000e+01
6.250000e+01
6.250000e+01
6.250000e+01
6.250000e+01
6.250000e+01
6.250000e+01
6.250000e+01
6.250000e+01
6.250000e+01
6.250000e+01
7.500000e+01
7.500000e+01
7.500000e+01
7.500000e+01
7.500000e+01
7.500000e+01
7.500000e+01
7.500000e+01
7.500000e+01
7.500000e+01
7.500000e+01
7.500000e+01
7.500000e+01
7.500000e+01
7.500000e+01
7.500000e+01
7.500000e+01
8.750000e+01
8.750000e+01
8.750000e+01
8.750000e+01
8.750000e+01
8.750000e+01
8.750000e+01
8.750000e+01
8.750000e+01
8.750000e+01
8.750000e+01
8.750000e+01
8.750000e+01
8.750000e+01
8.750000e+01
8.750000e+01
8.750000e+01
1.000000e+02
1.000000e+02
1.000000e+02
1.000000e+02
1.000000e+02
1.000000e+02
1.000000e+02
1.000000e+02
1.000000e+02
1.000000e+02
1.000000e+02
1.000000e+02
1.000000e+02
1.000000e+02
1.000000e+02
1.000000e+02
1.000000e+02
0.000000e+00
-9.959367e-01
-1.678994e+00
-2.431193e+00
-3.117254e+00
-3.750467e+00
-4.458239e+00
-5.087212e+00
-5.763223e+00
-6.405583e+00
-7.055527e+00
-7.723563e+00
-8.376442e+00
-9.146430e+00
-1.007746e+01
-1.083397e+01
-1.128409e+01
0.000000e+00
-4.459865e-01
-9.064720e-01
-1.419027e+00
-1.930667e+00
-2.410694e+00
-2.924817e+00
-3.423020e+00
-3.918985e+00
-4.421445e+00
-4.913924e+00
-5.416915e+00
-5.901775e+00
-6.421396e+00
-6.897727e+00
-7.024061e+00
-7.202952e+00
0.000000e+00
-1.460926e-01
-3.488372e-01
-6.395532e-01
-9.775455e-01
-1.302570e+00
-1.655698e+00
-2.012853e+00
-2.356385e+00
-2.718583e+00
-3.057400e+00
-3.391727e+00
-3.687425e+00
-3.927368e+00
-4.036619e+00
-4.034644e+00
-4.183063e+00
0.000000e+00
-7.898711e-02
-1.621182e-01
-3.096533e-01
-4.548980e-01
-6.281755e-01
-8.139322e-01
-9.790718e-01
-1.166879e+00
-1.328808e+00
-1.489862e+00
-1.628927e+00
-1.722336e+00
-1.730516e+00
-1.656861e+00
-1.635902e+00
-1.752942e+00
0.000000e+00
-3.321583e-03
-7.230139e-03
-1.129637e-02
-1.568737e-02
-1.912175e-02
-2.000860e-02
-1.726850e-02
-8.503527e-03
8.346614e-03
3.275007e-02
7.770376e-02
1.602291e-01
2.751628e-01
3.949782e-01
4.358613e-01
3.376820e-01
0.000000e+00
7.317718e-02
1.504056e-01
2.905767e-01
4.290569e-01
5.955485e-01
7.744510e-01
9.426649e-01
1.148723e+00
1.343929e+00
1.561925e+00
1.782220e+00
2.008870e+00
2.216390e+00
2.352194e+00
2.385098e+00
2.319419e+00
0.000000e+00
1.437267e-01
3.435398e-01
6.305206e-01
9.655869e-01
1.290839e+00
1.643085e+00
1.999652e+00
2.359071e+00
2.764624e+00
3.143676e+00
3.510662e+00
3.843493e+00
4.119220e+00
4.296007e+00
4.350648e+00
4.327983e+00
0.000000e+00
4.466989e-01
9.072099e-01
1.419532e+00
1.930469e+00
2.409048e+00
2.920098e+00
3.415641e+00
3.903277e+00
4.396693e+00
4.874974e+00
5.350102e+00
5.777995e+00
6.125682e+00
6.342774e+00
6.438598e+00
6.456310e+00
0.000000e+00
9.982265e-01
1.684086e+00
2.440043e+00
3.128056e+00
3.761817e+00
4.468607e+00
5.095721e+00
5.747547e+00
6.331615e+00
6.905086e+00
7.505959e+00
8.035952e+00
8.448048e+00
8.649293e+00
8.702028e+00
8.702557e+00
0.000000e+00
-6.187672e-01
-1.361826e+00
-2.363243e+00
-3.537428e+00
-4.880965e+00
-6.412465e+00
-8.098603e+00
-9.959081e+00
-1.198258e+01
-1.416735e+01
-1.651822e+01
-1.903188e+01
-2.176301e+01
-2.472725e+01
-2.808669e+01
-3.310236e+01
0.000000e+00
-4.159203e-01
-1.193493e+00
-2.177020e+00
-3.368379e+00
-4.706837e+00
-6.234919e+00
-7.930010e+00
-9.782775e+00
-1.181501e+01
-1.399506e+01
-1.635051e+01
-1.885901e+01
-2.157035e+01
-2.458706e+01
-2.800294e+01
-3.205278e+01
0.000000e+00
-3.903744e-01
-1.091671e+00
-2.073615e+00
-3.249270e+00
-4.580889e+00
-6.115211e+00
-7.800169e+00
-9.663790e+00
-1.169318e+01
-1.388440e+01
-1.625122e+01
-1.876993e+01
-2.150809e+01
-2.457708e+01
-2.785107e+01
-3.088359e+01
0.000000e+00
-4.493626e-01
-1.088049e+00
-2.047484e+00
-3.186850e+00
-4.511289e+00
-6.053604e+00
-7.723467e+00
-9.606181e+00
-1.163450e+01
-1.384747e+01
-1.623415e+01
-1.877840e+01
-2.151844e+01
-2.450741e+01
-2.754139e+01
-3.016727e+01
0.000000e+00
-4.562904e-01
-1.110453e+00
-2.031909e+00
-3.172498e+00
-4.501639e+00
-6.032044e+00
-7.721767e+00
-9.595935e+00
-1.164662e+01
-1.387405e+01
-1.626793e+01
-1.881966e+01
-2.151959e+01
-2.435681e+01
-2.717483e+01
-2.956276e+01
0.000000e+00
-4.480978e-01
-1.087728e+00
-2.049579e+00
-3.193832e+00
-4.528507e+00
-6.081200e+00
-7.760227e+00
-9.658011e+00
-1.171225e+01
-1.394442e+01
-1.632010e+01
-1.885056e+01
-2.150961e+01
-2.422190e+01
-2.685506e+01
-2.912439e+01
0.000000e+00
-3.886891e-01
-1.091685e+00
-2.078442e+00
-3.263093e+00
-4.610207e+00
-6.161006e+00
-7.869494e+00
-9.763024e+00
-1.182856e+01
-1.403082e+01
-1.638737e+01
-1.888977e+01
-2.150951e+01
-2.413951e+01
-2.664785e+01
-2.889064e+01
0.000000e+00
-4.143609e-01
-1.193601e+00
-2.182716e+00
-3.384626e+00
-4.738081e+00
-6.286021e+00
-8.010552e+00
-9.901594e+00
-1.196585e+01
-1.414586e+01
-1.648590e+01
-1.896693e+01
-2.155106e+01
-2.411900e+01
-2.656031e+01
-2.883016e+01
0.000000e+00
-6.177976e-01
-1.362562e+00
-2.369636e+00
-3.554077e+00
-4.912071e+00
-6.464261e+00
-8.178851e+00
-1.007430e+01
-1.212129e+01
-1.430101e+01
-1.663410e+01
-1.909057e+01
-2.163307e+01
-2.414362e+01
-2.654542e+01
-2.882902e+01


0.000000e+00
1.541807e-05
2.508217e-05
3.749318e-05
5.358420e-05
6.716776e-05
8.318336e-05
9.713512e-05
1.118655e-04
1.257453e-04
1.408875e-04
1.552342e-04
1.717904e-04
1.876115e-04
1.976951e-04
2.034389e-04
2.103723e-04
0.000000e+00
1.145746e-05
1.973614e-05
2.841452e-05
4.099150e-05
5.172241e-05
6.184989e-05
7.296225e-05
8.316493e-05
9.457763e-05
1.052321e-04
1.156258e-04
1.264869e-04
1.358433e-04
1.374496e-04
1.412033e-04
1.470262e-04
0.000000e+00
9.528570e-06
1.502506e-05
2.021193e-05
2.884455e-05
3.554785e-05
4.127898e-05
4.862717e-05
5.459816e-05
6.196906e-05
6.837204e-05
7.404708e-05
7.876057e-05
8.094503e-05
8.019511e-05
8.257132e-05
8.680306e-05
0.000000e+00
5.186648e-06
6.843902e-06
9.623197e-06
1.306254e-05
1.351936e-05
1.587133e-05
1.725497e-05
2.088702e-05
2.431364e-05
2.806530e-05
2.912726e-05
2.854465e-05
2.711764e-05
2.683999e-05
2.987415e-05
3.554514e-05
0.000000e+00
-1.759521e-07
-4.383793e-07
-8.624819e-07
-1.735813e-06
-2.898944e-06
-5.017276e-06
-7.265249e-06
-7.841184e-06
-7.888158e-06
-8.824484e-06
-1.196053e-05
-1.470482e-05
-1.613867e-05
-1.581402e-05
-1.366161e-05
-9.671689e-06
0.000000e+00
-5.452154e-06
-7.436154e-06
-1.075842e-05
-1.466888e-05
-1.609010e-05
-2.055779e-05
-2.432763e-05
-3.028503e-05
-3.343540e-05
-3.757951e-05
-4.223585e-05
-4.737515e-05
-4.916584e-05
-4.970753e-05
-5.017393e-05
-4.843789e-05
0.000000e+00
-9.527899e-06
-1.509223e-05
-2.038138e-05
-2.894725e-05
-3.534212e-05
-4.074968e-05
-4.874314e-05
-5.592221e-05
-6.363665e-05
-6.890948e-05
-7.391578e-05
-7.806338e-05
-8.165346e-05
-8.355439e-05
-8.547110e-05
-8.621714e-05
0.000000e+00
-1.138637e-05
-1.964820e-05
-2.830929e-05
-4.076675e-05
-5.166578e-05
-6.160603e-05
-7.279800e-05
-8.318928e-05
-9.458258e-05
-1.052200e-04
-1.136036e-04
-1.183919e-04
-1.234296e-04
-1.270462e-04
-1.283530e-04
-1.284484e-04
0.000000e+00
-1.542860e-05
-2.502298e-05
-3.733976e-05
-5.337372e-05
-6.699438e-05
-8.287668e-05
-9.586353e-05
-1.100004e-04
-1.232967e-04
-1.409586e-04
-1.567977e-04
-1.666144e-04
-1.718400e-04
-1.740442e-04
-1.742667e-04
-1.740875e-04
0.000000e+00
1.259629e-05
1.999688e-05
3.243358e-05
4.873739e-05
6.685717e-05
9.128823e-05
1.201153e-04
1.534145e-04
1.901506e-04
2.303117e-04
2.743185e-04
3.242429e-04
3.783734e-04
4.399120e-04
5.107675e-04
5.841716e-04
0.000000e+00
7.679637e-06
1.610678e-05
2.633226e-05
4.227581e-05
6.089714e-05
8.482830e-05
1.142453e-04
1.471715e-04
1.840320e-04
2.239740e-04
2.681079e-04
3.176706e-04
3.734289e-04
4.346576e-04
5.033869e-04
5.738190e-04
0.000000e+00
4.325385e-06
1.228995e-05
2.172230e-05
3.645462e-05
5.567437e-05
7.940572e-05
1.097369e-04
1.430129e-04
1.795443e-04
2.193857e-04
2.635683e-04
3.138856e-04
3.710341e-04
4.305094e-04
4.959090e-04
5.641371e-04
0.000000e+00
3.198651e-06
1.058885e-05
2.008234e-05
3.450738e-05
5.200270e-05
7.640160e-05
1.087389e-04
1.435588e-04
1.781093e-04
2.173438e-04
2.619251e-04
3.131265e-04
3.696196e-04
4.277725e-04
4.880759e-04
5.499805e-04
0.000000e+00
2.810291e-06
1.026570e-05
2.004156e-05
3.423944e-05
5.071112e-05
7.528281e-05
1.097797e-04
1.447696e-04
1.780260e-04
2.155522e-04
2.618594e-04
3.133461e-04
3.697613e-04
4.266299e-04
4.816940e-04
5.338535e-04
0.000000e+00
3.342420e-06
1.078024e-05
2.045992e-05
3.484942e-05
5.180719e-05
7.716650e-05
1.106724e-04
1.453853e-04
1.778547e-04
2.159356e-04
2.633207e-04
3.156891e-04
3.700916e-04
4.265362e-04
4.793730e-04
5.228212e-04
0.000000e+00
4.479562e-06
1.251960e-05
2.206947e-05
3.673564e-05
5.575839e-05
8.038662e-05
1.117427e-04
1.447260e-04
1.789552e-04
2.182013e-04
2.665320e-04
3.191825e-04
3.721978e-04
4.256298e-04
4.766224e-04
5.193407e-04
0.000000e+00
7.804658e-06
1.634462e-05
2.663566e-05
4.253661e-05
6.131105e-05
8.580003e-05
1.159183e-04
1.481894e-04
1.832528e-04
2.228294e-04
2.703040e-04
3.222293e-04
3.744021e-04
4.257796e-04
4.745994e-04
5.198001e-04
0.000000e+00
1.271010e-05
2.023496e-05
3.272696e-05
4.908002e-05
6.739833e-05
9.233272e-05
1.215767e-04
1.543812e-04
1.894232e-04
2.300934e-04
2.746665e-04
3.245297e-04
3.755605e-04
4.261000e-04
4.741158e-04
5.200638e-04


5.677447e+00
6.140224e+00
6.867244e+00
5.938388e+00
5.743369e+00
6.582666e+00
6.438312e+00
6.433866e+00
5.967480e+00
5.904512e+00
6.285020e+00
7.151635e+00
8.848703e+00
9.830520e+00
9.151404e+00
8.002388e+00
8.085040e+00
8.461784e+00
8.662212e+00
8.358288e+00
8.240416e+00
8.516371e+00
8.678360e+00
8.428009e+00
8.400466e+00
8.271102e+00
8.418091e+00
8.845256e+00
9.507461e+00
9.843165e+00
8.395502e+00
6.474506e+00
9.843533e+00
9.823931e+00
9.999511e+00
9.837895e+00
9.836266e+00
9.970740e+00
9.835749e+00
9.947726e+00
9.849116e+00
9.880948e+00
9.898752e+00
9.876520e+00
9.894836e+00
9.396113e+00
8.000878e+00
6.192162e+00
9.999759e+00
9.999755e+00
9.999753e+00
9.999729e+00
9.999696e+00
9.999630e+00
9.999554e+00
9.999553e+00
9.999596e+00
9.999588e+00
9.999410e+00
9.483558e+00
8.832343e+00
8.373909e+00
7.992818e+00
7.921687e+00
9.999758e+00
9.999752e+00
9.999747e+00
9.999715e+00
9.999660e+00
9.999539e+00
9.934792e+00
9.963346e+00
9.999224e+00
9.919093e+00
9.360468e+00
8.595137e+00
7.710694e+00
7.748864e+00
8.655114e+00
9.170491e+00
9.843970e+00
9.823888e+00
9.999485e+00
9.837723e+00
9.835884e+00
9.713184e+00
9.306621e+00
9.521105e+00
9.387618e+00
8.873881e+00
8.312416e+00
7.900856e+00
8.203597e+00
8.757221e+00
9.449529e+00
9.999144e+00
8.087584e+00
8.462887e+00
8.661629e+00
8.356774e+00
8.159579e+00
8.066484e+00
7.904918e+00
7.812872e+00
7.902755e+00
7.349313e+00
7.488160e+00
8.493720e+00
9.293767e+00
9.849356e+00
9.999501e+00
9.999702e+00
5.683800e+00
6.142309e+00
6.866285e+00
5.930621e+00
5.713457e+00
6.250762e+00
6.062936e+00
6.529783e+00
6.306983e+00
6.536252e+00
7.873546e+00
9.116762e+00
9.987010e+00
9.999611e+00
9.999733e+00
9.999774e+00


-8.190205e-01
-1.672927e-01
-3.974032e-01
-2.585154e-01
-9.292827e-02
-3.072386e-01
-1.233015e-01
-2.097474e-01
-1.618577e-01
-1.577644e-01
-2.153382e-01
-1.497125e-01
-4.613615e-01
-6.861083e-01
3.157295e-01
-8.469605e-01
6.107459e-01
4.814962e-01
2.952153e-01
2.252310e-01
2.910254e-01
1.679795e-01
1.750934e-01
1.732725e-01
1.095436e-01
1.483348e-01
1.279331e-01
2.413538e-01
3.024739e-01
5.092692e-01
6.953468e-01
-9.344469e-01
7.226940e-01
4.716317e-01
5.641193e-02
-2.247211e-02
-3.616018e-02
-1.888293e-01
-8.018899e-02
-1.381091e-01
-7.745901e-02
-1.901375e-02
3.129755e-02
1.854402e-01
2.782321e-01
1.479486e-01
-2.538489e-02
-1.678590e-01
7.279519e-01
5.564409e-01
1.928089e-01
6.148882e-02
-2.218960e-02
-1.069067e-01
-1.637515e-02
-6.210067e-02
1.314529e-02
1.677507e-02
5.858775e-02
1.174323e-01
5.872033e-02
-2.623398e-01
-3.840336e-01
-7.822061e-02
7.308551e-01
5.603861e-01
2.008128e-01
6.967988e-02
-1.823336e-02
-1.128560e-01
-3.643822e-02
-1.028604e-01
-5.249391e-02
-4.368091e-02
2.089601e-02
1.398667e-02
-3.781712e-02
-1.298694e-01
-1.026783e-01
3.104765e-01
7.295048e-01
4.818500e-01
7.448265e-02
-4.507097e-03
-2.406761e-02
-1.625179e-01
-7.327855e-02
-1.877257e-01
-1.820576e-01
-1.091013e-01
-7.756052e-02
-9.780732e-02
-1.115809e-01
4.539020e-02
3.340960e-01
7.245460e-01
6.148293e-01
4.873675e-01
3.026682e-01
2.302060e-01
2.871401e-01
1.614270e-01
1.522913e-01
1.034360e-01
-5.762245e-02
-4.004678e-02
-9.644119e-02
-5.663236e-02
5.729736e-02
3.650968e-01
7.128565e-01
9.478992e-01
-8.247205e-01
-1.727523e-01
-4.050440e-01
-2.616375e-01
-9.208449e-02
-3.012860e-01
-1.193150e-01
-1.572299e-01
-5.600284e-02
-2.186326e-02
-9.260362e-02
1.001865e-01
3.878255e-01
7.721329e-01
9.528998e-01
9.987356e-01
1 2 19 18
2 3 20 19
3 4 21 20
4 5 22 21
5 6 23 22
6 7 24 23
7 8 25 24
8 9 26 25
9 10 27 26
10 11 28 27
11 12 29 28
12 13 30 29
13 14 31 30
14 15 32 31
15 16 33 32
16 17 34 33
18 19 36 35
19 20 37 36
20 21 38 37
21 22 39 38
22 23 40 39
23 24 41 40
24 25 42 41
25 26 43 42
26 27 44 43
27 28 45 44
28 29 46 45
29 30 47 46
30 31 48 47
31 32 49 48
32 33 50 49
33 34 51 50
35 36 53 52
36 37 54 53
37 38 55 54
38 39 56 55
39 40 57 56
40 41 58 57
41 42 59 58
42 43 60 59
43 44 61 60
44 45 62 61
45 46 63 62
46 47 64 63
47 48 65 64
48 49 66 65
49 50 67 66
50 51 68 67
52 53 70 69
53 54 71 70
54 55 72 71
55 56 73 72
56 57 74 73
57 58 75 74
58 59 76 75
59 60 77 76
60 61 78 77
61 62 79 78
62 63 80 79
63 64 81 80
64 65 82 81
65 66 83 82
66 67 84 83
67 68 85 84
69 70 87 86
70 71 88 87
71 72 89 88
72 73 90 89
73 74 91 90
74 75 92 91
75 76 93 92
76 77 94 93
77 78 95 94
78 79 96 95
79 80 97 96
80 81 98 97
81 82 99 98
82 83 100 99
83 84 101 100
84 85 102 101
86 87 104 103
87 88 105 104
88 89 106 105
89 90 107 106
90 91 108 107
91 92 109 108
92 93 110 109
93 94 111 110
94 95 112 111
95 96 113 112
96 97 114 113
97 98 115 114
98 99 116 115
99 100 117 116
100 101 118 117
101 102 119 118
103 104 121 120
104 105 122 121
105 106 123 122
106 107 124 123
107 108 125 124
108 109 126 125
109 110 127 126
110 111 128 127
111 112 129 128
112 113 130 129
113 114 131 130
114 115 132 131
115 116 133 132
116 117 134 133
117 118 135 134
118 119 136 135
120 121 138 137
121 122 139 138
122 123 140 139
123 124 141 140
124 125 142 141
125 126 143 142
126 127 144 143
127 128 145 144
128 129 146 145
129 130 147 146
130 131 148 147
131 132 149 148
132 133 150 149
133 134 151 150
134 135 152 151
135 136 153 152
