TITLE = "Solution"
VARIABLES = x, y, u, v, psiu, psiv, t, stress
ZONE T="structure" N=153 E=128 F=FEBLOCK ET=QUADRILATERAL VARLOCATION=([7,8]=cellcentered)
0.000000e+00
1.250000e+01
2.500000e+01
3.750000e+01
5.000000e+01
6.250000e+01
7.500000e+01
8.750000e+01
1.000000e+02
1.125000e+02
1.250000e+02
1.375000e+02
1.500000e+02
1.625000e+02
1.750000e+02
1.875000e+02
2.000000e+02
0.000000e+00
1.250000e+01
2.500000e+01
3.750000e+01
5.000000e+01
6.250000e+01
7.500000e+01
8.750000e+01
1.000000e+02
1.125000e+02
1.250000e+02
1.375000e+02
1.500000e+02
1.625000e+02
1.750000e+02
1.875000e+02
2.000000e+02
0.000000e+00
1.250000e+01
2.500000e+01
3.750000e+01
5.000000e+01
6.250000e+01
7.500000e+01
8.750000e+01
1.000000e+02
1.125000e+02
1.250000e+02
1.375000e+02
1.500000e+02
1.625000e+02
1.750000e+02
1.875000e+02
2.000000e+02
0.000000e+00
1.250000e+01
2.500000e+01
3.750000e+01
5.000000e+01
6.250000e+01
7.500000e+01
8.750000e+01
1.000000e+02
1.125000e+02
1.250000e+02
1.375000e+02
1.500000e+02
1.625000e+02
1.750000e+02
1.875000e+02
2.000000e+02
0.000000e+00
1.250000e+01
2.500000e+01
3.750000e+01
5.000000e+01
6.250000e+01
7.500000e+01
8.750000e+01
1.000000e+02
1.125000e+02
1.250000e+02
1.375000e+02
1.500000e+02
1.625000e+02
1.750000e+02
1.875000e+02
2.000000e+02
0.000000e+00
1.250000e+01
2.500000e+01
3.750000e+01
5.000000e+01
6.250000e+01
7.500000e+01
8.750000e+01
1.000000e+02
1.125000e+02
1.250000e+02
1.375000e+02
1.500000e+02
1.625000e+02
1.750000e+02
1.875000e+02
2.000000e+02
0.000000e+00
1.250000e+01
2.500000e+01
3.750000e+01
5.000000e+01
6.250000e+01
7.500000e+01
8.750000e+01
1.000000e+02
1.125000e+02
1.250000e+02
1.375000e+02
1.500000e+02
1.625000e+02
1.750000e+02
1.875000e+02
2.000000e+02
0.000000e+00
1.250000e+01
2.500000e+01
3.750000e+01
5.000000e+01
6.250000e+01
7.500000e+01
8.750000e+01
1.000000e+02
1.125000e+02
1.250000e+02
1.375000e+02
1.500000e+02
1.625000e+02
1.750000e+02
1.875000e+02
2.000000e+02
0.000000e+00
1.250000e+01
2.500000e+01
3.750000e+01
5.000000e+01
6.250000e+01
7.500000e+01
8.750000e+01
1.000000e+02
1.125000e+02
1.250000e+02
1.375000e+02
1.500000e+02
1.625000e+02
1.750000e+02
1.875000e+02
2.000000e+02
0.000000e+00
0.000000e+00
0.000000e+00
0.000000e+00
0.000000e+00
0.000000e+00
0.000000e+00
0.000000e+00
0.000000e+00
0.000000e+00
0.000000e+00
0.000000e+00
0.000000e+00
0.000000e+00
0.000000e+00
0.000000e+00
0.000000e+00
1.250000e+01
1.250000e+01
1.250000e+01
1.250000e+01
1.250000e+01
1.250000e+01
1.250000e+01
1.250000e+01
1.250000e+01
1.250000e+01
1.250000e+01
1.250000e+01
1.250000e+01
1.250000e+01
1.250000e+01
1.250000e+01
1.250000e+01
2.500000e+01
2.500000e+01
2.500000e+01
2.500000e+01
2.500000e+01
2.500000e+01
2.500000e+01
2.500000e+01
2.500000e+01
2.500000e+01
2.500000e+01
2.500000e+01
2.500000e+01
2.500000e+01
2.500000e+01
2.500000e+01
2.500000e+01
3.750000e+01
3.750000e+01
3.750000e+01
3.750000e+01
3.750000e+01
3.750000e+01
3.750000e+01
3.750000e+01
3.750000e+01
3.750000e+01
3.750000e+01
3.750000e+01
3.750000e+01
3.750000e+01
3.750000e+01
3.750000e+01
3.750000e+01
5.000000e+01
5.000000e+01
5.000000e+01
5.000000e+01
5.000000e+01
5.000000e+01
5.000000e+01
5.000000e+01
5.000000e+01
5.000000e+01
5.000000e+01
5.000000e+01
5.000000e+01
5.000000e+01
5.000000e+01
5.000000e+01
5.000000e+01
6.250000e+01
6.250000e+01
6.250000e+01
6.250000e+01
6.250000e+01
6.250000e+01
6.250000e+01
6.250000e+01
6.250000e+01
6.250000e+01
6.250000e+01
6.250000e+01
6.250000e+01
6.250000e+01
6.250000e+01
6.250000e+01
6.250000e+01
7.500000e+01
7.500000e+01
7.500000e+01
7.500000e+01
7.500000e+01
7.500000e+01
7.500000e+01
7.500000e+01
7.500000e+01
7.500000e+01
7.500000e+01
7.500000e+01
7.500000e+01
7.500000e+01
7.500000e+01
7.500000e+01
7.500000e+01
8.750000e+01
8.750000e+01
8.750000e+01
8.750000e+01
8.750000e+01
8.750000e+01
8.750000e+01
8.750000e+01
8.750000e+01
8.750000e+01
8.750000e+01
8.750000e+01
8.750000e+01
8.750000e+01
8.750000e+01
8.750000e+01
8.750000e+01
1.000000e+02
1.000000e+02
1.000000e+02
1.000000e+02
1.000000e+02
1.000000e+02
1.000000e+02
1.000000e+02
1.000000e+02
1.000000e+02
1.000000e+02
1.000000e+02
1.000000e+02
1.000000e+02
1.000000e+02
1.000000e+02
1.000000e+02
0.000000e+00
-7.027506e-02
-1.293987e-01
-1.838000e-01
-2.344629e-01
-2.812804e-01
-3.241520e-01
-3.630446e-01
-3.980147e-01
-4.292234e-01
-4.569800e-01
-4.818272e-01
-5.046980e-01
-5.272049e-01
-5.521284e-01
-5.827375e-01
-6.057063e-01
0.000000e+00
-4.196703e-02
-8.717833e-02
-1.289281e-01
-1.673924e-01
-2.027176e-01
-2.349768e-01
-2.642134e-01
-2.904800e-01
-3.138576e-01
-3.344648e-01
-3.524500e-01
-3.679283e-01
-3.807400e-01
-3.897769e-01
-3.917576e-01
-3.988590e-01
0.000000e+00
-2.624499e-02
-5.396625e-02
-8.162231e-02
-1.074384e-01
-1.311411e-01
-1.527113e-01
-1.721734e-01
-1.895321e-01
-2.047585e-01
-2.177707e-01
-2.283870e-01
-2.362287e-01
-2.406062e-01
-2.407277e-01
-2.389790e-01
-2.462218e-01
0.000000e+00
-1.266745e-02
-2.607765e-02
-3.957253e-02
-5.247607e-02
-6.436102e-02
-7.513356e-02
-8.476231e-02
-9.319215e-02
-1.003134e-01
-1.059441e-01
-1.098183e-01
-1.116191e-01
-1.111984e-01
-1.094700e-01
-1.099426e-01
-1.153357e-01
0.000000e+00
-1.166907e-05
-2.652746e-05
-4.133706e-05
-4.919677e-05
-3.471745e-05
3.264634e-05
2.077047e-04
5.803809e-04
1.284621e-03
2.495175e-03
4.387597e-03
7.009321e-03
9.972000e-03
1.201853e-02
1.145723e-02
7.886552e-03
0.000000e+00
1.264950e-02
2.603597e-02
3.950585e-02
5.239314e-02
6.429357e-02
7.515973e-02
8.504476e-02
9.403438e-02
1.022328e-01
1.097473e-01
1.166333e-01
1.227714e-01
1.276934e-01
1.305888e-01
1.308185e-01
1.290061e-01
0.000000e+00
2.624204e-02
5.395727e-02
8.160444e-02
1.074105e-01
1.311064e-01
1.526825e-01
1.721827e-01
1.896475e-01
2.051077e-01
2.185770e-01
2.300224e-01
2.393123e-01
2.461806e-01
2.503031e-01
2.516417e-01
2.512190e-01
0.000000e+00
4.198424e-02
8.721576e-02
1.289878e-01
1.674725e-01
2.028033e-01
2.350249e-01
2.641255e-01
2.900608e-01
3.127557e-01
3.321028e-01
3.479681e-01
3.602248e-01
3.688324e-01
3.739670e-01
3.761566e-01
3.765588e-01
0.000000e+00
7.030385e-02
1.294746e-01
1.839423e-01
2.346901e-01
2.816000e-01
3.245333e-01
3.633652e-01
3.979659e-01
4.281555e-01
4.536722e-01
4.741760e-01
4.893299e-01
4.990149e-01
5.036987e-01
5.048548e-01
5.048325e-01
0.000000e+00
-4.253943e-02
-8.350983e-02
-1.365979e-01
-2.017526e-01
-2.788519e-01
-3.670515e-01
-4.653643e-01
-5.727449e-01
-6.881618e-01
-8.106621e-01
-9.394874e-01
-1.074327e+00
-1.215901e+00
-1.367882e+00
-1.541776e+00
-1.791631e+00
0.000000e+00
-2.618805e-02
-6.892690e-02
-1.226733e-01
-1.888928e-01
-2.670443e-01
-3.563124e-01
-4.556859e-01
-5.641073e-01
-6.805264e-01
-8.039639e-01
-9.336268e-01
-1.069156e+00
-1.211253e+00
-1.363175e+00
-1.536014e+00
-1.747760e+00
0.000000e+00
-1.976120e-02
-5.881729e-02
-1.127621e-01
-1.796077e-01
-2.585636e-01
-3.486522e-01
-4.488526e-01
-5.581143e-01
-6.754023e-01
-7.997562e-01
-9.304100e-01
-1.067039e+00
-1.210229e+00
-1.362281e+00
-1.526052e+00
-1.684548e+00
0.000000e+00
-1.702879e-02
-5.379084e-02
-1.069445e-01
-1.740317e-01
-2.534736e-01
-3.441239e-01
-4.449228e-01
-5.548397e-01
-6.728675e-01
-7.980666e-01
-9.296562e-01
-1.067157e+00
-1.210505e+00
-1.359516e+00
-1.509998e+00
-1.648628e+00
0.000000e+00
-1.624164e-02
-5.226960e-02
-1.050886e-01
-1.721941e-01
-2.518337e-01
-3.427447e-01
-4.438680e-01
-5.541929e-01
-6.727286e-01
-7.985145e-01
-9.306464e-01
-1.068270e+00
-1.210371e+00
-1.354821e+00
-1.496681e+00
-1.627370e+00
0.000000e+00
-1.701868e-02
-5.378365e-02
-1.069573e-01
-1.740946e-01
-2.536393e-01
-3.444782e-01
-4.455939e-01
-5.559968e-01
-6.746912e-01
-8.006546e-01
-9.327927e-01
-1.069827e+00
-1.210014e+00
-1.350661e+00
-1.487657e+00
-1.615556e+00
0.000000e+00
-1.974471e-02
-5.880537e-02
-1.127834e-01
-1.797136e-01
-2.588438e-01
-3.492530e-01
-4.499921e-01
-5.600817e-01
-6.785089e-01
-8.041823e-01
-9.358394e-01
-1.071894e+00
-1.210244e+00
-1.348164e+00
-1.482531e+00
-1.610345e+00
0.000000e+00
-2.617259e-02
-6.891652e-02
-1.227017e-01
-1.890201e-01
-2.673738e-01
-3.570117e-01
-4.570030e-01
-5.663672e-01
-6.840730e-01
-8.089841e-01
-9.397480e-01
-1.074643e+00
-1.211453e+00
-1.347539e+00
-1.480412e+00
-1.609122e+00
0.000000e+00
-4.253304e-02
-8.351073e-02
-1.366418e-01
-2.019000e-01
-2.792041e-01
-3.677671e-01
-4.666699e-01
-5.749216e-01
-6.914729e-01
-8.151601e-01
-9.446007e-01
-1.078061e+00
-1.213375e+00
-1.348070e+00
-1.480024e+00
-1.609141e+00


0.000000e+00
3.044129e-12
6.686216e-12
9.935082e-12
1.260151e-11
1.471745e-11
1.627702e-11
1.743602e-11
1.821591e-11
1.877472e-11
1.912811e-11
1.939871e-11
1.960020e-11
1.980109e-11
2.003491e-11
2.034123e-11
2.072238e-11
0.000000e+00
2.236098e-12
5.518404e-12
8.108835e-12
1.012751e-11
1.163758e-11
1.275544e-11
1.351746e-11
1.404989e-11
1.435974e-11
1.457319e-11
1.465780e-11
1.471640e-11
1.471006e-11
1.476173e-11
1.498779e-11
1.536026e-11
0.000000e+00
1.768052e-12
3.957972e-12
5.719823e-12
7.070712e-12
8.069075e-12
8.760678e-12
9.235064e-12
9.528602e-12
9.697361e-12
9.773281e-12
9.779818e-12
9.750803e-12
9.705122e-12
9.727229e-12
9.898311e-12
1.020218e-11
0.000000e+00
9.729794e-13
2.001624e-12
2.892697e-12
3.584824e-12
4.087394e-12
4.425183e-12
4.644536e-12
4.775160e-12
4.829035e-12
4.844057e-12
4.812089e-12
4.788533e-12
4.764380e-12
4.799727e-12
4.899783e-12
5.081482e-12
0.000000e+00
-5.295162e-15
-1.126791e-14
-2.084550e-14
-2.540182e-14
-3.171588e-14
-3.639734e-14
-4.628965e-14
-5.770454e-14
-7.443059e-14
-9.519287e-14
-1.135071e-13
-1.245773e-13
-1.135840e-13
-8.716144e-14
-3.165536e-14
6.831410e-14
0.000000e+00
-9.909514e-13
-2.015929e-12
-2.912419e-12
-3.621758e-12
-4.128083e-12
-4.488332e-12
-4.720511e-12
-4.875161e-12
-4.961654e-12
-5.006975e-12
-5.021536e-12
-5.011848e-12
-4.992240e-12
-4.969188e-12
-4.939930e-12
-4.900586e-12
0.000000e+00
-1.771141e-12
-3.972191e-12
-5.747090e-12
-7.105321e-12
-8.110580e-12
-8.806169e-12
-9.284666e-12
-9.581937e-12
-9.756461e-12
-9.841416e-12
-9.868894e-12
-9.869677e-12
-9.855501e-12
-9.850554e-12
-9.838339e-12
-9.818211e-12
0.000000e+00
-2.243091e-12
-5.519305e-12
-8.110568e-12
-1.013209e-11
-1.164668e-11
-1.276646e-11
-1.353294e-11
-1.405973e-11
-1.437135e-11
-1.456650e-11
-1.465208e-11
-1.470291e-11
-1.471834e-11
-1.473202e-11
-1.473493e-11
-1.473845e-11
0.000000e+00
-3.046794e-12
-6.699896e-12
-9.942913e-12
-1.262504e-11
-1.472854e-11
-1.629926e-11
-1.743468e-11
-1.821969e-11
-1.873300e-11
-1.908057e-11
-1.927982e-11
-1.943802e-11
-1.952116e-11
-1.960598e-11
-1.963790e-11
-1.966364e-11
0.000000e+00
3.145361e-12
5.455451e-12
7.770719e-12
1.052719e-11
1.384508e-11
1.759070e-11
2.167332e-11
2.599730e-11
3.047510e-11
3.506910e-11
3.977829e-11
4.456736e-11
4.959449e-11
5.496285e-11
6.094250e-11
6.697074e-11
0.000000e+00
1.565123e-12
3.778062e-12
6.282510e-12
9.339334e-12
1.292108e-11
1.690409e-11
2.118441e-11
2.565219e-11
3.024327e-11
3.493390e-11
3.966949e-11
4.453638e-11
4.948918e-11
5.476154e-11
6.043556e-11
6.640830e-11
0.000000e+00
5.675027e-13
2.423139e-12
5.110449e-12
8.401462e-12
1.221846e-11
1.639148e-11
2.082601e-11
2.540871e-11
3.009995e-11
3.484324e-11
3.964419e-11
4.450384e-11
4.945406e-11
5.451307e-11
5.995619e-11
6.568333e-11
0.000000e+00
1.423534e-13
1.801297e-12
4.501748e-12
7.936150e-12
1.185985e-11
1.613706e-11
2.064675e-11
2.529528e-11
3.002938e-11
3.482172e-11
3.963490e-11
4.452193e-11
4.940843e-11
5.440420e-11
5.960217e-11
6.510137e-11
0.000000e+00
4.048953e-14
1.626063e-12
4.331039e-12
7.792370e-12
1.176043e-11
1.606194e-11
2.059978e-11
2.526067e-11
3.002164e-11
3.481188e-11
3.965507e-11
4.450549e-11
4.940455e-11
5.431959e-11
5.942019e-11
6.463867e-11
0.000000e+00
1.435629e-13
1.807100e-12
4.502546e-12
7.938335e-12
1.186109e-11
1.613843e-11
2.065323e-11
2.530527e-11
3.005291e-11
3.484809e-11
3.966867e-11
4.453024e-11
4.939164e-11
5.432486e-11
5.930680e-11
6.439038e-11
0.000000e+00
5.660420e-13
2.440499e-12
5.114226e-12
8.416535e-12
1.221480e-11
1.639059e-11
2.082834e-11
2.542188e-11
3.013636e-11
3.489005e-11
3.970930e-11
4.452498e-11
4.941165e-11
5.429703e-11
5.926848e-11
6.423317e-11
0.000000e+00
1.562988e-12
3.797697e-12
6.278684e-12
9.350013e-12
1.291745e-11
1.691350e-11
2.119509e-11
2.568140e-11
3.029609e-11
3.500137e-11
3.975286e-11
4.456680e-11
4.940055e-11
5.430935e-11
5.921971e-11
6.418097e-11
0.000000e+00
3.134017e-12
5.481549e-12
7.768815e-12
1.054712e-11
1.384467e-11
1.759565e-11
2.168280e-11
2.601667e-11
3.051600e-11
3.513411e-11
3.983685e-11
4.460393e-11
4.943199e-11
5.430764e-11
5.922644e-11
6.416931e-11


2.053377e-01
2.053377e-01
2.053377e-01
2.053377e-01
2.053377e-01
2.053377e-01
2.053377e-01
2.053377e-01
2.053377e-01
2.053377e-01
2.053377e-01
2.053377e-01
2.053377e-01
2.053377e-01
2.053377e-01
2.053377e-01
2.053377e-01
2.053377e-01
2.053377e-01
2.053377e-01
2.053377e-01
2.053377e-01
2.053377e-01
2.053377e-01
2.053377e-01
2.053377e-01
2.053377e-01
2.053377e-01
2.053377e-01
2.053377e-01
2.053377e-01
2.053377e-01
2.053377e-01
2.053377e-01
2.053377e-01
2.053377e-01
2.053377e-01
2.053377e-01
2.053377e-01
2.053377e-01
2.053377e-01
2.053377e-01
2.053377e-01
2.053377e-01
2.053377e-01
2.053377e-01
2.053377e-01
2.053377e-01
2.053377e-01
2.053377e-01
2.053377e-01
2.053377e-01
2.053377e-01
2.053377e-01
2.053377e-01
2.053377e-01
2.053377e-01
2.053377e-01
2.053377e-01
2.053377e-01
2.053377e-01
2.053377e-01
2.053377e-01
2.053377e-01
2.053377e-01
2.053377e-01
2.053377e-01
2.053377e-01
2.053377e-01
2.053377e-01
2.053377e-01
2.053377e-01
2.053377e-01
2.053377e-01
2.053377e-01
2.053377e-01
2.053377e-01
2.053377e-01
2.053377e-01
2.053377e-01
2.053377e-01
2.053377e-01
2.053377e-01
2.053377e-01
2.053377e-01
2.053377e-01
2.053377e-01
2.053377e-01
2.053377e-01
2.053377e-01
2.053377e-01
2.053377e-01
2.053377e-01
2.053377e-01
2.053377e-01
2.053377e-01
2.053377e-01
2.053377e-01
2.053377e-01
2.053377e-01
2.053377e-01
2.053377e-01
2.053377e-01
2.053377e-01
2.053377e-01
2.053377e-01
2.053377e-01
2.053377e-01
2.053377e-01
2.053377e-01
2.053377e-01
2.053377e-01
2.053377e-01
2.053377e-01
2.053377e-01
2.053377e-01
2.053377e-01
2.053377e-01
2.053377e-01
2.053377e-01
2.053377e-01
2.053377e-01
2.053377e-01
2.053377e-01
2.053377e-01
2.053377e-01
2.053377e-01
2.053377e-01


9.888890e-01
9.904646e-01
9.919222e-01
9.930442e-01
9.940857e-01
9.950461e-01
9.959210e-01
9.967003e-01
9.973757e-01
9.979406e-01
9.983897e-01
9.987188e-01
9.989233e-01
9.989963e-01
9.990489e-01
9.958018e-01
9.957965e-01
9.950745e-01
9.955390e-01
9.961453e-01
9.967106e-01
9.972244e-01
9.976894e-01
9.981107e-01
9.984921e-01
9.988376e-01
9.991510e-01
9.994349e-01
9.996825e-01
9.998447e-01
9.994346e-01
9.938762e-01
9.985395e-01
9.981248e-01
9.980128e-01
9.981703e-01
9.983775e-01
9.985781e-01
9.987644e-01
9.989405e-01
9.991110e-01
9.992773e-01
9.994325e-01
9.995527e-01
9.995778e-01
9.993613e-01
9.985760e-01
9.971634e-01
9.997028e-01
9.994003e-01
9.992135e-01
9.991661e-01
9.991850e-01
9.992168e-01
9.992485e-01
9.992795e-01
9.993099e-01
9.993353e-01
9.993424e-01
9.993046e-01
9.991845e-01
9.989689e-01
9.987862e-01
9.987399e-01
9.997039e-01
9.994019e-01
9.992149e-01
9.991658e-01
9.991803e-01
9.992032e-01
9.992191e-01
9.992244e-01
9.992171e-01
9.991937e-01
9.991501e-01
9.990873e-01
9.990274e-01
9.990393e-01
9.992085e-01
9.995013e-01
9.985416e-01
9.981279e-01
9.980158e-01
9.981703e-01
9.983694e-01
9.985533e-01
9.987089e-01
9.988339e-01
9.989276e-01
9.989906e-01
9.990305e-01
9.990695e-01
9.991514e-01
9.993231e-01
9.995810e-01
9.998476e-01
9.957961e-01
9.950742e-01
9.955384e-01
9.961436e-01
9.967062e-01
9.972142e-01
9.976685e-01
9.980707e-01
9.984212e-01
9.987207e-01
9.989743e-01
9.991958e-01
9.994091e-01
9.996327e-01
9.998418e-01
9.999735e-01
9.888814e-01
9.904528e-01
9.919077e-01
9.930279e-01
9.940711e-01
9.950407e-01
9.959391e-01
9.967639e-01
9.975155e-01
9.981924e-01
9.987864e-01
9.992792e-01
9.996458e-01
9.998720e-01
9.999749e-01
9.999995e-01
1 2 19 18
2 3 20 19
3 4 21 20
4 5 22 21
5 6 23 22
6 7 24 23
7 8 25 24
8 9 26 25
9 10 27 26
10 11 28 27
11 12 29 28
12 13 30 29
13 14 31 30
14 15 32 31
15 16 33 32
16 17 34 33
18 19 36 35
19 20 37 36
20 21 38 37
21 22 39 38
22 23 40 39
23 24 41 40
24 25 42 41
25 26 43 42
26 27 44 43
27 28 45 44
28 29 46 45
29 30 47 46
30 31 48 47
31 32 49 48
32 33 50 49
33 34 51 50
35 36 53 52
36 37 54 53
37 38 55 54
38 39 56 55
39 40 57 56
40 41 58 57
41 42 59 58
42 43 60 59
43 44 61 60
44 45 62 61
45 46 63 62
46 47 64 63
47 48 65 64
48 49 66 65
49 50 67 66
50 51 68 67
52 53 70 69
53 54 71 70
54 55 72 71
55 56 73 72
56 57 74 73
57 58 75 74
58 59 76 75
59 60 77 76
60 61 78 77
61 62 79 78
62 63 80 79
63 64 81 80
64 65 82 81
65 66 83 82
66 67 84 83
67 68 85 84
69 70 87 86
70 71 88 87
71 72 89 88
72 73 90 89
73 74 91 90
74 75 92 91
75 76 93 92
76 77 94 93
77 78 95 94
78 79 96 95
79 80 97 96
80 81 98 97
81 82 99 98
82 83 100 99
83 84 101 100
84 85 102 101
86 87 104 103
87 88 105 104
88 89 106 105
89 90 107 106
90 91 108 107
91 92 109 108
92 93 110 109
93 94 111 110
94 95 112 111
95 96 113 112
96 97 114 113
97 98 115 114
98 99 116 115
99 100 117 116
100 101 118 117
101 102 119 118
103 104 121 120
104 105 122 121
105 106 123 122
106 107 124 123
107 108 125 124
108 109 126 125
109 110 127 126
110 111 128 127
111 112 129 128
112 113 130 129
113 114 131 130
114 115 132 131
115 116 133 132
116 117 134 133
117 118 135 134
118 119 136 135
120 121 138 137
121 122 139 138
122 123 140 139
123 124 141 140
124 125 142 141
125 126 143 142
126 127 144 143
127 128 145 144
128 129 146 145
129 130 147 146
130 131 148 147
131 132 149 148
132 133 150 149
133 134 151 150
134 135 152 151
135 136 153 152
