TITLE = "Solution"
VARIABLES = x, y, u, v, psiu, psiv, t, stress
ZONE T="structure" N=153 E=128 F=FEBLOCK ET=QUADRILATERAL VARLOCATION=([7,8]=cellcentered)
0.000000e+00
1.250000e+01
2.500000e+01
3.750000e+01
5.000000e+01
6.250000e+01
7.500000e+01
8.750000e+01
1.000000e+02
1.125000e+02
1.250000e+02
1.375000e+02
1.500000e+02
1.625000e+02
1.750000e+02
1.875000e+02
2.000000e+02
0.000000e+00
1.250000e+01
2.500000e+01
3.750000e+01
5.000000e+01
6.250000e+01
7.500000e+01
8.750000e+01
1.000000e+02
1.125000e+02
1.250000e+02
1.375000e+02
1.500000e+02
1.625000e+02
1.750000e+02
1.875000e+02
2.000000e+02
0.000000e+00
1.250000e+01
2.500000e+01
3.750000e+01
5.000000e+01
6.250000e+01
7.500000e+01
8.750000e+01
1.000000e+02
1.125000e+02
1.250000e+02
1.375000e+02
1.500000e+02
1.625000e+02
1.750000e+02
1.875000e+02
2.000000e+02
0.000000e+00
1.250000e+01
2.500000e+01
3.750000e+01
5.000000e+01
6.250000e+01
7.500000e+01
8.750000e+01
1.000000e+02
1.125000e+02
1.250000e+02
1.375000e+02
1.500000e+02
1.625000e+02
1.750000e+02
1.875000e+02
2.000000e+02
0.000000e+00
1.250000e+01
2.500000e+01
3.750000e+01
5.000000e+01
6.250000e+01
7.500000e+01
8.750000e+01
1.000000e+02
1.125000e+02
1.250000e+02
1.375000e+02
1.500000e+02
1.625000e+02
1.750000e+02
1.875000e+02
2.000000e+02
0.000000e+00
1.250000e+01
2.500000e+01
3.750000e+01
5.000000e+01
6.250000e+01
7.500000e+01
8.750000e+01
1.000000e+02
1.125000e+02
1.250000e+02
1.375000e+02
1.500000e+02
1.625000e+02
1.750000e+02
1.875000e+02
2.000000e+02
0.000000e+00
1.250000e+01
2.500000e+01
3.750000e+01
5.000000e+01
6.250000e+01
7.500000e+01
8.750000e+01
1.000000e+02
1.125000e+02
1.250000e+02
1.375000e+02
1.500000e+02
1.625000e+02
1.750000e+02
1.875000e+02
2.000000e+02
0.000000e+00
1.250000e+01
2.500000e+01
3.750000e+01
5.000000e+01
6.250000e+01
7.500000e+01
8.750000e+01
1.000000e+02
1.125000e+02
1.250000e+02
1.375000e+02
1.500000e+02
1.625000e+02
1.750000e+02
1.875000e+02
2.000000e+02
0.000000e+00
1.250000e+01
2.500000e+01
3.750000e+01
5.000000e+01
6.250000e+01
7.500000e+01
8.750000e+01
1.000000e+02
1.125000e+02
1.250000e+02
1.375000e+02
1.500000e+02
1.625000e+02
1.750000e+02
1.875000e+02
2.000000e+02
0.000000e+00
0.000000e+00
0.000000e+00
0.000000e+00
0.000000e+00
0.000000e+00
0.000000e+00
0.000000e+00
0.000000e+00
0.000000e+00
0.000000e+00
0.000000e+00
0.000000e+00
0.000000e+00
0.000000e+00
0.000000e+00
0.000000e+00
1.250000e+01
1.250000e+01
1.250000e+01
1.250000e+01
1.250000e+01
1.250000e+01
1.250000e+01
1.250000e+01
1.250000e+01
1.250000e+01
1.250000e+01
1.250000e+01
1.250000e+01
1.250000e+01
1.250000e+01
1.250000e+01
1.250000e+01
2.500000e+01
2.500000e+01
2.500000e+01
2.500000e+01
2.500000e+01
2.500000e+01
2.500000e+01
2.500000e+01
2.500000e+01
2.500000e+01
2.500000e+01
2.500000e+01
2.500000e+01
2.500000e+01
2.500000e+01
2.500000e+01
2.500000e+01
3.750000e+01
3.750000e+01
3.750000e+01
3.750000e+01
3.750000e+01
3.750000e+01
3.750000e+01
3.750000e+01
3.750000e+01
3.750000e+01
3.750000e+01
3.750000e+01
3.750000e+01
3.750000e+01
3.750000e+01
3.750000e+01
3.750000e+01
5.000000e+01
5.000000e+01
5.000000e+01
5.000000e+01
5.000000e+01
5.000000e+01
5.000000e+01
5.000000e+01
5.000000e+01
5.000000e+01
5.000000e+01
5.000000e+01
5.000000e+01
5.000000e+01
5.000000e+01
5.000000e+01
5.000000e+01
6.250000e+01
6.250000e+01
6.250000e+01
6.250000e+01
6.250000e+01
6.250000e+01
6.250000e+01
6.250000e+01
6.250000e+01
6.250000e+01
6.250000e+01
6.250000e+01
6.250000e+01
6.250000e+01
6.250000e+01
6.250000e+01
6.250000e+01
7.500000e+01
7.500000e+01
7.500000e+01
7.500000e+01
7.500000e+01
7.500000e+01
7.500000e+01
7.500000e+01
7.500000e+01
7.500000e+01
7.500000e+01
7.500000e+01
7.500000e+01
7.500000e+01
7.500000e+01
7.500000e+01
7.500000e+01
8.750000e+01
8.750000e+01
8.750000e+01
8.750000e+01
8.750000e+01
8.750000e+01
8.750000e+01
8.750000e+01
8.750000e+01
8.750000e+01
8.750000e+01
8.750000e+01
8.750000e+01
8.750000e+01
8.750000e+01
8.750000e+01
8.750000e+01
1.000000e+02
1.000000e+02
1.000000e+02
1.000000e+02
1.000000e+02
1.000000e+02
1.000000e+02
1.000000e+02
1.000000e+02
1.000000e+02
1.000000e+02
1.000000e+02
1.000000e+02
1.000000e+02
1.000000e+02
1.000000e+02
1.000000e+02
0.000000e+00
-9.949410e-01
-1.679373e+00
-2.431199e+00
-3.116333e+00
-3.751642e+00
-4.457612e+00
-5.087634e+00
-5.763301e+00
-6.405545e+00
-7.056041e+00
-7.723450e+00
-8.376680e+00
-9.147168e+00
-1.007759e+01
-1.083385e+01
-1.128399e+01
0.000000e+00
-4.455151e-01
-9.069377e-01
-1.419042e+00
-1.930459e+00
-2.411245e+00
-2.925107e+00
-3.423186e+00
-3.919445e+00
-4.421532e+00
-4.914393e+00
-5.417077e+00
-5.901974e+00
-6.421874e+00
-6.897668e+00
-7.023830e+00
-7.202701e+00
0.000000e+00
-1.461850e-01
-3.492460e-01
-6.397714e-01
-9.777614e-01
-1.303003e+00
-1.656349e+00
-2.012973e+00
-2.356966e+00
-2.718638e+00
-3.057698e+00
-3.391842e+00
-3.687461e+00
-3.927359e+00
-4.036401e+00
-4.034349e+00
-4.182808e+00
0.000000e+00
-7.895597e-02
-1.622039e-01
-3.096046e-01
-4.547351e-01
-6.284198e-01
-8.134710e-01
-9.792311e-01
-1.166499e+00
-1.328573e+00
-1.489583e+00
-1.628593e+00
-1.721925e+00
-1.730046e+00
-1.656495e+00
-1.635678e+00
-1.752823e+00
0.000000e+00
-3.290664e-03
-7.169011e-03
-1.119203e-02
-1.551904e-02
-1.883904e-02
-1.959313e-02
-1.672157e-02
-7.847067e-03
9.006420e-03
3.343717e-02
7.825728e-02
1.606856e-01
2.755744e-01
3.953036e-01
4.360309e-01
3.378462e-01
0.000000e+00
7.320882e-02
1.506041e-01
2.906818e-01
4.291070e-01
5.961709e-01
7.747902e-01
9.442316e-01
1.149972e+00
1.345273e+00
1.562675e+00
1.783017e+00
2.009400e+00
2.216604e+00
2.352356e+00
2.385255e+00
2.319608e+00
0.000000e+00
1.438599e-01
3.440317e-01
6.308155e-01
9.658090e-01
1.291041e+00
1.643322e+00
1.999646e+00
2.360295e+00
2.765169e+00
3.144258e+00
3.511209e+00
3.844162e+00
4.119623e+00
4.296242e+00
4.350891e+00
4.328265e+00
0.000000e+00
4.461962e-01
9.077118e-01
1.419558e+00
1.930251e+00
2.409594e+00
2.920412e+00
3.415631e+00
3.903669e+00
4.396759e+00
4.875181e+00
5.350292e+00
5.778581e+00
6.126185e+00
6.343209e+00
6.438981e+00
6.456673e+00
0.000000e+00
9.971297e-01
1.684434e+00
2.439994e+00
3.127135e+00
3.763402e+00
4.468512e+00
5.096595e+00
5.747114e+00
6.331599e+00
6.905239e+00
7.506062e+00
8.036510e+00
8.448386e+00
8.649717e+00
8.702510e+00
8.703048e+00
0.000000e+00
-6.184480e-01
-1.361508e+00
-2.362489e+00
-3.536499e+00
-4.880221e+00
-6.411240e+00
-8.097353e+00
-9.957730e+00
-1.198104e+01
-1.416591e+01
-1.651647e+01
-1.903015e+01
-2.176132e+01
-2.472542e+01
-2.808504e+01
-3.310081e+01
0.000000e+00
-4.154129e-01
-1.193049e+00
-2.176444e+00
-3.367310e+00
-4.705899e+00
-6.233907e+00
-7.928531e+00
-9.781602e+00
-1.181337e+01
-1.399365e+01
-1.634884e+01
-1.885715e+01
-2.156870e+01
-2.458532e+01
-2.800124e+01
-3.205136e+01
0.000000e+00
-3.897732e-01
-1.091340e+00
-2.073046e+00
-3.247983e+00
-4.580173e+00
-6.113902e+00
-7.798907e+00
-9.662525e+00
-1.169162e+01
-1.388302e+01
-1.624953e+01
-1.876813e+01
-2.150646e+01
-2.457540e+01
-2.784927e+01
-3.088180e+01
0.000000e+00
-4.487436e-01
-1.087698e+00
-2.046932e+00
-3.185282e+00
-4.510883e+00
-6.051752e+00
-7.722581e+00
-9.604767e+00
-1.163321e+01
-1.384606e+01
-1.623247e+01
-1.877663e+01
-2.151673e+01
-2.450585e+01
-2.753951e+01
-3.016507e+01
0.000000e+00
-4.558140e-01
-1.109993e+00
-2.031208e+00
-3.171303e+00
-4.500661e+00
-6.030572e+00
-7.720466e+00
-9.594981e+00
-1.164540e+01
-1.387253e+01
-1.626630e+01
-1.881789e+01
-2.151785e+01
-2.435527e+01
-2.717304e+01
-2.956069e+01
0.000000e+00
-4.474514e-01
-1.087356e+00
-2.049003e+00
-3.192195e+00
-4.528062e+00
-6.079117e+00
-7.759444e+00
-9.657011e+00
-1.171129e+01
-1.394258e+01
-1.631848e+01
-1.884893e+01
-2.150783e+01
-2.422027e+01
-2.685341e+01
-2.912259e+01
0.000000e+00
-3.880482e-01
-1.091293e+00
-2.077745e+00
-3.261609e+00
-4.609271e+00
-6.159667e+00
-7.868585e+00
-9.762453e+00
-1.182727e+01
-1.402910e+01
-1.638566e+01
-1.888828e+01
-2.150777e+01
-2.413777e+01
-2.664626e+01
-2.888909e+01
0.000000e+00
-4.138172e-01
-1.193075e+00
-2.181964e+00
-3.383255e+00
-4.736882e+00
-6.285092e+00
-8.009618e+00
-9.901111e+00
-1.196436e+01
-1.414436e+01
-1.648418e+01
-1.896549e+01
-2.154935e+01
-2.411723e+01
-2.655867e+01
-2.882863e+01
0.000000e+00
-6.174493e-01
-1.362165e+00
-2.368690e+00
-3.552860e+00
-4.911149e+00
-6.463109e+00
-8.178123e+00
-1.007348e+01
-1.212000e+01
-1.429950e+01
-1.663248e+01
-1.908915e+01
-2.163135e+01
-2.414186e+01
-2.654377e+01
-2.882749e+01


0.000000e+00
1.541843e-05
2.509813e-05
3.749413e-05
5.358744e-05
6.720068e-05
8.313981e-05
9.717879e-05
1.118103e-04
1.257504e-04
1.408722e-04
1.551872e-04
1.717944e-04
1.875455e-04
1.975005e-04
2.032048e-04
2.101343e-04
0.000000e+00
1.146157e-05
1.974217e-05
2.840018e-05
4.099992e-05
5.170783e-05
6.182751e-05
7.295161e-05
8.313979e-05
9.453955e-05
1.052196e-04
1.155614e-04
1.264788e-04
1.357947e-04
1.373033e-04
1.410449e-04
1.468702e-04
0.000000e+00
9.535159e-06
1.502255e-05
2.019029e-05
2.884793e-05
3.551086e-05
4.124775e-05
4.859907e-05
5.457322e-05
6.191990e-05
6.835517e-05
7.399295e-05
7.872591e-05
8.088527e-05
8.011308e-05
8.249561e-05
8.673528e-05
0.000000e+00
5.183468e-06
6.845192e-06
9.612259e-06
1.305713e-05
1.353430e-05
1.585522e-05
1.732326e-05
2.084956e-05
2.432710e-05
2.807244e-05
2.908149e-05
2.849987e-05
2.705014e-05
2.683857e-05
2.990354e-05
3.557655e-05
0.000000e+00
-1.738837e-07
-4.327815e-07
-8.510918e-07
-1.710936e-06
-2.859762e-06
-4.948726e-06
-7.169645e-06
-7.755129e-06
-7.760406e-06
-8.725867e-06
-1.191019e-05
-1.466106e-05
-1.602227e-05
-1.569708e-05
-1.352619e-05
-9.535373e-06
0.000000e+00
-5.445879e-06
-7.431391e-06
-1.073225e-05
-1.464380e-05
-1.607051e-05
-2.046199e-05
-2.431963e-05
-3.014709e-05
-3.323679e-05
-3.732458e-05
-4.214833e-05
-4.721349e-05
-4.891417e-05
-4.946486e-05
-4.995578e-05
-4.824446e-05
0.000000e+00
-9.536092e-06
-1.508942e-05
-2.035813e-05
-2.895629e-05
-3.530235e-05
-4.072515e-05
-4.872675e-05
-5.589463e-05
-6.347246e-05
-6.874656e-05
-7.377997e-05
-7.795446e-05
-8.141106e-05
-8.333194e-05
-8.525243e-05
-8.600278e-05
0.000000e+00
-1.139234e-05
-1.965519e-05
-2.829601e-05
-4.078309e-05
-5.164214e-05
-6.159387e-05
-7.279440e-05
-8.317877e-05
-9.454996e-05
-1.052266e-04
-1.134840e-04
-1.182944e-04
-1.232819e-04
-1.268467e-04
-1.281319e-04
-1.282287e-04
0.000000e+00
-1.542898e-05
-2.503949e-05
-3.734049e-05
-5.337884e-05
-6.702906e-05
-8.282824e-05
-9.593043e-05
-1.099062e-04
-1.234239e-04
-1.410887e-04
-1.568059e-04
-1.664301e-04
-1.716140e-04
-1.738311e-04
-1.740396e-04
-1.738551e-04
0.000000e+00
1.260117e-05
2.000281e-05
3.244450e-05
4.876479e-05
6.689383e-05
9.133402e-05
1.202081e-04
1.534739e-04
1.902649e-04
2.304221e-04
2.744375e-04
3.244323e-04
3.785137e-04
4.399794e-04
5.107684e-04
5.840890e-04
0.000000e+00
7.679453e-06
1.611380e-05
2.634418e-05
4.229661e-05
6.093857e-05
8.487882e-05
1.143243e-04
1.472556e-04
1.841228e-04
2.241019e-04
2.682189e-04
3.178476e-04
3.736111e-04
4.347559e-04
5.033879e-04
5.737274e-04
0.000000e+00
4.326600e-06
1.230216e-05
2.172610e-05
3.648730e-05
5.570755e-05
7.947132e-05
1.098053e-04
1.431035e-04
1.796439e-04
2.194920e-04
2.636953e-04
3.140571e-04
3.712490e-04
4.306304e-04
4.959089e-04
5.640289e-04
0.000000e+00
3.200949e-06
1.060120e-05
2.008784e-05
3.452129e-05
5.206413e-05
7.645040e-05
1.088092e-04
1.436445e-04
1.782292e-04
2.173883e-04
2.620973e-04
3.133231e-04
3.698487e-04
4.279015e-04
4.880682e-04
5.498605e-04
0.000000e+00
2.813336e-06
1.027439e-05
2.004621e-05
3.424543e-05
5.077832e-05
7.532464e-05
1.098053e-04
1.449345e-04
1.780735e-04
2.155834e-04
2.620765e-04
3.136244e-04
3.699558e-04
4.267568e-04
4.816748e-04
5.337457e-04
0.000000e+00
3.342517e-06
1.079006e-05
2.045795e-05
3.485676e-05
5.187382e-05
7.716803e-05
1.107154e-04
1.455302e-04
1.778586e-04
2.159474e-04
2.636612e-04
3.160065e-04
3.702252e-04
4.266521e-04
4.793567e-04
5.227562e-04
0.000000e+00
4.478725e-06
1.252844e-05
2.206404e-05
3.676369e-05
5.577534e-05
8.041536e-05
1.117664e-04
1.448122e-04
1.789159e-04
2.182920e-04
2.669288e-04
3.194993e-04
3.722627e-04
4.257201e-04
4.766298e-04
5.193201e-04
0.000000e+00
7.802501e-06
1.634765e-05
2.664056e-05
4.254699e-05
6.133255e-05
8.582666e-05
1.159588e-04
1.482111e-04
1.832409e-04
2.229880e-04
2.706398e-04
3.225233e-04
3.744432e-04
4.258346e-04
4.746204e-04
5.197974e-04
0.000000e+00
1.271316e-05
2.023641e-05
3.273179e-05
4.909385e-05
6.741479e-05
9.235544e-05
1.216342e-04
1.543484e-04
1.895159e-04
2.301896e-04
2.749543e-04
3.247360e-04
3.756426e-04
4.261304e-04
4.741366e-04
5.200660e-04


5.634523e+00
6.113451e+00
6.845310e+00
5.889443e+00
5.529662e+00
6.183835e+00
6.159703e+00
6.275068e+00
5.898889e+00
5.886452e+00
6.270580e+00
7.141189e+00
8.838453e+00
9.818846e+00
9.139252e+00
7.990236e+00
8.062440e+00
8.443382e+00
8.647416e+00
8.345103e+00
8.128638e+00
8.351055e+00
8.532663e+00
8.367728e+00
8.358290e+00
8.258622e+00
8.405005e+00
8.833071e+00
9.498333e+00
9.831362e+00
8.384436e+00
6.464456e+00
9.834451e+00
9.817165e+00
9.991487e+00
9.829628e+00
9.827940e+00
9.935182e+00
9.824918e+00
9.928382e+00
9.838694e+00
9.871585e+00
9.888379e+00
9.867422e+00
9.885632e+00
9.386683e+00
7.987154e+00
6.179668e+00
9.995805e+00
9.995727e+00
9.995689e+00
9.995273e+00
9.994693e+00
9.993531e+00
9.992215e+00
9.992205e+00
9.992941e+00
9.992763e+00
9.989464e+00
9.473453e+00
8.823582e+00
8.363782e+00
7.976392e+00
7.897989e+00
9.995783e+00
9.995678e+00
9.995598e+00
9.995041e+00
9.994077e+00
9.991966e+00
9.927198e+00
9.959610e+00
9.987647e+00
9.908460e+00
9.348446e+00
8.576902e+00
7.694350e+00
7.733474e+00
8.635192e+00
9.149449e+00
9.834589e+00
9.816944e+00
9.991047e+00
9.828342e+00
9.824514e+00
9.679065e+00
9.323215e+00
9.510769e+00
9.379264e+00
8.848607e+00
8.298735e+00
7.882001e+00
8.178023e+00
8.736860e+00
9.434827e+00
9.985284e+00
8.063695e+00
8.443676e+00
8.646140e+00
8.341809e+00
8.043859e+00
7.909104e+00
7.738266e+00
7.707477e+00
7.787311e+00
7.310473e+00
7.465184e+00
8.476373e+00
9.274508e+00
9.834243e+00
9.991424e+00
9.994816e+00
5.637973e+00
6.114263e+00
6.843725e+00
5.880060e+00
5.493749e+00
5.829178e+00
5.688971e+00
6.160599e+00
6.088159e+00
6.439788e+00
7.838640e+00
9.101267e+00
9.974360e+00
9.993321e+00
9.995361e+00
9.996073e+00


-8.154595e-01
-1.718463e-01
-3.956112e-01
-2.562640e-01
-9.830164e-02
-3.030896e-01
-1.250295e-01
-2.097251e-01
-1.608900e-01
-1.596087e-01
-2.134520e-01
-1.504668e-01
-4.630225e-01
-6.833720e-01
3.163291e-01
-8.469394e-01
6.113333e-01
4.797300e-01
2.961944e-01
2.257725e-01
2.892720e-01
1.682440e-01
1.760364e-01
1.720622e-01
1.112200e-01
1.473946e-01
1.291218e-01
2.417222e-01
3.023537e-01
5.104273e-01
6.955878e-01
-9.356290e-01
7.234749e-01
4.713508e-01
5.777940e-02
-1.971384e-02
-3.797962e-02
-1.844094e-01
-8.022674e-02
-1.362957e-01
-7.548887e-02
-1.826911e-02
3.326508e-02
1.866725e-01
2.789712e-01
1.485305e-01
-2.474295e-02
-1.686784e-01
7.286598e-01
5.563122e-01
1.935727e-01
6.341269e-02
-2.332964e-02
-1.035322e-01
-1.709772e-02
-6.043775e-02
1.413861e-02
1.832592e-02
5.979581e-02
1.179835e-01
5.859162e-02
-2.628825e-01
-3.832553e-01
-7.749923e-02
7.315628e-01
5.602309e-01
2.014718e-01
7.140194e-02
-1.989506e-02
-1.097065e-01
-3.745983e-02
-1.009594e-01
-5.069577e-02
-4.107388e-02
2.121865e-02
1.468735e-02
-3.762516e-02
-1.307454e-01
-1.025057e-01
3.112447e-01
7.302669e-01
4.814959e-01
7.577377e-02
-1.933321e-03
-2.667457e-02
-1.605488e-01
-7.812725e-02
-1.906744e-01
-1.816832e-01
-1.081363e-01
-7.828142e-02
-9.805363e-02
-1.102454e-01
4.561796e-02
3.341070e-01
7.248809e-01
6.154053e-01
4.854699e-01
3.037239e-01
2.309671e-01
2.858263e-01
1.619582e-01
1.527427e-01
1.001299e-01
-5.581018e-02
-4.062161e-02
-9.688135e-02
-5.816081e-02
5.816025e-02
3.655708e-01
7.129005e-01
9.479118e-01
-8.208417e-01
-1.775862e-01
-4.031280e-01
-2.594272e-01
-9.821633e-02
-2.974295e-01
-1.204743e-01
-1.555597e-01
-5.595873e-02
-2.243994e-02
-9.245022e-02
9.858102e-02
3.883520e-01
7.720954e-01
9.528688e-01
9.987349e-01
1 2 19 18
2 3 20 19
3 4 21 20
4 5 22 21
5 6 23 22
6 7 24 23
7 8 25 24
8 9 26 25
9 10 27 26
10 11 28 27
11 12 29 28
12 13 30 29
13 14 31 30
14 15 32 31
15 16 33 32
16 17 34 33
18 19 36 35
19 20 37 36
20 21 38 37
21 22 39 38
22 23 40 39
23 24 41 40
24 25 42 41
25 26 43 42
26 27 44 43
27 28 45 44
28 29 46 45
29 30 47 46
30 31 48 47
31 32 49 48
32 33 50 49
33 34 51 50
35 36 53 52
36 37 54 53
37 38 55 54
38 39 56 55
39 40 57 56
40 41 58 57
41 42 59 58
42 43 60 59
43 44 61 60
44 45 62 61
45 46 63 62
46 47 64 63
47 48 65 64
48 49 66 65
49 50 67 66
50 51 68 67
52 53 70 69
53 54 71 70
54 55 72 71
55 56 73 72
56 57 74 73
57 58 75 74
58 59 76 75
59 60 77 76
60 61 78 77
61 62 79 78
62 63 80 79
63 64 81 80
64 65 82 81
65 66 83 82
66 67 84 83
67 68 85 84
69 70 87 86
70 71 88 87
71 72 89 88
72 73 90 89
73 74 91 90
74 75 92 91
75 76 93 92
76 77 94 93
77 78 95 94
78 79 96 95
79 80 97 96
80 81 98 97
81 82 99 98
82 83 100 99
83 84 101 100
84 85 102 101
86 87 104 103
87 88 105 104
88 89 106 105
89 90 107 106
90 91 108 107
91 92 109 108
92 93 110 109
93 94 111 110
94 95 112 111
95 96 113 112
96 97 114 113
97 98 115 114
98 99 116 115
99 100 117 116
100 101 118 117
101 102 119 118
103 104 121 120
104 105 122 121
105 106 123 122
106 107 124 123
107 108 125 124
108 109 126 125
109 110 127 126
110 111 128 127
111 112 129 128
112 113 130 129
113 114 131 130
114 115 132 131
115 116 133 132
116 117 134 133
117 118 135 134
118 119 136 135
120 121 138 137
121 122 139 138
122 123 140 139
123 124 141 140
124 125 142 141
125 126 143 142
126 127 144 143
127 128 145 144
128 129 146 145
129 130 147 146
130 131 148 147
131 132 149 148
132 133 150 149
133 134 151 150
134 135 152 151
135 136 153 152
