TITLE = "Solution"
VARIABLES = x, y, u, v, psiu, psiv, t, stress
ZONE T="structure" N=153 E=128 F=FEBLOCK ET=QUADRILATERAL VARLOCATION=([7,8]=cellcentered)
0.000000e+00
1.250000e+01
2.500000e+01
3.750000e+01
5.000000e+01
6.250000e+01
7.500000e+01
8.750000e+01
1.000000e+02
1.125000e+02
1.250000e+02
1.375000e+02
1.500000e+02
1.625000e+02
1.750000e+02
1.875000e+02
2.000000e+02
0.000000e+00
1.250000e+01
2.500000e+01
3.750000e+01
5.000000e+01
6.250000e+01
7.500000e+01
8.750000e+01
1.000000e+02
1.125000e+02
1.250000e+02
1.375000e+02
1.500000e+02
1.625000e+02
1.750000e+02
1.875000e+02
2.000000e+02
0.000000e+00
1.250000e+01
2.500000e+01
3.750000e+01
5.000000e+01
6.250000e+01
7.500000e+01
8.750000e+01
1.000000e+02
1.125000e+02
1.250000e+02
1.375000e+02
1.500000e+02
1.625000e+02
1.750000e+02
1.875000e+02
2.000000e+02
0.000000e+00
1.250000e+01
2.500000e+01
3.750000e+01
5.000000e+01
6.250000e+01
7.500000e+01
8.750000e+01
1.000000e+02
1.125000e+02
1.250000e+02
1.375000e+02
1.500000e+02
1.625000e+02
1.750000e+02
1.875000e+02
2.000000e+02
0.000000e+00
1.250000e+01
2.500000e+01
3.750000e+01
5.000000e+01
6.250000e+01
7.500000e+01
8.750000e+01
1.000000e+02
1.125000e+02
1.250000e+02
1.375000e+02
1.500000e+02
1.625000e+02
1.750000e+02
1.875000e+02
2.000000e+02
0.000000e+00
1.250000e+01
2.500000e+01
3.750000e+01
5.000000e+01
6.250000e+01
7.500000e+01
8.750000e+01
1.000000e+02
1.125000e+02
1.250000e+02
1.375000e+02
1.500000e+02
1.625000e+02
1.750000e+02
1.875000e+02
2.000000e+02
0.000000e+00
1.250000e+01
2.500000e+01
3.750000e+01
5.000000e+01
6.250000e+01
7.500000e+01
8.750000e+01
1.000000e+02
1.125000e+02
1.250000e+02
1.375000e+02
1.500000e+02
1.625000e+02
1.750000e+02
1.875000e+02
2.000000e+02
0.000000e+00
1.250000e+01
2.500000e+01
3.750000e+01
5.000000e+01
6.250000e+01
7.500000e+01
8.750000e+01
1.000000e+02
1.125000e+02
1.250000e+02
1.375000e+02
1.500000e+02
1.625000e+02
1.750000e+02
1.875000e+02
2.000000e+02
0.000000e+00
1.250000e+01
2.500000e+01
3.750000e+01
5.000000e+01
6.250000e+01
7.500000e+01
8.750000e+01
1.000000e+02
1.125000e+02
1.250000e+02
1.375000e+02
1.500000e+02
1.625000e+02
1.750000e+02
1.875000e+02
2.000000e+02
0.000000e+00
0.000000e+00
0.000000e+00
0.000000e+00
0.000000e+00
0.000000e+00
0.000000e+00
0.000000e+00
0.000000e+00
0.000000e+00
0.000000e+00
0.000000e+00
0.000000e+00
0.000000e+00
0.000000e+00
0.000000e+00
0.000000e+00
1.250000e+01
1.250000e+01
1.250000e+01
1.250000e+01
1.250000e+01
1.250000e+01
1.250000e+01
1.250000e+01
1.250000e+01
1.250000e+01
1.250000e+01
1.250000e+01
1.250000e+01
1.250000e+01
1.250000e+01
1.250000e+01
1.250000e+01
2.500000e+01
2.500000e+01
2.500000e+01
2.500000e+01
2.500000e+01
2.500000e+01
2.500000e+01
2.500000e+01
2.500000e+01
2.500000e+01
2.500000e+01
2.500000e+01
2.500000e+01
2.500000e+01
2.500000e+01
2.500000e+01
2.500000e+01
3.750000e+01
3.750000e+01
3.750000e+01
3.750000e+01
3.750000e+01
3.750000e+01
3.750000e+01
3.750000e+01
3.750000e+01
3.750000e+01
3.750000e+01
3.750000e+01
3.750000e+01
3.750000e+01
3.750000e+01
3.750000e+01
3.750000e+01
5.000000e+01
5.000000e+01
5.000000e+01
5.000000e+01
5.000000e+01
5.000000e+01
5.000000e+01
5.000000e+01
5.000000e+01
5.000000e+01
5.000000e+01
5.000000e+01
5.000000e+01
5.000000e+01
5.000000e+01
5.000000e+01
5.000000e+01
6.250000e+01
6.250000e+01
6.250000e+01
6.250000e+01
6.250000e+01
6.250000e+01
6.250000e+01
6.250000e+01
6.250000e+01
6.250000e+01
6.250000e+01
6.250000e+01
6.250000e+01
6.250000e+01
6.250000e+01
6.250000e+01
6.250000e+01
7.500000e+01
7.500000e+01
7.500000e+01
7.500000e+01
7.500000e+01
7.500000e+01
7.500000e+01
7.500000e+01
7.500000e+01
7.500000e+01
7.500000e+01
7.500000e+01
7.500000e+01
7.500000e+01
7.500000e+01
7.500000e+01
7.500000e+01
8.750000e+01
8.750000e+01
8.750000e+01
8.750000e+01
8.750000e+01
8.750000e+01
8.750000e+01
8.750000e+01
8.750000e+01
8.750000e+01
8.750000e+01
8.750000e+01
8.750000e+01
8.750000e+01
8.750000e+01
8.750000e+01
8.750000e+01
1.000000e+02
1.000000e+02
1.000000e+02
1.000000e+02
1.000000e+02
1.000000e+02
1.000000e+02
1.000000e+02
1.000000e+02
1.000000e+02
1.000000e+02
1.000000e+02
1.000000e+02
1.000000e+02
1.000000e+02
1.000000e+02
1.000000e+02
0.000000e+00
-7.159075e-02
-1.318213e-01
-1.872412e-01
-2.388525e-01
-2.865465e-01
-3.302208e-01
-3.698416e-01
-4.054664e-01
-4.372593e-01
-4.655357e-01
-4.908480e-01
-5.141471e-01
-5.370753e-01
-5.624654e-01
-5.936476e-01
-6.170464e-01
0.000000e+00
-4.275274e-02
-8.881049e-02
-1.313419e-01
-1.705263e-01
-2.065129e-01
-2.393761e-01
-2.691601e-01
-2.959184e-01
-3.197337e-01
-3.407266e-01
-3.590486e-01
-3.748166e-01
-3.878683e-01
-3.970743e-01
-3.990921e-01
-4.063265e-01
0.000000e+00
-2.673635e-02
-5.497661e-02
-8.315045e-02
-1.094498e-01
-1.335964e-01
-1.555704e-01
-1.753968e-01
-1.930805e-01
-2.085920e-01
-2.218479e-01
-2.326628e-01
-2.406514e-01
-2.451108e-01
-2.452346e-01
-2.434531e-01
-2.508316e-01
0.000000e+00
-1.290462e-02
-2.656588e-02
-4.031341e-02
-5.345853e-02
-6.556600e-02
-7.654022e-02
-8.634924e-02
-9.493691e-02
-1.021915e-01
-1.079275e-01
-1.118744e-01
-1.137089e-01
-1.132803e-01
-1.115195e-01
-1.120010e-01
-1.174950e-01
0.000000e+00
-1.188754e-05
-2.702411e-05
-4.211098e-05
-5.011783e-05
-3.536744e-05
3.325755e-05
2.115934e-04
5.912469e-04
1.308672e-03
2.541890e-03
4.469742e-03
7.140550e-03
1.015870e-02
1.224354e-02
1.167173e-02
8.034205e-03
0.000000e+00
1.288632e-02
2.652341e-02
4.024549e-02
5.337405e-02
6.549728e-02
7.656688e-02
8.663698e-02
9.579490e-02
1.041469e-01
1.118020e-01
1.188170e-01
1.250700e-01
1.300841e-01
1.330337e-01
1.332676e-01
1.314214e-01
0.000000e+00
2.673335e-02
5.496746e-02
8.313225e-02
1.094214e-01
1.335609e-01
1.555410e-01
1.754063e-01
1.931981e-01
2.089478e-01
2.226692e-01
2.343289e-01
2.437927e-01
2.507896e-01
2.549893e-01
2.563529e-01
2.559224e-01
0.000000e+00
4.277028e-02
8.884863e-02
1.314027e-01
1.706079e-01
2.066002e-01
2.394251e-01
2.690705e-01
2.954913e-01
3.186112e-01
3.383204e-01
3.544828e-01
3.669690e-01
3.757377e-01
3.809685e-01
3.831991e-01
3.836088e-01
0.000000e+00
7.162008e-02
1.318987e-01
1.873861e-01
2.390840e-01
2.868722e-01
3.306093e-01
3.701682e-01
4.054167e-01
4.361715e-01
4.621659e-01
4.830535e-01
4.984912e-01
5.083575e-01
5.131290e-01
5.143068e-01
5.142840e-01
0.000000e+00
-4.333585e-02
-8.507331e-02
-1.391553e-01
-2.055298e-01
-2.840726e-01
-3.739235e-01
-4.740769e-01
-5.834679e-01
-7.010457e-01
-8.258394e-01
-9.570766e-01
-1.094441e+00
-1.238665e+00
-1.393492e+00
-1.570642e+00
-1.825174e+00
0.000000e+00
-2.667835e-02
-7.021736e-02
-1.249700e-01
-1.924293e-01
-2.720439e-01
-3.629833e-01
-4.642173e-01
-5.746686e-01
-6.932673e-01
-8.190158e-01
-9.511063e-01
-1.089173e+00
-1.233931e+00
-1.388697e+00
-1.564772e+00
-1.780482e+00
0.000000e+00
-2.013117e-02
-5.991847e-02
-1.148732e-01
-1.829703e-01
-2.634044e-01
-3.551797e-01
-4.572560e-01
-5.685634e-01
-6.880473e-01
-8.147293e-01
-9.478292e-01
-1.087016e+00
-1.232887e+00
-1.387786e+00
-1.554623e+00
-1.716086e+00
0.000000e+00
-1.734761e-02
-5.479792e-02
-1.089467e-01
-1.772899e-01
-2.582192e-01
-3.505666e-01
-4.532527e-01
-5.652275e-01
-6.854650e-01
-8.130081e-01
-9.470613e-01
-1.087137e+00
-1.233169e+00
-1.384969e+00
-1.538269e+00
-1.679493e+00
0.000000e+00
-1.654572e-02
-5.324820e-02
-1.070561e-01
-1.754179e-01
-2.565486e-01
-3.491616e-01
-4.521782e-01
-5.645686e-01
-6.853235e-01
-8.134644e-01
-9.480701e-01
-1.088270e+00
-1.233031e+00
-1.380186e+00
-1.524702e+00
-1.657837e+00
0.000000e+00
-1.733731e-02
-5.479059e-02
-1.089597e-01
-1.773540e-01
-2.583879e-01
-3.509276e-01
-4.539364e-01
-5.664062e-01
-6.873228e-01
-8.156445e-01
-9.502565e-01
-1.089857e+00
-1.232668e+00
-1.375948e+00
-1.515509e+00
-1.645802e+00
0.000000e+00
-2.011438e-02
-5.990633e-02
-1.148950e-01
-1.830782e-01
-2.636899e-01
-3.557917e-01
-4.584169e-01
-5.705676e-01
-6.912120e-01
-8.192383e-01
-9.533603e-01
-1.091962e+00
-1.232902e+00
-1.373405e+00
-1.510287e+00
-1.640494e+00
0.000000e+00
-2.666260e-02
-7.020679e-02
-1.249989e-01
-1.925589e-01
-2.723796e-01
-3.636957e-01
-4.655591e-01
-5.769708e-01
-6.968803e-01
-8.241300e-01
-9.573421e-01
-1.094763e+00
-1.234134e+00
-1.372768e+00
-1.508128e+00
-1.639248e+00
0.000000e+00
-4.332935e-02
-8.507422e-02
-1.392000e-01
-2.056800e-01
-2.844313e-01
-3.746524e-01
-4.754069e-01
-5.856854e-01
-7.044187e-01
-8.304216e-01
-9.622856e-01
-1.098245e+00
-1.236092e+00
-1.373309e+00
-1.507733e+00
-1.639267e+00


0.000000e+00
7.515482e-11
1.554310e-10
2.265506e-10
2.866392e-10
3.354537e-10
3.739050e-10
4.033789e-10
4.254301e-10
4.414942e-10
4.529394e-10
4.609709e-10
4.666972e-10
4.711467e-10
4.752841e-10
4.803830e-10
4.865004e-10
0.000000e+00
5.111318e-11
1.204546e-10
1.769575e-10
2.222873e-10
2.581161e-10
2.857697e-10
3.066251e-10
3.219339e-10
3.328303e-10
3.403077e-10
3.451619e-10
3.480309e-10
3.494436e-10
3.508755e-10
3.550464e-10
3.613447e-10
0.000000e+00
3.805626e-11
8.366791e-11
1.217827e-10
1.524180e-10
1.760697e-10
1.938917e-10
2.069811e-10
2.163270e-10
2.227042e-10
2.267863e-10
2.290960e-10
2.301267e-10
2.305237e-10
2.315293e-10
2.347955e-10
2.398936e-10
0.000000e+00
2.036856e-11
4.173423e-11
6.079995e-11
7.640073e-11
8.832741e-11
9.713763e-11
1.034605e-10
1.078270e-10
1.106511e-10
1.122909e-10
1.130748e-10
1.133930e-10
1.137453e-10
1.146261e-10
1.166127e-10
1.197541e-10
0.000000e+00
-1.881194e-14
-5.171336e-14
-9.660519e-14
-1.601228e-13
-2.542957e-13
-3.790927e-13
-5.628793e-13
-8.063445e-13
-1.114425e-12
-1.466778e-12
-1.770812e-12
-1.897879e-12
-1.693139e-12
-1.153181e-12
-1.965661e-13
1.439252e-12
0.000000e+00
-2.041665e-11
-4.183032e-11
-6.096882e-11
-7.666170e-11
-8.872594e-11
-9.773714e-11
-1.043388e-10
-1.090831e-10
-1.123937e-10
-1.145997e-10
-1.159597e-10
-1.166590e-10
-1.168920e-10
-1.168805e-10
-1.166440e-10
-1.159414e-10
0.000000e+00
-3.807489e-11
-8.372527e-11
-1.218925e-10
-1.525974e-10
-1.763319e-10
-1.942433e-10
-2.074374e-10
-2.169053e-10
-2.234356e-10
-2.277383e-10
-2.303866e-10
-2.319054e-10
-2.327210e-10
-2.331596e-10
-2.333107e-10
-2.331128e-10
0.000000e+00
-5.113234e-11
-1.204998e-10
-1.770376e-10
-2.223876e-10
-2.582333e-10
-2.858862e-10
-3.066996e-10
-3.219117e-10
-3.326497e-10
-3.399163e-10
-3.445953e-10
-3.474577e-10
-3.491188e-10
-3.500375e-10
-3.504557e-10
-3.505127e-10
0.000000e+00
-7.519179e-11
-1.554969e-10
-2.266256e-10
-2.867084e-10
-3.354911e-10
-3.738437e-10
-4.031559e-10
-4.249368e-10
-4.406080e-10
-4.515211e-10
-4.588090e-10
-4.634729e-10
-4.662633e-10
-4.677330e-10
-4.683007e-10
-4.683887e-10
0.000000e+00
6.826832e-11
1.227088e-10
1.798509e-10
2.484503e-10
3.292167e-10
4.204940e-10
5.201452e-10
6.261262e-10
7.367343e-10
8.506822e-10
9.671014e-10
1.085611e-09
1.207030e-09
1.334589e-09
1.469970e-09
1.607113e-09
0.000000e+00
3.670233e-11
8.990274e-11
1.508748e-10
2.246910e-10
3.104534e-10
4.061421e-10
5.094527e-10
6.183716e-10
7.313004e-10
8.470048e-10
9.646992e-10
1.084055e-09
1.205434e-09
1.330411e-09
1.462024e-09
1.596930e-09
0.000000e+00
1.810004e-11
6.414543e-11
1.282512e-10
2.063114e-10
2.962123e-10
3.954093e-10
5.015757e-10
6.127788e-10
7.274909e-10
8.445704e-10
9.632774e-10
1.083219e-09
1.204184e-09
1.326323e-09
1.453577e-09
1.584865e-09
0.000000e+00
1.029500e-11
5.198855e-11
1.163894e-10
1.966716e-10
2.888431e-10
3.899469e-10
4.976352e-10
6.100441e-10
7.257101e-10
8.435266e-10
9.627285e-10
1.082801e-09
1.203192e-09
1.323785e-09
1.447574e-09
1.574288e-09
0.000000e+00
8.314779e-12
4.867087e-11
1.128019e-10
1.937063e-10
2.866041e-10
3.883190e-10
4.964974e-10
6.093142e-10
7.252999e-10
8.433610e-10
9.626722e-10
1.082620e-09
1.202658e-09
1.322591e-09
1.444136e-09
1.566762e-09
0.000000e+00
1.031266e-11
5.201268e-11
1.164244e-10
1.967158e-10
2.889091e-10
3.900521e-10
4.978062e-10
6.103174e-10
7.260928e-10
8.439879e-10
9.631227e-10
1.082849e-09
1.202645e-09
1.322316e-09
1.442477e-09
1.562427e-09
0.000000e+00
1.812444e-11
6.418281e-11
1.283148e-10
2.063885e-10
2.963453e-10
3.956249e-10
5.019172e-10
6.133200e-10
7.282411e-10
8.454975e-10
9.641380e-10
1.083468e-09
1.202986e-09
1.322399e-09
1.441739e-09
1.560401e-09
0.000000e+00
3.674473e-11
8.996566e-11
1.509834e-10
2.248185e-10
3.106547e-10
4.064456e-10
5.099120e-10
6.190552e-10
7.322302e-10
8.481466e-10
9.657969e-10
1.084436e-09
1.203487e-09
1.322585e-09
1.441459e-09
1.559724e-09
0.000000e+00
6.832091e-11
1.227997e-10
1.799877e-10
2.486267e-10
3.294523e-10
4.208242e-10
5.206101e-10
6.267719e-10
7.375803e-10
8.516822e-10
9.679961e-10
1.085693e-09
1.204140e-09
1.322852e-09
1.441440e-09
1.559616e-09


2.091821e-01
2.091821e-01
2.091821e-01
2.091821e-01
2.091821e-01
2.091821e-01
2.091821e-01
2.091821e-01
2.091821e-01
2.091821e-01
2.091821e-01
2.091821e-01
2.091821e-01
2.091821e-01
2.091821e-01
2.091821e-01
2.091821e-01
2.091821e-01
2.091821e-01
2.091821e-01
2.091821e-01
2.091821e-01
2.091821e-01
2.091821e-01
2.091821e-01
2.091821e-01
2.091821e-01
2.091821e-01
2.091821e-01
2.091821e-01
2.091821e-01
2.091821e-01
2.091821e-01
2.091821e-01
2.091821e-01
2.091821e-01
2.091821e-01
2.091821e-01
2.091821e-01
2.091821e-01
2.091821e-01
2.091821e-01
2.091821e-01
2.091821e-01
2.091821e-01
2.091821e-01
2.091821e-01
2.091821e-01
2.091821e-01
2.091821e-01
2.091821e-01
2.091821e-01
2.091821e-01
2.091821e-01
2.091821e-01
2.091821e-01
2.091821e-01
2.091821e-01
2.091821e-01
2.091821e-01
2.091821e-01
2.091821e-01
2.091821e-01
2.091821e-01
2.091821e-01
2.091821e-01
2.091821e-01
2.091821e-01
2.091821e-01
2.091821e-01
2.091821e-01
2.091821e-01
2.091821e-01
2.091821e-01
2.091821e-01
2.091821e-01
2.091821e-01
2.091821e-01
2.091821e-01
2.091821e-01
2.091821e-01
2.091821e-01
2.091821e-01
2.091821e-01
2.091821e-01
2.091821e-01
2.091821e-01
2.091821e-01
2.091821e-01
2.091821e-01
2.091821e-01
2.091821e-01
2.091821e-01
2.091821e-01
2.091821e-01
2.091821e-01
2.091821e-01
2.091821e-01
2.091821e-01
2.091821e-01
2.091821e-01
2.091821e-01
2.091821e-01
2.091821e-01
2.091821e-01
2.091821e-01
2.091821e-01
2.091821e-01
2.091821e-01
2.091821e-01
2.091821e-01
2.091821e-01
2.091821e-01
2.091821e-01
2.091821e-01
2.091821e-01
2.091821e-01
2.091821e-01
2.091821e-01
2.091821e-01
2.091821e-01
2.091821e-01
2.091821e-01
2.091821e-01
2.091821e-01
2.091821e-01
2.091821e-01
2.091821e-01


9.884691e-01
9.901042e-01
9.916169e-01
9.927813e-01
9.938622e-01
9.948588e-01
9.957668e-01
9.965755e-01
9.972765e-01
9.978627e-01
9.983289e-01
9.986703e-01
9.988826e-01
9.989583e-01
9.990130e-01
9.956431e-01
9.956376e-01
9.948883e-01
9.953704e-01
9.959996e-01
9.965863e-01
9.971194e-01
9.976021e-01
9.980393e-01
9.984351e-01
9.987936e-01
9.991190e-01
9.994135e-01
9.996705e-01
9.998388e-01
9.994132e-01
9.936447e-01
9.984843e-01
9.980539e-01
9.979377e-01
9.981012e-01
9.983161e-01
9.985244e-01
9.987177e-01
9.989004e-01
9.990774e-01
9.992499e-01
9.994111e-01
9.995358e-01
9.995619e-01
9.993372e-01
9.985221e-01
9.970562e-01
9.996915e-01
9.993776e-01
9.991837e-01
9.991345e-01
9.991542e-01
9.991872e-01
9.992201e-01
9.992522e-01
9.992838e-01
9.993102e-01
9.993176e-01
9.992783e-01
9.991536e-01
9.989300e-01
9.987403e-01
9.986923e-01
9.996927e-01
9.993793e-01
9.991852e-01
9.991342e-01
9.991493e-01
9.991731e-01
9.991896e-01
9.991951e-01
9.991875e-01
9.991632e-01
9.991180e-01
9.990528e-01
9.989907e-01
9.990030e-01
9.991786e-01
9.994824e-01
9.984864e-01
9.980572e-01
9.979409e-01
9.981012e-01
9.983078e-01
9.984986e-01
9.986601e-01
9.987898e-01
9.988870e-01
9.989525e-01
9.989939e-01
9.990343e-01
9.991193e-01
9.992975e-01
9.995651e-01
9.998418e-01
9.956372e-01
9.948880e-01
9.953697e-01
9.959978e-01
9.965817e-01
9.971090e-01
9.975804e-01
9.979978e-01
9.983615e-01
9.986724e-01
9.989356e-01
9.991654e-01
9.993868e-01
9.996188e-01
9.998358e-01
9.999725e-01
9.884612e-01
9.900919e-01
9.916018e-01
9.927644e-01
9.938470e-01
9.948533e-01
9.957856e-01
9.966416e-01
9.974216e-01
9.981240e-01
9.987406e-01
9.992520e-01
9.996325e-01
9.998672e-01
9.999740e-01
9.999994e-01
1 2 19 18
2 3 20 19
3 4 21 20
4 5 22 21
5 6 23 22
6 7 24 23
7 8 25 24
8 9 26 25
9 10 27 26
10 11 28 27
11 12 29 28
12 13 30 29
13 14 31 30
14 15 32 31
15 16 33 32
16 17 34 33
18 19 36 35
19 20 37 36
20 21 38 37
21 22 39 38
22 23 40 39
23 24 41 40
24 25 42 41
25 26 43 42
26 27 44 43
27 28 45 44
28 29 46 45
29 30 47 46
30 31 48 47
31 32 49 48
32 33 50 49
33 34 51 50
35 36 53 52
36 37 54 53
37 38 55 54
38 39 56 55
39 40 57 56
40 41 58 57
41 42 59 58
42 43 60 59
43 44 61 60
44 45 62 61
45 46 63 62
46 47 64 63
47 48 65 64
48 49 66 65
49 50 67 66
50 51 68 67
52 53 70 69
53 54 71 70
54 55 72 71
55 56 73 72
56 57 74 73
57 58 75 74
58 59 76 75
59 60 77 76
60 61 78 77
61 62 79 78
62 63 80 79
63 64 81 80
64 65 82 81
65 66 83 82
66 67 84 83
67 68 85 84
69 70 87 86
70 71 88 87
71 72 89 88
72 73 90 89
73 74 91 90
74 75 92 91
75 76 93 92
76 77 94 93
77 78 95 94
78 79 96 95
79 80 97 96
80 81 98 97
81 82 99 98
82 83 100 99
83 84 101 100
84 85 102 101
86 87 104 103
87 88 105 104
88 89 106 105
89 90 107 106
90 91 108 107
91 92 109 108
92 93 110 109
93 94 111 110
94 95 112 111
95 96 113 112
96 97 114 113
97 98 115 114
98 99 116 115
99 100 117 116
100 101 118 117
101 102 119 118
103 104 121 120
104 105 122 121
105 106 123 122
106 107 124 123
107 108 125 124
108 109 126 125
109 110 127 126
110 111 128 127
111 112 129 128
112 113 130 129
113 114 131 130
114 115 132 131
115 116 133 132
116 117 134 133
117 118 135 134
118 119 136 135
120 121 138 137
121 122 139 138
122 123 140 139
123 124 141 140
124 125 142 141
125 126 143 142
126 127 144 143
127 128 145 144
128 129 146 145
129 130 147 146
130 131 148 147
131 132 149 148
132 133 150 149
133 134 151 150
134 135 152 151
135 136 153 152
