TITLE = "Solution"
VARIABLES = x, y, u, v, psiu, psiv, t, stress
ZONE T="structure" N=153 E=128 F=FEBLOCK ET=QUADRILATERAL VARLOCATION=([7,8]=cellcentered)
0.000000e+00
1.250000e+01
2.500000e+01
3.750000e+01
5.000000e+01
6.250000e+01
7.500000e+01
8.750000e+01
1.000000e+02
1.125000e+02
1.250000e+02
1.375000e+02
1.500000e+02
1.625000e+02
1.750000e+02
1.875000e+02
2.000000e+02
0.000000e+00
1.250000e+01
2.500000e+01
3.750000e+01
5.000000e+01
6.250000e+01
7.500000e+01
8.750000e+01
1.000000e+02
1.125000e+02
1.250000e+02
1.375000e+02
1.500000e+02
1.625000e+02
1.750000e+02
1.875000e+02
2.000000e+02
0.000000e+00
1.250000e+01
2.500000e+01
3.750000e+01
5.000000e+01
6.250000e+01
7.500000e+01
8.750000e+01
1.000000e+02
1.125000e+02
1.250000e+02
1.375000e+02
1.500000e+02
1.625000e+02
1.750000e+02
1.875000e+02
2.000000e+02
0.000000e+00
1.250000e+01
2.500000e+01
3.750000e+01
5.000000e+01
6.250000e+01
7.500000e+01
8.750000e+01
1.000000e+02
1.125000e+02
1.250000e+02
1.375000e+02
1.500000e+02
1.625000e+02
1.750000e+02
1.875000e+02
2.000000e+02
0.000000e+00
1.250000e+01
2.500000e+01
3.750000e+01
5.000000e+01
6.250000e+01
7.500000e+01
8.750000e+01
1.000000e+02
1.125000e+02
1.250000e+02
1.375000e+02
1.500000e+02
1.625000e+02
1.750000e+02
1.875000e+02
2.000000e+02
0.000000e+00
1.250000e+01
2.500000e+01
3.750000e+01
5.000000e+01
6.250000e+01
7.500000e+01
8.750000e+01
1.000000e+02
1.125000e+02
1.250000e+02
1.375000e+02
1.500000e+02
1.625000e+02
1.750000e+02
1.875000e+02
2.000000e+02
0.000000e+00
1.250000e+01
2.500000e+01
3.750000e+01
5.000000e+01
6.250000e+01
7.500000e+01
8.750000e+01
1.000000e+02
1.125000e+02
1.250000e+02
1.375000e+02
1.500000e+02
1.625000e+02
1.750000e+02
1.875000e+02
2.000000e+02
0.000000e+00
1.250000e+01
2.500000e+01
3.750000e+01
5.000000e+01
6.250000e+01
7.500000e+01
8.750000e+01
1.000000e+02
1.125000e+02
1.250000e+02
1.375000e+02
1.500000e+02
1.625000e+02
1.750000e+02
1.875000e+02
2.000000e+02
0.000000e+00
1.250000e+01
2.500000e+01
3.750000e+01
5.000000e+01
6.250000e+01
7.500000e+01
8.750000e+01
1.000000e+02
1.125000e+02
1.250000e+02
1.375000e+02
1.500000e+02
1.625000e+02
1.750000e+02
1.875000e+02
2.000000e+02
0.000000e+00
0.000000e+00
0.000000e+00
0.000000e+00
0.000000e+00
0.000000e+00
0.000000e+00
0.000000e+00
0.000000e+00
0.000000e+00
0.000000e+00
0.000000e+00
0.000000e+00
0.000000e+00
0.000000e+00
0.000000e+00
0.000000e+00
1.250000e+01
1.250000e+01
1.250000e+01
1.250000e+01
1.250000e+01
1.250000e+01
1.250000e+01
1.250000e+01
1.250000e+01
1.250000e+01
1.250000e+01
1.250000e+01
1.250000e+01
1.250000e+01
1.250000e+01
1.250000e+01
1.250000e+01
2.500000e+01
2.500000e+01
2.500000e+01
2.500000e+01
2.500000e+01
2.500000e+01
2.500000e+01
2.500000e+01
2.500000e+01
2.500000e+01
2.500000e+01
2.500000e+01
2.500000e+01
2.500000e+01
2.500000e+01
2.500000e+01
2.500000e+01
3.750000e+01
3.750000e+01
3.750000e+01
3.750000e+01
3.750000e+01
3.750000e+01
3.750000e+01
3.750000e+01
3.750000e+01
3.750000e+01
3.750000e+01
3.750000e+01
3.750000e+01
3.750000e+01
3.750000e+01
3.750000e+01
3.750000e+01
5.000000e+01
5.000000e+01
5.000000e+01
5.000000e+01
5.000000e+01
5.000000e+01
5.000000e+01
5.000000e+01
5.000000e+01
5.000000e+01
5.000000e+01
5.000000e+01
5.000000e+01
5.000000e+01
5.000000e+01
5.000000e+01
5.000000e+01
6.250000e+01
6.250000e+01
6.250000e+01
6.250000e+01
6.250000e+01
6.250000e+01
6.250000e+01
6.250000e+01
6.250000e+01
6.250000e+01
6.250000e+01
6.250000e+01
6.250000e+01
6.250000e+01
6.250000e+01
6.250000e+01
6.250000e+01
7.500000e+01
7.500000e+01
7.500000e+01
7.500000e+01
7.500000e+01
7.500000e+01
7.500000e+01
7.500000e+01
7.500000e+01
7.500000e+01
7.500000e+01
7.500000e+01
7.500000e+01
7.500000e+01
7.500000e+01
7.500000e+01
7.500000e+01
8.750000e+01
8.750000e+01
8.750000e+01
8.750000e+01
8.750000e+01
8.750000e+01
8.750000e+01
8.750000e+01
8.750000e+01
8.750000e+01
8.750000e+01
8.750000e+01
8.750000e+01
8.750000e+01
8.750000e+01
8.750000e+01
8.750000e+01
1.000000e+02
1.000000e+02
1.000000e+02
1.000000e+02
1.000000e+02
1.000000e+02
1.000000e+02
1.000000e+02
1.000000e+02
1.000000e+02
1.000000e+02
1.000000e+02
1.000000e+02
1.000000e+02
1.000000e+02
1.000000e+02
1.000000e+02
0.000000e+00
-7.813523e-01
-1.432108e+00
-2.054825e+00
-2.679274e+00
-3.292660e+00
-3.886391e+00
-4.454035e+00
-4.987831e+00
-5.480894e+00
-5.930168e+00
-6.338577e+00
-6.717295e+00
-7.089241e+00
-7.494375e+00
-7.979763e+00
-8.338457e+00
0.000000e+00
-4.491664e-01
-9.362827e-01
-1.407105e+00
-1.876770e+00
-2.337182e+00
-2.782299e+00
-3.207771e+00
-3.607830e+00
-3.976603e+00
-4.309849e+00
-4.605482e+00
-4.862411e+00
-5.075755e+00
-5.224925e+00
-5.257695e+00
-5.370128e+00
0.000000e+00
-2.690853e-01
-5.606805e-01
-8.717947e-01
-1.185889e+00
-1.493939e+00
-1.791312e+00
-2.074260e+00
-2.338118e+00
-2.577677e+00
-2.787550e+00
-2.961743e+00
-3.092020e+00
-3.165669e+00
-3.169041e+00
-3.141694e+00
-3.257175e+00
0.000000e+00
-1.260772e-01
-2.652039e-01
-4.170006e-01
-5.738552e-01
-7.281974e-01
-8.767137e-01
-1.016513e+00
-1.144199e+00
-1.255636e+00
-1.345836e+00
-1.408878e+00
-1.438449e+00
-1.431428e+00
-1.402722e+00
-1.409944e+00
-1.497174e+00
0.000000e+00
-3.391259e-04
-7.301256e-04
-1.113143e-03
-1.363590e-03
-1.237636e-03
-2.318614e-04
2.559273e-03
8.643684e-03
2.028081e-02
4.042731e-02
7.206736e-02
1.160601e-01
1.659773e-01
2.008129e-01
1.923403e-01
1.338004e-01
0.000000e+00
1.255234e-01
2.639685e-01
4.150691e-01
5.713810e-01
7.257587e-01
8.756254e-01
1.019497e+00
1.156331e+00
1.285586e+00
1.407137e+00
1.520470e+00
1.622618e+00
1.705137e+00
1.754041e+00
1.758382e+00
1.728442e+00
0.000000e+00
2.688353e-01
5.600846e-01
8.707346e-01
1.184336e+00
1.492002e+00
1.789339e+00
2.072903e+00
2.338593e+00
2.582147e+00
2.799700e+00
2.987657e+00
3.141801e+00
3.256469e+00
3.325553e+00
3.348103e+00
3.341141e+00
0.000000e+00
4.492537e-01
9.364325e-01
1.407326e+00
1.876934e+00
2.337079e+00
2.781512e+00
3.204963e+00
3.599957e+00
3.957860e+00
4.270467e+00
4.530852e+00
4.733893e+00
4.877214e+00
4.962920e+00
4.999504e+00
5.006238e+00
0.000000e+00
7.815933e-01
1.432787e+00
2.056364e+00
2.681727e+00
3.296193e+00
3.890865e+00
4.457852e+00
4.986181e+00
5.463058e+00
5.875651e+00
6.212106e+00
6.462874e+00
6.623797e+00
6.701692e+00
6.720845e+00
6.720430e+00
0.000000e+00
-4.773433e-01
-9.619916e-01
-1.601652e+00
-2.394684e+00
-3.342751e+00
-4.443326e+00
-5.690343e+00
-7.074280e+00
-8.583665e+00
-1.020649e+01
-1.193245e+01
-1.375734e+01
-1.569230e+01
-1.779453e+01
-2.024419e+01
-2.388632e+01
0.000000e+00
-2.968076e-01
-8.007075e-01
-1.437722e+00
-2.232159e+00
-3.184334e+00
-4.291071e+00
-5.546156e+00
-6.940308e+00
-8.461643e+00
-1.009721e+01
-1.183559e+01
-1.367142e+01
-1.561569e+01
-1.771913e+01
-2.015410e+01
-2.319694e+01
0.000000e+00
-2.311506e-01
-6.904483e-01
-1.323228e+00
-2.117112e+00
-3.072184e+00
-4.183827e+00
-5.445623e+00
-6.848451e+00
-8.380562e+00
-1.002903e+01
-1.178249e+01
-1.363591e+01
-1.559850e+01
-1.770533e+01
-1.999729e+01
-2.220036e+01
0.000000e+00
-2.100434e-01
-6.390066e-01
-1.257706e+00
-2.049682e+00
-3.006312e+00
-4.121750e+00
-5.389130e+00
-6.799498e+00
-8.341471e+00
-1.000234e+01
-1.177033e+01
-1.363772e+01
-1.560299e+01
-1.766110e+01
-1.974083e+01
-2.162540e+01
0.000000e+00
-2.057300e-01
-6.245793e-01
-1.237489e+00
-2.027965e+00
-2.985667e+00
-4.103519e+00
-5.374771e+00
-6.790730e+00
-8.340254e+00
-1.001027e+01
-1.178691e+01
-1.365617e+01
-1.560081e+01
-1.758442e+01
-1.952412e+01
-2.127826e+01
0.000000e+00
-2.098568e-01
-6.388887e-01
-1.257961e+00
-2.050777e+00
-3.009077e+00
-4.127555e+00
-5.400078e+00
-6.818410e+00
-8.371394e+00
-1.004496e+01
-1.182213e+01
-1.368186e+01
-1.559486e+01
-1.751561e+01
-1.937515e+01
-2.108282e+01
0.000000e+00
-2.308445e-01
-6.902329e-01
-1.323601e+00
-2.118894e+00
-3.076756e+00
-4.193520e+00
-5.464022e+00
-6.880385e+00
-8.431300e+00
-1.010168e+01
-1.187188e+01
-1.371589e+01
-1.559854e+01
-1.747399e+01
-1.928989e+01
-2.099620e+01
0.000000e+00
-2.965044e-01
-8.004633e-01
-1.438131e+00
-2.234196e+00
-3.189589e+00
-4.302224e+00
-5.567266e+00
-6.976800e+00
-8.519330e+00
-1.017931e+01
-1.193597e+01
-1.376134e+01
-1.561856e+01
-1.746349e+01
-1.925452e+01
-2.097592e+01
0.000000e+00
-4.771239e-01
-9.618555e-01
-1.602221e+00
-2.396920e+00
-3.348285e+00
-4.454732e+00
-5.711312e+00
-7.109463e+00
-8.637475e+00
-1.027985e+01
-1.201592e+01
-1.381802e+01
-1.565051e+01
-1.747231e+01
-1.924803e+01
-2.097628e+01


0.000000e+00
6.866139e-06
1.390284e-05
2.023092e-05
2.605432e-05
3.123289e-05
3.555101e-05
3.893924e-05
4.146196e-05
4.325615e-05
4.448470e-05
4.530816e-05
4.587392e-05
4.631684e-05
4.675714e-05
4.737190e-05
4.817410e-05
0.000000e+00
5.004004e-06
1.114586e-05
1.600041e-05
2.034454e-05
2.419320e-05
2.735554e-05
2.977248e-05
3.151714e-05
3.271285e-05
3.349071e-05
3.396655e-05
3.422357e-05
3.431940e-05
3.442384e-05
3.492019e-05
3.574268e-05
0.000000e+00
3.702058e-06
7.684299e-06
1.096276e-05
1.390099e-05
1.642861e-05
1.847829e-05
2.003261e-05
2.113789e-05
2.186979e-05
2.231262e-05
2.254386e-05
2.262848e-05
2.264335e-05
2.273446e-05
2.313143e-05
2.378766e-05
0.000000e+00
1.848263e-06
3.591325e-06
5.323294e-06
6.839433e-06
8.105531e-06
9.126161e-06
9.907620e-06
1.046339e-05
1.082253e-05
1.102561e-05
1.111867e-05
1.115435e-05
1.119594e-05
1.129882e-05
1.152984e-05
1.190718e-05
0.000000e+00
-4.635467e-09
-9.498308e-09
-1.463076e-08
-2.085344e-08
-2.918972e-08
-4.091088e-08
-5.764620e-08
-8.079705e-08
-1.103330e-07
-1.428928e-07
-1.691499e-07
-1.724562e-07
-1.375841e-07
-7.220786e-08
2.524153e-08
1.996054e-07
0.000000e+00
-1.856819e-06
-3.608715e-06
-5.350780e-06
-6.878634e-06
-8.159026e-06
-9.198078e-06
-1.000397e-05
-1.059243e-05
-1.099372e-05
-1.124650e-05
-1.138822e-05
-1.145034e-05
-1.146260e-05
-1.145863e-05
-1.144236e-05
-1.137560e-05
0.000000e+00
-3.706403e-06
-7.697025e-06
-1.098770e-05
-1.393928e-05
-1.647853e-05
-1.853748e-05
-2.009772e-05
-2.120527e-05
-2.193910e-05
-2.239048e-05
-2.264670e-05
-2.278098e-05
-2.284997e-05
-2.289106e-05
-2.290984e-05
-2.289260e-05
0.000000e+00
-5.003014e-06
-1.115228e-05
-1.602182e-05
-2.038141e-05
-2.423957e-05
-2.740355e-05
-2.981021e-05
-3.152922e-05
-3.268726e-05
-3.342513e-05
-3.387286e-05
-3.413497e-05
-3.428611e-05
-3.437237e-05
-3.441376e-05
-3.441994e-05
0.000000e+00
-6.866154e-06
-1.390705e-05
-2.024784e-05
-2.608274e-05
-3.126516e-05
-3.557705e-05
-3.894389e-05
-4.142621e-05
-4.316278e-05
-4.432132e-05
-4.506269e-05
-4.551929e-05
-4.578736e-05
-4.592882e-05
-4.598316e-05
-4.599243e-05
0.000000e+00
6.099616e-06
1.057925e-05
1.563272e-05
2.205563e-05
2.968067e-05
3.831373e-05
4.780293e-05
5.798460e-05
6.869357e-05
7.978750e-05
9.116066e-05
1.027612e-04
1.146697e-04
1.273343e-04
1.410801e-04
1.551149e-04
0.000000e+00
3.104852e-06
7.654340e-06
1.292457e-05
1.958501e-05
2.755275e-05
3.661613e-05
4.653241e-05
5.708507e-05
6.808835e-05
7.939952e-05
9.092318e-05
1.026182e-04
1.145253e-04
1.268373e-04
1.400436e-04
1.537590e-04
0.000000e+00
1.359816e-06
5.390194e-06
1.093321e-05
1.780316e-05
2.603314e-05
3.539989e-05
4.562093e-05
5.644280e-05
6.766516e-05
7.914292e-05
9.078565e-05
1.025505e-04
1.144106e-04
1.263484e-04
1.389563e-04
1.521829e-04
0.000000e+00
7.849432e-07
4.399098e-06
9.951379e-06
1.697069e-05
2.533396e-05
3.482574e-05
4.517495e-05
5.612187e-05
6.745544e-05
7.902280e-05
9.072684e-05
1.025080e-04
1.143018e-04
1.260664e-04
1.382373e-04
1.508756e-04
0.000000e+00
6.743764e-07
4.136804e-06
9.635304e-06
1.671597e-05
2.512522e-05
3.465316e-05
4.503972e-05
5.602700e-05
6.739884e-05
7.899628e-05
9.071397e-05
1.024813e-04
1.142377e-04
1.259608e-04
1.378876e-04
1.500117e-04
0.000000e+00
7.855271e-07
4.398049e-06
9.949310e-06
1.696931e-05
2.533522e-05
3.483240e-05
4.519064e-05
5.614944e-05
6.749474e-05
7.906759e-05
9.075950e-05
1.024979e-04
1.142329e-04
1.259544e-04
1.377459e-04
1.495454e-04
0.000000e+00
1.360854e-06
5.388894e-06
1.093094e-05
1.780264e-05
2.603765e-05
3.541452e-05
4.565240e-05
5.649648e-05
6.774159e-05
7.923325e-05
9.086264e-05
1.025560e-04
1.142660e-04
1.259730e-04
1.376851e-04
1.493368e-04
0.000000e+00
3.107437e-06
7.657425e-06
1.292895e-05
1.959197e-05
2.756454e-05
3.663822e-05
4.657183e-05
5.714779e-05
6.817655e-05
7.950649e-05
9.102335e-05
1.026444e-04
1.143130e-04
1.259936e-04
1.376600e-04
1.492690e-04
0.000000e+00
6.104871e-06
1.058990e-05
1.564823e-05
2.207303e-05
2.970005e-05
3.833876e-05
4.783785e-05
5.803413e-05
6.876154e-05
7.987055e-05
9.123670e-05
1.027617e-04
1.143730e-04
1.260190e-04
1.376583e-04
1.492589e-04


2.110101e+00
2.099235e+00
2.216726e+00
2.416289e+00
2.594219e+00
2.767145e+00
2.938034e+00
3.090776e+00
3.213309e+00
3.302922e+00
3.362962e+00
3.398283e+00
3.406866e+00
3.367164e+00
3.284375e+00
3.221243e+00
2.409021e+00
2.395539e+00
2.480707e+00
2.632976e+00
2.771101e+00
2.906735e+00
3.042117e+00
3.163511e+00
3.261128e+00
3.332551e+00
3.380159e+00
3.407436e+00
3.411126e+00
3.369040e+00
3.288024e+00
3.227157e+00
2.884283e+00
2.870436e+00
2.911266e+00
2.989318e+00
3.061454e+00
3.136475e+00
3.212353e+00
3.280977e+00
3.336628e+00
3.377475e+00
3.404403e+00
3.419013e+00
3.417907e+00
3.383161e+00
3.319244e+00
3.272899e+00
3.206384e+00
3.195351e+00
3.205495e+00
3.230813e+00
3.260163e+00
3.293174e+00
3.327197e+00
3.358549e+00
3.384516e+00
3.403776e+00
3.416376e+00
3.423034e+00
3.421924e+00
3.403191e+00
3.368597e+00
3.343667e+00
3.206254e+00
3.195123e+00
3.205078e+00
3.230287e+00
3.259477e+00
3.292208e+00
3.325794e+00
3.356557e+00
3.381849e+00
3.400536e+00
3.412999e+00
3.420598e+00
3.423664e+00
3.418981e+00
3.407154e+00
3.398374e+00
2.883861e+00
2.869436e+00
2.909850e+00
2.987440e+00
3.059615e+00
3.134442e+00
3.209862e+00
3.277701e+00
3.332254e+00
3.371979e+00
3.398524e+00
3.415201e+00
3.425083e+00
3.429289e+00
3.429240e+00
3.428320e+00
2.407984e+00
2.394218e+00
2.478552e+00
2.630434e+00
2.768612e+00
2.905213e+00
3.041426e+00
3.163405e+00
3.261062e+00
3.331988e+00
3.379271e+00
3.408605e+00
3.425819e+00
3.435233e+00
3.439785e+00
3.441527e+00
2.109005e+00
2.097781e+00
2.215195e+00
2.413624e+00
2.591880e+00
2.766507e+00
2.939477e+00
3.094174e+00
3.218024e+00
3.308031e+00
3.368036e+00
3.405059e+00
3.426424e+00
3.438019e+00
3.443787e+00
3.446161e+00


-3.352225e-01
-1.380358e-01
-4.736663e-02
-4.933369e-02
-1.176104e-02
5.184345e-02
1.325061e-01
2.321170e-01
3.455209e-01
4.606949e-01
5.648041e-01
6.478574e-01
7.043284e-01
7.329043e-01
7.596233e-01
-2.928715e-02
5.263728e-01
4.220030e-01
4.204525e-01
4.158493e-01
4.327327e-01
4.636585e-01
5.045739e-01
5.577741e-01
6.225372e-01
6.948416e-01
7.698949e-01
8.435871e-01
9.111816e-01
9.573385e-01
8.568003e-01
-5.180960e-01
8.364530e-01
7.668614e-01
7.197028e-01
7.040938e-01
7.044773e-01
7.122131e-01
7.257326e-01
7.462372e-01
7.743299e-01
8.087895e-01
8.457272e-01
8.765818e-01
8.834827e-01
8.273930e-01
6.287837e-01
2.736202e-01
9.542469e-01
9.028837e-01
8.628934e-01
8.423537e-01
8.333396e-01
8.279624e-01
8.241616e-01
8.220343e-01
8.219577e-01
8.229613e-01
8.211874e-01
8.087909e-01
7.750753e-01
7.176120e-01
6.728811e-01
6.640973e-01
9.545722e-01
9.033219e-01
8.633123e-01
8.424149e-01
8.323955e-01
8.249064e-01
8.171124e-01
8.082027e-01
7.977913e-01
7.850527e-01
7.686972e-01
7.485831e-01
7.305589e-01
7.339295e-01
7.819253e-01
8.633952e-01
8.371606e-01
7.678752e-01
7.207884e-01
7.045699e-01
7.030581e-01
7.066726e-01
7.123521e-01
7.193185e-01
7.263624e-01
7.319465e-01
7.360637e-01
7.431158e-01
7.640949e-01
8.114325e-01
8.834079e-01
9.577476e-01
5.268199e-01
4.226628e-01
4.211684e-01
4.164548e-01
4.325631e-01
4.615265e-01
4.992003e-01
5.470819e-01
6.034248e-01
6.632612e-01
7.219145e-01
7.782601e-01
8.356999e-01
8.975705e-01
9.559019e-01
9.926463e-01
-3.356694e-01
-1.389801e-01
-4.908479e-02
-5.097563e-02
-1.344118e-02
5.086567e-02
1.358686e-01
2.464709e-01
3.804374e-01
5.273083e-01
6.729146e-01
8.022742e-01
9.019388e-01
9.644304e-01
9.930332e-01
9.998541e-01
1 2 19 18
2 3 20 19
3 4 21 20
4 5 22 21
5 6 23 22
6 7 24 23
7 8 25 24
8 9 26 25
9 10 27 26
10 11 28 27
11 12 29 28
12 13 30 29
13 14 31 30
14 15 32 31
15 16 33 32
16 17 34 33
18 19 36 35
19 20 37 36
20 21 38 37
21 22 39 38
22 23 40 39
23 24 41 40
24 25 42 41
25 26 43 42
26 27 44 43
27 28 45 44
28 29 46 45
29 30 47 46
30 31 48 47
31 32 49 48
32 33 50 49
33 34 51 50
35 36 53 52
36 37 54 53
37 38 55 54
38 39 56 55
39 40 57 56
40 41 58 57
41 42 59 58
42 43 60 59
43 44 61 60
44 45 62 61
45 46 63 62
46 47 64 63
47 48 65 64
48 49 66 65
49 50 67 66
50 51 68 67
52 53 70 69
53 54 71 70
54 55 72 71
55 56 73 72
56 57 74 73
57 58 75 74
58 59 76 75
59 60 77 76
60 61 78 77
61 62 79 78
62 63 80 79
63 64 81 80
64 65 82 81
65 66 83 82
66 67 84 83
67 68 85 84
69 70 87 86
70 71 88 87
71 72 89 88
72 73 90 89
73 74 91 90
74 75 92 91
75 76 93 92
76 77 94 93
77 78 95 94
78 79 96 95
79 80 97 96
80 81 98 97
81 82 99 98
82 83 100 99
83 84 101 100
84 85 102 101
86 87 104 103
87 88 105 104
88 89 106 105
89 90 107 106
90 91 108 107
91 92 109 108
92 93 110 109
93 94 111 110
94 95 112 111
95 96 113 112
96 97 114 113
97 98 115 114
98 99 116 115
99 100 117 116
100 101 118 117
101 102 119 118
103 104 121 120
104 105 122 121
105 106 123 122
106 107 124 123
107 108 125 124
108 109 126 125
109 110 127 126
110 111 128 127
111 112 129 128
112 113 130 129
113 114 131 130
114 115 132 131
115 116 133 132
116 117 134 133
117 118 135 134
118 119 136 135
120 121 138 137
121 122 139 138
122 123 140 139
123 124 141 140
124 125 142 141
125 126 143 142
126 127 144 143
127 128 145 144
128 129 146 145
129 130 147 146
130 131 148 147
131 132 149 148
132 133 150 149
133 134 151 150
134 135 152 151
135 136 153 152
