TITLE = "Solution"
VARIABLES = x, y, u, v, psiu, psiv, t, stress
ZONE T="structure" N=153 E=128 F=FEBLOCK ET=QUADRILATERAL VARLOCATION=([7,8]=cellcentered)
0.000000e+00
1.250000e+01
2.500000e+01
3.750000e+01
5.000000e+01
6.250000e+01
7.500000e+01
8.750000e+01
1.000000e+02
1.125000e+02
1.250000e+02
1.375000e+02
1.500000e+02
1.625000e+02
1.750000e+02
1.875000e+02
2.000000e+02
0.000000e+00
1.250000e+01
2.500000e+01
3.750000e+01
5.000000e+01
6.250000e+01
7.500000e+01
8.750000e+01
1.000000e+02
1.125000e+02
1.250000e+02
1.375000e+02
1.500000e+02
1.625000e+02
1.750000e+02
1.875000e+02
2.000000e+02
0.000000e+00
1.250000e+01
2.500000e+01
3.750000e+01
5.000000e+01
6.250000e+01
7.500000e+01
8.750000e+01
1.000000e+02
1.125000e+02
1.250000e+02
1.375000e+02
1.500000e+02
1.625000e+02
1.750000e+02
1.875000e+02
2.000000e+02
0.000000e+00
1.250000e+01
2.500000e+01
3.750000e+01
5.000000e+01
6.250000e+01
7.500000e+01
8.750000e+01
1.000000e+02
1.125000e+02
1.250000e+02
1.375000e+02
1.500000e+02
1.625000e+02
1.750000e+02
1.875000e+02
2.000000e+02
0.000000e+00
1.250000e+01
2.500000e+01
3.750000e+01
5.000000e+01
6.250000e+01
7.500000e+01
8.750000e+01
1.000000e+02
1.125000e+02
1.250000e+02
1.375000e+02
1.500000e+02
1.625000e+02
1.750000e+02
1.875000e+02
2.000000e+02
0.000000e+00
1.250000e+01
2.500000e+01
3.750000e+01
5.000000e+01
6.250000e+01
7.500000e+01
8.750000e+01
1.000000e+02
1.125000e+02
1.250000e+02
1.375000e+02
1.500000e+02
1.625000e+02
1.750000e+02
1.875000e+02
2.000000e+02
0.000000e+00
1.250000e+01
2.500000e+01
3.750000e+01
5.000000e+01
6.250000e+01
7.500000e+01
8.750000e+01
1.000000e+02
1.125000e+02
1.250000e+02
1.375000e+02
1.500000e+02
1.625000e+02
1.750000e+02
1.875000e+02
2.000000e+02
0.000000e+00
1.250000e+01
2.500000e+01
3.750000e+01
5.000000e+01
6.250000e+01
7.500000e+01
8.750000e+01
1.000000e+02
1.125000e+02
1.250000e+02
1.375000e+02
1.500000e+02
1.625000e+02
1.750000e+02
1.875000e+02
2.000000e+02
0.000000e+00
1.250000e+01
2.500000e+01
3.750000e+01
5.000000e+01
6.250000e+01
7.500000e+01
8.750000e+01
1.000000e+02
1.125000e+02
1.250000e+02
1.375000e+02
1.500000e+02
1.625000e+02
1.750000e+02
1.875000e+02
2.000000e+02
0.000000e+00
0.000000e+00
0.000000e+00
0.000000e+00
0.000000e+00
0.000000e+00
0.000000e+00
0.000000e+00
0.000000e+00
0.000000e+00
0.000000e+00
0.000000e+00
0.000000e+00
0.000000e+00
0.000000e+00
0.000000e+00
0.000000e+00
1.250000e+01
1.250000e+01
1.250000e+01
1.250000e+01
1.250000e+01
1.250000e+01
1.250000e+01
1.250000e+01
1.250000e+01
1.250000e+01
1.250000e+01
1.250000e+01
1.250000e+01
1.250000e+01
1.250000e+01
1.250000e+01
1.250000e+01
2.500000e+01
2.500000e+01
2.500000e+01
2.500000e+01
2.500000e+01
2.500000e+01
2.500000e+01
2.500000e+01
2.500000e+01
2.500000e+01
2.500000e+01
2.500000e+01
2.500000e+01
2.500000e+01
2.500000e+01
2.500000e+01
2.500000e+01
3.750000e+01
3.750000e+01
3.750000e+01
3.750000e+01
3.750000e+01
3.750000e+01
3.750000e+01
3.750000e+01
3.750000e+01
3.750000e+01
3.750000e+01
3.750000e+01
3.750000e+01
3.750000e+01
3.750000e+01
3.750000e+01
3.750000e+01
5.000000e+01
5.000000e+01
5.000000e+01
5.000000e+01
5.000000e+01
5.000000e+01
5.000000e+01
5.000000e+01
5.000000e+01
5.000000e+01
5.000000e+01
5.000000e+01
5.000000e+01
5.000000e+01
5.000000e+01
5.000000e+01
5.000000e+01
6.250000e+01
6.250000e+01
6.250000e+01
6.250000e+01
6.250000e+01
6.250000e+01
6.250000e+01
6.250000e+01
6.250000e+01
6.250000e+01
6.250000e+01
6.250000e+01
6.250000e+01
6.250000e+01
6.250000e+01
6.250000e+01
6.250000e+01
7.500000e+01
7.500000e+01
7.500000e+01
7.500000e+01
7.500000e+01
7.500000e+01
7.500000e+01
7.500000e+01
7.500000e+01
7.500000e+01
7.500000e+01
7.500000e+01
7.500000e+01
7.500000e+01
7.500000e+01
7.500000e+01
7.500000e+01
8.750000e+01
8.750000e+01
8.750000e+01
8.750000e+01
8.750000e+01
8.750000e+01
8.750000e+01
8.750000e+01
8.750000e+01
8.750000e+01
8.750000e+01
8.750000e+01
8.750000e+01
8.750000e+01
8.750000e+01
8.750000e+01
8.750000e+01
1.000000e+02
1.000000e+02
1.000000e+02
1.000000e+02
1.000000e+02
1.000000e+02
1.000000e+02
1.000000e+02
1.000000e+02
1.000000e+02
1.000000e+02
1.000000e+02
1.000000e+02
1.000000e+02
1.000000e+02
1.000000e+02
1.000000e+02
0.000000e+00
-9.824684e-01
-1.674410e+00
-2.418640e+00
-3.098612e+00
-3.749457e+00
-4.439530e+00
-5.084494e+00
-5.749279e+00
-6.394669e+00
-7.055164e+00
-7.708241e+00
-8.377833e+00
-9.160994e+00
-1.006398e+01
-1.081087e+01
-1.126189e+01
0.000000e+00
-4.435987e-01
-9.124655e-01
-1.420343e+00
-1.932283e+00
-2.417653e+00
-2.929350e+00
-3.429018e+00
-3.923755e+00
-4.424389e+00
-4.922980e+00
-5.417263e+00
-5.905707e+00
-6.429744e+00
-6.882124e+00
-7.001316e+00
-7.179166e+00
0.000000e+00
-1.522996e-01
-3.617481e-01
-6.530242e-01
-9.919284e-01
-1.318283e+00
-1.672339e+00
-2.024544e+00
-2.370727e+00
-2.726650e+00
-3.067388e+00
-3.395410e+00
-3.686524e+00
-3.920055e+00
-4.019359e+00
-4.013531e+00
-4.163205e+00
0.000000e+00
-7.921049e-02
-1.642911e-01
-3.095399e-01
-4.537949e-01
-6.287300e-01
-8.070172e-01
-9.782646e-01
-1.158639e+00
-1.322886e+00
-1.482989e+00
-1.617596e+00
-1.704198e+00
-1.707836e+00
-1.636437e+00
-1.620368e+00
-1.741360e+00
0.000000e+00
-2.677409e-03
-5.824484e-03
-8.900800e-03
-1.152818e-02
-1.273842e-02
-1.131068e-02
-5.989998e-03
4.085796e-03
2.222486e-02
4.931404e-02
9.631298e-02
1.787307e-01
2.932789e-01
4.096573e-01
4.446220e-01
3.457412e-01
0.000000e+00
7.463782e-02
1.548406e-01
2.940471e-01
4.333837e-01
6.051388e-01
7.857903e-01
9.666544e-01
1.168373e+00
1.365637e+00
1.579715e+00
1.801877e+00
2.023058e+00
2.220902e+00
2.354032e+00
2.386107e+00
2.321428e+00
0.000000e+00
1.506298e-01
3.577368e-01
6.457348e-01
9.802502e-01
1.303648e+00
1.656945e+00
2.015246e+00
2.383089e+00
2.775105e+00
3.150962e+00
3.520010e+00
3.855496e+00
4.123589e+00
4.294280e+00
4.349400e+00
4.328414e+00
0.000000e+00
4.442676e-01
9.131577e-01
1.421096e+00
1.931625e+00
2.415829e+00
2.925049e+00
3.418467e+00
3.908870e+00
4.400600e+00
4.877876e+00
5.352868e+00
5.788546e+00
6.131083e+00
6.344392e+00
6.437919e+00
6.454834e+00
0.000000e+00
9.840740e-01
1.678214e+00
2.426210e+00
3.110008e+00
3.764139e+00
4.456622e+00
5.090040e+00
5.730802e+00
6.329701e+00
6.911951e+00
7.509001e+00
8.045202e+00
8.443834e+00
8.645253e+00
8.699301e+00
8.700054e+00
0.000000e+00
-6.122892e-01
-1.346607e+00
-2.332191e+00
-3.491475e+00
-4.822290e+00
-6.336440e+00
-8.010303e+00
-9.855739e+00
-1.186661e+01
-1.404101e+01
-1.637561e+01
-1.888430e+01
-2.161042e+01
-2.456626e+01
-2.792919e+01
-3.294392e+01
0.000000e+00
-4.084818e-01
-1.177779e+00
-2.147496e+00
-3.321053e+00
-4.646853e+00
-6.160095e+00
-7.839721e+00
-9.681942e+00
-1.169670e+01
-1.386981e+01
-1.620901e+01
-1.870752e+01
-2.142094e+01
-2.442999e+01
-2.784314e+01
-3.190090e+01
0.000000e+00
-3.803997e-01
-1.076688e+00
-2.042955e+00
-3.200209e+00
-4.522857e+00
-6.036879e+00
-7.713090e+00
-9.561547e+00
-1.157641e+01
-1.376028e+01
-1.610980e+01
-1.862077e+01
-2.135969e+01
-2.442196e+01
-2.768781e+01
-3.071742e+01
0.000000e+00
-4.358624e-01
-1.071045e+00
-2.014935e+00
-3.134774e+00
-4.455395e+00
-5.969293e+00
-7.640397e+00
-9.502051e+00
-1.152054e+01
-1.372229e+01
-1.609304e+01
-1.863047e+01
-2.136801e+01
-2.435726e+01
-2.737567e+01
-2.998542e+01
0.000000e+00
-4.443370e-01
-1.090858e+00
-1.999138e+00
-3.122916e+00
-4.439277e+00
-5.951404e+00
-7.634199e+00
-9.496888e+00
-1.153266e+01
-1.374352e+01
-1.612917e+01
-1.867323e+01
-2.137003e+01
-2.420817e+01
-2.701251e+01
-2.938423e+01
0.000000e+00
-4.346924e-01
-1.070618e+00
-2.016893e+00
-3.141773e+00
-4.469104e+00
-5.995229e+00
-7.677747e+00
-9.557196e+00
-1.159725e+01
-1.380777e+01
-1.618270e+01
-1.871067e+01
-2.136057e+01
-2.407069e+01
-2.669649e+01
-2.895425e+01
0.000000e+00
-3.788360e-01
-1.076110e+00
-2.046419e+00
-3.211484e+00
-4.547595e+00
-6.082557e+00
-7.783425e+00
-9.662259e+00
-1.170646e+01
-1.389625e+01
-1.625098e+01
-1.875593e+01
-2.136347e+01
-2.398523e+01
-2.649159e+01
-2.873016e+01
0.000000e+00
-4.070365e-01
-1.177138e+00
-2.150925e+00
-3.333186e+00
-4.674329e+00
-6.211732e+00
-7.922346e+00
-9.798986e+00
-1.184081e+01
-1.401516e+01
-1.635203e+01
-1.883558e+01
-2.140639e+01
-2.396434e+01
-2.640330e+01
-2.867136e+01
0.000000e+00
-6.112783e-01
-1.346509e+00
-2.336136e+00
-3.504269e+00
-4.850589e+00
-6.388083e+00
-8.091539e+00
-9.969258e+00
-1.199981e+01
-1.417177e+01
-1.650171e+01
-1.895926e+01
-2.148656e+01
-2.398919e+01
-2.638789e+01
-2.867028e+01


0.000000e+00
1.523631e-05
2.497321e-05
3.704340e-05
5.262327e-05
6.588285e-05
8.072739e-05
9.557200e-05
1.095857e-04
1.248473e-04
1.399540e-04
1.542446e-04
1.719114e-04
1.860454e-04
1.936285e-04
1.986155e-04
2.052943e-04
0.000000e+00
1.137165e-05
1.981734e-05
2.850614e-05
4.134017e-05
5.196028e-05
6.240743e-05
7.376970e-05
8.388095e-05
9.496083e-05
1.051367e-04
1.147131e-04
1.262373e-04
1.341163e-04
1.339124e-04
1.374802e-04
1.432846e-04
0.000000e+00
9.566337e-06
1.536205e-05
2.098020e-05
3.042819e-05
3.740575e-05
4.389462e-05
5.144533e-05
5.740556e-05
6.392642e-05
6.941358e-05
7.376384e-05
7.822677e-05
7.934783e-05
7.797827e-05
8.035092e-05
8.467059e-05
0.000000e+00
5.241800e-06
7.310596e-06
1.075544e-05
1.521300e-05
1.759386e-05
2.124395e-05
2.427400e-05
2.633912e-05
2.865488e-05
3.004225e-05
2.970848e-05
2.835954e-05
2.643903e-05
2.639648e-05
2.948874e-05
3.506427e-05
0.000000e+00
-8.543051e-08
-2.199398e-07
-4.058186e-07
-6.697203e-07
-1.016122e-06
-1.431990e-06
-2.064791e-06
-2.878711e-06
-4.441616e-06
-7.055264e-06
-1.093570e-05
-1.390256e-05
-1.523382e-05
-1.480245e-05
-1.251819e-05
-8.706034e-06
0.000000e+00
-5.358800e-06
-7.614173e-06
-1.140068e-05
-1.627704e-05
-1.917781e-05
-2.364647e-05
-2.717357e-05
-3.057633e-05
-3.343839e-05
-3.699488e-05
-4.183823e-05
-4.607514e-05
-4.731856e-05
-4.784283e-05
-4.834852e-05
-4.687443e-05
0.000000e+00
-9.519016e-06
-1.536659e-05
-2.116300e-05
-3.081756e-05
-3.821915e-05
-4.494755e-05
-5.294062e-05
-5.873765e-05
-6.393974e-05
-6.857696e-05
-7.311729e-05
-7.719631e-05
-8.018494e-05
-8.205012e-05
-8.385114e-05
-8.456143e-05
0.000000e+00
-1.129621e-05
-1.972057e-05
-2.842052e-05
-4.123067e-05
-5.198601e-05
-6.233744e-05
-7.391658e-05
-8.406548e-05
-9.456145e-05
-1.047098e-04
-1.121863e-04
-1.173534e-04
-1.220939e-04
-1.252715e-04
-1.263820e-04
-1.264831e-04
0.000000e+00
-1.527043e-05
-2.495335e-05
-3.689969e-05
-5.225835e-05
-6.524440e-05
-7.976757e-05
-9.402416e-05
-1.083344e-04
-1.237701e-04
-1.412003e-04
-1.556790e-04
-1.647064e-04
-1.695300e-04
-1.716091e-04
-1.717406e-04
-1.715421e-04
0.000000e+00
1.258003e-05
1.997861e-05
3.214777e-05
4.775296e-05
6.445969e-05
8.635655e-05
1.120635e-04
1.414366e-04
1.760747e-04
2.145960e-04
2.584506e-04
3.091743e-04
3.622272e-04
4.230188e-04
4.930724e-04
5.650789e-04
0.000000e+00
7.616944e-06
1.604065e-05
2.606843e-05
4.132567e-05
5.861782e-05
7.996357e-05
1.059669e-04
1.353236e-04
1.697421e-04
2.086934e-04
2.522030e-04
3.026341e-04
3.583448e-04
4.184978e-04
4.858560e-04
5.547742e-04
0.000000e+00
4.193360e-06
1.209753e-05
2.121990e-05
3.565562e-05
5.360606e-05
7.510294e-05
1.010689e-04
1.307009e-04
1.652747e-04
2.043788e-04
2.482974e-04
2.990867e-04
3.565829e-04
4.148786e-04
4.784501e-04
5.448680e-04
0.000000e+00
2.913366e-06
1.003937e-05
1.916030e-05
3.336362e-05
5.148199e-05
7.317626e-05
9.936031e-05
1.292327e-04
1.634673e-04
2.027554e-04
2.475412e-04
2.988069e-04
3.553361e-04
4.123819e-04
4.707374e-04
5.306315e-04
0.000000e+00
2.453971e-06
9.482049e-06
1.874333e-05
3.282190e-05
5.091829e-05
7.264531e-05
9.889349e-05
1.289829e-04
1.628178e-04
2.016905e-04
2.482986e-04
2.995471e-04
3.554327e-04
4.112557e-04
4.644943e-04
5.151595e-04
0.000000e+00
3.021606e-06
1.018564e-05
1.936395e-05
3.353131e-05
5.153991e-05
7.314256e-05
9.906937e-05
1.290952e-04
1.626665e-04
2.021820e-04
2.503473e-04
3.020880e-04
3.556487e-04
4.111332e-04
4.622217e-04
5.050102e-04
0.000000e+00
4.330665e-06
1.233306e-05
2.156936e-05
3.591019e-05
5.375629e-05
7.484716e-05
1.004299e-04
1.297042e-04
1.637229e-04
2.044251e-04
2.535834e-04
3.055677e-04
3.574381e-04
4.101281e-04
4.597715e-04
5.020486e-04
0.000000e+00
7.734062e-06
1.631389e-05
2.646682e-05
4.170343e-05
5.881170e-05
7.981587e-05
1.052038e-04
1.337892e-04
1.678762e-04
2.088351e-04
2.569251e-04
3.085264e-04
3.594208e-04
4.100294e-04
4.579745e-04
5.025652e-04
0.000000e+00
1.268769e-05
2.025154e-05
3.254583e-05
4.815102e-05
6.467945e-05
8.625616e-05
1.113721e-04
1.399771e-04
1.743996e-04
2.152751e-04
2.608346e-04
3.105981e-04
3.606287e-04
4.102223e-04
4.575177e-04
5.028413e-04


5.055722e+00
5.421665e+00
5.955079e+00
5.132784e+00
4.513457e+00
4.632506e+00
4.767120e+00
5.024550e+00
5.199043e+00
5.543805e+00
5.905437e+00
6.862245e+00
8.470177e+00
9.345247e+00
8.609165e+00
7.441039e+00
7.542668e+00
7.803831e+00
7.931819e+00
7.643455e+00
7.234394e+00
7.316691e+00
7.432614e+00
7.472616e+00
7.631539e+00
7.734411e+00
7.903897e+00
8.361221e+00
9.089632e+00
9.315650e+00
7.894093e+00
6.028053e+00
9.458714e+00
9.445555e+00
9.553464e+00
9.381343e+00
9.352489e+00
9.380808e+00
9.358350e+00
9.401197e+00
9.379224e+00
9.421354e+00
9.403058e+00
9.405321e+00
9.422090e+00
8.939154e+00
7.444249e+00
5.722662e+00
9.777612e+00
9.774107e+00
9.772811e+00
9.755724e+00
9.749096e+00
9.747392e+00
9.740405e+00
9.732803e+00
9.712446e+00
9.660536e+00
9.512741e+00
8.995732e+00
8.425146e+00
7.990169e+00
7.463452e+00
7.144027e+00
9.777102e+00
9.772834e+00
9.770633e+00
9.750893e+00
9.741336e+00
9.736992e+00
9.723322e+00
9.707345e+00
9.652057e+00
9.447528e+00
8.840257e+00
7.966766e+00
7.230348e+00
7.330431e+00
8.062844e+00
8.488370e+00
9.455913e+00
9.439873e+00
9.539238e+00
9.350880e+00
9.303763e+00
9.313199e+00
9.260166e+00
9.248289e+00
8.934151e+00
8.347445e+00
7.818955e+00
7.365174e+00
7.502445e+00
8.150465e+00
8.953166e+00
9.477566e+00
7.539859e+00
7.795296e+00
7.909491e+00
7.592835e+00
7.165815e+00
7.219419e+00
7.286941e+00
7.203807e+00
6.970219e+00
6.707531e+00
7.012379e+00
7.922137e+00
8.668887e+00
9.290195e+00
9.634943e+00
9.739056e+00
5.057214e+00
5.418341e+00
5.940693e+00
5.099710e+00
4.477586e+00
4.593539e+00
4.688899e+00
4.910417e+00
4.960627e+00
5.545147e+00
7.100115e+00
8.552628e+00
9.450209e+00
9.678731e+00
9.761519e+00
9.793164e+00


-7.807075e-01
-2.010369e-01
-3.702203e-01
-2.473711e-01
-1.364950e-01
-2.674299e-01
-1.565140e-01
-1.861765e-01
-1.644703e-01
-1.906365e-01
-1.682640e-01
-1.894656e-01
-4.976863e-01
-5.647572e-01
3.399229e-01
-8.443825e-01
6.104712e-01
4.635850e-01
3.055175e-01
2.282481e-01
2.823678e-01
1.770992e-01
1.833008e-01
1.778536e-01
1.314852e-01
1.433081e-01
1.672825e-01
2.547247e-01
3.154890e-01
5.586930e-01
7.039643e-01
-9.819229e-01
7.379023e-01
4.890215e-01
1.176457e-01
5.114634e-02
9.526150e-03
-8.118579e-02
-3.242417e-02
-5.163901e-02
-5.748677e-03
3.470721e-02
1.095812e-01
2.401189e-01
3.172087e-01
1.769233e-01
1.314565e-03
-1.969035e-01
7.445983e-01
5.690356e-01
2.314123e-01
1.112576e-01
1.061598e-02
-3.372669e-02
4.779653e-03
-5.103970e-04
5.759824e-02
7.274349e-02
1.086198e-01
1.426742e-01
5.955070e-02
-2.755881e-01
-3.558797e-01
-5.437826e-02
7.470615e-01
5.723244e-01
2.366170e-01
1.131855e-01
8.639559e-03
-4.917317e-02
-1.745885e-02
-3.981177e-02
9.638850e-04
1.559478e-02
3.332955e-02
2.404094e-02
-3.941346e-02
-1.601744e-01
-1.000986e-01
3.332451e-01
7.434918e-01
4.978984e-01
1.319083e-01
6.223936e-02
9.095440e-03
-1.094376e-01
-8.866073e-02
-1.566106e-01
-1.362469e-01
-8.728141e-02
-1.021097e-01
-1.103871e-01
-7.563278e-02
5.766910e-02
3.371278e-01
7.382380e-01
6.135074e-01
4.686734e-01
3.119356e-01
2.372677e-01
2.843092e-01
1.677163e-01
1.520556e-01
8.804316e-02
-2.017428e-02
-2.886775e-02
-1.059887e-01
-8.305798e-02
9.399552e-02
3.912718e-01
7.182811e-01
9.491864e-01
-7.848653e-01
-2.053444e-01
-3.782362e-01
-2.524206e-01
-1.413586e-01
-2.690821e-01
-1.265800e-01
-1.409716e-01
-7.695493e-02
-3.374127e-02
-8.286775e-02
7.579041e-02
4.183741e-01
7.757041e-01
9.526631e-01
9.987381e-01
1 2 19 18
2 3 20 19
3 4 21 20
4 5 22 21
5 6 23 22
6 7 24 23
7 8 25 24
8 9 26 25
9 10 27 26
10 11 28 27
11 12 29 28
12 13 30 29
13 14 31 30
14 15 32 31
15 16 33 32
16 17 34 33
18 19 36 35
19 20 37 36
20 21 38 37
21 22 39 38
22 23 40 39
23 24 41 40
24 25 42 41
25 26 43 42
26 27 44 43
27 28 45 44
28 29 46 45
29 30 47 46
30 31 48 47
31 32 49 48
32 33 50 49
33 34 51 50
35 36 53 52
36 37 54 53
37 38 55 54
38 39 56 55
39 40 57 56
40 41 58 57
41 42 59 58
42 43 60 59
43 44 61 60
44 45 62 61
45 46 63 62
46 47 64 63
47 48 65 64
48 49 66 65
49 50 67 66
50 51 68 67
52 53 70 69
53 54 71 70
54 55 72 71
55 56 73 72
56 57 74 73
57 58 75 74
58 59 76 75
59 60 77 76
60 61 78 77
61 62 79 78
62 63 80 79
63 64 81 80
64 65 82 81
65 66 83 82
66 67 84 83
67 68 85 84
69 70 87 86
70 71 88 87
71 72 89 88
72 73 90 89
73 74 91 90
74 75 92 91
75 76 93 92
76 77 94 93
77 78 95 94
78 79 96 95
79 80 97 96
80 81 98 97
81 82 99 98
82 83 100 99
83 84 101 100
84 85 102 101
86 87 104 103
87 88 105 104
88 89 106 105
89 90 107 106
90 91 108 107
91 92 109 108
92 93 110 109
93 94 111 110
94 95 112 111
95 96 113 112
96 97 114 113
97 98 115 114
98 99 116 115
99 100 117 116
100 101 118 117
101 102 119 118
103 104 121 120
104 105 122 121
105 106 123 122
106 107 124 123
107 108 125 124
108 109 126 125
109 110 127 126
110 111 128 127
111 112 129 128
112 113 130 129
113 114 131 130
114 115 132 131
115 116 133 132
116 117 134 133
117 118 135 134
118 119 136 135
120 121 138 137
121 122 139 138
122 123 140 139
123 124 141 140
124 125 142 141
125 126 143 142
126 127 144 143
127 128 145 144
128 129 146 145
129 130 147 146
130 131 148 147
131 132 149 148
132 133 150 149
133 134 151 150
134 135 152 151
135 136 153 152
