TITLE = "Solution"
VARIABLES = x, y, u, v, psiu, psiv, t, stress
ZONE T="structure" N=153 E=128 F=FEBLOCK ET=QUADRILATERAL VARLOCATION=([7,8]=cellcentered)
0.000000e+00
1.250000e+01
2.500000e+01
3.750000e+01
5.000000e+01
6.250000e+01
7.500000e+01
8.750000e+01
1.000000e+02
1.125000e+02
1.250000e+02
1.375000e+02
1.500000e+02
1.625000e+02
1.750000e+02
1.875000e+02
2.000000e+02
0.000000e+00
1.250000e+01
2.500000e+01
3.750000e+01
5.000000e+01
6.250000e+01
7.500000e+01
8.750000e+01
1.000000e+02
1.125000e+02
1.250000e+02
1.375000e+02
1.500000e+02
1.625000e+02
1.750000e+02
1.875000e+02
2.000000e+02
0.000000e+00
1.250000e+01
2.500000e+01
3.750000e+01
5.000000e+01
6.250000e+01
7.500000e+01
8.750000e+01
1.000000e+02
1.125000e+02
1.250000e+02
1.375000e+02
1.500000e+02
1.625000e+02
1.750000e+02
1.875000e+02
2.000000e+02
0.000000e+00
1.250000e+01
2.500000e+01
3.750000e+01
5.000000e+01
6.250000e+01
7.500000e+01
8.750000e+01
1.000000e+02
1.125000e+02
1.250000e+02
1.375000e+02
1.500000e+02
1.625000e+02
1.750000e+02
1.875000e+02
2.000000e+02
0.000000e+00
1.250000e+01
2.500000e+01
3.750000e+01
5.000000e+01
6.250000e+01
7.500000e+01
8.750000e+01
1.000000e+02
1.125000e+02
1.250000e+02
1.375000e+02
1.500000e+02
1.625000e+02
1.750000e+02
1.875000e+02
2.000000e+02
0.000000e+00
1.250000e+01
2.500000e+01
3.750000e+01
5.000000e+01
6.250000e+01
7.500000e+01
8.750000e+01
1.000000e+02
1.125000e+02
1.250000e+02
1.375000e+02
1.500000e+02
1.625000e+02
1.750000e+02
1.875000e+02
2.000000e+02
0.000000e+00
1.250000e+01
2.500000e+01
3.750000e+01
5.000000e+01
6.250000e+01
7.500000e+01
8.750000e+01
1.000000e+02
1.125000e+02
1.250000e+02
1.375000e+02
1.500000e+02
1.625000e+02
1.750000e+02
1.875000e+02
2.000000e+02
0.000000e+00
1.250000e+01
2.500000e+01
3.750000e+01
5.000000e+01
6.250000e+01
7.500000e+01
8.750000e+01
1.000000e+02
1.125000e+02
1.250000e+02
1.375000e+02
1.500000e+02
1.625000e+02
1.750000e+02
1.875000e+02
2.000000e+02
0.000000e+00
1.250000e+01
2.500000e+01
3.750000e+01
5.000000e+01
6.250000e+01
7.500000e+01
8.750000e+01
1.000000e+02
1.125000e+02
1.250000e+02
1.375000e+02
1.500000e+02
1.625000e+02
1.750000e+02
1.875000e+02
2.000000e+02
0.000000e+00
0.000000e+00
0.000000e+00
0.000000e+00
0.000000e+00
0.000000e+00
0.000000e+00
0.000000e+00
0.000000e+00
0.000000e+00
0.000000e+00
0.000000e+00
0.000000e+00
0.000000e+00
0.000000e+00
0.000000e+00
0.000000e+00
1.250000e+01
1.250000e+01
1.250000e+01
1.250000e+01
1.250000e+01
1.250000e+01
1.250000e+01
1.250000e+01
1.250000e+01
1.250000e+01
1.250000e+01
1.250000e+01
1.250000e+01
1.250000e+01
1.250000e+01
1.250000e+01
1.250000e+01
2.500000e+01
2.500000e+01
2.500000e+01
2.500000e+01
2.500000e+01
2.500000e+01
2.500000e+01
2.500000e+01
2.500000e+01
2.500000e+01
2.500000e+01
2.500000e+01
2.500000e+01
2.500000e+01
2.500000e+01
2.500000e+01
2.500000e+01
3.750000e+01
3.750000e+01
3.750000e+01
3.750000e+01
3.750000e+01
3.750000e+01
3.750000e+01
3.750000e+01
3.750000e+01
3.750000e+01
3.750000e+01
3.750000e+01
3.750000e+01
3.750000e+01
3.750000e+01
3.750000e+01
3.750000e+01
5.000000e+01
5.000000e+01
5.000000e+01
5.000000e+01
5.000000e+01
5.000000e+01
5.000000e+01
5.000000e+01
5.000000e+01
5.000000e+01
5.000000e+01
5.000000e+01
5.000000e+01
5.000000e+01
5.000000e+01
5.000000e+01
5.000000e+01
6.250000e+01
6.250000e+01
6.250000e+01
6.250000e+01
6.250000e+01
6.250000e+01
6.250000e+01
6.250000e+01
6.250000e+01
6.250000e+01
6.250000e+01
6.250000e+01
6.250000e+01
6.250000e+01
6.250000e+01
6.250000e+01
6.250000e+01
7.500000e+01
7.500000e+01
7.500000e+01
7.500000e+01
7.500000e+01
7.500000e+01
7.500000e+01
7.500000e+01
7.500000e+01
7.500000e+01
7.500000e+01
7.500000e+01
7.500000e+01
7.500000e+01
7.500000e+01
7.500000e+01
7.500000e+01
8.750000e+01
8.750000e+01
8.750000e+01
8.750000e+01
8.750000e+01
8.750000e+01
8.750000e+01
8.750000e+01
8.750000e+01
8.750000e+01
8.750000e+01
8.750000e+01
8.750000e+01
8.750000e+01
8.750000e+01
8.750000e+01
8.750000e+01
1.000000e+02
1.000000e+02
1.000000e+02
1.000000e+02
1.000000e+02
1.000000e+02
1.000000e+02
1.000000e+02
1.000000e+02
1.000000e+02
1.000000e+02
1.000000e+02
1.000000e+02
1.000000e+02
1.000000e+02
1.000000e+02
1.000000e+02
0.000000e+00
-8.858381e-01
-1.570906e+00
-2.255050e+00
-2.942760e+00
-3.603323e+00
-4.269946e+00
-4.938870e+00
-5.598953e+00
-6.258354e+00
-6.926476e+00
-7.604537e+00
-8.284072e+00
-8.958160e+00
-9.627886e+00
-1.028578e+01
-1.072247e+01
0.000000e+00
-4.568321e-01
-9.470883e-01
-1.446437e+00
-1.961813e+00
-2.456333e+00
-2.954607e+00
-3.455507e+00
-3.948827e+00
-4.438863e+00
-4.930129e+00
-5.418529e+00
-5.887102e+00
-6.301561e+00
-6.587427e+00
-6.656003e+00
-6.811497e+00
0.000000e+00
-2.282095e-01
-4.925069e-01
-8.078676e-01
-1.145641e+00
-1.477909e+00
-1.815624e+00
-2.153770e+00
-2.486115e+00
-2.811872e+00
-3.126178e+00
-3.416139e+00
-3.658029e+00
-3.815371e+00
-3.848484e+00
-3.820537e+00
-3.973669e+00
0.000000e+00
-9.764643e-02
-2.116036e-01
-3.580932e-01
-5.174740e-01
-6.849414e-01
-8.551998e-01
-1.023437e+00
-1.186579e+00
-1.339624e+00
-1.473656e+00
-1.574931e+00
-1.626010e+00
-1.613158e+00
-1.557000e+00
-1.559277e+00
-1.688423e+00
0.000000e+00
-9.869653e-04
-1.953884e-03
-2.680696e-03
-2.815464e-03
-1.782918e-03
1.428665e-03
8.435665e-03
2.159366e-02
4.463697e-02
8.339070e-02
1.448214e-01
2.328002e-01
3.376631e-01
4.187086e-01
4.185612e-01
3.200447e-01
0.000000e+00
9.594701e-02
2.082416e-01
3.533284e-01
5.121761e-01
6.809509e-01
8.560627e-01
1.035249e+00
1.219379e+00
1.409825e+00
1.606635e+00
1.806577e+00
2.000043e+00
2.165962e+00
2.271130e+00
2.288175e+00
2.233778e+00
0.000000e+00
2.273106e-01
4.906609e-01
8.050255e-01
1.141834e+00
1.473858e+00
1.812861e+00
2.154259e+00
2.493695e+00
2.834551e+00
3.174286e+00
3.498511e+00
3.784614e+00
4.007965e+00
4.146909e+00
4.193997e+00
4.181454e+00
0.000000e+00
4.568501e-01
9.470663e-01
1.446225e+00
1.960841e+00
2.454289e+00
2.951082e+00
3.447910e+00
3.933973e+00
4.415630e+00
4.890991e+00
5.334163e+00
5.707216e+00
5.981945e+00
6.149653e+00
6.221815e+00
6.235254e+00
0.000000e+00
8.866082e-01
1.572685e+00
2.258021e+00
2.946516e+00
3.607460e+00
4.273748e+00
4.938266e+00
5.588225e+00
6.232128e+00
6.862913e+00
7.437461e+00
7.897151e+00
8.202671e+00
8.352195e+00
8.388275e+00
8.387000e+00
0.000000e+00
-5.485401e-01
-1.157304e+00
-1.965970e+00
-2.943358e+00
-4.087645e+00
-5.409693e+00
-6.905451e+00
-8.573444e+00
-1.041745e+01
-1.244004e+01
-1.464173e+01
-1.702212e+01
-1.958674e+01
-2.238641e+01
-2.563120e+01
-3.039780e+01
0.000000e+00
-3.523876e-01
-9.896345e-01
-1.787125e+00
-2.767933e+00
-3.914416e+00
-5.234951e+00
-6.732045e+00
-8.402156e+00
-1.024645e+01
-1.226880e+01
-1.447278e+01
-1.686123e+01
-1.944650e+01
-2.227620e+01
-2.552829e+01
-2.948723e+01
0.000000e+00
-3.004911e-01
-8.822140e-01
-1.671354e+00
-2.645949e+00
-3.791471e+00
-5.112299e+00
-6.610916e+00
-8.284216e+00
-1.013339e+01
-1.216349e+01
-1.438010e+01
-1.678930e+01
-1.940811e+01
-2.226508e+01
-2.534573e+01
-2.825077e+01
0.000000e+00
-3.102348e-01
-8.497367e-01
-1.616412e+00
-2.578147e+00
-3.720622e+00
-5.042618e+00
-6.543667e+00
-8.222403e+00
-1.008139e+01
-1.212629e+01
-1.436186e+01
-1.679069e+01
-1.941526e+01
-2.220949e+01
-2.500970e+01
-2.746704e+01
0.000000e+00
-3.177112e-01
-8.477238e-01
-1.602644e+00
-2.559108e+00
-3.700743e+00
-5.025250e+00
-6.530285e+00
-8.215396e+00
-1.008464e+01
-1.214386e+01
-1.439407e+01
-1.682636e+01
-1.941567e+01
-2.208616e+01
-2.466858e+01
-2.689745e+01
0.000000e+00
-3.101557e-01
-8.503126e-01
-1.618510e+00
-2.582768e+00
-3.729158e+00
-5.057370e+00
-6.567054e+00
-8.256906e+00
-1.013195e+01
-1.219895e+01
-1.445401e+01
-1.687355e+01
-1.940709e+01
-2.196280e+01
-2.439940e+01
-2.653559e+01
0.000000e+00
-3.003504e-01
-8.831098e-01
-1.674649e+00
-2.653321e+00
-3.805243e+00
-5.136223e+00
-6.649076e+00
-8.340930e+00
-1.021702e+01
-1.228466e+01
-1.453549e+01
-1.693362e+01
-1.941381e+01
-2.188356e+01
-2.423547e+01
-2.636935e+01
0.000000e+00
-3.522606e-01
-9.906060e-01
-1.790681e+00
-2.776052e+00
-3.929780e+00
-5.261565e+00
-6.774518e+00
-8.465899e+00
-1.034090e+01
-1.240453e+01
-1.464356e+01
-1.701572e+01
-1.945137e+01
-2.186265e+01
-2.416602e+01
-2.633103e+01
0.000000e+00
-5.486078e-01
-1.158473e+00
-1.969699e+00
-2.951607e+00
-4.103212e+00
-5.436152e+00
-6.946853e+00
-8.635644e+00
-1.050909e+01
-1.256553e+01
-1.478407e+01
-1.712118e+01
-1.951246e+01
-2.187940e+01
-2.415305e+01
-2.633220e+01


0.000000e+00
1.304055e-05
2.358962e-05
3.476824e-05
4.814674e-05
6.078084e-05
7.278161e-05
8.487688e-05
9.650520e-05
1.075005e-04
1.177318e-04
1.260831e-04
1.318379e-04
1.357939e-04
1.388762e-04
1.421191e-04
1.458334e-04
0.000000e+00
9.611611e-06
1.899388e-05
2.728704e-05
3.785932e-05
4.769896e-05
5.653428e-05
6.557946e-05
7.432539e-05
8.243121e-05
8.976550e-05
9.524805e-05
9.802648e-05
9.855918e-05
9.867098e-05
1.013347e-04
1.056837e-04
0.000000e+00
7.529058e-06
1.406119e-05
1.974346e-05
2.691062e-05
3.339267e-05
3.921693e-05
4.511059e-05
5.064079e-05
5.554194e-05
5.964134e-05
6.234265e-05
6.331535e-05
6.309012e-05
6.320685e-05
6.578466e-05
7.012745e-05
0.000000e+00
3.855724e-06
6.644821e-06
1.009332e-05
1.344150e-05
1.647595e-05
1.948843e-05
2.232397e-05
2.482640e-05
2.692705e-05
2.847398e-05
2.935022e-05
2.970926e-05
3.000301e-05
3.077976e-05
3.289642e-05
3.619098e-05
0.000000e+00
-2.165737e-08
-4.676845e-08
-7.301836e-08
-1.001088e-07
-1.270875e-07
-1.583091e-07
-2.044115e-07
-2.935325e-07
-4.932519e-07
-8.564030e-07
-1.272065e-06
-1.503259e-06
-1.269865e-06
-5.538965e-07
4.880437e-07
2.105738e-06
0.000000e+00
-3.893989e-06
-6.723730e-06
-1.022221e-05
-1.361500e-05
-1.669493e-05
-1.975431e-05
-2.261793e-05
-2.518060e-05
-2.749462e-05
-2.941927e-05
-3.084335e-05
-3.166738e-05
-3.191200e-05
-3.194411e-05
-3.192273e-05
-3.144536e-05
0.000000e+00
-7.547031e-06
-1.410707e-05
-1.982176e-05
-2.702882e-05
-3.356726e-05
-3.941330e-05
-4.526852e-05
-5.080164e-05
-5.559557e-05
-5.922875e-05
-6.145106e-05
-6.263864e-05
-6.329989e-05
-6.374729e-05
-6.404070e-05
-6.400502e-05
0.000000e+00
-9.608765e-06
-1.899647e-05
-2.729095e-05
-3.787207e-05
-4.775326e-05
-5.658209e-05
-6.555408e-05
-7.438114e-05
-8.238335e-05
-8.862864e-05
-9.243196e-05
-9.441666e-05
-9.552953e-05
-9.620581e-05
-9.655218e-05
-9.661996e-05
0.000000e+00
-1.303301e-05
-2.356061e-05
-3.470452e-05
-4.803402e-05
-6.063439e-05
-7.256717e-05
-8.454163e-05
-9.620007e-05
-1.071455e-04
-1.162924e-04
-1.226216e-04
-1.263831e-04
-1.284005e-04
-1.293357e-04
-1.296313e-04
-1.296655e-04
0.000000e+00
1.109799e-05
1.850662e-05
2.875634e-05
4.235710e-05
5.783722e-05
7.659248e-05
9.890733e-05
1.240141e-04
1.518478e-04
1.820376e-04
2.136870e-04
2.467175e-04
2.822612e-04
3.234598e-04
3.712218e-04
4.194792e-04
0.000000e+00
6.137136e-06
1.413947e-05
2.336225e-05
3.644046e-05
5.238269e-05
7.129344e-05
9.361874e-05
1.189984e-04
1.471940e-04
1.780473e-04
2.109319e-04
2.452769e-04
2.814150e-04
3.206720e-04
3.658854e-04
4.128262e-04
0.000000e+00
2.905305e-06
1.023068e-05
1.932623e-05
3.195584e-05
4.825664e-05
6.749404e-05
8.989422e-05
1.155298e-04
1.441391e-04
1.755624e-04
2.093185e-04
2.446262e-04
2.807600e-04
3.171125e-04
3.587037e-04
4.035616e-04
0.000000e+00
1.746579e-06
8.236871e-06
1.751364e-05
3.016801e-05
4.649192e-05
6.589088e-05
8.845070e-05
1.142626e-04
1.431269e-04
1.747956e-04
2.087488e-04
2.442070e-04
2.799523e-04
3.144283e-04
3.523424e-04
3.940240e-04
0.000000e+00
1.460850e-06
7.636917e-06
1.691743e-05
2.969499e-05
4.594172e-05
6.538249e-05
8.804104e-05
1.139555e-04
1.429907e-04
1.747815e-04
2.086932e-04
2.439345e-04
2.793907e-04
3.135353e-04
3.490224e-04
3.869116e-04
0.000000e+00
1.754499e-06
8.241465e-06
1.750449e-05
3.013122e-05
4.642974e-05
6.581557e-05
8.836801e-05
1.142762e-04
1.434414e-04
1.753778e-04
2.092542e-04
2.442076e-04
2.792640e-04
3.137116e-04
3.482210e-04
3.830514e-04
0.000000e+00
2.917778e-06
1.024016e-05
1.931559e-05
3.190177e-05
4.816129e-05
6.736956e-05
8.974056e-05
1.155506e-04
1.446973e-04
1.766393e-04
2.103512e-04
2.448860e-04
2.795492e-04
3.138792e-04
3.479431e-04
3.814508e-04
0.000000e+00
6.153577e-06
1.415595e-05
2.336128e-05
3.640292e-05
5.229259e-05
7.114607e-05
9.345451e-05
1.190298e-04
1.477013e-04
1.789565e-04
2.118422e-04
2.456701e-04
2.798902e-04
3.140035e-04
3.477789e-04
3.810218e-04
0.000000e+00
1.111576e-05
1.852540e-05
2.876003e-05
4.233587e-05
5.776445e-05
7.643196e-05
9.875439e-05
1.240889e-04
1.521234e-04
1.821854e-04
2.137106e-04
2.465798e-04
2.802877e-04
3.141490e-04
3.477529e-04
3.809798e-04


2.564125e+00
2.445624e+00
2.537954e+00
2.629221e+00
2.711981e+00
2.984249e+00
3.284103e+00
3.619088e+00
4.095040e+00
4.731612e+00
5.454181e+00
6.093809e+00
6.449214e+00
6.210356e+00
5.287682e+00
4.465484e+00
3.944896e+00
3.828862e+00
3.850217e+00
3.883026e+00
3.913934e+00
4.093973e+00
4.296776e+00
4.523575e+00
4.856576e+00
5.311375e+00
5.833933e+00
6.296609e+00
6.513346e+00
6.131775e+00
5.093276e+00
4.162063e+00
5.691379e+00
5.623801e+00
5.609139e+00
5.583597e+00
5.571702e+00
5.639421e+00
5.710408e+00
5.790189e+00
5.918751e+00
6.105535e+00
6.330967e+00
6.533895e+00
6.590516e+00
6.196459e+00
5.282266e+00
4.528534e+00
6.623419e+00
6.591822e+00
6.570979e+00
6.528467e+00
6.510137e+00
6.514804e+00
6.511878e+00
6.504584e+00
6.504410e+00
6.518688e+00
6.551417e+00
6.594117e+00
6.596060e+00
6.378491e+00
5.896795e+00
5.503885e+00
6.623099e+00
6.591119e+00
6.569602e+00
6.525883e+00
6.505806e+00
6.507539e+00
6.497580e+00
6.478097e+00
6.465519e+00
6.469630e+00
6.492262e+00
6.534657e+00
6.583110e+00
6.560360e+00
6.433240e+00
6.319086e+00
5.690103e+00
5.621534e+00
5.604758e+00
5.575616e+00
5.559587e+00
5.620887e+00
5.675227e+00
5.733188e+00
5.856716e+00
6.050819e+00
6.266266e+00
6.456823e+00
6.609682e+00
6.709824e+00
6.747893e+00
6.754244e+00
3.942882e+00
3.825846e+00
3.844877e+00
3.873580e+00
3.901849e+00
4.079237e+00
4.271052e+00
4.500353e+00
4.890023e+00
5.423109e+00
5.960150e+00
6.377595e+00
6.651367e+00
6.815198e+00
6.902400e+00
6.937729e+00
2.562144e+00
2.443321e+00
2.534348e+00
2.623059e+00
2.706910e+00
2.984203e+00
3.286670e+00
3.655201e+00
4.247270e+00
5.023679e+00
5.778731e+00
6.340933e+00
6.683884e+00
6.870419e+00
6.963079e+00
7.000786e+00


-5.857507e-01
-2.229252e-01
-2.279867e-01
-2.688256e-01
-1.734465e-01
-1.939799e-01
-2.054296e-01
-1.744736e-01
-1.682889e-01
-1.887756e-01
-2.002629e-01
-1.553702e-01
-2.573375e-02
2.149378e-01
5.299624e-01
-6.182395e-01
5.423040e-01
4.086997e-01
3.339027e-01
2.747125e-01
3.098557e-01
2.867119e-01
2.701616e-01
2.792269e-01
2.834748e-01
2.921061e-01
3.359159e-01
4.476184e-01
6.331023e-01
8.328857e-01
7.460552e-01
-1.249944e+00
8.221827e-01
6.869179e-01
5.578479e-01
5.042910e-01
4.940020e-01
4.715868e-01
4.599795e-01
4.607820e-01
4.660654e-01
4.819059e-01
5.176234e-01
5.691484e-01
5.887583e-01
4.795253e-01
1.889480e-01
-3.289741e-01
8.826631e-01
7.637461e-01
6.283403e-01
5.538711e-01
5.202839e-01
5.028771e-01
4.953402e-01
4.930806e-01
4.872925e-01
4.691442e-01
4.313397e-01
3.594026e-01
2.255807e-01
5.516952e-02
3.134263e-02
1.022701e-01
8.834006e-01
7.645328e-01
6.287154e-01
5.525074e-01
5.152491e-01
4.908591e-01
4.722347e-01
4.527619e-01
4.182792e-01
3.556618e-01
2.618425e-01
1.454968e-01
3.725527e-02
3.050056e-02
2.206504e-01
5.300028e-01
8.239624e-01
6.888904e-01
5.592109e-01
5.027948e-01
4.857187e-01
4.498420e-01
4.164698e-01
3.816878e-01
3.241326e-01
2.427256e-01
1.581040e-01
1.047179e-01
1.294948e-01
2.829817e-01
5.536865e-01
8.411553e-01
5.436889e-01
4.101537e-01
3.351812e-01
2.755761e-01
3.074765e-01
2.773037e-01
2.517855e-01
2.425181e-01
2.041446e-01
1.529357e-01
1.478897e-01
2.274338e-01
3.872080e-01
6.060736e-01
8.292732e-01
9.720865e-01
-5.872297e-01
-2.249092e-01
-2.301025e-01
-2.691646e-01
-1.727633e-01
-1.917933e-01
-1.913824e-01
-1.462162e-01
-1.335276e-01
-1.072607e-01
4.269725e-02
3.302212e-01
6.413425e-01
8.654839e-01
9.735705e-01
9.994844e-01
1 2 19 18
2 3 20 19
3 4 21 20
4 5 22 21
5 6 23 22
6 7 24 23
7 8 25 24
8 9 26 25
9 10 27 26
10 11 28 27
11 12 29 28
12 13 30 29
13 14 31 30
14 15 32 31
15 16 33 32
16 17 34 33
18 19 36 35
19 20 37 36
20 21 38 37
21 22 39 38
22 23 40 39
23 24 41 40
24 25 42 41
25 26 43 42
26 27 44 43
27 28 45 44
28 29 46 45
29 30 47 46
30 31 48 47
31 32 49 48
32 33 50 49
33 34 51 50
35 36 53 52
36 37 54 53
37 38 55 54
38 39 56 55
39 40 57 56
40 41 58 57
41 42 59 58
42 43 60 59
43 44 61 60
44 45 62 61
45 46 63 62
46 47 64 63
47 48 65 64
48 49 66 65
49 50 67 66
50 51 68 67
52 53 70 69
53 54 71 70
54 55 72 71
55 56 73 72
56 57 74 73
57 58 75 74
58 59 76 75
59 60 77 76
60 61 78 77
61 62 79 78
62 63 80 79
63 64 81 80
64 65 82 81
65 66 83 82
66 67 84 83
67 68 85 84
69 70 87 86
70 71 88 87
71 72 89 88
72 73 90 89
73 74 91 90
74 75 92 91
75 76 93 92
76 77 94 93
77 78 95 94
78 79 96 95
79 80 97 96
80 81 98 97
81 82 99 98
82 83 100 99
83 84 101 100
84 85 102 101
86 87 104 103
87 88 105 104
88 89 106 105
89 90 107 106
90 91 108 107
91 92 109 108
92 93 110 109
93 94 111 110
94 95 112 111
95 96 113 112
96 97 114 113
97 98 115 114
98 99 116 115
99 100 117 116
100 101 118 117
101 102 119 118
103 104 121 120
104 105 122 121
105 106 123 122
106 107 124 123
107 108 125 124
108 109 126 125
109 110 127 126
110 111 128 127
111 112 129 128
112 113 130 129
113 114 131 130
114 115 132 131
115 116 133 132
116 117 134 133
117 118 135 134
118 119 136 135
120 121 138 137
121 122 139 138
122 123 140 139
123 124 141 140
124 125 142 141
125 126 143 142
126 127 144 143
127 128 145 144
128 129 146 145
129 130 147 146
130 131 148 147
131 132 149 148
132 133 150 149
133 134 151 150
134 135 152 151
135 136 153 152
