TITLE = "Solution"
VARIABLES = x, y, u, v, psiu, psiv, t, stress
ZONE T="structure" N=153 E=128 F=FEBLOCK ET=QUADRILATERAL VARLOCATION=([7,8]=cellcentered)
0.000000e+00
1.250000e+01
2.500000e+01
3.750000e+01
5.000000e+01
6.250000e+01
7.500000e+01
8.750000e+01
1.000000e+02
1.125000e+02
1.250000e+02
1.375000e+02
1.500000e+02
1.625000e+02
1.750000e+02
1.875000e+02
2.000000e+02
0.000000e+00
1.250000e+01
2.500000e+01
3.750000e+01
5.000000e+01
6.250000e+01
7.500000e+01
8.750000e+01
1.000000e+02
1.125000e+02
1.250000e+02
1.375000e+02
1.500000e+02
1.625000e+02
1.750000e+02
1.875000e+02
2.000000e+02
0.000000e+00
1.250000e+01
2.500000e+01
3.750000e+01
5.000000e+01
6.250000e+01
7.500000e+01
8.750000e+01
1.000000e+02
1.125000e+02
1.250000e+02
1.375000e+02
1.500000e+02
1.625000e+02
1.750000e+02
1.875000e+02
2.000000e+02
0.000000e+00
1.250000e+01
2.500000e+01
3.750000e+01
5.000000e+01
6.250000e+01
7.500000e+01
8.750000e+01
1.000000e+02
1.125000e+02
1.250000e+02
1.375000e+02
1.500000e+02
1.625000e+02
1.750000e+02
1.875000e+02
2.000000e+02
0.000000e+00
1.250000e+01
2.500000e+01
3.750000e+01
5.000000e+01
6.250000e+01
7.500000e+01
8.750000e+01
1.000000e+02
1.125000e+02
1.250000e+02
1.375000e+02
1.500000e+02
1.625000e+02
1.750000e+02
1.875000e+02
2.000000e+02
0.000000e+00
1.250000e+01
2.500000e+01
3.750000e+01
5.000000e+01
6.250000e+01
7.500000e+01
8.750000e+01
1.000000e+02
1.125000e+02
1.250000e+02
1.375000e+02
1.500000e+02
1.625000e+02
1.750000e+02
1.875000e+02
2.000000e+02
0.000000e+00
1.250000e+01
2.500000e+01
3.750000e+01
5.000000e+01
6.250000e+01
7.500000e+01
8.750000e+01
1.000000e+02
1.125000e+02
1.250000e+02
1.375000e+02
1.500000e+02
1.625000e+02
1.750000e+02
1.875000e+02
2.000000e+02
0.000000e+00
1.250000e+01
2.500000e+01
3.750000e+01
5.000000e+01
6.250000e+01
7.500000e+01
8.750000e+01
1.000000e+02
1.125000e+02
1.250000e+02
1.375000e+02
1.500000e+02
1.625000e+02
1.750000e+02
1.875000e+02
2.000000e+02
0.000000e+00
1.250000e+01
2.500000e+01
3.750000e+01
5.000000e+01
6.250000e+01
7.500000e+01
8.750000e+01
1.000000e+02
1.125000e+02
1.250000e+02
1.375000e+02
1.500000e+02
1.625000e+02
1.750000e+02
1.875000e+02
2.000000e+02
0.000000e+00
0.000000e+00
0.000000e+00
0.000000e+00
0.000000e+00
0.000000e+00
0.000000e+00
0.000000e+00
0.000000e+00
0.000000e+00
0.000000e+00
0.000000e+00
0.000000e+00
0.000000e+00
0.000000e+00
0.000000e+00
0.000000e+00
1.250000e+01
1.250000e+01
1.250000e+01
1.250000e+01
1.250000e+01
1.250000e+01
1.250000e+01
1.250000e+01
1.250000e+01
1.250000e+01
1.250000e+01
1.250000e+01
1.250000e+01
1.250000e+01
1.250000e+01
1.250000e+01
1.250000e+01
2.500000e+01
2.500000e+01
2.500000e+01
2.500000e+01
2.500000e+01
2.500000e+01
2.500000e+01
2.500000e+01
2.500000e+01
2.500000e+01
2.500000e+01
2.500000e+01
2.500000e+01
2.500000e+01
2.500000e+01
2.500000e+01
2.500000e+01
3.750000e+01
3.750000e+01
3.750000e+01
3.750000e+01
3.750000e+01
3.750000e+01
3.750000e+01
3.750000e+01
3.750000e+01
3.750000e+01
3.750000e+01
3.750000e+01
3.750000e+01
3.750000e+01
3.750000e+01
3.750000e+01
3.750000e+01
5.000000e+01
5.000000e+01
5.000000e+01
5.000000e+01
5.000000e+01
5.000000e+01
5.000000e+01
5.000000e+01
5.000000e+01
5.000000e+01
5.000000e+01
5.000000e+01
5.000000e+01
5.000000e+01
5.000000e+01
5.000000e+01
5.000000e+01
6.250000e+01
6.250000e+01
6.250000e+01
6.250000e+01
6.250000e+01
6.250000e+01
6.250000e+01
6.250000e+01
6.250000e+01
6.250000e+01
6.250000e+01
6.250000e+01
6.250000e+01
6.250000e+01
6.250000e+01
6.250000e+01
6.250000e+01
7.500000e+01
7.500000e+01
7.500000e+01
7.500000e+01
7.500000e+01
7.500000e+01
7.500000e+01
7.500000e+01
7.500000e+01
7.500000e+01
7.500000e+01
7.500000e+01
7.500000e+01
7.500000e+01
7.500000e+01
7.500000e+01
7.500000e+01
8.750000e+01
8.750000e+01
8.750000e+01
8.750000e+01
8.750000e+01
8.750000e+01
8.750000e+01
8.750000e+01
8.750000e+01
8.750000e+01
8.750000e+01
8.750000e+01
8.750000e+01
8.750000e+01
8.750000e+01
8.750000e+01
8.750000e+01
1.000000e+02
1.000000e+02
1.000000e+02
1.000000e+02
1.000000e+02
1.000000e+02
1.000000e+02
1.000000e+02
1.000000e+02
1.000000e+02
1.000000e+02
1.000000e+02
1.000000e+02
1.000000e+02
1.000000e+02
1.000000e+02
1.000000e+02
0.000000e+00
-1.194710e+00
-2.161189e+00
-3.044671e+00
-3.910219e+00
-4.767511e+00
-5.597122e+00
-6.383835e+00
-7.103508e+00
-7.732572e+00
-8.264798e+00
-8.712027e+00
-9.099631e+00
-9.466683e+00
-9.875748e+00
-1.039951e+01
-1.080418e+01
0.000000e+00
-7.167253e-01
-1.451545e+00
-2.123956e+00
-2.777457e+00
-3.421803e+00
-4.044914e+00
-4.636710e+00
-5.179547e+00
-5.654306e+00
-6.053074e+00
-6.379779e+00
-6.643409e+00
-6.850730e+00
-6.994216e+00
-7.023019e+00
-7.144257e+00
0.000000e+00
-4.333385e-01
-8.820752e-01
-1.334187e+00
-1.780435e+00
-2.216675e+00
-2.634485e+00
-3.027254e+00
-3.383460e+00
-3.690616e+00
-3.941817e+00
-4.135346e+00
-4.269835e+00
-4.340193e+00
-4.338973e+00
-4.307694e+00
-4.433970e+00
0.000000e+00
-2.017142e-01
-4.169440e-01
-6.422133e-01
-8.700140e-01
-1.090981e+00
-1.300035e+00
-1.493149e+00
-1.664135e+00
-1.806287e+00
-1.914766e+00
-1.986384e+00
-2.018804e+00
-2.013006e+00
-1.986411e+00
-1.997235e+00
-2.089992e+00
0.000000e+00
-1.329408e-04
-1.421634e-04
9.595824e-05
6.773703e-04
1.803890e-03
3.991126e-03
8.216994e-03
1.606947e-02
2.970984e-02
5.170669e-02
8.432206e-02
1.274657e-01
1.740190e-01
2.038479e-01
1.913592e-01
1.318781e-01
0.000000e+00
2.016916e-01
4.167632e-01
6.420041e-01
8.704322e-01
1.093179e+00
1.305742e+00
1.505391e+00
1.688338e+00
1.851544e+00
1.994663e+00
2.118952e+00
2.223961e+00
2.304181e+00
2.349207e+00
2.351429e+00
2.322203e+00
0.000000e+00
4.340407e-01
8.824885e-01
1.333613e+00
1.779433e+00
2.216531e+00
2.636314e+00
3.031732e+00
3.391447e+00
3.704180e+00
3.965033e+00
4.174917e+00
4.336340e+00
4.450446e+00
4.516821e+00
4.537991e+00
4.531439e+00
0.000000e+00
7.185028e-01
1.453127e+00
2.124067e+00
2.776658e+00
3.421805e+00
4.046858e+00
4.639542e+00
5.179079e+00
5.643129e+00
6.020627e+00
6.312354e+00
6.525030e+00
6.667529e+00
6.749944e+00
6.784551e+00
6.790921e+00
0.000000e+00
1.197129e+00
2.163573e+00
3.045960e+00
3.911324e+00
4.771088e+00
5.605161e+00
6.395655e+00
7.112774e+00
7.725673e+00
8.218473e+00
8.590525e+00
8.849158e+00
9.006324e+00
9.079667e+00
9.097191e+00
9.096688e+00
0.000000e+00
-7.039509e-01
-1.367997e+00
-2.248401e+00
-3.352233e+00
-4.680083e+00
-6.222693e+00
-7.967122e+00
-9.891211e+00
-1.196926e+01
-1.417726e+01
-1.649569e+01
-1.891454e+01
-2.144457e+01
-2.415011e+01
-2.723442e+01
-3.164607e+01
0.000000e+00
-4.326453e-01
-1.130847e+00
-2.016525e+00
-3.124474e+00
-4.457566e+00
-6.009842e+00
-7.768950e+00
-9.714486e+00
-1.181849e+01
-1.405245e+01
-1.639345e+01
-1.882942e+01
-2.136980e+01
-2.407140e+01
-2.713264e+01
-3.088383e+01
0.000000e+00
-3.234918e-01
-9.625549e-01
-1.846814e+00
-2.957834e+00
-4.297443e+00
-5.858644e+00
-7.630293e+00
-9.592687e+00
-1.171713e+01
-1.397333e+01
-1.633699e+01
-1.879534e+01
-2.135477e+01
-2.405607e+01
-2.695640e+01
-2.977224e+01
0.000000e+00
-2.771750e-01
-8.746847e-01
-1.742469e+00
-2.855082e+00
-4.200533e+00
-5.769805e+00
-7.551682e+00
-9.526792e+00
-1.166661e+01
-1.394052e+01
-1.632314e+01
-1.879833e+01
-2.136088e+01
-2.400889e+01
-2.667707e+01
-2.914896e+01
0.000000e+00
-2.647891e-01
-8.475686e-01
-1.708140e+00
-2.820620e+00
-4.168888e+00
-5.742456e+00
-7.530147e+00
-9.512855e+00
-1.166232e+01
-1.394744e+01
-1.634046e+01
-1.881849e+01
-2.136014e+01
-2.393065e+01
-2.645299e+01
-2.879416e+01
0.000000e+00
-2.772967e-01
-8.752059e-01
-1.743216e+00
-2.856225e+00
-4.202988e+00
-5.775313e+00
-7.562822e+00
-9.546873e+00
-1.169910e+01
-1.398722e+01
-1.638001e+01
-1.884729e+01
-2.135591e+01
-2.386280e+01
-2.630608e+01
-2.860400e+01
0.000000e+00
-3.237498e-01
-9.633161e-01
-1.847938e+00
-2.959729e+00
-4.301628e+00
-5.868026e+00
-7.649373e+00
-9.627382e+00
-1.177361e+01
-1.405475e+01
-1.643687e+01
-1.888501e+01
-2.136118e+01
-2.382290e+01
-2.622453e+01
-2.852225e+01
0.000000e+00
-4.330897e-01
-1.131517e+00
-2.017579e+00
-3.126667e+00
-4.462695e+00
-6.021149e+00
-7.791517e+00
-9.755150e+00
-1.188428e+01
-1.414668e+01
-1.650837e+01
-1.893311e+01
-2.138170e+01
-2.381314e+01
-2.619124e+01
-2.850356e+01
0.000000e+00
-7.046427e-01
-1.368433e+00
-2.249185e+00
-3.354628e+00
-4.686093e+00
-6.235245e+00
-7.990556e+00
-9.931241e+00
-1.203150e+01
-1.426306e+01
-1.659451e+01
-1.899057e+01
-2.141268e+01
-2.382143e+01
-2.618514e+01
-2.850400e+01


0.000000e+00
2.858635e-05
5.907762e-05
8.638976e-05
1.107344e-04
1.313289e-04
1.474940e-04
1.587947e-04
1.666408e-04
1.723694e-04
1.756607e-04
1.768226e-04
1.770792e-04
1.770348e-04
1.769276e-04
1.768319e-04
1.767424e-04
0.000000e+00
1.989974e-05
4.612229e-05
6.810220e-05
8.702484e-05
1.026590e-04
1.145799e-04
1.223618e-04
1.270098e-04
1.304134e-04
1.324715e-04
1.329882e-04
1.330070e-04
1.329472e-04
1.329194e-04
1.328762e-04
1.327794e-04
0.000000e+00
1.452016e-05
3.181857e-05
4.713999e-05
6.023889e-05
7.063110e-05
7.841458e-05
8.317125e-05
8.550974e-05
8.709689e-05
8.827623e-05
8.867813e-05
8.876711e-05
8.876978e-05
8.876933e-05
8.872237e-05
8.860617e-05
0.000000e+00
7.610910e-06
1.563166e-05
2.334565e-05
2.997081e-05
3.514390e-05
3.901173e-05
4.144490e-05
4.259972e-05
4.333293e-05
4.390530e-05
4.424091e-05
4.438764e-05
4.444371e-05
4.445029e-05
4.439640e-05
4.429065e-05
0.000000e+00
-8.378366e-09
-1.220762e-08
-8.854824e-09
-3.609450e-09
-2.791026e-09
-8.833832e-09
-1.079735e-08
-2.866947e-08
-4.711765e-08
-5.433014e-08
-3.702949e-08
3.007181e-10
3.289816e-08
3.772210e-08
6.941381e-09
-5.027774e-08
0.000000e+00
-7.621971e-06
-1.565652e-05
-2.338642e-05
-3.001655e-05
-3.517366e-05
-3.899106e-05
-4.139113e-05
-4.258369e-05
-4.336164e-05
-4.395515e-05
-4.426331e-05
-4.435252e-05
-4.434714e-05
-4.432727e-05
-4.432155e-05
-4.433401e-05
0.000000e+00
-1.451028e-05
-3.183992e-05
-4.724610e-05
-6.041119e-05
-7.077554e-05
-7.841379e-05
-8.305891e-05
-8.537658e-05
-8.693941e-05
-8.809462e-05
-8.852332e-05
-8.862283e-05
-8.860636e-05
-8.857576e-05
-8.855734e-05
-8.855241e-05
0.000000e+00
-1.987254e-05
-4.614666e-05
-6.827057e-05
-8.731513e-05
-1.029365e-04
-1.146980e-04
-1.223396e-04
-1.268429e-04
-1.300109e-04
-1.319472e-04
-1.325592e-04
-1.327075e-04
-1.327346e-04
-1.327361e-04
-1.327347e-04
-1.327334e-04
0.000000e+00
-2.855726e-05
-5.910773e-05
-8.655400e-05
-1.110024e-04
-1.316024e-04
-1.476552e-04
-1.588478e-04
-1.664934e-04
-1.718504e-04
-1.749597e-04
-1.762092e-04
-1.766642e-04
-1.768272e-04
-1.768855e-04
-1.769053e-04
-1.769092e-04
0.000000e+00
2.540459e-05
4.478531e-05
6.599192e-05
9.198856e-05
1.225439e-04
1.569028e-04
1.939747e-04
2.338524e-04
2.760943e-04
3.192773e-04
3.628378e-04
4.068560e-04
4.509893e-04
4.950238e-04
5.388389e-04
5.825718e-04
0.000000e+00
1.304727e-05
3.192418e-05
5.419087e-05
8.172134e-05
1.142676e-04
1.509124e-04
1.900703e-04
2.311398e-04
2.742692e-04
3.184369e-04
3.626382e-04
4.068553e-04
4.510231e-04
4.950796e-04
5.389471e-04
5.827315e-04
0.000000e+00
5.852164e-06
2.184351e-05
4.487663e-05
7.373423e-05
1.079514e-04
1.464557e-04
1.874347e-04
2.296823e-04
2.732913e-04
3.178890e-04
3.624829e-04
4.068540e-04
4.510607e-04
4.951634e-04
5.391175e-04
5.829910e-04
0.000000e+00
2.998318e-06
1.722870e-05
4.018047e-05
6.982804e-05
1.049142e-04
1.442589e-04
1.861904e-04
2.291966e-04
2.730331e-04
3.176131e-04
3.623351e-04
4.068297e-04
4.510995e-04
4.952584e-04
5.393118e-04
5.833043e-04
0.000000e+00
2.351823e-06
1.606100e-05
3.887127e-05
6.875155e-05
1.041081e-04
1.436112e-04
1.857852e-04
2.290293e-04
2.729875e-04
3.175463e-04
3.622863e-04
4.068290e-04
4.511310e-04
4.953219e-04
5.394456e-04
5.835428e-04
0.000000e+00
2.987047e-06
1.719169e-05
4.013785e-05
6.981057e-05
1.049362e-04
1.442915e-04
1.862169e-04
2.292526e-04
2.731242e-04
3.177012e-04
3.623979e-04
4.068732e-04
4.511447e-04
4.953306e-04
5.394900e-04
5.836498e-04
0.000000e+00
5.833916e-06
2.178993e-05
4.482233e-05
7.371242e-05
1.079664e-04
1.464754e-04
1.874766e-04
2.298111e-04
2.734858e-04
3.180590e-04
3.625939e-04
4.069222e-04
4.511331e-04
4.953097e-04
5.394875e-04
5.836690e-04
0.000000e+00
1.303281e-05
3.189804e-05
5.418330e-05
8.172180e-05
1.142502e-04
1.508718e-04
1.900725e-04
2.312635e-04
2.744753e-04
3.186405e-04
3.627969e-04
4.069547e-04
4.511173e-04
4.952925e-04
5.394787e-04
5.836627e-04
0.000000e+00
2.540725e-05
4.482350e-05
6.606437e-05
9.202940e-05
1.224957e-04
1.567934e-04
1.938984e-04
2.338425e-04
2.761693e-04
3.194566e-04
3.630473e-04
4.070163e-04
4.511290e-04
4.952934e-04
5.394773e-04
5.836597e-04


3.704477e+00
3.481988e+00
3.387083e+00
3.546784e+00
3.801636e+00
4.032586e+00
4.233206e+00
4.321262e+00
4.242122e+00
4.035975e+00
3.779626e+00
3.537709e+00
3.363808e+00
3.338547e+00
3.466872e+00
3.591579e+00
3.352124e+00
3.272655e+00
3.291690e+00
3.511251e+00
3.762174e+00
3.971931e+00
4.147433e+00
4.219683e+00
4.144307e+00
3.957089e+00
3.730013e+00
3.519522e+00
3.376323e+00
3.377537e+00
3.514915e+00
3.639422e+00
3.070223e+00
3.089968e+00
3.228921e+00
3.453466e+00
3.654413e+00
3.805467e+00
3.925127e+00
3.970438e+00
3.912827e+00
3.782893e+00
3.630692e+00
3.493127e+00
3.400322e+00
3.408435e+00
3.502824e+00
3.576487e+00
3.025550e+00
3.098204e+00
3.257282e+00
3.445553e+00
3.584738e+00
3.685701e+00
3.759537e+00
3.785229e+00
3.751972e+00
3.679997e+00
3.598138e+00
3.518649e+00
3.449172e+00
3.413527e+00
3.408977e+00
3.404964e+00
3.024605e+00
3.095581e+00
3.254412e+00
3.446277e+00
3.590572e+00
3.696926e+00
3.775451e+00
3.808254e+00
3.785644e+00
3.727163e+00
3.654118e+00
3.570355e+00
3.474137e+00
3.378737e+00
3.298758e+00
3.249500e+00
3.069789e+00
3.084227e+00
3.221947e+00
3.454192e+00
3.668604e+00
3.832522e+00
3.963893e+00
4.021792e+00
3.983157e+00
3.874673e+00
3.735797e+00
3.585589e+00
3.435193e+00
3.302126e+00
3.205980e+00
3.157131e+00
3.358408e+00
3.271159e+00
3.284924e+00
3.511123e+00
3.776163e+00
4.001202e+00
4.186241e+00
4.262804e+00
4.188296e+00
4.001436e+00
3.770458e+00
3.545366e+00
3.356189e+00
3.222426e+00
3.148205e+00
3.119958e+00
3.720115e+00
3.487037e+00
3.383884e+00
3.545687e+00
3.812343e+00
4.055690e+00
4.261791e+00
4.341206e+00
4.242994e+00
4.012362e+00
3.736446e+00
3.482407e+00
3.290117e+00
3.174116e+00
3.123978e+00
3.110688e+00


-2.205098e+00
-1.531892e+00
-1.117258e+00
-1.022079e+00
-9.770312e-01
-8.531446e-01
-6.701514e-01
-4.018787e-01
-7.234940e-02
2.373487e-01
4.745706e-01
6.308001e-01
7.152187e-01
7.333582e-01
7.258411e-01
-2.881672e-01
-1.809372e-01
-2.808010e-01
-1.670502e-01
-1.285092e-01
-1.038402e-01
-3.932844e-02
5.672961e-02
2.014445e-01
3.858063e-01
5.687812e-01
7.208898e-01
8.361239e-01
9.175108e-01
9.611765e-01
8.344163e-01
-8.959447e-01
6.138218e-01
5.163314e-01
4.662134e-01
4.537396e-01
4.603119e-01
4.845303e-01
5.214088e-01
5.795856e-01
6.583147e-01
7.421944e-01
8.154742e-01
8.669072e-01
8.820993e-01
8.245066e-01
5.933177e-01
1.509108e-01
9.215134e-01
8.391266e-01
7.832318e-01
7.589412e-01
7.517369e-01
7.477974e-01
7.436790e-01
7.445653e-01
7.552246e-01
7.724790e-01
7.873183e-01
7.892295e-01
7.677866e-01
7.180713e-01
6.697229e-01
6.498051e-01
9.216420e-01
8.391395e-01
7.826986e-01
7.571526e-01
7.478968e-01
7.405495e-01
7.304765e-01
7.217635e-01
7.191598e-01
7.212676e-01
7.232172e-01
7.227837e-01
7.242688e-01
7.418201e-01
7.933387e-01
8.702770e-01
6.132058e-01
5.169361e-01
4.670195e-01
4.517972e-01
4.531299e-01
4.699849e-01
4.954177e-01
5.350849e-01
5.870757e-01
6.389688e-01
6.825126e-01
7.207307e-01
7.642054e-01
8.225264e-01
8.938579e-01
9.620121e-01
-1.855236e-01
-2.793282e-01
-1.621344e-01
-1.265598e-01
-1.090633e-01
-5.144221e-02
3.995877e-02
1.801936e-01
3.563250e-01
5.256958e-01
6.609168e-01
7.614218e-01
8.392762e-01
9.058441e-01
9.607916e-01
9.935738e-01
-2.218622e+00
-1.531063e+00
-1.110334e+00
-1.019297e+00
-9.858137e-01
-8.699668e-01
-6.828897e-01
-3.925376e-01
-2.798480e-02
3.217284e-01
5.970916e-01
7.876371e-01
9.052508e-01
9.678725e-01
9.939275e-01
9.998779e-01
1 2 19 18
2 3 20 19
3 4 21 20
4 5 22 21
5 6 23 22
6 7 24 23
7 8 25 24
8 9 26 25
9 10 27 26
10 11 28 27
11 12 29 28
12 13 30 29
13 14 31 30
14 15 32 31
15 16 33 32
16 17 34 33
18 19 36 35
19 20 37 36
20 21 38 37
21 22 39 38
22 23 40 39
23 24 41 40
24 25 42 41
25 26 43 42
26 27 44 43
27 28 45 44
28 29 46 45
29 30 47 46
30 31 48 47
31 32 49 48
32 33 50 49
33 34 51 50
35 36 53 52
36 37 54 53
37 38 55 54
38 39 56 55
39 40 57 56
40 41 58 57
41 42 59 58
42 43 60 59
43 44 61 60
44 45 62 61
45 46 63 62
46 47 64 63
47 48 65 64
48 49 66 65
49 50 67 66
50 51 68 67
52 53 70 69
53 54 71 70
54 55 72 71
55 56 73 72
56 57 74 73
57 58 75 74
58 59 76 75
59 60 77 76
60 61 78 77
61 62 79 78
62 63 80 79
63 64 81 80
64 65 82 81
65 66 83 82
66 67 84 83
67 68 85 84
69 70 87 86
70 71 88 87
71 72 89 88
72 73 90 89
73 74 91 90
74 75 92 91
75 76 93 92
76 77 94 93
77 78 95 94
78 79 96 95
79 80 97 96
80 81 98 97
81 82 99 98
82 83 100 99
83 84 101 100
84 85 102 101
86 87 104 103
87 88 105 104
88 89 106 105
89 90 107 106
90 91 108 107
91 92 109 108
92 93 110 109
93 94 111 110
94 95 112 111
95 96 113 112
96 97 114 113
97 98 115 114
98 99 116 115
99 100 117 116
100 101 118 117
101 102 119 118
103 104 121 120
104 105 122 121
105 106 123 122
106 107 124 123
107 108 125 124
108 109 126 125
109 110 127 126
110 111 128 127
111 112 129 128
112 113 130 129
113 114 131 130
114 115 132 131
115 116 133 132
116 117 134 133
117 118 135 134
118 119 136 135
120 121 138 137
121 122 139 138
122 123 140 139
123 124 141 140
124 125 142 141
125 126 143 142
126 127 144 143
127 128 145 144
128 129 146 145
129 130 147 146
130 131 148 147
131 132 149 148
132 133 150 149
133 134 151 150
134 135 152 151
135 136 153 152
