TITLE = "Solution"
VARIABLES = x, y, u, v, psiu, psiv, t, stress
ZONE T="structure" N=153 E=128 F=FEBLOCK ET=QUADRILATERAL VARLOCATION=([7,8]=cellcentered)
0.000000e+00
1.250000e+01
2.500000e+01
3.750000e+01
5.000000e+01
6.250000e+01
7.500000e+01
8.750000e+01
1.000000e+02
1.125000e+02
1.250000e+02
1.375000e+02
1.500000e+02
1.625000e+02
1.750000e+02
1.875000e+02
2.000000e+02
0.000000e+00
1.250000e+01
2.500000e+01
3.750000e+01
5.000000e+01
6.250000e+01
7.500000e+01
8.750000e+01
1.000000e+02
1.125000e+02
1.250000e+02
1.375000e+02
1.500000e+02
1.625000e+02
1.750000e+02
1.875000e+02
2.000000e+02
0.000000e+00
1.250000e+01
2.500000e+01
3.750000e+01
5.000000e+01
6.250000e+01
7.500000e+01
8.750000e+01
1.000000e+02
1.125000e+02
1.250000e+02
1.375000e+02
1.500000e+02
1.625000e+02
1.750000e+02
1.875000e+02
2.000000e+02
0.000000e+00
1.250000e+01
2.500000e+01
3.750000e+01
5.000000e+01
6.250000e+01
7.500000e+01
8.750000e+01
1.000000e+02
1.125000e+02
1.250000e+02
1.375000e+02
1.500000e+02
1.625000e+02
1.750000e+02
1.875000e+02
2.000000e+02
0.000000e+00
1.250000e+01
2.500000e+01
3.750000e+01
5.000000e+01
6.250000e+01
7.500000e+01
8.750000e+01
1.000000e+02
1.125000e+02
1.250000e+02
1.375000e+02
1.500000e+02
1.625000e+02
1.750000e+02
1.875000e+02
2.000000e+02
0.000000e+00
1.250000e+01
2.500000e+01
3.750000e+01
5.000000e+01
6.250000e+01
7.500000e+01
8.750000e+01
1.000000e+02
1.125000e+02
1.250000e+02
1.375000e+02
1.500000e+02
1.625000e+02
1.750000e+02
1.875000e+02
2.000000e+02
0.000000e+00
1.250000e+01
2.500000e+01
3.750000e+01
5.000000e+01
6.250000e+01
7.500000e+01
8.750000e+01
1.000000e+02
1.125000e+02
1.250000e+02
1.375000e+02
1.500000e+02
1.625000e+02
1.750000e+02
1.875000e+02
2.000000e+02
0.000000e+00
1.250000e+01
2.500000e+01
3.750000e+01
5.000000e+01
6.250000e+01
7.500000e+01
8.750000e+01
1.000000e+02
1.125000e+02
1.250000e+02
1.375000e+02
1.500000e+02
1.625000e+02
1.750000e+02
1.875000e+02
2.000000e+02
0.000000e+00
1.250000e+01
2.500000e+01
3.750000e+01
5.000000e+01
6.250000e+01
7.500000e+01
8.750000e+01
1.000000e+02
1.125000e+02
1.250000e+02
1.375000e+02
1.500000e+02
1.625000e+02
1.750000e+02
1.875000e+02
2.000000e+02
0.000000e+00
0.000000e+00
0.000000e+00
0.000000e+00
0.000000e+00
0.000000e+00
0.000000e+00
0.000000e+00
0.000000e+00
0.000000e+00
0.000000e+00
0.000000e+00
0.000000e+00
0.000000e+00
0.000000e+00
0.000000e+00
0.000000e+00
1.250000e+01
1.250000e+01
1.250000e+01
1.250000e+01
1.250000e+01
1.250000e+01
1.250000e+01
1.250000e+01
1.250000e+01
1.250000e+01
1.250000e+01
1.250000e+01
1.250000e+01
1.250000e+01
1.250000e+01
1.250000e+01
1.250000e+01
2.500000e+01
2.500000e+01
2.500000e+01
2.500000e+01
2.500000e+01
2.500000e+01
2.500000e+01
2.500000e+01
2.500000e+01
2.500000e+01
2.500000e+01
2.500000e+01
2.500000e+01
2.500000e+01
2.500000e+01
2.500000e+01
2.500000e+01
3.750000e+01
3.750000e+01
3.750000e+01
3.750000e+01
3.750000e+01
3.750000e+01
3.750000e+01
3.750000e+01
3.750000e+01
3.750000e+01
3.750000e+01
3.750000e+01
3.750000e+01
3.750000e+01
3.750000e+01
3.750000e+01
3.750000e+01
5.000000e+01
5.000000e+01
5.000000e+01
5.000000e+01
5.000000e+01
5.000000e+01
5.000000e+01
5.000000e+01
5.000000e+01
5.000000e+01
5.000000e+01
5.000000e+01
5.000000e+01
5.000000e+01
5.000000e+01
5.000000e+01
5.000000e+01
6.250000e+01
6.250000e+01
6.250000e+01
6.250000e+01
6.250000e+01
6.250000e+01
6.250000e+01
6.250000e+01
6.250000e+01
6.250000e+01
6.250000e+01
6.250000e+01
6.250000e+01
6.250000e+01
6.250000e+01
6.250000e+01
6.250000e+01
7.500000e+01
7.500000e+01
7.500000e+01
7.500000e+01
7.500000e+01
7.500000e+01
7.500000e+01
7.500000e+01
7.500000e+01
7.500000e+01
7.500000e+01
7.500000e+01
7.500000e+01
7.500000e+01
7.500000e+01
7.500000e+01
7.500000e+01
8.750000e+01
8.750000e+01
8.750000e+01
8.750000e+01
8.750000e+01
8.750000e+01
8.750000e+01
8.750000e+01
8.750000e+01
8.750000e+01
8.750000e+01
8.750000e+01
8.750000e+01
8.750000e+01
8.750000e+01
8.750000e+01
8.750000e+01
1.000000e+02
1.000000e+02
1.000000e+02
1.000000e+02
1.000000e+02
1.000000e+02
1.000000e+02
1.000000e+02
1.000000e+02
1.000000e+02
1.000000e+02
1.000000e+02
1.000000e+02
1.000000e+02
1.000000e+02
1.000000e+02
1.000000e+02
0.000000e+00
-8.222270e-01
-1.494253e+00
-2.144775e+00
-2.806846e+00
-3.457798e+00
-4.099061e+00
-4.733668e+00
-5.355507e+00
-5.954218e+00
-6.519791e+00
-7.047465e+00
-7.543290e+00
-8.028298e+00
-8.539158e+00
-9.119865e+00
-9.535271e+00
0.000000e+00
-4.583564e-01
-9.539090e-01
-1.440922e+00
-1.937158e+00
-2.424936e+00
-2.904568e+00
-3.378721e+00
-3.843076e+00
-4.289244e+00
-4.707529e+00
-5.089135e+00
-5.426962e+00
-5.709515e+00
-5.903872e+00
-5.946812e+00
-6.080936e+00
0.000000e+00
-2.621802e-01
-5.503570e-01
-8.688913e-01
-1.198917e+00
-1.526127e+00
-1.849026e+00
-2.166475e+00
-2.473832e+00
-2.763723e+00
-3.026554e+00
-3.250861e+00
-3.422495e+00
-3.522082e+00
-3.530237e+00
-3.498572e+00
-3.638055e+00
0.000000e+00
-1.182755e-01
-2.522168e-01
-4.058278e-01
-5.694356e-01
-7.342164e-01
-8.971101e-01
-1.055186e+00
-1.204352e+00
-1.338830e+00
-1.450866e+00
-1.530967e+00
-1.569114e+00
-1.559768e+00
-1.521838e+00
-1.529570e+00
-1.638298e+00
0.000000e+00
-4.935690e-04
-1.042580e-03
-1.558219e-03
-1.867785e-03
-1.635271e-03
-2.238863e-04
3.522639e-03
1.156807e-02
2.692639e-02
5.360970e-02
9.574536e-02
1.547187e-01
2.222373e-01
2.703815e-01
2.615311e-01
1.863869e-01
0.000000e+00
1.174462e-01
2.504420e-01
4.031141e-01
5.660412e-01
7.309366e-01
8.957533e-01
1.059391e+00
1.220832e+00
1.379030e+00
1.532715e+00
1.679691e+00
1.814590e+00
1.925043e+00
1.991452e+00
1.998503e+00
1.959461e+00
0.000000e+00
2.617717e-01
5.494273e-01
8.673361e-01
1.196677e+00
1.523322e+00
1.846172e+00
2.164742e+00
2.475226e+00
2.771303e+00
3.045011e+00
3.287680e+00
3.490183e+00
3.642474e+00
3.734863e+00
3.765293e+00
3.756254e+00
0.000000e+00
4.584648e-01
9.540539e-01
1.441025e+00
1.937030e+00
2.424207e+00
2.902696e+00
3.374583e+00
3.833671e+00
4.267541e+00
4.660344e+00
4.996111e+00
5.262209e+00
5.451752e+00
5.565606e+00
5.614286e+00
5.623279e+00
0.000000e+00
8.226241e-01
1.495276e+00
2.146622e+00
2.809639e+00
3.461505e+00
4.103464e+00
4.737516e+00
5.353895e+00
5.933973e+00
6.453645e+00
6.887875e+00
7.216241e+00
7.428467e+00
7.531363e+00
7.556495e+00
7.555846e+00
0.000000e+00
-5.047696e-01
-1.033065e+00
-1.733063e+00
-2.596664e+00
-3.624685e+00
-4.820434e+00
-6.182899e+00
-7.706937e+00
-9.384470e+00
-1.120505e+01
-1.315854e+01
-1.524070e+01
-1.746343e+01
-1.989186e+01
-2.273541e+01
-2.697589e+01
0.000000e+00
-3.167661e-01
-8.672769e-01
-1.561264e+00
-2.424777e+00
-3.455604e+00
-4.653610e+00
-6.018823e+00
-7.548021e+00
-9.233892e+00
-1.106574e+01
-1.303219e+01
-1.512740e+01
-1.736400e+01
-1.979972e+01
-2.263103e+01
-2.616617e+01
0.000000e+00
-2.536519e-01
-7.559896e-01
-1.443542e+00
-2.304065e+00
-3.335689e+00
-4.536027e+00
-5.904910e+00
-7.440005e+00
-9.134951e+00
-1.097964e+01
-1.296300e+01
-1.507967e+01
-1.734069e+01
-1.978418e+01
-2.244699e+01
-2.499007e+01
0.000000e+00
-2.407101e-01
-7.085796e-01
-1.378642e+00
-2.234173e+00
-3.265106e+00
-4.467904e+00
-5.841460e+00
-7.383605e+00
-9.088706e+00
-1.094722e+01
-1.294773e+01
-1.508154e+01
-1.734618e+01
-1.973037e+01
-2.213599e+01
-2.428913e+01
0.000000e+00
-2.404645e-01
-6.969943e-01
-1.359624e+00
-2.212117e+00
-3.243324e+00
-4.448432e+00
-5.826215e+00
-7.374777e+00
-9.088868e+00
-1.095857e+01
-1.296983e+01
-1.510578e+01
-1.734352e+01
-1.963271e+01
-2.186212e+01
-2.384694e+01
0.000000e+00
-2.405005e-01
-7.085393e-01
-1.379206e+00
-2.235981e+00
-3.269154e+00
-4.475806e+00
-5.855799e+00
-7.408056e+00
-9.127395e+00
-1.100256e+01
-1.301529e+01
-1.513929e+01
-1.733568e+01
-1.954283e+01
-2.166810e+01
-2.359126e+01
0.000000e+00
-2.532986e-01
-7.558963e-01
-1.444403e+00
-2.306946e+00
-3.342265e+00
-4.549023e+00
-5.928719e+00
-7.480921e+00
-9.200119e+00
-1.107348e+01
-1.307896e+01
-1.518347e+01
-1.734026e+01
-1.948767e+01
-2.155540e+01
-2.347697e+01
0.000000e+00
-3.164103e-01
-8.671739e-01
-1.562204e+00
-2.427983e+00
-3.463014e+00
-4.668372e+00
-6.045953e+00
-7.594570e+00
-9.307677e+00
-1.117125e+01
-1.316149e+01
-1.524282e+01
-1.736651e+01
-1.947357e+01
-2.150839e+01
-2.345034e+01
0.000000e+00
-5.045384e-01
-1.033087e+00
-1.734158e+00
-2.600048e+00
-3.632312e+00
-4.835441e+00
-6.209993e+00
-7.752160e+00
-9.453572e+00
-1.129921e+01
-1.326532e+01
-1.531728e+01
-1.740869e+01
-1.948515e+01
-2.149972e+01
-2.345092e+01


0.000000e+00
9.628052e-06
1.890054e-05
2.764743e-05
3.667093e-05
4.540941e-05
5.331335e-05
6.019392e-05
6.587537e-05
7.021739e-05
7.328976e-05
7.535688e-05
7.676628e-05
7.787842e-05
7.898818e-05
8.058797e-05
8.270407e-05
0.000000e+00
7.070571e-06
1.522553e-05
2.185199e-05
2.868833e-05
3.533413e-05
4.124167e-05
4.628351e-05
5.036402e-05
5.336636e-05
5.535723e-05
5.655492e-05
5.716712e-05
5.732867e-05
5.750025e-05
5.879443e-05
6.100873e-05
0.000000e+00
5.307936e-06
1.072900e-05
1.527659e-05
1.989471e-05
2.422515e-05
2.803846e-05
3.125868e-05
3.382020e-05
3.566145e-05
3.682563e-05
3.743782e-05
3.764327e-05
3.764097e-05
3.783181e-05
3.891059e-05
4.074012e-05
0.000000e+00
2.649993e-06
5.020129e-06
7.550426e-06
9.876296e-06
1.196901e-05
1.382142e-05
1.539369e-05
1.663357e-05
1.752013e-05
1.806879e-05
1.833982e-05
1.844976e-05
1.856984e-05
1.885267e-05
1.948918e-05
2.053150e-05
0.000000e+00
-5.909543e-09
-1.235868e-08
-1.911461e-08
-2.644496e-08
-3.552830e-08
-4.994061e-08
-7.633048e-08
-1.217849e-07
-1.880478e-07
-2.660695e-07
-3.294579e-07
-3.306044e-07
-2.239208e-07
-4.443185e-08
1.951940e-07
6.428502e-07
0.000000e+00
-2.660582e-06
-5.041479e-06
-7.584073e-06
-9.922955e-06
-1.202996e-05
-1.390210e-05
-1.550770e-05
-1.680333e-05
-1.777371e-05
-1.843031e-05
-1.881167e-05
-1.897728e-05
-1.900573e-05
-1.900085e-05
-1.898141e-05
-1.882726e-05
0.000000e+00
-5.313258e-06
-1.074220e-05
-1.530012e-05
-1.993105e-05
-2.427645e-05
-2.810444e-05
-3.132652e-05
-3.386387e-05
-3.566331e-05
-3.680156e-05
-3.744626e-05
-3.777730e-05
-3.794635e-05
-3.805420e-05
-3.811276e-05
-3.807696e-05
0.000000e+00
-7.071036e-06
-1.522966e-05
-2.186170e-05
-2.870712e-05
-3.536760e-05
-4.129116e-05
-4.631855e-05
-5.031102e-05
-5.315153e-05
-5.496333e-05
-5.603720e-05
-5.665412e-05
-5.701102e-05
-5.722030e-05
-5.732390e-05
-5.734040e-05
0.000000e+00
-9.630495e-06
-1.890066e-05
-2.764451e-05
-3.666558e-05
-4.540476e-05
-5.330814e-05
-6.015525e-05
-6.572324e-05
-6.986289e-05
-7.268409e-05
-7.448650e-05
-7.558763e-05
-7.622995e-05
-7.656735e-05
-7.669556e-05
-7.671678e-05
0.000000e+00
8.439272e-06
1.449523e-05
2.181525e-05
3.146167e-05
4.296765e-05
5.624774e-05
7.121259e-05
8.754192e-05
1.049071e-04
1.230895e-04
1.419286e-04
1.613337e-04
1.815213e-04
2.037794e-04
2.290586e-04
2.550613e-04
0.000000e+00
4.369152e-06
1.063103e-05
1.788340e-05
2.743747e-05
3.919198e-05
5.293434e-05
6.843164e-05
8.536820e-05
1.033611e-04
1.220862e-04
1.413267e-04
1.609922e-04
1.812035e-04
2.024715e-04
2.262607e-04
2.514372e-04
0.000000e+00
1.911453e-06
7.514678e-06
1.499984e-05
2.455970e-05
3.651857e-05
5.060609e-05
6.649750e-05
8.386132e-05
1.022968e-04
1.214198e-04
1.409731e-04
1.608425e-04
1.809384e-04
2.011325e-04
2.232277e-04
2.471070e-04
0.000000e+00
1.094467e-06
6.079604e-06
1.360473e-05
2.332569e-05
3.539256e-05
4.960358e-05
6.565017e-05
8.318363e-05
1.017998e-04
1.211045e-04
1.408075e-04
1.607254e-04
1.806556e-04
2.003712e-04
2.212280e-04
2.435355e-04
0.000000e+00
9.349555e-07
5.678011e-06
1.313935e-05
2.296625e-05
3.507027e-05
4.931308e-05
6.540781e-05
8.299722e-05
1.016711e-04
1.210302e-04
1.407601e-04
1.606380e-04
1.804685e-04
2.001453e-04
2.203658e-04
2.412417e-04
0.000000e+00
1.095336e-06
6.078416e-06
1.359941e-05
2.331504e-05
3.537959e-05
4.959982e-05
6.567375e-05
8.324703e-05
1.018992e-04
1.212162e-04
1.408796e-04
1.606732e-04
1.804467e-04
2.001687e-04
2.200736e-04
2.400403e-04
0.000000e+00
1.912581e-06
7.512943e-06
1.499216e-05
2.454386e-05
3.649968e-05
5.060409e-05
6.654438e-05
8.398053e-05
1.024848e-04
1.216418e-04
1.411519e-04
1.608223e-04
1.805312e-04
2.002312e-04
2.199480e-04
2.395172e-04
0.000000e+00
4.371440e-06
1.063218e-05
1.787993e-05
2.742800e-05
3.918238e-05
5.294272e-05
6.848491e-05
8.548762e-05
1.035503e-04
1.223252e-04
1.415520e-04
1.610383e-04
1.806459e-04
2.002854e-04
2.198905e-04
2.393526e-04
0.000000e+00
8.443726e-06
1.449978e-05
2.181775e-05
3.146207e-05
4.297209e-05
5.626581e-05
7.124973e-05
8.760217e-05
1.050025e-04
1.232274e-04
1.420700e-04
1.613175e-04
1.807875e-04
2.003461e-04
2.198858e-04
2.393292e-04


2.162419e+00
2.117373e+00
2.258768e+00
2.486403e+00
2.672955e+00
2.913474e+00
3.214981e+00
3.538342e+00
3.849348e+00
4.116721e+00
4.318263e+00
4.446279e+00
4.481810e+00
4.338071e+00
4.024190e+00
3.778537e+00
2.765051e+00
2.718925e+00
2.809484e+00
2.971695e+00
3.107044e+00
3.287717e+00
3.518386e+00
3.768077e+00
4.010720e+00
4.221084e+00
4.379904e+00
4.478856e+00
4.495891e+00
4.341561e+00
4.032233e+00
3.792958e+00
3.670860e+00
3.634595e+00
3.668419e+00
3.737298e+00
3.795845e+00
3.885262e+00
4.002684e+00
4.132885e+00
4.263138e+00
4.378598e+00
4.466378e+00
4.519541e+00
4.519053e+00
4.392498e+00
4.149008e+00
3.967618e+00
4.250427e+00
4.226875e+00
4.225896e+00
4.234501e+00
4.249735e+00
4.279340e+00
4.320368e+00
4.368962e+00
4.421074e+00
4.469738e+00
4.508109e+00
4.532417e+00
4.532167e+00
4.467047e+00
4.338593e+00
4.242731e+00
4.250444e+00
4.226820e+00
4.225659e+00
4.233874e+00
4.248390e+00
4.276881e+00
4.316429e+00
4.363122e+00
4.412823e+00
4.458986e+00
4.496104e+00
4.523031e+00
4.537412e+00
4.524482e+00
4.483118e+00
4.450446e+00
3.670660e+00
3.634156e+00
3.667440e+00
3.735313e+00
3.792298e+00
3.879967e+00
3.995956e+00
4.124610e+00
4.251868e+00
4.362691e+00
4.447044e+00
4.505183e+00
4.542663e+00
4.560796e+00
4.562539e+00
4.559626e+00
2.764223e+00
2.717694e+00
2.807479e+00
2.968526e+00
3.102754e+00
3.283849e+00
3.517895e+00
3.772746e+00
4.018493e+00
4.227240e+00
4.382062e+00
4.484256e+00
4.546591e+00
4.581861e+00
4.599379e+00
4.606073e+00
2.161034e+00
2.115510e+00
2.256088e+00
2.482727e+00
2.669002e+00
2.912347e+00
3.221822e+00
3.556575e+00
3.876724e+00
4.146356e+00
4.344602e+00
4.473549e+00
4.549928e+00
4.592104e+00
4.613375e+00
4.622162e+00


-4.452929e-01
-2.009013e-01
-1.342893e-01
-1.761905e-01
-1.387346e-01
-1.050162e-01
-8.244955e-02
-3.992064e-02
3.714503e-02
1.468819e-01
2.735874e-01
3.937655e-01
4.914582e-01
5.687096e-01
6.519836e-01
-3.968975e-01
5.163581e-01
4.007197e-01
3.747911e-01
3.420141e-01
3.526404e-01
3.637402e-01
3.718566e-01
3.938627e-01
4.404639e-01
5.151853e-01
6.140824e-01
7.271591e-01
8.414601e-01
9.264467e-01
7.923413e-01
-1.101318e+00
8.326607e-01
7.440038e-01
6.728872e-01
6.398079e-01
6.315198e-01
6.276430e-01
6.265812e-01
6.336727e-01
6.541133e-01
6.906347e-01
7.396440e-01
7.863110e-01
7.982498e-01
7.132564e-01
4.277392e-01
-7.770788e-02
9.372302e-01
8.657675e-01
8.027119e-01
7.675289e-01
7.522721e-01
7.434265e-01
7.350343e-01
7.259008e-01
7.171005e-01
7.091376e-01
6.979602e-01
6.713144e-01
6.109775e-01
5.174254e-01
4.581691e-01
4.556140e-01
9.376863e-01
8.663474e-01
8.032454e-01
7.674692e-01
7.506469e-01
7.385679e-01
7.240256e-01
7.040949e-01
6.781281e-01
6.463124e-01
6.086168e-01
5.661841e-01
5.298580e-01
5.352136e-01
6.222753e-01
7.658333e-01
8.337032e-01
7.453724e-01
6.742652e-01
6.402168e-01
6.290908e-01
6.189751e-01
6.056160e-01
5.908150e-01
5.761297e-01
5.628045e-01
5.531491e-01
5.547567e-01
5.857432e-01
6.672090e-01
7.944570e-01
9.259682e-01
5.170694e-01
4.017210e-01
3.758766e-01
3.429617e-01
3.526027e-01
3.607835e-01
3.627126e-01
3.744557e-01
4.062428e-01
4.604402e-01
5.324392e-01
6.161356e-01
7.112038e-01
8.188653e-01
9.220239e-01
9.870835e-01
-4.460689e-01
-2.021836e-01
-1.358003e-01
-1.776700e-01
-1.396208e-01
-1.049228e-01
-7.889859e-02
-2.380386e-02
8.461814e-02
2.506018e-01
4.548370e-01
6.602195e-01
8.287140e-01
9.374419e-01
9.877578e-01
9.997493e-01
1 2 19 18
2 3 20 19
3 4 21 20
4 5 22 21
5 6 23 22
6 7 24 23
7 8 25 24
8 9 26 25
9 10 27 26
10 11 28 27
11 12 29 28
12 13 30 29
13 14 31 30
14 15 32 31
15 16 33 32
16 17 34 33
18 19 36 35
19 20 37 36
20 21 38 37
21 22 39 38
22 23 40 39
23 24 41 40
24 25 42 41
25 26 43 42
26 27 44 43
27 28 45 44
28 29 46 45
29 30 47 46
30 31 48 47
31 32 49 48
32 33 50 49
33 34 51 50
35 36 53 52
36 37 54 53
37 38 55 54
38 39 56 55
39 40 57 56
40 41 58 57
41 42 59 58
42 43 60 59
43 44 61 60
44 45 62 61
45 46 63 62
46 47 64 63
47 48 65 64
48 49 66 65
49 50 67 66
50 51 68 67
52 53 70 69
53 54 71 70
54 55 72 71
55 56 73 72
56 57 74 73
57 58 75 74
58 59 76 75
59 60 77 76
60 61 78 77
61 62 79 78
62 63 80 79
63 64 81 80
64 65 82 81
65 66 83 82
66 67 84 83
67 68 85 84
69 70 87 86
70 71 88 87
71 72 89 88
72 73 90 89
73 74 91 90
74 75 92 91
75 76 93 92
76 77 94 93
77 78 95 94
78 79 96 95
79 80 97 96
80 81 98 97
81 82 99 98
82 83 100 99
83 84 101 100
84 85 102 101
86 87 104 103
87 88 105 104
88 89 106 105
89 90 107 106
90 91 108 107
91 92 109 108
92 93 110 109
93 94 111 110
94 95 112 111
95 96 113 112
96 97 114 113
97 98 115 114
98 99 116 115
99 100 117 116
100 101 118 117
101 102 119 118
103 104 121 120
104 105 122 121
105 106 123 122
106 107 124 123
107 108 125 124
108 109 126 125
109 110 127 126
110 111 128 127
111 112 129 128
112 113 130 129
113 114 131 130
114 115 132 131
115 116 133 132
116 117 134 133
117 118 135 134
118 119 136 135
120 121 138 137
121 122 139 138
122 123 140 139
123 124 141 140
124 125 142 141
125 126 143 142
126 127 144 143
127 128 145 144
128 129 146 145
129 130 147 146
130 131 148 147
131 132 149 148
132 133 150 149
133 134 151 150
134 135 152 151
135 136 153 152
