TITLE = "Solution"
VARIABLES = x, y, u, v, psiu, psiv, t, stress
ZONE T="structure" N=153 E=128 F=FEBLOCK ET=QUADRILATERAL VARLOCATION=([7,8]=cellcentered)
0.000000e+00
1.250000e+01
2.500000e+01
3.750000e+01
5.000000e+01
6.250000e+01
7.500000e+01
8.750000e+01
1.000000e+02
1.125000e+02
1.250000e+02
1.375000e+02
1.500000e+02
1.625000e+02
1.750000e+02
1.875000e+02
2.000000e+02
0.000000e+00
1.250000e+01
2.500000e+01
3.750000e+01
5.000000e+01
6.250000e+01
7.500000e+01
8.750000e+01
1.000000e+02
1.125000e+02
1.250000e+02
1.375000e+02
1.500000e+02
1.625000e+02
1.750000e+02
1.875000e+02
2.000000e+02
0.000000e+00
1.250000e+01
2.500000e+01
3.750000e+01
5.000000e+01
6.250000e+01
7.500000e+01
8.750000e+01
1.000000e+02
1.125000e+02
1.250000e+02
1.375000e+02
1.500000e+02
1.625000e+02
1.750000e+02
1.875000e+02
2.000000e+02
0.000000e+00
1.250000e+01
2.500000e+01
3.750000e+01
5.000000e+01
6.250000e+01
7.500000e+01
8.750000e+01
1.000000e+02
1.125000e+02
1.250000e+02
1.375000e+02
1.500000e+02
1.625000e+02
1.750000e+02
1.875000e+02
2.000000e+02
0.000000e+00
1.250000e+01
2.500000e+01
3.750000e+01
5.000000e+01
6.250000e+01
7.500000e+01
8.750000e+01
1.000000e+02
1.125000e+02
1.250000e+02
1.375000e+02
1.500000e+02
1.625000e+02
1.750000e+02
1.875000e+02
2.000000e+02
0.000000e+00
1.250000e+01
2.500000e+01
3.750000e+01
5.000000e+01
6.250000e+01
7.500000e+01
8.750000e+01
1.000000e+02
1.125000e+02
1.250000e+02
1.375000e+02
1.500000e+02
1.625000e+02
1.750000e+02
1.875000e+02
2.000000e+02
0.000000e+00
1.250000e+01
2.500000e+01
3.750000e+01
5.000000e+01
6.250000e+01
7.500000e+01
8.750000e+01
1.000000e+02
1.125000e+02
1.250000e+02
1.375000e+02
1.500000e+02
1.625000e+02
1.750000e+02
1.875000e+02
2.000000e+02
0.000000e+00
1.250000e+01
2.500000e+01
3.750000e+01
5.000000e+01
6.250000e+01
7.500000e+01
8.750000e+01
1.000000e+02
1.125000e+02
1.250000e+02
1.375000e+02
1.500000e+02
1.625000e+02
1.750000e+02
1.875000e+02
2.000000e+02
0.000000e+00
1.250000e+01
2.500000e+01
3.750000e+01
5.000000e+01
6.250000e+01
7.500000e+01
8.750000e+01
1.000000e+02
1.125000e+02
1.250000e+02
1.375000e+02
1.500000e+02
1.625000e+02
1.750000e+02
1.875000e+02
2.000000e+02
0.000000e+00
0.000000e+00
0.000000e+00
0.000000e+00
0.000000e+00
0.000000e+00
0.000000e+00
0.000000e+00
0.000000e+00
0.000000e+00
0.000000e+00
0.000000e+00
0.000000e+00
0.000000e+00
0.000000e+00
0.000000e+00
0.000000e+00
1.250000e+01
1.250000e+01
1.250000e+01
1.250000e+01
1.250000e+01
1.250000e+01
1.250000e+01
1.250000e+01
1.250000e+01
1.250000e+01
1.250000e+01
1.250000e+01
1.250000e+01
1.250000e+01
1.250000e+01
1.250000e+01
1.250000e+01
2.500000e+01
2.500000e+01
2.500000e+01
2.500000e+01
2.500000e+01
2.500000e+01
2.500000e+01
2.500000e+01
2.500000e+01
2.500000e+01
2.500000e+01
2.500000e+01
2.500000e+01
2.500000e+01
2.500000e+01
2.500000e+01
2.500000e+01
3.750000e+01
3.750000e+01
3.750000e+01
3.750000e+01
3.750000e+01
3.750000e+01
3.750000e+01
3.750000e+01
3.750000e+01
3.750000e+01
3.750000e+01
3.750000e+01
3.750000e+01
3.750000e+01
3.750000e+01
3.750000e+01
3.750000e+01
5.000000e+01
5.000000e+01
5.000000e+01
5.000000e+01
5.000000e+01
5.000000e+01
5.000000e+01
5.000000e+01
5.000000e+01
5.000000e+01
5.000000e+01
5.000000e+01
5.000000e+01
5.000000e+01
5.000000e+01
5.000000e+01
5.000000e+01
6.250000e+01
6.250000e+01
6.250000e+01
6.250000e+01
6.250000e+01
6.250000e+01
6.250000e+01
6.250000e+01
6.250000e+01
6.250000e+01
6.250000e+01
6.250000e+01
6.250000e+01
6.250000e+01
6.250000e+01
6.250000e+01
6.250000e+01
7.500000e+01
7.500000e+01
7.500000e+01
7.500000e+01
7.500000e+01
7.500000e+01
7.500000e+01
7.500000e+01
7.500000e+01
7.500000e+01
7.500000e+01
7.500000e+01
7.500000e+01
7.500000e+01
7.500000e+01
7.500000e+01
7.500000e+01
8.750000e+01
8.750000e+01
8.750000e+01
8.750000e+01
8.750000e+01
8.750000e+01
8.750000e+01
8.750000e+01
8.750000e+01
8.750000e+01
8.750000e+01
8.750000e+01
8.750000e+01
8.750000e+01
8.750000e+01
8.750000e+01
8.750000e+01
1.000000e+02
1.000000e+02
1.000000e+02
1.000000e+02
1.000000e+02
1.000000e+02
1.000000e+02
1.000000e+02
1.000000e+02
1.000000e+02
1.000000e+02
1.000000e+02
1.000000e+02
1.000000e+02
1.000000e+02
1.000000e+02
1.000000e+02
0.000000e+00
-9.919416e-01
-1.679968e+00
-2.430488e+00
-3.113186e+00
-3.754124e+00
-4.455209e+00
-5.087981e+00
-5.763056e+00
-6.404192e+00
-7.057708e+00
-7.721563e+00
-8.376719e+00
-9.150178e+00
-1.007695e+01
-1.083176e+01
-1.128206e+01
0.000000e+00
-4.443254e-01
-9.083139e-01
-1.419160e+00
-1.929998e+00
-2.412911e+00
-2.925859e+00
-3.423833e+00
-3.920663e+00
-4.421837e+00
-4.916066e+00
-5.417355e+00
-5.902243e+00
-6.423823e+00
-6.896453e+00
-7.021569e+00
-7.200335e+00
0.000000e+00
-1.467455e-01
-3.508860e-01
-6.410249e-01
-9.790011e-01
-1.304944e+00
-1.658707e+00
-2.013985e+00
-2.358918e+00
-2.719237e+00
-3.058738e+00
-3.392356e+00
-3.687226e+00
-3.926869e+00
-4.034727e+00
-4.032221e+00
-4.180924e+00
0.000000e+00
-7.881641e-02
-1.623777e-01
-3.092479e-01
-4.540150e-01
-6.286155e-01
-8.117586e-01
-9.789984e-01
-1.164639e+00
-1.326797e+00
-1.488173e+00
-1.626616e+00
-1.719451e+00
-1.727119e+00
-1.654245e+00
-1.634484e+00
-1.752279e+00
0.000000e+00
-3.096689e-03
-6.765669e-03
-1.057414e-02
-1.438624e-02
-1.702258e-02
-1.714567e-02
-1.354449e-02
-4.478728e-03
1.233192e-02
3.672968e-02
8.087830e-02
1.626107e-01
2.770544e-01
3.961333e-01
4.360276e-01
3.377739e-01
0.000000e+00
7.345964e-02
1.513910e-01
2.912490e-01
4.297507e-01
5.987524e-01
7.786669e-01
9.520549e-01
1.156603e+00
1.350390e+00
1.565164e+00
1.785528e+00
2.010726e+00
2.215782e+00
2.351051e+00
2.384042e+00
2.318697e+00
0.000000e+00
1.446858e-01
3.459915e-01
6.323976e-01
9.668039e-01
1.290894e+00
1.643343e+00
2.001211e+00
2.365679e+00
2.767828e+00
3.145453e+00
3.512511e+00
3.846288e+00
4.119935e+00
4.295186e+00
4.350018e+00
4.327642e+00
0.000000e+00
4.452583e-01
9.090031e-01
1.419727e+00
1.929969e+00
2.410834e+00
2.920972e+00
3.415341e+00
3.904346e+00
4.397159e+00
4.875571e+00
5.350758e+00
5.780881e+00
6.127523e+00
6.343662e+00
6.438953e+00
6.456484e+00
0.000000e+00
9.942542e-01
1.684444e+00
2.438911e+00
3.125047e+00
3.767577e+00
4.469301e+00
5.097502e+00
5.743817e+00
6.330444e+00
6.905896e+00
7.506241e+00
8.038501e+00
8.447957e+00
8.649701e+00
8.702917e+00
8.703513e+00
0.000000e+00
-6.173679e-01
-1.359951e+00
-2.359071e+00
-3.531903e+00
-4.875380e+00
-6.404456e+00
-8.089882e+00
-9.949376e+00
-1.197148e+01
-1.415610e+01
-1.650462e+01
-1.901783e+01
-2.174889e+01
-2.471169e+01
-2.807177e+01
-3.308777e+01
0.000000e+00
-4.138624e-01
-1.191176e+00
-2.173527e+00
-3.362306e+00
-4.700583e+00
-6.227660e+00
-7.920489e+00
-9.773726e+00
-1.180355e+01
-1.398382e+01
-1.633747e+01
-1.884412e+01
-2.155655e+01
-2.457219e+01
-2.798767e+01
-3.203891e+01
0.000000e+00
-3.878620e-01
-1.089754e+00
-2.070067e+00
-3.242337e+00
-4.575442e+00
-6.106812e+00
-7.791536e+00
-9.654558e+00
-1.168200e+01
-1.387351e+01
-1.623801e+01
-1.875548e+01
-2.149440e+01
-2.456264e+01
-2.783519e+01
-3.086713e+01
0.000000e+00
-4.465627e-01
-1.085933e+00
-2.043785e+00
-3.178791e+00
-4.506685e+00
-6.043142e+00
-7.716337e+00
-9.596929e+00
-1.162429e+01
-1.383653e+01
-1.622064e+01
-1.876446e+01
-2.150424e+01
-2.449385e+01
-2.752502e+01
-3.014799e+01
0.000000e+00
-4.540771e-01
-1.107785e+00
-2.027708e+00
-3.165740e+00
-4.494581e+00
-6.022568e+00
-7.713748e+00
-9.588709e+00
-1.163728e+01
-1.386160e+01
-1.625492e+01
-1.880608e+01
-2.150537e+01
-2.434296e+01
-2.715914e+01
-2.954430e+01
0.000000e+00
-4.453386e-01
-1.085396e+00
-2.045596e+00
-3.185890e+00
-4.522672e+00
-6.069937e+00
-7.754323e+00
-9.651242e+00
-1.170344e+01
-1.393019e+01
-1.630711e+01
-1.883824e+01
-2.149516e+01
-2.420706e+01
-2.684001e+01
-2.910785e+01
0.000000e+00
-3.862018e-01
-1.089288e+00
-2.073909e+00
-3.255204e+00
-4.603082e+00
-6.153140e+00
-7.863824e+00
-9.757399e+00
-1.181797e+01
-1.401705e+01
-1.637412e+01
-1.887843e+01
-2.149540e+01
-2.412390e+01
-2.663314e+01
-2.887599e+01
0.000000e+00
-4.123164e-01
-1.190725e+00
-2.177867e+00
-3.376720e+00
-4.730415e+00
-6.280024e+00
-8.005024e+00
-9.895762e+00
-1.195444e+01
-1.413319e+01
-1.647291e+01
-1.895564e+01
-2.153712e+01
-2.410333e+01
-2.654531e+01
-2.881580e+01
0.000000e+00
-6.163070e-01
-1.360036e+00
-2.364174e+00
-3.546778e+00
-4.905456e+00
-6.457514e+00
-8.173553e+00
-1.006729e+01
-1.211080e+01
-1.428871e+01
-1.662151e+01
-1.907921e+01
-2.161873e+01
-2.412812e+01
-2.653027e+01
-2.881466e+01


0.000000e+00
1.540667e-05
2.512531e-05
3.746573e-05
5.351676e-05
6.712593e-05
8.275394e-05
9.700742e-05
1.113309e-04
1.255724e-04
1.407033e-04
1.549896e-04
1.718875e-04
1.873454e-04
1.967735e-04
2.023226e-04
2.092225e-04
0.000000e+00
1.146244e-05
1.975498e-05
2.837398e-05
4.104784e-05
5.168901e-05
6.185462e-05
7.305095e-05
8.321977e-05
9.459541e-05
1.052617e-04
1.153772e-04
1.264872e-04
1.355550e-04
1.366338e-04
1.403381e-04
1.461707e-04
0.000000e+00
9.548285e-06
1.503354e-05
2.019980e-05
2.900212e-05
3.564757e-05
4.154340e-05
4.897083e-05
5.499998e-05
6.224388e-05
6.863130e-05
7.393879e-05
7.865797e-05
8.059161e-05
7.965479e-05
8.203749e-05
8.629584e-05
0.000000e+00
5.176122e-06
6.873072e-06
9.659486e-06
1.321550e-05
1.394663e-05
1.645207e-05
1.843036e-05
2.174506e-05
2.527201e-05
2.847461e-05
2.916394e-05
2.839188e-05
2.681757e-05
2.667436e-05
2.976667e-05
3.543242e-05
0.000000e+00
-1.627852e-07
-4.067926e-07
-8.015724e-07
-1.605741e-06
-2.643361e-06
-4.550867e-06
-6.470300e-06
-6.874066e-06
-7.105898e-06
-8.464751e-06
-1.187053e-05
-1.464189e-05
-1.593531e-05
-1.557281e-05
-1.336328e-05
-9.392535e-06
0.000000e+00
-5.418799e-06
-7.418178e-06
-1.071665e-05
-1.471105e-05
-1.637682e-05
-2.089785e-05
-2.496882e-05
-3.034206e-05
-3.334497e-05
-3.735601e-05
-4.221539e-05
-4.703829e-05
-4.857194e-05
-4.910488e-05
-4.960591e-05
-4.794198e-05
0.000000e+00
-9.535748e-06
-1.508864e-05
-2.035912e-05
-2.909144e-05
-3.550472e-05
-4.120925e-05
-4.940396e-05
-5.648705e-05
-6.360861e-05
-6.872029e-05
-7.362003e-05
-7.776917e-05
-8.107808e-05
-8.299134e-05
-8.489538e-05
-8.564227e-05
0.000000e+00
-1.138923e-05
-1.966780e-05
-2.827598e-05
-4.082438e-05
-5.163675e-05
-6.161628e-05
-7.290583e-05
-8.331602e-05
-9.457182e-05
-1.051477e-04
-1.131262e-04
-1.180072e-04
-1.229609e-04
-1.264549e-04
-1.277055e-04
-1.278031e-04
0.000000e+00
-1.541935e-05
-2.506954e-05
-3.732611e-05
-5.331343e-05
-6.692406e-05
-8.239207e-05
-9.563806e-05
-1.095290e-04
-1.235454e-04
-1.411895e-04
-1.565808e-04
-1.659974e-04
-1.711098e-04
-1.733267e-04
-1.735220e-04
-1.733328e-04
0.000000e+00
1.260971e-05
2.001810e-05
3.246551e-05
4.878064e-05
6.682455e-05
9.105601e-05
1.196157e-04
1.521900e-04
1.886216e-04
2.283968e-04
2.723377e-04
3.225861e-04
3.764886e-04
4.378230e-04
5.085139e-04
5.816181e-04
0.000000e+00
7.674681e-06
1.612735e-05
2.636538e-05
4.230359e-05
6.089357e-05
8.462250e-05
1.136970e-04
1.460247e-04
1.823857e-04
2.221587e-04
2.661012e-04
3.159750e-04
3.717910e-04
4.327462e-04
5.011506e-04
5.712384e-04
0.000000e+00
4.320866e-06
1.231472e-05
2.169821e-05
3.650705e-05
5.563846e-05
7.932658e-05
1.092212e-04
1.417809e-04
1.778429e-04
2.175270e-04
2.617084e-04
3.122163e-04
3.695603e-04
4.287341e-04
4.936817e-04
5.614880e-04
0.000000e+00
3.186151e-06
1.058263e-05
2.000457e-05
3.440683e-05
5.206798e-05
7.654562e-05
1.084103e-04
1.420058e-04
1.761366e-04
2.154360e-04
2.603096e-04
3.116107e-04
3.681945e-04
4.260546e-04
4.858577e-04
5.472859e-04
0.000000e+00
2.795748e-06
1.022919e-05
1.992937e-05
3.404189e-05
5.076525e-05
7.559151e-05
1.093791e-04
1.430169e-04
1.756535e-04
2.137547e-04
2.605046e-04
3.120473e-04
3.682745e-04
4.248953e-04
4.794765e-04
5.312541e-04
0.000000e+00
3.320852e-06
1.076165e-05
2.036134e-05
3.470321e-05
5.186601e-05
7.722997e-05
1.101011e-04
1.434444e-04
1.754800e-04
2.141856e-04
2.622500e-04
3.144683e-04
3.684778e-04
4.247538e-04
4.771543e-04
5.204003e-04
0.000000e+00
4.464393e-06
1.253306e-05
2.203389e-05
3.675812e-05
5.570041e-05
8.020558e-05
1.108639e-04
1.429652e-04
1.767584e-04
2.166031e-04
2.655108e-04
3.179319e-04
3.704143e-04
4.237742e-04
4.744639e-04
5.170574e-04
0.000000e+00
7.790607e-06
1.635506e-05
2.665603e-05
4.254913e-05
6.127725e-05
8.549746e-05
1.150436e-04
1.465153e-04
1.812329e-04
2.212570e-04
2.690760e-04
3.209087e-04
3.725488e-04
4.238312e-04
4.724820e-04
5.175521e-04
0.000000e+00
1.271369e-05
2.024626e-05
3.274454e-05
4.909901e-05
6.732501e-05
9.197554e-05
1.207611e-04
1.526670e-04
1.876351e-04
2.282650e-04
2.732431e-04
3.230476e-04
3.737740e-04
4.241026e-04
4.719991e-04
5.178252e-04


5.502685e+00
6.002837e+00
6.726940e+00
5.756013e+00
5.174322e+00
5.548082e+00
5.695847e+00
5.986419e+00
5.770368e+00
5.843613e+00
6.196067e+00
7.083563e+00
8.781784e+00
9.752125e+00
9.067884e+00
7.917804e+00
7.976552e+00
8.355362e+00
8.560590e+00
8.263936e+00
7.908647e+00
8.046253e+00
8.247663e+00
8.209079e+00
8.245413e+00
8.189958e+00
8.332461e+00
8.760185e+00
9.445360e+00
9.762058e+00
8.319009e+00
6.404841e+00
9.787056e+00
9.774931e+00
9.941630e+00
9.778988e+00
9.773596e+00
9.834373e+00
9.758500e+00
9.848117e+00
9.775951e+00
9.816767e+00
9.824572e+00
9.811421e+00
9.829622e+00
9.330164e+00
7.906931e+00
6.107154e+00
9.971152e+00
9.970632e+00
9.970364e+00
9.967469e+00
9.963712e+00
9.957290e+00
9.950908e+00
9.951683e+00
9.954775e+00
9.951365e+00
9.927734e+00
9.414287e+00
8.765660e+00
8.308689e+00
7.885032e+00
7.763609e+00
9.971014e+00
9.970316e+00
9.969780e+00
9.965990e+00
9.959907e+00
9.948369e+00
9.897569e+00
9.925113e+00
9.932668e+00
9.843826e+00
9.281144e+00
8.452286e+00
7.567850e+00
7.623010e+00
8.526701e+00
9.031064e+00
9.787352e+00
9.773647e+00
9.938796e+00
9.771328e+00
9.752015e+00
9.634938e+00
9.409725e+00
9.525505e+00
9.318466e+00
8.743793e+00
8.213519e+00
7.746227e+00
7.963050e+00
8.580767e+00
9.344649e+00
9.905178e+00
7.981638e+00
8.356246e+00
8.556008e+00
8.249973e+00
7.835427e+00
7.730403e+00
7.640694e+00
7.619571e+00
7.554783e+00
7.163820e+00
7.370338e+00
8.351790e+00
9.124314e+00
9.715484e+00
9.943300e+00
9.964650e+00
5.517195e+00
6.007411e+00
6.724627e+00
5.746456e+00
5.152229e+00
5.300045e+00
5.260667e+00
5.645590e+00
5.679391e+00
6.180849e+00
7.693970e+00
9.020059e+00
9.888990e+00
9.954999e+00
9.968300e+00
9.973052e+00


-8.053170e-01
-1.840046e-01
-3.900539e-01
-2.503890e-01
-1.129794e-01
-2.914914e-01
-1.300432e-01
-2.098926e-01
-1.570285e-01
-1.681690e-01
-2.035585e-01
-1.541648e-01
-4.730048e-01
-6.671957e-01
3.198813e-01
-8.471392e-01
6.126273e-01
4.747651e-01
2.989062e-01
2.273412e-01
2.843199e-01
1.696112e-01
1.780569e-01
1.697927e-01
1.160189e-01
1.452390e-01
1.343390e-01
2.445954e-01
3.014963e-01
5.171993e-01
6.971938e-01
-9.425700e-01
7.261966e-01
4.719291e-01
6.487265e-02
-8.727871e-03
-3.878743e-02
-1.681650e-01
-7.671521e-02
-1.269927e-01
-6.413667e-02
-1.291344e-02
4.423592e-02
1.938463e-01
2.837360e-01
1.522643e-01
-2.037177e-02
-1.731153e-01
7.312355e-01
5.568603e-01
1.976538e-01
7.087663e-02
-2.261221e-02
-9.112828e-02
-1.726106e-02
-5.283473e-02
2.136584e-02
2.662939e-02
6.618988e-02
1.188916e-01
5.735954e-02
-2.673572e-01
-3.807281e-01
-7.348913e-02
7.339934e-01
5.607500e-01
2.048580e-01
7.655037e-02
-2.074906e-02
-1.000151e-01
-3.790884e-02
-9.057626e-02
-3.917061e-02
-2.957070e-02
1.997954e-02
1.439900e-02
-3.656055e-02
-1.357659e-01
-1.045344e-01
3.149398e-01
7.325765e-01
4.822019e-01
8.216291e-02
6.164395e-03
-3.108344e-02
-1.651233e-01
-1.017565e-01
-2.011627e-01
-1.743448e-01
-9.997166e-02
-8.287583e-02
-1.009541e-01
-9.945862e-02
5.046500e-02
3.339011e-01
7.271306e-01
6.161341e-01
4.811318e-01
3.065483e-01
2.336359e-01
2.853769e-01
1.627669e-01
1.491780e-01
9.002746e-02
-4.974544e-02
-3.791783e-02
-9.922062e-02
-6.507002e-02
6.691801e-02
3.720659e-01
7.135897e-01
9.480820e-01
-8.115955e-01
-1.876458e-01
-3.982235e-01
-2.564855e-01
-1.128491e-01
-2.892482e-01
-1.189267e-01
-1.492967e-01
-5.865292e-02
-2.549558e-02
-9.190104e-02
9.156796e-02
3.939128e-01
7.726379e-01
9.527116e-01
9.987309e-01
1 2 19 18
2 3 20 19
3 4 21 20
4 5 22 21
5 6 23 22
6 7 24 23
7 8 25 24
8 9 26 25
9 10 27 26
10 11 28 27
11 12 29 28
12 13 30 29
13 14 31 30
14 15 32 31
15 16 33 32
16 17 34 33
18 19 36 35
19 20 37 36
20 21 38 37
21 22 39 38
22 23 40 39
23 24 41 40
24 25 42 41
25 26 43 42
26 27 44 43
27 28 45 44
28 29 46 45
29 30 47 46
30 31 48 47
31 32 49 48
32 33 50 49
33 34 51 50
35 36 53 52
36 37 54 53
37 38 55 54
38 39 56 55
39 40 57 56
40 41 58 57
41 42 59 58
42 43 60 59
43 44 61 60
44 45 62 61
45 46 63 62
46 47 64 63
47 48 65 64
48 49 66 65
49 50 67 66
50 51 68 67
52 53 70 69
53 54 71 70
54 55 72 71
55 56 73 72
56 57 74 73
57 58 75 74
58 59 76 75
59 60 77 76
60 61 78 77
61 62 79 78
62 63 80 79
63 64 81 80
64 65 82 81
65 66 83 82
66 67 84 83
67 68 85 84
69 70 87 86
70 71 88 87
71 72 89 88
72 73 90 89
73 74 91 90
74 75 92 91
75 76 93 92
76 77 94 93
77 78 95 94
78 79 96 95
79 80 97 96
80 81 98 97
81 82 99 98
82 83 100 99
83 84 101 100
84 85 102 101
86 87 104 103
87 88 105 104
88 89 106 105
89 90 107 106
90 91 108 107
91 92 109 108
92 93 110 109
93 94 111 110
94 95 112 111
95 96 113 112
96 97 114 113
97 98 115 114
98 99 116 115
99 100 117 116
100 101 118 117
101 102 119 118
103 104 121 120
104 105 122 121
105 106 123 122
106 107 124 123
107 108 125 124
108 109 126 125
109 110 127 126
110 111 128 127
111 112 129 128
112 113 130 129
113 114 131 130
114 115 132 131
115 116 133 132
116 117 134 133
117 118 135 134
118 119 136 135
120 121 138 137
121 122 139 138
122 123 140 139
123 124 141 140
124 125 142 141
125 126 143 142
126 127 144 143
127 128 145 144
128 129 146 145
129 130 147 146
130 131 148 147
131 132 149 148
132 133 150 149
133 134 151 150
134 135 152 151
135 136 153 152
