TITLE = "Solution"
VARIABLES = x, y, u, v, psiu, psiv, t, stress
ZONE T="structure" N=153 E=128 F=FEBLOCK ET=QUADRILATERAL VARLOCATION=([7,8]=cellcentered)
0.000000e+00
1.250000e+01
2.500000e+01
3.750000e+01
5.000000e+01
6.250000e+01
7.500000e+01
8.750000e+01
1.000000e+02
1.125000e+02
1.250000e+02
1.375000e+02
1.500000e+02
1.625000e+02
1.750000e+02
1.875000e+02
2.000000e+02
0.000000e+00
1.250000e+01
2.500000e+01
3.750000e+01
5.000000e+01
6.250000e+01
7.500000e+01
8.750000e+01
1.000000e+02
1.125000e+02
1.250000e+02
1.375000e+02
1.500000e+02
1.625000e+02
1.750000e+02
1.875000e+02
2.000000e+02
0.000000e+00
1.250000e+01
2.500000e+01
3.750000e+01
5.000000e+01
6.250000e+01
7.500000e+01
8.750000e+01
1.000000e+02
1.125000e+02
1.250000e+02
1.375000e+02
1.500000e+02
1.625000e+02
1.750000e+02
1.875000e+02
2.000000e+02
0.000000e+00
1.250000e+01
2.500000e+01
3.750000e+01
5.000000e+01
6.250000e+01
7.500000e+01
8.750000e+01
1.000000e+02
1.125000e+02
1.250000e+02
1.375000e+02
1.500000e+02
1.625000e+02
1.750000e+02
1.875000e+02
2.000000e+02
0.000000e+00
1.250000e+01
2.500000e+01
3.750000e+01
5.000000e+01
6.250000e+01
7.500000e+01
8.750000e+01
1.000000e+02
1.125000e+02
1.250000e+02
1.375000e+02
1.500000e+02
1.625000e+02
1.750000e+02
1.875000e+02
2.000000e+02
0.000000e+00
1.250000e+01
2.500000e+01
3.750000e+01
5.000000e+01
6.250000e+01
7.500000e+01
8.750000e+01
1.000000e+02
1.125000e+02
1.250000e+02
1.375000e+02
1.500000e+02
1.625000e+02
1.750000e+02
1.875000e+02
2.000000e+02
0.000000e+00
1.250000e+01
2.500000e+01
3.750000e+01
5.000000e+01
6.250000e+01
7.500000e+01
8.750000e+01
1.000000e+02
1.125000e+02
1.250000e+02
1.375000e+02
1.500000e+02
1.625000e+02
1.750000e+02
1.875000e+02
2.000000e+02
0.000000e+00
1.250000e+01
2.500000e+01
3.750000e+01
5.000000e+01
6.250000e+01
7.500000e+01
8.750000e+01
1.000000e+02
1.125000e+02
1.250000e+02
1.375000e+02
1.500000e+02
1.625000e+02
1.750000e+02
1.875000e+02
2.000000e+02
0.000000e+00
1.250000e+01
2.500000e+01
3.750000e+01
5.000000e+01
6.250000e+01
7.500000e+01
8.750000e+01
1.000000e+02
1.125000e+02
1.250000e+02
1.375000e+02
1.500000e+02
1.625000e+02
1.750000e+02
1.875000e+02
2.000000e+02
0.000000e+00
0.000000e+00
0.000000e+00
0.000000e+00
0.000000e+00
0.000000e+00
0.000000e+00
0.000000e+00
0.000000e+00
0.000000e+00
0.000000e+00
0.000000e+00
0.000000e+00
0.000000e+00
0.000000e+00
0.000000e+00
0.000000e+00
1.250000e+01
1.250000e+01
1.250000e+01
1.250000e+01
1.250000e+01
1.250000e+01
1.250000e+01
1.250000e+01
1.250000e+01
1.250000e+01
1.250000e+01
1.250000e+01
1.250000e+01
1.250000e+01
1.250000e+01
1.250000e+01
1.250000e+01
2.500000e+01
2.500000e+01
2.500000e+01
2.500000e+01
2.500000e+01
2.500000e+01
2.500000e+01
2.500000e+01
2.500000e+01
2.500000e+01
2.500000e+01
2.500000e+01
2.500000e+01
2.500000e+01
2.500000e+01
2.500000e+01
2.500000e+01
3.750000e+01
3.750000e+01
3.750000e+01
3.750000e+01
3.750000e+01
3.750000e+01
3.750000e+01
3.750000e+01
3.750000e+01
3.750000e+01
3.750000e+01
3.750000e+01
3.750000e+01
3.750000e+01
3.750000e+01
3.750000e+01
3.750000e+01
5.000000e+01
5.000000e+01
5.000000e+01
5.000000e+01
5.000000e+01
5.000000e+01
5.000000e+01
5.000000e+01
5.000000e+01
5.000000e+01
5.000000e+01
5.000000e+01
5.000000e+01
5.000000e+01
5.000000e+01
5.000000e+01
5.000000e+01
6.250000e+01
6.250000e+01
6.250000e+01
6.250000e+01
6.250000e+01
6.250000e+01
6.250000e+01
6.250000e+01
6.250000e+01
6.250000e+01
6.250000e+01
6.250000e+01
6.250000e+01
6.250000e+01
6.250000e+01
6.250000e+01
6.250000e+01
7.500000e+01
7.500000e+01
7.500000e+01
7.500000e+01
7.500000e+01
7.500000e+01
7.500000e+01
7.500000e+01
7.500000e+01
7.500000e+01
7.500000e+01
7.500000e+01
7.500000e+01
7.500000e+01
7.500000e+01
7.500000e+01
7.500000e+01
8.750000e+01
8.750000e+01
8.750000e+01
8.750000e+01
8.750000e+01
8.750000e+01
8.750000e+01
8.750000e+01
8.750000e+01
8.750000e+01
8.750000e+01
8.750000e+01
8.750000e+01
8.750000e+01
8.750000e+01
8.750000e+01
8.750000e+01
1.000000e+02
1.000000e+02
1.000000e+02
1.000000e+02
1.000000e+02
1.000000e+02
1.000000e+02
1.000000e+02
1.000000e+02
1.000000e+02
1.000000e+02
1.000000e+02
1.000000e+02
1.000000e+02
1.000000e+02
1.000000e+02
1.000000e+02
0.000000e+00
-7.198319e-02
-1.325439e-01
-1.882676e-01
-2.401619e-01
-2.881173e-01
-3.320310e-01
-3.718689e-01
-4.076890e-01
-4.396563e-01
-4.680876e-01
-4.935387e-01
-5.169655e-01
-5.400194e-01
-5.655486e-01
-5.969018e-01
-6.204289e-01
0.000000e+00
-4.298709e-02
-8.929732e-02
-1.320619e-01
-1.714611e-01
-2.076449e-01
-2.406883e-01
-2.706355e-01
-2.975406e-01
-3.214863e-01
-3.425944e-01
-3.610168e-01
-3.768713e-01
-3.899945e-01
-3.992510e-01
-4.012798e-01
-4.085538e-01
0.000000e+00
-2.688291e-02
-5.527798e-02
-8.360626e-02
-1.100498e-01
-1.343287e-01
-1.564232e-01
-1.763583e-01
-1.941389e-01
-2.097355e-01
-2.230640e-01
-2.339382e-01
-2.419706e-01
-2.464544e-01
-2.465789e-01
-2.447877e-01
-2.522066e-01
0.000000e+00
-1.297535e-02
-2.671150e-02
-4.053440e-02
-5.375157e-02
-6.592541e-02
-7.695979e-02
-8.682258e-02
-9.545732e-02
-1.027517e-01
-1.085192e-01
-1.124876e-01
-1.143322e-01
-1.139013e-01
-1.121308e-01
-1.126149e-01
-1.181391e-01
0.000000e+00
-1.195270e-05
-2.717225e-05
-4.234182e-05
-5.039257e-05
-3.556131e-05
3.343986e-05
2.127533e-04
5.944879e-04
1.315845e-03
2.555824e-03
4.494244e-03
7.179693e-03
1.021438e-02
1.231066e-02
1.173571e-02
8.078246e-03
0.000000e+00
1.295696e-02
2.666881e-02
4.046610e-02
5.366663e-02
6.585632e-02
7.698660e-02
8.711190e-02
9.632002e-02
1.047178e-01
1.124149e-01
1.194683e-01
1.257555e-01
1.307972e-01
1.337630e-01
1.339982e-01
1.321418e-01
0.000000e+00
2.687989e-02
5.526878e-02
8.358795e-02
1.100212e-01
1.342931e-01
1.563937e-01
1.763679e-01
1.942571e-01
2.100932e-01
2.238898e-01
2.356134e-01
2.451291e-01
2.521643e-01
2.563871e-01
2.577582e-01
2.573253e-01
0.000000e+00
4.300473e-02
8.933567e-02
1.321230e-01
1.715431e-01
2.077327e-01
2.407375e-01
2.705455e-01
2.971111e-01
3.203577e-01
3.401750e-01
3.564260e-01
3.689806e-01
3.777974e-01
3.830568e-01
3.852997e-01
3.857116e-01
0.000000e+00
7.201268e-02
1.326217e-01
1.884133e-01
2.403946e-01
2.884447e-01
3.324216e-01
3.721973e-01
4.076390e-01
4.385624e-01
4.646994e-01
4.857015e-01
5.012238e-01
5.111442e-01
5.159418e-01
5.171260e-01
5.171032e-01
0.000000e+00
-4.357341e-02
-8.553966e-02
-1.399181e-01
-2.066565e-01
-2.856298e-01
-3.759732e-01
-4.766756e-01
-5.866663e-01
-7.048886e-01
-8.303664e-01
-9.623230e-01
-1.100440e+00
-1.245455e+00
-1.401130e+00
-1.579251e+00
-1.835179e+00
0.000000e+00
-2.682459e-02
-7.060227e-02
-1.256551e-01
-1.934841e-01
-2.735352e-01
-3.649731e-01
-4.667620e-01
-5.778187e-01
-6.970676e-01
-8.235054e-01
-9.563200e-01
-1.095144e+00
-1.240695e+00
-1.396309e+00
-1.573349e+00
-1.790242e+00
0.000000e+00
-2.024153e-02
-6.024693e-02
-1.155029e-01
-1.839733e-01
-2.648483e-01
-3.571267e-01
-4.597626e-01
-5.716801e-01
-6.918190e-01
-8.191954e-01
-9.530249e-01
-1.092975e+00
-1.239645e+00
-1.395393e+00
-1.563145e+00
-1.725493e+00
0.000000e+00
-1.744270e-02
-5.509830e-02
-1.095439e-01
-1.782618e-01
-2.596346e-01
-3.524883e-01
-4.557373e-01
-5.683259e-01
-6.892225e-01
-8.174647e-01
-9.522528e-01
-1.093096e+00
-1.239928e+00
-1.392561e+00
-1.546701e+00
-1.688700e+00
0.000000e+00
-1.663641e-02
-5.354009e-02
-1.076429e-01
-1.763795e-01
-2.579549e-01
-3.510756e-01
-4.546569e-01
-5.676634e-01
-6.890802e-01
-8.179236e-01
-9.532671e-01
-1.094236e+00
-1.239790e+00
-1.387752e+00
-1.533060e+00
-1.666925e+00
0.000000e+00
-1.743235e-02
-5.509094e-02
-1.095570e-01
-1.783262e-01
-2.598043e-01
-3.528513e-01
-4.564247e-01
-5.695111e-01
-6.910905e-01
-8.201156e-01
-9.554655e-01
-1.095831e+00
-1.239426e+00
-1.383491e+00
-1.523816e+00
-1.654824e+00
0.000000e+00
-2.022464e-02
-6.023472e-02
-1.155248e-01
-1.840818e-01
-2.651354e-01
-3.577421e-01
-4.609298e-01
-5.736952e-01
-6.950010e-01
-8.237291e-01
-9.585863e-01
-1.097948e+00
-1.239661e+00
-1.380933e+00
-1.518566e+00
-1.649487e+00
0.000000e+00
-2.680875e-02
-7.059164e-02
-1.256841e-01
-1.936145e-01
-2.738728e-01
-3.656894e-01
-4.681112e-01
-5.801336e-01
-7.007004e-01
-8.286476e-01
-9.625899e-01
-1.100764e+00
-1.240899e+00
-1.380293e+00
-1.516395e+00
-1.648234e+00
0.000000e+00
-4.356687e-02
-8.554057e-02
-1.399631e-01
-2.068075e-01
-2.859905e-01
-3.767062e-01
-4.780130e-01
-5.888959e-01
-7.082801e-01
-8.349737e-01
-9.675606e-01
-1.104265e+00
-1.242868e+00
-1.380837e+00
-1.515998e+00
-1.648253e+00


0.000000e+00
1.114953e-10
2.305881e-10
3.360945e-10
4.252335e-10
4.976455e-10
5.546826e-10
5.984019e-10
6.311099e-10
6.549368e-10
6.719125e-10
6.838246e-10
6.923177e-10
6.989169e-10
7.050534e-10
7.126162e-10
7.216898e-10
0.000000e+00
7.583018e-11
1.787013e-10
2.625235e-10
3.297678e-10
3.829159e-10
4.239355e-10
4.548703e-10
4.775771e-10
4.937388e-10
5.048291e-10
5.120287e-10
5.162838e-10
5.183789e-10
5.205026e-10
5.266889e-10
5.360308e-10
0.000000e+00
5.645923e-11
1.241257e-10
1.806688e-10
2.261146e-10
2.611992e-10
2.876353e-10
3.070507e-10
3.209130e-10
3.303716e-10
3.364261e-10
3.398517e-10
3.413802e-10
3.419689e-10
3.434603e-10
3.483049e-10
3.558666e-10
0.000000e+00
3.021774e-11
6.191394e-11
9.019783e-11
1.133409e-10
1.310331e-10
1.441018e-10
1.534806e-10
1.599572e-10
1.641461e-10
1.665782e-10
1.677407e-10
1.682127e-10
1.687352e-10
1.700416e-10
1.729882e-10
1.776475e-10
0.000000e+00
-2.791359e-14
-7.672498e-14
-1.433221e-13
-2.375410e-13
-3.772303e-13
-5.623332e-13
-8.349294e-13
-1.196035e-12
-1.652970e-12
-2.175567e-12
-2.626485e-12
-2.814922e-12
-2.511217e-12
-1.710337e-12
-2.915015e-13
2.134726e-12
0.000000e+00
-3.028910e-11
-6.205650e-11
-9.044837e-11
-1.137281e-10
-1.316243e-10
-1.449911e-10
-1.547833e-10
-1.618205e-10
-1.667308e-10
-1.700027e-10
-1.720197e-10
-1.730568e-10
-1.734023e-10
-1.733853e-10
-1.730346e-10
-1.719924e-10
0.000000e+00
-5.648688e-11
-1.242108e-10
-1.808316e-10
-2.263807e-10
-2.615883e-10
-2.881569e-10
-3.077276e-10
-3.217708e-10
-3.314566e-10
-3.378382e-10
-3.417660e-10
-3.440185e-10
-3.452281e-10
-3.458785e-10
-3.461027e-10
-3.458091e-10
0.000000e+00
-7.585861e-11
-1.787685e-10
-2.626423e-10
-3.299166e-10
-3.830899e-10
-4.241084e-10
-4.549809e-10
-4.775443e-10
-4.934712e-10
-5.042488e-10
-5.111884e-10
-5.154338e-10
-5.178974e-10
-5.192600e-10
-5.198802e-10
-5.199647e-10
0.000000e+00
-1.115502e-10
-2.306860e-10
-3.362059e-10
-4.253362e-10
-4.977011e-10
-5.545919e-10
-5.980713e-10
-6.303784e-10
-6.536225e-10
-6.698090e-10
-6.806183e-10
-6.875356e-10
-6.916741e-10
-6.938539e-10
-6.946960e-10
-6.948265e-10
0.000000e+00
1.012787e-10
1.820407e-10
2.668093e-10
3.685746e-10
4.883892e-10
6.237961e-10
7.716248e-10
9.288428e-10
1.092924e-09
1.261960e-09
1.434660e-09
1.610462e-09
1.790578e-09
1.979801e-09
2.180628e-09
2.384067e-09
0.000000e+00
5.444853e-11
1.333717e-10
2.238235e-10
3.333291e-10
4.605559e-10
6.025073e-10
7.557647e-10
9.173408e-10
1.084865e-09
1.256505e-09
1.431098e-09
1.608155e-09
1.788211e-09
1.973605e-09
2.168842e-09
2.368963e-09
0.000000e+00
2.685110e-11
9.516027e-11
1.902621e-10
3.060643e-10
4.394310e-10
5.865871e-10
7.440809e-10
9.090454e-10
1.079214e-09
1.252895e-09
1.428989e-09
1.606915e-09
1.786357e-09
1.967541e-09
2.156313e-09
2.351068e-09
0.000000e+00
1.527250e-11
7.712584e-11
1.726656e-10
2.917645e-10
4.284998e-10
5.784846e-10
7.382360e-10
9.049892e-10
1.076573e-09
1.251347e-09
1.428175e-09
1.606294e-09
1.784885e-09
1.963777e-09
2.147409e-09
2.335379e-09
0.000000e+00
1.233503e-11
7.220425e-11
1.673437e-10
2.873657e-10
4.251784e-10
5.760699e-10
7.365484e-10
9.039065e-10
1.075965e-09
1.251101e-09
1.428091e-09
1.606026e-09
1.784094e-09
1.962007e-09
2.142310e-09
2.324216e-09
0.000000e+00
1.529870e-11
7.716162e-11
1.727176e-10
2.918301e-10
4.285976e-10
5.786406e-10
7.384897e-10
9.053945e-10
1.077141e-09
1.252031e-09
1.428760e-09
1.606365e-09
1.784075e-09
1.961598e-09
2.139849e-09
2.317787e-09
0.000000e+00
2.688730e-11
9.521570e-11
1.903564e-10
3.061787e-10
4.396283e-10
5.869068e-10
7.445874e-10
9.098480e-10
1.080327e-09
1.254270e-09
1.430265e-09
1.607283e-09
1.784580e-09
1.961721e-09
2.138755e-09
2.314782e-09
0.000000e+00
5.451143e-11
1.334650e-10
2.239847e-10
3.335182e-10
4.608544e-10
6.029575e-10
7.564459e-10
9.183547e-10
1.086244e-09
1.258199e-09
1.432726e-09
1.608719e-09
1.785324e-09
1.961998e-09
2.138339e-09
2.313778e-09
0.000000e+00
1.013567e-10
1.821755e-10
2.670122e-10
3.688361e-10
4.887386e-10
6.242858e-10
7.723143e-10
9.298006e-10
1.094179e-09
1.263443e-09
1.435988e-09
1.610583e-09
1.786292e-09
1.962394e-09
2.138312e-09
2.313617e-09


2.103288e-01
2.103288e-01
2.103288e-01
2.103288e-01
2.103288e-01
2.103288e-01
2.103288e-01
2.103288e-01
2.103288e-01
2.103288e-01
2.103288e-01
2.103288e-01
2.103288e-01
2.103288e-01
2.103288e-01
2.103288e-01
2.103288e-01
2.103288e-01
2.103288e-01
2.103288e-01
2.103288e-01
2.103288e-01
2.103288e-01
2.103288e-01
2.103288e-01
2.103288e-01
2.103288e-01
2.103288e-01
2.103288e-01
2.103288e-01
2.103288e-01
2.103288e-01
2.103288e-01
2.103288e-01
2.103288e-01
2.103288e-01
2.103288e-01
2.103288e-01
2.103288e-01
2.103288e-01
2.103288e-01
2.103288e-01
2.103288e-01
2.103288e-01
2.103288e-01
2.103288e-01
2.103288e-01
2.103288e-01
2.103288e-01
2.103288e-01
2.103288e-01
2.103288e-01
2.103288e-01
2.103288e-01
2.103288e-01
2.103288e-01
2.103288e-01
2.103288e-01
2.103288e-01
2.103288e-01
2.103288e-01
2.103288e-01
2.103288e-01
2.103288e-01
2.103288e-01
2.103288e-01
2.103288e-01
2.103288e-01
2.103288e-01
2.103288e-01
2.103288e-01
2.103288e-01
2.103288e-01
2.103288e-01
2.103288e-01
2.103288e-01
2.103288e-01
2.103288e-01
2.103288e-01
2.103288e-01
2.103288e-01
2.103288e-01
2.103288e-01
2.103288e-01
2.103288e-01
2.103288e-01
2.103288e-01
2.103288e-01
2.103288e-01
2.103288e-01
2.103288e-01
2.103288e-01
2.103288e-01
2.103288e-01
2.103288e-01
2.103288e-01
2.103288e-01
2.103288e-01
2.103288e-01
2.103288e-01
2.103288e-01
2.103288e-01
2.103288e-01
2.103288e-01
2.103288e-01
2.103288e-01
2.103288e-01
2.103288e-01
2.103288e-01
2.103288e-01
2.103288e-01
2.103288e-01
2.103288e-01
2.103288e-01
2.103288e-01
2.103288e-01
2.103288e-01
2.103288e-01
2.103288e-01
2.103288e-01
2.103288e-01
2.103288e-01
2.103288e-01
2.103288e-01
2.103288e-01
2.103288e-01
2.103288e-01
2.103288e-01


9.883423e-01
9.899955e-01
9.915247e-01
9.927020e-01
9.937947e-01
9.948023e-01
9.957203e-01
9.965379e-01
9.972465e-01
9.978392e-01
9.983105e-01
9.986557e-01
9.988703e-01
9.989469e-01
9.990021e-01
9.955952e-01
9.955897e-01
9.948321e-01
9.953195e-01
9.959557e-01
9.965487e-01
9.970878e-01
9.975757e-01
9.980177e-01
9.984179e-01
9.987804e-01
9.991093e-01
9.994071e-01
9.996669e-01
9.998371e-01
9.994068e-01
9.935749e-01
9.984676e-01
9.980325e-01
9.979150e-01
9.980803e-01
9.982976e-01
9.985082e-01
9.987036e-01
9.988883e-01
9.990672e-01
9.992417e-01
9.994046e-01
9.995307e-01
9.995571e-01
9.993299e-01
9.985059e-01
9.970238e-01
9.996881e-01
9.993708e-01
9.991748e-01
9.991250e-01
9.991449e-01
9.991782e-01
9.992115e-01
9.992440e-01
9.992759e-01
9.993026e-01
9.993101e-01
9.992703e-01
9.991443e-01
9.989182e-01
9.987264e-01
9.986779e-01
9.996893e-01
9.993724e-01
9.991762e-01
9.991247e-01
9.991399e-01
9.991640e-01
9.991807e-01
9.991863e-01
9.991786e-01
9.991541e-01
9.991083e-01
9.990424e-01
9.989796e-01
9.989921e-01
9.991695e-01
9.994768e-01
9.984698e-01
9.980358e-01
9.979182e-01
9.980803e-01
9.982892e-01
9.984821e-01
9.986453e-01
9.987765e-01
9.988748e-01
9.989410e-01
9.989828e-01
9.990237e-01
9.991096e-01
9.992898e-01
9.995603e-01
9.998401e-01
9.955893e-01
9.948318e-01
9.953188e-01
9.959538e-01
9.965441e-01
9.970772e-01
9.975538e-01
9.979758e-01
9.983435e-01
9.986578e-01
9.989239e-01
9.991562e-01
9.993800e-01
9.996146e-01
9.998340e-01
9.999722e-01
9.883344e-01
9.899830e-01
9.915095e-01
9.926849e-01
9.937793e-01
9.947967e-01
9.957393e-01
9.966047e-01
9.973933e-01
9.981034e-01
9.987267e-01
9.992438e-01
9.996284e-01
9.998657e-01
9.999737e-01
9.999994e-01
1 2 19 18
2 3 20 19
3 4 21 20
4 5 22 21
5 6 23 22
6 7 24 23
7 8 25 24
8 9 26 25
9 10 27 26
10 11 28 27
11 12 29 28
12 13 30 29
13 14 31 30
14 15 32 31
15 16 33 32
16 17 34 33
18 19 36 35
19 20 37 36
20 21 38 37
21 22 39 38
22 23 40 39
23 24 41 40
24 25 42 41
25 26 43 42
26 27 44 43
27 28 45 44
28 29 46 45
29 30 47 46
30 31 48 47
31 32 49 48
32 33 50 49
33 34 51 50
35 36 53 52
36 37 54 53
37 38 55 54
38 39 56 55
39 40 57 56
40 41 58 57
41 42 59 58
42 43 60 59
43 44 61 60
44 45 62 61
45 46 63 62
46 47 64 63
47 48 65 64
48 49 66 65
49 50 67 66
50 51 68 67
52 53 70 69
53 54 71 70
54 55 72 71
55 56 73 72
56 57 74 73
57 58 75 74
58 59 76 75
59 60 77 76
60 61 78 77
61 62 79 78
62 63 80 79
63 64 81 80
64 65 82 81
65 66 83 82
66 67 84 83
67 68 85 84
69 70 87 86
70 71 88 87
71 72 89 88
72 73 90 89
73 74 91 90
74 75 92 91
75 76 93 92
76 77 94 93
77 78 95 94
78 79 96 95
79 80 97 96
80 81 98 97
81 82 99 98
82 83 100 99
83 84 101 100
84 85 102 101
86 87 104 103
87 88 105 104
88 89 106 105
89 90 107 106
90 91 108 107
91 92 109 108
92 93 110 109
93 94 111 110
94 95 112 111
95 96 113 112
96 97 114 113
97 98 115 114
98 99 116 115
99 100 117 116
100 101 118 117
101 102 119 118
103 104 121 120
104 105 122 121
105 106 123 122
106 107 124 123
107 108 125 124
108 109 126 125
109 110 127 126
110 111 128 127
111 112 129 128
112 113 130 129
113 114 131 130
114 115 132 131
115 116 133 132
116 117 134 133
117 118 135 134
118 119 136 135
120 121 138 137
121 122 139 138
122 123 140 139
123 124 141 140
124 125 142 141
125 126 143 142
126 127 144 143
127 128 145 144
128 129 146 145
129 130 147 146
130 131 148 147
131 132 149 148
132 133 150 149
133 134 151 150
134 135 152 151
135 136 153 152
