TITLE = "Solution"
VARIABLES = x, y, u, v, psiu, psiv, t, stress
ZONE T="structure" N=153 E=128 F=FEBLOCK ET=QUADRILATERAL VARLOCATION=([7,8]=cellcentered)
0.000000e+00
1.250000e+01
2.500000e+01
3.750000e+01
5.000000e+01
6.250000e+01
7.500000e+01
8.750000e+01
1.000000e+02
1.125000e+02
1.250000e+02
1.375000e+02
1.500000e+02
1.625000e+02
1.750000e+02
1.875000e+02
2.000000e+02
0.000000e+00
1.250000e+01
2.500000e+01
3.750000e+01
5.000000e+01
6.250000e+01
7.500000e+01
8.750000e+01
1.000000e+02
1.125000e+02
1.250000e+02
1.375000e+02
1.500000e+02
1.625000e+02
1.750000e+02
1.875000e+02
2.000000e+02
0.000000e+00
1.250000e+01
2.500000e+01
3.750000e+01
5.000000e+01
6.250000e+01
7.500000e+01
8.750000e+01
1.000000e+02
1.125000e+02
1.250000e+02
1.375000e+02
1.500000e+02
1.625000e+02
1.750000e+02
1.875000e+02
2.000000e+02
0.000000e+00
1.250000e+01
2.500000e+01
3.750000e+01
5.000000e+01
6.250000e+01
7.500000e+01
8.750000e+01
1.000000e+02
1.125000e+02
1.250000e+02
1.375000e+02
1.500000e+02
1.625000e+02
1.750000e+02
1.875000e+02
2.000000e+02
0.000000e+00
1.250000e+01
2.500000e+01
3.750000e+01
5.000000e+01
6.250000e+01
7.500000e+01
8.750000e+01
1.000000e+02
1.125000e+02
1.250000e+02
1.375000e+02
1.500000e+02
1.625000e+02
1.750000e+02
1.875000e+02
2.000000e+02
0.000000e+00
1.250000e+01
2.500000e+01
3.750000e+01
5.000000e+01
6.250000e+01
7.500000e+01
8.750000e+01
1.000000e+02
1.125000e+02
1.250000e+02
1.375000e+02
1.500000e+02
1.625000e+02
1.750000e+02
1.875000e+02
2.000000e+02
0.000000e+00
1.250000e+01
2.500000e+01
3.750000e+01
5.000000e+01
6.250000e+01
7.500000e+01
8.750000e+01
1.000000e+02
1.125000e+02
1.250000e+02
1.375000e+02
1.500000e+02
1.625000e+02
1.750000e+02
1.875000e+02
2.000000e+02
0.000000e+00
1.250000e+01
2.500000e+01
3.750000e+01
5.000000e+01
6.250000e+01
7.500000e+01
8.750000e+01
1.000000e+02
1.125000e+02
1.250000e+02
1.375000e+02
1.500000e+02
1.625000e+02
1.750000e+02
1.875000e+02
2.000000e+02
0.000000e+00
1.250000e+01
2.500000e+01
3.750000e+01
5.000000e+01
6.250000e+01
7.500000e+01
8.750000e+01
1.000000e+02
1.125000e+02
1.250000e+02
1.375000e+02
1.500000e+02
1.625000e+02
1.750000e+02
1.875000e+02
2.000000e+02
0.000000e+00
0.000000e+00
0.000000e+00
0.000000e+00
0.000000e+00
0.000000e+00
0.000000e+00
0.000000e+00
0.000000e+00
0.000000e+00
0.000000e+00
0.000000e+00
0.000000e+00
0.000000e+00
0.000000e+00
0.000000e+00
0.000000e+00
1.250000e+01
1.250000e+01
1.250000e+01
1.250000e+01
1.250000e+01
1.250000e+01
1.250000e+01
1.250000e+01
1.250000e+01
1.250000e+01
1.250000e+01
1.250000e+01
1.250000e+01
1.250000e+01
1.250000e+01
1.250000e+01
1.250000e+01
2.500000e+01
2.500000e+01
2.500000e+01
2.500000e+01
2.500000e+01
2.500000e+01
2.500000e+01
2.500000e+01
2.500000e+01
2.500000e+01
2.500000e+01
2.500000e+01
2.500000e+01
2.500000e+01
2.500000e+01
2.500000e+01
2.500000e+01
3.750000e+01
3.750000e+01
3.750000e+01
3.750000e+01
3.750000e+01
3.750000e+01
3.750000e+01
3.750000e+01
3.750000e+01
3.750000e+01
3.750000e+01
3.750000e+01
3.750000e+01
3.750000e+01
3.750000e+01
3.750000e+01
3.750000e+01
5.000000e+01
5.000000e+01
5.000000e+01
5.000000e+01
5.000000e+01
5.000000e+01
5.000000e+01
5.000000e+01
5.000000e+01
5.000000e+01
5.000000e+01
5.000000e+01
5.000000e+01
5.000000e+01
5.000000e+01
5.000000e+01
5.000000e+01
6.250000e+01
6.250000e+01
6.250000e+01
6.250000e+01
6.250000e+01
6.250000e+01
6.250000e+01
6.250000e+01
6.250000e+01
6.250000e+01
6.250000e+01
6.250000e+01
6.250000e+01
6.250000e+01
6.250000e+01
6.250000e+01
6.250000e+01
7.500000e+01
7.500000e+01
7.500000e+01
7.500000e+01
7.500000e+01
7.500000e+01
7.500000e+01
7.500000e+01
7.500000e+01
7.500000e+01
7.500000e+01
7.500000e+01
7.500000e+01
7.500000e+01
7.500000e+01
7.500000e+01
7.500000e+01
8.750000e+01
8.750000e+01
8.750000e+01
8.750000e+01
8.750000e+01
8.750000e+01
8.750000e+01
8.750000e+01
8.750000e+01
8.750000e+01
8.750000e+01
8.750000e+01
8.750000e+01
8.750000e+01
8.750000e+01
8.750000e+01
8.750000e+01
1.000000e+02
1.000000e+02
1.000000e+02
1.000000e+02
1.000000e+02
1.000000e+02
1.000000e+02
1.000000e+02
1.000000e+02
1.000000e+02
1.000000e+02
1.000000e+02
1.000000e+02
1.000000e+02
1.000000e+02
1.000000e+02
1.000000e+02
0.000000e+00
-9.937567e-01
-1.679691e+00
-2.431029e+00
-3.115141e+00
-3.752766e+00
-4.456732e+00
-5.087857e+00
-5.763280e+00
-6.405147e+00
-7.056707e+00
-7.722901e+00
-8.376760e+00
-9.148243e+00
-1.007747e+01
-1.083322e+01
-1.128339e+01
0.000000e+00
-4.450085e-01
-9.074832e-01
-1.419079e+00
-1.930246e+00
-2.411906e+00
-2.925419e+00
-3.423419e+00
-3.919954e+00
-4.421652e+00
-4.915026e+00
-5.417219e+00
-5.902110e+00
-6.422583e+00
-6.897314e+00
-7.023119e+00
-7.201955e+00
0.000000e+00
-1.463625e-01
-3.498306e-01
-6.401788e-01
-9.781643e-01
-1.303692e+00
-1.657241e+00
-2.013311e+00
-2.357727e+00
-2.718836e+00
-3.058093e+00
-3.392041e+00
-3.687421e+00
-3.927269e+00
-4.035913e+00
-4.033698e+00
-4.182251e+00
0.000000e+00
-7.890736e-02
-1.622869e-01
-3.095013e-01
-4.544970e-01
-6.285977e-01
-8.128818e-01
-9.792907e-01
-1.165924e+00
-1.328031e+00
-1.489155e+00
-1.627979e+00
-1.721116e+00
-1.729081e+00
-1.655795e+00
-1.635388e+00
-1.752757e+00
0.000000e+00
-3.228601e-03
-7.040505e-03
-1.100201e-02
-1.517380e-02
-1.826263e-02
-1.881694e-02
-1.571285e-02
-6.755372e-03
1.005048e-02
3.446919e-02
7.896824e-02
1.611244e-01
2.759251e-01
3.954765e-01
4.359234e-01
3.377235e-01
0.000000e+00
7.328777e-02
1.508813e-01
2.908701e-01
4.292970e-01
5.970581e-01
7.759484e-01
9.469759e-01
1.152257e+00
1.347037e+00
1.563268e+00
1.783742e+00
2.009705e+00
2.216061e+00
2.351702e+00
2.384707e+00
2.319208e+00
0.000000e+00
1.441255e-01
3.447183e-01
6.313394e-01
9.661574e-01
1.291066e+00
1.643347e+00
2.000015e+00
2.362391e+00
2.766175e+00
3.144604e+00
3.511722e+00
3.845128e+00
4.119767e+00
4.295819e+00
4.350552e+00
4.328025e+00
0.000000e+00
4.457832e-01
9.082209e-01
1.419615e+00
1.930110e+00
2.410085e+00
2.920692e+00
3.415518e+00
3.903969e+00
4.396982e+00
4.875311e+00
5.350559e+00
5.779813e+00
6.126973e+00
6.343580e+00
6.439131e+00
6.456756e+00
0.000000e+00
9.960045e-01
1.684548e+00
2.439686e+00
3.126270e+00
3.765066e+00
4.468759e+00
5.097218e+00
5.745754e+00
6.331198e+00
6.905470e+00
7.506193e+00
8.037685e+00
8.448531e+00
8.650024e+00
8.702980e+00
8.703537e+00
0.000000e+00
-6.180425e-01
-1.360991e+00
-2.361324e+00
-3.534969e+00
-4.878711e+00
-6.409025e+00
-8.094933e+00
-9.955026e+00
-1.197792e+01
-1.416276e+01
-1.651265e+01
-1.902621e+01
-2.175738e+01
-2.472106e+01
-2.808086e+01
-3.309667e+01
0.000000e+00
-4.148071e-01
-1.192397e+00
-2.175484e+00
-3.365617e+00
-4.704187e+00
-6.231922e+00
-7.925872e+00
-9.779091e+00
-1.181014e+01
-1.399049e+01
-1.634518e+01
-1.885298e+01
-2.156487e+01
-2.458117e+01
-2.799694e+01
-3.204748e+01
0.000000e+00
-3.890375e-01
-1.090810e+00
-2.072075e+00
-3.246030e+00
-4.578703e+00
-6.111577e+00
-7.796510e+00
-9.659964e+00
-1.168847e+01
-1.387996e+01
-1.624581e+01
-1.876407e+01
-2.150268e+01
-2.457139e+01
-2.784477e+01
-3.087711e+01
0.000000e+00
-4.479350e-01
-1.087115e+00
-2.045924e+00
-3.182997e+00
-4.509673e+00
-6.048809e+00
-7.720620e+00
-9.602224e+00
-1.163035e+01
-1.384295e+01
-1.622864e+01
-1.877273e+01
-2.151281e+01
-2.450214e+01
-2.753483e+01
-3.015950e+01
0.000000e+00
-4.551846e-01
-1.109249e+00
-2.030040e+00
-3.169424e+00
-4.498729e+00
-6.027923e+00
-7.718184e+00
-9.593087e+00
-1.164285e+01
-1.386884e+01
-1.626263e+01
-1.881416e+01
-2.151391e+01
-2.435144e+01
-2.716864e+01
-2.955541e+01
0.000000e+00
-4.466715e-01
-1.086704e+00
-2.047897e+00
-3.189974e+00
-4.526520e+00
-6.075891e+00
-7.757780e+00
-9.655266e+00
-1.170895e+01
-1.393823e+01
-1.631478e+01
-1.884569e+01
-2.150376e+01
-2.421605e+01
-2.684924e+01
-2.911800e+01
0.000000e+00
-3.873434e-01
-1.090624e+00
-2.076483e+00
-3.259410e+00
-4.607310e+00
-6.157456e+00
-7.867049e+00
-9.761043e+00
-1.182431e+01
-1.402488e+01
-1.638185e+01
-1.888541e+01
-2.150380e+01
-2.413328e+01
-2.664219e+01
-2.888513e+01
0.000000e+00
-4.132374e-01
-1.192271e+00
-2.180615e+00
-3.381046e+00
-4.734735e+00
-6.283447e+00
-8.008192e+00
-9.899617e+00
-1.196105e+01
-1.414055e+01
-1.648046e+01
-1.896259e+01
-2.154546e+01
-2.411272e+01
-2.655450e+01
-2.882481e+01
0.000000e+00
-6.170288e-01
-1.361462e+00
-2.367167e+00
-3.550816e+00
-4.909313e+00
-6.461257e+00
-8.176763e+00
-1.007160e+01
-1.211698e+01
-1.429584e+01
-1.662892e+01
-1.908622e+01
-2.162730e+01
-2.413742e+01
-2.653954e+01
-2.882367e+01


0.000000e+00
1.541712e-05
2.511535e-05
3.749443e-05
5.358222e-05
6.721018e-05
8.303754e-05
9.716458e-05
1.116718e-04
1.257125e-04
1.408293e-04
1.551262e-04
1.718347e-04
1.874869e-04
1.972611e-04
2.029122e-04
2.098311e-04
0.000000e+00
1.146400e-05
1.974847e-05
2.838760e-05
4.101528e-05
5.169528e-05
6.182314e-05
7.297142e-05
8.315173e-05
9.454517e-05
1.052352e-04
1.154999e-04
1.264915e-04
1.357264e-04
1.370839e-04
1.408119e-04
1.466396e-04
0.000000e+00
9.540244e-06
1.502089e-05
2.017600e-05
2.887617e-05
3.551532e-05
4.129583e-05
4.867041e-05
5.466764e-05
6.198627e-05
6.842892e-05
7.396411e-05
7.870641e-05
8.079436e-05
7.996544e-05
8.234786e-05
8.659425e-05
0.000000e+00
5.178607e-06
6.848031e-06
9.608297e-06
1.307551e-05
1.361668e-05
1.596919e-05
1.761037e-05
2.105821e-05
2.458565e-05
2.817324e-05
2.909510e-05
2.846134e-05
2.697354e-05
2.679006e-05
2.986596e-05
3.553754e-05
0.000000e+00
-1.705269e-07
-4.248673e-07
-8.363361e-07
-1.681725e-06
-2.799966e-06
-4.843257e-06
-6.982215e-06
-7.509980e-06
-7.571863e-06
-8.646686e-06
-1.189484e-05
-1.464996e-05
-1.598511e-05
-1.564680e-05
-1.346197e-05
-9.478009e-06
0.000000e+00
-5.434903e-06
-7.421458e-06
-1.070900e-05
-1.463211e-05
-1.611866e-05
-2.053249e-05
-2.448441e-05
-3.017403e-05
-3.324801e-05
-3.730502e-05
-4.215609e-05
-4.714251e-05
-4.878360e-05
-4.932952e-05
-4.982642e-05
-4.813238e-05
0.000000e+00
-9.536494e-06
-1.508360e-05
-2.034019e-05
-2.897417e-05
-3.531690e-05
-4.081201e-05
-4.887769e-05
-5.604511e-05
-6.348571e-05
-6.872031e-05
-7.371559e-05
-7.789045e-05
-8.129205e-05
-8.320825e-05
-8.512277e-05
-8.587239e-05
0.000000e+00
-1.139305e-05
-1.966072e-05
-2.828496e-05
-4.079449e-05
-5.163167e-05
-6.158464e-05
-7.281221e-05
-8.320848e-05
-9.454851e-05
-1.052048e-04
-1.133642e-04
-1.182011e-04
-1.231748e-04
-1.267134e-04
-1.279853e-04
-1.280819e-04
0.000000e+00
-1.542766e-05
-2.505626e-05
-3.734458e-05
-5.337614e-05
-6.703316e-05
-8.271876e-05
-9.588369e-05
-1.097909e-04
-1.234772e-04
-1.411320e-04
-1.567350e-04
-1.662878e-04
-1.714433e-04
-1.736633e-04
-1.738683e-04
-1.736822e-04
0.000000e+00
1.260579e-05
2.001098e-05
3.246019e-05
4.879478e-05
6.692132e-05
9.133373e-05
1.201667e-04
1.532512e-04
1.899722e-04
2.300240e-04
2.740171e-04
3.241009e-04
3.781148e-04
4.395290e-04
5.102836e-04
5.835300e-04
0.000000e+00
7.678207e-06
1.612166e-05
2.635971e-05
4.232076e-05
6.097365e-05
8.488644e-05
1.142696e-04
1.470563e-04
1.837945e-04
2.237312e-04
2.677898e-04
3.175036e-04
3.732811e-04
4.343560e-04
5.029095e-04
5.731630e-04
0.000000e+00
4.326201e-06
1.231277e-05
2.172633e-05
3.651784e-05
5.572909e-05
7.951352e-05
1.097669e-04
1.428810e-04
1.792975e-04
2.191071e-04
2.633059e-04
3.137172e-04
3.709609e-04
4.302688e-04
4.954328e-04
5.634468e-04
0.000000e+00
3.200268e-06
1.060659e-05
2.007676e-05
3.450665e-05
5.209671e-05
7.655301e-05
1.088418e-04
1.433388e-04
1.777975e-04
2.169984e-04
2.617680e-04
3.130199e-04
3.695674e-04
4.275555e-04
4.875963e-04
5.492645e-04
0.000000e+00
2.813248e-06
1.027317e-05
2.002929e-05
3.420341e-05
5.079728e-05
7.547632e-05
1.098368e-04
1.445658e-04
1.775381e-04
2.152262e-04
2.618131e-04
3.133659e-04
3.696595e-04
4.264030e-04
4.812077e-04
5.331781e-04
0.000000e+00
3.339491e-06
1.079191e-05
2.044345e-05
3.483068e-05
5.190261e-05
7.726167e-05
1.106963e-04
1.451116e-04
1.773391e-04
2.156068e-04
2.634533e-04
3.157652e-04
3.699019e-04
4.262828e-04
4.788892e-04
5.222369e-04
0.000000e+00
4.475184e-06
1.253551e-05
2.206246e-05
3.678530e-05
5.579337e-05
8.044379e-05
1.116491e-04
1.444556e-04
1.784623e-04
2.179843e-04
2.667230e-04
3.192504e-04
3.719024e-04
4.253319e-04
4.761741e-04
5.188346e-04
0.000000e+00
7.798463e-06
1.635222e-05
2.665204e-05
4.256658e-05
6.136337e-05
8.581949e-05
1.158368e-04
1.478903e-04
1.828351e-04
2.226795e-04
2.703862e-04
3.222576e-04
3.740684e-04
4.254259e-04
4.741726e-04
5.193193e-04
0.000000e+00
1.271442e-05
2.024144e-05
3.274242e-05
4.911741e-05
6.743594e-05
9.233138e-05
1.215253e-04
1.540208e-04
1.891616e-04
2.298185e-04
2.746531e-04
3.244411e-04
3.752790e-04
4.257132e-04
4.736885e-04
5.195896e-04


5.582699e+00
6.074040e+00
6.806108e+00
5.836671e+00
5.359053e+00
5.872623e+00
5.938654e+00
6.144928e+00
5.841914e+00
5.868112e+00
6.243450e+00
7.120753e+00
8.819197e+00
9.796660e+00
9.115802e+00
7.966677e+00
8.031116e+00
8.413377e+00
8.619349e+00
8.319232e+00
8.030639e+00
8.211247e+00
8.405756e+00
8.305161e+00
8.314054e+00
8.235425e+00
8.380326e+00
8.808727e+00
9.480950e+00
9.808601e+00
8.362909e+00
6.445253e+00
9.818700e+00
9.803734e+00
9.975622e+00
9.813519e+00
9.810904e+00
9.895887e+00
9.803289e+00
9.900066e+00
9.818075e+00
9.853751e+00
9.867699e+00
9.849495e+00
9.867749e+00
9.367636e+00
7.959443e+00
6.154922e+00
9.987967e+00
9.987745e+00
9.987634e+00
9.986427e+00
9.984763e+00
9.981558e+00
9.978055e+00
9.978161e+00
9.980098e+00
9.979339e+00
9.969696e+00
9.454980e+00
8.803671e+00
8.345520e+00
7.943802e+00
7.851254e+00
9.987906e+00
9.987607e+00
9.987377e+00
9.985773e+00
9.983034e+00
9.977223e+00
9.914621e+00
9.950336e+00
9.967116e+00
9.886417e+00
9.327621e+00
8.528240e+00
7.640976e+00
7.688931e+00
8.598143e+00
9.108654e+00
9.818950e+00
9.803155e+00
9.974384e+00
9.810156e+00
9.801384e+00
9.652785e+00
9.355665e+00
9.514411e+00
9.358506e+00
8.801914e+00
8.266977e+00
7.825549e+00
8.082823e+00
8.672489e+00
9.402840e+00
9.958719e+00
8.034012e+00
8.414042e+00
8.617018e+00
8.312477e+00
7.951888e+00
7.810802e+00
7.652095e+00
7.645774e+00
7.669328e+00
7.241960e+00
7.426674e+00
8.427072e+00
9.211267e+00
9.786073e+00
9.975756e+00
9.985177e+00
5.590744e+00
6.076481e+00
6.804406e+00
5.828643e+00
5.335531e+00
5.550016e+00
5.438338e+00
5.866161e+00
5.878968e+00
6.316906e+00
7.781936e+00
9.075235e+00
9.943238e+00
9.981002e+00
9.986730e+00
9.988748e+00


-8.113627e-01
-1.768860e-01
-3.934487e-01
-2.537787e-01
-1.043247e-01
-2.983708e-01
-1.269619e-01
-2.098687e-01
-1.594109e-01
-1.626895e-01
-2.100337e-01
-1.516741e-01
-4.663887e-01
-6.779938e-01
3.175665e-01
-8.468820e-01
6.119162e-01
4.777120e-01
2.972846e-01
2.264088e-01
2.872224e-01
1.686946e-01
1.769248e-01
1.709762e-01
1.131655e-01
1.464883e-01
1.309384e-01
2.426367e-01
3.019337e-01
5.126817e-01
6.961314e-01
-9.382432e-01
7.244893e-01
4.713559e-01
6.011003e-02
-1.579259e-02
-3.902155e-02
-1.784659e-01
-7.936446e-02
-1.332640e-01
-7.159972e-02
-1.655982e-02
3.687001e-02
1.889939e-01
2.804619e-01
1.498199e-01
-2.308496e-02
-1.704113e-01
7.296004e-01
5.563952e-01
1.949097e-01
6.608971e-02
-2.358987e-02
-9.888571e-02
-1.732604e-02
-5.797680e-02
1.652933e-02
2.136049e-02
6.150114e-02
1.177733e-01
5.767696e-02
-2.647888e-01
-3.821763e-01
-7.585496e-02
7.324538e-01
5.603187e-01
2.026091e-01
7.336447e-02
-2.073147e-02
-1.058279e-01
-3.773431e-02
-9.759010e-02
-4.663725e-02
-3.631389e-02
2.011107e-02
1.439729e-02
-3.710505e-02
-1.329302e-01
-1.034896e-01
3.127395e-01
7.311367e-01
4.815741e-01
7.791080e-02
1.068426e-03
-2.871758e-02
-1.609796e-01
-8.658787e-02
-1.950533e-01
-1.786497e-01
-1.037365e-01
-8.024775e-02
-9.916977e-02
-1.050238e-01
4.776334e-02
3.339568e-01
7.257163e-01
6.157865e-01
4.836942e-01
3.048179e-01
2.319193e-01
2.853284e-01
1.623890e-01
1.519358e-01
9.567213e-02
-5.337619e-02
-3.899294e-02
-9.826677e-02
-6.156401e-02
6.237285e-02
3.684812e-01
7.132383e-01
9.480024e-01
-8.171105e-01
-1.818413e-01
-4.011972e-01
-2.579141e-01
-1.041497e-01
-2.941532e-01
-1.203843e-01
-1.525765e-01
-5.729477e-02
-2.334450e-02
-9.271764e-02
9.472526e-02
3.908205e-01
7.723864e-01
9.528191e-01
9.987343e-01
1 2 19 18
2 3 20 19
3 4 21 20
4 5 22 21
5 6 23 22
6 7 24 23
7 8 25 24
8 9 26 25
9 10 27 26
10 11 28 27
11 12 29 28
12 13 30 29
13 14 31 30
14 15 32 31
15 16 33 32
16 17 34 33
18 19 36 35
19 20 37 36
20 21 38 37
21 22 39 38
22 23 40 39
23 24 41 40
24 25 42 41
25 26 43 42
26 27 44 43
27 28 45 44
28 29 46 45
29 30 47 46
30 31 48 47
31 32 49 48
32 33 50 49
33 34 51 50
35 36 53 52
36 37 54 53
37 38 55 54
38 39 56 55
39 40 57 56
40 41 58 57
41 42 59 58
42 43 60 59
43 44 61 60
44 45 62 61
45 46 63 62
46 47 64 63
47 48 65 64
48 49 66 65
49 50 67 66
50 51 68 67
52 53 70 69
53 54 71 70
54 55 72 71
55 56 73 72
56 57 74 73
57 58 75 74
58 59 76 75
59 60 77 76
60 61 78 77
61 62 79 78
62 63 80 79
63 64 81 80
64 65 82 81
65 66 83 82
66 67 84 83
67 68 85 84
69 70 87 86
70 71 88 87
71 72 89 88
72 73 90 89
73 74 91 90
74 75 92 91
75 76 93 92
76 77 94 93
77 78 95 94
78 79 96 95
79 80 97 96
80 81 98 97
81 82 99 98
82 83 100 99
83 84 101 100
84 85 102 101
86 87 104 103
87 88 105 104
88 89 106 105
89 90 107 106
90 91 108 107
91 92 109 108
92 93 110 109
93 94 111 110
94 95 112 111
95 96 113 112
96 97 114 113
97 98 115 114
98 99 116 115
99 100 117 116
100 101 118 117
101 102 119 118
103 104 121 120
104 105 122 121
105 106 123 122
106 107 124 123
107 108 125 124
108 109 126 125
109 110 127 126
110 111 128 127
111 112 129 128
112 113 130 129
113 114 131 130
114 115 132 131
115 116 133 132
116 117 134 133
117 118 135 134
118 119 136 135
120 121 138 137
121 122 139 138
122 123 140 139
123 124 141 140
124 125 142 141
125 126 143 142
126 127 144 143
127 128 145 144
128 129 146 145
129 130 147 146
130 131 148 147
131 132 149 148
132 133 150 149
133 134 151 150
134 135 152 151
135 136 153 152
