TITLE = "Solution"
VARIABLES = x, y, u, v, psiu, psiv, t, stress
ZONE T="structure" N=153 E=128 F=FEBLOCK ET=QUADRILATERAL VARLOCATION=([7,8]=cellcentered)
0.000000e+00
1.250000e+01
2.500000e+01
3.750000e+01
5.000000e+01
6.250000e+01
7.500000e+01
8.750000e+01
1.000000e+02
1.125000e+02
1.250000e+02
1.375000e+02
1.500000e+02
1.625000e+02
1.750000e+02
1.875000e+02
2.000000e+02
0.000000e+00
1.250000e+01
2.500000e+01
3.750000e+01
5.000000e+01
6.250000e+01
7.500000e+01
8.750000e+01
1.000000e+02
1.125000e+02
1.250000e+02
1.375000e+02
1.500000e+02
1.625000e+02
1.750000e+02
1.875000e+02
2.000000e+02
0.000000e+00
1.250000e+01
2.500000e+01
3.750000e+01
5.000000e+01
6.250000e+01
7.500000e+01
8.750000e+01
1.000000e+02
1.125000e+02
1.250000e+02
1.375000e+02
1.500000e+02
1.625000e+02
1.750000e+02
1.875000e+02
2.000000e+02
0.000000e+00
1.250000e+01
2.500000e+01
3.750000e+01
5.000000e+01
6.250000e+01
7.500000e+01
8.750000e+01
1.000000e+02
1.125000e+02
1.250000e+02
1.375000e+02
1.500000e+02
1.625000e+02
1.750000e+02
1.875000e+02
2.000000e+02
0.000000e+00
1.250000e+01
2.500000e+01
3.750000e+01
5.000000e+01
6.250000e+01
7.500000e+01
8.750000e+01
1.000000e+02
1.125000e+02
1.250000e+02
1.375000e+02
1.500000e+02
1.625000e+02
1.750000e+02
1.875000e+02
2.000000e+02
0.000000e+00
1.250000e+01
2.500000e+01
3.750000e+01
5.000000e+01
6.250000e+01
7.500000e+01
8.750000e+01
1.000000e+02
1.125000e+02
1.250000e+02
1.375000e+02
1.500000e+02
1.625000e+02
1.750000e+02
1.875000e+02
2.000000e+02
0.000000e+00
1.250000e+01
2.500000e+01
3.750000e+01
5.000000e+01
6.250000e+01
7.500000e+01
8.750000e+01
1.000000e+02
1.125000e+02
1.250000e+02
1.375000e+02
1.500000e+02
1.625000e+02
1.750000e+02
1.875000e+02
2.000000e+02
0.000000e+00
1.250000e+01
2.500000e+01
3.750000e+01
5.000000e+01
6.250000e+01
7.500000e+01
8.750000e+01
1.000000e+02
1.125000e+02
1.250000e+02
1.375000e+02
1.500000e+02
1.625000e+02
1.750000e+02
1.875000e+02
2.000000e+02
0.000000e+00
1.250000e+01
2.500000e+01
3.750000e+01
5.000000e+01
6.250000e+01
7.500000e+01
8.750000e+01
1.000000e+02
1.125000e+02
1.250000e+02
1.375000e+02
1.500000e+02
1.625000e+02
1.750000e+02
1.875000e+02
2.000000e+02
0.000000e+00
0.000000e+00
0.000000e+00
0.000000e+00
0.000000e+00
0.000000e+00
0.000000e+00
0.000000e+00
0.000000e+00
0.000000e+00
0.000000e+00
0.000000e+00
0.000000e+00
0.000000e+00
0.000000e+00
0.000000e+00
0.000000e+00
1.250000e+01
1.250000e+01
1.250000e+01
1.250000e+01
1.250000e+01
1.250000e+01
1.250000e+01
1.250000e+01
1.250000e+01
1.250000e+01
1.250000e+01
1.250000e+01
1.250000e+01
1.250000e+01
1.250000e+01
1.250000e+01
1.250000e+01
2.500000e+01
2.500000e+01
2.500000e+01
2.500000e+01
2.500000e+01
2.500000e+01
2.500000e+01
2.500000e+01
2.500000e+01
2.500000e+01
2.500000e+01
2.500000e+01
2.500000e+01
2.500000e+01
2.500000e+01
2.500000e+01
2.500000e+01
3.750000e+01
3.750000e+01
3.750000e+01
3.750000e+01
3.750000e+01
3.750000e+01
3.750000e+01
3.750000e+01
3.750000e+01
3.750000e+01
3.750000e+01
3.750000e+01
3.750000e+01
3.750000e+01
3.750000e+01
3.750000e+01
3.750000e+01
5.000000e+01
5.000000e+01
5.000000e+01
5.000000e+01
5.000000e+01
5.000000e+01
5.000000e+01
5.000000e+01
5.000000e+01
5.000000e+01
5.000000e+01
5.000000e+01
5.000000e+01
5.000000e+01
5.000000e+01
5.000000e+01
5.000000e+01
6.250000e+01
6.250000e+01
6.250000e+01
6.250000e+01
6.250000e+01
6.250000e+01
6.250000e+01
6.250000e+01
6.250000e+01
6.250000e+01
6.250000e+01
6.250000e+01
6.250000e+01
6.250000e+01
6.250000e+01
6.250000e+01
6.250000e+01
7.500000e+01
7.500000e+01
7.500000e+01
7.500000e+01
7.500000e+01
7.500000e+01
7.500000e+01
7.500000e+01
7.500000e+01
7.500000e+01
7.500000e+01
7.500000e+01
7.500000e+01
7.500000e+01
7.500000e+01
7.500000e+01
7.500000e+01
8.750000e+01
8.750000e+01
8.750000e+01
8.750000e+01
8.750000e+01
8.750000e+01
8.750000e+01
8.750000e+01
8.750000e+01
8.750000e+01
8.750000e+01
8.750000e+01
8.750000e+01
8.750000e+01
8.750000e+01
8.750000e+01
8.750000e+01
1.000000e+02
1.000000e+02
1.000000e+02
1.000000e+02
1.000000e+02
1.000000e+02
1.000000e+02
1.000000e+02
1.000000e+02
1.000000e+02
1.000000e+02
1.000000e+02
1.000000e+02
1.000000e+02
1.000000e+02
1.000000e+02
1.000000e+02
0.000000e+00
-8.622132e-02
-1.587608e-01
-2.255065e-01
-2.876654e-01
-3.451064e-01
-3.977062e-01
-4.454240e-01
-4.883293e-01
-5.266196e-01
-5.606746e-01
-5.911599e-01
-6.192205e-01
-6.468345e-01
-6.774134e-01
-7.149682e-01
-7.431490e-01
0.000000e+00
-5.148985e-02
-1.069601e-01
-1.581834e-01
-2.053758e-01
-2.487167e-01
-2.882960e-01
-3.241668e-01
-3.563936e-01
-3.850759e-01
-4.103591e-01
-4.324255e-01
-4.514159e-01
-4.671348e-01
-4.782223e-01
-4.806524e-01
-4.893653e-01
0.000000e+00
-3.220028e-02
-6.621184e-02
-1.001434e-01
-1.318174e-01
-1.608986e-01
-1.873634e-01
-2.112416e-01
-2.325393e-01
-2.512208e-01
-2.671857e-01
-2.802109e-01
-2.898321e-01
-2.952028e-01
-2.953519e-01
-2.932064e-01
-3.020927e-01
0.000000e+00
-1.554185e-02
-3.199498e-02
-4.855201e-02
-6.438352e-02
-7.896533e-02
-9.218230e-02
-1.039959e-01
-1.143386e-01
-1.230758e-01
-1.299841e-01
-1.347375e-01
-1.369469e-01
-1.364308e-01
-1.343101e-01
-1.348900e-01
-1.415068e-01
0.000000e+00
-1.431697e-05
-3.254697e-05
-5.071710e-05
-6.036032e-05
-4.259548e-05
4.005405e-05
2.548355e-04
7.120771e-04
1.576119e-03
3.061365e-03
5.383203e-03
8.599833e-03
1.223479e-02
1.474570e-02
1.405703e-02
9.676120e-03
0.000000e+00
1.551982e-02
3.194384e-02
4.847021e-02
6.428177e-02
7.888257e-02
9.221440e-02
1.043425e-01
1.153720e-01
1.254308e-01
1.346504e-01
1.430990e-01
1.506298e-01
1.566687e-01
1.602211e-01
1.605029e-01
1.582793e-01
0.000000e+00
3.219667e-02
6.620082e-02
1.001215e-01
1.317832e-01
1.608560e-01
1.873281e-01
2.112531e-01
2.326809e-01
2.516493e-01
2.681749e-01
2.822174e-01
2.936153e-01
3.020421e-01
3.071001e-01
3.087424e-01
3.082239e-01
0.000000e+00
5.151097e-02
1.070061e-01
1.582567e-01
2.054740e-01
2.488218e-01
2.883550e-01
3.240589e-01
3.558792e-01
3.837240e-01
4.074611e-01
4.269265e-01
4.419645e-01
4.525252e-01
4.588249e-01
4.615114e-01
4.620048e-01
0.000000e+00
8.625664e-02
1.588540e-01
2.256810e-01
2.879442e-01
3.454986e-01
3.981740e-01
4.458174e-01
4.882694e-01
5.253094e-01
5.566163e-01
5.817726e-01
6.003652e-01
6.122478e-01
6.179944e-01
6.194129e-01
6.193855e-01
0.000000e+00
-5.219214e-02
-1.024592e-01
-1.675937e-01
-2.475327e-01
-3.421268e-01
-4.503401e-01
-5.709613e-01
-7.027079e-01
-8.443144e-01
-9.946116e-01
-1.152669e+00
-1.318106e+00
-1.491805e+00
-1.678272e+00
-1.891625e+00
-2.198175e+00
0.000000e+00
-3.213044e-02
-8.456727e-02
-1.505094e-01
-2.317550e-01
-3.276400e-01
-4.371641e-01
-5.590868e-01
-6.921103e-01
-8.349464e-01
-9.863935e-01
-1.145479e+00
-1.311761e+00
-1.486102e+00
-1.672497e+00
-1.884556e+00
-2.144349e+00
0.000000e+00
-2.424526e-02
-7.216366e-02
-1.383492e-01
-2.203629e-01
-3.172348e-01
-4.277657e-01
-5.507028e-01
-6.847575e-01
-8.286596e-01
-9.812310e-01
-1.141532e+00
-1.309164e+00
-1.484845e+00
-1.671400e+00
-1.872333e+00
-2.066794e+00
0.000000e+00
-2.089284e-02
-6.599665e-02
-1.312115e-01
-2.135216e-01
-3.109899e-01
-4.222099e-01
-5.458813e-01
-6.807398e-01
-8.255496e-01
-9.791580e-01
-1.140607e+00
-1.309309e+00
-1.485185e+00
-1.668008e+00
-1.852636e+00
-2.022722e+00
0.000000e+00
-1.992707e-02
-6.413022e-02
-1.289345e-01
-2.112671e-01
-3.089779e-01
-4.205177e-01
-5.445872e-01
-6.799462e-01
-8.253792e-01
-9.797076e-01
-1.141822e+00
-1.310674e+00
-1.485019e+00
-1.662247e+00
-1.836298e+00
-1.996641e+00
0.000000e+00
-2.088044e-02
-6.598782e-02
-1.312272e-01
-2.135988e-01
-3.111931e-01
-4.226446e-01
-5.467047e-01
-6.821594e-01
-8.277871e-01
-9.823332e-01
-1.144455e+00
-1.312585e+00
-1.484582e+00
-1.657143e+00
-1.825225e+00
-1.982146e+00
0.000000e+00
-2.422503e-02
-7.214903e-02
-1.383754e-01
-2.204929e-01
-3.175787e-01
-4.285028e-01
-5.521009e-01
-6.871712e-01
-8.324711e-01
-9.866614e-01
-1.148193e+00
-1.315120e+00
-1.484864e+00
-1.654080e+00
-1.818936e+00
-1.975753e+00
0.000000e+00
-3.211147e-02
-8.455453e-02
-1.505442e-01
-2.319110e-01
-3.280443e-01
-4.380221e-01
-5.607027e-01
-6.948830e-01
-8.392978e-01
-9.925529e-01
-1.152989e+00
-1.318494e+00
-1.486348e+00
-1.653313e+00
-1.816336e+00
-1.974252e+00
0.000000e+00
-5.218430e-02
-1.024603e-01
-1.676475e-01
-2.477137e-01
-3.425589e-01
-4.512180e-01
-5.725631e-01
-7.053786e-01
-8.483768e-01
-1.000130e+00
-1.158943e+00
-1.322687e+00
-1.488705e+00
-1.653965e+00
-1.815860e+00
-1.974276e+00


0.000000e+00
1.113891e-09
2.303425e-09
3.356605e-09
4.245482e-09
4.967155e-09
5.534990e-09
5.970257e-09
6.295544e-09
6.532553e-09
6.701197e-09
6.819398e-09
6.903541e-09
6.968840e-09
7.029606e-09
7.104679e-09
7.194860e-09
0.000000e+00
7.579071e-10
1.785573e-09
2.622293e-09
3.292833e-09
3.822297e-09
4.230711e-09
4.538413e-09
4.764218e-09
4.924883e-09
5.034941e-09
5.106431e-09
5.148442e-09
5.169102e-09
5.190056e-09
5.251444e-09
5.344296e-09
0.000000e+00
5.642179e-10
1.240024e-09
1.804441e-09
2.257643e-09
2.607312e-09
2.870344e-09
3.063546e-09
3.201241e-09
3.295272e-09
3.355345e-09
3.389406e-09
3.404557e-09
3.410420e-09
3.425196e-09
3.473362e-09
3.548550e-09
0.000000e+00
3.019283e-10
6.183587e-10
9.006791e-10
1.131499e-09
1.307841e-09
1.437989e-09
1.531369e-09
1.595792e-09
1.637483e-09
1.661651e-09
1.673226e-09
1.677926e-09
1.683093e-09
1.696113e-09
1.725382e-09
1.771643e-09
0.000000e+00
-3.294725e-13
-7.736190e-13
-1.390666e-12
-2.278838e-12
-3.570569e-12
-5.438058e-12
-8.079245e-12
-1.166454e-11
-1.620371e-11
-2.129736e-11
-2.577274e-11
-2.751319e-11
-2.443984e-11
-1.643264e-11
-2.325682e-12
2.177585e-11
0.000000e+00
-3.024941e-10
-6.196673e-10
-9.030244e-10
-1.135294e-09
-1.313681e-09
-1.446706e-09
-1.544079e-09
-1.613896e-09
-1.662540e-09
-1.694955e-09
-1.714867e-09
-1.725124e-09
-1.728520e-09
-1.728343e-09
-1.724858e-09
-1.714561e-09
0.000000e+00
-5.645088e-10
-1.240824e-09
-1.805922e-09
-2.260002e-09
-2.610762e-09
-2.875098e-09
-3.069823e-09
-3.209307e-09
-3.305586e-09
-3.368835e-09
-3.407800e-09
-3.430025e-09
-3.441932e-09
-3.448329e-09
-3.450517e-09
-3.447619e-09
0.000000e+00
-7.580097e-10
-1.786079e-09
-2.623190e-09
-3.294084e-09
-3.823770e-09
-4.232080e-09
-4.539093e-09
-4.763364e-09
-4.921549e-09
-5.028493e-09
-5.097318e-09
-5.139325e-09
-5.163719e-09
-5.177155e-09
-5.183272e-09
-5.184127e-09
0.000000e+00
-1.114379e-09
-2.304223e-09
-3.357496e-09
-4.246201e-09
-4.967230e-09
-5.533672e-09
-5.966449e-09
-6.287783e-09
-6.519037e-09
-6.679740e-09
-6.787082e-09
-6.855501e-09
-6.896383e-09
-6.917963e-09
-6.926223e-09
-6.927651e-09
0.000000e+00
1.012211e-09
1.818769e-09
2.664854e-09
3.680344e-09
4.875540e-09
6.226166e-09
7.700623e-09
9.268610e-09
1.090514e-08
1.259103e-08
1.431316e-08
1.606619e-08
1.786156e-08
1.974746e-08
2.174877e-08
2.377573e-08
0.000000e+00
5.442385e-10
1.332530e-09
2.235895e-09
3.328674e-09
4.598264e-09
6.014223e-09
7.542764e-09
9.154328e-09
1.082500e-08
1.253683e-08
1.427787e-08
1.604318e-08
1.783815e-08
1.968587e-08
2.163155e-08
2.362574e-08
0.000000e+00
2.684717e-10
9.509668e-10
1.900883e-09
3.056920e-09
4.387776e-09
5.855700e-09
7.426524e-09
9.071777e-09
1.076886e-08
1.250096e-08
1.425694e-08
1.603094e-08
1.781979e-08
1.962564e-08
2.150706e-08
2.344783e-08
0.000000e+00
1.529641e-10
7.709999e-10
1.725324e-09
2.914298e-09
4.278851e-09
5.775038e-09
7.368408e-09
9.031490e-09
1.074262e-08
1.248552e-08
1.424882e-08
1.602465e-08
1.780512e-08
1.958827e-08
2.141860e-08
2.329217e-08
0.000000e+00
1.236655e-10
7.219563e-10
1.672173e-09
2.870443e-09
4.245680e-09
5.750940e-09
7.351604e-09
9.020601e-09
1.073654e-08
1.248301e-08
1.424790e-08
1.602200e-08
1.779719e-08
1.957071e-08
2.136807e-08
2.318141e-08
0.000000e+00
1.531705e-10
7.712859e-10
1.725711e-09
2.914847e-09
4.279725e-09
5.776522e-09
7.370910e-09
9.035442e-09
1.074823e-08
1.249224e-08
1.425455e-08
1.602531e-08
1.779703e-08
1.956672e-08
2.134368e-08
2.311766e-08
0.000000e+00
2.687979e-10
9.514833e-10
1.901648e-09
3.058050e-09
4.389591e-09
5.858729e-09
7.431515e-09
9.079533e-09
1.077984e-08
1.251442e-08
1.426945e-08
1.603449e-08
1.780202e-08
1.956800e-08
2.133290e-08
2.308789e-08
0.000000e+00
5.446961e-10
1.333386e-09
2.237162e-09
3.330506e-09
4.601030e-09
6.018513e-09
7.549393e-09
9.164165e-09
1.083857e-08
1.255344e-08
1.429392e-08
1.604869e-08
1.780948e-08
1.957075e-08
2.132879e-08
2.307796e-08
0.000000e+00
1.012942e-09
1.820026e-09
2.666617e-09
3.682749e-09
4.878863e-09
6.230875e-09
7.707327e-09
9.277956e-09
1.091745e-08
1.260551e-08
1.432621e-08
1.606717e-08
1.781897e-08
1.957464e-08
2.132851e-08
2.307644e-08


2.519313e-01
2.519313e-01
2.519313e-01
2.519314e-01
2.519315e-01
2.519316e-01
2.519316e-01
2.519316e-01
2.519317e-01
2.519317e-01
2.519317e-01
2.519317e-01
2.519317e-01
2.519317e-01
2.519317e-01
2.519317e-01
2.519314e-01
2.519314e-01
2.519314e-01
2.519315e-01
2.519315e-01
2.519316e-01
2.519316e-01
2.519317e-01
2.519317e-01
2.519317e-01
2.519317e-01
2.519317e-01
2.519317e-01
2.519317e-01
2.519317e-01
2.519317e-01
2.519315e-01
2.519315e-01
2.519315e-01
2.519316e-01
2.519316e-01
2.519316e-01
2.519317e-01
2.519317e-01
2.519317e-01
2.519317e-01
2.519317e-01
2.519317e-01
2.519317e-01
2.519317e-01
2.519317e-01
2.519317e-01
2.519316e-01
2.519316e-01
2.519316e-01
2.519317e-01
2.519317e-01
2.519317e-01
2.519317e-01
2.519317e-01
2.519317e-01
2.519317e-01
2.519317e-01
2.519317e-01
2.519317e-01
2.519317e-01
2.519317e-01
2.519317e-01
2.519316e-01
2.519316e-01
2.519316e-01
2.519317e-01
2.519317e-01
2.519317e-01
2.519317e-01
2.519317e-01
2.519317e-01
2.519317e-01
2.519317e-01
2.519317e-01
2.519317e-01
2.519317e-01
2.519317e-01
2.519317e-01
2.519315e-01
2.519315e-01
2.519315e-01
2.519316e-01
2.519316e-01
2.519316e-01
2.519317e-01
2.519317e-01
2.519317e-01
2.519317e-01
2.519317e-01
2.519317e-01
2.519317e-01
2.519317e-01
2.519317e-01
2.519317e-01
2.519314e-01
2.519314e-01
2.519314e-01
2.519315e-01
2.519315e-01
2.519316e-01
2.519316e-01
2.519317e-01
2.519317e-01
2.519317e-01
2.519317e-01
2.519317e-01
2.519317e-01
2.519317e-01
2.519317e-01
2.519317e-01
2.519313e-01
2.519313e-01
2.519313e-01
2.519314e-01
2.519315e-01
2.519316e-01
2.519316e-01
2.519316e-01
2.519317e-01
2.519317e-01
2.519317e-01
2.519317e-01
2.519317e-01
2.519317e-01
2.519317e-01
2.519317e-01


9.832745e-01
9.856463e-01
9.878404e-01
9.895294e-01
9.910971e-01
9.925428e-01
9.938598e-01
9.950328e-01
9.960495e-01
9.968999e-01
9.975760e-01
9.980713e-01
9.983792e-01
9.984891e-01
9.985683e-01
9.936804e-01
9.936724e-01
9.925855e-01
9.932848e-01
9.941975e-01
9.950484e-01
9.958218e-01
9.965219e-01
9.971560e-01
9.977301e-01
9.982502e-01
9.987220e-01
9.991493e-01
9.995221e-01
9.997662e-01
9.991489e-01
9.907817e-01
9.978014e-01
9.971772e-01
9.970087e-01
9.972457e-01
9.975576e-01
9.978596e-01
9.981401e-01
9.984051e-01
9.986618e-01
9.989120e-01
9.991458e-01
9.993267e-01
9.993645e-01
9.990386e-01
9.978564e-01
9.957300e-01
9.995526e-01
9.990973e-01
9.988160e-01
9.987447e-01
9.987731e-01
9.988210e-01
9.988687e-01
9.989154e-01
9.989611e-01
9.989995e-01
9.990101e-01
9.989531e-01
9.987724e-01
9.984479e-01
9.981728e-01
9.981031e-01
9.995542e-01
9.990996e-01
9.988181e-01
9.987442e-01
9.987661e-01
9.988005e-01
9.988245e-01
9.988325e-01
9.988215e-01
9.987863e-01
9.987207e-01
9.986261e-01
9.985360e-01
9.985539e-01
9.988085e-01
9.992493e-01
9.978046e-01
9.971819e-01
9.970132e-01
9.972458e-01
9.975455e-01
9.978223e-01
9.980564e-01
9.982447e-01
9.983857e-01
9.984806e-01
9.985406e-01
9.985993e-01
9.987226e-01
9.989810e-01
9.993692e-01
9.997706e-01
9.936718e-01
9.925851e-01
9.932839e-01
9.941949e-01
9.950417e-01
9.958066e-01
9.964903e-01
9.970958e-01
9.976233e-01
9.980743e-01
9.984560e-01
9.987894e-01
9.991105e-01
9.994471e-01
9.997619e-01
9.999601e-01
9.832631e-01
9.856284e-01
9.878185e-01
9.895048e-01
9.910751e-01
9.925348e-01
9.938870e-01
9.951287e-01
9.962601e-01
9.972789e-01
9.981732e-01
9.989150e-01
9.994669e-01
9.998074e-01
9.999622e-01
9.999992e-01
1 2 19 18
2 3 20 19
3 4 21 20
4 5 22 21
5 6 23 22
6 7 24 23
7 8 25 24
8 9 26 25
9 10 27 26
10 11 28 27
11 12 29 28
12 13 30 29
13 14 31 30
14 15 32 31
15 16 33 32
16 17 34 33
18 19 36 35
19 20 37 36
20 21 38 37
21 22 39 38
22 23 40 39
23 24 41 40
24 25 42 41
25 26 43 42
26 27 44 43
27 28 45 44
28 29 46 45
29 30 47 46
30 31 48 47
31 32 49 48
32 33 50 49
33 34 51 50
35 36 53 52
36 37 54 53
37 38 55 54
38 39 56 55
39 40 57 56
40 41 58 57
41 42 59 58
42 43 60 59
43 44 61 60
44 45 62 61
45 46 63 62
46 47 64 63
47 48 65 64
48 49 66 65
49 50 67 66
50 51 68 67
52 53 70 69
53 54 71 70
54 55 72 71
55 56 73 72
56 57 74 73
57 58 75 74
58 59 76 75
59 60 77 76
60 61 78 77
61 62 79 78
62 63 80 79
63 64 81 80
64 65 82 81
65 66 83 82
66 67 84 83
67 68 85 84
69 70 87 86
70 71 88 87
71 72 89 88
72 73 90 89
73 74 91 90
74 75 92 91
75 76 93 92
76 77 94 93
77 78 95 94
78 79 96 95
79 80 97 96
80 81 98 97
81 82 99 98
82 83 100 99
83 84 101 100
84 85 102 101
86 87 104 103
87 88 105 104
88 89 106 105
89 90 107 106
90 91 108 107
91 92 109 108
92 93 110 109
93 94 111 110
94 95 112 111
95 96 113 112
96 97 114 113
97 98 115 114
98 99 116 115
99 100 117 116
100 101 118 117
101 102 119 118
103 104 121 120
104 105 122 121
105 106 123 122
106 107 124 123
107 108 125 124
108 109 126 125
109 110 127 126
110 111 128 127
111 112 129 128
112 113 130 129
113 114 131 130
114 115 132 131
115 116 133 132
116 117 134 133
117 118 135 134
118 119 136 135
120 121 138 137
121 122 139 138
122 123 140 139
123 124 141 140
124 125 142 141
125 126 143 142
126 127 144 143
127 128 145 144
128 129 146 145
129 130 147 146
130 131 148 147
131 132 149 148
132 133 150 149
133 134 151 150
134 135 152 151
135 136 153 152
