TITLE = "Solution"
VARIABLES = x, y, u, v, psiu, psiv, t, stress
ZONE T="structure" N=153 E=128 F=FEBLOCK ET=QUADRILATERAL VARLOCATION=([7,8]=cellcentered)
0.000000e+00
1.250000e+01
2.500000e+01
3.750000e+01
5.000000e+01
6.250000e+01
7.500000e+01
8.750000e+01
1.000000e+02
1.125000e+02
1.250000e+02
1.375000e+02
1.500000e+02
1.625000e+02
1.750000e+02
1.875000e+02
2.000000e+02
0.000000e+00
1.250000e+01
2.500000e+01
3.750000e+01
5.000000e+01
6.250000e+01
7.500000e+01
8.750000e+01
1.000000e+02
1.125000e+02
1.250000e+02
1.375000e+02
1.500000e+02
1.625000e+02
1.750000e+02
1.875000e+02
2.000000e+02
0.000000e+00
1.250000e+01
2.500000e+01
3.750000e+01
5.000000e+01
6.250000e+01
7.500000e+01
8.750000e+01
1.000000e+02
1.125000e+02
1.250000e+02
1.375000e+02
1.500000e+02
1.625000e+02
1.750000e+02
1.875000e+02
2.000000e+02
0.000000e+00
1.250000e+01
2.500000e+01
3.750000e+01
5.000000e+01
6.250000e+01
7.500000e+01
8.750000e+01
1.000000e+02
1.125000e+02
1.250000e+02
1.375000e+02
1.500000e+02
1.625000e+02
1.750000e+02
1.875000e+02
2.000000e+02
0.000000e+00
1.250000e+01
2.500000e+01
3.750000e+01
5.000000e+01
6.250000e+01
7.500000e+01
8.750000e+01
1.000000e+02
1.125000e+02
1.250000e+02
1.375000e+02
1.500000e+02
1.625000e+02
1.750000e+02
1.875000e+02
2.000000e+02
0.000000e+00
1.250000e+01
2.500000e+01
3.750000e+01
5.000000e+01
6.250000e+01
7.500000e+01
8.750000e+01
1.000000e+02
1.125000e+02
1.250000e+02
1.375000e+02
1.500000e+02
1.625000e+02
1.750000e+02
1.875000e+02
2.000000e+02
0.000000e+00
1.250000e+01
2.500000e+01
3.750000e+01
5.000000e+01
6.250000e+01
7.500000e+01
8.750000e+01
1.000000e+02
1.125000e+02
1.250000e+02
1.375000e+02
1.500000e+02
1.625000e+02
1.750000e+02
1.875000e+02
2.000000e+02
0.000000e+00
1.250000e+01
2.500000e+01
3.750000e+01
5.000000e+01
6.250000e+01
7.500000e+01
8.750000e+01
1.000000e+02
1.125000e+02
1.250000e+02
1.375000e+02
1.500000e+02
1.625000e+02
1.750000e+02
1.875000e+02
2.000000e+02
0.000000e+00
1.250000e+01
2.500000e+01
3.750000e+01
5.000000e+01
6.250000e+01
7.500000e+01
8.750000e+01
1.000000e+02
1.125000e+02
1.250000e+02
1.375000e+02
1.500000e+02
1.625000e+02
1.750000e+02
1.875000e+02
2.000000e+02
0.000000e+00
0.000000e+00
0.000000e+00
0.000000e+00
0.000000e+00
0.000000e+00
0.000000e+00
0.000000e+00
0.000000e+00
0.000000e+00
0.000000e+00
0.000000e+00
0.000000e+00
0.000000e+00
0.000000e+00
0.000000e+00
0.000000e+00
1.250000e+01
1.250000e+01
1.250000e+01
1.250000e+01
1.250000e+01
1.250000e+01
1.250000e+01
1.250000e+01
1.250000e+01
1.250000e+01
1.250000e+01
1.250000e+01
1.250000e+01
1.250000e+01
1.250000e+01
1.250000e+01
1.250000e+01
2.500000e+01
2.500000e+01
2.500000e+01
2.500000e+01
2.500000e+01
2.500000e+01
2.500000e+01
2.500000e+01
2.500000e+01
2.500000e+01
2.500000e+01
2.500000e+01
2.500000e+01
2.500000e+01
2.500000e+01
2.500000e+01
2.500000e+01
3.750000e+01
3.750000e+01
3.750000e+01
3.750000e+01
3.750000e+01
3.750000e+01
3.750000e+01
3.750000e+01
3.750000e+01
3.750000e+01
3.750000e+01
3.750000e+01
3.750000e+01
3.750000e+01
3.750000e+01
3.750000e+01
3.750000e+01
5.000000e+01
5.000000e+01
5.000000e+01
5.000000e+01
5.000000e+01
5.000000e+01
5.000000e+01
5.000000e+01
5.000000e+01
5.000000e+01
5.000000e+01
5.000000e+01
5.000000e+01
5.000000e+01
5.000000e+01
5.000000e+01
5.000000e+01
6.250000e+01
6.250000e+01
6.250000e+01
6.250000e+01
6.250000e+01
6.250000e+01
6.250000e+01
6.250000e+01
6.250000e+01
6.250000e+01
6.250000e+01
6.250000e+01
6.250000e+01
6.250000e+01
6.250000e+01
6.250000e+01
6.250000e+01
7.500000e+01
7.500000e+01
7.500000e+01
7.500000e+01
7.500000e+01
7.500000e+01
7.500000e+01
7.500000e+01
7.500000e+01
7.500000e+01
7.500000e+01
7.500000e+01
7.500000e+01
7.500000e+01
7.500000e+01
7.500000e+01
7.500000e+01
8.750000e+01
8.750000e+01
8.750000e+01
8.750000e+01
8.750000e+01
8.750000e+01
8.750000e+01
8.750000e+01
8.750000e+01
8.750000e+01
8.750000e+01
8.750000e+01
8.750000e+01
8.750000e+01
8.750000e+01
8.750000e+01
8.750000e+01
1.000000e+02
1.000000e+02
1.000000e+02
1.000000e+02
1.000000e+02
1.000000e+02
1.000000e+02
1.000000e+02
1.000000e+02
1.000000e+02
1.000000e+02
1.000000e+02
1.000000e+02
1.000000e+02
1.000000e+02
1.000000e+02
1.000000e+02
0.000000e+00
-9.881401e-01
-1.679410e+00
-2.427875e+00
-3.108483e+00
-3.755298e+00
-4.450963e+00
-5.087838e+00
-5.760670e+00
-6.401200e+00
-7.058875e+00
-7.717078e+00
-8.376325e+00
-9.154674e+00
-1.007441e+01
-1.082655e+01
-1.127710e+01
0.000000e+00
-4.433767e-01
-9.100383e-01
-1.419424e+00
-1.930056e+00
-2.414913e+00
-2.926838e+00
-3.425152e+00
-3.921860e+00
-4.422312e+00
-4.918557e+00
-5.417267e+00
-5.902612e+00
-6.426553e+00
-6.892981e+00
-7.016149e+00
-7.194668e+00
0.000000e+00
-1.481342e-01
-3.539611e-01
-6.439564e-01
-9.819836e-01
-1.308397e+00
-1.662362e+00
-2.016223e+00
-2.362005e+00
-2.720729e+00
-3.060784e+00
-3.393086e+00
-3.686662e+00
-3.925184e+00
-4.030509e+00
-4.027043e+00
-4.176148e+00
0.000000e+00
-7.869231e-02
-1.626424e-01
-3.086675e-01
-4.529030e-01
-6.280288e-01
-8.088921e-01
-9.778369e-01
-1.161413e+00
-1.323977e+00
-1.485625e+00
-1.622938e+00
-1.714465e+00
-1.721133e+00
-1.649132e+00
-1.630865e+00
-1.749818e+00
0.000000e+00
-2.806037e-03
-6.140914e-03
-9.567444e-03
-1.256673e-02
-1.419308e-02
-1.333065e-02
-8.592038e-03
8.009456e-04
1.782830e-02
4.252352e-02
8.663960e-02
1.678680e-01
2.817962e-01
3.997125e-01
4.378712e-01
3.394574e-01
0.000000e+00
7.389656e-02
1.525920e-01
2.921409e-01
4.308776e-01
6.019542e-01
7.839667e-01
9.618619e-01
1.165401e+00
1.358494e+00
1.571358e+00
1.791491e+00
2.014754e+00
2.216940e+00
2.351383e+00
2.384129e+00
2.319058e+00
0.000000e+00
1.464198e-01
3.495103e-01
6.358541e-01
9.694888e-01
1.291983e+00
1.644715e+00
2.004729e+00
2.372517e+00
2.771450e+00
3.147990e+00
3.515219e+00
3.849512e+00
4.121054e+00
4.294612e+00
4.349628e+00
4.327708e+00
0.000000e+00
4.445936e-01
9.105845e-01
1.420092e+00
1.930131e+00
2.412421e+00
2.921763e+00
3.415401e+00
3.905184e+00
4.397637e+00
4.875953e+00
5.351038e+00
5.783248e+00
6.128723e+00
6.343984e+00
6.438714e+00
6.456031e+00
0.000000e+00
9.905773e-01
1.683109e+00
2.435838e+00
3.121613e+00
3.770534e+00
4.468811e+00
5.096890e+00
5.739475e+00
6.329179e+00
6.906899e+00
7.506124e+00
8.040197e+00
8.446411e+00
8.648538e+00
8.702235e+00
8.702907e+00
0.000000e+00
-6.156852e-01
-1.356435e+00
-2.351830e+00
-3.521518e+00
-4.862785e+00
-6.388242e+00
-8.071638e+00
-9.928464e+00
-1.194801e+01
-1.413090e+01
-1.647513e+01
-1.898702e+01
-2.171713e+01
-2.467746e+01
-2.803854e+01
-3.305464e+01
0.000000e+00
-4.117981e-01
-1.187434e+00
-2.166785e+00
-3.351461e+00
-4.687549e+00
-6.211883e+00
-7.901658e+00
-9.753517e+00
-1.177957e+01
-1.395879e+01
-1.630865e+01
-1.881208e+01
-2.152544e+01
-2.453903e+01
-2.795383e+01
-3.200733e+01
0.000000e+00
-3.851657e-01
-1.086291e+00
-2.063085e+00
-3.230872e+00
-4.563008e+00
-6.089961e+00
-7.773627e+00
-9.634142e+00
-1.165840e+01
-1.384898e+01
-1.620907e+01
-1.872414e+01
-2.146349e+01
-2.453007e+01
-2.780036e+01
-3.083152e+01
0.000000e+00
-4.430878e-01
-1.082029e+00
-2.036370e+00
-3.166350e+00
-4.494673e+00
-6.024432e+00
-7.699694e+00
-9.576496e+00
-1.160159e+01
-1.381200e+01
-1.619150e+01
-1.873363e+01
-2.147269e+01
-2.446263e+01
-2.748941e+01
-3.010785e+01
0.000000e+00
-4.511238e-01
-1.103196e+00
-2.020133e+00
-3.154144e+00
-4.480309e+00
-6.004606e+00
-7.696477e+00
-9.569990e+00
-1.161531e+01
-1.383539e+01
-1.622650e+01
-1.877553e+01
-2.147402e+01
-2.431200e+01
-2.712446e+01
-2.950523e+01
0.000000e+00
-4.419852e-01
-1.081310e+00
-2.037946e+00
-3.173707e+00
-4.508849e+00
-6.050937e+00
-7.738873e+00
-9.632847e+00
-1.168131e+01
-1.390234e+01
-1.627890e+01
-1.880930e+01
-2.146381e+01
-2.417528e+01
-2.680649e+01
-2.907132e+01
0.000000e+00
-3.836376e-01
-1.085357e+00
-2.065997e+00
-3.242753e+00
-4.588719e+00
-6.137063e+00
-7.848378e+00
-9.739407e+00
-1.179410e+01
-1.398971e+01
-1.634600e+01
-1.885091e+01
-2.146474e+01
-2.409115e+01
-2.660024e+01
-2.884210e+01
0.000000e+00
-4.103576e-01
-1.186450e+00
-2.169747e+00
-3.364012e+00
-4.715983e+00
-6.265498e+00
-7.989353e+00
-9.877240e+00
-1.193001e+01
-1.410686e+01
-1.644539e+01
-1.892866e+01
-2.150674e+01
-2.407046e+01
-2.651211e+01
-2.878227e+01
0.000000e+00
-6.145809e-01
-1.355880e+00
-2.355630e+00
-3.534624e+00
-4.891805e+00
-6.442447e+00
-8.157787e+00
-1.004802e+01
-1.208725e+01
-1.426282e+01
-1.659436e+01
-1.905227e+01
-2.158788e+01
-2.409536e+01
-2.649690e+01
-2.878114e+01


0.000000e+00
1.534620e-05
2.505406e-05
3.722430e-05
5.304429e-05
6.645222e-05
8.166533e-05
9.629241e-05
1.104174e-04
1.252515e-04
1.404597e-04
1.547506e-04
1.720934e-04
1.870076e-04
1.955677e-04
2.008625e-04
2.076981e-04
0.000000e+00
1.145638e-05
1.980010e-05
2.843857e-05
4.124231e-05
5.185894e-05
6.220283e-05
7.353142e-05
8.362130e-05
9.483623e-05
1.053232e-04
1.151092e-04
1.264923e-04
1.350961e-04
1.355023e-04
1.391521e-04
1.449904e-04
0.000000e+00
9.616587e-06
1.523932e-05
2.063375e-05
2.985751e-05
3.666424e-05
4.289382e-05
5.043346e-05
5.636956e-05
6.321751e-05
6.917187e-05
7.390437e-05
7.853528e-05
8.008266e-05
7.888358e-05
8.126185e-05
8.554537e-05
0.000000e+00
5.246898e-06
7.136876e-06
1.025976e-05
1.435504e-05
1.596808e-05
1.910070e-05
2.171446e-05
2.423796e-05
2.712216e-05
2.930035e-05
2.940361e-05
2.830406e-05
2.651399e-05
2.641773e-05
2.951319e-05
3.515421e-05
0.000000e+00
-1.197523e-07
-3.042434e-07
-5.853462e-07
-1.094892e-06
-1.763956e-06
-2.839940e-06
-4.078910e-06
-4.737176e-06
-5.792244e-06
-7.924017e-06
-1.167398e-05
-1.453457e-05
-1.579150e-05
-1.539649e-05
-1.315185e-05
-9.233701e-06
0.000000e+00
-5.416691e-06
-7.538989e-06
-1.109435e-05
-1.561803e-05
-1.793495e-05
-2.251077e-05
-2.626755e-05
-3.060826e-05
-3.349807e-05
-3.731464e-05
-4.224024e-05
-4.678815e-05
-4.813467e-05
-4.864266e-05
-4.915174e-05
-4.755861e-05
0.000000e+00
-9.566945e-06
-1.525582e-05
-2.080446e-05
-3.007023e-05
-3.705507e-05
-4.333095e-05
-5.148070e-05
-5.783073e-05
-6.386663e-05
-6.867027e-05
-7.340459e-05
-7.753744e-05
-8.068308e-05
-8.258292e-05
-8.445401e-05
-8.519280e-05
0.000000e+00
-1.137138e-05
-1.970226e-05
-2.835276e-05
-4.105480e-05
-5.185033e-05
-6.204445e-05
-7.351657e-05
-8.379280e-05
-9.465766e-05
-1.050025e-04
-1.126744e-04
-1.176678e-04
-1.225639e-04
-1.259511e-04
-1.271495e-04
-1.272469e-04
0.000000e+00
-1.537112e-05
-2.501510e-05
-3.709525e-05
-5.275689e-05
-6.600581e-05
-8.101142e-05
-9.475929e-05
-1.089583e-04
-1.237692e-04
-1.413985e-04
-1.563272e-04
-1.654532e-04
-1.704373e-04
-1.726258e-04
-1.728000e-04
-1.726059e-04
0.000000e+00
1.261887e-05
1.999739e-05
3.230327e-05
4.824349e-05
6.553094e-05
8.850518e-05
1.155012e-04
1.462845e-04
1.818202e-04
2.210082e-04
2.649630e-04
3.156371e-04
3.692669e-04
4.304442e-04
5.009928e-04
5.737425e-04
0.000000e+00
7.670031e-06
1.609721e-05
2.620966e-05
4.178865e-05
5.965174e-05
8.207900e-05
1.094825e-04
1.401621e-04
1.755028e-04
2.149337e-04
2.587204e-04
3.090160e-04
3.649288e-04
4.256139e-04
4.936706e-04
5.633534e-04
0.000000e+00
4.279951e-06
1.222281e-05
2.142723e-05
3.604605e-05
5.451306e-05
7.701088e-05
1.047650e-04
1.356974e-04
1.709801e-04
2.104422e-04
2.545892e-04
3.053487e-04
3.629128e-04
4.217902e-04
4.862256e-04
5.535277e-04
0.000000e+00
3.061941e-06
1.031982e-05
1.952748e-05
3.380995e-05
5.176174e-05
7.470716e-05
1.034505e-04
1.349583e-04
1.692050e-04
2.085896e-04
2.535801e-04
3.049609e-04
3.616077e-04
4.191974e-04
4.784495e-04
5.392867e-04
0.000000e+00
2.629016e-06
9.852921e-06
1.927197e-05
3.333515e-05
5.087146e-05
7.400923e-05
1.035944e-04
1.352725e-04
1.686183e-04
2.072389e-04
2.541339e-04
3.056045e-04
3.616782e-04
4.180405e-04
4.721199e-04
5.234300e-04
0.000000e+00
3.181292e-06
1.047524e-05
1.980682e-05
3.403372e-05
5.170231e-05
7.500550e-05
1.040040e-04
1.355369e-04
1.684598e-04
2.077386e-04
2.560974e-04
3.081015e-04
3.618437e-04
4.178756e-04
4.698083e-04
5.128233e-04
0.000000e+00
4.414968e-06
1.244431e-05
2.178300e-05
3.628168e-05
5.464197e-05
7.725227e-05
1.051124e-04
1.356528e-04
1.696344e-04
2.100911e-04
2.593516e-04
3.115663e-04
3.636973e-04
4.168572e-04
4.671873e-04
5.096293e-04
0.000000e+00
7.781269e-06
1.634671e-05
2.655865e-05
4.210313e-05
5.993653e-05
8.240373e-05
1.096464e-04
1.395271e-04
1.739508e-04
2.146007e-04
2.627461e-04
3.145215e-04
3.657855e-04
4.168492e-04
4.652558e-04
5.101448e-04
0.000000e+00
1.271708e-05
2.024933e-05
3.264286e-05
4.859639e-05
6.588676e-05
8.886715e-05
1.156054e-04
1.457209e-04
1.804257e-04
2.213153e-04
2.667368e-04
3.165885e-04
3.670335e-04
4.170882e-04
4.647781e-04
5.104216e-04


5.330324e+00
5.811193e+00
6.486786e+00
5.552317e+00
4.889882e+00
5.099542e+00
5.293956e+00
5.630725e+00
5.590161e+00
5.780532e+00
6.093689e+00
7.000041e+00
8.681135e+00
9.624859e+00
8.926021e+00
7.770586e+00
7.834226e+00
8.184944e+00
8.372955e+00
8.081585e+00
7.666209e+00
7.759245e+00
7.940714e+00
7.960986e+00
8.057617e+00
8.059398e+00
8.200419e+00
8.626925e+00
9.338333e+00
9.624143e+00
8.187959e+00
6.286075e+00
9.689993e+00
9.680783e+00
9.829899e+00
9.664477e+00
9.651670e+00
9.687283e+00
9.636924e+00
9.708922e+00
9.654655e+00
9.702222e+00
9.694539e+00
9.690899e+00
9.708596e+00
9.212005e+00
7.753322e+00
5.973720e+00
9.916503e+00
9.915148e+00
9.914624e+00
9.907238e+00
9.901700e+00
9.895568e+00
9.888379e+00
9.886842e+00
9.883255e+00
9.865308e+00
9.798281e+00
9.284502e+00
8.656456e+00
8.198174e+00
7.723950e+00
7.528349e+00
9.916218e+00
9.914462e+00
9.913408e+00
9.904359e+00
9.895730e+00
9.885225e+00
9.869096e+00
9.865048e+00
9.847640e+00
9.717099e+00
9.134050e+00
8.268867e+00
7.423946e+00
7.488627e+00
8.338569e+00
8.823276e+00
9.690169e+00
9.677868e+00
9.823018e+00
9.647629e+00
9.615981e+00
9.616042e+00
9.520991e+00
9.550473e+00
9.220318e+00
8.611557e+00
8.065693e+00
7.579463e+00
7.751270e+00
8.397078e+00
9.196675e+00
9.755109e+00
7.842606e+00
8.185180e+00
8.362296e+00
8.052413e+00
7.617197e+00
7.659360e+00
7.739779e+00
7.624956e+00
7.376232e+00
7.002790e+00
7.230267e+00
8.179733e+00
8.944761e+00
9.559183e+00
9.845410e+00
9.898838e+00
5.355284e+00
5.818646e+00
6.481487e+00
5.535715e+00
4.871398e+00
5.052193e+00
5.138631e+00
5.412941e+00
5.375896e+00
5.919762e+00
7.471020e+00
8.860281e+00
9.743325e+00
9.872997e+00
9.908798e+00
9.921956e+00


-7.938400e-01
-1.956542e-01
-3.824784e-01
-2.459660e-01
-1.278717e-01
-2.787450e-01
-1.385275e-01
-2.054929e-01
-1.546048e-01
-1.802653e-01
-1.871752e-01
-1.629841e-01
-4.884255e-01
-6.360084e-01
3.264861e-01
-8.467373e-01
6.131540e-01
4.693237e-01
3.022223e-01
2.287795e-01
2.805542e-01
1.722222e-01
1.797829e-01
1.696397e-01
1.217960e-01
1.428717e-01
1.447718e-01
2.492550e-01
3.023696e-01
5.304709e-01
6.998396e-01
-9.556694e-01
7.303394e-01
4.756887e-01
8.015457e-02
1.059969e-02
-2.993047e-02
-1.408702e-01
-6.692189e-02
-1.070980e-01
-4.486086e-02
-5.584237e-04
6.568424e-02
2.087109e-01
2.937119e-01
1.598556e-01
-1.293207e-02
-1.816471e-01
7.354699e-01
5.594205e-01
2.065572e-01
8.326300e-02
-1.606076e-02
-7.286809e-02
-1.495563e-02
-3.822362e-02
3.369612e-02
4.123376e-02
8.094622e-02
1.259587e-01
5.789973e-02
-2.713541e-01
-3.728001e-01
-6.647523e-02
7.379873e-01
5.631431e-01
2.125317e-01
8.550375e-02
-1.662908e-02
-8.710669e-02
-3.702128e-02
-7.448485e-02
-2.287405e-02
-1.279087e-02
2.411493e-02
1.758272e-02
-3.672479e-02
-1.438363e-01
-1.034039e-01
3.219559e-01
7.360889e-01
4.858605e-01
9.590642e-02
2.129252e-02
-2.794217e-02
-1.666840e-01
-1.248520e-01
-2.066835e-01
-1.665482e-01
-9.562184e-02
-8.930455e-02
-1.043060e-01
-8.999784e-02
5.355293e-02
3.342111e-01
7.308609e-01
6.159187e-01
4.763749e-01
3.096896e-01
2.368117e-01
2.864744e-01
1.639424e-01
1.447231e-01
8.199240e-02
-4.222626e-02
-3.636422e-02
-1.020137e-01
-7.272321e-02
7.572583e-02
3.786060e-01
7.145667e-01
9.483129e-01
-8.011174e-01
-1.966175e-01
-3.917179e-01
-2.552970e-01
-1.276517e-01
-2.807542e-01
-1.171052e-01
-1.433813e-01
-6.266500e-02
-2.880367e-02
-8.907282e-02
8.455665e-02
4.010771e-01
7.730765e-01
9.525190e-01
9.987267e-01
1 2 19 18
2 3 20 19
3 4 21 20
4 5 22 21
5 6 23 22
6 7 24 23
7 8 25 24
8 9 26 25
9 10 27 26
10 11 28 27
11 12 29 28
12 13 30 29
13 14 31 30
14 15 32 31
15 16 33 32
16 17 34 33
18 19 36 35
19 20 37 36
20 21 38 37
21 22 39 38
22 23 40 39
23 24 41 40
24 25 42 41
25 26 43 42
26 27 44 43
27 28 45 44
28 29 46 45
29 30 47 46
30 31 48 47
31 32 49 48
32 33 50 49
33 34 51 50
35 36 53 52
36 37 54 53
37 38 55 54
38 39 56 55
39 40 57 56
40 41 58 57
41 42 59 58
42 43 60 59
43 44 61 60
44 45 62 61
45 46 63 62
46 47 64 63
47 48 65 64
48 49 66 65
49 50 67 66
50 51 68 67
52 53 70 69
53 54 71 70
54 55 72 71
55 56 73 72
56 57 74 73
57 58 75 74
58 59 76 75
59 60 77 76
60 61 78 77
61 62 79 78
62 63 80 79
63 64 81 80
64 65 82 81
65 66 83 82
66 67 84 83
67 68 85 84
69 70 87 86
70 71 88 87
71 72 89 88
72 73 90 89
73 74 91 90
74 75 92 91
75 76 93 92
76 77 94 93
77 78 95 94
78 79 96 95
79 80 97 96
80 81 98 97
81 82 99 98
82 83 100 99
83 84 101 100
84 85 102 101
86 87 104 103
87 88 105 104
88 89 106 105
89 90 107 106
90 91 108 107
91 92 109 108
92 93 110 109
93 94 111 110
94 95 112 111
95 96 113 112
96 97 114 113
97 98 115 114
98 99 116 115
99 100 117 116
100 101 118 117
101 102 119 118
103 104 121 120
104 105 122 121
105 106 123 122
106 107 124 123
107 108 125 124
108 109 126 125
109 110 127 126
110 111 128 127
111 112 129 128
112 113 130 129
113 114 131 130
114 115 132 131
115 116 133 132
116 117 134 133
117 118 135 134
118 119 136 135
120 121 138 137
121 122 139 138
122 123 140 139
123 124 141 140
124 125 142 141
125 126 143 142
126 127 144 143
127 128 145 144
128 129 146 145
129 130 147 146
130 131 148 147
131 132 149 148
132 133 150 149
133 134 151 150
134 135 152 151
135 136 153 152
