TITLE = "Solution"
VARIABLES = x, y, u, v, psiu, psiv, t, stress
ZONE T="structure" N=153 E=128 F=FEBLOCK ET=QUADRILATERAL VARLOCATION=([7,8]=cellcentered)
0.000000e+00
1.250000e+01
2.500000e+01
3.750000e+01
5.000000e+01
6.250000e+01
7.500000e+01
8.750000e+01
1.000000e+02
1.125000e+02
1.250000e+02
1.375000e+02
1.500000e+02
1.625000e+02
1.750000e+02
1.875000e+02
2.000000e+02
0.000000e+00
1.250000e+01
2.500000e+01
3.750000e+01
5.000000e+01
6.250000e+01
7.500000e+01
8.750000e+01
1.000000e+02
1.125000e+02
1.250000e+02
1.375000e+02
1.500000e+02
1.625000e+02
1.750000e+02
1.875000e+02
2.000000e+02
0.000000e+00
1.250000e+01
2.500000e+01
3.750000e+01
5.000000e+01
6.250000e+01
7.500000e+01
8.750000e+01
1.000000e+02
1.125000e+02
1.250000e+02
1.375000e+02
1.500000e+02
1.625000e+02
1.750000e+02
1.875000e+02
2.000000e+02
0.000000e+00
1.250000e+01
2.500000e+01
3.750000e+01
5.000000e+01
6.250000e+01
7.500000e+01
8.750000e+01
1.000000e+02
1.125000e+02
1.250000e+02
1.375000e+02
1.500000e+02
1.625000e+02
1.750000e+02
1.875000e+02
2.000000e+02
0.000000e+00
1.250000e+01
2.500000e+01
3.750000e+01
5.000000e+01
6.250000e+01
7.500000e+01
8.750000e+01
1.000000e+02
1.125000e+02
1.250000e+02
1.375000e+02
1.500000e+02
1.625000e+02
1.750000e+02
1.875000e+02
2.000000e+02
0.000000e+00
1.250000e+01
2.500000e+01
3.750000e+01
5.000000e+01
6.250000e+01
7.500000e+01
8.750000e+01
1.000000e+02
1.125000e+02
1.250000e+02
1.375000e+02
1.500000e+02
1.625000e+02
1.750000e+02
1.875000e+02
2.000000e+02
0.000000e+00
1.250000e+01
2.500000e+01
3.750000e+01
5.000000e+01
6.250000e+01
7.500000e+01
8.750000e+01
1.000000e+02
1.125000e+02
1.250000e+02
1.375000e+02
1.500000e+02
1.625000e+02
1.750000e+02
1.875000e+02
2.000000e+02
0.000000e+00
1.250000e+01
2.500000e+01
3.750000e+01
5.000000e+01
6.250000e+01
7.500000e+01
8.750000e+01
1.000000e+02
1.125000e+02
1.250000e+02
1.375000e+02
1.500000e+02
1.625000e+02
1.750000e+02
1.875000e+02
2.000000e+02
0.000000e+00
1.250000e+01
2.500000e+01
3.750000e+01
5.000000e+01
6.250000e+01
7.500000e+01
8.750000e+01
1.000000e+02
1.125000e+02
1.250000e+02
1.375000e+02
1.500000e+02
1.625000e+02
1.750000e+02
1.875000e+02
2.000000e+02
0.000000e+00
0.000000e+00
0.000000e+00
0.000000e+00
0.000000e+00
0.000000e+00
0.000000e+00
0.000000e+00
0.000000e+00
0.000000e+00
0.000000e+00
0.000000e+00
0.000000e+00
0.000000e+00
0.000000e+00
0.000000e+00
0.000000e+00
1.250000e+01
1.250000e+01
1.250000e+01
1.250000e+01
1.250000e+01
1.250000e+01
1.250000e+01
1.250000e+01
1.250000e+01
1.250000e+01
1.250000e+01
1.250000e+01
1.250000e+01
1.250000e+01
1.250000e+01
1.250000e+01
1.250000e+01
2.500000e+01
2.500000e+01
2.500000e+01
2.500000e+01
2.500000e+01
2.500000e+01
2.500000e+01
2.500000e+01
2.500000e+01
2.500000e+01
2.500000e+01
2.500000e+01
2.500000e+01
2.500000e+01
2.500000e+01
2.500000e+01
2.500000e+01
3.750000e+01
3.750000e+01
3.750000e+01
3.750000e+01
3.750000e+01
3.750000e+01
3.750000e+01
3.750000e+01
3.750000e+01
3.750000e+01
3.750000e+01
3.750000e+01
3.750000e+01
3.750000e+01
3.750000e+01
3.750000e+01
3.750000e+01
5.000000e+01
5.000000e+01
5.000000e+01
5.000000e+01
5.000000e+01
5.000000e+01
5.000000e+01
5.000000e+01
5.000000e+01
5.000000e+01
5.000000e+01
5.000000e+01
5.000000e+01
5.000000e+01
5.000000e+01
5.000000e+01
5.000000e+01
6.250000e+01
6.250000e+01
6.250000e+01
6.250000e+01
6.250000e+01
6.250000e+01
6.250000e+01
6.250000e+01
6.250000e+01
6.250000e+01
6.250000e+01
6.250000e+01
6.250000e+01
6.250000e+01
6.250000e+01
6.250000e+01
6.250000e+01
7.500000e+01
7.500000e+01
7.500000e+01
7.500000e+01
7.500000e+01
7.500000e+01
7.500000e+01
7.500000e+01
7.500000e+01
7.500000e+01
7.500000e+01
7.500000e+01
7.500000e+01
7.500000e+01
7.500000e+01
7.500000e+01
7.500000e+01
8.750000e+01
8.750000e+01
8.750000e+01
8.750000e+01
8.750000e+01
8.750000e+01
8.750000e+01
8.750000e+01
8.750000e+01
8.750000e+01
8.750000e+01
8.750000e+01
8.750000e+01
8.750000e+01
8.750000e+01
8.750000e+01
8.750000e+01
1.000000e+02
1.000000e+02
1.000000e+02
1.000000e+02
1.000000e+02
1.000000e+02
1.000000e+02
1.000000e+02
1.000000e+02
1.000000e+02
1.000000e+02
1.000000e+02
1.000000e+02
1.000000e+02
1.000000e+02
1.000000e+02
1.000000e+02
0.000000e+00
-7.439390e-01
-1.367939e+00
-1.959596e+00
-2.540959e+00
-3.103099e+00
-3.637363e+00
-4.137282e+00
-4.597904e+00
-5.016451e+00
-5.393365e+00
-5.733448e+00
-6.047724e+00
-6.356824e+00
-6.696618e+00
-7.109320e+00
-7.416892e+00
0.000000e+00
-4.339682e-01
-9.047858e-01
-1.354436e+00
-1.793044e+00
-2.215767e+00
-2.616985e+00
-2.992303e+00
-3.337985e+00
-3.651329e+00
-3.931063e+00
-4.177239e+00
-4.390165e+00
-4.566723e+00
-4.690788e+00
-4.718020e+00
-4.813706e+00
0.000000e+00
-2.650651e-01
-5.500974e-01
-8.477158e-01
-1.141327e+00
-1.424067e+00
-1.691748e+00
-1.941164e+00
-2.169252e+00
-2.373032e+00
-2.549431e+00
-2.694611e+00
-2.802517e+00
-2.863122e+00
-2.865307e+00
-2.841881e+00
-2.939763e+00
0.000000e+00
-1.260541e-01
-2.631045e-01
-4.084886e-01
-5.551442e-01
-6.966071e-01
-8.300086e-01
-9.531327e-01
-1.063610e+00
-1.158627e+00
-1.234692e+00
-1.287454e+00
-1.312089e+00
-1.306277e+00
-1.282482e+00
-1.288746e+00
-1.362089e+00
0.000000e+00
-2.339375e-04
-5.107258e-04
-7.838825e-04
-9.595772e-04
-8.282541e-04
2.919339e-05
2.369031e-03
7.436616e-03
1.709048e-02
3.375753e-02
5.988097e-02
9.614150e-02
1.372009e-01
1.657029e-01
1.583078e-01
1.094518e-01
0.000000e+00
1.256678e-01
2.622503e-01
4.071512e-01
5.534459e-01
6.949884e-01
8.295507e-01
9.560840e-01
1.074168e+00
1.183951e+00
1.285947e+00
1.380256e+00
1.464800e+00
1.532849e+00
1.573027e+00
1.576397e+00
1.551511e+00
0.000000e+00
2.648998e-01
5.497072e-01
8.470519e-01
1.140378e+00
1.422899e+00
1.690575e+00
1.940472e+00
2.170010e+00
2.377020e+00
2.559719e+00
2.716294e+00
2.844058e+00
2.938821e+00
2.995811e+00
3.014365e+00
3.008569e+00
0.000000e+00
4.340850e-01
9.050142e-01
1.354782e+00
1.793499e+00
2.216184e+00
2.616858e+00
2.990377e+00
3.331640e+00
3.635740e+00
3.898217e+00
4.115181e+00
4.283606e+00
4.402209e+00
4.473057e+00
4.503287e+00
4.508846e+00
0.000000e+00
7.441961e-01
1.368663e+00
1.961010e+00
2.543335e+00
3.106611e+00
3.641709e+00
4.140925e+00
4.596703e+00
5.001485e+00
5.347750e+00
5.628110e+00
5.836240e+00
5.969560e+00
6.034079e+00
6.049981e+00
6.049657e+00
0.000000e+00
-4.532338e-01
-9.055007e-01
-1.499618e+00
-2.234959e+00
-3.112306e+00
-4.126338e+00
-5.268955e+00
-6.529820e+00
-7.897537e+00
-9.360804e+00
-1.091025e+01
-1.254207e+01
-1.426588e+01
-1.613086e+01
-1.829124e+01
-2.147117e+01
0.000000e+00
-2.806402e-01
-7.507117e-01
-1.344955e+00
-2.084523e+00
-2.968189e+00
-3.990607e+00
-5.143128e+00
-6.415076e+00
-7.794521e+00
-9.269477e+00
-1.082981e+01
-1.247088e+01
-1.420212e+01
-1.606710e+01
-1.821404e+01
-2.088206e+01
0.000000e+00
-2.157398e-01
-6.442287e-01
-1.236182e+00
-1.977425e+00
-2.865856e+00
-3.894683e+00
-5.054983e+00
-6.335984e+00
-7.725742e+00
-9.212298e+00
-1.078569e+01
-1.244162e+01
-1.418795e+01
-1.605520e+01
-1.808017e+01
-2.003204e+01
0.000000e+00
-1.918997e-01
-5.930535e-01
-1.173271e+00
-1.914228e+00
-2.805486e+00
-3.838857e+00
-5.005028e+00
-6.293367e+00
-7.692171e+00
-9.189636e+00
-1.077548e+01
-1.244319e+01
-1.419172e+01
-1.601778e+01
-1.786304e+01
-1.954579e+01
0.000000e+00
-1.860054e-01
-5.781564e-01
-1.153562e+00
-1.893719e+00
-2.786399e+00
-3.822237e+00
-4.992025e+00
-6.285366e+00
-7.690738e+00
-9.196009e+00
-1.078916e+01
-1.245849e+01
-1.418989e+01
-1.595364e+01
-1.768144e+01
-1.925544e+01
0.000000e+00
-1.917517e-01
-5.929541e-01
-1.173456e+00
-1.915099e+00
-2.807749e+00
-3.843679e+00
-5.014164e+00
-6.309150e+00
-7.717106e+00
-9.225091e+00
-1.081851e+01
-1.247984e+01
-1.418496e+01
-1.589649e+01
-1.755757e+01
-1.909312e+01
0.000000e+00
-2.154952e-01
-6.440568e-01
-1.236473e+00
-1.978859e+00
-2.869635e+00
-3.902790e+00
-5.070409e+00
-6.362721e+00
-7.768114e+00
-9.272832e+00
-1.086007e+01
-1.250815e+01
-1.418806e+01
-1.586206e+01
-1.748695e+01
-1.902135e+01
0.000000e+00
-2.803960e-01
-7.505343e-01
-1.345306e+00
-2.086200e+00
-2.972580e+00
-3.999981e+00
-5.160882e+00
-6.445697e+00
-7.842785e+00
-9.338001e+00
-1.091350e+01
-1.254589e+01
-1.420467e+01
-1.585340e+01
-1.745771e+01
-1.900451e+01
0.000000e+00
-4.530766e-01
-9.054274e-01
-1.500126e+00
-2.236864e+00
-3.116974e+00
-4.135924e+00
-5.286561e+00
-6.559313e+00
-7.942559e+00
-9.422106e+00
-1.097999e+01
-1.259289e+01
-1.423113e+01
-1.586072e+01
-1.745235e+01
-1.900479e+01


0.000000e+00
4.770472e-06
9.760556e-06
1.412640e-05
1.787033e-05
2.097758e-05
2.344010e-05
2.530698e-05
2.666790e-05
2.762695e-05
2.828423e-05
2.872813e-05
2.903570e-05
2.927564e-05
2.950967e-05
2.982391e-05
3.022360e-05
0.000000e+00
3.449613e-06
7.795197e-06
1.116940e-05
1.394145e-05
1.620932e-05
1.797889e-05
1.929051e-05
2.022119e-05
2.085622e-05
2.127231e-05
2.153085e-05
2.167468e-05
2.173528e-05
2.180008e-05
2.205434e-05
2.246397e-05
0.000000e+00
2.539981e-06
5.333909e-06
7.596177e-06
9.477837e-06
1.098419e-05
1.213954e-05
1.298170e-05
1.356478e-05
1.394616e-05
1.417747e-05
1.430046e-05
1.434848e-05
1.436103e-05
1.441254e-05
1.461414e-05
1.494148e-05
0.000000e+00
1.276373e-06
2.506097e-06
3.674692e-06
4.657066e-06
5.432615e-06
6.020830e-06
6.447047e-06
6.737716e-06
6.920412e-06
7.022126e-06
7.068431e-06
7.086196e-06
7.107089e-06
7.159881e-06
7.278720e-06
7.470834e-06
0.000000e+00
-2.293046e-09
-4.877600e-09
-7.855471e-09
-1.156759e-08
-1.652034e-08
-2.343069e-08
-3.310328e-08
-4.616306e-08
-6.253159e-08
-8.049089e-08
-9.529651e-08
-9.847307e-08
-8.214679e-08
-4.874252e-08
4.003403e-09
9.654796e-08
0.000000e+00
-1.280678e-06
-2.515013e-06
-3.689165e-06
-4.678243e-06
-5.462212e-06
-6.061374e-06
-6.502088e-06
-6.811825e-06
-7.018675e-06
-7.148580e-06
-7.222545e-06
-7.256421e-06
-7.264443e-06
-7.262462e-06
-7.251951e-06
-7.215014e-06
0.000000e+00
-2.542978e-06
-5.341165e-06
-7.608634e-06
-9.496423e-06
-1.100915e-05
-1.217027e-05
-1.301707e-05
-1.360391e-05
-1.398959e-05
-1.422858e-05
-1.436693e-05
-1.444140e-05
-1.448029e-05
-1.450269e-05
-1.451199e-05
-1.450212e-05
0.000000e+00
-3.451210e-06
-7.800927e-06
-1.118001e-05
-1.395766e-05
-1.623015e-05
-1.800090e-05
-1.930821e-05
-2.022842e-05
-2.084804e-05
-2.124713e-05
-2.149311e-05
-2.163899e-05
-2.172335e-05
-2.177098e-05
-2.179348e-05
-2.179679e-05
0.000000e+00
-4.773356e-06
-9.766407e-06
-1.413560e-05
-1.788280e-05
-2.099131e-05
-2.345026e-05
-2.530639e-05
-2.664840e-05
-2.758078e-05
-2.820441e-05
-2.860644e-05
-2.885597e-05
-2.900318e-05
-2.908102e-05
-2.911104e-05
-2.911626e-05
0.000000e+00
4.264477e-06
7.417737e-06
1.083295e-05
1.506920e-05
2.007894e-05
2.573066e-05
3.189935e-05
3.846665e-05
4.532801e-05
5.239870e-05
5.961858e-05
6.695980e-05
7.446466e-05
8.235193e-05
9.076835e-05
9.932166e-05
0.000000e+00
2.173785e-06
5.358937e-06
9.024344e-06
1.354696e-05
1.885251e-05
2.479505e-05
3.121826e-05
3.799116e-05
4.500859e-05
5.219215e-05
5.949002e-05
6.688002e-05
7.438311e-05
8.209737e-05
9.025217e-05
9.864973e-05
0.000000e+00
9.703983e-07
3.784772e-06
7.680972e-06
1.242733e-05
1.795887e-05
2.411366e-05
3.072423e-05
3.765030e-05
4.478590e-05
5.205651e-05
5.941572e-05
6.684087e-05
7.431883e-05
8.184797e-05
8.970986e-05
9.786559e-05
0.000000e+00
5.647879e-07
3.102197e-06
7.007030e-06
1.187176e-05
1.751838e-05
2.377487e-05
3.047553e-05
3.747886e-05
4.467710e-05
5.199516e-05
5.938558e-05
6.681841e-05
7.426178e-05
8.170054e-05
8.934330e-05
9.720483e-05
0.000000e+00
4.840981e-07
2.925018e-06
6.793915e-06
1.169707e-05
1.738166e-05
2.367036e-05
3.039959e-05
3.742870e-05
4.464877e-05
5.198288e-05
5.938026e-05
6.680591e-05
7.422923e-05
8.164011e-05
8.915431e-05
9.675794e-05
0.000000e+00
5.652718e-07
3.102530e-06
7.007191e-06
1.187212e-05
1.751999e-05
2.377932e-05
3.048459e-05
3.749394e-05
4.469835e-05
5.201966e-05
5.940441e-05
6.681568e-05
7.422724e-05
8.163233e-05
8.907235e-05
9.651167e-05
0.000000e+00
9.712035e-07
3.785584e-06
7.681840e-06
1.242889e-05
1.796306e-05
2.412332e-05
3.074252e-05
3.767988e-05
4.482743e-05
5.210587e-05
5.945886e-05
6.684719e-05
7.424492e-05
8.164035e-05
8.903686e-05
9.639970e-05
0.000000e+00
2.175693e-06
5.362002e-06
9.028233e-06
1.355232e-05
1.886109e-05
2.480959e-05
3.124202e-05
3.802719e-05
4.505817e-05
5.225183e-05
5.954604e-05
6.689597e-05
7.427080e-05
8.165105e-05
8.902269e-05
9.636282e-05
0.000000e+00
4.268641e-06
7.424100e-06
1.084113e-05
1.507935e-05
2.009162e-05
2.574720e-05
3.192195e-05
3.849794e-05
4.536951e-05
5.244780e-05
5.966262e-05
6.696087e-05
7.430408e-05
8.166502e-05
8.902168e-05
9.635721e-05


2.060455e+00
2.061624e+00
2.147370e+00
2.288096e+00
2.412614e+00
2.519302e+00
2.610699e+00
2.684649e+00
2.740324e+00
2.779502e+00
2.805283e+00
2.820502e+00
2.824805e+00
2.810158e+00
2.778873e+00
2.755052e+00
2.228652e+00
2.226674e+00
2.290488e+00
2.400536e+00
2.499067e+00
2.583950e+00
2.657007e+00
2.716157e+00
2.760692e+00
2.792000e+00
2.812495e+00
2.824305e+00
2.826499e+00
2.810759e+00
2.780048e+00
2.757057e+00
2.502137e+00
2.496821e+00
2.529365e+00
2.588555e+00
2.642710e+00
2.691141e+00
2.733193e+00
2.767317e+00
2.793050e+00
2.811106e+00
2.822773e+00
2.829159e+00
2.829132e+00
2.815941e+00
2.791617e+00
2.774109e+00
2.691467e+00
2.686041e+00
2.696157e+00
2.718250e+00
2.742020e+00
2.764799e+00
2.784904e+00
2.801290e+00
2.813691e+00
2.822363e+00
2.827881e+00
2.830815e+00
2.830573e+00
2.823449e+00
2.810338e+00
2.801015e+00
2.691385e+00
2.685930e+00
2.695996e+00
2.718014e+00
2.741678e+00
2.764311e+00
2.784216e+00
2.800343e+00
2.812454e+00
2.820884e+00
2.826348e+00
2.829686e+00
2.831166e+00
2.829625e+00
2.825401e+00
2.822317e+00
2.501811e+00
2.496403e+00
2.528812e+00
2.587852e+00
2.641843e+00
2.690087e+00
2.731883e+00
2.765630e+00
2.790877e+00
2.808473e+00
2.820021e+00
2.827324e+00
2.831796e+00
2.833962e+00
2.834414e+00
2.834369e+00
2.228001e+00
2.225876e+00
2.289518e+00
2.399473e+00
2.498030e+00
2.583079e+00
2.656364e+00
2.715668e+00
2.760180e+00
2.791326e+00
2.811804e+00
2.824594e+00
2.832282e+00
2.836666e+00
2.838938e+00
2.839878e+00
2.059595e+00
2.060588e+00
2.146167e+00
2.286883e+00
2.411628e+00
2.518825e+00
2.610927e+00
2.685582e+00
2.741766e+00
2.781188e+00
2.807132e+00
2.823233e+00
2.832713e+00
2.838006e+00
2.840724e+00
2.841869e+00


-2.237267e-01
-5.229949e-02
5.103087e-02
8.835798e-02
1.492856e-01
2.315455e-01
3.265214e-01
4.277492e-01
5.281140e-01
6.203043e-01
6.982879e-01
7.578143e-01
7.964192e-01
8.128409e-01
8.267056e-01
2.454056e-01
5.542094e-01
4.614490e-01
4.752703e-01
4.938338e-01
5.252959e-01
5.676500e-01
6.170443e-01
6.713869e-01
7.283183e-01
7.854000e-01
8.407085e-01
8.928352e-01
9.394605e-01
9.706170e-01
8.968916e-01
-1.060302e-01
8.455835e-01
7.879512e-01
7.550592e-01
7.514610e-01
7.598677e-01
7.739958e-01
7.920755e-01
8.137781e-01
8.387577e-01
8.660562e-01
8.933544e-01
9.152950e-01
9.199982e-01
8.800969e-01
7.369687e-01
4.802992e-01
9.622370e-01
9.209230e-01
8.909000e-01
8.772007e-01
8.725181e-01
8.707385e-01
8.704393e-01
8.715213e-01
8.738479e-01
8.763987e-01
8.763894e-01
8.685143e-01
8.455265e-01
8.052841e-01
7.724331e-01
7.649535e-01
9.624591e-01
9.212201e-01
8.911831e-01
8.772231e-01
8.718075e-01
8.684792e-01
8.653150e-01
8.616285e-01
8.568180e-01
8.500071e-01
8.401825e-01
8.272900e-01
8.154049e-01
8.176439e-01
8.500976e-01
9.058066e-01
8.460670e-01
7.886194e-01
7.557360e-01
7.516738e-01
7.587184e-01
7.698822e-01
7.823662e-01
7.945744e-01
8.050194e-01
8.126032e-01
8.176844e-01
8.237457e-01
8.386660e-01
8.711451e-01
9.202639e-01
9.710470e-01
5.544603e-01
4.618105e-01
4.756047e-01
4.939466e-01
5.248362e-01
5.660274e-01
6.133016e-01
6.640222e-01
7.151269e-01
7.635598e-01
8.075401e-01
8.477762e-01
8.876473e-01
9.300421e-01
9.698690e-01
9.949646e-01
-2.242869e-01
-5.335399e-02
4.960082e-02
8.645174e-02
1.472933e-01
2.306940e-01
3.294049e-01
4.387589e-01
5.534143e-01
6.670683e-01
7.729851e-01
8.639194e-01
9.327974e-01
9.756614e-01
9.952299e-01
9.998994e-01
1 2 19 18
2 3 20 19
3 4 21 20
4 5 22 21
5 6 23 22
6 7 24 23
7 8 25 24
8 9 26 25
9 10 27 26
10 11 28 27
11 12 29 28
12 13 30 29
13 14 31 30
14 15 32 31
15 16 33 32
16 17 34 33
18 19 36 35
19 20 37 36
20 21 38 37
21 22 39 38
22 23 40 39
23 24 41 40
24 25 42 41
25 26 43 42
26 27 44 43
27 28 45 44
28 29 46 45
29 30 47 46
30 31 48 47
31 32 49 48
32 33 50 49
33 34 51 50
35 36 53 52
36 37 54 53
37 38 55 54
38 39 56 55
39 40 57 56
40 41 58 57
41 42 59 58
42 43 60 59
43 44 61 60
44 45 62 61
45 46 63 62
46 47 64 63
47 48 65 64
48 49 66 65
49 50 67 66
50 51 68 67
52 53 70 69
53 54 71 70
54 55 72 71
55 56 73 72
56 57 74 73
57 58 75 74
58 59 76 75
59 60 77 76
60 61 78 77
61 62 79 78
62 63 80 79
63 64 81 80
64 65 82 81
65 66 83 82
66 67 84 83
67 68 85 84
69 70 87 86
70 71 88 87
71 72 89 88
72 73 90 89
73 74 91 90
74 75 92 91
75 76 93 92
76 77 94 93
77 78 95 94
78 79 96 95
79 80 97 96
80 81 98 97
81 82 99 98
82 83 100 99
83 84 101 100
84 85 102 101
86 87 104 103
87 88 105 104
88 89 106 105
89 90 107 106
90 91 108 107
91 92 109 108
92 93 110 109
93 94 111 110
94 95 112 111
95 96 113 112
96 97 114 113
97 98 115 114
98 99 116 115
99 100 117 116
100 101 118 117
101 102 119 118
103 104 121 120
104 105 122 121
105 106 123 122
106 107 124 123
107 108 125 124
108 109 126 125
109 110 127 126
110 111 128 127
111 112 129 128
112 113 130 129
113 114 131 130
114 115 132 131
115 116 133 132
116 117 134 133
117 118 135 134
118 119 136 135
120 121 138 137
121 122 139 138
122 123 140 139
123 124 141 140
124 125 142 141
125 126 143 142
126 127 144 143
127 128 145 144
128 129 146 145
129 130 147 146
130 131 148 147
131 132 149 148
132 133 150 149
133 134 151 150
134 135 152 151
135 136 153 152
