TITLE = "Solution"
VARIABLES = x, y, u, v, psiu, psiv, t, stress
ZONE T="structure" N=153 E=128 F=FEBLOCK ET=QUADRILATERAL VARLOCATION=([7,8]=cellcentered)
0.000000e+00
1.250000e+01
2.500000e+01
3.750000e+01
5.000000e+01
6.250000e+01
7.500000e+01
8.750000e+01
1.000000e+02
1.125000e+02
1.250000e+02
1.375000e+02
1.500000e+02
1.625000e+02
1.750000e+02
1.875000e+02
2.000000e+02
0.000000e+00
1.250000e+01
2.500000e+01
3.750000e+01
5.000000e+01
6.250000e+01
7.500000e+01
8.750000e+01
1.000000e+02
1.125000e+02
1.250000e+02
1.375000e+02
1.500000e+02
1.625000e+02
1.750000e+02
1.875000e+02
2.000000e+02
0.000000e+00
1.250000e+01
2.500000e+01
3.750000e+01
5.000000e+01
6.250000e+01
7.500000e+01
8.750000e+01
1.000000e+02
1.125000e+02
1.250000e+02
1.375000e+02
1.500000e+02
1.625000e+02
1.750000e+02
1.875000e+02
2.000000e+02
0.000000e+00
1.250000e+01
2.500000e+01
3.750000e+01
5.000000e+01
6.250000e+01
7.500000e+01
8.750000e+01
1.000000e+02
1.125000e+02
1.250000e+02
1.375000e+02
1.500000e+02
1.625000e+02
1.750000e+02
1.875000e+02
2.000000e+02
0.000000e+00
1.250000e+01
2.500000e+01
3.750000e+01
5.000000e+01
6.250000e+01
7.500000e+01
8.750000e+01
1.000000e+02
1.125000e+02
1.250000e+02
1.375000e+02
1.500000e+02
1.625000e+02
1.750000e+02
1.875000e+02
2.000000e+02
0.000000e+00
1.250000e+01
2.500000e+01
3.750000e+01
5.000000e+01
6.250000e+01
7.500000e+01
8.750000e+01
1.000000e+02
1.125000e+02
1.250000e+02
1.375000e+02
1.500000e+02
1.625000e+02
1.750000e+02
1.875000e+02
2.000000e+02
0.000000e+00
1.250000e+01
2.500000e+01
3.750000e+01
5.000000e+01
6.250000e+01
7.500000e+01
8.750000e+01
1.000000e+02
1.125000e+02
1.250000e+02
1.375000e+02
1.500000e+02
1.625000e+02
1.750000e+02
1.875000e+02
2.000000e+02
0.000000e+00
1.250000e+01
2.500000e+01
3.750000e+01
5.000000e+01
6.250000e+01
7.500000e+01
8.750000e+01
1.000000e+02
1.125000e+02
1.250000e+02
1.375000e+02
1.500000e+02
1.625000e+02
1.750000e+02
1.875000e+02
2.000000e+02
0.000000e+00
1.250000e+01
2.500000e+01
3.750000e+01
5.000000e+01
6.250000e+01
7.500000e+01
8.750000e+01
1.000000e+02
1.125000e+02
1.250000e+02
1.375000e+02
1.500000e+02
1.625000e+02
1.750000e+02
1.875000e+02
2.000000e+02
0.000000e+00
0.000000e+00
0.000000e+00
0.000000e+00
0.000000e+00
0.000000e+00
0.000000e+00
0.000000e+00
0.000000e+00
0.000000e+00
0.000000e+00
0.000000e+00
0.000000e+00
0.000000e+00
0.000000e+00
0.000000e+00
0.000000e+00
1.250000e+01
1.250000e+01
1.250000e+01
1.250000e+01
1.250000e+01
1.250000e+01
1.250000e+01
1.250000e+01
1.250000e+01
1.250000e+01
1.250000e+01
1.250000e+01
1.250000e+01
1.250000e+01
1.250000e+01
1.250000e+01
1.250000e+01
2.500000e+01
2.500000e+01
2.500000e+01
2.500000e+01
2.500000e+01
2.500000e+01
2.500000e+01
2.500000e+01
2.500000e+01
2.500000e+01
2.500000e+01
2.500000e+01
2.500000e+01
2.500000e+01
2.500000e+01
2.500000e+01
2.500000e+01
3.750000e+01
3.750000e+01
3.750000e+01
3.750000e+01
3.750000e+01
3.750000e+01
3.750000e+01
3.750000e+01
3.750000e+01
3.750000e+01
3.750000e+01
3.750000e+01
3.750000e+01
3.750000e+01
3.750000e+01
3.750000e+01
3.750000e+01
5.000000e+01
5.000000e+01
5.000000e+01
5.000000e+01
5.000000e+01
5.000000e+01
5.000000e+01
5.000000e+01
5.000000e+01
5.000000e+01
5.000000e+01
5.000000e+01
5.000000e+01
5.000000e+01
5.000000e+01
5.000000e+01
5.000000e+01
6.250000e+01
6.250000e+01
6.250000e+01
6.250000e+01
6.250000e+01
6.250000e+01
6.250000e+01
6.250000e+01
6.250000e+01
6.250000e+01
6.250000e+01
6.250000e+01
6.250000e+01
6.250000e+01
6.250000e+01
6.250000e+01
6.250000e+01
7.500000e+01
7.500000e+01
7.500000e+01
7.500000e+01
7.500000e+01
7.500000e+01
7.500000e+01
7.500000e+01
7.500000e+01
7.500000e+01
7.500000e+01
7.500000e+01
7.500000e+01
7.500000e+01
7.500000e+01
7.500000e+01
7.500000e+01
8.750000e+01
8.750000e+01
8.750000e+01
8.750000e+01
8.750000e+01
8.750000e+01
8.750000e+01
8.750000e+01
8.750000e+01
8.750000e+01
8.750000e+01
8.750000e+01
8.750000e+01
8.750000e+01
8.750000e+01
8.750000e+01
8.750000e+01
1.000000e+02
1.000000e+02
1.000000e+02
1.000000e+02
1.000000e+02
1.000000e+02
1.000000e+02
1.000000e+02
1.000000e+02
1.000000e+02
1.000000e+02
1.000000e+02
1.000000e+02
1.000000e+02
1.000000e+02
1.000000e+02
1.000000e+02
0.000000e+00
-6.650318e-01
-1.224382e+00
-1.746503e+00
-2.245025e+00
-2.715678e+00
-3.153911e+00
-3.556597e+00
-3.922142e+00
-4.250602e+00
-4.544094e+00
-4.807601e+00
-5.050515e+00
-5.289531e+00
-5.553542e+00
-5.876531e+00
-6.118324e+00
0.000000e+00
-3.932599e-01
-8.185553e-01
-1.217553e+00
-1.594997e+00
-1.949623e+00
-2.279146e+00
-2.581744e+00
-2.856255e+00
-3.102262e+00
-3.320140e+00
-3.510883e+00
-3.675344e+00
-3.811567e+00
-3.907528e+00
-3.928574e+00
-4.003494e+00
0.000000e+00
-2.437142e-01
-5.032299e-01
-7.674680e-01
-1.020471e+00
-1.258005e+00
-1.478042e+00
-1.679281e+00
-1.860564e+00
-2.020701e+00
-2.158212e+00
-2.270767e+00
-2.354097e+00
-2.400717e+00
-2.402150e+00
-2.383741e+00
-2.460227e+00
0.000000e+00
-1.170111e-01
-2.422947e-01
-3.713070e-01
-4.977171e-01
-6.166580e-01
-7.263922e-01
-8.258274e-01
-9.137582e-01
-9.885629e-01
-1.047990e+00
-1.089004e+00
-1.108100e+00
-1.103623e+00
-1.085252e+00
-1.090209e+00
-1.147284e+00
0.000000e+00
-1.478450e-04
-3.291354e-04
-5.091443e-04
-6.151754e-04
-4.844061e-04
2.078954e-04
2.045301e-03
5.985990e-03
1.345769e-02
2.632353e-02
4.645661e-02
7.436874e-02
1.059342e-01
1.277773e-01
1.219035e-01
8.403484e-02
0.000000e+00
1.167739e-01
2.417591e-01
3.704611e-01
4.966540e-01
6.157152e-01
7.264012e-01
8.285203e-01
9.223670e-01
1.008599e+00
1.088045e+00
1.161092e+00
1.226342e+00
1.278738e+00
1.309602e+00
1.312102e+00
1.292857e+00
0.000000e+00
2.436383e-01
5.030418e-01
7.671377e-01
1.019990e+00
1.257413e+00
1.477486e+00
1.679112e+00
1.861513e+00
2.024133e+00
2.166500e+00
2.287860e+00
2.386560e+00
2.459620e+00
2.503504e+00
2.517768e+00
2.513282e+00
0.000000e+00
3.933966e-01
8.188477e-01
1.218021e+00
1.595634e+00
1.950290e+00
2.279408e+00
2.580580e+00
2.851602e+00
3.090391e+00
3.294895e+00
3.463095e+00
3.593273e+00
3.684789e+00
3.739409e+00
3.762707e+00
3.766988e+00
0.000000e+00
6.652834e-01
1.225068e+00
1.747823e+00
2.247189e+00
2.718793e+00
3.157684e+00
3.559762e+00
3.921444e+00
4.239139e+00
4.508871e+00
4.726230e+00
4.887147e+00
4.990082e+00
5.039877e+00
5.052162e+00
5.051920e+00
0.000000e+00
-4.037280e-01
-7.988062e-01
-1.314048e+00
-1.948969e+00
-2.703245e+00
-3.570136e+00
-4.541053e+00
-5.606260e+00
-6.755709e+00
-7.979846e+00
-9.270938e+00
-1.062583e+01
-1.205210e+01
-1.358840e+01
-1.535592e+01
-1.792372e+01
0.000000e+00
-2.491091e-01
-6.603910e-01
-1.179056e+00
-1.821242e+00
-2.583647e+00
-3.459706e+00
-4.440392e+00
-5.515675e+00
-6.675166e+00
-7.908911e+00
-9.208720e+00
-1.057087e+01
-1.200276e+01
-1.353866e+01
-1.529525e+01
-1.746144e+01
0.000000e+00
-1.893914e-01
-5.647221e-01
-1.083463e+00
-1.729610e+00
-2.498215e+00
-3.381272e+00
-4.369555e+00
-5.452985e+00
-6.621217e+00
-7.864405e+00
-9.174577e+00
-1.054833e+01
-1.199185e+01
-1.352926e+01
-1.519026e+01
-1.679505e+01
0.000000e+00
-1.653566e-01
-5.177693e-01
-1.027684e+00
-1.675018e+00
-2.447358e+00
-3.335240e+00
-4.329072e+00
-5.418920e+00
-6.594664e+00
-7.846620e+00
-9.166612e+00
-1.054958e+01
-1.199478e+01
-1.350005e+01
-1.502068e+01
-1.641551e+01
0.000000e+00
-1.587843e-01
-5.037624e-01
-1.010013e+00
-1.657145e+00
-2.431108e+00
-3.321354e+00
-4.318339e+00
-5.412319e+00
-6.593329e+00
-7.851441e+00
-9.177151e+00
-1.056140e+01
-1.199335e+01
-1.345029e+01
-1.487962e+01
-1.619020e+01
0.000000e+00
-1.652459e-01
-5.176913e-01
-1.027820e+00
-1.675684e+00
-2.449109e+00
-3.338986e+00
-4.336173e+00
-5.431175e+00
-6.613998e+00
-7.874076e+00
-9.199905e+00
-1.057792e+01
-1.198956e+01
-1.340610e+01
-1.478380e+01
-1.606472e+01
0.000000e+00
-1.892099e-01
-5.645908e-01
-1.083685e+00
-1.730722e+00
-2.501162e+00
-3.387603e+00
-4.381587e+00
-5.473793e+00
-6.654121e+00
-7.911332e+00
-9.232177e+00
-1.059985e+01
-1.199198e+01
-1.337955e+01
-1.472930e+01
-1.600933e+01
0.000000e+00
-2.489335e-01
-6.602673e-01
-1.179341e+00
-1.822565e+00
-2.587098e+00
-3.467056e+00
-4.454274e+00
-5.539548e+00
-6.712697e+00
-7.962097e+00
-9.273610e+00
-1.062903e+01
-1.200482e+01
-1.337289e+01
-1.470676e+01
-1.599633e+01
0.000000e+00
-4.036345e-01
-7.987849e-01
-1.314481e+00
-1.950493e+00
-2.706928e+00
-3.577655e+00
-4.554815e+00
-5.629252e+00
-6.790734e+00
-8.027470e+00
-9.325094e+00
-1.066535e+01
-1.202525e+01
-1.337854e+01
-1.470263e+01
-1.599653e+01


0.000000e+00
2.373032e-06
4.881363e-06
7.034486e-06
8.796069e-06
1.019004e-05
1.125880e-05
1.205496e-05
1.263193e-05
1.303942e-05
1.332088e-05
1.351310e-05
1.364757e-05
1.375215e-05
1.385202e-05
1.398103e-05
1.414093e-05
0.000000e+00
1.690277e-06
3.871157e-06
5.551901e-06
6.854464e-06
7.859518e-06
8.616323e-06
9.169675e-06
9.562287e-06
9.832348e-06
1.001167e-05
1.012501e-05
1.018975e-05
1.021949e-05
1.025055e-05
1.035539e-05
1.051952e-05
0.000000e+00
1.245402e-06
2.650102e-06
3.776013e-06
4.661422e-06
5.330976e-06
5.823384e-06
6.174474e-06
6.416078e-06
6.575071e-06
6.673007e-06
6.726456e-06
6.748731e-06
6.756133e-06
6.779307e-06
6.861965e-06
6.993756e-06
0.000000e+00
6.367375e-07
1.266270e-06
1.837957e-06
2.300426e-06
2.648366e-06
2.900099e-06
3.076120e-06
3.193846e-06
3.267482e-06
3.308718e-06
3.327769e-06
3.335263e-06
3.343942e-06
3.365897e-06
3.415246e-06
3.494183e-06
0.000000e+00
-9.960087e-10
-2.138314e-09
-3.502576e-09
-5.242978e-09
-7.563760e-09
-1.074145e-08
-1.509491e-08
-2.088656e-08
-2.810311e-08
-3.605384e-08
-4.278521e-08
-4.478836e-08
-3.872431e-08
-2.503582e-08
-2.273999e-09
3.715134e-08
0.000000e+00
-6.386205e-07
-1.270226e-06
-1.844434e-06
-2.309979e-06
-2.661793e-06
-2.918544e-06
-3.101164e-06
-3.227515e-06
-3.312033e-06
-3.365974e-06
-3.397608e-06
-3.412913e-06
-3.417256e-06
-3.416672e-06
-3.411616e-06
-3.395340e-06
0.000000e+00
-1.246829e-06
-2.653522e-06
-3.781689e-06
-4.669584e-06
-5.341705e-06
-5.836633e-06
-6.190114e-06
-6.434090e-06
-6.595898e-06
-6.698078e-06
-6.758776e-06
-6.792404e-06
-6.810277e-06
-6.820288e-06
-6.824100e-06
-6.819637e-06
0.000000e+00
-1.691246e-06
-3.874257e-06
-5.557083e-06
-6.861567e-06
-7.867959e-06
-8.624966e-06
-9.176839e-06
-9.565982e-06
-9.830763e-06
-1.000395e-05
-1.011249e-05
-1.017771e-05
-1.021558e-05
-1.023679e-05
-1.024666e-05
-1.024811e-05
0.000000e+00
-2.374675e-06
-4.884744e-06
-7.039372e-06
-8.801904e-06
-1.019572e-05
-1.126252e-05
-1.205427e-05
-1.262394e-05
-1.302106e-05
-1.328892e-05
-1.346340e-05
-1.357271e-05
-1.363757e-05
-1.367193e-05
-1.368523e-05
-1.368760e-05
0.000000e+00
2.134213e-06
3.730668e-06
5.403797e-06
7.441217e-06
9.846775e-06
1.255771e-05
1.550533e-05
1.862820e-05
2.187697e-05
2.521421e-05
2.861440e-05
3.206631e-05
3.558796e-05
3.926556e-05
4.315150e-05
4.708835e-05
0.000000e+00
1.103477e-06
2.705803e-06
4.533482e-06
6.748322e-06
9.314090e-06
1.216207e-05
1.522012e-05
1.842876e-05
2.174179e-05
2.512557e-05
2.855824e-05
3.203059e-05
3.555139e-05
3.916055e-05
4.294455e-05
4.682086e-05
0.000000e+00
5.104415e-07
1.921267e-06
3.874912e-06
6.227050e-06
8.918608e-06
1.187085e-05
1.501253e-05
1.828603e-05
2.164791e-05
2.506754e-05
2.852559e-05
3.201240e-05
3.552265e-05
3.905780e-05
4.272622e-05
4.650666e-05
0.000000e+00
2.963735e-07
1.574607e-06
3.537642e-06
5.957210e-06
8.715182e-06
1.172233e-05
1.490760e-05
1.821516e-05
2.160317e-05
2.504212e-05
2.851279e-05
3.200259e-05
3.549845e-05
3.899570e-05
4.257539e-05
4.623761e-05
0.000000e+00
2.498461e-07
1.484008e-06
3.432835e-06
5.871738e-06
8.651195e-06
1.167636e-05
1.487597e-05
1.819503e-05
2.159212e-05
2.503755e-05
2.851098e-05
3.199776e-05
3.548499e-05
3.896844e-05
4.249378e-05
4.605155e-05
0.000000e+00
2.966142e-07
1.574892e-06
3.538031e-06
5.957839e-06
8.716390e-06
1.172467e-05
1.491176e-05
1.822178e-05
2.161242e-05
2.505290e-05
2.852143e-05
3.200239e-05
3.548431e-05
3.896351e-05
4.245643e-05
4.594693e-05
0.000000e+00
5.108665e-07
1.921898e-06
3.875867e-06
6.228562e-06
8.921318e-06
1.187576e-05
1.502090e-05
1.829904e-05
2.166602e-05
2.508918e-05
2.854491e-05
3.201636e-05
3.549200e-05
3.896619e-05
4.244002e-05
4.589865e-05
0.000000e+00
1.104473e-06
2.707528e-06
4.535796e-06
6.751467e-06
9.318714e-06
1.216923e-05
1.523115e-05
1.844498e-05
2.176382e-05
2.515203e-05
2.858319e-05
3.203814e-05
3.550352e-05
3.897068e-05
4.243359e-05
4.588254e-05
0.000000e+00
2.136377e-06
3.733950e-06
5.407867e-06
7.446129e-06
9.852881e-06
1.256572e-05
1.551624e-05
1.864306e-05
2.189630e-05
2.523672e-05
2.863439e-05
3.206702e-05
3.551837e-05
3.897685e-05
4.243313e-05
4.588003e-05


1.896590e+00
1.899116e+00
1.935507e+00
1.994057e+00
2.045166e+00
2.085568e+00
2.116869e+00
2.140310e+00
2.157122e+00
2.168644e+00
2.176142e+00
2.180570e+00
2.181903e+00
2.177987e+00
2.169505e+00
2.163054e+00
1.957121e+00
1.958104e+00
1.985823e+00
2.032329e+00
2.073302e+00
2.105720e+00
2.130854e+00
2.149636e+00
2.163084e+00
2.172285e+00
2.178241e+00
2.181676e+00
2.182383e+00
2.178122e+00
2.169760e+00
2.163517e+00
2.057320e+00
2.056350e+00
2.071181e+00
2.097142e+00
2.120367e+00
2.139225e+00
2.153880e+00
2.164792e+00
2.172575e+00
2.177870e+00
2.181247e+00
2.183092e+00
2.183116e+00
2.179487e+00
2.172824e+00
2.168057e+00
2.127955e+00
2.126447e+00
2.131824e+00
2.142435e+00
2.153146e+00
2.162326e+00
2.169539e+00
2.174877e+00
2.178646e+00
2.181174e+00
2.182748e+00
2.183574e+00
2.183496e+00
2.181507e+00
2.177900e+00
2.175366e+00
2.127918e+00
2.126410e+00
2.131775e+00
2.142364e+00
2.153036e+00
2.162171e+00
2.169323e+00
2.174582e+00
2.178266e+00
2.180724e+00
2.182284e+00
2.183229e+00
2.183647e+00
2.183225e+00
2.182082e+00
2.181268e+00
2.057184e+00
2.056197e+00
2.071006e+00
2.096925e+00
2.120098e+00
2.138893e+00
2.153459e+00
2.164248e+00
2.171884e+00
2.177049e+00
2.180401e+00
2.182523e+00
2.183835e+00
2.184490e+00
2.184667e+00
2.184694e+00
1.956857e+00
1.957808e+00
1.985500e+00
2.032003e+00
2.072992e+00
2.105449e+00
2.130621e+00
2.149421e+00
2.162851e+00
2.172013e+00
2.177987e+00
2.181729e+00
2.183999e+00
2.185311e+00
2.186007e+00
2.186303e+00
1.896250e+00
1.898728e+00
1.935100e+00
1.993685e+00
2.044883e+00
2.085423e+00
2.116894e+00
2.140505e+00
2.157451e+00
2.169056e+00
2.176633e+00
2.181347e+00
2.184146e+00
2.185726e+00
2.186546e+00
2.186895e+00


1.218967e-02
1.499102e-01
2.581239e-01
3.278831e-01
4.028689e-01
4.825802e-01
5.627986e-01
6.394725e-01
7.093191e-01
7.697484e-01
8.188811e-01
8.554114e-01
8.784662e-01
8.872473e-01
8.940164e-01
5.343767e-01
6.319802e-01
5.625031e-01
5.901225e-01
6.273346e-01
6.675541e-01
7.096854e-01
7.519960e-01
7.933356e-01
8.328409e-01
8.699653e-01
9.044587e-01
9.361520e-01
9.640563e-01
9.824639e-01
9.369799e-01
3.197040e-01
8.722827e-01
8.312045e-01
8.140177e-01
8.208534e-01
8.346064e-01
8.503016e-01
8.667117e-01
8.836831e-01
9.012107e-01
9.190322e-01
9.360959e-01
9.494887e-01
9.523087e-01
9.280891e-01
8.405715e-01
6.833338e-01
9.720369e-01
9.425528e-01
9.228587e-01
9.158256e-01
9.152806e-01
9.164731e-01
9.182536e-01
9.204963e-01
9.230932e-01
9.254428e-01
9.259396e-01
9.215077e-01
9.078900e-01
8.836682e-01
8.633988e-01
8.584484e-01
9.721668e-01
9.427313e-01
9.230228e-01
9.158150e-01
9.147991e-01
9.150218e-01
9.150446e-01
9.144077e-01
9.127434e-01
9.095478e-01
9.042710e-01
8.969542e-01
8.900744e-01
8.914127e-01
9.106051e-01
9.437300e-01
8.725492e-01
8.315846e-01
8.143887e-01
8.209127e-01
8.337978e-01
8.476484e-01
8.606370e-01
8.718816e-01
8.807280e-01
8.868527e-01
8.908014e-01
8.949092e-01
9.040260e-01
9.234054e-01
9.525906e-01
9.827677e-01
6.320433e-01
5.625988e-01
5.901774e-01
6.272495e-01
6.671438e-01
7.086136e-01
7.496891e-01
7.888778e-01
8.248953e-01
8.568416e-01
8.845721e-01
9.092006e-01
9.331690e-01
9.584313e-01
9.820966e-01
9.970050e-01
1.161567e-02
1.489324e-01
2.568533e-01
3.263401e-01
4.013888e-01
4.820036e-01
5.647183e-01
6.464409e-01
7.248641e-01
7.979910e-01
8.635886e-01
9.186988e-01
9.599742e-01
9.855236e-01
9.971628e-01
9.999399e-01
1 2 19 18
2 3 20 19
3 4 21 20
4 5 22 21
5 6 23 22
6 7 24 23
7 8 25 24
8 9 26 25
9 10 27 26
10 11 28 27
11 12 29 28
12 13 30 29
13 14 31 30
14 15 32 31
15 16 33 32
16 17 34 33
18 19 36 35
19 20 37 36
20 21 38 37
21 22 39 38
22 23 40 39
23 24 41 40
24 25 42 41
25 26 43 42
26 27 44 43
27 28 45 44
28 29 46 45
29 30 47 46
30 31 48 47
31 32 49 48
32 33 50 49
33 34 51 50
35 36 53 52
36 37 54 53
37 38 55 54
38 39 56 55
39 40 57 56
40 41 58 57
41 42 59 58
42 43 60 59
43 44 61 60
44 45 62 61
45 46 63 62
46 47 64 63
47 48 65 64
48 49 66 65
49 50 67 66
50 51 68 67
52 53 70 69
53 54 71 70
54 55 72 71
55 56 73 72
56 57 74 73
57 58 75 74
58 59 76 75
59 60 77 76
60 61 78 77
61 62 79 78
62 63 80 79
63 64 81 80
64 65 82 81
65 66 83 82
66 67 84 83
67 68 85 84
69 70 87 86
70 71 88 87
71 72 89 88
72 73 90 89
73 74 91 90
74 75 92 91
75 76 93 92
76 77 94 93
77 78 95 94
78 79 96 95
79 80 97 96
80 81 98 97
81 82 99 98
82 83 100 99
83 84 101 100
84 85 102 101
86 87 104 103
87 88 105 104
88 89 106 105
89 90 107 106
90 91 108 107
91 92 109 108
92 93 110 109
93 94 111 110
94 95 112 111
95 96 113 112
96 97 114 113
97 98 115 114
98 99 116 115
99 100 117 116
100 101 118 117
101 102 119 118
103 104 121 120
104 105 122 121
105 106 123 122
106 107 124 123
107 108 125 124
108 109 126 125
109 110 127 126
110 111 128 127
111 112 129 128
112 113 130 129
113 114 131 130
114 115 132 131
115 116 133 132
116 117 134 133
117 118 135 134
118 119 136 135
120 121 138 137
121 122 139 138
122 123 140 139
123 124 141 140
124 125 142 141
125 126 143 142
126 127 144 143
127 128 145 144
128 129 146 145
129 130 147 146
130 131 148 147
131 132 149 148
132 133 150 149
133 134 151 150
134 135 152 151
135 136 153 152
