TITLE = "Solution"
VARIABLES = x, y, u, v, psiu, psiv, t, stress
ZONE T="structure" N=153 E=128 F=FEBLOCK ET=QUADRILATERAL VARLOCATION=([7,8]=cellcentered)
0.000000e+00
1.250000e+01
2.500000e+01
3.750000e+01
5.000000e+01
6.250000e+01
7.500000e+01
8.750000e+01
1.000000e+02
1.125000e+02
1.250000e+02
1.375000e+02
1.500000e+02
1.625000e+02
1.750000e+02
1.875000e+02
2.000000e+02
0.000000e+00
1.250000e+01
2.500000e+01
3.750000e+01
5.000000e+01
6.250000e+01
7.500000e+01
8.750000e+01
1.000000e+02
1.125000e+02
1.250000e+02
1.375000e+02
1.500000e+02
1.625000e+02
1.750000e+02
1.875000e+02
2.000000e+02
0.000000e+00
1.250000e+01
2.500000e+01
3.750000e+01
5.000000e+01
6.250000e+01
7.500000e+01
8.750000e+01
1.000000e+02
1.125000e+02
1.250000e+02
1.375000e+02
1.500000e+02
1.625000e+02
1.750000e+02
1.875000e+02
2.000000e+02
0.000000e+00
1.250000e+01
2.500000e+01
3.750000e+01
5.000000e+01
6.250000e+01
7.500000e+01
8.750000e+01
1.000000e+02
1.125000e+02
1.250000e+02
1.375000e+02
1.500000e+02
1.625000e+02
1.750000e+02
1.875000e+02
2.000000e+02
0.000000e+00
1.250000e+01
2.500000e+01
3.750000e+01
5.000000e+01
6.250000e+01
7.500000e+01
8.750000e+01
1.000000e+02
1.125000e+02
1.250000e+02
1.375000e+02
1.500000e+02
1.625000e+02
1.750000e+02
1.875000e+02
2.000000e+02
0.000000e+00
1.250000e+01
2.500000e+01
3.750000e+01
5.000000e+01
6.250000e+01
7.500000e+01
8.750000e+01
1.000000e+02
1.125000e+02
1.250000e+02
1.375000e+02
1.500000e+02
1.625000e+02
1.750000e+02
1.875000e+02
2.000000e+02
0.000000e+00
1.250000e+01
2.500000e+01
3.750000e+01
5.000000e+01
6.250000e+01
7.500000e+01
8.750000e+01
1.000000e+02
1.125000e+02
1.250000e+02
1.375000e+02
1.500000e+02
1.625000e+02
1.750000e+02
1.875000e+02
2.000000e+02
0.000000e+00
1.250000e+01
2.500000e+01
3.750000e+01
5.000000e+01
6.250000e+01
7.500000e+01
8.750000e+01
1.000000e+02
1.125000e+02
1.250000e+02
1.375000e+02
1.500000e+02
1.625000e+02
1.750000e+02
1.875000e+02
2.000000e+02
0.000000e+00
1.250000e+01
2.500000e+01
3.750000e+01
5.000000e+01
6.250000e+01
7.500000e+01
8.750000e+01
1.000000e+02
1.125000e+02
1.250000e+02
1.375000e+02
1.500000e+02
1.625000e+02
1.750000e+02
1.875000e+02
2.000000e+02
0.000000e+00
0.000000e+00
0.000000e+00
0.000000e+00
0.000000e+00
0.000000e+00
0.000000e+00
0.000000e+00
0.000000e+00
0.000000e+00
0.000000e+00
0.000000e+00
0.000000e+00
0.000000e+00
0.000000e+00
0.000000e+00
0.000000e+00
1.250000e+01
1.250000e+01
1.250000e+01
1.250000e+01
1.250000e+01
1.250000e+01
1.250000e+01
1.250000e+01
1.250000e+01
1.250000e+01
1.250000e+01
1.250000e+01
1.250000e+01
1.250000e+01
1.250000e+01
1.250000e+01
1.250000e+01
2.500000e+01
2.500000e+01
2.500000e+01
2.500000e+01
2.500000e+01
2.500000e+01
2.500000e+01
2.500000e+01
2.500000e+01
2.500000e+01
2.500000e+01
2.500000e+01
2.500000e+01
2.500000e+01
2.500000e+01
2.500000e+01
2.500000e+01
3.750000e+01
3.750000e+01
3.750000e+01
3.750000e+01
3.750000e+01
3.750000e+01
3.750000e+01
3.750000e+01
3.750000e+01
3.750000e+01
3.750000e+01
3.750000e+01
3.750000e+01
3.750000e+01
3.750000e+01
3.750000e+01
3.750000e+01
5.000000e+01
5.000000e+01
5.000000e+01
5.000000e+01
5.000000e+01
5.000000e+01
5.000000e+01
5.000000e+01
5.000000e+01
5.000000e+01
5.000000e+01
5.000000e+01
5.000000e+01
5.000000e+01
5.000000e+01
5.000000e+01
5.000000e+01
6.250000e+01
6.250000e+01
6.250000e+01
6.250000e+01
6.250000e+01
6.250000e+01
6.250000e+01
6.250000e+01
6.250000e+01
6.250000e+01
6.250000e+01
6.250000e+01
6.250000e+01
6.250000e+01
6.250000e+01
6.250000e+01
6.250000e+01
7.500000e+01
7.500000e+01
7.500000e+01
7.500000e+01
7.500000e+01
7.500000e+01
7.500000e+01
7.500000e+01
7.500000e+01
7.500000e+01
7.500000e+01
7.500000e+01
7.500000e+01
7.500000e+01
7.500000e+01
7.500000e+01
7.500000e+01
8.750000e+01
8.750000e+01
8.750000e+01
8.750000e+01
8.750000e+01
8.750000e+01
8.750000e+01
8.750000e+01
8.750000e+01
8.750000e+01
8.750000e+01
8.750000e+01
8.750000e+01
8.750000e+01
8.750000e+01
8.750000e+01
8.750000e+01
1.000000e+02
1.000000e+02
1.000000e+02
1.000000e+02
1.000000e+02
1.000000e+02
1.000000e+02
1.000000e+02
1.000000e+02
1.000000e+02
1.000000e+02
1.000000e+02
1.000000e+02
1.000000e+02
1.000000e+02
1.000000e+02
1.000000e+02
0.000000e+00
-8.443012e-01
-1.523269e+00
-2.186167e+00
-2.861946e+00
-3.521143e+00
-4.174033e+00
-4.826594e+00
-5.474611e+00
-6.113908e+00
-6.737002e+00
-7.334255e+00
-7.903938e+00
-8.460213e+00
-9.029359e+00
-9.644149e+00
-1.007101e+01
0.000000e+00
-4.594901e-01
-9.550520e-01
-1.447666e+00
-1.953605e+00
-2.447398e+00
-2.935508e+00
-3.422837e+00
-3.906095e+00
-4.381265e+00
-4.840697e+00
-5.272017e+00
-5.661798e+00
-5.991242e+00
-6.215513e+00
-6.265838e+00
-6.408068e+00
0.000000e+00
-2.528340e-01
-5.343629e-01
-8.533097e-01
-1.187833e+00
-1.519227e+00
-1.849162e+00
-2.177113e+00
-2.499000e+00
-2.809271e+00
-3.098342e+00
-3.351684e+00
-3.550290e+00
-3.669024e+00
-3.683275e+00
-3.651389e+00
-3.799380e+00
0.000000e+00
-1.110833e-01
-2.389029e-01
-3.907734e-01
-5.546549e-01
-7.217006e-01
-8.888616e-01
-1.052964e+00
-1.210050e+00
-1.354337e+00
-1.477068e+00
-1.566538e+00
-1.609823e+00
-1.598973e+00
-1.554749e+00
-1.561530e+00
-1.680445e+00
0.000000e+00
-6.143915e-04
-1.264015e-03
-1.832299e-03
-2.091251e-03
-1.623709e-03
3.084915e-04
4.985036e-03
1.458918e-02
3.258010e-02
6.370398e-02
1.129809e-01
1.823787e-01
2.626402e-01
3.211922e-01
3.138105e-01
2.290298e-01
0.000000e+00
1.100415e-01
2.367319e-01
3.875461e-01
5.507923e-01
7.182962e-01
8.881892e-01
1.059388e+00
1.231422e+00
1.403912e+00
1.575590e+00
1.743319e+00
1.899866e+00
2.029770e+00
2.109046e+00
2.118813e+00
2.074028e+00
0.000000e+00
2.523016e-01
5.331754e-01
8.513726e-01
1.185164e+00
1.516050e+00
1.846101e+00
2.175754e+00
2.502328e+00
2.821536e+00
3.125027e+00
3.400609e+00
3.634461e+00
3.812217e+00
3.920800e+00
3.956874e+00
3.946544e+00
0.000000e+00
4.595974e-01
9.551396e-01
1.447628e+00
1.953275e+00
2.446299e+00
2.932747e+00
3.417337e+00
3.895876e+00
4.360132e+00
4.793894e+00
5.174440e+00
5.481052e+00
5.701416e+00
5.834349e+00
5.891272e+00
5.901820e+00
0.000000e+00
8.448300e-01
1.524488e+00
2.188266e+00
2.865057e+00
3.524992e+00
4.177851e+00
4.829144e+00
5.472287e+00
6.094274e+00
6.669397e+00
7.162083e+00
7.540209e+00
7.786314e+00
7.905828e+00
7.934840e+00
7.933978e+00
0.000000e+00
-5.199290e-01
-1.075264e+00
-1.812044e+00
-2.715598e+00
-3.785260e+00
-5.027104e+00
-6.441161e+00
-8.025203e+00
-9.776021e+00
-1.168684e+01
-1.374903e+01
-1.595857e+01
-1.832606e+01
-2.091541e+01
-2.394113e+01
-2.841935e+01
0.000000e+00
-3.286416e-01
-9.082968e-01
-1.637172e+00
-2.541137e+00
-3.613789e+00
-4.856541e+00
-6.271555e+00
-7.857926e+00
-9.613023e+00
-1.153137e+01
-1.360454e+01
-1.582732e+01
-1.821218e+01
-2.081591e+01
-2.383468e+01
-2.757260e+01
0.000000e+00
-2.686624e-01
-7.978620e-01
-1.519343e+00
-2.419259e+00
-3.492027e+00
-4.736198e+00
-6.153593e+00
-7.744153e+00
-9.506365e+00
-1.143595e+01
-1.352550e+01
-1.577092e+01
-1.818417e+01
-2.080084e+01
-2.364537e+01
-2.634943e+01
0.000000e+00
-2.625773e-01
-7.547817e-01
-1.456885e+00
-2.349604e+00
-3.420485e+00
-4.666442e+00
-6.087819e+00
-7.684994e+00
-9.457358e+00
-1.140115e+01
-1.350870e+01
-1.577258e+01
-1.819014e+01
-2.074389e+01
-2.331516e+01
-2.559928e+01
0.000000e+00
-2.652676e-01
-7.459667e-01
-1.439522e+00
-2.328191e+00
-3.398873e+00
-4.647062e+00
-6.072673e+00
-7.676626e+00
-9.458847e+00
-1.141506e+01
-1.353459e+01
-1.580076e+01
-1.818764e+01
-2.063485e+01
-2.301115e+01
-2.510377e+01
0.000000e+00
-2.624045e-01
-7.548998e-01
-1.457831e+00
-2.352174e+00
-3.425837e+00
-4.676230e+00
-6.104637e+00
-7.712856e+00
-9.501194e+00
-1.146417e+01
-1.358619e+01
-1.583936e+01
-1.817889e+01
-2.053185e+01
-2.278882e+01
-2.480923e+01
0.000000e+00
-2.683593e-01
-7.980148e-01
-1.520801e+00
-2.423338e+00
-3.500654e+00
-4.752164e+00
-6.181306e+00
-7.790448e+00
-9.579772e+00
-1.154230e+01
-1.365781e+01
-1.588986e+01
-1.818409e+01
-2.046773e+01
-2.265781e+01
-2.467655e+01
0.000000e+00
-3.283363e-01
-9.084570e-01
-1.638767e+00
-2.545655e+00
-3.623406e+00
-4.874491e+00
-6.302965e+00
-7.910507e+00
-9.696036e+00
-1.165061e+01
-1.375120e+01
-1.595802e+01
-1.821442e+01
-2.045113e+01
-2.260289e+01
-2.464580e+01
0.000000e+00
-5.197663e-01
-1.075554e+00
-1.813811e+00
-2.720302e+00
-3.795006e+00
-5.045121e+00
-6.472528e+00
-8.076807e+00
-9.854588e+00
-1.179372e+01
-1.386972e+01
-1.604404e+01
-1.826339e+01
-2.046454e+01
-2.259271e+01
-2.464658e+01


0.000000e+00
1.111934e-05
2.124244e-05
3.113274e-05
4.199106e-05
5.261596e-05
6.240939e-05
7.151340e-05
7.975723e-05
8.662320e-05
9.176239e-05
9.527996e-05
9.764928e-05
9.948718e-05
1.012238e-04
1.035795e-04
1.065597e-04
0.000000e+00
8.189502e-06
1.714315e-05
2.457637e-05
3.291605e-05
4.107565e-05
4.838633e-05
5.512070e-05
6.120461e-05
6.612012e-05
6.955418e-05
7.162515e-05
7.263939e-05
7.284545e-05
7.302563e-05
7.493239e-05
7.818354e-05
0.000000e+00
6.224023e-06
1.228429e-05
1.741204e-05
2.303685e-05
2.836573e-05
3.313651e-05
3.746613e-05
4.125450e-05
4.421475e-05
4.619815e-05
4.727002e-05
4.761852e-05
4.756666e-05
4.779308e-05
4.948490e-05
5.237536e-05
0.000000e+00
3.120853e-06
5.762426e-06
8.716443e-06
1.147984e-05
1.402809e-05
1.638356e-05
1.848388e-05
2.023961e-05
2.158763e-05
2.248757e-05
2.296464e-05
2.316452e-05
2.336008e-05
2.382555e-05
2.491042e-05
2.664525e-05
0.000000e+00
-8.827315e-09
-1.814333e-08
-2.726470e-08
-3.635400e-08
-4.619871e-08
-5.965017e-08
-8.725768e-08
-1.471293e-07
-2.506544e-07
-3.839585e-07
-4.990384e-07
-5.099555e-07
-3.276516e-07
-1.453264e-08
3.883903e-07
1.129476e-06
0.000000e+00
-3.136690e-06
-5.793575e-06
-8.764243e-06
-1.154452e-05
-1.410725e-05
-1.647708e-05
-1.860562e-05
-2.042593e-05
-2.189031e-05
-2.295795e-05
-2.361675e-05
-2.391502e-05
-2.396797e-05
-2.396221e-05
-2.394650e-05
-2.371153e-05
0.000000e+00
-6.231479e-06
-1.230216e-05
-1.744573e-05
-2.308808e-05
-2.842886e-05
-3.321256e-05
-3.755080e-05
-4.129674e-05
-4.413783e-05
-4.599449e-05
-4.705634e-05
-4.760061e-05
-4.787795e-05
-4.805893e-05
-4.816606e-05
-4.811825e-05
0.000000e+00
-8.188649e-06
-1.714441e-05
-2.458632e-05
-3.293677e-05
-4.110025e-05
-4.842641e-05
-5.517919e-05
-6.116774e-05
-6.576486e-05
-6.875174e-05
-7.048311e-05
-7.145379e-05
-7.201327e-05
-7.234583e-05
-7.251308e-05
-7.254120e-05
0.000000e+00
-1.111851e-05
-2.123328e-05
-3.111585e-05
-4.196423e-05
-5.257074e-05
-6.235355e-05
-7.144830e-05
-7.957340e-05
-8.608043e-05
-9.067242e-05
-9.361191e-05
-9.538462e-05
-9.640140e-05
-9.692535e-05
-9.711939e-05
-9.715009e-05
0.000000e+00
9.643177e-06
1.639820e-05
2.494881e-05
3.633924e-05
4.977445e-05
6.552416e-05
8.372640e-05
1.039024e-04
1.255068e-04
1.482336e-04
1.719335e-04
1.965504e-04
2.224494e-04
2.516485e-04
2.854568e-04
3.200756e-04
0.000000e+00
5.090991e-06
1.218822e-05
2.037640e-05
3.145520e-05
4.515806e-05
6.130611e-05
7.985386e-05
1.005504e-04
1.229232e-04
1.464887e-04
1.708928e-04
1.959869e-04
2.219874e-04
2.496901e-04
2.813517e-04
3.148875e-04
0.000000e+00
2.267353e-06
8.673754e-06
1.701216e-05
2.792598e-05
4.183861e-05
5.833056e-05
7.718763e-05
9.827525e-05
1.211889e-04
1.453487e-04
1.702801e-04
1.957537e-04
2.215816e-04
2.475258e-04
2.765622e-04
3.082628e-04
0.000000e+00
1.308048e-06
6.990893e-06
1.541768e-05
2.646998e-05
4.044986e-05
5.706996e-05
7.610416e-05
9.736779e-05
1.204691e-04
1.448469e-04
1.699935e-04
1.955534e-04
2.211379e-04
2.462110e-04
2.731809e-04
3.025683e-04
0.000000e+00
1.109829e-06
6.502338e-06
1.487840e-05
2.605980e-05
4.004359e-05
5.669446e-05
7.580639e-05
9.714742e-05
1.203109e-04
1.447430e-04
1.699119e-04
1.953979e-04
2.208104e-04
2.458615e-04
2.717626e-04
2.988553e-04
0.000000e+00
1.309138e-06
6.987559e-06
1.540666e-05
2.645019e-05
4.042040e-05
5.704104e-05
7.611426e-05
9.746207e-05
1.206485e-04
1.450547e-04
1.701251e-04
1.954591e-04
2.207573e-04
2.459247e-04
2.713507e-04
2.969141e-04
0.000000e+00
2.268998e-06
8.668851e-06
1.699600e-05
2.789617e-05
4.179257e-05
5.828533e-05
7.721069e-05
9.844721e-05
1.215182e-04
1.457485e-04
1.705945e-04
1.957149e-04
2.208916e-04
2.460301e-04
2.711758e-04
2.960807e-04
0.000000e+00
5.093798e-06
1.218710e-05
2.036563e-05
3.142986e-05
4.511671e-05
6.127073e-05
7.988507e-05
1.007109e-04
1.232201e-04
1.468716e-04
1.712550e-04
1.960660e-04
2.210715e-04
2.461149e-04
2.710878e-04
2.958260e-04
0.000000e+00
9.647144e-06
1.640046e-05
2.494516e-05
3.632126e-05
4.974262e-05
6.550654e-05
8.375487e-05
1.039713e-04
1.255974e-04
1.483671e-04
1.720979e-04
1.965083e-04
2.212909e-04
2.462072e-04
2.710793e-04
2.957918e-04


2.233763e+00
2.162193e+00
2.300924e+00
2.509625e+00
2.669278e+00
2.923817e+00
3.254256e+00
3.633781e+00
4.062585e+00
4.495080e+00
4.859245e+00
5.107402e+00
5.193013e+00
4.961552e+00
4.410247e+00
3.964470e+00
3.081186e+00
3.010191e+00
3.088617e+00
3.225829e+00
3.332190e+00
3.515715e+00
3.759549e+00
4.042611e+00
4.367811e+00
4.700606e+00
4.982660e+00
5.172076e+00
5.217437e+00
4.954646e+00
4.396697e+00
3.948340e+00
4.292473e+00
4.242905e+00
4.264156e+00
4.309003e+00
4.343819e+00
4.426416e+00
4.538660e+00
4.672523e+00
4.833904e+00
5.005414e+00
5.153591e+00
5.251585e+00
5.257137e+00
5.033938e+00
4.585330e+00
4.241973e+00
5.028863e+00
5.000133e+00
4.991172e+00
4.982329e+00
4.983446e+00
5.002959e+00
5.030910e+00
5.067620e+00
5.118562e+00
5.178718e+00
5.234860e+00
5.275359e+00
5.277074e+00
5.162213e+00
4.927040e+00
4.746626e+00
5.028906e+00
5.000053e+00
4.990837e+00
4.981542e+00
4.981685e+00
4.999218e+00
5.024229e+00
5.057529e+00
5.104518e+00
5.160085e+00
5.212940e+00
5.256806e+00
5.283954e+00
5.263811e+00
5.190465e+00
5.130380e+00
4.292353e+00
4.242389e+00
4.262901e+00
4.306634e+00
4.339189e+00
4.417840e+00
4.526230e+00
4.658408e+00
4.817841e+00
4.982770e+00
5.122371e+00
5.224545e+00
5.293527e+00
5.328979e+00
5.333950e+00
5.329129e+00
3.080474e+00
3.008852e+00
3.086313e+00
3.222422e+00
3.326968e+00
3.508907e+00
3.756776e+00
4.053235e+00
4.393348e+00
4.729073e+00
5.000918e+00
5.187148e+00
5.302010e+00
5.367399e+00
5.399963e+00
5.412308e+00
2.232498e+00
2.160243e+00
2.298059e+00
2.506098e+00
2.665202e+00
2.921628e+00
3.264375e+00
3.671270e+00
4.130319e+00
4.575519e+00
4.930241e+00
5.168014e+00
5.309044e+00
5.386344e+00
5.425055e+00
5.440933e+00


-4.973422e-01
-2.171952e-01
-1.707700e-01
-2.241275e-01
-1.679817e-01
-1.454464e-01
-1.445840e-01
-1.289338e-01
-9.643734e-02
-3.374713e-02
6.964312e-02
1.960737e-01
3.225855e-01
4.554935e-01
6.045406e-01
-4.950748e-01
5.212881e-01
3.997232e-01
3.575349e-01
3.124144e-01
3.292572e-01
3.318080e-01
3.261377e-01
3.320446e-01
3.549905e-01
4.079098e-01
5.023138e-01
6.326640e-01
7.802058e-01
9.005964e-01
7.669136e-01
-1.254876e+00
8.315210e-01
7.291318e-01
6.410181e-01
5.989151e-01
5.886137e-01
5.788701e-01
5.712756e-01
5.713255e-01
5.825640e-01
6.115582e-01
6.604938e-01
7.141699e-01
7.300614e-01
6.317936e-01
3.194896e-01
-2.306178e-01
9.222463e-01
8.354320e-01
7.519216e-01
7.043963e-01
6.843475e-01
6.739836e-01
6.654803e-01
6.556955e-01
6.430118e-01
6.271835e-01
6.053071e-01
5.641595e-01
4.810100e-01
3.624899e-01
3.054816e-01
3.176923e-01
9.227773e-01
8.360660e-01
7.524180e-01
7.039712e-01
6.817393e-01
6.672088e-01
6.510783e-01
6.278804e-01
5.933531e-01
5.461119e-01
4.877703e-01
4.225967e-01
3.671418e-01
3.726532e-01
4.934763e-01
6.889020e-01
8.327622e-01
7.306731e-01
6.424121e-01
5.987437e-01
5.845178e-01
5.668453e-01
5.438491e-01
5.161440e-01
4.820808e-01
4.454440e-01
4.149584e-01
4.043465e-01
4.386487e-01
5.464495e-01
7.198604e-01
8.996357e-01
5.221648e-01
4.009495e-01
3.587969e-01
3.131917e-01
3.286905e-01
3.280182e-01
3.142080e-01
3.045374e-01
3.052227e-01
3.308636e-01
3.925062e-01
4.867152e-01
6.080744e-01
7.526799e-01
8.934941e-01
9.824646e-01
-4.984119e-01
-2.185131e-01
-1.722768e-01
-2.257045e-01
-1.682842e-01
-1.430766e-01
-1.389923e-01
-1.150602e-01
-5.211744e-02
8.253204e-02
2.978771e-01
5.485817e-01
7.687799e-01
9.149984e-01
9.833770e-01
9.996666e-01
1 2 19 18
2 3 20 19
3 4 21 20
4 5 22 21
5 6 23 22
6 7 24 23
7 8 25 24
8 9 26 25
9 10 27 26
10 11 28 27
11 12 29 28
12 13 30 29
13 14 31 30
14 15 32 31
15 16 33 32
16 17 34 33
18 19 36 35
19 20 37 36
20 21 38 37
21 22 39 38
22 23 40 39
23 24 41 40
24 25 42 41
25 26 43 42
26 27 44 43
27 28 45 44
28 29 46 45
29 30 47 46
30 31 48 47
31 32 49 48
32 33 50 49
33 34 51 50
35 36 53 52
36 37 54 53
37 38 55 54
38 39 56 55
39 40 57 56
40 41 58 57
41 42 59 58
42 43 60 59
43 44 61 60
44 45 62 61
45 46 63 62
46 47 64 63
47 48 65 64
48 49 66 65
49 50 67 66
50 51 68 67
52 53 70 69
53 54 71 70
54 55 72 71
55 56 73 72
56 57 74 73
57 58 75 74
58 59 76 75
59 60 77 76
60 61 78 77
61 62 79 78
62 63 80 79
63 64 81 80
64 65 82 81
65 66 83 82
66 67 84 83
67 68 85 84
69 70 87 86
70 71 88 87
71 72 89 88
72 73 90 89
73 74 91 90
74 75 92 91
75 76 93 92
76 77 94 93
77 78 95 94
78 79 96 95
79 80 97 96
80 81 98 97
81 82 99 98
82 83 100 99
83 84 101 100
84 85 102 101
86 87 104 103
87 88 105 104
88 89 106 105
89 90 107 106
90 91 108 107
91 92 109 108
92 93 110 109
93 94 111 110
94 95 112 111
95 96 113 112
96 97 114 113
97 98 115 114
98 99 116 115
99 100 117 116
100 101 118 117
101 102 119 118
103 104 121 120
104 105 122 121
105 106 123 122
106 107 124 123
107 108 125 124
108 109 126 125
109 110 127 126
110 111 128 127
111 112 129 128
112 113 130 129
113 114 131 130
114 115 132 131
115 116 133 132
116 117 134 133
117 118 135 134
118 119 136 135
120 121 138 137
121 122 139 138
122 123 140 139
123 124 141 140
124 125 142 141
125 126 143 142
126 127 144 143
127 128 145 144
128 129 146 145
129 130 147 146
130 131 148 147
131 132 149 148
132 133 150 149
133 134 151 150
134 135 152 151
135 136 153 152
