TITLE = "Solution"
VARIABLES = x, y, u, v, psiu, psiv, t, stress
ZONE T="structure" N=153 E=128 F=FEBLOCK ET=QUADRILATERAL VARLOCATION=([7,8]=cellcentered)
0.000000e+00
1.250000e+01
2.500000e+01
3.750000e+01
5.000000e+01
6.250000e+01
7.500000e+01
8.750000e+01
1.000000e+02
1.125000e+02
1.250000e+02
1.375000e+02
1.500000e+02
1.625000e+02
1.750000e+02
1.875000e+02
2.000000e+02
0.000000e+00
1.250000e+01
2.500000e+01
3.750000e+01
5.000000e+01
6.250000e+01
7.500000e+01
8.750000e+01
1.000000e+02
1.125000e+02
1.250000e+02
1.375000e+02
1.500000e+02
1.625000e+02
1.750000e+02
1.875000e+02
2.000000e+02
0.000000e+00
1.250000e+01
2.500000e+01
3.750000e+01
5.000000e+01
6.250000e+01
7.500000e+01
8.750000e+01
1.000000e+02
1.125000e+02
1.250000e+02
1.375000e+02
1.500000e+02
1.625000e+02
1.750000e+02
1.875000e+02
2.000000e+02
0.000000e+00
1.250000e+01
2.500000e+01
3.750000e+01
5.000000e+01
6.250000e+01
7.500000e+01
8.750000e+01
1.000000e+02
1.125000e+02
1.250000e+02
1.375000e+02
1.500000e+02
1.625000e+02
1.750000e+02
1.875000e+02
2.000000e+02
0.000000e+00
1.250000e+01
2.500000e+01
3.750000e+01
5.000000e+01
6.250000e+01
7.500000e+01
8.750000e+01
1.000000e+02
1.125000e+02
1.250000e+02
1.375000e+02
1.500000e+02
1.625000e+02
1.750000e+02
1.875000e+02
2.000000e+02
0.000000e+00
1.250000e+01
2.500000e+01
3.750000e+01
5.000000e+01
6.250000e+01
7.500000e+01
8.750000e+01
1.000000e+02
1.125000e+02
1.250000e+02
1.375000e+02
1.500000e+02
1.625000e+02
1.750000e+02
1.875000e+02
2.000000e+02
0.000000e+00
1.250000e+01
2.500000e+01
3.750000e+01
5.000000e+01
6.250000e+01
7.500000e+01
8.750000e+01
1.000000e+02
1.125000e+02
1.250000e+02
1.375000e+02
1.500000e+02
1.625000e+02
1.750000e+02
1.875000e+02
2.000000e+02
0.000000e+00
1.250000e+01
2.500000e+01
3.750000e+01
5.000000e+01
6.250000e+01
7.500000e+01
8.750000e+01
1.000000e+02
1.125000e+02
1.250000e+02
1.375000e+02
1.500000e+02
1.625000e+02
1.750000e+02
1.875000e+02
2.000000e+02
0.000000e+00
1.250000e+01
2.500000e+01
3.750000e+01
5.000000e+01
6.250000e+01
7.500000e+01
8.750000e+01
1.000000e+02
1.125000e+02
1.250000e+02
1.375000e+02
1.500000e+02
1.625000e+02
1.750000e+02
1.875000e+02
2.000000e+02
0.000000e+00
0.000000e+00
0.000000e+00
0.000000e+00
0.000000e+00
0.000000e+00
0.000000e+00
0.000000e+00
0.000000e+00
0.000000e+00
0.000000e+00
0.000000e+00
0.000000e+00
0.000000e+00
0.000000e+00
0.000000e+00
0.000000e+00
1.250000e+01
1.250000e+01
1.250000e+01
1.250000e+01
1.250000e+01
1.250000e+01
1.250000e+01
1.250000e+01
1.250000e+01
1.250000e+01
1.250000e+01
1.250000e+01
1.250000e+01
1.250000e+01
1.250000e+01
1.250000e+01
1.250000e+01
2.500000e+01
2.500000e+01
2.500000e+01
2.500000e+01
2.500000e+01
2.500000e+01
2.500000e+01
2.500000e+01
2.500000e+01
2.500000e+01
2.500000e+01
2.500000e+01
2.500000e+01
2.500000e+01
2.500000e+01
2.500000e+01
2.500000e+01
3.750000e+01
3.750000e+01
3.750000e+01
3.750000e+01
3.750000e+01
3.750000e+01
3.750000e+01
3.750000e+01
3.750000e+01
3.750000e+01
3.750000e+01
3.750000e+01
3.750000e+01
3.750000e+01
3.750000e+01
3.750000e+01
3.750000e+01
5.000000e+01
5.000000e+01
5.000000e+01
5.000000e+01
5.000000e+01
5.000000e+01
5.000000e+01
5.000000e+01
5.000000e+01
5.000000e+01
5.000000e+01
5.000000e+01
5.000000e+01
5.000000e+01
5.000000e+01
5.000000e+01
5.000000e+01
6.250000e+01
6.250000e+01
6.250000e+01
6.250000e+01
6.250000e+01
6.250000e+01
6.250000e+01
6.250000e+01
6.250000e+01
6.250000e+01
6.250000e+01
6.250000e+01
6.250000e+01
6.250000e+01
6.250000e+01
6.250000e+01
6.250000e+01
7.500000e+01
7.500000e+01
7.500000e+01
7.500000e+01
7.500000e+01
7.500000e+01
7.500000e+01
7.500000e+01
7.500000e+01
7.500000e+01
7.500000e+01
7.500000e+01
7.500000e+01
7.500000e+01
7.500000e+01
7.500000e+01
7.500000e+01
8.750000e+01
8.750000e+01
8.750000e+01
8.750000e+01
8.750000e+01
8.750000e+01
8.750000e+01
8.750000e+01
8.750000e+01
8.750000e+01
8.750000e+01
8.750000e+01
8.750000e+01
8.750000e+01
8.750000e+01
8.750000e+01
8.750000e+01
1.000000e+02
1.000000e+02
1.000000e+02
1.000000e+02
1.000000e+02
1.000000e+02
1.000000e+02
1.000000e+02
1.000000e+02
1.000000e+02
1.000000e+02
1.000000e+02
1.000000e+02
1.000000e+02
1.000000e+02
1.000000e+02
1.000000e+02
0.000000e+00
-7.144049e-02
-1.315446e-01
-1.868481e-01
-2.383513e-01
-2.859453e-01
-3.295281e-01
-3.690658e-01
-4.046160e-01
-4.363425e-01
-4.645597e-01
-4.898191e-01
-5.130694e-01
-5.359497e-01
-5.612867e-01
-5.924037e-01
-6.157536e-01
0.000000e+00
-4.266297e-02
-8.862402e-02
-1.310661e-01
-1.701684e-01
-2.060795e-01
-2.388738e-01
-2.685954e-01
-2.952978e-01
-3.190632e-01
-3.400123e-01
-3.582960e-01
-3.740310e-01
-3.870553e-01
-3.962421e-01
-3.982557e-01
-4.054749e-01
0.000000e+00
-2.668019e-02
-5.486115e-02
-8.297584e-02
-1.092201e-01
-1.333160e-01
-1.552440e-01
-1.750288e-01
-1.926756e-01
-2.081546e-01
-2.213827e-01
-2.321751e-01
-2.401469e-01
-2.445970e-01
-2.447205e-01
-2.429428e-01
-2.503059e-01
0.000000e+00
-1.287750e-02
-2.651007e-02
-4.022874e-02
-5.334629e-02
-6.542837e-02
-7.637960e-02
-8.616808e-02
-9.473777e-02
-1.019772e-01
-1.077012e-01
-1.116398e-01
-1.134705e-01
-1.130428e-01
-1.112856e-01
-1.117661e-01
-1.172487e-01
0.000000e+00
-1.186286e-05
-2.696799e-05
-4.202353e-05
-5.001390e-05
-3.529464e-05
3.318652e-05
2.111491e-04
5.900085e-04
1.305933e-03
2.536574e-03
4.460396e-03
7.125623e-03
1.013746e-02
1.221795e-02
1.164734e-02
8.017419e-03
0.000000e+00
1.285925e-02
2.646770e-02
4.016096e-02
5.326198e-02
6.535980e-02
7.640620e-02
8.645521e-02
9.559397e-02
1.039284e-01
1.115676e-01
1.185679e-01
1.248078e-01
1.298115e-01
1.327549e-01
1.329884e-01
1.311459e-01
0.000000e+00
2.667720e-02
5.485202e-02
8.295768e-02
1.091917e-01
1.332806e-01
1.552147e-01
1.750384e-01
1.927928e-01
2.085096e-01
2.222023e-01
2.338376e-01
2.432816e-01
2.502639e-01
2.544548e-01
2.558156e-01
2.553860e-01
0.000000e+00
4.268047e-02
8.866207e-02
1.311268e-01
1.702498e-01
2.061666e-01
2.389227e-01
2.685061e-01
2.948716e-01
3.179430e-01
3.376111e-01
3.537396e-01
3.661997e-01
3.749502e-01
3.801699e-01
3.823959e-01
3.828047e-01
0.000000e+00
7.146976e-02
1.316218e-01
1.869928e-01
2.385823e-01
2.862702e-01
3.299157e-01
3.693918e-01
4.045664e-01
4.352569e-01
4.611970e-01
4.820409e-01
4.974463e-01
5.072920e-01
5.120535e-01
5.132288e-01
5.132061e-01
0.000000e+00
-4.324490e-02
-8.489480e-02
-1.388634e-01
-2.050986e-01
-2.834767e-01
-3.731391e-01
-4.730826e-01
-5.822442e-01
-6.995755e-01
-8.241077e-01
-9.550698e-01
-1.092146e+00
-1.236068e+00
-1.390570e+00
-1.567349e+00
-1.821349e+00
0.000000e+00
-2.662236e-02
-7.007004e-02
-1.247078e-01
-1.920256e-01
-2.714732e-01
-3.622219e-01
-4.632436e-01
-5.734633e-01
-6.918134e-01
-8.172984e-01
-9.491120e-01
-1.086889e+00
-1.231344e+00
-1.385785e+00
-1.561492e+00
-1.776750e+00
0.000000e+00
-2.008894e-02
-5.979278e-02
-1.146322e-01
-1.825864e-01
-2.628518e-01
-3.544346e-01
-4.562969e-01
-5.673709e-01
-6.866043e-01
-8.130208e-01
-9.458418e-01
-1.084737e+00
-1.230302e+00
-1.384877e+00
-1.551364e+00
-1.712489e+00
0.000000e+00
-1.731123e-02
-5.468298e-02
-1.087181e-01
-1.769180e-01
-2.576774e-01
-3.498312e-01
-4.523019e-01
-5.640420e-01
-6.840274e-01
-8.113032e-01
-9.450755e-01
-1.084857e+00
-1.230583e+00
-1.382066e+00
-1.535044e+00
-1.675973e+00
0.000000e+00
-1.651104e-02
-5.313652e-02
-1.068315e-01
-1.750499e-01
-2.560104e-01
-3.484291e-01
-4.512297e-01
-5.633844e-01
-6.838862e-01
-8.117586e-01
-9.460821e-01
-1.085989e+00
-1.230446e+00
-1.377293e+00
-1.521506e+00
-1.654362e+00
0.000000e+00
-1.730096e-02
-5.467567e-02
-1.087311e-01
-1.769819e-01
-2.578459e-01
-3.501915e-01
-4.529842e-01
-5.652182e-01
-6.858814e-01
-8.139341e-01
-9.482640e-01
-1.087572e+00
-1.230084e+00
-1.373064e+00
-1.512332e+00
-1.642352e+00
0.000000e+00
-2.007218e-02
-5.978066e-02
-1.146539e-01
-1.826942e-01
-2.631367e-01
-3.550454e-01
-4.574554e-01
-5.693709e-01
-6.897624e-01
-8.175204e-01
-9.513613e-01
-1.089673e+00
-1.230318e+00
-1.370526e+00
-1.507121e+00
-1.637055e+00
0.000000e+00
-2.660665e-02
-7.005949e-02
-1.247367e-01
-1.921549e-01
-2.718083e-01
-3.629328e-01
-4.645826e-01
-5.757607e-01
-6.954188e-01
-8.224019e-01
-9.553347e-01
-1.092468e+00
-1.231547e+00
-1.369890e+00
-1.504966e+00
-1.635812e+00
0.000000e+00
-4.323841e-02
-8.489571e-02
-1.389080e-01
-2.052485e-01
-2.838347e-01
-3.738666e-01
-4.744098e-01
-5.844570e-01
-7.029415e-01
-8.286803e-01
-9.602679e-01
-1.095942e+00
-1.233500e+00
-1.370430e+00
-1.504572e+00
-1.635831e+00


0.000000e+00
9.648903e-08
1.933367e-07
2.832790e-07
3.676255e-07
4.459000e-07
5.177747e-07
5.832303e-07
6.423993e-07
6.955307e-07
7.429774e-07
7.851320e-07
8.222242e-07
8.539632e-07
8.799414e-07
9.021418e-07
9.218964e-07
0.000000e+00
5.426882e-08
1.320548e-07
2.019969e-07
2.661242e-07
3.252346e-07
3.792752e-07
4.282471e-07
4.721904e-07
5.111372e-07
5.450762e-07
5.739079e-07
5.974864e-07
6.162970e-07
6.334788e-07
6.538733e-07
6.748656e-07
0.000000e+00
3.419663e-08
8.345658e-08
1.296736e-07
1.727572e-07
2.123816e-07
2.483914e-07
2.807443e-07
3.093913e-07
3.342366e-07
3.551384e-07
3.719957e-07
3.850729e-07
3.957125e-07
4.069351e-07
4.220997e-07
4.396222e-07
0.000000e+00
1.670598e-08
4.000896e-08
6.264378e-08
8.418755e-08
1.039787e-07
1.218037e-07
1.375815e-07
1.512196e-07
1.625998e-07
1.716236e-07
1.783443e-07
1.832165e-07
1.873885e-07
1.927641e-07
2.016029e-07
2.137676e-07
0.000000e+00
1.746192e-11
2.160825e-11
-9.281388e-12
-1.048897e-10
-3.125728e-10
-7.017648e-10
-1.364868e-09
-2.409094e-09
-3.929809e-09
-5.952068e-09
-8.332936e-09
-1.064710e-08
-1.211496e-08
-1.153597e-08
-7.375644e-09
6.153138e-10
0.000000e+00
-1.667335e-08
-3.996517e-08
-6.264556e-08
-8.434035e-08
-1.044673e-07
-1.229312e-07
-1.398112e-07
-1.552052e-07
-1.691740e-07
-1.816900e-07
-1.925828e-07
-2.015040e-07
-2.079334e-07
-2.112281e-07
-2.105998e-07
-2.062228e-07
0.000000e+00
-3.417608e-08
-8.342623e-08
-1.296556e-07
-1.727933e-07
-2.125509e-07
-2.488320e-07
-2.816774e-07
-3.111451e-07
-3.372533e-07
-3.599389e-07
-3.790226e-07
-3.942020e-07
-4.051221e-07
-4.116021e-07
-4.137601e-07
-4.124676e-07
0.000000e+00
-5.428946e-08
-1.320959e-07
-2.020341e-07
-2.661175e-07
-3.251154e-07
-3.789309e-07
-4.275039e-07
-4.707965e-07
-5.087544e-07
-5.412916e-07
-5.682799e-07
-5.895522e-07
-6.049673e-07
-6.146615e-07
-6.194276e-07
-6.205791e-07
0.000000e+00
-9.660304e-08
-1.935387e-07
-2.835289e-07
-3.678391e-07
-4.459019e-07
-5.172327e-07
-5.815703e-07
-6.387050e-07
-6.884452e-07
-7.306403e-07
-7.652234e-07
-7.922542e-07
-8.119553e-07
-8.247875e-07
-8.314209e-07
-8.335516e-07
0.000000e+00
8.735001e-08
1.704071e-07
2.636074e-07
3.747657e-07
5.050291e-07
6.535435e-07
8.189364e-07
9.996262e-07
1.194078e-06
1.400974e-06
1.619507e-06
1.850115e-06
2.096116e-06
2.363581e-06
2.647691e-06
2.929570e-06
0.000000e+00
5.284016e-08
1.335647e-07
2.274945e-07
3.408154e-07
4.736956e-07
6.250201e-07
7.932372e-07
9.767246e-07
1.173925e-06
1.383499e-06
1.604575e-06
1.837172e-06
2.082749e-06
2.343705e-06
2.620610e-06
2.898778e-06
0.000000e+00
3.365967e-08
1.040293e-07
1.978549e-07
3.128075e-07
4.479562e-07
6.017261e-07
7.724443e-07
9.584605e-07
1.158211e-06
1.370309e-06
1.593667e-06
1.827537e-06
2.071232e-06
2.324350e-06
2.591143e-06
2.860346e-06
0.000000e+00
2.469801e-08
8.849089e-08
1.805714e-07
2.962763e-07
4.328308e-07
5.881928e-07
7.605832e-07
9.483291e-07
1.149838e-06
1.363610e-06
1.588218e-06
1.822155e-06
2.063537e-06
2.310855e-06
2.567360e-06
2.823154e-06
0.000000e+00
2.212253e-08
8.377943e-08
1.750115e-07
2.909196e-07
4.280370e-07
5.840862e-07
7.572400e-07
9.458044e-07
1.148127e-06
1.362554e-06
1.587338e-06
1.820472e-06
2.059459e-06
2.301848e-06
2.549148e-06
2.791753e-06
0.000000e+00
2.471796e-08
8.856572e-08
1.807564e-07
2.966442e-07
4.334800e-07
5.892465e-07
7.621712e-07
9.505421e-07
1.152632e-06
1.366637e-06
1.590578e-06
1.822156e-06
2.058530e-06
2.296635e-06
2.536249e-06
2.769235e-06
0.000000e+00
3.369185e-08
1.041597e-07
1.981792e-07
3.134525e-07
4.490962e-07
6.035784e-07
7.752387e-07
9.623582e-07
1.163137e-06
1.375644e-06
1.597742e-06
1.826970e-06
2.060366e-06
2.294657e-06
2.528520e-06
2.755516e-06
0.000000e+00
5.288103e-08
1.337301e-07
2.278939e-07
3.416025e-07
4.750798e-07
6.272599e-07
7.966000e-07
9.813843e-07
1.179753e-06
1.389678e-06
1.608905e-06
1.834886e-06
2.064712e-06
2.295367e-06
2.525046e-06
2.748967e-06
0.000000e+00
8.741773e-08
1.706005e-07
2.640382e-07
3.755854e-07
5.064373e-07
6.557765e-07
8.222175e-07
1.004050e-06
1.199385e-06
1.406143e-06
1.622012e-06
1.844422e-06
2.070577e-06
2.297824e-06
2.524480e-06
2.747057e-06


2.087426e-01
2.087426e-01
2.087427e-01
2.087431e-01
2.087434e-01
2.087436e-01
2.087439e-01
2.087441e-01
2.087443e-01
2.087445e-01
2.087446e-01
2.087448e-01
2.087448e-01
2.087448e-01
2.087446e-01
2.087445e-01
2.087431e-01
2.087431e-01
2.087432e-01
2.087434e-01
2.087437e-01
2.087439e-01
2.087441e-01
2.087443e-01
2.087444e-01
2.087446e-01
2.087447e-01
2.087448e-01
2.087448e-01
2.087448e-01
2.087446e-01
2.087444e-01
2.087440e-01
2.087439e-01
2.087439e-01
2.087441e-01
2.087442e-01
2.087443e-01
2.087444e-01
2.087445e-01
2.087446e-01
2.087447e-01
2.087448e-01
2.087448e-01
2.087448e-01
2.087448e-01
2.087446e-01
2.087445e-01
2.087446e-01
2.087445e-01
2.087445e-01
2.087445e-01
2.087446e-01
2.087446e-01
2.087447e-01
2.087447e-01
2.087448e-01
2.087448e-01
2.087448e-01
2.087448e-01
2.087448e-01
2.087448e-01
2.087447e-01
2.087447e-01
2.087446e-01
2.087445e-01
2.087445e-01
2.087445e-01
2.087446e-01
2.087446e-01
2.087447e-01
2.087447e-01
2.087447e-01
2.087448e-01
2.087448e-01
2.087448e-01
2.087448e-01
2.087448e-01
2.087448e-01
2.087448e-01
2.087440e-01
2.087439e-01
2.087439e-01
2.087441e-01
2.087442e-01
2.087443e-01
2.087444e-01
2.087445e-01
2.087446e-01
2.087447e-01
2.087447e-01
2.087448e-01
2.087448e-01
2.087449e-01
2.087449e-01
2.087450e-01
2.087431e-01
2.087431e-01
2.087432e-01
2.087434e-01
2.087437e-01
2.087439e-01
2.087441e-01
2.087443e-01
2.087444e-01
2.087446e-01
2.087447e-01
2.087448e-01
2.087449e-01
2.087450e-01
2.087450e-01
2.087451e-01
2.087426e-01
2.087425e-01
2.087427e-01
2.087431e-01
2.087434e-01
2.087436e-01
2.087439e-01
2.087441e-01
2.087443e-01
2.087445e-01
2.087447e-01
2.087448e-01
2.087449e-01
2.087450e-01
2.087451e-01
2.087451e-01


9.885174e-01
9.901458e-01
9.916521e-01
9.928116e-01
9.938879e-01
9.948804e-01
9.957845e-01
9.965899e-01
9.972879e-01
9.978716e-01
9.983359e-01
9.986759e-01
9.988873e-01
9.989627e-01
9.990171e-01
9.956613e-01
9.956559e-01
9.949097e-01
9.953898e-01
9.960164e-01
9.966006e-01
9.971315e-01
9.976121e-01
9.980475e-01
9.984416e-01
9.987987e-01
9.991226e-01
9.994160e-01
9.996719e-01
9.998395e-01
9.994157e-01
9.936713e-01
9.984906e-01
9.980621e-01
9.979464e-01
9.981091e-01
9.983232e-01
9.985306e-01
9.987231e-01
9.989050e-01
9.990812e-01
9.992531e-01
9.994135e-01
9.995378e-01
9.995637e-01
9.993400e-01
9.985283e-01
9.970685e-01
9.996928e-01
9.993802e-01
9.991871e-01
9.991382e-01
9.991577e-01
9.991906e-01
9.992233e-01
9.992553e-01
9.992868e-01
9.993131e-01
9.993204e-01
9.992813e-01
9.991572e-01
9.989344e-01
9.987455e-01
9.986977e-01
9.996940e-01
9.993819e-01
9.991886e-01
9.991379e-01
9.991529e-01
9.991765e-01
9.991930e-01
9.991985e-01
9.991909e-01
9.991667e-01
9.991217e-01
9.990567e-01
9.989949e-01
9.990072e-01
9.991820e-01
9.994846e-01
9.984928e-01
9.980653e-01
9.979495e-01
9.981091e-01
9.983149e-01
9.985049e-01
9.986657e-01
9.987949e-01
9.988917e-01
9.989569e-01
9.989981e-01
9.990384e-01
9.991230e-01
9.993004e-01
9.995669e-01
9.998425e-01
9.956555e-01
9.949094e-01
9.953892e-01
9.960146e-01
9.965960e-01
9.971211e-01
9.975905e-01
9.980061e-01
9.983683e-01
9.986779e-01
9.989400e-01
9.991689e-01
9.993893e-01
9.996204e-01
9.998365e-01
9.999726e-01
9.885096e-01
9.901335e-01
9.916370e-01
9.927947e-01
9.938728e-01
9.948749e-01
9.958032e-01
9.966557e-01
9.974324e-01
9.981319e-01
9.987458e-01
9.992551e-01
9.996340e-01
9.998677e-01
9.999741e-01
9.999995e-01
1 2 19 18
2 3 20 19
3 4 21 20
4 5 22 21
5 6 23 22
6 7 24 23
7 8 25 24
8 9 26 25
9 10 27 26
10 11 28 27
11 12 29 28
12 13 30 29
13 14 31 30
14 15 32 31
15 16 33 32
16 17 34 33
18 19 36 35
19 20 37 36
20 21 38 37
21 22 39 38
22 23 40 39
23 24 41 40
24 25 42 41
25 26 43 42
26 27 44 43
27 28 45 44
28 29 46 45
29 30 47 46
30 31 48 47
31 32 49 48
32 33 50 49
33 34 51 50
35 36 53 52
36 37 54 53
37 38 55 54
38 39 56 55
39 40 57 56
40 41 58 57
41 42 59 58
42 43 60 59
43 44 61 60
44 45 62 61
45 46 63 62
46 47 64 63
47 48 65 64
48 49 66 65
49 50 67 66
50 51 68 67
52 53 70 69
53 54 71 70
54 55 72 71
55 56 73 72
56 57 74 73
57 58 75 74
58 59 76 75
59 60 77 76
60 61 78 77
61 62 79 78
62 63 80 79
63 64 81 80
64 65 82 81
65 66 83 82
66 67 84 83
67 68 85 84
69 70 87 86
70 71 88 87
71 72 89 88
72 73 90 89
73 74 91 90
74 75 92 91
75 76 93 92
76 77 94 93
77 78 95 94
78 79 96 95
79 80 97 96
80 81 98 97
81 82 99 98
82 83 100 99
83 84 101 100
84 85 102 101
86 87 104 103
87 88 105 104
88 89 106 105
89 90 107 106
90 91 108 107
91 92 109 108
92 93 110 109
93 94 111 110
94 95 112 111
95 96 113 112
96 97 114 113
97 98 115 114
98 99 116 115
99 100 117 116
100 101 118 117
101 102 119 118
103 104 121 120
104 105 122 121
105 106 123 122
106 107 124 123
107 108 125 124
108 109 126 125
109 110 127 126
110 111 128 127
111 112 129 128
112 113 130 129
113 114 131 130
114 115 132 131
115 116 133 132
116 117 134 133
117 118 135 134
118 119 136 135
120 121 138 137
121 122 139 138
122 123 140 139
123 124 141 140
124 125 142 141
125 126 143 142
126 127 144 143
127 128 145 144
128 129 146 145
129 130 147 146
130 131 148 147
131 132 149 148
132 133 150 149
133 134 151 150
134 135 152 151
135 136 153 152
