TITLE = "Solution"
VARIABLES = x, y, u, v, psiu, psiv, t, stress
ZONE T="structure" N=153 E=128 F=FEBLOCK ET=QUADRILATERAL VARLOCATION=([7,8]=cellcentered)
0.000000e+00
1.250000e+01
2.500000e+01
3.750000e+01
5.000000e+01
6.250000e+01
7.500000e+01
8.750000e+01
1.000000e+02
1.125000e+02
1.250000e+02
1.375000e+02
1.500000e+02
1.625000e+02
1.750000e+02
1.875000e+02
2.000000e+02
0.000000e+00
1.250000e+01
2.500000e+01
3.750000e+01
5.000000e+01
6.250000e+01
7.500000e+01
8.750000e+01
1.000000e+02
1.125000e+02
1.250000e+02
1.375000e+02
1.500000e+02
1.625000e+02
1.750000e+02
1.875000e+02
2.000000e+02
0.000000e+00
1.250000e+01
2.500000e+01
3.750000e+01
5.000000e+01
6.250000e+01
7.500000e+01
8.750000e+01
1.000000e+02
1.125000e+02
1.250000e+02
1.375000e+02
1.500000e+02
1.625000e+02
1.750000e+02
1.875000e+02
2.000000e+02
0.000000e+00
1.250000e+01
2.500000e+01
3.750000e+01
5.000000e+01
6.250000e+01
7.500000e+01
8.750000e+01
1.000000e+02
1.125000e+02
1.250000e+02
1.375000e+02
1.500000e+02
1.625000e+02
1.750000e+02
1.875000e+02
2.000000e+02
0.000000e+00
1.250000e+01
2.500000e+01
3.750000e+01
5.000000e+01
6.250000e+01
7.500000e+01
8.750000e+01
1.000000e+02
1.125000e+02
1.250000e+02
1.375000e+02
1.500000e+02
1.625000e+02
1.750000e+02
1.875000e+02
2.000000e+02
0.000000e+00
1.250000e+01
2.500000e+01
3.750000e+01
5.000000e+01
6.250000e+01
7.500000e+01
8.750000e+01
1.000000e+02
1.125000e+02
1.250000e+02
1.375000e+02
1.500000e+02
1.625000e+02
1.750000e+02
1.875000e+02
2.000000e+02
0.000000e+00
1.250000e+01
2.500000e+01
3.750000e+01
5.000000e+01
6.250000e+01
7.500000e+01
8.750000e+01
1.000000e+02
1.125000e+02
1.250000e+02
1.375000e+02
1.500000e+02
1.625000e+02
1.750000e+02
1.875000e+02
2.000000e+02
0.000000e+00
1.250000e+01
2.500000e+01
3.750000e+01
5.000000e+01
6.250000e+01
7.500000e+01
8.750000e+01
1.000000e+02
1.125000e+02
1.250000e+02
1.375000e+02
1.500000e+02
1.625000e+02
1.750000e+02
1.875000e+02
2.000000e+02
0.000000e+00
1.250000e+01
2.500000e+01
3.750000e+01
5.000000e+01
6.250000e+01
7.500000e+01
8.750000e+01
1.000000e+02
1.125000e+02
1.250000e+02
1.375000e+02
1.500000e+02
1.625000e+02
1.750000e+02
1.875000e+02
2.000000e+02
0.000000e+00
0.000000e+00
0.000000e+00
0.000000e+00
0.000000e+00
0.000000e+00
0.000000e+00
0.000000e+00
0.000000e+00
0.000000e+00
0.000000e+00
0.000000e+00
0.000000e+00
0.000000e+00
0.000000e+00
0.000000e+00
0.000000e+00
1.250000e+01
1.250000e+01
1.250000e+01
1.250000e+01
1.250000e+01
1.250000e+01
1.250000e+01
1.250000e+01
1.250000e+01
1.250000e+01
1.250000e+01
1.250000e+01
1.250000e+01
1.250000e+01
1.250000e+01
1.250000e+01
1.250000e+01
2.500000e+01
2.500000e+01
2.500000e+01
2.500000e+01
2.500000e+01
2.500000e+01
2.500000e+01
2.500000e+01
2.500000e+01
2.500000e+01
2.500000e+01
2.500000e+01
2.500000e+01
2.500000e+01
2.500000e+01
2.500000e+01
2.500000e+01
3.750000e+01
3.750000e+01
3.750000e+01
3.750000e+01
3.750000e+01
3.750000e+01
3.750000e+01
3.750000e+01
3.750000e+01
3.750000e+01
3.750000e+01
3.750000e+01
3.750000e+01
3.750000e+01
3.750000e+01
3.750000e+01
3.750000e+01
5.000000e+01
5.000000e+01
5.000000e+01
5.000000e+01
5.000000e+01
5.000000e+01
5.000000e+01
5.000000e+01
5.000000e+01
5.000000e+01
5.000000e+01
5.000000e+01
5.000000e+01
5.000000e+01
5.000000e+01
5.000000e+01
5.000000e+01
6.250000e+01
6.250000e+01
6.250000e+01
6.250000e+01
6.250000e+01
6.250000e+01
6.250000e+01
6.250000e+01
6.250000e+01
6.250000e+01
6.250000e+01
6.250000e+01
6.250000e+01
6.250000e+01
6.250000e+01
6.250000e+01
6.250000e+01
7.500000e+01
7.500000e+01
7.500000e+01
7.500000e+01
7.500000e+01
7.500000e+01
7.500000e+01
7.500000e+01
7.500000e+01
7.500000e+01
7.500000e+01
7.500000e+01
7.500000e+01
7.500000e+01
7.500000e+01
7.500000e+01
7.500000e+01
8.750000e+01
8.750000e+01
8.750000e+01
8.750000e+01
8.750000e+01
8.750000e+01
8.750000e+01
8.750000e+01
8.750000e+01
8.750000e+01
8.750000e+01
8.750000e+01
8.750000e+01
8.750000e+01
8.750000e+01
8.750000e+01
8.750000e+01
1.000000e+02
1.000000e+02
1.000000e+02
1.000000e+02
1.000000e+02
1.000000e+02
1.000000e+02
1.000000e+02
1.000000e+02
1.000000e+02
1.000000e+02
1.000000e+02
1.000000e+02
1.000000e+02
1.000000e+02
1.000000e+02
1.000000e+02
0.000000e+00
-8.578834e-01
-1.539657e+00
-2.209609e+00
-2.891044e+00
-3.552162e+00
-4.210367e+00
-4.869843e+00
-5.524612e+00
-6.176306e+00
-6.823558e+00
-7.456721e+00
-8.068745e+00
-8.667312e+00
-9.270387e+00
-9.900409e+00
-1.033019e+01
0.000000e+00
-4.591503e-01
-9.535595e-01
-1.448790e+00
-1.958854e+00
-2.453995e+00
-2.946024e+00
-3.438758e+00
-3.927129e+00
-4.411040e+00
-4.887410e+00
-5.344125e+00
-5.764023e+00
-6.122793e+00
-6.366630e+00
-6.422351e+00
-6.568799e+00
0.000000e+00
-2.456041e-01
-5.219815e-01
-8.402360e-01
-1.176288e+00
-1.508638e+00
-1.841607e+00
-2.173758e+00
-2.500495e+00
-2.818235e+00
-3.118993e+00
-3.387532e+00
-3.602087e+00
-3.733531e+00
-3.753031e+00
-3.721936e+00
-3.872837e+00
0.000000e+00
-1.064149e-01
-2.298341e-01
-3.800391e-01
-5.429983e-01
-7.105000e-01
-8.791853e-01
-1.045428e+00
-1.205437e+00
-1.353745e+00
-1.481393e+00
-1.575642e+00
-1.621804e+00
-1.610095e+00
-1.561834e+00
-1.567444e+00
-1.691034e+00
0.000000e+00
-7.137180e-04
-1.442486e-03
-2.044260e-03
-2.254698e-03
-1.598030e-03
7.513734e-04
6.152743e-03
1.686653e-02
3.655220e-02
7.039814e-02
1.240467e-01
1.999684e-01
2.885165e-01
3.542440e-01
3.486237e-01
2.585218e-01
0.000000e+00
1.051962e-01
2.273458e-01
3.764119e-01
5.387854e-01
7.070387e-01
8.791226e-01
1.053644e+00
1.230522e+00
1.410061e+00
1.591359e+00
1.770984e+00
1.940645e+00
2.082864e+00
2.170653e+00
2.182545e+00
2.134335e+00
0.000000e+00
2.449689e-01
5.205990e-01
8.380037e-01
1.173277e+00
1.505248e+00
1.838576e+00
2.172783e+00
2.505187e+00
2.834052e+00
3.152373e+00
3.446346e+00
3.698921e+00
3.892479e+00
4.011356e+00
4.051097e+00
4.039998e+00
0.000000e+00
4.592428e-01
9.536178e-01
1.448631e+00
1.958295e+00
2.452688e+00
2.942856e+00
3.432172e+00
3.915682e+00
4.390221e+00
4.842924e+00
5.247974e+00
5.578595e+00
5.817902e+00
5.962754e+00
6.024861e+00
6.036393e+00
0.000000e+00
8.584980e-01
1.541051e+00
2.211890e+00
2.894297e+00
3.556188e+00
4.213955e+00
4.870972e+00
5.520358e+00
6.156421e+00
6.757363e+00
7.282192e+00
7.689805e+00
7.956633e+00
8.086440e+00
8.117845e+00
8.116838e+00
0.000000e+00
-5.293070e-01
-1.101926e+00
-1.861993e+00
-2.789941e+00
-3.884512e+00
-5.153371e+00
-6.595658e+00
-8.209883e+00
-9.996170e+00
-1.195119e+01
-1.406827e+01
-1.634379e+01
-1.878690e+01
-2.145849e+01
-2.457270e+01
-2.916121e+01
0.000000e+00
-3.362582e-01
-9.345695e-01
-1.685627e+00
-2.614718e+00
-3.712188e+00
-4.981173e+00
-6.424311e+00
-8.040286e+00
-9.828654e+00
-1.178814e+01
-1.391380e+01
-1.620176e+01
-1.866411e+01
-2.135523e+01
-2.446680e+01
-2.829612e+01
0.000000e+00
-2.786786e-01
-8.249899e-01
-1.568223e+00
-2.492617e+00
-3.589815e+00
-4.859811e+00
-6.304940e+00
-7.924508e+00
-9.718928e+00
-1.168833e+01
-1.382934e+01
-1.613991e+01
-1.863283e+01
-2.134108e+01
-2.427808e+01
-2.706221e+01
0.000000e+00
-2.774333e-01
-7.851205e-01
-1.507879e+00
-2.423483e+00
-3.518252e+00
-4.789752e+00
-6.238331e+00
-7.864150e+00
-9.668743e+00
-1.165258e+01
-1.381189e+01
-1.614142e+01
-1.863910e+01
-2.128359e+01
-2.394219e+01
-2.629354e+01
0.000000e+00
-2.818953e-01
-7.783483e-01
-1.491719e+00
-2.402717e+00
-3.497086e+00
-4.770843e+00
-6.223515e+00
-7.856119e+00
-9.670990e+00
-1.166801e+01
-1.384011e+01
-1.617212e+01
-1.863714e+01
-2.116871e+01
-2.362280e+01
-2.576907e+01
0.000000e+00
-2.772942e-01
-7.853855e-01
-1.509153e+00
-2.426640e+00
-3.524605e+00
-4.801049e+00
-6.256999e+00
-7.894064e+00
-9.715258e+00
-1.171969e+01
-1.389507e+01
-1.621380e+01
-1.862812e+01
-2.105814e+01
-2.338367e+01
-2.545090e+01
0.000000e+00
-2.784250e-01
-8.253722e-01
-1.570200e+00
-2.497633e+00
-3.600028e+00
-4.878168e+00
-6.335574e+00
-7.973993e+00
-9.796494e+00
-1.180119e+01
-1.397082e+01
-1.626792e+01
-1.863376e+01
-2.098860e+01
-2.324130e+01
-2.530677e+01
0.000000e+00
-3.360043e-01
-9.349713e-01
-1.687780e+00
-2.620277e+00
-3.723544e+00
-5.001675e+00
-6.458841e+00
-8.096391e+00
-9.916358e+00
-1.191456e+01
-1.407007e+01
-1.634123e+01
-1.866660e+01
-2.097048e+01
-2.318142e+01
-2.527346e+01
0.000000e+00
-5.292134e-01
-1.102464e+00
-1.864311e+00
-2.795703e+00
-3.895996e+00
-5.173766e+00
-6.629918e+00
-8.265163e+00
-1.007998e+01
-1.206530e+01
-1.419693e+01
-1.643419e+01
-1.871976e+01
-2.098501e+01
-2.317029e+01
-2.527438e+01


0.000000e+00
1.186665e-05
2.226233e-05
3.267536e-05
4.450190e-05
5.601532e-05
6.669255e-05
7.691593e-05
8.656699e-05
9.508227e-05
1.018537e-04
1.066489e-04
1.098645e-04
1.122899e-04
1.144559e-04
1.171939e-04
1.205229e-04
0.000000e+00
8.747110e-06
1.796794e-05
2.575535e-05
3.492542e-05
4.381926e-05
5.175756e-05
5.933774e-05
6.654262e-05
7.275073e-05
7.739297e-05
8.029113e-05
8.168851e-05
8.194777e-05
8.211860e-05
8.434241e-05
8.809186e-05
0.000000e+00
6.708483e-06
1.301718e-05
1.839010e-05
2.457341e-05
3.039445e-05
3.560826e-05
4.051662e-05
4.501470e-05
4.873031e-05
5.137111e-05
5.285640e-05
5.334371e-05
5.324499e-05
5.346330e-05
5.551989e-05
5.902772e-05
0.000000e+00
3.380967e-06
6.119932e-06
9.278491e-06
1.226158e-05
1.502621e-05
1.764397e-05
2.003107e-05
2.207987e-05
2.371434e-05
2.485144e-05
2.547942e-05
2.574766e-05
2.598996e-05
2.657649e-05
2.799637e-05
3.023095e-05
0.000000e+00
-1.213834e-08
-2.515646e-08
-3.777054e-08
-4.980129e-08
-6.238441e-08
-7.728038e-08
-1.052044e-07
-1.719313e-07
-3.044732e-07
-4.916575e-07
-6.654039e-07
-7.041361e-07
-4.762810e-07
-5.122602e-08
5.034312e-07
1.483951e-06
0.000000e+00
-3.402931e-06
-6.163364e-06
-9.344502e-06
-1.235049e-05
-1.513460e-05
-1.776692e-05
-2.017539e-05
-2.229118e-05
-2.406581e-05
-2.542431e-05
-2.630931e-05
-2.673308e-05
-2.681727e-05
-2.681153e-05
-2.679566e-05
-2.649681e-05
0.000000e+00
-6.720059e-06
-1.304180e-05
-1.843486e-05
-2.464485e-05
-3.048166e-05
-3.570044e-05
-4.062084e-05
-4.508838e-05
-4.864262e-05
-5.104590e-05
-5.244019e-05
-5.316134e-05
-5.353191e-05
-5.377490e-05
-5.392451e-05
-5.387215e-05
0.000000e+00
-8.747499e-06
-1.796845e-05
-2.576377e-05
-3.495220e-05
-4.384941e-05
-5.178314e-05
-5.939633e-05
-6.656465e-05
-7.240387e-05
-7.634214e-05
-7.861753e-05
-7.986776e-05
-8.058383e-05
-8.101222e-05
-8.122926e-05
-8.126722e-05
0.000000e+00
-1.186480e-05
-2.224671e-05
-3.264458e-05
-4.445818e-05
-5.594327e-05
-6.658347e-05
-7.680138e-05
-8.639523e-05
-9.451939e-05
-1.004883e-04
-1.043564e-04
-1.066713e-04
-1.079776e-04
-1.086364e-04
-1.088734e-04
-1.089091e-04
0.000000e+00
1.022344e-05
1.726988e-05
2.645813e-05
3.872676e-05
5.303898e-05
6.996735e-05
8.980070e-05
1.120057e-04
1.359897e-04
1.613317e-04
1.878078e-04
2.154331e-04
2.447267e-04
2.781185e-04
3.169621e-04
3.565202e-04
0.000000e+00
5.476476e-06
1.295438e-05
2.156640e-05
3.341326e-05
4.804610e-05
6.532776e-05
8.536291e-05
1.079504e-04
1.326506e-04
1.589439e-04
1.863557e-04
2.146659e-04
2.441604e-04
2.758137e-04
3.122495e-04
3.506505e-04
0.000000e+00
2.481535e-06
9.267747e-06
1.795253e-05
2.952645e-05
4.440347e-05
6.203542e-05
8.229782e-05
1.052056e-04
1.304406e-04
1.574094e-04
1.855021e-04
2.143501e-04
2.436572e-04
2.731162e-04
3.064416e-04
3.428087e-04
0.000000e+00
1.446281e-06
7.459808e-06
1.626800e-05
2.795249e-05
4.287026e-05
6.063512e-05
8.108491e-05
1.041745e-04
1.296018e-04
1.567937e-04
1.851235e-04
2.140840e-04
2.431018e-04
2.713662e-04
3.020600e-04
3.357526e-04
0.000000e+00
1.221263e-06
6.925352e-06
1.569819e-05
2.751963e-05
4.241212e-05
6.020452e-05
8.075070e-05
1.039398e-04
1.294466e-04
1.566928e-04
1.850286e-04
2.138816e-04
2.426753e-04
2.708945e-04
3.001573e-04
3.310112e-04
0.000000e+00
1.448779e-06
7.457043e-06
1.625355e-05
2.792594e-05
4.283080e-05
6.058581e-05
8.106815e-05
1.042722e-04
1.298449e-04
1.571001e-04
1.853294e-04
2.139782e-04
2.425941e-04
2.709855e-04
2.996492e-04
3.285120e-04
0.000000e+00
2.485703e-06
9.264079e-06
1.793164e-05
2.948685e-05
4.434184e-05
6.195464e-05
8.227313e-05
1.053817e-04
1.308801e-04
1.579871e-04
1.859667e-04
2.143322e-04
2.427671e-04
2.711171e-04
2.994415e-04
3.274473e-04
0.000000e+00
5.482131e-06
1.295502e-05
2.155314e-05
3.337985e-05
4.798422e-05
6.525072e-05
8.534946e-05
1.081172e-04
1.330347e-04
1.594588e-04
1.868445e-04
2.147954e-04
2.429953e-04
2.712209e-04
2.993309e-04
3.271303e-04
0.000000e+00
1.022988e-05
1.727284e-05
2.645351e-05
3.870312e-05
5.298100e-05
6.990390e-05
8.980539e-05
1.120973e-04
1.360979e-04
1.614416e-04
1.879573e-04
2.153668e-04
2.432716e-04
2.713344e-04
2.993187e-04
3.270899e-04


2.309347e+00
2.220872e+00
2.349692e+00
2.531118e+00
2.669270e+00
2.932376e+00
3.260019e+00
3.636386e+00
4.108417e+00
4.641255e+00
5.130477e+00
5.486135e+00
5.630872e+00
5.363634e+00
4.662800e+00
4.080808e+00
3.325613e+00
3.238541e+00
3.302614e+00
3.412564e+00
3.496930e+00
3.681509e+00
3.916944e+00
4.189914e+00
4.539718e+00
4.941737e+00
5.314355e+00
5.582416e+00
5.664105e+00
5.340146e+00
4.611426e+00
4.007162e+00
4.726708e+00
4.669848e+00
4.680382e+00
4.704563e+00
4.723558e+00
4.801896e+00
4.902273e+00
5.020961e+00
5.183227e+00
5.379202e+00
5.565946e+00
5.699378e+00
5.715407e+00
5.428239e+00
4.828626e+00
4.359953e+00
5.547271e+00
5.516567e+00
5.502875e+00
5.482050e+00
5.475172e+00
5.489155e+00
5.506224e+00
5.527863e+00
5.566697e+00
5.623197e+00
5.684019e+00
5.733035e+00
5.736627e+00
5.587043e+00
5.273077e+00
5.027618e+00
5.547257e+00
5.516391e+00
5.502329e+00
5.480927e+00
5.472989e+00
5.484492e+00
5.497169e+00
5.513557e+00
5.547115e+00
5.597686e+00
5.653389e+00
5.705520e+00
5.741983e+00
5.718679e+00
5.624169e+00
5.544824e+00
4.726431e+00
4.669062e+00
4.678494e+00
4.701271e+00
4.717892e+00
4.790756e+00
4.883567e+00
4.998357e+00
5.160745e+00
5.351888e+00
5.526718e+00
5.660989e+00
5.755497e+00
5.807137e+00
5.817601e+00
5.813164e+00
3.324722e+00
3.236915e+00
3.299586e+00
3.408291e+00
3.491112e+00
3.672327e+00
3.908539e+00
4.198774e+00
4.577994e+00
4.995424e+00
5.355782e+00
5.610483e+00
5.769712e+00
5.861333e+00
5.907577e+00
5.925320e+00
2.307943e+00
2.218784e+00
2.346365e+00
2.527295e+00
2.665804e+00
2.929688e+00
3.268335e+00
3.682477e+00
4.210191e+00
4.776919e+00
5.255735e+00
5.584997e+00
5.781253e+00
5.888492e+00
5.942022e+00
5.963899e+00


-5.272903e-01
-2.219375e-01
-1.905129e-01
-2.444478e-01
-1.750204e-01
-1.641590e-01
-1.694996e-01
-1.531869e-01
-1.392023e-01
-1.145890e-01
-4.541980e-02
6.915092e-02
2.081961e-01
3.807915e-01
5.800409e-01
-5.315047e-01
5.268994e-01
4.015088e-01
3.488709e-01
2.981858e-01
3.204811e-01
3.157594e-01
3.052831e-01
3.097210e-01
3.219127e-01
3.558990e-01
4.367042e-01
5.693670e-01
7.352497e-01
8.812586e-01
7.572796e-01
-1.279064e+00
8.298717e-01
7.177843e-01
6.178269e-01
5.711694e-01
5.604424e-01
5.466525e-01
5.366876e-01
5.356548e-01
5.428767e-01
5.655355e-01
6.106533e-01
6.658330e-01
6.838555e-01
5.803425e-01
2.657455e-01
-2.883478e-01
9.108396e-01
8.136564e-01
7.149081e-01
6.588066e-01
6.349939e-01
6.228185e-01
6.146429e-01
6.067119e-01
5.943972e-01
5.750918e-01
5.459903e-01
4.941028e-01
3.946517e-01
2.598304e-01
2.098099e-01
2.367292e-01
9.114255e-01
8.143178e-01
7.153532e-01
6.580791e-01
6.315734e-01
6.144570e-01
5.976798e-01
5.748613e-01
5.379723e-01
4.825410e-01
4.103112e-01
3.280682e-01
2.570953e-01
2.609753e-01
4.050609e-01
6.368041e-01
8.312631e-01
7.194238e-01
6.191990e-01
5.705263e-01
5.548995e-01
5.317883e-01
5.045596e-01
4.724017e-01
4.278335e-01
3.744932e-01
3.265300e-01
3.038774e-01
3.375292e-01
4.619796e-01
6.672802e-01
8.811537e-01
5.279141e-01
4.028290e-01
3.502873e-01
2.989074e-01
3.191231e-01
3.108530e-01
2.919830e-01
2.778015e-01
2.607922e-01
2.605226e-01
3.053365e-01
4.001251e-01
5.366908e-01
7.061254e-01
8.733054e-01
9.792111e-01
-5.285362e-01
-2.234182e-01
-1.918866e-01
-2.457956e-01
-1.755143e-01
-1.606898e-01
-1.603844e-01
-1.383505e-01
-1.010518e-01
-1.849135e-03
2.029608e-01
4.747794e-01
7.275439e-01
8.992875e-01
9.802960e-01
9.996096e-01
1 2 19 18
2 3 20 19
3 4 21 20
4 5 22 21
5 6 23 22
6 7 24 23
7 8 25 24
8 9 26 25
9 10 27 26
10 11 28 27
11 12 29 28
12 13 30 29
13 14 31 30
14 15 32 31
15 16 33 32
16 17 34 33
18 19 36 35
19 20 37 36
20 21 38 37
21 22 39 38
22 23 40 39
23 24 41 40
24 25 42 41
25 26 43 42
26 27 44 43
27 28 45 44
28 29 46 45
29 30 47 46
30 31 48 47
31 32 49 48
32 33 50 49
33 34 51 50
35 36 53 52
36 37 54 53
37 38 55 54
38 39 56 55
39 40 57 56
40 41 58 57
41 42 59 58
42 43 60 59
43 44 61 60
44 45 62 61
45 46 63 62
46 47 64 63
47 48 65 64
48 49 66 65
49 50 67 66
50 51 68 67
52 53 70 69
53 54 71 70
54 55 72 71
55 56 73 72
56 57 74 73
57 58 75 74
58 59 76 75
59 60 77 76
60 61 78 77
61 62 79 78
62 63 80 79
63 64 81 80
64 65 82 81
65 66 83 82
66 67 84 83
67 68 85 84
69 70 87 86
70 71 88 87
71 72 89 88
72 73 90 89
73 74 91 90
74 75 92 91
75 76 93 92
76 77 94 93
77 78 95 94
78 79 96 95
79 80 97 96
80 81 98 97
81 82 99 98
82 83 100 99
83 84 101 100
84 85 102 101
86 87 104 103
87 88 105 104
88 89 106 105
89 90 107 106
90 91 108 107
91 92 109 108
92 93 110 109
93 94 111 110
94 95 112 111
95 96 113 112
96 97 114 113
97 98 115 114
98 99 116 115
99 100 117 116
100 101 118 117
101 102 119 118
103 104 121 120
104 105 122 121
105 106 123 122
106 107 124 123
107 108 125 124
108 109 126 125
109 110 127 126
110 111 128 127
111 112 129 128
112 113 130 129
113 114 131 130
114 115 132 131
115 116 133 132
116 117 134 133
117 118 135 134
118 119 136 135
120 121 138 137
121 122 139 138
122 123 140 139
123 124 141 140
124 125 142 141
125 126 143 142
126 127 144 143
127 128 145 144
128 129 146 145
129 130 147 146
130 131 148 147
131 132 149 148
132 133 150 149
133 134 151 150
134 135 152 151
135 136 153 152
