TITLE = "Solution"
VARIABLES = x, y, u, v, psiu, psiv, t, stress
ZONE T="structure" N=153 E=128 F=FEBLOCK ET=QUADRILATERAL VARLOCATION=([7,8]=cellcentered)
0.000000e+00
1.250000e+01
2.500000e+01
3.750000e+01
5.000000e+01
6.250000e+01
7.500000e+01
8.750000e+01
1.000000e+02
1.125000e+02
1.250000e+02
1.375000e+02
1.500000e+02
1.625000e+02
1.750000e+02
1.875000e+02
2.000000e+02
0.000000e+00
1.250000e+01
2.500000e+01
3.750000e+01
5.000000e+01
6.250000e+01
7.500000e+01
8.750000e+01
1.000000e+02
1.125000e+02
1.250000e+02
1.375000e+02
1.500000e+02
1.625000e+02
1.750000e+02
1.875000e+02
2.000000e+02
0.000000e+00
1.250000e+01
2.500000e+01
3.750000e+01
5.000000e+01
6.250000e+01
7.500000e+01
8.750000e+01
1.000000e+02
1.125000e+02
1.250000e+02
1.375000e+02
1.500000e+02
1.625000e+02
1.750000e+02
1.875000e+02
2.000000e+02
0.000000e+00
1.250000e+01
2.500000e+01
3.750000e+01
5.000000e+01
6.250000e+01
7.500000e+01
8.750000e+01
1.000000e+02
1.125000e+02
1.250000e+02
1.375000e+02
1.500000e+02
1.625000e+02
1.750000e+02
1.875000e+02
2.000000e+02
0.000000e+00
1.250000e+01
2.500000e+01
3.750000e+01
5.000000e+01
6.250000e+01
7.500000e+01
8.750000e+01
1.000000e+02
1.125000e+02
1.250000e+02
1.375000e+02
1.500000e+02
1.625000e+02
1.750000e+02
1.875000e+02
2.000000e+02
0.000000e+00
1.250000e+01
2.500000e+01
3.750000e+01
5.000000e+01
6.250000e+01
7.500000e+01
8.750000e+01
1.000000e+02
1.125000e+02
1.250000e+02
1.375000e+02
1.500000e+02
1.625000e+02
1.750000e+02
1.875000e+02
2.000000e+02
0.000000e+00
1.250000e+01
2.500000e+01
3.750000e+01
5.000000e+01
6.250000e+01
7.500000e+01
8.750000e+01
1.000000e+02
1.125000e+02
1.250000e+02
1.375000e+02
1.500000e+02
1.625000e+02
1.750000e+02
1.875000e+02
2.000000e+02
0.000000e+00
1.250000e+01
2.500000e+01
3.750000e+01
5.000000e+01
6.250000e+01
7.500000e+01
8.750000e+01
1.000000e+02
1.125000e+02
1.250000e+02
1.375000e+02
1.500000e+02
1.625000e+02
1.750000e+02
1.875000e+02
2.000000e+02
0.000000e+00
1.250000e+01
2.500000e+01
3.750000e+01
5.000000e+01
6.250000e+01
7.500000e+01
8.750000e+01
1.000000e+02
1.125000e+02
1.250000e+02
1.375000e+02
1.500000e+02
1.625000e+02
1.750000e+02
1.875000e+02
2.000000e+02
0.000000e+00
0.000000e+00
0.000000e+00
0.000000e+00
0.000000e+00
0.000000e+00
0.000000e+00
0.000000e+00
0.000000e+00
0.000000e+00
0.000000e+00
0.000000e+00
0.000000e+00
0.000000e+00
0.000000e+00
0.000000e+00
0.000000e+00
1.250000e+01
1.250000e+01
1.250000e+01
1.250000e+01
1.250000e+01
1.250000e+01
1.250000e+01
1.250000e+01
1.250000e+01
1.250000e+01
1.250000e+01
1.250000e+01
1.250000e+01
1.250000e+01
1.250000e+01
1.250000e+01
1.250000e+01
2.500000e+01
2.500000e+01
2.500000e+01
2.500000e+01
2.500000e+01
2.500000e+01
2.500000e+01
2.500000e+01
2.500000e+01
2.500000e+01
2.500000e+01
2.500000e+01
2.500000e+01
2.500000e+01
2.500000e+01
2.500000e+01
2.500000e+01
3.750000e+01
3.750000e+01
3.750000e+01
3.750000e+01
3.750000e+01
3.750000e+01
3.750000e+01
3.750000e+01
3.750000e+01
3.750000e+01
3.750000e+01
3.750000e+01
3.750000e+01
3.750000e+01
3.750000e+01
3.750000e+01
3.750000e+01
5.000000e+01
5.000000e+01
5.000000e+01
5.000000e+01
5.000000e+01
5.000000e+01
5.000000e+01
5.000000e+01
5.000000e+01
5.000000e+01
5.000000e+01
5.000000e+01
5.000000e+01
5.000000e+01
5.000000e+01
5.000000e+01
5.000000e+01
6.250000e+01
6.250000e+01
6.250000e+01
6.250000e+01
6.250000e+01
6.250000e+01
6.250000e+01
6.250000e+01
6.250000e+01
6.250000e+01
6.250000e+01
6.250000e+01
6.250000e+01
6.250000e+01
6.250000e+01
6.250000e+01
6.250000e+01
7.500000e+01
7.500000e+01
7.500000e+01
7.500000e+01
7.500000e+01
7.500000e+01
7.500000e+01
7.500000e+01
7.500000e+01
7.500000e+01
7.500000e+01
7.500000e+01
7.500000e+01
7.500000e+01
7.500000e+01
7.500000e+01
7.500000e+01
8.750000e+01
8.750000e+01
8.750000e+01
8.750000e+01
8.750000e+01
8.750000e+01
8.750000e+01
8.750000e+01
8.750000e+01
8.750000e+01
8.750000e+01
8.750000e+01
8.750000e+01
8.750000e+01
8.750000e+01
8.750000e+01
8.750000e+01
1.000000e+02
1.000000e+02
1.000000e+02
1.000000e+02
1.000000e+02
1.000000e+02
1.000000e+02
1.000000e+02
1.000000e+02
1.000000e+02
1.000000e+02
1.000000e+02
1.000000e+02
1.000000e+02
1.000000e+02
1.000000e+02
1.000000e+02
0.000000e+00
-7.704470e-01
-1.413796e+00
-2.028063e+00
-2.640505e+00
-3.239678e+00
-3.816511e+00
-4.364007e+00
-4.875137e+00
-5.344476e+00
-5.770329e+00
-6.156442e+00
-6.514104e+00
-6.865654e+00
-7.250044e+00
-7.713147e+00
-8.056550e+00
0.000000e+00
-4.450553e-01
-9.279199e-01
-1.393082e+00
-1.854146e+00
-2.304134e+00
-2.736837e+00
-3.147454e+00
-3.530723e+00
-3.881881e+00
-4.197818e+00
-4.477300e+00
-4.719801e+00
-4.921097e+00
-5.062146e+00
-5.093129e+00
-5.200439e+00
0.000000e+00
-2.684694e-01
-5.587016e-01
-8.662726e-01
-1.174709e+00
-1.475703e+00
-1.764571e+00
-2.037514e+00
-2.290309e+00
-2.518510e+00
-2.717573e+00
-2.882296e+00
-3.005218e+00
-3.074539e+00
-3.077440e+00
-3.051267e+00
-3.161298e+00
0.000000e+00
-1.264808e-01
-2.653636e-01
-4.155282e-01
-5.695720e-01
-7.202803e-01
-8.643923e-01
-9.991734e-01
-1.121532e+00
-1.227774e+00
-1.313431e+00
-1.373135e+00
-1.401091e+00
-1.394455e+00
-1.367344e+00
-1.374283e+00
-1.457120e+00
0.000000e+00
-2.948080e-04
-6.385063e-04
-9.765625e-04
-1.201254e-03
-1.075173e-03
-1.236912e-04
2.513129e-03
8.257382e-03
1.923679e-02
3.823313e-02
6.805155e-02
1.094909e-01
1.564786e-01
1.892060e-01
1.810422e-01
1.256180e-01
0.000000e+00
1.259906e-01
2.642877e-01
4.138482e-01
5.674273e-01
7.181757e-01
8.635624e-01
1.002183e+00
1.133168e+00
1.256211e+00
1.371424e+00
1.478534e+00
1.574892e+00
1.652636e+00
1.698649e+00
1.702647e+00
1.674346e+00
0.000000e+00
2.682469e-01
5.581790e-01
8.653810e-01
1.173424e+00
1.474105e+00
1.762929e+00
2.036418e+00
2.290894e+00
2.522814e+00
2.729086e+00
2.906787e+00
3.052270e+00
3.160388e+00
3.225490e+00
3.246720e+00
3.240134e+00
0.000000e+00
4.451689e-01
9.281191e-01
1.393346e+00
1.854442e+00
2.304298e+00
2.736354e+00
3.144984e+00
3.523356e+00
3.864136e+00
4.160513e+00
4.406714e+00
4.598404e+00
4.733614e+00
4.814447e+00
4.848949e+00
4.855297e+00
0.000000e+00
7.707241e-01
1.414563e+00
2.029532e+00
2.642951e+00
3.243297e+00
3.821038e+00
4.367821e+00
4.873637e+00
5.327531e+00
5.718641e+00
6.036786e+00
6.273600e+00
6.425494e+00
6.499027e+00
6.517128e+00
6.516747e+00
0.000000e+00
-4.703226e-01
-9.452426e-01
-1.571265e+00
-2.347220e+00
-3.274561e+00
-4.349746e+00
-5.565895e+00
-6.913109e+00
-8.379844e+00
-9.954250e+00
-1.162629e+01
-1.339189e+01
-1.526175e+01
-1.729073e+01
-1.965118e+01
-2.315190e+01
0.000000e+00
-2.920415e-01
-7.856933e-01
-1.409870e+00
-2.188039e+00
-3.120141e+00
-4.202286e+00
-5.427276e+00
-6.785170e+00
-8.263921e+00
-9.850812e+00
-1.153481e+01
-1.331079e+01
-1.518930e+01
-1.721895e+01
-1.956495e+01
-2.249283e+01
0.000000e+00
-2.264493e-01
-6.763831e-01
-1.296901e+00
-2.075176e+00
-3.010760e+00
-4.098338e+00
-5.330482e+00
-6.697288e+00
-8.186760e+00
-9.786188e+00
-1.148464e+01
-1.327734e+01
-1.517310e+01
-1.720570e+01
-1.941510e+01
-2.154083e+01
0.000000e+00
-2.043074e-01
-6.248391e-01
-1.232017e+00
-2.008903e+00
-2.946467e+00
-4.038094e+00
-5.275945e+00
-6.650273e+00
-8.149393e+00
-9.760781e+00
-1.147312e+01
-1.327908e+01
-1.517736e+01
-1.716359e+01
-1.917086e+01
-2.099351e+01
0.000000e+00
-1.994193e-01
-6.101841e-01
-1.211886e+00
-1.987513e+00
-2.926267e+00
-4.020327e+00
-5.261970e+00
-6.641707e+00
-8.148073e+00
-9.768184e+00
-1.148874e+01
-1.329650e+01
-1.517528e+01
-1.709092e+01
-1.896534e+01
-2.066455e+01
0.000000e+00
-2.041361e-01
-6.247330e-01
-1.232249e+00
-2.009923e+00
-2.949064e+00
-4.043578e+00
-5.286302e+00
-6.668165e+00
-8.177687e+00
-9.801058e+00
-1.152204e+01
-1.332077e+01
-1.516965e+01
-1.702589e+01
-1.882450e+01
-2.047986e+01
0.000000e+00
-2.261656e-01
-6.761964e-01
-1.297259e+00
-2.076839e+00
-3.015069e+00
-4.107514e+00
-5.347915e+00
-6.727533e+00
-8.234772e+00
-9.854882e+00
-1.156913e+01
-1.335292e+01
-1.517314e+01
-1.698662e+01
-1.874401e+01
-2.039808e+01
0.000000e+00
-2.917565e-01
-7.854939e-01
-1.410284e+00
-2.189958e+00
-3.125114e+00
-4.212859e+00
-5.447295e+00
-6.819755e+00
-8.318541e+00
-9.928484e+00
-1.162974e+01
-1.339584e+01
-1.519205e+01
-1.697673e+01
-1.871064e+01
-2.037891e+01
0.000000e+00
-4.701307e-01
-9.451467e-01
-1.571831e+00
-2.349365e+00
-3.279822e+00
-4.360554e+00
-5.585761e+00
-6.946433e+00
-8.430787e+00
-1.002368e+01
-1.170529e+01
-1.344936e+01
-1.522220e+01
-1.698506e+01
-1.870453e+01
-2.037924e+01


0.000000e+00
6.156416e-06
1.252275e-05
1.820566e-05
2.331332e-05
2.774916e-05
3.138249e-05
3.419701e-05
3.627498e-05
3.774736e-05
3.875616e-05
3.943480e-05
3.990315e-05
4.026999e-05
4.063284e-05
4.113304e-05
4.178039e-05
0.000000e+00
4.475483e-06
1.002752e-05
1.439897e-05
1.819996e-05
2.147701e-05
2.412123e-05
2.611861e-05
2.754980e-05
2.852847e-05
2.916700e-05
2.956023e-05
2.977524e-05
2.985946e-05
2.995083e-05
3.035492e-05
3.101826e-05
0.000000e+00
3.306975e-06
6.895178e-06
9.837419e-06
1.240952e-05
1.456995e-05
1.628926e-05
1.757472e-05
1.847927e-05
1.907503e-05
1.943567e-05
1.962527e-05
1.969639e-05
1.971130e-05
1.978829e-05
2.011033e-05
2.063940e-05
0.000000e+00
1.655005e-06
3.227723e-06
4.768254e-06
6.100417e-06
7.193378e-06
8.057080e-06
8.705902e-06
9.160296e-06
9.450748e-06
9.613902e-06
9.688448e-06
9.717076e-06
9.750689e-06
9.834399e-06
1.002245e-05
1.032859e-05
0.000000e+00
-3.135291e-09
-6.674325e-09
-1.067815e-08
-1.558967e-08
-2.220648e-08
-3.175374e-08
-4.561987e-08
-6.486500e-08
-8.936888e-08
-1.163797e-07
-1.383444e-07
-1.417807e-07
-1.142959e-07
-6.126663e-08
1.945262e-08
1.629358e-07
0.000000e+00
-1.660783e-06
-3.239682e-06
-4.787634e-06
-6.128702e-06
-7.232935e-06
-8.111635e-06
-8.780885e-06
-9.262784e-06
-9.588641e-06
-9.793483e-06
-9.908912e-06
-9.960329e-06
-9.971241e-06
-9.968115e-06
-9.953738e-06
-9.897970e-06
0.000000e+00
-3.310564e-06
-6.904001e-06
-9.853079e-06
-1.243388e-05
-1.460367e-05
-1.633116e-05
-1.762213e-05
-1.852982e-05
-1.912900e-05
-1.949846e-05
-1.970978e-05
-1.982176e-05
-1.987976e-05
-1.991395e-05
-1.992908e-05
-1.991450e-05
0.000000e+00
-4.476871e-06
-1.003323e-05
-1.441065e-05
-1.821999e-05
-2.150507e-05
-2.415186e-05
-2.614160e-05
-2.755344e-05
-2.850391e-05
-2.911217e-05
-2.948374e-05
-2.970258e-05
-2.982907e-05
-2.990107e-05
-2.993544e-05
-2.994056e-05
0.000000e+00
-6.159533e-06
-1.252830e-05
-1.821457e-05
-2.332689e-05
-2.776577e-05
-3.139483e-05
-3.419245e-05
-3.623874e-05
-3.766616e-05
-3.861959e-05
-3.923178e-05
-3.961025e-05
-3.983311e-05
-3.995096e-05
-3.999638e-05
-4.000422e-05
0.000000e+00
5.483849e-06
9.527977e-06
1.402930e-05
1.969904e-05
2.641869e-05
3.401650e-05
4.234718e-05
5.126190e-05
6.061716e-05
7.029119e-05
8.019487e-05
9.028556e-05
1.006296e-04
1.115859e-04
1.234089e-04
1.354620e-04
0.000000e+00
2.790297e-06
6.884522e-06
1.162240e-05
1.756247e-05
2.462038e-05
3.260482e-05
4.130210e-05
5.052645e-05
6.012277e-05
6.997313e-05
7.999878e-05
9.016594e-05
1.005080e-04
1.111814e-04
1.225730e-04
1.343699e-04
0.000000e+00
1.227706e-06
4.849269e-06
9.848827e-06
1.601279e-05
2.332787e-05
3.158739e-05
4.054874e-05
5.000000e-05
5.977716e-05
6.976322e-05
7.988531e-05
9.010853e-05
1.004115e-04
1.107843e-04
1.216964e-04
1.330998e-04
0.000000e+00
7.102675e-07
3.963841e-06
8.971178e-06
1.527419e-05
2.271843e-05
3.109741e-05
4.017539e-05
4.973552e-05
5.960632e-05
6.966602e-05
7.983766e-05
9.007360e-05
1.003223e-04
1.105534e-04
1.211129e-04
1.320412e-04
0.000000e+00
6.100173e-07
3.731928e-06
8.690964e-06
1.504597e-05
2.253358e-05
3.094836e-05
4.006153e-05
4.965733e-05
5.956061e-05
6.964517e-05
7.982788e-05
9.005251e-05
1.002703e-04
1.104640e-04
1.208232e-04
1.313364e-04
0.000000e+00
7.109958e-07
3.964131e-06
8.970697e-06
1.527343e-05
2.271928e-05
3.110277e-05
4.018827e-05
4.975810e-05
5.963855e-05
6.970297e-05
7.986509e-05
9.006655e-05
1.002666e-04
1.104564e-04
1.207028e-04
1.309533e-04
0.000000e+00
1.228835e-06
4.849992e-06
9.848749e-06
1.601275e-05
2.333131e-05
3.159943e-05
4.057479e-05
5.004414e-05
5.983999e-05
6.983777e-05
7.994942e-05
9.011454e-05
1.002939e-04
1.104707e-04
1.206510e-04
1.307809e-04
0.000000e+00
2.792608e-06
6.887898e-06
1.162623e-05
1.756772e-05
2.463002e-05
3.262351e-05
4.133523e-05
5.057882e-05
6.019622e-05
7.006214e-05
8.008221e-05
9.018813e-05
1.003331e-04
1.104876e-04
1.206299e-04
1.307245e-04
0.000000e+00
5.488608e-06
9.535171e-06
1.403884e-05
1.971150e-05
2.643489e-05
3.403810e-05
4.237729e-05
5.130471e-05
6.067556e-05
7.036183e-05
8.025896e-05
9.028588e-05
1.003832e-04
1.105087e-04
1.206284e-04
1.307161e-04


2.096521e+00
2.090469e+00
2.199781e+00
2.383002e+00
2.546830e+00
2.699364e+00
2.842667e+00
2.966480e+00
3.063799e+00
3.134207e+00
3.181290e+00
3.209246e+00
3.216804e+00
3.188064e+00
3.127113e+00
3.080605e+00
2.351055e+00
2.341823e+00
2.421164e+00
2.562323e+00
2.690340e+00
2.810636e+00
2.924513e+00
3.023174e+00
3.100870e+00
3.157101e+00
3.194536e+00
3.216241e+00
3.219963e+00
3.189317e+00
3.129628e+00
3.084803e+00
2.758611e+00
2.747292e+00
2.785826e+00
2.859097e+00
2.927266e+00
2.994438e+00
3.058868e+00
3.115093e+00
3.159676e+00
3.192022e+00
3.213350e+00
3.225135e+00
3.224944e+00
3.199539e+00
3.152468e+00
3.118405e+00
3.036427e+00
3.026915e+00
3.036887e+00
3.061672e+00
3.089991e+00
3.120202e+00
3.149774e+00
3.175971e+00
3.197086e+00
3.212526e+00
3.222644e+00
3.228147e+00
3.227747e+00
3.214192e+00
3.188927e+00
3.170793e+00
3.036342e+00
3.026785e+00
3.036668e+00
3.061311e+00
3.089435e+00
3.119381e+00
3.148595e+00
3.174322e+00
3.194897e+00
3.209876e+00
3.219876e+00
3.226108e+00
3.228920e+00
3.225981e+00
3.217779e+00
3.211690e+00
2.758236e+00
2.746769e+00
2.785049e+00
2.858000e+00
2.925831e+00
2.992664e+00
3.056670e+00
3.112252e+00
3.155951e+00
3.187411e+00
3.208450e+00
3.221864e+00
3.230087e+00
3.234005e+00
3.234659e+00
3.234403e+00
2.350253e+00
2.340777e+00
2.419764e+00
2.560631e+00
2.688593e+00
2.809186e+00
2.923583e+00
3.022655e+00
3.100366e+00
3.156247e+00
3.193519e+00
3.216907e+00
3.230938e+00
3.238888e+00
3.242951e+00
3.244597e+00
2.095426e+00
2.089079e+00
2.198019e+00
2.381051e+00
2.545146e+00
2.698603e+00
2.843337e+00
2.968625e+00
3.066974e+00
3.137775e+00
3.184989e+00
3.214403e+00
3.231681e+00
3.241283e+00
3.246183e+00
3.248236e+00


-3.029605e-01
-1.144317e-01
-2.027188e-02
-1.009340e-02
3.428188e-02
1.047659e-01
1.927151e-01
2.957239e-01
4.068556e-01
5.154068e-01
6.110637e-01
6.861037e-01
7.361985e-01
7.599383e-01
7.814332e-01
5.772519e-02
5.335555e-01
4.323643e-01
4.355956e-01
4.382353e-01
4.595347e-01
4.946577e-01
5.397440e-01
5.948577e-01
6.581420e-01
7.259298e-01
7.944900e-01
8.608038e-01
9.210866e-01
9.619225e-01
8.698554e-01
-3.861751e-01
8.387389e-01
7.729218e-01
7.303663e-01
7.186071e-01
7.215226e-01
7.315683e-01
7.471184e-01
7.686332e-01
7.961809e-01
8.285183e-01
8.622902e-01
8.900949e-01
8.961810e-01
8.454328e-01
6.648588e-01
3.416711e-01
9.569170e-01
9.089142e-01
8.723467e-01
8.541088e-01
8.464458e-01
8.421987e-01
8.396135e-01
8.387326e-01
8.396891e-01
8.414139e-01
8.403721e-01
8.295936e-01
7.995801e-01
7.479063e-01
7.068843e-01
6.983125e-01
9.571999e-01
9.092892e-01
8.727109e-01
8.541594e-01
8.455958e-01
8.394224e-01
8.332244e-01
8.262486e-01
8.179782e-01
8.074950e-01
7.935547e-01
7.760312e-01
7.601551e-01
7.630593e-01
8.055378e-01
8.780306e-01
8.393647e-01
7.737810e-01
7.312581e-01
7.189538e-01
7.201958e-01
7.265398e-01
7.350097e-01
7.443669e-01
7.531215e-01
7.597856e-01
7.644631e-01
7.712687e-01
7.901500e-01
8.322702e-01
8.962393e-01
9.623647e-01
5.339226e-01
4.329072e-01
4.361598e-01
4.385797e-01
4.591590e-01
4.927321e-01
5.349990e-01
5.853776e-01
6.411302e-01
6.977609e-01
7.516672e-01
8.025205e-01
8.538461e-01
9.089019e-01
9.607657e-01
9.934508e-01
-3.035401e-01
-1.155043e-01
-2.167574e-02
-1.198178e-02
3.223487e-02
1.038402e-01
1.960609e-01
3.091155e-01
4.386272e-01
5.752527e-01
7.076018e-01
8.237356e-01
9.126913e-01
9.683396e-01
9.937957e-01
9.998696e-01
1 2 19 18
2 3 20 19
3 4 21 20
4 5 22 21
5 6 23 22
6 7 24 23
7 8 25 24
8 9 26 25
9 10 27 26
10 11 28 27
11 12 29 28
12 13 30 29
13 14 31 30
14 15 32 31
15 16 33 32
16 17 34 33
18 19 36 35
19 20 37 36
20 21 38 37
21 22 39 38
22 23 40 39
23 24 41 40
24 25 42 41
25 26 43 42
26 27 44 43
27 28 45 44
28 29 46 45
29 30 47 46
30 31 48 47
31 32 49 48
32 33 50 49
33 34 51 50
35 36 53 52
36 37 54 53
37 38 55 54
38 39 56 55
39 40 57 56
40 41 58 57
41 42 59 58
42 43 60 59
43 44 61 60
44 45 62 61
45 46 63 62
46 47 64 63
47 48 65 64
48 49 66 65
49 50 67 66
50 51 68 67
52 53 70 69
53 54 71 70
54 55 72 71
55 56 73 72
56 57 74 73
57 58 75 74
58 59 76 75
59 60 77 76
60 61 78 77
61 62 79 78
62 63 80 79
63 64 81 80
64 65 82 81
65 66 83 82
66 67 84 83
67 68 85 84
69 70 87 86
70 71 88 87
71 72 89 88
72 73 90 89
73 74 91 90
74 75 92 91
75 76 93 92
76 77 94 93
77 78 95 94
78 79 96 95
79 80 97 96
80 81 98 97
81 82 99 98
82 83 100 99
83 84 101 100
84 85 102 101
86 87 104 103
87 88 105 104
88 89 106 105
89 90 107 106
90 91 108 107
91 92 109 108
92 93 110 109
93 94 111 110
94 95 112 111
95 96 113 112
96 97 114 113
97 98 115 114
98 99 116 115
99 100 117 116
100 101 118 117
101 102 119 118
103 104 121 120
104 105 122 121
105 106 123 122
106 107 124 123
107 108 125 124
108 109 126 125
109 110 127 126
110 111 128 127
111 112 129 128
112 113 130 129
113 114 131 130
114 115 132 131
115 116 133 132
116 117 134 133
117 118 135 134
118 119 136 135
120 121 138 137
121 122 139 138
122 123 140 139
123 124 141 140
124 125 142 141
125 126 143 142
126 127 144 143
127 128 145 144
128 129 146 145
129 130 147 146
130 131 148 147
131 132 149 148
132 133 150 149
133 134 151 150
134 135 152 151
135 136 153 152
