TITLE = "Solution"
VARIABLES = x, y, u, v, psiu, psiv, t, stress
ZONE T="structure" N=153 E=128 F=FEBLOCK ET=QUADRILATERAL VARLOCATION=([7,8]=cellcentered)
0.000000e+00
1.250000e+01
2.500000e+01
3.750000e+01
5.000000e+01
6.250000e+01
7.500000e+01
8.750000e+01
1.000000e+02
1.125000e+02
1.250000e+02
1.375000e+02
1.500000e+02
1.625000e+02
1.750000e+02
1.875000e+02
2.000000e+02
0.000000e+00
1.250000e+01
2.500000e+01
3.750000e+01
5.000000e+01
6.250000e+01
7.500000e+01
8.750000e+01
1.000000e+02
1.125000e+02
1.250000e+02
1.375000e+02
1.500000e+02
1.625000e+02
1.750000e+02
1.875000e+02
2.000000e+02
0.000000e+00
1.250000e+01
2.500000e+01
3.750000e+01
5.000000e+01
6.250000e+01
7.500000e+01
8.750000e+01
1.000000e+02
1.125000e+02
1.250000e+02
1.375000e+02
1.500000e+02
1.625000e+02
1.750000e+02
1.875000e+02
2.000000e+02
0.000000e+00
1.250000e+01
2.500000e+01
3.750000e+01
5.000000e+01
6.250000e+01
7.500000e+01
8.750000e+01
1.000000e+02
1.125000e+02
1.250000e+02
1.375000e+02
1.500000e+02
1.625000e+02
1.750000e+02
1.875000e+02
2.000000e+02
0.000000e+00
1.250000e+01
2.500000e+01
3.750000e+01
5.000000e+01
6.250000e+01
7.500000e+01
8.750000e+01
1.000000e+02
1.125000e+02
1.250000e+02
1.375000e+02
1.500000e+02
1.625000e+02
1.750000e+02
1.875000e+02
2.000000e+02
0.000000e+00
1.250000e+01
2.500000e+01
3.750000e+01
5.000000e+01
6.250000e+01
7.500000e+01
8.750000e+01
1.000000e+02
1.125000e+02
1.250000e+02
1.375000e+02
1.500000e+02
1.625000e+02
1.750000e+02
1.875000e+02
2.000000e+02
0.000000e+00
1.250000e+01
2.500000e+01
3.750000e+01
5.000000e+01
6.250000e+01
7.500000e+01
8.750000e+01
1.000000e+02
1.125000e+02
1.250000e+02
1.375000e+02
1.500000e+02
1.625000e+02
1.750000e+02
1.875000e+02
2.000000e+02
0.000000e+00
1.250000e+01
2.500000e+01
3.750000e+01
5.000000e+01
6.250000e+01
7.500000e+01
8.750000e+01
1.000000e+02
1.125000e+02
1.250000e+02
1.375000e+02
1.500000e+02
1.625000e+02
1.750000e+02
1.875000e+02
2.000000e+02
0.000000e+00
1.250000e+01
2.500000e+01
3.750000e+01
5.000000e+01
6.250000e+01
7.500000e+01
8.750000e+01
1.000000e+02
1.125000e+02
1.250000e+02
1.375000e+02
1.500000e+02
1.625000e+02
1.750000e+02
1.875000e+02
2.000000e+02
0.000000e+00
0.000000e+00
0.000000e+00
0.000000e+00
0.000000e+00
0.000000e+00
0.000000e+00
0.000000e+00
0.000000e+00
0.000000e+00
0.000000e+00
0.000000e+00
0.000000e+00
0.000000e+00
0.000000e+00
0.000000e+00
0.000000e+00
1.250000e+01
1.250000e+01
1.250000e+01
1.250000e+01
1.250000e+01
1.250000e+01
1.250000e+01
1.250000e+01
1.250000e+01
1.250000e+01
1.250000e+01
1.250000e+01
1.250000e+01
1.250000e+01
1.250000e+01
1.250000e+01
1.250000e+01
2.500000e+01
2.500000e+01
2.500000e+01
2.500000e+01
2.500000e+01
2.500000e+01
2.500000e+01
2.500000e+01
2.500000e+01
2.500000e+01
2.500000e+01
2.500000e+01
2.500000e+01
2.500000e+01
2.500000e+01
2.500000e+01
2.500000e+01
3.750000e+01
3.750000e+01
3.750000e+01
3.750000e+01
3.750000e+01
3.750000e+01
3.750000e+01
3.750000e+01
3.750000e+01
3.750000e+01
3.750000e+01
3.750000e+01
3.750000e+01
3.750000e+01
3.750000e+01
3.750000e+01
3.750000e+01
5.000000e+01
5.000000e+01
5.000000e+01
5.000000e+01
5.000000e+01
5.000000e+01
5.000000e+01
5.000000e+01
5.000000e+01
5.000000e+01
5.000000e+01
5.000000e+01
5.000000e+01
5.000000e+01
5.000000e+01
5.000000e+01
5.000000e+01
6.250000e+01
6.250000e+01
6.250000e+01
6.250000e+01
6.250000e+01
6.250000e+01
6.250000e+01
6.250000e+01
6.250000e+01
6.250000e+01
6.250000e+01
6.250000e+01
6.250000e+01
6.250000e+01
6.250000e+01
6.250000e+01
6.250000e+01
7.500000e+01
7.500000e+01
7.500000e+01
7.500000e+01
7.500000e+01
7.500000e+01
7.500000e+01
7.500000e+01
7.500000e+01
7.500000e+01
7.500000e+01
7.500000e+01
7.500000e+01
7.500000e+01
7.500000e+01
7.500000e+01
7.500000e+01
8.750000e+01
8.750000e+01
8.750000e+01
8.750000e+01
8.750000e+01
8.750000e+01
8.750000e+01
8.750000e+01
8.750000e+01
8.750000e+01
8.750000e+01
8.750000e+01
8.750000e+01
8.750000e+01
8.750000e+01
8.750000e+01
8.750000e+01
1.000000e+02
1.000000e+02
1.000000e+02
1.000000e+02
1.000000e+02
1.000000e+02
1.000000e+02
1.000000e+02
1.000000e+02
1.000000e+02
1.000000e+02
1.000000e+02
1.000000e+02
1.000000e+02
1.000000e+02
1.000000e+02
1.000000e+02
0.000000e+00
-7.031833e-02
-1.294783e-01
-1.839132e-01
-2.346073e-01
-2.814536e-01
-3.243517e-01
-3.632683e-01
-3.982600e-01
-4.294879e-01
-4.572617e-01
-4.821242e-01
-5.050093e-01
-5.275300e-01
-5.524689e-01
-5.830970e-01
-6.060800e-01
0.000000e+00
-4.199286e-02
-8.723199e-02
-1.290074e-01
-1.674955e-01
-2.028424e-01
-2.351216e-01
-2.643762e-01
-2.906590e-01
-3.140510e-01
-3.346709e-01
-3.526673e-01
-3.681551e-01
-3.809748e-01
-3.900172e-01
-3.919992e-01
-3.991050e-01
0.000000e+00
-2.626114e-02
-5.399946e-02
-8.167254e-02
-1.075045e-01
-1.312219e-01
-1.528054e-01
-1.722794e-01
-1.896489e-01
-2.048847e-01
-2.179050e-01
-2.285278e-01
-2.363744e-01
-2.407545e-01
-2.408761e-01
-2.391263e-01
-2.463736e-01
0.000000e+00
-1.267525e-02
-2.609369e-02
-3.959688e-02
-5.250837e-02
-6.440065e-02
-7.517984e-02
-8.481453e-02
-9.324957e-02
-1.003752e-01
-1.060094e-01
-1.098860e-01
-1.116879e-01
-1.112670e-01
-1.095374e-01
-1.100104e-01
-1.154068e-01
0.000000e+00
-1.167633e-05
-2.654397e-05
-4.136279e-05
-4.922743e-05
-3.473926e-05
3.266608e-05
2.078326e-04
5.807390e-04
1.285414e-03
2.496717e-03
4.390309e-03
7.013655e-03
9.978166e-03
1.202596e-02
1.146432e-02
7.891431e-03
0.000000e+00
1.265728e-02
2.605198e-02
3.953016e-02
5.242539e-02
6.433316e-02
7.520602e-02
8.509715e-02
9.409232e-02
1.022958e-01
1.098150e-01
1.167053e-01
1.228471e-01
1.277722e-01
1.306693e-01
1.308991e-01
1.290857e-01
0.000000e+00
2.625819e-02
5.399047e-02
8.165466e-02
1.074766e-01
1.311871e-01
1.527766e-01
1.722888e-01
1.897643e-01
2.052341e-01
2.187117e-01
2.301642e-01
2.394598e-01
2.463324e-01
2.504574e-01
2.517968e-01
2.513739e-01
0.000000e+00
4.201009e-02
8.726945e-02
1.290672e-01
1.675756e-01
2.029282e-01
2.351697e-01
2.642883e-01
2.902395e-01
3.129485e-01
3.323075e-01
3.481826e-01
3.604469e-01
3.690598e-01
3.741976e-01
3.763886e-01
3.767910e-01
0.000000e+00
7.034714e-02
1.295543e-01
1.840556e-01
2.348347e-01
2.817735e-01
3.247333e-01
3.635891e-01
3.982112e-01
4.284194e-01
4.539519e-01
4.744683e-01
4.896316e-01
4.993226e-01
5.040093e-01
5.051661e-01
5.051438e-01
0.000000e+00
-4.256562e-02
-8.356127e-02
-1.366821e-01
-2.018769e-01
-2.790237e-01
-3.672776e-01
-4.656510e-01
-5.730979e-01
-6.885859e-01
-8.111618e-01
-9.400665e-01
-1.074989e+00
-1.216651e+00
-1.368725e+00
-1.542727e+00
-1.792736e+00
0.000000e+00
-2.620418e-02
-6.896936e-02
-1.227489e-01
-1.890092e-01
-2.672088e-01
-3.565319e-01
-4.559667e-01
-5.644549e-01
-6.809458e-01
-8.044594e-01
-9.342023e-01
-1.069815e+00
-1.212000e+00
-1.364016e+00
-1.536961e+00
-1.748838e+00
0.000000e+00
-1.977338e-02
-5.885353e-02
-1.128316e-01
-1.797183e-01
-2.587229e-01
-3.488670e-01
-4.491291e-01
-5.584583e-01
-6.758186e-01
-8.002491e-01
-9.309834e-01
-1.067697e+00
-1.210975e+00
-1.363121e+00
-1.526993e+00
-1.685587e+00
0.000000e+00
-1.703929e-02
-5.382399e-02
-1.070103e-01
-1.741389e-01
-2.536298e-01
-3.443359e-01
-4.451969e-01
-5.551816e-01
-6.732822e-01
-7.985584e-01
-9.302292e-01
-1.067815e+00
-1.211252e+00
-1.360354e+00
-1.510929e+00
-1.649644e+00
0.000000e+00
-1.625165e-02
-5.230181e-02
-1.051533e-01
-1.723002e-01
-2.519889e-01
-3.429558e-01
-4.441415e-01
-5.545344e-01
-6.731432e-01
-7.990067e-01
-9.312200e-01
-1.068929e+00
-1.211117e+00
-1.355656e+00
-1.497604e+00
-1.628373e+00
0.000000e+00
-1.702917e-02
-5.381679e-02
-1.070232e-01
-1.742018e-01
-2.537955e-01
-3.446905e-01
-4.458685e-01
-5.563394e-01
-6.751070e-01
-8.011480e-01
-9.333676e-01
-1.070487e+00
-1.210760e+00
-1.351494e+00
-1.488574e+00
-1.616552e+00
0.000000e+00
-1.975688e-02
-5.884160e-02
-1.128529e-01
-1.798243e-01
-2.590033e-01
-3.494682e-01
-4.502694e-01
-5.604268e-01
-6.789271e-01
-8.046779e-01
-9.364162e-01
-1.072555e+00
-1.210990e+00
-1.348995e+00
-1.483445e+00
-1.611338e+00
0.000000e+00
-2.618871e-02
-6.895898e-02
-1.227773e-01
-1.891365e-01
-2.675386e-01
-3.572317e-01
-4.572846e-01
-5.667162e-01
-6.844946e-01
-8.094827e-01
-9.403272e-01
-1.075306e+00
-1.212200e+00
-1.348370e+00
-1.481324e+00
-1.610114e+00
0.000000e+00
-4.255923e-02
-8.356216e-02
-1.367260e-01
-2.020244e-01
-2.793761e-01
-3.679937e-01
-4.669575e-01
-5.752759e-01
-6.918991e-01
-8.156625e-01
-9.451829e-01
-1.078726e+00
-1.214123e+00
-1.348901e+00
-1.480936e+00
-1.610133e+00


0.000000e+00
9.957073e-08
1.995063e-07
2.923201e-07
3.793666e-07
4.601541e-07
5.343432e-07
6.019126e-07
6.629973e-07
7.178530e-07
7.668426e-07
8.103703e-07
8.486722e-07
8.814469e-07
9.082722e-07
9.311947e-07
9.515902e-07
0.000000e+00
5.599245e-08
1.362533e-07
2.084270e-07
2.746075e-07
3.356168e-07
3.913989e-07
4.419536e-07
4.873208e-07
5.275325e-07
5.625759e-07
5.923475e-07
6.166958e-07
6.361215e-07
6.538649e-07
6.749235e-07
6.965971e-07
0.000000e+00
3.527640e-08
8.610177e-08
1.337926e-07
1.782554e-07
2.191531e-07
2.563241e-07
2.897233e-07
3.192993e-07
3.449522e-07
3.665347e-07
3.839420e-07
3.974468e-07
4.084347e-07
4.200242e-07
4.356823e-07
4.537736e-07
0.000000e+00
1.723155e-08
4.127530e-08
6.463148e-08
8.686461e-08
1.072916e-07
1.256914e-07
1.419795e-07
1.560600e-07
1.678102e-07
1.771280e-07
1.840682e-07
1.890998e-07
1.934082e-07
1.989589e-07
2.080853e-07
2.206454e-07
0.000000e+00
1.805810e-11
2.237247e-11
-9.484789e-12
-1.081622e-10
-3.225585e-10
-7.243708e-10
-1.409016e-09
-2.487207e-09
-4.057435e-09
-6.145607e-09
-8.604187e-09
-1.099408e-08
-1.251028e-08
-1.191289e-08
-7.617232e-09
6.338958e-10
0.000000e+00
-1.719780e-08
-4.122999e-08
-6.463316e-08
-8.702214e-08
-1.077958e-07
-1.268553e-07
-1.442814e-07
-1.601749e-07
-1.745980e-07
-1.875220e-07
-1.987704e-07
-2.079833e-07
-2.146232e-07
-2.180259e-07
-2.173772e-07
-2.128575e-07
0.000000e+00
-3.525515e-08
-8.607037e-08
-1.337739e-07
-1.782925e-07
-2.193277e-07
-2.567787e-07
-2.906866e-07
-3.211100e-07
-3.480670e-07
-3.714915e-07
-3.911979e-07
-4.068733e-07
-4.181505e-07
-4.248425e-07
-4.270710e-07
-4.257364e-07
0.000000e+00
-5.601376e-08
-1.362957e-07
-2.084654e-07
-2.746005e-07
-3.354936e-07
-3.910433e-07
-4.411860e-07
-4.858813e-07
-5.250718e-07
-5.586677e-07
-5.865357e-07
-6.085022e-07
-6.244208e-07
-6.344318e-07
-6.393537e-07
-6.405428e-07
0.000000e+00
-9.968844e-08
-1.997149e-07
-2.925780e-07
-3.795871e-07
-4.601560e-07
-5.337837e-07
-6.001985e-07
-6.591825e-07
-7.105363e-07
-7.541026e-07
-7.898116e-07
-8.177234e-07
-8.380673e-07
-8.513185e-07
-8.581688e-07
-8.603692e-07
0.000000e+00
9.013954e-08
1.758605e-07
2.720541e-07
3.867821e-07
5.212282e-07
6.745123e-07
8.452192e-07
1.031717e-06
1.232423e-06
1.445979e-06
1.671549e-06
1.909589e-06
2.163522e-06
2.439617e-06
2.732894e-06
3.023864e-06
0.000000e+00
5.453260e-08
1.378458e-07
2.347887e-07
3.517446e-07
4.888880e-07
6.450695e-07
8.186891e-07
1.008073e-06
1.211616e-06
1.427935e-06
1.656130e-06
1.896223e-06
2.149719e-06
2.419094e-06
2.704933e-06
2.992074e-06
0.000000e+00
3.474350e-08
1.073701e-07
2.042020e-07
3.228384e-07
4.623202e-07
6.210235e-07
7.972231e-07
9.892168e-07
1.195391e-06
1.414315e-06
1.644867e-06
1.886273e-06
2.137826e-06
2.399109e-06
2.674510e-06
2.952395e-06
0.000000e+00
2.549650e-08
9.133547e-08
1.863648e-07
3.057758e-07
4.467069e-07
6.070525e-07
7.849775e-07
9.787562e-07
1.186746e-06
1.407398e-06
1.639239e-06
1.880715e-06
2.129880e-06
2.385174e-06
2.649953e-06
2.913996e-06
0.000000e+00
2.283873e-08
8.647314e-08
1.806265e-07
3.002466e-07
4.417585e-07
6.028130e-07
7.815259e-07
9.761496e-07
1.184979e-06
1.406307e-06
1.638331e-06
1.878977e-06
2.125669e-06
2.375873e-06
2.631148e-06
2.881574e-06
0.000000e+00
2.551710e-08
9.141273e-08
1.865559e-07
3.061556e-07
4.473773e-07
6.081406e-07
7.866174e-07
9.810414e-07
1.189631e-06
1.410523e-06
1.641677e-06
1.880716e-06
2.124709e-06
2.370490e-06
2.617829e-06
2.858322e-06
0.000000e+00
3.477672e-08
1.075047e-07
2.045369e-07
3.235046e-07
4.634974e-07
6.229364e-07
8.001088e-07
9.932416e-07
1.200477e-06
1.419824e-06
1.649074e-06
1.885687e-06
2.126604e-06
2.368446e-06
2.609847e-06
2.844156e-06
0.000000e+00
5.457477e-08
1.380166e-07
2.352012e-07
3.525574e-07
4.903173e-07
6.473824e-07
8.221617e-07
1.012885e-06
1.217634e-06
1.434315e-06
1.660601e-06
1.893862e-06
2.131093e-06
2.369179e-06
2.606259e-06
2.837392e-06
0.000000e+00
9.020941e-08
1.760601e-07
2.724990e-07
3.876284e-07
5.226823e-07
6.768182e-07
8.486073e-07
1.036286e-06
1.237904e-06
1.451316e-06
1.674136e-06
1.903708e-06
2.137149e-06
2.371717e-06
2.605675e-06
2.835420e-06


2.054641e-01
2.054640e-01
2.054641e-01
2.054642e-01
2.054643e-01
2.054644e-01
2.054644e-01
2.054645e-01
2.054646e-01
2.054646e-01
2.054646e-01
2.054647e-01
2.054647e-01
2.054647e-01
2.054646e-01
2.054646e-01
2.054642e-01
2.054642e-01
2.054642e-01
2.054643e-01
2.054644e-01
2.054644e-01
2.054645e-01
2.054645e-01
2.054646e-01
2.054646e-01
2.054647e-01
2.054647e-01
2.054647e-01
2.054647e-01
2.054646e-01
2.054646e-01
2.054645e-01
2.054644e-01
2.054644e-01
2.054645e-01
2.054645e-01
2.054646e-01
2.054646e-01
2.054646e-01
2.054646e-01
2.054647e-01
2.054647e-01
2.054647e-01
2.054647e-01
2.054647e-01
2.054646e-01
2.054646e-01
2.054646e-01
2.054646e-01
2.054646e-01
2.054646e-01
2.054646e-01
2.054646e-01
2.054647e-01
2.054647e-01
2.054647e-01
2.054647e-01
2.054647e-01
2.054647e-01
2.054647e-01
2.054647e-01
2.054647e-01
2.054647e-01
2.054646e-01
2.054646e-01
2.054646e-01
2.054646e-01
2.054646e-01
2.054646e-01
2.054647e-01
2.054647e-01
2.054647e-01
2.054647e-01
2.054647e-01
2.054647e-01
2.054647e-01
2.054647e-01
2.054647e-01
2.054647e-01
2.054645e-01
2.054644e-01
2.054644e-01
2.054645e-01
2.054645e-01
2.054645e-01
2.054646e-01
2.054646e-01
2.054646e-01
2.054647e-01
2.054647e-01
2.054647e-01
2.054647e-01
2.054647e-01
2.054647e-01
2.054647e-01
2.054642e-01
2.054642e-01
2.054642e-01
2.054643e-01
2.054644e-01
2.054644e-01
2.054645e-01
2.054645e-01
2.054646e-01
2.054646e-01
2.054647e-01
2.054647e-01
2.054647e-01
2.054647e-01
2.054648e-01
2.054648e-01
2.054641e-01
2.054640e-01
2.054641e-01
2.054642e-01
2.054643e-01
2.054644e-01
2.054644e-01
2.054645e-01
2.054646e-01
2.054646e-01
2.054647e-01
2.054647e-01
2.054647e-01
2.054648e-01
2.054648e-01
2.054648e-01


9.888753e-01
9.904529e-01
9.919122e-01
9.930357e-01
9.940784e-01
9.950400e-01
9.959160e-01
9.966962e-01
9.973724e-01
9.979380e-01
9.983877e-01
9.987172e-01
9.989220e-01
9.989950e-01
9.990478e-01
9.957966e-01
9.957913e-01
9.950684e-01
9.955335e-01
9.961406e-01
9.967065e-01
9.972209e-01
9.976866e-01
9.981083e-01
9.984902e-01
9.988361e-01
9.991500e-01
9.994342e-01
9.996821e-01
9.998445e-01
9.994339e-01
9.938686e-01
9.985377e-01
9.981225e-01
9.980104e-01
9.981680e-01
9.983755e-01
9.985764e-01
9.987629e-01
9.989392e-01
9.991099e-01
9.992764e-01
9.994318e-01
9.995522e-01
9.995773e-01
9.993606e-01
9.985742e-01
9.971599e-01
9.997024e-01
9.993996e-01
9.992125e-01
9.991650e-01
9.991840e-01
9.992158e-01
9.992475e-01
9.992786e-01
9.993090e-01
9.993345e-01
9.993416e-01
9.993037e-01
9.991835e-01
9.989677e-01
9.987847e-01
9.987383e-01
9.997035e-01
9.994011e-01
9.992139e-01
9.991647e-01
9.991793e-01
9.992022e-01
9.992181e-01
9.992235e-01
9.992162e-01
9.991927e-01
9.991491e-01
9.990861e-01
9.990262e-01
9.990381e-01
9.992075e-01
9.995007e-01
9.985398e-01
9.981256e-01
9.980134e-01
9.981681e-01
9.983674e-01
9.985515e-01
9.987073e-01
9.988325e-01
9.989262e-01
9.989894e-01
9.990293e-01
9.990683e-01
9.991503e-01
9.993222e-01
9.995804e-01
9.998474e-01
9.957909e-01
9.950681e-01
9.955329e-01
9.961388e-01
9.967021e-01
9.972108e-01
9.976656e-01
9.980683e-01
9.984192e-01
9.987191e-01
9.989731e-01
9.991948e-01
9.994084e-01
9.996323e-01
9.998416e-01
9.999735e-01
9.888677e-01
9.904410e-01
9.918977e-01
9.930193e-01
9.940638e-01
9.950346e-01
9.959341e-01
9.967599e-01
9.975124e-01
9.981901e-01
9.987849e-01
9.992783e-01
9.996454e-01
9.998719e-01
9.999749e-01
9.999995e-01
1 2 19 18
2 3 20 19
3 4 21 20
4 5 22 21
5 6 23 22
6 7 24 23
7 8 25 24
8 9 26 25
9 10 27 26
10 11 28 27
11 12 29 28
12 13 30 29
13 14 31 30
14 15 32 31
15 16 33 32
16 17 34 33
18 19 36 35
19 20 37 36
20 21 38 37
21 22 39 38
22 23 40 39
23 24 41 40
24 25 42 41
25 26 43 42
26 27 44 43
27 28 45 44
28 29 46 45
29 30 47 46
30 31 48 47
31 32 49 48
32 33 50 49
33 34 51 50
35 36 53 52
36 37 54 53
37 38 55 54
38 39 56 55
39 40 57 56
40 41 58 57
41 42 59 58
42 43 60 59
43 44 61 60
44 45 62 61
45 46 63 62
46 47 64 63
47 48 65 64
48 49 66 65
49 50 67 66
50 51 68 67
52 53 70 69
53 54 71 70
54 55 72 71
55 56 73 72
56 57 74 73
57 58 75 74
58 59 76 75
59 60 77 76
60 61 78 77
61 62 79 78
62 63 80 79
63 64 81 80
64 65 82 81
65 66 83 82
66 67 84 83
67 68 85 84
69 70 87 86
70 71 88 87
71 72 89 88
72 73 90 89
73 74 91 90
74 75 92 91
75 76 93 92
76 77 94 93
77 78 95 94
78 79 96 95
79 80 97 96
80 81 98 97
81 82 99 98
82 83 100 99
83 84 101 100
84 85 102 101
86 87 104 103
87 88 105 104
88 89 106 105
89 90 107 106
90 91 108 107
91 92 109 108
92 93 110 109
93 94 111 110
94 95 112 111
95 96 113 112
96 97 114 113
97 98 115 114
98 99 116 115
99 100 117 116
100 101 118 117
101 102 119 118
103 104 121 120
104 105 122 121
105 106 123 122
106 107 124 123
107 108 125 124
108 109 126 125
109 110 127 126
110 111 128 127
111 112 129 128
112 113 130 129
113 114 131 130
114 115 132 131
115 116 133 132
116 117 134 133
117 118 135 134
118 119 136 135
120 121 138 137
121 122 139 138
122 123 140 139
123 124 141 140
124 125 142 141
125 126 143 142
126 127 144 143
127 128 145 144
128 129 146 145
129 130 147 146
130 131 148 147
131 132 149 148
132 133 150 149
133 134 151 150
134 135 152 151
135 136 153 152
