TITLE = "Solution"
VARIABLES = x, y, u, v, psiu, psiv, t, stress
ZONE T="structure" N=153 E=128 F=FEBLOCK ET=QUADRILATERAL VARLOCATION=([7,8]=cellcentered)
0.000000e+00
1.250000e+01
2.500000e+01
3.750000e+01
5.000000e+01
6.250000e+01
7.500000e+01
8.750000e+01
1.000000e+02
1.125000e+02
1.250000e+02
1.375000e+02
1.500000e+02
1.625000e+02
1.750000e+02
1.875000e+02
2.000000e+02
0.000000e+00
1.250000e+01
2.500000e+01
3.750000e+01
5.000000e+01
6.250000e+01
7.500000e+01
8.750000e+01
1.000000e+02
1.125000e+02
1.250000e+02
1.375000e+02
1.500000e+02
1.625000e+02
1.750000e+02
1.875000e+02
2.000000e+02
0.000000e+00
1.250000e+01
2.500000e+01
3.750000e+01
5.000000e+01
6.250000e+01
7.500000e+01
8.750000e+01
1.000000e+02
1.125000e+02
1.250000e+02
1.375000e+02
1.500000e+02
1.625000e+02
1.750000e+02
1.875000e+02
2.000000e+02
0.000000e+00
1.250000e+01
2.500000e+01
3.750000e+01
5.000000e+01
6.250000e+01
7.500000e+01
8.750000e+01
1.000000e+02
1.125000e+02
1.250000e+02
1.375000e+02
1.500000e+02
1.625000e+02
1.750000e+02
1.875000e+02
2.000000e+02
0.000000e+00
1.250000e+01
2.500000e+01
3.750000e+01
5.000000e+01
6.250000e+01
7.500000e+01
8.750000e+01
1.000000e+02
1.125000e+02
1.250000e+02
1.375000e+02
1.500000e+02
1.625000e+02
1.750000e+02
1.875000e+02
2.000000e+02
0.000000e+00
1.250000e+01
2.500000e+01
3.750000e+01
5.000000e+01
6.250000e+01
7.500000e+01
8.750000e+01
1.000000e+02
1.125000e+02
1.250000e+02
1.375000e+02
1.500000e+02
1.625000e+02
1.750000e+02
1.875000e+02
2.000000e+02
0.000000e+00
1.250000e+01
2.500000e+01
3.750000e+01
5.000000e+01
6.250000e+01
7.500000e+01
8.750000e+01
1.000000e+02
1.125000e+02
1.250000e+02
1.375000e+02
1.500000e+02
1.625000e+02
1.750000e+02
1.875000e+02
2.000000e+02
0.000000e+00
1.250000e+01
2.500000e+01
3.750000e+01
5.000000e+01
6.250000e+01
7.500000e+01
8.750000e+01
1.000000e+02
1.125000e+02
1.250000e+02
1.375000e+02
1.500000e+02
1.625000e+02
1.750000e+02
1.875000e+02
2.000000e+02
0.000000e+00
1.250000e+01
2.500000e+01
3.750000e+01
5.000000e+01
6.250000e+01
7.500000e+01
8.750000e+01
1.000000e+02
1.125000e+02
1.250000e+02
1.375000e+02
1.500000e+02
1.625000e+02
1.750000e+02
1.875000e+02
2.000000e+02
0.000000e+00
0.000000e+00
0.000000e+00
0.000000e+00
0.000000e+00
0.000000e+00
0.000000e+00
0.000000e+00
0.000000e+00
0.000000e+00
0.000000e+00
0.000000e+00
0.000000e+00
0.000000e+00
0.000000e+00
0.000000e+00
0.000000e+00
1.250000e+01
1.250000e+01
1.250000e+01
1.250000e+01
1.250000e+01
1.250000e+01
1.250000e+01
1.250000e+01
1.250000e+01
1.250000e+01
1.250000e+01
1.250000e+01
1.250000e+01
1.250000e+01
1.250000e+01
1.250000e+01
1.250000e+01
2.500000e+01
2.500000e+01
2.500000e+01
2.500000e+01
2.500000e+01
2.500000e+01
2.500000e+01
2.500000e+01
2.500000e+01
2.500000e+01
2.500000e+01
2.500000e+01
2.500000e+01
2.500000e+01
2.500000e+01
2.500000e+01
2.500000e+01
3.750000e+01
3.750000e+01
3.750000e+01
3.750000e+01
3.750000e+01
3.750000e+01
3.750000e+01
3.750000e+01
3.750000e+01
3.750000e+01
3.750000e+01
3.750000e+01
3.750000e+01
3.750000e+01
3.750000e+01
3.750000e+01
3.750000e+01
5.000000e+01
5.000000e+01
5.000000e+01
5.000000e+01
5.000000e+01
5.000000e+01
5.000000e+01
5.000000e+01
5.000000e+01
5.000000e+01
5.000000e+01
5.000000e+01
5.000000e+01
5.000000e+01
5.000000e+01
5.000000e+01
5.000000e+01
6.250000e+01
6.250000e+01
6.250000e+01
6.250000e+01
6.250000e+01
6.250000e+01
6.250000e+01
6.250000e+01
6.250000e+01
6.250000e+01
6.250000e+01
6.250000e+01
6.250000e+01
6.250000e+01
6.250000e+01
6.250000e+01
6.250000e+01
7.500000e+01
7.500000e+01
7.500000e+01
7.500000e+01
7.500000e+01
7.500000e+01
7.500000e+01
7.500000e+01
7.500000e+01
7.500000e+01
7.500000e+01
7.500000e+01
7.500000e+01
7.500000e+01
7.500000e+01
7.500000e+01
7.500000e+01
8.750000e+01
8.750000e+01
8.750000e+01
8.750000e+01
8.750000e+01
8.750000e+01
8.750000e+01
8.750000e+01
8.750000e+01
8.750000e+01
8.750000e+01
8.750000e+01
8.750000e+01
8.750000e+01
8.750000e+01
8.750000e+01
8.750000e+01
1.000000e+02
1.000000e+02
1.000000e+02
1.000000e+02
1.000000e+02
1.000000e+02
1.000000e+02
1.000000e+02
1.000000e+02
1.000000e+02
1.000000e+02
1.000000e+02
1.000000e+02
1.000000e+02
1.000000e+02
1.000000e+02
1.000000e+02
0.000000e+00
-7.223436e-02
-1.330063e-01
-1.889244e-01
-2.409999e-01
-2.891229e-01
-3.331901e-01
-3.731673e-01
-4.091127e-01
-4.411918e-01
-4.697226e-01
-4.952628e-01
-5.187716e-01
-5.419063e-01
-5.675249e-01
-5.989878e-01
-6.225972e-01
0.000000e+00
-4.313704e-02
-8.960881e-02
-1.325226e-01
-1.720594e-01
-2.083695e-01
-2.415284e-01
-2.715803e-01
-2.985795e-01
-3.226091e-01
-3.437910e-01
-3.622779e-01
-3.781879e-01
-3.913570e-01
-4.006460e-01
-4.026819e-01
-4.099814e-01
0.000000e+00
-2.697665e-02
-5.547075e-02
-8.389786e-02
-1.104337e-01
-1.347974e-01
-1.569691e-01
-1.769739e-01
-1.948168e-01
-2.104679e-01
-2.238430e-01
-2.347554e-01
-2.428159e-01
-2.473154e-01
-2.474403e-01
-2.456428e-01
-2.530877e-01
0.000000e+00
-1.302059e-02
-2.680464e-02
-4.067576e-02
-5.393908e-02
-6.615544e-02
-7.722838e-02
-8.712565e-02
-9.579059e-02
-1.031105e-01
-1.088982e-01
-1.128805e-01
-1.147315e-01
-1.142991e-01
-1.125224e-01
-1.130083e-01
-1.185517e-01
0.000000e+00
-1.199481e-05
-2.726793e-05
-4.249093e-05
-5.057024e-05
-3.568749e-05
3.355479e-05
2.134955e-04
5.965664e-04
1.320449e-03
2.564771e-03
4.509979e-03
7.204835e-03
1.025016e-02
1.235377e-02
1.177682e-02
8.106548e-03
0.000000e+00
1.300214e-02
2.676179e-02
4.060722e-02
5.385383e-02
6.608610e-02
7.725527e-02
8.741598e-02
9.665631e-02
1.050834e-01
1.128075e-01
1.198856e-01
1.261949e-01
1.312542e-01
1.342303e-01
1.344664e-01
1.326035e-01
0.000000e+00
2.697362e-02
5.546152e-02
8.387949e-02
1.104050e-01
1.347617e-01
1.569395e-01
1.769835e-01
1.949354e-01
2.108268e-01
2.246718e-01
2.364364e-01
2.459854e-01
2.530453e-01
2.572828e-01
2.586587e-01
2.582243e-01
0.000000e+00
4.315474e-02
8.964728e-02
1.325839e-01
1.721416e-01
2.084576e-01
2.415778e-01
2.714900e-01
2.981485e-01
3.214765e-01
3.413631e-01
3.576710e-01
3.702696e-01
3.791173e-01
3.843951e-01
3.866458e-01
3.870592e-01
0.000000e+00
7.226395e-02
1.330844e-01
1.890707e-01
2.412335e-01
2.894515e-01
3.335820e-01
3.734968e-01
4.090625e-01
4.400941e-01
4.663226e-01
4.873982e-01
5.029748e-01
5.129300e-01
5.177444e-01
5.189328e-01
5.189098e-01
0.000000e+00
-4.372546e-02
-8.583820e-02
-1.404065e-01
-2.073779e-01
-2.866269e-01
-3.772858e-01
-4.783400e-01
-5.887148e-01
-7.073501e-01
-8.332663e-01
-9.656839e-01
-1.104284e+00
-1.249806e+00
-1.406025e+00
-1.584769e+00
-1.841591e+00
0.000000e+00
-2.691820e-02
-7.084871e-02
-1.260937e-01
-1.941596e-01
-2.744901e-01
-3.662473e-01
-4.683917e-01
-5.798363e-01
-6.995017e-01
-8.263813e-01
-9.596599e-01
-1.098969e+00
-1.245028e+00
-1.401187e+00
-1.578846e+00
-1.796497e+00
0.000000e+00
-2.031219e-02
-6.045724e-02
-1.159061e-01
-1.846155e-01
-2.657729e-01
-3.583735e-01
-4.613678e-01
-5.736762e-01
-6.942347e-01
-8.220562e-01
-9.563533e-01
-1.096792e+00
-1.243975e+00
-1.400268e+00
-1.568606e+00
-1.731522e+00
0.000000e+00
-1.750362e-02
-5.529067e-02
-1.099263e-01
-1.788841e-01
-2.605410e-01
-3.537189e-01
-4.573284e-01
-5.703102e-01
-6.916292e-01
-8.203194e-01
-9.555785e-01
-1.096914e+00
-1.244259e+00
-1.397425e+00
-1.552104e+00
-1.694599e+00
0.000000e+00
-1.669453e-02
-5.372703e-02
-1.080187e-01
-1.769952e-01
-2.588554e-01
-3.523012e-01
-4.562442e-01
-5.696454e-01
-6.914864e-01
-8.207799e-01
-9.565963e-01
-1.098058e+00
-1.244121e+00
-1.392599e+00
-1.538416e+00
-1.672748e+00
0.000000e+00
-1.749323e-02
-5.528328e-02
-1.099395e-01
-1.789487e-01
-2.607113e-01
-3.540831e-01
-4.580182e-01
-5.714996e-01
-6.935038e-01
-8.229796e-01
-9.588025e-01
-1.099658e+00
-1.243755e+00
-1.388323e+00
-1.529140e+00
-1.660605e+00
0.000000e+00
-2.029524e-02
-6.044499e-02
-1.159281e-01
-1.847244e-01
-2.660610e-01
-3.589910e-01
-4.625391e-01
-5.756984e-01
-6.974279e-01
-8.266057e-01
-9.619342e-01
-1.101783e+00
-1.243991e+00
-1.385757e+00
-1.523871e+00
-1.655249e+00
0.000000e+00
-2.690231e-02
-7.083804e-02
-1.261229e-01
-1.942903e-01
-2.748288e-01
-3.669661e-01
-4.697455e-01
-5.821592e-01
-7.031472e-01
-8.315415e-01
-9.659518e-01
-1.104609e+00
-1.245234e+00
-1.385114e+00
-1.521692e+00
-1.653992e+00
0.000000e+00
-4.371889e-02
-8.583912e-02
-1.404517e-01
-2.075294e-01
-2.869889e-01
-3.780214e-01
-4.796820e-01
-5.909522e-01
-7.107535e-01
-8.378897e-01
-9.709398e-01
-1.108122e+00
-1.247209e+00
-1.385660e+00
-1.521294e+00
-1.654011e+00


0.000000e+00
8.873235e-08
1.778022e-07
2.605158e-07
3.380728e-07
4.100354e-07
4.761042e-07
5.362637e-07
5.906378e-07
6.394578e-07
6.830497e-07
7.217760e-07
7.558495e-07
7.850048e-07
8.088690e-07
8.292652e-07
8.474170e-07
0.000000e+00
4.992030e-08
1.214671e-07
1.857898e-07
2.447546e-07
2.990968e-07
3.487701e-07
3.937777e-07
4.341583e-07
4.699433e-07
5.011238e-07
5.276097e-07
5.492680e-07
5.665454e-07
5.823268e-07
6.010632e-07
6.203520e-07
0.000000e+00
3.146581e-08
7.677732e-08
1.192824e-07
1.588978e-07
1.953253e-07
2.284241e-07
2.581568e-07
2.844803e-07
3.073077e-07
3.265097e-07
3.419946e-07
3.540060e-07
3.637777e-07
3.740858e-07
3.880178e-07
4.041180e-07
0.000000e+00
1.537474e-08
3.680952e-08
5.762703e-08
7.743702e-08
9.563163e-08
1.120156e-07
1.265155e-07
1.390473e-07
1.495031e-07
1.577928e-07
1.639662e-07
1.684412e-07
1.722732e-07
1.772113e-07
1.853318e-07
1.965085e-07
0.000000e+00
1.600139e-11
1.976187e-11
-8.672478e-12
-9.657182e-11
-2.874412e-10
-6.450654e-10
-1.254326e-09
-2.213701e-09
-3.610773e-09
-5.468509e-09
-7.655514e-09
-9.780967e-09
-1.112868e-08
-1.059608e-08
-6.773832e-09
5.674376e-10
0.000000e+00
-1.534483e-08
-3.676945e-08
-5.762892e-08
-7.757776e-08
-9.608094e-08
-1.130520e-07
-1.285646e-07
-1.427095e-07
-1.555433e-07
-1.670412e-07
-1.770469e-07
-1.852410e-07
-1.911460e-07
-1.941717e-07
-1.935943e-07
-1.895735e-07
0.000000e+00
-3.144696e-08
-7.674953e-08
-1.192660e-07
-1.589312e-07
-1.954812e-07
-2.288292e-07
-2.590145e-07
-2.860918e-07
-3.100792e-07
-3.309198e-07
-3.484499e-07
-3.623927e-07
-3.724226e-07
-3.783744e-07
-3.803564e-07
-3.791692e-07
0.000000e+00
-4.993927e-08
-1.215049e-07
-1.858241e-07
-2.447486e-07
-2.989875e-07
-3.484541e-07
-3.930952e-07
-4.328781e-07
-4.677546e-07
-4.976474e-07
-5.224401e-07
-5.419805e-07
-5.561399e-07
-5.650442e-07
-5.694220e-07
-5.704795e-07
0.000000e+00
-8.883710e-08
-1.779878e-07
-2.607453e-07
-3.382690e-07
-4.100372e-07
-4.756064e-07
-5.347388e-07
-5.872443e-07
-6.329493e-07
-6.717173e-07
-7.034891e-07
-7.283208e-07
-7.464181e-07
-7.582051e-07
-7.642980e-07
-7.662549e-07
0.000000e+00
8.032843e-08
1.566923e-07
2.423757e-07
3.445694e-07
4.643280e-07
6.008645e-07
7.529151e-07
9.190241e-07
1.097779e-06
1.287968e-06
1.488847e-06
1.700820e-06
1.926932e-06
2.172768e-06
2.433902e-06
2.692989e-06
0.000000e+00
4.858532e-08
1.228051e-07
2.091645e-07
3.133526e-07
4.355224e-07
5.746466e-07
7.292967e-07
8.979795e-07
1.079262e-06
1.271913e-06
1.475130e-06
1.688931e-06
1.914654e-06
2.154508e-06
2.409018e-06
2.664694e-06
0.000000e+00
3.094088e-08
9.563958e-08
1.819084e-07
2.876017e-07
4.118614e-07
5.532370e-07
7.101885e-07
8.811974e-07
1.064825e-06
1.259796e-06
1.465110e-06
1.680081e-06
1.904076e-06
2.136726e-06
2.381944e-06
2.629381e-06
0.000000e+00
2.269834e-08
8.135024e-08
1.660168e-07
2.724046e-07
3.979589e-07
5.407997e-07
6.992894e-07
8.718887e-07
1.057133e-06
1.253642e-06
1.460105e-06
1.675137e-06
1.897007e-06
2.124329e-06
2.360092e-06
2.595208e-06
0.000000e+00
2.032994e-08
7.701810e-08
1.609051e-07
2.674804e-07
3.935529e-07
5.370257e-07
6.962173e-07
8.695689e-07
1.055561e-06
1.252672e-06
1.459297e-06
1.673591e-06
1.893262e-06
2.116055e-06
2.343361e-06
2.566358e-06
0.000000e+00
2.271668e-08
8.141899e-08
1.661868e-07
2.727425e-07
3.985552e-07
5.417676e-07
7.007481e-07
8.739214e-07
1.059699e-06
1.256422e-06
1.462274e-06
1.675138e-06
1.892408e-06
2.111267e-06
2.331513e-06
2.545671e-06
0.000000e+00
3.097047e-08
9.575937e-08
1.822063e-07
2.881942e-07
4.129085e-07
5.549385e-07
7.127554e-07
8.847777e-07
1.069350e-06
1.264697e-06
1.468854e-06
1.679560e-06
1.894094e-06
2.109450e-06
2.324414e-06
2.533069e-06
0.000000e+00
4.862289e-08
1.229571e-07
2.095314e-07
3.140757e-07
4.367938e-07
5.767041e-07
7.323857e-07
9.022599e-07
1.084616e-06
1.277589e-06
1.479108e-06
1.686832e-06
1.898087e-06
2.110103e-06
2.321222e-06
2.527053e-06
0.000000e+00
8.039069e-08
1.568701e-07
2.427715e-07
3.453224e-07
4.656216e-07
6.029157e-07
7.559291e-07
9.230881e-07
1.102654e-06
1.292716e-06
1.491149e-06
1.695591e-06
1.903474e-06
2.112360e-06
2.320703e-06
2.525299e-06


2.110620e-01
2.110619e-01
2.110622e-01
2.110627e-01
2.110632e-01
2.110636e-01
2.110640e-01
2.110643e-01
2.110646e-01
2.110649e-01
2.110651e-01
2.110653e-01
2.110654e-01
2.110653e-01
2.110650e-01
2.110649e-01
2.110628e-01
2.110627e-01
2.110629e-01
2.110633e-01
2.110636e-01
2.110640e-01
2.110643e-01
2.110645e-01
2.110648e-01
2.110650e-01
2.110652e-01
2.110653e-01
2.110654e-01
2.110653e-01
2.110650e-01
2.110648e-01
2.110641e-01
2.110640e-01
2.110640e-01
2.110642e-01
2.110644e-01
2.110646e-01
2.110648e-01
2.110649e-01
2.110651e-01
2.110652e-01
2.110653e-01
2.110654e-01
2.110654e-01
2.110653e-01
2.110651e-01
2.110649e-01
2.110650e-01
2.110649e-01
2.110648e-01
2.110649e-01
2.110650e-01
2.110650e-01
2.110651e-01
2.110652e-01
2.110653e-01
2.110653e-01
2.110654e-01
2.110654e-01
2.110654e-01
2.110653e-01
2.110652e-01
2.110652e-01
2.110650e-01
2.110649e-01
2.110648e-01
2.110649e-01
2.110650e-01
2.110650e-01
2.110651e-01
2.110652e-01
2.110652e-01
2.110653e-01
2.110653e-01
2.110653e-01
2.110654e-01
2.110654e-01
2.110654e-01
2.110654e-01
2.110641e-01
2.110640e-01
2.110640e-01
2.110642e-01
2.110644e-01
2.110646e-01
2.110648e-01
2.110649e-01
2.110650e-01
2.110651e-01
2.110652e-01
2.110653e-01
2.110654e-01
2.110655e-01
2.110655e-01
2.110656e-01
2.110628e-01
2.110627e-01
2.110629e-01
2.110633e-01
2.110636e-01
2.110640e-01
2.110643e-01
2.110645e-01
2.110648e-01
2.110650e-01
2.110652e-01
2.110653e-01
2.110654e-01
2.110656e-01
2.110656e-01
2.110657e-01
2.110620e-01
2.110619e-01
2.110622e-01
2.110627e-01
2.110632e-01
2.110636e-01
2.110640e-01
2.110643e-01
2.110646e-01
2.110649e-01
2.110651e-01
2.110653e-01
2.110655e-01
2.110656e-01
2.110657e-01
2.110658e-01


9.882608e-01
9.899255e-01
9.914655e-01
9.926509e-01
9.937513e-01
9.947659e-01
9.956903e-01
9.965136e-01
9.972272e-01
9.978241e-01
9.982986e-01
9.986463e-01
9.988624e-01
9.989395e-01
9.989951e-01
9.955643e-01
9.955588e-01
9.947960e-01
9.952868e-01
9.959274e-01
9.965246e-01
9.970674e-01
9.975588e-01
9.980038e-01
9.984068e-01
9.987718e-01
9.991030e-01
9.994029e-01
9.996646e-01
9.998359e-01
9.994026e-01
9.935298e-01
9.984569e-01
9.980187e-01
9.979005e-01
9.980668e-01
9.982857e-01
9.984977e-01
9.986946e-01
9.988805e-01
9.990607e-01
9.992364e-01
9.994004e-01
9.995274e-01
9.995540e-01
9.993252e-01
9.984954e-01
9.970029e-01
9.996859e-01
9.993664e-01
9.991690e-01
9.991189e-01
9.991389e-01
9.991725e-01
9.992060e-01
9.992387e-01
9.992708e-01
9.992977e-01
9.993052e-01
9.992652e-01
9.991383e-01
9.989106e-01
9.987175e-01
9.986686e-01
9.996871e-01
9.993681e-01
9.991705e-01
9.991186e-01
9.991339e-01
9.991581e-01
9.991749e-01
9.991806e-01
9.991729e-01
9.991481e-01
9.991020e-01
9.990356e-01
9.989724e-01
9.989850e-01
9.991637e-01
9.994731e-01
9.984591e-01
9.980221e-01
9.979037e-01
9.980669e-01
9.982772e-01
9.984715e-01
9.986358e-01
9.987680e-01
9.988669e-01
9.989335e-01
9.989757e-01
9.990169e-01
9.991034e-01
9.992848e-01
9.995573e-01
9.998390e-01
9.955584e-01
9.947957e-01
9.952861e-01
9.959255e-01
9.965199e-01
9.970567e-01
9.975366e-01
9.979616e-01
9.983319e-01
9.986484e-01
9.989163e-01
9.991503e-01
9.993757e-01
9.996119e-01
9.998329e-01
9.999720e-01
9.882528e-01
9.899130e-01
9.914501e-01
9.926337e-01
9.937358e-01
9.947603e-01
9.957094e-01
9.965809e-01
9.973750e-01
9.980901e-01
9.987178e-01
9.992385e-01
9.996258e-01
9.998648e-01
9.999735e-01
9.999994e-01
1 2 19 18
2 3 20 19
3 4 21 20
4 5 22 21
5 6 23 22
6 7 24 23
7 8 25 24
8 9 26 25
9 10 27 26
10 11 28 27
11 12 29 28
12 13 30 29
13 14 31 30
14 15 32 31
15 16 33 32
16 17 34 33
18 19 36 35
19 20 37 36
20 21 38 37
21 22 39 38
22 23 40 39
23 24 41 40
24 25 42 41
25 26 43 42
26 27 44 43
27 28 45 44
28 29 46 45
29 30 47 46
30 31 48 47
31 32 49 48
32 33 50 49
33 34 51 50
35 36 53 52
36 37 54 53
37 38 55 54
38 39 56 55
39 40 57 56
40 41 58 57
41 42 59 58
42 43 60 59
43 44 61 60
44 45 62 61
45 46 63 62
46 47 64 63
47 48 65 64
48 49 66 65
49 50 67 66
50 51 68 67
52 53 70 69
53 54 71 70
54 55 72 71
55 56 73 72
56 57 74 73
57 58 75 74
58 59 76 75
59 60 77 76
60 61 78 77
61 62 79 78
62 63 80 79
63 64 81 80
64 65 82 81
65 66 83 82
66 67 84 83
67 68 85 84
69 70 87 86
70 71 88 87
71 72 89 88
72 73 90 89
73 74 91 90
74 75 92 91
75 76 93 92
76 77 94 93
77 78 95 94
78 79 96 95
79 80 97 96
80 81 98 97
81 82 99 98
82 83 100 99
83 84 101 100
84 85 102 101
86 87 104 103
87 88 105 104
88 89 106 105
89 90 107 106
90 91 108 107
91 92 109 108
92 93 110 109
93 94 111 110
94 95 112 111
95 96 113 112
96 97 114 113
97 98 115 114
98 99 116 115
99 100 117 116
100 101 118 117
101 102 119 118
103 104 121 120
104 105 122 121
105 106 123 122
106 107 124 123
107 108 125 124
108 109 126 125
109 110 127 126
110 111 128 127
111 112 129 128
112 113 130 129
113 114 131 130
114 115 132 131
115 116 133 132
116 117 134 133
117 118 135 134
118 119 136 135
120 121 138 137
121 122 139 138
122 123 140 139
123 124 141 140
124 125 142 141
125 126 143 142
126 127 144 143
127 128 145 144
128 129 146 145
129 130 147 146
130 131 148 147
131 132 149 148
132 133 150 149
133 134 151 150
134 135 152 151
135 136 153 152
