TITLE = "Solution"
VARIABLES = x, y, u, v, psiu, psiv, t, stress
ZONE T="structure" N=153 E=128 F=FEBLOCK ET=QUADRILATERAL VARLOCATION=([7,8]=cellcentered)
0.000000e+00
1.250000e+01
2.500000e+01
3.750000e+01
5.000000e+01
6.250000e+01
7.500000e+01
8.750000e+01
1.000000e+02
1.125000e+02
1.250000e+02
1.375000e+02
1.500000e+02
1.625000e+02
1.750000e+02
1.875000e+02
2.000000e+02
0.000000e+00
1.250000e+01
2.500000e+01
3.750000e+01
5.000000e+01
6.250000e+01
7.500000e+01
8.750000e+01
1.000000e+02
1.125000e+02
1.250000e+02
1.375000e+02
1.500000e+02
1.625000e+02
1.750000e+02
1.875000e+02
2.000000e+02
0.000000e+00
1.250000e+01
2.500000e+01
3.750000e+01
5.000000e+01
6.250000e+01
7.500000e+01
8.750000e+01
1.000000e+02
1.125000e+02
1.250000e+02
1.375000e+02
1.500000e+02
1.625000e+02
1.750000e+02
1.875000e+02
2.000000e+02
0.000000e+00
1.250000e+01
2.500000e+01
3.750000e+01
5.000000e+01
6.250000e+01
7.500000e+01
8.750000e+01
1.000000e+02
1.125000e+02
1.250000e+02
1.375000e+02
1.500000e+02
1.625000e+02
1.750000e+02
1.875000e+02
2.000000e+02
0.000000e+00
1.250000e+01
2.500000e+01
3.750000e+01
5.000000e+01
6.250000e+01
7.500000e+01
8.750000e+01
1.000000e+02
1.125000e+02
1.250000e+02
1.375000e+02
1.500000e+02
1.625000e+02
1.750000e+02
1.875000e+02
2.000000e+02
0.000000e+00
1.250000e+01
2.500000e+01
3.750000e+01
5.000000e+01
6.250000e+01
7.500000e+01
8.750000e+01
1.000000e+02
1.125000e+02
1.250000e+02
1.375000e+02
1.500000e+02
1.625000e+02
1.750000e+02
1.875000e+02
2.000000e+02
0.000000e+00
1.250000e+01
2.500000e+01
3.750000e+01
5.000000e+01
6.250000e+01
7.500000e+01
8.750000e+01
1.000000e+02
1.125000e+02
1.250000e+02
1.375000e+02
1.500000e+02
1.625000e+02
1.750000e+02
1.875000e+02
2.000000e+02
0.000000e+00
1.250000e+01
2.500000e+01
3.750000e+01
5.000000e+01
6.250000e+01
7.500000e+01
8.750000e+01
1.000000e+02
1.125000e+02
1.250000e+02
1.375000e+02
1.500000e+02
1.625000e+02
1.750000e+02
1.875000e+02
2.000000e+02
0.000000e+00
1.250000e+01
2.500000e+01
3.750000e+01
5.000000e+01
6.250000e+01
7.500000e+01
8.750000e+01
1.000000e+02
1.125000e+02
1.250000e+02
1.375000e+02
1.500000e+02
1.625000e+02
1.750000e+02
1.875000e+02
2.000000e+02
0.000000e+00
0.000000e+00
0.000000e+00
0.000000e+00
0.000000e+00
0.000000e+00
0.000000e+00
0.000000e+00
0.000000e+00
0.000000e+00
0.000000e+00
0.000000e+00
0.000000e+00
0.000000e+00
0.000000e+00
0.000000e+00
0.000000e+00
1.250000e+01
1.250000e+01
1.250000e+01
1.250000e+01
1.250000e+01
1.250000e+01
1.250000e+01
1.250000e+01
1.250000e+01
1.250000e+01
1.250000e+01
1.250000e+01
1.250000e+01
1.250000e+01
1.250000e+01
1.250000e+01
1.250000e+01
2.500000e+01
2.500000e+01
2.500000e+01
2.500000e+01
2.500000e+01
2.500000e+01
2.500000e+01
2.500000e+01
2.500000e+01
2.500000e+01
2.500000e+01
2.500000e+01
2.500000e+01
2.500000e+01
2.500000e+01
2.500000e+01
2.500000e+01
3.750000e+01
3.750000e+01
3.750000e+01
3.750000e+01
3.750000e+01
3.750000e+01
3.750000e+01
3.750000e+01
3.750000e+01
3.750000e+01
3.750000e+01
3.750000e+01
3.750000e+01
3.750000e+01
3.750000e+01
3.750000e+01
3.750000e+01
5.000000e+01
5.000000e+01
5.000000e+01
5.000000e+01
5.000000e+01
5.000000e+01
5.000000e+01
5.000000e+01
5.000000e+01
5.000000e+01
5.000000e+01
5.000000e+01
5.000000e+01
5.000000e+01
5.000000e+01
5.000000e+01
5.000000e+01
6.250000e+01
6.250000e+01
6.250000e+01
6.250000e+01
6.250000e+01
6.250000e+01
6.250000e+01
6.250000e+01
6.250000e+01
6.250000e+01
6.250000e+01
6.250000e+01
6.250000e+01
6.250000e+01
6.250000e+01
6.250000e+01
6.250000e+01
7.500000e+01
7.500000e+01
7.500000e+01
7.500000e+01
7.500000e+01
7.500000e+01
7.500000e+01
7.500000e+01
7.500000e+01
7.500000e+01
7.500000e+01
7.500000e+01
7.500000e+01
7.500000e+01
7.500000e+01
7.500000e+01
7.500000e+01
8.750000e+01
8.750000e+01
8.750000e+01
8.750000e+01
8.750000e+01
8.750000e+01
8.750000e+01
8.750000e+01
8.750000e+01
8.750000e+01
8.750000e+01
8.750000e+01
8.750000e+01
8.750000e+01
8.750000e+01
8.750000e+01
8.750000e+01
1.000000e+02
1.000000e+02
1.000000e+02
1.000000e+02
1.000000e+02
1.000000e+02
1.000000e+02
1.000000e+02
1.000000e+02
1.000000e+02
1.000000e+02
1.000000e+02
1.000000e+02
1.000000e+02
1.000000e+02
1.000000e+02
1.000000e+02
0.000000e+00
-7.090554e-02
-1.305596e-01
-1.854490e-01
-2.365664e-01
-2.838040e-01
-3.270604e-01
-3.663020e-01
-4.015860e-01
-4.330748e-01
-4.610806e-01
-4.861508e-01
-5.092270e-01
-5.319359e-01
-5.570831e-01
-5.879670e-01
-6.111420e-01
0.000000e+00
-4.234352e-02
-8.796042e-02
-1.300847e-01
-1.688942e-01
-2.045363e-01
-2.370851e-01
-2.665841e-01
-2.930864e-01
-3.166738e-01
-3.374660e-01
-3.556127e-01
-3.712299e-01
-3.841567e-01
-3.932746e-01
-3.952731e-01
-4.024383e-01
0.000000e+00
-2.648042e-02
-5.445037e-02
-8.235454e-02
-1.084022e-01
-1.323177e-01
-1.540814e-01
-1.737181e-01
-1.912327e-01
-2.065958e-01
-2.197248e-01
-2.304363e-01
-2.383485e-01
-2.427652e-01
-2.428878e-01
-2.411234e-01
-2.484313e-01
0.000000e+00
-1.278109e-02
-2.631158e-02
-3.992753e-02
-5.294684e-02
-6.493844e-02
-7.580766e-02
-8.552282e-02
-9.402832e-02
-1.012135e-01
-1.068947e-01
-1.108038e-01
-1.126207e-01
-1.121962e-01
-1.104522e-01
-1.109292e-01
-1.163706e-01
0.000000e+00
-1.177394e-05
-2.676585e-05
-4.170855e-05
-4.963898e-05
-3.502989e-05
3.293841e-05
2.095681e-04
5.855896e-04
1.296151e-03
2.517574e-03
4.426984e-03
7.072245e-03
1.006152e-02
1.212643e-02
1.156009e-02
7.957358e-03
0.000000e+00
1.276297e-02
2.626952e-02
3.986025e-02
5.286316e-02
6.487038e-02
7.583406e-02
8.580780e-02
9.487811e-02
1.031502e-01
1.107321e-01
1.176799e-01
1.238731e-01
1.288393e-01
1.317607e-01
1.319924e-01
1.301638e-01
0.000000e+00
2.647745e-02
5.444131e-02
8.233651e-02
1.083741e-01
1.322826e-01
1.540524e-01
1.737276e-01
1.913491e-01
2.069481e-01
2.205383e-01
2.320864e-01
2.414597e-01
2.483897e-01
2.525492e-01
2.538998e-01
2.534734e-01
0.000000e+00
4.236089e-02
8.799819e-02
1.301450e-01
1.689749e-01
2.046228e-01
2.371336e-01
2.664954e-01
2.926634e-01
3.155621e-01
3.350828e-01
3.510905e-01
3.634573e-01
3.721421e-01
3.773228e-01
3.795321e-01
3.799379e-01
0.000000e+00
7.093459e-02
1.306362e-01
1.855926e-01
2.367957e-01
2.841266e-01
3.274451e-01
3.666256e-01
4.015368e-01
4.319973e-01
4.577432e-01
4.784309e-01
4.937209e-01
5.034929e-01
5.082187e-01
5.093852e-01
5.093627e-01
0.000000e+00
-4.292108e-02
-8.425908e-02
-1.378235e-01
-2.035628e-01
-2.813539e-01
-3.703449e-01
-4.695398e-01
-5.778840e-01
-6.943366e-01
-8.179362e-01
-9.479175e-01
-1.083967e+00
-1.226812e+00
-1.380157e+00
-1.555611e+00
-1.807709e+00
0.000000e+00
-2.642301e-02
-6.954533e-02
-1.237740e-01
-1.905876e-01
-2.694403e-01
-3.595094e-01
-4.597746e-01
-5.691689e-01
-6.866326e-01
-8.111779e-01
-9.420043e-01
-1.078750e+00
-1.222122e+00
-1.375407e+00
-1.549798e+00
-1.763444e+00
0.000000e+00
-1.993851e-02
-5.934502e-02
-1.137738e-01
-1.812192e-01
-2.608835e-01
-3.517805e-01
-4.528799e-01
-5.631221e-01
-6.814626e-01
-8.069323e-01
-9.387586e-01
-1.076614e+00
-1.221088e+00
-1.374505e+00
-1.539746e+00
-1.699664e+00
0.000000e+00
-1.718159e-02
-5.427348e-02
-1.079040e-01
-1.755932e-01
-2.557478e-01
-3.472115e-01
-4.489149e-01
-5.598181e-01
-6.789050e-01
-8.052276e-01
-9.379980e-01
-1.076733e+00
-1.221368e+00
-1.371715e+00
-1.523548e+00
-1.663422e+00
0.000000e+00
-1.638738e-02
-5.273860e-02
-1.060315e-01
-1.737391e-01
-2.540932e-01
-3.458199e-01
-4.478507e-01
-5.591655e-01
-6.787648e-01
-8.056795e-01
-9.389971e-01
-1.077856e+00
-1.221232e+00
-1.366978e+00
-1.510112e+00
-1.641973e+00
0.000000e+00
-1.717139e-02
-5.426623e-02
-1.079169e-01
-1.756566e-01
-2.559150e-01
-3.475691e-01
-4.495920e-01
-5.609855e-01
-6.807451e-01
-8.078388e-01
-9.411627e-01
-1.079427e+00
-1.220872e+00
-1.362781e+00
-1.501006e+00
-1.630053e+00
0.000000e+00
-1.992187e-02
-5.933299e-02
-1.137954e-01
-1.813261e-01
-2.611663e-01
-3.523866e-01
-4.540297e-01
-5.651071e-01
-6.845970e-01
-8.113982e-01
-9.442367e-01
-1.081512e+00
-1.221104e+00
-1.360262e+00
-1.495834e+00
-1.624795e+00
0.000000e+00
-2.640741e-02
-6.953486e-02
-1.238026e-01
-1.907160e-01
-2.697728e-01
-3.602150e-01
-4.611035e-01
-5.714491e-01
-6.902111e-01
-8.162431e-01
-9.481804e-01
-1.084286e+00
-1.222324e+00
-1.359631e+00
-1.493696e+00
-1.623561e+00
0.000000e+00
-4.291464e-02
-8.425999e-02
-1.378678e-01
-2.037116e-01
-2.817092e-01
-3.710669e-01
-4.708572e-01
-5.800803e-01
-6.976774e-01
-8.224745e-01
-9.530767e-01
-1.087735e+00
-1.224263e+00
-1.360167e+00
-1.493305e+00
-1.623580e+00


0.000000e+00
9.914989e-08
1.986648e-07
2.910867e-07
3.777633e-07
4.582050e-07
5.320743e-07
5.993504e-07
6.601683e-07
7.147831e-07
7.635565e-07
8.068913e-07
8.450230e-07
8.776518e-07
9.043580e-07
9.271792e-07
9.474852e-07
0.000000e+00
5.575901e-08
1.356838e-07
2.075532e-07
2.734523e-07
3.342001e-07
3.897412e-07
4.400761e-07
4.852447e-07
5.252795e-07
5.601680e-07
5.898074e-07
6.140472e-07
6.333861e-07
6.510502e-07
6.720156e-07
6.935940e-07
0.000000e+00
3.513145e-08
8.574463e-08
1.332347e-07
1.775085e-07
2.182307e-07
2.552409e-07
2.884946e-07
3.179410e-07
3.434808e-07
3.649677e-07
3.822976e-07
3.957419e-07
4.066806e-07
4.182183e-07
4.338072e-07
4.518190e-07
0.000000e+00
1.716139e-08
4.110468e-08
6.436266e-08
8.650139e-08
1.068408e-07
1.251610e-07
1.413782e-07
1.553969e-07
1.670953e-07
1.763717e-07
1.832810e-07
1.882900e-07
1.925792e-07
1.981053e-07
2.071914e-07
2.196961e-07
0.000000e+00
1.796900e-11
2.225331e-11
-9.475607e-12
-1.077308e-10
-3.211944e-10
-7.212453e-10
-1.402876e-09
-2.476307e-09
-4.039585e-09
-6.118491e-09
-8.566125e-09
-1.094531e-08
-1.245462e-08
-1.185973e-08
-7.583039e-09
6.315699e-10
0.000000e+00
-1.712780e-08
-4.105960e-08
-6.436439e-08
-8.665831e-08
-1.073429e-07
-1.263198e-07
-1.436700e-07
-1.594937e-07
-1.738531e-07
-1.867198e-07
-1.979181e-07
-2.070898e-07
-2.136999e-07
-2.170873e-07
-2.164414e-07
-2.119418e-07
0.000000e+00
-3.511030e-08
-8.571338e-08
-1.332161e-07
-1.775454e-07
-2.184047e-07
-2.556936e-07
-2.894538e-07
-3.197437e-07
-3.465818e-07
-3.699026e-07
-3.895213e-07
-4.051267e-07
-4.163534e-07
-4.230155e-07
-4.252340e-07
-4.239054e-07
0.000000e+00
-5.578023e-08
-1.357260e-07
-2.075915e-07
-2.734454e-07
-3.340775e-07
-3.893873e-07
-4.393119e-07
-4.838117e-07
-5.228298e-07
-5.562772e-07
-5.840215e-07
-6.058902e-07
-6.217379e-07
-6.317042e-07
-6.366041e-07
-6.377879e-07
0.000000e+00
-9.926709e-08
-1.988725e-07
-2.913435e-07
-3.779828e-07
-4.582069e-07
-5.315172e-07
-5.976439e-07
-6.563705e-07
-7.074989e-07
-7.508733e-07
-7.864242e-07
-8.142122e-07
-8.344656e-07
-8.476578e-07
-8.544774e-07
-8.566679e-07
0.000000e+00
8.975866e-08
1.751136e-07
2.708951e-07
3.851317e-07
5.190022e-07
6.716296e-07
8.416045e-07
1.027302e-06
1.227145e-06
1.439781e-06
1.664379e-06
1.901390e-06
2.154225e-06
2.429124e-06
2.721131e-06
3.010842e-06
0.000000e+00
5.430051e-08
1.372581e-07
2.337869e-07
3.502432e-07
4.868006e-07
6.423141e-07
8.151899e-07
1.003762e-06
1.206429e-06
1.421817e-06
1.649028e-06
1.888084e-06
2.140483e-06
2.408692e-06
2.693293e-06
2.979190e-06
0.000000e+00
3.459372e-08
1.069102e-07
2.033297e-07
3.214605e-07
4.603472e-07
6.183723e-07
7.938176e-07
9.849878e-07
1.190276e-06
1.408258e-06
1.637815e-06
1.878179e-06
2.128644e-06
2.388795e-06
2.663003e-06
2.939686e-06
0.000000e+00
2.538551e-08
9.094333e-08
1.855684e-07
3.044711e-07
4.448015e-07
6.044622e-07
7.816257e-07
9.745732e-07
1.181669e-06
1.401371e-06
1.632212e-06
1.872645e-06
2.120733e-06
2.374922e-06
2.638555e-06
2.901456e-06
0.000000e+00
2.273899e-08
8.610169e-08
1.798546e-07
2.989658e-07
4.398745e-07
6.002412e-07
7.781892e-07
9.719781e-07
1.179910e-06
1.400285e-06
1.631308e-06
1.870915e-06
2.116541e-06
2.365662e-06
2.619833e-06
2.869177e-06
0.000000e+00
2.540602e-08
9.102025e-08
1.857586e-07
3.048493e-07
4.454690e-07
6.055455e-07
7.832582e-07
9.768483e-07
1.184541e-06
1.404482e-06
1.634639e-06
1.872646e-06
2.115585e-06
2.360303e-06
2.606573e-06
2.846028e-06
0.000000e+00
3.462679e-08
1.070442e-07
2.036630e-07
3.221237e-07
4.615192e-07
6.202767e-07
7.966905e-07
9.889947e-07
1.195340e-06
1.413741e-06
1.642004e-06
1.877596e-06
2.117472e-06
2.358269e-06
2.598627e-06
2.831924e-06
0.000000e+00
5.434250e-08
1.374281e-07
2.341975e-07
3.510524e-07
4.882236e-07
6.446167e-07
8.186471e-07
1.008552e-06
1.212421e-06
1.428169e-06
1.653479e-06
1.885734e-06
2.121940e-06
2.358999e-06
2.595055e-06
2.825191e-06
0.000000e+00
8.982824e-08
1.753124e-07
2.713380e-07
3.859743e-07
5.204498e-07
6.739252e-07
8.449776e-07
1.031850e-06
1.232602e-06
1.445095e-06
1.666954e-06
1.895536e-06
2.127970e-06
2.361525e-06
2.594473e-06
2.823228e-06


2.071797e-01
2.071796e-01
2.071797e-01
2.071800e-01
2.071802e-01
2.071804e-01
2.071805e-01
2.071807e-01
2.071808e-01
2.071809e-01
2.071810e-01
2.071811e-01
2.071811e-01
2.071811e-01
2.071810e-01
2.071809e-01
2.071800e-01
2.071800e-01
2.071800e-01
2.071802e-01
2.071804e-01
2.071805e-01
2.071807e-01
2.071808e-01
2.071809e-01
2.071810e-01
2.071811e-01
2.071811e-01
2.071811e-01
2.071811e-01
2.071810e-01
2.071809e-01
2.071806e-01
2.071805e-01
2.071806e-01
2.071806e-01
2.071807e-01
2.071808e-01
2.071809e-01
2.071809e-01
2.071810e-01
2.071811e-01
2.071811e-01
2.071811e-01
2.071811e-01
2.071811e-01
2.071810e-01
2.071809e-01
2.071810e-01
2.071809e-01
2.071809e-01
2.071809e-01
2.071810e-01
2.071810e-01
2.071810e-01
2.071811e-01
2.071811e-01
2.071811e-01
2.071811e-01
2.071811e-01
2.071811e-01
2.071811e-01
2.071811e-01
2.071810e-01
2.071810e-01
2.071809e-01
2.071809e-01
2.071809e-01
2.071810e-01
2.071810e-01
2.071810e-01
2.071811e-01
2.071811e-01
2.071811e-01
2.071811e-01
2.071811e-01
2.071811e-01
2.071811e-01
2.071811e-01
2.071811e-01
2.071806e-01
2.071805e-01
2.071805e-01
2.071806e-01
2.071807e-01
2.071808e-01
2.071809e-01
2.071809e-01
2.071810e-01
2.071810e-01
2.071811e-01
2.071811e-01
2.071811e-01
2.071812e-01
2.071812e-01
2.071812e-01
2.071800e-01
2.071800e-01
2.071800e-01
2.071802e-01
2.071804e-01
2.071805e-01
2.071806e-01
2.071808e-01
2.071809e-01
2.071810e-01
2.071810e-01
2.071811e-01
2.071812e-01
2.071812e-01
2.071813e-01
2.071813e-01
2.071797e-01
2.071796e-01
2.071797e-01
2.071800e-01
2.071802e-01
2.071804e-01
2.071805e-01
2.071807e-01
2.071808e-01
2.071809e-01
2.071810e-01
2.071811e-01
2.071812e-01
2.071812e-01
2.071813e-01
2.071813e-01


9.886888e-01
9.902928e-01
9.917766e-01
9.929188e-01
9.939791e-01
9.949568e-01
9.958475e-01
9.966408e-01
9.973283e-01
9.979034e-01
9.983607e-01
9.986957e-01
9.989039e-01
9.989782e-01
9.990318e-01
9.957261e-01
9.957207e-01
9.949857e-01
9.954586e-01
9.960758e-01
9.966513e-01
9.971743e-01
9.976478e-01
9.980766e-01
9.984649e-01
9.988166e-01
9.991357e-01
9.994247e-01
9.996768e-01
9.998419e-01
9.994244e-01
9.937657e-01
9.985131e-01
9.980910e-01
9.979770e-01
9.981373e-01
9.983482e-01
9.985525e-01
9.987422e-01
9.989214e-01
9.990950e-01
9.992642e-01
9.994223e-01
9.995447e-01
9.995702e-01
9.993498e-01
9.985503e-01
9.971122e-01
9.996974e-01
9.993895e-01
9.991993e-01
9.991510e-01
9.991703e-01
9.992026e-01
9.992349e-01
9.992665e-01
9.992974e-01
9.993233e-01
9.993306e-01
9.992920e-01
9.991698e-01
9.989503e-01
9.987643e-01
9.987172e-01
9.996985e-01
9.993911e-01
9.992007e-01
9.991507e-01
9.991655e-01
9.991888e-01
9.992050e-01
9.992104e-01
9.992030e-01
9.991792e-01
9.991348e-01
9.990708e-01
9.990099e-01
9.990220e-01
9.991942e-01
9.994923e-01
9.985153e-01
9.980942e-01
9.979801e-01
9.981373e-01
9.983400e-01
9.985272e-01
9.986856e-01
9.988129e-01
9.989082e-01
9.989724e-01
9.990130e-01
9.990527e-01
9.991361e-01
9.993109e-01
9.995734e-01
9.998449e-01
9.957203e-01
9.949854e-01
9.954580e-01
9.960741e-01
9.966468e-01
9.971640e-01
9.976264e-01
9.980359e-01
9.983927e-01
9.986977e-01
9.989558e-01
9.991813e-01
9.993984e-01
9.996261e-01
9.998390e-01
9.999730e-01
9.886810e-01
9.902807e-01
9.917618e-01
9.929022e-01
9.939642e-01
9.949513e-01
9.958659e-01
9.967056e-01
9.974707e-01
9.981598e-01
9.987645e-01
9.992662e-01
9.996395e-01
9.998697e-01
9.999745e-01
9.999995e-01
1 2 19 18
2 3 20 19
3 4 21 20
4 5 22 21
5 6 23 22
6 7 24 23
7 8 25 24
8 9 26 25
9 10 27 26
10 11 28 27
11 12 29 28
12 13 30 29
13 14 31 30
14 15 32 31
15 16 33 32
16 17 34 33
18 19 36 35
19 20 37 36
20 21 38 37
21 22 39 38
22 23 40 39
23 24 41 40
24 25 42 41
25 26 43 42
26 27 44 43
27 28 45 44
28 29 46 45
29 30 47 46
30 31 48 47
31 32 49 48
32 33 50 49
33 34 51 50
35 36 53 52
36 37 54 53
37 38 55 54
38 39 56 55
39 40 57 56
40 41 58 57
41 42 59 58
42 43 60 59
43 44 61 60
44 45 62 61
45 46 63 62
46 47 64 63
47 48 65 64
48 49 66 65
49 50 67 66
50 51 68 67
52 53 70 69
53 54 71 70
54 55 72 71
55 56 73 72
56 57 74 73
57 58 75 74
58 59 76 75
59 60 77 76
60 61 78 77
61 62 79 78
62 63 80 79
63 64 81 80
64 65 82 81
65 66 83 82
66 67 84 83
67 68 85 84
69 70 87 86
70 71 88 87
71 72 89 88
72 73 90 89
73 74 91 90
74 75 92 91
75 76 93 92
76 77 94 93
77 78 95 94
78 79 96 95
79 80 97 96
80 81 98 97
81 82 99 98
82 83 100 99
83 84 101 100
84 85 102 101
86 87 104 103
87 88 105 104
88 89 106 105
89 90 107 106
90 91 108 107
91 92 109 108
92 93 110 109
93 94 111 110
94 95 112 111
95 96 113 112
96 97 114 113
97 98 115 114
98 99 116 115
99 100 117 116
100 101 118 117
101 102 119 118
103 104 121 120
104 105 122 121
105 106 123 122
106 107 124 123
107 108 125 124
108 109 126 125
109 110 127 126
110 111 128 127
111 112 129 128
112 113 130 129
113 114 131 130
114 115 132 131
115 116 133 132
116 117 134 133
117 118 135 134
118 119 136 135
120 121 138 137
121 122 139 138
122 123 140 139
123 124 141 140
124 125 142 141
125 126 143 142
126 127 144 143
127 128 145 144
128 129 146 145
129 130 147 146
130 131 148 147
131 132 149 148
132 133 150 149
133 134 151 150
134 135 152 151
135 136 153 152
