TITLE = "Solution"
VARIABLES = x, y, u, v, psiu, psiv, t, stress
ZONE T="structure" N=153 E=128 F=FEBLOCK ET=QUADRILATERAL VARLOCATION=([7,8]=cellcentered)
0.000000e+00
1.250000e+01
2.500000e+01
3.750000e+01
5.000000e+01
6.250000e+01
7.500000e+01
8.750000e+01
1.000000e+02
1.125000e+02
1.250000e+02
1.375000e+02
1.500000e+02
1.625000e+02
1.750000e+02
1.875000e+02
2.000000e+02
0.000000e+00
1.250000e+01
2.500000e+01
3.750000e+01
5.000000e+01
6.250000e+01
7.500000e+01
8.750000e+01
1.000000e+02
1.125000e+02
1.250000e+02
1.375000e+02
1.500000e+02
1.625000e+02
1.750000e+02
1.875000e+02
2.000000e+02
0.000000e+00
1.250000e+01
2.500000e+01
3.750000e+01
5.000000e+01
6.250000e+01
7.500000e+01
8.750000e+01
1.000000e+02
1.125000e+02
1.250000e+02
1.375000e+02
1.500000e+02
1.625000e+02
1.750000e+02
1.875000e+02
2.000000e+02
0.000000e+00
1.250000e+01
2.500000e+01
3.750000e+01
5.000000e+01
6.250000e+01
7.500000e+01
8.750000e+01
1.000000e+02
1.125000e+02
1.250000e+02
1.375000e+02
1.500000e+02
1.625000e+02
1.750000e+02
1.875000e+02
2.000000e+02
0.000000e+00
1.250000e+01
2.500000e+01
3.750000e+01
5.000000e+01
6.250000e+01
7.500000e+01
8.750000e+01
1.000000e+02
1.125000e+02
1.250000e+02
1.375000e+02
1.500000e+02
1.625000e+02
1.750000e+02
1.875000e+02
2.000000e+02
0.000000e+00
1.250000e+01
2.500000e+01
3.750000e+01
5.000000e+01
6.250000e+01
7.500000e+01
8.750000e+01
1.000000e+02
1.125000e+02
1.250000e+02
1.375000e+02
1.500000e+02
1.625000e+02
1.750000e+02
1.875000e+02
2.000000e+02
0.000000e+00
1.250000e+01
2.500000e+01
3.750000e+01
5.000000e+01
6.250000e+01
7.500000e+01
8.750000e+01
1.000000e+02
1.125000e+02
1.250000e+02
1.375000e+02
1.500000e+02
1.625000e+02
1.750000e+02
1.875000e+02
2.000000e+02
0.000000e+00
1.250000e+01
2.500000e+01
3.750000e+01
5.000000e+01
6.250000e+01
7.500000e+01
8.750000e+01
1.000000e+02
1.125000e+02
1.250000e+02
1.375000e+02
1.500000e+02
1.625000e+02
1.750000e+02
1.875000e+02
2.000000e+02
0.000000e+00
1.250000e+01
2.500000e+01
3.750000e+01
5.000000e+01
6.250000e+01
7.500000e+01
8.750000e+01
1.000000e+02
1.125000e+02
1.250000e+02
1.375000e+02
1.500000e+02
1.625000e+02
1.750000e+02
1.875000e+02
2.000000e+02
0.000000e+00
0.000000e+00
0.000000e+00
0.000000e+00
0.000000e+00
0.000000e+00
0.000000e+00
0.000000e+00
0.000000e+00
0.000000e+00
0.000000e+00
0.000000e+00
0.000000e+00
0.000000e+00
0.000000e+00
0.000000e+00
0.000000e+00
1.250000e+01
1.250000e+01
1.250000e+01
1.250000e+01
1.250000e+01
1.250000e+01
1.250000e+01
1.250000e+01
1.250000e+01
1.250000e+01
1.250000e+01
1.250000e+01
1.250000e+01
1.250000e+01
1.250000e+01
1.250000e+01
1.250000e+01
2.500000e+01
2.500000e+01
2.500000e+01
2.500000e+01
2.500000e+01
2.500000e+01
2.500000e+01
2.500000e+01
2.500000e+01
2.500000e+01
2.500000e+01
2.500000e+01
2.500000e+01
2.500000e+01
2.500000e+01
2.500000e+01
2.500000e+01
3.750000e+01
3.750000e+01
3.750000e+01
3.750000e+01
3.750000e+01
3.750000e+01
3.750000e+01
3.750000e+01
3.750000e+01
3.750000e+01
3.750000e+01
3.750000e+01
3.750000e+01
3.750000e+01
3.750000e+01
3.750000e+01
3.750000e+01
5.000000e+01
5.000000e+01
5.000000e+01
5.000000e+01
5.000000e+01
5.000000e+01
5.000000e+01
5.000000e+01
5.000000e+01
5.000000e+01
5.000000e+01
5.000000e+01
5.000000e+01
5.000000e+01
5.000000e+01
5.000000e+01
5.000000e+01
6.250000e+01
6.250000e+01
6.250000e+01
6.250000e+01
6.250000e+01
6.250000e+01
6.250000e+01
6.250000e+01
6.250000e+01
6.250000e+01
6.250000e+01
6.250000e+01
6.250000e+01
6.250000e+01
6.250000e+01
6.250000e+01
6.250000e+01
7.500000e+01
7.500000e+01
7.500000e+01
7.500000e+01
7.500000e+01
7.500000e+01
7.500000e+01
7.500000e+01
7.500000e+01
7.500000e+01
7.500000e+01
7.500000e+01
7.500000e+01
7.500000e+01
7.500000e+01
7.500000e+01
7.500000e+01
8.750000e+01
8.750000e+01
8.750000e+01
8.750000e+01
8.750000e+01
8.750000e+01
8.750000e+01
8.750000e+01
8.750000e+01
8.750000e+01
8.750000e+01
8.750000e+01
8.750000e+01
8.750000e+01
8.750000e+01
8.750000e+01
8.750000e+01
1.000000e+02
1.000000e+02
1.000000e+02
1.000000e+02
1.000000e+02
1.000000e+02
1.000000e+02
1.000000e+02
1.000000e+02
1.000000e+02
1.000000e+02
1.000000e+02
1.000000e+02
1.000000e+02
1.000000e+02
1.000000e+02
1.000000e+02
0.000000e+00
-9.135453e-01
-1.600247e+00
-2.299310e+00
-2.986656e+00
-3.645057e+00
-4.318647e+00
-4.987525e+00
-5.648501e+00
-6.311912e+00
-6.977776e+00
-7.661771e+00
-8.375726e+00
-9.106288e+00
-9.840201e+00
-1.052664e+01
-1.097258e+01
0.000000e+00
-4.531011e-01
-9.378710e-01
-1.440066e+00
-1.956951e+00
-2.449419e+00
-2.953112e+00
-3.456140e+00
-3.951678e+00
-4.446978e+00
-4.939872e+00
-5.434964e+00
-5.930297e+00
-6.389838e+00
-6.718679e+00
-6.801062e+00
-6.965554e+00
0.000000e+00
-2.081786e-01
-4.588211e-01
-7.695824e-01
-1.108472e+00
-1.439852e+00
-1.782117e+00
-2.123796e+00
-2.460459e+00
-2.793177e+00
-3.114681e+00
-3.415721e+00
-3.676453e+00
-3.856827e+00
-3.905770e+00
-3.882198e+00
-4.035154e+00
0.000000e+00
-9.080585e-02
-1.955726e-01
-3.394240e-01
-4.942325e-01
-6.620318e-01
-8.332465e-01
-1.002386e+00
-1.167939e+00
-1.324523e+00
-1.463372e+00
-1.570396e+00
-1.626225e+00
-1.614048e+00
-1.551784e+00
-1.550212e+00
-1.680341e+00
0.000000e+00
-1.411192e-03
-2.818171e-03
-3.942961e-03
-4.348134e-03
-3.322817e-03
2.040973e-04
8.078282e-03
2.288367e-02
4.806814e-02
8.938519e-02
1.548231e-01
2.498163e-01
3.661455e-01
4.608233e-01
4.679782e-01
3.649884e-01
0.000000e+00
8.839320e-02
1.908290e-01
3.325322e-01
4.863247e-01
6.552844e-01
8.318047e-01
1.013533e+00
1.202997e+00
1.401180e+00
1.608734e+00
1.822433e+00
2.031876e+00
2.214611e+00
2.333531e+00
2.355667e+00
2.296596e+00
0.000000e+00
2.070462e-01
4.564422e-01
7.659280e-01
1.103683e+00
1.434477e+00
1.778192e+00
2.124757e+00
2.470005e+00
2.819525e+00
3.172357e+00
3.516762e+00
3.826706e+00
4.071784e+00
4.225989e+00
4.278709e+00
4.264622e+00
0.000000e+00
4.532468e-01
9.377477e-01
1.439662e+00
1.956074e+00
2.446742e+00
2.948295e+00
3.448719e+00
3.935588e+00
4.418247e+00
4.899915e+00
5.363547e+00
5.766558e+00
6.068494e+00
6.254426e+00
6.334813e+00
6.349733e+00
0.000000e+00
9.146878e-01
1.602295e+00
2.302698e+00
2.991552e+00
3.649687e+00
4.321874e+00
4.987360e+00
5.634185e+00
6.273535e+00
6.907267e+00
7.505305e+00
8.001074e+00
8.337169e+00
8.503863e+00
8.544840e+00
8.543643e+00
0.000000e+00
-5.673282e-01
-1.212314e+00
-2.070138e+00
-3.096649e+00
-4.290413e+00
-5.663645e+00
-7.208127e+00
-8.925161e+00
-1.081792e+01
-1.288704e+01
-1.514046e+01
-1.758633e+01
-2.022888e+01
-2.310737e+01
-2.642673e+01
-3.132274e+01
0.000000e+00
-3.686122e-01
-1.044584e+00
-1.889464e+00
-2.922197e+00
-4.116412e+00
-5.487710e+00
-7.034422e+00
-8.752678e+00
-1.064617e+01
-1.271523e+01
-1.496625e+01
-1.741292e+01
-2.007290e+01
-2.299032e+01
-2.632761e+01
-3.035995e+01
0.000000e+00
-3.230792e-01
-9.394814e-01
-1.776079e+00
-2.800476e+00
-3.993213e+00
-5.364374e+00
-6.912013e+00
-8.633215e+00
-1.053133e+01
-1.260759e+01
-1.486972e+01
-1.733411e+01
-2.002749e+01
-2.298224e+01
-2.615301e+01
-2.912872e+01
0.000000e+00
-3.449733e-01
-9.149021e-01
-1.727558e+00
-2.733718e+00
-3.923583e+00
-5.295035e+00
-6.844253e+00
-8.570901e+00
-1.047788e+01
-1.256895e+01
-1.485171e+01
-1.733646e+01
-2.003531e+01
-2.292928e+01
-2.582453e+01
-2.835001e+01
0.000000e+00
-3.542578e-01
-9.182615e-01
-1.715162e+00
-2.716715e+00
-3.904960e+00
-5.278755e+00
-6.832353e+00
-8.565434e+00
-1.048169e+01
-1.258718e+01
-1.488656e+01
-1.737631e+01
-2.003869e+01
-2.280059e+01
-2.547318e+01
-2.775633e+01
0.000000e+00
-3.449054e-01
-9.156772e-01
-1.730192e+00
-2.739676e+00
-3.934195e+00
-5.312540e+00
-6.872102e+00
-8.610789e+00
-1.053189e+01
-1.264381e+01
-1.494829e+01
-1.742659e+01
-2.003146e+01
-2.266878e+01
-2.518188e+01
-2.736123e+01
0.000000e+00
-3.230521e-01
-9.407981e-01
-1.780318e+00
-2.810051e+00
-4.010487e+00
-5.393030e+00
-6.957606e+00
-8.698819e+00
-1.062053e+01
-1.273127e+01
-1.503099e+01
-1.748912e+01
-2.003918e+01
-2.258310e+01
-2.500066e+01
-2.717597e+01
0.000000e+00
-3.686387e-01
-1.046018e+00
-1.894079e+00
-2.932631e+00
-4.135557e+00
-5.519788e+00
-7.085012e+00
-8.825630e+00
-1.074640e+01
-1.285356e+01
-1.514268e+01
-1.757614e+01
-2.008039e+01
-2.256049e+01
-2.492333e+01
-2.713250e+01
0.000000e+00
-5.675614e-01
-1.213924e+00
-2.075051e+00
-3.107205e+00
-4.309537e+00
-5.695776e+00
-7.257560e+00
-8.994942e+00
-1.091449e+01
-1.301778e+01
-1.529087e+01
-1.769052e+01
-2.014796e+01
-2.257942e+01
-2.490892e+01
-2.713358e+01


0.000000e+00
1.388261e-05
2.430111e-05
3.596936e-05
5.039517e-05
6.353816e-05
7.643048e-05
8.994870e-05
1.028563e-04
1.152474e-04
1.278569e-04
1.400484e-04
1.493939e-04
1.553393e-04
1.592787e-04
1.627969e-04
1.669319e-04
0.000000e+00
1.022950e-05
1.947165e-05
2.805958e-05
3.968276e-05
4.996315e-05
5.931302e-05
6.956210e-05
7.929582e-05
8.820823e-05
9.732725e-05
1.057009e-04
1.108495e-04
1.120407e-04
1.119594e-04
1.148737e-04
1.195777e-04
0.000000e+00
8.189831e-06
1.467533e-05
2.048372e-05
2.848914e-05
3.529150e-05
4.140447e-05
4.808069e-05
5.421424e-05
5.959664e-05
6.464294e-05
6.862045e-05
7.037191e-05
6.996302e-05
6.981702e-05
7.256581e-05
7.722949e-05
0.000000e+00
4.277879e-06
6.962515e-06
1.056204e-05
1.421646e-05
1.732569e-05
2.057067e-05
2.364594e-05
2.633824e-05
2.862982e-05
3.020463e-05
3.094261e-05
3.092689e-05
3.096539e-05
3.181507e-05
3.456611e-05
3.880050e-05
0.000000e+00
-3.526128e-08
-8.051755e-08
-1.336384e-07
-1.969122e-07
-2.702232e-07
-3.540475e-07
-4.719340e-07
-6.611228e-07
-1.008160e-06
-1.694217e-06
-2.672342e-06
-3.627455e-06
-3.922920e-06
-3.027256e-06
-1.325885e-06
1.057734e-06
0.000000e+00
-4.337603e-06
-7.092437e-06
-1.078988e-05
-1.455847e-05
-1.777614e-05
-2.116127e-05
-2.439206e-05
-2.721411e-05
-2.982337e-05
-3.207896e-05
-3.389424e-05
-3.534756e-05
-3.621457e-05
-3.667738e-05
-3.679133e-05
-3.615091e-05
0.000000e+00
-8.205062e-06
-1.472961e-05
-2.061516e-05
-2.868874e-05
-3.557576e-05
-4.182776e-05
-4.850628e-05
-5.453374e-05
-5.992533e-05
-6.455289e-05
-6.748723e-05
-6.911589e-05
-7.034718e-05
-7.135489e-05
-7.206889e-05
-7.219296e-05
0.000000e+00
-1.021239e-05
-1.945316e-05
-2.806548e-05
-3.968763e-05
-4.997709e-05
-5.942331e-05
-6.960167e-05
-7.918370e-05
-8.834136e-05
-9.686578e-05
-1.026797e-04
-1.055662e-04
-1.071985e-04
-1.081938e-04
-1.086865e-04
-1.088167e-04
0.000000e+00
-1.387185e-05
-2.425225e-05
-3.587361e-05
-5.022038e-05
-6.324492e-05
-7.606421e-05
-8.943165e-05
-1.021257e-04
-1.147807e-04
-1.272077e-04
-1.367592e-04
-1.425340e-04
-1.453191e-04
-1.462431e-04
-1.463268e-04
-1.462758e-04
0.000000e+00
1.169121e-05
1.925675e-05
3.032144e-05
4.480856e-05
6.089132e-05
8.091492e-05
1.049447e-04
1.317743e-04
1.620557e-04
1.960684e-04
2.326662e-04
2.709059e-04
3.122072e-04
3.605466e-04
4.159486e-04
4.718983e-04
0.000000e+00
6.664203e-06
1.495831e-05
2.458225e-05
3.856352e-05
5.524789e-05
7.515703e-05
9.907146e-05
1.262741e-04
1.567009e-04
1.907603e-04
2.282364e-04
2.683590e-04
3.109793e-04
3.574693e-04
4.103218e-04
4.645544e-04
0.000000e+00
3.306239e-06
1.095026e-05
2.020560e-05
3.362356e-05
5.081697e-05
7.097573e-05
9.481954e-05
1.223772e-04
1.531418e-04
1.874407e-04
2.256101e-04
2.670170e-04
3.103569e-04
3.535949e-04
4.026543e-04
4.547713e-04
0.000000e+00
2.068987e-06
8.849914e-06
1.830810e-05
3.164952e-05
4.889809e-05
6.926952e-05
9.323857e-05
1.209345e-04
1.520270e-04
1.866032e-04
2.247566e-04
2.663922e-04
3.094759e-04
3.504982e-04
3.949639e-04
4.432433e-04
0.000000e+00
1.723138e-06
8.223069e-06
1.772804e-05
3.115159e-05
4.828834e-05
6.873845e-05
9.281245e-05
1.205503e-04
1.518620e-04
1.866798e-04
2.247286e-04
2.661121e-04
3.091751e-04
3.493941e-04
3.901238e-04
4.335507e-04
0.000000e+00
2.094744e-06
8.875798e-06
1.832950e-05
3.164904e-05
4.883786e-05
6.918092e-05
9.315049e-05
1.208304e-04
1.521931e-04
1.873267e-04
2.256270e-04
2.668379e-04
3.092273e-04
3.498055e-04
3.889556e-04
4.281207e-04
0.000000e+00
3.345040e-06
1.099309e-05
2.024882e-05
3.363008e-05
5.072055e-05
7.083390e-05
9.463651e-05
1.221238e-04
1.534041e-04
1.887822e-04
2.274007e-04
2.681923e-04
3.096844e-04
3.498865e-04
3.885807e-04
4.261669e-04
0.000000e+00
6.704731e-06
1.501934e-05
2.464594e-05
3.859034e-05
5.518217e-05
7.500709e-05
9.882168e-05
1.259827e-04
1.569316e-04
1.919554e-04
2.298248e-04
2.695071e-04
3.100918e-04
3.498490e-04
3.883607e-04
4.258835e-04
0.000000e+00
1.172874e-05
1.932363e-05
3.039603e-05
4.484210e-05
6.085684e-05
8.079317e-05
1.046583e-04
1.315320e-04
1.623410e-04
1.966194e-04
2.327406e-04
2.708864e-04
3.105186e-04
3.499123e-04
3.882882e-04
4.259233e-04


2.981588e+00
2.856265e+00
2.911097e+00
2.864678e+00
2.872426e+00
3.124510e+00
3.360526e+00
3.672709e+00
4.117474e+00
4.690094e+00
5.509089e+00
6.449434e+00
7.114660e+00
7.049407e+00
6.051570e+00
5.063999e+00
4.724925e+00
4.600740e+00
4.574855e+00
4.510875e+00
4.476230e+00
4.633448e+00
4.782717e+00
4.979381e+00
5.272716e+00
5.653447e+00
6.196819e+00
6.824410e+00
7.229810e+00
6.908197e+00
5.670306e+00
4.441812e+00
6.705218e+00
6.636597e+00
6.602240e+00
6.523062e+00
6.487140e+00
6.540148e+00
6.576609e+00
6.633797e+00
6.727362e+00
6.841051e+00
7.009425e+00
7.213573e+00
7.304064e+00
6.873564e+00
5.713682e+00
4.677745e+00
7.632794e+00
7.604529e+00
7.582586e+00
7.527306e+00
7.506061e+00
7.504579e+00
7.486649e+00
7.464376e+00
7.432883e+00
7.376522e+00
7.304081e+00
7.245069e+00
7.198805e+00
6.954283e+00
6.373691e+00
5.865159e+00
7.632014e+00
7.602731e+00
7.579317e+00
7.521961e+00
7.497522e+00
7.491470e+00
7.465660e+00
7.425492e+00
7.365509e+00
7.279909e+00
7.175905e+00
7.093486e+00
7.095497e+00
7.113077e+00
7.045239e+00
6.953233e+00
6.702205e+00
6.630318e+00
6.590650e+00
6.504415e+00
6.457991e+00
6.499217e+00
6.515752e+00
6.527146e+00
6.574059e+00
6.679987e+00
6.832780e+00
6.990027e+00
7.164698e+00
7.353576e+00
7.494106e+00
7.560242e+00
4.721126e+00
4.592200e+00
4.560102e+00
4.487593e+00
4.440722e+00
4.590403e+00
4.726426e+00
4.889227e+00
5.209104e+00
5.730238e+00
6.370935e+00
6.930977e+00
7.320364e+00
7.583835e+00
7.749164e+00
7.824312e+00
2.979465e+00
2.850368e+00
2.901261e+00
2.850672e+00
2.851819e+00
3.108024e+00
3.353084e+00
3.668182e+00
4.225416e+00
5.082002e+00
6.086017e+00
6.916218e+00
7.430815e+00
7.712218e+00
7.856769e+00
7.916799e+00


-6.409347e-01
-2.175600e-01
-2.643214e-01
-2.716692e-01
-1.654269e-01
-2.188985e-01
-2.100796e-01
-1.813725e-01
-1.875541e-01
-1.892751e-01
-2.298399e-01
-2.858226e-01
-2.294803e-01
3.233836e-02
4.751619e-01
-7.245012e-01
5.611945e-01
4.196143e-01
3.222636e-01
2.567753e-01
3.013111e-01
2.568434e-01
2.458329e-01
2.524937e-01
2.454375e-01
2.570117e-01
2.845610e-01
3.573983e-01
5.320072e-01
7.742945e-01
7.376680e-01
-1.193647e+00
8.073248e-01
6.441715e-01
4.744495e-01
4.170274e-01
4.060329e-01
3.741004e-01
3.682290e-01
3.706375e-01
3.751597e-01
3.976630e-01
4.368383e-01
4.879548e-01
5.090939e-01
3.921557e-01
1.411935e-01
-3.054506e-01
8.489900e-01
7.098607e-01
5.305978e-01
4.393600e-01
3.921095e-01
3.692655e-01
3.655774e-01
3.689370e-01
3.720960e-01
3.667269e-01
3.384510e-01
2.653991e-01
1.097385e-01
-1.050241e-01
-1.053718e-01
2.351915e-02
8.499986e-01
7.110793e-01
5.316551e-01
4.380830e-01
3.865630e-01
3.554418e-01
3.377092e-01
3.217811e-01
2.959239e-01
2.428361e-01
1.513082e-01
2.522939e-02
-1.100064e-01
-1.459825e-01
6.373850e-02
4.395665e-01
8.096726e-01
6.472014e-01
4.774524e-01
4.162738e-01
3.976972e-01
3.497274e-01
3.155784e-01
2.789143e-01
2.180538e-01
1.295932e-01
2.743241e-02
-4.272093e-02
-2.595592e-02
1.381903e-01
4.530716e-01
8.039607e-01
5.627141e-01
4.217536e-01
3.239473e-01
2.569847e-01
2.996038e-01
2.461434e-01
2.188076e-01
2.100737e-01
1.616694e-01
8.672507e-02
3.590879e-02
8.916309e-02
2.627922e-01
5.185886e-01
7.882444e-01
9.649796e-01
-6.435974e-01
-2.188958e-01
-2.666740e-01
-2.741426e-01
-1.621411e-01
-2.136779e-01
-2.014260e-01
-1.427778e-01
-1.287079e-01
-1.295553e-01
-4.539023e-02
2.180190e-01
5.663500e-01
8.341317e-01
9.668436e-01
9.993291e-01
1 2 19 18
2 3 20 19
3 4 21 20
4 5 22 21
5 6 23 22
6 7 24 23
7 8 25 24
8 9 26 25
9 10 27 26
10 11 28 27
11 12 29 28
12 13 30 29
13 14 31 30
14 15 32 31
15 16 33 32
16 17 34 33
18 19 36 35
19 20 37 36
20 21 38 37
21 22 39 38
22 23 40 39
23 24 41 40
24 25 42 41
25 26 43 42
26 27 44 43
27 28 45 44
28 29 46 45
29 30 47 46
30 31 48 47
31 32 49 48
32 33 50 49
33 34 51 50
35 36 53 52
36 37 54 53
37 38 55 54
38 39 56 55
39 40 57 56
40 41 58 57
41 42 59 58
42 43 60 59
43 44 61 60
44 45 62 61
45 46 63 62
46 47 64 63
47 48 65 64
48 49 66 65
49 50 67 66
50 51 68 67
52 53 70 69
53 54 71 70
54 55 72 71
55 56 73 72
56 57 74 73
57 58 75 74
58 59 76 75
59 60 77 76
60 61 78 77
61 62 79 78
62 63 80 79
63 64 81 80
64 65 82 81
65 66 83 82
66 67 84 83
67 68 85 84
69 70 87 86
70 71 88 87
71 72 89 88
72 73 90 89
73 74 91 90
74 75 92 91
75 76 93 92
76 77 94 93
77 78 95 94
78 79 96 95
79 80 97 96
80 81 98 97
81 82 99 98
82 83 100 99
83 84 101 100
84 85 102 101
86 87 104 103
87 88 105 104
88 89 106 105
89 90 107 106
90 91 108 107
91 92 109 108
92 93 110 109
93 94 111 110
94 95 112 111
95 96 113 112
96 97 114 113
97 98 115 114
98 99 116 115
99 100 117 116
100 101 118 117
101 102 119 118
103 104 121 120
104 105 122 121
105 106 123 122
106 107 124 123
107 108 125 124
108 109 126 125
109 110 127 126
110 111 128 127
111 112 129 128
112 113 130 129
113 114 131 130
114 115 132 131
115 116 133 132
116 117 134 133
117 118 135 134
118 119 136 135
120 121 138 137
121 122 139 138
122 123 140 139
123 124 141 140
124 125 142 141
125 126 143 142
126 127 144 143
127 128 145 144
128 129 146 145
129 130 147 146
130 131 148 147
131 132 149 148
132 133 150 149
133 134 151 150
134 135 152 151
135 136 153 152
