TITLE = "Solution"
VARIABLES = x, y, u, v, psiu, psiv, t, stress
ZONE T="structure" N=153 E=128 F=FEBLOCK ET=QUADRILATERAL VARLOCATION=([7,8]=cellcentered)
0.000000e+00
1.250000e+01
2.500000e+01
3.750000e+01
5.000000e+01
6.250000e+01
7.500000e+01
8.750000e+01
1.000000e+02
1.125000e+02
1.250000e+02
1.375000e+02
1.500000e+02
1.625000e+02
1.750000e+02
1.875000e+02
2.000000e+02
0.000000e+00
1.250000e+01
2.500000e+01
3.750000e+01
5.000000e+01
6.250000e+01
7.500000e+01
8.750000e+01
1.000000e+02
1.125000e+02
1.250000e+02
1.375000e+02
1.500000e+02
1.625000e+02
1.750000e+02
1.875000e+02
2.000000e+02
0.000000e+00
1.250000e+01
2.500000e+01
3.750000e+01
5.000000e+01
6.250000e+01
7.500000e+01
8.750000e+01
1.000000e+02
1.125000e+02
1.250000e+02
1.375000e+02
1.500000e+02
1.625000e+02
1.750000e+02
1.875000e+02
2.000000e+02
0.000000e+00
1.250000e+01
2.500000e+01
3.750000e+01
5.000000e+01
6.250000e+01
7.500000e+01
8.750000e+01
1.000000e+02
1.125000e+02
1.250000e+02
1.375000e+02
1.500000e+02
1.625000e+02
1.750000e+02
1.875000e+02
2.000000e+02
0.000000e+00
1.250000e+01
2.500000e+01
3.750000e+01
5.000000e+01
6.250000e+01
7.500000e+01
8.750000e+01
1.000000e+02
1.125000e+02
1.250000e+02
1.375000e+02
1.500000e+02
1.625000e+02
1.750000e+02
1.875000e+02
2.000000e+02
0.000000e+00
1.250000e+01
2.500000e+01
3.750000e+01
5.000000e+01
6.250000e+01
7.500000e+01
8.750000e+01
1.000000e+02
1.125000e+02
1.250000e+02
1.375000e+02
1.500000e+02
1.625000e+02
1.750000e+02
1.875000e+02
2.000000e+02
0.000000e+00
1.250000e+01
2.500000e+01
3.750000e+01
5.000000e+01
6.250000e+01
7.500000e+01
8.750000e+01
1.000000e+02
1.125000e+02
1.250000e+02
1.375000e+02
1.500000e+02
1.625000e+02
1.750000e+02
1.875000e+02
2.000000e+02
0.000000e+00
1.250000e+01
2.500000e+01
3.750000e+01
5.000000e+01
6.250000e+01
7.500000e+01
8.750000e+01
1.000000e+02
1.125000e+02
1.250000e+02
1.375000e+02
1.500000e+02
1.625000e+02
1.750000e+02
1.875000e+02
2.000000e+02
0.000000e+00
1.250000e+01
2.500000e+01
3.750000e+01
5.000000e+01
6.250000e+01
7.500000e+01
8.750000e+01
1.000000e+02
1.125000e+02
1.250000e+02
1.375000e+02
1.500000e+02
1.625000e+02
1.750000e+02
1.875000e+02
2.000000e+02
0.000000e+00
0.000000e+00
0.000000e+00
0.000000e+00
0.000000e+00
0.000000e+00
0.000000e+00
0.000000e+00
0.000000e+00
0.000000e+00
0.000000e+00
0.000000e+00
0.000000e+00
0.000000e+00
0.000000e+00
0.000000e+00
0.000000e+00
1.250000e+01
1.250000e+01
1.250000e+01
1.250000e+01
1.250000e+01
1.250000e+01
1.250000e+01
1.250000e+01
1.250000e+01
1.250000e+01
1.250000e+01
1.250000e+01
1.250000e+01
1.250000e+01
1.250000e+01
1.250000e+01
1.250000e+01
2.500000e+01
2.500000e+01
2.500000e+01
2.500000e+01
2.500000e+01
2.500000e+01
2.500000e+01
2.500000e+01
2.500000e+01
2.500000e+01
2.500000e+01
2.500000e+01
2.500000e+01
2.500000e+01
2.500000e+01
2.500000e+01
2.500000e+01
3.750000e+01
3.750000e+01
3.750000e+01
3.750000e+01
3.750000e+01
3.750000e+01
3.750000e+01
3.750000e+01
3.750000e+01
3.750000e+01
3.750000e+01
3.750000e+01
3.750000e+01
3.750000e+01
3.750000e+01
3.750000e+01
3.750000e+01
5.000000e+01
5.000000e+01
5.000000e+01
5.000000e+01
5.000000e+01
5.000000e+01
5.000000e+01
5.000000e+01
5.000000e+01
5.000000e+01
5.000000e+01
5.000000e+01
5.000000e+01
5.000000e+01
5.000000e+01
5.000000e+01
5.000000e+01
6.250000e+01
6.250000e+01
6.250000e+01
6.250000e+01
6.250000e+01
6.250000e+01
6.250000e+01
6.250000e+01
6.250000e+01
6.250000e+01
6.250000e+01
6.250000e+01
6.250000e+01
6.250000e+01
6.250000e+01
6.250000e+01
6.250000e+01
7.500000e+01
7.500000e+01
7.500000e+01
7.500000e+01
7.500000e+01
7.500000e+01
7.500000e+01
7.500000e+01
7.500000e+01
7.500000e+01
7.500000e+01
7.500000e+01
7.500000e+01
7.500000e+01
7.500000e+01
7.500000e+01
7.500000e+01
8.750000e+01
8.750000e+01
8.750000e+01
8.750000e+01
8.750000e+01
8.750000e+01
8.750000e+01
8.750000e+01
8.750000e+01
8.750000e+01
8.750000e+01
8.750000e+01
8.750000e+01
8.750000e+01
8.750000e+01
8.750000e+01
8.750000e+01
1.000000e+02
1.000000e+02
1.000000e+02
1.000000e+02
1.000000e+02
1.000000e+02
1.000000e+02
1.000000e+02
1.000000e+02
1.000000e+02
1.000000e+02
1.000000e+02
1.000000e+02
1.000000e+02
1.000000e+02
1.000000e+02
1.000000e+02
0.000000e+00
-9.314735e-01
-1.619058e+00
-2.328882e+00
-3.014054e+00
-3.670853e+00
-4.349330e+00
-5.014591e+00
-5.673296e+00
-6.339226e+00
-6.999920e+00
-7.674804e+00
-8.395165e+00
-9.152944e+00
-9.927942e+00
-1.063223e+01
-1.108233e+01
0.000000e+00
-4.505665e-01
-9.314814e-01
-1.435356e+00
-1.951871e+00
-2.442570e+00
-2.950103e+00
-3.452389e+00
-3.947510e+00
-4.447246e+00
-4.940693e+00
-5.433813e+00
-5.937181e+00
-6.420257e+00
-6.777266e+00
-6.868670e+00
-7.037882e+00
0.000000e+00
-1.943591e-01
-4.354206e-01
-7.424195e-01
-1.082019e+00
-1.412528e+00
-1.758318e+00
-2.102059e+00
-2.441642e+00
-2.780495e+00
-3.107763e+00
-3.414926e+00
-3.685093e+00
-3.878557e+00
-3.938563e+00
-3.918428e+00
-4.070789e+00
0.000000e+00
-8.725076e-02
-1.864050e-01
-3.295750e-01
-4.814037e-01
-6.501469e-01
-8.223266e-01
-9.924884e-01
-1.160588e+00
-1.320691e+00
-1.464620e+00
-1.577490e+00
-1.637970e+00
-1.627995e+00
-1.563039e+00
-1.558477e+00
-1.687504e+00
0.000000e+00
-1.756339e-03
-3.567759e-03
-5.095960e-03
-5.940926e-03
-5.272490e-03
-1.932964e-03
5.831101e-03
2.078026e-02
4.614963e-02
8.703069e-02
1.517197e-01
2.463514e-01
3.645824e-01
4.655796e-01
4.784446e-01
3.747348e-01
0.000000e+00
8.425016e-02
1.805095e-01
3.207461e-01
4.707666e-01
6.400942e-01
8.170174e-01
9.997360e-01
1.192529e+00
1.395212e+00
1.609223e+00
1.829733e+00
2.043899e+00
2.230468e+00
2.353821e+00
2.378276e+00
2.316803e+00
0.000000e+00
1.930493e-01
4.327590e-01
7.380926e-01
1.076223e+00
1.406009e+00
1.752642e+00
2.101588e+00
2.451397e+00
2.807894e+00
3.168509e+00
3.524077e+00
3.844691e+00
4.097126e+00
4.256472e+00
4.310789e+00
4.295135e+00
0.000000e+00
4.506525e-01
9.315493e-01
1.434821e+00
1.950806e+00
2.440189e+00
2.944391e+00
3.444167e+00
3.932197e+00
4.416106e+00
4.896566e+00
5.366564e+00
5.783475e+00
6.098038e+00
6.292691e+00
6.377198e+00
6.392695e+00
0.000000e+00
9.325440e-01
1.621533e+00
2.332583e+00
3.019289e+00
3.677006e+00
4.352729e+00
5.014212e+00
5.659962e+00
6.294513e+00
6.918520e+00
7.518586e+00
8.029285e+00
8.381062e+00
8.558685e+00
8.604062e+00
8.603442e+00
0.000000e+00
-5.792161e-01
-1.247418e+00
-2.137461e+00
-3.196279e+00
-4.423052e+00
-5.830148e+00
-7.405588e+00
-9.153699e+00
-1.107700e+01
-1.317122e+01
-1.544570e+01
-1.791517e+01
-2.058671e+01
-2.349400e+01
-2.683863e+01
-3.178917e+01
0.000000e+00
-3.790305e-01
-1.079563e+00
-1.955723e+00
-3.022851e+00
-4.248396e+00
-5.653801e+00
-7.232547e+00
-8.980593e+00
-1.090485e+01
-1.300082e+01
-1.527182e+01
-1.773701e+01
-2.042125e+01
-2.337217e+01
-2.674223e+01
-3.079840e+01
0.000000e+00
-3.377764e-01
-9.757739e-01
-1.844196e+00
-2.901309e+00
-4.124963e+00
-5.530091e+00
-7.109280e+00
-8.859961e+00
-1.078873e+01
-1.289239e+01
-1.517488e+01
-1.765596e+01
-2.037109e+01
-2.336455e+01
-2.657240e+01
-2.957386e+01
0.000000e+00
-3.679579e-01
-9.562565e-01
-1.800309e+00
-2.834902e+00
-4.056210e+00
-5.460573e+00
-7.040551e+00
-8.797122e+00
-1.073406e+01
-1.285291e+01
-1.515840e+01
-1.766043e+01
-2.037829e+01
-2.331058e+01
-2.624880e+01
-2.880379e+01
0.000000e+00
-3.777220e-01
-9.634511e-01
-1.787967e+00
-2.819195e+00
-4.038222e+00
-5.444490e+00
-7.029018e+00
-8.792378e+00
-1.073806e+01
-1.287115e+01
-1.519495e+01
-1.770261e+01
-2.038251e+01
-2.317762e+01
-2.589372e+01
-2.820377e+01
0.000000e+00
-3.677103e-01
-9.570379e-01
-1.803078e+00
-2.841168e+00
-4.067989e+00
-5.479524e+00
-7.070300e+00
-8.840556e+00
-1.079091e+01
-1.292863e+01
-1.525625e+01
-1.775286e+01
-2.037605e+01
-2.304270e+01
-2.559230e+01
-2.779371e+01
0.000000e+00
-3.375587e-01
-9.771759e-01
-1.848729e+00
-2.911542e+00
-4.144211e+00
-5.561446e+00
-7.158565e+00
-8.931830e+00
-1.088332e+01
-1.301717e+01
-1.533701e+01
-1.781410e+01
-2.038421e+01
-2.295538e+01
-2.540259e+01
-2.759720e+01
0.000000e+00
-3.789094e-01
-1.081042e+00
-1.960650e+00
-3.034062e+00
-4.269501e+00
-5.688982e+00
-7.287561e+00
-9.060294e+00
-1.101088e+01
-1.314000e+01
-1.544799e+01
-1.790147e+01
-2.042724e+01
-2.293281e+01
-2.532116e+01
-2.754931e+01
0.000000e+00
-5.793876e-01
-1.249098e+00
-2.142643e+00
-3.207785e+00
-4.444087e+00
-5.865189e+00
-7.459831e+00
-9.229725e+00
-1.117768e+01
-1.330330e+01
-1.559800e+01
-1.801947e+01
-2.049846e+01
-2.295355e+01
-2.530617e+01
-2.754982e+01


0.000000e+00
1.429236e-05
2.457051e-05
3.645865e-05
5.129291e-05
6.458800e-05
7.799229e-05
9.205826e-05
1.055142e-04
1.187651e-04
1.322521e-04
1.461370e-04
1.580967e-04
1.656981e-04
1.701459e-04
1.738330e-04
1.785042e-04
0.000000e+00
1.052935e-05
1.961883e-05
2.831426e-05
4.038430e-05
5.082883e-05
6.045509e-05
7.116779e-05
8.131875e-05
9.068627e-05
1.002911e-04
1.098124e-04
1.168081e-04
1.189369e-04
1.186590e-04
1.217105e-04
1.266886e-04
0.000000e+00
8.538664e-06
1.491367e-05
2.073429e-05
2.917208e-05
3.608571e-05
4.230983e-05
4.930159e-05
5.562912e-05
6.116126e-05
6.635946e-05
7.078311e-05
7.314769e-05
7.271150e-05
7.228738e-05
7.496124e-05
7.965576e-05
0.000000e+00
4.522547e-06
7.075574e-06
1.071953e-05
1.454826e-05
1.760671e-05
2.096714e-05
2.408301e-05
2.674357e-05
2.900955e-05
3.033370e-05
3.061466e-05
2.995154e-05
2.949312e-05
3.035791e-05
3.352225e-05
3.824977e-05
0.000000e+00
-4.591403e-08
-1.084390e-07
-1.868943e-07
-2.828249e-07
-4.022096e-07
-5.463770e-07
-7.319437e-07
-1.032376e-06
-1.546461e-06
-2.538677e-06
-4.011151e-06
-5.842539e-06
-6.999207e-06
-6.196541e-06
-4.031374e-06
-1.110087e-06
0.000000e+00
-4.598251e-06
-7.251169e-06
-1.102517e-05
-1.503565e-05
-1.828650e-05
-2.184569e-05
-2.527091e-05
-2.818954e-05
-3.083202e-05
-3.306503e-05
-3.487145e-05
-3.673981e-05
-3.838674e-05
-3.954731e-05
-3.991316e-05
-3.925023e-05
0.000000e+00
-8.559180e-06
-1.496892e-05
-2.088758e-05
-2.945662e-05
-3.646037e-05
-4.287833e-05
-5.002593e-05
-5.615486e-05
-6.160105e-05
-6.654679e-05
-6.958318e-05
-7.131646e-05
-7.305496e-05
-7.471455e-05
-7.597631e-05
-7.634318e-05
0.000000e+00
-1.051349e-05
-1.958548e-05
-2.830148e-05
-4.041194e-05
-5.081549e-05
-6.053415e-05
-7.135624e-05
-8.116862e-05
-9.067103e-05
-1.003247e-04
-1.074165e-04
-1.109076e-04
-1.129470e-04
-1.141382e-04
-1.146889e-04
-1.148877e-04
0.000000e+00
-1.429319e-05
-2.452471e-05
-3.633729e-05
-5.109442e-05
-6.421934e-05
-7.744866e-05
-9.146023e-05
-1.045678e-04
-1.179250e-04
-1.322389e-04
-1.440020e-04
-1.513655e-04
-1.546175e-04
-1.552296e-04
-1.549072e-04
-1.547150e-04
0.000000e+00
1.197011e-05
1.957547e-05
3.104411e-05
4.593181e-05
6.227712e-05
8.289544e-05
1.076407e-04
1.353093e-04
1.667823e-04
2.024832e-04
2.419164e-04
2.838932e-04
3.289988e-04
3.817190e-04
4.416769e-04
5.024285e-04
0.000000e+00
6.941023e-06
1.534494e-05
2.516334e-05
3.958605e-05
5.655976e-05
7.693763e-05
1.015708e-04
1.295821e-04
1.611482e-04
1.967475e-04
2.365813e-04
2.803852e-04
3.274071e-04
3.784376e-04
4.357278e-04
4.943395e-04
0.000000e+00
3.539434e-06
1.131588e-05
2.061788e-05
3.441548e-05
5.197610e-05
7.256659e-05
9.706677e-05
1.254988e-04
1.573863e-04
1.930591e-04
2.333337e-04
2.783746e-04
3.269150e-04
3.746996e-04
4.280689e-04
4.843629e-04
0.000000e+00
2.279202e-06
9.183500e-06
1.867226e-05
3.234298e-05
4.999381e-05
7.081438e-05
9.545091e-05
1.240303e-04
1.562478e-04
1.921933e-04
2.321192e-04
2.775864e-04
3.262284e-04
3.719124e-04
4.200115e-04
4.717597e-04
0.000000e+00
1.901709e-06
8.562006e-06
1.811371e-05
3.183653e-05
4.937923e-05
7.027623e-05
9.503380e-05
1.236527e-04
1.560676e-04
1.922620e-04
2.319954e-04
2.773337e-04
3.264701e-04
3.710800e-04
4.144122e-04
4.603155e-04
0.000000e+00
2.324167e-06
9.239083e-06
1.872188e-05
3.238442e-05
4.997021e-05
7.070774e-05
9.536054e-05
1.238895e-04
1.562215e-04
1.928173e-04
2.331286e-04
2.785267e-04
3.268275e-04
3.717601e-04
4.130282e-04
4.537994e-04
0.000000e+00
3.606938e-06
1.140327e-05
2.070849e-05
3.449867e-05
5.192504e-05
7.239276e-05
9.687992e-05
1.250919e-04
1.572463e-04
1.942527e-04
2.354856e-04
2.805522e-04
3.273589e-04
3.716302e-04
4.125827e-04
4.518827e-04
0.000000e+00
7.005438e-06
1.545297e-05
2.529341e-05
3.969195e-05
5.654560e-05
7.679409e-05
1.012934e-04
1.290502e-04
1.609346e-04
1.978543e-04
2.386783e-04
2.823412e-04
3.277170e-04
3.712473e-04
4.123507e-04
4.519703e-04
0.000000e+00
1.202987e-05
1.968428e-05
3.119349e-05
4.604737e-05
6.227722e-05
8.282255e-05
1.073534e-04
1.347386e-04
1.667512e-04
2.033570e-04
2.423204e-04
2.841119e-04
3.280379e-04
3.711385e-04
4.122129e-04
4.521506e-04


3.351783e+00
3.248835e+00
3.304194e+00
3.137841e+00
3.069519e+00
3.297724e+00
3.481634e+00
3.776953e+00
4.207227e+00
4.704227e+00
5.503681e+00
6.593684e+00
7.475003e+00
7.579479e+00
6.590245e+00
5.515562e+00
5.316244e+00
5.210648e+00
5.166393e+00
5.033943e+00
4.940512e+00
5.079452e+00
5.191125e+00
5.368010e+00
5.643848e+00
5.957525e+00
6.449878e+00
7.120972e+00
7.639691e+00
7.411988e+00
6.104866e+00
4.697456e+00
7.376445e+00
7.313459e+00
7.277657e+00
7.163798e+00
7.114151e+00
7.158473e+00
7.175036e+00
7.220797e+00
7.301452e+00
7.370668e+00
7.463033e+00
7.598819e+00
7.673278e+00
7.267503e+00
6.018814e+00
4.819163e+00
8.236536e+00
8.212092e+00
8.192827e+00
8.135329e+00
8.114449e+00
8.110832e+00
8.087537e+00
8.060361e+00
8.018016e+00
7.922440e+00
7.740195e+00
7.510066e+00
7.360692e+00
7.149215e+00
6.609731e+00
6.083234e+00
8.235408e+00
8.209689e+00
8.188360e+00
8.127883e+00
8.103343e+00
8.093603e+00
8.061494e+00
8.016174e+00
7.934638e+00
7.783671e+00
7.527228e+00
7.216576e+00
7.092472e+00
7.198877e+00
7.305902e+00
7.304396e+00
7.371475e+00
7.304294e+00
7.259605e+00
7.135019e+00
7.070688e+00
7.094854e+00
7.088600e+00
7.082003e+00
7.073713e+00
7.086906e+00
7.121225e+00
7.131849e+00
7.249786e+00
7.551143e+00
7.860272e+00
8.019814e+00
5.308518e+00
5.196658e+00
5.141198e+00
4.995674e+00
4.882491e+00
4.999633e+00
5.097419e+00
5.225461e+00
5.469366e+00
5.919028e+00
6.575118e+00
7.181429e+00
7.616301e+00
7.967769e+00
8.220982e+00
8.339195e+00
3.344615e+00
3.238067e+00
3.285633e+00
3.113347e+00
3.033573e+00
3.251165e+00
3.449606e+00
3.741660e+00
4.229314e+00
5.064044e+00
6.216300e+00
7.227891e+00
7.848481e+00
8.192695e+00
8.374860e+00
8.450252e+00


-6.766748e-01
-2.129891e-01
-2.898772e-01
-2.667012e-01
-1.588588e-01
-2.363927e-01
-2.014402e-01
-1.764755e-01
-2.020934e-01
-1.808120e-01
-2.089477e-01
-3.190930e-01
-3.388850e-01
-9.612738e-02
4.389698e-01
-7.785556e-01
5.739986e-01
4.285877e-01
3.159288e-01
2.469923e-01
2.963261e-01
2.345367e-01
2.320586e-01
2.355147e-01
2.130100e-01
2.302567e-01
2.613919e-01
3.160638e-01
4.738242e-01
7.325316e-01
7.304384e-01
-1.152454e+00
7.938203e-01
6.105723e-01
4.048399e-01
3.460139e-01
3.329305e-01
2.921640e-01
2.934523e-01
2.971334e-01
2.992798e-01
3.286948e-01
3.794041e-01
4.429522e-01
4.733834e-01
3.451339e-01
1.107170e-01
-2.798792e-01
8.247442e-01
6.739790e-01
4.613483e-01
3.609834e-01
3.026475e-01
2.762870e-01
2.777965e-01
2.861666e-01
2.965498e-01
3.031085e-01
2.923491e-01
2.406376e-01
9.106010e-02
-1.645418e-01
-1.750056e-01
-4.135072e-03
8.260610e-01
6.755770e-01
4.633239e-01
3.606459e-01
2.973303e-01
2.626589e-01
2.490782e-01
2.362055e-01
2.198303e-01
1.819177e-01
1.104323e-01
1.097226e-02
-1.165834e-01
-1.894041e-01
-5.327748e-03
3.969370e-01
7.968360e-01
6.145295e-01
4.102194e-01
3.480078e-01
3.258644e-01
2.697840e-01
2.398593e-01
1.989719e-01
1.388528e-01
5.748443e-02
-3.938064e-02
-9.077147e-02
-6.069688e-02
9.210143e-02
4.068691e-01
7.835424e-01
5.759205e-01
4.305897e-01
3.187753e-01
2.478759e-01
2.938518e-01
2.259493e-01
2.027907e-01
1.846420e-01
1.279247e-01
5.238762e-02
-2.163185e-02
2.155286e-02
2.104808e-01
4.785343e-01
7.656587e-01
9.602118e-01
-6.790117e-01
-2.158164e-01
-2.913538e-01
-2.691847e-01
-1.588027e-01
-2.261155e-01
-1.926012e-01
-1.436280e-01
-1.230611e-01
-1.106481e-01
-6.539677e-02
1.659965e-01
5.282886e-01
8.162543e-01
9.622429e-01
9.991649e-01
1 2 19 18
2 3 20 19
3 4 21 20
4 5 22 21
5 6 23 22
6 7 24 23
7 8 25 24
8 9 26 25
9 10 27 26
10 11 28 27
11 12 29 28
12 13 30 29
13 14 31 30
14 15 32 31
15 16 33 32
16 17 34 33
18 19 36 35
19 20 37 36
20 21 38 37
21 22 39 38
22 23 40 39
23 24 41 40
24 25 42 41
25 26 43 42
26 27 44 43
27 28 45 44
28 29 46 45
29 30 47 46
30 31 48 47
31 32 49 48
32 33 50 49
33 34 51 50
35 36 53 52
36 37 54 53
37 38 55 54
38 39 56 55
39 40 57 56
40 41 58 57
41 42 59 58
42 43 60 59
43 44 61 60
44 45 62 61
45 46 63 62
46 47 64 63
47 48 65 64
48 49 66 65
49 50 67 66
50 51 68 67
52 53 70 69
53 54 71 70
54 55 72 71
55 56 73 72
56 57 74 73
57 58 75 74
58 59 76 75
59 60 77 76
60 61 78 77
61 62 79 78
62 63 80 79
63 64 81 80
64 65 82 81
65 66 83 82
66 67 84 83
67 68 85 84
69 70 87 86
70 71 88 87
71 72 89 88
72 73 90 89
73 74 91 90
74 75 92 91
75 76 93 92
76 77 94 93
77 78 95 94
78 79 96 95
79 80 97 96
80 81 98 97
81 82 99 98
82 83 100 99
83 84 101 100
84 85 102 101
86 87 104 103
87 88 105 104
88 89 106 105
89 90 107 106
90 91 108 107
91 92 109 108
92 93 110 109
93 94 111 110
94 95 112 111
95 96 113 112
96 97 114 113
97 98 115 114
98 99 116 115
99 100 117 116
100 101 118 117
101 102 119 118
103 104 121 120
104 105 122 121
105 106 123 122
106 107 124 123
107 108 125 124
108 109 126 125
109 110 127 126
110 111 128 127
111 112 129 128
112 113 130 129
113 114 131 130
114 115 132 131
115 116 133 132
116 117 134 133
117 118 135 134
118 119 136 135
120 121 138 137
121 122 139 138
122 123 140 139
123 124 141 140
124 125 142 141
125 126 143 142
126 127 144 143
127 128 145 144
128 129 146 145
129 130 147 146
130 131 148 147
131 132 149 148
132 133 150 149
133 134 151 150
134 135 152 151
135 136 153 152
