TITLE = "Solution"
VARIABLES = x, y, u, v, psiu, psiv, t, stress
ZONE T="structure" N=153 E=128 F=FEBLOCK ET=QUADRILATERAL VARLOCATION=([7,8]=cellcentered)
0.000000e+00
1.250000e+01
2.500000e+01
3.750000e+01
5.000000e+01
6.250000e+01
7.500000e+01
8.750000e+01
1.000000e+02
1.125000e+02
1.250000e+02
1.375000e+02
1.500000e+02
1.625000e+02
1.750000e+02
1.875000e+02
2.000000e+02
0.000000e+00
1.250000e+01
2.500000e+01
3.750000e+01
5.000000e+01
6.250000e+01
7.500000e+01
8.750000e+01
1.000000e+02
1.125000e+02
1.250000e+02
1.375000e+02
1.500000e+02
1.625000e+02
1.750000e+02
1.875000e+02
2.000000e+02
0.000000e+00
1.250000e+01
2.500000e+01
3.750000e+01
5.000000e+01
6.250000e+01
7.500000e+01
8.750000e+01
1.000000e+02
1.125000e+02
1.250000e+02
1.375000e+02
1.500000e+02
1.625000e+02
1.750000e+02
1.875000e+02
2.000000e+02
0.000000e+00
1.250000e+01
2.500000e+01
3.750000e+01
5.000000e+01
6.250000e+01
7.500000e+01
8.750000e+01
1.000000e+02
1.125000e+02
1.250000e+02
1.375000e+02
1.500000e+02
1.625000e+02
1.750000e+02
1.875000e+02
2.000000e+02
0.000000e+00
1.250000e+01
2.500000e+01
3.750000e+01
5.000000e+01
6.250000e+01
7.500000e+01
8.750000e+01
1.000000e+02
1.125000e+02
1.250000e+02
1.375000e+02
1.500000e+02
1.625000e+02
1.750000e+02
1.875000e+02
2.000000e+02
0.000000e+00
1.250000e+01
2.500000e+01
3.750000e+01
5.000000e+01
6.250000e+01
7.500000e+01
8.750000e+01
1.000000e+02
1.125000e+02
1.250000e+02
1.375000e+02
1.500000e+02
1.625000e+02
1.750000e+02
1.875000e+02
2.000000e+02
0.000000e+00
1.250000e+01
2.500000e+01
3.750000e+01
5.000000e+01
6.250000e+01
7.500000e+01
8.750000e+01
1.000000e+02
1.125000e+02
1.250000e+02
1.375000e+02
1.500000e+02
1.625000e+02
1.750000e+02
1.875000e+02
2.000000e+02
0.000000e+00
1.250000e+01
2.500000e+01
3.750000e+01
5.000000e+01
6.250000e+01
7.500000e+01
8.750000e+01
1.000000e+02
1.125000e+02
1.250000e+02
1.375000e+02
1.500000e+02
1.625000e+02
1.750000e+02
1.875000e+02
2.000000e+02
0.000000e+00
1.250000e+01
2.500000e+01
3.750000e+01
5.000000e+01
6.250000e+01
7.500000e+01
8.750000e+01
1.000000e+02
1.125000e+02
1.250000e+02
1.375000e+02
1.500000e+02
1.625000e+02
1.750000e+02
1.875000e+02
2.000000e+02
0.000000e+00
0.000000e+00
0.000000e+00
0.000000e+00
0.000000e+00
0.000000e+00
0.000000e+00
0.000000e+00
0.000000e+00
0.000000e+00
0.000000e+00
0.000000e+00
0.000000e+00
0.000000e+00
0.000000e+00
0.000000e+00
0.000000e+00
1.250000e+01
1.250000e+01
1.250000e+01
1.250000e+01
1.250000e+01
1.250000e+01
1.250000e+01
1.250000e+01
1.250000e+01
1.250000e+01
1.250000e+01
1.250000e+01
1.250000e+01
1.250000e+01
1.250000e+01
1.250000e+01
1.250000e+01
2.500000e+01
2.500000e+01
2.500000e+01
2.500000e+01
2.500000e+01
2.500000e+01
2.500000e+01
2.500000e+01
2.500000e+01
2.500000e+01
2.500000e+01
2.500000e+01
2.500000e+01
2.500000e+01
2.500000e+01
2.500000e+01
2.500000e+01
3.750000e+01
3.750000e+01
3.750000e+01
3.750000e+01
3.750000e+01
3.750000e+01
3.750000e+01
3.750000e+01
3.750000e+01
3.750000e+01
3.750000e+01
3.750000e+01
3.750000e+01
3.750000e+01
3.750000e+01
3.750000e+01
3.750000e+01
5.000000e+01
5.000000e+01
5.000000e+01
5.000000e+01
5.000000e+01
5.000000e+01
5.000000e+01
5.000000e+01
5.000000e+01
5.000000e+01
5.000000e+01
5.000000e+01
5.000000e+01
5.000000e+01
5.000000e+01
5.000000e+01
5.000000e+01
6.250000e+01
6.250000e+01
6.250000e+01
6.250000e+01
6.250000e+01
6.250000e+01
6.250000e+01
6.250000e+01
6.250000e+01
6.250000e+01
6.250000e+01
6.250000e+01
6.250000e+01
6.250000e+01
6.250000e+01
6.250000e+01
6.250000e+01
7.500000e+01
7.500000e+01
7.500000e+01
7.500000e+01
7.500000e+01
7.500000e+01
7.500000e+01
7.500000e+01
7.500000e+01
7.500000e+01
7.500000e+01
7.500000e+01
7.500000e+01
7.500000e+01
7.500000e+01
7.500000e+01
7.500000e+01
8.750000e+01
8.750000e+01
8.750000e+01
8.750000e+01
8.750000e+01
8.750000e+01
8.750000e+01
8.750000e+01
8.750000e+01
8.750000e+01
8.750000e+01
8.750000e+01
8.750000e+01
8.750000e+01
8.750000e+01
8.750000e+01
8.750000e+01
1.000000e+02
1.000000e+02
1.000000e+02
1.000000e+02
1.000000e+02
1.000000e+02
1.000000e+02
1.000000e+02
1.000000e+02
1.000000e+02
1.000000e+02
1.000000e+02
1.000000e+02
1.000000e+02
1.000000e+02
1.000000e+02
1.000000e+02
0.000000e+00
-8.915722e-01
-1.576916e+00
-2.263844e+00
-2.951857e+00
-3.611921e+00
-4.279867e+00
-4.949730e+00
-5.610367e+00
-6.270311e+00
-6.939314e+00
-7.621900e+00
-8.311628e+00
-8.998980e+00
-9.682074e+00
-1.034580e+01
-1.078445e+01
0.000000e+00
-4.558499e-01
-9.450407e-01
-1.445068e+00
-1.961030e+00
-2.455141e+00
-2.954466e+00
-3.456390e+00
-3.950389e+00
-4.441108e+00
-4.933257e+00
-5.424963e+00
-5.901006e+00
-6.325742e+00
-6.620434e+00
-6.691835e+00
-6.849280e+00
0.000000e+00
-2.241509e-01
-4.858736e-01
-8.005385e-01
-1.138494e+00
-1.470532e+00
-1.809086e+00
-2.148056e+00
-2.481214e+00
-2.808114e+00
-3.124029e+00
-3.416907e+00
-3.663356e+00
-3.825749e+00
-3.861986e+00
-3.834841e+00
-3.988051e+00
0.000000e+00
-9.647482e-02
-2.086985e-01
-3.544729e-01
-5.127280e-01
-6.800362e-01
-8.503619e-01
-1.018650e+00
-1.182097e+00
-1.335724e+00
-1.470616e+00
-1.572957e+00
-1.624895e+00
-1.611935e+00
-1.554282e+00
-1.555792e+00
-1.685514e+00
0.000000e+00
-1.051249e-03
-2.077709e-03
-2.843525e-03
-2.974406e-03
-1.876315e-03
1.489032e-03
8.803696e-03
2.245223e-02
4.613046e-02
8.572414e-02
1.484577e-01
2.385337e-01
3.464306e-01
4.305779e-01
4.317916e-01
3.319632e-01
0.000000e+00
9.465799e-02
2.051201e-01
3.494234e-01
5.071469e-01
6.758437e-01
8.512819e-01
1.031050e+00
1.216299e+00
1.408500e+00
1.607847e+00
1.811211e+00
2.008848e+00
2.179116e+00
2.287630e+00
2.305785e+00
2.250280e+00
0.000000e+00
2.231936e-01
4.839081e-01
7.975680e-01
1.134561e+00
1.466331e+00
1.806354e+00
2.148947e+00
2.489443e+00
2.832023e+00
3.174977e+00
3.504207e+00
3.796216e+00
4.024998e+00
4.167687e+00
4.216161e+00
4.203340e+00
0.000000e+00
4.558706e-01
9.449726e-01
1.444852e+00
1.960066e+00
2.452934e+00
2.950854e+00
3.448883e+00
3.935016e+00
4.416934e+00
4.894858e+00
5.343918e+00
5.724409e+00
6.005623e+00
6.177576e+00
6.251616e+00
6.265409e+00
0.000000e+00
8.924090e-01
1.578742e+00
2.266971e+00
2.955831e+00
3.616063e+00
4.283706e+00
4.949144e+00
5.598407e+00
6.241922e+00
6.875670e+00
7.457727e+00
7.926516e+00
8.239128e+00
8.392342e+00
8.429323e+00
8.428006e+00
0.000000e+00
-5.526060e-01
-1.169215e+00
-1.988152e+00
-2.975654e+00
-4.129994e+00
-5.462539e+00
-6.968538e+00
-8.646704e+00
-1.050097e+01
-1.253443e+01
-1.474937e+01
-1.714666e+01
-1.973117e+01
-2.255124e+01
-2.581584e+01
-3.061372e+01
0.000000e+00
-3.558825e-01
-1.001578e+00
-1.808917e+00
-2.800369e+00
-3.956654e+00
-5.287457e+00
-6.794899e+00
-8.475216e+00
-1.032977e+01
-1.236253e+01
-1.457853e+01
-1.698259e+01
-1.958754e+01
-2.243965e+01
-2.571368e+01
-2.969212e+01
0.000000e+00
-3.053778e-01
-8.946662e-01
-1.693639e+00
-2.678464e+00
-3.833677e+00
-5.164667e+00
-6.673532e+00
-8.356997e+00
-1.021632e+01
-1.225655e+01
-1.448466e+01
-1.690890e+01
-1.954768e+01
-2.242926e+01
-2.553280e+01
-2.845643e+01
0.000000e+00
-3.176123e-01
-8.638707e-01
-1.640032e+00
-2.610979e+00
-3.763110e+00
-5.095177e+00
-6.606298e+00
-8.295073e+00
-1.016404e+01
-1.221908e+01
-1.446635e+01
-1.691034e+01
-1.955504e+01
-2.237439e+01
-2.519803e+01
-2.767239e+01
0.000000e+00
-3.254316e-01
-8.629080e-01
-1.626656e+00
-2.592400e+00
-3.743546e+00
-5.078154e+00
-6.593310e+00
-8.288379e+00
-1.016743e+01
-1.223690e+01
-1.449920e+01
-1.694697e+01
-1.955613e+01
-2.224981e+01
-2.485390e+01
-2.709588e+01
0.000000e+00
-3.175523e-01
-8.644984e-01
-1.642291e+00
-2.615940e+00
-3.772103e+00
-5.110603e+00
-6.630726e+00
-8.330619e+00
-1.021525e+01
-1.229240e+01
-1.455982e+01
-1.699510e+01
-1.954781e+01
-2.212430e+01
-2.457935e+01
-2.672605e+01
0.000000e+00
-3.052767e-01
-8.956660e-01
-1.697208e+00
-2.686389e+00
-3.848216e+00
-5.189712e+00
-6.713373e+00
-8.415385e+00
-1.030094e+01
-1.237859e+01
-1.464200e+01
-1.705611e+01
-1.955480e+01
-2.204338e+01
-2.441140e+01
-2.655564e+01
0.000000e+00
-3.557983e-01
-1.002674e+00
-1.812777e+00
-2.809075e+00
-3.972878e+00
-5.315342e+00
-6.839157e+00
-8.540681e+00
-1.042527e+01
-1.249927e+01
-1.475135e+01
-1.713967e+01
-1.959323e+01
-2.202200e+01
-2.434016e+01
-2.651635e+01
0.000000e+00
-5.527150e-01
-1.170518e+00
-1.992211e+00
-2.984466e+00
-4.146412e+00
-5.490325e+00
-7.011596e+00
-8.710312e+00
-1.059375e+01
-1.266158e+01
-1.489406e+01
-1.724735e+01
-1.965579e+01
-2.203917e+01
-2.432684e+01
-2.651756e+01


0.000000e+00
1.325166e-05
2.379213e-05
3.510884e-05
4.876967e-05
6.155888e-05
7.378489e-05
8.624191e-05
9.818872e-05
1.095440e-04
1.204163e-04
1.296024e-04
1.360104e-04
1.403288e-04
1.436022e-04
1.469206e-04
1.507033e-04
0.000000e+00
9.765174e-06
1.914414e-05
2.753187e-05
3.837520e-05
4.834434e-05
5.732111e-05
6.666495e-05
7.565344e-05
8.400678e-05
9.184682e-05
9.796886e-05
1.011449e-04
1.017610e-04
1.018454e-04
1.045770e-04
1.090129e-04
0.000000e+00
7.695964e-06
1.424770e-05
1.998155e-05
2.734852e-05
3.392276e-05
3.983567e-05
4.592286e-05
5.161355e-05
5.667993e-05
6.105894e-05
6.405468e-05
6.516266e-05
6.490253e-05
6.498362e-05
6.763496e-05
7.208977e-05
0.000000e+00
3.960897e-06
6.745498e-06
1.024394e-05
1.366369e-05
1.673150e-05
1.980827e-05
2.271707e-05
2.528966e-05
2.746368e-05
2.907218e-05
2.997852e-05
3.033311e-05
3.062428e-05
3.142960e-05
3.368517e-05
3.719411e-05
0.000000e+00
-2.406180e-08
-5.239304e-08
-8.243555e-08
-1.148724e-07
-1.467000e-07
-1.835459e-07
-2.373609e-07
-3.347563e-07
-5.497872e-07
-9.588538e-07
-1.449070e-06
-1.752251e-06
-1.544081e-06
-7.638689e-07
4.031513e-07
2.170022e-06
0.000000e+00
-4.002828e-06
-6.832558e-06
-1.039070e-05
-1.386156e-05
-1.698322e-05
-2.011925e-05
-2.306449e-05
-2.569524e-05
-2.809867e-05
-3.012489e-05
-3.165954e-05
-3.258966e-05
-3.289229e-05
-3.294867e-05
-3.293085e-05
-3.241198e-05
0.000000e+00
-7.712435e-06
-1.429774e-05
-2.007060e-05
-2.747772e-05
-3.411886e-05
-4.007009e-05
-4.610298e-05
-5.179022e-05
-5.678148e-05
-6.066659e-05
-6.306984e-05
-6.435962e-05
-6.509916e-05
-6.560822e-05
-6.594655e-05
-6.592250e-05
0.000000e+00
-9.757836e-06
-1.914576e-05
-2.753779e-05
-3.838133e-05
-4.839890e-05
-5.738687e-05
-6.662365e-05
-7.568496e-05
-8.403538e-05
-9.078578e-05
-9.496904e-05
-9.712270e-05
-9.832437e-05
-9.905820e-05
-9.943458e-05
-9.951053e-05
0.000000e+00
-1.324075e-05
-2.375878e-05
-3.504036e-05
-4.863836e-05
-6.138870e-05
-7.355102e-05
-8.585425e-05
-9.781387e-05
-1.092305e-04
-1.190661e-04
-1.259910e-04
-1.301026e-04
-1.322758e-04
-1.332554e-04
-1.335500e-04
-1.335798e-04
0.000000e+00
1.125516e-05
1.872007e-05
2.917242e-05
4.300013e-05
5.864966e-05
7.772985e-05
1.004810e-04
1.260374e-04
1.545132e-04
1.856349e-04
2.183353e-04
2.524190e-04
2.891710e-04
3.318971e-04
3.813507e-04
4.312822e-04
0.000000e+00
6.269235e-06
1.435715e-05
2.368424e-05
3.698814e-05
5.313558e-05
7.231104e-05
9.504122e-05
1.208884e-04
1.496535e-04
1.813095e-04
2.152455e-04
2.507938e-04
2.882574e-04
3.290352e-04
3.759425e-04
4.245001e-04
0.000000e+00
2.998172e-06
1.041075e-05
1.956130e-05
3.239065e-05
4.893004e-05
6.841816e-05
9.119213e-05
1.173055e-04
1.464592e-04
1.786252e-04
2.134370e-04
2.500415e-04
2.875864e-04
3.253428e-04
3.685769e-04
4.150662e-04
0.000000e+00
1.815324e-06
8.383406e-06
1.772620e-05
3.055920e-05
4.712554e-05
6.678639e-05
8.970883e-05
1.159917e-04
1.454188e-04
1.778400e-04
2.128288e-04
2.495891e-04
2.867285e-04
3.224839e-04
3.618482e-04
4.050680e-04
0.000000e+00
1.513309e-06
7.773044e-06
1.712988e-05
3.007829e-05
4.655784e-05
6.626931e-05
8.928806e-05
1.156624e-04
1.452810e-04
1.778512e-04
2.127905e-04
2.493092e-04
2.861629e-04
3.214943e-04
3.581908e-04
3.974380e-04
0.000000e+00
1.824718e-06
8.389510e-06
1.772105e-05
3.052317e-05
4.705782e-05
6.670775e-05
8.961634e-05
1.159744e-04
1.457250e-04
1.784772e-04
2.134156e-04
2.496411e-04
2.860378e-04
3.217018e-04
3.573195e-04
3.932702e-04
0.000000e+00
3.012489e-06
1.042344e-05
1.955757e-05
3.233794e-05
4.882627e-05
6.828873e-05
9.101604e-05
1.172677e-04
1.470010e-04
1.798026e-04
2.146251e-04
2.504115e-04
2.863535e-04
3.218725e-04
3.570279e-04
3.915602e-04
0.000000e+00
6.288206e-06
1.437885e-05
2.369059e-05
3.695365e-05
5.304167e-05
7.215438e-05
9.484279e-05
1.208615e-04
1.501531e-04
1.823061e-04
2.162706e-04
2.512762e-04
2.867168e-04
3.219938e-04
3.568522e-04
3.911190e-04
0.000000e+00
1.127531e-05
1.874591e-05
2.918239e-05
4.298064e-05
5.858017e-05
7.755825e-05
1.002807e-04
1.260769e-04
1.548272e-04
1.858243e-04
2.183273e-04
2.522654e-04
2.871351e-04
3.221405e-04
3.568217e-04
3.910806e-04


2.646412e+00
2.524106e+00
2.602718e+00
2.665528e+00
2.734248e+00
3.004317e+00
3.293922e+00
3.621043e+00
4.089934e+00
4.727382e+00
5.485626e+00
6.188270e+00
6.599226e+00
6.384761e+00
5.436381e+00
4.576176e+00
4.109866e+00
3.989156e+00
3.994562e+00
4.002742e+00
4.019855e+00
4.195312e+00
4.387132e+00
4.604596e+00
4.927877e+00
5.376721e+00
5.917200e+00
6.419706e+00
6.672150e+00
6.293211e+00
5.204389e+00
4.209243e+00
5.907510e+00
5.838750e+00
5.815352e+00
5.775265e+00
5.757297e+00
5.821629e+00
5.884679e+00
5.957311e+00
6.076604e+00
6.251712e+00
6.474817e+00
6.687535e+00
6.754311e+00
6.346168e+00
5.372665e+00
4.558509e+00
6.837661e+00
6.806798e+00
6.784673e+00
6.738715e+00
6.719773e+00
6.723058e+00
6.716508e+00
6.704985e+00
6.696845e+00
6.698010e+00
6.717659e+00
6.752725e+00
6.752360e+00
6.524026e+00
6.011066e+00
5.587770e+00
6.837311e+00
6.805948e+00
6.783141e+00
6.735872e+00
6.714834e+00
6.715042e+00
6.701247e+00
6.675957e+00
6.653003e+00
6.642477e+00
6.650597e+00
6.683966e+00
6.731962e+00
6.711384e+00
6.582038e+00
6.463022e+00
5.905973e+00
5.835952e+00
5.810398e+00
5.766168e+00
5.742842e+00
5.800487e+00
5.845803e+00
5.891301e+00
6.001271e+00
6.186266e+00
6.401656e+00
6.598698e+00
6.761971e+00
6.873900e+00
6.920973e+00
6.931770e+00
4.107639e+00
3.985549e+00
3.988676e+00
3.991947e+00
4.004805e+00
4.177963e+00
4.357329e+00
4.570349e+00
4.951731e+00
5.496074e+00
6.063850e+00
6.514581e+00
6.812706e+00
6.992500e+00
7.089396e+00
7.129140e+00
2.644585e+00
2.521678e+00
2.599259e+00
2.658889e+00
2.727519e+00
3.004088e+00
3.295805e+00
3.650806e+00
4.244290e+00
5.052137e+00
5.862590e+00
6.476551e+00
6.851959e+00
7.055248e+00
7.155925e+00
7.196829e+00


-5.966719e-01
-2.218978e-01
-2.350822e-01
-2.707721e-01
-1.717520e-01
-1.988139e-01
-2.095068e-01
-1.770673e-01
-1.709197e-01
-1.928117e-01
-2.171032e-01
-1.919488e-01
-7.116628e-02
1.787045e-01
5.190099e-01
-6.405344e-01
5.462498e-01
4.100349e-01
3.306837e-01
2.704765e-01
3.080390e-01
2.808823e-01
2.642324e-01
2.737715e-01
2.771172e-01
2.840596e-01
3.215005e-01
4.256617e-01
6.115153e-01
8.214971e-01
7.444060e-01
-1.238720e+00
8.191470e-01
6.779032e-01
5.418390e-01
4.880852e-01
4.779624e-01
4.539044e-01
4.429602e-01
4.443185e-01
4.497224e-01
4.657598e-01
5.003847e-01
5.506481e-01
5.701385e-01
4.598729e-01
1.775335e-01
-3.277770e-01
8.760237e-01
7.529921e-01
6.096894e-01
5.318828e-01
4.956386e-01
4.769558e-01
4.697017e-01
4.684711e-01
4.643716e-01
4.477802e-01
4.097340e-01
3.347796e-01
1.943855e-01
1.593282e-02
-1.296843e-03
8.073264e-02
8.767946e-01
7.538201e-01
6.100641e-01
5.303813e-01
4.903352e-01
4.642475e-01
4.452679e-01
4.264317e-01
3.931474e-01
3.307219e-01
2.343369e-01
1.122152e-01
-3.777629e-03
-1.431755e-02
1.839030e-01
5.089648e-01
8.210110e-01
6.800025e-01
5.432205e-01
4.863833e-01
4.692928e-01
4.308729e-01
3.969233e-01
3.621560e-01
3.032139e-01
2.179183e-01
1.268693e-01
6.727525e-02
8.947907e-02
2.476078e-01
5.306852e-01
8.330032e-01
5.476878e-01
4.116135e-01
3.318418e-01
2.711631e-01
3.056891e-01
2.705406e-01
2.440949e-01
2.363794e-01
1.955986e-01
1.361543e-01
1.201139e-01
1.945103e-01
3.577828e-01
5.860181e-01
8.203203e-01
9.706261e-01
-5.983174e-01
-2.237558e-01
-2.375312e-01
-2.712770e-01
-1.703558e-01
-1.969363e-01
-1.958368e-01
-1.452430e-01
-1.337853e-01
-1.190299e-01
1.673709e-02
3.030455e-01
6.242804e-01
8.586626e-01
9.721950e-01
9.994580e-01
1 2 19 18
2 3 20 19
3 4 21 20
4 5 22 21
5 6 23 22
6 7 24 23
7 8 25 24
8 9 26 25
9 10 27 26
10 11 28 27
11 12 29 28
12 13 30 29
13 14 31 30
14 15 32 31
15 16 33 32
16 17 34 33
18 19 36 35
19 20 37 36
20 21 38 37
21 22 39 38
22 23 40 39
23 24 41 40
24 25 42 41
25 26 43 42
26 27 44 43
27 28 45 44
28 29 46 45
29 30 47 46
30 31 48 47
31 32 49 48
32 33 50 49
33 34 51 50
35 36 53 52
36 37 54 53
37 38 55 54
38 39 56 55
39 40 57 56
40 41 58 57
41 42 59 58
42 43 60 59
43 44 61 60
44 45 62 61
45 46 63 62
46 47 64 63
47 48 65 64
48 49 66 65
49 50 67 66
50 51 68 67
52 53 70 69
53 54 71 70
54 55 72 71
55 56 73 72
56 57 74 73
57 58 75 74
58 59 76 75
59 60 77 76
60 61 78 77
61 62 79 78
62 63 80 79
63 64 81 80
64 65 82 81
65 66 83 82
66 67 84 83
67 68 85 84
69 70 87 86
70 71 88 87
71 72 89 88
72 73 90 89
73 74 91 90
74 75 92 91
75 76 93 92
76 77 94 93
77 78 95 94
78 79 96 95
79 80 97 96
80 81 98 97
81 82 99 98
82 83 100 99
83 84 101 100
84 85 102 101
86 87 104 103
87 88 105 104
88 89 106 105
89 90 107 106
90 91 108 107
91 92 109 108
92 93 110 109
93 94 111 110
94 95 112 111
95 96 113 112
96 97 114 113
97 98 115 114
98 99 116 115
99 100 117 116
100 101 118 117
101 102 119 118
103 104 121 120
104 105 122 121
105 106 123 122
106 107 124 123
107 108 125 124
108 109 126 125
109 110 127 126
110 111 128 127
111 112 129 128
112 113 130 129
113 114 131 130
114 115 132 131
115 116 133 132
116 117 134 133
117 118 135 134
118 119 136 135
120 121 138 137
121 122 139 138
122 123 140 139
123 124 141 140
124 125 142 141
125 126 143 142
126 127 144 143
127 128 145 144
128 129 146 145
129 130 147 146
130 131 148 147
131 132 149 148
132 133 150 149
133 134 151 150
134 135 152 151
135 136 153 152
