TITLE = "Solution"
VARIABLES = x, y, u, v, psiu, psiv, t, stress
ZONE T="structure" N=561 E=512 F=FEBLOCK ET=QUADRILATERAL VARLOCATION=([7,8]=cellcentered)
0.000000e+00
6.250000e+00
1.250000e+01
1.875000e+01
2.500000e+01
3.125000e+01
3.750000e+01
4.375000e+01
5.000000e+01
5.625000e+01
6.250000e+01
6.875000e+01
7.500000e+01
8.125000e+01
8.750000e+01
9.375000e+01
1.000000e+02
1.062500e+02
1.125000e+02
1.187500e+02
1.250000e+02
1.312500e+02
1.375000e+02
1.437500e+02
1.500000e+02
1.562500e+02
1.625000e+02
1.687500e+02
1.750000e+02
1.812500e+02
1.875000e+02
1.937500e+02
2.000000e+02
0.000000e+00
6.250000e+00
1.250000e+01
1.875000e+01
2.500000e+01
3.125000e+01
3.750000e+01
4.375000e+01
5.000000e+01
5.625000e+01
6.250000e+01
6.875000e+01
7.500000e+01
8.125000e+01
8.750000e+01
9.375000e+01
1.000000e+02
1.062500e+02
1.125000e+02
1.187500e+02
1.250000e+02
1.312500e+02
1.375000e+02
1.437500e+02
1.500000e+02
1.562500e+02
1.625000e+02
1.687500e+02
1.750000e+02
1.812500e+02
1.875000e+02
1.937500e+02
2.000000e+02
0.000000e+00
6.250000e+00
1.250000e+01
1.875000e+01
2.500000e+01
3.125000e+01
3.750000e+01
4.375000e+01
5.000000e+01
5.625000e+01
6.250000e+01
6.875000e+01
7.500000e+01
8.125000e+01
8.750000e+01
9.375000e+01
1.000000e+02
1.062500e+02
1.125000e+02
1.187500e+02
1.250000e+02
1.312500e+02
1.375000e+02
1.437500e+02
1.500000e+02
1.562500e+02
1.625000e+02
1.687500e+02
1.750000e+02
1.812500e+02
1.875000e+02
1.937500e+02
2.000000e+02
0.000000e+00
6.250000e+00
1.250000e+01
1.875000e+01
2.500000e+01
3.125000e+01
3.750000e+01
4.375000e+01
5.000000e+01
5.625000e+01
6.250000e+01
6.875000e+01
7.500000e+01
8.125000e+01
8.750000e+01
9.375000e+01
1.000000e+02
1.062500e+02
1.125000e+02
1.187500e+02
1.250000e+02
1.312500e+02
1.375000e+02
1.437500e+02
1.500000e+02
1.562500e+02
1.625000e+02
1.687500e+02
1.750000e+02
1.812500e+02
1.875000e+02
1.937500e+02
2.000000e+02
0.000000e+00
6.250000e+00
1.250000e+01
1.875000e+01
2.500000e+01
3.125000e+01
3.750000e+01
4.375000e+01
5.000000e+01
5.625000e+01
6.250000e+01
6.875000e+01
7.500000e+01
8.125000e+01
8.750000e+01
9.375000e+01
1.000000e+02
1.062500e+02
1.125000e+02
1.187500e+02
1.250000e+02
1.312500e+02
1.375000e+02
1.437500e+02
1.500000e+02
1.562500e+02
1.625000e+02
1.687500e+02
1.750000e+02
1.812500e+02
1.875000e+02
1.937500e+02
2.000000e+02
0.000000e+00
6.250000e+00
1.250000e+01
1.875000e+01
2.500000e+01
3.125000e+01
3.750000e+01
4.375000e+01
5.000000e+01
5.625000e+01
6.250000e+01
6.875000e+01
7.500000e+01
8.125000e+01
8.750000e+01
9.375000e+01
1.000000e+02
1.062500e+02
1.125000e+02
1.187500e+02
1.250000e+02
1.312500e+02
1.375000e+02
1.437500e+02
1.500000e+02
1.562500e+02
1.625000e+02
1.687500e+02
1.750000e+02
1.812500e+02
1.875000e+02
1.937500e+02
2.000000e+02
0.000000e+00
6.250000e+00
1.250000e+01
1.875000e+01
2.500000e+01
3.125000e+01
3.750000e+01
4.375000e+01
5.000000e+01
5.625000e+01
6.250000e+01
6.875000e+01
7.500000e+01
8.125000e+01
8.750000e+01
9.375000e+01
1.000000e+02
1.062500e+02
1.125000e+02
1.187500e+02
1.250000e+02
1.312500e+02
1.375000e+02
1.437500e+02
1.500000e+02
1.562500e+02
1.625000e+02
1.687500e+02
1.750000e+02
1.812500e+02
1.875000e+02
1.937500e+02
2.000000e+02
0.000000e+00
6.250000e+00
1.250000e+01
1.875000e+01
2.500000e+01
3.125000e+01
3.750000e+01
4.375000e+01
5.000000e+01
5.625000e+01
6.250000e+01
6.875000e+01
7.500000e+01
8.125000e+01
8.750000e+01
9.375000e+01
1.000000e+02
1.062500e+02
1.125000e+02
1.187500e+02
1.250000e+02
1.312500e+02
1.375000e+02
1.437500e+02
1.500000e+02
1.562500e+02
1.625000e+02
1.687500e+02
1.750000e+02
1.812500e+02
1.875000e+02
1.937500e+02
2.000000e+02
0.000000e+00
6.250000e+00
1.250000e+01
1.875000e+01
2.500000e+01
3.125000e+01
3.750000e+01
4.375000e+01
5.000000e+01
5.625000e+01
6.250000e+01
6.875000e+01
7.500000e+01
8.125000e+01
8.750000e+01
9.375000e+01
1.000000e+02
1.062500e+02
1.125000e+02
1.187500e+02
1.250000e+02
1.312500e+02
1.375000e+02
1.437500e+02
1.500000e+02
1.562500e+02
1.625000e+02
1.687500e+02
1.750000e+02
1.812500e+02
1.875000e+02
1.937500e+02
2.000000e+02
0.000000e+00
6.250000e+00
1.250000e+01
1.875000e+01
2.500000e+01
3.125000e+01
3.750000e+01
4.375000e+01
5.000000e+01
5.625000e+01
6.250000e+01
6.875000e+01
7.500000e+01
8.125000e+01
8.750000e+01
9.375000e+01
1.000000e+02
1.062500e+02
1.125000e+02
1.187500e+02
1.250000e+02
1.312500e+02
1.375000e+02
1.437500e+02
1.500000e+02
1.562500e+02
1.625000e+02
1.687500e+02
1.750000e+02
1.812500e+02
1.875000e+02
1.937500e+02
2.000000e+02
0.000000e+00
6.250000e+00
1.250000e+01
1.875000e+01
2.500000e+01
3.125000e+01
3.750000e+01
4.375000e+01
5.000000e+01
5.625000e+01
6.250000e+01
6.875000e+01
7.500000e+01
8.125000e+01
8.750000e+01
9.375000e+01
1.000000e+02
1.062500e+02
1.125000e+02
1.187500e+02
1.250000e+02
1.312500e+02
1.375000e+02
1.437500e+02
1.500000e+02
1.562500e+02
1.625000e+02
1.687500e+02
1.750000e+02
1.812500e+02
1.875000e+02
1.937500e+02
2.000000e+02
0.000000e+00
6.250000e+00
1.250000e+01
1.875000e+01
2.500000e+01
3.125000e+01
3.750000e+01
4.375000e+01
5.000000e+01
5.625000e+01
6.250000e+01
6.875000e+01
7.500000e+01
8.125000e+01
8.750000e+01
9.375000e+01
1.000000e+02
1.062500e+02
1.125000e+02
1.187500e+02
1.250000e+02
1.312500e+02
1.375000e+02
1.437500e+02
1.500000e+02
1.562500e+02
1.625000e+02
1.687500e+02
1.750000e+02
1.812500e+02
1.875000e+02
1.937500e+02
2.000000e+02
0.000000e+00
6.250000e+00
1.250000e+01
1.875000e+01
2.500000e+01
3.125000e+01
3.750000e+01
4.375000e+01
5.000000e+01
5.625000e+01
6.250000e+01
6.875000e+01
7.500000e+01
8.125000e+01
8.750000e+01
9.375000e+01
1.000000e+02
1.062500e+02
1.125000e+02
1.187500e+02
1.250000e+02
1.312500e+02
1.375000e+02
1.437500e+02
1.500000e+02
1.562500e+02
1.625000e+02
1.687500e+02
1.750000e+02
1.812500e+02
1.875000e+02
1.937500e+02
2.000000e+02
0.000000e+00
6.250000e+00
1.250000e+01
1.875000e+01
2.500000e+01
3.125000e+01
3.750000e+01
4.375000e+01
5.000000e+01
5.625000e+01
6.250000e+01
6.875000e+01
7.500000e+01
8.125000e+01
8.750000e+01
9.375000e+01
1.000000e+02
1.062500e+02
1.125000e+02
1.187500e+02
1.250000e+02
1.312500e+02
1.375000e+02
1.437500e+02
1.500000e+02
1.562500e+02
1.625000e+02
1.687500e+02
1.750000e+02
1.812500e+02
1.875000e+02
1.937500e+02
2.000000e+02
0.000000e+00
6.250000e+00
1.250000e+01
1.875000e+01
2.500000e+01
3.125000e+01
3.750000e+01
4.375000e+01
5.000000e+01
5.625000e+01
6.250000e+01
6.875000e+01
7.500000e+01
8.125000e+01
8.750000e+01
9.375000e+01
1.000000e+02
1.062500e+02
1.125000e+02
1.187500e+02
1.250000e+02
1.312500e+02
1.375000e+02
1.437500e+02
1.500000e+02
1.562500e+02
1.625000e+02
1.687500e+02
1.750000e+02
1.812500e+02
1.875000e+02
1.937500e+02
2.000000e+02
0.000000e+00
6.250000e+00
1.250000e+01
1.875000e+01
2.500000e+01
3.125000e+01
3.750000e+01
4.375000e+01
5.000000e+01
5.625000e+01
6.250000e+01
6.875000e+01
7.500000e+01
8.125000e+01
8.750000e+01
9.375000e+01
1.000000e+02
1.062500e+02
1.125000e+02
1.187500e+02
1.250000e+02
1.312500e+02
1.375000e+02
1.437500e+02
1.500000e+02
1.562500e+02
1.625000e+02
1.687500e+02
1.750000e+02
1.812500e+02
1.875000e+02
1.937500e+02
2.000000e+02
0.000000e+00
6.250000e+00
1.250000e+01
1.875000e+01
2.500000e+01
3.125000e+01
3.750000e+01
4.375000e+01
5.000000e+01
5.625000e+01
6.250000e+01
6.875000e+01
7.500000e+01
8.125000e+01
8.750000e+01
9.375000e+01
1.000000e+02
1.062500e+02
1.125000e+02
1.187500e+02
1.250000e+02
1.312500e+02
1.375000e+02
1.437500e+02
1.500000e+02
1.562500e+02
1.625000e+02
1.687500e+02
1.750000e+02
1.812500e+02
1.875000e+02
1.937500e+02
2.000000e+02
0.000000e+00
0.000000e+00
0.000000e+00
0.000000e+00
0.000000e+00
0.000000e+00
0.000000e+00
0.000000e+00
0.000000e+00
0.000000e+00
0.000000e+00
0.000000e+00
0.000000e+00
0.000000e+00
0.000000e+00
0.000000e+00
0.000000e+00
0.000000e+00
0.000000e+00
0.000000e+00
0.000000e+00
0.000000e+00
0.000000e+00
0.000000e+00
0.000000e+00
0.000000e+00
0.000000e+00
0.000000e+00
0.000000e+00
0.000000e+00
0.000000e+00
0.000000e+00
0.000000e+00
6.250000e+00
6.250000e+00
6.250000e+00
6.250000e+00
6.250000e+00
6.250000e+00
6.250000e+00
6.250000e+00
6.250000e+00
6.250000e+00
6.250000e+00
6.250000e+00
6.250000e+00
6.250000e+00
6.250000e+00
6.250000e+00
6.250000e+00
6.250000e+00
6.250000e+00
6.250000e+00
6.250000e+00
6.250000e+00
6.250000e+00
6.250000e+00
6.250000e+00
6.250000e+00
6.250000e+00
6.250000e+00
6.250000e+00
6.250000e+00
6.250000e+00
6.250000e+00
6.250000e+00
1.250000e+01
1.250000e+01
1.250000e+01
1.250000e+01
1.250000e+01
1.250000e+01
1.250000e+01
1.250000e+01
1.250000e+01
1.250000e+01
1.250000e+01
1.250000e+01
1.250000e+01
1.250000e+01
1.250000e+01
1.250000e+01
1.250000e+01
1.250000e+01
1.250000e+01
1.250000e+01
1.250000e+01
1.250000e+01
1.250000e+01
1.250000e+01
1.250000e+01
1.250000e+01
1.250000e+01
1.250000e+01
1.250000e+01
1.250000e+01
1.250000e+01
1.250000e+01
1.250000e+01
1.875000e+01
1.875000e+01
1.875000e+01
1.875000e+01
1.875000e+01
1.875000e+01
1.875000e+01
1.875000e+01
1.875000e+01
1.875000e+01
1.875000e+01
1.875000e+01
1.875000e+01
1.875000e+01
1.875000e+01
1.875000e+01
1.875000e+01
1.875000e+01
1.875000e+01
1.875000e+01
1.875000e+01
1.875000e+01
1.875000e+01
1.875000e+01
1.875000e+01
1.875000e+01
1.875000e+01
1.875000e+01
1.875000e+01
1.875000e+01
1.875000e+01
1.875000e+01
1.875000e+01
2.500000e+01
2.500000e+01
2.500000e+01
2.500000e+01
2.500000e+01
2.500000e+01
2.500000e+01
2.500000e+01
2.500000e+01
2.500000e+01
2.500000e+01
2.500000e+01
2.500000e+01
2.500000e+01
2.500000e+01
2.500000e+01
2.500000e+01
2.500000e+01
2.500000e+01
2.500000e+01
2.500000e+01
2.500000e+01
2.500000e+01
2.500000e+01
2.500000e+01
2.500000e+01
2.500000e+01
2.500000e+01
2.500000e+01
2.500000e+01
2.500000e+01
2.500000e+01
2.500000e+01
3.125000e+01
3.125000e+01
3.125000e+01
3.125000e+01
3.125000e+01
3.125000e+01
3.125000e+01
3.125000e+01
3.125000e+01
3.125000e+01
3.125000e+01
3.125000e+01
3.125000e+01
3.125000e+01
3.125000e+01
3.125000e+01
3.125000e+01
3.125000e+01
3.125000e+01
3.125000e+01
3.125000e+01
3.125000e+01
3.125000e+01
3.125000e+01
3.125000e+01
3.125000e+01
3.125000e+01
3.125000e+01
3.125000e+01
3.125000e+01
3.125000e+01
3.125000e+01
3.125000e+01
3.750000e+01
3.750000e+01
3.750000e+01
3.750000e+01
3.750000e+01
3.750000e+01
3.750000e+01
3.750000e+01
3.750000e+01
3.750000e+01
3.750000e+01
3.750000e+01
3.750000e+01
3.750000e+01
3.750000e+01
3.750000e+01
3.750000e+01
3.750000e+01
3.750000e+01
3.750000e+01
3.750000e+01
3.750000e+01
3.750000e+01
3.750000e+01
3.750000e+01
3.750000e+01
3.750000e+01
3.750000e+01
3.750000e+01
3.750000e+01
3.750000e+01
3.750000e+01
3.750000e+01
4.375000e+01
4.375000e+01
4.375000e+01
4.375000e+01
4.375000e+01
4.375000e+01
4.375000e+01
4.375000e+01
4.375000e+01
4.375000e+01
4.375000e+01
4.375000e+01
4.375000e+01
4.375000e+01
4.375000e+01
4.375000e+01
4.375000e+01
4.375000e+01
4.375000e+01
4.375000e+01
4.375000e+01
4.375000e+01
4.375000e+01
4.375000e+01
4.375000e+01
4.375000e+01
4.375000e+01
4.375000e+01
4.375000e+01
4.375000e+01
4.375000e+01
4.375000e+01
4.375000e+01
5.000000e+01
5.000000e+01
5.000000e+01
5.000000e+01
5.000000e+01
5.000000e+01
5.000000e+01
5.000000e+01
5.000000e+01
5.000000e+01
5.000000e+01
5.000000e+01
5.000000e+01
5.000000e+01
5.000000e+01
5.000000e+01
5.000000e+01
5.000000e+01
5.000000e+01
5.000000e+01
5.000000e+01
5.000000e+01
5.000000e+01
5.000000e+01
5.000000e+01
5.000000e+01
5.000000e+01
5.000000e+01
5.000000e+01
5.000000e+01
5.000000e+01
5.000000e+01
5.000000e+01
5.625000e+01
5.625000e+01
5.625000e+01
5.625000e+01
5.625000e+01
5.625000e+01
5.625000e+01
5.625000e+01
5.625000e+01
5.625000e+01
5.625000e+01
5.625000e+01
5.625000e+01
5.625000e+01
5.625000e+01
5.625000e+01
5.625000e+01
5.625000e+01
5.625000e+01
5.625000e+01
5.625000e+01
5.625000e+01
5.625000e+01
5.625000e+01
5.625000e+01
5.625000e+01
5.625000e+01
5.625000e+01
5.625000e+01
5.625000e+01
5.625000e+01
5.625000e+01
5.625000e+01
6.250000e+01
6.250000e+01
6.250000e+01
6.250000e+01
6.250000e+01
6.250000e+01
6.250000e+01
6.250000e+01
6.250000e+01
6.250000e+01
6.250000e+01
6.250000e+01
6.250000e+01
6.250000e+01
6.250000e+01
6.250000e+01
6.250000e+01
6.250000e+01
6.250000e+01
6.250000e+01
6.250000e+01
6.250000e+01
6.250000e+01
6.250000e+01
6.250000e+01
6.250000e+01
6.250000e+01
6.250000e+01
6.250000e+01
6.250000e+01
6.250000e+01
6.250000e+01
6.250000e+01
6.875000e+01
6.875000e+01
6.875000e+01
6.875000e+01
6.875000e+01
6.875000e+01
6.875000e+01
6.875000e+01
6.875000e+01
6.875000e+01
6.875000e+01
6.875000e+01
6.875000e+01
6.875000e+01
6.875000e+01
6.875000e+01
6.875000e+01
6.875000e+01
6.875000e+01
6.875000e+01
6.875000e+01
6.875000e+01
6.875000e+01
6.875000e+01
6.875000e+01
6.875000e+01
6.875000e+01
6.875000e+01
6.875000e+01
6.875000e+01
6.875000e+01
6.875000e+01
6.875000e+01
7.500000e+01
7.500000e+01
7.500000e+01
7.500000e+01
7.500000e+01
7.500000e+01
7.500000e+01
7.500000e+01
7.500000e+01
7.500000e+01
7.500000e+01
7.500000e+01
7.500000e+01
7.500000e+01
7.500000e+01
7.500000e+01
7.500000e+01
7.500000e+01
7.500000e+01
7.500000e+01
7.500000e+01
7.500000e+01
7.500000e+01
7.500000e+01
7.500000e+01
7.500000e+01
7.500000e+01
7.500000e+01
7.500000e+01
7.500000e+01
7.500000e+01
7.500000e+01
7.500000e+01
8.125000e+01
8.125000e+01
8.125000e+01
8.125000e+01
8.125000e+01
8.125000e+01
8.125000e+01
8.125000e+01
8.125000e+01
8.125000e+01
8.125000e+01
8.125000e+01
8.125000e+01
8.125000e+01
8.125000e+01
8.125000e+01
8.125000e+01
8.125000e+01
8.125000e+01
8.125000e+01
8.125000e+01
8.125000e+01
8.125000e+01
8.125000e+01
8.125000e+01
8.125000e+01
8.125000e+01
8.125000e+01
8.125000e+01
8.125000e+01
8.125000e+01
8.125000e+01
8.125000e+01
8.750000e+01
8.750000e+01
8.750000e+01
8.750000e+01
8.750000e+01
8.750000e+01
8.750000e+01
8.750000e+01
8.750000e+01
8.750000e+01
8.750000e+01
8.750000e+01
8.750000e+01
8.750000e+01
8.750000e+01
8.750000e+01
8.750000e+01
8.750000e+01
8.750000e+01
8.750000e+01
8.750000e+01
8.750000e+01
8.750000e+01
8.750000e+01
8.750000e+01
8.750000e+01
8.750000e+01
8.750000e+01
8.750000e+01
8.750000e+01
8.750000e+01
8.750000e+01
8.750000e+01
9.375000e+01
9.375000e+01
9.375000e+01
9.375000e+01
9.375000e+01
9.375000e+01
9.375000e+01
9.375000e+01
9.375000e+01
9.375000e+01
9.375000e+01
9.375000e+01
9.375000e+01
9.375000e+01
9.375000e+01
9.375000e+01
9.375000e+01
9.375000e+01
9.375000e+01
9.375000e+01
9.375000e+01
9.375000e+01
9.375000e+01
9.375000e+01
9.375000e+01
9.375000e+01
9.375000e+01
9.375000e+01
9.375000e+01
9.375000e+01
9.375000e+01
9.375000e+01
9.375000e+01
1.000000e+02
1.000000e+02
1.000000e+02
1.000000e+02
1.000000e+02
1.000000e+02
1.000000e+02
1.000000e+02
1.000000e+02
1.000000e+02
1.000000e+02
1.000000e+02
1.000000e+02
1.000000e+02
1.000000e+02
1.000000e+02
1.000000e+02
1.000000e+02
1.000000e+02
1.000000e+02
1.000000e+02
1.000000e+02
1.000000e+02
1.000000e+02
1.000000e+02
1.000000e+02
1.000000e+02
1.000000e+02
1.000000e+02
1.000000e+02
1.000000e+02
1.000000e+02
1.000000e+02
0.000000e+00
-4.044285e-02
-7.337817e-02
-1.038881e-01
-1.331690e-01
-1.614442e-01
-1.887704e-01
-2.151452e-01
-2.405520e-01
-2.649723e-01
-2.883908e-01
-3.107969e-01
-3.321852e-01
-3.525553e-01
-3.719119e-01
-3.902651e-01
-4.076315e-01
-4.240349e-01
-4.395083e-01
-4.540962e-01
-4.678580e-01
-4.808720e-01
-4.932420e-01
-5.051054e-01
-5.166466e-01
-5.281160e-01
-5.398614e-01
-5.523788e-01
-5.663958e-01
-5.829832e-01
-6.035301e-01
-6.280163e-01
-6.429599e-01
0.000000e+00
-2.711584e-02
-5.641743e-02
-8.404495e-02
-1.103038e-01
-1.354441e-01
-1.595986e-01
-1.828255e-01
-2.051480e-01
-2.265734e-01
-2.471033e-01
-2.667377e-01
-2.854775e-01
-3.033257e-01
-3.202883e-01
-3.363747e-01
-3.515986e-01
-3.659788e-01
-3.795402e-01
-3.923152e-01
-4.043450e-01
-4.156818e-01
-4.263900e-01
-4.365486e-01
-4.462522e-01
-4.556093e-01
-4.647346e-01
-4.737224e-01
-4.825722e-01
-4.909961e-01
-4.980154e-01
-5.021192e-01
-5.078325e-01
0.000000e+00
-2.150835e-02
-4.428012e-02
-6.746539e-02
-8.999431e-02
-1.116930e-01
-1.325476e-01
-1.525778e-01
-1.718014e-01
-1.902305e-01
-2.078729e-01
-2.247342e-01
-2.408189e-01
-2.561318e-01
-2.706787e-01
-2.844665e-01
-2.975043e-01
-3.098032e-01
-3.213771e-01
-3.322425e-01
-3.424184e-01
-3.519254e-01
-3.607837e-01
-3.690091e-01
-3.766048e-01
-3.835464e-01
-3.897546e-01
-3.950465e-01
-3.990644e-01
-4.012279e-01
-4.010382e-01
-3.998233e-01
-4.064948e-01
0.000000e+00
-1.706497e-02
-3.507241e-02
-5.357280e-02
-7.202983e-02
-9.003979e-02
-1.074484e-01
-1.242005e-01
-1.402809e-01
-1.556891e-01
-1.704290e-01
-1.845055e-01
-1.979235e-01
-2.106870e-01
-2.228000e-01
-2.342657e-01
-2.450874e-01
-2.552678e-01
-2.648090e-01
-2.737116e-01
-2.819732e-01
-2.895863e-01
-2.965341e-01
-3.027842e-01
-3.082789e-01
-3.129211e-01
-3.165573e-01
-3.189653e-01
-3.198847e-01
-3.192022e-01
-3.175445e-01
-3.174455e-01
-3.238018e-01
0.000000e+00
-1.324480e-02
-2.712083e-02
-4.144013e-02
-5.587576e-02
-7.013433e-02
-8.401911e-02
-9.743050e-02
-1.103232e-01
-1.226798e-01
-1.344957e-01
-1.457717e-01
-1.565096e-01
-1.667115e-01
-1.763780e-01
-1.855081e-01
-1.940991e-01
-2.021457e-01
-2.096397e-01
-2.165685e-01
-2.229135e-01
-2.286475e-01
-2.337314e-01
-2.381093e-01
-2.417038e-01
-2.444132e-01
-2.461182e-01
-2.467163e-01
-2.462256e-01
-2.450250e-01
-2.442461e-01
-2.460448e-01
-2.514670e-01
0.000000e+00
-9.734157e-03
-1.988536e-02
-3.036270e-02
-4.098512e-02
-5.155434e-02
-6.191296e-02
-7.195864e-02
-8.163522e-02
-9.091541e-02
-9.978766e-02
-1.082479e-01
-1.162948e-01
-1.239267e-01
-1.311409e-01
-1.379323e-01
-1.442926e-01
-1.502104e-01
-1.556696e-01
-1.606489e-01
-1.651202e-01
-1.690472e-01
-1.723841e-01
-1.750749e-01
-1.770558e-01
-1.782644e-01
-1.786654e-01
-1.783056e-01
-1.774186e-01
-1.765748e-01
-1.767802e-01
-1.790732e-01
-1.835597e-01
0.000000e+00
-6.406245e-03
-1.306589e-02
-1.993679e-02
-2.692098e-02
-3.390089e-02
-4.077126e-02
-4.745536e-02
-5.390517e-02
-6.009420e-02
-6.600906e-02
-7.164302e-02
-7.699177e-02
-8.205084e-02
-8.681415e-02
-9.127296e-02
-9.541526e-02
-9.922513e-02
-1.026821e-01
-1.057608e-01
-1.084302e-01
-1.106541e-01
-1.123921e-01
-1.136032e-01
-1.142540e-01
-1.143347e-01
-1.138898e-01
-1.130664e-01
-1.121780e-01
-1.117473e-01
-1.124193e-01
-1.146517e-01
-1.182733e-01
0.000000e+00
-3.181980e-03
-6.484258e-03
-9.889860e-03
-1.335578e-02
-1.682725e-02
-2.025229e-02
-2.359021e-02
-2.681352e-02
-2.990542e-02
-3.285596e-02
-3.565858e-02
-3.830752e-02
-4.079622e-02
-4.311620e-02
-4.525632e-02
-4.720221e-02
-4.893593e-02
-5.043567e-02
-5.167588e-02
-5.262792e-02
-5.326162e-02
-5.354868e-02
-5.346884e-02
-5.302052e-02
-5.223793e-02
-5.121578e-02
-5.013877e-02
-4.930270e-02
-4.909326e-02
-4.988160e-02
-5.182911e-02
-5.470275e-02
0.000000e+00
-5.133807e-06
-1.113156e-05
-1.766099e-05
-2.437865e-05
-3.082145e-05
-3.629150e-05
-3.972826e-05
-3.955913e-05
-3.351963e-05
-1.843630e-05
1.003150e-05
5.769049e-05
1.321464e-04
2.431552e-04
4.029619e-04
6.265747e-04
9.318894e-04
1.339530e-03
1.872201e-03
2.553247e-03
3.403972e-03
4.439135e-03
5.659859e-03
7.043275e-03
8.528785e-03
1.000265e-02
1.128673e-02
1.214391e-02
1.231775e-02
1.161782e-02
1.003271e-02
7.812683e-03
0.000000e+00
3.172311e-03
6.463249e-03
9.856460e-03
1.330956e-02
1.676866e-02
2.018304e-02
2.351401e-02
2.673699e-02
2.983944e-02
3.281735e-02
3.567229e-02
3.840944e-02
4.103656e-02
4.356357e-02
4.600247e-02
4.836736e-02
5.067429e-02
5.294085e-02
5.518516e-02
5.742398e-02
5.966965e-02
6.192535e-02
6.417858e-02
6.639270e-02
6.849785e-02
7.038382e-02
7.190071e-02
7.287535e-02
7.315129e-02
7.265155e-02
7.144742e-02
6.979972e-02
0.000000e+00
6.398346e-03
1.304860e-02
1.990912e-02
2.688239e-02
3.385151e-02
4.071222e-02
4.738935e-02
5.383722e-02
6.003274e-02
6.596731e-02
7.164081e-02
7.705783e-02
8.222566e-02
8.715337e-02
9.185147e-02
9.633170e-02
1.006069e-01
1.046902e-01
1.085944e-01
1.123295e-01
1.159004e-01
1.193020e-01
1.225149e-01
1.254986e-01
1.281869e-01
1.304865e-01
1.322825e-01
1.334580e-01
1.339280e-01
1.336863e-01
1.328531e-01
1.317031e-01
0.000000e+00
9.729118e-03
1.987414e-02
3.034441e-02
4.095916e-02
5.152046e-02
6.187150e-02
7.191092e-02
8.158401e-02
9.086559e-02
9.974719e-02
1.082290e-01
1.163154e-01
1.240126e-01
1.313279e-01
1.382691e-01
1.448443e-01
1.510619e-01
1.569299e-01
1.624549e-01
1.676410e-01
1.724869e-01
1.769831e-01
1.811086e-01
1.848268e-01
1.880837e-01
1.908091e-01
1.929243e-01
1.943588e-01
1.950775e-01
1.951180e-01
1.946292e-01
1.939024e-01
0.000000e+00
1.324355e-02
2.711770e-02
4.143453e-02
5.586710e-02
7.012212e-02
8.400304e-02
9.741053e-02
1.102997e-01
1.226539e-01
1.344694e-01
1.457482e-01
1.564945e-01
1.667127e-01
1.764072e-01
1.855818e-01
1.942401e-01
2.023849e-01
2.100181e-01
2.171401e-01
2.237487e-01
2.298380e-01
2.353961e-01
2.404039e-01
2.448332e-01
2.486468e-01
2.518011e-01
2.542526e-01
2.559707e-01
2.569578e-01
2.572780e-01
2.570945e-01
2.567116e-01
0.000000e+00
1.706814e-02
3.507885e-02
5.358238e-02
7.204229e-02
9.005476e-02
1.074654e-01
1.242186e-01
1.402988e-01
1.557046e-01
1.704387e-01
1.845046e-01
1.979048e-01
2.106409e-01
2.227132e-01
2.341205e-01
2.448609e-01
2.549306e-01
2.643249e-01
2.730370e-01
2.810582e-01
2.883772e-01
2.949801e-01
3.008504e-01
3.059692e-01
3.103174e-01
3.138787e-01
3.166451e-01
3.186249e-01
3.198553e-01
3.204213e-01
3.204888e-01
3.203618e-01
0.000000e+00
2.151609e-02
4.429664e-02
6.749127e-02
9.003002e-02
1.117390e-01
1.326039e-01
1.526438e-01
1.718753e-01
1.903084e-01
2.079481e-01
2.247959e-01
2.408506e-01
2.561092e-01
2.705669e-01
2.842171e-01
2.970514e-01
3.090594e-01
3.202284e-01
3.305434e-01
3.399876e-01
3.485426e-01
3.561897e-01
3.629119e-01
3.686965e-01
3.735389e-01
3.774480e-01
3.804513e-01
3.826008e-01
3.839774e-01
3.846980e-01
3.849327e-01
3.849607e-01
0.000000e+00
2.712746e-02
5.644281e-02
8.408578e-02
1.103621e-01
1.355218e-01
1.596975e-01
1.829465e-01
2.052905e-01
2.267347e-01
2.472767e-01
2.669108e-01
2.856297e-01
3.034247e-01
3.202857e-01
3.362008e-01
3.511554e-01
3.651320e-01
3.781095e-01
3.900635e-01
4.009663e-01
4.107887e-01
4.195016e-01
4.270801e-01
4.335084e-01
4.387868e-01
4.429404e-01
4.460276e-01
4.481483e-01
4.494477e-01
4.501116e-01
4.503523e-01
4.504113e-01
0.000000e+00
4.045557e-02
7.340785e-02
1.039389e-01
1.332451e-01
1.615497e-01
1.889096e-01
2.153222e-01
2.407700e-01
2.652326e-01
2.886913e-01
3.111296e-01
3.325332e-01
3.528883e-01
3.721809e-01
3.903947e-01
4.075105e-01
4.235043e-01
4.383469e-01
4.520032e-01
4.644321e-01
4.755878e-01
4.854224e-01
4.938909e-01
5.009583e-01
5.066102e-01
5.108669e-01
5.137994e-01
5.155472e-01
5.163348e-01
5.164779e-01
5.163594e-01
5.162926e-01
0.000000e+00
-2.499291e-02
-4.361802e-02
-6.394250e-02
-8.657501e-02
-1.121407e-01
-1.408172e-01
-1.726544e-01
-2.076206e-01
-2.456408e-01
-2.866142e-01
-3.304250e-01
-3.769480e-01
-4.260532e-01
-4.776077e-01
-5.314778e-01
-5.875305e-01
-6.456352e-01
-7.056658e-01
-7.675034e-01
-8.310403e-01
-8.961860e-01
-9.628758e-01
-1.031084e+00
-1.100845e+00
-1.172287e+00
-1.245694e+00
-1.321622e+00
-1.401129e+00
-1.486315e+00
-1.581707e+00
-1.697990e+00
-1.858638e+00
0.000000e+00
-1.553214e-02
-3.502772e-02
-5.548930e-02
-7.843728e-02
-1.042807e-01
-1.332359e-01
-1.653517e-01
-2.005993e-01
-2.389037e-01
-2.801635e-01
-3.242619e-01
-3.710728e-01
-4.204649e-01
-4.723041e-01
-5.264555e-01
-5.827844e-01
-6.411583e-01
-7.014485e-01
-7.635333e-01
-8.273011e-01
-8.926568e-01
-9.595298e-01
-1.027887e+00
-1.097753e+00
-1.169245e+00
-1.242633e+00
-1.318453e+00
-1.397744e+00
-1.482568e+00
-1.577223e+00
-1.690918e+00
-1.841004e+00
0.000000e+00
-1.140925e-02
-2.823918e-02
-4.842164e-02
-7.140971e-02
-9.744358e-02
-1.266273e-01
-1.589879e-01
-1.944865e-01
-2.330447e-01
-2.745593e-01
-3.189125e-01
-3.659777e-01
-4.156232e-01
-4.677145e-01
-5.221159e-01
-5.786922e-01
-6.373101e-01
-6.978401e-01
-7.601594e-01
-8.241556e-01
-8.897327e-01
-9.568200e-01
-1.025385e+00
-1.095456e+00
-1.167157e+00
-1.240768e+00
-1.316841e+00
-1.396400e+00
-1.481304e+00
-1.574728e+00
-1.680424e+00
-1.797672e+00
0.000000e+00
-9.136045e-03
-2.391289e-02
-4.301912e-02
-6.571175e-02
-9.173754e-02
-1.210461e-01
-1.535880e-01
-1.892932e-01
-2.280688e-01
-2.698052e-01
-3.143816e-01
-3.616704e-01
-4.115395e-01
-4.638546e-01
-5.184804e-01
-5.752821e-01
-6.341269e-01
-6.948861e-01
-7.574377e-01
-8.216710e-01
-8.874922e-01
-9.548341e-01
-1.023670e+00
-1.094033e+00
-1.166055e+00
-1.240013e+00
-1.316415e+00
-1.396100e+00
-1.480292e+00
-1.570163e+00
-1.664949e+00
-1.753185e+00
0.000000e+00
-7.730597e-03
-2.108365e-02
-3.918269e-02
-6.135803e-02
-8.721318e-02
-1.165328e-01
-1.491804e-01
-1.850382e-01
-2.239889e-01
-2.659108e-01
-3.106774e-01
-3.581589e-01
-4.082228e-01
-4.607353e-01
-5.155620e-01
-5.725695e-01
-6.316264e-01
-6.926058e-01
-7.553879e-01
-8.198643e-01
-8.859441e-01
-9.535630e-01
-1.022696e+00
-1.093374e+00
-1.165712e+00
-1.239937e+00
-1.316414e+00
-1.395625e+00
-1.477959e+00
-1.563023e+00
-1.647694e+00
-1.724538e+00
0.000000e+00
-6.836297e-03
-1.922731e-02
-3.654262e-02
-5.821879e-02
-8.383175e-02
-1.130876e-01
-1.457770e-01
-1.817352e-01
-2.208172e-01
-2.628860e-01
-3.078079e-01
-3.554498e-01
-4.056785e-01
-4.583609e-01
-5.133641e-01
-5.705563e-01
-6.298081e-01
-6.909946e-01
-7.539979e-01
-8.187112e-01
-8.850441e-01
-9.529303e-01
-1.022337e+00
-1.093277e+00
-1.165817e+00
-1.240087e+00
-1.316246e+00
-1.394382e+00
-1.474232e+00
-1.554580e+00
-1.632555e+00
-1.703823e+00
0.000000e+00
-6.280500e-03
-1.805365e-02
-3.482652e-02
-5.611573e-02
-8.150797e-02
-1.106769e-01
-1.433705e-01
-1.793880e-01
-2.185608e-01
-2.607380e-01
-3.057785e-01
-3.535462e-01
-4.039074e-01
-4.567296e-01
-5.118815e-01
-5.692331e-01
-6.286568e-01
-6.900291e-01
-7.532328e-01
-8.181602e-01
-8.847175e-01
-9.528292e-01
-1.022444e+00
-1.093538e+00
-1.166112e+00
-1.240174e+00
-1.315679e+00
-1.392412e+00
-1.469746e+00
-1.546345e+00
-1.619999e+00
-1.688003e+00
0.000000e+00
-5.975081e-03
-1.740240e-02
-3.385947e-02
-5.490980e-02
-8.015439e-02
-1.092564e-01
-1.419428e-01
-1.779924e-01
-2.172214e-01
-2.594695e-01
-3.045909e-01
-3.524475e-01
-4.029056e-01
-4.558337e-01
-5.111019e-01
-5.685818e-01
-6.281469e-01
-6.896741e-01
-7.530450e-01
-8.181481e-01
-8.848812e-01
-9.531534e-01
-1.022886e+00
-1.094009e+00
-1.166450e+00
-1.240101e+00
-1.314762e+00
-1.390034e+00
-1.465177e+00
-1.538985e+00
-1.609795e+00
-1.675762e+00
0.000000e+00
-5.876676e-03
-1.719230e-02
-3.354603e-02
-5.451678e-02
-7.971139e-02
-1.087911e-01
-1.414769e-01
-1.775418e-01
-2.167970e-01
-2.590798e-01
-3.042431e-01
-3.521493e-01
-4.026654e-01
-4.556612e-01
-5.110082e-01
-5.685789e-01
-6.282474e-01
-6.898895e-01
-7.533838e-01
-8.186120e-01
-8.854599e-01
-9.538167e-01
-1.023572e+00
-1.094608e+00
-1.166783e+00
-1.239901e+00
-1.313662e+00
-1.387588e+00
-1.460951e+00
-1.532730e+00
-1.601658e+00
-1.666381e+00
0.000000e+00
-5.972235e-03
-1.739846e-02
-3.385606e-02
-5.490878e-02
-8.015800e-02
-1.092676e-01
-1.419655e-01
-1.780320e-01
-2.172847e-01
-2.595653e-01
-3.047303e-01
-3.526443e-01
-4.031762e-01
-4.561976e-01
-5.115809e-01
-5.691993e-01
-6.289264e-01
-6.906359e-01
-7.542017e-01
-8.194972e-01
-8.863939e-01
-9.547592e-01
-1.024451e+00
-1.095308e+00
-1.167133e+00
-1.239670e+00
-1.312565e+00
-1.385326e+00
-1.457292e+00
-1.527620e+00
-1.595331e+00
-1.659390e+00
0.000000e+00
-6.275038e-03
-1.804607e-02
-3.481997e-02
-5.611367e-02
-8.151476e-02
-1.106982e-01
-1.434139e-01
-1.794637e-01
-2.186819e-01
-2.609214e-01
-3.060456e-01
-3.539233e-01
-4.044263e-01
-4.574277e-01
-5.128008e-01
-5.704190e-01
-6.301546e-01
-6.918786e-01
-7.554595e-01
-8.207613e-01
-8.876412e-01
-9.559458e-01
-1.025504e+00
-1.096120e+00
-1.167554e+00
-1.239514e+00
-1.311624e+00
-1.383414e+00
-1.454305e+00
-1.523613e+00
-1.590585e+00
-1.654427e+00
0.000000e+00
-6.828705e-03
-1.921678e-02
-3.653346e-02
-5.821582e-02
-8.384103e-02
-1.131171e-01
-1.458374e-01
-1.818406e-01
-2.209860e-01
-2.631420e-01
-3.081809e-01
-3.559769e-01
-4.064043e-01
-4.593378e-01
-5.146512e-01
-5.722177e-01
-6.319081e-01
-6.935904e-01
-7.571274e-01
-8.223746e-01
-8.891761e-01
-9.573603e-01
-1.026733e+00
-1.097070e+00
-1.168105e+00
-1.239524e+00
-1.310950e+00
-1.381947e+00
-1.452017e+00
-1.520622e+00
-1.587200e+00
-1.651173e+00
0.000000e+00
-7.721653e-03
-2.107124e-02
-3.917189e-02
-6.135459e-02
-8.722442e-02
-1.165683e-01
-1.492533e-01
-1.851654e-01
-2.241928e-01
-2.662201e-01
-3.111284e-01
-3.587964e-01
-4.091008e-01
-4.619173e-01
-5.171200e-01
-5.745813e-01
-6.341706e-01
-6.957531e-01
-7.591867e-01
-8.243196e-01
-8.909853e-01
-9.589981e-01
-1.028146e+00
-1.098186e+00
-1.168834e+00
-1.239765e+00
-1.310610e+00
-1.380966e+00
-1.450411e+00
-1.518534e+00
-1.584953e+00
-1.649311e+00
0.000000e+00
-9.126853e-03
-2.390016e-02
-4.300814e-02
-6.570881e-02
-9.175074e-02
-1.210862e-01
-1.536693e-01
-1.894347e-01
-2.282951e-01
-2.701481e-01
-3.148811e-01
-3.623758e-01
-4.125105e-01
-4.651610e-01
-5.202014e-01
-5.775034e-01
-6.369350e-01
-6.983589e-01
-7.616296e-01
-8.265897e-01
-8.930653e-01
-9.608611e-01
-1.029754e+00
-1.099488e+00
-1.169770e+00
-1.240270e+00
-1.310629e+00
-1.380471e+00
-1.449437e+00
-1.517221e+00
-1.583611e+00
-1.648500e+00
0.000000e+00
-1.140124e-02
-2.822803e-02
-4.841238e-02
-7.140883e-02
-9.745964e-02
-1.266716e-01
-1.590754e-01
-1.946369e-01
-2.332834e-01
-2.749192e-01
-3.194349e-01
-3.667134e-01
-4.166332e-01
-4.690702e-01
-5.238979e-01
-5.809872e-01
-6.402049e-01
-7.014121e-01
-7.644606e-01
-8.291898e-01
-8.954215e-01
-9.629549e-01
-1.031561e+00
-1.100979e+00
-1.170911e+00
-1.241030e+00
-1.310982e+00
-1.380415e+00
-1.449011e+00
-1.516540e+00
-1.582936e+00
-1.648358e+00
0.000000e+00
-1.552699e-02
-3.502013e-02
-5.548386e-02
-7.844065e-02
-1.043016e-01
-1.332858e-01
-1.654456e-01
-2.007568e-01
-2.391501e-01
-2.805312e-01
-3.247913e-01
-3.718134e-01
-4.214758e-01
-4.736540e-01
-5.282208e-01
-5.850463e-01
-6.439962e-01
-7.049302e-01
-7.676985e-01
-8.321387e-01
-8.980705e-01
-9.652914e-01
-1.033571e+00
-1.102649e+00
-1.172229e+00
-1.241990e+00
-1.311588e+00
-1.380686e+00
-1.448991e+00
-1.516319e+00
-1.582692e+00
-1.648478e+00
0.000000e+00
-2.499218e-02
-4.361549e-02
-6.394298e-02
-8.658522e-02
-1.121694e-01
-1.408759e-01
-1.727579e-01
-2.077881e-01
-2.458969e-01
-2.869901e-01
-3.309591e-01
-3.776871e-01
-4.270522e-01
-4.789295e-01
-5.331910e-01
-5.897058e-01
-6.483384e-01
-7.089468e-01
-7.713798e-01
-8.354734e-01
-9.010463e-01
-9.678959e-01