TITLE = "Solution"
VARIABLES = x, y, u, v, psiu, psiv, t, stress
ZONE T="structure" N=561 E=512 F=FEBLOCK ET=QUADRILATERAL VARLOCATION=([7,8]=cellcentered)
0.000000e+00
6.250000e+00
1.250000e+01
1.875000e+01
2.500000e+01
3.125000e+01
3.750000e+01
4.375000e+01
5.000000e+01
5.625000e+01
6.250000e+01
6.875000e+01
7.500000e+01
8.125000e+01
8.750000e+01
9.375000e+01
1.000000e+02
1.062500e+02
1.125000e+02
1.187500e+02
1.250000e+02
1.312500e+02
1.375000e+02
1.437500e+02
1.500000e+02
1.562500e+02
1.625000e+02
1.687500e+02
1.750000e+02
1.812500e+02
1.875000e+02
1.937500e+02
2.000000e+02
0.000000e+00
6.250000e+00
1.250000e+01
1.875000e+01
2.500000e+01
3.125000e+01
3.750000e+01
4.375000e+01
5.000000e+01
5.625000e+01
6.250000e+01
6.875000e+01
7.500000e+01
8.125000e+01
8.750000e+01
9.375000e+01
1.000000e+02
1.062500e+02
1.125000e+02
1.187500e+02
1.250000e+02
1.312500e+02
1.375000e+02
1.437500e+02
1.500000e+02
1.562500e+02
1.625000e+02
1.687500e+02
1.750000e+02
1.812500e+02
1.875000e+02
1.937500e+02
2.000000e+02
0.000000e+00
6.250000e+00
1.250000e+01
1.875000e+01
2.500000e+01
3.125000e+01
3.750000e+01
4.375000e+01
5.000000e+01
5.625000e+01
6.250000e+01
6.875000e+01
7.500000e+01
8.125000e+01
8.750000e+01
9.375000e+01
1.000000e+02
1.062500e+02
1.125000e+02
1.187500e+02
1.250000e+02
1.312500e+02
1.375000e+02
1.437500e+02
1.500000e+02
1.562500e+02
1.625000e+02
1.687500e+02
1.750000e+02
1.812500e+02
1.875000e+02
1.937500e+02
2.000000e+02
0.000000e+00
6.250000e+00
1.250000e+01
1.875000e+01
2.500000e+01
3.125000e+01
3.750000e+01
4.375000e+01
5.000000e+01
5.625000e+01
6.250000e+01
6.875000e+01
7.500000e+01
8.125000e+01
8.750000e+01
9.375000e+01
1.000000e+02
1.062500e+02
1.125000e+02
1.187500e+02
1.250000e+02
1.312500e+02
1.375000e+02
1.437500e+02
1.500000e+02
1.562500e+02
1.625000e+02
1.687500e+02
1.750000e+02
1.812500e+02
1.875000e+02
1.937500e+02
2.000000e+02
0.000000e+00
6.250000e+00
1.250000e+01
1.875000e+01
2.500000e+01
3.125000e+01
3.750000e+01
4.375000e+01
5.000000e+01
5.625000e+01
6.250000e+01
6.875000e+01
7.500000e+01
8.125000e+01
8.750000e+01
9.375000e+01
1.000000e+02
1.062500e+02
1.125000e+02
1.187500e+02
1.250000e+02
1.312500e+02
1.375000e+02
1.437500e+02
1.500000e+02
1.562500e+02
1.625000e+02
1.687500e+02
1.750000e+02
1.812500e+02
1.875000e+02
1.937500e+02
2.000000e+02
0.000000e+00
6.250000e+00
1.250000e+01
1.875000e+01
2.500000e+01
3.125000e+01
3.750000e+01
4.375000e+01
5.000000e+01
5.625000e+01
6.250000e+01
6.875000e+01
7.500000e+01
8.125000e+01
8.750000e+01
9.375000e+01
1.000000e+02
1.062500e+02
1.125000e+02
1.187500e+02
1.250000e+02
1.312500e+02
1.375000e+02
1.437500e+02
1.500000e+02
1.562500e+02
1.625000e+02
1.687500e+02
1.750000e+02
1.812500e+02
1.875000e+02
1.937500e+02
2.000000e+02
0.000000e+00
6.250000e+00
1.250000e+01
1.875000e+01
2.500000e+01
3.125000e+01
3.750000e+01
4.375000e+01
5.000000e+01
5.625000e+01
6.250000e+01
6.875000e+01
7.500000e+01
8.125000e+01
8.750000e+01
9.375000e+01
1.000000e+02
1.062500e+02
1.125000e+02
1.187500e+02
1.250000e+02
1.312500e+02
1.375000e+02
1.437500e+02
1.500000e+02
1.562500e+02
1.625000e+02
1.687500e+02
1.750000e+02
1.812500e+02
1.875000e+02
1.937500e+02
2.000000e+02
0.000000e+00
6.250000e+00
1.250000e+01
1.875000e+01
2.500000e+01
3.125000e+01
3.750000e+01
4.375000e+01
5.000000e+01
5.625000e+01
6.250000e+01
6.875000e+01
7.500000e+01
8.125000e+01
8.750000e+01
9.375000e+01
1.000000e+02
1.062500e+02
1.125000e+02
1.187500e+02
1.250000e+02
1.312500e+02
1.375000e+02
1.437500e+02
1.500000e+02
1.562500e+02
1.625000e+02
1.687500e+02
1.750000e+02
1.812500e+02
1.875000e+02
1.937500e+02
2.000000e+02
0.000000e+00
6.250000e+00
1.250000e+01
1.875000e+01
2.500000e+01
3.125000e+01
3.750000e+01
4.375000e+01
5.000000e+01
5.625000e+01
6.250000e+01
6.875000e+01
7.500000e+01
8.125000e+01
8.750000e+01
9.375000e+01
1.000000e+02
1.062500e+02
1.125000e+02
1.187500e+02
1.250000e+02
1.312500e+02
1.375000e+02
1.437500e+02
1.500000e+02
1.562500e+02
1.625000e+02
1.687500e+02
1.750000e+02
1.812500e+02
1.875000e+02
1.937500e+02
2.000000e+02
0.000000e+00
6.250000e+00
1.250000e+01
1.875000e+01
2.500000e+01
3.125000e+01
3.750000e+01
4.375000e+01
5.000000e+01
5.625000e+01
6.250000e+01
6.875000e+01
7.500000e+01
8.125000e+01
8.750000e+01
9.375000e+01
1.000000e+02
1.062500e+02
1.125000e+02
1.187500e+02
1.250000e+02
1.312500e+02
1.375000e+02
1.437500e+02
1.500000e+02
1.562500e+02
1.625000e+02
1.687500e+02
1.750000e+02
1.812500e+02
1.875000e+02
1.937500e+02
2.000000e+02
0.000000e+00
6.250000e+00
1.250000e+01
1.875000e+01
2.500000e+01
3.125000e+01
3.750000e+01
4.375000e+01
5.000000e+01
5.625000e+01
6.250000e+01
6.875000e+01
7.500000e+01
8.125000e+01
8.750000e+01
9.375000e+01
1.000000e+02
1.062500e+02
1.125000e+02
1.187500e+02
1.250000e+02
1.312500e+02
1.375000e+02
1.437500e+02
1.500000e+02
1.562500e+02
1.625000e+02
1.687500e+02
1.750000e+02
1.812500e+02
1.875000e+02
1.937500e+02
2.000000e+02
0.000000e+00
6.250000e+00
1.250000e+01
1.875000e+01
2.500000e+01
3.125000e+01
3.750000e+01
4.375000e+01
5.000000e+01
5.625000e+01
6.250000e+01
6.875000e+01
7.500000e+01
8.125000e+01
8.750000e+01
9.375000e+01
1.000000e+02
1.062500e+02
1.125000e+02
1.187500e+02
1.250000e+02
1.312500e+02
1.375000e+02
1.437500e+02
1.500000e+02
1.562500e+02
1.625000e+02
1.687500e+02
1.750000e+02
1.812500e+02
1.875000e+02
1.937500e+02
2.000000e+02
0.000000e+00
6.250000e+00
1.250000e+01
1.875000e+01
2.500000e+01
3.125000e+01
3.750000e+01
4.375000e+01
5.000000e+01
5.625000e+01
6.250000e+01
6.875000e+01
7.500000e+01
8.125000e+01
8.750000e+01
9.375000e+01
1.000000e+02
1.062500e+02
1.125000e+02
1.187500e+02
1.250000e+02
1.312500e+02
1.375000e+02
1.437500e+02
1.500000e+02
1.562500e+02
1.625000e+02
1.687500e+02
1.750000e+02
1.812500e+02
1.875000e+02
1.937500e+02
2.000000e+02
0.000000e+00
6.250000e+00
1.250000e+01
1.875000e+01
2.500000e+01
3.125000e+01
3.750000e+01
4.375000e+01
5.000000e+01
5.625000e+01
6.250000e+01
6.875000e+01
7.500000e+01
8.125000e+01
8.750000e+01
9.375000e+01
1.000000e+02
1.062500e+02
1.125000e+02
1.187500e+02
1.250000e+02
1.312500e+02
1.375000e+02
1.437500e+02
1.500000e+02
1.562500e+02
1.625000e+02
1.687500e+02
1.750000e+02
1.812500e+02
1.875000e+02
1.937500e+02
2.000000e+02
0.000000e+00
6.250000e+00
1.250000e+01
1.875000e+01
2.500000e+01
3.125000e+01
3.750000e+01
4.375000e+01
5.000000e+01
5.625000e+01
6.250000e+01
6.875000e+01
7.500000e+01
8.125000e+01
8.750000e+01
9.375000e+01
1.000000e+02
1.062500e+02
1.125000e+02
1.187500e+02
1.250000e+02
1.312500e+02
1.375000e+02
1.437500e+02
1.500000e+02
1.562500e+02
1.625000e+02
1.687500e+02
1.750000e+02
1.812500e+02
1.875000e+02
1.937500e+02
2.000000e+02
0.000000e+00
6.250000e+00
1.250000e+01
1.875000e+01
2.500000e+01
3.125000e+01
3.750000e+01
4.375000e+01
5.000000e+01
5.625000e+01
6.250000e+01
6.875000e+01
7.500000e+01
8.125000e+01
8.750000e+01
9.375000e+01
1.000000e+02
1.062500e+02
1.125000e+02
1.187500e+02
1.250000e+02
1.312500e+02
1.375000e+02
1.437500e+02
1.500000e+02
1.562500e+02
1.625000e+02
1.687500e+02
1.750000e+02
1.812500e+02
1.875000e+02
1.937500e+02
2.000000e+02
0.000000e+00
6.250000e+00
1.250000e+01
1.875000e+01
2.500000e+01
3.125000e+01
3.750000e+01
4.375000e+01
5.000000e+01
5.625000e+01
6.250000e+01
6.875000e+01
7.500000e+01
8.125000e+01
8.750000e+01
9.375000e+01
1.000000e+02
1.062500e+02
1.125000e+02
1.187500e+02
1.250000e+02
1.312500e+02
1.375000e+02
1.437500e+02
1.500000e+02
1.562500e+02
1.625000e+02
1.687500e+02
1.750000e+02
1.812500e+02
1.875000e+02
1.937500e+02
2.000000e+02
0.000000e+00
0.000000e+00
0.000000e+00
0.000000e+00
0.000000e+00
0.000000e+00
0.000000e+00
0.000000e+00
0.000000e+00
0.000000e+00
0.000000e+00
0.000000e+00
0.000000e+00
0.000000e+00
0.000000e+00
0.000000e+00
0.000000e+00
0.000000e+00
0.000000e+00
0.000000e+00
0.000000e+00
0.000000e+00
0.000000e+00
0.000000e+00
0.000000e+00
0.000000e+00
0.000000e+00
0.000000e+00
0.000000e+00
0.000000e+00
0.000000e+00
0.000000e+00
0.000000e+00
6.250000e+00
6.250000e+00
6.250000e+00
6.250000e+00
6.250000e+00
6.250000e+00
6.250000e+00
6.250000e+00
6.250000e+00
6.250000e+00
6.250000e+00
6.250000e+00
6.250000e+00
6.250000e+00
6.250000e+00
6.250000e+00
6.250000e+00
6.250000e+00
6.250000e+00
6.250000e+00
6.250000e+00
6.250000e+00
6.250000e+00
6.250000e+00
6.250000e+00
6.250000e+00
6.250000e+00
6.250000e+00
6.250000e+00
6.250000e+00
6.250000e+00
6.250000e+00
6.250000e+00
1.250000e+01
1.250000e+01
1.250000e+01
1.250000e+01
1.250000e+01
1.250000e+01
1.250000e+01
1.250000e+01
1.250000e+01
1.250000e+01
1.250000e+01
1.250000e+01
1.250000e+01
1.250000e+01
1.250000e+01
1.250000e+01
1.250000e+01
1.250000e+01
1.250000e+01
1.250000e+01
1.250000e+01
1.250000e+01
1.250000e+01
1.250000e+01
1.250000e+01
1.250000e+01
1.250000e+01
1.250000e+01
1.250000e+01
1.250000e+01
1.250000e+01
1.250000e+01
1.250000e+01
1.875000e+01
1.875000e+01
1.875000e+01
1.875000e+01
1.875000e+01
1.875000e+01
1.875000e+01
1.875000e+01
1.875000e+01
1.875000e+01
1.875000e+01
1.875000e+01
1.875000e+01
1.875000e+01
1.875000e+01
1.875000e+01
1.875000e+01
1.875000e+01
1.875000e+01
1.875000e+01
1.875000e+01
1.875000e+01
1.875000e+01
1.875000e+01
1.875000e+01
1.875000e+01
1.875000e+01
1.875000e+01
1.875000e+01
1.875000e+01
1.875000e+01
1.875000e+01
1.875000e+01
2.500000e+01
2.500000e+01
2.500000e+01
2.500000e+01
2.500000e+01
2.500000e+01
2.500000e+01
2.500000e+01
2.500000e+01
2.500000e+01
2.500000e+01
2.500000e+01
2.500000e+01
2.500000e+01
2.500000e+01
2.500000e+01
2.500000e+01
2.500000e+01
2.500000e+01
2.500000e+01
2.500000e+01
2.500000e+01
2.500000e+01
2.500000e+01
2.500000e+01
2.500000e+01
2.500000e+01
2.500000e+01
2.500000e+01
2.500000e+01
2.500000e+01
2.500000e+01
2.500000e+01
3.125000e+01
3.125000e+01
3.125000e+01
3.125000e+01
3.125000e+01
3.125000e+01
3.125000e+01
3.125000e+01
3.125000e+01
3.125000e+01
3.125000e+01
3.125000e+01
3.125000e+01
3.125000e+01
3.125000e+01
3.125000e+01
3.125000e+01
3.125000e+01
3.125000e+01
3.125000e+01
3.125000e+01
3.125000e+01
3.125000e+01
3.125000e+01
3.125000e+01
3.125000e+01
3.125000e+01
3.125000e+01
3.125000e+01
3.125000e+01
3.125000e+01
3.125000e+01
3.125000e+01
3.750000e+01
3.750000e+01
3.750000e+01
3.750000e+01
3.750000e+01
3.750000e+01
3.750000e+01
3.750000e+01
3.750000e+01
3.750000e+01
3.750000e+01
3.750000e+01
3.750000e+01
3.750000e+01
3.750000e+01
3.750000e+01
3.750000e+01
3.750000e+01
3.750000e+01
3.750000e+01
3.750000e+01
3.750000e+01
3.750000e+01
3.750000e+01
3.750000e+01
3.750000e+01
3.750000e+01
3.750000e+01
3.750000e+01
3.750000e+01
3.750000e+01
3.750000e+01
3.750000e+01
4.375000e+01
4.375000e+01
4.375000e+01
4.375000e+01
4.375000e+01
4.375000e+01
4.375000e+01
4.375000e+01
4.375000e+01
4.375000e+01
4.375000e+01
4.375000e+01
4.375000e+01
4.375000e+01
4.375000e+01
4.375000e+01
4.375000e+01
4.375000e+01
4.375000e+01
4.375000e+01
4.375000e+01
4.375000e+01
4.375000e+01
4.375000e+01
4.375000e+01
4.375000e+01
4.375000e+01
4.375000e+01
4.375000e+01
4.375000e+01
4.375000e+01
4.375000e+01
4.375000e+01
5.000000e+01
5.000000e+01
5.000000e+01
5.000000e+01
5.000000e+01
5.000000e+01
5.000000e+01
5.000000e+01
5.000000e+01
5.000000e+01
5.000000e+01
5.000000e+01
5.000000e+01
5.000000e+01
5.000000e+01
5.000000e+01
5.000000e+01
5.000000e+01
5.000000e+01
5.000000e+01
5.000000e+01
5.000000e+01
5.000000e+01
5.000000e+01
5.000000e+01
5.000000e+01
5.000000e+01
5.000000e+01
5.000000e+01
5.000000e+01
5.000000e+01
5.000000e+01
5.000000e+01
5.625000e+01
5.625000e+01
5.625000e+01
5.625000e+01
5.625000e+01
5.625000e+01
5.625000e+01
5.625000e+01
5.625000e+01
5.625000e+01
5.625000e+01
5.625000e+01
5.625000e+01
5.625000e+01
5.625000e+01
5.625000e+01
5.625000e+01
5.625000e+01
5.625000e+01
5.625000e+01
5.625000e+01
5.625000e+01
5.625000e+01
5.625000e+01
5.625000e+01
5.625000e+01
5.625000e+01
5.625000e+01
5.625000e+01
5.625000e+01
5.625000e+01
5.625000e+01
5.625000e+01
6.250000e+01
6.250000e+01
6.250000e+01
6.250000e+01
6.250000e+01
6.250000e+01
6.250000e+01
6.250000e+01
6.250000e+01
6.250000e+01
6.250000e+01
6.250000e+01
6.250000e+01
6.250000e+01
6.250000e+01
6.250000e+01
6.250000e+01
6.250000e+01
6.250000e+01
6.250000e+01
6.250000e+01
6.250000e+01
6.250000e+01
6.250000e+01
6.250000e+01
6.250000e+01
6.250000e+01
6.250000e+01
6.250000e+01
6.250000e+01
6.250000e+01
6.250000e+01
6.250000e+01
6.875000e+01
6.875000e+01
6.875000e+01
6.875000e+01
6.875000e+01
6.875000e+01
6.875000e+01
6.875000e+01
6.875000e+01
6.875000e+01
6.875000e+01
6.875000e+01
6.875000e+01
6.875000e+01
6.875000e+01
6.875000e+01
6.875000e+01
6.875000e+01
6.875000e+01
6.875000e+01
6.875000e+01
6.875000e+01
6.875000e+01
6.875000e+01
6.875000e+01
6.875000e+01
6.875000e+01
6.875000e+01
6.875000e+01
6.875000e+01
6.875000e+01
6.875000e+01
6.875000e+01
7.500000e+01
7.500000e+01
7.500000e+01
7.500000e+01
7.500000e+01
7.500000e+01
7.500000e+01
7.500000e+01
7.500000e+01
7.500000e+01
7.500000e+01
7.500000e+01
7.500000e+01
7.500000e+01
7.500000e+01
7.500000e+01
7.500000e+01
7.500000e+01
7.500000e+01
7.500000e+01
7.500000e+01
7.500000e+01
7.500000e+01
7.500000e+01
7.500000e+01
7.500000e+01
7.500000e+01
7.500000e+01
7.500000e+01
7.500000e+01
7.500000e+01
7.500000e+01
7.500000e+01
8.125000e+01
8.125000e+01
8.125000e+01
8.125000e+01
8.125000e+01
8.125000e+01
8.125000e+01
8.125000e+01
8.125000e+01
8.125000e+01
8.125000e+01
8.125000e+01
8.125000e+01
8.125000e+01
8.125000e+01
8.125000e+01
8.125000e+01
8.125000e+01
8.125000e+01
8.125000e+01
8.125000e+01
8.125000e+01
8.125000e+01
8.125000e+01
8.125000e+01
8.125000e+01
8.125000e+01
8.125000e+01
8.125000e+01
8.125000e+01
8.125000e+01
8.125000e+01
8.125000e+01
8.750000e+01
8.750000e+01
8.750000e+01
8.750000e+01
8.750000e+01
8.750000e+01
8.750000e+01
8.750000e+01
8.750000e+01
8.750000e+01
8.750000e+01
8.750000e+01
8.750000e+01
8.750000e+01
8.750000e+01
8.750000e+01
8.750000e+01
8.750000e+01
8.750000e+01
8.750000e+01
8.750000e+01
8.750000e+01
8.750000e+01
8.750000e+01
8.750000e+01
8.750000e+01
8.750000e+01
8.750000e+01
8.750000e+01
8.750000e+01
8.750000e+01
8.750000e+01
8.750000e+01
9.375000e+01
9.375000e+01
9.375000e+01
9.375000e+01
9.375000e+01
9.375000e+01
9.375000e+01
9.375000e+01
9.375000e+01
9.375000e+01
9.375000e+01
9.375000e+01
9.375000e+01
9.375000e+01
9.375000e+01
9.375000e+01
9.375000e+01
9.375000e+01
9.375000e+01
9.375000e+01
9.375000e+01
9.375000e+01
9.375000e+01
9.375000e+01
9.375000e+01
9.375000e+01
9.375000e+01
9.375000e+01
9.375000e+01
9.375000e+01
9.375000e+01
9.375000e+01
9.375000e+01
1.000000e+02
1.000000e+02
1.000000e+02
1.000000e+02
1.000000e+02
1.000000e+02
1.000000e+02
1.000000e+02
1.000000e+02
1.000000e+02
1.000000e+02
1.000000e+02
1.000000e+02
1.000000e+02
1.000000e+02
1.000000e+02
1.000000e+02
1.000000e+02
1.000000e+02
1.000000e+02
1.000000e+02
1.000000e+02
1.000000e+02
1.000000e+02
1.000000e+02
1.000000e+02
1.000000e+02
1.000000e+02
1.000000e+02
1.000000e+02
1.000000e+02
1.000000e+02
1.000000e+02
0.000000e+00
-3.856283e-01
-6.902577e-01
-9.898108e-01
-1.294687e+00
-1.588331e+00
-1.883648e+00
-2.180367e+00
-2.474415e+00
-2.767964e+00
-3.061643e+00
-3.354453e+00
-3.646394e+00
-3.937658e+00
-4.228022e+00
-4.517245e+00
-4.805158e+00
-5.091510e+00
-5.375956e+00
-5.658005e+00
-5.936872e+00
-6.211445e+00
-6.480549e+00
-6.743465e+00
-7.000452e+00
-7.253102e+00
-7.504517e+00
-7.759548e+00
-8.025687e+00
-8.314438e+00
-8.632586e+00
-8.961788e+00
-9.149928e+00
0.000000e+00
-2.387942e-01
-4.932567e-01
-7.513463e-01
-1.016702e+00
-1.273266e+00
-1.531359e+00
-1.791118e+00
-2.048642e+00
-2.305567e+00
-2.562569e+00
-2.818778e+00
-3.074139e+00
-3.328836e+00
-3.582689e+00
-3.835476e+00
-4.087034e+00
-4.337125e+00
-4.585408e+00
-4.831386e+00
-5.074246e+00
-5.312770e+00
-5.545492e+00
-5.771067e+00
-5.988643e+00
-6.198058e+00
-6.399778e+00
-6.594587e+00
-6.782387e+00
-6.956470e+00
-7.089300e+00
-7.155709e+00
-7.241783e+00
0.000000e+00
-1.710894e-01
-3.556994e-01
-5.636479e-01
-7.828569e-01
-9.994200e-01
-1.219365e+00
-1.441364e+00
-1.662423e+00
-1.883441e+00
-2.104594e+00
-2.325191e+00
-2.545128e+00
-2.764419e+00
-2.982836e+00
-3.200122e+00
-3.416015e+00
-3.630150e+00
-3.842022e+00
-4.050925e+00
-4.255835e+00
-4.455345e+00
-4.647741e+00
-4.831215e+00
-5.004045e+00
-5.164610e+00
-5.311130e+00
-5.440938e+00
-5.548664e+00
-5.622247e+00
-5.645124e+00
-5.641207e+00
-5.725431e+00
0.000000e+00
-1.289416e-01
-2.678900e-01
-4.268989e-01
-5.985049e-01
-7.741649e-01
-9.550650e-01
-1.138543e+00
-1.322652e+00
-1.507467e+00
-1.692571e+00
-1.877398e+00
-2.061746e+00
-2.245412e+00
-2.428087e+00
-2.609433e+00
-2.789053e+00
-2.966420e+00
-3.140838e+00
-3.311394e+00
-3.476889e+00
-3.635800e+00
-3.786305e+00
-3.926357e+00
-4.053733e+00
-4.165971e+00
-4.260144e+00
-4.332418e+00
-4.377591e+00
-4.390154e+00
-4.377236e+00
-4.380702e+00
-4.456563e+00
0.000000e+00
-1.048418e-01
-2.135139e-01
-3.335135e-01
-4.621360e-01
-5.982191e-01
-7.393526e-01
-8.834693e-01
-1.029524e+00
-1.176727e+00
-1.324400e+00
-1.472083e+00
-1.619419e+00
-1.766052e+00
-1.911613e+00
-2.055687e+00
-2.197767e+00
-2.337210e+00
-2.473204e+00
-2.604727e+00
-2.730516e+00
-2.849042e+00
-2.958504e+00
-3.056844e+00
-3.141762e+00
-3.210718e+00
-3.260955e+00
-3.289722e+00
-3.295325e+00
-3.281140e+00
-3.266990e+00
-3.290819e+00
-3.365925e+00
0.000000e+00
-7.962317e-02
-1.617928e-01
-2.487187e-01
-3.421664e-01
-4.411801e-01
-5.444945e-01
-6.508410e-01
-7.592103e-01
-8.687977e-01
-9.789708e-01
-1.089248e+00
-1.199221e+00
-1.308502e+00
-1.416686e+00
-1.523314e+00
-1.627831e+00
-1.729550e+00
-1.827628e+00
-1.921035e+00
-2.008547e+00
-2.088729e+00
-2.159936e+00
-2.220334e+00
-2.267967e+00
-2.300892e+00
-2.317493e+00
-2.317235e+00
-2.302417e+00
-2.281992e+00
-2.277218e+00
-2.310674e+00
-2.386001e+00
0.000000e+00
-5.338837e-02
-1.081764e-01
-1.656992e-01
-2.267893e-01
-2.914993e-01
-3.591992e-01
-4.291566e-01
-5.006719e-01
-5.731352e-01
-6.460489e-01
-7.190040e-01
-7.916372e-01
-8.635937e-01
-9.344937e-01
-1.003898e+00
-1.071273e+00
-1.135969e+00
-1.197192e+00
-1.254001e+00
-1.305298e+00
-1.349842e+00
-1.386279e+00
-1.413204e+00
-1.429306e+00
-1.433622e+00
-1.426027e+00
-1.408140e+00
-1.384867e+00
-1.366705e+00
-1.369964e+00
-1.407922e+00
-1.478891e+00
0.000000e+00
-2.677854e-02
-5.425220e-02
-8.293200e-02
-1.132235e-01
-1.451932e-01
-1.786377e-01
-2.132096e-01
-2.485445e-01
-2.843061e-01
-3.201986e-01
-3.559591e-01
-3.913364e-01
-4.260688e-01
-4.598597e-01
-4.923530e-01
-5.231092e-01
-5.515854e-01
-5.771211e-01
-5.989368e-01
-6.161473e-01
-6.277974e-01
-6.329291e-01
-6.306984e-01
-6.205670e-01
-6.026160e-01
-5.780394e-01
-5.498767e-01
-5.239527e-01
-5.095258e-01
-5.177249e-01
-5.551880e-01
-6.173201e-01
0.000000e+00
-1.397445e-04
-2.465939e-04
-3.116473e-04
-3.196858e-04
-2.505320e-04
-7.932437e-05
2.243296e-04
6.980852e-04
1.389296e-03
2.358204e-03
3.682040e-03
5.460512e-03
7.823282e-03
1.093992e-02
1.503241e-02
2.038968e-02
2.738183e-02
3.646885e-02
4.819577e-02
6.316433e-02
8.197275e-02
1.051166e-01
1.328425e-01
1.649414e-01
2.004608e-01
2.373276e-01
2.719147e-01
2.987294e-01
3.106994e-01
3.011501e-01
2.679666e-01
2.171105e-01
0.000000e+00
2.649514e-02
5.374780e-02
8.228769e-02
1.125510e-01
1.446441e-01
1.784118e-01
2.135655e-01
2.498144e-01
2.869137e-01
3.246848e-01
3.630135e-01
4.018398e-01
4.411486e-01
4.809633e-01
5.213434e-01
5.623884e-01
6.042455e-01
6.471165e-01
6.912501e-01
7.369043e-01
7.842709e-01
8.333602e-01
8.838552e-01
9.349336e-01
9.850599e-01
1.031767e+00
1.071504e+00
1.099742e+00
1.111672e+00
1.103967e+00
1.077369e+00
1.038463e+00
0.000000e+00
5.309279e-02
1.076376e-01
1.649913e-01
2.260177e-01
2.908061e-01
3.587698e-01
4.292301e-01
5.015542e-01
5.752156e-01
6.498227e-01
7.250992e-01
8.008492e-01
8.769287e-01
9.532244e-01
1.029634e+00
1.106055e+00
1.182382e+00
1.258518e+00
1.334363e+00
1.409779e+00
1.484509e+00
1.558073e+00
1.629659e+00
1.698006e+00
1.761297e+00
1.817080e+00
1.862294e+00
1.893565e+00
1.907983e+00
1.904477e+00
1.885482e+00
1.857926e+00
0.000000e+00
7.930709e-02
1.611968e-01
2.479081e-01
3.412363e-01
4.402547e-01
5.437317e-01
6.504434e-01
7.594355e-01
8.699734e-01
9.815125e-01
1.093679e+00
1.206195e+00
1.318831e+00
1.431374e+00
1.543591e+00
1.655197e+00
1.765844e+00
1.875115e+00
1.982523e+00
2.087469e+00
2.189183e+00
2.286667e+00
2.378665e+00
2.463633e+00
2.539727e+00
2.604794e+00
2.656471e+00
2.692500e+00
2.711392e+00
2.713488e+00
2.702154e+00
2.684604e+00
0.000000e+00
1.044995e-01
2.128532e-01
3.325890e-01
4.610270e-01
5.970219e-01
7.381822e-01
8.824699e-01
1.028881e+00
1.176676e+00
1.325241e+00
1.474192e+00
1.623257e+00
1.772180e+00
1.920699e+00
2.068505e+00
2.215194e+00
2.360225e+00
2.502897e+00
2.642299e+00
2.777271e+00
2.906396e+00
3.028062e+00
3.140562e+00
3.242174e+00
3.331199e+00
3.405972e+00
3.464929e+00
3.506840e+00
3.531296e+00
3.539491e+00
3.535224e+00
3.525921e+00
0.000000e+00
1.286015e-01
2.672227e-01
4.259594e-01
5.973403e-01
7.728293e-01
9.536217e-01
1.137062e+00
1.321220e+00
1.506205e+00
1.691636e+00
1.876982e+00
2.062079e+00
2.246768e+00
2.430766e+00
2.613732e+00
2.795229e+00
2.974643e+00
3.151078e+00
3.323192e+00
3.489113e+00
3.646553e+00
3.793093e+00
3.926500e+00
4.044903e+00
4.146845e+00
4.231247e+00
4.297419e+00
4.345158e+00
4.375024e+00
4.388836e+00
4.390503e+00
4.387376e+00
0.000000e+00
1.708646e-01
3.552594e-01
5.630224e-01
7.820621e-01
9.984597e-01
1.218254e+00
1.440106e+00
1.661013e+00
1.881883e+00
2.102898e+00
2.323360e+00
2.543151e+00
2.762271e+00
2.980449e+00
3.197323e+00
3.412489e+00
3.625389e+00
3.835076e+00
4.039845e+00
4.237014e+00
4.423192e+00
4.594920e+00
4.749272e+00
4.884143e+00
4.998267e+00
5.091137e+00
5.162946e+00
5.214609e+00
5.247834e+00
5.265269e+00
5.270943e+00
5.271584e+00
0.000000e+00
2.387821e-01
4.932289e-01
7.513071e-01
1.016636e+00
1.273147e+00
1.531187e+00
1.790866e+00
2.048254e+00
2.304985e+00
2.561717e+00
2.817535e+00
3.072332e+00
3.326232e+00
3.578951e+00
3.830084e+00
4.079245e+00
4.325920e+00
4.569126e+00
4.806801e+00
5.035440e+00
5.250499e+00
5.447384e+00
5.622349e+00
5.772876e+00
5.897671e+00
5.996564e+00
6.070481e+00
6.121504e+00
6.152901e+00
6.169003e+00
6.174861e+00
6.176287e+00
0.000000e+00
3.858595e-01
6.906854e-01
9.904479e-01
1.295498e+00
1.589290e+00
1.884772e+00
2.181648e+00
2.475818e+00
2.769453e+00
3.063163e+00
3.355896e+00
3.647593e+00
3.938382e+00
4.227918e+00
4.515759e+00
4.801479e+00
5.084451e+00
5.363399e+00
5.635675e+00
5.896886e+00
6.141446e+00
6.363768e+00
6.559264e+00
6.724750e+00
6.858450e+00
6.959972e+00
7.030435e+00
7.072772e+00
7.092077e+00
7.095771e+00
7.093020e+00
7.091429e+00
0.000000e+00
-2.358792e-01
-4.448219e-01
-6.970214e-01
-9.818128e-01
-1.300058e+00
-1.655925e+00
-2.047645e+00
-2.475406e+00
-2.940387e+00
-3.442510e+00
-3.981732e+00
-4.558296e+00
-5.172243e+00
-5.823469e+00
-6.511875e+00
-7.237291e+00
-7.999447e+00
-8.797965e+00
-9.632326e+00
-1.050184e+01
-1.140572e+01
-1.234331e+01
-1.331438e+01
-1.431966e+01
-1.536129e+01
-1.644355e+01
-1.757379e+01
-1.876351e+01
-2.003151e+01
-2.142340e+01
-2.307205e+01
-2.532477e+01
0.000000e+00
-1.465229e-01
-3.653210e-01
-6.132469e-01
-8.986354e-01
-1.217868e+00
-1.572938e+00
-1.964752e+00
-2.392929e+00
-2.857907e+00
-3.360124e+00
-3.899606e+00
-4.476402e+00
-5.090591e+00
-5.742137e+00
-6.430927e+00
-7.156799e+00
-7.919505e+00
-8.718707e+00
-9.553953e+00
-1.042466e+01
-1.133014e+01
-1.226969e+01
-1.324296e+01
-1.425039e+01
-1.529382e+01
-1.637724e+01
-1.750781e+01
-1.869749e+01
-1.996768e+01
-2.136397e+01
-2.298409e+01
-2.504568e+01
0.000000e+00
-1.108510e-01
-3.049056e-01
-5.476989e-01
-8.303470e-01
-1.148395e+00
-1.502455e+00
-1.893765e+00
-2.321833e+00
-2.786750e+00
-3.289001e+00
-3.828657e+00
-4.405698e+00
-5.020195e+00
-5.672140e+00
-6.361435e+00
-7.087929e+00
-7.851410e+00
-8.651584e+00
-9.488075e+00
-1.036040e+01
-1.126795e+01
-1.221007e+01
-1.318638e+01
-1.419720e+01
-1.524425e+01
-1.633152e+01
-1.746663e+01
-1.866342e+01
-1.994621e+01
-2.134475e+01
-2.286812e+01
-2.449318e+01
0.000000e+00
-1.012179e-01
-2.745067e-01
-5.043251e-01
-7.800504e-01
-1.094033e+00
-1.445749e+00
-1.835547e+00
-2.262763e+00
-2.727285e+00
-3.229404e+00
-3.769138e+00
-4.346446e+00
-4.961368e+00
-5.613897e+00
-6.303954e+00
-7.031420e+00
-7.796120e+00
-8.597814e+00
-9.436189e+00
-1.031083e+01
-1.122118e+01
-1.216666e+01
-1.314689e+01
-1.416216e+01
-1.521413e+01
-1.630671e+01
-1.744756e+01
-1.865040e+01
-1.993563e+01
-2.130504e+01
-2.270598e+01
-2.400298e+01
0.000000e+00
-1.036237e-01
-2.649284e-01
-4.823014e-01
-7.477888e-01
-1.055640e+00
-1.403493e+00
-1.790649e+00
-2.216274e+00
-2.679986e+00
-3.181747e+00
-3.721472e+00
-4.299082e+00
-4.914564e+00
-5.567893e+00
-6.259012e+00
-6.987833e+00
-7.754222e+00
-8.557983e+00
-9.398838e+00
-1.027640e+01
-1.119014e+01
-1.213950e+01
-1.312407e+01
-1.414406e+01
-1.520083e+01
-1.629769e+01
-1.744088e+01
-1.864055e+01
-1.990664e+01
-2.122053e+01
-2.250270e+01
-2.364611e+01
0.000000e+00
-1.045343e-01
-2.615482e-01
-4.705457e-01
-7.280808e-01
-1.029896e+00
-1.373682e+00
-1.757973e+00
-2.181776e+00
-2.644505e+00
-3.145830e+00
-3.685540e+00
-4.263505e+00
-4.879659e+00
-5.533962e+00
-6.226375e+00
-6.956840e+00
-7.725258e+00
-8.531461e+00
-9.375179e+00
-1.025601e+01
-1.117340e+01
-1.212673e+01
-1.311546e+01
-1.413946e+01
-1.519944e+01
-1.629732e+01
-1.743653e+01
-1.862131e+01
-1.985052e+01
-2.109294e+01
-2.227834e+01
-2.332190e+01
0.000000e+00
-1.045314e-01
-2.594047e-01
-4.639607e-01
-7.162449e-01
-1.013684e+00
-1.354126e+00
-1.736036e+00
-2.158302e+00
-2.620170e+00
-3.121148e+00
-3.660921e+00
-4.239305e+00
-4.856200e+00
-5.511563e+00
-6.205373e+00
-6.937603e+00
-7.708180e+00
-8.516950e+00
-9.363630e+00
-1.024776e+01
-1.116870e+01
-1.212564e+01
-1.311772e+01
-1.414425e+01
-1.520484e+01
-1.629951e+01
-1.742821e+01
-1.858920e+01
-1.977271e+01
-2.094546e+01
-2.205040e+01
-2.302224e+01
0.000000e+00
-1.044161e-01
-2.581343e-01
-4.604664e-01
-7.099931e-01
-1.004851e+00
-1.343242e+00
-1.723671e+00
-2.144991e+00
-2.606369e+00
-3.107229e+00
-3.647201e+00
-4.226066e+00
-4.843717e+00
-5.500121e+00
-6.195280e+00
-6.929198e+00
-7.701830e+00
-8.513026e+00
-9.362471e+00
-1.024962e+01
-1.117365e+01
-1.213345e+01
-1.312768e+01
-1.415482e+01
-1.521320e+01
-1.630072e+01
-1.741412e+01
-1.854694e+01
-1.968484e+01
-2.079717e+01
-2.183889e+01
-2.276119e+01
0.000000e+00
-1.043918e-01
-2.577733e-01
-4.594670e-01
-7.081881e-01
-1.002283e+00
-1.340079e+00
-1.720126e+00
-2.141272e+00
-2.602668e+00
-3.103722e+00
-3.644054e+00
-4.223448e+00
-4.841811e+00
-5.499131e+00
-6.195446e+00
-6.930794e+00
-7.705158e+00
-8.518395e+00
-9.370151e+00
-1.025976e+01
-1.118616e+01
-1.214784e+01
-1.314284e+01
-1.416870e+01
-1.522241e+01
-1.629997e+01
-1.739560e+01
-1.849998e+01
-1.959720e+01
-2.066088e+01
-2.165622e+01
-2.254681e+01
0.000000e+00
-1.045093e-01
-2.583324e-01
-4.608016e-01
-7.105117e-01
-1.005610e+00
-1.344306e+00
-1.725117e+00
-2.146909e+00
-2.608867e+00
-3.110438e+00
-3.651283e+00
-4.231220e+00
-4.850190e+00
-5.508219e+00
-6.205381e+00
-6.941752e+00
-7.717353e+00
-8.532056e+00
-9.385473e+00
-1.027680e+01
-1.120471e+01
-1.216723e+01
-1.316168e+01
-1.418469e+01
-1.523198e+01
-1.629809e+01
-1.737557e+01
-1.845381e+01
-1.951732e+01
-2.054421e+01
-2.150795e+01
-2.238117e+01
0.000000e+00
-1.047028e-01
-2.597735e-01
-4.645942e-01
-7.172360e-01
-1.015143e+00
-1.356180e+00
-1.738832e+00
-2.162015e+00
-2.625007e+00
-3.127362e+00
-3.668821e+00
-4.249269e+00
-4.868697e+00
-5.527173e+00
-6.224806e+00
-6.961709e+00
-7.737943e+00
-8.553418e+00
-9.407731e+00
-1.029996e+01
-1.122849e+01
-1.219084e+01
-1.318366e+01
-1.420267e+01
-1.524261e+01
-1.629692e+01
-1.735730e+01
-1.841296e+01
-1.944986e+01
-2.045038e+01
-2.139447e+01
-2.226165e+01
0.000000e+00
-1.047525e-01
-2.620321e-01
-4.714057e-01
-7.294548e-01
-1.031940e+00
-1.376577e+00
-1.761929e+00
-2.187038e+00
-2.651364e+00
-3.154643e+00
-3.696737e+00
-4.277611e+00
-4.897318e+00
-5.555967e+00
-6.253690e+00
-6.990624e+00
-7.766869e+00
-8.582390e+00
-9.436806e+00
-1.032911e+01
-1.125738e+01
-1.221868e+01
-1.320900e+01
-1.422330e+01
-1.525557e+01
-1.629858e+01
-1.734370e+01
-1.838062e+01
-1.939713e+01
-2.037942e+01
-2.131285e+01
-2.218272e+01
0.000000e+00
-1.038403e-01
-2.654474e-01
-4.832888e-01
-7.494213e-01
-1.058107e+00
-1.407018e+00
-1.795488e+00
-2.222725e+00
-2.688407e+00
-3.192571e+00
-3.735220e+00
-4.316382e+00
-4.936182e+00
-5.594762e+00
-6.292257e+00
-7.028801e+00
-7.804518e+00
-8.619434e+00
-9.473215e+00
-1.036478e+01
-1.129196e+01
-1.225136e+01
-1.323843e+01
-1.424758e+01
-1.527226e+01
-1.630491e+01
-1.733690e+01
-1.835861e+01
-1.935966e+01
-2.032957e+01
-2.125847e+01
-2.213732e+01
0.000000e+00
-1.013733e-01
-2.749814e-01
-5.053353e-01
-7.818019e-01
-1.096732e+00
-1.449643e+00
-1.840927e+00
-2.269959e+00
-2.736698e+00
-3.241517e+00
-3.784528e+00
-4.365803e+00
-4.985525e+00
-5.643860e+00
-6.340923e+00
-7.076818e+00
-7.851661e+00
-8.665504e+00
-9.518033e+00
-1.040809e+01
-1.133327e+01
-1.228984e+01
-1.327287e+01
-1.427644e+01
-1.529373e+01
-1.631706e+01
-1.733798e+01
-1.834750e+01
-1.933679e+01
-2.029811e+01
-2.122593e+01
-2.211735e+01
0.000000e+00
-1.109264e-01
-3.053170e-01
-5.486762e-01
-8.321113e-01
-1.151160e+00
-1.506478e+00
-1.899352e+00
-2.329332e+00
-2.796580e+00
-3.301673e+00
-3.844772e+00
-4.425971e+00
-5.045484e+00
-5.703472e+00
-6.400019e+00
-7.135190e+00
-7.909057e+00
-8.721609e+00
-9.572436e+00
-1.046023e+01
-1.138238e+01
-1.233499e+01
-1.331298e+01
-1.431036e+01
-1.532029e+01
-1.633516e+01
-1.734672e+01
-1.834652e+01
-1.932679e+01
-2.028177e+01
-2.120954e+01
-2.211369e+01
0.000000e+00
-1.465705e-01
-3.657103e-01
-6.142053e-01
-9.003895e-01
-1.220637e+00
-1.576982e+00
-1.970376e+00
-2.400485e+00
-2.867820e+00
-3.372906e+00
-3.915859e+00
-4.496839e+00
-5.116063e+00
-5.773648e+00
-6.469654e+00
-7.204124e+00
-7.977057e+00
-8.788272e+00
-9.637084e+00
-1.052189e+01
-1.143992e+01
-1.238724e+01
-1.335892e+01
-1.434917e+01
-1.535135e+01
-1.635807e+01
-1.736135e+01
-1.835318e+01
-1.932643e+01
-2.027646e+01
-2.120360e+01
-2.211650e+01
0.000000e+00
-2.359722e-01
-4.452408e-01
-6.980097e-01
-9.835880e-01
-1.302850e+00
-1.659994e+00
-2.053289e+00
-2.482975e+00
-2.950303e+00
-3.455277e+00
-3.997938e+00
-4.578640e+00
-5.197551e+00
-5.854703e+00
-6.550148e+00
-7.283918e+00
-8.055913e+00
-8.865692e+00
-9.712135e+00
-1.059321e+01
-1.150596e+01
-1.244658e+01