TITLE = "Solution"
VARIABLES = x, y, u, v, psiu, psiv, t, stress
ZONE T="structure" N=561 E=512 F=FEBLOCK ET=QUADRILATERAL VARLOCATION=([7,8]=cellcentered)
0.000000e+00
6.250000e+00
1.250000e+01
1.875000e+01
2.500000e+01
3.125000e+01
3.750000e+01
4.375000e+01
5.000000e+01
5.625000e+01
6.250000e+01
6.875000e+01
7.500000e+01
8.125000e+01
8.750000e+01
9.375000e+01
1.000000e+02
1.062500e+02
1.125000e+02
1.187500e+02
1.250000e+02
1.312500e+02
1.375000e+02
1.437500e+02
1.500000e+02
1.562500e+02
1.625000e+02
1.687500e+02
1.750000e+02
1.812500e+02
1.875000e+02
1.937500e+02
2.000000e+02
0.000000e+00
6.250000e+00
1.250000e+01
1.875000e+01
2.500000e+01
3.125000e+01
3.750000e+01
4.375000e+01
5.000000e+01
5.625000e+01
6.250000e+01
6.875000e+01
7.500000e+01
8.125000e+01
8.750000e+01
9.375000e+01
1.000000e+02
1.062500e+02
1.125000e+02
1.187500e+02
1.250000e+02
1.312500e+02
1.375000e+02
1.437500e+02
1.500000e+02
1.562500e+02
1.625000e+02
1.687500e+02
1.750000e+02
1.812500e+02
1.875000e+02
1.937500e+02
2.000000e+02
0.000000e+00
6.250000e+00
1.250000e+01
1.875000e+01
2.500000e+01
3.125000e+01
3.750000e+01
4.375000e+01
5.000000e+01
5.625000e+01
6.250000e+01
6.875000e+01
7.500000e+01
8.125000e+01
8.750000e+01
9.375000e+01
1.000000e+02
1.062500e+02
1.125000e+02
1.187500e+02
1.250000e+02
1.312500e+02
1.375000e+02
1.437500e+02
1.500000e+02
1.562500e+02
1.625000e+02
1.687500e+02
1.750000e+02
1.812500e+02
1.875000e+02
1.937500e+02
2.000000e+02
0.000000e+00
6.250000e+00
1.250000e+01
1.875000e+01
2.500000e+01
3.125000e+01
3.750000e+01
4.375000e+01
5.000000e+01
5.625000e+01
6.250000e+01
6.875000e+01
7.500000e+01
8.125000e+01
8.750000e+01
9.375000e+01
1.000000e+02
1.062500e+02
1.125000e+02
1.187500e+02
1.250000e+02
1.312500e+02
1.375000e+02
1.437500e+02
1.500000e+02
1.562500e+02
1.625000e+02
1.687500e+02
1.750000e+02
1.812500e+02
1.875000e+02
1.937500e+02
2.000000e+02
0.000000e+00
6.250000e+00
1.250000e+01
1.875000e+01
2.500000e+01
3.125000e+01
3.750000e+01
4.375000e+01
5.000000e+01
5.625000e+01
6.250000e+01
6.875000e+01
7.500000e+01
8.125000e+01
8.750000e+01
9.375000e+01
1.000000e+02
1.062500e+02
1.125000e+02
1.187500e+02
1.250000e+02
1.312500e+02
1.375000e+02
1.437500e+02
1.500000e+02
1.562500e+02
1.625000e+02
1.687500e+02
1.750000e+02
1.812500e+02
1.875000e+02
1.937500e+02
2.000000e+02
0.000000e+00
6.250000e+00
1.250000e+01
1.875000e+01
2.500000e+01
3.125000e+01
3.750000e+01
4.375000e+01
5.000000e+01
5.625000e+01
6.250000e+01
6.875000e+01
7.500000e+01
8.125000e+01
8.750000e+01
9.375000e+01
1.000000e+02
1.062500e+02
1.125000e+02
1.187500e+02
1.250000e+02
1.312500e+02
1.375000e+02
1.437500e+02
1.500000e+02
1.562500e+02
1.625000e+02
1.687500e+02
1.750000e+02
1.812500e+02
1.875000e+02
1.937500e+02
2.000000e+02
0.000000e+00
6.250000e+00
1.250000e+01
1.875000e+01
2.500000e+01
3.125000e+01
3.750000e+01
4.375000e+01
5.000000e+01
5.625000e+01
6.250000e+01
6.875000e+01
7.500000e+01
8.125000e+01
8.750000e+01
9.375000e+01
1.000000e+02
1.062500e+02
1.125000e+02
1.187500e+02
1.250000e+02
1.312500e+02
1.375000e+02
1.437500e+02
1.500000e+02
1.562500e+02
1.625000e+02
1.687500e+02
1.750000e+02
1.812500e+02
1.875000e+02
1.937500e+02
2.000000e+02
0.000000e+00
6.250000e+00
1.250000e+01
1.875000e+01
2.500000e+01
3.125000e+01
3.750000e+01
4.375000e+01
5.000000e+01
5.625000e+01
6.250000e+01
6.875000e+01
7.500000e+01
8.125000e+01
8.750000e+01
9.375000e+01
1.000000e+02
1.062500e+02
1.125000e+02
1.187500e+02
1.250000e+02
1.312500e+02
1.375000e+02
1.437500e+02
1.500000e+02
1.562500e+02
1.625000e+02
1.687500e+02
1.750000e+02
1.812500e+02
1.875000e+02
1.937500e+02
2.000000e+02
0.000000e+00
6.250000e+00
1.250000e+01
1.875000e+01
2.500000e+01
3.125000e+01
3.750000e+01
4.375000e+01
5.000000e+01
5.625000e+01
6.250000e+01
6.875000e+01
7.500000e+01
8.125000e+01
8.750000e+01
9.375000e+01
1.000000e+02
1.062500e+02
1.125000e+02
1.187500e+02
1.250000e+02
1.312500e+02
1.375000e+02
1.437500e+02
1.500000e+02
1.562500e+02
1.625000e+02
1.687500e+02
1.750000e+02
1.812500e+02
1.875000e+02
1.937500e+02
2.000000e+02
0.000000e+00
6.250000e+00
1.250000e+01
1.875000e+01
2.500000e+01
3.125000e+01
3.750000e+01
4.375000e+01
5.000000e+01
5.625000e+01
6.250000e+01
6.875000e+01
7.500000e+01
8.125000e+01
8.750000e+01
9.375000e+01
1.000000e+02
1.062500e+02
1.125000e+02
1.187500e+02
1.250000e+02
1.312500e+02
1.375000e+02
1.437500e+02
1.500000e+02
1.562500e+02
1.625000e+02
1.687500e+02
1.750000e+02
1.812500e+02
1.875000e+02
1.937500e+02
2.000000e+02
0.000000e+00
6.250000e+00
1.250000e+01
1.875000e+01
2.500000e+01
3.125000e+01
3.750000e+01
4.375000e+01
5.000000e+01
5.625000e+01
6.250000e+01
6.875000e+01
7.500000e+01
8.125000e+01
8.750000e+01
9.375000e+01
1.000000e+02
1.062500e+02
1.125000e+02
1.187500e+02
1.250000e+02
1.312500e+02
1.375000e+02
1.437500e+02
1.500000e+02
1.562500e+02
1.625000e+02
1.687500e+02
1.750000e+02
1.812500e+02
1.875000e+02
1.937500e+02
2.000000e+02
0.000000e+00
6.250000e+00
1.250000e+01
1.875000e+01
2.500000e+01
3.125000e+01
3.750000e+01
4.375000e+01
5.000000e+01
5.625000e+01
6.250000e+01
6.875000e+01
7.500000e+01
8.125000e+01
8.750000e+01
9.375000e+01
1.000000e+02
1.062500e+02
1.125000e+02
1.187500e+02
1.250000e+02
1.312500e+02
1.375000e+02
1.437500e+02
1.500000e+02
1.562500e+02
1.625000e+02
1.687500e+02
1.750000e+02
1.812500e+02
1.875000e+02
1.937500e+02
2.000000e+02
0.000000e+00
6.250000e+00
1.250000e+01
1.875000e+01
2.500000e+01
3.125000e+01
3.750000e+01
4.375000e+01
5.000000e+01
5.625000e+01
6.250000e+01
6.875000e+01
7.500000e+01
8.125000e+01
8.750000e+01
9.375000e+01
1.000000e+02
1.062500e+02
1.125000e+02
1.187500e+02
1.250000e+02
1.312500e+02
1.375000e+02
1.437500e+02
1.500000e+02
1.562500e+02
1.625000e+02
1.687500e+02
1.750000e+02
1.812500e+02
1.875000e+02
1.937500e+02
2.000000e+02
0.000000e+00
6.250000e+00
1.250000e+01
1.875000e+01
2.500000e+01
3.125000e+01
3.750000e+01
4.375000e+01
5.000000e+01
5.625000e+01
6.250000e+01
6.875000e+01
7.500000e+01
8.125000e+01
8.750000e+01
9.375000e+01
1.000000e+02
1.062500e+02
1.125000e+02
1.187500e+02
1.250000e+02
1.312500e+02
1.375000e+02
1.437500e+02
1.500000e+02
1.562500e+02
1.625000e+02
1.687500e+02
1.750000e+02
1.812500e+02
1.875000e+02
1.937500e+02
2.000000e+02
0.000000e+00
6.250000e+00
1.250000e+01
1.875000e+01
2.500000e+01
3.125000e+01
3.750000e+01
4.375000e+01
5.000000e+01
5.625000e+01
6.250000e+01
6.875000e+01
7.500000e+01
8.125000e+01
8.750000e+01
9.375000e+01
1.000000e+02
1.062500e+02
1.125000e+02
1.187500e+02
1.250000e+02
1.312500e+02
1.375000e+02
1.437500e+02
1.500000e+02
1.562500e+02
1.625000e+02
1.687500e+02
1.750000e+02
1.812500e+02
1.875000e+02
1.937500e+02
2.000000e+02
0.000000e+00
6.250000e+00
1.250000e+01
1.875000e+01
2.500000e+01
3.125000e+01
3.750000e+01
4.375000e+01
5.000000e+01
5.625000e+01
6.250000e+01
6.875000e+01
7.500000e+01
8.125000e+01
8.750000e+01
9.375000e+01
1.000000e+02
1.062500e+02
1.125000e+02
1.187500e+02
1.250000e+02
1.312500e+02
1.375000e+02
1.437500e+02
1.500000e+02
1.562500e+02
1.625000e+02
1.687500e+02
1.750000e+02
1.812500e+02
1.875000e+02
1.937500e+02
2.000000e+02
0.000000e+00
6.250000e+00
1.250000e+01
1.875000e+01
2.500000e+01
3.125000e+01
3.750000e+01
4.375000e+01
5.000000e+01
5.625000e+01
6.250000e+01
6.875000e+01
7.500000e+01
8.125000e+01
8.750000e+01
9.375000e+01
1.000000e+02
1.062500e+02
1.125000e+02
1.187500e+02
1.250000e+02
1.312500e+02
1.375000e+02
1.437500e+02
1.500000e+02
1.562500e+02
1.625000e+02
1.687500e+02
1.750000e+02
1.812500e+02
1.875000e+02
1.937500e+02
2.000000e+02
0.000000e+00
0.000000e+00
0.000000e+00
0.000000e+00
0.000000e+00
0.000000e+00
0.000000e+00
0.000000e+00
0.000000e+00
0.000000e+00
0.000000e+00
0.000000e+00
0.000000e+00
0.000000e+00
0.000000e+00
0.000000e+00
0.000000e+00
0.000000e+00
0.000000e+00
0.000000e+00
0.000000e+00
0.000000e+00
0.000000e+00
0.000000e+00
0.000000e+00
0.000000e+00
0.000000e+00
0.000000e+00
0.000000e+00
0.000000e+00
0.000000e+00
0.000000e+00
0.000000e+00
6.250000e+00
6.250000e+00
6.250000e+00
6.250000e+00
6.250000e+00
6.250000e+00
6.250000e+00
6.250000e+00
6.250000e+00
6.250000e+00
6.250000e+00
6.250000e+00
6.250000e+00
6.250000e+00
6.250000e+00
6.250000e+00
6.250000e+00
6.250000e+00
6.250000e+00
6.250000e+00
6.250000e+00
6.250000e+00
6.250000e+00
6.250000e+00
6.250000e+00
6.250000e+00
6.250000e+00
6.250000e+00
6.250000e+00
6.250000e+00
6.250000e+00
6.250000e+00
6.250000e+00
1.250000e+01
1.250000e+01
1.250000e+01
1.250000e+01
1.250000e+01
1.250000e+01
1.250000e+01
1.250000e+01
1.250000e+01
1.250000e+01
1.250000e+01
1.250000e+01
1.250000e+01
1.250000e+01
1.250000e+01
1.250000e+01
1.250000e+01
1.250000e+01
1.250000e+01
1.250000e+01
1.250000e+01
1.250000e+01
1.250000e+01
1.250000e+01
1.250000e+01
1.250000e+01
1.250000e+01
1.250000e+01
1.250000e+01
1.250000e+01
1.250000e+01
1.250000e+01
1.250000e+01
1.875000e+01
1.875000e+01
1.875000e+01
1.875000e+01
1.875000e+01
1.875000e+01
1.875000e+01
1.875000e+01
1.875000e+01
1.875000e+01
1.875000e+01
1.875000e+01
1.875000e+01
1.875000e+01
1.875000e+01
1.875000e+01
1.875000e+01
1.875000e+01
1.875000e+01
1.875000e+01
1.875000e+01
1.875000e+01
1.875000e+01
1.875000e+01
1.875000e+01
1.875000e+01
1.875000e+01
1.875000e+01
1.875000e+01
1.875000e+01
1.875000e+01
1.875000e+01
1.875000e+01
2.500000e+01
2.500000e+01
2.500000e+01
2.500000e+01
2.500000e+01
2.500000e+01
2.500000e+01
2.500000e+01
2.500000e+01
2.500000e+01
2.500000e+01
2.500000e+01
2.500000e+01
2.500000e+01
2.500000e+01
2.500000e+01
2.500000e+01
2.500000e+01
2.500000e+01
2.500000e+01
2.500000e+01
2.500000e+01
2.500000e+01
2.500000e+01
2.500000e+01
2.500000e+01
2.500000e+01
2.500000e+01
2.500000e+01
2.500000e+01
2.500000e+01
2.500000e+01
2.500000e+01
3.125000e+01
3.125000e+01
3.125000e+01
3.125000e+01
3.125000e+01
3.125000e+01
3.125000e+01
3.125000e+01
3.125000e+01
3.125000e+01
3.125000e+01
3.125000e+01
3.125000e+01
3.125000e+01
3.125000e+01
3.125000e+01
3.125000e+01
3.125000e+01
3.125000e+01
3.125000e+01
3.125000e+01
3.125000e+01
3.125000e+01
3.125000e+01
3.125000e+01
3.125000e+01
3.125000e+01
3.125000e+01
3.125000e+01
3.125000e+01
3.125000e+01
3.125000e+01
3.125000e+01
3.750000e+01
3.750000e+01
3.750000e+01
3.750000e+01
3.750000e+01
3.750000e+01
3.750000e+01
3.750000e+01
3.750000e+01
3.750000e+01
3.750000e+01
3.750000e+01
3.750000e+01
3.750000e+01
3.750000e+01
3.750000e+01
3.750000e+01
3.750000e+01
3.750000e+01
3.750000e+01
3.750000e+01
3.750000e+01
3.750000e+01
3.750000e+01
3.750000e+01
3.750000e+01
3.750000e+01
3.750000e+01
3.750000e+01
3.750000e+01
3.750000e+01
3.750000e+01
3.750000e+01
4.375000e+01
4.375000e+01
4.375000e+01
4.375000e+01
4.375000e+01
4.375000e+01
4.375000e+01
4.375000e+01
4.375000e+01
4.375000e+01
4.375000e+01
4.375000e+01
4.375000e+01
4.375000e+01
4.375000e+01
4.375000e+01
4.375000e+01
4.375000e+01
4.375000e+01
4.375000e+01
4.375000e+01
4.375000e+01
4.375000e+01
4.375000e+01
4.375000e+01
4.375000e+01
4.375000e+01
4.375000e+01
4.375000e+01
4.375000e+01
4.375000e+01
4.375000e+01
4.375000e+01
5.000000e+01
5.000000e+01
5.000000e+01
5.000000e+01
5.000000e+01
5.000000e+01
5.000000e+01
5.000000e+01
5.000000e+01
5.000000e+01
5.000000e+01
5.000000e+01
5.000000e+01
5.000000e+01
5.000000e+01
5.000000e+01
5.000000e+01
5.000000e+01
5.000000e+01
5.000000e+01
5.000000e+01
5.000000e+01
5.000000e+01
5.000000e+01
5.000000e+01
5.000000e+01
5.000000e+01
5.000000e+01
5.000000e+01
5.000000e+01
5.000000e+01
5.000000e+01
5.000000e+01
5.625000e+01
5.625000e+01
5.625000e+01
5.625000e+01
5.625000e+01
5.625000e+01
5.625000e+01
5.625000e+01
5.625000e+01
5.625000e+01
5.625000e+01
5.625000e+01
5.625000e+01
5.625000e+01
5.625000e+01
5.625000e+01
5.625000e+01
5.625000e+01
5.625000e+01
5.625000e+01
5.625000e+01
5.625000e+01
5.625000e+01
5.625000e+01
5.625000e+01
5.625000e+01
5.625000e+01
5.625000e+01
5.625000e+01
5.625000e+01
5.625000e+01
5.625000e+01
5.625000e+01
6.250000e+01
6.250000e+01
6.250000e+01
6.250000e+01
6.250000e+01
6.250000e+01
6.250000e+01
6.250000e+01
6.250000e+01
6.250000e+01
6.250000e+01
6.250000e+01
6.250000e+01
6.250000e+01
6.250000e+01
6.250000e+01
6.250000e+01
6.250000e+01
6.250000e+01
6.250000e+01
6.250000e+01
6.250000e+01
6.250000e+01
6.250000e+01
6.250000e+01
6.250000e+01
6.250000e+01
6.250000e+01
6.250000e+01
6.250000e+01
6.250000e+01
6.250000e+01
6.250000e+01
6.875000e+01
6.875000e+01
6.875000e+01
6.875000e+01
6.875000e+01
6.875000e+01
6.875000e+01
6.875000e+01
6.875000e+01
6.875000e+01
6.875000e+01
6.875000e+01
6.875000e+01
6.875000e+01
6.875000e+01
6.875000e+01
6.875000e+01
6.875000e+01
6.875000e+01
6.875000e+01
6.875000e+01
6.875000e+01
6.875000e+01
6.875000e+01
6.875000e+01
6.875000e+01
6.875000e+01
6.875000e+01
6.875000e+01
6.875000e+01
6.875000e+01
6.875000e+01
6.875000e+01
7.500000e+01
7.500000e+01
7.500000e+01
7.500000e+01
7.500000e+01
7.500000e+01
7.500000e+01
7.500000e+01
7.500000e+01
7.500000e+01
7.500000e+01
7.500000e+01
7.500000e+01
7.500000e+01
7.500000e+01
7.500000e+01
7.500000e+01
7.500000e+01
7.500000e+01
7.500000e+01
7.500000e+01
7.500000e+01
7.500000e+01
7.500000e+01
7.500000e+01
7.500000e+01
7.500000e+01
7.500000e+01
7.500000e+01
7.500000e+01
7.500000e+01
7.500000e+01
7.500000e+01
8.125000e+01
8.125000e+01
8.125000e+01
8.125000e+01
8.125000e+01
8.125000e+01
8.125000e+01
8.125000e+01
8.125000e+01
8.125000e+01
8.125000e+01
8.125000e+01
8.125000e+01
8.125000e+01
8.125000e+01
8.125000e+01
8.125000e+01
8.125000e+01
8.125000e+01
8.125000e+01
8.125000e+01
8.125000e+01
8.125000e+01
8.125000e+01
8.125000e+01
8.125000e+01
8.125000e+01
8.125000e+01
8.125000e+01
8.125000e+01
8.125000e+01
8.125000e+01
8.125000e+01
8.750000e+01
8.750000e+01
8.750000e+01
8.750000e+01
8.750000e+01
8.750000e+01
8.750000e+01
8.750000e+01
8.750000e+01
8.750000e+01
8.750000e+01
8.750000e+01
8.750000e+01
8.750000e+01
8.750000e+01
8.750000e+01
8.750000e+01
8.750000e+01
8.750000e+01
8.750000e+01
8.750000e+01
8.750000e+01
8.750000e+01
8.750000e+01
8.750000e+01
8.750000e+01
8.750000e+01
8.750000e+01
8.750000e+01
8.750000e+01
8.750000e+01
8.750000e+01
8.750000e+01
9.375000e+01
9.375000e+01
9.375000e+01
9.375000e+01
9.375000e+01
9.375000e+01
9.375000e+01
9.375000e+01
9.375000e+01
9.375000e+01
9.375000e+01
9.375000e+01
9.375000e+01
9.375000e+01
9.375000e+01
9.375000e+01
9.375000e+01
9.375000e+01
9.375000e+01
9.375000e+01
9.375000e+01
9.375000e+01
9.375000e+01
9.375000e+01
9.375000e+01
9.375000e+01
9.375000e+01
9.375000e+01
9.375000e+01
9.375000e+01
9.375000e+01
9.375000e+01
9.375000e+01
1.000000e+02
1.000000e+02
1.000000e+02
1.000000e+02
1.000000e+02
1.000000e+02
1.000000e+02
1.000000e+02
1.000000e+02
1.000000e+02
1.000000e+02
1.000000e+02
1.000000e+02
1.000000e+02
1.000000e+02
1.000000e+02
1.000000e+02
1.000000e+02
1.000000e+02
1.000000e+02
1.000000e+02
1.000000e+02
1.000000e+02
1.000000e+02
1.000000e+02
1.000000e+02
1.000000e+02
1.000000e+02
1.000000e+02
1.000000e+02
1.000000e+02
1.000000e+02
1.000000e+02
0.000000e+00
-4.705738e-01
-7.812903e-01
-1.120782e+00
-1.422898e+00
-1.715519e+00
-2.026377e+00
-2.314745e+00
-2.614947e+00
-2.908695e+00
-3.206421e+00
-3.504964e+00
-3.803803e+00
-4.104516e+00
-4.404006e+00
-4.706271e+00
-5.007737e+00
-5.310287e+00
-5.612772e+00
-5.914404e+00
-6.216966e+00
-6.518698e+00
-6.820924e+00
-7.119407e+00
-7.413917e+00
-7.718289e+00
-8.018777e+00
-8.348032e+00
-8.668689e+00
-9.023478e+00
-9.509704e+00
-9.926359e+00
-1.013088e+01
0.000000e+00
-2.332823e-01
-4.706812e-01
-7.359567e-01
-1.002066e+00
-1.254963e+00
-1.524685e+00
-1.785062e+00
-2.047490e+00
-2.312615e+00
-2.572831e+00
-2.838088e+00
-3.098518e+00
-3.362196e+00
-3.623860e+00
-3.885802e+00
-4.148317e+00
-4.409220e+00
-4.671673e+00
-4.932380e+00
-5.194205e+00
-5.454761e+00
-5.716258e+00
-5.976354e+00
-6.237856e+00
-6.498554e+00
-6.758417e+00
-7.022179e+00
-7.277083e+00
-7.534794e+00
-7.787485e+00
-7.888085e+00
-7.993882e+00
0.000000e+00
-1.038729e-01
-2.402810e-01
-4.364701e-01
-6.543306e-01
-8.616712e-01
-1.088214e+00
-1.314733e+00
-1.541381e+00
-1.772818e+00
-1.996035e+00
-2.224254e+00
-2.446502e+00
-2.671318e+00
-2.894779e+00
-3.116902e+00
-3.340072e+00
-3.561672e+00
-3.785130e+00
-4.008160e+00
-4.232379e+00
-4.455782e+00
-4.680148e+00
-4.907738e+00
-5.137061e+00
-5.359540e+00
-5.572161e+00
-5.769797e+00
-5.949324e+00
-6.098409e+00
-6.184817e+00
-6.190098e+00
-6.282982e+00
0.000000e+00
-1.024643e-01
-1.862961e-01
-3.398813e-01
-4.627947e-01
-6.185429e-01
-7.953880e-01
-9.649421e-01
-1.156766e+00
-1.334917e+00
-1.520153e+00
-1.703362e+00
-1.886012e+00
-2.071001e+00
-2.255041e+00
-2.440705e+00
-2.626467e+00
-2.814436e+00
-3.004153e+00
-3.195456e+00
-3.388835e+00
-3.581641e+00
-3.775351e+00
-3.968986e+00
-4.154395e+00
-4.328445e+00
-4.478720e+00
-4.611025e+00
-4.712040e+00
-4.775031e+00
-4.789951e+00
-4.807009e+00
-4.887613e+00
0.000000e+00
-9.273668e-02
-1.839795e-01
-2.748885e-01
-3.877094e-01
-5.036076e-01
-6.356639e-01
-7.698947e-01
-9.142985e-01
-1.055959e+00
-1.201574e+00
-1.347577e+00
-1.491546e+00
-1.639908e+00
-1.784726e+00
-1.933367e+00
-2.080795e+00
-2.229797e+00
-2.379625e+00
-2.528643e+00
-2.678240e+00
-2.824643e+00
-2.968419e+00
-3.105470e+00
-3.233501e+00
-3.347520e+00
-3.444588e+00
-3.518728e+00
-3.567202e+00
-3.591279e+00
-3.594244e+00
-3.624123e+00
-3.695859e+00
0.000000e+00
-7.418614e-02
-1.454819e-01
-2.203339e-01
-3.015820e-01
-3.908064e-01
-4.854701e-01
-5.866587e-01
-6.903392e-01
-7.979610e-01
-9.055550e-01
-1.014191e+00
-1.123099e+00
-1.231387e+00
-1.340626e+00
-1.449114e+00
-1.558166e+00
-1.666608e+00
-1.774479e+00
-1.881085e+00
-1.985170e+00
-2.085861e+00
-2.180704e+00
-2.268115e+00
-2.345504e+00
-2.410908e+00
-2.462126e+00
-2.497125e+00
-2.519030e+00
-2.518832e+00
-2.514256e+00
-2.541062e+00
-2.607131e+00
0.000000e+00
-5.112223e-02
-1.017128e-01
-1.534389e-01
-2.087229e-01
-2.678978e-01
-3.311711e-01
-3.975088e-01
-4.666175e-01
-5.372049e-01
-6.087656e-01
-6.804836e-01
-7.520614e-01
-8.234341e-01
-8.943448e-01
-9.649462e-01
-1.034820e+00
-1.103795e+00
-1.171317e+00
-1.236717e+00
-1.299086e+00
-1.357056e+00
-1.409204e+00
-1.453800e+00
-1.489542e+00
-1.514277e+00
-1.527811e+00
-1.532258e+00
-1.515860e+00
-1.486644e+00
-1.475755e+00
-1.499752e+00
-1.564475e+00
0.000000e+00
-2.693659e-02
-5.372705e-02
-8.109011e-02
-1.097338e-01
-1.401164e-01
-1.721373e-01
-2.056325e-01
-2.401606e-01
-2.753740e-01
-3.107591e-01
-3.459823e-01
-3.807665e-01
-4.149366e-01
-4.484256e-01
-4.810675e-01
-5.126610e-01
-5.428362e-01
-5.712314e-01
-5.973586e-01
-6.204818e-01
-6.396594e-01
-6.536666e-01
-6.615718e-01
-6.618268e-01
-6.547332e-01
-6.380982e-01
-5.998094e-01
-5.503495e-01
-4.997468e-01
-4.742999e-01
-4.980485e-01
-5.653599e-01
0.000000e+00
-1.956563e-03
-3.960205e-03
-5.925936e-03
-7.746601e-03
-9.303440e-03
-1.052513e-02
-1.139077e-02
-1.191959e-02
-1.208217e-02
-1.180328e-02
-1.096002e-02
-9.411692e-03
-6.985647e-03
-3.495651e-03
1.192292e-03
7.331809e-03
1.529191e-02
2.519901e-02
3.703776e-02
5.114309e-02
6.812130e-02
8.830831e-02
1.137670e-01
1.447538e-01
1.853126e-01
2.441778e-01
3.156209e-01
3.883726e-01
4.391769e-01
4.546924e-01
4.225303e-01
3.439019e-01
0.000000e+00
2.316715e-02
4.611241e-02
6.970733e-02
9.489308e-02
1.223681e-01
1.522031e-01
1.841822e-01
2.178045e-01
2.526419e-01
2.883249e-01
3.246808e-01
3.617219e-01
3.997790e-01
4.392978e-01
4.806316e-01
5.241915e-01
5.700032e-01
6.179283e-01
6.674249e-01
7.179810e-01
7.699659e-01
8.249332e-01
8.836806e-01
9.514289e-01
1.034559e+00
1.123835e+00
1.214387e+00
1.288279e+00
1.331985e+00
1.329963e+00
1.285358e+00
1.222716e+00
0.000000e+00
4.774096e-02
9.495328e-02
1.434172e-01
1.957899e-01
2.527813e-01
3.146049e-01
3.802539e-01
4.489218e-01
5.193475e-01
5.906890e-01
6.622193e-01
7.338653e-01
8.061967e-01
8.801685e-01
9.572472e-01
1.037912e+00
1.121495e+00
1.206823e+00
1.293806e+00
1.382774e+00
1.472750e+00
1.565255e+00
1.667078e+00
1.775541e+00
1.886462e+00
1.995847e+00
2.085463e+00
2.149735e+00
2.176805e+00
2.169483e+00
2.139389e+00
2.095298e+00
0.000000e+00
7.125209e-02
1.398213e-01
2.123359e-01
2.917546e-01
3.800629e-01
4.750261e-01
5.763913e-01
6.811707e-01
7.890999e-01
8.977336e-01
1.006886e+00
1.116058e+00
1.225373e+00
1.335670e+00
1.446909e+00
1.561369e+00
1.678384e+00
1.797529e+00
1.919811e+00
2.047914e+00
2.184021e+00
2.325966e+00
2.467983e+00
2.605621e+00
2.734328e+00
2.846481e+00
2.936019e+00
2.992227e+00
3.020616e+00
3.024139e+00
3.006131e+00
2.978511e+00
0.000000e+00
9.003447e-02
1.787331e-01
2.684889e-01
3.818718e-01
5.005673e-01
6.332488e-01
7.713414e-01
9.151291e-01
1.059734e+00
1.206336e+00
1.353722e+00
1.501395e+00
1.652917e+00
1.804257e+00
1.959412e+00
2.115986e+00
2.276436e+00
2.440924e+00
2.607096e+00
2.775987e+00
2.947143e+00
3.116873e+00
3.281220e+00
3.434829e+00
3.575322e+00
3.695346e+00
3.786927e+00
3.853858e+00
3.893238e+00
3.906291e+00
3.899791e+00
3.885264e+00
0.000000e+00
9.895290e-02
1.802179e-01
3.314529e-01
4.576971e-01
6.201091e-01
8.023872e-01
9.731394e-01
1.166532e+00
1.345061e+00
1.529660e+00
1.710755e+00
1.893978e+00
2.083653e+00
2.277902e+00
2.478388e+00
2.681316e+00
2.887108e+00
3.097213e+00
3.310100e+00
3.520528e+00
3.724839e+00
3.920663e+00
4.104950e+00
4.279622e+00
4.437459e+00
4.572756e+00
4.679667e+00
4.756325e+00
4.804253e+00
4.826543e+00
4.829391e+00
4.824652e+00
0.000000e+00
1.017519e-01
2.340685e-01
4.230515e-01
6.392749e-01
8.480527e-01
1.079070e+00
1.309394e+00
1.538779e+00
1.773499e+00
1.998159e+00
2.224971e+00
2.447194e+00
2.673453e+00
2.902338e+00
3.133690e+00
3.366339e+00
3.597062e+00
3.828917e+00
4.061526e+00
4.295515e+00
4.524333e+00
4.745439e+00
4.966445e+00
5.176447e+00
5.362255e+00
5.512029e+00
5.627006e+00
5.709621e+00
5.762593e+00
5.790359e+00
5.799442e+00
5.800563e+00
0.000000e+00
2.337081e-01
4.719517e-01
7.366018e-01
1.002142e+00
1.254552e+00
1.523536e+00
1.784052e+00
2.046036e+00
2.310584e+00
2.570502e+00
2.834553e+00
3.094218e+00
3.356020e+00
3.615989e+00
3.875797e+00
4.135608e+00
4.393070e+00
4.650744e+00
4.904953e+00
5.160244e+00
5.413742e+00
5.667210e+00
5.925139e+00
6.167499e+00
6.368129e+00
6.525798e+00
6.642848e+00
6.723228e+00
6.772530e+00
6.797720e+00
6.806845e+00
6.809088e+00
0.000000e+00
4.718399e-01
7.880191e-01
1.132633e+00
1.437870e+00
1.729357e+00
2.037628e+00
2.322976e+00
2.620677e+00
2.911249e+00
3.206701e+00
3.505266e+00
3.802538e+00
4.100192e+00
4.392732e+00
4.683539e+00
4.972486e+00
5.262061e+00
5.552095e+00
5.840396e+00
6.127110e+00
6.416302e+00
6.707048e+00
6.999621e+00
7.263556e+00
7.474378e+00
7.632807e+00
7.741932e+00
7.806954e+00
7.836126e+00
7.841205e+00
7.836559e+00
7.833996e+00
0.000000e+00
-2.786909e-01
-5.877859e-01
-9.826552e-01
-1.413305e+00
-1.881717e+00
-2.390567e+00
-2.930127e+00
-3.505735e+00
-4.113187e+00
-4.754978e+00
-5.432857e+00
-6.146616e+00
-6.898787e+00
-7.687851e+00
-8.515904e+00
-9.382523e+00
-1.028855e+01
-1.123424e+01
-1.221916e+01
-1.324388e+01
-1.430857e+01
-1.541423e+01
-1.656009e+01
-1.774414e+01
-1.896759e+01
-2.023478e+01
-2.155538e+01
-2.293685e+01
-2.439917e+01
-2.595932e+01
-2.776755e+01
-3.030663e+01
0.000000e+00
-1.796899e-01
-5.073684e-01
-8.949044e-01
-1.332193e+00
-1.797324e+00
-2.306101e+00
-2.847537e+00
-3.421471e+00
-4.030046e+00
-4.670768e+00
-5.349136e+00
-6.062542e+00
-6.814788e+00
-7.603976e+00
-8.431663e+00
-9.298571e+00
-1.020432e+01
-1.115022e+01
-1.213508e+01
-1.315981e+01
-1.422426e+01
-1.533002e+01
-1.647641e+01
-1.766039e+01
-1.888337e+01
-2.014905e+01
-2.146809e+01
-2.285061e+01
-2.430435e+01
-2.588393e+01
-2.767908e+01
-2.993109e+01
0.000000e+00
-1.583977e-01
-4.485685e-01
-8.383122e-01
-1.265496e+00
-1.728399e+00
-2.235350e+00
-2.774705e+00
-3.349707e+00
-3.957295e+00
-4.598844e+00
-5.277318e+00
-5.991163e+00
-6.743391e+00
-7.533158e+00
-8.360877e+00
-9.227940e+00
-1.013376e+01
-1.107942e+01
-1.206429e+01
-1.308902e+01
-1.415301e+01
-1.525770e+01
-1.640328e+01
-1.758811e+01
-1.881374e+01
-2.008136e+01
-2.140536e+01
-2.279187e+01
-2.426608e+01
-2.588825e+01
-2.757333e+01
-2.932234e+01
0.000000e+00
-2.029440e-01
-4.485291e-01
-8.341605e-01
-1.230196e+00
-1.682680e+00
-2.188003e+00
-2.715221e+00
-3.295684e+00
-3.898080e+00
-4.541963e+00
-5.220662e+00
-5.933711e+00
-6.687691e+00
-7.476284e+00
-8.305440e+00
-9.171681e+00
-1.007764e+01
-1.102311e+01
-1.200726e+01
-1.303261e+01
-1.409583e+01
-1.519974e+01
-1.634530e+01
-1.753213e+01
-1.876368e+01
-2.003738e+01
-2.136860e+01
-2.276408e+01
-2.425731e+01
-2.587258e+01
-2.742236e+01
-2.882187e+01
0.000000e+00
-2.193899e-01
-4.865483e-01
-8.301200e-01
-1.228063e+00
-1.663059e+00
-2.158929e+00
-2.680604e+00
-3.256009e+00
-3.858279e+00
-4.500876e+00
-5.181138e+00
-5.893241e+00
-6.649023e+00
-7.436757e+00
-8.266811e+00
-9.132801e+00
-1.003845e+01
-1.098408e+01
-1.196777e+01
-1.299348e+01
-1.405703e+01
-1.516209e+01
-1.630882e+01
-1.749906e+01
-1.873391e+01
-2.001546e+01
-2.135058e+01
-2.274852e+01
-2.423669e+01
-2.577314e+01
-2.722110e+01
-2.848646e+01
0.000000e+00
-2.264341e-01
-5.028189e-01
-8.360109e-01
-1.222197e+00
-1.656199e+00
-2.137541e+00
-2.661160e+00
-3.227021e+00
-3.831131e+00
-4.472481e+00
-5.151721e+00
-5.867023e+00
-6.620452e+00
-7.411092e+00
-8.239821e+00
-9.107073e+00
-1.001309e+01
-1.095887e+01
-1.194432e+01
-1.297027e+01
-1.403649e+01
-1.514376e+01
-1.629321e+01
-1.748580e+01
-1.872252e+01
-2.000638e+01
-2.134122e+01
-2.272800e+01
-2.417616e+01
-2.561801e+01
-2.698603e+01
-2.818900e+01
0.000000e+00
-2.301391e-01
-5.089923e-01
-8.392394e-01
-1.220374e+00
-1.650280e+00
-2.126826e+00
-2.647622e+00
-3.210593e+00
-3.813518e+00
-4.455022e+00
-5.134178e+00
-5.850669e+00
-6.604488e+00
-7.395861e+00
-8.225229e+00
-9.093106e+00
-1.000017e+01
-1.094698e+01
-1.193409e+01
-1.296190e+01
-1.403068e+01
-1.514079e+01
-1.629261e+01
-1.748681e+01
-1.872372e+01
-2.000361e+01
-2.133466e+01
-2.269006e+01
-2.408687e+01
-2.546247e+01
-2.676238e+01
-2.790337e+01
0.000000e+00
-2.315345e-01
-5.113059e-01
-8.407078e-01
-1.219845e+00
-1.647580e+00
-2.122133e+00
-2.641429e+00
-3.203384e+00
-3.806063e+00
-4.447886e+00
-5.127798e+00
-5.845168e+00
-6.599835e+00
-7.391953e+00
-8.222034e+00
-9.090790e+00
-9.998914e+00
-1.094705e+01
-1.193580e+01
-1.296565e+01
-1.403685e+01
-1.514923e+01
-1.630278e+01
-1.749683e+01
-1.873324e+01
-2.000525e+01
-2.131704e+01
-2.263828e+01
-2.398214e+01
-2.531019e+01
-2.655201e+01
-2.763700e+01
0.000000e+00
-2.318196e-01
-5.118934e-01
-8.413228e-01
-1.220304e+00
-1.647942e+00
-2.122564e+00
-2.642140e+00
-3.204614e+00
-3.808085e+00
-4.450955e+00
-5.132009e+00
-5.850514e+00
-6.606174e+00
-7.399095e+00
-8.229876e+00
-9.099535e+00
-1.000879e+01
-1.095806e+01
-1.194805e+01
-1.297953e+01
-1.405236e+01
-1.516615e+01
-1.631993e+01
-1.751365e+01
-1.874459e+01
-2.000202e+01
-2.128497e+01
-2.258170e+01
-2.387511e+01
-2.514413e+01
-2.631116e+01
-2.730522e+01
0.000000e+00
-2.313598e-01
-5.113385e-01
-8.414089e-01
-1.221783e+00
-1.651306e+00
-2.128005e+00
-2.649627e+00
-3.214026e+00
-3.819319e+00
-4.463892e+00
-5.146460e+00
-5.866260e+00
-6.623082e+00
-7.416910e+00
-8.248278e+00
-9.118969e+00
-1.002948e+01
-1.097963e+01
-1.196990e+01
-1.300215e+01
-1.407566e+01
-1.518807e+01
-1.634330e+01
-1.752972e+01
-1.874904e+01
-1.998942e+01
-2.124957e+01
-2.251710e+01
-2.377324e+01
-2.497809e+01
-2.607919e+01
-2.703834e+01
0.000000e+00
-2.298655e-01
-5.091137e-01
-8.406436e-01
-1.224307e+00
-1.657920e+00
-2.138864e+00
-2.664272e+00
-3.231924e+00
-3.839852e+00
-4.486576e+00
-5.170702e+00
-5.891651e+00
-6.649749e+00
-7.444566e+00
-8.276938e+00
-9.148987e+00
-1.006092e+01
-1.101169e+01
-1.200125e+01
-1.303253e+01
-1.410425e+01
-1.521470e+01
-1.636352e+01
-1.754088e+01
-1.874537e+01
-1.997443e+01
-2.121297e+01
-2.245446e+01
-2.367014e+01
-2.482923e+01
-2.589809e+01
-2.684622e+01
0.000000e+00
-2.261588e-01
-5.031578e-01
-8.381557e-01
-1.228157e+00
-1.668389e+00
-2.156269e+00
-2.686947e+00
-3.259242e+00
-3.870371e+00
-4.519154e+00
-5.204704e+00
-5.926056e+00
-6.685136e+00
-7.481050e+00
-8.315277e+00
-9.189285e+00
-1.010207e+01
-1.105281e+01
-1.204115e+01
-1.306867e+01
-1.413604e+01
-1.524060e+01
-1.637985e+01
-1.754786e+01
-1.874288e+01
-1.996006e+01
-2.118555e+01
-2.240006e+01
-2.358620e+01
-2.471600e+01
-2.576878e+01
-2.672073e+01
0.000000e+00
-2.189776e-01
-4.871348e-01
-8.333192e-01
-1.236127e+00
-1.681595e+00
-2.184404e+00
-2.717400e+00
-3.298278e+00
-3.910795e+00
-4.561765e+00
-5.248741e+00
-5.969226e+00
-6.730804e+00
-7.527054e+00
-8.364642e+00
-9.239530e+00
-1.015145e+01
-1.110052e+01
-1.208552e+01
-1.310865e+01
-1.416971e+01
-1.526633e+01
-1.639647e+01
-1.755746e+01
-1.874852e+01
-1.995963e+01
-2.117035e+01
-2.236499e+01
-2.352595e+01
-2.463710e+01
-2.568289e+01
-2.664949e+01
0.000000e+00
-2.016067e-01
-4.487780e-01
-8.381768e-01
-1.242594e+00
-1.706850e+00
-2.223480e+00
-2.760094e+00
-3.349028e+00
-3.960912e+00
-4.613577e+00
-5.299841e+00
-6.022454e+00
-6.785679e+00
-7.585201e+00
-8.424416e+00
-9.299048e+00
-1.020916e+01
-1.115506e+01
-1.213629e+01
-1.315407e+01
-1.420774e+01
-1.529572e+01
-1.641903e+01
-1.758094e+01
-1.877176e+01
-1.997590e+01
-2.117125e+01
-2.234719e+01
-2.348977e+01
-2.458741e+01
-2.563179e+01
-2.661868e+01
0.000000e+00
-1.555621e-01
-4.468518e-01
-8.414261e-01
-1.279800e+00
-1.755652e+00
-2.275263e+00
-2.824276e+00
-3.408572e+00
-4.024430e+00
-4.673704e+00
-5.360322e+00
-6.084547e+00
-6.848905e+00
-7.651267e+00
-8.490096e+00
-9.364314e+00
-1.027269e+01
-1.121686e+01
-1.219531e+01
-1.320852e+01
-1.425587e+01
-1.533684e+01
-1.646119e+01
-1.762516e+01
-1.881297e+01
-2.000354e+01
-2.118516e+01
-2.234570e+01
-2.347408e+01
-2.456175e+01
-2.560618e+01
-2.661348e+01
0.000000e+00
-1.763667e-01
-5.047936e-01
-8.981186e-01
-1.347026e+00
-1.825827e+00
-2.347024e+00
-2.898926e+00
-3.481795e+00
-4.098499e+00
-4.746228e+00
-5.432866e+00
-6.157131e+00
-6.922161e+00
-7.724820e+00
-8.563388e+00
-9.436565e+00
-1.034365e+01
-1.128670e+01
-1.226379e+01
-1.327520e+01
-1.431952e+01
-1.540095e+01
-1.652611e+01
-1.768653e+01
-1.886223e+01
-2.003974e+01
-2.120824e+01
-2.235627e+01
-2.347354e+01
-2.455343e+01
-2.559696e+01
-2.661818e+01
0.000000e+00
-2.761279e-01
-5.862453e-01
-9.866537e-01
-1.428376e+00
-1.909883e+00
-2.431120e+00
-2.981259e+00
-3.565807e+00
-4.181254e+00
-4.830288e+00
-5.516617e+00
-6.240929e+00
-7.005545e+00
-7.807369e+00
-8.645585e+00
-9.517993e+00
-1.042493e+01
-1.136707e+01
-1.234374e+01
-1.335461e+01
-1.439931e+01