TITLE = "Solution"
VARIABLES = x, y, u, v, psiu, psiv, t, stress
ZONE T="structure" N=561 E=512 F=FEBLOCK ET=QUADRILATERAL VARLOCATION=([7,8]=cellcentered)
0.000000e+00
6.250000e+00
1.250000e+01
1.875000e+01
2.500000e+01
3.125000e+01
3.750000e+01
4.375000e+01
5.000000e+01
5.625000e+01
6.250000e+01
6.875000e+01
7.500000e+01
8.125000e+01
8.750000e+01
9.375000e+01
1.000000e+02
1.062500e+02
1.125000e+02
1.187500e+02
1.250000e+02
1.312500e+02
1.375000e+02
1.437500e+02
1.500000e+02
1.562500e+02
1.625000e+02
1.687500e+02
1.750000e+02
1.812500e+02
1.875000e+02
1.937500e+02
2.000000e+02
0.000000e+00
6.250000e+00
1.250000e+01
1.875000e+01
2.500000e+01
3.125000e+01
3.750000e+01
4.375000e+01
5.000000e+01
5.625000e+01
6.250000e+01
6.875000e+01
7.500000e+01
8.125000e+01
8.750000e+01
9.375000e+01
1.000000e+02
1.062500e+02
1.125000e+02
1.187500e+02
1.250000e+02
1.312500e+02
1.375000e+02
1.437500e+02
1.500000e+02
1.562500e+02
1.625000e+02
1.687500e+02
1.750000e+02
1.812500e+02
1.875000e+02
1.937500e+02
2.000000e+02
0.000000e+00
6.250000e+00
1.250000e+01
1.875000e+01
2.500000e+01
3.125000e+01
3.750000e+01
4.375000e+01
5.000000e+01
5.625000e+01
6.250000e+01
6.875000e+01
7.500000e+01
8.125000e+01
8.750000e+01
9.375000e+01
1.000000e+02
1.062500e+02
1.125000e+02
1.187500e+02
1.250000e+02
1.312500e+02
1.375000e+02
1.437500e+02
1.500000e+02
1.562500e+02
1.625000e+02
1.687500e+02
1.750000e+02
1.812500e+02
1.875000e+02
1.937500e+02
2.000000e+02
0.000000e+00
6.250000e+00
1.250000e+01
1.875000e+01
2.500000e+01
3.125000e+01
3.750000e+01
4.375000e+01
5.000000e+01
5.625000e+01
6.250000e+01
6.875000e+01
7.500000e+01
8.125000e+01
8.750000e+01
9.375000e+01
1.000000e+02
1.062500e+02
1.125000e+02
1.187500e+02
1.250000e+02
1.312500e+02
1.375000e+02
1.437500e+02
1.500000e+02
1.562500e+02
1.625000e+02
1.687500e+02
1.750000e+02
1.812500e+02
1.875000e+02
1.937500e+02
2.000000e+02
0.000000e+00
6.250000e+00
1.250000e+01
1.875000e+01
2.500000e+01
3.125000e+01
3.750000e+01
4.375000e+01
5.000000e+01
5.625000e+01
6.250000e+01
6.875000e+01
7.500000e+01
8.125000e+01
8.750000e+01
9.375000e+01
1.000000e+02
1.062500e+02
1.125000e+02
1.187500e+02
1.250000e+02
1.312500e+02
1.375000e+02
1.437500e+02
1.500000e+02
1.562500e+02
1.625000e+02
1.687500e+02
1.750000e+02
1.812500e+02
1.875000e+02
1.937500e+02
2.000000e+02
0.000000e+00
6.250000e+00
1.250000e+01
1.875000e+01
2.500000e+01
3.125000e+01
3.750000e+01
4.375000e+01
5.000000e+01
5.625000e+01
6.250000e+01
6.875000e+01
7.500000e+01
8.125000e+01
8.750000e+01
9.375000e+01
1.000000e+02
1.062500e+02
1.125000e+02
1.187500e+02
1.250000e+02
1.312500e+02
1.375000e+02
1.437500e+02
1.500000e+02
1.562500e+02
1.625000e+02
1.687500e+02
1.750000e+02
1.812500e+02
1.875000e+02
1.937500e+02
2.000000e+02
0.000000e+00
6.250000e+00
1.250000e+01
1.875000e+01
2.500000e+01
3.125000e+01
3.750000e+01
4.375000e+01
5.000000e+01
5.625000e+01
6.250000e+01
6.875000e+01
7.500000e+01
8.125000e+01
8.750000e+01
9.375000e+01
1.000000e+02
1.062500e+02
1.125000e+02
1.187500e+02
1.250000e+02
1.312500e+02
1.375000e+02
1.437500e+02
1.500000e+02
1.562500e+02
1.625000e+02
1.687500e+02
1.750000e+02
1.812500e+02
1.875000e+02
1.937500e+02
2.000000e+02
0.000000e+00
6.250000e+00
1.250000e+01
1.875000e+01
2.500000e+01
3.125000e+01
3.750000e+01
4.375000e+01
5.000000e+01
5.625000e+01
6.250000e+01
6.875000e+01
7.500000e+01
8.125000e+01
8.750000e+01
9.375000e+01
1.000000e+02
1.062500e+02
1.125000e+02
1.187500e+02
1.250000e+02
1.312500e+02
1.375000e+02
1.437500e+02
1.500000e+02
1.562500e+02
1.625000e+02
1.687500e+02
1.750000e+02
1.812500e+02
1.875000e+02
1.937500e+02
2.000000e+02
0.000000e+00
6.250000e+00
1.250000e+01
1.875000e+01
2.500000e+01
3.125000e+01
3.750000e+01
4.375000e+01
5.000000e+01
5.625000e+01
6.250000e+01
6.875000e+01
7.500000e+01
8.125000e+01
8.750000e+01
9.375000e+01
1.000000e+02
1.062500e+02
1.125000e+02
1.187500e+02
1.250000e+02
1.312500e+02
1.375000e+02
1.437500e+02
1.500000e+02
1.562500e+02
1.625000e+02
1.687500e+02
1.750000e+02
1.812500e+02
1.875000e+02
1.937500e+02
2.000000e+02
0.000000e+00
6.250000e+00
1.250000e+01
1.875000e+01
2.500000e+01
3.125000e+01
3.750000e+01
4.375000e+01
5.000000e+01
5.625000e+01
6.250000e+01
6.875000e+01
7.500000e+01
8.125000e+01
8.750000e+01
9.375000e+01
1.000000e+02
1.062500e+02
1.125000e+02
1.187500e+02
1.250000e+02
1.312500e+02
1.375000e+02
1.437500e+02
1.500000e+02
1.562500e+02
1.625000e+02
1.687500e+02
1.750000e+02
1.812500e+02
1.875000e+02
1.937500e+02
2.000000e+02
0.000000e+00
6.250000e+00
1.250000e+01
1.875000e+01
2.500000e+01
3.125000e+01
3.750000e+01
4.375000e+01
5.000000e+01
5.625000e+01
6.250000e+01
6.875000e+01
7.500000e+01
8.125000e+01
8.750000e+01
9.375000e+01
1.000000e+02
1.062500e+02
1.125000e+02
1.187500e+02
1.250000e+02
1.312500e+02
1.375000e+02
1.437500e+02
1.500000e+02
1.562500e+02
1.625000e+02
1.687500e+02
1.750000e+02
1.812500e+02
1.875000e+02
1.937500e+02
2.000000e+02
0.000000e+00
6.250000e+00
1.250000e+01
1.875000e+01
2.500000e+01
3.125000e+01
3.750000e+01
4.375000e+01
5.000000e+01
5.625000e+01
6.250000e+01
6.875000e+01
7.500000e+01
8.125000e+01
8.750000e+01
9.375000e+01
1.000000e+02
1.062500e+02
1.125000e+02
1.187500e+02
1.250000e+02
1.312500e+02
1.375000e+02
1.437500e+02
1.500000e+02
1.562500e+02
1.625000e+02
1.687500e+02
1.750000e+02
1.812500e+02
1.875000e+02
1.937500e+02
2.000000e+02
0.000000e+00
6.250000e+00
1.250000e+01
1.875000e+01
2.500000e+01
3.125000e+01
3.750000e+01
4.375000e+01
5.000000e+01
5.625000e+01
6.250000e+01
6.875000e+01
7.500000e+01
8.125000e+01
8.750000e+01
9.375000e+01
1.000000e+02
1.062500e+02
1.125000e+02
1.187500e+02
1.250000e+02
1.312500e+02
1.375000e+02
1.437500e+02
1.500000e+02
1.562500e+02
1.625000e+02
1.687500e+02
1.750000e+02
1.812500e+02
1.875000e+02
1.937500e+02
2.000000e+02
0.000000e+00
6.250000e+00
1.250000e+01
1.875000e+01
2.500000e+01
3.125000e+01
3.750000e+01
4.375000e+01
5.000000e+01
5.625000e+01
6.250000e+01
6.875000e+01
7.500000e+01
8.125000e+01
8.750000e+01
9.375000e+01
1.000000e+02
1.062500e+02
1.125000e+02
1.187500e+02
1.250000e+02
1.312500e+02
1.375000e+02
1.437500e+02
1.500000e+02
1.562500e+02
1.625000e+02
1.687500e+02
1.750000e+02
1.812500e+02
1.875000e+02
1.937500e+02
2.000000e+02
0.000000e+00
6.250000e+00
1.250000e+01
1.875000e+01
2.500000e+01
3.125000e+01
3.750000e+01
4.375000e+01
5.000000e+01
5.625000e+01
6.250000e+01
6.875000e+01
7.500000e+01
8.125000e+01
8.750000e+01
9.375000e+01
1.000000e+02
1.062500e+02
1.125000e+02
1.187500e+02
1.250000e+02
1.312500e+02
1.375000e+02
1.437500e+02
1.500000e+02
1.562500e+02
1.625000e+02
1.687500e+02
1.750000e+02
1.812500e+02
1.875000e+02
1.937500e+02
2.000000e+02
0.000000e+00
6.250000e+00
1.250000e+01
1.875000e+01
2.500000e+01
3.125000e+01
3.750000e+01
4.375000e+01
5.000000e+01
5.625000e+01
6.250000e+01
6.875000e+01
7.500000e+01
8.125000e+01
8.750000e+01
9.375000e+01
1.000000e+02
1.062500e+02
1.125000e+02
1.187500e+02
1.250000e+02
1.312500e+02
1.375000e+02
1.437500e+02
1.500000e+02
1.562500e+02
1.625000e+02
1.687500e+02
1.750000e+02
1.812500e+02
1.875000e+02
1.937500e+02
2.000000e+02
0.000000e+00
6.250000e+00
1.250000e+01
1.875000e+01
2.500000e+01
3.125000e+01
3.750000e+01
4.375000e+01
5.000000e+01
5.625000e+01
6.250000e+01
6.875000e+01
7.500000e+01
8.125000e+01
8.750000e+01
9.375000e+01
1.000000e+02
1.062500e+02
1.125000e+02
1.187500e+02
1.250000e+02
1.312500e+02
1.375000e+02
1.437500e+02
1.500000e+02
1.562500e+02
1.625000e+02
1.687500e+02
1.750000e+02
1.812500e+02
1.875000e+02
1.937500e+02
2.000000e+02
0.000000e+00
0.000000e+00
0.000000e+00
0.000000e+00
0.000000e+00
0.000000e+00
0.000000e+00
0.000000e+00
0.000000e+00
0.000000e+00
0.000000e+00
0.000000e+00
0.000000e+00
0.000000e+00
0.000000e+00
0.000000e+00
0.000000e+00
0.000000e+00
0.000000e+00
0.000000e+00
0.000000e+00
0.000000e+00
0.000000e+00
0.000000e+00
0.000000e+00
0.000000e+00
0.000000e+00
0.000000e+00
0.000000e+00
0.000000e+00
0.000000e+00
0.000000e+00
0.000000e+00
6.250000e+00
6.250000e+00
6.250000e+00
6.250000e+00
6.250000e+00
6.250000e+00
6.250000e+00
6.250000e+00
6.250000e+00
6.250000e+00
6.250000e+00
6.250000e+00
6.250000e+00
6.250000e+00
6.250000e+00
6.250000e+00
6.250000e+00
6.250000e+00
6.250000e+00
6.250000e+00
6.250000e+00
6.250000e+00
6.250000e+00
6.250000e+00
6.250000e+00
6.250000e+00
6.250000e+00
6.250000e+00
6.250000e+00
6.250000e+00
6.250000e+00
6.250000e+00
6.250000e+00
1.250000e+01
1.250000e+01
1.250000e+01
1.250000e+01
1.250000e+01
1.250000e+01
1.250000e+01
1.250000e+01
1.250000e+01
1.250000e+01
1.250000e+01
1.250000e+01
1.250000e+01
1.250000e+01
1.250000e+01
1.250000e+01
1.250000e+01
1.250000e+01
1.250000e+01
1.250000e+01
1.250000e+01
1.250000e+01
1.250000e+01
1.250000e+01
1.250000e+01
1.250000e+01
1.250000e+01
1.250000e+01
1.250000e+01
1.250000e+01
1.250000e+01
1.250000e+01
1.250000e+01
1.875000e+01
1.875000e+01
1.875000e+01
1.875000e+01
1.875000e+01
1.875000e+01
1.875000e+01
1.875000e+01
1.875000e+01
1.875000e+01
1.875000e+01
1.875000e+01
1.875000e+01
1.875000e+01
1.875000e+01
1.875000e+01
1.875000e+01
1.875000e+01
1.875000e+01
1.875000e+01
1.875000e+01
1.875000e+01
1.875000e+01
1.875000e+01
1.875000e+01
1.875000e+01
1.875000e+01
1.875000e+01
1.875000e+01
1.875000e+01
1.875000e+01
1.875000e+01
1.875000e+01
2.500000e+01
2.500000e+01
2.500000e+01
2.500000e+01
2.500000e+01
2.500000e+01
2.500000e+01
2.500000e+01
2.500000e+01
2.500000e+01
2.500000e+01
2.500000e+01
2.500000e+01
2.500000e+01
2.500000e+01
2.500000e+01
2.500000e+01
2.500000e+01
2.500000e+01
2.500000e+01
2.500000e+01
2.500000e+01
2.500000e+01
2.500000e+01
2.500000e+01
2.500000e+01
2.500000e+01
2.500000e+01
2.500000e+01
2.500000e+01
2.500000e+01
2.500000e+01
2.500000e+01
3.125000e+01
3.125000e+01
3.125000e+01
3.125000e+01
3.125000e+01
3.125000e+01
3.125000e+01
3.125000e+01
3.125000e+01
3.125000e+01
3.125000e+01
3.125000e+01
3.125000e+01
3.125000e+01
3.125000e+01
3.125000e+01
3.125000e+01
3.125000e+01
3.125000e+01
3.125000e+01
3.125000e+01
3.125000e+01
3.125000e+01
3.125000e+01
3.125000e+01
3.125000e+01
3.125000e+01
3.125000e+01
3.125000e+01
3.125000e+01
3.125000e+01
3.125000e+01
3.125000e+01
3.750000e+01
3.750000e+01
3.750000e+01
3.750000e+01
3.750000e+01
3.750000e+01
3.750000e+01
3.750000e+01
3.750000e+01
3.750000e+01
3.750000e+01
3.750000e+01
3.750000e+01
3.750000e+01
3.750000e+01
3.750000e+01
3.750000e+01
3.750000e+01
3.750000e+01
3.750000e+01
3.750000e+01
3.750000e+01
3.750000e+01
3.750000e+01
3.750000e+01
3.750000e+01
3.750000e+01
3.750000e+01
3.750000e+01
3.750000e+01
3.750000e+01
3.750000e+01
3.750000e+01
4.375000e+01
4.375000e+01
4.375000e+01
4.375000e+01
4.375000e+01
4.375000e+01
4.375000e+01
4.375000e+01
4.375000e+01
4.375000e+01
4.375000e+01
4.375000e+01
4.375000e+01
4.375000e+01
4.375000e+01
4.375000e+01
4.375000e+01
4.375000e+01
4.375000e+01
4.375000e+01
4.375000e+01
4.375000e+01
4.375000e+01
4.375000e+01
4.375000e+01
4.375000e+01
4.375000e+01
4.375000e+01
4.375000e+01
4.375000e+01
4.375000e+01
4.375000e+01
4.375000e+01
5.000000e+01
5.000000e+01
5.000000e+01
5.000000e+01
5.000000e+01
5.000000e+01
5.000000e+01
5.000000e+01
5.000000e+01
5.000000e+01
5.000000e+01
5.000000e+01
5.000000e+01
5.000000e+01
5.000000e+01
5.000000e+01
5.000000e+01
5.000000e+01
5.000000e+01
5.000000e+01
5.000000e+01
5.000000e+01
5.000000e+01
5.000000e+01
5.000000e+01
5.000000e+01
5.000000e+01
5.000000e+01
5.000000e+01
5.000000e+01
5.000000e+01
5.000000e+01
5.000000e+01
5.625000e+01
5.625000e+01
5.625000e+01
5.625000e+01
5.625000e+01
5.625000e+01
5.625000e+01
5.625000e+01
5.625000e+01
5.625000e+01
5.625000e+01
5.625000e+01
5.625000e+01
5.625000e+01
5.625000e+01
5.625000e+01
5.625000e+01
5.625000e+01
5.625000e+01
5.625000e+01
5.625000e+01
5.625000e+01
5.625000e+01
5.625000e+01
5.625000e+01
5.625000e+01
5.625000e+01
5.625000e+01
5.625000e+01
5.625000e+01
5.625000e+01
5.625000e+01
5.625000e+01
6.250000e+01
6.250000e+01
6.250000e+01
6.250000e+01
6.250000e+01
6.250000e+01
6.250000e+01
6.250000e+01
6.250000e+01
6.250000e+01
6.250000e+01
6.250000e+01
6.250000e+01
6.250000e+01
6.250000e+01
6.250000e+01
6.250000e+01
6.250000e+01
6.250000e+01
6.250000e+01
6.250000e+01
6.250000e+01
6.250000e+01
6.250000e+01
6.250000e+01
6.250000e+01
6.250000e+01
6.250000e+01
6.250000e+01
6.250000e+01
6.250000e+01
6.250000e+01
6.250000e+01
6.875000e+01
6.875000e+01
6.875000e+01
6.875000e+01
6.875000e+01
6.875000e+01
6.875000e+01
6.875000e+01
6.875000e+01
6.875000e+01
6.875000e+01
6.875000e+01
6.875000e+01
6.875000e+01
6.875000e+01
6.875000e+01
6.875000e+01
6.875000e+01
6.875000e+01
6.875000e+01
6.875000e+01
6.875000e+01
6.875000e+01
6.875000e+01
6.875000e+01
6.875000e+01
6.875000e+01
6.875000e+01
6.875000e+01
6.875000e+01
6.875000e+01
6.875000e+01
6.875000e+01
7.500000e+01
7.500000e+01
7.500000e+01
7.500000e+01
7.500000e+01
7.500000e+01
7.500000e+01
7.500000e+01
7.500000e+01
7.500000e+01
7.500000e+01
7.500000e+01
7.500000e+01
7.500000e+01
7.500000e+01
7.500000e+01
7.500000e+01
7.500000e+01
7.500000e+01
7.500000e+01
7.500000e+01
7.500000e+01
7.500000e+01
7.500000e+01
7.500000e+01
7.500000e+01
7.500000e+01
7.500000e+01
7.500000e+01
7.500000e+01
7.500000e+01
7.500000e+01
7.500000e+01
8.125000e+01
8.125000e+01
8.125000e+01
8.125000e+01
8.125000e+01
8.125000e+01
8.125000e+01
8.125000e+01
8.125000e+01
8.125000e+01
8.125000e+01
8.125000e+01
8.125000e+01
8.125000e+01
8.125000e+01
8.125000e+01
8.125000e+01
8.125000e+01
8.125000e+01
8.125000e+01
8.125000e+01
8.125000e+01
8.125000e+01
8.125000e+01
8.125000e+01
8.125000e+01
8.125000e+01
8.125000e+01
8.125000e+01
8.125000e+01
8.125000e+01
8.125000e+01
8.125000e+01
8.750000e+01
8.750000e+01
8.750000e+01
8.750000e+01
8.750000e+01
8.750000e+01
8.750000e+01
8.750000e+01
8.750000e+01
8.750000e+01
8.750000e+01
8.750000e+01
8.750000e+01
8.750000e+01
8.750000e+01
8.750000e+01
8.750000e+01
8.750000e+01
8.750000e+01
8.750000e+01
8.750000e+01
8.750000e+01
8.750000e+01
8.750000e+01
8.750000e+01
8.750000e+01
8.750000e+01
8.750000e+01
8.750000e+01
8.750000e+01
8.750000e+01
8.750000e+01
8.750000e+01
9.375000e+01
9.375000e+01
9.375000e+01
9.375000e+01
9.375000e+01
9.375000e+01
9.375000e+01
9.375000e+01
9.375000e+01
9.375000e+01
9.375000e+01
9.375000e+01
9.375000e+01
9.375000e+01
9.375000e+01
9.375000e+01
9.375000e+01
9.375000e+01
9.375000e+01
9.375000e+01
9.375000e+01
9.375000e+01
9.375000e+01
9.375000e+01
9.375000e+01
9.375000e+01
9.375000e+01
9.375000e+01
9.375000e+01
9.375000e+01
9.375000e+01
9.375000e+01
9.375000e+01
1.000000e+02
1.000000e+02
1.000000e+02
1.000000e+02
1.000000e+02
1.000000e+02
1.000000e+02
1.000000e+02
1.000000e+02
1.000000e+02
1.000000e+02
1.000000e+02
1.000000e+02
1.000000e+02
1.000000e+02
1.000000e+02
1.000000e+02
1.000000e+02
1.000000e+02
1.000000e+02
1.000000e+02
1.000000e+02
1.000000e+02
1.000000e+02
1.000000e+02
1.000000e+02
1.000000e+02
1.000000e+02
1.000000e+02
1.000000e+02
1.000000e+02
1.000000e+02
1.000000e+02
0.000000e+00
-3.793558e-01
-6.809221e-01
-9.759946e-01
-1.277333e+00
-1.569748e+00
-1.861957e+00
-2.155657e+00
-2.447676e+00
-2.738477e+00
-3.028833e+00
-3.318293e+00
-3.606486e+00
-3.893319e+00
-4.178557e+00
-4.461808e+00
-4.742597e+00
-5.020288e+00
-5.293982e+00
-5.562488e+00
-5.824481e+00
-6.078811e+00
-6.324886e+00
-6.562985e+00
-6.794458e+00
-7.021832e+00
-7.248896e+00
-7.480958e+00
-7.725704e+00
-7.994264e+00
-8.293229e+00
-8.607176e+00
-8.788479e+00
0.000000e+00
-2.382660e-01
-4.931103e-01
-7.495995e-01
-1.013153e+00
-1.269494e+00
-1.525327e+00
-1.782564e+00
-2.038345e+00
-2.292884e+00
-2.546931e+00
-2.800142e+00
-3.052180e+00
-3.302969e+00
-3.552325e+00
-3.799912e+00
-4.045316e+00
-4.287979e+00
-4.527097e+00
-4.761565e+00
-4.990069e+00
-5.211318e+00
-5.424324e+00
-5.628626e+00
-5.824367e+00
-6.012235e+00
-6.193284e+00
-6.368576e+00
-6.538022e+00
-6.695297e+00
-6.816015e+00
-6.878108e+00
-6.959054e+00
0.000000e+00
-1.749501e-01
-3.632600e-01
-5.722117e-01
-7.915131e-01
-1.008698e+00
-1.227337e+00
-1.447558e+00
-1.667121e+00
-1.886031e+00
-2.104574e+00
-2.322396e+00
-2.539194e+00
-2.754817e+00
-2.969013e+00
-3.181413e+00
-3.391548e+00
-3.598802e+00
-3.802331e+00
-4.001028e+00
-4.193572e+00
-4.378563e+00
-4.554685e+00
-4.720810e+00
-4.875979e+00
-5.019237e+00
-5.149275e+00
-5.263710e+00
-5.357481e+00
-5.419662e+00
-5.436829e+00
-5.431401e+00
-5.513301e+00
0.000000e+00
-1.344021e-01
-2.788953e-01
-4.408129e-01
-6.142201e-01
-7.910174e-01
-9.714477e-01
-1.153905e+00
-1.336762e+00
-1.519725e+00
-1.702545e+00
-1.884794e+00
-2.066154e+00
-2.246350e+00
-2.425033e+00
-2.601761e+00
-2.775983e+00
-2.947004e+00
-3.113934e+00
-3.275671e+00
-3.430917e+00
-3.578232e+00
-3.716096e+00
-3.842935e+00
-3.957063e+00
-4.056522e+00
-4.138803e+00
-4.200464e+00
-4.236861e+00
-4.243631e+00
-4.228722e+00
-4.231192e+00
-4.306331e+00
0.000000e+00
-1.083142e-01
-2.212852e-01
-3.444595e-01
-4.756146e-01
-6.130552e-01
-7.546343e-01
-8.986088e-01
-1.043930e+00
-1.189900e+00
-1.335949e+00
-1.481620e+00
-1.626537e+00
-1.770324e+00
-1.912560e+00
-2.052753e+00
-2.190305e+00
-2.324486e+00
-2.454404e+00
-2.578996e+00
-2.697018e+00
-2.807054e+00
-2.907531e+00
-2.996715e+00
-3.072695e+00
-3.133333e+00
-3.176270e+00
-3.199176e+00
-3.200881e+00
-3.185316e+00
-3.171527e+00
-3.194807e+00
-3.268493e+00
0.000000e+00
-8.180252e-02
-1.666071e-01
-2.562278e-01
-3.517529e-01
-4.522188e-01
-5.563707e-01
-6.629723e-01
-7.710950e-01
-8.800174e-01
-9.891570e-01
-1.098049e+00
-1.206289e+00
-1.313473e+00
-1.419166e+00
-1.522864e+00
-1.623971e+00
-1.721775e+00
-1.815431e+00
-1.903946e+00
-1.986171e+00
-2.060796e+00
-2.126360e+00
-2.181276e+00
-2.223879e+00
-2.252550e+00
-2.266012e+00
-2.264060e+00
-2.249249e+00
-2.230369e+00
-2.226905e+00
-2.259694e+00
-2.332243e+00
0.000000e+00
-5.468772e-02
-1.111085e-01
-1.703405e-01
-2.329534e-01
-2.988254e-01
-3.673005e-01
-4.376480e-01
-5.092046e-01
-5.814098e-01
-6.537988e-01
-7.259790e-01
-7.975921e-01
-8.682764e-01
-9.376361e-01
-1.005214e+00
-1.070471e+00
-1.132764e+00
-1.191339e+00
-1.245321e+00
-1.293710e+00
-1.335393e+00
-1.369174e+00
-1.393844e+00
-1.408313e+00
-1.411855e+00
-1.404570e+00
-1.388218e+00
-1.367620e+00
-1.352523e+00
-1.357368e+00
-1.393922e+00
-1.460549e+00
0.000000e+00
-2.740658e-02
-5.566914e-02
-8.521404e-02
-1.163203e-01
-1.489708e-01
-1.829241e-01
-2.178319e-01
-2.533463e-01
-2.891526e-01
-3.249739e-01
-3.605586e-01
-3.956601e-01
-4.300154e-01
-4.633232e-01
-4.952246e-01
-5.252865e-01
-5.529885e-01
-5.777161e-01
-5.987616e-01
-6.153372e-01
-6.266067e-01
-6.317484e-01
-6.300645e-01
-6.211621e-01
-6.052455e-01
-5.835687e-01
-5.590850e-01
-5.372185e-01
-5.262243e-01
-5.356014e-01
-5.708496e-01
-6.276976e-01
0.000000e+00
-1.584452e-04
-3.038122e-04
-4.282824e-04
-5.201273e-04
-5.641971e-04
-5.414633e-04
-4.277179e-04
-1.916062e-04
2.079702e-04
8.252057e-04
1.731795e-03
3.022769e-03
4.824130e-03
7.302393e-03
1.067566e-02
1.522480e-02
2.130196e-02
2.933203e-02
3.980175e-02
5.323092e-02
7.011946e-02
9.086273e-02
1.156232e-01
1.441434e-01
1.754847e-01
2.076913e-01
2.374310e-01
2.597940e-01
2.686872e-01
2.586180e-01
2.280829e-01
1.824388e-01
0.000000e+00
2.709062e-02
5.506157e-02
8.435537e-02
1.152744e-01
1.478309e-01
1.818204e-01
2.169412e-01
2.529058e-01
2.894787e-01
3.264871e-01
3.638162e-01
4.013999e-01
4.392130e-01
4.772669e-01
5.156113e-01
5.543392e-01
5.935921e-01
6.335571e-01
6.744496e-01
7.164732e-01
7.597570e-01
8.042664e-01
8.496833e-01
8.952511e-01
9.395862e-01
9.804863e-01
1.014819e+00
1.038663e+00
1.047989e+00
1.040174e+00
1.016102e+00
9.815626e-01
0.000000e+00
5.437450e-02
1.105011e-01
1.694759e-01
2.318909e-01
2.976512e-01
3.661334e-01
4.366481e-01
5.085859e-01
5.814567e-01
6.548867e-01
7.286017e-01
8.023967e-01
8.761081e-01
9.495959e-01
1.022733e+00
1.095405e+00
1.167506e+00
1.238943e+00
1.309609e+00
1.379347e+00
1.447890e+00
1.514795e+00
1.579356e+00
1.640500e+00
1.696679e+00
1.745795e+00
1.785230e+00
1.812138e+00
1.824142e+00
1.820504e+00
1.803489e+00
1.779157e+00
0.000000e+00
8.149475e-02
1.660025e-01
2.553581e-01
3.506699e-01
4.509949e-01
5.551032e-01
6.617915e-01
7.701745e-01
8.795865e-01
9.895163e-01
1.099590e+00
1.209514e+00
1.319028e+00
1.427868e+00
1.535747e+00
1.642340e+00
1.747281e+00
1.850150e+00
1.950464e+00
2.047641e+00
2.140987e+00
2.229661e+00
2.312654e+00
2.388742e+00
2.456438e+00
2.513973e+00
2.559388e+00
2.590824e+00
2.607120e+00
2.608706e+00
2.598610e+00
2.583155e+00
0.000000e+00
1.080197e-01
2.206990e-01
3.436081e-01
4.745365e-01
6.118022e-01
7.532716e-01
8.972222e-01
1.042635e+00
1.188850e+00
1.335342e+00
1.481713e+00
1.627651e+00
1.772856e+00
1.916989e+00
2.059647e+00
2.200326e+00
2.338399e+00
2.473088e+00
2.603448e+00
2.728385e+00
2.846694e+00
2.957121e+00
3.058406e+00
3.149288e+00
3.228491e+00
3.294718e+00
3.346729e+00
3.383560e+00
3.404962e+00
3.412072e+00
3.408275e+00
3.400098e+00
0.000000e+00
1.341512e-01
2.783870e-01
4.400691e-01
6.132604e-01
7.898642e-01
9.701292e-01
1.152454e+00
1.335223e+00
1.518162e+00
1.701040e+00
1.883449e+00
2.065090e+00
2.245702e+00
2.424931e+00
2.602308e+00
2.777214e+00
2.948801e+00
3.115903e+00
3.277018e+00
3.430393e+00
3.574193e+00
3.706684e+00
3.826356e+00
3.931959e+00
4.022500e+00
4.097226e+00
4.155658e+00
4.197721e+00
4.223985e+00
4.236112e+00
4.237569e+00
4.234832e+00
0.000000e+00
1.748121e-01
3.629731e-01
5.717800e-01
7.909370e-01
1.007972e+00
1.226458e+00
1.446516e+00
1.665900e+00
1.884612e+00
2.102930e+00
2.320487e+00
2.536957e+00
2.752140e+00
2.965710e+00
3.177184e+00
3.385895e+00
3.590839e+00
3.790478e+00
3.982683e+00
4.164911e+00
4.334556e+00
4.489295e+00
4.627288e+00
4.747245e+00
4.848411e+00
4.930544e+00
4.993938e+00
5.039482e+00
5.068738e+00
5.084077e+00
5.089069e+00
5.089642e+00
0.000000e+00
2.382862e-01
4.931317e-01
7.496164e-01
1.013157e+00
1.269466e+00
1.525259e+00
1.782433e+00
2.038110e+00
2.292490e+00
2.546297e+00
2.799151e+00
3.050662e+00
3.300665e+00
3.548848e+00
3.794698e+00
4.037497e+00
4.276094e+00
4.508585e+00
4.732204e+00
4.943595e+00
5.139332e+00
5.316414e+00
5.472551e+00
5.606234e+00
5.716739e+00
5.804134e+00
5.869358e+00
5.914322e+00
5.941957e+00
5.956115e+00
5.961260e+00
5.962515e+00
0.000000e+00
3.795054e-01
6.812234e-01
9.764631e-01
1.277962e+00
1.570526e+00
1.862898e+00
2.156766e+00
2.448941e+00
2.739879e+00
3.030332e+00
3.319813e+00
3.607898e+00
3.894406e+00
4.178965e+00
4.460974e+00
4.739567e+00
5.013315e+00
5.279858e+00
5.535803e+00
5.777065e+00
5.999484e+00
6.199374e+00
6.373829e+00
6.520817e+00
6.639215e+00
6.728916e+00
6.791049e+00
6.828299e+00
6.845228e+00
6.848424e+00
6.845974e+00
6.844569e+00
0.000000e+00
-2.329370e-01
-4.339560e-01
-6.736548e-01
-9.444094e-01
-1.247418e+00
-1.586856e+00
-1.962162e+00
-2.373274e+00
-2.821083e+00
-3.305784e+00
-3.827282e+00
-4.385598e+00
-4.980679e+00
-5.612317e+00
-6.280204e+00
-6.983917e+00
-7.722870e+00
-8.496272e+00
-9.303135e+00
-1.014236e+01
-1.101289e+01
-1.191393e+01
-1.284523e+01
-1.380745e+01
-1.480267e+01
-1.583507e+01
-1.691199e+01
-1.804535e+01
-1.925533e+01
-2.058887e+01
-2.217325e+01
-2.433074e+01
0.000000e+00
-1.448305e-01
-3.550753e-01
-5.907327e-01
-8.616052e-01
-1.165664e+00
-1.504671e+00
-1.879917e+00
-2.291429e+00
-2.739454e+00
-3.224337e+00
-3.746153e+00
-4.304858e+00
-4.900375e+00
-5.532544e+00
-6.201088e+00
-6.905619e+00
-7.645611e+00
-8.420360e+00
-9.228953e+00
-1.007031e+01
-1.094329e+01
-1.184694e+01
-1.278078e+01
-1.374522e+01
-1.474207e+01
-1.577532e+01
-1.685218e+01
-1.798495e+01
-1.919601e+01
-2.053160e+01
-2.208779e+01
-2.407253e+01
0.000000e+00
-1.088816e-01
-2.945168e-01
-5.250014e-01
-7.931165e-01
-1.096245e+00
-1.434527e+00
-1.809358e+00
-2.220855e+00
-2.668981e+00
-3.154026e+00
-3.676124e+00
-4.235219e+00
-4.831220e+00
-5.463989e+00
-6.133279e+00
-6.838741e+00
-7.579903e+00
-8.356134e+00
-9.166593e+00
-1.001024e+01
-1.088592e+01
-1.179262e+01
-1.272976e+01
-1.369764e+01
-1.469801e+01
-1.573489e+01
-1.681592e+01
-1.795492e+01
-1.917600e+01
-2.051017e+01
-2.197213e+01
-2.353941e+01
0.000000e+00
-9.679582e-02
-2.620844e-01
-4.799371e-01
-7.416880e-01
-1.041205e+00
-1.377521e+00
-1.751183e+00
-2.162065e+00
-2.609986e+00
-3.095084e+00
-3.617428e+00
-4.176949e+00
-4.773550e+00
-5.407096e+00
-6.077368e+00
-6.784050e+00
-7.526715e+00
-8.304781e+00
-9.117461e+00
-9.963763e+00
-1.084257e+01
-1.175288e+01
-1.269409e+01
-1.366646e+01
-1.467169e+01
-1.571373e+01
-1.680009e+01
-1.794400e+01
-1.916490e+01
-2.046743e+01
-2.180842e+01
-2.305048e+01
0.000000e+00
-9.564902e-02
-2.484685e-01
-4.545127e-01
-7.071116e-01
-1.001116e+00
-1.334167e+00
-1.705774e+00
-2.115443e+00
-2.562819e+00
-3.047813e+00
-3.570362e+00
-4.130359e+00
-4.727688e+00
-5.362209e+00
-6.033717e+00
-6.741924e+00
-7.486428e+00
-8.266675e+00
-9.081915e+00
-9.931199e+00
-1.081346e+01
-1.172771e+01
-1.267332e+01
-1.365043e+01
-1.466044e+01
-1.570662e+01
-1.679498e+01
-1.793491e+01
-1.913552e+01
-2.038200e+01
-2.160483e+01
-2.269695e+01
0.000000e+00
-9.460063e-02
-2.418136e-01
-4.397867e-01
-6.849917e-01
-9.734945e-01
-1.303023e+00
-1.672305e+00
-2.080546e+00
-2.527225e+00
-3.012038e+00
-3.534784e+00
-4.095304e+00
-4.693457e+00
-5.329091e+00
-6.002012e+00
-6.711947e+00
-7.458512e+00
-8.241165e+00
-9.059170e+00
-9.911599e+00
-1.079740e+01
-1.171554e+01
-1.266526e+01
-1.364636e+01
-1.465956e+01
-1.570673e+01
-1.679108e+01
-1.791617e+01
-1.908048e+01
-2.025759e+01
-2.138530e+01
-2.238242e+01
0.000000e+00
-9.353583e-02
-2.377184e-01
-4.310666e-01
-6.712704e-01
-9.557071e-01
-1.282285e+00
-1.649572e+00
-2.056582e+00
-2.502646e+00
-2.987316e+00
-3.510293e+00
-4.071368e+00
-4.670377e+00
-5.307166e+00
-5.981549e+00
-6.693268e+00
-7.441947e+00
-8.227048e+00
-9.047829e+00
-9.903341e+00
-1.079247e+01
-1.171404e+01
-1.266700e+01
-1.365057e+01
-1.466439e+01
-1.570850e+01
-1.678275e+01
-1.788509e+01
-1.900608e+01
-2.011707e+01
-2.116794e+01
-2.209893e+01
0.000000e+00
-9.286350e-02
-2.354018e-01
-4.263198e-01
-6.638032e-01
-9.458199e-01
-1.270554e+00
-1.636574e+00
-2.042821e+00
-2.488542e+00
-2.973213e+00
-3.496484e+00
-4.058118e+00
-4.657945e+00
-5.295819e+00
-5.971570e+00
-6.684960e+00
-7.435622e+00
-8.223012e+00
-9.046360e+00
-9.904645e+00
-1.079661e+01
-1.172082e+01
-1.267576e+01
-1.365988e+01
-1.467159e+01
-1.570893e+01
-1.676877e+01
-1.784484e+01
-1.892383e+01
-1.997915e+01
-2.097177e+01
-2.185863e+01
0.000000e+00
-9.264747e-02
-2.346750e-01
-4.248579e-01
-6.615158e-01
-9.427942e-01
-1.266977e+00
-1.632657e+00
-2.038764e+00
-2.484524e+00
-2.969401e+00
-3.493036e+00
-4.055199e+00
-4.655733e+00
-5.294518e+00
-5.971411e+00
-6.686200e+00
-7.438536e+00
-8.227867e+00
-9.053371e+00
-9.913908e+00
-1.080800e+01
-1.173386e+01
-1.268939e+01
-1.367220e+01
-1.467944e+01
-1.570743e+01
-1.675080e+01
-1.780088e+01
-1.884329e+01
-1.985510e+01
-2.080643e+01
-2.166579e+01
0.000000e+00
-9.289772e-02
-2.354886e-01
-4.264908e-01
-6.640991e-01
-9.462896e-01
-1.271255e+00
-1.637575e+00
-2.044207e+00
-2.490416e+00
-2.975706e+00
-3.499758e+00
-4.062379e+00
-4.663450e+00
-5.302887e+00
-5.980588e+00
-6.696378e+00
-7.449934e+00
-8.240699e+00
-9.067787e+00
-9.929907e+00
-1.082531e+01
-1.175178e+01
-1.270660e+01
-1.368655e+01
-1.468770e+01
-1.570503e+01
-1.673179e+01
-1.775834e+01
-1.877090e+01
-1.975048e+01
-2.067430e+01
-2.151880e+01
0.000000e+00
-9.359514e-02
-2.378758e-01
-4.313863e-01
-6.718331e-01
-9.566075e-01
-1.283634e+00
-1.651503e+00
-2.059257e+00
-2.506264e+00
-2.992126e+00
-3.516607e+00
-4.079577e+00
-4.680970e+00
-5.320748e+00
-5.998857e+00
-6.715165e+00
-7.469389e+00
-8.260974e+00
-9.088971e+00
-9.951920e+00
-1.084777e+01
-1.177386e+01
-1.272690e+01
-1.370290e+01
-1.469707e+01
-1.570352e+01
-1.671477e+01
-1.772118e+01
-1.871037e+01
-1.966704e+01
-2.057395e+01
-2.141340e+01
0.000000e+00
-9.466632e-02
-2.420096e-01
-4.402128e-01
-6.857654e-01
-9.747498e-01
-1.304917e+00
-1.675025e+00
-2.084319e+00
-2.532332e+00
-3.018826e+00
-3.543688e+00
-4.106865e+00
-4.708349e+00
-5.348147e+00
-6.026247e+00
-6.742567e+00
-7.496866e+00
-8.288607e+00
-9.116784e+00
-9.979769e+00
-1.087522e+01
-1.180004e+01
-1.275042e+01
-1.372179e+01
-1.470872e+01
-1.570477e+01
-1.670226e+01
-1.769202e+01
-1.866333e+01
-1.960421e+01
-2.050201e+01
-2.134397e+01
0.000000e+00
-9.569377e-02
-2.486599e-01
-4.549889e-01
-7.080203e-01
-1.002621e+00
-1.336458e+00
-1.709082e+00
-2.120044e+00
-2.569054e+00
-3.056103e+00
-3.581229e+00
-4.144451e+00
-4.745808e+00
-5.385343e+00
-6.063070e+00
-6.778939e+00
-7.532752e+00
-8.323992e+00
-9.151603e+00
-1.001380e+01
-1.090796e+01
-1.183067e+01
-1.277767e+01
-1.374399e+01
-1.472378e+01
-1.571034e+01
-1.669601e+01
-1.767228e+01
-1.863004e+01
-1.956017e+01
-2.045414e+01
-2.130411e+01
0.000000e+00
-9.679092e-02
-2.622341e-01
-4.804091e-01
-7.426513e-01
-1.042839e+00
-1.380040e+00
-1.754842e+00
-2.167173e+00
-2.616922e+00
-3.104315e+00
-3.629529e+00
-4.192630e+00
-4.793685e+00
-5.432753e+00
-6.109849e+00
-6.824924e+00
-7.577791e+00
-8.367929e+00
-9.194220e+00
-1.005474e+01
-1.094667e+01
-1.186633e+01
-1.280924e+01
-1.377017e+01
-1.474307e+01
-1.572114e+01
-1.669686e+01
-1.766233e+01
-1.860976e+01
-1.953241e+01
-2.042553e+01
-2.128663e+01
0.000000e+00
-1.088318e-01
-2.946277e-01
-5.254480e-01
-7.940788e-01
-1.097912e+00
-1.437121e+00
-1.813150e+00
-2.226167e+00
-2.676210e+00
-3.163659e+00
-3.688760e+00
-4.251590e+00
-4.852226e+00
-5.490719e+00
-6.167057e+00
-6.881152e+00
-7.632763e+00
-8.421292e+00
-9.245521e+00
-1.010340e+01
-1.099201e+01
-1.190758e+01
-1.284555e+01
-1.380063e+01
-1.476677e+01
-1.573718e+01
-1.670454e+01
-1.766139e+01
-1.860088e+01
-1.951800e+01
-2.041112e+01
-2.128347e+01
0.000000e+00
-1.447788e-01
-3.551789e-01
-5.911688e-01
-8.625599e-01
-1.167332e+00
-1.507276e+00
-1.883731e+00
-2.296778e+00
-2.746736e+00
-3.234042e+00
-3.758879e+00
-4.321333e+00
-4.921485e+00
-5.559362e+00
-6.234901e+00
-6.947939e+00
-7.698103e+00
-8.484614e+00
-9.306078e+00
-1.016034e+01
-1.104446e+01
-1.195473e+01
-1.288671e+01
-1.383521e+01
-1.479432e+01
-1.575743e+01
-1.671743e+01
-1.766722e+01
-1.860053e+01
-1.951332e+01
-2.040591e+01
-2.128596e+01
0.000000e+00
-2.329246e-01
-4.340867e-01
-6.741179e-01
-9.453870e-01
-1.249108e+00
-1.589487e+00
-1.966000e+00
-2.378643e+00
-2.828378e+00
-3.315486e+00
-3.839979e+00
-4.401999e+00
-5.001640e+00
-5.638869e+00
-6.313564e+00
-7.025459e+00
-7.773980e+00
-8.558076e+00
-9.376103e+00
-1.022579e+01
-1.110425e+01
-1.200793e+01