TITLE = "Solution"
VARIABLES = x, y, u, v, psiu, psiv, t, stress
ZONE T="structure" N=561 E=512 F=FEBLOCK ET=QUADRILATERAL VARLOCATION=([7,8]=cellcentered)
0.000000e+00
6.250000e+00
1.250000e+01
1.875000e+01
2.500000e+01
3.125000e+01
3.750000e+01
4.375000e+01
5.000000e+01
5.625000e+01
6.250000e+01
6.875000e+01
7.500000e+01
8.125000e+01
8.750000e+01
9.375000e+01
1.000000e+02
1.062500e+02
1.125000e+02
1.187500e+02
1.250000e+02
1.312500e+02
1.375000e+02
1.437500e+02
1.500000e+02
1.562500e+02
1.625000e+02
1.687500e+02
1.750000e+02
1.812500e+02
1.875000e+02
1.937500e+02
2.000000e+02
0.000000e+00
6.250000e+00
1.250000e+01
1.875000e+01
2.500000e+01
3.125000e+01
3.750000e+01
4.375000e+01
5.000000e+01
5.625000e+01
6.250000e+01
6.875000e+01
7.500000e+01
8.125000e+01
8.750000e+01
9.375000e+01
1.000000e+02
1.062500e+02
1.125000e+02
1.187500e+02
1.250000e+02
1.312500e+02
1.375000e+02
1.437500e+02
1.500000e+02
1.562500e+02
1.625000e+02
1.687500e+02
1.750000e+02
1.812500e+02
1.875000e+02
1.937500e+02
2.000000e+02
0.000000e+00
6.250000e+00
1.250000e+01
1.875000e+01
2.500000e+01
3.125000e+01
3.750000e+01
4.375000e+01
5.000000e+01
5.625000e+01
6.250000e+01
6.875000e+01
7.500000e+01
8.125000e+01
8.750000e+01
9.375000e+01
1.000000e+02
1.062500e+02
1.125000e+02
1.187500e+02
1.250000e+02
1.312500e+02
1.375000e+02
1.437500e+02
1.500000e+02
1.562500e+02
1.625000e+02
1.687500e+02
1.750000e+02
1.812500e+02
1.875000e+02
1.937500e+02
2.000000e+02
0.000000e+00
6.250000e+00
1.250000e+01
1.875000e+01
2.500000e+01
3.125000e+01
3.750000e+01
4.375000e+01
5.000000e+01
5.625000e+01
6.250000e+01
6.875000e+01
7.500000e+01
8.125000e+01
8.750000e+01
9.375000e+01
1.000000e+02
1.062500e+02
1.125000e+02
1.187500e+02
1.250000e+02
1.312500e+02
1.375000e+02
1.437500e+02
1.500000e+02
1.562500e+02
1.625000e+02
1.687500e+02
1.750000e+02
1.812500e+02
1.875000e+02
1.937500e+02
2.000000e+02
0.000000e+00
6.250000e+00
1.250000e+01
1.875000e+01
2.500000e+01
3.125000e+01
3.750000e+01
4.375000e+01
5.000000e+01
5.625000e+01
6.250000e+01
6.875000e+01
7.500000e+01
8.125000e+01
8.750000e+01
9.375000e+01
1.000000e+02
1.062500e+02
1.125000e+02
1.187500e+02
1.250000e+02
1.312500e+02
1.375000e+02
1.437500e+02
1.500000e+02
1.562500e+02
1.625000e+02
1.687500e+02
1.750000e+02
1.812500e+02
1.875000e+02
1.937500e+02
2.000000e+02
0.000000e+00
6.250000e+00
1.250000e+01
1.875000e+01
2.500000e+01
3.125000e+01
3.750000e+01
4.375000e+01
5.000000e+01
5.625000e+01
6.250000e+01
6.875000e+01
7.500000e+01
8.125000e+01
8.750000e+01
9.375000e+01
1.000000e+02
1.062500e+02
1.125000e+02
1.187500e+02
1.250000e+02
1.312500e+02
1.375000e+02
1.437500e+02
1.500000e+02
1.562500e+02
1.625000e+02
1.687500e+02
1.750000e+02
1.812500e+02
1.875000e+02
1.937500e+02
2.000000e+02
0.000000e+00
6.250000e+00
1.250000e+01
1.875000e+01
2.500000e+01
3.125000e+01
3.750000e+01
4.375000e+01
5.000000e+01
5.625000e+01
6.250000e+01
6.875000e+01
7.500000e+01
8.125000e+01
8.750000e+01
9.375000e+01
1.000000e+02
1.062500e+02
1.125000e+02
1.187500e+02
1.250000e+02
1.312500e+02
1.375000e+02
1.437500e+02
1.500000e+02
1.562500e+02
1.625000e+02
1.687500e+02
1.750000e+02
1.812500e+02
1.875000e+02
1.937500e+02
2.000000e+02
0.000000e+00
6.250000e+00
1.250000e+01
1.875000e+01
2.500000e+01
3.125000e+01
3.750000e+01
4.375000e+01
5.000000e+01
5.625000e+01
6.250000e+01
6.875000e+01
7.500000e+01
8.125000e+01
8.750000e+01
9.375000e+01
1.000000e+02
1.062500e+02
1.125000e+02
1.187500e+02
1.250000e+02
1.312500e+02
1.375000e+02
1.437500e+02
1.500000e+02
1.562500e+02
1.625000e+02
1.687500e+02
1.750000e+02
1.812500e+02
1.875000e+02
1.937500e+02
2.000000e+02
0.000000e+00
6.250000e+00
1.250000e+01
1.875000e+01
2.500000e+01
3.125000e+01
3.750000e+01
4.375000e+01
5.000000e+01
5.625000e+01
6.250000e+01
6.875000e+01
7.500000e+01
8.125000e+01
8.750000e+01
9.375000e+01
1.000000e+02
1.062500e+02
1.125000e+02
1.187500e+02
1.250000e+02
1.312500e+02
1.375000e+02
1.437500e+02
1.500000e+02
1.562500e+02
1.625000e+02
1.687500e+02
1.750000e+02
1.812500e+02
1.875000e+02
1.937500e+02
2.000000e+02
0.000000e+00
6.250000e+00
1.250000e+01
1.875000e+01
2.500000e+01
3.125000e+01
3.750000e+01
4.375000e+01
5.000000e+01
5.625000e+01
6.250000e+01
6.875000e+01
7.500000e+01
8.125000e+01
8.750000e+01
9.375000e+01
1.000000e+02
1.062500e+02
1.125000e+02
1.187500e+02
1.250000e+02
1.312500e+02
1.375000e+02
1.437500e+02
1.500000e+02
1.562500e+02
1.625000e+02
1.687500e+02
1.750000e+02
1.812500e+02
1.875000e+02
1.937500e+02
2.000000e+02
0.000000e+00
6.250000e+00
1.250000e+01
1.875000e+01
2.500000e+01
3.125000e+01
3.750000e+01
4.375000e+01
5.000000e+01
5.625000e+01
6.250000e+01
6.875000e+01
7.500000e+01
8.125000e+01
8.750000e+01
9.375000e+01
1.000000e+02
1.062500e+02
1.125000e+02
1.187500e+02
1.250000e+02
1.312500e+02
1.375000e+02
1.437500e+02
1.500000e+02
1.562500e+02
1.625000e+02
1.687500e+02
1.750000e+02
1.812500e+02
1.875000e+02
1.937500e+02
2.000000e+02
0.000000e+00
6.250000e+00
1.250000e+01
1.875000e+01
2.500000e+01
3.125000e+01
3.750000e+01
4.375000e+01
5.000000e+01
5.625000e+01
6.250000e+01
6.875000e+01
7.500000e+01
8.125000e+01
8.750000e+01
9.375000e+01
1.000000e+02
1.062500e+02
1.125000e+02
1.187500e+02
1.250000e+02
1.312500e+02
1.375000e+02
1.437500e+02
1.500000e+02
1.562500e+02
1.625000e+02
1.687500e+02
1.750000e+02
1.812500e+02
1.875000e+02
1.937500e+02
2.000000e+02
0.000000e+00
6.250000e+00
1.250000e+01
1.875000e+01
2.500000e+01
3.125000e+01
3.750000e+01
4.375000e+01
5.000000e+01
5.625000e+01
6.250000e+01
6.875000e+01
7.500000e+01
8.125000e+01
8.750000e+01
9.375000e+01
1.000000e+02
1.062500e+02
1.125000e+02
1.187500e+02
1.250000e+02
1.312500e+02
1.375000e+02
1.437500e+02
1.500000e+02
1.562500e+02
1.625000e+02
1.687500e+02
1.750000e+02
1.812500e+02
1.875000e+02
1.937500e+02
2.000000e+02
0.000000e+00
6.250000e+00
1.250000e+01
1.875000e+01
2.500000e+01
3.125000e+01
3.750000e+01
4.375000e+01
5.000000e+01
5.625000e+01
6.250000e+01
6.875000e+01
7.500000e+01
8.125000e+01
8.750000e+01
9.375000e+01
1.000000e+02
1.062500e+02
1.125000e+02
1.187500e+02
1.250000e+02
1.312500e+02
1.375000e+02
1.437500e+02
1.500000e+02
1.562500e+02
1.625000e+02
1.687500e+02
1.750000e+02
1.812500e+02
1.875000e+02
1.937500e+02
2.000000e+02
0.000000e+00
6.250000e+00
1.250000e+01
1.875000e+01
2.500000e+01
3.125000e+01
3.750000e+01
4.375000e+01
5.000000e+01
5.625000e+01
6.250000e+01
6.875000e+01
7.500000e+01
8.125000e+01
8.750000e+01
9.375000e+01
1.000000e+02
1.062500e+02
1.125000e+02
1.187500e+02
1.250000e+02
1.312500e+02
1.375000e+02
1.437500e+02
1.500000e+02
1.562500e+02
1.625000e+02
1.687500e+02
1.750000e+02
1.812500e+02
1.875000e+02
1.937500e+02
2.000000e+02
0.000000e+00
6.250000e+00
1.250000e+01
1.875000e+01
2.500000e+01
3.125000e+01
3.750000e+01
4.375000e+01
5.000000e+01
5.625000e+01
6.250000e+01
6.875000e+01
7.500000e+01
8.125000e+01
8.750000e+01
9.375000e+01
1.000000e+02
1.062500e+02
1.125000e+02
1.187500e+02
1.250000e+02
1.312500e+02
1.375000e+02
1.437500e+02
1.500000e+02
1.562500e+02
1.625000e+02
1.687500e+02
1.750000e+02
1.812500e+02
1.875000e+02
1.937500e+02
2.000000e+02
0.000000e+00
6.250000e+00
1.250000e+01
1.875000e+01
2.500000e+01
3.125000e+01
3.750000e+01
4.375000e+01
5.000000e+01
5.625000e+01
6.250000e+01
6.875000e+01
7.500000e+01
8.125000e+01
8.750000e+01
9.375000e+01
1.000000e+02
1.062500e+02
1.125000e+02
1.187500e+02
1.250000e+02
1.312500e+02
1.375000e+02
1.437500e+02
1.500000e+02
1.562500e+02
1.625000e+02
1.687500e+02
1.750000e+02
1.812500e+02
1.875000e+02
1.937500e+02
2.000000e+02
0.000000e+00
0.000000e+00
0.000000e+00
0.000000e+00
0.000000e+00
0.000000e+00
0.000000e+00
0.000000e+00
0.000000e+00
0.000000e+00
0.000000e+00
0.000000e+00
0.000000e+00
0.000000e+00
0.000000e+00
0.000000e+00
0.000000e+00
0.000000e+00
0.000000e+00
0.000000e+00
0.000000e+00
0.000000e+00
0.000000e+00
0.000000e+00
0.000000e+00
0.000000e+00
0.000000e+00
0.000000e+00
0.000000e+00
0.000000e+00
0.000000e+00
0.000000e+00
0.000000e+00
6.250000e+00
6.250000e+00
6.250000e+00
6.250000e+00
6.250000e+00
6.250000e+00
6.250000e+00
6.250000e+00
6.250000e+00
6.250000e+00
6.250000e+00
6.250000e+00
6.250000e+00
6.250000e+00
6.250000e+00
6.250000e+00
6.250000e+00
6.250000e+00
6.250000e+00
6.250000e+00
6.250000e+00
6.250000e+00
6.250000e+00
6.250000e+00
6.250000e+00
6.250000e+00
6.250000e+00
6.250000e+00
6.250000e+00
6.250000e+00
6.250000e+00
6.250000e+00
6.250000e+00
1.250000e+01
1.250000e+01
1.250000e+01
1.250000e+01
1.250000e+01
1.250000e+01
1.250000e+01
1.250000e+01
1.250000e+01
1.250000e+01
1.250000e+01
1.250000e+01
1.250000e+01
1.250000e+01
1.250000e+01
1.250000e+01
1.250000e+01
1.250000e+01
1.250000e+01
1.250000e+01
1.250000e+01
1.250000e+01
1.250000e+01
1.250000e+01
1.250000e+01
1.250000e+01
1.250000e+01
1.250000e+01
1.250000e+01
1.250000e+01
1.250000e+01
1.250000e+01
1.250000e+01
1.875000e+01
1.875000e+01
1.875000e+01
1.875000e+01
1.875000e+01
1.875000e+01
1.875000e+01
1.875000e+01
1.875000e+01
1.875000e+01
1.875000e+01
1.875000e+01
1.875000e+01
1.875000e+01
1.875000e+01
1.875000e+01
1.875000e+01
1.875000e+01
1.875000e+01
1.875000e+01
1.875000e+01
1.875000e+01
1.875000e+01
1.875000e+01
1.875000e+01
1.875000e+01
1.875000e+01
1.875000e+01
1.875000e+01
1.875000e+01
1.875000e+01
1.875000e+01
1.875000e+01
2.500000e+01
2.500000e+01
2.500000e+01
2.500000e+01
2.500000e+01
2.500000e+01
2.500000e+01
2.500000e+01
2.500000e+01
2.500000e+01
2.500000e+01
2.500000e+01
2.500000e+01
2.500000e+01
2.500000e+01
2.500000e+01
2.500000e+01
2.500000e+01
2.500000e+01
2.500000e+01
2.500000e+01
2.500000e+01
2.500000e+01
2.500000e+01
2.500000e+01
2.500000e+01
2.500000e+01
2.500000e+01
2.500000e+01
2.500000e+01
2.500000e+01
2.500000e+01
2.500000e+01
3.125000e+01
3.125000e+01
3.125000e+01
3.125000e+01
3.125000e+01
3.125000e+01
3.125000e+01
3.125000e+01
3.125000e+01
3.125000e+01
3.125000e+01
3.125000e+01
3.125000e+01
3.125000e+01
3.125000e+01
3.125000e+01
3.125000e+01
3.125000e+01
3.125000e+01
3.125000e+01
3.125000e+01
3.125000e+01
3.125000e+01
3.125000e+01
3.125000e+01
3.125000e+01
3.125000e+01
3.125000e+01
3.125000e+01
3.125000e+01
3.125000e+01
3.125000e+01
3.125000e+01
3.750000e+01
3.750000e+01
3.750000e+01
3.750000e+01
3.750000e+01
3.750000e+01
3.750000e+01
3.750000e+01
3.750000e+01
3.750000e+01
3.750000e+01
3.750000e+01
3.750000e+01
3.750000e+01
3.750000e+01
3.750000e+01
3.750000e+01
3.750000e+01
3.750000e+01
3.750000e+01
3.750000e+01
3.750000e+01
3.750000e+01
3.750000e+01
3.750000e+01
3.750000e+01
3.750000e+01
3.750000e+01
3.750000e+01
3.750000e+01
3.750000e+01
3.750000e+01
3.750000e+01
4.375000e+01
4.375000e+01
4.375000e+01
4.375000e+01
4.375000e+01
4.375000e+01
4.375000e+01
4.375000e+01
4.375000e+01
4.375000e+01
4.375000e+01
4.375000e+01
4.375000e+01
4.375000e+01
4.375000e+01
4.375000e+01
4.375000e+01
4.375000e+01
4.375000e+01
4.375000e+01
4.375000e+01
4.375000e+01
4.375000e+01
4.375000e+01
4.375000e+01
4.375000e+01
4.375000e+01
4.375000e+01
4.375000e+01
4.375000e+01
4.375000e+01
4.375000e+01
4.375000e+01
5.000000e+01
5.000000e+01
5.000000e+01
5.000000e+01
5.000000e+01
5.000000e+01
5.000000e+01
5.000000e+01
5.000000e+01
5.000000e+01
5.000000e+01
5.000000e+01
5.000000e+01
5.000000e+01
5.000000e+01
5.000000e+01
5.000000e+01
5.000000e+01
5.000000e+01
5.000000e+01
5.000000e+01
5.000000e+01
5.000000e+01
5.000000e+01
5.000000e+01
5.000000e+01
5.000000e+01
5.000000e+01
5.000000e+01
5.000000e+01
5.000000e+01
5.000000e+01
5.000000e+01
5.625000e+01
5.625000e+01
5.625000e+01
5.625000e+01
5.625000e+01
5.625000e+01
5.625000e+01
5.625000e+01
5.625000e+01
5.625000e+01
5.625000e+01
5.625000e+01
5.625000e+01
5.625000e+01
5.625000e+01
5.625000e+01
5.625000e+01
5.625000e+01
5.625000e+01
5.625000e+01
5.625000e+01
5.625000e+01
5.625000e+01
5.625000e+01
5.625000e+01
5.625000e+01
5.625000e+01
5.625000e+01
5.625000e+01
5.625000e+01
5.625000e+01
5.625000e+01
5.625000e+01
6.250000e+01
6.250000e+01
6.250000e+01
6.250000e+01
6.250000e+01
6.250000e+01
6.250000e+01
6.250000e+01
6.250000e+01
6.250000e+01
6.250000e+01
6.250000e+01
6.250000e+01
6.250000e+01
6.250000e+01
6.250000e+01
6.250000e+01
6.250000e+01
6.250000e+01
6.250000e+01
6.250000e+01
6.250000e+01
6.250000e+01
6.250000e+01
6.250000e+01
6.250000e+01
6.250000e+01
6.250000e+01
6.250000e+01
6.250000e+01
6.250000e+01
6.250000e+01
6.250000e+01
6.875000e+01
6.875000e+01
6.875000e+01
6.875000e+01
6.875000e+01
6.875000e+01
6.875000e+01
6.875000e+01
6.875000e+01
6.875000e+01
6.875000e+01
6.875000e+01
6.875000e+01
6.875000e+01
6.875000e+01
6.875000e+01
6.875000e+01
6.875000e+01
6.875000e+01
6.875000e+01
6.875000e+01
6.875000e+01
6.875000e+01
6.875000e+01
6.875000e+01
6.875000e+01
6.875000e+01
6.875000e+01
6.875000e+01
6.875000e+01
6.875000e+01
6.875000e+01
6.875000e+01
7.500000e+01
7.500000e+01
7.500000e+01
7.500000e+01
7.500000e+01
7.500000e+01
7.500000e+01
7.500000e+01
7.500000e+01
7.500000e+01
7.500000e+01
7.500000e+01
7.500000e+01
7.500000e+01
7.500000e+01
7.500000e+01
7.500000e+01
7.500000e+01
7.500000e+01
7.500000e+01
7.500000e+01
7.500000e+01
7.500000e+01
7.500000e+01
7.500000e+01
7.500000e+01
7.500000e+01
7.500000e+01
7.500000e+01
7.500000e+01
7.500000e+01
7.500000e+01
7.500000e+01
8.125000e+01
8.125000e+01
8.125000e+01
8.125000e+01
8.125000e+01
8.125000e+01
8.125000e+01
8.125000e+01
8.125000e+01
8.125000e+01
8.125000e+01
8.125000e+01
8.125000e+01
8.125000e+01
8.125000e+01
8.125000e+01
8.125000e+01
8.125000e+01
8.125000e+01
8.125000e+01
8.125000e+01
8.125000e+01
8.125000e+01
8.125000e+01
8.125000e+01
8.125000e+01
8.125000e+01
8.125000e+01
8.125000e+01
8.125000e+01
8.125000e+01
8.125000e+01
8.125000e+01
8.750000e+01
8.750000e+01
8.750000e+01
8.750000e+01
8.750000e+01
8.750000e+01
8.750000e+01
8.750000e+01
8.750000e+01
8.750000e+01
8.750000e+01
8.750000e+01
8.750000e+01
8.750000e+01
8.750000e+01
8.750000e+01
8.750000e+01
8.750000e+01
8.750000e+01
8.750000e+01
8.750000e+01
8.750000e+01
8.750000e+01
8.750000e+01
8.750000e+01
8.750000e+01
8.750000e+01
8.750000e+01
8.750000e+01
8.750000e+01
8.750000e+01
8.750000e+01
8.750000e+01
9.375000e+01
9.375000e+01
9.375000e+01
9.375000e+01
9.375000e+01
9.375000e+01
9.375000e+01
9.375000e+01
9.375000e+01
9.375000e+01
9.375000e+01
9.375000e+01
9.375000e+01
9.375000e+01
9.375000e+01
9.375000e+01
9.375000e+01
9.375000e+01
9.375000e+01
9.375000e+01
9.375000e+01
9.375000e+01
9.375000e+01
9.375000e+01
9.375000e+01
9.375000e+01
9.375000e+01
9.375000e+01
9.375000e+01
9.375000e+01
9.375000e+01
9.375000e+01
9.375000e+01
1.000000e+02
1.000000e+02
1.000000e+02
1.000000e+02
1.000000e+02
1.000000e+02
1.000000e+02
1.000000e+02
1.000000e+02
1.000000e+02
1.000000e+02
1.000000e+02
1.000000e+02
1.000000e+02
1.000000e+02
1.000000e+02
1.000000e+02
1.000000e+02
1.000000e+02
1.000000e+02
1.000000e+02
1.000000e+02
1.000000e+02
1.000000e+02
1.000000e+02
1.000000e+02
1.000000e+02
1.000000e+02
1.000000e+02
1.000000e+02
1.000000e+02
1.000000e+02
1.000000e+02
0.000000e+00
-3.637010e-01
-6.564574e-01
-9.393968e-01
-1.227514e+00
-1.511991e+00
-1.793595e+00
-2.074238e+00
-2.353441e+00
-2.630336e+00
-2.904464e+00
-3.175359e+00
-3.442322e+00
-3.704473e+00
-3.960820e+00
-4.210301e+00
-4.451855e+00
-4.684522e+00
-4.907551e+00
-5.120503e+00
-5.323322e+00
-5.516403e+00
-5.700645e+00
-5.877521e+00
-6.049182e+00
-6.218611e+00
-6.389861e+00
-6.568479e+00
-6.762313e+00
-6.982126e+00
-7.236530e+00
-7.516286e+00
-7.681055e+00
0.000000e+00
-2.348340e-01
-4.880727e-01
-7.383283e-01
-9.927997e-01
-1.243546e+00
-1.490942e+00
-1.737059e+00
-1.981700e+00
-2.224151e+00
-2.464060e+00
-2.701085e+00
-2.934666e+00
-3.164070e+00
-3.388453e+00
-3.606900e+00
-3.818478e+00
-4.022313e+00
-4.217688e+00
-4.404113e+00
-4.581377e+00
-4.749579e+00
-4.909136e+00
-5.060771e+00
-5.205495e+00
-5.344551e+00
-5.479286e+00
-5.610827e+00
-5.739060e+00
-5.859052e+00
-5.953834e+00
-6.005533e+00
-6.074243e+00
0.000000e+00
-1.801267e-01
-3.732070e-01
-5.809333e-01
-7.956194e-01
-1.009273e+00
-1.221383e+00
-1.432665e+00
-1.642680e+00
-1.850829e+00
-2.056754e+00
-2.260091e+00
-2.460331e+00
-2.656840e+00
-2.848894e+00
-3.035703e+00
-3.216452e+00
-3.390352e+00
-3.556704e+00
-3.714947e+00
-3.864677e+00
-4.005647e+00
-4.137732e+00
-4.260865e+00
-4.374918e+00
-4.479517e+00
-4.573709e+00
-4.655351e+00
-4.719957e+00
-4.759172e+00
-4.764996e+00
-4.755736e+00
-4.831305e+00
0.000000e+00
-1.423764e-01
-2.945919e-01
-4.590548e-01
-6.318734e-01
-8.068322e-01
-9.825276e-01
-1.158242e+00
-1.333163e+00
-1.506682e+00
-1.678360e+00
-1.847760e+00
-2.014384e+00
-2.177668e+00
-2.336989e+00
-2.491670e+00
-2.641003e+00
-2.784276e+00
-2.920811e+00
-3.049976e+00
-3.171195e+00
-3.283919e+00
-3.387582e+00
-3.481507e+00
-3.564786e+00
-3.636095e+00
-3.693457e+00
-3.734014e+00
-3.754131e+00
-3.751405e+00
-3.733880e+00
-3.734344e+00
-3.806362e+00
0.000000e+00
-1.131756e-01
-2.321651e-01
-3.590955e-01
-4.922207e-01
-6.291766e-01
-7.681041e-01
-9.077196e-01
-1.047089e+00
-1.185550e+00
-1.322581e+00
-1.457700e+00
-1.590429e+00
-1.720270e+00
-1.846683e+00
-1.969089e+00
-2.086874e+00
-2.199396e+00
-2.305998e+00
-2.406010e+00
-2.498740e+00
-2.583453e+00
-2.659324e+00
-2.725380e+00
-2.780429e+00
-2.823001e+00
-2.851395e+00
-2.864008e+00
-2.860533e+00
-2.845306e+00
-2.834032e+00
-2.855528e+00
-2.922429e+00
0.000000e+00
-8.474553e-02
-1.732416e-01
-2.663372e-01
-3.639018e-01
-4.647693e-01
-5.677131e-01
-6.716096e-01
-7.756065e-01
-8.790660e-01
-9.814727e-01
-1.082373e+00
-1.181339e+00
-1.277939e+00
-1.371716e+00
-1.462182e+00
-1.548804e+00
-1.631011e+00
-1.708184e+00
-1.779662e+00
-1.844724e+00
-1.902585e+00
-1.952373e+00
-1.993124e+00
-2.023801e+00
-2.043391e+00
-2.051191e+00
-2.047490e+00
-2.034996e+00
-2.021316e+00
-2.021267e+00
-2.050511e+00
-2.111330e+00
0.000000e+00
-5.641004e-02
-1.151046e-01
-1.765639e-01
-2.407681e-01
-3.072341e-01
-3.752424e-01
-4.440662e-01
-5.130827e-01
-5.817922e-01
-6.497817e-01
-7.166881e-01
-7.821689e-01
-8.458794e-01
-9.074537e-01
-9.664919e-01
-1.022550e+00
-1.075135e+00
-1.123698e+00
-1.167635e+00
-1.206285e+00
-1.238938e+00
-1.264848e+00
-1.283282e+00
-1.293618e+00
-1.295550e+00
-1.289475e+00
-1.277172e+00
-1.262814e+00
-1.253984e+00
-1.260895e+00
-1.291427e+00
-1.343707e+00
0.000000e+00
-2.821496e-02
-5.754494e-02
-8.818722e-02
-1.201406e-01
-1.532052e-01
-1.870616e-01
-2.213525e-01
-2.557488e-01
-2.899675e-01
-3.237635e-01
-3.569111e-01
-3.891872e-01
-4.203558e-01
-4.501552e-01
-4.782867e-01
-5.044071e-01
-5.281226e-01
-5.489871e-01
-5.665054e-01
-5.801446e-01
-5.893586e-01
-5.936344e-01
-5.925757e-01
-5.860451e-01
-5.743959e-01
-5.588232e-01
-5.418278e-01
-5.276604e-01
-5.222754e-01
-5.319297e-01
-5.598326e-01
-6.026133e-01
0.000000e+00
-1.315316e-04
-2.692079e-04
-4.072992e-04
-5.390413e-04
-6.560634e-04
-7.472398e-04
-7.970334e-04
-7.834150e-04
-6.752690e-04
-4.291362e-04
1.483705e-05
7.377735e-04
1.847643e-03
3.485222e-03
5.829846e-03
9.104033e-03
1.357565e-02
1.955570e-02
2.738899e-02
3.743344e-02
5.002228e-02
6.540092e-02
8.362785e-02
1.044285e-01
1.269954e-01
1.497479e-01
1.701149e-01
1.845079e-01
1.887853e-01
1.795611e-01
1.562564e-01
1.227485e-01
0.000000e+00
2.795753e-02
5.701777e-02
8.738950e-02
1.190845e-01
1.519189e-01
1.855940e-01
2.197822e-01
2.541958e-01
2.886107e-01
3.228636e-01
3.568415e-01
3.904740e-01
4.237279e-01
4.566066e-01
4.891495e-01
5.214334e-01
5.535717e-01
5.857091e-01
6.180096e-01
6.506310e-01
6.836830e-01
7.171611e-01
7.508524e-01
7.842109e-01
8.162156e-01
8.452433e-01
8.690318e-01
8.848626e-01
8.901216e-01
8.833251e-01
8.653757e-01
8.403550e-01
0.000000e+00
5.616958e-02
1.146114e-01
1.758171e-01
2.397782e-01
3.060250e-01
3.738554e-01
4.425670e-01
5.115719e-01
5.804194e-01
6.487640e-01
7.163354e-01
7.829160e-01
8.483271e-01
9.124201e-01
9.750724e-01
1.036188e+00
1.095694e+00
1.153541e+00
1.209690e+00
1.264087e+00
1.316634e+00
1.367121e+00
1.415158e+00
1.460077e+00
1.500846e+00
1.536025e+00
1.563822e+00
1.582345e+00
1.590123e+00
1.586879e+00
1.574367e+00
1.556856e+00
0.000000e+00
8.453399e-02
1.728064e-01
2.656771e-01
3.630244e-01
4.636912e-01
5.664630e-01
6.702335e-01
7.741751e-01
8.776843e-01
9.802926e-01
1.081609e+00
1.181290e+00
1.279012e+00
1.374464e+00
1.467337e+00
1.557333e+00
1.644161e+00
1.727547e+00
1.807225e+00
1.882933e+00
1.954380e+00
2.021206e+00
2.082931e+00
2.138888e+00
2.188180e+00
2.229676e+00
2.262104e+00
2.284283e+00
2.295559e+00
2.296393e+00
2.289026e+00
2.277942e+00
0.000000e+00
1.130070e-01
2.318161e-01
3.585651e-01
4.915107e-01
6.282940e-01
7.670625e-01
9.065412e-01
1.045808e+00
1.184221e+00
1.321278e+00
1.456527e+00
1.589525e+00
1.719814e+00
1.846910e+00
1.970294e+00
2.089429e+00
2.203773e+00
2.312790e+00
2.415973e+00
2.512838e+00
2.602919e+00
2.685744e+00
2.760803e+00
2.827511e+00
2.885193e+00
2.933099e+00
2.970484e+00
2.996794e+00
3.011980e+00
3.016956e+00
3.014190e+00
3.008344e+00
0.000000e+00
1.422683e-01
2.943649e-01
4.587084e-01
6.314039e-01
8.062341e-01
9.818005e-01
1.157388e+00
1.332183e+00
1.505580e+00
1.677138e+00
1.846415e+00
2.012901e+00
2.176006e+00
2.335058e+00
2.489311e+00
2.637955e+00
2.780156e+00
2.915086e+00
3.041965e+00
3.160075e+00
3.268771e+00
3.367478e+00
3.455672e+00
3.532881e+00
3.598680e+00
3.652725e+00
3.694815e+00
3.725006e+00
3.743804e+00
3.752464e+00
3.753500e+00
3.751554e+00
0.000000e+00
1.800968e-01
3.731409e-01
5.808308e-01
7.954760e-01
1.009074e+00
1.221120e+00
1.432334e+00
1.642262e+00
1.850294e+00
2.056054e+00
2.259149e+00
2.459014e+00
2.654930e+00
2.846032e+00
3.031329e+00
3.209719e+00
3.380049e+00
3.541173e+00
3.692006e+00
3.831572e+00
3.959015e+00
4.073619e+00
4.174812e+00
4.262183e+00
4.335516e+00
4.394842e+00
4.440503e+00
4.473232e+00
4.494218e+00
4.505210e+00
4.508788e+00
4.509209e+00
0.000000e+00
2.348821e-01
4.881656e-01
7.384793e-01
9.930164e-01
1.243814e+00
1.491262e+00
1.737436e+00
1.982126e+00
2.224598e+00
2.464474e+00
2.701370e+00
2.934648e+00
3.163442e+00
3.386700e+00
3.603189e+00
3.811527e+00
4.010247e+00
4.197882e+00
4.373036e+00
4.534439e+00
4.680975e+00
4.811704e+00
4.925893e+00
5.023056e+00
5.103032e+00
5.166087e+00
5.213029e+00
5.245320e+00
5.265130e+00
5.275262e+00
5.278938e+00
5.279837e+00
0.000000e+00
3.637648e-01
6.566385e-01
9.397400e-01
1.228045e+00
1.512712e+00
1.794531e+00
2.075429e+00
2.354922e+00
2.632131e+00
2.906580e+00
3.177767e+00
3.444911e+00
3.706987e+00
3.962754e+00
4.210762e+00
4.449387e+00
4.676899e+00
4.891550e+00
5.091650e+00
5.275617e+00
5.442006e+00
5.589532e+00
5.717112e+00
5.823937e+00
5.909596e+00
5.974256e+00
6.018896e+00
6.045563e+00
6.057618e+00
6.059841e+00
6.058052e+00
6.057038e+00
0.000000e+00
-2.251082e-01
-4.087185e-01
-6.211507e-01
-8.610471e-01
-1.131019e+00
-1.434361e+00
-1.772161e+00
-2.144478e+00
-2.551409e+00
-2.992927e+00
-3.468734e+00
-3.978313e+00
-4.520983e+00
-5.095896e+00
-5.702037e+00
-6.338247e+00
-7.003252e+00
-7.695713e+00
-8.414283e+00
-9.157681e+00
-9.924794e+00
-1.071481e+01
-1.152743e+01
-1.236315e+01
-1.322367e+01
-1.411267e+01
-1.503693e+01
-1.600844e+01
-1.704926e+01
-1.820740e+01
-1.959916e+01
-2.149543e+01
0.000000e+00
-1.403438e-01
-3.318650e-01
-5.412369e-01
-7.806945e-01
-1.051507e+00
-1.355356e+00
-1.693463e+00
-2.066310e+00
-2.473968e+00
-2.916339e+00
-3.393159e+00
-3.903971e+00
-4.448136e+00
-5.024833e+00
-5.633061e+00
-6.271650e+00
-6.939289e+00
-7.634575e+00
-8.356070e+00
-9.102391e+00
-9.872309e+00
-1.066489e+01
-1.147971e+01
-1.231710e+01
-1.317864e+01
-1.406782e+01
-1.499131e+01
-1.596118e+01
-1.700047e+01
-1.815560e+01
-1.952052e+01
-2.128238e+01
0.000000e+00
-1.045239e-01
-2.717873e-01
-4.762803e-01
-7.132137e-01
-9.835279e-01
-1.287389e+00
-1.625645e+00
-1.998866e+00
-2.407121e+00
-2.850258e+00
-3.328009e+00
-3.839951e+00
-4.385475e+00
-4.963783e+00
-5.573887e+00
-6.214618e+00
-6.884649e+00
-7.582538e+00
-8.306801e+00
-9.055998e+00
-9.828846e+00
-1.062437e+01
-1.144210e+01
-1.228237e+01
-1.314679e+01
-1.403897e+01
-1.496583e+01
-1.594008e+01
-1.698409e+01
-1.813090e+01
-1.940773e+01
-2.079689e+01
0.000000e+00
-8.825216e-02
-2.360867e-01
-4.289888e-01
-6.608090e-01
-9.285424e-01
-1.231294e+00
-1.569192e+00
-1.942493e+00
-2.351147e+00
-2.794937e+00
-3.273556e+00
-3.786572e+00
-4.333382e+00
-4.913200e+00
-5.525052e+00
-6.167779e+00
-6.840056e+00
-7.540438e+00
-8.267433e+00
-9.019591e+00
-9.795625e+00
-1.059456e+01
-1.141595e+01
-1.226016e+01
-1.312881e+01
-1.402547e+01
-1.495673e+01
-1.593381e+01
-1.697293e+01
-1.808382e+01
-1.924278e+01
-2.031678e+01
0.000000e+00
-8.076786e-02
-2.157368e-01
-3.981992e-01
-6.230531e-01
-8.867585e-01
-1.187384e+00
-1.524333e+00
-1.897359e+00
-2.306190e+00
-2.750499e+00
-3.229907e+00
-3.743934e+00
-4.291962e+00
-4.873208e+00
-5.486708e+00
-6.131319e+00
-6.805736e+00
-7.508536e+00
-8.238243e+00
-8.993425e+00
-9.772804e+00
-1.057541e+01
-1.140077e+01
-1.224918e+01
-1.312202e+01
-1.402224e+01
-1.495484e+01
-1.592700e+01
-1.694516e+01
-1.800094e+01
-1.904536e+01
-1.998263e+01
0.000000e+00
-7.591367e-02
-2.033471e-01
-3.783340e-01
-5.971961e-01
-8.567531e-01
-1.154957e+00
-1.490658e+00
-1.863187e+00
-2.272038e+00
-2.716749e+00
-3.196848e+00
-3.711799e+00
-4.260958e+00
-4.843535e+00
-5.458578e+00
-6.104963e+00
-6.781414e+00
-7.486537e+00
-8.218881e+00
-8.977026e+00
-9.759683e+00
-1.056583e+01
-1.139487e+01
-1.224680e+01
-1.312241e+01
-1.402338e+01
-1.495217e+01
-1.591083e+01
-1.689696e+01
-1.789201e+01
-1.885140e+01
-1.971134e+01
0.000000e+00
-7.268621e-02
-1.956004e-01
-3.658069e-01
-5.803987e-01
-8.367512e-01
-1.132878e+00
-1.467421e+00
-1.839447e+00
-2.248266e+00
-2.693296e+00
-3.173984e+00
-3.689746e+00
-4.239914e+00
-4.823694e+00
-5.440145e+00
-6.088167e+00
-6.766507e+00
-7.473796e+00
-8.208596e+00
-8.969469e+00
-9.755068e+00
-1.056424e+01
-1.139610e+01
-1.225017e+01
-1.312632e+01
-1.402465e+01
-1.494482e+01
-1.588447e+01
-1.683544e+01
-1.777740e+01
-1.867519e+01
-1.948583e+01
0.000000e+00
-7.085381e-02
-1.912726e-01
-3.588045e-01
-5.709277e-01
-8.253287e-01
-1.120128e+00
-1.453904e+00
-1.825607e+00
-2.234438e+00
-2.679741e+00
-3.160914e+00
-3.677346e+00
-4.228360e+00
-4.813168e+00
-5.430843e+00
-6.080304e+00
-6.760318e+00
-7.469523e+00
-8.206466e+00
-8.969656e+00
-9.757627e+00
-1.056900e+01
-1.140251e+01
-1.225703e+01
-1.313142e+01
-1.402418e+01
-1.493266e+01
-1.585155e+01
-1.677034e+01
-1.767036e+01
-1.852484e+01
-1.930401e+01
0.000000e+00
-7.025347e-02
-1.898682e-01
-3.565450e-01
-5.678795e-01
-8.216584e-01
-1.116045e+00
-1.449613e+00
-1.821282e+00
-2.230227e+00
-2.675775e+00
-3.157319e+00
-3.674252e+00
-4.225907e+00
-4.811513e+00
-5.430163e+00
-6.080792e+00
-6.762175e+00
-7.472939e+00
-8.211588e+00
-8.976537e+00
-9.766147e+00
-1.057875e+01
-1.141264e+01
-1.226602e+01
-1.313675e+01
-1.402204e+01
-1.491763e+01
-1.581675e+01
-1.670862e+01
-1.757727e+01
-1.840236e+01
-1.916230e+01
0.000000e+00
-7.082990e-02
-1.912470e-01
-3.588031e-01
-5.709798e-01
-8.254686e-01
-1.120398e+00
-1.454358e+00
-1.826313e+00
-2.235486e+00
-2.681247e+00
-3.163029e+00
-3.680259e+00
-4.232304e+00
-4.818422e+00
-5.437730e+00
-6.089176e+00
-6.771533e+00
-7.483398e+00
-8.223208e+00
-8.989252e+00
-9.779691e+00
-1.059254e+01
-1.142565e+01
-1.227658e+01
-1.314239e+01
-1.401934e+01
-1.490227e+01
-1.578396e+01
-1.665439e+01
-1.750036e+01
-1.830630e+01
-1.905597e+01
0.000000e+00
-7.263706e-02
-1.955470e-01
-3.658001e-01
-5.804951e-01
-8.370168e-01
-1.133394e+00
-1.468288e+00
-1.840800e+00
-2.250275e+00
-2.696185e+00
-3.178039e+00
-3.695329e+00
-4.247472e+00
-4.833766e+00
-5.453352e+00
-6.105189e+00
-6.788038e+00
-7.500456e+00
-8.240795e+00
-9.007212e+00
-9.797655e+00
-1.060984e+01
-1.144121e+01
-1.228878e+01
-1.314902e+01
-1.401757e+01
-1.488887e+01
-1.575587e+01
-1.660969e+01
-1.743970e+01
-1.823401e+01
-1.898028e+01
0.000000e+00
-7.583718e-02
-2.032624e-01
-3.783149e-01
-5.973230e-01
-8.571181e-01
-1.155673e+00
-1.491867e+00
-1.865075e+00
-2.274845e+00
-2.720786e+00
-3.202515e+00
-3.719601e+00
-4.271521e+00
-4.857614e+00
-5.477046e+00
-6.128783e+00
-6.811567e+00
-7.523909e+00
-8.264081e+00
-9.030107e+00
-9.819747e+00
-1.063046e+01
-1.145934e+01
-1.230300e+01
-1.315750e+01
-1.401810e+01
-1.487918e+01
-1.573411e+01
-1.657528e+01
-1.739429e+01
-1.818238e+01
-1.893059e+01
0.000000e+00
-8.066272e-02
-2.156190e-01
-3.981615e-01
-6.231939e-01
-8.871892e-01
-1.188241e+00
-1.525789e+00
-1.899637e+00
-2.309582e+00
-2.755380e+00
-3.236757e+00
-3.753363e+00
-4.304728e+00
-4.890224e+00
-5.509035e+00
-6.160127e+00
-6.842225e+00
-7.553795e+00
-8.293040e+00
-9.057877e+00
-9.845918e+00
-1.065442e+01
-1.148024e+01
-1.231970e+01
-1.316858e+01
-1.402198e+01
-1.487433e+01
-1.571951e+01
-1.655104e+01
-1.736255e+01
-1.814808e+01
-1.890214e+01
0.000000e+00
-8.812222e-02
-2.359419e-01
-4.289321e-01
-6.609503e-01
-9.290057e-01
-1.232230e+00
-1.570792e+00
-1.945007e+00
-2.354895e+00
-2.800332e+00
-3.281130e+00
-3.796994e+00
-4.347486e+00
-4.931991e+00
-5.549698e+00
-6.199567e+00
-6.880304e+00
-7.590345e+00
-8.327844e+00
-9.090652e+00
-9.876287e+00
-1.068189e+01
-1.150414e+01
-1.233922e+01
-1.318274e+01
-1.402974e+01
-1.487478e+01
-1.571215e+01
-1.653632e+01
-1.734258e+01
-1.812760e+01
-1.888970e+01
0.000000e+00
-1.043882e-01
-2.716353e-01
-4.762158e-01
-7.133529e-01
-9.840027e-01
-1.288357e+00
-1.627308e+00
-2.001485e+00
-2.411030e+00
-2.855886e+00
-3.335904e+00
-3.850806e+00
-4.400144e+00
-4.983293e+00
-5.599426e+00
-6.247485e+00
-6.926163e+00
-7.633880e+00
-8.368774e+00
-9.128672e+00
-9.911058e+00
-1.071302e+01
-1.153118e+01
-1.236166e+01
-1.320002e+01
-1.404132e+01
-1.488023e+01
-1.571138e+01
-1.652988e+01
-1.733222e+01
-1.811729e+01
-1.888750e+01
0.000000e+00
-1.402290e-01
-3.317280e-01
-5.411838e-01
-7.808445e-01
-1.051995e+00
-1.356345e+00
-1.695158e+00
-2.068971e+00
-2.477931e+00
-2.922034e+00
-3.401129e+00
-3.914897e+00
-4.462851e+00
-5.044325e+00
-5.658453e+00
-6.304152e+00
-6.980099e+00
-7.684714e+00
-8.416146e+00
-9.172239e+00
-9.950491e+00
-1.074800e+01
-1.156142e+01
-1.238688e+01
-1.322000e+01
-1.405592e+01
-1.488947e+01
-1.571552e+01
-1.652960e+01
-1.732885e+01
-1.811357e+01
-1.888933e+01
0.000000e+00
-2.250244e-01
-4.086140e-01
-6.211355e-01
-8.612361e-01
-1.131548e+00
-1.435398e+00
-1.773911e+00
-2.147200e+00
-2.555436e+00
-2.998680e+00
-3.476742e+00
-3.989230e+00
-4.535591e+00
-5.115102e+00
-5.726846e+00
-6.369697e+00
-7.042318e+00
-7.743136e+00
-8.470323e+00
-9.221758e+00
-9.994981e+00
-1.078714e+01