TITLE = "Solution"
VARIABLES = x, y, u, v, psiu, psiv, t, stress
ZONE T="structure" N=561 E=512 F=FEBLOCK ET=QUADRILATERAL VARLOCATION=([7,8]=cellcentered)
0.000000e+00
6.250000e+00
1.250000e+01
1.875000e+01
2.500000e+01
3.125000e+01
3.750000e+01
4.375000e+01
5.000000e+01
5.625000e+01
6.250000e+01
6.875000e+01
7.500000e+01
8.125000e+01
8.750000e+01
9.375000e+01
1.000000e+02
1.062500e+02
1.125000e+02
1.187500e+02
1.250000e+02
1.312500e+02
1.375000e+02
1.437500e+02
1.500000e+02
1.562500e+02
1.625000e+02
1.687500e+02
1.750000e+02
1.812500e+02
1.875000e+02
1.937500e+02
2.000000e+02
0.000000e+00
6.250000e+00
1.250000e+01
1.875000e+01
2.500000e+01
3.125000e+01
3.750000e+01
4.375000e+01
5.000000e+01
5.625000e+01
6.250000e+01
6.875000e+01
7.500000e+01
8.125000e+01
8.750000e+01
9.375000e+01
1.000000e+02
1.062500e+02
1.125000e+02
1.187500e+02
1.250000e+02
1.312500e+02
1.375000e+02
1.437500e+02
1.500000e+02
1.562500e+02
1.625000e+02
1.687500e+02
1.750000e+02
1.812500e+02
1.875000e+02
1.937500e+02
2.000000e+02
0.000000e+00
6.250000e+00
1.250000e+01
1.875000e+01
2.500000e+01
3.125000e+01
3.750000e+01
4.375000e+01
5.000000e+01
5.625000e+01
6.250000e+01
6.875000e+01
7.500000e+01
8.125000e+01
8.750000e+01
9.375000e+01
1.000000e+02
1.062500e+02
1.125000e+02
1.187500e+02
1.250000e+02
1.312500e+02
1.375000e+02
1.437500e+02
1.500000e+02
1.562500e+02
1.625000e+02
1.687500e+02
1.750000e+02
1.812500e+02
1.875000e+02
1.937500e+02
2.000000e+02
0.000000e+00
6.250000e+00
1.250000e+01
1.875000e+01
2.500000e+01
3.125000e+01
3.750000e+01
4.375000e+01
5.000000e+01
5.625000e+01
6.250000e+01
6.875000e+01
7.500000e+01
8.125000e+01
8.750000e+01
9.375000e+01
1.000000e+02
1.062500e+02
1.125000e+02
1.187500e+02
1.250000e+02
1.312500e+02
1.375000e+02
1.437500e+02
1.500000e+02
1.562500e+02
1.625000e+02
1.687500e+02
1.750000e+02
1.812500e+02
1.875000e+02
1.937500e+02
2.000000e+02
0.000000e+00
6.250000e+00
1.250000e+01
1.875000e+01
2.500000e+01
3.125000e+01
3.750000e+01
4.375000e+01
5.000000e+01
5.625000e+01
6.250000e+01
6.875000e+01
7.500000e+01
8.125000e+01
8.750000e+01
9.375000e+01
1.000000e+02
1.062500e+02
1.125000e+02
1.187500e+02
1.250000e+02
1.312500e+02
1.375000e+02
1.437500e+02
1.500000e+02
1.562500e+02
1.625000e+02
1.687500e+02
1.750000e+02
1.812500e+02
1.875000e+02
1.937500e+02
2.000000e+02
0.000000e+00
6.250000e+00
1.250000e+01
1.875000e+01
2.500000e+01
3.125000e+01
3.750000e+01
4.375000e+01
5.000000e+01
5.625000e+01
6.250000e+01
6.875000e+01
7.500000e+01
8.125000e+01
8.750000e+01
9.375000e+01
1.000000e+02
1.062500e+02
1.125000e+02
1.187500e+02
1.250000e+02
1.312500e+02
1.375000e+02
1.437500e+02
1.500000e+02
1.562500e+02
1.625000e+02
1.687500e+02
1.750000e+02
1.812500e+02
1.875000e+02
1.937500e+02
2.000000e+02
0.000000e+00
6.250000e+00
1.250000e+01
1.875000e+01
2.500000e+01
3.125000e+01
3.750000e+01
4.375000e+01
5.000000e+01
5.625000e+01
6.250000e+01
6.875000e+01
7.500000e+01
8.125000e+01
8.750000e+01
9.375000e+01
1.000000e+02
1.062500e+02
1.125000e+02
1.187500e+02
1.250000e+02
1.312500e+02
1.375000e+02
1.437500e+02
1.500000e+02
1.562500e+02
1.625000e+02
1.687500e+02
1.750000e+02
1.812500e+02
1.875000e+02
1.937500e+02
2.000000e+02
0.000000e+00
6.250000e+00
1.250000e+01
1.875000e+01
2.500000e+01
3.125000e+01
3.750000e+01
4.375000e+01
5.000000e+01
5.625000e+01
6.250000e+01
6.875000e+01
7.500000e+01
8.125000e+01
8.750000e+01
9.375000e+01
1.000000e+02
1.062500e+02
1.125000e+02
1.187500e+02
1.250000e+02
1.312500e+02
1.375000e+02
1.437500e+02
1.500000e+02
1.562500e+02
1.625000e+02
1.687500e+02
1.750000e+02
1.812500e+02
1.875000e+02
1.937500e+02
2.000000e+02
0.000000e+00
6.250000e+00
1.250000e+01
1.875000e+01
2.500000e+01
3.125000e+01
3.750000e+01
4.375000e+01
5.000000e+01
5.625000e+01
6.250000e+01
6.875000e+01
7.500000e+01
8.125000e+01
8.750000e+01
9.375000e+01
1.000000e+02
1.062500e+02
1.125000e+02
1.187500e+02
1.250000e+02
1.312500e+02
1.375000e+02
1.437500e+02
1.500000e+02
1.562500e+02
1.625000e+02
1.687500e+02
1.750000e+02
1.812500e+02
1.875000e+02
1.937500e+02
2.000000e+02
0.000000e+00
6.250000e+00
1.250000e+01
1.875000e+01
2.500000e+01
3.125000e+01
3.750000e+01
4.375000e+01
5.000000e+01
5.625000e+01
6.250000e+01
6.875000e+01
7.500000e+01
8.125000e+01
8.750000e+01
9.375000e+01
1.000000e+02
1.062500e+02
1.125000e+02
1.187500e+02
1.250000e+02
1.312500e+02
1.375000e+02
1.437500e+02
1.500000e+02
1.562500e+02
1.625000e+02
1.687500e+02
1.750000e+02
1.812500e+02
1.875000e+02
1.937500e+02
2.000000e+02
0.000000e+00
6.250000e+00
1.250000e+01
1.875000e+01
2.500000e+01
3.125000e+01
3.750000e+01
4.375000e+01
5.000000e+01
5.625000e+01
6.250000e+01
6.875000e+01
7.500000e+01
8.125000e+01
8.750000e+01
9.375000e+01
1.000000e+02
1.062500e+02
1.125000e+02
1.187500e+02
1.250000e+02
1.312500e+02
1.375000e+02
1.437500e+02
1.500000e+02
1.562500e+02
1.625000e+02
1.687500e+02
1.750000e+02
1.812500e+02
1.875000e+02
1.937500e+02
2.000000e+02
0.000000e+00
6.250000e+00
1.250000e+01
1.875000e+01
2.500000e+01
3.125000e+01
3.750000e+01
4.375000e+01
5.000000e+01
5.625000e+01
6.250000e+01
6.875000e+01
7.500000e+01
8.125000e+01
8.750000e+01
9.375000e+01
1.000000e+02
1.062500e+02
1.125000e+02
1.187500e+02
1.250000e+02
1.312500e+02
1.375000e+02
1.437500e+02
1.500000e+02
1.562500e+02
1.625000e+02
1.687500e+02
1.750000e+02
1.812500e+02
1.875000e+02
1.937500e+02
2.000000e+02
0.000000e+00
6.250000e+00
1.250000e+01
1.875000e+01
2.500000e+01
3.125000e+01
3.750000e+01
4.375000e+01
5.000000e+01
5.625000e+01
6.250000e+01
6.875000e+01
7.500000e+01
8.125000e+01
8.750000e+01
9.375000e+01
1.000000e+02
1.062500e+02
1.125000e+02
1.187500e+02
1.250000e+02
1.312500e+02
1.375000e+02
1.437500e+02
1.500000e+02
1.562500e+02
1.625000e+02
1.687500e+02
1.750000e+02
1.812500e+02
1.875000e+02
1.937500e+02
2.000000e+02
0.000000e+00
6.250000e+00
1.250000e+01
1.875000e+01
2.500000e+01
3.125000e+01
3.750000e+01
4.375000e+01
5.000000e+01
5.625000e+01
6.250000e+01
6.875000e+01
7.500000e+01
8.125000e+01
8.750000e+01
9.375000e+01
1.000000e+02
1.062500e+02
1.125000e+02
1.187500e+02
1.250000e+02
1.312500e+02
1.375000e+02
1.437500e+02
1.500000e+02
1.562500e+02
1.625000e+02
1.687500e+02
1.750000e+02
1.812500e+02
1.875000e+02
1.937500e+02
2.000000e+02
0.000000e+00
6.250000e+00
1.250000e+01
1.875000e+01
2.500000e+01
3.125000e+01
3.750000e+01
4.375000e+01
5.000000e+01
5.625000e+01
6.250000e+01
6.875000e+01
7.500000e+01
8.125000e+01
8.750000e+01
9.375000e+01
1.000000e+02
1.062500e+02
1.125000e+02
1.187500e+02
1.250000e+02
1.312500e+02
1.375000e+02
1.437500e+02
1.500000e+02
1.562500e+02
1.625000e+02
1.687500e+02
1.750000e+02
1.812500e+02
1.875000e+02
1.937500e+02
2.000000e+02
0.000000e+00
6.250000e+00
1.250000e+01
1.875000e+01
2.500000e+01
3.125000e+01
3.750000e+01
4.375000e+01
5.000000e+01
5.625000e+01
6.250000e+01
6.875000e+01
7.500000e+01
8.125000e+01
8.750000e+01
9.375000e+01
1.000000e+02
1.062500e+02
1.125000e+02
1.187500e+02
1.250000e+02
1.312500e+02
1.375000e+02
1.437500e+02
1.500000e+02
1.562500e+02
1.625000e+02
1.687500e+02
1.750000e+02
1.812500e+02
1.875000e+02
1.937500e+02
2.000000e+02
0.000000e+00
6.250000e+00
1.250000e+01
1.875000e+01
2.500000e+01
3.125000e+01
3.750000e+01
4.375000e+01
5.000000e+01
5.625000e+01
6.250000e+01
6.875000e+01
7.500000e+01
8.125000e+01
8.750000e+01
9.375000e+01
1.000000e+02
1.062500e+02
1.125000e+02
1.187500e+02
1.250000e+02
1.312500e+02
1.375000e+02
1.437500e+02
1.500000e+02
1.562500e+02
1.625000e+02
1.687500e+02
1.750000e+02
1.812500e+02
1.875000e+02
1.937500e+02
2.000000e+02
0.000000e+00
0.000000e+00
0.000000e+00
0.000000e+00
0.000000e+00
0.000000e+00
0.000000e+00
0.000000e+00
0.000000e+00
0.000000e+00
0.000000e+00
0.000000e+00
0.000000e+00
0.000000e+00
0.000000e+00
0.000000e+00
0.000000e+00
0.000000e+00
0.000000e+00
0.000000e+00
0.000000e+00
0.000000e+00
0.000000e+00
0.000000e+00
0.000000e+00
0.000000e+00
0.000000e+00
0.000000e+00
0.000000e+00
0.000000e+00
0.000000e+00
0.000000e+00
0.000000e+00
6.250000e+00
6.250000e+00
6.250000e+00
6.250000e+00
6.250000e+00
6.250000e+00
6.250000e+00
6.250000e+00
6.250000e+00
6.250000e+00
6.250000e+00
6.250000e+00
6.250000e+00
6.250000e+00
6.250000e+00
6.250000e+00
6.250000e+00
6.250000e+00
6.250000e+00
6.250000e+00
6.250000e+00
6.250000e+00
6.250000e+00
6.250000e+00
6.250000e+00
6.250000e+00
6.250000e+00
6.250000e+00
6.250000e+00
6.250000e+00
6.250000e+00
6.250000e+00
6.250000e+00
1.250000e+01
1.250000e+01
1.250000e+01
1.250000e+01
1.250000e+01
1.250000e+01
1.250000e+01
1.250000e+01
1.250000e+01
1.250000e+01
1.250000e+01
1.250000e+01
1.250000e+01
1.250000e+01
1.250000e+01
1.250000e+01
1.250000e+01
1.250000e+01
1.250000e+01
1.250000e+01
1.250000e+01
1.250000e+01
1.250000e+01
1.250000e+01
1.250000e+01
1.250000e+01
1.250000e+01
1.250000e+01
1.250000e+01
1.250000e+01
1.250000e+01
1.250000e+01
1.250000e+01
1.875000e+01
1.875000e+01
1.875000e+01
1.875000e+01
1.875000e+01
1.875000e+01
1.875000e+01
1.875000e+01
1.875000e+01
1.875000e+01
1.875000e+01
1.875000e+01
1.875000e+01
1.875000e+01
1.875000e+01
1.875000e+01
1.875000e+01
1.875000e+01
1.875000e+01
1.875000e+01
1.875000e+01
1.875000e+01
1.875000e+01
1.875000e+01
1.875000e+01
1.875000e+01
1.875000e+01
1.875000e+01
1.875000e+01
1.875000e+01
1.875000e+01
1.875000e+01
1.875000e+01
2.500000e+01
2.500000e+01
2.500000e+01
2.500000e+01
2.500000e+01
2.500000e+01
2.500000e+01
2.500000e+01
2.500000e+01
2.500000e+01
2.500000e+01
2.500000e+01
2.500000e+01
2.500000e+01
2.500000e+01
2.500000e+01
2.500000e+01
2.500000e+01
2.500000e+01
2.500000e+01
2.500000e+01
2.500000e+01
2.500000e+01
2.500000e+01
2.500000e+01
2.500000e+01
2.500000e+01
2.500000e+01
2.500000e+01
2.500000e+01
2.500000e+01
2.500000e+01
2.500000e+01
3.125000e+01
3.125000e+01
3.125000e+01
3.125000e+01
3.125000e+01
3.125000e+01
3.125000e+01
3.125000e+01
3.125000e+01
3.125000e+01
3.125000e+01
3.125000e+01
3.125000e+01
3.125000e+01
3.125000e+01
3.125000e+01
3.125000e+01
3.125000e+01
3.125000e+01
3.125000e+01
3.125000e+01
3.125000e+01
3.125000e+01
3.125000e+01
3.125000e+01
3.125000e+01
3.125000e+01
3.125000e+01
3.125000e+01
3.125000e+01
3.125000e+01
3.125000e+01
3.125000e+01
3.750000e+01
3.750000e+01
3.750000e+01
3.750000e+01
3.750000e+01
3.750000e+01
3.750000e+01
3.750000e+01
3.750000e+01
3.750000e+01
3.750000e+01
3.750000e+01
3.750000e+01
3.750000e+01
3.750000e+01
3.750000e+01
3.750000e+01
3.750000e+01
3.750000e+01
3.750000e+01
3.750000e+01
3.750000e+01
3.750000e+01
3.750000e+01
3.750000e+01
3.750000e+01
3.750000e+01
3.750000e+01
3.750000e+01
3.750000e+01
3.750000e+01
3.750000e+01
3.750000e+01
4.375000e+01
4.375000e+01
4.375000e+01
4.375000e+01
4.375000e+01
4.375000e+01
4.375000e+01
4.375000e+01
4.375000e+01
4.375000e+01
4.375000e+01
4.375000e+01
4.375000e+01
4.375000e+01
4.375000e+01
4.375000e+01
4.375000e+01
4.375000e+01
4.375000e+01
4.375000e+01
4.375000e+01
4.375000e+01
4.375000e+01
4.375000e+01
4.375000e+01
4.375000e+01
4.375000e+01
4.375000e+01
4.375000e+01
4.375000e+01
4.375000e+01
4.375000e+01
4.375000e+01
5.000000e+01
5.000000e+01
5.000000e+01
5.000000e+01
5.000000e+01
5.000000e+01
5.000000e+01
5.000000e+01
5.000000e+01
5.000000e+01
5.000000e+01
5.000000e+01
5.000000e+01
5.000000e+01
5.000000e+01
5.000000e+01
5.000000e+01
5.000000e+01
5.000000e+01
5.000000e+01
5.000000e+01
5.000000e+01
5.000000e+01
5.000000e+01
5.000000e+01
5.000000e+01
5.000000e+01
5.000000e+01
5.000000e+01
5.000000e+01
5.000000e+01
5.000000e+01
5.000000e+01
5.625000e+01
5.625000e+01
5.625000e+01
5.625000e+01
5.625000e+01
5.625000e+01
5.625000e+01
5.625000e+01
5.625000e+01
5.625000e+01
5.625000e+01
5.625000e+01
5.625000e+01
5.625000e+01
5.625000e+01
5.625000e+01
5.625000e+01
5.625000e+01
5.625000e+01
5.625000e+01
5.625000e+01
5.625000e+01
5.625000e+01
5.625000e+01
5.625000e+01
5.625000e+01
5.625000e+01
5.625000e+01
5.625000e+01
5.625000e+01
5.625000e+01
5.625000e+01
5.625000e+01
6.250000e+01
6.250000e+01
6.250000e+01
6.250000e+01
6.250000e+01
6.250000e+01
6.250000e+01
6.250000e+01
6.250000e+01
6.250000e+01
6.250000e+01
6.250000e+01
6.250000e+01
6.250000e+01
6.250000e+01
6.250000e+01
6.250000e+01
6.250000e+01
6.250000e+01
6.250000e+01
6.250000e+01
6.250000e+01
6.250000e+01
6.250000e+01
6.250000e+01
6.250000e+01
6.250000e+01
6.250000e+01
6.250000e+01
6.250000e+01
6.250000e+01
6.250000e+01
6.250000e+01
6.875000e+01
6.875000e+01
6.875000e+01
6.875000e+01
6.875000e+01
6.875000e+01
6.875000e+01
6.875000e+01
6.875000e+01
6.875000e+01
6.875000e+01
6.875000e+01
6.875000e+01
6.875000e+01
6.875000e+01
6.875000e+01
6.875000e+01
6.875000e+01
6.875000e+01
6.875000e+01
6.875000e+01
6.875000e+01
6.875000e+01
6.875000e+01
6.875000e+01
6.875000e+01
6.875000e+01
6.875000e+01
6.875000e+01
6.875000e+01
6.875000e+01
6.875000e+01
6.875000e+01
7.500000e+01
7.500000e+01
7.500000e+01
7.500000e+01
7.500000e+01
7.500000e+01
7.500000e+01
7.500000e+01
7.500000e+01
7.500000e+01
7.500000e+01
7.500000e+01
7.500000e+01
7.500000e+01
7.500000e+01
7.500000e+01
7.500000e+01
7.500000e+01
7.500000e+01
7.500000e+01
7.500000e+01
7.500000e+01
7.500000e+01
7.500000e+01
7.500000e+01
7.500000e+01
7.500000e+01
7.500000e+01
7.500000e+01
7.500000e+01
7.500000e+01
7.500000e+01
7.500000e+01
8.125000e+01
8.125000e+01
8.125000e+01
8.125000e+01
8.125000e+01
8.125000e+01
8.125000e+01
8.125000e+01
8.125000e+01
8.125000e+01
8.125000e+01
8.125000e+01
8.125000e+01
8.125000e+01
8.125000e+01
8.125000e+01
8.125000e+01
8.125000e+01
8.125000e+01
8.125000e+01
8.125000e+01
8.125000e+01
8.125000e+01
8.125000e+01
8.125000e+01
8.125000e+01
8.125000e+01
8.125000e+01
8.125000e+01
8.125000e+01
8.125000e+01
8.125000e+01
8.125000e+01
8.750000e+01
8.750000e+01
8.750000e+01
8.750000e+01
8.750000e+01
8.750000e+01
8.750000e+01
8.750000e+01
8.750000e+01
8.750000e+01
8.750000e+01
8.750000e+01
8.750000e+01
8.750000e+01
8.750000e+01
8.750000e+01
8.750000e+01
8.750000e+01
8.750000e+01
8.750000e+01
8.750000e+01
8.750000e+01
8.750000e+01
8.750000e+01
8.750000e+01
8.750000e+01
8.750000e+01
8.750000e+01
8.750000e+01
8.750000e+01
8.750000e+01
8.750000e+01
8.750000e+01
9.375000e+01
9.375000e+01
9.375000e+01
9.375000e+01
9.375000e+01
9.375000e+01
9.375000e+01
9.375000e+01
9.375000e+01
9.375000e+01
9.375000e+01
9.375000e+01
9.375000e+01
9.375000e+01
9.375000e+01
9.375000e+01
9.375000e+01
9.375000e+01
9.375000e+01
9.375000e+01
9.375000e+01
9.375000e+01
9.375000e+01
9.375000e+01
9.375000e+01
9.375000e+01
9.375000e+01
9.375000e+01
9.375000e+01
9.375000e+01
9.375000e+01
9.375000e+01
9.375000e+01
1.000000e+02
1.000000e+02
1.000000e+02
1.000000e+02
1.000000e+02
1.000000e+02
1.000000e+02
1.000000e+02
1.000000e+02
1.000000e+02
1.000000e+02
1.000000e+02
1.000000e+02
1.000000e+02
1.000000e+02
1.000000e+02
1.000000e+02
1.000000e+02
1.000000e+02
1.000000e+02
1.000000e+02
1.000000e+02
1.000000e+02
1.000000e+02
1.000000e+02
1.000000e+02
1.000000e+02
1.000000e+02
1.000000e+02
1.000000e+02
1.000000e+02
1.000000e+02
1.000000e+02
0.000000e+00
-4.552609e-02
-8.260103e-02
-1.169457e-01
-1.499070e-01
-1.817361e-01
-2.124969e-01
-2.421868e-01
-2.707869e-01
-2.982766e-01
-3.246386e-01
-3.498610e-01
-3.739376e-01
-3.968680e-01
-4.186575e-01
-4.393176e-01
-4.588668e-01
-4.773319e-01
-4.947502e-01
-5.111717e-01
-5.266632e-01
-5.413129e-01
-5.552377e-01
-5.685923e-01
-5.815841e-01
-5.944951e-01
-6.077168e-01
-6.218075e-01
-6.375863e-01
-6.562586e-01
-6.793880e-01
-7.069520e-01
-7.237738e-01
0.000000e+00
-3.052402e-02
-6.350850e-02
-9.460851e-02
-1.241679e-01
-1.524680e-01
-1.796585e-01
-2.058048e-01
-2.309329e-01
-2.550514e-01
-2.781617e-01
-3.002639e-01
-3.213591e-01
-3.414507e-01
-3.605454e-01
-3.786537e-01
-3.957911e-01
-4.119787e-01
-4.272447e-01
-4.416254e-01
-4.551673e-01
-4.679289e-01
-4.799830e-01
-4.914186e-01
-5.023418e-01
-5.128750e-01
-5.231473e-01
-5.332648e-01
-5.432269e-01
-5.527095e-01
-5.606112e-01
-5.652308e-01
-5.716621e-01
0.000000e+00
-2.421172e-02
-4.984566e-02
-7.594507e-02
-1.013056e-01
-1.257316e-01
-1.492074e-01
-1.717552e-01
-1.933951e-01
-2.141405e-01
-2.340004e-01
-2.529810e-01
-2.710874e-01
-2.883250e-01
-3.047003e-01
-3.202211e-01
-3.348976e-01
-3.487424e-01
-3.617711e-01
-3.740022e-01
-3.854571e-01
-3.961590e-01
-4.061307e-01
-4.153900e-01
-4.239404e-01
-4.317545e-01
-4.387430e-01
-4.447001e-01
-4.492229e-01
-4.516584e-01
-4.514448e-01
-4.500773e-01
-4.575873e-01
0.000000e+00
-1.920986e-02
-3.948063e-02
-6.030632e-02
-8.108321e-02
-1.013568e-01
-1.209536e-01
-1.398112e-01
-1.579128e-01
-1.752576e-01
-1.918502e-01
-2.076960e-01
-2.228005e-01
-2.371683e-01
-2.508037e-01
-2.637106e-01
-2.758924e-01
-2.873524e-01
-2.980929e-01
-3.081144e-01
-3.174145e-01
-3.259845e-01
-3.338056e-01
-3.408412e-01
-3.470265e-01
-3.522523e-01
-3.563455e-01
-3.590561e-01
-3.600911e-01
-3.593228e-01
-3.574568e-01
-3.573453e-01
-3.645006e-01
0.000000e+00
-1.490953e-02
-3.052963e-02
-4.664871e-02
-6.289875e-02
-7.894948e-02
-9.457944e-02
-1.096765e-01
-1.241897e-01
-1.380994e-01
-1.514005e-01
-1.640937e-01
-1.761813e-01
-1.876655e-01
-1.985469e-01
-2.088246e-01
-2.184954e-01
-2.275534e-01
-2.359894e-01
-2.437891e-01
-2.509315e-01
-2.573863e-01
-2.631092e-01
-2.680373e-01
-2.720836e-01
-2.751336e-01
-2.770529e-01
-2.777261e-01
-2.771738e-01
-2.758223e-01
-2.749455e-01
-2.769703e-01
-2.830740e-01
0.000000e+00
-1.095764e-02
-2.238474e-02
-3.417896e-02
-4.613651e-02
-5.803418e-02
-6.969477e-02
-8.100309e-02
-9.189593e-02
-1.023425e-01
-1.123300e-01
-1.218536e-01
-1.309118e-01
-1.395031e-01
-1.476240e-01
-1.552690e-01
-1.624288e-01
-1.690904e-01
-1.752358e-01
-1.808409e-01
-1.858742e-01
-1.902948e-01
-1.940511e-01
-1.970801e-01
-1.993100e-01
-2.006705e-01
-2.011219e-01
-2.007168e-01
-1.997184e-01
-1.987685e-01
-1.989998e-01
-2.015810e-01
-2.066314e-01
0.000000e+00
-7.211443e-03
-1.470813e-02
-2.244264e-02
-3.030466e-02
-3.816188e-02
-4.589578e-02
-5.342001e-02
-6.068049e-02
-6.764743e-02
-7.430573e-02
-8.064783e-02
-8.666886e-02
-9.236381e-02
-9.772582e-02
-1.027451e-01
-1.074080e-01
-1.116967e-01
-1.155883e-01
-1.190539e-01
-1.220588e-01
-1.245622e-01
-1.265187e-01
-1.278821e-01
-1.286146e-01
-1.287055e-01
-1.282046e-01
-1.272778e-01
-1.262777e-01
-1.257929e-01
-1.265493e-01
-1.290623e-01
-1.331391e-01
0.000000e+00
-3.581921e-03
-7.299260e-03
-1.113291e-02
-1.503446e-02
-1.894226e-02
-2.279779e-02
-2.655525e-02
-3.018370e-02
-3.366422e-02
-3.698562e-02
-4.014050e-02
-4.312239e-02
-4.592389e-02
-4.853548e-02
-5.094459e-02
-5.313506e-02
-5.508669e-02
-5.677493e-02
-5.817103e-02
-5.924273e-02
-5.995608e-02
-6.027923e-02
-6.018935e-02
-5.968467e-02
-5.880372e-02
-5.765310e-02
-5.644072e-02
-5.549956e-02
-5.526380e-02
-5.615123e-02
-5.834352e-02
-6.157835e-02
0.000000e+00
-5.779101e-06
-1.253073e-05
-1.988087e-05
-2.744289e-05
-3.469551e-05
-4.085310e-05
-4.472183e-05
-4.453144e-05
-3.773282e-05
-2.075365e-05
1.129230e-05
6.494160e-05
1.487560e-04
2.737176e-04
4.536106e-04
7.053295e-04
1.049019e-03
1.507897e-03
2.107520e-03
2.874167e-03
3.831821e-03
4.997095e-03
6.371252e-03
7.928552e-03
9.600776e-03
1.125990e-02
1.270538e-02
1.367030e-02
1.386598e-02
1.307807e-02
1.129373e-02
8.794668e-03
0.000000e+00
3.571036e-03
7.275611e-03
1.109531e-02
1.498244e-02
1.887630e-02
2.271984e-02
2.646947e-02
3.009756e-02
3.358995e-02
3.694216e-02
4.015594e-02
4.323712e-02
4.619444e-02
4.903907e-02
5.178452e-02
5.444666e-02
5.704355e-02
5.959500e-02
6.212140e-02
6.464162e-02
6.716954e-02
6.970877e-02
7.224521e-02
7.473762e-02
7.710737e-02
7.923039e-02
8.093794e-02
8.203509e-02
8.234570e-02
8.178315e-02
8.042768e-02
7.857288e-02
0.000000e+00
7.202550e-03
1.468867e-02
2.241149e-02
3.026123e-02
3.810629e-02
4.582932e-02
5.334570e-02
6.060401e-02
6.757824e-02
7.425873e-02
8.064533e-02
8.674322e-02
9.256060e-02
9.810768e-02
1.033963e-01
1.084396e-01
1.132522e-01
1.178487e-01
1.222436e-01
1.264483e-01
1.304679e-01
1.342971e-01
1.379138e-01
1.412725e-01
1.442988e-01
1.468873e-01
1.489091e-01
1.502324e-01
1.507614e-01
1.504894e-01
1.495515e-01
1.482569e-01
0.000000e+00
1.095196e-02
2.237210e-02
3.415838e-02
4.610729e-02
5.799604e-02
6.964810e-02
8.094938e-02
9.183828e-02
1.022865e-01
1.122844e-01
1.218323e-01
1.309351e-01
1.395998e-01
1.478345e-01
1.556482e-01
1.630498e-01
1.700489e-01
1.766544e-01
1.828739e-01
1.887118e-01
1.941668e-01
1.992282e-01
2.038722e-01
2.080577e-01
2.117240e-01
2.147920e-01
2.171731e-01
2.187878e-01
2.195969e-01
2.196424e-01
2.190922e-01
2.182741e-01
0.000000e+00
1.490812e-02
3.052611e-02
4.664241e-02
6.288900e-02
7.893573e-02
9.456134e-02
1.096540e-01
1.241633e-01
1.380702e-01
1.513708e-01
1.640673e-01
1.761643e-01
1.876669e-01
1.985798e-01
2.089076e-01
2.186542e-01
2.278227e-01
2.364153e-01
2.444325e-01
2.518718e-01
2.587264e-01
2.649831e-01
2.706203e-01
2.756063e-01
2.798993e-01
2.834501e-01
2.862097e-01
2.881438e-01
2.892549e-01
2.896153e-01
2.894087e-01
2.889777e-01
0.000000e+00
1.921342e-02
3.948789e-02
6.031712e-02
8.109724e-02
1.013737e-01
1.209727e-01
1.398316e-01
1.579329e-01
1.752750e-01
1.918611e-01
2.076949e-01
2.227795e-01
2.371164e-01
2.507060e-01
2.635472e-01
2.756374e-01
2.869729e-01
2.975480e-01
3.073551e-01
3.163844e-01
3.246234e-01
3.320563e-01
3.386644e-01
3.444266e-01
3.493213e-01
3.533302e-01
3.564443e-01
3.586730e-01
3.600581e-01
3.606952e-01
3.607711e-01
3.606281e-01
0.000000e+00
2.422044e-02
4.986425e-02
7.597420e-02
1.013458e-01
1.257834e-01
1.492708e-01
1.718296e-01
1.934782e-01
2.142282e-01
2.340851e-01
2.530505e-01
2.711231e-01
2.882996e-01
3.045744e-01
3.199403e-01
3.343878e-01
3.479051e-01
3.604779e-01
3.720894e-01
3.827207e-01
3.923510e-01
4.009593e-01
4.085264e-01
4.150381e-01
4.204891e-01
4.248896e-01
4.282704e-01
4.306900e-01
4.322397e-01
4.330508e-01
4.333150e-01
4.333465e-01
0.000000e+00
3.053709e-02
6.353707e-02
9.465447e-02
1.242335e-01
1.525555e-01
1.797698e-01
2.059410e-01
2.310934e-01
2.552329e-01
2.783569e-01
3.004588e-01
3.215305e-01
3.415621e-01
3.605424e-01
3.784579e-01
3.952922e-01
4.110255e-01
4.256342e-01
4.390906e-01
4.513639e-01
4.624209e-01
4.722289e-01
4.807599e-01
4.879962e-01
4.939381e-01
4.986137e-01
5.020889e-01
5.044762e-01
5.059390e-01
5.066863e-01
5.069573e-01
5.070236e-01
0.000000e+00
4.554040e-02
8.263444e-02
1.170030e-01
1.499926e-01
1.818548e-01
2.126536e-01
2.423860e-01
2.710324e-01
2.985697e-01
3.249769e-01
3.502355e-01
3.743292e-01
3.972429e-01
4.189603e-01
4.394635e-01
4.587305e-01
4.767346e-01
4.934429e-01
5.088156e-01
5.228067e-01
5.353646e-01
5.464353e-01
5.559682e-01
5.639239e-01
5.702862e-01
5.750780e-01
5.783790e-01
5.803465e-01
5.812331e-01
5.813942e-01
5.812607e-01
5.811856e-01
0.000000e+00
-2.813425e-02
-4.910035e-02
-7.197941e-02
-9.745661e-02
-1.262356e-01
-1.585165e-01
-1.943553e-01
-2.337164e-01
-2.765154e-01
-3.226388e-01
-3.719561e-01
-4.243266e-01
-4.796038e-01
-5.376382e-01
-5.982792e-01
-6.613772e-01
-7.267852e-01
-7.943611e-01
-8.639710e-01
-9.354939e-01
-1.008828e+00
-1.083900e+00
-1.160681e+00
-1.239210e+00
-1.319632e+00
-1.402266e+00
-1.487737e+00
-1.577237e+00
-1.673130e+00
-1.780512e+00
-1.911411e+00
-2.092251e+00
0.000000e+00
-1.748437e-02
-3.943034e-02
-6.246374e-02
-8.829604e-02
-1.173877e-01
-1.499823e-01
-1.861348e-01
-2.258126e-01
-2.689315e-01
-3.153773e-01
-3.650184e-01
-4.177129e-01
-4.733131e-01
-5.316681e-01
-5.926257e-01
-6.560347e-01
-7.217455e-01
-7.896137e-01
-8.595018e-01
-9.312847e-01
-1.004855e+00
-1.080133e+00
-1.157082e+00
-1.235730e+00
-1.316208e+00
-1.398820e+00
-1.484170e+00
-1.573426e+00
-1.668912e+00
-1.775465e+00
-1.903450e+00
-2.072401e+00
0.000000e+00
-1.284328e-02
-3.178855e-02
-5.450774e-02
-8.038517e-02
-1.096912e-01
-1.425430e-01
-1.789711e-01
-2.189315e-01
-2.623360e-01
-3.090686e-01
-3.589966e-01
-4.119775e-01
-4.678629e-01
-5.265015e-01
-5.877406e-01
-6.514281e-01
-7.174137e-01
-7.855517e-01
-8.557039e-01
-9.277438e-01
-1.001563e+00
-1.077083e+00
-1.154266e+00
-1.233144e+00
-1.313857e+00
-1.396721e+00
-1.482355e+00
-1.571914e+00
-1.667489e+00
-1.772656e+00
-1.891637e+00
-2.023622e+00
0.000000e+00
-1.028435e-02
-2.691849e-02
-4.842618e-02
-7.397105e-02
-1.032680e-01
-1.362603e-01
-1.728924e-01
-2.130855e-01
-2.567348e-01
-3.037170e-01
-3.538962e-01
-4.071288e-01
-4.632659e-01
-5.221565e-01
-5.836482e-01
-6.475894e-01
-7.138304e-01
-7.822264e-01
-8.526401e-01
-9.249469e-01
-9.990412e-01
-1.074847e+00
-1.152335e+00
-1.231543e+00
-1.312617e+00
-1.395871e+00
-1.481876e+00
-1.571576e+00
-1.666350e+00
-1.767517e+00
-1.874217e+00
-1.973543e+00
0.000000e+00
-8.702254e-03
-2.373365e-02
-4.410755e-02
-6.907010e-02
-9.817498e-02
-1.311797e-01
-1.679309e-01
-2.082956e-01
-2.521421e-01
-2.993331e-01
-3.497265e-01
-4.031759e-01
-4.595324e-01
-5.186451e-01
-5.803630e-01
-6.445358e-01
-7.110156e-01
-7.796595e-01
-8.503327e-01
-9.229131e-01
-9.972986e-01
-1.073417e+00
-1.151238e+00
-1.230801e+00
-1.312231e+00
-1.395785e+00
-1.481874e+00
-1.571041e+00
-1.663724e+00
-1.759480e+00
-1.854793e+00
-1.941296e+00
0.000000e+00
-7.695551e-03
-2.164399e-02
-4.113566e-02
-6.553630e-02
-9.436854e-02
-1.273015e-01
-1.640997e-01
-2.045775e-01
-2.485717e-01
-2.959281e-01
-3.464963e-01
-4.001262e-01
-4.566682e-01
-5.159723e-01
-5.778888e-01
-6.422695e-01
-7.089687e-01
-7.778458e-01
-8.487680e-01
-9.216151e-01
-9.962854e-01
-1.072704e+00
-1.150835e+00
-1.230691e+00
-1.312349e+00
-1.395953e+00
-1.481685e+00
-1.569642e+00
-1.659529e+00
-1.749976e+00
-1.837751e+00
-1.917977e+00
0.000000e+00
-7.069896e-03
-2.032281e-02
-3.920386e-02
-6.316890e-02
-9.175269e-02
-1.245879e-01
-1.613907e-01
-2.019353e-01
-2.460317e-01
-2.935101e-01
-3.442118e-01
-3.979834e-01
-4.546745e-01
-5.141359e-01
-5.762199e-01
-6.407800e-01
-7.076727e-01
-7.767589e-01
-8.479067e-01
-9.209949e-01
-9.959177e-01
-1.072590e+00
-1.150955e+00
-1.230985e+00
-1.312681e+00
-1.396051e+00
-1.481047e+00
-1.567424e+00
-1.654479e+00
-1.740705e+00
-1.823617e+00
-1.900169e+00
0.000000e+00
-6.726090e-03
-1.958971e-02
-3.811526e-02
-6.181141e-02
-9.022898e-02
-1.229888e-01
-1.597835e-01
-2.003642e-01
-2.445239e-01
-2.920822e-01
-3.428749e-01
-3.967466e-01
-4.535467e-01
-5.131274e-01
-5.753423e-01
-6.400468e-01
-7.070987e-01
-7.763593e-01
-8.476953e-01
-9.209813e-01
-9.961021e-01
-1.072955e+00
-1.151453e+00
-1.231515e+00
-1.313061e+00
-1.395969e+00
-1.480014e+00
-1.564748e+00
-1.649336e+00
-1.732420e+00
-1.812131e+00
-1.886390e+00
0.000000e+00
-6.615317e-03
-1.935320e-02
-3.776243e-02
-6.136898e-02
-8.973030e-02
-1.224650e-01
-1.592591e-01
-1.998569e-01
-2.440461e-01
-2.916435e-01
-3.424834e-01
-3.964109e-01
-4.532764e-01
-5.129332e-01
-5.752368e-01
-6.400436e-01
-7.072119e-01
-7.766018e-01
-8.480766e-01
-9.215034e-01
-9.967535e-01
-1.073702e+00
-1.152225e+00
-1.232189e+00
-1.313436e+00
-1.395745e+00
-1.478776e+00
-1.561994e+00
-1.644578e+00
-1.725379e+00
-1.802970e+00
-1.875829e+00
0.000000e+00
-6.722886e-03
-1.958527e-02
-3.811143e-02
-6.181025e-02
-9.023305e-02
-1.230015e-01
-1.598092e-01
-2.004088e-01
-2.445951e-01
-2.921901e-01
-3.430318e-01
-3.969681e-01
-4.538514e-01
-5.135370e-01
-5.758815e-01
-6.407420e-01
-7.079762e-01
-7.774420e-01
-8.489974e-01
-9.224999e-01
-9.978049e-01
-1.074763e+00
-1.153214e+00
-1.232977e+00
-1.313831e+00
-1.395485e+00
-1.477541e+00
-1.559448e+00
-1.640459e+00
-1.719627e+00
-1.795848e+00
-1.867959e+00
0.000000e+00
-7.063748e-03
-2.031428e-02
-3.919648e-02
-6.316659e-02
-9.176033e-02
-1.246119e-01
-1.614396e-01
-2.020205e-01
-2.461680e-01
-2.937166e-01
-3.445124e-01
-3.984079e-01
-4.552587e-01
-5.149218e-01
-5.772548e-01
-6.421149e-01
-7.093588e-01
-7.788409e-01
-8.504133e-01
-9.239228e-01
-9.992090e-01
-1.076099e+00
-1.154400e+00
-1.233891e+00
-1.314305e+00
-1.395309e+00
-1.476483e+00
-1.557296e+00
-1.637096e+00
-1.715117e+00
-1.790506e+00
-1.862372e+00
0.000000e+00
-7.687004e-03
-2.163213e-02
-4.112535e-02
-6.553296e-02
-9.437899e-02
-1.273347e-01
-1.641677e-01
-2.046961e-01
-2.487617e-01
-2.962162e-01
-3.469162e-01
-4.007196e-01
-4.574853e-01
-5.170719e-01
-5.793377e-01
-6.441397e-01
-7.113327e-01
-7.807678e-01
-8.522909e-01
-9.257390e-01
-1.000937e+00
-1.077691e+00
-1.155783e+00
-1.234961e+00
-1.314925e+00
-1.395320e+00
-1.475724e+00
-1.555644e+00
-1.634521e+00
-1.711749e+00
-1.786696e+00
-1.858709e+00
0.000000e+00
-8.692186e-03
-2.371968e-02
-4.409540e-02
-6.906624e-02
-9.818763e-02
-1.312198e-01
-1.680129e-01
-2.084388e-01
-2.523716e-01
-2.996813e-01
-3.502341e-01
-4.038935e-01
-4.605207e-01
-5.199757e-01
-5.821168e-01
-6.468004e-01
-7.138796e-01
-7.832023e-01
-8.546090e-01
-9.279284e-01
-1.002973e+00
-1.079535e+00
-1.157374e+00
-1.236217e+00
-1.315746e+00
-1.395592e+00
-1.475341e+00
-1.554540e+00
-1.632713e+00
-1.709399e+00
-1.784166e+00
-1.856613e+00
0.000000e+00
-1.027400e-02
-2.690416e-02
-4.841383e-02
-7.396773e-02
-1.032829e-01
-1.363055e-01
-1.729840e-01
-2.132447e-01
-2.569895e-01
-3.041029e-01
-3.544584e-01
-4.079228e-01
-4.643589e-01
-5.236271e-01
-5.855856e-01
-6.500898e-01
-7.169914e-01
-7.861357e-01
-8.573589e-01
-9.304838e-01
-1.005315e+00
-1.081632e+00
-1.159184e+00
-1.237683e+00
-1.316798e+00
-1.396160e+00
-1.475362e+00
-1.553983e+00
-1.631617e+00
-1.707921e+00
-1.782655e+00
-1.855700e+00
0.000000e+00
-1.283426e-02
-3.177600e-02
-5.449731e-02
-8.038418e-02
-1.097093e-01
-1.425929e-01
-1.790696e-01
-2.191008e-01
-2.626048e-01
-3.094738e-01
-3.595847e-01
-4.128056e-01
-4.689998e-01
-5.280276e-01
-5.897466e-01
-6.540115e-01
-7.206723e-01
-7.895726e-01
-8.605458e-01
-9.334108e-01
-1.007967e+00
-1.083989e+00
-1.161218e+00
-1.239361e+00
-1.318084e+00
-1.397015e+00
-1.475760e+00
-1.553920e+00
-1.631137e+00
-1.707155e+00
-1.781896e+00
-1.855540e+00
0.000000e+00
-1.747857e-02
-3.942180e-02
-6.245760e-02
-8.829984e-02
-1.174113e-01
-1.500385e-01
-1.862405e-01
-2.259899e-01
-2.692089e-01
-3.157912e-01
-3.656143e-01
-4.185466e-01
-4.744511e-01
-5.331875e-01
-5.946129e-01
-6.585808e-01
-7.249402e-01
-7.935329e-01
-8.641907e-01
-9.367303e-01
-1.010949e+00
-1.086619e+00
-1.163481e+00
-1.241241e+00
-1.319567e+00
-1.398096e+00
-1.476441e+00
-1.554224e+00
-1.631115e+00
-1.706905e+00
-1.781621e+00
-1.855676e+00
0.000000e+00
-2.813343e-02
-4.909750e-02
-7.197995e-02
-9.746810e-02
-1.262680e-01
-1.585826e-01
-1.944718e-01
-2.339049e-01
-2.768037e-01
-3.230619e-01
-3.725574e-01
-4.251586e-01
-4.807284e-01
-5.391262e-01
-6.002078e-01
-6.638260e-01
-7.298281e-01
-7.980544e-01
-8.683347e-01
-9.404841e-01
-1.014299e+00
-1.089551e+00