TITLE = "Solution"
VARIABLES = x, y, u, v, psiu, psiv, t, stress
ZONE T="structure" N=561 E=512 F=FEBLOCK ET=QUADRILATERAL VARLOCATION=([7,8]=cellcentered)
0.000000e+00
6.250000e+00
1.250000e+01
1.875000e+01
2.500000e+01
3.125000e+01
3.750000e+01
4.375000e+01
5.000000e+01
5.625000e+01
6.250000e+01
6.875000e+01
7.500000e+01
8.125000e+01
8.750000e+01
9.375000e+01
1.000000e+02
1.062500e+02
1.125000e+02
1.187500e+02
1.250000e+02
1.312500e+02
1.375000e+02
1.437500e+02
1.500000e+02
1.562500e+02
1.625000e+02
1.687500e+02
1.750000e+02
1.812500e+02
1.875000e+02
1.937500e+02
2.000000e+02
0.000000e+00
6.250000e+00
1.250000e+01
1.875000e+01
2.500000e+01
3.125000e+01
3.750000e+01
4.375000e+01
5.000000e+01
5.625000e+01
6.250000e+01
6.875000e+01
7.500000e+01
8.125000e+01
8.750000e+01
9.375000e+01
1.000000e+02
1.062500e+02
1.125000e+02
1.187500e+02
1.250000e+02
1.312500e+02
1.375000e+02
1.437500e+02
1.500000e+02
1.562500e+02
1.625000e+02
1.687500e+02
1.750000e+02
1.812500e+02
1.875000e+02
1.937500e+02
2.000000e+02
0.000000e+00
6.250000e+00
1.250000e+01
1.875000e+01
2.500000e+01
3.125000e+01
3.750000e+01
4.375000e+01
5.000000e+01
5.625000e+01
6.250000e+01
6.875000e+01
7.500000e+01
8.125000e+01
8.750000e+01
9.375000e+01
1.000000e+02
1.062500e+02
1.125000e+02
1.187500e+02
1.250000e+02
1.312500e+02
1.375000e+02
1.437500e+02
1.500000e+02
1.562500e+02
1.625000e+02
1.687500e+02
1.750000e+02
1.812500e+02
1.875000e+02
1.937500e+02
2.000000e+02
0.000000e+00
6.250000e+00
1.250000e+01
1.875000e+01
2.500000e+01
3.125000e+01
3.750000e+01
4.375000e+01
5.000000e+01
5.625000e+01
6.250000e+01
6.875000e+01
7.500000e+01
8.125000e+01
8.750000e+01
9.375000e+01
1.000000e+02
1.062500e+02
1.125000e+02
1.187500e+02
1.250000e+02
1.312500e+02
1.375000e+02
1.437500e+02
1.500000e+02
1.562500e+02
1.625000e+02
1.687500e+02
1.750000e+02
1.812500e+02
1.875000e+02
1.937500e+02
2.000000e+02
0.000000e+00
6.250000e+00
1.250000e+01
1.875000e+01
2.500000e+01
3.125000e+01
3.750000e+01
4.375000e+01
5.000000e+01
5.625000e+01
6.250000e+01
6.875000e+01
7.500000e+01
8.125000e+01
8.750000e+01
9.375000e+01
1.000000e+02
1.062500e+02
1.125000e+02
1.187500e+02
1.250000e+02
1.312500e+02
1.375000e+02
1.437500e+02
1.500000e+02
1.562500e+02
1.625000e+02
1.687500e+02
1.750000e+02
1.812500e+02
1.875000e+02
1.937500e+02
2.000000e+02
0.000000e+00
6.250000e+00
1.250000e+01
1.875000e+01
2.500000e+01
3.125000e+01
3.750000e+01
4.375000e+01
5.000000e+01
5.625000e+01
6.250000e+01
6.875000e+01
7.500000e+01
8.125000e+01
8.750000e+01
9.375000e+01
1.000000e+02
1.062500e+02
1.125000e+02
1.187500e+02
1.250000e+02
1.312500e+02
1.375000e+02
1.437500e+02
1.500000e+02
1.562500e+02
1.625000e+02
1.687500e+02
1.750000e+02
1.812500e+02
1.875000e+02
1.937500e+02
2.000000e+02
0.000000e+00
6.250000e+00
1.250000e+01
1.875000e+01
2.500000e+01
3.125000e+01
3.750000e+01
4.375000e+01
5.000000e+01
5.625000e+01
6.250000e+01
6.875000e+01
7.500000e+01
8.125000e+01
8.750000e+01
9.375000e+01
1.000000e+02
1.062500e+02
1.125000e+02
1.187500e+02
1.250000e+02
1.312500e+02
1.375000e+02
1.437500e+02
1.500000e+02
1.562500e+02
1.625000e+02
1.687500e+02
1.750000e+02
1.812500e+02
1.875000e+02
1.937500e+02
2.000000e+02
0.000000e+00
6.250000e+00
1.250000e+01
1.875000e+01
2.500000e+01
3.125000e+01
3.750000e+01
4.375000e+01
5.000000e+01
5.625000e+01
6.250000e+01
6.875000e+01
7.500000e+01
8.125000e+01
8.750000e+01
9.375000e+01
1.000000e+02
1.062500e+02
1.125000e+02
1.187500e+02
1.250000e+02
1.312500e+02
1.375000e+02
1.437500e+02
1.500000e+02
1.562500e+02
1.625000e+02
1.687500e+02
1.750000e+02
1.812500e+02
1.875000e+02
1.937500e+02
2.000000e+02
0.000000e+00
6.250000e+00
1.250000e+01
1.875000e+01
2.500000e+01
3.125000e+01
3.750000e+01
4.375000e+01
5.000000e+01
5.625000e+01
6.250000e+01
6.875000e+01
7.500000e+01
8.125000e+01
8.750000e+01
9.375000e+01
1.000000e+02
1.062500e+02
1.125000e+02
1.187500e+02
1.250000e+02
1.312500e+02
1.375000e+02
1.437500e+02
1.500000e+02
1.562500e+02
1.625000e+02
1.687500e+02
1.750000e+02
1.812500e+02
1.875000e+02
1.937500e+02
2.000000e+02
0.000000e+00
6.250000e+00
1.250000e+01
1.875000e+01
2.500000e+01
3.125000e+01
3.750000e+01
4.375000e+01
5.000000e+01
5.625000e+01
6.250000e+01
6.875000e+01
7.500000e+01
8.125000e+01
8.750000e+01
9.375000e+01
1.000000e+02
1.062500e+02
1.125000e+02
1.187500e+02
1.250000e+02
1.312500e+02
1.375000e+02
1.437500e+02
1.500000e+02
1.562500e+02
1.625000e+02
1.687500e+02
1.750000e+02
1.812500e+02
1.875000e+02
1.937500e+02
2.000000e+02
0.000000e+00
6.250000e+00
1.250000e+01
1.875000e+01
2.500000e+01
3.125000e+01
3.750000e+01
4.375000e+01
5.000000e+01
5.625000e+01
6.250000e+01
6.875000e+01
7.500000e+01
8.125000e+01
8.750000e+01
9.375000e+01
1.000000e+02
1.062500e+02
1.125000e+02
1.187500e+02
1.250000e+02
1.312500e+02
1.375000e+02
1.437500e+02
1.500000e+02
1.562500e+02
1.625000e+02
1.687500e+02
1.750000e+02
1.812500e+02
1.875000e+02
1.937500e+02
2.000000e+02
0.000000e+00
6.250000e+00
1.250000e+01
1.875000e+01
2.500000e+01
3.125000e+01
3.750000e+01
4.375000e+01
5.000000e+01
5.625000e+01
6.250000e+01
6.875000e+01
7.500000e+01
8.125000e+01
8.750000e+01
9.375000e+01
1.000000e+02
1.062500e+02
1.125000e+02
1.187500e+02
1.250000e+02
1.312500e+02
1.375000e+02
1.437500e+02
1.500000e+02
1.562500e+02
1.625000e+02
1.687500e+02
1.750000e+02
1.812500e+02
1.875000e+02
1.937500e+02
2.000000e+02
0.000000e+00
6.250000e+00
1.250000e+01
1.875000e+01
2.500000e+01
3.125000e+01
3.750000e+01
4.375000e+01
5.000000e+01
5.625000e+01
6.250000e+01
6.875000e+01
7.500000e+01
8.125000e+01
8.750000e+01
9.375000e+01
1.000000e+02
1.062500e+02
1.125000e+02
1.187500e+02
1.250000e+02
1.312500e+02
1.375000e+02
1.437500e+02
1.500000e+02
1.562500e+02
1.625000e+02
1.687500e+02
1.750000e+02
1.812500e+02
1.875000e+02
1.937500e+02
2.000000e+02
0.000000e+00
6.250000e+00
1.250000e+01
1.875000e+01
2.500000e+01
3.125000e+01
3.750000e+01
4.375000e+01
5.000000e+01
5.625000e+01
6.250000e+01
6.875000e+01
7.500000e+01
8.125000e+01
8.750000e+01
9.375000e+01
1.000000e+02
1.062500e+02
1.125000e+02
1.187500e+02
1.250000e+02
1.312500e+02
1.375000e+02
1.437500e+02
1.500000e+02
1.562500e+02
1.625000e+02
1.687500e+02
1.750000e+02
1.812500e+02
1.875000e+02
1.937500e+02
2.000000e+02
0.000000e+00
6.250000e+00
1.250000e+01
1.875000e+01
2.500000e+01
3.125000e+01
3.750000e+01
4.375000e+01
5.000000e+01
5.625000e+01
6.250000e+01
6.875000e+01
7.500000e+01
8.125000e+01
8.750000e+01
9.375000e+01
1.000000e+02
1.062500e+02
1.125000e+02
1.187500e+02
1.250000e+02
1.312500e+02
1.375000e+02
1.437500e+02
1.500000e+02
1.562500e+02
1.625000e+02
1.687500e+02
1.750000e+02
1.812500e+02
1.875000e+02
1.937500e+02
2.000000e+02
0.000000e+00
6.250000e+00
1.250000e+01
1.875000e+01
2.500000e+01
3.125000e+01
3.750000e+01
4.375000e+01
5.000000e+01
5.625000e+01
6.250000e+01
6.875000e+01
7.500000e+01
8.125000e+01
8.750000e+01
9.375000e+01
1.000000e+02
1.062500e+02
1.125000e+02
1.187500e+02
1.250000e+02
1.312500e+02
1.375000e+02
1.437500e+02
1.500000e+02
1.562500e+02
1.625000e+02
1.687500e+02
1.750000e+02
1.812500e+02
1.875000e+02
1.937500e+02
2.000000e+02
0.000000e+00
6.250000e+00
1.250000e+01
1.875000e+01
2.500000e+01
3.125000e+01
3.750000e+01
4.375000e+01
5.000000e+01
5.625000e+01
6.250000e+01
6.875000e+01
7.500000e+01
8.125000e+01
8.750000e+01
9.375000e+01
1.000000e+02
1.062500e+02
1.125000e+02
1.187500e+02
1.250000e+02
1.312500e+02
1.375000e+02
1.437500e+02
1.500000e+02
1.562500e+02
1.625000e+02
1.687500e+02
1.750000e+02
1.812500e+02
1.875000e+02
1.937500e+02
2.000000e+02
0.000000e+00
0.000000e+00
0.000000e+00
0.000000e+00
0.000000e+00
0.000000e+00
0.000000e+00
0.000000e+00
0.000000e+00
0.000000e+00
0.000000e+00
0.000000e+00
0.000000e+00
0.000000e+00
0.000000e+00
0.000000e+00
0.000000e+00
0.000000e+00
0.000000e+00
0.000000e+00
0.000000e+00
0.000000e+00
0.000000e+00
0.000000e+00
0.000000e+00
0.000000e+00
0.000000e+00
0.000000e+00
0.000000e+00
0.000000e+00
0.000000e+00
0.000000e+00
0.000000e+00
6.250000e+00
6.250000e+00
6.250000e+00
6.250000e+00
6.250000e+00
6.250000e+00
6.250000e+00
6.250000e+00
6.250000e+00
6.250000e+00
6.250000e+00
6.250000e+00
6.250000e+00
6.250000e+00
6.250000e+00
6.250000e+00
6.250000e+00
6.250000e+00
6.250000e+00
6.250000e+00
6.250000e+00
6.250000e+00
6.250000e+00
6.250000e+00
6.250000e+00
6.250000e+00
6.250000e+00
6.250000e+00
6.250000e+00
6.250000e+00
6.250000e+00
6.250000e+00
6.250000e+00
1.250000e+01
1.250000e+01
1.250000e+01
1.250000e+01
1.250000e+01
1.250000e+01
1.250000e+01
1.250000e+01
1.250000e+01
1.250000e+01
1.250000e+01
1.250000e+01
1.250000e+01
1.250000e+01
1.250000e+01
1.250000e+01
1.250000e+01
1.250000e+01
1.250000e+01
1.250000e+01
1.250000e+01
1.250000e+01
1.250000e+01
1.250000e+01
1.250000e+01
1.250000e+01
1.250000e+01
1.250000e+01
1.250000e+01
1.250000e+01
1.250000e+01
1.250000e+01
1.250000e+01
1.875000e+01
1.875000e+01
1.875000e+01
1.875000e+01
1.875000e+01
1.875000e+01
1.875000e+01
1.875000e+01
1.875000e+01
1.875000e+01
1.875000e+01
1.875000e+01
1.875000e+01
1.875000e+01
1.875000e+01
1.875000e+01
1.875000e+01
1.875000e+01
1.875000e+01
1.875000e+01
1.875000e+01
1.875000e+01
1.875000e+01
1.875000e+01
1.875000e+01
1.875000e+01
1.875000e+01
1.875000e+01
1.875000e+01
1.875000e+01
1.875000e+01
1.875000e+01
1.875000e+01
2.500000e+01
2.500000e+01
2.500000e+01
2.500000e+01
2.500000e+01
2.500000e+01
2.500000e+01
2.500000e+01
2.500000e+01
2.500000e+01
2.500000e+01
2.500000e+01
2.500000e+01
2.500000e+01
2.500000e+01
2.500000e+01
2.500000e+01
2.500000e+01
2.500000e+01
2.500000e+01
2.500000e+01
2.500000e+01
2.500000e+01
2.500000e+01
2.500000e+01
2.500000e+01
2.500000e+01
2.500000e+01
2.500000e+01
2.500000e+01
2.500000e+01
2.500000e+01
2.500000e+01
3.125000e+01
3.125000e+01
3.125000e+01
3.125000e+01
3.125000e+01
3.125000e+01
3.125000e+01
3.125000e+01
3.125000e+01
3.125000e+01
3.125000e+01
3.125000e+01
3.125000e+01
3.125000e+01
3.125000e+01
3.125000e+01
3.125000e+01
3.125000e+01
3.125000e+01
3.125000e+01
3.125000e+01
3.125000e+01
3.125000e+01
3.125000e+01
3.125000e+01
3.125000e+01
3.125000e+01
3.125000e+01
3.125000e+01
3.125000e+01
3.125000e+01
3.125000e+01
3.125000e+01
3.750000e+01
3.750000e+01
3.750000e+01
3.750000e+01
3.750000e+01
3.750000e+01
3.750000e+01
3.750000e+01
3.750000e+01
3.750000e+01
3.750000e+01
3.750000e+01
3.750000e+01
3.750000e+01
3.750000e+01
3.750000e+01
3.750000e+01
3.750000e+01
3.750000e+01
3.750000e+01
3.750000e+01
3.750000e+01
3.750000e+01
3.750000e+01
3.750000e+01
3.750000e+01
3.750000e+01
3.750000e+01
3.750000e+01
3.750000e+01
3.750000e+01
3.750000e+01
3.750000e+01
4.375000e+01
4.375000e+01
4.375000e+01
4.375000e+01
4.375000e+01
4.375000e+01
4.375000e+01
4.375000e+01
4.375000e+01
4.375000e+01
4.375000e+01
4.375000e+01
4.375000e+01
4.375000e+01
4.375000e+01
4.375000e+01
4.375000e+01
4.375000e+01
4.375000e+01
4.375000e+01
4.375000e+01
4.375000e+01
4.375000e+01
4.375000e+01
4.375000e+01
4.375000e+01
4.375000e+01
4.375000e+01
4.375000e+01
4.375000e+01
4.375000e+01
4.375000e+01
4.375000e+01
5.000000e+01
5.000000e+01
5.000000e+01
5.000000e+01
5.000000e+01
5.000000e+01
5.000000e+01
5.000000e+01
5.000000e+01
5.000000e+01
5.000000e+01
5.000000e+01
5.000000e+01
5.000000e+01
5.000000e+01
5.000000e+01
5.000000e+01
5.000000e+01
5.000000e+01
5.000000e+01
5.000000e+01
5.000000e+01
5.000000e+01
5.000000e+01
5.000000e+01
5.000000e+01
5.000000e+01
5.000000e+01
5.000000e+01
5.000000e+01
5.000000e+01
5.000000e+01
5.000000e+01
5.625000e+01
5.625000e+01
5.625000e+01
5.625000e+01
5.625000e+01
5.625000e+01
5.625000e+01
5.625000e+01
5.625000e+01
5.625000e+01
5.625000e+01
5.625000e+01
5.625000e+01
5.625000e+01
5.625000e+01
5.625000e+01
5.625000e+01
5.625000e+01
5.625000e+01
5.625000e+01
5.625000e+01
5.625000e+01
5.625000e+01
5.625000e+01
5.625000e+01
5.625000e+01
5.625000e+01
5.625000e+01
5.625000e+01
5.625000e+01
5.625000e+01
5.625000e+01
5.625000e+01
6.250000e+01
6.250000e+01
6.250000e+01
6.250000e+01
6.250000e+01
6.250000e+01
6.250000e+01
6.250000e+01
6.250000e+01
6.250000e+01
6.250000e+01
6.250000e+01
6.250000e+01
6.250000e+01
6.250000e+01
6.250000e+01
6.250000e+01
6.250000e+01
6.250000e+01
6.250000e+01
6.250000e+01
6.250000e+01
6.250000e+01
6.250000e+01
6.250000e+01
6.250000e+01
6.250000e+01
6.250000e+01
6.250000e+01
6.250000e+01
6.250000e+01
6.250000e+01
6.250000e+01
6.875000e+01
6.875000e+01
6.875000e+01
6.875000e+01
6.875000e+01
6.875000e+01
6.875000e+01
6.875000e+01
6.875000e+01
6.875000e+01
6.875000e+01
6.875000e+01
6.875000e+01
6.875000e+01
6.875000e+01
6.875000e+01
6.875000e+01
6.875000e+01
6.875000e+01
6.875000e+01
6.875000e+01
6.875000e+01
6.875000e+01
6.875000e+01
6.875000e+01
6.875000e+01
6.875000e+01
6.875000e+01
6.875000e+01
6.875000e+01
6.875000e+01
6.875000e+01
6.875000e+01
7.500000e+01
7.500000e+01
7.500000e+01
7.500000e+01
7.500000e+01
7.500000e+01
7.500000e+01
7.500000e+01
7.500000e+01
7.500000e+01
7.500000e+01
7.500000e+01
7.500000e+01
7.500000e+01
7.500000e+01
7.500000e+01
7.500000e+01
7.500000e+01
7.500000e+01
7.500000e+01
7.500000e+01
7.500000e+01
7.500000e+01
7.500000e+01
7.500000e+01
7.500000e+01
7.500000e+01
7.500000e+01
7.500000e+01
7.500000e+01
7.500000e+01
7.500000e+01
7.500000e+01
8.125000e+01
8.125000e+01
8.125000e+01
8.125000e+01
8.125000e+01
8.125000e+01
8.125000e+01
8.125000e+01
8.125000e+01
8.125000e+01
8.125000e+01
8.125000e+01
8.125000e+01
8.125000e+01
8.125000e+01
8.125000e+01
8.125000e+01
8.125000e+01
8.125000e+01
8.125000e+01
8.125000e+01
8.125000e+01
8.125000e+01
8.125000e+01
8.125000e+01
8.125000e+01
8.125000e+01
8.125000e+01
8.125000e+01
8.125000e+01
8.125000e+01
8.125000e+01
8.125000e+01
8.750000e+01
8.750000e+01
8.750000e+01
8.750000e+01
8.750000e+01
8.750000e+01
8.750000e+01
8.750000e+01
8.750000e+01
8.750000e+01
8.750000e+01
8.750000e+01
8.750000e+01
8.750000e+01
8.750000e+01
8.750000e+01
8.750000e+01
8.750000e+01
8.750000e+01
8.750000e+01
8.750000e+01
8.750000e+01
8.750000e+01
8.750000e+01
8.750000e+01
8.750000e+01
8.750000e+01
8.750000e+01
8.750000e+01
8.750000e+01
8.750000e+01
8.750000e+01
8.750000e+01
9.375000e+01
9.375000e+01
9.375000e+01
9.375000e+01
9.375000e+01
9.375000e+01
9.375000e+01
9.375000e+01
9.375000e+01
9.375000e+01
9.375000e+01
9.375000e+01
9.375000e+01
9.375000e+01
9.375000e+01
9.375000e+01
9.375000e+01
9.375000e+01
9.375000e+01
9.375000e+01
9.375000e+01
9.375000e+01
9.375000e+01
9.375000e+01
9.375000e+01
9.375000e+01
9.375000e+01
9.375000e+01
9.375000e+01
9.375000e+01
9.375000e+01
9.375000e+01
9.375000e+01
1.000000e+02
1.000000e+02
1.000000e+02
1.000000e+02
1.000000e+02
1.000000e+02
1.000000e+02
1.000000e+02
1.000000e+02
1.000000e+02
1.000000e+02
1.000000e+02
1.000000e+02
1.000000e+02
1.000000e+02
1.000000e+02
1.000000e+02
1.000000e+02
1.000000e+02
1.000000e+02
1.000000e+02
1.000000e+02
1.000000e+02
1.000000e+02
1.000000e+02
1.000000e+02
1.000000e+02
1.000000e+02
1.000000e+02
1.000000e+02
1.000000e+02
1.000000e+02
1.000000e+02
0.000000e+00
-4.506262e-01
-7.601388e-01
-1.091465e+00
-1.397248e+00
-1.694930e+00
-2.003900e+00
-2.298860e+00
-2.599730e+00
-2.898952e+00
-3.197065e+00
-3.497581e+00
-3.796561e+00
-4.096123e+00
-4.396219e+00
-4.695649e+00
-4.995668e+00
-5.295543e+00
-5.595320e+00
-5.895457e+00
-6.195345e+00
-6.495649e+00
-6.795391e+00
-7.095779e+00
-7.398194e+00
-7.701905e+00
-8.015676e+00
-8.337419e+00
-8.665755e+00
-9.041611e+00
-9.507300e+00
-9.921923e+00
-1.012918e+01
0.000000e+00
-2.334566e-01
-4.764272e-01
-7.404561e-01
-1.007428e+00
-1.261356e+00
-1.530004e+00
-1.790332e+00
-2.052353e+00
-2.316802e+00
-2.577069e+00
-2.840821e+00
-3.102375e+00
-3.364195e+00
-3.626607e+00
-3.887786e+00
-4.149725e+00
-4.411057e+00
-4.672256e+00
-4.933493e+00
-5.194231e+00
-5.455284e+00
-5.715653e+00
-5.976535e+00
-6.237547e+00
-6.497111e+00
-6.759447e+00
-7.019248e+00
-7.274451e+00
-7.538923e+00
-7.776996e+00
-7.871864e+00
-7.977254e+00
0.000000e+00
-1.202241e-01
-2.715630e-01
-4.692948e-01
-6.826551e-01
-8.883321e-01
-1.113551e+00
-1.334973e+00
-1.558134e+00
-1.784795e+00
-2.007406e+00
-2.233262e+00
-2.457443e+00
-2.681841e+00
-2.906820e+00
-3.130929e+00
-3.355786e+00
-3.580320e+00
-3.804870e+00
-4.029495e+00
-4.253709e+00
-4.478055e+00
-4.701710e+00
-4.924611e+00
-5.145138e+00
-5.359854e+00
-5.566986e+00
-5.760774e+00
-5.935320e+00
-6.080812e+00
-6.155031e+00
-6.157651e+00
-6.250232e+00
0.000000e+00
-1.025128e-01
-1.951139e-01
-3.400160e-01
-4.694733e-01
-6.277048e-01
-8.018510e-01
-9.752892e-01
-1.158480e+00
-1.341007e+00
-1.525517e+00
-1.711758e+00
-1.898327e+00
-2.085822e+00
-2.274221e+00
-2.462938e+00
-2.652637e+00
-2.842776e+00
-3.033220e+00
-3.223912e+00
-3.413959e+00
-3.603098e+00
-3.789735e+00
-3.971857e+00
-4.146885e+00
-4.310001e+00
-4.457338e+00
-4.583473e+00
-4.679785e+00
-4.735198e+00
-4.743602e+00
-4.756346e+00
-4.837765e+00
0.000000e+00
-9.052260e-02
-1.799177e-01
-2.729635e-01
-3.820067e-01
-5.001406e-01
-6.305194e-01
-7.655895e-01
-9.075979e-01
-1.051645e+00
-1.197428e+00
-1.345613e+00
-1.493392e+00
-1.642789e+00
-1.792209e+00
-1.941899e+00
-2.092087e+00
-2.241755e+00
-2.391224e+00
-2.539464e+00
-2.685680e+00
-2.828788e+00
-2.966804e+00
-3.097706e+00
-3.218614e+00
-3.326232e+00
-3.416547e+00
-3.484772e+00
-3.526099e+00
-3.539842e+00
-3.534387e+00
-3.563033e+00
-3.638520e+00
0.000000e+00
-7.222794e-02
-1.423797e-01
-2.161758e-01
-2.966931e-01
-3.844784e-01
-4.786711e-01
-5.790776e-01
-6.828763e-01
-7.898857e-01
-8.984423e-01
-1.007838e+00
-1.118040e+00
-1.228185e+00
-1.338486e+00
-1.448518e+00
-1.558034e+00
-1.666839e+00
-1.774263e+00
-1.879705e+00
-1.982051e+00
-2.079875e+00
-2.171451e+00
-2.254625e+00
-2.327146e+00
-2.386594e+00
-2.430494e+00
-2.456497e+00
-2.464287e+00
-2.454292e+00
-2.448998e+00
-2.479125e+00
-2.548818e+00
0.000000e+00
-4.978756e-02
-9.917255e-02
-1.499516e-01
-2.041703e-01
-2.624235e-01
-3.248318e-01
-3.907135e-01
-4.593767e-01
-5.298218e-01
-6.013707e-01
-6.734201e-01
-7.455256e-01
-8.174465e-01
-8.888833e-01
-9.596404e-01
-1.029441e+00
-1.097928e+00
-1.164627e+00
-1.228801e+00
-1.289440e+00
-1.345186e+00
-1.394397e+00
-1.435273e+00
-1.465979e+00
-1.484842e+00
-1.490652e+00
-1.482326e+00
-1.459326e+00
-1.430787e+00
-1.421505e+00
-1.451519e+00
-1.521155e+00
0.000000e+00
-2.609570e-02
-5.210085e-02
-7.871612e-02
-1.066730e-01
-1.364190e-01
-1.679586e-01
-2.010736e-01
-2.353206e-01
-2.702543e-01
-3.054170e-01
-3.404429e-01
-3.750433e-01
-4.089725e-01
-4.420277e-01
-4.739850e-01
-5.046029e-01
-5.335846e-01
-5.605323e-01
-5.848842e-01
-6.058175e-01
-6.222030e-01
-6.326679e-01
-6.357772e-01
-6.300998e-01
-6.143235e-01
-5.868766e-01
-5.464274e-01
-4.997598e-01
-4.579701e-01
-4.450510e-01
-4.760839e-01
-5.466287e-01
0.000000e+00
-1.692308e-03
-3.422845e-03
-5.131569e-03
-6.754395e-03
-8.216201e-03
-9.429896e-03
-1.029569e-02
-1.070596e-02
-1.054582e-02
-9.694977e-03
-8.028713e-03
-5.417735e-03
-1.723606e-03
3.211218e-03
9.568031e-03
1.755014e-02
2.738149e-02
3.932049e-02
5.370616e-02
7.104922e-02
9.211534e-02
1.179419e-01
1.496566e-01
1.883261e-01
2.358960e-01
2.942011e-01
3.597267e-01
4.213858e-01
4.636060e-01
4.724329e-01
4.386422e-01
3.682767e-01
0.000000e+00
2.277709e-02
4.538830e-02
6.865330e-02
9.343599e-02
1.203318e-01
1.495276e-01
1.810015e-01
2.145188e-01
2.498437e-01
2.867325e-01
3.250377e-01
3.646991e-01
4.057297e-01
4.482312e-01
4.923419e-01
5.382375e-01
5.861071e-01
6.361402e-01
6.885339e-01
7.435253e-01
8.014778e-01
8.629138e-01
9.287253e-01
1.000633e+00
1.079219e+00
1.161453e+00
1.241070e+00
1.305766e+00
1.342985e+00
1.343687e+00
1.307936e+00
1.248677e+00
0.000000e+00
4.666140e-02
9.283658e-02
1.404622e-01
1.916984e-01
2.473162e-01
3.076245e-01
3.721689e-01
4.404426e-01
5.116248e-01
5.851867e-01
6.606475e-01
7.376910e-01
8.162298e-01
8.961995e-01
9.776986e-01
1.060842e+00
1.145828e+00
1.232957e+00
1.322572e+00
1.415054e+00
1.510513e+00
1.608906e+00
1.710247e+00
1.813701e+00
1.917235e+00
2.015549e+00
2.099497e+00
2.160722e+00
2.191544e+00
2.190025e+00
2.161634e+00
2.118130e+00
0.000000e+00
6.939794e-02
1.366275e-01
2.075175e-01
2.853476e-01
3.707375e-01
4.632127e-01
5.627629e-01
6.668074e-01
7.753202e-01
8.867712e-01
1.000499e+00
1.116448e+00
1.233819e+00
1.352820e+00
1.473141e+00
1.594624e+00
1.717387e+00
1.841558e+00
1.967875e+00
2.097259e+00
2.229997e+00
2.364697e+00
2.498101e+00
2.627102e+00
2.748327e+00
2.855958e+00
2.942904e+00
3.003224e+00
3.035233e+00
3.040046e+00
3.022730e+00
2.994697e+00
0.000000e+00
8.813963e-02
1.748738e-01
2.653965e-01
3.716950e-01
4.877931e-01
6.167004e-01
7.513678e-01
8.941793e-01
1.040567e+00
1.190308e+00
1.344059e+00
1.499276e+00
1.657723e+00
1.818041e+00
1.980204e+00
2.144184e+00
2.309042e+00
2.474774e+00
2.641103e+00
2.807924e+00
2.973810e+00
3.137033e+00
3.295187e+00
3.444448e+00
3.580602e+00
3.698385e+00
3.792431e+00
3.860016e+00
3.899995e+00
3.913907e+00
3.907567e+00
3.892690e+00
0.000000e+00
1.007425e-01
1.917908e-01
3.338101e-01
4.609199e-01
6.167058e-01
7.893076e-01
9.620350e-01
1.145657e+00
1.330019e+00
1.518017e+00
1.709293e+00
1.902753e+00
2.099266e+00
2.298808e+00
2.500672e+00
2.705176e+00
2.911671e+00
3.119192e+00
3.326920e+00
3.532143e+00
3.731955e+00
3.924820e+00
4.109479e+00
4.282501e+00
4.438065e+00
4.570698e+00
4.676282e+00
4.753086e+00
4.801519e+00
4.824215e+00
4.827213e+00
4.822251e+00
0.000000e+00
1.202455e-01
2.712891e-01
4.677183e-01
6.787962e-01
8.823761e-01
1.105632e+00
1.325611e+00
1.547912e+00
1.774659e+00
1.998172e+00
2.225954e+00
2.453090e+00
2.681693e+00
2.912294e+00
3.143022e+00
3.375395e+00
3.608246e+00
3.841353e+00
4.074658e+00
4.305549e+00
4.532010e+00
4.754273e+00
4.970522e+00
5.172644e+00
5.350742e+00
5.498217e+00
5.613049e+00
5.696017e+00
5.749583e+00
5.777829e+00
5.787098e+00
5.788167e+00
0.000000e+00
2.336612e-01
4.768270e-01
7.408292e-01
1.007596e+00
1.261381e+00
1.529660e+00
1.789606e+00
2.051263e+00
2.315164e+00
2.574814e+00
2.837841e+00
3.098481e+00
3.359147e+00
3.620198e+00
3.879530e+00
4.139159e+00
4.397627e+00
4.654738e+00
4.911308e+00
5.165801e+00
5.418535e+00
5.671401e+00
5.919580e+00
6.148167e+00
6.343603e+00
6.500278e+00
6.617904e+00
6.699288e+00
6.749477e+00
6.775275e+00
6.784681e+00
6.786975e+00
0.000000e+00
4.503820e-01
7.605795e-01
1.092971e+00
1.400657e+00
1.700406e+00
2.011176e+00
2.307553e+00
2.609564e+00
2.908894e+00
3.206390e+00
3.505392e+00
3.801537e+00
4.096980e+00
4.391256e+00
4.683210e+00
4.974322e+00
5.263780e+00
5.551170e+00
5.838196e+00
6.124212e+00
6.411094e+00
6.699396e+00
6.979260e+00
7.230166e+00
7.437520e+00
7.596322e+00
7.706943e+00
7.773517e+00
7.803853e+00
7.809552e+00
7.805083e+00
7.802525e+00
0.000000e+00
-2.693819e-01
-5.569898e-01
-9.203364e-01
-1.320271e+00
-1.760584e+00
-2.242927e+00
-2.758828e+00
-3.313331e+00
-3.903474e+00
-4.530115e+00
-5.194782e+00
-5.896071e+00
-6.635553e+00
-7.412692e+00
-8.227710e+00
-9.081053e+00
-9.972422e+00
-1.090228e+01
-1.187069e+01
-1.287797e+01
-1.392444e+01
-1.501025e+01
-1.613606e+01
-1.730225e+01
-1.851130e+01
-1.976779e+01
-2.107711e+01
-2.245127e+01
-2.390783e+01
-2.546375e+01
-2.728061e+01
-2.983706e+01
0.000000e+00
-1.717361e-01
-4.769046e-01
-8.330383e-01
-1.237893e+00
-1.676082e+00
-2.158491e+00
-2.675581e+00
-3.228917e+00
-3.819786e+00
-4.446096e+00
-5.110720e+00
-5.812249e+00
-6.551528e+00
-7.328809e+00
-8.143830e+00
-8.997160e+00
-9.888608e+00
-1.081844e+01
-1.178689e+01
-1.279412e+01
-1.384063e+01
-1.492643e+01
-1.605200e+01
-1.721826e+01
-1.842646e+01
-1.968169e+01
-2.099103e+01
-2.236244e+01
-2.381322e+01
-2.539014e+01
-2.719058e+01
-2.946008e+01
0.000000e+00
-1.458075e-01
-4.190509e-01
-7.740851e-01
-1.171352e+00
-1.607514e+00
-2.088400e+00
-2.604412e+00
-3.157439e+00
-3.748011e+00
-4.374353e+00
-5.038845e+00
-5.740566e+00
-6.479768e+00
-7.257210e+00
-8.072252e+00
-8.925637e+00
-9.817201e+00
-1.074707e+01
-1.171567e+01
-1.272291e+01
-1.376954e+01
-1.485547e+01
-1.598146e+01
-1.714892e+01
-1.835865e+01
-1.961648e+01
-2.092931e+01
-2.230592e+01
-2.377775e+01
-2.539106e+01
-2.708559e+01
-2.884951e+01
0.000000e+00
-1.758652e-01
-4.125443e-01
-7.583678e-01
-1.132682e+00
-1.561861e+00
-2.038688e+00
-2.549126e+00
-3.101894e+00
-3.690638e+00
-4.316471e+00
-4.980933e+00
-5.682153e+00
-6.421534e+00
-7.198913e+00
-8.013907e+00
-8.867472e+00
-9.759056e+00
-1.068919e+01
-1.165813e+01
-1.266582e+01
-1.371318e+01
-1.480025e+01
-1.592809e+01
-1.709846e+01
-1.831266e+01
-1.957589e+01
-2.089491e+01
-2.228161e+01
-2.376903e+01
-2.537520e+01
-2.693266e+01
-2.834610e+01
0.000000e+00
-1.945536e-01
-4.400959e-01
-7.581665e-01
-1.126737e+00
-1.541903e+00
-2.009962e+00
-2.514575e+00
-3.063393e+00
-3.650142e+00
-4.274368e+00
-4.938566e+00
-5.639126e+00
-6.378685e+00
-7.156027e+00
-7.971146e+00
-8.825037e+00
-9.716876e+00
-1.064765e+01
-1.161740e+01
-1.262637e+01
-1.367545e+01
-1.476491e+01
-1.589590e+01
-1.706994e+01
-1.828910e+01
-1.955755e+01
-2.088118e+01
-2.226983e+01
-2.374575e+01
-2.528759e+01
-2.672906e+01
-2.798751e+01
0.000000e+00
-2.025163e-01
-4.548486e-01
-7.630419e-01
-1.123453e+00
-1.533202e+00
-1.991006e+00
-2.492606e+00
-3.036491e+00
-3.621116e+00
-4.244783e+00
-4.907650e+00
-5.608827e+00
-6.348279e+00
-7.126043e+00
-7.941900e+00
-8.796234e+00
-9.689131e+00
-1.062098e+01
-1.159227e+01
-1.260346e+01
-1.365518e+01
-1.474801e+01
-1.588270e+01
-1.706033e+01
-1.828276e+01
-1.955338e+01
-2.087587e+01
-2.225154e+01
-2.369061e+01
-2.513953e+01
-2.650017e+01
-2.768197e+01
0.000000e+00
-2.064205e-01
-4.609304e-01
-7.662207e-01
-1.122214e+00
-1.527496e+00
-1.980264e+00
-2.478269e+00
-3.019540e+00
-3.602375e+00
-4.225542e+00
-4.888171e+00
-5.589696e+00
-6.329774e+00
-7.108232e+00
-7.925068e+00
-8.780404e+00
-9.674523e+00
-1.060787e+01
-1.158105e+01
-1.259473e+01
-1.364951e+01
-1.474583e+01
-1.588398e+01
-1.706429e+01
-1.828750e+01
-1.955561e+01
-2.086989e+01
-2.221942e+01
-2.360779e+01
-2.498050e+01
-2.626972e+01
-2.739107e+01
0.000000e+00
-2.079418e-01
-4.633180e-01
-7.677614e-01
-1.121741e+00
-1.524600e+00
-1.974951e+00
-2.471016e+00
-3.010974e+00
-3.593193e+00
-4.216330e+00
-4.879387e+00
-5.581650e+00
-6.322669e+00
-7.102213e+00
-7.920222e+00
-8.776807e+00
-9.672259e+00
-1.060710e+01
-1.158207e+01
-1.259800e+01
-1.365554e+01
-1.475487e+01
-1.589564e+01
-1.707709e+01
-1.829828e+01
-1.955875e+01
-2.085656e+01
-2.217391e+01
-2.351015e+01
-2.481985e+01
-2.604247e+01
-2.710513e+01
0.000000e+00
-2.082674e-01
-4.638952e-01
-7.682266e-01
-1.121798e+00
-1.524167e+00
-1.974126e+00
-2.470039e+00
-3.010163e+00
-3.592878e+00
-4.216817e+00
-4.880903e+00
-5.584356e+00
-6.326664e+00
-7.107551e+00
-7.926922e+00
-8.784836e+00
-9.681554e+00
-1.061761e+01
-1.159387e+01
-1.261135e+01
-1.367085e+01
-1.477225e+01
-1.591416e+01
-1.709449e+01
-1.831005e+01
-1.955766e+01
-2.083319e+01
-2.212045e+01
-2.340535e+01
-2.465656e+01
-2.581208e+01
-2.681147e+01
0.000000e+00
-2.077368e-01
-4.631466e-01
-7.678638e-01
-1.122372e+00
-1.526045e+00
-1.977526e+00
-2.475057e+00
-3.016827e+00
-3.601190e+00
-4.226766e+00
-4.892485e+00
-5.597545e+00
-6.341427e+00
-7.123849e+00
-7.944682e+00
-8.803914e+00
-9.701714e+00
-1.063856e+01
-1.161537e+01
-1.263339e+01
-1.369359e+01
-1.479555e+01
-1.593638e+01
-1.711170e+01
-1.831809e+01
-1.955084e+01
-2.080376e+01
-2.206123e+01
-2.330283e+01
-2.449849e+01
-2.559860e+01
-2.655798e+01
0.000000e+00
-2.060058e-01
-4.605816e-01
-7.664117e-01
-1.123444e+00
-1.530339e+00
-1.985365e+00
-2.486303e+00
-3.031179e+00
-3.618266e+00
-4.246242e+00
-4.914088e+00
-5.621063e+00
-6.366690e+00
-7.150709e+00
-7.972973e+00
-8.833375e+00
-9.731976e+00
-1.066913e+01
-1.164571e+01
-1.266314e+01
-1.372237e+01
-1.482223e+01
-1.595840e+01
-1.712599e+01
-1.832208e+01
-1.954128e+01
-2.077302e+01
-2.200251e+01
-2.320678e+01
-2.435904e+01
-2.542435e+01
-2.636831e+01
0.000000e+00
-2.018707e-01
-4.542880e-01
-7.632871e-01
-1.125179e+00
-1.537310e+00
-1.998528e+00
-2.504536e+00
-3.053819e+00
-3.644768e+00
-4.275542e+00
-4.946016e+00
-5.655072e+00
-6.402440e+00
-7.188043e+00
-8.011435e+00
-8.872616e+00
-9.771473e+00
-1.070821e+01
-1.168377e+01
-1.269942e+01
-1.375523e+01
-1.484961e+01
-1.597890e+01
-1.713892e+01
-1.832619e+01
-1.953335e+01
-2.074737e+01
-2.195154e+01
-2.312626e+01
-2.424903e+01
-2.529569e+01
-2.624098e+01
0.000000e+00
-1.936088e-01
-4.392348e-01
-7.583825e-01
-1.128648e+00
-1.547019e+00
-2.019643e+00
-2.530164e+00
-3.086179e+00
-3.681327e+00
-4.314912e+00
-4.988935e+00
-5.699676e+00
-6.449156e+00
-7.236217e+00
-8.060331e+00
-8.921859e+00
-9.820074e+00
-1.075540e+01
-1.172877e+01
-1.274097e+01
-1.379101e+01
-1.487811e+01
-1.600079e+01
-1.715543e+01
-1.833650e+01
-1.953394e+01
-2.073243e+01
-2.191582e+01
-2.306747e+01
-2.417063e+01
-2.520910e+01
-2.616734e+01
0.000000e+00
-1.745334e-01
-4.115733e-01
-7.579742e-01
-1.134492e+00
-1.567338e+00
-2.049846e+00
-2.567501e+00
-3.129176e+00
-3.728154e+00
-4.365294e+00
-5.041624e+00
-5.754900e+00
-6.506046e+00
-7.294560e+00
-8.119361e+00
-8.980758e+00
-9.878101e+00
-1.081133e+01
-1.178157e+01
-1.278873e+01
-1.383196e+01
-1.491225e+01
-1.603036e+01
-1.718244e+01
-1.835916e+01
-1.954747e+01
-2.073179e+01
-2.189769e+01
-2.303144e+01
-2.412093e+01
-2.515715e+01
-2.613493e+01
0.000000e+00
-1.449142e-01
-4.180506e-01
-7.734564e-01
-1.172621e+00
-1.612723e+00
-2.099664e+00
-2.623592e+00
-3.186346e+00
-3.788156e+00
-4.426721e+00
-5.104168e+00
-5.818996e+00
-6.570999e+00
-7.360389e+00
-8.185589e+00
-9.046918e+00
-9.943735e+00
-1.087554e+01
-1.184306e+01
-1.284572e+01
-1.388358e+01
-1.495951e+01
-1.607535e+01
-1.722498e+01
-1.839583e+01
-1.957365e+01
-2.074473e+01
-2.189604e+01
-2.301578e+01
-2.409511e+01
-2.513098e+01
-2.612895e+01
0.000000e+00
-1.710674e-01
-4.757673e-01
-8.321624e-01
-1.238796e+00
-1.681006e+00
-2.169543e+00
-2.694777e+00
-3.258117e+00
-3.860525e+00
-4.499368e+00
-5.177288e+00
-5.892273e+00
-6.644677e+00
-7.434078e+00
-8.259249e+00
-9.120361e+00
-1.001662e+01
-1.094764e+01
-1.191351e+01
-1.291376e+01
-1.394951e+01
-1.502412e+01
-1.613768e+01
-1.728172e+01
-1.844313e+01
-1.960920e+01
-2.076772e+01
-2.190668e+01
-2.301536e+01
-2.408676e+01
-2.512151e+01
-2.613345e+01
0.000000e+00
-2.687980e-01
-5.560004e-01
-9.196430e-01
-1.321474e+00
-1.765770e+00
-2.254177e+00
-2.778212e+00
-3.342655e+00
-3.944196e+00
-4.583307e+00
-5.261119e+00
-5.975685e+00
-6.728075e+00
-7.517006e+00
-8.341850e+00
-9.202607e+00
-1.009826e+01
-1.102876e+01
-1.199397e+01
-1.299352e+01
-1.402938e+01