TITLE = "Solution"
VARIABLES = x, y, u, v, psiu, psiv, t, stress
ZONE T="structure" N=561 E=512 F=FEBLOCK ET=QUADRILATERAL VARLOCATION=([7,8]=cellcentered)
0.000000e+00
6.250000e+00
1.250000e+01
1.875000e+01
2.500000e+01
3.125000e+01
3.750000e+01
4.375000e+01
5.000000e+01
5.625000e+01
6.250000e+01
6.875000e+01
7.500000e+01
8.125000e+01
8.750000e+01
9.375000e+01
1.000000e+02
1.062500e+02
1.125000e+02
1.187500e+02
1.250000e+02
1.312500e+02
1.375000e+02
1.437500e+02
1.500000e+02
1.562500e+02
1.625000e+02
1.687500e+02
1.750000e+02
1.812500e+02
1.875000e+02
1.937500e+02
2.000000e+02
0.000000e+00
6.250000e+00
1.250000e+01
1.875000e+01
2.500000e+01
3.125000e+01
3.750000e+01
4.375000e+01
5.000000e+01
5.625000e+01
6.250000e+01
6.875000e+01
7.500000e+01
8.125000e+01
8.750000e+01
9.375000e+01
1.000000e+02
1.062500e+02
1.125000e+02
1.187500e+02
1.250000e+02
1.312500e+02
1.375000e+02
1.437500e+02
1.500000e+02
1.562500e+02
1.625000e+02
1.687500e+02
1.750000e+02
1.812500e+02
1.875000e+02
1.937500e+02
2.000000e+02
0.000000e+00
6.250000e+00
1.250000e+01
1.875000e+01
2.500000e+01
3.125000e+01
3.750000e+01
4.375000e+01
5.000000e+01
5.625000e+01
6.250000e+01
6.875000e+01
7.500000e+01
8.125000e+01
8.750000e+01
9.375000e+01
1.000000e+02
1.062500e+02
1.125000e+02
1.187500e+02
1.250000e+02
1.312500e+02
1.375000e+02
1.437500e+02
1.500000e+02
1.562500e+02
1.625000e+02
1.687500e+02
1.750000e+02
1.812500e+02
1.875000e+02
1.937500e+02
2.000000e+02
0.000000e+00
6.250000e+00
1.250000e+01
1.875000e+01
2.500000e+01
3.125000e+01
3.750000e+01
4.375000e+01
5.000000e+01
5.625000e+01
6.250000e+01
6.875000e+01
7.500000e+01
8.125000e+01
8.750000e+01
9.375000e+01
1.000000e+02
1.062500e+02
1.125000e+02
1.187500e+02
1.250000e+02
1.312500e+02
1.375000e+02
1.437500e+02
1.500000e+02
1.562500e+02
1.625000e+02
1.687500e+02
1.750000e+02
1.812500e+02
1.875000e+02
1.937500e+02
2.000000e+02
0.000000e+00
6.250000e+00
1.250000e+01
1.875000e+01
2.500000e+01
3.125000e+01
3.750000e+01
4.375000e+01
5.000000e+01
5.625000e+01
6.250000e+01
6.875000e+01
7.500000e+01
8.125000e+01
8.750000e+01
9.375000e+01
1.000000e+02
1.062500e+02
1.125000e+02
1.187500e+02
1.250000e+02
1.312500e+02
1.375000e+02
1.437500e+02
1.500000e+02
1.562500e+02
1.625000e+02
1.687500e+02
1.750000e+02
1.812500e+02
1.875000e+02
1.937500e+02
2.000000e+02
0.000000e+00
6.250000e+00
1.250000e+01
1.875000e+01
2.500000e+01
3.125000e+01
3.750000e+01
4.375000e+01
5.000000e+01
5.625000e+01
6.250000e+01
6.875000e+01
7.500000e+01
8.125000e+01
8.750000e+01
9.375000e+01
1.000000e+02
1.062500e+02
1.125000e+02
1.187500e+02
1.250000e+02
1.312500e+02
1.375000e+02
1.437500e+02
1.500000e+02
1.562500e+02
1.625000e+02
1.687500e+02
1.750000e+02
1.812500e+02
1.875000e+02
1.937500e+02
2.000000e+02
0.000000e+00
6.250000e+00
1.250000e+01
1.875000e+01
2.500000e+01
3.125000e+01
3.750000e+01
4.375000e+01
5.000000e+01
5.625000e+01
6.250000e+01
6.875000e+01
7.500000e+01
8.125000e+01
8.750000e+01
9.375000e+01
1.000000e+02
1.062500e+02
1.125000e+02
1.187500e+02
1.250000e+02
1.312500e+02
1.375000e+02
1.437500e+02
1.500000e+02
1.562500e+02
1.625000e+02
1.687500e+02
1.750000e+02
1.812500e+02
1.875000e+02
1.937500e+02
2.000000e+02
0.000000e+00
6.250000e+00
1.250000e+01
1.875000e+01
2.500000e+01
3.125000e+01
3.750000e+01
4.375000e+01
5.000000e+01
5.625000e+01
6.250000e+01
6.875000e+01
7.500000e+01
8.125000e+01
8.750000e+01
9.375000e+01
1.000000e+02
1.062500e+02
1.125000e+02
1.187500e+02
1.250000e+02
1.312500e+02
1.375000e+02
1.437500e+02
1.500000e+02
1.562500e+02
1.625000e+02
1.687500e+02
1.750000e+02
1.812500e+02
1.875000e+02
1.937500e+02
2.000000e+02
0.000000e+00
6.250000e+00
1.250000e+01
1.875000e+01
2.500000e+01
3.125000e+01
3.750000e+01
4.375000e+01
5.000000e+01
5.625000e+01
6.250000e+01
6.875000e+01
7.500000e+01
8.125000e+01
8.750000e+01
9.375000e+01
1.000000e+02
1.062500e+02
1.125000e+02
1.187500e+02
1.250000e+02
1.312500e+02
1.375000e+02
1.437500e+02
1.500000e+02
1.562500e+02
1.625000e+02
1.687500e+02
1.750000e+02
1.812500e+02
1.875000e+02
1.937500e+02
2.000000e+02
0.000000e+00
6.250000e+00
1.250000e+01
1.875000e+01
2.500000e+01
3.125000e+01
3.750000e+01
4.375000e+01
5.000000e+01
5.625000e+01
6.250000e+01
6.875000e+01
7.500000e+01
8.125000e+01
8.750000e+01
9.375000e+01
1.000000e+02
1.062500e+02
1.125000e+02
1.187500e+02
1.250000e+02
1.312500e+02
1.375000e+02
1.437500e+02
1.500000e+02
1.562500e+02
1.625000e+02
1.687500e+02
1.750000e+02
1.812500e+02
1.875000e+02
1.937500e+02
2.000000e+02
0.000000e+00
6.250000e+00
1.250000e+01
1.875000e+01
2.500000e+01
3.125000e+01
3.750000e+01
4.375000e+01
5.000000e+01
5.625000e+01
6.250000e+01
6.875000e+01
7.500000e+01
8.125000e+01
8.750000e+01
9.375000e+01
1.000000e+02
1.062500e+02
1.125000e+02
1.187500e+02
1.250000e+02
1.312500e+02
1.375000e+02
1.437500e+02
1.500000e+02
1.562500e+02
1.625000e+02
1.687500e+02
1.750000e+02
1.812500e+02
1.875000e+02
1.937500e+02
2.000000e+02
0.000000e+00
6.250000e+00
1.250000e+01
1.875000e+01
2.500000e+01
3.125000e+01
3.750000e+01
4.375000e+01
5.000000e+01
5.625000e+01
6.250000e+01
6.875000e+01
7.500000e+01
8.125000e+01
8.750000e+01
9.375000e+01
1.000000e+02
1.062500e+02
1.125000e+02
1.187500e+02
1.250000e+02
1.312500e+02
1.375000e+02
1.437500e+02
1.500000e+02
1.562500e+02
1.625000e+02
1.687500e+02
1.750000e+02
1.812500e+02
1.875000e+02
1.937500e+02
2.000000e+02
0.000000e+00
6.250000e+00
1.250000e+01
1.875000e+01
2.500000e+01
3.125000e+01
3.750000e+01
4.375000e+01
5.000000e+01
5.625000e+01
6.250000e+01
6.875000e+01
7.500000e+01
8.125000e+01
8.750000e+01
9.375000e+01
1.000000e+02
1.062500e+02
1.125000e+02
1.187500e+02
1.250000e+02
1.312500e+02
1.375000e+02
1.437500e+02
1.500000e+02
1.562500e+02
1.625000e+02
1.687500e+02
1.750000e+02
1.812500e+02
1.875000e+02
1.937500e+02
2.000000e+02
0.000000e+00
6.250000e+00
1.250000e+01
1.875000e+01
2.500000e+01
3.125000e+01
3.750000e+01
4.375000e+01
5.000000e+01
5.625000e+01
6.250000e+01
6.875000e+01
7.500000e+01
8.125000e+01
8.750000e+01
9.375000e+01
1.000000e+02
1.062500e+02
1.125000e+02
1.187500e+02
1.250000e+02
1.312500e+02
1.375000e+02
1.437500e+02
1.500000e+02
1.562500e+02
1.625000e+02
1.687500e+02
1.750000e+02
1.812500e+02
1.875000e+02
1.937500e+02
2.000000e+02
0.000000e+00
6.250000e+00
1.250000e+01
1.875000e+01
2.500000e+01
3.125000e+01
3.750000e+01
4.375000e+01
5.000000e+01
5.625000e+01
6.250000e+01
6.875000e+01
7.500000e+01
8.125000e+01
8.750000e+01
9.375000e+01
1.000000e+02
1.062500e+02
1.125000e+02
1.187500e+02
1.250000e+02
1.312500e+02
1.375000e+02
1.437500e+02
1.500000e+02
1.562500e+02
1.625000e+02
1.687500e+02
1.750000e+02
1.812500e+02
1.875000e+02
1.937500e+02
2.000000e+02
0.000000e+00
6.250000e+00
1.250000e+01
1.875000e+01
2.500000e+01
3.125000e+01
3.750000e+01
4.375000e+01
5.000000e+01
5.625000e+01
6.250000e+01
6.875000e+01
7.500000e+01
8.125000e+01
8.750000e+01
9.375000e+01
1.000000e+02
1.062500e+02
1.125000e+02
1.187500e+02
1.250000e+02
1.312500e+02
1.375000e+02
1.437500e+02
1.500000e+02
1.562500e+02
1.625000e+02
1.687500e+02
1.750000e+02
1.812500e+02
1.875000e+02
1.937500e+02
2.000000e+02
0.000000e+00
6.250000e+00
1.250000e+01
1.875000e+01
2.500000e+01
3.125000e+01
3.750000e+01
4.375000e+01
5.000000e+01
5.625000e+01
6.250000e+01
6.875000e+01
7.500000e+01
8.125000e+01
8.750000e+01
9.375000e+01
1.000000e+02
1.062500e+02
1.125000e+02
1.187500e+02
1.250000e+02
1.312500e+02
1.375000e+02
1.437500e+02
1.500000e+02
1.562500e+02
1.625000e+02
1.687500e+02
1.750000e+02
1.812500e+02
1.875000e+02
1.937500e+02
2.000000e+02
0.000000e+00
0.000000e+00
0.000000e+00
0.000000e+00
0.000000e+00
0.000000e+00
0.000000e+00
0.000000e+00
0.000000e+00
0.000000e+00
0.000000e+00
0.000000e+00
0.000000e+00
0.000000e+00
0.000000e+00
0.000000e+00
0.000000e+00
0.000000e+00
0.000000e+00
0.000000e+00
0.000000e+00
0.000000e+00
0.000000e+00
0.000000e+00
0.000000e+00
0.000000e+00
0.000000e+00
0.000000e+00
0.000000e+00
0.000000e+00
0.000000e+00
0.000000e+00
0.000000e+00
6.250000e+00
6.250000e+00
6.250000e+00
6.250000e+00
6.250000e+00
6.250000e+00
6.250000e+00
6.250000e+00
6.250000e+00
6.250000e+00
6.250000e+00
6.250000e+00
6.250000e+00
6.250000e+00
6.250000e+00
6.250000e+00
6.250000e+00
6.250000e+00
6.250000e+00
6.250000e+00
6.250000e+00
6.250000e+00
6.250000e+00
6.250000e+00
6.250000e+00
6.250000e+00
6.250000e+00
6.250000e+00
6.250000e+00
6.250000e+00
6.250000e+00
6.250000e+00
6.250000e+00
1.250000e+01
1.250000e+01
1.250000e+01
1.250000e+01
1.250000e+01
1.250000e+01
1.250000e+01
1.250000e+01
1.250000e+01
1.250000e+01
1.250000e+01
1.250000e+01
1.250000e+01
1.250000e+01
1.250000e+01
1.250000e+01
1.250000e+01
1.250000e+01
1.250000e+01
1.250000e+01
1.250000e+01
1.250000e+01
1.250000e+01
1.250000e+01
1.250000e+01
1.250000e+01
1.250000e+01
1.250000e+01
1.250000e+01
1.250000e+01
1.250000e+01
1.250000e+01
1.250000e+01
1.875000e+01
1.875000e+01
1.875000e+01
1.875000e+01
1.875000e+01
1.875000e+01
1.875000e+01
1.875000e+01
1.875000e+01
1.875000e+01
1.875000e+01
1.875000e+01
1.875000e+01
1.875000e+01
1.875000e+01
1.875000e+01
1.875000e+01
1.875000e+01
1.875000e+01
1.875000e+01
1.875000e+01
1.875000e+01
1.875000e+01
1.875000e+01
1.875000e+01
1.875000e+01
1.875000e+01
1.875000e+01
1.875000e+01
1.875000e+01
1.875000e+01
1.875000e+01
1.875000e+01
2.500000e+01
2.500000e+01
2.500000e+01
2.500000e+01
2.500000e+01
2.500000e+01
2.500000e+01
2.500000e+01
2.500000e+01
2.500000e+01
2.500000e+01
2.500000e+01
2.500000e+01
2.500000e+01
2.500000e+01
2.500000e+01
2.500000e+01
2.500000e+01
2.500000e+01
2.500000e+01
2.500000e+01
2.500000e+01
2.500000e+01
2.500000e+01
2.500000e+01
2.500000e+01
2.500000e+01
2.500000e+01
2.500000e+01
2.500000e+01
2.500000e+01
2.500000e+01
2.500000e+01
3.125000e+01
3.125000e+01
3.125000e+01
3.125000e+01
3.125000e+01
3.125000e+01
3.125000e+01
3.125000e+01
3.125000e+01
3.125000e+01
3.125000e+01
3.125000e+01
3.125000e+01
3.125000e+01
3.125000e+01
3.125000e+01
3.125000e+01
3.125000e+01
3.125000e+01
3.125000e+01
3.125000e+01
3.125000e+01
3.125000e+01
3.125000e+01
3.125000e+01
3.125000e+01
3.125000e+01
3.125000e+01
3.125000e+01
3.125000e+01
3.125000e+01
3.125000e+01
3.125000e+01
3.750000e+01
3.750000e+01
3.750000e+01
3.750000e+01
3.750000e+01
3.750000e+01
3.750000e+01
3.750000e+01
3.750000e+01
3.750000e+01
3.750000e+01
3.750000e+01
3.750000e+01
3.750000e+01
3.750000e+01
3.750000e+01
3.750000e+01
3.750000e+01
3.750000e+01
3.750000e+01
3.750000e+01
3.750000e+01
3.750000e+01
3.750000e+01
3.750000e+01
3.750000e+01
3.750000e+01
3.750000e+01
3.750000e+01
3.750000e+01
3.750000e+01
3.750000e+01
3.750000e+01
4.375000e+01
4.375000e+01
4.375000e+01
4.375000e+01
4.375000e+01
4.375000e+01
4.375000e+01
4.375000e+01
4.375000e+01
4.375000e+01
4.375000e+01
4.375000e+01
4.375000e+01
4.375000e+01
4.375000e+01
4.375000e+01
4.375000e+01
4.375000e+01
4.375000e+01
4.375000e+01
4.375000e+01
4.375000e+01
4.375000e+01
4.375000e+01
4.375000e+01
4.375000e+01
4.375000e+01
4.375000e+01
4.375000e+01
4.375000e+01
4.375000e+01
4.375000e+01
4.375000e+01
5.000000e+01
5.000000e+01
5.000000e+01
5.000000e+01
5.000000e+01
5.000000e+01
5.000000e+01
5.000000e+01
5.000000e+01
5.000000e+01
5.000000e+01
5.000000e+01
5.000000e+01
5.000000e+01
5.000000e+01
5.000000e+01
5.000000e+01
5.000000e+01
5.000000e+01
5.000000e+01
5.000000e+01
5.000000e+01
5.000000e+01
5.000000e+01
5.000000e+01
5.000000e+01
5.000000e+01
5.000000e+01
5.000000e+01
5.000000e+01
5.000000e+01
5.000000e+01
5.000000e+01
5.625000e+01
5.625000e+01
5.625000e+01
5.625000e+01
5.625000e+01
5.625000e+01
5.625000e+01
5.625000e+01
5.625000e+01
5.625000e+01
5.625000e+01
5.625000e+01
5.625000e+01
5.625000e+01
5.625000e+01
5.625000e+01
5.625000e+01
5.625000e+01
5.625000e+01
5.625000e+01
5.625000e+01
5.625000e+01
5.625000e+01
5.625000e+01
5.625000e+01
5.625000e+01
5.625000e+01
5.625000e+01
5.625000e+01
5.625000e+01
5.625000e+01
5.625000e+01
5.625000e+01
6.250000e+01
6.250000e+01
6.250000e+01
6.250000e+01
6.250000e+01
6.250000e+01
6.250000e+01
6.250000e+01
6.250000e+01
6.250000e+01
6.250000e+01
6.250000e+01
6.250000e+01
6.250000e+01
6.250000e+01
6.250000e+01
6.250000e+01
6.250000e+01
6.250000e+01
6.250000e+01
6.250000e+01
6.250000e+01
6.250000e+01
6.250000e+01
6.250000e+01
6.250000e+01
6.250000e+01
6.250000e+01
6.250000e+01
6.250000e+01
6.250000e+01
6.250000e+01
6.250000e+01
6.875000e+01
6.875000e+01
6.875000e+01
6.875000e+01
6.875000e+01
6.875000e+01
6.875000e+01
6.875000e+01
6.875000e+01
6.875000e+01
6.875000e+01
6.875000e+01
6.875000e+01
6.875000e+01
6.875000e+01
6.875000e+01
6.875000e+01
6.875000e+01
6.875000e+01
6.875000e+01
6.875000e+01
6.875000e+01
6.875000e+01
6.875000e+01
6.875000e+01
6.875000e+01
6.875000e+01
6.875000e+01
6.875000e+01
6.875000e+01
6.875000e+01
6.875000e+01
6.875000e+01
7.500000e+01
7.500000e+01
7.500000e+01
7.500000e+01
7.500000e+01
7.500000e+01
7.500000e+01
7.500000e+01
7.500000e+01
7.500000e+01
7.500000e+01
7.500000e+01
7.500000e+01
7.500000e+01
7.500000e+01
7.500000e+01
7.500000e+01
7.500000e+01
7.500000e+01
7.500000e+01
7.500000e+01
7.500000e+01
7.500000e+01
7.500000e+01
7.500000e+01
7.500000e+01
7.500000e+01
7.500000e+01
7.500000e+01
7.500000e+01
7.500000e+01
7.500000e+01
7.500000e+01
8.125000e+01
8.125000e+01
8.125000e+01
8.125000e+01
8.125000e+01
8.125000e+01
8.125000e+01
8.125000e+01
8.125000e+01
8.125000e+01
8.125000e+01
8.125000e+01
8.125000e+01
8.125000e+01
8.125000e+01
8.125000e+01
8.125000e+01
8.125000e+01
8.125000e+01
8.125000e+01
8.125000e+01
8.125000e+01
8.125000e+01
8.125000e+01
8.125000e+01
8.125000e+01
8.125000e+01
8.125000e+01
8.125000e+01
8.125000e+01
8.125000e+01
8.125000e+01
8.125000e+01
8.750000e+01
8.750000e+01
8.750000e+01
8.750000e+01
8.750000e+01
8.750000e+01
8.750000e+01
8.750000e+01
8.750000e+01
8.750000e+01
8.750000e+01
8.750000e+01
8.750000e+01
8.750000e+01
8.750000e+01
8.750000e+01
8.750000e+01
8.750000e+01
8.750000e+01
8.750000e+01
8.750000e+01
8.750000e+01
8.750000e+01
8.750000e+01
8.750000e+01
8.750000e+01
8.750000e+01
8.750000e+01
8.750000e+01
8.750000e+01
8.750000e+01
8.750000e+01
8.750000e+01
9.375000e+01
9.375000e+01
9.375000e+01
9.375000e+01
9.375000e+01
9.375000e+01
9.375000e+01
9.375000e+01
9.375000e+01
9.375000e+01
9.375000e+01
9.375000e+01
9.375000e+01
9.375000e+01
9.375000e+01
9.375000e+01
9.375000e+01
9.375000e+01
9.375000e+01
9.375000e+01
9.375000e+01
9.375000e+01
9.375000e+01
9.375000e+01
9.375000e+01
9.375000e+01
9.375000e+01
9.375000e+01
9.375000e+01
9.375000e+01
9.375000e+01
9.375000e+01
9.375000e+01
1.000000e+02
1.000000e+02
1.000000e+02
1.000000e+02
1.000000e+02
1.000000e+02
1.000000e+02
1.000000e+02
1.000000e+02
1.000000e+02
1.000000e+02
1.000000e+02
1.000000e+02
1.000000e+02
1.000000e+02
1.000000e+02
1.000000e+02
1.000000e+02
1.000000e+02
1.000000e+02
1.000000e+02
1.000000e+02
1.000000e+02
1.000000e+02
1.000000e+02
1.000000e+02
1.000000e+02
1.000000e+02
1.000000e+02
1.000000e+02
1.000000e+02
1.000000e+02
1.000000e+02
0.000000e+00
-6.255501e-02
-1.134974e-01
-1.606886e-01
-2.059791e-01
-2.497139e-01
-2.919808e-01
-3.327765e-01
-3.720750e-01
-4.098474e-01
-4.460703e-01
-4.807275e-01
-5.138105e-01
-5.453184e-01
-5.752586e-01
-6.036469e-01
-6.305090e-01
-6.558814e-01
-6.798152e-01
-7.023795e-01
-7.236660e-01
-7.437960e-01
-7.629297e-01
-7.812799e-01
-7.991315e-01
-8.168720e-01
-8.350394e-01
-8.544009e-01
-8.760820e-01
-9.017388e-01
-9.335199e-01
-9.713943e-01
-9.945085e-01
0.000000e+00
-4.194141e-02
-8.726334e-02
-1.299961e-01
-1.706122e-01
-2.094981e-01
-2.468592e-01
-2.827858e-01
-3.173134e-01
-3.504535e-01
-3.822084e-01
-4.125784e-01
-4.415647e-01
-4.691719e-01
-4.954091e-01
-5.202912e-01
-5.438393e-01
-5.660823e-01
-5.870587e-01
-6.068187e-01
-6.254263e-01
-6.429619e-01
-6.595252e-01
-6.752384e-01
-6.902476e-01
-7.047209e-01
-7.188356e-01
-7.327378e-01
-7.464263e-01
-7.594560e-01
-7.703132e-01
-7.766608e-01
-7.854978e-01
0.000000e+00
-3.326795e-02
-6.848993e-02
-1.043517e-01
-1.391984e-01
-1.727609e-01
-2.050179e-01
-2.359999e-01
-2.657343e-01
-2.942398e-01
-3.215285e-01
-3.476091e-01
-3.724885e-01
-3.961742e-01
-4.186748e-01
-4.400016e-01
-4.601682e-01
-4.791919e-01
-4.970941e-01
-5.139005e-01
-5.296404e-01
-5.443457e-01
-5.580476e-01
-5.707705e-01
-5.825192e-01
-5.932563e-01
-6.028589e-01
-6.110444e-01
-6.172590e-01
-6.206054e-01
-6.203120e-01
-6.184328e-01
-6.287521e-01
0.000000e+00
-2.639515e-02
-5.424798e-02
-8.286336e-02
-1.114118e-01
-1.392688e-01
-1.661958e-01
-1.921072e-01
-2.169798e-01
-2.408127e-01
-2.636119e-01
-2.853852e-01
-3.061397e-01
-3.258820e-01
-3.446179e-01
-3.623529e-01
-3.790917e-01
-3.948386e-01
-4.095967e-01
-4.233670e-01
-4.361459e-01
-4.479218e-01
-4.586685e-01
-4.683359e-01
-4.768349e-01
-4.840154e-01
-4.896397e-01
-4.933643e-01
-4.947864e-01
-4.937306e-01
-4.911666e-01
-4.910135e-01
-5.008452e-01
0.000000e+00
-2.048635e-02
-4.194902e-02
-6.409732e-02
-8.642560e-02
-1.084801e-01
-1.299565e-01
-1.507007e-01
-1.706427e-01
-1.897554e-01
-2.080320e-01
-2.254733e-01
-2.420825e-01
-2.578625e-01
-2.728143e-01
-2.869366e-01
-3.002249e-01
-3.126713e-01
-3.242629e-01
-3.349801e-01
-3.447944e-01
-3.536637e-01
-3.615273e-01
-3.682989e-01
-3.738588e-01
-3.780497e-01
-3.806868e-01
-3.816119e-01
-3.808529e-01
-3.789959e-01
-3.777911e-01
-3.805732e-01
-3.889601e-01
0.000000e+00
-1.505631e-02
-3.075766e-02
-4.696343e-02
-6.339362e-02
-7.974159e-02
-9.576387e-02
-1.113021e-01
-1.262695e-01
-1.406238e-01
-1.543471e-01
-1.674332e-01
-1.798798e-01
-1.916847e-01
-2.028434e-01
-2.133481e-01
-2.231862e-01
-2.323397e-01
-2.407838e-01
-2.484857e-01
-2.554017e-01
-2.614759e-01
-2.666374e-01
-2.707995e-01
-2.738634e-01
-2.757329e-01
-2.763531e-01
-2.757965e-01
-2.744245e-01
-2.731193e-01
-2.734371e-01
-2.769838e-01
-2.839235e-01
0.000000e+00
-9.908882e-03
-2.020969e-02
-3.083724e-02
-4.164001e-02
-5.243619e-02
-6.306298e-02
-7.340167e-02
-8.337798e-02
-9.295094e-02
-1.020998e-01
-1.108143e-01
-1.190875e-01
-1.269128e-01
-1.342805e-01
-1.411773e-01
-1.475845e-01
-1.534775e-01
-1.588247e-01
-1.635867e-01
-1.677156e-01
-1.711555e-01
-1.738438e-01
-1.757172e-01
-1.767238e-01
-1.768487e-01
-1.761604e-01
-1.748869e-01
-1.735127e-01
-1.728465e-01
-1.738859e-01
-1.773390e-01
-1.829408e-01
0.000000e+00
-4.921752e-03
-1.002957e-02
-1.529718e-02
-2.065808e-02
-2.602757e-02
-3.132527e-02
-3.648821e-02
-4.147388e-02
-4.625631e-02
-5.082010e-02
-5.515508e-02
-5.925237e-02
-6.310181e-02
-6.669029e-02
-7.000056e-02
-7.301042e-02
-7.569209e-02
-7.801185e-02
-7.993018e-02
-8.140276e-02
-8.238296e-02
-8.282699e-02
-8.270350e-02
-8.201005e-02
-8.079957e-02
-7.921855e-02
-7.755267e-02
-7.625948e-02
-7.593555e-02
-7.715497e-02
-8.016735e-02
-8.461224e-02
0.000000e+00
-7.961257e-06
-1.725460e-05
-2.736245e-05
-3.775293e-05
-4.771221e-05
-5.616384e-05
-6.146899e-05
-6.119576e-05
-5.184158e-05
-2.849871e-05
1.554722e-05
8.927895e-05
2.044618e-04
3.761851e-04
6.233859e-04
9.692759e-04
1.441535e-03
2.072065e-03
2.895985e-03
3.949404e-03
5.265278e-03
6.866431e-03
8.754600e-03
1.089442e-02
1.319215e-02
1.547188e-02
1.745805e-02
1.878388e-02
1.905272e-02
1.797007e-02
1.551826e-02
1.208440e-02
0.000000e+00
4.906752e-03
9.996988e-03
1.524542e-02
2.058649e-02
2.593685e-02
3.121808e-02
3.637029e-02
4.135549e-02
4.615425e-02
5.076039e-02
5.517633e-02
5.941009e-02
6.347365e-02
6.738239e-02
7.115485e-02
7.481282e-02
7.838115e-02
8.188702e-02
8.535847e-02
8.882142e-02
9.229495e-02
9.578400e-02
9.926921e-02
1.026939e-01
1.059501e-01
1.088673e-01
1.112136e-01
1.127211e-01
1.131479e-01
1.123749e-01
1.105124e-01
1.079638e-01
0.000000e+00
9.896612e-03
2.018286e-02
3.079432e-02
4.158019e-02
5.235968e-02
6.297154e-02
7.329948e-02
8.327282e-02
9.285582e-02
1.020352e-01
1.108108e-01
1.191897e-01
1.271832e-01
1.348053e-01
1.420722e-01
1.490022e-01
1.556149e-01
1.619310e-01
1.679699e-01
1.737473e-01
1.792706e-01
1.845321e-01
1.895017e-01
1.941168e-01
1.982751e-01
2.018319e-01
2.046099e-01
2.064282e-01
2.071552e-01
2.067814e-01
2.054926e-01
2.037139e-01
0.000000e+00
1.504846e-02
3.074020e-02
4.693504e-02
6.335334e-02
7.968904e-02
9.569961e-02
1.112282e-01
1.261902e-01
1.405466e-01
1.542844e-01
1.674038e-01
1.799116e-01
1.918175e-01
2.031326e-01
2.138691e-01
2.240396e-01
2.336568e-01
2.427333e-01
2.512794e-01
2.593011e-01
2.667965e-01
2.737512e-01
2.801324e-01
2.858836e-01
2.909213e-01
2.951369e-01
2.984087e-01
3.006275e-01
3.017393e-01
3.018018e-01
3.010458e-01
2.999217e-01
0.000000e+00
2.048435e-02
4.194410e-02
6.408859e-02
8.641214e-02
1.084611e-01
1.299316e-01
1.506698e-01
1.706063e-01
1.897153e-01
2.079912e-01
2.254370e-01
2.420590e-01
2.578643e-01
2.728595e-01
2.870506e-01
3.004431e-01
3.130412e-01
3.248481e-01
3.358643e-01
3.460865e-01
3.555052e-01
3.641024e-01
3.718482e-01
3.786994e-01
3.845983e-01
3.894773e-01
3.932693e-01
3.959268e-01
3.974536e-01
3.979488e-01
3.976650e-01
3.970728e-01
0.000000e+00
2.640000e-02
5.425791e-02
8.287820e-02
1.114311e-01
1.392920e-01
1.662221e-01
1.921353e-01
2.170075e-01
2.408366e-01
2.636270e-01
2.853837e-01
3.061108e-01
3.258107e-01
3.444837e-01
3.621284e-01
3.787413e-01
3.943171e-01
4.088480e-01
4.223237e-01
4.347307e-01
4.460516e-01
4.562649e-01
4.653449e-01
4.732626e-01
4.799883e-01
4.854969e-01
4.897758e-01
4.928382e-01
4.947414e-01
4.956168e-01
4.957212e-01
4.955247e-01
0.000000e+00
3.327986e-02
6.851549e-02
1.043917e-01
1.392536e-01
1.728320e-01
2.051051e-01
2.361021e-01
2.658486e-01
2.943603e-01
3.216450e-01
3.477047e-01
3.725377e-01
3.961393e-01
4.185021e-01
4.396159e-01
4.594677e-01
4.780414e-01
4.953174e-01
5.112725e-01
5.258806e-01
5.391133e-01
5.509417e-01
5.613396e-01
5.702870e-01
5.777772e-01
5.838237e-01
5.884692e-01
5.917939e-01
5.939233e-01
5.950379e-01
5.954009e-01
5.954442e-01
0.000000e+00
4.195931e-02
8.730264e-02
1.300593e-01
1.707023e-01
2.096183e-01
2.470122e-01
2.829729e-01
3.175339e-01
3.507031e-01
3.824769e-01
4.128464e-01
4.418002e-01
4.693251e-01
4.954054e-01
5.200225e-01
5.431539e-01
5.647725e-01
5.848459e-01
6.033360e-01
6.202004e-01
6.353934e-01
6.488704e-01
6.605927e-01
6.705359e-01
6.787006e-01
6.851252e-01
6.899004e-01
6.931806e-01
6.951905e-01
6.962174e-01
6.965897e-01
6.966809e-01
0.000000e+00
6.257460e-02
1.135434e-01
1.607673e-01
2.060967e-01
2.498770e-01
2.921963e-01
3.330503e-01
3.724122e-01
4.102502e-01
4.465354e-01
4.812422e-01
5.143487e-01
5.458336e-01
5.756749e-01
6.038477e-01
6.303219e-01
6.550607e-01
6.780190e-01
6.991423e-01
7.183670e-01
7.356224e-01
7.508345e-01
7.639335e-01
7.748652e-01
7.836076e-01
7.901917e-01
7.947275e-01
7.974310e-01
7.986492e-01
7.988706e-01
7.986872e-01
7.985840e-01
0.000000e+00
-3.865775e-02
-6.746613e-02
-9.890319e-02
-1.339102e-01
-1.734541e-01
-2.178098e-01
-2.670543e-01
-3.211385e-01
-3.799466e-01
-4.433228e-01
-5.110875e-01
-5.830476e-01
-6.590016e-01
-7.387442e-01
-8.220686e-01
-9.087690e-01
-9.986433e-01
-1.091497e+00
-1.187145e+00
-1.285421e+00
-1.386187e+00
-1.489340e+00
-1.594842e+00
-1.702746e+00
-1.813250e+00
-1.926795e+00
-2.044237e+00
-2.167216e+00
-2.298979e+00
-2.446528e+00
-2.626391e+00
-2.874876e+00
0.000000e+00
-2.402435e-02
-5.417914e-02
-8.582819e-02
-1.213231e-01
-1.612967e-01
-2.060833e-01
-2.557587e-01
-3.102783e-01
-3.695260e-01
-4.333450e-01
-5.015547e-01
-5.739599e-01
-6.503578e-01
-7.305409e-01
-8.143003e-01
-9.014279e-01
-9.917185e-01
-1.084973e+00
-1.181004e+00
-1.279638e+00
-1.380728e+00
-1.484165e+00
-1.589897e+00
-1.697964e+00
-1.808546e+00
-1.922060e+00
-2.039336e+00
-2.161980e+00
-2.293183e+00
-2.439593e+00
-2.615452e+00
-2.847601e+00
0.000000e+00
-1.764729e-02
-4.367900e-02
-7.489627e-02
-1.104532e-01
-1.507213e-01
-1.958614e-01
-2.459154e-01
-3.008232e-01
-3.604634e-01
-4.246765e-01
-4.932803e-01
-5.660790e-01
-6.428688e-01
-7.234417e-01
-8.075878e-01
-8.950981e-01
-9.857662e-01
-1.079392e+00
-1.175785e+00
-1.274772e+00
-1.376205e+00
-1.479973e+00
-1.586028e+00
-1.694411e+00
-1.805315e+00
-1.919175e+00
-2.036842e+00
-2.159901e+00
-2.291228e+00
-2.435733e+00
-2.599220e+00
-2.780576e+00
0.000000e+00
-1.413122e-02
-3.698735e-02
-6.653994e-02
-1.016399e-01
-1.418954e-01
-1.872286e-01
-2.375630e-01
-2.927904e-01
-3.527669e-01
-4.173230e-01
-4.862721e-01
-5.594166e-01
-6.365523e-01
-7.174713e-01
-8.019646e-01
-8.898234e-01
-9.808426e-01
-1.074823e+00
-1.171575e+00
-1.270929e+00
-1.372739e+00
-1.476901e+00
-1.583374e+00
-1.692210e+00
-1.803611e+00
-1.918008e+00
-2.036184e+00
-2.159437e+00
-2.289663e+00
-2.428672e+00
-2.575284e+00
-2.711765e+00
0.000000e+00
-1.195738e-02
-3.261126e-02
-6.060598e-02
-9.490576e-02
-1.348973e-01
-1.802476e-01
-2.307455e-01
-2.862089e-01
-3.464562e-01
-4.112993e-01
-4.805426e-01
-5.539852e-01
-6.314221e-01
-7.126464e-01
-7.974504e-01
-8.856276e-01
-9.769748e-01
-1.071296e+00
-1.168405e+00
-1.268135e+00
-1.370345e+00
-1.474935e+00
-1.581868e+00
-1.691191e+00
-1.803081e+00
-1.917890e+00
-2.036181e+00
-2.158702e+00
-2.286054e+00
-2.417628e+00
-2.548595e+00
-2.667455e+00
0.000000e+00
-1.057414e-02
-2.974001e-02
-5.652251e-02
-9.005017e-02
-1.296671e-01
-1.749187e-01
-2.254813e-01
-2.811000e-01
-3.415503e-01
-4.066207e-01
-4.761041e-01
-5.497947e-01
-6.274866e-01
-7.089738e-01
-7.940507e-01
-8.825136e-01
-9.741623e-01
-1.068803e+00
-1.166255e+00
-1.266351e+00
-1.368953e+00
-1.473957e+00
-1.581313e+00
-1.691040e+00
-1.803243e+00
-1.918121e+00
-2.035921e+00
-2.156780e+00
-2.280290e+00
-2.404570e+00
-2.525178e+00
-2.635413e+00
0.000000e+00
-9.714466e-03
-2.792467e-02
-5.386818e-02
-8.679729e-02
-1.260728e-01
-1.711900e-01
-2.217590e-01
-2.774694e-01
-3.380602e-01
-4.032982e-01
-4.729651e-01
-5.468503e-01
-6.247470e-01
-7.064505e-01
-7.917575e-01
-8.804669e-01
-9.723815e-01
-1.067310e+00
-1.165071e+00
-1.265499e+00
-1.368447e+00
-1.473800e+00
-1.581478e+00
-1.691444e+00
-1.803700e+00
-1.918256e+00
-2.035045e+00
-2.153733e+00
-2.273351e+00
-2.391831e+00
-2.505757e+00
-2.610943e+00
0.000000e+00
-9.242064e-03
-2.691738e-02
-5.237240e-02
-8.493205e-02
-1.239792e-01
-1.689929e-01
-2.195506e-01
-2.753107e-01
-3.359884e-01
-4.013361e-01
-4.711281e-01
-5.451508e-01
-6.231975e-01
-7.050647e-01
-7.905516e-01
-8.794595e-01
-9.715928e-01
-1.066761e+00
-1.164781e+00
-1.265480e+00
-1.368701e+00
-1.474302e+00
-1.582162e+00
-1.692173e+00
-1.804222e+00
-1.918143e+00
-2.033626e+00
-2.150055e+00
-2.266284e+00
-2.380447e+00
-2.489974e+00
-2.592010e+00
0.000000e+00
-9.089855e-03
-2.659239e-02
-5.188760e-02
-8.432414e-02
-1.232940e-01
-1.682731e-01
-2.188301e-01
-2.746136e-01
-3.353320e-01
-4.007333e-01
-4.705902e-01
-5.446896e-01
-6.228259e-01
-7.047979e-01
-7.904067e-01
-8.794551e-01
-9.717482e-01
-1.067094e+00
-1.165305e+00
-1.266198e+00
-1.369596e+00
-1.475328e+00
-1.583223e+00
-1.693099e+00
-1.804737e+00
-1.917834e+00
-2.031925e+00
-2.146271e+00
-2.259746e+00
-2.370771e+00
-2.477387e+00
-2.577499e+00
0.000000e+00
-9.237652e-03
-2.691125e-02
-5.236713e-02
-8.493045e-02
-1.239847e-01
-1.690102e-01
-2.195859e-01
-2.753720e-01
-3.360863e-01
-4.014843e-01
-4.713438e-01
-5.454552e-01
-6.236161e-01
-7.056276e-01
-7.912925e-01
-8.804147e-01
-9.727985e-01
-1.068249e+00
-1.166570e+00
-1.267567e+00
-1.371040e+00
-1.476786e+00
-1.584583e+00
-1.694182e+00
-1.805279e+00
-1.917477e+00
-2.030228e+00
-2.142773e+00
-2.254087e+00
-2.362869e+00
-2.467601e+00
-2.566685e+00
0.000000e+00
-9.705998e-03
-2.791292e-02
-5.385801e-02
-8.679409e-02
-1.260833e-01
-1.712230e-01
-2.218262e-01
-2.775864e-01
-3.382475e-01
-4.035818e-01
-4.733781e-01
-5.474336e-01
-6.255498e-01
-7.075303e-01
-7.931795e-01
-8.823012e-01
-9.746982e-01
-1.070171e+00
-1.168516e+00
-1.269522e+00
-1.372970e+00
-1.478621e+00
-1.586212e+00
-1.695437e+00
-1.805930e+00
-1.917235e+00
-2.028773e+00
-2.139816e+00
-2.249466e+00
-2.356671e+00
-2.460260e+00
-2.559008e+00
0.000000e+00
-1.056236e-02
-2.972367e-02
-5.650831e-02
-9.004556e-02
-1.296814e-01
-1.749643e-01
-2.255747e-01
-2.812629e-01
-3.418114e-01
-4.070165e-01
-4.766811e-01
-5.506100e-01
-6.286093e-01
-7.104848e-01
-7.960417e-01
-8.850834e-01
-9.774105e-01
-1.072819e+00
-1.171096e+00
-1.272018e+00
-1.375344e+00
-1.480809e+00
-1.588112e+00
-1.696907e+00
-1.806782e+00
-1.917250e+00
-2.027731e+00
-2.137545e+00
-2.245927e+00
-2.352044e+00
-2.455024e+00
-2.553976e+00
0.000000e+00
-1.194351e-02
-3.259203e-02
-6.058927e-02
-9.490043e-02
-1.349147e-01
-1.803026e-01
-2.308582e-01
-2.864056e-01
-3.467716e-01
-4.117777e-01
-4.812401e-01
-5.549711e-01
-6.327802e-01
-7.144748e-01
-7.998603e-01
-8.887394e-01
-9.809101e-01
-1.076164e+00
-1.174281e+00
-1.275026e+00
-1.378142e+00
-1.483342e+00
-1.590299e+00
-1.698634e+00
-1.807910e+00
-1.917624e+00
-2.027205e+00
-2.136028e+00
-2.243444e+00
-2.348814e+00
-2.451548e+00
-2.551096e+00
0.000000e+00
-1.411698e-02
-3.696762e-02
-6.652296e-02
-1.016353e-01
-1.419158e-01
-1.872906e-01
-2.376888e-01
-2.930092e-01
-3.531169e-01
-4.178534e-01
-4.870446e-01
-5.605077e-01
-6.380541e-01
-7.194921e-01
-8.046267e-01
-8.932593e-01
-9.851861e-01
-1.080195e+00
-1.178059e+00
-1.278537e+00
-1.381360e+00
-1.486224e+00
-1.592785e+00
-1.700647e+00
-1.809357e+00
-1.918405e+00
-2.027233e+00
-2.135263e+00
-2.241937e+00
-2.346783e+00
-2.449472e+00
-2.549841e+00
0.000000e+00
-1.763487e-02
-4.366174e-02
-7.488196e-02
-1.104518e-01
-1.507461e-01
-1.959299e-01
-2.460507e-01
-3.010557e-01
-3.608327e-01
-4.252333e-01
-4.940884e-01
-5.672169e-01
-6.444311e-01
-7.255387e-01
-8.103442e-01
-8.986479e-01
-9.902439e-01
-1.084917e+00
-1.182438e+00
-1.282559e+00
-1.385004e+00
-1.489463e+00
-1.595581e+00
-1.702953e+00
-1.811123e+00
-1.919580e+00
-2.027780e+00
-2.135177e+00
-2.241278e+00
-2.345730e+00
-2.448429e+00
-2.549621e+00
0.000000e+00
-2.401636e-02
-5.416740e-02
-8.581977e-02
-1.213283e-01
-1.613290e-01
-2.061604e-01
-2.559039e-01
-3.105218e-01
-3.699071e-01
-4.339138e-01
-5.023735e-01
-5.751055e-01
-6.519215e-01
-7.326288e-01
-8.170308e-01
-9.049265e-01
-9.961082e-01
-1.090359e+00
-1.187447e+00
-1.287120e+00
-1.389102e+00
-1.493077e+00
-1.598690e+00
-1.705537e+00
-1.813162e+00
-1.921065e+00
-2.028716e+00
-2.135595e+00
-2.241247e+00
-2.345388e+00
-2.448052e+00
-2.549808e+00
0.000000e+00
-3.865660e-02
-6.746224e-02
-9.890393e-02
-1.339260e-01
-1.734986e-01
-2.179005e-01
-2.672143e-01
-3.213975e-01
-3.803428e-01
-4.439042e-01
-5.119137e-01
-5.841908e-01
-6.605470e-01
-7.407888e-01
-8.247187e-01
-9.121338e-01
-1.002825e+00
-1.096572e+00
-1.193141e+00
-1.292279e+00
-1.393704e+00
-1.497105e+00