TITLE = "Solution"
VARIABLES = x, y, u, v, psiu, psiv, t, stress
ZONE T="structure" N=561 E=512 F=FEBLOCK ET=QUADRILATERAL VARLOCATION=([7,8]=cellcentered)
0.000000e+00
6.250000e+00
1.250000e+01
1.875000e+01
2.500000e+01
3.125000e+01
3.750000e+01
4.375000e+01
5.000000e+01
5.625000e+01
6.250000e+01
6.875000e+01
7.500000e+01
8.125000e+01
8.750000e+01
9.375000e+01
1.000000e+02
1.062500e+02
1.125000e+02
1.187500e+02
1.250000e+02
1.312500e+02
1.375000e+02
1.437500e+02
1.500000e+02
1.562500e+02
1.625000e+02
1.687500e+02
1.750000e+02
1.812500e+02
1.875000e+02
1.937500e+02
2.000000e+02
0.000000e+00
6.250000e+00
1.250000e+01
1.875000e+01
2.500000e+01
3.125000e+01
3.750000e+01
4.375000e+01
5.000000e+01
5.625000e+01
6.250000e+01
6.875000e+01
7.500000e+01
8.125000e+01
8.750000e+01
9.375000e+01
1.000000e+02
1.062500e+02
1.125000e+02
1.187500e+02
1.250000e+02
1.312500e+02
1.375000e+02
1.437500e+02
1.500000e+02
1.562500e+02
1.625000e+02
1.687500e+02
1.750000e+02
1.812500e+02
1.875000e+02
1.937500e+02
2.000000e+02
0.000000e+00
6.250000e+00
1.250000e+01
1.875000e+01
2.500000e+01
3.125000e+01
3.750000e+01
4.375000e+01
5.000000e+01
5.625000e+01
6.250000e+01
6.875000e+01
7.500000e+01
8.125000e+01
8.750000e+01
9.375000e+01
1.000000e+02
1.062500e+02
1.125000e+02
1.187500e+02
1.250000e+02
1.312500e+02
1.375000e+02
1.437500e+02
1.500000e+02
1.562500e+02
1.625000e+02
1.687500e+02
1.750000e+02
1.812500e+02
1.875000e+02
1.937500e+02
2.000000e+02
0.000000e+00
6.250000e+00
1.250000e+01
1.875000e+01
2.500000e+01
3.125000e+01
3.750000e+01
4.375000e+01
5.000000e+01
5.625000e+01
6.250000e+01
6.875000e+01
7.500000e+01
8.125000e+01
8.750000e+01
9.375000e+01
1.000000e+02
1.062500e+02
1.125000e+02
1.187500e+02
1.250000e+02
1.312500e+02
1.375000e+02
1.437500e+02
1.500000e+02
1.562500e+02
1.625000e+02
1.687500e+02
1.750000e+02
1.812500e+02
1.875000e+02
1.937500e+02
2.000000e+02
0.000000e+00
6.250000e+00
1.250000e+01
1.875000e+01
2.500000e+01
3.125000e+01
3.750000e+01
4.375000e+01
5.000000e+01
5.625000e+01
6.250000e+01
6.875000e+01
7.500000e+01
8.125000e+01
8.750000e+01
9.375000e+01
1.000000e+02
1.062500e+02
1.125000e+02
1.187500e+02
1.250000e+02
1.312500e+02
1.375000e+02
1.437500e+02
1.500000e+02
1.562500e+02
1.625000e+02
1.687500e+02
1.750000e+02
1.812500e+02
1.875000e+02
1.937500e+02
2.000000e+02
0.000000e+00
6.250000e+00
1.250000e+01
1.875000e+01
2.500000e+01
3.125000e+01
3.750000e+01
4.375000e+01
5.000000e+01
5.625000e+01
6.250000e+01
6.875000e+01
7.500000e+01
8.125000e+01
8.750000e+01
9.375000e+01
1.000000e+02
1.062500e+02
1.125000e+02
1.187500e+02
1.250000e+02
1.312500e+02
1.375000e+02
1.437500e+02
1.500000e+02
1.562500e+02
1.625000e+02
1.687500e+02
1.750000e+02
1.812500e+02
1.875000e+02
1.937500e+02
2.000000e+02
0.000000e+00
6.250000e+00
1.250000e+01
1.875000e+01
2.500000e+01
3.125000e+01
3.750000e+01
4.375000e+01
5.000000e+01
5.625000e+01
6.250000e+01
6.875000e+01
7.500000e+01
8.125000e+01
8.750000e+01
9.375000e+01
1.000000e+02
1.062500e+02
1.125000e+02
1.187500e+02
1.250000e+02
1.312500e+02
1.375000e+02
1.437500e+02
1.500000e+02
1.562500e+02
1.625000e+02
1.687500e+02
1.750000e+02
1.812500e+02
1.875000e+02
1.937500e+02
2.000000e+02
0.000000e+00
6.250000e+00
1.250000e+01
1.875000e+01
2.500000e+01
3.125000e+01
3.750000e+01
4.375000e+01
5.000000e+01
5.625000e+01
6.250000e+01
6.875000e+01
7.500000e+01
8.125000e+01
8.750000e+01
9.375000e+01
1.000000e+02
1.062500e+02
1.125000e+02
1.187500e+02
1.250000e+02
1.312500e+02
1.375000e+02
1.437500e+02
1.500000e+02
1.562500e+02
1.625000e+02
1.687500e+02
1.750000e+02
1.812500e+02
1.875000e+02
1.937500e+02
2.000000e+02
0.000000e+00
6.250000e+00
1.250000e+01
1.875000e+01
2.500000e+01
3.125000e+01
3.750000e+01
4.375000e+01
5.000000e+01
5.625000e+01
6.250000e+01
6.875000e+01
7.500000e+01
8.125000e+01
8.750000e+01
9.375000e+01
1.000000e+02
1.062500e+02
1.125000e+02
1.187500e+02
1.250000e+02
1.312500e+02
1.375000e+02
1.437500e+02
1.500000e+02
1.562500e+02
1.625000e+02
1.687500e+02
1.750000e+02
1.812500e+02
1.875000e+02
1.937500e+02
2.000000e+02
0.000000e+00
6.250000e+00
1.250000e+01
1.875000e+01
2.500000e+01
3.125000e+01
3.750000e+01
4.375000e+01
5.000000e+01
5.625000e+01
6.250000e+01
6.875000e+01
7.500000e+01
8.125000e+01
8.750000e+01
9.375000e+01
1.000000e+02
1.062500e+02
1.125000e+02
1.187500e+02
1.250000e+02
1.312500e+02
1.375000e+02
1.437500e+02
1.500000e+02
1.562500e+02
1.625000e+02
1.687500e+02
1.750000e+02
1.812500e+02
1.875000e+02
1.937500e+02
2.000000e+02
0.000000e+00
6.250000e+00
1.250000e+01
1.875000e+01
2.500000e+01
3.125000e+01
3.750000e+01
4.375000e+01
5.000000e+01
5.625000e+01
6.250000e+01
6.875000e+01
7.500000e+01
8.125000e+01
8.750000e+01
9.375000e+01
1.000000e+02
1.062500e+02
1.125000e+02
1.187500e+02
1.250000e+02
1.312500e+02
1.375000e+02
1.437500e+02
1.500000e+02
1.562500e+02
1.625000e+02
1.687500e+02
1.750000e+02
1.812500e+02
1.875000e+02
1.937500e+02
2.000000e+02
0.000000e+00
6.250000e+00
1.250000e+01
1.875000e+01
2.500000e+01
3.125000e+01
3.750000e+01
4.375000e+01
5.000000e+01
5.625000e+01
6.250000e+01
6.875000e+01
7.500000e+01
8.125000e+01
8.750000e+01
9.375000e+01
1.000000e+02
1.062500e+02
1.125000e+02
1.187500e+02
1.250000e+02
1.312500e+02
1.375000e+02
1.437500e+02
1.500000e+02
1.562500e+02
1.625000e+02
1.687500e+02
1.750000e+02
1.812500e+02
1.875000e+02
1.937500e+02
2.000000e+02
0.000000e+00
6.250000e+00
1.250000e+01
1.875000e+01
2.500000e+01
3.125000e+01
3.750000e+01
4.375000e+01
5.000000e+01
5.625000e+01
6.250000e+01
6.875000e+01
7.500000e+01
8.125000e+01
8.750000e+01
9.375000e+01
1.000000e+02
1.062500e+02
1.125000e+02
1.187500e+02
1.250000e+02
1.312500e+02
1.375000e+02
1.437500e+02
1.500000e+02
1.562500e+02
1.625000e+02
1.687500e+02
1.750000e+02
1.812500e+02
1.875000e+02
1.937500e+02
2.000000e+02
0.000000e+00
6.250000e+00
1.250000e+01
1.875000e+01
2.500000e+01
3.125000e+01
3.750000e+01
4.375000e+01
5.000000e+01
5.625000e+01
6.250000e+01
6.875000e+01
7.500000e+01
8.125000e+01
8.750000e+01
9.375000e+01
1.000000e+02
1.062500e+02
1.125000e+02
1.187500e+02
1.250000e+02
1.312500e+02
1.375000e+02
1.437500e+02
1.500000e+02
1.562500e+02
1.625000e+02
1.687500e+02
1.750000e+02
1.812500e+02
1.875000e+02
1.937500e+02
2.000000e+02
0.000000e+00
6.250000e+00
1.250000e+01
1.875000e+01
2.500000e+01
3.125000e+01
3.750000e+01
4.375000e+01
5.000000e+01
5.625000e+01
6.250000e+01
6.875000e+01
7.500000e+01
8.125000e+01
8.750000e+01
9.375000e+01
1.000000e+02
1.062500e+02
1.125000e+02
1.187500e+02
1.250000e+02
1.312500e+02
1.375000e+02
1.437500e+02
1.500000e+02
1.562500e+02
1.625000e+02
1.687500e+02
1.750000e+02
1.812500e+02
1.875000e+02
1.937500e+02
2.000000e+02
0.000000e+00
6.250000e+00
1.250000e+01
1.875000e+01
2.500000e+01
3.125000e+01
3.750000e+01
4.375000e+01
5.000000e+01
5.625000e+01
6.250000e+01
6.875000e+01
7.500000e+01
8.125000e+01
8.750000e+01
9.375000e+01
1.000000e+02
1.062500e+02
1.125000e+02
1.187500e+02
1.250000e+02
1.312500e+02
1.375000e+02
1.437500e+02
1.500000e+02
1.562500e+02
1.625000e+02
1.687500e+02
1.750000e+02
1.812500e+02
1.875000e+02
1.937500e+02
2.000000e+02
0.000000e+00
6.250000e+00
1.250000e+01
1.875000e+01
2.500000e+01
3.125000e+01
3.750000e+01
4.375000e+01
5.000000e+01
5.625000e+01
6.250000e+01
6.875000e+01
7.500000e+01
8.125000e+01
8.750000e+01
9.375000e+01
1.000000e+02
1.062500e+02
1.125000e+02
1.187500e+02
1.250000e+02
1.312500e+02
1.375000e+02
1.437500e+02
1.500000e+02
1.562500e+02
1.625000e+02
1.687500e+02
1.750000e+02
1.812500e+02
1.875000e+02
1.937500e+02
2.000000e+02
0.000000e+00
0.000000e+00
0.000000e+00
0.000000e+00
0.000000e+00
0.000000e+00
0.000000e+00
0.000000e+00
0.000000e+00
0.000000e+00
0.000000e+00
0.000000e+00
0.000000e+00
0.000000e+00
0.000000e+00
0.000000e+00
0.000000e+00
0.000000e+00
0.000000e+00
0.000000e+00
0.000000e+00
0.000000e+00
0.000000e+00
0.000000e+00
0.000000e+00
0.000000e+00
0.000000e+00
0.000000e+00
0.000000e+00
0.000000e+00
0.000000e+00
0.000000e+00
0.000000e+00
6.250000e+00
6.250000e+00
6.250000e+00
6.250000e+00
6.250000e+00
6.250000e+00
6.250000e+00
6.250000e+00
6.250000e+00
6.250000e+00
6.250000e+00
6.250000e+00
6.250000e+00
6.250000e+00
6.250000e+00
6.250000e+00
6.250000e+00
6.250000e+00
6.250000e+00
6.250000e+00
6.250000e+00
6.250000e+00
6.250000e+00
6.250000e+00
6.250000e+00
6.250000e+00
6.250000e+00
6.250000e+00
6.250000e+00
6.250000e+00
6.250000e+00
6.250000e+00
6.250000e+00
1.250000e+01
1.250000e+01
1.250000e+01
1.250000e+01
1.250000e+01
1.250000e+01
1.250000e+01
1.250000e+01
1.250000e+01
1.250000e+01
1.250000e+01
1.250000e+01
1.250000e+01
1.250000e+01
1.250000e+01
1.250000e+01
1.250000e+01
1.250000e+01
1.250000e+01
1.250000e+01
1.250000e+01
1.250000e+01
1.250000e+01
1.250000e+01
1.250000e+01
1.250000e+01
1.250000e+01
1.250000e+01
1.250000e+01
1.250000e+01
1.250000e+01
1.250000e+01
1.250000e+01
1.875000e+01
1.875000e+01
1.875000e+01
1.875000e+01
1.875000e+01
1.875000e+01
1.875000e+01
1.875000e+01
1.875000e+01
1.875000e+01
1.875000e+01
1.875000e+01
1.875000e+01
1.875000e+01
1.875000e+01
1.875000e+01
1.875000e+01
1.875000e+01
1.875000e+01
1.875000e+01
1.875000e+01
1.875000e+01
1.875000e+01
1.875000e+01
1.875000e+01
1.875000e+01
1.875000e+01
1.875000e+01
1.875000e+01
1.875000e+01
1.875000e+01
1.875000e+01
1.875000e+01
2.500000e+01
2.500000e+01
2.500000e+01
2.500000e+01
2.500000e+01
2.500000e+01
2.500000e+01
2.500000e+01
2.500000e+01
2.500000e+01
2.500000e+01
2.500000e+01
2.500000e+01
2.500000e+01
2.500000e+01
2.500000e+01
2.500000e+01
2.500000e+01
2.500000e+01
2.500000e+01
2.500000e+01
2.500000e+01
2.500000e+01
2.500000e+01
2.500000e+01
2.500000e+01
2.500000e+01
2.500000e+01
2.500000e+01
2.500000e+01
2.500000e+01
2.500000e+01
2.500000e+01
3.125000e+01
3.125000e+01
3.125000e+01
3.125000e+01
3.125000e+01
3.125000e+01
3.125000e+01
3.125000e+01
3.125000e+01
3.125000e+01
3.125000e+01
3.125000e+01
3.125000e+01
3.125000e+01
3.125000e+01
3.125000e+01
3.125000e+01
3.125000e+01
3.125000e+01
3.125000e+01
3.125000e+01
3.125000e+01
3.125000e+01
3.125000e+01
3.125000e+01
3.125000e+01
3.125000e+01
3.125000e+01
3.125000e+01
3.125000e+01
3.125000e+01
3.125000e+01
3.125000e+01
3.750000e+01
3.750000e+01
3.750000e+01
3.750000e+01
3.750000e+01
3.750000e+01
3.750000e+01
3.750000e+01
3.750000e+01
3.750000e+01
3.750000e+01
3.750000e+01
3.750000e+01
3.750000e+01
3.750000e+01
3.750000e+01
3.750000e+01
3.750000e+01
3.750000e+01
3.750000e+01
3.750000e+01
3.750000e+01
3.750000e+01
3.750000e+01
3.750000e+01
3.750000e+01
3.750000e+01
3.750000e+01
3.750000e+01
3.750000e+01
3.750000e+01
3.750000e+01
3.750000e+01
4.375000e+01
4.375000e+01
4.375000e+01
4.375000e+01
4.375000e+01
4.375000e+01
4.375000e+01
4.375000e+01
4.375000e+01
4.375000e+01
4.375000e+01
4.375000e+01
4.375000e+01
4.375000e+01
4.375000e+01
4.375000e+01
4.375000e+01
4.375000e+01
4.375000e+01
4.375000e+01
4.375000e+01
4.375000e+01
4.375000e+01
4.375000e+01
4.375000e+01
4.375000e+01
4.375000e+01
4.375000e+01
4.375000e+01
4.375000e+01
4.375000e+01
4.375000e+01
4.375000e+01
5.000000e+01
5.000000e+01
5.000000e+01
5.000000e+01
5.000000e+01
5.000000e+01
5.000000e+01
5.000000e+01
5.000000e+01
5.000000e+01
5.000000e+01
5.000000e+01
5.000000e+01
5.000000e+01
5.000000e+01
5.000000e+01
5.000000e+01
5.000000e+01
5.000000e+01
5.000000e+01
5.000000e+01
5.000000e+01
5.000000e+01
5.000000e+01
5.000000e+01
5.000000e+01
5.000000e+01
5.000000e+01
5.000000e+01
5.000000e+01
5.000000e+01
5.000000e+01
5.000000e+01
5.625000e+01
5.625000e+01
5.625000e+01
5.625000e+01
5.625000e+01
5.625000e+01
5.625000e+01
5.625000e+01
5.625000e+01
5.625000e+01
5.625000e+01
5.625000e+01
5.625000e+01
5.625000e+01
5.625000e+01
5.625000e+01
5.625000e+01
5.625000e+01
5.625000e+01
5.625000e+01
5.625000e+01
5.625000e+01
5.625000e+01
5.625000e+01
5.625000e+01
5.625000e+01
5.625000e+01
5.625000e+01
5.625000e+01
5.625000e+01
5.625000e+01
5.625000e+01
5.625000e+01
6.250000e+01
6.250000e+01
6.250000e+01
6.250000e+01
6.250000e+01
6.250000e+01
6.250000e+01
6.250000e+01
6.250000e+01
6.250000e+01
6.250000e+01
6.250000e+01
6.250000e+01
6.250000e+01
6.250000e+01
6.250000e+01
6.250000e+01
6.250000e+01
6.250000e+01
6.250000e+01
6.250000e+01
6.250000e+01
6.250000e+01
6.250000e+01
6.250000e+01
6.250000e+01
6.250000e+01
6.250000e+01
6.250000e+01
6.250000e+01
6.250000e+01
6.250000e+01
6.250000e+01
6.875000e+01
6.875000e+01
6.875000e+01
6.875000e+01
6.875000e+01
6.875000e+01
6.875000e+01
6.875000e+01
6.875000e+01
6.875000e+01
6.875000e+01
6.875000e+01
6.875000e+01
6.875000e+01
6.875000e+01
6.875000e+01
6.875000e+01
6.875000e+01
6.875000e+01
6.875000e+01
6.875000e+01
6.875000e+01
6.875000e+01
6.875000e+01
6.875000e+01
6.875000e+01
6.875000e+01
6.875000e+01
6.875000e+01
6.875000e+01
6.875000e+01
6.875000e+01
6.875000e+01
7.500000e+01
7.500000e+01
7.500000e+01
7.500000e+01
7.500000e+01
7.500000e+01
7.500000e+01
7.500000e+01
7.500000e+01
7.500000e+01
7.500000e+01
7.500000e+01
7.500000e+01
7.500000e+01
7.500000e+01
7.500000e+01
7.500000e+01
7.500000e+01
7.500000e+01
7.500000e+01
7.500000e+01
7.500000e+01
7.500000e+01
7.500000e+01
7.500000e+01
7.500000e+01
7.500000e+01
7.500000e+01
7.500000e+01
7.500000e+01
7.500000e+01
7.500000e+01
7.500000e+01
8.125000e+01
8.125000e+01
8.125000e+01
8.125000e+01
8.125000e+01
8.125000e+01
8.125000e+01
8.125000e+01
8.125000e+01
8.125000e+01
8.125000e+01
8.125000e+01
8.125000e+01
8.125000e+01
8.125000e+01
8.125000e+01
8.125000e+01
8.125000e+01
8.125000e+01
8.125000e+01
8.125000e+01
8.125000e+01
8.125000e+01
8.125000e+01
8.125000e+01
8.125000e+01
8.125000e+01
8.125000e+01
8.125000e+01
8.125000e+01
8.125000e+01
8.125000e+01
8.125000e+01
8.750000e+01
8.750000e+01
8.750000e+01
8.750000e+01
8.750000e+01
8.750000e+01
8.750000e+01
8.750000e+01
8.750000e+01
8.750000e+01
8.750000e+01
8.750000e+01
8.750000e+01
8.750000e+01
8.750000e+01
8.750000e+01
8.750000e+01
8.750000e+01
8.750000e+01
8.750000e+01
8.750000e+01
8.750000e+01
8.750000e+01
8.750000e+01
8.750000e+01
8.750000e+01
8.750000e+01
8.750000e+01
8.750000e+01
8.750000e+01
8.750000e+01
8.750000e+01
8.750000e+01
9.375000e+01
9.375000e+01
9.375000e+01
9.375000e+01
9.375000e+01
9.375000e+01
9.375000e+01
9.375000e+01
9.375000e+01
9.375000e+01
9.375000e+01
9.375000e+01
9.375000e+01
9.375000e+01
9.375000e+01
9.375000e+01
9.375000e+01
9.375000e+01
9.375000e+01
9.375000e+01
9.375000e+01
9.375000e+01
9.375000e+01
9.375000e+01
9.375000e+01
9.375000e+01
9.375000e+01
9.375000e+01
9.375000e+01
9.375000e+01
9.375000e+01
9.375000e+01
9.375000e+01
1.000000e+02
1.000000e+02
1.000000e+02
1.000000e+02
1.000000e+02
1.000000e+02
1.000000e+02
1.000000e+02
1.000000e+02
1.000000e+02
1.000000e+02
1.000000e+02
1.000000e+02
1.000000e+02
1.000000e+02
1.000000e+02
1.000000e+02
1.000000e+02
1.000000e+02
1.000000e+02
1.000000e+02
1.000000e+02
1.000000e+02
1.000000e+02
1.000000e+02
1.000000e+02
1.000000e+02
1.000000e+02
1.000000e+02
1.000000e+02
1.000000e+02
1.000000e+02
1.000000e+02
0.000000e+00
-3.726117e-01
-6.705443e-01
-9.604629e-01
-1.256758e+00
-1.546829e+00
-1.835162e+00
-2.124172e+00
-2.412096e+00
-2.698371e+00
-2.983269e+00
-3.266599e+00
-3.547893e+00
-3.826705e+00
-4.102502e+00
-4.374549e+00
-4.641877e+00
-4.903308e+00
-5.157563e+00
-5.403447e+00
-5.640085e+00
-5.867126e+00
-6.084898e+00
-6.294508e+00
-6.497930e+00
-6.698104e+00
-6.899099e+00
-7.106448e+00
-7.327977e+00
-7.574581e+00
-7.853330e+00
-8.151506e+00
-8.325246e+00
0.000000e+00
-2.372184e-01
-4.919141e-01
-7.460860e-01
-1.006461e+00
-1.261455e+00
-1.514313e+00
-1.767567e+00
-2.019779e+00
-2.270379e+00
-2.519645e+00
-2.767472e+00
-3.013477e+00
-3.257285e+00
-3.498458e+00
-3.736378e+00
-3.970216e+00
-4.198940e+00
-4.421391e+00
-4.636422e+00
-4.843084e+00
-5.040784e+00
-5.229371e+00
-5.409169e+00
-5.580936e+00
-5.745785e+00
-5.905015e+00
-6.059771e+00
-6.209934e+00
-6.349725e+00
-6.458179e+00
-6.515538e+00
-6.590832e+00
0.000000e+00
-1.781250e-01
-3.694500e-01
-5.785748e-01
-7.967142e-01
-1.013378e+00
-1.229889e+00
-1.447030e+00
-1.663526e+00
-1.878892e+00
-2.093154e+00
-2.306106e+00
-2.517385e+00
-2.726620e+00
-2.933364e+00
-3.137026e+00
-3.336840e+00
-3.531870e+00
-3.721055e+00
-3.903300e+00
-4.077592e+00
-4.243087e+00
-4.399144e+00
-4.545290e+00
-4.681103e+00
-4.806012e+00
-4.918940e+00
-5.017633e+00
-5.097277e+00
-5.148130e+00
-5.159622e+00
-5.152378e+00
-5.231647e+00
0.000000e+00
-1.390267e-01
-2.880838e-01
-4.520155e-01
-6.260651e-01
-8.029524e-01
-9.820310e-01
-1.162328e+00
-1.342642e+00
-1.522456e+00
-1.701478e+00
-1.879344e+00
-2.055661e+00
-2.230022e+00
-2.401947e+00
-2.570844e+00
-2.735993e+00
-2.896542e+00
-3.051526e+00
-3.199912e+00
-3.340648e+00
-3.472704e+00
-3.595059e+00
-3.706650e+00
-3.806243e+00
-3.892244e+00
-3.962434e+00
-4.013656e+00
-4.041749e+00
-4.043361e+00
-4.026787e+00
-4.028257e+00
-4.102487e+00
0.000000e+00
-1.112314e-01
-2.277778e-01
-3.534236e-01
-4.862801e-01
-6.242595e-01
-7.654044e-01
-9.082381e-01
-1.051757e+00
-1.195301e+00
-1.338348e+00
-1.480443e+00
-1.621162e+00
-1.760065e+00
-1.896660e+00
-2.030375e+00
-2.160542e+00
-2.286391e+00
-2.407045e+00
-2.521536e+00
-2.628815e+00
-2.727762e+00
-2.817167e+00
-2.895694e+00
-2.961816e+00
-3.013752e+00
-3.049480e+00
-3.067041e+00
-3.065718e+00
-3.049772e+00
-3.036913e+00
-3.059535e+00
-3.130848e+00
0.000000e+00
-8.362945e-02
-1.706608e-01
-2.624713e-01
-3.595295e-01
-4.608038e-01
-5.650644e-01
-6.711290e-01
-7.781170e-01
-8.853629e-01
-9.923246e-01
-1.098541e+00
-1.203591e+00
-1.307045e+00
-1.408437e+00
-1.507241e+00
-1.602857e+00
-1.694594e+00
-1.781667e+00
-1.863188e+00
-1.938169e+00
-2.005522e+00
-2.064057e+00
-2.112497e+00
-2.149497e+00
-2.173754e+00
-2.184295e+00
-2.181193e+00
-2.167149e+00
-2.150531e+00
-2.148718e+00
-2.180257e+00
-2.248172e+00
0.000000e+00
-5.578055e-02
-1.135910e-01
-1.742323e-01
-2.379963e-01
-3.045884e-01
-3.733279e-01
-4.434876e-01
-5.144295e-01
-5.856292e-01
-6.566480e-01
-7.271031e-01
-7.966353e-01
-8.648778e-01
-9.314325e-01
-9.958499e-01
-1.057615e+00
-1.116135e+00
-1.170730e+00
-1.220626e+00
-1.264960e+00
-1.302793e+00
-1.333134e+00
-1.355008e+00
-1.367563e+00
-1.370298e+00
-1.363491e+00
-1.348965e+00
-1.331308e+00
-1.319317e+00
-1.325433e+00
-1.359612e+00
-1.420090e+00
0.000000e+00
-2.793227e-02
-5.686213e-02
-8.711470e-02
-1.188364e-01
-1.519238e-01
-1.860989e-01
-2.210110e-01
-2.563234e-01
-2.917385e-01
-3.269943e-01
-3.618480e-01
-3.960581e-01
-4.293654e-01
-4.614766e-01
-4.920502e-01
-5.206841e-01
-5.469074e-01
-5.701749e-01
-5.898696e-01
-6.053160e-01
-6.158103e-01
-6.206776e-01
-6.193707e-01
-6.116334e-01
-5.977644e-01
-5.790232e-01
-5.581911e-01
-5.401788e-01
-5.321572e-01
-5.420280e-01
-5.741459e-01
-6.246286e-01
0.000000e+00
-1.617288e-04
-3.234996e-04
-4.782941e-04
-6.170127e-04
-7.282528e-04
-7.973195e-04
-8.046335e-04
-7.236856e-04
-5.184146e-04
-1.397875e-04
4.786843e-04
1.426677e-03
2.824050e-03
4.828902e-03
7.645991e-03
1.153407e-02
1.680999e-02
2.384683e-02
3.306278e-02
4.489629e-02
5.976114e-02
7.797290e-02
9.963482e-02
1.244695e-01
1.515858e-01
1.791878e-01
2.042868e-01
2.225955e-01
2.289806e-01
2.190255e-01
1.917305e-01
1.517654e-01
0.000000e+00
2.761333e-02
5.622348e-02
8.616974e-02
1.176163e-01
1.504817e-01
1.845162e-01
2.194064e-01
2.548662e-01
2.906670e-01
3.266397e-01
3.626677e-01
3.986784e-01
4.346380e-01
4.705503e-01
5.064585e-01
5.424479e-01
5.786456e-01
6.152130e-01
6.523287e-01
6.901583e-01
7.288046e-01
7.682341e-01
8.081711e-01
8.479566e-01
8.863792e-01
9.215132e-01
9.506458e-01
9.704473e-01
9.776042e-01
9.700945e-01
9.488522e-01
9.188454e-01
0.000000e+00
5.547529e-02
1.129776e-01
1.733226e-01
2.368183e-01
3.031895e-01
3.717799e-01
4.418948e-01
5.129398e-01
5.844496e-01
6.560648e-01
7.275085e-01
7.985616e-01
8.690421e-01
9.387941e-01
1.007682e+00
1.075591e+00
1.142420e+00
1.208077e+00
1.272460e+00
1.335435e+00
1.396790e+00
1.456185e+00
1.513064e+00
1.566562e+00
1.615392e+00
1.657787e+00
1.691543e+00
1.714298e+00
1.724141e+00
1.720594e+00
1.705696e+00
1.684638e+00
0.000000e+00
8.334802e-02
1.700920e-01
2.616241e-01
3.584262e-01
4.594812e-01
5.635777e-01
6.695580e-01
7.765745e-01
8.840057e-01
9.913679e-01
1.098276e+00
1.204407e+00
1.309455e+00
1.413116e+00
1.515071e+00
1.614978e+00
1.712473e+00
1.807161e+00
1.898611e+00
1.986356e+00
2.069871e+00
2.148551e+00
2.221661e+00
2.288277e+00
2.347224e+00
2.397069e+00
2.436207e+00
2.463129e+00
2.476944e+00
2.478121e+00
2.469320e+00
2.455972e+00
0.000000e+00
1.109885e-01
2.272819e-01
3.526806e-01
4.853019e-01
6.230684e-01
7.640326e-01
9.067322e-01
1.050184e+00
1.193753e+00
1.336950e+00
1.479363e+00
1.620615e+00
1.760324e+00
1.898063e+00
2.033337e+00
2.165564e+00
2.294072e+00
2.418103e+00
2.536835e+00
2.649418e+00
2.755000e+00
2.852739e+00
2.941789e+00
3.021271e+00
3.090243e+00
3.147704e+00
3.192679e+00
3.224425e+00
3.242806e+00
3.248868e+00
3.245561e+00
3.238511e+00
0.000000e+00
1.388487e-01
2.877123e-01
4.514517e-01
6.253086e-01
8.020060e-01
9.809039e-01
1.161031e+00
1.341192e+00
1.520875e+00
1.699798e+00
1.877602e+00
2.053898e+00
2.228269e+00
2.400210e+00
2.569071e+00
2.734027e+00
2.894053e+00
3.047957e+00
3.194448e+00
3.332228e+00
3.460078e+00
3.576915e+00
3.681804e+00
3.773953e+00
3.852698e+00
3.917521e+00
3.968100e+00
4.004442e+00
4.027100e+00
4.037549e+00
4.038802e+00
4.036448e+00
0.000000e+00
1.780503e-01
3.692834e-01
5.783072e-01
7.963356e-01
1.012876e+00
1.229258e+00
1.446256e+00
1.662587e+00
1.877754e+00
2.091773e+00
2.304412e+00
2.515272e+00
2.723919e+00
2.929805e+00
3.132162e+00
3.329927e+00
3.521706e+00
3.705821e+00
3.880438e+00
4.043741e+00
4.194087e+00
4.330098e+00
4.450703e+00
4.555148e+00
4.643003e+00
4.714195e+00
4.769064e+00
4.808436e+00
4.833703e+00
4.846943e+00
4.851253e+00
4.851754e+00
0.000000e+00
2.372596e-01
4.919763e-01
7.461638e-01
1.006550e+00
1.261539e+00
1.514391e+00
1.767626e+00
2.019787e+00
2.270288e+00
2.519386e+00
2.766930e+00
3.012478e+00
3.255558e+00
3.495575e+00
3.731639e+00
3.962456e+00
4.186268e+00
4.400912e+00
4.604003e+00
4.793186e+00
4.966338e+00
5.121706e+00
5.257957e+00
5.374212e+00
5.470092e+00
5.545797e+00
5.602225e+00
5.641082e+00
5.664941e+00
5.677153e+00
5.681588e+00
5.682671e+00
0.000000e+00
3.727061e-01
6.707648e-01
9.608345e-01
1.257291e+00
1.547522e+00
1.836038e+00
2.125247e+00
2.413376e+00
2.699855e+00
2.984940e+00
3.268404e+00
3.549722e+00
3.828346e+00
4.103564e+00
4.374305e+00
4.639009e+00
4.895561e+00
5.141364e+00
5.373557e+00
5.589288e+00
5.785944e+00
5.961286e+00
6.113519e+00
6.241343e+00
6.344059e+00
6.421731e+00
6.475439e+00
6.507579e+00
6.522145e+00
6.524861e+00
6.522726e+00
6.521509e+00
0.000000e+00
-2.297035e-01
-4.226771e-01
-6.496503e-01
-9.060834e-01
-1.193736e+00
-1.516483e+00
-1.874749e+00
-2.268471e+00
-2.698148e+00
-3.163992e+00
-3.665884e+00
-4.203619e+00
-4.776908e+00
-5.385307e+00
-6.028194e+00
-6.704751e+00
-7.413971e+00
-8.154678e+00
-8.925603e+00
-9.725479e+00
-1.055318e+01
-1.140787e+01
-1.228928e+01
-1.319799e+01
-1.413592e+01
-1.510707e+01
-1.611862e+01
-1.718273e+01
-1.832077e+01
-1.958065e+01
-2.108437e+01
-2.312888e+01
0.000000e+00
-1.430079e-01
-3.445943e-01
-5.678934e-01
-8.240489e-01
-1.112681e+00
-1.435440e+00
-1.793696e+00
-2.187801e+00
-2.617907e+00
-3.084170e+00
-3.586580e+00
-4.124965e+00
-4.699042e+00
-5.308406e+00
-5.952497e+00
-6.630564e+00
-7.341650e+00
-8.084593e+00
-8.858079e+00
-9.660740e+00
-1.049130e+01
-1.134877e+01
-1.223266e+01
-1.314337e+01
-1.408265e+01
-1.505430e+01
-1.606541e+01
-1.712837e+01
-1.826625e+01
-1.952575e+01
-2.100186e+01
-2.289241e+01
0.000000e+00
-1.069744e-01
-2.840775e-01
-5.022736e-01
-7.557055e-01
-1.043613e+00
-1.365981e+00
-1.724018e+00
-2.118231e+00
-2.548629e+00
-3.015274e+00
-3.518181e+00
-4.057201e+00
-4.632065e+00
-5.242395e+00
-5.887676e+00
-6.567212e+00
-7.280091e+00
-8.025177e+00
-8.801147e+00
-9.606590e+00
-1.044016e+01
-1.130078e+01
-1.218790e+01
-1.310186e+01
-1.404439e+01
-1.501940e+01
-1.603431e+01
-1.710261e+01
-1.824788e+01
-1.950241e+01
-2.088692e+01
-2.238053e+01
0.000000e+00
-9.269602e-02
-2.498487e-01
-4.558589e-01
-7.035070e-01
-9.882696e-01
-1.309059e+00
-1.666289e+00
-2.060172e+00
-2.490601e+00
-2.957534e+00
-3.460927e+00
-4.000621e+00
-4.576350e+00
-5.187752e+00
-5.834339e+00
-6.515445e+00
-7.230196e+00
-7.977489e+00
-8.756023e+00
-9.564397e+00
-1.040126e+01
-1.126553e+01
-1.215664e+01
-1.307493e+01
-1.402210e+01
-1.500199e+01
-1.602180e+01
-1.709396e+01
-1.823658e+01
-1.945701e+01
-2.072156e+01
-2.189304e+01
0.000000e+00
-8.827139e-02
-2.326517e-01
-4.275060e-01
-6.670824e-01
-9.470081e-01
-1.265071e+00
-1.620787e+00
-2.013880e+00
-2.444067e+00
-2.911164e+00
-3.415018e+00
-3.955422e+00
-4.532100e+00
-5.144687e+00
-5.792702e+00
-6.475497e+00
-7.192223e+00
-7.941812e+00
-8.723007e+00
-9.534443e+00
-1.037480e+01
-1.124298e+01
-1.213841e+01
-1.306128e+01
-1.401303e+01
-1.499685e+01
-1.601833e+01
-1.708591e+01
-1.820753e+01
-1.937168e+01
-2.051880e+01
-2.154525e+01
0.000000e+00
-8.530907e-02
-2.230042e-01
-4.100705e-01
-6.429028e-01
-9.179376e-01
-1.232995e+00
-1.586908e+00
-1.979003e+00
-2.408810e+00
-2.875991e+00
-3.380277e+00
-3.921404e+00
-4.499067e+00
-5.112894e+00
-5.762399e+00
-6.446945e+00
-7.165701e+00
-7.917631e+00
-8.701518e+00
-9.516030e+00
-1.035985e+01
-1.123183e+01
-1.213125e+01
-1.305798e+01
-1.401278e+01
-1.499750e+01
-1.601501e+01
-1.706815e+01
-1.815496e+01
-1.925303e+01
-2.030849e+01
-2.124724e+01
0.000000e+00
-8.317461e-02
-2.170441e-01
-3.993659e-01
-6.275166e-01
-8.988630e-01
-1.211375e+00
-1.563688e+00
-1.954890e+00
-2.384349e+00
-2.851606e+00
-3.356304e+00
-3.898127e+00
-4.476748e+00
-5.091784e+00
-5.742749e+00
-6.429012e+00
-7.149761e+00
-7.903979e+00
-8.690466e+00
-9.507887e+00
-1.035487e+01
-1.123014e+01
-1.213265e+01
-1.306174e+01
-1.401717e+01
-1.499900e+01
-1.600700e+01
-1.703890e+01
-1.808579e+01
-1.912316e+01
-2.010802e+01
-2.098813e+01
0.000000e+00
-8.193261e-02
-2.137089e-01
-3.934467e-01
-6.189680e-01
-8.880969e-01
-1.198999e+00
-1.550277e+00
-1.940919e+00
-2.370200e+00
-2.837590e+00
-3.342684e+00
-3.885139e+00
-4.464617e+00
-5.080738e+00
-5.733026e+00
-6.420862e+00
-7.143444e+00
-7.899761e+00
-8.688599e+00
-9.508569e+00
-1.035817e+01
-1.123589e+01
-1.214024e+01
-1.306985e+01
-1.402331e+01
-1.499888e+01
-1.599363e+01
-1.700168e+01
-1.801094e+01
-1.899874e+01
-1.993200e+01
-2.077399e+01
0.000000e+00
-8.152509e-02
-2.126340e-01
-3.915634e-01
-6.162634e-01
-8.846991e-01
-1.195109e+00
-1.546104e+00
-1.936653e+00
-2.366007e+00
-2.833622e+00
-3.339089e+00
-3.882068e+00
-4.462237e+00
-5.079234e+00
-5.732605e+00
-6.421750e+00
-7.145876e+00
-7.903963e+00
-8.694747e+00
-9.516734e+00
-1.036823e+01
-1.124739e+01
-1.215222e+01
-1.308056e+01
-1.402989e+01
-1.499693e+01
-1.597680e+01
-1.696168e+01
-1.793886e+01
-1.888884e+01
-1.978642e+01
-2.060497e+01
0.000000e+00
-8.192672e-02
-2.137201e-01
-3.935051e-01
-6.191091e-01
-8.883627e-01
-1.199440e+00
-1.550955e+00
-1.941913e+00
-2.371607e+00
-2.839537e+00
-3.345330e+00
-3.888688e+00
-4.469323e+00
-5.086912e+00
-5.741036e+00
-6.431123e+00
-7.156389e+00
-7.915788e+00
-8.707982e+00
-9.531331e+00
-1.038390e+01
-1.126346e+01
-1.216751e+01
-1.309313e+01
-1.403685e+01
-1.499425e+01
-1.595931e+01
-1.692351e+01
-1.787485e+01
-1.879721e+01
-1.967135e+01
-2.047734e+01
0.000000e+00
-8.315837e-02
-2.170588e-01
-3.994716e-01
-6.277826e-01
-8.993701e-01
-1.212220e+00
-1.564991e+00
-1.956800e+00
-2.387055e+00
-2.855349e+00
-3.361390e+00
-3.904943e+00
-4.485780e+00
-5.103625e+00
-5.758107e+00
-6.448689e+00
-7.174596e+00
-7.934749e+00
-8.727720e+00
-9.551697e+00
-1.040448e+01
-1.128349e+01
-1.218569e+01
-1.310757e+01
-1.404491e+01
-1.499253e+01
-1.594387e+01
-1.689051e+01
-1.782175e+01
-1.872459e+01
-1.958444e+01
-2.038623e+01
0.000000e+00
-8.527375e-02
-2.230081e-01
-4.102030e-01
-6.432629e-01
-9.186390e-01
-1.234175e+00
-1.588732e+00
-1.981683e+00
-2.412609e+00
-2.881245e+00
-3.387412e+00
-3.930957e+00
-4.511711e+00
-5.129457e+00
-5.783871e+00
-6.474455e+00
-7.200443e+00
-7.960722e+00
-8.753762e+00
-9.577583e+00
-1.042974e+01
-1.130730e+01
-1.220685e+01
-1.312434e+01
-1.405507e+01
-1.499340e+01
-1.593263e+01
-1.686479e+01
-1.778069e+01
-1.867010e+01
-1.952227e+01
-2.032634e+01
0.000000e+00
-8.820566e-02
-2.326275e-01
-4.276396e-01
-6.674962e-01
-9.478402e-01
-1.266488e+00
-1.622992e+00
-2.017128e+00
-2.448678e+00
-2.917542e+00
-3.423675e+00
-3.967003e+00
-4.547410e+00
-5.164721e+00
-5.818654e+00
-6.508741e+00
-7.234222e+00
-7.993944e+00
-8.786283e+00
-9.609109e+00
-1.045977e+01
-1.133508e+01
-1.223129e+01
-1.314404e+01
-1.406828e+01
-1.499815e+01
-1.592701e+01
-1.684747e+01
-1.775172e+01
-1.863196e+01
-1.948095e+01
-2.029200e+01
0.000000e+00
-9.259242e-02
-2.497877e-01
-4.559735e-01
-7.039350e-01
-9.891646e-01
-1.310606e+00
-1.668716e+00
-2.063762e+00
-2.495708e+00
-2.964603e+00
-3.470522e+00
-4.013448e+00
-4.593289e+00
-5.209892e+00
-5.862989e+00
-6.552118e+00
-7.276503e+00
-8.034948e+00
-8.825751e+00
-9.646668e+00
-1.049491e+01
-1.136713e+01
-1.225939e+01
-1.316715e+01
-1.408516e+01
-1.500750e+01
-1.592765e+01
-1.683873e+01
-1.773409e+01
-1.860795e+01
-1.945626e+01
-2.027697e+01
0.000000e+00
-1.068502e-01
-2.839954e-01
-5.023690e-01
-7.561250e-01
-1.044520e+00
-1.367570e+00
-1.726529e+00
-2.121958e+00
-2.553942e+00
-3.022637e+00
-3.528177e+00
-4.070560e+00
-4.649692e+00
-5.265402e+00
-5.917398e+00
-6.605177e+00
-7.327911e+00
-8.084346e+00
-8.872721e+00
-9.690739e+00
-1.053556e+01
-1.140378e+01
-1.229142e+01
-1.319386e+01
-1.410582e+01
-1.502141e+01
-1.593425e+01
-1.683787e+01
-1.772638e+01
-1.859549e+01
-1.944384e+01
-2.027428e+01
0.000000e+00
-1.428986e-01
-3.445167e-01
-5.679867e-01
-8.244656e-01
-1.113590e+00
-1.437039e+00
-1.796226e+00
-2.191559e+00
-2.623263e+00
-3.091589e+00
-3.596643e+00
-4.138395e+00
-4.716731e+00
-5.331439e+00
-5.982150e+00
-6.668262e+00
-7.388849e+00
-8.142574e+00
-8.927632e+00
-9.741729e+00
-1.058206e+01
-1.144527e+01
-1.232743e+01
-1.322400e+01
-1.412976e+01
-1.503895e+01
-1.594537e+01
-1.684288e+01
-1.772606e+01
-1.859143e+01
-1.943935e+01
-2.027645e+01
0.000000e+00
-2.296291e-01
-4.226276e-01
-6.497723e-01
-9.065274e-01
-1.194674e+00
-1.518115e+00
-1.877314e+00
-2.272263e+00
-2.703533e+00
-3.171430e+00
-3.675943e+00
-4.217001e+00
-4.794472e+00
-5.408074e+00
-6.057327e+00
-6.741484e+00
-7.459472e+00
-8.209849e+00
-8.990773e+00
-9.799982e+00
-1.063475e+01
-1.149185e+01