TITLE = "Solution"
VARIABLES = x, y, u, v, psiu, psiv, t, stress
ZONE T="structure" N=561 E=512 F=FEBLOCK ET=QUADRILATERAL VARLOCATION=([7,8]=cellcentered)
0.000000e+00
6.250000e+00
1.250000e+01
1.875000e+01
2.500000e+01
3.125000e+01
3.750000e+01
4.375000e+01
5.000000e+01
5.625000e+01
6.250000e+01
6.875000e+01
7.500000e+01
8.125000e+01
8.750000e+01
9.375000e+01
1.000000e+02
1.062500e+02
1.125000e+02
1.187500e+02
1.250000e+02
1.312500e+02
1.375000e+02
1.437500e+02
1.500000e+02
1.562500e+02
1.625000e+02
1.687500e+02
1.750000e+02
1.812500e+02
1.875000e+02
1.937500e+02
2.000000e+02
0.000000e+00
6.250000e+00
1.250000e+01
1.875000e+01
2.500000e+01
3.125000e+01
3.750000e+01
4.375000e+01
5.000000e+01
5.625000e+01
6.250000e+01
6.875000e+01
7.500000e+01
8.125000e+01
8.750000e+01
9.375000e+01
1.000000e+02
1.062500e+02
1.125000e+02
1.187500e+02
1.250000e+02
1.312500e+02
1.375000e+02
1.437500e+02
1.500000e+02
1.562500e+02
1.625000e+02
1.687500e+02
1.750000e+02
1.812500e+02
1.875000e+02
1.937500e+02
2.000000e+02
0.000000e+00
6.250000e+00
1.250000e+01
1.875000e+01
2.500000e+01
3.125000e+01
3.750000e+01
4.375000e+01
5.000000e+01
5.625000e+01
6.250000e+01
6.875000e+01
7.500000e+01
8.125000e+01
8.750000e+01
9.375000e+01
1.000000e+02
1.062500e+02
1.125000e+02
1.187500e+02
1.250000e+02
1.312500e+02
1.375000e+02
1.437500e+02
1.500000e+02
1.562500e+02
1.625000e+02
1.687500e+02
1.750000e+02
1.812500e+02
1.875000e+02
1.937500e+02
2.000000e+02
0.000000e+00
6.250000e+00
1.250000e+01
1.875000e+01
2.500000e+01
3.125000e+01
3.750000e+01
4.375000e+01
5.000000e+01
5.625000e+01
6.250000e+01
6.875000e+01
7.500000e+01
8.125000e+01
8.750000e+01
9.375000e+01
1.000000e+02
1.062500e+02
1.125000e+02
1.187500e+02
1.250000e+02
1.312500e+02
1.375000e+02
1.437500e+02
1.500000e+02
1.562500e+02
1.625000e+02
1.687500e+02
1.750000e+02
1.812500e+02
1.875000e+02
1.937500e+02
2.000000e+02
0.000000e+00
6.250000e+00
1.250000e+01
1.875000e+01
2.500000e+01
3.125000e+01
3.750000e+01
4.375000e+01
5.000000e+01
5.625000e+01
6.250000e+01
6.875000e+01
7.500000e+01
8.125000e+01
8.750000e+01
9.375000e+01
1.000000e+02
1.062500e+02
1.125000e+02
1.187500e+02
1.250000e+02
1.312500e+02
1.375000e+02
1.437500e+02
1.500000e+02
1.562500e+02
1.625000e+02
1.687500e+02
1.750000e+02
1.812500e+02
1.875000e+02
1.937500e+02
2.000000e+02
0.000000e+00
6.250000e+00
1.250000e+01
1.875000e+01
2.500000e+01
3.125000e+01
3.750000e+01
4.375000e+01
5.000000e+01
5.625000e+01
6.250000e+01
6.875000e+01
7.500000e+01
8.125000e+01
8.750000e+01
9.375000e+01
1.000000e+02
1.062500e+02
1.125000e+02
1.187500e+02
1.250000e+02
1.312500e+02
1.375000e+02
1.437500e+02
1.500000e+02
1.562500e+02
1.625000e+02
1.687500e+02
1.750000e+02
1.812500e+02
1.875000e+02
1.937500e+02
2.000000e+02
0.000000e+00
6.250000e+00
1.250000e+01
1.875000e+01
2.500000e+01
3.125000e+01
3.750000e+01
4.375000e+01
5.000000e+01
5.625000e+01
6.250000e+01
6.875000e+01
7.500000e+01
8.125000e+01
8.750000e+01
9.375000e+01
1.000000e+02
1.062500e+02
1.125000e+02
1.187500e+02
1.250000e+02
1.312500e+02
1.375000e+02
1.437500e+02
1.500000e+02
1.562500e+02
1.625000e+02
1.687500e+02
1.750000e+02
1.812500e+02
1.875000e+02
1.937500e+02
2.000000e+02
0.000000e+00
6.250000e+00
1.250000e+01
1.875000e+01
2.500000e+01
3.125000e+01
3.750000e+01
4.375000e+01
5.000000e+01
5.625000e+01
6.250000e+01
6.875000e+01
7.500000e+01
8.125000e+01
8.750000e+01
9.375000e+01
1.000000e+02
1.062500e+02
1.125000e+02
1.187500e+02
1.250000e+02
1.312500e+02
1.375000e+02
1.437500e+02
1.500000e+02
1.562500e+02
1.625000e+02
1.687500e+02
1.750000e+02
1.812500e+02
1.875000e+02
1.937500e+02
2.000000e+02
0.000000e+00
6.250000e+00
1.250000e+01
1.875000e+01
2.500000e+01
3.125000e+01
3.750000e+01
4.375000e+01
5.000000e+01
5.625000e+01
6.250000e+01
6.875000e+01
7.500000e+01
8.125000e+01
8.750000e+01
9.375000e+01
1.000000e+02
1.062500e+02
1.125000e+02
1.187500e+02
1.250000e+02
1.312500e+02
1.375000e+02
1.437500e+02
1.500000e+02
1.562500e+02
1.625000e+02
1.687500e+02
1.750000e+02
1.812500e+02
1.875000e+02
1.937500e+02
2.000000e+02
0.000000e+00
6.250000e+00
1.250000e+01
1.875000e+01
2.500000e+01
3.125000e+01
3.750000e+01
4.375000e+01
5.000000e+01
5.625000e+01
6.250000e+01
6.875000e+01
7.500000e+01
8.125000e+01
8.750000e+01
9.375000e+01
1.000000e+02
1.062500e+02
1.125000e+02
1.187500e+02
1.250000e+02
1.312500e+02
1.375000e+02
1.437500e+02
1.500000e+02
1.562500e+02
1.625000e+02
1.687500e+02
1.750000e+02
1.812500e+02
1.875000e+02
1.937500e+02
2.000000e+02
0.000000e+00
6.250000e+00
1.250000e+01
1.875000e+01
2.500000e+01
3.125000e+01
3.750000e+01
4.375000e+01
5.000000e+01
5.625000e+01
6.250000e+01
6.875000e+01
7.500000e+01
8.125000e+01
8.750000e+01
9.375000e+01
1.000000e+02
1.062500e+02
1.125000e+02
1.187500e+02
1.250000e+02
1.312500e+02
1.375000e+02
1.437500e+02
1.500000e+02
1.562500e+02
1.625000e+02
1.687500e+02
1.750000e+02
1.812500e+02
1.875000e+02
1.937500e+02
2.000000e+02
0.000000e+00
6.250000e+00
1.250000e+01
1.875000e+01
2.500000e+01
3.125000e+01
3.750000e+01
4.375000e+01
5.000000e+01
5.625000e+01
6.250000e+01
6.875000e+01
7.500000e+01
8.125000e+01
8.750000e+01
9.375000e+01
1.000000e+02
1.062500e+02
1.125000e+02
1.187500e+02
1.250000e+02
1.312500e+02
1.375000e+02
1.437500e+02
1.500000e+02
1.562500e+02
1.625000e+02
1.687500e+02
1.750000e+02
1.812500e+02
1.875000e+02
1.937500e+02
2.000000e+02
0.000000e+00
6.250000e+00
1.250000e+01
1.875000e+01
2.500000e+01
3.125000e+01
3.750000e+01
4.375000e+01
5.000000e+01
5.625000e+01
6.250000e+01
6.875000e+01
7.500000e+01
8.125000e+01
8.750000e+01
9.375000e+01
1.000000e+02
1.062500e+02
1.125000e+02
1.187500e+02
1.250000e+02
1.312500e+02
1.375000e+02
1.437500e+02
1.500000e+02
1.562500e+02
1.625000e+02
1.687500e+02
1.750000e+02
1.812500e+02
1.875000e+02
1.937500e+02
2.000000e+02
0.000000e+00
6.250000e+00
1.250000e+01
1.875000e+01
2.500000e+01
3.125000e+01
3.750000e+01
4.375000e+01
5.000000e+01
5.625000e+01
6.250000e+01
6.875000e+01
7.500000e+01
8.125000e+01
8.750000e+01
9.375000e+01
1.000000e+02
1.062500e+02
1.125000e+02
1.187500e+02
1.250000e+02
1.312500e+02
1.375000e+02
1.437500e+02
1.500000e+02
1.562500e+02
1.625000e+02
1.687500e+02
1.750000e+02
1.812500e+02
1.875000e+02
1.937500e+02
2.000000e+02
0.000000e+00
6.250000e+00
1.250000e+01
1.875000e+01
2.500000e+01
3.125000e+01
3.750000e+01
4.375000e+01
5.000000e+01
5.625000e+01
6.250000e+01
6.875000e+01
7.500000e+01
8.125000e+01
8.750000e+01
9.375000e+01
1.000000e+02
1.062500e+02
1.125000e+02
1.187500e+02
1.250000e+02
1.312500e+02
1.375000e+02
1.437500e+02
1.500000e+02
1.562500e+02
1.625000e+02
1.687500e+02
1.750000e+02
1.812500e+02
1.875000e+02
1.937500e+02
2.000000e+02
0.000000e+00
6.250000e+00
1.250000e+01
1.875000e+01
2.500000e+01
3.125000e+01
3.750000e+01
4.375000e+01
5.000000e+01
5.625000e+01
6.250000e+01
6.875000e+01
7.500000e+01
8.125000e+01
8.750000e+01
9.375000e+01
1.000000e+02
1.062500e+02
1.125000e+02
1.187500e+02
1.250000e+02
1.312500e+02
1.375000e+02
1.437500e+02
1.500000e+02
1.562500e+02
1.625000e+02
1.687500e+02
1.750000e+02
1.812500e+02
1.875000e+02
1.937500e+02
2.000000e+02
0.000000e+00
6.250000e+00
1.250000e+01
1.875000e+01
2.500000e+01
3.125000e+01
3.750000e+01
4.375000e+01
5.000000e+01
5.625000e+01
6.250000e+01
6.875000e+01
7.500000e+01
8.125000e+01
8.750000e+01
9.375000e+01
1.000000e+02
1.062500e+02
1.125000e+02
1.187500e+02
1.250000e+02
1.312500e+02
1.375000e+02
1.437500e+02
1.500000e+02
1.562500e+02
1.625000e+02
1.687500e+02
1.750000e+02
1.812500e+02
1.875000e+02
1.937500e+02
2.000000e+02
0.000000e+00
0.000000e+00
0.000000e+00
0.000000e+00
0.000000e+00
0.000000e+00
0.000000e+00
0.000000e+00
0.000000e+00
0.000000e+00
0.000000e+00
0.000000e+00
0.000000e+00
0.000000e+00
0.000000e+00
0.000000e+00
0.000000e+00
0.000000e+00
0.000000e+00
0.000000e+00
0.000000e+00
0.000000e+00
0.000000e+00
0.000000e+00
0.000000e+00
0.000000e+00
0.000000e+00
0.000000e+00
0.000000e+00
0.000000e+00
0.000000e+00
0.000000e+00
0.000000e+00
6.250000e+00
6.250000e+00
6.250000e+00
6.250000e+00
6.250000e+00
6.250000e+00
6.250000e+00
6.250000e+00
6.250000e+00
6.250000e+00
6.250000e+00
6.250000e+00
6.250000e+00
6.250000e+00
6.250000e+00
6.250000e+00
6.250000e+00
6.250000e+00
6.250000e+00
6.250000e+00
6.250000e+00
6.250000e+00
6.250000e+00
6.250000e+00
6.250000e+00
6.250000e+00
6.250000e+00
6.250000e+00
6.250000e+00
6.250000e+00
6.250000e+00
6.250000e+00
6.250000e+00
1.250000e+01
1.250000e+01
1.250000e+01
1.250000e+01
1.250000e+01
1.250000e+01
1.250000e+01
1.250000e+01
1.250000e+01
1.250000e+01
1.250000e+01
1.250000e+01
1.250000e+01
1.250000e+01
1.250000e+01
1.250000e+01
1.250000e+01
1.250000e+01
1.250000e+01
1.250000e+01
1.250000e+01
1.250000e+01
1.250000e+01
1.250000e+01
1.250000e+01
1.250000e+01
1.250000e+01
1.250000e+01
1.250000e+01
1.250000e+01
1.250000e+01
1.250000e+01
1.250000e+01
1.875000e+01
1.875000e+01
1.875000e+01
1.875000e+01
1.875000e+01
1.875000e+01
1.875000e+01
1.875000e+01
1.875000e+01
1.875000e+01
1.875000e+01
1.875000e+01
1.875000e+01
1.875000e+01
1.875000e+01
1.875000e+01
1.875000e+01
1.875000e+01
1.875000e+01
1.875000e+01
1.875000e+01
1.875000e+01
1.875000e+01
1.875000e+01
1.875000e+01
1.875000e+01
1.875000e+01
1.875000e+01
1.875000e+01
1.875000e+01
1.875000e+01
1.875000e+01
1.875000e+01
2.500000e+01
2.500000e+01
2.500000e+01
2.500000e+01
2.500000e+01
2.500000e+01
2.500000e+01
2.500000e+01
2.500000e+01
2.500000e+01
2.500000e+01
2.500000e+01
2.500000e+01
2.500000e+01
2.500000e+01
2.500000e+01
2.500000e+01
2.500000e+01
2.500000e+01
2.500000e+01
2.500000e+01
2.500000e+01
2.500000e+01
2.500000e+01
2.500000e+01
2.500000e+01
2.500000e+01
2.500000e+01
2.500000e+01
2.500000e+01
2.500000e+01
2.500000e+01
2.500000e+01
3.125000e+01
3.125000e+01
3.125000e+01
3.125000e+01
3.125000e+01
3.125000e+01
3.125000e+01
3.125000e+01
3.125000e+01
3.125000e+01
3.125000e+01
3.125000e+01
3.125000e+01
3.125000e+01
3.125000e+01
3.125000e+01
3.125000e+01
3.125000e+01
3.125000e+01
3.125000e+01
3.125000e+01
3.125000e+01
3.125000e+01
3.125000e+01
3.125000e+01
3.125000e+01
3.125000e+01
3.125000e+01
3.125000e+01
3.125000e+01
3.125000e+01
3.125000e+01
3.125000e+01
3.750000e+01
3.750000e+01
3.750000e+01
3.750000e+01
3.750000e+01
3.750000e+01
3.750000e+01
3.750000e+01
3.750000e+01
3.750000e+01
3.750000e+01
3.750000e+01
3.750000e+01
3.750000e+01
3.750000e+01
3.750000e+01
3.750000e+01
3.750000e+01
3.750000e+01
3.750000e+01
3.750000e+01
3.750000e+01
3.750000e+01
3.750000e+01
3.750000e+01
3.750000e+01
3.750000e+01
3.750000e+01
3.750000e+01
3.750000e+01
3.750000e+01
3.750000e+01
3.750000e+01
4.375000e+01
4.375000e+01
4.375000e+01
4.375000e+01
4.375000e+01
4.375000e+01
4.375000e+01
4.375000e+01
4.375000e+01
4.375000e+01
4.375000e+01
4.375000e+01
4.375000e+01
4.375000e+01
4.375000e+01
4.375000e+01
4.375000e+01
4.375000e+01
4.375000e+01
4.375000e+01
4.375000e+01
4.375000e+01
4.375000e+01
4.375000e+01
4.375000e+01
4.375000e+01
4.375000e+01
4.375000e+01
4.375000e+01
4.375000e+01
4.375000e+01
4.375000e+01
4.375000e+01
5.000000e+01
5.000000e+01
5.000000e+01
5.000000e+01
5.000000e+01
5.000000e+01
5.000000e+01
5.000000e+01
5.000000e+01
5.000000e+01
5.000000e+01
5.000000e+01
5.000000e+01
5.000000e+01
5.000000e+01
5.000000e+01
5.000000e+01
5.000000e+01
5.000000e+01
5.000000e+01
5.000000e+01
5.000000e+01
5.000000e+01
5.000000e+01
5.000000e+01
5.000000e+01
5.000000e+01
5.000000e+01
5.000000e+01
5.000000e+01
5.000000e+01
5.000000e+01
5.000000e+01
5.625000e+01
5.625000e+01
5.625000e+01
5.625000e+01
5.625000e+01
5.625000e+01
5.625000e+01
5.625000e+01
5.625000e+01
5.625000e+01
5.625000e+01
5.625000e+01
5.625000e+01
5.625000e+01
5.625000e+01
5.625000e+01
5.625000e+01
5.625000e+01
5.625000e+01
5.625000e+01
5.625000e+01
5.625000e+01
5.625000e+01
5.625000e+01
5.625000e+01
5.625000e+01
5.625000e+01
5.625000e+01
5.625000e+01
5.625000e+01
5.625000e+01
5.625000e+01
5.625000e+01
6.250000e+01
6.250000e+01
6.250000e+01
6.250000e+01
6.250000e+01
6.250000e+01
6.250000e+01
6.250000e+01
6.250000e+01
6.250000e+01
6.250000e+01
6.250000e+01
6.250000e+01
6.250000e+01
6.250000e+01
6.250000e+01
6.250000e+01
6.250000e+01
6.250000e+01
6.250000e+01
6.250000e+01
6.250000e+01
6.250000e+01
6.250000e+01
6.250000e+01
6.250000e+01
6.250000e+01
6.250000e+01
6.250000e+01
6.250000e+01
6.250000e+01
6.250000e+01
6.250000e+01
6.875000e+01
6.875000e+01
6.875000e+01
6.875000e+01
6.875000e+01
6.875000e+01
6.875000e+01
6.875000e+01
6.875000e+01
6.875000e+01
6.875000e+01
6.875000e+01
6.875000e+01
6.875000e+01
6.875000e+01
6.875000e+01
6.875000e+01
6.875000e+01
6.875000e+01
6.875000e+01
6.875000e+01
6.875000e+01
6.875000e+01
6.875000e+01
6.875000e+01
6.875000e+01
6.875000e+01
6.875000e+01
6.875000e+01
6.875000e+01
6.875000e+01
6.875000e+01
6.875000e+01
7.500000e+01
7.500000e+01
7.500000e+01
7.500000e+01
7.500000e+01
7.500000e+01
7.500000e+01
7.500000e+01
7.500000e+01
7.500000e+01
7.500000e+01
7.500000e+01
7.500000e+01
7.500000e+01
7.500000e+01
7.500000e+01
7.500000e+01
7.500000e+01
7.500000e+01
7.500000e+01
7.500000e+01
7.500000e+01
7.500000e+01
7.500000e+01
7.500000e+01
7.500000e+01
7.500000e+01
7.500000e+01
7.500000e+01
7.500000e+01
7.500000e+01
7.500000e+01
7.500000e+01
8.125000e+01
8.125000e+01
8.125000e+01
8.125000e+01
8.125000e+01
8.125000e+01
8.125000e+01
8.125000e+01
8.125000e+01
8.125000e+01
8.125000e+01
8.125000e+01
8.125000e+01
8.125000e+01
8.125000e+01
8.125000e+01
8.125000e+01
8.125000e+01
8.125000e+01
8.125000e+01
8.125000e+01
8.125000e+01
8.125000e+01
8.125000e+01
8.125000e+01
8.125000e+01
8.125000e+01
8.125000e+01
8.125000e+01
8.125000e+01
8.125000e+01
8.125000e+01
8.125000e+01
8.750000e+01
8.750000e+01
8.750000e+01
8.750000e+01
8.750000e+01
8.750000e+01
8.750000e+01
8.750000e+01
8.750000e+01
8.750000e+01
8.750000e+01
8.750000e+01
8.750000e+01
8.750000e+01
8.750000e+01
8.750000e+01
8.750000e+01
8.750000e+01
8.750000e+01
8.750000e+01
8.750000e+01
8.750000e+01
8.750000e+01
8.750000e+01
8.750000e+01
8.750000e+01
8.750000e+01
8.750000e+01
8.750000e+01
8.750000e+01
8.750000e+01
8.750000e+01
8.750000e+01
9.375000e+01
9.375000e+01
9.375000e+01
9.375000e+01
9.375000e+01
9.375000e+01
9.375000e+01
9.375000e+01
9.375000e+01
9.375000e+01
9.375000e+01
9.375000e+01
9.375000e+01
9.375000e+01
9.375000e+01
9.375000e+01
9.375000e+01
9.375000e+01
9.375000e+01
9.375000e+01
9.375000e+01
9.375000e+01
9.375000e+01
9.375000e+01
9.375000e+01
9.375000e+01
9.375000e+01
9.375000e+01
9.375000e+01
9.375000e+01
9.375000e+01
9.375000e+01
9.375000e+01
1.000000e+02
1.000000e+02
1.000000e+02
1.000000e+02
1.000000e+02
1.000000e+02
1.000000e+02
1.000000e+02
1.000000e+02
1.000000e+02
1.000000e+02
1.000000e+02
1.000000e+02
1.000000e+02
1.000000e+02
1.000000e+02
1.000000e+02
1.000000e+02
1.000000e+02
1.000000e+02
1.000000e+02
1.000000e+02
1.000000e+02
1.000000e+02
1.000000e+02
1.000000e+02
1.000000e+02
1.000000e+02
1.000000e+02
1.000000e+02
1.000000e+02
1.000000e+02
1.000000e+02
0.000000e+00
-5.280243e-02
-9.580290e-02
-1.356368e-01
-1.738662e-01
-2.107825e-01
-2.464598e-01
-2.808949e-01
-3.140663e-01
-3.459497e-01
-3.765251e-01
-4.057788e-01
-4.337036e-01
-4.602990e-01
-4.855711e-01
-5.095334e-01
-5.322072e-01
-5.536237e-01
-5.738259e-01
-5.928721e-01
-6.108396e-01
-6.278309e-01
-6.439813e-01
-6.594704e-01
-6.745387e-01
-6.895133e-01
-7.048482e-01
-7.211910e-01
-7.394918e-01
-7.611485e-01
-7.879746e-01
-8.199441e-01
-8.394546e-01
0.000000e+00
-3.540260e-02
-7.365884e-02
-1.097295e-01
-1.440133e-01
-1.768366e-01
-2.083729e-01
-2.386981e-01
-2.678425e-01
-2.958158e-01
-3.226198e-01
-3.482547e-01
-3.727216e-01
-3.960244e-01
-4.181710e-01
-4.391736e-01
-4.590501e-01
-4.778251e-01
-4.955310e-01
-5.122102e-01
-5.279165e-01
-5.427179e-01
-5.566987e-01
-5.699620e-01
-5.826311e-01
-5.948478e-01
-6.067619e-01
-6.184965e-01
-6.300509e-01
-6.410491e-01
-6.502136e-01
-6.555716e-01
-6.630308e-01
0.000000e+00
-2.808140e-02
-5.781229e-02
-8.808310e-02
-1.174970e-01
-1.458269e-01
-1.730548e-01
-1.992065e-01
-2.243050e-01
-2.483662e-01
-2.714003e-01
-2.934146e-01
-3.144149e-01
-3.344077e-01
-3.534002e-01
-3.714018e-01
-3.884241e-01
-4.044817e-01
-4.195927e-01
-4.337788e-01
-4.470645e-01
-4.594770e-01
-4.710426e-01
-4.817817e-01
-4.916987e-01
-5.007618e-01
-5.088672e-01
-5.157765e-01
-5.210222e-01
-5.238469e-01
-5.235992e-01
-5.220131e-01
-5.307235e-01
0.000000e+00
-2.228009e-02
-4.579066e-02
-6.994487e-02
-9.404248e-02
-1.175564e-01
-1.402853e-01
-1.621569e-01
-1.831516e-01
-2.032687e-01
-2.225133e-01
-2.408918e-01
-2.584104e-01
-2.750746e-01
-2.908894e-01
-3.058592e-01
-3.199881e-01
-3.332798e-01
-3.457369e-01
-3.573602e-01
-3.681467e-01
-3.780865e-01
-3.871577e-01
-3.953179e-01
-4.024917e-01
-4.085527e-01
-4.133002e-01
-4.164440e-01
-4.176444e-01
-4.167533e-01
-4.145890e-01
-4.144598e-01
-4.227586e-01
0.000000e+00
-1.729246e-02
-3.540908e-02
-5.410443e-02
-7.295165e-02
-9.156773e-02
-1.096958e-01
-1.272058e-01
-1.440387e-01
-1.601716e-01
-1.755986e-01
-1.903205e-01
-2.043402e-01
-2.176598e-01
-2.302805e-01
-2.422009e-01
-2.534173e-01
-2.639231e-01
-2.737074e-01
-2.827537e-01
-2.910378e-01
-2.985243e-01
-3.051619e-01
-3.108777e-01
-3.155707e-01
-3.191082e-01
-3.213342e-01
-3.221150e-01
-3.214744e-01
-3.199069e-01
-3.188900e-01
-3.212383e-01
-3.283176e-01
0.000000e+00
-1.270896e-02
-2.596243e-02
-3.964169e-02
-5.351037e-02
-6.730962e-02
-8.083390e-02
-9.394963e-02
-1.065835e-01
-1.186998e-01
-1.302835e-01
-1.413293e-01
-1.518353e-01
-1.617997e-01
-1.712186e-01
-1.800855e-01
-1.883896e-01
-1.961159e-01
-2.032436e-01
-2.097446e-01
-2.155823e-01
-2.207095e-01
-2.250663e-01
-2.285794e-01
-2.311656e-01
-2.327436e-01
-2.332672e-01
-2.327973e-01
-2.316393e-01
-2.305376e-01
-2.308058e-01
-2.337996e-01
-2.396572e-01
0.000000e+00
-8.364031e-03
-1.705890e-02
-2.602958e-02
-3.514817e-02
-4.426118e-02
-5.323119e-02
-6.195800e-02
-7.037893e-02
-7.845938e-02
-8.618188e-02
-9.353764e-02
-1.005210e-01
-1.071262e-01
-1.133452e-01
-1.191667e-01
-1.245749e-01
-1.295491e-01
-1.340626e-01
-1.380821e-01
-1.415673e-01
-1.444709e-01
-1.467401e-01
-1.483214e-01
-1.491710e-01
-1.492764e-01
-1.486955e-01
-1.476205e-01
-1.464606e-01
-1.458983e-01
-1.467755e-01
-1.496902e-01
-1.544187e-01
0.000000e+00
-4.154414e-03
-8.465889e-03
-1.291226e-02
-1.743738e-02
-2.196976e-02
-2.644151e-02
-3.079952e-02
-3.500789e-02
-3.904470e-02
-4.289696e-02
-4.655608e-02
-5.001456e-02
-5.326383e-02
-5.629282e-02
-5.908698e-02
-6.162757e-02
-6.389113e-02
-6.584921e-02
-6.746845e-02
-6.871144e-02
-6.953881e-02
-6.991361e-02
-6.980936e-02
-6.922403e-02
-6.820227e-02
-6.686774e-02
-6.546160e-02
-6.437002e-02
-6.409658e-02
-6.512586e-02
-6.766855e-02
-7.142042e-02
0.000000e+00
-6.706511e-06
-1.454040e-05
-2.306755e-05
-3.183939e-05
-4.025109e-05
-4.739132e-05
-5.187589e-05
-5.165229e-05
-4.376403e-05
-2.406751e-05
1.310455e-05
7.533277e-05
1.725466e-04
3.174834e-04
5.261303e-04
8.180822e-04
1.216704e-03
1.748924e-03
2.444384e-03
3.333564e-03
4.444280e-03
5.795800e-03
7.389589e-03
9.195792e-03
1.113529e-02
1.305958e-02
1.473609e-02
1.585522e-02
1.608216e-02
1.516832e-02
1.309879e-02
1.020029e-02
0.000000e+00
4.141781e-03
8.438443e-03
1.286863e-02
1.737702e-02
2.189323e-02
2.635108e-02
3.070001e-02
3.490797e-02
3.895856e-02
4.284655e-02
4.657399e-02
5.014765e-02
5.357764e-02
5.687694e-02
6.006120e-02
6.314884e-02
6.616080e-02
6.912005e-02
7.205024e-02
7.497327e-02
7.790524e-02
8.085031e-02
8.379215e-02
8.668293e-02
8.943142e-02
9.189377e-02
9.387423e-02
9.514673e-02
9.550699e-02
9.485452e-02
9.328240e-02
9.113115e-02
0.000000e+00
8.353708e-03
1.703631e-02
2.599343e-02
3.509777e-02
4.419669e-02
5.315408e-02
6.187179e-02
7.029019e-02
7.837911e-02
8.612735e-02
9.353473e-02
1.006072e-01
1.073544e-01
1.137881e-01
1.199220e-01
1.257715e-01
1.313532e-01
1.366844e-01
1.417818e-01
1.466584e-01
1.513205e-01
1.557618e-01
1.599565e-01
1.638521e-01
1.673620e-01
1.703643e-01
1.727092e-01
1.742440e-01
1.748576e-01
1.745421e-01
1.734543e-01
1.719528e-01
0.000000e+00
1.270238e-02
2.594775e-02
3.961779e-02
5.347645e-02
6.726535e-02
8.077974e-02
9.388729e-02
1.065166e-01
1.186347e-01
1.302306e-01
1.413045e-01
1.518622e-01
1.619118e-01
1.714627e-01
1.805252e-01
1.891099e-01
1.972277e-01
2.048890e-01
2.121026e-01
2.188736e-01
2.252004e-01
2.310708e-01
2.364570e-01
2.413115e-01
2.455638e-01
2.491222e-01
2.518838e-01
2.537566e-01
2.546951e-01
2.547479e-01
2.541097e-01
2.531608e-01
0.000000e+00
1.729082e-02
3.540497e-02
5.409708e-02
7.294032e-02
9.155177e-02
1.096748e-01
1.271797e-01
1.440080e-01
1.601377e-01
1.755641e-01
1.902899e-01
2.043204e-01
2.176614e-01
2.303186e-01
2.422971e-01
2.536015e-01
2.642354e-01
2.742014e-01
2.835000e-01
2.921283e-01
3.000785e-01
3.073353e-01
3.138735e-01
3.196564e-01
3.246356e-01
3.287539e-01
3.319546e-01
3.341978e-01
3.354865e-01
3.359045e-01
3.356649e-01
3.351650e-01
0.000000e+00
2.228423e-02
4.579907e-02
6.995737e-02
9.405874e-02
1.175759e-01
1.403074e-01
1.621805e-01
1.831750e-01
2.032889e-01
2.225259e-01
2.408905e-01
2.583860e-01
2.750144e-01
2.907761e-01
3.056697e-01
3.196924e-01
3.328396e-01
3.451049e-01
3.564796e-01
3.669521e-01
3.765079e-01
3.851287e-01
3.927930e-01
3.994762e-01
4.051533e-01
4.098030e-01
4.134148e-01
4.159997e-01
4.176061e-01
4.183451e-01
4.184332e-01
4.182673e-01
0.000000e+00
2.809150e-02
5.783386e-02
8.811689e-02
1.175436e-01
1.458870e-01
1.731284e-01
1.992927e-01
2.244014e-01
2.484679e-01
2.714986e-01
2.934952e-01
3.144564e-01
3.343782e-01
3.532543e-01
3.710761e-01
3.878328e-01
4.035106e-01
4.180929e-01
4.315604e-01
4.438908e-01
4.550603e-01
4.650445e-01
4.738212e-01
4.813735e-01
4.876959e-01
4.927997e-01
4.967208e-01
4.995271e-01
5.013246e-01
5.022653e-01
5.025717e-01
5.026083e-01
0.000000e+00
3.541774e-02
7.369198e-02
1.097828e-01
1.440893e-01
1.769381e-01
2.085020e-01
2.388561e-01
2.680286e-01
2.960264e-01
3.228462e-01
3.484807e-01
3.729203e-01
3.961537e-01
4.181677e-01
4.389466e-01
4.584715e-01
4.767195e-01
4.936631e-01
5.092704e-01
5.235053e-01
5.363295e-01
5.477052e-01
5.575997e-01
5.659926e-01
5.728842e-01
5.783072e-01
5.823378e-01
5.851066e-01
5.868032e-01
5.876699e-01
5.879842e-01
5.880612e-01
0.000000e+00
5.281900e-02
9.584165e-02
1.357032e-01
1.739655e-01
2.109202e-01
2.466415e-01
2.811261e-01
3.143510e-01
3.462896e-01
3.769175e-01
4.062132e-01
4.341579e-01
4.607338e-01
4.859225e-01
5.097027e-01
5.320492e-01
5.529309e-01
5.723096e-01
5.901395e-01
6.063668e-01
6.209318e-01
6.337720e-01
6.448286e-01
6.540558e-01
6.614351e-01
6.669927e-01
6.708213e-01
6.731033e-01
6.741315e-01
6.743184e-01
6.741636e-01
6.740765e-01
0.000000e+00
-3.263088e-02
-5.694793e-02
-8.348372e-02
-1.130329e-01
-1.464116e-01
-1.838519e-01
-2.254188e-01
-2.710710e-01
-3.207104e-01
-3.742057e-01
-4.314054e-01
-4.921462e-01
-5.562584e-01
-6.235684e-01
-6.939016e-01
-7.670846e-01
-8.429467e-01
-9.213232e-01
-1.002059e+00
-1.085013e+00
-1.170068e+00
-1.257139e+00
-1.346192e+00
-1.437272e+00
-1.530548e+00
-1.626390e+00
-1.725522e+00
-1.829327e+00
-1.940546e+00
-2.065091e+00
-2.216911e+00
-2.426655e+00
0.000000e+00
-2.027885e-02
-4.573240e-02
-7.244718e-02
-1.024082e-01
-1.361496e-01
-1.739537e-01
-2.158844e-01
-2.619039e-01
-3.119144e-01
-3.657836e-01
-4.233588e-01
-4.844755e-01
-5.489622e-01
-6.166440e-01
-6.873445e-01
-7.608881e-01
-8.371015e-01
-9.158170e-01
-9.968754e-01
-1.080131e+00
-1.165460e+00
-1.252770e+00
-1.342018e+00
-1.433236e+00
-1.526577e+00
-1.622393e+00
-1.721384e+00
-1.824907e+00
-1.935654e+00
-2.059237e+00
-2.207678e+00
-2.403632e+00
0.000000e+00
-1.489599e-02
-3.686925e-02
-6.321960e-02
-9.323297e-02
-1.272230e-01
-1.653254e-01
-2.075757e-01
-2.539230e-01
-3.042648e-01
-3.584666e-01
-4.163745e-01
-4.778233e-01
-5.426409e-01
-6.106517e-01
-6.816786e-01
-7.555452e-01
-8.320773e-01
-9.111058e-01
-9.924704e-01
-1.076024e+00
-1.161643e+00
-1.249232e+00
-1.338752e+00
-1.430237e+00
-1.523850e+00
-1.619958e+00
-1.719279e+00
-1.823152e+00
-1.934004e+00
-2.055979e+00
-2.193977e+00
-2.347057e+00
0.000000e+00
-1.192808e-02
-3.122082e-02
-5.616603e-02
-8.579369e-02
-1.197731e-01
-1.580386e-01
-2.005255e-01
-2.471426e-01
-2.977683e-01
-3.522596e-01
-4.104590e-01
-4.721996e-01
-5.373092e-01
-6.056122e-01
-6.769321e-01
-7.510930e-01
-8.279213e-01
-9.072490e-01
-9.889170e-01
-1.072781e+00
-1.158717e+00
-1.246640e+00
-1.336512e+00
-1.428379e+00
-1.522412e+00
-1.618973e+00
-1.718724e+00
-1.822761e+00
-1.932682e+00
-2.050019e+00
-2.173772e+00
-2.288974e+00
0.000000e+00
-1.009312e-02
-2.752696e-02
-5.115718e-02
-8.010944e-02
-1.138661e-01
-1.521459e-01
-1.947710e-01
-2.415872e-01
-2.924415e-01
-3.471750e-01
-4.056228e-01
-4.676150e-01
-5.329789e-01
-6.015396e-01
-6.731218e-01
-7.475513e-01
-8.246566e-01
-9.042719e-01
-9.862408e-01
-1.070422e+00
-1.156696e+00
-1.244980e+00
-1.335240e+00
-1.427519e+00
-1.521964e+00
-1.618873e+00
-1.718722e+00
-1.822140e+00
-1.929636e+00
-2.040697e+00
-2.151245e+00
-2.251573e+00
0.000000e+00
-8.925526e-03
-2.510332e-02
-4.771030e-02
-7.601084e-02
-1.094513e-01
-1.476479e-01
-1.903275e-01
-2.372748e-01
-2.883005e-01
-3.432259e-01
-4.018763e-01
-4.640779e-01
-5.296570e-01
-5.984396e-01
-6.702522e-01
-7.449229e-01
-8.222826e-01
-9.021683e-01
-9.844260e-01
-1.068916e+00
-1.155521e+00
-1.244154e+00
-1.334772e+00
-1.427391e+00
-1.522101e+00
-1.619068e+00
-1.718502e+00
-1.820518e+00
-1.924771e+00
-2.029674e+00
-2.131478e+00
-2.224527e+00
0.000000e+00
-8.199877e-03
-2.357098e-02
-4.546976e-02
-7.326508e-02
-1.064174e-01
-1.445005e-01
-1.871854e-01
-2.342102e-01
-2.853545e-01
-3.404214e-01
-3.992266e-01
-4.615925e-01
-5.273445e-01
-5.963097e-01
-6.683165e-01
-7.431953e-01
-8.207794e-01
-9.009077e-01
-9.834270e-01
-1.068197e+00
-1.155095e+00
-1.244022e+00
-1.334912e+00
-1.427733e+00
-1.522487e+00
-1.619182e+00
-1.717763e+00
-1.817945e+00
-1.918914e+00
-2.018922e+00
-2.115086e+00
-2.203872e+00
0.000000e+00
-7.801123e-03
-2.272072e-02
-4.420717e-02
-7.169062e-02
-1.046501e-01
-1.426459e-01
-1.853214e-01
-2.323881e-01
-2.836057e-01
-3.387653e-01
-3.976761e-01
-4.601581e-01
-5.260366e-01
-5.951400e-01
-6.672987e-01
-7.423449e-01
-8.201137e-01
-9.004442e-01
-9.831819e-01
-1.068181e+00
-1.155308e+00
-1.244445e+00
-1.335489e+00
-1.428348e+00
-1.522927e+00
-1.619087e+00
-1.716565e+00
-1.814841e+00
-1.912949e+00
-2.009312e+00
-2.101763e+00
-2.187891e+00
0.000000e+00
-7.672645e-03
-2.244641e-02
-4.379795e-02
-7.117749e-02
-1.040717e-01
-1.420384e-01
-1.847132e-01
-2.317997e-01
-2.830516e-01
-3.382564e-01
-3.972221e-01
-4.597687e-01
-5.257230e-01
-5.949148e-01
-6.671763e-01
-7.423412e-01
-8.202449e-01
-9.007255e-01
-9.836241e-01
-1.068787e+00
-1.156064e+00
-1.245311e+00
-1.336384e+00
-1.429130e+00
-1.523362e+00
-1.618826e+00
-1.715129e+00
-1.811647e+00
-1.907430e+00
-2.001146e+00
-2.091139e+00
-2.175642e+00
0.000000e+00
-7.797405e-03
-2.271556e-02
-4.420273e-02
-7.168927e-02
-1.046548e-01
-1.426606e-01
-1.853512e-01
-2.324398e-01
-2.836884e-01
-3.388903e-01
-3.978581e-01
-4.604150e-01
-5.263899e-01
-5.956151e-01
-6.679240e-01
-7.431512e-01
-8.211314e-01
-9.017000e-01
-9.846921e-01
-1.069942e+00
-1.157283e+00
-1.246542e+00
-1.337532e+00
-1.430044e+00
-1.523820e+00
-1.618524e+00
-1.713696e+00
-1.808694e+00
-1.902654e+00
-1.994475e+00
-2.082878e+00
-2.166514e+00
0.000000e+00
-8.192743e-03
-2.356108e-02
-4.546119e-02
-7.326239e-02
-1.064262e-01
-1.445284e-01
-1.872422e-01
-2.343090e-01
-2.855126e-01
-3.406608e-01
-3.995753e-01
-4.620849e-01
-5.280221e-01
-5.972211e-01
-6.695168e-01
-7.447436e-01
-8.227350e-01
-9.033225e-01
-9.863342e-01
-1.071593e+00
-1.158912e+00
-1.248091e+00
-1.338907e+00
-1.431103e+00
-1.524369e+00
-1.618320e+00
-1.712468e+00
-1.806198e+00
-1.898753e+00
-1.989243e+00
-2.076682e+00
-2.160034e+00
0.000000e+00
-8.915609e-03
-2.508956e-02
-4.769833e-02
-7.600696e-02
-1.094634e-01
-1.476864e-01
-1.904063e-01
-2.374124e-01
-2.885208e-01
-3.435600e-01
-4.023633e-01
-4.647661e-01
-5.306046e-01
-5.997149e-01
-6.719327e-01
-7.470920e-01
-8.250244e-01
-9.055574e-01
-9.885119e-01
-1.073699e+00
-1.160916e+00
-1.249938e+00
-1.340512e+00
-1.432344e+00
-1.525089e+00
-1.618333e+00
-1.711588e+00
-1.804282e+00
-1.895766e+00
-1.985338e+00
-2.072263e+00
-2.155786e+00
0.000000e+00
-1.008144e-02
-2.751075e-02
-5.114307e-02
-8.010495e-02
-1.138808e-01
-1.521924e-01
-1.948661e-01
-2.417532e-01
-2.927077e-01
-3.475789e-01
-4.062116e-01
-4.684473e-01
-5.341252e-01
-6.030828e-01
-6.751560e-01
-7.501779e-01
-8.279784e-01
-9.083810e-01
-9.912005e-01
-1.076239e+00
-1.163278e+00
-1.252076e+00
-1.342357e+00
-1.433801e+00
-1.526041e+00
-1.618649e+00
-1.711145e+00
-1.803001e+00
-1.893670e+00
-1.982612e+00
-2.069328e+00
-2.153356e+00
0.000000e+00
-1.191607e-02
-3.120419e-02
-5.615170e-02
-8.578983e-02
-1.197904e-01
-1.580909e-01
-2.006317e-01
-2.473273e-01
-2.980637e-01
-3.527073e-01
-4.111110e-01
-4.731206e-01
-5.385768e-01
-6.073179e-01
-6.791792e-01
-7.539931e-01
-8.315876e-01
-9.117832e-01
-9.943900e-01
-1.079203e+00
-1.165994e+00
-1.254509e+00
-1.344456e+00
-1.435501e+00
-1.527262e+00
-1.619308e+00
-1.711169e+00
-1.802355e+00
-1.892398e+00
-1.980897e+00
-2.067576e+00
-2.152296e+00
0.000000e+00
-1.488552e-02
-3.685468e-02
-6.320749e-02
-9.323182e-02
-1.272439e-01
-1.653833e-01
-2.076899e-01
-2.541193e-01
-3.045765e-01
-3.589366e-01
-4.170566e-01
-4.787838e-01
-5.439595e-01
-6.124217e-01
-6.840053e-01
-7.585416e-01
-8.358568e-01
-9.157695e-01
-9.980863e-01
-1.082597e+00
-1.169070e+00
-1.257242e+00
-1.346815e+00
-1.437448e+00
-1.528752e+00
-1.620300e+00
-1.711630e+00
-1.802283e+00
-1.891841e+00
-1.980009e+00
-2.066696e+00
-2.152111e+00
0.000000e+00
-2.027213e-02
-4.572248e-02
-7.244006e-02
-1.024126e-01
-1.361769e-01
-1.740188e-01
-2.160069e-01
-2.621095e-01
-3.122361e-01
-3.662636e-01
-4.240499e-01
-4.854424e-01
-5.502821e-01
-6.184064e-01
-6.896493e-01
-7.638412e-01
-8.408068e-01
-9.203628e-01
-1.002314e+00
-1.086447e+00
-1.172529e+00
-1.260293e+00
-1.349440e+00
-1.439628e+00
-1.530473e+00
-1.621553e+00
-1.712420e+00
-1.802636e+00
-1.891815e+00
-1.979719e+00
-2.066378e+00
-2.152268e+00
0.000000e+00
-3.262992e-02
-5.694462e-02
-8.348434e-02
-1.130462e-01
-1.464492e-01
-1.839285e-01
-2.255539e-01
-2.712896e-01
-3.210448e-01
-3.746964e-01
-4.321027e-01
-4.931112e-01
-5.575628e-01
-6.252942e-01
-6.961385e-01
-7.699248e-01
-8.464760e-01
-9.256069e-01
-1.007120e+00
-1.090801e+00
-1.176414e+00
-1.263693e+00