TITLE = "Solution"
VARIABLES = x, y, u, v, psiu, psiv, t, stress
ZONE T="structure" N=561 E=512 F=FEBLOCK ET=QUADRILATERAL VARLOCATION=([7,8]=cellcentered)
0.000000e+00
6.250000e+00
1.250000e+01
1.875000e+01
2.500000e+01
3.125000e+01
3.750000e+01
4.375000e+01
5.000000e+01
5.625000e+01
6.250000e+01
6.875000e+01
7.500000e+01
8.125000e+01
8.750000e+01
9.375000e+01
1.000000e+02
1.062500e+02
1.125000e+02
1.187500e+02
1.250000e+02
1.312500e+02
1.375000e+02
1.437500e+02
1.500000e+02
1.562500e+02
1.625000e+02
1.687500e+02
1.750000e+02
1.812500e+02
1.875000e+02
1.937500e+02
2.000000e+02
0.000000e+00
6.250000e+00
1.250000e+01
1.875000e+01
2.500000e+01
3.125000e+01
3.750000e+01
4.375000e+01
5.000000e+01
5.625000e+01
6.250000e+01
6.875000e+01
7.500000e+01
8.125000e+01
8.750000e+01
9.375000e+01
1.000000e+02
1.062500e+02
1.125000e+02
1.187500e+02
1.250000e+02
1.312500e+02
1.375000e+02
1.437500e+02
1.500000e+02
1.562500e+02
1.625000e+02
1.687500e+02
1.750000e+02
1.812500e+02
1.875000e+02
1.937500e+02
2.000000e+02
0.000000e+00
6.250000e+00
1.250000e+01
1.875000e+01
2.500000e+01
3.125000e+01
3.750000e+01
4.375000e+01
5.000000e+01
5.625000e+01
6.250000e+01
6.875000e+01
7.500000e+01
8.125000e+01
8.750000e+01
9.375000e+01
1.000000e+02
1.062500e+02
1.125000e+02
1.187500e+02
1.250000e+02
1.312500e+02
1.375000e+02
1.437500e+02
1.500000e+02
1.562500e+02
1.625000e+02
1.687500e+02
1.750000e+02
1.812500e+02
1.875000e+02
1.937500e+02
2.000000e+02
0.000000e+00
6.250000e+00
1.250000e+01
1.875000e+01
2.500000e+01
3.125000e+01
3.750000e+01
4.375000e+01
5.000000e+01
5.625000e+01
6.250000e+01
6.875000e+01
7.500000e+01
8.125000e+01
8.750000e+01
9.375000e+01
1.000000e+02
1.062500e+02
1.125000e+02
1.187500e+02
1.250000e+02
1.312500e+02
1.375000e+02
1.437500e+02
1.500000e+02
1.562500e+02
1.625000e+02
1.687500e+02
1.750000e+02
1.812500e+02
1.875000e+02
1.937500e+02
2.000000e+02
0.000000e+00
6.250000e+00
1.250000e+01
1.875000e+01
2.500000e+01
3.125000e+01
3.750000e+01
4.375000e+01
5.000000e+01
5.625000e+01
6.250000e+01
6.875000e+01
7.500000e+01
8.125000e+01
8.750000e+01
9.375000e+01
1.000000e+02
1.062500e+02
1.125000e+02
1.187500e+02
1.250000e+02
1.312500e+02
1.375000e+02
1.437500e+02
1.500000e+02
1.562500e+02
1.625000e+02
1.687500e+02
1.750000e+02
1.812500e+02
1.875000e+02
1.937500e+02
2.000000e+02
0.000000e+00
6.250000e+00
1.250000e+01
1.875000e+01
2.500000e+01
3.125000e+01
3.750000e+01
4.375000e+01
5.000000e+01
5.625000e+01
6.250000e+01
6.875000e+01
7.500000e+01
8.125000e+01
8.750000e+01
9.375000e+01
1.000000e+02
1.062500e+02
1.125000e+02
1.187500e+02
1.250000e+02
1.312500e+02
1.375000e+02
1.437500e+02
1.500000e+02
1.562500e+02
1.625000e+02
1.687500e+02
1.750000e+02
1.812500e+02
1.875000e+02
1.937500e+02
2.000000e+02
0.000000e+00
6.250000e+00
1.250000e+01
1.875000e+01
2.500000e+01
3.125000e+01
3.750000e+01
4.375000e+01
5.000000e+01
5.625000e+01
6.250000e+01
6.875000e+01
7.500000e+01
8.125000e+01
8.750000e+01
9.375000e+01
1.000000e+02
1.062500e+02
1.125000e+02
1.187500e+02
1.250000e+02
1.312500e+02
1.375000e+02
1.437500e+02
1.500000e+02
1.562500e+02
1.625000e+02
1.687500e+02
1.750000e+02
1.812500e+02
1.875000e+02
1.937500e+02
2.000000e+02
0.000000e+00
6.250000e+00
1.250000e+01
1.875000e+01
2.500000e+01
3.125000e+01
3.750000e+01
4.375000e+01
5.000000e+01
5.625000e+01
6.250000e+01
6.875000e+01
7.500000e+01
8.125000e+01
8.750000e+01
9.375000e+01
1.000000e+02
1.062500e+02
1.125000e+02
1.187500e+02
1.250000e+02
1.312500e+02
1.375000e+02
1.437500e+02
1.500000e+02
1.562500e+02
1.625000e+02
1.687500e+02
1.750000e+02
1.812500e+02
1.875000e+02
1.937500e+02
2.000000e+02
0.000000e+00
6.250000e+00
1.250000e+01
1.875000e+01
2.500000e+01
3.125000e+01
3.750000e+01
4.375000e+01
5.000000e+01
5.625000e+01
6.250000e+01
6.875000e+01
7.500000e+01
8.125000e+01
8.750000e+01
9.375000e+01
1.000000e+02
1.062500e+02
1.125000e+02
1.187500e+02
1.250000e+02
1.312500e+02
1.375000e+02
1.437500e+02
1.500000e+02
1.562500e+02
1.625000e+02
1.687500e+02
1.750000e+02
1.812500e+02
1.875000e+02
1.937500e+02
2.000000e+02
0.000000e+00
6.250000e+00
1.250000e+01
1.875000e+01
2.500000e+01
3.125000e+01
3.750000e+01
4.375000e+01
5.000000e+01
5.625000e+01
6.250000e+01
6.875000e+01
7.500000e+01
8.125000e+01
8.750000e+01
9.375000e+01
1.000000e+02
1.062500e+02
1.125000e+02
1.187500e+02
1.250000e+02
1.312500e+02
1.375000e+02
1.437500e+02
1.500000e+02
1.562500e+02
1.625000e+02
1.687500e+02
1.750000e+02
1.812500e+02
1.875000e+02
1.937500e+02
2.000000e+02
0.000000e+00
6.250000e+00
1.250000e+01
1.875000e+01
2.500000e+01
3.125000e+01
3.750000e+01
4.375000e+01
5.000000e+01
5.625000e+01
6.250000e+01
6.875000e+01
7.500000e+01
8.125000e+01
8.750000e+01
9.375000e+01
1.000000e+02
1.062500e+02
1.125000e+02
1.187500e+02
1.250000e+02
1.312500e+02
1.375000e+02
1.437500e+02
1.500000e+02
1.562500e+02
1.625000e+02
1.687500e+02
1.750000e+02
1.812500e+02
1.875000e+02
1.937500e+02
2.000000e+02
0.000000e+00
6.250000e+00
1.250000e+01
1.875000e+01
2.500000e+01
3.125000e+01
3.750000e+01
4.375000e+01
5.000000e+01
5.625000e+01
6.250000e+01
6.875000e+01
7.500000e+01
8.125000e+01
8.750000e+01
9.375000e+01
1.000000e+02
1.062500e+02
1.125000e+02
1.187500e+02
1.250000e+02
1.312500e+02
1.375000e+02
1.437500e+02
1.500000e+02
1.562500e+02
1.625000e+02
1.687500e+02
1.750000e+02
1.812500e+02
1.875000e+02
1.937500e+02
2.000000e+02
0.000000e+00
6.250000e+00
1.250000e+01
1.875000e+01
2.500000e+01
3.125000e+01
3.750000e+01
4.375000e+01
5.000000e+01
5.625000e+01
6.250000e+01
6.875000e+01
7.500000e+01
8.125000e+01
8.750000e+01
9.375000e+01
1.000000e+02
1.062500e+02
1.125000e+02
1.187500e+02
1.250000e+02
1.312500e+02
1.375000e+02
1.437500e+02
1.500000e+02
1.562500e+02
1.625000e+02
1.687500e+02
1.750000e+02
1.812500e+02
1.875000e+02
1.937500e+02
2.000000e+02
0.000000e+00
6.250000e+00
1.250000e+01
1.875000e+01
2.500000e+01
3.125000e+01
3.750000e+01
4.375000e+01
5.000000e+01
5.625000e+01
6.250000e+01
6.875000e+01
7.500000e+01
8.125000e+01
8.750000e+01
9.375000e+01
1.000000e+02
1.062500e+02
1.125000e+02
1.187500e+02
1.250000e+02
1.312500e+02
1.375000e+02
1.437500e+02
1.500000e+02
1.562500e+02
1.625000e+02
1.687500e+02
1.750000e+02
1.812500e+02
1.875000e+02
1.937500e+02
2.000000e+02
0.000000e+00
6.250000e+00
1.250000e+01
1.875000e+01
2.500000e+01
3.125000e+01
3.750000e+01
4.375000e+01
5.000000e+01
5.625000e+01
6.250000e+01
6.875000e+01
7.500000e+01
8.125000e+01
8.750000e+01
9.375000e+01
1.000000e+02
1.062500e+02
1.125000e+02
1.187500e+02
1.250000e+02
1.312500e+02
1.375000e+02
1.437500e+02
1.500000e+02
1.562500e+02
1.625000e+02
1.687500e+02
1.750000e+02
1.812500e+02
1.875000e+02
1.937500e+02
2.000000e+02
0.000000e+00
6.250000e+00
1.250000e+01
1.875000e+01
2.500000e+01
3.125000e+01
3.750000e+01
4.375000e+01
5.000000e+01
5.625000e+01
6.250000e+01
6.875000e+01
7.500000e+01
8.125000e+01
8.750000e+01
9.375000e+01
1.000000e+02
1.062500e+02
1.125000e+02
1.187500e+02
1.250000e+02
1.312500e+02
1.375000e+02
1.437500e+02
1.500000e+02
1.562500e+02
1.625000e+02
1.687500e+02
1.750000e+02
1.812500e+02
1.875000e+02
1.937500e+02
2.000000e+02
0.000000e+00
6.250000e+00
1.250000e+01
1.875000e+01
2.500000e+01
3.125000e+01
3.750000e+01
4.375000e+01
5.000000e+01
5.625000e+01
6.250000e+01
6.875000e+01
7.500000e+01
8.125000e+01
8.750000e+01
9.375000e+01
1.000000e+02
1.062500e+02
1.125000e+02
1.187500e+02
1.250000e+02
1.312500e+02
1.375000e+02
1.437500e+02
1.500000e+02
1.562500e+02
1.625000e+02
1.687500e+02
1.750000e+02
1.812500e+02
1.875000e+02
1.937500e+02
2.000000e+02
0.000000e+00
0.000000e+00
0.000000e+00
0.000000e+00
0.000000e+00
0.000000e+00
0.000000e+00
0.000000e+00
0.000000e+00
0.000000e+00
0.000000e+00
0.000000e+00
0.000000e+00
0.000000e+00
0.000000e+00
0.000000e+00
0.000000e+00
0.000000e+00
0.000000e+00
0.000000e+00
0.000000e+00
0.000000e+00
0.000000e+00
0.000000e+00
0.000000e+00
0.000000e+00
0.000000e+00
0.000000e+00
0.000000e+00
0.000000e+00
0.000000e+00
0.000000e+00
0.000000e+00
6.250000e+00
6.250000e+00
6.250000e+00
6.250000e+00
6.250000e+00
6.250000e+00
6.250000e+00
6.250000e+00
6.250000e+00
6.250000e+00
6.250000e+00
6.250000e+00
6.250000e+00
6.250000e+00
6.250000e+00
6.250000e+00
6.250000e+00
6.250000e+00
6.250000e+00
6.250000e+00
6.250000e+00
6.250000e+00
6.250000e+00
6.250000e+00
6.250000e+00
6.250000e+00
6.250000e+00
6.250000e+00
6.250000e+00
6.250000e+00
6.250000e+00
6.250000e+00
6.250000e+00
1.250000e+01
1.250000e+01
1.250000e+01
1.250000e+01
1.250000e+01
1.250000e+01
1.250000e+01
1.250000e+01
1.250000e+01
1.250000e+01
1.250000e+01
1.250000e+01
1.250000e+01
1.250000e+01
1.250000e+01
1.250000e+01
1.250000e+01
1.250000e+01
1.250000e+01
1.250000e+01
1.250000e+01
1.250000e+01
1.250000e+01
1.250000e+01
1.250000e+01
1.250000e+01
1.250000e+01
1.250000e+01
1.250000e+01
1.250000e+01
1.250000e+01
1.250000e+01
1.250000e+01
1.875000e+01
1.875000e+01
1.875000e+01
1.875000e+01
1.875000e+01
1.875000e+01
1.875000e+01
1.875000e+01
1.875000e+01
1.875000e+01
1.875000e+01
1.875000e+01
1.875000e+01
1.875000e+01
1.875000e+01
1.875000e+01
1.875000e+01
1.875000e+01
1.875000e+01
1.875000e+01
1.875000e+01
1.875000e+01
1.875000e+01
1.875000e+01
1.875000e+01
1.875000e+01
1.875000e+01
1.875000e+01
1.875000e+01
1.875000e+01
1.875000e+01
1.875000e+01
1.875000e+01
2.500000e+01
2.500000e+01
2.500000e+01
2.500000e+01
2.500000e+01
2.500000e+01
2.500000e+01
2.500000e+01
2.500000e+01
2.500000e+01
2.500000e+01
2.500000e+01
2.500000e+01
2.500000e+01
2.500000e+01
2.500000e+01
2.500000e+01
2.500000e+01
2.500000e+01
2.500000e+01
2.500000e+01
2.500000e+01
2.500000e+01
2.500000e+01
2.500000e+01
2.500000e+01
2.500000e+01
2.500000e+01
2.500000e+01
2.500000e+01
2.500000e+01
2.500000e+01
2.500000e+01
3.125000e+01
3.125000e+01
3.125000e+01
3.125000e+01
3.125000e+01
3.125000e+01
3.125000e+01
3.125000e+01
3.125000e+01
3.125000e+01
3.125000e+01
3.125000e+01
3.125000e+01
3.125000e+01
3.125000e+01
3.125000e+01
3.125000e+01
3.125000e+01
3.125000e+01
3.125000e+01
3.125000e+01
3.125000e+01
3.125000e+01
3.125000e+01
3.125000e+01
3.125000e+01
3.125000e+01
3.125000e+01
3.125000e+01
3.125000e+01
3.125000e+01
3.125000e+01
3.125000e+01
3.750000e+01
3.750000e+01
3.750000e+01
3.750000e+01
3.750000e+01
3.750000e+01
3.750000e+01
3.750000e+01
3.750000e+01
3.750000e+01
3.750000e+01
3.750000e+01
3.750000e+01
3.750000e+01
3.750000e+01
3.750000e+01
3.750000e+01
3.750000e+01
3.750000e+01
3.750000e+01
3.750000e+01
3.750000e+01
3.750000e+01
3.750000e+01
3.750000e+01
3.750000e+01
3.750000e+01
3.750000e+01
3.750000e+01
3.750000e+01
3.750000e+01
3.750000e+01
3.750000e+01
4.375000e+01
4.375000e+01
4.375000e+01
4.375000e+01
4.375000e+01
4.375000e+01
4.375000e+01
4.375000e+01
4.375000e+01
4.375000e+01
4.375000e+01
4.375000e+01
4.375000e+01
4.375000e+01
4.375000e+01
4.375000e+01
4.375000e+01
4.375000e+01
4.375000e+01
4.375000e+01
4.375000e+01
4.375000e+01
4.375000e+01
4.375000e+01
4.375000e+01
4.375000e+01
4.375000e+01
4.375000e+01
4.375000e+01
4.375000e+01
4.375000e+01
4.375000e+01
4.375000e+01
5.000000e+01
5.000000e+01
5.000000e+01
5.000000e+01
5.000000e+01
5.000000e+01
5.000000e+01
5.000000e+01
5.000000e+01
5.000000e+01
5.000000e+01
5.000000e+01
5.000000e+01
5.000000e+01
5.000000e+01
5.000000e+01
5.000000e+01
5.000000e+01
5.000000e+01
5.000000e+01
5.000000e+01
5.000000e+01
5.000000e+01
5.000000e+01
5.000000e+01
5.000000e+01
5.000000e+01
5.000000e+01
5.000000e+01
5.000000e+01
5.000000e+01
5.000000e+01
5.000000e+01
5.625000e+01
5.625000e+01
5.625000e+01
5.625000e+01
5.625000e+01
5.625000e+01
5.625000e+01
5.625000e+01
5.625000e+01
5.625000e+01
5.625000e+01
5.625000e+01
5.625000e+01
5.625000e+01
5.625000e+01
5.625000e+01
5.625000e+01
5.625000e+01
5.625000e+01
5.625000e+01
5.625000e+01
5.625000e+01
5.625000e+01
5.625000e+01
5.625000e+01
5.625000e+01
5.625000e+01
5.625000e+01
5.625000e+01
5.625000e+01
5.625000e+01
5.625000e+01
5.625000e+01
6.250000e+01
6.250000e+01
6.250000e+01
6.250000e+01
6.250000e+01
6.250000e+01
6.250000e+01
6.250000e+01
6.250000e+01
6.250000e+01
6.250000e+01
6.250000e+01
6.250000e+01
6.250000e+01
6.250000e+01
6.250000e+01
6.250000e+01
6.250000e+01
6.250000e+01
6.250000e+01
6.250000e+01
6.250000e+01
6.250000e+01
6.250000e+01
6.250000e+01
6.250000e+01
6.250000e+01
6.250000e+01
6.250000e+01
6.250000e+01
6.250000e+01
6.250000e+01
6.250000e+01
6.875000e+01
6.875000e+01
6.875000e+01
6.875000e+01
6.875000e+01
6.875000e+01
6.875000e+01
6.875000e+01
6.875000e+01
6.875000e+01
6.875000e+01
6.875000e+01
6.875000e+01
6.875000e+01
6.875000e+01
6.875000e+01
6.875000e+01
6.875000e+01
6.875000e+01
6.875000e+01
6.875000e+01
6.875000e+01
6.875000e+01
6.875000e+01
6.875000e+01
6.875000e+01
6.875000e+01
6.875000e+01
6.875000e+01
6.875000e+01
6.875000e+01
6.875000e+01
6.875000e+01
7.500000e+01
7.500000e+01
7.500000e+01
7.500000e+01
7.500000e+01
7.500000e+01
7.500000e+01
7.500000e+01
7.500000e+01
7.500000e+01
7.500000e+01
7.500000e+01
7.500000e+01
7.500000e+01
7.500000e+01
7.500000e+01
7.500000e+01
7.500000e+01
7.500000e+01
7.500000e+01
7.500000e+01
7.500000e+01
7.500000e+01
7.500000e+01
7.500000e+01
7.500000e+01
7.500000e+01
7.500000e+01
7.500000e+01
7.500000e+01
7.500000e+01
7.500000e+01
7.500000e+01
8.125000e+01
8.125000e+01
8.125000e+01
8.125000e+01
8.125000e+01
8.125000e+01
8.125000e+01
8.125000e+01
8.125000e+01
8.125000e+01
8.125000e+01
8.125000e+01
8.125000e+01
8.125000e+01
8.125000e+01
8.125000e+01
8.125000e+01
8.125000e+01
8.125000e+01
8.125000e+01
8.125000e+01
8.125000e+01
8.125000e+01
8.125000e+01
8.125000e+01
8.125000e+01
8.125000e+01
8.125000e+01
8.125000e+01
8.125000e+01
8.125000e+01
8.125000e+01
8.125000e+01
8.750000e+01
8.750000e+01
8.750000e+01
8.750000e+01
8.750000e+01
8.750000e+01
8.750000e+01
8.750000e+01
8.750000e+01
8.750000e+01
8.750000e+01
8.750000e+01
8.750000e+01
8.750000e+01
8.750000e+01
8.750000e+01
8.750000e+01
8.750000e+01
8.750000e+01
8.750000e+01
8.750000e+01
8.750000e+01
8.750000e+01
8.750000e+01
8.750000e+01
8.750000e+01
8.750000e+01
8.750000e+01
8.750000e+01
8.750000e+01
8.750000e+01
8.750000e+01
8.750000e+01
9.375000e+01
9.375000e+01
9.375000e+01
9.375000e+01
9.375000e+01
9.375000e+01
9.375000e+01
9.375000e+01
9.375000e+01
9.375000e+01
9.375000e+01
9.375000e+01
9.375000e+01
9.375000e+01
9.375000e+01
9.375000e+01
9.375000e+01
9.375000e+01
9.375000e+01
9.375000e+01
9.375000e+01
9.375000e+01
9.375000e+01
9.375000e+01
9.375000e+01
9.375000e+01
9.375000e+01
9.375000e+01
9.375000e+01
9.375000e+01
9.375000e+01
9.375000e+01
9.375000e+01
1.000000e+02
1.000000e+02
1.000000e+02
1.000000e+02
1.000000e+02
1.000000e+02
1.000000e+02
1.000000e+02
1.000000e+02
1.000000e+02
1.000000e+02
1.000000e+02
1.000000e+02
1.000000e+02
1.000000e+02
1.000000e+02
1.000000e+02
1.000000e+02
1.000000e+02
1.000000e+02
1.000000e+02
1.000000e+02
1.000000e+02
1.000000e+02
1.000000e+02
1.000000e+02
1.000000e+02
1.000000e+02
1.000000e+02
1.000000e+02
1.000000e+02
1.000000e+02
1.000000e+02
0.000000e+00
-1.823828e-01
-3.308755e-01
-4.685010e-01
-6.007206e-01
-7.285108e-01
-8.520967e-01
-9.714482e-01
-1.086477e+00
-1.197088e+00
-1.303203e+00
-1.404766e+00
-1.501745e+00
-1.594130e+00
-1.681939e+00
-1.765212e+00
-1.844020e+00
-1.918466e+00
-1.988700e+00
-2.054919e+00
-2.117391e+00
-2.176472e+00
-2.232630e+00
-2.286488e+00
-2.338882e+00
-2.390947e+00
-2.444259e+00
-2.501066e+00
-2.564664e+00
-2.639899e+00
-2.733034e+00
-2.843941e+00
-2.911599e+00
0.000000e+00
-1.222339e-01
-2.543025e-01
-3.788878e-01
-4.974355e-01
-6.110431e-01
-7.202767e-01
-8.253790e-01
-9.264412e-01
-1.023487e+00
-1.116513e+00
-1.205513e+00
-1.290483e+00
-1.371432e+00
-1.448382e+00
-1.521370e+00
-1.590455e+00
-1.655720e+00
-1.717275e+00
-1.775265e+00
-1.829875e+00
-1.881341e+00
-1.929955e+00
-1.976075e+00
-2.020127e+00
-2.062606e+00
-2.104030e+00
-2.144827e+00
-2.184994e+00
-2.223220e+00
-2.255058e+00
-2.273659e+00
-2.299543e+00
0.000000e+00
-9.692800e-02
-1.995513e-01
-3.040988e-01
-4.057915e-01
-5.038276e-01
-5.981225e-01
-6.887488e-01
-7.757739e-01
-8.592424e-01
-9.391812e-01
-1.015608e+00
-1.088538e+00
-1.157987e+00
-1.223976e+00
-1.286534e+00
-1.345697e+00
-1.401516e+00
-1.454049e+00
-1.503370e+00
-1.549564e+00
-1.592724e+00
-1.632940e+00
-1.670284e+00
-1.704769e+00
-1.736285e+00
-1.764473e+00
-1.788503e+00
-1.806753e+00
-1.816589e+00
-1.815748e+00
-1.810257e+00
-1.840478e+00
0.000000e+00
-7.690427e-02
-1.580621e-01
-2.414885e-01
-3.247928e-01
-4.061472e-01
-4.848451e-01
-5.606259e-01
-6.334114e-01
-7.031897e-01
-7.699708e-01
-8.337706e-01
-8.946049e-01
-9.524883e-01
-1.007434e+00
-1.059454e+00
-1.108559e+00
-1.154761e+00
-1.198067e+00
-1.238477e+00
-1.275981e+00
-1.310543e+00
-1.342086e+00
-1.370463e+00
-1.395411e+00
-1.416491e+00
-1.433006e+00
-1.443948e+00
-1.448136e+00
-1.445053e+00
-1.437545e+00
-1.437101e+00
-1.465900e+00
0.000000e+00
-5.970117e-02
-1.222527e-01
-1.868323e-01
-2.519824e-01
-3.163808e-01
-3.791364e-01
-4.397934e-01
-4.981402e-01
-5.540907e-01
-6.076177e-01
-6.587186e-01
-7.073981e-01
-7.536605e-01
-7.975054e-01
-8.389260e-01
-8.779073e-01
-9.144238e-01
-9.484363e-01
-9.798865e-01
-1.008689e+00
-1.034720e+00
-1.057801e+00
-1.077678e+00
-1.094001e+00
-1.106306e+00
-1.114053e+00
-1.116777e+00
-1.114558e+00
-1.109114e+00
-1.105580e+00
-1.113733e+00
-1.138315e+00
0.000000e+00
-4.388650e-02
-8.965772e-02
-1.369169e-01
-1.848578e-01
-2.325889e-01
-2.794002e-01
-3.248274e-01
-3.686124e-01
-4.106269e-01
-4.508138e-01
-4.891503e-01
-5.256263e-01
-5.602319e-01
-5.929516e-01
-6.237598e-01
-6.526181e-01
-6.794723e-01
-7.042486e-01
-7.268491e-01
-7.471457e-01
-7.649732e-01
-7.801232e-01
-7.923410e-01
-8.013366e-01
-8.068276e-01
-8.086524e-01
-8.070228e-01
-8.029982e-01
-7.991654e-01
-8.000919e-01
-8.104902e-01
-8.308427e-01
0.000000e+00
-2.888742e-02
-5.892095e-02
-8.991706e-02
-1.214391e-01
-1.529595e-01
-1.840045e-01
-2.142269e-01
-2.434077e-01
-2.714242e-01
-2.982128e-01
-3.237399e-01
-3.479836e-01
-3.709213e-01
-3.925235e-01
-4.127493e-01
-4.315428e-01
-4.488306e-01
-4.645193e-01
-4.784926e-01
-4.906095e-01
-5.007052e-01
-5.085961e-01
-5.140959e-01
-5.170520e-01
-5.174204e-01
-5.154020e-01
-5.116642e-01
-5.076286e-01
-5.056683e-01
-5.087121e-01
-5.188404e-01
-5.352767e-01
0.000000e+00
-1.434998e-02
-2.924439e-02
-4.460930e-02
-6.025288e-02
-7.592963e-02
-9.140571e-02
-1.064973e-01
-1.210794e-01
-1.350748e-01
-1.484370e-01
-1.611346e-01
-1.731404e-01
-1.844234e-01
-1.949442e-01
-2.046515e-01
-2.134794e-01
-2.213460e-01
-2.281518e-01
-2.337806e-01
-2.381019e-01
-2.409786e-01
-2.422822e-01
-2.419202e-01
-2.398855e-01
-2.363328e-01
-2.316918e-01
-2.268004e-01
-2.230010e-01
-2.220452e-01
-2.256194e-01
-2.344579e-01
-2.475029e-01
0.000000e+00
-2.354314e-05
-5.099733e-05
-8.085254e-05
-1.115485e-04
-1.409817e-04
-1.659830e-04
-1.817376e-04
-1.811074e-04
-1.538146e-04
-8.545506e-05
4.367180e-05
2.599185e-04
5.978051e-04
1.101616e-03
1.826935e-03
2.841893e-03
4.227733e-03
6.078088e-03
8.496044e-03
1.158759e-02
1.544949e-02
2.014879e-02
2.569068e-02
3.197152e-02
3.871640e-02
4.540927e-02
5.124156e-02
5.513667e-02
5.592963e-02
5.275486e-02
4.555967e-02
3.548049e-02
0.000000e+00
1.430560e-02
2.914808e-02
4.445630e-02
6.004131e-02
7.566150e-02
9.108888e-02
1.061486e-01
1.207290e-01
1.347720e-01
1.482582e-01
1.611932e-01
1.735992e-01
1.855104e-01
1.969708e-01
2.080343e-01
2.187640e-01
2.292325e-01
2.395191e-01
2.497057e-01
2.598683e-01
2.700626e-01
2.803030e-01
2.905326e-01
3.005853e-01
3.101438e-01
3.187079e-01
3.255971e-01
3.300248e-01
3.312801e-01
3.290129e-01
3.235464e-01
3.160652e-01
0.000000e+00
2.885107e-02
5.884149e-02
8.979000e-02
1.212621e-01
1.527332e-01
1.837340e-01
2.139245e-01
2.430962e-01
2.711419e-01
2.980197e-01
3.237262e-01
3.482797e-01
3.717111e-01
3.940597e-01
4.153716e-01
4.356991e-01
4.550991e-01
4.736311e-01
4.913518e-01
5.083066e-01
5.245166e-01
5.399595e-01
5.545460e-01
5.680927e-01
5.802992e-01
5.907407e-01
5.988967e-01
6.042357e-01
6.063712e-01
6.052749e-01
6.014921e-01
5.962706e-01
0.000000e+00
4.386312e-02
8.960571e-02
1.368324e-01
1.847379e-01
2.324326e-01
2.792093e-01
3.246077e-01
3.683765e-01
4.103971e-01
4.506263e-01
4.890606e-01
5.257161e-01
5.606181e-01
5.937969e-01
6.252855e-01
6.551193e-01
6.833347e-01
7.099667e-01
7.350449e-01
7.585863e-01
7.805848e-01
8.009973e-01
8.197272e-01
8.366087e-01
8.513964e-01
8.637715e-01
8.733764e-01
8.798904e-01
8.831547e-01
8.833388e-01
8.811197e-01
8.778197e-01
0.000000e+00
5.969496e-02
1.222373e-01
1.868052e-01
2.519409e-01
3.163227e-01
3.790602e-01
4.396992e-01
4.980297e-01
5.539688e-01
6.074937e-01
6.586079e-01
7.073252e-01
7.536619e-01
7.976343e-01
8.392574e-01
8.785446e-01
9.155070e-01
9.501519e-01
9.824796e-01
1.012480e+00
1.040123e+00
1.065357e+00
1.088093e+00
1.108203e+00
1.125518e+00
1.139841e+00
1.150972e+00
1.158773e+00
1.163256e+00
1.164710e+00
1.163876e+00
1.162138e+00
0.000000e+00
7.691811e-02
1.580901e-01
2.415302e-01
3.248469e-01
4.062121e-01
4.849185e-01
5.607039e-01
6.334880e-01
7.032550e-01
7.700097e-01
8.337609e-01
8.945151e-01
9.522741e-01
1.007035e+00
1.058791e+00
1.107528e+00
1.153228e+00
1.195868e+00
1.235414e+00
1.271827e+00
1.305055e+00
1.335032e+00
1.361684e+00
1.384925e+00
1.404668e+00
1.420838e+00
1.433399e+00
1.442389e+00
1.447975e+00
1.450545e+00
1.450852e+00
1.450275e+00
0.000000e+00
9.696257e-02
1.996250e-01
3.042142e-01
4.059508e-01
5.040328e-01
5.983740e-01
6.890437e-01
7.761039e-01
8.595902e-01
9.395167e-01
1.015882e+00
1.088676e+00
1.157878e+00
1.223463e+00
1.285397e+00
1.343638e+00
1.398136e+00
1.448832e+00
1.495656e+00
1.538530e+00
1.577369e+00
1.612088e+00
1.642608e+00
1.668872e+00
1.690859e+00
1.708608e+00
1.722245e+00
1.732004e+00
1.738255e+00
1.741527e+00
1.742593e+00
1.742720e+00
0.000000e+00
1.222861e-01
2.544163e-01
3.790710e-01
4.976970e-01
6.113921e-01
7.207210e-01
8.259229e-01
9.270826e-01
1.024213e+00
1.117293e+00
1.206292e+00
1.291167e+00
1.371875e+00
1.448364e+00
1.520575e+00
1.588439e+00
1.651873e+00
1.710778e+00
1.765042e+00
1.814538e+00
1.859132e+00
1.898689e+00
1.933098e+00
1.962284e+00
1.986251e+00
2.005110e+00
2.019127e+00
2.028756e+00
2.034657e+00
2.037671e+00
2.038764e+00
2.039032e+00
0.000000e+00
1.824399e-01
3.310088e-01
4.687295e-01
6.010630e-01
7.289860e-01
8.527241e-01
9.722464e-01
1.087460e+00
1.198263e+00
1.304560e+00
1.406268e+00
1.503316e+00
1.595635e+00
1.683154e+00
1.765794e+00
1.843465e+00
1.916054e+00
1.983425e+00
2.045417e+00
2.101840e+00
2.152486e+00
2.197137e+00
2.235586e+00
2.267674e+00
2.293336e+00
2.312664e+00
2.325979e+00
2.333915e+00
2.337491e+00
2.338141e+00
2.337602e+00
2.337300e+00
0.000000e+00
-1.127162e-01
-1.967994e-01
-2.886315e-01
-3.909269e-01
-5.064855e-01
-6.361109e-01
-7.800348e-01
-9.381197e-01
-1.110032e+00
-1.295321e+00
-1.493466e+00
-1.703905e+00
-1.926051e+00
-2.159305e+00
-2.403062e+00
-2.656723e+00
-2.919695e+00
-3.191407e+00
-3.471320e+00
-3.758948e+00
-4.053878e+00
-4.355818e+00
-4.664651e+00
-4.980531e+00
-5.304045e+00
-5.636480e+00
-5.980348e+00
-6.340452e+00
-6.726296e+00
-7.158386e+00
-7.685095e+00
-8.412717e+00
0.000000e+00
-7.005583e-02
-1.580665e-01
-2.504860e-01
-3.541681e-01
-4.709525e-01
-6.018154e-01
-7.469816e-01
-9.063250e-01
-1.079511e+00
-1.266087e+00
-1.465526e+00
-1.677262e+00
-1.900703e+00
-2.135244e+00
-2.380274e+00
-2.635184e+00
-2.899375e+00
-3.172264e+00
-3.453298e+00
-3.741973e+00
-4.037856e+00
-4.340627e+00
-4.650137e+00
-4.966497e+00
-5.290238e+00
-5.622584e+00
-5.965967e+00
-6.325090e+00
-6.709304e+00
-7.138073e+00
-7.653068e+00
-8.332832e+00
0.000000e+00
-5.146912e-02
-1.274579e-01
-2.185999e-01
-3.224345e-01
-4.400531e-01
-5.719279e-01
-7.181838e-01
-8.786486e-01
-1.052972e+00
-1.240691e+00
-1.441277e+00
-1.654159e+00
-1.878743e+00
-2.114422e+00
-2.360583e+00
-2.616614e+00
-2.881910e+00
-3.155885e+00
-3.437983e+00
-3.727693e+00
-4.024581e+00
-4.328325e+00
-4.638778e+00
-4.956068e+00
-5.280755e+00
-5.614115e+00
-5.958643e+00
-6.318989e+00
-6.703574e+00
-7.126777e+00
-7.605549e+00
-8.136589e+00
0.000000e+00
-4.123434e-02
-1.079580e-01
-1.942326e-01
-2.967162e-01
-4.142782e-01
-5.466982e-01
-6.937574e-01
-8.551432e-01
-1.030439e+00
-1.219153e+00
-1.420742e+00
-1.634632e+00
-1.860225e+00
-2.096915e+00
-2.344090e+00
-2.601140e+00
-2.867464e+00
-3.142478e+00
-3.425629e+00
-3.716414e+00
-4.014409e+00
-4.319308e+00
-4.630988e+00
-4.949606e+00
-5.275750e+00
-5.610684e+00
-5.956706e+00
-6.317624e+00
-6.698990e+00
-7.106107e+00
-7.535468e+00
-7.935121e+00
0.000000e+00
-3.491578e-02
-9.521428e-02
-1.769373e-01
-2.770752e-01
-3.938526e-01
-5.263072e-01
-6.738299e-01
-8.358932e-01
-1.011971e+00
-1.201516e+00
-1.403960e+00
-1.618716e+00
-1.845188e+00
-2.082769e+00
-2.330852e+00
-2.588834e+00
-2.856118e+00
-3.132130e+00
-3.416326e+00
-3.708214e+00
-4.007382e+00
-4.313537e+00
-4.626565e+00
-4.946611e+00
-5.274190e+00
-5.610333e+00
-5.956696e+00
-6.315469e+00
-6.688417e+00
-7.073749e+00
-7.457282e+00
-7.805305e+00
0.000000e+00
-3.089567e-02
-8.685572e-02
-1.650402e-01
-2.629198e-01
-3.785947e-01
-5.107503e-01
-6.584506e-01
-8.209575e-01
-9.976199e-01
-1.187823e+00
-1.390963e+00
-1.606441e+00
-1.833655e+00
-2.072004e+00
-2.320885e+00
-2.579702e+00
-2.847869e+00
-3.124819e+00
-3.410018e+00
-3.702980e+00
-4.003296e+00
-4.310664e+00
-4.624935e+00
-4.946165e+00
-5.274664e+00
-5.611009e+00
-5.955932e+00
-6.309833e+00
-6.671518e+00
-7.035462e+00
-7.388630e+00
-7.711356e+00
0.000000e+00
-2.839636e-02
-8.157143e-02
-1.573087e-01
-2.534397e-01
-3.681134e-01
-4.998697e-01
-6.475807e-01
-8.103481e-01
-9.874146e-01
-1.178102e+00
-1.381775e+00
-1.597819e+00
-1.825630e+00
-2.064610e+00
-2.314163e+00
-2.573702e+00
-2.842647e+00
-3.120439e+00
-3.406546e+00
-3.700480e+00
-4.001813e+00
-4.310204e+00
-4.625420e+00
-4.947351e+00
-5.276002e+00
-5.611405e+00
-5.953365e+00
-6.300896e+00
-6.651165e+00
-6.998097e+00
-7.331660e+00
-7.639567e+00
0.000000e+00
-2.702254e-02
-7.863920e-02
-1.529523e-01
-2.480047e-01
-3.620096e-01
-4.934601e-01
-6.411342e-01
-8.040421e-01
-9.813585e-01
-1.172363e+00
-1.376399e+00
-1.592843e+00
-1.821092e+00
-2.060550e+00
-2.310630e+00
-2.570749e+00
-2.840335e+00
-3.118830e+00
-3.405695e+00
-3.700425e+00
-4.002557e+00
-4.311676e+00
-4.627426e+00
-4.949490e+00
-5.277534e+00
-5.611075e+00
-5.949202e+00
-6.290107e+00
-6.630431e+00
-6.964691e+00
-7.285345e+00
-7.584002e+00
0.000000e+00
-2.657980e-02
-7.769313e-02
-1.515404e-01
-2.462336e-01
-3.600123e-01
-4.913609e-01
-6.390314e-01
-8.020066e-01
-9.794403e-01
-1.170601e+00
-1.374826e+00
-1.591494e+00
-1.820005e+00
-2.059769e+00
-2.310206e+00
-2.570737e+00
-2.840792e+00
-3.119808e+00
-3.407233e+00
-3.702531e+00
-4.005184e+00
-4.314687e+00
-4.630540e+00
-4.952208e+00
-5.279048e+00
-5.610172e+00
-5.944212e+00
-6.279005e+00
-6.611245e+00
-6.936295e+00
-7.248399e+00
-7.541411e+00
0.000000e+00
-2.700964e-02
-7.862131e-02
-1.529369e-01
-2.480001e-01
-3.620261e-01
-4.935112e-01
-6.412378e-01
-8.042221e-01
-9.816459e-01
-1.172798e+00
-1.377032e+00
-1.593737e+00
-1.822320e+00
-2.062202e+00
-2.312804e+00
-2.573552e+00
-2.843873e+00
-3.123195e+00
-3.410945e+00
-3.706549e+00
-4.009423e+00
-4.318965e+00
-4.634531e+00
-4.955386e+00
-5.280640e+00
-5.609124e+00
-5.939234e+00
-6.268741e+00
-6.594637e+00
-6.913099e+00
-7.219673e+00
-7.509666e+00
0.000000e+00
-2.837160e-02
-8.153708e-02
-1.572790e-01
-2.534305e-01
-3.681443e-01
-4.999667e-01
-6.477783e-01
-8.106920e-01
-9.879644e-01
-1.178934e+00
-1.382987e+00
-1.599530e+00
-1.827985e+00
-2.067778e+00
-2.318336e+00
-2.579084e+00
-2.849445e+00
-3.128834e+00
-3.416653e+00
-3.712286e+00
-4.015084e+00
-4.324352e+00
-4.639313e+00
-4.959072e+00
-5.282552e+00
-5.608415e+00
-5.934965e+00
-6.260062e+00
-6.581074e+00
-6.894906e+00
-7.198125e+00
-7.487131e+00
0.000000e+00
-3.086123e-02
-8.680795e-02
-1.649987e-01
-2.629065e-01
-3.786371e-01
-5.108846e-01
-6.587251e-01
-8.214361e-01
-9.983864e-01
-1.188985e+00
-1.392656e+00
-1.608834e+00
-1.836950e+00
-2.076437e+00
-2.326727e+00
-2.587243e+00
-2.857400e+00
-3.136601e+00
-3.424222e+00
-3.719608e+00
-4.022051e+00
-4.330772e+00
-4.644891e+00
-4.963385e+00
-5.285054e+00
-5.608462e+00
-5.931907e+00
-6.253399e+00
-6.570687e+00
-6.881323e+00
-7.182755e+00
-7.472358e+00
0.000000e+00
-3.487517e-02
-9.515800e-02
-1.768884e-01
-2.770598e-01
-3.939039e-01
-5.264691e-01
-6.741610e-01
-8.364709e-01
-1.012897e+00
-1.202920e+00
-1.406007e+00
-1.621610e+00
-1.849173e+00
-2.088134e+00
-2.337923e+00
-2.597964e+00
-2.867665e+00
-3.146414e+00
-3.433568e+00
-3.728436e+00
-4.030263e+00
-4.338207e+00
-4.651307e+00
-4.968454e+00
-5.288365e+00
-5.609560e+00
-5.930364e+00
-6.248946e+00
-6.563396e+00
-6.871842e+00
-7.172550e+00
-7.463904e+00
0.000000e+00
-4.119255e-02
-1.079002e-01
-1.941828e-01
-2.967029e-01
-4.143383e-01
-5.468806e-01
-6.941269e-01
-8.557856e-01
-1.031467e+00
-1.220710e+00
-1.423009e+00
-1.637833e+00
-1.864631e+00
-2.102844e+00
-2.351901e+00
-2.611222e+00
-2.880209e+00
-3.158240e+00
-3.444655e+00
-3.738740e+00
-4.039705e+00
-4.346664e+00
-4.658605e+00
-4.974364e+00
-5.292612e+00
-5.611852e+00
-5.930448e+00
-6.246700e+00
-6.558975e+00
-6.865881e+00
-7.166457e+00
-7.460219e+00
0.000000e+00
-5.143261e-02
-1.274071e-01
-2.185577e-01
-3.224305e-01
-4.401261e-01
-5.721291e-01
-7.185810e-01
-8.793312e-01
-1.054056e+00
-1.242325e+00
-1.443648e+00
-1.657498e+00
-1.883327e+00
-2.120575e+00
-2.368671e+00
-2.627030e+00
-2.895048e+00
-3.172097e+00
-3.457505e+00
-3.750543e+00
-4.050401e+00
-4.356170e+00
-4.666810e+00
-4.981133e+00
-5.297795e+00
-5.615301e+00
-5.932054e+00
-6.246448e+00
-6.557039e+00
-6.862791e+00
-7.163394e+00
-7.459575e+00
0.000000e+00
-7.003225e-02
-1.580318e-01
-2.504610e-01
-3.541832e-01
-4.710473e-01
-6.020419e-01
-7.474078e-01
-9.070398e-01
-1.080630e+00
-1.267755e+00
-1.467929e+00
-1.680623e+00
-1.905291e+00
-2.141370e+00
-2.388285e+00
-2.645450e+00
-2.912256e+00
-3.188066e+00
-3.472203e+00
-3.763930e+00
-4.062427e+00
-4.366778e+00
-4.675936e+00
-4.988716e+00
-5.303780e+00
-5.619659e+00
-5.934802e+00
-6.247675e+00
-6.556948e+00
-6.861785e+00
-7.162288e+00
-7.460122e+00
0.000000e+00
-1.127125e-01
-1.967874e-01
-2.886331e-01
-3.909729e-01
-5.066156e-01
-6.363770e-01
-7.805042e-01
-9.388798e-01
-1.111195e+00
-1.297027e+00
-1.495890e+00
-1.707259e+00
-1.930585e+00
-2.165304e+00
-2.410838e+00
-2.666596e+00
-2.931964e+00
-3.206299e+00
-3.488915e+00
-3.779068e+00
-4.075938e+00
-4.378603e+00