TITLE = "Solution"
VARIABLES = x, y, u, v, psiu, psiv, t, stress
ZONE T="structure" N=561 E=512 F=FEBLOCK ET=QUADRILATERAL VARLOCATION=([7,8]=cellcentered)
0.000000e+00
6.250000e+00
1.250000e+01
1.875000e+01
2.500000e+01
3.125000e+01
3.750000e+01
4.375000e+01
5.000000e+01
5.625000e+01
6.250000e+01
6.875000e+01
7.500000e+01
8.125000e+01
8.750000e+01
9.375000e+01
1.000000e+02
1.062500e+02
1.125000e+02
1.187500e+02
1.250000e+02
1.312500e+02
1.375000e+02
1.437500e+02
1.500000e+02
1.562500e+02
1.625000e+02
1.687500e+02
1.750000e+02
1.812500e+02
1.875000e+02
1.937500e+02
2.000000e+02
0.000000e+00
6.250000e+00
1.250000e+01
1.875000e+01
2.500000e+01
3.125000e+01
3.750000e+01
4.375000e+01
5.000000e+01
5.625000e+01
6.250000e+01
6.875000e+01
7.500000e+01
8.125000e+01
8.750000e+01
9.375000e+01
1.000000e+02
1.062500e+02
1.125000e+02
1.187500e+02
1.250000e+02
1.312500e+02
1.375000e+02
1.437500e+02
1.500000e+02
1.562500e+02
1.625000e+02
1.687500e+02
1.750000e+02
1.812500e+02
1.875000e+02
1.937500e+02
2.000000e+02
0.000000e+00
6.250000e+00
1.250000e+01
1.875000e+01
2.500000e+01
3.125000e+01
3.750000e+01
4.375000e+01
5.000000e+01
5.625000e+01
6.250000e+01
6.875000e+01
7.500000e+01
8.125000e+01
8.750000e+01
9.375000e+01
1.000000e+02
1.062500e+02
1.125000e+02
1.187500e+02
1.250000e+02
1.312500e+02
1.375000e+02
1.437500e+02
1.500000e+02
1.562500e+02
1.625000e+02
1.687500e+02
1.750000e+02
1.812500e+02
1.875000e+02
1.937500e+02
2.000000e+02
0.000000e+00
6.250000e+00
1.250000e+01
1.875000e+01
2.500000e+01
3.125000e+01
3.750000e+01
4.375000e+01
5.000000e+01
5.625000e+01
6.250000e+01
6.875000e+01
7.500000e+01
8.125000e+01
8.750000e+01
9.375000e+01
1.000000e+02
1.062500e+02
1.125000e+02
1.187500e+02
1.250000e+02
1.312500e+02
1.375000e+02
1.437500e+02
1.500000e+02
1.562500e+02
1.625000e+02
1.687500e+02
1.750000e+02
1.812500e+02
1.875000e+02
1.937500e+02
2.000000e+02
0.000000e+00
6.250000e+00
1.250000e+01
1.875000e+01
2.500000e+01
3.125000e+01
3.750000e+01
4.375000e+01
5.000000e+01
5.625000e+01
6.250000e+01
6.875000e+01
7.500000e+01
8.125000e+01
8.750000e+01
9.375000e+01
1.000000e+02
1.062500e+02
1.125000e+02
1.187500e+02
1.250000e+02
1.312500e+02
1.375000e+02
1.437500e+02
1.500000e+02
1.562500e+02
1.625000e+02
1.687500e+02
1.750000e+02
1.812500e+02
1.875000e+02
1.937500e+02
2.000000e+02
0.000000e+00
6.250000e+00
1.250000e+01
1.875000e+01
2.500000e+01
3.125000e+01
3.750000e+01
4.375000e+01
5.000000e+01
5.625000e+01
6.250000e+01
6.875000e+01
7.500000e+01
8.125000e+01
8.750000e+01
9.375000e+01
1.000000e+02
1.062500e+02
1.125000e+02
1.187500e+02
1.250000e+02
1.312500e+02
1.375000e+02
1.437500e+02
1.500000e+02
1.562500e+02
1.625000e+02
1.687500e+02
1.750000e+02
1.812500e+02
1.875000e+02
1.937500e+02
2.000000e+02
0.000000e+00
6.250000e+00
1.250000e+01
1.875000e+01
2.500000e+01
3.125000e+01
3.750000e+01
4.375000e+01
5.000000e+01
5.625000e+01
6.250000e+01
6.875000e+01
7.500000e+01
8.125000e+01
8.750000e+01
9.375000e+01
1.000000e+02
1.062500e+02
1.125000e+02
1.187500e+02
1.250000e+02
1.312500e+02
1.375000e+02
1.437500e+02
1.500000e+02
1.562500e+02
1.625000e+02
1.687500e+02
1.750000e+02
1.812500e+02
1.875000e+02
1.937500e+02
2.000000e+02
0.000000e+00
6.250000e+00
1.250000e+01
1.875000e+01
2.500000e+01
3.125000e+01
3.750000e+01
4.375000e+01
5.000000e+01
5.625000e+01
6.250000e+01
6.875000e+01
7.500000e+01
8.125000e+01
8.750000e+01
9.375000e+01
1.000000e+02
1.062500e+02
1.125000e+02
1.187500e+02
1.250000e+02
1.312500e+02
1.375000e+02
1.437500e+02
1.500000e+02
1.562500e+02
1.625000e+02
1.687500e+02
1.750000e+02
1.812500e+02
1.875000e+02
1.937500e+02
2.000000e+02
0.000000e+00
6.250000e+00
1.250000e+01
1.875000e+01
2.500000e+01
3.125000e+01
3.750000e+01
4.375000e+01
5.000000e+01
5.625000e+01
6.250000e+01
6.875000e+01
7.500000e+01
8.125000e+01
8.750000e+01
9.375000e+01
1.000000e+02
1.062500e+02
1.125000e+02
1.187500e+02
1.250000e+02
1.312500e+02
1.375000e+02
1.437500e+02
1.500000e+02
1.562500e+02
1.625000e+02
1.687500e+02
1.750000e+02
1.812500e+02
1.875000e+02
1.937500e+02
2.000000e+02
0.000000e+00
6.250000e+00
1.250000e+01
1.875000e+01
2.500000e+01
3.125000e+01
3.750000e+01
4.375000e+01
5.000000e+01
5.625000e+01
6.250000e+01
6.875000e+01
7.500000e+01
8.125000e+01
8.750000e+01
9.375000e+01
1.000000e+02
1.062500e+02
1.125000e+02
1.187500e+02
1.250000e+02
1.312500e+02
1.375000e+02
1.437500e+02
1.500000e+02
1.562500e+02
1.625000e+02
1.687500e+02
1.750000e+02
1.812500e+02
1.875000e+02
1.937500e+02
2.000000e+02
0.000000e+00
6.250000e+00
1.250000e+01
1.875000e+01
2.500000e+01
3.125000e+01
3.750000e+01
4.375000e+01
5.000000e+01
5.625000e+01
6.250000e+01
6.875000e+01
7.500000e+01
8.125000e+01
8.750000e+01
9.375000e+01
1.000000e+02
1.062500e+02
1.125000e+02
1.187500e+02
1.250000e+02
1.312500e+02
1.375000e+02
1.437500e+02
1.500000e+02
1.562500e+02
1.625000e+02
1.687500e+02
1.750000e+02
1.812500e+02
1.875000e+02
1.937500e+02
2.000000e+02
0.000000e+00
6.250000e+00
1.250000e+01
1.875000e+01
2.500000e+01
3.125000e+01
3.750000e+01
4.375000e+01
5.000000e+01
5.625000e+01
6.250000e+01
6.875000e+01
7.500000e+01
8.125000e+01
8.750000e+01
9.375000e+01
1.000000e+02
1.062500e+02
1.125000e+02
1.187500e+02
1.250000e+02
1.312500e+02
1.375000e+02
1.437500e+02
1.500000e+02
1.562500e+02
1.625000e+02
1.687500e+02
1.750000e+02
1.812500e+02
1.875000e+02
1.937500e+02
2.000000e+02
0.000000e+00
6.250000e+00
1.250000e+01
1.875000e+01
2.500000e+01
3.125000e+01
3.750000e+01
4.375000e+01
5.000000e+01
5.625000e+01
6.250000e+01
6.875000e+01
7.500000e+01
8.125000e+01
8.750000e+01
9.375000e+01
1.000000e+02
1.062500e+02
1.125000e+02
1.187500e+02
1.250000e+02
1.312500e+02
1.375000e+02
1.437500e+02
1.500000e+02
1.562500e+02
1.625000e+02
1.687500e+02
1.750000e+02
1.812500e+02
1.875000e+02
1.937500e+02
2.000000e+02
0.000000e+00
6.250000e+00
1.250000e+01
1.875000e+01
2.500000e+01
3.125000e+01
3.750000e+01
4.375000e+01
5.000000e+01
5.625000e+01
6.250000e+01
6.875000e+01
7.500000e+01
8.125000e+01
8.750000e+01
9.375000e+01
1.000000e+02
1.062500e+02
1.125000e+02
1.187500e+02
1.250000e+02
1.312500e+02
1.375000e+02
1.437500e+02
1.500000e+02
1.562500e+02
1.625000e+02
1.687500e+02
1.750000e+02
1.812500e+02
1.875000e+02
1.937500e+02
2.000000e+02
0.000000e+00
6.250000e+00
1.250000e+01
1.875000e+01
2.500000e+01
3.125000e+01
3.750000e+01
4.375000e+01
5.000000e+01
5.625000e+01
6.250000e+01
6.875000e+01
7.500000e+01
8.125000e+01
8.750000e+01
9.375000e+01
1.000000e+02
1.062500e+02
1.125000e+02
1.187500e+02
1.250000e+02
1.312500e+02
1.375000e+02
1.437500e+02
1.500000e+02
1.562500e+02
1.625000e+02
1.687500e+02
1.750000e+02
1.812500e+02
1.875000e+02
1.937500e+02
2.000000e+02
0.000000e+00
6.250000e+00
1.250000e+01
1.875000e+01
2.500000e+01
3.125000e+01
3.750000e+01
4.375000e+01
5.000000e+01
5.625000e+01
6.250000e+01
6.875000e+01
7.500000e+01
8.125000e+01
8.750000e+01
9.375000e+01
1.000000e+02
1.062500e+02
1.125000e+02
1.187500e+02
1.250000e+02
1.312500e+02
1.375000e+02
1.437500e+02
1.500000e+02
1.562500e+02
1.625000e+02
1.687500e+02
1.750000e+02
1.812500e+02
1.875000e+02
1.937500e+02
2.000000e+02
0.000000e+00
6.250000e+00
1.250000e+01
1.875000e+01
2.500000e+01
3.125000e+01
3.750000e+01
4.375000e+01
5.000000e+01
5.625000e+01
6.250000e+01
6.875000e+01
7.500000e+01
8.125000e+01
8.750000e+01
9.375000e+01
1.000000e+02
1.062500e+02
1.125000e+02
1.187500e+02
1.250000e+02
1.312500e+02
1.375000e+02
1.437500e+02
1.500000e+02
1.562500e+02
1.625000e+02
1.687500e+02
1.750000e+02
1.812500e+02
1.875000e+02
1.937500e+02
2.000000e+02
0.000000e+00
0.000000e+00
0.000000e+00
0.000000e+00
0.000000e+00
0.000000e+00
0.000000e+00
0.000000e+00
0.000000e+00
0.000000e+00
0.000000e+00
0.000000e+00
0.000000e+00
0.000000e+00
0.000000e+00
0.000000e+00
0.000000e+00
0.000000e+00
0.000000e+00
0.000000e+00
0.000000e+00
0.000000e+00
0.000000e+00
0.000000e+00
0.000000e+00
0.000000e+00
0.000000e+00
0.000000e+00
0.000000e+00
0.000000e+00
0.000000e+00
0.000000e+00
0.000000e+00
6.250000e+00
6.250000e+00
6.250000e+00
6.250000e+00
6.250000e+00
6.250000e+00
6.250000e+00
6.250000e+00
6.250000e+00
6.250000e+00
6.250000e+00
6.250000e+00
6.250000e+00
6.250000e+00
6.250000e+00
6.250000e+00
6.250000e+00
6.250000e+00
6.250000e+00
6.250000e+00
6.250000e+00
6.250000e+00
6.250000e+00
6.250000e+00
6.250000e+00
6.250000e+00
6.250000e+00
6.250000e+00
6.250000e+00
6.250000e+00
6.250000e+00
6.250000e+00
6.250000e+00
1.250000e+01
1.250000e+01
1.250000e+01
1.250000e+01
1.250000e+01
1.250000e+01
1.250000e+01
1.250000e+01
1.250000e+01
1.250000e+01
1.250000e+01
1.250000e+01
1.250000e+01
1.250000e+01
1.250000e+01
1.250000e+01
1.250000e+01
1.250000e+01
1.250000e+01
1.250000e+01
1.250000e+01
1.250000e+01
1.250000e+01
1.250000e+01
1.250000e+01
1.250000e+01
1.250000e+01
1.250000e+01
1.250000e+01
1.250000e+01
1.250000e+01
1.250000e+01
1.250000e+01
1.875000e+01
1.875000e+01
1.875000e+01
1.875000e+01
1.875000e+01
1.875000e+01
1.875000e+01
1.875000e+01
1.875000e+01
1.875000e+01
1.875000e+01
1.875000e+01
1.875000e+01
1.875000e+01
1.875000e+01
1.875000e+01
1.875000e+01
1.875000e+01
1.875000e+01
1.875000e+01
1.875000e+01
1.875000e+01
1.875000e+01
1.875000e+01
1.875000e+01
1.875000e+01
1.875000e+01
1.875000e+01
1.875000e+01
1.875000e+01
1.875000e+01
1.875000e+01
1.875000e+01
2.500000e+01
2.500000e+01
2.500000e+01
2.500000e+01
2.500000e+01
2.500000e+01
2.500000e+01
2.500000e+01
2.500000e+01
2.500000e+01
2.500000e+01
2.500000e+01
2.500000e+01
2.500000e+01
2.500000e+01
2.500000e+01
2.500000e+01
2.500000e+01
2.500000e+01
2.500000e+01
2.500000e+01
2.500000e+01
2.500000e+01
2.500000e+01
2.500000e+01
2.500000e+01
2.500000e+01
2.500000e+01
2.500000e+01
2.500000e+01
2.500000e+01
2.500000e+01
2.500000e+01
3.125000e+01
3.125000e+01
3.125000e+01
3.125000e+01
3.125000e+01
3.125000e+01
3.125000e+01
3.125000e+01
3.125000e+01
3.125000e+01
3.125000e+01
3.125000e+01
3.125000e+01
3.125000e+01
3.125000e+01
3.125000e+01
3.125000e+01
3.125000e+01
3.125000e+01
3.125000e+01
3.125000e+01
3.125000e+01
3.125000e+01
3.125000e+01
3.125000e+01
3.125000e+01
3.125000e+01
3.125000e+01
3.125000e+01
3.125000e+01
3.125000e+01
3.125000e+01
3.125000e+01
3.750000e+01
3.750000e+01
3.750000e+01
3.750000e+01
3.750000e+01
3.750000e+01
3.750000e+01
3.750000e+01
3.750000e+01
3.750000e+01
3.750000e+01
3.750000e+01
3.750000e+01
3.750000e+01
3.750000e+01
3.750000e+01
3.750000e+01
3.750000e+01
3.750000e+01
3.750000e+01
3.750000e+01
3.750000e+01
3.750000e+01
3.750000e+01
3.750000e+01
3.750000e+01
3.750000e+01
3.750000e+01
3.750000e+01
3.750000e+01
3.750000e+01
3.750000e+01
3.750000e+01
4.375000e+01
4.375000e+01
4.375000e+01
4.375000e+01
4.375000e+01
4.375000e+01
4.375000e+01
4.375000e+01
4.375000e+01
4.375000e+01
4.375000e+01
4.375000e+01
4.375000e+01
4.375000e+01
4.375000e+01
4.375000e+01
4.375000e+01
4.375000e+01
4.375000e+01
4.375000e+01
4.375000e+01
4.375000e+01
4.375000e+01
4.375000e+01
4.375000e+01
4.375000e+01
4.375000e+01
4.375000e+01
4.375000e+01
4.375000e+01
4.375000e+01
4.375000e+01
4.375000e+01
5.000000e+01
5.000000e+01
5.000000e+01
5.000000e+01
5.000000e+01
5.000000e+01
5.000000e+01
5.000000e+01
5.000000e+01
5.000000e+01
5.000000e+01
5.000000e+01
5.000000e+01
5.000000e+01
5.000000e+01
5.000000e+01
5.000000e+01
5.000000e+01
5.000000e+01
5.000000e+01
5.000000e+01
5.000000e+01
5.000000e+01
5.000000e+01
5.000000e+01
5.000000e+01
5.000000e+01
5.000000e+01
5.000000e+01
5.000000e+01
5.000000e+01
5.000000e+01
5.000000e+01
5.625000e+01
5.625000e+01
5.625000e+01
5.625000e+01
5.625000e+01
5.625000e+01
5.625000e+01
5.625000e+01
5.625000e+01
5.625000e+01
5.625000e+01
5.625000e+01
5.625000e+01
5.625000e+01
5.625000e+01
5.625000e+01
5.625000e+01
5.625000e+01
5.625000e+01
5.625000e+01
5.625000e+01
5.625000e+01
5.625000e+01
5.625000e+01
5.625000e+01
5.625000e+01
5.625000e+01
5.625000e+01
5.625000e+01
5.625000e+01
5.625000e+01
5.625000e+01
5.625000e+01
6.250000e+01
6.250000e+01
6.250000e+01
6.250000e+01
6.250000e+01
6.250000e+01
6.250000e+01
6.250000e+01
6.250000e+01
6.250000e+01
6.250000e+01
6.250000e+01
6.250000e+01
6.250000e+01
6.250000e+01
6.250000e+01
6.250000e+01
6.250000e+01
6.250000e+01
6.250000e+01
6.250000e+01
6.250000e+01
6.250000e+01
6.250000e+01
6.250000e+01
6.250000e+01
6.250000e+01
6.250000e+01
6.250000e+01
6.250000e+01
6.250000e+01
6.250000e+01
6.250000e+01
6.875000e+01
6.875000e+01
6.875000e+01
6.875000e+01
6.875000e+01
6.875000e+01
6.875000e+01
6.875000e+01
6.875000e+01
6.875000e+01
6.875000e+01
6.875000e+01
6.875000e+01
6.875000e+01
6.875000e+01
6.875000e+01
6.875000e+01
6.875000e+01
6.875000e+01
6.875000e+01
6.875000e+01
6.875000e+01
6.875000e+01
6.875000e+01
6.875000e+01
6.875000e+01
6.875000e+01
6.875000e+01
6.875000e+01
6.875000e+01
6.875000e+01
6.875000e+01
6.875000e+01
7.500000e+01
7.500000e+01
7.500000e+01
7.500000e+01
7.500000e+01
7.500000e+01
7.500000e+01
7.500000e+01
7.500000e+01
7.500000e+01
7.500000e+01
7.500000e+01
7.500000e+01
7.500000e+01
7.500000e+01
7.500000e+01
7.500000e+01
7.500000e+01
7.500000e+01
7.500000e+01
7.500000e+01
7.500000e+01
7.500000e+01
7.500000e+01
7.500000e+01
7.500000e+01
7.500000e+01
7.500000e+01
7.500000e+01
7.500000e+01
7.500000e+01
7.500000e+01
7.500000e+01
8.125000e+01
8.125000e+01
8.125000e+01
8.125000e+01
8.125000e+01
8.125000e+01
8.125000e+01
8.125000e+01
8.125000e+01
8.125000e+01
8.125000e+01
8.125000e+01
8.125000e+01
8.125000e+01
8.125000e+01
8.125000e+01
8.125000e+01
8.125000e+01
8.125000e+01
8.125000e+01
8.125000e+01
8.125000e+01
8.125000e+01
8.125000e+01
8.125000e+01
8.125000e+01
8.125000e+01
8.125000e+01
8.125000e+01
8.125000e+01
8.125000e+01
8.125000e+01
8.125000e+01
8.750000e+01
8.750000e+01
8.750000e+01
8.750000e+01
8.750000e+01
8.750000e+01
8.750000e+01
8.750000e+01
8.750000e+01
8.750000e+01
8.750000e+01
8.750000e+01
8.750000e+01
8.750000e+01
8.750000e+01
8.750000e+01
8.750000e+01
8.750000e+01
8.750000e+01
8.750000e+01
8.750000e+01
8.750000e+01
8.750000e+01
8.750000e+01
8.750000e+01
8.750000e+01
8.750000e+01
8.750000e+01
8.750000e+01
8.750000e+01
8.750000e+01
8.750000e+01
8.750000e+01
9.375000e+01
9.375000e+01
9.375000e+01
9.375000e+01
9.375000e+01
9.375000e+01
9.375000e+01
9.375000e+01
9.375000e+01
9.375000e+01
9.375000e+01
9.375000e+01
9.375000e+01
9.375000e+01
9.375000e+01
9.375000e+01
9.375000e+01
9.375000e+01
9.375000e+01
9.375000e+01
9.375000e+01
9.375000e+01
9.375000e+01
9.375000e+01
9.375000e+01
9.375000e+01
9.375000e+01
9.375000e+01
9.375000e+01
9.375000e+01
9.375000e+01
9.375000e+01
9.375000e+01
1.000000e+02
1.000000e+02
1.000000e+02
1.000000e+02
1.000000e+02
1.000000e+02
1.000000e+02
1.000000e+02
1.000000e+02
1.000000e+02
1.000000e+02
1.000000e+02
1.000000e+02
1.000000e+02
1.000000e+02
1.000000e+02
1.000000e+02
1.000000e+02
1.000000e+02
1.000000e+02
1.000000e+02
1.000000e+02
1.000000e+02
1.000000e+02
1.000000e+02
1.000000e+02
1.000000e+02
1.000000e+02
1.000000e+02
1.000000e+02
1.000000e+02
1.000000e+02
1.000000e+02
0.000000e+00
-4.321284e-01
-7.412617e-01
-1.065331e+00
-1.374303e+00
-1.672555e+00
-1.981235e+00
-2.280084e+00
-2.579325e+00
-2.881157e+00
-3.179572e+00
-3.479357e+00
-3.779041e+00
-4.077488e+00
-4.376741e+00
-4.675438e+00
-4.973842e+00
-5.272557e+00
-5.570922e+00
-5.869449e+00
-6.168228e+00
-6.467015e+00
-6.766841e+00
-7.067974e+00
-7.370736e+00
-7.679174e+00
-7.994691e+00
-8.315778e+00
-8.654574e+00
-9.034425e+00
-9.474045e+00
-9.880648e+00
-1.008837e+01
0.000000e+00
-2.353926e-01
-4.820610e-01
-7.455245e-01
-1.012690e+00
-1.266811e+00
-1.534305e+00
-1.795296e+00
-2.055972e+00
-2.320102e+00
-2.580705e+00
-2.842835e+00
-3.104871e+00
-3.365787e+00
-3.627480e+00
-3.888590e+00
-4.149388e+00
-4.410333e+00
-4.670778e+00
-4.931128e+00
-5.191387e+00
-5.451208e+00
-5.711273e+00
-5.971243e+00
-6.230461e+00
-6.490798e+00
-6.751210e+00
-7.007842e+00
-7.265169e+00
-7.525170e+00
-7.743622e+00
-7.833433e+00
-7.937778e+00
0.000000e+00
-1.360960e-01
-2.968943e-01
-4.966442e-01
-7.085809e-01
-9.149533e-01
-1.137878e+00
-1.358193e+00
-1.579738e+00
-1.804888e+00
-2.027816e+00
-2.252547e+00
-2.477582e+00
-2.702078e+00
-2.927428e+00
-3.152508e+00
-3.377458e+00
-3.602521e+00
-3.827088e+00
-4.051303e+00
-4.274961e+00
-4.497484e+00
-4.718748e+00
-4.937668e+00
-5.152419e+00
-5.361829e+00
-5.562702e+00
-5.749677e+00
-5.918017e+00
-6.054413e+00
-6.117337e+00
-6.118190e+00
-6.210111e+00
0.000000e+00
-1.025553e-01
-2.046911e-01
-3.478452e-01
-4.891249e-01
-6.494621e-01
-8.242731e-01
-1.000707e+00
-1.182605e+00
-1.367627e+00
-1.553160e+00
-1.740975e+00
-1.929748e+00
-2.118829e+00
-2.308926e+00
-2.499116e+00
-2.689323e+00
-2.879477e+00
-3.068910e+00
-3.257339e+00
-3.444142e+00
-3.628265e+00
-3.808570e+00
-3.983216e+00
-4.149479e+00
-4.304363e+00
-4.443699e+00
-4.561471e+00
-4.649801e+00
-4.697051e+00
-4.698507e+00
-4.707554e+00
-4.788588e+00
0.000000e+00
-8.974068e-02
-1.784908e-01
-2.762540e-01
-3.862911e-01
-5.078122e-01
-6.394489e-01
-7.759256e-01
-9.185813e-01
-1.063738e+00
-1.210809e+00
-1.359976e+00
-1.509593e+00
-1.660032e+00
-1.810796e+00
-1.961375e+00
-2.111680e+00
-2.261152e+00
-2.409278e+00
-2.555413e+00
-2.698589e+00
-2.837529e+00
-2.970592e+00
-3.095646e+00
-3.209982e+00
-3.310345e+00
-3.392751e+00
-3.452361e+00
-3.484564e+00
-3.488591e+00
-3.477536e+00
-3.504731e+00
-3.582458e+00
0.000000e+00
-7.131684e-02
-1.414771e-01
-2.152554e-01
-2.966379e-01
-3.850174e-01
-4.798904e-01
-5.805224e-01
-6.846442e-01
-7.917767e-01
-9.007233e-01
-1.010703e+00
-1.121488e+00
-1.232467e+00
-1.343372e+00
-1.453879e+00
-1.563534e+00
-1.671901e+00
-1.778352e+00
-1.882056e+00
-1.981941e+00
-2.076589e+00
-2.164228e+00
-2.242774e+00
-2.309841e+00
-2.362815e+00
-2.398958e+00
-2.415861e+00
-2.413473e+00
-2.396819e+00
-2.389857e+00
-2.422067e+00
-2.495213e+00
0.000000e+00
-4.900884e-02
-9.767493e-02
-1.479860e-01
-2.018187e-01
-2.598865e-01
-3.220426e-01
-3.876632e-01
-4.559957e-01
-5.261632e-01
-5.975402e-01
-6.695649e-01
-7.417994e-01
-8.139113e-01
-8.855499e-01
-9.563815e-01
-1.026015e+00
-1.093962e+00
-1.159606e+00
-1.222130e+00
-1.280467e+00
-1.333256e+00
-1.378842e+00
-1.415367e+00
-1.440914e+00
-1.453716e+00
-1.452430e+00
-1.436853e+00
-1.409905e+00
-1.381318e+00
-1.373747e+00
-1.407414e+00
-1.479195e+00
0.000000e+00
-2.530299e-02
-5.051082e-02
-7.632753e-02
-1.035411e-01
-1.325679e-01
-1.634137e-01
-1.958184e-01
-2.293652e-01
-2.636318e-01
-2.982079e-01
-3.327497e-01
-3.669594e-01
-4.005615e-01
-4.332878e-01
-4.648419e-01
-4.948801e-01
-5.229830e-01
-5.486190e-01
-5.711007e-01
-5.895340e-01
-6.027779e-01
-6.094468e-01
-6.080159e-01
-5.970236e-01
-5.753080e-01
-5.425081e-01
-5.005407e-01
-4.559012e-01
-4.203434e-01
-4.139070e-01
-4.489861e-01
-5.204211e-01
0.000000e+00
-9.938801e-04
-1.935919e-03
-2.785376e-03
-3.493088e-03
-3.998183e-03
-4.228178e-03
-4.098592e-03
-3.514460e-03
-2.371080e-03
-5.541756e-04
2.060803e-03
5.611579e-03
1.025396e-02
1.616952e-02
2.357451e-02
3.272878e-02
4.394550e-02
5.760843e-02
7.420104e-02
9.434036e-02
1.188159e-01
1.486115e-01
1.848187e-01
2.284194e-01
2.799044e-01
3.382577e-01
3.990486e-01
4.533721e-01
4.889088e-01
4.918691e-01
4.556420e-01
3.877014e-01
0.000000e+00
2.334856e-02
4.670187e-02
7.084354e-02
9.666230e-02
1.246938e-01
1.550903e-01
1.877594e-01
2.224724e-01
2.590146e-01
2.972003e-01
3.369294e-01
3.781696e-01
4.209421e-01
4.653203e-01
5.114151e-01
5.593772e-01
6.093918e-01
6.616816e-01
7.165220e-01
7.742378e-01
8.352078e-01
8.998820e-01
9.686789e-01
1.041699e+00
1.118109e+00
1.194978e+00
1.266207e+00
1.322727e+00
1.354426e+00
1.353626e+00
1.319723e+00
1.262593e+00
0.000000e+00
4.715051e-02
9.403877e-02
1.427436e-01
1.952316e-01
2.523439e-01
3.140745e-01
3.799718e-01
4.494695e-01
5.218930e-01
5.968417e-01
6.739855e-01
7.531330e-01
8.342096e-01
9.171410e-01
1.001912e+00
1.088520e+00
1.176968e+00
1.267306e+00
1.359625e+00
1.453993e+00
1.550377e+00
1.648544e+00
1.747816e+00
1.846896e+00
1.943497e+00
2.033345e+00
2.109925e+00
2.166040e+00
2.195532e+00
2.195407e+00
2.168837e+00
2.126671e+00
0.000000e+00
6.959621e-02
1.380924e-01
2.103287e-01
2.904482e-01
3.778770e-01
4.723253e-01
5.732126e-01
6.784344e-01
7.877610e-01
9.002024e-01
1.015233e+00
1.132872e+00
1.252733e+00
1.374756e+00
1.498781e+00
1.624525e+00
1.751750e+00
1.880174e+00
2.009582e+00
2.139649e+00
2.269769e+00
2.399070e+00
2.525977e+00
2.647998e+00
2.761767e+00
2.862590e+00
2.944870e+00
3.003672e+00
3.035936e+00
3.041494e+00
3.025006e+00
2.997582e+00
0.000000e+00
8.819853e-02
1.753221e-01
2.717138e-01
3.803698e-01
5.009453e-01
6.320304e-01
7.684870e-01
9.119752e-01
1.058905e+00
1.209036e+00
1.362801e+00
1.518845e+00
1.677838e+00
1.839429e+00
2.003197e+00
2.168928e+00
2.335788e+00
2.503086e+00
2.670089e+00
2.835586e+00
2.998324e+00
3.157234e+00
3.310484e+00
3.454848e+00
3.586091e+00
3.699549e+00
3.790810e+00
3.856752e+00
3.896045e+00
3.909913e+00
3.903775e+00
3.889086e+00
0.000000e+00
1.011649e-01
2.022228e-01
3.438417e-01
4.839467e-01
6.430742e-01
8.169787e-01
9.928746e-01
1.174668e+00
1.360353e+00
1.547451e+00
1.738093e+00
1.931297e+00
2.126764e+00
2.325507e+00
2.526713e+00
2.730097e+00
2.934955e+00
3.140047e+00
3.344219e+00
3.545494e+00
3.742200e+00
3.933353e+00
4.116390e+00
4.286409e+00
4.437983e+00
4.566534e+00
4.668892e+00
4.743597e+00
4.790887e+00
4.813106e+00
4.816010e+00
4.811031e+00
0.000000e+00
1.357248e-01
2.960935e-01
4.951518e-01
7.060267e-01
9.114990e-01
1.133510e+00
1.352979e+00
1.573869e+00
1.798569e+00
2.021381e+00
2.246492e+00
2.472595e+00
2.699086e+00
2.927597e+00
3.157220e+00
3.388025e+00
3.619849e+00
3.851772e+00
4.083013e+00
4.311789e+00
4.537193e+00
4.758960e+00
4.972819e+00
5.170075e+00
5.342571e+00
5.485510e+00
5.597175e+00
5.678100e+00
5.730497e+00
5.758190e+00
5.767270e+00
5.768258e+00
0.000000e+00
2.353288e-01
4.820112e-01
7.454020e-01
1.012398e+00
1.266381e+00
1.533673e+00
1.794390e+00
2.054787e+00
2.318525e+00
2.578624e+00
2.840144e+00
3.101381e+00
3.361283e+00
3.621678e+00
3.881168e+00
4.139896e+00
4.398102e+00
4.655204e+00
4.911146e+00
5.165115e+00
5.417461e+00
5.668548e+00
5.911731e+00
6.133766e+00
6.323641e+00
6.476329e+00
6.591346e+00
6.671182e+00
6.720570e+00
6.746040e+00
6.755359e+00
6.757619e+00
0.000000e+00
4.322614e-01
7.419329e-01
1.066453e+00
1.376258e+00
1.675327e+00
1.984755e+00
2.284351e+00
2.584197e+00
2.886468e+00
3.185006e+00
3.484514e+00
3.783255e+00
4.079830e+00
4.375979e+00
4.670022e+00
4.962028e+00
5.252468e+00
5.541023e+00
5.828188e+00
6.114117e+00
6.399832e+00
6.684346e+00
6.957180e+00
7.201057e+00
7.403383e+00
7.559008e+00
7.667897e+00
7.733810e+00
7.764162e+00
7.770163e+00
7.765955e+00
7.763477e+00
0.000000e+00
-2.597065e-01
-5.257335e-01
-8.597671e-01
-1.230919e+00
-1.643019e+00
-2.097970e+00
-2.587974e+00
-3.117129e+00
-3.683708e+00
-4.287159e+00
-4.929105e+00
-5.608383e+00
-6.325499e+00
-7.080720e+00
-7.873673e+00
-8.704793e+00
-9.574130e+00
-1.048175e+01
-1.142806e+01
-1.241318e+01
-1.343751e+01
-1.450165e+01
-1.560611e+01
-1.675251e+01
-1.794386e+01
-1.918361e+01
-2.047883e+01
-2.184200e+01
-2.328701e+01
-2.483807e+01
-2.665741e+01
-2.920993e+01
0.000000e+00
-1.638830e-01
-4.454502e-01
-7.729483e-01
-1.147944e+00
-1.558835e+00
-2.013303e+00
-2.504595e+00
-3.032924e+00
-3.599679e+00
-4.203362e+00
-4.845043e+00
-5.524556e+00
-6.241682e+00
-6.996872e+00
-7.789972e+00
-8.621088e+00
-9.490475e+00
-1.039817e+01
-1.134447e+01
-1.232966e+01
-1.335396e+01
-1.441797e+01
-1.552243e+01
-1.666840e+01
-1.785881e+01
-1.909823e+01
-2.039245e+01
-2.175233e+01
-2.319620e+01
-2.476662e+01
-2.656583e+01
-2.884038e+01
0.000000e+00
-1.343166e-01
-3.871020e-01
-7.117209e-01
-1.081667e+00
-1.490479e+00
-1.943467e+00
-2.433997e+00
-2.961620e+00
-3.528141e+00
-4.131594e+00
-4.773061e+00
-5.452599e+00
-6.169616e+00
-6.924831e+00
-7.718006e+00
-8.549175e+00
-9.418724e+00
-1.032660e+01
-1.127313e+01
-1.225867e+01
-1.328338e+01
-1.434802e+01
-1.545349e+01
-1.660074e+01
-1.779294e+01
-1.903500e+01
-2.033262e+01
-2.169872e+01
-2.316389e+01
-2.476409e+01
-2.645853e+01
-2.822921e+01
0.000000e+00
-1.502387e-01
-3.730202e-01
-6.861308e-01
-1.040823e+00
-1.443466e+00
-1.892516e+00
-2.379129e+00
-2.905336e+00
-3.470563e+00
-4.072983e+00
-4.714057e+00
-5.393151e+00
-6.109965e+00
-6.865165e+00
-7.658377e+00
-8.489772e+00
-9.359687e+00
-1.026810e+01
-1.121538e+01
-1.220196e+01
-1.322810e+01
-1.429465e+01
-1.540269e+01
-1.655340e+01
-1.774995e+01
-1.899707e+01
-2.030118e+01
-2.167713e+01
-2.315619e+01
-2.474582e+01
-2.630439e+01
-2.772617e+01
0.000000e+00
-1.693193e-01
-3.916148e-01
-6.851744e-01
-1.029197e+00
-1.421170e+00
-1.862335e+00
-2.343094e+00
-2.865954e+00
-3.428481e+00
-4.029221e+00
-4.669384e+00
-5.347687e+00
-6.064331e+00
-6.819515e+00
-7.612947e+00
-8.444908e+00
-9.315572e+00
-1.022510e+01
-1.117388e+01
-1.216238e+01
-1.319106e+01
-1.426074e+01
-1.537249e+01
-1.652777e+01
-1.772938e+01
-1.898152e+01
-2.029013e+01
-2.166724e+01
-2.313271e+01
-2.466566e+01
-2.610052e+01
-2.735660e+01
0.000000e+00
-1.776196e-01
-4.051537e-01
-6.888079e-01
-1.024969e+00
-1.410223e+00
-1.843035e+00
-2.319650e+00
-2.838454e+00
-3.398347e+00
-3.997871e+00
-4.636864e+00
-5.314849e+00
-6.031519e+00
-6.786948e+00
-7.581045e+00
-8.413929e+00
-9.285837e+00
-1.019703e+01
-1.114795e+01
-1.213910e+01
-1.317107e+01
-1.424457e+01
-1.536047e+01
-1.652005e+01
-1.772550e+01
-1.897994e+01
-2.028666e+01
-2.165026e+01
-2.307890e+01
-2.452601e+01
-2.587291e+01
-2.703737e+01
0.000000e+00
-1.815871e-01
-4.113109e-01
-6.919293e-01
-1.023343e+00
-1.403959e+00
-1.831805e+00
-2.304736e+00
-2.820887e+00
-3.378786e+00
-3.977348e+00
-4.615819e+00
-5.293723e+00
-6.010760e+00
-6.766795e+00
-7.561823e+00
-8.395949e+00
-9.269407e+00
-1.018256e+01
-1.113588e+01
-1.212996e+01
-1.316540e+01
-1.424272e+01
-1.536240e+01
-1.652503e+01
-1.773178e+01
-1.898412e+01
-2.028140e+01
-2.162034e+01
-2.299848e+01
-2.436675e+01
-2.564109e+01
-2.674164e+01
0.000000e+00
-1.832993e-01
-4.139738e-01
-6.937127e-01
-1.022970e+00
-1.401000e+00
-1.826332e+00
-2.297195e+00
-2.811869e+00
-3.368878e+00
-3.967058e+00
-4.605574e+00
-5.283855e+00
-6.001555e+00
-6.758505e+00
-7.554684e+00
-8.390203e+00
-9.265312e+00
-1.018041e+01
-1.113603e+01
-1.213279e+01
-1.317128e+01
-1.425180e+01
-1.537422e+01
-1.653807e+01
-1.774308e+01
-1.898853e+01
-2.027016e+01
-2.157855e+01
-2.290453e+01
-2.420273e+01
-2.540952e+01
-2.645264e+01
0.000000e+00
-1.837973e-01
-4.148243e-01
-6.944766e-01
-1.023282e+00
-1.400733e+00
-1.825551e+00
-2.296098e+00
-2.810710e+00
-3.367917e+00
-3.966541e+00
-4.605708e+00
-5.284825e+00
-6.003524e+00
-6.761623e+00
-7.559092e+00
-8.396034e+00
-9.272690e+00
-1.018946e+01
-1.114689e+01
-1.214564e+01
-1.318625e+01
-1.426881e+01
-1.539238e+01
-1.655523e+01
-1.775544e+01
-1.899002e+01
-2.025185e+01
-2.152820e+01
-2.280338e+01
-2.403966e+01
-2.518268e+01
-2.617294e+01
0.000000e+00
-1.833878e-01
-4.142821e-01
-6.943851e-01
-1.024168e+00
-1.402901e+00
-1.829133e+00
-2.301099e+00
-2.817088e+00
-3.375621e+00
-3.975529e+00
-4.615969e+00
-5.296362e+00
-6.016354e+00
-6.775771e+00
-7.574575e+00
-8.412848e+00
-9.290784e+00
-1.020874e+01
-1.116726e+01
-1.216696e+01
-1.320834e+01
-1.429123e+01
-1.541392e+01
-1.657340e+01
-1.776636e+01
-1.898773e+01
-2.022799e+01
-2.147255e+01
-2.270194e+01
-2.388462e+01
-2.497589e+01
-2.592931e+01
0.000000e+00
-1.817528e-01
-4.119000e-01
-6.932293e-01
-1.025671e+00
-1.407670e+00
-1.837288e+00
-2.312397e+00
-2.831142e+00
-3.392052e+00
-3.994024e+00
-4.636286e+00
-5.318335e+00
-6.039848e+00
-6.800665e+00
-7.600747e+00
-8.440131e+00
-9.318933e+00
-1.023744e+01
-1.119614e+01
-1.219555e+01
-1.323597e+01
-1.431710e+01
-1.543680e+01
-1.659119e+01
-1.777571e+01
-1.898330e+01
-2.020239e+01
-2.141743e+01
-2.260879e+01
-2.374984e+01
-2.480691e+01
-2.574457e+01
0.000000e+00
-1.778350e-01
-4.059496e-01
-6.906422e-01
-1.028278e+00
-1.415529e+00
-1.850950e+00
-2.330746e+00
-2.853360e+00
-3.417680e+00
-4.022210e+00
-4.666765e+00
-5.350800e+00
-6.073948e+00
-6.836212e+00
-7.637422e+00
-8.477577e+00
-9.356697e+00
-1.027495e+01
-1.123280e+01
-1.223049e+01
-1.326808e+01
-1.434547e+01
-1.546079e+01
-1.660965e+01
-1.778589e+01
-1.898048e+01
-2.018044e+01
-2.137014e+01
-2.253168e+01
-2.364359e+01
-2.468147e+01
-2.561978e+01
0.000000e+00
-1.695204e-01
-3.924607e-01
-6.874108e-01
-1.033186e+00
-1.427716e+00
-1.872249e+00
-2.357045e+00
-2.884838e+00
-3.453079e+00
-4.060290e+00
-4.707659e+00
-5.393763e+00
-6.118694e+00
-6.882470e+00
-7.684639e+00
-8.525251e+00
-9.404107e+00
-1.032126e+01
-1.127717e+01
-1.227170e+01
-1.330485e+01
-1.437736e+01
-1.548812e+01
-1.663209e+01
-1.780108e+01
-1.898412e+01
-2.016755e+01
-2.133643e+01
-2.247519e+01
-2.356738e+01
-2.459662e+01
-2.554708e+01
0.000000e+00
-1.502902e-01
-3.739361e-01
-6.883749e-01
-1.045169e+00
-1.450672e+00
-1.903605e+00
-2.394944e+00
-2.926889e+00
-3.498862e+00
-4.108922e+00
-4.758562e+00
-5.446962e+00
-6.173606e+00
-6.938898e+00
-7.742097e+00
-8.582974e+00
-9.461302e+00
-1.037690e+01
-1.133012e+01
-1.232066e+01
-1.334884e+01
-1.441659e+01
-1.552342e+01
-1.666318e+01
-1.782553e+01
-1.899807e+01
-2.016717e+01
-2.131901e+01
-2.244027e+01
-2.351885e+01
-2.454550e+01
-2.551471e+01
0.000000e+00
-1.345782e-01
-3.880996e-01
-7.139774e-01
-1.085948e+00
-1.497728e+00
-1.954731e+00
-2.450247e+00
-2.983932e+00
-3.557646e+00
-4.169298e+00
-4.820031e+00
-5.509730e+00
-6.237520e+00
-7.003834e+00
-7.807863e+00
-8.649032e+00
-9.527046e+00
-1.044147e+01
-1.139240e+01
-1.237963e+01
-1.340403e+01
-1.446817e+01
-1.557144e+01
-1.670638e+01
-1.786127e+01
-1.902334e+01
-2.017963e+01
-2.131742e+01
-2.242503e+01
-2.349356e+01
-2.451966e+01
-2.550844e+01
0.000000e+00
-1.641748e-01
-4.463835e-01
-7.751022e-01
-1.152078e+00
-1.565977e+00
-2.024468e+00
-2.520808e+00
-3.055298e+00
-3.629336e+00
-4.241386e+00
-4.892529e+00
-5.582451e+00
-6.310660e+00
-7.077264e+00
-7.881480e+00
-8.722683e+00
-9.600409e+00
-1.051413e+01
-1.146370e+01
-1.244918e+01
-1.347192e+01
-1.453396e+01
-1.563332e+01
-1.676151e+01
-1.790697e+01
-1.905779e+01
-2.020203e+01
-2.132786e+01
-2.242468e+01
-2.348538e+01
-2.451028e+01
-2.551268e+01
0.000000e+00
-2.600438e-01
-5.267432e-01
-8.619843e-01
-1.235160e+00
-1.650256e+00
-2.109212e+00
-2.604268e+00
-3.139565e+00
-3.713387e+00
-4.325169e+00
-4.976505e+00
-5.666079e+00
-6.394127e+00
-7.160544e+00
-7.964329e+00
-8.805168e+00
-9.682446e+00
-1.059562e+01
-1.154452e+01
-1.252939e+01
-1.355185e+01
-1.461247e+01