TITLE = "Solution"
VARIABLES = x, y, u, v, psiu, psiv, t, stress
ZONE T="structure" N=561 E=512 F=FEBLOCK ET=QUADRILATERAL VARLOCATION=([7,8]=cellcentered)
0.000000e+00
6.250000e+00
1.250000e+01
1.875000e+01
2.500000e+01
3.125000e+01
3.750000e+01
4.375000e+01
5.000000e+01
5.625000e+01
6.250000e+01
6.875000e+01
7.500000e+01
8.125000e+01
8.750000e+01
9.375000e+01
1.000000e+02
1.062500e+02
1.125000e+02
1.187500e+02
1.250000e+02
1.312500e+02
1.375000e+02
1.437500e+02
1.500000e+02
1.562500e+02
1.625000e+02
1.687500e+02
1.750000e+02
1.812500e+02
1.875000e+02
1.937500e+02
2.000000e+02
0.000000e+00
6.250000e+00
1.250000e+01
1.875000e+01
2.500000e+01
3.125000e+01
3.750000e+01
4.375000e+01
5.000000e+01
5.625000e+01
6.250000e+01
6.875000e+01
7.500000e+01
8.125000e+01
8.750000e+01
9.375000e+01
1.000000e+02
1.062500e+02
1.125000e+02
1.187500e+02
1.250000e+02
1.312500e+02
1.375000e+02
1.437500e+02
1.500000e+02
1.562500e+02
1.625000e+02
1.687500e+02
1.750000e+02
1.812500e+02
1.875000e+02
1.937500e+02
2.000000e+02
0.000000e+00
6.250000e+00
1.250000e+01
1.875000e+01
2.500000e+01
3.125000e+01
3.750000e+01
4.375000e+01
5.000000e+01
5.625000e+01
6.250000e+01
6.875000e+01
7.500000e+01
8.125000e+01
8.750000e+01
9.375000e+01
1.000000e+02
1.062500e+02
1.125000e+02
1.187500e+02
1.250000e+02
1.312500e+02
1.375000e+02
1.437500e+02
1.500000e+02
1.562500e+02
1.625000e+02
1.687500e+02
1.750000e+02
1.812500e+02
1.875000e+02
1.937500e+02
2.000000e+02
0.000000e+00
6.250000e+00
1.250000e+01
1.875000e+01
2.500000e+01
3.125000e+01
3.750000e+01
4.375000e+01
5.000000e+01
5.625000e+01
6.250000e+01
6.875000e+01
7.500000e+01
8.125000e+01
8.750000e+01
9.375000e+01
1.000000e+02
1.062500e+02
1.125000e+02
1.187500e+02
1.250000e+02
1.312500e+02
1.375000e+02
1.437500e+02
1.500000e+02
1.562500e+02
1.625000e+02
1.687500e+02
1.750000e+02
1.812500e+02
1.875000e+02
1.937500e+02
2.000000e+02
0.000000e+00
6.250000e+00
1.250000e+01
1.875000e+01
2.500000e+01
3.125000e+01
3.750000e+01
4.375000e+01
5.000000e+01
5.625000e+01
6.250000e+01
6.875000e+01
7.500000e+01
8.125000e+01
8.750000e+01
9.375000e+01
1.000000e+02
1.062500e+02
1.125000e+02
1.187500e+02
1.250000e+02
1.312500e+02
1.375000e+02
1.437500e+02
1.500000e+02
1.562500e+02
1.625000e+02
1.687500e+02
1.750000e+02
1.812500e+02
1.875000e+02
1.937500e+02
2.000000e+02
0.000000e+00
6.250000e+00
1.250000e+01
1.875000e+01
2.500000e+01
3.125000e+01
3.750000e+01
4.375000e+01
5.000000e+01
5.625000e+01
6.250000e+01
6.875000e+01
7.500000e+01
8.125000e+01
8.750000e+01
9.375000e+01
1.000000e+02
1.062500e+02
1.125000e+02
1.187500e+02
1.250000e+02
1.312500e+02
1.375000e+02
1.437500e+02
1.500000e+02
1.562500e+02
1.625000e+02
1.687500e+02
1.750000e+02
1.812500e+02
1.875000e+02
1.937500e+02
2.000000e+02
0.000000e+00
6.250000e+00
1.250000e+01
1.875000e+01
2.500000e+01
3.125000e+01
3.750000e+01
4.375000e+01
5.000000e+01
5.625000e+01
6.250000e+01
6.875000e+01
7.500000e+01
8.125000e+01
8.750000e+01
9.375000e+01
1.000000e+02
1.062500e+02
1.125000e+02
1.187500e+02
1.250000e+02
1.312500e+02
1.375000e+02
1.437500e+02
1.500000e+02
1.562500e+02
1.625000e+02
1.687500e+02
1.750000e+02
1.812500e+02
1.875000e+02
1.937500e+02
2.000000e+02
0.000000e+00
6.250000e+00
1.250000e+01
1.875000e+01
2.500000e+01
3.125000e+01
3.750000e+01
4.375000e+01
5.000000e+01
5.625000e+01
6.250000e+01
6.875000e+01
7.500000e+01
8.125000e+01
8.750000e+01
9.375000e+01
1.000000e+02
1.062500e+02
1.125000e+02
1.187500e+02
1.250000e+02
1.312500e+02
1.375000e+02
1.437500e+02
1.500000e+02
1.562500e+02
1.625000e+02
1.687500e+02
1.750000e+02
1.812500e+02
1.875000e+02
1.937500e+02
2.000000e+02
0.000000e+00
6.250000e+00
1.250000e+01
1.875000e+01
2.500000e+01
3.125000e+01
3.750000e+01
4.375000e+01
5.000000e+01
5.625000e+01
6.250000e+01
6.875000e+01
7.500000e+01
8.125000e+01
8.750000e+01
9.375000e+01
1.000000e+02
1.062500e+02
1.125000e+02
1.187500e+02
1.250000e+02
1.312500e+02
1.375000e+02
1.437500e+02
1.500000e+02
1.562500e+02
1.625000e+02
1.687500e+02
1.750000e+02
1.812500e+02
1.875000e+02
1.937500e+02
2.000000e+02
0.000000e+00
6.250000e+00
1.250000e+01
1.875000e+01
2.500000e+01
3.125000e+01
3.750000e+01
4.375000e+01
5.000000e+01
5.625000e+01
6.250000e+01
6.875000e+01
7.500000e+01
8.125000e+01
8.750000e+01
9.375000e+01
1.000000e+02
1.062500e+02
1.125000e+02
1.187500e+02
1.250000e+02
1.312500e+02
1.375000e+02
1.437500e+02
1.500000e+02
1.562500e+02
1.625000e+02
1.687500e+02
1.750000e+02
1.812500e+02
1.875000e+02
1.937500e+02
2.000000e+02
0.000000e+00
6.250000e+00
1.250000e+01
1.875000e+01
2.500000e+01
3.125000e+01
3.750000e+01
4.375000e+01
5.000000e+01
5.625000e+01
6.250000e+01
6.875000e+01
7.500000e+01
8.125000e+01
8.750000e+01
9.375000e+01
1.000000e+02
1.062500e+02
1.125000e+02
1.187500e+02
1.250000e+02
1.312500e+02
1.375000e+02
1.437500e+02
1.500000e+02
1.562500e+02
1.625000e+02
1.687500e+02
1.750000e+02
1.812500e+02
1.875000e+02
1.937500e+02
2.000000e+02
0.000000e+00
6.250000e+00
1.250000e+01
1.875000e+01
2.500000e+01
3.125000e+01
3.750000e+01
4.375000e+01
5.000000e+01
5.625000e+01
6.250000e+01
6.875000e+01
7.500000e+01
8.125000e+01
8.750000e+01
9.375000e+01
1.000000e+02
1.062500e+02
1.125000e+02
1.187500e+02
1.250000e+02
1.312500e+02
1.375000e+02
1.437500e+02
1.500000e+02
1.562500e+02
1.625000e+02
1.687500e+02
1.750000e+02
1.812500e+02
1.875000e+02
1.937500e+02
2.000000e+02
0.000000e+00
6.250000e+00
1.250000e+01
1.875000e+01
2.500000e+01
3.125000e+01
3.750000e+01
4.375000e+01
5.000000e+01
5.625000e+01
6.250000e+01
6.875000e+01
7.500000e+01
8.125000e+01
8.750000e+01
9.375000e+01
1.000000e+02
1.062500e+02
1.125000e+02
1.187500e+02
1.250000e+02
1.312500e+02
1.375000e+02
1.437500e+02
1.500000e+02
1.562500e+02
1.625000e+02
1.687500e+02
1.750000e+02
1.812500e+02
1.875000e+02
1.937500e+02
2.000000e+02
0.000000e+00
6.250000e+00
1.250000e+01
1.875000e+01
2.500000e+01
3.125000e+01
3.750000e+01
4.375000e+01
5.000000e+01
5.625000e+01
6.250000e+01
6.875000e+01
7.500000e+01
8.125000e+01
8.750000e+01
9.375000e+01
1.000000e+02
1.062500e+02
1.125000e+02
1.187500e+02
1.250000e+02
1.312500e+02
1.375000e+02
1.437500e+02
1.500000e+02
1.562500e+02
1.625000e+02
1.687500e+02
1.750000e+02
1.812500e+02
1.875000e+02
1.937500e+02
2.000000e+02
0.000000e+00
6.250000e+00
1.250000e+01
1.875000e+01
2.500000e+01
3.125000e+01
3.750000e+01
4.375000e+01
5.000000e+01
5.625000e+01
6.250000e+01
6.875000e+01
7.500000e+01
8.125000e+01
8.750000e+01
9.375000e+01
1.000000e+02
1.062500e+02
1.125000e+02
1.187500e+02
1.250000e+02
1.312500e+02
1.375000e+02
1.437500e+02
1.500000e+02
1.562500e+02
1.625000e+02
1.687500e+02
1.750000e+02
1.812500e+02
1.875000e+02
1.937500e+02
2.000000e+02
0.000000e+00
6.250000e+00
1.250000e+01
1.875000e+01
2.500000e+01
3.125000e+01
3.750000e+01
4.375000e+01
5.000000e+01
5.625000e+01
6.250000e+01
6.875000e+01
7.500000e+01
8.125000e+01
8.750000e+01
9.375000e+01
1.000000e+02
1.062500e+02
1.125000e+02
1.187500e+02
1.250000e+02
1.312500e+02
1.375000e+02
1.437500e+02
1.500000e+02
1.562500e+02
1.625000e+02
1.687500e+02
1.750000e+02
1.812500e+02
1.875000e+02
1.937500e+02
2.000000e+02
0.000000e+00
6.250000e+00
1.250000e+01
1.875000e+01
2.500000e+01
3.125000e+01
3.750000e+01
4.375000e+01
5.000000e+01
5.625000e+01
6.250000e+01
6.875000e+01
7.500000e+01
8.125000e+01
8.750000e+01
9.375000e+01
1.000000e+02
1.062500e+02
1.125000e+02
1.187500e+02
1.250000e+02
1.312500e+02
1.375000e+02
1.437500e+02
1.500000e+02
1.562500e+02
1.625000e+02
1.687500e+02
1.750000e+02
1.812500e+02
1.875000e+02
1.937500e+02
2.000000e+02
0.000000e+00
0.000000e+00
0.000000e+00
0.000000e+00
0.000000e+00
0.000000e+00
0.000000e+00
0.000000e+00
0.000000e+00
0.000000e+00
0.000000e+00
0.000000e+00
0.000000e+00
0.000000e+00
0.000000e+00
0.000000e+00
0.000000e+00
0.000000e+00
0.000000e+00
0.000000e+00
0.000000e+00
0.000000e+00
0.000000e+00
0.000000e+00
0.000000e+00
0.000000e+00
0.000000e+00
0.000000e+00
0.000000e+00
0.000000e+00
0.000000e+00
0.000000e+00
0.000000e+00
6.250000e+00
6.250000e+00
6.250000e+00
6.250000e+00
6.250000e+00
6.250000e+00
6.250000e+00
6.250000e+00
6.250000e+00
6.250000e+00
6.250000e+00
6.250000e+00
6.250000e+00
6.250000e+00
6.250000e+00
6.250000e+00
6.250000e+00
6.250000e+00
6.250000e+00
6.250000e+00
6.250000e+00
6.250000e+00
6.250000e+00
6.250000e+00
6.250000e+00
6.250000e+00
6.250000e+00
6.250000e+00
6.250000e+00
6.250000e+00
6.250000e+00
6.250000e+00
6.250000e+00
1.250000e+01
1.250000e+01
1.250000e+01
1.250000e+01
1.250000e+01
1.250000e+01
1.250000e+01
1.250000e+01
1.250000e+01
1.250000e+01
1.250000e+01
1.250000e+01
1.250000e+01
1.250000e+01
1.250000e+01
1.250000e+01
1.250000e+01
1.250000e+01
1.250000e+01
1.250000e+01
1.250000e+01
1.250000e+01
1.250000e+01
1.250000e+01
1.250000e+01
1.250000e+01
1.250000e+01
1.250000e+01
1.250000e+01
1.250000e+01
1.250000e+01
1.250000e+01
1.250000e+01
1.875000e+01
1.875000e+01
1.875000e+01
1.875000e+01
1.875000e+01
1.875000e+01
1.875000e+01
1.875000e+01
1.875000e+01
1.875000e+01
1.875000e+01
1.875000e+01
1.875000e+01
1.875000e+01
1.875000e+01
1.875000e+01
1.875000e+01
1.875000e+01
1.875000e+01
1.875000e+01
1.875000e+01
1.875000e+01
1.875000e+01
1.875000e+01
1.875000e+01
1.875000e+01
1.875000e+01
1.875000e+01
1.875000e+01
1.875000e+01
1.875000e+01
1.875000e+01
1.875000e+01
2.500000e+01
2.500000e+01
2.500000e+01
2.500000e+01
2.500000e+01
2.500000e+01
2.500000e+01
2.500000e+01
2.500000e+01
2.500000e+01
2.500000e+01
2.500000e+01
2.500000e+01
2.500000e+01
2.500000e+01
2.500000e+01
2.500000e+01
2.500000e+01
2.500000e+01
2.500000e+01
2.500000e+01
2.500000e+01
2.500000e+01
2.500000e+01
2.500000e+01
2.500000e+01
2.500000e+01
2.500000e+01
2.500000e+01
2.500000e+01
2.500000e+01
2.500000e+01
2.500000e+01
3.125000e+01
3.125000e+01
3.125000e+01
3.125000e+01
3.125000e+01
3.125000e+01
3.125000e+01
3.125000e+01
3.125000e+01
3.125000e+01
3.125000e+01
3.125000e+01
3.125000e+01
3.125000e+01
3.125000e+01
3.125000e+01
3.125000e+01
3.125000e+01
3.125000e+01
3.125000e+01
3.125000e+01
3.125000e+01
3.125000e+01
3.125000e+01
3.125000e+01
3.125000e+01
3.125000e+01
3.125000e+01
3.125000e+01
3.125000e+01
3.125000e+01
3.125000e+01
3.125000e+01
3.750000e+01
3.750000e+01
3.750000e+01
3.750000e+01
3.750000e+01
3.750000e+01
3.750000e+01
3.750000e+01
3.750000e+01
3.750000e+01
3.750000e+01
3.750000e+01
3.750000e+01
3.750000e+01
3.750000e+01
3.750000e+01
3.750000e+01
3.750000e+01
3.750000e+01
3.750000e+01
3.750000e+01
3.750000e+01
3.750000e+01
3.750000e+01
3.750000e+01
3.750000e+01
3.750000e+01
3.750000e+01
3.750000e+01
3.750000e+01
3.750000e+01
3.750000e+01
3.750000e+01
4.375000e+01
4.375000e+01
4.375000e+01
4.375000e+01
4.375000e+01
4.375000e+01
4.375000e+01
4.375000e+01
4.375000e+01
4.375000e+01
4.375000e+01
4.375000e+01
4.375000e+01
4.375000e+01
4.375000e+01
4.375000e+01
4.375000e+01
4.375000e+01
4.375000e+01
4.375000e+01
4.375000e+01
4.375000e+01
4.375000e+01
4.375000e+01
4.375000e+01
4.375000e+01
4.375000e+01
4.375000e+01
4.375000e+01
4.375000e+01
4.375000e+01
4.375000e+01
4.375000e+01
5.000000e+01
5.000000e+01
5.000000e+01
5.000000e+01
5.000000e+01
5.000000e+01
5.000000e+01
5.000000e+01
5.000000e+01
5.000000e+01
5.000000e+01
5.000000e+01
5.000000e+01
5.000000e+01
5.000000e+01
5.000000e+01
5.000000e+01
5.000000e+01
5.000000e+01
5.000000e+01
5.000000e+01
5.000000e+01
5.000000e+01
5.000000e+01
5.000000e+01
5.000000e+01
5.000000e+01
5.000000e+01
5.000000e+01
5.000000e+01
5.000000e+01
5.000000e+01
5.000000e+01
5.625000e+01
5.625000e+01
5.625000e+01
5.625000e+01
5.625000e+01
5.625000e+01
5.625000e+01
5.625000e+01
5.625000e+01
5.625000e+01
5.625000e+01
5.625000e+01
5.625000e+01
5.625000e+01
5.625000e+01
5.625000e+01
5.625000e+01
5.625000e+01
5.625000e+01
5.625000e+01
5.625000e+01
5.625000e+01
5.625000e+01
5.625000e+01
5.625000e+01
5.625000e+01
5.625000e+01
5.625000e+01
5.625000e+01
5.625000e+01
5.625000e+01
5.625000e+01
5.625000e+01
6.250000e+01
6.250000e+01
6.250000e+01
6.250000e+01
6.250000e+01
6.250000e+01
6.250000e+01
6.250000e+01
6.250000e+01
6.250000e+01
6.250000e+01
6.250000e+01
6.250000e+01
6.250000e+01
6.250000e+01
6.250000e+01
6.250000e+01
6.250000e+01
6.250000e+01
6.250000e+01
6.250000e+01
6.250000e+01
6.250000e+01
6.250000e+01
6.250000e+01
6.250000e+01
6.250000e+01
6.250000e+01
6.250000e+01
6.250000e+01
6.250000e+01
6.250000e+01
6.250000e+01
6.875000e+01
6.875000e+01
6.875000e+01
6.875000e+01
6.875000e+01
6.875000e+01
6.875000e+01
6.875000e+01
6.875000e+01
6.875000e+01
6.875000e+01
6.875000e+01
6.875000e+01
6.875000e+01
6.875000e+01
6.875000e+01
6.875000e+01
6.875000e+01
6.875000e+01
6.875000e+01
6.875000e+01
6.875000e+01
6.875000e+01
6.875000e+01
6.875000e+01
6.875000e+01
6.875000e+01
6.875000e+01
6.875000e+01
6.875000e+01
6.875000e+01
6.875000e+01
6.875000e+01
7.500000e+01
7.500000e+01
7.500000e+01
7.500000e+01
7.500000e+01
7.500000e+01
7.500000e+01
7.500000e+01
7.500000e+01
7.500000e+01
7.500000e+01
7.500000e+01
7.500000e+01
7.500000e+01
7.500000e+01
7.500000e+01
7.500000e+01
7.500000e+01
7.500000e+01
7.500000e+01
7.500000e+01
7.500000e+01
7.500000e+01
7.500000e+01
7.500000e+01
7.500000e+01
7.500000e+01
7.500000e+01
7.500000e+01
7.500000e+01
7.500000e+01
7.500000e+01
7.500000e+01
8.125000e+01
8.125000e+01
8.125000e+01
8.125000e+01
8.125000e+01
8.125000e+01
8.125000e+01
8.125000e+01
8.125000e+01
8.125000e+01
8.125000e+01
8.125000e+01
8.125000e+01
8.125000e+01
8.125000e+01
8.125000e+01
8.125000e+01
8.125000e+01
8.125000e+01
8.125000e+01
8.125000e+01
8.125000e+01
8.125000e+01
8.125000e+01
8.125000e+01
8.125000e+01
8.125000e+01
8.125000e+01
8.125000e+01
8.125000e+01
8.125000e+01
8.125000e+01
8.125000e+01
8.750000e+01
8.750000e+01
8.750000e+01
8.750000e+01
8.750000e+01
8.750000e+01
8.750000e+01
8.750000e+01
8.750000e+01
8.750000e+01
8.750000e+01
8.750000e+01
8.750000e+01
8.750000e+01
8.750000e+01
8.750000e+01
8.750000e+01
8.750000e+01
8.750000e+01
8.750000e+01
8.750000e+01
8.750000e+01
8.750000e+01
8.750000e+01
8.750000e+01
8.750000e+01
8.750000e+01
8.750000e+01
8.750000e+01
8.750000e+01
8.750000e+01
8.750000e+01
8.750000e+01
9.375000e+01
9.375000e+01
9.375000e+01
9.375000e+01
9.375000e+01
9.375000e+01
9.375000e+01
9.375000e+01
9.375000e+01
9.375000e+01
9.375000e+01
9.375000e+01
9.375000e+01
9.375000e+01
9.375000e+01
9.375000e+01
9.375000e+01
9.375000e+01
9.375000e+01
9.375000e+01
9.375000e+01
9.375000e+01
9.375000e+01
9.375000e+01
9.375000e+01
9.375000e+01
9.375000e+01
9.375000e+01
9.375000e+01
9.375000e+01
9.375000e+01
9.375000e+01
9.375000e+01
1.000000e+02
1.000000e+02
1.000000e+02
1.000000e+02
1.000000e+02
1.000000e+02
1.000000e+02
1.000000e+02
1.000000e+02
1.000000e+02
1.000000e+02
1.000000e+02
1.000000e+02
1.000000e+02
1.000000e+02
1.000000e+02
1.000000e+02
1.000000e+02
1.000000e+02
1.000000e+02
1.000000e+02
1.000000e+02
1.000000e+02
1.000000e+02
1.000000e+02
1.000000e+02
1.000000e+02
1.000000e+02
1.000000e+02
1.000000e+02
1.000000e+02
1.000000e+02
1.000000e+02
0.000000e+00
-4.038044e-01
-7.134604e-01
-1.024203e+00
-1.334512e+00
-1.630527e+00
-1.933460e+00
-2.233729e+00
-2.530106e+00
-2.828938e+00
-3.126792e+00
-3.423405e+00
-3.720565e+00
-4.017317e+00
-4.313523e+00
-4.609664e+00
-4.905535e+00
-5.201107e+00
-5.496520e+00
-5.791769e+00
-6.087004e+00
-6.382521e+00
-6.678556e+00
-6.975564e+00
-7.274370e+00
-7.575753e+00
-7.880513e+00
-8.190666e+00
-8.511405e+00
-8.853808e+00
-9.226934e+00
-9.596991e+00
-9.799206e+00
0.000000e+00
-2.383949e-01
-4.902522e-01
-7.512804e-01
-1.018328e+00
-1.273737e+00
-1.536931e+00
-1.799115e+00
-2.058138e+00
-2.319491e+00
-2.580168e+00
-2.839732e+00
-3.099727e+00
-3.359346e+00
-3.618393e+00
-3.877252e+00
-4.135734e+00
-4.393762e+00
-4.651400e+00
-4.908569e+00
-5.165269e+00
-5.421529e+00
-5.677150e+00
-5.931842e+00
-6.185284e+00
-6.436654e+00
-6.684502e+00
-6.927380e+00
-7.163691e+00
-7.385094e+00
-7.555486e+00
-7.633295e+00
-7.730860e+00
0.000000e+00
-1.580135e-01
-3.314869e-01
-5.351847e-01
-7.506391e-01
-9.625302e-01
-1.184121e+00
-1.406744e+00
-1.628408e+00
-1.852552e+00
-2.076626e+00
-2.300243e+00
-2.524339e+00
-2.748208e+00
-2.971644e+00
-3.194808e+00
-3.417447e+00
-3.639382e+00
-3.860480e+00
-4.080452e+00
-4.298959e+00
-4.515514e+00
-4.729249e+00
-4.938922e+00
-5.142892e+00
-5.338799e+00
-5.523320e+00
-5.691924e+00
-5.837305e+00
-5.944009e+00
-5.984595e+00
-5.983621e+00
-6.072623e+00
0.000000e+00
-1.133586e-01
-2.348835e-01
-3.841742e-01
-5.455341e-01
-7.145367e-01
-8.939305e-01
-1.076305e+00
-1.260459e+00
-1.447361e+00
-1.634882e+00
-1.822728e+00
-2.011095e+00
-2.199322e+00
-2.387185e+00
-2.574567e+00
-2.761108e+00
-2.946478e+00
-3.130293e+00
-3.311986e+00
-3.490821e+00
-3.665782e+00
-3.835414e+00
-3.997772e+00
-4.150368e+00
-4.289993e+00
-4.412499e+00
-4.512437e+00
-4.582289e+00
-4.612503e+00
-4.605535e+00
-4.611434e+00
-4.689797e+00
0.000000e+00
-9.543642e-02
-1.917425e-01
-3.013514e-01
-4.206453e-01
-5.504981e-01
-6.877796e-01
-8.292943e-01
-9.745370e-01
-1.122014e+00
-1.270694e+00
-1.420250e+00
-1.570130e+00
-1.719917e+00
-1.869331e+00
-2.018004e+00
-2.165535e+00
-2.311462e+00
-2.455184e+00
-2.595914e+00
-2.732615e+00
-2.863927e+00
-2.988081e+00
-3.102851e+00
-3.205525e+00
-3.292886e+00
-3.361204e+00
-3.406451e+00
-3.425204e+00
-3.418250e+00
-3.404274e+00
-3.429337e+00
-3.506979e+00
0.000000e+00
-7.404020e-02
-1.489897e-01
-2.280532e-01
-3.149006e-01
-4.083853e-01
-5.075182e-01
-6.111384e-01
-7.178064e-01
-8.265879e-01
-9.367311e-01
-1.047599e+00
-1.158729e+00
-1.269722e+00
-1.380197e+00
-1.489757e+00
-1.597943e+00
-1.704190e+00
-1.807777e+00
-1.907776e+00
-2.002998e+00
-2.091951e+00
-2.172814e+00
-2.243439e+00
-2.301406e+00
-2.344158e+00
-2.369291e+00
-2.375346e+00
-2.363655e+00
-2.342328e+00
-2.335761e+00
-2.369468e+00
-2.446219e+00
0.000000e+00
-5.021567e-02
-1.008045e-01
-1.536420e-01
-2.101751e-01
-2.709220e-01
-3.353907e-01
-4.028998e-01
-4.726687e-01
-5.439532e-01
-6.161725e-01
-6.888389e-01
-7.615379e-01
-8.339104e-01
-9.056003e-01
-9.762166e-01
-1.045298e+00
-1.112265e+00
-1.176378e+00
-1.236698e+00
-1.292047e+00
-1.341003e+00
-1.381921e+00
-1.413003e+00
-1.432448e+00
-1.438727e+00
-1.431085e+00
-1.410544e+00
-1.381669e+00
-1.355908e+00
-1.354040e+00
-1.392152e+00
-1.466817e+00
0.000000e+00
-2.535069e-02
-5.090943e-02
-7.733026e-02
-1.053044e-01
-1.351078e-01
-1.666555e-01
-1.996210e-01
-2.336048e-01
-2.682139e-01
-3.030935e-01
-3.379337e-01
-3.724541e-01
-4.063843e-01
-4.394403e-01
-4.712963e-01
-5.015541e-01
-5.297095e-01
-5.551151e-01
-5.769505e-01
-5.942054e-01
-6.056941e-01
-6.101193e-01
-6.062076e-01
-5.929432e-01
-5.699394e-01
-5.380281e-01
-5.001728e-01
-4.627543e-01
-4.371011e-01
-4.390321e-01
-4.781050e-01
-5.487132e-01
0.000000e+00
-2.110948e-04
-3.266001e-04
-3.293544e-04
-1.898159e-04
1.314625e-04
6.820429e-04
1.517203e-03
2.700910e-03
4.307595e-03
6.424345e-03
9.153644e-03
1.261707e-02
1.696051e-02
2.236171e-02
2.904116e-02
3.727716e-02
4.742589e-02
5.994500e-02
7.541558e-02
9.455028e-02
1.181652e-01
1.470850e-01
1.819534e-01
2.229358e-01
2.693067e-01
3.189063e-01
3.674944e-01
4.081804e-01
4.312317e-01
4.263035e-01
3.891442e-01
3.268475e-01
0.000000e+00
2.492049e-02
5.023232e-02
7.662492e-02
1.048494e-01
1.352600e-01
1.678652e-01
2.024462e-01
2.387292e-01
2.764671e-01
3.154768e-01
3.556500e-01
3.969448e-01
4.393751e-01
4.830003e-01
5.279156e-01
5.742483e-01
6.221582e-01
6.718433e-01
7.235506e-01
7.775859e-01
8.342902e-01
8.939302e-01
9.564683e-01
1.021231e+00
1.086535e+00
1.149316e+00
1.204861e+00
1.246843e+00
1.268054e+00
1.262800e+00
1.231011e+00
1.181184e+00
0.000000e+00
4.975886e-02
1.000506e-01
1.527894e-01
2.094859e-01
2.707331e-01
3.361256e-01
4.050823e-01
4.769400e-01
5.510929e-01
6.271234e-01
7.047352e-01
7.837382e-01
8.640357e-01
9.455786e-01
1.028339e+00
1.112291e+00
1.197387e+00
1.283535e+00
1.370592e+00
1.458383e+00
1.546706e+00
1.635222e+00
1.723208e+00
1.809227e+00
1.890893e+00
1.964749e+00
2.026344e+00
2.070622e+00
2.092925e+00
2.090940e+00
2.067307e+00
2.031254e+00
0.000000e+00
7.353258e-02
1.480900e-01
2.269347e-01
3.137996e-01
4.076021e-01
5.074271e-01
6.121997e-01
7.205830e-01
8.317691e-01
9.451552e-01
1.060278e+00
1.176877e+00
1.294780e+00
1.413855e+00
1.533983e+00
1.655009e+00
1.776706e+00
1.898722e+00
2.020536e+00
2.141484e+00
2.260803e+00
2.377517e+00
2.490177e+00
2.596638e+00
2.694053e+00
2.779014e+00
2.847790e+00
2.896782e+00
2.923384e+00
2.927446e+00
2.913080e+00
2.889880e+00
0.000000e+00
9.483215e-02
1.906248e-01
2.998435e-01
4.189624e-01
5.488840e-01
6.865180e-01
8.287439e-01
9.751358e-01
1.124303e+00
1.275349e+00
1.428093e+00
1.582151e+00
1.737294e+00
1.893424e+00
2.050356e+00
2.207853e+00
2.365590e+00
2.523041e+00
2.679418e+00
2.833698e+00
2.984588e+00
3.130327e+00
3.268497e+00
3.396130e+00
3.510043e+00
3.607164e+00
3.684729e+00
3.740547e+00
3.773588e+00
3.785019e+00
3.779632e+00
3.767261e+00
0.000000e+00
1.126494e-01
2.335460e-01
3.823351e-01
5.433317e-01
7.121392e-01
8.915010e-01
1.074040e+00
1.258616e+00
1.446268e+00
1.634966e+00
1.824528e+00
2.015278e+00
2.206688e+00
2.398661e+00
2.591184e+00
2.783959e+00
2.976641e+00
3.168678e+00
3.359241e+00
3.547288e+00
3.731109e+00
3.907748e+00
4.073206e+00
4.223323e+00
4.354593e+00
4.464478e+00
4.551357e+00
4.614491e+00
4.654263e+00
4.672801e+00
4.675115e+00
4.670924e+00
0.000000e+00
1.574579e-01
3.304573e-01
5.337647e-01
7.489090e-01
9.605347e-01
1.181906e+00
1.404362e+00
1.625912e+00
1.850025e+00
2.074194e+00
2.298072e+00
2.522643e+00
2.747250e+00
2.971723e+00
3.196245e+00
3.420568e+00
3.644402e+00
3.867305e+00
4.088703e+00
4.308051e+00
4.523646e+00
4.731141e+00
4.924192e+00
5.096781e+00
5.244805e+00
5.366234e+00
5.460645e+00
5.528876e+00
5.572930e+00
5.596130e+00
5.603696e+00
5.604521e+00
0.000000e+00
2.382655e-01
4.900485e-01
7.510144e-01
1.017977e+00
1.273276e+00
1.536352e+00
1.798382e+00
2.057188e+00
2.318251e+00
2.578551e+00
2.837617e+00
3.096953e+00
3.355698e+00
3.613574e+00
3.870875e+00
4.127323e+00
4.382647e+00
4.636491e+00
4.888512e+00
5.138673e+00
5.385380e+00
5.622929e+00
5.842480e+00
6.035922e+00
6.198312e+00
6.327854e+00
6.425105e+00
6.492480e+00
6.534087e+00
6.555499e+00
6.563315e+00
6.565211e+00
0.000000e+00
4.043099e-01
7.143402e-01
1.025447e+00
1.336001e+00
1.632218e+00
1.935359e+00
2.235778e+00
2.532237e+00
2.831058e+00
3.128755e+00
3.425002e+00
3.721502e+00
4.017183e+00
4.311767e+00
4.605579e+00
4.898267e+00
5.189568e+00
5.479204e+00
5.766894e+00
6.052458e+00
6.333386e+00
6.602046e+00
6.847401e+00
7.059766e+00
7.233355e+00
7.366061e+00
7.458661e+00
7.514616e+00
7.540339e+00
7.545417e+00
7.541864e+00
7.539774e+00
0.000000e+00
-2.449472e-01
-4.774092e-01
-7.650739e-01
-1.088967e+00
-1.450448e+00
-1.852613e+00
-2.290219e+00
-2.765143e+00
-3.277990e+00
-3.827613e+00
-4.414840e+00
-5.039954e+00
-5.702724e+00
-6.403446e+00
-7.142304e+00
-7.919328e+00
-8.734673e+00
-9.588468e+00
-1.048082e+01
-1.141188e+01
-1.238185e+01
-1.339105e+01
-1.444019e+01
-1.553065e+01
-1.666480e+01
-1.784683e+01
-1.908372e+01
-2.038568e+01
-2.176764e+01
-2.326896e+01
-2.503824e+01
-2.748796e+01
0.000000e+00
-1.525119e-01
-3.969391e-01
-6.796548e-01
-1.005548e+00
-1.367320e+00
-1.768340e+00
-2.206813e+00
-2.681722e+00
-3.194243e+00
-3.744189e+00
-4.331470e+00
-4.956550e+00
-5.619479e+00
-6.320307e+00
-7.059247e+00
-7.836405e+00
-8.651880e+00
-9.505810e+00
-1.039830e+01
-1.132949e+01
-1.229958e+01
-1.330892e+01
-1.435816e+01
-1.544870e+01
-1.658302e+01
-1.776528e+01
-1.900227e+01
-2.030475e+01
-2.169088e+01
-2.320374e+01
-2.494614e+01
-2.715635e+01
0.000000e+00
-1.186391e-01
-3.373540e-01
-6.155511e-01
-9.385344e-01
-1.298389e+00
-1.697962e+00
-2.135862e+00
-2.610237e+00
-3.122406e+00
-3.672267e+00
-4.259487e+00
-4.884569e+00
-5.547602e+00
-6.248583e+00
-6.987730e+00
-7.765164e+00
-8.580987e+00
-9.435352e+00
-1.032839e+01
-1.126025e+01
-1.223122e+01
-1.324171e+01
-1.429245e+01
-1.538491e+01
-1.652171e+01
-1.770722e+01
-1.894883e+01
-2.025992e+01
-2.166508e+01
-2.319200e+01
-2.483255e+01
-2.656377e+01
0.000000e+00
-1.176387e-01
-3.134093e-01
-5.784838e-01
-8.926710e-01
-1.247232e+00
-1.643516e+00
-2.078934e+00
-2.551840e+00
-3.063105e+00
-3.612358e+00
-4.199304e+00
-4.824320e+00
-5.487445e+00
-6.188694e+00
-6.928262e+00
-7.706277e+00
-8.522871e+00
-9.378225e+00
-1.027252e+01
-1.120598e+01
-1.217898e+01
-1.319202e+01
-1.424591e+01
-1.534217e+01
-1.648344e+01
-1.767420e+01
-1.892238e+01
-2.024239e+01
-2.165696e+01
-2.316229e+01
-2.467439e+01
-2.606865e+01
0.000000e+00
-1.299994e-01
-3.165596e-01
-5.675379e-01
-8.691687e-01
-1.215983e+00
-1.606366e+00
-2.037373e+00
-2.507746e+00
-3.017250e+00
-3.565355e+00
-4.151808e+00
-4.776668e+00
-5.439928e+00
-6.141625e+00
-6.881894e+00
-7.660881e+00
-8.478758e+00
-9.335745e+00
-1.023209e+01
-1.116810e+01
-1.214419e+01
-1.316090e+01
-1.421904e+01
-1.532000e+01
-1.646616e+01
-1.766150e+01
-1.891297e+01
-2.023241e+01
-2.163174e+01
-2.308197e+01
-2.447072e+01
-2.570190e+01
0.000000e+00
-1.357506e-01
-3.226921e-01
-5.643701e-01
-8.574091e-01
-1.197216e+00
-1.581736e+00
-2.008554e+00
-2.476126e+00
-2.983738e+00
-3.530700e+00
-4.116635e+00
-4.741411e+00
-5.404948e+00
-6.107272e+00
-6.848496e+00
-7.628786e+00
-8.448360e+00
-9.307488e+00
-1.020648e+01
-1.114569e+01
-1.212552e+01
-1.314645e+01
-1.420911e+01
-1.531449e+01
-1.646424e+01
-1.766099e+01
-1.890895e+01
-2.021417e+01
-2.157757e+01
-2.295178e+01
-2.424267e+01
-2.536960e+01
0.000000e+00
-1.382937e-01
-3.256976e-01
-5.636650e-01
-8.512710e-01
-1.186280e+00
-1.566479e+00
-1.990002e+00
-2.455340e+00
-2.961431e+00
-3.507530e+00
-4.093144e+00
-4.717998e+00
-5.381973e+00
-6.085075e+00
-6.827417e+00
-7.609195e+00
-8.430678e+00
-9.292187e+00
-1.019408e+01
-1.113670e+01
-1.212039e+01
-1.314543e+01
-1.421206e+01
-1.532058e+01
-1.647145e+01
-1.766527e+01
-1.890248e+01
-2.018270e+01
-2.149734e+01
-2.279835e+01
-2.400918e+01
-2.506030e+01
0.000000e+00
-1.394672e-01
-3.270541e-01
-5.635378e-01
-8.485651e-01
-1.180807e+00
-1.558566e+00
-1.980163e+00
-2.444166e+00
-2.949441e+00
-3.495165e+00
-4.080779e+00
-4.705950e+00
-5.370525e+00
-6.074507e+00
-6.818023e+00
-7.601304e+00
-8.424667e+00
-9.288479e+00
-1.019312e+01
-1.113891e+01
-1.212604e+01
-1.315448e+01
-1.422392e+01
-1.533373e+01
-1.648285e+01
-1.766953e+01
-1.889050e+01
-2.013963e+01
-2.140213e+01
-2.263568e+01
-2.377902e+01
-2.477135e+01
0.000000e+00
-1.398880e-01
-3.276183e-01
-5.637989e-01
-8.481850e-01
-1.179710e+00
-1.556854e+00
-1.978039e+00
-2.441853e+00
-2.947159e+00
-3.493113e+00
-4.079139e+00
-4.704889e+00
-5.370213e+00
-6.075119e+00
-6.819756e+00
-7.604386e+00
-8.429366e+00
-9.295097e+00
-1.020197e+01
-1.115025e+01
-1.213997e+01
-1.317072e+01
-1.424153e+01
-1.535063e+01
-1.649537e+01
-1.767164e+01
-1.887306e+01
-2.008936e+01
-2.130227e+01
-2.247615e+01
-2.356272e+01
-2.451188e+01
0.000000e+00
-1.397334e-01
-3.276028e-01
-5.644186e-01
-8.498529e-01
-1.182592e+00
-1.560948e+00
-1.983250e+00
-2.448074e+00
-2.954298e+00
-3.501108e+00
-4.087961e+00
-4.714542e+00
-5.380721e+00
-6.086532e+00
-6.832141e+00
-7.617830e+00
-8.443974e+00
-9.310998e+00
-1.021929e+01
-1.116909e+01
-1.216026e+01
-1.319206e+01
-1.426276e+01
-1.536945e+01
-1.650780e+01
-1.767166e+01
-1.885231e+01
-2.003711e+01
-2.120697e+01
-2.233245e+01
-2.337627e+01
-2.429975e+01
0.000000e+00
-1.387995e-01
-3.267419e-01
-5.653527e-01
-8.537537e-01
-1.189735e+00
-1.571103e+00
-1.996003e+00
-2.462945e+00
-2.970887e+00
-3.519104e+00
-4.107132e+00
-4.734728e+00
-5.401813e+00
-6.108447e+00
-6.854806e+00
-7.641176e+00
-8.467926e+00
-9.335473e+00
-1.024421e+01
-1.119437e+01
-1.218577e+01
-1.321737e+01
-1.428674e+01
-1.538978e+01
-1.652058e+01
-1.767132e+01
-1.883178e+01
-1.998851e+01
-2.112356e+01
-2.221311e+01
-2.322914e+01
-2.414272e+01
0.000000e+00
-1.364381e-01
-3.241192e-01
-5.667154e-01
-8.609003e-01
-1.202111e+00
-1.588317e+00
-2.017119e+00
-2.486998e+00
-2.997269e+00
-3.547274e+00
-4.136669e+00
-4.765368e+00
-5.433334e+00
-6.140650e+00
-6.887506e+00
-7.674162e+00
-8.500955e+00
-9.368259e+00
-1.027644e+01
-1.122582e+01
-1.221631e+01
-1.324670e+01
-1.431389e+01
-1.541257e+01
-1.653543e+01
-1.767340e+01
-1.881552e+01
-1.994860e+01
-2.105673e+01
-2.212126e+01
-2.312182e+01
-2.403781e+01
0.000000e+00
-1.307726e-01
-3.181862e-01
-5.703176e-01
-8.733939e-01
-1.221969e+00
-1.614475e+00
-2.047968e+00
-2.521223e+00
-3.034055e+00
-3.585963e+00
-4.176734e+00
-4.806477e+00
-5.475222e+00
-6.183051e+00
-6.930159e+00
-7.716773e+00
-8.543171e+00
-9.409642e+00
-1.031649e+01
-1.126416e+01
-1.225286e+01
-1.328133e+01
-1.434575e+01
-1.543968e+01
-1.655467e+01
-1.768084e+01
-1.880704e+01
-1.992081e+01
-2.100857e+01
-2.205614e+01
-2.304987e+01
-2.397706e+01
0.000000e+00
-1.183396e-01
-3.150089e-01
-5.814130e-01
-8.972721e-01
-1.253847e+00
-1.652560e+00
-2.090814e+00
-2.567001e+00
-3.082066e+00
-3.635659e+00
-4.227529e+00
-4.858111e+00
-5.527461e+00
-6.235619e+00
-6.982808e+00
-7.769203e+00
-8.595008e+00
-9.460405e+00
-1.036559e+01
-1.131115e+01
-1.229756e+01
-1.332353e+01
-1.438455e+01
-1.547324e+01
-1.658039e+01
-1.769578e+01
-1.880841e+01
-1.990667e+01
-2.097896e+01
-2.201487e+01
-2.300670e+01
-2.395015e+01
0.000000e+00
-1.191406e-01
-3.388048e-01
-6.184055e-01
-9.431807e-01
-1.305162e+00
-1.707293e+00
-2.148187e+00
-2.626024e+00
-3.142214e+00
-3.696681e+00
-4.289132e+00
-4.920133e+00
-5.589782e+00
-6.298075e+00
-7.045237e+00
-7.831389e+00
-8.656651e+00
-9.521125e+00
-1.042494e+01
-1.136865e+01
-1.235273e+01
-1.337558e+01
-1.443218e+01
-1.551463e+01
-1.661355e+01
-1.771883e+01
-1.881980e+01
-1.990559e+01
-2.096602e+01
-2.199340e+01
-2.298491e+01
-2.394502e+01
0.000000e+00
-1.528971e-01
-3.983117e-01
-6.824487e-01
-1.010164e+00
-1.374099e+00
-1.777705e+00
-2.219208e+00
-2.697625e+00
-3.214216e+00
-3.768832e+00
-4.361420e+00
-4.992499e+00
-5.662125e+00
-6.370338e+00
-7.117343e+00
-7.903211e+00
-8.728000e+00
-9.591785e+00
-1.049473e+01
-1.143725e+01
-1.241924e+01
-1.343835e+01
-1.448911e+01
-1.556378e+01
-1.665347e+01
-1.774860e+01
-1.883902e+01
-1.991447e+01
-2.096567e+01
-2.198643e+01
-2.297700e+01
-2.394864e+01
0.000000e+00
-2.453991e-01
-4.788206e-01
-7.679059e-01
-1.093603e+00
-1.457253e+00
-1.862002e+00
-2.302626e+00
-2.781046e+00
-3.297944e+00
-3.852206e+00
-4.444697e+00
-5.075744e+00
-5.745117e+00
-6.453096e+00
-7.199851e+00
-7.985365e+00
-8.809691e+00
-9.672898e+00
-1.057523e+01
-1.151690e+01
-1.249677e+01
-1.351120e+01