TITLE = "Solution"
VARIABLES = x, y, u, v, psiu, psiv, t, stress
ZONE T="structure" N=561 E=512 F=FEBLOCK ET=QUADRILATERAL VARLOCATION=([7,8]=cellcentered)
0.000000e+00
6.250000e+00
1.250000e+01
1.875000e+01
2.500000e+01
3.125000e+01
3.750000e+01
4.375000e+01
5.000000e+01
5.625000e+01
6.250000e+01
6.875000e+01
7.500000e+01
8.125000e+01
8.750000e+01
9.375000e+01
1.000000e+02
1.062500e+02
1.125000e+02
1.187500e+02
1.250000e+02
1.312500e+02
1.375000e+02
1.437500e+02
1.500000e+02
1.562500e+02
1.625000e+02
1.687500e+02
1.750000e+02
1.812500e+02
1.875000e+02
1.937500e+02
2.000000e+02
0.000000e+00
6.250000e+00
1.250000e+01
1.875000e+01
2.500000e+01
3.125000e+01
3.750000e+01
4.375000e+01
5.000000e+01
5.625000e+01
6.250000e+01
6.875000e+01
7.500000e+01
8.125000e+01
8.750000e+01
9.375000e+01
1.000000e+02
1.062500e+02
1.125000e+02
1.187500e+02
1.250000e+02
1.312500e+02
1.375000e+02
1.437500e+02
1.500000e+02
1.562500e+02
1.625000e+02
1.687500e+02
1.750000e+02
1.812500e+02
1.875000e+02
1.937500e+02
2.000000e+02
0.000000e+00
6.250000e+00
1.250000e+01
1.875000e+01
2.500000e+01
3.125000e+01
3.750000e+01
4.375000e+01
5.000000e+01
5.625000e+01
6.250000e+01
6.875000e+01
7.500000e+01
8.125000e+01
8.750000e+01
9.375000e+01
1.000000e+02
1.062500e+02
1.125000e+02
1.187500e+02
1.250000e+02
1.312500e+02
1.375000e+02
1.437500e+02
1.500000e+02
1.562500e+02
1.625000e+02
1.687500e+02
1.750000e+02
1.812500e+02
1.875000e+02
1.937500e+02
2.000000e+02
0.000000e+00
6.250000e+00
1.250000e+01
1.875000e+01
2.500000e+01
3.125000e+01
3.750000e+01
4.375000e+01
5.000000e+01
5.625000e+01
6.250000e+01
6.875000e+01
7.500000e+01
8.125000e+01
8.750000e+01
9.375000e+01
1.000000e+02
1.062500e+02
1.125000e+02
1.187500e+02
1.250000e+02
1.312500e+02
1.375000e+02
1.437500e+02
1.500000e+02
1.562500e+02
1.625000e+02
1.687500e+02
1.750000e+02
1.812500e+02
1.875000e+02
1.937500e+02
2.000000e+02
0.000000e+00
6.250000e+00
1.250000e+01
1.875000e+01
2.500000e+01
3.125000e+01
3.750000e+01
4.375000e+01
5.000000e+01
5.625000e+01
6.250000e+01
6.875000e+01
7.500000e+01
8.125000e+01
8.750000e+01
9.375000e+01
1.000000e+02
1.062500e+02
1.125000e+02
1.187500e+02
1.250000e+02
1.312500e+02
1.375000e+02
1.437500e+02
1.500000e+02
1.562500e+02
1.625000e+02
1.687500e+02
1.750000e+02
1.812500e+02
1.875000e+02
1.937500e+02
2.000000e+02
0.000000e+00
6.250000e+00
1.250000e+01
1.875000e+01
2.500000e+01
3.125000e+01
3.750000e+01
4.375000e+01
5.000000e+01
5.625000e+01
6.250000e+01
6.875000e+01
7.500000e+01
8.125000e+01
8.750000e+01
9.375000e+01
1.000000e+02
1.062500e+02
1.125000e+02
1.187500e+02
1.250000e+02
1.312500e+02
1.375000e+02
1.437500e+02
1.500000e+02
1.562500e+02
1.625000e+02
1.687500e+02
1.750000e+02
1.812500e+02
1.875000e+02
1.937500e+02
2.000000e+02
0.000000e+00
6.250000e+00
1.250000e+01
1.875000e+01
2.500000e+01
3.125000e+01
3.750000e+01
4.375000e+01
5.000000e+01
5.625000e+01
6.250000e+01
6.875000e+01
7.500000e+01
8.125000e+01
8.750000e+01
9.375000e+01
1.000000e+02
1.062500e+02
1.125000e+02
1.187500e+02
1.250000e+02
1.312500e+02
1.375000e+02
1.437500e+02
1.500000e+02
1.562500e+02
1.625000e+02
1.687500e+02
1.750000e+02
1.812500e+02
1.875000e+02
1.937500e+02
2.000000e+02
0.000000e+00
6.250000e+00
1.250000e+01
1.875000e+01
2.500000e+01
3.125000e+01
3.750000e+01
4.375000e+01
5.000000e+01
5.625000e+01
6.250000e+01
6.875000e+01
7.500000e+01
8.125000e+01
8.750000e+01
9.375000e+01
1.000000e+02
1.062500e+02
1.125000e+02
1.187500e+02
1.250000e+02
1.312500e+02
1.375000e+02
1.437500e+02
1.500000e+02
1.562500e+02
1.625000e+02
1.687500e+02
1.750000e+02
1.812500e+02
1.875000e+02
1.937500e+02
2.000000e+02
0.000000e+00
6.250000e+00
1.250000e+01
1.875000e+01
2.500000e+01
3.125000e+01
3.750000e+01
4.375000e+01
5.000000e+01
5.625000e+01
6.250000e+01
6.875000e+01
7.500000e+01
8.125000e+01
8.750000e+01
9.375000e+01
1.000000e+02
1.062500e+02
1.125000e+02
1.187500e+02
1.250000e+02
1.312500e+02
1.375000e+02
1.437500e+02
1.500000e+02
1.562500e+02
1.625000e+02
1.687500e+02
1.750000e+02
1.812500e+02
1.875000e+02
1.937500e+02
2.000000e+02
0.000000e+00
6.250000e+00
1.250000e+01
1.875000e+01
2.500000e+01
3.125000e+01
3.750000e+01
4.375000e+01
5.000000e+01
5.625000e+01
6.250000e+01
6.875000e+01
7.500000e+01
8.125000e+01
8.750000e+01
9.375000e+01
1.000000e+02
1.062500e+02
1.125000e+02
1.187500e+02
1.250000e+02
1.312500e+02
1.375000e+02
1.437500e+02
1.500000e+02
1.562500e+02
1.625000e+02
1.687500e+02
1.750000e+02
1.812500e+02
1.875000e+02
1.937500e+02
2.000000e+02
0.000000e+00
6.250000e+00
1.250000e+01
1.875000e+01
2.500000e+01
3.125000e+01
3.750000e+01
4.375000e+01
5.000000e+01
5.625000e+01
6.250000e+01
6.875000e+01
7.500000e+01
8.125000e+01
8.750000e+01
9.375000e+01
1.000000e+02
1.062500e+02
1.125000e+02
1.187500e+02
1.250000e+02
1.312500e+02
1.375000e+02
1.437500e+02
1.500000e+02
1.562500e+02
1.625000e+02
1.687500e+02
1.750000e+02
1.812500e+02
1.875000e+02
1.937500e+02
2.000000e+02
0.000000e+00
6.250000e+00
1.250000e+01
1.875000e+01
2.500000e+01
3.125000e+01
3.750000e+01
4.375000e+01
5.000000e+01
5.625000e+01
6.250000e+01
6.875000e+01
7.500000e+01
8.125000e+01
8.750000e+01
9.375000e+01
1.000000e+02
1.062500e+02
1.125000e+02
1.187500e+02
1.250000e+02
1.312500e+02
1.375000e+02
1.437500e+02
1.500000e+02
1.562500e+02
1.625000e+02
1.687500e+02
1.750000e+02
1.812500e+02
1.875000e+02
1.937500e+02
2.000000e+02
0.000000e+00
6.250000e+00
1.250000e+01
1.875000e+01
2.500000e+01
3.125000e+01
3.750000e+01
4.375000e+01
5.000000e+01
5.625000e+01
6.250000e+01
6.875000e+01
7.500000e+01
8.125000e+01
8.750000e+01
9.375000e+01
1.000000e+02
1.062500e+02
1.125000e+02
1.187500e+02
1.250000e+02
1.312500e+02
1.375000e+02
1.437500e+02
1.500000e+02
1.562500e+02
1.625000e+02
1.687500e+02
1.750000e+02
1.812500e+02
1.875000e+02
1.937500e+02
2.000000e+02
0.000000e+00
6.250000e+00
1.250000e+01
1.875000e+01
2.500000e+01
3.125000e+01
3.750000e+01
4.375000e+01
5.000000e+01
5.625000e+01
6.250000e+01
6.875000e+01
7.500000e+01
8.125000e+01
8.750000e+01
9.375000e+01
1.000000e+02
1.062500e+02
1.125000e+02
1.187500e+02
1.250000e+02
1.312500e+02
1.375000e+02
1.437500e+02
1.500000e+02
1.562500e+02
1.625000e+02
1.687500e+02
1.750000e+02
1.812500e+02
1.875000e+02
1.937500e+02
2.000000e+02
0.000000e+00
6.250000e+00
1.250000e+01
1.875000e+01
2.500000e+01
3.125000e+01
3.750000e+01
4.375000e+01
5.000000e+01
5.625000e+01
6.250000e+01
6.875000e+01
7.500000e+01
8.125000e+01
8.750000e+01
9.375000e+01
1.000000e+02
1.062500e+02
1.125000e+02
1.187500e+02
1.250000e+02
1.312500e+02
1.375000e+02
1.437500e+02
1.500000e+02
1.562500e+02
1.625000e+02
1.687500e+02
1.750000e+02
1.812500e+02
1.875000e+02
1.937500e+02
2.000000e+02
0.000000e+00
6.250000e+00
1.250000e+01
1.875000e+01
2.500000e+01
3.125000e+01
3.750000e+01
4.375000e+01
5.000000e+01
5.625000e+01
6.250000e+01
6.875000e+01
7.500000e+01
8.125000e+01
8.750000e+01
9.375000e+01
1.000000e+02
1.062500e+02
1.125000e+02
1.187500e+02
1.250000e+02
1.312500e+02
1.375000e+02
1.437500e+02
1.500000e+02
1.562500e+02
1.625000e+02
1.687500e+02
1.750000e+02
1.812500e+02
1.875000e+02
1.937500e+02
2.000000e+02
0.000000e+00
6.250000e+00
1.250000e+01
1.875000e+01
2.500000e+01
3.125000e+01
3.750000e+01
4.375000e+01
5.000000e+01
5.625000e+01
6.250000e+01
6.875000e+01
7.500000e+01
8.125000e+01
8.750000e+01
9.375000e+01
1.000000e+02
1.062500e+02
1.125000e+02
1.187500e+02
1.250000e+02
1.312500e+02
1.375000e+02
1.437500e+02
1.500000e+02
1.562500e+02
1.625000e+02
1.687500e+02
1.750000e+02
1.812500e+02
1.875000e+02
1.937500e+02
2.000000e+02
0.000000e+00
0.000000e+00
0.000000e+00
0.000000e+00
0.000000e+00
0.000000e+00
0.000000e+00
0.000000e+00
0.000000e+00
0.000000e+00
0.000000e+00
0.000000e+00
0.000000e+00
0.000000e+00
0.000000e+00
0.000000e+00
0.000000e+00
0.000000e+00
0.000000e+00
0.000000e+00
0.000000e+00
0.000000e+00
0.000000e+00
0.000000e+00
0.000000e+00
0.000000e+00
0.000000e+00
0.000000e+00
0.000000e+00
0.000000e+00
0.000000e+00
0.000000e+00
0.000000e+00
6.250000e+00
6.250000e+00
6.250000e+00
6.250000e+00
6.250000e+00
6.250000e+00
6.250000e+00
6.250000e+00
6.250000e+00
6.250000e+00
6.250000e+00
6.250000e+00
6.250000e+00
6.250000e+00
6.250000e+00
6.250000e+00
6.250000e+00
6.250000e+00
6.250000e+00
6.250000e+00
6.250000e+00
6.250000e+00
6.250000e+00
6.250000e+00
6.250000e+00
6.250000e+00
6.250000e+00
6.250000e+00
6.250000e+00
6.250000e+00
6.250000e+00
6.250000e+00
6.250000e+00
1.250000e+01
1.250000e+01
1.250000e+01
1.250000e+01
1.250000e+01
1.250000e+01
1.250000e+01
1.250000e+01
1.250000e+01
1.250000e+01
1.250000e+01
1.250000e+01
1.250000e+01
1.250000e+01
1.250000e+01
1.250000e+01
1.250000e+01
1.250000e+01
1.250000e+01
1.250000e+01
1.250000e+01
1.250000e+01
1.250000e+01
1.250000e+01
1.250000e+01
1.250000e+01
1.250000e+01
1.250000e+01
1.250000e+01
1.250000e+01
1.250000e+01
1.250000e+01
1.250000e+01
1.875000e+01
1.875000e+01
1.875000e+01
1.875000e+01
1.875000e+01
1.875000e+01
1.875000e+01
1.875000e+01
1.875000e+01
1.875000e+01
1.875000e+01
1.875000e+01
1.875000e+01
1.875000e+01
1.875000e+01
1.875000e+01
1.875000e+01
1.875000e+01
1.875000e+01
1.875000e+01
1.875000e+01
1.875000e+01
1.875000e+01
1.875000e+01
1.875000e+01
1.875000e+01
1.875000e+01
1.875000e+01
1.875000e+01
1.875000e+01
1.875000e+01
1.875000e+01
1.875000e+01
2.500000e+01
2.500000e+01
2.500000e+01
2.500000e+01
2.500000e+01
2.500000e+01
2.500000e+01
2.500000e+01
2.500000e+01
2.500000e+01
2.500000e+01
2.500000e+01
2.500000e+01
2.500000e+01
2.500000e+01
2.500000e+01
2.500000e+01
2.500000e+01
2.500000e+01
2.500000e+01
2.500000e+01
2.500000e+01
2.500000e+01
2.500000e+01
2.500000e+01
2.500000e+01
2.500000e+01
2.500000e+01
2.500000e+01
2.500000e+01
2.500000e+01
2.500000e+01
2.500000e+01
3.125000e+01
3.125000e+01
3.125000e+01
3.125000e+01
3.125000e+01
3.125000e+01
3.125000e+01
3.125000e+01
3.125000e+01
3.125000e+01
3.125000e+01
3.125000e+01
3.125000e+01
3.125000e+01
3.125000e+01
3.125000e+01
3.125000e+01
3.125000e+01
3.125000e+01
3.125000e+01
3.125000e+01
3.125000e+01
3.125000e+01
3.125000e+01
3.125000e+01
3.125000e+01
3.125000e+01
3.125000e+01
3.125000e+01
3.125000e+01
3.125000e+01
3.125000e+01
3.125000e+01
3.750000e+01
3.750000e+01
3.750000e+01
3.750000e+01
3.750000e+01
3.750000e+01
3.750000e+01
3.750000e+01
3.750000e+01
3.750000e+01
3.750000e+01
3.750000e+01
3.750000e+01
3.750000e+01
3.750000e+01
3.750000e+01
3.750000e+01
3.750000e+01
3.750000e+01
3.750000e+01
3.750000e+01
3.750000e+01
3.750000e+01
3.750000e+01
3.750000e+01
3.750000e+01
3.750000e+01
3.750000e+01
3.750000e+01
3.750000e+01
3.750000e+01
3.750000e+01
3.750000e+01
4.375000e+01
4.375000e+01
4.375000e+01
4.375000e+01
4.375000e+01
4.375000e+01
4.375000e+01
4.375000e+01
4.375000e+01
4.375000e+01
4.375000e+01
4.375000e+01
4.375000e+01
4.375000e+01
4.375000e+01
4.375000e+01
4.375000e+01
4.375000e+01
4.375000e+01
4.375000e+01
4.375000e+01
4.375000e+01
4.375000e+01
4.375000e+01
4.375000e+01
4.375000e+01
4.375000e+01
4.375000e+01
4.375000e+01
4.375000e+01
4.375000e+01
4.375000e+01
4.375000e+01
5.000000e+01
5.000000e+01
5.000000e+01
5.000000e+01
5.000000e+01
5.000000e+01
5.000000e+01
5.000000e+01
5.000000e+01
5.000000e+01
5.000000e+01
5.000000e+01
5.000000e+01
5.000000e+01
5.000000e+01
5.000000e+01
5.000000e+01
5.000000e+01
5.000000e+01
5.000000e+01
5.000000e+01
5.000000e+01
5.000000e+01
5.000000e+01
5.000000e+01
5.000000e+01
5.000000e+01
5.000000e+01
5.000000e+01
5.000000e+01
5.000000e+01
5.000000e+01
5.000000e+01
5.625000e+01
5.625000e+01
5.625000e+01
5.625000e+01
5.625000e+01
5.625000e+01
5.625000e+01
5.625000e+01
5.625000e+01
5.625000e+01
5.625000e+01
5.625000e+01
5.625000e+01
5.625000e+01
5.625000e+01
5.625000e+01
5.625000e+01
5.625000e+01
5.625000e+01
5.625000e+01
5.625000e+01
5.625000e+01
5.625000e+01
5.625000e+01
5.625000e+01
5.625000e+01
5.625000e+01
5.625000e+01
5.625000e+01
5.625000e+01
5.625000e+01
5.625000e+01
5.625000e+01
6.250000e+01
6.250000e+01
6.250000e+01
6.250000e+01
6.250000e+01
6.250000e+01
6.250000e+01
6.250000e+01
6.250000e+01
6.250000e+01
6.250000e+01
6.250000e+01
6.250000e+01
6.250000e+01
6.250000e+01
6.250000e+01
6.250000e+01
6.250000e+01
6.250000e+01
6.250000e+01
6.250000e+01
6.250000e+01
6.250000e+01
6.250000e+01
6.250000e+01
6.250000e+01
6.250000e+01
6.250000e+01
6.250000e+01
6.250000e+01
6.250000e+01
6.250000e+01
6.250000e+01
6.875000e+01
6.875000e+01
6.875000e+01
6.875000e+01
6.875000e+01
6.875000e+01
6.875000e+01
6.875000e+01
6.875000e+01
6.875000e+01
6.875000e+01
6.875000e+01
6.875000e+01
6.875000e+01
6.875000e+01
6.875000e+01
6.875000e+01
6.875000e+01
6.875000e+01
6.875000e+01
6.875000e+01
6.875000e+01
6.875000e+01
6.875000e+01
6.875000e+01
6.875000e+01
6.875000e+01
6.875000e+01
6.875000e+01
6.875000e+01
6.875000e+01
6.875000e+01
6.875000e+01
7.500000e+01
7.500000e+01
7.500000e+01
7.500000e+01
7.500000e+01
7.500000e+01
7.500000e+01
7.500000e+01
7.500000e+01
7.500000e+01
7.500000e+01
7.500000e+01
7.500000e+01
7.500000e+01
7.500000e+01
7.500000e+01
7.500000e+01
7.500000e+01
7.500000e+01
7.500000e+01
7.500000e+01
7.500000e+01
7.500000e+01
7.500000e+01
7.500000e+01
7.500000e+01
7.500000e+01
7.500000e+01
7.500000e+01
7.500000e+01
7.500000e+01
7.500000e+01
7.500000e+01
8.125000e+01
8.125000e+01
8.125000e+01
8.125000e+01
8.125000e+01
8.125000e+01
8.125000e+01
8.125000e+01
8.125000e+01
8.125000e+01
8.125000e+01
8.125000e+01
8.125000e+01
8.125000e+01
8.125000e+01
8.125000e+01
8.125000e+01
8.125000e+01
8.125000e+01
8.125000e+01
8.125000e+01
8.125000e+01
8.125000e+01
8.125000e+01
8.125000e+01
8.125000e+01
8.125000e+01
8.125000e+01
8.125000e+01
8.125000e+01
8.125000e+01
8.125000e+01
8.125000e+01
8.750000e+01
8.750000e+01
8.750000e+01
8.750000e+01
8.750000e+01
8.750000e+01
8.750000e+01
8.750000e+01
8.750000e+01
8.750000e+01
8.750000e+01
8.750000e+01
8.750000e+01
8.750000e+01
8.750000e+01
8.750000e+01
8.750000e+01
8.750000e+01
8.750000e+01
8.750000e+01
8.750000e+01
8.750000e+01
8.750000e+01
8.750000e+01
8.750000e+01
8.750000e+01
8.750000e+01
8.750000e+01
8.750000e+01
8.750000e+01
8.750000e+01
8.750000e+01
8.750000e+01
9.375000e+01
9.375000e+01
9.375000e+01
9.375000e+01
9.375000e+01
9.375000e+01
9.375000e+01
9.375000e+01
9.375000e+01
9.375000e+01
9.375000e+01
9.375000e+01
9.375000e+01
9.375000e+01
9.375000e+01
9.375000e+01
9.375000e+01
9.375000e+01
9.375000e+01
9.375000e+01
9.375000e+01
9.375000e+01
9.375000e+01
9.375000e+01
9.375000e+01
9.375000e+01
9.375000e+01
9.375000e+01
9.375000e+01
9.375000e+01
9.375000e+01
9.375000e+01
9.375000e+01
1.000000e+02
1.000000e+02
1.000000e+02
1.000000e+02
1.000000e+02
1.000000e+02
1.000000e+02
1.000000e+02
1.000000e+02
1.000000e+02
1.000000e+02
1.000000e+02
1.000000e+02
1.000000e+02
1.000000e+02
1.000000e+02
1.000000e+02
1.000000e+02
1.000000e+02
1.000000e+02
1.000000e+02
1.000000e+02
1.000000e+02
1.000000e+02
1.000000e+02
1.000000e+02
1.000000e+02
1.000000e+02
1.000000e+02
1.000000e+02
1.000000e+02
1.000000e+02
1.000000e+02
0.000000e+00
-4.694425e-02
-8.517409e-02
-1.205886e-01
-1.545767e-01
-1.873972e-01
-2.191163e-01
-2.497310e-01
-2.792221e-01
-3.075681e-01
-3.347513e-01
-3.607594e-01
-3.855860e-01
-4.092307e-01
-4.316990e-01
-4.530027e-01
-4.731608e-01
-4.922012e-01
-5.101621e-01
-5.270951e-01
-5.430692e-01
-5.581753e-01
-5.725338e-01
-5.863044e-01
-5.997010e-01
-6.130142e-01
-6.266477e-01
-6.411773e-01
-6.574477e-01
-6.767017e-01
-7.005516e-01
-7.289741e-01
-7.463200e-01
0.000000e+00
-3.147485e-02
-6.548681e-02
-9.755561e-02
-1.280358e-01
-1.572175e-01
-1.852550e-01
-2.122158e-01
-2.381266e-01
-2.629964e-01
-2.868266e-01
-3.096174e-01
-3.313697e-01
-3.520872e-01
-3.717766e-01
-3.904490e-01
-4.081203e-01
-4.248122e-01
-4.405537e-01
-4.553823e-01
-4.693461e-01
-4.825053e-01
-4.949349e-01
-5.067267e-01
-5.179902e-01
-5.288515e-01
-5.394437e-01
-5.498765e-01
-5.601489e-01
-5.699269e-01
-5.780747e-01
-5.828383e-01
-5.894699e-01
0.000000e+00
-2.496593e-02
-5.139837e-02
-7.831080e-02
-1.044614e-01
-1.296482e-01
-1.538553e-01
-1.771055e-01
-1.994194e-01
-2.208111e-01
-2.412897e-01
-2.608615e-01
-2.795319e-01
-2.973066e-01
-3.141919e-01
-3.301963e-01
-3.453299e-01
-3.596060e-01
-3.730405e-01
-3.856526e-01
-3.974644e-01
-4.084997e-01
-4.187821e-01
-4.283297e-01
-4.371465e-01
-4.452040e-01
-4.524102e-01
-4.585529e-01
-4.632166e-01
-4.657279e-01
-4.655077e-01
-4.640976e-01
-4.718416e-01
0.000000e+00
-1.980825e-02
-4.071047e-02
-6.218489e-02
-8.360899e-02
-1.045142e-01
-1.247214e-01
-1.441664e-01
-1.628319e-01
-1.807170e-01
-1.978264e-01
-2.141659e-01
-2.297409e-01
-2.445562e-01
-2.586164e-01
-2.719253e-01
-2.844867e-01
-2.963037e-01
-3.073787e-01
-3.177124e-01
-3.273022e-01
-3.361392e-01
-3.442039e-01
-3.514587e-01
-3.578367e-01
-3.632252e-01
-3.674460e-01
-3.702410e-01
-3.713082e-01
-3.705160e-01
-3.685918e-01
-3.684770e-01
-3.758551e-01
0.000000e+00
-1.537397e-02
-3.148065e-02
-4.810184e-02
-6.485807e-02
-8.140879e-02
-9.752564e-02
-1.130930e-01
-1.280583e-01
-1.424013e-01
-1.561167e-01
-1.692053e-01
-1.816695e-01
-1.935114e-01
-2.047318e-01
-2.153296e-01
-2.253017e-01
-2.346419e-01
-2.433406e-01
-2.513833e-01
-2.587483e-01
-2.654041e-01
-2.713053e-01
-2.763869e-01
-2.805593e-01
-2.837043e-01
-2.856833e-01
-2.863775e-01
-2.858080e-01
-2.844144e-01
-2.835103e-01
-2.855981e-01
-2.918920e-01
0.000000e+00
-1.129897e-02
-2.308204e-02
-3.524365e-02
-4.757369e-02
-5.984198e-02
-7.186580e-02
-8.352639e-02
-9.475855e-02
-1.055306e-01
-1.158291e-01
-1.256494e-01
-1.349898e-01
-1.438487e-01
-1.522226e-01
-1.601057e-01
-1.674886e-01
-1.743577e-01
-1.806945e-01
-1.864742e-01
-1.916643e-01
-1.962226e-01
-2.000960e-01
-2.032194e-01
-2.055186e-01
-2.069216e-01
-2.073870e-01
-2.069693e-01
-2.059398e-01
-2.049603e-01
-2.051988e-01
-2.078604e-01
-2.130681e-01
0.000000e+00
-7.436082e-03
-1.516630e-02
-2.314173e-02
-3.124867e-02
-3.935064e-02
-4.732546e-02
-5.508407e-02
-6.257073e-02
-6.975469e-02
-7.662040e-02
-8.316006e-02
-8.936865e-02
-9.524101e-02
-1.007700e-01
-1.059456e-01
-1.107539e-01
-1.151762e-01
-1.191889e-01
-1.227625e-01
-1.258610e-01
-1.284424e-01
-1.304598e-01
-1.318657e-01
-1.326211e-01
-1.327148e-01
-1.321983e-01
-1.312426e-01
-1.302113e-01
-1.297114e-01
-1.304914e-01
-1.330827e-01
-1.372865e-01
0.000000e+00
-3.693500e-03
-7.526636e-03
-1.147971e-02
-1.550279e-02
-1.953232e-02
-2.350796e-02
-2.738247e-02
-3.112394e-02
-3.471288e-02
-3.813775e-02
-4.139090e-02
-4.446568e-02
-4.735446e-02
-5.004739e-02
-5.253155e-02
-5.479026e-02
-5.680269e-02
-5.854352e-02
-5.998311e-02
-6.108819e-02
-6.182376e-02
-6.215697e-02
-6.206429e-02
-6.154390e-02
-6.063550e-02
-5.944904e-02
-5.819890e-02
-5.722842e-02
-5.698531e-02
-5.790038e-02
-6.016096e-02
-6.349656e-02
0.000000e+00
-5.959130e-06
-1.292109e-05
-2.050019e-05
-2.829778e-05
-3.577633e-05
-4.212575e-05
-4.611499e-05
-4.591867e-05
-3.890828e-05
-2.140019e-05
1.164403e-05
6.696455e-05
1.533898e-04
2.822442e-04
4.677410e-04
7.273012e-04
1.081698e-03
1.554870e-03
2.173172e-03
2.963700e-03
3.951186e-03
5.152760e-03
6.569724e-03
8.175535e-03
9.899852e-03
1.161065e-02
1.310116e-02
1.409614e-02
1.429792e-02
1.348547e-02
1.164555e-02
9.068632e-03
0.000000e+00
3.682276e-03
7.502249e-03
1.144094e-02
1.544915e-02
1.946431e-02
2.342758e-02
2.729401e-02
3.103511e-02
3.463630e-02
3.809293e-02
4.140682e-02
4.458399e-02
4.763343e-02
5.056667e-02
5.339765e-02
5.614271e-02
5.882050e-02
6.145143e-02
6.405653e-02
6.665526e-02
6.926193e-02
7.188026e-02
7.449571e-02
7.706577e-02
7.950933e-02
8.169848e-02
8.345923e-02
8.459056e-02
8.491085e-02
8.433077e-02
8.293307e-02
8.102049e-02
0.000000e+00
7.426913e-03
1.514623e-02
2.310962e-02
3.120388e-02
3.929332e-02
4.725693e-02
5.500745e-02
6.249186e-02
6.968334e-02
7.657194e-02
8.315749e-02
8.944533e-02
9.544393e-02
1.011638e-01
1.066172e-01
1.118176e-01
1.167800e-01
1.215198e-01
1.260516e-01
1.303872e-01
1.345321e-01
1.384806e-01
1.422099e-01
1.456733e-01
1.487938e-01
1.514630e-01
1.535477e-01
1.549122e-01
1.554578e-01
1.551773e-01
1.542101e-01
1.528753e-01
0.000000e+00
1.129312e-02
2.306900e-02
3.522243e-02
4.754356e-02
5.980265e-02
7.181768e-02
8.347099e-02
9.469909e-02
1.054727e-01
1.157821e-01
1.256275e-01
1.350138e-01
1.439484e-01
1.524397e-01
1.604967e-01
1.681289e-01
1.753461e-01
1.821573e-01
1.885706e-01
1.945904e-01
2.002152e-01
2.054343e-01
2.102230e-01
2.145389e-01
2.183194e-01
2.214829e-01
2.239382e-01
2.256032e-01
2.264375e-01
2.264845e-01
2.259171e-01
2.250735e-01
0.000000e+00
1.537251e-02
3.147701e-02
4.809534e-02
6.484802e-02
8.139462e-02
9.750698e-02
1.130698e-01
1.280310e-01
1.423712e-01
1.560861e-01
1.691781e-01
1.816519e-01
1.935128e-01
2.047657e-01
2.154153e-01
2.254654e-01
2.349195e-01
2.437798e-01
2.520467e-01
2.597178e-01
2.667859e-01
2.732376e-01
2.790504e-01
2.841917e-01
2.886184e-01
2.922798e-01
2.951254e-01
2.971197e-01
2.982655e-01
2.986371e-01
2.984241e-01
2.979797e-01
0.000000e+00
1.981193e-02
4.071795e-02
6.219602e-02
8.362346e-02
1.045315e-01
1.247411e-01
1.441874e-01
1.628526e-01
1.807350e-01
1.978377e-01
2.141648e-01
2.297192e-01
2.445027e-01
2.585157e-01
2.717569e-01
2.842238e-01
2.959123e-01
3.068168e-01
3.169295e-01
3.262401e-01
3.347357e-01
3.424001e-01
3.492140e-01
3.551558e-01
3.602030e-01
3.643368e-01
3.675479e-01
3.698460e-01
3.712742e-01
3.719311e-01
3.720095e-01
3.718620e-01
0.000000e+00
2.497491e-02
5.141754e-02
7.834083e-02
1.045028e-01
1.297016e-01
1.539207e-01
1.771821e-01
1.995052e-01
2.209015e-01
2.413770e-01
2.609332e-01
2.795688e-01
2.972803e-01
3.140621e-01
3.299067e-01
3.448043e-01
3.587426e-01
3.717071e-01
3.836803e-01
3.946427e-01
4.045730e-01
4.134495e-01
4.212524e-01
4.279668e-01
4.335877e-01
4.381252e-01
4.416114e-01
4.441063e-01
4.457043e-01
4.465407e-01
4.468132e-01
4.468457e-01
0.000000e+00
3.148834e-02
6.551628e-02
9.760300e-02
1.281034e-01
1.573077e-01
1.853697e-01
2.123561e-01
2.382921e-01
2.631836e-01
2.870279e-01
3.098183e-01
3.315464e-01
3.522020e-01
3.717736e-01
3.902472e-01
4.076059e-01
4.238293e-01
4.388930e-01
4.527687e-01
4.654242e-01
4.768257e-01
4.869392e-01
4.957360e-01
5.031977e-01
5.093247e-01
5.141460e-01
5.177294e-01
5.201911e-01
5.216994e-01
5.224700e-01
5.227494e-01
5.228178e-01
0.000000e+00
4.695901e-02
8.520854e-02
1.206477e-01
1.546650e-01
1.875197e-01
2.192779e-01
2.499365e-01
2.794752e-01
3.078703e-01
3.351001e-01
3.611455e-01
3.859899e-01
4.096173e-01
4.320113e-01
4.531531e-01
4.730203e-01
4.915853e-01
5.088140e-01
5.246657e-01
5.390926e-01
5.520416e-01
5.634572e-01
5.732871e-01
5.814906e-01
5.880511e-01
5.929921e-01
5.963960e-01
5.984248e-01
5.993390e-01
5.995051e-01
5.993675e-01
5.992901e-01
0.000000e+00
-2.901065e-02
-5.062985e-02
-7.422161e-02
-1.004924e-01
-1.301680e-01
-1.634544e-01
-2.004096e-01
-2.409968e-01
-2.851290e-01
-3.326892e-01
-3.835428e-01
-4.375447e-01
-4.945438e-01
-5.543860e-01
-6.169161e-01
-6.819796e-01
-7.494251e-01
-8.191060e-01
-8.908844e-01
-9.646352e-01
-1.040254e+00
-1.117664e+00
-1.196837e+00
-1.277812e+00
-1.360739e+00
-1.445948e+00
-1.534081e+00
-1.626370e+00
-1.725249e+00
-1.835977e+00
-1.970953e+00
-2.157426e+00
0.000000e+00
-1.802901e-02
-4.065862e-02
-6.440952e-02
-9.104651e-02
-1.210444e-01
-1.546543e-01
-1.919330e-01
-2.328469e-01
-2.773089e-01
-3.252015e-01
-3.763889e-01
-4.307250e-01
-4.880571e-01
-5.482299e-01
-6.110865e-01
-6.764706e-01
-7.442285e-01
-8.142107e-01
-8.862760e-01
-9.602949e-01
-1.036157e+00
-1.113780e+00
-1.193126e+00
-1.274224e+00
-1.357209e+00
-1.442394e+00
-1.530403e+00
-1.622440e+00
-1.720900e+00
-1.830772e+00
-1.962744e+00
-2.136958e+00
0.000000e+00
-1.324335e-02
-3.277878e-02
-5.620569e-02
-8.288922e-02
-1.131082e-01
-1.469834e-01
-1.845461e-01
-2.257514e-01
-2.705080e-01
-3.186963e-01
-3.701796e-01
-4.248108e-01
-4.824372e-01
-5.429024e-01
-6.060492e-01
-6.717205e-01
-7.397616e-01
-8.100222e-01
-8.823597e-01
-9.566437e-01
-1.032763e+00
-1.110635e+00
-1.190222e+00
-1.271558e+00
-1.354785e+00
-1.440230e+00
-1.528531e+00
-1.620880e+00
-1.719433e+00
-1.827875e+00
-1.950563e+00
-2.086659e+00
0.000000e+00
-1.060471e-02
-2.775702e-02
-4.993468e-02
-7.627529e-02
-1.064849e-01
-1.405049e-01
-1.782782e-01
-2.197232e-01
-2.647322e-01
-3.131780e-01
-3.649204e-01
-4.198111e-01
-4.776970e-01
-5.384221e-01
-6.018293e-01
-6.677623e-01
-7.360668e-01
-8.065933e-01
-8.792005e-01
-9.537597e-01
-1.030162e+00
-1.108330e+00
-1.188231e+00
-1.269906e+00
-1.353506e+00
-1.439353e+00
-1.528037e+00
-1.620532e+00
-1.718258e+00
-1.822577e+00
-1.932600e+00
-2.035021e+00
0.000000e+00
-8.973335e-03
-2.447297e-02
-4.548153e-02
-7.122168e-02
-1.012332e-01
-1.352661e-01
-1.731620e-01
-2.147842e-01
-2.599964e-01
-3.086575e-01
-3.606207e-01
-4.157351e-01
-4.738471e-01
-5.348013e-01
-5.984417e-01
-6.646135e-01
-7.331643e-01
-8.039465e-01
-8.768212e-01
-9.516626e-01
-1.028365e+00
-1.106854e+00
-1.187100e+00
-1.269141e+00
-1.353108e+00
-1.439265e+00
-1.528036e+00
-1.619980e+00
-1.715550e+00
-1.814289e+00
-1.912572e+00
-2.001769e+00
0.000000e+00
-7.935273e-03
-2.231821e-02
-4.241706e-02
-6.757779e-02
-9.730818e-02
-1.312670e-01
-1.692115e-01
-2.109502e-01
-2.563148e-01
-3.051465e-01
-3.572899e-01
-4.125904e-01
-4.708938e-01
-5.320452e-01
-5.958905e-01
-6.622767e-01
-7.310537e-01
-8.020763e-01
-8.752078e-01
-9.503241e-01
-1.027320e+00
-1.106120e+00
-1.186684e+00
-1.269028e+00
-1.353230e+00
-1.439438e+00
-1.527840e+00
-1.618538e+00
-1.711225e+00
-1.804489e+00
-1.894998e+00
-1.977724e+00
0.000000e+00
-7.290129e-03
-2.095588e-02
-4.042509e-02
-6.513665e-02
-9.461085e-02
-1.284689e-01
-1.664181e-01
-2.082257e-01
-2.536957e-01
-3.026532e-01
-3.549342e-01
-4.103808e-01
-4.688379e-01
-5.301516e-01
-5.941696e-01
-6.607408e-01
-7.297172e-01
-8.009555e-01
-8.743196e-01
-9.496846e-01
-1.026941e+00
-1.106002e+00
-1.186808e+00
-1.269331e+00
-1.353572e+00
-1.439540e+00
-1.527183e+00
-1.616251e+00
-1.706017e+00
-1.794930e+00
-1.880424e+00
-1.959360e+00
0.000000e+00
-6.935613e-03
-2.019994e-02
-3.930257e-02
-6.373687e-02
-9.303967e-02
-1.268200e-01
-1.647609e-01
-2.066057e-01
-2.521410e-01
-3.011808e-01
-3.535557e-01
-4.091055e-01
-4.676750e-01
-5.291117e-01
-5.932646e-01
-6.599848e-01
-7.291254e-01
-8.005435e-01
-8.741017e-01
-9.496706e-01
-1.027131e+00
-1.106379e+00
-1.187321e+00
-1.269878e+00
-1.353964e+00
-1.439455e+00
-1.526118e+00
-1.613491e+00
-1.700714e+00
-1.786387e+00
-1.868580e+00
-1.945152e+00
0.000000e+00
-6.821389e-03
-1.995606e-02
-3.893875e-02
-6.328067e-02
-9.252546e-02
-1.262799e-01
-1.642202e-01
-2.060826e-01
-2.516483e-01
-3.007283e-01
-3.531520e-01
-4.087594e-01
-4.673962e-01
-5.289115e-01
-5.931558e-01
-6.599814e-01
-7.292420e-01
-8.007935e-01
-8.744949e-01
-9.502090e-01
-1.027803e+00
-1.107149e+00
-1.188118e+00
-1.270573e+00
-1.354351e+00
-1.439223e+00
-1.524841e+00
-1.610651e+00
-1.695808e+00
-1.779126e+00
-1.859134e+00
-1.934263e+00
0.000000e+00
-6.932309e-03
-2.019536e-02
-3.929862e-02
-6.373568e-02
-9.304386e-02
-1.268330e-01
-1.647873e-01
-2.066517e-01
-2.522144e-01
-3.012920e-01
-3.537175e-01
-4.093339e-01
-4.679892e-01
-5.295341e-01
-5.938206e-01
-6.607016e-01
-7.300302e-01
-8.016599e-01
-8.754443e-01
-9.512364e-01
-1.028887e+00
-1.108243e+00
-1.189138e+00
-1.271386e+00
-1.354758e+00
-1.438955e+00
-1.523568e+00
-1.608026e+00
-1.691561e+00
-1.773195e+00
-1.851790e+00
-1.926147e+00
0.000000e+00
-7.283789e-03
-2.094708e-02
-4.041748e-02
-6.513427e-02
-9.461872e-02
-1.284936e-01
-1.664685e-01
-2.083135e-01
-2.538363e-01
-3.028660e-01
-3.552442e-01
-4.108186e-01
-4.694403e-01
-5.309620e-01
-5.952367e-01
-6.621173e-01
-7.314558e-01
-8.031024e-01
-8.769043e-01
-9.527037e-01
-1.030335e+00
-1.109620e+00
-1.190361e+00
-1.272328e+00
-1.355246e+00
-1.438774e+00
-1.522476e+00
-1.605807e+00
-1.688093e+00
-1.768544e+00
-1.846282e+00
-1.920386e+00
0.000000e+00
-7.926460e-03
-2.230598e-02
-4.240643e-02
-6.757435e-02
-9.731895e-02
-1.313013e-01
-1.692816e-01
-2.110725e-01
-2.565108e-01
-3.054436e-01
-3.577228e-01
-4.132023e-01
-4.717362e-01
-5.331791e-01
-5.973845e-01
-6.642052e-01
-7.334912e-01
-8.050893e-01
-8.788404e-01
-9.545764e-01
-1.032117e+00
-1.111262e+00
-1.191787e+00
-1.273431e+00
-1.355886e+00
-1.438785e+00
-1.521694e+00
-1.604103e+00
-1.685438e+00
-1.765072e+00
-1.842353e+00
-1.916610e+00
0.000000e+00
-8.962953e-03
-2.445857e-02
-4.546900e-02
-7.121770e-02
-1.012462e-01
-1.353074e-01
-1.732466e-01
-2.149318e-01
-2.602331e-01
-3.090165e-01
-3.611441e-01
-4.164750e-01
-4.748663e-01
-5.361733e-01
-6.002502e-01
-6.669487e-01
-7.361174e-01
-8.075997e-01
-8.812307e-01
-9.568341e-01
-1.034217e+00
-1.113163e+00
-1.193427e+00
-1.274727e+00
-1.356732e+00
-1.439066e+00
-1.521299e+00
-1.602965e+00
-1.683574e+00
-1.762648e+00
-1.839744e+00
-1.914449e+00
0.000000e+00
-1.059405e-02
-2.774224e-02
-4.992195e-02
-7.627187e-02
-1.065002e-01
-1.405515e-01
-1.783726e-01
-2.198874e-01
-2.649949e-01
-3.135760e-01
-3.655001e-01
-4.206299e-01
-4.788240e-01
-5.399385e-01
-6.038270e-01
-6.703406e-01
-7.393262e-01
-8.106245e-01
-8.840663e-01
-9.594691e-01
-1.036631e+00
-1.115326e+00
-1.195293e+00
-1.276237e+00
-1.357818e+00
-1.439652e+00
-1.521321e+00
-1.602391e+00
-1.682443e+00
-1.761124e+00
-1.838186e+00
-1.913507e+00
0.000000e+00
-1.323405e-02
-3.276584e-02
-5.619494e-02
-8.288820e-02
-1.131268e-01
-1.470348e-01
-1.846477e-01
-2.259259e-01
-2.707851e-01
-3.191141e-01
-3.707860e-01
-4.256648e-01
-4.836095e-01
-5.444761e-01
-6.081177e-01
-6.743844e-01
-7.431218e-01
-8.141684e-01
-8.873524e-01
-9.624873e-01
-1.039366e+00
-1.117756e+00
-1.197391e+00
-1.277968e+00
-1.359143e+00
-1.440533e+00
-1.521731e+00
-1.602326e+00
-1.681949e+00
-1.760334e+00
-1.837403e+00
-1.913342e+00
0.000000e+00
-1.802304e-02
-4.064981e-02
-6.440319e-02
-9.105043e-02
-1.210687e-01
-1.547122e-01
-1.920420e-01
-2.330296e-01
-2.775949e-01
-3.256283e-01
-3.770034e-01
-4.315846e-01
-4.892306e-01
-5.497967e-01
-6.131355e-01
-6.790960e-01
-7.475226e-01
-8.182521e-01
-8.911109e-01
-9.659102e-01
-1.042441e+00
-1.120468e+00
-1.199724e+00
-1.279907e+00
-1.360673e+00
-1.441647e+00
-1.522434e+00
-1.602640e+00
-1.681925e+00
-1.760077e+00
-1.837120e+00
-1.913482e+00
0.000000e+00
-2.900980e-02
-5.062692e-02
-7.422217e-02
-1.005043e-01
-1.302013e-01
-1.635225e-01
-2.005297e-01
-2.411912e-01
-2.854263e-01
-3.331255e-01
-3.841628e-01
-4.384026e-01
-4.957035e-01
-5.559203e-01
-6.189048e-01
-6.845047e-01
-7.525628e-01
-8.229144e-01
-8.953840e-01
-9.697809e-01
-1.045895e+00
-1.123491e+00