TITLE = "Solution"
VARIABLES = x, y, u, v, psiu, psiv, t, stress
ZONE T="structure" N=153 E=128 F=FEBLOCK ET=QUADRILATERAL VARLOCATION=([7,8]=cellcentered)
0.000000e+00
1.250000e+01
2.500000e+01
3.750000e+01
5.000000e+01
6.250000e+01
7.500000e+01
8.750000e+01
1.000000e+02
1.125000e+02
1.250000e+02
1.375000e+02
1.500000e+02
1.625000e+02
1.750000e+02
1.875000e+02
2.000000e+02
0.000000e+00
1.250000e+01
2.500000e+01
3.750000e+01
5.000000e+01
6.250000e+01
7.500000e+01
8.750000e+01
1.000000e+02
1.125000e+02
1.250000e+02
1.375000e+02
1.500000e+02
1.625000e+02
1.750000e+02
1.875000e+02
2.000000e+02
0.000000e+00
1.250000e+01
2.500000e+01
3.750000e+01
5.000000e+01
6.250000e+01
7.500000e+01
8.750000e+01
1.000000e+02
1.125000e+02
1.250000e+02
1.375000e+02
1.500000e+02
1.625000e+02
1.750000e+02
1.875000e+02
2.000000e+02
0.000000e+00
1.250000e+01
2.500000e+01
3.750000e+01
5.000000e+01
6.250000e+01
7.500000e+01
8.750000e+01
1.000000e+02
1.125000e+02
1.250000e+02
1.375000e+02
1.500000e+02
1.625000e+02
1.750000e+02
1.875000e+02
2.000000e+02
0.000000e+00
1.250000e+01
2.500000e+01
3.750000e+01
5.000000e+01
6.250000e+01
7.500000e+01
8.750000e+01
1.000000e+02
1.125000e+02
1.250000e+02
1.375000e+02
1.500000e+02
1.625000e+02
1.750000e+02
1.875000e+02
2.000000e+02
0.000000e+00
1.250000e+01
2.500000e+01
3.750000e+01
5.000000e+01
6.250000e+01
7.500000e+01
8.750000e+01
1.000000e+02
1.125000e+02
1.250000e+02
1.375000e+02
1.500000e+02
1.625000e+02
1.750000e+02
1.875000e+02
2.000000e+02
0.000000e+00
1.250000e+01
2.500000e+01
3.750000e+01
5.000000e+01
6.250000e+01
7.500000e+01
8.750000e+01
1.000000e+02
1.125000e+02
1.250000e+02
1.375000e+02
1.500000e+02
1.625000e+02
1.750000e+02
1.875000e+02
2.000000e+02
0.000000e+00
1.250000e+01
2.500000e+01
3.750000e+01
5.000000e+01
6.250000e+01
7.500000e+01
8.750000e+01
1.000000e+02
1.125000e+02
1.250000e+02
1.375000e+02
1.500000e+02
1.625000e+02
1.750000e+02
1.875000e+02
2.000000e+02
0.000000e+00
1.250000e+01
2.500000e+01
3.750000e+01
5.000000e+01
6.250000e+01
7.500000e+01
8.750000e+01
1.000000e+02
1.125000e+02
1.250000e+02
1.375000e+02
1.500000e+02
1.625000e+02
1.750000e+02
1.875000e+02
2.000000e+02
0.000000e+00
0.000000e+00
0.000000e+00
0.000000e+00
0.000000e+00
0.000000e+00
0.000000e+00
0.000000e+00
0.000000e+00
0.000000e+00
0.000000e+00
0.000000e+00
0.000000e+00
0.000000e+00
0.000000e+00
0.000000e+00
0.000000e+00
1.250000e+01
1.250000e+01
1.250000e+01
1.250000e+01
1.250000e+01
1.250000e+01
1.250000e+01
1.250000e+01
1.250000e+01
1.250000e+01
1.250000e+01
1.250000e+01
1.250000e+01
1.250000e+01
1.250000e+01
1.250000e+01
1.250000e+01
2.500000e+01
2.500000e+01
2.500000e+01
2.500000e+01
2.500000e+01
2.500000e+01
2.500000e+01
2.500000e+01
2.500000e+01
2.500000e+01
2.500000e+01
2.500000e+01
2.500000e+01
2.500000e+01
2.500000e+01
2.500000e+01
2.500000e+01
3.750000e+01
3.750000e+01
3.750000e+01
3.750000e+01
3.750000e+01
3.750000e+01
3.750000e+01
3.750000e+01
3.750000e+01
3.750000e+01
3.750000e+01
3.750000e+01
3.750000e+01
3.750000e+01
3.750000e+01
3.750000e+01
3.750000e+01
5.000000e+01
5.000000e+01
5.000000e+01
5.000000e+01
5.000000e+01
5.000000e+01
5.000000e+01
5.000000e+01
5.000000e+01
5.000000e+01
5.000000e+01
5.000000e+01
5.000000e+01
5.000000e+01
5.000000e+01
5.000000e+01
5.000000e+01
6.250000e+01
6.250000e+01
6.250000e+01
6.250000e+01
6.250000e+01
6.250000e+01
6.250000e+01
6.250000e+01
6.250000e+01
6.250000e+01
6.250000e+01
6.250000e+01
6.250000e+01
6.250000e+01
6.250000e+01
6.250000e+01
6.250000e+01
7.500000e+01
7.500000e+01
7.500000e+01
7.500000e+01
7.500000e+01
7.500000e+01
7.500000e+01
7.500000e+01
7.500000e+01
7.500000e+01
7.500000e+01
7.500000e+01
7.500000e+01
7.500000e+01
7.500000e+01
7.500000e+01
7.500000e+01
8.750000e+01
8.750000e+01
8.750000e+01
8.750000e+01
8.750000e+01
8.750000e+01
8.750000e+01
8.750000e+01
8.750000e+01
8.750000e+01
8.750000e+01
8.750000e+01
8.750000e+01
8.750000e+01
8.750000e+01
8.750000e+01
8.750000e+01
1.000000e+02
1.000000e+02
1.000000e+02
1.000000e+02
1.000000e+02
1.000000e+02
1.000000e+02
1.000000e+02
1.000000e+02
1.000000e+02
1.000000e+02
1.000000e+02
1.000000e+02
1.000000e+02
1.000000e+02
1.000000e+02
1.000000e+02
0.000000e+00
-9.896680e-01
-1.679913e+00
-2.429283e+00
-3.110551e+00
-3.755265e+00
-4.452959e+00
-5.087982e+00
-5.762126e+00
-6.402559e+00
-7.058686e+00
-7.719148e+00
-8.376472e+00
-9.152847e+00
-1.007579e+01
-1.082908e+01
-1.127952e+01
0.000000e+00
-4.436464e-01
-9.093492e-01
-1.419288e+00
-1.929880e+00
-2.414120e+00
-2.926379e+00
-3.424475e+00
-3.921405e+00
-4.422079e+00
-4.917503e+00
-5.417379e+00
-5.902413e+00
-6.425501e+00
-6.894720e+00
-7.018743e+00
-7.197378e+00
0.000000e+00
-1.474348e-01
-3.525091e-01
-6.424737e-01
-9.804352e-01
-1.306752e+00
-1.660670e+00
-2.015058e+00
-2.360530e+00
-2.719909e+00
-3.059730e+00
-3.392743e+00
-3.686885e+00
-3.926061e+00
-4.032551e+00
-4.029528e+00
-4.178472e+00
0.000000e+00
-7.869011e-02
-1.624477e-01
-3.087807e-01
-4.531932e-01
-6.281921e-01
-8.099589e-01
-9.781785e-01
-1.162526e+00
-1.324837e+00
-1.486536e+00
-1.624409e+00
-1.716652e+00
-1.723836e+00
-1.651548e+00
-1.632697e+00
-1.751150e+00
0.000000e+00
-2.893468e-03
-6.333501e-03
-9.886078e-03
-1.311013e-02
-1.503370e-02
-1.448558e-02
-1.011506e-02
-9.003604e-04
1.594694e-02
4.028220e-02
8.412487e-02
1.654155e-01
2.795066e-01
3.979142e-01
4.368247e-01
3.384848e-01
0.000000e+00
7.372832e-02
1.520998e-01
2.917745e-01
4.304407e-01
6.010170e-01
7.828490e-01
9.592532e-01
1.162876e+00
1.355442e+00
1.568733e+00
1.788916e+00
2.012862e+00
2.216147e+00
2.350956e+00
2.383857e+00
2.318698e+00
0.000000e+00
1.456299e-01
3.479097e-01
6.341366e-01
9.678856e-01
1.290620e+00
1.643398e+00
2.003395e+00
2.370282e+00
2.770224e+00
3.146917e+00
3.514074e+00
3.848228e+00
4.120498e+00
4.294710e+00
4.349659e+00
4.327539e+00
0.000000e+00
4.448332e-01
9.099357e-01
1.419908e+00
1.929986e+00
2.411665e+00
2.921245e+00
3.415102e+00
3.904670e+00
4.397365e+00
4.875693e+00
5.350778e+00
5.782320e+00
6.128276e+00
6.343864e+00
6.438813e+00
6.456217e+00
0.000000e+00
9.921271e-01
1.683815e+00
2.437413e+00
3.123592e+00
3.770275e+00
4.469926e+00
5.097126e+00
5.740772e+00
6.329336e+00
6.906199e+00
7.505888e+00
8.039486e+00
8.447096e+00
8.649145e+00
8.702670e+00
8.703312e+00
0.000000e+00
-6.164260e-01
-1.358169e+00
-2.355355e+00
-3.526693e+00
-4.869314e+00
-6.396578e+00
-8.081147e+00
-9.939481e+00
-1.196029e+01
-1.414419e+01
-1.649036e+01
-1.900284e+01
-2.173344e+01
-2.469479e+01
-2.805541e+01
-3.307149e+01
0.000000e+00
-4.126495e-01
-1.189222e+00
-2.170138e+00
-3.356803e+00
-4.694228e+00
-6.220094e+00
-7.911389e+00
-9.764227e+00
-1.179212e+01
-1.397195e+01
-1.632365e+01
-1.882842e+01
-2.154143e+01
-2.455590e+01
-2.797097e+01
-3.202347e+01
0.000000e+00
-3.863046e-01
-1.087987e+00
-2.066562e+00
-3.236409e+00
-4.569460e+00
-6.098608e+00
-7.782995e+00
-9.645008e+00
-1.167077e+01
-1.386195e+01
-1.622406e+01
-1.874015e+01
-2.147939e+01
-2.454669e+01
-2.781791e+01
-3.084939e+01
0.000000e+00
-4.446201e-01
-1.083944e+00
-2.040042e+00
-3.172226e+00
-4.500904e+00
-6.033806e+00
-7.708692e+00
-9.587577e+00
-1.161362e+01
-1.382500e+01
-1.620648e+01
-1.874943e+01
-2.148883e+01
-2.447866e+01
-2.750727e+01
-3.012768e+01
0.000000e+00
-4.524652e-01
-1.105400e+00
-2.023824e+00
-3.159723e+00
-4.487311e+00
-6.013550e+00
-7.706080e+00
-9.580581e+00
-1.162719e+01
-1.384894e+01
-1.624116e+01
-1.879118e+01
-2.149001e+01
-2.432784e+01
-2.714194e+01
-2.952464e+01
0.000000e+00
-4.434806e-01
-1.083242e+00
-2.041654e+00
-3.179573e+00
-4.515540e+00
-6.060437e+00
-7.747964e+00
-9.643637e+00
-1.169321e+01
-1.391644e+01
-1.629340e+01
-1.882425e+01
-2.147969e+01
-2.419138e+01
-2.682348e+01
-2.908970e+01
0.000000e+00
-3.847269e-01
-1.087129e+00
-2.069644e+00
-3.248611e+00
-4.595782e+00
-6.145824e+00
-7.857801e+00
-9.750072e+00
-1.180664e+01
-1.400356e+01
-1.636034e+01
-1.886523e+01
-2.148025e+01
-2.410761e+01
-2.661694e+01
-2.885935e+01
0.000000e+00
-4.111642e-01
-1.188321e+00
-2.173375e+00
-3.369858e+00
-4.723211e+00
-6.273859e+00
-7.998996e+00
-9.888011e+00
-1.194283e+01
-1.412031e+01
-1.645940e+01
-1.894267e+01
-2.152213e+01
-2.408695e+01
-2.652892e+01
-2.879936e+01
0.000000e+00
-6.153111e-01
-1.357713e+00
-2.359440e+00
-3.540284e+00
-4.898792e+00
-6.450980e+00
-8.167303e+00
-1.005906e+01
-1.209977e+01
-1.427611e+01
-1.660821e+01
-1.906625e+01
-2.160347e+01
-2.411182e+01
-2.651377e+01
-2.879823e+01


0.000000e+00
1.537556e-05
2.509268e-05
3.733704e-05
5.326611e-05
6.677209e-05
8.215345e-05
9.664314e-05
1.108166e-04
1.254046e-04
1.405741e-04
1.548500e-04
1.720175e-04
1.871625e-04
1.960790e-04
2.014800e-04
2.083447e-04
0.000000e+00
1.146173e-05
1.978022e-05
2.840406e-05
4.115781e-05
5.177338e-05
6.204028e-05
7.331546e-05
8.342827e-05
9.471282e-05
1.052975e-04
1.152150e-04
1.265005e-04
1.353050e-04
1.359767e-04
1.396495e-04
1.454868e-04
0.000000e+00
9.588430e-06
1.514226e-05
2.042521e-05
2.946792e-05
3.618300e-05
4.226619e-05
4.975838e-05
5.573163e-05
6.275394e-05
6.892076e-05
7.389610e-05
7.858726e-05
8.030018e-05
7.920314e-05
8.158305e-05
8.585554e-05
0.000000e+00
5.213676e-06
7.014411e-06
9.974965e-06
1.382453e-05
1.503929e-05
1.787381e-05
2.023459e-05
2.307432e-05
2.627219e-05
2.889601e-05
2.927496e-05
2.832859e-05
2.663435e-05
2.651763e-05
2.960955e-05
3.526188e-05
0.000000e+00
-1.384405e-07
-3.493190e-07
-6.822537e-07
-1.325418e-06
-2.167346e-06
-3.616700e-06
-5.169815e-06
-5.722644e-06
-6.423966e-06
-8.200071e-06
-1.178510e-05
-1.460043e-05
-1.587019e-05
-1.548489e-05
-1.325525e-05
-9.314658e-06
0.000000e+00
-5.414356e-06
-7.476209e-06
-1.090545e-05
-1.518641e-05
-1.721133e-05
-2.177538e-05
-2.570054e-05
-3.051210e-05
-3.346613e-05
-3.735660e-05
-4.224286e-05
-4.691338e-05
-4.834095e-05
-4.885486e-05
-4.935805e-05
-4.773255e-05
0.000000e+00
-9.551575e-06
-1.517308e-05
-2.058551e-05
-2.960323e-05
-3.631769e-05
-4.234101e-05
-5.054264e-05
-5.723738e-05
-6.375517e-05
-6.870017e-05
-7.350069e-05
-7.764436e-05
-8.086718e-05
-8.276754e-05
-8.465102e-05
-8.539292e-05
0.000000e+00
-1.138040e-05
-1.968710e-05
-2.831327e-05
-4.094579e-05
-5.173934e-05
-6.183400e-05
-7.323294e-05
-8.357118e-05
-9.460841e-05
-1.050628e-04
-1.128672e-04
-1.178099e-04
-1.227362e-04
-1.261746e-04
-1.273969e-04
-1.274938e-04
0.000000e+00
-1.539514e-05
-2.504635e-05
-3.720871e-05
-5.302459e-05
-6.644606e-05
-8.165120e-05
-9.516994e-05
-1.092094e-04
-1.236584e-04
-1.412918e-04
-1.564224e-04
-1.656894e-04
-1.707307e-04
-1.729344e-04
-1.731208e-04
-1.729294e-04
0.000000e+00
1.261713e-05
2.000999e-05
3.238653e-05
4.850764e-05
6.614854e-05
8.971152e-05
1.174394e-04
1.490269e-04
1.850024e-04
2.244620e-04
2.684096e-04
3.189136e-04
3.726455e-04
4.338822e-04
5.044997e-04
5.774055e-04
0.000000e+00
7.673372e-06
1.611484e-05
2.628907e-05
4.204102e-05
6.024757e-05
8.328128e-05
1.114628e-04
1.428956e-04
1.787119e-04
2.183191e-04
2.621661e-04
3.122889e-04
3.681562e-04
4.289500e-04
4.971592e-04
5.670179e-04
0.000000e+00
4.300983e-06
1.227069e-05
2.155476e-05
3.627677e-05
5.505228e-05
7.811653e-05
1.068513e-04
1.385321e-04
1.741840e-04
2.137604e-04
2.579213e-04
3.085731e-04
3.660443e-04
4.250477e-04
4.897034e-04
5.572242e-04
0.000000e+00
3.121941e-06
1.044716e-05
1.974874e-05
3.408795e-05
5.194430e-05
7.559964e-05
1.057645e-04
1.382147e-04
1.724514e-04
2.118061e-04
2.567389e-04
3.080846e-04
3.647030e-04
4.224153e-04
4.819073e-04
5.429984e-04
0.000000e+00
2.708948e-06
1.003189e-05
1.957621e-05
3.365686e-05
5.087142e-05
7.479637e-05
1.062702e-04
1.388461e-04
1.719255e-04
2.103116e-04
2.571298e-04
3.086305e-04
3.647707e-04
4.212507e-04
4.755566e-04
5.270654e-04
0.000000e+00
3.247289e-06
1.061179e-05
2.006463e-05
3.434403e-05
5.182589e-05
7.607795e-05
1.068321e-04
1.391989e-04
1.717735e-04
2.107769e-04
2.589869e-04
3.110914e-04
3.649497e-04
4.210891e-04
4.732387e-04
5.163507e-04
0.000000e+00
4.437453e-06
1.248814e-05
2.190274e-05
3.651425e-05
5.516489e-05
7.865749e-05
1.078021e-04
1.390661e-04
1.729900e-04
2.131549e-04
2.622381e-04
3.145537e-04
3.668403e-04
4.200846e-04
4.705825e-04
5.130904e-04
0.000000e+00
7.784356e-06
1.635151e-05
2.660754e-05
4.232200e-05
6.058661e-05
8.388343e-05
1.121906e-04
1.428007e-04
1.773662e-04
2.177309e-04
2.657081e-04
3.175168e-04
3.689509e-04
4.201071e-04
4.686254e-04
5.135962e-04
0.000000e+00
1.271519e-05
2.024843e-05
3.269346e-05
4.884115e-05
6.657992e-05
9.035020e-05
1.180402e-04
1.489690e-04
1.838062e-04
2.245767e-04
2.697784e-04
3.196172e-04
3.701880e-04
4.203628e-04
4.681449e-04
5.138710e-04


5.400194e+00
5.895554e+00
6.596283e+00
5.642206e+00
4.996636e+00
5.258285e+00
5.451652e+00
5.789374e+00
5.675199e+00
5.812719e+00
6.135823e+00
7.034211e+00
8.725536e+00
9.681888e+00
8.990136e+00
7.837488e+00
7.896415e+00
8.262140e+00
8.459930e+00
8.166983e+00
7.766590e+00
7.871415e+00
8.066504e+00
8.071737e+00
8.143971e+00
8.118883e+00
8.259456e+00
8.685408e+00
9.387250e+00
9.686544e+00
8.247271e+00
6.339842e+00
9.734560e+00
9.724765e+00
9.882169e+00
9.718198e+00
9.708509e+00
9.750422e+00
9.689732e+00
9.769872e+00
9.708334e+00
9.754821e+00
9.753454e+00
9.746616e+00
9.764616e+00
9.265784e+00
7.821178e+00
6.032040e+00
9.941990e+00
9.941000e+00
9.940542e+00
9.935055e+00
9.929544e+00
9.921694e+00
9.913576e+00
9.913607e+00
9.914617e+00
9.904524e+00
9.857567e+00
9.344466e+00
8.705903e+00
8.247340e+00
7.792278e+00
7.628825e+00
9.941757e+00
9.940455e+00
9.939550e+00
9.932613e+00
9.923842e+00
9.909965e+00
9.885612e+00
9.887206e+00
9.882539e+00
9.774020e+00
9.201374e+00
8.345605e+00
7.479650e+00
7.541079e+00
8.418319e+00
8.912104e+00
9.735022e+00
9.722510e+00
9.876997e+00
9.704830e+00
9.675169e+00
9.649858e+00
9.513434e+00
9.556771e+00
9.250308e+00
8.662581e+00
8.130452e+00
7.644754e+00
7.827635e+00
8.468554e+00
9.259749e+00
9.821234e+00
7.904961e+00
8.263404e+00
8.451983e+00
8.143470e+00
7.712204e+00
7.721031e+00
7.758834e+00
7.639338e+00
7.426448e+00
7.054997e+00
7.285750e+00
8.250245e+00
9.014949e+00
9.622957e+00
9.889766e+00
9.929357e+00
5.424640e+00
5.903362e+00
6.592806e+00
5.629196e+00
4.975932e+00
5.163524e+00
5.211946e+00
5.501932e+00
5.462271e+00
6.003635e+00
7.558919e+00
8.930835e+00
9.806879e+00
9.910749e+00
9.936466e+00
9.945795e+00


-7.981827e-01
-1.917645e-01
-3.856152e-01
-2.471509e-01
-1.226959e-01
-2.834006e-01
-1.345833e-01
-2.084165e-01
-1.547843e-01
-1.756017e-01
-1.939780e-01
-1.586272e-01
-4.824485e-01
-6.500725e-01
3.235947e-01
-8.469479e-01
6.131715e-01
4.713509e-01
3.009497e-01
2.283658e-01
2.814734e-01
1.710172e-01
1.790946e-01
1.691380e-01
1.195014e-01
1.438165e-01
1.399847e-01
2.474623e-01
3.014726e-01
5.245895e-01
6.987452e-01
-9.500224e-01
7.285794e-01
4.736556e-01
7.299745e-02
2.008624e-03
-3.525425e-02
-1.532400e-01
-7.193147e-02
-1.164344e-01
-5.279197e-02
-6.201682e-03
5.627429e-02
2.021794e-01
2.891790e-01
1.565834e-01
-1.603913e-02
-1.780360e-01
7.335843e-01
5.580176e-01
2.022343e-01
7.778757e-02
-1.945383e-02
-8.066889e-02
-1.678147e-02
-4.456683e-02
2.906855e-02
3.508762e-02
7.428575e-02
1.223757e-01
5.734333e-02
-2.699347e-01
-3.762433e-01
-6.940595e-02
7.361763e-01
5.618192e-01
2.085752e-01
8.084973e-02
-1.918228e-02
-9.314144e-02
-3.810344e-02
-8.021680e-02
-2.808467e-02
-1.951785e-02
2.181360e-02
1.618574e-02
-3.642685e-02
-1.405628e-01
-1.042008e-01
3.190086e-01
7.345247e-01
4.839646e-01
8.928785e-02
1.363284e-02
-3.187666e-02
-1.726072e-01
-1.224830e-01
-2.076235e-01
-1.681530e-01
-9.642037e-02
-8.690538e-02
-1.028661e-01
-9.294508e-02
5.257250e-02
3.339341e-01
7.292275e-01
6.161181e-01
4.783733e-01
3.086685e-01
2.359133e-01
2.866606e-01
1.628490e-01
1.444421e-01
8.367577e-02
-4.509229e-02
-3.669762e-02
-1.011575e-01
-7.038069e-02
7.250353e-02
3.760898e-01
7.141040e-01
9.482095e-01
-8.054165e-01
-1.932271e-01
-3.946222e-01
-2.561790e-01
-1.222405e-01
-2.839762e-01
-1.159374e-01
-1.450631e-01
-6.139702e-02
-2.759186e-02
-9.033145e-02
8.646077e-02
3.980414e-01
7.728478e-01
9.525799e-01
9.987281e-01
1 2 19 18
2 3 20 19
3 4 21 20
4 5 22 21
5 6 23 22
6 7 24 23
7 8 25 24
8 9 26 25
9 10 27 26
10 11 28 27
11 12 29 28
12 13 30 29
13 14 31 30
14 15 32 31
15 16 33 32
16 17 34 33
18 19 36 35
19 20 37 36
20 21 38 37
21 22 39 38
22 23 40 39
23 24 41 40
24 25 42 41
25 26 43 42
26 27 44 43
27 28 45 44
28 29 46 45
29 30 47 46
30 31 48 47
31 32 49 48
32 33 50 49
33 34 51 50
35 36 53 52
36 37 54 53
37 38 55 54
38 39 56 55
39 40 57 56
40 41 58 57
41 42 59 58
42 43 60 59
43 44 61 60
44 45 62 61
45 46 63 62
46 47 64 63
47 48 65 64
48 49 66 65
49 50 67 66
50 51 68 67
52 53 70 69
53 54 71 70
54 55 72 71
55 56 73 72
56 57 74 73
57 58 75 74
58 59 76 75
59 60 77 76
60 61 78 77
61 62 79 78
62 63 80 79
63 64 81 80
64 65 82 81
65 66 83 82
66 67 84 83
67 68 85 84
69 70 87 86
70 71 88 87
71 72 89 88
72 73 90 89
73 74 91 90
74 75 92 91
75 76 93 92
76 77 94 93
77 78 95 94
78 79 96 95
79 80 97 96
80 81 98 97
81 82 99 98
82 83 100 99
83 84 101 100
84 85 102 101
86 87 104 103
87 88 105 104
88 89 106 105
89 90 107 106
90 91 108 107
91 92 109 108
92 93 110 109
93 94 111 110
94 95 112 111
95 96 113 112
96 97 114 113
97 98 115 114
98 99 116 115
99 100 117 116
100 101 118 117
101 102 119 118
103 104 121 120
104 105 122 121
105 106 123 122
106 107 124 123
107 108 125 124
108 109 126 125
109 110 127 126
110 111 128 127
111 112 129 128
112 113 130 129
113 114 131 130
114 115 132 131
115 116 133 132
116 117 134 133
117 118 135 134
118 119 136 135
120 121 138 137
121 122 139 138
122 123 140 139
123 124 141 140
124 125 142 141
125 126 143 142
126 127 144 143
127 128 145 144
128 129 146 145
129 130 147 146
130 131 148 147
131 132 149 148
132 133 150 149
133 134 151 150
134 135 152 151
135 136 153 152
