TITLE = "Solution"
VARIABLES = x, y, u, v, psiu, psiv, t, stress
ZONE T="structure" N=153 E=128 F=FEBLOCK ET=QUADRILATERAL VARLOCATION=([7,8]=cellcentered)
0.000000e+00
1.250000e+01
2.500000e+01
3.750000e+01
5.000000e+01
6.250000e+01
7.500000e+01
8.750000e+01
1.000000e+02
1.125000e+02
1.250000e+02
1.375000e+02
1.500000e+02
1.625000e+02
1.750000e+02
1.875000e+02
2.000000e+02
0.000000e+00
1.250000e+01
2.500000e+01
3.750000e+01
5.000000e+01
6.250000e+01
7.500000e+01
8.750000e+01
1.000000e+02
1.125000e+02
1.250000e+02
1.375000e+02
1.500000e+02
1.625000e+02
1.750000e+02
1.875000e+02
2.000000e+02
0.000000e+00
1.250000e+01
2.500000e+01
3.750000e+01
5.000000e+01
6.250000e+01
7.500000e+01
8.750000e+01
1.000000e+02
1.125000e+02
1.250000e+02
1.375000e+02
1.500000e+02
1.625000e+02
1.750000e+02
1.875000e+02
2.000000e+02
0.000000e+00
1.250000e+01
2.500000e+01
3.750000e+01
5.000000e+01
6.250000e+01
7.500000e+01
8.750000e+01
1.000000e+02
1.125000e+02
1.250000e+02
1.375000e+02
1.500000e+02
1.625000e+02
1.750000e+02
1.875000e+02
2.000000e+02
0.000000e+00
1.250000e+01
2.500000e+01
3.750000e+01
5.000000e+01
6.250000e+01
7.500000e+01
8.750000e+01
1.000000e+02
1.125000e+02
1.250000e+02
1.375000e+02
1.500000e+02
1.625000e+02
1.750000e+02
1.875000e+02
2.000000e+02
0.000000e+00
1.250000e+01
2.500000e+01
3.750000e+01
5.000000e+01
6.250000e+01
7.500000e+01
8.750000e+01
1.000000e+02
1.125000e+02
1.250000e+02
1.375000e+02
1.500000e+02
1.625000e+02
1.750000e+02
1.875000e+02
2.000000e+02
0.000000e+00
1.250000e+01
2.500000e+01
3.750000e+01
5.000000e+01
6.250000e+01
7.500000e+01
8.750000e+01
1.000000e+02
1.125000e+02
1.250000e+02
1.375000e+02
1.500000e+02
1.625000e+02
1.750000e+02
1.875000e+02
2.000000e+02
0.000000e+00
1.250000e+01
2.500000e+01
3.750000e+01
5.000000e+01
6.250000e+01
7.500000e+01
8.750000e+01
1.000000e+02
1.125000e+02
1.250000e+02
1.375000e+02
1.500000e+02
1.625000e+02
1.750000e+02
1.875000e+02
2.000000e+02
0.000000e+00
1.250000e+01
2.500000e+01
3.750000e+01
5.000000e+01
6.250000e+01
7.500000e+01
8.750000e+01
1.000000e+02
1.125000e+02
1.250000e+02
1.375000e+02
1.500000e+02
1.625000e+02
1.750000e+02
1.875000e+02
2.000000e+02
0.000000e+00
0.000000e+00
0.000000e+00
0.000000e+00
0.000000e+00
0.000000e+00
0.000000e+00
0.000000e+00
0.000000e+00
0.000000e+00
0.000000e+00
0.000000e+00
0.000000e+00
0.000000e+00
0.000000e+00
0.000000e+00
0.000000e+00
1.250000e+01
1.250000e+01
1.250000e+01
1.250000e+01
1.250000e+01
1.250000e+01
1.250000e+01
1.250000e+01
1.250000e+01
1.250000e+01
1.250000e+01
1.250000e+01
1.250000e+01
1.250000e+01
1.250000e+01
1.250000e+01
1.250000e+01
2.500000e+01
2.500000e+01
2.500000e+01
2.500000e+01
2.500000e+01
2.500000e+01
2.500000e+01
2.500000e+01
2.500000e+01
2.500000e+01
2.500000e+01
2.500000e+01
2.500000e+01
2.500000e+01
2.500000e+01
2.500000e+01
2.500000e+01
3.750000e+01
3.750000e+01
3.750000e+01
3.750000e+01
3.750000e+01
3.750000e+01
3.750000e+01
3.750000e+01
3.750000e+01
3.750000e+01
3.750000e+01
3.750000e+01
3.750000e+01
3.750000e+01
3.750000e+01
3.750000e+01
3.750000e+01
5.000000e+01
5.000000e+01
5.000000e+01
5.000000e+01
5.000000e+01
5.000000e+01
5.000000e+01
5.000000e+01
5.000000e+01
5.000000e+01
5.000000e+01
5.000000e+01
5.000000e+01
5.000000e+01
5.000000e+01
5.000000e+01
5.000000e+01
6.250000e+01
6.250000e+01
6.250000e+01
6.250000e+01
6.250000e+01
6.250000e+01
6.250000e+01
6.250000e+01
6.250000e+01
6.250000e+01
6.250000e+01
6.250000e+01
6.250000e+01
6.250000e+01
6.250000e+01
6.250000e+01
6.250000e+01
7.500000e+01
7.500000e+01
7.500000e+01
7.500000e+01
7.500000e+01
7.500000e+01
7.500000e+01
7.500000e+01
7.500000e+01
7.500000e+01
7.500000e+01
7.500000e+01
7.500000e+01
7.500000e+01
7.500000e+01
7.500000e+01
7.500000e+01
8.750000e+01
8.750000e+01
8.750000e+01
8.750000e+01
8.750000e+01
8.750000e+01
8.750000e+01
8.750000e+01
8.750000e+01
8.750000e+01
8.750000e+01
8.750000e+01
8.750000e+01
8.750000e+01
8.750000e+01
8.750000e+01
8.750000e+01
1.000000e+02
1.000000e+02
1.000000e+02
1.000000e+02
1.000000e+02
1.000000e+02
1.000000e+02
1.000000e+02
1.000000e+02
1.000000e+02
1.000000e+02
1.000000e+02
1.000000e+02
1.000000e+02
1.000000e+02
1.000000e+02
1.000000e+02
0.000000e+00
-7.900007e-01
-1.445790e+00
-2.075196e+00
-2.709044e+00
-3.332868e+00
-3.939787e+00
-4.524968e+00
-5.080334e+00
-5.597433e+00
-6.071492e+00
-6.504252e+00
-6.906460e+00
-7.301344e+00
-7.729454e+00
-8.238614e+00
-8.613148e+00
0.000000e+00
-4.515151e-01
-9.409439e-01
-1.415806e+00
-1.892126e+00
-2.360155e+00
-2.814903e+00
-3.253197e+00
-3.669118e+00
-4.055631e+00
-4.407105e+00
-4.720314e+00
-4.993329e+00
-5.220306e+00
-5.378646e+00
-5.413459e+00
-5.531334e+00
0.000000e+00
-2.682447e-01
-5.596974e-01
-8.729335e-01
-1.191227e+00
-1.504601e+00
-1.808850e+00
-2.100613e+00
-2.374983e+00
-2.625969e+00
-2.847187e+00
-3.031641e+00
-3.170090e+00
-3.248658e+00
-3.252652e+00
-3.224078e+00
-3.345389e+00
0.000000e+00
-1.247995e-01
-2.632363e-01
-4.158348e-01
-5.746794e-01
-7.318882e-01
-8.841230e-01
-1.028451e+00
-1.161233e+00
-1.277881e+00
-1.372805e+00
-1.439408e+00
-1.470721e+00
-1.463229e+00
-1.432688e+00
-1.440156e+00
-1.532187e+00
0.000000e+00
-3.621496e-04
-7.787449e-04
-1.185729e-03
-1.458702e-03
-1.331312e-03
-2.746334e-04
2.674005e-03
9.118120e-03
2.146866e-02
4.288600e-02
7.656745e-02
1.234561e-01
1.767353e-01
2.140385e-01
2.053002e-01
1.432881e-01
0.000000e+00
1.241949e-01
2.619181e-01
4.137839e-01
5.720577e-01
7.292739e-01
8.829154e-01
1.031543e+00
1.174023e+00
1.309594e+00
1.437851e+00
1.557971e+00
1.666573e+00
1.754502e+00
1.806731e+00
1.811505e+00
1.779717e+00
0.000000e+00
2.679616e-01
5.590352e-01
8.718013e-01
1.189582e+00
1.502535e+00
1.806703e+00
2.099112e+00
2.375466e+00
2.630754e+00
2.860177e+00
3.059255e+00
3.223001e+00
3.345038e+00
3.418651e+00
3.442714e+00
3.435326e+00
0.000000e+00
4.516304e-01
9.411226e-01
1.415995e+00
1.892244e+00
2.360005e+00
2.813979e+00
3.250145e+00
3.660811e+00
4.035944e+00
4.365610e+00
4.641365e+00
4.856974e+00
5.009411e+00
5.100648e+00
5.139608e+00
5.146783e+00
0.000000e+00
7.903112e-01
1.446623e+00
2.076745e+00
2.711550e+00
3.336516e+00
3.944368e+00
4.528877e+00
5.078612e+00
5.578758e+00
6.014033e+00
6.370403e+00
6.636673e+00
6.807776e+00
6.890640e+00
6.911001e+00
6.910549e+00
0.000000e+00
-4.831413e-01
-9.767405e-01
-1.628992e+00
-2.437270e+00
-3.403276e+00
-4.525756e+00
-5.799716e+00
-7.216337e+00
-8.764488e+00
-1.043221e+01
-1.220913e+01
-1.409099e+01
-1.608936e+01
-1.826391e+01
-2.080290e+01
-2.458895e+01
0.000000e+00
-3.009453e-01
-8.143116e-01
-1.463115e+00
-2.272252e+00
-3.241863e+00
-4.369556e+00
-5.650470e+00
-7.076454e+00
-8.636163e+00
-1.031668e+01
-1.210633e+01
-1.399963e+01
-1.600808e+01
-1.818458e+01
-2.070880e+01
-2.386781e+01
0.000000e+00
-2.356105e-01
-7.036506e-01
-1.347675e+00
-2.155622e+00
-3.127575e+00
-4.259563e+00
-5.546564e+00
-6.980760e+00
-8.551092e+00
-1.024471e+01
-1.204999e+01
-1.396178e+01
-1.598973e+01
-1.817021e+01
-2.054470e+01
-2.282434e+01
0.000000e+00
-2.159566e-01
-6.528055e-01
-1.282009e+00
-2.087403e+00
-3.060432e+00
-4.195925e+00
-5.488333e+00
-6.930003e+00
-8.510321e+00
-1.021672e+01
-1.203718e+01
-1.396364e+01
-1.599445e+01
-1.812369e+01
-2.027512e+01
-2.221958e+01
0.000000e+00
-2.124117e-01
-6.388403e-01
-1.261911e+00
-2.065505e+00
-3.039444e+00
-4.177333e+00
-5.473691e+00
-6.921125e+00
-8.509296e+00
-1.022528e+01
-1.205483e+01
-1.398324e+01
-1.599214e+01
-1.804252e+01
-2.004605e+01
-2.185225e+01
0.000000e+00
-2.157630e-01
-6.527009e-01
-1.282312e+00
-2.088612e+00
-3.063413e+00
-4.202114e+00
-5.499942e+00
-6.950030e+00
-8.542020e+00
-1.026191e+01
-1.209213e+01
-1.401048e+01
-1.598578e+01
-1.796944e+01
-1.988791e+01
-2.164465e+01
0.000000e+00
-2.352893e-01
-7.034623e-01
-1.348134e+00
-2.157575e+00
-3.132483e+00
-4.269862e+00
-5.566026e+00
-7.014520e+00
-8.604779e+00
-1.032166e+01
-1.214476e+01
-1.404656e+01
-1.598965e+01
-1.792515e+01
-1.979720e+01
-2.155252e+01
0.000000e+00
-3.006222e-01
-8.141055e-01
-1.463628e+00
-2.274472e+00
-3.247482e+00
-4.381370e+00
-5.672761e+00
-7.114988e+00
-8.697144e+00
-1.040356e+01
-1.221261e+01
-1.409478e+01
-1.601091e+01
-1.791395e+01
-1.975954e+01
-2.153096e+01
0.000000e+00
-4.829206e-01
-9.766397e-01
-1.629651e+00
-2.439702e+00
-3.409177e+00
-4.537822e+00
-5.821865e+00
-7.253509e+00
-8.821373e+00
-1.050980e+01
-1.229738e+01
-1.415501e+01
-1.604489e+01
-1.792332e+01
-1.975262e+01
-2.153136e+01


0.000000e+00
7.373314e-06
1.487123e-05
2.169107e-05
2.812498e-05
3.400129e-05
3.902297e-05
4.302372e-05
4.603684e-05
4.820157e-05
4.969304e-05
5.069486e-05
5.138390e-05
5.192598e-05
5.246887e-05
5.323738e-05
5.424841e-05
0.000000e+00
5.382459e-06
1.193476e-05
1.715378e-05
2.196629e-05
2.636250e-05
3.006692e-05
3.294001e-05
3.503264e-05
3.648249e-05
3.743071e-05
3.801004e-05
3.832033e-05
3.842994e-05
3.855019e-05
3.917069e-05
4.020858e-05
0.000000e+00
3.994971e-06
8.262616e-06
1.179894e-05
1.505424e-05
1.793201e-05
2.032275e-05
2.216722e-05
2.349662e-05
2.438957e-05
2.493401e-05
2.521845e-05
2.532077e-05
2.533554e-05
2.544527e-05
2.594383e-05
2.677302e-05
0.000000e+00
1.995161e-06
3.862742e-06
5.748537e-06
7.422374e-06
8.848479e-06
1.002608e-05
1.094757e-05
1.161774e-05
1.205784e-05
1.230995e-05
1.242683e-05
1.247221e-05
1.252501e-05
1.265393e-05
1.294280e-05
1.341616e-05
0.000000e+00
-3.953773e-09
-8.438457e-09
-1.339184e-08
-1.931611e-08
-2.730695e-08
-3.935232e-08
-5.783586e-08
-8.467335e-08
-1.198162e-07
-1.590244e-07
-1.905842e-07
-1.935584e-07
-1.487835e-07
-6.724080e-08
5.165657e-08
2.666538e-07
0.000000e+00
-2.002338e-06
-3.877521e-06
-5.772451e-06
-7.456964e-06
-8.896603e-06
-1.009270e-05
-1.104061e-05
-1.174791e-05
-1.223728e-05
-1.254843e-05
-1.272349e-05
-1.279981e-05
-1.281433e-05
-1.281000e-05
-1.279212e-05
-1.271132e-05
0.000000e+00
-3.998944e-06
-8.272382e-06
-1.181672e-05
-1.508308e-05
-1.797324e-05
-2.037452e-05
-2.222426e-05
-2.355336e-05
-2.444499e-05
-2.499647e-05
-2.530939e-05
-2.547278e-05
-2.555672e-05
-2.560753e-05
-2.563165e-05
-2.561113e-05
0.000000e+00
-5.383452e-06
-1.193940e-05
-1.716445e-05
-2.198758e-05
-2.639586e-05
-3.010540e-05
-3.296639e-05
-3.502487e-05
-3.642364e-05
-3.731779e-05
-3.785941e-05
-3.817591e-05
-3.835872e-05
-3.846371e-05
-3.851443e-05
-3.852209e-05
0.000000e+00
-7.376452e-06
-1.487509e-05
-2.169691e-05
-2.813569e-05
-3.401689e-05
-3.903438e-05
-4.301077e-05
-4.597291e-05
-4.806280e-05
-4.946357e-05
-5.036119e-05
-5.091425e-05
-5.123925e-05
-5.141100e-05
-5.147700e-05
-5.148824e-05
0.000000e+00
6.539497e-06
1.133702e-05
1.682601e-05
2.386652e-05
3.225519e-05
4.177685e-05
5.226929e-05
6.356994e-05
7.549599e-05
8.787942e-05
1.005988e-04
1.135950e-04
1.269699e-04
1.412949e-04
1.569931e-04
1.730592e-04
0.000000e+00
3.333878e-06
8.212547e-06
1.387565e-05
2.109522e-05
2.980010e-05
3.977520e-05
5.075177e-05
6.248407e-05
7.475896e-05
8.740528e-05
1.003091e-04
1.134221e-04
1.267964e-04
1.406732e-04
1.556847e-04
1.713466e-04
0.000000e+00
1.453704e-06
5.779466e-06
1.171005e-05
1.910505e-05
2.805817e-05
3.835071e-05
4.966787e-05
6.171115e-05
7.424354e-05
8.709075e-05
1.001408e-04
1.133412e-04
1.266575e-04
1.400598e-04
1.543107e-04
1.693554e-04
0.000000e+00
8.351933e-07
4.706531e-06
1.064649e-05
1.819464e-05
2.727870e-05
3.769480e-05
4.914528e-05
6.132712e-05
7.398831e-05
8.694232e-05
1.000674e-04
1.132881e-04
1.265223e-04
1.397094e-04
1.534088e-04
1.677129e-04
0.000000e+00
7.167766e-07
4.420235e-06
1.030183e-05
1.791889e-05
2.704970e-05
3.749983e-05
4.898737e-05
6.121331e-05
7.391898e-05
8.690865e-05
1.000500e-04
1.132534e-04
1.264412e-04
1.395836e-04
1.529812e-04
1.666368e-04
0.000000e+00
8.362099e-07
4.706701e-06
1.064489e-05
1.819166e-05
2.727731e-05
3.769999e-05
4.916229e-05
6.135945e-05
7.403546e-05
8.699615e-05
1.001057e-04
1.132728e-04
1.264348e-04
1.395798e-04
1.528130e-04
1.660605e-04
0.000000e+00
1.455182e-06
5.779924e-06
1.170817e-05
1.910153e-05
2.805825e-05
3.836319e-05
4.970217e-05
6.177390e-05
7.433500e-05
8.719937e-05
1.002326e-04
1.133439e-04
1.264756e-04
1.396046e-04
1.527410e-04
1.658041e-04
0.000000e+00
3.336450e-06
8.215707e-06
1.387819e-05
2.109820e-05
2.980812e-05
3.979596e-05
5.079410e-05
6.255560e-05
7.486245e-05
8.753234e-05
1.004284e-04
1.134515e-04
1.265331e-04
1.396303e-04
1.527108e-04
1.657213e-04
0.000000e+00
6.544377e-06
1.134389e-05
1.683511e-05
2.387903e-05
3.227276e-05
4.180177e-05
5.230523e-05
6.362292e-05
7.557158e-05
8.797447e-05
1.006870e-04
1.135934e-04
1.266057e-04
1.396612e-04
1.527087e-04
1.657090e-04


2.116804e+00
2.099979e+00
2.225776e+00
2.436316e+00
2.622224e+00
2.814307e+00
3.016650e+00
3.205682e+00
3.362108e+00
3.479355e+00
3.559762e+00
3.608198e+00
3.620824e+00
3.567552e+00
3.454840e+00
3.368448e+00
2.470103e+00
2.450813e+00
2.539594e+00
2.699331e+00
2.842417e+00
2.992147e+00
3.151524e+00
3.301178e+00
3.425517e+00
3.518924e+00
3.582790e+00
3.620395e+00
3.626376e+00
3.569878e+00
3.459651e+00
3.376399e+00
3.028576e+00
3.009747e+00
3.050526e+00
3.129869e+00
3.202751e+00
3.283798e+00
3.371728e+00
3.455382e+00
3.525788e+00
3.579101e+00
3.615372e+00
3.635828e+00
3.635274e+00
3.588887e+00
3.502282e+00
3.439151e+00
3.403543e+00
3.389403e+00
3.397243e+00
3.420238e+00
3.447918e+00
3.481908e+00
3.519840e+00
3.557012e+00
3.589293e+00
3.614267e+00
3.631349e+00
3.640980e+00
3.640387e+00
3.615959e+00
3.569714e+00
3.536143e+00
3.403473e+00
3.389273e+00
3.396982e+00
3.419749e+00
3.447098e+00
3.480643e+00
3.517973e+00
3.554343e+00
3.585675e+00
3.609799e+00
3.626618e+00
3.637471e+00
3.642538e+00
3.637273e+00
3.622184e+00
3.610767e+00
3.028196e+00
3.009169e+00
3.049562e+00
3.128351e+00
3.200610e+00
3.281071e+00
3.368350e+00
3.451006e+00
3.519915e+00
3.571589e+00
3.607165e+00
3.630279e+00
3.644581e+00
3.651321e+00
3.652152e+00
3.651388e+00
2.469205e+00
2.449581e+00
2.537798e+00
2.696946e+00
2.839781e+00
2.989984e+00
3.150438e+00
3.301100e+00
3.425648e+00
3.518359e+00
3.581626e+00
3.621822e+00
3.646017e+00
3.659668e+00
3.666543e+00
3.669263e+00
2.115542e+00
2.098298e+00
2.223486e+00
2.433543e+00
2.619680e+00
2.813291e+00
3.018353e+00
3.210363e+00
3.368863e+00
3.486727e+00
3.566976e+00
3.617508e+00
3.647250e+00
3.663724e+00
3.672083e+00
3.675565e+00


-3.590942e-01
-1.533012e-01
-6.822443e-02
-8.040730e-02
-4.625954e-02
9.500129e-03
7.845543e-02
1.691813e-01
2.804447e-01
3.997208e-01
5.113834e-01
6.025977e-01
6.662242e-01
7.011290e-01
7.350967e-01
-1.239735e-01
5.231241e-01
4.162308e-01
4.094272e-01
3.979815e-01
4.118110e-01
4.378978e-01
4.723656e-01
5.207585e-01
5.846431e-01
6.601852e-01
7.415120e-01
8.231885e-01
8.992299e-01
9.518245e-01
8.420815e-01
-6.630267e-01
8.354896e-01
7.622141e-01
7.102638e-01
6.907007e-01
6.887249e-01
6.939060e-01
7.045859e-01
7.229505e-01
7.505838e-01
7.865793e-01
8.265660e-01
8.606424e-01
8.683620e-01
8.060560e-01
5.871546e-01
1.964916e-01
9.513118e-01
8.962717e-01
8.522933e-01
8.291269e-01
8.188160e-01
8.125219e-01
8.075055e-01
8.038284e-01
8.022250e-01
8.019738e-01
7.989452e-01
7.843085e-01
7.459358e-01
6.814902e-01
6.326086e-01
6.239178e-01
9.516581e-01
8.967268e-01
8.527390e-01
8.291961e-01
8.178014e-01
8.091833e-01
7.997590e-01
7.885295e-01
7.753183e-01
7.595146e-01
7.398596e-01
7.162425e-01
6.952793e-01
6.989629e-01
7.535310e-01
8.458392e-01
8.362641e-01
7.632704e-01
7.113762e-01
6.911798e-01
6.872003e-01
6.879018e-01
6.899016e-01
6.931508e-01
6.971241e-01
7.004699e-01
7.031377e-01
7.098846e-01
7.329506e-01
7.863176e-01
8.678744e-01
9.521566e-01
5.236081e-01
4.169563e-01
4.102332e-01
3.986115e-01
4.115994e-01
4.356881e-01
4.664572e-01
5.087472e-01
5.631184e-01
6.246667e-01
6.875580e-01
7.496292e-01
8.139756e-01
8.838822e-01
9.499967e-01
9.916681e-01
-3.597257e-01
-1.544066e-01
-6.958145e-02
-8.212767e-02
-4.809734e-02
8.643996e-03
8.205531e-02
1.845373e-01
3.187071e-01
4.739641e-01
6.330142e-01
7.770036e-01
8.890753e-01
9.597059e-01
9.921062e-01
9.998351e-01
1 2 19 18
2 3 20 19
3 4 21 20
4 5 22 21
5 6 23 22
6 7 24 23
7 8 25 24
8 9 26 25
9 10 27 26
10 11 28 27
11 12 29 28
12 13 30 29
13 14 31 30
14 15 32 31
15 16 33 32
16 17 34 33
18 19 36 35
19 20 37 36
20 21 38 37
21 22 39 38
22 23 40 39
23 24 41 40
24 25 42 41
25 26 43 42
26 27 44 43
27 28 45 44
28 29 46 45
29 30 47 46
30 31 48 47
31 32 49 48
32 33 50 49
33 34 51 50
35 36 53 52
36 37 54 53
37 38 55 54
38 39 56 55
39 40 57 56
40 41 58 57
41 42 59 58
42 43 60 59
43 44 61 60
44 45 62 61
45 46 63 62
46 47 64 63
47 48 65 64
48 49 66 65
49 50 67 66
50 51 68 67
52 53 70 69
53 54 71 70
54 55 72 71
55 56 73 72
56 57 74 73
57 58 75 74
58 59 76 75
59 60 77 76
60 61 78 77
61 62 79 78
62 63 80 79
63 64 81 80
64 65 82 81
65 66 83 82
66 67 84 83
67 68 85 84
69 70 87 86
70 71 88 87
71 72 89 88
72 73 90 89
73 74 91 90
74 75 92 91
75 76 93 92
76 77 94 93
77 78 95 94
78 79 96 95
79 80 97 96
80 81 98 97
81 82 99 98
82 83 100 99
83 84 101 100
84 85 102 101
86 87 104 103
87 88 105 104
88 89 106 105
89 90 107 106
90 91 108 107
91 92 109 108
92 93 110 109
93 94 111 110
94 95 112 111
95 96 113 112
96 97 114 113
97 98 115 114
98 99 116 115
99 100 117 116
100 101 118 117
101 102 119 118
103 104 121 120
104 105 122 121
105 106 123 122
106 107 124 123
107 108 125 124
108 109 126 125
109 110 127 126
110 111 128 127
111 112 129 128
112 113 130 129
113 114 131 130
114 115 132 131
115 116 133 132
116 117 134 133
117 118 135 134
118 119 136 135
120 121 138 137
121 122 139 138
122 123 140 139
123 124 141 140
124 125 142 141
125 126 143 142
126 127 144 143
127 128 145 144
128 129 146 145
129 130 147 146
130 131 148 147
131 132 149 148
132 133 150 149
133 134 151 150
134 135 152 151
135 136 153 152
