TITLE = "Solution"
VARIABLES = x, y, u, v, psiu, psiv, t, stress
ZONE T="structure" N=153 E=128 F=FEBLOCK ET=QUADRILATERAL VARLOCATION=([7,8]=cellcentered)
0.000000e+00
1.250000e+01
2.500000e+01
3.750000e+01
5.000000e+01
6.250000e+01
7.500000e+01
8.750000e+01
1.000000e+02
1.125000e+02
1.250000e+02
1.375000e+02
1.500000e+02
1.625000e+02
1.750000e+02
1.875000e+02
2.000000e+02
0.000000e+00
1.250000e+01
2.500000e+01
3.750000e+01
5.000000e+01
6.250000e+01
7.500000e+01
8.750000e+01
1.000000e+02
1.125000e+02
1.250000e+02
1.375000e+02
1.500000e+02
1.625000e+02
1.750000e+02
1.875000e+02
2.000000e+02
0.000000e+00
1.250000e+01
2.500000e+01
3.750000e+01
5.000000e+01
6.250000e+01
7.500000e+01
8.750000e+01
1.000000e+02
1.125000e+02
1.250000e+02
1.375000e+02
1.500000e+02
1.625000e+02
1.750000e+02
1.875000e+02
2.000000e+02
0.000000e+00
1.250000e+01
2.500000e+01
3.750000e+01
5.000000e+01
6.250000e+01
7.500000e+01
8.750000e+01
1.000000e+02
1.125000e+02
1.250000e+02
1.375000e+02
1.500000e+02
1.625000e+02
1.750000e+02
1.875000e+02
2.000000e+02
0.000000e+00
1.250000e+01
2.500000e+01
3.750000e+01
5.000000e+01
6.250000e+01
7.500000e+01
8.750000e+01
1.000000e+02
1.125000e+02
1.250000e+02
1.375000e+02
1.500000e+02
1.625000e+02
1.750000e+02
1.875000e+02
2.000000e+02
0.000000e+00
1.250000e+01
2.500000e+01
3.750000e+01
5.000000e+01
6.250000e+01
7.500000e+01
8.750000e+01
1.000000e+02
1.125000e+02
1.250000e+02
1.375000e+02
1.500000e+02
1.625000e+02
1.750000e+02
1.875000e+02
2.000000e+02
0.000000e+00
1.250000e+01
2.500000e+01
3.750000e+01
5.000000e+01
6.250000e+01
7.500000e+01
8.750000e+01
1.000000e+02
1.125000e+02
1.250000e+02
1.375000e+02
1.500000e+02
1.625000e+02
1.750000e+02
1.875000e+02
2.000000e+02
0.000000e+00
1.250000e+01
2.500000e+01
3.750000e+01
5.000000e+01
6.250000e+01
7.500000e+01
8.750000e+01
1.000000e+02
1.125000e+02
1.250000e+02
1.375000e+02
1.500000e+02
1.625000e+02
1.750000e+02
1.875000e+02
2.000000e+02
0.000000e+00
1.250000e+01
2.500000e+01
3.750000e+01
5.000000e+01
6.250000e+01
7.500000e+01
8.750000e+01
1.000000e+02
1.125000e+02
1.250000e+02
1.375000e+02
1.500000e+02
1.625000e+02
1.750000e+02
1.875000e+02
2.000000e+02
0.000000e+00
0.000000e+00
0.000000e+00
0.000000e+00
0.000000e+00
0.000000e+00
0.000000e+00
0.000000e+00
0.000000e+00
0.000000e+00
0.000000e+00
0.000000e+00
0.000000e+00
0.000000e+00
0.000000e+00
0.000000e+00
0.000000e+00
1.250000e+01
1.250000e+01
1.250000e+01
1.250000e+01
1.250000e+01
1.250000e+01
1.250000e+01
1.250000e+01
1.250000e+01
1.250000e+01
1.250000e+01
1.250000e+01
1.250000e+01
1.250000e+01
1.250000e+01
1.250000e+01
1.250000e+01
2.500000e+01
2.500000e+01
2.500000e+01
2.500000e+01
2.500000e+01
2.500000e+01
2.500000e+01
2.500000e+01
2.500000e+01
2.500000e+01
2.500000e+01
2.500000e+01
2.500000e+01
2.500000e+01
2.500000e+01
2.500000e+01
2.500000e+01
3.750000e+01
3.750000e+01
3.750000e+01
3.750000e+01
3.750000e+01
3.750000e+01
3.750000e+01
3.750000e+01
3.750000e+01
3.750000e+01
3.750000e+01
3.750000e+01
3.750000e+01
3.750000e+01
3.750000e+01
3.750000e+01
3.750000e+01
5.000000e+01
5.000000e+01
5.000000e+01
5.000000e+01
5.000000e+01
5.000000e+01
5.000000e+01
5.000000e+01
5.000000e+01
5.000000e+01
5.000000e+01
5.000000e+01
5.000000e+01
5.000000e+01
5.000000e+01
5.000000e+01
5.000000e+01
6.250000e+01
6.250000e+01
6.250000e+01
6.250000e+01
6.250000e+01
6.250000e+01
6.250000e+01
6.250000e+01
6.250000e+01
6.250000e+01
6.250000e+01
6.250000e+01
6.250000e+01
6.250000e+01
6.250000e+01
6.250000e+01
6.250000e+01
7.500000e+01
7.500000e+01
7.500000e+01
7.500000e+01
7.500000e+01
7.500000e+01
7.500000e+01
7.500000e+01
7.500000e+01
7.500000e+01
7.500000e+01
7.500000e+01
7.500000e+01
7.500000e+01
7.500000e+01
7.500000e+01
7.500000e+01
8.750000e+01
8.750000e+01
8.750000e+01
8.750000e+01
8.750000e+01
8.750000e+01
8.750000e+01
8.750000e+01
8.750000e+01
8.750000e+01
8.750000e+01
8.750000e+01
8.750000e+01
8.750000e+01
8.750000e+01
8.750000e+01
8.750000e+01
1.000000e+02
1.000000e+02
1.000000e+02
1.000000e+02
1.000000e+02
1.000000e+02
1.000000e+02
1.000000e+02
1.000000e+02
1.000000e+02
1.000000e+02
1.000000e+02
1.000000e+02
1.000000e+02
1.000000e+02
1.000000e+02
1.000000e+02
0.000000e+00
-8.404731e-01
-1.518703e+00
-2.179653e+00
-2.853529e+00
-3.511913e+00
-4.163197e+00
-4.813386e+00
-5.458313e+00
-6.092208e+00
-6.706411e+00
-7.291867e+00
-7.848431e+00
-8.391830e+00
-8.950574e+00
-9.560066e+00
-9.985611e+00
0.000000e+00
-4.596149e-01
-9.555452e-01
-1.447410e+00
-1.951972e+00
-2.445177e+00
-2.932104e+00
-3.417638e+00
-3.898636e+00
-4.369984e+00
-4.823132e+00
-5.246083e+00
-5.626607e+00
-5.947385e+00
-6.166003e+00
-6.214842e+00
-6.355739e+00
0.000000e+00
-2.548541e-01
-5.378424e-01
-8.569339e-01
-1.190919e+00
-1.521911e+00
-1.850873e+00
-2.177371e+00
-2.497341e+00
-2.804728e+00
-3.089696e+00
-3.338133e+00
-3.531912e+00
-3.647022e+00
-3.659953e+00
-3.627980e+00
-3.774773e+00
0.000000e+00
-1.124332e-01
-2.414861e-01
-3.938091e-01
-5.578776e-01
-7.247230e-01
-8.913321e-01
-1.054627e+00
-1.210613e+00
-1.353454e+00
-1.474509e+00
-1.562434e+00
-1.604839e+00
-1.594274e+00
-1.551250e+00
-1.558308e+00
-1.675572e+00
0.000000e+00
-5.899547e-04
-1.220386e-03
-1.780793e-03
-2.053679e-03
-1.638361e-03
1.820146e-04
4.665890e-03
1.396483e-02
3.146507e-02
6.177885e-02
1.097530e-01
1.772271e-01
2.550891e-01
3.116165e-01
3.038409e-01
2.207589e-01
0.000000e+00
1.114348e-01
2.393935e-01
3.906800e-01
5.540973e-01
7.213213e-01
8.904861e-01
1.060559e+00
1.230964e+00
1.401150e+00
1.569790e+00
1.733879e+00
1.886515e+00
2.012821e+00
2.089661e+00
2.098872e+00
2.055133e+00
0.000000e+00
2.543466e-01
5.367051e-01
8.550722e-01
1.188332e+00
1.518788e+00
1.847819e+00
2.175911e+00
2.500263e+00
2.815998e+00
3.114607e+00
3.384481e+00
3.612711e+00
3.785806e+00
3.891385e+00
3.926401e+00
3.916308e+00
0.000000e+00
4.597215e-01
9.556408e-01
1.447403e+00
1.951687e+00
2.444133e+00
2.929491e+00
3.412433e+00
3.888641e+00
4.348681e+00
4.775906e+00
5.148736e+00
5.448097e+00
5.662838e+00
5.792252e+00
5.847646e+00
5.857906e+00
0.000000e+00
8.409727e-01
1.519876e+00
2.181703e+00
2.856583e+00
3.515717e+00
4.167121e+00
4.816287e+00
5.456301e+00
6.072464e+00
6.638686e+00
7.121255e+00
7.490453e+00
7.730366e+00
7.846809e+00
7.875098e+00
7.874275e+00
0.000000e+00
-5.172471e-01
-1.067621e+00
-1.797728e+00
-2.694247e+00
-3.756730e+00
-4.990753e+00
-6.396403e+00
-7.971046e+00
-9.710470e+00
-1.160703e+01
-1.365168e+01
-1.584031e+01
-1.818382e+01
-2.074668e+01
-2.374303e+01
-2.818406e+01
0.000000e+00
-3.264612e-01
-9.007473e-01
-1.623306e+00
-2.520080e+00
-3.585542e+00
-4.820704e+00
-6.227479e+00
-7.804812e+00
-9.549260e+00
-1.145417e+01
-1.351035e+01
-1.571232e+01
-1.807260e+01
-2.064841e+01
-2.363666e+01
-2.734310e+01
0.000000e+00
-2.657934e-01
-7.900636e-01
-1.505375e+00
-2.398295e+00
-3.463990e+00
-4.700712e+00
-6.110042e+00
-7.691817e+00
-9.443732e+00
-1.136025e+01
-1.343302e+01
-1.565753e+01
-1.804553e+01
-2.063318e+01
-2.344770e+01
-2.612554e+01
0.000000e+00
-2.583430e-01
-7.460826e-01
-1.442339e+00
-2.328499e+00
-3.392501e+00
-4.631119e+00
-6.044578e+00
-7.633058e+00
-9.395121e+00
-1.132579e+01
-1.341645e+01
-1.565924e+01
-1.805142e+01
-2.057662e+01
-2.312013e+01
-2.538271e+01
0.000000e+00
-2.605101e-01
-7.367041e-01
-1.424629e+00
-2.306913e+00
-3.370793e+00
-4.611652e+00
-6.029370e+00
-7.624589e+00
-9.396361e+00
-1.133923e+01
-1.344164e+01
-1.568669e+01
-1.804885e+01
-2.046955e+01
-2.282128e+01
-2.489654e+01
0.000000e+00
-2.581606e-01
-7.461629e-01
-1.443201e+00
-2.330910e+00
-3.397583e+00
-4.640514e+00
-6.060908e+00
-7.660313e+00
-9.438085e+00
-1.138749e+01
-1.349219e+01
-1.572438e+01
-1.804024e+01
-2.036890e+01
-2.260410e+01
-2.460915e+01
0.000000e+00
-2.654767e-01
-7.901573e-01
-1.506701e+00
-2.402123e+00
-3.472188e+00
-4.716055e+00
-6.136986e+00
-7.737163e+00
-9.515763e+00
-1.146448e+01
-1.356247e+01
-1.577376e+01
-1.804532e+01
-2.030642e+01
-2.247648e+01
-2.447988e+01
0.000000e+00
-3.261417e-01
-9.008448e-01
-1.624756e+00
-2.524321e+00
-3.594694e+00
-4.837989e+00
-6.258054e+00
-7.856333e+00
-9.630724e+00
-1.157108e+01
-1.365400e+01
-1.584035e+01
-1.807491e+01
-2.029028e+01
-2.242303e+01
-2.444990e+01
0.000000e+00
-5.170658e-01
-1.067848e+00
-1.799350e+00
-2.698667e+00
-3.766023e+00
-5.008153e+00
-6.426963e+00
-8.021520e+00
-9.787382e+00
-1.171168e+01
-1.376995e+01
-1.592429e+01
-1.812263e+01
-2.030335e+01
-2.241313e+01
-2.445064e+01


0.000000e+00
1.092519e-05
2.098633e-05
3.074196e-05
4.132828e-05
5.168588e-05
6.121273e-05
6.997527e-05
7.778589e-05
8.417993e-05
8.890074e-05
9.211393e-05
9.428210e-05
9.596959e-05
9.758194e-05
9.980143e-05
1.026385e-04
0.000000e+00
8.043590e-06
1.693283e-05
2.427544e-05
3.238229e-05
4.032171e-05
4.743959e-05
5.391401e-05
5.965270e-05
6.420203e-05
6.733564e-05
6.921904e-05
7.014908e-05
7.034817e-05
7.053049e-05
7.232626e-05
7.539319e-05
0.000000e+00
6.096115e-06
1.209087e-05
1.715299e-05
2.262295e-05
2.780588e-05
3.244083e-05
3.659561e-05
4.017104e-05
4.291969e-05
4.473695e-05
4.571235e-05
4.603129e-05
4.599246e-05
4.621631e-05
4.778931e-05
5.047491e-05
0.000000e+00
3.052362e-06
5.666568e-06
8.563954e-06
1.126640e-05
1.375017e-05
1.602847e-05
1.804399e-05
1.971305e-05
2.097878e-05
2.181261e-05
2.224884e-05
2.243030e-05
2.261111e-05
2.303972e-05
2.403016e-05
2.562193e-05
0.000000e+00
-8.053785e-09
-1.656764e-08
-2.501811e-08
-3.360670e-08
-4.315304e-08
-5.685694e-08
-8.482503e-08
-1.428220e-07
-2.392702e-07
-3.608827e-07
-4.644619e-07
-4.724882e-07
-3.057477e-07
-2.158390e-08
3.456377e-07
1.024835e-06
0.000000e+00
-3.066746e-06
-5.694969e-06
-8.607768e-06
-1.132590e-05
-1.382369e-05
-1.611742e-05
-1.816325e-05
-1.989640e-05
-2.127319e-05
-2.226297e-05
-2.286597e-05
-2.313646e-05
-2.318430e-05
-2.317882e-05
-2.316179e-05
-2.294279e-05
0.000000e+00
-6.102718e-06
-1.210724e-05
-1.718381e-05
-2.266944e-05
-2.786445e-05
-3.251359e-05
-3.667503e-05
-4.020890e-05
-4.285421e-05
-4.457094e-05
-4.555077e-05
-4.605280e-05
-4.630834e-05
-4.647413e-05
-4.657055e-05
-4.652451e-05
0.000000e+00
-8.042630e-06
-1.693444e-05
-2.428512e-05
-3.240115e-05
-4.034626e-05
-4.748218e-05
-5.396724e-05
-5.960326e-05
-6.386136e-05
-6.661177e-05
-6.821247e-05
-6.911470e-05
-6.963488e-05
-6.994293e-05
-7.009725e-05
-7.012291e-05
0.000000e+00
-1.092478e-05
-2.097900e-05
-3.072803e-05
-4.130510e-05
-5.164797e-05
-6.116851e-05
-6.991630e-05
-7.759957e-05
-8.365941e-05
-8.790002e-05
-9.061152e-05
-9.225077e-05
-9.319402e-05
-9.368178e-05
-9.386327e-05
-9.389223e-05
0.000000e+00
9.493520e-06
1.617541e-05
2.455616e-05
3.570467e-05
4.889371e-05
6.431161e-05
8.204599e-05
1.016410e-04
1.225866e-04
1.446016e-04
1.675374e-04
1.913223e-04
2.162860e-04
2.443067e-04
2.766409e-04
3.097907e-04
0.000000e+00
4.990423e-06
1.198978e-05
2.007057e-05
3.094632e-05
4.439327e-05
6.022372e-05
7.834918e-05
9.849999e-05
1.202076e-04
1.430127e-04
1.665906e-04
1.908052e-04
2.158514e-04
2.424677e-04
2.727662e-04
3.048696e-04
0.000000e+00
2.212327e-06
8.520311e-06
1.677322e-05
2.751744e-05
4.116905e-05
5.734386e-05
7.580230e-05
9.636182e-05
1.186026e-04
1.419700e-04
1.660326e-04
1.905889e-04
2.154736e-04
2.404687e-04
2.683159e-04
2.986722e-04
0.000000e+00
1.273753e-06
6.871827e-06
1.520277e-05
2.609274e-05
3.982076e-05
5.612313e-05
7.475498e-05
9.548992e-05
1.179190e-04
1.415015e-04
1.657699e-04
1.904057e-04
2.150617e-04
2.392729e-04
2.652230e-04
2.933972e-04
0.000000e+00
1.082823e-06
6.396455e-06
1.467224e-05
2.568836e-05
3.942856e-05
5.576250e-05
7.446589e-05
9.527285e-05
1.177625e-04
1.414006e-04
1.656944e-04
1.902644e-04
2.147637e-04
2.389497e-04
2.639238e-04
2.899730e-04
0.000000e+00
1.274641e-06
6.868741e-06
1.519294e-05
2.607483e-05
3.979448e-05
5.610004e-05
7.477022e-05
9.557993e-05
1.180816e-04
1.416876e-04
1.658879e-04
1.903202e-04
2.147182e-04
2.390034e-04
2.635338e-04
2.881827e-04
0.000000e+00
2.213575e-06
8.515702e-06
1.675876e-05
2.749038e-05
4.112815e-05
5.730873e-05
7.583450e-05
9.652689e-05
1.189025e-04
1.423304e-04
1.663173e-04
1.905539e-04
2.148427e-04
2.390999e-04
2.633671e-04
2.874120e-04
0.000000e+00
4.992774e-06
1.198871e-05
2.006095e-05
3.092377e-05
4.435832e-05
6.019908e-05
7.838872e-05
9.865500e-05
1.204829e-04
1.433664e-04
1.669257e-04
1.908781e-04
2.150099e-04
2.391787e-04
2.632849e-04
2.871750e-04
0.000000e+00
9.497188e-06
1.617779e-05
2.455313e-05
3.568947e-05
4.886975e-05
6.430388e-05
8.207774e-05
1.017065e-04
1.226786e-04
1.447420e-04
1.677036e-04
1.912886e-04
2.152144e-04
2.392650e-04
2.632772e-04
2.871428e-04


2.216185e+00
2.149879e+00
2.290569e+00
2.505388e+00
2.670957e+00
2.923045e+00
3.251663e+00
3.626650e+00
4.037333e+00
4.438590e+00
4.768860e+00
4.990254e+00
5.062645e+00
4.844813e+00
4.338512e+00
3.932432e+00
3.014121e+00
2.948307e+00
3.030732e+00
3.175074e+00
3.287883e+00
3.471305e+00
3.715765e+00
3.997674e+00
4.311202e+00
4.621620e+00
4.878486e+00
5.047896e+00
5.085174e+00
4.841413e+00
4.332199e+00
3.926927e+00
4.168325e+00
4.121633e+00
4.146613e+00
4.197734e+00
4.237680e+00
4.321941e+00
4.437035e+00
4.573392e+00
4.731817e+00
4.894135e+00
5.030626e+00
5.118916e+00
5.121912e+00
4.916554e+00
4.508924e+00
4.199022e+00
4.878661e+00
4.851220e+00
4.844572e+00
4.839920e+00
4.843997e+00
4.865599e+00
4.896805e+00
4.937298e+00
4.990322e+00
5.049782e+00
5.103202e+00
5.140454e+00
5.141086e+00
5.035095e+00
4.820523e+00
4.657026e+00
4.878706e+00
4.851151e+00
4.844269e+00
4.839180e+00
4.842314e+00
4.862104e+00
4.890723e+00
4.928185e+00
4.977571e+00
5.032851e+00
5.083458e+00
5.124041e+00
5.148016e+00
5.128185e+00
5.060018e+00
5.004749e+00
4.168204e+00
4.121148e+00
4.145454e+00
4.195482e+00
4.233249e+00
4.314045e+00
4.426032e+00
4.560899e+00
4.716937e+00
4.872750e+00
5.001750e+00
5.094743e+00
5.156525e+00
5.187305e+00
5.190456e+00
5.185319e+00
3.013399e+00
2.947005e+00
3.028539e+00
3.171751e+00
3.282786e+00
3.465158e+00
3.713966e+00
4.007659e+00
4.332900e+00
4.644406e+00
4.892207e+00
5.060402e+00
5.163486e+00
5.221683e+00
5.250313e+00
5.261036e+00
2.214902e+00
2.147948e+00
2.287783e+00
2.501835e+00
2.666777e+00
2.921105e+00
3.261654e+00
3.660630e+00
4.095976e+00
4.506478e+00
4.828374e+00
5.042587e+00
5.169235e+00
5.238439e+00
5.272953e+00
5.287069e+00


-4.890008e-01
-2.160329e-01
-1.652617e-01
-2.173498e-01
-1.650293e-01
-1.397963e-01
-1.361788e-01
-1.181216e-01
-7.815446e-02
-4.771608e-03
1.059394e-01
2.333195e-01
3.552048e-01
4.770309e-01
6.124692e-01
-4.817059e-01
5.196966e-01
3.992193e-01
3.601129e-01
3.169364e-01
3.322907e-01
3.366722e-01
3.329084e-01
3.405323e-01
3.675297e-01
4.255778e-01
5.224400e-01
6.507326e-01
7.924358e-01
9.058068e-01
7.707116e-01
-1.238048e+00
8.318359e-01
7.321320e-01
6.472547e-01
6.065553e-01
5.964453e-01
5.878211e-01
5.811492e-01
5.820073e-01
5.947787e-01
6.255262e-01
6.750835e-01
7.278942e-01
7.431445e-01
6.470081e-01
3.377863e-01
-2.075123e-01
9.253110e-01
8.413777e-01
7.618946e-01
7.167016e-01
6.976219e-01
6.876359e-01
6.790541e-01
6.690375e-01
6.567047e-01
6.422141e-01
6.224860e-01
5.843336e-01
5.057837e-01
3.921445e-01
3.341710e-01
3.429479e-01
9.258282e-01
8.420047e-01
7.624049e-01
7.163599e-01
6.952292e-01
6.812689e-01
6.653320e-01
6.423609e-01
6.090178e-01
5.645038e-01
5.102120e-01
4.497302e-01
3.984047e-01
4.042549e-01
5.186258e-01
7.038672e-01
8.330397e-01
7.336469e-01
6.486564e-01
6.065207e-01
5.927288e-01
5.765175e-01
5.550009e-01
5.291581e-01
4.985146e-01
4.665808e-01
4.406392e-01
4.329609e-01
4.671046e-01
5.700881e-01
7.345659e-01
9.048274e-01
5.205437e-01
4.004105e-01
3.613361e-01
3.177577e-01
3.319003e-01
3.330927e-01
3.214357e-01
3.145125e-01
3.209473e-01
3.532142e-01
4.182643e-01
5.113780e-01
6.280943e-01
7.656688e-01
8.991271e-01
9.833770e-01
-4.900014e-01
-2.173309e-01
-1.667981e-01
-2.189226e-01
-1.653538e-01
-1.378787e-01
-1.312975e-01
-1.039688e-01
-3.244776e-02
1.106668e-01
3.264558e-01
5.697756e-01
7.804019e-01
9.194015e-01
9.842417e-01
9.996829e-01
1 2 19 18
2 3 20 19
3 4 21 20
4 5 22 21
5 6 23 22
6 7 24 23
7 8 25 24
8 9 26 25
9 10 27 26
10 11 28 27
11 12 29 28
12 13 30 29
13 14 31 30
14 15 32 31
15 16 33 32
16 17 34 33
18 19 36 35
19 20 37 36
20 21 38 37
21 22 39 38
22 23 40 39
23 24 41 40
24 25 42 41
25 26 43 42
26 27 44 43
27 28 45 44
28 29 46 45
29 30 47 46
30 31 48 47
31 32 49 48
32 33 50 49
33 34 51 50
35 36 53 52
36 37 54 53
37 38 55 54
38 39 56 55
39 40 57 56
40 41 58 57
41 42 59 58
42 43 60 59
43 44 61 60
44 45 62 61
45 46 63 62
46 47 64 63
47 48 65 64
48 49 66 65
49 50 67 66
50 51 68 67
52 53 70 69
53 54 71 70
54 55 72 71
55 56 73 72
56 57 74 73
57 58 75 74
58 59 76 75
59 60 77 76
60 61 78 77
61 62 79 78
62 63 80 79
63 64 81 80
64 65 82 81
65 66 83 82
66 67 84 83
67 68 85 84
69 70 87 86
70 71 88 87
71 72 89 88
72 73 90 89
73 74 91 90
74 75 92 91
75 76 93 92
76 77 94 93
77 78 95 94
78 79 96 95
79 80 97 96
80 81 98 97
81 82 99 98
82 83 100 99
83 84 101 100
84 85 102 101
86 87 104 103
87 88 105 104
88 89 106 105
89 90 107 106
90 91 108 107
91 92 109 108
92 93 110 109
93 94 111 110
94 95 112 111
95 96 113 112
96 97 114 113
97 98 115 114
98 99 116 115
99 100 117 116
100 101 118 117
101 102 119 118
103 104 121 120
104 105 122 121
105 106 123 122
106 107 124 123
107 108 125 124
108 109 126 125
109 110 127 126
110 111 128 127
111 112 129 128
112 113 130 129
113 114 131 130
114 115 132 131
115 116 133 132
116 117 134 133
117 118 135 134
118 119 136 135
120 121 138 137
121 122 139 138
122 123 140 139
123 124 141 140
124 125 142 141
125 126 143 142
126 127 144 143
127 128 145 144
128 129 146 145
129 130 147 146
130 131 148 147
131 132 149 148
132 133 150 149
133 134 151 150
134 135 152 151
135 136 153 152
