TITLE = "Solution"
VARIABLES = x, y, u, v, psiu, psiv, t, stress
ZONE T="structure" N=153 E=128 F=FEBLOCK ET=QUADRILATERAL VARLOCATION=([7,8]=cellcentered)
0.000000e+00
1.250000e+01
2.500000e+01
3.750000e+01
5.000000e+01
6.250000e+01
7.500000e+01
8.750000e+01
1.000000e+02
1.125000e+02
1.250000e+02
1.375000e+02
1.500000e+02
1.625000e+02
1.750000e+02
1.875000e+02
2.000000e+02
0.000000e+00
1.250000e+01
2.500000e+01
3.750000e+01
5.000000e+01
6.250000e+01
7.500000e+01
8.750000e+01
1.000000e+02
1.125000e+02
1.250000e+02
1.375000e+02
1.500000e+02
1.625000e+02
1.750000e+02
1.875000e+02
2.000000e+02
0.000000e+00
1.250000e+01
2.500000e+01
3.750000e+01
5.000000e+01
6.250000e+01
7.500000e+01
8.750000e+01
1.000000e+02
1.125000e+02
1.250000e+02
1.375000e+02
1.500000e+02
1.625000e+02
1.750000e+02
1.875000e+02
2.000000e+02
0.000000e+00
1.250000e+01
2.500000e+01
3.750000e+01
5.000000e+01
6.250000e+01
7.500000e+01
8.750000e+01
1.000000e+02
1.125000e+02
1.250000e+02
1.375000e+02
1.500000e+02
1.625000e+02
1.750000e+02
1.875000e+02
2.000000e+02
0.000000e+00
1.250000e+01
2.500000e+01
3.750000e+01
5.000000e+01
6.250000e+01
7.500000e+01
8.750000e+01
1.000000e+02
1.125000e+02
1.250000e+02
1.375000e+02
1.500000e+02
1.625000e+02
1.750000e+02
1.875000e+02
2.000000e+02
0.000000e+00
1.250000e+01
2.500000e+01
3.750000e+01
5.000000e+01
6.250000e+01
7.500000e+01
8.750000e+01
1.000000e+02
1.125000e+02
1.250000e+02
1.375000e+02
1.500000e+02
1.625000e+02
1.750000e+02
1.875000e+02
2.000000e+02
0.000000e+00
1.250000e+01
2.500000e+01
3.750000e+01
5.000000e+01
6.250000e+01
7.500000e+01
8.750000e+01
1.000000e+02
1.125000e+02
1.250000e+02
1.375000e+02
1.500000e+02
1.625000e+02
1.750000e+02
1.875000e+02
2.000000e+02
0.000000e+00
1.250000e+01
2.500000e+01
3.750000e+01
5.000000e+01
6.250000e+01
7.500000e+01
8.750000e+01
1.000000e+02
1.125000e+02
1.250000e+02
1.375000e+02
1.500000e+02
1.625000e+02
1.750000e+02
1.875000e+02
2.000000e+02
0.000000e+00
1.250000e+01
2.500000e+01
3.750000e+01
5.000000e+01
6.250000e+01
7.500000e+01
8.750000e+01
1.000000e+02
1.125000e+02
1.250000e+02
1.375000e+02
1.500000e+02
1.625000e+02
1.750000e+02
1.875000e+02
2.000000e+02
0.000000e+00
0.000000e+00
0.000000e+00
0.000000e+00
0.000000e+00
0.000000e+00
0.000000e+00
0.000000e+00
0.000000e+00
0.000000e+00
0.000000e+00
0.000000e+00
0.000000e+00
0.000000e+00
0.000000e+00
0.000000e+00
0.000000e+00
1.250000e+01
1.250000e+01
1.250000e+01
1.250000e+01
1.250000e+01
1.250000e+01
1.250000e+01
1.250000e+01
1.250000e+01
1.250000e+01
1.250000e+01
1.250000e+01
1.250000e+01
1.250000e+01
1.250000e+01
1.250000e+01
1.250000e+01
2.500000e+01
2.500000e+01
2.500000e+01
2.500000e+01
2.500000e+01
2.500000e+01
2.500000e+01
2.500000e+01
2.500000e+01
2.500000e+01
2.500000e+01
2.500000e+01
2.500000e+01
2.500000e+01
2.500000e+01
2.500000e+01
2.500000e+01
3.750000e+01
3.750000e+01
3.750000e+01
3.750000e+01
3.750000e+01
3.750000e+01
3.750000e+01
3.750000e+01
3.750000e+01
3.750000e+01
3.750000e+01
3.750000e+01
3.750000e+01
3.750000e+01
3.750000e+01
3.750000e+01
3.750000e+01
5.000000e+01
5.000000e+01
5.000000e+01
5.000000e+01
5.000000e+01
5.000000e+01
5.000000e+01
5.000000e+01
5.000000e+01
5.000000e+01
5.000000e+01
5.000000e+01
5.000000e+01
5.000000e+01
5.000000e+01
5.000000e+01
5.000000e+01
6.250000e+01
6.250000e+01
6.250000e+01
6.250000e+01
6.250000e+01
6.250000e+01
6.250000e+01
6.250000e+01
6.250000e+01
6.250000e+01
6.250000e+01
6.250000e+01
6.250000e+01
6.250000e+01
6.250000e+01
6.250000e+01
6.250000e+01
7.500000e+01
7.500000e+01
7.500000e+01
7.500000e+01
7.500000e+01
7.500000e+01
7.500000e+01
7.500000e+01
7.500000e+01
7.500000e+01
7.500000e+01
7.500000e+01
7.500000e+01
7.500000e+01
7.500000e+01
7.500000e+01
7.500000e+01
8.750000e+01
8.750000e+01
8.750000e+01
8.750000e+01
8.750000e+01
8.750000e+01
8.750000e+01
8.750000e+01
8.750000e+01
8.750000e+01
8.750000e+01
8.750000e+01
8.750000e+01
8.750000e+01
8.750000e+01
8.750000e+01
8.750000e+01
1.000000e+02
1.000000e+02
1.000000e+02
1.000000e+02
1.000000e+02
1.000000e+02
1.000000e+02
1.000000e+02
1.000000e+02
1.000000e+02
1.000000e+02
1.000000e+02
1.000000e+02
1.000000e+02
1.000000e+02
1.000000e+02
1.000000e+02
0.000000e+00
-1.060543e+00
-1.965264e+00
-2.810518e+00
-3.617401e+00
-4.391314e+00
-5.121813e+00
-5.796904e+00
-6.406924e+00
-6.945175e+00
-7.411883e+00
-7.817087e+00
-8.181261e+00
-8.537786e+00
-8.944295e+00
-9.471704e+00
-9.882309e+00
0.000000e+00
-6.371542e-01
-1.327649e+00
-1.973958e+00
-2.584684e+00
-3.166761e+00
-3.714963e+00
-4.221456e+00
-4.679228e+00
-5.082538e+00
-5.429392e+00
-5.722649e+00
-5.967569e+00
-6.166305e+00
-6.307265e+00
-6.336401e+00
-6.458052e+00
0.000000e+00
-4.003132e-01
-8.259759e-01
-1.255687e+00
-1.667315e+00
-2.057705e+00
-2.422573e+00
-2.757429e+00
-3.057596e+00
-3.318456e+00
-3.536495e+00
-3.709118e+00
-3.832325e+00
-3.897880e+00
-3.895446e+00
-3.863406e+00
-3.988356e+00
0.000000e+00
-1.931409e-01
-3.998066e-01
-6.110729e-01
-8.180893e-01
-1.013922e+00
-1.195363e+00
-1.359902e+00
-1.504572e+00
-1.625893e+00
-1.720178e+00
-1.783541e+00
-1.812120e+00
-1.805102e+00
-1.777956e+00
-1.787266e+00
-1.877947e+00
0.000000e+00
-1.425075e-04
-3.161809e-04
-4.620075e-04
-4.634707e-04
-7.276526e-05
1.196037e-03
4.214891e-03
1.040744e-02
2.186128e-02
4.122408e-02
7.101498e-02
1.115779e-01
1.564449e-01
1.861272e-01
1.748072e-01
1.168614e-01
0.000000e+00
1.929094e-01
3.992654e-01
6.102211e-01
8.170957e-01
1.013329e+00
1.196458e+00
1.365334e+00
1.519242e+00
1.658082e+00
1.782613e+00
1.893708e+00
1.990136e+00
2.065628e+00
2.108889e+00
2.111086e+00
2.082393e+00
0.000000e+00
4.002624e-01
8.258093e-01
1.255336e+00
1.666739e+00
2.056943e+00
2.421835e+00
2.757230e+00
3.059002e+00
3.323514e+00
3.548884e+00
3.735087e+00
3.882281e+00
3.988953e+00
4.052152e+00
4.072384e+00
4.065705e+00
0.000000e+00
6.374018e-01
1.328201e+00
1.974850e+00
2.585890e+00
3.168085e+00
3.715759e+00
4.220064e+00
4.672158e+00
5.063681e+00
5.389418e+00
5.648590e+00
5.843469e+00
5.977797e+00
6.057143e+00
6.090854e+00
6.097022e+00
0.000000e+00
1.060953e+00
1.966425e+00
2.812764e+00
3.621088e+00
4.396711e+00
5.128612e+00
5.803101e+00
6.406999e+00
6.927731e+00
7.356751e+00
7.691091e+00
7.931761e+00
8.083000e+00
8.155651e+00
8.173659e+00
8.173372e+00
0.000000e+00
-6.417742e-01
-1.259203e+00
-2.067448e+00
-3.072737e+00
-4.277248e+00
-5.669832e+00
-7.236255e+00
-8.958965e+00
-1.081846e+01
-1.279591e+01
-1.487625e+01
-1.705317e+01
-1.933995e+01
-2.180290e+01
-2.464784e+01
-2.883276e+01
0.000000e+00
-3.942593e-01
-1.034350e+00
-1.848684e+00
-2.864271e+00
-4.079218e+00
-5.485221e+00
-7.067794e+00
-8.808991e+00
-1.068830e+01
-1.268502e+01
-1.478222e+01
-1.697202e+01
-1.926638e+01
-2.172363e+01
-2.454462e+01
-2.806472e+01
0.000000e+00
-2.942741e-01
-8.778223e-01
-1.692124e+00
-2.713773e+00
-3.937932e+00
-5.354665e+00
-6.949787e+00
-8.705434e+00
-1.060092e+01
-1.261512e+01
-1.473072e+01
-1.693967e+01
-1.925097e+01
-2.170686e+01
-2.436773e+01
-2.694983e+01
0.000000e+00
-2.495611e-01
-7.980785e-01
-1.599176e+00
-2.623226e+00
-3.853756e+00
-5.278360e+00
-6.882609e+00
-8.649032e+00
-1.055727e+01
-1.258631e+01
-1.471823e+01
-1.694199e+01
-1.925540e+01
-2.165885e+01
-2.409043e+01
-2.633194e+01
0.000000e+00
-2.367099e-01
-7.735668e-01
-1.569200e+00
-2.593323e+00
-3.826664e+00
-5.255087e+00
-6.864317e+00
-8.637270e+00
-1.055386e+01
-1.259269e+01
-1.473372e+01
-1.695963e+01
-1.925289e+01
-2.158158e+01
-2.387022e+01
-2.598364e+01
0.000000e+00
-2.494182e-01
-7.979661e-01
-1.599333e+00
-2.624086e+00
-3.856110e+00
-5.283574e+00
-6.892806e+00
-8.667086e+00
-1.058626e+01
-1.262786e+01
-1.476869e+01
-1.698473e+01
-1.924728e+01
-2.151535e+01
-2.372656e+01
-2.579714e+01
0.000000e+00
-2.940224e-01
-8.775969e-01
-1.692331e+00
-2.715157e+00
-3.941861e+00
-5.363508e+00
-6.967243e+00
-8.736497e+00
-1.065093e+01
-1.268699e+01
-1.481893e+01
-1.701827e+01
-1.925125e+01
-2.147647e+01
-2.364675e+01
-2.571624e+01
0.000000e+00
-3.940019e-01
-1.034103e+00
-1.848929e+00
-2.865888e+00
-4.083810e+00
-5.495549e+00
-7.088123e+00
-8.845014e+00
-1.074596e+01
-1.276739e+01
-1.488285e+01
-1.706228e+01
-1.927039e+01
-2.146689e+01
-2.361404e+01
-2.569722e+01
0.000000e+00
-6.416435e-01
-1.259123e+00
-2.067925e+00
-3.074673e+00
-4.282232e+00
-5.680483e+00
-7.256446e+00
-8.993608e+00
-1.087224e+01
-1.286991e+01
-1.496114e+01
-1.711622e+01
-1.930033e+01
-2.147516e+01
-2.360809e+01
-2.569746e+01


0.000000e+00
6.044725e-06
1.301892e-05
1.916978e-05
2.400921e-05
2.756890e-05
2.988203e-05
3.097909e-05
3.104432e-05
3.042826e-05
2.951985e-05
2.862157e-05
2.789752e-05
2.738276e-05
2.703134e-05
2.674751e-05
2.646182e-05
0.000000e+00
4.395884e-06
1.046520e-05
1.534472e-05
1.897043e-05
2.153776e-05
2.313701e-05
2.378878e-05
2.364878e-05
2.303029e-05
2.226961e-05
2.160994e-05
2.116952e-05
2.096447e-05
2.090179e-05
2.075136e-05
2.043813e-05
0.000000e+00
3.334414e-06
7.225227e-06
1.044549e-05
1.288641e-05
1.458288e-05
1.560038e-05
1.599084e-05
1.588293e-05
1.548893e-05
1.503079e-05
1.466955e-05
1.447638e-05
1.443192e-05
1.442464e-05
1.426513e-05
1.391176e-05
0.000000e+00
1.747280e-06
3.506499e-06
5.085343e-06
6.333678e-06
7.209878e-06
7.737873e-06
7.968423e-06
7.977169e-06
7.861804e-06
7.721552e-06
7.626595e-06
7.595401e-06
7.589675e-06
7.534683e-06
7.348732e-06
7.036818e-06
0.000000e+00
-8.422453e-10
-1.878479e-09
-2.780965e-09
-2.310512e-09
1.698630e-09
1.215598e-08
3.293935e-08
6.897138e-08
1.247411e-07
2.002334e-07
2.848400e-07
3.524035e-07
3.655366e-07
3.022193e-07
1.680179e-07
-2.460014e-08
0.000000e+00
-1.748021e-06
-3.509036e-06
-5.090510e-06
-6.340863e-06
-7.215275e-06
-7.733135e-06
-7.939031e-06
-7.900838e-06
-7.708650e-06
-7.458705e-06
-7.230200e-06
-7.072243e-06
-7.001466e-06
-6.998608e-06
-7.036983e-06
-7.114995e-06
0.000000e+00
-3.333646e-06
-7.225671e-06
-1.044954e-05
-1.289642e-05
-1.460047e-05
-1.562451e-05
-1.601668e-05
-1.590410e-05
-1.550049e-05
-1.502636e-05
-1.463211e-05
-1.437286e-05
-1.423322e-05
-1.416851e-05
-1.414792e-05
-1.416288e-05
0.000000e+00
-4.396138e-06
-1.046695e-05
-1.534847e-05
-1.897731e-05
-2.154995e-05
-2.315538e-05
-2.381349e-05
-2.368895e-05
-2.311323e-05
-2.243201e-05
-2.187024e-05
-2.150104e-05
-2.129599e-05
-2.119454e-05
-2.115241e-05
-2.114511e-05
0.000000e+00
-6.049226e-06
-1.302579e-05
-1.917620e-05
-2.401291e-05
-2.756914e-05
-2.987870e-05
-3.097566e-05
-3.106032e-05
-3.051031e-05
-2.973384e-05
-2.902662e-05
-2.852418e-05
-2.823622e-05
-2.810869e-05
-2.807398e-05
-2.807153e-05
0.000000e+00
5.634499e-06
9.904787e-06
1.421527e-05
1.934312e-05
2.534957e-05
3.195618e-05
3.887211e-05
4.592217e-05
5.300715e-05
6.004938e-05
6.698327e-05
7.375221e-05
8.028162e-05
8.638818e-05
9.192113e-05
9.727079e-05
0.000000e+00
2.825621e-06
6.914547e-06
1.168070e-05
1.743252e-05
2.403852e-05
3.122876e-05
3.867458e-05
4.611480e-05
5.339756e-05
6.046617e-05
6.732066e-05
7.397465e-05
8.041606e-05
8.658025e-05
9.229238e-05
9.778648e-05
0.000000e+00
1.235492e-06
4.753828e-06
9.846557e-06
1.605063e-05
2.310510e-05
3.071030e-05
3.852683e-05
4.624324e-05
5.366970e-05
6.075694e-05
6.754723e-05
7.410895e-05
8.050737e-05
8.681569e-05
9.282703e-05
9.860483e-05
0.000000e+00
6.500681e-07
3.868209e-06
8.990454e-06
1.538862e-05
2.265607e-05
3.044913e-05
3.842113e-05
4.625723e-05
5.375669e-05
6.086513e-05
6.763632e-05
7.416990e-05
8.059387e-05
8.705551e-05
9.338975e-05
9.956621e-05
0.000000e+00
5.146326e-07
3.646925e-06
8.741384e-06
1.518803e-05
2.251814e-05
3.036362e-05
3.837420e-05
4.623886e-05
5.375573e-05
6.086827e-05
6.763636e-05
7.418021e-05
8.065674e-05
8.722991e-05
9.380071e-05
1.003494e-04
0.000000e+00
6.501103e-07
3.867644e-06
8.988964e-06
1.538551e-05
2.265085e-05
3.044159e-05
3.840903e-05
4.623364e-05
5.371130e-05
6.079205e-05
6.754868e-05
7.411733e-05
8.065672e-05
8.729748e-05
9.400924e-05
1.008007e-04
0.000000e+00
1.235480e-06
4.753636e-06
9.846024e-06
1.604855e-05
2.310047e-05
3.070204e-05
3.850931e-05
4.620146e-05
5.358262e-05
6.061312e-05
6.737078e-05
7.398833e-05
8.060188e-05
8.730253e-05
9.409346e-05
1.009863e-04
0.000000e+00
2.825494e-06
6.915245e-06
1.168231e-05
1.743406e-05
2.403882e-05
3.122549e-05
3.865996e-05
4.607173e-05
5.330309e-05
6.030724e-05
6.712158e-05
7.383146e-05
8.053186e-05
8.728882e-05
9.412278e-05
1.010327e-04
0.000000e+00
5.635010e-06
9.906006e-06
1.421745e-05
1.934623e-05
2.535310e-05
3.195766e-05
3.886592e-05
4.589868e-05
5.295212e-05
5.995079e-05
6.685500e-05
7.367561e-05
8.046221e-05
8.726848e-05
9.412693e-05
1.010360e-04


3.199496e+00
3.236677e+00
3.274824e+00
3.357326e+00
3.489581e+00
3.600540e+00
3.667259e+00
3.679592e+00
3.626897e+00
3.519418e+00
3.390370e+00
3.277249e+00
3.213257e+00
3.268009e+00
3.461123e+00
3.630790e+00
3.043846e+00
3.082170e+00
3.134126e+00
3.224143e+00
3.345510e+00
3.445803e+00
3.510238e+00
3.531340e+00
3.499661e+00
3.422804e+00
3.327410e+00
3.244424e+00
3.205944e+00
3.286348e+00
3.495494e+00
3.674364e+00
2.914325e+00
2.939749e+00
2.987451e+00
3.063280e+00
3.150231e+00
3.222302e+00
3.276073e+00
3.306747e+00
3.307256e+00
3.280508e+00
3.240895e+00
3.206215e+00
3.199083e+00
3.281066e+00
3.456875e+00
3.593795e+00
2.914114e+00
2.924971e+00
2.955458e+00
3.005743e+00
3.056721e+00
3.103041e+00
3.144614e+00
3.178321e+00
3.199585e+00
3.207811e+00
3.207126e+00
3.203559e+00
3.207792e+00
3.253026e+00
3.340149e+00
3.403659e+00
2.913986e+00
2.924912e+00
2.955651e+00
3.006555e+00
3.058733e+00
3.107093e+00
3.151793e+00
3.189753e+00
3.216019e+00
3.228891e+00
3.230531e+00
3.224157e+00
3.215155e+00
3.217537e+00
3.233438e+00
3.244212e+00
2.914076e+00
2.939681e+00
2.987930e+00
3.065068e+00
3.154554e+00
3.230911e+00
3.290963e+00
3.329655e+00
3.339008e+00
3.320186e+00
3.284213e+00
3.243416e+00
3.206441e+00
3.180254e+00
3.166054e+00
3.159125e+00
3.043827e+00
3.082291e+00
3.134509e+00
3.225073e+00
3.347641e+00
3.449912e+00
3.516726e+00
3.539742e+00
3.509253e+00
3.433466e+00
3.338783e+00
3.252481e+00
3.189635e+00
3.152467e+00
3.135127e+00
3.128876e+00
3.199802e+00
3.237019e+00
3.274855e+00
3.356616e+00
3.487689e+00
3.596714e+00
3.659722e+00
3.665526e+00
3.604355e+00
3.490132e+00
3.359478e+00
3.248677e+00
3.175697e+00
3.138786e+00
3.125533e+00
3.122534e+00


-1.542569e+00
-1.227904e+00
-9.443403e-01
-7.605441e-01
-6.117337e-01
-4.346638e-01
-2.263049e-01
-2.439914e-03
2.200414e-01
4.179204e-01
5.723346e-01
6.772067e-01
7.338213e-01
7.381758e-01
7.222955e-01
-3.198215e-01
3.034913e-02
-1.478388e-01
-6.923458e-02
2.702102e-02
1.103433e-01
2.058678e-01
3.159830e-01
4.358710e-01
5.592690e-01
6.761070e-01
7.776394e-01
8.609538e-01
9.257438e-01
9.627400e-01
8.309569e-01
-9.201687e-01
6.649130e-01
5.678006e-01
5.319298e-01
5.493656e-01
5.789305e-01
6.149640e-01
6.562733e-01
7.029518e-01
7.542929e-01
8.068068e-01
8.545928e-01
8.892892e-01
8.958328e-01
8.346783e-01
5.984638e-01
1.608464e-01
9.358541e-01
8.702643e-01
8.286848e-01
8.142656e-01
8.122402e-01
8.123204e-01
8.129153e-01
8.152540e-01
8.205010e-01
8.275613e-01
8.317133e-01
8.247464e-01
7.964571e-01
7.400385e-01
6.830596e-01
6.615790e-01
9.360634e-01
8.705402e-01
8.288410e-01
8.139023e-01
8.106390e-01
8.082493e-01
8.044193e-01
7.996226e-01
7.946593e-01
7.891671e-01
7.813919e-01
7.702632e-01
7.598551e-01
7.645473e-01
8.047957e-01
8.756986e-01
6.653402e-01
5.684632e-01
5.325333e-01
5.491908e-01
5.766027e-01
6.080096e-01
6.407003e-01
6.730930e-01
7.034498e-01
7.292251e-01
7.493477e-01
7.674700e-01
7.932566e-01
8.373045e-01
8.996294e-01
9.633850e-01
3.029420e-02
-1.478077e-01
-6.918755e-02
2.691609e-02
1.095864e-01
2.035603e-01
3.107658e-01
4.256547e-01
5.408217e-01
6.453291e-01
7.311884e-01
7.991201e-01
8.569613e-01
9.124160e-01
9.624233e-01
9.936875e-01
-1.544174e+00
-1.230712e+00
-9.479238e-01
-7.647751e-01
-6.160740e-01
-4.370043e-01
-2.218083e-01
1.656124e-02
2.620126e-01
4.894541e-01
6.775322e-01
8.184407e-01
9.138891e-01
9.693959e-01
9.940162e-01
9.998708e-01
1 2 19 18
2 3 20 19
3 4 21 20
4 5 22 21
5 6 23 22
6 7 24 23
7 8 25 24
8 9 26 25
9 10 27 26
10 11 28 27
11 12 29 28
12 13 30 29
13 14 31 30
14 15 32 31
15 16 33 32
16 17 34 33
18 19 36 35
19 20 37 36
20 21 38 37
21 22 39 38
22 23 40 39
23 24 41 40
24 25 42 41
25 26 43 42
26 27 44 43
27 28 45 44
28 29 46 45
29 30 47 46
30 31 48 47
31 32 49 48
32 33 50 49
33 34 51 50
35 36 53 52
36 37 54 53
37 38 55 54
38 39 56 55
39 40 57 56
40 41 58 57
41 42 59 58
42 43 60 59
43 44 61 60
44 45 62 61
45 46 63 62
46 47 64 63
47 48 65 64
48 49 66 65
49 50 67 66
50 51 68 67
52 53 70 69
53 54 71 70
54 55 72 71
55 56 73 72
56 57 74 73
57 58 75 74
58 59 76 75
59 60 77 76
60 61 78 77
61 62 79 78
62 63 80 79
63 64 81 80
64 65 82 81
65 66 83 82
66 67 84 83
67 68 85 84
69 70 87 86
70 71 88 87
71 72 89 88
72 73 90 89
73 74 91 90
74 75 92 91
75 76 93 92
76 77 94 93
77 78 95 94
78 79 96 95
79 80 97 96
80 81 98 97
81 82 99 98
82 83 100 99
83 84 101 100
84 85 102 101
86 87 104 103
87 88 105 104
88 89 106 105
89 90 107 106
90 91 108 107
91 92 109 108
92 93 110 109
93 94 111 110
94 95 112 111
95 96 113 112
96 97 114 113
97 98 115 114
98 99 116 115
99 100 117 116
100 101 118 117
101 102 119 118
103 104 121 120
104 105 122 121
105 106 123 122
106 107 124 123
107 108 125 124
108 109 126 125
109 110 127 126
110 111 128 127
111 112 129 128
112 113 130 129
113 114 131 130
114 115 132 131
115 116 133 132
116 117 134 133
117 118 135 134
118 119 136 135
120 121 138 137
121 122 139 138
122 123 140 139
123 124 141 140
124 125 142 141
125 126 143 142
126 127 144 143
127 128 145 144
128 129 146 145
129 130 147 146
130 131 148 147
131 132 149 148
132 133 150 149
133 134 151 150
134 135 152 151
135 136 153 152
