TITLE = "Solution"
VARIABLES = x, y, u, v, psiu, psiv, t, stress
ZONE T="structure" N=153 E=128 F=FEBLOCK ET=QUADRILATERAL VARLOCATION=([7,8]=cellcentered)
0.000000e+00
1.250000e+01
2.500000e+01
3.750000e+01
5.000000e+01
6.250000e+01
7.500000e+01
8.750000e+01
1.000000e+02
1.125000e+02
1.250000e+02
1.375000e+02
1.500000e+02
1.625000e+02
1.750000e+02
1.875000e+02
2.000000e+02
0.000000e+00
1.250000e+01
2.500000e+01
3.750000e+01
5.000000e+01
6.250000e+01
7.500000e+01
8.750000e+01
1.000000e+02
1.125000e+02
1.250000e+02
1.375000e+02
1.500000e+02
1.625000e+02
1.750000e+02
1.875000e+02
2.000000e+02
0.000000e+00
1.250000e+01
2.500000e+01
3.750000e+01
5.000000e+01
6.250000e+01
7.500000e+01
8.750000e+01
1.000000e+02
1.125000e+02
1.250000e+02
1.375000e+02
1.500000e+02
1.625000e+02
1.750000e+02
1.875000e+02
2.000000e+02
0.000000e+00
1.250000e+01
2.500000e+01
3.750000e+01
5.000000e+01
6.250000e+01
7.500000e+01
8.750000e+01
1.000000e+02
1.125000e+02
1.250000e+02
1.375000e+02
1.500000e+02
1.625000e+02
1.750000e+02
1.875000e+02
2.000000e+02
0.000000e+00
1.250000e+01
2.500000e+01
3.750000e+01
5.000000e+01
6.250000e+01
7.500000e+01
8.750000e+01
1.000000e+02
1.125000e+02
1.250000e+02
1.375000e+02
1.500000e+02
1.625000e+02
1.750000e+02
1.875000e+02
2.000000e+02
0.000000e+00
1.250000e+01
2.500000e+01
3.750000e+01
5.000000e+01
6.250000e+01
7.500000e+01
8.750000e+01
1.000000e+02
1.125000e+02
1.250000e+02
1.375000e+02
1.500000e+02
1.625000e+02
1.750000e+02
1.875000e+02
2.000000e+02
0.000000e+00
1.250000e+01
2.500000e+01
3.750000e+01
5.000000e+01
6.250000e+01
7.500000e+01
8.750000e+01
1.000000e+02
1.125000e+02
1.250000e+02
1.375000e+02
1.500000e+02
1.625000e+02
1.750000e+02
1.875000e+02
2.000000e+02
0.000000e+00
1.250000e+01
2.500000e+01
3.750000e+01
5.000000e+01
6.250000e+01
7.500000e+01
8.750000e+01
1.000000e+02
1.125000e+02
1.250000e+02
1.375000e+02
1.500000e+02
1.625000e+02
1.750000e+02
1.875000e+02
2.000000e+02
0.000000e+00
1.250000e+01
2.500000e+01
3.750000e+01
5.000000e+01
6.250000e+01
7.500000e+01
8.750000e+01
1.000000e+02
1.125000e+02
1.250000e+02
1.375000e+02
1.500000e+02
1.625000e+02
1.750000e+02
1.875000e+02
2.000000e+02
0.000000e+00
0.000000e+00
0.000000e+00
0.000000e+00
0.000000e+00
0.000000e+00
0.000000e+00
0.000000e+00
0.000000e+00
0.000000e+00
0.000000e+00
0.000000e+00
0.000000e+00
0.000000e+00
0.000000e+00
0.000000e+00
0.000000e+00
1.250000e+01
1.250000e+01
1.250000e+01
1.250000e+01
1.250000e+01
1.250000e+01
1.250000e+01
1.250000e+01
1.250000e+01
1.250000e+01
1.250000e+01
1.250000e+01
1.250000e+01
1.250000e+01
1.250000e+01
1.250000e+01
1.250000e+01
2.500000e+01
2.500000e+01
2.500000e+01
2.500000e+01
2.500000e+01
2.500000e+01
2.500000e+01
2.500000e+01
2.500000e+01
2.500000e+01
2.500000e+01
2.500000e+01
2.500000e+01
2.500000e+01
2.500000e+01
2.500000e+01
2.500000e+01
3.750000e+01
3.750000e+01
3.750000e+01
3.750000e+01
3.750000e+01
3.750000e+01
3.750000e+01
3.750000e+01
3.750000e+01
3.750000e+01
3.750000e+01
3.750000e+01
3.750000e+01
3.750000e+01
3.750000e+01
3.750000e+01
3.750000e+01
5.000000e+01
5.000000e+01
5.000000e+01
5.000000e+01
5.000000e+01
5.000000e+01
5.000000e+01
5.000000e+01
5.000000e+01
5.000000e+01
5.000000e+01
5.000000e+01
5.000000e+01
5.000000e+01
5.000000e+01
5.000000e+01
5.000000e+01
6.250000e+01
6.250000e+01
6.250000e+01
6.250000e+01
6.250000e+01
6.250000e+01
6.250000e+01
6.250000e+01
6.250000e+01
6.250000e+01
6.250000e+01
6.250000e+01
6.250000e+01
6.250000e+01
6.250000e+01
6.250000e+01
6.250000e+01
7.500000e+01
7.500000e+01
7.500000e+01
7.500000e+01
7.500000e+01
7.500000e+01
7.500000e+01
7.500000e+01
7.500000e+01
7.500000e+01
7.500000e+01
7.500000e+01
7.500000e+01
7.500000e+01
7.500000e+01
7.500000e+01
7.500000e+01
8.750000e+01
8.750000e+01
8.750000e+01
8.750000e+01
8.750000e+01
8.750000e+01
8.750000e+01
8.750000e+01
8.750000e+01
8.750000e+01
8.750000e+01
8.750000e+01
8.750000e+01
8.750000e+01
8.750000e+01
8.750000e+01
8.750000e+01
1.000000e+02
1.000000e+02
1.000000e+02
1.000000e+02
1.000000e+02
1.000000e+02
1.000000e+02
1.000000e+02
1.000000e+02
1.000000e+02
1.000000e+02
1.000000e+02
1.000000e+02
1.000000e+02
1.000000e+02
1.000000e+02
1.000000e+02
0.000000e+00
-9.333423e-01
-1.621074e+00
-2.332009e+00
-3.017038e+00
-3.673690e+00
-4.352632e+00
-5.017579e+00
-5.675986e+00
-6.342068e+00
-7.002414e+00
-7.676187e+00
-8.396518e+00
-9.156625e+00
-9.935772e+00
-1.064178e+01
-1.109216e+01
0.000000e+00
-4.503513e-01
-9.308876e-01
-1.434929e+00
-1.951431e+00
-2.441951e+00
-2.949854e+00
-3.452106e+00
-3.947130e+00
-4.447265e+00
-4.940888e+00
-5.433754e+00
-5.937540e+00
-6.422762e+00
-6.782648e+00
-6.874951e+00
-7.044575e+00
0.000000e+00
-1.929332e-01
-4.329880e-01
-7.395728e-01
-1.079250e+00
-1.409658e+00
-1.755814e+00
-2.099796e+00
-2.439671e+00
-2.779159e+00
-3.107077e+00
-3.414872e+00
-3.685909e+00
-3.880659e+00
-3.941816e+00
-3.922053e+00
-4.074345e+00
0.000000e+00
-8.686137e-02
-1.854315e-01
-3.285439e-01
-4.800708e-01
-6.489314e-01
-8.212289e-01
-9.915235e-01
-1.159918e+00
-1.320417e+00
-1.464944e+00
-1.578507e+00
-1.639537e+00
-1.629826e+00
-1.564604e+00
-1.559709e+00
-1.688576e+00
0.000000e+00
-1.792893e-03
-3.649151e-03
-5.220657e-03
-6.116745e-03
-5.496423e-03
-2.185520e-03
5.548191e-03
2.047413e-02
4.581798e-02
8.658125e-02
1.510853e-01
2.455414e-01
3.638239e-01
4.654384e-01
4.789601e-01
3.752555e-01
0.000000e+00
8.379781e-02
1.794131e-01
3.195059e-01
4.691310e-01
6.385062e-01
8.154774e-01
9.982933e-01
1.191433e+00
1.394564e+00
1.609247e+00
1.830452e+00
2.044980e+00
2.231764e+00
2.355478e+00
2.380169e+00
2.318467e+00
0.000000e+00
1.916010e-01
4.302997e-01
7.351776e-01
1.073332e+00
1.403022e+00
1.749966e+00
2.099154e+00
2.449480e+00
2.806770e+00
3.168189e+00
3.524890e+00
3.846501e+00
4.099521e+00
4.259281e+00
4.313706e+00
4.297867e+00
0.000000e+00
4.504152e-01
9.309883e-01
1.434401e+00
1.950323e+00
2.439633e+00
2.944115e+00
3.443753e+00
3.931942e+00
4.416059e+00
4.896281e+00
5.366701e+00
5.784880e+00
6.100628e+00
6.296132e+00
6.381048e+00
6.396596e+00
0.000000e+00
9.343819e-01
1.623613e+00
2.335779e+00
3.022289e+00
3.680055e+00
4.356164e+00
5.017115e+00
5.662800e+00
6.296887e+00
6.919612e+00
7.519468e+00
8.031454e+00
8.384784e+00
8.563576e+00
8.609456e+00
8.608910e+00
0.000000e+00
-5.804571e-01
-1.251043e+00
-2.144424e+00
-3.206635e+00
-4.436879e+00
-5.847546e+00
-7.426264e+00
-9.177612e+00
-1.110410e+01
-1.320098e+01
-1.547749e+01
-1.794899e+01
-2.062308e+01
-2.353288e+01
-2.687959e+01
-3.183470e+01
0.000000e+00
-3.801166e-01
-1.083166e+00
-1.962571e+00
-3.033304e+00
-4.262159e+00
-5.671153e+00
-7.253295e+00
-9.004466e+00
-1.093190e+01
-1.303071e+01
-1.530375e+01
-1.777048e+01
-2.045668e+01
-2.341055e+01
-2.678348e+01
-3.084150e+01
0.000000e+00
-3.392938e-01
-9.794990e-01
-1.851239e+00
-2.911787e+00
-4.138699e+00
-5.547403e+00
-7.129945e+00
-8.883718e+00
-1.081564e+01
-1.292220e+01
-1.520680e+01
-1.768925e+01
-2.040603e+01
-2.340294e+01
-2.661412e+01
-2.961777e+01
0.000000e+00
-3.703378e-01
-9.604967e-01
-1.807854e+00
-2.845418e+00
-4.070038e+00
-5.477868e+00
-7.061107e+00
-8.820824e+00
-1.076085e+01
-1.288264e+01
-1.519049e+01
-1.769396e+01
-2.041311e+01
-2.334875e+01
-2.629098e+01
-2.884868e+01
0.000000e+00
-3.801455e-01
-9.681052e-01
-1.795507e+00
-2.829849e+00
-4.052113e+00
-5.461809e+00
-7.049604e+00
-8.816149e+00
-1.076490e+01
-1.290089e+01
-1.522720e+01
-1.773633e+01
-2.041731e+01
-2.321526e+01
-2.593559e+01
-2.824828e+01
0.000000e+00
-3.700613e-01
-9.612729e-01
-1.810642e+00
-2.851700e+00
-4.081934e+00
-5.496999e+00
-7.091040e+00
-8.864636e+00
-1.081808e+01
-1.295847e+01
-1.528841e+01
-1.778649e+01
-2.041088e+01
-2.308006e+01
-2.563325e+01
-2.783688e+01
0.000000e+00
-3.390397e-01
-9.808987e-01
-1.855808e+00
-2.922067e+00
-4.158152e+00
-5.579093e+00
-7.179618e+00
-8.956272e+00
-1.091094e+01
-1.304716e+01
-1.536888e+01
-1.784748e+01
-2.041905e+01
-2.299262e+01
-2.544271e+01
-2.763922e+01
0.000000e+00
-3.799642e-01
-1.084638e+00
-1.967530e+00
-3.044582e+00
-4.283472e+00
-5.706708e+00
-7.308798e+00
-9.084929e+00
-1.103870e+01
-1.317004e+01
-1.547968e+01
-1.793479e+01
-2.046226e+01
-2.297009e+01
-2.536086e+01
-2.759083e+01
0.000000e+00
-5.806111e-01
-1.252726e+00
-2.149625e+00
-3.218230e+00
-4.458138e+00
-5.882923e+00
-7.481030e+00
-9.254397e+00
-1.120535e+01
-1.333315e+01
-1.562978e+01
-1.805310e+01
-2.053384e+01
-2.299103e+01
-2.534582e+01
-2.759126e+01


0.000000e+00
1.431639e-05
2.457292e-05
3.647136e-05
5.132722e-05
6.462231e-05
7.806853e-05
9.216510e-05
1.056482e-04
1.189805e-04
1.325220e-04
1.464928e-04
1.587211e-04
1.665293e-04
1.710426e-04
1.747552e-04
1.794945e-04
0.000000e+00
1.054625e-05
1.961263e-05
2.831040e-05
4.040592e-05
5.085495e-05
6.050408e-05
7.124035e-05
8.140967e-05
9.082874e-05
1.004507e-04
1.100259e-04
1.172212e-04
1.195043e-04
1.192139e-04
1.222811e-04
1.272895e-04
0.000000e+00
8.562329e-06
1.491885e-05
2.073429e-05
2.920215e-05
3.611788e-05
4.234895e-05
4.935805e-05
5.569037e-05
6.124136e-05
6.643988e-05
7.088539e-05
7.332589e-05
7.291734e-05
7.246924e-05
7.513292e-05
7.982228e-05
0.000000e+00
4.541594e-06
7.076996e-06
1.071961e-05
1.456188e-05
1.760800e-05
2.097705e-05
2.409183e-05
2.674189e-05
2.900428e-05
3.030711e-05
3.054273e-05
2.982557e-05
2.931713e-05
3.018292e-05
3.338033e-05
3.814760e-05
0.000000e+00
-4.697543e-08
-1.112911e-07
-1.923656e-07
-2.917392e-07
-4.156054e-07
-5.664946e-07
-7.593410e-07
-1.071854e-06
-1.605674e-06
-2.629969e-06
-4.150033e-06
-6.061746e-06
-7.296002e-06
-6.506642e-06
-4.301487e-06
-1.330902e-06
0.000000e+00
-4.618849e-06
-7.257255e-06
-1.103342e-05
-1.506308e-05
-1.831203e-05
-2.188461e-05
-2.532281e-05
-2.824795e-05
-3.089244e-05
-3.312761e-05
-3.494680e-05
-3.686106e-05
-3.857300e-05
-3.979098e-05
-4.017782e-05
-3.950877e-05
0.000000e+00
-8.583650e-06
-1.497476e-05
-2.088837e-05
-2.949468e-05
-3.650285e-05
-4.292833e-05
-5.010934e-05
-5.623799e-05
-6.167737e-05
-6.664081e-05
-6.969219e-05
-7.144937e-05
-7.323798e-05
-7.495459e-05
-7.626638e-05
-7.665509e-05
0.000000e+00
-1.053092e-05
-1.957885e-05
-2.829436e-05
-4.043496e-05
-5.084149e-05
-6.057572e-05
-7.144061e-05
-8.126515e-05
-9.078484e-05
-1.005104e-04
-1.077067e-04
-1.112668e-04
-1.133587e-04
-1.145768e-04
-1.151349e-04
-1.153394e-04
0.000000e+00
-1.431873e-05
-2.452843e-05
-3.634730e-05
-5.112480e-05
-6.424879e-05
-7.750557e-05
-9.155535e-05
-1.046932e-04
-1.181033e-04
-1.325570e-04
-1.445020e-04
-1.520133e-04
-1.553171e-04
-1.559120e-04
-1.555581e-04
-1.553537e-04
0.000000e+00
1.198490e-05
1.958842e-05
3.108544e-05
4.599845e-05
6.235917e-05
8.301946e-05
1.078055e-04
1.355354e-04
1.671063e-04
2.029153e-04
2.425642e-04
2.848975e-04
3.303331e-04
3.834108e-04
4.437579e-04
5.049364e-04
0.000000e+00
6.960722e-06
1.536784e-05
2.519798e-05
3.965122e-05
5.663914e-05
7.704879e-05
1.017294e-04
1.297917e-04
1.614493e-04
1.971631e-04
2.371613e-04
2.812741e-04
3.286855e-04
3.801007e-04
4.377675e-04
4.967610e-04
0.000000e+00
3.558903e-06
1.134091e-05
2.064163e-05
3.446467e-05
5.204418e-05
7.266408e-05
9.720833e-05
1.256932e-04
1.576702e-04
1.934486e-04
2.338652e-04
2.791907e-04
3.281915e-04
3.763801e-04
4.301200e-04
4.867757e-04
0.000000e+00
2.298539e-06
9.208538e-06
1.869254e-05
3.238460e-05
5.005806e-05
7.090774e-05
9.559001e-05
1.242249e-04
1.565250e-04
1.925752e-04
2.326218e-04
2.783965e-04
3.275184e-04
3.736278e-04
4.220474e-04
4.740870e-04
0.000000e+00
1.918576e-06
8.589005e-06
1.813672e-05
3.187719e-05
4.944460e-05
7.036875e-05
9.517244e-05
1.238496e-04
1.563401e-04
1.926331e-04
2.324950e-04
2.781580e-04
3.278096e-04
3.728177e-04
4.163826e-04
4.624804e-04
0.000000e+00
2.345338e-06
9.267492e-06
1.874513e-05
3.242920e-05
5.003864e-05
7.079879e-05
9.549635e-05
1.240823e-04
1.564776e-04
1.931776e-04
2.336531e-04
2.794011e-04
3.281954e-04
3.735168e-04
4.149717e-04
4.558522e-04
0.000000e+00
3.629035e-06
1.143352e-05
2.073683e-05
3.455414e-05
5.199843e-05
7.248495e-05
9.701587e-05
1.252736e-04
1.574870e-04
1.946149e-04
2.360656e-04
2.814921e-04
3.287412e-04
3.733641e-04
4.145090e-04
4.539316e-04
0.000000e+00
7.027476e-06
1.548075e-05
2.533448e-05
3.976426e-05
5.662980e-05
7.690335e-05
1.014450e-04
1.292361e-04
1.611857e-04
1.982513e-04
2.393258e-04
2.833295e-04
3.291041e-04
3.729505e-04
4.142690e-04
4.540516e-04
0.000000e+00
1.204717e-05
1.970127e-05
3.124142e-05
4.612238e-05
6.236212e-05
8.294657e-05
1.075173e-04
1.349321e-04
1.670276e-04
2.038156e-04
2.430282e-04
2.851388e-04
3.294202e-04
3.728287e-04
4.141239e-04
4.542442e-04


3.392715e+00
3.293074e+00
3.349855e+00
3.170434e+00
3.092797e+00
3.318311e+00
3.497536e+00
3.790159e+00
4.219001e+00
4.709567e+00
5.503021e+00
6.603504e+00
7.507688e+00
7.632513e+00
6.645552e+00
5.561987e+00
5.379600e+00
5.276666e+00
5.231103e+00
5.091620e+00
4.991187e+00
5.128258e+00
5.236623e+00
5.410776e+00
5.685106e+00
5.993070e+00
6.478290e+00
7.150259e+00
7.680359e+00
7.464230e+00
6.150998e+00
4.725513e+00
7.447252e+00
7.384793e+00
7.349080e+00
7.231572e+00
7.180310e+00
7.223692e+00
7.238559e+00
7.282905e+00
7.362328e+00
7.428357e+00
7.513055e+00
7.640413e+00
7.712105e+00
7.309263e+00
6.052039e+00
4.835698e+00
8.299920e+00
8.275722e+00
8.256532e+00
8.198750e+00
8.177700e+00
8.173764e+00
8.150034e+00
8.122321e+00
8.078961e+00
7.980233e+00
7.787042e+00
7.536814e+00
7.374334e+00
7.166710e+00
6.633581e+00
6.106436e+00
8.298761e+00
8.273277e+00
8.251984e+00
8.191105e+00
8.166357e+00
8.156165e+00
8.123412e+00
8.077513e+00
7.993808e+00
7.836131e+00
7.562728e+00
7.224177e+00
7.083655e+00
7.201696e+00
7.331158e+00
7.340990e+00
7.442062e+00
7.375415e+00
7.330482e+00
7.201741e+00
7.135412e+00
7.157727e+00
7.149079e+00
7.140536e+00
7.126019e+00
7.128433e+00
7.148638e+00
7.140822e+00
7.251905e+00
7.568074e+00
7.898407e+00
8.068897e+00
5.371339e+00
5.262246e+00
5.205053e+00
5.051804e+00
4.930955e+00
5.044522e+00
5.138386e+00
5.262749e+00
5.497759e+00
5.937963e+00
6.594118e+00
7.205137e+00
7.645624e+00
8.008235e+00
8.271607e+00
8.394355e+00
3.384734e+00
3.281950e+00
3.330741e+00
3.144941e+00
3.055542e+00
3.268707e+00
3.462365e+00
3.752325e+00
4.231799e+00
5.062075e+00
6.228997e+00
7.260271e+00
7.892946e+00
8.244366e+00
8.430391e+00
8.507236e+00


-6.805534e-01
-2.126675e-01
-2.925242e-01
-2.664056e-01
-1.582238e-01
-2.380743e-01
-2.007472e-01
-1.757243e-01
-2.032595e-01
-1.805280e-01
-2.063001e-01
-3.201723e-01
-3.487971e-01
-1.096113e-01
4.353999e-01
-7.829108e-01
5.752481e-01
4.295515e-01
3.153478e-01
2.459687e-01
2.958537e-01
2.322800e-01
2.305349e-01
2.338721e-01
2.097367e-01
2.271917e-01
2.591036e-01
3.126184e-01
4.681925e-01
7.280367e-01
7.295904e-01
-1.148138e+00
7.923088e-01
6.069591e-01
3.971648e-01
3.381748e-01
3.248216e-01
2.830476e-01
2.850601e-01
2.889613e-01
2.908962e-01
3.208343e-01
3.728818e-01
4.382108e-01
4.698980e-01
3.402479e-01
1.073057e-01
-2.772212e-01
8.221158e-01
6.701382e-01
4.537782e-01
3.524560e-01
2.928820e-01
2.661391e-01
2.682257e-01
2.771948e-01
2.884362e-01
2.961955e-01
2.874485e-01
2.387018e-01
9.045454e-02
-1.697878e-01
-1.820279e-01
-6.364150e-03
8.234699e-01
6.717751e-01
4.558510e-01
3.522494e-01
2.876030e-01
2.525428e-01
2.395364e-01
2.270469e-01
2.118354e-01
1.757573e-01
1.068330e-01
1.125843e-02
-1.146144e-01
-1.918418e-01
-1.162638e-02
3.930522e-01
7.954082e-01
6.110077e-01
4.028012e-01
3.405476e-01
3.178917e-01
2.608916e-01
2.316034e-01
1.902100e-01
1.303029e-01
5.006246e-02
-4.585734e-02
-9.433137e-02
-6.225629e-02
8.867332e-02
4.025033e-01
7.814844e-01
5.772402e-01
4.314930e-01
3.183096e-01
2.470340e-01
2.931906e-01
2.238512e-01
2.012804e-01
1.818591e-01
1.241379e-01
4.904907e-02
-2.711339e-02
1.513801e-02
2.058007e-01
4.747055e-01
7.633341e-01
9.596936e-01
-6.827605e-01
-2.157924e-01
-2.939560e-01
-2.686940e-01
-1.587535e-01
-2.274510e-01
-1.913131e-01
-1.438894e-01
-1.227018e-01
-1.079396e-01
-6.621620e-02
1.612749e-01
5.245691e-01
8.143931e-01
9.617375e-01
9.991449e-01
1 2 19 18
2 3 20 19
3 4 21 20
4 5 22 21
5 6 23 22
6 7 24 23
7 8 25 24
8 9 26 25
9 10 27 26
10 11 28 27
11 12 29 28
12 13 30 29
13 14 31 30
14 15 32 31
15 16 33 32
16 17 34 33
18 19 36 35
19 20 37 36
20 21 38 37
21 22 39 38
22 23 40 39
23 24 41 40
24 25 42 41
25 26 43 42
26 27 44 43
27 28 45 44
28 29 46 45
29 30 47 46
30 31 48 47
31 32 49 48
32 33 50 49
33 34 51 50
35 36 53 52
36 37 54 53
37 38 55 54
38 39 56 55
39 40 57 56
40 41 58 57
41 42 59 58
42 43 60 59
43 44 61 60
44 45 62 61
45 46 63 62
46 47 64 63
47 48 65 64
48 49 66 65
49 50 67 66
50 51 68 67
52 53 70 69
53 54 71 70
54 55 72 71
55 56 73 72
56 57 74 73
57 58 75 74
58 59 76 75
59 60 77 76
60 61 78 77
61 62 79 78
62 63 80 79
63 64 81 80
64 65 82 81
65 66 83 82
66 67 84 83
67 68 85 84
69 70 87 86
70 71 88 87
71 72 89 88
72 73 90 89
73 74 91 90
74 75 92 91
75 76 93 92
76 77 94 93
77 78 95 94
78 79 96 95
79 80 97 96
80 81 98 97
81 82 99 98
82 83 100 99
83 84 101 100
84 85 102 101
86 87 104 103
87 88 105 104
88 89 106 105
89 90 107 106
90 91 108 107
91 92 109 108
92 93 110 109
93 94 111 110
94 95 112 111
95 96 113 112
96 97 114 113
97 98 115 114
98 99 116 115
99 100 117 116
100 101 118 117
101 102 119 118
103 104 121 120
104 105 122 121
105 106 123 122
106 107 124 123
107 108 125 124
108 109 126 125
109 110 127 126
110 111 128 127
111 112 129 128
112 113 130 129
113 114 131 130
114 115 132 131
115 116 133 132
116 117 134 133
117 118 135 134
118 119 136 135
120 121 138 137
121 122 139 138
122 123 140 139
123 124 141 140
124 125 142 141
125 126 143 142
126 127 144 143
127 128 145 144
128 129 146 145
129 130 147 146
130 131 148 147
131 132 149 148
132 133 150 149
133 134 151 150
134 135 152 151
135 136 153 152
