TITLE = "Solution"
VARIABLES = x, y, u, v, psiu, psiv, t, stress
ZONE T="structure" N=153 E=128 F=FEBLOCK ET=QUADRILATERAL VARLOCATION=([7,8]=cellcentered)
0.000000e+00
1.250000e+01
2.500000e+01
3.750000e+01
5.000000e+01
6.250000e+01
7.500000e+01
8.750000e+01
1.000000e+02
1.125000e+02
1.250000e+02
1.375000e+02
1.500000e+02
1.625000e+02
1.750000e+02
1.875000e+02
2.000000e+02
0.000000e+00
1.250000e+01
2.500000e+01
3.750000e+01
5.000000e+01
6.250000e+01
7.500000e+01
8.750000e+01
1.000000e+02
1.125000e+02
1.250000e+02
1.375000e+02
1.500000e+02
1.625000e+02
1.750000e+02
1.875000e+02
2.000000e+02
0.000000e+00
1.250000e+01
2.500000e+01
3.750000e+01
5.000000e+01
6.250000e+01
7.500000e+01
8.750000e+01
1.000000e+02
1.125000e+02
1.250000e+02
1.375000e+02
1.500000e+02
1.625000e+02
1.750000e+02
1.875000e+02
2.000000e+02
0.000000e+00
1.250000e+01
2.500000e+01
3.750000e+01
5.000000e+01
6.250000e+01
7.500000e+01
8.750000e+01
1.000000e+02
1.125000e+02
1.250000e+02
1.375000e+02
1.500000e+02
1.625000e+02
1.750000e+02
1.875000e+02
2.000000e+02
0.000000e+00
1.250000e+01
2.500000e+01
3.750000e+01
5.000000e+01
6.250000e+01
7.500000e+01
8.750000e+01
1.000000e+02
1.125000e+02
1.250000e+02
1.375000e+02
1.500000e+02
1.625000e+02
1.750000e+02
1.875000e+02
2.000000e+02
0.000000e+00
1.250000e+01
2.500000e+01
3.750000e+01
5.000000e+01
6.250000e+01
7.500000e+01
8.750000e+01
1.000000e+02
1.125000e+02
1.250000e+02
1.375000e+02
1.500000e+02
1.625000e+02
1.750000e+02
1.875000e+02
2.000000e+02
0.000000e+00
1.250000e+01
2.500000e+01
3.750000e+01
5.000000e+01
6.250000e+01
7.500000e+01
8.750000e+01
1.000000e+02
1.125000e+02
1.250000e+02
1.375000e+02
1.500000e+02
1.625000e+02
1.750000e+02
1.875000e+02
2.000000e+02
0.000000e+00
1.250000e+01
2.500000e+01
3.750000e+01
5.000000e+01
6.250000e+01
7.500000e+01
8.750000e+01
1.000000e+02
1.125000e+02
1.250000e+02
1.375000e+02
1.500000e+02
1.625000e+02
1.750000e+02
1.875000e+02
2.000000e+02
0.000000e+00
1.250000e+01
2.500000e+01
3.750000e+01
5.000000e+01
6.250000e+01
7.500000e+01
8.750000e+01
1.000000e+02
1.125000e+02
1.250000e+02
1.375000e+02
1.500000e+02
1.625000e+02
1.750000e+02
1.875000e+02
2.000000e+02
0.000000e+00
0.000000e+00
0.000000e+00
0.000000e+00
0.000000e+00
0.000000e+00
0.000000e+00
0.000000e+00
0.000000e+00
0.000000e+00
0.000000e+00
0.000000e+00
0.000000e+00
0.000000e+00
0.000000e+00
0.000000e+00
0.000000e+00
1.250000e+01
1.250000e+01
1.250000e+01
1.250000e+01
1.250000e+01
1.250000e+01
1.250000e+01
1.250000e+01
1.250000e+01
1.250000e+01
1.250000e+01
1.250000e+01
1.250000e+01
1.250000e+01
1.250000e+01
1.250000e+01
1.250000e+01
2.500000e+01
2.500000e+01
2.500000e+01
2.500000e+01
2.500000e+01
2.500000e+01
2.500000e+01
2.500000e+01
2.500000e+01
2.500000e+01
2.500000e+01
2.500000e+01
2.500000e+01
2.500000e+01
2.500000e+01
2.500000e+01
2.500000e+01
3.750000e+01
3.750000e+01
3.750000e+01
3.750000e+01
3.750000e+01
3.750000e+01
3.750000e+01
3.750000e+01
3.750000e+01
3.750000e+01
3.750000e+01
3.750000e+01
3.750000e+01
3.750000e+01
3.750000e+01
3.750000e+01
3.750000e+01
5.000000e+01
5.000000e+01
5.000000e+01
5.000000e+01
5.000000e+01
5.000000e+01
5.000000e+01
5.000000e+01
5.000000e+01
5.000000e+01
5.000000e+01
5.000000e+01
5.000000e+01
5.000000e+01
5.000000e+01
5.000000e+01
5.000000e+01
6.250000e+01
6.250000e+01
6.250000e+01
6.250000e+01
6.250000e+01
6.250000e+01
6.250000e+01
6.250000e+01
6.250000e+01
6.250000e+01
6.250000e+01
6.250000e+01
6.250000e+01
6.250000e+01
6.250000e+01
6.250000e+01
6.250000e+01
7.500000e+01
7.500000e+01
7.500000e+01
7.500000e+01
7.500000e+01
7.500000e+01
7.500000e+01
7.500000e+01
7.500000e+01
7.500000e+01
7.500000e+01
7.500000e+01
7.500000e+01
7.500000e+01
7.500000e+01
7.500000e+01
7.500000e+01
8.750000e+01
8.750000e+01
8.750000e+01
8.750000e+01
8.750000e+01
8.750000e+01
8.750000e+01
8.750000e+01
8.750000e+01
8.750000e+01
8.750000e+01
8.750000e+01
8.750000e+01
8.750000e+01
8.750000e+01
8.750000e+01
8.750000e+01
1.000000e+02
1.000000e+02
1.000000e+02
1.000000e+02
1.000000e+02
1.000000e+02
1.000000e+02
1.000000e+02
1.000000e+02
1.000000e+02
1.000000e+02
1.000000e+02
1.000000e+02
1.000000e+02
1.000000e+02
1.000000e+02
1.000000e+02
0.000000e+00
-9.959243e-01
-1.678999e+00
-2.431194e+00
-3.117243e+00
-3.750483e+00
-4.458232e+00
-5.087218e+00
-5.763224e+00
-6.405584e+00
-7.055533e+00
-7.723564e+00
-8.376446e+00
-9.146439e+00
-1.007746e+01
-1.083397e+01
-1.128409e+01
0.000000e+00
-4.459805e-01
-9.064778e-01
-1.419027e+00
-1.930664e+00
-2.410701e+00
-2.924821e+00
-3.423022e+00
-3.918991e+00
-4.421446e+00
-4.913930e+00
-5.416917e+00
-5.901778e+00
-6.421402e+00
-6.897727e+00
-7.024060e+00
-7.202951e+00
0.000000e+00
-1.460935e-01
-3.488419e-01
-6.395554e-01
-9.775477e-01
-1.302575e+00
-1.655706e+00
-2.012853e+00
-2.356392e+00
-2.718583e+00
-3.057403e+00
-3.391728e+00
-3.687426e+00
-3.927368e+00
-4.036617e+00
-4.034641e+00
-4.183061e+00
0.000000e+00
-7.898675e-02
-1.621193e-01
-3.096527e-01
-4.548959e-01
-6.281788e-01
-8.139264e-01
-9.790740e-01
-1.166874e+00
-1.328806e+00
-1.489859e+00
-1.628924e+00
-1.722333e+00
-1.730512e+00
-1.656857e+00
-1.635899e+00
-1.752940e+00
0.000000e+00
-3.321286e-03
-7.229586e-03
-1.129516e-02
-1.568554e-02
-1.911880e-02
-2.000392e-02
-1.726252e-02
-8.495969e-03
8.354263e-03
3.275787e-02
7.771062e-02
1.602357e-01
2.751692e-01
3.949841e-01
4.358656e-01
3.376863e-01
0.000000e+00
7.317740e-02
1.504079e-01
2.905777e-01
4.290570e-01
5.955565e-01
7.744535e-01
9.426825e-01
1.148735e+00
1.343946e+00
1.561937e+00
1.782233e+00
2.008879e+00
2.216398e+00
2.352202e+00
2.385105e+00
2.319426e+00
0.000000e+00
1.437280e-01
3.435457e-01
6.305235e-01
9.655890e-01
1.290842e+00
1.643089e+00
1.999652e+00
2.359085e+00
2.764630e+00
3.143686e+00
3.510670e+00
3.843502e+00
4.119228e+00
4.296015e+00
4.350655e+00
4.327990e+00
0.000000e+00
4.466915e-01
9.072168e-01
1.419532e+00
1.930465e+00
2.409055e+00
2.920102e+00
3.415641e+00
3.903283e+00
4.396693e+00
4.874977e+00
5.350104e+00
5.778000e+00
6.125688e+00
6.342782e+00
6.438605e+00
6.456317e+00
0.000000e+00
9.982114e-01
1.684091e+00
2.440043e+00
3.128044e+00
3.761839e+00
4.468604e+00
5.095733e+00
5.747543e+00
6.331616e+00
6.905087e+00
7.505960e+00
8.035957e+00
8.448055e+00
8.649300e+00
8.702035e+00
8.702565e+00
0.000000e+00
-6.187633e-01
-1.361822e+00
-2.363234e+00
-3.537418e+00
-4.880958e+00
-6.412453e+00
-8.098591e+00
-9.959069e+00
-1.198256e+01
-1.416734e+01
-1.651820e+01
-1.903187e+01
-2.176299e+01
-2.472724e+01
-2.808668e+01
-3.310235e+01
0.000000e+00
-4.159140e-01
-1.193488e+00
-2.177014e+00
-3.368367e+00
-4.706828e+00
-6.234909e+00
-7.929995e+00
-9.782765e+00
-1.181500e+01
-1.399505e+01
-1.635049e+01
-1.885899e+01
-2.157033e+01
-2.458704e+01
-2.800293e+01
-3.205277e+01
0.000000e+00
-3.903670e-01
-1.091668e+00
-2.073609e+00
-3.249256e+00
-4.580882e+00
-6.115197e+00
-7.800157e+00
-9.663778e+00
-1.169316e+01
-1.388438e+01
-1.625120e+01
-1.876992e+01
-2.150808e+01
-2.457706e+01
-2.785106e+01
-3.088357e+01
0.000000e+00
-4.493551e-01
-1.088045e+00
-2.047478e+00
-3.186832e+00
-4.511286e+00
-6.053584e+00
-7.723460e+00
-9.606166e+00
-1.163449e+01
-1.384745e+01
-1.623414e+01
-1.877839e+01
-2.151842e+01
-2.450739e+01
-2.754138e+01
-3.016726e+01
0.000000e+00
-4.562846e-01
-1.110448e+00
-2.031901e+00
-3.172485e+00
-4.501630e+00
-6.032029e+00
-7.721754e+00
-9.595926e+00
-1.164661e+01
-1.387404e+01
-1.626792e+01
-1.881964e+01
-2.151957e+01
-2.435679e+01
-2.717481e+01
-2.956274e+01
0.000000e+00
-4.480895e-01
-1.087724e+00
-2.049574e+00
-3.193812e+00
-4.528505e+00
-6.081177e+00
-7.760221e+00
-9.658001e+00
-1.171224e+01
-1.394440e+01
-1.632008e+01
-1.885054e+01
-2.150960e+01
-2.422188e+01
-2.685504e+01
-2.912437e+01
0.000000e+00
-3.886805e-01
-1.091681e+00
-2.078435e+00
-3.263075e+00
-4.610199e+00
-6.160993e+00
-7.869486e+00
-9.763020e+00
-1.182855e+01
-1.403080e+01
-1.638735e+01
-1.888975e+01
-2.150950e+01
-2.413950e+01
-2.664784e+01
-2.889063e+01
0.000000e+00
-4.143535e-01
-1.193595e+00
-2.182708e+00
-3.384611e+00
-4.738069e+00
-6.286013e+00
-8.010543e+00
-9.901591e+00
-1.196583e+01
-1.414585e+01
-1.648588e+01
-1.896691e+01
-2.155104e+01
-2.411898e+01
-2.656030e+01
-2.883015e+01
0.000000e+00
-6.177931e-01
-1.362558e+00
-2.369625e+00
-3.554064e+00
-4.912063e+00
-6.464250e+00
-8.178844e+00
-1.007429e+01
-1.212128e+01
-1.430099e+01
-1.663409e+01
-1.909056e+01
-2.163306e+01
-2.414360e+01
-2.654541e+01
-2.882900e+01


0.000000e+00
1.541822e-05
2.508260e-05
3.749352e-05
5.358471e-05
6.716880e-05
8.318367e-05
9.713665e-05
1.118658e-04
1.257460e-04
1.408876e-04
1.552334e-04
1.717897e-04
1.876093e-04
1.976909e-04
2.034341e-04
2.103674e-04
0.000000e+00
1.145764e-05
1.973644e-05
2.841463e-05
4.099195e-05
5.172260e-05
6.184997e-05
7.296242e-05
8.316481e-05
9.457722e-05
1.052320e-04
1.156248e-04
1.264863e-04
1.358420e-04
1.374469e-04
1.412004e-04
1.470233e-04
0.000000e+00
9.528777e-06
1.502522e-05
2.021187e-05
2.884478e-05
3.554745e-05
4.127849e-05
4.862659e-05
5.459747e-05
6.196803e-05
6.837150e-05
7.404626e-05
7.875999e-05
8.094418e-05
8.019407e-05
8.257038e-05
8.680218e-05
0.000000e+00
5.186710e-06
6.844054e-06
9.623231e-06
1.306259e-05
1.351946e-05
1.587063e-05
1.725488e-05
2.088531e-05
2.431272e-05
2.806504e-05
2.912661e-05
2.854439e-05
2.711728e-05
2.684073e-05
2.987535e-05
3.554629e-05
0.000000e+00
-1.758665e-07
-4.381762e-07
-8.621447e-07
-1.735231e-06
-2.898213e-06
-5.016226e-06
-7.264167e-06
-7.840673e-06
-7.886635e-06
-8.822823e-06
-1.195908e-05
-1.470324e-05
-1.613587e-05
-1.581120e-05
-1.365850e-05
-9.668590e-06
0.000000e+00
-5.452026e-06
-7.435995e-06
-1.075782e-05
-1.466814e-05
-1.608902e-05
-2.055496e-05
-2.432597e-05
-3.028145e-05
-3.343119e-05
-3.757443e-05
-4.223338e-05
-4.737150e-05
-4.916087e-05
-4.970273e-05
-5.016948e-05
-4.843383e-05
0.000000e+00
-9.528014e-06
-1.509210e-05
-2.038082e-05
-2.894702e-05
-3.534083e-05
-4.074817e-05
-4.874128e-05
-5.591993e-05
-6.363251e-05
-6.890570e-05
-7.391240e-05
-7.806035e-05
-8.164836e-05
-8.354965e-05
-8.546642e-05
-8.621251e-05
0.000000e+00
-1.138647e-05
-1.964826e-05
-2.830897e-05
-4.076682e-05
-5.166513e-05
-6.160557e-05
-7.279751e-05
-8.318834e-05
-9.458109e-05
-1.052190e-04
-1.136003e-04
-1.183887e-04
-1.234256e-04
-1.270413e-04
-1.283478e-04
-1.284432e-04
0.000000e+00
-1.542861e-05
-2.502319e-05
-3.733970e-05
-5.337378e-05
-6.699499e-05
-8.287635e-05
-9.586513e-05
-1.099991e-04
-1.232983e-04
-1.409595e-04
-1.567961e-04
-1.666095e-04
-1.718343e-04
-1.740387e-04
-1.742609e-04
-1.740816e-04
0.000000e+00
1.259649e-05
1.999713e-05
3.243395e-05
4.873804e-05
6.685809e-05
9.128960e-05
1.201179e-04
1.534176e-04
1.901552e-04
2.303167e-04
2.743235e-04
3.242482e-04
3.783774e-04
4.399140e-04
5.107676e-04
5.841695e-04
0.000000e+00
7.679718e-06
1.610701e-05
2.633260e-05
4.227634e-05
6.089807e-05
8.482968e-05
1.142477e-04
1.471750e-04
1.840364e-04
2.239793e-04
2.681129e-04
3.176760e-04
3.734335e-04
4.346601e-04
5.033871e-04
5.738169e-04
0.000000e+00
4.325447e-06
1.229022e-05
2.172254e-05
3.645532e-05
5.567519e-05
7.940717e-05
1.097390e-04
1.430166e-04
1.795491e-04
2.193908e-04
2.635735e-04
3.138909e-04
3.710392e-04
4.305122e-04
4.959092e-04
5.641349e-04
0.000000e+00
3.198728e-06
1.058913e-05
2.008266e-05
3.450795e-05
5.200400e-05
7.640233e-05
1.087406e-04
1.435629e-04
1.781150e-04
2.173480e-04
2.619309e-04
3.131320e-04
3.696249e-04
4.277753e-04
4.880760e-04
5.499784e-04
0.000000e+00
2.810372e-06
1.026594e-05
2.004187e-05
3.424000e-05
5.071260e-05
7.528310e-05
1.097806e-04
1.447755e-04
1.780311e-04
2.155562e-04
2.618657e-04
3.133528e-04
3.697661e-04
4.266328e-04
4.816939e-04
5.338517e-04
0.000000e+00
3.342450e-06
1.078047e-05
2.046006e-05
3.484987e-05
5.180856e-05
7.716635e-05
1.106740e-04
1.453912e-04
1.778591e-04
2.159394e-04
2.633288e-04
3.156962e-04
3.700953e-04
4.265389e-04
4.793730e-04
5.228202e-04
0.000000e+00
4.479567e-06
1.251975e-05
2.206942e-05
3.673617e-05
5.575880e-05
8.038739e-05
1.117444e-04
1.447305e-04
1.789586e-04
2.182063e-04
2.665410e-04
3.191895e-04
3.722004e-04
4.256323e-04
4.766229e-04
5.193404e-04
0.000000e+00
7.804624e-06
1.634464e-05
2.663569e-05
4.253674e-05
6.131145e-05
8.580094e-05
1.159204e-04
1.481926e-04
1.832562e-04
2.228354e-04
2.703121e-04
3.222359e-04
3.744043e-04
4.257815e-04
4.746002e-04
5.198000e-04
0.000000e+00
1.271013e-05
2.023493e-05
3.272697e-05
4.908018e-05
6.739868e-05
9.233364e-05
1.215790e-04
1.543832e-04
1.894281e-04
2.300983e-04
2.746736e-04
3.245349e-04
3.755634e-04
4.261015e-04
4.741167e-04
5.200637e-04


5.676913e+00
6.139916e+00
6.867017e+00
5.937710e+00
5.740120e+00
6.576581e+00
6.434116e+00
6.431548e+00
5.966492e+00
5.904270e+00
6.284885e+00
7.151538e+00
8.848601e+00
9.830405e+00
9.151284e+00
8.002269e+00
8.084773e+00
8.461583e+00
8.662064e+00
8.358159e+00
8.238758e+00
8.513895e+00
8.676218e+00
8.427193e+00
8.399897e+00
8.270978e+00
8.417964e+00
8.845142e+00
9.507370e+00
9.843049e+00
8.395394e+00
6.474406e+00
9.843437e+00
9.823866e+00
9.999433e+00
9.837814e+00
9.836187e+00
9.970251e+00
9.835645e+00
9.947499e+00
9.849016e+00
9.880855e+00
9.898654e+00
9.876432e+00
9.894745e+00
9.396024e+00
8.000751e+00
6.192045e+00
9.999721e+00
9.999716e+00
9.999713e+00
9.999686e+00
9.999647e+00
9.999571e+00
9.999483e+00
9.999482e+00
9.999531e+00
9.999523e+00
9.999316e+00
9.483451e+00
8.832280e+00
8.373802e+00
7.992664e+00
7.921464e+00
9.999719e+00
9.999712e+00
9.999707e+00
9.999670e+00
9.999606e+00
9.999465e+00
9.934719e+00
9.963309e+00
9.999102e+00
9.918997e+00
9.360334e+00
8.595060e+00
7.710701e+00
7.748830e+00
8.654914e+00
9.170289e+00
9.843866e+00
9.823821e+00
9.999403e+00
9.837630e+00
9.835775e+00
9.712660e+00
9.306786e+00
9.520849e+00
9.387497e+00
8.873615e+00
8.312315e+00
7.900825e+00
8.203690e+00
8.757212e+00
9.449415e+00
9.999008e+00
8.087274e+00
8.462664e+00
8.661472e+00
8.356627e+00
8.157677e+00
8.063777e+00
7.902053e+00
7.811088e+00
7.901039e+00
7.348861e+00
7.487893e+00
8.493669e+00
9.293772e+00
9.849348e+00
9.999421e+00
9.999654e+00
5.683161e+00
6.141958e+00
6.866043e+00
5.929853e+00
5.709728e+00
6.243578e+00
6.056758e+00
6.524113e+00
6.303746e+00
6.534956e+00
7.873130e+00
9.116587e+00
9.986933e+00
9.999549e+00
9.999690e+00
9.999738e+00


-8.189759e-01
-1.673504e-01
-3.973811e-01
-2.584869e-01
-9.299603e-02
-3.071864e-01
-1.233235e-01
-2.097463e-01
-1.618473e-01
-1.577836e-01
-2.153199e-01
-1.497208e-01
-4.613764e-01
-6.860831e-01
3.157348e-01
-8.469600e-01
6.107536e-01
4.814741e-01
2.952278e-01
2.252377e-01
2.910037e-01
1.679822e-01
1.751060e-01
1.732562e-01
1.095648e-01
1.483226e-01
1.279467e-01
2.413567e-01
3.024740e-01
5.092801e-01
6.953484e-01
-9.344564e-01
7.227035e-01
4.716271e-01
5.642662e-02
-2.243996e-02
-3.618651e-02
-1.887769e-01
-8.019255e-02
-1.380884e-01
-7.743940e-02
-1.900664e-02
3.131750e-02
1.854530e-01
2.782387e-01
1.479526e-01
-2.538164e-02
-1.678661e-01
7.279604e-01
5.564384e-01
1.928169e-01
6.151173e-02
-2.220760e-02
-1.068669e-01
-1.638716e-02
-6.207969e-02
1.315499e-02
1.679021e-02
5.860308e-02
1.174462e-01
5.872316e-02
-2.623403e-01
-3.840230e-01
-7.821471e-02
7.308640e-01
5.603828e-01
2.008194e-01
6.970202e-02
-1.825933e-02
-1.128162e-01
-3.645607e-02
-1.028367e-01
-5.247649e-02
-4.365486e-02
2.091011e-02
1.400535e-02
-3.781548e-02
-1.298756e-01
-1.026679e-01
3.104844e-01
7.295149e-01
4.818431e-01
7.449662e-02
-4.474132e-03
-2.410812e-02
-1.624873e-01
-7.333282e-02
-1.877532e-01
-1.820563e-01
-1.091056e-01
-7.756539e-02
-9.780536e-02
-1.115833e-01
4.538125e-02
3.340974e-01
7.245483e-01
6.148382e-01
4.873407e-01
3.026831e-01
2.302161e-01
2.871188e-01
1.614325e-01
1.523001e-01
1.033961e-01
-5.759699e-02
-4.006546e-02
-9.644364e-02
-5.664618e-02
5.729062e-02
3.650887e-01
7.128556e-01
9.478990e-01
-8.246660e-01
-1.728220e-01
-4.050176e-01
-2.616045e-01
-9.217045e-02
-3.012283e-01
-1.193331e-01
-1.572145e-01
-5.599741e-02
-2.186933e-02
-9.259909e-02
1.001729e-01
3.878222e-01
7.721304e-01
9.528995e-01
9.987355e-01
1 2 19 18
2 3 20 19
3 4 21 20
4 5 22 21
5 6 23 22
6 7 24 23
7 8 25 24
8 9 26 25
9 10 27 26
10 11 28 27
11 12 29 28
12 13 30 29
13 14 31 30
14 15 32 31
15 16 33 32
16 17 34 33
18 19 36 35
19 20 37 36
20 21 38 37
21 22 39 38
22 23 40 39
23 24 41 40
24 25 42 41
25 26 43 42
26 27 44 43
27 28 45 44
28 29 46 45
29 30 47 46
30 31 48 47
31 32 49 48
32 33 50 49
33 34 51 50
35 36 53 52
36 37 54 53
37 38 55 54
38 39 56 55
39 40 57 56
40 41 58 57
41 42 59 58
42 43 60 59
43 44 61 60
44 45 62 61
45 46 63 62
46 47 64 63
47 48 65 64
48 49 66 65
49 50 67 66
50 51 68 67
52 53 70 69
53 54 71 70
54 55 72 71
55 56 73 72
56 57 74 73
57 58 75 74
58 59 76 75
59 60 77 76
60 61 78 77
61 62 79 78
62 63 80 79
63 64 81 80
64 65 82 81
65 66 83 82
66 67 84 83
67 68 85 84
69 70 87 86
70 71 88 87
71 72 89 88
72 73 90 89
73 74 91 90
74 75 92 91
75 76 93 92
76 77 94 93
77 78 95 94
78 79 96 95
79 80 97 96
80 81 98 97
81 82 99 98
82 83 100 99
83 84 101 100
84 85 102 101
86 87 104 103
87 88 105 104
88 89 106 105
89 90 107 106
90 91 108 107
91 92 109 108
92 93 110 109
93 94 111 110
94 95 112 111
95 96 113 112
96 97 114 113
97 98 115 114
98 99 116 115
99 100 117 116
100 101 118 117
101 102 119 118
103 104 121 120
104 105 122 121
105 106 123 122
106 107 124 123
107 108 125 124
108 109 126 125
109 110 127 126
110 111 128 127
111 112 129 128
112 113 130 129
113 114 131 130
114 115 132 131
115 116 133 132
116 117 134 133
117 118 135 134
118 119 136 135
120 121 138 137
121 122 139 138
122 123 140 139
123 124 141 140
124 125 142 141
125 126 143 142
126 127 144 143
127 128 145 144
128 129 146 145
129 130 147 146
130 131 148 147
131 132 149 148
132 133 150 149
133 134 151 150
134 135 152 151
135 136 153 152
