TITLE = "Solution"
VARIABLES = x, y, u, v, psiu, psiv, t, stress
ZONE T="structure" N=561 E=512 F=FEBLOCK ET=QUADRILATERAL VARLOCATION=([7,8]=cellcentered)
0.000000e+00
6.250000e+00
1.250000e+01
1.875000e+01
2.500000e+01
3.125000e+01
3.750000e+01
4.375000e+01
5.000000e+01
5.625000e+01
6.250000e+01
6.875000e+01
7.500000e+01
8.125000e+01
8.750000e+01
9.375000e+01
1.000000e+02
1.062500e+02
1.125000e+02
1.187500e+02
1.250000e+02
1.312500e+02
1.375000e+02
1.437500e+02
1.500000e+02
1.562500e+02
1.625000e+02
1.687500e+02
1.750000e+02
1.812500e+02
1.875000e+02
1.937500e+02
2.000000e+02
0.000000e+00
6.250000e+00
1.250000e+01
1.875000e+01
2.500000e+01
3.125000e+01
3.750000e+01
4.375000e+01
5.000000e+01
5.625000e+01
6.250000e+01
6.875000e+01
7.500000e+01
8.125000e+01
8.750000e+01
9.375000e+01
1.000000e+02
1.062500e+02
1.125000e+02
1.187500e+02
1.250000e+02
1.312500e+02
1.375000e+02
1.437500e+02
1.500000e+02
1.562500e+02
1.625000e+02
1.687500e+02
1.750000e+02
1.812500e+02
1.875000e+02
1.937500e+02
2.000000e+02
0.000000e+00
6.250000e+00
1.250000e+01
1.875000e+01
2.500000e+01
3.125000e+01
3.750000e+01
4.375000e+01
5.000000e+01
5.625000e+01
6.250000e+01
6.875000e+01
7.500000e+01
8.125000e+01
8.750000e+01
9.375000e+01
1.000000e+02
1.062500e+02
1.125000e+02
1.187500e+02
1.250000e+02
1.312500e+02
1.375000e+02
1.437500e+02
1.500000e+02
1.562500e+02
1.625000e+02
1.687500e+02
1.750000e+02
1.812500e+02
1.875000e+02
1.937500e+02
2.000000e+02
0.000000e+00
6.250000e+00
1.250000e+01
1.875000e+01
2.500000e+01
3.125000e+01
3.750000e+01
4.375000e+01
5.000000e+01
5.625000e+01
6.250000e+01
6.875000e+01
7.500000e+01
8.125000e+01
8.750000e+01
9.375000e+01
1.000000e+02
1.062500e+02
1.125000e+02
1.187500e+02
1.250000e+02
1.312500e+02
1.375000e+02
1.437500e+02
1.500000e+02
1.562500e+02
1.625000e+02
1.687500e+02
1.750000e+02
1.812500e+02
1.875000e+02
1.937500e+02
2.000000e+02
0.000000e+00
6.250000e+00
1.250000e+01
1.875000e+01
2.500000e+01
3.125000e+01
3.750000e+01
4.375000e+01
5.000000e+01
5.625000e+01
6.250000e+01
6.875000e+01
7.500000e+01
8.125000e+01
8.750000e+01
9.375000e+01
1.000000e+02
1.062500e+02
1.125000e+02
1.187500e+02
1.250000e+02
1.312500e+02
1.375000e+02
1.437500e+02
1.500000e+02
1.562500e+02
1.625000e+02
1.687500e+02
1.750000e+02
1.812500e+02
1.875000e+02
1.937500e+02
2.000000e+02
0.000000e+00
6.250000e+00
1.250000e+01
1.875000e+01
2.500000e+01
3.125000e+01
3.750000e+01
4.375000e+01
5.000000e+01
5.625000e+01
6.250000e+01
6.875000e+01
7.500000e+01
8.125000e+01
8.750000e+01
9.375000e+01
1.000000e+02
1.062500e+02
1.125000e+02
1.187500e+02
1.250000e+02
1.312500e+02
1.375000e+02
1.437500e+02
1.500000e+02
1.562500e+02
1.625000e+02
1.687500e+02
1.750000e+02
1.812500e+02
1.875000e+02
1.937500e+02
2.000000e+02
0.000000e+00
6.250000e+00
1.250000e+01
1.875000e+01
2.500000e+01
3.125000e+01
3.750000e+01
4.375000e+01
5.000000e+01
5.625000e+01
6.250000e+01
6.875000e+01
7.500000e+01
8.125000e+01
8.750000e+01
9.375000e+01
1.000000e+02
1.062500e+02
1.125000e+02
1.187500e+02
1.250000e+02
1.312500e+02
1.375000e+02
1.437500e+02
1.500000e+02
1.562500e+02
1.625000e+02
1.687500e+02
1.750000e+02
1.812500e+02
1.875000e+02
1.937500e+02
2.000000e+02
0.000000e+00
6.250000e+00
1.250000e+01
1.875000e+01
2.500000e+01
3.125000e+01
3.750000e+01
4.375000e+01
5.000000e+01
5.625000e+01
6.250000e+01
6.875000e+01
7.500000e+01
8.125000e+01
8.750000e+01
9.375000e+01
1.000000e+02
1.062500e+02
1.125000e+02
1.187500e+02
1.250000e+02
1.312500e+02
1.375000e+02
1.437500e+02
1.500000e+02
1.562500e+02
1.625000e+02
1.687500e+02
1.750000e+02
1.812500e+02
1.875000e+02
1.937500e+02
2.000000e+02
0.000000e+00
6.250000e+00
1.250000e+01
1.875000e+01
2.500000e+01
3.125000e+01
3.750000e+01
4.375000e+01
5.000000e+01
5.625000e+01
6.250000e+01
6.875000e+01
7.500000e+01
8.125000e+01
8.750000e+01
9.375000e+01
1.000000e+02
1.062500e+02
1.125000e+02
1.187500e+02
1.250000e+02
1.312500e+02
1.375000e+02
1.437500e+02
1.500000e+02
1.562500e+02
1.625000e+02
1.687500e+02
1.750000e+02
1.812500e+02
1.875000e+02
1.937500e+02
2.000000e+02
0.000000e+00
6.250000e+00
1.250000e+01
1.875000e+01
2.500000e+01
3.125000e+01
3.750000e+01
4.375000e+01
5.000000e+01
5.625000e+01
6.250000e+01
6.875000e+01
7.500000e+01
8.125000e+01
8.750000e+01
9.375000e+01
1.000000e+02
1.062500e+02
1.125000e+02
1.187500e+02
1.250000e+02
1.312500e+02
1.375000e+02
1.437500e+02
1.500000e+02
1.562500e+02
1.625000e+02
1.687500e+02
1.750000e+02
1.812500e+02
1.875000e+02
1.937500e+02
2.000000e+02
0.000000e+00
6.250000e+00
1.250000e+01
1.875000e+01
2.500000e+01
3.125000e+01
3.750000e+01
4.375000e+01
5.000000e+01
5.625000e+01
6.250000e+01
6.875000e+01
7.500000e+01
8.125000e+01
8.750000e+01
9.375000e+01
1.000000e+02
1.062500e+02
1.125000e+02
1.187500e+02
1.250000e+02
1.312500e+02
1.375000e+02
1.437500e+02
1.500000e+02
1.562500e+02
1.625000e+02
1.687500e+02
1.750000e+02
1.812500e+02
1.875000e+02
1.937500e+02
2.000000e+02
0.000000e+00
6.250000e+00
1.250000e+01
1.875000e+01
2.500000e+01
3.125000e+01
3.750000e+01
4.375000e+01
5.000000e+01
5.625000e+01
6.250000e+01
6.875000e+01
7.500000e+01
8.125000e+01
8.750000e+01
9.375000e+01
1.000000e+02
1.062500e+02
1.125000e+02
1.187500e+02
1.250000e+02
1.312500e+02
1.375000e+02
1.437500e+02
1.500000e+02
1.562500e+02
1.625000e+02
1.687500e+02
1.750000e+02
1.812500e+02
1.875000e+02
1.937500e+02
2.000000e+02
0.000000e+00
6.250000e+00
1.250000e+01
1.875000e+01
2.500000e+01
3.125000e+01
3.750000e+01
4.375000e+01
5.000000e+01
5.625000e+01
6.250000e+01
6.875000e+01
7.500000e+01
8.125000e+01
8.750000e+01
9.375000e+01
1.000000e+02
1.062500e+02
1.125000e+02
1.187500e+02
1.250000e+02
1.312500e+02
1.375000e+02
1.437500e+02
1.500000e+02
1.562500e+02
1.625000e+02
1.687500e+02
1.750000e+02
1.812500e+02
1.875000e+02
1.937500e+02
2.000000e+02
0.000000e+00
6.250000e+00
1.250000e+01
1.875000e+01
2.500000e+01
3.125000e+01
3.750000e+01
4.375000e+01
5.000000e+01
5.625000e+01
6.250000e+01
6.875000e+01
7.500000e+01
8.125000e+01
8.750000e+01
9.375000e+01
1.000000e+02
1.062500e+02
1.125000e+02
1.187500e+02
1.250000e+02
1.312500e+02
1.375000e+02
1.437500e+02
1.500000e+02
1.562500e+02
1.625000e+02
1.687500e+02
1.750000e+02
1.812500e+02
1.875000e+02
1.937500e+02
2.000000e+02
0.000000e+00
6.250000e+00
1.250000e+01
1.875000e+01
2.500000e+01
3.125000e+01
3.750000e+01
4.375000e+01
5.000000e+01
5.625000e+01
6.250000e+01
6.875000e+01
7.500000e+01
8.125000e+01
8.750000e+01
9.375000e+01
1.000000e+02
1.062500e+02
1.125000e+02
1.187500e+02
1.250000e+02
1.312500e+02
1.375000e+02
1.437500e+02
1.500000e+02
1.562500e+02
1.625000e+02
1.687500e+02
1.750000e+02
1.812500e+02
1.875000e+02
1.937500e+02
2.000000e+02
0.000000e+00
6.250000e+00
1.250000e+01
1.875000e+01
2.500000e+01
3.125000e+01
3.750000e+01
4.375000e+01
5.000000e+01
5.625000e+01
6.250000e+01
6.875000e+01
7.500000e+01
8.125000e+01
8.750000e+01
9.375000e+01
1.000000e+02
1.062500e+02
1.125000e+02
1.187500e+02
1.250000e+02
1.312500e+02
1.375000e+02
1.437500e+02
1.500000e+02
1.562500e+02
1.625000e+02
1.687500e+02
1.750000e+02
1.812500e+02
1.875000e+02
1.937500e+02
2.000000e+02
0.000000e+00
6.250000e+00
1.250000e+01
1.875000e+01
2.500000e+01
3.125000e+01
3.750000e+01
4.375000e+01
5.000000e+01
5.625000e+01
6.250000e+01
6.875000e+01
7.500000e+01
8.125000e+01
8.750000e+01
9.375000e+01
1.000000e+02
1.062500e+02
1.125000e+02
1.187500e+02
1.250000e+02
1.312500e+02
1.375000e+02
1.437500e+02
1.500000e+02
1.562500e+02
1.625000e+02
1.687500e+02
1.750000e+02
1.812500e+02
1.875000e+02
1.937500e+02
2.000000e+02
0.000000e+00
0.000000e+00
0.000000e+00
0.000000e+00
0.000000e+00
0.000000e+00
0.000000e+00
0.000000e+00
0.000000e+00
0.000000e+00
0.000000e+00
0.000000e+00
0.000000e+00
0.000000e+00
0.000000e+00
0.000000e+00
0.000000e+00
0.000000e+00
0.000000e+00
0.000000e+00
0.000000e+00
0.000000e+00
0.000000e+00
0.000000e+00
0.000000e+00
0.000000e+00
0.000000e+00
0.000000e+00
0.000000e+00
0.000000e+00
0.000000e+00
0.000000e+00
0.000000e+00
6.250000e+00
6.250000e+00
6.250000e+00
6.250000e+00
6.250000e+00
6.250000e+00
6.250000e+00
6.250000e+00
6.250000e+00
6.250000e+00
6.250000e+00
6.250000e+00
6.250000e+00
6.250000e+00
6.250000e+00
6.250000e+00
6.250000e+00
6.250000e+00
6.250000e+00
6.250000e+00
6.250000e+00
6.250000e+00
6.250000e+00
6.250000e+00
6.250000e+00
6.250000e+00
6.250000e+00
6.250000e+00
6.250000e+00
6.250000e+00
6.250000e+00
6.250000e+00
6.250000e+00
1.250000e+01
1.250000e+01
1.250000e+01
1.250000e+01
1.250000e+01
1.250000e+01
1.250000e+01
1.250000e+01
1.250000e+01
1.250000e+01
1.250000e+01
1.250000e+01
1.250000e+01
1.250000e+01
1.250000e+01
1.250000e+01
1.250000e+01
1.250000e+01
1.250000e+01
1.250000e+01
1.250000e+01
1.250000e+01
1.250000e+01
1.250000e+01
1.250000e+01
1.250000e+01
1.250000e+01
1.250000e+01
1.250000e+01
1.250000e+01
1.250000e+01
1.250000e+01
1.250000e+01
1.875000e+01
1.875000e+01
1.875000e+01
1.875000e+01
1.875000e+01
1.875000e+01
1.875000e+01
1.875000e+01
1.875000e+01
1.875000e+01
1.875000e+01
1.875000e+01
1.875000e+01
1.875000e+01
1.875000e+01
1.875000e+01
1.875000e+01
1.875000e+01
1.875000e+01
1.875000e+01
1.875000e+01
1.875000e+01
1.875000e+01
1.875000e+01
1.875000e+01
1.875000e+01
1.875000e+01
1.875000e+01
1.875000e+01
1.875000e+01
1.875000e+01
1.875000e+01
1.875000e+01
2.500000e+01
2.500000e+01
2.500000e+01
2.500000e+01
2.500000e+01
2.500000e+01
2.500000e+01
2.500000e+01
2.500000e+01
2.500000e+01
2.500000e+01
2.500000e+01
2.500000e+01
2.500000e+01
2.500000e+01
2.500000e+01
2.500000e+01
2.500000e+01
2.500000e+01
2.500000e+01
2.500000e+01
2.500000e+01
2.500000e+01
2.500000e+01
2.500000e+01
2.500000e+01
2.500000e+01
2.500000e+01
2.500000e+01
2.500000e+01
2.500000e+01
2.500000e+01
2.500000e+01
3.125000e+01
3.125000e+01
3.125000e+01
3.125000e+01
3.125000e+01
3.125000e+01
3.125000e+01
3.125000e+01
3.125000e+01
3.125000e+01
3.125000e+01
3.125000e+01
3.125000e+01
3.125000e+01
3.125000e+01
3.125000e+01
3.125000e+01
3.125000e+01
3.125000e+01
3.125000e+01
3.125000e+01
3.125000e+01
3.125000e+01
3.125000e+01
3.125000e+01
3.125000e+01
3.125000e+01
3.125000e+01
3.125000e+01
3.125000e+01
3.125000e+01
3.125000e+01
3.125000e+01
3.750000e+01
3.750000e+01
3.750000e+01
3.750000e+01
3.750000e+01
3.750000e+01
3.750000e+01
3.750000e+01
3.750000e+01
3.750000e+01
3.750000e+01
3.750000e+01
3.750000e+01
3.750000e+01
3.750000e+01
3.750000e+01
3.750000e+01
3.750000e+01
3.750000e+01
3.750000e+01
3.750000e+01
3.750000e+01
3.750000e+01
3.750000e+01
3.750000e+01
3.750000e+01
3.750000e+01
3.750000e+01
3.750000e+01
3.750000e+01
3.750000e+01
3.750000e+01
3.750000e+01
4.375000e+01
4.375000e+01
4.375000e+01
4.375000e+01
4.375000e+01
4.375000e+01
4.375000e+01
4.375000e+01
4.375000e+01
4.375000e+01
4.375000e+01
4.375000e+01
4.375000e+01
4.375000e+01
4.375000e+01
4.375000e+01
4.375000e+01
4.375000e+01
4.375000e+01
4.375000e+01
4.375000e+01
4.375000e+01
4.375000e+01
4.375000e+01
4.375000e+01
4.375000e+01
4.375000e+01
4.375000e+01
4.375000e+01
4.375000e+01
4.375000e+01
4.375000e+01
4.375000e+01
5.000000e+01
5.000000e+01
5.000000e+01
5.000000e+01
5.000000e+01
5.000000e+01
5.000000e+01
5.000000e+01
5.000000e+01
5.000000e+01
5.000000e+01
5.000000e+01
5.000000e+01
5.000000e+01
5.000000e+01
5.000000e+01
5.000000e+01
5.000000e+01
5.000000e+01
5.000000e+01
5.000000e+01
5.000000e+01
5.000000e+01
5.000000e+01
5.000000e+01
5.000000e+01
5.000000e+01
5.000000e+01
5.000000e+01
5.000000e+01
5.000000e+01
5.000000e+01
5.000000e+01
5.625000e+01
5.625000e+01
5.625000e+01
5.625000e+01
5.625000e+01
5.625000e+01
5.625000e+01
5.625000e+01
5.625000e+01
5.625000e+01
5.625000e+01
5.625000e+01
5.625000e+01
5.625000e+01
5.625000e+01
5.625000e+01
5.625000e+01
5.625000e+01
5.625000e+01
5.625000e+01
5.625000e+01
5.625000e+01
5.625000e+01
5.625000e+01
5.625000e+01
5.625000e+01
5.625000e+01
5.625000e+01
5.625000e+01
5.625000e+01
5.625000e+01
5.625000e+01
5.625000e+01
6.250000e+01
6.250000e+01
6.250000e+01
6.250000e+01
6.250000e+01
6.250000e+01
6.250000e+01
6.250000e+01
6.250000e+01
6.250000e+01
6.250000e+01
6.250000e+01
6.250000e+01
6.250000e+01
6.250000e+01
6.250000e+01
6.250000e+01
6.250000e+01
6.250000e+01
6.250000e+01
6.250000e+01
6.250000e+01
6.250000e+01
6.250000e+01
6.250000e+01
6.250000e+01
6.250000e+01
6.250000e+01
6.250000e+01
6.250000e+01
6.250000e+01
6.250000e+01
6.250000e+01
6.875000e+01
6.875000e+01
6.875000e+01
6.875000e+01
6.875000e+01
6.875000e+01
6.875000e+01
6.875000e+01
6.875000e+01
6.875000e+01
6.875000e+01
6.875000e+01
6.875000e+01
6.875000e+01
6.875000e+01
6.875000e+01
6.875000e+01
6.875000e+01
6.875000e+01
6.875000e+01
6.875000e+01
6.875000e+01
6.875000e+01
6.875000e+01
6.875000e+01
6.875000e+01
6.875000e+01
6.875000e+01
6.875000e+01
6.875000e+01
6.875000e+01
6.875000e+01
6.875000e+01
7.500000e+01
7.500000e+01
7.500000e+01
7.500000e+01
7.500000e+01
7.500000e+01
7.500000e+01
7.500000e+01
7.500000e+01
7.500000e+01
7.500000e+01
7.500000e+01
7.500000e+01
7.500000e+01
7.500000e+01
7.500000e+01
7.500000e+01
7.500000e+01
7.500000e+01
7.500000e+01
7.500000e+01
7.500000e+01
7.500000e+01
7.500000e+01
7.500000e+01
7.500000e+01
7.500000e+01
7.500000e+01
7.500000e+01
7.500000e+01
7.500000e+01
7.500000e+01
7.500000e+01
8.125000e+01
8.125000e+01
8.125000e+01
8.125000e+01
8.125000e+01
8.125000e+01
8.125000e+01
8.125000e+01
8.125000e+01
8.125000e+01
8.125000e+01
8.125000e+01
8.125000e+01
8.125000e+01
8.125000e+01
8.125000e+01
8.125000e+01
8.125000e+01
8.125000e+01
8.125000e+01
8.125000e+01
8.125000e+01
8.125000e+01
8.125000e+01
8.125000e+01
8.125000e+01
8.125000e+01
8.125000e+01
8.125000e+01
8.125000e+01
8.125000e+01
8.125000e+01
8.125000e+01
8.750000e+01
8.750000e+01
8.750000e+01
8.750000e+01
8.750000e+01
8.750000e+01
8.750000e+01
8.750000e+01
8.750000e+01
8.750000e+01
8.750000e+01
8.750000e+01
8.750000e+01
8.750000e+01
8.750000e+01
8.750000e+01
8.750000e+01
8.750000e+01
8.750000e+01
8.750000e+01
8.750000e+01
8.750000e+01
8.750000e+01
8.750000e+01
8.750000e+01
8.750000e+01
8.750000e+01
8.750000e+01
8.750000e+01
8.750000e+01
8.750000e+01
8.750000e+01
8.750000e+01
9.375000e+01
9.375000e+01
9.375000e+01
9.375000e+01
9.375000e+01
9.375000e+01
9.375000e+01
9.375000e+01
9.375000e+01
9.375000e+01
9.375000e+01
9.375000e+01
9.375000e+01
9.375000e+01
9.375000e+01
9.375000e+01
9.375000e+01
9.375000e+01
9.375000e+01
9.375000e+01
9.375000e+01
9.375000e+01
9.375000e+01
9.375000e+01
9.375000e+01
9.375000e+01
9.375000e+01
9.375000e+01
9.375000e+01
9.375000e+01
9.375000e+01
9.375000e+01
9.375000e+01
1.000000e+02
1.000000e+02
1.000000e+02
1.000000e+02
1.000000e+02
1.000000e+02
1.000000e+02
1.000000e+02
1.000000e+02
1.000000e+02
1.000000e+02
1.000000e+02
1.000000e+02
1.000000e+02
1.000000e+02
1.000000e+02
1.000000e+02
1.000000e+02
1.000000e+02
1.000000e+02
1.000000e+02
1.000000e+02
1.000000e+02
1.000000e+02
1.000000e+02
1.000000e+02
1.000000e+02
1.000000e+02
1.000000e+02
1.000000e+02
1.000000e+02
1.000000e+02
1.000000e+02
0.000000e+00
-3.750132e-01
-6.743337e-01
-9.661466e-01
-1.264422e+00
-1.555523e+00
-1.845319e+00
-2.136184e+00
-2.425852e+00
-2.713984e+00
-3.001072e+00
-3.286904e+00
-3.571035e+00
-3.853142e+00
-4.132833e+00
-4.409520e+00
-4.682393e+00
-4.950405e+00
-5.212321e+00
-5.466851e+00
-5.712898e+00
-5.949813e+00
-6.177628e+00
-6.397216e+00
-6.610392e+00
-6.820002e+00
-7.030057e+00
-7.246032e+00
-7.475709e+00
-7.730040e+00
-8.015841e+00
-8.319448e+00
-8.495822e+00
0.000000e+00
-2.376596e-01
-4.925143e-01
-7.476043e-01
-1.009300e+00
-1.264977e+00
-1.518981e+00
-1.773815e+00
-2.027548e+00
-2.279762e+00
-2.530938e+00
-2.780951e+00
-3.029427e+00
-3.276094e+00
-3.520634e+00
-3.762554e+00
-4.001160e+00
-4.235542e+00
-4.464585e+00
-4.687073e+00
-4.901869e+00
-5.108112e+00
-5.305379e+00
-5.493762e+00
-5.673856e+00
-5.846669e+00
-6.013446e+00
-6.175316e+00
-6.332171e+00
-6.478020e+00
-6.590697e+00
-6.649725e+00
-6.727000e+00
0.000000e+00
-1.771293e-01
-3.675235e-01
-5.767207e-01
-7.954704e-01
-1.012523e+00
-1.229902e+00
-1.448292e+00
-1.666087e+00
-1.882898e+00
-2.098871e+00
-2.313790e+00
-2.527313e+00
-2.739143e+00
-2.948926e+00
-3.156158e+00
-3.360169e+00
-3.560097e+00
-3.754903e+00
-3.943426e+00
-4.124500e+00
-4.297068e+00
-4.460264e+00
-4.613414e+00
-4.755946e+00
-4.887184e+00
-5.005990e+00
-5.110080e+00
-5.194554e+00
-5.249257e+00
-5.262680e+00
-5.256087e+00
-5.336290e+00
0.000000e+00
-1.375453e-01
-2.851696e-01
-4.485448e-01
-6.225627e-01
-7.995943e-01
-9.792784e-01
-1.160488e+00
-1.341871e+00
-1.522961e+00
-1.703504e+00
-1.883133e+00
-2.061480e+00
-2.238189e+00
-2.412833e+00
-2.584874e+00
-2.753640e+00
-2.918309e+00
-3.077910e+00
-3.231349e+00
-3.377458e+00
-3.515050e+00
-3.642932e+00
-3.759877e+00
-3.864514e+00
-3.955140e+00
-4.029449e+00
-4.084194e+00
-4.115051e+00
-4.118334e+00
-4.102274e+00
-4.104083e+00
-4.178667e+00
0.000000e+00
-1.103077e-01
-2.257305e-01
-3.506395e-01
-4.830471e-01
-6.209744e-01
-7.624057e-01
-9.057816e-01
-1.050078e+00
-1.194627e+00
-1.338902e+00
-1.482448e+00
-1.624862e+00
-1.765729e+00
-1.904581e+00
-2.040870e+00
-2.173943e+00
-2.303030e+00
-2.427232e+00
-2.545527e+00
-2.656781e+00
-2.759759e+00
-2.853122e+00
-2.935402e+00
-3.004946e+00
-3.059861e+00
-3.098015e+00
-3.117328e+00
-3.116933e+00
-3.101002e+00
-3.087757e+00
-3.110622e+00
-3.182881e+00
0.000000e+00
-8.305734e-02
-1.693895e-01
-2.605303e-01
-3.571525e-01
-4.582521e-01
-5.625882e-01
-6.689563e-01
-7.764632e-01
-8.844296e-01
-9.923018e-01
-1.099619e+00
-1.205966e+00
-1.310923e+00
-1.414031e+00
-1.514767e+00
-1.612527e+00
-1.706604e+00
-1.796184e+00
-1.880333e+00
-1.957996e+00
-2.028001e+00
-2.089061e+00
-2.139789e+00
-2.178736e+00
-2.204496e+00
-2.215996e+00
-2.213221e+00
-2.198834e+00
-2.181375e+00
-2.178972e+00
-2.211014e+00
-2.280719e+00
0.000000e+00
-5.544056e-02
-1.128156e-01
-1.730238e-01
-2.364536e-01
-3.028688e-01
-3.715962e-01
-4.419064e-01
-5.131543e-01
-5.848054e-01
-6.564130e-01
-7.275908e-01
-7.979799e-01
-8.672137e-01
-9.348919e-01
-1.000559e+00
-1.063686e+00
-1.123661e+00
-1.179773e+00
-1.231208e+00
-1.277052e+00
-1.316299e+00
-1.347887e+00
-1.370760e+00
-1.383984e+00
-1.386988e+00
-1.379994e+00
-1.364813e+00
-1.346128e+00
-1.333080e+00
-1.338805e+00
-1.373901e+00
-1.436657e+00
0.000000e+00
-2.776989e-02
-5.649195e-02
-8.652794e-02
-1.180704e-01
-1.510457e-01
-1.851878e-01
-2.201467e-01
-2.555824e-01
-2.911920e-01
-3.267088e-01
-3.618867e-01
-3.964819e-01
-4.302325e-01
-4.628404e-01
-4.939556e-01
-5.231629e-01
-5.499719e-01
-5.738116e-01
-5.940318e-01
-6.099164e-01
-6.207149e-01
-6.257019e-01
-6.242794e-01
-6.161468e-01
-6.015747e-01
-5.818269e-01
-5.597523e-01
-5.404473e-01
-5.314600e-01
-5.412338e-01
-5.745118e-01
-6.272687e-01
0.000000e+00
-1.626903e-04
-3.216358e-04
-4.695659e-04
-5.965414e-04
-6.899705e-04
-7.337931e-04
-7.069784e-04
-5.814892e-04
-3.196456e-04
1.293064e-04
8.336894e-04
1.885221e-03
3.406328e-03
5.558812e-03
8.553185e-03
1.265720e-02
1.820121e-02
2.557706e-02
3.522664e-02
4.761546e-02
6.318519e-02
8.227652e-02
1.050105e-01
1.311139e-01
1.596761e-01
1.888429e-01
2.155038e-01
2.351558e-01
2.423402e-01
2.322835e-01
2.038252e-01
1.618771e-01
0.000000e+00
2.744789e-02
5.585442e-02
8.559622e-02
1.168854e-01
1.496725e-01
1.837226e-01
2.187258e-01
2.543958e-01
2.905022e-01
3.268747e-01
3.633970e-01
3.999986e-01
4.366479e-01
4.733507e-01
5.101521e-01
5.471403e-01
5.844479e-01
6.222449e-01
6.607212e-01
7.000520e-01
7.403447e-01
7.815613e-01
8.234088e-01
8.651932e-01
9.056434e-01
9.427391e-01
9.736244e-01
9.947699e-01
1.002624e+00
9.949689e-01
9.727311e-01
9.411601e-01
0.000000e+00
5.512877e-02
1.121955e-01
1.721148e-01
2.352931e-01
3.015159e-01
3.701368e-01
4.404617e-01
5.118926e-01
5.839577e-01
6.562932e-01
7.286228e-01
8.007321e-01
8.724444e-01
9.436068e-01
1.014085e+00
1.083762e+00
1.152534e+00
1.220308e+00
1.286975e+00
1.352386e+00
1.416305e+00
1.478351e+00
1.537916e+00
1.594063e+00
1.645422e+00
1.690113e+00
1.725795e+00
1.749945e+00
1.760499e+00
1.756899e+00
1.741265e+00
1.719084e+00
0.000000e+00
8.276372e-02
1.688012e-01
2.596634e-01
3.560385e-01
4.569386e-01
5.611427e-01
6.674738e-01
7.750751e-01
8.833151e-01
9.917028e-01
1.099857e+00
1.207466e+00
1.314240e+00
1.419885e+00
1.524088e+00
1.626511e+00
1.726782e+00
1.824492e+00
1.919181e+00
2.010333e+00
2.097357e+00
2.179565e+00
2.256131e+00
2.326033e+00
2.387996e+00
2.440477e+00
2.481756e+00
2.510210e+00
2.524859e+00
2.526166e+00
2.516917e+00
2.502848e+00
0.000000e+00
1.100454e-01
2.251993e-01
3.498519e-01
4.820233e-01
6.197457e-01
7.610140e-01
9.042848e-01
1.048557e+00
1.193194e+00
1.337703e+00
1.481679e+00
1.624771e+00
1.766627e+00
1.906851e+00
2.044971e+00
2.180428e+00
2.312549e+00
2.440551e+00
2.563551e+00
2.680599e+00
2.790715e+00
2.892921e+00
2.986239e+00
3.069670e+00
3.142168e+00
3.202639e+00
3.250022e+00
3.283503e+00
3.302911e+00
3.309327e+00
3.305851e+00
3.298417e+00
0.000000e+00
1.373428e-01
2.847510e-01
4.479174e-01
6.217325e-01
7.985698e-01
9.780746e-01
1.159122e+00
1.340366e+00
1.521352e+00
1.701839e+00
1.881467e+00
2.059879e+00
2.236717e+00
2.411535e+00
2.583746e+00
2.752580e+00
2.917046e+00
3.075921e+00
3.227802e+00
3.371212e+00
3.504723e+00
3.627044e+00
3.737068e+00
3.833863e+00
3.916668e+00
3.984889e+00
4.038158e+00
4.076456e+00
4.100345e+00
4.111366e+00
4.112688e+00
4.110204e+00
0.000000e+00
1.770352e-01
3.673185e-01
5.763988e-01
7.950241e-01
1.011941e+00
1.229182e+00
1.447419e+00
1.665039e+00
1.881646e+00
2.097374e+00
2.311988e+00
2.525110e+00
2.736392e+00
2.945385e+00
3.151431e+00
3.353585e+00
3.550539e+00
3.740587e+00
3.921729e+00
4.091868e+00
4.249042e+00
4.391587e+00
4.518208e+00
4.627994e+00
4.720420e+00
4.795363e+00
4.853150e+00
4.894632e+00
4.921262e+00
4.935219e+00
4.939762e+00
4.940288e+00
0.000000e+00
2.376952e-01
4.925646e-01
7.476625e-01
1.009358e+00
1.265021e+00
1.519006e+00
1.773804e+00
2.027464e+00
2.279555e+00
2.530533e+00
2.780233e+00
3.028221e+00
3.274137e+00
3.517518e+00
3.757631e+00
3.993360e+00
4.223084e+00
4.444624e+00
4.655368e+00
4.852576e+00
5.033705e+00
5.196631e+00
5.339747e+00
5.461993e+00
5.562888e+00
5.642597e+00
5.702034e+00
5.742978e+00
5.768127e+00
5.781002e+00
5.785679e+00
5.786821e+00
0.000000e+00
3.751235e-01
6.745787e-01
9.665472e-01
1.264983e+00
1.556238e+00
1.846209e+00
2.137261e+00
2.427116e+00
2.715425e+00
3.002666e+00
3.288591e+00
3.572699e+00
3.854575e+00
4.133668e+00
4.409095e+00
4.679505e+00
4.942929e+00
5.196728e+00
5.437752e+00
5.662690e+00
5.868432e+00
6.052313e+00
6.212215e+00
6.346628e+00
6.454722e+00
6.536512e+00
6.593100e+00
6.626984e+00
6.642354e+00
6.645231e+00
6.642987e+00
6.641705e+00
0.000000e+00
-2.308714e-01
-4.266525e-01
-6.580625e-01
-9.195041e-01
-1.212497e+00
-1.541056e+00
-1.905317e+00
-2.305183e+00
-2.741288e+00
-3.213874e+00
-3.722839e+00
-4.268051e+00
-4.849319e+00
-5.466302e+00
-6.118494e+00
-6.805216e+00
-7.525591e+00
-8.278557e+00
-9.062914e+00
-9.877434e+00
-1.072100e+01
-1.159279e+01
-1.249253e+01
-1.342084e+01
-1.437970e+01
-1.537319e+01
-1.640855e+01
-1.749789e+01
-1.866222e+01
-1.994913e+01
-2.148240e+01
-2.356757e+01
0.000000e+00
-1.436610e-01
-3.482595e-01
-5.758524e-01
-8.371332e-01
-1.131151e+00
-1.459569e+00
-1.823771e+00
-2.224019e+00
-2.660485e+00
-3.133396e+00
-3.642788e+00
-4.188541e+00
-4.770453e+00
-5.388216e+00
-6.041385e+00
-6.729349e+00
-7.451296e+00
-8.206207e+00
-8.992880e+00
-9.810013e+00
-1.065635e+01
-1.153090e+01
-1.243318e+01
-1.336359e+01
-1.432389e+01
-1.531800e+01
-1.635304e+01
-1.744142e+01
-1.860602e+01
-1.989340e+01
-2.139884e+01
-2.332362e+01
0.000000e+00
-1.076298e-01
-2.876969e-01
-5.101430e-01
-7.686779e-01
-1.061908e+00
-1.389820e+00
-1.753721e+00
-2.154028e+00
-2.590720e+00
-3.063927e+00
-3.573727e+00
-4.120015e+00
-4.702589e+00
-5.321166e+00
-5.975347e+00
-6.664573e+00
-7.388092e+00
-8.144929e+00
-8.933901e+00
-9.753685e+00
-1.060297e+01
-1.148068e+01
-1.238623e+01
-1.331997e+01
-1.428363e+01
-1.528119e+01
-1.632016e+01
-1.741418e+01
-1.858707e+01
-1.987068e+01
-2.128362e+01
-2.280433e+01
0.000000e+00
-9.407232e-02
-2.540493e-01
-4.641384e-01
-7.166857e-01
-1.006608e+00
-1.332810e+00
-1.695779e+00
-2.095654e+00
-2.532289e+00
-3.005696e+00
-3.515890e+00
-4.062754e+00
-4.646088e+00
-5.265625e+00
-5.920988e+00
-6.611655e+00
-7.336915e+00
-8.095835e+00
-8.887266e+00
-9.709908e+00
-1.056246e+01
-1.144382e+01
-1.235343e+01
-1.329157e+01
-1.425996e+01
-1.526250e+01
-1.630652e+01
-1.740475e+01
-1.857580e+01
-1.982614e+01
-2.111880e+01
-2.231626e+01
0.000000e+00
-9.073974e-02
-2.380237e-01
-4.367293e-01
-6.808334e-01
-9.656781e-01
-1.288973e+00
-1.650252e+00
-2.049187e+00
-2.485469e+00
-2.958945e+00
-3.469506e+00
-4.016994e+00
-4.601196e+00
-5.221844e+00
-5.878569e+00
-6.570868e+00
-7.298055e+00
-8.059231e+00
-8.853288e+00
-9.678972e+00
-1.053501e+01
-1.142032e+01
-1.233429e+01
-1.327709e+01
-1.425015e+01
-1.525670e+01
-1.630250e+01
-1.739632e+01
-1.854656e+01
-1.974063e+01
-2.091555e+01
-2.196611e+01
0.000000e+00
-8.842622e-02
-2.293670e-01
-4.201885e-01
-6.573145e-01
-9.370466e-01
-1.257161e+00
-1.616463e+00
-2.014249e+00
-2.450037e+00
-2.923503e+00
-3.434414e+00
-3.982554e+00
-4.567688e+00
-5.189537e+00
-5.847732e+00
-6.541778e+00
-7.271005e+00
-8.034540e+00
-8.831311e+00
-9.660093e+00
-1.051963e+01
-1.140878e+01
-1.232679e+01
-1.327351e+01
-1.424968e+01
-1.525717e+01
-1.629896e+01
-1.737818e+01
-1.849299e+01
-1.961969e+01
-2.070153e+01
-2.166164e+01
0.000000e+00
-8.665765e-02
-2.240342e-01
-4.101445e-01
-6.424696e-01
-9.183737e-01
-1.235801e+00
-1.593368e+00
-1.990144e+00
-2.425488e+00
-2.898954e+00
-3.410216e+00
-3.959005e+00
-4.545066e+00
-5.168112e+00
-5.827776e+00
-6.523568e+00
-7.254830e+00
-8.020705e+00
-8.820131e+00
-9.651879e+00
-1.051463e+01
-1.140713e+01
-1.232829e+01
-1.327742e+01
-1.425422e+01
-1.525875e+01
-1.629082e+01
-1.734821e+01
-1.842184e+01
-1.948579e+01
-2.049463e+01
-2.139337e+01
0.000000e+00
-8.561142e-02
-2.210439e-01
-4.046167e-01
-6.342737e-01
-9.078848e-01
-1.223620e+00
-1.580070e+00
-1.976214e+00
-2.411322e+00
-2.884876e+00
-3.396499e+00
-3.945897e+00
-4.532808e+00
-5.156945e+00
-5.817955e+00
-6.515358e+00
-7.248508e+00
-8.016547e+00
-8.818396e+00
-9.652767e+00
-1.051822e+01
-1.141322e+01
-1.233628e+01
-1.328593e+01
-1.426071e+01
-1.525880e+01
-1.627719e+01
-1.730985e+01
-1.834427e+01
-1.935645e+01
-2.031127e+01
-2.116980e+01
0.000000e+00
-8.526926e-02
-2.200860e-01
-4.028727e-01
-6.317040e-01
-9.046037e-01
-1.219824e+00
-1.575971e+00
-1.972004e+00
-2.407174e+00
-2.880945e+00
-3.392938e+00
-3.942864e+00
-4.530474e+00
-5.155503e+00
-5.817621e+00
-6.516370e+00
-7.251114e+00
-8.020985e+00
-8.824855e+00
-9.661324e+00
-1.052875e+01
-1.142526e+01
-1.234883e+01
-1.329719e+01
-1.426771e+01
-1.525697e+01
-1.625991e+01
-1.726841e+01
-1.826917e+01
-1.924153e+01
-2.015872e+01
-2.099244e+01
0.000000e+00
-8.561720e-02
-2.210771e-01
-4.047080e-01
-6.344607e-01
-9.082118e-01
-1.224139e+00
-1.580847e+00
-1.977329e+00
-2.412875e+00
-2.886994e+00
-3.399345e+00
-3.949676e+00
-4.537775e+00
-5.163418e+00
-5.826311e+00
-6.526027e+00
-7.261946e+00
-8.033180e+00
-8.838528e+00
-9.676439e+00
-1.054501e+01
-1.144200e+01
-1.236480e+01
-1.331038e+01
-1.427511e+01
-1.525436e+01
-1.624185e+01
-1.722867e+01
-1.820221e+01
-1.914537e+01
-2.003774e+01
-2.085813e+01
0.000000e+00
-8.666324e-02
-2.240901e-01
-4.103126e-01
-6.428233e-01
-9.189987e-01
-1.236799e+00
-1.594864e+00
-1.992290e+00
-2.428479e+00
-2.903033e+00
-3.415691e+00
-3.966269e+00
-4.554608e+00
-5.180533e+00
-5.843801e+00
-6.544026e+00
-7.280605e+00
-8.052630e+00
-8.858812e+00
-9.697429e+00
-1.056630e+01
-1.146278e+01
-1.238374e+01
-1.332549e+01
-1.428362e+01
-1.525269e+01
-1.622583e+01
-1.719420e+01
-1.814652e+01
-1.906902e+01
-1.994620e+01
-2.076212e+01
0.000000e+00
-8.841967e-02
-2.294260e-01
-4.204062e-01
-6.577966e-01
-9.379138e-01
-1.258557e+00
-1.618561e+00
-2.017267e+00
-2.454243e+00
-2.929239e+00
-3.442110e+00
-3.992750e+00
-4.581062e+00
-5.206925e+00
-5.870144e+00
-6.570378e+00
-7.307048e+00
-8.079227e+00
-8.885533e+00
-9.724068e+00
-1.059238e+01
-1.148747e+01
-1.240575e+01
-1.334302e+01
-1.429430e+01
-1.525368e+01
-1.621414e+01
-1.716728e+01
-1.810340e+01
-1.901166e+01
-1.988069e+01
-2.069897e+01
0.000000e+00
-9.070470e-02
-2.380606e-01
-4.369620e-01
-6.813928e-01
-9.667109e-01
-1.290654e+00
-1.652794e+00
-2.052853e+00
-2.490585e+00
-2.965923e+00
-3.478862e+00
-4.029376e+00
-4.617414e+00
-5.242897e+00
-5.905669e+00
-6.605427e+00
-7.341611e+00
-8.113270e+00
-8.918937e+00
-9.756551e+00
-1.062343e+01
-1.151629e+01
-1.243121e+01
-1.336360e+01
-1.430816e+01
-1.525872e+01
-1.620830e+01
-1.714912e+01
-1.807293e+01
-1.897150e+01
-1.983713e+01
-2.066275e+01
0.000000e+00
-9.399505e-02
-2.540472e-01
-4.643558e-01
-7.172708e-01
-1.007723e+00
-1.334650e+00
-1.698582e+00
-2.099711e+00
-2.537963e+00
-3.013442e+00
-3.526275e+00
-4.076488e+00
-4.664055e+00
-5.288914e+00
-5.950922e+00
-6.649784e+00
-7.384935e+00
-8.155389e+00
-8.959598e+00
-9.795377e+00
-1.065989e+01
-1.154965e+01
-1.246055e+01
-1.338779e+01
-1.432587e+01
-1.526857e+01
-1.620900e+01
-1.713996e+01
-1.805439e+01
-1.894620e+01
-1.981110e+01
-2.064689e+01
0.000000e+00
-1.075249e-01
-2.876681e-01
-5.103391e-01
-7.692564e-01
-1.063041e+00
-1.391711e+00
-1.756621e+00
-2.158243e+00
-2.596626e+00
-3.071999e+00
-3.584554e+00
-4.134330e+00
-4.721299e+00
-5.345386e+00
-6.006423e+00
-6.704073e+00
-7.437714e+00
-8.206292e+00
-9.008184e+00
-9.841130e+00
-1.070223e+01
-1.158793e+01
-1.249408e+01
-1.341581e+01
-1.434759e+01
-1.528321e+01
-1.621597e+01
-1.713907e+01
-1.804628e+01
-1.893308e+01
-1.979800e+01
-2.064404e+01
0.000000e+00
-1.435664e-01
-3.482316e-01
-5.760435e-01
-8.377068e-01
-1.132285e+00
-1.461470e+00
-1.826690e+00
-2.228264e+00
-2.666437e+00
-3.141526e+00
-3.653687e+00
-4.202936e+00
-4.789238e+00
-5.412481e+00
-6.072427e+00
-6.768638e+00
-7.500371e+00
-8.266454e+00
-9.065179e+00
-9.894263e+00
-1.075083e+01
-1.163140e+01
-1.253187e+01
-1.344748e+01
-1.437277e+01
-1.530167e+01
-1.622770e+01
-1.714436e+01
-1.804595e+01
-1.892880e+01
-1.979326e+01
-2.064633e+01
0.000000e+00
-2.308132e-01
-4.266524e-01
-6.582812e-01
-9.201029e-01
-1.213657e+00
-1.542987e+00
-1.908267e+00
-2.309456e+00
-2.747261e+00
-3.222015e+00
-3.733723e+00
-4.282387e+00
-4.867972e+00
-5.490306e+00
-6.149044e+00
-6.843602e+00
-7.573060e+00
-8.336075e+00
-9.130845e+00
-9.955086e+00
-1.080601e+01
-1.168028e+01