TITLE = "Solution"
VARIABLES = x, y, u, v, psiu, psiv, t, stress
ZONE T="structure" N=561 E=512 F=FEBLOCK ET=QUADRILATERAL VARLOCATION=([7,8]=cellcentered)
0.000000e+00
6.250000e+00
1.250000e+01
1.875000e+01
2.500000e+01
3.125000e+01
3.750000e+01
4.375000e+01
5.000000e+01
5.625000e+01
6.250000e+01
6.875000e+01
7.500000e+01
8.125000e+01
8.750000e+01
9.375000e+01
1.000000e+02
1.062500e+02
1.125000e+02
1.187500e+02
1.250000e+02
1.312500e+02
1.375000e+02
1.437500e+02
1.500000e+02
1.562500e+02
1.625000e+02
1.687500e+02
1.750000e+02
1.812500e+02
1.875000e+02
1.937500e+02
2.000000e+02
0.000000e+00
6.250000e+00
1.250000e+01
1.875000e+01
2.500000e+01
3.125000e+01
3.750000e+01
4.375000e+01
5.000000e+01
5.625000e+01
6.250000e+01
6.875000e+01
7.500000e+01
8.125000e+01
8.750000e+01
9.375000e+01
1.000000e+02
1.062500e+02
1.125000e+02
1.187500e+02
1.250000e+02
1.312500e+02
1.375000e+02
1.437500e+02
1.500000e+02
1.562500e+02
1.625000e+02
1.687500e+02
1.750000e+02
1.812500e+02
1.875000e+02
1.937500e+02
2.000000e+02
0.000000e+00
6.250000e+00
1.250000e+01
1.875000e+01
2.500000e+01
3.125000e+01
3.750000e+01
4.375000e+01
5.000000e+01
5.625000e+01
6.250000e+01
6.875000e+01
7.500000e+01
8.125000e+01
8.750000e+01
9.375000e+01
1.000000e+02
1.062500e+02
1.125000e+02
1.187500e+02
1.250000e+02
1.312500e+02
1.375000e+02
1.437500e+02
1.500000e+02
1.562500e+02
1.625000e+02
1.687500e+02
1.750000e+02
1.812500e+02
1.875000e+02
1.937500e+02
2.000000e+02
0.000000e+00
6.250000e+00
1.250000e+01
1.875000e+01
2.500000e+01
3.125000e+01
3.750000e+01
4.375000e+01
5.000000e+01
5.625000e+01
6.250000e+01
6.875000e+01
7.500000e+01
8.125000e+01
8.750000e+01
9.375000e+01
1.000000e+02
1.062500e+02
1.125000e+02
1.187500e+02
1.250000e+02
1.312500e+02
1.375000e+02
1.437500e+02
1.500000e+02
1.562500e+02
1.625000e+02
1.687500e+02
1.750000e+02
1.812500e+02
1.875000e+02
1.937500e+02
2.000000e+02
0.000000e+00
6.250000e+00
1.250000e+01
1.875000e+01
2.500000e+01
3.125000e+01
3.750000e+01
4.375000e+01
5.000000e+01
5.625000e+01
6.250000e+01
6.875000e+01
7.500000e+01
8.125000e+01
8.750000e+01
9.375000e+01
1.000000e+02
1.062500e+02
1.125000e+02
1.187500e+02
1.250000e+02
1.312500e+02
1.375000e+02
1.437500e+02
1.500000e+02
1.562500e+02
1.625000e+02
1.687500e+02
1.750000e+02
1.812500e+02
1.875000e+02
1.937500e+02
2.000000e+02
0.000000e+00
6.250000e+00
1.250000e+01
1.875000e+01
2.500000e+01
3.125000e+01
3.750000e+01
4.375000e+01
5.000000e+01
5.625000e+01
6.250000e+01
6.875000e+01
7.500000e+01
8.125000e+01
8.750000e+01
9.375000e+01
1.000000e+02
1.062500e+02
1.125000e+02
1.187500e+02
1.250000e+02
1.312500e+02
1.375000e+02
1.437500e+02
1.500000e+02
1.562500e+02
1.625000e+02
1.687500e+02
1.750000e+02
1.812500e+02
1.875000e+02
1.937500e+02
2.000000e+02
0.000000e+00
6.250000e+00
1.250000e+01
1.875000e+01
2.500000e+01
3.125000e+01
3.750000e+01
4.375000e+01
5.000000e+01
5.625000e+01
6.250000e+01
6.875000e+01
7.500000e+01
8.125000e+01
8.750000e+01
9.375000e+01
1.000000e+02
1.062500e+02
1.125000e+02
1.187500e+02
1.250000e+02
1.312500e+02
1.375000e+02
1.437500e+02
1.500000e+02
1.562500e+02
1.625000e+02
1.687500e+02
1.750000e+02
1.812500e+02
1.875000e+02
1.937500e+02
2.000000e+02
0.000000e+00
6.250000e+00
1.250000e+01
1.875000e+01
2.500000e+01
3.125000e+01
3.750000e+01
4.375000e+01
5.000000e+01
5.625000e+01
6.250000e+01
6.875000e+01
7.500000e+01
8.125000e+01
8.750000e+01
9.375000e+01
1.000000e+02
1.062500e+02
1.125000e+02
1.187500e+02
1.250000e+02
1.312500e+02
1.375000e+02
1.437500e+02
1.500000e+02
1.562500e+02
1.625000e+02
1.687500e+02
1.750000e+02
1.812500e+02
1.875000e+02
1.937500e+02
2.000000e+02
0.000000e+00
6.250000e+00
1.250000e+01
1.875000e+01
2.500000e+01
3.125000e+01
3.750000e+01
4.375000e+01
5.000000e+01
5.625000e+01
6.250000e+01
6.875000e+01
7.500000e+01
8.125000e+01
8.750000e+01
9.375000e+01
1.000000e+02
1.062500e+02
1.125000e+02
1.187500e+02
1.250000e+02
1.312500e+02
1.375000e+02
1.437500e+02
1.500000e+02
1.562500e+02
1.625000e+02
1.687500e+02
1.750000e+02
1.812500e+02
1.875000e+02
1.937500e+02
2.000000e+02
0.000000e+00
6.250000e+00
1.250000e+01
1.875000e+01
2.500000e+01
3.125000e+01
3.750000e+01
4.375000e+01
5.000000e+01
5.625000e+01
6.250000e+01
6.875000e+01
7.500000e+01
8.125000e+01
8.750000e+01
9.375000e+01
1.000000e+02
1.062500e+02
1.125000e+02
1.187500e+02
1.250000e+02
1.312500e+02
1.375000e+02
1.437500e+02
1.500000e+02
1.562500e+02
1.625000e+02
1.687500e+02
1.750000e+02
1.812500e+02
1.875000e+02
1.937500e+02
2.000000e+02
0.000000e+00
6.250000e+00
1.250000e+01
1.875000e+01
2.500000e+01
3.125000e+01
3.750000e+01
4.375000e+01
5.000000e+01
5.625000e+01
6.250000e+01
6.875000e+01
7.500000e+01
8.125000e+01
8.750000e+01
9.375000e+01
1.000000e+02
1.062500e+02
1.125000e+02
1.187500e+02
1.250000e+02
1.312500e+02
1.375000e+02
1.437500e+02
1.500000e+02
1.562500e+02
1.625000e+02
1.687500e+02
1.750000e+02
1.812500e+02
1.875000e+02
1.937500e+02
2.000000e+02
0.000000e+00
6.250000e+00
1.250000e+01
1.875000e+01
2.500000e+01
3.125000e+01
3.750000e+01
4.375000e+01
5.000000e+01
5.625000e+01
6.250000e+01
6.875000e+01
7.500000e+01
8.125000e+01
8.750000e+01
9.375000e+01
1.000000e+02
1.062500e+02
1.125000e+02
1.187500e+02
1.250000e+02
1.312500e+02
1.375000e+02
1.437500e+02
1.500000e+02
1.562500e+02
1.625000e+02
1.687500e+02
1.750000e+02
1.812500e+02
1.875000e+02
1.937500e+02
2.000000e+02
0.000000e+00
6.250000e+00
1.250000e+01
1.875000e+01
2.500000e+01
3.125000e+01
3.750000e+01
4.375000e+01
5.000000e+01
5.625000e+01
6.250000e+01
6.875000e+01
7.500000e+01
8.125000e+01
8.750000e+01
9.375000e+01
1.000000e+02
1.062500e+02
1.125000e+02
1.187500e+02
1.250000e+02
1.312500e+02
1.375000e+02
1.437500e+02
1.500000e+02
1.562500e+02
1.625000e+02
1.687500e+02
1.750000e+02
1.812500e+02
1.875000e+02
1.937500e+02
2.000000e+02
0.000000e+00
6.250000e+00
1.250000e+01
1.875000e+01
2.500000e+01
3.125000e+01
3.750000e+01
4.375000e+01
5.000000e+01
5.625000e+01
6.250000e+01
6.875000e+01
7.500000e+01
8.125000e+01
8.750000e+01
9.375000e+01
1.000000e+02
1.062500e+02
1.125000e+02
1.187500e+02
1.250000e+02
1.312500e+02
1.375000e+02
1.437500e+02
1.500000e+02
1.562500e+02
1.625000e+02
1.687500e+02
1.750000e+02
1.812500e+02
1.875000e+02
1.937500e+02
2.000000e+02
0.000000e+00
6.250000e+00
1.250000e+01
1.875000e+01
2.500000e+01
3.125000e+01
3.750000e+01
4.375000e+01
5.000000e+01
5.625000e+01
6.250000e+01
6.875000e+01
7.500000e+01
8.125000e+01
8.750000e+01
9.375000e+01
1.000000e+02
1.062500e+02
1.125000e+02
1.187500e+02
1.250000e+02
1.312500e+02
1.375000e+02
1.437500e+02
1.500000e+02
1.562500e+02
1.625000e+02
1.687500e+02
1.750000e+02
1.812500e+02
1.875000e+02
1.937500e+02
2.000000e+02
0.000000e+00
6.250000e+00
1.250000e+01
1.875000e+01
2.500000e+01
3.125000e+01
3.750000e+01
4.375000e+01
5.000000e+01
5.625000e+01
6.250000e+01
6.875000e+01
7.500000e+01
8.125000e+01
8.750000e+01
9.375000e+01
1.000000e+02
1.062500e+02
1.125000e+02
1.187500e+02
1.250000e+02
1.312500e+02
1.375000e+02
1.437500e+02
1.500000e+02
1.562500e+02
1.625000e+02
1.687500e+02
1.750000e+02
1.812500e+02
1.875000e+02
1.937500e+02
2.000000e+02
0.000000e+00
6.250000e+00
1.250000e+01
1.875000e+01
2.500000e+01
3.125000e+01
3.750000e+01
4.375000e+01
5.000000e+01
5.625000e+01
6.250000e+01
6.875000e+01
7.500000e+01
8.125000e+01
8.750000e+01
9.375000e+01
1.000000e+02
1.062500e+02
1.125000e+02
1.187500e+02
1.250000e+02
1.312500e+02
1.375000e+02
1.437500e+02
1.500000e+02
1.562500e+02
1.625000e+02
1.687500e+02
1.750000e+02
1.812500e+02
1.875000e+02
1.937500e+02
2.000000e+02
0.000000e+00
0.000000e+00
0.000000e+00
0.000000e+00
0.000000e+00
0.000000e+00
0.000000e+00
0.000000e+00
0.000000e+00
0.000000e+00
0.000000e+00
0.000000e+00
0.000000e+00
0.000000e+00
0.000000e+00
0.000000e+00
0.000000e+00
0.000000e+00
0.000000e+00
0.000000e+00
0.000000e+00
0.000000e+00
0.000000e+00
0.000000e+00
0.000000e+00
0.000000e+00
0.000000e+00
0.000000e+00
0.000000e+00
0.000000e+00
0.000000e+00
0.000000e+00
0.000000e+00
6.250000e+00
6.250000e+00
6.250000e+00
6.250000e+00
6.250000e+00
6.250000e+00
6.250000e+00
6.250000e+00
6.250000e+00
6.250000e+00
6.250000e+00
6.250000e+00
6.250000e+00
6.250000e+00
6.250000e+00
6.250000e+00
6.250000e+00
6.250000e+00
6.250000e+00
6.250000e+00
6.250000e+00
6.250000e+00
6.250000e+00
6.250000e+00
6.250000e+00
6.250000e+00
6.250000e+00
6.250000e+00
6.250000e+00
6.250000e+00
6.250000e+00
6.250000e+00
6.250000e+00
1.250000e+01
1.250000e+01
1.250000e+01
1.250000e+01
1.250000e+01
1.250000e+01
1.250000e+01
1.250000e+01
1.250000e+01
1.250000e+01
1.250000e+01
1.250000e+01
1.250000e+01
1.250000e+01
1.250000e+01
1.250000e+01
1.250000e+01
1.250000e+01
1.250000e+01
1.250000e+01
1.250000e+01
1.250000e+01
1.250000e+01
1.250000e+01
1.250000e+01
1.250000e+01
1.250000e+01
1.250000e+01
1.250000e+01
1.250000e+01
1.250000e+01
1.250000e+01
1.250000e+01
1.875000e+01
1.875000e+01
1.875000e+01
1.875000e+01
1.875000e+01
1.875000e+01
1.875000e+01
1.875000e+01
1.875000e+01
1.875000e+01
1.875000e+01
1.875000e+01
1.875000e+01
1.875000e+01
1.875000e+01
1.875000e+01
1.875000e+01
1.875000e+01
1.875000e+01
1.875000e+01
1.875000e+01
1.875000e+01
1.875000e+01
1.875000e+01
1.875000e+01
1.875000e+01
1.875000e+01
1.875000e+01
1.875000e+01
1.875000e+01
1.875000e+01
1.875000e+01
1.875000e+01
2.500000e+01
2.500000e+01
2.500000e+01
2.500000e+01
2.500000e+01
2.500000e+01
2.500000e+01
2.500000e+01
2.500000e+01
2.500000e+01
2.500000e+01
2.500000e+01
2.500000e+01
2.500000e+01
2.500000e+01
2.500000e+01
2.500000e+01
2.500000e+01
2.500000e+01
2.500000e+01
2.500000e+01
2.500000e+01
2.500000e+01
2.500000e+01
2.500000e+01
2.500000e+01
2.500000e+01
2.500000e+01
2.500000e+01
2.500000e+01
2.500000e+01
2.500000e+01
2.500000e+01
3.125000e+01
3.125000e+01
3.125000e+01
3.125000e+01
3.125000e+01
3.125000e+01
3.125000e+01
3.125000e+01
3.125000e+01
3.125000e+01
3.125000e+01
3.125000e+01
3.125000e+01
3.125000e+01
3.125000e+01
3.125000e+01
3.125000e+01
3.125000e+01
3.125000e+01
3.125000e+01
3.125000e+01
3.125000e+01
3.125000e+01
3.125000e+01
3.125000e+01
3.125000e+01
3.125000e+01
3.125000e+01
3.125000e+01
3.125000e+01
3.125000e+01
3.125000e+01
3.125000e+01
3.750000e+01
3.750000e+01
3.750000e+01
3.750000e+01
3.750000e+01
3.750000e+01
3.750000e+01
3.750000e+01
3.750000e+01
3.750000e+01
3.750000e+01
3.750000e+01
3.750000e+01
3.750000e+01
3.750000e+01
3.750000e+01
3.750000e+01
3.750000e+01
3.750000e+01
3.750000e+01
3.750000e+01
3.750000e+01
3.750000e+01
3.750000e+01
3.750000e+01
3.750000e+01
3.750000e+01
3.750000e+01
3.750000e+01
3.750000e+01
3.750000e+01
3.750000e+01
3.750000e+01
4.375000e+01
4.375000e+01
4.375000e+01
4.375000e+01
4.375000e+01
4.375000e+01
4.375000e+01
4.375000e+01
4.375000e+01
4.375000e+01
4.375000e+01
4.375000e+01
4.375000e+01
4.375000e+01
4.375000e+01
4.375000e+01
4.375000e+01
4.375000e+01
4.375000e+01
4.375000e+01
4.375000e+01
4.375000e+01
4.375000e+01
4.375000e+01
4.375000e+01
4.375000e+01
4.375000e+01
4.375000e+01
4.375000e+01
4.375000e+01
4.375000e+01
4.375000e+01
4.375000e+01
5.000000e+01
5.000000e+01
5.000000e+01
5.000000e+01
5.000000e+01
5.000000e+01
5.000000e+01
5.000000e+01
5.000000e+01
5.000000e+01
5.000000e+01
5.000000e+01
5.000000e+01
5.000000e+01
5.000000e+01
5.000000e+01
5.000000e+01
5.000000e+01
5.000000e+01
5.000000e+01
5.000000e+01
5.000000e+01
5.000000e+01
5.000000e+01
5.000000e+01
5.000000e+01
5.000000e+01
5.000000e+01
5.000000e+01
5.000000e+01
5.000000e+01
5.000000e+01
5.000000e+01
5.625000e+01
5.625000e+01
5.625000e+01
5.625000e+01
5.625000e+01
5.625000e+01
5.625000e+01
5.625000e+01
5.625000e+01
5.625000e+01
5.625000e+01
5.625000e+01
5.625000e+01
5.625000e+01
5.625000e+01
5.625000e+01
5.625000e+01
5.625000e+01
5.625000e+01
5.625000e+01
5.625000e+01
5.625000e+01
5.625000e+01
5.625000e+01
5.625000e+01
5.625000e+01
5.625000e+01
5.625000e+01
5.625000e+01
5.625000e+01
5.625000e+01
5.625000e+01
5.625000e+01
6.250000e+01
6.250000e+01
6.250000e+01
6.250000e+01
6.250000e+01
6.250000e+01
6.250000e+01
6.250000e+01
6.250000e+01
6.250000e+01
6.250000e+01
6.250000e+01
6.250000e+01
6.250000e+01
6.250000e+01
6.250000e+01
6.250000e+01
6.250000e+01
6.250000e+01
6.250000e+01
6.250000e+01
6.250000e+01
6.250000e+01
6.250000e+01
6.250000e+01
6.250000e+01
6.250000e+01
6.250000e+01
6.250000e+01
6.250000e+01
6.250000e+01
6.250000e+01
6.250000e+01
6.875000e+01
6.875000e+01
6.875000e+01
6.875000e+01
6.875000e+01
6.875000e+01
6.875000e+01
6.875000e+01
6.875000e+01
6.875000e+01
6.875000e+01
6.875000e+01
6.875000e+01
6.875000e+01
6.875000e+01
6.875000e+01
6.875000e+01
6.875000e+01
6.875000e+01
6.875000e+01
6.875000e+01
6.875000e+01
6.875000e+01
6.875000e+01
6.875000e+01
6.875000e+01
6.875000e+01
6.875000e+01
6.875000e+01
6.875000e+01
6.875000e+01
6.875000e+01
6.875000e+01
7.500000e+01
7.500000e+01
7.500000e+01
7.500000e+01
7.500000e+01
7.500000e+01
7.500000e+01
7.500000e+01
7.500000e+01
7.500000e+01
7.500000e+01
7.500000e+01
7.500000e+01
7.500000e+01
7.500000e+01
7.500000e+01
7.500000e+01
7.500000e+01
7.500000e+01
7.500000e+01
7.500000e+01
7.500000e+01
7.500000e+01
7.500000e+01
7.500000e+01
7.500000e+01
7.500000e+01
7.500000e+01
7.500000e+01
7.500000e+01
7.500000e+01
7.500000e+01
7.500000e+01
8.125000e+01
8.125000e+01
8.125000e+01
8.125000e+01
8.125000e+01
8.125000e+01
8.125000e+01
8.125000e+01
8.125000e+01
8.125000e+01
8.125000e+01
8.125000e+01
8.125000e+01
8.125000e+01
8.125000e+01
8.125000e+01
8.125000e+01
8.125000e+01
8.125000e+01
8.125000e+01
8.125000e+01
8.125000e+01
8.125000e+01
8.125000e+01
8.125000e+01
8.125000e+01
8.125000e+01
8.125000e+01
8.125000e+01
8.125000e+01
8.125000e+01
8.125000e+01
8.125000e+01
8.750000e+01
8.750000e+01
8.750000e+01
8.750000e+01
8.750000e+01
8.750000e+01
8.750000e+01
8.750000e+01
8.750000e+01
8.750000e+01
8.750000e+01
8.750000e+01
8.750000e+01
8.750000e+01
8.750000e+01
8.750000e+01
8.750000e+01
8.750000e+01
8.750000e+01
8.750000e+01
8.750000e+01
8.750000e+01
8.750000e+01
8.750000e+01
8.750000e+01
8.750000e+01
8.750000e+01
8.750000e+01
8.750000e+01
8.750000e+01
8.750000e+01
8.750000e+01
8.750000e+01
9.375000e+01
9.375000e+01
9.375000e+01
9.375000e+01
9.375000e+01
9.375000e+01
9.375000e+01
9.375000e+01
9.375000e+01
9.375000e+01
9.375000e+01
9.375000e+01
9.375000e+01
9.375000e+01
9.375000e+01
9.375000e+01
9.375000e+01
9.375000e+01
9.375000e+01
9.375000e+01
9.375000e+01
9.375000e+01
9.375000e+01
9.375000e+01
9.375000e+01
9.375000e+01
9.375000e+01
9.375000e+01
9.375000e+01
9.375000e+01
9.375000e+01
9.375000e+01
9.375000e+01
1.000000e+02
1.000000e+02
1.000000e+02
1.000000e+02
1.000000e+02
1.000000e+02
1.000000e+02
1.000000e+02
1.000000e+02
1.000000e+02
1.000000e+02
1.000000e+02
1.000000e+02
1.000000e+02
1.000000e+02
1.000000e+02
1.000000e+02
1.000000e+02
1.000000e+02
1.000000e+02
1.000000e+02
1.000000e+02
1.000000e+02
1.000000e+02
1.000000e+02
1.000000e+02
1.000000e+02
1.000000e+02
1.000000e+02
1.000000e+02
1.000000e+02
1.000000e+02
1.000000e+02
0.000000e+00
-1.626897e-01
-2.951606e-01
-4.179041e-01
-5.357653e-01
-6.496303e-01
-7.597134e-01
-8.659954e-01
-9.684030e-01
-1.066856e+00
-1.161289e+00
-1.251656e+00
-1.337929e+00
-1.420106e+00
-1.498202e+00
-1.572256e+00
-1.642333e+00
-1.708528e+00
-1.770972e+00
-1.829844e+00
-1.885383e+00
-1.937904e+00
-1.987827e+00
-2.035704e+00
-2.082280e+00
-2.128564e+00
-2.175958e+00
-2.226462e+00
-2.283009e+00
-2.349912e+00
-2.432754e+00
-2.531435e+00
-2.591645e+00
0.000000e+00
-1.090584e-01
-2.268961e-01
-3.380267e-01
-4.437122e-01
-5.449465e-01
-6.422490e-01
-7.358442e-01
-8.258187e-01
-9.121978e-01
-9.949830e-01
-1.074171e+00
-1.149762e+00
-1.221765e+00
-1.290203e+00
-1.355111e+00
-1.416542e+00
-1.474573e+00
-1.529301e+00
-1.580856e+00
-1.629406e+00
-1.675159e+00
-1.718374e+00
-1.759372e+00
-1.798533e+00
-1.836294e+00
-1.873118e+00
-1.909385e+00
-1.945094e+00
-1.979080e+00
-2.007391e+00
-2.023937e+00
-2.046965e+00
0.000000e+00
-8.649238e-02
-1.780641e-01
-2.713241e-01
-3.619911e-01
-4.493588e-01
-5.333612e-01
-6.140702e-01
-6.915510e-01
-7.658476e-01
-8.369876e-01
-9.049897e-01
-9.698698e-01
-1.031645e+00
-1.090335e+00
-1.145968e+00
-1.198577e+00
-1.248209e+00
-1.294916e+00
-1.338765e+00
-1.379832e+00
-1.418201e+00
-1.453951e+00
-1.487147e+00
-1.517802e+00
-1.545817e+00
-1.570873e+00
-1.592232e+00
-1.608451e+00
-1.617189e+00
-1.616434e+00
-1.611544e+00
-1.638432e+00
0.000000e+00
-6.862356e-02
-1.410391e-01
-2.154573e-01
-2.897342e-01
-3.622430e-01
-4.323582e-01
-4.998522e-01
-5.646597e-01
-6.267738e-01
-6.862070e-01
-7.429760e-01
-7.970973e-01
-8.485860e-01
-8.974552e-01
-9.437175e-01
-9.873841e-01
-1.028466e+00
-1.066969e+00
-1.102897e+00
-1.136238e+00
-1.166964e+00
-1.195004e+00
-1.220229e+00
-1.242405e+00
-1.261142e+00
-1.275820e+00
-1.285543e+00
-1.289261e+00
-1.286515e+00
-1.279834e+00
-1.279438e+00
-1.305059e+00
0.000000e+00
-5.326666e-02
-1.090742e-01
-1.666779e-01
-2.247702e-01
-2.821714e-01
-3.380885e-01
-3.921177e-01
-4.440734e-01
-4.938822e-01
-5.415224e-01
-5.869943e-01
-6.303040e-01
-6.714570e-01
-7.104545e-01
-7.472918e-01
-7.819564e-01
-8.144266e-01
-8.446681e-01
-8.726299e-01
-8.982364e-01
-9.213779e-01
-9.418960e-01
-9.595654e-01
-9.740737e-01
-9.850108e-01
-9.918950e-01
-9.943131e-01
-9.923376e-01
-9.874960e-01
-9.843537e-01
-9.916060e-01
-1.013470e+00
0.000000e+00
-3.915205e-02
-7.998374e-02
-1.221352e-01
-1.648826e-01
-2.074297e-01
-2.491432e-01
-2.896100e-01
-3.286020e-01
-3.660071e-01
-4.017764e-01
-4.358918e-01
-4.683455e-01
-4.991305e-01
-5.282338e-01
-5.556338e-01
-5.812972e-01
-6.051763e-01
-6.272062e-01
-6.473002e-01
-6.653449e-01
-6.811937e-01
-6.946615e-01
-7.055221e-01
-7.135179e-01
-7.183978e-01
-7.200185e-01
-7.185685e-01
-7.149903e-01
-7.115840e-01
-7.124100e-01
-7.216576e-01
-7.397551e-01
0.000000e+00
-2.576889e-02
-5.255881e-02
-8.020313e-02
-1.083100e-01
-1.364076e-01
-1.640729e-01
-1.909967e-01
-2.169848e-01
-2.419290e-01
-2.657740e-01
-2.884914e-01
-3.100625e-01
-3.304685e-01
-3.496838e-01
-3.676726e-01
-3.843859e-01
-3.997589e-01
-4.137089e-01
-4.261327e-01
-4.369055e-01
-4.458808e-01
-4.528957e-01
-4.577845e-01
-4.604119e-01
-4.607389e-01
-4.589442e-01
-4.556217e-01
-4.520353e-01
-4.502948e-01
-4.530031e-01
-4.620089e-01
-4.766214e-01
0.000000e+00
-1.280009e-02
-2.608508e-02
-3.978781e-02
-5.373621e-02
-6.771061e-02
-8.150215e-02
-9.494699e-02
-1.079341e-01
-1.203951e-01
-1.322894e-01
-1.435898e-01
-1.542724e-01
-1.643104e-01
-1.736690e-01
-1.823029e-01
-1.901540e-01
-1.971495e-01
-2.032013e-01
-2.082061e-01
-2.120482e-01
-2.146059e-01
-2.157648e-01
-2.154431e-01
-2.136343e-01
-2.104763e-01
-2.063511e-01
-2.020039e-01
-1.986280e-01
-1.977804e-01
-2.009594e-01
-2.088173e-01
-2.204136e-01
0.000000e+00
-2.077278e-05
-4.502609e-05
-7.141844e-05
-9.856307e-05
-1.245910e-04
-1.466865e-04
-1.605710e-04
-1.598998e-04
-1.355363e-04
-7.467619e-05
4.019537e-05
2.325094e-04
5.329573e-04
9.809081e-04
1.625776e-03
2.528128e-03
3.760183e-03
5.405174e-03
7.554729e-03
1.030306e-02
1.373616e-02
1.791361e-02
2.283998e-02
2.842307e-02
3.441842e-02
4.036719e-02
4.555057e-02
4.901159e-02
4.971497e-02
4.689173e-02
4.049539e-02
3.153601e-02
0.000000e+00
1.276096e-02
2.600008e-02
3.965272e-02
5.354934e-02
6.747373e-02
8.122222e-02
9.463896e-02
1.076247e-01
1.201283e-01
1.321331e-01
1.436446e-01
1.546832e-01
1.652797e-01
1.754737e-01
1.853134e-01
1.948552e-01
2.041639e-01
2.133101e-01
2.223669e-01
2.314018e-01
2.404645e-01
2.495679e-01
2.586614e-01
2.675974e-01
2.760937e-01
2.837059e-01
2.898288e-01
2.937636e-01
2.948784e-01
2.928624e-01
2.880031e-01
2.813533e-01
0.000000e+00
2.573689e-02
5.248882e-02
8.009114e-02
1.081539e-01
1.362079e-01
1.638341e-01
1.907298e-01
2.167100e-01
2.416804e-01
2.656050e-01
2.884819e-01
3.103286e-01
3.311734e-01
3.510522e-01
3.700067e-01
3.880837e-01
4.053344e-01
4.218121e-01
4.375673e-01
4.526409e-01
4.670516e-01
4.807800e-01
4.937466e-01
5.057885e-01
5.166387e-01
5.259199e-01
5.331691e-01
5.379142e-01
5.398118e-01
5.388370e-01
5.354745e-01
5.308333e-01
0.000000e+00
3.913159e-02
7.993818e-02
1.220611e-01
1.647774e-01
2.072924e-01
2.489752e-01
2.894167e-01
3.283946e-01
3.658053e-01
4.016124e-01
4.358147e-01
4.684281e-01
4.994765e-01
5.289880e-01
5.569928e-01
5.835233e-01
6.086124e-01
6.322919e-01
6.545885e-01
6.755177e-01
6.950744e-01
7.132204e-01
7.298703e-01
7.448766e-01
7.580214e-01
7.690214e-01
7.775587e-01
7.833486e-01
7.862499e-01
7.864133e-01
7.844408e-01
7.815075e-01
0.000000e+00
5.326148e-02
1.090613e-01
1.666548e-01
2.247347e-01
2.821215e-01
3.380228e-01
3.920363e-01
4.439778e-01
4.937766e-01
5.414150e-01
5.868988e-01
6.302420e-01
6.714611e-01
7.105719e-01
7.475890e-01
7.825254e-01
8.153918e-01
8.461952e-01
8.749369e-01
9.016076e-01
9.261826e-01
9.486143e-01
9.688251e-01
9.867014e-01
1.002093e+00
1.014824e+00
1.024718e+00
1.031653e+00
1.035637e+00
1.036929e+00
1.036188e+00
1.034643e+00
0.000000e+00
6.863622e-02
1.410648e-01
2.154956e-01
2.897839e-01
3.623026e-01
4.324257e-01
4.999242e-01
5.647306e-01
6.268349e-01
6.862447e-01
7.429707e-01
7.970208e-01
8.483988e-01
8.971040e-01
9.431310e-01
9.864697e-01
1.027105e+00
1.065016e+00
1.100175e+00
1.132547e+00
1.162085e+00
1.188734e+00
1.212426e+00
1.233085e+00
1.250634e+00
1.265008e+00
1.276173e+00
1.284163e+00
1.289129e+00
1.291414e+00
1.291686e+00
1.291173e+00
0.000000e+00
8.652350e-02
1.781305e-01
2.714280e-01
3.621345e-01
4.495434e-01
5.335874e-01
6.143353e-01
6.918475e-01
7.661602e-01
8.372894e-01
9.052372e-01
9.699962e-01
1.031552e+00
1.089882e+00
1.144960e+00
1.196749e+00
1.245207e+00
1.290280e+00
1.331909e+00
1.370024e+00
1.404551e+00
1.435414e+00
1.462545e+00
1.485891e+00
1.505435e+00
1.521212e+00
1.533333e+00
1.542008e+00
1.547564e+00
1.550472e+00
1.551420e+00
1.551533e+00
0.000000e+00
1.091051e-01
2.269982e-01
3.381909e-01
4.439466e-01
5.452591e-01
6.426466e-01
7.363307e-01
8.263923e-01
9.128469e-01
9.956807e-01
1.074867e+00
1.150374e+00
1.222162e+00
1.290191e+00
1.354407e+00
1.414753e+00
1.471155e+00
1.523527e+00
1.571771e+00
1.615773e+00
1.655415e+00
1.690579e+00
1.721166e+00
1.747110e+00
1.768414e+00
1.785177e+00
1.797637e+00
1.806196e+00
1.811440e+00
1.814120e+00
1.815091e+00
1.815329e+00
0.000000e+00
1.627409e-01
2.952801e-01
4.181088e-01
5.360716e-01
6.500551e-01
7.602739e-01
8.667082e-01
9.692810e-01
1.067905e+00
1.162500e+00
1.252996e+00
1.339331e+00
1.421448e+00
1.499286e+00
1.572778e+00
1.641844e+00
1.706386e+00
1.766285e+00
1.821399e+00
1.871559e+00
1.916582e+00
1.956274e+00
1.990452e+00
2.018976e+00
2.041787e+00
2.058966e+00
2.070801e+00
2.077856e+00
2.081034e+00
2.081612e+00
2.081133e+00
2.080864e+00
0.000000e+00
-1.005415e-01
-1.755019e-01
-2.573360e-01
-3.484796e-01
-4.514383e-01
-5.669279e-01
-6.951520e-01
-8.359857e-01
-9.891292e-01
-1.154179e+00
-1.330670e+00
-1.518099e+00
-1.715943e+00
-1.923668e+00
-2.140735e+00
-2.366608e+00
-2.600762e+00
-2.842687e+00
-3.091903e+00
-3.347978e+00
-3.610545e+00
-3.879343e+00
-4.154269e+00
-4.435460e+00
-4.723437e+00
-5.019345e+00
-5.325418e+00
-5.645929e+00
-5.989335e+00
-6.373884e+00
-6.842623e+00
-7.490138e+00
0.000000e+00
-6.248600e-02
-1.409496e-01
-2.233217e-01
-3.157177e-01
-4.197813e-01
-5.363828e-01
-6.657213e-01
-8.076821e-01
-9.619655e-01
-1.128165e+00
-1.305812e+00
-1.494399e+00
-1.693398e+00
-1.902270e+00
-2.120470e+00
-2.347457e+00
-2.582695e+00
-2.825667e+00
-3.075881e+00
-3.332887e+00
-3.596302e+00
-3.865840e+00
-4.141367e+00
-4.422984e+00
-4.711163e+00
-5.006991e+00
-5.312633e+00
-5.632271e+00
-5.974224e+00
-6.355812e+00
-6.814124e+00
-7.419065e+00
0.000000e+00
-4.590357e-02
-1.136443e-01
-1.948853e-01
-2.874298e-01
-3.922481e-01
-5.097603e-01
-6.400769e-01
-7.830428e-01
-9.383435e-01
-1.105566e+00
-1.284237e+00
-1.473846e+00
-1.673865e+00
-1.883752e+00
-2.102960e+00
-2.330944e+00
-2.567166e+00
-2.811105e+00
-3.062265e+00
-3.320192e+00
-3.584500e+00
-3.854903e+00
-4.131270e+00
-4.413714e+00
-4.702734e+00
-4.999464e+00
-5.306124e+00
-5.626848e+00
-5.969128e+00
-6.345759e+00
-6.771838e+00
-7.244445e+00
0.000000e+00
-3.676619e-02
-9.624529e-02
-1.731509e-01
-2.644986e-01
-3.692752e-01
-4.872817e-01
-6.183210e-01
-7.621132e-01
-9.182853e-01
-1.086397e+00
-1.265965e+00
-1.456473e+00
-1.657392e+00
-1.868180e+00
-2.088292e+00
-2.317184e+00
-2.554321e+00
-2.799184e+00
-3.051281e+00
-3.310165e+00
-3.575458e+00
-3.846888e+00
-4.124346e+00
-4.407971e+00
-4.698287e+00
-4.996416e+00
-5.304404e+00
-5.625636e+00
-5.965049e+00
-6.327365e+00
-6.709479e+00
-7.065174e+00
0.000000e+00
-3.112073e-02
-8.487026e-02
-1.577201e-01
-2.469813e-01
-3.510649e-01
-4.691089e-01
-6.005678e-01
-7.449689e-01
-9.018419e-01
-1.070698e+00
-1.251029e+00
-1.442312e+00
-1.644014e+00
-1.855597e+00
-2.076518e+00
-2.306239e+00
-2.544232e+00
-2.789983e+00
-3.043010e+00
-3.302874e+00
-3.569210e+00
-3.841758e+00
-4.120414e+00
-4.405309e+00
-4.696901e+00
-4.996106e+00
-5.304396e+00
-5.623719e+00
-5.955644e+00
-6.298580e+00
-6.639924e+00
-6.949692e+00
0.000000e+00
-2.752857e-02
-7.740786e-02
-1.471031e-01
-2.343532e-01
-3.374581e-01
-4.552407e-01
-5.868628e-01
-7.316639e-01
-8.890617e-01
-1.058507e+00
-1.239461e+00
-1.431388e+00
-1.633753e+00
-1.846020e+00
-2.067651e+00
-2.298117e+00
-2.536895e+00
-2.783482e+00
-3.037401e+00
-3.298221e+00
-3.565578e+00
-3.839204e+00
-4.118966e+00
-4.404914e+00
-4.697323e+00
-4.996708e+00
-5.303717e+00
-5.618707e+00
-5.940616e+00
-6.264531e+00
-6.578868e+00
-6.866144e+00
0.000000e+00
-2.529563e-02
-7.268983e-02
-1.402026e-01
-2.258945e-01
-3.281091e-01
-4.455390e-01
-5.771742e-01
-7.222109e-01
-8.799716e-01
-1.049851e+00
-1.231281e+00
-1.423714e+00
-1.626612e+00
-1.839441e+00
-2.061671e+00
-2.292780e+00
-2.532251e+00
-2.779586e+00
-3.034313e+00
-3.295997e+00
-3.564259e+00
-3.838795e+00
-4.119397e+00
-4.405968e+00
-4.698513e+00
-4.997059e+00
-5.301434e+00
-5.610761e+00
-5.922518e+00
-6.231308e+00
-6.528215e+00
-6.802317e+00
0.000000e+00
-2.406837e-02
-7.007181e-02
-1.363141e-01
-2.210446e-01
-3.226640e-01
-4.398230e-01
-5.714273e-01
-7.165912e-01
-8.745764e-01
-1.044740e+00
-1.226494e+00
-1.419285e+00
-1.622573e+00
-1.835828e+00
-2.058527e+00
-2.290153e+00
-2.530194e+00
-2.778154e+00
-3.033556e+00
-3.295949e+00
-3.564920e+00
-3.840103e+00
-4.121181e+00
-4.407870e+00
-4.699875e+00
-4.996765e+00
-5.297733e+00
-5.601168e+00
-5.904084e+00
-6.201610e+00
-6.487041e+00
-6.752922e+00
0.000000e+00
-2.367291e-02
-6.922714e-02
-1.350538e-01
-2.194641e-01
-3.208821e-01
-4.379507e-01
-5.695525e-01
-7.147769e-01
-8.728673e-01
-1.043170e+00
-1.225093e+00
-1.418083e+00
-1.621604e+00
-1.835133e+00
-2.058150e+00
-2.290141e+00
-2.530600e+00
-2.779024e+00
-3.034923e+00
-3.297820e+00
-3.567255e+00
-3.842780e+00
-4.123948e+00
-4.410285e+00
-4.701220e+00
-4.995962e+00
-5.293295e+00
-5.591297e+00
-5.887028e+00
-6.176368e+00
-6.454200e+00
-6.715063e+00
0.000000e+00
-2.405690e-02
-7.005590e-02
-1.363004e-01
-2.210405e-01
-3.226787e-01
-4.398684e-01
-5.715194e-01
-7.167511e-01
-8.748319e-01
-1.045126e+00
-1.227057e+00
-1.420079e+00
-1.623665e+00
-1.837296e+00
-2.060460e+00
-2.292644e+00
-2.533339e+00
-2.782035e+00
-3.038223e+00
-3.301392e+00
-3.571024e+00
-3.846583e+00
-4.127496e+00
-4.413111e+00
-4.702635e+00
-4.995030e+00
-5.288870e+00
-5.582173e+00
-5.872265e+00
-6.155749e+00
-6.428666e+00
-6.686846e+00
0.000000e+00
-2.527361e-02
-7.265929e-02
-1.401762e-01
-2.258863e-01
-3.281366e-01
-4.456252e-01
-5.773498e-01
-7.225165e-01
-8.804603e-01
-1.050591e+00
-1.232358e+00
-1.425235e+00
-1.628706e+00
-1.842258e+00
-2.065381e+00
-2.297565e+00
-2.538294e+00
-2.787049e+00
-3.043298e+00
-3.306493e+00
-3.576058e+00
-3.851372e+00
-4.131747e+00
-4.416387e+00
-4.704335e+00
-4.994400e+00
-5.285075e+00
-5.574458e+00
-5.860208e+00
-6.139577e+00
-6.409513e+00
-6.666815e+00
0.000000e+00
-2.749796e-02
-7.736541e-02
-1.470663e-01
-2.343414e-01
-3.374957e-01
-4.553600e-01
-5.871068e-01
-7.320893e-01
-8.897430e-01
-1.059540e+00
-1.240966e+00
-1.433515e+00
-1.636682e+00
-1.849961e+00
-2.072845e+00
-2.304821e+00
-2.545369e+00
-2.793956e+00
-3.050029e+00
-3.313004e+00
-3.582252e+00
-3.857080e+00
-4.136706e+00
-4.420222e+00
-4.706558e+00
-4.994441e+00
-5.282356e+00
-5.568534e+00
-5.850975e+00
-6.127504e+00
-6.395851e+00
-6.653684e+00
0.000000e+00
-3.108467e-02
-8.482028e-02
-1.576767e-01
-2.469676e-01
-3.511104e-01
-4.692528e-01
-6.008620e-01
-7.454825e-01
-9.026649e-01
-1.071946e+00
-1.252849e+00
-1.444884e+00
-1.647557e+00
-1.860366e+00
-2.082804e+00
-2.314357e+00
-2.554498e+00
-2.802683e+00
-3.058338e+00
-3.320852e+00
-3.589553e+00
-3.863690e+00
-4.142410e+00
-4.424728e+00
-4.709502e+00
-4.995417e+00
-5.280984e+00
-5.564576e+00
-5.844495e+00
-6.119077e+00
-6.386780e+00
-6.646170e+00
0.000000e+00
-3.672912e-02
-9.619397e-02
-1.731067e-01
-2.644868e-01
-3.693287e-01
-4.874438e-01
-6.186495e-01
-7.626843e-01
-9.191987e-01
-1.087781e+00
-1.267980e+00
-1.459320e+00
-1.661310e+00
-1.873451e+00
-2.095236e+00
-2.326147e+00
-2.565652e+00
-2.813198e+00
-3.068197e+00
-3.330013e+00
-3.597947e+00
-3.871209e+00
-4.148898e+00
-4.429981e+00
-4.713277e+00
-4.997454e+00
-5.281059e+00
-5.562580e+00
-5.840565e+00
-6.113778e+00
-6.381365e+00
-6.642894e+00
0.000000e+00
-4.587124e-02
-1.135993e-01
-1.948481e-01
-2.874264e-01
-3.923131e-01
-5.099393e-01
-6.404301e-01
-7.836496e-01
-9.393072e-01
-1.107019e+00
-1.286345e+00
-1.476815e+00
-1.677941e+00
-1.889222e+00
-2.110150e+00
-2.340204e+00
-2.578847e+00
-2.825519e+00
-3.079621e+00
-3.340507e+00
-3.607456e+00
-3.879659e+00
-4.156192e+00
-4.435999e+00
-4.717885e+00
-5.000520e+00
-5.282486e+00
-5.562355e+00
-5.838844e+00
-6.111031e+00
-6.378642e+00
-6.642322e+00
0.000000e+00
-6.246521e-02
-1.409190e-01
-2.232998e-01
-3.157314e-01
-4.198659e-01
-5.365844e-01
-6.661003e-01
-8.083177e-01
-9.629600e-01
-1.129649e+00
-1.307948e+00
-1.497387e+00
-1.697477e+00
-1.907716e+00
-2.127593e+00
-2.356583e+00
-2.594147e+00
-2.839716e+00
-3.092689e+00
-3.352408e+00
-3.618147e+00
-3.889089e+00
-4.164305e+00
-4.442739e+00
-4.723204e+00
-5.004394e+00
-5.284929e+00
-5.563446e+00
-5.838763e+00
-6.110137e+00
-6.377659e+00
-6.642808e+00
0.000000e+00
-1.005385e-01
-1.754917e-01
-2.573379e-01
-3.485208e-01
-4.515543e-01
-5.671648e-01
-6.955696e-01
-8.366615e-01
-9.901628e-01
-1.155696e+00
-1.332825e+00
-1.521081e+00
-1.719974e+00
-1.929002e+00
-2.147648e+00
-2.375386e+00
-2.611670e+00
-2.855926e+00
-3.107546e+00
-3.365866e+00
-3.630157e+00
-3.899600e+00