TITLE = "Solution"
VARIABLES = x, y, u, v, psiu, psiv, t, stress
ZONE T="structure" N=561 E=512 F=FEBLOCK ET=QUADRILATERAL VARLOCATION=([7,8]=cellcentered)
0.000000e+00
6.250000e+00
1.250000e+01
1.875000e+01
2.500000e+01
3.125000e+01
3.750000e+01
4.375000e+01
5.000000e+01
5.625000e+01
6.250000e+01
6.875000e+01
7.500000e+01
8.125000e+01
8.750000e+01
9.375000e+01
1.000000e+02
1.062500e+02
1.125000e+02
1.187500e+02
1.250000e+02
1.312500e+02
1.375000e+02
1.437500e+02
1.500000e+02
1.562500e+02
1.625000e+02
1.687500e+02
1.750000e+02
1.812500e+02
1.875000e+02
1.937500e+02
2.000000e+02
0.000000e+00
6.250000e+00
1.250000e+01
1.875000e+01
2.500000e+01
3.125000e+01
3.750000e+01
4.375000e+01
5.000000e+01
5.625000e+01
6.250000e+01
6.875000e+01
7.500000e+01
8.125000e+01
8.750000e+01
9.375000e+01
1.000000e+02
1.062500e+02
1.125000e+02
1.187500e+02
1.250000e+02
1.312500e+02
1.375000e+02
1.437500e+02
1.500000e+02
1.562500e+02
1.625000e+02
1.687500e+02
1.750000e+02
1.812500e+02
1.875000e+02
1.937500e+02
2.000000e+02
0.000000e+00
6.250000e+00
1.250000e+01
1.875000e+01
2.500000e+01
3.125000e+01
3.750000e+01
4.375000e+01
5.000000e+01
5.625000e+01
6.250000e+01
6.875000e+01
7.500000e+01
8.125000e+01
8.750000e+01
9.375000e+01
1.000000e+02
1.062500e+02
1.125000e+02
1.187500e+02
1.250000e+02
1.312500e+02
1.375000e+02
1.437500e+02
1.500000e+02
1.562500e+02
1.625000e+02
1.687500e+02
1.750000e+02
1.812500e+02
1.875000e+02
1.937500e+02
2.000000e+02
0.000000e+00
6.250000e+00
1.250000e+01
1.875000e+01
2.500000e+01
3.125000e+01
3.750000e+01
4.375000e+01
5.000000e+01
5.625000e+01
6.250000e+01
6.875000e+01
7.500000e+01
8.125000e+01
8.750000e+01
9.375000e+01
1.000000e+02
1.062500e+02
1.125000e+02
1.187500e+02
1.250000e+02
1.312500e+02
1.375000e+02
1.437500e+02
1.500000e+02
1.562500e+02
1.625000e+02
1.687500e+02
1.750000e+02
1.812500e+02
1.875000e+02
1.937500e+02
2.000000e+02
0.000000e+00
6.250000e+00
1.250000e+01
1.875000e+01
2.500000e+01
3.125000e+01
3.750000e+01
4.375000e+01
5.000000e+01
5.625000e+01
6.250000e+01
6.875000e+01
7.500000e+01
8.125000e+01
8.750000e+01
9.375000e+01
1.000000e+02
1.062500e+02
1.125000e+02
1.187500e+02
1.250000e+02
1.312500e+02
1.375000e+02
1.437500e+02
1.500000e+02
1.562500e+02
1.625000e+02
1.687500e+02
1.750000e+02
1.812500e+02
1.875000e+02
1.937500e+02
2.000000e+02
0.000000e+00
6.250000e+00
1.250000e+01
1.875000e+01
2.500000e+01
3.125000e+01
3.750000e+01
4.375000e+01
5.000000e+01
5.625000e+01
6.250000e+01
6.875000e+01
7.500000e+01
8.125000e+01
8.750000e+01
9.375000e+01
1.000000e+02
1.062500e+02
1.125000e+02
1.187500e+02
1.250000e+02
1.312500e+02
1.375000e+02
1.437500e+02
1.500000e+02
1.562500e+02
1.625000e+02
1.687500e+02
1.750000e+02
1.812500e+02
1.875000e+02
1.937500e+02
2.000000e+02
0.000000e+00
6.250000e+00
1.250000e+01
1.875000e+01
2.500000e+01
3.125000e+01
3.750000e+01
4.375000e+01
5.000000e+01
5.625000e+01
6.250000e+01
6.875000e+01
7.500000e+01
8.125000e+01
8.750000e+01
9.375000e+01
1.000000e+02
1.062500e+02
1.125000e+02
1.187500e+02
1.250000e+02
1.312500e+02
1.375000e+02
1.437500e+02
1.500000e+02
1.562500e+02
1.625000e+02
1.687500e+02
1.750000e+02
1.812500e+02
1.875000e+02
1.937500e+02
2.000000e+02
0.000000e+00
6.250000e+00
1.250000e+01
1.875000e+01
2.500000e+01
3.125000e+01
3.750000e+01
4.375000e+01
5.000000e+01
5.625000e+01
6.250000e+01
6.875000e+01
7.500000e+01
8.125000e+01
8.750000e+01
9.375000e+01
1.000000e+02
1.062500e+02
1.125000e+02
1.187500e+02
1.250000e+02
1.312500e+02
1.375000e+02
1.437500e+02
1.500000e+02
1.562500e+02
1.625000e+02
1.687500e+02
1.750000e+02
1.812500e+02
1.875000e+02
1.937500e+02
2.000000e+02
0.000000e+00
6.250000e+00
1.250000e+01
1.875000e+01
2.500000e+01
3.125000e+01
3.750000e+01
4.375000e+01
5.000000e+01
5.625000e+01
6.250000e+01
6.875000e+01
7.500000e+01
8.125000e+01
8.750000e+01
9.375000e+01
1.000000e+02
1.062500e+02
1.125000e+02
1.187500e+02
1.250000e+02
1.312500e+02
1.375000e+02
1.437500e+02
1.500000e+02
1.562500e+02
1.625000e+02
1.687500e+02
1.750000e+02
1.812500e+02
1.875000e+02
1.937500e+02
2.000000e+02
0.000000e+00
6.250000e+00
1.250000e+01
1.875000e+01
2.500000e+01
3.125000e+01
3.750000e+01
4.375000e+01
5.000000e+01
5.625000e+01
6.250000e+01
6.875000e+01
7.500000e+01
8.125000e+01
8.750000e+01
9.375000e+01
1.000000e+02
1.062500e+02
1.125000e+02
1.187500e+02
1.250000e+02
1.312500e+02
1.375000e+02
1.437500e+02
1.500000e+02
1.562500e+02
1.625000e+02
1.687500e+02
1.750000e+02
1.812500e+02
1.875000e+02
1.937500e+02
2.000000e+02
0.000000e+00
6.250000e+00
1.250000e+01
1.875000e+01
2.500000e+01
3.125000e+01
3.750000e+01
4.375000e+01
5.000000e+01
5.625000e+01
6.250000e+01
6.875000e+01
7.500000e+01
8.125000e+01
8.750000e+01
9.375000e+01
1.000000e+02
1.062500e+02
1.125000e+02
1.187500e+02
1.250000e+02
1.312500e+02
1.375000e+02
1.437500e+02
1.500000e+02
1.562500e+02
1.625000e+02
1.687500e+02
1.750000e+02
1.812500e+02
1.875000e+02
1.937500e+02
2.000000e+02
0.000000e+00
6.250000e+00
1.250000e+01
1.875000e+01
2.500000e+01
3.125000e+01
3.750000e+01
4.375000e+01
5.000000e+01
5.625000e+01
6.250000e+01
6.875000e+01
7.500000e+01
8.125000e+01
8.750000e+01
9.375000e+01
1.000000e+02
1.062500e+02
1.125000e+02
1.187500e+02
1.250000e+02
1.312500e+02
1.375000e+02
1.437500e+02
1.500000e+02
1.562500e+02
1.625000e+02
1.687500e+02
1.750000e+02
1.812500e+02
1.875000e+02
1.937500e+02
2.000000e+02
0.000000e+00
6.250000e+00
1.250000e+01
1.875000e+01
2.500000e+01
3.125000e+01
3.750000e+01
4.375000e+01
5.000000e+01
5.625000e+01
6.250000e+01
6.875000e+01
7.500000e+01
8.125000e+01
8.750000e+01
9.375000e+01
1.000000e+02
1.062500e+02
1.125000e+02
1.187500e+02
1.250000e+02
1.312500e+02
1.375000e+02
1.437500e+02
1.500000e+02
1.562500e+02
1.625000e+02
1.687500e+02
1.750000e+02
1.812500e+02
1.875000e+02
1.937500e+02
2.000000e+02
0.000000e+00
6.250000e+00
1.250000e+01
1.875000e+01
2.500000e+01
3.125000e+01
3.750000e+01
4.375000e+01
5.000000e+01
5.625000e+01
6.250000e+01
6.875000e+01
7.500000e+01
8.125000e+01
8.750000e+01
9.375000e+01
1.000000e+02
1.062500e+02
1.125000e+02
1.187500e+02
1.250000e+02
1.312500e+02
1.375000e+02
1.437500e+02
1.500000e+02
1.562500e+02
1.625000e+02
1.687500e+02
1.750000e+02
1.812500e+02
1.875000e+02
1.937500e+02
2.000000e+02
0.000000e+00
6.250000e+00
1.250000e+01
1.875000e+01
2.500000e+01
3.125000e+01
3.750000e+01
4.375000e+01
5.000000e+01
5.625000e+01
6.250000e+01
6.875000e+01
7.500000e+01
8.125000e+01
8.750000e+01
9.375000e+01
1.000000e+02
1.062500e+02
1.125000e+02
1.187500e+02
1.250000e+02
1.312500e+02
1.375000e+02
1.437500e+02
1.500000e+02
1.562500e+02
1.625000e+02
1.687500e+02
1.750000e+02
1.812500e+02
1.875000e+02
1.937500e+02
2.000000e+02
0.000000e+00
6.250000e+00
1.250000e+01
1.875000e+01
2.500000e+01
3.125000e+01
3.750000e+01
4.375000e+01
5.000000e+01
5.625000e+01
6.250000e+01
6.875000e+01
7.500000e+01
8.125000e+01
8.750000e+01
9.375000e+01
1.000000e+02
1.062500e+02
1.125000e+02
1.187500e+02
1.250000e+02
1.312500e+02
1.375000e+02
1.437500e+02
1.500000e+02
1.562500e+02
1.625000e+02
1.687500e+02
1.750000e+02
1.812500e+02
1.875000e+02
1.937500e+02
2.000000e+02
0.000000e+00
6.250000e+00
1.250000e+01
1.875000e+01
2.500000e+01
3.125000e+01
3.750000e+01
4.375000e+01
5.000000e+01
5.625000e+01
6.250000e+01
6.875000e+01
7.500000e+01
8.125000e+01
8.750000e+01
9.375000e+01
1.000000e+02
1.062500e+02
1.125000e+02
1.187500e+02
1.250000e+02
1.312500e+02
1.375000e+02
1.437500e+02
1.500000e+02
1.562500e+02
1.625000e+02
1.687500e+02
1.750000e+02
1.812500e+02
1.875000e+02
1.937500e+02
2.000000e+02
0.000000e+00
0.000000e+00
0.000000e+00
0.000000e+00
0.000000e+00
0.000000e+00
0.000000e+00
0.000000e+00
0.000000e+00
0.000000e+00
0.000000e+00
0.000000e+00
0.000000e+00
0.000000e+00
0.000000e+00
0.000000e+00
0.000000e+00
0.000000e+00
0.000000e+00
0.000000e+00
0.000000e+00
0.000000e+00
0.000000e+00
0.000000e+00
0.000000e+00
0.000000e+00
0.000000e+00
0.000000e+00
0.000000e+00
0.000000e+00
0.000000e+00
0.000000e+00
0.000000e+00
6.250000e+00
6.250000e+00
6.250000e+00
6.250000e+00
6.250000e+00
6.250000e+00
6.250000e+00
6.250000e+00
6.250000e+00
6.250000e+00
6.250000e+00
6.250000e+00
6.250000e+00
6.250000e+00
6.250000e+00
6.250000e+00
6.250000e+00
6.250000e+00
6.250000e+00
6.250000e+00
6.250000e+00
6.250000e+00
6.250000e+00
6.250000e+00
6.250000e+00
6.250000e+00
6.250000e+00
6.250000e+00
6.250000e+00
6.250000e+00
6.250000e+00
6.250000e+00
6.250000e+00
1.250000e+01
1.250000e+01
1.250000e+01
1.250000e+01
1.250000e+01
1.250000e+01
1.250000e+01
1.250000e+01
1.250000e+01
1.250000e+01
1.250000e+01
1.250000e+01
1.250000e+01
1.250000e+01
1.250000e+01
1.250000e+01
1.250000e+01
1.250000e+01
1.250000e+01
1.250000e+01
1.250000e+01
1.250000e+01
1.250000e+01
1.250000e+01
1.250000e+01
1.250000e+01
1.250000e+01
1.250000e+01
1.250000e+01
1.250000e+01
1.250000e+01
1.250000e+01
1.250000e+01
1.875000e+01
1.875000e+01
1.875000e+01
1.875000e+01
1.875000e+01
1.875000e+01
1.875000e+01
1.875000e+01
1.875000e+01
1.875000e+01
1.875000e+01
1.875000e+01
1.875000e+01
1.875000e+01
1.875000e+01
1.875000e+01
1.875000e+01
1.875000e+01
1.875000e+01
1.875000e+01
1.875000e+01
1.875000e+01
1.875000e+01
1.875000e+01
1.875000e+01
1.875000e+01
1.875000e+01
1.875000e+01
1.875000e+01
1.875000e+01
1.875000e+01
1.875000e+01
1.875000e+01
2.500000e+01
2.500000e+01
2.500000e+01
2.500000e+01
2.500000e+01
2.500000e+01
2.500000e+01
2.500000e+01
2.500000e+01
2.500000e+01
2.500000e+01
2.500000e+01
2.500000e+01
2.500000e+01
2.500000e+01
2.500000e+01
2.500000e+01
2.500000e+01
2.500000e+01
2.500000e+01
2.500000e+01
2.500000e+01
2.500000e+01
2.500000e+01
2.500000e+01
2.500000e+01
2.500000e+01
2.500000e+01
2.500000e+01
2.500000e+01
2.500000e+01
2.500000e+01
2.500000e+01
3.125000e+01
3.125000e+01
3.125000e+01
3.125000e+01
3.125000e+01
3.125000e+01
3.125000e+01
3.125000e+01
3.125000e+01
3.125000e+01
3.125000e+01
3.125000e+01
3.125000e+01
3.125000e+01
3.125000e+01
3.125000e+01
3.125000e+01
3.125000e+01
3.125000e+01
3.125000e+01
3.125000e+01
3.125000e+01
3.125000e+01
3.125000e+01
3.125000e+01
3.125000e+01
3.125000e+01
3.125000e+01
3.125000e+01
3.125000e+01
3.125000e+01
3.125000e+01
3.125000e+01
3.750000e+01
3.750000e+01
3.750000e+01
3.750000e+01
3.750000e+01
3.750000e+01
3.750000e+01
3.750000e+01
3.750000e+01
3.750000e+01
3.750000e+01
3.750000e+01
3.750000e+01
3.750000e+01
3.750000e+01
3.750000e+01
3.750000e+01
3.750000e+01
3.750000e+01
3.750000e+01
3.750000e+01
3.750000e+01
3.750000e+01
3.750000e+01
3.750000e+01
3.750000e+01
3.750000e+01
3.750000e+01
3.750000e+01
3.750000e+01
3.750000e+01
3.750000e+01
3.750000e+01
4.375000e+01
4.375000e+01
4.375000e+01
4.375000e+01
4.375000e+01
4.375000e+01
4.375000e+01
4.375000e+01
4.375000e+01
4.375000e+01
4.375000e+01
4.375000e+01
4.375000e+01
4.375000e+01
4.375000e+01
4.375000e+01
4.375000e+01
4.375000e+01
4.375000e+01
4.375000e+01
4.375000e+01
4.375000e+01
4.375000e+01
4.375000e+01
4.375000e+01
4.375000e+01
4.375000e+01
4.375000e+01
4.375000e+01
4.375000e+01
4.375000e+01
4.375000e+01
4.375000e+01
5.000000e+01
5.000000e+01
5.000000e+01
5.000000e+01
5.000000e+01
5.000000e+01
5.000000e+01
5.000000e+01
5.000000e+01
5.000000e+01
5.000000e+01
5.000000e+01
5.000000e+01
5.000000e+01
5.000000e+01
5.000000e+01
5.000000e+01
5.000000e+01
5.000000e+01
5.000000e+01
5.000000e+01
5.000000e+01
5.000000e+01
5.000000e+01
5.000000e+01
5.000000e+01
5.000000e+01
5.000000e+01
5.000000e+01
5.000000e+01
5.000000e+01
5.000000e+01
5.000000e+01
5.625000e+01
5.625000e+01
5.625000e+01
5.625000e+01
5.625000e+01
5.625000e+01
5.625000e+01
5.625000e+01
5.625000e+01
5.625000e+01
5.625000e+01
5.625000e+01
5.625000e+01
5.625000e+01
5.625000e+01
5.625000e+01
5.625000e+01
5.625000e+01
5.625000e+01
5.625000e+01
5.625000e+01
5.625000e+01
5.625000e+01
5.625000e+01
5.625000e+01
5.625000e+01
5.625000e+01
5.625000e+01
5.625000e+01
5.625000e+01
5.625000e+01
5.625000e+01
5.625000e+01
6.250000e+01
6.250000e+01
6.250000e+01
6.250000e+01
6.250000e+01
6.250000e+01
6.250000e+01
6.250000e+01
6.250000e+01
6.250000e+01
6.250000e+01
6.250000e+01
6.250000e+01
6.250000e+01
6.250000e+01
6.250000e+01
6.250000e+01
6.250000e+01
6.250000e+01
6.250000e+01
6.250000e+01
6.250000e+01
6.250000e+01
6.250000e+01
6.250000e+01
6.250000e+01
6.250000e+01
6.250000e+01
6.250000e+01
6.250000e+01
6.250000e+01
6.250000e+01
6.250000e+01
6.875000e+01
6.875000e+01
6.875000e+01
6.875000e+01
6.875000e+01
6.875000e+01
6.875000e+01
6.875000e+01
6.875000e+01
6.875000e+01
6.875000e+01
6.875000e+01
6.875000e+01
6.875000e+01
6.875000e+01
6.875000e+01
6.875000e+01
6.875000e+01
6.875000e+01
6.875000e+01
6.875000e+01
6.875000e+01
6.875000e+01
6.875000e+01
6.875000e+01
6.875000e+01
6.875000e+01
6.875000e+01
6.875000e+01
6.875000e+01
6.875000e+01
6.875000e+01
6.875000e+01
7.500000e+01
7.500000e+01
7.500000e+01
7.500000e+01
7.500000e+01
7.500000e+01
7.500000e+01
7.500000e+01
7.500000e+01
7.500000e+01
7.500000e+01
7.500000e+01
7.500000e+01
7.500000e+01
7.500000e+01
7.500000e+01
7.500000e+01
7.500000e+01
7.500000e+01
7.500000e+01
7.500000e+01
7.500000e+01
7.500000e+01
7.500000e+01
7.500000e+01
7.500000e+01
7.500000e+01
7.500000e+01
7.500000e+01
7.500000e+01
7.500000e+01
7.500000e+01
7.500000e+01
8.125000e+01
8.125000e+01
8.125000e+01
8.125000e+01
8.125000e+01
8.125000e+01
8.125000e+01
8.125000e+01
8.125000e+01
8.125000e+01
8.125000e+01
8.125000e+01
8.125000e+01
8.125000e+01
8.125000e+01
8.125000e+01
8.125000e+01
8.125000e+01
8.125000e+01
8.125000e+01
8.125000e+01
8.125000e+01
8.125000e+01
8.125000e+01
8.125000e+01
8.125000e+01
8.125000e+01
8.125000e+01
8.125000e+01
8.125000e+01
8.125000e+01
8.125000e+01
8.125000e+01
8.750000e+01
8.750000e+01
8.750000e+01
8.750000e+01
8.750000e+01
8.750000e+01
8.750000e+01
8.750000e+01
8.750000e+01
8.750000e+01
8.750000e+01
8.750000e+01
8.750000e+01
8.750000e+01
8.750000e+01
8.750000e+01
8.750000e+01
8.750000e+01
8.750000e+01
8.750000e+01
8.750000e+01
8.750000e+01
8.750000e+01
8.750000e+01
8.750000e+01
8.750000e+01
8.750000e+01
8.750000e+01
8.750000e+01
8.750000e+01
8.750000e+01
8.750000e+01
8.750000e+01
9.375000e+01
9.375000e+01
9.375000e+01
9.375000e+01
9.375000e+01
9.375000e+01
9.375000e+01
9.375000e+01
9.375000e+01
9.375000e+01
9.375000e+01
9.375000e+01
9.375000e+01
9.375000e+01
9.375000e+01
9.375000e+01
9.375000e+01
9.375000e+01
9.375000e+01
9.375000e+01
9.375000e+01
9.375000e+01
9.375000e+01
9.375000e+01
9.375000e+01
9.375000e+01
9.375000e+01
9.375000e+01
9.375000e+01
9.375000e+01
9.375000e+01
9.375000e+01
9.375000e+01
1.000000e+02
1.000000e+02
1.000000e+02
1.000000e+02
1.000000e+02
1.000000e+02
1.000000e+02
1.000000e+02
1.000000e+02
1.000000e+02
1.000000e+02
1.000000e+02
1.000000e+02
1.000000e+02
1.000000e+02
1.000000e+02
1.000000e+02
1.000000e+02
1.000000e+02
1.000000e+02
1.000000e+02
1.000000e+02
1.000000e+02
1.000000e+02
1.000000e+02
1.000000e+02
1.000000e+02
1.000000e+02
1.000000e+02
1.000000e+02
1.000000e+02
1.000000e+02
1.000000e+02
0.000000e+00
-3.942938e-01
-7.043208e-01
-1.009907e+00
-1.318605e+00
-1.613735e+00
-1.912982e+00
-2.212358e+00
-2.507884e+00
-2.804340e+00
-3.100981e+00
-3.396293e+00
-3.691396e+00
-3.986335e+00
-4.280582e+00
-4.574304e+00
-4.867589e+00
-5.160301e+00
-5.452435e+00
-5.743998e+00
-6.034899e+00
-6.325049e+00
-6.614341e+00
-6.902422e+00
-7.188741e+00
-7.473316e+00
-7.757647e+00
-8.045254e+00
-8.342653e+00
-8.661376e+00
-9.009250e+00
-9.360877e+00
-9.557421e+00
0.000000e+00
-2.388348e-01
-4.926878e-01
-7.522823e-01
-1.018787e+00
-1.275207e+00
-1.535983e+00
-1.797825e+00
-2.056501e+00
-2.315928e+00
-2.575604e+00
-2.834089e+00
-3.092285e+00
-3.350289e+00
-3.607622e+00
-3.864390e+00
-4.120656e+00
-4.376271e+00
-4.631164e+00
-4.885252e+00
-5.138316e+00
-5.390035e+00
-5.639909e+00
-5.886953e+00
-6.129643e+00
-6.366466e+00
-6.596536e+00
-6.819615e+00
-7.034980e+00
-7.235032e+00
-7.387523e+00
-7.460169e+00
-7.552989e+00
0.000000e+00
-1.643562e-01
-3.424200e-01
-5.475706e-01
-7.651912e-01
-9.800213e-01
-1.201052e+00
-1.424231e+00
-1.646159e+00
-1.869191e+00
-2.092627e+00
-2.315402e+00
-2.538036e+00
-2.760468e+00
-2.982308e+00
-3.203537e+00
-3.424064e+00
-3.643631e+00
-3.861979e+00
-4.078749e+00
-4.293383e+00
-4.505089e+00
-4.712714e+00
-4.914540e+00
-5.108271e+00
-5.291300e+00
-5.460835e+00
-5.613289e+00
-5.742316e+00
-5.833909e+00
-5.866016e+00
-5.863878e+00
-5.951076e+00
0.000000e+00
-1.193958e-01
-2.484977e-01
-4.015027e-01
-5.689903e-01
-7.417684e-01
-9.223807e-01
-1.106153e+00
-1.290936e+00
-1.477389e+00
-1.664473e+00
-1.851497e+00
-2.038545e+00
-2.225328e+00
-2.411505e+00
-2.596890e+00
-2.781192e+00
-2.964004e+00
-3.144839e+00
-3.323035e+00
-3.497679e+00
-3.667534e+00
-3.830943e+00
-3.985750e+00
-4.129294e+00
-4.258462e+00
-4.369558e+00
-4.457866e+00
-4.516942e+00
-4.539150e+00
-4.529460e+00
-4.534359e+00
-4.611570e+00
0.000000e+00
-9.906611e-02
-2.002342e-01
-3.144544e-01
-4.381088e-01
-5.711486e-01
-7.106511e-01
-8.539727e-01
-1.000109e+00
-1.148029e+00
-1.296832e+00
-1.446084e+00
-1.595408e+00
-1.744415e+00
-1.892784e+00
-2.040162e+00
-2.186118e+00
-2.330128e+00
-2.471517e+00
-2.609403e+00
-2.742634e+00
-2.869730e+00
-2.988838e+00
-3.097718e+00
-3.193740e+00
-3.273896e+00
-3.334815e+00
-3.372994e+00
-3.385758e+00
-3.375181e+00
-3.361145e+00
-3.385770e+00
-3.462351e+00
0.000000e+00
-7.612324e-02
-1.539263e-01
-2.361643e-01
-3.258153e-01
-4.218925e-01
-5.231966e-01
-6.284101e-01
-7.363082e-01
-8.459358e-01
-9.565879e-01
-1.067723e+00
-1.178900e+00
-1.289737e+00
-1.399852e+00
-1.508826e+00
-1.616165e+00
-1.721255e+00
-1.823316e+00
-1.921360e+00
-2.014147e+00
-2.100161e+00
-2.177611e+00
-2.244454e+00
-2.298447e+00
-2.337259e+00
-2.358790e+00
-2.361958e+00
-2.348533e+00
-2.327219e+00
-2.321267e+00
-2.355091e+00
-2.431969e+00
0.000000e+00
-5.136430e-02
-1.035311e-01
-1.581930e-01
-2.165957e-01
-2.791103e-01
-3.451691e-01
-4.140306e-01
-4.849105e-01
-5.571010e-01
-6.300402e-01
-7.032764e-01
-7.764237e-01
-8.491279e-01
-9.210252e-01
-9.917031e-01
-1.060665e+00
-1.127290e+00
-1.190799e+00
-1.250225e+00
-1.304391e+00
-1.351923e+00
-1.391281e+00
-1.420836e+00
-1.439004e+00
-1.444499e+00
-1.436836e+00
-1.417313e+00
-1.390728e+00
-1.368276e+00
-1.368872e+00
-1.407402e+00
-1.481453e+00
0.000000e+00
-2.584550e-02
-5.210410e-02
-7.938995e-02
-1.083048e-01
-1.390599e-01
-1.715255e-01
-2.053523e-01
-2.401393e-01
-2.755029e-01
-3.111065e-01
-3.466582e-01
-3.818925e-01
-4.165443e-01
-4.503228e-01
-4.828845e-01
-5.138040e-01
-5.425449e-01
-5.684337e-01
-5.906421e-01
-6.081881e-01
-6.199676e-01
-6.248293e-01
-6.217051e-01
-6.098184e-01
-5.890187e-01
-5.603250e-01
-5.267630e-01
-4.945255e-01
-4.741491e-01
-4.793126e-01
-5.182663e-01
-5.858786e-01
0.000000e+00
-1.706978e-04
-2.776828e-04
-3.085520e-04
-2.417575e-04
-4.838943e-05
3.068154e-04
8.657518e-04
1.678241e-03
2.803988e-03
4.315326e-03
6.301078e-03
8.871652e-03
1.216571e-02
1.635945e-02
2.167923e-02
2.841719e-02
3.694907e-02
4.775158e-02
6.141178e-02
7.861517e-02
1.000944e-01
1.265216e-01
1.583331e-01
1.954799e-01
2.370841e-01
2.809853e-01
3.232037e-01
3.574667e-01
3.752206e-01
3.677989e-01
3.319680e-01
2.744042e-01
0.000000e+00
2.549900e-02
5.153362e-02
7.874388e-02
1.077754e-01
1.388966e-01
1.720473e-01
2.069601e-01
2.433317e-01
2.808953e-01
3.194560e-01
3.588949e-01
3.991592e-01
4.402491e-01
4.822078e-01
5.251184e-01
5.691023e-01
6.143221e-01
6.609894e-01
7.093698e-01
7.597695e-01
8.124753e-01
8.676277e-01
9.250247e-01
9.838744e-01
1.042510e+00
1.098101e+00
1.146456e+00
1.182085e+00
1.198891e+00
1.192272e+00
1.162560e+00
1.117443e+00
0.000000e+00
5.099985e-02
1.029095e-01
1.574512e-01
2.159167e-01
2.787318e-01
3.453926e-01
4.152348e-01
4.875646e-01
5.617838e-01
6.374632e-01
7.143114e-01
7.921335e-01
8.708063e-01
9.502491e-01
1.030402e+00
1.111206e+00
1.192594e+00
1.274475e+00
1.356741e+00
1.439264e+00
1.521833e+00
1.604028e+00
1.685037e+00
1.763456e+00
1.837119e+00
1.902999e+00
1.957269e+00
1.995658e+00
2.014321e+00
2.011522e+00
1.989833e+00
1.957477e+00
0.000000e+00
7.572311e-02
1.532051e-01
2.352426e-01
3.248616e-01
4.211189e-01
5.228687e-01
6.288601e-01
7.379463e-01
8.492684e-01
9.622411e-01
1.076463e+00
1.191656e+00
1.307617e+00
1.424179e+00
1.541167e+00
1.658370e+00
1.775507e+00
1.892198e+00
2.007957e+00
2.122198e+00
2.234170e+00
2.342845e+00
2.446789e+00
2.544083e+00
2.632310e+00
2.708617e+00
2.769886e+00
2.813137e+00
2.836283e+00
2.839411e+00
2.826324e+00
2.805581e+00
0.000000e+00
9.860338e-02
1.993671e-01
3.132786e-01
4.367689e-01
5.698167e-01
7.095284e-01
8.533102e-01
1.000220e+00
1.149302e+00
1.299756e+00
1.451261e+00
1.603564e+00
1.756410e+00
1.909618e+00
2.062968e+00
2.216147e+00
2.368725e+00
2.520105e+00
2.669496e+00
2.815862e+00
2.957833e+00
3.093611e+00
3.221005e+00
3.337567e+00
3.440788e+00
3.528233e+00
3.597687e+00
3.647409e+00
3.676660e+00
3.686636e+00
3.681710e+00
3.670668e+00
0.000000e+00
1.188789e-01
2.475128e-01
4.001428e-01
5.673510e-01
7.399547e-01
9.205103e-01
1.104360e+00
1.289392e+00
1.476322e+00
1.664175e+00
1.852333e+00
2.040967e+00
2.229873e+00
2.418784e+00
2.607565e+00
2.795916e+00
2.983328e+00
3.169131e+00
3.352407e+00
3.531740e+00
3.704958e+00
3.869154e+00
4.021059e+00
4.157571e+00
4.276154e+00
4.374956e+00
4.452796e+00
4.509193e+00
4.544617e+00
4.561068e+00
4.563082e+00
4.559349e+00
0.000000e+00
1.639766e-01
3.416970e-01
5.465622e-01
7.639430e-01
9.785606e-01
1.199411e+00
1.422433e+00
1.644228e+00
1.867176e+00
2.090598e+00
2.313438e+00
2.536240e+00
2.758967e+00
2.981232e+00
3.202994e+00
3.424080e+00
3.644009e+00
3.862202e+00
4.077880e+00
4.289452e+00
4.493883e+00
4.686792e+00
4.863401e+00
5.019662e+00
5.152902e+00
5.261842e+00
5.346365e+00
5.407349e+00
5.446666e+00
5.467340e+00
5.474074e+00
5.474815e+00
0.000000e+00
2.387699e-01
4.925714e-01
7.521166e-01
1.018557e+00
1.274892e+00
1.535575e+00
1.797288e+00
2.055775e+00
2.314950e+00
2.574292e+00
2.832311e+00
3.089869e+00
3.347018e+00
3.603200e+00
3.858422e+00
4.112606e+00
4.365301e+00
4.616022e+00
4.864137e+00
5.107905e+00
5.343408e+00
5.564706e+00
5.765357e+00
5.940178e+00
6.086134e+00
6.202267e+00
6.289324e+00
6.349568e+00
6.386729e+00
6.405831e+00
6.412795e+00
6.414486e+00
0.000000e+00
3.946648e-01
7.049701e-01
1.010815e+00
1.319712e+00
1.615005e+00
1.914423e+00
2.213938e+00
2.509544e+00
2.806019e+00
3.102576e+00
3.397631e+00
3.692238e+00
3.986369e+00
4.279379e+00
4.571306e+00
4.862077e+00
5.151226e+00
5.438246e+00
5.722294e+00
6.000969e+00
6.269134e+00
6.519301e+00
6.743569e+00
6.935674e+00
7.091919e+00
7.211066e+00
7.294066e+00
7.344136e+00
7.367100e+00
7.371598e+00
7.368404e+00
7.366534e+00
0.000000e+00
-2.401747e-01
-4.614793e-01
-7.328801e-01
-1.039600e+00
-1.381882e+00
-1.763304e+00
-2.180431e+00
-2.634035e+00
-3.125353e+00
-3.653722e+00
-4.219379e+00
-4.822813e+00
-5.463941e+00
-6.142783e+00
-6.859486e+00
-7.614048e+00
-8.406429e+00
-9.236609e+00
-1.010451e+01
-1.101002e+01
-1.195304e+01
-1.293354e+01
-1.395169e+01
-1.500833e+01
-1.610566e+01
-1.724798e+01
-1.844242e+01
-1.969971e+01
-2.103646e+01
-2.249555e+01
-2.421867e+01
-2.658911e+01
0.000000e+00
-1.490307e-01
-3.810804e-01
-6.481921e-01
-9.561433e-01
-1.299174e+00
-1.679500e+00
-2.097083e+00
-2.550997e+00
-3.042051e+00
-3.570583e+00
-4.136459e+00
-4.739940e+00
-5.381210e+00
-6.060257e+00
-6.777133e+00
-7.531890e+00
-8.324506e+00
-9.154943e+00
-1.002314e+01
-1.092902e+01
-1.187250e+01
-1.285362e+01
-1.387268e+01
-1.493052e+01
-1.602914e+01
-1.717249e+01
-1.836748e+01
-1.962532e+01
-2.096568e+01
-2.243298e+01
-2.412796e+01
-2.628041e+01
0.000000e+00
-1.141197e-01
-3.211580e-01
-5.832381e-01
-8.884597e-01
-1.229840e+00
-1.608866e+00
-2.025899e+00
-2.479527e+00
-2.970325e+00
-3.498815e+00
-4.064765e+00
-4.668342e+00
-5.309784e+00
-5.989080e+00
-6.706262e+00
-7.461397e+00
-8.254488e+00
-9.085515e+00
-9.954462e+00
-1.086129e+01
-1.180599e+01
-1.278872e+01
-1.380989e+01
-1.487042e+01
-1.597226e+01
-1.711937e+01
-1.831918e+01
-1.958529e+01
-2.094204e+01
-2.241769e+01
-2.401259e+01
-2.570345e+01
0.000000e+00
-1.087094e-01
-2.943043e-01
-5.429051e-01
-8.403381e-01
-1.176902e+00
-1.553035e+00
-1.968061e+00
-2.420504e+00
-2.910653e+00
-3.438768e+00
-4.004607e+00
-4.608281e+00
-5.249963e+00
-5.929654e+00
-6.647393e+00
-7.403259e+00
-8.197288e+00
-9.029509e+00
-9.899957e+00
-1.080867e+01
-1.175572e+01
-1.274134e+01
-1.376598e+01
-1.483059e+01
-1.593712e+01
-1.708957e+01
-1.829570e+01
-1.956964e+01
-2.093285e+01
-2.238325e+01
-2.385246e+01
-2.521025e+01
0.000000e+00
-1.171076e-01
-2.917393e-01
-5.270200e-01
-8.124531e-01
-1.141918e+00
-1.513093e+00
-1.924514e+00
-2.374833e+00
-2.863736e+00
-3.391086e+00
-3.956649e+00
-4.560412e+00
-5.202432e+00
-5.882723e+00
-6.601333e+00
-7.358345e+00
-8.153840e+00
-8.987904e+00
-9.860626e+00
-1.077210e+01
-1.172246e+01
-1.271190e+01
-1.374083e+01
-1.481006e+01
-1.592134e+01
-1.707819e+01
-1.828720e+01
-1.955944e+01
-2.090571e+01
-2.230102e+01
-2.364932e+01
-2.484851e+01
0.000000e+00
-1.210436e-01
-2.938599e-01
-5.202803e-01
-7.970936e-01
-1.119715e+00
-1.485848e+00
-1.893561e+00
-2.341498e+00
-2.828961e+00
-3.355483e+00
-3.920753e+00
-4.524648e+00
-5.167133e+00
-5.848214e+00
-6.567949e+00
-7.326441e+00
-8.123816e+00
-8.960210e+00
-9.835756e+00
-1.075057e+01
-1.170475e+01
-1.269838e+01
-1.373165e+01
-1.480502e+01
-1.591957e+01
-1.707753e+01
-1.828275e+01
-1.954044e+01
-2.085014e+01
-2.217167e+01
-2.342219e+01
-2.451780e+01
0.000000e+00
-1.226162e-01
-2.948155e-01
-5.172141e-01
-7.885135e-01
-1.106343e+00
-1.468499e+00
-1.873236e+00
-2.319195e+00
-2.805432e+00
-3.331309e+00
-3.896423e+00
-4.500555e+00
-5.143619e+00
-5.825616e+00
-6.546619e+00
-7.306761e+00
-8.106211e+00
-8.945147e+00
-9.823723e+00
-1.074203e+01
-1.170004e+01
-1.269763e+01
-1.373458e+01
-1.481072e+01
-1.592604e+01
-1.708078e+01
-1.827519e+01
-1.950822e+01
-2.077021e+01
-2.201949e+01
-2.318848e+01
-2.420843e+01
0.000000e+00
-1.233117e-01
-2.951584e-01
-5.157477e-01
-7.843225e-01
-1.099369e+00
-1.459167e+00
-1.862108e+00
-2.306858e+00
-2.792399e+00
-3.318002e+00
-3.883194e+00
-4.487713e+00
-5.131449e+00
-5.814407e+00
-6.536686e+00
-7.298454e+00
-8.099921e+00
-8.941295e+00
-9.822729e+00
-1.074424e+01
-1.170564e+01
-1.270645e+01
-1.374592e+01
-1.482298e+01
-1.593622e+01
-1.708365e+01
-1.826199e+01
-1.946487e+01
-2.067720e+01
-2.186156e+01
-2.296379e+01
-2.392818e+01
0.000000e+00
-1.235624e-01
-2.953557e-01
-5.154919e-01
-7.833294e-01
-1.097601e+00
-1.456754e+00
-1.859261e+00
-2.303804e+00
-2.789349e+00
-3.315150e+00
-3.880718e+00
-4.485785e+00
-5.130247e+00
-5.814129e+00
-6.537557e+00
-7.300739e+00
-8.103920e+00
-8.947333e+00
-9.831117e+00
-1.075520e+01
-1.171919e+01
-1.272218e+01
-1.376275e+01
-1.483880e+01
-1.594743e+01
-1.708450e+01
-1.824381e+01
-1.941541e+01
-2.058174e+01
-2.171098e+01
-2.276073e+01
-2.368708e+01
0.000000e+00
-1.234914e-01
-2.955316e-01
-5.163546e-01
-7.852224e-01
-1.100633e+00
-1.460877e+00
-1.864355e+00
-2.309745e+00
-2.796041e+00
-3.322533e+00
-3.888773e+00
-4.494527e+00
-5.139722e+00
-5.824410e+00
-6.548750e+00
-7.312982e+00
-8.117382e+00
-8.962203e+00
-9.847577e+00
-1.077336e+01
-1.173892e+01
-1.274294e+01
-1.378325e+01
-1.485666e+01
-1.595882e+01
-1.708376e+01
-1.822322e+01
-1.936537e+01
-2.049253e+01
-2.157841e+01
-2.259043e+01
-2.349507e+01
0.000000e+00
-1.229561e-01
-2.955231e-01
-5.183741e-01
-7.902458e-01
-1.108788e+00
-1.471815e+00
-1.877601e+00
-2.324807e+00
-2.812515e+00
-3.340122e+00
-3.907270e+00
-4.513792e+00
-5.159669e+00
-5.844986e+00
-6.569930e+00
-7.334759e+00
-8.139770e+00
-8.985232e+00
-9.871290e+00
-1.079776e+01
-1.176385e+01
-1.276781e+01
-1.380671e+01
-1.487631e+01
-1.597093e+01
-1.708321e+01
-1.820367e+01
-1.931995e+01
-2.041576e+01
-2.146990e+01
-2.245784e+01
-2.335448e+01
0.000000e+00
-1.215002e-01
-2.948189e-01
-5.218836e-01
-7.995215e-01
-1.123170e+00
-1.490557e+00
-1.899777e+00
-2.349503e+00
-2.839073e+00
-3.368070e+00
-3.936240e+00
-4.543529e+00
-5.189983e+00
-5.875719e+00
-6.600937e+00
-7.365905e+00
-8.170912e+00
-9.016236e+00
-9.902060e+00
-1.082824e+01
-1.179389e+01
-1.279687e+01
-1.383352e+01
-1.489859e+01
-1.598531e+01
-1.708533e+01
-1.818866e+01
-1.928330e+01
-2.035496e+01
-2.138705e+01
-2.236170e+01
-2.326096e+01
0.000000e+00
-1.176086e-01
-2.928181e-01
-5.289041e-01
-8.153755e-01
-1.146125e+00
-1.518872e+00
-1.932176e+00
-2.384720e+00
-2.876247e+00
-3.406675e+00
-3.975831e+00
-4.583779e+00
-5.230665e+00
-5.916614e+00
-6.641822e+00
-7.406552e+00
-8.211061e+00
-9.055604e+00
-9.940427e+00
-1.086549e+01
-1.182988e+01
-1.283111e+01
-1.386484e+01
-1.492494e+01
-1.600380e+01
-1.709252e+01
-1.818101e+01
-1.925804e+01
-2.031142e+01
-2.132854e+01
-2.229739e+01
-2.320691e+01
0.000000e+00
-1.091431e-01
-2.953513e-01
-5.448734e-01
-8.435062e-01
-1.181534e+00
-1.559459e+00
-1.976627e+00
-2.431593e+00
-2.924720e+00
-3.456330e+00
-4.026239e+00
-4.634638e+00
-5.281787e+00
-5.967783e+00
-6.692800e+00
-7.457085e+00
-8.260839e+00
-9.104267e+00
-9.987650e+00
-1.091104e+01
-1.187349e+01
-1.287219e+01
-1.390224e+01
-1.495686e+01
-1.602795e+01
-1.710641e+01
-1.818233e+01
-1.924525e+01
-2.028474e+01
-2.129153e+01
-2.225885e+01
-2.318302e+01
0.000000e+00
-1.144174e-01
-3.221020e-01
-5.851582e-01
-8.916584e-01
-1.234589e+00
-1.615502e+00
-2.034796e+00
-2.491086e+00
-2.985031e+00
-3.517220e+00
-4.087475e+00
-4.696046e+00
-5.343254e+00
-6.029168e+00
-6.753927e+00
-7.517743e+00
-8.320757e+00
-9.163116e+00
-1.004505e+01
-1.096655e+01
-1.192646e+01
-1.292168e+01
-1.394696e+01
-1.499526e+01
-1.605841e+01
-1.712740e+01
-1.819261e+01
-1.924423e+01
-2.027308e+01
-2.127228e+01
-2.223940e+01
-2.317852e+01
0.000000e+00
-1.492564e-01
-3.819733e-01
-6.500735e-01
-9.593211e-01
-1.303929e+00
-1.686165e+00
-2.106033e+00
-2.562644e+00
-3.056883e+00
-3.589159e+00
-4.159391e+00
-4.767919e+00
-5.415007e+00
-6.100710e+00
-6.825171e+00
-7.588550e+00
-8.390940e+00
-9.232453e+00
-1.011318e+01
-1.103277e+01
-1.198961e+01
-1.298024e+01
-1.399931e+01
-1.504002e+01
-1.609452e+01
-1.715420e+01
-1.820985e+01
-1.925214e+01
-2.027272e+01
-2.126604e+01
-2.223235e+01
-2.318177e+01
0.000000e+00
-2.404553e-01
-4.624025e-01
-7.347909e-01
-1.042797e+00
-1.386658e+00
-1.769990e+00
-2.189393e+00
-2.645685e+00
-3.140175e+00
-3.672260e+00
-4.242232e+00
-4.850658e+00
-5.497524e+00
-6.182912e+00
-6.907050e+00
-7.670012e+00
-8.471835e+00
-9.312614e+00
-1.019223e+01
-1.110975e+01
-1.206282e+01
-1.304754e+01