TITLE = "Solution"
VARIABLES = x, y, u, v, psiu, psiv, t, stress
ZONE T="structure" N=561 E=512 F=FEBLOCK ET=QUADRILATERAL VARLOCATION=([7,8]=cellcentered)
0.000000e+00
6.250000e+00
1.250000e+01
1.875000e+01
2.500000e+01
3.125000e+01
3.750000e+01
4.375000e+01
5.000000e+01
5.625000e+01
6.250000e+01
6.875000e+01
7.500000e+01
8.125000e+01
8.750000e+01
9.375000e+01
1.000000e+02
1.062500e+02
1.125000e+02
1.187500e+02
1.250000e+02
1.312500e+02
1.375000e+02
1.437500e+02
1.500000e+02
1.562500e+02
1.625000e+02
1.687500e+02
1.750000e+02
1.812500e+02
1.875000e+02
1.937500e+02
2.000000e+02
0.000000e+00
6.250000e+00
1.250000e+01
1.875000e+01
2.500000e+01
3.125000e+01
3.750000e+01
4.375000e+01
5.000000e+01
5.625000e+01
6.250000e+01
6.875000e+01
7.500000e+01
8.125000e+01
8.750000e+01
9.375000e+01
1.000000e+02
1.062500e+02
1.125000e+02
1.187500e+02
1.250000e+02
1.312500e+02
1.375000e+02
1.437500e+02
1.500000e+02
1.562500e+02
1.625000e+02
1.687500e+02
1.750000e+02
1.812500e+02
1.875000e+02
1.937500e+02
2.000000e+02
0.000000e+00
6.250000e+00
1.250000e+01
1.875000e+01
2.500000e+01
3.125000e+01
3.750000e+01
4.375000e+01
5.000000e+01
5.625000e+01
6.250000e+01
6.875000e+01
7.500000e+01
8.125000e+01
8.750000e+01
9.375000e+01
1.000000e+02
1.062500e+02
1.125000e+02
1.187500e+02
1.250000e+02
1.312500e+02
1.375000e+02
1.437500e+02
1.500000e+02
1.562500e+02
1.625000e+02
1.687500e+02
1.750000e+02
1.812500e+02
1.875000e+02
1.937500e+02
2.000000e+02
0.000000e+00
6.250000e+00
1.250000e+01
1.875000e+01
2.500000e+01
3.125000e+01
3.750000e+01
4.375000e+01
5.000000e+01
5.625000e+01
6.250000e+01
6.875000e+01
7.500000e+01
8.125000e+01
8.750000e+01
9.375000e+01
1.000000e+02
1.062500e+02
1.125000e+02
1.187500e+02
1.250000e+02
1.312500e+02
1.375000e+02
1.437500e+02
1.500000e+02
1.562500e+02
1.625000e+02
1.687500e+02
1.750000e+02
1.812500e+02
1.875000e+02
1.937500e+02
2.000000e+02
0.000000e+00
6.250000e+00
1.250000e+01
1.875000e+01
2.500000e+01
3.125000e+01
3.750000e+01
4.375000e+01
5.000000e+01
5.625000e+01
6.250000e+01
6.875000e+01
7.500000e+01
8.125000e+01
8.750000e+01
9.375000e+01
1.000000e+02
1.062500e+02
1.125000e+02
1.187500e+02
1.250000e+02
1.312500e+02
1.375000e+02
1.437500e+02
1.500000e+02
1.562500e+02
1.625000e+02
1.687500e+02
1.750000e+02
1.812500e+02
1.875000e+02
1.937500e+02
2.000000e+02
0.000000e+00
6.250000e+00
1.250000e+01
1.875000e+01
2.500000e+01
3.125000e+01
3.750000e+01
4.375000e+01
5.000000e+01
5.625000e+01
6.250000e+01
6.875000e+01
7.500000e+01
8.125000e+01
8.750000e+01
9.375000e+01
1.000000e+02
1.062500e+02
1.125000e+02
1.187500e+02
1.250000e+02
1.312500e+02
1.375000e+02
1.437500e+02
1.500000e+02
1.562500e+02
1.625000e+02
1.687500e+02
1.750000e+02
1.812500e+02
1.875000e+02
1.937500e+02
2.000000e+02
0.000000e+00
6.250000e+00
1.250000e+01
1.875000e+01
2.500000e+01
3.125000e+01
3.750000e+01
4.375000e+01
5.000000e+01
5.625000e+01
6.250000e+01
6.875000e+01
7.500000e+01
8.125000e+01
8.750000e+01
9.375000e+01
1.000000e+02
1.062500e+02
1.125000e+02
1.187500e+02
1.250000e+02
1.312500e+02
1.375000e+02
1.437500e+02
1.500000e+02
1.562500e+02
1.625000e+02
1.687500e+02
1.750000e+02
1.812500e+02
1.875000e+02
1.937500e+02
2.000000e+02
0.000000e+00
6.250000e+00
1.250000e+01
1.875000e+01
2.500000e+01
3.125000e+01
3.750000e+01
4.375000e+01
5.000000e+01
5.625000e+01
6.250000e+01
6.875000e+01
7.500000e+01
8.125000e+01
8.750000e+01
9.375000e+01
1.000000e+02
1.062500e+02
1.125000e+02
1.187500e+02
1.250000e+02
1.312500e+02
1.375000e+02
1.437500e+02
1.500000e+02
1.562500e+02
1.625000e+02
1.687500e+02
1.750000e+02
1.812500e+02
1.875000e+02
1.937500e+02
2.000000e+02
0.000000e+00
6.250000e+00
1.250000e+01
1.875000e+01
2.500000e+01
3.125000e+01
3.750000e+01
4.375000e+01
5.000000e+01
5.625000e+01
6.250000e+01
6.875000e+01
7.500000e+01
8.125000e+01
8.750000e+01
9.375000e+01
1.000000e+02
1.062500e+02
1.125000e+02
1.187500e+02
1.250000e+02
1.312500e+02
1.375000e+02
1.437500e+02
1.500000e+02
1.562500e+02
1.625000e+02
1.687500e+02
1.750000e+02
1.812500e+02
1.875000e+02
1.937500e+02
2.000000e+02
0.000000e+00
6.250000e+00
1.250000e+01
1.875000e+01
2.500000e+01
3.125000e+01
3.750000e+01
4.375000e+01
5.000000e+01
5.625000e+01
6.250000e+01
6.875000e+01
7.500000e+01
8.125000e+01
8.750000e+01
9.375000e+01
1.000000e+02
1.062500e+02
1.125000e+02
1.187500e+02
1.250000e+02
1.312500e+02
1.375000e+02
1.437500e+02
1.500000e+02
1.562500e+02
1.625000e+02
1.687500e+02
1.750000e+02
1.812500e+02
1.875000e+02
1.937500e+02
2.000000e+02
0.000000e+00
6.250000e+00
1.250000e+01
1.875000e+01
2.500000e+01
3.125000e+01
3.750000e+01
4.375000e+01
5.000000e+01
5.625000e+01
6.250000e+01
6.875000e+01
7.500000e+01
8.125000e+01
8.750000e+01
9.375000e+01
1.000000e+02
1.062500e+02
1.125000e+02
1.187500e+02
1.250000e+02
1.312500e+02
1.375000e+02
1.437500e+02
1.500000e+02
1.562500e+02
1.625000e+02
1.687500e+02
1.750000e+02
1.812500e+02
1.875000e+02
1.937500e+02
2.000000e+02
0.000000e+00
6.250000e+00
1.250000e+01
1.875000e+01
2.500000e+01
3.125000e+01
3.750000e+01
4.375000e+01
5.000000e+01
5.625000e+01
6.250000e+01
6.875000e+01
7.500000e+01
8.125000e+01
8.750000e+01
9.375000e+01
1.000000e+02
1.062500e+02
1.125000e+02
1.187500e+02
1.250000e+02
1.312500e+02
1.375000e+02
1.437500e+02
1.500000e+02
1.562500e+02
1.625000e+02
1.687500e+02
1.750000e+02
1.812500e+02
1.875000e+02
1.937500e+02
2.000000e+02
0.000000e+00
6.250000e+00
1.250000e+01
1.875000e+01
2.500000e+01
3.125000e+01
3.750000e+01
4.375000e+01
5.000000e+01
5.625000e+01
6.250000e+01
6.875000e+01
7.500000e+01
8.125000e+01
8.750000e+01
9.375000e+01
1.000000e+02
1.062500e+02
1.125000e+02
1.187500e+02
1.250000e+02
1.312500e+02
1.375000e+02
1.437500e+02
1.500000e+02
1.562500e+02
1.625000e+02
1.687500e+02
1.750000e+02
1.812500e+02
1.875000e+02
1.937500e+02
2.000000e+02
0.000000e+00
6.250000e+00
1.250000e+01
1.875000e+01
2.500000e+01
3.125000e+01
3.750000e+01
4.375000e+01
5.000000e+01
5.625000e+01
6.250000e+01
6.875000e+01
7.500000e+01
8.125000e+01
8.750000e+01
9.375000e+01
1.000000e+02
1.062500e+02
1.125000e+02
1.187500e+02
1.250000e+02
1.312500e+02
1.375000e+02
1.437500e+02
1.500000e+02
1.562500e+02
1.625000e+02
1.687500e+02
1.750000e+02
1.812500e+02
1.875000e+02
1.937500e+02
2.000000e+02
0.000000e+00
6.250000e+00
1.250000e+01
1.875000e+01
2.500000e+01
3.125000e+01
3.750000e+01
4.375000e+01
5.000000e+01
5.625000e+01
6.250000e+01
6.875000e+01
7.500000e+01
8.125000e+01
8.750000e+01
9.375000e+01
1.000000e+02
1.062500e+02
1.125000e+02
1.187500e+02
1.250000e+02
1.312500e+02
1.375000e+02
1.437500e+02
1.500000e+02
1.562500e+02
1.625000e+02
1.687500e+02
1.750000e+02
1.812500e+02
1.875000e+02
1.937500e+02
2.000000e+02
0.000000e+00
6.250000e+00
1.250000e+01
1.875000e+01
2.500000e+01
3.125000e+01
3.750000e+01
4.375000e+01
5.000000e+01
5.625000e+01
6.250000e+01
6.875000e+01
7.500000e+01
8.125000e+01
8.750000e+01
9.375000e+01
1.000000e+02
1.062500e+02
1.125000e+02
1.187500e+02
1.250000e+02
1.312500e+02
1.375000e+02
1.437500e+02
1.500000e+02
1.562500e+02
1.625000e+02
1.687500e+02
1.750000e+02
1.812500e+02
1.875000e+02
1.937500e+02
2.000000e+02
0.000000e+00
6.250000e+00
1.250000e+01
1.875000e+01
2.500000e+01
3.125000e+01
3.750000e+01
4.375000e+01
5.000000e+01
5.625000e+01
6.250000e+01
6.875000e+01
7.500000e+01
8.125000e+01
8.750000e+01
9.375000e+01
1.000000e+02
1.062500e+02
1.125000e+02
1.187500e+02
1.250000e+02
1.312500e+02
1.375000e+02
1.437500e+02
1.500000e+02
1.562500e+02
1.625000e+02
1.687500e+02
1.750000e+02
1.812500e+02
1.875000e+02
1.937500e+02
2.000000e+02
0.000000e+00
0.000000e+00
0.000000e+00
0.000000e+00
0.000000e+00
0.000000e+00
0.000000e+00
0.000000e+00
0.000000e+00
0.000000e+00
0.000000e+00
0.000000e+00
0.000000e+00
0.000000e+00
0.000000e+00
0.000000e+00
0.000000e+00
0.000000e+00
0.000000e+00
0.000000e+00
0.000000e+00
0.000000e+00
0.000000e+00
0.000000e+00
0.000000e+00
0.000000e+00
0.000000e+00
0.000000e+00
0.000000e+00
0.000000e+00
0.000000e+00
0.000000e+00
0.000000e+00
6.250000e+00
6.250000e+00
6.250000e+00
6.250000e+00
6.250000e+00
6.250000e+00
6.250000e+00
6.250000e+00
6.250000e+00
6.250000e+00
6.250000e+00
6.250000e+00
6.250000e+00
6.250000e+00
6.250000e+00
6.250000e+00
6.250000e+00
6.250000e+00
6.250000e+00
6.250000e+00
6.250000e+00
6.250000e+00
6.250000e+00
6.250000e+00
6.250000e+00
6.250000e+00
6.250000e+00
6.250000e+00
6.250000e+00
6.250000e+00
6.250000e+00
6.250000e+00
6.250000e+00
1.250000e+01
1.250000e+01
1.250000e+01
1.250000e+01
1.250000e+01
1.250000e+01
1.250000e+01
1.250000e+01
1.250000e+01
1.250000e+01
1.250000e+01
1.250000e+01
1.250000e+01
1.250000e+01
1.250000e+01
1.250000e+01
1.250000e+01
1.250000e+01
1.250000e+01
1.250000e+01
1.250000e+01
1.250000e+01
1.250000e+01
1.250000e+01
1.250000e+01
1.250000e+01
1.250000e+01
1.250000e+01
1.250000e+01
1.250000e+01
1.250000e+01
1.250000e+01
1.250000e+01
1.875000e+01
1.875000e+01
1.875000e+01
1.875000e+01
1.875000e+01
1.875000e+01
1.875000e+01
1.875000e+01
1.875000e+01
1.875000e+01
1.875000e+01
1.875000e+01
1.875000e+01
1.875000e+01
1.875000e+01
1.875000e+01
1.875000e+01
1.875000e+01
1.875000e+01
1.875000e+01
1.875000e+01
1.875000e+01
1.875000e+01
1.875000e+01
1.875000e+01
1.875000e+01
1.875000e+01
1.875000e+01
1.875000e+01
1.875000e+01
1.875000e+01
1.875000e+01
1.875000e+01
2.500000e+01
2.500000e+01
2.500000e+01
2.500000e+01
2.500000e+01
2.500000e+01
2.500000e+01
2.500000e+01
2.500000e+01
2.500000e+01
2.500000e+01
2.500000e+01
2.500000e+01
2.500000e+01
2.500000e+01
2.500000e+01
2.500000e+01
2.500000e+01
2.500000e+01
2.500000e+01
2.500000e+01
2.500000e+01
2.500000e+01
2.500000e+01
2.500000e+01
2.500000e+01
2.500000e+01
2.500000e+01
2.500000e+01
2.500000e+01
2.500000e+01
2.500000e+01
2.500000e+01
3.125000e+01
3.125000e+01
3.125000e+01
3.125000e+01
3.125000e+01
3.125000e+01
3.125000e+01
3.125000e+01
3.125000e+01
3.125000e+01
3.125000e+01
3.125000e+01
3.125000e+01
3.125000e+01
3.125000e+01
3.125000e+01
3.125000e+01
3.125000e+01
3.125000e+01
3.125000e+01
3.125000e+01
3.125000e+01
3.125000e+01
3.125000e+01
3.125000e+01
3.125000e+01
3.125000e+01
3.125000e+01
3.125000e+01
3.125000e+01
3.125000e+01
3.125000e+01
3.125000e+01
3.750000e+01
3.750000e+01
3.750000e+01
3.750000e+01
3.750000e+01
3.750000e+01
3.750000e+01
3.750000e+01
3.750000e+01
3.750000e+01
3.750000e+01
3.750000e+01
3.750000e+01
3.750000e+01
3.750000e+01
3.750000e+01
3.750000e+01
3.750000e+01
3.750000e+01
3.750000e+01
3.750000e+01
3.750000e+01
3.750000e+01
3.750000e+01
3.750000e+01
3.750000e+01
3.750000e+01
3.750000e+01
3.750000e+01
3.750000e+01
3.750000e+01
3.750000e+01
3.750000e+01
4.375000e+01
4.375000e+01
4.375000e+01
4.375000e+01
4.375000e+01
4.375000e+01
4.375000e+01
4.375000e+01
4.375000e+01
4.375000e+01
4.375000e+01
4.375000e+01
4.375000e+01
4.375000e+01
4.375000e+01
4.375000e+01
4.375000e+01
4.375000e+01
4.375000e+01
4.375000e+01
4.375000e+01
4.375000e+01
4.375000e+01
4.375000e+01
4.375000e+01
4.375000e+01
4.375000e+01
4.375000e+01
4.375000e+01
4.375000e+01
4.375000e+01
4.375000e+01
4.375000e+01
5.000000e+01
5.000000e+01
5.000000e+01
5.000000e+01
5.000000e+01
5.000000e+01
5.000000e+01
5.000000e+01
5.000000e+01
5.000000e+01
5.000000e+01
5.000000e+01
5.000000e+01
5.000000e+01
5.000000e+01
5.000000e+01
5.000000e+01
5.000000e+01
5.000000e+01
5.000000e+01
5.000000e+01
5.000000e+01
5.000000e+01
5.000000e+01
5.000000e+01
5.000000e+01
5.000000e+01
5.000000e+01
5.000000e+01
5.000000e+01
5.000000e+01
5.000000e+01
5.000000e+01
5.625000e+01
5.625000e+01
5.625000e+01
5.625000e+01
5.625000e+01
5.625000e+01
5.625000e+01
5.625000e+01
5.625000e+01
5.625000e+01
5.625000e+01
5.625000e+01
5.625000e+01
5.625000e+01
5.625000e+01
5.625000e+01
5.625000e+01
5.625000e+01
5.625000e+01
5.625000e+01
5.625000e+01
5.625000e+01
5.625000e+01
5.625000e+01
5.625000e+01
5.625000e+01
5.625000e+01
5.625000e+01
5.625000e+01
5.625000e+01
5.625000e+01
5.625000e+01
5.625000e+01
6.250000e+01
6.250000e+01
6.250000e+01
6.250000e+01
6.250000e+01
6.250000e+01
6.250000e+01
6.250000e+01
6.250000e+01
6.250000e+01
6.250000e+01
6.250000e+01
6.250000e+01
6.250000e+01
6.250000e+01
6.250000e+01
6.250000e+01
6.250000e+01
6.250000e+01
6.250000e+01
6.250000e+01
6.250000e+01
6.250000e+01
6.250000e+01
6.250000e+01
6.250000e+01
6.250000e+01
6.250000e+01
6.250000e+01
6.250000e+01
6.250000e+01
6.250000e+01
6.250000e+01
6.875000e+01
6.875000e+01
6.875000e+01
6.875000e+01
6.875000e+01
6.875000e+01
6.875000e+01
6.875000e+01
6.875000e+01
6.875000e+01
6.875000e+01
6.875000e+01
6.875000e+01
6.875000e+01
6.875000e+01
6.875000e+01
6.875000e+01
6.875000e+01
6.875000e+01
6.875000e+01
6.875000e+01
6.875000e+01
6.875000e+01
6.875000e+01
6.875000e+01
6.875000e+01
6.875000e+01
6.875000e+01
6.875000e+01
6.875000e+01
6.875000e+01
6.875000e+01
6.875000e+01
7.500000e+01
7.500000e+01
7.500000e+01
7.500000e+01
7.500000e+01
7.500000e+01
7.500000e+01
7.500000e+01
7.500000e+01
7.500000e+01
7.500000e+01
7.500000e+01
7.500000e+01
7.500000e+01
7.500000e+01
7.500000e+01
7.500000e+01
7.500000e+01
7.500000e+01
7.500000e+01
7.500000e+01
7.500000e+01
7.500000e+01
7.500000e+01
7.500000e+01
7.500000e+01
7.500000e+01
7.500000e+01
7.500000e+01
7.500000e+01
7.500000e+01
7.500000e+01
7.500000e+01
8.125000e+01
8.125000e+01
8.125000e+01
8.125000e+01
8.125000e+01
8.125000e+01
8.125000e+01
8.125000e+01
8.125000e+01
8.125000e+01
8.125000e+01
8.125000e+01
8.125000e+01
8.125000e+01
8.125000e+01
8.125000e+01
8.125000e+01
8.125000e+01
8.125000e+01
8.125000e+01
8.125000e+01
8.125000e+01
8.125000e+01
8.125000e+01
8.125000e+01
8.125000e+01
8.125000e+01
8.125000e+01
8.125000e+01
8.125000e+01
8.125000e+01
8.125000e+01
8.125000e+01
8.750000e+01
8.750000e+01
8.750000e+01
8.750000e+01
8.750000e+01
8.750000e+01
8.750000e+01
8.750000e+01
8.750000e+01
8.750000e+01
8.750000e+01
8.750000e+01
8.750000e+01
8.750000e+01
8.750000e+01
8.750000e+01
8.750000e+01
8.750000e+01
8.750000e+01
8.750000e+01
8.750000e+01
8.750000e+01
8.750000e+01
8.750000e+01
8.750000e+01
8.750000e+01
8.750000e+01
8.750000e+01
8.750000e+01
8.750000e+01
8.750000e+01
8.750000e+01
8.750000e+01
9.375000e+01
9.375000e+01
9.375000e+01
9.375000e+01
9.375000e+01
9.375000e+01
9.375000e+01
9.375000e+01
9.375000e+01
9.375000e+01
9.375000e+01
9.375000e+01
9.375000e+01
9.375000e+01
9.375000e+01
9.375000e+01
9.375000e+01
9.375000e+01
9.375000e+01
9.375000e+01
9.375000e+01
9.375000e+01
9.375000e+01
9.375000e+01
9.375000e+01
9.375000e+01
9.375000e+01
9.375000e+01
9.375000e+01
9.375000e+01
9.375000e+01
9.375000e+01
9.375000e+01
1.000000e+02
1.000000e+02
1.000000e+02
1.000000e+02
1.000000e+02
1.000000e+02
1.000000e+02
1.000000e+02
1.000000e+02
1.000000e+02
1.000000e+02
1.000000e+02
1.000000e+02
1.000000e+02
1.000000e+02
1.000000e+02
1.000000e+02
1.000000e+02
1.000000e+02
1.000000e+02
1.000000e+02
1.000000e+02
1.000000e+02
1.000000e+02
1.000000e+02
1.000000e+02
1.000000e+02
1.000000e+02
1.000000e+02
1.000000e+02
1.000000e+02
1.000000e+02
1.000000e+02
0.000000e+00
-4.317596e-01
-7.614104e-01
-1.086207e+00
-1.399334e+00
-1.698385e+00
-2.005153e+00
-2.304101e+00
-2.602588e+00
-2.904438e+00
-3.202411e+00
-3.501953e+00
-3.802244e+00
-4.100451e+00
-4.399956e+00
-4.699274e+00
-4.997769e+00
-5.297457e+00
-5.596827e+00
-5.896063e+00
-6.196923e+00
-6.497873e+00
-6.799080e+00
-7.102971e+00
-7.407845e+00
-7.714581e+00
-8.029945e+00
-8.350637e+00
-8.678318e+00
-9.050899e+00
-9.515833e+00
-9.934709e+00
-1.014169e+01
0.000000e+00
-2.335272e-01
-4.835899e-01
-7.451636e-01
-1.010782e+00
-1.266828e+00
-1.533791e+00
-1.795651e+00
-2.057050e+00
-2.321949e+00
-2.583252e+00
-2.845814e+00
-3.109163e+00
-3.370563e+00
-3.633041e+00
-3.895315e+00
-4.156663e+00
-4.418825e+00
-4.680382e+00
-4.941301e+00
-5.203040e+00
-5.464128e+00
-5.724479e+00
-5.986066e+00
-6.246829e+00
-6.506396e+00
-6.768894e+00
-7.028595e+00
-7.283584e+00
-7.547613e+00
-7.788637e+00
-7.885146e+00
-7.990616e+00
0.000000e+00
-1.290443e-01
-2.787987e-01
-4.712010e-01
-6.807868e-01
-8.896077e-01
-1.113282e+00
-1.335245e+00
-1.558295e+00
-1.784880e+00
-2.009206e+00
-2.234938e+00
-2.461611e+00
-2.687119e+00
-2.913609e+00
-3.140056e+00
-3.365820e+00
-3.592025e+00
-3.817516e+00
-4.042084e+00
-4.266550e+00
-4.489705e+00
-4.711177e+00
-4.931796e+00
-5.149461e+00
-5.362174e+00
-5.569524e+00
-5.765120e+00
-5.941851e+00
-6.090135e+00
-6.167352e+00
-6.171048e+00
-6.263188e+00
0.000000e+00
-8.309365e-02
-1.720454e-01
-3.014065e-01
-4.460845e-01
-6.052281e-01
-7.814923e-01
-9.601316e-01
-1.143600e+00
-1.331266e+00
-1.518574e+00
-1.708062e+00
-1.898727e+00
-2.089119e+00
-2.280629e+00
-2.472240e+00
-2.663471e+00
-2.854863e+00
-3.045445e+00
-3.234880e+00
-3.423316e+00
-3.609679e+00
-3.793027e+00
-3.972557e+00
-4.145685e+00
-4.308863e+00
-4.458291e+00
-4.587557e+00
-4.687352e+00
-4.746485e+00
-4.755799e+00
-4.767943e+00
-4.848815e+00
0.000000e+00
-8.386765e-02
-1.617233e-01
-2.560887e-01
-3.614175e-01
-4.831371e-01
-6.158922e-01
-7.542058e-01
-8.987732e-01
-1.045565e+00
-1.193451e+00
-1.343242e+00
-1.493464e+00
-1.644264e+00
-1.795760e+00
-1.947125e+00
-2.098351e+00
-2.249126e+00
-2.398739e+00
-2.546741e+00
-2.692426e+00
-2.834643e+00
-2.971873e+00
-3.102202e+00
-3.223083e+00
-3.331278e+00
-3.422911e+00
-3.493165e+00
-3.536883e+00
-3.550670e+00
-3.543884e+00
-3.571211e+00
-3.646274e+00
0.000000e+00
-6.971417e-02
-1.375182e-01
-2.077570e-01
-2.876311e-01
-3.752118e-01
-4.707300e-01
-5.724307e-01
-6.772523e-01
-7.844619e-01
-8.931398e-01
-1.002672e+00
-1.113190e+00
-1.224305e+00
-1.335715e+00
-1.447251e+00
-1.558445e+00
-1.668837e+00
-1.777853e+00
-1.884628e+00
-1.988135e+00
-2.087024e+00
-2.179489e+00
-2.263469e+00
-2.336746e+00
-2.396906e+00
-2.441530e+00
-2.468079e+00
-2.474085e+00
-2.461064e+00
-2.453592e+00
-2.482981e+00
-2.552964e+00
0.000000e+00
-4.905212e-02
-9.715383e-02
-1.465819e-01
-1.995826e-01
-2.574999e-01
-3.199011e-01
-3.858651e-01
-4.542132e-01
-5.240374e-01
-5.949318e-01
-6.666175e-01
-7.388588e-01
-8.114452e-01
-8.841020e-01
-9.565232e-01
-1.028339e+00
-1.099051e+00
-1.168012e+00
-1.234372e+00
-1.297027e+00
-1.354578e+00
-1.405349e+00
-1.447484e+00
-1.479050e+00
-1.498211e+00
-1.503211e+00
-1.492007e+00
-1.465713e+00
-1.434094e+00
-1.422906e+00
-1.452470e+00
-1.521849e+00
0.000000e+00
-2.588310e-02
-5.148930e-02
-7.746381e-02
-1.048457e-01
-1.341962e-01
-1.655423e-01
-1.984497e-01
-2.324014e-01
-2.669932e-01
-3.019435e-01
-3.370440e-01
-3.720926e-01
-4.068772e-01
-4.411751e-01
-4.747228e-01
-5.071951e-01
-5.381852e-01
-5.671611e-01
-5.934187e-01
-6.160294e-01
-6.338061e-01
-6.453232e-01
-6.489729e-01
-6.430055e-01
-6.254536e-01
-5.942171e-01
-5.496843e-01
-4.995163e-01
-4.569079e-01
-4.440153e-01
-4.747240e-01
-5.457286e-01
0.000000e+00
-1.823672e-03
-3.637120e-03
-5.390881e-03
-7.042627e-03
-8.550872e-03
-9.863340e-03
-1.090888e-02
-1.160505e-02
-1.186815e-02
-1.160480e-02
-1.069629e-02
-8.998183e-03
-6.346556e-03
-2.555602e-03
2.584956e-03
9.314113e-03
1.791614e-02
2.874917e-02
4.228131e-02
5.914030e-02
8.018601e-02
1.065686e-01
1.397386e-01
1.814171e-01
2.332347e-01
2.952518e-01
3.629123e-01
4.255582e-01
4.693375e-01
4.785789e-01
4.442906e-01
3.739792e-01
0.000000e+00
2.232049e-02
4.438867e-02
6.694924e-02
9.112583e-02
1.175577e-01
1.463637e-01
1.772350e-01
2.098003e-01
2.438134e-01
2.791881e-01
3.159651e-01
3.542335e-01
3.941125e-01
4.357566e-01
4.793261e-01
5.249803e-01
5.729037e-01
6.233098e-01
6.764412e-01
7.326191e-01
7.923624e-01
8.565143e-01
9.261863e-01
1.002194e+00
1.083928e+00
1.168137e+00
1.247756e+00
1.312332e+00
1.350108e+00
1.351365e+00
1.315675e+00
1.255429e+00
0.000000e+00
4.574079e-02
9.056915e-02
1.368557e-01
1.869502e-01
2.422754e-01
3.024897e-01
3.667560e-01
4.339581e-01
5.032948e-01
5.745699e-01
6.477803e-01
7.229773e-01
8.002660e-01
8.797436e-01
9.615159e-01
1.045701e+00
1.132440e+00
1.221897e+00
1.314216e+00
1.409561e+00
1.508137e+00
1.609979e+00
1.714590e+00
1.820542e+00
1.924971e+00
2.023018e+00
2.107240e+00
2.168616e+00
2.199507e+00
2.197548e+00
2.168272e+00
2.123951e+00
0.000000e+00
6.679391e-02
1.317025e-01
1.992332e-01
2.766690e-01
3.622294e-01
4.562930e-01
5.571830e-01
6.618057e-01
7.694339e-01
8.793384e-01
9.911902e-01
1.105373e+00
1.221777e+00
1.340406e+00
1.461395e+00
1.584680e+00
1.710349e+00
1.838506e+00
1.969111e+00
2.102096e+00
2.237056e+00
2.372611e+00
2.506380e+00
2.635450e+00
2.756100e+00
2.863080e+00
2.949902e+00
3.010627e+00
3.042407e+00
3.046463e+00
3.028556e+00
3.000119e+00
0.000000e+00
8.133785e-02
1.568492e-01
2.489071e-01
3.523947e-01
4.727426e-01
6.047766e-01
7.432508e-01
8.887727e-01
1.037291e+00
1.187897e+00
1.341622e+00
1.497259e+00
1.655238e+00
1.815882e+00
1.978533e+00
2.143322e+00
2.310019e+00
2.477929e+00
2.646520e+00
2.814993e+00
2.982049e+00
3.145619e+00
3.303062e+00
3.451444e+00
3.586879e+00
3.704266e+00
3.798479e+00
3.866075e+00
3.905962e+00
3.919743e+00
3.913178e+00
3.898049e+00
0.000000e+00
8.109476e-02
1.681818e-01
2.957032e-01
4.389366e-01
5.971040e-01
7.727926e-01
9.514403e-01
1.135637e+00
1.324785e+00
1.514602e+00
1.707902e+00
1.903925e+00
2.101613e+00
2.302605e+00
2.505974e+00
2.711203e+00
2.918428e+00
3.125981e+00
3.332454e+00
3.536611e+00
3.736106e+00
3.928677e+00
4.112576e+00
4.285011e+00
4.440944e+00
4.574336e+00
4.680718e+00
4.758132e+00
4.806894e+00
4.829696e+00
4.832640e+00
4.827527e+00
0.000000e+00
1.279589e-01
2.765684e-01
4.677511e-01
6.763753e-01
8.845492e-01
1.107719e+00
1.329352e+00
1.552319e+00
1.779119e+00
2.004098e+00
2.231055e+00
2.459668e+00
2.688056e+00
2.918586e+00
3.150330e+00
3.382576e+00
3.616232e+00
3.849717e+00
4.081868e+00
4.312155e+00
4.538130e+00
4.757784e+00
4.970262e+00
5.171105e+00
5.350624e+00
5.500174e+00
5.616540e+00
5.700422e+00
5.754515e+00
5.783032e+00
5.792371e+00
5.793397e+00
0.000000e+00
2.335623e-01
4.835567e-01
7.449050e-01
1.010333e+00
1.266296e+00
1.533033e+00
1.794545e+00
2.055542e+00
2.319978e+00
2.580732e+00
2.842575e+00
3.104994e+00
3.365202e+00
3.626203e+00
3.886675e+00
4.145618e+00
4.404714e+00
4.662685e+00
4.919048e+00
5.174643e+00
5.427573e+00
5.675860e+00
5.917778e+00
6.144844e+00
6.342605e+00
6.501683e+00
6.620910e+00
6.703359e+00
6.754257e+00
6.780474e+00
6.790057e+00
6.792384e+00
0.000000e+00
4.327030e-01
7.633789e-01
1.089182e+00
1.403193e+00
1.703052e+00
2.010301e+00
2.309405e+00
2.607849e+00
2.909384e+00
3.206664e+00
3.504922e+00
3.803123e+00
4.098207e+00
4.393302e+00
4.686738e+00
4.977505e+00
5.267658e+00
5.556265e+00
5.843554e+00
6.131275e+00
6.417794e+00
6.700425e+00
6.974335e+00
7.225544e+00
7.436304e+00
7.597750e+00
7.710140e+00
7.777986e+00
7.809167e+00
7.815281e+00
7.810912e+00
7.808352e+00
0.000000e+00
-2.618294e-01
-5.402505e-01
-8.934460e-01
-1.290945e+00
-1.730440e+00
-2.211269e+00
-2.726429e+00
-3.279157e+00
-3.868050e+00
-4.492433e+00
-5.154327e+00
-5.852659e+00
-6.587813e+00
-7.360627e+00
-8.170479e+00
-9.017951e+00
-9.903436e+00
-1.082670e+01
-1.178858e+01
-1.278956e+01
-1.382969e+01
-1.491023e+01
-1.603216e+01
-1.719609e+01
-1.840521e+01
-1.966336e+01
-2.097483e+01
-2.235114e+01
-2.380964e+01
-2.536719e+01
-2.718286e+01
-2.973825e+01
0.000000e+00
-1.640714e-01
-4.574481e-01
-8.069034e-01
-1.207478e+00
-1.646382e+00
-2.126749e+00
-2.643008e+00
-3.194974e+00
-3.783990e+00
-4.408676e+00
-5.070107e+00
-5.768688e+00
-6.503915e+00
-7.276541e+00
-8.086605e+00
-8.934029e+00
-9.819449e+00
-1.074291e+01
-1.170465e+01
-1.270553e+01
-1.374583e+01
-1.482609e+01
-1.594776e+01
-1.711181e+01
-1.831995e+01
-1.957711e+01
-2.088877e+01
-2.226243e+01
-2.371481e+01
-2.529239e+01
-2.709298e+01
-2.936143e+01
0.000000e+00
-1.359192e-01
-4.004249e-01
-7.454216e-01
-1.141894e+00
-1.577536e+00
-2.056822e+00
-2.572310e+00
-3.123515e+00
-3.712427e+00
-4.336794e+00
-4.997900e+00
-5.696488e+00
-6.431572e+00
-7.204155e+00
-8.014329e+00
-8.861770e+00
-9.747374e+00
-1.067113e+01
-1.163307e+01
-1.263434e+01
-1.367515e+01
-1.475576e+01
-1.587803e+01
-1.704306e+01
-1.825217e+01
-1.951119e+01
-2.082603e+01
-2.220479e+01
-2.367793e+01
-2.529196e+01
-2.698874e+01
-2.875425e+01
0.000000e+00
-1.549454e-01
-3.901435e-01
-7.205227e-01
-1.102822e+00
-1.530476e+00
-2.006085e+00
-2.517808e+00
-3.067399e+00
-3.655279e+00
-4.278325e+00
-4.938918e+00
-5.637045e+00
-6.371710e+00
-7.144288e+00
-7.954467e+00
-8.802073e+00
-9.688123e+00
-1.061243e+01
-1.157513e+01
-1.257741e+01
-1.361946e+01
-1.470158e+01
-1.582570e+01
-1.699317e+01
-1.820580e+01
-1.946919e+01
-2.078965e+01
-2.217813e+01
-2.366839e+01
-2.527381e+01
-2.683590e+01
-2.825453e+01
0.000000e+00
-1.848750e-01
-4.170027e-01
-7.304137e-01
-1.095270e+00
-1.512107e+00
-1.978532e+00
-2.484113e+00
-3.030351e+00
-3.615234e+00
-4.236326e+00
-4.895777e+00
-5.592834e+00
-6.327063e+00
-7.099481e+00
-7.909646e+00
-8.757726e+00
-9.644441e+00
-1.056971e+01
-1.153389e+01
-1.253787e+01
-1.358206e+01
-1.466694e+01
-1.579400e+01
-1.696483e+01
-1.818178e+01
-1.944960e+01
-2.077410e+01
-2.216469e+01
-2.364330e+01
-2.518557e+01
-2.663160e+01
-2.789553e+01
0.000000e+00
-1.953830e-01
-4.380127e-01
-7.393627e-01
-1.096254e+00
-1.504292e+00
-1.961607e+00
-2.462776e+00
-3.005082e+00
-3.586986e+00
-4.206957e+00
-4.865195e+00
-5.561575e+00
-6.295770e+00
-7.068087e+00
-7.878574e+00
-8.727414e+00
-9.615059e+00
-1.054176e+01
-1.150794e+01
-1.251430e+01
-1.356138e+01
-1.464976e+01
-1.578042e+01
-1.695471e+01
-1.817478e+01
-1.944445e+01
-2.076766e+01
-2.214501e+01
-2.358610e+01
-2.503902e+01
-2.640413e+01
-2.758824e+01
0.000000e+00
-1.998576e-01
-4.469963e-01
-7.458916e-01
-1.097531e+00
-1.500521e+00
-1.952334e+00
-2.449686e+00
-2.989354e+00
-3.569235e+00
-4.188295e+00
-4.846068e+00
-5.542236e+00
-6.276624e+00
-7.049259e+00
-7.860313e+00
-8.710086e+00
-9.598947e+00
-1.052730e+01
-1.149570e+01
-1.250476e+01
-1.355500e+01
-1.464686e+01
-1.578091e+01
-1.695780e+01
-1.817863e+01
-1.944604e+01
-2.075994e+01
-2.211166e+01
-2.350264e+01
-2.487960e+01
-2.617396e+01
-2.729953e+01
0.000000e+00
-2.018079e-01
-4.507434e-01
-7.493056e-01
-1.098841e+00
-1.499115e+00
-1.948360e+00
-2.443615e+00
-2.981847e+00
-3.560907e+00
-4.179682e+00
-4.837581e+00
-5.534133e+00
-6.269065e+00
-7.042389e+00
-7.854312e+00
-8.705160e+00
-9.595346e+00
-1.052537e+01
-1.149586e+01
-1.250741e+01
-1.356042e+01
-1.465514e+01
-1.579163e+01
-1.696956e+01
-1.818839e+01
-1.944826e+01
-2.074492e+01
-2.206549e+01
-2.340575e+01
-2.471893e+01
-2.594450e+01
-2.700957e+01
0.000000e+00
-2.023313e-01
-4.518502e-01
-7.505325e-01
-1.099717e+00
-1.499489e+00
-1.948322e+00
-2.443412e+00
-2.981751e+00
-3.561170e+00
-4.180532e+00
-4.839209e+00
-5.536669e+00
-6.272585e+00
-7.046964e+00
-7.860014e+00
-8.712053e+00
-9.603526e+00
-1.053501e+01
-1.150714e+01
-1.252050e+01
-1.357540e+01
-1.467181e+01
-1.580914e+01
-1.698573e+01
-1.819899e+01
-1.944631e+01
-2.072132e+01
-2.201072e+01
-2.330208e+01
-2.455720e+01
-2.571514e+01
-2.671791e+01
0.000000e+00
-2.017803e-01
-4.509272e-01
-7.499297e-01
-1.100147e+00
-1.501351e+00
-1.951826e+00
-2.448648e+00
-2.988691e+00
-3.569689e+00
-4.190518e+00
-4.850614e+00
-5.549465e+00
-6.286768e+00
-7.062532e+00
-7.876916e+00
-8.730195e+00
-9.622817e+00
-1.055536e+01
-1.152844e+01
-1.254256e+01
-1.359800e+01
-1.469436e+01
-1.583009e+01
-1.700212e+01
-1.820650e+01
-1.943907e+01
-2.069206e+01
-2.195141e+01
-2.319831e+01
-2.439867e+01
-2.550092e+01
-2.646131e+01
0.000000e+00
-1.998276e-01
-4.474008e-01
-7.471862e-01
-1.100197e+00
-1.505038e+00
-1.959273e+00
-2.459683e+00
-3.002871e+00
-3.586515e+00
-4.209569e+00
-4.871615e+00
-5.572263e+00
-6.311274e+00
-7.088659e+00
-7.904484e+00
-8.758955e+00
-9.652490e+00
-1.058558e+01
-1.155870e+01
-1.257224e+01
-1.362638e+01
-1.472026e+01
-1.585148e+01
-1.701646e+01
-1.821081e+01
-1.942900e+01
-2.066160e+01
-2.189304e+01
-2.310142e+01
-2.425713e+01
-2.532365e+01
-2.626752e+01
0.000000e+00
-1.953914e-01
-4.386968e-01
-7.414100e-01
-1.100372e+00
-1.511202e+00
-1.972104e+00
-2.477706e+00
-3.025064e+00
-3.612352e+00
-4.238046e+00
-4.902412e+00
-5.605204e+00
-6.346011e+00
-7.125079e+00
-7.942269e+00
-8.797641e+00
-9.691654e+00
-1.062454e+01
-1.159653e+01
-1.260795e+01
-1.365876e+01
-1.474775e+01
-1.587254e+01
-1.702990e+01
-1.821514e+01
-1.942098e+01
-2.063585e+01
-2.184261e+01
-2.302010e+01
-2.414513e+01
-2.519293e+01
-2.613843e+01
0.000000e+00
-1.849611e-01
-4.180082e-01
-7.332655e-01
-1.100927e+00
-1.521492e+00
-1.992656e+00
-2.503912e+00
-3.056520e+00
-3.648229e+00
-4.276598e+00
-4.943811e+00
-5.648971e+00
-6.391498e+00
-7.172250e+00
-7.990519e+00
-8.846260e+00
-9.740036e+00
-1.067162e+01
-1.164109e+01
-1.264890e+01
-1.369476e+01
-1.477745e+01
-1.589549e+01
-1.704654e+01
-1.822520e+01
-1.942160e+01
-2.062136e+01
-2.180705e+01
-2.296082e+01
-2.406565e+01
-2.510525e+01
-2.606383e+01
0.000000e+00
-1.550643e-01
-3.913805e-01
-7.240543e-01
-1.109756e+00
-1.541961e+00
-2.023225e+00
-2.541500e+00
-3.098458e+00
-3.694352e+00
-4.325995e+00
-4.995785e+00
-5.703483e+00
-6.447848e+00
-7.230019e+00
-8.049249e+00
-8.904950e+00
-9.797772e+00
-1.072720e+01
-1.169313e+01
-1.269639e+01
-1.373667e+01
-1.481315e+01
-1.592582e+01
-1.707308e+01
-1.824756e+01
-1.943568e+01
-2.062142e+01
-2.178912e+01
-2.292451e+01
-2.401539e+01
-2.505260e+01
-2.603071e+01
0.000000e+00
-1.358229e-01
-4.015583e-01
-7.489824e-01
-1.149133e+00
-1.589635e+00
-2.074895e+00
-2.597252e+00
-3.156177e+00
-3.753635e+00
-4.387234e+00
-5.058268e+00
-5.767275e+00
-6.512899e+00
-7.295891e+00
-8.115770e+00
-8.971529e+00
-9.863548e+00
-1.079122e+01
-1.175426e+01
-1.275363e+01
-1.378937e+01
-1.486137e+01
-1.597074e+01
-1.711533e+01
-1.828463e+01
-1.946291e+01
-2.063508e+01
-2.178766e+01
-2.290872e+01
-2.398926e+01
-2.502601e+01
-2.602435e+01
0.000000e+00
-1.639164e-01
-4.585040e-01
-8.104060e-01
-1.214743e+00
-1.658590e+00
-2.144974e+00
-2.668170e+00
-3.227943e+00
-3.825637e+00
-4.459738e+00
-5.131296e+00
-5.840522e+00
-6.586535e+00
-7.369784e+00
-8.189669e+00
-9.045333e+00
-9.936809e+00
-1.086342e+01
-1.182494e+01
-1.282218e+01
-1.385541e+01
-1.492519e+01
-1.603225e+01
-1.717224e+01
-1.833288e+01
-1.949938e+01
-2.065860e+01
-2.179851e+01
-2.290833e+01
-2.398081e+01
-2.501636e+01
-2.602875e+01
0.000000e+00
-2.618948e-01
-5.414604e-01
-8.970927e-01
-1.298351e+00
-1.742771e+00
-2.229546e+00
-2.751598e+00
-3.312107e+00
-3.909636e+00
-4.543373e+00
-5.215288e+00
-5.924121e+00
-6.669878e+00
-7.453073e+00
-8.272415e+00
-9.127699e+00
-1.001880e+01
-1.094474e+01
-1.190576e+01
-1.290241e+01
-1.393456e+01