TITLE = "Solution"
VARIABLES = x, y, u, v, psiu, psiv, t, stress
ZONE T="structure" N=561 E=512 F=FEBLOCK ET=QUADRILATERAL VARLOCATION=([7,8]=cellcentered)
0.000000e+00
6.250000e+00
1.250000e+01
1.875000e+01
2.500000e+01
3.125000e+01
3.750000e+01
4.375000e+01
5.000000e+01
5.625000e+01
6.250000e+01
6.875000e+01
7.500000e+01
8.125000e+01
8.750000e+01
9.375000e+01
1.000000e+02
1.062500e+02
1.125000e+02
1.187500e+02
1.250000e+02
1.312500e+02
1.375000e+02
1.437500e+02
1.500000e+02
1.562500e+02
1.625000e+02
1.687500e+02
1.750000e+02
1.812500e+02
1.875000e+02
1.937500e+02
2.000000e+02
0.000000e+00
6.250000e+00
1.250000e+01
1.875000e+01
2.500000e+01
3.125000e+01
3.750000e+01
4.375000e+01
5.000000e+01
5.625000e+01
6.250000e+01
6.875000e+01
7.500000e+01
8.125000e+01
8.750000e+01
9.375000e+01
1.000000e+02
1.062500e+02
1.125000e+02
1.187500e+02
1.250000e+02
1.312500e+02
1.375000e+02
1.437500e+02
1.500000e+02
1.562500e+02
1.625000e+02
1.687500e+02
1.750000e+02
1.812500e+02
1.875000e+02
1.937500e+02
2.000000e+02
0.000000e+00
6.250000e+00
1.250000e+01
1.875000e+01
2.500000e+01
3.125000e+01
3.750000e+01
4.375000e+01
5.000000e+01
5.625000e+01
6.250000e+01
6.875000e+01
7.500000e+01
8.125000e+01
8.750000e+01
9.375000e+01
1.000000e+02
1.062500e+02
1.125000e+02
1.187500e+02
1.250000e+02
1.312500e+02
1.375000e+02
1.437500e+02
1.500000e+02
1.562500e+02
1.625000e+02
1.687500e+02
1.750000e+02
1.812500e+02
1.875000e+02
1.937500e+02
2.000000e+02
0.000000e+00
6.250000e+00
1.250000e+01
1.875000e+01
2.500000e+01
3.125000e+01
3.750000e+01
4.375000e+01
5.000000e+01
5.625000e+01
6.250000e+01
6.875000e+01
7.500000e+01
8.125000e+01
8.750000e+01
9.375000e+01
1.000000e+02
1.062500e+02
1.125000e+02
1.187500e+02
1.250000e+02
1.312500e+02
1.375000e+02
1.437500e+02
1.500000e+02
1.562500e+02
1.625000e+02
1.687500e+02
1.750000e+02
1.812500e+02
1.875000e+02
1.937500e+02
2.000000e+02
0.000000e+00
6.250000e+00
1.250000e+01
1.875000e+01
2.500000e+01
3.125000e+01
3.750000e+01
4.375000e+01
5.000000e+01
5.625000e+01
6.250000e+01
6.875000e+01
7.500000e+01
8.125000e+01
8.750000e+01
9.375000e+01
1.000000e+02
1.062500e+02
1.125000e+02
1.187500e+02
1.250000e+02
1.312500e+02
1.375000e+02
1.437500e+02
1.500000e+02
1.562500e+02
1.625000e+02
1.687500e+02
1.750000e+02
1.812500e+02
1.875000e+02
1.937500e+02
2.000000e+02
0.000000e+00
6.250000e+00
1.250000e+01
1.875000e+01
2.500000e+01
3.125000e+01
3.750000e+01
4.375000e+01
5.000000e+01
5.625000e+01
6.250000e+01
6.875000e+01
7.500000e+01
8.125000e+01
8.750000e+01
9.375000e+01
1.000000e+02
1.062500e+02
1.125000e+02
1.187500e+02
1.250000e+02
1.312500e+02
1.375000e+02
1.437500e+02
1.500000e+02
1.562500e+02
1.625000e+02
1.687500e+02
1.750000e+02
1.812500e+02
1.875000e+02
1.937500e+02
2.000000e+02
0.000000e+00
6.250000e+00
1.250000e+01
1.875000e+01
2.500000e+01
3.125000e+01
3.750000e+01
4.375000e+01
5.000000e+01
5.625000e+01
6.250000e+01
6.875000e+01
7.500000e+01
8.125000e+01
8.750000e+01
9.375000e+01
1.000000e+02
1.062500e+02
1.125000e+02
1.187500e+02
1.250000e+02
1.312500e+02
1.375000e+02
1.437500e+02
1.500000e+02
1.562500e+02
1.625000e+02
1.687500e+02
1.750000e+02
1.812500e+02
1.875000e+02
1.937500e+02
2.000000e+02
0.000000e+00
6.250000e+00
1.250000e+01
1.875000e+01
2.500000e+01
3.125000e+01
3.750000e+01
4.375000e+01
5.000000e+01
5.625000e+01
6.250000e+01
6.875000e+01
7.500000e+01
8.125000e+01
8.750000e+01
9.375000e+01
1.000000e+02
1.062500e+02
1.125000e+02
1.187500e+02
1.250000e+02
1.312500e+02
1.375000e+02
1.437500e+02
1.500000e+02
1.562500e+02
1.625000e+02
1.687500e+02
1.750000e+02
1.812500e+02
1.875000e+02
1.937500e+02
2.000000e+02
0.000000e+00
6.250000e+00
1.250000e+01
1.875000e+01
2.500000e+01
3.125000e+01
3.750000e+01
4.375000e+01
5.000000e+01
5.625000e+01
6.250000e+01
6.875000e+01
7.500000e+01
8.125000e+01
8.750000e+01
9.375000e+01
1.000000e+02
1.062500e+02
1.125000e+02
1.187500e+02
1.250000e+02
1.312500e+02
1.375000e+02
1.437500e+02
1.500000e+02
1.562500e+02
1.625000e+02
1.687500e+02
1.750000e+02
1.812500e+02
1.875000e+02
1.937500e+02
2.000000e+02
0.000000e+00
6.250000e+00
1.250000e+01
1.875000e+01
2.500000e+01
3.125000e+01
3.750000e+01
4.375000e+01
5.000000e+01
5.625000e+01
6.250000e+01
6.875000e+01
7.500000e+01
8.125000e+01
8.750000e+01
9.375000e+01
1.000000e+02
1.062500e+02
1.125000e+02
1.187500e+02
1.250000e+02
1.312500e+02
1.375000e+02
1.437500e+02
1.500000e+02
1.562500e+02
1.625000e+02
1.687500e+02
1.750000e+02
1.812500e+02
1.875000e+02
1.937500e+02
2.000000e+02
0.000000e+00
6.250000e+00
1.250000e+01
1.875000e+01
2.500000e+01
3.125000e+01
3.750000e+01
4.375000e+01
5.000000e+01
5.625000e+01
6.250000e+01
6.875000e+01
7.500000e+01
8.125000e+01
8.750000e+01
9.375000e+01
1.000000e+02
1.062500e+02
1.125000e+02
1.187500e+02
1.250000e+02
1.312500e+02
1.375000e+02
1.437500e+02
1.500000e+02
1.562500e+02
1.625000e+02
1.687500e+02
1.750000e+02
1.812500e+02
1.875000e+02
1.937500e+02
2.000000e+02
0.000000e+00
6.250000e+00
1.250000e+01
1.875000e+01
2.500000e+01
3.125000e+01
3.750000e+01
4.375000e+01
5.000000e+01
5.625000e+01
6.250000e+01
6.875000e+01
7.500000e+01
8.125000e+01
8.750000e+01
9.375000e+01
1.000000e+02
1.062500e+02
1.125000e+02
1.187500e+02
1.250000e+02
1.312500e+02
1.375000e+02
1.437500e+02
1.500000e+02
1.562500e+02
1.625000e+02
1.687500e+02
1.750000e+02
1.812500e+02
1.875000e+02
1.937500e+02
2.000000e+02
0.000000e+00
6.250000e+00
1.250000e+01
1.875000e+01
2.500000e+01
3.125000e+01
3.750000e+01
4.375000e+01
5.000000e+01
5.625000e+01
6.250000e+01
6.875000e+01
7.500000e+01
8.125000e+01
8.750000e+01
9.375000e+01
1.000000e+02
1.062500e+02
1.125000e+02
1.187500e+02
1.250000e+02
1.312500e+02
1.375000e+02
1.437500e+02
1.500000e+02
1.562500e+02
1.625000e+02
1.687500e+02
1.750000e+02
1.812500e+02
1.875000e+02
1.937500e+02
2.000000e+02
0.000000e+00
6.250000e+00
1.250000e+01
1.875000e+01
2.500000e+01
3.125000e+01
3.750000e+01
4.375000e+01
5.000000e+01
5.625000e+01
6.250000e+01
6.875000e+01
7.500000e+01
8.125000e+01
8.750000e+01
9.375000e+01
1.000000e+02
1.062500e+02
1.125000e+02
1.187500e+02
1.250000e+02
1.312500e+02
1.375000e+02
1.437500e+02
1.500000e+02
1.562500e+02
1.625000e+02
1.687500e+02
1.750000e+02
1.812500e+02
1.875000e+02
1.937500e+02
2.000000e+02
0.000000e+00
6.250000e+00
1.250000e+01
1.875000e+01
2.500000e+01
3.125000e+01
3.750000e+01
4.375000e+01
5.000000e+01
5.625000e+01
6.250000e+01
6.875000e+01
7.500000e+01
8.125000e+01
8.750000e+01
9.375000e+01
1.000000e+02
1.062500e+02
1.125000e+02
1.187500e+02
1.250000e+02
1.312500e+02
1.375000e+02
1.437500e+02
1.500000e+02
1.562500e+02
1.625000e+02
1.687500e+02
1.750000e+02
1.812500e+02
1.875000e+02
1.937500e+02
2.000000e+02
0.000000e+00
6.250000e+00
1.250000e+01
1.875000e+01
2.500000e+01
3.125000e+01
3.750000e+01
4.375000e+01
5.000000e+01
5.625000e+01
6.250000e+01
6.875000e+01
7.500000e+01
8.125000e+01
8.750000e+01
9.375000e+01
1.000000e+02
1.062500e+02
1.125000e+02
1.187500e+02
1.250000e+02
1.312500e+02
1.375000e+02
1.437500e+02
1.500000e+02
1.562500e+02
1.625000e+02
1.687500e+02
1.750000e+02
1.812500e+02
1.875000e+02
1.937500e+02
2.000000e+02
0.000000e+00
6.250000e+00
1.250000e+01
1.875000e+01
2.500000e+01
3.125000e+01
3.750000e+01
4.375000e+01
5.000000e+01
5.625000e+01
6.250000e+01
6.875000e+01
7.500000e+01
8.125000e+01
8.750000e+01
9.375000e+01
1.000000e+02
1.062500e+02
1.125000e+02
1.187500e+02
1.250000e+02
1.312500e+02
1.375000e+02
1.437500e+02
1.500000e+02
1.562500e+02
1.625000e+02
1.687500e+02
1.750000e+02
1.812500e+02
1.875000e+02
1.937500e+02
2.000000e+02
0.000000e+00
0.000000e+00
0.000000e+00
0.000000e+00
0.000000e+00
0.000000e+00
0.000000e+00
0.000000e+00
0.000000e+00
0.000000e+00
0.000000e+00
0.000000e+00
0.000000e+00
0.000000e+00
0.000000e+00
0.000000e+00
0.000000e+00
0.000000e+00
0.000000e+00
0.000000e+00
0.000000e+00
0.000000e+00
0.000000e+00
0.000000e+00
0.000000e+00
0.000000e+00
0.000000e+00
0.000000e+00
0.000000e+00
0.000000e+00
0.000000e+00
0.000000e+00
0.000000e+00
6.250000e+00
6.250000e+00
6.250000e+00
6.250000e+00
6.250000e+00
6.250000e+00
6.250000e+00
6.250000e+00
6.250000e+00
6.250000e+00
6.250000e+00
6.250000e+00
6.250000e+00
6.250000e+00
6.250000e+00
6.250000e+00
6.250000e+00
6.250000e+00
6.250000e+00
6.250000e+00
6.250000e+00
6.250000e+00
6.250000e+00
6.250000e+00
6.250000e+00
6.250000e+00
6.250000e+00
6.250000e+00
6.250000e+00
6.250000e+00
6.250000e+00
6.250000e+00
6.250000e+00
1.250000e+01
1.250000e+01
1.250000e+01
1.250000e+01
1.250000e+01
1.250000e+01
1.250000e+01
1.250000e+01
1.250000e+01
1.250000e+01
1.250000e+01
1.250000e+01
1.250000e+01
1.250000e+01
1.250000e+01
1.250000e+01
1.250000e+01
1.250000e+01
1.250000e+01
1.250000e+01
1.250000e+01
1.250000e+01
1.250000e+01
1.250000e+01
1.250000e+01
1.250000e+01
1.250000e+01
1.250000e+01
1.250000e+01
1.250000e+01
1.250000e+01
1.250000e+01
1.250000e+01
1.875000e+01
1.875000e+01
1.875000e+01
1.875000e+01
1.875000e+01
1.875000e+01
1.875000e+01
1.875000e+01
1.875000e+01
1.875000e+01
1.875000e+01
1.875000e+01
1.875000e+01
1.875000e+01
1.875000e+01
1.875000e+01
1.875000e+01
1.875000e+01
1.875000e+01
1.875000e+01
1.875000e+01
1.875000e+01
1.875000e+01
1.875000e+01
1.875000e+01
1.875000e+01
1.875000e+01
1.875000e+01
1.875000e+01
1.875000e+01
1.875000e+01
1.875000e+01
1.875000e+01
2.500000e+01
2.500000e+01
2.500000e+01
2.500000e+01
2.500000e+01
2.500000e+01
2.500000e+01
2.500000e+01
2.500000e+01
2.500000e+01
2.500000e+01
2.500000e+01
2.500000e+01
2.500000e+01
2.500000e+01
2.500000e+01
2.500000e+01
2.500000e+01
2.500000e+01
2.500000e+01
2.500000e+01
2.500000e+01
2.500000e+01
2.500000e+01
2.500000e+01
2.500000e+01
2.500000e+01
2.500000e+01
2.500000e+01
2.500000e+01
2.500000e+01
2.500000e+01
2.500000e+01
3.125000e+01
3.125000e+01
3.125000e+01
3.125000e+01
3.125000e+01
3.125000e+01
3.125000e+01
3.125000e+01
3.125000e+01
3.125000e+01
3.125000e+01
3.125000e+01
3.125000e+01
3.125000e+01
3.125000e+01
3.125000e+01
3.125000e+01
3.125000e+01
3.125000e+01
3.125000e+01
3.125000e+01
3.125000e+01
3.125000e+01
3.125000e+01
3.125000e+01
3.125000e+01
3.125000e+01
3.125000e+01
3.125000e+01
3.125000e+01
3.125000e+01
3.125000e+01
3.125000e+01
3.750000e+01
3.750000e+01
3.750000e+01
3.750000e+01
3.750000e+01
3.750000e+01
3.750000e+01
3.750000e+01
3.750000e+01
3.750000e+01
3.750000e+01
3.750000e+01
3.750000e+01
3.750000e+01
3.750000e+01
3.750000e+01
3.750000e+01
3.750000e+01
3.750000e+01
3.750000e+01
3.750000e+01
3.750000e+01
3.750000e+01
3.750000e+01
3.750000e+01
3.750000e+01
3.750000e+01
3.750000e+01
3.750000e+01
3.750000e+01
3.750000e+01
3.750000e+01
3.750000e+01
4.375000e+01
4.375000e+01
4.375000e+01
4.375000e+01
4.375000e+01
4.375000e+01
4.375000e+01
4.375000e+01
4.375000e+01
4.375000e+01
4.375000e+01
4.375000e+01
4.375000e+01
4.375000e+01
4.375000e+01
4.375000e+01
4.375000e+01
4.375000e+01
4.375000e+01
4.375000e+01
4.375000e+01
4.375000e+01
4.375000e+01
4.375000e+01
4.375000e+01
4.375000e+01
4.375000e+01
4.375000e+01
4.375000e+01
4.375000e+01
4.375000e+01
4.375000e+01
4.375000e+01
5.000000e+01
5.000000e+01
5.000000e+01
5.000000e+01
5.000000e+01
5.000000e+01
5.000000e+01
5.000000e+01
5.000000e+01
5.000000e+01
5.000000e+01
5.000000e+01
5.000000e+01
5.000000e+01
5.000000e+01
5.000000e+01
5.000000e+01
5.000000e+01
5.000000e+01
5.000000e+01
5.000000e+01
5.000000e+01
5.000000e+01
5.000000e+01
5.000000e+01
5.000000e+01
5.000000e+01
5.000000e+01
5.000000e+01
5.000000e+01
5.000000e+01
5.000000e+01
5.000000e+01
5.625000e+01
5.625000e+01
5.625000e+01
5.625000e+01
5.625000e+01
5.625000e+01
5.625000e+01
5.625000e+01
5.625000e+01
5.625000e+01
5.625000e+01
5.625000e+01
5.625000e+01
5.625000e+01
5.625000e+01
5.625000e+01
5.625000e+01
5.625000e+01
5.625000e+01
5.625000e+01
5.625000e+01
5.625000e+01
5.625000e+01
5.625000e+01
5.625000e+01
5.625000e+01
5.625000e+01
5.625000e+01
5.625000e+01
5.625000e+01
5.625000e+01
5.625000e+01
5.625000e+01
6.250000e+01
6.250000e+01
6.250000e+01
6.250000e+01
6.250000e+01
6.250000e+01
6.250000e+01
6.250000e+01
6.250000e+01
6.250000e+01
6.250000e+01
6.250000e+01
6.250000e+01
6.250000e+01
6.250000e+01
6.250000e+01
6.250000e+01
6.250000e+01
6.250000e+01
6.250000e+01
6.250000e+01
6.250000e+01
6.250000e+01
6.250000e+01
6.250000e+01
6.250000e+01
6.250000e+01
6.250000e+01
6.250000e+01
6.250000e+01
6.250000e+01
6.250000e+01
6.250000e+01
6.875000e+01
6.875000e+01
6.875000e+01
6.875000e+01
6.875000e+01
6.875000e+01
6.875000e+01
6.875000e+01
6.875000e+01
6.875000e+01
6.875000e+01
6.875000e+01
6.875000e+01
6.875000e+01
6.875000e+01
6.875000e+01
6.875000e+01
6.875000e+01
6.875000e+01
6.875000e+01
6.875000e+01
6.875000e+01
6.875000e+01
6.875000e+01
6.875000e+01
6.875000e+01
6.875000e+01
6.875000e+01
6.875000e+01
6.875000e+01
6.875000e+01
6.875000e+01
6.875000e+01
7.500000e+01
7.500000e+01
7.500000e+01
7.500000e+01
7.500000e+01
7.500000e+01
7.500000e+01
7.500000e+01
7.500000e+01
7.500000e+01
7.500000e+01
7.500000e+01
7.500000e+01
7.500000e+01
7.500000e+01
7.500000e+01
7.500000e+01
7.500000e+01
7.500000e+01
7.500000e+01
7.500000e+01
7.500000e+01
7.500000e+01
7.500000e+01
7.500000e+01
7.500000e+01
7.500000e+01
7.500000e+01
7.500000e+01
7.500000e+01
7.500000e+01
7.500000e+01
7.500000e+01
8.125000e+01
8.125000e+01
8.125000e+01
8.125000e+01
8.125000e+01
8.125000e+01
8.125000e+01
8.125000e+01
8.125000e+01
8.125000e+01
8.125000e+01
8.125000e+01
8.125000e+01
8.125000e+01
8.125000e+01
8.125000e+01
8.125000e+01
8.125000e+01
8.125000e+01
8.125000e+01
8.125000e+01
8.125000e+01
8.125000e+01
8.125000e+01
8.125000e+01
8.125000e+01
8.125000e+01
8.125000e+01
8.125000e+01
8.125000e+01
8.125000e+01
8.125000e+01
8.125000e+01
8.750000e+01
8.750000e+01
8.750000e+01
8.750000e+01
8.750000e+01
8.750000e+01
8.750000e+01
8.750000e+01
8.750000e+01
8.750000e+01
8.750000e+01
8.750000e+01
8.750000e+01
8.750000e+01
8.750000e+01
8.750000e+01
8.750000e+01
8.750000e+01
8.750000e+01
8.750000e+01
8.750000e+01
8.750000e+01
8.750000e+01
8.750000e+01
8.750000e+01
8.750000e+01
8.750000e+01
8.750000e+01
8.750000e+01
8.750000e+01
8.750000e+01
8.750000e+01
8.750000e+01
9.375000e+01
9.375000e+01
9.375000e+01
9.375000e+01
9.375000e+01
9.375000e+01
9.375000e+01
9.375000e+01
9.375000e+01
9.375000e+01
9.375000e+01
9.375000e+01
9.375000e+01
9.375000e+01
9.375000e+01
9.375000e+01
9.375000e+01
9.375000e+01
9.375000e+01
9.375000e+01
9.375000e+01
9.375000e+01
9.375000e+01
9.375000e+01
9.375000e+01
9.375000e+01
9.375000e+01
9.375000e+01
9.375000e+01
9.375000e+01
9.375000e+01
9.375000e+01
9.375000e+01
1.000000e+02
1.000000e+02
1.000000e+02
1.000000e+02
1.000000e+02
1.000000e+02
1.000000e+02
1.000000e+02
1.000000e+02
1.000000e+02
1.000000e+02
1.000000e+02
1.000000e+02
1.000000e+02
1.000000e+02
1.000000e+02
1.000000e+02
1.000000e+02
1.000000e+02
1.000000e+02
1.000000e+02
1.000000e+02
1.000000e+02
1.000000e+02
1.000000e+02
1.000000e+02
1.000000e+02
1.000000e+02
1.000000e+02
1.000000e+02
1.000000e+02
1.000000e+02
1.000000e+02
0.000000e+00
-3.971777e-02
-7.206261e-02
-1.020255e-01
-1.307815e-01
-1.585498e-01
-1.853860e-01
-2.112880e-01
-2.362393e-01
-2.602217e-01
-2.832204e-01
-3.052248e-01
-3.262297e-01
-3.462345e-01
-3.652440e-01
-3.832682e-01
-4.003233e-01
-4.164326e-01
-4.316286e-01
-4.459549e-01
-4.594700e-01
-4.722507e-01
-4.843988e-01
-4.960496e-01
-5.073839e-01
-5.186477e-01
-5.301825e-01
-5.424755e-01
-5.562412e-01
-5.725312e-01
-5.927097e-01
-6.167569e-01
-6.314326e-01
0.000000e+00
-2.662970e-02
-5.540595e-02
-8.253815e-02
-1.083263e-01
-1.330158e-01
-1.567373e-01
-1.795477e-01
-2.014700e-01
-2.225113e-01
-2.426731e-01
-2.619555e-01
-2.803593e-01
-2.978875e-01
-3.145460e-01
-3.303440e-01
-3.452950e-01
-3.594173e-01
-3.727356e-01
-3.852815e-01
-3.970957e-01
-4.082292e-01
-4.187454e-01
-4.287220e-01
-4.382516e-01
-4.474409e-01
-4.564026e-01
-4.652293e-01
-4.739204e-01
-4.821932e-01
-4.890867e-01
-4.931170e-01
-4.987278e-01
0.000000e+00
-2.112274e-02
-4.348624e-02
-6.625584e-02
-8.838084e-02
-1.096905e-01
-1.301712e-01
-1.498423e-01
-1.687213e-01
-1.868199e-01
-2.041461e-01
-2.207050e-01
-2.365013e-01
-2.515398e-01
-2.658258e-01
-2.793664e-01
-2.921704e-01
-3.042489e-01
-3.156153e-01
-3.262859e-01
-3.362794e-01
-3.456159e-01
-3.543154e-01
-3.623933e-01
-3.698528e-01
-3.766700e-01
-3.827668e-01
-3.879639e-01
-3.919098e-01
-3.940345e-01
-3.938482e-01
-3.926551e-01
-3.992070e-01
0.000000e+00
-1.675902e-02
-3.444361e-02
-5.261232e-02
-7.073844e-02
-8.842551e-02
-1.055221e-01
-1.219738e-01
-1.377659e-01
-1.528978e-01
-1.673734e-01
-1.811976e-01
-1.943750e-01
-2.069097e-01
-2.188055e-01
-2.300657e-01
-2.406933e-01
-2.506912e-01
-2.600614e-01
-2.688043e-01
-2.769178e-01
-2.843945e-01
-2.912177e-01
-2.973557e-01
-3.027519e-01
-3.073109e-01
-3.108819e-01
-3.132467e-01
-3.141496e-01
-3.134793e-01
-3.118514e-01
-3.117542e-01
-3.179965e-01
0.000000e+00
-1.300734e-02
-2.663460e-02
-4.069717e-02
-5.487399e-02
-6.887693e-02
-8.251278e-02
-9.568372e-02
-1.083453e-01
-1.204803e-01
-1.320844e-01
-1.431582e-01
-1.537037e-01
-1.637226e-01
-1.732158e-01
-1.821822e-01
-1.906192e-01
-1.985215e-01
-2.058812e-01
-2.126858e-01
-2.189170e-01
-2.245482e-01
-2.295410e-01
-2.338404e-01
-2.373704e-01
-2.400313e-01
-2.417056e-01
-2.422930e-01
-2.418111e-01
-2.406321e-01
-2.398672e-01
-2.416336e-01
-2.469586e-01
0.000000e+00
-9.559638e-03
-1.952885e-02
-2.981834e-02
-4.025032e-02
-5.063005e-02
-6.080295e-02
-7.066853e-02
-8.017163e-02
-8.928543e-02
-9.799862e-02
-1.063072e-01
-1.142098e-01
-1.217049e-01
-1.287898e-01
-1.354593e-01
-1.417057e-01
-1.475174e-01
-1.528787e-01
-1.577687e-01
-1.621598e-01
-1.660164e-01
-1.692935e-01
-1.719361e-01
-1.738814e-01
-1.750684e-01
-1.754622e-01
-1.751088e-01
-1.742378e-01
-1.734090e-01
-1.736108e-01
-1.758627e-01
-1.802687e-01
0.000000e+00
-6.291391e-03
-1.283164e-02
-1.957935e-02
-2.643833e-02
-3.329310e-02
-4.004029e-02
-4.660456e-02
-5.293873e-02
-5.901680e-02
-6.482562e-02
-7.035857e-02
-7.561142e-02
-8.057979e-02
-8.525770e-02
-8.963657e-02
-9.370461e-02
-9.744617e-02
-1.008412e-01
-1.038646e-01
-1.064862e-01
-1.086702e-01
-1.103771e-01
-1.115665e-01
-1.122056e-01
-1.122849e-01
-1.118479e-01
-1.110393e-01
-1.101668e-01
-1.097439e-01
-1.104037e-01
-1.125962e-01
-1.161528e-01
0.000000e+00
-3.124932e-03
-6.368005e-03
-9.712550e-03
-1.311633e-02
-1.652556e-02
-1.988920e-02
-2.316727e-02
-2.633279e-02
-2.936926e-02
-3.226691e-02
-3.501927e-02
-3.762072e-02
-4.006480e-02
-4.234319e-02
-4.444494e-02
-4.635595e-02
-4.805858e-02
-4.953143e-02
-5.074941e-02
-5.168438e-02
-5.230672e-02
-5.258863e-02
-5.251022e-02
-5.206994e-02
-5.130138e-02
-5.029756e-02
-4.923986e-02
-4.841878e-02
-4.821309e-02
-4.898730e-02
-5.089989e-02
-5.372201e-02
0.000000e+00
-5.041764e-06
-1.093198e-05
-1.734435e-05
-2.394157e-05
-3.026886e-05
-3.564085e-05
-3.901599e-05
-3.884988e-05
-3.291866e-05
-1.810576e-05
9.851658e-06
5.665618e-05
1.297772e-04
2.387958e-04
3.957374e-04
6.153411e-04
9.151820e-04
1.315514e-03
1.838635e-03
2.507470e-03
3.342944e-03
4.359548e-03
5.558386e-03
6.917000e-03
8.375876e-03
9.823319e-03
1.108438e-02
1.192619e-02
1.209691e-02
1.140953e-02
9.852838e-03
7.672613e-03
0.000000e+00
3.115436e-03
6.347372e-03
9.679748e-03
1.307094e-02
1.646802e-02
1.982119e-02
2.309243e-02
2.625764e-02
2.930446e-02
3.222899e-02
3.503274e-02
3.772082e-02
4.030083e-02
4.278254e-02
4.517771e-02
4.750020e-02
4.976578e-02
5.199170e-02
5.419577e-02
5.639445e-02
5.859986e-02
6.081512e-02
6.302795e-02
6.520238e-02
6.726978e-02
6.912194e-02
7.061163e-02
7.156881e-02
7.183979e-02
7.134901e-02
7.016647e-02
6.854832e-02
0.000000e+00
6.283634e-03
1.281466e-02
1.955218e-02
2.640043e-02
3.324461e-02
3.998231e-02
4.653973e-02
5.287200e-02
5.895644e-02
6.478461e-02
7.035640e-02
7.567629e-02
8.075147e-02
8.559084e-02
9.020471e-02
9.460462e-02
9.880313e-02
1.028133e-01
1.066475e-01
1.103156e-01
1.138224e-01
1.171631e-01
1.203184e-01
1.232486e-01
1.258887e-01
1.281470e-01
1.299108e-01
1.310653e-01
1.315269e-01
1.312895e-01
1.304713e-01
1.293419e-01
0.000000e+00
9.554690e-03
1.951782e-02
2.980038e-02
4.022482e-02
5.059678e-02
6.076224e-02
7.062166e-02
8.012133e-02
8.923650e-02
9.795887e-02
1.062886e-01
1.142300e-01
1.217892e-01
1.289734e-01
1.357901e-01
1.422475e-01
1.483536e-01
1.541163e-01
1.595424e-01
1.646354e-01
1.693944e-01
1.738101e-01
1.778616e-01
1.815131e-01
1.847116e-01
1.873882e-01
1.894655e-01
1.908742e-01
1.915801e-01
1.916198e-01
1.911398e-01
1.904260e-01
0.000000e+00
1.300611e-02
2.663152e-02
4.069167e-02
5.486548e-02
6.886493e-02
8.249699e-02
9.566411e-02
1.083222e-01
1.204549e-01
1.320585e-01
1.431352e-01
1.536888e-01
1.637238e-01
1.732445e-01
1.822546e-01
1.907577e-01
1.987564e-01
2.062528e-01
2.132471e-01
2.197373e-01
2.257173e-01
2.311758e-01
2.360938e-01
2.404437e-01
2.441889e-01
2.472867e-01
2.496943e-01
2.513816e-01
2.523509e-01
2.526654e-01
2.524851e-01
2.521091e-01
0.000000e+00
1.676214e-02
3.444994e-02
5.262173e-02
7.075068e-02
8.844022e-02
1.055387e-01
1.219915e-01
1.377835e-01
1.529130e-01
1.673830e-01
1.811967e-01
1.943567e-01
2.068645e-01
2.187202e-01
2.299231e-01
2.404709e-01
2.503601e-01
2.595860e-01
2.681419e-01
2.760192e-01
2.832070e-01
2.896916e-01
2.954566e-01
3.004836e-01
3.047539e-01
3.082513e-01
3.109681e-01
3.129125e-01
3.141208e-01
3.146766e-01
3.147429e-01
3.146181e-01
0.000000e+00
2.113034e-02
4.350247e-02
6.628125e-02
8.841592e-02
1.097356e-01
1.302265e-01
1.499071e-01
1.687938e-01
1.868964e-01
2.042199e-01
2.207657e-01
2.365325e-01
2.515175e-01
2.657160e-01
2.791215e-01
2.917257e-01
3.035184e-01
3.144871e-01
3.246172e-01
3.338921e-01
3.422937e-01
3.498038e-01
3.564055e-01
3.620863e-01
3.668419e-01
3.706809e-01
3.736304e-01
3.757413e-01
3.770933e-01
3.778009e-01
3.780314e-01
3.780589e-01
0.000000e+00
2.664111e-02
5.543088e-02
8.257825e-02
1.083835e-01
1.330921e-01
1.568343e-01
1.796665e-01
2.016100e-01
2.226697e-01
2.428434e-01
2.621255e-01
2.805088e-01
2.979847e-01
3.145435e-01
3.301732e-01
3.448597e-01
3.585857e-01
3.713306e-01
3.830702e-01
3.937776e-01
4.034239e-01
4.119806e-01
4.194232e-01
4.257362e-01
4.309200e-01
4.349991e-01
4.380310e-01
4.401136e-01
4.413898e-01
4.420418e-01
4.422782e-01
4.423361e-01
0.000000e+00
3.973026e-02
7.209176e-02
1.020755e-01
1.308562e-01
1.586534e-01
1.855228e-01
2.114618e-01
2.364534e-01
2.604774e-01
2.835155e-01
3.055515e-01
3.265713e-01
3.465615e-01
3.655082e-01
3.833955e-01
4.002044e-01
4.159115e-01
4.304880e-01
4.438995e-01
4.561055e-01
4.670612e-01
4.767195e-01
4.850362e-01
4.919768e-01
4.975275e-01
5.017078e-01
5.045877e-01
5.063042e-01
5.070777e-01
5.072182e-01
5.071018e-01
5.070363e-01
0.000000e+00
-2.454482e-02
-4.283601e-02
-6.279610e-02
-8.502285e-02
-1.101302e-01
-1.382926e-01
-1.695590e-01
-2.038983e-01
-2.412368e-01
-2.814757e-01
-3.245009e-01
-3.701899e-01
-4.184147e-01
-4.690449e-01
-5.219492e-01
-5.769969e-01
-6.340600e-01
-6.930143e-01
-7.537432e-01
-8.161410e-01
-8.801187e-01
-9.456128e-01
-1.012598e+00
-1.081108e+00
-1.151269e+00
-1.223361e+00
-1.297927e+00
-1.376009e+00
-1.459667e+00
-1.553349e+00
-1.667548e+00
-1.825316e+00
0.000000e+00
-1.525367e-02
-3.439973e-02
-5.449446e-02
-7.703102e-02
-1.024111e-01
-1.308472e-01
-1.623872e-01
-1.970029e-01
-2.346205e-01
-2.751406e-01
-3.184484e-01
-3.644200e-01
-4.129266e-01
-4.638364e-01
-5.170170e-01
-5.723360e-01
-6.296633e-01
-6.888726e-01
-7.498442e-01
-8.124688e-01
-8.766528e-01
-9.423269e-01
-1.009458e+00
-1.078072e+00
-1.148282e+00
-1.220354e+00
-1.294815e+00
-1.372684e+00
-1.455987e+00
-1.548946e+00
-1.660602e+00
-1.807998e+00
0.000000e+00
-1.120470e-02
-2.773289e-02
-4.755351e-02
-7.012944e-02
-9.569656e-02
-1.243571e-01
-1.561375e-01
-1.909997e-01
-2.288665e-01
-2.696368e-01
-3.131949e-01
-3.594163e-01
-4.081717e-01
-4.593291e-01
-5.127551e-01
-5.683171e-01
-6.258841e-01
-6.853289e-01
-7.465308e-01
-8.093797e-01
-8.737811e-01
-9.396656e-01
-1.007001e+00
-1.075816e+00
-1.146231e+00
-1.218523e+00
-1.293232e+00
-1.371364e+00
-1.454746e+00
-1.546495e+00
-1.650296e+00
-1.765442e+00
0.000000e+00
-8.972249e-03
-2.348417e-02
-4.224785e-02
-6.453364e-02
-9.009282e-02
-1.188759e-01
-1.508344e-01
-1.858995e-01
-2.239799e-01
-2.649680e-01
-3.087452e-01
-3.551862e-01
-4.041612e-01
-4.555384e-01
-5.091848e-01
-5.649682e-01
-6.227580e-01
-6.824278e-01
-7.438580e-01
-8.069396e-01
-8.715808e-01
-9.377153e-01
-1.005317e+00
-1.074419e+00
-1.145150e+00
-1.217782e+00
-1.292814e+00
-1.371070e+00
-1.453752e+00
-1.542012e+00
-1.635099e+00
-1.721753e+00
0.000000e+00
-7.591998e-03
-2.070565e-02
-3.848020e-02
-6.025797e-02
-8.564958e-02
-1.144435e-01
-1.465058e-01
-1.817208e-01
-2.199731e-01
-2.611434e-01
-3.051075e-01
-3.517377e-01
-4.009040e-01
-4.524750e-01
-5.063187e-01
-5.623042e-01
-6.203023e-01
-6.801884e-01
-7.418449e-01
-8.051653e-01
-8.700605e-01
-9.364671e-01
-1.004360e+00
-1.073772e+00
-1.144813e+00
-1.217707e+00
-1.292812e+00
-1.370603e+00
-1.451461e+00
-1.535000e+00
-1.618154e+00
-1.693620e+00
0.000000e+00
-6.713732e-03
-1.888259e-02
-3.588747e-02
-5.717501e-02
-8.232877e-02
-1.110601e-01
-1.431634e-01
-1.784770e-01
-2.168583e-01
-2.581729e-01
-3.022894e-01
-3.490771e-01
-3.984053e-01
-4.501432e-01
-5.041602e-01
-5.603271e-01
-6.185166e-01
-6.786061e-01
-7.404799e-01
-8.040329e-01
-8.691766e-01
-9.358457e-01
-1.004008e+00
-1.073676e+00
-1.144916e+00
-1.217854e+00
-1.292647e+00
-1.369383e+00
-1.447802e+00
-1.526709e+00
-1.603285e+00
-1.673276e+00
0.000000e+00
-6.167900e-03
-1.772997e-02
-3.420214e-02
-5.510966e-02
-8.004666e-02
-1.086927e-01
-1.408000e-01
-1.761719e-01
-2.146423e-01
-2.560633e-01
-3.002963e-01
-3.472076e-01
-3.966659e-01
-4.485411e-01
-5.027042e-01
-5.590276e-01
-6.173859e-01
-6.776579e-01
-7.397284e-01
-8.034918e-01
-8.688558e-01
-9.357463e-01
-1.004113e+00
-1.073932e+00
-1.145206e+00
-1.217939e+00
-1.292091e+00
-1.367448e+00
-1.443396e+00
-1.518621e+00
-1.590955e+00
-1.657740e+00
0.000000e+00
-5.867957e-03
-1.709040e-02
-3.325242e-02
-5.392535e-02
-7.871735e-02
-1.072976e-01
-1.393979e-01
-1.748013e-01
-2.133269e-01
-2.548176e-01
-2.991300e-01
-3.461286e-01
-3.956821e-01
-4.476613e-01
-5.019386e-01
-5.583879e-01
-6.168851e-01
-6.773093e-01
-7.395440e-01
-8.034800e-01
-8.690166e-01
-9.360648e-01
-1.004547e+00
-1.074395e+00
-1.145537e+00
-1.217868e+00
-1.291190e+00
-1.365113e+00
-1.438909e+00
-1.511393e+00
-1.580934e+00
-1.645719e+00
0.000000e+00
-5.771316e-03
-1.688407e-02
-3.294460e-02
-5.353937e-02
-7.828228e-02
-1.068406e-01
-1.389405e-01
-1.743587e-01
-2.129101e-01
-2.544348e-01
-2.987885e-01
-3.458358e-01
-3.954462e-01
-4.474919e-01
-5.018466e-01
-5.583851e-01
-6.169839e-01
-6.775208e-01
-7.398767e-01
-8.039355e-01
-8.695849e-01
-9.367162e-01
-1.005221e+00
-1.074983e+00
-1.145864e+00
-1.217672e+00
-1.290110e+00
-1.362710e+00
-1.434758e+00
-1.505250e+00
-1.572942e+00
-1.636506e+00
0.000000e+00
-5.865161e-03
-1.708653e-02
-3.324908e-02
-5.392434e-02
-7.872089e-02
-1.073086e-01
-1.394203e-01
-1.748402e-01
-2.133891e-01
-2.549117e-01
-2.992670e-01
-3.463219e-01
-3.959479e-01
-4.480186e-01
-5.024090e-01
-5.589944e-01
-6.176507e-01
-6.782539e-01
-7.406800e-01
-8.048048e-01
-8.705021e-01
-9.376418e-01
-1.006084e+00
-1.075671e+00
-1.146208e+00
-1.217445e+00
-1.289032e+00
-1.360489e+00
-1.431165e+00
-1.500232e+00
-1.566729e+00
-1.629639e+00
0.000000e+00
-6.162535e-03
-1.772253e-02
-3.419570e-02
-5.510764e-02
-8.005332e-02
-1.087136e-01
-1.408427e-01
-1.762462e-01
-2.147612e-01
-2.562434e-01
-3.005586e-01
-3.475780e-01
-3.971756e-01
-4.492267e-01
-5.036071e-01
-5.601922e-01
-6.188568e-01
-6.794743e-01
-7.419152e-01
-8.060462e-01
-8.717271e-01
-9.388071e-01
-1.007119e+00
-1.076468e+00
-1.146622e+00
-1.217291e+00
-1.288109e+00
-1.358612e+00
-1.428231e+00
-1.496297e+00
-1.562068e+00
-1.624765e+00
0.000000e+00
-6.706276e-03
-1.887225e-02
-3.587847e-02
-5.717210e-02
-8.233789e-02
-1.110891e-01
-1.432227e-01
-1.785805e-01
-2.170240e-01
-2.584242e-01
-3.026557e-01
-3.495947e-01
-3.991181e-01
-4.511025e-01
-5.054243e-01
-5.619587e-01
-6.205789e-01
-6.811553e-01
-7.435533e-01
-8.076306e-01
-8.732345e-01
-9.401963e-01
-1.008325e+00
-1.077401e+00
-1.147163e+00
-1.217301e+00
-1.287447e+00
-1.357170e+00
-1.425984e+00
-1.493359e+00
-1.558744e+00
-1.621570e+00
0.000000e+00
-7.583215e-03
-2.069347e-02
-3.846960e-02
-6.025460e-02
-8.566061e-02
-1.144784e-01
-1.465774e-01
-1.818457e-01
-2.201734e-01
-2.614472e-01
-3.055503e-01
-3.523637e-01
-4.017663e-01
-4.536358e-01
-5.078488e-01
-5.642799e-01
-6.228009e-01
-6.832792e-01
-7.455756e-01
-8.095407e-01
-8.750113e-01
-9.418047e-01
-1.009713e+00
-1.078497e+00
-1.147879e+00
-1.217538e+00
-1.287113e+00
-1.356207e+00
-1.424407e+00
-1.491309e+00
-1.556537e+00
-1.619741e+00
0.000000e+00
-8.963223e-03
-2.347166e-02
-4.223707e-02
-6.453075e-02
-9.010578e-02
-1.189153e-01
-1.509143e-01
-1.860384e-01
-2.242021e-01
-2.653047e-01
-3.092357e-01
-3.558789e-01
-4.051148e-01
-4.568214e-01
-5.108750e-01
-5.671496e-01
-6.255157e-01
-6.858384e-01
-7.479747e-01
-8.117701e-01
-8.770540e-01
-9.436343e-01
-1.011292e+00
-1.079776e+00
-1.148798e+00
-1.218034e+00
-1.287131e+00
-1.355721e+00
-1.423451e+00
-1.490019e+00
-1.555219e+00
-1.618944e+00
0.000000e+00
-1.119683e-02
-2.772194e-02
-4.754442e-02
-7.012857e-02
-9.571233e-02
-1.244006e-01
-1.562234e-01
-1.911473e-01
-2.291010e-01
-2.699903e-01
-3.137079e-01
-3.601388e-01
-4.091636e-01
-4.606605e-01
-5.145052e-01
-5.705709e-01
-6.287270e-01
-6.888368e-01
-7.507550e-01
-8.143237e-01
-8.793679e-01
-9.456906e-01
-1.013067e+00
-1.081240e+00
-1.149919e+00
-1.218780e+00
-1.287478e+00
-1.355667e+00
-1.423032e+00
-1.489351e+00
-1.554556e+00
-1.618805e+00
0.000000e+00
-1.524862e-02
-3.439228e-02
-5.448911e-02
-7.703433e-02
-1.024317e-01
-1.308962e-01
-1.624794e-01
-1.971575e-01
-2.348625e-01
-2.755017e-01
-3.189683e-01
-3.651473e-01
-4.139194e-01
-4.651621e-01
-5.187506e-01
-5.745573e-01
-6.324503e-01
-6.922918e-01
-7.539348e-01
-8.172197e-01
-8.819694e-01
-9.479852e-01
-1.015041e+00
-1.082880e+00
-1.151213e+00
-1.219723e+00
-1.288073e+00
-1.355932e+00
-1.423013e+00
-1.489133e+00
-1.554317e+00
-1.618924e+00
0.000000e+00
-2.454411e-02
-4.283353e-02
-6.279658e-02
-8.503288e-02
-1.101584e-01
-1.383502e-01
-1.696606e-01
-2.040627e-01
-2.414883e-01
-2.818448e-01
-3.250255e-01
-3.709157e-01
-4.193958e-01
-4.703430e-01
-5.236317e-01
-5.791333e-01
-6.367147e-01
-6.962365e-01
-7.575501e-01
-8.204946e-01
-8.848919e-01
-9.505429e-01