TITLE = "Solution"
VARIABLES = x, y, u, v, psiu, psiv, t, stress
ZONE T="structure" N=561 E=512 F=FEBLOCK ET=QUADRILATERAL VARLOCATION=([7,8]=cellcentered)
0.000000e+00
6.250000e+00
1.250000e+01
1.875000e+01
2.500000e+01
3.125000e+01
3.750000e+01
4.375000e+01
5.000000e+01
5.625000e+01
6.250000e+01
6.875000e+01
7.500000e+01
8.125000e+01
8.750000e+01
9.375000e+01
1.000000e+02
1.062500e+02
1.125000e+02
1.187500e+02
1.250000e+02
1.312500e+02
1.375000e+02
1.437500e+02
1.500000e+02
1.562500e+02
1.625000e+02
1.687500e+02
1.750000e+02
1.812500e+02
1.875000e+02
1.937500e+02
2.000000e+02
0.000000e+00
6.250000e+00
1.250000e+01
1.875000e+01
2.500000e+01
3.125000e+01
3.750000e+01
4.375000e+01
5.000000e+01
5.625000e+01
6.250000e+01
6.875000e+01
7.500000e+01
8.125000e+01
8.750000e+01
9.375000e+01
1.000000e+02
1.062500e+02
1.125000e+02
1.187500e+02
1.250000e+02
1.312500e+02
1.375000e+02
1.437500e+02
1.500000e+02
1.562500e+02
1.625000e+02
1.687500e+02
1.750000e+02
1.812500e+02
1.875000e+02
1.937500e+02
2.000000e+02
0.000000e+00
6.250000e+00
1.250000e+01
1.875000e+01
2.500000e+01
3.125000e+01
3.750000e+01
4.375000e+01
5.000000e+01
5.625000e+01
6.250000e+01
6.875000e+01
7.500000e+01
8.125000e+01
8.750000e+01
9.375000e+01
1.000000e+02
1.062500e+02
1.125000e+02
1.187500e+02
1.250000e+02
1.312500e+02
1.375000e+02
1.437500e+02
1.500000e+02
1.562500e+02
1.625000e+02
1.687500e+02
1.750000e+02
1.812500e+02
1.875000e+02
1.937500e+02
2.000000e+02
0.000000e+00
6.250000e+00
1.250000e+01
1.875000e+01
2.500000e+01
3.125000e+01
3.750000e+01
4.375000e+01
5.000000e+01
5.625000e+01
6.250000e+01
6.875000e+01
7.500000e+01
8.125000e+01
8.750000e+01
9.375000e+01
1.000000e+02
1.062500e+02
1.125000e+02
1.187500e+02
1.250000e+02
1.312500e+02
1.375000e+02
1.437500e+02
1.500000e+02
1.562500e+02
1.625000e+02
1.687500e+02
1.750000e+02
1.812500e+02
1.875000e+02
1.937500e+02
2.000000e+02
0.000000e+00
6.250000e+00
1.250000e+01
1.875000e+01
2.500000e+01
3.125000e+01
3.750000e+01
4.375000e+01
5.000000e+01
5.625000e+01
6.250000e+01
6.875000e+01
7.500000e+01
8.125000e+01
8.750000e+01
9.375000e+01
1.000000e+02
1.062500e+02
1.125000e+02
1.187500e+02
1.250000e+02
1.312500e+02
1.375000e+02
1.437500e+02
1.500000e+02
1.562500e+02
1.625000e+02
1.687500e+02
1.750000e+02
1.812500e+02
1.875000e+02
1.937500e+02
2.000000e+02
0.000000e+00
6.250000e+00
1.250000e+01
1.875000e+01
2.500000e+01
3.125000e+01
3.750000e+01
4.375000e+01
5.000000e+01
5.625000e+01
6.250000e+01
6.875000e+01
7.500000e+01
8.125000e+01
8.750000e+01
9.375000e+01
1.000000e+02
1.062500e+02
1.125000e+02
1.187500e+02
1.250000e+02
1.312500e+02
1.375000e+02
1.437500e+02
1.500000e+02
1.562500e+02
1.625000e+02
1.687500e+02
1.750000e+02
1.812500e+02
1.875000e+02
1.937500e+02
2.000000e+02
0.000000e+00
6.250000e+00
1.250000e+01
1.875000e+01
2.500000e+01
3.125000e+01
3.750000e+01
4.375000e+01
5.000000e+01
5.625000e+01
6.250000e+01
6.875000e+01
7.500000e+01
8.125000e+01
8.750000e+01
9.375000e+01
1.000000e+02
1.062500e+02
1.125000e+02
1.187500e+02
1.250000e+02
1.312500e+02
1.375000e+02
1.437500e+02
1.500000e+02
1.562500e+02
1.625000e+02
1.687500e+02
1.750000e+02
1.812500e+02
1.875000e+02
1.937500e+02
2.000000e+02
0.000000e+00
6.250000e+00
1.250000e+01
1.875000e+01
2.500000e+01
3.125000e+01
3.750000e+01
4.375000e+01
5.000000e+01
5.625000e+01
6.250000e+01
6.875000e+01
7.500000e+01
8.125000e+01
8.750000e+01
9.375000e+01
1.000000e+02
1.062500e+02
1.125000e+02
1.187500e+02
1.250000e+02
1.312500e+02
1.375000e+02
1.437500e+02
1.500000e+02
1.562500e+02
1.625000e+02
1.687500e+02
1.750000e+02
1.812500e+02
1.875000e+02
1.937500e+02
2.000000e+02
0.000000e+00
6.250000e+00
1.250000e+01
1.875000e+01
2.500000e+01
3.125000e+01
3.750000e+01
4.375000e+01
5.000000e+01
5.625000e+01
6.250000e+01
6.875000e+01
7.500000e+01
8.125000e+01
8.750000e+01
9.375000e+01
1.000000e+02
1.062500e+02
1.125000e+02
1.187500e+02
1.250000e+02
1.312500e+02
1.375000e+02
1.437500e+02
1.500000e+02
1.562500e+02
1.625000e+02
1.687500e+02
1.750000e+02
1.812500e+02
1.875000e+02
1.937500e+02
2.000000e+02
0.000000e+00
6.250000e+00
1.250000e+01
1.875000e+01
2.500000e+01
3.125000e+01
3.750000e+01
4.375000e+01
5.000000e+01
5.625000e+01
6.250000e+01
6.875000e+01
7.500000e+01
8.125000e+01
8.750000e+01
9.375000e+01
1.000000e+02
1.062500e+02
1.125000e+02
1.187500e+02
1.250000e+02
1.312500e+02
1.375000e+02
1.437500e+02
1.500000e+02
1.562500e+02
1.625000e+02
1.687500e+02
1.750000e+02
1.812500e+02
1.875000e+02
1.937500e+02
2.000000e+02
0.000000e+00
6.250000e+00
1.250000e+01
1.875000e+01
2.500000e+01
3.125000e+01
3.750000e+01
4.375000e+01
5.000000e+01
5.625000e+01
6.250000e+01
6.875000e+01
7.500000e+01
8.125000e+01
8.750000e+01
9.375000e+01
1.000000e+02
1.062500e+02
1.125000e+02
1.187500e+02
1.250000e+02
1.312500e+02
1.375000e+02
1.437500e+02
1.500000e+02
1.562500e+02
1.625000e+02
1.687500e+02
1.750000e+02
1.812500e+02
1.875000e+02
1.937500e+02
2.000000e+02
0.000000e+00
6.250000e+00
1.250000e+01
1.875000e+01
2.500000e+01
3.125000e+01
3.750000e+01
4.375000e+01
5.000000e+01
5.625000e+01
6.250000e+01
6.875000e+01
7.500000e+01
8.125000e+01
8.750000e+01
9.375000e+01
1.000000e+02
1.062500e+02
1.125000e+02
1.187500e+02
1.250000e+02
1.312500e+02
1.375000e+02
1.437500e+02
1.500000e+02
1.562500e+02
1.625000e+02
1.687500e+02
1.750000e+02
1.812500e+02
1.875000e+02
1.937500e+02
2.000000e+02
0.000000e+00
6.250000e+00
1.250000e+01
1.875000e+01
2.500000e+01
3.125000e+01
3.750000e+01
4.375000e+01
5.000000e+01
5.625000e+01
6.250000e+01
6.875000e+01
7.500000e+01
8.125000e+01
8.750000e+01
9.375000e+01
1.000000e+02
1.062500e+02
1.125000e+02
1.187500e+02
1.250000e+02
1.312500e+02
1.375000e+02
1.437500e+02
1.500000e+02
1.562500e+02
1.625000e+02
1.687500e+02
1.750000e+02
1.812500e+02
1.875000e+02
1.937500e+02
2.000000e+02
0.000000e+00
6.250000e+00
1.250000e+01
1.875000e+01
2.500000e+01
3.125000e+01
3.750000e+01
4.375000e+01
5.000000e+01
5.625000e+01
6.250000e+01
6.875000e+01
7.500000e+01
8.125000e+01
8.750000e+01
9.375000e+01
1.000000e+02
1.062500e+02
1.125000e+02
1.187500e+02
1.250000e+02
1.312500e+02
1.375000e+02
1.437500e+02
1.500000e+02
1.562500e+02
1.625000e+02
1.687500e+02
1.750000e+02
1.812500e+02
1.875000e+02
1.937500e+02
2.000000e+02
0.000000e+00
6.250000e+00
1.250000e+01
1.875000e+01
2.500000e+01
3.125000e+01
3.750000e+01
4.375000e+01
5.000000e+01
5.625000e+01
6.250000e+01
6.875000e+01
7.500000e+01
8.125000e+01
8.750000e+01
9.375000e+01
1.000000e+02
1.062500e+02
1.125000e+02
1.187500e+02
1.250000e+02
1.312500e+02
1.375000e+02
1.437500e+02
1.500000e+02
1.562500e+02
1.625000e+02
1.687500e+02
1.750000e+02
1.812500e+02
1.875000e+02
1.937500e+02
2.000000e+02
0.000000e+00
6.250000e+00
1.250000e+01
1.875000e+01
2.500000e+01
3.125000e+01
3.750000e+01
4.375000e+01
5.000000e+01
5.625000e+01
6.250000e+01
6.875000e+01
7.500000e+01
8.125000e+01
8.750000e+01
9.375000e+01
1.000000e+02
1.062500e+02
1.125000e+02
1.187500e+02
1.250000e+02
1.312500e+02
1.375000e+02
1.437500e+02
1.500000e+02
1.562500e+02
1.625000e+02
1.687500e+02
1.750000e+02
1.812500e+02
1.875000e+02
1.937500e+02
2.000000e+02
0.000000e+00
6.250000e+00
1.250000e+01
1.875000e+01
2.500000e+01
3.125000e+01
3.750000e+01
4.375000e+01
5.000000e+01
5.625000e+01
6.250000e+01
6.875000e+01
7.500000e+01
8.125000e+01
8.750000e+01
9.375000e+01
1.000000e+02
1.062500e+02
1.125000e+02
1.187500e+02
1.250000e+02
1.312500e+02
1.375000e+02
1.437500e+02
1.500000e+02
1.562500e+02
1.625000e+02
1.687500e+02
1.750000e+02
1.812500e+02
1.875000e+02
1.937500e+02
2.000000e+02
0.000000e+00
0.000000e+00
0.000000e+00
0.000000e+00
0.000000e+00
0.000000e+00
0.000000e+00
0.000000e+00
0.000000e+00
0.000000e+00
0.000000e+00
0.000000e+00
0.000000e+00
0.000000e+00
0.000000e+00
0.000000e+00
0.000000e+00
0.000000e+00
0.000000e+00
0.000000e+00
0.000000e+00
0.000000e+00
0.000000e+00
0.000000e+00
0.000000e+00
0.000000e+00
0.000000e+00
0.000000e+00
0.000000e+00
0.000000e+00
0.000000e+00
0.000000e+00
0.000000e+00
6.250000e+00
6.250000e+00
6.250000e+00
6.250000e+00
6.250000e+00
6.250000e+00
6.250000e+00
6.250000e+00
6.250000e+00
6.250000e+00
6.250000e+00
6.250000e+00
6.250000e+00
6.250000e+00
6.250000e+00
6.250000e+00
6.250000e+00
6.250000e+00
6.250000e+00
6.250000e+00
6.250000e+00
6.250000e+00
6.250000e+00
6.250000e+00
6.250000e+00
6.250000e+00
6.250000e+00
6.250000e+00
6.250000e+00
6.250000e+00
6.250000e+00
6.250000e+00
6.250000e+00
1.250000e+01
1.250000e+01
1.250000e+01
1.250000e+01
1.250000e+01
1.250000e+01
1.250000e+01
1.250000e+01
1.250000e+01
1.250000e+01
1.250000e+01
1.250000e+01
1.250000e+01
1.250000e+01
1.250000e+01
1.250000e+01
1.250000e+01
1.250000e+01
1.250000e+01
1.250000e+01
1.250000e+01
1.250000e+01
1.250000e+01
1.250000e+01
1.250000e+01
1.250000e+01
1.250000e+01
1.250000e+01
1.250000e+01
1.250000e+01
1.250000e+01
1.250000e+01
1.250000e+01
1.875000e+01
1.875000e+01
1.875000e+01
1.875000e+01
1.875000e+01
1.875000e+01
1.875000e+01
1.875000e+01
1.875000e+01
1.875000e+01
1.875000e+01
1.875000e+01
1.875000e+01
1.875000e+01
1.875000e+01
1.875000e+01
1.875000e+01
1.875000e+01
1.875000e+01
1.875000e+01
1.875000e+01
1.875000e+01
1.875000e+01
1.875000e+01
1.875000e+01
1.875000e+01
1.875000e+01
1.875000e+01
1.875000e+01
1.875000e+01
1.875000e+01
1.875000e+01
1.875000e+01
2.500000e+01
2.500000e+01
2.500000e+01
2.500000e+01
2.500000e+01
2.500000e+01
2.500000e+01
2.500000e+01
2.500000e+01
2.500000e+01
2.500000e+01
2.500000e+01
2.500000e+01
2.500000e+01
2.500000e+01
2.500000e+01
2.500000e+01
2.500000e+01
2.500000e+01
2.500000e+01
2.500000e+01
2.500000e+01
2.500000e+01
2.500000e+01
2.500000e+01
2.500000e+01
2.500000e+01
2.500000e+01
2.500000e+01
2.500000e+01
2.500000e+01
2.500000e+01
2.500000e+01
3.125000e+01
3.125000e+01
3.125000e+01
3.125000e+01
3.125000e+01
3.125000e+01
3.125000e+01
3.125000e+01
3.125000e+01
3.125000e+01
3.125000e+01
3.125000e+01
3.125000e+01
3.125000e+01
3.125000e+01
3.125000e+01
3.125000e+01
3.125000e+01
3.125000e+01
3.125000e+01
3.125000e+01
3.125000e+01
3.125000e+01
3.125000e+01
3.125000e+01
3.125000e+01
3.125000e+01
3.125000e+01
3.125000e+01
3.125000e+01
3.125000e+01
3.125000e+01
3.125000e+01
3.750000e+01
3.750000e+01
3.750000e+01
3.750000e+01
3.750000e+01
3.750000e+01
3.750000e+01
3.750000e+01
3.750000e+01
3.750000e+01
3.750000e+01
3.750000e+01
3.750000e+01
3.750000e+01
3.750000e+01
3.750000e+01
3.750000e+01
3.750000e+01
3.750000e+01
3.750000e+01
3.750000e+01
3.750000e+01
3.750000e+01
3.750000e+01
3.750000e+01
3.750000e+01
3.750000e+01
3.750000e+01
3.750000e+01
3.750000e+01
3.750000e+01
3.750000e+01
3.750000e+01
4.375000e+01
4.375000e+01
4.375000e+01
4.375000e+01
4.375000e+01
4.375000e+01
4.375000e+01
4.375000e+01
4.375000e+01
4.375000e+01
4.375000e+01
4.375000e+01
4.375000e+01
4.375000e+01
4.375000e+01
4.375000e+01
4.375000e+01
4.375000e+01
4.375000e+01
4.375000e+01
4.375000e+01
4.375000e+01
4.375000e+01
4.375000e+01
4.375000e+01
4.375000e+01
4.375000e+01
4.375000e+01
4.375000e+01
4.375000e+01
4.375000e+01
4.375000e+01
4.375000e+01
5.000000e+01
5.000000e+01
5.000000e+01
5.000000e+01
5.000000e+01
5.000000e+01
5.000000e+01
5.000000e+01
5.000000e+01
5.000000e+01
5.000000e+01
5.000000e+01
5.000000e+01
5.000000e+01
5.000000e+01
5.000000e+01
5.000000e+01
5.000000e+01
5.000000e+01
5.000000e+01
5.000000e+01
5.000000e+01
5.000000e+01
5.000000e+01
5.000000e+01
5.000000e+01
5.000000e+01
5.000000e+01
5.000000e+01
5.000000e+01
5.000000e+01
5.000000e+01
5.000000e+01
5.625000e+01
5.625000e+01
5.625000e+01
5.625000e+01
5.625000e+01
5.625000e+01
5.625000e+01
5.625000e+01
5.625000e+01
5.625000e+01
5.625000e+01
5.625000e+01
5.625000e+01
5.625000e+01
5.625000e+01
5.625000e+01
5.625000e+01
5.625000e+01
5.625000e+01
5.625000e+01
5.625000e+01
5.625000e+01
5.625000e+01
5.625000e+01
5.625000e+01
5.625000e+01
5.625000e+01
5.625000e+01
5.625000e+01
5.625000e+01
5.625000e+01
5.625000e+01
5.625000e+01
6.250000e+01
6.250000e+01
6.250000e+01
6.250000e+01
6.250000e+01
6.250000e+01
6.250000e+01
6.250000e+01
6.250000e+01
6.250000e+01
6.250000e+01
6.250000e+01
6.250000e+01
6.250000e+01
6.250000e+01
6.250000e+01
6.250000e+01
6.250000e+01
6.250000e+01
6.250000e+01
6.250000e+01
6.250000e+01
6.250000e+01
6.250000e+01
6.250000e+01
6.250000e+01
6.250000e+01
6.250000e+01
6.250000e+01
6.250000e+01
6.250000e+01
6.250000e+01
6.250000e+01
6.875000e+01
6.875000e+01
6.875000e+01
6.875000e+01
6.875000e+01
6.875000e+01
6.875000e+01
6.875000e+01
6.875000e+01
6.875000e+01
6.875000e+01
6.875000e+01
6.875000e+01
6.875000e+01
6.875000e+01
6.875000e+01
6.875000e+01
6.875000e+01
6.875000e+01
6.875000e+01
6.875000e+01
6.875000e+01
6.875000e+01
6.875000e+01
6.875000e+01
6.875000e+01
6.875000e+01
6.875000e+01
6.875000e+01
6.875000e+01
6.875000e+01
6.875000e+01
6.875000e+01
7.500000e+01
7.500000e+01
7.500000e+01
7.500000e+01
7.500000e+01
7.500000e+01
7.500000e+01
7.500000e+01
7.500000e+01
7.500000e+01
7.500000e+01
7.500000e+01
7.500000e+01
7.500000e+01
7.500000e+01
7.500000e+01
7.500000e+01
7.500000e+01
7.500000e+01
7.500000e+01
7.500000e+01
7.500000e+01
7.500000e+01
7.500000e+01
7.500000e+01
7.500000e+01
7.500000e+01
7.500000e+01
7.500000e+01
7.500000e+01
7.500000e+01
7.500000e+01
7.500000e+01
8.125000e+01
8.125000e+01
8.125000e+01
8.125000e+01
8.125000e+01
8.125000e+01
8.125000e+01
8.125000e+01
8.125000e+01
8.125000e+01
8.125000e+01
8.125000e+01
8.125000e+01
8.125000e+01
8.125000e+01
8.125000e+01
8.125000e+01
8.125000e+01
8.125000e+01
8.125000e+01
8.125000e+01
8.125000e+01
8.125000e+01
8.125000e+01
8.125000e+01
8.125000e+01
8.125000e+01
8.125000e+01
8.125000e+01
8.125000e+01
8.125000e+01
8.125000e+01
8.125000e+01
8.750000e+01
8.750000e+01
8.750000e+01
8.750000e+01
8.750000e+01
8.750000e+01
8.750000e+01
8.750000e+01
8.750000e+01
8.750000e+01
8.750000e+01
8.750000e+01
8.750000e+01
8.750000e+01
8.750000e+01
8.750000e+01
8.750000e+01
8.750000e+01
8.750000e+01
8.750000e+01
8.750000e+01
8.750000e+01
8.750000e+01
8.750000e+01
8.750000e+01
8.750000e+01
8.750000e+01
8.750000e+01
8.750000e+01
8.750000e+01
8.750000e+01
8.750000e+01
8.750000e+01
9.375000e+01
9.375000e+01
9.375000e+01
9.375000e+01
9.375000e+01
9.375000e+01
9.375000e+01
9.375000e+01
9.375000e+01
9.375000e+01
9.375000e+01
9.375000e+01
9.375000e+01
9.375000e+01
9.375000e+01
9.375000e+01
9.375000e+01
9.375000e+01
9.375000e+01
9.375000e+01
9.375000e+01
9.375000e+01
9.375000e+01
9.375000e+01
9.375000e+01
9.375000e+01
9.375000e+01
9.375000e+01
9.375000e+01
9.375000e+01
9.375000e+01
9.375000e+01
9.375000e+01
1.000000e+02
1.000000e+02
1.000000e+02
1.000000e+02
1.000000e+02
1.000000e+02
1.000000e+02
1.000000e+02
1.000000e+02
1.000000e+02
1.000000e+02
1.000000e+02
1.000000e+02
1.000000e+02
1.000000e+02
1.000000e+02
1.000000e+02
1.000000e+02
1.000000e+02
1.000000e+02
1.000000e+02
1.000000e+02
1.000000e+02
1.000000e+02
1.000000e+02
1.000000e+02
1.000000e+02
1.000000e+02
1.000000e+02
1.000000e+02
1.000000e+02
1.000000e+02
1.000000e+02
0.000000e+00
-5.471778e-02
-9.927813e-02
-1.405570e-01
-1.801732e-01
-2.184286e-01
-2.554001e-01
-2.910845e-01
-3.254592e-01
-3.584992e-01
-3.901838e-01
-4.204987e-01
-4.494365e-01
-4.769967e-01
-5.031857e-01
-5.280172e-01
-5.515135e-01
-5.737069e-01
-5.946421e-01
-6.143792e-01
-6.329985e-01
-6.506062e-01
-6.673425e-01
-6.833935e-01
-6.990085e-01
-7.145263e-01
-7.304175e-01
-7.473533e-01
-7.663180e-01
-7.887603e-01
-8.165597e-01
-8.496889e-01
-8.699072e-01
0.000000e+00
-3.668678e-02
-7.633079e-02
-1.137099e-01
-1.492373e-01
-1.832513e-01
-2.159316e-01
-2.473570e-01
-2.775586e-01
-3.065466e-01
-3.343230e-01
-3.608878e-01
-3.862423e-01
-4.103905e-01
-4.333405e-01
-4.551050e-01
-4.757026e-01
-4.951587e-01
-5.135069e-01
-5.307912e-01
-5.470673e-01
-5.624056e-01
-5.768936e-01
-5.906380e-01
-6.037667e-01
-6.164267e-01
-6.287730e-01
-6.409333e-01
-6.529069e-01
-6.643041e-01
-6.738012e-01
-6.793535e-01
-6.870834e-01
0.000000e+00
-2.910004e-02
-5.990942e-02
-9.127830e-02
-1.217592e-01
-1.511168e-01
-1.793324e-01
-2.064327e-01
-2.324417e-01
-2.573758e-01
-2.812455e-01
-3.040583e-01
-3.258205e-01
-3.465386e-01
-3.662201e-01
-3.848747e-01
-4.025145e-01
-4.191547e-01
-4.348139e-01
-4.495146e-01
-4.632823e-01
-4.761451e-01
-4.881302e-01
-4.992589e-01
-5.095357e-01
-5.189276e-01
-5.273271e-01
-5.344870e-01
-5.399231e-01
-5.428502e-01
-5.425936e-01
-5.409499e-01
-5.499763e-01
0.000000e+00
-2.308830e-02
-4.745172e-02
-7.248210e-02
-9.745385e-02
-1.218208e-01
-1.453741e-01
-1.680391e-01
-1.897955e-01
-2.106424e-01
-2.305850e-01
-2.496302e-01
-2.677844e-01
-2.850531e-01
-3.014416e-01
-3.169545e-01
-3.315960e-01
-3.453698e-01
-3.582789e-01
-3.703238e-01
-3.815017e-01
-3.918021e-01
-4.012023e-01
-4.096585e-01
-4.170926e-01
-4.233735e-01
-4.282932e-01
-4.315511e-01
-4.327950e-01
-4.318716e-01
-4.296288e-01
-4.294949e-01
-4.380948e-01
0.000000e+00
-1.791974e-02
-3.669353e-02
-5.606705e-02
-7.559797e-02
-9.488936e-02
-1.136750e-01
-1.318202e-01
-1.492637e-01
-1.659819e-01
-1.819685e-01
-1.972245e-01
-2.117527e-01
-2.255556e-01
-2.386341e-01
-2.509869e-01
-2.626103e-01
-2.734972e-01
-2.836364e-01
-2.930109e-01
-3.015956e-01
-3.093536e-01
-3.162320e-01
-3.221551e-01
-3.270184e-01
-3.306842e-01
-3.329910e-01
-3.338002e-01
-3.331363e-01
-3.315120e-01
-3.304582e-01
-3.328917e-01
-3.402278e-01
0.000000e+00
-1.316997e-02
-2.690420e-02
-4.107967e-02
-5.545145e-02
-6.975128e-02
-8.376616e-02
-9.735766e-02
-1.104498e-01
-1.230056e-01
-1.350096e-01
-1.464561e-01
-1.573432e-01
-1.676691e-01
-1.774297e-01
-1.866182e-01
-1.952236e-01
-2.032303e-01
-2.106165e-01
-2.173533e-01
-2.234028e-01
-2.287160e-01
-2.332308e-01
-2.368714e-01
-2.395514e-01
-2.411867e-01
-2.417293e-01
-2.412424e-01
-2.400424e-01
-2.389007e-01
-2.391786e-01
-2.422810e-01
-2.483511e-01
0.000000e+00
-8.667427e-03
-1.767769e-02
-2.697379e-02
-3.642316e-02
-4.586676e-02
-5.516215e-02
-6.420554e-02
-7.293194e-02
-8.130553e-02
-8.930818e-02
-9.693078e-02
-1.041675e-01
-1.110123e-01
-1.174569e-01
-1.234896e-01
-1.290940e-01
-1.342487e-01
-1.389259e-01
-1.430912e-01
-1.467029e-01
-1.497118e-01
-1.520633e-01
-1.537019e-01
-1.545824e-01
-1.546916e-01
-1.540896e-01
-1.529757e-01
-1.517736e-01
-1.511909e-01
-1.521000e-01
-1.551205e-01
-1.600204e-01
0.000000e+00
-4.305109e-03
-8.772977e-03
-1.338064e-02
-1.806991e-02
-2.276670e-02
-2.740068e-02
-3.191678e-02
-3.627782e-02
-4.046107e-02
-4.445308e-02
-4.824494e-02
-5.182889e-02
-5.519604e-02
-5.833492e-02
-6.123044e-02
-6.386319e-02
-6.620887e-02
-6.823798e-02
-6.991596e-02
-7.120404e-02
-7.206143e-02
-7.244982e-02
-7.234179e-02
-7.173522e-02
-7.067640e-02
-6.929345e-02
-6.783629e-02
-6.670510e-02
-6.642173e-02
-6.748834e-02
-7.012326e-02
-7.401124e-02
0.000000e+00
-6.946005e-06
-1.506090e-05
-2.389515e-05
-3.298405e-05
-4.170108e-05
-4.910199e-05
-5.375190e-05
-5.352311e-05
-4.535184e-05
-2.494448e-05
1.357177e-05
7.805324e-05
1.787904e-04
3.289827e-04
5.451975e-04
8.477404e-04
1.260824e-03
1.812353e-03
2.533045e-03
3.454483e-03
4.605495e-03
6.006047e-03
7.657659e-03
9.529390e-03
1.153925e-02
1.353336e-02
1.527070e-02
1.643044e-02
1.666563e-02
1.571865e-02
1.357403e-02
1.057039e-02
0.000000e+00
4.292026e-03
8.744552e-03
1.333545e-02
1.800739e-02
2.268743e-02
2.730698e-02
3.181368e-02
3.617428e-02
4.037181e-02
4.440084e-02
4.826350e-02
5.196679e-02
5.552121e-02
5.894019e-02
6.223997e-02
6.543961e-02
6.856083e-02
7.162744e-02
7.466393e-02
7.769301e-02
8.073134e-02
8.378326e-02
8.683182e-02
8.982748e-02
9.267569e-02
9.522737e-02
9.727969e-02
9.859837e-02
9.897170e-02
9.829556e-02
9.666640e-02
9.443711e-02
0.000000e+00
8.656740e-03
1.765431e-02
2.693635e-02
3.637096e-02
4.579995e-02
5.508227e-02
6.411623e-02
7.284001e-02
8.122237e-02
8.925169e-02
9.692778e-02
1.042569e-01
1.112488e-01
1.179159e-01
1.242723e-01
1.303339e-01
1.361181e-01
1.416428e-01
1.469251e-01
1.519786e-01
1.568099e-01
1.614123e-01
1.657592e-01
1.697961e-01
1.734334e-01
1.765445e-01
1.789745e-01
1.805649e-01
1.812009e-01
1.808739e-01
1.797466e-01
1.781907e-01
0.000000e+00
1.316316e-02
2.688901e-02
4.105494e-02
5.541633e-02
6.970543e-02
8.371007e-02
9.729310e-02
1.103805e-01
1.229382e-01
1.349548e-01
1.464305e-01
1.573711e-01
1.677853e-01
1.776827e-01
1.870740e-01
1.959701e-01
2.043823e-01
2.123215e-01
2.197968e-01
2.268135e-01
2.333698e-01
2.394531e-01
2.450348e-01
2.500654e-01
2.544720e-01
2.581594e-01
2.610213e-01
2.629620e-01
2.639345e-01
2.639892e-01
2.633279e-01
2.623446e-01
0.000000e+00
1.791805e-02
3.668930e-02
5.605946e-02
7.558625e-02
9.487284e-02
1.136533e-01
1.317932e-01
1.492320e-01
1.659468e-01
1.819328e-01
1.971928e-01
2.117323e-01
2.255573e-01
2.386736e-01
2.510867e-01
2.628011e-01
2.738208e-01
2.841483e-01
2.937842e-01
3.027256e-01
3.109642e-01
3.184842e-01
3.252596e-01
3.312524e-01
3.364121e-01
3.406799e-01
3.439967e-01
3.463212e-01
3.476567e-01
3.480899e-01
3.478416e-01
3.473236e-01
0.000000e+00
2.309259e-02
4.746044e-02
7.249507e-02
9.747071e-02
1.218410e-01
1.453971e-01
1.680637e-01
1.898197e-01
2.106633e-01
2.305982e-01
2.496289e-01
2.677591e-01
2.849908e-01
3.013242e-01
3.167581e-01
3.312895e-01
3.449137e-01
3.576240e-01
3.694112e-01
3.802637e-01
3.901661e-01
3.990997e-01
4.070421e-01
4.139677e-01
4.198507e-01
4.246691e-01
4.284119e-01
4.310906e-01
4.327553e-01
4.335211e-01
4.336124e-01
4.334405e-01
0.000000e+00
2.911051e-02
5.993177e-02
9.131330e-02
1.218075e-01
1.511790e-01
1.794086e-01
2.065220e-01
2.325416e-01
2.574812e-01
2.813473e-01
3.041419e-01
3.258635e-01
3.465080e-01
3.660688e-01
3.845372e-01
4.019018e-01
4.181483e-01
4.332597e-01
4.472157e-01
4.599934e-01
4.715682e-01
4.819146e-01
4.910096e-01
4.988360e-01
5.053877e-01
5.106766e-01
5.147400e-01
5.176481e-01
5.195107e-01
5.204857e-01
5.208032e-01
5.208411e-01
0.000000e+00
3.670250e-02
7.636513e-02
1.137651e-01
1.493161e-01
1.833565e-01
2.160654e-01
2.475206e-01
2.777514e-01
3.067649e-01
3.345576e-01
3.611221e-01
3.864482e-01
4.105244e-01
4.333370e-01
4.548697e-01
4.751030e-01
4.940130e-01
5.115712e-01
5.277447e-01
5.424960e-01
5.557854e-01
5.675738e-01
5.778273e-01
5.865246e-01
5.936663e-01
5.992860e-01
6.034628e-01
6.063321e-01
6.080902e-01
6.089884e-01
6.093141e-01
6.093939e-01
0.000000e+00
5.473499e-02
9.931828e-02
1.406258e-01
1.802761e-01
2.185714e-01
2.555885e-01
2.913240e-01
3.257541e-01
3.588514e-01
3.905903e-01
4.209488e-01
4.499072e-01
4.774473e-01
5.035496e-01
5.281925e-01
5.513497e-01
5.729890e-01
5.930708e-01
6.115474e-01
6.283634e-01
6.434568e-01
6.567628e-01
6.682205e-01
6.777825e-01
6.854295e-01
6.911887e-01
6.951562e-01
6.975210e-01
6.985866e-01
6.987802e-01
6.986198e-01
6.985295e-01
0.000000e+00
-3.381455e-02
-5.901371e-02
-8.651210e-02
-1.171332e-01
-1.517228e-01
-1.905213e-01
-2.335960e-01
-2.809042e-01
-3.323444e-01
-3.877802e-01
-4.470549e-01
-5.099992e-01
-5.764370e-01
-6.461888e-01
-7.190735e-01
-7.949112e-01
-8.735253e-01
-9.547450e-01
-1.038409e+00
-1.124373e+00
-1.212513e+00
-1.302743e+00
-1.395027e+00
-1.489411e+00
-1.586070e+00
-1.685389e+00
-1.788117e+00
-1.895688e+00
-2.010941e+00
-2.140005e+00
-2.297332e+00
-2.514685e+00
0.000000e+00
-2.101445e-02
-4.739134e-02
-7.507521e-02
-1.061231e-01
-1.410885e-01
-1.802639e-01
-2.237157e-01
-2.714046e-01
-3.232293e-01
-3.790526e-01
-4.387164e-01
-5.020501e-01
-5.688762e-01
-6.390132e-01
-7.122785e-01
-7.884899e-01
-8.674681e-01
-9.490391e-01
-1.033038e+00
-1.119314e+00
-1.207738e+00
-1.298216e+00
-1.390701e+00
-1.485228e+00
-1.581955e+00
-1.681247e+00
-1.783829e+00
-1.891107e+00
-2.005872e+00
-2.133938e+00
-2.287764e+00
-2.490827e+00
0.000000e+00
-1.543633e-02
-3.820668e-02
-6.551290e-02
-9.661502e-02
-1.318380e-01
-1.713227e-01
-2.151056e-01
-2.631342e-01
-3.153022e-01
-3.714702e-01
-4.314788e-01
-4.951566e-01
-5.623256e-01
-6.328035e-01
-7.064070e-01
-7.829532e-01
-8.622615e-01
-9.441569e-01
-1.028473e+00
-1.115058e+00
-1.203782e+00
-1.294549e+00
-1.387316e+00
-1.482120e+00
-1.579129e+00
-1.678724e+00
-1.781648e+00
-1.889289e+00
-2.004162e+00
-2.130562e+00
-2.273566e+00
-2.432199e+00
0.000000e+00
-1.236077e-02
-3.235336e-02
-5.820347e-02
-8.890588e-02
-1.241180e-01
-1.637715e-01
-2.077997e-01
-2.561078e-01
-3.085700e-01
-3.650380e-01
-4.253486e-01
-4.893290e-01
-5.568004e-01
-6.275812e-01
-7.014883e-01
-7.783394e-01
-8.579548e-01
-9.401602e-01
-1.024791e+00
-1.111697e+00
-1.200751e+00
-1.291863e+00
-1.384995e+00
-1.480195e+00
-1.577639e+00
-1.677702e+00
-1.781072e+00
-1.888883e+00
-2.002793e+00
-2.124386e+00
-2.252629e+00
-2.372009e+00
0.000000e+00
-1.045925e-02
-2.852550e-02
-5.301292e-02
-8.301544e-02
-1.179966e-01
-1.576651e-01
-2.018364e-01
-2.503509e-01
-3.030500e-01
-3.597690e-01
-4.203370e-01
-4.845780e-01
-5.523130e-01
-6.233608e-01
-6.975398e-01
-7.746693e-01
-8.545717e-01
-9.370751e-01
-1.022017e+00
-1.109252e+00
-1.198656e+00
-1.290143e+00
-1.383677e+00
-1.479303e+00
-1.577175e+00
-1.677599e+00
-1.781070e+00
-1.888240e+00
-1.999636e+00
-2.114726e+00
-2.229284e+00
-2.333252e+00
0.000000e+00
-9.249300e-03
-2.601395e-02
-4.944100e-02
-7.876816e-02
-1.134217e-01
-1.530039e-01
-1.972317e-01
-2.458820e-01
-2.987587e-01
-3.556766e-01
-4.164546e-01
-4.809126e-01
-5.488706e-01
-6.201484e-01
-6.945661e-01
-7.719455e-01
-8.521115e-01
-9.348952e-01
-1.020137e+00
-1.107692e+00
-1.197439e+00
-1.289287e+00
-1.383192e+00
-1.479171e+00
-1.577317e+00
-1.677801e+00
-1.780842e+00
-1.886559e+00
-1.994594e+00
-2.103303e+00
-2.208800e+00
-2.305224e+00
0.000000e+00
-8.497329e-03
-2.442602e-02
-4.711919e-02
-7.592279e-02
-1.102777e-01
-1.497424e-01
-1.939757e-01
-2.427063e-01
-2.957059e-01
-3.527704e-01
-4.137088e-01
-4.783371e-01
-5.464743e-01
-6.179412e-01
-6.925602e-01
-7.701552e-01
-8.505538e-01
-9.335888e-01
-1.019102e+00
-1.106947e+00
-1.196997e+00
-1.289150e+00
-1.383337e+00
-1.479525e+00
-1.577716e+00
-1.677919e+00
-1.780076e+00
-1.883893e+00
-1.988525e+00
-2.092161e+00
-2.191813e+00
-2.283820e+00
0.000000e+00
-8.084110e-03
-2.354492e-02
-4.581079e-02
-7.429122e-02
-1.084463e-01
-1.478205e-01
-1.920440e-01
-2.408181e-01
-2.938937e-01
-3.510542e-01
-4.121020e-01
-4.768506e-01
-5.451189e-01
-6.167291e-01
-6.915054e-01
-7.692740e-01
-8.498639e-01
-9.331085e-01
-1.018848e+00
-1.106930e+00
-1.197218e+00
-1.289589e+00
-1.383935e+00
-1.480163e+00
-1.578173e+00
-1.677821e+00
-1.778835e+00
-1.880676e+00
-1.982343e+00
-2.082203e+00
-2.178007e+00
-2.267259e+00
0.000000e+00
-7.950972e-03
-2.326065e-02
-4.538673e-02
-7.375947e-02
-1.078470e-01
-1.471909e-01
-1.914138e-01
-2.402084e-01
-2.933195e-01
-3.505268e-01
-4.116315e-01
-4.764471e-01
-5.447939e-01
-6.164957e-01
-6.913786e-01
-7.692702e-01
-8.499999e-01
-9.334000e-01
-1.019306e+00
-1.107558e+00
-1.198001e+00
-1.290486e+00
-1.384863e+00
-1.480973e+00
-1.578624e+00
-1.677551e+00
-1.777347e+00
-1.877366e+00
-1.976624e+00
-2.073740e+00
-2.166997e+00
-2.254567e+00
0.000000e+00
-8.080259e-03
-2.353958e-02
-4.580619e-02
-7.428983e-02
-1.084512e-01
-1.478356e-01
-1.920749e-01
-2.408717e-01
-2.939793e-01
-3.511838e-01
-4.122907e-01
-4.771168e-01
-5.454851e-01
-6.172214e-01
-6.921535e-01
-7.701095e-01
-8.509186e-01
-9.344099e-01
-1.020413e+00
-1.108755e+00
-1.199265e+00
-1.291761e+00
-1.386052e+00
-1.481920e+00
-1.579098e+00
-1.677238e+00
-1.775862e+00
-1.874307e+00
-1.971674e+00
-2.066827e+00
-2.158437e+00
-2.245107e+00
0.000000e+00
-8.489939e-03
-2.441577e-02
-4.711031e-02
-7.592001e-02
-1.102869e-01
-1.497712e-01
-1.940345e-01
-2.428087e-01
-2.958697e-01
-3.530185e-01
-4.140701e-01
-4.788473e-01
-5.471764e-01
-6.188857e-01
-6.938040e-01
-7.717597e-01
-8.525803e-01
-9.360912e-01
-1.022114e+00
-1.110466e+00
-1.200953e+00
-1.293367e+00
-1.387478e+00
-1.483018e+00
-1.579667e+00
-1.677026e+00
-1.774590e+00
-1.871720e+00
-1.967632e+00
-2.061405e+00
-2.152016e+00
-2.238392e+00
0.000000e+00
-9.239028e-03
-2.599969e-02
-4.942861e-02
-7.876415e-02
-1.134342e-01
-1.530438e-01
-1.973134e-01
-2.460246e-01
-2.989871e-01
-3.560229e-01
-4.169593e-01
-4.816257e-01
-5.498526e-01
-6.214700e-01
-6.963075e-01
-7.741933e-01
-8.549528e-01
-9.384072e-01
-1.024371e+00
-1.112649e+00
-1.203029e+00
-1.295281e+00
-1.389140e+00
-1.484304e+00
-1.580413e+00
-1.677040e+00
-1.773678e+00
-1.869734e+00
-1.964537e+00
-2.057358e+00
-2.147436e+00
-2.233990e+00
0.000000e+00
-1.044715e-02
-2.850872e-02
-5.299832e-02
-8.301080e-02
-1.180118e-01
-1.577132e-01
-2.019349e-01
-2.505230e-01
-3.033258e-01
-3.601875e-01
-4.209471e-01
-4.854405e-01
-5.535009e-01
-6.249601e-01
-6.996477e-01
-7.773912e-01
-8.580139e-01
-9.413332e-01
-1.027157e+00
-1.115280e+00
-1.205477e+00
-1.297496e+00
-1.391052e+00
-1.485814e+00
-1.581399e+00
-1.677367e+00
-1.773218e+00
-1.868407e+00
-1.962365e+00
-2.054533e+00
-2.144396e+00
-2.231471e+00
0.000000e+00
-1.234833e-02
-3.233613e-02
-5.818863e-02
-8.890190e-02
-1.241358e-01
-1.638258e-01
-2.079097e-01
-2.562992e-01
-3.088762e-01
-3.655019e-01
-4.260243e-01
-4.902833e-01
-5.581141e-01
-6.293487e-01
-7.038168e-01
-7.813448e-01
-8.617541e-01
-9.448589e-01
-1.030462e+00
-1.118351e+00
-1.208291e+00
-1.300017e+00
-1.393227e+00
-1.487575e+00
-1.582665e+00
-1.678050e+00
-1.773243e+00
-1.867738e+00
-1.961047e+00
-2.052757e+00
-2.142580e+00
-2.230373e+00
0.000000e+00
-1.542549e-02
-3.819159e-02
-6.550037e-02
-9.661383e-02
-1.318598e-01
-1.713826e-01
-2.152240e-01
-2.633376e-01
-3.156252e-01
-3.719572e-01
-4.321856e-01
-4.961520e-01
-5.636920e-01
-6.346378e-01
-7.088181e-01
-7.860582e-01
-8.661782e-01
-9.489897e-01
-1.034293e+00
-1.121869e+00
-1.211479e+00
-1.302850e+00
-1.395672e+00
-1.489592e+00
-1.584209e+00
-1.679078e+00
-1.773721e+00
-1.867662e+00
-1.960470e+00
-2.051836e+00
-2.141667e+00
-2.230181e+00
0.000000e+00
-2.100749e-02
-4.738107e-02
-7.506784e-02
-1.061277e-01
-1.411168e-01
-1.803314e-01
-2.238427e-01
-2.716177e-01
-3.235627e-01
-3.795501e-01
-4.394326e-01
-5.030521e-01
-5.702439e-01
-6.408395e-01
-7.146668e-01
-7.915501e-01
-8.713077e-01
-9.537496e-01
-1.038673e+00
-1.125859e+00
-1.215063e+00
-1.306011e+00
-1.398392e+00
-1.491852e+00
-1.585993e+00
-1.680376e+00
-1.774540e+00
-1.868028e+00
-1.960443e+00
-2.051536e+00
-2.141338e+00
-2.230344e+00
0.000000e+00
-3.381356e-02
-5.901029e-02
-8.651275e-02
-1.171470e-01
-1.517617e-01
-1.906006e-01
-2.337360e-01
-2.811308e-01
-3.326909e-01
-3.882888e-01
-4.477776e-01
-5.109991e-01
-5.777887e-01
-6.479771e-01
-7.213915e-01
-7.978544e-01
-8.771826e-01
-9.591841e-01
-1.043654e+00
-1.130371e+00
-1.219089e+00
-1.309535e+00