TITLE = "Solution"
VARIABLES = x, y, u, v, psiu, psiv, t, stress
ZONE T="structure" N=561 E=512 F=FEBLOCK ET=QUADRILATERAL VARLOCATION=([7,8]=cellcentered)
0.000000e+00
6.250000e+00
1.250000e+01
1.875000e+01
2.500000e+01
3.125000e+01
3.750000e+01
4.375000e+01
5.000000e+01
5.625000e+01
6.250000e+01
6.875000e+01
7.500000e+01
8.125000e+01
8.750000e+01
9.375000e+01
1.000000e+02
1.062500e+02
1.125000e+02
1.187500e+02
1.250000e+02
1.312500e+02
1.375000e+02
1.437500e+02
1.500000e+02
1.562500e+02
1.625000e+02
1.687500e+02
1.750000e+02
1.812500e+02
1.875000e+02
1.937500e+02
2.000000e+02
0.000000e+00
6.250000e+00
1.250000e+01
1.875000e+01
2.500000e+01
3.125000e+01
3.750000e+01
4.375000e+01
5.000000e+01
5.625000e+01
6.250000e+01
6.875000e+01
7.500000e+01
8.125000e+01
8.750000e+01
9.375000e+01
1.000000e+02
1.062500e+02
1.125000e+02
1.187500e+02
1.250000e+02
1.312500e+02
1.375000e+02
1.437500e+02
1.500000e+02
1.562500e+02
1.625000e+02
1.687500e+02
1.750000e+02
1.812500e+02
1.875000e+02
1.937500e+02
2.000000e+02
0.000000e+00
6.250000e+00
1.250000e+01
1.875000e+01
2.500000e+01
3.125000e+01
3.750000e+01
4.375000e+01
5.000000e+01
5.625000e+01
6.250000e+01
6.875000e+01
7.500000e+01
8.125000e+01
8.750000e+01
9.375000e+01
1.000000e+02
1.062500e+02
1.125000e+02
1.187500e+02
1.250000e+02
1.312500e+02
1.375000e+02
1.437500e+02
1.500000e+02
1.562500e+02
1.625000e+02
1.687500e+02
1.750000e+02
1.812500e+02
1.875000e+02
1.937500e+02
2.000000e+02
0.000000e+00
6.250000e+00
1.250000e+01
1.875000e+01
2.500000e+01
3.125000e+01
3.750000e+01
4.375000e+01
5.000000e+01
5.625000e+01
6.250000e+01
6.875000e+01
7.500000e+01
8.125000e+01
8.750000e+01
9.375000e+01
1.000000e+02
1.062500e+02
1.125000e+02
1.187500e+02
1.250000e+02
1.312500e+02
1.375000e+02
1.437500e+02
1.500000e+02
1.562500e+02
1.625000e+02
1.687500e+02
1.750000e+02
1.812500e+02
1.875000e+02
1.937500e+02
2.000000e+02
0.000000e+00
6.250000e+00
1.250000e+01
1.875000e+01
2.500000e+01
3.125000e+01
3.750000e+01
4.375000e+01
5.000000e+01
5.625000e+01
6.250000e+01
6.875000e+01
7.500000e+01
8.125000e+01
8.750000e+01
9.375000e+01
1.000000e+02
1.062500e+02
1.125000e+02
1.187500e+02
1.250000e+02
1.312500e+02
1.375000e+02
1.437500e+02
1.500000e+02
1.562500e+02
1.625000e+02
1.687500e+02
1.750000e+02
1.812500e+02
1.875000e+02
1.937500e+02
2.000000e+02
0.000000e+00
6.250000e+00
1.250000e+01
1.875000e+01
2.500000e+01
3.125000e+01
3.750000e+01
4.375000e+01
5.000000e+01
5.625000e+01
6.250000e+01
6.875000e+01
7.500000e+01
8.125000e+01
8.750000e+01
9.375000e+01
1.000000e+02
1.062500e+02
1.125000e+02
1.187500e+02
1.250000e+02
1.312500e+02
1.375000e+02
1.437500e+02
1.500000e+02
1.562500e+02
1.625000e+02
1.687500e+02
1.750000e+02
1.812500e+02
1.875000e+02
1.937500e+02
2.000000e+02
0.000000e+00
6.250000e+00
1.250000e+01
1.875000e+01
2.500000e+01
3.125000e+01
3.750000e+01
4.375000e+01
5.000000e+01
5.625000e+01
6.250000e+01
6.875000e+01
7.500000e+01
8.125000e+01
8.750000e+01
9.375000e+01
1.000000e+02
1.062500e+02
1.125000e+02
1.187500e+02
1.250000e+02
1.312500e+02
1.375000e+02
1.437500e+02
1.500000e+02
1.562500e+02
1.625000e+02
1.687500e+02
1.750000e+02
1.812500e+02
1.875000e+02
1.937500e+02
2.000000e+02
0.000000e+00
6.250000e+00
1.250000e+01
1.875000e+01
2.500000e+01
3.125000e+01
3.750000e+01
4.375000e+01
5.000000e+01
5.625000e+01
6.250000e+01
6.875000e+01
7.500000e+01
8.125000e+01
8.750000e+01
9.375000e+01
1.000000e+02
1.062500e+02
1.125000e+02
1.187500e+02
1.250000e+02
1.312500e+02
1.375000e+02
1.437500e+02
1.500000e+02
1.562500e+02
1.625000e+02
1.687500e+02
1.750000e+02
1.812500e+02
1.875000e+02
1.937500e+02
2.000000e+02
0.000000e+00
6.250000e+00
1.250000e+01
1.875000e+01
2.500000e+01
3.125000e+01
3.750000e+01
4.375000e+01
5.000000e+01
5.625000e+01
6.250000e+01
6.875000e+01
7.500000e+01
8.125000e+01
8.750000e+01
9.375000e+01
1.000000e+02
1.062500e+02
1.125000e+02
1.187500e+02
1.250000e+02
1.312500e+02
1.375000e+02
1.437500e+02
1.500000e+02
1.562500e+02
1.625000e+02
1.687500e+02
1.750000e+02
1.812500e+02
1.875000e+02
1.937500e+02
2.000000e+02
0.000000e+00
6.250000e+00
1.250000e+01
1.875000e+01
2.500000e+01
3.125000e+01
3.750000e+01
4.375000e+01
5.000000e+01
5.625000e+01
6.250000e+01
6.875000e+01
7.500000e+01
8.125000e+01
8.750000e+01
9.375000e+01
1.000000e+02
1.062500e+02
1.125000e+02
1.187500e+02
1.250000e+02
1.312500e+02
1.375000e+02
1.437500e+02
1.500000e+02
1.562500e+02
1.625000e+02
1.687500e+02
1.750000e+02
1.812500e+02
1.875000e+02
1.937500e+02
2.000000e+02
0.000000e+00
6.250000e+00
1.250000e+01
1.875000e+01
2.500000e+01
3.125000e+01
3.750000e+01
4.375000e+01
5.000000e+01
5.625000e+01
6.250000e+01
6.875000e+01
7.500000e+01
8.125000e+01
8.750000e+01
9.375000e+01
1.000000e+02
1.062500e+02
1.125000e+02
1.187500e+02
1.250000e+02
1.312500e+02
1.375000e+02
1.437500e+02
1.500000e+02
1.562500e+02
1.625000e+02
1.687500e+02
1.750000e+02
1.812500e+02
1.875000e+02
1.937500e+02
2.000000e+02
0.000000e+00
6.250000e+00
1.250000e+01
1.875000e+01
2.500000e+01
3.125000e+01
3.750000e+01
4.375000e+01
5.000000e+01
5.625000e+01
6.250000e+01
6.875000e+01
7.500000e+01
8.125000e+01
8.750000e+01
9.375000e+01
1.000000e+02
1.062500e+02
1.125000e+02
1.187500e+02
1.250000e+02
1.312500e+02
1.375000e+02
1.437500e+02
1.500000e+02
1.562500e+02
1.625000e+02
1.687500e+02
1.750000e+02
1.812500e+02
1.875000e+02
1.937500e+02
2.000000e+02
0.000000e+00
6.250000e+00
1.250000e+01
1.875000e+01
2.500000e+01
3.125000e+01
3.750000e+01
4.375000e+01
5.000000e+01
5.625000e+01
6.250000e+01
6.875000e+01
7.500000e+01
8.125000e+01
8.750000e+01
9.375000e+01
1.000000e+02
1.062500e+02
1.125000e+02
1.187500e+02
1.250000e+02
1.312500e+02
1.375000e+02
1.437500e+02
1.500000e+02
1.562500e+02
1.625000e+02
1.687500e+02
1.750000e+02
1.812500e+02
1.875000e+02
1.937500e+02
2.000000e+02
0.000000e+00
6.250000e+00
1.250000e+01
1.875000e+01
2.500000e+01
3.125000e+01
3.750000e+01
4.375000e+01
5.000000e+01
5.625000e+01
6.250000e+01
6.875000e+01
7.500000e+01
8.125000e+01
8.750000e+01
9.375000e+01
1.000000e+02
1.062500e+02
1.125000e+02
1.187500e+02
1.250000e+02
1.312500e+02
1.375000e+02
1.437500e+02
1.500000e+02
1.562500e+02
1.625000e+02
1.687500e+02
1.750000e+02
1.812500e+02
1.875000e+02
1.937500e+02
2.000000e+02
0.000000e+00
6.250000e+00
1.250000e+01
1.875000e+01
2.500000e+01
3.125000e+01
3.750000e+01
4.375000e+01
5.000000e+01
5.625000e+01
6.250000e+01
6.875000e+01
7.500000e+01
8.125000e+01
8.750000e+01
9.375000e+01
1.000000e+02
1.062500e+02
1.125000e+02
1.187500e+02
1.250000e+02
1.312500e+02
1.375000e+02
1.437500e+02
1.500000e+02
1.562500e+02
1.625000e+02
1.687500e+02
1.750000e+02
1.812500e+02
1.875000e+02
1.937500e+02
2.000000e+02
0.000000e+00
6.250000e+00
1.250000e+01
1.875000e+01
2.500000e+01
3.125000e+01
3.750000e+01
4.375000e+01
5.000000e+01
5.625000e+01
6.250000e+01
6.875000e+01
7.500000e+01
8.125000e+01
8.750000e+01
9.375000e+01
1.000000e+02
1.062500e+02
1.125000e+02
1.187500e+02
1.250000e+02
1.312500e+02
1.375000e+02
1.437500e+02
1.500000e+02
1.562500e+02
1.625000e+02
1.687500e+02
1.750000e+02
1.812500e+02
1.875000e+02
1.937500e+02
2.000000e+02
0.000000e+00
6.250000e+00
1.250000e+01
1.875000e+01
2.500000e+01
3.125000e+01
3.750000e+01
4.375000e+01
5.000000e+01
5.625000e+01
6.250000e+01
6.875000e+01
7.500000e+01
8.125000e+01
8.750000e+01
9.375000e+01
1.000000e+02
1.062500e+02
1.125000e+02
1.187500e+02
1.250000e+02
1.312500e+02
1.375000e+02
1.437500e+02
1.500000e+02
1.562500e+02
1.625000e+02
1.687500e+02
1.750000e+02
1.812500e+02
1.875000e+02
1.937500e+02
2.000000e+02
0.000000e+00
0.000000e+00
0.000000e+00
0.000000e+00
0.000000e+00
0.000000e+00
0.000000e+00
0.000000e+00
0.000000e+00
0.000000e+00
0.000000e+00
0.000000e+00
0.000000e+00
0.000000e+00
0.000000e+00
0.000000e+00
0.000000e+00
0.000000e+00
0.000000e+00
0.000000e+00
0.000000e+00
0.000000e+00
0.000000e+00
0.000000e+00
0.000000e+00
0.000000e+00
0.000000e+00
0.000000e+00
0.000000e+00
0.000000e+00
0.000000e+00
0.000000e+00
0.000000e+00
6.250000e+00
6.250000e+00
6.250000e+00
6.250000e+00
6.250000e+00
6.250000e+00
6.250000e+00
6.250000e+00
6.250000e+00
6.250000e+00
6.250000e+00
6.250000e+00
6.250000e+00
6.250000e+00
6.250000e+00
6.250000e+00
6.250000e+00
6.250000e+00
6.250000e+00
6.250000e+00
6.250000e+00
6.250000e+00
6.250000e+00
6.250000e+00
6.250000e+00
6.250000e+00
6.250000e+00
6.250000e+00
6.250000e+00
6.250000e+00
6.250000e+00
6.250000e+00
6.250000e+00
1.250000e+01
1.250000e+01
1.250000e+01
1.250000e+01
1.250000e+01
1.250000e+01
1.250000e+01
1.250000e+01
1.250000e+01
1.250000e+01
1.250000e+01
1.250000e+01
1.250000e+01
1.250000e+01
1.250000e+01
1.250000e+01
1.250000e+01
1.250000e+01
1.250000e+01
1.250000e+01
1.250000e+01
1.250000e+01
1.250000e+01
1.250000e+01
1.250000e+01
1.250000e+01
1.250000e+01
1.250000e+01
1.250000e+01
1.250000e+01
1.250000e+01
1.250000e+01
1.250000e+01
1.875000e+01
1.875000e+01
1.875000e+01
1.875000e+01
1.875000e+01
1.875000e+01
1.875000e+01
1.875000e+01
1.875000e+01
1.875000e+01
1.875000e+01
1.875000e+01
1.875000e+01
1.875000e+01
1.875000e+01
1.875000e+01
1.875000e+01
1.875000e+01
1.875000e+01
1.875000e+01
1.875000e+01
1.875000e+01
1.875000e+01
1.875000e+01
1.875000e+01
1.875000e+01
1.875000e+01
1.875000e+01
1.875000e+01
1.875000e+01
1.875000e+01
1.875000e+01
1.875000e+01
2.500000e+01
2.500000e+01
2.500000e+01
2.500000e+01
2.500000e+01
2.500000e+01
2.500000e+01
2.500000e+01
2.500000e+01
2.500000e+01
2.500000e+01
2.500000e+01
2.500000e+01
2.500000e+01
2.500000e+01
2.500000e+01
2.500000e+01
2.500000e+01
2.500000e+01
2.500000e+01
2.500000e+01
2.500000e+01
2.500000e+01
2.500000e+01
2.500000e+01
2.500000e+01
2.500000e+01
2.500000e+01
2.500000e+01
2.500000e+01
2.500000e+01
2.500000e+01
2.500000e+01
3.125000e+01
3.125000e+01
3.125000e+01
3.125000e+01
3.125000e+01
3.125000e+01
3.125000e+01
3.125000e+01
3.125000e+01
3.125000e+01
3.125000e+01
3.125000e+01
3.125000e+01
3.125000e+01
3.125000e+01
3.125000e+01
3.125000e+01
3.125000e+01
3.125000e+01
3.125000e+01
3.125000e+01
3.125000e+01
3.125000e+01
3.125000e+01
3.125000e+01
3.125000e+01
3.125000e+01
3.125000e+01
3.125000e+01
3.125000e+01
3.125000e+01
3.125000e+01
3.125000e+01
3.750000e+01
3.750000e+01
3.750000e+01
3.750000e+01
3.750000e+01
3.750000e+01
3.750000e+01
3.750000e+01
3.750000e+01
3.750000e+01
3.750000e+01
3.750000e+01
3.750000e+01
3.750000e+01
3.750000e+01
3.750000e+01
3.750000e+01
3.750000e+01
3.750000e+01
3.750000e+01
3.750000e+01
3.750000e+01
3.750000e+01
3.750000e+01
3.750000e+01
3.750000e+01
3.750000e+01
3.750000e+01
3.750000e+01
3.750000e+01
3.750000e+01
3.750000e+01
3.750000e+01
4.375000e+01
4.375000e+01
4.375000e+01
4.375000e+01
4.375000e+01
4.375000e+01
4.375000e+01
4.375000e+01
4.375000e+01
4.375000e+01
4.375000e+01
4.375000e+01
4.375000e+01
4.375000e+01
4.375000e+01
4.375000e+01
4.375000e+01
4.375000e+01
4.375000e+01
4.375000e+01
4.375000e+01
4.375000e+01
4.375000e+01
4.375000e+01
4.375000e+01
4.375000e+01
4.375000e+01
4.375000e+01
4.375000e+01
4.375000e+01
4.375000e+01
4.375000e+01
4.375000e+01
5.000000e+01
5.000000e+01
5.000000e+01
5.000000e+01
5.000000e+01
5.000000e+01
5.000000e+01
5.000000e+01
5.000000e+01
5.000000e+01
5.000000e+01
5.000000e+01
5.000000e+01
5.000000e+01
5.000000e+01
5.000000e+01
5.000000e+01
5.000000e+01
5.000000e+01
5.000000e+01
5.000000e+01
5.000000e+01
5.000000e+01
5.000000e+01
5.000000e+01
5.000000e+01
5.000000e+01
5.000000e+01
5.000000e+01
5.000000e+01
5.000000e+01
5.000000e+01
5.000000e+01
5.625000e+01
5.625000e+01
5.625000e+01
5.625000e+01
5.625000e+01
5.625000e+01
5.625000e+01
5.625000e+01
5.625000e+01
5.625000e+01
5.625000e+01
5.625000e+01
5.625000e+01
5.625000e+01
5.625000e+01
5.625000e+01
5.625000e+01
5.625000e+01
5.625000e+01
5.625000e+01
5.625000e+01
5.625000e+01
5.625000e+01
5.625000e+01
5.625000e+01
5.625000e+01
5.625000e+01
5.625000e+01
5.625000e+01
5.625000e+01
5.625000e+01
5.625000e+01
5.625000e+01
6.250000e+01
6.250000e+01
6.250000e+01
6.250000e+01
6.250000e+01
6.250000e+01
6.250000e+01
6.250000e+01
6.250000e+01
6.250000e+01
6.250000e+01
6.250000e+01
6.250000e+01
6.250000e+01
6.250000e+01
6.250000e+01
6.250000e+01
6.250000e+01
6.250000e+01
6.250000e+01
6.250000e+01
6.250000e+01
6.250000e+01
6.250000e+01
6.250000e+01
6.250000e+01
6.250000e+01
6.250000e+01
6.250000e+01
6.250000e+01
6.250000e+01
6.250000e+01
6.250000e+01
6.875000e+01
6.875000e+01
6.875000e+01
6.875000e+01
6.875000e+01
6.875000e+01
6.875000e+01
6.875000e+01
6.875000e+01
6.875000e+01
6.875000e+01
6.875000e+01
6.875000e+01
6.875000e+01
6.875000e+01
6.875000e+01
6.875000e+01
6.875000e+01
6.875000e+01
6.875000e+01
6.875000e+01
6.875000e+01
6.875000e+01
6.875000e+01
6.875000e+01
6.875000e+01
6.875000e+01
6.875000e+01
6.875000e+01
6.875000e+01
6.875000e+01
6.875000e+01
6.875000e+01
7.500000e+01
7.500000e+01
7.500000e+01
7.500000e+01
7.500000e+01
7.500000e+01
7.500000e+01
7.500000e+01
7.500000e+01
7.500000e+01
7.500000e+01
7.500000e+01
7.500000e+01
7.500000e+01
7.500000e+01
7.500000e+01
7.500000e+01
7.500000e+01
7.500000e+01
7.500000e+01
7.500000e+01
7.500000e+01
7.500000e+01
7.500000e+01
7.500000e+01
7.500000e+01
7.500000e+01
7.500000e+01
7.500000e+01
7.500000e+01
7.500000e+01
7.500000e+01
7.500000e+01
8.125000e+01
8.125000e+01
8.125000e+01
8.125000e+01
8.125000e+01
8.125000e+01
8.125000e+01
8.125000e+01
8.125000e+01
8.125000e+01
8.125000e+01
8.125000e+01
8.125000e+01
8.125000e+01
8.125000e+01
8.125000e+01
8.125000e+01
8.125000e+01
8.125000e+01
8.125000e+01
8.125000e+01
8.125000e+01
8.125000e+01
8.125000e+01
8.125000e+01
8.125000e+01
8.125000e+01
8.125000e+01
8.125000e+01
8.125000e+01
8.125000e+01
8.125000e+01
8.125000e+01
8.750000e+01
8.750000e+01
8.750000e+01
8.750000e+01
8.750000e+01
8.750000e+01
8.750000e+01
8.750000e+01
8.750000e+01
8.750000e+01
8.750000e+01
8.750000e+01
8.750000e+01
8.750000e+01
8.750000e+01
8.750000e+01
8.750000e+01
8.750000e+01
8.750000e+01
8.750000e+01
8.750000e+01
8.750000e+01
8.750000e+01
8.750000e+01
8.750000e+01
8.750000e+01
8.750000e+01
8.750000e+01
8.750000e+01
8.750000e+01
8.750000e+01
8.750000e+01
8.750000e+01
9.375000e+01
9.375000e+01
9.375000e+01
9.375000e+01
9.375000e+01
9.375000e+01
9.375000e+01
9.375000e+01
9.375000e+01
9.375000e+01
9.375000e+01
9.375000e+01
9.375000e+01
9.375000e+01
9.375000e+01
9.375000e+01
9.375000e+01
9.375000e+01
9.375000e+01
9.375000e+01
9.375000e+01
9.375000e+01
9.375000e+01
9.375000e+01
9.375000e+01
9.375000e+01
9.375000e+01
9.375000e+01
9.375000e+01
9.375000e+01
9.375000e+01
9.375000e+01
9.375000e+01
1.000000e+02
1.000000e+02
1.000000e+02
1.000000e+02
1.000000e+02
1.000000e+02
1.000000e+02
1.000000e+02
1.000000e+02
1.000000e+02
1.000000e+02
1.000000e+02
1.000000e+02
1.000000e+02
1.000000e+02
1.000000e+02
1.000000e+02
1.000000e+02
1.000000e+02
1.000000e+02
1.000000e+02
1.000000e+02
1.000000e+02
1.000000e+02
1.000000e+02
1.000000e+02
1.000000e+02
1.000000e+02
1.000000e+02
1.000000e+02
1.000000e+02
1.000000e+02
1.000000e+02
0.000000e+00
-6.591409e-02
-1.195923e-01
-1.693183e-01
-2.170423e-01
-2.631278e-01
-3.076670e-01
-3.506559e-01
-3.920675e-01
-4.318716e-01
-4.700431e-01
-5.065648e-01
-5.414278e-01
-5.746313e-01
-6.061829e-01
-6.360993e-01
-6.644073e-01
-6.911458e-01
-7.163684e-01
-7.401477e-01
-7.625804e-01
-7.837943e-01
-8.039584e-01
-8.232969e-01
-8.421101e-01
-8.608063e-01
-8.799524e-01
-9.003570e-01
-9.232061e-01
-9.502451e-01
-9.837383e-01
-1.023653e+00
-1.048012e+00
0.000000e+00
-4.419316e-02
-9.194873e-02
-1.369766e-01
-1.797749e-01
-2.207506e-01
-2.601202e-01
-2.979783e-01
-3.343625e-01
-3.692851e-01
-4.027483e-01
-4.347521e-01
-4.652979e-01
-4.943908e-01
-5.220402e-01
-5.482616e-01
-5.730773e-01
-5.965178e-01
-6.186237e-01
-6.394478e-01
-6.590573e-01
-6.775371e-01
-6.949924e-01
-7.115519e-01
-7.273696e-01
-7.426226e-01
-7.574977e-01
-7.721488e-01
-7.865748e-01
-8.003065e-01
-8.117487e-01
-8.184383e-01
-8.277514e-01
0.000000e+00
-3.505393e-02
-7.216711e-02
-1.099548e-01
-1.466735e-01
-1.820397e-01
-2.160306e-01
-2.486782e-01
-2.800116e-01
-3.100502e-01
-3.388068e-01
-3.662904e-01
-3.925085e-01
-4.174688e-01
-4.411805e-01
-4.636551e-01
-4.849072e-01
-5.049551e-01
-5.238213e-01
-5.415327e-01
-5.581201e-01
-5.736173e-01
-5.880571e-01
-6.014652e-01
-6.138469e-01
-6.251624e-01
-6.352823e-01
-6.439087e-01
-6.504583e-01
-6.539850e-01
-6.536759e-01
-6.516956e-01
-6.625707e-01
0.000000e+00
-2.781225e-02
-5.716061e-02
-8.731278e-02
-1.173948e-01
-1.467487e-01
-1.751229e-01
-2.024273e-01
-2.286373e-01
-2.537519e-01
-2.777775e-01
-3.007220e-01
-3.225932e-01
-3.433980e-01
-3.631423e-01
-3.818318e-01
-3.994716e-01
-4.160662e-01
-4.316190e-01
-4.461307e-01
-4.595978e-01
-4.720078e-01
-4.833333e-01
-4.935215e-01
-5.024783e-01
-5.100456e-01
-5.159729e-01
-5.198982e-01
-5.213970e-01
-5.202844e-01
-5.175823e-01
-5.174209e-01
-5.277822e-01
0.000000e+00
-2.158632e-02
-4.420146e-02
-6.753924e-02
-9.106695e-02
-1.143064e-01
-1.369370e-01
-1.587963e-01
-1.798105e-01
-1.999511e-01
-2.192107e-01
-2.375902e-01
-2.550931e-01
-2.717222e-01
-2.874787e-01
-3.023611e-01
-3.163648e-01
-3.294812e-01
-3.416969e-01
-3.529912e-01
-3.633340e-01
-3.726809e-01
-3.809681e-01
-3.881044e-01
-3.939638e-01
-3.983804e-01
-4.011596e-01
-4.021346e-01
-4.013347e-01
-3.993777e-01
-3.981081e-01
-4.010401e-01
-4.098787e-01
0.000000e+00
-1.586477e-02
-3.240926e-02
-4.948539e-02
-6.679818e-02
-8.402450e-02
-1.009078e-01
-1.172813e-01
-1.330534e-01
-1.481795e-01
-1.626410e-01
-1.764310e-01
-1.895473e-01
-2.019874e-01
-2.137467e-01
-2.248168e-01
-2.351844e-01
-2.448307e-01
-2.537295e-01
-2.618460e-01
-2.691345e-01
-2.755358e-01
-2.809753e-01
-2.853615e-01
-2.885905e-01
-2.905607e-01
-2.912143e-01
-2.906277e-01
-2.891819e-01
-2.878064e-01
-2.881413e-01
-2.918790e-01
-2.991924e-01
0.000000e+00
-1.044096e-02
-2.129492e-02
-3.249325e-02
-4.387633e-02
-5.525256e-02
-6.645041e-02
-7.734481e-02
-8.785748e-02
-9.794523e-02
-1.075862e-01
-1.167694e-01
-1.254878e-01
-1.337341e-01
-1.414984e-01
-1.487664e-01
-1.555185e-01
-1.617287e-01
-1.673638e-01
-1.723822e-01
-1.767334e-01
-1.803585e-01
-1.831917e-01
-1.851659e-01
-1.862267e-01
-1.863583e-01
-1.856330e-01
-1.842909e-01
-1.828426e-01
-1.821405e-01
-1.832358e-01
-1.868749e-01
-1.927784e-01
0.000000e+00
-5.186033e-03
-1.056813e-02
-1.611866e-02
-2.176753e-02
-2.742553e-02
-3.300791e-02
-3.844837e-02
-4.370209e-02
-4.874169e-02
-5.355095e-02
-5.811913e-02
-6.243687e-02
-6.649346e-02
-7.027505e-02
-7.376349e-02
-7.693537e-02
-7.976139e-02
-8.220603e-02
-8.422765e-02
-8.577951e-02
-8.681248e-02
-8.728040e-02
-8.715024e-02
-8.641942e-02
-8.514371e-02
-8.347750e-02
-8.172186e-02
-8.035897e-02
-8.001754e-02
-8.130260e-02
-8.447721e-02
-8.916153e-02
0.000000e+00
-8.367152e-06
-1.814256e-05
-2.878460e-05
-3.973342e-05
-5.023422e-05
-5.914945e-05
-6.475039e-05
-6.447363e-05
-5.462792e-05
-3.004026e-05
1.636496e-05
9.405315e-05
2.154224e-04
3.963756e-04
6.568735e-04
1.021381e-03
1.519069e-03
2.183558e-03
3.051858e-03
4.162023e-03
5.548783e-03
7.236195e-03
9.226090e-03
1.148119e-02
1.390272e-02
1.630528e-02
1.839847e-02
1.979577e-02
2.007915e-02
1.893821e-02
1.635433e-02
1.273547e-02
0.000000e+00
5.170274e-03
1.053389e-02
1.606422e-02
2.169221e-02
2.733003e-02
3.289505e-02
3.832417e-02
4.357737e-02
4.863417e-02
5.348804e-02
5.814152e-02
6.260305e-02
6.688526e-02
7.100433e-02
7.497981e-02
7.883468e-02
8.259509e-02
8.628973e-02
8.994810e-02
9.359754e-02
9.725815e-02
1.009351e-01
1.046081e-01
1.082173e-01
1.116489e-01
1.147232e-01
1.171959e-01
1.187847e-01
1.192345e-01
1.184199e-01
1.164570e-01
1.137711e-01
0.000000e+00
1.042809e-02
2.126675e-02
3.244816e-02
4.381345e-02
5.517209e-02
6.635419e-02
7.723724e-02
8.774675e-02
9.784507e-02
1.075182e-01
1.167658e-01
1.255955e-01
1.340191e-01
1.420514e-01
1.497094e-01
1.570124e-01
1.639811e-01
1.706372e-01
1.770012e-01
1.830898e-01
1.889105e-01
1.944555e-01
1.996928e-01
2.045565e-01
2.089387e-01
2.126872e-01
2.156148e-01
2.175310e-01
2.182972e-01
2.179033e-01
2.165451e-01
2.146705e-01
0.000000e+00
1.585656e-02
3.239097e-02
4.945560e-02
6.675589e-02
8.396929e-02
1.008402e-01
1.172035e-01
1.329699e-01
1.480983e-01
1.625750e-01
1.764002e-01
1.895809e-01
2.021275e-01
2.140516e-01
2.253659e-01
2.360837e-01
2.462187e-01
2.557838e-01
2.647901e-01
2.732437e-01
2.811429e-01
2.884721e-01
2.951970e-01
3.012580e-01
3.065670e-01
3.110097e-01
3.144578e-01
3.167960e-01
3.179677e-01
3.180336e-01
3.172369e-01
3.160521e-01
0.000000e+00
2.158429e-02
4.419636e-02
6.753012e-02
9.105285e-02
1.142866e-01
1.369109e-01
1.587638e-01
1.797723e-01
1.999089e-01
2.191678e-01
2.375521e-01
2.550685e-01
2.717243e-01
2.875264e-01
3.024814e-01
3.165947e-01
3.298711e-01
3.423137e-01
3.539230e-01
3.646956e-01
3.746216e-01
3.836817e-01
3.918448e-01
3.990650e-01
4.052816e-01
4.104234e-01
4.144196e-01
4.172203e-01
4.188293e-01
4.193512e-01
4.190520e-01
4.184279e-01
0.000000e+00
2.781742e-02
5.717113e-02
8.732842e-02
1.174152e-01
1.467731e-01
1.751506e-01
2.024568e-01
2.286665e-01
2.537772e-01
2.777933e-01
3.007205e-01
3.225629e-01
3.433229e-01
3.630009e-01
3.815953e-01
3.991025e-01
4.155167e-01
4.308300e-01
4.450313e-01
4.581063e-01
4.700369e-01
4.808003e-01
4.903693e-01
4.987134e-01
5.058014e-01
5.116067e-01
5.161161e-01
5.193435e-01
5.213492e-01
5.222717e-01
5.223817e-01
5.221746e-01
0.000000e+00
3.506656e-02
7.219406e-02
1.099970e-01
1.467318e-01
1.821147e-01
2.161224e-01
2.487859e-01
2.801320e-01
3.101771e-01
3.389294e-01
3.663911e-01
3.925603e-01
4.174319e-01
4.409982e-01
4.632485e-01
4.841691e-01
5.037427e-01
5.219488e-01
5.387630e-01
5.541577e-01
5.681031e-01
5.805686e-01
5.915264e-01
6.009557e-01
6.088493e-01
6.152215e-01
6.201172e-01
6.236210e-01
6.258652e-01
6.270398e-01
6.274223e-01
6.274680e-01
0.000000e+00
4.421210e-02
9.199012e-02
1.370432e-01
1.798699e-01
2.208773e-01
2.602814e-01
2.981755e-01
3.345949e-01
3.695481e-01
4.030309e-01
4.350343e-01
4.655460e-01
4.945521e-01
5.220360e-01
5.479782e-01
5.723549e-01
5.951374e-01
6.162916e-01
6.357773e-01
6.535498e-01
6.695611e-01
6.837639e-01
6.961175e-01
7.065962e-01
7.152006e-01
7.219713e-01
7.270037e-01
7.304606e-01
7.325789e-01
7.336610e-01
7.340534e-01
7.341495e-01
0.000000e+00
6.593484e-02
1.196407e-01
1.694013e-01
2.171664e-01
2.632998e-01
3.078939e-01
3.509445e-01
3.924230e-01
4.322960e-01
4.705329e-01
5.071071e-01
5.419949e-01
5.751741e-01
6.066215e-01
6.363107e-01
6.642101e-01
6.902809e-01
7.144753e-01
7.367360e-01
7.569960e-01
7.751807e-01
7.912120e-01
8.050163e-01
8.165368e-01
8.257500e-01
8.326889e-01
8.374690e-01
8.403182e-01
8.416020e-01
8.418353e-01
8.416421e-01
8.415333e-01
0.000000e+00
-4.073377e-02
-7.109011e-02
-1.042168e-01
-1.411056e-01
-1.827751e-01
-2.295150e-01
-2.814065e-01
-3.383981e-01
-4.003675e-01
-4.671507e-01
-5.385586e-01
-6.143875e-01
-6.944252e-01
-7.784554e-01
-8.662602e-01
-9.576226e-01
-1.052330e+00
-1.150177e+00
-1.250969e+00
-1.354531e+00
-1.460715e+00
-1.569417e+00
-1.680594e+00
-1.794301e+00
-1.910749e+00
-2.030402e+00
-2.154162e+00
-2.283757e+00
-2.422609e+00
-2.578098e+00
-2.767641e+00
-3.029502e+00
0.000000e+00
-2.531453e-02
-5.708954e-02
-9.043943e-02
-1.278421e-01
-1.699641e-01
-2.171580e-01
-2.695036e-01
-3.269538e-01
-3.893863e-01
-4.566362e-01
-5.285128e-01
-6.048108e-01
-6.853162e-01
-7.698105e-01
-8.580737e-01
-9.498863e-01
-1.045032e+00
-1.143302e+00
-1.244497e+00
-1.348436e+00
-1.454963e+00
-1.563963e+00
-1.675382e+00
-1.789262e+00
-1.905792e+00
-2.025412e+00
-2.148997e+00
-2.278238e+00
-2.416501e+00
-2.570789e+00
-2.756112e+00
-3.000758e+00
0.000000e+00
-1.859506e-02
-4.602552e-02
-7.892033e-02
-1.163881e-01
-1.588204e-01
-2.063866e-01
-2.591311e-01
-3.169903e-01
-3.798364e-01
-4.475014e-01
-5.197933e-01
-5.965058e-01
-6.774242e-01
-7.623292e-01
-8.509999e-01
-9.432158e-01
-1.038760e+00
-1.137420e+00
-1.238997e+00
-1.343308e+00
-1.450196e+00
-1.559546e+00
-1.671304e+00
-1.785517e+00
-1.902387e+00
-2.022372e+00
-2.146368e+00
-2.276048e+00
-2.414440e+00
-2.566721e+00
-2.739006e+00
-2.930122e+00
0.000000e+00
-1.489032e-02
-3.897459e-02
-7.011523e-02
-1.071014e-01
-1.495203e-01
-1.972899e-01
-2.503297e-01
-3.085255e-01
-3.717260e-01
-4.397524e-01
-5.124081e-01
-5.894849e-01
-6.707678e-01
-7.560376e-01
-8.450740e-01
-9.376572e-01
-1.033571e+00
-1.132605e+00
-1.234561e+00
-1.339258e+00
-1.446544e+00
-1.556308e+00
-1.668508e+00
-1.783198e+00
-1.900591e+00
-2.021141e+00
-2.145675e+00
-2.275559e+00
-2.412791e+00
-2.559280e+00
-2.713781e+00
-2.857605e+00
0.000000e+00
-1.259991e-02
-3.436364e-02
-6.386268e-02
-1.000056e-01
-1.421463e-01
-1.899338e-01
-2.431458e-01
-3.015902e-01
-3.650760e-01
-4.334046e-01
-5.063704e-01
-5.837613e-01
-6.653616e-01
-7.509530e-01
-8.403169e-01
-9.332355e-01
-1.029495e+00
-1.128888e+00
-1.231220e+00
-1.336313e+00
-1.444020e+00
-1.554237e+00
-1.666920e+00
-1.782124e+00
-1.900033e+00
-2.021017e+00
-2.145672e+00
-2.274785e+00
-2.408988e+00
-2.547641e+00
-2.685655e+00
-2.810909e+00
0.000000e+00
-1.114251e-02
-3.133832e-02
-5.956000e-02
-9.488932e-02
-1.366352e-01
-1.843186e-01
-2.375987e-01
-2.962067e-01
-3.599063e-01
-4.284745e-01
-5.016931e-01
-5.793454e-01
-6.612143e-01
-7.470828e-01
-8.367343e-01
-9.299540e-01
-1.026531e+00
-1.126262e+00
-1.228954e+00
-1.334434e+00
-1.442553e+00
-1.553205e+00
-1.666336e+00
-1.781964e+00
-1.900204e+00
-2.021261e+00
-2.145398e+00
-2.272759e+00
-2.402913e+00
-2.533879e+00
-2.660976e+00
-2.777141e+00
0.000000e+00
-1.023675e-02
-2.942559e-02
-5.676320e-02
-9.146180e-02
-1.328479e-01
-1.803897e-01
-2.336763e-01
-2.923810e-01
-3.562286e-01
-4.249733e-01
-4.983853e-01
-5.762426e-01
-6.583274e-01
-7.444238e-01
-8.343177e-01
-9.277971e-01
-1.024654e+00
-1.124688e+00
-1.227707e+00
-1.333535e+00
-1.442021e+00
-1.553040e+00
-1.666510e+00
-1.782391e+00
-1.900685e+00
-2.021403e+00
-2.144475e+00
-2.269547e+00
-2.395601e+00
-2.520455e+00
-2.640509e+00
-2.751353e+00
0.000000e+00
-9.739023e-03
-2.836425e-02
-5.518714e-02
-8.949643e-02
-1.306418e-01
-1.780745e-01
-2.313494e-01
-2.901063e-01
-3.540454e-01
-4.229058e-01
-4.964496e-01
-5.744518e-01
-6.566945e-01
-7.429635e-01
-8.330469e-01
-9.267355e-01
-1.023823e+00
-1.124109e+00
-1.227401e+00
-1.333516e+00
-1.442288e+00
-1.553569e+00
-1.667231e+00
-1.783159e+00
-1.901235e+00
-2.021284e+00
-2.142979e+00
-2.265671e+00
-2.388153e+00
-2.508457e+00
-2.623876e+00
-2.731399e+00
0.000000e+00
-9.578657e-03
-2.802184e-02
-5.467633e-02
-8.885589e-02
-1.299198e-01
-1.773161e-01
-2.305902e-01
-2.893718e-01
-3.533537e-01
-4.222705e-01
-4.958828e-01
-5.739657e-01
-6.563030e-01
-7.426823e-01
-8.328942e-01
-9.267309e-01
-1.023987e+00
-1.124460e+00
-1.227953e+00
-1.334272e+00
-1.443231e+00
-1.554650e+00
-1.668349e+00
-1.784135e+00
-1.901778e+00
-2.020959e+00
-2.141186e+00
-2.261683e+00
-2.381263e+00
-2.498260e+00
-2.610610e+00
-2.716107e+00
0.000000e+00
-9.734383e-03
-2.835782e-02
-5.518160e-02
-8.949475e-02
-1.306477e-01
-1.780928e-01
-2.313865e-01
-2.901709e-01
-3.541486e-01
-4.230620e-01
-4.966768e-01
-5.747725e-01
-6.571357e-01
-7.435566e-01
-8.338277e-01
-9.277422e-01
-1.025094e+00
-1.125677e+00
-1.229286e+00
-1.335715e+00
-1.444754e+00
-1.556186e+00
-1.669782e+00
-1.785276e+00
-1.902349e+00
-2.020582e+00
-2.139398e+00
-2.257997e+00
-2.375299e+00
-2.489932e+00
-2.600297e+00
-2.704710e+00
0.000000e+00
-1.022785e-02
-2.941323e-02
-5.675251e-02
-9.145845e-02
-1.328590e-01
-1.804245e-01
-2.337472e-01
-2.925044e-01
-3.564259e-01
-4.252723e-01
-4.988206e-01
-5.768573e-01
-6.591733e-01
-7.455617e-01
-8.358162e-01
-9.297302e-01
-1.027096e+00
-1.127703e+00
-1.231336e+00
-1.337775e+00
-1.446787e+00
-1.558121e+00
-1.671499e+00
-1.786599e+00
-1.903035e+00
-2.020327e+00
-2.137865e+00
-2.254880e+00
-2.370429e+00
-2.483400e+00
-2.592561e+00
-2.696620e+00
0.000000e+00
-1.113013e-02
-3.132115e-02
-5.954508e-02
-9.488449e-02
-1.366503e-01
-1.843667e-01
-2.376971e-01
-2.963785e-01
-3.601814e-01
-4.288917e-01
-5.023012e-01
-5.802046e-01
-6.623974e-01
-7.486751e-01
-8.388324e-01
-9.326622e-01
-1.029954e+00
-1.130493e+00
-1.234055e+00
-1.340405e+00
-1.449289e+00
-1.560426e+00
-1.673502e+00
-1.788148e+00
-1.903933e+00
-2.020343e+00
-2.136766e+00
-2.252488e+00
-2.366700e+00
-2.478524e+00
-2.587043e+00
-2.691316e+00
0.000000e+00
-1.258533e-02
-3.434342e-02
-6.384509e-02
-1.000000e-01
-1.421646e-01
-1.899918e-01
-2.432645e-01
-3.017976e-01
-3.654083e-01
-4.339088e-01
-5.071055e-01
-5.848004e-01
-6.667928e-01
-7.528798e-01
-8.428566e-01
-9.365149e-01
-1.033642e+00
-1.134018e+00
-1.237412e+00
-1.343576e+00
-1.452238e+00
-1.563096e+00
-1.675805e+00
-1.789968e+00
-1.905122e+00
-2.020737e+00
-2.136212e+00
-2.250889e+00
-2.364082e+00
-2.475120e+00
-2.583379e+00
-2.688281e+00
0.000000e+00
-1.487534e-02
-3.895384e-02
-7.009735e-02
-1.070966e-01
-1.495418e-01
-1.973553e-01
-2.504623e-01
-3.087562e-01
-3.720949e-01
-4.403113e-01
-5.132222e-01
-5.906348e-01
-6.723505e-01
-7.581671e-01
-8.478794e-01
-9.412781e-01
-1.038148e+00
-1.138266e+00
-1.241394e+00
-1.347276e+00
-1.455629e+00
-1.566133e+00
-1.678426e+00
-1.792089e+00
-1.906647e+00
-2.021560e+00
-2.136242e+00
-2.250082e+00
-2.362495e+00
-2.472980e+00
-2.581192e+00
-2.686958e+00
0.000000e+00
-1.858200e-02
-4.600734e-02
-7.890524e-02
-1.163867e-01
-1.588466e-01
-2.064589e-01
-2.592737e-01
-3.172354e-01
-3.802256e-01
-4.480881e-01
-5.206449e-01
-5.977050e-01
-6.790706e-01
-7.645392e-01
-8.539047e-01
-9.469568e-01
-1.043478e+00
-1.143243e+00
-1.246009e+00
-1.351514e+00
-1.459469e+00
-1.569546e+00
-1.681372e+00
-1.794520e+00
-1.908508e+00
-2.022798e+00
-2.136818e+00
-2.249992e+00
-2.361800e+00
-2.471870e+00
-2.580093e+00
-2.686727e+00
0.000000e+00
-2.530614e-02
-5.707718e-02
-9.043056e-02
-1.278476e-01
-1.699982e-01
-2.172394e-01
-2.696567e-01
-3.272105e-01
-3.897880e-01
-4.572356e-01
-5.293757e-01
-6.060180e-01
-6.869641e-01
-7.720109e-01
-8.609512e-01
-9.535733e-01
-1.049658e+00
-1.148978e+00
-1.251287e+00
-1.356321e+00
-1.463787e+00
-1.573355e+00
-1.684648e+00
-1.797242e+00
-1.910656e+00
-2.024363e+00
-2.137805e+00
-2.250432e+00
-2.361767e+00
-2.471509e+00
-2.579695e+00
-2.686923e+00
0.000000e+00
-4.073259e-02
-7.108600e-02
-1.042176e-01
-1.411222e-01
-1.828219e-01
-2.296106e-01
-2.815752e-01
-3.386711e-01
-4.007850e-01
-4.677634e-01
-5.394293e-01
-6.155922e-01
-6.960538e-01
-7.806101e-01
-8.690529e-01
-9.611686e-01
-1.056736e+00
-1.155525e+00
-1.257288e+00
-1.361757e+00
-1.468638e+00
-1.577600e+00