TITLE = "Solution"
VARIABLES = x, y, u, v, psiu, psiv, t, stress
ZONE T="structure" N=561 E=512 F=FEBLOCK ET=QUADRILATERAL VARLOCATION=([7,8]=cellcentered)
0.000000e+00
6.250000e+00
1.250000e+01
1.875000e+01
2.500000e+01
3.125000e+01
3.750000e+01
4.375000e+01
5.000000e+01
5.625000e+01
6.250000e+01
6.875000e+01
7.500000e+01
8.125000e+01
8.750000e+01
9.375000e+01
1.000000e+02
1.062500e+02
1.125000e+02
1.187500e+02
1.250000e+02
1.312500e+02
1.375000e+02
1.437500e+02
1.500000e+02
1.562500e+02
1.625000e+02
1.687500e+02
1.750000e+02
1.812500e+02
1.875000e+02
1.937500e+02
2.000000e+02
0.000000e+00
6.250000e+00
1.250000e+01
1.875000e+01
2.500000e+01
3.125000e+01
3.750000e+01
4.375000e+01
5.000000e+01
5.625000e+01
6.250000e+01
6.875000e+01
7.500000e+01
8.125000e+01
8.750000e+01
9.375000e+01
1.000000e+02
1.062500e+02
1.125000e+02
1.187500e+02
1.250000e+02
1.312500e+02
1.375000e+02
1.437500e+02
1.500000e+02
1.562500e+02
1.625000e+02
1.687500e+02
1.750000e+02
1.812500e+02
1.875000e+02
1.937500e+02
2.000000e+02
0.000000e+00
6.250000e+00
1.250000e+01
1.875000e+01
2.500000e+01
3.125000e+01
3.750000e+01
4.375000e+01
5.000000e+01
5.625000e+01
6.250000e+01
6.875000e+01
7.500000e+01
8.125000e+01
8.750000e+01
9.375000e+01
1.000000e+02
1.062500e+02
1.125000e+02
1.187500e+02
1.250000e+02
1.312500e+02
1.375000e+02
1.437500e+02
1.500000e+02
1.562500e+02
1.625000e+02
1.687500e+02
1.750000e+02
1.812500e+02
1.875000e+02
1.937500e+02
2.000000e+02
0.000000e+00
6.250000e+00
1.250000e+01
1.875000e+01
2.500000e+01
3.125000e+01
3.750000e+01
4.375000e+01
5.000000e+01
5.625000e+01
6.250000e+01
6.875000e+01
7.500000e+01
8.125000e+01
8.750000e+01
9.375000e+01
1.000000e+02
1.062500e+02
1.125000e+02
1.187500e+02
1.250000e+02
1.312500e+02
1.375000e+02
1.437500e+02
1.500000e+02
1.562500e+02
1.625000e+02
1.687500e+02
1.750000e+02
1.812500e+02
1.875000e+02
1.937500e+02
2.000000e+02
0.000000e+00
6.250000e+00
1.250000e+01
1.875000e+01
2.500000e+01
3.125000e+01
3.750000e+01
4.375000e+01
5.000000e+01
5.625000e+01
6.250000e+01
6.875000e+01
7.500000e+01
8.125000e+01
8.750000e+01
9.375000e+01
1.000000e+02
1.062500e+02
1.125000e+02
1.187500e+02
1.250000e+02
1.312500e+02
1.375000e+02
1.437500e+02
1.500000e+02
1.562500e+02
1.625000e+02
1.687500e+02
1.750000e+02
1.812500e+02
1.875000e+02
1.937500e+02
2.000000e+02
0.000000e+00
6.250000e+00
1.250000e+01
1.875000e+01
2.500000e+01
3.125000e+01
3.750000e+01
4.375000e+01
5.000000e+01
5.625000e+01
6.250000e+01
6.875000e+01
7.500000e+01
8.125000e+01
8.750000e+01
9.375000e+01
1.000000e+02
1.062500e+02
1.125000e+02
1.187500e+02
1.250000e+02
1.312500e+02
1.375000e+02
1.437500e+02
1.500000e+02
1.562500e+02
1.625000e+02
1.687500e+02
1.750000e+02
1.812500e+02
1.875000e+02
1.937500e+02
2.000000e+02
0.000000e+00
6.250000e+00
1.250000e+01
1.875000e+01
2.500000e+01
3.125000e+01
3.750000e+01
4.375000e+01
5.000000e+01
5.625000e+01
6.250000e+01
6.875000e+01
7.500000e+01
8.125000e+01
8.750000e+01
9.375000e+01
1.000000e+02
1.062500e+02
1.125000e+02
1.187500e+02
1.250000e+02
1.312500e+02
1.375000e+02
1.437500e+02
1.500000e+02
1.562500e+02
1.625000e+02
1.687500e+02
1.750000e+02
1.812500e+02
1.875000e+02
1.937500e+02
2.000000e+02
0.000000e+00
6.250000e+00
1.250000e+01
1.875000e+01
2.500000e+01
3.125000e+01
3.750000e+01
4.375000e+01
5.000000e+01
5.625000e+01
6.250000e+01
6.875000e+01
7.500000e+01
8.125000e+01
8.750000e+01
9.375000e+01
1.000000e+02
1.062500e+02
1.125000e+02
1.187500e+02
1.250000e+02
1.312500e+02
1.375000e+02
1.437500e+02
1.500000e+02
1.562500e+02
1.625000e+02
1.687500e+02
1.750000e+02
1.812500e+02
1.875000e+02
1.937500e+02
2.000000e+02
0.000000e+00
6.250000e+00
1.250000e+01
1.875000e+01
2.500000e+01
3.125000e+01
3.750000e+01
4.375000e+01
5.000000e+01
5.625000e+01
6.250000e+01
6.875000e+01
7.500000e+01
8.125000e+01
8.750000e+01
9.375000e+01
1.000000e+02
1.062500e+02
1.125000e+02
1.187500e+02
1.250000e+02
1.312500e+02
1.375000e+02
1.437500e+02
1.500000e+02
1.562500e+02
1.625000e+02
1.687500e+02
1.750000e+02
1.812500e+02
1.875000e+02
1.937500e+02
2.000000e+02
0.000000e+00
6.250000e+00
1.250000e+01
1.875000e+01
2.500000e+01
3.125000e+01
3.750000e+01
4.375000e+01
5.000000e+01
5.625000e+01
6.250000e+01
6.875000e+01
7.500000e+01
8.125000e+01
8.750000e+01
9.375000e+01
1.000000e+02
1.062500e+02
1.125000e+02
1.187500e+02
1.250000e+02
1.312500e+02
1.375000e+02
1.437500e+02
1.500000e+02
1.562500e+02
1.625000e+02
1.687500e+02
1.750000e+02
1.812500e+02
1.875000e+02
1.937500e+02
2.000000e+02
0.000000e+00
6.250000e+00
1.250000e+01
1.875000e+01
2.500000e+01
3.125000e+01
3.750000e+01
4.375000e+01
5.000000e+01
5.625000e+01
6.250000e+01
6.875000e+01
7.500000e+01
8.125000e+01
8.750000e+01
9.375000e+01
1.000000e+02
1.062500e+02
1.125000e+02
1.187500e+02
1.250000e+02
1.312500e+02
1.375000e+02
1.437500e+02
1.500000e+02
1.562500e+02
1.625000e+02
1.687500e+02
1.750000e+02
1.812500e+02
1.875000e+02
1.937500e+02
2.000000e+02
0.000000e+00
6.250000e+00
1.250000e+01
1.875000e+01
2.500000e+01
3.125000e+01
3.750000e+01
4.375000e+01
5.000000e+01
5.625000e+01
6.250000e+01
6.875000e+01
7.500000e+01
8.125000e+01
8.750000e+01
9.375000e+01
1.000000e+02
1.062500e+02
1.125000e+02
1.187500e+02
1.250000e+02
1.312500e+02
1.375000e+02
1.437500e+02
1.500000e+02
1.562500e+02
1.625000e+02
1.687500e+02
1.750000e+02
1.812500e+02
1.875000e+02
1.937500e+02
2.000000e+02
0.000000e+00
6.250000e+00
1.250000e+01
1.875000e+01
2.500000e+01
3.125000e+01
3.750000e+01
4.375000e+01
5.000000e+01
5.625000e+01
6.250000e+01
6.875000e+01
7.500000e+01
8.125000e+01
8.750000e+01
9.375000e+01
1.000000e+02
1.062500e+02
1.125000e+02
1.187500e+02
1.250000e+02
1.312500e+02
1.375000e+02
1.437500e+02
1.500000e+02
1.562500e+02
1.625000e+02
1.687500e+02
1.750000e+02
1.812500e+02
1.875000e+02
1.937500e+02
2.000000e+02
0.000000e+00
6.250000e+00
1.250000e+01
1.875000e+01
2.500000e+01
3.125000e+01
3.750000e+01
4.375000e+01
5.000000e+01
5.625000e+01
6.250000e+01
6.875000e+01
7.500000e+01
8.125000e+01
8.750000e+01
9.375000e+01
1.000000e+02
1.062500e+02
1.125000e+02
1.187500e+02
1.250000e+02
1.312500e+02
1.375000e+02
1.437500e+02
1.500000e+02
1.562500e+02
1.625000e+02
1.687500e+02
1.750000e+02
1.812500e+02
1.875000e+02
1.937500e+02
2.000000e+02
0.000000e+00
6.250000e+00
1.250000e+01
1.875000e+01
2.500000e+01
3.125000e+01
3.750000e+01
4.375000e+01
5.000000e+01
5.625000e+01
6.250000e+01
6.875000e+01
7.500000e+01
8.125000e+01
8.750000e+01
9.375000e+01
1.000000e+02
1.062500e+02
1.125000e+02
1.187500e+02
1.250000e+02
1.312500e+02
1.375000e+02
1.437500e+02
1.500000e+02
1.562500e+02
1.625000e+02
1.687500e+02
1.750000e+02
1.812500e+02
1.875000e+02
1.937500e+02
2.000000e+02
0.000000e+00
6.250000e+00
1.250000e+01
1.875000e+01
2.500000e+01
3.125000e+01
3.750000e+01
4.375000e+01
5.000000e+01
5.625000e+01
6.250000e+01
6.875000e+01
7.500000e+01
8.125000e+01
8.750000e+01
9.375000e+01
1.000000e+02
1.062500e+02
1.125000e+02
1.187500e+02
1.250000e+02
1.312500e+02
1.375000e+02
1.437500e+02
1.500000e+02
1.562500e+02
1.625000e+02
1.687500e+02
1.750000e+02
1.812500e+02
1.875000e+02
1.937500e+02
2.000000e+02
0.000000e+00
6.250000e+00
1.250000e+01
1.875000e+01
2.500000e+01
3.125000e+01
3.750000e+01
4.375000e+01
5.000000e+01
5.625000e+01
6.250000e+01
6.875000e+01
7.500000e+01
8.125000e+01
8.750000e+01
9.375000e+01
1.000000e+02
1.062500e+02
1.125000e+02
1.187500e+02
1.250000e+02
1.312500e+02
1.375000e+02
1.437500e+02
1.500000e+02
1.562500e+02
1.625000e+02
1.687500e+02
1.750000e+02
1.812500e+02
1.875000e+02
1.937500e+02
2.000000e+02
0.000000e+00
0.000000e+00
0.000000e+00
0.000000e+00
0.000000e+00
0.000000e+00
0.000000e+00
0.000000e+00
0.000000e+00
0.000000e+00
0.000000e+00
0.000000e+00
0.000000e+00
0.000000e+00
0.000000e+00
0.000000e+00
0.000000e+00
0.000000e+00
0.000000e+00
0.000000e+00
0.000000e+00
0.000000e+00
0.000000e+00
0.000000e+00
0.000000e+00
0.000000e+00
0.000000e+00
0.000000e+00
0.000000e+00
0.000000e+00
0.000000e+00
0.000000e+00
0.000000e+00
6.250000e+00
6.250000e+00
6.250000e+00
6.250000e+00
6.250000e+00
6.250000e+00
6.250000e+00
6.250000e+00
6.250000e+00
6.250000e+00
6.250000e+00
6.250000e+00
6.250000e+00
6.250000e+00
6.250000e+00
6.250000e+00
6.250000e+00
6.250000e+00
6.250000e+00
6.250000e+00
6.250000e+00
6.250000e+00
6.250000e+00
6.250000e+00
6.250000e+00
6.250000e+00
6.250000e+00
6.250000e+00
6.250000e+00
6.250000e+00
6.250000e+00
6.250000e+00
6.250000e+00
1.250000e+01
1.250000e+01
1.250000e+01
1.250000e+01
1.250000e+01
1.250000e+01
1.250000e+01
1.250000e+01
1.250000e+01
1.250000e+01
1.250000e+01
1.250000e+01
1.250000e+01
1.250000e+01
1.250000e+01
1.250000e+01
1.250000e+01
1.250000e+01
1.250000e+01
1.250000e+01
1.250000e+01
1.250000e+01
1.250000e+01
1.250000e+01
1.250000e+01
1.250000e+01
1.250000e+01
1.250000e+01
1.250000e+01
1.250000e+01
1.250000e+01
1.250000e+01
1.250000e+01
1.875000e+01
1.875000e+01
1.875000e+01
1.875000e+01
1.875000e+01
1.875000e+01
1.875000e+01
1.875000e+01
1.875000e+01
1.875000e+01
1.875000e+01
1.875000e+01
1.875000e+01
1.875000e+01
1.875000e+01
1.875000e+01
1.875000e+01
1.875000e+01
1.875000e+01
1.875000e+01
1.875000e+01
1.875000e+01
1.875000e+01
1.875000e+01
1.875000e+01
1.875000e+01
1.875000e+01
1.875000e+01
1.875000e+01
1.875000e+01
1.875000e+01
1.875000e+01
1.875000e+01
2.500000e+01
2.500000e+01
2.500000e+01
2.500000e+01
2.500000e+01
2.500000e+01
2.500000e+01
2.500000e+01
2.500000e+01
2.500000e+01
2.500000e+01
2.500000e+01
2.500000e+01
2.500000e+01
2.500000e+01
2.500000e+01
2.500000e+01
2.500000e+01
2.500000e+01
2.500000e+01
2.500000e+01
2.500000e+01
2.500000e+01
2.500000e+01
2.500000e+01
2.500000e+01
2.500000e+01
2.500000e+01
2.500000e+01
2.500000e+01
2.500000e+01
2.500000e+01
2.500000e+01
3.125000e+01
3.125000e+01
3.125000e+01
3.125000e+01
3.125000e+01
3.125000e+01
3.125000e+01
3.125000e+01
3.125000e+01
3.125000e+01
3.125000e+01
3.125000e+01
3.125000e+01
3.125000e+01
3.125000e+01
3.125000e+01
3.125000e+01
3.125000e+01
3.125000e+01
3.125000e+01
3.125000e+01
3.125000e+01
3.125000e+01
3.125000e+01
3.125000e+01
3.125000e+01
3.125000e+01
3.125000e+01
3.125000e+01
3.125000e+01
3.125000e+01
3.125000e+01
3.125000e+01
3.750000e+01
3.750000e+01
3.750000e+01
3.750000e+01
3.750000e+01
3.750000e+01
3.750000e+01
3.750000e+01
3.750000e+01
3.750000e+01
3.750000e+01
3.750000e+01
3.750000e+01
3.750000e+01
3.750000e+01
3.750000e+01
3.750000e+01
3.750000e+01
3.750000e+01
3.750000e+01
3.750000e+01
3.750000e+01
3.750000e+01
3.750000e+01
3.750000e+01
3.750000e+01
3.750000e+01
3.750000e+01
3.750000e+01
3.750000e+01
3.750000e+01
3.750000e+01
3.750000e+01
4.375000e+01
4.375000e+01
4.375000e+01
4.375000e+01
4.375000e+01
4.375000e+01
4.375000e+01
4.375000e+01
4.375000e+01
4.375000e+01
4.375000e+01
4.375000e+01
4.375000e+01
4.375000e+01
4.375000e+01
4.375000e+01
4.375000e+01
4.375000e+01
4.375000e+01
4.375000e+01
4.375000e+01
4.375000e+01
4.375000e+01
4.375000e+01
4.375000e+01
4.375000e+01
4.375000e+01
4.375000e+01
4.375000e+01
4.375000e+01
4.375000e+01
4.375000e+01
4.375000e+01
5.000000e+01
5.000000e+01
5.000000e+01
5.000000e+01
5.000000e+01
5.000000e+01
5.000000e+01
5.000000e+01
5.000000e+01
5.000000e+01
5.000000e+01
5.000000e+01
5.000000e+01
5.000000e+01
5.000000e+01
5.000000e+01
5.000000e+01
5.000000e+01
5.000000e+01
5.000000e+01
5.000000e+01
5.000000e+01
5.000000e+01
5.000000e+01
5.000000e+01
5.000000e+01
5.000000e+01
5.000000e+01
5.000000e+01
5.000000e+01
5.000000e+01
5.000000e+01
5.000000e+01
5.625000e+01
5.625000e+01
5.625000e+01
5.625000e+01
5.625000e+01
5.625000e+01
5.625000e+01
5.625000e+01
5.625000e+01
5.625000e+01
5.625000e+01
5.625000e+01
5.625000e+01
5.625000e+01
5.625000e+01
5.625000e+01
5.625000e+01
5.625000e+01
5.625000e+01
5.625000e+01
5.625000e+01
5.625000e+01
5.625000e+01
5.625000e+01
5.625000e+01
5.625000e+01
5.625000e+01
5.625000e+01
5.625000e+01
5.625000e+01
5.625000e+01
5.625000e+01
5.625000e+01
6.250000e+01
6.250000e+01
6.250000e+01
6.250000e+01
6.250000e+01
6.250000e+01
6.250000e+01
6.250000e+01
6.250000e+01
6.250000e+01
6.250000e+01
6.250000e+01
6.250000e+01
6.250000e+01
6.250000e+01
6.250000e+01
6.250000e+01
6.250000e+01
6.250000e+01
6.250000e+01
6.250000e+01
6.250000e+01
6.250000e+01
6.250000e+01
6.250000e+01
6.250000e+01
6.250000e+01
6.250000e+01
6.250000e+01
6.250000e+01
6.250000e+01
6.250000e+01
6.250000e+01
6.875000e+01
6.875000e+01
6.875000e+01
6.875000e+01
6.875000e+01
6.875000e+01
6.875000e+01
6.875000e+01
6.875000e+01
6.875000e+01
6.875000e+01
6.875000e+01
6.875000e+01
6.875000e+01
6.875000e+01
6.875000e+01
6.875000e+01
6.875000e+01
6.875000e+01
6.875000e+01
6.875000e+01
6.875000e+01
6.875000e+01
6.875000e+01
6.875000e+01
6.875000e+01
6.875000e+01
6.875000e+01
6.875000e+01
6.875000e+01
6.875000e+01
6.875000e+01
6.875000e+01
7.500000e+01
7.500000e+01
7.500000e+01
7.500000e+01
7.500000e+01
7.500000e+01
7.500000e+01
7.500000e+01
7.500000e+01
7.500000e+01
7.500000e+01
7.500000e+01
7.500000e+01
7.500000e+01
7.500000e+01
7.500000e+01
7.500000e+01
7.500000e+01
7.500000e+01
7.500000e+01
7.500000e+01
7.500000e+01
7.500000e+01
7.500000e+01
7.500000e+01
7.500000e+01
7.500000e+01
7.500000e+01
7.500000e+01
7.500000e+01
7.500000e+01
7.500000e+01
7.500000e+01
8.125000e+01
8.125000e+01
8.125000e+01
8.125000e+01
8.125000e+01
8.125000e+01
8.125000e+01
8.125000e+01
8.125000e+01
8.125000e+01
8.125000e+01
8.125000e+01
8.125000e+01
8.125000e+01
8.125000e+01
8.125000e+01
8.125000e+01
8.125000e+01
8.125000e+01
8.125000e+01
8.125000e+01
8.125000e+01
8.125000e+01
8.125000e+01
8.125000e+01
8.125000e+01
8.125000e+01
8.125000e+01
8.125000e+01
8.125000e+01
8.125000e+01
8.125000e+01
8.125000e+01
8.750000e+01
8.750000e+01
8.750000e+01
8.750000e+01
8.750000e+01
8.750000e+01
8.750000e+01
8.750000e+01
8.750000e+01
8.750000e+01
8.750000e+01
8.750000e+01
8.750000e+01
8.750000e+01
8.750000e+01
8.750000e+01
8.750000e+01
8.750000e+01
8.750000e+01
8.750000e+01
8.750000e+01
8.750000e+01
8.750000e+01
8.750000e+01
8.750000e+01
8.750000e+01
8.750000e+01
8.750000e+01
8.750000e+01
8.750000e+01
8.750000e+01
8.750000e+01
8.750000e+01
9.375000e+01
9.375000e+01
9.375000e+01
9.375000e+01
9.375000e+01
9.375000e+01
9.375000e+01
9.375000e+01
9.375000e+01
9.375000e+01
9.375000e+01
9.375000e+01
9.375000e+01
9.375000e+01
9.375000e+01
9.375000e+01
9.375000e+01
9.375000e+01
9.375000e+01
9.375000e+01
9.375000e+01
9.375000e+01
9.375000e+01
9.375000e+01
9.375000e+01
9.375000e+01
9.375000e+01
9.375000e+01
9.375000e+01
9.375000e+01
9.375000e+01
9.375000e+01
9.375000e+01
1.000000e+02
1.000000e+02
1.000000e+02
1.000000e+02
1.000000e+02
1.000000e+02
1.000000e+02
1.000000e+02
1.000000e+02
1.000000e+02
1.000000e+02
1.000000e+02
1.000000e+02
1.000000e+02
1.000000e+02
1.000000e+02
1.000000e+02
1.000000e+02
1.000000e+02
1.000000e+02
1.000000e+02
1.000000e+02
1.000000e+02
1.000000e+02
1.000000e+02
1.000000e+02
1.000000e+02
1.000000e+02
1.000000e+02
1.000000e+02
1.000000e+02
1.000000e+02
1.000000e+02
0.000000e+00
-4.040065e-01
-7.206036e-01
-1.032193e+00
-1.343833e+00
-1.640615e+00
-1.943042e+00
-2.243431e+00
-2.539602e+00
-2.838154e+00
-3.136080e+00
-3.432364e+00
-3.729448e+00
-4.026427e+00
-4.322581e+00
-4.618792e+00
-4.914998e+00
-5.210834e+00
-5.506537e+00
-5.802238e+00
-6.097915e+00
-6.393809e+00
-6.690231e+00
-6.987333e+00
-7.285501e+00
-7.585671e+00
-7.889340e+00
-8.199532e+00
-8.522741e+00
-8.870957e+00
-9.253020e+00
-9.627068e+00
-9.829908e+00
0.000000e+00
-2.383948e-01
-4.917478e-01
-7.521300e-01
-1.018723e+00
-1.274994e+00
-1.537861e+00
-1.800427e+00
-2.059632e+00
-2.321067e+00
-2.582143e+00
-2.841707e+00
-3.101889e+00
-3.361964e+00
-3.621206e+00
-3.880351e+00
-4.139358e+00
-4.397858e+00
-4.655991e+00
-4.913806e+00
-5.171146e+00
-5.427966e+00
-5.684132e+00
-5.939178e+00
-6.192538e+00
-6.443562e+00
-6.691283e+00
-6.935010e+00
-7.174305e+00
-7.401544e+00
-7.577915e+00
-7.657316e+00
-7.755797e+00
0.000000e+00
-1.558250e-01
-3.261895e-01
-5.272873e-01
-7.421507e-01
-9.548809e-01
-1.176452e+00
-1.399792e+00
-1.622070e+00
-1.846743e+00
-2.071533e+00
-2.295561e+00
-2.520181e+00
-2.744729e+00
-2.968665e+00
-3.192407e+00
-3.415789e+00
-3.638449e+00
-3.860319e+00
-4.081181e+00
-4.300579e+00
-4.517961e+00
-4.732501e+00
-4.942968e+00
-5.147773e+00
-5.344709e+00
-5.530591e+00
-5.701182e+00
-5.849736e+00
-5.960718e+00
-6.004130e+00
-6.003633e+00
-6.093027e+00
0.000000e+00
-1.072670e-01
-2.243709e-01
-3.697792e-01
-5.318568e-01
-7.010266e-01
-8.808296e-01
-1.064194e+00
-1.249266e+00
-1.437117e+00
-1.625615e+00
-1.814258e+00
-2.003511e+00
-2.192679e+00
-2.381406e+00
-2.569734e+00
-2.757311e+00
-2.943735e+00
-3.128667e+00
-3.311537e+00
-3.491523e+00
-3.667577e+00
-3.838320e+00
-4.001961e+00
-4.156179e+00
-4.297785e+00
-4.422475e+00
-4.524752e+00
-4.597195e+00
-4.629905e+00
-4.624080e+00
-4.630517e+00
-4.709107e+00
0.000000e+00
-9.215788e-02
-1.845965e-01
-2.922769e-01
-4.103055e-01
-5.398770e-01
-6.773665e-01
-8.195096e-01
-9.654919e-01
-1.113887e+00
-1.263484e+00
-1.413952e+00
-1.564831e+00
-1.715631e+00
-1.866080e+00
-2.015840e+00
-2.164480e+00
-2.311544e+00
-2.456435e+00
-2.598330e+00
-2.736169e+00
-2.868625e+00
-2.994042e+00
-3.110355e+00
-3.214946e+00
-3.304506e+00
-3.375085e+00
-3.422468e+00
-3.443059e+00
-3.437212e+00
-3.423577e+00
-3.448883e+00
-3.526414e+00
0.000000e+00
-7.264510e-02
-1.459834e-01
-2.234447e-01
-3.092634e-01
-4.021923e-01
-5.012310e-01
-6.050824e-01
-7.122672e-01
-8.217203e-01
-9.326509e-01
-1.044388e+00
-1.156444e+00
-1.268426e+00
-1.379934e+00
-1.490550e+00
-1.599812e+00
-1.707161e+00
-1.811874e+00
-1.913021e+00
-2.009434e+00
-2.099679e+00
-2.182018e+00
-2.254376e+00
-2.314339e+00
-2.359245e+00
-2.386495e+00
-2.394394e+00
-2.384020e+00
-2.363138e+00
-2.356183e+00
-2.389522e+00
-2.466035e+00
0.000000e+00
-4.985598e-02
-9.987604e-02
-1.520763e-01
-2.080397e-01
-2.684266e-01
-3.327494e-01
-4.003405e-01
-4.704001e-01
-5.421597e-01
-6.149906e-01
-6.883692e-01
-7.618629e-01
-8.350996e-01
-9.077036e-01
-9.792676e-01
-1.049328e+00
-1.117314e+00
-1.182499e+00
-1.243961e+00
-1.300555e+00
-1.350899e+00
-1.393379e+00
-1.426192e+00
-1.447480e+00
-1.455588e+00
-1.449579e+00
-1.430273e+00
-1.402040e+00
-1.376084e+00
-1.373576e+00
-1.410855e+00
-1.484612e+00
0.000000e+00
-2.540632e-02
-5.095456e-02
-7.729764e-02
-1.051952e-01
-1.349719e-01
-1.665800e-01
-1.997130e-01
-2.339881e-01
-2.690095e-01
-3.044065e-01
-3.398483e-01
-3.750402e-01
-4.097013e-01
-4.435351e-01
-4.762063e-01
-5.073147e-01
-5.363605e-01
-5.627075e-01
-5.855529e-01
-6.039102e-01
-6.166150e-01
-6.223685e-01
-6.198492e-01
-6.079305e-01
-5.860562e-01
-5.548744e-01
-5.172314e-01
-4.794474e-01
-4.528416e-01
-4.536060e-01
-4.915527e-01
-5.610410e-01
0.000000e+00
-4.188558e-04
-7.686185e-04
-1.029661e-03
-1.174625e-03
-1.167595e-03
-9.650483e-04
-5.155535e-04
2.420773e-04
1.380927e-03
2.987823e-03
5.165584e-03
8.036767e-03
1.174959e-02
1.648612e-02
2.247324e-02
2.999768e-02
3.942588e-02
5.122513e-02
6.597947e-02
8.439352e-02
1.072720e-01
1.354479e-01
1.696219e-01
2.100832e-01
2.562806e-01
3.062096e-01
3.556745e-01
3.977010e-01
4.223248e-01
4.186978e-01
3.823521e-01
3.204316e-01
0.000000e+00
2.458920e-02
4.945667e-02
7.529400e-02
1.029162e-01
1.327182e-01
1.647357e-01
1.987612e-01
2.345298e-01
2.717868e-01
3.103301e-01
3.500290e-01
3.908284e-01
4.327367e-01
4.758101e-01
5.201497e-01
5.659033e-01
6.132666e-01
6.624827e-01
7.138390e-01
7.676611e-01
8.242870e-01
8.839735e-01
9.466983e-01
1.011855e+00
1.077866e+00
1.141759e+00
1.198801e+00
1.242473e+00
1.265155e+00
1.260702e+00
1.228992e+00
1.178658e+00
0.000000e+00
4.908991e-02
9.847285e-02
1.502036e-01
2.059245e-01
2.663600e-01
3.310971e-01
3.995565e-01
4.710458e-01
5.449262e-01
6.207240e-01
6.980998e-01
7.768418e-01
8.568421e-01
9.380399e-01
1.020406e+00
1.103944e+00
1.188666e+00
1.274559e+00
1.361563e+00
1.449558e+00
1.538343e+00
1.627537e+00
1.716362e+00
1.803371e+00
1.886200e+00
1.961406e+00
2.024458e+00
2.070070e+00
2.093235e+00
2.091425e+00
2.067394e+00
2.030553e+00
0.000000e+00
7.192977e-02
1.446578e-01
2.216707e-01
3.072626e-01
4.002375e-01
4.996568e-01
6.043005e-01
7.127825e-01
8.241554e-01
9.377672e-01
1.053107e+00
1.169876e+00
1.287903e+00
1.407033e+00
1.527121e+00
1.648028e+00
1.769581e+00
1.891503e+00
2.013368e+00
2.134592e+00
2.254426e+00
2.371851e+00
2.485374e+00
2.592843e+00
2.691401e+00
2.777588e+00
2.847547e+00
2.897461e+00
2.924509e+00
2.928509e+00
2.913723e+00
2.889908e+00
0.000000e+00
9.143178e-02
1.832455e-01
2.904319e-01
4.081807e-01
5.377151e-01
6.754374e-01
8.181509e-01
9.651279e-01
1.115038e+00
1.266793e+00
1.420205e+00
1.574964e+00
1.730749e+00
1.887456e+00
2.044891e+00
2.202755e+00
2.360715e+00
2.518267e+00
2.674649e+00
2.828862e+00
2.979664e+00
3.125404e+00
3.263840e+00
3.392137e+00
3.507098e+00
3.605482e+00
3.684283e+00
3.741059e+00
3.774620e+00
3.786146e+00
3.780558e+00
3.767856e+00
0.000000e+00
1.065048e-01
2.229408e-01
3.678060e-01
5.294913e-01
6.984416e-01
8.781899e-01
1.061690e+00
1.247170e+00
1.435783e+00
1.625477e+00
1.815871e+00
2.007560e+00
2.199969e+00
2.392851e+00
2.586309e+00
2.779977e+00
2.973351e+00
3.165855e+00
3.356517e+00
3.544011e+00
3.726671e+00
3.902112e+00
4.067034e+00
4.217629e+00
4.350244e+00
4.461888e+00
4.550469e+00
4.614929e+00
4.655523e+00
4.674423e+00
4.676766e+00
4.672466e+00
0.000000e+00
1.552927e-01
3.251835e-01
5.258724e-01
7.403970e-01
9.528555e-01
1.174194e+00
1.397331e+00
1.619482e+00
1.844141e+00
2.069047e+00
2.293369e+00
2.518531e+00
2.743926e+00
2.969043e+00
3.194304e+00
3.419488e+00
3.644064e+00
3.867607e+00
4.089255e+00
4.307627e+00
4.520792e+00
4.725535e+00
4.917059e+00
5.090018e+00
5.239892e+00
5.363732e+00
5.460350e+00
5.530218e+00
5.575301e+00
5.599025e+00
5.606761e+00
5.607600e+00
0.000000e+00
2.383161e-01
4.916085e-01
7.519077e-01
1.018398e+00
1.274566e+00
1.537299e+00
1.799659e+00
2.058609e+00
2.319735e+00
2.580398e+00
2.839409e+00
3.098889e+00
3.358066e+00
3.616135e+00
3.873736e+00
4.130718e+00
4.386520e+00
4.640903e+00
4.893198e+00
5.142066e+00
5.385353e+00
5.618922e+00
5.836226e+00
6.030078e+00
6.194799e+00
6.327225e+00
6.426923e+00
6.495974e+00
6.538562e+00
6.560460e+00
6.568452e+00
6.570389e+00
0.000000e+00
4.045375e-01
7.215382e-01
1.033475e+00
1.345373e+00
1.642381e+00
1.945004e+00
2.245499e+00
2.541711e+00
2.840220e+00
3.137925e+00
3.433742e+00
3.730061e+00
4.025864e+00
4.320284e+00
4.614059e+00
4.906972e+00
5.198438e+00
5.488278e+00
5.775775e+00
6.059311e+00
6.336005e+00
6.600248e+00
6.843533e+00
7.056879e+00
7.233366e+00
7.369234e+00
7.464222e+00
7.521564e+00
7.547888e+00
7.553090e+00
7.549475e+00
7.547344e+00
0.000000e+00
-2.453731e-01
-4.811595e-01
-7.744837e-01
-1.106570e+00
-1.476630e+00
-1.887016e+00
-2.332875e+00
-2.815600e+00
-3.335994e+00
-3.892853e+00
-4.486968e+00
-5.118861e+00
-5.788164e+00
-6.495151e+00
-7.240166e+00
-8.023166e+00
-8.844248e+00
-9.703614e+00
-1.060134e+01
-1.153754e+01
-1.251246e+01
-1.352648e+01
-1.458025e+01
-1.567507e+01
-1.681325e+01
-1.799893e+01
-1.923933e+01
-2.054491e+01
-2.193017e+01
-2.343310e+01
-2.520474e+01
-2.766270e+01
0.000000e+00
-1.522514e-01
-3.998136e-01
-6.890960e-01
-1.022952e+00
-1.393469e+00
-1.802750e+00
-2.249418e+00
-2.732193e+00
-3.252204e+00
-3.809408e+00
-4.403609e+00
-5.035380e+00
-5.704851e+00
-6.411975e+00
-7.157010e+00
-7.940120e+00
-8.761344e+00
-9.620814e+00
-1.051867e+01
-1.145500e+01
-1.243004e+01
-1.344421e+01
-1.449820e+01
-1.559326e+01
-1.673165e+01
-1.791738e+01
-1.915735e+01
-2.046264e+01
-2.185147e+01
-2.336707e+01
-2.511263e+01
-2.732661e+01
0.000000e+00
-1.184022e-01
-3.405727e-01
-6.250218e-01
-9.560764e-01
-1.324421e+00
-1.732254e+00
-2.178314e+00
-2.660550e+00
-3.180193e+00
-3.737337e+00
-4.331482e+00
-4.963229e+00
-5.632818e+00
-6.340101e+00
-7.085321e+00
-7.868696e+00
-8.690264e+00
-9.550155e+00
-1.044854e+01
-1.138555e+01
-1.236146e+01
-1.337676e+01
-1.443223e+01
-1.552920e+01
-1.667003e+01
-1.785886e+01
-1.910311e+01
-2.041656e+01
-2.182489e+01
-2.335630e+01
-2.499950e+01
-2.673193e+01
0.000000e+00
-1.180217e-01
-3.177049e-01
-5.883055e-01
-9.106401e-01
-1.273295e+00
-1.677707e+00
-2.121207e+00
-2.601880e+00
-3.120633e+00
-3.677162e+00
-4.271016e+00
-4.902722e+00
-5.572408e+00
-6.279961e+00
-7.025617e+00
-7.809575e+00
-8.631917e+00
-9.492814e+00
-1.039247e+01
-1.133110e+01
-1.230902e+01
-1.332680e+01
-1.438528e+01
-1.548592e+01
-1.663117e+01
-1.782526e+01
-1.907602e+01
-2.039846e+01
-2.181692e+01
-2.332761e+01
-2.484178e+01
-2.623606e+01
0.000000e+00
-1.334822e-01
-3.234116e-01
-5.798793e-01
-8.883618e-01
-1.242866e+00
-1.640951e+00
-2.079745e+00
-2.557689e+00
-3.074613e+00
-3.629910e+00
-4.223244e+00
-4.854810e+00
-5.524618e+00
-6.232640e+00
-6.979040e+00
-7.763991e+00
-8.587649e+00
-9.450235e+00
-1.035199e+01
-1.129318e+01
-1.227417e+01
-1.329551e+01
-1.435808e+01
-1.546328e+01
-1.661340e+01
-1.781218e+01
-1.906642e+01
-2.038846e+01
-2.179178e+01
-2.324694e+01
-2.463831e+01
-2.587027e+01
0.000000e+00
-1.406084e-01
-3.317877e-01
-5.787020e-01
-8.781809e-01
-1.225082e+00
-1.616964e+00
-2.051207e+00
-2.526160e+00
-3.041037e+00
-3.595081e+00
-4.187869e+00
-4.819326e+00
-5.489396e+00
-6.198071e+00
-6.945467e+00
-7.731755e+00
-8.557158e+00
-9.421945e+00
-1.032639e+01
-1.127079e+01
-1.225549e+01
-1.328096e+01
-1.434790e+01
-1.545740e+01
-1.661109e+01
-1.781143e+01
-1.906236e+01
-2.037030e+01
-2.173726e+01
-2.311548e+01
-2.440968e+01
-2.553853e+01
0.000000e+00
-1.435081e-01
-3.357880e-01
-5.792129e-01
-8.730901e-01
-1.214959e+00
-1.602280e+00
-2.032999e+00
-2.505529e+00
-3.018745e+00
-3.571827e+00
-4.164249e+00
-4.795757e+00
-5.466251e+00
-6.175725e+00
-6.924272e+00
-7.712088e+00
-8.539444e+00
-9.406654e+00
-1.031402e+01
-1.126183e+01
-1.225035e+01
-1.327987e+01
-1.435068e+01
-1.546320e+01
-1.661793e+01
-1.781538e+01
-1.905573e+01
-2.033879e+01
-2.165708e+01
-2.296154e+01
-2.417610e+01
-2.523110e+01
0.000000e+00
-1.446887e-01
-3.374441e-01
-5.795636e-01
-8.708816e-01
-1.209918e+00
-1.594707e+00
-2.023396e+00
-2.494481e+00
-3.006787e+00
-3.559433e+00
-4.151823e+00
-4.783631e+00
-5.454725e+00
-6.165098e+00
-6.914853e+00
-7.704212e+00
-8.533489e+00
-9.403038e+00
-1.031318e+01
-1.126414e+01
-1.225606e+01
-1.328892e+01
-1.436245e+01
-1.547610e+01
-1.662891e+01
-1.781913e+01
-1.904339e+01
-2.029582e+01
-2.156261e+01
-2.280055e+01
-2.394848e+01
-2.494629e+01
0.000000e+00
-1.450528e-01
-3.380181e-01
-5.798916e-01
-8.705881e-01
-1.208904e+00
-1.593064e+00
-2.021318e+00
-2.492187e+00
-3.004499e+00
-3.557361e+00
-4.150160e+00
-4.782555e+00
-5.454415e+00
-6.165742e+00
-6.916660e+00
-7.707419e+00
-8.538369e+00
-9.409892e+00
-1.032230e+01
-1.127576e+01
-1.227022e+01
-1.330527e+01
-1.437998e+01
-1.549270e+01
-1.664087e+01
-1.782054e+01
-1.902548e+01
-2.024582e+01
-2.146390e+01
-2.264318e+01
-2.373492e+01
-2.468933e+01
0.000000e+00
-1.448686e-01
-3.378669e-01
-5.803037e-01
-8.720304e-01
-1.211574e+00
-1.596973e+00
-2.026380e+00
-2.498301e+00
-3.011574e+00
-3.565329e+00
-4.158986e+00
-4.792241e+00
-5.464992e+00
-6.177266e+00
-6.929208e+00
-7.721089e+00
-8.553285e+00
-9.426189e+00
-1.034009e+01
-1.129508e+01
-1.229090e+01
-1.332677e+01
-1.440106e+01
-1.551100e+01
-1.665249e+01
-1.781967e+01
-1.900416e+01
-2.019368e+01
-2.136919e+01
-2.250024e+01
-2.354876e+01
-2.447594e+01
0.000000e+00
-1.438679e-01
-3.366190e-01
-5.806638e-01
-8.753421e-01
-1.218205e+00
-1.606717e+00
-2.038837e+00
-2.512995e+00
-3.028094e+00
-3.583334e+00
-4.178219e+00
-4.812533e+00
-5.486230e+00
-6.199365e+00
-6.952103e+00
-7.744726e+00
-8.577615e+00
-9.451158e+00
-1.036561e+01
-1.132097e+01
-1.231685e+01
-1.335217e+01
-1.442465e+01
-1.553048e+01
-1.666416e+01
-1.781827e+01
-1.898292e+01
-2.014476e+01
-2.128539e+01
-2.238002e+01
-2.339990e+01
-2.431579e+01
0.000000e+00
-1.411328e-01
-3.329754e-01
-5.807860e-01
-8.814244e-01
-1.229761e+00
-1.623364e+00
-2.059622e+00
-2.536916e+00
-3.054497e+00
-3.611638e+00
-4.207949e+00
-4.843410e+00
-5.518021e+00
-6.231850e+00
-6.985095e+00
-7.778032e+00
-8.611014e+00
-9.484403e+00
-1.039841e+01
-1.135300e+01
-1.234774e+01
-1.338135e+01
-1.445103e+01
-1.555205e+01
-1.667768e+01
-1.781922e+01
-1.896588e+01
-2.010421e+01
-2.121761e+01
-2.228662e+01
-2.329043e+01
-2.420806e+01
0.000000e+00
-1.341115e-01
-3.248270e-01
-5.824331e-01
-8.923830e-01
-1.248693e+00
-1.648950e+00
-2.090278e+00
-2.571155e+00
-3.091476e+00
-3.650653e+00
-4.248386e+00
-4.884932e+00
-5.560347e+00
-6.274663e+00
-7.028118e+00
-7.820977e+00
-8.653521e+00
-9.526067e+00
-1.043880e+01
-1.139169e+01
-1.238437e+01
-1.341548e+01
-1.448180e+01
-1.557777e+01
-1.669564e+01
-1.782576e+01
-1.895682e+01
-2.007584e+01
-2.116851e+01
-2.222016e+01
-2.321683e+01
-2.414560e+01
0.000000e+00
-1.186071e-01
-3.191487e-01
-5.910625e-01
-9.150968e-01
-1.279818e+00
-1.686728e+00
-2.133134e+00
-2.617165e+00
-3.139818e+00
-3.700799e+00
-4.299687e+00
-4.937078e+00
-5.613123e+00
-6.327734e+00
-7.081192e+00
-7.873748e+00
-8.705562e+00
-9.576898e+00
-1.048793e+01
-1.143865e+01
-1.242876e+01
-1.345689e+01
-1.451944e+01
-1.561017e+01
-1.672053e+01
-1.784032e+01
-1.895805e+01
-2.006144e+01
-2.113833e+01
-2.217802e+01
-2.317268e+01
-2.411794e+01
0.000000e+00
-1.188197e-01
-3.419047e-01
-6.277389e-01
-9.606007e-01
-1.331127e+00
-1.741592e+00
-2.190729e+00
-2.676522e+00
-3.200306e+00
-3.762192e+00
-4.361700e+00
-4.999507e+00
-5.675860e+00
-6.390599e+00
-7.143982e+00
-7.936225e+00
-8.767377e+00
-9.637617e+00
-1.054708e+01
-1.149573e+01
-1.248322e+01
-1.350803e+01
-1.456619e+01
-1.565100e+01
-1.675359e+01
-1.786361e+01
-1.896973e+01
-2.006044e+01
-2.112519e+01
-2.215612e+01
-2.315041e+01
-2.411264e+01
0.000000e+00
-1.525769e-01
-4.010821e-01
-6.917630e-01
-1.027451e+00
-1.400186e+00
-1.812123e+00
-2.261907e+00
-2.748295e+00
-3.272502e+00
-3.834516e+00
-4.434166e+00
-5.072087e+00
-5.748415e+00
-6.463070e+00
-7.216303e+00
-8.008244e+00
-8.838886e+00
-9.708337e+00
-1.061664e+01
-1.156363e+01
-1.254868e+01
-1.356979e+01
-1.462258e+01
-1.570021e+01
-1.679401e+01
-1.789402e+01
-1.898947e+01
-2.006961e+01
-2.112488e+01
-2.214902e+01
-2.314234e+01
-2.411631e+01
0.000000e+00
-2.457791e-01
-4.824718e-01
-7.771874e-01
-1.111094e+00
-1.483374e+00
-1.896405e+00
-2.345366e+00
-2.831697e+00
-3.356267e+00
-3.917898e+00
-4.517416e+00
-5.155397e+00
-5.831465e+00
-6.545856e+00
-7.298897e+00
-8.090501e+00
-8.920679e+00
-9.789521e+00
-1.069689e+01
-1.164240e+01
-1.262490e+01
-1.364160e+01