TITLE = "Solution"
VARIABLES = x, y, u, v, psiu, psiv, t, stress
ZONE T="structure" N=561 E=512 F=FEBLOCK ET=QUADRILATERAL VARLOCATION=([7,8]=cellcentered)
0.000000e+00
6.250000e+00
1.250000e+01
1.875000e+01
2.500000e+01
3.125000e+01
3.750000e+01
4.375000e+01
5.000000e+01
5.625000e+01
6.250000e+01
6.875000e+01
7.500000e+01
8.125000e+01
8.750000e+01
9.375000e+01
1.000000e+02
1.062500e+02
1.125000e+02
1.187500e+02
1.250000e+02
1.312500e+02
1.375000e+02
1.437500e+02
1.500000e+02
1.562500e+02
1.625000e+02
1.687500e+02
1.750000e+02
1.812500e+02
1.875000e+02
1.937500e+02
2.000000e+02
0.000000e+00
6.250000e+00
1.250000e+01
1.875000e+01
2.500000e+01
3.125000e+01
3.750000e+01
4.375000e+01
5.000000e+01
5.625000e+01
6.250000e+01
6.875000e+01
7.500000e+01
8.125000e+01
8.750000e+01
9.375000e+01
1.000000e+02
1.062500e+02
1.125000e+02
1.187500e+02
1.250000e+02
1.312500e+02
1.375000e+02
1.437500e+02
1.500000e+02
1.562500e+02
1.625000e+02
1.687500e+02
1.750000e+02
1.812500e+02
1.875000e+02
1.937500e+02
2.000000e+02
0.000000e+00
6.250000e+00
1.250000e+01
1.875000e+01
2.500000e+01
3.125000e+01
3.750000e+01
4.375000e+01
5.000000e+01
5.625000e+01
6.250000e+01
6.875000e+01
7.500000e+01
8.125000e+01
8.750000e+01
9.375000e+01
1.000000e+02
1.062500e+02
1.125000e+02
1.187500e+02
1.250000e+02
1.312500e+02
1.375000e+02
1.437500e+02
1.500000e+02
1.562500e+02
1.625000e+02
1.687500e+02
1.750000e+02
1.812500e+02
1.875000e+02
1.937500e+02
2.000000e+02
0.000000e+00
6.250000e+00
1.250000e+01
1.875000e+01
2.500000e+01
3.125000e+01
3.750000e+01
4.375000e+01
5.000000e+01
5.625000e+01
6.250000e+01
6.875000e+01
7.500000e+01
8.125000e+01
8.750000e+01
9.375000e+01
1.000000e+02
1.062500e+02
1.125000e+02
1.187500e+02
1.250000e+02
1.312500e+02
1.375000e+02
1.437500e+02
1.500000e+02
1.562500e+02
1.625000e+02
1.687500e+02
1.750000e+02
1.812500e+02
1.875000e+02
1.937500e+02
2.000000e+02
0.000000e+00
6.250000e+00
1.250000e+01
1.875000e+01
2.500000e+01
3.125000e+01
3.750000e+01
4.375000e+01
5.000000e+01
5.625000e+01
6.250000e+01
6.875000e+01
7.500000e+01
8.125000e+01
8.750000e+01
9.375000e+01
1.000000e+02
1.062500e+02
1.125000e+02
1.187500e+02
1.250000e+02
1.312500e+02
1.375000e+02
1.437500e+02
1.500000e+02
1.562500e+02
1.625000e+02
1.687500e+02
1.750000e+02
1.812500e+02
1.875000e+02
1.937500e+02
2.000000e+02
0.000000e+00
6.250000e+00
1.250000e+01
1.875000e+01
2.500000e+01
3.125000e+01
3.750000e+01
4.375000e+01
5.000000e+01
5.625000e+01
6.250000e+01
6.875000e+01
7.500000e+01
8.125000e+01
8.750000e+01
9.375000e+01
1.000000e+02
1.062500e+02
1.125000e+02
1.187500e+02
1.250000e+02
1.312500e+02
1.375000e+02
1.437500e+02
1.500000e+02
1.562500e+02
1.625000e+02
1.687500e+02
1.750000e+02
1.812500e+02
1.875000e+02
1.937500e+02
2.000000e+02
0.000000e+00
6.250000e+00
1.250000e+01
1.875000e+01
2.500000e+01
3.125000e+01
3.750000e+01
4.375000e+01
5.000000e+01
5.625000e+01
6.250000e+01
6.875000e+01
7.500000e+01
8.125000e+01
8.750000e+01
9.375000e+01
1.000000e+02
1.062500e+02
1.125000e+02
1.187500e+02
1.250000e+02
1.312500e+02
1.375000e+02
1.437500e+02
1.500000e+02
1.562500e+02
1.625000e+02
1.687500e+02
1.750000e+02
1.812500e+02
1.875000e+02
1.937500e+02
2.000000e+02
0.000000e+00
6.250000e+00
1.250000e+01
1.875000e+01
2.500000e+01
3.125000e+01
3.750000e+01
4.375000e+01
5.000000e+01
5.625000e+01
6.250000e+01
6.875000e+01
7.500000e+01
8.125000e+01
8.750000e+01
9.375000e+01
1.000000e+02
1.062500e+02
1.125000e+02
1.187500e+02
1.250000e+02
1.312500e+02
1.375000e+02
1.437500e+02
1.500000e+02
1.562500e+02
1.625000e+02
1.687500e+02
1.750000e+02
1.812500e+02
1.875000e+02
1.937500e+02
2.000000e+02
0.000000e+00
6.250000e+00
1.250000e+01
1.875000e+01
2.500000e+01
3.125000e+01
3.750000e+01
4.375000e+01
5.000000e+01
5.625000e+01
6.250000e+01
6.875000e+01
7.500000e+01
8.125000e+01
8.750000e+01
9.375000e+01
1.000000e+02
1.062500e+02
1.125000e+02
1.187500e+02
1.250000e+02
1.312500e+02
1.375000e+02
1.437500e+02
1.500000e+02
1.562500e+02
1.625000e+02
1.687500e+02
1.750000e+02
1.812500e+02
1.875000e+02
1.937500e+02
2.000000e+02
0.000000e+00
6.250000e+00
1.250000e+01
1.875000e+01
2.500000e+01
3.125000e+01
3.750000e+01
4.375000e+01
5.000000e+01
5.625000e+01
6.250000e+01
6.875000e+01
7.500000e+01
8.125000e+01
8.750000e+01
9.375000e+01
1.000000e+02
1.062500e+02
1.125000e+02
1.187500e+02
1.250000e+02
1.312500e+02
1.375000e+02
1.437500e+02
1.500000e+02
1.562500e+02
1.625000e+02
1.687500e+02
1.750000e+02
1.812500e+02
1.875000e+02
1.937500e+02
2.000000e+02
0.000000e+00
6.250000e+00
1.250000e+01
1.875000e+01
2.500000e+01
3.125000e+01
3.750000e+01
4.375000e+01
5.000000e+01
5.625000e+01
6.250000e+01
6.875000e+01
7.500000e+01
8.125000e+01
8.750000e+01
9.375000e+01
1.000000e+02
1.062500e+02
1.125000e+02
1.187500e+02
1.250000e+02
1.312500e+02
1.375000e+02
1.437500e+02
1.500000e+02
1.562500e+02
1.625000e+02
1.687500e+02
1.750000e+02
1.812500e+02
1.875000e+02
1.937500e+02
2.000000e+02
0.000000e+00
6.250000e+00
1.250000e+01
1.875000e+01
2.500000e+01
3.125000e+01
3.750000e+01
4.375000e+01
5.000000e+01
5.625000e+01
6.250000e+01
6.875000e+01
7.500000e+01
8.125000e+01
8.750000e+01
9.375000e+01
1.000000e+02
1.062500e+02
1.125000e+02
1.187500e+02
1.250000e+02
1.312500e+02
1.375000e+02
1.437500e+02
1.500000e+02
1.562500e+02
1.625000e+02
1.687500e+02
1.750000e+02
1.812500e+02
1.875000e+02
1.937500e+02
2.000000e+02
0.000000e+00
6.250000e+00
1.250000e+01
1.875000e+01
2.500000e+01
3.125000e+01
3.750000e+01
4.375000e+01
5.000000e+01
5.625000e+01
6.250000e+01
6.875000e+01
7.500000e+01
8.125000e+01
8.750000e+01
9.375000e+01
1.000000e+02
1.062500e+02
1.125000e+02
1.187500e+02
1.250000e+02
1.312500e+02
1.375000e+02
1.437500e+02
1.500000e+02
1.562500e+02
1.625000e+02
1.687500e+02
1.750000e+02
1.812500e+02
1.875000e+02
1.937500e+02
2.000000e+02
0.000000e+00
6.250000e+00
1.250000e+01
1.875000e+01
2.500000e+01
3.125000e+01
3.750000e+01
4.375000e+01
5.000000e+01
5.625000e+01
6.250000e+01
6.875000e+01
7.500000e+01
8.125000e+01
8.750000e+01
9.375000e+01
1.000000e+02
1.062500e+02
1.125000e+02
1.187500e+02
1.250000e+02
1.312500e+02
1.375000e+02
1.437500e+02
1.500000e+02
1.562500e+02
1.625000e+02
1.687500e+02
1.750000e+02
1.812500e+02
1.875000e+02
1.937500e+02
2.000000e+02
0.000000e+00
6.250000e+00
1.250000e+01
1.875000e+01
2.500000e+01
3.125000e+01
3.750000e+01
4.375000e+01
5.000000e+01
5.625000e+01
6.250000e+01
6.875000e+01
7.500000e+01
8.125000e+01
8.750000e+01
9.375000e+01
1.000000e+02
1.062500e+02
1.125000e+02
1.187500e+02
1.250000e+02
1.312500e+02
1.375000e+02
1.437500e+02
1.500000e+02
1.562500e+02
1.625000e+02
1.687500e+02
1.750000e+02
1.812500e+02
1.875000e+02
1.937500e+02
2.000000e+02
0.000000e+00
6.250000e+00
1.250000e+01
1.875000e+01
2.500000e+01
3.125000e+01
3.750000e+01
4.375000e+01
5.000000e+01
5.625000e+01
6.250000e+01
6.875000e+01
7.500000e+01
8.125000e+01
8.750000e+01
9.375000e+01
1.000000e+02
1.062500e+02
1.125000e+02
1.187500e+02
1.250000e+02
1.312500e+02
1.375000e+02
1.437500e+02
1.500000e+02
1.562500e+02
1.625000e+02
1.687500e+02
1.750000e+02
1.812500e+02
1.875000e+02
1.937500e+02
2.000000e+02
0.000000e+00
6.250000e+00
1.250000e+01
1.875000e+01
2.500000e+01
3.125000e+01
3.750000e+01
4.375000e+01
5.000000e+01
5.625000e+01
6.250000e+01
6.875000e+01
7.500000e+01
8.125000e+01
8.750000e+01
9.375000e+01
1.000000e+02
1.062500e+02
1.125000e+02
1.187500e+02
1.250000e+02
1.312500e+02
1.375000e+02
1.437500e+02
1.500000e+02
1.562500e+02
1.625000e+02
1.687500e+02
1.750000e+02
1.812500e+02
1.875000e+02
1.937500e+02
2.000000e+02
0.000000e+00
0.000000e+00
0.000000e+00
0.000000e+00
0.000000e+00
0.000000e+00
0.000000e+00
0.000000e+00
0.000000e+00
0.000000e+00
0.000000e+00
0.000000e+00
0.000000e+00
0.000000e+00
0.000000e+00
0.000000e+00
0.000000e+00
0.000000e+00
0.000000e+00
0.000000e+00
0.000000e+00
0.000000e+00
0.000000e+00
0.000000e+00
0.000000e+00
0.000000e+00
0.000000e+00
0.000000e+00
0.000000e+00
0.000000e+00
0.000000e+00
0.000000e+00
0.000000e+00
6.250000e+00
6.250000e+00
6.250000e+00
6.250000e+00
6.250000e+00
6.250000e+00
6.250000e+00
6.250000e+00
6.250000e+00
6.250000e+00
6.250000e+00
6.250000e+00
6.250000e+00
6.250000e+00
6.250000e+00
6.250000e+00
6.250000e+00
6.250000e+00
6.250000e+00
6.250000e+00
6.250000e+00
6.250000e+00
6.250000e+00
6.250000e+00
6.250000e+00
6.250000e+00
6.250000e+00
6.250000e+00
6.250000e+00
6.250000e+00
6.250000e+00
6.250000e+00
6.250000e+00
1.250000e+01
1.250000e+01
1.250000e+01
1.250000e+01
1.250000e+01
1.250000e+01
1.250000e+01
1.250000e+01
1.250000e+01
1.250000e+01
1.250000e+01
1.250000e+01
1.250000e+01
1.250000e+01
1.250000e+01
1.250000e+01
1.250000e+01
1.250000e+01
1.250000e+01
1.250000e+01
1.250000e+01
1.250000e+01
1.250000e+01
1.250000e+01
1.250000e+01
1.250000e+01
1.250000e+01
1.250000e+01
1.250000e+01
1.250000e+01
1.250000e+01
1.250000e+01
1.250000e+01
1.875000e+01
1.875000e+01
1.875000e+01
1.875000e+01
1.875000e+01
1.875000e+01
1.875000e+01
1.875000e+01
1.875000e+01
1.875000e+01
1.875000e+01
1.875000e+01
1.875000e+01
1.875000e+01
1.875000e+01
1.875000e+01
1.875000e+01
1.875000e+01
1.875000e+01
1.875000e+01
1.875000e+01
1.875000e+01
1.875000e+01
1.875000e+01
1.875000e+01
1.875000e+01
1.875000e+01
1.875000e+01
1.875000e+01
1.875000e+01
1.875000e+01
1.875000e+01
1.875000e+01
2.500000e+01
2.500000e+01
2.500000e+01
2.500000e+01
2.500000e+01
2.500000e+01
2.500000e+01
2.500000e+01
2.500000e+01
2.500000e+01
2.500000e+01
2.500000e+01
2.500000e+01
2.500000e+01
2.500000e+01
2.500000e+01
2.500000e+01
2.500000e+01
2.500000e+01
2.500000e+01
2.500000e+01
2.500000e+01
2.500000e+01
2.500000e+01
2.500000e+01
2.500000e+01
2.500000e+01
2.500000e+01
2.500000e+01
2.500000e+01
2.500000e+01
2.500000e+01
2.500000e+01
3.125000e+01
3.125000e+01
3.125000e+01
3.125000e+01
3.125000e+01
3.125000e+01
3.125000e+01
3.125000e+01
3.125000e+01
3.125000e+01
3.125000e+01
3.125000e+01
3.125000e+01
3.125000e+01
3.125000e+01
3.125000e+01
3.125000e+01
3.125000e+01
3.125000e+01
3.125000e+01
3.125000e+01
3.125000e+01
3.125000e+01
3.125000e+01
3.125000e+01
3.125000e+01
3.125000e+01
3.125000e+01
3.125000e+01
3.125000e+01
3.125000e+01
3.125000e+01
3.125000e+01
3.750000e+01
3.750000e+01
3.750000e+01
3.750000e+01
3.750000e+01
3.750000e+01
3.750000e+01
3.750000e+01
3.750000e+01
3.750000e+01
3.750000e+01
3.750000e+01
3.750000e+01
3.750000e+01
3.750000e+01
3.750000e+01
3.750000e+01
3.750000e+01
3.750000e+01
3.750000e+01
3.750000e+01
3.750000e+01
3.750000e+01
3.750000e+01
3.750000e+01
3.750000e+01
3.750000e+01
3.750000e+01
3.750000e+01
3.750000e+01
3.750000e+01
3.750000e+01
3.750000e+01
4.375000e+01
4.375000e+01
4.375000e+01
4.375000e+01
4.375000e+01
4.375000e+01
4.375000e+01
4.375000e+01
4.375000e+01
4.375000e+01
4.375000e+01
4.375000e+01
4.375000e+01
4.375000e+01
4.375000e+01
4.375000e+01
4.375000e+01
4.375000e+01
4.375000e+01
4.375000e+01
4.375000e+01
4.375000e+01
4.375000e+01
4.375000e+01
4.375000e+01
4.375000e+01
4.375000e+01
4.375000e+01
4.375000e+01
4.375000e+01
4.375000e+01
4.375000e+01
4.375000e+01
5.000000e+01
5.000000e+01
5.000000e+01
5.000000e+01
5.000000e+01
5.000000e+01
5.000000e+01
5.000000e+01
5.000000e+01
5.000000e+01
5.000000e+01
5.000000e+01
5.000000e+01
5.000000e+01
5.000000e+01
5.000000e+01
5.000000e+01
5.000000e+01
5.000000e+01
5.000000e+01
5.000000e+01
5.000000e+01
5.000000e+01
5.000000e+01
5.000000e+01
5.000000e+01
5.000000e+01
5.000000e+01
5.000000e+01
5.000000e+01
5.000000e+01
5.000000e+01
5.000000e+01
5.625000e+01
5.625000e+01
5.625000e+01
5.625000e+01
5.625000e+01
5.625000e+01
5.625000e+01
5.625000e+01
5.625000e+01
5.625000e+01
5.625000e+01
5.625000e+01
5.625000e+01
5.625000e+01
5.625000e+01
5.625000e+01
5.625000e+01
5.625000e+01
5.625000e+01
5.625000e+01
5.625000e+01
5.625000e+01
5.625000e+01
5.625000e+01
5.625000e+01
5.625000e+01
5.625000e+01
5.625000e+01
5.625000e+01
5.625000e+01
5.625000e+01
5.625000e+01
5.625000e+01
6.250000e+01
6.250000e+01
6.250000e+01
6.250000e+01
6.250000e+01
6.250000e+01
6.250000e+01
6.250000e+01
6.250000e+01
6.250000e+01
6.250000e+01
6.250000e+01
6.250000e+01
6.250000e+01
6.250000e+01
6.250000e+01
6.250000e+01
6.250000e+01
6.250000e+01
6.250000e+01
6.250000e+01
6.250000e+01
6.250000e+01
6.250000e+01
6.250000e+01
6.250000e+01
6.250000e+01
6.250000e+01
6.250000e+01
6.250000e+01
6.250000e+01
6.250000e+01
6.250000e+01
6.875000e+01
6.875000e+01
6.875000e+01
6.875000e+01
6.875000e+01
6.875000e+01
6.875000e+01
6.875000e+01
6.875000e+01
6.875000e+01
6.875000e+01
6.875000e+01
6.875000e+01
6.875000e+01
6.875000e+01
6.875000e+01
6.875000e+01
6.875000e+01
6.875000e+01
6.875000e+01
6.875000e+01
6.875000e+01
6.875000e+01
6.875000e+01
6.875000e+01
6.875000e+01
6.875000e+01
6.875000e+01
6.875000e+01
6.875000e+01
6.875000e+01
6.875000e+01
6.875000e+01
7.500000e+01
7.500000e+01
7.500000e+01
7.500000e+01
7.500000e+01
7.500000e+01
7.500000e+01
7.500000e+01
7.500000e+01
7.500000e+01
7.500000e+01
7.500000e+01
7.500000e+01
7.500000e+01
7.500000e+01
7.500000e+01
7.500000e+01
7.500000e+01
7.500000e+01
7.500000e+01
7.500000e+01
7.500000e+01
7.500000e+01
7.500000e+01
7.500000e+01
7.500000e+01
7.500000e+01
7.500000e+01
7.500000e+01
7.500000e+01
7.500000e+01
7.500000e+01
7.500000e+01
8.125000e+01
8.125000e+01
8.125000e+01
8.125000e+01
8.125000e+01
8.125000e+01
8.125000e+01
8.125000e+01
8.125000e+01
8.125000e+01
8.125000e+01
8.125000e+01
8.125000e+01
8.125000e+01
8.125000e+01
8.125000e+01
8.125000e+01
8.125000e+01
8.125000e+01
8.125000e+01
8.125000e+01
8.125000e+01
8.125000e+01
8.125000e+01
8.125000e+01
8.125000e+01
8.125000e+01
8.125000e+01
8.125000e+01
8.125000e+01
8.125000e+01
8.125000e+01
8.125000e+01
8.750000e+01
8.750000e+01
8.750000e+01
8.750000e+01
8.750000e+01
8.750000e+01
8.750000e+01
8.750000e+01
8.750000e+01
8.750000e+01
8.750000e+01
8.750000e+01
8.750000e+01
8.750000e+01
8.750000e+01
8.750000e+01
8.750000e+01
8.750000e+01
8.750000e+01
8.750000e+01
8.750000e+01
8.750000e+01
8.750000e+01
8.750000e+01
8.750000e+01
8.750000e+01
8.750000e+01
8.750000e+01
8.750000e+01
8.750000e+01
8.750000e+01
8.750000e+01
8.750000e+01
9.375000e+01
9.375000e+01
9.375000e+01
9.375000e+01
9.375000e+01
9.375000e+01
9.375000e+01
9.375000e+01
9.375000e+01
9.375000e+01
9.375000e+01
9.375000e+01
9.375000e+01
9.375000e+01
9.375000e+01
9.375000e+01
9.375000e+01
9.375000e+01
9.375000e+01
9.375000e+01
9.375000e+01
9.375000e+01
9.375000e+01
9.375000e+01
9.375000e+01
9.375000e+01
9.375000e+01
9.375000e+01
9.375000e+01
9.375000e+01
9.375000e+01
9.375000e+01
9.375000e+01
1.000000e+02
1.000000e+02
1.000000e+02
1.000000e+02
1.000000e+02
1.000000e+02
1.000000e+02
1.000000e+02
1.000000e+02
1.000000e+02
1.000000e+02
1.000000e+02
1.000000e+02
1.000000e+02
1.000000e+02
1.000000e+02
1.000000e+02
1.000000e+02
1.000000e+02
1.000000e+02
1.000000e+02
1.000000e+02
1.000000e+02
1.000000e+02
1.000000e+02
1.000000e+02
1.000000e+02
1.000000e+02
1.000000e+02
1.000000e+02
1.000000e+02
1.000000e+02
1.000000e+02
0.000000e+00
-3.981448e-02
-7.223808e-02
-1.022740e-01
-1.311000e-01
-1.589358e-01
-1.858374e-01
-2.118025e-01
-2.368145e-01
-2.608554e-01
-2.839100e-01
-3.059680e-01
-3.270240e-01
-3.470776e-01
-3.661334e-01
-3.842015e-01
-4.012980e-01
-4.174466e-01
-4.326795e-01
-4.470408e-01
-4.605888e-01
-4.734006e-01
-4.855783e-01
-4.972575e-01
-5.086194e-01
-5.199106e-01
-5.314734e-01
-5.437964e-01
-5.575956e-01
-5.739253e-01
-5.941529e-01
-6.182587e-01
-6.329701e-01
0.000000e+00
-2.669454e-02
-5.554086e-02
-8.273913e-02
-1.085900e-01
-1.333397e-01
-1.571189e-01
-1.799849e-01
-2.019605e-01
-2.230531e-01
-2.432640e-01
-2.625933e-01
-2.810420e-01
-2.986129e-01
-3.153119e-01
-3.311484e-01
-3.461357e-01
-3.602925e-01
-3.736432e-01
-3.862197e-01
-3.980626e-01
-4.092232e-01
-4.197650e-01
-4.297659e-01
-4.393187e-01
-4.485304e-01
-4.575139e-01
-4.663621e-01
-4.750744e-01
-4.833673e-01
-4.902776e-01
-4.943177e-01
-4.999421e-01
0.000000e+00
-2.117417e-02
-4.359213e-02
-6.641717e-02
-8.859605e-02
-1.099576e-01
-1.304881e-01
-1.502072e-01
-1.691321e-01
-1.872748e-01
-2.046431e-01
-2.212424e-01
-2.370772e-01
-2.521522e-01
-2.664731e-01
-2.800467e-01
-2.928819e-01
-3.049897e-01
-3.163838e-01
-3.270804e-01
-3.370982e-01
-3.464575e-01
-3.551781e-01
-3.632757e-01
-3.707534e-01
-3.775872e-01
-3.836989e-01
-3.889086e-01
-3.928640e-01
-3.949939e-01
-3.948072e-01
-3.936112e-01
-4.001790e-01
0.000000e+00
-1.679983e-02
-3.452748e-02
-5.274042e-02
-7.091069e-02
-8.864082e-02
-1.057790e-01
-1.222708e-01
-1.381013e-01
-1.532701e-01
-1.677810e-01
-1.816388e-01
-1.948483e-01
-2.074135e-01
-2.193383e-01
-2.306258e-01
-2.412794e-01
-2.513016e-01
-2.606946e-01
-2.694588e-01
-2.775921e-01
-2.850870e-01
-2.919268e-01
-2.980798e-01
-3.034891e-01
-3.080592e-01
-3.116389e-01
-3.140094e-01
-3.149146e-01
-3.142426e-01
-3.126107e-01
-3.125133e-01
-3.187708e-01
0.000000e+00
-1.303901e-02
-2.669945e-02
-4.079627e-02
-5.500760e-02
-6.904464e-02
-8.271369e-02
-9.591670e-02
-1.086091e-01
-1.207737e-01
-1.324061e-01
-1.435068e-01
-1.540779e-01
-1.641213e-01
-1.736375e-01
-1.826258e-01
-1.910833e-01
-1.990049e-01
-2.063825e-01
-2.132036e-01
-2.194500e-01
-2.250950e-01
-2.300999e-01
-2.344097e-01
-2.379484e-01
-2.406157e-01
-2.422942e-01
-2.428830e-01
-2.423999e-01
-2.412180e-01
-2.404512e-01
-2.422220e-01
-2.475599e-01
0.000000e+00
-9.582915e-03
-1.957640e-02
-2.989094e-02
-4.034832e-02
-5.075333e-02
-6.095100e-02
-7.084060e-02
-8.036684e-02
-8.950283e-02
-9.823724e-02
-1.065661e-01
-1.144879e-01
-1.220012e-01
-1.291034e-01
-1.357892e-01
-1.420507e-01
-1.478765e-01
-1.532509e-01
-1.581529e-01
-1.625547e-01
-1.664207e-01
-1.697058e-01
-1.723548e-01
-1.743048e-01
-1.754947e-01
-1.758894e-01
-1.755352e-01
-1.746620e-01
-1.738313e-01
-1.740336e-01
-1.762909e-01
-1.807077e-01
0.000000e+00
-6.306710e-03
-1.286288e-02
-1.962703e-02
-2.650270e-02
-3.337416e-02
-4.013779e-02
-4.671803e-02
-5.306763e-02
-5.916050e-02
-6.498347e-02
-7.052989e-02
-7.579553e-02
-8.077600e-02
-8.546530e-02
-8.985483e-02
-9.393277e-02
-9.768344e-02
-1.010867e-01
-1.041175e-01
-1.067455e-01
-1.089348e-01
-1.106458e-01
-1.118382e-01
-1.124788e-01
-1.125583e-01
-1.121203e-01
-1.113097e-01
-1.104351e-01
-1.100111e-01
-1.106726e-01
-1.128703e-01
-1.164356e-01
0.000000e+00
-3.132541e-03
-6.383510e-03
-9.736199e-03
-1.314826e-02
-1.656580e-02
-1.993763e-02
-2.322368e-02
-2.639691e-02
-2.944077e-02
-3.234547e-02
-3.510454e-02
-3.771232e-02
-4.016236e-02
-4.244629e-02
-4.455316e-02
-4.646882e-02
-4.817560e-02
-4.965204e-02
-5.087298e-02
-5.181022e-02
-5.243408e-02
-5.271668e-02
-5.263808e-02
-5.219672e-02
-5.142629e-02
-5.042003e-02
-4.935976e-02
-4.853667e-02
-4.833049e-02
-4.910658e-02
-5.102383e-02
-5.385282e-02
0.000000e+00
-5.054041e-06
-1.095860e-05
-1.738658e-05
-2.399987e-05
-3.034257e-05
-3.572763e-05
-3.911099e-05
-3.894448e-05
-3.299882e-05
-1.814984e-05
9.875646e-06
5.679414e-05
1.300932e-04
2.393773e-04
3.967010e-04
6.168395e-04
9.174104e-04
1.318717e-03
1.843112e-03
2.513576e-03
3.351084e-03
4.370163e-03
5.571920e-03
6.933842e-03
8.396270e-03
9.847238e-03
1.111137e-02
1.195523e-02
1.212636e-02
1.143731e-02
9.876829e-03
7.691295e-03
0.000000e+00
3.123022e-03
6.362828e-03
9.703318e-03
1.310277e-02
1.650812e-02
1.986946e-02
2.314866e-02
2.632157e-02
2.937582e-02
3.230746e-02
3.511805e-02
3.781267e-02
4.039896e-02
4.288671e-02
4.528772e-02
4.761586e-02
4.988695e-02
5.211830e-02
5.432774e-02
5.653177e-02
5.874255e-02
6.096320e-02
6.318142e-02
6.536114e-02
6.743358e-02
6.929025e-02
7.078357e-02
7.174307e-02
7.201472e-02
7.152274e-02
7.033732e-02
6.871523e-02
0.000000e+00
6.298934e-03
1.284586e-02
1.959979e-02
2.646472e-02
3.332556e-02
4.007967e-02
4.665305e-02
5.300074e-02
5.910000e-02
6.494236e-02
7.052771e-02
7.586056e-02
8.094810e-02
8.579925e-02
9.042435e-02
9.483498e-02
9.904371e-02
1.030636e-01
1.069071e-01
1.105842e-01
1.140996e-01
1.174484e-01
1.206113e-01
1.235487e-01
1.261953e-01
1.284591e-01
1.302272e-01
1.313844e-01
1.318471e-01
1.316092e-01
1.307889e-01
1.296568e-01
0.000000e+00
9.577955e-03
1.956535e-02
2.987295e-02
4.032277e-02
5.071998e-02
6.091019e-02
7.079362e-02
8.031642e-02
8.945379e-02
9.819740e-02
1.065474e-01
1.145082e-01
1.220858e-01
1.292874e-01
1.361208e-01
1.425938e-01
1.487148e-01
1.544916e-01
1.599308e-01
1.650363e-01
1.698069e-01
1.742333e-01
1.782947e-01
1.819551e-01
1.851614e-01
1.878445e-01
1.899268e-01
1.913390e-01
1.920466e-01
1.920864e-01
1.916052e-01
1.908897e-01
0.000000e+00
1.303778e-02
2.669637e-02
4.079075e-02
5.499908e-02
6.903262e-02
8.269787e-02
9.589704e-02
1.085860e-01
1.207482e-01
1.323801e-01
1.434837e-01
1.540630e-01
1.641225e-01
1.736663e-01
1.826984e-01
1.912222e-01
1.992404e-01
2.067550e-01
2.137663e-01
2.202723e-01
2.262669e-01
2.317387e-01
2.366687e-01
2.410291e-01
2.447835e-01
2.478888e-01
2.503023e-01
2.519937e-01
2.529654e-01
2.532806e-01
2.530999e-01
2.527230e-01
0.000000e+00
1.680295e-02
3.453382e-02
5.274986e-02
7.092295e-02
8.865556e-02
1.057957e-01
1.222886e-01
1.381190e-01
1.532853e-01
1.677905e-01
1.816379e-01
1.948299e-01
2.073682e-01
2.192528e-01
2.304829e-01
2.410564e-01
2.509697e-01
2.602181e-01
2.687948e-01
2.766913e-01
2.838966e-01
2.903970e-01
2.961760e-01
3.012153e-01
3.054959e-01
3.090019e-01
3.117253e-01
3.136744e-01
3.148857e-01
3.154428e-01
3.155093e-01
3.153842e-01
0.000000e+00
2.118179e-02
4.360839e-02
6.644264e-02
8.863121e-02
1.100028e-01
1.305436e-01
1.502722e-01
1.692048e-01
1.873515e-01
2.047172e-01
2.213032e-01
2.371085e-01
2.521300e-01
2.663630e-01
2.798011e-01
2.924360e-01
3.042575e-01
3.152529e-01
3.254076e-01
3.347051e-01
3.431272e-01
3.506555e-01
3.572733e-01
3.629680e-01
3.677352e-01
3.715835e-01
3.745402e-01
3.766562e-01
3.780115e-01
3.787209e-01
3.789519e-01
3.789795e-01
0.000000e+00
2.670597e-02
5.556585e-02
8.277932e-02
1.086474e-01
1.334162e-01
1.572162e-01
1.801040e-01
2.021009e-01
2.232119e-01
2.434347e-01
2.627638e-01
2.811918e-01
2.987103e-01
3.153094e-01
3.309772e-01
3.456994e-01
3.594589e-01
3.722347e-01
3.840030e-01
3.947364e-01
4.044062e-01
4.129837e-01
4.204445e-01
4.267729e-01
4.319693e-01
4.360583e-01
4.390975e-01
4.411853e-01
4.424646e-01
4.431181e-01
4.433551e-01
4.434131e-01
0.000000e+00
3.982700e-02
7.226730e-02
1.023240e-01
1.311749e-01
1.590397e-01
1.859745e-01
2.119767e-01
2.370291e-01
2.611117e-01
2.842058e-01
3.062955e-01
3.273665e-01
3.474054e-01
3.663982e-01
3.843291e-01
4.011789e-01
4.169242e-01
4.315362e-01
4.449804e-01
4.572161e-01
4.681985e-01
4.778803e-01
4.862172e-01
4.931748e-01
4.987389e-01
5.029295e-01
5.058164e-01
5.075370e-01
5.083124e-01
5.084533e-01
5.083365e-01
5.082709e-01
0.000000e+00
-2.460459e-02
-4.294032e-02
-6.294901e-02
-8.522988e-02
-1.103983e-01
-1.386293e-01
-1.699719e-01
-2.043948e-01
-2.418242e-01
-2.821610e-01
-3.252911e-01
-3.710913e-01
-4.194335e-01
-4.701870e-01
-5.232201e-01
-5.784019e-01
-6.356039e-01
-6.947018e-01
-7.555785e-01
-8.181282e-01
-8.822617e-01
-9.479154e-01
-1.015064e+00
-1.083741e+00
-1.154073e+00
-1.226340e+00
-1.301088e+00
-1.379359e+00
-1.463221e+00
-1.557132e+00
-1.671608e+00
-1.829760e+00
0.000000e+00
-1.529081e-02
-3.448349e-02
-5.462716e-02
-7.721858e-02
-1.026605e-01
-1.311658e-01
-1.627826e-01
-1.974826e-01
-2.351918e-01
-2.758106e-01
-3.192238e-01
-3.653073e-01
-4.139320e-01
-4.649658e-01
-5.182759e-01
-5.737296e-01
-6.311965e-01
-6.905500e-01
-7.516701e-01
-8.144471e-01
-8.787874e-01
-9.446214e-01
-1.011916e+00
-1.080697e+00
-1.151078e+00
-1.223326e+00
-1.297968e+00
-1.376026e+00
-1.459533e+00
-1.552717e+00
-1.664645e+00
-1.812400e+00
0.000000e+00
-1.123199e-02
-2.780042e-02
-4.766930e-02
-7.030020e-02
-9.592958e-02
-1.246599e-01
-1.565177e-01
-1.914648e-01
-2.294238e-01
-2.702934e-01
-3.139575e-01
-3.602915e-01
-4.091656e-01
-4.604475e-01
-5.140036e-01
-5.697009e-01
-6.274081e-01
-6.869976e-01
-7.483486e-01
-8.113504e-01
-8.759087e-01
-9.419536e-01
-1.009453e+00
-1.078436e+00
-1.149022e+00
-1.221490e+00
-1.296381e+00
-1.374704e+00
-1.458288e+00
-1.550261e+00
-1.654315e+00
-1.769741e+00
0.000000e+00
-8.994096e-03
-2.354135e-02
-4.235072e-02
-6.469078e-02
-9.031220e-02
-1.191654e-01
-1.512017e-01
-1.863521e-01
-2.245253e-01
-2.656132e-01
-3.094970e-01
-3.560511e-01
-4.051454e-01
-4.566476e-01
-5.104247e-01
-5.663438e-01
-6.242744e-01
-6.840895e-01
-7.456692e-01
-8.089045e-01
-8.737030e-01
-9.399986e-01
-1.007765e+00
-1.077035e+00
-1.147938e+00
-1.220747e+00
-1.295962e+00
-1.374408e+00
-1.457292e+00
-1.545767e+00
-1.639080e+00
-1.725945e+00
0.000000e+00
-7.610485e-03
-2.075607e-02
-3.857390e-02
-6.040469e-02
-8.585813e-02
-1.147222e-01
-1.468626e-01
-1.821632e-01
-2.205087e-01
-2.617793e-01
-3.058504e-01
-3.525942e-01
-4.018802e-01
-4.535767e-01
-5.075516e-01
-5.636733e-01
-6.218127e-01
-6.818447e-01
-7.436513e-01
-8.071259e-01
-8.721790e-01
-9.387473e-01
-1.006806e+00
-1.076386e+00
-1.147600e+00
-1.220672e+00
-1.295960e+00
-1.373941e+00
-1.454995e+00
-1.538738e+00
-1.622094e+00
-1.697744e+00
0.000000e+00
-6.730080e-03
-1.892857e-02
-3.597485e-02
-5.731423e-02
-8.252924e-02
-1.113305e-01
-1.435120e-01
-1.789116e-01
-2.173863e-01
-2.588015e-01
-3.030254e-01
-3.499271e-01
-3.993754e-01
-4.512393e-01
-5.053878e-01
-5.616914e-01
-6.200227e-01
-6.802585e-01
-7.422829e-01
-8.059907e-01
-8.712930e-01
-9.381244e-01
-1.006453e+00
-1.076290e+00
-1.147704e+00
-1.220819e+00
-1.295795e+00
-1.372717e+00
-1.451327e+00
-1.530426e+00
-1.607189e+00
-1.677350e+00
0.000000e+00
-6.182918e-03
-1.777314e-02
-3.428542e-02
-5.524385e-02
-8.024157e-02
-1.089573e-01
-1.411429e-01
-1.766008e-01
-2.151650e-01
-2.566868e-01
-3.010275e-01
-3.480531e-01
-3.976318e-01
-4.496333e-01
-5.039283e-01
-5.603888e-01
-6.188892e-01
-6.793080e-01
-7.415296e-01
-8.054483e-01
-8.709714e-01
-9.380248e-01
-1.006558e+00
-1.076547e+00
-1.147994e+00
-1.220905e+00
-1.295237e+00
-1.370778e+00
-1.446910e+00
-1.522319e+00
-1.594829e+00
-1.661776e+00
0.000000e+00
-5.882245e-03
-1.713202e-02
-3.333338e-02
-5.405666e-02
-7.890902e-02
-1.075589e-01
-1.397374e-01
-1.752269e-01
-2.138463e-01
-2.554381e-01
-2.998584e-01
-3.469714e-01
-3.966455e-01
-4.487513e-01
-5.031608e-01
-5.597476e-01
-6.183872e-01
-6.789585e-01
-7.413448e-01
-8.054364e-01
-8.711326e-01
-9.383441e-01
-1.006993e+00
-1.077011e+00
-1.148326e+00
-1.220833e+00
-1.294334e+00
-1.368437e+00
-1.442413e+00
-1.515073e+00
-1.584784e+00
-1.649726e+00
0.000000e+00
-5.785369e-03
-1.692518e-02
-3.302482e-02
-5.366974e-02
-7.847290e-02
-1.071008e-01
-1.392788e-01
-1.747832e-01
-2.134285e-01
-2.550544e-01
-2.995160e-01
-3.466779e-01
-3.964091e-01
-4.485815e-01
-5.030685e-01
-5.597448e-01
-6.184862e-01
-6.791706e-01
-7.416783e-01
-8.058930e-01
-8.717023e-01
-9.389971e-01
-1.007668e+00
-1.077601e+00
-1.148654e+00
-1.220637e+00
-1.293251e+00
-1.366028e+00
-1.438251e+00
-1.508915e+00
-1.576772e+00
-1.640490e+00
0.000000e+00
-5.879443e-03
-1.712813e-02
-3.333004e-02
-5.405565e-02
-7.891257e-02
-1.075699e-01
-1.397598e-01
-1.752659e-01
-2.139087e-01
-2.555324e-01
-2.999957e-01
-3.471651e-01
-3.969120e-01
-4.491095e-01
-5.036323e-01
-5.603555e-01
-6.191546e-01
-6.799054e-01
-7.424835e-01
-8.067644e-01
-8.726218e-01
-9.399249e-01
-1.008534e+00
-1.078290e+00
-1.148999e+00
-1.220409e+00
-1.292171e+00
-1.363802e+00
-1.434650e+00
-1.503885e+00
-1.570544e+00
-1.633607e+00
0.000000e+00
-6.177541e-03
-1.776568e-02
-3.427896e-02
-5.524182e-02
-8.024824e-02
-1.089783e-01
-1.411857e-01
-1.766753e-01
-2.152842e-01
-2.568674e-01
-3.012905e-01
-3.484243e-01
-3.981427e-01
-4.503205e-01
-5.048333e-01
-5.615562e-01
-6.203637e-01
-6.811288e-01
-7.437217e-01
-8.080089e-01
-8.738497e-01
-9.410931e-01
-1.009571e+00
-1.079089e+00
-1.149414e+00
-1.220255e+00
-1.291245e+00
-1.361920e+00
-1.431709e+00
-1.499941e+00
-1.565872e+00
-1.628721e+00
0.000000e+00
-6.722606e-03
-1.891820e-02
-3.596583e-02
-5.731131e-02
-8.253837e-02
-1.113596e-01
-1.435715e-01
-1.790153e-01
-2.175525e-01
-2.590535e-01
-3.033927e-01
-3.504460e-01
-4.000899e-01
-4.522009e-01
-5.066550e-01
-5.633270e-01
-6.220900e-01
-6.828139e-01
-7.453638e-01
-8.095972e-01
-8.753608e-01
-9.424856e-01
-1.010780e+00
-1.080024e+00
-1.149956e+00
-1.220265e+00
-1.290582e+00
-1.360475e+00
-1.429456e+00
-1.496996e+00
-1.562539e+00
-1.625518e+00
0.000000e+00
-7.601680e-03
-2.074386e-02
-3.856327e-02
-6.040132e-02
-8.586919e-02
-1.147572e-01
-1.469343e-01
-1.822885e-01
-2.207095e-01
-2.620838e-01
-3.062943e-01
-3.532217e-01
-4.027446e-01
-4.547404e-01
-5.090854e-01
-5.656539e-01
-6.243174e-01
-6.849430e-01
-7.473911e-01
-8.115119e-01
-8.771419e-01
-9.440980e-01
-1.012172e+00
-1.081123e+00
-1.150674e+00
-1.220503e+00
-1.290247e+00
-1.359509e+00
-1.427876e+00
-1.494940e+00
-1.560327e+00
-1.623685e+00
0.000000e+00
-8.985047e-03
-2.352881e-02
-4.233992e-02
-6.468787e-02
-9.032518e-02
-1.192048e-01
-1.512817e-01
-1.864914e-01
-2.247481e-01
-2.659507e-01
-3.099887e-01
-3.567455e-01
-4.061012e-01
-4.579337e-01
-5.121189e-01
-5.685306e-01
-6.270388e-01
-6.875084e-01
-7.497960e-01
-8.137468e-01
-8.791896e-01
-9.459320e-01
-1.013754e+00
-1.082405e+00
-1.151595e+00
-1.221000e+00
-1.290265e+00
-1.359022e+00
-1.426917e+00
-1.493648e+00
-1.559006e+00
-1.622886e+00
0.000000e+00
-1.122410e-02
-2.778944e-02
-4.766018e-02
-7.029933e-02
-9.594539e-02
-1.247035e-01
-1.566038e-01
-1.916128e-01
-2.296589e-01
-2.706477e-01
-3.144718e-01
-3.610157e-01
-4.101599e-01
-4.617821e-01
-5.157580e-01
-5.719602e-01
-6.302579e-01
-6.905141e-01
-7.525830e-01
-8.163065e-01
-8.815091e-01
-9.479933e-01
-1.015534e+00
-1.083873e+00
-1.152719e+00
-1.221748e+00
-1.290613e+00
-1.358968e+00
-1.426497e+00
-1.492977e+00
-1.558342e+00
-1.622747e+00
0.000000e+00
-1.528575e-02
-3.447602e-02
-5.462179e-02
-7.722190e-02
-1.026811e-01
-1.312149e-01
-1.628751e-01
-1.976376e-01
-2.354344e-01
-2.761725e-01
-3.197449e-01
-3.660364e-01
-4.149272e-01
-4.662947e-01
-5.200137e-01
-5.759563e-01
-6.339903e-01
-6.939775e-01
-7.557706e-01
-8.192095e-01
-8.841170e-01
-9.502934e-01
-1.017512e+00
-1.085517e+00
-1.154016e+00
-1.222693e+00
-1.291209e+00
-1.359234e+00
-1.426478e+00
-1.492759e+00
-1.558102e+00
-1.622866e+00
0.000000e+00
-2.460387e-02
-4.293783e-02
-6.294949e-02
-8.523993e-02
-1.104266e-01
-1.386871e-01
-1.700737e-01
-2.045596e-01
-2.420763e-01
-2.825311e-01
-3.258169e-01
-3.718189e-01
-4.204170e-01
-4.714883e-01
-5.249067e-01
-5.805434e-01
-6.382650e-01
-6.979318e-01
-7.593947e-01
-8.224924e-01
-8.870465e-01
-9.528574e-01