TITLE = "Solution"
VARIABLES = x, y, u, v, psiu, psiv, t, stress
ZONE T="structure" N=561 E=512 F=FEBLOCK ET=QUADRILATERAL VARLOCATION=([7,8]=cellcentered)
0.000000e+00
6.250000e+00
1.250000e+01
1.875000e+01
2.500000e+01
3.125000e+01
3.750000e+01
4.375000e+01
5.000000e+01
5.625000e+01
6.250000e+01
6.875000e+01
7.500000e+01
8.125000e+01
8.750000e+01
9.375000e+01
1.000000e+02
1.062500e+02
1.125000e+02
1.187500e+02
1.250000e+02
1.312500e+02
1.375000e+02
1.437500e+02
1.500000e+02
1.562500e+02
1.625000e+02
1.687500e+02
1.750000e+02
1.812500e+02
1.875000e+02
1.937500e+02
2.000000e+02
0.000000e+00
6.250000e+00
1.250000e+01
1.875000e+01
2.500000e+01
3.125000e+01
3.750000e+01
4.375000e+01
5.000000e+01
5.625000e+01
6.250000e+01
6.875000e+01
7.500000e+01
8.125000e+01
8.750000e+01
9.375000e+01
1.000000e+02
1.062500e+02
1.125000e+02
1.187500e+02
1.250000e+02
1.312500e+02
1.375000e+02
1.437500e+02
1.500000e+02
1.562500e+02
1.625000e+02
1.687500e+02
1.750000e+02
1.812500e+02
1.875000e+02
1.937500e+02
2.000000e+02
0.000000e+00
6.250000e+00
1.250000e+01
1.875000e+01
2.500000e+01
3.125000e+01
3.750000e+01
4.375000e+01
5.000000e+01
5.625000e+01
6.250000e+01
6.875000e+01
7.500000e+01
8.125000e+01
8.750000e+01
9.375000e+01
1.000000e+02
1.062500e+02
1.125000e+02
1.187500e+02
1.250000e+02
1.312500e+02
1.375000e+02
1.437500e+02
1.500000e+02
1.562500e+02
1.625000e+02
1.687500e+02
1.750000e+02
1.812500e+02
1.875000e+02
1.937500e+02
2.000000e+02
0.000000e+00
6.250000e+00
1.250000e+01
1.875000e+01
2.500000e+01
3.125000e+01
3.750000e+01
4.375000e+01
5.000000e+01
5.625000e+01
6.250000e+01
6.875000e+01
7.500000e+01
8.125000e+01
8.750000e+01
9.375000e+01
1.000000e+02
1.062500e+02
1.125000e+02
1.187500e+02
1.250000e+02
1.312500e+02
1.375000e+02
1.437500e+02
1.500000e+02
1.562500e+02
1.625000e+02
1.687500e+02
1.750000e+02
1.812500e+02
1.875000e+02
1.937500e+02
2.000000e+02
0.000000e+00
6.250000e+00
1.250000e+01
1.875000e+01
2.500000e+01
3.125000e+01
3.750000e+01
4.375000e+01
5.000000e+01
5.625000e+01
6.250000e+01
6.875000e+01
7.500000e+01
8.125000e+01
8.750000e+01
9.375000e+01
1.000000e+02
1.062500e+02
1.125000e+02
1.187500e+02
1.250000e+02
1.312500e+02
1.375000e+02
1.437500e+02
1.500000e+02
1.562500e+02
1.625000e+02
1.687500e+02
1.750000e+02
1.812500e+02
1.875000e+02
1.937500e+02
2.000000e+02
0.000000e+00
6.250000e+00
1.250000e+01
1.875000e+01
2.500000e+01
3.125000e+01
3.750000e+01
4.375000e+01
5.000000e+01
5.625000e+01
6.250000e+01
6.875000e+01
7.500000e+01
8.125000e+01
8.750000e+01
9.375000e+01
1.000000e+02
1.062500e+02
1.125000e+02
1.187500e+02
1.250000e+02
1.312500e+02
1.375000e+02
1.437500e+02
1.500000e+02
1.562500e+02
1.625000e+02
1.687500e+02
1.750000e+02
1.812500e+02
1.875000e+02
1.937500e+02
2.000000e+02
0.000000e+00
6.250000e+00
1.250000e+01
1.875000e+01
2.500000e+01
3.125000e+01
3.750000e+01
4.375000e+01
5.000000e+01
5.625000e+01
6.250000e+01
6.875000e+01
7.500000e+01
8.125000e+01
8.750000e+01
9.375000e+01
1.000000e+02
1.062500e+02
1.125000e+02
1.187500e+02
1.250000e+02
1.312500e+02
1.375000e+02
1.437500e+02
1.500000e+02
1.562500e+02
1.625000e+02
1.687500e+02
1.750000e+02
1.812500e+02
1.875000e+02
1.937500e+02
2.000000e+02
0.000000e+00
6.250000e+00
1.250000e+01
1.875000e+01
2.500000e+01
3.125000e+01
3.750000e+01
4.375000e+01
5.000000e+01
5.625000e+01
6.250000e+01
6.875000e+01
7.500000e+01
8.125000e+01
8.750000e+01
9.375000e+01
1.000000e+02
1.062500e+02
1.125000e+02
1.187500e+02
1.250000e+02
1.312500e+02
1.375000e+02
1.437500e+02
1.500000e+02
1.562500e+02
1.625000e+02
1.687500e+02
1.750000e+02
1.812500e+02
1.875000e+02
1.937500e+02
2.000000e+02
0.000000e+00
6.250000e+00
1.250000e+01
1.875000e+01
2.500000e+01
3.125000e+01
3.750000e+01
4.375000e+01
5.000000e+01
5.625000e+01
6.250000e+01
6.875000e+01
7.500000e+01
8.125000e+01
8.750000e+01
9.375000e+01
1.000000e+02
1.062500e+02
1.125000e+02
1.187500e+02
1.250000e+02
1.312500e+02
1.375000e+02
1.437500e+02
1.500000e+02
1.562500e+02
1.625000e+02
1.687500e+02
1.750000e+02
1.812500e+02
1.875000e+02
1.937500e+02
2.000000e+02
0.000000e+00
6.250000e+00
1.250000e+01
1.875000e+01
2.500000e+01
3.125000e+01
3.750000e+01
4.375000e+01
5.000000e+01
5.625000e+01
6.250000e+01
6.875000e+01
7.500000e+01
8.125000e+01
8.750000e+01
9.375000e+01
1.000000e+02
1.062500e+02
1.125000e+02
1.187500e+02
1.250000e+02
1.312500e+02
1.375000e+02
1.437500e+02
1.500000e+02
1.562500e+02
1.625000e+02
1.687500e+02
1.750000e+02
1.812500e+02
1.875000e+02
1.937500e+02
2.000000e+02
0.000000e+00
6.250000e+00
1.250000e+01
1.875000e+01
2.500000e+01
3.125000e+01
3.750000e+01
4.375000e+01
5.000000e+01
5.625000e+01
6.250000e+01
6.875000e+01
7.500000e+01
8.125000e+01
8.750000e+01
9.375000e+01
1.000000e+02
1.062500e+02
1.125000e+02
1.187500e+02
1.250000e+02
1.312500e+02
1.375000e+02
1.437500e+02
1.500000e+02
1.562500e+02
1.625000e+02
1.687500e+02
1.750000e+02
1.812500e+02
1.875000e+02
1.937500e+02
2.000000e+02
0.000000e+00
6.250000e+00
1.250000e+01
1.875000e+01
2.500000e+01
3.125000e+01
3.750000e+01
4.375000e+01
5.000000e+01
5.625000e+01
6.250000e+01
6.875000e+01
7.500000e+01
8.125000e+01
8.750000e+01
9.375000e+01
1.000000e+02
1.062500e+02
1.125000e+02
1.187500e+02
1.250000e+02
1.312500e+02
1.375000e+02
1.437500e+02
1.500000e+02
1.562500e+02
1.625000e+02
1.687500e+02
1.750000e+02
1.812500e+02
1.875000e+02
1.937500e+02
2.000000e+02
0.000000e+00
6.250000e+00
1.250000e+01
1.875000e+01
2.500000e+01
3.125000e+01
3.750000e+01
4.375000e+01
5.000000e+01
5.625000e+01
6.250000e+01
6.875000e+01
7.500000e+01
8.125000e+01
8.750000e+01
9.375000e+01
1.000000e+02
1.062500e+02
1.125000e+02
1.187500e+02
1.250000e+02
1.312500e+02
1.375000e+02
1.437500e+02
1.500000e+02
1.562500e+02
1.625000e+02
1.687500e+02
1.750000e+02
1.812500e+02
1.875000e+02
1.937500e+02
2.000000e+02
0.000000e+00
6.250000e+00
1.250000e+01
1.875000e+01
2.500000e+01
3.125000e+01
3.750000e+01
4.375000e+01
5.000000e+01
5.625000e+01
6.250000e+01
6.875000e+01
7.500000e+01
8.125000e+01
8.750000e+01
9.375000e+01
1.000000e+02
1.062500e+02
1.125000e+02
1.187500e+02
1.250000e+02
1.312500e+02
1.375000e+02
1.437500e+02
1.500000e+02
1.562500e+02
1.625000e+02
1.687500e+02
1.750000e+02
1.812500e+02
1.875000e+02
1.937500e+02
2.000000e+02
0.000000e+00
6.250000e+00
1.250000e+01
1.875000e+01
2.500000e+01
3.125000e+01
3.750000e+01
4.375000e+01
5.000000e+01
5.625000e+01
6.250000e+01
6.875000e+01
7.500000e+01
8.125000e+01
8.750000e+01
9.375000e+01
1.000000e+02
1.062500e+02
1.125000e+02
1.187500e+02
1.250000e+02
1.312500e+02
1.375000e+02
1.437500e+02
1.500000e+02
1.562500e+02
1.625000e+02
1.687500e+02
1.750000e+02
1.812500e+02
1.875000e+02
1.937500e+02
2.000000e+02
0.000000e+00
6.250000e+00
1.250000e+01
1.875000e+01
2.500000e+01
3.125000e+01
3.750000e+01
4.375000e+01
5.000000e+01
5.625000e+01
6.250000e+01
6.875000e+01
7.500000e+01
8.125000e+01
8.750000e+01
9.375000e+01
1.000000e+02
1.062500e+02
1.125000e+02
1.187500e+02
1.250000e+02
1.312500e+02
1.375000e+02
1.437500e+02
1.500000e+02
1.562500e+02
1.625000e+02
1.687500e+02
1.750000e+02
1.812500e+02
1.875000e+02
1.937500e+02
2.000000e+02
0.000000e+00
6.250000e+00
1.250000e+01
1.875000e+01
2.500000e+01
3.125000e+01
3.750000e+01
4.375000e+01
5.000000e+01
5.625000e+01
6.250000e+01
6.875000e+01
7.500000e+01
8.125000e+01
8.750000e+01
9.375000e+01
1.000000e+02
1.062500e+02
1.125000e+02
1.187500e+02
1.250000e+02
1.312500e+02
1.375000e+02
1.437500e+02
1.500000e+02
1.562500e+02
1.625000e+02
1.687500e+02
1.750000e+02
1.812500e+02
1.875000e+02
1.937500e+02
2.000000e+02
0.000000e+00
0.000000e+00
0.000000e+00
0.000000e+00
0.000000e+00
0.000000e+00
0.000000e+00
0.000000e+00
0.000000e+00
0.000000e+00
0.000000e+00
0.000000e+00
0.000000e+00
0.000000e+00
0.000000e+00
0.000000e+00
0.000000e+00
0.000000e+00
0.000000e+00
0.000000e+00
0.000000e+00
0.000000e+00
0.000000e+00
0.000000e+00
0.000000e+00
0.000000e+00
0.000000e+00
0.000000e+00
0.000000e+00
0.000000e+00
0.000000e+00
0.000000e+00
0.000000e+00
6.250000e+00
6.250000e+00
6.250000e+00
6.250000e+00
6.250000e+00
6.250000e+00
6.250000e+00
6.250000e+00
6.250000e+00
6.250000e+00
6.250000e+00
6.250000e+00
6.250000e+00
6.250000e+00
6.250000e+00
6.250000e+00
6.250000e+00
6.250000e+00
6.250000e+00
6.250000e+00
6.250000e+00
6.250000e+00
6.250000e+00
6.250000e+00
6.250000e+00
6.250000e+00
6.250000e+00
6.250000e+00
6.250000e+00
6.250000e+00
6.250000e+00
6.250000e+00
6.250000e+00
1.250000e+01
1.250000e+01
1.250000e+01
1.250000e+01
1.250000e+01
1.250000e+01
1.250000e+01
1.250000e+01
1.250000e+01
1.250000e+01
1.250000e+01
1.250000e+01
1.250000e+01
1.250000e+01
1.250000e+01
1.250000e+01
1.250000e+01
1.250000e+01
1.250000e+01
1.250000e+01
1.250000e+01
1.250000e+01
1.250000e+01
1.250000e+01
1.250000e+01
1.250000e+01
1.250000e+01
1.250000e+01
1.250000e+01
1.250000e+01
1.250000e+01
1.250000e+01
1.250000e+01
1.875000e+01
1.875000e+01
1.875000e+01
1.875000e+01
1.875000e+01
1.875000e+01
1.875000e+01
1.875000e+01
1.875000e+01
1.875000e+01
1.875000e+01
1.875000e+01
1.875000e+01
1.875000e+01
1.875000e+01
1.875000e+01
1.875000e+01
1.875000e+01
1.875000e+01
1.875000e+01
1.875000e+01
1.875000e+01
1.875000e+01
1.875000e+01
1.875000e+01
1.875000e+01
1.875000e+01
1.875000e+01
1.875000e+01
1.875000e+01
1.875000e+01
1.875000e+01
1.875000e+01
2.500000e+01
2.500000e+01
2.500000e+01
2.500000e+01
2.500000e+01
2.500000e+01
2.500000e+01
2.500000e+01
2.500000e+01
2.500000e+01
2.500000e+01
2.500000e+01
2.500000e+01
2.500000e+01
2.500000e+01
2.500000e+01
2.500000e+01
2.500000e+01
2.500000e+01
2.500000e+01
2.500000e+01
2.500000e+01
2.500000e+01
2.500000e+01
2.500000e+01
2.500000e+01
2.500000e+01
2.500000e+01
2.500000e+01
2.500000e+01
2.500000e+01
2.500000e+01
2.500000e+01
3.125000e+01
3.125000e+01
3.125000e+01
3.125000e+01
3.125000e+01
3.125000e+01
3.125000e+01
3.125000e+01
3.125000e+01
3.125000e+01
3.125000e+01
3.125000e+01
3.125000e+01
3.125000e+01
3.125000e+01
3.125000e+01
3.125000e+01
3.125000e+01
3.125000e+01
3.125000e+01
3.125000e+01
3.125000e+01
3.125000e+01
3.125000e+01
3.125000e+01
3.125000e+01
3.125000e+01
3.125000e+01
3.125000e+01
3.125000e+01
3.125000e+01
3.125000e+01
3.125000e+01
3.750000e+01
3.750000e+01
3.750000e+01
3.750000e+01
3.750000e+01
3.750000e+01
3.750000e+01
3.750000e+01
3.750000e+01
3.750000e+01
3.750000e+01
3.750000e+01
3.750000e+01
3.750000e+01
3.750000e+01
3.750000e+01
3.750000e+01
3.750000e+01
3.750000e+01
3.750000e+01
3.750000e+01
3.750000e+01
3.750000e+01
3.750000e+01
3.750000e+01
3.750000e+01
3.750000e+01
3.750000e+01
3.750000e+01
3.750000e+01
3.750000e+01
3.750000e+01
3.750000e+01
4.375000e+01
4.375000e+01
4.375000e+01
4.375000e+01
4.375000e+01
4.375000e+01
4.375000e+01
4.375000e+01
4.375000e+01
4.375000e+01
4.375000e+01
4.375000e+01
4.375000e+01
4.375000e+01
4.375000e+01
4.375000e+01
4.375000e+01
4.375000e+01
4.375000e+01
4.375000e+01
4.375000e+01
4.375000e+01
4.375000e+01
4.375000e+01
4.375000e+01
4.375000e+01
4.375000e+01
4.375000e+01
4.375000e+01
4.375000e+01
4.375000e+01
4.375000e+01
4.375000e+01
5.000000e+01
5.000000e+01
5.000000e+01
5.000000e+01
5.000000e+01
5.000000e+01
5.000000e+01
5.000000e+01
5.000000e+01
5.000000e+01
5.000000e+01
5.000000e+01
5.000000e+01
5.000000e+01
5.000000e+01
5.000000e+01
5.000000e+01
5.000000e+01
5.000000e+01
5.000000e+01
5.000000e+01
5.000000e+01
5.000000e+01
5.000000e+01
5.000000e+01
5.000000e+01
5.000000e+01
5.000000e+01
5.000000e+01
5.000000e+01
5.000000e+01
5.000000e+01
5.000000e+01
5.625000e+01
5.625000e+01
5.625000e+01
5.625000e+01
5.625000e+01
5.625000e+01
5.625000e+01
5.625000e+01
5.625000e+01
5.625000e+01
5.625000e+01
5.625000e+01
5.625000e+01
5.625000e+01
5.625000e+01
5.625000e+01
5.625000e+01
5.625000e+01
5.625000e+01
5.625000e+01
5.625000e+01
5.625000e+01
5.625000e+01
5.625000e+01
5.625000e+01
5.625000e+01
5.625000e+01
5.625000e+01
5.625000e+01
5.625000e+01
5.625000e+01
5.625000e+01
5.625000e+01
6.250000e+01
6.250000e+01
6.250000e+01
6.250000e+01
6.250000e+01
6.250000e+01
6.250000e+01
6.250000e+01
6.250000e+01
6.250000e+01
6.250000e+01
6.250000e+01
6.250000e+01
6.250000e+01
6.250000e+01
6.250000e+01
6.250000e+01
6.250000e+01
6.250000e+01
6.250000e+01
6.250000e+01
6.250000e+01
6.250000e+01
6.250000e+01
6.250000e+01
6.250000e+01
6.250000e+01
6.250000e+01
6.250000e+01
6.250000e+01
6.250000e+01
6.250000e+01
6.250000e+01
6.875000e+01
6.875000e+01
6.875000e+01
6.875000e+01
6.875000e+01
6.875000e+01
6.875000e+01
6.875000e+01
6.875000e+01
6.875000e+01
6.875000e+01
6.875000e+01
6.875000e+01
6.875000e+01
6.875000e+01
6.875000e+01
6.875000e+01
6.875000e+01
6.875000e+01
6.875000e+01
6.875000e+01
6.875000e+01
6.875000e+01
6.875000e+01
6.875000e+01
6.875000e+01
6.875000e+01
6.875000e+01
6.875000e+01
6.875000e+01
6.875000e+01
6.875000e+01
6.875000e+01
7.500000e+01
7.500000e+01
7.500000e+01
7.500000e+01
7.500000e+01
7.500000e+01
7.500000e+01
7.500000e+01
7.500000e+01
7.500000e+01
7.500000e+01
7.500000e+01
7.500000e+01
7.500000e+01
7.500000e+01
7.500000e+01
7.500000e+01
7.500000e+01
7.500000e+01
7.500000e+01
7.500000e+01
7.500000e+01
7.500000e+01
7.500000e+01
7.500000e+01
7.500000e+01
7.500000e+01
7.500000e+01
7.500000e+01
7.500000e+01
7.500000e+01
7.500000e+01
7.500000e+01
8.125000e+01
8.125000e+01
8.125000e+01
8.125000e+01
8.125000e+01
8.125000e+01
8.125000e+01
8.125000e+01
8.125000e+01
8.125000e+01
8.125000e+01
8.125000e+01
8.125000e+01
8.125000e+01
8.125000e+01
8.125000e+01
8.125000e+01
8.125000e+01
8.125000e+01
8.125000e+01
8.125000e+01
8.125000e+01
8.125000e+01
8.125000e+01
8.125000e+01
8.125000e+01
8.125000e+01
8.125000e+01
8.125000e+01
8.125000e+01
8.125000e+01
8.125000e+01
8.125000e+01
8.750000e+01
8.750000e+01
8.750000e+01
8.750000e+01
8.750000e+01
8.750000e+01
8.750000e+01
8.750000e+01
8.750000e+01
8.750000e+01
8.750000e+01
8.750000e+01
8.750000e+01
8.750000e+01
8.750000e+01
8.750000e+01
8.750000e+01
8.750000e+01
8.750000e+01
8.750000e+01
8.750000e+01
8.750000e+01
8.750000e+01
8.750000e+01
8.750000e+01
8.750000e+01
8.750000e+01
8.750000e+01
8.750000e+01
8.750000e+01
8.750000e+01
8.750000e+01
8.750000e+01
9.375000e+01
9.375000e+01
9.375000e+01
9.375000e+01
9.375000e+01
9.375000e+01
9.375000e+01
9.375000e+01
9.375000e+01
9.375000e+01
9.375000e+01
9.375000e+01
9.375000e+01
9.375000e+01
9.375000e+01
9.375000e+01
9.375000e+01
9.375000e+01
9.375000e+01
9.375000e+01
9.375000e+01
9.375000e+01
9.375000e+01
9.375000e+01
9.375000e+01
9.375000e+01
9.375000e+01
9.375000e+01
9.375000e+01
9.375000e+01
9.375000e+01
9.375000e+01
9.375000e+01
1.000000e+02
1.000000e+02
1.000000e+02
1.000000e+02
1.000000e+02
1.000000e+02
1.000000e+02
1.000000e+02
1.000000e+02
1.000000e+02
1.000000e+02
1.000000e+02
1.000000e+02
1.000000e+02
1.000000e+02
1.000000e+02
1.000000e+02
1.000000e+02
1.000000e+02
1.000000e+02
1.000000e+02
1.000000e+02
1.000000e+02
1.000000e+02
1.000000e+02
1.000000e+02
1.000000e+02
1.000000e+02
1.000000e+02
1.000000e+02
1.000000e+02
1.000000e+02
1.000000e+02
0.000000e+00
-4.143847e-02
-7.518459e-02
-1.064456e-01
-1.364474e-01
-1.654186e-01
-1.934175e-01
-2.204417e-01
-2.464739e-01
-2.714954e-01
-2.954904e-01
-3.184481e-01
-3.403630e-01
-3.612345e-01
-3.810676e-01
-3.998727e-01
-4.176666e-01
-4.344738e-01
-4.503281e-01
-4.652752e-01
-4.793757e-01
-4.927101e-01
-5.053846e-01
-5.175401e-01
-5.293655e-01
-5.411172e-01
-5.531517e-01
-5.659773e-01
-5.803394e-01
-5.973351e-01
-6.183878e-01
-6.434769e-01
-6.587884e-01
0.000000e+00
-2.778338e-02
-5.780631e-02
-8.611396e-02
-1.130193e-01
-1.387785e-01
-1.635276e-01
-1.873263e-01
-2.101983e-01
-2.321512e-01
-2.531865e-01
-2.733042e-01
-2.925054e-01
-3.107930e-01
-3.281732e-01
-3.446556e-01
-3.602543e-01
-3.749885e-01
-3.888837e-01
-4.019732e-01
-4.142992e-01
-4.259150e-01
-4.368869e-01
-4.472956e-01
-4.572381e-01
-4.668255e-01
-4.761755e-01
-4.853846e-01
-4.944522e-01
-5.030834e-01
-5.102756e-01
-5.144804e-01
-5.203343e-01
0.000000e+00
-2.203784e-02
-4.537020e-02
-6.912625e-02
-9.220978e-02
-1.144426e-01
-1.358106e-01
-1.563339e-01
-1.760308e-01
-1.949136e-01
-2.129903e-01
-2.302667e-01
-2.467473e-01
-2.624373e-01
-2.773423e-01
-2.914695e-01
-3.048282e-01
-3.174299e-01
-3.292888e-01
-3.404217e-01
-3.508481e-01
-3.605891e-01
-3.696655e-01
-3.780934e-01
-3.858761e-01
-3.929886e-01
-3.993496e-01
-4.047718e-01
-4.088886e-01
-4.111053e-01
-4.109110e-01
-4.096662e-01
-4.165020e-01
0.000000e+00
-1.748508e-02
-3.593582e-02
-5.489165e-02
-7.380305e-02
-9.225638e-02
-1.100936e-01
-1.272580e-01
-1.437343e-01
-1.595218e-01
-1.746246e-01
-1.890477e-01
-2.027960e-01
-2.158737e-01
-2.282848e-01
-2.400328e-01
-2.511209e-01
-2.615520e-01
-2.713281e-01
-2.804498e-01
-2.889148e-01
-2.967154e-01
-3.038342e-01
-3.102382e-01
-3.158681e-01
-3.206246e-01
-3.243503e-01
-3.268176e-01
-3.277596e-01
-3.270603e-01
-3.253618e-01
-3.252604e-01
-3.317732e-01
0.000000e+00
-1.357086e-02
-2.778849e-02
-4.246030e-02
-5.725130e-02
-7.186089e-02
-8.608749e-02
-9.982904e-02
-1.130391e-01
-1.256999e-01
-1.378068e-01
-1.493603e-01
-1.603626e-01
-1.708156e-01
-1.807200e-01
-1.900749e-01
-1.988774e-01
-2.071221e-01
-2.148006e-01
-2.219000e-01
-2.284012e-01
-2.342764e-01
-2.394854e-01
-2.439711e-01
-2.476541e-01
-2.504302e-01
-2.521771e-01
-2.527899e-01
-2.522872e-01
-2.510571e-01
-2.502590e-01
-2.521020e-01
-2.576576e-01
0.000000e+00
-9.973792e-03
-2.037490e-02
-3.111016e-02
-4.199409e-02
-5.282351e-02
-6.343713e-02
-7.373011e-02
-8.364492e-02
-9.315356e-02
-1.022442e-01
-1.109128e-01
-1.191577e-01
-1.269775e-01
-1.343694e-01
-1.413279e-01
-1.478448e-01
-1.539083e-01
-1.595019e-01
-1.646038e-01
-1.691851e-01
-1.732088e-01
-1.766279e-01
-1.793849e-01
-1.814145e-01
-1.826530e-01
-1.830638e-01
-1.826951e-01
-1.817863e-01
-1.809217e-01
-1.811322e-01
-1.834816e-01
-1.880786e-01
0.000000e+00
-6.563954e-03
-1.338754e-02
-2.042759e-02
-2.758372e-02
-3.473546e-02
-4.177496e-02
-4.862361e-02
-5.523220e-02
-6.157360e-02
-6.763407e-02
-7.340673e-02
-7.888715e-02
-8.407077e-02
-8.895134e-02
-9.351992e-02
-9.776420e-02
-1.016679e-01
-1.052100e-01
-1.083644e-01
-1.110995e-01
-1.133781e-01
-1.151590e-01
-1.163999e-01
-1.170667e-01
-1.171494e-01
-1.166935e-01
-1.158499e-01
-1.149396e-01
-1.144983e-01
-1.151868e-01
-1.174742e-01
-1.211849e-01
0.000000e+00
-3.260314e-03
-6.643887e-03
-1.013333e-02
-1.368457e-02
-1.724150e-02
-2.075086e-02
-2.417095e-02
-2.747361e-02
-3.064163e-02
-3.366481e-02
-3.653642e-02
-3.925057e-02
-4.180054e-02
-4.417763e-02
-4.637044e-02
-4.836424e-02
-5.014064e-02
-5.167729e-02
-5.294804e-02
-5.392351e-02
-5.457281e-02
-5.486695e-02
-5.478514e-02
-5.432578e-02
-5.352392e-02
-5.247661e-02
-5.137309e-02
-5.051644e-02
-5.030184e-02
-5.110959e-02
-5.310504e-02
-5.604942e-02
0.000000e+00
-5.260193e-06
-1.140560e-05
-1.809577e-05
-2.497881e-05
-3.158023e-05
-3.718494e-05
-4.070631e-05
-4.053301e-05
-3.434483e-05
-1.889018e-05
1.027845e-05
5.911070e-05
1.353996e-04
2.491412e-04
4.128821e-04
6.419998e-04
9.548308e-04
1.372507e-03
1.918291e-03
2.616103e-03
3.487771e-03
4.548418e-03
5.799194e-03
7.216668e-03
8.738747e-03
1.024890e-02
1.156459e-02
1.244288e-02
1.262099e-02
1.190383e-02
1.027970e-02
8.005017e-03
0.000000e+00
3.250406e-03
6.622360e-03
1.009911e-02
1.363722e-02
1.718147e-02
2.067991e-02
2.409287e-02
2.739520e-02
3.057403e-02
3.362525e-02
3.655047e-02
3.935501e-02
4.204680e-02
4.463601e-02
4.713496e-02
4.955807e-02
5.192179e-02
5.424415e-02
5.654371e-02
5.883765e-02
6.113860e-02
6.344984e-02
6.575853e-02
6.802716e-02
7.018413e-02
7.211653e-02
7.367076e-02
7.466940e-02
7.495213e-02
7.444009e-02
7.320632e-02
7.151806e-02
0.000000e+00
6.555860e-03
1.336983e-02
2.039924e-02
2.754418e-02
3.468487e-02
4.171447e-02
4.855598e-02
5.516259e-02
6.151062e-02
6.759129e-02
7.340446e-02
7.895484e-02
8.424989e-02
8.929892e-02
9.411267e-02
9.870320e-02
1.030836e-01
1.072675e-01
1.112678e-01
1.150949e-01
1.187536e-01
1.222390e-01
1.255310e-01
1.285881e-01
1.313427e-01
1.336988e-01
1.355390e-01
1.367435e-01
1.372250e-01
1.369774e-01
1.361237e-01
1.349454e-01
0.000000e+00
9.968629e-03
2.036340e-02
3.109143e-02
4.196749e-02
5.278879e-02
6.339465e-02
7.368122e-02
8.359244e-02
9.310251e-02
1.022028e-01
1.108934e-01
1.191788e-01
1.270656e-01
1.345610e-01
1.416730e-01
1.484101e-01
1.547807e-01
1.607932e-01
1.664542e-01
1.717680e-01
1.767332e-01
1.813401e-01
1.855671e-01
1.893769e-01
1.927139e-01
1.955065e-01
1.976738e-01
1.991435e-01
1.998800e-01
1.999214e-01
1.994206e-01
1.986759e-01
0.000000e+00
1.356958e-02
2.778529e-02
4.245456e-02
5.724243e-02
7.184838e-02
8.607102e-02
9.980858e-02
1.130151e-01
1.256734e-01
1.377797e-01
1.493363e-01
1.603471e-01
1.708169e-01
1.807500e-01
1.901505e-01
1.990219e-01
2.073672e-01
2.151883e-01
2.224856e-01
2.292570e-01
2.354962e-01
2.411911e-01
2.463222e-01
2.508605e-01
2.547680e-01
2.580000e-01
2.605119e-01
2.622722e-01
2.632836e-01
2.636117e-01
2.634236e-01
2.630313e-01
0.000000e+00
1.748832e-02
3.594242e-02
5.490147e-02
7.381582e-02
9.227173e-02
1.101110e-01
1.272766e-01
1.437527e-01
1.595377e-01
1.746345e-01
1.890467e-01
2.027768e-01
2.158265e-01
2.281959e-01
2.398841e-01
2.508888e-01
2.612065e-01
2.708321e-01
2.797587e-01
2.879773e-01
2.954765e-01
3.022420e-01
3.082567e-01
3.135016e-01
3.179568e-01
3.216058e-01
3.244403e-01
3.264689e-01
3.277296e-01
3.283095e-01
3.283786e-01
3.282484e-01
0.000000e+00
2.204577e-02
4.538713e-02
6.915276e-02
9.224637e-02
1.144897e-01
1.358683e-01
1.564016e-01
1.761065e-01
1.949934e-01
2.130674e-01
2.303300e-01
2.467799e-01
2.624141e-01
2.772277e-01
2.912139e-01
3.043642e-01
3.166678e-01
3.281117e-01
3.386807e-01
3.483574e-01
3.571230e-01
3.649584e-01
3.718461e-01
3.777731e-01
3.827347e-01
3.867400e-01
3.898173e-01
3.920196e-01
3.934302e-01
3.941685e-01
3.944090e-01
3.944377e-01
0.000000e+00
2.779528e-02
5.783231e-02
8.615580e-02
1.130790e-01
1.388581e-01
1.636289e-01
1.874502e-01
2.103443e-01
2.323165e-01
2.533642e-01
2.734816e-01
2.926613e-01
3.108944e-01
3.281705e-01
3.444774e-01
3.598002e-01
3.741208e-01
3.874178e-01
3.996661e-01
4.108373e-01
4.209015e-01
4.298289e-01
4.375940e-01
4.441805e-01
4.495889e-01
4.538448e-01
4.570079e-01
4.591808e-01
4.605123e-01
4.611925e-01
4.614391e-01
4.614995e-01
0.000000e+00
4.145150e-02
7.521500e-02
1.064977e-01
1.365253e-01
1.655267e-01
1.935602e-01
2.206230e-01
2.466973e-01
2.717621e-01
2.957983e-01
3.187890e-01
3.407195e-01
3.615757e-01
3.813432e-01
4.000055e-01
4.175426e-01
4.339301e-01
4.491382e-01
4.631307e-01
4.758655e-01
4.872959e-01
4.973726e-01
5.060495e-01
5.132909e-01
5.190820e-01
5.234435e-01
5.264481e-01
5.282390e-01
5.290459e-01
5.291926e-01
5.290711e-01
5.290028e-01
0.000000e+00
-2.560818e-02
-4.469180e-02
-6.551663e-02
-8.870632e-02
-1.149014e-01
-1.442839e-01
-1.769048e-01
-2.127318e-01
-2.516880e-01
-2.936701e-01
-3.385594e-01
-3.862277e-01
-4.365418e-01
-4.893654e-01
-5.445617e-01
-6.019943e-01
-6.615295e-01
-7.230379e-01
-7.863978e-01
-8.514989e-01
-9.182483e-01
-9.865799e-01
-1.056467e+00
-1.127945e+00
-1.201146e+00
-1.276361e+00
-1.354158e+00
-1.435622e+00
-1.522905e+00
-1.620646e+00
-1.739791e+00
-1.904394e+00
0.000000e+00
-1.591451e-02
-3.589003e-02
-5.685534e-02
-8.036824e-02
-1.068479e-01
-1.365159e-01
-1.694224e-01
-2.055377e-01
-2.447850e-01
-2.870606e-01
-3.322446e-01
-3.802078e-01
-4.308159e-01
-4.839313e-01
-5.394158e-01
-5.971314e-01
-6.569424e-01
-7.187168e-01
-7.823299e-01
-8.476676e-01
-9.146323e-01
-9.831516e-01
-1.053192e+00
-1.124778e+00
-1.198030e+00
-1.273224e+00
-1.350911e+00
-1.432153e+00
-1.519066e+00
-1.616051e+00
-1.732545e+00
-1.886326e+00
0.000000e+00
-1.169013e-02
-2.893437e-02
-4.961368e-02
-7.316767e-02
-9.984244e-02
-1.297446e-01
-1.629019e-01
-1.992744e-01
-2.387818e-01
-2.813184e-01
-3.267635e-01
-3.749874e-01
-4.258550e-01
-4.792287e-01
-5.349693e-01
-5.929385e-01
-6.529994e-01
-7.150196e-01
-7.788730e-01
-8.444446e-01
-9.116361e-01
-9.803750e-01
-1.050628e+00
-1.122424e+00
-1.195890e+00
-1.271313e+00
-1.349259e+00
-1.430777e+00
-1.517771e+00
-1.613494e+00
-1.721792e+00
-1.841927e+00
0.000000e+00
-9.360956e-03
-2.450158e-02
-4.407816e-02
-6.732944e-02
-9.399593e-02
-1.240260e-01
-1.573690e-01
-1.939532e-01
-2.336834e-01
-2.764473e-01
-3.221211e-01
-3.705740e-01
-4.216708e-01
-4.752738e-01
-5.312444e-01
-5.894444e-01
-6.497379e-01
-7.119928e-01
-7.760843e-01
-8.418989e-01
-9.093405e-01
-9.783402e-01
-1.048870e+00
-1.120966e+00
-1.194761e+00
-1.270540e+00
-1.348823e+00
-1.430469e+00
-1.516734e+00
-1.608817e+00
-1.705937e+00
-1.796345e+00
0.000000e+00
-7.920908e-03
-2.160268e-02
-4.014728e-02
-6.286854e-02
-8.936019e-02
-1.194016e-01
-1.528529e-01
-1.895935e-01
-2.295031e-01
-2.724570e-01
-3.183257e-01
-3.669761e-01
-4.182725e-01
-4.720777e-01
-5.282541e-01
-5.866650e-01
-6.471758e-01
-7.096564e-01
-7.739841e-01
-8.400477e-01
-9.077543e-01
-9.770379e-01
-1.047872e+00
-1.120291e+00
-1.194410e+00
-1.270462e+00
-1.348821e+00
-1.429982e+00
-1.514343e+00
-1.601501e+00
-1.688257e+00
-1.766993e+00
0.000000e+00
-7.004593e-03
-1.970065e-02
-3.744223e-02
-5.965202e-02
-8.589552e-02
-1.158716e-01
-1.493657e-01
-1.862092e-01
-2.262533e-01
-2.693577e-01
-3.153855e-01
-3.642002e-01
-4.156655e-01
-4.696449e-01
-5.260021e-01
-5.846022e-01
-6.453128e-01
-7.080055e-01
-7.725599e-01
-8.388662e-01
-9.068321e-01
-9.763896e-01
-1.047505e+00
-1.120191e+00
-1.194517e+00
-1.270615e+00
-1.348649e+00
-1.428709e+00
-1.510525e+00
-1.592851e+00
-1.672745e+00
-1.745768e+00
0.000000e+00
-6.435113e-03
-1.849809e-02
-3.568388e-02
-5.749718e-02
-8.351454e-02
-1.134016e-01
-1.468999e-01
-1.838042e-01
-2.239413e-01
-2.671568e-01
-3.133061e-01
-3.622498e-01
-4.138507e-01
-4.679734e-01
-5.244830e-01
-5.832465e-01
-6.441331e-01
-7.070162e-01
-7.717759e-01
-8.383017e-01
-9.064974e-01
-9.762859e-01
-1.047615e+00
-1.120459e+00
-1.194820e+00
-1.270704e+00
-1.348069e+00
-1.426690e+00
-1.505929e+00
-1.584413e+00
-1.659880e+00
-1.729558e+00
0.000000e+00
-6.122176e-03
-1.783082e-02
-3.469302e-02
-5.626157e-02
-8.212763e-02
-1.119461e-01
-1.454371e-01
-1.823742e-01
-2.225689e-01
-2.658571e-01
-3.120893e-01
-3.611240e-01
-4.128243e-01
-4.670554e-01
-5.236842e-01
-5.825791e-01
-6.436106e-01
-7.066525e-01
-7.715835e-01
-8.382893e-01
-9.066653e-01
-9.766182e-01
-1.048067e+00
-1.120942e+00
-1.195165e+00
-1.270630e+00
-1.347129e+00
-1.424254e+00
-1.501247e+00
-1.576872e+00
-1.649425e+00
-1.717016e+00
0.000000e+00
-6.021349e-03
-1.761554e-02
-3.437187e-02
-5.585887e-02
-8.167372e-02
-1.114693e-01
-1.449598e-01
-1.819125e-01
-2.221341e-01
-2.654578e-01
-3.117330e-01
-3.608185e-01
-4.125782e-01
-4.668787e-01
-5.235882e-01
-5.825762e-01
-6.437136e-01
-7.068732e-01
-7.719306e-01
-8.387646e-01
-9.072582e-01
-9.772978e-01
-1.048770e+00
-1.121555e+00
-1.195507e+00
-1.270425e+00
-1.346002e+00
-1.421747e+00
-1.496916e+00
-1.570462e+00
-1.641087e+00
-1.707404e+00
0.000000e+00
-6.119259e-03
-1.782677e-02
-3.468953e-02
-5.626052e-02
-8.213133e-02
-1.119576e-01
-1.454605e-01
-1.824148e-01
-2.226338e-01
-2.659553e-01
-3.122322e-01
-3.613257e-01
-4.131016e-01
-4.674283e-01
-5.241750e-01
-5.832119e-01
-6.444093e-01
-7.076380e-01
-7.727687e-01
-8.396716e-01
-9.082151e-01
-9.782635e-01
-1.049671e+00
-1.122272e+00
-1.195866e+00
-1.270188e+00
-1.344878e+00
-1.419430e+00
-1.493168e+00
-1.565227e+00
-1.634605e+00
-1.700241e+00
0.000000e+00
-6.429517e-03
-1.849032e-02
-3.567716e-02
-5.749508e-02
-8.352148e-02
-1.134234e-01
-1.469445e-01
-1.838817e-01
-2.240654e-01
-2.673447e-01
-3.135798e-01
-3.626362e-01
-4.143825e-01
-4.686886e-01
-5.254250e-01
-5.844615e-01
-6.456677e-01
-7.089113e-01
-7.740574e-01
-8.409668e-01
-9.094932e-01
-9.794793e-01
-1.050750e+00
-1.123104e+00
-1.196297e+00
-1.270028e+00
-1.343914e+00
-1.417471e+00
-1.490107e+00
-1.561122e+00
-1.629742e+00
-1.695155e+00
0.000000e+00
-6.996814e-03
-1.968985e-02
-3.743284e-02
-5.964898e-02
-8.590503e-02
-1.159018e-01
-1.494276e-01
-1.863172e-01
-2.264262e-01
-2.696200e-01
-3.157677e-01
-3.647403e-01
-4.164092e-01
-4.706457e-01
-5.273209e-01
-5.863045e-01
-6.474644e-01
-7.106652e-01
-7.757664e-01
-8.426198e-01
-9.110659e-01
-9.809286e-01
-1.052009e+00
-1.124077e+00
-1.196862e+00
-1.270038e+00
-1.343223e+00
-1.415967e+00
-1.487762e+00
-1.558057e+00
-1.626274e+00
-1.691822e+00
0.000000e+00
-7.911745e-03
-2.158998e-02
-4.013623e-02
-6.286502e-02
-8.937171e-02
-1.194380e-01
-1.529276e-01
-1.897238e-01
-2.297120e-01
-2.727739e-01
-3.187878e-01
-3.676292e-01
-4.191721e-01
-4.732888e-01
-5.298505e-01
-5.887263e-01
-6.497826e-01
-7.128811e-01
-7.778764e-01
-8.446127e-01
-9.129196e-01
-9.826068e-01
-1.053457e+00
-1.125221e+00
-1.197609e+00
-1.270286e+00
-1.342875e+00
-1.414962e+00
-1.486117e+00
-1.555917e+00
-1.623971e+00
-1.689914e+00
0.000000e+00
-9.351538e-03
-2.448853e-02
-4.406692e-02
-6.732642e-02
-9.400945e-02
-1.240671e-01
-1.574524e-01
-1.940982e-01
-2.339153e-01
-2.767986e-01
-3.226328e-01
-3.712968e-01
-4.226657e-01
-4.766124e-01
-5.330078e-01
-5.917204e-01
-6.526151e-01
-7.155511e-01
-7.803794e-01
-8.469387e-01
-9.150508e-01
-9.845156e-01
-1.055104e+00
-1.126555e+00
-1.198567e+00
-1.270803e+00
-1.342894e+00
-1.414455e+00
-1.485119e+00
-1.554572e+00
-1.622596e+00
-1.689082e+00
0.000000e+00
-1.168192e-02
-2.892294e-02
-4.960419e-02
-7.316677e-02
-9.985890e-02
-1.297900e-01
-1.629915e-01
-1.994284e-01
-2.390264e-01
-2.816872e-01
-3.272987e-01
-3.757411e-01
-4.268899e-01
-4.806178e-01
-5.367952e-01
-5.952899e-01
-6.559655e-01
-7.186795e-01
-7.832801e-01
-8.496028e-01
-9.174650e-01
-9.866610e-01
-1.056956e+00
-1.128083e+00
-1.199737e+00
-1.271582e+00
-1.343256e+00
-1.414399e+00
-1.484683e+00
-1.553875e+00
-1.621905e+00
-1.688937e+00
0.000000e+00
-1.590924e-02
-3.588226e-02
-5.684975e-02
-8.037170e-02
-1.068693e-01
-1.365670e-01
-1.695186e-01
-2.056990e-01
-2.450375e-01
-2.874373e-01
-3.327870e-01
-3.809667e-01
-4.318517e-01
-4.853144e-01
-5.412245e-01
-5.994489e-01
-6.598501e-01
-7.222842e-01
-7.865978e-01
-8.526243e-01
-9.201792e-01
-9.890550e-01
-1.059016e+00
-1.129794e+00
-1.201087e+00
-1.272565e+00
-1.343876e+00
-1.414675e+00
-1.484662e+00
-1.553648e+00
-1.621655e+00
-1.689061e+00
0.000000e+00
-2.560743e-02
-4.468921e-02
-6.551713e-02
-8.871678e-02
-1.149308e-01
-1.443440e-01
-1.770108e-01
-2.129034e-01
-2.519504e-01
-2.940552e-01
-3.391067e-01
-3.869850e-01
-4.375654e-01
-4.907198e-01
-5.463171e-01
-6.042232e-01
-6.642992e-01
-7.263997e-01
-7.903697e-01
-8.560411e-01
-9.232283e-01
-9.917235e-01