TITLE = "Solution"
VARIABLES = x, y, u, v, psiu, psiv, t, stress
ZONE T="structure" N=561 E=512 F=FEBLOCK ET=QUADRILATERAL VARLOCATION=([7,8]=cellcentered)
0.000000e+00
6.250000e+00
1.250000e+01
1.875000e+01
2.500000e+01
3.125000e+01
3.750000e+01
4.375000e+01
5.000000e+01
5.625000e+01
6.250000e+01
6.875000e+01
7.500000e+01
8.125000e+01
8.750000e+01
9.375000e+01
1.000000e+02
1.062500e+02
1.125000e+02
1.187500e+02
1.250000e+02
1.312500e+02
1.375000e+02
1.437500e+02
1.500000e+02
1.562500e+02
1.625000e+02
1.687500e+02
1.750000e+02
1.812500e+02
1.875000e+02
1.937500e+02
2.000000e+02
0.000000e+00
6.250000e+00
1.250000e+01
1.875000e+01
2.500000e+01
3.125000e+01
3.750000e+01
4.375000e+01
5.000000e+01
5.625000e+01
6.250000e+01
6.875000e+01
7.500000e+01
8.125000e+01
8.750000e+01
9.375000e+01
1.000000e+02
1.062500e+02
1.125000e+02
1.187500e+02
1.250000e+02
1.312500e+02
1.375000e+02
1.437500e+02
1.500000e+02
1.562500e+02
1.625000e+02
1.687500e+02
1.750000e+02
1.812500e+02
1.875000e+02
1.937500e+02
2.000000e+02
0.000000e+00
6.250000e+00
1.250000e+01
1.875000e+01
2.500000e+01
3.125000e+01
3.750000e+01
4.375000e+01
5.000000e+01
5.625000e+01
6.250000e+01
6.875000e+01
7.500000e+01
8.125000e+01
8.750000e+01
9.375000e+01
1.000000e+02
1.062500e+02
1.125000e+02
1.187500e+02
1.250000e+02
1.312500e+02
1.375000e+02
1.437500e+02
1.500000e+02
1.562500e+02
1.625000e+02
1.687500e+02
1.750000e+02
1.812500e+02
1.875000e+02
1.937500e+02
2.000000e+02
0.000000e+00
6.250000e+00
1.250000e+01
1.875000e+01
2.500000e+01
3.125000e+01
3.750000e+01
4.375000e+01
5.000000e+01
5.625000e+01
6.250000e+01
6.875000e+01
7.500000e+01
8.125000e+01
8.750000e+01
9.375000e+01
1.000000e+02
1.062500e+02
1.125000e+02
1.187500e+02
1.250000e+02
1.312500e+02
1.375000e+02
1.437500e+02
1.500000e+02
1.562500e+02
1.625000e+02
1.687500e+02
1.750000e+02
1.812500e+02
1.875000e+02
1.937500e+02
2.000000e+02
0.000000e+00
6.250000e+00
1.250000e+01
1.875000e+01
2.500000e+01
3.125000e+01
3.750000e+01
4.375000e+01
5.000000e+01
5.625000e+01
6.250000e+01
6.875000e+01
7.500000e+01
8.125000e+01
8.750000e+01
9.375000e+01
1.000000e+02
1.062500e+02
1.125000e+02
1.187500e+02
1.250000e+02
1.312500e+02
1.375000e+02
1.437500e+02
1.500000e+02
1.562500e+02
1.625000e+02
1.687500e+02
1.750000e+02
1.812500e+02
1.875000e+02
1.937500e+02
2.000000e+02
0.000000e+00
6.250000e+00
1.250000e+01
1.875000e+01
2.500000e+01
3.125000e+01
3.750000e+01
4.375000e+01
5.000000e+01
5.625000e+01
6.250000e+01
6.875000e+01
7.500000e+01
8.125000e+01
8.750000e+01
9.375000e+01
1.000000e+02
1.062500e+02
1.125000e+02
1.187500e+02
1.250000e+02
1.312500e+02
1.375000e+02
1.437500e+02
1.500000e+02
1.562500e+02
1.625000e+02
1.687500e+02
1.750000e+02
1.812500e+02
1.875000e+02
1.937500e+02
2.000000e+02
0.000000e+00
6.250000e+00
1.250000e+01
1.875000e+01
2.500000e+01
3.125000e+01
3.750000e+01
4.375000e+01
5.000000e+01
5.625000e+01
6.250000e+01
6.875000e+01
7.500000e+01
8.125000e+01
8.750000e+01
9.375000e+01
1.000000e+02
1.062500e+02
1.125000e+02
1.187500e+02
1.250000e+02
1.312500e+02
1.375000e+02
1.437500e+02
1.500000e+02
1.562500e+02
1.625000e+02
1.687500e+02
1.750000e+02
1.812500e+02
1.875000e+02
1.937500e+02
2.000000e+02
0.000000e+00
6.250000e+00
1.250000e+01
1.875000e+01
2.500000e+01
3.125000e+01
3.750000e+01
4.375000e+01
5.000000e+01
5.625000e+01
6.250000e+01
6.875000e+01
7.500000e+01
8.125000e+01
8.750000e+01
9.375000e+01
1.000000e+02
1.062500e+02
1.125000e+02
1.187500e+02
1.250000e+02
1.312500e+02
1.375000e+02
1.437500e+02
1.500000e+02
1.562500e+02
1.625000e+02
1.687500e+02
1.750000e+02
1.812500e+02
1.875000e+02
1.937500e+02
2.000000e+02
0.000000e+00
6.250000e+00
1.250000e+01
1.875000e+01
2.500000e+01
3.125000e+01
3.750000e+01
4.375000e+01
5.000000e+01
5.625000e+01
6.250000e+01
6.875000e+01
7.500000e+01
8.125000e+01
8.750000e+01
9.375000e+01
1.000000e+02
1.062500e+02
1.125000e+02
1.187500e+02
1.250000e+02
1.312500e+02
1.375000e+02
1.437500e+02
1.500000e+02
1.562500e+02
1.625000e+02
1.687500e+02
1.750000e+02
1.812500e+02
1.875000e+02
1.937500e+02
2.000000e+02
0.000000e+00
6.250000e+00
1.250000e+01
1.875000e+01
2.500000e+01
3.125000e+01
3.750000e+01
4.375000e+01
5.000000e+01
5.625000e+01
6.250000e+01
6.875000e+01
7.500000e+01
8.125000e+01
8.750000e+01
9.375000e+01
1.000000e+02
1.062500e+02
1.125000e+02
1.187500e+02
1.250000e+02
1.312500e+02
1.375000e+02
1.437500e+02
1.500000e+02
1.562500e+02
1.625000e+02
1.687500e+02
1.750000e+02
1.812500e+02
1.875000e+02
1.937500e+02
2.000000e+02
0.000000e+00
6.250000e+00
1.250000e+01
1.875000e+01
2.500000e+01
3.125000e+01
3.750000e+01
4.375000e+01
5.000000e+01
5.625000e+01
6.250000e+01
6.875000e+01
7.500000e+01
8.125000e+01
8.750000e+01
9.375000e+01
1.000000e+02
1.062500e+02
1.125000e+02
1.187500e+02
1.250000e+02
1.312500e+02
1.375000e+02
1.437500e+02
1.500000e+02
1.562500e+02
1.625000e+02
1.687500e+02
1.750000e+02
1.812500e+02
1.875000e+02
1.937500e+02
2.000000e+02
0.000000e+00
6.250000e+00
1.250000e+01
1.875000e+01
2.500000e+01
3.125000e+01
3.750000e+01
4.375000e+01
5.000000e+01
5.625000e+01
6.250000e+01
6.875000e+01
7.500000e+01
8.125000e+01
8.750000e+01
9.375000e+01
1.000000e+02
1.062500e+02
1.125000e+02
1.187500e+02
1.250000e+02
1.312500e+02
1.375000e+02
1.437500e+02
1.500000e+02
1.562500e+02
1.625000e+02
1.687500e+02
1.750000e+02
1.812500e+02
1.875000e+02
1.937500e+02
2.000000e+02
0.000000e+00
6.250000e+00
1.250000e+01
1.875000e+01
2.500000e+01
3.125000e+01
3.750000e+01
4.375000e+01
5.000000e+01
5.625000e+01
6.250000e+01
6.875000e+01
7.500000e+01
8.125000e+01
8.750000e+01
9.375000e+01
1.000000e+02
1.062500e+02
1.125000e+02
1.187500e+02
1.250000e+02
1.312500e+02
1.375000e+02
1.437500e+02
1.500000e+02
1.562500e+02
1.625000e+02
1.687500e+02
1.750000e+02
1.812500e+02
1.875000e+02
1.937500e+02
2.000000e+02
0.000000e+00
6.250000e+00
1.250000e+01
1.875000e+01
2.500000e+01
3.125000e+01
3.750000e+01
4.375000e+01
5.000000e+01
5.625000e+01
6.250000e+01
6.875000e+01
7.500000e+01
8.125000e+01
8.750000e+01
9.375000e+01
1.000000e+02
1.062500e+02
1.125000e+02
1.187500e+02
1.250000e+02
1.312500e+02
1.375000e+02
1.437500e+02
1.500000e+02
1.562500e+02
1.625000e+02
1.687500e+02
1.750000e+02
1.812500e+02
1.875000e+02
1.937500e+02
2.000000e+02
0.000000e+00
6.250000e+00
1.250000e+01
1.875000e+01
2.500000e+01
3.125000e+01
3.750000e+01
4.375000e+01
5.000000e+01
5.625000e+01
6.250000e+01
6.875000e+01
7.500000e+01
8.125000e+01
8.750000e+01
9.375000e+01
1.000000e+02
1.062500e+02
1.125000e+02
1.187500e+02
1.250000e+02
1.312500e+02
1.375000e+02
1.437500e+02
1.500000e+02
1.562500e+02
1.625000e+02
1.687500e+02
1.750000e+02
1.812500e+02
1.875000e+02
1.937500e+02
2.000000e+02
0.000000e+00
6.250000e+00
1.250000e+01
1.875000e+01
2.500000e+01
3.125000e+01
3.750000e+01
4.375000e+01
5.000000e+01
5.625000e+01
6.250000e+01
6.875000e+01
7.500000e+01
8.125000e+01
8.750000e+01
9.375000e+01
1.000000e+02
1.062500e+02
1.125000e+02
1.187500e+02
1.250000e+02
1.312500e+02
1.375000e+02
1.437500e+02
1.500000e+02
1.562500e+02
1.625000e+02
1.687500e+02
1.750000e+02
1.812500e+02
1.875000e+02
1.937500e+02
2.000000e+02
0.000000e+00
6.250000e+00
1.250000e+01
1.875000e+01
2.500000e+01
3.125000e+01
3.750000e+01
4.375000e+01
5.000000e+01
5.625000e+01
6.250000e+01
6.875000e+01
7.500000e+01
8.125000e+01
8.750000e+01
9.375000e+01
1.000000e+02
1.062500e+02
1.125000e+02
1.187500e+02
1.250000e+02
1.312500e+02
1.375000e+02
1.437500e+02
1.500000e+02
1.562500e+02
1.625000e+02
1.687500e+02
1.750000e+02
1.812500e+02
1.875000e+02
1.937500e+02
2.000000e+02
0.000000e+00
0.000000e+00
0.000000e+00
0.000000e+00
0.000000e+00
0.000000e+00
0.000000e+00
0.000000e+00
0.000000e+00
0.000000e+00
0.000000e+00
0.000000e+00
0.000000e+00
0.000000e+00
0.000000e+00
0.000000e+00
0.000000e+00
0.000000e+00
0.000000e+00
0.000000e+00
0.000000e+00
0.000000e+00
0.000000e+00
0.000000e+00
0.000000e+00
0.000000e+00
0.000000e+00
0.000000e+00
0.000000e+00
0.000000e+00
0.000000e+00
0.000000e+00
0.000000e+00
6.250000e+00
6.250000e+00
6.250000e+00
6.250000e+00
6.250000e+00
6.250000e+00
6.250000e+00
6.250000e+00
6.250000e+00
6.250000e+00
6.250000e+00
6.250000e+00
6.250000e+00
6.250000e+00
6.250000e+00
6.250000e+00
6.250000e+00
6.250000e+00
6.250000e+00
6.250000e+00
6.250000e+00
6.250000e+00
6.250000e+00
6.250000e+00
6.250000e+00
6.250000e+00
6.250000e+00
6.250000e+00
6.250000e+00
6.250000e+00
6.250000e+00
6.250000e+00
6.250000e+00
1.250000e+01
1.250000e+01
1.250000e+01
1.250000e+01
1.250000e+01
1.250000e+01
1.250000e+01
1.250000e+01
1.250000e+01
1.250000e+01
1.250000e+01
1.250000e+01
1.250000e+01
1.250000e+01
1.250000e+01
1.250000e+01
1.250000e+01
1.250000e+01
1.250000e+01
1.250000e+01
1.250000e+01
1.250000e+01
1.250000e+01
1.250000e+01
1.250000e+01
1.250000e+01
1.250000e+01
1.250000e+01
1.250000e+01
1.250000e+01
1.250000e+01
1.250000e+01
1.250000e+01
1.875000e+01
1.875000e+01
1.875000e+01
1.875000e+01
1.875000e+01
1.875000e+01
1.875000e+01
1.875000e+01
1.875000e+01
1.875000e+01
1.875000e+01
1.875000e+01
1.875000e+01
1.875000e+01
1.875000e+01
1.875000e+01
1.875000e+01
1.875000e+01
1.875000e+01
1.875000e+01
1.875000e+01
1.875000e+01
1.875000e+01
1.875000e+01
1.875000e+01
1.875000e+01
1.875000e+01
1.875000e+01
1.875000e+01
1.875000e+01
1.875000e+01
1.875000e+01
1.875000e+01
2.500000e+01
2.500000e+01
2.500000e+01
2.500000e+01
2.500000e+01
2.500000e+01
2.500000e+01
2.500000e+01
2.500000e+01
2.500000e+01
2.500000e+01
2.500000e+01
2.500000e+01
2.500000e+01
2.500000e+01
2.500000e+01
2.500000e+01
2.500000e+01
2.500000e+01
2.500000e+01
2.500000e+01
2.500000e+01
2.500000e+01
2.500000e+01
2.500000e+01
2.500000e+01
2.500000e+01
2.500000e+01
2.500000e+01
2.500000e+01
2.500000e+01
2.500000e+01
2.500000e+01
3.125000e+01
3.125000e+01
3.125000e+01
3.125000e+01
3.125000e+01
3.125000e+01
3.125000e+01
3.125000e+01
3.125000e+01
3.125000e+01
3.125000e+01
3.125000e+01
3.125000e+01
3.125000e+01
3.125000e+01
3.125000e+01
3.125000e+01
3.125000e+01
3.125000e+01
3.125000e+01
3.125000e+01
3.125000e+01
3.125000e+01
3.125000e+01
3.125000e+01
3.125000e+01
3.125000e+01
3.125000e+01
3.125000e+01
3.125000e+01
3.125000e+01
3.125000e+01
3.125000e+01
3.750000e+01
3.750000e+01
3.750000e+01
3.750000e+01
3.750000e+01
3.750000e+01
3.750000e+01
3.750000e+01
3.750000e+01
3.750000e+01
3.750000e+01
3.750000e+01
3.750000e+01
3.750000e+01
3.750000e+01
3.750000e+01
3.750000e+01
3.750000e+01
3.750000e+01
3.750000e+01
3.750000e+01
3.750000e+01
3.750000e+01
3.750000e+01
3.750000e+01
3.750000e+01
3.750000e+01
3.750000e+01
3.750000e+01
3.750000e+01
3.750000e+01
3.750000e+01
3.750000e+01
4.375000e+01
4.375000e+01
4.375000e+01
4.375000e+01
4.375000e+01
4.375000e+01
4.375000e+01
4.375000e+01
4.375000e+01
4.375000e+01
4.375000e+01
4.375000e+01
4.375000e+01
4.375000e+01
4.375000e+01
4.375000e+01
4.375000e+01
4.375000e+01
4.375000e+01
4.375000e+01
4.375000e+01
4.375000e+01
4.375000e+01
4.375000e+01
4.375000e+01
4.375000e+01
4.375000e+01
4.375000e+01
4.375000e+01
4.375000e+01
4.375000e+01
4.375000e+01
4.375000e+01
5.000000e+01
5.000000e+01
5.000000e+01
5.000000e+01
5.000000e+01
5.000000e+01
5.000000e+01
5.000000e+01
5.000000e+01
5.000000e+01
5.000000e+01
5.000000e+01
5.000000e+01
5.000000e+01
5.000000e+01
5.000000e+01
5.000000e+01
5.000000e+01
5.000000e+01
5.000000e+01
5.000000e+01
5.000000e+01
5.000000e+01
5.000000e+01
5.000000e+01
5.000000e+01
5.000000e+01
5.000000e+01
5.000000e+01
5.000000e+01
5.000000e+01
5.000000e+01
5.000000e+01
5.625000e+01
5.625000e+01
5.625000e+01
5.625000e+01
5.625000e+01
5.625000e+01
5.625000e+01
5.625000e+01
5.625000e+01
5.625000e+01
5.625000e+01
5.625000e+01
5.625000e+01
5.625000e+01
5.625000e+01
5.625000e+01
5.625000e+01
5.625000e+01
5.625000e+01
5.625000e+01
5.625000e+01
5.625000e+01
5.625000e+01
5.625000e+01
5.625000e+01
5.625000e+01
5.625000e+01
5.625000e+01
5.625000e+01
5.625000e+01
5.625000e+01
5.625000e+01
5.625000e+01
6.250000e+01
6.250000e+01
6.250000e+01
6.250000e+01
6.250000e+01
6.250000e+01
6.250000e+01
6.250000e+01
6.250000e+01
6.250000e+01
6.250000e+01
6.250000e+01
6.250000e+01
6.250000e+01
6.250000e+01
6.250000e+01
6.250000e+01
6.250000e+01
6.250000e+01
6.250000e+01
6.250000e+01
6.250000e+01
6.250000e+01
6.250000e+01
6.250000e+01
6.250000e+01
6.250000e+01
6.250000e+01
6.250000e+01
6.250000e+01
6.250000e+01
6.250000e+01
6.250000e+01
6.875000e+01
6.875000e+01
6.875000e+01
6.875000e+01
6.875000e+01
6.875000e+01
6.875000e+01
6.875000e+01
6.875000e+01
6.875000e+01
6.875000e+01
6.875000e+01
6.875000e+01
6.875000e+01
6.875000e+01
6.875000e+01
6.875000e+01
6.875000e+01
6.875000e+01
6.875000e+01
6.875000e+01
6.875000e+01
6.875000e+01
6.875000e+01
6.875000e+01
6.875000e+01
6.875000e+01
6.875000e+01
6.875000e+01
6.875000e+01
6.875000e+01
6.875000e+01
6.875000e+01
7.500000e+01
7.500000e+01
7.500000e+01
7.500000e+01
7.500000e+01
7.500000e+01
7.500000e+01
7.500000e+01
7.500000e+01
7.500000e+01
7.500000e+01
7.500000e+01
7.500000e+01
7.500000e+01
7.500000e+01
7.500000e+01
7.500000e+01
7.500000e+01
7.500000e+01
7.500000e+01
7.500000e+01
7.500000e+01
7.500000e+01
7.500000e+01
7.500000e+01
7.500000e+01
7.500000e+01
7.500000e+01
7.500000e+01
7.500000e+01
7.500000e+01
7.500000e+01
7.500000e+01
8.125000e+01
8.125000e+01
8.125000e+01
8.125000e+01
8.125000e+01
8.125000e+01
8.125000e+01
8.125000e+01
8.125000e+01
8.125000e+01
8.125000e+01
8.125000e+01
8.125000e+01
8.125000e+01
8.125000e+01
8.125000e+01
8.125000e+01
8.125000e+01
8.125000e+01
8.125000e+01
8.125000e+01
8.125000e+01
8.125000e+01
8.125000e+01
8.125000e+01
8.125000e+01
8.125000e+01
8.125000e+01
8.125000e+01
8.125000e+01
8.125000e+01
8.125000e+01
8.125000e+01
8.750000e+01
8.750000e+01
8.750000e+01
8.750000e+01
8.750000e+01
8.750000e+01
8.750000e+01
8.750000e+01
8.750000e+01
8.750000e+01
8.750000e+01
8.750000e+01
8.750000e+01
8.750000e+01
8.750000e+01
8.750000e+01
8.750000e+01
8.750000e+01
8.750000e+01
8.750000e+01
8.750000e+01
8.750000e+01
8.750000e+01
8.750000e+01
8.750000e+01
8.750000e+01
8.750000e+01
8.750000e+01
8.750000e+01
8.750000e+01
8.750000e+01
8.750000e+01
8.750000e+01
9.375000e+01
9.375000e+01
9.375000e+01
9.375000e+01
9.375000e+01
9.375000e+01
9.375000e+01
9.375000e+01
9.375000e+01
9.375000e+01
9.375000e+01
9.375000e+01
9.375000e+01
9.375000e+01
9.375000e+01
9.375000e+01
9.375000e+01
9.375000e+01
9.375000e+01
9.375000e+01
9.375000e+01
9.375000e+01
9.375000e+01
9.375000e+01
9.375000e+01
9.375000e+01
9.375000e+01
9.375000e+01
9.375000e+01
9.375000e+01
9.375000e+01
9.375000e+01
9.375000e+01
1.000000e+02
1.000000e+02
1.000000e+02
1.000000e+02
1.000000e+02
1.000000e+02
1.000000e+02
1.000000e+02
1.000000e+02
1.000000e+02
1.000000e+02
1.000000e+02
1.000000e+02
1.000000e+02
1.000000e+02
1.000000e+02
1.000000e+02
1.000000e+02
1.000000e+02
1.000000e+02
1.000000e+02
1.000000e+02
1.000000e+02
1.000000e+02
1.000000e+02
1.000000e+02
1.000000e+02
1.000000e+02
1.000000e+02
1.000000e+02
1.000000e+02
1.000000e+02
1.000000e+02
0.000000e+00
-3.000320e-01
-5.438285e-01
-7.715746e-01
-9.935189e-01
-1.210364e+00
-1.421765e+00
-1.627305e+00
-1.826595e+00
-2.019273e+00
-2.205018e+00
-2.383558e+00
-2.554681e+00
-2.718227e+00
-2.874098e+00
-3.022261e+00
-3.162747e+00
-3.295668e+00
-3.421225e+00
-3.539723e+00
-3.651600e+00
-3.757460e+00
-3.858114e+00
-3.954654e+00
-4.048549e+00
-4.141798e+00
-4.237171e+00
-4.338606e+00
-4.451855e+00
-4.585278e+00
-4.749241e+00
-4.942743e+00
-5.060241e+00
0.000000e+00
-1.999500e-01
-4.158792e-01
-6.212488e-01
-8.197045e-01
-1.012178e+00
-1.198848e+00
-1.379744e+00
-1.554783e+00
-1.723808e+00
-1.886638e+00
-2.043098e+00
-2.193039e+00
-2.336348e+00
-2.472951e+00
-2.602821e+00
-2.725982e+00
-2.842514e+00
-2.952559e+00
-3.056333e+00
-3.154134e+00
-3.246353e+00
-3.333490e+00
-3.416168e+00
-3.495135e+00
-3.571257e+00
-3.645447e+00
-3.718458e+00
-3.790274e+00
-3.858486e+00
-3.914957e+00
-3.947702e+00
-3.993017e+00
0.000000e+00
-1.579932e-01
-3.255226e-01
-4.977529e-01
-6.676249e-01
-8.332747e-01
-9.940614e-01
-1.149792e+00
-1.300345e+00
-1.445602e+00
-1.585436e+00
-1.719728e+00
-1.848372e+00
-1.971282e+00
-2.088396e+00
-2.199680e+00
-2.305132e+00
-2.404778e+00
-2.498681e+00
-2.586933e+00
-2.669655e+00
-2.746989e+00
-2.819082e+00
-2.886047e+00
-2.947902e+00
-3.004450e+00
-3.055057e+00
-3.098263e+00
-3.131195e+00
-3.149143e+00
-3.148064e+00
-3.138727e+00
-3.191502e+00
0.000000e+00
-1.254729e-01
-2.581520e-01
-3.956816e-01
-5.346054e-01
-6.716786e-01
-8.054985e-01
-9.354173e-01
-1.061103e+00
-1.182355e+00
-1.299031e+00
-1.411023e+00
-1.518240e+00
-1.620605e+00
-1.718057e+00
-1.810544e+00
-1.898026e+00
-1.980472e+00
-2.057853e+00
-2.130141e+00
-2.197289e+00
-2.259215e+00
-2.315766e+00
-2.366671e+00
-2.411459e+00
-2.449348e+00
-2.479103e+00
-2.498938e+00
-2.506743e+00
-2.501562e+00
-2.488458e+00
-2.487782e+00
-2.538195e+00
0.000000e+00
-9.778700e-02
-2.004033e-01
-3.070222e-01
-4.155438e-01
-5.237915e-01
-6.302184e-01
-7.339472e-01
-8.344769e-01
-9.315160e-01
-1.024885e+00
-1.114462e+00
-1.200155e+00
-1.281884e+00
-1.359578e+00
-1.433162e+00
-1.502559e+00
-1.567683e+00
-1.628430e+00
-1.684667e+00
-1.736222e+00
-1.782857e+00
-1.824241e+00
-1.859915e+00
-1.889246e+00
-1.911410e+00
-1.925440e+00
-1.930498e+00
-1.926701e+00
-1.917070e+00
-1.910759e+00
-1.925113e+00
-1.968473e+00
0.000000e+00
-7.214612e-02
-1.475003e-01
-2.256649e-01
-3.055094e-01
-3.856302e-01
-4.648617e-01
-5.423805e-01
-6.176662e-01
-6.904002e-01
-7.603856e-01
-8.274925e-01
-8.916237e-01
-9.526941e-01
-1.010619e+00
-1.065304e+00
-1.116642e+00
-1.164504e+00
-1.208731e+00
-1.249126e+00
-1.285445e+00
-1.317378e+00
-1.344543e+00
-1.366479e+00
-1.382662e+00
-1.392582e+00
-1.395941e+00
-1.393099e+00
-1.385920e+00
-1.379002e+00
-1.380523e+00
-1.398926e+00
-1.435101e+00
0.000000e+00
-4.761248e-02
-9.718823e-02
-1.485439e-01
-2.010653e-01
-2.539464e-01
-3.064301e-01
-3.579257e-01
-4.080218e-01
-4.564510e-01
-5.030403e-01
-5.476712e-01
-5.902505e-01
-6.306916e-01
-6.689023e-01
-7.047762e-01
-7.381864e-01
-7.689792e-01
-7.969690e-01
-8.219328e-01
-8.436070e-01
-8.616870e-01
-8.758370e-01
-8.857173e-01
-8.910492e-01
-8.917460e-01
-8.881553e-01
-8.814540e-01
-8.741676e-01
-8.705423e-01
-8.758556e-01
-8.938794e-01
-9.232492e-01
0.000000e+00
-2.369082e-02
-4.831959e-02
-7.381006e-02
-9.989072e-02
-1.261906e-01
-1.523410e-01
-1.780351e-01
-2.030461e-01
-2.272158e-01
-2.504338e-01
-2.726151e-01
-2.936839e-01
-3.135614e-01
-3.321567e-01
-3.493613e-01
-3.650433e-01
-3.790444e-01
-3.911772e-01
-4.012257e-01
-4.089501e-01
-4.140996e-01
-4.164391e-01
-4.157990e-01
-4.121606e-01
-4.057942e-01
-3.974593e-01
-3.886463e-01
-3.817550e-01
-3.799357e-01
-3.862450e-01
-4.020336e-01
-4.254097e-01
0.000000e+00
-4.806822e-05
-1.028782e-04
-1.616613e-04
-2.215409e-04
-2.786988e-04
-3.274513e-04
-3.592019e-04
-3.612195e-04
-3.151722e-04
-1.953569e-04
3.340685e-05
4.182183e-04
1.020816e-03
1.920450e-03
3.216652e-03
5.031482e-03
7.510560e-03
1.082179e-02
1.515014e-02
2.068598e-02
2.760341e-02
3.602384e-02
4.595862e-02
5.722521e-02
6.933559e-02
8.137016e-02
9.188333e-02
9.894213e-02
1.004428e-01
9.480844e-02
8.192657e-02
6.384117e-02
0.000000e+00
2.359936e-02
4.812361e-02
7.350173e-02
9.946752e-02
1.256570e-01
1.517122e-01
1.773422e-01
2.023439e-01
2.265936e-01
2.500288e-01
2.726309e-01
2.944124e-01
3.154107e-01
3.356847e-01
3.553137e-01
3.743973e-01
3.930537e-01
4.114161e-01
4.296241e-01
4.478079e-01
4.660635e-01
4.844143e-01
5.027572e-01
5.207944e-01
5.379586e-01
5.533542e-01
5.657597e-01
5.737585e-01
5.760626e-01
5.720290e-01
5.622302e-01
5.487985e-01
0.000000e+00
4.753486e-02
9.702126e-02
1.482801e-01
2.007015e-01
2.534846e-01
3.058808e-01
3.573120e-01
4.073859e-01
4.558625e-01
5.026079e-01
5.475572e-01
5.906892e-01
6.320129e-01
6.715590e-01
7.093774e-01
7.455341e-01
7.801088e-01
8.131896e-01
8.448636e-01
8.752008e-01
9.042300e-01
9.319048e-01
9.580608e-01
9.823664e-01
1.004281e+00
1.023042e+00
1.037711e+00
1.047330e+00
1.051194e+00
1.049246e+00
1.042460e+00
1.033083e+00
0.000000e+00
7.209094e-02
1.473806e-01
2.254743e-01
3.052437e-01
3.852886e-01
4.644484e-01
5.419077e-01
6.171580e-01
6.898982e-01
7.599563e-01
8.272370e-01
8.916899e-01
9.532928e-01
1.012043e+00
1.067951e+00
1.121040e+00
1.171345e+00
1.218899e+00
1.263735e+00
1.305866e+00
1.345268e+00
1.381853e+00
1.415441e+00
1.445729e+00
1.472274e+00
1.494499e+00
1.511760e+00
1.523475e+00
1.529353e+00
1.529694e+00
1.525712e+00
1.519785e+00
0.000000e+00
9.776175e-02
2.003470e-01
3.069303e-01
4.154123e-01
5.236176e-01
6.300009e-01
7.336877e-01
8.341805e-01
9.311936e-01
1.024555e+00
1.114155e+00
1.199918e+00
1.281785e+00
1.359714e+00
1.433670e+00
1.503626e+00
1.569560e+00
1.631450e+00
1.689269e+00
1.742975e+00
1.792501e+00
1.837736e+00
1.878513e+00
1.914596e+00
1.945676e+00
1.971393e+00
1.991388e+00
2.005406e+00
2.013463e+00
2.016079e+00
2.014584e+00
2.011461e+00
0.000000e+00
1.254830e-01
2.581711e-01
3.957083e-01
5.346383e-01
6.717158e-01
8.055371e-01
9.354521e-01
1.061125e+00
1.182348e+00
1.298973e+00
1.410877e+00
1.517952e+00
1.620102e+00
1.717234e+00
1.809260e+00
1.896098e+00
1.977664e+00
2.053872e+00
2.124630e+00
2.189840e+00
2.249386e+00
2.303138e+00
2.350948e+00
2.392653e+00
2.428091e+00
2.457123e+00
2.479680e+00
2.495828e+00
2.505865e+00
2.510482e+00
2.511033e+00
2.509996e+00
0.000000e+00
1.580402e-01
3.256216e-01
4.979073e-01
6.678398e-01
8.335547e-01
9.944081e-01
1.150201e+00
1.300805e+00
1.446083e+00
1.585889e+00
1.720068e+00
1.848470e+00
1.970946e+00
2.087347e+00
2.197531e+00
2.301351e+00
2.398658e+00
2.489295e+00
2.573099e+00
2.649898e+00
2.719516e+00
2.781780e+00
2.836537e+00
2.883671e+00
2.923139e+00
2.955006e+00
2.979494e+00
2.997022e+00
3.008249e+00
3.014126e+00
3.016040e+00
3.016268e+00
0.000000e+00
2.000286e-01
4.160482e-01
6.215205e-01
8.200972e-01
1.012709e+00
1.199532e+00
1.380589e+00
1.555788e+00
1.724952e+00
1.887870e+00
2.044323e+00
2.194095e+00
2.336979e+00
2.472771e+00
2.601269e+00
2.722266e+00
2.835546e+00
2.940876e+00
3.038007e+00
3.126677e+00
3.206616e+00
3.277563e+00
3.339298e+00
3.391680e+00
3.434703e+00
3.468564e+00
3.493735e+00
3.511029e+00
3.521626e+00
3.527041e+00
3.529005e+00
3.529486e+00
0.000000e+00
3.001166e-01
5.440301e-01
7.719261e-01
9.940549e-01
1.211119e+00
1.422774e+00
1.628601e+00
1.828207e+00
2.021214e+00
2.207274e+00
2.386070e+00
2.557317e+00
2.720749e+00
2.876114e+00
3.023164e+00
3.161639e+00
3.291261e+00
3.411723e+00
3.522681e+00
3.623757e+00
3.714542e+00
3.794620e+00
3.863603e+00
3.921192e+00
3.967260e+00
4.001964e+00
4.025876e+00
4.040132e+00
4.046557e+00
4.047726e+00
4.046760e+00
4.046216e+00
0.000000e+00
-1.856682e-01
-3.261911e-01
-4.813258e-01
-6.548412e-01
-8.509457e-01
-1.071067e+00
-1.315745e+00
-1.584869e+00
-1.877976e+00
-2.194392e+00
-2.533309e+00
-2.893830e+00
-3.274999e+00
-3.675821e+00
-4.095280e+00
-4.532349e+00
-4.986008e+00
-5.455267e+00
-5.939182e+00
-6.436898e+00
-6.947690e+00
-7.471041e+00
-8.006745e+00
-8.555080e+00
-9.117081e+00
-9.695032e+00
-1.029336e+01
-1.092047e+01
-1.159293e+01
-1.234639e+01
-1.326484e+01
-1.453319e+01
0.000000e+00
-1.155591e-01
-2.625019e-01
-4.178664e-01
-5.928807e-01
-7.904650e-01
-1.012247e+00
-1.258682e+00
-1.529655e+00
-1.824696e+00
-2.143119e+00
-2.484106e+00
-2.846746e+00
-3.230068e+00
-3.633063e+00
-4.054696e+00
-4.493924e+00
-4.949707e+00
-5.421029e+00
-5.906920e+00
-6.406490e+00
-6.918976e+00
-7.443811e+00
-7.980727e+00
-8.529925e+00
-9.092348e+00
-9.670162e+00
-1.026766e+01
-1.089310e+01
-1.156286e+01
-1.231087e+01
-1.320910e+01
-1.439347e+01
0.000000e+00
-8.512017e-02
-2.121906e-01
-3.649955e-01
-5.396428e-01
-7.380915e-01
-9.611596e-01
-1.209099e+00
-1.481697e+00
-1.778447e+00
-2.098644e+00
-2.441456e+00
-2.805961e+00
-3.191179e+00
-3.596091e+00
-4.019654e+00
-4.460813e+00
-4.918520e+00
-5.391746e+00
-5.879511e+00
-6.380915e+00
-6.895185e+00
-7.421750e+00
-7.960350e+00
-8.511207e+00
-9.075315e+00
-9.654932e+00
-1.025447e+01
-1.088213e+01
-1.155274e+01
-1.229131e+01
-1.312647e+01
-1.405165e+01
0.000000e+00
-6.864880e-02
-1.802996e-01
-3.247639e-01
-4.967747e-01
-6.947024e-01
-9.182960e-01
-1.167259e+00
-1.441144e+00
-1.739326e+00
-2.061045e+00
-2.405439e+00
-2.771570e+00
-3.158452e+00
-3.565059e+00
-3.990348e+00
-4.433262e+00
-4.892754e+00
-5.367797e+00
-5.857417e+00
-6.360722e+00
-6.876957e+00
-7.405576e+00
-7.946358e+00
-8.499575e+00
-9.066270e+00
-9.648677e+00
-1.025087e+01
-1.087962e+01
-1.154475e+01
-1.225536e+01
-1.300446e+01
-1.370090e+01
0.000000e+00
-5.866548e-02
-1.596452e-01
-2.964141e-01
-4.642846e-01
-6.605899e-01
-8.839111e-01
-1.133353e+00
-1.408126e+00
-1.707425e+00
-2.030392e+00
-2.376116e+00
-2.743637e+00
-3.131957e+00
-3.540053e+00
-3.966881e+00
-4.411394e+00
-4.872552e+00
-5.349340e+00
-5.840798e+00
-6.346052e+00
-6.864367e+00
-7.395218e+00
-7.938395e+00
-8.494150e+00
-9.063394e+00
-9.647952e+00
-1.025077e+01
-1.087579e+01
-1.152617e+01
-1.219855e+01
-1.286740e+01
-1.347307e+01
0.000000e+00
-5.229512e-02
-1.461507e-01
-2.770236e-01
-4.410241e-01
-6.352894e-01
-8.578667e-01
-1.107364e+00
-1.382667e+00
-1.682773e+00
-2.006711e+00
-2.353508e+00
-2.722176e+00
-3.111709e+00
-3.521083e+00
-3.949262e+00
-4.395209e+00
-4.857898e+00
-5.336327e+00
-5.829550e+00
-6.336703e+00
-6.857053e+00
-7.390058e+00
-7.935445e+00
-8.493306e+00
-9.064187e+00
-9.649115e+00
-1.024940e+01
-1.086581e+01
-1.149624e+01
-1.213077e+01
-1.274595e+01
-1.330659e+01
0.000000e+00
-4.830084e-02
-1.376164e-01
-2.644582e-01
-4.255129e-01
-6.180014e-01
-8.397567e-01
-1.089102e+00
-1.364684e+00
-1.665333e+00
-1.989978e+00
-2.337591e+00
-2.707159e+00
-3.097668e+00
-3.508095e+00
-3.937416e+00
-4.384605e+00
-4.848647e+00
-5.328552e+00
-5.823376e+00
-6.332248e+00
-6.854403e+00
-7.389226e+00
-7.936294e+00
-8.495406e+00
-9.066564e+00
-9.649825e+00
-1.024486e+01
-1.084993e+01
-1.146002e+01
-1.206421e+01
-1.264440e+01
-1.317848e+01
0.000000e+00
-4.609133e-02
-1.328732e-01
-2.573838e-01
-4.166408e-01
-6.079676e-01
-8.291316e-01
-1.078319e+00
-1.354041e+00
-1.655027e+00
-1.980139e+00
-2.328316e+00
-2.698528e+00
-3.089758e+00
-3.500992e+00
-3.931215e+00
-4.379411e+00
-4.844574e+00
-5.325715e+00
-5.821880e+00
-6.332166e+00
-6.855739e+00
-7.391859e+00
-7.939881e+00
-8.499232e+00
-9.069313e+00
-9.649264e+00
-1.023747e+01
-1.083071e+01
-1.142300e+01
-1.200447e+01
-1.256149e+01
-1.307895e+01
0.000000e+00
-4.537651e-02
-1.313405e-01
-2.550909e-01
-4.137524e-01
-6.046907e-01
-8.256616e-01
-1.074814e+00
-1.350620e+00
-1.651779e+00
-1.977135e+00
-2.325621e+00
-2.696207e+00
-3.087885e+00
-3.499651e+00
-3.930498e+00
-4.379420e+00
-4.845412e+00
-5.327479e+00
-5.824640e+00
-6.335938e+00
-6.860443e+00
-7.397250e+00
-7.945458e+00
-8.504107e+00
-9.072045e+00
-9.647684e+00
-1.022859e+01
-1.081089e+01
-1.138867e+01
-1.195357e+01
-1.249522e+01
-1.300253e+01
0.000000e+00
-4.606871e-02
-1.328420e-01
-2.573575e-01
-4.166342e-01
-6.079992e-01
-8.292255e-01
-1.078507e+00
-1.354366e+00
-1.655543e+00
-1.980919e+00
-2.329449e+00
-2.700125e+00
-3.091954e+00
-3.503944e+00
-3.935100e+00
-4.384420e+00
-4.850898e+00
-5.333520e+00
-5.831269e+00
-6.343118e+00
-6.868025e+00
-7.404907e+00
-7.952607e+00
-8.509811e+00
-9.074919e+00
-9.645843e+00
-1.021971e+01
-1.079254e+01
-1.135891e+01
-1.191196e+01
-1.244365e+01
-1.294552e+01
0.000000e+00
-4.825723e-02
-1.375563e-01
-2.644071e-01
-4.254995e-01
-6.180609e-01
-8.399351e-01
-1.089461e+00
-1.365304e+00
-1.666321e+00
-1.991470e+00
-2.339761e+00
-2.710220e+00
-3.101877e+00
-3.513757e+00
-3.944872e+00
-4.394223e+00
-4.860797e+00
-5.343559e+00
-5.841448e+00
-6.353363e+00
-6.878146e+00
-7.414546e+00
-7.961174e+00
-8.516423e+00
-9.078364e+00
-9.644599e+00
-1.021209e+01
-1.077700e+01
-1.133459e+01
-1.187930e+01
-1.240495e+01
-1.290505e+01
0.000000e+00
-5.223399e-02
-1.460665e-01
-2.769518e-01
-4.410040e-01
-6.353704e-01
-8.581132e-01
-1.107862e+00
-1.383530e+00
-1.684150e+00
-2.008793e+00
-2.356538e+00
-2.726453e+00
-3.117595e+00
-3.529003e+00
-3.959698e+00
-4.408682e+00
-4.874930e+00
-5.357386e+00
-5.854945e+00
-6.366438e+00
-6.890600e+00
-7.426035e+00
-7.971165e+00
-8.524159e+00
-9.082861e+00
-9.644700e+00
-1.020662e+01
-1.076506e+01
-1.131595e+01
-1.185491e+01
-1.237734e+01
-1.287851e+01
0.000000e+00
-5.859251e-02
-1.595450e-01
-2.963284e-01
-4.642604e-01
-6.606866e-01
-8.842071e-01
-1.133953e+00
-1.409167e+00
-1.709087e+00
-2.032908e+00
-2.379778e+00
-2.748808e+00
-3.139077e+00
-3.549636e+00
-3.979512e+00
-4.427706e+00
-4.893185e+00
-5.374870e+00
-5.871620e+00
-6.382209e+00
-6.905286e+00
-7.439344e+00
-7.982660e+00
-8.533248e+00
-9.088807e+00
-9.646681e+00
-1.020387e+01
-1.075707e+01
-1.130287e+01
-1.183789e+01
-1.235901e+01
-1.286332e+01
0.000000e+00
-6.857231e-02
-1.801949e-01
-3.246748e-01
-4.967524e-01
-6.948131e-01
-9.186271e-01
-1.167926e+00
-1.442299e+00
-1.741169e+00
-2.063832e+00
-2.409492e+00
-2.777291e+00
-3.166323e+00
-3.575649e+00
-4.004299e+00
-4.451271e+00
-4.915524e+00
-5.395965e+00
-5.891424e+00
-6.400633e+00
-6.922184e+00
-7.454491e+00
-7.995740e+00
-8.543848e+00
-9.096430e+00
-9.650801e+00
-1.020403e+01
-1.075305e+01
-1.129494e+01
-1.182718e+01
-1.234806e+01
-1.285670e+01
0.000000e+00
-8.505146e-02
-2.120959e-01
-3.649169e-01
-5.396337e-01
-7.382221e-01
-9.615214e-01
-1.209813e+00
-1.482922e+00
-1.780388e+00
-2.101567e+00
-2.445694e+00
-2.811925e+00
-3.199366e+00
-3.607080e+00
-4.034099e+00
-4.479419e+00
-4.941993e+00
-5.420716e+00
-5.914403e+00
-6.421759e+00
-6.941343e+00
-7.471528e+00
-8.010454e+00
-8.555993e+00
-9.105734e+00
-9.656996e+00
-1.020691e+01
-1.075260e+01
-1.129146e+01
-1.182163e+01
-1.234256e+01
-1.285554e+01
0.000000e+00
-1.155113e-01
-2.624317e-01
-4.178137e-01
-5.929012e-01
-7.906302e-01
-1.012649e+00
-1.259443e+00
-1.530933e+00
-1.826695e+00
-2.146102e+00
-2.488399e+00
-2.852750e+00
-3.238263e+00
-3.644005e+00
-4.069007e+00
-4.512264e+00
-4.972722e+00
-5.449269e+00
-5.940710e+00
-6.445737e+00
-6.962898e+00
-7.490550e+00
-8.026826e+00
-8.569601e+00
-9.116478e+00
-9.664823e+00
-1.021185e+01
-1.075480e+01
-1.129130e+01
-1.181983e+01
-1.234057e+01
-1.285653e+01
0.000000e+00
-1.856512e-01
-3.261559e-01
-4.813151e-01
-6.549114e-01
-8.511685e-01
-1.071535e+00
-1.316579e+00
-1.586224e+00
-1.880051e+00
-2.197439e+00
-2.537639e+00
-2.899822e+00
-3.283100e+00
-3.686540e+00
-4.109174e+00
-4.549992e+00
-5.007936e+00
-5.481884e+00
-5.970633e+00
-6.472865e+00
-6.987121e+00
-7.511761e+00