TITLE = "Solution"
VARIABLES = x, y, u, v, psiu, psiv, t, stress
ZONE T="structure" N=561 E=512 F=FEBLOCK ET=QUADRILATERAL VARLOCATION=([7,8]=cellcentered)
0.000000e+00
6.250000e+00
1.250000e+01
1.875000e+01
2.500000e+01
3.125000e+01
3.750000e+01
4.375000e+01
5.000000e+01
5.625000e+01
6.250000e+01
6.875000e+01
7.500000e+01
8.125000e+01
8.750000e+01
9.375000e+01
1.000000e+02
1.062500e+02
1.125000e+02
1.187500e+02
1.250000e+02
1.312500e+02
1.375000e+02
1.437500e+02
1.500000e+02
1.562500e+02
1.625000e+02
1.687500e+02
1.750000e+02
1.812500e+02
1.875000e+02
1.937500e+02
2.000000e+02
0.000000e+00
6.250000e+00
1.250000e+01
1.875000e+01
2.500000e+01
3.125000e+01
3.750000e+01
4.375000e+01
5.000000e+01
5.625000e+01
6.250000e+01
6.875000e+01
7.500000e+01
8.125000e+01
8.750000e+01
9.375000e+01
1.000000e+02
1.062500e+02
1.125000e+02
1.187500e+02
1.250000e+02
1.312500e+02
1.375000e+02
1.437500e+02
1.500000e+02
1.562500e+02
1.625000e+02
1.687500e+02
1.750000e+02
1.812500e+02
1.875000e+02
1.937500e+02
2.000000e+02
0.000000e+00
6.250000e+00
1.250000e+01
1.875000e+01
2.500000e+01
3.125000e+01
3.750000e+01
4.375000e+01
5.000000e+01
5.625000e+01
6.250000e+01
6.875000e+01
7.500000e+01
8.125000e+01
8.750000e+01
9.375000e+01
1.000000e+02
1.062500e+02
1.125000e+02
1.187500e+02
1.250000e+02
1.312500e+02
1.375000e+02
1.437500e+02
1.500000e+02
1.562500e+02
1.625000e+02
1.687500e+02
1.750000e+02
1.812500e+02
1.875000e+02
1.937500e+02
2.000000e+02
0.000000e+00
6.250000e+00
1.250000e+01
1.875000e+01
2.500000e+01
3.125000e+01
3.750000e+01
4.375000e+01
5.000000e+01
5.625000e+01
6.250000e+01
6.875000e+01
7.500000e+01
8.125000e+01
8.750000e+01
9.375000e+01
1.000000e+02
1.062500e+02
1.125000e+02
1.187500e+02
1.250000e+02
1.312500e+02
1.375000e+02
1.437500e+02
1.500000e+02
1.562500e+02
1.625000e+02
1.687500e+02
1.750000e+02
1.812500e+02
1.875000e+02
1.937500e+02
2.000000e+02
0.000000e+00
6.250000e+00
1.250000e+01
1.875000e+01
2.500000e+01
3.125000e+01
3.750000e+01
4.375000e+01
5.000000e+01
5.625000e+01
6.250000e+01
6.875000e+01
7.500000e+01
8.125000e+01
8.750000e+01
9.375000e+01
1.000000e+02
1.062500e+02
1.125000e+02
1.187500e+02
1.250000e+02
1.312500e+02
1.375000e+02
1.437500e+02
1.500000e+02
1.562500e+02
1.625000e+02
1.687500e+02
1.750000e+02
1.812500e+02
1.875000e+02
1.937500e+02
2.000000e+02
0.000000e+00
6.250000e+00
1.250000e+01
1.875000e+01
2.500000e+01
3.125000e+01
3.750000e+01
4.375000e+01
5.000000e+01
5.625000e+01
6.250000e+01
6.875000e+01
7.500000e+01
8.125000e+01
8.750000e+01
9.375000e+01
1.000000e+02
1.062500e+02
1.125000e+02
1.187500e+02
1.250000e+02
1.312500e+02
1.375000e+02
1.437500e+02
1.500000e+02
1.562500e+02
1.625000e+02
1.687500e+02
1.750000e+02
1.812500e+02
1.875000e+02
1.937500e+02
2.000000e+02
0.000000e+00
6.250000e+00
1.250000e+01
1.875000e+01
2.500000e+01
3.125000e+01
3.750000e+01
4.375000e+01
5.000000e+01
5.625000e+01
6.250000e+01
6.875000e+01
7.500000e+01
8.125000e+01
8.750000e+01
9.375000e+01
1.000000e+02
1.062500e+02
1.125000e+02
1.187500e+02
1.250000e+02
1.312500e+02
1.375000e+02
1.437500e+02
1.500000e+02
1.562500e+02
1.625000e+02
1.687500e+02
1.750000e+02
1.812500e+02
1.875000e+02
1.937500e+02
2.000000e+02
0.000000e+00
6.250000e+00
1.250000e+01
1.875000e+01
2.500000e+01
3.125000e+01
3.750000e+01
4.375000e+01
5.000000e+01
5.625000e+01
6.250000e+01
6.875000e+01
7.500000e+01
8.125000e+01
8.750000e+01
9.375000e+01
1.000000e+02
1.062500e+02
1.125000e+02
1.187500e+02
1.250000e+02
1.312500e+02
1.375000e+02
1.437500e+02
1.500000e+02
1.562500e+02
1.625000e+02
1.687500e+02
1.750000e+02
1.812500e+02
1.875000e+02
1.937500e+02
2.000000e+02
0.000000e+00
6.250000e+00
1.250000e+01
1.875000e+01
2.500000e+01
3.125000e+01
3.750000e+01
4.375000e+01
5.000000e+01
5.625000e+01
6.250000e+01
6.875000e+01
7.500000e+01
8.125000e+01
8.750000e+01
9.375000e+01
1.000000e+02
1.062500e+02
1.125000e+02
1.187500e+02
1.250000e+02
1.312500e+02
1.375000e+02
1.437500e+02
1.500000e+02
1.562500e+02
1.625000e+02
1.687500e+02
1.750000e+02
1.812500e+02
1.875000e+02
1.937500e+02
2.000000e+02
0.000000e+00
6.250000e+00
1.250000e+01
1.875000e+01
2.500000e+01
3.125000e+01
3.750000e+01
4.375000e+01
5.000000e+01
5.625000e+01
6.250000e+01
6.875000e+01
7.500000e+01
8.125000e+01
8.750000e+01
9.375000e+01
1.000000e+02
1.062500e+02
1.125000e+02
1.187500e+02
1.250000e+02
1.312500e+02
1.375000e+02
1.437500e+02
1.500000e+02
1.562500e+02
1.625000e+02
1.687500e+02
1.750000e+02
1.812500e+02
1.875000e+02
1.937500e+02
2.000000e+02
0.000000e+00
6.250000e+00
1.250000e+01
1.875000e+01
2.500000e+01
3.125000e+01
3.750000e+01
4.375000e+01
5.000000e+01
5.625000e+01
6.250000e+01
6.875000e+01
7.500000e+01
8.125000e+01
8.750000e+01
9.375000e+01
1.000000e+02
1.062500e+02
1.125000e+02
1.187500e+02
1.250000e+02
1.312500e+02
1.375000e+02
1.437500e+02
1.500000e+02
1.562500e+02
1.625000e+02
1.687500e+02
1.750000e+02
1.812500e+02
1.875000e+02
1.937500e+02
2.000000e+02
0.000000e+00
6.250000e+00
1.250000e+01
1.875000e+01
2.500000e+01
3.125000e+01
3.750000e+01
4.375000e+01
5.000000e+01
5.625000e+01
6.250000e+01
6.875000e+01
7.500000e+01
8.125000e+01
8.750000e+01
9.375000e+01
1.000000e+02
1.062500e+02
1.125000e+02
1.187500e+02
1.250000e+02
1.312500e+02
1.375000e+02
1.437500e+02
1.500000e+02
1.562500e+02
1.625000e+02
1.687500e+02
1.750000e+02
1.812500e+02
1.875000e+02
1.937500e+02
2.000000e+02
0.000000e+00
6.250000e+00
1.250000e+01
1.875000e+01
2.500000e+01
3.125000e+01
3.750000e+01
4.375000e+01
5.000000e+01
5.625000e+01
6.250000e+01
6.875000e+01
7.500000e+01
8.125000e+01
8.750000e+01
9.375000e+01
1.000000e+02
1.062500e+02
1.125000e+02
1.187500e+02
1.250000e+02
1.312500e+02
1.375000e+02
1.437500e+02
1.500000e+02
1.562500e+02
1.625000e+02
1.687500e+02
1.750000e+02
1.812500e+02
1.875000e+02
1.937500e+02
2.000000e+02
0.000000e+00
6.250000e+00
1.250000e+01
1.875000e+01
2.500000e+01
3.125000e+01
3.750000e+01
4.375000e+01
5.000000e+01
5.625000e+01
6.250000e+01
6.875000e+01
7.500000e+01
8.125000e+01
8.750000e+01
9.375000e+01
1.000000e+02
1.062500e+02
1.125000e+02
1.187500e+02
1.250000e+02
1.312500e+02
1.375000e+02
1.437500e+02
1.500000e+02
1.562500e+02
1.625000e+02
1.687500e+02
1.750000e+02
1.812500e+02
1.875000e+02
1.937500e+02
2.000000e+02
0.000000e+00
6.250000e+00
1.250000e+01
1.875000e+01
2.500000e+01
3.125000e+01
3.750000e+01
4.375000e+01
5.000000e+01
5.625000e+01
6.250000e+01
6.875000e+01
7.500000e+01
8.125000e+01
8.750000e+01
9.375000e+01
1.000000e+02
1.062500e+02
1.125000e+02
1.187500e+02
1.250000e+02
1.312500e+02
1.375000e+02
1.437500e+02
1.500000e+02
1.562500e+02
1.625000e+02
1.687500e+02
1.750000e+02
1.812500e+02
1.875000e+02
1.937500e+02
2.000000e+02
0.000000e+00
6.250000e+00
1.250000e+01
1.875000e+01
2.500000e+01
3.125000e+01
3.750000e+01
4.375000e+01
5.000000e+01
5.625000e+01
6.250000e+01
6.875000e+01
7.500000e+01
8.125000e+01
8.750000e+01
9.375000e+01
1.000000e+02
1.062500e+02
1.125000e+02
1.187500e+02
1.250000e+02
1.312500e+02
1.375000e+02
1.437500e+02
1.500000e+02
1.562500e+02
1.625000e+02
1.687500e+02
1.750000e+02
1.812500e+02
1.875000e+02
1.937500e+02
2.000000e+02
0.000000e+00
6.250000e+00
1.250000e+01
1.875000e+01
2.500000e+01
3.125000e+01
3.750000e+01
4.375000e+01
5.000000e+01
5.625000e+01
6.250000e+01
6.875000e+01
7.500000e+01
8.125000e+01
8.750000e+01
9.375000e+01
1.000000e+02
1.062500e+02
1.125000e+02
1.187500e+02
1.250000e+02
1.312500e+02
1.375000e+02
1.437500e+02
1.500000e+02
1.562500e+02
1.625000e+02
1.687500e+02
1.750000e+02
1.812500e+02
1.875000e+02
1.937500e+02
2.000000e+02
0.000000e+00
0.000000e+00
0.000000e+00
0.000000e+00
0.000000e+00
0.000000e+00
0.000000e+00
0.000000e+00
0.000000e+00
0.000000e+00
0.000000e+00
0.000000e+00
0.000000e+00
0.000000e+00
0.000000e+00
0.000000e+00
0.000000e+00
0.000000e+00
0.000000e+00
0.000000e+00
0.000000e+00
0.000000e+00
0.000000e+00
0.000000e+00
0.000000e+00
0.000000e+00
0.000000e+00
0.000000e+00
0.000000e+00
0.000000e+00
0.000000e+00
0.000000e+00
0.000000e+00
6.250000e+00
6.250000e+00
6.250000e+00
6.250000e+00
6.250000e+00
6.250000e+00
6.250000e+00
6.250000e+00
6.250000e+00
6.250000e+00
6.250000e+00
6.250000e+00
6.250000e+00
6.250000e+00
6.250000e+00
6.250000e+00
6.250000e+00
6.250000e+00
6.250000e+00
6.250000e+00
6.250000e+00
6.250000e+00
6.250000e+00
6.250000e+00
6.250000e+00
6.250000e+00
6.250000e+00
6.250000e+00
6.250000e+00
6.250000e+00
6.250000e+00
6.250000e+00
6.250000e+00
1.250000e+01
1.250000e+01
1.250000e+01
1.250000e+01
1.250000e+01
1.250000e+01
1.250000e+01
1.250000e+01
1.250000e+01
1.250000e+01
1.250000e+01
1.250000e+01
1.250000e+01
1.250000e+01
1.250000e+01
1.250000e+01
1.250000e+01
1.250000e+01
1.250000e+01
1.250000e+01
1.250000e+01
1.250000e+01
1.250000e+01
1.250000e+01
1.250000e+01
1.250000e+01
1.250000e+01
1.250000e+01
1.250000e+01
1.250000e+01
1.250000e+01
1.250000e+01
1.250000e+01
1.875000e+01
1.875000e+01
1.875000e+01
1.875000e+01
1.875000e+01
1.875000e+01
1.875000e+01
1.875000e+01
1.875000e+01
1.875000e+01
1.875000e+01
1.875000e+01
1.875000e+01
1.875000e+01
1.875000e+01
1.875000e+01
1.875000e+01
1.875000e+01
1.875000e+01
1.875000e+01
1.875000e+01
1.875000e+01
1.875000e+01
1.875000e+01
1.875000e+01
1.875000e+01
1.875000e+01
1.875000e+01
1.875000e+01
1.875000e+01
1.875000e+01
1.875000e+01
1.875000e+01
2.500000e+01
2.500000e+01
2.500000e+01
2.500000e+01
2.500000e+01
2.500000e+01
2.500000e+01
2.500000e+01
2.500000e+01
2.500000e+01
2.500000e+01
2.500000e+01
2.500000e+01
2.500000e+01
2.500000e+01
2.500000e+01
2.500000e+01
2.500000e+01
2.500000e+01
2.500000e+01
2.500000e+01
2.500000e+01
2.500000e+01
2.500000e+01
2.500000e+01
2.500000e+01
2.500000e+01
2.500000e+01
2.500000e+01
2.500000e+01
2.500000e+01
2.500000e+01
2.500000e+01
3.125000e+01
3.125000e+01
3.125000e+01
3.125000e+01
3.125000e+01
3.125000e+01
3.125000e+01
3.125000e+01
3.125000e+01
3.125000e+01
3.125000e+01
3.125000e+01
3.125000e+01
3.125000e+01
3.125000e+01
3.125000e+01
3.125000e+01
3.125000e+01
3.125000e+01
3.125000e+01
3.125000e+01
3.125000e+01
3.125000e+01
3.125000e+01
3.125000e+01
3.125000e+01
3.125000e+01
3.125000e+01
3.125000e+01
3.125000e+01
3.125000e+01
3.125000e+01
3.125000e+01
3.750000e+01
3.750000e+01
3.750000e+01
3.750000e+01
3.750000e+01
3.750000e+01
3.750000e+01
3.750000e+01
3.750000e+01
3.750000e+01
3.750000e+01
3.750000e+01
3.750000e+01
3.750000e+01
3.750000e+01
3.750000e+01
3.750000e+01
3.750000e+01
3.750000e+01
3.750000e+01
3.750000e+01
3.750000e+01
3.750000e+01
3.750000e+01
3.750000e+01
3.750000e+01
3.750000e+01
3.750000e+01
3.750000e+01
3.750000e+01
3.750000e+01
3.750000e+01
3.750000e+01
4.375000e+01
4.375000e+01
4.375000e+01
4.375000e+01
4.375000e+01
4.375000e+01
4.375000e+01
4.375000e+01
4.375000e+01
4.375000e+01
4.375000e+01
4.375000e+01
4.375000e+01
4.375000e+01
4.375000e+01
4.375000e+01
4.375000e+01
4.375000e+01
4.375000e+01
4.375000e+01
4.375000e+01
4.375000e+01
4.375000e+01
4.375000e+01
4.375000e+01
4.375000e+01
4.375000e+01
4.375000e+01
4.375000e+01
4.375000e+01
4.375000e+01
4.375000e+01
4.375000e+01
5.000000e+01
5.000000e+01
5.000000e+01
5.000000e+01
5.000000e+01
5.000000e+01
5.000000e+01
5.000000e+01
5.000000e+01
5.000000e+01
5.000000e+01
5.000000e+01
5.000000e+01
5.000000e+01
5.000000e+01
5.000000e+01
5.000000e+01
5.000000e+01
5.000000e+01
5.000000e+01
5.000000e+01
5.000000e+01
5.000000e+01
5.000000e+01
5.000000e+01
5.000000e+01
5.000000e+01
5.000000e+01
5.000000e+01
5.000000e+01
5.000000e+01
5.000000e+01
5.000000e+01
5.625000e+01
5.625000e+01
5.625000e+01
5.625000e+01
5.625000e+01
5.625000e+01
5.625000e+01
5.625000e+01
5.625000e+01
5.625000e+01
5.625000e+01
5.625000e+01
5.625000e+01
5.625000e+01
5.625000e+01
5.625000e+01
5.625000e+01
5.625000e+01
5.625000e+01
5.625000e+01
5.625000e+01
5.625000e+01
5.625000e+01
5.625000e+01
5.625000e+01
5.625000e+01
5.625000e+01
5.625000e+01
5.625000e+01
5.625000e+01
5.625000e+01
5.625000e+01
5.625000e+01
6.250000e+01
6.250000e+01
6.250000e+01
6.250000e+01
6.250000e+01
6.250000e+01
6.250000e+01
6.250000e+01
6.250000e+01
6.250000e+01
6.250000e+01
6.250000e+01
6.250000e+01
6.250000e+01
6.250000e+01
6.250000e+01
6.250000e+01
6.250000e+01
6.250000e+01
6.250000e+01
6.250000e+01
6.250000e+01
6.250000e+01
6.250000e+01
6.250000e+01
6.250000e+01
6.250000e+01
6.250000e+01
6.250000e+01
6.250000e+01
6.250000e+01
6.250000e+01
6.250000e+01
6.875000e+01
6.875000e+01
6.875000e+01
6.875000e+01
6.875000e+01
6.875000e+01
6.875000e+01
6.875000e+01
6.875000e+01
6.875000e+01
6.875000e+01
6.875000e+01
6.875000e+01
6.875000e+01
6.875000e+01
6.875000e+01
6.875000e+01
6.875000e+01
6.875000e+01
6.875000e+01
6.875000e+01
6.875000e+01
6.875000e+01
6.875000e+01
6.875000e+01
6.875000e+01
6.875000e+01
6.875000e+01
6.875000e+01
6.875000e+01
6.875000e+01
6.875000e+01
6.875000e+01
7.500000e+01
7.500000e+01
7.500000e+01
7.500000e+01
7.500000e+01
7.500000e+01
7.500000e+01
7.500000e+01
7.500000e+01
7.500000e+01
7.500000e+01
7.500000e+01
7.500000e+01
7.500000e+01
7.500000e+01
7.500000e+01
7.500000e+01
7.500000e+01
7.500000e+01
7.500000e+01
7.500000e+01
7.500000e+01
7.500000e+01
7.500000e+01
7.500000e+01
7.500000e+01
7.500000e+01
7.500000e+01
7.500000e+01
7.500000e+01
7.500000e+01
7.500000e+01
7.500000e+01
8.125000e+01
8.125000e+01
8.125000e+01
8.125000e+01
8.125000e+01
8.125000e+01
8.125000e+01
8.125000e+01
8.125000e+01
8.125000e+01
8.125000e+01
8.125000e+01
8.125000e+01
8.125000e+01
8.125000e+01
8.125000e+01
8.125000e+01
8.125000e+01
8.125000e+01
8.125000e+01
8.125000e+01
8.125000e+01
8.125000e+01
8.125000e+01
8.125000e+01
8.125000e+01
8.125000e+01
8.125000e+01
8.125000e+01
8.125000e+01
8.125000e+01
8.125000e+01
8.125000e+01
8.750000e+01
8.750000e+01
8.750000e+01
8.750000e+01
8.750000e+01
8.750000e+01
8.750000e+01
8.750000e+01
8.750000e+01
8.750000e+01
8.750000e+01
8.750000e+01
8.750000e+01
8.750000e+01
8.750000e+01
8.750000e+01
8.750000e+01
8.750000e+01
8.750000e+01
8.750000e+01
8.750000e+01
8.750000e+01
8.750000e+01
8.750000e+01
8.750000e+01
8.750000e+01
8.750000e+01
8.750000e+01
8.750000e+01
8.750000e+01
8.750000e+01
8.750000e+01
8.750000e+01
9.375000e+01
9.375000e+01
9.375000e+01
9.375000e+01
9.375000e+01
9.375000e+01
9.375000e+01
9.375000e+01
9.375000e+01
9.375000e+01
9.375000e+01
9.375000e+01
9.375000e+01
9.375000e+01
9.375000e+01
9.375000e+01
9.375000e+01
9.375000e+01
9.375000e+01
9.375000e+01
9.375000e+01
9.375000e+01
9.375000e+01
9.375000e+01
9.375000e+01
9.375000e+01
9.375000e+01
9.375000e+01
9.375000e+01
9.375000e+01
9.375000e+01
9.375000e+01
9.375000e+01
1.000000e+02
1.000000e+02
1.000000e+02
1.000000e+02
1.000000e+02
1.000000e+02
1.000000e+02
1.000000e+02
1.000000e+02
1.000000e+02
1.000000e+02
1.000000e+02
1.000000e+02
1.000000e+02
1.000000e+02
1.000000e+02
1.000000e+02
1.000000e+02
1.000000e+02
1.000000e+02
1.000000e+02
1.000000e+02
1.000000e+02
1.000000e+02
1.000000e+02
1.000000e+02
1.000000e+02
1.000000e+02
1.000000e+02
1.000000e+02
1.000000e+02
1.000000e+02
1.000000e+02
0.000000e+00
-8.819986e-02
-1.600265e-01
-2.265645e-01
-2.904239e-01
-3.520912e-01
-4.116899e-01
-4.692145e-01
-5.246285e-01
-5.778915e-01
-6.289701e-01
-6.778411e-01
-7.244925e-01
-7.689232e-01
-8.111436e-01
-8.511757e-01
-8.890556e-01
-9.248350e-01
-9.585861e-01
-9.904058e-01
-1.020423e+00
-1.048810e+00
-1.075792e+00
-1.101669e+00
-1.126843e+00
-1.151861e+00
-1.177480e+00
-1.204784e+00
-1.235358e+00
-1.271538e+00
-1.316354e+00
-1.369761e+00
-1.402355e+00
0.000000e+00
-5.913501e-02
-1.230365e-01
-1.832879e-01
-2.405561e-01
-2.953862e-01
-3.480672e-01
-3.987260e-01
-4.474128e-01
-4.941438e-01
-5.389220e-01
-5.817474e-01
-6.226219e-01
-6.615521e-01
-6.985508e-01
-7.336385e-01
-7.668451e-01
-7.982115e-01
-8.277921e-01
-8.556573e-01
-8.818973e-01
-9.066255e-01
-9.299827e-01
-9.521412e-01
-9.733071e-01
-9.937172e-01
-1.013622e+00
-1.033226e+00
-1.052530e+00
-1.070904e+00
-1.086215e+00
-1.095166e+00
-1.107627e+00
0.000000e+00
-4.690566e-02
-9.656659e-02
-1.471300e-01
-1.962633e-01
-2.435871e-01
-2.890708e-01
-3.327574e-01
-3.746854e-01
-4.148810e-01
-4.533612e-01
-4.901379e-01
-5.252213e-01
-5.586215e-01
-5.903510e-01
-6.204251e-01
-6.488632e-01
-6.756899e-01
-7.009353e-01
-7.246353e-01
-7.468314e-01
-7.675684e-01
-7.868906e-01
-8.048322e-01
-8.214002e-01
-8.365417e-01
-8.500832e-01
-8.616264e-01
-8.703905e-01
-8.751098e-01
-8.746963e-01
-8.720466e-01
-8.865980e-01
0.000000e+00
-3.721547e-02
-7.648634e-02
-1.168328e-01
-1.570856e-01
-1.963643e-01
-2.343323e-01
-2.708689e-01
-3.059412e-01
-3.395478e-01
-3.716972e-01
-4.024001e-01
-4.316667e-01
-4.595062e-01
-4.859268e-01
-5.109359e-01
-5.345403e-01
-5.567460e-01
-5.775575e-01
-5.969761e-01
-6.149968e-01
-6.316028e-01
-6.467577e-01
-6.603907e-01
-6.723759e-01
-6.825019e-01
-6.904334e-01
-6.956859e-01
-6.976915e-01
-6.962030e-01
-6.925874e-01
-6.923716e-01
-7.062355e-01
0.000000e+00
-2.888455e-02
-5.914575e-02
-9.037400e-02
-1.218565e-01
-1.529535e-01
-1.832358e-01
-2.124862e-01
-2.406058e-01
-2.675566e-01
-2.933284e-01
-3.179226e-01
-3.413438e-01
-3.635958e-01
-3.846801e-01
-4.045947e-01
-4.233334e-01
-4.408849e-01
-4.572311e-01
-4.723444e-01
-4.861843e-01
-4.986916e-01
-5.097808e-01
-5.193301e-01
-5.271706e-01
-5.330806e-01
-5.367996e-01
-5.381043e-01
-5.370341e-01
-5.344155e-01
-5.327166e-01
-5.366398e-01
-5.484665e-01
0.000000e+00
-2.122857e-02
-4.336670e-02
-6.621628e-02
-8.938261e-02
-1.124333e-01
-1.350251e-01
-1.569348e-01
-1.780398e-01
-1.982805e-01
-2.176318e-01
-2.360847e-01
-2.536360e-01
-2.702826e-01
-2.860181e-01
-3.008313e-01
-3.147045e-01
-3.276125e-01
-3.395202e-01
-3.503812e-01
-3.601341e-01
-3.686999e-01
-3.759786e-01
-3.818479e-01
-3.861686e-01
-3.888050e-01
-3.896798e-01
-3.888949e-01
-3.869603e-01
-3.851196e-01
-3.855677e-01
-3.905691e-01
-4.003550e-01
0.000000e+00
-1.397101e-02
-2.849467e-02
-4.347918e-02
-5.871094e-02
-7.393360e-02
-8.891761e-02
-1.034956e-01
-1.175629e-01
-1.310615e-01
-1.439624e-01
-1.562508e-01
-1.679171e-01
-1.789518e-01
-1.893414e-01
-1.990669e-01
-2.081021e-01
-2.164122e-01
-2.239527e-01
-2.306679e-01
-2.364905e-01
-2.413413e-01
-2.451324e-01
-2.477742e-01
-2.491937e-01
-2.493698e-01
-2.483993e-01
-2.466034e-01
-2.446655e-01
-2.437260e-01
-2.451916e-01
-2.500610e-01
-2.579605e-01
0.000000e+00
-6.939413e-03
-1.414120e-02
-2.156838e-02
-2.912717e-02
-3.669820e-02
-4.416807e-02
-5.144805e-02
-5.847817e-02
-6.522180e-02
-7.165721e-02
-7.777004e-02
-8.354774e-02
-8.897598e-02
-9.403626e-02
-9.870426e-02
-1.029486e-01
-1.067302e-01
-1.100015e-01
-1.127067e-01
-1.147833e-01
-1.161655e-01
-1.167917e-01
-1.166175e-01
-1.156396e-01
-1.139326e-01
-1.117031e-01
-1.093538e-01
-1.075301e-01
-1.070732e-01
-1.087927e-01
-1.130406e-01
-1.193087e-01
0.000000e+00
-1.120095e-05
-2.428628e-05
-3.853117e-05
-5.318643e-05
-6.724195e-05
-7.917543e-05
-8.667360e-05
-8.630626e-05
-7.313411e-05
-4.023509e-05
2.185872e-05
1.258131e-04
2.882179e-04
5.303533e-04
8.789284e-04
1.366680e-03
2.032643e-03
2.921803e-03
4.083686e-03
5.569209e-03
7.424846e-03
9.682789e-03
1.234549e-02
1.536306e-02
1.860334e-02
2.181823e-02
2.461917e-02
2.648894e-02
2.686815e-02
2.534148e-02
2.188398e-02
1.704155e-02
0.000000e+00
6.918316e-03
1.409536e-02
2.149551e-02
2.902635e-02
3.657037e-02
4.401700e-02
5.128180e-02
5.831122e-02
6.507785e-02
7.157295e-02
7.779991e-02
8.377001e-02
8.950017e-02
9.501203e-02
1.003317e-01
1.054901e-01
1.105220e-01
1.154658e-01
1.203612e-01
1.252446e-01
1.301429e-01
1.350632e-01
1.399780e-01
1.448076e-01
1.493994e-01
1.535132e-01
1.568220e-01
1.589480e-01
1.595499e-01
1.584598e-01
1.558333e-01
1.522393e-01
0.000000e+00
1.395377e-02
2.845696e-02
4.341881e-02
5.862676e-02
7.382588e-02
8.878880e-02
1.033516e-01
1.174146e-01
1.309274e-01
1.438713e-01
1.562459e-01
1.680612e-01
1.793330e-01
1.900813e-01
2.003287e-01
2.101010e-01
2.194261e-01
2.283328e-01
2.368487e-01
2.449959e-01
2.527847e-01
2.602046e-01
2.672126e-01
2.737208e-01
2.795848e-01
2.846007e-01
2.885182e-01
2.910823e-01
2.921076e-01
2.915804e-01
2.897630e-01
2.872546e-01
0.000000e+00
2.121758e-02
4.334220e-02
6.617638e-02
8.932597e-02
1.123594e-01
1.349346e-01
1.568306e-01
1.779280e-01
1.981718e-01
2.175435e-01
2.360434e-01
2.536809e-01
2.704699e-01
2.864259e-01
3.015660e-01
3.159079e-01
3.294698e-01
3.422691e-01
3.543206e-01
3.656326e-01
3.762026e-01
3.860101e-01
3.950087e-01
4.031190e-01
4.102232e-01
4.161680e-01
4.207819e-01
4.239108e-01
4.254786e-01
4.255668e-01
4.245007e-01
4.229153e-01
0.000000e+00
2.888181e-02
5.913891e-02
9.036175e-02
1.218376e-01
1.529268e-01
1.832007e-01
2.124426e-01
2.405546e-01
2.675000e-01
2.932708e-01
3.178715e-01
3.413108e-01
3.635985e-01
3.847439e-01
4.047556e-01
4.236411e-01
4.414066e-01
4.580563e-01
4.735911e-01
4.880061e-01
5.012883e-01
5.134119e-01
5.243351e-01
5.339965e-01
5.423150e-01
5.491954e-01
5.545428e-01
5.582903e-01
5.604434e-01
5.611418e-01
5.607415e-01
5.599063e-01
0.000000e+00
3.722238e-02
7.650038e-02
1.168537e-01
1.571128e-01
1.963969e-01
2.343693e-01
2.709084e-01
3.059802e-01
3.395815e-01
3.717183e-01
4.023979e-01
4.316260e-01
4.594057e-01
4.857375e-01
5.106192e-01
5.340462e-01
5.560106e-01
5.765017e-01
5.955048e-01
6.130009e-01
6.289654e-01
6.433681e-01
6.561726e-01
6.673380e-01
6.768225e-01
6.845906e-01
6.906248e-01
6.949434e-01
6.976272e-01
6.988617e-01
6.990089e-01
6.987318e-01
0.000000e+00
4.692254e-02
9.660261e-02
1.471864e-01
1.963412e-01
2.436873e-01
2.891936e-01
3.329014e-01
3.748464e-01
4.150508e-01
4.535252e-01
4.902726e-01
5.252905e-01
5.585721e-01
5.901070e-01
6.198809e-01
6.478753e-01
6.740675e-01
6.984295e-01
7.209291e-01
7.415291e-01
7.601896e-01
7.768700e-01
7.915328e-01
8.041504e-01
8.147130e-01
8.232397e-01
8.297907e-01
8.344791e-01
8.374820e-01
8.390538e-01
8.395657e-01
8.396268e-01
0.000000e+00
5.916034e-02
1.230918e-01
1.833769e-01
2.406832e-01
2.955556e-01
3.482828e-01
3.989898e-01
4.477237e-01
4.944956e-01
5.393002e-01
5.821249e-01
6.229538e-01
6.617679e-01
6.985451e-01
7.332591e-01
7.658784e-01
7.963644e-01
8.246714e-01
8.507458e-01
8.745276e-01
8.959526e-01
9.149576e-01
9.314882e-01
9.455099e-01
9.570235e-01
9.660835e-01
9.728174e-01
9.774432e-01
9.802777e-01
9.817257e-01
9.822508e-01
9.823794e-01
0.000000e+00
8.822759e-02
1.600912e-01
2.266754e-01
2.905898e-01
3.523213e-01
4.119935e-01
4.696005e-01
5.251040e-01
5.784593e-01
6.296255e-01
6.785666e-01
7.252512e-01
7.696495e-01
8.117303e-01
8.514584e-01
8.887915e-01
9.236776e-01
9.560528e-01
9.858405e-01
1.012951e+00
1.037284e+00
1.058736e+00
1.077208e+00
1.092623e+00
1.104952e+00
1.114237e+00
1.120633e+00
1.124446e+00
1.126164e+00
1.126476e+00
1.126217e+00
1.126072e+00
0.000000e+00
-5.450590e-02
-9.512564e-02
-1.394525e-01
-1.888136e-01
-2.445719e-01
-3.071150e-01
-3.765516e-01
-4.528127e-01
-5.357348e-01
-6.250982e-01
-7.206501e-01
-8.221179e-01
-9.292178e-01
-1.041660e+00
-1.159153e+00
-1.281407e+00
-1.408137e+00
-1.539067e+00
-1.673939e+00
-1.812517e+00
-1.954605e+00
-2.100061e+00
-2.248828e+00
-2.400982e+00
-2.556804e+00
-2.716913e+00
-2.882518e+00
-3.055931e+00
-3.241730e+00
-3.449791e+00
-3.703417e+00
-4.053808e+00
0.000000e+00
-3.387342e-02
-7.639157e-02
-1.210171e-01
-1.710657e-01
-2.274294e-01
-2.905800e-01
-3.606241e-01
-4.374987e-01
-5.210405e-01
-6.110284e-01
-7.072075e-01
-8.093030e-01
-9.170287e-01
-1.030092e+00
-1.148199e+00
-1.271055e+00
-1.398371e+00
-1.529868e+00
-1.665279e+00
-1.804361e+00
-1.946907e+00
-2.092762e+00
-2.241855e+00
-2.394239e+00
-2.550170e+00
-2.710235e+00
-2.875607e+00
-3.048547e+00
-3.233557e+00
-3.440011e+00
-3.687991e+00
-4.015346e+00
0.000000e+00
-2.488209e-02
-6.158685e-02
-1.056034e-01
-1.557391e-01
-2.125179e-01
-2.761666e-01
-3.467443e-01
-4.241663e-01
-5.082613e-01
-5.988048e-01
-6.955397e-01
-7.981899e-01
-9.064682e-01
-1.020081e+00
-1.138733e+00
-1.262129e+00
-1.389978e+00
-1.521997e+00
-1.657920e+00
-1.797500e+00
-1.940529e+00
-2.086851e+00
-2.236398e+00
-2.389229e+00
-2.545614e+00
-2.706167e+00
-2.872089e+00
-3.045616e+00
-3.230800e+00
-3.434569e+00
-3.665103e+00
-3.920833e+00
0.000000e+00
-1.992479e-02
-5.215200e-02
-9.382131e-02
-1.433125e-01
-2.000733e-01
-2.639941e-01
-3.349670e-01
-4.128394e-01
-4.974086e-01
-5.884356e-01
-6.856573e-01
-7.887950e-01
-8.975609e-01
-1.011662e+00
-1.130803e+00
-1.254691e+00
-1.383034e+00
-1.515554e+00
-1.651983e+00
-1.792080e+00
-1.935642e+00
-2.082520e+00
-2.232656e+00
-2.386125e+00
-2.543211e+00
-2.704521e+00
-2.871161e+00
-3.044962e+00
-3.228593e+00
-3.424612e+00
-3.631351e+00
-3.823802e+00
0.000000e+00
-1.685998e-02
-4.598206e-02
-8.545472e-02
-1.338176e-01
-1.902061e-01
-2.541507e-01
-3.253540e-01
-4.035590e-01
-4.885100e-01
-5.799415e-01
-6.775780e-01
-7.811360e-01
-8.903267e-01
-1.004858e+00
-1.124438e+00
-1.248774e+00
-1.377580e+00
-1.510580e+00
-1.647512e+00
-1.788140e+00
-1.932265e+00
-2.079747e+00
-2.230531e+00
-2.384687e+00
-2.542463e+00
-2.704355e+00
-2.871158e+00
-3.043925e+00
-3.223504e+00
-3.409039e+00
-3.593716e+00
-3.761321e+00
0.000000e+00
-1.490983e-02
-4.193386e-02
-7.969727e-02
-1.269714e-01
-1.828316e-01
-2.466370e-01
-3.179314e-01
-3.963553e-01
-4.815924e-01
-5.733443e-01
-6.713193e-01
-7.752270e-01
-8.847772e-01
-9.996793e-01
-1.119644e+00
-1.244383e+00
-1.373614e+00
-1.507066e+00
-1.644480e+00
-1.785624e+00
-1.930302e+00
-2.078367e+00
-2.229749e+00
-2.384474e+00
-2.542692e+00
-2.704681e+00
-2.870791e+00
-3.041214e+00
-3.215377e+00
-3.390624e+00
-3.560694e+00
-3.716137e+00
0.000000e+00
-1.369782e-02
-3.937440e-02
-7.595482e-02
-1.223850e-01
-1.777638e-01
-2.413796e-01
-3.126828e-01
-3.912360e-01
-4.766712e-01
-5.686594e-01
-6.668929e-01
-7.710750e-01
-8.809140e-01
-9.961212e-01
-1.116410e+00
-1.241496e+00
-1.371103e+00
-1.504960e+00
-1.642811e+00
-1.784423e+00
-1.929589e+00
-2.078146e+00
-2.229982e+00
-2.385045e+00
-2.543336e+00
-2.704871e+00
-2.869556e+00
-3.036917e+00
-3.205591e+00
-3.372661e+00
-3.533308e+00
-3.681630e+00
0.000000e+00
-1.303181e-02
-3.795421e-02
-7.384589e-02
-1.197551e-01
-1.748119e-01
-2.382817e-01
-3.095691e-01
-3.881922e-01
-4.737498e-01
-5.658928e-01
-6.643027e-01
-7.686787e-01
-8.787290e-01
-9.941671e-01
-1.114709e+00
-1.240076e+00
-1.369991e+00
-1.504185e+00
-1.642402e+00
-1.784396e+00
-1.929946e+00
-2.078854e+00
-2.230946e+00
-2.386072e+00
-2.544072e+00
-2.704711e+00
-2.867554e+00
-3.031730e+00
-3.195626e+00
-3.356607e+00
-3.511051e+00
-3.654930e+00
0.000000e+00
-1.281722e-02
-3.749602e-02
-7.316236e-02
-1.188980e-01
-1.738457e-01
-2.372669e-01
-3.085532e-01
-3.872094e-01
-4.728242e-01
-5.650427e-01
-6.635443e-01
-7.680283e-01
-8.782051e-01
-9.937909e-01
-1.114505e+00
-1.240070e+00
-1.370210e+00
-1.504655e+00
-1.643141e+00
-1.785408e+00
-1.931209e+00
-2.080300e+00
-2.232443e+00
-2.387378e+00
-2.544799e+00
-2.704276e+00
-2.865155e+00
-3.026394e+00
-3.186406e+00
-3.342963e+00
-3.493300e+00
-3.634467e+00
0.000000e+00
-1.302560e-02
-3.794560e-02
-7.383847e-02
-1.197529e-01
-1.748197e-01
-2.383062e-01
-3.096188e-01
-3.882786e-01
-4.738879e-01
-5.661018e-01
-6.646068e-01
-7.691079e-01
-8.793194e-01
-9.949608e-01
-1.115754e+00
-1.241423e+00
-1.371691e+00
-1.506283e+00
-1.644925e+00
-1.787339e+00
-1.933246e+00
-2.082356e+00
-2.234360e+00
-2.388905e+00
-2.545563e+00
-2.703772e+00
-2.862762e+00
-3.021462e+00
-3.178426e+00
-3.331818e+00
-3.479500e+00
-3.619217e+00
0.000000e+00
-1.368591e-02
-3.935787e-02
-7.594052e-02
-1.223805e-01
-1.777786e-01
-2.414262e-01
-3.127776e-01
-3.914011e-01
-4.769352e-01
-5.690594e-01
-6.674755e-01
-7.718976e-01
-8.820461e-01
-9.976439e-01
-1.118415e+00
-1.244083e+00
-1.374370e+00
-1.508994e+00
-1.647668e+00
-1.790096e+00
-1.935967e+00
-2.084945e+00
-2.236658e+00
-2.390676e+00
-2.546481e+00
-2.703431e+00
-2.860711e+00
-3.017292e+00
-3.171909e+00
-3.323078e+00
-3.469148e+00
-3.608391e+00
0.000000e+00
-1.489327e-02
-4.191088e-02
-7.967729e-02
-1.269649e-01
-1.828519e-01
-2.467014e-01
-3.180631e-01
-3.965851e-01
-4.819606e-01
-5.739026e-01
-6.721329e-01
-7.763767e-01
-8.863603e-01
-1.001810e+00
-1.122451e+00
-1.248006e+00
-1.378195e+00
-1.512728e+00
-1.651306e+00
-1.793615e+00
-1.939315e+00
-2.088030e+00
-2.239338e+00
-2.392748e+00
-2.547683e+00
-2.703453e+00
-2.859241e+00
-3.014090e+00
-3.166919e+00
-3.316553e+00
-3.461765e+00
-3.601294e+00
0.000000e+00
-1.684047e-02
-4.595501e-02
-8.543118e-02
-1.338101e-01
-1.902306e-01
-2.542283e-01
-3.255129e-01
-4.038365e-01
-4.889548e-01
-5.806162e-01
-6.785617e-01
-7.825264e-01
-8.922418e-01
-1.007436e+00
-1.127836e+00
-1.253162e+00
-1.383130e+00
-1.517445e+00
-1.655798e+00
-1.797858e+00
-1.943261e+00
-2.091602e+00
-2.242421e+00
-2.395183e+00
-2.549273e+00
-2.703980e+00
-2.858499e+00
-3.011950e+00
-3.163416e+00
-3.311998e+00
-3.456862e+00
-3.597233e+00
0.000000e+00
-1.990474e-02
-5.212423e-02
-9.379738e-02
-1.433061e-01
-2.001021e-01
-2.640815e-01
-3.351444e-01
-4.131480e-01
-4.979022e-01
-5.891835e-01
-6.867466e-01
-7.903336e-01
-8.996788e-01
-1.014512e+00
-1.134557e+00
-1.259536e+00
-1.389159e+00
-1.523129e+00
-1.661127e+00
-1.802809e+00
-1.947798e+00
-2.095666e+00
-2.245927e+00
-2.398022e+00
-2.551314e+00
-2.705081e+00
-2.858539e+00
-3.010871e+00
-3.161292e+00
-3.309134e+00
-3.453935e+00
-3.595463e+00
0.000000e+00
-2.486462e-02
-6.156253e-02
-1.055832e-01
-1.557372e-01
-2.125529e-01
-2.762632e-01
-3.469351e-01
-4.244942e-01
-5.087821e-01
-5.995899e-01
-6.966792e-01
-7.997945e-01
-9.086712e-01
-1.023038e+00
-1.142620e+00
-1.267134e+00
-1.396292e+00
-1.529789e+00
-1.667302e+00
-1.808481e+00
-1.952937e+00
-2.100233e+00
-2.249869e+00
-2.401275e+00
-2.553804e+00
-2.706738e+00
-2.859311e+00
-3.010750e+00
-3.160362e+00
-3.307650e+00
-3.452464e+00
-3.595153e+00
0.000000e+00
-3.386219e-02
-7.637502e-02
-1.210052e-01
-1.710731e-01
-2.274751e-01
-2.906888e-01
-3.608288e-01
-4.378422e-01
-5.215780e-01
-6.118304e-01
-7.083622e-01
-8.109184e-01
-9.192337e-01
-1.033036e+00
-1.152049e+00
-1.275988e+00
-1.404562e+00
-1.537462e+00
-1.674364e+00
-1.814913e+00
-1.958715e+00
-2.105329e+00
-2.254254e+00
-2.404917e+00
-2.556679e+00
-2.708832e+00
-2.860631e+00
-3.011339e+00
-3.160319e+00
-3.307166e+00
-3.451932e+00
-3.595417e+00
0.000000e+00
-5.450430e-02
-9.512012e-02
-1.394536e-01
-1.888359e-01
-2.446346e-01
-3.072430e-01
-3.767773e-01
-4.531780e-01
-5.362934e-01
-6.259181e-01
-7.218152e-01
-8.237301e-01
-9.313970e-01
-1.044543e+00
-1.162890e+00
-1.286152e+00
-1.414033e+00
-1.546224e+00
-1.682394e+00
-1.822187e+00
-1.965206e+00
-2.111010e+00