TITLE = "Solution"
VARIABLES = x, y, u, v, psiu, psiv, t, stress
ZONE T="structure" N=561 E=512 F=FEBLOCK ET=QUADRILATERAL VARLOCATION=([7,8]=cellcentered)
0.000000e+00
6.250000e+00
1.250000e+01
1.875000e+01
2.500000e+01
3.125000e+01
3.750000e+01
4.375000e+01
5.000000e+01
5.625000e+01
6.250000e+01
6.875000e+01
7.500000e+01
8.125000e+01
8.750000e+01
9.375000e+01
1.000000e+02
1.062500e+02
1.125000e+02
1.187500e+02
1.250000e+02
1.312500e+02
1.375000e+02
1.437500e+02
1.500000e+02
1.562500e+02
1.625000e+02
1.687500e+02
1.750000e+02
1.812500e+02
1.875000e+02
1.937500e+02
2.000000e+02
0.000000e+00
6.250000e+00
1.250000e+01
1.875000e+01
2.500000e+01
3.125000e+01
3.750000e+01
4.375000e+01
5.000000e+01
5.625000e+01
6.250000e+01
6.875000e+01
7.500000e+01
8.125000e+01
8.750000e+01
9.375000e+01
1.000000e+02
1.062500e+02
1.125000e+02
1.187500e+02
1.250000e+02
1.312500e+02
1.375000e+02
1.437500e+02
1.500000e+02
1.562500e+02
1.625000e+02
1.687500e+02
1.750000e+02
1.812500e+02
1.875000e+02
1.937500e+02
2.000000e+02
0.000000e+00
6.250000e+00
1.250000e+01
1.875000e+01
2.500000e+01
3.125000e+01
3.750000e+01
4.375000e+01
5.000000e+01
5.625000e+01
6.250000e+01
6.875000e+01
7.500000e+01
8.125000e+01
8.750000e+01
9.375000e+01
1.000000e+02
1.062500e+02
1.125000e+02
1.187500e+02
1.250000e+02
1.312500e+02
1.375000e+02
1.437500e+02
1.500000e+02
1.562500e+02
1.625000e+02
1.687500e+02
1.750000e+02
1.812500e+02
1.875000e+02
1.937500e+02
2.000000e+02
0.000000e+00
6.250000e+00
1.250000e+01
1.875000e+01
2.500000e+01
3.125000e+01
3.750000e+01
4.375000e+01
5.000000e+01
5.625000e+01
6.250000e+01
6.875000e+01
7.500000e+01
8.125000e+01
8.750000e+01
9.375000e+01
1.000000e+02
1.062500e+02
1.125000e+02
1.187500e+02
1.250000e+02
1.312500e+02
1.375000e+02
1.437500e+02
1.500000e+02
1.562500e+02
1.625000e+02
1.687500e+02
1.750000e+02
1.812500e+02
1.875000e+02
1.937500e+02
2.000000e+02
0.000000e+00
6.250000e+00
1.250000e+01
1.875000e+01
2.500000e+01
3.125000e+01
3.750000e+01
4.375000e+01
5.000000e+01
5.625000e+01
6.250000e+01
6.875000e+01
7.500000e+01
8.125000e+01
8.750000e+01
9.375000e+01
1.000000e+02
1.062500e+02
1.125000e+02
1.187500e+02
1.250000e+02
1.312500e+02
1.375000e+02
1.437500e+02
1.500000e+02
1.562500e+02
1.625000e+02
1.687500e+02
1.750000e+02
1.812500e+02
1.875000e+02
1.937500e+02
2.000000e+02
0.000000e+00
6.250000e+00
1.250000e+01
1.875000e+01
2.500000e+01
3.125000e+01
3.750000e+01
4.375000e+01
5.000000e+01
5.625000e+01
6.250000e+01
6.875000e+01
7.500000e+01
8.125000e+01
8.750000e+01
9.375000e+01
1.000000e+02
1.062500e+02
1.125000e+02
1.187500e+02
1.250000e+02
1.312500e+02
1.375000e+02
1.437500e+02
1.500000e+02
1.562500e+02
1.625000e+02
1.687500e+02
1.750000e+02
1.812500e+02
1.875000e+02
1.937500e+02
2.000000e+02
0.000000e+00
6.250000e+00
1.250000e+01
1.875000e+01
2.500000e+01
3.125000e+01
3.750000e+01
4.375000e+01
5.000000e+01
5.625000e+01
6.250000e+01
6.875000e+01
7.500000e+01
8.125000e+01
8.750000e+01
9.375000e+01
1.000000e+02
1.062500e+02
1.125000e+02
1.187500e+02
1.250000e+02
1.312500e+02
1.375000e+02
1.437500e+02
1.500000e+02
1.562500e+02
1.625000e+02
1.687500e+02
1.750000e+02
1.812500e+02
1.875000e+02
1.937500e+02
2.000000e+02
0.000000e+00
6.250000e+00
1.250000e+01
1.875000e+01
2.500000e+01
3.125000e+01
3.750000e+01
4.375000e+01
5.000000e+01
5.625000e+01
6.250000e+01
6.875000e+01
7.500000e+01
8.125000e+01
8.750000e+01
9.375000e+01
1.000000e+02
1.062500e+02
1.125000e+02
1.187500e+02
1.250000e+02
1.312500e+02
1.375000e+02
1.437500e+02
1.500000e+02
1.562500e+02
1.625000e+02
1.687500e+02
1.750000e+02
1.812500e+02
1.875000e+02
1.937500e+02
2.000000e+02
0.000000e+00
6.250000e+00
1.250000e+01
1.875000e+01
2.500000e+01
3.125000e+01
3.750000e+01
4.375000e+01
5.000000e+01
5.625000e+01
6.250000e+01
6.875000e+01
7.500000e+01
8.125000e+01
8.750000e+01
9.375000e+01
1.000000e+02
1.062500e+02
1.125000e+02
1.187500e+02
1.250000e+02
1.312500e+02
1.375000e+02
1.437500e+02
1.500000e+02
1.562500e+02
1.625000e+02
1.687500e+02
1.750000e+02
1.812500e+02
1.875000e+02
1.937500e+02
2.000000e+02
0.000000e+00
6.250000e+00
1.250000e+01
1.875000e+01
2.500000e+01
3.125000e+01
3.750000e+01
4.375000e+01
5.000000e+01
5.625000e+01
6.250000e+01
6.875000e+01
7.500000e+01
8.125000e+01
8.750000e+01
9.375000e+01
1.000000e+02
1.062500e+02
1.125000e+02
1.187500e+02
1.250000e+02
1.312500e+02
1.375000e+02
1.437500e+02
1.500000e+02
1.562500e+02
1.625000e+02
1.687500e+02
1.750000e+02
1.812500e+02
1.875000e+02
1.937500e+02
2.000000e+02
0.000000e+00
6.250000e+00
1.250000e+01
1.875000e+01
2.500000e+01
3.125000e+01
3.750000e+01
4.375000e+01
5.000000e+01
5.625000e+01
6.250000e+01
6.875000e+01
7.500000e+01
8.125000e+01
8.750000e+01
9.375000e+01
1.000000e+02
1.062500e+02
1.125000e+02
1.187500e+02
1.250000e+02
1.312500e+02
1.375000e+02
1.437500e+02
1.500000e+02
1.562500e+02
1.625000e+02
1.687500e+02
1.750000e+02
1.812500e+02
1.875000e+02
1.937500e+02
2.000000e+02
0.000000e+00
6.250000e+00
1.250000e+01
1.875000e+01
2.500000e+01
3.125000e+01
3.750000e+01
4.375000e+01
5.000000e+01
5.625000e+01
6.250000e+01
6.875000e+01
7.500000e+01
8.125000e+01
8.750000e+01
9.375000e+01
1.000000e+02
1.062500e+02
1.125000e+02
1.187500e+02
1.250000e+02
1.312500e+02
1.375000e+02
1.437500e+02
1.500000e+02
1.562500e+02
1.625000e+02
1.687500e+02
1.750000e+02
1.812500e+02
1.875000e+02
1.937500e+02
2.000000e+02
0.000000e+00
6.250000e+00
1.250000e+01
1.875000e+01
2.500000e+01
3.125000e+01
3.750000e+01
4.375000e+01
5.000000e+01
5.625000e+01
6.250000e+01
6.875000e+01
7.500000e+01
8.125000e+01
8.750000e+01
9.375000e+01
1.000000e+02
1.062500e+02
1.125000e+02
1.187500e+02
1.250000e+02
1.312500e+02
1.375000e+02
1.437500e+02
1.500000e+02
1.562500e+02
1.625000e+02
1.687500e+02
1.750000e+02
1.812500e+02
1.875000e+02
1.937500e+02
2.000000e+02
0.000000e+00
6.250000e+00
1.250000e+01
1.875000e+01
2.500000e+01
3.125000e+01
3.750000e+01
4.375000e+01
5.000000e+01
5.625000e+01
6.250000e+01
6.875000e+01
7.500000e+01
8.125000e+01
8.750000e+01
9.375000e+01
1.000000e+02
1.062500e+02
1.125000e+02
1.187500e+02
1.250000e+02
1.312500e+02
1.375000e+02
1.437500e+02
1.500000e+02
1.562500e+02
1.625000e+02
1.687500e+02
1.750000e+02
1.812500e+02
1.875000e+02
1.937500e+02
2.000000e+02
0.000000e+00
6.250000e+00
1.250000e+01
1.875000e+01
2.500000e+01
3.125000e+01
3.750000e+01
4.375000e+01
5.000000e+01
5.625000e+01
6.250000e+01
6.875000e+01
7.500000e+01
8.125000e+01
8.750000e+01
9.375000e+01
1.000000e+02
1.062500e+02
1.125000e+02
1.187500e+02
1.250000e+02
1.312500e+02
1.375000e+02
1.437500e+02
1.500000e+02
1.562500e+02
1.625000e+02
1.687500e+02
1.750000e+02
1.812500e+02
1.875000e+02
1.937500e+02
2.000000e+02
0.000000e+00
6.250000e+00
1.250000e+01
1.875000e+01
2.500000e+01
3.125000e+01
3.750000e+01
4.375000e+01
5.000000e+01
5.625000e+01
6.250000e+01
6.875000e+01
7.500000e+01
8.125000e+01
8.750000e+01
9.375000e+01
1.000000e+02
1.062500e+02
1.125000e+02
1.187500e+02
1.250000e+02
1.312500e+02
1.375000e+02
1.437500e+02
1.500000e+02
1.562500e+02
1.625000e+02
1.687500e+02
1.750000e+02
1.812500e+02
1.875000e+02
1.937500e+02
2.000000e+02
0.000000e+00
6.250000e+00
1.250000e+01
1.875000e+01
2.500000e+01
3.125000e+01
3.750000e+01
4.375000e+01
5.000000e+01
5.625000e+01
6.250000e+01
6.875000e+01
7.500000e+01
8.125000e+01
8.750000e+01
9.375000e+01
1.000000e+02
1.062500e+02
1.125000e+02
1.187500e+02
1.250000e+02
1.312500e+02
1.375000e+02
1.437500e+02
1.500000e+02
1.562500e+02
1.625000e+02
1.687500e+02
1.750000e+02
1.812500e+02
1.875000e+02
1.937500e+02
2.000000e+02
0.000000e+00
0.000000e+00
0.000000e+00
0.000000e+00
0.000000e+00
0.000000e+00
0.000000e+00
0.000000e+00
0.000000e+00
0.000000e+00
0.000000e+00
0.000000e+00
0.000000e+00
0.000000e+00
0.000000e+00
0.000000e+00
0.000000e+00
0.000000e+00
0.000000e+00
0.000000e+00
0.000000e+00
0.000000e+00
0.000000e+00
0.000000e+00
0.000000e+00
0.000000e+00
0.000000e+00
0.000000e+00
0.000000e+00
0.000000e+00
0.000000e+00
0.000000e+00
0.000000e+00
6.250000e+00
6.250000e+00
6.250000e+00
6.250000e+00
6.250000e+00
6.250000e+00
6.250000e+00
6.250000e+00
6.250000e+00
6.250000e+00
6.250000e+00
6.250000e+00
6.250000e+00
6.250000e+00
6.250000e+00
6.250000e+00
6.250000e+00
6.250000e+00
6.250000e+00
6.250000e+00
6.250000e+00
6.250000e+00
6.250000e+00
6.250000e+00
6.250000e+00
6.250000e+00
6.250000e+00
6.250000e+00
6.250000e+00
6.250000e+00
6.250000e+00
6.250000e+00
6.250000e+00
1.250000e+01
1.250000e+01
1.250000e+01
1.250000e+01
1.250000e+01
1.250000e+01
1.250000e+01
1.250000e+01
1.250000e+01
1.250000e+01
1.250000e+01
1.250000e+01
1.250000e+01
1.250000e+01
1.250000e+01
1.250000e+01
1.250000e+01
1.250000e+01
1.250000e+01
1.250000e+01
1.250000e+01
1.250000e+01
1.250000e+01
1.250000e+01
1.250000e+01
1.250000e+01
1.250000e+01
1.250000e+01
1.250000e+01
1.250000e+01
1.250000e+01
1.250000e+01
1.250000e+01
1.875000e+01
1.875000e+01
1.875000e+01
1.875000e+01
1.875000e+01
1.875000e+01
1.875000e+01
1.875000e+01
1.875000e+01
1.875000e+01
1.875000e+01
1.875000e+01
1.875000e+01
1.875000e+01
1.875000e+01
1.875000e+01
1.875000e+01
1.875000e+01
1.875000e+01
1.875000e+01
1.875000e+01
1.875000e+01
1.875000e+01
1.875000e+01
1.875000e+01
1.875000e+01
1.875000e+01
1.875000e+01
1.875000e+01
1.875000e+01
1.875000e+01
1.875000e+01
1.875000e+01
2.500000e+01
2.500000e+01
2.500000e+01
2.500000e+01
2.500000e+01
2.500000e+01
2.500000e+01
2.500000e+01
2.500000e+01
2.500000e+01
2.500000e+01
2.500000e+01
2.500000e+01
2.500000e+01
2.500000e+01
2.500000e+01
2.500000e+01
2.500000e+01
2.500000e+01
2.500000e+01
2.500000e+01
2.500000e+01
2.500000e+01
2.500000e+01
2.500000e+01
2.500000e+01
2.500000e+01
2.500000e+01
2.500000e+01
2.500000e+01
2.500000e+01
2.500000e+01
2.500000e+01
3.125000e+01
3.125000e+01
3.125000e+01
3.125000e+01
3.125000e+01
3.125000e+01
3.125000e+01
3.125000e+01
3.125000e+01
3.125000e+01
3.125000e+01
3.125000e+01
3.125000e+01
3.125000e+01
3.125000e+01
3.125000e+01
3.125000e+01
3.125000e+01
3.125000e+01
3.125000e+01
3.125000e+01
3.125000e+01
3.125000e+01
3.125000e+01
3.125000e+01
3.125000e+01
3.125000e+01
3.125000e+01
3.125000e+01
3.125000e+01
3.125000e+01
3.125000e+01
3.125000e+01
3.750000e+01
3.750000e+01
3.750000e+01
3.750000e+01
3.750000e+01
3.750000e+01
3.750000e+01
3.750000e+01
3.750000e+01
3.750000e+01
3.750000e+01
3.750000e+01
3.750000e+01
3.750000e+01
3.750000e+01
3.750000e+01
3.750000e+01
3.750000e+01
3.750000e+01
3.750000e+01
3.750000e+01
3.750000e+01
3.750000e+01
3.750000e+01
3.750000e+01
3.750000e+01
3.750000e+01
3.750000e+01
3.750000e+01
3.750000e+01
3.750000e+01
3.750000e+01
3.750000e+01
4.375000e+01
4.375000e+01
4.375000e+01
4.375000e+01
4.375000e+01
4.375000e+01
4.375000e+01
4.375000e+01
4.375000e+01
4.375000e+01
4.375000e+01
4.375000e+01
4.375000e+01
4.375000e+01
4.375000e+01
4.375000e+01
4.375000e+01
4.375000e+01
4.375000e+01
4.375000e+01
4.375000e+01
4.375000e+01
4.375000e+01
4.375000e+01
4.375000e+01
4.375000e+01
4.375000e+01
4.375000e+01
4.375000e+01
4.375000e+01
4.375000e+01
4.375000e+01
4.375000e+01
5.000000e+01
5.000000e+01
5.000000e+01
5.000000e+01
5.000000e+01
5.000000e+01
5.000000e+01
5.000000e+01
5.000000e+01
5.000000e+01
5.000000e+01
5.000000e+01
5.000000e+01
5.000000e+01
5.000000e+01
5.000000e+01
5.000000e+01
5.000000e+01
5.000000e+01
5.000000e+01
5.000000e+01
5.000000e+01
5.000000e+01
5.000000e+01
5.000000e+01
5.000000e+01
5.000000e+01
5.000000e+01
5.000000e+01
5.000000e+01
5.000000e+01
5.000000e+01
5.000000e+01
5.625000e+01
5.625000e+01
5.625000e+01
5.625000e+01
5.625000e+01
5.625000e+01
5.625000e+01
5.625000e+01
5.625000e+01
5.625000e+01
5.625000e+01
5.625000e+01
5.625000e+01
5.625000e+01
5.625000e+01
5.625000e+01
5.625000e+01
5.625000e+01
5.625000e+01
5.625000e+01
5.625000e+01
5.625000e+01
5.625000e+01
5.625000e+01
5.625000e+01
5.625000e+01
5.625000e+01
5.625000e+01
5.625000e+01
5.625000e+01
5.625000e+01
5.625000e+01
5.625000e+01
6.250000e+01
6.250000e+01
6.250000e+01
6.250000e+01
6.250000e+01
6.250000e+01
6.250000e+01
6.250000e+01
6.250000e+01
6.250000e+01
6.250000e+01
6.250000e+01
6.250000e+01
6.250000e+01
6.250000e+01
6.250000e+01
6.250000e+01
6.250000e+01
6.250000e+01
6.250000e+01
6.250000e+01
6.250000e+01
6.250000e+01
6.250000e+01
6.250000e+01
6.250000e+01
6.250000e+01
6.250000e+01
6.250000e+01
6.250000e+01
6.250000e+01
6.250000e+01
6.250000e+01
6.875000e+01
6.875000e+01
6.875000e+01
6.875000e+01
6.875000e+01
6.875000e+01
6.875000e+01
6.875000e+01
6.875000e+01
6.875000e+01
6.875000e+01
6.875000e+01
6.875000e+01
6.875000e+01
6.875000e+01
6.875000e+01
6.875000e+01
6.875000e+01
6.875000e+01
6.875000e+01
6.875000e+01
6.875000e+01
6.875000e+01
6.875000e+01
6.875000e+01
6.875000e+01
6.875000e+01
6.875000e+01
6.875000e+01
6.875000e+01
6.875000e+01
6.875000e+01
6.875000e+01
7.500000e+01
7.500000e+01
7.500000e+01
7.500000e+01
7.500000e+01
7.500000e+01
7.500000e+01
7.500000e+01
7.500000e+01
7.500000e+01
7.500000e+01
7.500000e+01
7.500000e+01
7.500000e+01
7.500000e+01
7.500000e+01
7.500000e+01
7.500000e+01
7.500000e+01
7.500000e+01
7.500000e+01
7.500000e+01
7.500000e+01
7.500000e+01
7.500000e+01
7.500000e+01
7.500000e+01
7.500000e+01
7.500000e+01
7.500000e+01
7.500000e+01
7.500000e+01
7.500000e+01
8.125000e+01
8.125000e+01
8.125000e+01
8.125000e+01
8.125000e+01
8.125000e+01
8.125000e+01
8.125000e+01
8.125000e+01
8.125000e+01
8.125000e+01
8.125000e+01
8.125000e+01
8.125000e+01
8.125000e+01
8.125000e+01
8.125000e+01
8.125000e+01
8.125000e+01
8.125000e+01
8.125000e+01
8.125000e+01
8.125000e+01
8.125000e+01
8.125000e+01
8.125000e+01
8.125000e+01
8.125000e+01
8.125000e+01
8.125000e+01
8.125000e+01
8.125000e+01
8.125000e+01
8.750000e+01
8.750000e+01
8.750000e+01
8.750000e+01
8.750000e+01
8.750000e+01
8.750000e+01
8.750000e+01
8.750000e+01
8.750000e+01
8.750000e+01
8.750000e+01
8.750000e+01
8.750000e+01
8.750000e+01
8.750000e+01
8.750000e+01
8.750000e+01
8.750000e+01
8.750000e+01
8.750000e+01
8.750000e+01
8.750000e+01
8.750000e+01
8.750000e+01
8.750000e+01
8.750000e+01
8.750000e+01
8.750000e+01
8.750000e+01
8.750000e+01
8.750000e+01
8.750000e+01
9.375000e+01
9.375000e+01
9.375000e+01
9.375000e+01
9.375000e+01
9.375000e+01
9.375000e+01
9.375000e+01
9.375000e+01
9.375000e+01
9.375000e+01
9.375000e+01
9.375000e+01
9.375000e+01
9.375000e+01
9.375000e+01
9.375000e+01
9.375000e+01
9.375000e+01
9.375000e+01
9.375000e+01
9.375000e+01
9.375000e+01
9.375000e+01
9.375000e+01
9.375000e+01
9.375000e+01
9.375000e+01
9.375000e+01
9.375000e+01
9.375000e+01
9.375000e+01
9.375000e+01
1.000000e+02
1.000000e+02
1.000000e+02
1.000000e+02
1.000000e+02
1.000000e+02
1.000000e+02
1.000000e+02
1.000000e+02
1.000000e+02
1.000000e+02
1.000000e+02
1.000000e+02
1.000000e+02
1.000000e+02
1.000000e+02
1.000000e+02
1.000000e+02
1.000000e+02
1.000000e+02
1.000000e+02
1.000000e+02
1.000000e+02
1.000000e+02
1.000000e+02
1.000000e+02
1.000000e+02
1.000000e+02
1.000000e+02
1.000000e+02
1.000000e+02
1.000000e+02
1.000000e+02
0.000000e+00
-3.598747e-01
-6.499229e-01
-9.289550e-01
-1.212187e+00
-1.492731e+00
-1.770199e+00
-2.045786e+00
-2.319206e+00
-2.589677e+00
-2.856557e+00
-3.119203e+00
-3.376830e+00
-3.628527e+00
-3.873330e+00
-4.110282e+00
-4.338514e+00
-4.557318e+00
-4.766221e+00
-4.965043e+00
-5.153944e+00
-5.333469e+00
-5.504601e+00
-5.668838e+00
-5.828302e+00
-5.985912e+00
-6.145646e+00
-6.312996e+00
-6.495774e+00
-6.704718e+00
-6.949220e+00
-7.221438e+00
-7.382467e+00
0.000000e+00
-2.336558e-01
-4.856742e-01
-7.333085e-01
-9.839468e-01
-1.231467e+00
-1.475403e+00
-1.717190e+00
-1.956825e+00
-2.193711e+00
-2.427346e+00
-2.657230e+00
-2.882725e+00
-3.103068e+00
-3.317435e+00
-3.524996e+00
-3.724977e+00
-3.916727e+00
-4.099772e+00
-4.273858e+00
-4.438976e+00
-4.595375e+00
-4.743570e+00
-4.884338e+00
-5.018704e+00
-5.147900e+00
-5.273252e+00
-5.395858e+00
-5.515618e+00
-5.627973e+00
-5.717464e+00
-5.766841e+00
-5.832886e+00
0.000000e+00
-1.804465e-01
-3.734911e-01
-5.796643e-01
-7.917152e-01
-1.002847e+00
-1.212009e+00
-1.419597e+00
-1.625316e+00
-1.828632e+00
-2.029088e+00
-2.226218e+00
-2.419464e+00
-2.608177e+00
-2.791658e+00
-2.969193e+00
-3.140101e+00
-3.303774e+00
-3.459716e+00
-3.607565e+00
-3.747096e+00
-3.878206e+00
-4.000881e+00
-4.115129e+00
-4.220877e+00
-4.317786e+00
-4.404932e+00
-4.480215e+00
-4.539296e+00
-4.574346e+00
-4.578183e+00
-4.568178e+00
-4.642092e+00
0.000000e+00
-1.430351e-01
-2.956831e-01
-4.594561e-01
-6.307432e-01
-8.038281e-01
-9.770749e-01
-1.149723e+00
-1.321049e+00
-1.490457e+00
-1.657459e+00
-1.821577e+00
-1.982296e+00
-2.139056e+00
-2.291266e+00
-2.438318e+00
-2.579612e+00
-2.714576e+00
-2.842690e+00
-2.963485e+00
-3.076534e+00
-3.181427e+00
-3.277707e+00
-3.364798e+00
-3.441872e+00
-3.507682e+00
-3.560337e+00
-3.597094e+00
-3.614521e+00
-3.610527e+00
-3.592917e+00
-3.593047e+00
-3.663827e+00
0.000000e+00
-1.133752e-01
-2.326391e-01
-3.593360e-01
-4.917139e-01
-6.273544e-01
-7.644159e-01
-9.016632e-01
-1.038193e+00
-1.173347e+00
-1.306595e+00
-1.437455e+00
-1.565456e+00
-1.690114e+00
-1.810928e+00
-1.927379e+00
-2.038935e+00
-2.145060e+00
-2.245217e+00
-2.338863e+00
-2.425435e+00
-2.504318e+00
-2.574798e+00
-2.636008e+00
-2.686854e+00
-2.725968e+00
-2.751754e+00
-2.762741e+00
-2.758751e+00
-2.744075e+00
-2.733542e+00
-2.754480e+00
-2.819149e+00
0.000000e+00
-8.474092e-02
-1.733096e-01
-2.663320e-01
-3.634552e-01
-4.634453e-01
-5.650749e-01
-6.672529e-01
-7.691453e-01
-8.701240e-01
-9.696855e-01
-1.067390e+00
-1.162828e+00
-1.255590e+00
-1.345257e+00
-1.431388e+00
-1.513516e+00
-1.591145e+00
-1.663750e+00
-1.730766e+00
-1.791577e+00
-1.845500e+00
-1.891765e+00
-1.929508e+00
-1.957785e+00
-1.975675e+00
-1.982561e+00
-1.978790e+00
-1.967028e+00
-1.954528e+00
-1.955086e+00
-1.983191e+00
-2.040815e+00
0.000000e+00
-5.635786e-02
-1.150584e-01
-1.764514e-01
-2.403889e-01
-3.063108e-01
-3.734834e-01
-4.411882e-01
-5.088153e-01
-5.758774e-01
-6.419761e-01
-7.067647e-01
-7.699201e-01
-8.311205e-01
-8.900299e-01
-9.462862e-01
-9.994927e-01
-1.049213e+00
-1.094964e+00
-1.136217e+00
-1.172390e+00
-1.202854e+00
-1.226946e+00
-1.244011e+00
-1.253498e+00
-1.255155e+00
-1.249403e+00
-1.237976e+00
-1.224850e+00
-1.217116e+00
-1.224146e+00
-1.253044e+00
-1.301925e+00
0.000000e+00
-2.817684e-02
-5.749373e-02
-8.809336e-02
-1.199147e-01
-1.527185e-01
-1.861703e-01
-2.199140e-01
-2.536273e-01
-2.870357e-01
-3.199041e-01
-3.520185e-01
-3.831693e-01
-4.131370e-01
-4.416801e-01
-4.685256e-01
-4.933616e-01
-5.158327e-01
-5.355376e-01
-5.520317e-01
-5.648371e-01
-5.734641e-01
-5.774544e-01
-5.764593e-01
-5.703742e-01
-5.595585e-01
-5.451647e-01
-5.295654e-01
-5.167421e-01
-5.121890e-01
-5.215754e-01
-5.477195e-01
-5.874668e-01
0.000000e+00
-1.246630e-04
-2.570953e-04
-3.919139e-04
-5.230637e-04
-6.430532e-04
-7.417351e-04
-8.046721e-04
-8.111438e-04
-7.316866e-04
-5.250365e-04
-1.343791e-04
5.171029e-04
1.531254e-03
3.040250e-03
5.211686e-03
8.252650e-03
1.241162e-02
1.797639e-02
2.526542e-02
3.460860e-02
4.631190e-02
6.059794e-02
7.751284e-02
9.678884e-02
1.176577e-01
1.386291e-01
1.572981e-01
1.703413e-01
1.739735e-01
1.651598e-01
1.434458e-01
1.124053e-01
0.000000e+00
2.793372e-02
5.699210e-02
8.732849e-02
1.188934e-01
1.514617e-01
1.847180e-01
2.183335e-01
2.520249e-01
2.855732e-01
3.188209e-01
3.516610e-01
3.840282e-01
4.158947e-01
4.472679e-01
4.781910e-01
5.087435e-01
5.390406e-01
5.692286e-01
5.994724e-01
6.299320e-01
6.607217e-01
6.918472e-01
7.231168e-01
7.540247e-01
7.836202e-01
8.103928e-01
8.322472e-01
8.466855e-01
8.513360e-01
8.448887e-01
8.282155e-01
8.050695e-01
0.000000e+00
5.613335e-02
1.145945e-01
1.757434e-01
2.394418e-01
3.051416e-01
3.721245e-01
4.396947e-01
5.072745e-01
5.744226e-01
6.408042e-01
7.061601e-01
7.702854e-01
8.330152e-01
8.942179e-01
9.537917e-01
1.011664e+00
1.067792e+00
1.122155e+00
1.174748e+00
1.225556e+00
1.274515e+00
1.321461e+00
1.366051e+00
1.407681e+00
1.445404e+00
1.477893e+00
1.503500e+00
1.520500e+00
1.527566e+00
1.524478e+00
1.512875e+00
1.496687e+00
0.000000e+00
8.454771e-02
1.729092e-01
2.657196e-01
3.626328e-01
4.624232e-01
5.638740e-01
6.659100e-01
7.677194e-01
8.687055e-01
9.684080e-01
1.066446e+00
1.162488e+00
1.256228e+00
1.347383e+00
1.435683e+00
1.520879e+00
1.602742e+00
1.681065e+00
1.755659e+00
1.826336e+00
1.892879e+00
1.955000e+00
2.012288e+00
2.064153e+00
2.109782e+00
2.148145e+00
2.178079e+00
2.198516e+00
2.208872e+00
2.209600e+00
2.202773e+00
2.192531e+00
0.000000e+00
1.132272e-01
2.323300e-01
3.588612e-01
4.910710e-01
6.265454e-01
7.634488e-01
9.005536e-01
1.036968e+00
1.172047e+00
1.305280e+00
1.436212e+00
1.564400e+00
1.689402e+00
1.810762e+00
1.928023e+00
2.040728e+00
2.148436e+00
2.250733e+00
2.347235e+00
2.437578e+00
2.521408e+00
2.598352e+00
2.667985e+00
2.729803e+00
2.783205e+00
2.827516e+00
2.862066e+00
2.886358e+00
2.900365e+00
2.904945e+00
2.902382e+00
2.896981e+00
0.000000e+00
1.429478e-01
2.954962e-01
4.591651e-01
6.303431e-01
8.033124e-01
9.764405e-01
1.148968e+00
1.320172e+00
1.489454e+00
1.656322e+00
1.820291e+00
1.980828e+00
2.137346e+00
2.289207e+00
2.435735e+00
2.576241e+00
2.710047e+00
2.836508e+00
2.955027e+00
3.065060e+00
3.166115e+00
3.257739e+00
3.339509e+00
3.411030e+00
3.471937e+00
3.521934e+00
3.560849e+00
3.588750e+00
3.606115e+00
3.614112e+00
3.615068e+00
3.613271e+00
0.000000e+00
1.804329e-01
3.734544e-01
5.796000e-01
7.916215e-01
1.002715e+00
1.211831e+00
1.419366e+00
1.625016e+00
1.828230e+00
2.028534e+00
2.225425e+00
2.418289e+00
2.606384e+00
2.788877e+00
2.964860e+00
3.133392e+00
3.293538e+00
3.444404e+00
3.585161e+00
3.715064e+00
3.833452e+00
3.939762e+00
4.033535e+00
4.114440e+00
4.182307e+00
4.237187e+00
4.279411e+00
4.309665e+00
4.329061e+00
4.339218e+00
4.342525e+00
4.342915e+00
0.000000e+00
2.337124e-01
4.857784e-01
7.334684e-01
9.841768e-01
1.231766e+00
1.475773e+00
1.717635e+00
1.957341e+00
2.194271e+00
2.427897e+00
2.657670e+00
2.882868e+00
3.102594e+00
3.315814e+00
3.521397e+00
3.718158e+00
3.904909e+00
4.080504e+00
4.243870e+00
4.394025e+00
4.530093e+00
4.651322e+00
4.757111e+00
4.847066e+00
4.921072e+00
4.979397e+00
5.022803e+00
5.052654e+00
5.070962e+00
5.080323e+00
5.083719e+00
5.084550e+00
0.000000e+00
3.599381e-01
6.500945e-01
9.292752e-01
1.212691e+00
1.493435e+00
1.771131e+00
2.046985e+00
2.320709e+00
2.591508e+00
2.858723e+00
3.121666e+00
3.379463e+00
3.631052e+00
3.875220e+00
4.110644e+00
4.335934e+00
4.549687e+00
4.750530e+00
4.937145e+00
5.108288e+00
5.262794e+00
5.399603e+00
5.517802e+00
5.616702e+00
5.695963e+00
5.755766e+00
5.797034e+00
5.821676e+00
5.832808e+00
5.834854e+00
5.833197e+00
5.832259e+00
0.000000e+00
-2.229481e-01
-4.025155e-01
-6.088057e-01
-8.416886e-01
-1.104129e+00
-1.399073e+00
-1.727697e+00
-2.090118e+00
-2.486293e+00
-2.916026e+00
-3.378883e+00
-3.874221e+00
-4.401226e+00
-4.958933e+00
-5.546237e+00
-6.161921e+00
-6.804684e+00
-7.473185e+00
-8.166096e+00
-8.882165e+00
-9.620312e+00
-1.037976e+01
-1.116020e+01
-1.196210e+01
-1.278709e+01
-1.363868e+01
-1.452343e+01
-1.545316e+01
-1.644997e+01
-1.756164e+01
-1.890227e+01
-2.073294e+01
0.000000e+00
-1.390633e-01
-3.263986e-01
-5.300221e-01
-7.624902e-01
-1.025677e+00
-1.321317e+00
-1.650500e+00
-2.013645e+00
-2.410752e+00
-2.841594e+00
-3.305757e+00
-3.802637e+00
-4.331447e+00
-4.891231e+00
-5.480873e+00
-6.099126e+00
-6.744638e+00
-7.416001e+00
-8.111804e+00
-8.830710e+00
-9.571540e+00
-1.033341e+01
-1.111590e+01
-1.191934e+01
-1.274522e+01
-1.359688e+01
-1.448076e+01
-1.540870e+01
-1.640350e+01
-1.751120e+01
-1.882533e+01
-2.052891e+01
0.000000e+00
-1.034131e-01
-2.667146e-01
-4.656645e-01
-6.957584e-01
-9.585374e-01
-1.254362e+00
-1.583913e+00
-1.947632e+00
-2.345531e+00
-2.777358e+00
-3.242695e+00
-3.740958e+00
-4.271377e+00
-4.833006e+00
-5.424727e+00
-6.045275e+00
-6.693270e+00
-7.367265e+00
-8.065804e+00
-8.787502e+00
-9.531139e+00
-1.029579e+01
-1.108103e+01
-1.188718e+01
-1.271578e+01
-1.357029e+01
-1.445739e+01
-1.538935e+01
-1.638792e+01
-1.748619e+01
-1.871376e+01
-2.005455e+01
0.000000e+00
-8.652295e-02
-2.306637e-01
-4.183277e-01
-6.436190e-01
-9.040803e-01
-1.199012e+00
-1.528410e+00
-1.892410e+00
-2.290901e+00
-2.723569e+00
-3.189964e+00
-3.689486e+00
-4.221370e+00
-4.784672e+00
-5.378279e+00
-6.000925e+00
-6.651226e+00
-7.327726e+00
-8.028959e+00
-8.753533e+00
-9.500229e+00
-1.026814e+01
-1.105685e+01
-1.186674e+01
-1.269938e+01
-1.355819e+01
-1.444948e+01
-1.538392e+01
-1.637692e+01
-1.743885e+01
-1.854968e+01
-1.957915e+01
0.000000e+00
-7.806802e-02
-2.093724e-01
-3.868963e-01
-6.056695e-01
-8.624732e-01
-1.155540e+00
-1.484205e+00
-1.848133e+00
-2.246983e+00
-2.680328e+00
-3.147648e+00
-3.648306e+00
-4.181519e+00
-4.746343e+00
-5.341674e+00
-5.966258e+00
-6.618726e+00
-7.297634e+00
-8.001533e+00
-8.729041e+00
-9.478953e+00
-1.025037e+01
-1.104287e+01
-1.185676e+01
-1.269340e+01
-1.355560e+01
-1.444810e+01
-1.537759e+01
-1.634989e+01
-1.735762e+01
-1.835577e+01
-1.925257e+01
0.000000e+00
-7.259660e-02
-1.961298e-01
-3.663184e-01
-5.794308e-01
-8.324249e-01
-1.123320e+00
-1.450942e+00
-1.814557e+00
-2.213580e+00
-2.647446e+00
-3.115551e+00
-3.617206e+00
-4.151604e+00
-4.717800e+00
-5.314700e+00
-5.941070e+00
-6.595566e+00
-7.276766e+00
-7.983240e+00
-8.713616e+00
-9.466676e+00
-1.024148e+01
-1.103748e+01
-1.185472e+01
-1.269398e+01
-1.355687e+01
-1.444567e+01
-1.536215e+01
-1.630376e+01
-1.725332e+01
-1.816978e+01
-1.899375e+01
0.000000e+00
-6.900869e-02
-1.878154e-01
-3.532462e-01
-5.622826e-01
-8.122983e-01
-1.101314e+00
-1.427943e+00
-1.791195e+00
-2.190298e+00
-2.624565e+00
-3.093314e+00
-3.595812e+00
-4.131235e+00
-4.698636e+00
-5.296935e+00
-5.924921e+00
-6.581270e+00
-7.264583e+00
-7.973434e+00
-8.706436e+00
-9.462312e+00
-1.023999e+01
-1.103868e+01
-1.185794e+01
-1.269770e+01
-1.355806e+01
-1.443864e+01
-1.533709e+01
-1.624559e+01
-1.714533e+01
-1.800407e+01
-1.878243e+01
0.000000e+00
-6.698084e-02
-1.831717e-01
-3.459204e-01
-5.525760e-01
-8.007648e-01
-1.088573e+00
-1.414539e+00
-1.777551e+00
-2.176729e+00
-2.611311e+00
-3.080567e+00
-3.583742e+00
-4.120002e+00
-4.688410e+00
-5.287899e+00
-5.917280e+00
-6.575244e+00
-7.260400e+00
-7.971305e+00
-8.706517e+00
-9.464647e+00
-1.024441e+01
-1.104465e+01
-1.186434e+01
-1.270242e+01
-1.355750e+01
-1.442705e+01
-1.530601e+01
-1.618453e+01
-1.704537e+01
-1.786408e+01
-1.861346e+01
0.000000e+00
-6.631685e-02
-1.816634e-01
-3.435497e-01
-5.494389e-01
-7.970414e-01
-1.084473e+00
-1.410259e+00
-1.773260e+00
-2.172566e+00
-2.607397e+00
-3.077019e+00
-3.580680e+00
-4.117557e+00
-4.686729e+00
-5.287148e+00
-5.917638e+00
-6.576900e+00
-7.263529e+00
-7.976042e+00
-8.712906e+00
-9.472573e+00
-1.025349e+01
-1.105407e+01
-1.187266e+01
-1.270730e+01
-1.355534e+01
-1.441282e+01
-1.527336e+01
-1.612694e+01
-1.695886e+01
-1.775054e+01
-1.848221e+01
0.000000e+00
-6.695206e-02
-1.831365e-01
-3.459030e-01
-5.526036e-01
-8.008694e-01
-1.088794e+00
-1.414927e+00
-1.778172e+00
-2.177669e+00
-2.612681e+00
-3.082511e+00
-3.586438e+00
-4.123672e+00
-4.693315e+00
-5.294340e+00
-5.925583e+00
-6.585740e+00
-7.273378e+00
-7.986953e+00
-8.724817e+00
-9.485231e+00
-1.026635e+01
-1.106618e+01
-1.188245e+01
-1.271246e+01
-1.355269e+01
-1.439835e+01
-1.524272e+01
-1.607650e+01
-1.688757e+01
-1.766167e+01
-1.838388e+01
0.000000e+00
-6.895093e-02
-1.877445e-01
-3.532096e-01
-5.623325e-01
-8.124959e-01
-1.101735e+00
-1.428684e+00
-1.792383e+00
-2.192098e+00
-2.627189e+00
-3.097037e+00
-3.600978e+00
-4.138267e+00
-4.708039e+00
-5.309288e+00
-5.940855e+00
-6.601423e+00
-7.289523e+00
-8.003535e+00
-8.741690e+00
-9.502055e+00
-1.028251e+01
-1.108066e+01
-1.189377e+01
-1.271854e+01
-1.355093e+01
-1.438578e+01
-1.521654e+01
-1.603502e+01
-1.683142e+01
-1.759484e+01
-1.831393e+01
0.000000e+00
-7.250992e-02
-1.960231e-01
-3.662597e-01
-5.794935e-01
-8.326943e-01
-1.123902e+00
-1.451972e+00
-1.816212e+00
-2.216090e+00
-2.651110e+00
-3.120749e+00
-3.624421e+00
-4.161429e+00
-4.730943e+00
-5.331977e+00
-5.963372e+00
-6.623795e+00
-7.311737e+00
-8.025504e+00
-8.763210e+00
-9.522751e+00
-1.030176e+01
-1.109754e+01
-1.190697e+01
-1.272637e+01
-1.355135e+01
-1.437672e+01
-1.519631e+01
-1.600311e+01
-1.678941e+01
-1.754713e+01
-1.826803e+01
0.000000e+00
-7.795417e-02
-2.092328e-01
-3.868144e-01
-6.057344e-01
-8.627883e-01
-1.156233e+00
-1.485441e+00
-1.850126e+00
-2.250011e+00
-2.684750e+00
-3.153926e+00
-3.657022e+00
-4.193390e+00
-4.762229e+00
-5.362563e+00
-5.993236e+00
-6.652895e+00
-7.339995e+00
-8.052782e+00
-8.789277e+00
-9.547241e+00
-1.032412e+01
-1.111700e+01
-1.192247e+01
-1.273662e+01
-1.355490e+01
-1.437217e+01
-1.518274e+01
-1.598067e+01
-1.676006e+01
-1.751543e+01
-1.824174e+01
0.000000e+00
-8.638861e-02
-2.305008e-01
-4.182270e-01
-6.436791e-01
-9.044170e-01
-1.199767e+00
-1.529767e+00
-1.894606e+00
-2.294243e+00
-2.728454e+00
-3.196900e+00
-3.699115e+00
-4.234482e+00
-4.802213e+00
-5.401338e+00
-6.030694e+00
-6.688918e+00
-7.374439e+00
-8.085466e+00
-8.819960e+00
-9.575595e+00
-1.034970e+01
-1.113921e+01
-1.194058e+01
-1.274973e+01
-1.356206e+01
-1.437255e+01
-1.517590e+01
-1.596704e+01
-1.674159e+01
-1.749651e+01
-1.823026e+01
0.000000e+00
-1.032773e-01
-2.665485e-01
-4.655580e-01
-6.958162e-01
-9.588831e-01
-1.255146e+00
-1.585326e+00
-1.949921e+00
-2.349017e+00
-2.782453e+00
-3.249924e+00
-3.750982e+00
-4.285008e+00
-4.851209e+00
-5.448610e+00
-6.076041e+00
-6.732134e+00
-7.415311e+00
-8.123767e+00
-8.855442e+00
-9.607972e+00
-1.037864e+01
-1.116431e+01
-1.196138e+01
-1.276572e+01
-1.357277e+01
-1.437757e+01
-1.517518e+01
-1.596107e+01
-1.673201e+01
-1.748699e+01
-1.822824e+01
0.000000e+00
-1.389502e-01
-3.262486e-01
-5.299281e-01
-7.625608e-01
-1.026039e+00
-1.322124e+00
-1.651945e+00
-2.015979e+00
-2.414293e+00
-2.846754e+00
-3.313056e+00
-3.812722e+00
-4.345108e+00
-4.909394e+00
-5.504588e+00
-6.129513e+00
-6.782803e+00
-7.462886e+00
-8.167967e+00
-8.895994e+00
-9.644610e+00
-1.041110e+01
-1.119234e+01
-1.198474e+01
-1.278421e+01
-1.358626e+01
-1.438611e+01
-1.517901e+01
-1.596081e+01
-1.672889e+01
-1.748355e+01
-1.822992e+01
0.000000e+00
-2.228653e-01
-4.023960e-01
-6.087480e-01
-8.417998e-01
-1.104535e+00
-1.399931e+00
-1.729203e+00
-2.092517e+00
-2.489903e+00
-2.921248e+00
-3.386221e+00
-3.884292e+00
-4.414768e+00
-4.976796e+00
-5.569357e+00
-6.191265e+00
-6.841156e+00
-7.517473e+00
-8.218440e+00
-8.942026e+00
-9.685901e+00
-1.044738e+01