TITLE = "Solution"
VARIABLES = x, y, u, v, psiu, psiv, t, stress
ZONE T="structure" N=561 E=512 F=FEBLOCK ET=QUADRILATERAL VARLOCATION=([7,8]=cellcentered)
0.000000e+00
6.250000e+00
1.250000e+01
1.875000e+01
2.500000e+01
3.125000e+01
3.750000e+01
4.375000e+01
5.000000e+01
5.625000e+01
6.250000e+01
6.875000e+01
7.500000e+01
8.125000e+01
8.750000e+01
9.375000e+01
1.000000e+02
1.062500e+02
1.125000e+02
1.187500e+02
1.250000e+02
1.312500e+02
1.375000e+02
1.437500e+02
1.500000e+02
1.562500e+02
1.625000e+02
1.687500e+02
1.750000e+02
1.812500e+02
1.875000e+02
1.937500e+02
2.000000e+02
0.000000e+00
6.250000e+00
1.250000e+01
1.875000e+01
2.500000e+01
3.125000e+01
3.750000e+01
4.375000e+01
5.000000e+01
5.625000e+01
6.250000e+01
6.875000e+01
7.500000e+01
8.125000e+01
8.750000e+01
9.375000e+01
1.000000e+02
1.062500e+02
1.125000e+02
1.187500e+02
1.250000e+02
1.312500e+02
1.375000e+02
1.437500e+02
1.500000e+02
1.562500e+02
1.625000e+02
1.687500e+02
1.750000e+02
1.812500e+02
1.875000e+02
1.937500e+02
2.000000e+02
0.000000e+00
6.250000e+00
1.250000e+01
1.875000e+01
2.500000e+01
3.125000e+01
3.750000e+01
4.375000e+01
5.000000e+01
5.625000e+01
6.250000e+01
6.875000e+01
7.500000e+01
8.125000e+01
8.750000e+01
9.375000e+01
1.000000e+02
1.062500e+02
1.125000e+02
1.187500e+02
1.250000e+02
1.312500e+02
1.375000e+02
1.437500e+02
1.500000e+02
1.562500e+02
1.625000e+02
1.687500e+02
1.750000e+02
1.812500e+02
1.875000e+02
1.937500e+02
2.000000e+02
0.000000e+00
6.250000e+00
1.250000e+01
1.875000e+01
2.500000e+01
3.125000e+01
3.750000e+01
4.375000e+01
5.000000e+01
5.625000e+01
6.250000e+01
6.875000e+01
7.500000e+01
8.125000e+01
8.750000e+01
9.375000e+01
1.000000e+02
1.062500e+02
1.125000e+02
1.187500e+02
1.250000e+02
1.312500e+02
1.375000e+02
1.437500e+02
1.500000e+02
1.562500e+02
1.625000e+02
1.687500e+02
1.750000e+02
1.812500e+02
1.875000e+02
1.937500e+02
2.000000e+02
0.000000e+00
6.250000e+00
1.250000e+01
1.875000e+01
2.500000e+01
3.125000e+01
3.750000e+01
4.375000e+01
5.000000e+01
5.625000e+01
6.250000e+01
6.875000e+01
7.500000e+01
8.125000e+01
8.750000e+01
9.375000e+01
1.000000e+02
1.062500e+02
1.125000e+02
1.187500e+02
1.250000e+02
1.312500e+02
1.375000e+02
1.437500e+02
1.500000e+02
1.562500e+02
1.625000e+02
1.687500e+02
1.750000e+02
1.812500e+02
1.875000e+02
1.937500e+02
2.000000e+02
0.000000e+00
6.250000e+00
1.250000e+01
1.875000e+01
2.500000e+01
3.125000e+01
3.750000e+01
4.375000e+01
5.000000e+01
5.625000e+01
6.250000e+01
6.875000e+01
7.500000e+01
8.125000e+01
8.750000e+01
9.375000e+01
1.000000e+02
1.062500e+02
1.125000e+02
1.187500e+02
1.250000e+02
1.312500e+02
1.375000e+02
1.437500e+02
1.500000e+02
1.562500e+02
1.625000e+02
1.687500e+02
1.750000e+02
1.812500e+02
1.875000e+02
1.937500e+02
2.000000e+02
0.000000e+00
6.250000e+00
1.250000e+01
1.875000e+01
2.500000e+01
3.125000e+01
3.750000e+01
4.375000e+01
5.000000e+01
5.625000e+01
6.250000e+01
6.875000e+01
7.500000e+01
8.125000e+01
8.750000e+01
9.375000e+01
1.000000e+02
1.062500e+02
1.125000e+02
1.187500e+02
1.250000e+02
1.312500e+02
1.375000e+02
1.437500e+02
1.500000e+02
1.562500e+02
1.625000e+02
1.687500e+02
1.750000e+02
1.812500e+02
1.875000e+02
1.937500e+02
2.000000e+02
0.000000e+00
6.250000e+00
1.250000e+01
1.875000e+01
2.500000e+01
3.125000e+01
3.750000e+01
4.375000e+01
5.000000e+01
5.625000e+01
6.250000e+01
6.875000e+01
7.500000e+01
8.125000e+01
8.750000e+01
9.375000e+01
1.000000e+02
1.062500e+02
1.125000e+02
1.187500e+02
1.250000e+02
1.312500e+02
1.375000e+02
1.437500e+02
1.500000e+02
1.562500e+02
1.625000e+02
1.687500e+02
1.750000e+02
1.812500e+02
1.875000e+02
1.937500e+02
2.000000e+02
0.000000e+00
6.250000e+00
1.250000e+01
1.875000e+01
2.500000e+01
3.125000e+01
3.750000e+01
4.375000e+01
5.000000e+01
5.625000e+01
6.250000e+01
6.875000e+01
7.500000e+01
8.125000e+01
8.750000e+01
9.375000e+01
1.000000e+02
1.062500e+02
1.125000e+02
1.187500e+02
1.250000e+02
1.312500e+02
1.375000e+02
1.437500e+02
1.500000e+02
1.562500e+02
1.625000e+02
1.687500e+02
1.750000e+02
1.812500e+02
1.875000e+02
1.937500e+02
2.000000e+02
0.000000e+00
6.250000e+00
1.250000e+01
1.875000e+01
2.500000e+01
3.125000e+01
3.750000e+01
4.375000e+01
5.000000e+01
5.625000e+01
6.250000e+01
6.875000e+01
7.500000e+01
8.125000e+01
8.750000e+01
9.375000e+01
1.000000e+02
1.062500e+02
1.125000e+02
1.187500e+02
1.250000e+02
1.312500e+02
1.375000e+02
1.437500e+02
1.500000e+02
1.562500e+02
1.625000e+02
1.687500e+02
1.750000e+02
1.812500e+02
1.875000e+02
1.937500e+02
2.000000e+02
0.000000e+00
6.250000e+00
1.250000e+01
1.875000e+01
2.500000e+01
3.125000e+01
3.750000e+01
4.375000e+01
5.000000e+01
5.625000e+01
6.250000e+01
6.875000e+01
7.500000e+01
8.125000e+01
8.750000e+01
9.375000e+01
1.000000e+02
1.062500e+02
1.125000e+02
1.187500e+02
1.250000e+02
1.312500e+02
1.375000e+02
1.437500e+02
1.500000e+02
1.562500e+02
1.625000e+02
1.687500e+02
1.750000e+02
1.812500e+02
1.875000e+02
1.937500e+02
2.000000e+02
0.000000e+00
6.250000e+00
1.250000e+01
1.875000e+01
2.500000e+01
3.125000e+01
3.750000e+01
4.375000e+01
5.000000e+01
5.625000e+01
6.250000e+01
6.875000e+01
7.500000e+01
8.125000e+01
8.750000e+01
9.375000e+01
1.000000e+02
1.062500e+02
1.125000e+02
1.187500e+02
1.250000e+02
1.312500e+02
1.375000e+02
1.437500e+02
1.500000e+02
1.562500e+02
1.625000e+02
1.687500e+02
1.750000e+02
1.812500e+02
1.875000e+02
1.937500e+02
2.000000e+02
0.000000e+00
6.250000e+00
1.250000e+01
1.875000e+01
2.500000e+01
3.125000e+01
3.750000e+01
4.375000e+01
5.000000e+01
5.625000e+01
6.250000e+01
6.875000e+01
7.500000e+01
8.125000e+01
8.750000e+01
9.375000e+01
1.000000e+02
1.062500e+02
1.125000e+02
1.187500e+02
1.250000e+02
1.312500e+02
1.375000e+02
1.437500e+02
1.500000e+02
1.562500e+02
1.625000e+02
1.687500e+02
1.750000e+02
1.812500e+02
1.875000e+02
1.937500e+02
2.000000e+02
0.000000e+00
6.250000e+00
1.250000e+01
1.875000e+01
2.500000e+01
3.125000e+01
3.750000e+01
4.375000e+01
5.000000e+01
5.625000e+01
6.250000e+01
6.875000e+01
7.500000e+01
8.125000e+01
8.750000e+01
9.375000e+01
1.000000e+02
1.062500e+02
1.125000e+02
1.187500e+02
1.250000e+02
1.312500e+02
1.375000e+02
1.437500e+02
1.500000e+02
1.562500e+02
1.625000e+02
1.687500e+02
1.750000e+02
1.812500e+02
1.875000e+02
1.937500e+02
2.000000e+02
0.000000e+00
6.250000e+00
1.250000e+01
1.875000e+01
2.500000e+01
3.125000e+01
3.750000e+01
4.375000e+01
5.000000e+01
5.625000e+01
6.250000e+01
6.875000e+01
7.500000e+01
8.125000e+01
8.750000e+01
9.375000e+01
1.000000e+02
1.062500e+02
1.125000e+02
1.187500e+02
1.250000e+02
1.312500e+02
1.375000e+02
1.437500e+02
1.500000e+02
1.562500e+02
1.625000e+02
1.687500e+02
1.750000e+02
1.812500e+02
1.875000e+02
1.937500e+02
2.000000e+02
0.000000e+00
6.250000e+00
1.250000e+01
1.875000e+01
2.500000e+01
3.125000e+01
3.750000e+01
4.375000e+01
5.000000e+01
5.625000e+01
6.250000e+01
6.875000e+01
7.500000e+01
8.125000e+01
8.750000e+01
9.375000e+01
1.000000e+02
1.062500e+02
1.125000e+02
1.187500e+02
1.250000e+02
1.312500e+02
1.375000e+02
1.437500e+02
1.500000e+02
1.562500e+02
1.625000e+02
1.687500e+02
1.750000e+02
1.812500e+02
1.875000e+02
1.937500e+02
2.000000e+02
0.000000e+00
6.250000e+00
1.250000e+01
1.875000e+01
2.500000e+01
3.125000e+01
3.750000e+01
4.375000e+01
5.000000e+01
5.625000e+01
6.250000e+01
6.875000e+01
7.500000e+01
8.125000e+01
8.750000e+01
9.375000e+01
1.000000e+02
1.062500e+02
1.125000e+02
1.187500e+02
1.250000e+02
1.312500e+02
1.375000e+02
1.437500e+02
1.500000e+02
1.562500e+02
1.625000e+02
1.687500e+02
1.750000e+02
1.812500e+02
1.875000e+02
1.937500e+02
2.000000e+02
0.000000e+00
0.000000e+00
0.000000e+00
0.000000e+00
0.000000e+00
0.000000e+00
0.000000e+00
0.000000e+00
0.000000e+00
0.000000e+00
0.000000e+00
0.000000e+00
0.000000e+00
0.000000e+00
0.000000e+00
0.000000e+00
0.000000e+00
0.000000e+00
0.000000e+00
0.000000e+00
0.000000e+00
0.000000e+00
0.000000e+00
0.000000e+00
0.000000e+00
0.000000e+00
0.000000e+00
0.000000e+00
0.000000e+00
0.000000e+00
0.000000e+00
0.000000e+00
0.000000e+00
6.250000e+00
6.250000e+00
6.250000e+00
6.250000e+00
6.250000e+00
6.250000e+00
6.250000e+00
6.250000e+00
6.250000e+00
6.250000e+00
6.250000e+00
6.250000e+00
6.250000e+00
6.250000e+00
6.250000e+00
6.250000e+00
6.250000e+00
6.250000e+00
6.250000e+00
6.250000e+00
6.250000e+00
6.250000e+00
6.250000e+00
6.250000e+00
6.250000e+00
6.250000e+00
6.250000e+00
6.250000e+00
6.250000e+00
6.250000e+00
6.250000e+00
6.250000e+00
6.250000e+00
1.250000e+01
1.250000e+01
1.250000e+01
1.250000e+01
1.250000e+01
1.250000e+01
1.250000e+01
1.250000e+01
1.250000e+01
1.250000e+01
1.250000e+01
1.250000e+01
1.250000e+01
1.250000e+01
1.250000e+01
1.250000e+01
1.250000e+01
1.250000e+01
1.250000e+01
1.250000e+01
1.250000e+01
1.250000e+01
1.250000e+01
1.250000e+01
1.250000e+01
1.250000e+01
1.250000e+01
1.250000e+01
1.250000e+01
1.250000e+01
1.250000e+01
1.250000e+01
1.250000e+01
1.875000e+01
1.875000e+01
1.875000e+01
1.875000e+01
1.875000e+01
1.875000e+01
1.875000e+01
1.875000e+01
1.875000e+01
1.875000e+01
1.875000e+01
1.875000e+01
1.875000e+01
1.875000e+01
1.875000e+01
1.875000e+01
1.875000e+01
1.875000e+01
1.875000e+01
1.875000e+01
1.875000e+01
1.875000e+01
1.875000e+01
1.875000e+01
1.875000e+01
1.875000e+01
1.875000e+01
1.875000e+01
1.875000e+01
1.875000e+01
1.875000e+01
1.875000e+01
1.875000e+01
2.500000e+01
2.500000e+01
2.500000e+01
2.500000e+01
2.500000e+01
2.500000e+01
2.500000e+01
2.500000e+01
2.500000e+01
2.500000e+01
2.500000e+01
2.500000e+01
2.500000e+01
2.500000e+01
2.500000e+01
2.500000e+01
2.500000e+01
2.500000e+01
2.500000e+01
2.500000e+01
2.500000e+01
2.500000e+01
2.500000e+01
2.500000e+01
2.500000e+01
2.500000e+01
2.500000e+01
2.500000e+01
2.500000e+01
2.500000e+01
2.500000e+01
2.500000e+01
2.500000e+01
3.125000e+01
3.125000e+01
3.125000e+01
3.125000e+01
3.125000e+01
3.125000e+01
3.125000e+01
3.125000e+01
3.125000e+01
3.125000e+01
3.125000e+01
3.125000e+01
3.125000e+01
3.125000e+01
3.125000e+01
3.125000e+01
3.125000e+01
3.125000e+01
3.125000e+01
3.125000e+01
3.125000e+01
3.125000e+01
3.125000e+01
3.125000e+01
3.125000e+01
3.125000e+01
3.125000e+01
3.125000e+01
3.125000e+01
3.125000e+01
3.125000e+01
3.125000e+01
3.125000e+01
3.750000e+01
3.750000e+01
3.750000e+01
3.750000e+01
3.750000e+01
3.750000e+01
3.750000e+01
3.750000e+01
3.750000e+01
3.750000e+01
3.750000e+01
3.750000e+01
3.750000e+01
3.750000e+01
3.750000e+01
3.750000e+01
3.750000e+01
3.750000e+01
3.750000e+01
3.750000e+01
3.750000e+01
3.750000e+01
3.750000e+01
3.750000e+01
3.750000e+01
3.750000e+01
3.750000e+01
3.750000e+01
3.750000e+01
3.750000e+01
3.750000e+01
3.750000e+01
3.750000e+01
4.375000e+01
4.375000e+01
4.375000e+01
4.375000e+01
4.375000e+01
4.375000e+01
4.375000e+01
4.375000e+01
4.375000e+01
4.375000e+01
4.375000e+01
4.375000e+01
4.375000e+01
4.375000e+01
4.375000e+01
4.375000e+01
4.375000e+01
4.375000e+01
4.375000e+01
4.375000e+01
4.375000e+01
4.375000e+01
4.375000e+01
4.375000e+01
4.375000e+01
4.375000e+01
4.375000e+01
4.375000e+01
4.375000e+01
4.375000e+01
4.375000e+01
4.375000e+01
4.375000e+01
5.000000e+01
5.000000e+01
5.000000e+01
5.000000e+01
5.000000e+01
5.000000e+01
5.000000e+01
5.000000e+01
5.000000e+01
5.000000e+01
5.000000e+01
5.000000e+01
5.000000e+01
5.000000e+01
5.000000e+01
5.000000e+01
5.000000e+01
5.000000e+01
5.000000e+01
5.000000e+01
5.000000e+01
5.000000e+01
5.000000e+01
5.000000e+01
5.000000e+01
5.000000e+01
5.000000e+01
5.000000e+01
5.000000e+01
5.000000e+01
5.000000e+01
5.000000e+01
5.000000e+01
5.625000e+01
5.625000e+01
5.625000e+01
5.625000e+01
5.625000e+01
5.625000e+01
5.625000e+01
5.625000e+01
5.625000e+01
5.625000e+01
5.625000e+01
5.625000e+01
5.625000e+01
5.625000e+01
5.625000e+01
5.625000e+01
5.625000e+01
5.625000e+01
5.625000e+01
5.625000e+01
5.625000e+01
5.625000e+01
5.625000e+01
5.625000e+01
5.625000e+01
5.625000e+01
5.625000e+01
5.625000e+01
5.625000e+01
5.625000e+01
5.625000e+01
5.625000e+01
5.625000e+01
6.250000e+01
6.250000e+01
6.250000e+01
6.250000e+01
6.250000e+01
6.250000e+01
6.250000e+01
6.250000e+01
6.250000e+01
6.250000e+01
6.250000e+01
6.250000e+01
6.250000e+01
6.250000e+01
6.250000e+01
6.250000e+01
6.250000e+01
6.250000e+01
6.250000e+01
6.250000e+01
6.250000e+01
6.250000e+01
6.250000e+01
6.250000e+01
6.250000e+01
6.250000e+01
6.250000e+01
6.250000e+01
6.250000e+01
6.250000e+01
6.250000e+01
6.250000e+01
6.250000e+01
6.875000e+01
6.875000e+01
6.875000e+01
6.875000e+01
6.875000e+01
6.875000e+01
6.875000e+01
6.875000e+01
6.875000e+01
6.875000e+01
6.875000e+01
6.875000e+01
6.875000e+01
6.875000e+01
6.875000e+01
6.875000e+01
6.875000e+01
6.875000e+01
6.875000e+01
6.875000e+01
6.875000e+01
6.875000e+01
6.875000e+01
6.875000e+01
6.875000e+01
6.875000e+01
6.875000e+01
6.875000e+01
6.875000e+01
6.875000e+01
6.875000e+01
6.875000e+01
6.875000e+01
7.500000e+01
7.500000e+01
7.500000e+01
7.500000e+01
7.500000e+01
7.500000e+01
7.500000e+01
7.500000e+01
7.500000e+01
7.500000e+01
7.500000e+01
7.500000e+01
7.500000e+01
7.500000e+01
7.500000e+01
7.500000e+01
7.500000e+01
7.500000e+01
7.500000e+01
7.500000e+01
7.500000e+01
7.500000e+01
7.500000e+01
7.500000e+01
7.500000e+01
7.500000e+01
7.500000e+01
7.500000e+01
7.500000e+01
7.500000e+01
7.500000e+01
7.500000e+01
7.500000e+01
8.125000e+01
8.125000e+01
8.125000e+01
8.125000e+01
8.125000e+01
8.125000e+01
8.125000e+01
8.125000e+01
8.125000e+01
8.125000e+01
8.125000e+01
8.125000e+01
8.125000e+01
8.125000e+01
8.125000e+01
8.125000e+01
8.125000e+01
8.125000e+01
8.125000e+01
8.125000e+01
8.125000e+01
8.125000e+01
8.125000e+01
8.125000e+01
8.125000e+01
8.125000e+01
8.125000e+01
8.125000e+01
8.125000e+01
8.125000e+01
8.125000e+01
8.125000e+01
8.125000e+01
8.750000e+01
8.750000e+01
8.750000e+01
8.750000e+01
8.750000e+01
8.750000e+01
8.750000e+01
8.750000e+01
8.750000e+01
8.750000e+01
8.750000e+01
8.750000e+01
8.750000e+01
8.750000e+01
8.750000e+01
8.750000e+01
8.750000e+01
8.750000e+01
8.750000e+01
8.750000e+01
8.750000e+01
8.750000e+01
8.750000e+01
8.750000e+01
8.750000e+01
8.750000e+01
8.750000e+01
8.750000e+01
8.750000e+01
8.750000e+01
8.750000e+01
8.750000e+01
8.750000e+01
9.375000e+01
9.375000e+01
9.375000e+01
9.375000e+01
9.375000e+01
9.375000e+01
9.375000e+01
9.375000e+01
9.375000e+01
9.375000e+01
9.375000e+01
9.375000e+01
9.375000e+01
9.375000e+01
9.375000e+01
9.375000e+01
9.375000e+01
9.375000e+01
9.375000e+01
9.375000e+01
9.375000e+01
9.375000e+01
9.375000e+01
9.375000e+01
9.375000e+01
9.375000e+01
9.375000e+01
9.375000e+01
9.375000e+01
9.375000e+01
9.375000e+01
9.375000e+01
9.375000e+01
1.000000e+02
1.000000e+02
1.000000e+02
1.000000e+02
1.000000e+02
1.000000e+02
1.000000e+02
1.000000e+02
1.000000e+02
1.000000e+02
1.000000e+02
1.000000e+02
1.000000e+02
1.000000e+02
1.000000e+02
1.000000e+02
1.000000e+02
1.000000e+02
1.000000e+02
1.000000e+02
1.000000e+02
1.000000e+02
1.000000e+02
1.000000e+02
1.000000e+02
1.000000e+02
1.000000e+02
1.000000e+02
1.000000e+02
1.000000e+02
1.000000e+02
1.000000e+02
1.000000e+02
0.000000e+00
-4.348178e-01
-7.654025e-01
-1.090781e+00
-1.403216e+00
-1.701849e+00
-2.008201e+00
-2.306769e+00
-2.605391e+00
-2.907393e+00
-3.205385e+00
-3.505169e+00
-3.805573e+00
-4.103853e+00
-4.403669e+00
-4.703194e+00
-5.001786e+00
-5.301771e+00
-5.601524e+00
-5.900963e+00
-6.202154e+00
-6.503774e+00
-6.805317e+00
-7.109537e+00
-7.415347e+00
-7.722096e+00
-8.036877e+00
-8.358215e+00
-8.683893e+00
-9.051264e+00
-9.517938e+00
-9.938939e+00
-1.014566e+01
0.000000e+00
-2.329512e-01
-4.826971e-01
-7.442001e-01
-1.009753e+00
-1.265908e+00
-1.533078e+00
-1.794926e+00
-2.056586e+00
-2.321682e+00
-2.582987e+00
-2.845768e+00
-3.109233e+00
-3.370708e+00
-3.633480e+00
-3.895948e+00
-4.157375e+00
-4.419780e+00
-4.681641e+00
-4.942663e+00
-5.204559e+00
-5.466061e+00
-5.726460e+00
-5.988023e+00
-6.249300e+00
-6.508648e+00
-6.770801e+00
-7.031567e+00
-7.286305e+00
-7.549319e+00
-7.793813e+00
-7.891811e+00
-7.997369e+00
0.000000e+00
-1.260862e-01
-2.741628e-01
-4.662516e-01
-6.762152e-01
-8.854965e-01
-1.109729e+00
-1.331757e+00
-1.554936e+00
-1.781529e+00
-2.005699e+00
-2.231474e+00
-2.458148e+00
-2.683640e+00
-2.910279e+00
-3.136810e+00
-3.362577e+00
-3.588898e+00
-3.814540e+00
-4.039089e+00
-4.263539e+00
-4.486826e+00
-4.708188e+00
-4.928693e+00
-5.146715e+00
-5.359679e+00
-5.567706e+00
-5.765289e+00
-5.944209e+00
-6.095170e+00
-6.175730e+00
-6.180231e+00
-6.272265e+00
0.000000e+00
-8.133128e-02
-1.683801e-01
-2.973356e-01
-4.411147e-01
-6.003011e-01
-7.766245e-01
-9.549086e-01
-1.138157e+00
-1.325573e+00
-1.512555e+00
-1.701899e+00
-1.892426e+00
-2.082699e+00
-2.274247e+00
-2.465890e+00
-2.657127e+00
-2.848604e+00
-3.039305e+00
-3.228798e+00
-3.417312e+00
-3.603901e+00
-3.787544e+00
-3.967617e+00
-4.141860e+00
-4.306601e+00
-4.458161e+00
-4.590377e+00
-4.693362e+00
-4.755763e+00
-4.767138e+00
-4.779989e+00
-4.860593e+00
0.000000e+00
-8.351286e-02
-1.609079e-01
-2.547652e-01
-3.600121e-01
-4.818047e-01
-6.145315e-01
-7.524717e-01
-8.967270e-01
-1.043131e+00
-1.190610e+00
-1.340078e+00
-1.490006e+00
-1.640671e+00
-1.792181e+00
-1.943601e+00
-2.094911e+00
-2.245784e+00
-2.395544e+00
-2.543749e+00
-2.689676e+00
-2.832273e+00
-2.970094e+00
-3.101296e+00
-3.223444e+00
-3.333355e+00
-3.427277e+00
-3.500403e+00
-3.547269e+00
-3.563449e+00
-3.557467e+00
-3.584582e+00
-3.658778e+00
0.000000e+00
-6.989466e-02
-1.377065e-01
-2.079442e-01
-2.878899e-01
-3.754357e-01
-4.706703e-01
-5.718173e-01
-6.759215e-01
-7.824840e-01
-8.905788e-01
-9.996252e-01
-1.109862e+00
-1.220897e+00
-1.332393e+00
-1.444127e+00
-1.555561e+00
-1.666245e+00
-1.775660e+00
-1.882947e+00
-1.987048e+00
-2.086661e+00
-2.180059e+00
-2.265183e+00
-2.339839e+00
-2.401695e+00
-2.448412e+00
-2.477377e+00
-2.485283e+00
-2.472958e+00
-2.465438e+00
-2.494130e+00
-2.563284e+00
0.000000e+00
-4.946396e-02
-9.784421e-02
-1.474086e-01
-2.004012e-01
-2.581138e-01
-3.200649e-01
-3.853684e-01
-4.529960e-01
-5.221780e-01
-5.925650e-01
-6.638825e-01
-7.359203e-01
-8.084827e-01
-8.812607e-01
-9.539038e-01
-1.026021e+00
-1.097125e+00
-1.166599e+00
-1.233602e+00
-1.297021e+00
-1.355486e+00
-1.407352e+00
-1.450758e+00
-1.483747e+00
-1.504421e+00
-1.510835e+00
-1.500428e+00
-1.474103e+00
-1.442120e+00
-1.430492e+00
-1.459227e+00
-1.528133e+00
0.000000e+00
-2.620143e-02
-5.205653e-02
-7.818133e-02
-1.056019e-01
-1.348602e-01
-1.659787e-01
-1.985664e-01
-2.321952e-01
-2.665385e-01
-3.013214e-01
-3.363113e-01
-3.713091e-01
-4.061180e-01
-4.405119e-01
-4.742202e-01
-5.069239e-01
-5.382300e-01
-5.676254e-01
-5.944212e-01
-6.176966e-01
-6.362705e-01
-6.487173e-01
-6.534122e-01
-6.485420e-01
-6.319507e-01
-6.011116e-01
-5.560506e-01
-5.049269e-01
-4.612603e-01
-4.471589e-01
-4.767994e-01
-5.476289e-01
0.000000e+00
-1.919340e-03
-3.838682e-03
-5.711941e-03
-7.495410e-03
-9.142373e-03
-1.059287e-02
-1.177214e-02
-1.260073e-02
-1.299944e-02
-1.287476e-02
-1.210274e-02
-1.053339e-02
-8.003007e-03
-4.336287e-03
6.598962e-04
7.210780e-03
1.558896e-02
2.613577e-02
3.930344e-02
5.571535e-02
7.624186e-02
1.020624e-01
1.347014e-01
1.760429e-01
2.279554e-01
2.906654e-01
3.594529e-01
4.233513e-01
4.686302e-01
4.795714e-01
4.461656e-01
3.754771e-01
0.000000e+00
2.241528e-02
4.449387e-02
6.694951e-02
9.089317e-02
1.169511e-01
1.452450e-01
1.755133e-01
2.074730e-01
2.409523e-01
2.758706e-01
3.122528e-01
3.502050e-01
3.898629e-01
4.313615e-01
4.748343e-01
5.204287e-01
5.683133e-01
6.186778e-01
6.717461e-01
7.278294e-01
7.874617e-01
8.515637e-01
9.214268e-01
9.980903e-01
1.081014e+00
1.166783e+00
1.248096e+00
1.314392e+00
1.353853e+00
1.356153e+00
1.320316e+00
1.259248e+00
0.000000e+00
4.586092e-02
9.067392e-02
1.368095e-01
1.866173e-01
2.414653e-01
3.009472e-01
3.642384e-01
4.303735e-01
4.987043e-01
5.691053e-01
6.415975e-01
7.162699e-01
7.932325e-01
8.725341e-01
9.542522e-01
1.038504e+00
1.125413e+00
1.215130e+00
1.307795e+00
1.403573e+00
1.502722e+00
1.605401e+00
1.711236e+00
1.818791e+00
1.925033e+00
2.025027e+00
2.111274e+00
2.174443e+00
2.206307e+00
2.204210e+00
2.174164e+00
2.128991e+00
0.000000e+00
6.664301e-02
1.312366e-01
1.984737e-01
2.757216e-01
3.610395e-01
4.546258e-01
5.547252e-01
6.583305e-01
7.649590e-01
8.739045e-01
9.849169e-01
1.098501e+00
1.214507e+00
1.332883e+00
1.453751e+00
1.577052e+00
1.702895e+00
1.831428e+00
1.962663e+00
2.096566e+00
2.232783e+00
2.369985e+00
2.505690e+00
2.636760e+00
2.759297e+00
2.867999e+00
2.956304e+00
3.017928e+00
3.049797e+00
3.053410e+00
3.034913e+00
3.005948e+00
0.000000e+00
8.069311e-02
1.554911e-01
2.467818e-01
3.500010e-01
4.703000e-01
6.022426e-01
7.402925e-01
8.854186e-01
1.033414e+00
1.183462e+00
1.336749e+00
1.492045e+00
1.649887e+00
1.810546e+00
1.973300e+00
2.138352e+00
2.305462e+00
2.473951e+00
2.643368e+00
2.812889e+00
2.981227e+00
3.146303e+00
3.305320e+00
3.455198e+00
3.591962e+00
3.710464e+00
3.805482e+00
3.873491e+00
3.913437e+00
3.927021e+00
3.920167e+00
3.904814e+00
0.000000e+00
7.915826e-02
1.641742e-01
2.911331e-01
4.333703e-01
5.915475e-01
7.672595e-01
9.455378e-01
1.129546e+00
1.318489e+00
1.508088e+00
1.701450e+00
1.897650e+00
2.095675e+00
2.297274e+00
2.501361e+00
2.707472e+00
2.915748e+00
3.124375e+00
3.331952e+00
3.537227e+00
3.737762e+00
3.931214e+00
4.115790e+00
4.288889e+00
4.445774e+00
4.580322e+00
4.687773e+00
4.765936e+00
4.815065e+00
4.837949e+00
4.840843e+00
4.835682e+00
0.000000e+00
1.249061e-01
2.717155e-01
4.624656e-01
6.714550e-01
8.801254e-01
1.103858e+00
1.325556e+00
1.548679e+00
1.775506e+00
2.000375e+00
2.227496e+00
2.456303e+00
2.684954e+00
2.915982e+00
3.148222e+00
3.381036e+00
3.615409e+00
3.849555e+00
4.082307e+00
4.313188e+00
4.539639e+00
4.759532e+00
4.972215e+00
5.173907e+00
5.355155e+00
5.506668e+00
5.624619e+00
5.709536e+00
5.764194e+00
5.792950e+00
5.802352e+00
5.803394e+00
0.000000e+00
2.330380e-01
4.827078e-01
7.439410e-01
1.009310e+00
1.265417e+00
1.532341e+00
1.793830e+00
2.055109e+00
2.319713e+00
2.580409e+00
2.842432e+00
3.104941e+00
3.365200e+00
3.626439e+00
3.887014e+00
4.146011e+00
4.405278e+00
4.663312e+00
4.919662e+00
5.175343e+00
5.428422e+00
5.676918e+00
5.919526e+00
6.148376e+00
6.348723e+00
6.510224e+00
6.631209e+00
6.714706e+00
6.766123e+00
6.792547e+00
6.802189e+00
6.804531e+00
0.000000e+00
4.359113e-01
7.676157e-01
1.094066e+00
1.407446e+00
1.706941e+00
2.013753e+00
2.312466e+00
2.611064e+00
2.912693e+00
3.209867e+00
3.508221e+00
3.806338e+00
4.101228e+00
4.396246e+00
4.689374e+00
4.979715e+00
5.269516e+00
5.557676e+00
5.844513e+00
6.132053e+00
6.418700e+00
6.701886e+00
6.977304e+00
7.231254e+00
7.445256e+00
7.609406e+00
7.723547e+00
7.792243e+00
7.823681e+00
7.829783e+00
7.825350e+00
7.822767e+00
0.000000e+00
-2.639204e-01
-5.468627e-01
-9.058305e-01
-1.309037e+00
-1.753767e+00
-2.239200e+00
-2.758442e+00
-3.315007e+00
-3.907490e+00
-4.535375e+00
-5.200738e+00
-5.902398e+00
-6.640845e+00
-7.416910e+00
-8.229884e+00
-9.080455e+00
-9.969069e+00
-1.089542e+01
-1.186039e+01
-1.286462e+01
-1.390813e+01
-1.499213e+01
-1.611793e+01
-1.728607e+01
-1.849951e+01
-1.976251e+01
-2.107888e+01
-2.245902e+01
-2.392058e+01
-2.547988e+01
-2.729328e+01
-2.984603e+01
0.000000e+00
-1.657282e-01
-4.640193e-01
-8.193018e-01
-1.225688e+00
-1.669751e+00
-2.154761e+00
-2.675040e+00
-3.230785e+00
-3.823433e+00
-4.451601e+00
-5.116483e+00
-5.818419e+00
-6.556900e+00
-7.332757e+00
-8.145980e+00
-8.996483e+00
-9.884988e+00
-1.081156e+01
-1.177640e+01
-1.278046e+01
-1.382416e+01
-1.490795e+01
-1.603337e+01
-1.720166e+01
-1.841432e+01
-1.967608e+01
-2.099271e+01
-2.237083e+01
-2.382568e+01
-2.540442e+01
-2.720383e+01
-2.946853e+01
0.000000e+00
-1.381508e-01
-4.071146e-01
-7.579837e-01
-1.160071e+00
-1.600893e+00
-2.084904e+00
-2.604398e+00
-3.159396e+00
-3.751972e+00
-4.379791e+00
-5.044331e+00
-5.746262e+00
-6.484561e+00
-7.260366e+00
-8.073708e+00
-8.924199e+00
-9.812858e+00
-1.073974e+01
-1.170479e+01
-1.270920e+01
-1.375343e+01
-1.483758e+01
-1.596351e+01
-1.713276e+01
-1.834628e+01
-1.960961e+01
-2.092930e+01
-2.231226e+01
-2.378765e+01
-2.540405e+01
-2.710023e+01
-2.886339e+01
0.000000e+00
-1.591798e-01
-3.979030e-01
-7.340766e-01
-1.121299e+00
-1.554136e+00
-2.034594e+00
-2.550236e+00
-3.103660e+00
-3.695213e+00
-4.321642e+00
-4.985637e+00
-5.687041e+00
-6.424859e+00
-7.200639e+00
-8.013949e+00
-8.864552e+00
-9.753617e+00
-1.068104e+01
-1.164684e+01
-1.265223e+01
-1.369766e+01
-1.478324e+01
-1.591091e+01
-1.708241e+01
-1.829917e+01
-1.956669e+01
-2.089177e+01
-2.228414e+01
-2.377728e+01
-2.538516e+01
-2.694763e+01
-2.836543e+01
0.000000e+00
-1.899016e-01
-4.262907e-01
-7.448951e-01
-1.114803e+00
-1.536768e+00
-2.008062e+00
-2.517506e+00
-3.067562e+00
-3.656108e+00
-4.280566e+00
-4.943329e+00
-5.643515e+00
-6.380796e+00
-7.156320e+00
-7.969509e+00
-8.820511e+00
-9.710152e+00
-1.063846e+01
-1.160573e+01
-1.261279e+01
-1.366020e+01
-1.474841e+01
-1.587890e+01
-1.705343e+01
-1.827421e+01
-1.954611e+01
-2.087517e+01
-2.226966e+01
-2.375102e+01
-2.529423e+01
-2.674337e+01
-2.800986e+01
0.000000e+00
-2.005053e-01
-4.479660e-01
-7.543728e-01
-1.116517e+00
-1.529762e+00
-1.991794e+00
-2.496972e+00
-3.043027e+00
-3.628644e+00
-4.252120e+00
-4.913596e+00
-5.613001e+00
-6.350147e+00
-7.125424e+00
-7.938823e+00
-8.790491e+00
-9.680956e+00
-1.061059e+01
-1.157979e+01
-1.258918e+01
-1.363934e+01
-1.473091e+01
-1.586488e+01
-1.704261e+01
-1.826629e+01
-1.954002e+01
-2.086804e+01
-2.224919e+01
-2.369229e+01
-2.514592e+01
-2.651613e+01
-2.770597e+01
0.000000e+00
-2.049231e-01
-4.571085e-01
-7.612516e-01
-1.118321e+00
-1.526583e+00
-1.983080e+00
-2.484467e+00
-3.027902e+00
-3.611561e+00
-4.234259e+00
-4.895294e+00
-5.594415e+00
-6.331656e+00
-7.107126e+00
-7.920965e+00
-8.773459e+00
-9.665041e+00
-1.059622e+01
-1.156755e+01
-1.257954e+01
-1.363273e+01
-1.472765e+01
-1.586489e+01
-1.704511e+01
-1.826949e+01
-1.954099e+01
-2.085968e+01
-2.221462e+01
-2.360759e+01
-2.498634e+01
-2.628618e+01
-2.741859e+01
0.000000e+00
-2.067391e-01
-4.608267e-01
-7.648258e-01
-1.119964e+00
-1.525592e+00
-1.979540e+00
-2.478837e+00
-3.020859e+00
-3.603776e+00
-4.226303e+00
-4.887527e+00
-5.587018e+00
-6.324754e+00
-7.100831e+00
-7.915433e+00
-8.768914e+00
-9.661748e+00
-1.059451e+01
-1.156781e+01
-1.258219e+01
-1.363806e+01
-1.473570e+01
-1.587525e+01
-1.705651e+01
-1.827894e+01
-1.954276e+01
-2.084343e+01
-2.216664e+01
-2.350929e+01
-2.482598e+01
-2.605692e+01
-2.712804e+01
0.000000e+00
-2.072052e-01
-4.619024e-01
-7.660962e-01
-1.120967e+00
-1.526154e+00
-1.979733e+00
-2.478903e+00
-3.021077e+00
-3.604423e+00
-4.227611e+00
-4.889662e+00
-5.590094e+00
-6.328832e+00
-7.105944e+00
-7.921627e+00
-8.776263e+00
-9.670350e+00
-1.060450e+01
-1.157936e+01
-1.259546e+01
-1.365311e+01
-1.475232e+01
-1.589264e+01
-1.707252e+01
-1.828920e+01
-1.953989e+01
-2.081802e+01
-2.210994e+01
-2.340434e+01
-2.466433e+01
-2.582711e+01
-2.683378e+01
0.000000e+00
-2.067104e-01
-4.609991e-01
-7.654527e-01
-1.121316e+00
-1.527957e+00
-1.983249e+00
-2.484238e+00
-3.028202e+00
-3.613179e+00
-4.237845e+00
-4.901337e+00
-5.603230e+00
-6.343439e+00
-7.121990e+00
-7.939039e+00
-8.794946e+00
-9.690188e+00
-1.062536e+01
-1.160110e+01
-1.261789e+01
-1.367596e+01
-1.477500e+01
-1.591358e+01
-1.708865e+01
-1.829592e+01
-1.953117e+01
-2.078683e+01
-2.204911e+01
-2.329993e+01
-2.450530e+01
-2.561131e+01
-2.657400e+01
0.000000e+00
-2.048743e-01
-4.574815e-01
-7.625458e-01
-1.121069e+00
-1.531345e+00
-1.990491e+00
-2.495181e+00
-3.042389e+00
-3.630034e+00
-4.256892e+00
-4.922360e+00
-5.626170e+00
-6.368238e+00
-7.148543e+00
-7.967150e+00
-8.824348e+00
-9.720557e+00
-1.065627e+01
-1.163200e+01
-1.264810e+01
-1.370470e+01
-1.480103e+01
-1.593480e+01
-1.710231e+01
-1.829896e+01
-1.951933e+01
-2.075459e+01
-2.198959e+01
-2.320232e+01
-2.436230e+01
-2.543158e+01
-2.637698e+01
0.000000e+00
-2.004633e-01
-4.486004e-01
-7.564258e-01
-1.120771e+00
-1.537052e+00
-2.002995e+00
-2.512948e+00
-3.064389e+00
-3.655678e+00
-4.285108e+00
-4.952958e+00
-5.659079e+00
-6.403118e+00
-7.185290e+00
-8.005430e+00
-8.863662e+00
-9.760436e+00
-1.069596e+01
-1.167049e+01
-1.268431e+01
-1.373734e+01
-1.482848e+01
-1.595535e+01
-1.711466e+01
-1.830170e+01
-1.950955e+01
-2.072738e+01
-2.193818e+01
-2.311996e+01
-2.424858e+01
-2.529876e+01
-2.624563e+01
0.000000e+00
-1.899203e-01
-4.272665e-01
-7.477995e-01
-1.120716e+00
-1.546737e+00
-2.023175e+00
-2.538695e+00
-3.095511e+00
-3.691225e+00
-4.323269e+00
-4.994132e+00
-5.702791e+00
-6.448710e+00
-7.232771e+00
-8.054137e+00
-8.912838e+00
-9.809433e+00
-1.074362e+01
-1.171552e+01
-1.272554e+01
-1.377338e+01
-1.485788e+01
-1.597746e+01
-1.712985e+01
-1.831005e+01
-1.950880e+01
-2.071211e+01
-2.190207e+01
-2.305987e+01
-2.416791e+01
-2.520982e+01
-2.616996e+01
0.000000e+00
-1.592624e-01
-3.991613e-01
-7.377819e-01
-1.128673e+00
-1.566460e+00
-2.053004e+00
-2.575626e+00
-3.136873e+00
-3.736876e+00
-4.372327e+00
-5.045968e+00
-5.757381e+00
-6.505295e+00
-7.290945e+00
-8.113397e+00
-8.972082e+00
-9.867695e+00
-1.079962e+01
-1.176776e+01
-1.277299e+01
-1.381499e+01
-1.489287e+01
-1.600655e+01
-1.715483e+01
-1.833119e+01
-1.952244e+01
-2.071219e+01
-2.188405e+01
-2.302315e+01
-2.411703e+01
-2.515658e+01
-2.613655e+01
0.000000e+00
-1.379959e-01
-4.082747e-01
-7.617595e-01
-1.167834e+00
-1.613920e+00
-2.104329e+00
-2.631124e+00
-3.194314e+00
-3.795924e+00
-4.433461e+00
-5.108431e+00
-5.821267e+00
-6.570537e+00
-7.357075e+00
-8.180247e+00
-9.038998e+00
-9.933764e+00
-1.086384e+01
-1.182890e+01
-1.283001e+01
-1.386716e+01
-1.494020e+01
-1.605036e+01
-1.719628e+01
-1.836817e+01
-1.955009e+01
-2.072628e+01
-2.188277e+01
-2.300726e+01
-2.409064e+01
-2.512977e+01
-2.613020e+01
0.000000e+00
-1.655144e-01
-4.651042e-01
-8.230363e-01
-1.233510e+00
-1.682912e+00
-2.174356e+00
-2.702006e+00
-3.266033e+00
-3.867857e+00
-4.505947e+00
-5.181477e+00
-5.894561e+00
-6.644268e+00
-7.431077e+00
-8.254259e+00
-9.112918e+00
-1.000710e+01
-1.093603e+01
-1.189947e+01
-1.289832e+01
-1.393281e+01
-1.500353e+01
-1.611162e+01
-1.725346e+01
-1.841709e+01
-1.958725e+01
-2.075032e+01
-2.189388e+01
-2.300690e+01
-2.408212e+01
-2.512006e+01
-2.613467e+01
0.000000e+00
-2.639589e-01
-5.481142e-01
-9.097235e-01
-1.317018e+00
-1.767056e+00
-2.258842e+00
-2.785422e+00
-3.350238e+00
-3.951839e+00
-4.589581e+00
-5.265486e+00
-5.978143e+00
-6.727616e+00
-7.514364e+00
-8.336958e+00
-9.195235e+00
-1.008902e+01
-1.101724e+01
-1.198018e+01
-1.297844e+01
-1.401188e+01