TITLE = "Solution"
VARIABLES = x, y, u, v, psiu, psiv, t, stress
ZONE T="structure" N=561 E=512 F=FEBLOCK ET=QUADRILATERAL VARLOCATION=([7,8]=cellcentered)
0.000000e+00
6.250000e+00
1.250000e+01
1.875000e+01
2.500000e+01
3.125000e+01
3.750000e+01
4.375000e+01
5.000000e+01
5.625000e+01
6.250000e+01
6.875000e+01
7.500000e+01
8.125000e+01
8.750000e+01
9.375000e+01
1.000000e+02
1.062500e+02
1.125000e+02
1.187500e+02
1.250000e+02
1.312500e+02
1.375000e+02
1.437500e+02
1.500000e+02
1.562500e+02
1.625000e+02
1.687500e+02
1.750000e+02
1.812500e+02
1.875000e+02
1.937500e+02
2.000000e+02
0.000000e+00
6.250000e+00
1.250000e+01
1.875000e+01
2.500000e+01
3.125000e+01
3.750000e+01
4.375000e+01
5.000000e+01
5.625000e+01
6.250000e+01
6.875000e+01
7.500000e+01
8.125000e+01
8.750000e+01
9.375000e+01
1.000000e+02
1.062500e+02
1.125000e+02
1.187500e+02
1.250000e+02
1.312500e+02
1.375000e+02
1.437500e+02
1.500000e+02
1.562500e+02
1.625000e+02
1.687500e+02
1.750000e+02
1.812500e+02
1.875000e+02
1.937500e+02
2.000000e+02
0.000000e+00
6.250000e+00
1.250000e+01
1.875000e+01
2.500000e+01
3.125000e+01
3.750000e+01
4.375000e+01
5.000000e+01
5.625000e+01
6.250000e+01
6.875000e+01
7.500000e+01
8.125000e+01
8.750000e+01
9.375000e+01
1.000000e+02
1.062500e+02
1.125000e+02
1.187500e+02
1.250000e+02
1.312500e+02
1.375000e+02
1.437500e+02
1.500000e+02
1.562500e+02
1.625000e+02
1.687500e+02
1.750000e+02
1.812500e+02
1.875000e+02
1.937500e+02
2.000000e+02
0.000000e+00
6.250000e+00
1.250000e+01
1.875000e+01
2.500000e+01
3.125000e+01
3.750000e+01
4.375000e+01
5.000000e+01
5.625000e+01
6.250000e+01
6.875000e+01
7.500000e+01
8.125000e+01
8.750000e+01
9.375000e+01
1.000000e+02
1.062500e+02
1.125000e+02
1.187500e+02
1.250000e+02
1.312500e+02
1.375000e+02
1.437500e+02
1.500000e+02
1.562500e+02
1.625000e+02
1.687500e+02
1.750000e+02
1.812500e+02
1.875000e+02
1.937500e+02
2.000000e+02
0.000000e+00
6.250000e+00
1.250000e+01
1.875000e+01
2.500000e+01
3.125000e+01
3.750000e+01
4.375000e+01
5.000000e+01
5.625000e+01
6.250000e+01
6.875000e+01
7.500000e+01
8.125000e+01
8.750000e+01
9.375000e+01
1.000000e+02
1.062500e+02
1.125000e+02
1.187500e+02
1.250000e+02
1.312500e+02
1.375000e+02
1.437500e+02
1.500000e+02
1.562500e+02
1.625000e+02
1.687500e+02
1.750000e+02
1.812500e+02
1.875000e+02
1.937500e+02
2.000000e+02
0.000000e+00
6.250000e+00
1.250000e+01
1.875000e+01
2.500000e+01
3.125000e+01
3.750000e+01
4.375000e+01
5.000000e+01
5.625000e+01
6.250000e+01
6.875000e+01
7.500000e+01
8.125000e+01
8.750000e+01
9.375000e+01
1.000000e+02
1.062500e+02
1.125000e+02
1.187500e+02
1.250000e+02
1.312500e+02
1.375000e+02
1.437500e+02
1.500000e+02
1.562500e+02
1.625000e+02
1.687500e+02
1.750000e+02
1.812500e+02
1.875000e+02
1.937500e+02
2.000000e+02
0.000000e+00
6.250000e+00
1.250000e+01
1.875000e+01
2.500000e+01
3.125000e+01
3.750000e+01
4.375000e+01
5.000000e+01
5.625000e+01
6.250000e+01
6.875000e+01
7.500000e+01
8.125000e+01
8.750000e+01
9.375000e+01
1.000000e+02
1.062500e+02
1.125000e+02
1.187500e+02
1.250000e+02
1.312500e+02
1.375000e+02
1.437500e+02
1.500000e+02
1.562500e+02
1.625000e+02
1.687500e+02
1.750000e+02
1.812500e+02
1.875000e+02
1.937500e+02
2.000000e+02
0.000000e+00
6.250000e+00
1.250000e+01
1.875000e+01
2.500000e+01
3.125000e+01
3.750000e+01
4.375000e+01
5.000000e+01
5.625000e+01
6.250000e+01
6.875000e+01
7.500000e+01
8.125000e+01
8.750000e+01
9.375000e+01
1.000000e+02
1.062500e+02
1.125000e+02
1.187500e+02
1.250000e+02
1.312500e+02
1.375000e+02
1.437500e+02
1.500000e+02
1.562500e+02
1.625000e+02
1.687500e+02
1.750000e+02
1.812500e+02
1.875000e+02
1.937500e+02
2.000000e+02
0.000000e+00
6.250000e+00
1.250000e+01
1.875000e+01
2.500000e+01
3.125000e+01
3.750000e+01
4.375000e+01
5.000000e+01
5.625000e+01
6.250000e+01
6.875000e+01
7.500000e+01
8.125000e+01
8.750000e+01
9.375000e+01
1.000000e+02
1.062500e+02
1.125000e+02
1.187500e+02
1.250000e+02
1.312500e+02
1.375000e+02
1.437500e+02
1.500000e+02
1.562500e+02
1.625000e+02
1.687500e+02
1.750000e+02
1.812500e+02
1.875000e+02
1.937500e+02
2.000000e+02
0.000000e+00
6.250000e+00
1.250000e+01
1.875000e+01
2.500000e+01
3.125000e+01
3.750000e+01
4.375000e+01
5.000000e+01
5.625000e+01
6.250000e+01
6.875000e+01
7.500000e+01
8.125000e+01
8.750000e+01
9.375000e+01
1.000000e+02
1.062500e+02
1.125000e+02
1.187500e+02
1.250000e+02
1.312500e+02
1.375000e+02
1.437500e+02
1.500000e+02
1.562500e+02
1.625000e+02
1.687500e+02
1.750000e+02
1.812500e+02
1.875000e+02
1.937500e+02
2.000000e+02
0.000000e+00
6.250000e+00
1.250000e+01
1.875000e+01
2.500000e+01
3.125000e+01
3.750000e+01
4.375000e+01
5.000000e+01
5.625000e+01
6.250000e+01
6.875000e+01
7.500000e+01
8.125000e+01
8.750000e+01
9.375000e+01
1.000000e+02
1.062500e+02
1.125000e+02
1.187500e+02
1.250000e+02
1.312500e+02
1.375000e+02
1.437500e+02
1.500000e+02
1.562500e+02
1.625000e+02
1.687500e+02
1.750000e+02
1.812500e+02
1.875000e+02
1.937500e+02
2.000000e+02
0.000000e+00
6.250000e+00
1.250000e+01
1.875000e+01
2.500000e+01
3.125000e+01
3.750000e+01
4.375000e+01
5.000000e+01
5.625000e+01
6.250000e+01
6.875000e+01
7.500000e+01
8.125000e+01
8.750000e+01
9.375000e+01
1.000000e+02
1.062500e+02
1.125000e+02
1.187500e+02
1.250000e+02
1.312500e+02
1.375000e+02
1.437500e+02
1.500000e+02
1.562500e+02
1.625000e+02
1.687500e+02
1.750000e+02
1.812500e+02
1.875000e+02
1.937500e+02
2.000000e+02
0.000000e+00
6.250000e+00
1.250000e+01
1.875000e+01
2.500000e+01
3.125000e+01
3.750000e+01
4.375000e+01
5.000000e+01
5.625000e+01
6.250000e+01
6.875000e+01
7.500000e+01
8.125000e+01
8.750000e+01
9.375000e+01
1.000000e+02
1.062500e+02
1.125000e+02
1.187500e+02
1.250000e+02
1.312500e+02
1.375000e+02
1.437500e+02
1.500000e+02
1.562500e+02
1.625000e+02
1.687500e+02
1.750000e+02
1.812500e+02
1.875000e+02
1.937500e+02
2.000000e+02
0.000000e+00
6.250000e+00
1.250000e+01
1.875000e+01
2.500000e+01
3.125000e+01
3.750000e+01
4.375000e+01
5.000000e+01
5.625000e+01
6.250000e+01
6.875000e+01
7.500000e+01
8.125000e+01
8.750000e+01
9.375000e+01
1.000000e+02
1.062500e+02
1.125000e+02
1.187500e+02
1.250000e+02
1.312500e+02
1.375000e+02
1.437500e+02
1.500000e+02
1.562500e+02
1.625000e+02
1.687500e+02
1.750000e+02
1.812500e+02
1.875000e+02
1.937500e+02
2.000000e+02
0.000000e+00
6.250000e+00
1.250000e+01
1.875000e+01
2.500000e+01
3.125000e+01
3.750000e+01
4.375000e+01
5.000000e+01
5.625000e+01
6.250000e+01
6.875000e+01
7.500000e+01
8.125000e+01
8.750000e+01
9.375000e+01
1.000000e+02
1.062500e+02
1.125000e+02
1.187500e+02
1.250000e+02
1.312500e+02
1.375000e+02
1.437500e+02
1.500000e+02
1.562500e+02
1.625000e+02
1.687500e+02
1.750000e+02
1.812500e+02
1.875000e+02
1.937500e+02
2.000000e+02
0.000000e+00
6.250000e+00
1.250000e+01
1.875000e+01
2.500000e+01
3.125000e+01
3.750000e+01
4.375000e+01
5.000000e+01
5.625000e+01
6.250000e+01
6.875000e+01
7.500000e+01
8.125000e+01
8.750000e+01
9.375000e+01
1.000000e+02
1.062500e+02
1.125000e+02
1.187500e+02
1.250000e+02
1.312500e+02
1.375000e+02
1.437500e+02
1.500000e+02
1.562500e+02
1.625000e+02
1.687500e+02
1.750000e+02
1.812500e+02
1.875000e+02
1.937500e+02
2.000000e+02
0.000000e+00
6.250000e+00
1.250000e+01
1.875000e+01
2.500000e+01
3.125000e+01
3.750000e+01
4.375000e+01
5.000000e+01
5.625000e+01
6.250000e+01
6.875000e+01
7.500000e+01
8.125000e+01
8.750000e+01
9.375000e+01
1.000000e+02
1.062500e+02
1.125000e+02
1.187500e+02
1.250000e+02
1.312500e+02
1.375000e+02
1.437500e+02
1.500000e+02
1.562500e+02
1.625000e+02
1.687500e+02
1.750000e+02
1.812500e+02
1.875000e+02
1.937500e+02
2.000000e+02
0.000000e+00
0.000000e+00
0.000000e+00
0.000000e+00
0.000000e+00
0.000000e+00
0.000000e+00
0.000000e+00
0.000000e+00
0.000000e+00
0.000000e+00
0.000000e+00
0.000000e+00
0.000000e+00
0.000000e+00
0.000000e+00
0.000000e+00
0.000000e+00
0.000000e+00
0.000000e+00
0.000000e+00
0.000000e+00
0.000000e+00
0.000000e+00
0.000000e+00
0.000000e+00
0.000000e+00
0.000000e+00
0.000000e+00
0.000000e+00
0.000000e+00
0.000000e+00
0.000000e+00
6.250000e+00
6.250000e+00
6.250000e+00
6.250000e+00
6.250000e+00
6.250000e+00
6.250000e+00
6.250000e+00
6.250000e+00
6.250000e+00
6.250000e+00
6.250000e+00
6.250000e+00
6.250000e+00
6.250000e+00
6.250000e+00
6.250000e+00
6.250000e+00
6.250000e+00
6.250000e+00
6.250000e+00
6.250000e+00
6.250000e+00
6.250000e+00
6.250000e+00
6.250000e+00
6.250000e+00
6.250000e+00
6.250000e+00
6.250000e+00
6.250000e+00
6.250000e+00
6.250000e+00
1.250000e+01
1.250000e+01
1.250000e+01
1.250000e+01
1.250000e+01
1.250000e+01
1.250000e+01
1.250000e+01
1.250000e+01
1.250000e+01
1.250000e+01
1.250000e+01
1.250000e+01
1.250000e+01
1.250000e+01
1.250000e+01
1.250000e+01
1.250000e+01
1.250000e+01
1.250000e+01
1.250000e+01
1.250000e+01
1.250000e+01
1.250000e+01
1.250000e+01
1.250000e+01
1.250000e+01
1.250000e+01
1.250000e+01
1.250000e+01
1.250000e+01
1.250000e+01
1.250000e+01
1.875000e+01
1.875000e+01
1.875000e+01
1.875000e+01
1.875000e+01
1.875000e+01
1.875000e+01
1.875000e+01
1.875000e+01
1.875000e+01
1.875000e+01
1.875000e+01
1.875000e+01
1.875000e+01
1.875000e+01
1.875000e+01
1.875000e+01
1.875000e+01
1.875000e+01
1.875000e+01
1.875000e+01
1.875000e+01
1.875000e+01
1.875000e+01
1.875000e+01
1.875000e+01
1.875000e+01
1.875000e+01
1.875000e+01
1.875000e+01
1.875000e+01
1.875000e+01
1.875000e+01
2.500000e+01
2.500000e+01
2.500000e+01
2.500000e+01
2.500000e+01
2.500000e+01
2.500000e+01
2.500000e+01
2.500000e+01
2.500000e+01
2.500000e+01
2.500000e+01
2.500000e+01
2.500000e+01
2.500000e+01
2.500000e+01
2.500000e+01
2.500000e+01
2.500000e+01
2.500000e+01
2.500000e+01
2.500000e+01
2.500000e+01
2.500000e+01
2.500000e+01
2.500000e+01
2.500000e+01
2.500000e+01
2.500000e+01
2.500000e+01
2.500000e+01
2.500000e+01
2.500000e+01
3.125000e+01
3.125000e+01
3.125000e+01
3.125000e+01
3.125000e+01
3.125000e+01
3.125000e+01
3.125000e+01
3.125000e+01
3.125000e+01
3.125000e+01
3.125000e+01
3.125000e+01
3.125000e+01
3.125000e+01
3.125000e+01
3.125000e+01
3.125000e+01
3.125000e+01
3.125000e+01
3.125000e+01
3.125000e+01
3.125000e+01
3.125000e+01
3.125000e+01
3.125000e+01
3.125000e+01
3.125000e+01
3.125000e+01
3.125000e+01
3.125000e+01
3.125000e+01
3.125000e+01
3.750000e+01
3.750000e+01
3.750000e+01
3.750000e+01
3.750000e+01
3.750000e+01
3.750000e+01
3.750000e+01
3.750000e+01
3.750000e+01
3.750000e+01
3.750000e+01
3.750000e+01
3.750000e+01
3.750000e+01
3.750000e+01
3.750000e+01
3.750000e+01
3.750000e+01
3.750000e+01
3.750000e+01
3.750000e+01
3.750000e+01
3.750000e+01
3.750000e+01
3.750000e+01
3.750000e+01
3.750000e+01
3.750000e+01
3.750000e+01
3.750000e+01
3.750000e+01
3.750000e+01
4.375000e+01
4.375000e+01
4.375000e+01
4.375000e+01
4.375000e+01
4.375000e+01
4.375000e+01
4.375000e+01
4.375000e+01
4.375000e+01
4.375000e+01
4.375000e+01
4.375000e+01
4.375000e+01
4.375000e+01
4.375000e+01
4.375000e+01
4.375000e+01
4.375000e+01
4.375000e+01
4.375000e+01
4.375000e+01
4.375000e+01
4.375000e+01
4.375000e+01
4.375000e+01
4.375000e+01
4.375000e+01
4.375000e+01
4.375000e+01
4.375000e+01
4.375000e+01
4.375000e+01
5.000000e+01
5.000000e+01
5.000000e+01
5.000000e+01
5.000000e+01
5.000000e+01
5.000000e+01
5.000000e+01
5.000000e+01
5.000000e+01
5.000000e+01
5.000000e+01
5.000000e+01
5.000000e+01
5.000000e+01
5.000000e+01
5.000000e+01
5.000000e+01
5.000000e+01
5.000000e+01
5.000000e+01
5.000000e+01
5.000000e+01
5.000000e+01
5.000000e+01
5.000000e+01
5.000000e+01
5.000000e+01
5.000000e+01
5.000000e+01
5.000000e+01
5.000000e+01
5.000000e+01
5.625000e+01
5.625000e+01
5.625000e+01
5.625000e+01
5.625000e+01
5.625000e+01
5.625000e+01
5.625000e+01
5.625000e+01
5.625000e+01
5.625000e+01
5.625000e+01
5.625000e+01
5.625000e+01
5.625000e+01
5.625000e+01
5.625000e+01
5.625000e+01
5.625000e+01
5.625000e+01
5.625000e+01
5.625000e+01
5.625000e+01
5.625000e+01
5.625000e+01
5.625000e+01
5.625000e+01
5.625000e+01
5.625000e+01
5.625000e+01
5.625000e+01
5.625000e+01
5.625000e+01
6.250000e+01
6.250000e+01
6.250000e+01
6.250000e+01
6.250000e+01
6.250000e+01
6.250000e+01
6.250000e+01
6.250000e+01
6.250000e+01
6.250000e+01
6.250000e+01
6.250000e+01
6.250000e+01
6.250000e+01
6.250000e+01
6.250000e+01
6.250000e+01
6.250000e+01
6.250000e+01
6.250000e+01
6.250000e+01
6.250000e+01
6.250000e+01
6.250000e+01
6.250000e+01
6.250000e+01
6.250000e+01
6.250000e+01
6.250000e+01
6.250000e+01
6.250000e+01
6.250000e+01
6.875000e+01
6.875000e+01
6.875000e+01
6.875000e+01
6.875000e+01
6.875000e+01
6.875000e+01
6.875000e+01
6.875000e+01
6.875000e+01
6.875000e+01
6.875000e+01
6.875000e+01
6.875000e+01
6.875000e+01
6.875000e+01
6.875000e+01
6.875000e+01
6.875000e+01
6.875000e+01
6.875000e+01
6.875000e+01
6.875000e+01
6.875000e+01
6.875000e+01
6.875000e+01
6.875000e+01
6.875000e+01
6.875000e+01
6.875000e+01
6.875000e+01
6.875000e+01
6.875000e+01
7.500000e+01
7.500000e+01
7.500000e+01
7.500000e+01
7.500000e+01
7.500000e+01
7.500000e+01
7.500000e+01
7.500000e+01
7.500000e+01
7.500000e+01
7.500000e+01
7.500000e+01
7.500000e+01
7.500000e+01
7.500000e+01
7.500000e+01
7.500000e+01
7.500000e+01
7.500000e+01
7.500000e+01
7.500000e+01
7.500000e+01
7.500000e+01
7.500000e+01
7.500000e+01
7.500000e+01
7.500000e+01
7.500000e+01
7.500000e+01
7.500000e+01
7.500000e+01
7.500000e+01
8.125000e+01
8.125000e+01
8.125000e+01
8.125000e+01
8.125000e+01
8.125000e+01
8.125000e+01
8.125000e+01
8.125000e+01
8.125000e+01
8.125000e+01
8.125000e+01
8.125000e+01
8.125000e+01
8.125000e+01
8.125000e+01
8.125000e+01
8.125000e+01
8.125000e+01
8.125000e+01
8.125000e+01
8.125000e+01
8.125000e+01
8.125000e+01
8.125000e+01
8.125000e+01
8.125000e+01
8.125000e+01
8.125000e+01
8.125000e+01
8.125000e+01
8.125000e+01
8.125000e+01
8.750000e+01
8.750000e+01
8.750000e+01
8.750000e+01
8.750000e+01
8.750000e+01
8.750000e+01
8.750000e+01
8.750000e+01
8.750000e+01
8.750000e+01
8.750000e+01
8.750000e+01
8.750000e+01
8.750000e+01
8.750000e+01
8.750000e+01
8.750000e+01
8.750000e+01
8.750000e+01
8.750000e+01
8.750000e+01
8.750000e+01
8.750000e+01
8.750000e+01
8.750000e+01
8.750000e+01
8.750000e+01
8.750000e+01
8.750000e+01
8.750000e+01
8.750000e+01
8.750000e+01
9.375000e+01
9.375000e+01
9.375000e+01
9.375000e+01
9.375000e+01
9.375000e+01
9.375000e+01
9.375000e+01
9.375000e+01
9.375000e+01
9.375000e+01
9.375000e+01
9.375000e+01
9.375000e+01
9.375000e+01
9.375000e+01
9.375000e+01
9.375000e+01
9.375000e+01
9.375000e+01
9.375000e+01
9.375000e+01
9.375000e+01
9.375000e+01
9.375000e+01
9.375000e+01
9.375000e+01
9.375000e+01
9.375000e+01
9.375000e+01
9.375000e+01
9.375000e+01
9.375000e+01
1.000000e+02
1.000000e+02
1.000000e+02
1.000000e+02
1.000000e+02
1.000000e+02
1.000000e+02
1.000000e+02
1.000000e+02
1.000000e+02
1.000000e+02
1.000000e+02
1.000000e+02
1.000000e+02
1.000000e+02
1.000000e+02
1.000000e+02
1.000000e+02
1.000000e+02
1.000000e+02
1.000000e+02
1.000000e+02
1.000000e+02
1.000000e+02
1.000000e+02
1.000000e+02
1.000000e+02
1.000000e+02
1.000000e+02
1.000000e+02
1.000000e+02
1.000000e+02
1.000000e+02
0.000000e+00
-4.301308e-02
-7.804152e-02
-1.104904e-01
-1.416322e-01
-1.717044e-01
-2.007672e-01
-2.288182e-01
-2.558397e-01
-2.818119e-01
-3.067187e-01
-3.305488e-01
-3.532964e-01
-3.749611e-01
-3.955478e-01
-4.150674e-01
-4.335375e-01
-4.509834e-01
-4.674402e-01
-4.829552e-01
-4.975916e-01
-5.114326e-01
-5.245888e-01
-5.372062e-01
-5.494809e-01
-5.616792e-01
-5.741710e-01
-5.874839e-01
-6.023918e-01
-6.200333e-01
-6.418860e-01
-6.679284e-01
-6.838217e-01
0.000000e+00
-2.883912e-02
-6.000288e-02
-8.938619e-02
-1.173139e-01
-1.440519e-01
-1.697415e-01
-1.944445e-01
-2.181856e-01
-2.409727e-01
-2.628073e-01
-2.836895e-01
-3.036203e-01
-3.226028e-01
-3.406434e-01
-3.577522e-01
-3.739436e-01
-3.892377e-01
-4.036609e-01
-4.172478e-01
-4.300422e-01
-4.420994e-01
-4.534882e-01
-4.642924e-01
-4.746127e-01
-4.845645e-01
-4.942697e-01
-5.038287e-01
-5.132410e-01
-5.222001e-01
-5.296656e-01
-5.340302e-01
-5.401066e-01
0.000000e+00
-2.287526e-02
-4.709422e-02
-7.175297e-02
-9.571364e-02
-1.187913e-01
-1.409713e-01
-1.622745e-01
-1.827198e-01
-2.023201e-01
-2.210837e-01
-2.390166e-01
-2.561235e-01
-2.724096e-01
-2.878810e-01
-3.025451e-01
-3.164114e-01
-3.294920e-01
-3.418014e-01
-3.533574e-01
-3.641800e-01
-3.742912e-01
-3.837125e-01
-3.924606e-01
-4.005390e-01
-4.079218e-01
-4.145245e-01
-4.201528e-01
-4.244260e-01
-4.267270e-01
-4.265252e-01
-4.252331e-01
-4.323287e-01
0.000000e+00
-1.814949e-02
-3.730133e-02
-5.697746e-02
-7.660749e-02
-9.576202e-02
-1.142770e-01
-1.320937e-01
-1.491961e-01
-1.655835e-01
-1.812602e-01
-1.962313e-01
-2.105020e-01
-2.240767e-01
-2.369594e-01
-2.491539e-01
-2.606633e-01
-2.714907e-01
-2.816383e-01
-2.911066e-01
-2.998933e-01
-3.079903e-01
-3.153796e-01
-3.220269e-01
-3.278708e-01
-3.328081e-01
-3.366753e-01
-3.392364e-01
-3.402142e-01
-3.394883e-01
-3.377253e-01
-3.376200e-01
-3.443803e-01
0.000000e+00
-1.408653e-02
-2.884442e-02
-4.407374e-02
-5.942679e-02
-7.459152e-02
-8.935872e-02
-1.036224e-01
-1.173345e-01
-1.304764e-01
-1.430433e-01
-1.550358e-01
-1.664562e-01
-1.773064e-01
-1.875872e-01
-1.972976e-01
-2.064345e-01
-2.149926e-01
-2.229629e-01
-2.303320e-01
-2.370802e-01
-2.431787e-01
-2.485857e-01
-2.532418e-01
-2.570647e-01
-2.599463e-01
-2.617596e-01
-2.623957e-01
-2.618739e-01
-2.605970e-01
-2.597686e-01
-2.616816e-01
-2.674484e-01
0.000000e+00
-1.035278e-02
-2.114912e-02
-3.229231e-02
-4.358981e-02
-5.483074e-02
-6.584767e-02
-7.653178e-02
-8.682334e-02
-9.669330e-02
-1.061294e-01
-1.151273e-01
-1.236856e-01
-1.318026e-01
-1.394753e-01
-1.466982e-01
-1.534628e-01
-1.597567e-01
-1.655628e-01
-1.708585e-01
-1.756140e-01
-1.797906e-01
-1.833396e-01
-1.862014e-01
-1.883081e-01
-1.895936e-01
-1.900201e-01
-1.896373e-01
-1.886940e-01
-1.877966e-01
-1.880151e-01
-1.904538e-01
-1.952254e-01
0.000000e+00
-6.813377e-03
-1.389625e-02
-2.120382e-02
-2.863187e-02
-3.605537e-02
-4.336236e-02
-5.047126e-02
-5.733097e-02
-6.391333e-02
-7.020410e-02
-7.619611e-02
-8.188478e-02
-8.726538e-02
-9.233140e-02
-9.707358e-02
-1.014791e-01
-1.055311e-01
-1.092078e-01
-1.124821e-01
-1.153212e-01
-1.176864e-01
-1.195349e-01
-1.208230e-01
-1.215151e-01
-1.216010e-01
-1.211278e-01
-1.202521e-01
-1.193072e-01
-1.188491e-01
-1.195638e-01
-1.219381e-01
-1.257899e-01
0.000000e+00
-3.384202e-03
-6.896347e-03
-1.051838e-02
-1.420457e-02
-1.789666e-02
-2.153937e-02
-2.508942e-02
-2.851758e-02
-3.180598e-02
-3.494404e-02
-3.792477e-02
-4.074205e-02
-4.338892e-02
-4.585634e-02
-4.813247e-02
-5.020203e-02
-5.204593e-02
-5.364098e-02
-5.496002e-02
-5.597256e-02
-5.664653e-02
-5.695184e-02
-5.686692e-02
-5.639010e-02
-5.555778e-02
-5.447067e-02
-5.332522e-02
-5.243601e-02
-5.221326e-02
-5.305171e-02
-5.512298e-02
-5.817925e-02
0.000000e+00
-5.460079e-06
-1.183901e-05
-1.878341e-05
-2.592800e-05
-3.278026e-05
-3.859795e-05
-4.225313e-05
-4.207325e-05
-3.564993e-05
-1.960801e-05
1.066900e-05
6.135685e-05
1.405447e-04
2.586084e-04
4.285713e-04
6.663953e-04
9.911136e-04
1.424661e-03
1.991185e-03
2.715513e-03
3.620304e-03
4.721255e-03
6.019559e-03
7.490896e-03
9.070813e-03
1.063835e-02
1.200404e-02
1.291570e-02
1.310057e-02
1.235616e-02
1.067032e-02
8.309202e-03
0.000000e+00
3.373918e-03
6.874003e-03
1.048286e-02
1.415542e-02
1.783434e-02
2.146572e-02
2.500838e-02
2.843619e-02
3.173581e-02
3.490297e-02
3.793935e-02
4.085046e-02
4.364453e-02
4.633214e-02
4.892604e-02
5.144123e-02
5.389477e-02
5.630538e-02
5.869232e-02
6.107342e-02
6.346181e-02
6.586087e-02
6.825730e-02
7.061213e-02
7.285106e-02
7.485689e-02
7.647019e-02
7.750678e-02
7.780024e-02
7.726874e-02
7.598809e-02
7.423568e-02
0.000000e+00
6.804975e-03
1.387787e-02
2.117439e-02
2.859083e-02
3.600285e-02
4.329958e-02
5.040106e-02
5.725870e-02
6.384796e-02
7.015969e-02
7.619376e-02
8.195504e-02
8.745130e-02
9.269219e-02
9.768886e-02
1.024538e-01
1.070007e-01
1.113435e-01
1.154958e-01
1.194684e-01
1.232661e-01
1.268840e-01
1.303010e-01
1.334743e-01
1.363336e-01
1.387792e-01
1.406894e-01
1.419396e-01
1.424395e-01
1.421824e-01
1.412963e-01
1.400732e-01
0.000000e+00
1.034743e-02
2.113718e-02
3.227287e-02
4.356221e-02
5.479470e-02
6.580358e-02
7.648102e-02
8.676886e-02
9.664031e-02
1.060864e-01
1.151072e-01
1.237075e-01
1.318939e-01
1.396741e-01
1.470564e-01
1.540495e-01
1.606623e-01
1.669032e-01
1.727794e-01
1.782950e-01
1.834488e-01
1.882309e-01
1.926185e-01
1.965730e-01
2.000369e-01
2.029355e-01
2.051852e-01
2.067108e-01
2.074752e-01
2.075182e-01
2.069984e-01
2.062254e-01
0.000000e+00
1.408520e-02
2.884109e-02
4.406778e-02
5.941758e-02
7.457854e-02
8.934163e-02
1.036012e-01
1.173095e-01
1.304488e-01
1.430152e-01
1.550109e-01
1.664401e-01
1.773077e-01
1.876183e-01
1.973760e-01
2.065846e-01
2.152469e-01
2.233653e-01
2.309399e-01
2.379685e-01
2.444448e-01
2.503561e-01
2.556822e-01
2.603929e-01
2.644490e-01
2.678038e-01
2.704111e-01
2.722383e-01
2.732881e-01
2.736287e-01
2.734335e-01
2.730263e-01
0.000000e+00
1.815286e-02
3.730819e-02
5.698766e-02
7.662074e-02
9.577795e-02
1.142951e-01
1.321130e-01
1.492151e-01
1.656000e-01
1.812705e-01
1.962303e-01
2.104822e-01
2.240277e-01
2.368671e-01
2.489995e-01
2.604224e-01
2.711321e-01
2.811235e-01
2.903892e-01
2.989201e-01
3.067043e-01
3.137269e-01
3.199702e-01
3.254143e-01
3.300389e-01
3.338265e-01
3.367687e-01
3.388744e-01
3.401830e-01
3.407849e-01
3.408567e-01
3.407216e-01
0.000000e+00
2.288349e-02
4.711179e-02
7.178049e-02
9.575163e-02
1.188402e-01
1.410312e-01
1.623447e-01
1.827983e-01
2.024029e-01
2.211637e-01
2.390823e-01
2.561573e-01
2.723856e-01
2.877621e-01
3.022798e-01
3.159298e-01
3.287009e-01
3.405797e-01
3.515503e-01
3.615946e-01
3.706933e-01
3.788265e-01
3.859759e-01
3.921281e-01
3.972783e-01
4.014358e-01
4.046300e-01
4.069160e-01
4.083802e-01
4.091466e-01
4.093962e-01
4.094260e-01
0.000000e+00
2.885147e-02
6.002987e-02
8.942962e-02
1.173759e-01
1.441346e-01
1.698466e-01
1.945731e-01
2.183372e-01
2.411442e-01
2.629917e-01
2.838736e-01
3.037821e-01
3.227081e-01
3.406407e-01
3.575672e-01
3.734722e-01
3.883371e-01
4.021393e-01
4.148530e-01
4.264488e-01
4.368954e-01
4.461620e-01
4.542222e-01
4.610590e-01
4.666729e-01
4.710904e-01
4.743738e-01
4.766293e-01
4.780113e-01
4.787174e-01
4.789734e-01
4.790361e-01
0.000000e+00
4.302661e-02
7.807308e-02
1.105445e-01
1.417132e-01
1.718166e-01
2.009153e-01
2.290065e-01
2.560715e-01
2.820888e-01
3.070383e-01
3.309026e-01
3.536665e-01
3.753152e-01
3.958339e-01
4.152053e-01
4.334088e-01
4.504190e-01
4.662050e-01
4.807292e-01
4.939480e-01
5.058126e-01
5.162723e-01
5.252790e-01
5.327955e-01
5.388066e-01
5.433339e-01
5.464527e-01
5.483116e-01
5.491492e-01
5.493014e-01
5.491753e-01
5.491044e-01
0.000000e+00
-2.658127e-02
-4.639004e-02
-6.800619e-02
-9.207706e-02
-1.192675e-01
-1.497665e-01
-1.836270e-01
-2.208154e-01
-2.612519e-01
-3.048293e-01
-3.514243e-01
-4.009040e-01
-4.531299e-01
-5.079608e-01
-5.652545e-01
-6.248695e-01
-6.866670e-01
-7.505127e-01
-8.162802e-01
-8.838550e-01
-9.531409e-01
-1.024069e+00
-1.096612e+00
-1.170806e+00
-1.246788e+00
-1.324862e+00
-1.405614e+00
-1.490175e+00
-1.580774e+00
-1.682229e+00
-1.805902e+00
-1.976759e+00
0.000000e+00
-1.651924e-02
-3.725381e-02
-5.901578e-02
-8.342215e-02
-1.109080e-01
-1.417033e-01
-1.758602e-01
-2.133479e-01
-2.540866e-01
-2.979686e-01
-3.448695e-01
-3.946554e-01
-4.471864e-01
-5.023202e-01
-5.599131e-01
-6.198218e-01
-6.819055e-01
-7.460274e-01
-8.120577e-01
-8.798781e-01
-9.493874e-01
-1.020510e+00
-1.093212e+00
-1.167518e+00
-1.243554e+00
-1.321606e+00
-1.402244e+00
-1.486574e+00
-1.576789e+00
-1.677460e+00
-1.798380e+00
-1.958005e+00
0.000000e+00
-1.213434e-02
-3.003385e-02
-5.149895e-02
-7.594796e-02
-1.036364e-01
-1.346748e-01
-1.690920e-01
-2.068466e-01
-2.478552e-01
-2.920082e-01
-3.391802e-01
-3.892365e-01
-4.420371e-01
-4.974389e-01
-5.552976e-01
-6.154695e-01
-6.778128e-01
-7.421896e-01
-8.084694e-01
-8.765327e-01
-9.462774e-01
-1.017628e+00
-1.090551e+00
-1.165075e+00
-1.241332e+00
-1.319622e+00
-1.400529e+00
-1.485145e+00
-1.575444e+00
-1.674806e+00
-1.787219e+00
-1.911918e+00
0.000000e+00
-9.716662e-03
-2.543261e-02
-4.575308e-02
-6.988789e-02
-9.756768e-02
-1.287389e-01
-1.633489e-01
-2.013233e-01
-2.425631e-01
-2.869520e-01
-3.343614e-01
-3.846555e-01
-4.376939e-01
-4.933337e-01
-5.514311e-01
-6.118427e-01
-6.744273e-01
-7.390479e-01
-8.055748e-01
-8.738902e-01
-9.438945e-01
-1.015516e+00
-1.088726e+00
-1.163562e+00
-1.240161e+00
-1.318819e+00
-1.400077e+00
-1.484826e+00
-1.574368e+00
-1.669951e+00
-1.770761e+00
-1.864604e+00
0.000000e+00
-8.221894e-03
-2.242356e-02
-4.167284e-02
-6.525748e-02
-9.275578e-02
-1.239387e-01
-1.586612e-01
-1.967978e-01
-2.382240e-01
-2.828101e-01
-3.304218e-01
-3.809208e-01
-4.341664e-01
-4.900161e-01
-5.483272e-01
-6.089577e-01
-6.717679e-01
-7.366227e-01
-8.033947e-01
-8.719687e-01
-9.422481e-01
-1.014164e+00
-1.087691e+00
-1.162861e+00
-1.239796e+00
-1.318738e+00
-1.400075e+00
-1.484320e+00
-1.571887e+00
-1.662357e+00
-1.752409e+00
-1.834137e+00
0.000000e+00
-7.270760e-03
-2.044925e-02
-3.886499e-02
-6.191873e-02
-8.915946e-02
-1.202746e-01
-1.550415e-01
-1.932850e-01
-2.348507e-01
-2.795931e-01
-3.273699e-01
-3.780395e-01
-4.314604e-01
-4.874909e-01
-5.459897e-01
-6.068166e-01
-6.698340e-01
-7.349091e-01
-8.019164e-01
-8.707423e-01
-9.412909e-01
-1.013491e+00
-1.087309e+00
-1.162757e+00
-1.239908e+00
-1.318897e+00
-1.399896e+00
-1.482998e+00
-1.567924e+00
-1.653378e+00
-1.736308e+00
-1.812105e+00
0.000000e+00
-6.679641e-03
-1.920100e-02
-3.703983e-02
-5.968202e-02
-8.668800e-02
-1.177107e-01
-1.524820e-01
-1.907886e-01
-2.324509e-01
-2.773085e-01
-3.252115e-01
-3.760149e-01
-4.295767e-01
-4.857559e-01
-5.444128e-01
-6.054093e-01
-6.686095e-01
-7.338822e-01
-8.011026e-01
-8.701564e-01
-9.409435e-01
-1.013384e+00
-1.087423e+00
-1.163035e+00
-1.240222e+00
-1.318990e+00
-1.399294e+00
-1.480903e+00
-1.563152e+00
-1.644619e+00
-1.722954e+00
-1.795280e+00
0.000000e+00
-6.354813e-03
-1.850837e-02
-3.601132e-02
-5.839945e-02
-8.524840e-02
-1.161999e-01
-1.509636e-01
-1.893042e-01
-2.310263e-01
-2.759594e-01
-3.239484e-01
-3.748464e-01
-4.285112e-01
-4.848030e-01
-5.435837e-01
-6.047165e-01
-6.680672e-01
-7.335046e-01
-8.009029e-01
-8.701435e-01
-9.411177e-01
-1.013729e+00
-1.087893e+00
-1.163536e+00
-1.240581e+00
-1.318912e+00
-1.398318e+00
-1.478374e+00
-1.558293e+00
-1.636791e+00
-1.712102e+00
-1.782261e+00
0.000000e+00
-6.250154e-03
-1.828491e-02
-3.567796e-02
-5.798145e-02
-8.477724e-02
-1.157050e-01
-1.504681e-01
-1.888250e-01
-2.305749e-01
-2.755449e-01
-3.235785e-01
-3.745292e-01
-4.282557e-01
-4.846196e-01
-5.434840e-01
-6.047135e-01
-6.681741e-01
-7.337337e-01
-8.012632e-01
-8.706368e-01
-9.417331e-01
-1.014434e+00
-1.088623e+00
-1.164173e+00
-1.240935e+00
-1.318700e+00
-1.397148e+00
-1.475772e+00
-1.553798e+00
-1.630139e+00
-1.703447e+00
-1.772284e+00
0.000000e+00
-6.351785e-03
-1.850417e-02
-3.600770e-02
-5.839836e-02
-8.525224e-02
-1.162119e-01
-1.509878e-01
-1.893464e-01
-2.310936e-01
-2.760613e-01
-3.240967e-01
-3.750557e-01
-4.287991e-01
-4.851901e-01
-5.440931e-01
-6.053733e-01
-6.688962e-01
-7.345276e-01
-8.021331e-01
-8.715783e-01
-9.427264e-01
-1.015437e+00
-1.089557e+00
-1.164918e+00
-1.241308e+00
-1.318454e+00
-1.395982e+00
-1.473367e+00
-1.549907e+00
-1.624705e+00
-1.696718e+00
-1.764848e+00
0.000000e+00
-6.673832e-03
-1.919294e-02
-3.703286e-02
-5.967983e-02
-8.669521e-02
-1.177334e-01
-1.525282e-01
-1.908691e-01
-2.325796e-01
-2.775036e-01
-3.254955e-01
-3.764160e-01
-4.301286e-01
-4.864983e-01
-5.453906e-01
-6.066705e-01
-6.702025e-01
-7.358493e-01
-8.034708e-01
-8.729227e-01
-9.440531e-01
-1.016699e+00
-1.090678e+00
-1.165781e+00
-1.241755e+00
-1.318288e+00
-1.394981e+00
-1.471334e+00
-1.546729e+00
-1.620443e+00
-1.691671e+00
-1.759570e+00
0.000000e+00
-7.262686e-03
-2.043805e-02
-3.885525e-02
-6.191558e-02
-8.916933e-02
-1.203059e-01
-1.551057e-01
-1.933970e-01
-2.350302e-01
-2.798653e-01
-3.277666e-01
-3.786001e-01
-4.322323e-01
-4.885298e-01
-5.473586e-01
-6.085835e-01
-6.720674e-01
-7.376698e-01
-8.052448e-01
-8.746386e-01
-9.456855e-01
-1.018203e+00
-1.091985e+00
-1.166791e+00
-1.242341e+00
-1.318299e+00
-1.394265e+00
-1.469773e+00
-1.544296e+00
-1.617261e+00
-1.688071e+00
-1.756109e+00
0.000000e+00
-8.212383e-03
-2.241037e-02
-4.166136e-02
-6.525382e-02
-9.276774e-02
-1.239765e-01
-1.587387e-01
-1.969331e-01
-2.384408e-01
-2.831390e-01
-3.309014e-01
-3.815988e-01
-4.351002e-01
-4.912733e-01
-5.499842e-01
-6.110973e-01
-6.744737e-01
-7.399699e-01
-8.074349e-01
-8.767071e-01
-9.476097e-01
-1.019945e+00
-1.093488e+00
-1.167979e+00
-1.243117e+00
-1.318556e+00
-1.393903e+00
-1.468730e+00
-1.542588e+00
-1.615041e+00
-1.685680e+00
-1.754129e+00
0.000000e+00
-9.706886e-03
-2.541907e-02
-4.574141e-02
-6.988476e-02
-9.758171e-02
-1.287815e-01
-1.634354e-01
-2.014737e-01
-2.428038e-01
-2.873166e-01
-3.348925e-01
-3.854057e-01
-4.387265e-01
-4.947231e-01
-5.532615e-01
-6.142052e-01
-6.774138e-01
-7.427414e-01
-8.100331e-01
-8.791215e-01
-9.498219e-01
-1.021926e+00
-1.095197e+00
-1.169363e+00
-1.244112e+00
-1.319093e+00
-1.393923e+00
-1.468203e+00
-1.541553e+00
-1.613644e+00
-1.684253e+00
-1.753266e+00
0.000000e+00
-1.212582e-02
-3.002198e-02
-5.148910e-02
-7.594703e-02
-1.036534e-01
-1.347219e-01
-1.691850e-01
-2.070065e-01
-2.481092e-01
-2.923910e-01
-3.397358e-01
-3.900189e-01
-4.431113e-01
-4.988808e-01
-5.571929e-01
-6.179103e-01
-6.808915e-01
-7.459886e-01
-8.130440e-01
-8.818869e-01
-9.523278e-01
-1.024153e+00
-1.097120e+00
-1.170949e+00
-1.245326e+00
-1.319900e+00
-1.394299e+00
-1.468144e+00
-1.541099e+00
-1.612920e+00
-1.683536e+00
-1.753115e+00
0.000000e+00
-1.651377e-02
-3.724574e-02
-5.900998e-02
-8.342574e-02
-1.109303e-01
-1.417564e-01
-1.759601e-01
-2.135154e-01
-2.543487e-01
-2.983597e-01
-3.454326e-01
-3.954430e-01
-4.482616e-01
-5.037558e-01
-5.617905e-01
-6.222274e-01
-6.849238e-01
-7.497303e-01
-8.164877e-01
-8.850232e-01
-9.551451e-01
-1.026638e+00
-1.099257e+00
-1.172725e+00
-1.246728e+00
-1.320921e+00
-1.394942e+00
-1.468432e+00
-1.541078e+00
-1.612685e+00
-1.683277e+00
-1.753243e+00
0.000000e+00
-2.658049e-02
-4.638735e-02
-6.800671e-02
-9.208792e-02
-1.192981e-01
-1.498289e-01
-1.837371e-01
-2.209935e-01
-2.615242e-01
-3.052290e-01
-3.519924e-01
-4.016900e-01
-4.541925e-01
-5.093666e-01
-5.670766e-01
-6.271831e-01
-6.895419e-01
-7.540022e-01
-8.204030e-01
-8.885698e-01
-9.583101e-01
-1.029408e+00