TITLE = "Solution"
VARIABLES = x, y, u, v, psiu, psiv, t, stress
ZONE T="structure" N=561 E=512 F=FEBLOCK ET=QUADRILATERAL VARLOCATION=([7,8]=cellcentered)
0.000000e+00
6.250000e+00
1.250000e+01
1.875000e+01
2.500000e+01
3.125000e+01
3.750000e+01
4.375000e+01
5.000000e+01
5.625000e+01
6.250000e+01
6.875000e+01
7.500000e+01
8.125000e+01
8.750000e+01
9.375000e+01
1.000000e+02
1.062500e+02
1.125000e+02
1.187500e+02
1.250000e+02
1.312500e+02
1.375000e+02
1.437500e+02
1.500000e+02
1.562500e+02
1.625000e+02
1.687500e+02
1.750000e+02
1.812500e+02
1.875000e+02
1.937500e+02
2.000000e+02
0.000000e+00
6.250000e+00
1.250000e+01
1.875000e+01
2.500000e+01
3.125000e+01
3.750000e+01
4.375000e+01
5.000000e+01
5.625000e+01
6.250000e+01
6.875000e+01
7.500000e+01
8.125000e+01
8.750000e+01
9.375000e+01
1.000000e+02
1.062500e+02
1.125000e+02
1.187500e+02
1.250000e+02
1.312500e+02
1.375000e+02
1.437500e+02
1.500000e+02
1.562500e+02
1.625000e+02
1.687500e+02
1.750000e+02
1.812500e+02
1.875000e+02
1.937500e+02
2.000000e+02
0.000000e+00
6.250000e+00
1.250000e+01
1.875000e+01
2.500000e+01
3.125000e+01
3.750000e+01
4.375000e+01
5.000000e+01
5.625000e+01
6.250000e+01
6.875000e+01
7.500000e+01
8.125000e+01
8.750000e+01
9.375000e+01
1.000000e+02
1.062500e+02
1.125000e+02
1.187500e+02
1.250000e+02
1.312500e+02
1.375000e+02
1.437500e+02
1.500000e+02
1.562500e+02
1.625000e+02
1.687500e+02
1.750000e+02
1.812500e+02
1.875000e+02
1.937500e+02
2.000000e+02
0.000000e+00
6.250000e+00
1.250000e+01
1.875000e+01
2.500000e+01
3.125000e+01
3.750000e+01
4.375000e+01
5.000000e+01
5.625000e+01
6.250000e+01
6.875000e+01
7.500000e+01
8.125000e+01
8.750000e+01
9.375000e+01
1.000000e+02
1.062500e+02
1.125000e+02
1.187500e+02
1.250000e+02
1.312500e+02
1.375000e+02
1.437500e+02
1.500000e+02
1.562500e+02
1.625000e+02
1.687500e+02
1.750000e+02
1.812500e+02
1.875000e+02
1.937500e+02
2.000000e+02
0.000000e+00
6.250000e+00
1.250000e+01
1.875000e+01
2.500000e+01
3.125000e+01
3.750000e+01
4.375000e+01
5.000000e+01
5.625000e+01
6.250000e+01
6.875000e+01
7.500000e+01
8.125000e+01
8.750000e+01
9.375000e+01
1.000000e+02
1.062500e+02
1.125000e+02
1.187500e+02
1.250000e+02
1.312500e+02
1.375000e+02
1.437500e+02
1.500000e+02
1.562500e+02
1.625000e+02
1.687500e+02
1.750000e+02
1.812500e+02
1.875000e+02
1.937500e+02
2.000000e+02
0.000000e+00
6.250000e+00
1.250000e+01
1.875000e+01
2.500000e+01
3.125000e+01
3.750000e+01
4.375000e+01
5.000000e+01
5.625000e+01
6.250000e+01
6.875000e+01
7.500000e+01
8.125000e+01
8.750000e+01
9.375000e+01
1.000000e+02
1.062500e+02
1.125000e+02
1.187500e+02
1.250000e+02
1.312500e+02
1.375000e+02
1.437500e+02
1.500000e+02
1.562500e+02
1.625000e+02
1.687500e+02
1.750000e+02
1.812500e+02
1.875000e+02
1.937500e+02
2.000000e+02
0.000000e+00
6.250000e+00
1.250000e+01
1.875000e+01
2.500000e+01
3.125000e+01
3.750000e+01
4.375000e+01
5.000000e+01
5.625000e+01
6.250000e+01
6.875000e+01
7.500000e+01
8.125000e+01
8.750000e+01
9.375000e+01
1.000000e+02
1.062500e+02
1.125000e+02
1.187500e+02
1.250000e+02
1.312500e+02
1.375000e+02
1.437500e+02
1.500000e+02
1.562500e+02
1.625000e+02
1.687500e+02
1.750000e+02
1.812500e+02
1.875000e+02
1.937500e+02
2.000000e+02
0.000000e+00
6.250000e+00
1.250000e+01
1.875000e+01
2.500000e+01
3.125000e+01
3.750000e+01
4.375000e+01
5.000000e+01
5.625000e+01
6.250000e+01
6.875000e+01
7.500000e+01
8.125000e+01
8.750000e+01
9.375000e+01
1.000000e+02
1.062500e+02
1.125000e+02
1.187500e+02
1.250000e+02
1.312500e+02
1.375000e+02
1.437500e+02
1.500000e+02
1.562500e+02
1.625000e+02
1.687500e+02
1.750000e+02
1.812500e+02
1.875000e+02
1.937500e+02
2.000000e+02
0.000000e+00
6.250000e+00
1.250000e+01
1.875000e+01
2.500000e+01
3.125000e+01
3.750000e+01
4.375000e+01
5.000000e+01
5.625000e+01
6.250000e+01
6.875000e+01
7.500000e+01
8.125000e+01
8.750000e+01
9.375000e+01
1.000000e+02
1.062500e+02
1.125000e+02
1.187500e+02
1.250000e+02
1.312500e+02
1.375000e+02
1.437500e+02
1.500000e+02
1.562500e+02
1.625000e+02
1.687500e+02
1.750000e+02
1.812500e+02
1.875000e+02
1.937500e+02
2.000000e+02
0.000000e+00
6.250000e+00
1.250000e+01
1.875000e+01
2.500000e+01
3.125000e+01
3.750000e+01
4.375000e+01
5.000000e+01
5.625000e+01
6.250000e+01
6.875000e+01
7.500000e+01
8.125000e+01
8.750000e+01
9.375000e+01
1.000000e+02
1.062500e+02
1.125000e+02
1.187500e+02
1.250000e+02
1.312500e+02
1.375000e+02
1.437500e+02
1.500000e+02
1.562500e+02
1.625000e+02
1.687500e+02
1.750000e+02
1.812500e+02
1.875000e+02
1.937500e+02
2.000000e+02
0.000000e+00
6.250000e+00
1.250000e+01
1.875000e+01
2.500000e+01
3.125000e+01
3.750000e+01
4.375000e+01
5.000000e+01
5.625000e+01
6.250000e+01
6.875000e+01
7.500000e+01
8.125000e+01
8.750000e+01
9.375000e+01
1.000000e+02
1.062500e+02
1.125000e+02
1.187500e+02
1.250000e+02
1.312500e+02
1.375000e+02
1.437500e+02
1.500000e+02
1.562500e+02
1.625000e+02
1.687500e+02
1.750000e+02
1.812500e+02
1.875000e+02
1.937500e+02
2.000000e+02
0.000000e+00
6.250000e+00
1.250000e+01
1.875000e+01
2.500000e+01
3.125000e+01
3.750000e+01
4.375000e+01
5.000000e+01
5.625000e+01
6.250000e+01
6.875000e+01
7.500000e+01
8.125000e+01
8.750000e+01
9.375000e+01
1.000000e+02
1.062500e+02
1.125000e+02
1.187500e+02
1.250000e+02
1.312500e+02
1.375000e+02
1.437500e+02
1.500000e+02
1.562500e+02
1.625000e+02
1.687500e+02
1.750000e+02
1.812500e+02
1.875000e+02
1.937500e+02
2.000000e+02
0.000000e+00
6.250000e+00
1.250000e+01
1.875000e+01
2.500000e+01
3.125000e+01
3.750000e+01
4.375000e+01
5.000000e+01
5.625000e+01
6.250000e+01
6.875000e+01
7.500000e+01
8.125000e+01
8.750000e+01
9.375000e+01
1.000000e+02
1.062500e+02
1.125000e+02
1.187500e+02
1.250000e+02
1.312500e+02
1.375000e+02
1.437500e+02
1.500000e+02
1.562500e+02
1.625000e+02
1.687500e+02
1.750000e+02
1.812500e+02
1.875000e+02
1.937500e+02
2.000000e+02
0.000000e+00
6.250000e+00
1.250000e+01
1.875000e+01
2.500000e+01
3.125000e+01
3.750000e+01
4.375000e+01
5.000000e+01
5.625000e+01
6.250000e+01
6.875000e+01
7.500000e+01
8.125000e+01
8.750000e+01
9.375000e+01
1.000000e+02
1.062500e+02
1.125000e+02
1.187500e+02
1.250000e+02
1.312500e+02
1.375000e+02
1.437500e+02
1.500000e+02
1.562500e+02
1.625000e+02
1.687500e+02
1.750000e+02
1.812500e+02
1.875000e+02
1.937500e+02
2.000000e+02
0.000000e+00
6.250000e+00
1.250000e+01
1.875000e+01
2.500000e+01
3.125000e+01
3.750000e+01
4.375000e+01
5.000000e+01
5.625000e+01
6.250000e+01
6.875000e+01
7.500000e+01
8.125000e+01
8.750000e+01
9.375000e+01
1.000000e+02
1.062500e+02
1.125000e+02
1.187500e+02
1.250000e+02
1.312500e+02
1.375000e+02
1.437500e+02
1.500000e+02
1.562500e+02
1.625000e+02
1.687500e+02
1.750000e+02
1.812500e+02
1.875000e+02
1.937500e+02
2.000000e+02
0.000000e+00
6.250000e+00
1.250000e+01
1.875000e+01
2.500000e+01
3.125000e+01
3.750000e+01
4.375000e+01
5.000000e+01
5.625000e+01
6.250000e+01
6.875000e+01
7.500000e+01
8.125000e+01
8.750000e+01
9.375000e+01
1.000000e+02
1.062500e+02
1.125000e+02
1.187500e+02
1.250000e+02
1.312500e+02
1.375000e+02
1.437500e+02
1.500000e+02
1.562500e+02
1.625000e+02
1.687500e+02
1.750000e+02
1.812500e+02
1.875000e+02
1.937500e+02
2.000000e+02
0.000000e+00
6.250000e+00
1.250000e+01
1.875000e+01
2.500000e+01
3.125000e+01
3.750000e+01
4.375000e+01
5.000000e+01
5.625000e+01
6.250000e+01
6.875000e+01
7.500000e+01
8.125000e+01
8.750000e+01
9.375000e+01
1.000000e+02
1.062500e+02
1.125000e+02
1.187500e+02
1.250000e+02
1.312500e+02
1.375000e+02
1.437500e+02
1.500000e+02
1.562500e+02
1.625000e+02
1.687500e+02
1.750000e+02
1.812500e+02
1.875000e+02
1.937500e+02
2.000000e+02
0.000000e+00
0.000000e+00
0.000000e+00
0.000000e+00
0.000000e+00
0.000000e+00
0.000000e+00
0.000000e+00
0.000000e+00
0.000000e+00
0.000000e+00
0.000000e+00
0.000000e+00
0.000000e+00
0.000000e+00
0.000000e+00
0.000000e+00
0.000000e+00
0.000000e+00
0.000000e+00
0.000000e+00
0.000000e+00
0.000000e+00
0.000000e+00
0.000000e+00
0.000000e+00
0.000000e+00
0.000000e+00
0.000000e+00
0.000000e+00
0.000000e+00
0.000000e+00
0.000000e+00
6.250000e+00
6.250000e+00
6.250000e+00
6.250000e+00
6.250000e+00
6.250000e+00
6.250000e+00
6.250000e+00
6.250000e+00
6.250000e+00
6.250000e+00
6.250000e+00
6.250000e+00
6.250000e+00
6.250000e+00
6.250000e+00
6.250000e+00
6.250000e+00
6.250000e+00
6.250000e+00
6.250000e+00
6.250000e+00
6.250000e+00
6.250000e+00
6.250000e+00
6.250000e+00
6.250000e+00
6.250000e+00
6.250000e+00
6.250000e+00
6.250000e+00
6.250000e+00
6.250000e+00
1.250000e+01
1.250000e+01
1.250000e+01
1.250000e+01
1.250000e+01
1.250000e+01
1.250000e+01
1.250000e+01
1.250000e+01
1.250000e+01
1.250000e+01
1.250000e+01
1.250000e+01
1.250000e+01
1.250000e+01
1.250000e+01
1.250000e+01
1.250000e+01
1.250000e+01
1.250000e+01
1.250000e+01
1.250000e+01
1.250000e+01
1.250000e+01
1.250000e+01
1.250000e+01
1.250000e+01
1.250000e+01
1.250000e+01
1.250000e+01
1.250000e+01
1.250000e+01
1.250000e+01
1.875000e+01
1.875000e+01
1.875000e+01
1.875000e+01
1.875000e+01
1.875000e+01
1.875000e+01
1.875000e+01
1.875000e+01
1.875000e+01
1.875000e+01
1.875000e+01
1.875000e+01
1.875000e+01
1.875000e+01
1.875000e+01
1.875000e+01
1.875000e+01
1.875000e+01
1.875000e+01
1.875000e+01
1.875000e+01
1.875000e+01
1.875000e+01
1.875000e+01
1.875000e+01
1.875000e+01
1.875000e+01
1.875000e+01
1.875000e+01
1.875000e+01
1.875000e+01
1.875000e+01
2.500000e+01
2.500000e+01
2.500000e+01
2.500000e+01
2.500000e+01
2.500000e+01
2.500000e+01
2.500000e+01
2.500000e+01
2.500000e+01
2.500000e+01
2.500000e+01
2.500000e+01
2.500000e+01
2.500000e+01
2.500000e+01
2.500000e+01
2.500000e+01
2.500000e+01
2.500000e+01
2.500000e+01
2.500000e+01
2.500000e+01
2.500000e+01
2.500000e+01
2.500000e+01
2.500000e+01
2.500000e+01
2.500000e+01
2.500000e+01
2.500000e+01
2.500000e+01
2.500000e+01
3.125000e+01
3.125000e+01
3.125000e+01
3.125000e+01
3.125000e+01
3.125000e+01
3.125000e+01
3.125000e+01
3.125000e+01
3.125000e+01
3.125000e+01
3.125000e+01
3.125000e+01
3.125000e+01
3.125000e+01
3.125000e+01
3.125000e+01
3.125000e+01
3.125000e+01
3.125000e+01
3.125000e+01
3.125000e+01
3.125000e+01
3.125000e+01
3.125000e+01
3.125000e+01
3.125000e+01
3.125000e+01
3.125000e+01
3.125000e+01
3.125000e+01
3.125000e+01
3.125000e+01
3.750000e+01
3.750000e+01
3.750000e+01
3.750000e+01
3.750000e+01
3.750000e+01
3.750000e+01
3.750000e+01
3.750000e+01
3.750000e+01
3.750000e+01
3.750000e+01
3.750000e+01
3.750000e+01
3.750000e+01
3.750000e+01
3.750000e+01
3.750000e+01
3.750000e+01
3.750000e+01
3.750000e+01
3.750000e+01
3.750000e+01
3.750000e+01
3.750000e+01
3.750000e+01
3.750000e+01
3.750000e+01
3.750000e+01
3.750000e+01
3.750000e+01
3.750000e+01
3.750000e+01
4.375000e+01
4.375000e+01
4.375000e+01
4.375000e+01
4.375000e+01
4.375000e+01
4.375000e+01
4.375000e+01
4.375000e+01
4.375000e+01
4.375000e+01
4.375000e+01
4.375000e+01
4.375000e+01
4.375000e+01
4.375000e+01
4.375000e+01
4.375000e+01
4.375000e+01
4.375000e+01
4.375000e+01
4.375000e+01
4.375000e+01
4.375000e+01
4.375000e+01
4.375000e+01
4.375000e+01
4.375000e+01
4.375000e+01
4.375000e+01
4.375000e+01
4.375000e+01
4.375000e+01
5.000000e+01
5.000000e+01
5.000000e+01
5.000000e+01
5.000000e+01
5.000000e+01
5.000000e+01
5.000000e+01
5.000000e+01
5.000000e+01
5.000000e+01
5.000000e+01
5.000000e+01
5.000000e+01
5.000000e+01
5.000000e+01
5.000000e+01
5.000000e+01
5.000000e+01
5.000000e+01
5.000000e+01
5.000000e+01
5.000000e+01
5.000000e+01
5.000000e+01
5.000000e+01
5.000000e+01
5.000000e+01
5.000000e+01
5.000000e+01
5.000000e+01
5.000000e+01
5.000000e+01
5.625000e+01
5.625000e+01
5.625000e+01
5.625000e+01
5.625000e+01
5.625000e+01
5.625000e+01
5.625000e+01
5.625000e+01
5.625000e+01
5.625000e+01
5.625000e+01
5.625000e+01
5.625000e+01
5.625000e+01
5.625000e+01
5.625000e+01
5.625000e+01
5.625000e+01
5.625000e+01
5.625000e+01
5.625000e+01
5.625000e+01
5.625000e+01
5.625000e+01
5.625000e+01
5.625000e+01
5.625000e+01
5.625000e+01
5.625000e+01
5.625000e+01
5.625000e+01
5.625000e+01
6.250000e+01
6.250000e+01
6.250000e+01
6.250000e+01
6.250000e+01
6.250000e+01
6.250000e+01
6.250000e+01
6.250000e+01
6.250000e+01
6.250000e+01
6.250000e+01
6.250000e+01
6.250000e+01
6.250000e+01
6.250000e+01
6.250000e+01
6.250000e+01
6.250000e+01
6.250000e+01
6.250000e+01
6.250000e+01
6.250000e+01
6.250000e+01
6.250000e+01
6.250000e+01
6.250000e+01
6.250000e+01
6.250000e+01
6.250000e+01
6.250000e+01
6.250000e+01
6.250000e+01
6.875000e+01
6.875000e+01
6.875000e+01
6.875000e+01
6.875000e+01
6.875000e+01
6.875000e+01
6.875000e+01
6.875000e+01
6.875000e+01
6.875000e+01
6.875000e+01
6.875000e+01
6.875000e+01
6.875000e+01
6.875000e+01
6.875000e+01
6.875000e+01
6.875000e+01
6.875000e+01
6.875000e+01
6.875000e+01
6.875000e+01
6.875000e+01
6.875000e+01
6.875000e+01
6.875000e+01
6.875000e+01
6.875000e+01
6.875000e+01
6.875000e+01
6.875000e+01
6.875000e+01
7.500000e+01
7.500000e+01
7.500000e+01
7.500000e+01
7.500000e+01
7.500000e+01
7.500000e+01
7.500000e+01
7.500000e+01
7.500000e+01
7.500000e+01
7.500000e+01
7.500000e+01
7.500000e+01
7.500000e+01
7.500000e+01
7.500000e+01
7.500000e+01
7.500000e+01
7.500000e+01
7.500000e+01
7.500000e+01
7.500000e+01
7.500000e+01
7.500000e+01
7.500000e+01
7.500000e+01
7.500000e+01
7.500000e+01
7.500000e+01
7.500000e+01
7.500000e+01
7.500000e+01
8.125000e+01
8.125000e+01
8.125000e+01
8.125000e+01
8.125000e+01
8.125000e+01
8.125000e+01
8.125000e+01
8.125000e+01
8.125000e+01
8.125000e+01
8.125000e+01
8.125000e+01
8.125000e+01
8.125000e+01
8.125000e+01
8.125000e+01
8.125000e+01
8.125000e+01
8.125000e+01
8.125000e+01
8.125000e+01
8.125000e+01
8.125000e+01
8.125000e+01
8.125000e+01
8.125000e+01
8.125000e+01
8.125000e+01
8.125000e+01
8.125000e+01
8.125000e+01
8.125000e+01
8.750000e+01
8.750000e+01
8.750000e+01
8.750000e+01
8.750000e+01
8.750000e+01
8.750000e+01
8.750000e+01
8.750000e+01
8.750000e+01
8.750000e+01
8.750000e+01
8.750000e+01
8.750000e+01
8.750000e+01
8.750000e+01
8.750000e+01
8.750000e+01
8.750000e+01
8.750000e+01
8.750000e+01
8.750000e+01
8.750000e+01
8.750000e+01
8.750000e+01
8.750000e+01
8.750000e+01
8.750000e+01
8.750000e+01
8.750000e+01
8.750000e+01
8.750000e+01
8.750000e+01
9.375000e+01
9.375000e+01
9.375000e+01
9.375000e+01
9.375000e+01
9.375000e+01
9.375000e+01
9.375000e+01
9.375000e+01
9.375000e+01
9.375000e+01
9.375000e+01
9.375000e+01
9.375000e+01
9.375000e+01
9.375000e+01
9.375000e+01
9.375000e+01
9.375000e+01
9.375000e+01
9.375000e+01
9.375000e+01
9.375000e+01
9.375000e+01
9.375000e+01
9.375000e+01
9.375000e+01
9.375000e+01
9.375000e+01
9.375000e+01
9.375000e+01
9.375000e+01
9.375000e+01
1.000000e+02
1.000000e+02
1.000000e+02
1.000000e+02
1.000000e+02
1.000000e+02
1.000000e+02
1.000000e+02
1.000000e+02
1.000000e+02
1.000000e+02
1.000000e+02
1.000000e+02
1.000000e+02
1.000000e+02
1.000000e+02
1.000000e+02
1.000000e+02
1.000000e+02
1.000000e+02
1.000000e+02
1.000000e+02
1.000000e+02
1.000000e+02
1.000000e+02
1.000000e+02
1.000000e+02
1.000000e+02
1.000000e+02
1.000000e+02
1.000000e+02
1.000000e+02
1.000000e+02
0.000000e+00
-3.970110e-02
-7.203237e-02
-1.019827e-01
-1.307266e-01
-1.584832e-01
-1.853082e-01
-2.111993e-01
-2.361401e-01
-2.601125e-01
-2.831015e-01
-3.050967e-01
-3.260928e-01
-3.460892e-01
-3.650908e-01
-3.831074e-01
-4.001553e-01
-4.162578e-01
-4.314474e-01
-4.457678e-01
-4.592772e-01
-4.720525e-01
-4.841956e-01
-4.958415e-01
-5.071710e-01
-5.184300e-01
-5.299600e-01
-5.422478e-01
-5.560078e-01
-5.722909e-01
-5.924610e-01
-6.164981e-01
-6.311676e-01
0.000000e+00
-2.661852e-02
-5.538270e-02
-8.250352e-02
-1.082808e-01
-1.329600e-01
-1.566715e-01
-1.794724e-01
-2.013854e-01
-2.224179e-01
-2.425713e-01
-2.618456e-01
-2.802417e-01
-2.977625e-01
-3.144140e-01
-3.302054e-01
-3.451501e-01
-3.592665e-01
-3.725792e-01
-3.851199e-01
-3.969291e-01
-4.080579e-01
-4.185697e-01
-4.285420e-01
-4.380677e-01
-4.472531e-01
-4.562111e-01
-4.650341e-01
-4.737216e-01
-4.819909e-01
-4.888815e-01
-4.929101e-01
-4.985185e-01
0.000000e+00
-2.111388e-02
-4.346800e-02
-6.622804e-02
-8.834376e-02
-1.096445e-01
-1.301166e-01
-1.497794e-01
-1.686505e-01
-1.867416e-01
-2.040604e-01
-2.206124e-01
-2.364021e-01
-2.514342e-01
-2.657143e-01
-2.792492e-01
-2.920478e-01
-3.041212e-01
-3.154828e-01
-3.261490e-01
-3.361382e-01
-3.454709e-01
-3.541667e-01
-3.622413e-01
-3.696976e-01
-3.765119e-01
-3.826062e-01
-3.878011e-01
-3.917453e-01
-3.938691e-01
-3.936829e-01
-3.924903e-01
-3.990395e-01
0.000000e+00
-1.675199e-02
-3.442916e-02
-5.259024e-02
-7.070876e-02
-8.838841e-02
-1.054778e-01
-1.219226e-01
-1.377081e-01
-1.528337e-01
-1.673032e-01
-1.811216e-01
-1.942934e-01
-2.068229e-01
-2.187137e-01
-2.299691e-01
-2.405923e-01
-2.505860e-01
-2.599522e-01
-2.686915e-01
-2.768016e-01
-2.842751e-01
-2.910955e-01
-2.972310e-01
-3.026248e-01
-3.071820e-01
-3.107514e-01
-3.131153e-01
-3.140178e-01
-3.133478e-01
-3.117205e-01
-3.116234e-01
-3.178631e-01
0.000000e+00
-1.300188e-02
-2.662342e-02
-4.068009e-02
-5.485096e-02
-6.884802e-02
-8.247815e-02
-9.564356e-02
-1.082998e-01
-1.204298e-01
-1.320290e-01
-1.430981e-01
-1.536392e-01
-1.636539e-01
-1.731431e-01
-1.821057e-01
-1.905392e-01
-1.984382e-01
-2.057948e-01
-2.125965e-01
-2.188251e-01
-2.244540e-01
-2.294446e-01
-2.337422e-01
-2.372708e-01
-2.399305e-01
-2.416042e-01
-2.421913e-01
-2.417097e-01
-2.405311e-01
-2.397665e-01
-2.415322e-01
-2.468549e-01
0.000000e+00
-9.555627e-03
-1.952065e-02
-2.980583e-02
-4.023343e-02
-5.060881e-02
-6.077744e-02
-7.063887e-02
-8.013798e-02
-8.924796e-02
-9.795750e-02
-1.062626e-01
-1.141618e-01
-1.216538e-01
-1.287357e-01
-1.354025e-01
-1.416462e-01
-1.474554e-01
-1.528145e-01
-1.577025e-01
-1.620918e-01
-1.659468e-01
-1.692225e-01
-1.718639e-01
-1.738085e-01
-1.749949e-01
-1.753886e-01
-1.750353e-01
-1.741647e-01
-1.733363e-01
-1.735380e-01
-1.757889e-01
-1.801931e-01
0.000000e+00
-6.288751e-03
-1.282625e-02
-1.957114e-02
-2.642723e-02
-3.327913e-02
-4.002349e-02
-4.658500e-02
-5.291652e-02
-5.899204e-02
-6.479842e-02
-7.032905e-02
-7.557969e-02
-8.054598e-02
-8.522192e-02
-8.959896e-02
-9.366529e-02
-9.740528e-02
-1.007989e-01
-1.038210e-01
-1.064415e-01
-1.086246e-01
-1.103307e-01
-1.115197e-01
-1.121585e-01
-1.122378e-01
-1.118010e-01
-1.109927e-01
-1.101206e-01
-1.096978e-01
-1.103574e-01
-1.125489e-01
-1.161041e-01
0.000000e+00
-3.123621e-03
-6.365332e-03
-9.708474e-03
-1.311082e-02
-1.651863e-02
-1.988085e-02
-2.315755e-02
-2.632174e-02
-2.935693e-02
-3.225337e-02
-3.500458e-02
-3.760493e-02
-4.004799e-02
-4.232542e-02
-4.442629e-02
-4.633650e-02
-4.803841e-02
-4.951065e-02
-5.072812e-02
-5.166269e-02
-5.228477e-02
-5.256657e-02
-5.248819e-02
-5.204809e-02
-5.127985e-02
-5.027645e-02
-4.921920e-02
-4.839846e-02
-4.819286e-02
-4.896674e-02
-5.087853e-02
-5.369947e-02
0.000000e+00
-5.039649e-06
-1.092740e-05
-1.733707e-05
-2.393152e-05
-3.025616e-05
-3.562589e-05
-3.899961e-05
-3.883358e-05
-3.290485e-05
-1.809816e-05
9.847524e-06
5.663241e-05
1.297228e-04
2.386956e-04
3.955713e-04
6.150829e-04
9.147979e-04
1.314962e-03
1.837864e-03
2.506418e-03
3.341541e-03
4.357718e-03
5.556053e-03
6.914097e-03
8.372361e-03
9.819197e-03
1.107973e-02
1.192119e-02
1.209183e-02
1.140474e-02
9.848704e-03
7.669393e-03
0.000000e+00
3.114129e-03
6.344709e-03
9.675686e-03
1.306546e-02
1.646111e-02
1.981287e-02
2.308274e-02
2.624662e-02
2.929217e-02
3.221546e-02
3.501804e-02
3.770499e-02
4.028392e-02
4.276458e-02
4.515876e-02
4.748027e-02
4.974489e-02
5.196989e-02
5.417303e-02
5.637079e-02
5.857527e-02
6.078960e-02
6.300150e-02
6.517502e-02
6.724155e-02
6.909293e-02
7.058200e-02
7.153877e-02
7.180965e-02
7.131907e-02
7.013703e-02
6.851955e-02
0.000000e+00
6.280997e-03
1.280928e-02
1.954398e-02
2.638936e-02
3.323066e-02
3.996553e-02
4.652020e-02
5.284982e-02
5.893170e-02
6.475743e-02
7.032687e-02
7.564454e-02
8.071759e-02
8.555493e-02
9.016686e-02
9.456492e-02
9.876167e-02
1.027701e-01
1.066027e-01
1.102693e-01
1.137747e-01
1.171139e-01
1.202679e-01
1.231969e-01
1.258359e-01
1.280933e-01
1.298563e-01
1.310103e-01
1.314717e-01
1.312344e-01
1.304165e-01
1.292876e-01
0.000000e+00
9.550681e-03
1.950963e-02
2.978788e-02
4.020794e-02
5.057554e-02
6.073674e-02
7.059203e-02
8.008771e-02
8.919906e-02
9.791777e-02
1.062440e-01
1.141821e-01
1.217381e-01
1.289193e-01
1.357332e-01
1.421878e-01
1.482913e-01
1.540517e-01
1.594754e-01
1.645664e-01
1.693233e-01
1.737371e-01
1.777870e-01
1.814370e-01
1.846341e-01
1.873096e-01
1.893860e-01
1.907941e-01
1.914997e-01
1.915394e-01
1.910596e-01
1.903461e-01
0.000000e+00
1.300065e-02
2.662035e-02
4.067459e-02
5.484246e-02
6.883604e-02
8.246237e-02
9.562396e-02
1.082768e-01
1.204043e-01
1.320031e-01
1.430751e-01
1.536243e-01
1.636551e-01
1.731718e-01
1.821782e-01
1.906776e-01
1.986730e-01
2.061662e-01
2.131576e-01
2.196450e-01
2.256226e-01
2.310788e-01
2.359947e-01
2.403428e-01
2.440865e-01
2.471829e-01
2.495895e-01
2.512761e-01
2.522450e-01
2.525593e-01
2.523792e-01
2.520033e-01
0.000000e+00
1.675510e-02
3.443548e-02
5.259965e-02
7.072099e-02
8.840311e-02
1.054944e-01
1.219404e-01
1.377256e-01
1.528488e-01
1.673127e-01
1.811206e-01
1.942751e-01
2.067777e-01
2.186285e-01
2.298266e-01
2.403700e-01
2.502551e-01
2.594770e-01
2.680294e-01
2.759034e-01
2.830882e-01
2.895700e-01
2.953326e-01
3.003575e-01
3.046260e-01
3.081220e-01
3.108376e-01
3.127812e-01
3.139890e-01
3.145446e-01
3.146108e-01
3.144861e-01
0.000000e+00
2.112148e-02
4.348421e-02
6.625344e-02
8.837882e-02
1.096896e-01
1.301718e-01
1.498442e-01
1.687230e-01
1.868180e-01
2.041342e-01
2.206730e-01
2.364333e-01
2.514120e-01
2.656045e-01
2.790043e-01
2.916033e-01
3.033910e-01
3.143552e-01
3.244810e-01
3.337520e-01
3.421501e-01
3.496570e-01
3.562559e-01
3.619344e-01
3.666880e-01
3.705254e-01
3.734736e-01
3.755836e-01
3.769350e-01
3.776424e-01
3.778728e-01
3.779003e-01
0.000000e+00
2.662993e-02
5.540762e-02
8.254360e-02
1.083380e-01
1.330363e-01
1.567685e-01
1.795911e-01
2.015254e-01
2.225763e-01
2.427415e-01
2.620155e-01
2.803910e-01
2.978597e-01
3.144115e-01
3.300347e-01
3.447150e-01
3.584352e-01
3.711747e-01
3.829095e-01
3.936124e-01
4.032546e-01
4.118077e-01
4.192472e-01
4.255576e-01
4.307392e-01
4.348166e-01
4.378471e-01
4.399290e-01
4.412046e-01
4.418563e-01
4.420926e-01
4.421504e-01
0.000000e+00
3.971359e-02
7.206151e-02
1.020326e-01
1.308013e-01
1.585868e-01
1.854449e-01
2.113731e-01
2.363542e-01
2.603681e-01
2.833965e-01
3.054233e-01
3.264343e-01
3.464161e-01
3.653548e-01
3.832346e-01
4.000365e-01
4.157369e-01
4.303074e-01
4.437132e-01
4.559142e-01
4.668652e-01
4.765195e-01
4.848326e-01
4.917704e-01
4.973187e-01
5.014973e-01
5.043760e-01
5.060918e-01
5.068649e-01
5.070054e-01
5.068890e-01
5.068235e-01
0.000000e+00
-2.453452e-02
-4.281804e-02
-6.276975e-02
-8.498718e-02
-1.100840e-01
-1.382345e-01
-1.694878e-01
-2.038127e-01
-2.411356e-01
-2.813575e-01
-3.243648e-01
-3.700346e-01
-4.182391e-01
-4.688481e-01
-5.217301e-01
-5.767548e-01
-6.337939e-01
-6.927235e-01
-7.534269e-01
-8.157985e-01
-8.797494e-01
-9.452160e-01
-1.012173e+00
-1.080654e+00
-1.150786e+00
-1.222848e+00
-1.297383e+00
-1.375432e+00
-1.459055e+00
-1.552697e+00
-1.666848e+00
-1.824550e+00
0.000000e+00
-1.524727e-02
-3.438529e-02
-5.447160e-02
-7.699869e-02
-1.023681e-01
-1.307923e-01
-1.623191e-01
-1.969202e-01
-2.345221e-01
-2.750252e-01
-3.183147e-01
-3.642671e-01
-4.127533e-01
-4.636418e-01
-5.168000e-01
-5.720958e-01
-6.293991e-01
-6.885835e-01
-7.495296e-01
-8.121279e-01
-8.762849e-01
-9.419314e-01
-1.009035e+00
-1.077620e+00
-1.147801e+00
-1.219842e+00
-1.294272e+00
-1.372108e+00
-1.455376e+00
-1.548296e+00
-1.659905e+00
-1.807239e+00
0.000000e+00
-1.120000e-02
-2.772126e-02
-4.753356e-02
-7.010001e-02
-9.565640e-02
-1.243049e-01
-1.560720e-01
-1.909195e-01
-2.287705e-01
-2.695237e-01
-3.130634e-01
-3.592655e-01
-4.080004e-01
-4.591363e-01
-5.125399e-01
-5.680786e-01
-6.256214e-01
-6.850413e-01
-7.462176e-01
-8.090400e-01
-8.734144e-01
-9.392713e-01
-1.006579e+00
-1.075365e+00
-1.145750e+00
-1.218012e+00
-1.292689e+00
-1.370789e+00
-1.454136e+00
-1.545846e+00
-1.649604e+00
-1.764701e+00
0.000000e+00
-8.968484e-03
-2.347431e-02
-4.223012e-02
-6.450656e-02
-9.005502e-02
-1.188260e-01
-1.507711e-01
-1.858215e-01
-2.238859e-01
-2.648568e-01
-3.086157e-01
-3.550372e-01
-4.039916e-01
-4.553472e-01
-5.089712e-01
-5.647311e-01
-6.224967e-01
-6.821415e-01
-7.435458e-01
-8.066010e-01
-8.712150e-01
-9.373218e-01
-1.004895e+00
-1.073968e+00
-1.144669e+00
-1.217271e+00
-1.292271e+00
-1.370495e+00
-1.453142e+00
-1.541365e+00
-1.634413e+00
-1.721030e+00
0.000000e+00
-7.588813e-03
-2.069696e-02
-3.846405e-02
-6.023268e-02
-8.561364e-02
-1.143955e-01
-1.464443e-01
-1.816445e-01
-2.198808e-01
-2.610338e-01
-3.049794e-01
-3.515901e-01
-4.007358e-01
-4.522851e-01
-5.061063e-01
-5.620682e-01
-6.200420e-01
-6.799030e-01
-7.415336e-01
-8.048275e-01
-8.696954e-01
-9.360741e-01
-1.003939e+00
-1.073321e+00
-1.144332e+00
-1.217196e+00
-1.292270e+00
-1.370028e+00
-1.450852e+00
-1.534356e+00
-1.617475e+00
-1.692909e+00
0.000000e+00
-6.710915e-03
-1.887467e-02
-3.587241e-02
-5.715102e-02
-8.229422e-02
-1.110135e-01
-1.431034e-01
-1.784021e-01
-2.167673e-01
-2.580645e-01
-3.021625e-01
-3.489306e-01
-3.982381e-01
-4.499543e-01
-5.039487e-01
-5.600919e-01
-6.182570e-01
-6.783214e-01
-7.401691e-01
-8.036955e-01
-8.688118e-01
-9.354530e-01
-1.003587e+00
-1.073225e+00
-1.144435e+00
-1.217343e+00
-1.292105e+00
-1.368808e+00
-1.447194e+00
-1.526068e+00
-1.602613e+00
-1.672574e+00
0.000000e+00
-6.165311e-03
-1.772253e-02
-3.418778e-02
-5.508653e-02
-8.001307e-02
-1.086470e-01
-1.407410e-01
-1.760979e-01
-2.145523e-01
-2.559559e-01
-3.001703e-01
-3.470619e-01
-3.964994e-01
-4.483529e-01
-5.024933e-01
-5.587930e-01
-6.171268e-01
-6.773735e-01
-7.394180e-01
-8.031547e-01
-8.684912e-01
-9.353537e-01
-1.003692e+00
-1.073482e+00
-1.144725e+00
-1.217428e+00
-1.291549e+00
-1.366874e+00
-1.442790e+00
-1.517984e+00
-1.590287e+00
-1.657044e+00
0.000000e+00
-5.865494e-03
-1.708323e-02
-3.323846e-02
-5.390272e-02
-7.868431e-02
-1.072526e-01
-1.393394e-01
-1.747279e-01
-2.132374e-01
-2.547107e-01
-2.990045e-01
-3.459834e-01
-3.955160e-01
-4.474734e-01
-5.017280e-01
-5.581536e-01
-6.166263e-01
-6.770250e-01
-7.392337e-01
-8.031428e-01
-8.686519e-01
-9.356720e-01
-1.004126e+00
-1.073944e+00
-1.145056e+00
-1.217356e+00
-1.290648e+00
-1.364540e+00
-1.438305e+00
-1.510759e+00
-1.580271e+00
-1.645028e+00
0.000000e+00
-5.768894e-03
-1.687698e-02
-3.293078e-02
-5.351691e-02
-7.824943e-02
-1.067958e-01
-1.388822e-01
-1.742855e-01
-2.128208e-01
-2.543281e-01
-2.986631e-01
-3.456907e-01
-3.952802e-01
-4.473041e-01
-5.016360e-01
-5.581508e-01
-6.167250e-01
-6.772365e-01
-7.395662e-01
-8.035981e-01
-8.692200e-01
-9.363231e-01
-1.004799e+00
-1.074532e+00
-1.145383e+00
-1.217161e+00
-1.289568e+00
-1.362138e+00
-1.434156e+00
-1.504618e+00
-1.572282e+00
-1.635819e+00
0.000000e+00
-5.862700e-03
-1.707936e-02
-3.323512e-02
-5.390171e-02
-7.868786e-02
-1.072636e-01
-1.393618e-01
-1.747668e-01
-2.132995e-01
-2.548047e-01
-2.991414e-01
-3.461765e-01
-3.957817e-01
-4.478306e-01
-5.021982e-01
-5.587598e-01
-6.173915e-01
-6.779692e-01
-7.403692e-01
-8.044671e-01
-8.701369e-01
-9.372483e-01
-1.005662e+00
-1.075219e+00
-1.145727e+00
-1.216934e+00
-1.288491e+00
-1.359919e+00
-1.430564e+00
-1.499603e+00
-1.566071e+00
-1.628955e+00
0.000000e+00
-6.159949e-03
-1.771509e-02
-3.418135e-02
-5.508451e-02
-8.001972e-02
-1.086680e-01
-1.407836e-01
-1.761722e-01
-2.146711e-01
-2.561359e-01
-3.004325e-01
-3.474321e-01
-3.970089e-01
-4.490382e-01
-5.033957e-01
-5.599571e-01
-6.185972e-01
-6.791891e-01
-7.416039e-01
-8.057080e-01
-8.713613e-01
-9.384132e-01
-1.006696e+00
-1.076016e+00
-1.146141e+00
-1.216780e+00
-1.287568e+00
-1.358042e+00
-1.427632e+00
-1.495669e+00
-1.561413e+00
-1.624083e+00
0.000000e+00
-6.703462e-03
-1.886433e-02
-3.586342e-02
-5.714811e-02
-8.230333e-02
-1.110424e-01
-1.431626e-01
-1.785055e-01
-2.169330e-01
-2.583158e-01
-3.025287e-01
-3.494480e-01
-3.989506e-01
-4.509132e-01
-5.052122e-01
-5.617228e-01
-6.203185e-01
-6.808695e-01
-7.432412e-01
-8.072917e-01
-8.728681e-01
-9.398017e-01
-1.007902e+00
-1.076949e+00
-1.146681e+00
-1.216790e+00
-1.286907e+00
-1.356601e+00
-1.425386e+00
-1.492733e+00
-1.558090e+00
-1.620889e+00
0.000000e+00
-7.580033e-03
-2.068479e-02
-3.845346e-02
-6.022931e-02
-8.562467e-02
-1.144304e-01
-1.465159e-01
-1.817694e-01
-2.200810e-01
-2.613374e-01
-3.054221e-01
-3.522158e-01
-4.015977e-01
-4.534455e-01
-5.076357e-01
-5.640431e-01
-6.225395e-01
-6.829925e-01
-7.452627e-01
-8.092010e-01
-8.746441e-01
-9.414095e-01
-1.009290e+00
-1.078045e+00
-1.147397e+00
-1.217027e+00
-1.286573e+00
-1.355638e+00
-1.423809e+00
-1.490683e+00
-1.555883e+00
-1.619062e+00
0.000000e+00
-8.959461e-03
-2.346181e-02
-4.221935e-02
-6.450367e-02
-9.006797e-02
-1.188654e-01
-1.508509e-01
-1.859604e-01
-2.241081e-01
-2.651934e-01
-3.091059e-01
-3.557296e-01
-4.049448e-01
-4.566297e-01
-5.106606e-01
-5.669116e-01
-6.252532e-01
-6.855506e-01
-7.476609e-01
-8.114295e-01
-8.766859e-01
-9.432383e-01
-1.010868e+00
-1.079322e+00
-1.148316e+00
-1.217523e+00
-1.286591e+00
-1.355152e+00
-1.422854e+00
-1.489394e+00
-1.554566e+00
-1.618265e+00
0.000000e+00
-1.119214e-02
-2.771031e-02
-4.752446e-02
-7.009914e-02
-9.567217e-02
-1.243484e-01
-1.561579e-01
-1.910671e-01
-2.290049e-01
-2.698770e-01
-3.135763e-01
-3.599876e-01
-4.089919e-01
-4.604672e-01
-5.142893e-01
-5.703315e-01
-6.284632e-01
-6.885477e-01
-7.504399e-01
-8.139820e-01
-8.789989e-01
-9.452937e-01
-1.012642e+00
-1.080786e+00
-1.149436e+00
-1.218269e+00
-1.286938e+00
-1.355098e+00
-1.422435e+00
-1.488726e+00
-1.553904e+00
-1.618126e+00
0.000000e+00
-1.524222e-02
-3.437784e-02
-5.446625e-02
-7.700200e-02
-1.023887e-01
-1.308412e-01
-1.624112e-01
-1.970748e-01
-2.347640e-01
-2.753861e-01
-3.188344e-01
-3.649941e-01
-4.137457e-01
-4.649669e-01
-5.185329e-01
-5.743162e-01
-6.321849e-01
-6.920013e-01
-7.536185e-01
-8.168767e-01
-8.815993e-01
-9.475873e-01
-1.014615e+00
-1.082426e+00
-1.150730e+00
-1.219211e+00
-1.287532e+00
-1.355363e+00
-1.422415e+00
-1.488509e+00
-1.553665e+00
-1.618244e+00
0.000000e+00
-2.453381e-02
-4.281556e-02
-6.277023e-02
-8.499720e-02
-1.101122e-01
-1.382921e-01
-1.695894e-01
-2.039771e-01
-2.413870e-01
-2.817265e-01
-3.248891e-01
-3.707601e-01
-4.192198e-01
-4.701456e-01
-5.234120e-01
-5.788903e-01
-6.364475e-01
-6.959443e-01
-7.572322e-01
-8.201503e-01
-8.845205e-01
-9.501440e-01