TITLE = "Solution"
VARIABLES = x, y, u, v, psiu, psiv, t, stress
ZONE T="structure" N=561 E=512 F=FEBLOCK ET=QUADRILATERAL VARLOCATION=([7,8]=cellcentered)
0.000000e+00
6.250000e+00
1.250000e+01
1.875000e+01
2.500000e+01
3.125000e+01
3.750000e+01
4.375000e+01
5.000000e+01
5.625000e+01
6.250000e+01
6.875000e+01
7.500000e+01
8.125000e+01
8.750000e+01
9.375000e+01
1.000000e+02
1.062500e+02
1.125000e+02
1.187500e+02
1.250000e+02
1.312500e+02
1.375000e+02
1.437500e+02
1.500000e+02
1.562500e+02
1.625000e+02
1.687500e+02
1.750000e+02
1.812500e+02
1.875000e+02
1.937500e+02
2.000000e+02
0.000000e+00
6.250000e+00
1.250000e+01
1.875000e+01
2.500000e+01
3.125000e+01
3.750000e+01
4.375000e+01
5.000000e+01
5.625000e+01
6.250000e+01
6.875000e+01
7.500000e+01
8.125000e+01
8.750000e+01
9.375000e+01
1.000000e+02
1.062500e+02
1.125000e+02
1.187500e+02
1.250000e+02
1.312500e+02
1.375000e+02
1.437500e+02
1.500000e+02
1.562500e+02
1.625000e+02
1.687500e+02
1.750000e+02
1.812500e+02
1.875000e+02
1.937500e+02
2.000000e+02
0.000000e+00
6.250000e+00
1.250000e+01
1.875000e+01
2.500000e+01
3.125000e+01
3.750000e+01
4.375000e+01
5.000000e+01
5.625000e+01
6.250000e+01
6.875000e+01
7.500000e+01
8.125000e+01
8.750000e+01
9.375000e+01
1.000000e+02
1.062500e+02
1.125000e+02
1.187500e+02
1.250000e+02
1.312500e+02
1.375000e+02
1.437500e+02
1.500000e+02
1.562500e+02
1.625000e+02
1.687500e+02
1.750000e+02
1.812500e+02
1.875000e+02
1.937500e+02
2.000000e+02
0.000000e+00
6.250000e+00
1.250000e+01
1.875000e+01
2.500000e+01
3.125000e+01
3.750000e+01
4.375000e+01
5.000000e+01
5.625000e+01
6.250000e+01
6.875000e+01
7.500000e+01
8.125000e+01
8.750000e+01
9.375000e+01
1.000000e+02
1.062500e+02
1.125000e+02
1.187500e+02
1.250000e+02
1.312500e+02
1.375000e+02
1.437500e+02
1.500000e+02
1.562500e+02
1.625000e+02
1.687500e+02
1.750000e+02
1.812500e+02
1.875000e+02
1.937500e+02
2.000000e+02
0.000000e+00
6.250000e+00
1.250000e+01
1.875000e+01
2.500000e+01
3.125000e+01
3.750000e+01
4.375000e+01
5.000000e+01
5.625000e+01
6.250000e+01
6.875000e+01
7.500000e+01
8.125000e+01
8.750000e+01
9.375000e+01
1.000000e+02
1.062500e+02
1.125000e+02
1.187500e+02
1.250000e+02
1.312500e+02
1.375000e+02
1.437500e+02
1.500000e+02
1.562500e+02
1.625000e+02
1.687500e+02
1.750000e+02
1.812500e+02
1.875000e+02
1.937500e+02
2.000000e+02
0.000000e+00
6.250000e+00
1.250000e+01
1.875000e+01
2.500000e+01
3.125000e+01
3.750000e+01
4.375000e+01
5.000000e+01
5.625000e+01
6.250000e+01
6.875000e+01
7.500000e+01
8.125000e+01
8.750000e+01
9.375000e+01
1.000000e+02
1.062500e+02
1.125000e+02
1.187500e+02
1.250000e+02
1.312500e+02
1.375000e+02
1.437500e+02
1.500000e+02
1.562500e+02
1.625000e+02
1.687500e+02
1.750000e+02
1.812500e+02
1.875000e+02
1.937500e+02
2.000000e+02
0.000000e+00
6.250000e+00
1.250000e+01
1.875000e+01
2.500000e+01
3.125000e+01
3.750000e+01
4.375000e+01
5.000000e+01
5.625000e+01
6.250000e+01
6.875000e+01
7.500000e+01
8.125000e+01
8.750000e+01
9.375000e+01
1.000000e+02
1.062500e+02
1.125000e+02
1.187500e+02
1.250000e+02
1.312500e+02
1.375000e+02
1.437500e+02
1.500000e+02
1.562500e+02
1.625000e+02
1.687500e+02
1.750000e+02
1.812500e+02
1.875000e+02
1.937500e+02
2.000000e+02
0.000000e+00
6.250000e+00
1.250000e+01
1.875000e+01
2.500000e+01
3.125000e+01
3.750000e+01
4.375000e+01
5.000000e+01
5.625000e+01
6.250000e+01
6.875000e+01
7.500000e+01
8.125000e+01
8.750000e+01
9.375000e+01
1.000000e+02
1.062500e+02
1.125000e+02
1.187500e+02
1.250000e+02
1.312500e+02
1.375000e+02
1.437500e+02
1.500000e+02
1.562500e+02
1.625000e+02
1.687500e+02
1.750000e+02
1.812500e+02
1.875000e+02
1.937500e+02
2.000000e+02
0.000000e+00
6.250000e+00
1.250000e+01
1.875000e+01
2.500000e+01
3.125000e+01
3.750000e+01
4.375000e+01
5.000000e+01
5.625000e+01
6.250000e+01
6.875000e+01
7.500000e+01
8.125000e+01
8.750000e+01
9.375000e+01
1.000000e+02
1.062500e+02
1.125000e+02
1.187500e+02
1.250000e+02
1.312500e+02
1.375000e+02
1.437500e+02
1.500000e+02
1.562500e+02
1.625000e+02
1.687500e+02
1.750000e+02
1.812500e+02
1.875000e+02
1.937500e+02
2.000000e+02
0.000000e+00
6.250000e+00
1.250000e+01
1.875000e+01
2.500000e+01
3.125000e+01
3.750000e+01
4.375000e+01
5.000000e+01
5.625000e+01
6.250000e+01
6.875000e+01
7.500000e+01
8.125000e+01
8.750000e+01
9.375000e+01
1.000000e+02
1.062500e+02
1.125000e+02
1.187500e+02
1.250000e+02
1.312500e+02
1.375000e+02
1.437500e+02
1.500000e+02
1.562500e+02
1.625000e+02
1.687500e+02
1.750000e+02
1.812500e+02
1.875000e+02
1.937500e+02
2.000000e+02
0.000000e+00
6.250000e+00
1.250000e+01
1.875000e+01
2.500000e+01
3.125000e+01
3.750000e+01
4.375000e+01
5.000000e+01
5.625000e+01
6.250000e+01
6.875000e+01
7.500000e+01
8.125000e+01
8.750000e+01
9.375000e+01
1.000000e+02
1.062500e+02
1.125000e+02
1.187500e+02
1.250000e+02
1.312500e+02
1.375000e+02
1.437500e+02
1.500000e+02
1.562500e+02
1.625000e+02
1.687500e+02
1.750000e+02
1.812500e+02
1.875000e+02
1.937500e+02
2.000000e+02
0.000000e+00
6.250000e+00
1.250000e+01
1.875000e+01
2.500000e+01
3.125000e+01
3.750000e+01
4.375000e+01
5.000000e+01
5.625000e+01
6.250000e+01
6.875000e+01
7.500000e+01
8.125000e+01
8.750000e+01
9.375000e+01
1.000000e+02
1.062500e+02
1.125000e+02
1.187500e+02
1.250000e+02
1.312500e+02
1.375000e+02
1.437500e+02
1.500000e+02
1.562500e+02
1.625000e+02
1.687500e+02
1.750000e+02
1.812500e+02
1.875000e+02
1.937500e+02
2.000000e+02
0.000000e+00
6.250000e+00
1.250000e+01
1.875000e+01
2.500000e+01
3.125000e+01
3.750000e+01
4.375000e+01
5.000000e+01
5.625000e+01
6.250000e+01
6.875000e+01
7.500000e+01
8.125000e+01
8.750000e+01
9.375000e+01
1.000000e+02
1.062500e+02
1.125000e+02
1.187500e+02
1.250000e+02
1.312500e+02
1.375000e+02
1.437500e+02
1.500000e+02
1.562500e+02
1.625000e+02
1.687500e+02
1.750000e+02
1.812500e+02
1.875000e+02
1.937500e+02
2.000000e+02
0.000000e+00
6.250000e+00
1.250000e+01
1.875000e+01
2.500000e+01
3.125000e+01
3.750000e+01
4.375000e+01
5.000000e+01
5.625000e+01
6.250000e+01
6.875000e+01
7.500000e+01
8.125000e+01
8.750000e+01
9.375000e+01
1.000000e+02
1.062500e+02
1.125000e+02
1.187500e+02
1.250000e+02
1.312500e+02
1.375000e+02
1.437500e+02
1.500000e+02
1.562500e+02
1.625000e+02
1.687500e+02
1.750000e+02
1.812500e+02
1.875000e+02
1.937500e+02
2.000000e+02
0.000000e+00
6.250000e+00
1.250000e+01
1.875000e+01
2.500000e+01
3.125000e+01
3.750000e+01
4.375000e+01
5.000000e+01
5.625000e+01
6.250000e+01
6.875000e+01
7.500000e+01
8.125000e+01
8.750000e+01
9.375000e+01
1.000000e+02
1.062500e+02
1.125000e+02
1.187500e+02
1.250000e+02
1.312500e+02
1.375000e+02
1.437500e+02
1.500000e+02
1.562500e+02
1.625000e+02
1.687500e+02
1.750000e+02
1.812500e+02
1.875000e+02
1.937500e+02
2.000000e+02
0.000000e+00
6.250000e+00
1.250000e+01
1.875000e+01
2.500000e+01
3.125000e+01
3.750000e+01
4.375000e+01
5.000000e+01
5.625000e+01
6.250000e+01
6.875000e+01
7.500000e+01
8.125000e+01
8.750000e+01
9.375000e+01
1.000000e+02
1.062500e+02
1.125000e+02
1.187500e+02
1.250000e+02
1.312500e+02
1.375000e+02
1.437500e+02
1.500000e+02
1.562500e+02
1.625000e+02
1.687500e+02
1.750000e+02
1.812500e+02
1.875000e+02
1.937500e+02
2.000000e+02
0.000000e+00
6.250000e+00
1.250000e+01
1.875000e+01
2.500000e+01
3.125000e+01
3.750000e+01
4.375000e+01
5.000000e+01
5.625000e+01
6.250000e+01
6.875000e+01
7.500000e+01
8.125000e+01
8.750000e+01
9.375000e+01
1.000000e+02
1.062500e+02
1.125000e+02
1.187500e+02
1.250000e+02
1.312500e+02
1.375000e+02
1.437500e+02
1.500000e+02
1.562500e+02
1.625000e+02
1.687500e+02
1.750000e+02
1.812500e+02
1.875000e+02
1.937500e+02
2.000000e+02
0.000000e+00
0.000000e+00
0.000000e+00
0.000000e+00
0.000000e+00
0.000000e+00
0.000000e+00
0.000000e+00
0.000000e+00
0.000000e+00
0.000000e+00
0.000000e+00
0.000000e+00
0.000000e+00
0.000000e+00
0.000000e+00
0.000000e+00
0.000000e+00
0.000000e+00
0.000000e+00
0.000000e+00
0.000000e+00
0.000000e+00
0.000000e+00
0.000000e+00
0.000000e+00
0.000000e+00
0.000000e+00
0.000000e+00
0.000000e+00
0.000000e+00
0.000000e+00
0.000000e+00
6.250000e+00
6.250000e+00
6.250000e+00
6.250000e+00
6.250000e+00
6.250000e+00
6.250000e+00
6.250000e+00
6.250000e+00
6.250000e+00
6.250000e+00
6.250000e+00
6.250000e+00
6.250000e+00
6.250000e+00
6.250000e+00
6.250000e+00
6.250000e+00
6.250000e+00
6.250000e+00
6.250000e+00
6.250000e+00
6.250000e+00
6.250000e+00
6.250000e+00
6.250000e+00
6.250000e+00
6.250000e+00
6.250000e+00
6.250000e+00
6.250000e+00
6.250000e+00
6.250000e+00
1.250000e+01
1.250000e+01
1.250000e+01
1.250000e+01
1.250000e+01
1.250000e+01
1.250000e+01
1.250000e+01
1.250000e+01
1.250000e+01
1.250000e+01
1.250000e+01
1.250000e+01
1.250000e+01
1.250000e+01
1.250000e+01
1.250000e+01
1.250000e+01
1.250000e+01
1.250000e+01
1.250000e+01
1.250000e+01
1.250000e+01
1.250000e+01
1.250000e+01
1.250000e+01
1.250000e+01
1.250000e+01
1.250000e+01
1.250000e+01
1.250000e+01
1.250000e+01
1.250000e+01
1.875000e+01
1.875000e+01
1.875000e+01
1.875000e+01
1.875000e+01
1.875000e+01
1.875000e+01
1.875000e+01
1.875000e+01
1.875000e+01
1.875000e+01
1.875000e+01
1.875000e+01
1.875000e+01
1.875000e+01
1.875000e+01
1.875000e+01
1.875000e+01
1.875000e+01
1.875000e+01
1.875000e+01
1.875000e+01
1.875000e+01
1.875000e+01
1.875000e+01
1.875000e+01
1.875000e+01
1.875000e+01
1.875000e+01
1.875000e+01
1.875000e+01
1.875000e+01
1.875000e+01
2.500000e+01
2.500000e+01
2.500000e+01
2.500000e+01
2.500000e+01
2.500000e+01
2.500000e+01
2.500000e+01
2.500000e+01
2.500000e+01
2.500000e+01
2.500000e+01
2.500000e+01
2.500000e+01
2.500000e+01
2.500000e+01
2.500000e+01
2.500000e+01
2.500000e+01
2.500000e+01
2.500000e+01
2.500000e+01
2.500000e+01
2.500000e+01
2.500000e+01
2.500000e+01
2.500000e+01
2.500000e+01
2.500000e+01
2.500000e+01
2.500000e+01
2.500000e+01
2.500000e+01
3.125000e+01
3.125000e+01
3.125000e+01
3.125000e+01
3.125000e+01
3.125000e+01
3.125000e+01
3.125000e+01
3.125000e+01
3.125000e+01
3.125000e+01
3.125000e+01
3.125000e+01
3.125000e+01
3.125000e+01
3.125000e+01
3.125000e+01
3.125000e+01
3.125000e+01
3.125000e+01
3.125000e+01
3.125000e+01
3.125000e+01
3.125000e+01
3.125000e+01
3.125000e+01
3.125000e+01
3.125000e+01
3.125000e+01
3.125000e+01
3.125000e+01
3.125000e+01
3.125000e+01
3.750000e+01
3.750000e+01
3.750000e+01
3.750000e+01
3.750000e+01
3.750000e+01
3.750000e+01
3.750000e+01
3.750000e+01
3.750000e+01
3.750000e+01
3.750000e+01
3.750000e+01
3.750000e+01
3.750000e+01
3.750000e+01
3.750000e+01
3.750000e+01
3.750000e+01
3.750000e+01
3.750000e+01
3.750000e+01
3.750000e+01
3.750000e+01
3.750000e+01
3.750000e+01
3.750000e+01
3.750000e+01
3.750000e+01
3.750000e+01
3.750000e+01
3.750000e+01
3.750000e+01
4.375000e+01
4.375000e+01
4.375000e+01
4.375000e+01
4.375000e+01
4.375000e+01
4.375000e+01
4.375000e+01
4.375000e+01
4.375000e+01
4.375000e+01
4.375000e+01
4.375000e+01
4.375000e+01
4.375000e+01
4.375000e+01
4.375000e+01
4.375000e+01
4.375000e+01
4.375000e+01
4.375000e+01
4.375000e+01
4.375000e+01
4.375000e+01
4.375000e+01
4.375000e+01
4.375000e+01
4.375000e+01
4.375000e+01
4.375000e+01
4.375000e+01
4.375000e+01
4.375000e+01
5.000000e+01
5.000000e+01
5.000000e+01
5.000000e+01
5.000000e+01
5.000000e+01
5.000000e+01
5.000000e+01
5.000000e+01
5.000000e+01
5.000000e+01
5.000000e+01
5.000000e+01
5.000000e+01
5.000000e+01
5.000000e+01
5.000000e+01
5.000000e+01
5.000000e+01
5.000000e+01
5.000000e+01
5.000000e+01
5.000000e+01
5.000000e+01
5.000000e+01
5.000000e+01
5.000000e+01
5.000000e+01
5.000000e+01
5.000000e+01
5.000000e+01
5.000000e+01
5.000000e+01
5.625000e+01
5.625000e+01
5.625000e+01
5.625000e+01
5.625000e+01
5.625000e+01
5.625000e+01
5.625000e+01
5.625000e+01
5.625000e+01
5.625000e+01
5.625000e+01
5.625000e+01
5.625000e+01
5.625000e+01
5.625000e+01
5.625000e+01
5.625000e+01
5.625000e+01
5.625000e+01
5.625000e+01
5.625000e+01
5.625000e+01
5.625000e+01
5.625000e+01
5.625000e+01
5.625000e+01
5.625000e+01
5.625000e+01
5.625000e+01
5.625000e+01
5.625000e+01
5.625000e+01
6.250000e+01
6.250000e+01
6.250000e+01
6.250000e+01
6.250000e+01
6.250000e+01
6.250000e+01
6.250000e+01
6.250000e+01
6.250000e+01
6.250000e+01
6.250000e+01
6.250000e+01
6.250000e+01
6.250000e+01
6.250000e+01
6.250000e+01
6.250000e+01
6.250000e+01
6.250000e+01
6.250000e+01
6.250000e+01
6.250000e+01
6.250000e+01
6.250000e+01
6.250000e+01
6.250000e+01
6.250000e+01
6.250000e+01
6.250000e+01
6.250000e+01
6.250000e+01
6.250000e+01
6.875000e+01
6.875000e+01
6.875000e+01
6.875000e+01
6.875000e+01
6.875000e+01
6.875000e+01
6.875000e+01
6.875000e+01
6.875000e+01
6.875000e+01
6.875000e+01
6.875000e+01
6.875000e+01
6.875000e+01
6.875000e+01
6.875000e+01
6.875000e+01
6.875000e+01
6.875000e+01
6.875000e+01
6.875000e+01
6.875000e+01
6.875000e+01
6.875000e+01
6.875000e+01
6.875000e+01
6.875000e+01
6.875000e+01
6.875000e+01
6.875000e+01
6.875000e+01
6.875000e+01
7.500000e+01
7.500000e+01
7.500000e+01
7.500000e+01
7.500000e+01
7.500000e+01
7.500000e+01
7.500000e+01
7.500000e+01
7.500000e+01
7.500000e+01
7.500000e+01
7.500000e+01
7.500000e+01
7.500000e+01
7.500000e+01
7.500000e+01
7.500000e+01
7.500000e+01
7.500000e+01
7.500000e+01
7.500000e+01
7.500000e+01
7.500000e+01
7.500000e+01
7.500000e+01
7.500000e+01
7.500000e+01
7.500000e+01
7.500000e+01
7.500000e+01
7.500000e+01
7.500000e+01
8.125000e+01
8.125000e+01
8.125000e+01
8.125000e+01
8.125000e+01
8.125000e+01
8.125000e+01
8.125000e+01
8.125000e+01
8.125000e+01
8.125000e+01
8.125000e+01
8.125000e+01
8.125000e+01
8.125000e+01
8.125000e+01
8.125000e+01
8.125000e+01
8.125000e+01
8.125000e+01
8.125000e+01
8.125000e+01
8.125000e+01
8.125000e+01
8.125000e+01
8.125000e+01
8.125000e+01
8.125000e+01
8.125000e+01
8.125000e+01
8.125000e+01
8.125000e+01
8.125000e+01
8.750000e+01
8.750000e+01
8.750000e+01
8.750000e+01
8.750000e+01
8.750000e+01
8.750000e+01
8.750000e+01
8.750000e+01
8.750000e+01
8.750000e+01
8.750000e+01
8.750000e+01
8.750000e+01
8.750000e+01
8.750000e+01
8.750000e+01
8.750000e+01
8.750000e+01
8.750000e+01
8.750000e+01
8.750000e+01
8.750000e+01
8.750000e+01
8.750000e+01
8.750000e+01
8.750000e+01
8.750000e+01
8.750000e+01
8.750000e+01
8.750000e+01
8.750000e+01
8.750000e+01
9.375000e+01
9.375000e+01
9.375000e+01
9.375000e+01
9.375000e+01
9.375000e+01
9.375000e+01
9.375000e+01
9.375000e+01
9.375000e+01
9.375000e+01
9.375000e+01
9.375000e+01
9.375000e+01
9.375000e+01
9.375000e+01
9.375000e+01
9.375000e+01
9.375000e+01
9.375000e+01
9.375000e+01
9.375000e+01
9.375000e+01
9.375000e+01
9.375000e+01
9.375000e+01
9.375000e+01
9.375000e+01
9.375000e+01
9.375000e+01
9.375000e+01
9.375000e+01
9.375000e+01
1.000000e+02
1.000000e+02
1.000000e+02
1.000000e+02
1.000000e+02
1.000000e+02
1.000000e+02
1.000000e+02
1.000000e+02
1.000000e+02
1.000000e+02
1.000000e+02
1.000000e+02
1.000000e+02
1.000000e+02
1.000000e+02
1.000000e+02
1.000000e+02
1.000000e+02
1.000000e+02
1.000000e+02
1.000000e+02
1.000000e+02
1.000000e+02
1.000000e+02
1.000000e+02
1.000000e+02
1.000000e+02
1.000000e+02
1.000000e+02
1.000000e+02
1.000000e+02
1.000000e+02
0.000000e+00
-4.000019e-02
-7.257503e-02
-1.027510e-01
-1.317115e-01
-1.596772e-01
-1.867043e-01
-2.127904e-01
-2.379191e-01
-2.620721e-01
-2.852343e-01
-3.073952e-01
-3.285494e-01
-3.486965e-01
-3.678412e-01
-3.859936e-01
-4.031699e-01
-4.193937e-01
-4.346978e-01
-4.491260e-01
-4.627371e-01
-4.756087e-01
-4.878433e-01
-4.995769e-01
-5.109918e-01
-5.223357e-01
-5.339525e-01
-5.463329e-01
-5.601965e-01
-5.766023e-01
-5.969243e-01
-6.211425e-01
-6.359226e-01
0.000000e+00
-2.681906e-02
-5.579993e-02
-8.312506e-02
-1.090965e-01
-1.339617e-01
-1.578518e-01
-1.808245e-01
-2.029026e-01
-2.240935e-01
-2.443987e-01
-2.638182e-01
-2.823529e-01
-3.000057e-01
-3.167827e-01
-3.326930e-01
-3.477503e-01
-3.619731e-01
-3.753860e-01
-3.880212e-01
-3.999194e-01
-4.111320e-01
-4.217230e-01
-4.317705e-01
-4.413679e-01
-4.506225e-01
-4.596480e-01
-4.685374e-01
-4.772904e-01
-4.856220e-01
-4.925645e-01
-4.966234e-01
-5.022741e-01
0.000000e+00
-2.127294e-02
-4.379546e-02
-6.672697e-02
-8.900930e-02
-1.104705e-01
-1.310968e-01
-1.509078e-01
-1.699210e-01
-1.881484e-01
-2.055977e-01
-2.222744e-01
-2.381830e-01
-2.533284e-01
-2.677160e-01
-2.813529e-01
-2.942480e-01
-3.064123e-01
-3.178595e-01
-3.286060e-01
-3.386706e-01
-3.480735e-01
-3.568349e-01
-3.649702e-01
-3.724827e-01
-3.793484e-01
-3.854886e-01
-3.907226e-01
-3.946965e-01
-3.968363e-01
-3.966487e-01
-3.954472e-01
-4.020457e-01
0.000000e+00
-1.687819e-02
-3.468853e-02
-5.298643e-02
-7.124145e-02
-8.905428e-02
-1.062724e-01
-1.228411e-01
-1.387455e-01
-1.539850e-01
-1.685636e-01
-1.824861e-01
-1.957571e-01
-2.083810e-01
-2.203614e-01
-2.317016e-01
-2.424048e-01
-2.524738e-01
-2.619106e-01
-2.707157e-01
-2.788869e-01
-2.864167e-01
-2.932885e-01
-2.994702e-01
-3.049047e-01
-3.094961e-01
-3.130925e-01
-3.154741e-01
-3.163835e-01
-3.157084e-01
-3.140689e-01
-3.139710e-01
-3.202577e-01
0.000000e+00
-1.309983e-02
-2.682399e-02
-4.098656e-02
-5.526418e-02
-6.936669e-02
-8.309950e-02
-9.636410e-02
-1.091157e-01
-1.213370e-01
-1.330237e-01
-1.441761e-01
-1.547966e-01
-1.648868e-01
-1.744475e-01
-1.834776e-01
-1.919746e-01
-1.999332e-01
-2.073452e-01
-2.141981e-01
-2.204737e-01
-2.261449e-01
-2.311732e-01
-2.355031e-01
-2.390583e-01
-2.417381e-01
-2.434244e-01
-2.440159e-01
-2.435306e-01
-2.423432e-01
-2.415728e-01
-2.433518e-01
-2.487146e-01
0.000000e+00
-9.627614e-03
-1.966771e-02
-3.003037e-02
-4.053653e-02
-5.099007e-02
-6.123531e-02
-7.117103e-02
-8.074171e-02
-8.992031e-02
-9.869546e-02
-1.070631e-01
-1.150219e-01
-1.225703e-01
-1.297056e-01
-1.364226e-01
-1.427133e-01
-1.485663e-01
-1.539658e-01
-1.588905e-01
-1.633129e-01
-1.671969e-01
-1.704973e-01
-1.731587e-01
-1.751178e-01
-1.763133e-01
-1.767099e-01
-1.763540e-01
-1.754767e-01
-1.746421e-01
-1.748453e-01
-1.771132e-01
-1.815506e-01
0.000000e+00
-6.336128e-03
-1.292288e-02
-1.971858e-02
-2.662632e-02
-3.352984e-02
-4.032501e-02
-4.693595e-02
-5.331516e-02
-5.943645e-02
-6.528658e-02
-7.085887e-02
-7.614907e-02
-8.115278e-02
-8.586394e-02
-9.027395e-02
-9.437092e-02
-9.813908e-02
-1.015582e-01
-1.046032e-01
-1.072434e-01
-1.094429e-01
-1.111619e-01
-1.123598e-01
-1.130035e-01
-1.130833e-01
-1.126432e-01
-1.118289e-01
-1.109502e-01
-1.105242e-01
-1.111888e-01
-1.133968e-01
-1.169787e-01
0.000000e+00
-3.147153e-03
-6.413286e-03
-9.781613e-03
-1.320959e-02
-1.664307e-02
-2.003062e-02
-2.333201e-02
-2.652003e-02
-2.957809e-02
-3.249635e-02
-3.526829e-02
-3.788823e-02
-4.034969e-02
-4.264428e-02
-4.476097e-02
-4.668557e-02
-4.840031e-02
-4.988364e-02
-5.111028e-02
-5.205189e-02
-5.267866e-02
-5.296258e-02
-5.288361e-02
-5.244019e-02
-5.166617e-02
-5.065521e-02
-4.958999e-02
-4.876307e-02
-4.855592e-02
-4.933564e-02
-5.126182e-02
-5.410401e-02
0.000000e+00
-5.077615e-06
-1.100972e-05
-1.746768e-05
-2.411181e-05
-3.048410e-05
-3.589428e-05
-3.929342e-05
-3.912614e-05
-3.315274e-05
-1.823450e-05
9.921710e-06
5.705905e-05
1.307000e-04
2.404938e-04
3.985514e-04
6.197167e-04
9.216896e-04
1.324869e-03
1.851710e-03
2.525301e-03
3.366715e-03
4.390547e-03
5.597910e-03
6.966185e-03
8.435435e-03
9.893170e-03
1.116320e-02
1.201100e-02
1.218292e-02
1.149066e-02
9.922900e-03
7.727171e-03
0.000000e+00
3.137589e-03
6.392507e-03
9.748579e-03
1.316389e-02
1.658512e-02
1.996214e-02
2.325664e-02
2.644435e-02
2.951284e-02
3.245816e-02
3.528185e-02
3.798904e-02
4.058740e-02
4.308675e-02
4.549896e-02
4.783797e-02
5.011965e-02
5.236140e-02
5.458115e-02
5.679546e-02
5.901655e-02
6.124756e-02
6.347613e-02
6.566602e-02
6.774812e-02
6.961345e-02
7.111374e-02
7.207771e-02
7.235063e-02
7.185636e-02
7.066541e-02
6.903575e-02
0.000000e+00
6.328315e-03
1.290578e-02
1.969121e-02
2.658816e-02
3.348100e-02
4.026662e-02
4.687066e-02
5.324796e-02
5.937567e-02
6.524528e-02
7.085668e-02
7.621441e-02
8.132568e-02
8.619946e-02
9.084613e-02
9.527733e-02
9.950570e-02
1.035443e-01
1.074058e-01
1.111001e-01
1.146318e-01
1.179962e-01
1.211739e-01
1.241250e-01
1.267839e-01
1.290582e-01
1.308346e-01
1.319972e-01
1.324621e-01
1.322231e-01
1.313990e-01
1.302616e-01
0.000000e+00
9.622631e-03
1.965661e-02
3.001229e-02
4.051085e-02
5.095656e-02
6.119430e-02
7.112384e-02
8.069105e-02
8.987104e-02
9.865543e-02
1.070444e-01
1.150423e-01
1.226553e-01
1.298905e-01
1.367557e-01
1.432590e-01
1.494085e-01
1.552122e-01
1.606768e-01
1.658061e-01
1.705990e-01
1.750460e-01
1.791263e-01
1.828038e-01
1.860251e-01
1.887207e-01
1.908127e-01
1.922315e-01
1.929424e-01
1.929824e-01
1.924989e-01
1.917801e-01
0.000000e+00
1.309859e-02
2.682089e-02
4.098102e-02
5.525562e-02
6.935462e-02
8.308361e-02
9.634435e-02
1.090925e-01
1.213114e-01
1.329976e-01
1.441530e-01
1.547816e-01
1.648880e-01
1.744764e-01
1.835506e-01
1.921141e-01
2.001697e-01
2.077194e-01
2.147634e-01
2.212998e-01
2.273224e-01
2.328196e-01
2.377726e-01
2.421534e-01
2.459253e-01
2.490451e-01
2.514698e-01
2.531691e-01
2.541453e-01
2.544620e-01
2.542805e-01
2.539018e-01
0.000000e+00
1.688133e-02
3.469490e-02
5.299591e-02
7.125377e-02
8.906909e-02
1.062892e-01
1.228590e-01
1.387632e-01
1.540003e-01
1.685732e-01
1.824851e-01
1.957387e-01
2.083354e-01
2.202755e-01
2.315580e-01
2.421808e-01
2.521404e-01
2.614318e-01
2.700486e-01
2.779819e-01
2.852208e-01
2.917515e-01
2.975575e-01
3.026203e-01
3.069209e-01
3.104432e-01
3.131793e-01
3.151375e-01
3.163544e-01
3.169142e-01
3.169809e-01
3.168553e-01
0.000000e+00
2.128059e-02
4.381180e-02
6.675256e-02
8.904462e-02
1.105159e-01
1.311525e-01
1.509731e-01
1.699940e-01
1.882254e-01
2.056721e-01
2.223355e-01
2.382145e-01
2.533060e-01
2.676054e-01
2.811062e-01
2.938001e-01
3.056767e-01
3.167234e-01
3.269255e-01
3.362663e-01
3.447277e-01
3.522911e-01
3.589398e-01
3.646610e-01
3.694504e-01
3.733167e-01
3.762872e-01
3.784131e-01
3.797747e-01
3.804874e-01
3.807195e-01
3.807472e-01
0.000000e+00
2.683054e-02
5.582503e-02
8.316544e-02
1.091542e-01
1.340385e-01
1.579496e-01
1.809441e-01
2.030436e-01
2.242530e-01
2.445702e-01
2.639894e-01
2.825034e-01
3.001036e-01
3.167801e-01
3.325210e-01
3.473119e-01
3.611355e-01
3.739710e-01
3.857941e-01
3.965777e-01
4.062925e-01
4.149101e-01
4.224056e-01
4.287635e-01
4.339842e-01
4.380923e-01
4.411457e-01
4.432432e-01
4.445284e-01
4.451850e-01
4.454231e-01
4.454814e-01
0.000000e+00
4.001277e-02
7.260438e-02
1.028013e-01
1.317867e-01
1.597815e-01
1.868420e-01
2.129655e-01
2.381347e-01
2.623296e-01
2.855315e-01
3.077242e-01
3.288935e-01
3.490259e-01
3.681073e-01
3.861217e-01
4.030501e-01
4.188689e-01
4.335491e-01
4.470560e-01
4.593488e-01
4.703824e-01
4.801094e-01
4.884851e-01
4.954752e-01
5.010652e-01
5.052754e-01
5.081757e-01
5.099044e-01
5.106834e-01
5.108249e-01
5.107077e-01
5.106417e-01
0.000000e+00
-2.471936e-02
-4.314061e-02
-6.324263e-02
-8.562743e-02
-1.109133e-01
-1.392759e-01
-1.707647e-01
-2.053481e-01
-2.429522e-01
-2.834772e-01
-3.268084e-01
-3.728222e-01
-4.213899e-01
-4.723801e-01
-5.256606e-01
-5.810998e-01
-6.385686e-01
-6.979422e-01
-7.591029e-01
-8.219443e-01
-8.863770e-01
-9.523369e-01
-1.019798e+00
-1.088796e+00
-1.159456e+00
-1.232060e+00
-1.307157e+00
-1.385793e+00
-1.470047e+00
-1.564395e+00
-1.679405e+00
-1.838295e+00
0.000000e+00
-1.536214e-02
-3.464433e-02
-5.488196e-02
-7.757876e-02
-1.031393e-01
-1.317776e-01
-1.635419e-01
-1.984037e-01
-2.362889e-01
-2.770971e-01
-3.207128e-01
-3.670113e-01
-4.158628e-01
-4.671347e-01
-5.206933e-01
-5.764057e-01
-6.341407e-01
-6.937710e-01
-7.551762e-01
-8.182461e-01
-8.828865e-01
-9.490275e-01
-1.016636e+00
-1.085738e+00
-1.156448e+00
-1.229032e+00
-1.304022e+00
-1.382445e+00
-1.466341e+00
-1.559960e+00
-1.672410e+00
-1.820854e+00
0.000000e+00
-1.128438e-02
-2.793010e-02
-4.789165e-02
-7.062811e-02
-9.637704e-02
-1.252413e-01
-1.572478e-01
-1.923578e-01
-2.304939e-01
-2.715541e-01
-3.154219e-01
-3.619720e-01
-4.110741e-01
-4.625952e-01
-5.164012e-01
-5.723583e-01
-6.303346e-01
-6.902021e-01
-7.518392e-01
-8.151350e-01
-8.799943e-01
-9.463473e-01
-1.014162e+00
-1.083466e+00
-1.154382e+00
-1.227188e+00
-1.302428e+00
-1.381116e+00
-1.465091e+00
-1.557492e+00
-1.662031e+00
-1.777996e+00
0.000000e+00
-9.036049e-03
-2.365116e-02
-4.254826e-02
-6.499252e-02
-9.073345e-02
-1.197212e-01
-1.519069e-01
-1.872214e-01
-2.255726e-01
-2.668521e-01
-3.109407e-01
-3.577119e-01
-4.070351e-01
-4.587776e-01
-5.128055e-01
-5.689855e-01
-6.271863e-01
-6.872804e-01
-7.491474e-01
-8.126776e-01
-8.777784e-01
-9.443832e-01
-1.012465e+00
-1.082059e+00
-1.153292e+00
-1.226441e+00
-1.302007e+00
-1.380819e+00
-1.464090e+00
-1.552977e+00
-1.646726e+00
-1.733996e+00
0.000000e+00
-7.645983e-03
-2.085288e-02
-3.875382e-02
-6.068645e-02
-8.625861e-02
-1.152573e-01
-1.475476e-01
-1.830129e-01
-2.215373e-01
-2.630003e-01
-3.072770e-01
-3.542388e-01
-4.037547e-01
-4.556924e-01
-5.099190e-01
-5.663026e-01
-6.247131e-01
-6.850251e-01
-7.471200e-01
-8.108907e-01
-8.762472e-01
-9.431260e-01
-1.011502e+00
-1.081407e+00
-1.152953e+00
-1.226366e+00
-1.302005e+00
-1.380349e+00
-1.461782e+00
-1.545915e+00
-1.629660e+00
-1.705663e+00
0.000000e+00
-6.761472e-03
-1.901686e-02
-3.614265e-02
-5.758157e-02
-8.291419e-02
-1.118498e-01
-1.441814e-01
-1.797461e-01
-2.184003e-01
-2.600087e-01
-3.044389e-01
-3.515593e-01
-4.012383e-01
-4.533440e-01
-5.077452e-01
-5.643114e-01
-6.229147e-01
-6.834315e-01
-7.457452e-01
-8.097502e-01
-8.753571e-01
-9.425003e-01
-1.011147e+00
-1.081310e+00
-1.153057e+00
-1.226514e+00
-1.301839e+00
-1.379120e+00
-1.458097e+00
-1.537565e+00
-1.614686e+00
-1.685174e+00
0.000000e+00
-6.211758e-03
-1.785604e-02
-3.444534e-02
-5.550153e-02
-8.061585e-02
-1.094655e-01
-1.418012e-01
-1.774246e-01
-2.161686e-01
-2.578841e-01
-3.024317e-01
-3.496765e-01
-3.994865e-01
-4.517306e-01
-5.062788e-01
-5.630027e-01
-6.217760e-01
-6.824766e-01
-7.449885e-01
-8.092053e-01
-8.750340e-01
-9.424002e-01
-1.011253e+00
-1.081569e+00
-1.153349e+00
-1.226600e+00
-1.301279e+00
-1.377172e+00
-1.453659e+00
-1.529420e+00
-1.602268e+00
-1.669527e+00
0.000000e+00
-5.909682e-03
-1.721193e-02
-3.348886e-02
-5.430880e-02
-7.927709e-02
-1.080606e-01
-1.403892e-01
-1.760442e-01
-2.148438e-01
-2.566296e-01
-3.012571e-01
-3.485899e-01
-3.984957e-01
-4.508445e-01
-5.055078e-01
-5.623585e-01
-6.212717e-01
-6.821254e-01
-7.448027e-01
-8.091933e-01
-8.751960e-01
-9.427209e-01
-1.011690e+00
-1.082035e+00
-1.153683e+00
-1.226527e+00
-1.300371e+00
-1.374820e+00
-1.449141e+00
-1.522140e+00
-1.592176e+00
-1.657421e+00
0.000000e+00
-5.812355e-03
-1.700412e-02
-3.317886e-02
-5.392008e-02
-7.883893e-02
-1.076003e-01
-1.399284e-01
-1.755985e-01
-2.144241e-01
-2.562441e-01
-3.009131e-01
-3.482949e-01
-3.982581e-01
-4.506739e-01
-5.054151e-01
-5.623557e-01
-6.213711e-01
-6.823385e-01
-7.451378e-01
-8.096521e-01
-8.757683e-01
-9.433770e-01
-1.012369e+00
-1.082627e+00
-1.154012e+00
-1.226330e+00
-1.299283e+00
-1.372400e+00
-1.444960e+00
-1.515954e+00
-1.584127e+00
-1.648142e+00
0.000000e+00
-5.906867e-03
-1.720802e-02
-3.348550e-02
-5.430779e-02
-7.928066e-02
-1.080717e-01
-1.404117e-01
-1.760834e-01
-2.149064e-01
-2.567243e-01
-3.013950e-01
-3.487845e-01
-3.987634e-01
-4.512044e-01
-5.059815e-01
-5.629693e-01
-6.220426e-01
-6.830768e-01
-7.459468e-01
-8.105276e-01
-8.766921e-01
-9.443091e-01
-1.013238e+00
-1.083319e+00
-1.154359e+00
-1.226102e+00
-1.298198e+00
-1.370164e+00
-1.441342e+00
-1.510900e+00
-1.577869e+00
-1.641227e+00
0.000000e+00
-6.206356e-03
-1.784855e-02
-3.443885e-02
-5.549949e-02
-8.062256e-02
-1.094866e-01
-1.418442e-01
-1.774994e-01
-2.162883e-01
-2.580655e-01
-3.026958e-01
-3.500495e-01
-3.999998e-01
-4.524210e-01
-5.071881e-01
-5.641756e-01
-6.232574e-01
-6.843059e-01
-7.471908e-01
-8.117778e-01
-8.779258e-01
-9.454828e-01
-1.014280e+00
-1.084122e+00
-1.154775e+00
-1.225947e+00
-1.297268e+00
-1.368273e+00
-1.438387e+00
-1.506937e+00
-1.573176e+00
-1.636319e+00
0.000000e+00
-6.753963e-03
-1.900644e-02
-3.613359e-02
-5.757864e-02
-8.292337e-02
-1.118790e-01
-1.442412e-01
-1.798503e-01
-2.185672e-01
-2.602618e-01
-3.048078e-01
-3.520806e-01
-4.019561e-01
-4.543102e-01
-5.090182e-01
-5.659546e-01
-6.249917e-01
-6.859989e-01
-7.488405e-01
-8.133735e-01
-8.794439e-01
-9.468818e-01
-1.015495e+00
-1.085062e+00
-1.155320e+00
-1.225957e+00
-1.296602e+00
-1.366821e+00
-1.436124e+00
-1.503978e+00
-1.569828e+00
-1.633100e+00
0.000000e+00
-7.637138e-03
-2.084061e-02
-3.874315e-02
-6.068305e-02
-8.626973e-02
-1.152925e-01
-1.476196e-01
-1.831387e-01
-2.217390e-01
-2.633062e-01
-3.077230e-01
-3.548693e-01
-4.046231e-01
-4.568615e-01
-5.114600e-01
-5.682923e-01
-6.272295e-01
-6.881379e-01
-7.508772e-01
-8.152972e-01
-8.812333e-01
-9.485017e-01
-1.016893e+00
-1.086166e+00
-1.156041e+00
-1.226196e+00
-1.296265e+00
-1.365851e+00
-1.434536e+00
-1.501913e+00
-1.567605e+00
-1.631259e+00
0.000000e+00
-9.026958e-03
-2.363856e-02
-4.253741e-02
-6.498961e-02
-9.074650e-02
-1.197609e-01
-1.519874e-01
-1.873613e-01
-2.257964e-01
-2.671912e-01
-3.114346e-01
-3.584095e-01
-4.079954e-01
-4.600697e-01
-5.145077e-01
-5.711825e-01
-6.299636e-01
-6.907152e-01
-7.532934e-01
-8.175424e-01
-8.832905e-01
-9.503442e-01
-1.018483e+00
-1.087454e+00
-1.156966e+00
-1.226695e+00
-1.296284e+00
-1.365361e+00
-1.433573e+00
-1.500615e+00
-1.566278e+00
-1.630456e+00
0.000000e+00
-1.127645e-02
-2.791907e-02
-4.788249e-02
-7.062724e-02
-9.639292e-02
-1.252851e-01
-1.573343e-01
-1.925065e-01
-2.307301e-01
-2.719102e-01
-3.159386e-01
-3.626996e-01
-4.120731e-01
-4.639361e-01
-5.181637e-01
-5.746281e-01
-6.331977e-01
-6.937350e-01
-7.560934e-01
-8.201141e-01
-8.856209e-01
-9.524151e-01
-1.020271e+00
-1.088928e+00
-1.158095e+00
-1.227446e+00
-1.296633e+00
-1.365306e+00
-1.433151e+00
-1.499941e+00
-1.565610e+00
-1.630316e+00
0.000000e+00
-1.535705e-02
-3.463683e-02
-5.487657e-02
-7.758210e-02
-1.031600e-01
-1.318269e-01
-1.636348e-01
-1.985595e-01
-2.365326e-01
-2.774607e-01
-3.212364e-01
-3.677438e-01
-4.168626e-01
-4.684697e-01
-5.224393e-01
-5.786428e-01
-6.369475e-01
-6.972146e-01
-7.592959e-01
-8.230307e-01
-8.882409e-01
-9.547260e-01
-1.022259e+00
-1.090580e+00
-1.159399e+00
-1.228396e+00
-1.297232e+00
-1.365574e+00
-1.433131e+00
-1.499722e+00
-1.565369e+00
-1.630435e+00
0.000000e+00
-2.471863e-02
-4.313811e-02
-6.324311e-02
-8.563753e-02
-1.109417e-01
-1.393340e-01
-1.708670e-01
-2.055138e-01
-2.432055e-01
-2.838489e-01
-3.273367e-01
-3.735532e-01
-4.223780e-01
-4.736875e-01
-5.273551e-01
-5.832514e-01
-6.412422e-01
-7.011872e-01
-7.629369e-01
-8.263289e-01
-8.911841e-01
-9.573020e-01