TITLE = "Solution"
VARIABLES = x, y, u, v, psiu, psiv, t, stress
ZONE T="structure" N=561 E=512 F=FEBLOCK ET=QUADRILATERAL VARLOCATION=([7,8]=cellcentered)
0.000000e+00
6.250000e+00
1.250000e+01
1.875000e+01
2.500000e+01
3.125000e+01
3.750000e+01
4.375000e+01
5.000000e+01
5.625000e+01
6.250000e+01
6.875000e+01
7.500000e+01
8.125000e+01
8.750000e+01
9.375000e+01
1.000000e+02
1.062500e+02
1.125000e+02
1.187500e+02
1.250000e+02
1.312500e+02
1.375000e+02
1.437500e+02
1.500000e+02
1.562500e+02
1.625000e+02
1.687500e+02
1.750000e+02
1.812500e+02
1.875000e+02
1.937500e+02
2.000000e+02
0.000000e+00
6.250000e+00
1.250000e+01
1.875000e+01
2.500000e+01
3.125000e+01
3.750000e+01
4.375000e+01
5.000000e+01
5.625000e+01
6.250000e+01
6.875000e+01
7.500000e+01
8.125000e+01
8.750000e+01
9.375000e+01
1.000000e+02
1.062500e+02
1.125000e+02
1.187500e+02
1.250000e+02
1.312500e+02
1.375000e+02
1.437500e+02
1.500000e+02
1.562500e+02
1.625000e+02
1.687500e+02
1.750000e+02
1.812500e+02
1.875000e+02
1.937500e+02
2.000000e+02
0.000000e+00
6.250000e+00
1.250000e+01
1.875000e+01
2.500000e+01
3.125000e+01
3.750000e+01
4.375000e+01
5.000000e+01
5.625000e+01
6.250000e+01
6.875000e+01
7.500000e+01
8.125000e+01
8.750000e+01
9.375000e+01
1.000000e+02
1.062500e+02
1.125000e+02
1.187500e+02
1.250000e+02
1.312500e+02
1.375000e+02
1.437500e+02
1.500000e+02
1.562500e+02
1.625000e+02
1.687500e+02
1.750000e+02
1.812500e+02
1.875000e+02
1.937500e+02
2.000000e+02
0.000000e+00
6.250000e+00
1.250000e+01
1.875000e+01
2.500000e+01
3.125000e+01
3.750000e+01
4.375000e+01
5.000000e+01
5.625000e+01
6.250000e+01
6.875000e+01
7.500000e+01
8.125000e+01
8.750000e+01
9.375000e+01
1.000000e+02
1.062500e+02
1.125000e+02
1.187500e+02
1.250000e+02
1.312500e+02
1.375000e+02
1.437500e+02
1.500000e+02
1.562500e+02
1.625000e+02
1.687500e+02
1.750000e+02
1.812500e+02
1.875000e+02
1.937500e+02
2.000000e+02
0.000000e+00
6.250000e+00
1.250000e+01
1.875000e+01
2.500000e+01
3.125000e+01
3.750000e+01
4.375000e+01
5.000000e+01
5.625000e+01
6.250000e+01
6.875000e+01
7.500000e+01
8.125000e+01
8.750000e+01
9.375000e+01
1.000000e+02
1.062500e+02
1.125000e+02
1.187500e+02
1.250000e+02
1.312500e+02
1.375000e+02
1.437500e+02
1.500000e+02
1.562500e+02
1.625000e+02
1.687500e+02
1.750000e+02
1.812500e+02
1.875000e+02
1.937500e+02
2.000000e+02
0.000000e+00
6.250000e+00
1.250000e+01
1.875000e+01
2.500000e+01
3.125000e+01
3.750000e+01
4.375000e+01
5.000000e+01
5.625000e+01
6.250000e+01
6.875000e+01
7.500000e+01
8.125000e+01
8.750000e+01
9.375000e+01
1.000000e+02
1.062500e+02
1.125000e+02
1.187500e+02
1.250000e+02
1.312500e+02
1.375000e+02
1.437500e+02
1.500000e+02
1.562500e+02
1.625000e+02
1.687500e+02
1.750000e+02
1.812500e+02
1.875000e+02
1.937500e+02
2.000000e+02
0.000000e+00
6.250000e+00
1.250000e+01
1.875000e+01
2.500000e+01
3.125000e+01
3.750000e+01
4.375000e+01
5.000000e+01
5.625000e+01
6.250000e+01
6.875000e+01
7.500000e+01
8.125000e+01
8.750000e+01
9.375000e+01
1.000000e+02
1.062500e+02
1.125000e+02
1.187500e+02
1.250000e+02
1.312500e+02
1.375000e+02
1.437500e+02
1.500000e+02
1.562500e+02
1.625000e+02
1.687500e+02
1.750000e+02
1.812500e+02
1.875000e+02
1.937500e+02
2.000000e+02
0.000000e+00
6.250000e+00
1.250000e+01
1.875000e+01
2.500000e+01
3.125000e+01
3.750000e+01
4.375000e+01
5.000000e+01
5.625000e+01
6.250000e+01
6.875000e+01
7.500000e+01
8.125000e+01
8.750000e+01
9.375000e+01
1.000000e+02
1.062500e+02
1.125000e+02
1.187500e+02
1.250000e+02
1.312500e+02
1.375000e+02
1.437500e+02
1.500000e+02
1.562500e+02
1.625000e+02
1.687500e+02
1.750000e+02
1.812500e+02
1.875000e+02
1.937500e+02
2.000000e+02
0.000000e+00
6.250000e+00
1.250000e+01
1.875000e+01
2.500000e+01
3.125000e+01
3.750000e+01
4.375000e+01
5.000000e+01
5.625000e+01
6.250000e+01
6.875000e+01
7.500000e+01
8.125000e+01
8.750000e+01
9.375000e+01
1.000000e+02
1.062500e+02
1.125000e+02
1.187500e+02
1.250000e+02
1.312500e+02
1.375000e+02
1.437500e+02
1.500000e+02
1.562500e+02
1.625000e+02
1.687500e+02
1.750000e+02
1.812500e+02
1.875000e+02
1.937500e+02
2.000000e+02
0.000000e+00
6.250000e+00
1.250000e+01
1.875000e+01
2.500000e+01
3.125000e+01
3.750000e+01
4.375000e+01
5.000000e+01
5.625000e+01
6.250000e+01
6.875000e+01
7.500000e+01
8.125000e+01
8.750000e+01
9.375000e+01
1.000000e+02
1.062500e+02
1.125000e+02
1.187500e+02
1.250000e+02
1.312500e+02
1.375000e+02
1.437500e+02
1.500000e+02
1.562500e+02
1.625000e+02
1.687500e+02
1.750000e+02
1.812500e+02
1.875000e+02
1.937500e+02
2.000000e+02
0.000000e+00
6.250000e+00
1.250000e+01
1.875000e+01
2.500000e+01
3.125000e+01
3.750000e+01
4.375000e+01
5.000000e+01
5.625000e+01
6.250000e+01
6.875000e+01
7.500000e+01
8.125000e+01
8.750000e+01
9.375000e+01
1.000000e+02
1.062500e+02
1.125000e+02
1.187500e+02
1.250000e+02
1.312500e+02
1.375000e+02
1.437500e+02
1.500000e+02
1.562500e+02
1.625000e+02
1.687500e+02
1.750000e+02
1.812500e+02
1.875000e+02
1.937500e+02
2.000000e+02
0.000000e+00
6.250000e+00
1.250000e+01
1.875000e+01
2.500000e+01
3.125000e+01
3.750000e+01
4.375000e+01
5.000000e+01
5.625000e+01
6.250000e+01
6.875000e+01
7.500000e+01
8.125000e+01
8.750000e+01
9.375000e+01
1.000000e+02
1.062500e+02
1.125000e+02
1.187500e+02
1.250000e+02
1.312500e+02
1.375000e+02
1.437500e+02
1.500000e+02
1.562500e+02
1.625000e+02
1.687500e+02
1.750000e+02
1.812500e+02
1.875000e+02
1.937500e+02
2.000000e+02
0.000000e+00
6.250000e+00
1.250000e+01
1.875000e+01
2.500000e+01
3.125000e+01
3.750000e+01
4.375000e+01
5.000000e+01
5.625000e+01
6.250000e+01
6.875000e+01
7.500000e+01
8.125000e+01
8.750000e+01
9.375000e+01
1.000000e+02
1.062500e+02
1.125000e+02
1.187500e+02
1.250000e+02
1.312500e+02
1.375000e+02
1.437500e+02
1.500000e+02
1.562500e+02
1.625000e+02
1.687500e+02
1.750000e+02
1.812500e+02
1.875000e+02
1.937500e+02
2.000000e+02
0.000000e+00
6.250000e+00
1.250000e+01
1.875000e+01
2.500000e+01
3.125000e+01
3.750000e+01
4.375000e+01
5.000000e+01
5.625000e+01
6.250000e+01
6.875000e+01
7.500000e+01
8.125000e+01
8.750000e+01
9.375000e+01
1.000000e+02
1.062500e+02
1.125000e+02
1.187500e+02
1.250000e+02
1.312500e+02
1.375000e+02
1.437500e+02
1.500000e+02
1.562500e+02
1.625000e+02
1.687500e+02
1.750000e+02
1.812500e+02
1.875000e+02
1.937500e+02
2.000000e+02
0.000000e+00
6.250000e+00
1.250000e+01
1.875000e+01
2.500000e+01
3.125000e+01
3.750000e+01
4.375000e+01
5.000000e+01
5.625000e+01
6.250000e+01
6.875000e+01
7.500000e+01
8.125000e+01
8.750000e+01
9.375000e+01
1.000000e+02
1.062500e+02
1.125000e+02
1.187500e+02
1.250000e+02
1.312500e+02
1.375000e+02
1.437500e+02
1.500000e+02
1.562500e+02
1.625000e+02
1.687500e+02
1.750000e+02
1.812500e+02
1.875000e+02
1.937500e+02
2.000000e+02
0.000000e+00
6.250000e+00
1.250000e+01
1.875000e+01
2.500000e+01
3.125000e+01
3.750000e+01
4.375000e+01
5.000000e+01
5.625000e+01
6.250000e+01
6.875000e+01
7.500000e+01
8.125000e+01
8.750000e+01
9.375000e+01
1.000000e+02
1.062500e+02
1.125000e+02
1.187500e+02
1.250000e+02
1.312500e+02
1.375000e+02
1.437500e+02
1.500000e+02
1.562500e+02
1.625000e+02
1.687500e+02
1.750000e+02
1.812500e+02
1.875000e+02
1.937500e+02
2.000000e+02
0.000000e+00
6.250000e+00
1.250000e+01
1.875000e+01
2.500000e+01
3.125000e+01
3.750000e+01
4.375000e+01
5.000000e+01
5.625000e+01
6.250000e+01
6.875000e+01
7.500000e+01
8.125000e+01
8.750000e+01
9.375000e+01
1.000000e+02
1.062500e+02
1.125000e+02
1.187500e+02
1.250000e+02
1.312500e+02
1.375000e+02
1.437500e+02
1.500000e+02
1.562500e+02
1.625000e+02
1.687500e+02
1.750000e+02
1.812500e+02
1.875000e+02
1.937500e+02
2.000000e+02
0.000000e+00
0.000000e+00
0.000000e+00
0.000000e+00
0.000000e+00
0.000000e+00
0.000000e+00
0.000000e+00
0.000000e+00
0.000000e+00
0.000000e+00
0.000000e+00
0.000000e+00
0.000000e+00
0.000000e+00
0.000000e+00
0.000000e+00
0.000000e+00
0.000000e+00
0.000000e+00
0.000000e+00
0.000000e+00
0.000000e+00
0.000000e+00
0.000000e+00
0.000000e+00
0.000000e+00
0.000000e+00
0.000000e+00
0.000000e+00
0.000000e+00
0.000000e+00
0.000000e+00
6.250000e+00
6.250000e+00
6.250000e+00
6.250000e+00
6.250000e+00
6.250000e+00
6.250000e+00
6.250000e+00
6.250000e+00
6.250000e+00
6.250000e+00
6.250000e+00
6.250000e+00
6.250000e+00
6.250000e+00
6.250000e+00
6.250000e+00
6.250000e+00
6.250000e+00
6.250000e+00
6.250000e+00
6.250000e+00
6.250000e+00
6.250000e+00
6.250000e+00
6.250000e+00
6.250000e+00
6.250000e+00
6.250000e+00
6.250000e+00
6.250000e+00
6.250000e+00
6.250000e+00
1.250000e+01
1.250000e+01
1.250000e+01
1.250000e+01
1.250000e+01
1.250000e+01
1.250000e+01
1.250000e+01
1.250000e+01
1.250000e+01
1.250000e+01
1.250000e+01
1.250000e+01
1.250000e+01
1.250000e+01
1.250000e+01
1.250000e+01
1.250000e+01
1.250000e+01
1.250000e+01
1.250000e+01
1.250000e+01
1.250000e+01
1.250000e+01
1.250000e+01
1.250000e+01
1.250000e+01
1.250000e+01
1.250000e+01
1.250000e+01
1.250000e+01
1.250000e+01
1.250000e+01
1.875000e+01
1.875000e+01
1.875000e+01
1.875000e+01
1.875000e+01
1.875000e+01
1.875000e+01
1.875000e+01
1.875000e+01
1.875000e+01
1.875000e+01
1.875000e+01
1.875000e+01
1.875000e+01
1.875000e+01
1.875000e+01
1.875000e+01
1.875000e+01
1.875000e+01
1.875000e+01
1.875000e+01
1.875000e+01
1.875000e+01
1.875000e+01
1.875000e+01
1.875000e+01
1.875000e+01
1.875000e+01
1.875000e+01
1.875000e+01
1.875000e+01
1.875000e+01
1.875000e+01
2.500000e+01
2.500000e+01
2.500000e+01
2.500000e+01
2.500000e+01
2.500000e+01
2.500000e+01
2.500000e+01
2.500000e+01
2.500000e+01
2.500000e+01
2.500000e+01
2.500000e+01
2.500000e+01
2.500000e+01
2.500000e+01
2.500000e+01
2.500000e+01
2.500000e+01
2.500000e+01
2.500000e+01
2.500000e+01
2.500000e+01
2.500000e+01
2.500000e+01
2.500000e+01
2.500000e+01
2.500000e+01
2.500000e+01
2.500000e+01
2.500000e+01
2.500000e+01
2.500000e+01
3.125000e+01
3.125000e+01
3.125000e+01
3.125000e+01
3.125000e+01
3.125000e+01
3.125000e+01
3.125000e+01
3.125000e+01
3.125000e+01
3.125000e+01
3.125000e+01
3.125000e+01
3.125000e+01
3.125000e+01
3.125000e+01
3.125000e+01
3.125000e+01
3.125000e+01
3.125000e+01
3.125000e+01
3.125000e+01
3.125000e+01
3.125000e+01
3.125000e+01
3.125000e+01
3.125000e+01
3.125000e+01
3.125000e+01
3.125000e+01
3.125000e+01
3.125000e+01
3.125000e+01
3.750000e+01
3.750000e+01
3.750000e+01
3.750000e+01
3.750000e+01
3.750000e+01
3.750000e+01
3.750000e+01
3.750000e+01
3.750000e+01
3.750000e+01
3.750000e+01
3.750000e+01
3.750000e+01
3.750000e+01
3.750000e+01
3.750000e+01
3.750000e+01
3.750000e+01
3.750000e+01
3.750000e+01
3.750000e+01
3.750000e+01
3.750000e+01
3.750000e+01
3.750000e+01
3.750000e+01
3.750000e+01
3.750000e+01
3.750000e+01
3.750000e+01
3.750000e+01
3.750000e+01
4.375000e+01
4.375000e+01
4.375000e+01
4.375000e+01
4.375000e+01
4.375000e+01
4.375000e+01
4.375000e+01
4.375000e+01
4.375000e+01
4.375000e+01
4.375000e+01
4.375000e+01
4.375000e+01
4.375000e+01
4.375000e+01
4.375000e+01
4.375000e+01
4.375000e+01
4.375000e+01
4.375000e+01
4.375000e+01
4.375000e+01
4.375000e+01
4.375000e+01
4.375000e+01
4.375000e+01
4.375000e+01
4.375000e+01
4.375000e+01
4.375000e+01
4.375000e+01
4.375000e+01
5.000000e+01
5.000000e+01
5.000000e+01
5.000000e+01
5.000000e+01
5.000000e+01
5.000000e+01
5.000000e+01
5.000000e+01
5.000000e+01
5.000000e+01
5.000000e+01
5.000000e+01
5.000000e+01
5.000000e+01
5.000000e+01
5.000000e+01
5.000000e+01
5.000000e+01
5.000000e+01
5.000000e+01
5.000000e+01
5.000000e+01
5.000000e+01
5.000000e+01
5.000000e+01
5.000000e+01
5.000000e+01
5.000000e+01
5.000000e+01
5.000000e+01
5.000000e+01
5.000000e+01
5.625000e+01
5.625000e+01
5.625000e+01
5.625000e+01
5.625000e+01
5.625000e+01
5.625000e+01
5.625000e+01
5.625000e+01
5.625000e+01
5.625000e+01
5.625000e+01
5.625000e+01
5.625000e+01
5.625000e+01
5.625000e+01
5.625000e+01
5.625000e+01
5.625000e+01
5.625000e+01
5.625000e+01
5.625000e+01
5.625000e+01
5.625000e+01
5.625000e+01
5.625000e+01
5.625000e+01
5.625000e+01
5.625000e+01
5.625000e+01
5.625000e+01
5.625000e+01
5.625000e+01
6.250000e+01
6.250000e+01
6.250000e+01
6.250000e+01
6.250000e+01
6.250000e+01
6.250000e+01
6.250000e+01
6.250000e+01
6.250000e+01
6.250000e+01
6.250000e+01
6.250000e+01
6.250000e+01
6.250000e+01
6.250000e+01
6.250000e+01
6.250000e+01
6.250000e+01
6.250000e+01
6.250000e+01
6.250000e+01
6.250000e+01
6.250000e+01
6.250000e+01
6.250000e+01
6.250000e+01
6.250000e+01
6.250000e+01
6.250000e+01
6.250000e+01
6.250000e+01
6.250000e+01
6.875000e+01
6.875000e+01
6.875000e+01
6.875000e+01
6.875000e+01
6.875000e+01
6.875000e+01
6.875000e+01
6.875000e+01
6.875000e+01
6.875000e+01
6.875000e+01
6.875000e+01
6.875000e+01
6.875000e+01
6.875000e+01
6.875000e+01
6.875000e+01
6.875000e+01
6.875000e+01
6.875000e+01
6.875000e+01
6.875000e+01
6.875000e+01
6.875000e+01
6.875000e+01
6.875000e+01
6.875000e+01
6.875000e+01
6.875000e+01
6.875000e+01
6.875000e+01
6.875000e+01
7.500000e+01
7.500000e+01
7.500000e+01
7.500000e+01
7.500000e+01
7.500000e+01
7.500000e+01
7.500000e+01
7.500000e+01
7.500000e+01
7.500000e+01
7.500000e+01
7.500000e+01
7.500000e+01
7.500000e+01
7.500000e+01
7.500000e+01
7.500000e+01
7.500000e+01
7.500000e+01
7.500000e+01
7.500000e+01
7.500000e+01
7.500000e+01
7.500000e+01
7.500000e+01
7.500000e+01
7.500000e+01
7.500000e+01
7.500000e+01
7.500000e+01
7.500000e+01
7.500000e+01
8.125000e+01
8.125000e+01
8.125000e+01
8.125000e+01
8.125000e+01
8.125000e+01
8.125000e+01
8.125000e+01
8.125000e+01
8.125000e+01
8.125000e+01
8.125000e+01
8.125000e+01
8.125000e+01
8.125000e+01
8.125000e+01
8.125000e+01
8.125000e+01
8.125000e+01
8.125000e+01
8.125000e+01
8.125000e+01
8.125000e+01
8.125000e+01
8.125000e+01
8.125000e+01
8.125000e+01
8.125000e+01
8.125000e+01
8.125000e+01
8.125000e+01
8.125000e+01
8.125000e+01
8.750000e+01
8.750000e+01
8.750000e+01
8.750000e+01
8.750000e+01
8.750000e+01
8.750000e+01
8.750000e+01
8.750000e+01
8.750000e+01
8.750000e+01
8.750000e+01
8.750000e+01
8.750000e+01
8.750000e+01
8.750000e+01
8.750000e+01
8.750000e+01
8.750000e+01
8.750000e+01
8.750000e+01
8.750000e+01
8.750000e+01
8.750000e+01
8.750000e+01
8.750000e+01
8.750000e+01
8.750000e+01
8.750000e+01
8.750000e+01
8.750000e+01
8.750000e+01
8.750000e+01
9.375000e+01
9.375000e+01
9.375000e+01
9.375000e+01
9.375000e+01
9.375000e+01
9.375000e+01
9.375000e+01
9.375000e+01
9.375000e+01
9.375000e+01
9.375000e+01
9.375000e+01
9.375000e+01
9.375000e+01
9.375000e+01
9.375000e+01
9.375000e+01
9.375000e+01
9.375000e+01
9.375000e+01
9.375000e+01
9.375000e+01
9.375000e+01
9.375000e+01
9.375000e+01
9.375000e+01
9.375000e+01
9.375000e+01
9.375000e+01
9.375000e+01
9.375000e+01
9.375000e+01
1.000000e+02
1.000000e+02
1.000000e+02
1.000000e+02
1.000000e+02
1.000000e+02
1.000000e+02
1.000000e+02
1.000000e+02
1.000000e+02
1.000000e+02
1.000000e+02
1.000000e+02
1.000000e+02
1.000000e+02
1.000000e+02
1.000000e+02
1.000000e+02
1.000000e+02
1.000000e+02
1.000000e+02
1.000000e+02
1.000000e+02
1.000000e+02
1.000000e+02
1.000000e+02
1.000000e+02
1.000000e+02
1.000000e+02
1.000000e+02
1.000000e+02
1.000000e+02
1.000000e+02
0.000000e+00
-4.346545e-01
-7.652107e-01
-1.090543e+00
-1.403007e+00
-1.701648e+00
-2.008021e+00
-2.306616e+00
-2.605224e+00
-2.907210e+00
-3.205197e+00
-3.504960e+00
-3.805359e+00
-4.103640e+00
-4.403435e+00
-4.702946e+00
-5.001537e+00
-5.301517e+00
-5.601253e+00
-5.900685e+00
-6.201866e+00
-6.503443e+00
-6.804961e+00
-7.109185e+00
-7.414958e+00
-7.721713e+00
-8.036560e+00
-8.357867e+00
-8.683628e+00
-9.051286e+00
-9.517859e+00
-9.938755e+00
-1.014549e+01
0.000000e+00
-2.329670e-01
-4.827315e-01
-7.442341e-01
-1.009784e+00
-1.265929e+00
-1.533090e+00
-1.794949e+00
-2.056595e+00
-2.321680e+00
-2.582990e+00
-2.845760e+00
-3.109225e+00
-3.370706e+00
-3.633462e+00
-3.895918e+00
-4.157345e+00
-4.419745e+00
-4.681590e+00
-4.942606e+00
-5.204502e+00
-5.465977e+00
-5.726368e+00
-5.987946e+00
-6.249197e+00
-6.508549e+00
-6.770732e+00
-7.031435e+00
-7.286165e+00
-7.549244e+00
-7.793577e+00
-7.891500e+00
-7.997056e+00
0.000000e+00
-1.262171e-01
-2.743713e-01
-4.664772e-01
-6.764175e-01
-8.856744e-01
-1.109879e+00
-1.331914e+00
-1.555091e+00
-1.781692e+00
-2.005887e+00
-2.231671e+00
-2.458358e+00
-2.683863e+00
-2.910500e+00
-3.137030e+00
-3.362802e+00
-3.589122e+00
-3.814753e+00
-4.039302e+00
-4.263758e+00
-4.487038e+00
-4.708401e+00
-4.928912e+00
-5.146902e+00
-5.359830e+00
-5.567810e+00
-5.765276e+00
-5.944075e+00
-6.094920e+00
-6.175326e+00
-6.179793e+00
-6.271831e+00
0.000000e+00
-8.135688e-02
-1.684765e-01
-2.974422e-01
-4.412889e-01
-6.004830e-01
-7.768238e-01
-9.551522e-01
-1.138429e+00
-1.325877e+00
-1.512901e+00
-1.702274e+00
-1.892826e+00
-2.083117e+00
-2.274672e+00
-2.466323e+00
-2.657567e+00
-2.849044e+00
-3.039736e+00
-3.229224e+00
-3.417734e+00
-3.604308e+00
-3.787923e+00
-3.967946e+00
-4.142101e+00
-4.306733e+00
-4.458171e+00
-4.590233e+00
-4.693063e+00
-4.755312e+00
-4.766582e+00
-4.779396e+00
-4.860011e+00
0.000000e+00
-8.352560e-02
-1.609380e-01
-2.548432e-01
-3.601036e-01
-4.819038e-01
-6.146345e-01
-7.525866e-01
-8.968433e-01
-1.043259e+00
-1.190766e+00
-1.340266e+00
-1.490222e+00
-1.640905e+00
-1.792427e+00
-1.943859e+00
-2.095174e+00
-2.246046e+00
-2.395800e+00
-2.543993e+00
-2.689904e+00
-2.832475e+00
-2.970254e+00
-3.101394e+00
-3.223462e+00
-3.333286e+00
-3.427102e+00
-3.500096e+00
-3.546808e+00
-3.562851e+00
-3.556801e+00
-3.583913e+00
-3.658153e+00
0.000000e+00
-6.990358e-02
-1.377340e-01
-2.079848e-01
-2.879328e-01
-3.754694e-01
-4.706945e-01
-5.718398e-01
-6.759556e-01
-7.825392e-01
-8.906697e-01
-9.997582e-01
-1.110027e+00
-1.221081e+00
-1.332590e+00
-1.444329e+00
-1.555759e+00
-1.666430e+00
-1.775825e+00
-1.883083e+00
-1.987147e+00
-2.086715e+00
-2.180059e+00
-2.265120e+00
-2.339709e+00
-2.401491e+00
-2.448114e+00
-2.476954e+00
-2.484745e+00
-2.472362e+00
-2.464836e+00
-2.493563e+00
-2.562758e+00
0.000000e+00
-4.946132e-02
-9.784042e-02
-1.474015e-01
-2.003848e-01
-2.580860e-01
-3.200306e-01
-3.853412e-01
-4.529906e-01
-5.222039e-01
-5.926258e-01
-6.639774e-01
-7.360418e-01
-8.086202e-01
-8.814057e-01
-9.540478e-01
-1.026154e+00
-1.097237e+00
-1.166684e+00
-1.233649e+00
-1.297022e+00
-1.355432e+00
-1.407238e+00
-1.450580e+00
-1.483500e+00
-1.504097e+00
-1.510427e+00
-1.499962e+00
-1.473627e+00
-1.441669e+00
-1.430075e+00
-1.458862e+00
-1.527792e+00
0.000000e+00
-2.619393e-02
-5.204079e-02
-7.815560e-02
-1.055642e-01
-1.348108e-01
-1.659224e-01
-1.985128e-01
-2.321536e-01
-2.665124e-01
-3.013099e-01
-3.363128e-01
-3.713205e-01
-4.061340e-01
-4.405276e-01
-4.742310e-01
-5.069241e-01
-5.382133e-01
-5.675844e-01
-5.943463e-01
-6.175780e-01
-6.361017e-01
-6.484938e-01
-6.531279e-01
-6.481897e-01
-6.315319e-01
-6.006564e-01
-5.556198e-01
-5.045575e-01
-4.609707e-01
-4.469534e-01
-4.766531e-01
-5.474805e-01
0.000000e+00
-1.912754e-03
-3.825280e-03
-5.691536e-03
-7.467288e-03
-9.105185e-03
-1.054579e-02
-1.171583e-02
-1.253660e-02
-1.292819e-02
-1.279633e-02
-1.201704e-02
-1.043987e-02
-7.900171e-03
-4.222520e-03
7.853285e-04
7.348293e-03
1.574056e-02
2.630630e-02
3.950011e-02
5.594607e-02
7.651350e-02
1.023801e-01
1.350666e-01
1.764450e-01
2.283645e-01
2.910364e-01
3.597494e-01
4.235637e-01
4.687521e-01
4.796072e-01
4.461776e-01
3.755359e-01
0.000000e+00
2.242476e-02
4.451166e-02
6.697312e-02
9.092116e-02
1.169855e-01
1.452918e-01
1.755809e-01
2.075692e-01
2.410800e-01
2.760289e-01
3.124393e-01
3.504160e-01
3.900950e-01
4.316126e-01
4.751022e-01
5.207100e-01
5.686040e-01
6.189759e-01
6.720534e-01
7.281513e-01
7.878046e-01
8.519299e-01
9.218040e-01
9.984464e-01
1.081310e+00
1.166991e+00
1.248205e+00
1.314408e+00
1.353805e+00
1.356095e+00
1.320302e+00
1.259284e+00
0.000000e+00
4.588007e-02
9.071160e-02
1.368610e-01
1.866759e-01
2.415294e-01
3.010213e-01
3.643362e-01
4.305128e-01
4.988985e-01
5.693583e-01
6.419049e-01
7.166215e-01
7.936176e-01
8.729455e-01
9.546849e-01
1.038952e+00
1.125867e+00
1.215578e+00
1.308232e+00
1.403993e+00
1.503118e+00
1.605759e+00
1.711539e+00
1.819015e+00
1.925166e+00
2.025066e+00
2.111224e+00
2.174333e+00
2.206197e+00
2.204149e+00
2.174150e+00
2.128999e+00
0.000000e+00
6.667155e-02
1.312999e-01
1.985633e-01
2.758283e-01
3.611515e-01
4.547383e-01
5.548446e-01
6.584775e-01
7.651520e-01
8.741588e-01
9.852352e-01
1.098872e+00
1.214918e+00
1.333325e+00
1.454217e+00
1.577536e+00
1.703387e+00
1.831911e+00
1.963123e+00
2.096982e+00
2.233128e+00
2.370238e+00
2.505845e+00
2.636820e+00
2.759267e+00
2.867900e+00
2.956167e+00
3.017791e+00
3.049691e+00
3.053335e+00
3.034854e+00
3.005890e+00
0.000000e+00
8.071956e-02
1.555432e-01
2.468897e-01
3.501344e-01
4.704553e-01
6.024078e-01
7.404685e-01
8.855997e-01
1.033618e+00
1.183703e+00
1.337027e+00
1.492360e+00
1.650227e+00
1.810897e+00
1.973652e+00
2.138696e+00
2.305787e+00
2.474250e+00
2.643629e+00
2.813100e+00
2.981369e+00
3.146366e+00
3.305315e+00
3.455130e+00
3.591835e+00
3.710295e+00
3.805301e+00
3.873316e+00
3.913274e+00
3.926870e+00
3.920021e+00
3.904665e+00
0.000000e+00
7.919291e-02
1.642871e-01
2.912615e-01
4.335731e-01
5.917657e-01
7.675026e-01
9.458285e-01
1.129867e+00
1.318844e+00
1.508479e+00
1.701856e+00
1.898067e+00
2.096095e+00
2.297674e+00
2.501727e+00
2.707787e+00
2.915999e+00
3.124562e+00
3.332075e+00
3.537286e+00
3.737764e+00
3.931171e+00
4.115715e+00
4.288777e+00
4.445606e+00
4.580105e+00
4.687527e+00
4.765677e+00
4.814804e+00
4.837693e+00
4.840588e+00
4.835424e+00
0.000000e+00
1.250419e-01
2.719364e-01
4.627118e-01
6.716797e-01
8.803238e-01
1.104029e+00
1.325735e+00
1.548858e+00
1.775696e+00
2.000588e+00
2.227712e+00
2.456522e+00
2.685176e+00
2.916186e+00
3.148406e+00
3.381193e+00
3.615528e+00
3.849641e+00
4.082360e+00
4.313204e+00
4.539629e+00
4.759505e+00
4.972151e+00
5.173755e+00
5.354895e+00
5.506336e+00
5.624255e+00
5.709162e+00
5.763818e+00
5.792576e+00
5.801979e+00
5.803019e+00
0.000000e+00
2.330500e-01
4.827405e-01
7.439791e-01
1.009345e+00
1.265438e+00
1.532353e+00
1.793855e+00
2.055120e+00
2.319716e+00
2.580423e+00
2.842437e+00
3.104946e+00
3.365210e+00
3.626437e+00
3.887006e+00
4.146001e+00
4.405261e+00
4.663297e+00
4.919647e+00
5.175313e+00
5.428379e+00
5.676848e+00
5.919364e+00
6.148060e+00
6.348283e+00
6.509728e+00
6.630697e+00
6.714195e+00
6.765619e+00
6.792050e+00
6.801696e+00
6.804039e+00
0.000000e+00
4.357402e-01
7.674138e-01
1.093819e+00
1.407222e+00
1.706719e+00
2.013550e+00
2.312291e+00
2.610873e+00
2.912491e+00
3.209671e+00
3.508013e+00
3.806132e+00
4.101034e+00
4.396050e+00
4.689193e+00
4.979558e+00
5.269381e+00
5.557571e+00
5.844429e+00
6.131964e+00
6.418588e+00
6.701711e+00
6.976973e+00
7.230733e+00
7.444621e+00
7.608740e+00
7.722884e+00
7.791598e+00
7.823055e+00
7.829170e+00
7.824743e+00
7.822160e+00
0.000000e+00
-2.638397e-01
-5.465920e-01
-9.053049e-01
-1.308253e+00
-1.752736e+00
-2.237944e+00
-2.756974e+00
-3.313325e+00
-3.905600e+00
-4.533273e+00
-5.198415e+00
-5.899856e+00
-6.638081e+00
-7.413920e+00
-8.226676e+00
-9.077031e+00
-9.965427e+00
-1.089157e+01
-1.185632e+01
-1.286034e+01
-1.390363e+01
-1.498741e+01
-1.611298e+01
-1.728087e+01
-1.849408e+01
-1.975684e+01
-2.107297e+01
-2.245294e+01
-2.391438e+01
-2.547362e+01
-2.728715e+01
-2.984004e+01
0.000000e+00
-1.656693e-01
-4.637500e-01
-8.187803e-01
-1.224902e+00
-1.668722e+00
-2.153500e+00
-2.673571e+00
-3.229107e+00
-3.821543e+00
-4.449500e+00
-5.114162e+00
-5.815876e+00
-6.554136e+00
-7.329771e+00
-8.142773e+00
-8.993059e+00
-9.881349e+00
-1.080771e+01
-1.177234e+01
-1.277619e+01
-1.381967e+01
-1.490323e+01
-1.602842e+01
-1.719647e+01
-1.840888e+01
-1.967041e+01
-2.098681e+01
-2.236472e+01
-2.381948e+01
-2.539819e+01
-2.719767e+01
-2.946258e+01
0.000000e+00
-1.380599e-01
-4.068400e-01
-7.574571e-01
-1.159296e+00
-1.599871e+00
-2.083645e+00
-2.602929e+00
-3.157714e+00
-3.750074e+00
-4.377683e+00
-5.042004e+00
-5.743713e+00
-6.481793e+00
-7.257378e+00
-8.070499e+00
-8.920774e+00
-9.809221e+00
-1.073589e+01
-1.170073e+01
-1.270493e+01
-1.374895e+01
-1.483286e+01
-1.595857e+01
-1.712758e+01
-1.834085e+01
-1.960397e+01
-2.092343e+01
-2.230619e+01
-2.378150e+01
-2.539781e+01
-2.709404e+01
-2.885733e+01
0.000000e+00
-1.589795e-01
-3.975691e-01
-7.335029e-01
-1.120526e+00
-1.553116e+00
-2.033327e+00
-2.548759e+00
-3.101959e+00
-3.693289e+00
-4.319511e+00
-4.983290e+00
-5.684476e+00
-6.422077e+00
-7.197638e+00
-8.010730e+00
-8.861123e+00
-9.749977e+00
-1.067719e+01
-1.164278e+01
-1.264796e+01
-1.369317e+01
-1.477853e+01
-1.590599e+01
-1.707725e+01
-1.829378e+01
-1.956110e+01
-2.088596e+01
-2.227814e+01
-2.377117e+01
-2.537895e+01
-2.694143e+01
-2.835931e+01
0.000000e+00
-1.896972e-01
-4.259099e-01
-7.443269e-01
-1.114023e+00
-1.535748e+00
-2.006788e+00
-2.516011e+00
-3.065828e+00
-3.654138e+00
-4.278384e+00
-4.940936e+00
-5.640911e+00
-6.377975e+00
-7.153281e+00
-7.966262e+00
-8.817058e+00
-9.706494e+00
-1.063460e+01
-1.160166e+01
-1.260851e+01
-1.365571e+01
-1.474372e+01
-1.587399e+01
-1.704830e+01
-1.826888e+01
-1.954057e+01
-2.086941e+01
-2.226371e+01
-2.374496e+01
-2.528815e+01
-2.673716e+01
-2.800354e+01
0.000000e+00
-2.003023e-01
-4.475796e-01
-7.538047e-01
-1.115739e+00
-1.528744e+00
-1.990528e+00
-2.495467e+00
-3.041278e+00
-3.626649e+00
-4.249895e+00
-4.911159e+00
-5.610355e+00
-6.347287e+00
-7.122352e+00
-7.935548e+00
-8.787013e+00
-9.677279e+00
-1.060671e+01
-1.157571e+01
-1.258490e+01
-1.363485e+01
-1.472622e+01
-1.585998e+01
-1.703751e+01
-1.826099e+01
-1.953452e+01
-2.086231e+01
-2.224327e+01
-2.368631e+01
-2.513994e+01
-2.650991e+01
-2.769948e+01
0.000000e+00
-2.047219e-01
-4.567236e-01
-7.606822e-01
-1.117541e+00
-1.525566e+00
-1.981816e+00
-2.482957e+00
-3.026146e+00
-3.609551e+00
-4.232003e+00
-4.892816e+00
-5.591726e+00
-6.328757e+00
-7.104023e+00
-7.917663e+00
-8.769960e+00
-9.661345e+00
-1.059234e+01
-1.156346e+01
-1.257525e+01
-1.362825e+01
-1.472297e+01
-1.586001e+01
-1.704003e+01
-1.826422e+01
-1.953552e+01
-2.085397e+01
-2.220877e+01
-2.360166e+01
-2.498036e+01
-2.627996e+01
-2.741205e+01
0.000000e+00
-2.065440e-01
-4.604475e-01
-7.642579e-01
-1.119183e+00
-1.524575e+00
-1.978273e+00
-2.477322e+00
-3.019094e+00
-3.601754e+00
-4.224023e+00
-4.885012e+00
-5.584289e+00
-6.321818e+00
-7.097695e+00
-7.912103e+00
-8.765390e+00
-9.658033e+00
-1.059061e+01
-1.156372e+01
-1.257790e+01
-1.363357e+01
-1.473102e+01
-1.587039e+01
-1.705144e+01
-1.827367e+01
-1.953730e+01
-2.083776e+01
-2.216087e+01
-2.350342e+01
-2.481996e+01
-2.605069e+01
-2.712157e+01
0.000000e+00
-2.070138e-01
-4.615277e-01
-7.655302e-01
-1.120186e+00
-1.525136e+00
-1.978464e+00
-2.477380e+00
-3.019304e+00
-3.602388e+00
-4.225313e+00
-4.887122e+00
-5.587336e+00
-6.325866e+00
-7.102778e+00
-7.918269e+00
-8.772715e+00
-9.666614e+00
-1.060057e+01
-1.157525e+01
-1.259116e+01
-1.364862e+01
-1.474765e+01
-1.588778e+01
-1.706746e+01
-1.828394e+01
-1.953446e+01
-2.081243e+01
-2.210424e+01
-2.339851e+01
-2.465831e+01
-2.582095e+01
-2.682752e+01
0.000000e+00
-2.065188e-01
-4.606251e-01
-7.648866e-01
-1.120534e+00
-1.526939e+00
-1.981978e+00
-2.482708e+00
-3.026414e+00
-3.611128e+00
-4.235533e+00
-4.898783e+00
-5.600454e+00
-6.340451e+00
-7.118798e+00
-7.935654e+00
-8.791372e+00
-9.686428e+00
-1.062142e+01
-1.159697e+01
-1.261357e+01
-1.367146e+01
-1.477032e+01
-1.590872e+01
-1.708359e+01
-1.829070e+01
-1.952581e+01
-2.078133e+01
-2.204346e+01
-2.329413e+01
-2.449933e+01
-2.560528e+01
-2.656796e+01
0.000000e+00
-2.046814e-01
-4.571065e-01
-7.619796e-01
-1.120288e+00
-1.530327e+00
-1.989217e+00
-2.493642e+00
-3.040585e+00
-3.627969e+00
-4.254573e+00
-4.919803e+00
-5.623387e+00
-6.365235e+00
-7.145330e+00
-7.963738e+00
-8.820744e+00
-9.716764e+00
-1.065229e+01
-1.162784e+01
-1.264376e+01
-1.370018e+01
-1.479634e+01
-1.592994e+01
-1.709729e+01
-1.829380e+01
-1.951404e+01
-2.074916e+01
-2.198399e+01
-2.319656e+01
-2.435643e+01
-2.542567e+01
-2.637103e+01
0.000000e+00
-2.002717e-01
-4.482255e-01
-7.558600e-01
-1.119990e+00
-1.536029e+00
-2.001711e+00
-2.511398e+00
-3.062573e+00
-3.653604e+00
-4.282793e+00
-4.950408e+00
-5.656298e+00
-6.400111e+00
-7.182066e+00
-8.001998e+00
-8.860031e+00
-9.756610e+00
-1.069194e+01
-1.166630e+01
-1.267995e+01
-1.373282e+01
-1.482380e+01
-1.595053e+01
-1.710970e+01
-1.829661e+01
-1.950433e+01
-2.072200e+01
-2.193262e+01
-2.311425e+01
-2.424277e+01
-2.529288e+01
-2.623968e+01
0.000000e+00
-1.897261e-01
-4.268941e-01
-7.472309e-01
-1.119929e+00
-1.545705e+00
-2.021868e+00
-2.537136e+00
-3.093687e+00
-3.689153e+00
-4.320967e+00
-4.991590e+00
-5.700015e+00
-6.445704e+00
-7.229537e+00
-8.050688e+00
-8.909183e+00
-9.805578e+00
-1.073958e+01
-1.171131e+01
-1.272117e+01
-1.376886e+01
-1.485323e+01
-1.597270e+01
-1.712498e+01
-1.830503e+01
-1.950361e+01
-2.070674e+01
-2.189652e+01
-2.305418e+01
-2.416212e+01
-2.520394e+01
-2.616399e+01
0.000000e+00
-1.590679e-01
-3.988323e-01
-7.372053e-01
-1.127889e+00
-1.565413e+00
-2.051688e+00
-2.574071e+00
-3.135065e+00
-3.734822e+00
-4.370041e+00
-5.043436e+00
-5.754605e+00
-6.502285e+00
-7.287697e+00
-8.109926e+00
-8.968399e+00
-9.863813e+00
-1.079556e+01
-1.176355e+01
-1.276863e+01
-1.381050e+01
-1.488827e+01
-1.600185e+01
-1.715002e+01
-1.832620e+01
-1.951724e+01
-2.070680e+01
-2.187850e+01
-2.301746e+01
-2.411124e+01
-2.515070e+01
-2.613056e+01
0.000000e+00
-1.379107e-01
-4.080038e-01
-7.612304e-01
-1.167045e+00
-1.612865e+00
-2.103013e+00
-2.629573e+00
-3.192522e+00
-3.793887e+00
-4.431185e+00
-5.105907e+00
-5.818495e+00
-6.567525e+00
-7.353821e+00
-8.176762e+00
-9.035300e+00
-9.929869e+00
-1.085977e+01
-1.182469e+01
-1.282566e+01
-1.386271e+01
-1.493565e+01
-1.604572e+01
-1.719148e+01
-1.836315e+01
-1.954485e+01
-2.072088e+01
-2.187722e+01
-2.300157e+01
-2.408486e+01
-2.512388e+01
-2.612420e+01
0.000000e+00
-1.654608e-01
-4.648389e-01
-8.225123e-01
-1.232708e+00
-1.681848e+00
-2.173037e+00
-2.700454e+00
-3.264245e+00
-3.865827e+00
-4.503675e+00
-5.178956e+00
-5.891791e+00
-6.641254e+00
-7.427820e+00
-8.250771e+00
-9.109216e+00
-1.000321e+01
-1.093197e+01
-1.189527e+01
-1.289399e+01
-1.392838e+01
-1.499900e+01
-1.610697e+01
-1.724862e+01
-1.841202e+01
-1.958200e+01
-2.074490e+01
-2.188832e+01
-2.300122e+01
-2.407633e+01
-2.511416e+01
-2.612867e+01
0.000000e+00
-2.638821e-01
-5.478477e-01
-9.091952e-01
-1.316217e+00
-1.765989e+00
-2.257528e+00
-2.783871e+00
-3.348446e+00
-3.949811e+00
-4.587310e+00
-5.262965e+00
-5.975376e+00
-6.724603e+00
-7.511107e+00
-8.333473e+00
-9.191536e+00
-1.008513e+01
-1.101319e+01
-1.197598e+01
-1.297412e+01
-1.400744e+01