TITLE = "Solution"
VARIABLES = x, y, u, v, psiu, psiv, t, stress
ZONE T="structure" N=561 E=512 F=FEBLOCK ET=QUADRILATERAL VARLOCATION=([7,8]=cellcentered)
0.000000e+00
6.250000e+00
1.250000e+01
1.875000e+01
2.500000e+01
3.125000e+01
3.750000e+01
4.375000e+01
5.000000e+01
5.625000e+01
6.250000e+01
6.875000e+01
7.500000e+01
8.125000e+01
8.750000e+01
9.375000e+01
1.000000e+02
1.062500e+02
1.125000e+02
1.187500e+02
1.250000e+02
1.312500e+02
1.375000e+02
1.437500e+02
1.500000e+02
1.562500e+02
1.625000e+02
1.687500e+02
1.750000e+02
1.812500e+02
1.875000e+02
1.937500e+02
2.000000e+02
0.000000e+00
6.250000e+00
1.250000e+01
1.875000e+01
2.500000e+01
3.125000e+01
3.750000e+01
4.375000e+01
5.000000e+01
5.625000e+01
6.250000e+01
6.875000e+01
7.500000e+01
8.125000e+01
8.750000e+01
9.375000e+01
1.000000e+02
1.062500e+02
1.125000e+02
1.187500e+02
1.250000e+02
1.312500e+02
1.375000e+02
1.437500e+02
1.500000e+02
1.562500e+02
1.625000e+02
1.687500e+02
1.750000e+02
1.812500e+02
1.875000e+02
1.937500e+02
2.000000e+02
0.000000e+00
6.250000e+00
1.250000e+01
1.875000e+01
2.500000e+01
3.125000e+01
3.750000e+01
4.375000e+01
5.000000e+01
5.625000e+01
6.250000e+01
6.875000e+01
7.500000e+01
8.125000e+01
8.750000e+01
9.375000e+01
1.000000e+02
1.062500e+02
1.125000e+02
1.187500e+02
1.250000e+02
1.312500e+02
1.375000e+02
1.437500e+02
1.500000e+02
1.562500e+02
1.625000e+02
1.687500e+02
1.750000e+02
1.812500e+02
1.875000e+02
1.937500e+02
2.000000e+02
0.000000e+00
6.250000e+00
1.250000e+01
1.875000e+01
2.500000e+01
3.125000e+01
3.750000e+01
4.375000e+01
5.000000e+01
5.625000e+01
6.250000e+01
6.875000e+01
7.500000e+01
8.125000e+01
8.750000e+01
9.375000e+01
1.000000e+02
1.062500e+02
1.125000e+02
1.187500e+02
1.250000e+02
1.312500e+02
1.375000e+02
1.437500e+02
1.500000e+02
1.562500e+02
1.625000e+02
1.687500e+02
1.750000e+02
1.812500e+02
1.875000e+02
1.937500e+02
2.000000e+02
0.000000e+00
6.250000e+00
1.250000e+01
1.875000e+01
2.500000e+01
3.125000e+01
3.750000e+01
4.375000e+01
5.000000e+01
5.625000e+01
6.250000e+01
6.875000e+01
7.500000e+01
8.125000e+01
8.750000e+01
9.375000e+01
1.000000e+02
1.062500e+02
1.125000e+02
1.187500e+02
1.250000e+02
1.312500e+02
1.375000e+02
1.437500e+02
1.500000e+02
1.562500e+02
1.625000e+02
1.687500e+02
1.750000e+02
1.812500e+02
1.875000e+02
1.937500e+02
2.000000e+02
0.000000e+00
6.250000e+00
1.250000e+01
1.875000e+01
2.500000e+01
3.125000e+01
3.750000e+01
4.375000e+01
5.000000e+01
5.625000e+01
6.250000e+01
6.875000e+01
7.500000e+01
8.125000e+01
8.750000e+01
9.375000e+01
1.000000e+02
1.062500e+02
1.125000e+02
1.187500e+02
1.250000e+02
1.312500e+02
1.375000e+02
1.437500e+02
1.500000e+02
1.562500e+02
1.625000e+02
1.687500e+02
1.750000e+02
1.812500e+02
1.875000e+02
1.937500e+02
2.000000e+02
0.000000e+00
6.250000e+00
1.250000e+01
1.875000e+01
2.500000e+01
3.125000e+01
3.750000e+01
4.375000e+01
5.000000e+01
5.625000e+01
6.250000e+01
6.875000e+01
7.500000e+01
8.125000e+01
8.750000e+01
9.375000e+01
1.000000e+02
1.062500e+02
1.125000e+02
1.187500e+02
1.250000e+02
1.312500e+02
1.375000e+02
1.437500e+02
1.500000e+02
1.562500e+02
1.625000e+02
1.687500e+02
1.750000e+02
1.812500e+02
1.875000e+02
1.937500e+02
2.000000e+02
0.000000e+00
6.250000e+00
1.250000e+01
1.875000e+01
2.500000e+01
3.125000e+01
3.750000e+01
4.375000e+01
5.000000e+01
5.625000e+01
6.250000e+01
6.875000e+01
7.500000e+01
8.125000e+01
8.750000e+01
9.375000e+01
1.000000e+02
1.062500e+02
1.125000e+02
1.187500e+02
1.250000e+02
1.312500e+02
1.375000e+02
1.437500e+02
1.500000e+02
1.562500e+02
1.625000e+02
1.687500e+02
1.750000e+02
1.812500e+02
1.875000e+02
1.937500e+02
2.000000e+02
0.000000e+00
6.250000e+00
1.250000e+01
1.875000e+01
2.500000e+01
3.125000e+01
3.750000e+01
4.375000e+01
5.000000e+01
5.625000e+01
6.250000e+01
6.875000e+01
7.500000e+01
8.125000e+01
8.750000e+01
9.375000e+01
1.000000e+02
1.062500e+02
1.125000e+02
1.187500e+02
1.250000e+02
1.312500e+02
1.375000e+02
1.437500e+02
1.500000e+02
1.562500e+02
1.625000e+02
1.687500e+02
1.750000e+02
1.812500e+02
1.875000e+02
1.937500e+02
2.000000e+02
0.000000e+00
6.250000e+00
1.250000e+01
1.875000e+01
2.500000e+01
3.125000e+01
3.750000e+01
4.375000e+01
5.000000e+01
5.625000e+01
6.250000e+01
6.875000e+01
7.500000e+01
8.125000e+01
8.750000e+01
9.375000e+01
1.000000e+02
1.062500e+02
1.125000e+02
1.187500e+02
1.250000e+02
1.312500e+02
1.375000e+02
1.437500e+02
1.500000e+02
1.562500e+02
1.625000e+02
1.687500e+02
1.750000e+02
1.812500e+02
1.875000e+02
1.937500e+02
2.000000e+02
0.000000e+00
6.250000e+00
1.250000e+01
1.875000e+01
2.500000e+01
3.125000e+01
3.750000e+01
4.375000e+01
5.000000e+01
5.625000e+01
6.250000e+01
6.875000e+01
7.500000e+01
8.125000e+01
8.750000e+01
9.375000e+01
1.000000e+02
1.062500e+02
1.125000e+02
1.187500e+02
1.250000e+02
1.312500e+02
1.375000e+02
1.437500e+02
1.500000e+02
1.562500e+02
1.625000e+02
1.687500e+02
1.750000e+02
1.812500e+02
1.875000e+02
1.937500e+02
2.000000e+02
0.000000e+00
6.250000e+00
1.250000e+01
1.875000e+01
2.500000e+01
3.125000e+01
3.750000e+01
4.375000e+01
5.000000e+01
5.625000e+01
6.250000e+01
6.875000e+01
7.500000e+01
8.125000e+01
8.750000e+01
9.375000e+01
1.000000e+02
1.062500e+02
1.125000e+02
1.187500e+02
1.250000e+02
1.312500e+02
1.375000e+02
1.437500e+02
1.500000e+02
1.562500e+02
1.625000e+02
1.687500e+02
1.750000e+02
1.812500e+02
1.875000e+02
1.937500e+02
2.000000e+02
0.000000e+00
6.250000e+00
1.250000e+01
1.875000e+01
2.500000e+01
3.125000e+01
3.750000e+01
4.375000e+01
5.000000e+01
5.625000e+01
6.250000e+01
6.875000e+01
7.500000e+01
8.125000e+01
8.750000e+01
9.375000e+01
1.000000e+02
1.062500e+02
1.125000e+02
1.187500e+02
1.250000e+02
1.312500e+02
1.375000e+02
1.437500e+02
1.500000e+02
1.562500e+02
1.625000e+02
1.687500e+02
1.750000e+02
1.812500e+02
1.875000e+02
1.937500e+02
2.000000e+02
0.000000e+00
6.250000e+00
1.250000e+01
1.875000e+01
2.500000e+01
3.125000e+01
3.750000e+01
4.375000e+01
5.000000e+01
5.625000e+01
6.250000e+01
6.875000e+01
7.500000e+01
8.125000e+01
8.750000e+01
9.375000e+01
1.000000e+02
1.062500e+02
1.125000e+02
1.187500e+02
1.250000e+02
1.312500e+02
1.375000e+02
1.437500e+02
1.500000e+02
1.562500e+02
1.625000e+02
1.687500e+02
1.750000e+02
1.812500e+02
1.875000e+02
1.937500e+02
2.000000e+02
0.000000e+00
6.250000e+00
1.250000e+01
1.875000e+01
2.500000e+01
3.125000e+01
3.750000e+01
4.375000e+01
5.000000e+01
5.625000e+01
6.250000e+01
6.875000e+01
7.500000e+01
8.125000e+01
8.750000e+01
9.375000e+01
1.000000e+02
1.062500e+02
1.125000e+02
1.187500e+02
1.250000e+02
1.312500e+02
1.375000e+02
1.437500e+02
1.500000e+02
1.562500e+02
1.625000e+02
1.687500e+02
1.750000e+02
1.812500e+02
1.875000e+02
1.937500e+02
2.000000e+02
0.000000e+00
6.250000e+00
1.250000e+01
1.875000e+01
2.500000e+01
3.125000e+01
3.750000e+01
4.375000e+01
5.000000e+01
5.625000e+01
6.250000e+01
6.875000e+01
7.500000e+01
8.125000e+01
8.750000e+01
9.375000e+01
1.000000e+02
1.062500e+02
1.125000e+02
1.187500e+02
1.250000e+02
1.312500e+02
1.375000e+02
1.437500e+02
1.500000e+02
1.562500e+02
1.625000e+02
1.687500e+02
1.750000e+02
1.812500e+02
1.875000e+02
1.937500e+02
2.000000e+02
0.000000e+00
6.250000e+00
1.250000e+01
1.875000e+01
2.500000e+01
3.125000e+01
3.750000e+01
4.375000e+01
5.000000e+01
5.625000e+01
6.250000e+01
6.875000e+01
7.500000e+01
8.125000e+01
8.750000e+01
9.375000e+01
1.000000e+02
1.062500e+02
1.125000e+02
1.187500e+02
1.250000e+02
1.312500e+02
1.375000e+02
1.437500e+02
1.500000e+02
1.562500e+02
1.625000e+02
1.687500e+02
1.750000e+02
1.812500e+02
1.875000e+02
1.937500e+02
2.000000e+02
0.000000e+00
0.000000e+00
0.000000e+00
0.000000e+00
0.000000e+00
0.000000e+00
0.000000e+00
0.000000e+00
0.000000e+00
0.000000e+00
0.000000e+00
0.000000e+00
0.000000e+00
0.000000e+00
0.000000e+00
0.000000e+00
0.000000e+00
0.000000e+00
0.000000e+00
0.000000e+00
0.000000e+00
0.000000e+00
0.000000e+00
0.000000e+00
0.000000e+00
0.000000e+00
0.000000e+00
0.000000e+00
0.000000e+00
0.000000e+00
0.000000e+00
0.000000e+00
0.000000e+00
6.250000e+00
6.250000e+00
6.250000e+00
6.250000e+00
6.250000e+00
6.250000e+00
6.250000e+00
6.250000e+00
6.250000e+00
6.250000e+00
6.250000e+00
6.250000e+00
6.250000e+00
6.250000e+00
6.250000e+00
6.250000e+00
6.250000e+00
6.250000e+00
6.250000e+00
6.250000e+00
6.250000e+00
6.250000e+00
6.250000e+00
6.250000e+00
6.250000e+00
6.250000e+00
6.250000e+00
6.250000e+00
6.250000e+00
6.250000e+00
6.250000e+00
6.250000e+00
6.250000e+00
1.250000e+01
1.250000e+01
1.250000e+01
1.250000e+01
1.250000e+01
1.250000e+01
1.250000e+01
1.250000e+01
1.250000e+01
1.250000e+01
1.250000e+01
1.250000e+01
1.250000e+01
1.250000e+01
1.250000e+01
1.250000e+01
1.250000e+01
1.250000e+01
1.250000e+01
1.250000e+01
1.250000e+01
1.250000e+01
1.250000e+01
1.250000e+01
1.250000e+01
1.250000e+01
1.250000e+01
1.250000e+01
1.250000e+01
1.250000e+01
1.250000e+01
1.250000e+01
1.250000e+01
1.875000e+01
1.875000e+01
1.875000e+01
1.875000e+01
1.875000e+01
1.875000e+01
1.875000e+01
1.875000e+01
1.875000e+01
1.875000e+01
1.875000e+01
1.875000e+01
1.875000e+01
1.875000e+01
1.875000e+01
1.875000e+01
1.875000e+01
1.875000e+01
1.875000e+01
1.875000e+01
1.875000e+01
1.875000e+01
1.875000e+01
1.875000e+01
1.875000e+01
1.875000e+01
1.875000e+01
1.875000e+01
1.875000e+01
1.875000e+01
1.875000e+01
1.875000e+01
1.875000e+01
2.500000e+01
2.500000e+01
2.500000e+01
2.500000e+01
2.500000e+01
2.500000e+01
2.500000e+01
2.500000e+01
2.500000e+01
2.500000e+01
2.500000e+01
2.500000e+01
2.500000e+01
2.500000e+01
2.500000e+01
2.500000e+01
2.500000e+01
2.500000e+01
2.500000e+01
2.500000e+01
2.500000e+01
2.500000e+01
2.500000e+01
2.500000e+01
2.500000e+01
2.500000e+01
2.500000e+01
2.500000e+01
2.500000e+01
2.500000e+01
2.500000e+01
2.500000e+01
2.500000e+01
3.125000e+01
3.125000e+01
3.125000e+01
3.125000e+01
3.125000e+01
3.125000e+01
3.125000e+01
3.125000e+01
3.125000e+01
3.125000e+01
3.125000e+01
3.125000e+01
3.125000e+01
3.125000e+01
3.125000e+01
3.125000e+01
3.125000e+01
3.125000e+01
3.125000e+01
3.125000e+01
3.125000e+01
3.125000e+01
3.125000e+01
3.125000e+01
3.125000e+01
3.125000e+01
3.125000e+01
3.125000e+01
3.125000e+01
3.125000e+01
3.125000e+01
3.125000e+01
3.125000e+01
3.750000e+01
3.750000e+01
3.750000e+01
3.750000e+01
3.750000e+01
3.750000e+01
3.750000e+01
3.750000e+01
3.750000e+01
3.750000e+01
3.750000e+01
3.750000e+01
3.750000e+01
3.750000e+01
3.750000e+01
3.750000e+01
3.750000e+01
3.750000e+01
3.750000e+01
3.750000e+01
3.750000e+01
3.750000e+01
3.750000e+01
3.750000e+01
3.750000e+01
3.750000e+01
3.750000e+01
3.750000e+01
3.750000e+01
3.750000e+01
3.750000e+01
3.750000e+01
3.750000e+01
4.375000e+01
4.375000e+01
4.375000e+01
4.375000e+01
4.375000e+01
4.375000e+01
4.375000e+01
4.375000e+01
4.375000e+01
4.375000e+01
4.375000e+01
4.375000e+01
4.375000e+01
4.375000e+01
4.375000e+01
4.375000e+01
4.375000e+01
4.375000e+01
4.375000e+01
4.375000e+01
4.375000e+01
4.375000e+01
4.375000e+01
4.375000e+01
4.375000e+01
4.375000e+01
4.375000e+01
4.375000e+01
4.375000e+01
4.375000e+01
4.375000e+01
4.375000e+01
4.375000e+01
5.000000e+01
5.000000e+01
5.000000e+01
5.000000e+01
5.000000e+01
5.000000e+01
5.000000e+01
5.000000e+01
5.000000e+01
5.000000e+01
5.000000e+01
5.000000e+01
5.000000e+01
5.000000e+01
5.000000e+01
5.000000e+01
5.000000e+01
5.000000e+01
5.000000e+01
5.000000e+01
5.000000e+01
5.000000e+01
5.000000e+01
5.000000e+01
5.000000e+01
5.000000e+01
5.000000e+01
5.000000e+01
5.000000e+01
5.000000e+01
5.000000e+01
5.000000e+01
5.000000e+01
5.625000e+01
5.625000e+01
5.625000e+01
5.625000e+01
5.625000e+01
5.625000e+01
5.625000e+01
5.625000e+01
5.625000e+01
5.625000e+01
5.625000e+01
5.625000e+01
5.625000e+01
5.625000e+01
5.625000e+01
5.625000e+01
5.625000e+01
5.625000e+01
5.625000e+01
5.625000e+01
5.625000e+01
5.625000e+01
5.625000e+01
5.625000e+01
5.625000e+01
5.625000e+01
5.625000e+01
5.625000e+01
5.625000e+01
5.625000e+01
5.625000e+01
5.625000e+01
5.625000e+01
6.250000e+01
6.250000e+01
6.250000e+01
6.250000e+01
6.250000e+01
6.250000e+01
6.250000e+01
6.250000e+01
6.250000e+01
6.250000e+01
6.250000e+01
6.250000e+01
6.250000e+01
6.250000e+01
6.250000e+01
6.250000e+01
6.250000e+01
6.250000e+01
6.250000e+01
6.250000e+01
6.250000e+01
6.250000e+01
6.250000e+01
6.250000e+01
6.250000e+01
6.250000e+01
6.250000e+01
6.250000e+01
6.250000e+01
6.250000e+01
6.250000e+01
6.250000e+01
6.250000e+01
6.875000e+01
6.875000e+01
6.875000e+01
6.875000e+01
6.875000e+01
6.875000e+01
6.875000e+01
6.875000e+01
6.875000e+01
6.875000e+01
6.875000e+01
6.875000e+01
6.875000e+01
6.875000e+01
6.875000e+01
6.875000e+01
6.875000e+01
6.875000e+01
6.875000e+01
6.875000e+01
6.875000e+01
6.875000e+01
6.875000e+01
6.875000e+01
6.875000e+01
6.875000e+01
6.875000e+01
6.875000e+01
6.875000e+01
6.875000e+01
6.875000e+01
6.875000e+01
6.875000e+01
7.500000e+01
7.500000e+01
7.500000e+01
7.500000e+01
7.500000e+01
7.500000e+01
7.500000e+01
7.500000e+01
7.500000e+01
7.500000e+01
7.500000e+01
7.500000e+01
7.500000e+01
7.500000e+01
7.500000e+01
7.500000e+01
7.500000e+01
7.500000e+01
7.500000e+01
7.500000e+01
7.500000e+01
7.500000e+01
7.500000e+01
7.500000e+01
7.500000e+01
7.500000e+01
7.500000e+01
7.500000e+01
7.500000e+01
7.500000e+01
7.500000e+01
7.500000e+01
7.500000e+01
8.125000e+01
8.125000e+01
8.125000e+01
8.125000e+01
8.125000e+01
8.125000e+01
8.125000e+01
8.125000e+01
8.125000e+01
8.125000e+01
8.125000e+01
8.125000e+01
8.125000e+01
8.125000e+01
8.125000e+01
8.125000e+01
8.125000e+01
8.125000e+01
8.125000e+01
8.125000e+01
8.125000e+01
8.125000e+01
8.125000e+01
8.125000e+01
8.125000e+01
8.125000e+01
8.125000e+01
8.125000e+01
8.125000e+01
8.125000e+01
8.125000e+01
8.125000e+01
8.125000e+01
8.750000e+01
8.750000e+01
8.750000e+01
8.750000e+01
8.750000e+01
8.750000e+01
8.750000e+01
8.750000e+01
8.750000e+01
8.750000e+01
8.750000e+01
8.750000e+01
8.750000e+01
8.750000e+01
8.750000e+01
8.750000e+01
8.750000e+01
8.750000e+01
8.750000e+01
8.750000e+01
8.750000e+01
8.750000e+01
8.750000e+01
8.750000e+01
8.750000e+01
8.750000e+01
8.750000e+01
8.750000e+01
8.750000e+01
8.750000e+01
8.750000e+01
8.750000e+01
8.750000e+01
9.375000e+01
9.375000e+01
9.375000e+01
9.375000e+01
9.375000e+01
9.375000e+01
9.375000e+01
9.375000e+01
9.375000e+01
9.375000e+01
9.375000e+01
9.375000e+01
9.375000e+01
9.375000e+01
9.375000e+01
9.375000e+01
9.375000e+01
9.375000e+01
9.375000e+01
9.375000e+01
9.375000e+01
9.375000e+01
9.375000e+01
9.375000e+01
9.375000e+01
9.375000e+01
9.375000e+01
9.375000e+01
9.375000e+01
9.375000e+01
9.375000e+01
9.375000e+01
9.375000e+01
1.000000e+02
1.000000e+02
1.000000e+02
1.000000e+02
1.000000e+02
1.000000e+02
1.000000e+02
1.000000e+02
1.000000e+02
1.000000e+02
1.000000e+02
1.000000e+02
1.000000e+02
1.000000e+02
1.000000e+02
1.000000e+02
1.000000e+02
1.000000e+02
1.000000e+02
1.000000e+02
1.000000e+02
1.000000e+02
1.000000e+02
1.000000e+02
1.000000e+02
1.000000e+02
1.000000e+02
1.000000e+02
1.000000e+02
1.000000e+02
1.000000e+02
1.000000e+02
1.000000e+02
0.000000e+00
-4.349140e-01
-7.655126e-01
-1.090918e+00
-1.403337e+00
-1.701966e+00
-2.008307e+00
-2.306859e+00
-2.605487e+00
-2.907497e+00
-3.205491e+00
-3.505287e+00
-3.805695e+00
-4.103974e+00
-4.403801e+00
-4.703335e+00
-5.001926e+00
-5.301917e+00
-5.601681e+00
-5.901122e+00
-6.202316e+00
-6.503961e+00
-6.805516e+00
-7.109733e+00
-7.415567e+00
-7.722312e+00
-8.037049e+00
-8.358405e+00
-8.684038e+00
-9.051245e+00
-9.517981e+00
-9.939038e+00
-1.014574e+01
0.000000e+00
-2.329422e-01
-4.826759e-01
-7.441784e-01
-1.009733e+00
-1.265894e+00
-1.533070e+00
-1.794911e+00
-2.056579e+00
-2.321681e+00
-2.582982e+00
-2.845769e+00
-3.109235e+00
-3.370706e+00
-3.633485e+00
-3.895959e+00
-4.157385e+00
-4.419796e+00
-4.681667e+00
-4.942690e+00
-5.204584e+00
-5.466101e+00
-5.726505e+00
-5.988058e+00
-6.249353e+00
-6.508700e+00
-6.770833e+00
-7.031636e+00
-7.286380e+00
-7.549358e+00
-7.793945e+00
-7.891986e+00
-7.997546e+00
0.000000e+00
-1.260096e-01
-2.740405e-01
-4.661188e-01
-6.760953e-01
-8.853905e-01
-1.109641e+00
-1.331665e+00
-1.554844e+00
-1.781432e+00
-2.005588e+00
-2.231358e+00
-2.458023e+00
-2.683505e+00
-2.910144e+00
-3.136674e+00
-3.362437e+00
-3.588761e+00
-3.814409e+00
-4.038957e+00
-4.263400e+00
-4.486693e+00
-4.708055e+00
-4.928557e+00
-5.146600e+00
-5.359589e+00
-5.567643e+00
-5.765292e+00
-5.944283e+00
-6.095309e+00
-6.175959e+00
-6.180480e+00
-6.272511e+00
0.000000e+00
-8.131730e-02
-1.683256e-01
-2.972771e-01
-4.410150e-01
-6.001963e-01
-7.765106e-01
-9.547685e-01
-1.137999e+00
-1.325394e+00
-1.512354e+00
-1.701682e+00
-1.892192e+00
-2.082450e+00
-2.273991e+00
-2.465629e+00
-2.656860e+00
-2.848340e+00
-3.039045e+00
-3.228539e+00
-3.417054e+00
-3.603656e+00
-3.787320e+00
-3.967420e+00
-4.141715e+00
-4.306521e+00
-4.458151e+00
-4.590454e+00
-4.693527e+00
-4.756017e+00
-4.767454e+00
-4.780328e+00
-4.860926e+00
0.000000e+00
-8.350399e-02
-1.608912e-01
-2.547220e-01
-3.599595e-01
-4.817470e-01
-6.144741e-01
-7.524073e-01
-8.966592e-01
-1.043056e+00
-1.190522e+00
-1.339975e+00
-1.489883e+00
-1.640534e+00
-1.792035e+00
-1.943448e+00
-2.094755e+00
-2.245629e+00
-2.395391e+00
-2.543601e+00
-2.689537e+00
-2.832152e+00
-2.969999e+00
-3.101233e+00
-3.223423e+00
-3.333385e+00
-3.427367e+00
-3.500569e+00
-3.547526e+00
-3.563788e+00
-3.557848e+00
-3.584966e+00
-3.659137e+00
0.000000e+00
-6.989072e-02
-1.376936e-01
-2.079239e-01
-2.878657e-01
-3.754156e-01
-4.706570e-01
-5.718057e-01
-6.759023e-01
-7.824532e-01
-8.905304e-01
-9.995547e-01
-1.109773e+00
-1.220794e+00
-1.332284e+00
-1.444015e+00
-1.555450e+00
-1.666139e+00
-1.775565e+00
-1.882867e+00
-1.986988e+00
-2.086626e+00
-2.180054e+00
-2.265212e+00
-2.339905e+00
-2.401804e+00
-2.448578e+00
-2.477616e+00
-2.485591e+00
-2.473302e+00
-2.465786e+00
-2.494457e+00
-2.563586e+00
0.000000e+00
-4.946518e-02
-9.784565e-02
-1.474114e-01
-2.004088e-01
-2.581279e-01
-3.200841e-01
-3.853854e-01
-4.530016e-01
-5.221667e-01
-5.925351e-01
-6.638347e-01
-7.358578e-01
-8.084110e-01
-8.811851e-01
-9.538281e-01
-1.025949e+00
-1.097062e+00
-1.166552e+00
-1.233575e+00
-1.297020e+00
-1.355516e+00
-1.407415e+00
-1.450858e+00
-1.483889e+00
-1.504608e+00
-1.511072e+00
-1.500700e+00
-1.474380e+00
-1.442383e+00
-1.430733e+00
-1.459437e+00
-1.528329e+00
0.000000e+00
-2.620091e-02
-5.205842e-02
-7.818934e-02
-1.056187e-01
-1.348857e-01
-1.660105e-01
-1.985994e-01
-2.322239e-01
-2.665600e-01
-3.013353e-01
-3.363179e-01
-3.713094e-01
-4.061141e-01
-4.405066e-01
-4.742163e-01
-5.069248e-01
-5.382401e-01
-5.676500e-01
-5.944658e-01
-6.177667e-01
-6.363705e-01
-6.488501e-01
-6.535811e-01
-6.487506e-01
-6.321978e-01
-6.013805e-01
-5.563052e-01
-5.051446e-01
-4.614293e-01
-4.472769e-01
-4.768825e-01
-5.477141e-01
0.000000e+00
-1.920826e-03
-3.842373e-03
-5.718834e-03
-7.506697e-03
-9.159437e-03
-1.061685e-02
-1.180329e-02
-1.263850e-02
-1.304308e-02
-1.292356e-02
-1.215586e-02
-1.058995e-02
-8.062691e-03
-4.399932e-03
5.905524e-04
7.133672e-03
1.550173e-02
2.603548e-02
3.918659e-02
5.557810e-02
7.608029e-02
1.018731e-01
1.344839e-01
1.758034e-01
2.277116e-01
2.904439e-01
3.592755e-01
4.232238e-01
4.685562e-01
4.795474e-01
4.461541e-01
3.754362e-01
0.000000e+00
2.240880e-02
4.448362e-02
6.693882e-02
9.088334e-02
1.169397e-01
1.452272e-01
1.754836e-01
2.074269e-01
2.408876e-01
2.757867e-01
3.121504e-01
3.500863e-01
3.897310e-01
4.312182e-01
4.746807e-01
5.202662e-01
5.681431e-01
6.185010e-01
6.715626e-01
7.276371e-01
7.872570e-01
8.513450e-01
9.212008e-01
9.978761e-01
1.080834e+00
1.166655e+00
1.248027e+00
1.314376e+00
1.353873e+00
1.356176e+00
1.320311e+00
1.259213e+00
0.000000e+00
4.585145e-02
9.065564e-02
1.367858e-01
1.865918e-01
2.414380e-01
3.009144e-01
3.641920e-01
4.303043e-01
4.986051e-01
5.689716e-01
6.414293e-01
7.160720e-01
7.930111e-01
8.722942e-01
9.539985e-01
1.038242e+00
1.125147e+00
1.214864e+00
1.307535e+00
1.403320e+00
1.502483e+00
1.605183e+00
1.711051e+00
1.818651e+00
1.924946e+00
2.024994e+00
2.111293e+00
2.174497e+00
2.206358e+00
2.204229e+00
2.174155e+00
2.128971e+00
0.000000e+00
6.662758e-02
1.312029e-01
1.984263e-01
2.756643e-01
3.609779e-01
4.545623e-01
5.546559e-01
6.582458e-01
7.648505e-01
8.737618e-01
9.847364e-01
1.098288e+00
1.214268e+00
1.332622e+00
1.453474e+00
1.576764e+00
1.702602e+00
1.831139e+00
1.962387e+00
2.096313e+00
2.232569e+00
2.369824e+00
2.505588e+00
2.636715e+00
2.759303e+00
2.868042e+00
2.956368e+00
3.017991e+00
3.049840e+00
3.053435e+00
3.034930e+00
3.005966e+00
0.000000e+00
8.067484e-02
1.554586e-01
2.467185e-01
3.499234e-01
4.702089e-01
6.021442e-01
7.401851e-01
8.853073e-01
1.033291e+00
1.183318e+00
1.336584e+00
1.491859e+00
1.649686e+00
1.810337e+00
1.973087e+00
2.138142e+00
2.305262e+00
2.473768e+00
2.643208e+00
2.812756e+00
2.981131e+00
3.146251e+00
3.305311e+00
3.455227e+00
3.592024e+00
3.710546e+00
3.805570e+00
3.873575e+00
3.913514e+00
3.927093e+00
3.920237e+00
3.904888e+00
0.000000e+00
7.913828e-02
1.641088e-01
2.910612e-01
4.332557e-01
5.914243e-01
7.671215e-01
9.453703e-01
1.129360e+00
1.318282e+00
1.507858e+00
1.701210e+00
1.897400e+00
2.095422e+00
2.297034e+00
2.501138e+00
2.707276e+00
2.915588e+00
3.124255e+00
3.331871e+00
3.537183e+00
3.737749e+00
3.931227e+00
4.115822e+00
4.288945e+00
4.445863e+00
4.580439e+00
4.687905e+00
4.766074e+00
4.815203e+00
4.838086e+00
4.840979e+00
4.835821e+00
0.000000e+00
1.248275e-01
2.715873e-01
4.623223e-01
6.713241e-01
8.800088e-01
1.103758e+00
1.325450e+00
1.548575e+00
1.775396e+00
2.000251e+00
2.227370e+00
2.456172e+00
2.684820e+00
2.915858e+00
3.148108e+00
3.380936e+00
3.615330e+00
3.849496e+00
4.082266e+00
4.313169e+00
4.539636e+00
4.759538e+00
4.972242e+00
5.173987e+00
5.355302e+00
5.506860e+00
5.624828e+00
5.709749e+00
5.764406e+00
5.793159e+00
5.802560e+00
5.803603e+00
0.000000e+00
2.330329e-01
4.826897e-01
7.439190e-01
1.009289e+00
1.265404e+00
1.532332e+00
1.793813e+00
2.055101e+00
2.319711e+00
2.580400e+00
2.842429e+00
3.104937e+00
3.365192e+00
3.626439e+00
3.887015e+00
4.146012e+00
4.405282e+00
4.663314e+00
4.919662e+00
5.175351e+00
5.428442e+00
5.676956e+00
5.919615e+00
6.148551e+00
6.348974e+00
6.510511e+00
6.631504e+00
6.714998e+00
6.766409e+00
6.792829e+00
6.802469e+00
6.804810e+00
0.000000e+00
4.360146e-01
7.677348e-01
1.094212e+00
1.407576e+00
1.707070e+00
2.013868e+00
2.312563e+00
2.611171e+00
2.912808e+00
3.209979e+00
3.508341e+00
3.806458e+00
4.101341e+00
4.396359e+00
4.689479e+00
4.979804e+00
5.269592e+00
5.557731e+00
5.844552e+00
6.132096e+00
6.418764e+00
6.701992e+00
6.977496e+00
7.231551e+00
7.445619e+00
7.609788e+00
7.723925e+00
7.792610e+00
7.824037e+00
7.830132e+00
7.825696e+00
7.823113e+00
0.000000e+00
-2.639670e-01
-5.470192e-01
-9.061349e-01
-1.309491e+00
-1.754365e+00
-2.239930e+00
-2.759295e+00
-3.315985e+00
-3.908590e+00
-4.536599e+00
-5.202091e+00
-5.903878e+00
-6.642456e+00
-7.418654e+00
-8.231757e+00
-9.082457e+00
-9.971201e+00
-1.089768e+01
-1.186277e+01
-1.286712e+01
-1.391077e+01
-1.499490e+01
-1.612084e+01
-1.728912e+01
-1.850270e+01
-1.976584e+01
-2.108235e+01
-2.246257e+01
-2.392420e+01
-2.548354e+01
-2.729687e+01
-2.984952e+01
0.000000e+00
-1.657625e-01
-4.641754e-01
-8.196037e-01
-1.226143e+00
-1.670348e+00
-2.155494e+00
-2.675894e+00
-3.231760e+00
-3.824532e+00
-4.452825e+00
-5.117835e+00
-5.819900e+00
-6.558510e+00
-7.334499e+00
-8.147853e+00
-8.998485e+00
-9.887118e+00
-1.081382e+01
-1.177879e+01
-1.278297e+01
-1.382679e+01
-1.491072e+01
-1.603627e+01
-1.720471e+01
-1.841751e+01
-1.967940e+01
-2.099617e+01
-2.237440e+01
-2.382930e+01
-2.540806e+01
-2.720742e+01
-2.947201e+01
0.000000e+00
-1.382041e-01
-4.072741e-01
-7.582892e-01
-1.160519e+00
-1.601484e+00
-2.085636e+00
-2.605252e+00
-3.160373e+00
-3.753076e+00
-4.381019e+00
-5.045687e+00
-5.747748e+00
-6.486173e+00
-7.262109e+00
-8.075583e+00
-8.926201e+00
-9.814987e+00
-1.074200e+01
-1.170718e+01
-1.271170e+01
-1.375607e+01
-1.484035e+01
-1.596641e+01
-1.713580e+01
-1.834946e+01
-1.961291e+01
-2.093273e+01
-2.231581e+01
-2.379124e+01
-2.540769e+01
-2.710384e+01
-2.886693e+01
0.000000e+00
-1.592968e-01
-3.980978e-01
-7.344118e-01
-1.121747e+00
-1.554727e+00
-2.035329e+00
-2.551093e+00
-3.104647e+00
-3.696330e+00
-4.322882e+00
-4.987006e+00
-5.688538e+00
-6.426480e+00
-7.202391e+00
-8.015829e+00
-8.866558e+00
-9.755747e+00
-1.068330e+01
-1.164923e+01
-1.265474e+01
-1.370029e+01
-1.478601e+01
-1.591380e+01
-1.708543e+01
-1.830232e+01
-1.956996e+01
-2.089517e+01
-2.228764e+01
-2.378084e+01
-2.538879e+01
-2.695125e+01
-2.836901e+01
0.000000e+00
-1.900193e-01
-4.265136e-01
-7.452282e-01
-1.115255e+00
-1.537356e+00
-2.008801e+00
-2.518375e+00
-3.068565e+00
-3.657248e+00
-4.281835e+00
-4.944726e+00
-5.645036e+00
-6.382441e+00
-7.158092e+00
-7.971407e+00
-8.822530e+00
-9.712294e+00
-1.064073e+01
-1.160812e+01
-1.261530e+01
-1.366284e+01
-1.475118e+01
-1.588178e+01
-1.705643e+01
-1.827734e+01
-1.954936e+01
-2.087854e+01
-2.227314e+01
-2.375456e+01
-2.529778e+01
-2.674699e+01
-2.801355e+01
0.000000e+00
-2.006236e-01
-4.481938e-01
-7.547072e-01
-1.116968e+00
-1.530349e+00
-1.992528e+00
-2.497846e+00
-3.044038e+00
-3.629797e+00
-4.253411e+00
-4.915017e+00
-5.614546e+00
-6.351816e+00
-7.127217e+00
-7.940738e+00
-8.792524e+00
-9.683109e+00
-1.061286e+01
-1.158219e+01
-1.259169e+01
-1.364198e+01
-1.473367e+01
-1.586775e+01
-1.704560e+01
-1.826940e+01
-1.954324e+01
-2.087140e+01
-2.225265e+01
-2.369580e+01
-2.514942e+01
-2.651975e+01
-2.770977e+01
0.000000e+00
-2.050412e-01
-4.573365e-01
-7.615878e-01
-1.118775e+00
-1.527169e+00
-1.983811e+00
-2.485342e+00
-3.028919e+00
-3.612723e+00
-4.235567e+00
-4.896737e+00
-5.595983e+00
-6.333347e+00
-7.108940e+00
-7.922896e+00
-8.775506e+00
-9.667203e+00
-1.059850e+01
-1.156994e+01
-1.258205e+01
-1.363537e+01
-1.473040e+01
-1.586775e+01
-1.704809e+01
-1.827258e+01
-1.954420e+01
-2.086303e+01
-2.221805e+01
-2.361105e+01
-2.498984e+01
-2.628981e+01
-2.742241e+01
0.000000e+00
-2.068548e-01
-4.610520e-01
-7.651626e-01
-1.120421e+00
-1.526180e+00
-1.980270e+00
-2.479714e+00
-3.021880e+00
-3.604946e+00
-4.227623e+00
-4.888987e+00
-5.588606e+00
-6.326467e+00
-7.102665e+00
-7.917382e+00
-8.770975e+00
-9.663922e+00
-1.059680e+01
-1.157021e+01
-1.258471e+01
-1.364070e+01
-1.473844e+01
-1.587811e+01
-1.705948e+01
-1.828203e+01
-1.954597e+01
-2.084675e+01
-2.217002e+01
-2.351273e+01
-2.482950e+01
-2.606056e+01
-2.713182e+01
0.000000e+00
-2.073196e-01
-4.621255e-01
-7.664334e-01
-1.121427e+00
-1.526744e+00
-1.980464e+00
-2.479781e+00
-3.022104e+00
-3.605601e+00
-4.228941e+00
-4.891134e+00
-5.591697e+00
-6.330562e+00
-7.107795e+00
-7.923593e+00
-8.778340e+00
-9.672537e+00
-1.060679e+01
-1.158177e+01
-1.259799e+01
-1.365575e+01
-1.475507e+01
-1.589549e+01
-1.707549e+01
-1.829229e+01
-1.954308e+01
-2.082129e+01
-2.211328e+01
-2.340775e+01
-2.466785e+01
-2.583071e+01
-2.683741e+01
0.000000e+00
-2.068241e-01
-4.612215e-01
-7.657900e-01
-1.121778e+00
-1.528550e+00
-1.983982e+00
-2.485120e+00
-3.029235e+00
-3.614366e+00
-4.239184e+00
-4.902817e+00
-5.604843e+00
-6.345182e+00
-7.123856e+00
-7.941021e+00
-8.797039e+00
-9.692391e+00
-1.062768e+01
-1.160353e+01
-1.262042e+01
-1.367860e+01
-1.477775e+01
-1.591644e+01
-1.709162e+01
-1.829899e+01
-1.953432e+01
-2.079006e+01
-2.205242e+01
-2.330333e+01
-2.450878e+01
-2.561482e+01
-2.657752e+01
0.000000e+00
-2.049879e-01
-4.577039e-01
-7.628828e-01
-1.121532e+00
-1.531941e+00
-1.991229e+00
-2.496068e+00
-3.043430e+00
-3.631231e+00
-4.258237e+00
-4.923842e+00
-5.627788e+00
-6.369988e+00
-7.150420e+00
-7.969146e+00
-8.826458e+00
-9.722778e+00
-1.065861e+01
-1.163444e+01
-1.265064e+01
-1.370735e+01
-1.480379e+01
-1.593765e+01
-1.710526e+01
-1.830199e+01
-1.952243e+01
-2.075777e+01
-2.199288e+01
-2.320570e+01
-2.436573e+01
-2.543503e+01
-2.638045e+01
0.000000e+00
-2.005755e-01
-4.488216e-01
-7.567617e-01
-1.121232e+00
-1.537651e+00
-2.003741e+00
-2.513842e+00
-3.065437e+00
-3.656878e+00
-4.286451e+00
-4.954438e+00
-5.660696e+00
-6.404870e+00
-7.187173e+00
-8.007437e+00
-8.865788e+00
-9.762677e+00
-1.069831e+01
-1.167295e+01
-1.268687e+01
-1.373999e+01
-1.483123e+01
-1.595819e+01
-1.711757e+01
-1.830469e+01
-1.951261e+01
-2.073053e+01
-2.194144e+01
-2.312331e+01
-2.425198e+01
-2.530219e+01
-2.624910e+01
0.000000e+00
-1.900324e-01
-4.274844e-01
-7.481354e-01
-1.121179e+00
-1.547341e+00
-2.023934e+00
-2.539595e+00
-3.096564e+00
-3.692427e+00
-4.324607e+00
-4.995609e+00
-5.704407e+00
-6.450462e+00
-7.234659e+00
-8.056154e+00
-8.914977e+00
-9.811690e+00
-1.074599e+01
-1.171799e+01
-1.272810e+01
-1.377603e+01
-1.486061e+01
-1.598026e+01
-1.713272e+01
-1.831299e+01
-1.951184e+01
-2.071526e+01
-2.190532e+01
-2.306321e+01
-2.417130e+01
-2.521326e+01
-2.617345e+01
0.000000e+00
-1.593762e-01
-3.993544e-01
-7.381217e-01
-1.129134e+00
-1.567072e+00
-2.053770e+00
-2.576526e+00
-3.137919e+00
-3.738067e+00
-4.373655e+00
-5.047440e+00
-5.758996e+00
-6.507050e+00
-7.292841e+00
-8.115427e+00
-8.974236e+00
-9.869968e+00
-1.080200e+01
-1.177024e+01
-1.277555e+01
-1.381763e+01
-1.489557e+01
-1.600930e+01
-1.715766e+01
-1.833413e+01
-1.952549e+01
-2.071535e+01
-2.188730e+01
-2.302648e+01
-2.412041e+01
-2.516002e+01
-2.614005e+01
0.000000e+00
-1.380466e-01
-4.084343e-01
-7.620702e-01
-1.168296e+00
-1.614535e+00
-2.105094e+00
-2.632023e+00
-3.195353e+00
-3.797105e+00
-4.434782e+00
-5.109898e+00
-5.822881e+00
-6.572293e+00
-7.358974e+00
-8.182283e+00
-9.041161e+00
-9.936045e+00
-1.086622e+01
-1.183137e+01
-1.283255e+01
-1.386977e+01
-1.494286e+01
-1.605309e+01
-1.719911e+01
-1.837113e+01
-1.955316e+01
-2.072946e+01
-2.188603e+01
-2.301058e+01
-2.409403e+01
-2.513322e+01
-2.613371e+01
0.000000e+00
-1.655467e-01
-4.652607e-01
-8.233435e-01
-1.233979e+00
-1.683533e+00
-2.175122e+00
-2.702906e+00
-3.267071e+00
-3.869035e+00
-4.507265e+00
-5.182941e+00
-5.896172e+00
-6.646024e+00
-7.432978e+00
-8.256297e+00
-9.115083e+00
-1.000938e+01
-1.093841e+01
-1.190194e+01
-1.290086e+01
-1.393541e+01
-1.500619e+01
-1.611436e+01
-1.725632e+01
-1.842007e+01
-1.959034e+01
-2.075350e+01
-2.189713e+01
-2.301023e+01
-2.408551e+01
-2.512351e+01
-2.613819e+01
0.000000e+00
-2.640049e-01
-5.482709e-01
-9.100330e-01
-1.317486e+00
-1.767678e+00
-2.259606e+00
-2.786322e+00
-3.351278e+00
-3.953017e+00
-4.590900e+00
-5.266951e+00
-5.979753e+00
-6.729371e+00
-7.516264e+00
-8.338993e+00
-9.197397e+00
-1.009130e+01
-1.101962e+01
-1.198264e+01
-1.298098e+01
-1.401448e+01