TITLE = "Solution"
VARIABLES = x, y, u, v, psiu, psiv, t, stress
ZONE T="structure" N=561 E=512 F=FEBLOCK ET=QUADRILATERAL VARLOCATION=([7,8]=cellcentered)
0.000000e+00
6.250000e+00
1.250000e+01
1.875000e+01
2.500000e+01
3.125000e+01
3.750000e+01
4.375000e+01
5.000000e+01
5.625000e+01
6.250000e+01
6.875000e+01
7.500000e+01
8.125000e+01
8.750000e+01
9.375000e+01
1.000000e+02
1.062500e+02
1.125000e+02
1.187500e+02
1.250000e+02
1.312500e+02
1.375000e+02
1.437500e+02
1.500000e+02
1.562500e+02
1.625000e+02
1.687500e+02
1.750000e+02
1.812500e+02
1.875000e+02
1.937500e+02
2.000000e+02
0.000000e+00
6.250000e+00
1.250000e+01
1.875000e+01
2.500000e+01
3.125000e+01
3.750000e+01
4.375000e+01
5.000000e+01
5.625000e+01
6.250000e+01
6.875000e+01
7.500000e+01
8.125000e+01
8.750000e+01
9.375000e+01
1.000000e+02
1.062500e+02
1.125000e+02
1.187500e+02
1.250000e+02
1.312500e+02
1.375000e+02
1.437500e+02
1.500000e+02
1.562500e+02
1.625000e+02
1.687500e+02
1.750000e+02
1.812500e+02
1.875000e+02
1.937500e+02
2.000000e+02
0.000000e+00
6.250000e+00
1.250000e+01
1.875000e+01
2.500000e+01
3.125000e+01
3.750000e+01
4.375000e+01
5.000000e+01
5.625000e+01
6.250000e+01
6.875000e+01
7.500000e+01
8.125000e+01
8.750000e+01
9.375000e+01
1.000000e+02
1.062500e+02
1.125000e+02
1.187500e+02
1.250000e+02
1.312500e+02
1.375000e+02
1.437500e+02
1.500000e+02
1.562500e+02
1.625000e+02
1.687500e+02
1.750000e+02
1.812500e+02
1.875000e+02
1.937500e+02
2.000000e+02
0.000000e+00
6.250000e+00
1.250000e+01
1.875000e+01
2.500000e+01
3.125000e+01
3.750000e+01
4.375000e+01
5.000000e+01
5.625000e+01
6.250000e+01
6.875000e+01
7.500000e+01
8.125000e+01
8.750000e+01
9.375000e+01
1.000000e+02
1.062500e+02
1.125000e+02
1.187500e+02
1.250000e+02
1.312500e+02
1.375000e+02
1.437500e+02
1.500000e+02
1.562500e+02
1.625000e+02
1.687500e+02
1.750000e+02
1.812500e+02
1.875000e+02
1.937500e+02
2.000000e+02
0.000000e+00
6.250000e+00
1.250000e+01
1.875000e+01
2.500000e+01
3.125000e+01
3.750000e+01
4.375000e+01
5.000000e+01
5.625000e+01
6.250000e+01
6.875000e+01
7.500000e+01
8.125000e+01
8.750000e+01
9.375000e+01
1.000000e+02
1.062500e+02
1.125000e+02
1.187500e+02
1.250000e+02
1.312500e+02
1.375000e+02
1.437500e+02
1.500000e+02
1.562500e+02
1.625000e+02
1.687500e+02
1.750000e+02
1.812500e+02
1.875000e+02
1.937500e+02
2.000000e+02
0.000000e+00
6.250000e+00
1.250000e+01
1.875000e+01
2.500000e+01
3.125000e+01
3.750000e+01
4.375000e+01
5.000000e+01
5.625000e+01
6.250000e+01
6.875000e+01
7.500000e+01
8.125000e+01
8.750000e+01
9.375000e+01
1.000000e+02
1.062500e+02
1.125000e+02
1.187500e+02
1.250000e+02
1.312500e+02
1.375000e+02
1.437500e+02
1.500000e+02
1.562500e+02
1.625000e+02
1.687500e+02
1.750000e+02
1.812500e+02
1.875000e+02
1.937500e+02
2.000000e+02
0.000000e+00
6.250000e+00
1.250000e+01
1.875000e+01
2.500000e+01
3.125000e+01
3.750000e+01
4.375000e+01
5.000000e+01
5.625000e+01
6.250000e+01
6.875000e+01
7.500000e+01
8.125000e+01
8.750000e+01
9.375000e+01
1.000000e+02
1.062500e+02
1.125000e+02
1.187500e+02
1.250000e+02
1.312500e+02
1.375000e+02
1.437500e+02
1.500000e+02
1.562500e+02
1.625000e+02
1.687500e+02
1.750000e+02
1.812500e+02
1.875000e+02
1.937500e+02
2.000000e+02
0.000000e+00
6.250000e+00
1.250000e+01
1.875000e+01
2.500000e+01
3.125000e+01
3.750000e+01
4.375000e+01
5.000000e+01
5.625000e+01
6.250000e+01
6.875000e+01
7.500000e+01
8.125000e+01
8.750000e+01
9.375000e+01
1.000000e+02
1.062500e+02
1.125000e+02
1.187500e+02
1.250000e+02
1.312500e+02
1.375000e+02
1.437500e+02
1.500000e+02
1.562500e+02
1.625000e+02
1.687500e+02
1.750000e+02
1.812500e+02
1.875000e+02
1.937500e+02
2.000000e+02
0.000000e+00
6.250000e+00
1.250000e+01
1.875000e+01
2.500000e+01
3.125000e+01
3.750000e+01
4.375000e+01
5.000000e+01
5.625000e+01
6.250000e+01
6.875000e+01
7.500000e+01
8.125000e+01
8.750000e+01
9.375000e+01
1.000000e+02
1.062500e+02
1.125000e+02
1.187500e+02
1.250000e+02
1.312500e+02
1.375000e+02
1.437500e+02
1.500000e+02
1.562500e+02
1.625000e+02
1.687500e+02
1.750000e+02
1.812500e+02
1.875000e+02
1.937500e+02
2.000000e+02
0.000000e+00
6.250000e+00
1.250000e+01
1.875000e+01
2.500000e+01
3.125000e+01
3.750000e+01
4.375000e+01
5.000000e+01
5.625000e+01
6.250000e+01
6.875000e+01
7.500000e+01
8.125000e+01
8.750000e+01
9.375000e+01
1.000000e+02
1.062500e+02
1.125000e+02
1.187500e+02
1.250000e+02
1.312500e+02
1.375000e+02
1.437500e+02
1.500000e+02
1.562500e+02
1.625000e+02
1.687500e+02
1.750000e+02
1.812500e+02
1.875000e+02
1.937500e+02
2.000000e+02
0.000000e+00
6.250000e+00
1.250000e+01
1.875000e+01
2.500000e+01
3.125000e+01
3.750000e+01
4.375000e+01
5.000000e+01
5.625000e+01
6.250000e+01
6.875000e+01
7.500000e+01
8.125000e+01
8.750000e+01
9.375000e+01
1.000000e+02
1.062500e+02
1.125000e+02
1.187500e+02
1.250000e+02
1.312500e+02
1.375000e+02
1.437500e+02
1.500000e+02
1.562500e+02
1.625000e+02
1.687500e+02
1.750000e+02
1.812500e+02
1.875000e+02
1.937500e+02
2.000000e+02
0.000000e+00
6.250000e+00
1.250000e+01
1.875000e+01
2.500000e+01
3.125000e+01
3.750000e+01
4.375000e+01
5.000000e+01
5.625000e+01
6.250000e+01
6.875000e+01
7.500000e+01
8.125000e+01
8.750000e+01
9.375000e+01
1.000000e+02
1.062500e+02
1.125000e+02
1.187500e+02
1.250000e+02
1.312500e+02
1.375000e+02
1.437500e+02
1.500000e+02
1.562500e+02
1.625000e+02
1.687500e+02
1.750000e+02
1.812500e+02
1.875000e+02
1.937500e+02
2.000000e+02
0.000000e+00
6.250000e+00
1.250000e+01
1.875000e+01
2.500000e+01
3.125000e+01
3.750000e+01
4.375000e+01
5.000000e+01
5.625000e+01
6.250000e+01
6.875000e+01
7.500000e+01
8.125000e+01
8.750000e+01
9.375000e+01
1.000000e+02
1.062500e+02
1.125000e+02
1.187500e+02
1.250000e+02
1.312500e+02
1.375000e+02
1.437500e+02
1.500000e+02
1.562500e+02
1.625000e+02
1.687500e+02
1.750000e+02
1.812500e+02
1.875000e+02
1.937500e+02
2.000000e+02
0.000000e+00
6.250000e+00
1.250000e+01
1.875000e+01
2.500000e+01
3.125000e+01
3.750000e+01
4.375000e+01
5.000000e+01
5.625000e+01
6.250000e+01
6.875000e+01
7.500000e+01
8.125000e+01
8.750000e+01
9.375000e+01
1.000000e+02
1.062500e+02
1.125000e+02
1.187500e+02
1.250000e+02
1.312500e+02
1.375000e+02
1.437500e+02
1.500000e+02
1.562500e+02
1.625000e+02
1.687500e+02
1.750000e+02
1.812500e+02
1.875000e+02
1.937500e+02
2.000000e+02
0.000000e+00
6.250000e+00
1.250000e+01
1.875000e+01
2.500000e+01
3.125000e+01
3.750000e+01
4.375000e+01
5.000000e+01
5.625000e+01
6.250000e+01
6.875000e+01
7.500000e+01
8.125000e+01
8.750000e+01
9.375000e+01
1.000000e+02
1.062500e+02
1.125000e+02
1.187500e+02
1.250000e+02
1.312500e+02
1.375000e+02
1.437500e+02
1.500000e+02
1.562500e+02
1.625000e+02
1.687500e+02
1.750000e+02
1.812500e+02
1.875000e+02
1.937500e+02
2.000000e+02
0.000000e+00
6.250000e+00
1.250000e+01
1.875000e+01
2.500000e+01
3.125000e+01
3.750000e+01
4.375000e+01
5.000000e+01
5.625000e+01
6.250000e+01
6.875000e+01
7.500000e+01
8.125000e+01
8.750000e+01
9.375000e+01
1.000000e+02
1.062500e+02
1.125000e+02
1.187500e+02
1.250000e+02
1.312500e+02
1.375000e+02
1.437500e+02
1.500000e+02
1.562500e+02
1.625000e+02
1.687500e+02
1.750000e+02
1.812500e+02
1.875000e+02
1.937500e+02
2.000000e+02
0.000000e+00
6.250000e+00
1.250000e+01
1.875000e+01
2.500000e+01
3.125000e+01
3.750000e+01
4.375000e+01
5.000000e+01
5.625000e+01
6.250000e+01
6.875000e+01
7.500000e+01
8.125000e+01
8.750000e+01
9.375000e+01
1.000000e+02
1.062500e+02
1.125000e+02
1.187500e+02
1.250000e+02
1.312500e+02
1.375000e+02
1.437500e+02
1.500000e+02
1.562500e+02
1.625000e+02
1.687500e+02
1.750000e+02
1.812500e+02
1.875000e+02
1.937500e+02
2.000000e+02
0.000000e+00
0.000000e+00
0.000000e+00
0.000000e+00
0.000000e+00
0.000000e+00
0.000000e+00
0.000000e+00
0.000000e+00
0.000000e+00
0.000000e+00
0.000000e+00
0.000000e+00
0.000000e+00
0.000000e+00
0.000000e+00
0.000000e+00
0.000000e+00
0.000000e+00
0.000000e+00
0.000000e+00
0.000000e+00
0.000000e+00
0.000000e+00
0.000000e+00
0.000000e+00
0.000000e+00
0.000000e+00
0.000000e+00
0.000000e+00
0.000000e+00
0.000000e+00
0.000000e+00
6.250000e+00
6.250000e+00
6.250000e+00
6.250000e+00
6.250000e+00
6.250000e+00
6.250000e+00
6.250000e+00
6.250000e+00
6.250000e+00
6.250000e+00
6.250000e+00
6.250000e+00
6.250000e+00
6.250000e+00
6.250000e+00
6.250000e+00
6.250000e+00
6.250000e+00
6.250000e+00
6.250000e+00
6.250000e+00
6.250000e+00
6.250000e+00
6.250000e+00
6.250000e+00
6.250000e+00
6.250000e+00
6.250000e+00
6.250000e+00
6.250000e+00
6.250000e+00
6.250000e+00
1.250000e+01
1.250000e+01
1.250000e+01
1.250000e+01
1.250000e+01
1.250000e+01
1.250000e+01
1.250000e+01
1.250000e+01
1.250000e+01
1.250000e+01
1.250000e+01
1.250000e+01
1.250000e+01
1.250000e+01
1.250000e+01
1.250000e+01
1.250000e+01
1.250000e+01
1.250000e+01
1.250000e+01
1.250000e+01
1.250000e+01
1.250000e+01
1.250000e+01
1.250000e+01
1.250000e+01
1.250000e+01
1.250000e+01
1.250000e+01
1.250000e+01
1.250000e+01
1.250000e+01
1.875000e+01
1.875000e+01
1.875000e+01
1.875000e+01
1.875000e+01
1.875000e+01
1.875000e+01
1.875000e+01
1.875000e+01
1.875000e+01
1.875000e+01
1.875000e+01
1.875000e+01
1.875000e+01
1.875000e+01
1.875000e+01
1.875000e+01
1.875000e+01
1.875000e+01
1.875000e+01
1.875000e+01
1.875000e+01
1.875000e+01
1.875000e+01
1.875000e+01
1.875000e+01
1.875000e+01
1.875000e+01
1.875000e+01
1.875000e+01
1.875000e+01
1.875000e+01
1.875000e+01
2.500000e+01
2.500000e+01
2.500000e+01
2.500000e+01
2.500000e+01
2.500000e+01
2.500000e+01
2.500000e+01
2.500000e+01
2.500000e+01
2.500000e+01
2.500000e+01
2.500000e+01
2.500000e+01
2.500000e+01
2.500000e+01
2.500000e+01
2.500000e+01
2.500000e+01
2.500000e+01
2.500000e+01
2.500000e+01
2.500000e+01
2.500000e+01
2.500000e+01
2.500000e+01
2.500000e+01
2.500000e+01
2.500000e+01
2.500000e+01
2.500000e+01
2.500000e+01
2.500000e+01
3.125000e+01
3.125000e+01
3.125000e+01
3.125000e+01
3.125000e+01
3.125000e+01
3.125000e+01
3.125000e+01
3.125000e+01
3.125000e+01
3.125000e+01
3.125000e+01
3.125000e+01
3.125000e+01
3.125000e+01
3.125000e+01
3.125000e+01
3.125000e+01
3.125000e+01
3.125000e+01
3.125000e+01
3.125000e+01
3.125000e+01
3.125000e+01
3.125000e+01
3.125000e+01
3.125000e+01
3.125000e+01
3.125000e+01
3.125000e+01
3.125000e+01
3.125000e+01
3.125000e+01
3.750000e+01
3.750000e+01
3.750000e+01
3.750000e+01
3.750000e+01
3.750000e+01
3.750000e+01
3.750000e+01
3.750000e+01
3.750000e+01
3.750000e+01
3.750000e+01
3.750000e+01
3.750000e+01
3.750000e+01
3.750000e+01
3.750000e+01
3.750000e+01
3.750000e+01
3.750000e+01
3.750000e+01
3.750000e+01
3.750000e+01
3.750000e+01
3.750000e+01
3.750000e+01
3.750000e+01
3.750000e+01
3.750000e+01
3.750000e+01
3.750000e+01
3.750000e+01
3.750000e+01
4.375000e+01
4.375000e+01
4.375000e+01
4.375000e+01
4.375000e+01
4.375000e+01
4.375000e+01
4.375000e+01
4.375000e+01
4.375000e+01
4.375000e+01
4.375000e+01
4.375000e+01
4.375000e+01
4.375000e+01
4.375000e+01
4.375000e+01
4.375000e+01
4.375000e+01
4.375000e+01
4.375000e+01
4.375000e+01
4.375000e+01
4.375000e+01
4.375000e+01
4.375000e+01
4.375000e+01
4.375000e+01
4.375000e+01
4.375000e+01
4.375000e+01
4.375000e+01
4.375000e+01
5.000000e+01
5.000000e+01
5.000000e+01
5.000000e+01
5.000000e+01
5.000000e+01
5.000000e+01
5.000000e+01
5.000000e+01
5.000000e+01
5.000000e+01
5.000000e+01
5.000000e+01
5.000000e+01
5.000000e+01
5.000000e+01
5.000000e+01
5.000000e+01
5.000000e+01
5.000000e+01
5.000000e+01
5.000000e+01
5.000000e+01
5.000000e+01
5.000000e+01
5.000000e+01
5.000000e+01
5.000000e+01
5.000000e+01
5.000000e+01
5.000000e+01
5.000000e+01
5.000000e+01
5.625000e+01
5.625000e+01
5.625000e+01
5.625000e+01
5.625000e+01
5.625000e+01
5.625000e+01
5.625000e+01
5.625000e+01
5.625000e+01
5.625000e+01
5.625000e+01
5.625000e+01
5.625000e+01
5.625000e+01
5.625000e+01
5.625000e+01
5.625000e+01
5.625000e+01
5.625000e+01
5.625000e+01
5.625000e+01
5.625000e+01
5.625000e+01
5.625000e+01
5.625000e+01
5.625000e+01
5.625000e+01
5.625000e+01
5.625000e+01
5.625000e+01
5.625000e+01
5.625000e+01
6.250000e+01
6.250000e+01
6.250000e+01
6.250000e+01
6.250000e+01
6.250000e+01
6.250000e+01
6.250000e+01
6.250000e+01
6.250000e+01
6.250000e+01
6.250000e+01
6.250000e+01
6.250000e+01
6.250000e+01
6.250000e+01
6.250000e+01
6.250000e+01
6.250000e+01
6.250000e+01
6.250000e+01
6.250000e+01
6.250000e+01
6.250000e+01
6.250000e+01
6.250000e+01
6.250000e+01
6.250000e+01
6.250000e+01
6.250000e+01
6.250000e+01
6.250000e+01
6.250000e+01
6.875000e+01
6.875000e+01
6.875000e+01
6.875000e+01
6.875000e+01
6.875000e+01
6.875000e+01
6.875000e+01
6.875000e+01
6.875000e+01
6.875000e+01
6.875000e+01
6.875000e+01
6.875000e+01
6.875000e+01
6.875000e+01
6.875000e+01
6.875000e+01
6.875000e+01
6.875000e+01
6.875000e+01
6.875000e+01
6.875000e+01
6.875000e+01
6.875000e+01
6.875000e+01
6.875000e+01
6.875000e+01
6.875000e+01
6.875000e+01
6.875000e+01
6.875000e+01
6.875000e+01
7.500000e+01
7.500000e+01
7.500000e+01
7.500000e+01
7.500000e+01
7.500000e+01
7.500000e+01
7.500000e+01
7.500000e+01
7.500000e+01
7.500000e+01
7.500000e+01
7.500000e+01
7.500000e+01
7.500000e+01
7.500000e+01
7.500000e+01
7.500000e+01
7.500000e+01
7.500000e+01
7.500000e+01
7.500000e+01
7.500000e+01
7.500000e+01
7.500000e+01
7.500000e+01
7.500000e+01
7.500000e+01
7.500000e+01
7.500000e+01
7.500000e+01
7.500000e+01
7.500000e+01
8.125000e+01
8.125000e+01
8.125000e+01
8.125000e+01
8.125000e+01
8.125000e+01
8.125000e+01
8.125000e+01
8.125000e+01
8.125000e+01
8.125000e+01
8.125000e+01
8.125000e+01
8.125000e+01
8.125000e+01
8.125000e+01
8.125000e+01
8.125000e+01
8.125000e+01
8.125000e+01
8.125000e+01
8.125000e+01
8.125000e+01
8.125000e+01
8.125000e+01
8.125000e+01
8.125000e+01
8.125000e+01
8.125000e+01
8.125000e+01
8.125000e+01
8.125000e+01
8.125000e+01
8.750000e+01
8.750000e+01
8.750000e+01
8.750000e+01
8.750000e+01
8.750000e+01
8.750000e+01
8.750000e+01
8.750000e+01
8.750000e+01
8.750000e+01
8.750000e+01
8.750000e+01
8.750000e+01
8.750000e+01
8.750000e+01
8.750000e+01
8.750000e+01
8.750000e+01
8.750000e+01
8.750000e+01
8.750000e+01
8.750000e+01
8.750000e+01
8.750000e+01
8.750000e+01
8.750000e+01
8.750000e+01
8.750000e+01
8.750000e+01
8.750000e+01
8.750000e+01
8.750000e+01
9.375000e+01
9.375000e+01
9.375000e+01
9.375000e+01
9.375000e+01
9.375000e+01
9.375000e+01
9.375000e+01
9.375000e+01
9.375000e+01
9.375000e+01
9.375000e+01
9.375000e+01
9.375000e+01
9.375000e+01
9.375000e+01
9.375000e+01
9.375000e+01
9.375000e+01
9.375000e+01
9.375000e+01
9.375000e+01
9.375000e+01
9.375000e+01
9.375000e+01
9.375000e+01
9.375000e+01
9.375000e+01
9.375000e+01
9.375000e+01
9.375000e+01
9.375000e+01
9.375000e+01
1.000000e+02
1.000000e+02
1.000000e+02
1.000000e+02
1.000000e+02
1.000000e+02
1.000000e+02
1.000000e+02
1.000000e+02
1.000000e+02
1.000000e+02
1.000000e+02
1.000000e+02
1.000000e+02
1.000000e+02
1.000000e+02
1.000000e+02
1.000000e+02
1.000000e+02
1.000000e+02
1.000000e+02
1.000000e+02
1.000000e+02
1.000000e+02
1.000000e+02
1.000000e+02
1.000000e+02
1.000000e+02
1.000000e+02
1.000000e+02
1.000000e+02
1.000000e+02
1.000000e+02
0.000000e+00
-3.649259e-01
-6.582716e-01
-9.418099e-01
-1.230743e+00
-1.515960e+00
-1.798422e+00
-2.080034e+00
-2.360216e+00
-2.638134e+00
-2.913413e+00
-3.185647e+00
-3.454193e+00
-3.718232e+00
-3.976821e+00
-4.228909e+00
-4.473409e+00
-4.709303e+00
-4.935762e+00
-5.152262e+00
-5.358667e+00
-5.555309e+00
-5.743044e+00
-5.923322e+00
-6.098290e+00
-6.270937e+00
-6.445336e+00
-6.627056e+00
-6.823978e+00
-7.046901e+00
-7.304216e+00
-7.586213e+00
-7.752039e+00
0.000000e+00
-2.353250e-01
-4.888112e-01
-7.393909e-01
-9.944498e-01
-1.245776e+00
-1.493878e+00
-1.740821e+00
-1.986310e+00
-2.229651e+00
-2.470561e+00
-2.708747e+00
-2.943696e+00
-3.174729e+00
-3.401044e+00
-3.621742e+00
-3.835869e+00
-4.042505e+00
-4.240862e+00
-4.430375e+00
-4.610762e+00
-4.782061e+00
-4.944642e+00
-5.099202e+00
-5.246735e+00
-5.388478e+00
-5.525779e+00
-5.659772e+00
-5.790340e+00
-5.912445e+00
-6.008683e+00
-6.060992e+00
-6.130401e+00
0.000000e+00
-1.801231e-01
-3.731338e-01
-5.809991e-01
-7.960564e-01
-1.010125e+00
-1.222785e+00
-1.434738e+00
-1.645476e+00
-1.854416e+00
-2.061242e+00
-2.265622e+00
-2.467080e+00
-2.665021e+00
-2.858751e+00
-3.047489e+00
-3.230405e+00
-3.406672e+00
-3.575536e+00
-3.736372e+00
-3.888715e+00
-4.032263e+00
-4.166848e+00
-4.292368e+00
-4.408671e+00
-4.515364e+00
-4.611480e+00
-4.694854e+00
-4.760951e+00
-4.801257e+00
-4.807552e+00
-4.798435e+00
-4.874560e+00
0.000000e+00
-1.421908e-01
-2.941997e-01
-4.586596e-01
-6.316521e-01
-8.068748e-01
-9.829716e-01
-1.159202e+00
-1.334725e+00
-1.508939e+00
-1.681421e+00
-1.851750e+00
-2.019448e+00
-2.183972e+00
-2.344716e+00
-2.501004e+00
-2.652115e+00
-2.797311e+00
-2.935870e+00
-3.067113e+00
-3.190413e+00
-3.305175e+00
-3.410790e+00
-3.506545e+00
-3.591501e+00
-3.664306e+00
-3.722953e+00
-3.764547e+00
-3.785390e+00
-3.782991e+00
-3.765467e+00
-3.766029e+00
-3.838515e+00
0.000000e+00
-1.130752e-01
-2.319085e-01
-3.587754e-01
-4.919284e-01
-6.290292e-01
-7.682189e-01
-9.082027e-01
-1.048041e+00
-1.187072e+00
-1.324774e+00
-1.460671e+00
-1.594293e+00
-1.725148e+00
-1.852704e+00
-1.976379e+00
-2.095547e+00
-2.209546e+00
-2.317689e+00
-2.419269e+00
-2.513557e+00
-2.599776e+00
-2.677063e+00
-2.744410e+00
-2.800590e+00
-2.844104e+00
-2.873212e+00
-2.886279e+00
-2.882963e+00
-2.867615e+00
-2.856176e+00
-2.877858e+00
-2.945388e+00
0.000000e+00
-8.469540e-02
-1.731050e-01
-2.661281e-01
-3.636856e-01
-4.646279e-01
-5.677359e-01
-6.718868e-01
-7.762281e-01
-8.801197e-01
-9.830437e-01
-1.084545e+00
-1.184197e+00
-1.281566e+00
-1.376197e+00
-1.467595e+00
-1.555218e+00
-1.638480e+00
-1.716740e+00
-1.789309e+00
-1.855438e+00
-1.914307e+00
-1.965013e+00
-2.006560e+00
-2.037880e+00
-2.057931e+00
-2.065985e+00
-2.062315e+00
-2.049641e+00
-2.035668e+00
-2.035483e+00
-2.065039e+00
-2.126679e+00
0.000000e+00
-5.638653e-02
-1.150326e-01
-1.764483e-01
-2.406419e-01
-3.071486e-01
-3.752569e-01
-4.442441e-01
-5.134884e-01
-5.824887e-01
-6.508289e-01
-7.181428e-01
-7.840855e-01
-8.483092e-01
-9.104443e-01
-9.700854e-01
-1.026780e+00
-1.080024e+00
-1.129253e+00
-1.173842e+00
-1.213108e+00
-1.246315e+00
-1.272694e+00
-1.291485e+00
-1.302046e+00
-1.304050e+00
-1.297888e+00
-1.285350e+00
-1.270659e+00
-1.261534e+00
-1.268412e+00
-1.299371e+00
-1.352535e+00
0.000000e+00
-2.820957e-02
-5.752300e-02
-8.814983e-02
-1.201022e-01
-1.531896e-01
-1.870978e-01
-2.214723e-01
-2.559846e-01
-2.903507e-01
-3.243235e-01
-3.576748e-01
-3.901791e-01
-4.215973e-01
-4.516640e-01
-4.800760e-01
-5.064835e-01
-5.304842e-01
-5.516208e-01
-5.693844e-01
-5.832265e-01
-5.925842e-01
-5.969281e-01
-5.958467e-01
-5.891917e-01
-5.773132e-01
-5.614163e-01
-5.440355e-01
-5.294941e-01
-5.238718e-01
-5.335859e-01
-5.619517e-01
-6.055430e-01
0.000000e+00
-1.430281e-04
-2.924782e-04
-4.423051e-04
-5.854477e-04
-7.132054e-04
-8.140442e-04
-8.719241e-04
-8.642350e-04
-7.592191e-04
-5.127126e-04
-6.405545e-05
6.688877e-04
1.795489e-03
3.458561e-03
5.840367e-03
9.167472e-03
1.371304e-02
1.979459e-02
2.776447e-02
3.798875e-02
5.080877e-02
6.647679e-02
8.505530e-02
1.062684e-01
1.292985e-01
1.525403e-01
1.733774e-01
1.881487e-01
1.926137e-01
1.832886e-01
1.595582e-01
1.253805e-01
0.000000e+00
2.792955e-02
5.695007e-02
8.728318e-02
1.189546e-01
1.517902e-01
1.854978e-01
2.197530e-01
2.542703e-01
2.888259e-01
3.232556e-01
3.574458e-01
3.913253e-01
4.248608e-01
4.580557e-01
4.909503e-01
5.236225e-01
5.561868e-01
5.887893e-01
6.215941e-01
6.547589e-01
6.883918e-01
7.224850e-01
7.568188e-01
7.908351e-01
8.234929e-01
8.531368e-01
8.774580e-01
8.936763e-01
8.991094e-01
8.922238e-01
8.739289e-01
8.483957e-01
0.000000e+00
5.612470e-02
1.144959e-01
1.756358e-01
2.395642e-01
3.058301e-01
3.737405e-01
4.425980e-01
5.118171e-01
5.809466e-01
6.496397e-01
7.176243e-01
7.846819e-01
8.506333e-01
9.153292e-01
9.786463e-01
1.040486e+00
1.100772e+00
1.159449e+00
1.216467e+00
1.271766e+00
1.325231e+00
1.376642e+00
1.425591e+00
1.471390e+00
1.512981e+00
1.548892e+00
1.577287e+00
1.596231e+00
1.604207e+00
1.600923e+00
1.588163e+00
1.570289e+00
0.000000e+00
8.446458e-02
1.726303e-01
2.654076e-01
3.627263e-01
4.634463e-01
5.663614e-01
6.703670e-01
7.746366e-01
8.785658e-01
9.816844e-01
1.083602e+00
1.183975e+00
1.282485e+00
1.378821e+00
1.472673e+00
1.563735e+00
1.651708e+00
1.736300e+00
1.817227e+00
1.894201e+00
1.966907e+00
2.034964e+00
2.097863e+00
2.154914e+00
2.205194e+00
2.247540e+00
2.280647e+00
2.303304e+00
2.314831e+00
2.315696e+00
2.308180e+00
2.296866e+00
0.000000e+00
1.128907e-01
2.315260e-01
3.581921e-01
4.911447e-01
6.280513e-01
7.670599e-01
9.068854e-01
1.046601e+00
1.185566e+00
1.323279e+00
1.459296e+00
1.593181e+00
1.724489e+00
1.852741e+00
1.977419e+00
2.097977e+00
2.213850e+00
2.324475e+00
2.429307e+00
2.527823e+00
2.619520e+00
2.703890e+00
2.780391e+00
2.848411e+00
2.907249e+00
2.956129e+00
2.994287e+00
3.021148e+00
3.036657e+00
3.041742e+00
3.038919e+00
3.032950e+00
0.000000e+00
1.420725e-01
2.939483e-01
4.582703e-01
6.311190e-01
8.061923e-01
9.821387e-01
1.158219e+00
1.333592e+00
1.507658e+00
1.679995e+00
1.850177e+00
2.017715e+00
2.182044e+00
2.342513e+00
2.498376e+00
2.648811e+00
2.792949e+00
2.929915e+00
3.058871e+00
3.179042e+00
3.289730e+00
3.390309e+00
3.480221e+00
3.558962e+00
3.626087e+00
3.681233e+00
3.724188e+00
3.755006e+00
3.774196e+00
3.783037e+00
3.784095e+00
3.782108e+00
0.000000e+00
1.800908e-01
3.730559e-01
5.808670e-01
7.958627e-01
1.009857e+00
1.222437e+00
1.434298e+00
1.644923e+00
1.853715e+00
2.060341e+00
2.264440e+00
2.465485e+00
2.662797e+00
2.855549e+00
3.042758e+00
3.223305e+00
3.395986e+00
3.559584e+00
3.712936e+00
3.854983e+00
3.984800e+00
4.101610e+00
4.204797e+00
4.293917e+00
4.368737e+00
4.429275e+00
4.475877e+00
4.509283e+00
4.530705e+00
4.541926e+00
4.545579e+00
4.546008e+00
0.000000e+00
2.353776e-01
4.889030e-01
7.395237e-01
9.946285e-01
1.245993e+00
1.494134e+00
1.741116e+00
1.986628e+00
2.229956e+00
2.470793e+00
2.708804e+00
2.943399e+00
3.173774e+00
3.398927e+00
3.617639e+00
3.828504e+00
4.029991e+00
4.220540e+00
4.398653e+00
4.562957e+00
4.712248e+00
4.845514e+00
4.961968e+00
5.061087e+00
5.142691e+00
5.207040e+00
5.254951e+00
5.287912e+00
5.308135e+00
5.318479e+00
5.322233e+00
5.323150e+00
0.000000e+00
3.649940e-01
6.584531e-01
9.421395e-01
1.231245e+00
1.516644e+00
1.799313e+00
2.081167e+00
2.361616e+00
2.639815e+00
2.915377e+00
3.187855e+00
3.456532e+00
3.720451e+00
3.978427e+00
4.229023e+00
4.470580e+00
4.701291e+00
4.919300e+00
5.122797e+00
5.310081e+00
5.479604e+00
5.629996e+00
5.760109e+00
5.869087e+00
5.956493e+00
6.022486e+00
6.068052e+00
6.095278e+00
6.107589e+00
6.109862e+00
6.108038e+00
6.107003e+00
0.000000e+00
-2.257522e-01
-4.103379e-01
-6.242474e-01
-8.658656e-01
-1.137690e+00
-1.443047e+00
-1.782980e+00
-2.157546e+00
-2.566873e+00
-3.010961e+00
-3.489536e+00
-4.002120e+00
-4.548079e+00
-5.126608e+00
-5.736730e+00
-6.377315e+00
-7.047111e+00
-7.744791e+00
-8.469011e+00
-9.218491e+00
-9.992114e+00
-1.078907e+01
-1.160906e+01
-1.245258e+01
-1.332137e+01
-1.421915e+01
-1.515275e+01
-1.613423e+01
-1.718568e+01
-1.835527e+01
-1.976007e+01
-2.167341e+01
0.000000e+00
-1.407358e-01
-3.333650e-01
-5.441661e-01
-7.853186e-01
-1.057971e+00
-1.363794e+00
-1.704015e+00
-2.079101e+00
-2.489130e+00
-2.934026e+00
-3.413554e+00
-3.927296e+00
-4.474658e+00
-5.054871e+00
-5.666980e+00
-6.309857e+00
-6.982220e+00
-7.682678e+00
-8.409802e+00
-9.162204e+00
-9.938648e+00
-1.073820e+01
-1.156041e+01
-1.240564e+01
-1.327548e+01
-1.417347e+01
-1.510631e+01
-1.608620e+01
-1.713624e+01
-1.830306e+01
-1.968091e+01
-2.145805e+01
0.000000e+00
-1.048603e-01
-2.732281e-01
-4.791407e-01
-7.177326e-01
-9.898502e-01
-1.295646e+00
-1.635983e+00
-2.011421e+00
-2.422018e+00
-2.867640e+00
-3.348049e+00
-3.862859e+00
-4.411508e+00
-4.993253e+00
-5.607162e+00
-6.252112e+00
-6.926810e+00
-7.629835e+00
-8.359710e+00
-9.114989e+00
-9.894380e+00
-1.069689e+01
-1.152206e+01
-1.237021e+01
-1.324297e+01
-1.414399e+01
-1.508028e+01
-1.606463e+01
-1.711964e+01
-1.827839e+01
-1.956758e+01
-2.096909e+01
0.000000e+00
-8.876381e-02
-2.376432e-01
-4.319124e-01
-6.653343e-01
-9.348153e-01
-1.239451e+00
-1.579383e+00
-1.954857e+00
-2.365814e+00
-2.812049e+00
-3.293285e+00
-3.809123e+00
-4.359009e+00
-4.942214e+00
-5.557821e+00
-6.204720e+00
-6.881627e+00
-7.587121e+00
-8.319718e+00
-9.077963e+00
-9.860559e+00
-1.066652e+01
-1.149538e+01
-1.234752e+01
-1.322456e+01
-1.413012e+01
-1.507087e+01
-1.605816e+01
-1.710844e+01
-1.823126e+01
-1.940197e+01
-2.048669e+01
0.000000e+00
-8.156097e-02
-2.175631e-01
-4.013281e-01
-6.276967e-01
-8.930774e-01
-1.195524e+00
-1.534445e+00
-1.909586e+00
-2.320673e+00
-2.767389e+00
-3.249379e+00
-3.766199e+00
-4.317276e+00
-4.901882e+00
-5.519111e+00
-6.167871e+00
-6.846900e+00
-7.554799e+00
-8.290106e+00
-9.051384e+00
-9.837348e+00
-1.064701e+01
-1.147989e+01
-1.233628e+01
-1.321757e+01
-1.412673e+01
-1.506884e+01
-1.605123e+01
-1.708046e+01
-1.814783e+01
-1.920332e+01
-2.015011e+01
0.000000e+00
-7.688605e-02
-2.054149e-01
-3.816770e-01
-6.019944e-01
-8.631615e-01
-1.163126e+00
-1.500737e+00
-1.875326e+00
-2.286387e+00
-2.733470e+00
-3.216126e+00
-3.733852e+00
-4.286048e+00
-4.871977e+00
-5.490742e+00
-6.141271e+00
-6.822330e+00
-7.532552e+00
-8.270502e+00
-9.034758e+00
-9.824024e+00
-1.063726e+01
-1.147386e+01
-1.233381e+01
-1.321790e+01
-1.412783e+01
-1.506611e+01
-1.603486e+01
-1.703170e+01
-1.803768e+01
-1.900726e+01
-1.987559e+01
0.000000e+00
-7.376411e-02
-1.978307e-01
-3.693144e-01
-5.853278e-01
-8.432473e-01
-1.141088e+00
-1.477493e+00
-1.851536e+00
-2.262529e+00
-2.709905e+00
-3.193133e+00
-3.711661e+00
-4.264864e+00
-4.851999e+00
-5.472177e+00
-6.124348e+00
-6.807304e+00
-7.519702e+00
-8.260121e+00
-9.027126e+00
-9.819361e+00
-1.063565e+01
-1.147511e+01
-1.233722e+01
-1.322187e+01
-1.412912e+01
-1.505868e+01
-1.600815e+01
-1.696931e+01
-1.792136e+01
-1.882838e+01
-1.964645e+01
0.000000e+00
-7.198913e-02
-1.935946e-01
-3.624104e-01
-5.759411e-01
-8.318853e-01
-1.128371e+00
-1.463981e+00
-1.837673e+00
-2.248657e+00
-2.696290e+00
-3.179995e+00
-3.699192e+00
-4.253246e+00
-4.841416e+00
-5.462829e+00
-6.116452e+00
-6.801095e+00
-7.515427e+00
-8.258010e+00
-9.027357e+00
-9.821990e+00
-1.064051e+01
-1.148164e+01
-1.234421e+01
-1.322707e+01
-1.412868e+01
-1.504636e+01
-1.597474e+01
-1.690313e+01
-1.781245e+01
-1.867530e+01
-1.946123e+01
0.000000e+00
-7.140672e-02
-1.922195e-01
-3.601834e-01
-5.729223e-01
-8.282378e-01
-1.124303e+00
-1.459697e+00
-1.833348e+00
-2.244442e+00
-2.692319e+00
-3.176396e+00
-3.696097e+00
-4.250798e+00
-4.839776e+00
-5.462175e+00
-6.116980e+00
-6.803011e+00
-7.518923e+00
-8.263237e+00
-9.034369e+00
-9.830667e+00
-1.065044e+01
-1.149196e+01
-1.235337e+01
-1.323252e+01
-1.412654e+01
-1.503112e+01
-1.593937e+01
-1.684030e+01
-1.771759e+01
-1.855041e+01
-1.931668e+01
0.000000e+00
-7.196393e-02
-1.935677e-01
-3.624088e-01
-5.759951e-01
-8.320303e-01
-1.128650e+00
-1.464450e+00
-1.838401e+00
-2.249735e+00
-2.697837e+00
-3.182160e+00
-3.702167e+00
-4.257265e+00
-4.846763e+00
-5.469831e+00
-6.125469e+00
-6.812491e+00
-7.529528e+00
-8.275028e+00
-9.047283e+00
-9.844435e+00
-1.066447e+01
-1.150520e+01
-1.236414e+01
-1.323829e+01
-1.412382e+01
-1.501551e+01
-1.590600e+01
-1.678503e+01
-1.763915e+01
-1.845239e+01
-1.920816e+01
0.000000e+00
-7.371236e-02
-1.977746e-01
-3.693069e-01
-5.854275e-01
-8.435223e-01
-1.141621e+00
-1.478390e+00
-1.852930e+00
-2.264596e+00
-2.712869e+00
-3.197284e+00
-3.717363e+00
-4.272568e+00
-4.862249e+00
-5.485604e+00
-6.141647e+00
-6.829181e+00
-7.546793e+00
-8.292850e+00
-9.065503e+00
-9.862679e+00
-1.068206e+01
-1.152103e+01
-1.237657e+01
-1.324506e+01
-1.412205e+01
-1.500189e+01
-1.587738e+01
-1.673946e+01
-1.757725e+01
-1.837860e+01
-1.913090e+01
0.000000e+00
-7.680548e-02
-2.053261e-01
-3.816567e-01
-6.021251e-01
-8.635384e-01
-1.163865e+00
-1.501986e+00
-1.877273e+00
-2.289276e+00
-2.737615e+00
-3.221928e+00
-3.741820e+00
-4.296814e+00
-4.886304e+00
-5.509516e+00
-6.165473e+00
-6.852962e+00
-7.570524e+00
-8.316439e+00
-9.088724e+00
-9.885111e+00
-1.070302e+01
-1.153948e+01
-1.239105e+01
-1.325370e+01
-1.412261e+01
-1.499203e+01
-1.585521e+01
-1.670436e+01
-1.753091e+01
-1.832590e+01
-1.908017e+01
0.000000e+00
-8.145010e-02
-2.174398e-01
-4.012878e-01
-6.278402e-01
-8.935199e-01
-1.196406e+00
-1.535946e+00
-1.911934e+00
-2.324162e+00
-2.772399e+00
-3.256392e+00
-3.775829e+00
-4.330286e+00
-4.919195e+00
-5.541803e+00
-6.197136e+00
-6.883962e+00
-7.600778e+00
-8.345789e+00
-9.116902e+00
-9.911696e+00
-1.072738e+01
-1.156075e+01
-1.240806e+01
-1.326500e+01
-1.412657e+01
-1.498710e+01
-1.584032e+01
-1.667964e+01
-1.749852e+01
-1.829088e+01
-1.905111e+01
0.000000e+00
-8.862645e-02
-2.374911e-01
-4.318511e-01
-6.654755e-01
-9.352875e-01
-1.240411e+00
-1.581030e+00
-1.957445e+00
-2.369667e+00
-2.817585e+00
-3.301036e+00
-3.819764e+00
-4.373379e+00
-4.961328e+00
-5.582864e+00
-6.237006e+00
-6.922502e+00
-7.637815e+00
-8.381100e+00
-9.150191e+00
-9.942572e+00
-1.075533e+01
-1.158509e+01
-1.242795e+01
-1.327944e+01
-1.413449e+01
-1.498756e+01
-1.583281e+01
-1.666462e+01
-1.747813e+01
-1.826997e+01
-1.903842e+01
0.000000e+00
-1.047167e-01
-2.730675e-01
-4.790686e-01
-7.178677e-01
-9.903297e-01
-1.296634e+00
-1.637690e+00
-2.014111e+00
-2.426030e+00
-2.873406e+00
-3.356121e+00
-3.873934e+00
-4.426446e+00
-5.013093e+00
-5.633108e+00
-6.285490e+00
-6.968969e+00
-7.681985e+00
-8.422676e+00
-9.188852e+00
-9.977959e+00
-1.078703e+01
-1.161265e+01
-1.245083e+01
-1.329707e+01
-1.414631e+01
-1.499313e+01
-1.583204e+01
-1.665805e+01
-1.746756e+01
-1.825945e+01
-1.903617e+01
0.000000e+00
-1.406140e-01
-3.332173e-01
-5.441012e-01
-7.854599e-01
-1.058460e+00
-1.364799e+00
-1.705746e+00
-2.081826e+00
-2.493189e+00
-2.939851e+00
-3.421692e+00
-3.938433e+00
-4.489635e+00
-5.074687e+00
-5.692778e+00
-6.342870e+00
-7.023669e+00
-7.733613e+00
-8.470846e+00
-9.233195e+00
-1.001813e+01
-1.082269e+01
-1.164348e+01
-1.247656e+01
-1.331745e+01
-1.416121e+01
-1.500256e+01
-1.583627e+01
-1.665776e+01
-1.746412e+01
-1.825565e+01
-1.903803e+01
0.000000e+00
-2.256624e-01
-4.102201e-01
-6.242156e-01
-8.660417e-01
-1.138216e+00
-1.444096e+00
-1.784763e+00
-2.160325e+00
-2.570985e+00
-3.016831e+00
-3.497698e+00
-4.013234e+00
-4.562936e+00
-5.146130e+00
-5.761939e+00
-6.409270e+00
-7.086805e+00
-7.792981e+00
-8.525966e+00
-9.283623e+00
-1.006346e+01
-1.086260e+01