TITLE = "Solution"
VARIABLES = x, y, u, v, psiu, psiv, t, stress
ZONE T="structure" N=561 E=512 F=FEBLOCK ET=QUADRILATERAL VARLOCATION=([7,8]=cellcentered)
0.000000e+00
6.250000e+00
1.250000e+01
1.875000e+01
2.500000e+01
3.125000e+01
3.750000e+01
4.375000e+01
5.000000e+01
5.625000e+01
6.250000e+01
6.875000e+01
7.500000e+01
8.125000e+01
8.750000e+01
9.375000e+01
1.000000e+02
1.062500e+02
1.125000e+02
1.187500e+02
1.250000e+02
1.312500e+02
1.375000e+02
1.437500e+02
1.500000e+02
1.562500e+02
1.625000e+02
1.687500e+02
1.750000e+02
1.812500e+02
1.875000e+02
1.937500e+02
2.000000e+02
0.000000e+00
6.250000e+00
1.250000e+01
1.875000e+01
2.500000e+01
3.125000e+01
3.750000e+01
4.375000e+01
5.000000e+01
5.625000e+01
6.250000e+01
6.875000e+01
7.500000e+01
8.125000e+01
8.750000e+01
9.375000e+01
1.000000e+02
1.062500e+02
1.125000e+02
1.187500e+02
1.250000e+02
1.312500e+02
1.375000e+02
1.437500e+02
1.500000e+02
1.562500e+02
1.625000e+02
1.687500e+02
1.750000e+02
1.812500e+02
1.875000e+02
1.937500e+02
2.000000e+02
0.000000e+00
6.250000e+00
1.250000e+01
1.875000e+01
2.500000e+01
3.125000e+01
3.750000e+01
4.375000e+01
5.000000e+01
5.625000e+01
6.250000e+01
6.875000e+01
7.500000e+01
8.125000e+01
8.750000e+01
9.375000e+01
1.000000e+02
1.062500e+02
1.125000e+02
1.187500e+02
1.250000e+02
1.312500e+02
1.375000e+02
1.437500e+02
1.500000e+02
1.562500e+02
1.625000e+02
1.687500e+02
1.750000e+02
1.812500e+02
1.875000e+02
1.937500e+02
2.000000e+02
0.000000e+00
6.250000e+00
1.250000e+01
1.875000e+01
2.500000e+01
3.125000e+01
3.750000e+01
4.375000e+01
5.000000e+01
5.625000e+01
6.250000e+01
6.875000e+01
7.500000e+01
8.125000e+01
8.750000e+01
9.375000e+01
1.000000e+02
1.062500e+02
1.125000e+02
1.187500e+02
1.250000e+02
1.312500e+02
1.375000e+02
1.437500e+02
1.500000e+02
1.562500e+02
1.625000e+02
1.687500e+02
1.750000e+02
1.812500e+02
1.875000e+02
1.937500e+02
2.000000e+02
0.000000e+00
6.250000e+00
1.250000e+01
1.875000e+01
2.500000e+01
3.125000e+01
3.750000e+01
4.375000e+01
5.000000e+01
5.625000e+01
6.250000e+01
6.875000e+01
7.500000e+01
8.125000e+01
8.750000e+01
9.375000e+01
1.000000e+02
1.062500e+02
1.125000e+02
1.187500e+02
1.250000e+02
1.312500e+02
1.375000e+02
1.437500e+02
1.500000e+02
1.562500e+02
1.625000e+02
1.687500e+02
1.750000e+02
1.812500e+02
1.875000e+02
1.937500e+02
2.000000e+02
0.000000e+00
6.250000e+00
1.250000e+01
1.875000e+01
2.500000e+01
3.125000e+01
3.750000e+01
4.375000e+01
5.000000e+01
5.625000e+01
6.250000e+01
6.875000e+01
7.500000e+01
8.125000e+01
8.750000e+01
9.375000e+01
1.000000e+02
1.062500e+02
1.125000e+02
1.187500e+02
1.250000e+02
1.312500e+02
1.375000e+02
1.437500e+02
1.500000e+02
1.562500e+02
1.625000e+02
1.687500e+02
1.750000e+02
1.812500e+02
1.875000e+02
1.937500e+02
2.000000e+02
0.000000e+00
6.250000e+00
1.250000e+01
1.875000e+01
2.500000e+01
3.125000e+01
3.750000e+01
4.375000e+01
5.000000e+01
5.625000e+01
6.250000e+01
6.875000e+01
7.500000e+01
8.125000e+01
8.750000e+01
9.375000e+01
1.000000e+02
1.062500e+02
1.125000e+02
1.187500e+02
1.250000e+02
1.312500e+02
1.375000e+02
1.437500e+02
1.500000e+02
1.562500e+02
1.625000e+02
1.687500e+02
1.750000e+02
1.812500e+02
1.875000e+02
1.937500e+02
2.000000e+02
0.000000e+00
6.250000e+00
1.250000e+01
1.875000e+01
2.500000e+01
3.125000e+01
3.750000e+01
4.375000e+01
5.000000e+01
5.625000e+01
6.250000e+01
6.875000e+01
7.500000e+01
8.125000e+01
8.750000e+01
9.375000e+01
1.000000e+02
1.062500e+02
1.125000e+02
1.187500e+02
1.250000e+02
1.312500e+02
1.375000e+02
1.437500e+02
1.500000e+02
1.562500e+02
1.625000e+02
1.687500e+02
1.750000e+02
1.812500e+02
1.875000e+02
1.937500e+02
2.000000e+02
0.000000e+00
6.250000e+00
1.250000e+01
1.875000e+01
2.500000e+01
3.125000e+01
3.750000e+01
4.375000e+01
5.000000e+01
5.625000e+01
6.250000e+01
6.875000e+01
7.500000e+01
8.125000e+01
8.750000e+01
9.375000e+01
1.000000e+02
1.062500e+02
1.125000e+02
1.187500e+02
1.250000e+02
1.312500e+02
1.375000e+02
1.437500e+02
1.500000e+02
1.562500e+02
1.625000e+02
1.687500e+02
1.750000e+02
1.812500e+02
1.875000e+02
1.937500e+02
2.000000e+02
0.000000e+00
6.250000e+00
1.250000e+01
1.875000e+01
2.500000e+01
3.125000e+01
3.750000e+01
4.375000e+01
5.000000e+01
5.625000e+01
6.250000e+01
6.875000e+01
7.500000e+01
8.125000e+01
8.750000e+01
9.375000e+01
1.000000e+02
1.062500e+02
1.125000e+02
1.187500e+02
1.250000e+02
1.312500e+02
1.375000e+02
1.437500e+02
1.500000e+02
1.562500e+02
1.625000e+02
1.687500e+02
1.750000e+02
1.812500e+02
1.875000e+02
1.937500e+02
2.000000e+02
0.000000e+00
6.250000e+00
1.250000e+01
1.875000e+01
2.500000e+01
3.125000e+01
3.750000e+01
4.375000e+01
5.000000e+01
5.625000e+01
6.250000e+01
6.875000e+01
7.500000e+01
8.125000e+01
8.750000e+01
9.375000e+01
1.000000e+02
1.062500e+02
1.125000e+02
1.187500e+02
1.250000e+02
1.312500e+02
1.375000e+02
1.437500e+02
1.500000e+02
1.562500e+02
1.625000e+02
1.687500e+02
1.750000e+02
1.812500e+02
1.875000e+02
1.937500e+02
2.000000e+02
0.000000e+00
6.250000e+00
1.250000e+01
1.875000e+01
2.500000e+01
3.125000e+01
3.750000e+01
4.375000e+01
5.000000e+01
5.625000e+01
6.250000e+01
6.875000e+01
7.500000e+01
8.125000e+01
8.750000e+01
9.375000e+01
1.000000e+02
1.062500e+02
1.125000e+02
1.187500e+02
1.250000e+02
1.312500e+02
1.375000e+02
1.437500e+02
1.500000e+02
1.562500e+02
1.625000e+02
1.687500e+02
1.750000e+02
1.812500e+02
1.875000e+02
1.937500e+02
2.000000e+02
0.000000e+00
6.250000e+00
1.250000e+01
1.875000e+01
2.500000e+01
3.125000e+01
3.750000e+01
4.375000e+01
5.000000e+01
5.625000e+01
6.250000e+01
6.875000e+01
7.500000e+01
8.125000e+01
8.750000e+01
9.375000e+01
1.000000e+02
1.062500e+02
1.125000e+02
1.187500e+02
1.250000e+02
1.312500e+02
1.375000e+02
1.437500e+02
1.500000e+02
1.562500e+02
1.625000e+02
1.687500e+02
1.750000e+02
1.812500e+02
1.875000e+02
1.937500e+02
2.000000e+02
0.000000e+00
6.250000e+00
1.250000e+01
1.875000e+01
2.500000e+01
3.125000e+01
3.750000e+01
4.375000e+01
5.000000e+01
5.625000e+01
6.250000e+01
6.875000e+01
7.500000e+01
8.125000e+01
8.750000e+01
9.375000e+01
1.000000e+02
1.062500e+02
1.125000e+02
1.187500e+02
1.250000e+02
1.312500e+02
1.375000e+02
1.437500e+02
1.500000e+02
1.562500e+02
1.625000e+02
1.687500e+02
1.750000e+02
1.812500e+02
1.875000e+02
1.937500e+02
2.000000e+02
0.000000e+00
6.250000e+00
1.250000e+01
1.875000e+01
2.500000e+01
3.125000e+01
3.750000e+01
4.375000e+01
5.000000e+01
5.625000e+01
6.250000e+01
6.875000e+01
7.500000e+01
8.125000e+01
8.750000e+01
9.375000e+01
1.000000e+02
1.062500e+02
1.125000e+02
1.187500e+02
1.250000e+02
1.312500e+02
1.375000e+02
1.437500e+02
1.500000e+02
1.562500e+02
1.625000e+02
1.687500e+02
1.750000e+02
1.812500e+02
1.875000e+02
1.937500e+02
2.000000e+02
0.000000e+00
6.250000e+00
1.250000e+01
1.875000e+01
2.500000e+01
3.125000e+01
3.750000e+01
4.375000e+01
5.000000e+01
5.625000e+01
6.250000e+01
6.875000e+01
7.500000e+01
8.125000e+01
8.750000e+01
9.375000e+01
1.000000e+02
1.062500e+02
1.125000e+02
1.187500e+02
1.250000e+02
1.312500e+02
1.375000e+02
1.437500e+02
1.500000e+02
1.562500e+02
1.625000e+02
1.687500e+02
1.750000e+02
1.812500e+02
1.875000e+02
1.937500e+02
2.000000e+02
0.000000e+00
6.250000e+00
1.250000e+01
1.875000e+01
2.500000e+01
3.125000e+01
3.750000e+01
4.375000e+01
5.000000e+01
5.625000e+01
6.250000e+01
6.875000e+01
7.500000e+01
8.125000e+01
8.750000e+01
9.375000e+01
1.000000e+02
1.062500e+02
1.125000e+02
1.187500e+02
1.250000e+02
1.312500e+02
1.375000e+02
1.437500e+02
1.500000e+02
1.562500e+02
1.625000e+02
1.687500e+02
1.750000e+02
1.812500e+02
1.875000e+02
1.937500e+02
2.000000e+02
0.000000e+00
0.000000e+00
0.000000e+00
0.000000e+00
0.000000e+00
0.000000e+00
0.000000e+00
0.000000e+00
0.000000e+00
0.000000e+00
0.000000e+00
0.000000e+00
0.000000e+00
0.000000e+00
0.000000e+00
0.000000e+00
0.000000e+00
0.000000e+00
0.000000e+00
0.000000e+00
0.000000e+00
0.000000e+00
0.000000e+00
0.000000e+00
0.000000e+00
0.000000e+00
0.000000e+00
0.000000e+00
0.000000e+00
0.000000e+00
0.000000e+00
0.000000e+00
0.000000e+00
6.250000e+00
6.250000e+00
6.250000e+00
6.250000e+00
6.250000e+00
6.250000e+00
6.250000e+00
6.250000e+00
6.250000e+00
6.250000e+00
6.250000e+00
6.250000e+00
6.250000e+00
6.250000e+00
6.250000e+00
6.250000e+00
6.250000e+00
6.250000e+00
6.250000e+00
6.250000e+00
6.250000e+00
6.250000e+00
6.250000e+00
6.250000e+00
6.250000e+00
6.250000e+00
6.250000e+00
6.250000e+00
6.250000e+00
6.250000e+00
6.250000e+00
6.250000e+00
6.250000e+00
1.250000e+01
1.250000e+01
1.250000e+01
1.250000e+01
1.250000e+01
1.250000e+01
1.250000e+01
1.250000e+01
1.250000e+01
1.250000e+01
1.250000e+01
1.250000e+01
1.250000e+01
1.250000e+01
1.250000e+01
1.250000e+01
1.250000e+01
1.250000e+01
1.250000e+01
1.250000e+01
1.250000e+01
1.250000e+01
1.250000e+01
1.250000e+01
1.250000e+01
1.250000e+01
1.250000e+01
1.250000e+01
1.250000e+01
1.250000e+01
1.250000e+01
1.250000e+01
1.250000e+01
1.875000e+01
1.875000e+01
1.875000e+01
1.875000e+01
1.875000e+01
1.875000e+01
1.875000e+01
1.875000e+01
1.875000e+01
1.875000e+01
1.875000e+01
1.875000e+01
1.875000e+01
1.875000e+01
1.875000e+01
1.875000e+01
1.875000e+01
1.875000e+01
1.875000e+01
1.875000e+01
1.875000e+01
1.875000e+01
1.875000e+01
1.875000e+01
1.875000e+01
1.875000e+01
1.875000e+01
1.875000e+01
1.875000e+01
1.875000e+01
1.875000e+01
1.875000e+01
1.875000e+01
2.500000e+01
2.500000e+01
2.500000e+01
2.500000e+01
2.500000e+01
2.500000e+01
2.500000e+01
2.500000e+01
2.500000e+01
2.500000e+01
2.500000e+01
2.500000e+01
2.500000e+01
2.500000e+01
2.500000e+01
2.500000e+01
2.500000e+01
2.500000e+01
2.500000e+01
2.500000e+01
2.500000e+01
2.500000e+01
2.500000e+01
2.500000e+01
2.500000e+01
2.500000e+01
2.500000e+01
2.500000e+01
2.500000e+01
2.500000e+01
2.500000e+01
2.500000e+01
2.500000e+01
3.125000e+01
3.125000e+01
3.125000e+01
3.125000e+01
3.125000e+01
3.125000e+01
3.125000e+01
3.125000e+01
3.125000e+01
3.125000e+01
3.125000e+01
3.125000e+01
3.125000e+01
3.125000e+01
3.125000e+01
3.125000e+01
3.125000e+01
3.125000e+01
3.125000e+01
3.125000e+01
3.125000e+01
3.125000e+01
3.125000e+01
3.125000e+01
3.125000e+01
3.125000e+01
3.125000e+01
3.125000e+01
3.125000e+01
3.125000e+01
3.125000e+01
3.125000e+01
3.125000e+01
3.750000e+01
3.750000e+01
3.750000e+01
3.750000e+01
3.750000e+01
3.750000e+01
3.750000e+01
3.750000e+01
3.750000e+01
3.750000e+01
3.750000e+01
3.750000e+01
3.750000e+01
3.750000e+01
3.750000e+01
3.750000e+01
3.750000e+01
3.750000e+01
3.750000e+01
3.750000e+01
3.750000e+01
3.750000e+01
3.750000e+01
3.750000e+01
3.750000e+01
3.750000e+01
3.750000e+01
3.750000e+01
3.750000e+01
3.750000e+01
3.750000e+01
3.750000e+01
3.750000e+01
4.375000e+01
4.375000e+01
4.375000e+01
4.375000e+01
4.375000e+01
4.375000e+01
4.375000e+01
4.375000e+01
4.375000e+01
4.375000e+01
4.375000e+01
4.375000e+01
4.375000e+01
4.375000e+01
4.375000e+01
4.375000e+01
4.375000e+01
4.375000e+01
4.375000e+01
4.375000e+01
4.375000e+01
4.375000e+01
4.375000e+01
4.375000e+01
4.375000e+01
4.375000e+01
4.375000e+01
4.375000e+01
4.375000e+01
4.375000e+01
4.375000e+01
4.375000e+01
4.375000e+01
5.000000e+01
5.000000e+01
5.000000e+01
5.000000e+01
5.000000e+01
5.000000e+01
5.000000e+01
5.000000e+01
5.000000e+01
5.000000e+01
5.000000e+01
5.000000e+01
5.000000e+01
5.000000e+01
5.000000e+01
5.000000e+01
5.000000e+01
5.000000e+01
5.000000e+01
5.000000e+01
5.000000e+01
5.000000e+01
5.000000e+01
5.000000e+01
5.000000e+01
5.000000e+01
5.000000e+01
5.000000e+01
5.000000e+01
5.000000e+01
5.000000e+01
5.000000e+01
5.000000e+01
5.625000e+01
5.625000e+01
5.625000e+01
5.625000e+01
5.625000e+01
5.625000e+01
5.625000e+01
5.625000e+01
5.625000e+01
5.625000e+01
5.625000e+01
5.625000e+01
5.625000e+01
5.625000e+01
5.625000e+01
5.625000e+01
5.625000e+01
5.625000e+01
5.625000e+01
5.625000e+01
5.625000e+01
5.625000e+01
5.625000e+01
5.625000e+01
5.625000e+01
5.625000e+01
5.625000e+01
5.625000e+01
5.625000e+01
5.625000e+01
5.625000e+01
5.625000e+01
5.625000e+01
6.250000e+01
6.250000e+01
6.250000e+01
6.250000e+01
6.250000e+01
6.250000e+01
6.250000e+01
6.250000e+01
6.250000e+01
6.250000e+01
6.250000e+01
6.250000e+01
6.250000e+01
6.250000e+01
6.250000e+01
6.250000e+01
6.250000e+01
6.250000e+01
6.250000e+01
6.250000e+01
6.250000e+01
6.250000e+01
6.250000e+01
6.250000e+01
6.250000e+01
6.250000e+01
6.250000e+01
6.250000e+01
6.250000e+01
6.250000e+01
6.250000e+01
6.250000e+01
6.250000e+01
6.875000e+01
6.875000e+01
6.875000e+01
6.875000e+01
6.875000e+01
6.875000e+01
6.875000e+01
6.875000e+01
6.875000e+01
6.875000e+01
6.875000e+01
6.875000e+01
6.875000e+01
6.875000e+01
6.875000e+01
6.875000e+01
6.875000e+01
6.875000e+01
6.875000e+01
6.875000e+01
6.875000e+01
6.875000e+01
6.875000e+01
6.875000e+01
6.875000e+01
6.875000e+01
6.875000e+01
6.875000e+01
6.875000e+01
6.875000e+01
6.875000e+01
6.875000e+01
6.875000e+01
7.500000e+01
7.500000e+01
7.500000e+01
7.500000e+01
7.500000e+01
7.500000e+01
7.500000e+01
7.500000e+01
7.500000e+01
7.500000e+01
7.500000e+01
7.500000e+01
7.500000e+01
7.500000e+01
7.500000e+01
7.500000e+01
7.500000e+01
7.500000e+01
7.500000e+01
7.500000e+01
7.500000e+01
7.500000e+01
7.500000e+01
7.500000e+01
7.500000e+01
7.500000e+01
7.500000e+01
7.500000e+01
7.500000e+01
7.500000e+01
7.500000e+01
7.500000e+01
7.500000e+01
8.125000e+01
8.125000e+01
8.125000e+01
8.125000e+01
8.125000e+01
8.125000e+01
8.125000e+01
8.125000e+01
8.125000e+01
8.125000e+01
8.125000e+01
8.125000e+01
8.125000e+01
8.125000e+01
8.125000e+01
8.125000e+01
8.125000e+01
8.125000e+01
8.125000e+01
8.125000e+01
8.125000e+01
8.125000e+01
8.125000e+01
8.125000e+01
8.125000e+01
8.125000e+01
8.125000e+01
8.125000e+01
8.125000e+01
8.125000e+01
8.125000e+01
8.125000e+01
8.125000e+01
8.750000e+01
8.750000e+01
8.750000e+01
8.750000e+01
8.750000e+01
8.750000e+01
8.750000e+01
8.750000e+01
8.750000e+01
8.750000e+01
8.750000e+01
8.750000e+01
8.750000e+01
8.750000e+01
8.750000e+01
8.750000e+01
8.750000e+01
8.750000e+01
8.750000e+01
8.750000e+01
8.750000e+01
8.750000e+01
8.750000e+01
8.750000e+01
8.750000e+01
8.750000e+01
8.750000e+01
8.750000e+01
8.750000e+01
8.750000e+01
8.750000e+01
8.750000e+01
8.750000e+01
9.375000e+01
9.375000e+01
9.375000e+01
9.375000e+01
9.375000e+01
9.375000e+01
9.375000e+01
9.375000e+01
9.375000e+01
9.375000e+01
9.375000e+01
9.375000e+01
9.375000e+01
9.375000e+01
9.375000e+01
9.375000e+01
9.375000e+01
9.375000e+01
9.375000e+01
9.375000e+01
9.375000e+01
9.375000e+01
9.375000e+01
9.375000e+01
9.375000e+01
9.375000e+01
9.375000e+01
9.375000e+01
9.375000e+01
9.375000e+01
9.375000e+01
9.375000e+01
9.375000e+01
1.000000e+02
1.000000e+02
1.000000e+02
1.000000e+02
1.000000e+02
1.000000e+02
1.000000e+02
1.000000e+02
1.000000e+02
1.000000e+02
1.000000e+02
1.000000e+02
1.000000e+02
1.000000e+02
1.000000e+02
1.000000e+02
1.000000e+02
1.000000e+02
1.000000e+02
1.000000e+02
1.000000e+02
1.000000e+02
1.000000e+02
1.000000e+02
1.000000e+02
1.000000e+02
1.000000e+02
1.000000e+02
1.000000e+02
1.000000e+02
1.000000e+02
1.000000e+02
1.000000e+02
0.000000e+00
-4.998053e-02
-9.068302e-02
-1.283881e-01
-1.645745e-01
-1.995178e-01
-2.332885e-01
-2.658833e-01
-2.972819e-01
-3.274613e-01
-3.564027e-01
-3.840930e-01
-4.105254e-01
-4.356994e-01
-4.596209e-01
-4.823025e-01
-5.037645e-01
-5.240364e-01
-5.431590e-01
-5.611873e-01
-5.781946e-01
-5.942777e-01
-6.095650e-01
-6.242263e-01
-6.384893e-01
-6.526636e-01
-6.671790e-01
-6.826484e-01
-6.999711e-01
-7.204704e-01
-7.458630e-01
-7.761239e-01
-7.945917e-01
0.000000e+00
-3.351060e-02
-6.972239e-02
-1.038653e-01
-1.363169e-01
-1.673861e-01
-1.972370e-01
-2.259416e-01
-2.535284e-01
-2.800067e-01
-3.053783e-01
-3.296431e-01
-3.528024e-01
-3.748599e-01
-3.958228e-01
-4.157030e-01
-4.345172e-01
-4.522888e-01
-4.690484e-01
-4.848362e-01
-4.997031e-01
-5.137135e-01
-5.269470e-01
-5.395015e-01
-5.514935e-01
-5.630573e-01
-5.743347e-01
-5.854422e-01
-5.963791e-01
-6.067895e-01
-6.154643e-01
-6.205360e-01
-6.275966e-01
0.000000e+00
-2.658068e-02
-5.472273e-02
-8.337581e-02
-1.112178e-01
-1.380337e-01
-1.638064e-01
-1.885605e-01
-2.123177e-01
-2.350930e-01
-2.568961e-01
-2.777338e-01
-2.976118e-01
-3.165361e-01
-3.345136e-01
-3.515531e-01
-3.676656e-01
-3.828651e-01
-3.971685e-01
-4.105964e-01
-4.231721e-01
-4.349212e-01
-4.458686e-01
-4.560339e-01
-4.654209e-01
-4.739996e-01
-4.816718e-01
-4.882118e-01
-4.931773e-01
-4.958510e-01
-4.956166e-01
-4.941152e-01
-5.023601e-01
0.000000e+00
-2.108941e-02
-4.334355e-02
-6.620691e-02
-8.901670e-02
-1.112740e-01
-1.327882e-01
-1.534909e-01
-1.733636e-01
-1.924056e-01
-2.106216e-01
-2.280179e-01
-2.446003e-01
-2.603739e-01
-2.753435e-01
-2.895133e-01
-3.028871e-01
-3.154684e-01
-3.272598e-01
-3.382619e-01
-3.484719e-01
-3.578805e-01
-3.664668e-01
-3.741909e-01
-3.809814e-01
-3.867185e-01
-3.912122e-01
-3.941880e-01
-3.953243e-01
-3.944808e-01
-3.924322e-01
-3.923099e-01
-4.001652e-01
0.000000e+00
-1.636833e-02
-3.351676e-02
-5.121299e-02
-6.905300e-02
-8.667420e-02
-1.038335e-01
-1.204077e-01
-1.363409e-01
-1.516116e-01
-1.662142e-01
-1.801493e-01
-1.934197e-01
-2.060276e-01
-2.179737e-01
-2.292570e-01
-2.398740e-01
-2.498184e-01
-2.590797e-01
-2.676426e-01
-2.754839e-01
-2.825703e-01
-2.888531e-01
-2.942635e-01
-2.987057e-01
-3.020541e-01
-3.041611e-01
-3.049003e-01
-3.042939e-01
-3.028102e-01
-3.018476e-01
-3.040705e-01
-3.107714e-01
0.000000e+00
-1.202977e-02
-2.457495e-02
-3.752316e-02
-5.065068e-02
-6.371247e-02
-7.651398e-02
-8.892877e-02
-1.008874e-01
-1.123562e-01
-1.233208e-01
-1.337763e-01
-1.437208e-01
-1.531527e-01
-1.620683e-01
-1.704612e-01
-1.783216e-01
-1.856350e-01
-1.923817e-01
-1.985352e-01
-2.040610e-01
-2.089142e-01
-2.130381e-01
-2.163635e-01
-2.188115e-01
-2.203052e-01
-2.208007e-01
-2.203560e-01
-2.192599e-01
-2.182170e-01
-2.184709e-01
-2.213047e-01
-2.268492e-01
0.000000e+00
-7.917037e-03
-1.614723e-02
-2.463851e-02
-3.326979e-02
-4.189578e-02
-5.038641e-02
-5.864684e-02
-6.661773e-02
-7.426634e-02
-8.157613e-02
-8.853877e-02
-9.514893e-02
-1.014011e-01
-1.072878e-01
-1.127981e-01
-1.179173e-01
-1.226257e-01
-1.268980e-01
-1.307027e-01
-1.340016e-01
-1.367500e-01
-1.388979e-01
-1.403947e-01
-1.411989e-01
-1.412987e-01
-1.407488e-01
-1.397313e-01
-1.386333e-01
-1.381011e-01
-1.389315e-01
-1.416904e-01
-1.461661e-01
0.000000e+00
-3.932390e-03
-8.013447e-03
-1.222220e-02
-1.650549e-02
-2.079564e-02
-2.502842e-02
-2.915353e-02
-3.313700e-02
-3.695807e-02
-4.060446e-02
-4.406803e-02
-4.734168e-02
-5.041730e-02
-5.328441e-02
-5.592924e-02
-5.833405e-02
-6.047664e-02
-6.233007e-02
-6.386277e-02
-6.503933e-02
-6.582248e-02
-6.617725e-02
-6.607857e-02
-6.552452e-02
-6.455737e-02
-6.329416e-02
-6.196316e-02
-6.092991e-02
-6.067108e-02
-6.164534e-02
-6.405213e-02
-6.760348e-02
0.000000e+00
-6.344576e-06
-1.375684e-05
-2.182618e-05
-3.012813e-05
-3.809040e-05
-4.485051e-05
-4.909780e-05
-4.888880e-05
-4.142499e-05
-2.278449e-05
1.239703e-05
7.129568e-05
1.633109e-04
3.004996e-04
4.979944e-04
7.743431e-04
1.151662e-03
1.655439e-03
2.313733e-03
3.155393e-03
4.206750e-03
5.486041e-03
6.994655e-03
8.704331e-03
1.054018e-02
1.236163e-02
1.394855e-02
1.500788e-02
1.522271e-02
1.435772e-02
1.239878e-02
9.655195e-03
0.000000e+00
3.920440e-03
7.987483e-03
1.218092e-02
1.644837e-02
2.072323e-02
2.494284e-02
2.905935e-02
3.304243e-02
3.687654e-02
4.055674e-02
4.408498e-02
4.746764e-02
5.071432e-02
5.383728e-02
5.685137e-02
5.977398e-02
6.262497e-02
6.542607e-02
6.819966e-02
7.096648e-02
7.374175e-02
7.652943e-02
7.931405e-02
8.205034e-02
8.465195e-02
8.698271e-02
8.885733e-02
9.006184e-02
9.040285e-02
8.978525e-02
8.829714e-02
8.626086e-02
0.000000e+00
7.907274e-03
1.612587e-02
2.460431e-02
3.322210e-02
4.183476e-02
5.031345e-02
5.856526e-02
6.653376e-02
7.419038e-02
8.152453e-02
8.853603e-02
9.523057e-02
1.016172e-01
1.077070e-01
1.135131e-01
1.190499e-01
1.243333e-01
1.293796e-01
1.342046e-01
1.388206e-01
1.432335e-01
1.474374e-01
1.514080e-01
1.550954e-01
1.584177e-01
1.612596e-01
1.634791e-01
1.649319e-01
1.655127e-01
1.652141e-01
1.641844e-01
1.627632e-01
0.000000e+00
1.202354e-02
2.456107e-02
3.750057e-02
5.061860e-02
6.367060e-02
7.646275e-02
8.886979e-02
1.008241e-01
1.122946e-01
1.232708e-01
1.337529e-01
1.437463e-01
1.532588e-01
1.622994e-01
1.708775e-01
1.790034e-01
1.866873e-01
1.939391e-01
2.007672e-01
2.071763e-01
2.131650e-01
2.187217e-01
2.238201e-01
2.284152e-01
2.324402e-01
2.358083e-01
2.384224e-01
2.401951e-01
2.410834e-01
2.411334e-01
2.405293e-01
2.396312e-01
0.000000e+00
1.636678e-02
3.351289e-02
5.120607e-02
6.904229e-02
8.665911e-02
1.038136e-01
1.203830e-01
1.363119e-01
1.515796e-01
1.661816e-01
1.801204e-01
1.934010e-01
2.060291e-01
2.180098e-01
2.293482e-01
2.400484e-01
2.501139e-01
2.595473e-01
2.683489e-01
2.765162e-01
2.840415e-01
2.909104e-01
2.970992e-01
3.025730e-01
3.072861e-01
3.111843e-01
3.142140e-01
3.163373e-01
3.175571e-01
3.179528e-01
3.177260e-01
3.172528e-01
0.000000e+00
2.109333e-02
4.335152e-02
6.621876e-02
8.903209e-02
1.112925e-01
1.328091e-01
1.535133e-01
1.733857e-01
1.924247e-01
2.106336e-01
2.280167e-01
2.445772e-01
2.603170e-01
2.752362e-01
2.893339e-01
3.026071e-01
3.150517e-01
3.266615e-01
3.374283e-01
3.473411e-01
3.563862e-01
3.645463e-01
3.718010e-01
3.781270e-01
3.835007e-01
3.879019e-01
3.913207e-01
3.937674e-01
3.952880e-01
3.959874e-01
3.960708e-01
3.959138e-01
0.000000e+00
2.659025e-02
5.474314e-02
8.340778e-02
1.112619e-01
1.380905e-01
1.638760e-01
1.886421e-01
2.124089e-01
2.351892e-01
2.569890e-01
2.778101e-01
2.976511e-01
3.165081e-01
3.343754e-01
3.512448e-01
3.671059e-01
3.819458e-01
3.957489e-01
4.084965e-01
4.201680e-01
4.307406e-01
4.401912e-01
4.484987e-01
4.556475e-01
4.616320e-01
4.664630e-01
4.701746e-01
4.728309e-01
4.745323e-01
4.754228e-01
4.757128e-01
4.757474e-01
0.000000e+00
3.352495e-02
6.975376e-02
1.039158e-01
1.363889e-01
1.674821e-01
1.973592e-01
2.260911e-01
2.537046e-01
2.802060e-01
3.055926e-01
3.298571e-01
3.529905e-01
3.749822e-01
3.958196e-01
4.154881e-01
4.339695e-01
4.512423e-01
4.672803e-01
4.820535e-01
4.955276e-01
5.076665e-01
5.184342e-01
5.277999e-01
5.357442e-01
5.422675e-01
5.474007e-01
5.512159e-01
5.538367e-01
5.554427e-01
5.562631e-01
5.565606e-01
5.566334e-01
0.000000e+00
4.999625e-02
9.071970e-02
1.284510e-01
1.646685e-01
1.996482e-01
2.334605e-01
2.661021e-01
2.975513e-01
3.277831e-01
3.567740e-01
3.845041e-01
4.109554e-01
4.361110e-01
4.599534e-01
4.824627e-01
5.036149e-01
5.233807e-01
5.417238e-01
5.586007e-01
5.739608e-01
5.877474e-01
5.999014e-01
6.103670e-01
6.191011e-01
6.260860e-01
6.313466e-01
6.349706e-01
6.371306e-01
6.381039e-01
6.382808e-01
6.381343e-01
6.380518e-01
0.000000e+00
-3.088702e-02
-5.390452e-02
-7.902217e-02
-1.069922e-01
-1.385871e-01
-1.740265e-01
-2.133719e-01
-2.565843e-01
-3.035709e-01
-3.542072e-01
-4.083500e-01
-4.658447e-01
-5.265305e-01
-5.902432e-01
-6.568177e-01
-7.260895e-01
-7.978973e-01
-8.720852e-01
-9.485061e-01
-1.027027e+00
-1.107536e+00
-1.189954e+00
-1.274248e+00
-1.360460e+00
-1.448751e+00
-1.539471e+00
-1.633305e+00
-1.731562e+00
-1.836837e+00
-1.954727e+00
-2.098433e+00
-2.296967e+00
0.000000e+00
-1.919510e-02
-4.328836e-02
-6.857545e-02
-9.693530e-02
-1.288735e-01
-1.646572e-01
-2.043470e-01
-2.479072e-01
-2.952450e-01
-3.462352e-01
-4.007334e-01
-4.585838e-01
-5.196242e-01
-5.836889e-01
-6.506110e-01
-7.202242e-01
-7.923646e-01
-8.668733e-01
-9.435996e-01
-1.022406e+00
-1.103175e+00
-1.185819e+00
-1.270297e+00
-1.356640e+00
-1.444992e+00
-1.535687e+00
-1.629389e+00
-1.727378e+00
-1.832207e+00
-1.949185e+00
-2.089693e+00
-2.275175e+00
0.000000e+00
-1.409991e-02
-3.489887e-02
-5.984100e-02
-8.825040e-02
-1.204239e-01
-1.564901e-01
-1.964824e-01
-2.403528e-01
-2.880042e-01
-3.393093e-01
-3.941224e-01
-4.522872e-01
-5.136408e-01
-5.780169e-01
-6.452479e-01
-7.151668e-01
-7.876088e-01
-8.624138e-01
-9.394301e-01
-1.018519e+00
-1.099561e+00
-1.182470e+00
-1.267205e+00
-1.353801e+00
-1.442411e+00
-1.533383e+00
-1.627396e+00
-1.725718e+00
-1.830645e+00
-1.946101e+00
-2.076724e+00
-2.221623e+00
0.000000e+00
-1.129061e-02
-2.955231e-02
-5.316440e-02
-8.120869e-02
-1.133722e-01
-1.495926e-01
-1.898090e-01
-2.339347e-01
-2.818548e-01
-3.334340e-01
-3.885231e-01
-4.469641e-01
-5.085940e-01
-5.732467e-01
-6.407551e-01
-7.109526e-01
-7.836750e-01
-8.587632e-01
-9.360665e-01
-1.015448e+00
-1.096792e+00
-1.180016e+00
-1.265085e+00
-1.352043e+00
-1.441050e+00
-1.532450e+00
-1.626870e+00
-1.725347e+00
-1.829394e+00
-1.940460e+00
-2.057600e+00
-2.166645e+00
0.000000e+00
-9.553720e-03
-2.605585e-02
-4.842322e-02
-7.582822e-02
-1.077808e-01
-1.440149e-01
-1.843619e-01
-2.286762e-01
-2.768127e-01
-3.286212e-01
-3.839453e-01
-4.426245e-01
-5.044951e-01
-5.693917e-01
-6.371484e-01
-7.076002e-01
-7.805847e-01
-8.559451e-01
-9.335333e-01
-1.013215e+00
-1.094879e+00
-1.178445e+00
-1.263881e+00
-1.351228e+00
-1.440626e+00
-1.532356e+00
-1.626868e+00
-1.724760e+00
-1.826511e+00
-1.931636e+00
-2.036276e+00
-2.131242e+00
0.000000e+00
-8.448519e-03
-2.376173e-02
-4.516055e-02
-7.194865e-02
-1.036020e-01
-1.397573e-01
-1.801559e-01
-2.245943e-01
-2.728930e-01
-3.248831e-01
-3.803990e-01
-4.392764e-01
-5.013507e-01
-5.664574e-01
-6.344322e-01
-7.051122e-01
-7.783376e-01
-8.539539e-01
-9.318155e-01
-1.011790e+00
-1.093767e+00
-1.177663e+00
-1.263438e+00
-1.351107e+00
-1.440756e+00
-1.532540e+00
-1.626660e+00
-1.723224e+00
-1.821906e+00
-1.921202e+00
-2.017566e+00
-2.105642e+00
0.000000e+00
-7.761649e-03
-2.231128e-02
-4.303974e-02
-6.934962e-02
-1.007302e-01
-1.367781e-01
-1.771818e-01
-2.216935e-01
-2.701045e-01
-3.222285e-01
-3.778910e-01
-4.369239e-01
-4.991619e-01
-5.644414e-01
-6.325999e-01
-7.034769e-01
-7.769148e-01
-8.527607e-01
-9.308700e-01
-1.011109e+00
-1.093363e+00
-1.177538e+00
-1.263570e+00
-1.351431e+00
-1.441120e+00
-1.532648e+00
-1.625961e+00
-1.720789e+00
-1.816362e+00
-1.911025e+00
-2.002049e+00
-2.086091e+00
0.000000e+00
-7.384204e-03
-2.150646e-02
-4.184462e-02
-6.785930e-02
-9.905738e-02
-1.350226e-01
-1.754174e-01
-2.199687e-01
-2.684492e-01
-3.206608e-01
-3.764233e-01
-4.355661e-01
-4.979238e-01
-5.633342e-01
-6.316365e-01
-7.026720e-01
-7.762846e-01
-8.523220e-01
-9.306379e-01
-1.011095e+00
-1.093566e+00
-1.177939e+00
-1.264117e+00
-1.352013e+00
-1.441537e+00
-1.532558e+00
-1.624826e+00
-1.717850e+00
-1.810715e+00
-1.901929e+00
-1.989439e+00
-2.070963e+00
0.000000e+00
-7.262592e-03
-2.124680e-02
-4.145727e-02
-6.737359e-02
-9.850990e-02
-1.344475e-01
-1.748417e-01
-2.194118e-01
-2.679247e-01
-3.201792e-01
-3.759936e-01
-4.351976e-01
-4.976270e-01
-5.631210e-01
-6.315206e-01
-7.026685e-01
-7.764088e-01
-8.525882e-01
-9.310565e-01
-1.011668e+00
-1.094281e+00
-1.178758e+00
-1.264964e+00
-1.352753e+00
-1.441949e+00
-1.532311e+00
-1.623467e+00
-1.714827e+00
-1.805492e+00
-1.894199e+00
-1.979382e+00
-2.059370e+00
0.000000e+00
-7.380686e-03
-2.150158e-02
-4.184042e-02
-6.785803e-02
-9.906184e-02
-1.350365e-01
-1.754456e-01
-2.200177e-01
-2.685274e-01
-3.207792e-01
-3.765956e-01
-4.358093e-01
-4.982583e-01
-5.637839e-01
-6.322284e-01
-7.034352e-01
-7.772479e-01
-8.535107e-01
-9.320674e-01
-1.012762e+00
-1.095435e+00
-1.179923e+00
-1.266051e+00
-1.353618e+00
-1.442382e+00
-1.532026e+00
-1.622111e+00
-1.712032e+00
-1.800970e+00
-1.887884e+00
-1.971563e+00
-2.050729e+00
0.000000e+00
-7.754898e-03
-2.230192e-02
-4.303164e-02
-6.934708e-02
-1.007386e-01
-1.368045e-01
-1.772355e-01
-2.217870e-01
-2.702541e-01
-3.224551e-01
-3.782210e-01
-4.373899e-01
-4.998033e-01
-5.653041e-01
-6.337361e-01
-7.049425e-01
-7.787658e-01
-8.550464e-01
-9.336218e-01
-1.014324e+00
-1.096976e+00
-1.181390e+00
-1.267352e+00
-1.354621e+00
-1.442903e+00
-1.531832e+00
-1.620949e+00
-1.709670e+00
-1.797278e+00
-1.882932e+00
-1.965698e+00
-2.044596e+00
0.000000e+00
-8.439136e-03
-2.374871e-02
-4.514923e-02
-7.194498e-02
-1.036134e-01
-1.397937e-01
-1.802305e-01
-2.247245e-01
-2.731016e-01
-3.251994e-01
-3.808600e-01
-4.399278e-01
-5.022477e-01
-5.676646e-01
-6.360229e-01
-7.071654e-01
-7.809328e-01
-8.571619e-01
-9.356831e-01
-1.016318e+00
-1.098873e+00
-1.183138e+00
-1.268871e+00
-1.355795e+00
-1.443583e+00
-1.531845e+00
-1.620116e+00
-1.707856e+00
-1.794451e+00
-1.879235e+00
-1.961515e+00
-2.040575e+00
0.000000e+00
-9.542667e-03
-2.604052e-02
-4.840988e-02
-7.582397e-02
-1.077947e-01
-1.440589e-01
-1.844520e-01
-2.288334e-01
-2.770647e-01
-3.290034e-01
-3.845026e-01
-4.434123e-01
-5.055802e-01
-5.708525e-01
-6.390738e-01
-7.100864e-01
-7.837289e-01
-8.598346e-01
-9.382280e-01
-1.018721e+00
-1.101109e+00
-1.185162e+00
-1.270618e+00
-1.357175e+00
-1.444485e+00
-1.532143e+00
-1.619696e+00
-1.706643e+00
-1.792466e+00
-1.876655e+00
-1.958737e+00
-2.038274e+00
0.000000e+00
-1.127925e-02
-2.953657e-02
-5.315084e-02
-8.120505e-02
-1.133885e-01
-1.496422e-01
-1.899095e-01
-2.341095e-01
-2.821345e-01
-3.338577e-01
-3.891403e-01
-4.478358e-01
-5.097939e-01
-5.748612e-01
-6.428820e-01
-7.136977e-01
-7.871453e-01
-8.630550e-01
-9.412471e-01
-1.021527e+00
-1.103680e+00
-1.187464e+00
-1.272604e+00
-1.358784e+00
-1.445641e+00
-1.532767e+00
-1.619719e+00
-1.706032e+00
-1.791263e+00
-1.875032e+00
-1.957079e+00
-2.037271e+00
0.000000e+00
-1.409001e-02
-3.488509e-02
-5.982956e-02
-8.824931e-02
-1.204437e-01
-1.565448e-01
-1.965905e-01
-2.405385e-01
-2.882992e-01
-3.397541e-01
-3.947680e-01
-4.531964e-01
-5.148889e-01
-5.796923e-01
-6.474502e-01
-7.180030e-01
-7.911863e-01
-8.668282e-01
-9.447457e-01
-1.024740e+00
-1.106592e+00
-1.190052e+00
-1.274838e+00
-1.360626e+00
-1.447051e+00
-1.533706e+00
-1.620156e+00
-1.705963e+00
-1.790736e+00
-1.874191e+00
-1.956245e+00
-2.037096e+00
0.000000e+00
-1.918874e-02
-4.327899e-02
-6.856871e-02
-9.693946e-02
-1.288993e-01
-1.647189e-01
-2.044630e-01
-2.481018e-01
-2.955495e-01
-3.466896e-01
-4.013877e-01
-4.594991e-01
-5.208736e-01
-5.853571e-01
-6.527926e-01
-7.230194e-01
-7.958718e-01
-8.711760e-01
-9.487472e-01
-1.028385e+00
-1.109865e+00
-1.192939e+00
-1.277322e+00
-1.362690e+00
-1.448680e+00
-1.534892e+00
-1.620904e+00
-1.706297e+00
-1.790711e+00
-1.873917e+00
-1.955944e+00
-2.037245e+00
0.000000e+00
-3.088611e-02
-5.390139e-02
-7.902277e-02
-1.070048e-01
-1.386226e-01
-1.740990e-01
-2.134998e-01
-2.567912e-01
-3.038874e-01
-3.546717e-01
-4.090101e-01
-4.667581e-01
-5.277651e-01
-5.918768e-01
-6.589350e-01
-7.287779e-01
-8.012380e-01
-8.761399e-01
-9.532967e-01
-1.032506e+00
-1.113543e+00
-1.196158e+00