TITLE = "Solution"
VARIABLES = x, y, u, v, psiu, psiv, t, stress
ZONE T="structure" N=561 E=512 F=FEBLOCK ET=QUADRILATERAL VARLOCATION=([7,8]=cellcentered)
0.000000e+00
6.250000e+00
1.250000e+01
1.875000e+01
2.500000e+01
3.125000e+01
3.750000e+01
4.375000e+01
5.000000e+01
5.625000e+01
6.250000e+01
6.875000e+01
7.500000e+01
8.125000e+01
8.750000e+01
9.375000e+01
1.000000e+02
1.062500e+02
1.125000e+02
1.187500e+02
1.250000e+02
1.312500e+02
1.375000e+02
1.437500e+02
1.500000e+02
1.562500e+02
1.625000e+02
1.687500e+02
1.750000e+02
1.812500e+02
1.875000e+02
1.937500e+02
2.000000e+02
0.000000e+00
6.250000e+00
1.250000e+01
1.875000e+01
2.500000e+01
3.125000e+01
3.750000e+01
4.375000e+01
5.000000e+01
5.625000e+01
6.250000e+01
6.875000e+01
7.500000e+01
8.125000e+01
8.750000e+01
9.375000e+01
1.000000e+02
1.062500e+02
1.125000e+02
1.187500e+02
1.250000e+02
1.312500e+02
1.375000e+02
1.437500e+02
1.500000e+02
1.562500e+02
1.625000e+02
1.687500e+02
1.750000e+02
1.812500e+02
1.875000e+02
1.937500e+02
2.000000e+02
0.000000e+00
6.250000e+00
1.250000e+01
1.875000e+01
2.500000e+01
3.125000e+01
3.750000e+01
4.375000e+01
5.000000e+01
5.625000e+01
6.250000e+01
6.875000e+01
7.500000e+01
8.125000e+01
8.750000e+01
9.375000e+01
1.000000e+02
1.062500e+02
1.125000e+02
1.187500e+02
1.250000e+02
1.312500e+02
1.375000e+02
1.437500e+02
1.500000e+02
1.562500e+02
1.625000e+02
1.687500e+02
1.750000e+02
1.812500e+02
1.875000e+02
1.937500e+02
2.000000e+02
0.000000e+00
6.250000e+00
1.250000e+01
1.875000e+01
2.500000e+01
3.125000e+01
3.750000e+01
4.375000e+01
5.000000e+01
5.625000e+01
6.250000e+01
6.875000e+01
7.500000e+01
8.125000e+01
8.750000e+01
9.375000e+01
1.000000e+02
1.062500e+02
1.125000e+02
1.187500e+02
1.250000e+02
1.312500e+02
1.375000e+02
1.437500e+02
1.500000e+02
1.562500e+02
1.625000e+02
1.687500e+02
1.750000e+02
1.812500e+02
1.875000e+02
1.937500e+02
2.000000e+02
0.000000e+00
6.250000e+00
1.250000e+01
1.875000e+01
2.500000e+01
3.125000e+01
3.750000e+01
4.375000e+01
5.000000e+01
5.625000e+01
6.250000e+01
6.875000e+01
7.500000e+01
8.125000e+01
8.750000e+01
9.375000e+01
1.000000e+02
1.062500e+02
1.125000e+02
1.187500e+02
1.250000e+02
1.312500e+02
1.375000e+02
1.437500e+02
1.500000e+02
1.562500e+02
1.625000e+02
1.687500e+02
1.750000e+02
1.812500e+02
1.875000e+02
1.937500e+02
2.000000e+02
0.000000e+00
6.250000e+00
1.250000e+01
1.875000e+01
2.500000e+01
3.125000e+01
3.750000e+01
4.375000e+01
5.000000e+01
5.625000e+01
6.250000e+01
6.875000e+01
7.500000e+01
8.125000e+01
8.750000e+01
9.375000e+01
1.000000e+02
1.062500e+02
1.125000e+02
1.187500e+02
1.250000e+02
1.312500e+02
1.375000e+02
1.437500e+02
1.500000e+02
1.562500e+02
1.625000e+02
1.687500e+02
1.750000e+02
1.812500e+02
1.875000e+02
1.937500e+02
2.000000e+02
0.000000e+00
6.250000e+00
1.250000e+01
1.875000e+01
2.500000e+01
3.125000e+01
3.750000e+01
4.375000e+01
5.000000e+01
5.625000e+01
6.250000e+01
6.875000e+01
7.500000e+01
8.125000e+01
8.750000e+01
9.375000e+01
1.000000e+02
1.062500e+02
1.125000e+02
1.187500e+02
1.250000e+02
1.312500e+02
1.375000e+02
1.437500e+02
1.500000e+02
1.562500e+02
1.625000e+02
1.687500e+02
1.750000e+02
1.812500e+02
1.875000e+02
1.937500e+02
2.000000e+02
0.000000e+00
6.250000e+00
1.250000e+01
1.875000e+01
2.500000e+01
3.125000e+01
3.750000e+01
4.375000e+01
5.000000e+01
5.625000e+01
6.250000e+01
6.875000e+01
7.500000e+01
8.125000e+01
8.750000e+01
9.375000e+01
1.000000e+02
1.062500e+02
1.125000e+02
1.187500e+02
1.250000e+02
1.312500e+02
1.375000e+02
1.437500e+02
1.500000e+02
1.562500e+02
1.625000e+02
1.687500e+02
1.750000e+02
1.812500e+02
1.875000e+02
1.937500e+02
2.000000e+02
0.000000e+00
6.250000e+00
1.250000e+01
1.875000e+01
2.500000e+01
3.125000e+01
3.750000e+01
4.375000e+01
5.000000e+01
5.625000e+01
6.250000e+01
6.875000e+01
7.500000e+01
8.125000e+01
8.750000e+01
9.375000e+01
1.000000e+02
1.062500e+02
1.125000e+02
1.187500e+02
1.250000e+02
1.312500e+02
1.375000e+02
1.437500e+02
1.500000e+02
1.562500e+02
1.625000e+02
1.687500e+02
1.750000e+02
1.812500e+02
1.875000e+02
1.937500e+02
2.000000e+02
0.000000e+00
6.250000e+00
1.250000e+01
1.875000e+01
2.500000e+01
3.125000e+01
3.750000e+01
4.375000e+01
5.000000e+01
5.625000e+01
6.250000e+01
6.875000e+01
7.500000e+01
8.125000e+01
8.750000e+01
9.375000e+01
1.000000e+02
1.062500e+02
1.125000e+02
1.187500e+02
1.250000e+02
1.312500e+02
1.375000e+02
1.437500e+02
1.500000e+02
1.562500e+02
1.625000e+02
1.687500e+02
1.750000e+02
1.812500e+02
1.875000e+02
1.937500e+02
2.000000e+02
0.000000e+00
6.250000e+00
1.250000e+01
1.875000e+01
2.500000e+01
3.125000e+01
3.750000e+01
4.375000e+01
5.000000e+01
5.625000e+01
6.250000e+01
6.875000e+01
7.500000e+01
8.125000e+01
8.750000e+01
9.375000e+01
1.000000e+02
1.062500e+02
1.125000e+02
1.187500e+02
1.250000e+02
1.312500e+02
1.375000e+02
1.437500e+02
1.500000e+02
1.562500e+02
1.625000e+02
1.687500e+02
1.750000e+02
1.812500e+02
1.875000e+02
1.937500e+02
2.000000e+02
0.000000e+00
6.250000e+00
1.250000e+01
1.875000e+01
2.500000e+01
3.125000e+01
3.750000e+01
4.375000e+01
5.000000e+01
5.625000e+01
6.250000e+01
6.875000e+01
7.500000e+01
8.125000e+01
8.750000e+01
9.375000e+01
1.000000e+02
1.062500e+02
1.125000e+02
1.187500e+02
1.250000e+02
1.312500e+02
1.375000e+02
1.437500e+02
1.500000e+02
1.562500e+02
1.625000e+02
1.687500e+02
1.750000e+02
1.812500e+02
1.875000e+02
1.937500e+02
2.000000e+02
0.000000e+00
6.250000e+00
1.250000e+01
1.875000e+01
2.500000e+01
3.125000e+01
3.750000e+01
4.375000e+01
5.000000e+01
5.625000e+01
6.250000e+01
6.875000e+01
7.500000e+01
8.125000e+01
8.750000e+01
9.375000e+01
1.000000e+02
1.062500e+02
1.125000e+02
1.187500e+02
1.250000e+02
1.312500e+02
1.375000e+02
1.437500e+02
1.500000e+02
1.562500e+02
1.625000e+02
1.687500e+02
1.750000e+02
1.812500e+02
1.875000e+02
1.937500e+02
2.000000e+02
0.000000e+00
6.250000e+00
1.250000e+01
1.875000e+01
2.500000e+01
3.125000e+01
3.750000e+01
4.375000e+01
5.000000e+01
5.625000e+01
6.250000e+01
6.875000e+01
7.500000e+01
8.125000e+01
8.750000e+01
9.375000e+01
1.000000e+02
1.062500e+02
1.125000e+02
1.187500e+02
1.250000e+02
1.312500e+02
1.375000e+02
1.437500e+02
1.500000e+02
1.562500e+02
1.625000e+02
1.687500e+02
1.750000e+02
1.812500e+02
1.875000e+02
1.937500e+02
2.000000e+02
0.000000e+00
6.250000e+00
1.250000e+01
1.875000e+01
2.500000e+01
3.125000e+01
3.750000e+01
4.375000e+01
5.000000e+01
5.625000e+01
6.250000e+01
6.875000e+01
7.500000e+01
8.125000e+01
8.750000e+01
9.375000e+01
1.000000e+02
1.062500e+02
1.125000e+02
1.187500e+02
1.250000e+02
1.312500e+02
1.375000e+02
1.437500e+02
1.500000e+02
1.562500e+02
1.625000e+02
1.687500e+02
1.750000e+02
1.812500e+02
1.875000e+02
1.937500e+02
2.000000e+02
0.000000e+00
6.250000e+00
1.250000e+01
1.875000e+01
2.500000e+01
3.125000e+01
3.750000e+01
4.375000e+01
5.000000e+01
5.625000e+01
6.250000e+01
6.875000e+01
7.500000e+01
8.125000e+01
8.750000e+01
9.375000e+01
1.000000e+02
1.062500e+02
1.125000e+02
1.187500e+02
1.250000e+02
1.312500e+02
1.375000e+02
1.437500e+02
1.500000e+02
1.562500e+02
1.625000e+02
1.687500e+02
1.750000e+02
1.812500e+02
1.875000e+02
1.937500e+02
2.000000e+02
0.000000e+00
6.250000e+00
1.250000e+01
1.875000e+01
2.500000e+01
3.125000e+01
3.750000e+01
4.375000e+01
5.000000e+01
5.625000e+01
6.250000e+01
6.875000e+01
7.500000e+01
8.125000e+01
8.750000e+01
9.375000e+01
1.000000e+02
1.062500e+02
1.125000e+02
1.187500e+02
1.250000e+02
1.312500e+02
1.375000e+02
1.437500e+02
1.500000e+02
1.562500e+02
1.625000e+02
1.687500e+02
1.750000e+02
1.812500e+02
1.875000e+02
1.937500e+02
2.000000e+02
0.000000e+00
0.000000e+00
0.000000e+00
0.000000e+00
0.000000e+00
0.000000e+00
0.000000e+00
0.000000e+00
0.000000e+00
0.000000e+00
0.000000e+00
0.000000e+00
0.000000e+00
0.000000e+00
0.000000e+00
0.000000e+00
0.000000e+00
0.000000e+00
0.000000e+00
0.000000e+00
0.000000e+00
0.000000e+00
0.000000e+00
0.000000e+00
0.000000e+00
0.000000e+00
0.000000e+00
0.000000e+00
0.000000e+00
0.000000e+00
0.000000e+00
0.000000e+00
0.000000e+00
6.250000e+00
6.250000e+00
6.250000e+00
6.250000e+00
6.250000e+00
6.250000e+00
6.250000e+00
6.250000e+00
6.250000e+00
6.250000e+00
6.250000e+00
6.250000e+00
6.250000e+00
6.250000e+00
6.250000e+00
6.250000e+00
6.250000e+00
6.250000e+00
6.250000e+00
6.250000e+00
6.250000e+00
6.250000e+00
6.250000e+00
6.250000e+00
6.250000e+00
6.250000e+00
6.250000e+00
6.250000e+00
6.250000e+00
6.250000e+00
6.250000e+00
6.250000e+00
6.250000e+00
1.250000e+01
1.250000e+01
1.250000e+01
1.250000e+01
1.250000e+01
1.250000e+01
1.250000e+01
1.250000e+01
1.250000e+01
1.250000e+01
1.250000e+01
1.250000e+01
1.250000e+01
1.250000e+01
1.250000e+01
1.250000e+01
1.250000e+01
1.250000e+01
1.250000e+01
1.250000e+01
1.250000e+01
1.250000e+01
1.250000e+01
1.250000e+01
1.250000e+01
1.250000e+01
1.250000e+01
1.250000e+01
1.250000e+01
1.250000e+01
1.250000e+01
1.250000e+01
1.250000e+01
1.875000e+01
1.875000e+01
1.875000e+01
1.875000e+01
1.875000e+01
1.875000e+01
1.875000e+01
1.875000e+01
1.875000e+01
1.875000e+01
1.875000e+01
1.875000e+01
1.875000e+01
1.875000e+01
1.875000e+01
1.875000e+01
1.875000e+01
1.875000e+01
1.875000e+01
1.875000e+01
1.875000e+01
1.875000e+01
1.875000e+01
1.875000e+01
1.875000e+01
1.875000e+01
1.875000e+01
1.875000e+01
1.875000e+01
1.875000e+01
1.875000e+01
1.875000e+01
1.875000e+01
2.500000e+01
2.500000e+01
2.500000e+01
2.500000e+01
2.500000e+01
2.500000e+01
2.500000e+01
2.500000e+01
2.500000e+01
2.500000e+01
2.500000e+01
2.500000e+01
2.500000e+01
2.500000e+01
2.500000e+01
2.500000e+01
2.500000e+01
2.500000e+01
2.500000e+01
2.500000e+01
2.500000e+01
2.500000e+01
2.500000e+01
2.500000e+01
2.500000e+01
2.500000e+01
2.500000e+01
2.500000e+01
2.500000e+01
2.500000e+01
2.500000e+01
2.500000e+01
2.500000e+01
3.125000e+01
3.125000e+01
3.125000e+01
3.125000e+01
3.125000e+01
3.125000e+01
3.125000e+01
3.125000e+01
3.125000e+01
3.125000e+01
3.125000e+01
3.125000e+01
3.125000e+01
3.125000e+01
3.125000e+01
3.125000e+01
3.125000e+01
3.125000e+01
3.125000e+01
3.125000e+01
3.125000e+01
3.125000e+01
3.125000e+01
3.125000e+01
3.125000e+01
3.125000e+01
3.125000e+01
3.125000e+01
3.125000e+01
3.125000e+01
3.125000e+01
3.125000e+01
3.125000e+01
3.750000e+01
3.750000e+01
3.750000e+01
3.750000e+01
3.750000e+01
3.750000e+01
3.750000e+01
3.750000e+01
3.750000e+01
3.750000e+01
3.750000e+01
3.750000e+01
3.750000e+01
3.750000e+01
3.750000e+01
3.750000e+01
3.750000e+01
3.750000e+01
3.750000e+01
3.750000e+01
3.750000e+01
3.750000e+01
3.750000e+01
3.750000e+01
3.750000e+01
3.750000e+01
3.750000e+01
3.750000e+01
3.750000e+01
3.750000e+01
3.750000e+01
3.750000e+01
3.750000e+01
4.375000e+01
4.375000e+01
4.375000e+01
4.375000e+01
4.375000e+01
4.375000e+01
4.375000e+01
4.375000e+01
4.375000e+01
4.375000e+01
4.375000e+01
4.375000e+01
4.375000e+01
4.375000e+01
4.375000e+01
4.375000e+01
4.375000e+01
4.375000e+01
4.375000e+01
4.375000e+01
4.375000e+01
4.375000e+01
4.375000e+01
4.375000e+01
4.375000e+01
4.375000e+01
4.375000e+01
4.375000e+01
4.375000e+01
4.375000e+01
4.375000e+01
4.375000e+01
4.375000e+01
5.000000e+01
5.000000e+01
5.000000e+01
5.000000e+01
5.000000e+01
5.000000e+01
5.000000e+01
5.000000e+01
5.000000e+01
5.000000e+01
5.000000e+01
5.000000e+01
5.000000e+01
5.000000e+01
5.000000e+01
5.000000e+01
5.000000e+01
5.000000e+01
5.000000e+01
5.000000e+01
5.000000e+01
5.000000e+01
5.000000e+01
5.000000e+01
5.000000e+01
5.000000e+01
5.000000e+01
5.000000e+01
5.000000e+01
5.000000e+01
5.000000e+01
5.000000e+01
5.000000e+01
5.625000e+01
5.625000e+01
5.625000e+01
5.625000e+01
5.625000e+01
5.625000e+01
5.625000e+01
5.625000e+01
5.625000e+01
5.625000e+01
5.625000e+01
5.625000e+01
5.625000e+01
5.625000e+01
5.625000e+01
5.625000e+01
5.625000e+01
5.625000e+01
5.625000e+01
5.625000e+01
5.625000e+01
5.625000e+01
5.625000e+01
5.625000e+01
5.625000e+01
5.625000e+01
5.625000e+01
5.625000e+01
5.625000e+01
5.625000e+01
5.625000e+01
5.625000e+01
5.625000e+01
6.250000e+01
6.250000e+01
6.250000e+01
6.250000e+01
6.250000e+01
6.250000e+01
6.250000e+01
6.250000e+01
6.250000e+01
6.250000e+01
6.250000e+01
6.250000e+01
6.250000e+01
6.250000e+01
6.250000e+01
6.250000e+01
6.250000e+01
6.250000e+01
6.250000e+01
6.250000e+01
6.250000e+01
6.250000e+01
6.250000e+01
6.250000e+01
6.250000e+01
6.250000e+01
6.250000e+01
6.250000e+01
6.250000e+01
6.250000e+01
6.250000e+01
6.250000e+01
6.250000e+01
6.875000e+01
6.875000e+01
6.875000e+01
6.875000e+01
6.875000e+01
6.875000e+01
6.875000e+01
6.875000e+01
6.875000e+01
6.875000e+01
6.875000e+01
6.875000e+01
6.875000e+01
6.875000e+01
6.875000e+01
6.875000e+01
6.875000e+01
6.875000e+01
6.875000e+01
6.875000e+01
6.875000e+01
6.875000e+01
6.875000e+01
6.875000e+01
6.875000e+01
6.875000e+01
6.875000e+01
6.875000e+01
6.875000e+01
6.875000e+01
6.875000e+01
6.875000e+01
6.875000e+01
7.500000e+01
7.500000e+01
7.500000e+01
7.500000e+01
7.500000e+01
7.500000e+01
7.500000e+01
7.500000e+01
7.500000e+01
7.500000e+01
7.500000e+01
7.500000e+01
7.500000e+01
7.500000e+01
7.500000e+01
7.500000e+01
7.500000e+01
7.500000e+01
7.500000e+01
7.500000e+01
7.500000e+01
7.500000e+01
7.500000e+01
7.500000e+01
7.500000e+01
7.500000e+01
7.500000e+01
7.500000e+01
7.500000e+01
7.500000e+01
7.500000e+01
7.500000e+01
7.500000e+01
8.125000e+01
8.125000e+01
8.125000e+01
8.125000e+01
8.125000e+01
8.125000e+01
8.125000e+01
8.125000e+01
8.125000e+01
8.125000e+01
8.125000e+01
8.125000e+01
8.125000e+01
8.125000e+01
8.125000e+01
8.125000e+01
8.125000e+01
8.125000e+01
8.125000e+01
8.125000e+01
8.125000e+01
8.125000e+01
8.125000e+01
8.125000e+01
8.125000e+01
8.125000e+01
8.125000e+01
8.125000e+01
8.125000e+01
8.125000e+01
8.125000e+01
8.125000e+01
8.125000e+01
8.750000e+01
8.750000e+01
8.750000e+01
8.750000e+01
8.750000e+01
8.750000e+01
8.750000e+01
8.750000e+01
8.750000e+01
8.750000e+01
8.750000e+01
8.750000e+01
8.750000e+01
8.750000e+01
8.750000e+01
8.750000e+01
8.750000e+01
8.750000e+01
8.750000e+01
8.750000e+01
8.750000e+01
8.750000e+01
8.750000e+01
8.750000e+01
8.750000e+01
8.750000e+01
8.750000e+01
8.750000e+01
8.750000e+01
8.750000e+01
8.750000e+01
8.750000e+01
8.750000e+01
9.375000e+01
9.375000e+01
9.375000e+01
9.375000e+01
9.375000e+01
9.375000e+01
9.375000e+01
9.375000e+01
9.375000e+01
9.375000e+01
9.375000e+01
9.375000e+01
9.375000e+01
9.375000e+01
9.375000e+01
9.375000e+01
9.375000e+01
9.375000e+01
9.375000e+01
9.375000e+01
9.375000e+01
9.375000e+01
9.375000e+01
9.375000e+01
9.375000e+01
9.375000e+01
9.375000e+01
9.375000e+01
9.375000e+01
9.375000e+01
9.375000e+01
9.375000e+01
9.375000e+01
1.000000e+02
1.000000e+02
1.000000e+02
1.000000e+02
1.000000e+02
1.000000e+02
1.000000e+02
1.000000e+02
1.000000e+02
1.000000e+02
1.000000e+02
1.000000e+02
1.000000e+02
1.000000e+02
1.000000e+02
1.000000e+02
1.000000e+02
1.000000e+02
1.000000e+02
1.000000e+02
1.000000e+02
1.000000e+02
1.000000e+02
1.000000e+02
1.000000e+02
1.000000e+02
1.000000e+02
1.000000e+02
1.000000e+02
1.000000e+02
1.000000e+02
1.000000e+02
1.000000e+02
0.000000e+00
-7.868063e-02
-1.427554e-01
-2.021125e-01
-2.590804e-01
-3.140926e-01
-3.672594e-01
-4.185759e-01
-4.680096e-01
-5.155245e-01
-5.610908e-01
-6.046878e-01
-6.463048e-01
-6.859409e-01
-7.236052e-01
-7.593175e-01
-7.931098e-01
-8.250285e-01
-8.551377e-01
-8.835241e-01
-9.103029e-01
-9.356268e-01
-9.596975e-01
-9.827827e-01
-1.005241e+00
-1.027559e+00
-1.050415e+00
-1.074772e+00
-1.102048e+00
-1.134325e+00
-1.174307e+00
-1.221954e+00
-1.251032e+00
0.000000e+00
-5.275254e-02
-1.097574e-01
-1.635063e-01
-2.145943e-01
-2.635071e-01
-3.105028e-01
-3.556944e-01
-3.991269e-01
-4.408147e-01
-4.807605e-01
-5.189644e-01
-5.554279e-01
-5.901570e-01
-6.231631e-01
-6.544646e-01
-6.840879e-01
-7.120697e-01
-7.384585e-01
-7.633170e-01
-7.867257e-01
-8.087858e-01
-8.296229e-01
-8.493907e-01
-8.682730e-01
-8.864810e-01
-9.042381e-01
-9.217276e-01
-9.389486e-01
-9.553405e-01
-9.689995e-01
-9.769850e-01
-9.881022e-01
0.000000e+00
-4.184312e-02
-8.614430e-02
-1.312508e-01
-1.750816e-01
-2.172981e-01
-2.578732e-01
-2.968451e-01
-3.342482e-01
-3.701059e-01
-4.044334e-01
-4.372413e-01
-4.685386e-01
-4.983346e-01
-5.266401e-01
-5.534688e-01
-5.788383e-01
-6.027703e-01
-6.252916e-01
-6.464343e-01
-6.662355e-01
-6.847351e-01
-7.019725e-01
-7.179783e-01
-7.327587e-01
-7.462666e-01
-7.583471e-01
-7.686449e-01
-7.764634e-01
-7.806735e-01
-7.803045e-01
-7.779406e-01
-7.909224e-01
0.000000e+00
-3.319887e-02
-6.823135e-02
-1.042235e-01
-1.401321e-01
-1.751717e-01
-2.090421e-01
-2.416356e-01
-2.729230e-01
-3.029028e-01
-3.315826e-01
-3.589722e-01
-3.850805e-01
-4.099157e-01
-4.334852e-01
-4.557956e-01
-4.768529e-01
-4.966625e-01
-5.152284e-01
-5.325517e-01
-5.486279e-01
-5.634423e-01
-5.769620e-01
-5.891240e-01
-5.998161e-01
-6.088496e-01
-6.159253e-01
-6.206111e-01
-6.224002e-01
-6.210722e-01
-6.178466e-01
-6.176541e-01
-6.300226e-01
0.000000e+00
-2.576714e-02
-5.276237e-02
-8.062029e-02
-1.087051e-01
-1.364460e-01
-1.634601e-01
-1.895538e-01
-2.146387e-01
-2.386809e-01
-2.616715e-01
-2.836116e-01
-3.045053e-01
-3.243560e-01
-3.431651e-01
-3.609307e-01
-3.776474e-01
-3.933050e-01
-4.078873e-01
-4.213698e-01
-4.337164e-01
-4.448743e-01
-4.547670e-01
-4.632859e-01
-4.702805e-01
-4.755528e-01
-4.788705e-01
-4.800344e-01
-4.790796e-01
-4.767435e-01
-4.752278e-01
-4.787278e-01
-4.892787e-01
0.000000e+00
-1.893747e-02
-3.868632e-02
-5.906983e-02
-7.973594e-02
-1.002989e-01
-1.204525e-01
-1.399976e-01
-1.588250e-01
-1.768814e-01
-1.941443e-01
-2.106058e-01
-2.262631e-01
-2.411132e-01
-2.551507e-01
-2.683654e-01
-2.807416e-01
-2.922567e-01
-3.028796e-01
-3.125686e-01
-3.212692e-01
-3.289108e-01
-3.354041e-01
-3.406401e-01
-3.444946e-01
-3.468466e-01
-3.476269e-01
-3.469266e-01
-3.452007e-01
-3.435587e-01
-3.439584e-01
-3.484203e-01
-3.571505e-01
0.000000e+00
-1.246319e-02
-2.541937e-02
-3.878666e-02
-5.237453e-02
-6.595429e-02
-7.932116e-02
-9.232588e-02
-1.048750e-01
-1.169169e-01
-1.284255e-01
-1.393877e-01
-1.497951e-01
-1.596390e-01
-1.689074e-01
-1.775835e-01
-1.856437e-01
-1.930571e-01
-1.997839e-01
-2.057746e-01
-2.109689e-01
-2.152963e-01
-2.186783e-01
-2.210351e-01
-2.223014e-01
-2.224585e-01
-2.215927e-01
-2.199905e-01
-2.182616e-01
-2.174235e-01
-2.187310e-01
-2.230751e-01
-2.301223e-01
0.000000e+00
-6.190479e-03
-1.261500e-02
-1.924059e-02
-2.598360e-02
-3.273752e-02
-3.940122e-02
-4.589552e-02
-5.216695e-02
-5.818280e-02
-6.392372e-02
-6.937687e-02
-7.453107e-02
-7.937353e-02
-8.388775e-02
-8.805201e-02
-9.183840e-02
-9.521193e-02
-9.813019e-02
-1.005435e-01
-1.023960e-01
-1.036291e-01
-1.041877e-01
-1.040323e-01
-1.031599e-01
-1.016370e-01
-9.964799e-02
-9.755221e-02
-9.592525e-02
-9.551766e-02
-9.705166e-02
-1.008413e-01
-1.064332e-01
0.000000e+00
-9.990803e-06
-2.166272e-05
-3.436918e-05
-4.744187e-05
-5.997968e-05
-7.062458e-05
-7.731290e-05
-7.698455e-05
-6.523312e-05
-3.588343e-05
1.951096e-05
1.122492e-04
2.571314e-04
4.731416e-04
7.841074e-04
1.219233e-03
1.813343e-03
2.606570e-03
3.643094e-03
4.968341e-03
6.623772e-03
8.638104e-03
1.101352e-02
1.370553e-02
1.659621e-02
1.946425e-02
2.196299e-02
2.363102e-02
2.396931e-02
2.260734e-02
1.952286e-02
1.520287e-02
0.000000e+00
6.171661e-03
1.257412e-02
1.917560e-02
2.589367e-02
3.262350e-02
3.926646e-02
4.574723e-02
5.201803e-02
5.805441e-02
6.384857e-02
6.940354e-02
7.472938e-02
7.984119e-02
8.475825e-02
8.950393e-02
9.410562e-02
9.859457e-02
1.030050e-01
1.073721e-01
1.117286e-01
1.160984e-01
1.204878e-01
1.248724e-01
1.291809e-01
1.332773e-01
1.369472e-01
1.398990e-01
1.417956e-01
1.423326e-01
1.413601e-01
1.390170e-01
1.358107e-01
0.000000e+00
1.244782e-02
2.538573e-02
3.873282e-02
5.229944e-02
6.585820e-02
7.920627e-02
9.219742e-02
1.047427e-01
1.167973e-01
1.283443e-01
1.393834e-01
1.499237e-01
1.599792e-01
1.695675e-01
1.787092e-01
1.874270e-01
1.957458e-01
2.036915e-01
2.112885e-01
2.185566e-01
2.255051e-01
2.321243e-01
2.383763e-01
2.441823e-01
2.494136e-01
2.538882e-01
2.573831e-01
2.596706e-01
2.605852e-01
2.601149e-01
2.584936e-01
2.562558e-01
0.000000e+00
1.892767e-02
3.866447e-02
5.903425e-02
7.968542e-02
1.002330e-01
1.203718e-01
1.399048e-01
1.587253e-01
1.767844e-01
1.940655e-01
2.105690e-01
2.263032e-01
2.412804e-01
2.555146e-01
2.690209e-01
2.818152e-01
2.939137e-01
3.053319e-01
3.160830e-01
3.261745e-01
3.356040e-01
3.443533e-01
3.523810e-01
3.596163e-01
3.659539e-01
3.712574e-01
3.753734e-01
3.781647e-01
3.795634e-01
3.796421e-01
3.786910e-01
3.772767e-01
0.000000e+00
2.576470e-02
5.275627e-02
8.060938e-02
1.086882e-01
1.364222e-01
1.634289e-01
1.895149e-01
2.145930e-01
2.386305e-01
2.616202e-01
2.835660e-01
3.044759e-01
3.243584e-01
3.432220e-01
3.610743e-01
3.779219e-01
3.937704e-01
4.086236e-01
4.224821e-01
4.353418e-01
4.471908e-01
4.580063e-01
4.677509e-01
4.763699e-01
4.837909e-01
4.899290e-01
4.946994e-01
4.980427e-01
4.999634e-01
5.005865e-01
5.002293e-01
4.994843e-01
0.000000e+00
3.320503e-02
6.824389e-02
1.042421e-01
1.401563e-01
1.752008e-01
2.090752e-01
2.416709e-01
2.729578e-01
3.029328e-01
3.316015e-01
3.589702e-01
3.850442e-01
4.098260e-01
4.333164e-01
4.555131e-01
4.764121e-01
4.960065e-01
5.142865e-01
5.312392e-01
5.468474e-01
5.610894e-01
5.739381e-01
5.853610e-01
5.953218e-01
6.037830e-01
6.107130e-01
6.160961e-01
6.199488e-01
6.223430e-01
6.234443e-01
6.235756e-01
6.233284e-01
0.000000e+00
4.185818e-02
8.617644e-02
1.313011e-01
1.751511e-01
2.173876e-01
2.579828e-01
2.969736e-01
3.343919e-01
3.702574e-01
4.045797e-01
4.373615e-01
4.686004e-01
4.982905e-01
5.264224e-01
5.529834e-01
5.779571e-01
6.013229e-01
6.230562e-01
6.431280e-01
6.615053e-01
6.781525e-01
6.930331e-01
7.061138e-01
7.173700e-01
7.267930e-01
7.343998e-01
7.402440e-01
7.444266e-01
7.471055e-01
7.485077e-01
7.489644e-01
7.490189e-01
0.000000e+00
5.277515e-02
1.098068e-01
1.635858e-01
2.147077e-01
2.636583e-01
3.106951e-01
3.559298e-01
3.994043e-01
4.411286e-01
4.810979e-01
5.193012e-01
5.557240e-01
5.903495e-01
6.231580e-01
6.541261e-01
6.832255e-01
7.104220e-01
7.356745e-01
7.589354e-01
7.801512e-01
7.992645e-01
8.162190e-01
8.309660e-01
8.434748e-01
8.537462e-01
8.618288e-01
8.678361e-01
8.719628e-01
8.744915e-01
8.757833e-01
8.762517e-01
8.763664e-01
0.000000e+00
7.870538e-02
1.428131e-01
2.022115e-01
2.592284e-01
3.142979e-01
3.675303e-01
4.189203e-01
4.684338e-01
5.160311e-01
5.616755e-01
6.053351e-01
6.469817e-01
6.865888e-01
7.241286e-01
7.595697e-01
7.928743e-01
8.239960e-01
8.528779e-01
8.794514e-01
9.036366e-01
9.253444e-01
9.444816e-01
9.609604e-01
9.747129e-01
9.857111e-01
9.939943e-01
9.997006e-01
1.003102e+00
1.004634e+00
1.004913e+00
1.004682e+00
1.004552e+00
0.000000e+00
-4.862327e-02
-8.485941e-02
-1.244027e-01
-1.684369e-01
-2.181780e-01
-2.739716e-01
-3.359147e-01
-4.039459e-01
-4.779192e-01
-5.576387e-01
-6.428789e-01
-7.333966e-01
-8.289385e-01
-9.292463e-01
-1.034060e+00
-1.143121e+00
-1.256174e+00
-1.372975e+00
-1.493292e+00
-1.616916e+00
-1.743670e+00
-1.873429e+00
-2.006143e+00
-2.141878e+00
-2.280884e+00
-2.423716e+00
-2.571451e+00
-2.726151e+00
-2.891901e+00
-3.077511e+00
-3.303772e+00
-3.616361e+00
0.000000e+00
-3.021758e-02
-6.814718e-02
-1.079568e-01
-1.526044e-01
-2.028855e-01
-2.592210e-01
-3.217061e-01
-3.902846e-01
-4.648107e-01
-5.450873e-01
-6.308870e-01
-7.219646e-01
-8.180647e-01
-9.189266e-01
-1.024287e+00
-1.133885e+00
-1.247463e+00
-1.364769e+00
-1.485567e+00
-1.609640e+00
-1.736803e+00
-1.866918e+00
-1.999922e+00
-2.135862e+00
-2.274966e+00
-2.417759e+00
-2.565285e+00
-2.719563e+00
-2.884609e+00
-3.068787e+00
-3.290011e+00
-3.582048e+00
0.000000e+00
-2.219667e-02
-5.494025e-02
-9.420665e-02
-1.389318e-01
-1.895832e-01
-2.463631e-01
-3.093242e-01
-3.783910e-01
-4.534106e-01
-5.341828e-01
-6.204783e-01
-7.120507e-01
-8.086438e-01
-9.099959e-01
-1.015843e+00
-1.125923e+00
-1.239974e+00
-1.357747e+00
-1.479002e+00
-1.603519e+00
-1.731113e+00
-1.861645e+00
-1.995054e+00
-2.131392e+00
-2.270902e+00
-2.414130e+00
-2.562147e+00
-2.716948e+00
-2.882150e+00
-3.063931e+00
-3.269591e+00
-3.497730e+00
0.000000e+00
-1.777444e-02
-4.652371e-02
-8.369614e-02
-1.278464e-01
-1.784817e-01
-2.355043e-01
-2.988179e-01
-3.682865e-01
-4.437291e-01
-5.249327e-01
-6.116623e-01
-7.036696e-01
-8.006978e-01
-9.024854e-01
-1.008769e+00
-1.119287e+00
-1.233781e+00
-1.351999e+00
-1.473706e+00
-1.598684e+00
-1.726753e+00
-1.857781e+00
-1.991715e+00
-2.128623e+00
-2.268758e+00
-2.412661e+00
-2.561319e+00
-2.716365e+00
-2.880181e+00
-3.055048e+00
-3.239479e+00
-3.411165e+00
0.000000e+00
-1.504047e-02
-4.101974e-02
-7.623258e-02
-1.193762e-01
-1.696795e-01
-2.267233e-01
-2.902425e-01
-3.600077e-01
-4.357909e-01
-5.173552e-01
-6.044549e-01
-6.968372e-01
-7.942442e-01
-8.964158e-01
-1.003090e+00
-1.114009e+00
-1.228915e+00
-1.347562e+00
-1.469717e+00
-1.595169e+00
-1.723741e+00
-1.855308e+00
-1.989820e+00
-2.127341e+00
-2.268091e+00
-2.412512e+00
-2.561316e+00
-2.715440e+00
-2.875641e+00
-3.041155e+00
-3.205904e+00
-3.355423e+00
0.000000e+00
-1.330084e-02
-3.740851e-02
-7.109658e-02
-1.132690e-01
-1.631009e-01
-2.200205e-01
-2.836209e-01
-3.535814e-01
-4.296198e-01
-5.114700e-01
-5.988716e-01
-6.915658e-01
-7.892936e-01
-8.917958e-01
-9.988138e-01
-1.110091e+00
-1.225377e+00
-1.344427e+00
-1.467012e+00
-1.592925e+00
-1.721989e+00
-1.854077e+00
-1.989122e+00
-2.127151e+00
-2.268295e+00
-2.412803e+00
-2.560988e+00
-2.713021e+00
-2.868390e+00
-3.024726e+00
-3.176445e+00
-3.315113e+00
0.000000e+00
-1.221968e-02
-3.512534e-02
-6.775810e-02
-1.091776e-01
-1.585800e-01
-2.153306e-01
-2.789388e-01
-3.490146e-01
-4.252297e-01
-5.072906e-01
-5.949230e-01
-6.878619e-01
-7.858473e-01
-8.886216e-01
-9.959290e-01
-1.107517e+00
-1.223137e+00
-1.342548e+00
-1.465523e+00
-1.591853e+00
-1.721354e+00
-1.853880e+00
-1.989330e+00
-2.127660e+00
-2.268869e+00
-2.412973e+00
-2.559887e+00
-2.709188e+00
-2.859660e+00
-3.008701e+00
-3.152013e+00
-3.284329e+00
0.000000e+00
-1.162556e-02
-3.385846e-02
-6.587681e-02
-1.068316e-01
-1.559467e-01
-2.125670e-01
-2.761611e-01
-3.462993e-01
-4.226237e-01
-5.048226e-01
-5.926123e-01
-6.857242e-01
-7.838981e-01
-8.868784e-01
-9.944121e-01
-1.106249e+00
-1.222144e+00
-1.341857e+00
-1.465158e+00
-1.591829e+00
-1.721673e+00
-1.854511e+00
-1.990191e+00
-2.128577e+00
-2.269526e+00
-2.412831e+00
-2.558101e+00
-2.704561e+00
-2.850770e+00
-2.994379e+00
-3.132157e+00
-3.260510e+00
0.000000e+00
-1.143414e-02
-3.344973e-02
-6.526707e-02
-1.060670e-01
-1.550849e-01
-2.116617e-01
-2.752548e-01
-3.454226e-01
-4.217979e-01
-5.040643e-01
-5.919357e-01
-6.851440e-01
-7.834308e-01
-8.865428e-01
-9.942297e-01
-1.106244e+00
-1.222340e+00
-1.342277e+00
-1.465817e+00
-1.592732e+00
-1.722799e+00
-1.855801e+00
-1.991525e+00
-2.129741e+00
-2.270174e+00
-2.412443e+00
-2.555961e+00
-2.699800e+00
-2.842545e+00
-2.982207e+00
-3.116322e+00
-3.242255e+00
0.000000e+00
-1.162002e-02
-3.385078e-02
-6.587019e-02
-1.068296e-01
-1.559537e-01
-2.125888e-01
-2.762055e-01
-3.463764e-01
-4.227468e-01
-5.050091e-01
-5.928836e-01
-6.861071e-01
-7.844248e-01
-8.875865e-01
-9.953442e-01
-1.107451e+00
-1.223661e+00
-1.343729e+00
-1.467409e+00
-1.594454e+00
-1.724616e+00
-1.857635e+00
-1.993236e+00
-2.131104e+00
-2.270856e+00
-2.411993e+00
-2.553826e+00
-2.695400e+00
-2.835426e+00
-2.972265e+00
-3.104010e+00
-3.228650e+00
0.000000e+00
-1.220905e-02
-3.511059e-02
-6.774534e-02
-1.091736e-01
-1.585932e-01
-2.153720e-01
-2.790234e-01
-3.491619e-01
-4.254653e-01
-5.076475e-01
-5.954427e-01
-6.885958e-01
-7.868572e-01
-8.899800e-01
-9.977179e-01
-1.109824e+00
-1.226051e+00
-1.346147e+00
-1.469856e+00
-1.596914e+00
-1.727043e+00
-1.859944e+00
-1.995286e+00
-2.132683e+00
-2.271676e+00
-2.411689e+00
-2.551996e+00
-2.691680e+00
-2.829612e+00
-2.964468e+00
-3.094775e+00
-3.218992e+00
0.000000e+00
-1.328607e-02
-3.738801e-02
-7.107876e-02
-1.132632e-01
-1.631189e-01
-2.200779e-01
-2.837384e-01
-3.537864e-01
-4.299483e-01
-5.119681e-01
-5.995975e-01
-6.925915e-01
-7.907059e-01
-8.936966e-01
-1.001318e+00
-1.113324e+00
-1.229463e+00
-1.349478e+00
-1.473102e+00
-1.600054e+00
-1.730030e+00
-1.862697e+00
-1.997677e+00
-2.134532e+00
-2.272747e+00
-2.411708e+00
-2.550684e+00
-2.688823e+00
-2.825160e+00
-2.958647e+00
-3.088188e+00
-3.212661e+00
0.000000e+00
-1.502307e-02
-4.099561e-02
-7.621159e-02
-1.193696e-01
-1.697013e-01
-2.267925e-01
-2.903842e-01
-3.602552e-01
-4.361877e-01
-5.179571e-01
-6.053325e-01
-6.980776e-01
-7.959527e-01
-8.987159e-01
-1.006122e+00
-1.117923e+00
-1.233866e+00
-1.353686e+00
-1.477109e+00
-1.603838e+00
-1.733550e+00
-1.865884e+00
-2.000427e+00
-2.136704e+00
-2.274166e+00
-2.412178e+00
-2.550023e+00
-2.686915e+00
-2.822036e+00
-2.954583e+00
-3.083815e+00
-3.209038e+00
0.000000e+00
-1.775656e-02
-4.649893e-02
-8.367479e-02
-1.278406e-01
-1.785074e-01
-2.355823e-01
-2.989762e-01
-3.685618e-01
-4.441695e-01
-5.255998e-01
-6.126342e-01
-7.050423e-01
-8.025871e-01
-9.050275e-01
-1.012118e+00
-1.123609e+00
-1.239245e+00
-1.358757e+00
-1.481863e+00
-1.608256e+00
-1.737598e+00
-1.869509e+00
-2.003555e+00
-2.139237e+00
-2.275986e+00
-2.413161e+00
-2.550059e+00
-2.685952e+00
-2.820141e+00
-2.952029e+00
-3.081204e+00
-3.207458e+00
0.000000e+00
-2.218108e-02
-5.491856e-02
-9.418863e-02
-1.389301e-01
-1.896145e-01
-2.464493e-01
-3.094945e-01
-3.786835e-01
-4.538753e-01
-5.348833e-01
-6.214948e-01
-7.134822e-01
-8.106091e-01
-9.126340e-01
-1.019311e+00
-1.130388e+00
-1.245607e+00
-1.364698e+00
-1.487371e+00
-1.613315e+00
-1.742183e+00
-1.873583e+00
-2.007072e+00
-2.142139e+00
-2.278208e+00
-2.414639e+00
-2.550747e+00
-2.685844e+00
-2.819311e+00
-2.950704e+00
-3.079891e+00
-3.207182e+00
0.000000e+00
-3.020757e-02
-6.813242e-02
-1.079462e-01
-1.526109e-01
-2.029262e-01
-2.593181e-01
-3.218888e-01
-3.905910e-01
-4.652902e-01
-5.458028e-01
-6.319171e-01
-7.234057e-01
-8.200319e-01
-9.215532e-01
-1.027722e+00
-1.138287e+00
-1.252985e+00
-1.371544e+00
-1.493672e+00
-1.619053e+00
-1.747337e+00
-1.878130e+00
-2.010983e+00
-2.145388e+00
-2.280773e+00
-2.416507e+00
-2.551924e+00
-2.686370e+00
-2.819272e+00
-2.950273e+00
-3.079417e+00
-3.207417e+00
0.000000e+00
-4.862185e-02
-8.485449e-02
-1.244037e-01
-1.684568e-01
-2.182339e-01
-2.740857e-01
-3.361161e-01
-4.042717e-01
-4.784176e-01
-5.583701e-01
-6.439183e-01
-7.348347e-01
-8.308825e-01
-9.318184e-01
-1.037394e+00
-1.147353e+00
-1.261434e+00
-1.379359e+00
-1.500835e+00
-1.625542e+00
-1.753128e+00
-1.883198e+00