TITLE = "Solution"
VARIABLES = x, y, u, v, psiu, psiv, t, stress
ZONE T="structure" N=561 E=512 F=FEBLOCK ET=QUADRILATERAL VARLOCATION=([7,8]=cellcentered)
0.000000e+00
6.250000e+00
1.250000e+01
1.875000e+01
2.500000e+01
3.125000e+01
3.750000e+01
4.375000e+01
5.000000e+01
5.625000e+01
6.250000e+01
6.875000e+01
7.500000e+01
8.125000e+01
8.750000e+01
9.375000e+01
1.000000e+02
1.062500e+02
1.125000e+02
1.187500e+02
1.250000e+02
1.312500e+02
1.375000e+02
1.437500e+02
1.500000e+02
1.562500e+02
1.625000e+02
1.687500e+02
1.750000e+02
1.812500e+02
1.875000e+02
1.937500e+02
2.000000e+02
0.000000e+00
6.250000e+00
1.250000e+01
1.875000e+01
2.500000e+01
3.125000e+01
3.750000e+01
4.375000e+01
5.000000e+01
5.625000e+01
6.250000e+01
6.875000e+01
7.500000e+01
8.125000e+01
8.750000e+01
9.375000e+01
1.000000e+02
1.062500e+02
1.125000e+02
1.187500e+02
1.250000e+02
1.312500e+02
1.375000e+02
1.437500e+02
1.500000e+02
1.562500e+02
1.625000e+02
1.687500e+02
1.750000e+02
1.812500e+02
1.875000e+02
1.937500e+02
2.000000e+02
0.000000e+00
6.250000e+00
1.250000e+01
1.875000e+01
2.500000e+01
3.125000e+01
3.750000e+01
4.375000e+01
5.000000e+01
5.625000e+01
6.250000e+01
6.875000e+01
7.500000e+01
8.125000e+01
8.750000e+01
9.375000e+01
1.000000e+02
1.062500e+02
1.125000e+02
1.187500e+02
1.250000e+02
1.312500e+02
1.375000e+02
1.437500e+02
1.500000e+02
1.562500e+02
1.625000e+02
1.687500e+02
1.750000e+02
1.812500e+02
1.875000e+02
1.937500e+02
2.000000e+02
0.000000e+00
6.250000e+00
1.250000e+01
1.875000e+01
2.500000e+01
3.125000e+01
3.750000e+01
4.375000e+01
5.000000e+01
5.625000e+01
6.250000e+01
6.875000e+01
7.500000e+01
8.125000e+01
8.750000e+01
9.375000e+01
1.000000e+02
1.062500e+02
1.125000e+02
1.187500e+02
1.250000e+02
1.312500e+02
1.375000e+02
1.437500e+02
1.500000e+02
1.562500e+02
1.625000e+02
1.687500e+02
1.750000e+02
1.812500e+02
1.875000e+02
1.937500e+02
2.000000e+02
0.000000e+00
6.250000e+00
1.250000e+01
1.875000e+01
2.500000e+01
3.125000e+01
3.750000e+01
4.375000e+01
5.000000e+01
5.625000e+01
6.250000e+01
6.875000e+01
7.500000e+01
8.125000e+01
8.750000e+01
9.375000e+01
1.000000e+02
1.062500e+02
1.125000e+02
1.187500e+02
1.250000e+02
1.312500e+02
1.375000e+02
1.437500e+02
1.500000e+02
1.562500e+02
1.625000e+02
1.687500e+02
1.750000e+02
1.812500e+02
1.875000e+02
1.937500e+02
2.000000e+02
0.000000e+00
6.250000e+00
1.250000e+01
1.875000e+01
2.500000e+01
3.125000e+01
3.750000e+01
4.375000e+01
5.000000e+01
5.625000e+01
6.250000e+01
6.875000e+01
7.500000e+01
8.125000e+01
8.750000e+01
9.375000e+01
1.000000e+02
1.062500e+02
1.125000e+02
1.187500e+02
1.250000e+02
1.312500e+02
1.375000e+02
1.437500e+02
1.500000e+02
1.562500e+02
1.625000e+02
1.687500e+02
1.750000e+02
1.812500e+02
1.875000e+02
1.937500e+02
2.000000e+02
0.000000e+00
6.250000e+00
1.250000e+01
1.875000e+01
2.500000e+01
3.125000e+01
3.750000e+01
4.375000e+01
5.000000e+01
5.625000e+01
6.250000e+01
6.875000e+01
7.500000e+01
8.125000e+01
8.750000e+01
9.375000e+01
1.000000e+02
1.062500e+02
1.125000e+02
1.187500e+02
1.250000e+02
1.312500e+02
1.375000e+02
1.437500e+02
1.500000e+02
1.562500e+02
1.625000e+02
1.687500e+02
1.750000e+02
1.812500e+02
1.875000e+02
1.937500e+02
2.000000e+02
0.000000e+00
6.250000e+00
1.250000e+01
1.875000e+01
2.500000e+01
3.125000e+01
3.750000e+01
4.375000e+01
5.000000e+01
5.625000e+01
6.250000e+01
6.875000e+01
7.500000e+01
8.125000e+01
8.750000e+01
9.375000e+01
1.000000e+02
1.062500e+02
1.125000e+02
1.187500e+02
1.250000e+02
1.312500e+02
1.375000e+02
1.437500e+02
1.500000e+02
1.562500e+02
1.625000e+02
1.687500e+02
1.750000e+02
1.812500e+02
1.875000e+02
1.937500e+02
2.000000e+02
0.000000e+00
6.250000e+00
1.250000e+01
1.875000e+01
2.500000e+01
3.125000e+01
3.750000e+01
4.375000e+01
5.000000e+01
5.625000e+01
6.250000e+01
6.875000e+01
7.500000e+01
8.125000e+01
8.750000e+01
9.375000e+01
1.000000e+02
1.062500e+02
1.125000e+02
1.187500e+02
1.250000e+02
1.312500e+02
1.375000e+02
1.437500e+02
1.500000e+02
1.562500e+02
1.625000e+02
1.687500e+02
1.750000e+02
1.812500e+02
1.875000e+02
1.937500e+02
2.000000e+02
0.000000e+00
6.250000e+00
1.250000e+01
1.875000e+01
2.500000e+01
3.125000e+01
3.750000e+01
4.375000e+01
5.000000e+01
5.625000e+01
6.250000e+01
6.875000e+01
7.500000e+01
8.125000e+01
8.750000e+01
9.375000e+01
1.000000e+02
1.062500e+02
1.125000e+02
1.187500e+02
1.250000e+02
1.312500e+02
1.375000e+02
1.437500e+02
1.500000e+02
1.562500e+02
1.625000e+02
1.687500e+02
1.750000e+02
1.812500e+02
1.875000e+02
1.937500e+02
2.000000e+02
0.000000e+00
6.250000e+00
1.250000e+01
1.875000e+01
2.500000e+01
3.125000e+01
3.750000e+01
4.375000e+01
5.000000e+01
5.625000e+01
6.250000e+01
6.875000e+01
7.500000e+01
8.125000e+01
8.750000e+01
9.375000e+01
1.000000e+02
1.062500e+02
1.125000e+02
1.187500e+02
1.250000e+02
1.312500e+02
1.375000e+02
1.437500e+02
1.500000e+02
1.562500e+02
1.625000e+02
1.687500e+02
1.750000e+02
1.812500e+02
1.875000e+02
1.937500e+02
2.000000e+02
0.000000e+00
6.250000e+00
1.250000e+01
1.875000e+01
2.500000e+01
3.125000e+01
3.750000e+01
4.375000e+01
5.000000e+01
5.625000e+01
6.250000e+01
6.875000e+01
7.500000e+01
8.125000e+01
8.750000e+01
9.375000e+01
1.000000e+02
1.062500e+02
1.125000e+02
1.187500e+02
1.250000e+02
1.312500e+02
1.375000e+02
1.437500e+02
1.500000e+02
1.562500e+02
1.625000e+02
1.687500e+02
1.750000e+02
1.812500e+02
1.875000e+02
1.937500e+02
2.000000e+02
0.000000e+00
6.250000e+00
1.250000e+01
1.875000e+01
2.500000e+01
3.125000e+01
3.750000e+01
4.375000e+01
5.000000e+01
5.625000e+01
6.250000e+01
6.875000e+01
7.500000e+01
8.125000e+01
8.750000e+01
9.375000e+01
1.000000e+02
1.062500e+02
1.125000e+02
1.187500e+02
1.250000e+02
1.312500e+02
1.375000e+02
1.437500e+02
1.500000e+02
1.562500e+02
1.625000e+02
1.687500e+02
1.750000e+02
1.812500e+02
1.875000e+02
1.937500e+02
2.000000e+02
0.000000e+00
6.250000e+00
1.250000e+01
1.875000e+01
2.500000e+01
3.125000e+01
3.750000e+01
4.375000e+01
5.000000e+01
5.625000e+01
6.250000e+01
6.875000e+01
7.500000e+01
8.125000e+01
8.750000e+01
9.375000e+01
1.000000e+02
1.062500e+02
1.125000e+02
1.187500e+02
1.250000e+02
1.312500e+02
1.375000e+02
1.437500e+02
1.500000e+02
1.562500e+02
1.625000e+02
1.687500e+02
1.750000e+02
1.812500e+02
1.875000e+02
1.937500e+02
2.000000e+02
0.000000e+00
6.250000e+00
1.250000e+01
1.875000e+01
2.500000e+01
3.125000e+01
3.750000e+01
4.375000e+01
5.000000e+01
5.625000e+01
6.250000e+01
6.875000e+01
7.500000e+01
8.125000e+01
8.750000e+01
9.375000e+01
1.000000e+02
1.062500e+02
1.125000e+02
1.187500e+02
1.250000e+02
1.312500e+02
1.375000e+02
1.437500e+02
1.500000e+02
1.562500e+02
1.625000e+02
1.687500e+02
1.750000e+02
1.812500e+02
1.875000e+02
1.937500e+02
2.000000e+02
0.000000e+00
6.250000e+00
1.250000e+01
1.875000e+01
2.500000e+01
3.125000e+01
3.750000e+01
4.375000e+01
5.000000e+01
5.625000e+01
6.250000e+01
6.875000e+01
7.500000e+01
8.125000e+01
8.750000e+01
9.375000e+01
1.000000e+02
1.062500e+02
1.125000e+02
1.187500e+02
1.250000e+02
1.312500e+02
1.375000e+02
1.437500e+02
1.500000e+02
1.562500e+02
1.625000e+02
1.687500e+02
1.750000e+02
1.812500e+02
1.875000e+02
1.937500e+02
2.000000e+02
0.000000e+00
6.250000e+00
1.250000e+01
1.875000e+01
2.500000e+01
3.125000e+01
3.750000e+01
4.375000e+01
5.000000e+01
5.625000e+01
6.250000e+01
6.875000e+01
7.500000e+01
8.125000e+01
8.750000e+01
9.375000e+01
1.000000e+02
1.062500e+02
1.125000e+02
1.187500e+02
1.250000e+02
1.312500e+02
1.375000e+02
1.437500e+02
1.500000e+02
1.562500e+02
1.625000e+02
1.687500e+02
1.750000e+02
1.812500e+02
1.875000e+02
1.937500e+02
2.000000e+02
0.000000e+00
0.000000e+00
0.000000e+00
0.000000e+00
0.000000e+00
0.000000e+00
0.000000e+00
0.000000e+00
0.000000e+00
0.000000e+00
0.000000e+00
0.000000e+00
0.000000e+00
0.000000e+00
0.000000e+00
0.000000e+00
0.000000e+00
0.000000e+00
0.000000e+00
0.000000e+00
0.000000e+00
0.000000e+00
0.000000e+00
0.000000e+00
0.000000e+00
0.000000e+00
0.000000e+00
0.000000e+00
0.000000e+00
0.000000e+00
0.000000e+00
0.000000e+00
0.000000e+00
6.250000e+00
6.250000e+00
6.250000e+00
6.250000e+00
6.250000e+00
6.250000e+00
6.250000e+00
6.250000e+00
6.250000e+00
6.250000e+00
6.250000e+00
6.250000e+00
6.250000e+00
6.250000e+00
6.250000e+00
6.250000e+00
6.250000e+00
6.250000e+00
6.250000e+00
6.250000e+00
6.250000e+00
6.250000e+00
6.250000e+00
6.250000e+00
6.250000e+00
6.250000e+00
6.250000e+00
6.250000e+00
6.250000e+00
6.250000e+00
6.250000e+00
6.250000e+00
6.250000e+00
1.250000e+01
1.250000e+01
1.250000e+01
1.250000e+01
1.250000e+01
1.250000e+01
1.250000e+01
1.250000e+01
1.250000e+01
1.250000e+01
1.250000e+01
1.250000e+01
1.250000e+01
1.250000e+01
1.250000e+01
1.250000e+01
1.250000e+01
1.250000e+01
1.250000e+01
1.250000e+01
1.250000e+01
1.250000e+01
1.250000e+01
1.250000e+01
1.250000e+01
1.250000e+01
1.250000e+01
1.250000e+01
1.250000e+01
1.250000e+01
1.250000e+01
1.250000e+01
1.250000e+01
1.875000e+01
1.875000e+01
1.875000e+01
1.875000e+01
1.875000e+01
1.875000e+01
1.875000e+01
1.875000e+01
1.875000e+01
1.875000e+01
1.875000e+01
1.875000e+01
1.875000e+01
1.875000e+01
1.875000e+01
1.875000e+01
1.875000e+01
1.875000e+01
1.875000e+01
1.875000e+01
1.875000e+01
1.875000e+01
1.875000e+01
1.875000e+01
1.875000e+01
1.875000e+01
1.875000e+01
1.875000e+01
1.875000e+01
1.875000e+01
1.875000e+01
1.875000e+01
1.875000e+01
2.500000e+01
2.500000e+01
2.500000e+01
2.500000e+01
2.500000e+01
2.500000e+01
2.500000e+01
2.500000e+01
2.500000e+01
2.500000e+01
2.500000e+01
2.500000e+01
2.500000e+01
2.500000e+01
2.500000e+01
2.500000e+01
2.500000e+01
2.500000e+01
2.500000e+01
2.500000e+01
2.500000e+01
2.500000e+01
2.500000e+01
2.500000e+01
2.500000e+01
2.500000e+01
2.500000e+01
2.500000e+01
2.500000e+01
2.500000e+01
2.500000e+01
2.500000e+01
2.500000e+01
3.125000e+01
3.125000e+01
3.125000e+01
3.125000e+01
3.125000e+01
3.125000e+01
3.125000e+01
3.125000e+01
3.125000e+01
3.125000e+01
3.125000e+01
3.125000e+01
3.125000e+01
3.125000e+01
3.125000e+01
3.125000e+01
3.125000e+01
3.125000e+01
3.125000e+01
3.125000e+01
3.125000e+01
3.125000e+01
3.125000e+01
3.125000e+01
3.125000e+01
3.125000e+01
3.125000e+01
3.125000e+01
3.125000e+01
3.125000e+01
3.125000e+01
3.125000e+01
3.125000e+01
3.750000e+01
3.750000e+01
3.750000e+01
3.750000e+01
3.750000e+01
3.750000e+01
3.750000e+01
3.750000e+01
3.750000e+01
3.750000e+01
3.750000e+01
3.750000e+01
3.750000e+01
3.750000e+01
3.750000e+01
3.750000e+01
3.750000e+01
3.750000e+01
3.750000e+01
3.750000e+01
3.750000e+01
3.750000e+01
3.750000e+01
3.750000e+01
3.750000e+01
3.750000e+01
3.750000e+01
3.750000e+01
3.750000e+01
3.750000e+01
3.750000e+01
3.750000e+01
3.750000e+01
4.375000e+01
4.375000e+01
4.375000e+01
4.375000e+01
4.375000e+01
4.375000e+01
4.375000e+01
4.375000e+01
4.375000e+01
4.375000e+01
4.375000e+01
4.375000e+01
4.375000e+01
4.375000e+01
4.375000e+01
4.375000e+01
4.375000e+01
4.375000e+01
4.375000e+01
4.375000e+01
4.375000e+01
4.375000e+01
4.375000e+01
4.375000e+01
4.375000e+01
4.375000e+01
4.375000e+01
4.375000e+01
4.375000e+01
4.375000e+01
4.375000e+01
4.375000e+01
4.375000e+01
5.000000e+01
5.000000e+01
5.000000e+01
5.000000e+01
5.000000e+01
5.000000e+01
5.000000e+01
5.000000e+01
5.000000e+01
5.000000e+01
5.000000e+01
5.000000e+01
5.000000e+01
5.000000e+01
5.000000e+01
5.000000e+01
5.000000e+01
5.000000e+01
5.000000e+01
5.000000e+01
5.000000e+01
5.000000e+01
5.000000e+01
5.000000e+01
5.000000e+01
5.000000e+01
5.000000e+01
5.000000e+01
5.000000e+01
5.000000e+01
5.000000e+01
5.000000e+01
5.000000e+01
5.625000e+01
5.625000e+01
5.625000e+01
5.625000e+01
5.625000e+01
5.625000e+01
5.625000e+01
5.625000e+01
5.625000e+01
5.625000e+01
5.625000e+01
5.625000e+01
5.625000e+01
5.625000e+01
5.625000e+01
5.625000e+01
5.625000e+01
5.625000e+01
5.625000e+01
5.625000e+01
5.625000e+01
5.625000e+01
5.625000e+01
5.625000e+01
5.625000e+01
5.625000e+01
5.625000e+01
5.625000e+01
5.625000e+01
5.625000e+01
5.625000e+01
5.625000e+01
5.625000e+01
6.250000e+01
6.250000e+01
6.250000e+01
6.250000e+01
6.250000e+01
6.250000e+01
6.250000e+01
6.250000e+01
6.250000e+01
6.250000e+01
6.250000e+01
6.250000e+01
6.250000e+01
6.250000e+01
6.250000e+01
6.250000e+01
6.250000e+01
6.250000e+01
6.250000e+01
6.250000e+01
6.250000e+01
6.250000e+01
6.250000e+01
6.250000e+01
6.250000e+01
6.250000e+01
6.250000e+01
6.250000e+01
6.250000e+01
6.250000e+01
6.250000e+01
6.250000e+01
6.250000e+01
6.875000e+01
6.875000e+01
6.875000e+01
6.875000e+01
6.875000e+01
6.875000e+01
6.875000e+01
6.875000e+01
6.875000e+01
6.875000e+01
6.875000e+01
6.875000e+01
6.875000e+01
6.875000e+01
6.875000e+01
6.875000e+01
6.875000e+01
6.875000e+01
6.875000e+01
6.875000e+01
6.875000e+01
6.875000e+01
6.875000e+01
6.875000e+01
6.875000e+01
6.875000e+01
6.875000e+01
6.875000e+01
6.875000e+01
6.875000e+01
6.875000e+01
6.875000e+01
6.875000e+01
7.500000e+01
7.500000e+01
7.500000e+01
7.500000e+01
7.500000e+01
7.500000e+01
7.500000e+01
7.500000e+01
7.500000e+01
7.500000e+01
7.500000e+01
7.500000e+01
7.500000e+01
7.500000e+01
7.500000e+01
7.500000e+01
7.500000e+01
7.500000e+01
7.500000e+01
7.500000e+01
7.500000e+01
7.500000e+01
7.500000e+01
7.500000e+01
7.500000e+01
7.500000e+01
7.500000e+01
7.500000e+01
7.500000e+01
7.500000e+01
7.500000e+01
7.500000e+01
7.500000e+01
8.125000e+01
8.125000e+01
8.125000e+01
8.125000e+01
8.125000e+01
8.125000e+01
8.125000e+01
8.125000e+01
8.125000e+01
8.125000e+01
8.125000e+01
8.125000e+01
8.125000e+01
8.125000e+01
8.125000e+01
8.125000e+01
8.125000e+01
8.125000e+01
8.125000e+01
8.125000e+01
8.125000e+01
8.125000e+01
8.125000e+01
8.125000e+01
8.125000e+01
8.125000e+01
8.125000e+01
8.125000e+01
8.125000e+01
8.125000e+01
8.125000e+01
8.125000e+01
8.125000e+01
8.750000e+01
8.750000e+01
8.750000e+01
8.750000e+01
8.750000e+01
8.750000e+01
8.750000e+01
8.750000e+01
8.750000e+01
8.750000e+01
8.750000e+01
8.750000e+01
8.750000e+01
8.750000e+01
8.750000e+01
8.750000e+01
8.750000e+01
8.750000e+01
8.750000e+01
8.750000e+01
8.750000e+01
8.750000e+01
8.750000e+01
8.750000e+01
8.750000e+01
8.750000e+01
8.750000e+01
8.750000e+01
8.750000e+01
8.750000e+01
8.750000e+01
8.750000e+01
8.750000e+01
9.375000e+01
9.375000e+01
9.375000e+01
9.375000e+01
9.375000e+01
9.375000e+01
9.375000e+01
9.375000e+01
9.375000e+01
9.375000e+01
9.375000e+01
9.375000e+01
9.375000e+01
9.375000e+01
9.375000e+01
9.375000e+01
9.375000e+01
9.375000e+01
9.375000e+01
9.375000e+01
9.375000e+01
9.375000e+01
9.375000e+01
9.375000e+01
9.375000e+01
9.375000e+01
9.375000e+01
9.375000e+01
9.375000e+01
9.375000e+01
9.375000e+01
9.375000e+01
9.375000e+01
1.000000e+02
1.000000e+02
1.000000e+02
1.000000e+02
1.000000e+02
1.000000e+02
1.000000e+02
1.000000e+02
1.000000e+02
1.000000e+02
1.000000e+02
1.000000e+02
1.000000e+02
1.000000e+02
1.000000e+02
1.000000e+02
1.000000e+02
1.000000e+02
1.000000e+02
1.000000e+02
1.000000e+02
1.000000e+02
1.000000e+02
1.000000e+02
1.000000e+02
1.000000e+02
1.000000e+02
1.000000e+02
1.000000e+02
1.000000e+02
1.000000e+02
1.000000e+02
1.000000e+02
0.000000e+00
-7.148965e-02
-1.297084e-01
-1.836417e-01
-2.354050e-01
-2.853921e-01
-3.337026e-01
-3.803324e-01
-4.252517e-01
-4.684278e-01
-5.098336e-01
-5.494503e-01
-5.872681e-01
-6.232861e-01
-6.575125e-01
-6.899655e-01
-7.206738e-01
-7.496797e-01
-7.770415e-01
-8.028377e-01
-8.271732e-01
-8.501866e-01
-8.720612e-01
-8.930404e-01
-9.134497e-01
-9.337321e-01
-9.545027e-01
-9.766385e-01
-1.001426e+00
-1.030759e+00
-1.067094e+00
-1.110395e+00
-1.136821e+00
0.000000e+00
-4.793070e-02
-9.972530e-02
-1.485625e-01
-1.949829e-01
-2.394275e-01
-2.821306e-01
-3.231948e-01
-3.626609e-01
-4.005420e-01
-4.368405e-01
-4.715564e-01
-5.046912e-01
-5.362501e-01
-5.662436e-01
-5.946882e-01
-6.216081e-01
-6.470363e-01
-6.710171e-01
-6.936074e-01
-7.148803e-01
-7.349276e-01
-7.538637e-01
-7.718280e-01
-7.889877e-01
-8.055348e-01
-8.216720e-01
-8.375661e-01
-8.532162e-01
-8.681129e-01
-8.805260e-01
-8.877832e-01
-8.978864e-01
0.000000e+00
-3.801828e-02
-7.827022e-02
-1.192546e-01
-1.590806e-01
-1.974405e-01
-2.343093e-01
-2.697217e-01
-3.037089e-01
-3.362923e-01
-3.674854e-01
-3.972980e-01
-4.257382e-01
-4.528143e-01
-4.785362e-01
-5.029163e-01
-5.259705e-01
-5.477185e-01
-5.681847e-01
-5.873982e-01
-6.053927e-01
-6.222044e-01
-6.378692e-01
-6.524147e-01
-6.658468e-01
-6.781224e-01
-6.891009e-01
-6.984593e-01
-7.055646e-01
-7.093906e-01
-7.090552e-01
-7.069070e-01
-7.187047e-01
0.000000e+00
-3.016430e-02
-6.199477e-02
-9.469760e-02
-1.273251e-01
-1.591635e-01
-1.899399e-01
-2.195564e-01
-2.479864e-01
-2.752285e-01
-3.012896e-01
-3.261785e-01
-3.499034e-01
-3.724716e-01
-3.938897e-01
-4.141638e-01
-4.332993e-01
-4.513012e-01
-4.681729e-01
-4.839155e-01
-4.985249e-01
-5.119875e-01
-5.242738e-01
-5.353262e-01
-5.450429e-01
-5.532523e-01
-5.596825e-01
-5.639408e-01
-5.655668e-01
-5.643598e-01
-5.614285e-01
-5.612535e-01
-5.724938e-01
0.000000e+00
-2.341206e-02
-4.793998e-02
-7.325198e-02
-9.877045e-02
-1.239768e-01
-1.485231e-01
-1.722334e-01
-1.950273e-01
-2.168740e-01
-2.377653e-01
-2.577022e-01
-2.766885e-01
-2.947271e-01
-3.118194e-01
-3.279635e-01
-3.431545e-01
-3.573832e-01
-3.706348e-01
-3.828871e-01
-3.941071e-01
-4.042469e-01
-4.132370e-01
-4.209787e-01
-4.273352e-01
-4.321265e-01
-4.351416e-01
-4.361992e-01
-4.353316e-01
-4.332085e-01
-4.318311e-01
-4.350118e-01
-4.446003e-01
0.000000e+00
-1.720671e-02
-3.515063e-02
-5.367132e-02
-7.244898e-02
-9.113316e-02
-1.094456e-01
-1.272054e-01
-1.443132e-01
-1.607206e-01
-1.764072e-01
-1.913658e-01
-2.055936e-01
-2.190882e-01
-2.318443e-01
-2.438529e-01
-2.550996e-01
-2.655638e-01
-2.752173e-01
-2.840222e-01
-2.919288e-01
-2.988732e-01
-3.047740e-01
-3.095323e-01
-3.130352e-01
-3.151725e-01
-3.158816e-01
-3.152453e-01
-3.136768e-01
-3.121845e-01
-3.125478e-01
-3.166026e-01
-3.245365e-01
0.000000e+00
-1.132417e-02
-2.309627e-02
-3.524197e-02
-4.758818e-02
-5.992716e-02
-7.207287e-02
-8.388965e-02
-9.529258e-02
-1.062348e-01
-1.166925e-01
-1.266538e-01
-1.361111e-01
-1.450563e-01
-1.534787e-01
-1.613629e-01
-1.686875e-01
-1.754243e-01
-1.815372e-01
-1.869812e-01
-1.917015e-01
-1.956341e-01
-1.987075e-01
-2.008493e-01
-2.020000e-01
-2.021427e-01
-2.013559e-01
-1.998999e-01
-1.983287e-01
-1.975670e-01
-1.987552e-01
-2.027030e-01
-2.091075e-01
0.000000e+00
-5.624735e-03
-1.146213e-02
-1.748223e-02
-2.360907e-02
-2.974588e-02
-3.580078e-02
-4.170185e-02
-4.740046e-02
-5.286692e-02
-5.808360e-02
-6.303885e-02
-6.772248e-02
-7.212288e-02
-7.622503e-02
-8.000920e-02
-8.344999e-02
-8.651563e-02
-8.916757e-02
-9.136062e-02
-9.304408e-02
-9.416464e-02
-9.467223e-02
-9.453100e-02
-9.373816e-02
-9.235421e-02
-9.054661e-02
-8.864200e-02
-8.716345e-02
-8.679303e-02
-8.818709e-02
-9.163104e-02
-9.671280e-02
0.000000e+00
-9.074298e-06
-1.967626e-05
-3.121829e-05
-4.309307e-05
-5.448189e-05
-6.415081e-05
-7.022456e-05
-6.992236e-05
-5.923985e-05
-3.256523e-05
1.777734e-05
1.020562e-04
2.337213e-04
4.300247e-04
7.126202e-04
1.108048e-03
1.647956e-03
2.368816e-03
3.310778e-03
4.515124e-03
6.019534e-03
7.850106e-03
1.000883e-02
1.245526e-02
1.508225e-02
1.768865e-02
1.995945e-02
2.147533e-02
2.178277e-02
2.054504e-02
1.774194e-02
1.381603e-02
0.000000e+00
5.607645e-03
1.142499e-02
1.742319e-02
2.352738e-02
2.964231e-02
3.567838e-02
4.156715e-02
4.726521e-02
5.275032e-02
5.801540e-02
6.306318e-02
6.790280e-02
7.254797e-02
7.701622e-02
8.132875e-02
8.551048e-02
8.958978e-02
9.359774e-02
9.756640e-02
1.015254e-01
1.054965e-01
1.094854e-01
1.134700e-01
1.173854e-01
1.211081e-01
1.244433e-01
1.271258e-01
1.288494e-01
1.293374e-01
1.284536e-01
1.263243e-01
1.234105e-01
0.000000e+00
1.131021e-02
2.306573e-02
3.519307e-02
4.751999e-02
5.983990e-02
7.196852e-02
8.377299e-02
9.517249e-02
1.061262e-01
1.166188e-01
1.266500e-01
1.362280e-01
1.453656e-01
1.540787e-01
1.623860e-01
1.703082e-01
1.778678e-01
1.850884e-01
1.919922e-01
1.985972e-01
2.049117e-01
2.109270e-01
2.166086e-01
2.218849e-01
2.266390e-01
2.307054e-01
2.338815e-01
2.359603e-01
2.367914e-01
2.363641e-01
2.348906e-01
2.328570e-01
0.000000e+00
1.719781e-02
3.513080e-02
5.363903e-02
7.240312e-02
9.107330e-02
1.093724e-01
1.271211e-01
1.442227e-01
1.606326e-01
1.763358e-01
1.913324e-01
2.056302e-01
2.192402e-01
2.321751e-01
2.444487e-01
2.560753e-01
2.670697e-01
2.774460e-01
2.872161e-01
2.963868e-01
3.049559e-01
3.129069e-01
3.202023e-01
3.267775e-01
3.325369e-01
3.373566e-01
3.410971e-01
3.436338e-01
3.449049e-01
3.449764e-01
3.441120e-01
3.428268e-01
0.000000e+00
2.340986e-02
4.793447e-02
7.324211e-02
9.875518e-02
1.239552e-01
1.484948e-01
1.721981e-01
1.949859e-01
2.168283e-01
2.377188e-01
2.576609e-01
2.766619e-01
2.947294e-01
3.118712e-01
3.280941e-01
3.434041e-01
3.578063e-01
3.713041e-01
3.838980e-01
3.955844e-01
4.063523e-01
4.161810e-01
4.250366e-01
4.328693e-01
4.396133e-01
4.451914e-01
4.495266e-01
4.525649e-01
4.543104e-01
4.548766e-01
4.545521e-01
4.538750e-01
0.000000e+00
3.016993e-02
6.200621e-02
9.471461e-02
1.273472e-01
1.591901e-01
1.899700e-01
2.195885e-01
2.480181e-01
2.752559e-01
3.013069e-01
3.261769e-01
3.498705e-01
3.723902e-01
3.937364e-01
4.139073e-01
4.328989e-01
4.507052e-01
4.673171e-01
4.827229e-01
4.969070e-01
5.098495e-01
5.215260e-01
5.319068e-01
5.409588e-01
5.486481e-01
5.549459e-01
5.598379e-01
5.633391e-01
5.655150e-01
5.665158e-01
5.666351e-01
5.664105e-01
0.000000e+00
3.803199e-02
7.829948e-02
1.193004e-01
1.591439e-01
1.975218e-01
2.344089e-01
2.698385e-01
3.038396e-01
3.364301e-01
3.676185e-01
3.974074e-01
4.257945e-01
4.527744e-01
4.783385e-01
5.024753e-01
5.251698e-01
5.464033e-01
5.661534e-01
5.843938e-01
6.010943e-01
6.162225e-01
6.297455e-01
6.416329e-01
6.518622e-01
6.604255e-01
6.673383e-01
6.726494e-01
6.764505e-01
6.788850e-01
6.801593e-01
6.805743e-01
6.806238e-01
0.000000e+00
4.795127e-02
9.977025e-02
1.486348e-01
1.950860e-01
2.395650e-01
2.823055e-01
3.234088e-01
3.629131e-01
4.008273e-01
4.371473e-01
4.718626e-01
5.049604e-01
5.364252e-01
5.662391e-01
5.943808e-01
6.208245e-01
6.455390e-01
6.684872e-01
6.896257e-01
7.089057e-01
7.262751e-01
7.416828e-01
7.550844e-01
7.664521e-01
7.757865e-01
7.831316e-01
7.885910e-01
7.923413e-01
7.946392e-01
7.958132e-01
7.962389e-01
7.963432e-01
0.000000e+00
7.151218e-02
1.297610e-01
1.837317e-01
2.355397e-01
2.855787e-01
3.339489e-01
3.806454e-01
4.256373e-01
4.688883e-01
5.103651e-01
5.500386e-01
5.878834e-01
6.238750e-01
6.579883e-01
6.901948e-01
7.204599e-01
7.487415e-01
7.749879e-01
7.991367e-01
8.211152e-01
8.408424e-01
8.582337e-01
8.732091e-01
8.857069e-01
8.957018e-01
9.032294e-01
9.084152e-01
9.115061e-01
9.128988e-01
9.131520e-01
9.129423e-01
9.128243e-01
0.000000e+00
-4.417955e-02
-7.710512e-02
-1.130364e-01
-1.530485e-01
-1.982461e-01
-2.489435e-01
-3.052288e-01
-3.670460e-01
-4.342628e-01
-5.067011e-01
-5.841560e-01
-6.664067e-01
-7.532229e-01
-8.443700e-01
-9.396116e-01
-1.038713e+00
-1.141442e+00
-1.247577e+00
-1.356908e+00
-1.469243e+00
-1.584423e+00
-1.702334e+00
-1.822930e+00
-1.946271e+00
-2.072586e+00
-2.202377e+00
-2.336623e+00
-2.477200e+00
-2.627819e+00
-2.796487e+00
-3.002097e+00
-3.286162e+00
0.000000e+00
-2.745601e-02
-6.192019e-02
-9.809316e-02
-1.386623e-01
-1.843505e-01
-2.355402e-01
-2.923178e-01
-3.546323e-01
-4.223513e-01
-4.952957e-01
-5.732589e-01
-6.560183e-01
-7.433416e-01
-8.349921e-01
-9.307310e-01
-1.030320e+00
-1.133526e+00
-1.240120e+00
-1.349887e+00
-1.462631e+00
-1.578182e+00
-1.696417e+00
-1.817276e+00
-1.940804e+00
-2.067207e+00
-2.196963e+00
-2.331020e+00
-2.471213e+00
-2.621193e+00
-2.788558e+00
-2.989591e+00
-3.254979e+00
0.000000e+00
-2.016821e-02
-4.992027e-02
-8.559946e-02
-1.262390e-01
-1.722634e-01
-2.238567e-01
-2.810668e-01
-3.438248e-01
-4.119922e-01
-4.853868e-01
-5.638005e-01
-6.470094e-01
-7.347807e-01
-8.268766e-01
-9.230575e-01
-1.023084e+00
-1.126721e+00
-1.233739e+00
-1.343921e+00
-1.457068e+00
-1.573011e+00
-1.691625e+00
-1.812852e+00
-1.936742e+00
-2.063514e+00
-2.193665e+00
-2.328168e+00
-2.468837e+00
-2.618957e+00
-2.784145e+00
-2.971033e+00
-3.178350e+00
0.000000e+00
-1.615033e-02
-4.227306e-02
-7.604951e-02
-1.161664e-01
-1.621762e-01
-2.139899e-01
-2.715201e-01
-3.346431e-01
-4.031948e-01
-4.769813e-01
-5.557895e-01
-6.393935e-01
-7.275600e-01
-8.200516e-01
-9.166291e-01
-1.017054e+00
-1.121092e+00
-1.228515e+00
-1.339108e+00
-1.452675e+00
-1.569049e+00
-1.688113e+00
-1.809818e+00
-1.934226e+00
-2.061566e+00
-2.192330e+00
-2.327416e+00
-2.468307e+00
-2.617168e+00
-2.776073e+00
-2.943668e+00
-3.099681e+00
0.000000e+00
-1.366646e-02
-3.727233e-02
-6.926820e-02
-1.084704e-01
-1.541783e-01
-2.060111e-01
-2.637280e-01
-3.271205e-01
-3.959815e-01
-4.700958e-01
-5.492401e-01
-6.331848e-01
-7.216956e-01
-8.145361e-01
-9.114687e-01
-1.012258e+00
-1.116671e+00
-1.224483e+00
-1.335484e+00
-1.449480e+00
-1.566312e+00
-1.685866e+00
-1.808096e+00
-1.933060e+00
-2.060960e+00
-2.192195e+00
-2.327413e+00
-2.467466e+00
-2.613042e+00
-2.763446e+00
-2.913156e+00
-3.049023e+00
0.000000e+00
-1.208598e-02
-3.399134e-02
-6.460175e-02
-1.029214e-01
-1.482009e-01
-1.999208e-01
-2.577113e-01
-3.212812e-01
-3.903740e-01
-4.647480e-01
-5.441667e-01
-6.283947e-01
-7.171969e-01
-8.103378e-01
-9.075824e-01
-1.008698e+00
-1.113455e+00
-1.221634e+00
-1.333026e+00
-1.447441e+00
-1.564720e+00
-1.684747e+00
-1.807462e+00
-1.932888e+00
-2.061145e+00
-2.192460e+00
-2.327116e+00
-2.465268e+00
-2.606453e+00
-2.748516e+00
-2.886383e+00
-3.012391e+00
0.000000e+00
-1.110373e-02
-3.191697e-02
-6.156853e-02
-9.920409e-02
-1.440933e-01
-1.956594e-01
-2.534570e-01
-3.171316e-01
-3.863849e-01
-4.609504e-01
-5.405786e-01
-6.250290e-01
-7.140653e-01
-8.074534e-01
-9.049610e-01
-1.006358e+00
-1.111420e+00
-1.219927e+00
-1.331673e+00
-1.446467e+00
-1.564143e+00
-1.684568e+00
-1.807651e+00
-1.933350e+00
-2.061667e+00
-2.192614e+00
-2.326114e+00
-2.461785e+00
-2.598519e+00
-2.733953e+00
-2.864180e+00
-2.984415e+00
0.000000e+00
-1.056397e-02
-3.076596e-02
-5.985926e-02
-9.707254e-02
-1.417007e-01
-1.931484e-01
-2.509332e-01
-3.146644e-01
-3.840169e-01
-4.587078e-01
-5.384789e-01
-6.230865e-01
-7.122941e-01
-8.058694e-01
-9.035826e-01
-1.005207e+00
-1.110518e+00
-1.219299e+00
-1.331341e+00
-1.446445e+00
-1.564433e+00
-1.685141e+00
-1.808433e+00
-1.934184e+00
-2.062264e+00
-2.192485e+00
-2.324492e+00
-2.457580e+00
-2.590440e+00
-2.720937e+00
-2.846136e+00
-2.962768e+00
0.000000e+00
-1.039006e-02
-3.039462e-02
-5.930528e-02
-9.637785e-02
-1.409176e-01
-1.923259e-01
-2.501097e-01
-3.138677e-01
-3.832666e-01
-4.580187e-01
-5.378641e-01
-6.225593e-01
-7.118694e-01
-8.055644e-01
-9.034169e-01
-1.005202e+00
-1.110696e+00
-1.219680e+00
-1.331940e+00
-1.447266e+00
-1.565456e+00
-1.686314e+00
-1.809646e+00
-1.935242e+00
-2.062853e+00
-2.192132e+00
-2.322546e+00
-2.453253e+00
-2.582965e+00
-2.709876e+00
-2.831745e+00
-2.946179e+00
0.000000e+00
-1.055893e-02
-3.075898e-02
-5.985325e-02
-9.707073e-02
-1.417070e-01
-1.931683e-01
-2.509735e-01
-3.147344e-01
-3.841289e-01
-4.588772e-01
-5.387255e-01
-6.234345e-01
-7.127727e-01
-8.065129e-01
-9.044296e-01
-1.006299e+00
-1.111897e+00
-1.221000e+00
-1.333386e+00
-1.448831e+00
-1.567107e+00
-1.687981e+00
-1.811200e+00
-1.936480e+00
-2.063473e+00
-2.191723e+00
-2.320606e+00
-2.449254e+00
-2.576495e+00
-2.700841e+00
-2.820556e+00
-2.933815e+00
0.000000e+00
-1.109407e-02
-3.190357e-02
-6.155694e-02
-9.920047e-02
-1.441053e-01
-1.956972e-01
-2.535339e-01
-3.172655e-01
-3.865990e-01
-4.612747e-01
-5.410509e-01
-6.256959e-01
-7.149831e-01
-8.086879e-01
-9.065867e-01
-1.008455e+00
-1.114068e+00
-1.223198e+00
-1.335610e+00
-1.451066e+00
-1.569313e+00
-1.690079e+00
-1.813063e+00
-1.937916e+00
-2.064217e+00
-2.191447e+00
-2.318943e+00
-2.445873e+00
-2.571212e+00
-2.693755e+00
-2.812164e+00
-2.925038e+00
0.000000e+00
-1.207255e-02
-3.397271e-02
-6.458557e-02
-1.029162e-01
-1.482174e-01
-1.999730e-01
-2.578181e-01
-3.214675e-01
-3.906725e-01
-4.652007e-01
-5.448263e-01
-6.293268e-01
-7.184804e-01
-8.120652e-01
-9.098586e-01
-1.011636e+00
-1.117169e+00
-1.226224e+00
-1.338560e+00
-1.453919e+00
-1.572027e+00
-1.692581e+00
-1.815236e+00
-1.939596e+00
-2.065191e+00
-2.191464e+00
-2.317751e+00
-2.443278e+00
-2.567166e+00
-2.688464e+00
-2.806178e+00
-2.919284e+00
0.000000e+00
-1.365064e-02
-3.725040e-02
-6.924913e-02
-1.084644e-01
-1.541982e-01
-2.060741e-01
-2.638568e-01
-3.273455e-01
-3.963421e-01
-4.706428e-01
-5.500377e-01
-6.343120e-01
-7.232483e-01
-8.166263e-01
-9.142239e-01
-1.015815e+00
-1.121170e+00
-1.230049e+00
-1.342201e+00
-1.457359e+00
-1.575227e+00
-1.695477e+00
-1.817735e+00
-1.941570e+00
-2.066481e+00
-2.191892e+00
-2.317150e+00
-2.441543e+00
-2.564327e+00
-2.684772e+00
-2.802203e+00
-2.915992e+00
0.000000e+00
-1.613408e-02
-4.225055e-02
-7.603013e-02
-1.161613e-01
-1.621996e-01
-2.140608e-01
-2.716640e-01
-3.348934e-01
-4.035950e-01
-4.775877e-01
-5.566727e-01
-6.406409e-01
-7.292770e-01
-8.223618e-01
-9.196725e-01
-1.020982e+00
-1.126058e+00
-1.234657e+00
-1.346521e+00
-1.461373e+00
-1.578905e+00
-1.698771e+00
-1.820578e+00
-1.943872e+00
-2.068135e+00
-2.192784e+00
-2.317183e+00
-2.440668e+00
-2.562605e+00
-2.682450e+00
-2.799830e+00
-2.914556e+00
0.000000e+00
-2.015405e-02
-4.990057e-02
-8.558310e-02
-1.262374e-01
-1.722919e-01
-2.239351e-01
-2.812215e-01
-3.440907e-01
-4.124145e-01
-4.860234e-01
-5.647243e-01
-6.483103e-01
-7.365667e-01
-8.292740e-01
-9.262087e-01
-1.027142e+00
-1.131840e+00
-1.240055e+00
-1.351527e+00
-1.465971e+00
-1.583071e+00
-1.702474e+00
-1.823774e+00
-1.946508e+00
-2.070154e+00
-2.194128e+00
-2.317808e+00
-2.440570e+00
-2.561851e+00
-2.681247e+00
-2.798637e+00
-2.914306e+00
0.000000e+00
-2.744692e-02
-6.190680e-02
-9.808356e-02
-1.386683e-01
-1.843876e-01
-2.356284e-01
-2.924838e-01
-3.549108e-01
-4.227871e-01
-4.959459e-01
-5.741951e-01
-6.573279e-01
-7.451294e-01
-8.373792e-01
-9.338526e-01
-1.034320e+00
-1.138544e+00
-1.246277e+00
-1.357253e+00
-1.471185e+00
-1.587756e+00
-1.706606e+00
-1.827328e+00
-1.949461e+00
-2.072484e+00
-2.195825e+00
-2.318878e+00
-2.441048e+00
-2.561815e+00
-2.680855e+00
-2.798206e+00
-2.914519e+00
0.000000e+00
-4.417828e-02
-7.710068e-02
-1.130373e-01
-1.530666e-01
-1.982970e-01
-2.490473e-01
-3.054118e-01
-3.673422e-01
-4.347158e-01
-5.073658e-01
-5.851007e-01
-6.677137e-01
-7.549896e-01
-8.467075e-01
-9.426413e-01
-1.042559e+00
-1.146222e+00
-1.253379e+00
-1.363763e+00
-1.477082e+00
-1.593018e+00
-1.711211e+00