TITLE = "Solution"
VARIABLES = x, y, u, v, psiu, psiv, t, stress
ZONE T="structure" N=561 E=512 F=FEBLOCK ET=QUADRILATERAL VARLOCATION=([7,8]=cellcentered)
0.000000e+00
6.250000e+00
1.250000e+01
1.875000e+01
2.500000e+01
3.125000e+01
3.750000e+01
4.375000e+01
5.000000e+01
5.625000e+01
6.250000e+01
6.875000e+01
7.500000e+01
8.125000e+01
8.750000e+01
9.375000e+01
1.000000e+02
1.062500e+02
1.125000e+02
1.187500e+02
1.250000e+02
1.312500e+02
1.375000e+02
1.437500e+02
1.500000e+02
1.562500e+02
1.625000e+02
1.687500e+02
1.750000e+02
1.812500e+02
1.875000e+02
1.937500e+02
2.000000e+02
0.000000e+00
6.250000e+00
1.250000e+01
1.875000e+01
2.500000e+01
3.125000e+01
3.750000e+01
4.375000e+01
5.000000e+01
5.625000e+01
6.250000e+01
6.875000e+01
7.500000e+01
8.125000e+01
8.750000e+01
9.375000e+01
1.000000e+02
1.062500e+02
1.125000e+02
1.187500e+02
1.250000e+02
1.312500e+02
1.375000e+02
1.437500e+02
1.500000e+02
1.562500e+02
1.625000e+02
1.687500e+02
1.750000e+02
1.812500e+02
1.875000e+02
1.937500e+02
2.000000e+02
0.000000e+00
6.250000e+00
1.250000e+01
1.875000e+01
2.500000e+01
3.125000e+01
3.750000e+01
4.375000e+01
5.000000e+01
5.625000e+01
6.250000e+01
6.875000e+01
7.500000e+01
8.125000e+01
8.750000e+01
9.375000e+01
1.000000e+02
1.062500e+02
1.125000e+02
1.187500e+02
1.250000e+02
1.312500e+02
1.375000e+02
1.437500e+02
1.500000e+02
1.562500e+02
1.625000e+02
1.687500e+02
1.750000e+02
1.812500e+02
1.875000e+02
1.937500e+02
2.000000e+02
0.000000e+00
6.250000e+00
1.250000e+01
1.875000e+01
2.500000e+01
3.125000e+01
3.750000e+01
4.375000e+01
5.000000e+01
5.625000e+01
6.250000e+01
6.875000e+01
7.500000e+01
8.125000e+01
8.750000e+01
9.375000e+01
1.000000e+02
1.062500e+02
1.125000e+02
1.187500e+02
1.250000e+02
1.312500e+02
1.375000e+02
1.437500e+02
1.500000e+02
1.562500e+02
1.625000e+02
1.687500e+02
1.750000e+02
1.812500e+02
1.875000e+02
1.937500e+02
2.000000e+02
0.000000e+00
6.250000e+00
1.250000e+01
1.875000e+01
2.500000e+01
3.125000e+01
3.750000e+01
4.375000e+01
5.000000e+01
5.625000e+01
6.250000e+01
6.875000e+01
7.500000e+01
8.125000e+01
8.750000e+01
9.375000e+01
1.000000e+02
1.062500e+02
1.125000e+02
1.187500e+02
1.250000e+02
1.312500e+02
1.375000e+02
1.437500e+02
1.500000e+02
1.562500e+02
1.625000e+02
1.687500e+02
1.750000e+02
1.812500e+02
1.875000e+02
1.937500e+02
2.000000e+02
0.000000e+00
6.250000e+00
1.250000e+01
1.875000e+01
2.500000e+01
3.125000e+01
3.750000e+01
4.375000e+01
5.000000e+01
5.625000e+01
6.250000e+01
6.875000e+01
7.500000e+01
8.125000e+01
8.750000e+01
9.375000e+01
1.000000e+02
1.062500e+02
1.125000e+02
1.187500e+02
1.250000e+02
1.312500e+02
1.375000e+02
1.437500e+02
1.500000e+02
1.562500e+02
1.625000e+02
1.687500e+02
1.750000e+02
1.812500e+02
1.875000e+02
1.937500e+02
2.000000e+02
0.000000e+00
6.250000e+00
1.250000e+01
1.875000e+01
2.500000e+01
3.125000e+01
3.750000e+01
4.375000e+01
5.000000e+01
5.625000e+01
6.250000e+01
6.875000e+01
7.500000e+01
8.125000e+01
8.750000e+01
9.375000e+01
1.000000e+02
1.062500e+02
1.125000e+02
1.187500e+02
1.250000e+02
1.312500e+02
1.375000e+02
1.437500e+02
1.500000e+02
1.562500e+02
1.625000e+02
1.687500e+02
1.750000e+02
1.812500e+02
1.875000e+02
1.937500e+02
2.000000e+02
0.000000e+00
6.250000e+00
1.250000e+01
1.875000e+01
2.500000e+01
3.125000e+01
3.750000e+01
4.375000e+01
5.000000e+01
5.625000e+01
6.250000e+01
6.875000e+01
7.500000e+01
8.125000e+01
8.750000e+01
9.375000e+01
1.000000e+02
1.062500e+02
1.125000e+02
1.187500e+02
1.250000e+02
1.312500e+02
1.375000e+02
1.437500e+02
1.500000e+02
1.562500e+02
1.625000e+02
1.687500e+02
1.750000e+02
1.812500e+02
1.875000e+02
1.937500e+02
2.000000e+02
0.000000e+00
6.250000e+00
1.250000e+01
1.875000e+01
2.500000e+01
3.125000e+01
3.750000e+01
4.375000e+01
5.000000e+01
5.625000e+01
6.250000e+01
6.875000e+01
7.500000e+01
8.125000e+01
8.750000e+01
9.375000e+01
1.000000e+02
1.062500e+02
1.125000e+02
1.187500e+02
1.250000e+02
1.312500e+02
1.375000e+02
1.437500e+02
1.500000e+02
1.562500e+02
1.625000e+02
1.687500e+02
1.750000e+02
1.812500e+02
1.875000e+02
1.937500e+02
2.000000e+02
0.000000e+00
6.250000e+00
1.250000e+01
1.875000e+01
2.500000e+01
3.125000e+01
3.750000e+01
4.375000e+01
5.000000e+01
5.625000e+01
6.250000e+01
6.875000e+01
7.500000e+01
8.125000e+01
8.750000e+01
9.375000e+01
1.000000e+02
1.062500e+02
1.125000e+02
1.187500e+02
1.250000e+02
1.312500e+02
1.375000e+02
1.437500e+02
1.500000e+02
1.562500e+02
1.625000e+02
1.687500e+02
1.750000e+02
1.812500e+02
1.875000e+02
1.937500e+02
2.000000e+02
0.000000e+00
6.250000e+00
1.250000e+01
1.875000e+01
2.500000e+01
3.125000e+01
3.750000e+01
4.375000e+01
5.000000e+01
5.625000e+01
6.250000e+01
6.875000e+01
7.500000e+01
8.125000e+01
8.750000e+01
9.375000e+01
1.000000e+02
1.062500e+02
1.125000e+02
1.187500e+02
1.250000e+02
1.312500e+02
1.375000e+02
1.437500e+02
1.500000e+02
1.562500e+02
1.625000e+02
1.687500e+02
1.750000e+02
1.812500e+02
1.875000e+02
1.937500e+02
2.000000e+02
0.000000e+00
6.250000e+00
1.250000e+01
1.875000e+01
2.500000e+01
3.125000e+01
3.750000e+01
4.375000e+01
5.000000e+01
5.625000e+01
6.250000e+01
6.875000e+01
7.500000e+01
8.125000e+01
8.750000e+01
9.375000e+01
1.000000e+02
1.062500e+02
1.125000e+02
1.187500e+02
1.250000e+02
1.312500e+02
1.375000e+02
1.437500e+02
1.500000e+02
1.562500e+02
1.625000e+02
1.687500e+02
1.750000e+02
1.812500e+02
1.875000e+02
1.937500e+02
2.000000e+02
0.000000e+00
6.250000e+00
1.250000e+01
1.875000e+01
2.500000e+01
3.125000e+01
3.750000e+01
4.375000e+01
5.000000e+01
5.625000e+01
6.250000e+01
6.875000e+01
7.500000e+01
8.125000e+01
8.750000e+01
9.375000e+01
1.000000e+02
1.062500e+02
1.125000e+02
1.187500e+02
1.250000e+02
1.312500e+02
1.375000e+02
1.437500e+02
1.500000e+02
1.562500e+02
1.625000e+02
1.687500e+02
1.750000e+02
1.812500e+02
1.875000e+02
1.937500e+02
2.000000e+02
0.000000e+00
6.250000e+00
1.250000e+01
1.875000e+01
2.500000e+01
3.125000e+01
3.750000e+01
4.375000e+01
5.000000e+01
5.625000e+01
6.250000e+01
6.875000e+01
7.500000e+01
8.125000e+01
8.750000e+01
9.375000e+01
1.000000e+02
1.062500e+02
1.125000e+02
1.187500e+02
1.250000e+02
1.312500e+02
1.375000e+02
1.437500e+02
1.500000e+02
1.562500e+02
1.625000e+02
1.687500e+02
1.750000e+02
1.812500e+02
1.875000e+02
1.937500e+02
2.000000e+02
0.000000e+00
6.250000e+00
1.250000e+01
1.875000e+01
2.500000e+01
3.125000e+01
3.750000e+01
4.375000e+01
5.000000e+01
5.625000e+01
6.250000e+01
6.875000e+01
7.500000e+01
8.125000e+01
8.750000e+01
9.375000e+01
1.000000e+02
1.062500e+02
1.125000e+02
1.187500e+02
1.250000e+02
1.312500e+02
1.375000e+02
1.437500e+02
1.500000e+02
1.562500e+02
1.625000e+02
1.687500e+02
1.750000e+02
1.812500e+02
1.875000e+02
1.937500e+02
2.000000e+02
0.000000e+00
6.250000e+00
1.250000e+01
1.875000e+01
2.500000e+01
3.125000e+01
3.750000e+01
4.375000e+01
5.000000e+01
5.625000e+01
6.250000e+01
6.875000e+01
7.500000e+01
8.125000e+01
8.750000e+01
9.375000e+01
1.000000e+02
1.062500e+02
1.125000e+02
1.187500e+02
1.250000e+02
1.312500e+02
1.375000e+02
1.437500e+02
1.500000e+02
1.562500e+02
1.625000e+02
1.687500e+02
1.750000e+02
1.812500e+02
1.875000e+02
1.937500e+02
2.000000e+02
0.000000e+00
6.250000e+00
1.250000e+01
1.875000e+01
2.500000e+01
3.125000e+01
3.750000e+01
4.375000e+01
5.000000e+01
5.625000e+01
6.250000e+01
6.875000e+01
7.500000e+01
8.125000e+01
8.750000e+01
9.375000e+01
1.000000e+02
1.062500e+02
1.125000e+02
1.187500e+02
1.250000e+02
1.312500e+02
1.375000e+02
1.437500e+02
1.500000e+02
1.562500e+02
1.625000e+02
1.687500e+02
1.750000e+02
1.812500e+02
1.875000e+02
1.937500e+02
2.000000e+02
0.000000e+00
0.000000e+00
0.000000e+00
0.000000e+00
0.000000e+00
0.000000e+00
0.000000e+00
0.000000e+00
0.000000e+00
0.000000e+00
0.000000e+00
0.000000e+00
0.000000e+00
0.000000e+00
0.000000e+00
0.000000e+00
0.000000e+00
0.000000e+00
0.000000e+00
0.000000e+00
0.000000e+00
0.000000e+00
0.000000e+00
0.000000e+00
0.000000e+00
0.000000e+00
0.000000e+00
0.000000e+00
0.000000e+00
0.000000e+00
0.000000e+00
0.000000e+00
0.000000e+00
6.250000e+00
6.250000e+00
6.250000e+00
6.250000e+00
6.250000e+00
6.250000e+00
6.250000e+00
6.250000e+00
6.250000e+00
6.250000e+00
6.250000e+00
6.250000e+00
6.250000e+00
6.250000e+00
6.250000e+00
6.250000e+00
6.250000e+00
6.250000e+00
6.250000e+00
6.250000e+00
6.250000e+00
6.250000e+00
6.250000e+00
6.250000e+00
6.250000e+00
6.250000e+00
6.250000e+00
6.250000e+00
6.250000e+00
6.250000e+00
6.250000e+00
6.250000e+00
6.250000e+00
1.250000e+01
1.250000e+01
1.250000e+01
1.250000e+01
1.250000e+01
1.250000e+01
1.250000e+01
1.250000e+01
1.250000e+01
1.250000e+01
1.250000e+01
1.250000e+01
1.250000e+01
1.250000e+01
1.250000e+01
1.250000e+01
1.250000e+01
1.250000e+01
1.250000e+01
1.250000e+01
1.250000e+01
1.250000e+01
1.250000e+01
1.250000e+01
1.250000e+01
1.250000e+01
1.250000e+01
1.250000e+01
1.250000e+01
1.250000e+01
1.250000e+01
1.250000e+01
1.250000e+01
1.875000e+01
1.875000e+01
1.875000e+01
1.875000e+01
1.875000e+01
1.875000e+01
1.875000e+01
1.875000e+01
1.875000e+01
1.875000e+01
1.875000e+01
1.875000e+01
1.875000e+01
1.875000e+01
1.875000e+01
1.875000e+01
1.875000e+01
1.875000e+01
1.875000e+01
1.875000e+01
1.875000e+01
1.875000e+01
1.875000e+01
1.875000e+01
1.875000e+01
1.875000e+01
1.875000e+01
1.875000e+01
1.875000e+01
1.875000e+01
1.875000e+01
1.875000e+01
1.875000e+01
2.500000e+01
2.500000e+01
2.500000e+01
2.500000e+01
2.500000e+01
2.500000e+01
2.500000e+01
2.500000e+01
2.500000e+01
2.500000e+01
2.500000e+01
2.500000e+01
2.500000e+01
2.500000e+01
2.500000e+01
2.500000e+01
2.500000e+01
2.500000e+01
2.500000e+01
2.500000e+01
2.500000e+01
2.500000e+01
2.500000e+01
2.500000e+01
2.500000e+01
2.500000e+01
2.500000e+01
2.500000e+01
2.500000e+01
2.500000e+01
2.500000e+01
2.500000e+01
2.500000e+01
3.125000e+01
3.125000e+01
3.125000e+01
3.125000e+01
3.125000e+01
3.125000e+01
3.125000e+01
3.125000e+01
3.125000e+01
3.125000e+01
3.125000e+01
3.125000e+01
3.125000e+01
3.125000e+01
3.125000e+01
3.125000e+01
3.125000e+01
3.125000e+01
3.125000e+01
3.125000e+01
3.125000e+01
3.125000e+01
3.125000e+01
3.125000e+01
3.125000e+01
3.125000e+01
3.125000e+01
3.125000e+01
3.125000e+01
3.125000e+01
3.125000e+01
3.125000e+01
3.125000e+01
3.750000e+01
3.750000e+01
3.750000e+01
3.750000e+01
3.750000e+01
3.750000e+01
3.750000e+01
3.750000e+01
3.750000e+01
3.750000e+01
3.750000e+01
3.750000e+01
3.750000e+01
3.750000e+01
3.750000e+01
3.750000e+01
3.750000e+01
3.750000e+01
3.750000e+01
3.750000e+01
3.750000e+01
3.750000e+01
3.750000e+01
3.750000e+01
3.750000e+01
3.750000e+01
3.750000e+01
3.750000e+01
3.750000e+01
3.750000e+01
3.750000e+01
3.750000e+01
3.750000e+01
4.375000e+01
4.375000e+01
4.375000e+01
4.375000e+01
4.375000e+01
4.375000e+01
4.375000e+01
4.375000e+01
4.375000e+01
4.375000e+01
4.375000e+01
4.375000e+01
4.375000e+01
4.375000e+01
4.375000e+01
4.375000e+01
4.375000e+01
4.375000e+01
4.375000e+01
4.375000e+01
4.375000e+01
4.375000e+01
4.375000e+01
4.375000e+01
4.375000e+01
4.375000e+01
4.375000e+01
4.375000e+01
4.375000e+01
4.375000e+01
4.375000e+01
4.375000e+01
4.375000e+01
5.000000e+01
5.000000e+01
5.000000e+01
5.000000e+01
5.000000e+01
5.000000e+01
5.000000e+01
5.000000e+01
5.000000e+01
5.000000e+01
5.000000e+01
5.000000e+01
5.000000e+01
5.000000e+01
5.000000e+01
5.000000e+01
5.000000e+01
5.000000e+01
5.000000e+01
5.000000e+01
5.000000e+01
5.000000e+01
5.000000e+01
5.000000e+01
5.000000e+01
5.000000e+01
5.000000e+01
5.000000e+01
5.000000e+01
5.000000e+01
5.000000e+01
5.000000e+01
5.000000e+01
5.625000e+01
5.625000e+01
5.625000e+01
5.625000e+01
5.625000e+01
5.625000e+01
5.625000e+01
5.625000e+01
5.625000e+01
5.625000e+01
5.625000e+01
5.625000e+01
5.625000e+01
5.625000e+01
5.625000e+01
5.625000e+01
5.625000e+01
5.625000e+01
5.625000e+01
5.625000e+01
5.625000e+01
5.625000e+01
5.625000e+01
5.625000e+01
5.625000e+01
5.625000e+01
5.625000e+01
5.625000e+01
5.625000e+01
5.625000e+01
5.625000e+01
5.625000e+01
5.625000e+01
6.250000e+01
6.250000e+01
6.250000e+01
6.250000e+01
6.250000e+01
6.250000e+01
6.250000e+01
6.250000e+01
6.250000e+01
6.250000e+01
6.250000e+01
6.250000e+01
6.250000e+01
6.250000e+01
6.250000e+01
6.250000e+01
6.250000e+01
6.250000e+01
6.250000e+01
6.250000e+01
6.250000e+01
6.250000e+01
6.250000e+01
6.250000e+01
6.250000e+01
6.250000e+01
6.250000e+01
6.250000e+01
6.250000e+01
6.250000e+01
6.250000e+01
6.250000e+01
6.250000e+01
6.875000e+01
6.875000e+01
6.875000e+01
6.875000e+01
6.875000e+01
6.875000e+01
6.875000e+01
6.875000e+01
6.875000e+01
6.875000e+01
6.875000e+01
6.875000e+01
6.875000e+01
6.875000e+01
6.875000e+01
6.875000e+01
6.875000e+01
6.875000e+01
6.875000e+01
6.875000e+01
6.875000e+01
6.875000e+01
6.875000e+01
6.875000e+01
6.875000e+01
6.875000e+01
6.875000e+01
6.875000e+01
6.875000e+01
6.875000e+01
6.875000e+01
6.875000e+01
6.875000e+01
7.500000e+01
7.500000e+01
7.500000e+01
7.500000e+01
7.500000e+01
7.500000e+01
7.500000e+01
7.500000e+01
7.500000e+01
7.500000e+01
7.500000e+01
7.500000e+01
7.500000e+01
7.500000e+01
7.500000e+01
7.500000e+01
7.500000e+01
7.500000e+01
7.500000e+01
7.500000e+01
7.500000e+01
7.500000e+01
7.500000e+01
7.500000e+01
7.500000e+01
7.500000e+01
7.500000e+01
7.500000e+01
7.500000e+01
7.500000e+01
7.500000e+01
7.500000e+01
7.500000e+01
8.125000e+01
8.125000e+01
8.125000e+01
8.125000e+01
8.125000e+01
8.125000e+01
8.125000e+01
8.125000e+01
8.125000e+01
8.125000e+01
8.125000e+01
8.125000e+01
8.125000e+01
8.125000e+01
8.125000e+01
8.125000e+01
8.125000e+01
8.125000e+01
8.125000e+01
8.125000e+01
8.125000e+01
8.125000e+01
8.125000e+01
8.125000e+01
8.125000e+01
8.125000e+01
8.125000e+01
8.125000e+01
8.125000e+01
8.125000e+01
8.125000e+01
8.125000e+01
8.125000e+01
8.750000e+01
8.750000e+01
8.750000e+01
8.750000e+01
8.750000e+01
8.750000e+01
8.750000e+01
8.750000e+01
8.750000e+01
8.750000e+01
8.750000e+01
8.750000e+01
8.750000e+01
8.750000e+01
8.750000e+01
8.750000e+01
8.750000e+01
8.750000e+01
8.750000e+01
8.750000e+01
8.750000e+01
8.750000e+01
8.750000e+01
8.750000e+01
8.750000e+01
8.750000e+01
8.750000e+01
8.750000e+01
8.750000e+01
8.750000e+01
8.750000e+01
8.750000e+01
8.750000e+01
9.375000e+01
9.375000e+01
9.375000e+01
9.375000e+01
9.375000e+01
9.375000e+01
9.375000e+01
9.375000e+01
9.375000e+01
9.375000e+01
9.375000e+01
9.375000e+01
9.375000e+01
9.375000e+01
9.375000e+01
9.375000e+01
9.375000e+01
9.375000e+01
9.375000e+01
9.375000e+01
9.375000e+01
9.375000e+01
9.375000e+01
9.375000e+01
9.375000e+01
9.375000e+01
9.375000e+01
9.375000e+01
9.375000e+01
9.375000e+01
9.375000e+01
9.375000e+01
9.375000e+01
1.000000e+02
1.000000e+02
1.000000e+02
1.000000e+02
1.000000e+02
1.000000e+02
1.000000e+02
1.000000e+02
1.000000e+02
1.000000e+02
1.000000e+02
1.000000e+02
1.000000e+02
1.000000e+02
1.000000e+02
1.000000e+02
1.000000e+02
1.000000e+02
1.000000e+02
1.000000e+02
1.000000e+02
1.000000e+02
1.000000e+02
1.000000e+02
1.000000e+02
1.000000e+02
1.000000e+02
1.000000e+02
1.000000e+02
1.000000e+02
1.000000e+02
1.000000e+02
1.000000e+02
0.000000e+00
-3.867053e-01
-6.925290e-01
-9.929176e-01
-1.298435e+00
-1.592398e+00
-1.888221e+00
-2.185435e+00
-2.479796e+00
-2.773778e+00
-3.068006e+00
-3.361314e+00
-3.653800e+00
-3.945728e+00
-4.236840e+00
-4.526937e+00
-4.815932e+00
-5.103628e+00
-5.389721e+00
-5.673802e+00
-5.955225e+00
-6.233024e+00
-6.506098e+00
-6.773686e+00
-7.035918e+00
-7.294182e+00
-7.551301e+00
-7.811830e+00
-8.083067e+00
-8.376582e+00
-8.699353e+00
-9.032032e+00
-9.221571e+00
0.000000e+00
-2.387580e-01
-4.932812e-01
-7.515490e-01
-1.017108e+00
-1.273796e+00
-1.532241e+00
-1.792407e+00
-2.050197e+00
-2.307498e+00
-2.564988e+00
-2.821646e+00
-3.077495e+00
-3.332787e+00
-3.587309e+00
-3.840872e+00
-4.093383e+00
-4.344646e+00
-4.594353e+00
-4.842070e+00
-5.087098e+00
-5.328349e+00
-5.564425e+00
-5.793959e+00
-6.015996e+00
-6.230198e+00
-6.436791e+00
-6.636322e+00
-6.828562e+00
-7.006695e+00
-7.142478e+00
-7.209876e+00
-7.297061e+00
0.000000e+00
-1.701053e-01
-3.537272e-01
-5.612028e-01
-7.802575e-01
-9.967276e-01
-1.216834e+00
-1.439103e+00
-1.660384e+00
-1.881730e+00
-2.103306e+00
-2.324326e+00
-2.544743e+00
-2.764613e+00
-2.983696e+00
-3.201759e+00
-3.418590e+00
-3.633855e+00
-3.847077e+00
-4.057597e+00
-4.264467e+00
-4.466357e+00
-4.661597e+00
-4.848357e+00
-5.024830e+00
-5.189254e+00
-5.339663e+00
-5.473199e+00
-5.584328e+00
-5.660690e+00
-5.684949e+00
-5.681340e+00
-5.766075e+00
0.000000e+00
-1.274885e-01
-2.650140e-01
-4.230818e-01
-5.942344e-01
-7.695684e-01
-9.504545e-01
-1.134062e+00
-1.318349e+00
-1.503454e+00
-1.688930e+00
-1.874172e+00
-2.059012e+00
-2.243265e+00
-2.426616e+00
-2.608751e+00
-2.789298e+00
-2.967750e+00
-3.143432e+00
-3.315460e+00
-3.482671e+00
-3.643578e+00
-3.796377e+00
-3.938996e+00
-4.069143e+00
-4.184244e+00
-4.281225e+00
-4.356096e+00
-4.403457e+00
-4.417490e+00
-4.405067e+00
-4.408769e+00
-4.484842e+00
0.000000e+00
-1.040209e-01
-2.115957e-01
-3.307341e-01
-4.586319e-01
-5.942735e-01
-7.351937e-01
-8.792511e-01
-1.025371e+00
-1.172744e+00
-1.320662e+00
-1.468666e+00
-1.616405e+00
-1.763522e+00
-1.909654e+00
-2.054398e+00
-2.197256e+00
-2.337600e+00
-2.474629e+00
-2.607334e+00
-2.734465e+00
-2.854501e+00
-2.965639e+00
-3.065789e+00
-3.152591e+00
-3.223414e+00
-3.275390e+00
-3.305637e+00
-3.312301e+00
-3.298589e+00
-3.284436e+00
-3.308397e+00
-3.383757e+00
0.000000e+00
-7.913914e-02
-1.606690e-01
-2.468788e-01
-3.397240e-01
-4.382833e-01
-5.413071e-01
-6.475118e-01
-7.558575e-01
-8.655097e-01
-9.758252e-01
-1.086318e+00
-1.196577e+00
-1.306211e+00
-1.414820e+00
-1.521948e+00
-1.627043e+00
-1.729428e+00
-1.828261e+00
-1.922515e+00
-2.010960e+00
-2.092153e+00
-2.164431e+00
-2.225924e+00
-2.274621e+00
-2.308503e+00
-2.325869e+00
-2.326093e+00
-2.311397e+00
-2.290743e+00
-2.285730e+00
-2.319277e+00
-2.395003e+00
0.000000e+00
-5.311093e-02
-1.075105e-01
-1.645866e-01
-2.252461e-01
-2.896048e-01
-3.570533e-01
-4.268605e-01
-4.983117e-01
-5.707794e-01
-6.437552e-01
-7.168242e-01
-7.896185e-01
-8.617809e-01
-9.329312e-01
-1.002630e+00
-1.070347e+00
-1.135433e+00
-1.197095e+00
-1.254383e+00
-1.306188e+00
-1.351251e+00
-1.388189e+00
-1.415560e+00
-1.431999e+00
-1.436486e+00
-1.428836e+00
-1.410622e+00
-1.386758e+00
-1.367895e+00
-1.370759e+00
-1.408904e+00
-1.480581e+00
0.000000e+00
-2.665327e-02
-5.394812e-02
-8.241209e-02
-1.124851e-01
-1.442623e-01
-1.775574e-01
-2.120257e-01
-2.472976e-01
-2.830277e-01
-3.189133e-01
-3.546861e-01
-3.900913e-01
-4.248644e-01
-4.587071e-01
-4.912625e-01
-5.220912e-01
-5.506500e-01
-5.762756e-01
-5.981802e-01
-6.154642e-01
-6.271508e-01
-6.322519e-01
-6.298852e-01
-6.194706e-01
-6.010498e-01
-5.757923e-01
-5.467462e-01
-5.198178e-01
-5.044951e-01
-5.122992e-01
-5.501244e-01
-6.132995e-01
0.000000e+00
-1.483038e-04
-2.602230e-04
-3.263687e-04
-3.306278e-04
-2.516112e-04
-6.300738e-05
2.672866e-04
7.789180e-04
1.521445e-03
2.557405e-03
3.966421e-03
5.850724e-03
8.342524e-03
1.161370e-02
1.588813e-02
2.145625e-02
2.868974e-02
3.805118e-02
5.009078e-02
6.542084e-02
8.465825e-02
1.083256e-01
1.367007e-01
1.695999e-01
2.060807e-01
2.440518e-01
2.798261e-01
3.077798e-01
3.205992e-01
3.113007e-01
2.776011e-01
2.255860e-01
0.000000e+00
2.635265e-02
5.341610e-02
8.173751e-02
1.117892e-01
1.437083e-01
1.773596e-01
2.124607e-01
2.487192e-01
2.858858e-01
3.237790e-01
3.622842e-01
4.013426e-01
4.409416e-01
4.811078e-01
5.219047e-01
5.634359e-01
6.058519e-01
6.493557e-01
6.941954e-01
7.406318e-01
7.888683e-01
8.389355e-01
8.905344e-01
9.428443e-01
9.943034e-01
1.042385e+00
1.083443e+00
1.112801e+00
1.125448e+00
1.117856e+00
1.090709e+00
1.050770e+00
0.000000e+00
5.279726e-02
1.069418e-01
1.638445e-01
2.244447e-01
2.888967e-01
3.566371e-01
4.269917e-01
4.993160e-01
5.730702e-01
6.478557e-01
7.233949e-01
7.994916e-01
8.760045e-01
9.528252e-01
1.029858e+00
1.107009e+00
1.184180e+00
1.261276e+00
1.338191e+00
1.414782e+00
1.490797e+00
1.565768e+00
1.638879e+00
1.708840e+00
1.773771e+00
1.831128e+00
1.877738e+00
1.910097e+00
1.925147e+00
1.921716e+00
1.902261e+00
1.873919e+00
0.000000e+00
7.880244e-02
1.600376e-01
2.460243e-01
3.387498e-01
4.373225e-01
5.405289e-01
6.471331e-01
7.561539e-01
8.668306e-01
9.786109e-01
1.091121e+00
1.204085e+00
1.317275e+00
1.430483e+00
1.543488e+00
1.656018e+00
1.767738e+00
1.878240e+00
1.987033e+00
2.093515e+00
2.196921e+00
2.296249e+00
2.390206e+00
2.477175e+00
2.555211e+00
2.622052e+00
2.675229e+00
2.712378e+00
2.731918e+00
2.734152e+00
2.722520e+00
2.704449e+00
0.000000e+00
1.036544e-01
2.108906e-01
3.297515e-01
4.574566e-01
5.930097e-01
7.339647e-01
8.782128e-01
1.024724e+00
1.172743e+00
1.321628e+00
1.471000e+00
1.620601e+00
1.770176e+00
1.919467e+00
2.068183e+00
2.215937e+00
2.362208e+00
2.506311e+00
2.647352e+00
2.784196e+00
2.915441e+00
3.039444e+00
3.154400e+00
3.258453e+00
3.349766e+00
3.426558e+00
3.487176e+00
3.530316e+00
3.555520e+00
3.563982e+00
3.559598e+00
3.550011e+00
0.000000e+00
1.271202e-01
2.642947e-01
4.220683e-01
5.929806e-01
7.681321e-01
9.489037e-01
1.132474e+00
1.316822e+00
1.502123e+00
1.687964e+00
1.873784e+00
2.059463e+00
2.244858e+00
2.429684e+00
2.613621e+00
2.796261e+00
2.977011e+00
3.155001e+00
3.328942e+00
3.497045e+00
3.657068e+00
3.806519e+00
3.942970e+00
4.064326e+00
4.168952e+00
4.255660e+00
4.323692e+00
4.372808e+00
4.403555e+00
4.417781e+00
4.419496e+00
4.416269e+00
0.000000e+00
1.698598e-01
3.532440e-01
5.605120e-01
7.793786e-01
9.956683e-01
1.215608e+00
1.437717e+00
1.658838e+00
1.880034e+00
2.101474e+00
2.322371e+00
2.542671e+00
2.762420e+00
2.981339e+00
3.199094e+00
3.415321e+00
3.629484e+00
3.840680e+00
4.047308e+00
4.246857e+00
4.436036e+00
4.611255e+00
4.769261e+00
4.907612e+00
5.024820e+00
5.120271e+00
5.194119e+00
5.247277e+00
5.281477e+00
5.299429e+00
5.305270e+00
5.305926e+00
0.000000e+00
2.387362e-01
4.932314e-01
7.514696e-01
1.016987e+00
1.273611e+00
1.531986e+00
1.792055e+00
2.049697e+00
2.306789e+00
2.563989e+00
2.820236e+00
3.075502e+00
3.329981e+00
3.583369e+00
3.835299e+00
4.085440e+00
4.333306e+00
4.577967e+00
4.817525e+00
5.048737e+00
5.267204e+00
5.468137e+00
5.647326e+00
5.801809e+00
5.930027e+00
6.031701e+00
6.107738e+00
6.160250e+00
6.192579e+00
6.209166e+00
6.215204e+00
6.216673e+00
0.000000e+00
3.869446e-01
6.929680e-01
9.935546e-01
1.299240e+00
1.593346e+00
1.889325e+00
2.186686e+00
2.481161e+00
2.775215e+00
3.069451e+00
3.362652e+00
3.654855e+00
3.946260e+00
4.236501e+00
4.525185e+00
4.811951e+00
5.096213e+00
5.376784e+00
5.651230e+00
5.915454e+00
6.163986e+00
6.390947e+00
6.591187e+00
6.761020e+00
6.898384e+00
7.002771e+00
7.075278e+00
7.118882e+00
7.138792e+00
7.142625e+00
7.139805e+00
7.138170e+00
0.000000e+00
-2.364647e-01
-4.472598e-01
-7.023216e-01
-9.904685e-01
-1.312322e+00
-1.671972e+00
-2.067494e+00
-2.499087e+00
-2.967981e+00
-3.474046e+00
-4.017240e+00
-4.597860e+00
-5.215949e+00
-5.871413e+00
-6.564192e+00
-7.294162e+00
-8.061092e+00
-8.864663e+00
-9.704442e+00
-1.057985e+01
-1.149020e+01
-1.243493e+01
-1.341389e+01
-1.442781e+01
-1.547885e+01
-1.657128e+01
-1.771241e+01
-1.891364e+01
-2.019342e+01
-2.159703e+01
-2.325870e+01
-2.553129e+01
0.000000e+00
-1.468270e-01
-3.675834e-01
-6.184222e-01
-9.072190e-01
-1.230049e+00
-1.588858e+00
-1.984501e+00
-2.416513e+00
-2.885363e+00
-3.391513e+00
-3.934967e+00
-4.515793e+00
-5.134095e+00
-5.789850e+00
-6.482967e+00
-7.213326e+00
-7.980730e+00
-8.784893e+00
-9.625436e+00
-1.050187e+01
-1.141362e+01
-1.236012e+01
-1.334109e+01
-1.435703e+01
-1.540981e+01
-1.650340e+01
-1.764495e+01
-1.884628e+01
-2.012852e+01
-2.153711e+01
-2.317025e+01
-2.524751e+01
0.000000e+00
-1.112508e-01
-3.072591e-01
-5.529493e-01
-8.389994e-01
-1.160575e+00
-1.518330e+00
-1.913456e+00
-2.345341e+00
-2.814098e+00
-3.320262e+00
-3.863875e+00
-4.444922e+00
-5.063502e+00
-5.719623e+00
-6.413201e+00
-7.144130e+00
-7.912244e+00
-8.717303e+00
-9.558996e+00
-1.043693e+01
-1.135061e+01
-1.229954e+01
-1.328341e+01
-1.430263e+01
-1.535898e+01
-1.645644e+01
-1.760260e+01
-1.881126e+01
-2.010672e+01
-2.151845e+01
-2.305427e+01
-2.469091e+01
0.000000e+00
-1.022256e-01
-2.774240e-01
-5.100090e-01
-7.890083e-01
-1.106396e+00
-1.461723e+00
-1.855266e+00
-2.286246e+00
-2.754571e+00
-3.260565e+00
-3.804221e+00
-4.385504e+00
-5.004476e+00
-5.661144e+00
-6.355447e+00
-7.087304e+00
-7.856590e+00
-8.663117e+00
-9.506634e+00
-1.038681e+01
-1.130323e+01
-1.225543e+01
-1.324314e+01
-1.426676e+01
-1.532799e+01
-1.643079e+01
-1.758280e+01
-1.879781e+01
-2.009633e+01
-2.147951e+01
-2.289241e+01
-2.420017e+01
0.000000e+00
-1.055842e-01
-2.689097e-01
-4.889151e-01
-7.573850e-01
-1.068473e+00
-1.419777e+00
-1.810537e+00
-2.239836e+00
-2.707288e+00
-3.212862e+00
-3.756461e+00
-4.338008e+00
-4.957505e+00
-5.614939e+00
-6.310275e+00
-7.043460e+00
-7.814408e+00
-8.622977e+00
-9.468953e+00
-1.035204e+01
-1.127182e+01
-1.222787e+01
-1.321991e+01
-1.424823e+01
-1.531426e+01
-1.642135e+01
-1.757579e+01
-1.878785e+01
-2.006755e+01
-2.139529e+01
-2.268918e+01
-2.384259e+01
0.000000e+00
-1.069855e-01
-2.663658e-01
-4.779525e-01
-7.383497e-01
-1.043250e+00
-1.390338e+00
-1.778096e+00
-2.205477e+00
-2.671873e+00
-3.176947e+00
-3.720481e+00
-4.302346e+00
-4.922483e+00
-5.580865e+00
-6.277475e+00
-7.012289e+00
-7.785256e+00
-8.596264e+00
-9.445111e+00
-1.033148e+01
-1.125494e+01
-1.221498e+01
-1.321119e+01
-1.424353e+01
-1.531278e+01
-1.642089e+01
-1.757138e+01
-1.876859e+01
-2.001138e+01
-2.126729e+01
-2.246418e+01
-2.351693e+01
0.000000e+00
-1.072360e-01
-2.647085e-01
-4.719289e-01
-7.270340e-01
-1.027481e+00
-1.371119e+00
-1.756392e+00
-2.182155e+00
-2.647627e+00
-3.152301e+00
-3.695859e+00
-4.278112e+00
-4.898967e+00
-5.558393e+00
-6.256389e+00
-6.992962e+00
-7.768089e+00
-8.581675e+00
-9.433506e+00
-1.032322e+01
-1.125026e+01
-1.221396e+01
-1.321357e+01
-1.424846e+01
-1.531833e+01
-1.642321e+01
-1.756311e+01
-1.873636e+01
-1.993307e+01
-2.111874e+01
-2.223472e+01
-2.321482e+01
0.000000e+00
-1.072493e-01
-2.636923e-01
-4.687566e-01
-7.211115e-01
-1.018944e+00
-1.360476e+00
-1.744209e+00
-2.168976e+00
-2.633918e+00
-3.138445e+00
-3.682178e+00
-4.264897e+00
-4.886498e+00
-5.546958e+00
-6.246302e+00
-6.984564e+00
-7.761751e+00
-8.577778e+00
-9.432399e+00
-1.032516e+01
-1.125534e+01
-1.222195e+01
-1.322376e+01
-1.425932e+01
-1.532697e+01
-1.642465e+01
-1.754907e+01
-1.869377e+01
-1.984417e+01
-2.096857e+01
-2.202050e+01
-2.294992e+01
0.000000e+00
-1.072667e-01
-2.634164e-01
-4.678712e-01
-7.194314e-01
-1.016498e+00
-1.357425e+00
-1.740763e+00
-2.165345e+00
-2.630300e+00
-3.135018e+00
-3.679112e+00
-4.262364e+00
-4.884681e+00
-5.546065e+00
-6.246569e+00
-6.986268e+00
-7.765194e+00
-8.583272e+00
-9.440219e+00
-1.033546e+01
-1.126805e+01
-1.223659e+01
-1.323921e+01
-1.427353e+01
-1.533650e+01
-1.642411e+01
-1.753050e+01
-1.864623e+01
-1.975506e+01
-2.082971e+01
-2.183419e+01
-2.273086e+01
0.000000e+00
-1.073526e-01
-2.639110e-01
-4.691243e-01
-7.216764e-01
-1.019765e+00
-1.361620e+00
-1.745755e+00
-2.171016e+00
-2.636562e+00
-3.141825e+00
-3.686458e+00
-4.270276e+00
-4.893223e+00
-5.555333e+00
-6.256700e+00
-6.997433e+00
-7.777602e+00
-8.597146e+00
-9.455750e+00
-1.035271e+01
-1.128682e+01
-1.225623e+01
-1.325835e+01
-1.428984e+01
-1.534638e+01
-1.642238e+01
-1.751029e+01
-1.859929e+01
-1.967351e+01
-2.071031e+01
-2.168220e+01
-2.256083e+01
0.000000e+00
-1.074270e-01
-2.651169e-01
-4.726251e-01
-7.281144e-01
-1.029059e+00
-1.373327e+00
-1.759380e+00
-2.186103e+00
-2.652747e+00
-3.158848e+00
-3.704142e+00
-4.288513e+00
-4.911954e+00
-5.574541e+00
-6.276402e+00
-7.017682e+00
-7.798490e+00
-8.618793e+00
-9.478268e+00
-1.037610e+01
-1.131082e+01
-1.228008e+01
-1.328061e+01
-1.430813e+01
-1.535725e+01
-1.642129e+01
-1.749176e+01
-1.855762e+01
-1.960445e+01
-2.061402e+01
-2.156556e+01
-2.243787e+01
0.000000e+00
-1.072309e-01
-2.669047e-01
-4.788999e-01
-7.398490e-01
-1.045464e+00
-1.393452e+00
-1.782325e+00
-2.211074e+00
-2.679136e+00
-3.186236e+00
-3.732227e+00
-4.317076e+00
-4.940842e+00
-5.603640e+00
-6.305620e+00
-7.046951e+00
-7.827775e+00
-8.648107e+00
-9.507642e+00
-1.040550e+01
-1.133994e+01
-1.230817e+01
-1.330624e+01
-1.432907e+01
-1.537047e+01
-1.642303e+01
-1.747792e+01
-1.852455e+01
-1.955037e+01
-2.054109e+01
-2.148157e+01
-2.235658e+01
0.000000e+00
-1.058326e-01
-2.694929e-01
-4.900067e-01
-7.591685e-01
-1.071145e+00
-1.423568e+00
-1.815712e+00
-2.246702e+00
-2.716210e+00
-3.224279e+00
-3.770895e+00
-4.356089e+00
-4.979995e+00
-5.642765e+00
-6.344551e+00
-7.085516e+00
-7.865823e+00
-8.685535e+00
-9.544392e+00
-1.044146e+01
-1.137479e+01
-1.234116e+01
-1.333605e+01
-1.435374e+01
-1.538748e+01
-1.642951e+01
-1.747098e+01
-1.850200e+01
-1.951190e+01
-2.048983e+01
-2.142557e+01
-2.230977e+01
0.000000e+00
-1.024117e-01
-2.779647e-01
-5.111292e-01
-7.909234e-01
-1.109319e+00
-1.465913e+00
-1.861022e+00
-2.293908e+00
-2.764550e+00
-3.273350e+00
-3.820393e+00
-4.405751e+00
-5.029627e+00
-5.692196e+00
-6.393585e+00
-7.133932e+00
-7.913385e+00
-8.732029e+00
-9.589621e+00
-1.048517e+01
-1.141653e+01
-1.238012e+01
-1.337102e+01
-1.438313e+01
-1.540941e+01
-1.644197e+01
-1.747210e+01
-1.849062e+01
-1.948841e+01
-2.045747e+01
-2.139206e+01
-2.228917e+01
0.000000e+00
-1.113517e-01
-3.077321e-01
-5.540340e-01
-8.409269e-01
-1.163568e+00
-1.522656e+00
-1.919430e+00
-2.353322e+00
-2.824518e+00
-3.333638e+00
-3.880813e+00
-4.466137e+00
-5.089846e+00
-5.752108e+00
-6.453022e+00
-7.192686e+00
-7.971201e+00
-8.788593e+00
-9.644532e+00
-1.053789e+01
-1.146631e+01
-1.242603e+01
-1.341192e+01
-1.441781e+01
-1.543662e+01
-1.646054e+01
-1.748110e+01
-1.848964e+01
-1.947814e+01
-2.044065e+01
-2.137517e+01
-2.228537e+01
0.000000e+00
-1.468947e-01
-3.680288e-01
-6.194832e-01
-9.091320e-01
-1.233043e+00
-1.593202e+00
-1.990511e+00
-2.424554e+00
-2.895869e+00
-3.405003e+00
-3.952051e+00
-4.537184e+00
-5.160638e+00
-5.822536e+00
-6.522953e+00
-7.261965e+00
-8.039602e+00
-8.855733e+00
-9.709780e+00
-1.060033e+01
-1.152479e+01
-1.247933e+01
-1.345893e+01
-1.445759e+01
-1.546851e+01
-1.648408e+01
-1.749615e+01
-1.849650e+01
-1.947777e+01
-2.043519e+01
-2.136906e+01
-2.228824e+01
0.000000e+00
-2.365768e-01
-4.477317e-01
-7.034083e-01
-9.923999e-01
-1.315336e+00
-1.676338e+00
-2.073522e+00
-2.507137e+00
-2.978486e+00
-3.487517e+00
-4.034271e+00
-4.619151e+00
-5.242322e+00
-5.903819e+00
-6.603724e+00
-7.342096e+00
-8.118868e+00
-8.933673e+00
-9.785537e+00
-1.067261e+01
-1.159204e+01
-1.254000e+01