TITLE = "Solution"
VARIABLES = x, y, u, v, psiu, psiv, t, stress
ZONE T="structure" N=561 E=512 F=FEBLOCK ET=QUADRILATERAL VARLOCATION=([7,8]=cellcentered)
0.000000e+00
6.250000e+00
1.250000e+01
1.875000e+01
2.500000e+01
3.125000e+01
3.750000e+01
4.375000e+01
5.000000e+01
5.625000e+01
6.250000e+01
6.875000e+01
7.500000e+01
8.125000e+01
8.750000e+01
9.375000e+01
1.000000e+02
1.062500e+02
1.125000e+02
1.187500e+02
1.250000e+02
1.312500e+02
1.375000e+02
1.437500e+02
1.500000e+02
1.562500e+02
1.625000e+02
1.687500e+02
1.750000e+02
1.812500e+02
1.875000e+02
1.937500e+02
2.000000e+02
0.000000e+00
6.250000e+00
1.250000e+01
1.875000e+01
2.500000e+01
3.125000e+01
3.750000e+01
4.375000e+01
5.000000e+01
5.625000e+01
6.250000e+01
6.875000e+01
7.500000e+01
8.125000e+01
8.750000e+01
9.375000e+01
1.000000e+02
1.062500e+02
1.125000e+02
1.187500e+02
1.250000e+02
1.312500e+02
1.375000e+02
1.437500e+02
1.500000e+02
1.562500e+02
1.625000e+02
1.687500e+02
1.750000e+02
1.812500e+02
1.875000e+02
1.937500e+02
2.000000e+02
0.000000e+00
6.250000e+00
1.250000e+01
1.875000e+01
2.500000e+01
3.125000e+01
3.750000e+01
4.375000e+01
5.000000e+01
5.625000e+01
6.250000e+01
6.875000e+01
7.500000e+01
8.125000e+01
8.750000e+01
9.375000e+01
1.000000e+02
1.062500e+02
1.125000e+02
1.187500e+02
1.250000e+02
1.312500e+02
1.375000e+02
1.437500e+02
1.500000e+02
1.562500e+02
1.625000e+02
1.687500e+02
1.750000e+02
1.812500e+02
1.875000e+02
1.937500e+02
2.000000e+02
0.000000e+00
6.250000e+00
1.250000e+01
1.875000e+01
2.500000e+01
3.125000e+01
3.750000e+01
4.375000e+01
5.000000e+01
5.625000e+01
6.250000e+01
6.875000e+01
7.500000e+01
8.125000e+01
8.750000e+01
9.375000e+01
1.000000e+02
1.062500e+02
1.125000e+02
1.187500e+02
1.250000e+02
1.312500e+02
1.375000e+02
1.437500e+02
1.500000e+02
1.562500e+02
1.625000e+02
1.687500e+02
1.750000e+02
1.812500e+02
1.875000e+02
1.937500e+02
2.000000e+02
0.000000e+00
6.250000e+00
1.250000e+01
1.875000e+01
2.500000e+01
3.125000e+01
3.750000e+01
4.375000e+01
5.000000e+01
5.625000e+01
6.250000e+01
6.875000e+01
7.500000e+01
8.125000e+01
8.750000e+01
9.375000e+01
1.000000e+02
1.062500e+02
1.125000e+02
1.187500e+02
1.250000e+02
1.312500e+02
1.375000e+02
1.437500e+02
1.500000e+02
1.562500e+02
1.625000e+02
1.687500e+02
1.750000e+02
1.812500e+02
1.875000e+02
1.937500e+02
2.000000e+02
0.000000e+00
6.250000e+00
1.250000e+01
1.875000e+01
2.500000e+01
3.125000e+01
3.750000e+01
4.375000e+01
5.000000e+01
5.625000e+01
6.250000e+01
6.875000e+01
7.500000e+01
8.125000e+01
8.750000e+01
9.375000e+01
1.000000e+02
1.062500e+02
1.125000e+02
1.187500e+02
1.250000e+02
1.312500e+02
1.375000e+02
1.437500e+02
1.500000e+02
1.562500e+02
1.625000e+02
1.687500e+02
1.750000e+02
1.812500e+02
1.875000e+02
1.937500e+02
2.000000e+02
0.000000e+00
6.250000e+00
1.250000e+01
1.875000e+01
2.500000e+01
3.125000e+01
3.750000e+01
4.375000e+01
5.000000e+01
5.625000e+01
6.250000e+01
6.875000e+01
7.500000e+01
8.125000e+01
8.750000e+01
9.375000e+01
1.000000e+02
1.062500e+02
1.125000e+02
1.187500e+02
1.250000e+02
1.312500e+02
1.375000e+02
1.437500e+02
1.500000e+02
1.562500e+02
1.625000e+02
1.687500e+02
1.750000e+02
1.812500e+02
1.875000e+02
1.937500e+02
2.000000e+02
0.000000e+00
6.250000e+00
1.250000e+01
1.875000e+01
2.500000e+01
3.125000e+01
3.750000e+01
4.375000e+01
5.000000e+01
5.625000e+01
6.250000e+01
6.875000e+01
7.500000e+01
8.125000e+01
8.750000e+01
9.375000e+01
1.000000e+02
1.062500e+02
1.125000e+02
1.187500e+02
1.250000e+02
1.312500e+02
1.375000e+02
1.437500e+02
1.500000e+02
1.562500e+02
1.625000e+02
1.687500e+02
1.750000e+02
1.812500e+02
1.875000e+02
1.937500e+02
2.000000e+02
0.000000e+00
6.250000e+00
1.250000e+01
1.875000e+01
2.500000e+01
3.125000e+01
3.750000e+01
4.375000e+01
5.000000e+01
5.625000e+01
6.250000e+01
6.875000e+01
7.500000e+01
8.125000e+01
8.750000e+01
9.375000e+01
1.000000e+02
1.062500e+02
1.125000e+02
1.187500e+02
1.250000e+02
1.312500e+02
1.375000e+02
1.437500e+02
1.500000e+02
1.562500e+02
1.625000e+02
1.687500e+02
1.750000e+02
1.812500e+02
1.875000e+02
1.937500e+02
2.000000e+02
0.000000e+00
6.250000e+00
1.250000e+01
1.875000e+01
2.500000e+01
3.125000e+01
3.750000e+01
4.375000e+01
5.000000e+01
5.625000e+01
6.250000e+01
6.875000e+01
7.500000e+01
8.125000e+01
8.750000e+01
9.375000e+01
1.000000e+02
1.062500e+02
1.125000e+02
1.187500e+02
1.250000e+02
1.312500e+02
1.375000e+02
1.437500e+02
1.500000e+02
1.562500e+02
1.625000e+02
1.687500e+02
1.750000e+02
1.812500e+02
1.875000e+02
1.937500e+02
2.000000e+02
0.000000e+00
6.250000e+00
1.250000e+01
1.875000e+01
2.500000e+01
3.125000e+01
3.750000e+01
4.375000e+01
5.000000e+01
5.625000e+01
6.250000e+01
6.875000e+01
7.500000e+01
8.125000e+01
8.750000e+01
9.375000e+01
1.000000e+02
1.062500e+02
1.125000e+02
1.187500e+02
1.250000e+02
1.312500e+02
1.375000e+02
1.437500e+02
1.500000e+02
1.562500e+02
1.625000e+02
1.687500e+02
1.750000e+02
1.812500e+02
1.875000e+02
1.937500e+02
2.000000e+02
0.000000e+00
6.250000e+00
1.250000e+01
1.875000e+01
2.500000e+01
3.125000e+01
3.750000e+01
4.375000e+01
5.000000e+01
5.625000e+01
6.250000e+01
6.875000e+01
7.500000e+01
8.125000e+01
8.750000e+01
9.375000e+01
1.000000e+02
1.062500e+02
1.125000e+02
1.187500e+02
1.250000e+02
1.312500e+02
1.375000e+02
1.437500e+02
1.500000e+02
1.562500e+02
1.625000e+02
1.687500e+02
1.750000e+02
1.812500e+02
1.875000e+02
1.937500e+02
2.000000e+02
0.000000e+00
6.250000e+00
1.250000e+01
1.875000e+01
2.500000e+01
3.125000e+01
3.750000e+01
4.375000e+01
5.000000e+01
5.625000e+01
6.250000e+01
6.875000e+01
7.500000e+01
8.125000e+01
8.750000e+01
9.375000e+01
1.000000e+02
1.062500e+02
1.125000e+02
1.187500e+02
1.250000e+02
1.312500e+02
1.375000e+02
1.437500e+02
1.500000e+02
1.562500e+02
1.625000e+02
1.687500e+02
1.750000e+02
1.812500e+02
1.875000e+02
1.937500e+02
2.000000e+02
0.000000e+00
6.250000e+00
1.250000e+01
1.875000e+01
2.500000e+01
3.125000e+01
3.750000e+01
4.375000e+01
5.000000e+01
5.625000e+01
6.250000e+01
6.875000e+01
7.500000e+01
8.125000e+01
8.750000e+01
9.375000e+01
1.000000e+02
1.062500e+02
1.125000e+02
1.187500e+02
1.250000e+02
1.312500e+02
1.375000e+02
1.437500e+02
1.500000e+02
1.562500e+02
1.625000e+02
1.687500e+02
1.750000e+02
1.812500e+02
1.875000e+02
1.937500e+02
2.000000e+02
0.000000e+00
6.250000e+00
1.250000e+01
1.875000e+01
2.500000e+01
3.125000e+01
3.750000e+01
4.375000e+01
5.000000e+01
5.625000e+01
6.250000e+01
6.875000e+01
7.500000e+01
8.125000e+01
8.750000e+01
9.375000e+01
1.000000e+02
1.062500e+02
1.125000e+02
1.187500e+02
1.250000e+02
1.312500e+02
1.375000e+02
1.437500e+02
1.500000e+02
1.562500e+02
1.625000e+02
1.687500e+02
1.750000e+02
1.812500e+02
1.875000e+02
1.937500e+02
2.000000e+02
0.000000e+00
6.250000e+00
1.250000e+01
1.875000e+01
2.500000e+01
3.125000e+01
3.750000e+01
4.375000e+01
5.000000e+01
5.625000e+01
6.250000e+01
6.875000e+01
7.500000e+01
8.125000e+01
8.750000e+01
9.375000e+01
1.000000e+02
1.062500e+02
1.125000e+02
1.187500e+02
1.250000e+02
1.312500e+02
1.375000e+02
1.437500e+02
1.500000e+02
1.562500e+02
1.625000e+02
1.687500e+02
1.750000e+02
1.812500e+02
1.875000e+02
1.937500e+02
2.000000e+02
0.000000e+00
6.250000e+00
1.250000e+01
1.875000e+01
2.500000e+01
3.125000e+01
3.750000e+01
4.375000e+01
5.000000e+01
5.625000e+01
6.250000e+01
6.875000e+01
7.500000e+01
8.125000e+01
8.750000e+01
9.375000e+01
1.000000e+02
1.062500e+02
1.125000e+02
1.187500e+02
1.250000e+02
1.312500e+02
1.375000e+02
1.437500e+02
1.500000e+02
1.562500e+02
1.625000e+02
1.687500e+02
1.750000e+02
1.812500e+02
1.875000e+02
1.937500e+02
2.000000e+02
0.000000e+00
0.000000e+00
0.000000e+00
0.000000e+00
0.000000e+00
0.000000e+00
0.000000e+00
0.000000e+00
0.000000e+00
0.000000e+00
0.000000e+00
0.000000e+00
0.000000e+00
0.000000e+00
0.000000e+00
0.000000e+00
0.000000e+00
0.000000e+00
0.000000e+00
0.000000e+00
0.000000e+00
0.000000e+00
0.000000e+00
0.000000e+00
0.000000e+00
0.000000e+00
0.000000e+00
0.000000e+00
0.000000e+00
0.000000e+00
0.000000e+00
0.000000e+00
0.000000e+00
6.250000e+00
6.250000e+00
6.250000e+00
6.250000e+00
6.250000e+00
6.250000e+00
6.250000e+00
6.250000e+00
6.250000e+00
6.250000e+00
6.250000e+00
6.250000e+00
6.250000e+00
6.250000e+00
6.250000e+00
6.250000e+00
6.250000e+00
6.250000e+00
6.250000e+00
6.250000e+00
6.250000e+00
6.250000e+00
6.250000e+00
6.250000e+00
6.250000e+00
6.250000e+00
6.250000e+00
6.250000e+00
6.250000e+00
6.250000e+00
6.250000e+00
6.250000e+00
6.250000e+00
1.250000e+01
1.250000e+01
1.250000e+01
1.250000e+01
1.250000e+01
1.250000e+01
1.250000e+01
1.250000e+01
1.250000e+01
1.250000e+01
1.250000e+01
1.250000e+01
1.250000e+01
1.250000e+01
1.250000e+01
1.250000e+01
1.250000e+01
1.250000e+01
1.250000e+01
1.250000e+01
1.250000e+01
1.250000e+01
1.250000e+01
1.250000e+01
1.250000e+01
1.250000e+01
1.250000e+01
1.250000e+01
1.250000e+01
1.250000e+01
1.250000e+01
1.250000e+01
1.250000e+01
1.875000e+01
1.875000e+01
1.875000e+01
1.875000e+01
1.875000e+01
1.875000e+01
1.875000e+01
1.875000e+01
1.875000e+01
1.875000e+01
1.875000e+01
1.875000e+01
1.875000e+01
1.875000e+01
1.875000e+01
1.875000e+01
1.875000e+01
1.875000e+01
1.875000e+01
1.875000e+01
1.875000e+01
1.875000e+01
1.875000e+01
1.875000e+01
1.875000e+01
1.875000e+01
1.875000e+01
1.875000e+01
1.875000e+01
1.875000e+01
1.875000e+01
1.875000e+01
1.875000e+01
2.500000e+01
2.500000e+01
2.500000e+01
2.500000e+01
2.500000e+01
2.500000e+01
2.500000e+01
2.500000e+01
2.500000e+01
2.500000e+01
2.500000e+01
2.500000e+01
2.500000e+01
2.500000e+01
2.500000e+01
2.500000e+01
2.500000e+01
2.500000e+01
2.500000e+01
2.500000e+01
2.500000e+01
2.500000e+01
2.500000e+01
2.500000e+01
2.500000e+01
2.500000e+01
2.500000e+01
2.500000e+01
2.500000e+01
2.500000e+01
2.500000e+01
2.500000e+01
2.500000e+01
3.125000e+01
3.125000e+01
3.125000e+01
3.125000e+01
3.125000e+01
3.125000e+01
3.125000e+01
3.125000e+01
3.125000e+01
3.125000e+01
3.125000e+01
3.125000e+01
3.125000e+01
3.125000e+01
3.125000e+01
3.125000e+01
3.125000e+01
3.125000e+01
3.125000e+01
3.125000e+01
3.125000e+01
3.125000e+01
3.125000e+01
3.125000e+01
3.125000e+01
3.125000e+01
3.125000e+01
3.125000e+01
3.125000e+01
3.125000e+01
3.125000e+01
3.125000e+01
3.125000e+01
3.750000e+01
3.750000e+01
3.750000e+01
3.750000e+01
3.750000e+01
3.750000e+01
3.750000e+01
3.750000e+01
3.750000e+01
3.750000e+01
3.750000e+01
3.750000e+01
3.750000e+01
3.750000e+01
3.750000e+01
3.750000e+01
3.750000e+01
3.750000e+01
3.750000e+01
3.750000e+01
3.750000e+01
3.750000e+01
3.750000e+01
3.750000e+01
3.750000e+01
3.750000e+01
3.750000e+01
3.750000e+01
3.750000e+01
3.750000e+01
3.750000e+01
3.750000e+01
3.750000e+01
4.375000e+01
4.375000e+01
4.375000e+01
4.375000e+01
4.375000e+01
4.375000e+01
4.375000e+01
4.375000e+01
4.375000e+01
4.375000e+01
4.375000e+01
4.375000e+01
4.375000e+01
4.375000e+01
4.375000e+01
4.375000e+01
4.375000e+01
4.375000e+01
4.375000e+01
4.375000e+01
4.375000e+01
4.375000e+01
4.375000e+01
4.375000e+01
4.375000e+01
4.375000e+01
4.375000e+01
4.375000e+01
4.375000e+01
4.375000e+01
4.375000e+01
4.375000e+01
4.375000e+01
5.000000e+01
5.000000e+01
5.000000e+01
5.000000e+01
5.000000e+01
5.000000e+01
5.000000e+01
5.000000e+01
5.000000e+01
5.000000e+01
5.000000e+01
5.000000e+01
5.000000e+01
5.000000e+01
5.000000e+01
5.000000e+01
5.000000e+01
5.000000e+01
5.000000e+01
5.000000e+01
5.000000e+01
5.000000e+01
5.000000e+01
5.000000e+01
5.000000e+01
5.000000e+01
5.000000e+01
5.000000e+01
5.000000e+01
5.000000e+01
5.000000e+01
5.000000e+01
5.000000e+01
5.625000e+01
5.625000e+01
5.625000e+01
5.625000e+01
5.625000e+01
5.625000e+01
5.625000e+01
5.625000e+01
5.625000e+01
5.625000e+01
5.625000e+01
5.625000e+01
5.625000e+01
5.625000e+01
5.625000e+01
5.625000e+01
5.625000e+01
5.625000e+01
5.625000e+01
5.625000e+01
5.625000e+01
5.625000e+01
5.625000e+01
5.625000e+01
5.625000e+01
5.625000e+01
5.625000e+01
5.625000e+01
5.625000e+01
5.625000e+01
5.625000e+01
5.625000e+01
5.625000e+01
6.250000e+01
6.250000e+01
6.250000e+01
6.250000e+01
6.250000e+01
6.250000e+01
6.250000e+01
6.250000e+01
6.250000e+01
6.250000e+01
6.250000e+01
6.250000e+01
6.250000e+01
6.250000e+01
6.250000e+01
6.250000e+01
6.250000e+01
6.250000e+01
6.250000e+01
6.250000e+01
6.250000e+01
6.250000e+01
6.250000e+01
6.250000e+01
6.250000e+01
6.250000e+01
6.250000e+01
6.250000e+01
6.250000e+01
6.250000e+01
6.250000e+01
6.250000e+01
6.250000e+01
6.875000e+01
6.875000e+01
6.875000e+01
6.875000e+01
6.875000e+01
6.875000e+01
6.875000e+01
6.875000e+01
6.875000e+01
6.875000e+01
6.875000e+01
6.875000e+01
6.875000e+01
6.875000e+01
6.875000e+01
6.875000e+01
6.875000e+01
6.875000e+01
6.875000e+01
6.875000e+01
6.875000e+01
6.875000e+01
6.875000e+01
6.875000e+01
6.875000e+01
6.875000e+01
6.875000e+01
6.875000e+01
6.875000e+01
6.875000e+01
6.875000e+01
6.875000e+01
6.875000e+01
7.500000e+01
7.500000e+01
7.500000e+01
7.500000e+01
7.500000e+01
7.500000e+01
7.500000e+01
7.500000e+01
7.500000e+01
7.500000e+01
7.500000e+01
7.500000e+01
7.500000e+01
7.500000e+01
7.500000e+01
7.500000e+01
7.500000e+01
7.500000e+01
7.500000e+01
7.500000e+01
7.500000e+01
7.500000e+01
7.500000e+01
7.500000e+01
7.500000e+01
7.500000e+01
7.500000e+01
7.500000e+01
7.500000e+01
7.500000e+01
7.500000e+01
7.500000e+01
7.500000e+01
8.125000e+01
8.125000e+01
8.125000e+01
8.125000e+01
8.125000e+01
8.125000e+01
8.125000e+01
8.125000e+01
8.125000e+01
8.125000e+01
8.125000e+01
8.125000e+01
8.125000e+01
8.125000e+01
8.125000e+01
8.125000e+01
8.125000e+01
8.125000e+01
8.125000e+01
8.125000e+01
8.125000e+01
8.125000e+01
8.125000e+01
8.125000e+01
8.125000e+01
8.125000e+01
8.125000e+01
8.125000e+01
8.125000e+01
8.125000e+01
8.125000e+01
8.125000e+01
8.125000e+01
8.750000e+01
8.750000e+01
8.750000e+01
8.750000e+01
8.750000e+01
8.750000e+01
8.750000e+01
8.750000e+01
8.750000e+01
8.750000e+01
8.750000e+01
8.750000e+01
8.750000e+01
8.750000e+01
8.750000e+01
8.750000e+01
8.750000e+01
8.750000e+01
8.750000e+01
8.750000e+01
8.750000e+01
8.750000e+01
8.750000e+01
8.750000e+01
8.750000e+01
8.750000e+01
8.750000e+01
8.750000e+01
8.750000e+01
8.750000e+01
8.750000e+01
8.750000e+01
8.750000e+01
9.375000e+01
9.375000e+01
9.375000e+01
9.375000e+01
9.375000e+01
9.375000e+01
9.375000e+01
9.375000e+01
9.375000e+01
9.375000e+01
9.375000e+01
9.375000e+01
9.375000e+01
9.375000e+01
9.375000e+01
9.375000e+01
9.375000e+01
9.375000e+01
9.375000e+01
9.375000e+01
9.375000e+01
9.375000e+01
9.375000e+01
9.375000e+01
9.375000e+01
9.375000e+01
9.375000e+01
9.375000e+01
9.375000e+01
9.375000e+01
9.375000e+01
9.375000e+01
9.375000e+01
1.000000e+02
1.000000e+02
1.000000e+02
1.000000e+02
1.000000e+02
1.000000e+02
1.000000e+02
1.000000e+02
1.000000e+02
1.000000e+02
1.000000e+02
1.000000e+02
1.000000e+02
1.000000e+02
1.000000e+02
1.000000e+02
1.000000e+02
1.000000e+02
1.000000e+02
1.000000e+02
1.000000e+02
1.000000e+02
1.000000e+02
1.000000e+02
1.000000e+02
1.000000e+02
1.000000e+02
1.000000e+02
1.000000e+02
1.000000e+02
1.000000e+02
1.000000e+02
1.000000e+02
0.000000e+00
-4.121113e-01
-7.257472e-01
-1.039916e+00
-1.349373e+00
-1.642528e+00
-1.944335e+00
-2.241881e+00
-2.534877e+00
-2.831344e+00
-3.126064e+00
-3.418993e+00
-3.712767e+00
-4.005694e+00
-4.297621e+00
-4.589426e+00
-4.880670e+00
-5.171223e+00
-5.461356e+00
-5.751049e+00
-6.040357e+00
-6.329490e+00
-6.618701e+00
-6.908712e+00
-7.200792e+00
-7.495951e+00
-7.795282e+00
-8.102946e+00
-8.428426e+00
-8.785808e+00
-9.185213e+00
-9.563411e+00
-9.762297e+00
0.000000e+00
-2.373746e-01
-4.865110e-01
-7.464977e-01
-1.011898e+00
-1.264429e+00
-1.526758e+00
-1.786717e+00
-2.042821e+00
-2.302262e+00
-2.560368e+00
-2.816899e+00
-3.074182e+00
-3.330755e+00
-3.586383e+00
-3.841795e+00
-4.096603e+00
-4.350616e+00
-4.604001e+00
-4.856688e+00
-5.108632e+00
-5.359847e+00
-5.610241e+00
-5.859879e+00
-6.108945e+00
-6.356883e+00
-6.602463e+00
-6.845998e+00
-7.089638e+00
-7.327690e+00
-7.517587e+00
-7.599198e+00
-7.697527e+00
0.000000e+00
-1.488338e-01
-3.129762e-01
-5.118631e-01
-7.249538e-01
-9.338043e-01
-1.154185e+00
-1.374576e+00
-1.593556e+00
-1.815853e+00
-2.037615e+00
-2.258668e+00
-2.480522e+00
-2.701958e+00
-2.922752e+00
-3.143312e+00
-3.363237e+00
-3.582276e+00
-3.800391e+00
-4.017346e+00
-4.232867e+00
-4.446600e+00
-4.657921e+00
-4.865973e+00
-5.069526e+00
-5.266441e+00
-5.453582e+00
-5.627300e+00
-5.781724e+00
-5.901260e+00
-5.951275e+00
-5.951310e+00
-6.040668e+00
0.000000e+00
-1.013347e-01
-2.103566e-01
-3.526835e-01
-5.092645e-01
-6.742227e-01
-8.513775e-01
-1.031165e+00
-1.212830e+00
-1.397988e+00
-1.583576e+00
-1.769521e+00
-1.956343e+00
-2.142994e+00
-2.329284e+00
-2.515235e+00
-2.700383e+00
-2.884397e+00
-3.066982e+00
-3.247659e+00
-3.425831e+00
-3.600674e+00
-3.770981e+00
-3.935078e+00
-4.090703e+00
-4.234761e+00
-4.363110e+00
-4.470273e+00
-4.548470e+00
-4.586844e+00
-4.583744e+00
-4.591340e+00
-4.670416e+00
0.000000e+00
-8.938391e-02
-1.775672e-01
-2.812659e-01
-3.952335e-01
-5.214005e-01
-6.560245e-01
-7.949943e-01
-9.381834e-01
-1.083814e+00
-1.230694e+00
-1.378677e+00
-1.527110e+00
-1.675539e+00
-1.823729e+00
-1.971297e+00
-2.117867e+00
-2.263032e+00
-2.406266e+00
-2.546907e+00
-2.684075e+00
-2.816583e+00
-2.942850e+00
-3.060829e+00
-3.167939e+00
-3.260984e+00
-3.336034e+00
-3.388569e+00
-3.414491e+00
-3.413304e+00
-3.401296e+00
-3.427035e+00
-3.503321e+00
0.000000e+00
-7.116025e-02
-1.423292e-01
-2.170877e-01
-3.004872e-01
-3.909985e-01
-4.877479e-01
-5.894943e-01
-6.944306e-01
-8.016590e-01
-9.104355e-01
-1.020044e+00
-1.130053e+00
-1.240072e+00
-1.349706e+00
-1.458591e+00
-1.566319e+00
-1.672387e+00
-1.776167e+00
-1.876850e+00
-1.973371e+00
-2.064365e+00
-2.148130e+00
-2.222619e+00
-2.285457e+00
-2.334008e+00
-2.365536e+00
-2.377972e+00
-2.371874e+00
-2.353769e+00
-2.347295e+00
-2.379437e+00
-2.452379e+00
0.000000e+00
-4.902537e-02
-9.786621e-02
-1.486091e-01
-2.030446e-01
-2.619944e-01
-3.249791e-01
-3.912827e-01
-4.600512e-01
-5.304819e-01
-6.019835e-01
-6.740553e-01
-7.462766e-01
-8.182976e-01
-8.897720e-01
-9.603350e-01
-1.029572e+00
-1.096968e+00
-1.161862e+00
-1.223411e+00
-1.280530e+00
-1.331874e+00
-1.375846e+00
-1.410643e+00
-1.434374e+00
-1.445273e+00
-1.442134e+00
-1.425335e+00
-1.398654e+00
-1.372480e+00
-1.368291e+00
-1.402984e+00
-1.472915e+00
0.000000e+00
-2.516843e-02
-5.033420e-02
-7.616075e-02
-1.035000e-01
-1.327602e-01
-1.639282e-01
-1.966749e-01
-2.305784e-01
-2.652246e-01
-3.002400e-01
-3.353033e-01
-3.701300e-01
-4.044492e-01
-4.379818e-01
-4.704151e-01
-5.013756e-01
-5.303962e-01
-5.568835e-01
-5.800812e-01
-5.990370e-01
-6.125951e-01
-6.194290e-01
-6.181325e-01
-6.074154e-01
-5.864575e-01
-5.555595e-01
-5.172694e-01
-4.777301e-01
-4.481646e-01
-4.458665e-01
-4.811488e-01
-5.483659e-01
0.000000e+00
-7.749802e-04
-1.508559e-03
-2.171747e-03
-2.733970e-03
-3.159593e-03
-3.406022e-03
-3.422003e-03
-3.145759e-03
-2.502479e-03
-1.401883e-03
2.646320e-04
2.628072e-03
5.846976e-03
1.011410e-02
1.566555e-02
2.279239e-02
3.185600e-02
4.330931e-02
5.772050e-02
7.578881e-02
9.834100e-02
1.262868e-01
1.604887e-01
2.014922e-01
2.490571e-01
3.014015e-01
3.542416e-01
4.002359e-01
4.288809e-01
4.283848e-01
3.936625e-01
3.317818e-01
0.000000e+00
2.366468e-02
4.741173e-02
7.196154e-02
9.822784e-02
1.266901e-01
1.574192e-01
1.901858e-01
2.246879e-01
2.606566e-01
2.978941e-01
3.362908e-01
3.758171e-01
4.165107e-01
4.584656e-01
5.018255e-01
5.467770e-01
5.935451e-01
6.423981e-01
6.936484e-01
7.476420e-01
8.047414e-01
8.652764e-01
9.293858e-01
9.966943e-01
1.065822e+00
1.133764e+00
1.195368e+00
1.243460e+00
1.269747e+00
1.267484e+00
1.236174e+00
1.184531e+00
0.000000e+00
4.764716e-02
9.520015e-02
1.448009e-01
1.983055e-01
2.566058e-01
3.193014e-01
3.857700e-01
4.552678e-01
5.271271e-01
6.009188e-01
6.763370e-01
7.531951e-01
8.314226e-01
9.110066e-01
9.919836e-01
1.074424e+00
1.158398e+00
1.243967e+00
1.331146e+00
1.419845e+00
1.509840e+00
1.600755e+00
1.691912e+00
1.782011e+00
1.868726e+00
1.948363e+00
2.015844e+00
2.065286e+00
2.091228e+00
2.090767e+00
2.066495e+00
2.028078e+00
0.000000e+00
6.995555e-02
1.400040e-01
2.137965e-01
2.964525e-01
3.865030e-01
4.831512e-01
5.852364e-01
6.910513e-01
7.998208e-01
9.109460e-01
1.023882e+00
1.138396e+00
1.254330e+00
1.371551e+00
1.489995e+00
1.609592e+00
1.730228e+00
1.851738e+00
1.973815e+00
2.095902e+00
2.217169e+00
2.336566e+00
2.452700e+00
2.563517e+00
2.666061e+00
2.756491e+00
2.830422e+00
2.883601e+00
2.912920e+00
2.917936e+00
2.902817e+00
2.877675e+00
0.000000e+00
8.833937e-02
1.755718e-01
2.784421e-01
3.918063e-01
5.176413e-01
6.522411e-01
7.915893e-01
9.356281e-01
1.082688e+00
1.231718e+00
1.382708e+00
1.535168e+00
1.688823e+00
1.843612e+00
1.999323e+00
2.155726e+00
2.312539e+00
2.469349e+00
2.625540e+00
2.780158e+00
2.931941e+00
3.079346e+00
3.220344e+00
3.352144e+00
3.471259e+00
3.573928e+00
3.656626e+00
3.716565e+00
3.752322e+00
3.764883e+00
3.759164e+00
3.745598e+00
0.000000e+00
1.004392e-01
2.086492e-01
3.502237e-01
5.062210e-01
6.707883e-01
8.477621e-01
1.027619e+00
1.209678e+00
1.395632e+00
1.582522e+00
1.770397e+00
1.959905e+00
2.150122e+00
2.340965e+00
2.532529e+00
2.724337e+00
2.915971e+00
3.106946e+00
3.296370e+00
3.483073e+00
3.665716e+00
3.842418e+00
4.010197e+00
4.165001e+00
4.302505e+00
4.419006e+00
4.511893e+00
4.579808e+00
4.622827e+00
4.643003e+00
4.645552e+00
4.640880e+00
0.000000e+00
1.483187e-01
3.119605e-01
5.103504e-01
7.229731e-01
9.314365e-01
1.151517e+00
1.371668e+00
1.590500e+00
1.812792e+00
2.034708e+00
2.256111e+00
2.478581e+00
2.700937e+00
2.922958e+00
3.145040e+00
3.366681e+00
3.587452e+00
3.807006e+00
4.024451e+00
4.238742e+00
4.448984e+00
4.653330e+00
4.847552e+00
5.025477e+00
5.181166e+00
5.310624e+00
5.412124e+00
5.485874e+00
5.533694e+00
5.558979e+00
5.567247e+00
5.568087e+00
0.000000e+00
2.373457e-01
4.865111e-01
7.464976e-01
1.011793e+00
1.264227e+00
1.526470e+00
1.786245e+00
2.042098e+00
2.301237e+00
2.558913e+00
2.814822e+00
3.071278e+00
3.326738e+00
3.580821e+00
3.834117e+00
4.086025e+00
4.336075e+00
4.584049e+00
4.829122e+00
5.070439e+00
5.307554e+00
5.538619e+00
5.758026e+00
5.957221e+00
6.128375e+00
6.266954e+00
6.371916e+00
6.445049e+00
6.490417e+00
6.513876e+00
6.522484e+00
6.524559e+00
0.000000e+00
4.126141e-01
7.268461e-01
1.041608e+00
1.351486e+00
1.645038e+00
1.947239e+00
2.245005e+00
2.538122e+00
2.834603e+00
3.129083e+00
3.421425e+00
3.714185e+00
4.005504e+00
4.294994e+00
4.583305e+00
4.869694e+00
5.153663e+00
5.435023e+00
5.712957e+00
5.986676e+00
6.255546e+00
6.516630e+00
6.762166e+00
6.981232e+00
7.164417e+00
7.306546e+00
7.406711e+00
7.467764e+00
7.496183e+00
7.502095e+00
7.498423e+00
7.496186e+00
0.000000e+00
-2.491507e-01
-4.941849e-01
-8.013924e-01
-1.146843e+00
-1.530556e+00
-1.955018e+00
-2.413803e+00
-2.909574e+00
-3.442744e+00
-4.011651e+00
-4.617483e+00
-5.260433e+00
-5.939994e+00
-6.656556e+00
-7.410277e+00
-8.201046e+00
-9.029014e+00
-9.894339e+00
-1.079712e+01
-1.173751e+01
-1.271575e+01
-1.373219e+01
-1.478760e+01
-1.588330e+01
-1.702145e+01
-1.820612e+01
-1.944482e+01
-2.074828e+01
-2.213010e+01
-2.362309e+01
-2.538139e+01
-2.782588e+01
0.000000e+00
-1.554953e-01
-4.133911e-01
-7.159201e-01
-1.064218e+00
-1.448019e+00
-1.871287e+00
-2.331328e+00
-2.826978e+00
-3.359778e+00
-3.929210e+00
-4.535097e+00
-5.178019e+00
-5.857865e+00
-6.574587e+00
-7.328427e+00
-8.119422e+00
-8.947604e+00
-9.813126e+00
-1.071612e+01
-1.165672e+01
-1.263516e+01
-1.365175e+01
-1.470716e+01
-1.580275e+01
-1.694083e+01
-1.812520e+01
-1.936250e+01
-2.066397e+01
-2.204761e+01
-2.355620e+01
-2.529152e+01
-2.748686e+01
0.000000e+00
-1.231653e-01
-3.547946e-01
-6.527906e-01
-9.982116e-01
-1.379780e+00
-1.801694e+00
-2.261313e+00
-2.756343e+00
-3.288802e+00
-3.858203e+00
-4.463993e+00
-5.106922e+00
-5.786908e+00
-6.503794e+00
-7.257857e+00
-8.049161e+00
-8.877715e+00
-9.743674e+00
-1.064718e+01
-1.158841e+01
-1.256761e+01
-1.358515e+01
-1.464176e+01
-1.573892e+01
-1.687913e+01
-1.806620e+01
-1.930710e+01
-2.061574e+01
-2.201943e+01
-2.354890e+01
-2.518212e+01
-2.689733e+01
0.000000e+00
-1.273873e-01
-3.346391e-01
-6.191573e-01
-9.546146e-01
-1.330306e+00
-1.748916e+00
-2.205804e+00
-2.699197e+00
-3.230691e+00
-3.799348e+00
-4.404759e+00
-5.047558e+00
-5.727569e+00
-6.444673e+00
-7.199116e+00
-7.990955e+00
-8.820225e+00
-9.687087e+00
-1.059171e+01
-1.153433e+01
-1.251526e+01
-1.353500e+01
-1.459437e+01
-1.569498e+01
-1.683936e+01
-1.803153e+01
-1.927899e+01
-2.059700e+01
-2.201226e+01
-2.352438e+01
-2.502669e+01
-2.640327e+01
0.000000e+00
-1.460472e-01
-3.455740e-01
-6.150941e-01
-9.360671e-01
-1.303244e+00
-1.715085e+00
-2.166847e+00
-2.657393e+00
-3.186734e+00
-3.753911e+00
-4.358660e+00
-5.001115e+00
-5.681108e+00
-6.398572e+00
-7.153621e+00
-7.946327e+00
-8.776767e+00
-9.645107e+00
-1.055157e+01
-1.149645e+01
-1.248012e+01
-1.350314e+01
-1.456640e+01
-1.567142e+01
-1.682058e+01
-1.801763e+01
-1.926915e+01
-2.058759e+01
-2.198871e+01
-2.344475e+01
-2.482462e+01
-2.604069e+01
0.000000e+00
-1.540639e-01
-3.574183e-01
-6.167667e-01
-9.288326e-01
-1.288414e+00
-1.693393e+00
-2.140538e+00
-2.627969e+00
-3.155030e+00
-3.720832e+00
-4.324897e+00
-4.967099e+00
-5.647243e+00
-6.365242e+00
-7.121143e+00
-7.915025e+00
-8.747010e+00
-9.617299e+00
-1.052617e+01
-1.147395e+01
-1.246103e+01
-1.348792e+01
-1.455537e+01
-1.566459e+01
-1.681738e+01
-1.801639e+01
-1.926531e+01
-2.057039e+01
-2.193608e+01
-2.331382e+01
-2.460144e+01
-2.572204e+01
0.000000e+00
-1.575653e-01
-3.630427e-01
-6.191975e-01
-9.256803e-01
-1.280246e+00
-1.680402e+00
-2.123887e+00
-2.608886e+00
-3.134203e+00
-3.698982e+00
-4.302628e+00
-4.944807e+00
-5.625312e+00
-6.344030e+00
-7.100970e+00
-7.896230e+00
-8.729972e+00
-9.602444e+00
-1.051397e+01
-1.146489e+01
-1.245553e+01
-1.348621e+01
-1.455736e+01
-1.566952e+01
-1.682352e+01
-1.802011e+01
-1.925915e+01
-2.054031e+01
-2.185851e+01
-2.316344e+01
-2.437724e+01
-2.543130e+01
0.000000e+00
-1.591145e-01
-3.654915e-01
-6.206290e-01
-9.246495e-01
-1.276349e+00
-1.673881e+00
-2.115262e+00
-2.598807e+00
-3.123231e+00
-3.687582e+00
-4.291204e+00
-4.933690e+00
-5.614796e+00
-6.334398e+00
-7.092499e+00
-7.889212e+00
-8.724731e+00
-9.599348e+00
-1.051341e+01
-1.146724e+01
-1.246102e+01
-1.349481e+01
-1.456849e+01
-1.568172e+01
-1.683393e+01
-1.802373e+01
-1.924746e+01
-2.049918e+01
-2.176735e+01
-2.300751e+01
-2.415815e+01
-2.515784e+01
0.000000e+00
-1.595666e-01
-3.662671e-01
-6.212598e-01
-9.247128e-01
-1.275705e+00
-1.672605e+00
-2.113566e+00
-2.596938e+00
-3.121434e+00
-3.686076e+00
-4.290184e+00
-4.933340e+00
-5.615290e+00
-6.335912e+00
-7.095215e+00
-7.893324e+00
-8.730450e+00
-9.606905e+00
-1.052304e+01
-1.147912e+01
-1.247516e+01
-1.351087e+01
-1.458548e+01
-1.569765e+01
-1.684531e+01
-1.802490e+01
-1.923002e+01
-2.045076e+01
-2.167091e+01
-2.285346e+01
-2.394819e+01
-2.490277e+01
0.000000e+00
-1.591881e-01
-3.657629e-01
-6.212172e-01
-9.256789e-01
-1.277950e+00
-1.676189e+00
-2.118415e+00
-2.602952e+00
-3.128524e+00
-3.694190e+00
-4.299306e+00
-4.943478e+00
-5.626478e+00
-6.348197e+00
-7.108655e+00
-7.907979e+00
-8.746375e+00
-9.624142e+00
-1.054160e+01
-1.149893e+01
-1.249597e+01
-1.353208e+01
-1.460588e+01
-1.571505e+01
-1.685602e+01
-1.802334e+01
-1.920845e+01
-2.039894e+01
-2.157640e+01
-2.271016e+01
-2.376005e+01
-2.468414e+01
0.000000e+00
-1.577259e-01
-3.635950e-01
-6.203749e-01
-9.277282e-01
-1.283419e+00
-1.684963e+00
-2.130105e+00
-2.617044e+00
-3.144605e+00
-3.711949e+00
-4.318505e+00
-4.963962e+00
-5.648135e+00
-6.370938e+00
-7.132405e+00
-7.932652e+00
-8.771851e+00
-9.650250e+00
-1.056810e+01
-1.152547e+01
-1.252204e+01
-1.355694e+01
-1.462836e+01
-1.573310e+01
-1.686624e+01
-1.802058e+01
-1.918601e+01
-2.034890e+01
-2.149101e+01
-2.258709e+01
-2.360646e+01
-2.451687e+01
0.000000e+00
-1.543245e-01
-3.582478e-01
-6.185157e-01
-9.318542e-01
-1.293074e+00
-1.700073e+00
-2.149621e+00
-2.639858e+00
-3.170158e+00
-3.739655e+00
-4.347896e+00
-4.994783e+00
-5.680143e+00
-6.403909e+00
-7.166149e+00
-7.966940e+00
-8.806389e+00
-9.684673e+00
-1.060192e+01
-1.155807e+01
-1.255275e+01
-1.358508e+01
-1.465306e+01
-1.575273e+01
-1.687785e+01
-1.801975e+01
-1.916724e+01
-2.030652e+01
-2.142088e+01
-2.249021e+01
-2.349199e+01
-2.440284e+01
0.000000e+00
-1.463979e-01
-3.466202e-01
-6.173349e-01
-9.399348e-01
-1.309191e+00
-1.723605e+00
-2.178416e+00
-2.672501e+00
-3.205930e+00
-3.777759e+00
-4.387735e+00
-5.036031e+00
-5.722479e+00
-6.447007e+00
-7.209725e+00
-8.010655e+00
-8.849812e+00
-9.727300e+00
-1.064311e+01
-1.159700e+01
-1.258872e+01
-1.361766e+01
-1.468177e+01
-1.577637e+01
-1.689395e+01
-1.802461e+01
-1.915655e+01
-2.027641e+01
-2.136958e+01
-2.242063e+01
-2.341428e+01
-2.433590e+01
0.000000e+00
-1.277281e-01
-3.357624e-01
-6.216627e-01
-9.590154e-01
-1.337099e+00
-1.758694e+00
-2.219099e+00
-2.716565e+00
-3.252776e+00
-3.826786e+00
-4.438192e+00
-5.087669e+00
-5.775008e+00
-6.500044e+00
-7.262981e+00
-8.063754e+00
-8.902269e+00
-9.778575e+00
-1.069251e+01
-1.164372e+01
-1.263211e+01
-1.365745e+01
-1.471764e+01
-1.580726e+01
-1.691770e+01
-1.803821e+01
-1.915681e+01
-2.026089e+01
-2.133784e+01
-2.237623e+01
-2.336732e+01
-2.430578e+01
0.000000e+00
-1.233866e-01
-3.558311e-01
-6.552637e-01
-1.002690e+00
-1.386782e+00
-1.811847e+00
-2.275195e+00
-2.774535e+00
-3.312005e+00
-3.887101e+00
-4.499269e+00
-5.149306e+00
-5.837071e+00
-6.562325e+00
-7.325264e+00
-8.125768e+00
-8.963638e+00
-9.838829e+00
-1.075107e+01
-1.169996e+01
-1.268549e+01
-1.370750e+01
-1.476362e+01
-1.584779e+01
-1.695076e+01
-1.806155e+01
-1.916846e+01
-2.025962e+01
-2.132398e+01
-2.235307e+01
-2.334351e+01
-2.429967e+01
0.000000e+00
-1.556586e-01
-4.143819e-01
-7.183466e-01
-1.068665e+00
-1.455038e+00
-1.881491e+00
-2.345307e+00
-2.845335e+00
-3.383213e+00
-3.958419e+00
-4.570775e+00
-5.220896e+00
-5.908602e+00
-6.633744e+00
-7.396448e+00
-8.196537e+00
-9.033779e+00
-9.908020e+00
-1.081892e+01
-1.176615e+01
-1.274964e+01
-1.376875e+01
-1.482036e+01
-1.589793e+01
-1.699229e+01
-1.809300e+01
-1.918902e+01
-2.026927e+01
-2.132372e+01
-2.234558e+01
-2.333483e+01
-2.430338e+01
0.000000e+00
-2.494203e-01
-4.952733e-01
-8.038950e-01
-1.151341e+00
-1.537639e+00
-1.965271e+00
-2.427805e+00
-2.927946e+00
-3.466167e+00
-4.040794e+00
-4.653028e+00
-5.303081e+00
-5.990362e+00
-6.715145e+00
-7.477456e+00
-8.276951e+00
-9.113488e+00
-9.986835e+00
-1.089656e+01
-1.184244e+01
-1.282424e+01
-1.384034e+01